/*--------------------------------*- C++ -*----------------------------------*\
| =========                 |                                                 |
| \\      /  F ield         | OpenFOAM: The Open Source CFD Toolbox           |
|  \\    /   O peration     | Version:  v1612+                                |
|   \\  /    A nd           | Web:      www.OpenFOAM.com                      |
|    \\/     M anipulation  |                                                 |
\*---------------------------------------------------------------------------*/
FoamFile
{
    version     2.0;
    format      ascii;
    class       volScalarField;
    location    "118";
    object      p;
}
// * * * * * * * * * * * * * * * * * * * * * * * * * * * * * * * * * * * * * //

dimensions      [0 2 -2 0 0 0 0];

internalField   nonuniform List<scalar> 
21243
(
3.07799
3.07182
3.06346
3.05826
3.07087
2.91785
2.90918
3.06687
3.04923
2.94048
3.08364
3.02469
2.98218
3.05275
3.047
3.07729
2.92053
3.05225
3.03563
3.03658
2.98514
3.0211
2.99041
2.9957
2.95188
3.05106
3.07351
3.04814
3.04744
2.98368
3.07035
3.07097
3.05269
3.00042
3.04254
3.05509
3.01776
3.05226
3.0161
2.97973
2.98116
2.98561
3.02308
2.98405
3.06588
3.03701
3.05844
3.0558
2.98557
3.02923
3.05509
3.0105
3.01013
2.93697
2.94939
3.01734
3.02082
3.07237
3.07141
3.01989
3.07956
3.03908
3.04496
3.07661
3.01582
2.94802
2.98142
3.07481
3.05715
3.0444
3.07312
3.03539
3.08501
2.92987
3.0817
3.07266
3.08923
3.03697
3.07763
2.99282
2.9736
3.08126
3.08061
3.00361
3.01397
3.05024
3.06288
2.98051
3.05316
3.05734
2.95983
2.96369
2.97091
2.9625
2.97718
3.05667
2.93909
3.01474
3.00395
3.00029
3.08884
2.99699
3.07106
3.06399
3.04082
3.087
2.89987
2.90489
2.90901
2.96628
2.96008
2.96079
3.02942
2.99486
3.0393
3.03435
3.06897
3.0846
3.03632
2.95267
2.98543
3.00892
3.05671
3.07459
3.07769
3.03624
3.04947
2.95614
2.99474
2.94649
3.07197
3.0684
3.06346
2.93532
3.06597
3.0556
3.05948
3.0512
3.04242
3.07741
3.07547
2.9535
3.07434
3.05923
3.06154
3.05362
2.96149
2.99709
3.01431
2.91858
2.96512
3.0715
3.0002
3.00034
3.0705
3.00709
2.97787
2.99277
2.96302
2.9218
2.9236
2.94901
3.07018
3.07128
3.04581
3.00802
3.08135
3.01159
2.99957
2.99979
3.07933
3.07697
3.08123
2.98385
2.99874
3.06422
3.05934
3.03547
3.03441
3.03132
2.9533
2.96649
3.07982
3.07378
3.01996
2.98407
3.03547
3.03227
3.02439
3.09155
3.088
3.01491
3.01882
3.01642
3.07439
3.07347
3.06829
3.07348
2.97784
2.97853
2.96229
3.07296
3.00252
2.90737
2.91044
2.89606
3.04829
3.0645
3.07202
3.06891
3.07101
3.06999
2.91626
2.91833
3.07476
2.97206
3.03002
3.04299
3.04601
3.04663
3.03564
3.07281
3.08094
3.07838
3.0761
3.07043
3.04515
3.0855
3.08936
3.08341
3.08734
3.0222
3.03695
3.03284
3.08243
3.08524
3.07269
3.02768
2.93556
2.93317
2.95301
2.9621
2.94206
2.97912
2.95577
3.03477
3.03083
3.04664
3.06319
3.04173
3.07849
3.07909
3.07905
3.06599
3.05673
3.05477
3.01723
2.94954
3.08086
3.07064
3.07774
3.06235
3.07287
3.07501
3.07403
3.0475
3.04301
3.06107
3.06313
3.05997
3.05666
3.04873
3.05945
3.05956
3.05811
3.06232
3.02918
3.04204
3.06704
3.083
3.07874
3.07184
2.99899
3.0564
2.89597
3.0717
2.97486
3.04074
3.05061
3.01526
3.02601
2.94734
3.00985
3.02072
3.08502
3.04754
3.0474
3.04842
3.04922
3.05411
2.99993
3.00428
3.00428
3.00669
3.00249
3.0443
3.04253
3.01607
3.03863
2.9326
3.04404
2.9955
3.04724
2.91859
3.05364
3.03576
3.0442
3.07609
3.07853
3.08113
3.08345
3.08121
3.07621
2.98508
2.97961
2.96393
3.00871
3.00855
3.00742
2.99341
2.99634
2.9995
3.01546
3.01508
2.90518
3.07645
3.02297
3.00282
3.02876
3.03889
3.0922
2.91125
3.08054
2.94601
2.9115
3.05795
3.06468
3.0711
3.03413
3.022
3.06637
3.0708
3.04866
3.05488
3.02836
3.0722
3.07829
3.0662
3.07247
3.08179
3.08168
3.07998
3.07606
3.0689
3.06152
3.02126
3.02926
3.0747
3.08052
3.07957
3.0837
3.00703
3.07623
3.04877
3.05594
3.0302
2.99998
2.99456
3.07715
3.07073
3.08601
3.08626
3.02922
3.01387
3.08094
3.02513
3.01122
3.0519
2.95459
3.06289
3.0696
3.06002
3.05373
3.0709
3.03548
3.00539
2.9892
3.01053
3.03859
3.07392
2.94725
2.94684
2.93458
2.93807
2.94088
3.01896
2.97108
2.9459
2.98767
2.98443
2.96845
2.99206
2.98246
2.98627
3.06831
2.93769
3.00879
3.08312
3.08164
3.08019
3.08132
3.07601
3.08143
2.96689
2.96245
2.96928
2.97762
3.06919
2.90866
3.05961
3.07885
3.08976
3.08394
3.07568
3.01542
3.05346
3.03551
3.02665
3.04412
3.02835
3.02497
3.048
3.04512
3.04978
2.95228
3.06899
3.03517
3.02871
3.01593
3.02979
2.91275
2.92369
2.9331
2.96289
2.95295
2.94667
2.97976
2.97488
2.94263
2.90541
2.90179
2.90143
3.07142
3.06188
3.0703
3.05192
3.04801
3.05315
3.04483
2.92405
2.91285
2.91604
3.05418
3.05603
3.00713
3.06236
3.08318
3.08233
2.9595
2.97703
2.98654
3.00304
2.99946
3.0304
3.06196
3.05397
3.00129
3.06803
3.06157
3.06791
3.07233
3.02656
3.02964
2.98496
2.9501
3.0176
3.01973
2.93397
2.93957
3.03789
3.04073
3.03565
3.04502
2.98356
3.05421
3.06742
2.98244
3.06672
3.07962
3.01446
3.06242
3.04751
3.00758
3.0794
3.0039
2.99679
3.00301
3.00553
2.98773
3.0761
3.01422
3.01769
3.02296
3.06606
3.05231
2.96264
2.98328
2.98542
2.9436
2.96317
3.03607
3.0322
3.00866
3.00993
3.02237
2.92822
3.08617
3.00796
3.05914
3.06403
3.06533
3.0886
3.01356
3.07914
2.97622
3.07535
3.01263
3.07962
3.07719
3.04724
3.06233
3.05385
3.00678
3.04174
3.03507
3.03803
3.03544
3.01832
3.00412
3.05408
3.03941
3.05947
2.93235
2.92708
2.99211
3.03479
3.08139
3.07391
3.00478
2.95163
3.07482
3.05997
3.07095
3.06867
3.04228
3.00378
3.00197
3.047
3.05411
3.02932
3.08448
3.03471
3.03787
2.90629
3.08931
3.08634
3.06672
3.06183
2.93055
2.99281
2.98701
3.08246
3.07199
3.03733
3.03626
3.08709
3.04044
3.05416
3.05208
3.0262
3.06867
3.02515
3.07388
3.03743
3.07255
3.02527
3.06032
3.07707
3.07118
3.0313
3.0526
3.0482
2.92528
3.05756
2.98507
3.01789
2.98867
2.9674
3.04083
2.99045
3.02634
3.01777
3.08267
3.05672
3.06666
2.96015
2.95801
2.97765
2.99047
2.9599
2.98677
3.00098
3.08262
3.08194
3.04934
3.06092
3.03079
3.01492
3.00611
2.94471
2.93431
2.91503
2.91342
3.00525
3.0056
3.0488
2.98784
2.94414
2.99984
3.01555
3.06741
3.07462
3.07581
3.05361
3.04144
2.99273
3.0411
3.00969
3.01252
3.03687
3.06068
3.07322
3.04943
3.04925
3.06125
3.07329
3.06446
3.02979
2.99243
3.03664
3.07231
3.07018
3.07492
3.06574
3.07992
3.06564
3.06577
3.08157
3.04654
3.03081
3.06179
3.07164
3.06881
3.04
3.06706
3.04188
3.05774
3.04985
3.07051
3.02916
3.03708
3.03175
3.03325
3.03577
3.04915
3.07133
3.0549
3.05969
3.06379
3.06358
3.04291
3.04039
3.02145
3.0384
3.04858
2.97494
2.94761
2.91352
2.9519
2.93878
2.92557
2.95289
3.04011
3.04801
3.07504
3.04582
3.06906
3.06824
3.05446
3.01203
2.98874
3.01897
3.00159
2.95069
3.02069
2.99847
2.96144
2.98378
3.00727
2.98679
2.98699
3.03443
3.02221
3.00188
2.9985
3.03862
3.0209
2.99401
2.9297
2.95765
2.93354
3.0536
3.04798
3.07487
3.04571
3.03332
3.03106
3.06762
3.01539
2.99115
3.01431
3.00775
2.96677
3.00137
2.9855
2.95478
2.98545
2.9738
2.99067
3.02526
3.01964
3.00157
3.01467
3.02748
2.99189
2.97699
3.01342
3.03026
3.01119
3.03991
3.03885
2.97665
3.07497
3.07183
3.08461
3.05702
3.08304
3.04944
3.07275
2.9686
3.04551
2.99143
3.0245
3.05075
3.03534
3.0289
3.02558
3.04051
3.03846
3.0266
3.06537
3.0767
3.07384
3.07483
3.06557
3.06553
3.07625
2.93731
2.91713
2.93707
3.03187
3.02355
3.01961
3.01744
3.03091
3.0298
3.01705
2.92267
2.91829
2.92953
3.0461
3.06349
3.06097
3.05884
3.06504
3.05096
3.0631
3.06046
3.07361
3.06548
3.06971
3.0742
3.05648
3.03569
3.02677
3.02837
3.04146
3.06051
3.05834
3.07199
3.07356
3.06416
3.04049
3.04192
3.05223
3.04432
3.05448
3.04965
3.05413
3.05399
3.05098
3.08781
3.09394
3.06853
3.07238
3.0627
3.07003
3.07586
3.0773
3.06849
3.06054
3.07397
3.05495
3.05034
3.04934
3.03668
3.03526
3.06742
3.06586
3.06625
3.0587
3.05949
3.05783
3.05849
3.05916
3.02843
3.06535
3.05206
3.05199
2.92272
2.95936
2.95168
2.94187
2.932
2.9268
2.94107
3.06308
3.04152
3.05619
3.04489
3.06082
3.05743
3.04798
2.9798
2.97527
2.97453
2.9713
2.98487
2.98827
2.97242
3.04412
3.01891
3.04258
3.02387
3.02819
3.0203
3.03207
3.01555
3.01671
2.96458
2.9796
2.95769
2.97496
2.97837
2.98565
2.96954
2.97895
2.97354
2.99576
2.97953
2.97014
2.96169
2.98685
3.04519
3.05936
3.04142
3.05212
3.04553
3.04852
3.04713
2.98764
2.97879
2.97881
3.01106
2.9785
2.97603
3.03121
2.91065
2.91551
2.90228
2.91059
3.02774
2.99724
3.03459
3.01398
3.02017
3.01074
3.01884
3.07389
3.07091
3.07746
3.08148
3.06612
3.06308
3.06844
3.06266
3.04629
3.05812
3.01356
2.93224
2.96714
2.93688
2.9302
2.94898
2.93876
2.96325
2.95435
2.94741
2.95057
2.95964
3.02304
2.98284
3.00679
3.00144
3.00885
3.00322
3.00799
2.99488
2.99587
3.02132
2.99311
3.01815
3.01237
2.99796
2.95775
2.93939
2.96634
2.97053
2.94609
2.9422
2.97421
2.98241
2.98906
2.94324
2.97499
2.96007
2.96583
2.96805
3.00601
3.01922
2.97286
2.98839
3.00261
3.00837
2.98087
3.08171
3.08572
3.08481
3.08382
3.07802
3.08645
3.08079
3.07782
3.07926
3.08515
3.08081
3.08566
3.08161
3.08604
3.0769
3.08322
3.07929
3.06899
3.07523
3.08067
3.08071
3.06649
3.07184
3.06199
3.0577
3.04646
3.04913
3.05873
3.05698
3.04759
3.06231
3.05313
3.05348
3.05594
3.04597
3.05776
3.05061
3.05429
3.05317
3.06804
3.06868
3.06658
3.05893
3.04567
3.04809
3.01356
3.02783
3.03877
3.02274
3.02928
3.02848
3.02512
2.9768
2.9921
2.98396
2.98866
3.01918
3.02894
3.01578
3.00824
3.02076
3.01379
3.01211
2.99699
3.00569
3.02262
3.02282
2.95119
2.91911
2.91248
2.9065
2.94885
2.91295
2.90768
2.90748
2.9109
2.91594
2.92268
2.90626
2.89299
2.9024
2.90464
3.01063
2.96617
2.98404
2.97828
2.99933
3.0225
3.00931
3.00704
3.02258
3.01545
3.01094
2.9848
2.99886
3.00026
2.99715
2.98719
3.022
3.01624
3.02944
3.06941
3.08158
3.07183
3.0734
3.07706
3.00564
3.00509
2.98976
3.00926
3.0143
2.99508
2.94984
2.97584
2.98701
2.98972
2.98827
3.02171
3.00176
2.99172
2.95302
2.98418
2.9699
2.96246
2.98575
3.0791
3.0764
3.06205
3.04989
3.06354
3.05599
3.06198
3.05862
3.07902
3.0649
3.07751
3.08136
3.07557
3.08309
3.07859
3.07796
3.07196
3.07174
3.06553
3.07495
3.08184
3.06943
3.06589
3.02988
3.05433
3.04028
3.0478
3.04971
3.03965
3.03891
3.00672
3.03312
3.01655
3.03659
3.03296
3.01896
2.98848
2.98527
2.97705
2.96434
2.97305
2.98139
3.00835
3.03959
3.02003
3.02836
3.01813
3.02277
3.0201
3.04887
3.02766
3.00154
3.01935
3.03071
3.02832
3.02005
3.04801
3.02772
3.03022
3.02378
3.04631
3.04027
3.02856
2.99251
3.01501
3.01258
3.02293
2.99991
3.00585
3.01474
3.04295
3.05363
3.04917
3.05982
3.05458
3.04907
3.06005
3.05458
3.0573
3.04238
3.06632
3.03766
3.06098
3.05009
3.05599
3.05257
3.06214
3.07524
3.07485
3.0836
3.05724
3.06497
3.07199
3.05444
3.07212
3.07454
3.0593
3.0618
3.0711
3.05211
3.05544
3.07097
3.08081
3.04098
3.01705
3.05031
2.9774
2.95239
2.98546
3.03071
3.02892
2.99773
3.01217
3.00445
3.04129
3.05418
3.04248
3.04976
3.04987
3.05613
3.04466
3.0571
3.06573
3.05538
3.066
3.06764
3.07017
3.0632
3.08177
3.0757
3.082
3.07766
3.08421
3.08665
3.09114
3.08681
3.08126
3.06666
3.06691
3.07518
3.0775
3.07824
3.06567
3.07941
3.07366
3.07528
3.07506
3.07914
3.08831
3.081
3.07129
3.06257
3.06287
3.06012
3.07006
3.06859
3.0607
3.06532
3.07622
3.07376
3.07154
3.08269
3.07994
3.08095
3.07936
3.08539
3.08082
3.08132
3.08175
3.07771
3.08316
3.08104
3.07467
3.06593
3.05762
3.06845
3.06464
3.06305
3.06746
3.06633
3.06812
3.06647
3.06924
3.08066
3.0713
3.07143
3.07212
3.07021
3.06428
3.06743
3.07211
3.07306
3.06715
3.07429
3.06976
3.08262
3.07409
3.08228
3.07034
3.08174
3.07664
3.07541
3.07002
3.08074
3.03098
3.03909
3.05071
3.04859
3.03591
3.03778
3.04625
3.05368
3.04455
3.04387
3.04121
3.04963
3.04463
3.056
3.03132
3.04134
3.07442
3.07207
3.0528
3.06309
3.0683
3.06948
3.06295
3.05226
3.04963
3.06769
3.05198
3.07367
3.08522
3.08961
3.08029
3.07433
3.0651
3.0749
3.0759
3.06851
3.06664
3.08147
3.06555
3.067
3.07079
3.08005
3.07952
3.05656
3.05017
3.03296
3.049
3.04868
3.04024
3.0395
3.05301
3.04146
3.0279
3.04112
3.03848
3.05737
3.0484
3.05226
3.04622
3.06294
3.05822
3.06139
3.06994
3.05583
3.05811
3.06334
3.06754
3.05694
3.06019
3.0645
3.06353
3.06706
3.05848
3.06398
3.07228
3.07143
3.06028
3.0607
3.05514
3.06213
3.05695
3.04972
3.03352
3.06192
3.07965
3.05555
3.04954
3.07359
3.06335
3.0576
3.05269
3.06453
3.06048
3.06444
3.04637
3.05521
3.04509
3.05992
3.06653
3.06602
3.07804
3.0435
3.02455
3.04114
3.04111
3.03636
3.03341
3.04328
3.05286
3.04718
3.04995
3.04429
3.02996
3.025
3.04059
3.02947
3.03913
3.02542
3.04249
3.03025
3.03546
3.04324
3.04399
3.03682
3.04458
3.03484
3.04763
3.04037
3.03964
3.04131
3.03823
3.03632
3.03498
3.04933
3.04557
3.04094
3.04437
3.04428
3.04123
3.06162
3.04633
3.06053
3.04792
3.05054
3.05673
3.06046
3.07793
3.06796
3.06807
3.05849
3.06134
3.06549
3.06087
3.06026
3.04583
3.04794
3.06426
3.05475
3.05022
3.0609
3.04972
3.0596
3.04402
3.05016
3.0585
3.06555
3.0578
3.05911
3.07015
3.05082
3.04194
3.03916
3.03765
3.02586
3.02784
3.0316
3.049
3.04368
3.03342
3.03129
3.0454
3.03907
3.05124
3.04554
3.0405
3.04152
3.03527
3.03631
3.02718
3.02124
3.02143
3.04795
3.04073
3.03666
3.03951
3.03233
3.05175
3.03621
3.03555
3.03953
3.04461
3.0345
3.05925
2.96875
2.97783
2.99795
2.97502
2.99416
2.99136
2.97677
2.95636
2.93137
2.95454
2.94128
2.95007
2.94468
2.92997
2.91533
2.92174
2.91552
2.90854
2.92478
2.9226
2.94369
2.9318
2.93944
2.92339
2.9267
2.93343
2.97269
2.95265
2.94392
2.93981
2.96377
2.95881
2.94496
2.95538
2.93425
2.95091
2.94021
2.95447
2.95018
2.9445
2.91836
2.93501
2.95958
2.94314
2.93218
2.93532
2.94079
3.03534
3.05176
3.03686
3.03324
3.05098
3.03623
3.03843
3.05224
3.05213
3.0576
3.04034
3.06016
3.05211
3.0545
3.0674
3.08014
3.07756
3.07637
3.07427
3.06835
3.04885
3.06484
3.05965
3.06563
3.06167
3.06329
3.04227
3.05974
3.07328
3.06414
3.05822
3.0579
3.06254
3.04271
3.05711
3.05764
3.06206
3.04598
3.04961
3.05766
3.07836
3.06406
3.05888
3.06103
3.07284
3.07078
3.06538
3.02996
3.01411
3.02226
3.03071
3.02607
3.03461
3.01818
3.03355
3.02566
3.03664
3.03339
3.02963
3.01425
2.99684
3.00125
3.00425
3.00476
3.00492
3.03595
3.01132
3.02716
3.01261
3.01926
2.9894
3.00864
3.00407
3.0156
3.00491
3.02931
3.00923
3.02224
3.01806
3.0155
2.97598
2.97201
2.95682
2.96625
2.96858
2.95506
2.94579
2.96321
2.96963
2.94572
2.95995
2.9513
2.9824
3.00503
3.02573
3.0111
3.00243
3.00429
3.00954
2.99213
2.99989
3.02112
2.99525
3.01378
3.00972
2.99948
2.97317
2.95422
2.97377
2.9763
2.96143
2.95617
2.98196
2.99307
2.99018
2.95971
2.97832
2.97452
2.97248
2.97828
3.00157
3.01931
2.98428
2.99313
3.00283
3.00963
2.98712
2.95346
2.98718
2.96558
2.96926
2.96291
2.96075
3.01378
2.99681
3.00745
2.99039
2.96538
2.99363
2.96806
2.97629
2.98266
3.02992
3.02117
3.04399
3.04221
3.02786
3.02967
3.04575
3.04593
3.03795
3.04612
3.03352
3.03327
3.02773
3.03825
3.03542
3.01679
3.00977
3.00835
3.02992
3.02369
3.01385
3.01524
2.99854
2.98538
3.00535
2.99656
2.99409
3.00707
3.01987
3.04232
3.03823
3.02666
3.03552
3.03779
3.02256
3.00293
3.01252
3.03872
3.01986
3.02174
3.02041
3.02117
3.01466
2.98827
3.02263
3.01251
3.0125
3.00747
3.0171
2.9391
2.93408
2.94722
2.96212
2.93304
2.94242
2.94616
2.94204
2.92607
2.91429
2.92343
2.91036
2.92351
2.92418
2.93557
2.95938
2.95053
2.94402
2.9496
2.95533
2.93907
2.96465
2.93008
2.93838
2.9602
2.95044
2.93332
2.9429
2.93764
2.92513
2.95098
2.94568
2.92413
3.02491
3.0454
3.04192
3.04822
3.02515
3.03133
3.0441
3.02307
3.03208
3.03456
3.03913
3.0307
3.02115
3.08154
3.05951
3.07152
3.03669
3.04313
3.06393
3.04894
3.05078
3.05159
3.05057
3.0444
3.02949
3.05863
3.04267
3.04501
3.04339
3.0501
3.0506
3.0296
3.02074
3.04046
3.02656
3.02827
3.04066
3.05437
3.06568
3.06665
3.04952
3.0637
3.06971
3.05536
3.01055
3.00404
3.001
3.00684
2.99754
3.00844
3.03504
3.02573
3.03975
3.0266
3.023
3.01944
3.02926
3.00326
3.00575
2.99311
2.99018
2.99686
2.99023
2.99221
3.00013
3.01988
2.99379
3.00352
3.02074
3.00528
3.0099
3.00998
3.00842
2.99768
2.97288
2.96327
2.95912
2.99019
2.9851
3.00363
2.98903
2.98855
2.98586
2.98662
2.97907
2.99353
2.97159
2.9602
2.95427
2.95807
2.9577
2.98503
2.96318
2.98526
2.98742
2.96901
2.97125
2.968
2.97417
2.98258
2.96658
2.98012
2.96887
2.97785
3.02237
3.03703
3.03472
3.03772
3.02076
3.02124
3.03656
3.00064
3.02428
3.01812
3.00496
3.01663
3.0217
3.00043
3.02778
3.00603
3.00115
2.99943
3.01923
3.02133
3.0087
2.98764
3.00603
2.9936
3.00368
2.98444
2.99207
2.99896
3.00628
3.02736
3.01003
3.00965
3.01124
3.01565
3.00586
3.01878
2.998
2.97952
2.9999
2.99768
2.99902
2.99774
3.00272
3.01339
2.98355
2.96379
2.93313
2.94194
2.93434
2.92614
2.94522
2.97002
2.95484
2.95961
3.05953
2.96619
2.94841
2.96615
2.96676
2.89552
2.95376
3.05552
3.06032
3.05667
3.05515
3.04934
3.05105
3.04769
3.05617
2.96228
3.0302
3.02696
2.97669
3.00722
3.00989
3.01114
3.00517
3.0526
3.0166
3.01015
3.01962
3.04574
3.05016
3.02553
3.04687
3.0498
3.02627
2.99422
2.96774
2.99637
2.97552
2.97462
2.99983
3.08122
3.07709
3.07817
3.07317
3.04754
3.06951
3.04142
3.0657
3.05655
3.06813
3.05951
3.08361
3.07854
3.07579
3.07873
3.07329
3.08333
3.07719
3.07382
3.07496
3.08196
3.02379
3.03779
3.03203
3.05591
3.03873
3.05394
3.04354
3.06914
3.0537
3.06121
3.06876
3.05933
3.05523
3.06569
3.06009
3.06676
3.05913
3.06547
3.0491
3.05536
3.02056
3.03746
3.02999
3.02785
3.03134
3.04354
3.04776
2.96016
2.97356
3.01098
2.98981
2.97747
2.97618
2.98185
2.94099
2.94579
2.92258
2.93893
2.93764
2.98546
2.96447
2.97341
2.97123
2.94809
2.93754
3.03013
3.02403
3.02707
3.03709
3.0431
3.04469
3.02228
3.05907
3.03055
3.02392
3.0599
3.02944
3.04447
2.984
3.01352
3.00072
2.9773
2.9927
3.00272
3.00677
2.98154
3.01736
3.01232
3.00047
3.01228
3.01757
3.00109
3.00323
3.01781
3.01675
3.00694
3.00878
3.01428
3.07399
3.07596
3.07427
3.07128
3.07089
3.07479
3.07018
3.0146
3.01316
3.01738
3.01366
3.02223
3.02249
3.01624
3.01675
3.02297
2.92554
3.07801
3.07685
3.02159
3.02401
3.0085
3.00958
3.02909
3.07721
3.07141
3.06766
3.07468
3.0775
3.07372
3.04334
3.05489
3.04157
3.04169
3.04207
3.04296
3.04008
3.05825
3.0658
3.0609
3.0672
3.05969
3.06592
3.06295
3.01433
3.02427
3.0167
3.03766
3.06273
3.05699
3.05919
3.06298
3.05927
3.08311
3.08619
3.08547
3.0915
3.08763
3.08142
3.07364
3.07864
3.07785
3.07722
3.0762
3.08088
3.07631
3.02893
3.0432
3.03128
3.04313
3.04575
3.05373
3.04734
3.04536
3.04447
3.04879
3.02719
3.01999
3.05851
3.05331
3.06042
3.05977
3.04192
3.0514
2.94311
2.94573
2.92889
2.93681
2.94242
2.93463
3.05043
3.0497
3.04659
3.05364
3.04894
3.05111
3.05008
2.97295
2.98465
2.98422
2.98233
3.00941
3.01287
3.00748
3.01577
2.99748
2.98303
2.99501
2.98555
2.99167
2.98635
2.99233
2.97214
2.98501
2.96699
2.97269
2.97346
2.97858
2.96503
3.03723
3.03634
3.04943
3.04151
3.04116
3.03643
3.04528
2.99359
2.98178
2.9899
2.98096
2.98768
2.98492
2.98827
3.00685
3.00417
3.00075
3.01466
3.02682
3.02934
3.00937
3.02453
3.01593
3.01448
3.02588
3.01603
3.02727
3.02154
3.01835
3.01987
3.02818
3.02429
3.02815
3.00433
3.01984
3.0263
3.02984
3.00962
3.0782
3.07559
3.05687
3.06204
3.07097
3.06642
3.06571
3.06106
3.06922
3.05362
3.05595
3.05188
2.93799
2.94122
2.9543
2.95021
2.94208
2.94505
2.94914
2.97313
2.97597
2.95419
2.96506
2.96926
2.97279
2.96161
2.99011
2.99581
2.97262
2.97988
2.98433
2.9853
2.97754
3.00315
2.98586
2.98558
2.98749
2.99638
2.9926
2.99149
2.97364
2.97827
2.98146
2.9672
2.97597
2.97148
2.97291
2.96237
2.9804
2.98364
2.98491
2.96982
2.97702
2.97841
2.97837
2.98344
2.98307
2.99449
2.98048
2.98773
2.98769
3.08714
3.0927
3.08794
3.08809
3.08323
3.08658
3.08082
3.07563
3.08741
3.06872
3.07555
3.07861
3.0818
3.07928
3.07832
3.08429
3.08103
3.08316
3.08312
3.08383
3.08345
3.07792
3.07403
3.08146
3.08091
3.04245
3.04726
3.04089
3.04482
3.03966
3.04495
3.04241
3.04038
3.03288
3.04578
3.03948
3.05671
3.05292
3.0552
3.0572
3.06315
3.0599
3.06084
3.06213
3.068
3.05891
3.05171
3.03464
3.02411
3.0322
3.02758
3.03244
3.02805
3.02891
2.99553
2.99056
3.03306
3.03242
3.02903
3.03
3.02428
3.01672
3.01091
3.01129
3.00738
3.01025
3.01925
3.02436
3.01622
3.01427
3.01925
2.91938
2.92876
2.91148
2.91496
2.92173
2.92655
2.93566
2.91611
2.92284
2.91124
2.92611
2.91733
2.91316
2.90975
2.9034
2.91184
2.913
2.98633
3.0058
3.00664
2.99941
3.00705
3.01256
3.00454
2.99608
3.00406
3.00779
3.00746
3.04894
3.05295
2.98919
2.98217
2.97236
2.98207
2.98444
2.98485
2.97854
2.93937
2.95393
2.95349
2.94832
2.94541
2.94691
2.94908
2.95905
2.94846
2.96225
2.99942
2.9797
3.02175
2.97935
2.99751
3.00789
3.07363
3.06963
3.08547
3.08062
3.06217
3.06683
3.06889
3.06261
3.06116
3.0593
3.06215
3.07834
3.07782
3.08295
3.07202
3.07942
3.08441
3.08644
3.07734
3.07986
3.08431
3.08048
3.08
3.08442
2.99755
2.99246
3.05737
3.0404
3.05105
3.04961
3.0516
3.04745
3.05169
3.04052
3.03683
3.02641
3.03569
3.03531
3.03863
3.03211
2.99687
3.00194
2.99739
2.9925
2.98559
3.03777
3.03074
3.04314
3.04264
3.03737
3.03916
3.04164
2.99621
3.01319
2.99196
3.00512
3
3.00775
2.99833
3.01316
3.01624
2.99605
3.00872
3.00872
3.01496
3.0027
3.03299
3.02956
3.04435
3.04177
3.03416
3.03178
3.03802
3.05049
3.05385
3.05341
3.05838
3.04993
3.05104
3.05164
3.06167
3.0504
3.05255
3.04548
3.06379
3.05182
3.05652
3.04705
3.05775
3.07057
3.06106
3.05865
3.06471
3.0852
3.07539
3.07617
3.07771
3.07919
3.06891
3.0783
3.07463
3.07429
3.07324
3.07872
3.07964
3.06255
3.05692
3.02997
3.04209
3.01704
3.02934
3.02468
3.03873
3.02228
3.00025
2.99624
3.03417
3.07857
3.07146
3.07603
3.07423
3.0769
3.0742
3.07641
3.07384
3.07789
3.07454
3.07295
3.0719
3.07692
3.0719
3.06868
3.07605
3.07075
3.07703
3.0714
3.07462
3.07593
3.08342
3.08536
3.05981
3.057
3.06209
3.06336
3.05933
3.06025
3.06251
3.08493
3.086
3.08437
3.08037
3.08267
3.08024
3.08121
3.08343
3.08585
3.0794
3.08473
3.07627
3.08521
3.08368
3.06104
3.07079
3.06646
3.06204
3.06208
3.0663
3.0625
3.08534
3.08957
3.05996
3.05862
3.06626
3.06637
3.06442
3.06341
3.07077
3.08144
3.08364
3.07834
3.08293
3.07303
3.07997
3.07894
3.0835
3.08129
3.07963
3.07488
3.05296
3.05208
3.05748
3.05596
3.05572
3.05216
3.0609
3.03632
3.039
3.04995
3.04746
3.0507
3.05576
3.04236
3.02793
3.02712
3.03114
3.05268
3.06011
3.05366
3.06004
3.05594
3.05891
3.05642
3.07888
3.06132
3.06453
3.07777
3.07697
3.07727
3.07662
3.08116
3.07933
3.07575
3.07419
3.07388
3.08011
3.06932
3.08037
3.07614
3.07493
3.07924
3.08481
3.08696
3.07862
3.08213
3.04877
3.05076
3.04863
3.0433
3.0494
3.04525
3.04521
3.04506
3.04274
3.04022
3.03841
3.03062
3.02477
3.02347
3.04969
3.04508
3.04993
3.04964
3.05087
3.05777
3.05943
3.06076
3.06408
3.06003
3.05903
3.06054
3.0651
3.07145
3.06985
3.06436
3.07635
3.07398
3.07378
3.07067
3.05703
3.05445
3.05934
3.03885
3.0253
3.04463
3.03844
3.03449
3.03407
3.04039
3.07967
3.08276
3.08039
3.06901
3.06557
3.07349
3.06467
3.06192
3.05996
3.06273
3.04969
3.06295
3.06288
3.05427
3.04793
3.0557
3.04636
3.07306
3.06982
3.07228
3.07485
3.06313
3.08087
3.07257
3.0362
3.03946
3.0324
3.03431
3.03736
3.03699
3.03527
3.03132
3.02726
3.03049
3.03406
3.03594
3.03514
3.03466
3.03744
3.02535
3.02886
3.02015
3.03039
3.02746
3.02831
3.02664
3.0352
3.03203
3.02395
3.03093
3.03278
3.026
3.04652
3.03289
3.04282
3.03856
3.02338
3.04821
3.03022
3.03644
3.03488
3.03927
3.03086
3.05534
3.05302
3.05949
3.05387
3.05778
3.0537
3.05714
3.07367
3.06242
3.04882
3.05295
3.05926
3.06441
3.06225
3.07039
3.06179
3.06051
3.06509
3.06559
3.05947
3.0606
3.0695
3.06382
3.06487
3.05868
3.06693
3.04059
3.05076
3.0597
3.01658
3.05062
3.04703
3.05306
3.04537
3.05094
3.04767
3.04997
3.05061
3.0441
3.01926
3.01697
3.01825
3.01798
3.02392
3.01531
3.01973
3.0227
3.02683
3.00853
3.0195
3.01853
3.0326
3.03578
3.04481
3.06259
3.05513
3.05103
3.06284
2.98468
2.96717
2.97256
2.97366
2.98004
2.97551
2.97847
2.94299
2.93448
2.95565
2.937
2.90704
2.92403
2.91389
2.91252
2.91438
2.92002
2.91147
2.94858
2.94581
2.96642
2.95506
2.95214
2.94866
2.95942
2.93352
2.93764
2.91866
2.93343
2.92565
2.9343
2.92366
2.93628
2.93107
2.93221
2.93183
2.93402
2.92996
2.96533
2.95
2.97073
2.95828
2.96117
2.95464
2.96399
3.03998
3.0523
3.04378
3.04539
3.04477
3.04713
3.04237
3.0531
3.05514
3.06056
3.05298
3.05076
3.0522
3.05547
3.08261
3.07379
3.0717
3.0757
3.07872
3.07365
3.07833
3.05412
3.05576
3.04206
3.04748
3.05061
3.05155
3.0464
3.07657
3.06704
3.07311
3.07138
3.07411
3.07133
3.0767
3.06777
3.0661
3.07526
3.06925
3.07013
3.06703
3.07404
3.05192
3.0568
3.04284
3.0515
3.05231
3.05604
3.04667
3.02979
3.02106
3.02854
3.02109
3.01949
3.00731
3.01529
3.01799
3.0191
3.01389
2.99736
3.005
2.99851
2.99229
3.00025
2.99693
3.00193
3.02952
3.01133
3.0244
3.00953
3.0166
3.00837
3.00206
3.00575
3.01187
3.00925
3.0047
2.9479
2.95577
2.95124
2.95528
2.9628
2.9827
2.97788
3.00291
2.99209
2.99031
3.03127
3.01743
3.03521
3.02431
3.02815
3.0228
3.02964
3.00988
2.99416
3.00115
2.99545
3.00367
2.99821
2.9986
2.97571
2.98018
2.97793
2.96852
2.97829
2.97271
2.97283
2.96587
2.98344
2.98067
2.98108
2.9718
2.97706
2.97424
2.9907
2.99125
2.9964
3.00177
2.99291
2.9944
2.99801
2.98416
2.98223
2.97037
2.98675
2.97292
2.98433
2.99438
2.98162
2.99606
2.99631
2.99242
2.97402
2.99489
2.98694
2.99053
2.97828
2.98302
2.98411
3.04499
3.04374
3.04627
3.04006
3.0455
3.03983
3.04219
3.01014
3.02324
3.01705
3.02108
3.01322
3.01856
3.01492
2.99658
3.0036
2.98513
2.99681
2.99534
3.00183
2.98944
2.99157
3.00685
2.99858
2.99908
2.99725
3.00239
2.99642
3.03603
3.02539
3.03425
3.03333
3.03163
3.02979
3.03548
3.03477
3.02145
3.03003
3.02451
3.02972
3.0257
3.02868
3.01035
3.00948
2.99896
3.00081
3.00804
3.00603
3.00307
2.95822
2.96176
2.95349
2.95453
2.95858
2.94992
2.95366
2.92972
2.92715
2.94469
2.93271
2.93795
2.92532
2.93833
2.95253
2.94268
2.94967
2.94418
2.95197
2.95839
2.92542
2.93554
2.92718
2.91008
2.93556
2.9318
2.92962
2.94666
3.05563
3.05043
3.05712
3.0573
3.05614
3.05248
3.05866
3.04136
3.0366
3.04076
3.06008
3.07883
3.07107
3.061
3.06137
3.04678
3.05831
3.05599
3.05732
3.04506
3.04891
3.04811
3.03813
3.03746
3.04137
3.04274
3.03762
3.02486
3.03851
3.03257
3.03778
3.03241
3.03516
3.03269
3.06566
3.04829
3.06201
3.05883
3.05358
3.05511
3.06032
3.03088
3.0191
3.01908
3.02309
3.00768
3.02018
3.01015
3.01453
3.01172
3.01455
3.01111
2.98274
2.99964
2.98355
2.98644
2.98483
2.99209
2.98101
3.0043
3.01123
3.01169
3.01114
3.00652
3.0113
3.01371
2.99842
3.01115
3.00993
3.0117
3.01037
3.01273
3.00292
3.00536
2.99071
2.9558
2.96691
2.96618
2.96214
2.95789
2.96445
3.006
3.00982
2.99716
2.99952
2.99773
2.9962
2.98022
2.97807
2.97625
2.98223
2.97582
2.98101
2.96985
2.95956
2.96672
2.95512
2.96834
2.97117
2.9832
2.98049
2.98707
2.99538
2.99127
2.98681
2.98682
2.98815
3.03324
3.0378
3.03182
3.02904
3.03315
3.03373
3.02948
3.01389
3.00238
3.0178
3.01325
3.00825
3.00723
3.01114
2.99649
2.99752
2.99309
3.00008
2.99645
2.99967
2.99209
3.00887
3.00842
3.02383
3.0155
3.01392
3.00884
3.01947
3.0186
3.01414
3.0279
3.02262
3.01929
3.01856
3.02291
2.97987
2.99609
2.98495
2.98834
2.98424
2.9869
2.98515
2.9718
2.98364
2.98781
2.98529
2.97986
2.97868
2.92089
2.93547
2.91605
2.91967
2.92448
2.9265
2.9206
2.99602
2.96001
3.0104
2.97557
3.02541
3.00891
3.00031
3.00877
3.01199
3.00569
3.02175
3.02846
3.01312
3.02009
3.02387
2.98527
3.00581
2.99439
3.00372
2.99449
3.00168
2.99688
3.01308
3.0216
3.02883
3.02485
3.01967
3.01946
3.02374
3.04385
3.02508
3.03271
3.03666
3.03557
3.03195
3.03178
2.99738
2.98886
2.99113
3.06793
3.07093
3.06111
3.0676
3.06414
3.06783
3.0659
3.05926
3.06202
3.05145
3.07995
3.08056
3.07373
3.08327
3.08161
3.08113
3.07944
3.07409
3.04781
3.04071
3.04314
3.04936
3.04753
3.05157
3.05027
3.04889
3.07456
3.05776
3.08004
3.06436
3.06998
3.07211
3.03371
3.05861
3.03435
3.04337
3.04569
3.04836
3.06408
3.04353
3.06591
3.0734
3.07501
3.07099
3.06623
3.05474
3.01325
3.01894
3.01078
3.02158
3.00326
2.99519
2.99155
3.0028
2.95358
2.96074
2.96049
2.95354
2.93806
2.95021
3.02213
3.03507
3.01884
3.03549
3.02117
3.0251
3.02284
3.06072
3.05647
3.05028
3.0553
3.0487
3.05909
3.06347
3.01179
3.01623
3.01101
3.00753
2.99902
3.01042
2.9709
3.00512
3.01185
3.06592
3.04893
3.06638
3.0498
3.06607
3.05311
3.06254
3.04789
3.05399
3.0333
3.03892
3.0448
3.04711
3.03756
3.00472
3.02056
3.00608
3.02077
3.01012
3.01801
3.01105
3.0302
3.02328
3.00935
3.02006
3.02268
3.02494
3.01669
3.03539
3.05115
3.04308
3.04625
3.04179
3.04456
3.03973
3.03271
3.03035
3.05115
3.04139
3.03759
3.03255
3.04454
3.03112
3.01075
3.0285
3.02414
3.02646
3.01879
3.03213
3.06219
3.06248
3.05619
3.0621
3.05964
3.06286
3.05911
3.07664
3.06853
3.07283
3.07507
3.0718
3.0725
3.07121
3.07844
3.07805
3.08142
3.07595
3.0771
3.07546
3.07817
3.06795
3.07095
3.07453
3.07606
3.07078
3.0747
3.07318
3.07355
3.06532
3.06802
3.06577
3.07084
3.0683
3.06825
3.07322
3.07125
3.06549
3.06842
3.07137
3.07119
3.06828
3.0688
3.07697
3.07074
3.07409
3.07116
3.07396
3.07091
2.92492
2.91637
2.92206
2.9192
2.91453
2.90743
2.91326
2.90846
2.92511
2.92537
2.93974
2.90411
2.92637
2.91487
2.92342
2.94266
2.91534
2.90869
2.91394
2.93675
2.92324
2.92553
2.91628
3.03809
3.03386
3.04318
3.03514
3.0384
3.03406
3.04012
3.03127
3.03371
3.02685
3.02528
3.03087
3.03076
3.02708
3.00949
3.01395
3.00749
3.01617
3.00909
3.01467
3.00974
3.02467
3.02201
3.01236
3.01754
3.02272
3.02052
3.01859
3.02361
3.03525
3.02861
3.03128
3.02704
3.02968
3.02712
3.02294
3.02673
3.034
3.02973
3.02738
3.02625
3.02988
3.02558
3.0122
3.02288
3.01971
3.0221
3.01879
3.02236
2.93303
2.9251
2.93768
2.92821
2.90751
2.91534
2.91663
2.90732
2.91979
2.9202
2.91199
2.91548
2.91707
3.045
3.05376
3.03416
3.05008
3.04715
3.05549
3.03875
3.07488
3.06254
3.0738
3.07346
3.06681
3.06226
3.06168
3.06632
3.0734
3.0642
3.0694
3.07014
3.06123
3.04808
3.04896
3.05781
3.06351
3.05966
3.05686
3.06538
3.07592
3.05829
3.06688
3.0686
3.06977
3.06848
3.06662
3.05964
3.05845
3.07026
3.06492
3.01543
2.99637
3.04503
3.06982
3.0511
3.05174
3.06103
3.05984
3.05463
3.0541
3.06011
3.07558
3.0768
3.07271
3.0707
3.0694
3.07242
3.06741
3.06515
3.06454
3.06365
3.06503
3.06224
3.06451
3.06001
3.0644
3.06147
3.062
3.02626
3.02332
3.00928
3.02266
3.01915
3.02621
3.03819
3.04861
3.04445
3.05188
3.03884
3.04392
3.0509
3.05652
3.04843
3.04093
3.05073
3.02148
3.03957
3.03393
3.03266
3.05256
3.04715
3.03298
3.03363
3.04624
3.04165
3.03042
3.03128
3.04428
3.04001
3.03796
3.0416
3.03281
3.05445
3.04977
3.04286
3.07006
3.06688
3.06878
3.07242
3.04613
3.06524
3.06105
3.05937
3.0609
3.06963
3.06534
3.07704
3.07585
3.05301
3.0609
3.06388
3.06892
3.07228
3.06032
3.07255
3.06309
3.06393
3.06889
3.06422
3.06487
3.07319
3.07462
3.08282
3.07008
3.07943