/*--------------------------------*- C++ -*----------------------------------*\
| =========                 |                                                 |
| \\      /  F ield         | OpenFOAM: The Open Source CFD Toolbox           |
|  \\    /   O peration     | Version:  v1612+                                |
|   \\  /    A nd           | Web:      www.OpenFOAM.com                      |
|    \\/     M anipulation  |                                                 |
\*---------------------------------------------------------------------------*/
FoamFile
{
    version     2.0;
    format      ascii;
    class       volVectorField;
    location    "118";
    object      wallShearStress;
}
// * * * * * * * * * * * * * * * * * * * * * * * * * * * * * * * * * * * * * //

dimensions      [0 2 -2 0 0 0 0];

internalField   uniform (0 0 0);

boundaryField
{
    WALL
    {
        type            calculated;
        value           nonuniform List<vector> 
1502
(
(0.00126904 -0.0104926 0.00670185)
(0.000706925 -0.0096319 0.00636261)
(0.00110068 -0.0140896 0.00538554)
(0.00103728 -0.0148598 0.0047151)
(0.00950803 -0.0103478 0.0110071)
(0.0106572 -0.0105294 0.00963958)
(-0.00139602 -0.0102892 0.00528931)
(-0.000779075 -0.00961537 0.00646798)
(0.00264202 -0.0116932 0.00601409)
(0.00302702 -0.0119379 0.00646066)
(0.00493817 -0.0103802 0.00857941)
(0.003457 -0.00981196 0.00831172)
(-0.00195002 -0.00949064 0.00435709)
(-0.00196044 -0.0103791 0.00503526)
(0.00181502 -0.0139093 0.00644734)
(0.00105434 -0.01385 0.00630226)
(-0.000467661 -0.0157733 0.00533981)
(-0.000589682 -0.0159764 0.00497651)
(0.000157706 -0.016711 0.00468825)
(0.000181061 -0.0168568 0.00420492)
(-0.000386084 -0.0155975 0.00439847)
(0.0102465 -0.0137144 0.00564473)
(0.011167 -0.0126758 0.00699376)
(0.0105988 -0.0130217 0.00632559)
(0.0103275 -0.0133757 0.00706372)
(0.0097087 -0.0145213 0.00563595)
(0.00981158 -0.0135305 0.00569801)
(0.0110565 -0.0131836 0.00623235)
(-0.00278343 -0.0151135 0.00707434)
(-0.00281636 -0.0148396 0.00646855)
(-0.00244343 -0.0151137 0.00696567)
(-0.00245245 -0.014824 0.00706337)
(2.97336e-05 -0.0129834 0.00469491)
(0.000480675 -0.0128145 0.00463246)
(7.20313e-05 -0.0131118 0.00446446)
(0.000548833 -0.0122695 0.0045771)
(0.000610317 -0.0129693 0.00453487)
(-0.000205179 -0.0159615 0.00381327)
(0.000314725 -0.0153883 0.00350811)
(-0.000308194 -0.0152906 0.00380787)
(-0.000743746 -0.015457 0.00396778)
(-0.000543764 -0.0147091 0.00367707)
(-0.0011777 -0.0153508 0.00409827)
(0.00988163 -0.00919101 0.0123165)
(0.00936971 -0.0100244 0.0120818)
(0.00833129 -0.0094945 0.012137)
(0.00914074 -0.00920721 0.0128098)
(0.00787371 -0.00917126 0.0125886)
(0.00783834 -0.00982481 0.0128351)
(0.00257601 -0.011536 0.00322647)
(0.00186844 -0.0113414 0.00391556)
(0.0029173 -0.0118866 0.0033051)
(0.00243276 -0.0115924 0.00368269)
(0.00178214 -0.011522 0.00410811)
(0.00343503 -0.0118928 0.00299824)
(0.00891052 -0.0118079 0.00759259)
(0.00849074 -0.0112801 0.00789061)
(0.00924261 -0.0113175 0.00872336)
(0.00895813 -0.0114292 0.00760736)
(0.0087293 -0.0109081 0.00908184)
(0.00817743 -0.011591 0.00895715)
(0.0056535 -0.0120019 0.00287394)
(0.00627427 -0.0121659 0.00282522)
(0.0051325 -0.0120082 0.00268283)
(0.00525184 -0.0123133 0.00256296)
(0.00684231 -0.0122747 0.00319572)
(0.00645848 -0.0118428 0.00332687)
(8.29422e-05 -0.0104105 0.00578917)
(0.000346674 -0.0108813 0.00451107)
(7.9414e-05 -0.0103431 0.00476382)
(-0.00010654 -0.0102765 0.0057939)
(-0.000273445 -0.0100787 0.00637124)
(0.000204009 -0.0101473 0.00515061)
(0.0113125 -0.01066 0.00566368)
(0.0113994 -0.0103785 0.00729694)
(0.0123199 -0.0107662 0.0067824)
(0.0122761 -0.0100528 0.00740706)
(0.0115693 -0.0106703 0.00550656)
(0.0113682 -0.0104075 0.0062997)
(0.00641341 -0.0120176 0.00400826)
(0.00588488 -0.0120255 0.00354773)
(0.00684379 -0.0125025 0.00481335)
(0.00624351 -0.0126783 0.00445322)
(0.00576889 -0.0121888 0.00376948)
(0.00712309 -0.0118011 0.00424424)
(0.00270875 -0.0123219 0.00292589)
(0.00334991 -0.0123853 0.0031041)
(0.00243402 -0.0122796 0.0031503)
(0.00287658 -0.0122278 0.00325098)
(0.00357317 -0.0125556 0.0035351)
(0.00348315 -0.0124267 0.00331693)
(0.000498715 -0.0115382 0.00274649)
(0.00134271 -0.0116531 0.00267502)
(0.000872637 -0.0111454 0.00276815)
(0.000253691 -0.0109868 0.00278335)
(0.000712289 -0.0118005 0.00274607)
(0.00135168 -0.0118053 0.00278476)
(0.000130199 -0.010737 0.00323207)
(0.000545287 -0.0109165 0.00282329)
(0.000115948 -0.0101392 0.00270558)
(-0.000301658 -0.0101362 0.00336247)
(0.000540619 -0.0108032 0.00279264)
(-4.39078e-05 -0.0104927 0.00303522)
(0.00538549 -0.0101537 0.012114)
(0.00682006 -0.0104941 0.0117288)
(0.00497818 -0.0110652 0.0119891)
(0.00704167 -0.00967372 0.0117896)
(0.00645602 -0.0104159 0.0125055)
(0.00585855 -0.0110206 0.0119501)
(0.00304127 -0.0119485 0.0116357)
(0.00269552 -0.0114055 0.0118395)
(0.00221243 -0.0116869 0.0108902)
(0.00183979 -0.0118699 0.0105544)
(0.00145936 -0.0127623 0.0107711)
(0.00337591 -0.0109331 0.0116107)
(-0.000343271 -0.0145198 0.00972646)
(0.000904713 -0.0121953 0.00926159)
(0.000180787 -0.0142389 0.0105709)
(-0.000231463 -0.0136263 0.00942307)
(0.000241805 -0.0142702 0.0101696)
(0.00433195 -0.0130086 0.00634952)
(0.00513627 -0.0127039 0.006193)
(0.00436743 -0.0131188 0.00711879)
(0.00445227 -0.0132043 0.00605676)
(0.00465525 -0.0127866 0.00734095)
(0.00510031 -0.0131657 0.00718193)
(0.00369246 -0.0133956 0.00885653)
(0.00327083 -0.0132193 0.00816944)
(0.00311899 -0.0135798 0.00894707)
(0.00309505 -0.0133052 0.00887576)
(0.00366449 -0.0136034 0.00806227)
(0.00413979 -0.013111 0.0083627)
(0.00805245 -0.0117217 0.0068055)
(0.00805042 -0.0122108 0.0064707)
(0.0072858 -0.0121916 0.00532489)
(0.00700802 -0.0122989 0.00575979)
(0.00794787 -0.0118606 0.00564684)
(0.00720374 -0.0120244 0.0065307)
(0.00866951 -0.00977442 0.0111588)
(0.00882513 -0.0105247 0.0101127)
(0.00974489 -0.00980353 0.0110551)
(0.00969035 -0.0106805 0.0100249)
(0.00970963 -0.00995426 0.009852)
(0.00848036 -0.0104094 0.0110656)
(0.00871397 -0.012425 0.0062758)
(0.0089723 -0.0112638 0.00523608)
(0.00812115 -0.0120612 0.00509795)
(0.00900376 -0.0118263 0.00599962)
(0.00830514 -0.0116033 0.00456002)
(0.00756141 -0.012342 0.0043227)
(0.00754372 -0.0117462 0.0044633)
(0.000414166 -0.0144259 0.00790716)
(0.000215138 -0.0146202 0.00810832)
(0.000604705 -0.0139605 0.00729301)
(0.000859748 -0.0144774 0.00740928)
(0.000806273 -0.0149974 0.00838647)
(0.00126322 -0.0142901 0.00783652)
(-0.000886939 -0.0147964 0.00811648)
(-0.00104026 -0.014456 0.00755331)
(-0.0006896 -0.0153241 0.00805735)
(-0.000248233 -0.0144303 0.0084989)
(-0.00119167 -0.0151594 0.00839558)
(-0.00131554 -0.0152422 0.00824278)
(-0.000638669 -0.0150211 0.00937066)
(-0.00139493 -0.0154222 0.00817893)
(-0.000877011 -0.016219 0.00967097)
(-4.32256e-05 -0.0139979 0.00967577)
(-0.000171791 -0.0147878 0.00963458)
(-0.000855412 -0.0142307 0.00855267)
(-0.000620182 -0.0148608 0.0089218)
(-0.00069748 -0.0149872 0.00931678)
(-0.0011257 -0.0155285 0.00897206)
(-0.000258276 -0.0143 0.00899923)
(-0.000259192 -0.0147037 0.00903007)
(-0.00100383 -0.0146231 0.00888912)
(0.00515552 -0.0123057 0.00507649)
(0.00487741 -0.0121509 0.00403054)
(0.00437488 -0.0130375 0.00487606)
(0.00508665 -0.0123744 0.00475144)
(0.0039302 -0.0127857 0.00432139)
(0.00191067 -0.0120797 0.00324448)
(0.00167634 -0.0123439 0.00302737)
(0.00217193 -0.0123257 0.00296545)
(0.00125682 -0.0123668 0.00306825)
(0.00122545 -0.0118667 0.00276192)
(0.00122166 -0.0117236 0.00263931)
(0.00314565 -0.0133608 0.00611359)
(0.00290543 -0.0133487 0.00632849)
(0.00381636 -0.0128381 0.00631156)
(0.00367849 -0.0132706 0.00704129)
(0.00280658 -0.0136764 0.00703539)
(0.00318723 -0.0132768 0.00723343)
(0.00217776 -0.0139753 0.0101159)
(0.00353835 -0.0136939 0.00995282)
(0.00300237 -0.0138818 0.0106431)
(0.0029112 -0.0133783 0.00973823)
(0.00237528 -0.0133596 0.0104365)
(0.00353065 -0.0133036 0.00995046)
(0.000406057 -0.0144536 0.00978969)
(-0.00027154 -0.0144373 0.00918556)
(-9.79237e-05 -0.0142619 0.0095858)
(0.000974298 -0.0143515 0.0101992)
(0.00107493 -0.0138271 0.0101652)
(0.000332283 -0.0138557 0.00955597)
(0.00479724 -0.0128811 0.00947849)
(0.00537384 -0.0130129 0.00922876)
(0.00474766 -0.0128411 0.00840106)
(0.005659 -0.0124504 0.00836117)
(0.00448938 -0.0134292 0.00927973)
(0.0052661 -0.0131791 0.00823368)
(0.00318334 -0.0113028 0.00255396)
(0.00515148 -0.0116958 0.00245728)
(0.00398921 -0.0120644 0.00261254)
(0.00409451 -0.0120038 0.0028772)
(0.00345135 -0.0113963 0.00240062)
(0.00516646 -0.012062 0.00248698)
(0.00204959 -0.0113857 0.00306074)
(0.000968529 -0.0108551 0.00397525)
(0.00184325 -0.0110145 0.00321072)
(0.00157991 -0.0111397 0.0035524)
(0.00135374 -0.011265 0.00338728)
(0.000976696 -0.0107803 0.0036399)
(0.00215805 -0.0122496 0.00274101)
(0.00174768 -0.0117208 0.00275327)
(0.00304297 -0.0121154 0.00270901)
(0.00252615 -0.0119586 0.00271779)
(0.00191593 -0.0115907 0.00257576)
(0.00301916 -0.0122096 0.00286713)
(0.00900928 -0.0120795 0.0033145)
(0.0102248 -0.0111835 0.00423756)
(0.00975569 -0.011828 0.00374829)
(0.00878952 -0.0120818 0.00324277)
(0.0106852 -0.0117056 0.00424049)
(0.0094402 -0.0112565 0.00344904)
(0.00756084 -0.012335 0.0031143)
(0.00687528 -0.0123924 0.00282904)
(0.00633429 -0.0122854 0.00286422)
(0.00876876 -0.0123802 0.00313932)
(0.00872892 -0.0119291 0.00312203)
(0.00759558 -0.0124058 0.00307127)
(-0.00149489 -0.00900573 0.00432828)
(-0.00131942 -0.00860956 0.00471104)
(-0.00188768 -0.00985585 0.00442306)
(-0.00173217 -0.00919466 0.00414876)
(-0.00143348 -0.00984983 0.0051617)
(-0.00131874 -0.0092234 0.00538077)
(-0.00173256 -0.00974736 0.00513775)
(-0.00174868 -0.0098793 0.00526534)
(-0.00147417 -0.00947826 0.00546441)
(-0.00162961 -0.00961486 0.00533851)
(-0.00143159 -0.00982183 0.00558279)
(0.0017883 -0.0120653 0.00545639)
(0.0018591 -0.0112751 0.00582248)
(0.00201042 -0.0120163 0.00577706)
(0.00142761 -0.0115621 0.00561746)
(0.00153093 -0.0122767 0.00548111)
(0.00133478 -0.0115395 0.00594003)
(0.000459662 -0.0112506 0.0056875)
(0.000682933 -0.0106735 0.00615288)
(0.000892578 -0.0110436 0.00563608)
(0.000483889 -0.010764 0.00612562)
(0.000479183 -0.0108752 0.00594765)
(0.000926859 -0.0112204 0.00606582)
(-8.11817e-06 -0.0145067 0.00385143)
(0.000510073 -0.0144277 0.00416626)
(0.000215575 -0.0142505 0.00402967)
(0.000702202 -0.0139197 0.00428897)
(0.000440006 -0.0142161 0.00369691)
(0.000653534 -0.0141433 0.00388102)
(0.00241104 -0.0135371 0.00519452)
(0.0030475 -0.0124374 0.00549635)
(0.00283614 -0.0130609 0.00522485)
(0.00268242 -0.013561 0.00508051)
(0.00214634 -0.0128484 0.00530325)
(0.00237206 -0.0127893 0.0055542)
(0.00226189 -0.0138949 0.00444818)
(0.0022021 -0.0138072 0.0045514)
(0.00189535 -0.0143294 0.00432526)
(0.00126023 -0.0139019 0.00404256)
(0.00143996 -0.0139239 0.00427071)
(-0.00286634 -0.0156358 0.00662172)
(-0.00255009 -0.0152027 0.00644499)
(-0.00263305 -0.0153242 0.00682548)
(-0.00266745 -0.0158281 0.00716401)
(-0.00238715 -0.0149932 0.00731698)
(-0.00283951 -0.0155701 0.00701257)
(0.00580613 -0.00922558 0.0112897)
(0.0068855 -0.00934987 0.0119611)
(0.00537683 -0.00880907 0.0113069)
(0.00738539 -0.00874981 0.0112393)
(0.00545977 -0.00889839 0.0116426)
(0.00659859 -0.00928117 0.0110168)
(0.00374755 -0.00831372 0.0116982)
(0.00271944 -0.00868134 0.0106897)
(0.00361644 -0.0092493 0.0110403)
(0.00229077 -0.00880083 0.0104116)
(0.00233118 -0.00874526 0.0111757)
(0.00393605 -0.008827 0.0113355)
(0.0038938 -0.00919301 0.01051)
(0.00411382 -0.00898486 0.0103523)
(0.00289373 -0.00855879 0.00999511)
(0.00305561 -0.00929562 0.0101984)
(0.00461663 -0.00893565 0.0106163)
(-0.000451013 -0.00927516 0.00585933)
(-0.000514648 -0.00969155 0.00635695)
(-0.000419859 -0.0103232 0.00506546)
(-0.000267295 -0.0104668 0.00487612)
(-0.000504376 -0.0092501 0.00489509)
(-0.00032189 -0.00938647 0.00554054)
(0.000815761 -0.00920882 0.00828317)
(0.0016954 -0.00903619 0.0087784)
(0.00104825 -0.00923537 0.00905482)
(0.00121517 -0.00817388 0.00823314)
(0.00195308 -0.00910684 0.00864686)
(0.00183684 -0.0088 0.00905702)
(-0.000448243 -0.00910067 0.0067177)
(-0.000536661 -0.00941613 0.00631)
(-0.00109283 -0.00985999 0.00617396)
(-0.000633669 -0.00862499 0.00656836)
(-0.00107879 -0.0091998 0.00632922)
(-0.000312835 -0.00885747 0.0064819)
(0.00147853 -0.00851668 0.00791328)
(0.00171088 -0.00894005 0.00801928)
(0.000776059 -0.00881868 0.00744052)
(0.00104547 -0.00846101 0.00772003)
(0.000774721 -0.00859437 0.00782549)
(0.00119502 -0.00937112 0.00781464)
(0.00152912 -0.0107236 0.00636745)
(0.00120185 -0.0103038 0.00696842)
(0.00112461 -0.0102731 0.00632565)
(0.00175614 -0.010709 0.00637418)
(0.00157602 -0.010729 0.00660769)
(0.00112564 -0.0105351 0.00664784)
(0.00295111 -0.0101854 0.00804205)
(0.00321019 -0.00998112 0.0079806)
(0.00207637 -0.00967032 0.00790709)
(0.00297413 -0.00967142 0.00811309)
(0.00224334 -0.00988349 0.00790793)
(0.00228377 -0.00971514 0.00826201)
(-0.00112759 -0.00964291 0.00513634)
(-0.0013305 -0.00992355 0.00455408)
(-0.00120948 -0.0102705 0.00431206)
(-0.00121877 -0.00946659 0.00541539)
(-0.00145571 -0.00977576 0.00451222)
(-0.000294136 -0.00962773 0.00736319)
(-0.000276261 -0.00896501 0.00693698)
(-0.000420243 -0.00878731 0.00687834)
(-0.000609387 -0.00903374 0.00674916)
(-0.00114332 -0.00958972 0.00635119)
(-0.000950695 -0.00978259 0.00585337)
(-0.00113759 -0.00978092 0.00440019)
(-0.000915747 -0.0102254 0.00425794)
(-0.00102567 -0.00951877 0.00478931)
(-0.00105784 -0.00970886 0.00508354)
(-0.000720878 -0.010414 0.00403167)
(-0.000869599 -0.00956084 0.00452527)
(0.00845314 -0.0127995 0.00711699)
(0.0079912 -0.0130056 0.00710216)
(0.00782907 -0.0133401 0.00577788)
(0.00732825 -0.0139733 0.00589848)
(0.00869708 -0.0133223 0.00656084)
(0.00744314 -0.0127264 0.00619909)
(0.00912796 -0.0111159 0.00963873)
(0.00872719 -0.00994502 0.0108941)
(0.00980729 -0.0105464 0.00974326)
(0.00863651 -0.0101927 0.0101756)
(0.00973704 -0.0107334 0.0107139)
(0.00807204 -0.0103012 0.0106981)
(0.00518574 -0.0094365 0.010177)
(0.0068897 -0.00988351 0.0108521)
(0.00649812 -0.0105496 0.00995136)
(0.00558682 -0.00943815 0.00981214)
(0.0072237 -0.0100542 0.0103605)
(0.0060012 -0.00923957 0.0106517)
(0.00606959 -0.0113713 0.00714949)
(0.00690614 -0.0112705 0.00796379)
(0.00642116 -0.0113605 0.00793334)
(0.00695151 -0.0121623 0.00686639)
(0.0061648 -0.01274 0.006982)
(0.00724694 -0.0120049 0.00749324)
(0.00461693 -0.0110301 0.00767486)
(0.00531293 -0.010779 0.00759215)
(0.00436768 -0.0101016 0.0077528)
(0.00466547 -0.0104589 0.00898039)
(0.00445888 -0.010404 0.00845179)
(0.00548243 -0.0107782 0.0082326)
(0.00617806 -0.00900208 0.0124051)
(0.00605157 -0.00998008 0.0128111)
(0.00415328 -0.00920515 0.0118702)
(0.00488193 -0.0100694 0.0125594)
(0.00503202 -0.0106423 0.0125343)
(0.001915 -0.0118097 0.00582465)
(0.00215646 -0.0117578 0.00507118)
(0.00015423 -0.0161306 0.00386737)
(-0.000459773 -0.0159752 0.00400865)
(-0.000881711 -0.0159759 0.00468768)
(0.000623221 -0.0158751 0.00377285)
(0.000361686 -0.0162262 0.00391664)
(-0.000324151 -0.0152133 0.00425768)
(0.00082602 -0.0160012 0.00395162)
(0.00201589 -0.0161905 0.00390014)
(0.00154532 -0.0171053 0.00399493)
(0.00255777 -0.0158754 0.00376081)
(0.00162005 -0.016132 0.00369833)
(0.00241083 -0.0165413 0.00381108)
(0.00106932 -0.0154618 0.00354219)
(0.000805819 -0.0159024 0.00381352)
(0.00191183 -0.0161154 0.00392841)
(0.00218254 -0.0153828 0.00368852)
(0.00144107 -0.0157749 0.00366075)
(0.00160482 -0.0153138 0.00370287)
(0.00408153 -0.0140723 0.00482319)
(0.00409635 -0.0141665 0.00529616)
(0.00511936 -0.0136928 0.00530125)
(0.00496093 -0.013505 0.00561138)
(0.00472084 -0.0144984 0.00518213)
(0.00607938 -0.0154198 0.00434776)
(0.00674236 -0.0150174 0.00433979)
(0.00736968 -0.0145307 0.00510281)
(0.00740324 -0.0140796 0.00436377)
(0.00618006 -0.0148954 0.00444902)
(0.00707326 -0.01498 0.00498859)
(0.0042838 -0.0157462 0.00351626)
(0.00501352 -0.0156714 0.00378629)
(0.00396195 -0.0156608 0.00372702)
(0.00345622 -0.01597 0.00368523)
(0.00467322 -0.0158136 0.00410586)
(0.00506474 -0.0153326 0.00415684)
(0.00473748 -0.0149679 0.00372658)
(0.00462731 -0.0153028 0.0037767)
(0.00549216 -0.0151841 0.00390007)
(0.00569937 -0.015556 0.0037691)
(0.00610592 -0.0147988 0.00371899)
(0.00417652 -0.0151061 0.00385458)
(-8.23613e-05 -0.0139921 0.00836433)
(0.000141498 -0.0139009 0.00835798)
(-0.000137986 -0.0137029 0.00712045)
(0.000304072 -0.0139547 0.00913314)
(0.000378745 -0.0129836 0.0088327)
(0.00216775 -0.0137385 0.00514728)
(0.00267675 -0.0147649 0.0043788)
(0.00223973 -0.014411 0.00437646)
(0.00353931 -0.0151655 0.00411756)
(0.00207246 -0.0146526 0.00524638)
(0.00321754 -0.0148439 0.00462733)
(0.0016559 -0.0131604 0.00669992)
(0.000878829 -0.0127396 0.00649554)
(0.00120126 -0.0122406 0.0076)
(0.000925454 -0.0129054 0.00757379)
(0.00116263 -0.0132809 0.00629563)
(0.00154312 -0.0133715 0.00577358)
(-0.00152453 -0.0157203 0.0060425)
(-0.00174995 -0.0151656 0.00524786)
(-0.00113967 -0.0155343 0.00524417)
(-0.00193393 -0.0156433 0.00616815)
(-0.0015034 -0.014787 0.00594341)
(-0.00157993 -0.0159901 0.00528351)
(-0.00130472 -0.0157081 0.00404314)
(-0.00181539 -0.0152646 0.00505029)
(-0.00144642 -0.0160395 0.00453344)
(-0.00299006 -0.0151782 0.00567068)
(-0.0031515 -0.0158854 0.00616258)
(-0.00299641 -0.0150682 0.00647183)
(-0.00314886 -0.0153374 0.0066399)
(-0.00280502 -0.0147875 0.00579588)
(-0.0032973 -0.0152895 0.00588556)
(-0.000456146 -0.0130588 0.00387311)
(0.000423922 -0.0131851 0.0041204)
(-0.000189107 -0.0133002 0.00415178)
(-0.000834221 -0.0138418 0.00405385)
(-0.000466661 -0.0136383 0.00397357)
(0.000180522 -0.0132951 0.00394502)
(3.0556e-05 -0.0104784 0.00623662)
(0.000233518 -0.0102781 0.00636801)
(-0.000432408 -0.0100693 0.00612627)
(-0.00022105 -0.0101047 0.00618231)
(-0.000148773 -0.00966796 0.0064132)
(0.000168632 -0.00984504 0.00626443)
(0.000809986 -0.01058 0.0083929)
(0.00108501 -0.0102978 0.00733552)
(0.000748736 -0.00889391 0.00881172)
(0.00237764 -0.00826178 0.0104431)
(0.00266971 -0.00950743 0.0112148)
(0.00435412 -0.00878087 0.0127348)
(0.00323481 -0.00794487 0.0113684)
(0.00381529 -0.00883668 0.0116159)
(0.000364227 -0.00930073 0.00775006)
(0.000955243 -0.0104358 0.00879992)
(0.00126435 -0.00864107 0.00936395)
(0.00134769 -0.00985275 0.00931585)
(0.000603009 -0.0101762 0.00764309)
(0.000694201 -0.00979408 0.00810731)
(-0.00184152 -0.0107943 0.00352691)
(-0.00135974 -0.0114501 0.00320953)
(-0.0019969 -0.0106483 0.00351435)
(-0.0016371 -0.011032 0.00323814)
(-0.00165805 -0.0111892 0.00343371)
(-0.0014828 -0.0113657 0.00330963)
(0.00219745 -0.0124956 0.003635)
(0.0016739 -0.0129391 0.00399469)
(0.00214944 -0.0121511 0.00375474)
(0.00177412 -0.0129844 0.00425959)
(0.00153405 -0.0127474 0.00335046)
(0.00138811 -0.0126779 0.00369652)
(-0.000274733 -0.0130136 0.00392194)
(-0.000165124 -0.01277 0.0037002)
(-7.9089e-06 -0.013109 0.00418549)
(0.000488399 -0.0132984 0.00429622)
(-8.80613e-05 -0.0124894 0.0037889)
(0.000136846 -0.0132482 0.00431913)
(0.000293681 -0.0145406 0.00660247)
(0.000776055 -0.0139696 0.00599612)
(0.000901474 -0.0139232 0.00684639)
(0.0012639 -0.0141004 0.00692191)
(0.000598711 -0.0137761 0.00602903)
(0.000393488 -0.01328 0.0048301)
(0.000536388 -0.0133918 0.00539445)
(0.00028382 -0.0130805 0.00483957)
(0.000505851 -0.0133529 0.00490252)
(-0.000204813 -0.0137588 0.0051774)
(0.000700787 -0.0139494 0.00550709)
(0.00270184 -0.0128039 0.00479004)
(0.00165007 -0.0136353 0.00484925)
(0.00263363 -0.0136068 0.00537038)
(0.00194239 -0.0136943 0.00538722)
(0.00265493 -0.013378 0.00556171)
(0.00211068 -0.0129989 0.0044749)
(-0.00164452 -0.0144493 0.0080202)
(-0.00211021 -0.0146885 0.00783434)
(-0.0021511 -0.0143094 0.00711339)
(-0.00199552 -0.0152299 0.00780661)
(-0.00206963 -0.015451 0.00774425)
(0.0120665 -0.0120553 0.00770571)
(0.0126114 -0.0129578 0.00754071)
(0.0130641 -0.0109425 0.00852401)
(0.0129499 -0.0114345 0.00863352)
(0.0129318 -0.0123862 0.00787334)
(0.0129178 -0.0122488 0.00689918)
(0.0115097 -0.0136165 0.00520349)
(0.0105457 -0.0131592 0.0053994)
(0.0113914 -0.0123301 0.00561911)
(0.0102468 -0.0135006 0.00472594)
(0.0125107 -0.0130038 0.00637241)
(0.012111 -0.0139016 0.00634946)
(0.00722125 -0.0151358 0.00407173)
(0.00897787 -0.0142504 0.00429967)
(0.00771876 -0.0144199 0.0039098)
(0.0088083 -0.0148921 0.00455018)
(0.00928594 -0.0142268 0.00470569)
(0.00783724 -0.0146803 0.00414596)
(0.0110788 -0.0111377 0.0101978)
(0.010912 -0.0110073 0.0092149)
(0.0114096 -0.0105096 0.010114)
(0.0119489 -0.0112787 0.00939617)
(0.0114568 -0.0111816 0.00831296)
(0.0111977 -0.0117465 0.008497)
(-0.00116951 -0.0151963 0.00639954)
(-0.0010634 -0.0155394 0.00806154)
(-0.000885723 -0.0161755 0.00633767)
(-0.00131991 -0.0153117 0.00712771)
(-0.000753682 -0.0154767 0.00676505)
(-0.000621549 -0.0141176 0.0079596)
(-0.00197367 -0.0107186 0.00360362)
(-0.0020689 -0.0110547 0.00387645)
(-0.00190773 -0.0102313 0.00340541)
(-0.0021885 -0.0106213 0.00410832)
(-0.00225538 -0.0107355 0.00413463)
(-0.00177221 -0.00985636 0.00332514)
(-2.27471e-05 -0.0155933 0.00548609)
(-0.000631905 -0.0168446 0.00591749)
(0.0106925 -0.0122155 0.00775948)
(0.0105662 -0.0134341 0.00680736)
(0.00911734 -0.0144001 0.00490374)
(0.010044 -0.0136631 0.00512875)
(0.0095435 -0.01405 0.00436386)
(0.01149 -0.0129768 0.00648784)
(0.0119525 -0.0123479 0.00794454)
(0.0125011 -0.0106678 0.00934508)
(-0.000709479 -0.0104128 0.00569709)
(-0.000479683 -0.0103766 0.00560676)
(-0.000717213 -0.0145965 0.00628254)
(-0.00168116 -0.0147339 0.00719954)
(-0.00189022 -0.0152858 0.0075888)
(-0.00196269 -0.0152898 0.00741878)
(-0.00133929 -0.0151953 0.00775399)
(-0.00103935 -0.0146105 0.00720658)
(0.00271325 -0.0136437 0.00624588)
(0.00211382 -0.0135465 0.00568699)
(0.00194166 -0.0137773 0.0062129)
(0.00240544 -0.0134879 0.00636438)
(0.00163153 -0.0139111 0.00553557)
(0.00141197 -0.0126683 0.00412477)
(0.00112353 -0.013661 0.00463738)
(0.000818067 -0.0135826 0.00451588)
(0.00141224 -0.0137735 0.0049217)
(0.00162459 -0.0134241 0.00494852)
(0.000952955 -0.0141729 0.00501923)
(0.000554568 -0.0138499 0.00492496)
(0.000239205 -0.0141171 0.00587025)
(0.00138815 -0.0137366 0.00554021)
(0.00107454 -0.0139494 0.00543929)
(0.000834952 -0.0140371 0.00566639)
(-0.000471373 -0.014343 0.00616059)
(9.77629e-05 -0.0141836 0.0059801)
(-0.000185274 -0.0138683 0.0058084)
(-0.000304862 -0.0135524 0.00525306)
(-0.000165476 -0.0141559 0.0057685)
(0.000339721 -0.0128501 0.00433537)
(0.000701854 -0.013276 0.00398484)
(-0.000379251 -0.0125219 0.00339029)
(4.63117e-05 -0.0124183 0.00353085)
(-0.000198454 -0.0125355 0.00333076)
(-0.000698305 -0.0121393 0.00329369)
(-0.000578232 -0.0123442 0.00327712)
(-0.00104206 -0.0111369 0.00301906)
(-0.000681002 -0.0115419 0.00304677)
(-0.000545934 -0.0118291 0.00301031)
(-8.82554e-05 -0.011593 0.00305774)
(-0.000635634 -0.0112934 0.0028766)
(0.000229931 -0.0116231 0.00282335)
(0.00112195 -0.0128445 0.00407082)
(-0.000722524 -0.0117939 0.00307969)
(-0.000998132 -0.0115875 0.00311414)
(-0.00112151 -0.0119912 0.00324975)
(-0.00111485 -0.0121495 0.00337277)
(-0.0017964 -0.0101093 0.00329659)
(-0.00139819 -0.011235 0.00314721)
(-0.00183273 -0.0108239 0.00346404)
(-0.000394302 -0.0126525 0.00375771)
(-0.000131103 -0.0127928 0.00405039)
(-0.000510916 -0.0125118 0.00366516)
(-0.000852889 -0.012418 0.00364469)
(-0.00069513 -0.0126021 0.0036984)
(0.00204269 -0.00921218 0.0103329)
(0.0040431 -0.00837933 0.0118755)
(0.00557881 -0.00887025 0.0119955)
(0.00535839 -0.00812568 0.01256)
(0.0066263 -0.0087217 0.0121138)
(0.00711201 -0.00821014 0.0125275)
(0.00649262 -0.00917566 0.0133494)
(0.00617385 -0.00871423 0.0129484)
(0.00594306 -0.00855252 0.0129805)
(0.00480758 -0.00861508 0.0123902)
(-0.000968006 -0.0093064 0.00574911)
(-0.000759271 -0.00990941 0.00544826)
(-0.000849382 -0.00981764 0.00569676)
(-0.000439371 -0.00983506 0.00548555)
(-0.000553174 -0.0101988 0.00588731)
(0.000497977 -0.0101219 0.00669625)
(0.000134391 -0.00926452 0.00624943)
(-0.000153365 -0.00938343 0.00633182)
(-0.000587648 -0.00945739 0.00638496)
(-0.000464926 -0.00896338 0.00618977)
(-0.000933227 -0.00991886 0.00582472)
(-0.000840844 -0.00951649 0.00582326)
(-0.000655784 -0.0096102 0.00592569)
(-0.00096872 -0.0091749 0.00586407)
(0.00834236 -0.00947724 0.0120625)
(0.00709101 -0.00931188 0.0121989)
(0.0127054 -0.0106549 0.0104643)
(0.0103703 -0.00968949 0.0115278)
(0.0112928 -0.0101553 0.0109344)
(0.0118387 -0.00984571 0.0110322)
(0.0115942 -0.00986527 0.0118968)
(0.0100804 -0.00931491 0.0122127)
(0.00900054 -0.0089899 0.0124168)
(0.00817554 -0.00910135 0.0126388)
(0.0103314 -0.00900777 0.012245)
(0.00788054 -0.00833433 0.0132235)
(0.00839576 -0.00865456 0.0127137)
(0.00963284 -0.00902344 0.0126816)
(-0.00280938 -0.0153418 0.00619755)
(-0.00162203 -0.0148626 0.00396179)
(-0.00190564 -0.0155944 0.00422838)
(-0.00208806 -0.0151546 0.00423828)
(-0.00274753 -0.0156359 0.00570081)
(-0.000846523 -0.0156262 0.00559315)
(-0.00292873 -0.0160507 0.00654864)
(-0.0025718 -0.015158 0.00579328)
(-0.00221671 -0.0151818 0.00710846)
(-0.00196644 -0.014645 0.00699518)
(0.00132845 -0.0139077 0.00592676)
(0.0015807 -0.0114532 0.0101879)
(0.000716506 -0.0128577 0.00917597)
(0.000715272 -0.0123427 0.00925804)
(0.00129766 -0.0120555 0.0103115)
(0.00202784 -0.0151811 0.00475076)
(0.000612584 -0.0147009 0.00508822)
(0.00150983 -0.0157918 0.00485118)
(0.00288783 -0.0149359 0.00408727)
(0.00331587 -0.0145603 0.00382037)
(0.00183951 -0.015276 0.00412126)
(0.00218087 -0.015645 0.00401309)
(0.00118427 -0.0155777 0.00444396)
(0.00209443 -0.0147771 0.00341879)
(0.000604178 -0.0151243 0.00482274)
(0.00100148 -0.0153886 0.00459966)
(0.00156974 -0.0157621 0.00423594)
(0.00847725 -0.0142245 0.00598343)
(0.00913405 -0.014148 0.00615452)
(0.00893917 -0.0134807 0.00519444)
(0.00717131 -0.0150809 0.00404501)
(0.00381781 -0.0158448 0.00359063)
(0.00284069 -0.0159995 0.003684)
(0.0076265 -0.0149707 0.00407256)
(0.00826266 -0.0145634 0.00451709)
(0.00828735 -0.0140733 0.00482903)
(0.0055811 -0.0156817 0.00398789)
(0.008355 -0.0133123 0.00502586)
(0.00802262 -0.0145945 0.00489835)
(0.00782933 -0.0149564 0.00474001)
(0.00812144 -0.0139286 0.00545932)
(0.00343577 -0.014444 0.00467169)
(0.00269678 -0.0138557 0.00428711)
(0.00285423 -0.0158266 0.00358218)
(0.00235729 -0.01651 0.00392035)
(0.000959259 -0.0164939 0.00436238)
(0.0020973 -0.0158371 0.00355691)
(0.00579362 -0.0154664 0.00451973)
(0.00607681 -0.015206 0.00488749)
(0.0052759 -0.0154541 0.00467535)
(0.00506182 -0.0144338 0.005101)
(0.00239405 -0.0142541 0.00408069)
(0.00211144 -0.0147184 0.00413538)
(0.00227713 -0.015152 0.00418812)
(0.00193828 -0.0147038 0.00372466)
(-0.00171846 -0.0152613 0.00425419)
(-0.00197442 -0.0148519 0.00453916)
(-0.00275316 -0.0157969 0.00568313)
(-0.00198161 -0.0154455 0.00454038)
(-0.00247825 -0.0154669 0.00563632)
(-0.00231573 -0.0159449 0.00533563)
(-0.00243027 -0.0156455 0.00497297)
(-0.00257131 -0.0150806 0.00521117)
(0.00102377 -0.0160916 0.00380694)
(0.000319451 -0.0154015 0.00397665)
(-0.000794649 -0.0153633 0.00486469)
(-0.00135555 -0.0154416 0.00492419)
(-0.00166759 -0.01506 0.00411682)
(-0.00127172 -0.0147163 0.00389431)
(-0.00146714 -0.0149796 0.0040814)
(-0.00114282 -0.0149812 0.00390547)
(-0.000888355 -0.0148954 0.00388528)
(-0.00125721 -0.0147211 0.0038795)
(-0.000688574 -0.0149615 0.00394323)
(0.00122732 -0.0149355 0.00381592)
(0.00168982 -0.0146236 0.0038691)
(0.00115747 -0.0149312 0.00388127)
(-0.000144379 -0.0148403 0.00377068)
(0.000203515 -0.0147815 0.00379835)
(0.000620051 -0.0145692 0.00369071)
(0.00133661 -0.0110834 0.00634404)
(0.0117327 -0.00959154 0.0102884)
(0.0121007 -0.00980563 0.00839511)
(0.0115612 -0.00936154 0.00878882)
(0.0111392 -0.00875541 0.010679)
(0.0109136 -0.00906313 0.011883)
(0.00716583 -0.0093217 0.0127724)
(0.000636011 -0.0121723 0.00853322)
(0.00113769 -0.01191 0.00965304)
(0.00165717 -0.0112226 0.00971611)
(0.000706281 -0.0114329 0.0085453)
(0.000957234 -0.0127936 0.0081645)
(0.00172518 -0.0136862 0.00573251)
(0.00238623 -0.0132608 0.00588134)
(0.0024375 -0.0138556 0.00540375)
(0.00120395 -0.00973456 0.00857203)
(0.00113315 -0.011245 0.00823166)
(0.00172567 -0.0121958 0.0065099)
(0.00118623 -0.0121285 0.00838016)
(0.00291815 -0.0136637 0.00504075)
(0.00337361 -0.0137713 0.00441216)
(0.00442572 -0.0140302 0.00388691)
(0.00491167 -0.0151859 0.00424919)
(0.0043234 -0.0157045 0.00425805)
(0.00612751 -0.0151581 0.0039216)
(0.0064136 -0.0151065 0.00379736)
(0.00496073 -0.0138637 0.00363862)
(0.00901921 -0.0143883 0.0043634)
(0.00545566 -0.014208 0.00396527)
(0.00607524 -0.0141308 0.00388032)
(0.00785737 -0.0140783 0.00385158)
(0.00727362 -0.0144072 0.00393303)
(0.00645939 -0.0146338 0.00407761)
(0.00719716 -0.0144959 0.00420532)
(-4.6671e-05 -0.0147551 0.00571656)
(-0.000271306 -0.0149929 0.00640067)
(-0.000107989 -0.01291 0.00636566)
(-0.000191876 -0.0145972 0.00664384)
(0.000208457 -0.0139557 0.00553613)
(0.00354715 -0.0137784 0.00482953)
(0.00363732 -0.0143055 0.00531274)
(0.00388969 -0.0130729 0.00541814)
(0.00347387 -0.0130075 0.0055185)
(0.00547332 -0.0140161 0.00530124)
(0.00569127 -0.0138152 0.00581824)
(0.00650215 -0.0132472 0.00625204)
(0.00887716 -0.00946826 0.0115671)
(0.00838669 -0.00972255 0.011422)
(0.0100002 -0.0102066 0.0113491)
(0.010327 -0.010368 0.0106649)
(0.00704203 -0.00966003 0.010758)
(0.0103421 -0.0128694 0.00797393)
(0.0100222 -0.0124915 0.00700124)
(0.00985821 -0.0117666 0.00832208)
(0.0101679 -0.0116047 0.00913115)
(0.00618569 -0.0143041 0.00562889)
(0.00625964 -0.0149851 0.00541058)
(0.00663313 -0.0133991 0.00587208)
(0.00686974 -0.0142966 0.0054106)
(0.00664759 -0.0136157 0.00651047)
(0.00758054 -0.0118599 0.00745193)
(0.00886023 -0.0131004 0.00638903)
(0.00970829 -0.0129009 0.00724102)
(-0.000763027 -0.00963493 0.00509131)
(-0.00100827 -0.00933152 0.00565191)
(-0.00125899 -0.00949371 0.00506196)
(-0.00122602 -0.0107286 0.0039671)
(-0.000872203 -0.0105063 0.00349191)
(-0.000890384 -0.0104322 0.00349292)
(-0.000967909 -0.0102247 0.00342871)
(-0.000480539 -0.0103051 0.00303078)
(-0.000964502 -0.0100847 0.00401604)
(-0.000404768 -0.0100665 0.00320787)