/*--------------------------------*- C++ -*----------------------------------*\
| =========                 |                                                 |
| \\      /  F ield         | OpenFOAM: The Open Source CFD Toolbox           |
|  \\    /   O peration     | Version:  v1612+                                |
|   \\  /    A nd           | Web:      www.OpenFOAM.com                      |
|    \\/     M anipulation  |                                                 |
\*---------------------------------------------------------------------------*/
FoamFile
{
    version     2.0;
    format      ascii;
    class       volScalarField;
    location    "118";
    object      p;
}
// * * * * * * * * * * * * * * * * * * * * * * * * * * * * * * * * * * * * * //

dimensions      [0 2 -2 0 0 0 0];

internalField   nonuniform List<scalar> 
21322
(
2.56984
2.58651
2.59659
2.59318
2.60198
2.54596
2.55026
2.53037
2.54527
2.65472
2.55025
2.54048
2.54555
2.54509
2.54782
2.5494
2.68072
2.54377
2.56621
2.56271
2.54613
2.61849
2.66018
2.59936
2.61928
2.59992
2.60808
2.55903
2.65303
2.65702
2.65102
2.54451
2.51594
2.56126
2.51506
2.57409
2.60483
2.55666
2.57362
2.5689
2.53082
2.5328
2.53405
2.53334
2.53988
2.56178
2.60238
2.6125
2.64613
2.63186
2.65214
2.55068
2.55254
2.54711
2.54506
2.52591
2.53269
2.57571
2.5779
2.55046
2.55796
2.53775
2.56886
2.5607
2.51511
2.54855
2.54183
2.5412
2.54008
2.55112
2.54503
2.60797
2.53744
2.53636
2.54221
2.60776
2.53778
2.61925
2.63758
2.63603
2.56148
2.52104
2.59377
2.57088
2.58276
2.61285
2.54729
2.5491
2.60403
2.6159
2.58856
2.58352
2.63647
2.63563
2.58333
2.55194
2.55561
2.56084
2.56144
2.52749
2.52923
2.6183
2.65791
2.57912
2.57065
2.63437
2.61485
2.55025
2.53291
2.53919
2.60821
2.59283
2.54159
2.54894
2.62246
2.56534
2.55519
2.63867
2.66713
2.63567
2.63439
2.56799
2.58015
2.5689
2.54824
2.53794
2.59761
2.57072
2.59258
2.65153
2.58697
2.57648
2.57385
2.55829
2.58193
2.58618
2.64077
2.6103
2.58956
2.57415
2.59124
2.57792
2.56376
2.58121
2.57802
2.62497
2.64495
2.66911
2.57356
2.60328
2.5818
2.56563
2.59752
2.66398
2.65338
2.67269
2.59491
2.59802
2.6116
2.6105
2.62149
2.62399
2.63828
2.65205
2.56154
2.55295
2.5429
2.56337
2.56086
2.58217
2.53515
2.53213
2.54508
2.68781
2.6939
2.57003
2.60291
2.59488
2.59785
2.6073
2.55295
2.55208
2.59627
2.52693
2.52592
2.54365
2.59932
2.60421
2.51072
2.52238
2.52933
2.60277
2.65895
2.68064
2.6527
2.54152
2.567
2.57666
2.55662
2.55597
2.53557
2.56945
2.5793
2.59939
2.51865
2.51996
2.55168
2.56204
2.55928
2.55398
2.56166
2.55375
2.5433
2.58158
2.56986
2.55844
2.55192
2.581
2.58728
2.50575
2.51805
2.51872
2.57373
2.57496
2.57129
2.56807
2.56172
2.54635
2.55212
2.63237
2.64028
2.54265
2.54126
2.57549
2.58224
2.52135
2.5261
2.56599
2.56587
2.57319
2.57262
2.68584
2.5676
2.65459
2.63616
2.66156
2.65809
2.68957
2.66707
2.67566
2.63419
2.59607
2.60386
2.61074
2.60038
2.61631
2.55948
2.54806
2.54237
2.54589
2.54513
2.55016
2.54357
2.54084
2.60019
2.59353
2.54238
2.54057
2.54045
2.5599
2.69039
2.54294
2.54276
2.55139
2.54666
2.55522
2.55908
2.55584
2.54076
2.60199
2.58745
2.57397
2.58142
2.54361
2.55146
2.55218
2.55097
2.54592
2.54889
2.55051
2.62834
2.61197
2.53584
2.66096
2.66832
2.67275
2.59005
2.6232
2.64163
2.63791
2.61219
2.58296
2.58914
2.59552
2.55407
2.55128
2.53834
2.58353
2.58823
2.61393
2.57604
2.57683
2.58997
2.67908
2.67778
2.54046
2.54203
2.58826
2.58344
2.57577
2.58114
2.67259
2.59085
2.58106
2.54917
2.55713
2.66336
2.67654
2.54023
2.5382
2.56277
2.5341
2.53495
2.53401
2.53454
2.57836
2.6439
2.62231
2.62794
2.56179
2.56496
2.55207
2.56332
2.57367
2.55032
2.55821
2.51176
2.61084
2.6148
2.62651
2.62909
2.56905
2.53729
2.53081
2.55607
2.59999
2.60955
2.52241
2.58928
2.589
2.58694
2.61146
2.60818
2.62117
2.5768
2.57091
2.5841
2.68103
2.64194
2.66457
2.55736
2.63318
2.62051
2.54221
2.57206
2.60172
2.60012
2.60325
2.64033
2.52985
2.58068
2.54828
2.5574
2.54251
2.51911
2.56894
2.59548
2.56311
2.57219
2.53787
2.56656
2.54482
2.59863
2.52775
2.53819
2.6327
2.58463
2.58553
2.5876
2.59277
2.57181
2.57432
2.57519
2.69264
2.62554
2.56038
2.56506
2.56822
2.55099
2.55353
2.54547
2.59811
2.68152
2.67542
2.65193
2.65316
2.52679
2.53359
2.5891
2.59034
2.62072
2.58588
2.59797
2.54399
2.53904
2.53419
2.5341
2.56382
2.55353
2.56202
2.64411
2.60061
2.59684
2.52599
2.52212
2.53038
2.57985
2.59467
2.59912
2.5957
2.62915
2.62703
2.56613
2.55444
2.55922
2.56228
2.55201
2.55152
2.60477
2.60659
2.54546
2.54347
2.55109
2.63364
2.58686
2.58135
2.61166
2.55357
2.58646
2.64913
2.65316
2.6445
2.52665
2.57116
2.56417
2.63198
2.50105
2.57814
2.65903
2.53866
2.66471
2.55799
2.59059
2.49825
2.56581
2.58868
2.55389
2.62862
2.59205
2.5514
2.67923
2.58592
2.53223
2.58003
2.56625
2.67772
2.53086
2.61889
2.63621
2.59298
2.58278
2.58737
2.55545
2.58162
2.55103
2.66001
2.65691
2.65486
2.65153
2.65757
2.64989
2.69591
2.71055
2.52828
2.53369
2.54028
2.56372
2.63298
2.57499
2.62316
2.58262
2.54942
2.62438
2.55477
2.56082
2.53815
2.53891
2.55157
2.68899
2.68479
2.57062
2.61485
2.61832
2.61662
2.63101
2.52672
2.59745
2.6156
2.61387
2.61736
2.60062
2.612
2.61876
2.57583
2.60178
2.5745
2.55289
2.57516
2.56918
2.53799
2.5452
2.58148
2.58805
2.58452
2.60996
2.62323
2.50986
2.51705
2.587
2.54301
2.64238
2.63531
2.56549
2.57421
2.56458
2.5669
2.55621
2.69124
2.69895
2.58756
2.55754
2.56219
2.55463
2.56039
2.57395
2.54867
2.58437
2.56226
2.58891
2.54316
2.66689
2.5741
2.58292
2.56435
2.531
2.54799
2.50801
2.68286
2.63324
2.63764
2.65154
2.63322
2.57155
2.5605
2.54264
2.54226
2.61215
2.56384
2.49678
2.58045
2.57949
2.56484
2.58181
2.59391
2.63158
2.61765
2.63474
2.59304
2.59829
2.56753
2.55452
2.52714
2.53086
2.59698
2.60158
2.60718
2.61689
2.53615
2.63288
2.57388
2.57967
2.55986
2.65669
2.5943
2.61713
2.59809
2.63863
2.67957
2.59626
2.5958
2.64432
2.60247
2.64495
2.53265
2.53055
2.68344
2.58489
2.56966
2.54497
2.5689
2.5596
2.56528
2.56546
2.56237
2.56373
2.55995
2.54823
2.55265
2.54807
2.54842
2.5474
2.59751
2.61815
2.58041
2.58178
2.56594
2.59886
2.57088
2.58802
2.57331
2.57729
2.59578
2.60509
2.59209
2.58605
2.60031
2.58979
2.58205
2.55555
2.5439
2.54341
2.55389
2.57188
2.57849
2.54461
2.52445
2.54706
2.53685
2.545
2.52636
2.54404
2.5351
2.53907
2.5767
2.58498
2.61791
2.59426
2.59527
2.6188
2.59763
2.61686
2.58016
2.57108
2.60217
2.54375
2.55155
2.55071
2.56818
2.55808
2.54688
2.54391
2.55034
2.54717
2.53665
2.53451
2.55926
2.56863
2.56041
2.57285
2.5636
2.57027
2.58101
2.58114
2.56094
2.61332
2.59955
2.60927
2.59202
2.58797
2.57874
2.5907
2.59211
2.58095
2.6424
2.64608
2.60735
2.65204
2.61107
2.61927
2.63742
2.67205
2.68295
2.65807
2.67172
2.65314
2.68007
2.63112
2.5775
2.60783
2.61362
2.59763
2.59983
2.60562
2.60289
2.59102
2.61356
2.60454
2.59119
2.59142
2.61799
2.59808
2.59059
2.6344
2.62697
2.6587
2.52776
2.545
2.53341
2.53733
2.56152
2.55235
2.56085
2.54402
2.50338
2.52625
2.54464
2.53237
2.53355
2.52982
2.54048
2.53416
2.52669
2.51348
2.55158
2.5356
2.53002
2.53186
2.54724
2.51186
2.51838
2.52953
2.52945
2.59799
2.57848
2.56929
2.64827
2.58015
2.60003
2.61015
2.57727
2.53511
2.53999
2.53957
2.53569
2.53648
2.53743
2.57965
2.63152
2.63037
2.62973
2.64282
2.58207
2.56901
2.57618
2.57927
2.57433
2.58092
2.57908
2.57679
2.5789
2.57957
2.56704
2.57614
2.55646
2.54518
2.5527
2.54019
2.64683
2.64479
2.63878
2.64437
2.60674
2.60669
2.61816
2.62565
2.57233
2.56713
2.53811
2.54443
2.53512
2.54103
2.53716
2.54021
2.53952
2.53946
2.56794
2.57444
2.56338
2.56464
2.56302
2.61433
2.59116
2.59046
2.60133
2.5955
2.59153
2.60292
2.59303
2.59655
2.60373
2.60548
2.59327
2.60082
2.6141
2.59684
2.658
2.63874
2.64848
2.64295
2.6398
2.64298
2.67192
2.65117
2.66956
2.66245
2.64049
2.6747
2.6405
2.66406
2.65382
2.66147
2.65903
2.57907
2.5796
2.58371
2.62066
2.65812
2.65266
2.58663
2.65389
2.66526
2.65604
2.65016
2.65208
2.62734
2.61858
2.62517
2.60787
2.61071
2.60693
2.61518
2.61871
2.63434
2.6238
2.64719
2.6438
2.62777
2.5493
2.5484
2.51647
2.53572
2.53565
2.53182
2.5329
2.53624
2.53366
2.5327
2.55774
2.54159
2.55034
2.5388
2.54753
2.5438
2.54854
2.66128
2.63856
2.6352
2.56568
2.57476
2.5623
2.55639
2.5717
2.57404
2.61786
2.63525
2.62301
2.55551
2.5731
2.56567
2.56115
2.56458
2.56816
2.55739
2.53732
2.54553
2.54466
2.54661
2.53927
2.54079
2.54569
2.57282
2.55583
2.56345
2.56877
2.55526
2.55709
2.55791
2.56399
2.55285
2.55444
2.57024
2.5557
2.55489
2.55573
2.55815
2.55241
2.55658
2.55162
2.55965
2.54665
2.55577
2.55651
2.5771
2.57305
2.56054
2.56077
2.57219
2.57463
2.55138
2.55569
2.56037
2.5567
2.5555
2.55365
2.55721
2.56045
2.56062
2.56264
2.55472
2.54909
2.55889
2.55101
2.55075
2.55698
2.54767
2.54625
2.55037
2.5521
2.54737
2.55205
2.55218
2.54675
2.54208
2.54516
2.54361
2.54382
2.54273
2.5433
2.54325
2.54439
2.54804
2.54382
2.54056
2.54492
2.54966
2.54705
2.54329
2.54427
2.54609
2.57224
2.58857
2.57997
2.58937
2.57263
2.57872
2.58393
2.58015
2.59119
2.59358
2.61783
2.61881
2.63292
2.63169
2.61228
2.59338
2.59694
2.60411
2.57545
2.60183
2.59337
2.59345
2.58902
2.60066
2.59354
2.57076
2.59043
2.59028
2.58361
2.5982
2.59543
2.61519
2.61544
2.60758
2.60711
2.62304
2.57692
2.56729
2.57382
2.57577
2.60995
2.58376
2.6131
2.589
2.60462
2.60247
2.59469
2.56959
2.57685
2.56653
2.56585
2.5756
2.57753
2.56441
2.57739
2.59025
2.57273
2.57196
2.57452
2.58014
2.57392
2.58287
2.57952
2.56891
2.574
2.57514
2.57654
2.57479
2.5898
2.58134
2.57124
2.58767
2.58919
2.57565
2.56574
2.57048
2.57064
2.57309
2.56136
2.56461
2.5703
2.65335
2.65792
2.64066
2.61471
2.5924
2.62081
2.60868
2.60905
2.60264
2.61878
2.60729
2.61171
2.59607
2.60499
2.60925
2.60966
2.6015
2.5725
2.59193
2.57577
2.57973
2.57629
2.57983
2.57294
2.585
2.58446
2.57268
2.58523
2.57997
2.58238
2.5831
2.60632
2.61302
2.59532
2.59301
2.61031
2.60924
2.59211
2.5896
2.58937
2.60969
2.59291
2.59972
2.59656
2.59564
2.57912
2.57477
2.59112
2.58585
2.5781
2.57828
2.5878
2.5703
2.56443
2.5584
2.55746
2.57148
2.56932
2.55904
2.56012
2.56593
2.56314
2.55125
2.55144
2.56503
2.54533
2.54175
2.53755
2.5424
2.53873
2.53864
2.53942
2.57708
2.55805
2.55376
2.55642
2.5653
2.5661
2.55935
2.55075
2.5698
2.55388
2.56071
2.55313
2.55786
2.55787
2.55359
2.57196
2.57275
2.56386
2.56527
2.57074
2.56282
2.56301
2.54641
2.54453
2.55359
2.55168
2.55008
2.55712
2.55738
2.51377
2.52132
2.52726
2.52933
2.55585
2.54167
2.55963
2.55171
2.55354
2.54912
2.56207
2.54757
2.52914
2.55315
2.54102
2.54295
2.54157
2.54582
2.52931
2.5297
2.56778
2.55335
2.54178
2.55872
2.55143
2.55207
2.52916
2.52349
2.5244
2.54702
2.54138
2.55348
2.54827
2.55227
2.54868
2.54836
2.54637
2.53376
2.5275
2.54646
2.53473
2.53961
2.54331
2.5366
2.54519
2.53817
2.54174
2.55055
2.54061
2.59751
2.57824
2.57238
2.58558
2.57921
2.57884
2.58709
2.61381
2.62401
2.62623
2.57613
2.59873
2.55523
2.57232
2.59445
2.58629
2.5929
2.59769
2.60284
2.5793
2.59626
2.5976
2.59782
2.59117
2.60364
2.60256
2.60614
2.61183
2.60268
2.58243
2.58596
2.57806
2.5784
2.59269
2.63382
2.62544
2.62531
2.63908
2.63597
2.60868
2.6022
2.57821
2.60112
2.59013
2.59477
2.59953
2.65328
2.61895
2.63004
2.62115
2.63033
2.62733
2.6381
2.61766
2.60769
2.62411
2.61443
2.61575
2.62197
2.58957
2.58213
2.56233
2.57741
2.58545
2.58833
2.57381
2.59521
2.60498
2.57789
2.59592
2.58968
2.60826
2.60197
2.5973
2.57823
2.57314
2.58349
2.57444
2.55346
2.54346
2.54399
2.54635
2.54625
2.54368
2.56337
2.54996
2.56503
2.56001
2.55691
2.5492
2.54575
2.55295
2.54102
2.53585
2.54032
2.54098
2.56114
2.56299
2.55346
2.55518
2.5611
2.55539
2.55661
2.5656
2.5576
2.55564
2.5616
2.5549
2.55803
2.55628
2.5609
2.5608
2.55507
2.54896
2.55652
2.55475
2.55461
2.55276
2.55313
2.54632
2.54359
2.54558
2.54734
2.55271
2.55399
2.55149
2.55163
2.5507
2.54243
2.55893
2.54775
2.55402
2.54776
2.54281
2.5506
2.54813
2.55043
2.54901
2.55095
2.5362
2.54812
2.54183
2.5414
2.53786
2.54214
2.53601
2.53468
2.53506
2.53237
2.53778
2.53525
2.53195
2.53823
2.5666
2.57204
2.56652
2.56184
2.55646
2.56457
2.56016
2.55662
2.55551
2.56194
2.56116
2.55945
2.56007
2.56356
2.5592
2.55809
2.55684
2.56543
2.5578
2.55566
2.56212
2.56543
2.55943
2.55966
2.57746
2.57449
2.56469
2.5753
2.57626
2.57406
2.56195
2.56339
2.57162
2.5632
2.56421
2.56929
2.58213
2.58102
2.57646
2.56953
2.58548
2.57452
2.57418
2.56762
2.57365
2.5723
2.56532
2.57211
2.56478
2.57907
2.57113
2.5637
2.5711
2.57382
2.57714
2.5685
2.61279
2.62106
2.61032
2.61584
2.62095
2.60183
2.6032
2.60459
2.59484
2.59027
2.60685
2.60533
2.61077
2.59199
2.61083
2.60072
2.59397
2.60936
2.59072
2.57789
2.57951
2.57864
2.58564
2.58705
2.59493
2.58778
2.58458
2.60201
2.59337
2.58626
2.59439
2.59502
2.58732
2.60459
2.58974
2.61041
2.60188
2.59375
2.5784
2.58218
2.62889
2.62701
2.57497
2.5819
2.57602
2.59449
2.58818
2.58852
2.57741
2.57965
2.59842
2.58606
2.58274
2.58866
2.58639
2.60476
2.61095
2.62063
2.60572
2.61205
2.60549
2.59571
2.60759
2.59201
2.60386
2.5926
2.58705
2.58788
2.58435
2.62018
2.64699
2.63359
2.62493
2.63618
2.64203
2.61922
2.63321
2.61179
2.63087
2.62052
2.63739
2.63515
2.62153
2.59648
2.60196
2.58427
2.60172
2.58454
2.58806
2.59718
2.61896
2.64853
2.6314
2.63377
2.63044
2.63675
2.62549
2.6432
2.62085
2.60096
2.62125
2.62438
2.62107
2.62018
2.64998
2.63362
2.62421
2.62781
2.64702
2.64369
2.63108
2.60662
2.6271
2.61578
2.6265
2.60933
2.6127
2.62103
2.68381
2.64835
2.65997
2.66633
2.68829
2.65759
2.68044
2.64553
2.65432
2.66057
2.66829
2.64431
2.6528
2.64844
2.66338
2.65229
2.66224
2.65075
2.65115
2.66516
2.67654
2.68433
2.67047
2.68655
2.65866
2.65024
2.67134
2.65517
2.65519
2.67025
2.69004
2.65678
2.67175
2.67242
2.67216
2.67702
2.66269
2.66869
2.67802
2.67472
2.66057
2.66239
2.6406
2.66674
2.66668
2.68762
2.66467
2.6395
2.66391
2.67163
2.66565
2.66181
2.6629
2.68706
2.68272
2.66834
2.66188
2.68807
2.67597
2.67352
2.69104
2.62963
2.63783
2.63306
2.64129
2.64352
2.60999
2.63914
2.61046
2.62301
2.62165
2.61474
2.60466
2.58466
2.56994
2.58444
2.58542
2.58351
2.58472
2.59397
2.60262
2.58455
2.60257
2.58642
2.57861
2.59588
2.62352
2.63006
2.61308
2.61585
2.63281
2.62908
2.61075
2.61313
2.59748
2.63081
2.60745
2.61695
2.62058
2.61472
2.5878
2.58986
2.61102
2.60774
2.5918
2.58698
2.60715
2.63767
2.63409
2.64293
2.6343
2.60732
2.64509
2.61738
2.6191
2.63026
2.62846
2.64079
2.61251
2.60831
2.60499
2.60464
2.58903
2.58306
2.5861
2.58311
2.5892
2.58895
2.58244
2.60734
2.6002
2.63065
2.61861
2.6098
2.60966
2.62301
2.59257
2.59635
2.61902
2.6041
2.60218
2.59939
2.6056
2.60651
2.59392
2.60429
2.59837
2.60268
2.59717
2.60505
2.60265
2.59033
2.5942
2.59717
2.59662
2.59332
2.60022
2.60024
2.62342
2.61375
2.60645
2.61435
2.61968
2.6051
2.62117
2.62754
2.62151
2.61205
2.60545
2.60786
2.60073
2.61511
2.61016
2.60357
2.5839
2.58225
2.5892
2.59324
2.60114
2.60384
2.60426
2.59226
2.60044
2.60096
2.60154
2.60416
2.60565
2.60172
2.5899
2.59957
2.59453
2.5948
2.59943
2.6306
2.66295
2.63533
2.65355
2.6286
2.63486
2.64704
2.66337
2.63307
2.64891
2.62353
2.64685
2.6286
2.62993
2.54181
2.53482
2.53417
2.53289
2.5362
2.53273
2.53434
2.55633
2.53531
2.53706
2.54686
2.54428
2.53316
2.52917
2.53444
2.533
2.54912
2.55258
2.54359
2.55717
2.54362
2.54587
2.53951
2.53754
2.5331
2.53877
2.5342
2.53699
2.52939
2.53639
2.54658
2.54036
2.55674
2.55172
2.55026
2.53742
2.5398
2.54858
2.55531
2.55993
2.55288
2.55737
2.55579
2.54386
2.54523
2.54372
2.55913
2.54487
2.54932
2.54373
2.53554
2.54161
2.52594
2.50728
2.50727
2.50986
2.53372
2.53339
2.5374
2.52855
2.52696
2.52518
2.52641
2.53091
2.52691
2.54482
2.54252
2.55538
2.54553
2.54422
2.54413
2.54712
2.53046
2.53146
2.53882
2.53484
2.53552
2.53341
2.53522
2.53066
2.53159
2.53579
2.53659
2.53815
2.53553
2.53261
2.52563
2.53148
2.5303
2.53094
2.52536
2.53605
2.53897
2.54185
2.54412
2.5402
2.54176
2.54189
2.5375
2.52196
2.51654
2.52586
2.53015
2.53613
2.53195
2.53125
2.53201
2.53356
2.53181
2.53621
2.52944
2.51999
2.52644
2.52893
2.53246
2.52898
2.54063
2.53121
2.5294
2.53313
2.53371
2.53292
2.53354
2.51094
2.5165
2.50607
2.52371
2.51969
2.52102
2.52249
2.54304
2.54143
2.56187
2.55592
2.54902
2.54841
2.55499
2.53647
2.53066
2.55415
2.53955
2.53606
2.53872
2.5404
2.53286
2.5274
2.54058
2.53313
2.53447
2.53154
2.53738
2.53052
2.52715
2.52674
2.53272
2.52059
2.52418
2.53292
2.54265
2.55467
2.54335
2.54048
2.5503
2.55251
2.54146
2.50576
2.51046
2.51284
2.51496
2.53971
2.54771
2.53524
2.52578
2.52299
2.54013
2.52497
2.5293
2.53027
2.5317
2.52813
2.50892
2.52614
2.52455
2.52062
2.51708
2.51966
2.51971
2.52191
2.52555
2.51892
2.51261
2.51664
2.51583
2.52687
2.51788
2.50983
2.50178
2.51618
2.52183
2.52016
2.50956
2.49851
2.50359
2.52818
2.57614
2.61755
2.59417
2.59912
2.61499
2.59602
2.56407
2.56808
2.5743
2.57402
2.55896
2.55656
2.57255
2.55943
2.57693
2.57432
2.58164
2.59046
2.58044
2.58583
2.57499
2.58149
2.58025
2.56709
2.57771
2.57624
2.60797
2.65425
2.66907
2.65369
2.63999
2.6577
2.654
2.67076
2.64711
2.57377
2.59177
2.56886
2.56358
2.58045
2.58302
2.56867
2.56512
2.58027
2.58726
2.59253
2.56473
2.5565
2.57365
2.56972
2.58728
2.58046
2.58603
2.60672
2.58336
2.59464
2.58334
2.59294
2.59009
2.61106
2.58453
2.60003
2.59725
2.61237
2.61402
2.59099
2.6063
2.59705
2.59978
2.6059
2.64523
2.6439
2.57958
2.59289
2.58097
2.54119
2.5388
2.53801
2.53807
2.53903
2.53799
2.58207
2.57998
2.59627
2.58695
2.59176
2.63284
2.62512
2.58419
2.58554
2.57913
2.57866
2.58506
2.58379
2.58051
2.57777
2.5742
2.5685
2.58351
2.57447
2.57706
2.57554
2.55011
2.54572
2.5564
2.54545
2.54195
2.5477
2.58091
2.60169
2.5835
2.5827
2.59364
2.58876
2.59311
2.65339
2.64219
2.64628
2.65392
2.60443
2.6001
2.5458
2.5405
2.58965
2.58573
2.58797
2.58634
2.58855
2.59034
2.58989
2.58574
2.61164
2.60766
2.61488
2.61889
2.59604
2.60078
2.59693
2.59681
2.59947
2.59604
2.59212
2.58703
2.59611
2.59118
2.59589
2.58991
2.58962
2.59153
2.64452
2.65165
2.66196
2.64175
2.64053
2.65408
2.66069
2.66956
2.58487
2.59981
2.62899
2.63462
2.64309
2.62753
2.63515
2.59381
2.60023
2.6015
2.59885
2.59039
2.59508
2.59643
2.60104
2.60205
2.60098
2.60285
2.63651
2.63288
2.6297
2.63783
2.63362
2.63753
2.63425
2.55395
2.54798
2.54881
2.55277
2.55573
2.56522
2.5195
2.51899
2.51699
2.5215
2.52823
2.52971
2.53412
2.53175
2.52783
2.5289
2.5299
2.5225
2.52458
2.53528
2.5311
2.53341
2.53116
2.56582
2.68429
2.5653
2.55914
2.56583
2.56484
2.56361
2.56112
2.56739
2.54879
2.54984
2.54955
2.54454
2.55278
2.54538
2.55156
2.58438
2.56783
2.56877
2.57583
2.56794
2.55975
2.55312
2.56092
2.5613
2.57376
2.5676
2.57599
2.56581
2.5693
2.56544
2.56768
2.5613
2.56304
2.57192
2.56957
2.56493
2.56022
2.56938
2.56262
2.56408
2.56303
2.55741
2.5593
2.55732
2.56683
2.56503
2.56465
2.56742
2.56214
2.55746
2.56377
2.55911
2.56281
2.56075
2.56215
2.55262
2.54762
2.55281
2.55425
2.54858
2.5546
2.55326
2.55402
2.54683
2.55084
2.54865
2.54655
2.54782
2.55008
2.54672
2.54761
2.54682
2.54484
2.54885
2.54757
2.54649
2.54581
2.54545
2.54165
2.54696
2.54034
2.54122
2.54779
2.54823
2.55017
2.54702
2.54876
2.54692
2.55033
2.59328
2.59354
2.60701
2.60037
2.59716
2.59371
2.60235
2.58761
2.59915
2.61507
2.62192
2.61568
2.62545
2.62242
2.59221
2.59267
2.58475
2.58481
2.58932
2.5891
2.58482
2.57552
2.59275
2.58322
2.58878
2.58546
2.58329
2.58194
2.60833
2.6174
2.60664
2.56841
2.57297
2.56925
2.569
2.56939
2.57347
2.56878
2.59254
2.58979
2.58667
2.59821
2.59223
2.59585
2.59423
2.56645
2.5643
2.56741
2.56994
2.56553
2.56637
2.56779
2.58045
2.57705
2.58858
2.58386
2.58339
2.58083
2.58283
2.56883
2.57123
2.56858
2.57078
2.57126
2.56833
2.57269
2.57728
2.57258
2.57422
2.57398
2.57094
2.5697
2.576
2.57456
2.58531
2.57921
2.57807
2.57308
2.58198
2.60979
2.6099
2.60034
2.59857
2.60874
2.60433
2.59944
2.59779
2.59241
2.60753
2.60148
2.60016
2.59732
2.60293
2.58339
2.58006
2.59139
2.587
2.58276
2.58257
2.59066
2.57966
2.58728
2.59004
2.58952
2.58351
2.58506
2.58614
2.59239
2.59224
2.59112
2.59244
2.58855
2.59305
2.58928
2.59734
2.58995
2.58818
2.5911
2.59265
2.59194
2.59153
2.59179
2.58861
2.59232
2.58525
2.59154
2.5878
2.58824
2.55326
2.55338
2.54876
2.55275
2.55186
2.55467
2.55001
2.54181
2.54786
2.54902
2.54937
2.54644
2.54756
2.54767
2.54097
2.54538
2.5448
2.54374
2.53879
2.54283
2.54138
2.54905
2.55588
2.54487
2.54959
2.54928
2.55207
2.54579
2.56332
2.56428
2.57409
2.569
2.56723
2.56511
2.57041
2.57569
2.56727
2.57741
2.57415
2.57441
2.57118
2.57424
2.54411
2.55188
2.54234
2.54699
2.54721
2.54844
2.54411
2.55906
2.5567
2.53158
2.52583
2.52628
2.53729
2.52706
2.5289
2.55725
2.55754
2.55557
2.55246
2.55816
2.55717
2.54619
2.5437
2.53717
2.53684
2.53216
2.5403
2.53752
2.53759
2.55875
2.54688
2.54154
2.53561
2.54293
2.54416
2.54702
2.54484
2.53854
2.53827
2.54335
2.54457
2.54367
2.5418
2.54616
2.53092
2.53245
2.5319
2.5307
2.5318
2.53231
2.52769
2.54807
2.54596
2.54479
2.54247
2.54541
2.5452
2.54791
2.54025
2.53615
2.52837
2.54095
2.53032
2.54024
2.53496
2.53851
2.53639
2.54076
2.537
2.53459
2.57408
2.58589
2.57439
2.57871
2.57515
2.57867
2.57424
2.60637
2.60989
2.62193
2.6112
2.61297
2.56995
2.57291
2.57294
2.57449
2.57315
2.57487
2.57305
2.59003
2.58258
2.59424
2.58584
2.5901
2.5834
2.58951
2.5865
2.59367
2.5906
2.58512
2.60174
2.59362
2.59609
2.59044
2.60878
2.61212
2.61715
2.60362
2.61016
2.61419
2.61829
2.61235
2.61166
2.62139
2.61345
2.5865
2.60003
2.59457
2.59938
2.5947
2.59472
2.59595
2.61603
2.63148
2.62247
2.61382
2.63526
2.6442
2.64878
2.65402
2.6403
2.63355
2.64093
2.65003
2.64346
2.60952
2.62769
2.61359
2.61606
2.61297
2.61618
2.6089
2.61061
2.62799
2.6065
2.55815
2.56461
2.55721
2.57577
2.56502
2.57108
2.56791
2.60665
2.59911
2.60121
2.60952
2.59478
2.59363
2.59714
2.60222
2.59397
2.60211
2.5925
2.59289
2.53431
2.56726
2.53891
2.54505
2.54099
2.55611
2.55788
2.55642
2.55654
2.56115
2.55649
2.55277
2.55445
2.54937
2.55271
2.53554
2.54037
2.54944
2.54699
2.54357
2.56291
2.55075
2.55376
2.55215
2.55064
2.5504
2.55303
2.5505
2.56477
2.55638
2.56156
2.55872
2.55274
2.55796
2.56401
2.56156
2.54841
2.55104
2.5508
2.54607
2.54801
2.54927
2.54917
2.54971
2.54739
2.54725
2.54521
2.547
2.55345
2.54474
2.55484
2.55308
2.55527
2.55006
2.55357
2.55061
2.55105
2.54596
2.55286
2.55132
2.55116
2.54243
2.54811
2.55542
2.54852
2.54701
2.54818
2.55113
2.55211
2.5467
2.53402
2.53659
2.53356
2.5375
2.53535
2.53209
2.53334
2.53318
2.56521
2.56427
2.5646
2.55549
2.56242
2.55973
2.56036
2.5644
2.56717
2.56288
2.55757
2.55286
2.55604
2.55231
2.55475
2.55342
2.56701
2.56254
2.56353
2.56681
2.59665
2.56789
2.56815
2.56885
2.56999
2.56809
2.57023
2.56113
2.56575
2.57409
2.56428
2.56881
2.56617
2.56634
2.56619
2.56555
2.56746
2.56873
2.56935
2.56835
2.56761
2.57234
2.5631
2.57898
2.58331
2.58446
2.57669
2.57746
2.56811
2.57929
2.57554
2.5828
2.58269
2.58152
2.56209
2.55982
2.55871
2.56836
2.56595
2.56624
2.56682
2.61097
2.61821
2.62352
2.61645
2.61471
2.61957
2.6007
2.59815
2.6038
2.59963
2.60113
2.59829
2.60409
2.61282
2.60818
2.6055
2.61238
2.59378
2.57671
2.58122
2.57557
2.57848
2.57973
2.5824
2.57626
2.60019
2.58892
2.58896
2.58618
2.58837
2.59102
2.58952
2.58659
2.59625
2.58948
2.5893
2.58314
2.5918
2.5839
2.58842
2.59486
2.58645
2.59453
2.58963
2.59771
2.58748
2.57952
2.5825
2.58303
2.58111
2.58054
2.58265
2.58853
2.59035
2.58624
2.60725
2.5764
2.58932
2.61941
2.58345
2.57967
2.58483
2.58343
2.60695
2.59611
2.60205
2.59089
2.63657
2.62595
2.63601
2.6362
2.63109
2.63171
2.63497
2.64443
2.645
2.63492
2.64406
2.64577
2.64327
2.6426
2.59774
2.60699
2.6119
2.60611
2.60258
2.60352
2.60656
2.64157
2.63693
2.64826
2.64848
2.63799
2.64239
2.65108
2.60188
2.61731
2.60169
2.61015
2.60523
2.61248
2.60523
2.61433
2.6202
2.605
2.61759
2.61409
2.62068
2.6099
2.63221
2.63228
2.64775
2.63732
2.63645
2.63412
2.64149
2.67774
2.68803
2.6892
2.68301
2.64793
2.65181
2.65571
2.65476
2.64983
2.65533
2.6489
2.65992
2.67186
2.6781
2.66686
2.66696
2.66714
2.67477
2.69572
2.68654
2.68035
2.68772
2.65448
2.657
2.6588
2.65868
2.66074
2.65676
2.65772
2.66824
2.6587
2.66907
2.65702
2.67845
2.67577
2.6807
2.6823
2.67482
2.67514
2.68805
2.66772
2.67755
2.68067
2.64175
2.65879
2.64203
2.65342
2.6461
2.65706
2.64712
2.67825
2.69571
2.68718
2.67913
2.68919
2.68243
2.69189
2.68775
2.6803
2.69186
2.68688
2.68147
2.64782
2.63897
2.62493
2.60582
2.60953
2.60472
2.56992
2.58321
2.57129
2.57469
2.57374
2.57451
2.57218
2.59379
2.6073
2.60817
2.59683
2.61215
2.60641
2.60436
2.59938
2.60977
2.60565
2.6096
2.60834
2.61397
2.60442
2.59868
2.59713
2.6093
2.60921
2.60256
2.61448
2.60443
2.60475
2.60588
2.60729
2.60526
2.60606
2.61982
2.61085
2.61369
2.61934
2.60911
2.58279
2.6598
2.60021
2.60315
2.60183
2.60303
2.59951
2.58959
2.58366
2.58965
2.5876
2.58611
2.58546
2.58693
2.62981
2.62388
2.62894
2.62344
2.63023
2.62508
2.62514
2.61505
2.60697
2.61322
2.60587
2.61248
2.6084
2.61108
2.59652
2.59798
2.58991
2.59015
2.59747
2.59477
2.59144
2.59193
2.59805
2.59075
2.59161
2.59116
2.59283
2.58923
2.61525
2.60675
2.61443
2.61503
2.61444
2.61227
2.61536
2.59833
2.59903
2.59099
2.59478
2.59443
2.59953
2.59238
2.5903
2.59697
2.59784
2.60382
2.59863
2.59659
2.63891
2.64086
2.65045
2.63567
2.64118
2.63642
2.63974
2.56205
2.56177
2.55843
2.55113
2.51957
2.51472
2.50647
2.5307
2.54909
2.54097
2.54135
2.54225
2.54585
2.54604
2.54397
2.54304
2.5387
2.53943
2.53481
2.53933
2.53743
2.53887
2.53903
2.53579
2.54806
2.54297
2.54256
2.53911
2.54266
2.54757
2.54343
2.54183
2.56949
2.52649
2.51916
2.52177
2.55502
2.55169
2.56301
2.55984
2.55834
2.5576
2.55548
2.55299
2.54717
2.55354
2.56363
2.56027
2.56037
2.56089
2.55516
2.53062
2.50705
2.51214
2.51156
2.50567
2.5333
2.52497
2.52091
2.52751
2.52161
2.52449
2.52308
2.52803
2.55011
2.54644
2.54508
2.5432
2.54751
2.54473
2.54579
2.53734
2.53565
2.53285
2.53593
2.53658
2.53721
2.53531
2.53424
2.53204
2.52962
2.52998
2.5338
2.53686
2.53502
2.5305
2.53359
2.53218
2.52793
2.53002
2.53052
2.53122
2.53893
2.53866
2.53617
2.53756
2.53862
2.53817
2.53956
2.51939
2.52329
2.52589
2.52406
2.52484
2.5169
2.53129
2.52481
2.53206
2.53319
2.53306
2.53532
2.53289
2.52668
2.5317
2.53652
2.53349
2.52791
2.53029
2.52454
2.52883
2.52847
2.52856
2.52726
2.51811
2.51197
2.51659
2.51736
2.52147
2.51844
2.5211
2.5631
2.55635
2.56309
2.55649
2.56263
2.55901
2.56341
2.54615
2.53915
2.53908
2.5366
2.54102
2.538
2.53999
2.53694
2.53535
2.53317
2.53177
2.5368
2.53573
2.53072
2.53011
2.53381
2.53457
2.53201
2.53313
2.52816
2.53267
2.54265
2.53934
2.54063
2.54481
2.5419
2.54292
2.54286
2.49959
2.51244
2.51616
2.51872
2.50759
2.51682
2.51704
2.51178
2.51497
2.50984
2.52563
2.52181
2.51718
2.52273
2.51965
2.52836
2.52366
2.53374
2.52919
2.52915
2.52507
2.53066
2.53047
2.52425
2.53503
2.52889
2.52819
2.52585
2.53051
2.518
2.51011
2.5176
2.49754
2.49558
2.50498
2.50363
2.6082
2.5931
2.59903
2.59416
2.60005
2.58496
2.59988
2.56182
2.58219
2.58052
2.59014
2.57372
2.58215
2.57867
2.58198
2.55982
2.58025
2.58827
2.57619
2.5672
2.56648
2.57256
2.55355
2.59157
2.60535
2.60385
2.58894
2.64725
2.66141
2.65944
2.67099
2.65894
2.65036
2.57062
2.56799
2.5713
2.57574
2.57181
2.57313
2.57104
2.56458
2.55581
2.5699
2.55395
2.58561
2.58839
2.59002
2.58139
2.59353
2.58354
2.58638
2.5858
2.58232
2.57073
2.57344
2.58752
2.59652
2.59922
2.6107
2.60796
2.60126
2.59928
2.60669
2.60213
2.60483
2.59269
2.61993
2.6068
2.60824
2.58766
2.60417
2.61745
2.60805
2.59403
2.60839
2.55927
2.56495
2.5711
2.57793
2.5772
2.58088
2.57359
2.56575
2.57057
2.56811
2.5464
2.54518
2.53428
2.53402
2.53255
2.53213
2.53573
2.53412
2.53375
2.54056
2.53713
2.53959
2.53777
2.53993
2.5383
2.53943
2.54344
2.5353
2.53531
2.53664
2.53901
2.53994
2.54027
2.53891
2.53952
2.53847
2.53549
2.53713
2.53859
2.53718
2.5342
2.53905
2.54037
2.53873
2.53729
2.53686
2.54086
2.5382
2.53636
2.53604
2.5388
2.54087
2.53703
2.53797
2.53779
2.58352
2.5941
2.5861
2.59242
2.58375
2.58925
2.57544
2.57981
2.63161
2.63146
2.64287
2.6585
2.65496
2.62662
2.6227
2.62307
2.6228
2.63705
2.62163
2.63282
2.64136
2.63937
2.62211
2.64429
2.63364
2.63896
2.64265
2.63361
2.62631
2.57264
2.5744
2.57268
2.56509
2.56491
2.57316
2.56439
2.57183
2.57011
2.5861
2.58976
2.58102
2.58733
2.58846
2.5743
2.57151
2.57681
2.58518
2.57213
2.5691
2.57627
2.58122
2.57629
2.57181
2.56784
2.58083
2.57602
2.58336
2.56927
2.56869
2.57401
2.57361
2.5728
2.57006
2.57393
2.58558
2.57972
2.58554
2.58074
2.58328
2.58369
2.58452
2.57971
2.57997
2.58502
2.57991
2.58055
2.57924
2.58267
2.57554
2.57953
2.57766
2.57558
2.5762
2.57901
2.57801
2.57699
2.57353
2.57604
2.57579
2.57534
2.57523
2.58012
2.58498
2.58251
2.58159
2.58134
2.58061
2.58062
2.57613
2.57422
2.55616
2.56346
2.55902
2.56627
2.56404
2.56317
2.55945
2.57794
2.56613
2.56711
2.56179
2.57802
2.57788
2.57783
2.56693
2.57455
2.57672
2.5606
2.56601
2.56676
2.56508
2.57101
2.57003
2.5757
2.57438
2.57765
2.56486
2.56233
2.548
2.55791
2.56125
2.55255
2.53882
2.52832
2.53537
2.53693
2.53582
2.53117
2.55581
2.56234
2.54867
2.54396
2.53693
2.54111
2.55351
2.55543
2.55356
2.55529
2.53367
2.53054
2.53639
2.56262
2.53827
2.53557
2.55618
2.55651
2.55194
2.58073
2.56096
2.58196
2.57793
2.57355
2.58112
2.59181
2.58617
2.56748
2.59369
2.58081
2.59001
2.57486
2.59621
2.58823
2.58128
2.58682
2.59395
2.63449
2.64639
2.63943
2.64571
2.62252
2.63229
2.63679
2.63335
2.62714
2.63487
2.6342
2.64497
2.63597
2.64076
2.64162
2.64082
2.64463
2.63569
2.64582
2.64012
2.64113
2.64624
2.64473
2.64792
2.61656
2.61501
2.6236
2.61574
2.62375
2.6378
2.59513
2.60231
2.59418
2.61439
2.60191
2.60914
2.60607
2.62834
2.61817
2.63451
2.61616
2.6193
2.62407
2.62803
2.60073
2.60941
2.61196
2.6143
2.62974
2.63078
2.61773
2.56979
2.57283
2.56476
2.56745
2.56387
2.57361
2.57364
2.57371
2.56809
2.56838
2.56178
2.564
2.57117
2.57042
2.56644
2.56911
2.56512
2.57172
2.56904
2.57022
2.54335
2.53938
2.54158
2.54228
2.54083
2.54125
2.53872
2.54608
2.54549
2.54464
2.54987
2.5465
2.54705
2.54659
2.53737
2.53994
2.53658
2.53377
2.53872
2.53602
2.53669
2.54391
2.5397
2.53856
2.54172
2.53942
2.5406
2.5355
2.53947
2.54151
2.54352
2.5387
2.54007
2.54303
2.54355
2.54101
2.54483
2.5465
2.54171
2.53932
2.53976
2.5386
2.53907
2.53609
2.54085
2.53549
2.53007
2.53672
2.56358
2.566
2.56458
2.56322
2.56379
2.56329
2.56737
2.57449
2.57549
2.56065
2.56179
2.56675
2.56129
2.55676
2.56564
2.55914
2.5753
2.57956
2.61431
2.60846
2.62646
2.61438
2.60789
2.61252
2.61609
2.59426
2.60403
2.58942
2.59608
2.59121
2.597
2.59452
2.5867
2.59159
2.58527
2.58532
2.60013
2.59107
2.58942
2.58648
2.594