/*--------------------------------*- C++ -*----------------------------------*\
| =========                 |                                                 |
| \\      /  F ield         | OpenFOAM: The Open Source CFD Toolbox           |
|  \\    /   O peration     | Version:  v1612+                                |
|   \\  /    A nd           | Web:      www.OpenFOAM.com                      |
|    \\/     M anipulation  |                                                 |
\*---------------------------------------------------------------------------*/
FoamFile
{
    version     2.0;
    format      ascii;
    class       surfaceScalarField;
    location    "118";
    object      phi;
}
// * * * * * * * * * * * * * * * * * * * * * * * * * * * * * * * * * * * * * //

dimensions      [0 3 -1 0 0 0 0];

internalField   nonuniform List<scalar> 
46013
(
-2.65779e-09
-2.21382e-09
6.6159e-09
-1.7443e-09
-3.9222e-09
1.49995e-09
1.37183e-09
1.05038e-09
-5.86457e-09
4.01563e-09
4.24477e-09
-2.39583e-09
-6.48005e-09
5.11517e-09
4.30453e-09
-2.93964e-09
5.21826e-09
-3.30187e-09
-2.51024e-09
5.93854e-10
-7.53883e-10
4.28916e-09
-3.70121e-09
1.65948e-10
3.65016e-10
-2.26953e-09
9.35791e-10
9.68895e-10
-7.75243e-09
-5.12296e-09
4.86363e-09
8.01174e-09
-2.98384e-09
5.0543e-09
1.18194e-09
-3.25238e-09
-2.87386e-09
3.41952e-09
8.05862e-10
-1.35151e-09
-6.18204e-09
6.85284e-09
5.20999e-09
-5.88078e-09
-4.76427e-09
7.12102e-09
4.04256e-10
-2.76101e-09
6.6279e-09
5.76014e-09
-8.53118e-09
-3.85686e-09
-2.24072e-09
6.42106e-09
2.44756e-09
5.37607e-09
-3.64527e-10
-8.16778e-09
3.15626e-09
4.56014e-09
-3.79733e-09
-4.74183e-09
3.979e-09
2.76214e-09
-5.91125e-09
3.52561e-09
-3.7651e-10
-1.92827e-09
1.20469e-09
-2.55594e-09
3.27953e-09
8.95517e-09
4.74204e-10
1.50607e-09
-1.09354e-08
9.06736e-09
1.04448e-08
-1.0557e-08
-5.79787e-09
3.12972e-11
5.75095e-09
1.56317e-11
-9.02956e-09
3.74064e-09
1.09767e-09
4.19126e-09
7.60914e-09
-1.2012e-08
-1.80479e-09
6.20771e-09
1.86638e-09
2.59206e-09
-3.90258e-09
-5.55865e-10
4.54095e-09
7.8431e-10
-5.48231e-09
1.57078e-10
1.25564e-09
1.81934e-09
-2.86533e-09
-2.09699e-10
-3.08008e-09
-2.0583e-09
1.99779e-09
3.14067e-09
-6.7288e-09
7.53684e-09
-4.69519e-09
3.88716e-09
8.8755e-09
-2.61295e-09
-5.27207e-09
-9.9045e-10
-1.64859e-09
-1.53006e-09
3.04828e-10
3.45346e-09
1.99796e-09
-2.89485e-10
-5.16192e-09
-1.94724e-09
-4.91408e-09
2.9802e-09
3.88113e-09
-2.72471e-09
1.09081e-09
5.08617e-09
-3.45224e-09
-1.16723e-09
-2.7107e-09
3.74214e-09
1.35786e-10
3.08799e-09
6.92417e-10
-3.92445e-09
1.44044e-10
8.29553e-10
1.36637e-09
1.86514e-09
-4.06094e-09
-4.4829e-09
-1.04025e-09
5.88315e-10
4.93484e-09
-5.39689e-09
-2.91125e-09
-3.6206e-10
8.6702e-09
5.53211e-09
-6.79808e-09
1.35032e-09
-8.43651e-11
-3.03315e-09
-6.19569e-09
6.57106e-09
3.3612e-10
-2.06718e-09
-2.59169e-09
-2.17346e-09
1.07513e-09
1.27545e-09
-1.77182e-10
-1.77603e-09
3.89454e-09
-2.08765e-09
-3.08602e-11
7.48573e-10
7.84032e-10
9.69189e-10
-2.50161e-09
2.88846e-09
-4.33315e-09
9.57905e-09
-8.13435e-09
8.86514e-10
-2.98822e-09
-3.94561e-09
6.04729e-09
-4.7144e-09
4.67239e-09
-2.84219e-10
3.26248e-10
1.33018e-09
-7.73016e-09
-1.43424e-09
7.83424e-09
-8.08537e-10
8.82191e-09
-1.85123e-09
-6.16213e-09
-5.48285e-09
-6.39013e-09
1.16695e-08
2.03472e-10
1.84941e-09
-2.42218e-09
-1.65203e-09
2.22482e-09
2.3915e-09
-9.05413e-11
2.05988e-09
-4.36086e-09
-7.8655e-10
5.55702e-09
-1.97301e-09
-2.79747e-09
-2.71959e-09
-3.49608e-10
2.90069e-09
1.68536e-10
7.72971e-10
1.10505e-09
2.73041e-09
-4.60841e-09
-3.06501e-09
1.33735e-09
-9.97033e-10
-4.72272e-09
-5.99157e-09
5.88245e-09
4.83184e-09
-4.30969e-09
-1.70872e-09
3.57919e-09
2.43919e-09
-1.57842e-10
-1.72626e-09
-4.74152e-09
6.62561e-09
-1.92608e-10
-1.8955e-09
3.2953e-09
-1.20719e-09
-5.53035e-09
8.7287e-09
-3.39096e-09
5.14318e-09
-1.0838e-09
-1.45439e-09
-2.60505e-09
8.40288e-09
2.8839e-09
-4.04761e-09
-7.23918e-09
-2.13168e-10
2.87021e-09
-8.05393e-09
-4.51873e-09
-3.13632e-09
3.96406e-09
3.691e-09
-6.98189e-10
-1.34162e-09
2.18286e-09
-1.43091e-10
-5.63568e-09
2.76754e-10
3.8348e-09
1.52402e-09
4.48298e-09
1.83926e-09
-5.94821e-10
-5.72743e-09
-4.78474e-09
7.29137e-09
-2.31402e-09
-1.92619e-10
-1.03793e-09
-2.20731e-09
3.0544e-09
1.90838e-10
-1.85498e-09
-1.25673e-09
3.16848e-09
-5.68013e-11
4.21852e-09
-2.02781e-09
4.74295e-09
4.87502e-09
-4.58443e-09
3.7276e-09
-4.01819e-09
3.42129e-09
-2.74428e-09
-5.05843e-10
-1.71081e-10
6.26784e-09
1.69398e-10
-6.311e-09
-1.26232e-10
-3.6563e-09
2.26711e-09
7.61261e-09
-6.22342e-09
2.15932e-09
-2.71527e-09
3.97724e-09
5.83212e-09
2.69422e-10
-3.35531e-09
-2.74622e-09
4.0668e-09
-2.9692e-09
5.32014e-09
-6.41775e-09
1.69657e-09
-9.70113e-09
4.52222e-09
3.48237e-09
4.07352e-09
-4.03161e-09
-5.17233e-09
5.1304e-09
-3.52008e-09
2.87955e-09
-2.1421e-09
1.42448e-09
1.25237e-09
-2.35444e-09
-3.22446e-10
5.31737e-09
-4.59791e-09
-6.84118e-10
-3.53335e-11
-2.69539e-09
5.72027e-09
-1.08816e-09
-1.93669e-09
-1.13654e-09
-6.20922e-09
7.12766e-09
2.18091e-10
-2.936e-09
-2.90257e-09
7.549e-09
-1.71044e-09
2.3091e-09
6.67259e-09
-5.7255e-09
-3.25619e-09
-3.14849e-09
8.47074e-09
-5.7521e-09
4.29875e-10
6.54102e-09
8.79881e-10
-6.4199e-09
-1.00101e-09
4.73823e-09
-2.28647e-09
-1.04535e-09
-1.40646e-09
7.32454e-10
1.22392e-09
-1.69375e-09
-2.62653e-10
-5.98965e-09
-9.56795e-09
5.90698e-09
9.65063e-09
5.06093e-09
-5.3436e-09
1.15177e-09
-8.69109e-10
3.13686e-09
3.98939e-09
-9.80126e-09
2.67502e-09
-2.79687e-09
-1.95214e-09
4.85708e-09
-1.081e-10
1.09383e-09
-3.70608e-09
-1.84623e-10
-4.54369e-10
1.54067e-10
-6.62335e-09
6.92362e-09
3.63494e-09
3.98481e-09
-8.23576e-09
6.16071e-10
-5.41132e-09
-1.43483e-09
3.13786e-09
3.70832e-09
2.78262e-09
-5.44815e-09
5.01006e-09
-2.34453e-09
1.48965e-09
-3.26544e-09
1.59726e-09
1.78518e-10
-1.58521e-08
6.62485e-09
3.96269e-09
5.26459e-09
4.53626e-09
-3.45673e-09
-1.9163e-09
8.3675e-10
8.33568e-10
6.39408e-09
-4.54312e-09
-2.68458e-09
3.11373e-09
-6.26657e-09
-2.59944e-09
5.75228e-09
8.46052e-09
2.49738e-09
-6.5863e-09
-4.37158e-09
4.28433e-09
-2.43602e-09
-4.03882e-09
2.19053e-09
2.87437e-09
5.02297e-10
-3.19825e-09
-1.78392e-10
5.43305e-09
2.75723e-09
-3.17671e-09
-5.01357e-09
-2.8681e-10
2.03845e-09
-6.08468e-09
4.33307e-09
-6.65076e-09
6.62299e-09
9.08364e-10
-8.80583e-10
4.37031e-09
6.01659e-10
-1.13376e-09
-3.83821e-09
-1.63592e-09
1.36673e-09
4.74849e-10
-2.0566e-10
1.52464e-09
-3.54003e-09
1.79462e-09
2.20773e-10
5.26003e-09
-3.75912e-09
-2.8454e-09
1.34448e-09
2.32924e-09
-1.96152e-09
-1.76445e-09
1.39667e-09
-5.87578e-09
9.89964e-10
4.90502e-09
-1.91902e-11
-8.07792e-10
-5.01767e-09
5.61128e-09
2.14191e-10
5.62024e-09
1.24994e-09
-1.80924e-09
-5.8731e-09
3.0204e-09
-1.96802e-09
4.82072e-09
-2.38796e-10
-1.72615e-09
2.56295e-09
-5.9806e-10
-3.28294e-09
2.35868e-09
-7.34663e-10
1.6589e-09
6.97623e-10
-6.11263e-09
1.90807e-09
3.50689e-09
9.14976e-10
9.02124e-09
-1.88725e-09
1.34665e-09
-1.97247e-09
2.51304e-09
3.16096e-10
-2.58748e-09
2.43217e-09
-1.60815e-10
9.19159e-09
-6.81241e-09
-5.06075e-09
2.68156e-09
2.45639e-09
-1.443e-09
-3.32461e-09
2.31117e-09
7.71198e-09
-5.12065e-09
8.62136e-10
1.05354e-09
-2.24386e-09
3.47042e-09
-2.28012e-09
-6.61562e-09
1.16464e-09
6.2594e-09
-8.08414e-10
-2.89349e-09
5.32388e-09
-1.08716e-08
8.44125e-09
-2.00725e-10
-6.17467e-09
3.13461e-09
3.2408e-09
3.9897e-10
-4.73404e-09
2.09719e-09
2.23783e-09
-3.77688e-09
1.68091e-10
-2.03385e-10
3.81218e-09
1.19524e-09
5.02855e-09
-1.15548e-08
5.331e-09
4.28921e-09
-4.98245e-10
-3.82702e-09
3.60605e-11
-1.84719e-09
-2.44268e-10
3.80083e-09
-1.70939e-09
-3.28481e-09
3.00642e-09
-1.56535e-09
1.8437e-09
1.26156e-09
1.3475e-09
3.15745e-09
-5.76645e-09
-5.33546e-09
1.83304e-09
3.30157e-09
2.00859e-10
6.46019e-09
-1.53682e-09
3.53508e-09
-8.45847e-09
4.81548e-09
4.02654e-10
-3.90886e-10
-4.82724e-09
3.3077e-09
1.35586e-09
-5.72094e-09
1.05735e-09
-1.2616e-09
3.15965e-09
-4.42241e-09
2.52437e-09
-5.42548e-09
-3.22266e-10
5.52139e-09
2.26345e-10
7.93717e-09
-5.71265e-09
-1.08832e-08
8.65871e-09
-6.78532e-09
-1.46093e-09
4.41795e-09
3.8283e-09
-5.31906e-09
3.52115e-09
5.17155e-09
-3.37363e-09
-3.53263e-10
4.08349e-10
-6.84041e-09
2.55794e-11
2.86501e-09
3.65587e-09
-6.54646e-09
4.73266e-09
-9.00396e-09
-3.57516e-09
7.84648e-09
-4.14605e-09
-2.15515e-09
5.03747e-09
1.26373e-09
6.02859e-10
-3.96722e-09
-3.06658e-09
6.43095e-09
-5.96579e-09
7.87953e-10
2.56965e-09
2.60821e-09
4.26075e-09
-8.0892e-10
-1.87504e-09
-1.5768e-09
-4.64075e-09
-6.94653e-09
1.023e-08
1.35727e-09
2.97681e-09
-9.01839e-09
6.19683e-09
-1.55194e-10
-8.3295e-09
1.11561e-08
1.50192e-10
5.75984e-09
-6.90743e-09
-3.27271e-09
4.42029e-09
-1.22735e-10
5.43726e-09
4.44568e-09
-9.7602e-09
-4.95942e-10
-5.71926e-09
5.91667e-09
2.98543e-10
-6.01279e-09
-2.32153e-09
7.92492e-10
7.54185e-09
3.09145e-09
-6.31887e-09
4.01983e-09
-7.92417e-10
-4.20839e-09
-3.98681e-10
4.31139e-09
2.95705e-10
1.0598e-09
3.79005e-09
-1.56249e-09
-3.28747e-09
-6.3835e-09
6.67894e-10
-4.29611e-09
1.00117e-08
-8.2945e-09
-5.48023e-09
1.2948e-08
8.26724e-10
-2.08908e-09
8.31025e-09
-1.47757e-09
-4.74358e-09
-7.31594e-09
5.24475e-09
-4.93207e-09
7.00326e-09
6.40541e-10
-1.03429e-08
7.66289e-09
2.03946e-09
-5.95618e-10
3.51175e-09
-3.12696e-09
2.10859e-10
-3.85727e-09
3.27991e-09
6.41311e-09
-5.83573e-09
3.23172e-09
-7.28583e-09
1.96846e-10
2.37617e-09
1.63816e-09
-3.72955e-09
-2.84833e-10
-4.18639e-09
6.54941e-10
4.70702e-09
-1.1756e-09
-2.8358e-09
9.31556e-10
6.12763e-09
-4.22339e-09
-2.46584e-09
-4.25205e-09
-4.39041e-10
7.15695e-09
-6.11716e-09
-5.3646e-09
4.83101e-09
-3.52125e-09
-6.22988e-09
5.70215e-09
4.04897e-09
2.92063e-09
6.27809e-09
-7.27649e-09
-1.92223e-09
-2.45663e-09
-1.02712e-09
5.93795e-09
-2.45424e-09
2.97449e-09
-2.41641e-09
-3.26824e-09
2.71016e-09
1.43459e-09
-1.22575e-09
2.76565e-09
1.58214e-09
-4.36509e-09
-6.39006e-09
9.173e-09
-1.01422e-08
9.67039e-09
4.95467e-10
-2.36614e-11
-1.45229e-09
-8.15191e-09
5.29531e-09
4.30889e-09
-2.50213e-09
-1.18978e-09
3.48637e-09
2.05535e-10
2.04192e-10
3.29135e-09
-2.06145e-09
-1.43409e-09
-2.13822e-09
-2.90373e-09
5.24614e-09
4.49677e-09
-2.46684e-09
7.19476e-10
-2.74941e-09
5.47209e-09
-8.65765e-11
-7.67524e-09
2.28974e-09
-3.38564e-09
1.71463e-09
-6.64017e-09
8.3112e-09
-4.94149e-09
8.20791e-09
-4.68733e-09
1.42092e-09
-9.18813e-10
-2.47475e-09
-2.23765e-09
5.63122e-09
-1.31202e-08
2.71815e-09
1.26251e-09
9.13954e-09
-4.87444e-09
-2.31749e-09
1.85647e-09
-2.14297e-09
3.94225e-09
-1.73766e-09
-6.16444e-11
-4.72826e-09
2.15041e-09
3.19937e-09
-6.2156e-10
-3.50216e-09
-1.59573e-09
6.68003e-09
-2.54602e-10
-3.37091e-09
3.92017e-09
-2.94641e-10
2.27445e-09
-3.72053e-09
1.68065e-09
-2.3459e-10
-5.20524e-09
-2.69926e-09
6.12086e-09
1.78362e-09
-3.79913e-09
6.1686e-09
-2.29604e-09
-7.34081e-11
-2.21937e-10
-2.02632e-09
-1.55079e-09
-1.24615e-09
8.64716e-10
6.25931e-10
-2.44621e-10
-4.90102e-09
-2.91226e-09
8.69983e-09
1.24732e-09
4.25503e-09
-1.51079e-09
-3.99161e-09
-5.33018e-10
-4.34912e-09
6.12946e-09
3.28053e-09
-3.69889e-11
-3.00678e-09
-2.36731e-10
4.5559e-09
5.9325e-10
-4.96209e-09
-1.87154e-10
1.66872e-10
3.77106e-09
1.57956e-09
-5.51748e-09
-7.60574e-10
-3.57906e-09
6.7914e-09
-2.45178e-09
-5.07127e-10
2.29472e-09
4.08768e-09
-5.87527e-09
-2.99844e-09
1.00723e-10
1.08974e-09
1.80793e-09
-3.45776e-09
1.83223e-09
3.66168e-09
-2.03621e-09
2.89953e-09
1.34305e-09
-5.89008e-09
1.64748e-09
5.93735e-10
1.63869e-09
-1.83991e-09
-3.92533e-10
3.3476e-09
-5.92528e-09
-5.73751e-09
-3.97767e-09
4.07363e-09
-4.42077e-09
-3.63053e-09
2.56932e-10
3.96067e-09
-3.70133e-09
-5.16293e-10
-2.57969e-09
2.73085e-09
-4.01039e-10
2.49845e-10
-7.67609e-13
-3.60474e-09
-2.31119e-10
3.83666e-09
-2.01964e-09
3.99239e-09
-5.23484e-10
-1.44924e-09
-4.2223e-09
2.90381e-09
-2.44504e-09
3.76353e-09
-4.81533e-09
1.32638e-09
5.45178e-09
-1.96283e-09
-1.84368e-10
-7.22161e-09
1.55658e-10
5.95965e-09
-8.91552e-10
-1.00483e-08
4.98016e-09
-6.08728e-09
2.55252e-09
6.59302e-09
-3.05824e-09
-5.66406e-09
2.64216e-09
4.62896e-09
-1.60709e-09
-4.47796e-09
1.51511e-09
3.26774e-09
-3.04921e-10
-6.79516e-09
5.9401e-09
-1.35876e-09
5.42609e-09
-5.19497e-09
-7.30194e-09
7.07082e-09
-5.80404e-09
-1.09344e-09
-3.55868e-09
1.04562e-08
7.91343e-09
-3.91284e-09
-4.18405e-09
1.83444e-10
-2.28202e-09
4.20454e-09
-1.80623e-09
-1.16323e-10
1.48257e-09
-2.19698e-09
9.183e-10
-2.03934e-10
-3.25533e-09
5.89992e-09
6.31479e-10
-3.27605e-09
4.09202e-09
-2.74953e-09
-1.50037e-09
5.83285e-09
-9.28165e-09
6.31623e-11
-3.72471e-09
1.70404e-09
-2.61375e-10
5.37121e-09
2.48692e-09
-4.5442e-09
-3.31393e-09
-5.23912e-09
7.40748e-09
3.07095e-09
-5.23934e-09
-4.0104e-09
-3.94055e-09
7.55124e-09
3.99691e-10
5.02789e-09
7.34853e-10
3.33862e-09
-9.10135e-09
7.71965e-09
-8.06945e-09
-3.22912e-10
6.72725e-10
-2.22356e-09
-4.90611e-09
3.21515e-10
6.80817e-09
-4.64717e-10
4.33877e-09
-4.11688e-09
2.4283e-10
-7.34661e-10
6.30971e-09
4.52148e-11
5.37629e-10
-3.59445e-09
3.28308e-09
-2.26266e-10
-4.526e-10
3.69439e-10
-6.19843e-09
6.2816e-09
-1.61298e-09
-1.27506e-10
1.58023e-09
1.60311e-10
4.06382e-09
-2.27206e-10
2.2119e-10
-6.52966e-09
-1.88804e-09
8.19653e-09
-7.77884e-10
-2.18934e-09
3.14041e-09
-1.73197e-10
-4.26636e-09
4.58408e-09
1.75196e-09
-2.06974e-09
1.62051e-09
-5.39528e-10
-9.67655e-10
-1.13394e-10
-2.16794e-09
1.11187e-09
1.20501e-09
-1.48917e-10
5.75887e-09
-1.3818e-09
-2.5729e-09
-1.80419e-09
-2.16452e-09
9.92076e-10
4.39895e-09
-3.22655e-09
-2.15842e-09
-3.46959e-09
2.46069e-09
3.16729e-09
1.86885e-09
-9.65346e-10
-8.01256e-10
-1.02249e-10
3.6773e-09
-6.22183e-09
3.19103e-09
-6.46501e-10
-2.2844e-09
1.20877e-09
1.43783e-09
-3.62301e-10
-5.75826e-10
2.66724e-09
3.7273e-09
-5.81871e-09
-4.99919e-10
5.00271e-09
-2.15047e-09
-2.35233e-09
3.44558e-09
-3.83954e-09
4.01684e-09
1.72264e-09
-2.45896e-09
2.58138e-09
-3.09188e-09
-2.16337e-09
2.67388e-09
2.56925e-09
4.51672e-09
-7.00423e-09
-8.1738e-11
1.66789e-09
-2.88193e-09
3.08291e-09
-4.86941e-09
5.05772e-09
2.5811e-09
-2.7694e-09
-6.88169e-09
5.2483e-09
9.43887e-09
-7.80547e-09
4.04298e-09
-8.36954e-09
-3.96793e-09
-4.62879e-09
1.06856e-08
-8.01545e-09
1.95867e-09
-1.00827e-10
4.01102e-09
1.32792e-10
1.32131e-09
2.76086e-09
7.92835e-10
9.47298e-09
-3.11313e-09
-3.31351e-09
-3.04635e-09
7.24189e-09
-1.43745e-09
-1.91588e-09
-3.88856e-09
7.22086e-10
-3.13297e-09
2.32123e-09
8.96532e-11
-1.69461e-09
-2.52717e-09
3.92009e-09
3.01699e-10
2.53262e-09
2.72671e-09
-5.24961e-09
-9.86426e-12
1.92959e-09
-6.89126e-10
-1.13814e-09
-1.02369e-10
3.25858e-09
-1.01629e-09
-3.12711e-10
-3.68133e-09
-1.21373e-11
-4.40297e-09
8.09645e-09
-1.61172e-09
7.24951e-09
-1.722e-09
-3.91579e-09
6.87124e-09
-2.74326e-09
3.5501e-10
2.1492e-10
-1.17551e-08
-3.58716e-10
1.18989e-08
2.58824e-09
3.04886e-09
-5.93403e-09
-5.6332e-09
2.53767e-09
-1.24533e-09
3.0946e-09
-2.05263e-09
2.03379e-10
3.1218e-09
4.3986e-09
-9.2644e-09
1.74399e-09
-3.11276e-09
7.15177e-09
-2.64921e-09
-1.38979e-09
-7.89267e-09
-3.63845e-09
5.41165e-09
6.1195e-09
-1.30921e-09
3.03841e-09
-3.31366e-09
1.58444e-09
3.08181e-09
-2.67701e-09
-5.78569e-10
1.73776e-10
1.3152e-09
3.62936e-09
-5.04981e-09
1.0527e-10
8.27566e-09
-7.02167e-09
-8.56552e-09
7.31154e-09
-2.50058e-09
1.05959e-09
-1.13091e-11
-7.89899e-10
-3.62722e-09
8.16496e-09
-3.7478e-09
-7.34204e-09
2.62714e-10
6.91968e-09
1.5966e-10
4.28736e-09
-3.25511e-09
-3.42969e-09
2.39745e-09
3.34758e-09
-1.65296e-09
-1.63837e-09
-5.62496e-11
-1.48451e-09
-1.45828e-09
-1.32358e-09
-3.01279e-09
2.31206e-09
3.77383e-09
-3.07307e-09
7.80791e-09
-2.26062e-09
4.05938e-09
6.05191e-09
-5.25828e-09
-4.85302e-09
6.13894e-09
4.547e-09
-7.18305e-09
-3.50285e-09
2.90582e-09
-1.87244e-09
3.50285e-09
3.2816e-09
-2.27821e-09
-7.94422e-10
-2.09004e-10
8.27112e-09
2.55654e-09
-4.20467e-09
-6.25687e-09
1.02289e-09
1.96278e-09
3.27121e-09
-4.0369e-09
2.71136e-09
-6.56712e-09
-4.56743e-09
-1.88822e-09
3.26224e-09
3.19341e-09
-4.34136e-09
3.56402e-09
8.01276e-10
-2.39232e-11
-1.36749e-10
4.6078e-11
-3.08593e-09
3.17659e-09
2.37834e-09
-8.63014e-09
-1.84069e-09
8.09245e-09
-7.36497e-09
4.35228e-09
-2.4265e-10
6.45357e-09
-4.25294e-09
1.77678e-10
4.22835e-09
5.99296e-09
-3.66787e-10
-9.85452e-09
-8.41242e-09
4.24409e-09
4.02817e-09
1.40173e-10
-1.30833e-09
1.74558e-09
-4.16381e-09
3.72657e-09
2.88081e-09
-6.11266e-10
-2.45364e-09
1.84101e-10
-2.65748e-09
2.82566e-09
3.1124e-12
-1.71275e-10
-4.13511e-09
-4.19166e-09
2.314e-09
-4.54398e-09
2.47152e-09
1.88209e-09
1.90383e-10
9.11478e-09
-1.0073e-08
3.71322e-09
-2.75492e-09
1.88661e-09
1.23324e-09
-2.86871e-09
-2.51147e-10
-1.27649e-09
2.48892e-09
-1.3336e-09
1.21173e-10
2.40282e-09
-3.91614e-09
1.69232e-09
-1.79118e-10
-1.16588e-09
-1.47446e-09
2.68788e-09
-4.75205e-11
1.63396e-09
1.16598e-09
-2.65338e-09
-1.46661e-10
3.71664e-09
-4.56334e-09
2.48058e-09
-9.0129e-09
-5.30319e-09
6.64176e-09
7.67432e-09
-2.27114e-09
7.68563e-09
-6.22302e-09
2.83005e-09
2.82368e-09
-4.156e-10
-5.23813e-09
5.4066e-09
7.99437e-09
-1.00849e-08
-3.31602e-09
-1.96353e-09
-3.68385e-09
1.18851e-09
4.45884e-09
-1.39238e-09
3.5507e-09
-2.05768e-09
-1.00668e-10
9.64724e-10
-2.18312e-09
1.39432e-09
-1.75883e-10
1.7457e-09
-5.66468e-09
1.00553e-08
-6.13631e-09
-2.25892e-09
-5.51739e-09
3.17411e-09
4.6022e-09
-4.80991e-09
-3.85624e-09
8.64867e-09
1.7492e-11
-3.70461e-09
-2.38882e-09
7.75944e-09
-1.66601e-09
-5.42285e-09
-4.06656e-09
2.59469e-09
4.93588e-09
2.11505e-09
-2.8954e-10
-6.76139e-09
-4.09905e-09
1.14846e-09
2.79171e-09
1.58891e-10
-7.77068e-09
4.88513e-09
2.89231e-09
-6.77302e-12
1.78489e-09
3.26665e-09
-9.53541e-10
-4.09805e-09
-6.71896e-09
6.24698e-09
9.23656e-10
-4.51663e-10
2.21842e-09
-1.24211e-09
3.21735e-09
-4.19364e-09
-2.21972e-09
3.87747e-10
-1.54773e-10
-2.22413e-09
2.04804e-09
4.96565e-11
1.26511e-10
3.67687e-09
-7.3802e-09
-1.61571e-09
6.40718e-09
-1.87648e-09
9.06564e-10
1.60761e-09
-6.81713e-09
2.13812e-09
3.0714e-09
6.79676e-09
5.50731e-09
-3.25918e-09
-9.04495e-09
-2.0998e-10
4.4456e-09
3.56143e-11
-4.27121e-09
2.90698e-09
-7.15247e-09
4.68616e-10
-3.51692e-10
3.56648e-09
-3.38218e-09
1.67441e-10
-7.54905e-11
2.79601e-09
3.9525e-09
-6.67296e-09
-7.32592e-09
7.08198e-10
6.61863e-09
-8.70117e-13
2.07294e-09
-4.08317e-09
-1.0796e-09
3.08983e-09
-2.93249e-09
-3.68888e-09
5.60013e-09
1.02121e-09
2.77654e-09
2.61233e-09
-4.98991e-09
7.90547e-09
-2.38642e-09
3.13794e-10
5.09746e-10
-1.49541e-09
-4.35792e-09
-1.8857e-09
4.03634e-09
5.25914e-09
-7.40976e-09
5.48317e-09
5.43835e-10
-6.10593e-09
7.89378e-11
8.36685e-09
-1.47157e-09
-7.31378e-09
4.18526e-10
-7.18438e-10
-2.78829e-09
3.22209e-09
2.8467e-10
-7.30059e-10
-1.04001e-09
1.91265e-09
-1.42598e-10
-4.86256e-09
-5.93926e-09
6.22027e-09
4.58157e-09
-8.72572e-09
-2.41037e-09
8.06803e-09
3.06808e-09
-3.84699e-10
3.26792e-09
-2.60911e-09
-2.74151e-10
-7.43088e-09
-3.76279e-11
-1.25719e-09
5.22905e-09
7.813e-09
-7.88747e-09
-5.15458e-09
-2.08658e-10
3.38144e-09
-2.84307e-10
2.66156e-09
-5.0842e-09
2.34551e-09
7.71288e-11
2.07017e-09
4.53911e-09
-7.93961e-09
1.33035e-09
-4.59277e-09
3.77366e-09
3.07735e-09
-2.25825e-09
-9.27033e-11
-3.59063e-09
-1.72088e-09
-5.50598e-09
1.03486e-09
-4.76107e-11
-4.86988e-09
-5.17924e-11
2.06608e-11
-6.23829e-09
2.00364e-09
4.07232e-09
1.6234e-10
-2.27906e-09
-2.05011e-09
4.01731e-09
3.11866e-10
1.02535e-08
-5.82879e-09
1.2895e-09
-5.71418e-09
-2.03648e-10
2.43848e-09
-7.5498e-11
4.14341e-09
-7.3183e-09
1.50808e-09
1.66682e-09
1.4777e-09
2.6261e-09
-2.4833e-09
3.25526e-09
2.2923e-09
4.40813e-09
-9.9557e-09
-2.94313e-09
-3.51544e-09
2.42173e-10
-2.96083e-09
-3.21855e-09
5.79309e-09
3.8628e-10
1.46978e-09
3.92494e-09
-5.49475e-09
1.00028e-10
-2.87918e-09
4.19755e-09
-1.18959e-09
-1.28778e-10
-8.45752e-10
-9.79948e-10
1.93335e-09
-7.08685e-10
2.78362e-09
-4.00833e-09
2.93551e-09
-1.63026e-10
-7.63372e-10
-2.94434e-10
1.15353e-09
-9.57473e-11
1.27919e-09
3.06428e-09
-4.14926e-09
-1.94251e-10
3.43911e-09
-2.22091e-09
-9.37451e-10
-2.80766e-10
8.08692e-09
3.59715e-09
-2.26109e-09
2.34343e-10
-4.31251e-09
4.00326e-09
7.49189e-11
6.36719e-09
4.50938e-09
-6.73314e-09
3.31573e-09
5.22541e-09
-5.70127e-09
-2.83987e-09
3.93932e-09
-6.63186e-10
3.9596e-11
4.51375e-09
-4.41012e-09
-4.04098e-10
3.00477e-10
-2.46427e-10
-2.39694e-09
2.58523e-09
5.81473e-11
-2.79471e-09
5.36075e-09
1.79889e-10
-2.7459e-09
-4.86167e-10
3.45006e-09
-2.70107e-09
-2.63044e-10
4.31894e-09
-4.92601e-10
3.1955e-09
3.27875e-09
4.18894e-09
-1.94864e-10
-1.24889e-09
-2.21956e-09
3.152e-09
3.16478e-10
6.03412e-09
-8.87001e-09
7.86378e-09
-7.37489e-10
1.71442e-09
-8.51995e-10
-1.24926e-10
-2.34806e-09
5.3146e-09
-4.63119e-09
1.66465e-09
1.10696e-09
-5.80646e-10
-4.23697e-10
-1.02666e-10
3.51314e-09
4.30115e-10
-5.7247e-09
1.7814e-09
1.11399e-09
8.33272e-09
-6.01379e-10
-8.8453e-09
-4.49936e-09
5.95771e-09
1.14552e-09
-2.60387e-09
3.05154e-09
2.7122e-09
-5.6234e-09
-1.40315e-10
5.84362e-09
-4.58467e-09
-1.68285e-09
4.23893e-10
8.01833e-09
-5.35323e-09
-5.81878e-09
3.15368e-09
4.8027e-09
-4.73373e-09
-1.64265e-09
1.5737e-09
8.07411e-11
2.42227e-09
-2.34179e-09
-1.61199e-10
3.42317e-09
-2.00366e-09
1.27311e-09
-2.69263e-09
-6.57344e-10
-9.21544e-10
1.7297e-09
-1.5084e-10
3.23307e-09
-1.3899e-09
1.57998e-09
-2.74133e-09
6.65283e-09
-1.35341e-09
-2.55809e-09
4.33932e-09
-2.98488e-09
-1.14587e-09
-2.08585e-10
3.83463e-09
-5.35417e-10
-3.60045e-09
3.01261e-10
-1.6479e-09
2.15017e-09
-2.64049e-09
-2.79479e-09
1.85607e-10
1.07063e-10
6.77052e-09
4.10146e-10
-5.25715e-09
-1.92351e-09
-2.66404e-09
8.13121e-09
-6.76086e-10
-4.79106e-09
-1.465e-09
-1.80624e-09
-5.48115e-09
8.75241e-09
-4.95872e-09
-3.86473e-09
4.91941e-09
3.90406e-09
1.29359e-10
-3.06109e-09
2.96373e-09
-3.19869e-11
4.44958e-09
5.94842e-09
-5.80267e-09
-4.59532e-09
-3.36704e-09
6.01065e-09
-5.94093e-09
3.29733e-09
-3.05856e-09
9.92727e-10
2.63302e-09
-5.67228e-10
6.84616e-09
-4.58205e-09
2.2918e-09
5.43997e-09
-2.98318e-09
2.17625e-09
-4.63305e-09
3.66948e-09
-3.5833e-09
-1.66088e-10
7.996e-11
7.15567e-10
-4.17057e-09
1.54346e-09
1.91158e-09
-4.60318e-09
3.19154e-09
2.12724e-09
-2.00771e-09
2.46372e-09
-4.00888e-09
3.55291e-09
3.65992e-09
-4.0128e-09
1.82263e-10
1.70658e-10
5.81608e-10
2.22348e-09
-4.75227e-09
-2.75654e-09
-4.38745e-09
7.15827e-09
-1.40748e-11
-6.98387e-10
1.79175e-09
-1.04664e-09
-4.68342e-11
3.83397e-09
1.00707e-09
-2.10604e-10
-3.587e-09
-1.98628e-09
3.72604e-09
5.31533e-09
8.02672e-09
-6.62065e-09
-6.72136e-09
4.70636e-09
-6.46344e-10
-4.13953e-09
7.95438e-11
-1.59798e-09
5.5118e-09
-5.86483e-09
1.95101e-09
2.15152e-09
-3.07424e-09
1.52992e-09
-6.07231e-10
3.34548e-09
-6.28962e-09
2.70793e-09
2.36201e-10
-5.01956e-09
-1.95701e-09
7.73474e-09
8.39799e-10
-1.10881e-09
-1.08549e-09
9.52026e-13
6.89166e-10
8.25023e-09
-1.3802e-08
-6.86342e-09
6.51052e-09
3.25836e-10
2.70803e-11
2.41314e-09
5.65084e-09
-2.50958e-10
3.92777e-09
-3.26876e-09
-7.21369e-10
6.23919e-11
-8.51741e-10
2.22361e-10
-1.34014e-10
-2.39353e-09
-4.79864e-10
2.66538e-09
2.08033e-10
2.17331e-09
-1.5849e-10
-2.64022e-09
6.69428e-09
3.55508e-09
2.21792e-09
-3.04114e-09
-5.26161e-09
6.08484e-09
-6.20408e-09
2.48629e-09
3.71141e-09
6.38403e-12
-2.75824e-09
-6.59746e-10
1.63114e-10
-1.74317e-09
-2.77219e-10
6.37143e-11
2.02907e-09
-1.59463e-10
-3.6551e-09
-7.65198e-10
3.25305e-09
5.82844e-09
5.41045e-09
-6.90915e-09
-4.32973e-09
-1.91015e-09
4.23493e-09
3.04996e-09
-5.37473e-09
-1.42531e-10
1.72373e-09
-1.35232e-09
-2.28843e-10
-3.8169e-09
1.41289e-09
2.27433e-09
1.29694e-10
-1.429e-10
1.32207e-09
-1.02125e-09
-1.57943e-10
-3.12465e-09
2.00748e-09
1.44017e-09
-3.22998e-10
-2.37744e-10
-5.88969e-09
5.81526e-09
3.1218e-10
6.59253e-09
4.13502e-09
-1.00384e-08
6.72957e-09
1.26705e-10
-2.61105e-09
-4.2452e-09
-1.67845e-09
8.28949e-10
1.06812e-09
-2.18609e-10
2.03799e-09
9.69515e-09
-6.79276e-09
-4.94043e-09
2.8092e-09
-3.68607e-10
-2.35801e-09
-8.25657e-11
6.81057e-09
-2.91965e-09
6.09964e-10
-4.5009e-09
2.28262e-09
-2.64408e-10
-1.10285e-09
-4.86166e-09
3.59519e-09
2.36931e-09
3.03974e-09
-2.64219e-09
-4.33019e-10
3.54755e-11
2.71e-09
-8.12101e-09
4.35101e-09
1.06002e-09
-4.99993e-09
3.35785e-09
-1.09789e-09
2.73997e-09
1.07721e-09
6.84042e-10
-1.92157e-09
1.60344e-10
-1.60924e-09
2.43977e-09
2.46709e-10
-7.91218e-09
6.9459e-09
-1.35524e-09
2.62314e-10
3.6207e-09
-4.32837e-10
3.87999e-09
-7.06785e-09
6.10637e-09
-4.50093e-09
-1.85312e-09
2.47692e-10
3.68918e-09
-2.28214e-09
-1.71508e-09
3.08055e-10
-2.01028e-09
3.36642e-09
-1.69401e-09
-1.42929e-09
-3.86096e-09
2.14939e-09
3.14086e-09
-3.88023e-09
2.45234e-09
1.69567e-09
-2.678e-10
-4.82126e-09
6.77097e-09
-3.12273e-09
1.17301e-09
1.33081e-09
-1.5291e-09
5.15111e-10
-3.16858e-10
4.87941e-09
-5.52555e-09
1.50197e-10
-1.12662e-09
2.12017e-09
2.288e-09
4.31768e-10
-2.23316e-09
1.83325e-09
-3.18373e-11
-5.11224e-10
-2.79366e-09
3.15109e-09
1.53798e-10
-1.24908e-09
-7.98361e-09
4.36328e-09
-1.20951e-09
-6.45365e-09
7.45117e-09
2.11995e-10
1.9932e-09
-3.06978e-09
-3.0641e-09
4.14064e-09
1.70262e-10
-4.27504e-09
-1.03599e-10
2.21871e-09
-1.1598e-09
-1.01775e-09
-4.11758e-11
2.82996e-09
-5.05388e-09
2.42825e-09
-2.04333e-10
4.41587e-09
6.91883e-10
-2.71627e-09
2.50741e-09
5.13903e-09
-2.02633e-09
-5.6201e-09
1.72558e-09
-1.04508e-08
5.8996e-09
2.82568e-09
-4.92909e-09
2.18164e-09
-3.63605e-09
4.17516e-10
-2.15763e-09
1.82405e-09
-8.39277e-11
-1.06799e-10
1.80653e-09
-1.62079e-09
-7.89203e-11
5.20946e-09
-9.94272e-09
2.85274e-09
1.88052e-09
6.22536e-09
-1.54272e-09
-2.12675e-09
-2.55589e-09
-3.80457e-09
-5.21938e-09
2.53484e-09
6.48911e-09
-5.53284e-09
-1.06171e-09
6.40723e-09
1.8734e-10
6.43358e-09
-7.25316e-09
6.22808e-09
-5.40851e-09
-4.92406e-09
-1.0429e-08
3.0805e-09
1.22725e-08
-2.86156e-09
5.3494e-09
-2.75231e-09
2.64462e-10
-3.57043e-09
-3.47612e-09
5.66498e-10
3.96636e-09
-8.08744e-09
5.61073e-09
2.91852e-09
-5.51947e-09
4.12559e-09
-4.71174e-09
-3.94604e-09
7.89722e-09
4.74437e-09
-8.95078e-09
5.01097e-10
3.70533e-09
1.17935e-11
-2.96684e-09
2.89438e-09
6.06884e-11
-1.03606e-08
7.88325e-09
-2.33252e-09
-1.45311e-09
1.12455e-09
7.76012e-10
-4.47456e-10
-2.64216e-09
3.689e-09
-1.13866e-09
9.17872e-11
-2.63459e-09
-7.60483e-10
-1.07094e-10
6.4181e-09
-4.88678e-09
-2.29477e-09
4.69318e-09
-2.28635e-09
-1.12106e-10
1.86787e-09
-4.16405e-09
1.60863e-09
6.87478e-10
1.21417e-09
-1.98301e-09
9.17392e-10
-1.48653e-10
2.52033e-10
5.79577e-09
-6.02711e-09
-2.06845e-11
3.2729e-09
4.88795e-09
-4.81667e-09
-3.34416e-09
9.06725e-10
-4.31758e-09
-2.00236e-09
2.88594e-09
-3.06221e-09
3.72781e-10
-1.96521e-10
-5.23964e-09
-1.37222e-10
-2.02027e-10
5.57896e-09
-5.12626e-09
1.25053e-09
5.45049e-09
-1.57475e-09
-2.60456e-09
3.79051e-09
1.29266e-10
4.44177e-09
2.4639e-09
-2.4556e-09
-4.45007e-09
-1.94678e-09
4.44657e-09
-2.44351e-09
-5.63198e-11
-7.47323e-10
-2.83597e-09
1.70055e-09
1.88268e-09
3.12847e-09
2.25444e-09
-1.17839e-09
2.13039e-09
-4.20537e-09
2.27194e-09
-1.97028e-10
-1.52897e-09
3.58033e-09
-5.57728e-09
3.5258e-09
-1.37378e-09
-1.81913e-09
2.81949e-09
3.73427e-10
3.88505e-09
3.72786e-09
-7.72312e-09
1.10208e-10
8.73473e-09
-5.23725e-09
1.0257e-09
1.9614e-09
-9.74844e-10
-2.01251e-09
-3.73682e-09
2.02247e-09
3.54481e-09
-1.83051e-09
-6.01083e-09
5.79324e-09
3.30906e-09
-1.05808e-08
1.06247e-08
-2.95514e-09
1.41478e-09
2.14578e-09
-3.63009e-09
6.95379e-11
5.12238e-09
-3.4376e-10
-3.21398e-09
-1.56462e-09
4.06329e-09
-4.31737e-09
4.07541e-10
-1.53434e-10
-2.00434e-09
-1.45613e-09
3.67991e-09
-2.19454e-10
1.61427e-09
1.21103e-09
-2.59023e-09
-2.35074e-10
3.8565e-09
2.30702e-09
9.57493e-10
3.5725e-09
1.98139e-09
-5.81019e-09
2.56307e-10
-2.7041e-09
4.26715e-10
-3.02329e-10
9.43562e-09
-5.2664e-09
-1.94306e-09
-2.22619e-09
-5.35896e-09
5.80157e-09
-2.64916e-10
-1.77681e-10
2.78833e-09
-1.21648e-09
-2.80831e-09
1.23646e-09
2.20189e-09
8.30301e-10
-2.76669e-09
-2.65513e-10
-4.135e-09
7.36053e-09
-3.35039e-09
1.24869e-10
7.74377e-09
-6.24844e-10
-3.48741e-09
-3.63152e-09
7.28824e-09
-1.69661e-09
-5.76113e-09
1.69501e-10
6.22657e-10
2.84025e-09
-7.01991e-09
3.55702e-09
-1.02741e-09
-5.0054e-09
1.57031e-10
-1.03851e-08
2.85379e-09
6.15941e-10
6.91537e-09
2.36363e-09
-2.37889e-09
2.70767e-11
2.35146e-09
-1.3319e-10
1.45448e-10
2.44839e-09
-2.62867e-09
2.82322e-10
-1.02016e-10
3.98713e-09
4.88382e-11
-1.57584e-10
-3.87835e-09
-4.6073e-09
-3.48738e-09
3.99564e-09
1.99505e-10
-3.73093e-09
3.43601e-09
9.54155e-11
-3.76973e-09
-2.28856e-09
3.30005e-09
-2.25465e-10
-2.04197e-10
-3.08881e-09
1.29049e-09
4.1741e-09
-2.3757e-09
-6.20011e-09
5.4288e-09
1.07495e-09
-3.03641e-10
-6.99815e-10
-2.57826e-09
6.09881e-09
-2.82069e-09
-1.76878e-09
7.48548e-11
1.82273e-09
-1.28792e-10
-1.66849e-09
-5.0734e-09
6.29519e-09
4.46732e-10
2.63756e-09
-4.19901e-10
-1.29582e-11
4.52479e-09
2.15165e-09
-1.71251e-09
3.99817e-09
-2.10731e-09
-1.78414e-10
-3.63869e-09
2.30636e-09
-3.80181e-10
4.73003e-09
-4.69329e-09
3.57094e-11
-7.24295e-11
1.25862e-09
1.93829e-09
-1.12208e-10
-3.0847e-09
2.13915e-09
-2.24827e-09
-9.95323e-11
-4.42432e-09
2.70146e-09
1.9267e-09
-2.03849e-10
-2.32987e-09
3.34303e-09
-8.0938e-10
-2.03775e-10
2.28719e-09
-4.4678e-09
-1.49267e-10
-3.79517e-09
3.0925e-09
6.60187e-10
4.25006e-11
-3.41531e-09
-6.40448e-10
2.60595e-10
3.61595e-09
4.35628e-09
-5.80622e-09
-2.16603e-09
1.56737e-10
-1.49694e-09
1.43631e-09
-9.61023e-11
-1.79757e-09
-2.0019e-10
-7.39125e-09
3.05059e-09
2.99628e-09
1.34434e-09
-5.354e-09
-6.36303e-10
1.92447e-10
2.03682e-09
1.33805e-10
-1.19407e-08
8.26403e-09
6.18908e-09
-2.51244e-09
3.28069e-09
1.10143e-09
-4.21746e-10
1.19591e-08
-3.5781e-09
-6.83048e-09
-1.55059e-09
7.02418e-09
-4.5407e-09
-1.59347e-10
-2.32413e-09
5.07205e-09
2.52565e-09
4.20484e-09
4.18753e-09
-3.66147e-09
-4.73089e-09
-1.53365e-09
4.32628e-09
-2.71347e-09
-7.91794e-11
4.12895e-09
5.87941e-09
2.89532e-09
-6.09163e-09
-6.63343e-09
1.08458e-08
1.87927e-09
7.97924e-09
5.12266e-09
-7.19583e-09
-5.90603e-09
7.11151e-09
3.0276e-09
-5.20108e-09
-4.93805e-09
1.1655e-08
-5.37095e-09
-4.10079e-09
-2.18324e-09
1.54892e-09
3.55236e-09
2.61838e-09
-1.26641e-09
1.87244e-09
-4.52397e-09
3.91795e-09
6.05694e-09
-9.22405e-09
-2.88658e-09
6.05371e-09
-8.01458e-09
4.64329e-09
3.95291e-09
5.36123e-09
-1.06617e-08
6.64078e-09
-1.34024e-09
-1.27244e-10