/*--------------------------------*- C++ -*----------------------------------*\
| =========                 |                                                 |
| \\      /  F ield         | OpenFOAM: The Open Source CFD Toolbox           |
|  \\    /   O peration     | Version:  v1612+                                |
|   \\  /    A nd           | Web:      www.OpenFOAM.com                      |
|    \\/     M anipulation  |                                                 |
\*---------------------------------------------------------------------------*/
FoamFile
{
    version     2.0;
    format      ascii;
    class       surfaceScalarField;
    location    "239";
    object      phi;
}
// * * * * * * * * * * * * * * * * * * * * * * * * * * * * * * * * * * * * * //

dimensions      [0 3 -1 0 0 0 0];

internalField   nonuniform List<scalar> 
36937
(
-1.62324e-09
-7.80755e-09
9.6026e-09
-1.71804e-10
-4.5024e-09
9.72111e-10
3.07112e-09
4.59163e-10
4.89822e-09
3.04628e-09
-3.47769e-09
-4.46681e-09
-4.72449e-10
-1.31243e-10
-1.55778e-09
-3.27363e-09
5.50013e-09
-5.88477e-09
5.16315e-09
-4.77851e-09
5.19354e-09
-1.65861e-10
-3.79892e-10
-8.98257e-09
-4.05187e-09
-4.64193e-09
3.86491e-10
3.67333e-11
3.79639e-10
-1.12141e-08
3.7854e-09
-6.22834e-09
3.37821e-09
-9.35276e-10
8.47703e-09
-2.63728e-10
-4.4279e-09
-9.2273e-09
9.22998e-09
4.21758e-09
-4.22026e-09
-4.64293e-09
-1.08127e-08
-6.22218e-09
4.56237e-09
8.516e-09
-6.85619e-09
-1.62411e-08
5.37596e-09
-5.22199e-09
5.17155e-11
-2.9662e-09
8.13647e-09
3.11282e-09
1.42218e-10
9.81987e-09
2.78833e-09
5.23205e-09
-3.42261e-09
1.30338e-09
-2.80198e-09
8.08575e-09
9.43196e-09
-6.52006e-10
-3.77662e-09
1.06303e-08
8.54563e-09
-9.81337e-09
-2.15486e-09
-3.94992e-09
9.69357e-09
-1.94777e-10
5.85011e-09
-1.02871e-08
6.14236e-09
2.84415e-09
-4.61521e-09
8.38865e-11
-7.05311e-09
3.16152e-09
1.07018e-08
-9.4847e-09
-4.37864e-09
9.0048e-09
-6.51377e-09
6.70484e-10
6.70539e-09
6.36949e-10
3.35949e-09
3.75229e-09
-7.81265e-09
-5.51037e-09
7.27907e-09
6.04396e-09
2.50306e-09
-9.22378e-09
2.06963e-10
-1.00215e-08
-6.57862e-09
1.12072e-08
5.39297e-09
7.30979e-10
-1.61237e-08
5.37121e-09
-1.18262e-08
4.74453e-09
-4.11569e-09
1.10837e-09
7.60487e-10
3.02965e-09
-1.32748e-08
3.08286e-09
-1.15462e-08
-9.08107e-09
3.13939e-09
4.2735e-10
-4.16247e-09
-1.23886e-08
-2.76914e-09
-8.62971e-09
-3.80197e-09
-1.02139e-08
-1.03659e-09
4.20693e-09
3.89434e-10
4.2439e-09
-1.07376e-09
-4.24456e-09
2.00467e-09
6.44681e-09
-2.11514e-10
2.10853e-10
-2.8173e-09
6.03626e-09
-1.84962e-11
-2.59735e-09
-1.2277e-08
1.23104e-08
2.56398e-09
-2.82436e-10
7.13306e-09
-9.44798e-09
6.51839e-09
3.23703e-09
-8.65164e-09
-1.10379e-09
1.96316e-09
-4.72605e-09
-9.5141e-09
-1.25528e-09
1.33888e-08
1.76832e-10
-1.08312e-08
-1.04612e-09
1.06221e-08
-6.08561e-09
-2.78243e-09
4.06556e-09
-3.63279e-09
-2.04125e-09
6.41964e-09
-3.1283e-10
5.38448e-09
2.52471e-09
-4.67216e-09
3.87021e-09
-5.26984e-10
-3.59651e-10
5.73318e-09
1.42169e-09
9.52458e-09
-7.31013e-09
-3.63614e-09
8.79394e-09
-4.84754e-09
-1.16987e-08
-1.11695e-09
1.16356e-08
1.18004e-09
-5.25203e-09
3.07788e-09
-8.63141e-09
-3.65874e-10
7.88033e-09
1.84363e-09
-1.68109e-09
-5.75389e-09
5.02836e-09
-4.00448e-11
-4.95866e-09
7.55216e-09
-3.18173e-09
5.88237e-10
5.39018e-09
-4.68456e-09
-5.66428e-09
-2.01981e-09
3.57561e-09
5.99636e-09
3.23582e-09
1.34544e-10
1.938e-09
9.2061e-11
-6.71462e-09
1.64263e-09
-2.88637e-09
5.61488e-09
-9.21312e-09
6.49519e-09
-2.89695e-09
-7.37101e-09
8.53561e-09
4.45029e-09
-1.32791e-09
3.88382e-09
6.79913e-10
3.17783e-09
1.31791e-09
-4.40368e-09
-2.10274e-10
-1.7523e-09
-7.25055e-09
-5.93865e-09
1.73759e-09
5.98293e-10
4.15931e-09
8.13777e-09
2.13544e-09
1.66181e-09
1.88112e-10
4.48698e-09
-4.92137e-09
-4.20341e-09
1.53371e-09
3.268e-09
1.94537e-09
-1.95997e-09
6.51365e-09
-8.44748e-09
3.89379e-09
6.85973e-09
-1.20202e-08
3.20052e-09
7.55129e-09
-1.0301e-08
6.82191e-09
-4.07216e-09
4.84828e-09
6.83638e-09
-4.13337e-09
2.65767e-09
9.71504e-09
-5.51297e-09
-1.12972e-09
-6.85226e-09
1.14132e-08
-4.18349e-09
-3.77403e-10
8.52236e-09
-9.98658e-09
8.28613e-09
-3.50801e-09
1.68786e-08
-1.22931e-09
9.57768e-10
8.28937e-09
-3.82068e-10
-9.13661e-09
9.9236e-09
-5.14225e-09
7.82957e-09
3.73425e-09
-4.12713e-09
-7.43669e-09
-1.98107e-09
4.61776e-09
5.19288e-09
1.28019e-08
-2.03308e-09
-7.03456e-09
5.26453e-09
5.5563e-09
2.99898e-09
-1.85553e-09
-5.27058e-09
-3.21127e-09
4.54471e-09
3.28432e-09
-2.60476e-11
-1.86242e-10
1.9873e-09
3.75252e-09
-5.19863e-09
-5.41186e-10
5.22771e-09
-2.98598e-09
-2.54423e-10
-4.24027e-09
1.035e-08
-8.14277e-09
-7.84817e-09
8.11226e-09
5.00043e-09
-3.45007e-09
3.38095e-09
-5.98021e-09
6.04933e-09
-9.54586e-09
3.59251e-09
-2.37611e-10
2.38556e-09
1.16233e-10
5.40107e-09
-5.47158e-09
-9.47535e-09
-7.93678e-10
2.14537e-10
2.40199e-09
6.0329e-09
-6.50143e-09
1.56056e-08
-9.17311e-10
-8.18687e-09
-1.40934e-08
1.53157e-08
-7.72366e-09
-1.40314e-08
1.37592e-08
4.39745e-09
-4.12529e-09
6.05901e-09
-3.27568e-09
-1.68147e-08
-2.74815e-09
-1.68168e-08
5.47151e-09
-9.14985e-09
1.0824e-08
3.05094e-09
-4.72513e-09
-1.79212e-09
-4.87633e-09
-2.4814e-09
-2.95006e-09
2.90194e-09
1.56537e-08
1.24859e-08
-1.20301e-10
9.61378e-09
-5.34688e-09
1.24969e-08
1.08761e-08
1.23137e-08
-1.83376e-08
1.57572e-08
9.54022e-10
1.7938e-08
-1.57674e-09
-3.87533e-09
-2.70552e-10
1.80978e-08
1.1074e-10
-9.84527e-09
-1.3029e-10
9.84074e-09
1.34821e-10
9.18244e-11
8.86938e-10
-2.0902e-08
-9.16163e-11
2.07231e-08
-6.7216e-09
1.2275e-08
1.72271e-08
-1.49257e-08
1.57891e-08
-1.80905e-08
3.81866e-09
-1.25777e-08
8.96635e-09
-2.07345e-10
1.83798e-08
2.66595e-09
6.6368e-09
3.76206e-09
-2.53246e-08
5.59254e-09
1.8548e-08
7.89349e-09
5.28169e-09
1.99199e-08
-6.65359e-09
-2.39871e-08
3.22256e-09
1.36395e-08
7.12497e-09
1.2068e-09
2.2701e-08
-1.63026e-09
1.96168e-08
1.32262e-08
9.61313e-09
1.55335e-08
1.8026e-08
4.72005e-09
4.81965e-09
1.31613e-08
6.29439e-09
1.68055e-08
3.17305e-09
1.71801e-08
-1.25358e-08
2.20033e-08
9.65671e-09
-2.58201e-08
7.07141e-09
-1.83903e-09
2.05878e-08
8.10865e-09
-1.12403e-08
-2.26885e-08
-2.59736e-08
5.76012e-09
2.72849e-08
-1.38173e-08
-4.04764e-09
1.64352e-08
-2.23995e-08
-1.20945e-08
1.61023e-08
-7.92896e-09
3.92119e-09
1.32236e-08
-1.93545e-08
-5.96368e-09
-1.90753e-08
2.57894e-08
-6.56199e-10
-5.62344e-11
1.32141e-08
-6.4664e-10
4.36327e-09
-2.07619e-08
2.58137e-09
-2.36229e-08
8.91085e-09
1.87675e-08
-2.86361e-08
-1.08933e-08
1.91892e-09
-6.77428e-09
-3.20455e-09
4.3276e-08
-1.7024e-08
-1.02753e-08
-1.59767e-08
-8.50285e-09
1.08069e-08
4.09719e-08
1.01994e-08
-6.30571e-10
-7.26045e-09
1.69315e-09
1.92958e-08
2.50291e-08
-2.01052e-08
1.82194e-08
2.73853e-08
-1.7558e-08
-2.01027e-08
3.6562e-08
-7.46938e-09
3.24896e-08
-4.87673e-09
-1.20134e-08
-1.55995e-08
-2.38843e-09
1.73882e-08
1.74899e-08
-6.5743e-09
9.49682e-09
-7.79753e-09
4.87501e-09
4.01166e-09
-2.11273e-08
1.05414e-08
2.02976e-09
8.56194e-09
-1.91055e-08
8.51383e-09
-2.11121e-08
1.06151e-08
1.25268e-08
1.97592e-08
-1.71709e-08
8.55879e-09
-1.11471e-08
1.28244e-08
-1.41773e-08
-2.30469e-08
1.08217e-08
9.83674e-09
-1.43264e-08
-1.35973e-08
1.15309e-08
-2.18456e-08
-1.41076e-08
6.43353e-09
2.21641e-08
-1.66596e-08
6.02643e-09
1.48152e-08
8.5524e-09
-1.20359e-09
1.20154e-08
6.85178e-09
-2.40141e-09
-1.64657e-08
1.42235e-08
1.51801e-08
5.4395e-09
1.73459e-08
-1.11851e-08
2.72397e-08
-3.69496e-09
-3.98215e-09
1.48213e-08
-1.73935e-11
1.63168e-08
-5.48375e-09
1.9953e-08
-5.95108e-10
-2.60417e-09
-1.20276e-08
1.52268e-08
-3.20232e-09
-1.22745e-08
1.48817e-08
-7.35963e-09
4.91288e-09
-1.36721e-08
1.61189e-08
3.6697e-09
-4.04176e-09
1.87244e-08
-1.83523e-08
4.24764e-09
-1.14335e-08
-1.67463e-08
2.39321e-08
-7.6994e-09
-1.42015e-08
2.61485e-08
-1.79054e-08
1.88416e-08
-1.34111e-08
1.24749e-08
-5.23535e-09
-1.52742e-08
-1.41902e-08
1.90262e-08
-1.16631e-09
-1.37248e-08
1.0984e-08
-1.14494e-08
1.28038e-08
1.99607e-09
1.47089e-08
5.38379e-10
-2.04827e-08
-1.01357e-08
1.0905e-08
-3.6236e-09
-1.04838e-08
2.76393e-09
7.81492e-10
1.20722e-08
-9.50442e-09
-1.02672e-08
1.11135e-09
-1.25896e-08
2.61293e-08
-4.61557e-09
-1.65462e-08
-4.96748e-09
-8.46804e-10
7.11718e-09
-7.40322e-09
-1.99441e-08
4.39716e-09
-2.34797e-08
-2.61938e-09
2.73399e-08
-9.70906e-09
-2.22464e-08
6.54899e-09
9.07913e-10
-8.74918e-09
-2.6739e-08
-1.85328e-08
-4.90786e-09
2.43486e-08
-1.89748e-08
-4.973e-09
4.68062e-10
-7.36493e-09
-2.13189e-08
-1.80157e-09
-2.66641e-08
9.93284e-09
-1.64967e-08
-1.03313e-08
-5.09564e-10
-1.73488e-08
-4.12098e-09
-2.65152e-08
-9.23912e-09
-1.26088e-08
7.27247e-09
1.45754e-08
-1.24132e-08
3.48672e-09
-1.07934e-09
1.00059e-08
-3.0468e-09
-1.83967e-08
7.77689e-09
1.36666e-08
-1.57442e-08
2.89298e-09
9.80445e-09
-1.30573e-10
-1.71721e-08
3.79766e-09
1.3505e-08
-1.58752e-08
3.33137e-09
-3.25988e-10
-8.73857e-09
-9.33214e-09
-7.7258e-09
-8.34442e-09
-7.4701e-09
-5.6486e-09
1.18571e-08
1.26157e-09
-1.0415e-08
8.33925e-09
-5.39433e-09
7.03989e-09
1.88837e-09
-1.93433e-08
-6.33451e-09
-9.21573e-09
-1.66949e-08
-1.08956e-08
3.35969e-09
-1.8223e-08
9.46512e-11
5.65655e-09
8.2038e-09
8.43423e-09
5.76758e-09
1.48576e-08
7.38337e-09
6.71399e-10
1.39781e-08
-6.21529e-09
-1.44278e-08
4.19844e-09
1.0022e-08
-1.08729e-08
1.12067e-08
2.51857e-08
-1.38236e-09
-1.87551e-08
1.06993e-09
1.90675e-08
-1.59274e-08
1.46814e-08
-1.36407e-10
1.43844e-08
-1.3499e-08
3.29219e-09
-4.1776e-09
5.40761e-09
2.01302e-08
-1.11534e-08
4.01642e-09
1.48948e-08
-5.53848e-09
-1.33728e-08
-5.69847e-09
-9.04023e-09
1.20241e-08
-1.30567e-08
-2.13694e-09
6.4971e-09
1.03213e-08
-1.48895e-08
1.56249e-08
-1.42344e-08
-4.44159e-09
1.92861e-08
-9.43694e-09
-5.46599e-09
-1.5122e-08
1.04043e-08
-2.14088e-08
6.26947e-09
3.61772e-09
-1.18719e-08
-1.49771e-08
2.24073e-08
-2.82994e-08
1.83205e-08
-1.89296e-09
5.0458e-09
-1.65413e-08
-1.68039e-08
-3.66178e-09
-1.57128e-08
9.57585e-09
-7.69788e-09
1.32209e-08
-9.26393e-09
3.74086e-09
4.24514e-09
-8.71252e-09
-3.2305e-09
-1.86071e-09
1.42742e-08
8.07445e-10
-3.46394e-10
8.22261e-09
-9.73692e-09
-1.22176e-08
1.59838e-08
4.78929e-10
1.11014e-08
-1.25447e-08
-2.78156e-09
4.22489e-09
9.06683e-09
1.68813e-09
-7.89436e-09
-9.98883e-09
4.5799e-09
1.33033e-08
5.33051e-09
-2.27627e-08
9.53785e-09
-2.01555e-08
-5.86268e-09
1.60294e-08
3.62989e-09
-1.1139e-08
-1.26464e-08
7.22905e-09
1.13846e-08
-1.32832e-08
-2.78834e-09
1.45973e-08
1.05956e-08
-3.47047e-09
-5.61579e-09
-1.50937e-09
9.09925e-09
-8.69758e-09
1.0194e-08
-7.85653e-09
-1.12763e-08
-1.87137e-08
3.17529e-09
9.67571e-09
-7.99519e-09
-8.50864e-09
5.67691e-09
6.00703e-09
-1.05941e-08
-1.38498e-09
1.19878e-08
1.09414e-08
-8.95379e-09
-7.6034e-09
1.21548e-09
1.02835e-09
-6.77356e-09
1.40708e-08
-3.88814e-11
-1.93344e-08
1.75979e-08
1.03551e-08
-8.61852e-09
2.40905e-09
2.4992e-08
2.72241e-10
-2.76733e-08
1.20298e-08
2.09312e-09
-1.17139e-08
1.97527e-08
1.72691e-08
2.41861e-08
6.55134e-09
-2.09651e-08
-9.77232e-09
-3.56887e-09
2.73004e-10
2.74819e-08
-3.00976e-08
3.11135e-08
-4.58479e-09
-1.71076e-08
-6.43863e-09
1.29079e-09
-2.13366e-09
-1.84916e-08
-4.58311e-10
1.43713e-08
-1.26222e-08
1.96542e-08
5.85644e-09
-7.91272e-09
1.9224e-08
-2.10854e-08
1.37564e-08
-1.49687e-08
-1.83753e-09
1.58669e-08
-1.28857e-08
1.50021e-08
1.66593e-08
-1.50245e-08
8.99253e-10
1.63655e-08
2.38937e-09
2.79145e-09
1.51131e-08
-1.70053e-08
1.76132e-08
-3.85583e-09
-1.01376e-08
1.10145e-08
2.979e-09
1.20088e-08
-1.53849e-08
-4.7975e-10
5.39936e-09
1.04186e-08
-1.7516e-08
1.69804e-09
1.24736e-08
-1.42991e-08
7.22493e-09
1.00202e-09
-8.74269e-09
-2.39697e-09
-2.96328e-09
1.51374e-09
1.2464e-08
-1.51907e-09
1.05646e-08
1.73414e-08
-2.82244e-09
-4.10038e-09
1.49785e-09
-4.29218e-09
2.01358e-08
1.54851e-08
1.01269e-08
-1.02187e-08
-1.74242e-08
-3.17019e-09
7.79955e-09
-8.86362e-09
-7.67862e-09
-7.45837e-09
-1.26997e-10
1.93881e-08
-1.38321e-08
-8.37837e-09
-1.63174e-09
1.67276e-08
-2.06835e-09
1.21169e-08
6.98358e-10
-1.07469e-08
6.84857e-10
-1.16168e-08
1.32518e-08
-8.59323e-09
-1.3262e-08
1.01112e-08
2.1569e-09
-1.16907e-08
1.33968e-08
-1.05415e-08
6.41393e-10
-6.51659e-10
2.06015e-10
1.24392e-09
3.13313e-09
-1.27173e-08
8.34025e-09
-1.04808e-08
3.35264e-09
8.37211e-09
1.23116e-08
1.18184e-10
-1.78915e-09
-1.06406e-08
1.05001e-08
-8.66935e-09
2.68187e-09
-9.46833e-09
9.91959e-09
-3.90813e-09
9.94264e-09
-1.08033e-08
-1.79579e-09
-5.03242e-09
-9.24212e-09
4.80622e-09
3.07693e-09
-1.34627e-08
5.35333e-09
7.6401e-09
-1.3921e-08
9.35784e-09
-1.18292e-08
-8.21627e-09
-7.97664e-09
1.17086e-08
1.15463e-08
-6.87042e-09
2.1433e-09
-4.51805e-09
-1.40004e-09
-3.00831e-09
-7.42083e-09
-2.45387e-09
8.63818e-09
-4.9377e-09
-8.9564e-10
5.81544e-10
6.05549e-09
-9.49282e-10
2.06707e-09
-2.0406e-09
-3.36863e-09
-4.6193e-10
5.87116e-09
-4.7096e-09
-2.93268e-09
5.60168e-09
-3.85694e-11
-4.64719e-09
-2.38407e-11
-3.38284e-09
-2.43557e-11
-1.87718e-11
3.09962e-09
-9.05761e-09
5.97675e-09
-8.50851e-09
5.55706e-09
-5.30666e-09
6.66571e-10
5.24531e-09
-6.05216e-10
-4.24199e-09
3.56639e-09
-4.63105e-09
-4.63604e-09
7.27374e-09
-3.09536e-10
-4.39635e-09
5.86904e-11
-8.54434e-09
-2.73708e-10
-4.02678e-10
-7.98836e-09
3.60342e-09
-1.12367e-09
1.9245e-09
-4.40424e-09
2.56166e-10
-3.55881e-11
-6.92955e-09
1.56389e-09
-3.84885e-09
4.45811e-09
-2.62969e-11
6.92481e-10
-3.16433e-09
-5.03423e-09
-2.81762e-09
-1.17887e-08
5.33173e-09
3.23564e-09
3.22132e-09
-3.01134e-09
2.58008e-09
-1.13574e-08
8.99143e-09
-9.43528e-09
5.9762e-09
-5.53235e-09
8.82758e-09
5.49558e-09
2.70588e-10
-1.27172e-08
8.94359e-09
2.98813e-11
-6.3934e-09
7.01518e-09
5.16405e-09
9.1357e-09
-8.81962e-09
1.7396e-09
-2.05568e-09
4.297e-09
8.49439e-09
-3.6557e-09
2.34206e-09
-1.91583e-09
-7.3126e-09
6.88637e-09
-6.44768e-09
-6.12845e-09
4.69636e-09
1.02597e-08
-7.47303e-10
5.95047e-10
5.76247e-09
-7.40771e-09
3.33094e-10
4.68208e-09
-1.71379e-11
1.13293e-08
7.59952e-09
-2.92029e-09
2.24147e-09
-4.57175e-10
4.96176e-09
-6.74605e-09
5.62956e-09
1.50703e-09
-4.89512e-09
2.13278e-09
5.71362e-09
-8.30357e-09
8.55002e-10
7.91461e-09
-6.63683e-09
6.07096e-09
4.79852e-09
-5.15587e-09
8.30569e-09
-4.95134e-10
1.52522e-08
-8.39905e-09
-2.0546e-09
2.49109e-09
1.18353e-08
9.25803e-10
7.98715e-09
2.80962e-09
3.59893e-09
4.8003e-09
-3.43747e-09
-2.28505e-09
5.78666e-09
9.73197e-11
3.36833e-09
-2.3822e-11
6.56669e-09
-4.20467e-09
9.85684e-09
-1.03413e-08
-2.81345e-09
-2.33974e-10
1.10346e-08
-3.75396e-09
1.27758e-08
2.91752e-09
6.31075e-09
-2.66158e-09
6.12421e-09
1.61649e-10
5.42384e-09
-1.11868e-09
6.0088e-09
5.2017e-09
-2.83567e-10
6.38645e-09
-1.89321e-09
2.23893e-09
5.77849e-09
4.13398e-09
8.01376e-09
4.17048e-09
-1.32069e-08
9.92102e-09
-8.84578e-10
-1.03103e-08
1.09782e-08
3.50251e-09
-4.75473e-09
-6.91797e-09
-1.53421e-09
-1.00568e-08
-5.0082e-09
-4.32277e-09
-1.18169e-08
5.4094e-09
1.07303e-08
-1.4285e-10
8.34079e-09
-1.25207e-08
-1.6527e-08
-7.92077e-09
1.75298e-08
-9.39213e-09
-1.79997e-09
1.1353e-09
-4.01343e-09
1.2142e-08
3.72855e-09
-3.72241e-09
-1.18804e-08
-9.24218e-10
-1.1891e-08
1.89758e-09
-1.82356e-09
-9.54394e-09
-1.27318e-08
1.03848e-08
-1.50803e-09
-1.16065e-08
-1.50654e-08
-5.24111e-09
-6.98775e-09
4.63925e-09
7.5896e-09
5.26214e-09
-2.17875e-09
-7.16795e-09
4.08456e-09
-5.95937e-10
-4.27722e-09
1.01353e-08
-4.94537e-09
1.03339e-08
-5.98445e-09
-4.70537e-09
2.16078e-10
-4.56079e-10
-6.92745e-09
-8.26114e-09
1.09114e-08
-1.34588e-08
4.35264e-09
-6.56358e-09
-1.90064e-09
1.29627e-09
3.80289e-09
2.25885e-09
1.96697e-09
-8.02872e-09
-1.44684e-09
8.62853e-12
-7.12397e-09
8.55116e-09
-2.87403e-09
5.94159e-09
-1.08067e-08
-1.63514e-08
6.1781e-10
7.47246e-09
-1.04967e-09
-9.36015e-09
-5.43228e-09
-9.07623e-09
-1.00289e-08
4.4636e-09
7.45724e-09
7.48485e-09
-2.80204e-09
-1.214e-08
4.18819e-10
3.20481e-09
3.83362e-09
-8.83166e-09
4.2116e-09
5.03887e-09
-5.33433e-09
3.98753e-09
-7.52548e-09
-5.51292e-09
3.81681e-09
9.22159e-09
-7.13082e-09
8.26474e-10
-1.22114e-09
-1.33659e-09
-9.71521e-10
-4.94905e-09
-3.51836e-09
3.40834e-09
3.50056e-09
-9.71095e-09
4.67897e-09
4.74852e-09
-5.21589e-09
-3.69331e-09
5.98911e-10
6.91121e-09
-2.85378e-09
-1.30513e-11
3.61948e-09
-5.16019e-09
2.88895e-09
-3.33901e-09
3.95063e-09
1.00171e-08
-4.73926e-09
7.43617e-10
2.20823e-11
3.58399e-09
4.8574e-11
-9.73667e-09
1.64856e-09
1.14241e-08
-3.33595e-09
-8.03754e-09
-1.54045e-09
-1.58685e-10
-1.09665e-08
-1.29124e-08
1.58413e-08
-2.61719e-09
4.46674e-10
-7.18519e-09
9.35571e-09
-8.43763e-09
-1.88099e-09
7.70143e-09
-5.98699e-09
8.08222e-09
-1.05274e-09
-6.4747e-09
9.47263e-10
-9.68881e-09
3.03912e-10
-7.46964e-09
1.23171e-09
-1.15182e-08
8.73721e-09
8.99989e-10
-5.15191e-09
-3.01187e-09
-2.80273e-09
9.75048e-09
-2.31466e-09
-1.25877e-08
-4.18872e-09
-2.48727e-09
3.66412e-09
-2.39173e-09
-8.23909e-09
6.44211e-09
-5.54968e-09
-2.03162e-10
-1.71679e-09
6.11093e-09
-5.53589e-09
-6.12472e-09
-1.80316e-09
-1.77473e-09
-3.57086e-09
-1.02423e-08
4.72227e-09
-1.14168e-08
6.63115e-09
6.34241e-11
-5.68069e-09
8.17909e-10
9.58506e-09
-4.45242e-09
1.11225e-08
7.10605e-10
-7.38071e-09
1.26081e-08
-1.09454e-08
-6.11518e-09
5.02891e-09
-1.08869e-08
-5.55889e-09
-4.6524e-09
4.00062e-09
4.29242e-09
-6.88609e-09
-4.46001e-09
7.05368e-09
-2.21795e-10
4.35351e-09
1.60705e-10
-2.38353e-09
5.90214e-09
-2.7007e-09
4.35579e-10
1.54665e-09
-8.09011e-09
6.10788e-09
-1.30062e-09
9.25635e-09
3.3501e-09
6.4718e-09
2.93479e-09
-1.34446e-08
6.15053e-10
-8.56713e-09
3.63481e-09
1.74543e-09
-3.8336e-09
4.99329e-09
-7.18563e-10
-6.39913e-10
-4.52561e-09
-4.66354e-09
5.63011e-09
1.07954e-10
1.36338e-09
-8.78985e-09
5.56868e-09
1.85779e-09
-8.64226e-09
6.8846e-09
3.12104e-09
1.18963e-09
-4.09773e-09
-5.88176e-09
-2.91095e-09
-4.54168e-09
-3.49443e-09
6.17695e-09
4.20208e-09
-3.87513e-09
4.99355e-10
-1.18654e-10
-1.30675e-08
-1.53693e-10
3.91518e-09
9.306e-09
1.61149e-09
-9.3128e-09
-5.36617e-09
-3.21082e-09
-3.57525e-09
1.83885e-09
-3.19883e-09
6.92866e-09
-1.6011e-09
9.6169e-09
1.01392e-08
-5.30707e-09
-3.22061e-09
2.7911e-09
-8.24796e-09
8.96431e-09
-6.47691e-09
-1.10838e-08
-3.94886e-09
-2.28724e-09
-3.4228e-09
-2.67021e-11
3.95402e-09
-3.21336e-09
-3.95148e-09
5.76525e-10
-4.53113e-11
3.66947e-09
-5.05815e-09
-3.91839e-09
4.27539e-09
-2.93929e-11
-8.85268e-10
-9.68937e-09
-9.15677e-09
-5.39866e-09
7.4782e-10
-6.16187e-09
8.54588e-10
-1.43262e-08
8.07292e-09
-1.10928e-08
8.78436e-09
1.30072e-08
-1.06987e-08
7.36806e-10
-3.24136e-09
-8.58829e-09
-1.00298e-09
1.25757e-08
3.04869e-09
-5.92841e-09
5.14786e-09
-2.26814e-09
-7.18102e-09
9.22672e-09
3.34864e-09
4.85048e-09
-7.34454e-09
2.58496e-09
6.02099e-09
-5.2573e-09
6.54165e-09
-3.20887e-09
2.20531e-09
-7.42022e-09
-1.9661e-09
-3.77634e-09
5.32313e-11
-1.83293e-09
-2.40691e-09
2.163e-09
6.78557e-09
-1.62262e-10
-5.62393e-09
-3.9846e-09
-1.30433e-08
2.26519e-08
-1.11698e-08
1.13959e-08
1.15983e-09
-2.18413e-08
1.38253e-08
-1.30178e-08
1.51755e-08
-2.67735e-09
-1.53423e-08
4.9763e-09
-1.43283e-08
4.81227e-10
-7.66824e-09
-7.31209e-09
1.54926e-08
-2.20011e-08
2.63441e-09
-2.48405e-09
1.84814e-09
-1.22315e-08
-5.9343e-09
8.7582e-09
-7.85708e-09
5.03318e-09
5.99184e-09
-1.10021e-08
-9.24019e-10
1.71015e-09
-4.74365e-09
1.17917e-08
-1.05989e-08
-1.07692e-09
3.81873e-09
9.27011e-10
-8.56926e-09
-2.95664e-09
1.53489e-08
-1.33048e-08
3.94774e-09
-7.91743e-09
2.49765e-08
8.41156e-09
5.37276e-10
7.82304e-09
-1.67719e-08
-2.61376e-08
2.66318e-08
-7.85274e-09
-2.22236e-09
-8.55381e-09
4.34744e-09
-1.28605e-08
3.22972e-09
-5.14526e-09
-5.43555e-09
-1.55568e-08
-1.14929e-08
-2.9562e-09
1.58863e-09
-7.8259e-09
-1.22363e-08
-1.17179e-08
-6.73222e-09
-1.05305e-08
-4.05784e-09
1.16322e-08
7.29559e-09
-2.5652e-08
2.5133e-09
6.11189e-09
-5.4973e-09
-3.1279e-09
4.19634e-09
-1.69799e-09
1.49486e-11
-1.82467e-09
1.83859e-09
4.18242e-09
4.59851e-10
3.82737e-09
8.25824e-09
2.70659e-10
-1.11436e-08
2.61475e-09
-3.9688e-09
1.16851e-09
1.10585e-08
-9.98685e-09
6.4779e-09
-5.31295e-09
3.74298e-09
-8.41688e-09
-4.7052e-09
-1.35225e-09
7.22596e-09
-6.01773e-09
1.58319e-09
-1.13213e-09
-9.67812e-09
-4.05098e-09
-3.34968e-09
-3.90929e-09
4.39563e-09
3.86232e-09
2.83935e-09
-7.83381e-09
2.3651e-09
-2.00764e-10
1.5627e-09
-5.24381e-09
-2.33663e-09
1.8511e-11
-6.45544e-09
-1.06174e-08
-9.86119e-10
2.83331e-09
5.69402e-09
-6.54713e-09
-1.9802e-09
5.68711e-09
-2.90212e-09
4.83188e-11
3.80611e-10
-8.04075e-10
-2.89717e-10
-6.64227e-09
-1.76158e-10
-8.93149e-09
3.2275e-10
4.65589e-09
7.15374e-10
4.89118e-09
-5.95879e-10
-6.24097e-09
6.07664e-09
-4.26146e-10
-6.24637e-09
-2.62946e-10
-7.34836e-09
-6.85263e-09
-9.31286e-09
1.16669e-08
4.49856e-09
-9.35678e-09
2.59848e-09
-9.43267e-11
2.43051e-08
-8.76778e-09
-1.30752e-08
-2.4621e-09
-3.88227e-09
1.81417e-08
1.00457e-08
8.20333e-09
-2.28187e-09
-1.40787e-08
8.1572e-09
5.65437e-09
-2.55416e-10
2.80438e-09
-4.06014e-09
-2.35643e-10
-5.061e-09
-7.71862e-09
9.3694e-09
-8.39463e-09
1.62371e-09
7.28373e-09
1.19676e-09
8.88905e-10
1.1677e-08
7.27366e-09
1.35178e-08
-6.457e-09
-1.58286e-08
3.30106e-09
4.89995e-09
-1.36388e-08
-3.88081e-09
-4.74946e-09
-5.84264e-09
2.22486e-09
4.81454e-09
8.47992e-09
-7.46079e-09
5.93834e-09
1.59066e-09
1.15834e-09
8.30954e-09
7.14312e-09
-7.09108e-09
1.53861e-09
6.24586e-09
-6.7248e-09
1.63727e-09
7.95384e-09
2.51063e-09
-2.15493e-09
8.62129e-10
7.37469e-09
-1.99095e-09
2.99217e-09
-5.02303e-09
2.18742e-09
-1.56564e-10
7.45766e-09
-1.89973e-09
-2.08846e-09
-3.46948e-09
4.05455e-10
1.73647e-09
5.31574e-09
-7.88197e-09
2.57464e-09
5.71279e-09
-2.82613e-09
-6.95557e-09
1.01865e-08
-1.3705e-09
1.85196e-09
7.35876e-09
-1.83603e-09
4.91173e-09
-6.76042e-11
3.06716e-09
9.59906e-09
-1.09297e-08
2.18101e-09
5.79844e-09
-5.4048e-09
-2.70523e-09
3.42736e-09
4.18961e-09
1.03774e-09
3.6158e-09
4.73114e-09
6.49306e-09
-9.01482e-11
5.69851e-09
7.70815e-09
-9.64962e-09
7.05374e-09
1.33392e-08
-1.94288e-09
-1.52711e-09
-1.37505e-08
2.30069e-09
5.11385e-09
6.33593e-09
4.37579e-10
-7.4262e-09
-6.76185e-09
1.85231e-08
-9.65749e-09
-8.42806e-09
9.00588e-09
1.18179e-08
-2.4553e-09
1.15983e-09
1.10078e-08
1.42367e-08
-1.31193e-08
8.09024e-09
1.51523e-08
1.99336e-08
-2.25564e-10
6.69373e-09
-9.84445e-11
-6.36972e-09
5.09864e-09
-1.04231e-10
-5.21997e-09
-2.91729e-09
-6.36462e-09
1.19504e-08
-2.66852e-09
7.86099e-09
7.78834e-09
-9.05432e-09
2.85006e-10
4.85397e-09
-5.2432e-09
6.54574e-09
-6.35918e-09
-3.54758e-09
2.8409e-10
5.18042e-09
-1.91693e-09
-5.48581e-09
2.11486e-09
-1.76623e-10
2.00454e-09
-1.84305e-09
6.38425e-09
-3.69934e-09
2.18072e-10
1.82577e-09
2.25722e-09
7.86745e-09
6.636e-09
3.05075e-09
1.04685e-08
3.88052e-10
-3.06819e-09
4.6013e-09
-3.44668e-09
-3.19911e-09
1.00635e-08
-6.58027e-09
9.52659e-09
-1.45286e-09
6.44222e-09
1.1282e-08
-6.12425e-09
-4.77015e-09
-3.87576e-10
-3.59681e-09
2.571e-09
1.23078e-08
7.86622e-09
-7.50969e-09
-6.48078e-09
-6.15461e-10
4.88486e-09
7.41461e-09
-7.02885e-09
-5.15591e-09
-5.41866e-10
1.05275e-08
1.83005e-09
3.31091e-09
-5.75642e-09
-4.63655e-09
2.22523e-09
4.24136e-09
6.00658e-09
3.50264e-09
-3.6048e-09
-5.90442e-09
1.56022e-09
4.64516e-09
-1.98793e-10
-3.06658e-09
-9.74756e-12
-5.24151e-09
6.92488e-09
-4.66182e-09
4.06547e-09
3.65577e-10
-1.52476e-09
4.57893e-09
-3.60175e-10
-1.17284e-08
-2.08435e-09
-9.60377e-09
5.63879e-09
1.54494e-08
1.20951e-08
-6.87888e-09
-2.06657e-08
1.64363e-08
2.28178e-09
-3.26868e-09
1.70039e-09
4.03005e-09
6.36469e-09
6.57473e-09
1.1562e-08
7.075e-09
-5.18577e-09
3.92561e-10
3.37267e-09
1.02771e-08
7.67384e-09
1.97992e-09
-2.40904e-09
1.00995e-08
6.72538e-09
-1.44158e-08
5.44951e-09
-1.47374e-08
-1.82472e-09
-5.15834e-09
-3.19544e-09
1.17265e-08
-4.32728e-09
3.19899e-09
-7.88212e-09
1.00024e-08
-6.0175e-09
7.73444e-09
-2.45306e-10
-2.79498e-09
7.59385e-09
-3.82988e-09
-9.68987e-10
8.83055e-09
-6.72591e-09
-4.89963e-09
-6.03749e-09
1.09954e-09
1.25318e-08
-3.5592e-09
6.35226e-09
5.51918e-09
-2.36511e-09
-9.87998e-09
4.10957e-10
1.54903e-09
6.50926e-09
-1.42087e-08
5.70254e-09
-3.02316e-09
-6.0215e-09
1.18696e-08
4.71991e-09
-1.94269e-09
1.94972e-09
-1.27585e-08
1.27514e-08
-5.39206e-09
7.03099e-09
2.31844e-10
-1.87078e-09
-5.44893e-10
-6.78986e-09
1.32985e-08
-9.94253e-10
-1.03545e-08
6.20008e-09
1.58592e-09
5.5125e-09
-2.93222e-09
4.21331e-09
-5.1046e-09
3.82352e-09
1.45851e-09
-6.34033e-09
1.94959e-09
4.84417e-09
2.81443e-09
-4.0955e-09
-1.50169e-09
1.04414e-08
-7.30077e-09
1.34439e-08
-1.02386e-08
2.63371e-10
-5.33153e-10
-4.47452e-09
4.73351e-09
-3.9663e-09
3.70731e-09
3.55949e-10
-4.72922e-09
-1.01248e-10
7.44513e-09
4.66972e-09
-6.40035e-09
-4.6097e-09
-7.89332e-11
-1.15119e-09
-6.24341e-09
4.38192e-09
-6.078e-09
3.45236e-09
-3.79966e-09
-2.50569e-10
-1.22989e-08
-4.24644e-09
1.17995e-08
4.74587e-09
2.29501e-09
-2.13681e-09
-1.24571e-08
-1.67627e-08
-5.62559e-10
-3.76916e-09
-2.52436e-09
-8.60198e-09
-5.63641e-09
-2.86913e-11
-1.25994e-08
1.49231e-08
-1.27402e-08
-1.1569e-08
2.17848e-08
1.04904e-08
1.44825e-10
-1.2772e-08
6.593e-09
-3.49033e-10
2.70868e-09
-5.56182e-10
-1.10829e-08
-6.69212e-09
2.20219e-09
-9.06649e-09
-6.22762e-09
-1.92837e-09
-1.08405e-08
-1.085e-08
-3.44274e-09
1.2448e-08
-4.28532e-09
-7.72354e-09
-9.51449e-09
1.37953e-08
3.86714e-09
-1.50276e-08
1.0878e-08
9.44363e-10
1.36475e-08
-1.07247e-08
-9.45082e-10
7.92396e-09
-1.47024e-08
6.09913e-09
3.92893e-09
2.41991e-09
-6.50757e-09
6.05586e-09
6.19027e-09
-1.36429e-08
-8.11858e-09
1.16269e-08
-1.27184e-08
-3.87286e-09
1.56374e-09
9.85168e-09
-4.76734e-09
-6.32273e-09
4.30328e-09
-1.19709e-09
8.13763e-09
6.69219e-09
-8.63955e-09
4.35937e-09
-9.8908e-10
-2.12025e-10
-4.58246e-09
1.0466e-08
-3.98584e-09
3.30212e-09
1.15232e-08
3.02571e-09
6.65049e-09
-9.04356e-09
-6.32635e-10
9.93712e-09
2.67883e-09
-9.59024e-09
6.88288e-10
5.24317e-09
7.19028e-10
8.67617e-09
1.94923e-09
1.13296e-08
-7.19442e-09
-1.45632e-09
1.08086e-08
5.97405e-09
-8.14904e-09
-8.63358e-09
2.75347e-09
-1.11107e-09
-1.04108e-08
8.76844e-09
1.15781e-08
1.9839e-09
-5.5123e-10
1.05346e-08
1.5948e-09
-6.75122e-09
5.80023e-09
3.99757e-10
-4.11128e-10
-3.66032e-10
-9.64854e-10
1.09183e-08
-1.27724e-09
1.36056e-08
-3.2409e-09
9.94711e-11
-2.54562e-09
8.24638e-09
1.52363e-08
-4.60224e-09
5.34964e-09
-5.17592e-10
3.40376e-09
8.86129e-09
-1.34678e-09
6.20777e-09
4.26858e-09
5.34762e-10
-6.92803e-09
2.12468e-09
5.27704e-09
-1.66112e-09
6.52659e-10
8.68698e-11
-1.71901e-10
5.36207e-09
-1.57755e-10
6.00861e-09
-9.87567e-09
4.02482e-09
3.09191e-09
1.84321e-09
-4.40035e-09
3.13492e-09
4.38618e-11
-1.14919e-08
4.61567e-09
6.71852e-09
7.23329e-10
-7.91085e-09
-4.30442e-09
-2.96163e-09
9.55078e-09
-5.86582e-09
3.13403e-09
-4.25245e-09
-3.147e-09
-1.42982e-11
6.08843e-09
-2.92712e-09
-2.81183e-09
-3.75049e-10
3.98722e-11
4.85064e-09
4.45752e-09
2.42623e-10
2.95835e-10
2.72561e-11
-3.48226e-09
4.17755e-09
4.15535e-09
-5.23953e-11
3.89991e-09
5.17328e-09
8.06317e-09
1.05853e-10
-4.60836e-09
5.01445e-09
-5.11938e-10
3.47297e-09
-3.09195e-09
-2.7517e-10
-3.57784e-09
9.27002e-09
-5.74385e-09
5.16709e-11
-8.33857e-09
-9.37281e-10
3.60535e-09
5.6705e-09
2.16558e-09
2.63167e-09
-1.30751e-10
-4.6665e-09
2.97811e-09
-5.4209e-09
5.90585e-10
7.59446e-09
2.11059e-11
-8.20615e-09
4.20545e-10
5.18449e-09
-1.8374e-09
2.98363e-09
2.32674e-09
9.04986e-09
-3.00592e-09
-9.62178e-09
9.98131e-09
8.43089e-10
5.52355e-09
3.61466e-09
-1.25296e-10
-3.34987e-10
3.8137e-09
-3.70896e-09
4.73725e-09
-4.84199e-09
4.17553e-09
-4.87123e-10
-6.84563e-09
1.12636e-09
2.67361e-09
3.46449e-09
4.42012e-09
-2.38778e-09
1.96379e-09
-3.99612e-09
4.51942e-09
-5.9306e-11
-3.99986e-11
-5.97718e-09
6.04888e-09
4.62998e-09
-4.70168e-09
-2.14469e-10
-8.22347e-10
-4.94037e-09
-1.99084e-10
-7.20521e-09
5.01651e-09
4.83929e-09
-7.63513e-10
-2.11199e-09
4.34589e-09
5.01282e-09
-1.87764e-10
1.4989e-09
4.73774e-09
-2.72488e-09
3.60982e-09
1.17484e-08
-1.26333e-08
6.2498e-09
-9.17376e-09
-8.51134e-09
1.95173e-09
6.37184e-09
-7.3527e-09
-1.3731e-09
-5.27801e-10
6.37259e-09
5.25688e-09
-2.41056e-09
4.54447e-09
8.21001e-09
-1.0061e-09
3.44157e-09
-6.7187e-09
8.14263e-09
6.74818e-09
8.38774e-09
1.25298e-08
-6.35682e-09
-1.45607e-08
1.05373e-08
-6.16014e-11
-2.08798e-09
1.02479e-08
-6.32766e-09
-1.01399e-08
6.2197e-09
-2.67578e-10
2.41689e-10
1.02737e-08
-1.80641e-09
2.61162e-09
-7.46527e-09
6.66006e-09
1.70796e-08
7.38141e-09
-1.19312e-08
1.78572e-08
9.75968e-09
5.37765e-09
-5.91054e-10
-1.11434e-08
6.57828e-09
-1.26224e-09
-7.55193e-09
7.46112e-09
-1.76766e-10
-1.44706e-08
5.44128e-09
-6.64428e-12
1.94678e-09
6.03064e-09
1.72679e-08
6.69224e-09
-9.38373e-10
8.24415e-10
1.1065e-09
1.16164e-08
8.53296e-09
-4.2942e-09
-3.13226e-09
2.00173e-09
5.45275e-09
3.71408e-09
4.73357e-09
-2.06301e-09
-6.38464e-09
7.43125e-09
2.16585e-09
-5.88302e-09
-8.4452e-11
8.30145e-09
-9.24191e-09
1.02491e-09
-7.2508e-09
6.67476e-09
4.91586e-10
-1.56329e-09
1.74375e-09
3.14044e-09
2.98383e-11
-1.05488e-10
-1.19888e-09
9.60583e-09
-9.48435e-10
7.51771e-09
-8.26429e-10
-4.72606e-09
4.60405e-09
4.58214e-10
4.39325e-09
-5.67789e-09
-2.72086e-09
-4.35521e-09
8.24746e-09
-2.88756e-09
1.36296e-08
-1.89895e-08
9.96974e-09
-4.44314e-09
-7.55174e-09
6.81107e-09
-1.55783e-09
-2.77904e-11
5.80707e-09
-1.07576e-08
1.2491e-08
-1.19296e-10
1.25792e-09
1.4909e-08
-6.57329e-09
7.02678e-10
5.75131e-09
-5.87237e-09
5.10615e-09
6.45518e-11
-3.77164e-09
3.71817e-09
-1.10832e-11
3.75093e-09
-3.64417e-09
-4.21985e-11
1.33228e-09
4.57254e-09
-5.85522e-09
-4.96025e-11
5.4645e-09
6.98603e-11
4.44136e-09
6.62017e-10
-4.68633e-09
-4.17046e-10
1.62471e-10
4.31202e-09
-3.31282e-11
-4.51112e-09
4.7016e-09
-2.80158e-11
3.93445e-09
-5.81555e-09
1.91386e-09
-3.27549e-11
-1.25235e-09
4.95794e-09
2.28862e-10
-5.50736e-09
4.11385e-09
1.41163e-10
-1.19688e-09
4.81893e-09
-3.64351e-09
2.14619e-11
3.50611e-09
-4.59365e-09
-1.09344e-10
5.21236e-09
9.45992e-10
-6.19944e-09
4.10829e-11
5.80943e-09
-5.56227e-09
-4.1134e-10
1.64185e-10
-4.89414e-10
6.24582e-09
5.30213e-11
4.80423e-09
-8.12776e-11
4.48702e-09
-4.25778e-10
-4.21156e-09
1.5032e-10
-2.84692e-10
4.28505e-09
-3.98929e-09
-1.1066e-11
4.19322e-09
9.11059e-12
2.41335e-10
-3.879e-09
3.61086e-09
2.67981e-11
4.53462e-09
-4.30554e-09
1.22572e-11
-4.15528e-09
2.86846e-10
-1.05654e-11
3.50872e-09
2.21041e-10
-1.18901e-10
-1.31147e-10
-4.6735e-09