/*--------------------------------*- C++ -*----------------------------------*\
| =========                 |                                                 |
| \\      /  F ield         | OpenFOAM: The Open Source CFD Toolbox           |
|  \\    /   O peration     | Version:  v1612+                                |
|   \\  /    A nd           | Web:      www.OpenFOAM.com                      |
|    \\/     M anipulation  |                                                 |
\*---------------------------------------------------------------------------*/
FoamFile
{
    version     2.0;
    format      ascii;
    class       volVectorField;
    location    "50";
    object      U;
}
// * * * * * * * * * * * * * * * * * * * * * * * * * * * * * * * * * * * * * //

dimensions      [0 1 -1 0 0 0 0];

internalField   nonuniform List<vector> 
16799
(
(-0.750989 -0.275952 -0.420443)
(-0.627634 -0.245711 -0.305886)
(-0.617494 -0.251537 -0.301156)
(-0.62786 -0.255428 -0.297515)
(-0.527424 -0.222536 -0.210788)
(-0.546436 -0.234237 -0.236929)
(-0.627298 -0.258556 -0.30841)
(-0.615516 -0.266168 -0.307295)
(-0.553197 -0.261958 -0.271379)
(-0.508375 -0.244494 -0.237756)
(-0.500707 -0.232203 -0.220034)
(-0.558908 -0.26268 -0.271091)
(-0.542839 -0.250879 -0.251202)
(-0.498715 -0.256012 -0.23999)
(-0.457019 -0.233858 -0.206155)
(-0.497445 -0.241894 -0.221093)
(-0.49616 -0.237375 -0.198729)
(-0.479775 -0.233 -0.195906)
(-0.436197 -0.222462 -0.184967)
(-0.927318 -0.27777 -0.556402)
(-0.897389 -0.272333 -0.538053)
(-0.926711 -0.278821 -0.552667)
(-0.926097 -0.281022 -0.55381)
(-0.803127 -0.244076 -0.486053)
(-0.78747 -0.24459 -0.479982)
(-0.752609 -0.236208 -0.454393)
(-0.712097 -0.223268 -0.427616)
(-0.830069 -0.25934 -0.495737)
(-0.820793 -0.250371 -0.494799)
(-0.741954 -0.230224 -0.446959)
(-0.798611 -0.244721 -0.473951)
(-0.799623 -0.244566 -0.483747)
(-0.76105 -0.242879 -0.456458)
(-0.717006 -0.225354 -0.428044)
(-0.38528 -0.18696 -0.257996)
(-0.351996 -0.173576 -0.241718)
(-0.444208 -0.206695 -0.290149)
(-0.457184 -0.210933 -0.292883)
(-0.483157 -0.210384 -0.302102)
(-0.4222 -0.208365 -0.277656)
(-0.363297 -0.17932 -0.240106)
(-0.436889 -0.191992 -0.290265)
(-0.411277 -0.181505 -0.282903)
(-0.346916 -0.166046 -0.236666)
(-0.540759 -0.226578 -0.337223)
(-0.578353 -0.236938 -0.353799)
(-0.563064 -0.233557 -0.347847)
(-0.405525 -0.187512 -0.262208)
(-0.385997 -0.179111 -0.258781)
(-0.428172 -0.183527 -0.283446)
(-0.559086 -0.218787 -0.352552)
(-0.601321 -0.238279 -0.286136)
(-0.629571 -0.242528 -0.303392)
(-0.621548 -0.256114 -0.307607)
(-0.656362 -0.261109 -0.331247)
(-0.631805 -0.260339 -0.308518)
(-0.62983 -0.255834 -0.30423)
(-0.682073 -0.271767 -0.342309)
(-0.665829 -0.265477 -0.321751)
(-0.583752 -0.233404 -0.282443)
(-0.547972 -0.221932 -0.26521)
(-0.622085 -0.244862 -0.297149)
(-0.60857 -0.247997 -0.299394)
(-0.549875 -0.233175 -0.259302)
(-0.697802 -0.262734 -0.349709)
(-0.580143 -0.238316 -0.282696)
(-0.616621 -0.252303 -0.305256)
(-0.475447 -0.178361 -0.206352)
(-0.509258 -0.184659 -0.235072)
(-0.457852 -0.162142 -0.193962)
(-0.395209 -0.142748 -0.164638)
(-0.455449 -0.17162 -0.198608)
(-0.569713 -0.202038 -0.276448)
(-0.559709 -0.195332 -0.263471)
(-0.440031 -0.155057 -0.183119)
(-0.43636 -0.140976 -0.194518)
(-0.387502 -0.131685 -0.159951)
(-0.433891 -0.153884 -0.180845)
(-0.399843 -0.140848 -0.163078)
(-0.48184 -0.168343 -0.213539)
(-0.576288 -0.184387 -0.277183)
(-0.470365 -0.152635 -0.216629)
(-0.556138 -0.186472 -0.263731)
(-0.576416 -0.17944 -0.28265)
(-0.559476 -0.224112 -0.276735)
(-0.543672 -0.221179 -0.265331)
(-0.523441 -0.223178 -0.249702)
(-0.673165 -0.244207 -0.354914)
(-0.551574 -0.21 -0.268242)
(-0.563622 -0.216749 -0.268254)
(-0.593224 -0.23792 -0.301031)
(-0.561314 -0.223481 -0.282582)
(-0.636189 -0.227915 -0.320648)
(-0.693597 -0.242929 -0.356647)
(-0.573691 -0.228632 -0.285374)
(-0.578701 -0.225272 -0.297916)
(-0.703494 -0.273448 -0.3821)
(-0.666686 -0.255402 -0.351714)
(-0.630753 -0.234454 -0.330354)
(-0.726373 -0.248672 -0.389564)
(-0.676035 -0.246127 -0.343392)
(-0.704644 -0.267774 -0.376252)
(-0.816134 -0.286245 -0.461557)
(-0.67436 -0.252948 -0.355043)
(-0.812568 -0.275964 -0.465415)
(-0.826378 -0.282701 -0.46932)
(-0.842322 -0.297784 -0.478792)
(-0.704604 -0.264438 -0.380074)
(-0.744049 -0.254592 -0.411287)
(-0.750974 -0.262254 -0.408884)
(-0.671988 -0.23488 -0.350309)
(-0.584188 -0.21046 -0.304254)
(-0.518112 -0.185558 -0.274256)
(-0.726935 -0.253954 -0.402682)
(-0.719102 -0.251949 -0.389439)
(-0.734629 -0.243965 -0.39393)
(-0.715119 -0.257713 -0.376778)
(-0.569217 -0.207508 -0.293588)
(-0.590794 -0.225572 -0.309123)
(-0.534697 -0.193684 -0.282116)
(-0.636913 -0.233285 -0.331505)
(-0.584168 -0.220001 -0.30775)
(-0.53721 -0.196805 -0.284177)
(-0.523501 -0.18316 -0.322706)
(-0.542503 -0.190233 -0.334017)
(-0.374711 -0.127123 -0.234492)
(-0.33086 -0.113577 -0.210818)
(-0.520791 -0.178684 -0.317418)
(-0.420162 -0.150497 -0.262855)
(-0.448729 -0.15407 -0.278811)
(-0.416389 -0.138164 -0.255382)
(-0.417393 -0.14879 -0.259505)
(-0.514952 -0.171218 -0.31207)
(-0.508353 -0.179282 -0.321991)
(-0.473298 -0.153516 -0.290879)
(-0.436499 -0.150976 -0.264546)
(-0.384516 -0.117726 -0.229093)
(-0.415335 -0.124944 -0.245926)
(-0.38019 -0.129839 -0.239563)
(-0.34355 -0.113647 -0.213914)
(-0.39595 -0.143303 -0.247413)
(-0.328113 -0.107863 -0.196109)
(-0.32716 -0.116455 -0.202401)
(-0.869124 -0.287943 -0.481947)
(-0.946135 -0.304275 -0.523406)
(-0.986313 -0.310872 -0.552657)
(-0.995867 -0.314176 -0.562168)
(-0.924479 -0.299493 -0.512302)
(-0.857428 -0.293678 -0.469286)
(-1.0723 -0.3247 -0.60855)
(-1.09743 -0.331179 -0.624633)
(-0.841513 -0.28555 -0.481112)
(-0.821096 -0.274735 -0.470238)
(-0.855632 -0.288887 -0.488371)
(-0.814415 -0.277793 -0.454216)
(-0.825192 -0.280487 -0.465075)
(-0.912735 -0.302173 -0.527586)
(-0.887219 -0.295587 -0.518903)
(-1.01017 -0.316292 -0.582953)
(-0.978214 -0.314763 -0.565521)
(-1.06439 -0.332588 -0.610869)
(-0.998628 -0.324482 -0.56822)
(-0.987213 -0.310328 -0.566103)
(-0.911124 -0.297142 -0.515408)
(-0.894559 -0.295596 -0.512865)
(-0.6362 -0.156587 -0.288918)
(-0.722688 -0.177445 -0.378411)
(-0.546887 -0.182643 -0.222785)
(-0.534006 -0.178348 -0.215178)
(-0.535909 -0.179851 -0.217392)
(-0.626441 -0.160823 -0.283247)
(-0.595134 -0.169089 -0.251907)
(-0.625772 -0.187067 -0.284511)
(-0.554378 -0.179577 -0.221056)
(-0.557939 -0.17771 -0.223555)
(-0.647217 -0.202697 -0.297705)
(-0.53425 -0.137439 -0.259788)
(-0.575005 -0.148625 -0.262074)
(-0.597421 -0.151063 -0.273859)
(-0.610931 -0.127389 -0.311387)
(-0.560308 -0.134226 -0.267931)
(-0.643811 -0.157759 -0.331641)
(-0.603666 -0.146859 -0.288661)
(-0.594535 -0.136371 -0.292973)
(-0.623071 -0.134841 -0.311128)
(-0.602646 -0.156061 -0.286335)
(-0.58215 -0.134773 -0.280158)
(-0.71339 -0.169251 -0.384048)
(-0.664535 -0.136706 -0.365725)
(-0.744975 -0.158118 -0.40905)
(-0.664072 -0.145133 -0.335414)
(-0.707089 -0.172568 -0.369655)
(-0.806934 -0.187005 -0.452775)
(-0.762758 -0.169022 -0.421567)
(-0.628043 -0.230951 -0.384593)
(-0.600633 -0.228894 -0.376081)
(-0.653676 -0.228727 -0.40249)
(-0.617936 -0.227722 -0.379433)
(-0.581735 -0.22504 -0.365419)
(-0.559287 -0.222407 -0.352806)
(-0.569822 -0.219386 -0.353386)
(-0.514799 -0.211013 -0.326113)
(-0.594884 -0.235636 -0.375195)
(-0.535895 -0.219472 -0.338762)
(-0.582814 -0.241302 -0.372994)
(-0.62948 -0.246796 -0.395636)
(-0.756418 -0.265528 -0.468543)
(-0.763787 -0.262834 -0.469208)
(-0.623013 -0.239014 -0.379162)
(-0.569315 -0.235382 -0.365445)
(-0.724749 -0.268757 -0.448419)
(-0.703915 -0.263456 -0.433044)
(-0.764278 -0.270364 -0.47089)
(-0.764996 -0.281641 -0.475323)
(-0.796903 -0.284105 -0.500818)
(-0.737536 -0.279138 -0.465102)
(-0.868764 -0.294899 -0.477599)
(-0.909225 -0.306632 -0.512704)
(-0.984411 -0.312547 -0.561337)
(-0.854295 -0.301339 -0.46376)
(-0.890115 -0.298084 -0.485591)
(-0.903883 -0.297093 -0.502995)
(-0.966096 -0.308509 -0.535285)
(-0.915579 -0.297305 -0.509791)
(-0.985541 -0.310313 -0.553777)
(-0.968315 -0.306859 -0.551492)
(-0.994153 -0.303799 -0.577616)
(-0.939268 -0.298369 -0.522877)
(-1.0176 -0.310523 -0.59268)
(-1.08474 -0.323111 -0.636516)
(-0.98761 -0.299768 -0.560375)
(-0.348505 -0.0875488 -0.220361)
(-0.384537 -0.0918082 -0.235203)
(-0.455142 -0.114596 -0.313573)
(-0.46174 -0.103523 -0.296135)
(-0.392875 -0.101306 -0.253795)
(-0.364434 -0.109621 -0.270457)
(-0.338906 -0.105008 -0.244208)
(-0.484268 -0.105059 -0.302182)
(-0.441944 -0.107938 -0.310298)
(-0.869647 -0.258249 -0.518815)
(-0.853166 -0.278053 -0.519163)
(-0.880369 -0.235786 -0.536448)
(-0.875424 -0.24674 -0.535225)
(-0.846735 -0.273211 -0.520441)
(-0.924047 -0.254187 -0.571038)
(-0.955411 -0.243213 -0.594926)
(-0.93825 -0.250276 -0.597806)
(-0.917628 -0.275837 -0.576514)
(-0.95113 -0.277122 -0.612123)
(-0.894234 -0.278151 -0.564407)
(-0.875448 -0.273981 -0.553676)
(-0.612702 -0.143031 -0.275081)
(-0.557875 -0.128194 -0.229317)
(-0.678961 -0.16255 -0.346854)
(-0.781314 -0.176526 -0.424179)
(-0.752716 -0.174476 -0.401184)
(-0.630757 -0.150403 -0.28922)
(-0.591185 -0.145267 -0.263831)
(-0.621891 -0.143665 -0.289947)
(-0.526644 -0.161039 -0.208631)
(-0.516715 -0.149302 -0.199706)
(-0.677124 -0.189574 -0.333917)
(-0.601607 -0.169712 -0.274636)
(-0.567574 -0.158043 -0.247293)
(-0.520452 -0.148462 -0.204868)
(-0.539538 -0.167205 -0.218725)
(-0.698134 -0.266185 -0.408065)
(-0.710227 -0.262661 -0.399295)
(-0.715806 -0.268219 -0.422634)
(-0.650729 -0.257005 -0.381852)
(-0.583926 -0.227571 -0.347691)
(-0.688458 -0.259792 -0.406463)
(-0.58705 -0.229578 -0.341916)
(-0.615045 -0.239117 -0.358329)
(-0.57172 -0.230509 -0.338413)
(-0.589215 -0.232946 -0.340224)
(-0.735887 -0.254948 -0.431201)
(-0.673553 -0.246292 -0.395582)
(-0.680144 -0.251809 -0.402104)
(-0.739877 -0.256379 -0.446155)
(-0.653929 -0.244505 -0.391086)
(-0.664046 -0.250044 -0.386893)
(-0.551406 -0.229077 -0.325746)
(-0.631982 -0.235965 -0.372388)
(-0.971494 -0.310954 -0.567013)
(-0.891085 -0.284974 -0.518807)
(-0.995813 -0.32057 -0.565488)
(-1.03379 -0.311624 -0.606369)
(-1.09503 -0.325406 -0.634617)
(-1.06129 -0.319481 -0.624699)
(-0.998201 -0.30076 -0.585698)
(-0.932365 -0.296688 -0.548814)
(-0.909253 -0.291943 -0.543847)
(-0.988452 -0.302568 -0.580529)
(-1.08262 -0.329827 -0.628959)
(-1.0801 -0.333434 -0.614429)
(-0.905317 -0.278057 -0.538628)
(-0.950213 -0.305142 -0.554426)
(-1.0974 -0.332698 -0.635731)
(-1.10008 -0.334687 -0.624086)
(-0.489427 -0.189231 -0.338598)
(-0.372778 -0.160834 -0.276886)
(-0.45023 -0.175749 -0.313922)
(-0.417255 -0.185467 -0.301677)
(-0.532212 -0.208391 -0.364717)
(-0.578864 -0.216666 -0.387569)
(-0.456821 -0.182747 -0.313255)
(-0.455217 -0.182114 -0.313938)
(-0.530832 -0.191974 -0.391034)
(-0.558091 -0.195988 -0.377603)
(-0.557803 -0.203275 -0.389949)
(-0.57991 -0.200869 -0.389041)
(-0.704949 -0.218954 -0.461443)
(-0.586038 -0.212735 -0.3907)
(-0.56239 -0.204379 -0.384184)
(-0.724817 -0.231654 -0.474759)
(-0.707741 -0.214861 -0.456858)
(-0.5241 -0.179084 -0.360089)
(-0.568726 -0.181937 -0.386267)
(-0.632154 -0.216988 -0.343104)
(-0.656828 -0.234977 -0.362547)
(-0.559462 -0.204891 -0.291639)
(-0.546216 -0.20644 -0.284263)
(-0.630292 -0.220862 -0.340207)
(-0.627586 -0.218505 -0.330811)
(-0.51738 -0.185585 -0.269734)
(-0.558106 -0.201509 -0.284625)
(-0.629815 -0.221076 -0.346225)
(-0.511681 -0.190836 -0.261905)
(-0.465837 -0.173164 -0.238003)
(-0.526141 -0.197477 -0.272038)
(-0.624509 -0.215838 -0.338183)
(-0.549914 -0.192562 -0.285943)
(-0.561273 -0.199765 -0.298169)
(-0.468188 -0.174038 -0.24025)
(-0.556204 -0.198624 -0.290146)
(-0.517634 -0.189239 -0.268342)
(-0.656343 -0.197855 -0.379704)
(-0.632883 -0.184355 -0.367929)
(-0.551486 -0.160603 -0.316388)
(-0.514432 -0.160327 -0.308183)
(-0.589923 -0.174398 -0.336141)
(-0.532647 -0.167859 -0.313668)
(-0.549377 -0.170363 -0.334935)
(-0.579427 -0.183439 -0.363692)
(-0.55754 -0.16852 -0.332505)
(-0.579264 -0.171138 -0.348075)
(-0.596075 -0.18441 -0.366268)
(-0.614863 -0.187778 -0.375304)
(-0.609791 -0.150817 -0.275881)
(-0.503132 -0.136893 -0.189959)
(-0.469862 -0.143693 -0.167612)
(-0.49423 -0.159796 -0.184804)
(-0.3866 -0.129002 -0.285548)
(-0.366286 -0.111621 -0.268485)
(-0.355164 -0.121992 -0.267114)
(-0.29968 -0.116477 -0.228923)
(-0.376925 -0.129252 -0.283676)
(-0.49889 -0.140107 -0.345359)
(-0.478818 -0.143741 -0.329128)
(-0.34478 -0.13292 -0.264003)
(-0.454179 -0.146404 -0.335821)
(-0.472299 -0.16975 -0.354309)
(-0.49057 -0.145447 -0.349317)
(-0.489848 -0.15563 -0.358211)
(-0.377829 -0.155525 -0.292089)
(-0.466497 -0.162376 -0.348841)
(-0.348016 -0.155801 -0.27524)
(-0.385685 -0.164863 -0.302435)
(-0.494959 -0.16679 -0.369744)
(-0.513342 -0.189203 -0.200619)
(-0.545709 -0.187529 -0.226808)
(-0.483798 -0.16051 -0.180815)
(-0.482576 -0.16732 -0.183329)
(-0.510935 -0.144182 -0.191593)
(-0.476004 -0.146881 -0.180145)
(-0.428405 -0.147263 -0.155659)
(-0.486305 -0.175233 -0.183585)
(-0.432579 -0.150513 -0.156373)
(-0.562481 -0.147293 -0.248588)
(-0.497739 -0.161447 -0.190303)
(-0.564502 -0.16543 -0.247091)
(-0.449441 -0.120224 -0.17256)
(-0.406716 -0.113433 -0.158749)
(-0.436638 -0.10163 -0.189132)
(-0.399044 -0.106583 -0.159007)
(-0.609234 -0.143044 -0.293812)
(-0.473177 -0.129017 -0.189413)
(-0.450698 -0.125196 -0.170531)
(-0.452768 -0.100383 -0.198373)
(-0.427727 -0.0989544 -0.18524)
(-0.457009 -0.11012 -0.185567)
(-0.94459 -0.304842 -0.552891)
(-0.933769 -0.308444 -0.548572)
(-0.929529 -0.308003 -0.550144)
(-0.857729 -0.299993 -0.508863)
(-0.975513 -0.314853 -0.562763)
(-1.02774 -0.337518 -0.602617)
(-0.960974 -0.317346 -0.573129)
(-0.996099 -0.328362 -0.603316)
(-0.871591 -0.296378 -0.521927)
(-0.968527 -0.314442 -0.567809)
(-1.00966 -0.322877 -0.590659)
(-0.99577 -0.317285 -0.582419)
(-1.02456 -0.323754 -0.59888)
(-0.929139 -0.29964 -0.541328)
(-0.943481 -0.300898 -0.561482)
(-0.926721 -0.308473 -0.548636)
(-0.503088 -0.210857 -0.298975)
(-0.45812 -0.194919 -0.266314)
(-0.450853 -0.200146 -0.270697)
(-0.388282 -0.178697 -0.231376)
(-0.500756 -0.21936 -0.29855)
(-0.497164 -0.213621 -0.300958)
(-0.524318 -0.219331 -0.299955)
(-0.446342 -0.196105 -0.250759)
(-0.44459 -0.19972 -0.260776)
(-0.439237 -0.202373 -0.250605)
(-0.474282 -0.208686 -0.268541)
(-0.506517 -0.204765 -0.288181)
(-0.39985 -0.187754 -0.23604)
(-0.508612 -0.21485 -0.287995)
(-0.613579 -0.230479 -0.353788)
(-0.618383 -0.236153 -0.346185)
(-0.632723 -0.24181 -0.362345)
(-0.518311 -0.198713 -0.271858)
(-0.440184 -0.176745 -0.239956)
(-0.509052 -0.192875 -0.281681)
(-0.556156 -0.211936 -0.314488)
(-0.608313 -0.228925 -0.339098)
(-0.513179 -0.207272 -0.272893)
(-0.570305 -0.21917 -0.306772)
(-0.462775 -0.190609 -0.253371)
(-0.489042 -0.199283 -0.270037)
(-0.437886 -0.182532 -0.242364)
(-0.551178 -0.220045 -0.299374)
(-0.683713 -0.220467 -0.381429)
(-0.694117 -0.21739 -0.394445)
(-0.639945 -0.207104 -0.367441)
(-0.59349 -0.191959 -0.338951)
(-0.794501 -0.242773 -0.450559)
(-0.754524 -0.235048 -0.427852)
(-0.672324 -0.208526 -0.374718)
(-0.603788 -0.191783 -0.339377)
(-0.669746 -0.214392 -0.388906)
(-0.636291 -0.203471 -0.36643)
(-0.783878 -0.241107 -0.447651)
(-0.710648 -0.218905 -0.388918)
(-0.668966 -0.212392 -0.361428)
(-0.646251 -0.203625 -0.359433)
(-0.816167 -0.251436 -0.461155)
(-0.812873 -0.244627 -0.461198)
(-0.682391 -0.214579 -0.388379)
(-0.763194 -0.236786 -0.43571)
(-0.968773 -0.293311 -0.555593)
(-1.04875 -0.321708 -0.597604)
(-0.919605 -0.266803 -0.530069)
(-1.03702 -0.31527 -0.611949)
(-1.03228 -0.313887 -0.593849)
(-1.02976 -0.306337 -0.579642)
(-1.00741 -0.314173 -0.574523)
(-1.0373 -0.319116 -0.580656)
(-1.04066 -0.312034 -0.609785)
(-1.02789 -0.308737 -0.5847)
(-0.808283 -0.245855 -0.451381)
(-0.840777 -0.259092 -0.46934)
(-0.862707 -0.266439 -0.481326)
(-0.853728 -0.26703 -0.475831)
(-1.00089 -0.312404 -0.567975)
(-0.914787 -0.282763 -0.517377)
(-0.993201 -0.309967 -0.552915)
(-0.926982 -0.276657 -0.523616)
(-0.76875 -0.286517 -0.417508)
(-0.719921 -0.276834 -0.391196)
(-0.713403 -0.260916 -0.376136)
(-0.72766 -0.265479 -0.380778)
(-0.633319 -0.246764 -0.320919)
(-0.575309 -0.233893 -0.278814)
(-0.614344 -0.248591 -0.321779)
(-0.65066 -0.273899 -0.342623)
(-0.701405 -0.259149 -0.367281)
(-0.615806 -0.251389 -0.31125)
(-0.627759 -0.254673 -0.332129)
(-0.742414 -0.267726 -0.391895)
(-0.629738 -0.249755 -0.322128)
(-0.507842 -0.214332 -0.247046)
(-0.582326 -0.247112 -0.29417)
(-0.511631 -0.214806 -0.255784)
(-0.732721 -0.277369 -0.394979)
(-1.06473 -0.327174 -0.643538)
(-1.0662 -0.323557 -0.645396)
(-1.09965 -0.325403 -0.666056)
(-1.08364 -0.313596 -0.658516)
(-1.08676 -0.309917 -0.65872)
(-1.12584 -0.33848 -0.679066)
(-1.10455 -0.315379 -0.670671)
(-1.10752 -0.333209 -0.666098)
(-1.03171 -0.326298 -0.627727)
(-1.0452 -0.318413 -0.633931)
(-1.18418 -0.348056 -0.71752)
(-1.11756 -0.330529 -0.666037)
(-1.06054 -0.314773 -0.649577)
(-1.04287 -0.312889 -0.624283)
(-1.15799 -0.338492 -0.700048)
(-1.07436 -0.313313 -0.657757)
(-1.12235 -0.335977 -0.677586)
(-1.10209 -0.317248 -0.67415)
(-1.10842 -0.325737 -0.673868)
(-0.735826 -0.220895 -0.426044)
(-0.721904 -0.210261 -0.404411)
(-0.740893 -0.213181 -0.425675)
(-0.819229 -0.239901 -0.46806)
(-0.851617 -0.251931 -0.481424)
(-0.846699 -0.256067 -0.48561)
(-0.70537 -0.215404 -0.390137)
(-0.728782 -0.221818 -0.394518)
(-0.854987 -0.252609 -0.481253)
(-0.844085 -0.244873 -0.496567)
(-0.801874 -0.247153 -0.4619)
(-0.837164 -0.257843 -0.474586)
(-0.853654 -0.252024 -0.477691)
(-0.787964 -0.233102 -0.445136)
(-0.868523 -0.221429 -0.527776)
(-0.758774 -0.1884 -0.450422)
(-0.869358 -0.230268 -0.525231)
(-0.760433 -0.184889 -0.454578)
(-0.859799 -0.225233 -0.505481)
(-0.767805 -0.188106 -0.437819)
(-0.758851 -0.201263 -0.420502)
(-0.815977 -0.228181 -0.4614)
(-0.787056 -0.196308 -0.472811)
(-0.838366 -0.216998 -0.502098)
(-0.791295 -0.197826 -0.477247)
(-0.701516 -0.182325 -0.375252)
(-0.902018 -0.237848 -0.539318)
(-0.697288 -0.182093 -0.390876)
(-0.798585 -0.235787 -0.447749)
(-0.757852 -0.214274 -0.413879)
(-0.800506 -0.220327 -0.462563)
(-0.81953 -0.239666 -0.464802)
(-0.87062 -0.234363 -0.519997)
(-0.89942 -0.247465 -0.531272)
(-0.867294 -0.284451 -0.489049)
(-0.898783 -0.296064 -0.505421)
(-0.725583 -0.238996 -0.39888)
(-0.768311 -0.261838 -0.43509)
(-0.748207 -0.243847 -0.419234)
(-0.775478 -0.260856 -0.444539)
(-0.719283 -0.238814 -0.39965)
(-0.690795 -0.224941 -0.385287)
(-0.6539 -0.21968 -0.370759)
(-0.659006 -0.220485 -0.377455)
(-0.60536 -0.159336 -0.326613)
(-0.539651 -0.148044 -0.281395)
(-0.576468 -0.153808 -0.29563)
(-0.559088 -0.160607 -0.2938)
(-0.617135 -0.153994 -0.332754)
(-0.596581 -0.15575 -0.322894)
(-0.69759 -0.182848 -0.399094)
(-0.746649 -0.206085 -0.42354)
(-0.662569 -0.182481 -0.362815)
(-0.712668 -0.18806 -0.417404)
(-0.754291 -0.204601 -0.435422)
(-0.668319 -0.188959 -0.363213)
(-0.58314 -0.160917 -0.303117)
(-0.536883 -0.152041 -0.265945)
(-0.715839 -0.191968 -0.403557)
(-0.655967 -0.185171 -0.367474)
(-0.618136 -0.169459 -0.352511)
(-0.506715 -0.131743 -0.266637)
(-0.789172 -0.266567 -0.483988)
(-0.746685 -0.249366 -0.463858)
(-0.774116 -0.248728 -0.475947)
(-0.828986 -0.270328 -0.510453)
(-0.938199 -0.293977 -0.561211)
(-0.948204 -0.294115 -0.566865)
(-0.867598 -0.26659 -0.526331)
(-0.917428 -0.266579 -0.56024)
(-0.978443 -0.296009 -0.589095)
(-0.983814 -0.297273 -0.591018)
(-0.791316 -0.253173 -0.479298)
(-0.739001 -0.246031 -0.457856)
(-0.732576 -0.224304 -0.456253)
(-0.821509 -0.246455 -0.510074)
(-0.782883 -0.242275 -0.484065)
(-0.857269 -0.260326 -0.517784)
(-0.77307 -0.242408 -0.483082)
(-0.79658 -0.295296 -0.439397)
(-0.758546 -0.280099 -0.408356)
(-0.845219 -0.293076 -0.469551)
(-0.772507 -0.274756 -0.41705)
(-0.767744 -0.290116 -0.428565)
(-0.7727 -0.292643 -0.42636)
(-0.825369 -0.290723 -0.445226)
(-0.737102 -0.27655 -0.417164)
(-0.76868 -0.285764 -0.413919)
(-0.906208 -0.296276 -0.495908)
(-0.882178 -0.296083 -0.472863)
(-0.891932 -0.290961 -0.489508)
(-0.807688 -0.289297 -0.427381)
(-0.502578 -0.101157 -0.231388)
(-0.488083 -0.101358 -0.227921)
(-0.577899 -0.0997463 -0.282708)
(-0.404553 -0.0872898 -0.204616)
(-0.401949 -0.0855293 -0.215499)
(-0.606123 -0.11117 -0.330607)
(-0.550968 -0.0955457 -0.281599)
(-0.589176 -0.10631 -0.326505)
(-0.415208 -0.0842952 -0.230211)
(-0.521537 -0.108923 -0.311582)
(-0.500045 -0.098598 -0.299003)
(-0.601326 -0.101797 -0.349588)
(-0.522687 -0.108421 -0.304455)
(-0.557581 -0.10669 -0.325511)
(-0.993774 -0.324231 -0.61834)
(-0.93539 -0.299307 -0.573087)
(-0.978323 -0.307678 -0.592828)
(-0.86902 -0.312412 -0.526174)
(-0.826782 -0.303602 -0.498899)
(-0.981927 -0.305295 -0.595448)
(-0.972753 -0.316044 -0.576094)
(-0.951386 -0.319023 -0.572012)
(-0.876565 -0.31309 -0.515435)
(-0.957458 -0.312138 -0.564088)
(-1.00674 -0.322281 -0.582672)
(-1.05013 -0.325165 -0.627264)
(-1.05672 -0.341235 -0.634189)
(-0.973029 -0.312323 -0.563865)
(-0.916567 -0.288738 -0.518922)
(-0.923437 -0.294896 -0.524109)
(-0.878889 -0.309125 -0.512021)
(-0.871057 -0.30497 -0.511557)
(-0.84417 -0.290138 -0.472584)
(-0.862112 -0.301083 -0.487437)
(-0.989514 -0.312078 -0.56513)
(-0.894196 -0.302308 -0.518827)
(-0.876248 -0.299913 -0.503093)
(-0.849322 -0.295069 -0.477264)
(-0.922939 -0.310227 -0.533824)
(-0.910032 -0.305804 -0.522214)
(-0.906742 -0.297932 -0.523274)
(-0.9447 -0.315617 -0.527324)
(-0.663487 -0.227911 -0.304664)
(-0.702654 -0.244874 -0.33519)
(-0.803756 -0.266159 -0.407897)
(-0.85101 -0.259334 -0.452365)
(-0.642864 -0.228512 -0.291855)
(-0.759415 -0.236749 -0.37122)
(-0.847867 -0.267228 -0.458211)
(-0.697464 -0.22083 -0.345987)
(-0.63657 -0.206201 -0.302293)
(-0.687632 -0.242483 -0.319536)
(-0.768309 -0.264331 -0.400236)
(-0.659752 -0.215669 -0.317315)
(-0.723947 -0.22484 -0.369277)
(-0.808444 -0.261132 -0.43312)
(-0.813687 -0.262678 -0.433759)
(-0.681062 -0.223256 -0.327373)
(-0.808688 -0.25207 -0.431986)
(-0.567874 -0.202436 -0.362806)
(-0.502445 -0.18706 -0.331986)
(-0.559482 -0.202506 -0.372743)
(-0.519727 -0.183775 -0.346583)
(-0.376833 -0.156898 -0.262624)
(-0.402548 -0.164383 -0.288193)
(-0.402062 -0.169694 -0.27696)
(-0.356738 -0.154226 -0.243779)
(-0.372351 -0.150631 -0.256054)
(-0.345352 -0.142428 -0.241552)
(-0.408111 -0.158052 -0.277387)
(-0.407651 -0.17309 -0.286607)
(-0.388031 -0.142618 -0.262937)
(-0.426593 -0.159887 -0.293085)
(-0.516389 -0.171603 -0.339051)
(-0.32318 -0.138495 -0.225941)
(-0.434461 -0.158119 -0.292197)
(-0.375877 -0.142767 -0.251818)
(-0.827485 -0.249243 -0.469348)
(-0.788513 -0.243641 -0.445064)
(-0.900583 -0.274872 -0.508062)
(-1.00645 -0.306572 -0.572193)
(-0.8083 -0.255341 -0.454821)
(-0.793381 -0.245845 -0.45023)
(-0.96043 -0.297034 -0.541803)
(-0.845382 -0.25239 -0.477)
(-0.802068 -0.248246 -0.457378)
(-0.913474 -0.280251 -0.522762)
(-1.0153 -0.311068 -0.570459)
(-0.81059 -0.25381 -0.453367)
(-0.967307 -0.303655 -0.540558)
(-0.909618 -0.279672 -0.510154)
(-0.827931 -0.258951 -0.45762)
(-0.782957 -0.246385 -0.428575)
(-0.833996 -0.261802 -0.463874)
(-0.927054 -0.284909 -0.530058)
(-0.933173 -0.288651 -0.523482)
(-0.873462 -0.272333 -0.491887)
(-0.680461 -0.222848 -0.402216)
(-0.577961 -0.195547 -0.34481)
(-0.65413 -0.214414 -0.387057)
(-0.557874 -0.180033 -0.329257)
(-0.560628 -0.197397 -0.336685)
(-0.549509 -0.19058 -0.322469)
(-0.582142 -0.206311 -0.347815)
(-0.617147 -0.219558 -0.367117)
(-0.745179 -0.256056 -0.443444)
(-0.715081 -0.248981 -0.432258)
(-0.748895 -0.247796 -0.427759)
(-0.665383 -0.216101 -0.39955)
(-0.763355 -0.244789 -0.447622)
(-0.747291 -0.244482 -0.436158)
(-0.754163 -0.255463 -0.447898)
(-0.672408 -0.233085 -0.404154)
(-0.63064 -0.215283 -0.375446)
(-0.599915 -0.198797 -0.357175)
(-0.661866 -0.213472 -0.389683)
(-0.498206 -0.173981 -0.291481)
(-0.565517 -0.191491 -0.334589)
(-0.537236 -0.185944 -0.318488)
(-1.05359 -0.313134 -0.617921)
(-1.08505 -0.318582 -0.639313)
(-0.980108 -0.306985 -0.556038)
(-0.972794 -0.299535 -0.550318)
(-1.00686 -0.295809 -0.592564)
(-1.06533 -0.311355 -0.628344)
(-1.09292 -0.320382 -0.64206)
(-0.95238 -0.29343 -0.530287)
(-0.87906 -0.275794 -0.504814)
(-0.922748 -0.27769 -0.525835)
(-1.08052 -0.327311 -0.623257)
(-0.928346 -0.280796 -0.517754)
(-1.1883 -0.358663 -0.733423)
(-1.0398 -0.292577 -0.624213)
(-1.05085 -0.311448 -0.627387)
(-0.907448 -0.27587 -0.520223)
(-0.887646 -0.267097 -0.507521)
(-1.03533 -0.298498 -0.620393)
(-0.859693 -0.241749 -0.490668)
(-0.915897 -0.263087 -0.528001)
(-0.539154 -0.223093 -0.230446)
(-0.480903 -0.21878 -0.191606)
(-0.538551 -0.255487 -0.252774)
(-0.47406 -0.235146 -0.203137)
(-0.523814 -0.223804 -0.221812)
(-0.546028 -0.233894 -0.236488)
(-0.56096 -0.249322 -0.270725)
(-0.509963 -0.233181 -0.216682)
(-0.65972 -0.238072 -0.321762)
(-0.67059 -0.247964 -0.336914)
(-0.638974 -0.241221 -0.296764)
(-0.554137 -0.235778 -0.242379)
(-0.780638 -0.263233 -0.399859)
(-0.698904 -0.258771 -0.355505)
(-0.78922 -0.291944 -0.417938)
(-0.783576 -0.292905 -0.417375)
(-0.670852 -0.255619 -0.335334)
(-0.676587 -0.26846 -0.327823)
(-0.704404 -0.250796 -0.340512)
(-0.717271 -0.263611 -0.35293)
(-0.812055 -0.273052 -0.426751)
(-0.834134 -0.270824 -0.440025)
(-0.777245 -0.259851 -0.403063)
(-0.90997 -0.287534 -0.500051)
(-0.91445 -0.291315 -0.501823)
(-0.647135 -0.260705 -0.313977)
(-0.787569 -0.271872 -0.404816)
(-0.77353 -0.283768 -0.426265)
(-0.776301 -0.275642 -0.417327)
(-0.968374 -0.295607 -0.546899)
(-1.00212 -0.308401 -0.569685)
(-0.963047 -0.306776 -0.529264)
(-0.845076 -0.272947 -0.470715)
(-0.868305 -0.275176 -0.481248)
(-1.0509 -0.311664 -0.602649)
(-0.948631 -0.285853 -0.536916)
(-1.01999 -0.310855 -0.580095)
(-1.02144 -0.313777 -0.579998)
(-1.00049 -0.309511 -0.559368)
(-0.930091 -0.283976 -0.512767)
(-0.868637 -0.275434 -0.485683)
(-0.914688 -0.285958 -0.513609)
(-0.940712 -0.289231 -0.526794)
(-0.951569 -0.303326 -0.534666)
(-0.836288 -0.274519 -0.455948)
(-0.996194 -0.30503 -0.580992)
(-1.06858 -0.331372 -0.63387)
(-1.0791 -0.324163 -0.638443)
(-1.08073 -0.324057 -0.638113)
(-1.01246 -0.311146 -0.602521)
(-1.04579 -0.319134 -0.620936)
(-0.910094 -0.273517 -0.541683)
(-1.06876 -0.317329 -0.63667)
(-1.05392 -0.317568 -0.639324)
(-1.06301 -0.320335 -0.636323)
(-0.980595 -0.295239 -0.589288)
(-1.06396 -0.32147 -0.640765)
(-0.676306 -0.275088 -0.41548)
(-0.558094 -0.253235 -0.337251)
(-0.544682 -0.258205 -0.329234)
(-0.562959 -0.254272 -0.346792)
(-0.529629 -0.258209 -0.299905)
(-0.562232 -0.269934 -0.318053)
(-0.577226 -0.266937 -0.33126)
(-0.66463 -0.284969 -0.383863)
(-0.64495 -0.271128 -0.388219)
(-0.584397 -0.259635 -0.350474)
(-0.676027 -0.274524 -0.406079)
(-0.535462 -0.254471 -0.321627)
(-0.517593 -0.249013 -0.308656)
(-0.57549 -0.264947 -0.333193)
(-0.668802 -0.28992 -0.390603)
(-0.529332 -0.261709 -0.304627)
(-0.492435 -0.24605 -0.281371)
(-0.520314 -0.250768 -0.310619)
(-0.472829 -0.238657 -0.280184)
(-0.481295 -0.192013 -0.20515)
(-0.512682 -0.193514 -0.22952)
(-0.595049 -0.208097 -0.282015)
(-0.489491 -0.193809 -0.210102)
(-0.426861 -0.169494 -0.179234)
(-0.606272 -0.207135 -0.305689)
(-0.574605 -0.200859 -0.28346)
(-0.617864 -0.214095 -0.299518)
(-0.608153 -0.219152 -0.29013)
(-0.480698 -0.166743 -0.210496)
(-0.409151 -0.157718 -0.163292)
(-0.509854 -0.196676 -0.226073)
(-0.460389 -0.172186 -0.18943)
(-0.398672 -0.123504 -0.251594)
(-0.434598 -0.130454 -0.26282)
(-0.400519 -0.122633 -0.234274)
(-0.4133 -0.121791 -0.251478)
(-0.360579 -0.110939 -0.209967)
(-0.39051 -0.10859 -0.212745)
(-0.346713 -0.104615 -0.196412)
(-0.420303 -0.123068 -0.245658)
(-0.413558 -0.124043 -0.237656)
(-0.368902 -0.10904 -0.215475)
(-0.627392 -0.227376 -0.386617)
(-0.751699 -0.262232 -0.454769)
(-0.612473 -0.230195 -0.385207)
(-0.531966 -0.213644 -0.337245)
(-0.654064 -0.23331 -0.406109)
(-0.723327 -0.258169 -0.445919)
(-0.615649 -0.238212 -0.37987)
(-0.575214 -0.223673 -0.360488)
(-0.754482 -0.264058 -0.458214)
(-0.715324 -0.258072 -0.44516)
(-0.583726 -0.233956 -0.368995)
(-0.519427 -0.213805 -0.329463)
(-0.729755 -0.266118 -0.445852)
(-0.616213 -0.234732 -0.384034)
(-0.587987 -0.25356 -0.313957)
(-0.566626 -0.235006 -0.31188)
(-0.605506 -0.249655 -0.309171)
(-0.549241 -0.221839 -0.286276)
(-0.623887 -0.247907 -0.345013)
(-0.640009 -0.246834 -0.359743)
(-0.580765 -0.252988 -0.312443)
(-0.612065 -0.256086 -0.329541)
(-0.793868 -0.278174 -0.451821)
(-0.798797 -0.274652 -0.460001)
(-0.79595 -0.280437 -0.457684)
(-0.827363 -0.294037 -0.457923)
(-0.686963 -0.275428 -0.385394)
(-0.699654 -0.273915 -0.397891)
(-0.631215 -0.257262 -0.356146)
(-0.773669 -0.282708 -0.424252)
(-0.701673 -0.269167 -0.386703)
(-0.50654 -0.172626 -0.247788)
(-0.5316 -0.192317 -0.27376)
(-0.641928 -0.21688 -0.33054)
(-0.657097 -0.2165 -0.337444)
(-0.47626 -0.159333 -0.235503)
(-0.469792 -0.162321 -0.232204)
(-0.431742 -0.140639 -0.214112)
(-0.64404 -0.203257 -0.329986)
(-0.650111 -0.209944 -0.342576)
(-0.632623 -0.195158 -0.324556)
(-0.613867 -0.198118 -0.308954)
(-0.510713 -0.173863 -0.253553)
(-0.438329 -0.148529 -0.209311)
(-0.618197 -0.197448 -0.306166)
(-0.475177 -0.163791 -0.228074)
(-0.513805 -0.172645 -0.254917)
(-0.478996 -0.154551 -0.23132)
(-0.501617 -0.167626 -0.242543)
(-0.482992 -0.217876 -0.28746)
(-0.449052 -0.208836 -0.262638)
(-0.488779 -0.223712 -0.284419)
(-0.511123 -0.231382 -0.299727)
(-0.613222 -0.24948 -0.367928)
(-0.618087 -0.255437 -0.372764)
(-0.519031 -0.230797 -0.308362)
(-0.53551 -0.234139 -0.31137)
(-0.647951 -0.25759 -0.378617)
(-0.591733 -0.249664 -0.34222)
(-0.620618 -0.257181 -0.355074)
(-0.653724 -0.256476 -0.374638)
(-0.617455 -0.245321 -0.366518)
(-0.475674 -0.219753 -0.274438)
(-0.434222 -0.201629 -0.246815)
(-0.522742 -0.234035 -0.30743)
(-0.515204 -0.22987 -0.299471)
(-0.476576 -0.225942 -0.273611)
(-0.58798 -0.229922 -0.338843)
(-0.555155 -0.222417 -0.320616)
(-0.694377 -0.252744 -0.39922)
(-0.661238 -0.249838 -0.3755)
(-0.730124 -0.251922 -0.415366)
(-0.757826 -0.263906 -0.424399)
(-0.541448 -0.22319 -0.308933)
(-0.546814 -0.211635 -0.314779)
(-0.48139 -0.199721 -0.276887)
(-0.656498 -0.234579 -0.375695)
(-0.714856 -0.258176 -0.422356)
(-0.702829 -0.257164 -0.393331)
(-0.683248 -0.243773 -0.381275)
(-0.52198 -0.202752 -0.301882)
(-0.501732 -0.192549 -0.295569)
(-0.587959 -0.231329 -0.344285)