/*--------------------------------*- C++ -*----------------------------------*\
| =========                 |                                                 |
| \\      /  F ield         | OpenFOAM: The Open Source CFD Toolbox           |
|  \\    /   O peration     | Version:  v1612+                                |
|   \\  /    A nd           | Web:      www.OpenFOAM.com                      |
|    \\/     M anipulation  |                                                 |
\*---------------------------------------------------------------------------*/
FoamFile
{
    version     2.0;
    format      ascii;
    class       volVectorField;
    location    "200";
    object      U;
}
// * * * * * * * * * * * * * * * * * * * * * * * * * * * * * * * * * * * * * //

dimensions      [0 1 -1 0 0 0 0];

internalField   nonuniform List<vector> 
16982
(
(-0.258726 0.31453 -0.579768)
(-0.265078 0.325996 -0.612479)
(-0.308332 0.37392 -0.666026)
(-0.290201 0.35353 -0.664354)
(-0.287081 0.356725 -0.65138)
(-0.367314 0.451388 -0.820994)
(-0.359607 0.445317 -0.804256)
(-0.353926 0.429251 -0.782828)
(-0.351111 0.427005 -0.775817)
(-0.368116 0.45185 -0.818052)
(-0.364521 0.446154 -0.807618)
(-0.371921 0.454575 -0.828125)
(-0.369651 0.453254 -0.819931)
(-0.368111 0.44738 -0.813068)
(-0.367828 0.449377 -0.815421)
(-0.369071 0.443924 -0.808422)
(-0.367003 0.449043 -0.816676)
(-0.357287 0.434313 -0.796441)
(-0.371997 0.45349 -0.826926)
(-0.371141 0.453354 -0.826726)
(-0.358993 0.4364 -0.791857)
(-0.363886 0.444964 -0.804824)
(-0.36674 0.444073 -0.803594)
(-0.365155 0.443497 -0.799043)
(-0.360725 0.44378 -0.803432)
(-0.350566 0.432353 -0.780193)
(-0.358594 0.432204 -0.782283)
(-0.365794 0.452076 -0.816518)
(-0.262141 0.309462 -0.597792)
(-0.23663 0.284648 -0.538357)
(-0.275103 0.321454 -0.61431)
(-0.255609 0.307778 -0.572387)
(-0.306132 0.36185 -0.679717)
(-0.302566 0.35606 -0.67086)
(-0.280534 0.32979 -0.626977)
(-0.283407 0.339763 -0.630862)
(-0.30271 0.362159 -0.677696)
(-0.304583 0.358092 -0.67598)
(-0.268118 0.32018 -0.598509)
(-0.244222 0.293262 -0.55111)
(-0.275647 0.326548 -0.615411)
(-0.283892 0.347075 -0.631392)
(-0.270467 0.333766 -0.608836)
(-0.274645 0.339299 -0.611986)
(-0.279458 0.346131 -0.62066)
(-0.267517 0.326316 -0.602911)
(-0.311452 0.379703 -0.68849)
(-0.351767 0.430684 -0.780143)
(-0.345859 0.427244 -0.770343)
(-0.323582 0.39855 -0.71963)
(-0.285765 0.341393 -0.624377)
(-0.287572 0.341445 -0.62486)
(-0.321765 0.393662 -0.714653)
(-0.345664 0.422526 -0.769017)
(-0.35476 0.435042 -0.791651)
(-0.307116 0.384366 -0.697346)
(-0.331207 0.406092 -0.736828)
(-0.31199 0.378326 -0.690067)
(-0.324284 0.400632 -0.752155)
(-0.324034 0.40028 -0.75271)
(-0.317784 0.395046 -0.741123)
(-0.315999 0.390144 -0.733696)
(-0.316637 0.390719 -0.742813)
(-0.325901 0.405145 -0.754061)
(-0.322556 0.402765 -0.752077)
(-0.298685 0.371577 -0.699787)
(-0.306083 0.375372 -0.703689)
(-0.320613 0.395049 -0.742128)
(-0.309074 0.386431 -0.720227)
(-0.314819 0.395076 -0.730664)
(-0.285509 0.35442 -0.675039)
(-0.317471 0.396351 -0.74343)
(-0.320197 0.401072 -0.746708)
(-0.313639 0.389474 -0.728085)
(-0.349701 0.43125 -0.798535)
(-0.349746 0.434676 -0.797158)
(-0.345852 0.430639 -0.794106)
(-0.349205 0.432271 -0.797749)
(-0.347456 0.431195 -0.7909)
(-0.357473 0.441723 -0.807311)
(-0.354681 0.438646 -0.808537)
(-0.358505 0.441716 -0.810794)
(-0.35671 0.442126 -0.808671)
(-0.354684 0.441757 -0.805639)
(-0.354986 0.439003 -0.804936)
(-0.359819 0.444089 -0.816159)
(-0.3511 0.435716 -0.801982)
(-0.3491 0.432926 -0.796383)
(-0.348207 0.429528 -0.787544)
(-0.352213 0.438657 -0.805819)
(-0.358786 0.446247 -0.813652)
(-0.35561 0.438288 -0.807711)
(-0.340849 0.419773 -0.753284)
(-0.343086 0.426761 -0.7716)
(-0.348006 0.429689 -0.771063)
(-0.349971 0.432176 -0.77972)
(-0.346128 0.425801 -0.772641)
(-0.344471 0.425217 -0.760184)
(-0.347652 0.432986 -0.775613)
(-0.347394 0.430503 -0.763714)
(-0.347543 0.430353 -0.773021)
(-0.34994 0.433516 -0.777507)
(-0.347147 0.432977 -0.774614)
(-0.342577 0.422308 -0.761058)
(-0.34167 0.425056 -0.763291)
(-0.345073 0.432856 -0.77392)
(-0.347708 0.435038 -0.778579)
(-0.351658 0.435674 -0.784536)
(-0.346561 0.43528 -0.778123)
(-0.352137 0.433038 -0.779859)
(-0.365566 0.445298 -0.810015)
(-0.362208 0.435325 -0.790692)
(-0.330938 0.405521 -0.737533)
(-0.335963 0.4132 -0.746199)
(-0.31988 0.389518 -0.705526)
(-0.311429 0.378201 -0.683913)
(-0.347506 0.419456 -0.760941)
(-0.346555 0.417074 -0.751245)
(-0.358178 0.440391 -0.792)
(-0.331057 0.405251 -0.739019)
(-0.325538 0.397508 -0.713725)
(-0.321138 0.390246 -0.704295)
(-0.324236 0.400649 -0.725047)
(-0.328222 0.398288 -0.719308)
(-0.344471 0.415045 -0.749905)
(-0.352854 0.428779 -0.777928)
(-0.355805 0.426415 -0.796143)
(-0.354628 0.423416 -0.791421)
(-0.354709 0.421242 -0.786952)
(-0.358838 0.434538 -0.799451)
(-0.353695 0.432135 -0.796475)
(-0.354865 0.432337 -0.800923)
(-0.360554 0.432432 -0.797315)
(-0.354875 0.423861 -0.790365)
(-0.356278 0.425974 -0.788561)
(-0.355061 0.426543 -0.792844)
(-0.355402 0.428676 -0.794131)
(-0.357268 0.428075 -0.794387)
(-0.356173 0.427399 -0.791871)
(-0.335193 0.421266 -0.758474)
(-0.328586 0.418629 -0.75822)
(-0.329738 0.417794 -0.755751)
(-0.334139 0.424505 -0.765304)
(-0.330741 0.420671 -0.762163)
(-0.332377 0.419288 -0.764601)
(-0.332966 0.419762 -0.763115)
(-0.326394 0.413707 -0.754781)
(-0.326931 0.415608 -0.755946)
(-0.33383 0.418467 -0.756194)
(-0.330262 0.415517 -0.758359)
(-0.329928 0.417136 -0.75485)
(-0.328737 0.420165 -0.767537)
(-0.32806 0.409571 -0.749856)
(-0.327288 0.4177 -0.762268)
(-0.328127 0.414568 -0.75669)
(-0.332993 0.410273 -0.757513)
(-0.280282 0.345253 -0.634131)
(-0.282456 0.345804 -0.643799)
(-0.331275 0.411969 -0.764142)
(-0.322215 0.406136 -0.739943)
(-0.323435 0.406883 -0.748607)
(-0.31921 0.390816 -0.724484)
(-0.324627 0.403649 -0.743971)
(-0.285467 0.352556 -0.648582)
(-0.281618 0.352552 -0.652919)
(-0.298854 0.3767 -0.684594)
(-0.306318 0.378035 -0.69908)
(-0.317249 0.392439 -0.729037)
(-0.309826 0.38316 -0.711197)
(-0.279316 0.334902 -0.611237)
(-0.272642 0.328009 -0.606243)
(-0.2604 0.321053 -0.586271)
(-0.236659 0.30031 -0.542487)
(-0.309235 0.371877 -0.679632)
(-0.277244 0.335933 -0.609578)
(-0.312537 0.375654 -0.683256)
(-0.313929 0.38311 -0.698139)
(-0.260428 0.314499 -0.573856)
(-0.298502 0.368814 -0.675679)
(-0.263561 0.321074 -0.577432)
(-0.252866 0.315268 -0.574824)
(-0.247576 0.318001 -0.563833)
(-0.341616 0.41189 -0.774172)
(-0.344619 0.417361 -0.783404)
(-0.343811 0.413297 -0.775313)
(-0.346552 0.418663 -0.784279)
(-0.346781 0.416341 -0.784431)
(-0.34526 0.415993 -0.781066)
(-0.335538 0.401232 -0.755451)
(-0.343865 0.410799 -0.775122)
(-0.338781 0.407837 -0.762305)
(-0.34234 0.413228 -0.774379)
(-0.339383 0.403852 -0.762755)
(-0.330184 0.39653 -0.748053)
(-0.329474 0.394084 -0.74109)
(-0.332539 0.396045 -0.750417)
(-0.352967 0.417735 -0.767146)
(-0.346011 0.405943 -0.751103)
(-0.358653 0.427032 -0.787658)
(-0.353073 0.424006 -0.777573)
(-0.340971 0.406388 -0.739996)
(-0.362791 0.429988 -0.797604)
(-0.358526 0.426735 -0.786111)
(-0.339356 0.402119 -0.738072)
(-0.36404 0.43339 -0.801047)
(-0.357846 0.426004 -0.785396)
(-0.363624 0.434641 -0.79885)
(-0.364904 0.431755 -0.797344)
(-0.274524 0.336407 -0.621474)
(-0.268528 0.31517 -0.597504)
(-0.279346 0.340146 -0.641413)
(-0.266057 0.312974 -0.605696)
(-0.253788 0.315012 -0.578365)
(-0.252863 0.304409 -0.572918)
(-0.302714 0.375311 -0.686697)
(-0.283735 0.339128 -0.633564)
(-0.273138 0.317568 -0.6168)
(-0.298407 0.359825 -0.667465)
(-0.321376 0.39293 -0.723822)
(-0.305009 0.367191 -0.686994)
(-0.234864 0.292746 -0.527388)
(-0.296447 0.349763 -0.658346)
(-0.309175 0.376393 -0.697963)
(-0.256146 0.310643 -0.58401)
(-0.232862 0.291229 -0.536093)
(-0.248922 0.306288 -0.562506)
(-0.298239 0.363657 -0.672472)
(-0.253176 0.30506 -0.565452)
(-0.267151 0.324692 -0.610058)
(-0.265871 0.318673 -0.593573)
(-0.333035 0.410913 -0.766271)
(-0.336347 0.414187 -0.771565)
(-0.335937 0.41546 -0.77322)
(-0.315175 0.394513 -0.727546)
(-0.322851 0.399765 -0.743074)
(-0.32546 0.406586 -0.752128)
(-0.307313 0.38297 -0.696222)
(-0.311134 0.388312 -0.714817)
(-0.331892 0.412491 -0.762819)
(-0.324316 0.410874 -0.754891)
(-0.325376 0.406399 -0.747672)
(-0.314972 0.403533 -0.730645)
(-0.300161 0.379803 -0.696145)
(-0.317934 0.409784 -0.737778)
(-0.321961 0.412482 -0.748305)
(-0.283147 0.357996 -0.650259)
(-0.261046 0.332469 -0.602676)
(-0.320988 0.407271 -0.739557)
(-0.319486 0.402936 -0.730832)
(-0.290936 0.371561 -0.679688)
(-0.315004 0.400291 -0.724816)
(-0.298419 0.377631 -0.685783)
(-0.285814 0.366825 -0.674356)
(-0.292455 0.371106 -0.66887)
(-0.277216 0.353797 -0.644825)
(-0.273483 0.345485 -0.628877)
(-0.258736 0.330289 -0.601084)
(-0.294367 0.37861 -0.677923)
(-0.323063 0.415908 -0.744282)
(-0.320229 0.405882 -0.723589)
(-0.300415 0.378531 -0.682568)
(-0.275101 0.347599 -0.627397)
(-0.290293 0.369566 -0.667889)
(-0.284266 0.359224 -0.645455)
(-0.317339 0.405049 -0.730599)
(-0.321504 0.416347 -0.740622)
(-0.326744 0.420616 -0.750211)
(-0.316666 0.403197 -0.725604)
(-0.29178 0.367463 -0.66158)
(-0.325072 0.417683 -0.749378)
(-0.32538 0.419601 -0.745484)
(-0.334181 0.422168 -0.755707)
(-0.327305 0.414259 -0.72932)
(-0.335698 0.428569 -0.759327)
(-0.327285 0.422054 -0.7466)
(-0.322845 0.416339 -0.733825)
(-0.312285 0.399555 -0.706191)
(-0.337278 0.425441 -0.758121)
(-0.330317 0.417016 -0.740746)
(-0.332392 0.425645 -0.752589)
(-0.328263 0.421708 -0.739817)
(-0.306424 0.3834 -0.695253)
(-0.313611 0.390637 -0.707218)
(-0.320362 0.409759 -0.720246)
(-0.258129 0.305736 -0.56565)
(-0.290329 0.343337 -0.642753)
(-0.256817 0.304649 -0.570281)
(-0.232214 0.275109 -0.500059)
(-0.313534 0.376689 -0.693157)
(-0.279979 0.326224 -0.611089)
(-0.324948 0.378601 -0.707527)
(-0.279361 0.339168 -0.621654)
(-0.263945 0.319629 -0.580089)
(-0.286055 0.345919 -0.635647)
(-0.314015 0.374178 -0.690781)
(-0.273503 0.315761 -0.589084)
(-0.250445 0.303917 -0.55645)
(-0.24708 0.29 -0.533775)
(-0.259035 0.307451 -0.564368)
(-0.231737 0.266347 -0.501003)
(-0.31877 0.380317 -0.706618)
(-0.271983 0.324326 -0.596372)
(-0.316829 0.378079 -0.701937)
(-0.262253 0.315476 -0.581321)
(-0.235859 0.278187 -0.514995)
(-0.330729 0.400423 -0.727125)
(-0.308652 0.36992 -0.682382)
(-0.268193 0.325141 -0.591367)
(-0.25516 0.300705 -0.559042)
(-0.240733 0.283083 -0.53275)
(-0.275714 0.33902 -0.608995)
(-0.270445 0.328679 -0.579093)
(-0.319586 0.378166 -0.699851)
(-0.304696 0.368356 -0.683375)
(-0.26755 0.321649 -0.58373)
(-0.259113 0.312089 -0.568954)
(-0.310872 0.371409 -0.683811)
(-0.27243 0.32675 -0.594842)
(-0.259929 0.316358 -0.573864)
(-0.315512 0.386755 -0.725151)
(-0.330911 0.411651 -0.759604)
(-0.324429 0.405306 -0.750561)
(-0.333805 0.415229 -0.768662)
(-0.318828 0.396388 -0.744739)
(-0.309307 0.380321 -0.70531)
(-0.26288 0.318693 -0.597789)
(-0.308176 0.383635 -0.717954)
(-0.313412 0.382271 -0.713221)
(-0.278969 0.348156 -0.638203)
(-0.305104 0.384572 -0.708517)
(-0.330243 0.400756 -0.755194)
(-0.330626 0.400366 -0.757755)
(-0.329881 0.397551 -0.75388)
(-0.30237 0.371234 -0.699416)
(-0.317707 0.390851 -0.733941)
(-0.314198 0.388238 -0.726331)
(-0.297245 0.35979 -0.693335)
(-0.318686 0.386966 -0.729481)
(-0.311303 0.375195 -0.716085)
(-0.321273 0.387995 -0.735712)
(-0.311393 0.378629 -0.71711)
(-0.319941 0.394762 -0.738746)
(-0.317825 0.388652 -0.736973)
(-0.323885 0.395866 -0.746233)
(-0.325806 0.399419 -0.752935)
(-0.302575 0.365754 -0.701477)
(-0.301853 0.368978 -0.696024)
(-0.311522 0.379777 -0.719756)
(-0.329309 0.401305 -0.758765)
(-0.347362 0.429113 -0.780199)
(-0.348567 0.426771 -0.777181)
(-0.352879 0.441606 -0.793351)
(-0.353677 0.438381 -0.791832)
(-0.356052 0.442222 -0.7947)
(-0.350248 0.43688 -0.783319)
(-0.353004 0.432792 -0.785499)
(-0.352443 0.440627 -0.789903)
(-0.350954 0.435493 -0.786014)
(-0.348684 0.430375 -0.776704)
(-0.348245 0.433852 -0.781371)
(-0.348748 0.427402 -0.775188)
(-0.350668 0.434059 -0.781264)
(-0.349657 0.424679 -0.77917)
(-0.35178 0.427104 -0.780719)
(-0.346255 0.430076 -0.781823)
(-0.35103 0.436936 -0.789593)
(-0.350185 0.436946 -0.790837)
(-0.347047 0.427525 -0.783057)
(-0.353772 0.433807 -0.787949)
(-0.352737 0.43371 -0.783155)
(-0.348694 0.42988 -0.77698)
(-0.349809 0.431328 -0.781047)
(-0.354468 0.432698 -0.779889)
(-0.352347 0.431854 -0.783118)
(-0.306491 0.3777 -0.710809)
(-0.298008 0.374154 -0.695928)
(-0.326229 0.405965 -0.750302)
(-0.314296 0.391619 -0.728803)
(-0.321799 0.400197 -0.743533)
(-0.325735 0.405368 -0.750516)
(-0.309974 0.383492 -0.717604)
(-0.302246 0.379499 -0.711293)
(-0.318331 0.386896 -0.732586)
(-0.318422 0.387516 -0.730712)
(-0.335883 0.413192 -0.767616)
(-0.318897 0.390793 -0.736182)
(-0.334711 0.416307 -0.772137)
(-0.336011 0.418637 -0.776351)
(-0.333637 0.407897 -0.762692)
(-0.332968 0.408187 -0.762363)
(-0.31415 0.385744 -0.730879)
(-0.349566 0.417189 -0.761242)
(-0.347264 0.405409 -0.751414)
(-0.346708 0.410765 -0.75526)
(-0.346612 0.411139 -0.757851)
(-0.341008 0.406664 -0.749194)
(-0.349068 0.416444 -0.76143)
(-0.351042 0.416936 -0.766909)
(-0.350041 0.411915 -0.761269)
(-0.346641 0.4093 -0.759832)
(-0.362207 0.435279 -0.805772)
(-0.359063 0.429717 -0.800695)
(-0.359475 0.435355 -0.805301)
(-0.358913 0.433251 -0.801829)
(-0.358899 0.426652 -0.793114)
(-0.35374 0.426067 -0.795675)
(-0.366264 0.438901 -0.811892)
(-0.364018 0.437589 -0.811568)
(-0.36383 0.437469 -0.809384)
(-0.357759 0.428798 -0.798865)
(-0.353142 0.426052 -0.797029)
(-0.362097 0.436848 -0.810789)
(-0.358872 0.428719 -0.803109)
(-0.355951 0.426829 -0.798489)
(-0.361503 0.433915 -0.80854)
(-0.362008 0.434876 -0.809238)
(-0.363203 0.439671 -0.815009)
(-0.362583 0.4382 -0.812334)
(-0.36335 0.440196 -0.814754)
(-0.358679 0.435729 -0.809267)
(-0.277104 0.346123 -0.639178)
(-0.286881 0.353026 -0.656292)
(-0.284623 0.350396 -0.642756)
(-0.314642 0.400938 -0.740652)
(-0.318795 0.400934 -0.735407)
(-0.30963 0.383343 -0.708162)
(-0.316669 0.391823 -0.722229)
(-0.339322 0.403323 -0.758944)
(-0.340748 0.401876 -0.754871)
(-0.338462 0.401649 -0.757397)
(-0.336683 0.39434 -0.748676)
(-0.340864 0.408201 -0.762472)
(-0.339529 0.398791 -0.75538)
(-0.336996 0.402498 -0.757984)
(-0.343028 0.426756 -0.762656)
(-0.335317 0.414735 -0.746506)
(-0.337632 0.418766 -0.754091)
(-0.322247 0.399391 -0.725718)
(-0.333423 0.412593 -0.743546)
(-0.320837 0.399291 -0.723506)
(-0.350058 0.436999 -0.789615)
(-0.347095 0.441938 -0.790624)
(-0.346717 0.435864 -0.788625)
(-0.348426 0.438135 -0.780675)
(-0.345665 0.436726 -0.781971)
(-0.341448 0.419315 -0.758706)
(-0.331555 0.413972 -0.748548)
(-0.331055 0.410648 -0.745664)
(-0.346847 0.438226 -0.786966)
(-0.341961 0.43066 -0.775794)
(-0.341587 0.432232 -0.775383)
(-0.342145 0.431845 -0.776837)
(-0.325801 0.399268 -0.748488)
(-0.309724 0.380854 -0.72017)
(-0.328892 0.402831 -0.756886)
(-0.325194 0.402045 -0.757179)
(-0.328853 0.398776 -0.750356)
(-0.31472 0.387846 -0.73528)
(-0.310818 0.386719 -0.729711)
(-0.320152 0.392282 -0.743484)
(-0.290606 0.354961 -0.663615)
(-0.283685 0.355556 -0.659552)
(-0.294252 0.359593 -0.676291)
(-0.288796 0.355 -0.659928)
(-0.318177 0.398028 -0.738728)
(-0.31089 0.380941 -0.720289)
(-0.326328 0.399298 -0.751795)
(-0.332282 0.40249 -0.755061)
(-0.331686 0.403356 -0.75682)
(-0.327537 0.402618 -0.753323)
(-0.330639 0.396496 -0.748872)
(-0.331204 0.404268 -0.758339)
(-0.330239 0.397562 -0.754862)
(-0.33305 0.411671 -0.748409)
(-0.324608 0.399616 -0.731437)
(-0.356163 0.436032 -0.787495)
(-0.350427 0.436678 -0.784929)
(-0.331255 0.407238 -0.730545)
(-0.347704 0.426287 -0.772752)
(-0.331417 0.416074 -0.752698)
(-0.333113 0.415257 -0.747187)
(-0.360715 0.442262 -0.798161)
(-0.352679 0.440004 -0.791178)
(-0.352667 0.435386 -0.790532)
(-0.353955 0.438974 -0.793893)
(-0.319145 0.393909 -0.717048)
(-0.330078 0.41352 -0.748464)
(-0.33379 0.406811 -0.739634)
(-0.318986 0.394878 -0.70789)
(-0.326903 0.406577 -0.733014)
(-0.353521 0.43741 -0.788106)
(-0.341649 0.415613 -0.755426)
(-0.351582 0.43462 -0.790405)
(-0.350951 0.435897 -0.794702)
(-0.352111 0.434379 -0.791173)
(-0.34854 0.431147 -0.791275)
(-0.348784 0.432704 -0.793169)
(-0.345197 0.427469 -0.786399)
(-0.347894 0.429755 -0.787859)
(-0.344694 0.423312 -0.780424)
(-0.346574 0.4305 -0.786704)
(-0.343908 0.426724 -0.783481)
(-0.349916 0.438867 -0.793338)
(-0.351886 0.430745 -0.782419)
(-0.349322 0.426042 -0.78513)
(-0.34822 0.427261 -0.785321)
(-0.346741 0.42288 -0.778545)
(-0.343041 0.426308 -0.779713)
(-0.345461 0.422465 -0.775959)
(-0.347848 0.431723 -0.787423)
(-0.346538 0.430574 -0.780856)
(-0.349524 0.435096 -0.79045)
(-0.345715 0.424012 -0.781204)
(-0.338374 0.399034 -0.74003)
(-0.331936 0.39363 -0.719933)
(-0.326122 0.386487 -0.704749)
(-0.332434 0.395158 -0.719771)
(-0.326354 0.386983 -0.710859)
(-0.344093 0.40412 -0.747783)
(-0.313908 0.370214 -0.67918)
(-0.349463 0.411585 -0.760049)
(-0.333062 0.39063 -0.725907)
(-0.325315 0.383622 -0.714382)
(-0.321916 0.380428 -0.701708)
(-0.342712 0.404228 -0.756139)
(-0.345593 0.408939 -0.761288)
(-0.346873 0.409167 -0.755092)
(-0.349699 0.414496 -0.764561)
(-0.350759 0.413083 -0.767737)
(-0.313937 0.367373 -0.688291)
(-0.326529 0.380465 -0.710868)
(-0.335489 0.392096 -0.732578)
(-0.343581 0.407467 -0.75642)
(-0.351516 0.416995 -0.768187)
(-0.341476 0.399171 -0.738666)
(-0.350564 0.44007 -0.79206)
(-0.361616 0.442685 -0.799103)
(-0.35256 0.436202 -0.788937)
(-0.352923 0.435664 -0.788005)
(-0.361983 0.442286 -0.803956)
(-0.359802 0.440646 -0.802124)
(-0.355896 0.442656 -0.795562)
(-0.353674 0.440448 -0.790689)
(-0.356317 0.44401 -0.802056)
(-0.354926 0.438687 -0.798085)
(-0.353619 0.442321 -0.800837)
(-0.354152 0.440909 -0.796497)
(-0.357935 0.440976 -0.80003)
(-0.35555 0.441443 -0.800818)
(-0.358771 0.446665 -0.809843)
(-0.361854 0.446495 -0.809428)
(-0.351224 0.439302 -0.800629)
(-0.349366 0.438878 -0.792193)
(-0.358779 0.443839 -0.806143)
(-0.355705 0.442868 -0.807279)
(-0.312185 0.386485 -0.715757)
(-0.308787 0.384675 -0.711642)
(-0.286589 0.373688 -0.683223)
(-0.278082 0.351232 -0.65096)
(-0.312342 0.390021 -0.726287)
(-0.271346 0.335874 -0.628969)
(-0.27532 0.344134 -0.647946)
(-0.268908 0.340713 -0.638988)
(-0.269143 0.335926 -0.622542)
(-0.254767 0.313159 -0.588801)
(-0.289831 0.366997 -0.67047)
(-0.309136 0.386429 -0.722842)
(-0.272748 0.341959 -0.634856)
(-0.292354 0.359953 -0.669406)
(-0.284905 0.347113 -0.65282)
(-0.264315 0.327548 -0.617659)
(-0.260996 0.332653 -0.614143)
(-0.257317 0.317615 -0.593945)
(-0.238275 0.304841 -0.562985)
(-0.26041 0.316782 -0.591392)
(-0.347957 0.418315 -0.7727)
(-0.350355 0.421781 -0.775709)
(-0.348034 0.422392 -0.773934)
(-0.347656 0.416593 -0.774254)
(-0.348538 0.418532 -0.775637)
(-0.34722 0.412855 -0.768654)
(-0.349044 0.411952 -0.768677)
(-0.343408 0.405105 -0.755012)
(-0.345263 0.408673 -0.761091)
(-0.349803 0.415855 -0.768458)
(-0.353561 0.419503 -0.771864)
(-0.353537 0.42153 -0.773273)
(-0.347471 0.414123 -0.768074)
(-0.348621 0.412366 -0.769462)
(-0.347812 0.411318 -0.764242)
(-0.349071 0.412135 -0.764705)
(-0.35174 0.415479 -0.765721)
(-0.349086 0.413829 -0.762587)
(-0.329654 0.420203 -0.755155)
(-0.325531 0.410235 -0.748813)
(-0.315794 0.398991 -0.734016)
(-0.319422 0.405921 -0.744531)
(-0.322992 0.41014 -0.748097)
(-0.322457 0.401951 -0.742641)
(-0.326607 0.408738 -0.755594)
(-0.330739 0.416446 -0.767142)
(-0.32829 0.415086 -0.764008)
(-0.323576 0.405662 -0.74182)
(-0.321256 0.41101 -0.74681)
(-0.319388 0.401971 -0.74393)
(-0.316407 0.399882 -0.736766)
(-0.33722 0.419928 -0.77124)
(-0.335393 0.419851 -0.769714)
(-0.334162 0.418328 -0.768105)
(-0.335365 0.418684 -0.769072)
(-0.327812 0.410789 -0.758358)
(-0.334558 0.420091 -0.770275)
(-0.327856 0.414566 -0.759841)
(-0.325341 0.407751 -0.755996)
(-0.333924 0.420872 -0.772876)
(-0.266975 0.326736 -0.608528)
(-0.254595 0.303576 -0.56443)
(-0.268888 0.326311 -0.610869)
(-0.283312 0.334152 -0.634204)
(-0.267873 0.316265 -0.600943)
(-0.285601 0.340839 -0.633185)
(-0.331621 0.394526 -0.744629)
(-0.327209 0.382107 -0.721191)
(-0.277957 0.331155 -0.620482)
(-0.26086 0.312538 -0.590365)
(-0.264672 0.313386 -0.583808)
(-0.268559 0.309378 -0.585902)
(-0.27702 0.318873 -0.601337)
(-0.249275 0.298409 -0.550226)
(-0.303234 0.361856 -0.68621)
(-0.312369 0.375104 -0.708579)
(-0.313172 0.365812 -0.692007)
(-0.329249 0.393539 -0.735692)
(-0.324072 0.390077 -0.732862)
(-0.286688 0.341602 -0.641143)
(-0.309626 0.369412 -0.695085)
(-0.317959 0.400287 -0.72876)
(-0.342946 0.420078 -0.773673)
(-0.34574 0.424208 -0.786276)
(-0.361664 0.441241 -0.818479)
(-0.349784 0.436037 -0.803299)
(-0.313635 0.399937 -0.732963)
(-0.342921 0.426249 -0.778052)
(-0.326012 0.400773 -0.740442)
(-0.350106 0.431745 -0.797051)
(-0.324514 0.4015 -0.733985)
(-0.329426 0.407383 -0.747252)
(-0.34754 0.415142 -0.768273)
(-0.34421 0.411803 -0.762098)
(-0.351744 0.415253 -0.777417)
(-0.348259 0.413505 -0.773466)
(-0.327071 0.383568 -0.720839)
(-0.323764 0.378006 -0.70657)
(-0.329726 0.388299 -0.729715)
(-0.323917 0.384238 -0.707382)
(-0.304353 0.356375 -0.666175)
(-0.343446 0.408001 -0.766314)
(-0.327778 0.394296 -0.736451)
(-0.321473 0.378588 -0.705164)
(-0.32756 0.391121 -0.724702)
(-0.303132 0.356599 -0.664642)
(-0.36024 0.440435 -0.798802)
(-0.363622 0.439435 -0.804926)
(-0.360262 0.427995 -0.786262)
(-0.358243 0.433094 -0.793686)
(-0.360943 0.430745 -0.790972)
(-0.36016 0.437207 -0.80154)
(-0.364145 0.437809 -0.796836)
(-0.360815 0.436511 -0.794008)
(-0.362591 0.438745 -0.803551)
(-0.354805 0.430788 -0.787846)
(-0.364597 0.4362 -0.796162)
(-0.362934 0.436279 -0.79592)
(-0.360373 0.426887 -0.783743)
(-0.360125 0.434506 -0.791273)
(-0.287819 0.35397 -0.655907)
(-0.265099 0.324112 -0.595026)
(-0.276697 0.34457 -0.637066)
(-0.287414 0.35371 -0.655608)
(-0.280842 0.347471 -0.645943)
(-0.283455 0.362784 -0.664687)
(-0.278343 0.346532 -0.645403)
(-0.3092 0.381492 -0.71624)
(-0.297791 0.371834 -0.690999)
(-0.311911 0.386648 -0.725983)
(-0.304052 0.379313 -0.708637)
(-0.298888 0.372406 -0.699587)
(-0.32082 0.401294 -0.745253)
(-0.314206 0.389369 -0.722278)
(-0.307759 0.38475 -0.726256)
(-0.316535 0.39605 -0.737133)
(-0.280133 0.334919 -0.602275)
(-0.252802 0.309032 -0.554281)
(-0.295181 0.346405 -0.634097)
(-0.279408 0.331242 -0.604216)
(-0.261647 0.322565 -0.576631)
(-0.287625 0.348462 -0.636118)
(-0.295887 0.351394 -0.635904)
(-0.316723 0.378316 -0.685129)
(-0.318203 0.385095 -0.695882)
(-0.265326 0.321336 -0.577911)
(-0.301253 0.361414 -0.65253)
(-0.291206 0.35202 -0.633145)
(-0.322362 0.392134 -0.705598)
(-0.319923 0.390334 -0.703902)
(-0.278668 0.332344 -0.601818)
(-0.294254 0.352789 -0.641112)
(-0.33131 0.386602 -0.723792)
(-0.322903 0.375964 -0.70606)
(-0.325751 0.384019 -0.717109)
(-0.314543 0.367929 -0.690023)
(-0.332294 0.389625 -0.72308)
(-0.329038 0.3819 -0.715308)
(-0.334269 0.390427 -0.728847)
(-0.32368 0.379617 -0.705677)
(-0.343233 0.404921 -0.749649)
(-0.345049 0.405558 -0.750506)
(-0.337603 0.392705 -0.72911)
(-0.343337 0.405782 -0.756035)
(-0.338092 0.390721 -0.73196)
(-0.334879 0.395679 -0.739397)
(-0.335975 0.413974 -0.741112)
(-0.325512 0.403809 -0.730095)
(-0.325978 0.40446 -0.72283)
(-0.333746 0.417434 -0.740545)
(-0.326145 0.407076 -0.726755)
(-0.342351 0.420656 -0.75198)
(-0.345155 0.429062 -0.7734)
(-0.346314 0.423677 -0.76116)
(-0.336183 0.415572 -0.751133)
(-0.335678 0.415579 -0.751722)
(-0.334232 0.414594 -0.743362)
(-0.337309 0.416301 -0.739765)
(-0.345929 0.431838 -0.771881)
(-0.341228 0.42452 -0.760263)
(-0.346806 0.435168 -0.770264)
(-0.341703 0.428922 -0.767128)
(-0.345864 0.429648 -0.768273)
(-0.340869 0.425277 -0.764968)
(-0.345675 0.415731 -0.776938)
(-0.342919 0.413432 -0.774839)
(-0.343605 0.419834 -0.780244)
(-0.33852 0.408994 -0.773562)
(-0.342097 0.413408 -0.775461)
(-0.341208 0.415174 -0.777907)
(-0.337561 0.410573 -0.771112)
(-0.340097 0.410486 -0.772702)
(-0.34451 0.4157 -0.777355)
(-0.337211 0.403908 -0.762543)
(-0.336304 0.405536 -0.762557)
(-0.342151 0.407056 -0.768376)
(-0.340829 0.40591 -0.763104)
(-0.346094 0.412529 -0.773363)
(-0.343627 0.418724 -0.782433)
(-0.340504 0.40789 -0.769903)
(-0.344988 0.413708 -0.775523)
(-0.339808 0.406166 -0.766513)
(-0.347378 0.425142 -0.766446)
(-0.348706 0.422667 -0.757519)
(-0.342097 0.420217 -0.750134)
(-0.342361 0.423607 -0.759781)
(-0.348449 0.424404 -0.758516)
(-0.347432 0.420264 -0.755604)
(-0.347657 0.427374 -0.765276)
(-0.347211 0.425425 -0.764505)
(-0.33658 0.413749 -0.733254)
(-0.333047 0.405396 -0.727455)
(-0.334683 0.408767 -0.733876)
(-0.341114 0.413777 -0.742012)
(-0.338731 0.415686 -0.744169)
(-0.338617 0.418546 -0.748757)
(-0.335775 0.412819 -0.737048)
(-0.341122 0.421852 -0.754646)
(-0.336874 0.413322 -0.761713)
(-0.325667 0.404343 -0.741815)
(-0.32398 0.399457 -0.736364)
(-0.3116 0.382238 -0.711995)
(-0.328014 0.404199 -0.756121)
(-0.325668 0.404835 -0.742668)
(-0.308886 0.381526 -0.702794)
(-0.266341 0.327434 -0.598609)
(-0.231213 0.286566 -0.531295)
(-0.274945 0.336867 -0.618548)
(-0.294863 0.35718 -0.660427)
(-0.31636 0.395416 -0.725341)
(-0.317632 0.397523 -0.729048)
(-0.270051 0.33724 -0.62749)
(-0.274809 0.336821 -0.627319)
(-0.314784 0.386134 -0.718138)
(-0.280164 0.342838 -0.631383)
(-0.281259 0.346166 -0.628862)
(-0.266156 0.334359 -0.624684)
(-0.272058 0.33479 -0.616981)
(-0.256014 0.313696 -0.57454)
(-0.239808 0.3054 -0.554661)
(-0.260656 0.325013 -0.598118)
(-0.237276 0.293096 -0.545668)
(-0.280589 0.345683 -0.619465)
(-0.270058 0.333464 -0.602653)
(-0.283602 0.344259 -0.625401)
(-0.249125 0.305596 -0.556168)
(-0.307696 0.375424 -0.682031)
(-0.305454 0.376331 -0.678213)
(-0.324558 0.396956 -0.722015)
(-0.278346 0.342544 -0.620893)
(-0.2741 0.329477 -0.597057)
(-0.320312 0.395582 -0.719268)
(-0.32284 0.403326 -0.720385)
(-0.282612 0.342704 -0.620503)
(-0.26848 0.328694 -0.592243)
(-0.249411 0.310907 -0.563138)
(-0.259346 0.313899 -0.580112)
(-0.252791 0.308355 -0.556522)
(-0.284559 0.348749 -0.637493)
(-0.312611 0.384661 -0.699523)
(-0.319902 0.394998 -0.719237)
(-0.315249 0.388418 -0.70397)
(-0.284552 0.349492 -0.634766)
(-0.284798 0.34287 -0.621254)
(-0.338421 0.405645 -0.737069)
(-0.338715 0.397358 -0.737676)
(-0.338767 0.400018 -0.736157)
(-0.329183 0.395726 -0.732817)
(-0.338402 0.406635 -0.741882)
(-0.33728 0.395474 -0.74004)
(-0.336843 0.395072 -0.738351)
(-0.330215 0.397301 -0.737157)
(-0.340301 0.405073 -0.739819)
(-0.339352 0.422784 -0.759559)
(-0.328007 0.410723 -0.743606)
(-0.31599 0.393713 -0.712037)
(-0.325008 0.405396 -0.727019)
(-0.31668 0.394613 -0.708067)
(-0.341919 0.42345 -0.759543)
(-0.332632 0.413792 -0.751401)
(-0.352009 0.434855 -0.786221)
(-0.353148 0.438886 -0.794833)
(-0.334059 0.419543 -0.750237)
(-0.268091 0.318551 -0.579621)
(-0.248667 0.29259 -0.5383)
(-0.287227 0.342638 -0.624087)
(-0.275097 0.326772 -0.60338)
(-0.26697 0.314193 -0.585121)
(-0.264581 0.311169 -0.572943)
(-0.240523 0.288676 -0.527351)
(-0.283118 0.334495 -0.618868)
(-0.277794 0.320373 -0.591081)
(-0.287014 0.336894 -0.621904)
(-0.262129 0.31382 -0.570005)
(-0.296539 0.342113 -0.633489)
(-0.321897 0.383675 -0.702876)
(-0.348023 0.42612 -0.778128)
(-0.354063 0.437686 -0.795261)
(-0.328421 0.406876 -0.736763)
(-0.328243 0.411682 -0.741239)
(-0.320064 0.388296 -0.7053)
(-0.319777 0.396436 -0.71899)
(-0.318637 0.391479 -0.72672)
(-0.299533 0.366687 -0.671588)
(-0.33515 0.41331 -0.749008)
(-0.337689 0.420123 -0.754359)
(-0.347654 0.424504 -0.769991)
(-0.365734 0.449285 -0.807209)
(-0.363342 0.446469 -0.81041)
(-0.317589 0.394697 -0.714196)
(-0.348052 0.429943 -0.781235)
(-0.359085 0.446777 -0.798667)
(-0.335208 0.420184 -0.758093)
(-0.354489 0.440202 -0.795188)
(-0.259716 0.326127 -0.581904)
(-0.286413 0.354149 -0.640114)
(-0.279623 0.354175 -0.630831)
(-0.26595 0.319227 -0.589657)
(-0.22899 0.28923 -0.521422)
(-0.317436 0.385422 -0.691378)
(-0.322415 0.389755 -0.703364)
(-0.277074 0.326861 -0.602293)
(-0.252068 0.297589 -0.549791)
(-0.314369 0.376968 -0.688651)
(-0.268943 0.339562 -0.601508)
(-0.319 0.388427 -0.709083)
(-0.323718 0.394207 -0.702023)
(-0.278166 0.342213 -0.614618)
(-0.313391 0.385652 -0.70225)
(-0.31429 0.386503 -0.693275)
(-0.275848 0.337454 -0.613178)
(-0.32797 0.403118 -0.755041)
(-0.322825 0.396661 -0.743451)
(-0.31219 0.372422 -0.699472)
(-0.319753 0.38755 -0.731982)
(-0.284685 0.345717 -0.658332)
(-0.325293 0.397807 -0.742439)
(-0.309973 0.379999 -0.713117)
(-0.280776 0.34433 -0.633008)
(-0.321197 0.393855 -0.73168)
(-0.301782 0.373374 -0.700195)
(-0.308647 0.386296 -0.716121)
(-0.319839 0.395199 -0.746428)
(-0.264066 0.32011 -0.586411)
(-0.26341 0.314473 -0.592932)
(-0.317953 0.38342 -0.726695)
(-0.316363 0.387748 -0.734149)
(-0.2803 0.340899 -0.631178)
(-0.279104 0.346941 -0.638878)
(-0.327611 0.400405 -0.719219)
(-0.316084 0.383459 -0.688882)
(-0.331827 0.406356 -0.733836)
(-0.326366 0.392007 -0.710087)
(-0.265114 0.325812 -0.610589)
(-0.264627 0.321058 -0.615235)
(-0.299812 0.36814 -0.678275)
(-0.296052 0.362233 -0.669409)
(-0.345418 0.427594 -0.776966)
(-0.344932 0.425874 -0.783842)
(-0.347095 0.426379 -0.784021)
(-0.337877 0.420348 -0.767911)
(-0.298886 0.36016 -0.658173)
(-0.290403 0.357516 -0.644181)
(-0.26989 0.332481 -0.611717)
(-0.31517 0.397227 -0.728835)
(-0.314335 0.397914 -0.724771)
(-0.315115 0.403413 -0.728962)
(-0.320883 0.402278 -0.738502)
(-0.238282 0.302596 -0.541481)
(-0.252701 0.300895 -0.557568)
(-0.257834 0.31067 -0.568786)
(-0.227006 0.277115 -0.510904)
(-0.232419 0.2872 -0.521519)
(-0.239642 0.280402 -0.518652)
(-0.246638 0.287956 -0.52596)
(-0.22874 0.276211 -0.512948)
(-0.253072 0.297144 -0.553834)
(-0.245671 0.294189 -0.550279)
(-0.244943 0.298347 -0.552799)
(-0.237112 0.292193 -0.522068)
(-0.22782 0.281157 -0.514089)
(-0.253384 0.3186 -0.5823)
(-0.253547 0.320557 -0.58089)
(-0.235889 0.288572 -0.529565)
(-0.23441 0.285621 -0.525083)
(-0.24507 0.290794 -0.533096)
(-0.236494 0.292675 -0.535861)
(-0.249007 0.306076 -0.564046)
(-0.232034 0.290448 -0.537748)
(-0.238953 0.28723 -0.53315)
(-0.233953 0.286649 -0.533658)
(-0.250698 0.306185 -0.563754)
(-0.255207 0.302792 -0.560139)
(-0.244422 0.29953 -0.55371)
(-0.239511 0.2928 -0.552102)