/*--------------------------------*- C++ -*----------------------------------*\
| =========                 |                                                 |
| \\      /  F ield         | OpenFOAM: The Open Source CFD Toolbox           |
|  \\    /   O peration     | Version:  v1612+                                |
|   \\  /    A nd           | Web:      www.OpenFOAM.com                      |
|    \\/     M anipulation  |                                                 |
\*---------------------------------------------------------------------------*/
FoamFile
{
    version     2.0;
    format      ascii;
    class       volScalarField;
    location    "50";
    object      p;
}
// * * * * * * * * * * * * * * * * * * * * * * * * * * * * * * * * * * * * * //

dimensions      [0 2 -2 0 0 0 0];

internalField   nonuniform List<scalar> 
18827
(
3.20128
3.11856
3.18354
3.11466
3.10383
3.12346
3.12723
3.11966
3.09374
3.11716
3.1131
3.08784
3.09709
3.08458
3.08645
3.09543
3.13821
3.13319
3.13771
3.14248
3.15169
3.14975
3.14837
3.1425
3.14376
3.1493
3.14403
3.14617
3.16521
3.15832
3.15603
3.16019
3.16114
3.15627
3.15631
3.15597
3.15477
3.15355
3.15223
3.15415
3.15383
3.15211
3.15369
3.12481
3.12669
3.13572
3.1255
3.111
3.11115
3.12291
3.13682
3.12747
3.11729
3.1124
3.12139
3.1439
3.14221
3.13616
3.14385
3.07183
3.07652
3.06985
3.06802
3.06805
3.07571
3.07406
3.06524
3.06879
3.0773
3.06499
3.0621
3.05476
3.04871
3.05704
3.0585
3.06842
3.06939
3.06317
3.05842
3.0567
3.04992
3.04088
3.05498
3.06103
3.0534
3.06105
3.05256
3.04993
3.05585
3.05559
3.12429
3.12298
3.12654
3.13238
3.13029
3.13541
3.14301
3.14271
3.13615
3.14321
3.12646
3.12034
3.13959
3.14398
3.15376
3.13744
3.14694
3.1435
3.1402
3.14972
3.15509
3.15206
3.14432
3.13702
3.15172
3.14827
3.16636
3.16312
3.16978
3.13923
3.16046
3.17029
3.16129
3.15952
3.16772
3.15181
3.19179
3.19121
3.20208
3.20738
3.20819
3.19315
3.19407
3.20189
3.20699
3.20911
3.16469
3.17067
3.16627
3.16327
3.17043
3.16411
3.15836
3.16334
3.1522
3.16074
3.15761
3.15195
3.15969
3.16263
3.15972
3.19972
3.18569
3.18858
3.19371
3.19947
3.17739
3.17955
3.17963
3.18912
3.18553
3.19464
3.18409
3.1951
3.1873
3.15958
3.16452
3.16288
3.17713
3.1694
3.16297
3.15966
3.17324
3.176
3.17434
3.15873
3.17523
3.16555
3.17718
3.18217
3.18492
3.18547
3.19059
3.18267
3.18797
3.18846
3.1847
3.17118
3.18471
3.13875
3.12543
3.13265
3.13441
3.12507
3.13272
3.12423
3.13052
3.13525
3.12883
3.14146
3.14576
3.13777
3.14079
3.145
3.14033
3.14723
3.13252
3.14496
3.14269
3.13397
3.1369
3.13425
3.13754
3.14209
3.13465
3.1404
3.14404
3.14772
3.14297
3.15045
3.13817
3.15364
3.15334
3.14659
3.14865
3.14776
3.19877
3.20678
3.20805
3.19558
3.21388
3.21054
3.20472
3.19969
3.21144
3.20784
3.21001
3.21125
3.2145
3.21082
3.21316
3.16816
3.16609
3.15229
3.16589
3.16401
3.17586
3.16456
3.16302
3.15894
3.16178
3.17282
3.17074
3.16313
3.18576
3.18291
3.18805
3.18878
3.18669
3.19758
3.1913
3.12959
3.13743
3.12837
3.13189
3.1276
3.12716
3.13337
3.13139
3.13078
3.12792
3.13205
3.12463
3.13763
3.12625
3.12475
3.14114
3.13974
3.12659
3.14459
3.13537
3.1348
3.13671
3.18753
3.18606
3.14992
3.18243
3.17878
3.16733
3.16325
3.14944
3.16909
3.15886
3.16387
3.16284
3.1619
3.15106
3.15862
3.16885
3.15955
3.16247
3.1702
3.16322
3.18179
3.18189
3.18476
3.17965
3.1593
3.17456
3.16587
3.17145
3.17551
3.16912
3.16381
3.16581
3.17341
3.16414
3.16716
3.17052
3.17506
3.13853
3.12991
3.12248
3.12535
3.13528
3.12831
3.14429
3.13096
3.13891
3.14609
3.13966
3.15828
3.15325
3.14679
3.14758
3.14373
3.16006
3.155
3.14587
3.15155
3.15114
3.15726
3.16129
3.15387
3.1611
3.15328
3.1515
3.15986
3.16029
3.18824
3.19413
3.19056
3.18506
3.18355
3.1917
3.19214
3.19245
3.185
3.16969
3.17215
3.17236
3.16961
3.18192
3.15286
3.14803
3.15002
3.14935
3.15308
3.15548
3.15232
3.15025
3.15639
3.16791
3.1588
3.15282
3.15987
3.1559
3.16148
3.1866
3.18996
3.18819
3.18931
3.18789
3.18798
3.18683
3.18349
3.19294
3.1888
3.18901
3.19466
3.1979
3.19473
3.18995
3.19337
3.18683
3.14425
3.14451
3.13836
3.12934
3.13576
3.14159
3.14162
3.13326
3.13019
3.13673
3.13748
3.13653
3.17368
3.18839
3.17503
3.17446
3.19681
3.18375
3.17721
3.19015
3.17095
3.17912
3.19474
3.18216
3.17543
3.18646
3.18685
3.19426
3.07967
3.09719
3.08187
3.0786
3.06679
3.09457
3.09605
3.08381
3.07456
3.21583
3.20639
3.20907
3.20178
3.17906
3.1812
3.20739
3.20439
3.18169
3.19056
3.19501
3.19209
3.19971
3.18492
3.20474
3.19961
3.20109
3.20174
3.13706
3.14081
3.15135
3.15062
3.14128
3.14229
3.13107
3.12834
3.14138
3.14283
3.14712
3.14227
3.15499
3.13725
3.14177
3.15252
3.13513
3.13732
3.15685
3.15218
3.13373
3.13445
3.08484
3.08287
3.08363
3.08435
3.08867
3.08802
3.09528
3.1021
3.08204
3.08936
3.09407
3.10203
3.09108
3.09354
3.09353
3.07989
3.0829
3.09236
3.0903
3.09154
3.09489
3.15083
3.16576
3.15673
3.15791
3.16051
3.15879
3.15985
3.16043
3.15524
3.17124
3.16556
3.17434
3.16726
3.16347
3.18553
3.18263
3.18066
3.18389
3.19168
3.19376
3.18439
3.18418
3.1903
3.18571
3.18471
3.18751
3.18901
3.19387
3.17978
3.17801
3.18474
3.19063
3.18367
3.19613
3.19537
3.17916
3.16945
3.17299
3.17722
3.18153
3.17284
3.16709
3.16593
3.18765
3.16856
3.16521
3.17354
3.16336
3.17107
3.17323
3.17908
3.17737
3.11147
3.10667
3.09696
3.10189
3.10104
3.10993
3.11413
3.09309
3.09514
3.10249
3.10166
3.09782
3.10569
3.10427
3.11135
3.10539
3.10568
3.10438
3.11206
3.1145
3.17377
3.15735
3.1703
3.14822
3.1466
3.14838
3.15352
3.15569
3.16691
3.16043
3.1417
3.14952
3.13954
3.15344
3.16363
3.15557
3.15735
3.15106
3.146
3.15796
3.16509
3.18455
3.18587
3.18332
3.18066
3.17901
3.18431
3.17615
3.18128
3.18551
3.18541
3.18395
3.18322
3.18705
3.18182
3.18258
3.16108
3.16698
3.14942
3.17716
3.17008
3.15398
3.17805
3.17123
3.17387
3.18177
3.15686
3.16167
3.15492
3.15329
3.16003
3.17078
3.16636
3.18438
3.17033
3.17511
3.16378
3.17583
3.17962
3.16864
3.17684
3.17147
3.18307
3.18499
3.18305
3.18455
3.17836
3.16976
3.1791
3.17117
3.18064
3.16938
3.17819
3.18209
3.17985
3.17556
3.18258
3.17983
3.16968
3.18769
3.17839
3.17735
3.17497
3.18127
3.17484
3.18699
3.18749
3.18679
3.18482
3.18238
3.18213
3.18474
3.18709
3.18642
3.18528
3.18343
3.18736
3.16721
3.17096
3.17504
3.16667
3.16753
3.16871
3.17084
3.16113
3.16436
3.16377
3.17039
3.1685
3.17255
3.16841
3.16293
3.16222
3.16109
3.19803
3.19949
3.19183
3.19223
3.18685
3.18576
3.18779
3.18706
3.18701
3.18588
3.18404
3.20271
3.19811
3.19136
3.20066
3.1877
3.1956
3.18754
3.19948
3.19025
3.18131
3.19105
3.20649
3.20961
3.20946
3.21556
3.20582
3.20999
3.20943
3.20395
3.20211
3.20081
3.19675
3.20177
3.20407
3.19625
3.19472
3.19752
3.19925
3.19816
3.19628
3.17895
3.19577
3.2009
3.14839
3.15114
3.14931
3.1488
3.15189
3.14395
3.15178
3.14828
3.14849
3.15157
3.14873
3.15481
3.1514
3.14223
3.14673
3.1537
3.14857
3.15494
3.14806
3.1332
3.13136
3.13572
3.13476
3.13498
3.1361
3.12734
3.12025
3.12303
3.11727
3.13863
3.13163
3.12986
3.13786
3.1251
3.12961
3.14975
3.14636
3.14377
3.14754
3.15808
3.15722
3.15272
3.15428
3.15841
3.15693
3.21061
3.20767
3.20622
3.2081
3.19285
3.18636
3.19984
3.2097
3.20622
3.2007
3.19958
3.18624
3.2042
3.2061
3.19197
3.20054
3.20893
3.19735
3.10185
3.09995
3.09001
3.09703
3.09117
3.10857
3.09623
3.09462
3.10987
3.10998
3.11744
3.11235
3.11393
3.11882
3.10524
3.10784
3.1073
3.10899
3.09085
3.18038
3.19034
3.17133
3.17827
3.16236
3.16852
3.17892
3.1801
3.15925
3.16602
3.15941
3.17751
3.0274
3.02267
3.18348
3.04633
3.04214
3.04524
3.0408
3.06108
3.06502
3.05661
3.05454
3.05899
3.05771
3.05626
3.05265
3.231
3.22706
3.11787
3.12202
3.10469
3.11475
3.0579
3.06183
3.19714
3.09164
3.09411
3.20789
3.21771
3.21681
3.12057
3.12197
3.11306
3.06557
3.06563
3.20577
3.20446
3.0664
3.07112
3.06829
3.1923
3.19814
3.19827
3.20592
3.20785
3.20574
3.20938
3.09528
3.1002
3.09249
3.16101
3.15545
3.15648
3.15038
3.15635
3.15723
3.12437
3.12569
3.07891
3.07847
3.082
3.17956
3.18191
3.18631
3.14522
3.14787
3.1506
3.19836
3.19605
3.11054
3.118
3.15146
3.15969
3.15341
3.09726
3.10195
3.1002
3.17806
3.1763
3.17902
3.09669
3.10176
3.09042
3.14522
3.13919
3.18963
3.18668
3.18595
3.19168
3.18972
3.19275
3.14982
3.15028
3.16912
3.16961
3.17017
3.10906
3.10363
3.10269
3.12522
3.11359
3.11409
3.18782
3.19015
3.18531
3.19086
3.1894
3.13322
3.13542
3.18901
3.19413
3.18829
3.15896
3.15822
3.20079
3.20047
3.19912
3.13738
3.13942
3.16966
3.17043
3.16878
3.16832
3.1684
3.19051
3.19061
3.15684
3.1567
3.15285
3.15196
3.16164
3.16427
3.19626
3.19644
3.19467
3.17396
3.1786
3.17963
3.18793
3.19134
3.19245
3.20463
3.20454
3.20691
3.17841
3.18059
3.20664
3.20833
3.20318
3.20516
3.19779
3.19711
3.19709
3.2016
3.20102
3.17637
3.18739
3.18847
3.19121
3.18525
3.19167
3.18821
3.20896
3.20981
3.19391
3.18856
3.18931
3.20466
3.19886
3.19886
3.20682
3.20319
3.20265
3.22788
3.21539
3.21462
3.20875
3.20817
3.20774
3.20507
3.19998
3.22892
3.22632
3.19834
3.20166
3.20567
3.19849
3.22064
3.22811
3.22902
3.22198
3.22449
3.21356
3.2115
3.21226
3.21389
3.21438
3.21149
3.21173
3.21374
3.21417
3.21007
3.21058
3.2103
3.20939
3.21178
3.20005
3.20327
3.19632
3.19181
3.2137
3.20567
3.20655
3.2023
3.21712
3.20447
3.20129
3.20845
3.20998
3.21061
3.21212
3.21149
3.20905
3.21193
3.21196
3.20728
3.21588
3.21274
3.20636
3.20171
3.19862
3.20185
3.19952
3.19648
3.20484
3.20732
3.20439
3.19325
3.20472
3.20025
3.19535
3.20307
3.19768
3.19568
3.20165
3.20118
3.18844
3.19812
3.1923
3.18669
3.19433
3.19689
3.227
3.22414
3.22467
3.20721
3.21401
3.21416
3.21412
3.22239
3.21045
3.21646
3.2187
3.2185
3.22231
3.20301
3.19679
3.18817
3.20376
3.20393
3.20491
3.2097
3.20259
3.20268
3.20403
3.20305
3.20366
3.20345
3.20678
3.20206
3.20902
3.20089
3.2073
3.21163
3.21162
3.20953
3.20663
3.20764
3.20683
3.21047
3.2128
3.21446
3.21312
3.21349
3.21025
3.21029
3.21357
3.21265
3.21305
3.21183
3.20978
3.20274
3.19354
3.20351
3.20662
3.21437
3.21007
3.20893
3.21259
3.22186
3.19754
3.19627
3.20604
3.20709
3.19681
3.21263
3.21288
3.22667
3.23338
3.22146
3.23427
3.23814
3.20223
3.20533
3.19849
3.20198
3.19875
3.20317
3.20236
3.2095
3.20027
3.20005
3.2024
3.20326
3.19724
3.19354
3.20096
3.19396
3.19997
3.2065
3.20019
3.1986
3.2005
3.20139
3.19437
3.18978
3.18821
3.18795
3.20215
3.19521
3.1978
3.18743
3.19462
3.19719
3.19774
3.1982
3.19972
3.19676
3.18393
3.18556
3.19777
3.19857
3.19836
3.19688
3.18987
3.2004
3.20384
3.20099
3.19779
3.1955
3.19908
3.18644
3.17506
3.19303
3.19281
3.19282
3.18935
3.18739
3.18484
3.19274
3.18826
3.18553
3.1826
3.17979
3.18368
3.18776
3.183
3.18289
3.18797
3.18976
3.18682
3.18574
3.18935
3.19375
3.19398
3.19821
3.18634
3.19017
3.19118
3.1881
3.17902
3.17428
3.18137
3.17641
3.18421
3.18775
3.18689
3.1664
3.18028
3.17948
3.18383
3.17353
3.17701
3.1773
3.18157
3.18425
3.18725
3.17681
3.17834
3.18052
3.17694
3.18356
3.18763
3.19491
3.19305
3.19139
3.18548
3.18525
3.18484
3.16027
3.1575
3.1687
3.18261
3.1948
3.17216
3.17179
3.18007
3.18737
3.19483
3.19203
3.1888
3.18475
3.19731
3.19659
3.19732
3.18593
3.19475
3.20055
3.1984
3.19398
3.19423
3.19343
3.19238
3.19943
3.19315
3.19041
3.19214
3.19251
3.19752
3.19261
3.19452
3.19696
3.1959
3.19397
3.18772
3.19204
3.1905
3.19312
3.18791
3.18855
3.2063
3.20358
3.20122
3.2048
3.19996
3.20234
3.20649
3.20544
3.20424
3.20128
3.19976
3.20665
3.20992
3.20661
3.20435
3.20343
3.20398
3.20707
3.20231
3.20414
3.20499
3.19827
3.20404
3.20077
3.20346
3.20364
3.16353
3.17343
3.17349
3.17333
3.16925
3.17092
3.17937
3.17667
3.17515
3.16839
3.17319
3.17137
3.17218
3.20023
3.20097
3.20302
3.19961
3.20602
3.20524
3.20328
3.203
3.20653
3.20215
3.20278
3.2032
3.20266
3.20618
3.20889
3.20938
3.20848
3.20712
3.20551
3.20558
3.20917
3.20742
3.20587
3.20393
3.2027
3.20372
3.20903
3.20843
3.20513
3.20493
3.20523
3.20393
3.18987
3.19014
3.17853
3.17999
3.18497
3.17496
3.18206
3.17489
3.17778
3.16051
3.16222
3.16912
3.16766
3.16892
3.16218
3.16349
3.16806
3.17539
3.17468
3.17476
3.16761
3.16489
3.18913
3.17833
3.18186
3.17507
3.18033
3.19586
3.19846
3.19819
3.1965
3.19959
3.19748
3.18651
3.19322
3.19512
3.19903
3.18783
3.19419
3.18918
3.19528
3.18664
3.14154
3.13965
3.15073
3.15049
3.15775
3.15035
3.15518
3.14711
3.15547
3.14911
3.1452
3.14088
3.15285
3.14252
3.14742
3.1372
3.14804
3.16005
3.15652
3.16753
3.17559
3.1672
3.16335
3.16938
3.15515
3.14983
3.14852
3.15508
3.18188
3.18577
3.18225
3.18732
3.18613
3.1954
3.19413
3.1933
3.19541
3.19403
3.19502
3.19096
3.19533
3.19437
3.19847
3.19592
3.19031
3.19014
3.19895
3.19803
3.19317
3.19082
3.15459
3.16056
3.16922
3.16976
3.17059
3.165
3.18079
3.18367
3.17314
3.17513
3.17816
3.17367
3.16869
3.17426
3.1736
3.17793
3.16056
3.16249
3.154
3.16196
3.15467
3.16523
3.16122
3.1562
3.1639
3.18488
3.18672
3.18712
3.18602
3.18175
3.1825
3.17795
3.17878
3.18181
3.17519
3.11521
3.13065
3.13267
3.13126
3.13384
3.13326
3.13915
3.14204
3.14914
3.14339
3.14322
3.13378
3.13504
3.13864
3.13374
3.13747
3.14149
3.15788
3.16042
3.14288
3.15427
3.14716
3.14427
3.15816
3.16175
3.16195
3.16195
3.14667
3.14539
3.14767
3.15291
3.1902
3.19405
3.19738
3.19233
3.19815
3.1973
3.19617
3.19701
3.19893
3.19648
3.19565
3.19474
3.19872
3.19558
3.19576
3.1934
3.19332
3.20107
3.20037
3.19659
3.19789
3.13627
3.14343
3.14305
3.15916
3.16161
3.16476
3.15902
3.16513
3.16877
3.16443
3.17148
3.1638
3.1655
3.16576
3.16511
3.17077
3.1703
3.17557
3.17028
3.17026
3.16062
3.16727
3.17197
3.16582
3.19036
3.1959
3.19148
3.19587
3.18399
3.18844
3.19166
3.18153
3.1944
3.18837
3.19002
3.19005
3.19322
3.19548
3.18757
3.1842
3.19467
3.19494
3.18633
3.1881
3.1819
3.19227
3.18473
3.18539
3.18126
3.18973
3.1895
3.18723
3.18768
3.1239
3.12768
3.12789
3.12887
3.13777
3.14259
3.14611
3.14569
3.15286
3.13926
3.14913
3.14527
3.18572
3.19025
3.19225
3.18663
3.18731
3.18769
3.19016
3.18933
3.18944
3.189
3.19106
3.19109
3.19195
3.18025
3.17271
3.16888
3.1772
3.18206
3.1792
3.19505
3.19352
3.19167
3.1893
3.18768
3.11922
3.1162
3.11499
3.11312
3.11802
3.12038
3.0997
3.11458
3.10851
3.10659
3.10458
3.11341
3.10516
3.10639
3.11932
3.11987
3.12408
3.08753
3.0997
3.09404
3.09948
3.10996
3.11862
3.10939
3.11712
3.1128
3.11226
3.16558
3.16422
3.16787
3.1632
3.17772
3.16709
3.16796
3.17196
3.17253
3.17043
3.16729
3.17274
3.14208
3.14727
3.13789
3.143
3.14561
3.1424
3.15915
3.16658
3.15414
3.14973
3.14828
3.15316
3.15344
3.17184
3.15965
3.16361
3.15987
3.16196
3.16224
3.17224
3.16081
3.15771
3.1729
3.1437
3.1362
3.13347
3.13982
3.14431
3.14646
3.1354
3.13856
3.19252
3.19376
3.18822
3.19856
3.19275
3.19479
3.19862
3.18471
3.19397
3.19456
3.18716
3.19992
3.19434
3.1867
3.19109
3.18264
3.19376
3.18936
3.19259
3.18466
3.18157
3.18749
3.18653
3.19089
3.19149
3.18012
3.19391
3.18742
3.18672
3.1911
3.18835
3.18013
3.187
3.18755
3.18457
3.18446
3.1866
3.19033
3.1866
3.18641
3.18611
3.19002
3.18919
3.19394
3.18702
3.18657
3.13741
3.13996
3.14283
3.11927
3.12928
3.13229
3.13998
3.13527
3.13295
3.13952
3.1142
3.11722
3.11998
3.13384
3.13486
3.13734
3.13118
3.12575
3.12751
3.12466
3.16358
3.16075
3.16242
3.15239
3.15926
3.15555
3.14636
3.14752
3.08866
3.08241
3.08903
3.08454
3.08441
3.10186
3.11236
3.0935
3.09595
3.0973
3.09966
3.09299
3.11445
3.10385
3.11272
3.11248
3.11051
3.10894
3.10376
3.10758
3.10645
3.17102
3.1726
3.16916
3.17887
3.1779
3.17518
3.18183
3.17431
3.16781
3.17421
3.17702
3.18039
3.17746
3.17347
3.17131
3.17685
3.1731
3.18681
3.18406
3.17936
3.18267
3.17877
3.17988
3.18177
3.17919
3.08501
3.08544
3.09083
3.10006
3.0913
3.09811
3.09894
3.10431
3.10301
3.10981
3.09748
3.09315
3.09635
3.08767
3.0909
3.09084
3.09393
3.15781
3.16039
3.14091
3.14172
3.14302
3.1468
3.1455
3.14785
3.13746
3.14626
3.14126
3.14574
3.14968
3.14441
3.13574
3.14033
3.09787
3.10129
3.09325
3.10158
3.10639
3.12761
3.12403
3.12238
3.13011
3.13467
3.12481
3.12332
3.13546
3.13034
3.11813
3.11289
3.13559
3.13897
3.11539
3.11823
3.11794
3.12035
3.11942
3.11978
3.1239
3.19751
3.19685
3.20194
3.19899
3.20424
3.20648
3.19856
3.18378
3.18405
3.19643
3.1907
3.19663
3.19583
3.19229
3.19534
3.19931
3.19592
3.19353
3.14601
3.14816
3.15142
3.12246
3.13407
3.126
3.13546
3.12516
3.12667
3.14338
3.14074
3.13586
3.14082
3.16577
3.16928
3.15895
3.16328
3.15298
3.1932
3.19333
3.19232
3.2011
3.17375
3.18115
3.17666
3.18049
3.17681
3.18053
3.17442
3.16844
3.17192
3.08273
3.0809
3.08825
3.08709
3.09321
3.09847
3.08243
3.0844
3.08838
3.09399
3.133
3.14007
3.15261
3.13624
3.13417
3.14827
3.15133
3.14569
3.11101
3.11591
3.11801
3.11812
3.09076
3.09318
3.09684
3.11105
3.11374
3.11644
3.12549
3.11136
3.10241
3.10362
3.16656
3.16979
3.17327
3.18391
3.18759
3.13009
3.13321
3.17617
3.17135
3.16279
3.16946
3.16772
3.1485
3.15337
3.15717
3.16742
3.16638
3.15582
3.14949
3.12644
3.12916
3.16648
3.16154
3.16135
3.15195
3.15987
3.15633
3.17065
3.17102
3.1634
3.17458
3.14673
3.14604
3.15007
3.15118
3.17758
3.16366
3.15786
3.17138
3.16945
3.16858
3.16078
3.15753
3.16135
3.16103
3.07303
3.07704
3.07799
3.08678
3.09075
3.0906
3.09092
3.09238
3.20139
3.2004
3.19771
3.20644
3.20437
3.2042
3.2092
3.20434
3.20478
3.19898
3.20817
3.21422
3.20234
3.21107
3.20537
3.2115
3.21593
3.21704
3.21524
3.21217
3.20054
3.20011
3.20678
3.20129
3.19153
3.20145
3.21152
3.20603
3.21214
3.21078
3.1855
3.17424
3.19077
3.19267
3.18473
3.19187
3.19301
3.19051
3.17338
3.17938
3.17841
3.19413
3.19235
3.18693
3.18512
3.17691
3.17717
3.19408
3.19813
3.06448
3.0685
3.07489
3.07178
3.06767
3.21854
3.21968
3.18505
3.19636
3.19511
3.19221
3.19997
3.19544
3.19257
3.19709
3.19028
3.19406
3.1876
3.06171
3.07311
3.06191
3.06738
3.07028
3.0714
3.08759
3.08387
3.09187
3.09704
3.09868
3.10265
3.10775
3.11712
3.11468
3.11005
3.11403
3.11131
3.10981
3.10927
3.21393
3.22198
3.22252
3.21338
3.21982
3.19932
3.20483
3.20784
3.07419
3.07412
3.06288
3.0744
3.10102
3.09634
3.10372
3.08343
3.08791
3.08238
3.08125
3.07906
3.0789
3.07544
3.07631
3.10705
3.10443
3.10223
3.11628
3.09869
3.09942
3.21002
3.21308
3.16634
3.1648
3.16112
3.16827
3.18259
3.18211
3.18821
3.18383
3.16857
3.18993
3.18881
3.056
3.05082
3.05838
3.0489
3.05375
3.05343
3.0573
3.067
3.06237
3.06148
3.06021
3.06618
3.06076
3.06522
3.09349
3.10112
3.10422
3.09555
3.0897
3.14022
3.13904
3.1339
3.1206
3.12794
3.13194
3.12862
3.21292
3.20574
3.23261
3.22788
3.21729
3.22862
3.2179
3.22772
3.2215
3.04842
3.05358
3.05417
3.04459
3.04542
3.0478
3.03403
3.03716
3.04059
3.05898
3.05896
3.05696
3.05012
3.05095
3.04399
3.04483
3.04837
3.05162
3.07344
3.06436
3.07957
3.07741
3.07151
3.07608
3.0648
3.06716
3.07197
3.06524
3.06029
3.06597
3.06881
3.06962
3.05978
3.06134
3.06295
3.04458
3.0444
3.0529
3.04799
3.0526
3.05929
3.05604
3.05172
3.06608
3.05916
3.06586
3.06399
3.05279
3.05641
3.05837
3.06672
3.07257
3.08684
3.07444
3.06768
3.03864
3.04316
3.0382
3.04766
3.04823
3.05459
3.05151
3.0476
3.05447
3.05035
3.05022
3.05359
3.04209
3.04917
3.04731
3.14336
3.14042
3.13158
3.17568
3.11721
3.12655
3.1225
3.09939
3.11197
3.10764
3.15784
3.16126
3.15899
3.15884
3.14509
3.16133
3.157
3.15499
3.14127
3.16752
3.16853
3.17612
3.22046
3.20996
3.03153
3.03395
3.03602
3.04463
3.04418
3.04243
3.0285
3.03433
3.03279
3.03333
3.03581
3.08831
3.07782
3.07794
3.08472
3.08638
3.12624
3.14413
3.13593
3.13183
3.12007
3.12163
3.12953
3.12887
3.12668
3.12489
3.13279
3.11263
3.11672
3.10827
3.18709
3.18299
3.18769
3.16836
3.16803
3.16113
3.18146
3.17697
3.14167
3.13184
3.14133
3.13623
3.15049
3.15898
3.13241
3.1289
3.04263
3.0429
3.04524
3.03934
3.03072
3.03478
3.03459
3.03616
3.04052
3.04004
3.04262
3.04364
3.04216
3.07301
3.07805
3.07743
3.07435
3.08692
3.09071
3.08085
3.082
3.08381
3.08943
3.08569
3.06966
3.06104
3.0694
3.07096
3.06637
3.06516
3.06174
3.06182
3.05211
3.06152
3.05768
3.05588
3.0432
3.03899
3.04425
3.04701
3.03562
3.03833
3.03556
3.04293
3.05547
3.05454
3.05888
3.05763
3.0492
3.05063
3.04772
3.04931
3.03699
3.03901
3.04762
3.04725
3.04043
3.04162
3.04396
3.04393
3.04731
3.2263
3.2154
3.22585
3.21875
3.23023
3.23356
3.1918
3.18823
3.21328
3.19902
3.20149
3.19828
3.20019
3.19002
3.21019
3.0754
3.07161
3.07354
3.07053
3.06901
3.07059
3.08049
3.06851
3.06936
3.07934
3.13992
3.15347
3.14747
3.15859
3.1555
3.22352
3.22099
3.22647
3.21438
3.22245
3.0782
3.08227
3.07618
3.08035
3.0766
3.08938
3.09123
3.08939
3.08675
3.11809
3.13312
3.12173
3.13275
3.13456
3.13887
3.11937
3.12
3.10062
3.09438
3.09801
3.10675
3.10562
3.10705
3.10398
3.0986
3.10498
3.10095
3.0812
3.07335
3.07671
3.07205
3.07355
3.08357
3.07898
3.18768
3.19189
3.1892
3.18626
3.1672
3.18358
3.19257
3.19444
3.19465
3.19185
3.18681
3.19965
3.20616
3.19838
3.20993
3.21072
3.16268
3.17334
3.1845
3.18263
3.17359
3.19032
3.19723
3.19826
3.19103
3.18749
3.18782
3.19667
3.19742
3.20809
3.21085
3.20436
3.20876
3.21401
3.20507
3.2164
3.21148
3.20033
3.198
3.20298
3.19734
3.20283
3.20373
3.21143
3.19809
3.09918
3.09932
3.10315
3.10649
3.09388
3.10563
3.10413
3.11434
3.11002
3.09249
3.09167
3.09667
3.09629
3.09703
3.08747
3.09095
3.08284
3.07968
3.08764
3.08045
3.08356
3.15998
3.16268
3.15418
3.15448
3.15344
3.14515
3.14273
3.14884
3.14807
3.15388
3.14213
3.14116
3.13674
3.13193
3.12169
3.12225
3.11586
3.11422
3.10479
3.10135
3.09697
3.10184
3.09727
3.1093
3.11374
3.09486
3.09252
3.10314
3.1069
3.10477
3.11617
3.10015
3.08717
3.08789
3.09624
3.10132
3.08848
3.08661
3.08623
3.08328
3.18896
3.18624
3.18136
3.17881
3.18344
3.18191
3.18646
3.17448
3.17751
3.18125
3.1818
3.184
3.18562
3.18448
3.18199
3.18152
3.18087
3.18079
3.17928
3.17236
3.17486
3.16607
3.1181
3.10407
3.10429
3.11343
3.11005
3.11035
3.1161
3.10172
3.09856
3.10185
3.10606
3.10471
3.12487
3.12332
3.09418
3.09981
3.19481
3.18712
3.19171
3.19207
3.19763
3.19467
3.19292
3.19703
3.19714
3.19508
3.19456
3.2039
3.20365
3.19301
3.19798
3.16605
3.16289
3.16683
3.16677
3.16374
3.16688
3.16568
3.16223
3.16188
3.16319
3.16415
3.1667
3.15209
3.16194
3.08832
3.09222
3.08725
3.08202
3.08213
3.08553
3.07972
3.0782
3.08446
3.08923
3.07676
3.10408
3.11728
3.10735
3.10941
3.10707
3.11023
3.10722
3.12561
3.12018
3.11645
3.1209
3.1129
3.18164
3.18414
3.18069
3.18246
3.18401
3.18759
3.18833
3.1211
3.12201
3.11381
3.11407
3.1104
3.11876
3.12277
3.19578
3.19005
3.19159
3.19006
3.19316
3.19323
3.17869
3.17819
3.17633
3.17823
3.17763
3.18055
3.18342
3.17801
3.18073
3.18082
3.17869
3.18187
3.18207
3.18195
3.1907
3.18711
3.18722
3.18598
3.1797
3.18565
3.18524
3.18266
3.17984
3.18617
3.1889
3.18702
3.18268
3.17695
3.18107
3.17621
3.18221
3.18261
3.18661
3.19657
3.19218
3.19536
3.19098
3.19241
3.19203
3.1948
3.18069
3.19154
3.19018
3.19136
3.18959
3.19066
3.18623
3.19661
3.19524
3.19278
3.1096
3.10199
3.09645
3.10347
3.1072
3.09526
3.10256
3.10013
3.09785
3.09733
3.10176
3.10784
3.11336
3.11687
3.10621
3.10231
3.1052
3.11591
3.11534
3.11425
3.1158
3.10801
3.11322
3.13108
3.12376
3.13257
3.13297
3.13868
3.12878
3.12599
3.18921
3.19087
3.18953
3.1949
3.19062
3.19075
3.19129
3.19101
3.18838
3.18385
3.18658
3.19042
3.18959
3.18795
3.18765
3.17437
3.17538
3.16678
3.18164
3.17556
3.17242
3.18026
3.18268
3.17786
3.1751
3.18978
3.19541
3.18851
3.18546
3.18969
3.19255
3.14535
3.14103
3.14814
3.14303
3.13885
3.14773
3.14208
3.19108
3.19149
3.19115
3.19532
3.19404
3.19212
3.18773
3.11633
3.11615
3.11837
3.11884
3.12133
3.12094
3.13429
3.12328
3.1272
3.12269
3.13021
3.13238
3.13621
3.13139
3.12791
3.15497
3.14821
3.15937
3.14908
3.1561
3.15223
3.14179
3.15462
3.14179
3.14945
3.14705
3.14316
3.14908
3.14995
3.15294
3.14828
3.14766
3.15691
3.15459
3.15149
3.1562
3.17418
3.17054
3.16765
3.17085
3.17511
3.16864
3.16849
3.14869
3.16629
3.15983
3.15682
3.1526
3.16075
3.16569
3.15012
3.14842
3.17849
3.1863
3.18513
3.18558
3.18587
3.18805
3.18751
3.17829
3.1815
3.17854
3.17788
3.18736
3.18304
3.18258
3.1832
3.18226
3.18267
3.1787
3.16516
3.17074
3.17124
3.1746
3.17537
3.16859
3.16856
3.1697
3.17237
3.12022
3.1241
3.12403
3.12797
3.12719
3.13426
3.13366
3.13396
3.13624
3.13395
3.16136
3.15637
3.16146
3.16167
3.15461
3.16662
3.1659
3.16079
3.16422
3.1974
3.1963
3.2048
3.19898
3.19968
3.1965
3.20312
3.20134
3.18786
3.19757
3.192
3.19416
3.19788
3.18988
3.19029
3.18998
3.18791
3.18921
3.19057
3.1928
3.19041
3.1962
3.18326
3.18619
3.18544
3.18164
3.1905
3.18926
3.18642
3.19197
3.18348
3.19177
3.18964
3.1941
3.19241
3.18886
3.19643
3.1927
3.18938
3.19013
3.17363
3.17979
3.17408
3.17922
3.17416
3.18708
3.18271
3.18746
3.18635
3.17762
3.17594
3.1987
3.19796
3.20383
3.19774
3.20468
3.19988
3.19528
3.19324
3.19778
3.19676
3.19157
3.19555
3.2026
3.19803
3.19689
3.19895
3.19462
3.2
3.19869
3.20361
3.20812
3.20698
3.20597
3.20812
3.19113
3.18676
3.1877
3.1974
3.19267
3.19308
3.1934
3.18997
3.19076
3.18765
3.18237
3.18814
3.18593
3.18404
3.18553
3.19267
3.18442
3.18848
3.1861
3.17784
3.18809
3.18561
3.1883
3.19063
3.18799
3.18995
3.18848
3.19245
3.19711
3.1902
3.1932
3.19121
3.19883
3.20004
3.18987
3.18429
3.19141
3.17708
3.17053
3.16275
3.17808
3.18168
3.16787
3.17139
3.13529
3.13648
3.145
3.15202
3.1504
3.14155
3.13763
3.15147
3.15221
3.18553
3.19027
3.19669
3.20763
3.20784
3.19965
3.1993
3.20893
3.20986
3.21611
3.1802
3.18947
3.18932
3.18418
3.18506
3.1794
3.18445
3.18569
3.18981
3.19224
3.19275
3.18815
3.19051
3.19833
3.19243
3.19893
3.18601
3.19242
3.18902
3.19231
3.19075
3.17775
3.1802
3.18244
3.20292
3.20691
3.20311
3.20148
3.19609
3.21265
3.20568
3.20277
3.2012
3.20722
3.20753
3.20717
3.20492
3.20133
3.20814
3.20565
3.20378
3.2049
3.20818
3.20678
3.21096
3.20927
3.20735
3.20562
3.20877
3.20762
3.20695
3.206
3.2065
3.20365
3.20102
3.19871
3.20862
3.20827
3.20113
3.19697
3.19424
3.19347
3.193
3.18864
3.20866
3.20819
3.2166
3.21909
3.20682
3.21623
3.20418
3.20979
3.20775
3.21194
3.20892
3.2109
3.20222
3.20826
3.2011
3.21355
3.20833
3.1876
3.20761
3.21224
3.193
3.19926
3.20068
3.20076
3.19441
3.21092
3.20721
3.19804
3.20385
3.2003
3.21309
3.20343
3.22864
3.21373
3.22318
3.22166
3.23484
3.22587
3.22846
3.22756
3.22101
3.23086
3.2342
3.20711
3.2117
3.21103
3.20822
3.21275
3.21168
3.20519
3.20879
3.21084
3.20749
3.20822
3.2091
3.21008
3.21331
3.21255
3.21393
3.21546
3.21314
3.21188
3.21212
3.21427
3.21364
3.21438
3.21237
3.18432
3.1767
3.19046
3.19357
3.19409
3.19108
3.19228
3.18806
3.17873
3.19162
3.18673
3.18724
3.19607
3.19856
3.19876
3.1945
3.20219
3.1975
3.19807
3.19338
3.19837
3.19876
3.19687
3.18839
3.18948
3.19037
3.19892
3.19484
3.19747
3.19385
3.19575
3.19033
3.19831
3.18399
3.18774
3.18624
3.18294
3.18445
3.18125
3.18476
3.18722
3.18551
3.19408
3.19399
3.19158
3.18887
3.19173
3.19152
3.19874
3.19678
3.21315
3.21272
3.21512
3.21925
3.21944
3.21301
3.21984
3.21152
3.21226
3.12766
3.13812
3.13426
3.13738
3.1341
3.12896
3.12358
3.13457
3.12316
3.11919
3.11863
3.16036
3.15961
3.16143
3.15032
3.14935
3.15895
3.15998
3.1568
3.15279
3.17676
3.18686
3.18628
3.19419
3.18476
3.19765
3.1843
3.19783
3.20056
3.1571
3.15578
3.16025
3.15257
3.16091
3.17
3.17288
3.14766
3.14771
3.11316
3.10512
3.12016
3.13308
3.11976
3.11411
3.12616
3.13246
3.12373
3.12573
3.09512
3.10063
3.10295
3.11446
3.1917
3.18655
3.1874
3.18231
3.18107
3.18557
3.18163
3.18708
3.18929
3.0918
3.08011
3.07296
3.07749
3.07951
3.06821
3.07137
3.0744
3.08284
3.07179
3.07289
3.07296
3.08139
3.07539
3.18775
3.18898
3.18551
3.18006
3.17348
3.17418
3.18085
3.17311
3.17463
3.17917
3.19609
3.18676
3.18658
3.18678
3.20201
3.19793
3.20679
3.20101
3.2048
3.20106
3.20736
3.20323
3.20652
3.16765
3.16955
3.17131
3.16188
3.1702
3.16538
3.1753
3.16793
3.16187
3.17951
3.16464
3.16132
3.15811
3.16025
3.17655
3.1683
3.17478
3.17118
3.06634
3.06055
3.05526
3.06065
3.0607
3.0559
3.06426
3.06554
3.05533
3.05879
3.0766
3.07885
3.07839
3.0724
3.08128
3.07069
3.06979
3.07096
3.2012
3.20368
3.19694
3.21003
3.20613
3.19833
3.19458
3.18642
3.19751
3.19976
3.18919
3.19551
3.21263
3.20689
3.18948
3.20588
3.19353
3.1931
3.21261
3.21181
3.21359
3.21628
3.21421
3.21476
3.21448
3.21567
3.21592
3.20982
3.20817
3.20942
3.2108
3.20973
3.21407
3.21199
3.20895
3.21312
3.20921
3.20725
3.20308
3.22641
3.19827
3.20322
3.20339
3.20157
3.19971
3.19941
3.19745
3.19639
3.19679
3.20595
3.2048
3.20531
3.21127
3.20762
3.20939
3.21087
3.21091
3.2138
3.21087
3.20773
3.20819
3.21065
3.21
3.19275
3.20294
3.19928
3.20627
3.19555
3.19762
3.18935
3.20481
3.20272
3.19245
3.18288
3.18481
3.18353
3.19657
3.19761
3.18273
3.16965
3.17366
3.1765
3.18455
3.18411
3.17937
3.17295
3.18055
3.18411
3.17143
3.17774
3.1784
3.18633
3.18476
3.17727
3.17237
3.19878
3.19529
3.17868
3.17075
3.18002
3.16813
3.17076
3.17282
3.18069
3.16811
3.16492
3.1733
3.1771
3.19278
3.18703
3.19292
3.19798
3.18824
3.19057
3.19018
3.18542
3.17945
3.19773
3.20034
3.1746
3.1767
3.1797
3.17316
3.19239
3.1828
3.19347
3.20194
3.20056
3.20061
3.19963
3.20144
3.2007
3.1975
3.19874
3.20277
3.20333
3.20898
3.20641
3.20654
3.20686
3.20705
3.20603
3.20783
3.17805
3.17797
3.19039
3.17632
3.17637
3.15318
3.16974
3.16627
3.15556
3.16215
3.16909
3.17118
3.16284
3.16553
3.16475
3.15887
3.1767
3.17137
3.16862
3.16997
3.16061
3.16693
3.15986
3.15565
3.16634
3.1561
3.15653
3.14665
3.14642
3.15658
3.15135
3.15939
3.15828
3.14837
3.1519
3.16248
3.16538
3.16499
3.16581
3.17017
3.16418
3.16091
3.16847
3.17183
3.16998
3.13983
3.14721
3.18953
3.19139
3.19895
3.19963
3.18938
3.19942
3.20021
3.19837
3.19556
3.19136
3.17894
3.18395
3.18266
3.17413
3.17915
3.17167
3.18415
3.18093
3.17942
3.18823
3.19242
3.19143
3.19059
3.19161
3.19091
3.18789
3.19451
3.19179
3.19079
3.19178
3.19629
3.19034
3.19097
3.18778
3.19226
3.18728
3.19382
3.19123
3.18471
3.19135
3.19002
3.19238
3.19089
3.19307
3.189
3.16606
3.17136
3.1113
3.11771
3.11899
3.10647
3.09378
3.09249
3.08986
3.0927
3.09681
3.09235
3.09886
3.09019
3.09323
3.10919
3.09975
3.10378
3.10189
3.10259
3.15397
3.1988
3.19055
3.19318
3.19246
3.19676
3.19222
3.19314
3.19547
3.19147
3.19057
3.19283
3.19622
3.1997
3.19231
3.19375
3.19906
3.19305
3.19711
3.19749
3.1928
3.19274
3.19911
3.19434
3.18381
3.18468
3.11971
3.10731
3.11324
3.1269
3.12121
3.11992
3.12022
3.12048
3.12334
3.17682
3.17091
3.17275
3.16972
3.1684
3.1723
3.16433
3.17157
3.17079
3.1655
3.16766
3.10647
3.09873
3.09544
3.09905
3.12525
3.13054
3.12375
3.13149
3.13012
3.13524
3.13789
3.13412
3.13127
3.13392
3.14535
3.10426
3.10051
3.11177
3.10324
3.10696
3.11462
3.11184
3.10678
3.11157
3.19633
3.19733
3.19095
3.19666
3.19595
3.19088
3.19483
3.19532
3.19228
3.19947
3.19309
3.19083
3.19273
3.17774
3.172
3.1764
3.17755
3.18064
3.16799
3.16744
3.16773
3.17124
3.17426
3.16663
3.17898
3.17668
3.13366