/*--------------------------------*- C++ -*----------------------------------*\
| =========                 |                                                 |
| \\      /  F ield         | OpenFOAM: The Open Source CFD Toolbox           |
|  \\    /   O peration     | Version:  v1612+                                |
|   \\  /    A nd           | Web:      www.OpenFOAM.com                      |
|    \\/     M anipulation  |                                                 |
\*---------------------------------------------------------------------------*/
FoamFile
{
    version     2.0;
    format      ascii;
    class       surfaceScalarField;
    location    "50";
    object      phi;
}
// * * * * * * * * * * * * * * * * * * * * * * * * * * * * * * * * * * * * * //

dimensions      [0 3 -1 0 0 0 0];

internalField   nonuniform List<scalar> 
41404
(
2.57037e-09
6.91006e-09
-4.32733e-09
-5.01004e-09
-8.9263e-09
4.76615e-09
9.17036e-09
-4.36135e-09
-2.33854e-09
3.5199e-09
3.17995e-09
-3.07503e-08
-1.16401e-09
4.78462e-09
-9.11503e-09
4.82227e-09
-2.64574e-08
3.00301e-08
-9.59428e-09
-2.95508e-08
2.78709e-08
-1.24777e-08
1.46371e-08
3.40926e-09
-6.84285e-09
-2.64875e-08
-2.72256e-08
1.59075e-08
-1.15962e-09
1.04359e-09
-3.78634e-08
-5.46995e-09
1.45656e-08
-1.59383e-08
1.39607e-08
-1.83871e-08
-7.28689e-09
-2.45792e-09
1.26733e-08
-5.99938e-09
5.36183e-09
-1.65853e-10
-2.91612e-09
-1.27632e-09
4.3582e-09
-1.74175e-09
5.51683e-09
-3.94105e-09
-5.24402e-10
4.21703e-09
-5.4345e-09
-1.37527e-09
-1.63366e-09
9.26893e-11
-1.1246e-09
3.48377e-09
-3.75414e-09
1.39482e-09
-2.48348e-09
-1.63999e-11
-1.36921e-09
3.57661e-09
-5.21038e-09
3.31672e-09
5.627e-10
-3.51506e-09
2.68644e-09
2.65844e-10
-1.29551e-09
7.59872e-10
-3.21855e-09
-3.21629e-09
-3.21572e-09
-1.2348e-09
-3.79367e-09
-2.74157e-09
5.98134e-09
5.53939e-10
1.96982e-09
-3.22288e-09
-2.54059e-09
6.98805e-09
-1.84328e-09
-8.07135e-09
2.92659e-09
4.68374e-09
-4.3725e-10
-2.54849e-09
2.70637e-09
5.82353e-09
-6.09424e-10
3.07215e-11
4.36317e-10
-5.50248e-09
4.75176e-09
6.62785e-09
-6.69588e-09
9.44812e-09
-1.99006e-09
4.4291e-09
3.18651e-09
1.83246e-09
-4.04749e-09
2.71417e-09
1.7696e-09
-2.59729e-09
-1.91655e-09
4.66317e-10
2.16538e-09
-6.07214e-11
-3.40754e-09
3.58282e-09
-1.99593e-09
3.58007e-10
-4.05591e-09
-1.96174e-09
-7.13169e-09
1.31493e-08
-6.36206e-09
-3.72026e-09
6.02647e-09
6.25862e-09
-1.03303e-09
-1.61221e-08
1.08964e-08
-1.36218e-08
1.79187e-08
-1.17087e-08
-6.88154e-09
1.14585e-08
-3.25538e-09
-1.23391e-08
3.88574e-09
3.74089e-10
-9.99156e-09
-9.62569e-09
4.87248e-09
8.34857e-09
-1.17399e-08
-1.27308e-08
-6.49496e-09
1.22167e-09
1.40425e-09
-1.47808e-08
-7.4832e-09
-1.43384e-09
-3.42211e-09
1.75493e-09
9.36223e-09
-3.48864e-09
-7.62851e-09
9.31209e-09
-1.36895e-08
-2.11021e-10
4.58834e-09
-6.72844e-10
-1.25883e-09
9.95366e-10
-2.34321e-09
8.41018e-09
6.39061e-10
-6.70597e-09
1.00891e-08
-1.02912e-09
-1.14031e-08
-1.44943e-09
8.93821e-09
2.60024e-09
-9.12022e-09
8.13317e-10
6.85734e-09
1.03827e-09
-1.11876e-08
2.04944e-08
-3.77655e-09
-1.24871e-08
-4.23062e-09
-2.37053e-09
1.73128e-08
5.5522e-09
1.63568e-09
-6.73438e-09
6.13688e-09
-5.44832e-09
1.061e-08
5.86883e-09
-9.9457e-09
5.48886e-09
-3.21415e-09
-8.06788e-09
1.33592e-08
-3.45136e-09
-1.83992e-09
5.77482e-09
-7.74204e-09
-6.10065e-09
6.12074e-09
7.5446e-10
-1.10043e-09
8.09192e-09
1.1388e-08
-5.50588e-09
-1.8285e-09
-4.07702e-10
1.61263e-08
-5.39545e-09
-4.862e-09
2.84299e-09
1.09128e-08
-8.32008e-09
8.41349e-09
9.07741e-09
-9.68572e-09
8.63179e-11
-8.08139e-09
1.89437e-09
-3.60297e-09
-1.0349e-08
-1.74861e-09
-1.11506e-08
-5.07145e-09
5.49921e-10
8.77945e-09
7.10945e-09
-1.64389e-08
6.95601e-09
-1.14487e-08
5.04263e-09
-1.35394e-08
1.50449e-08
-1.18544e-08
1.51849e-09
-5.06271e-09
1.05003e-08
-3.24141e-09
-4.95835e-09
9.17116e-10
-9.55925e-09
2.16538e-10
-7.74676e-09
-8.42131e-11
1.42312e-08
8.51628e-10
-1.74805e-08
2.39773e-09
-6.30633e-11
-8.72978e-10
1.51673e-08
1.25604e-08
-1.41356e-08
2.4268e-09
-6.84175e-10
1.31815e-08
-1.93347e-08
-4.51579e-10
1.89133e-08
-1.51652e-08
7.98866e-09
-6.95906e-09
9.45249e-09
1.33409e-08
-2.01117e-08
-2.68163e-09
1.28002e-08
1.50474e-09
-4.85243e-09
1.00759e-08
1.12182e-08
-7.95315e-09
7.71097e-09
-2.50314e-10
-1.20253e-08
-7.05898e-09
-6.51255e-09
1.27445e-08
-7.13821e-09
2.38237e-09
-5.37027e-10
1.25973e-08
1.95993e-08
-5.23055e-09
-1.28639e-08
5.37503e-09
-5.76176e-09
-1.16385e-08
2.27988e-08
-6.72444e-10
-1.67511e-08
-3.20123e-10
-1.23376e-08
1.21207e-08
-1.83283e-08
1.75566e-08
-1.68623e-08
-2.61354e-09
-2.89557e-09
5.63266e-09
1.57497e-09
1.93338e-08
-7.61999e-09
-2.04177e-08
8.70377e-09
2.69189e-08
1.6033e-08
-2.36181e-08
3.1712e-09
-1.53245e-08
1.61315e-09
1.05401e-08
-7.86878e-09
1.80591e-08
1.67287e-08
2.56499e-09
-3.88446e-09
-6.54962e-09
3.40445e-09
-4.9862e-09
-1.18333e-08
1.34148e-08
-9.6293e-09
1.55987e-08
4.50675e-09
5.43327e-09
-2.03815e-08
1.04412e-08
-1.06195e-08
3.20632e-09
2.33813e-08
-1.59684e-08
-7.71621e-09
4.6438e-09
-7.54713e-09
1.1938e-08
-1.3753e-08
1.0717e-08
1.18488e-08
3.18938e-09
1.03262e-09
2.15353e-08
-7.61199e-09
-3.33233e-09
1.09342e-09
1.26746e-08
-1.80138e-09
3.54569e-09
-8.70378e-09
-1.45597e-09
1.12528e-08
-2.3818e-10
4.32549e-09
2.57462e-10
2.78362e-09
3.19848e-10
1.03425e-09
1.48744e-09
-5.40748e-09
3.43014e-09
-5.44262e-09
5.02058e-09
3.36325e-09
-1.89104e-09
7.0417e-10
1.68474e-08
6.24698e-09
5.11395e-09
-2.82082e-08
1.27334e-08
1.76635e-08
-1.35493e-08
-1.12358e-08
8.12832e-10
2.31565e-08
8.48727e-09
-1.34761e-08
-1.296e-08
2.24507e-08
8.17284e-09
9.16194e-09
-1.70078e-08
-7.43033e-09
2.08837e-08
-2.1395e-09
-1.13137e-08
2.3707e-08
-2.19753e-08
-4.58559e-10
2.02696e-08
1.07285e-09
2.24057e-08
8.42966e-10
1.98156e-08
-1.34678e-08
5.76917e-09
-3.35135e-09
1.9988e-08
1.82823e-09
2.42107e-08
1.50478e-08
4.0517e-09
2.45792e-08
-2.93514e-09
-2.09236e-08
6.68838e-09
7.16323e-09
7.07224e-09
-9.24239e-09
2.1651e-09
-1.38463e-08
1.42203e-08
-5.81718e-09
-1.76454e-08
1.16467e-08
9.26209e-09
-1.28843e-08
9.11142e-09
1.09363e-08
-4.16871e-09
-6.55045e-09
4.23514e-09
-9.84779e-09
1.70707e-08
-1.14577e-08
-1.20942e-08
-1.044e-08
2.67695e-08
-1.60171e-09
8.32155e-09
-1.72666e-08
-6.55138e-09
1.52653e-08
3.97724e-10
1.99179e-08
7.58743e-09
-1.04346e-08
1.27032e-08
-8.55027e-09
1.06666e-08
-4.51467e-09
-2.53557e-09
-1.59696e-08
1.26526e-08
5.8532e-09
-1.50589e-08
7.00415e-09
5.51945e-09
-1.61551e-08
1.18709e-08
1.1295e-08
-7.01026e-09
-6.67783e-09
-1.78269e-08
1.11158e-08
1.33891e-08
6.13399e-09
-2.78706e-08
1.79705e-08
5.17544e-09
-4.09583e-09
-1.90498e-08
2.76494e-08
-2.56484e-08
-7.80899e-09
-7.88643e-09
-2.13134e-09
5.6607e-09
7.84905e-09
-2.23631e-08
8.85359e-09
-1.74415e-08
1.34335e-08
9.66885e-09
-8.1462e-09
-2.83329e-09
1.3733e-08
-1.36928e-08
-1.45006e-08
2.00876e-08
1.27879e-09
5.7207e-10
-5.04679e-09
3.19585e-09
2.86192e-09
2.10334e-09
-3.68641e-09
-7.07045e-10
3.07912e-10
7.18588e-09
-6.78672e-09
2.88777e-10
7.28596e-09
-8.28163e-09
3.97284e-09
-1.23432e-09
-1.48024e-09
-1.25813e-09
2.43654e-09
-1.83479e-09
2.26034e-09
2.1862e-10
3.1133e-09
-3.04283e-09
2.96305e-09
-2.03125e-10
2.34143e-09
-1.6574e-09
2.43333e-09
4.0294e-09
-4.80492e-09
3.42323e-10
3.31396e-09
-5.31338e-09
-1.00373e-09
-1.79957e-09
6.01191e-09
-3.2087e-09
-1.64251e-09
-4.22681e-09
4.86547e-09
2.20849e-09
-9.08251e-09
5.23133e-09
-6.9896e-09
7.39844e-09
-3.96278e-09
-4.96717e-09
4.70292e-09
-5.19443e-09
9.69041e-10
2.62414e-10
-5.7981e-09
2.30467e-09
-1.4739e-09
-2.56523e-09
-8.42736e-09
5.86334e-09
9.66377e-09
-5.55737e-09
-9.96994e-09
-9.14548e-10
-1.41683e-09
4.0909e-09
-4.75796e-09
7.33867e-10
4.99301e-09
4.95948e-09
-1.30821e-08
-6.55491e-09
1.63451e-09
3.50346e-09
-6.3534e-09
-1.15022e-09
5.59211e-09
-5.78593e-09
1.34365e-09
-3.64288e-09
2.5363e-09
-4.38654e-11
1.55062e-09
2.89302e-09
1.14832e-09
-1.19116e-09
-7.94814e-10
-3.80015e-09
-1.50012e-09
-3.33403e-09
-5.74319e-09
7.07118e-09
1.33756e-09
-2.66567e-09
-1.95601e-09
-4.58222e-09
5.60265e-09
3.01898e-09
4.86151e-10
-4.64111e-09
9.75751e-09
-2.86667e-09
-3.43007e-09
6.78263e-09
-3.58843e-09
3.61475e-09
-1.06933e-09
1.69095e-11
6.61965e-11
-9.50868e-09
4.80129e-09
-5.59873e-09
2.2346e-09
-8.18269e-09
6.81798e-09
-8.14404e-09
1.27074e-10
-2.87965e-09
-5.43016e-09
-3.64431e-11
-7.71151e-09
5.79169e-09
-5.92633e-09
-2.54874e-09
2.87602e-09
-3.36877e-09
-2.43056e-09
3.1097e-09
-4.64633e-09
3.55816e-09
-3.81751e-09
-5.98853e-11
3.08708e-09
1.75242e-09
6.91449e-09
-5.03805e-09
3.35559e-09
4.76991e-09
2.00961e-09
-8.29181e-10
2.56858e-09
6.86483e-09
-3.84521e-09
1.45836e-09
5.74309e-09
-2.42008e-09
5.8461e-10
-4.43062e-09
1.06812e-09
5.93129e-09
-4.47964e-09
4.11562e-09
-3.1794e-09
5.70581e-09
1.27706e-10
-3.46257e-09
-3.61568e-09
3.89891e-09
-4.51239e-10
-2.78191e-09
-2.29009e-10
-1.77745e-11
-3.06937e-09
-4.18516e-10
-3.04805e-09
2.17307e-08
-2.68238e-08
2.04488e-08
-1.53556e-08
-8.29283e-09
2.4299e-08
5.72456e-09
-5.43187e-09
2.31819e-08
-1.59369e-08
-1.8131e-09
1.82761e-08
-6.1724e-09
-3.89274e-08
-3.15492e-09
1.31383e-08
1.07655e-08
-5.38171e-09
1.5065e-08
2.96327e-08
-3.03991e-09
-1.48614e-08
-1.78423e-10
1.80799e-08
3.74967e-08
-6.34336e-09
-9.15771e-09
-2.19955e-08
-6.71775e-09
3.52634e-08
8.95108e-09
-3.02142e-08
1.81147e-08
-1.90466e-08
-1.75111e-08
-3.78027e-08
1.25837e-08
1.39905e-09
-3.35382e-09
8.66017e-09
-6.7078e-09
-3.39101e-09
-2.95198e-09
7.74111e-09
-5.47555e-09
-1.26997e-09
8.27293e-09
-2.82781e-09
1.66293e-08
-2.77525e-09
3.23088e-09
-6.25681e-09
2.73743e-10
5.20187e-10
5.46288e-09
1.23153e-10
-6.00333e-09
-3.76716e-10
-7.31356e-09
8.12265e-10
-7.62515e-10
7.26364e-09
8.36562e-09
-8.0035e-09
-7.67577e-09
5.33981e-12
9.17255e-09
-7.68444e-09
4.98997e-10
6.50028e-09
6.85184e-10
6.62852e-09
1.04147e-09
8.34248e-10
-8.50419e-09
4.08624e-09
-5.1422e-09
-7.70199e-09
7.2132e-09
-4.27837e-09
6.83839e-10
4.1147e-09
-4.01147e-09
-1.43686e-10
-6.01617e-09
6.70533e-09
8.76527e-09
1.36552e-09
-9.08934e-09
1.26075e-09
-4.78994e-09
5.27404e-09
-1.40992e-09
-8.97746e-09
2.68542e-09
-7.76627e-09
3.53092e-10
-5.84992e-10
-1.18638e-10
-2.37099e-10
-7.37476e-09
-1.2318e-09
-6.77158e-09
4.35508e-09
-4.7526e-09
-2.41372e-10
4.98667e-09
-5.9774e-09
-1.16588e-08
-4.53504e-09
-3.98297e-09
-9.59506e-09
-2.62957e-08
7.67547e-09
-2.32479e-08
-9.94018e-09
1.44178e-08
3.1348e-09
-7.88837e-09
-9.66407e-09
-8.44583e-09
1.34996e-08
9.36398e-09
-2.62708e-09
-2.68362e-09
-8.32548e-09
-3.3122e-09
6.80768e-09
4.83033e-09
-1.88937e-08
-1.83436e-09
1.60908e-08
4.63727e-09
-1.08096e-08
1.16221e-08
-1.97061e-08
-6.64523e-09
-4.30695e-09
1.02163e-08
-3.45604e-10
-2.06801e-08
4.93647e-10
-8.79662e-09
-1.72067e-08
2.23458e-08
3.65769e-09
-1.54319e-08
3.32302e-09
1.94829e-08
2.22767e-09
-1.00884e-08
1.83672e-08
7.82727e-09
-1.48183e-08
-5.377e-09
3.23211e-08
-5.72397e-09
-5.94969e-09
-2.06463e-08
8.91299e-09
2.42099e-08
-8.01661e-10
-5.14948e-09
-1.91163e-08
1.85422e-08
1.18022e-08
-2.84592e-10
-1.7467e-08
1.75776e-08
1.1378e-08
-1.71534e-08
2.30595e-08
3.43174e-09
1.23032e-08
2.44874e-08
-1.25807e-08
8.98885e-09
-1.44223e-08
1.22857e-08
1.2847e-09
9.48933e-09
1.50079e-08
2.84164e-08
-4.11427e-09
-3.93101e-08
-2.72947e-08
2.2013e-08
1.42708e-08
2.7423e-09
2.18464e-08
-1.79328e-08
1.10974e-08
8.11972e-09
7.72554e-10
-7.32771e-09
-6.44836e-09
2.0288e-08
2.30261e-08
-7.28823e-09
-1.49656e-08
3.15855e-08
1.00917e-08
-1.04236e-08
-1.5678e-09
1.89956e-09
-1.03679e-08
1.6188e-08
4.27168e-09
-1.26417e-08
-3.43033e-09
5.70397e-09
-1.07391e-08
-1.23262e-08
6.81496e-09
5.24414e-10
-8.90725e-09
-1.74615e-08
6.41126e-09
-1.0967e-08
-2.23096e-08
4.8592e-09
2.84173e-08
-1.99826e-08
-8.44581e-09
2.88281e-09
-1.52991e-08
1.67706e-09
-4.20388e-09
2.21917e-10
-1.83277e-08
-2.13035e-08
1.50262e-08
-1.25696e-08
-2.23509e-09
6.19993e-09
-6.49828e-09
1.49869e-08
-6.0176e-09
-6.58686e-09
7.64813e-09
3.06867e-09
4.27002e-09
8.81998e-09
1.14255e-08
-1.05959e-08
7.22992e-09
6.43461e-09
-6.01089e-09
-1.06026e-08
-1.53756e-09
-4.94675e-09
1.53042e-08
-5.42638e-09
-9.81395e-09
1.37028e-08
-5.09385e-09
-1.71462e-08
1.72933e-08
3.80548e-09
-2.96976e-08
2.07983e-08
-1.74376e-08
1.58168e-08
5.09328e-11
-2.63498e-09
1.0544e-08
-1.91684e-08
-7.74508e-09
-1.36255e-08
-8.32696e-09
-1.27705e-08
-1.31376e-08
-4.24904e-09
-1.62191e-08
-1.18896e-08
1.22723e-08
3.91437e-09
-4.297e-09
5.62233e-09
2.06441e-09
-1.95764e-08
-6.36929e-09
-1.51091e-09
-6.05268e-09
1.39329e-08
-5.24357e-09
-1.18613e-08
1.07356e-08
-9.65578e-09
1.41804e-08
7.74771e-09
7.06165e-09
-1.10952e-08
8.00084e-09
-1.118e-08
1.11471e-08
7.68118e-10
1.2626e-08
-7.07514e-09
2.75326e-10
-1.2127e-09
8.90732e-09
-7.96998e-09
-1.76069e-09
1.4662e-08
1.08112e-09
-9.68281e-09
7.38893e-09
1.35008e-08
2.0621e-09
-5.97864e-10
2.02977e-08
1.42262e-09
-2.29571e-08
1.23694e-09
8.14858e-10
-4.03464e-09
2.35175e-08
-2.19152e-08
2.73674e-08
4.62419e-09
-2.51166e-08
2.23021e-09
-2.34083e-08
-1.77895e-09
5.65973e-09
-8.44633e-09
-2.16522e-08
2.44391e-08
-2.01927e-08
1.66518e-08
-1.88328e-08
8.70323e-10
-1.41153e-08
-3.63323e-09
-1.2052e-08
1.06173e-08
-6.60282e-09
8.03791e-09
-2.16818e-08
1.18359e-09
4.31098e-09
-1.33998e-08
-7.70354e-09
-8.6655e-09
4.74369e-09
-2.28903e-09
-1.01579e-08
4.33132e-09
-1.84204e-08
-2.79276e-09
-2.82352e-09
3.25432e-09
2.36217e-09
1.00337e-09
-3.75957e-09
-3.64695e-11
3.78849e-10
3.21419e-09
-6.41642e-09
-3.00851e-09
4.05125e-09
-3.91365e-11
5.35998e-10
-8.52696e-09
5.85556e-09
2.13555e-09
2.35781e-09
2.58619e-09
-3.72962e-09
-1.2144e-09
-8.90542e-09
7.57001e-09
3.69324e-09
-9.36902e-10
-7.23825e-09
-7.3024e-10
1.81978e-09
-5.36731e-09
4.08355e-09
3.42518e-09
4.5237e-09
-4.93401e-09
-2.04771e-09
8.49756e-09
-1.51573e-09
-1.08921e-09
-5.54652e-09
1.70188e-09
-4.17403e-09
7.63295e-11
-4.7203e-09
6.09778e-09
-2.98992e-09
-2.19025e-10
-2.33752e-09
-5.34415e-09
-2.35313e-09
-2.92571e-08
1.33404e-09
3.09973e-08
-3.07424e-09
-2.9643e-08
-1.62654e-08
1.66513e-08
-1.26216e-08
-2.48867e-08
7.86533e-09
-2.4179e-08
2.22419e-08
3.12536e-09
-1.18827e-09
-1.27459e-08
1.52063e-08
-1.12637e-09
1.63091e-08
-5.41322e-09
3.2701e-09
-3.22638e-09
3.39813e-09
-1.61987e-08
-1.13784e-08
-3.63937e-09
1.53659e-08
-8.32849e-09
-3.96648e-10
-9.07912e-09
-5.89498e-09
-1.84275e-08
8.1237e-09
-2.15862e-08
1.0278e-08
-8.41607e-09
2.45603e-09
-8.26681e-09
1.4227e-08
-1.25682e-08
-3.85354e-09
8.00644e-09
6.95535e-09
-6.96861e-09
5.76221e-09
-5.74854e-09
-5.17369e-09
1.45852e-08
-7.70564e-09
-2.78213e-09
2.22224e-09
-1.07845e-08
-1.22988e-08
1.47675e-09
-4.83948e-09
7.9726e-09
-8.30651e-09
-5.9486e-09
-1.40317e-09
3.53962e-09
-9.84715e-09
3.59267e-10
-8.73705e-09
1.11606e-09
-2.00387e-09
1.93235e-09
-1.22262e-08
5.28028e-09
-1.68705e-09
-5.59657e-09
2.40509e-09
-7.60231e-09
-2.6795e-09
-5.2438e-09
1.03287e-08
-9.6022e-09
1.22032e-08
-1.60309e-08
1.46084e-09
8.57069e-09
-2.70162e-08
2.0689e-08
7.55849e-09
-1.2313e-09
7.9332e-09
-8.97024e-09
-2.59791e-08
-1.49179e-08
1.95761e-08
-4.80194e-11
-6.9366e-09
-2.0729e-08
9.90039e-09
-3.22351e-08
2.53583e-09
-7.12851e-10
5.83882e-09
-2.10642e-08
-9.13699e-09
1.94585e-08
-1.03695e-08
-1.48549e-09
1.09356e-08
-1.07766e-08
1.32654e-09
1.07504e-08
-1.25916e-08
3.55698e-10
-9.84353e-10
2.38608e-09
9.53393e-09
1.02119e-09
8.74492e-09
-7.30294e-10
1.16499e-08
-9.08242e-09
-1.83717e-09
1.32758e-08
-1.12081e-08
-2.79788e-09
3.2196e-09
-3.72199e-09
-1.02742e-08
-1.03133e-09
-8.34066e-09
4.362e-10
-2.01919e-09
1.3233e-08
-2.01263e-09
1.57247e-08
-1.07689e-08
9.77089e-09
-1.08447e-08
1.1877e-09
-1.55118e-09
1.74959e-09
2.66707e-09
-1.52614e-08
3.37527e-09
-1.07081e-08
-8.42498e-09
-9.75793e-09
1.01314e-08
-8.31412e-09
-2.56111e-10
-9.36901e-09
-9.96365e-09
-1.02485e-08
1.99832e-08
2.29036e-10
9.91309e-09
-9.70331e-09
-1.01733e-08
2.20088e-08
-3.54034e-09
-8.5553e-09
9.31174e-09
6.9656e-09
5.73171e-09
-3.06469e-10
7.30462e-09
-3.3277e-09
-3.67038e-09
7.92842e-09
-4.15786e-09
-4.07709e-09
-1.16369e-08
3.53836e-09
-2.14973e-09
-6.98371e-09
-1.43565e-08
1.08846e-08
1.84104e-08
-3.41579e-09
8.34731e-09
2.37304e-09
4.43881e-09
7.37863e-11
7.0154e-10
1.07617e-08
-7.08878e-09
-4.37432e-09
-6.44978e-09
-5.8629e-09
8.77245e-09
5.2231e-09
2.58692e-09
-1.47935e-08
7.68404e-09
-5.78862e-09
6.15146e-09
-4.85324e-09
-5.45604e-09
1.00934e-08
1.12915e-09
-7.41714e-09
1.90033e-08
2.60154e-09
7.98888e-09
-8.7161e-09
-2.22413e-09
4.90036e-09
2.66541e-09
3.4578e-09
-5.97667e-09
-6.32843e-09
7.72897e-09
4.57614e-09
1.98665e-09
-5.03769e-09
-2.92562e-09
7.60467e-09
-2.24909e-09
-3.36893e-09
2.28116e-09
2.11606e-09
3.20743e-09
5.91527e-09
-2.11136e-09
-8.84158e-09
2.46393e-09
-2.87704e-09
1.18729e-08
-5.05522e-09
3.36004e-09
-1.01776e-08
-1.33029e-09
1.6675e-08
-3.47185e-09
5.9659e-09
4.04426e-09
-3.90488e-09
7.56054e-09
-5.90474e-09
2.41558e-09
-8.43182e-09
-6.96392e-09
8.93052e-09
-3.29686e-09
-9.60356e-09
-1.11652e-08
1.08764e-08
1.69639e-08
-5.34126e-09
2.4585e-10
-2.96649e-09
8.68666e-09
-2.7028e-09
7.93876e-09
-4.99004e-09
1.22329e-09
-4.76255e-10
6.81354e-09
2.60478e-09
5.30524e-09
-9.87713e-09
9.77922e-09
2.7668e-10
4.70703e-10
5.23972e-09
-1.04229e-08
4.71262e-09
-6.91364e-09
2.3823e-09
-1.06426e-08
1.5174e-08
7.64048e-09
-1.40834e-08
1.31216e-08
-4.03801e-09
-6.70125e-09
-5.63964e-09
6.85458e-09
-1.18576e-08
-1.62626e-09
-9.19564e-11
1.26534e-08
-1.09352e-08
-1.82944e-09
-1.50419e-08
1.52452e-08
-1.33997e-09
-9.3307e-09
1.05787e-08
-1.01389e-09
-8.49317e-09
8.16708e-09
1.57826e-08
1.14085e-09
-1.37494e-08
-3.17392e-09
3.00069e-09
7.14233e-09
-8.09669e-09
-7.67356e-10
1.00049e-08
2.50043e-11
-1.56038e-08
-9.0856e-09
1.42174e-09
-1.62532e-09
-3.65217e-09
3.85589e-09
-1.07916e-09
-4.50968e-09
7.01074e-09
9.22366e-09
5.39041e-09
-4.19528e-09
-1.04188e-08
3.72038e-09
4.42185e-09
1.08158e-09
2.36497e-09
-7.27183e-09
2.88298e-10
4.61876e-09
-6.83928e-09
8.12513e-09
6.82258e-09
-5.87023e-09
-2.21796e-09
1.26566e-09
3.27105e-09
-4.40758e-09
3.07062e-09
-2.41411e-09
-1.39415e-09
1.56229e-10
-1.52665e-09
-5.15535e-09
2.17237e-09
-4.07062e-09
1.29933e-10
2.78016e-09
2.73705e-09
-2.6799e-09
-2.83713e-09
-1.48096e-09
1.90527e-10
7.89978e-09
6.63694e-10
-3.17294e-09
5.48239e-09
2.43878e-10
-1.03094e-08
-1.1245e-09
-4.67711e-09
-1.75461e-09
3.8796e-09
-6.31559e-09
-1.00178e-09
3.40047e-09
4.33197e-09
-4.9298e-09
7.27581e-09
-6.678e-09
-6.82639e-09
-4.24724e-09
1.54057e-08
-5.9632e-09
-7.31752e-09
6.45437e-09
-1.09829e-08
9.00917e-11
6.8366e-09
-1.39086e-08
2.23042e-09
4.84171e-09
-1.15634e-08
1.41528e-08
3.71518e-10
-1.94352e-08
1.69678e-08
2.09616e-09
-1.57028e-08
2.16569e-09
-1.06188e-09
-8.31251e-09
-1.60841e-09
-6.4699e-09
-4.99475e-09
-7.97048e-09
-5.11404e-09
-1.70587e-08
-5.82428e-09
7.19574e-09
-1.99847e-09
7.40299e-09
-1.20176e-08
2.7017e-09
-7.65588e-09
-1.26742e-08
6.97427e-10
-1.16357e-08
-1.19531e-08
1.01728e-08
-2.18928e-09
-5.67495e-09
-2.30867e-09
5.47242e-09
-4.26143e-09
8.96179e-09
5.67092e-09
-8.14548e-09
-1.50377e-10
2.62485e-09
5.24919e-10
1.06184e-08
-6.29329e-09
-4.0415e-09
7.14861e-09
-5.7676e-09
-7.05594e-09
6.34677e-10
2.25242e-09
3.31029e-09
-5.39563e-09
1.93486e-09
3.1596e-09
-4.62806e-09
4.77871e-09
-3.63058e-09
7.31507e-09
1.8578e-09
-5.00211e-09
-2.25146e-09
-2.65276e-09
-1.17651e-10
4.44443e-09
1.05082e-10
-4.3783e-10
-4.11191e-09
2.11854e-09
-3.26913e-10
-4.68854e-09
1.69258e-09
9.62974e-11
2.14651e-10
-6.07865e-09
2.78207e-10
-6.47526e-09
-4.61889e-09
4.21055e-09
-4.43378e-09
1.64051e-09
-4.8388e-09
9.70224e-09
-9.62072e-09
4.7573e-09
1.21514e-08
-1.58031e-08
-1.18704e-09
2.55874e-09
1.13196e-10
7.03026e-09
2.04235e-09
-7.49843e-09
4.35524e-09
8.01574e-09
-4.85229e-11
1.88181e-09
-9.33168e-09
-8.40944e-09
-3.03839e-09
-6.7914e-09
-1.12388e-08
2.12895e-09
3.45802e-09
-5.47369e-09
2.2767e-09
5.3981e-09
-5.54582e-09
-2.3153e-09
-4.9287e-09
6.77294e-09
4.71065e-10
-5.05081e-09
-1.42572e-09
1.47903e-09
7.96247e-09
1.87228e-09
-8.7122e-09
3.96101e-09
-5.25998e-09
1.26195e-09
3.69954e-11
1.32667e-09
-5.58047e-09
-6.74865e-10
2.3688e-10
7.34216e-09
4.16583e-11
-5.50201e-09
3.35969e-10
-1.47669e-09
-3.74163e-09
-5.96887e-09
6.36445e-09
-1.51168e-09
-9.03716e-10
1.25153e-09
1.16466e-09
-1.80713e-09
7.67086e-10
-4.71447e-10
4.94958e-09
-6.30773e-10
-9.14958e-10
-3.40345e-09
2.82224e-09
6.09407e-10
1.51816e-09
1.06948e-09
3.37229e-09
-1.61946e-09
-3.34863e-09
2.07013e-09
1.88805e-09
-9.7821e-10
-3.00091e-09
1.28552e-09
-1.5805e-09
-1.51147e-09
4.42057e-10
-5.9848e-11
-1.11367e-09
3.43469e-09
-1.76886e-09
2.72523e-09
-1.24022e-09
-8.63275e-11
-6.62077e-10
-3.35685e-09
3.10452e-09
-4.43063e-10
-1.77454e-09
-2.68567e-09
-6.83926e-09
-8.87019e-09
-4.141e-09
1.98504e-08
-5.74912e-09
-1.96153e-08
1.85253e-08
-1.07447e-08
1.71819e-08
-1.53073e-08
2.04964e-09
-1.85069e-08
-1.21979e-08
1.01066e-08
-1.75467e-08
1.46859e-08
-1.67545e-08
-1.12258e-08
-2.07508e-08
1.97787e-08
-2.0023e-08
-3.69931e-10
9.16694e-09
-8.06479e-10
-2.28905e-09
-1.69274e-08
1.49451e-08
-2.59378e-09
-1.31578e-08
1.40066e-08
-6.75724e-09
-3.4464e-08
2.72146e-08
3.54481e-09
-7.08491e-09
-1.96621e-08
8.54754e-09
-9.65387e-09
-3.46242e-09
-6.54595e-09
-1.8648e-08
2.23699e-09
8.27404e-09
-1.40798e-08
-6.68809e-09
1.179e-08
9.09052e-09
-7.32245e-09
-1.3558e-08
1.22359e-08
9.43249e-10
-1.38912e-09
1.88385e-08
8.68618e-10
-1.06165e-08
1.00428e-08
1.46247e-09
7.33317e-09
-6.35526e-09
-4.71724e-09
4.29777e-09
6.77541e-09
1.78662e-10
-9.67662e-10
-5.56577e-09
1.50942e-08
-6.45736e-09
-7.76787e-09
6.98076e-09
1.72853e-09
6.38528e-09
6.93256e-09
1.00911e-08
-1.83403e-09
4.77551e-09
-7.65848e-09
-6.28674e-09
3.95496e-09
2.52131e-09
-1.89347e-10
-1.02929e-09
-4.11664e-09
-1.14082e-09
-2.48908e-09
-5.46e-09
6.91985e-09
-2.03937e-10
-1.06764e-08
3.55822e-09
7.93015e-09
5.76819e-09
6.50623e-09
-4.92791e-09
-1.39928e-09
1.17056e-09
9.6336e-09
-8.50998e-09
5.31069e-09
-5.757e-09
-9.21032e-09
-3.35807e-09
1.14612e-08
-2.52154e-10
2.37323e-09
-8.45003e-09
-3.62646e-09
8.1986e-09
5.25635e-09
-9.13491e-09
1.1718e-08
-4.44635e-09
-5.639e-10
-6.708e-09
3.16724e-09
-1.7127e-10
8.72197e-09
7.00314e-11
5.47338e-09
-6.84981e-10
-4.85826e-09
4.40282e-09
-4.38402e-10
-3.89458e-09
-7.52597e-09
2.61794e-09
8.07507e-09
-7.56958e-09
-7.22233e-09
1.9182e-09
5.13275e-09
-2.89121e-09
-4.89505e-09
-3.83505e-09
6.13684e-10
1.9168e-09
1.30414e-09
-3.64115e-09
2.1666e-09
-2.36048e-09
3.92983e-09
2.15722e-09
-5.60195e-10
-3.76602e-09
2.01452e-09
-3.01287e-09
-6.15188e-11
6.60931e-09
1.78016e-09
-2.5785e-09
2.71653e-09
-3.20525e-09
2.49628e-09
2.62576e-09
-8.57573e-10
-1.81135e-10
4.2149e-09
3.29599e-09
-4.1727e-09
-1.40081e-10
7.46568e-09
-6.45318e-10
-4.42029e-09
-2.40007e-09
6.39854e-10
1.05641e-09
5.76942e-09
1.04788e-08
-6.62717e-09
-4.49697e-09
2.03303e-09
-3.42097e-09
1.13319e-09
3.34419e-09
4.82591e-11
-6.32216e-10
-6.69977e-09
7.28366e-09
-5.76716e-10
-6.0022e-09
4.88285e-10
-6.94846e-09
3.74342e-09
-3.9596e-09
4.53694e-09
-4.3208e-09
-4.25957e-10
4.26581e-09
-9.64476e-11
2.89483e-11
3.2904e-09
-3.89609e-09
-4.56288e-09
3.65588e-09
-4.78575e-09
-1.91037e-10
-3.85849e-09
5.47992e-09
-4.8217e-09
5.229e-09
1.62275e-10
-4.47049e-10
3.55898e-09
-3.66292e-09
3.5727e-09
-3.46871e-09
6.20203e-11
-9.03253e-10
4.39999e-09
5.55756e-10
2.92164e-10
3.79515e-09
-4.64378e-09
-5.31187e-09
6.03806e-09
-1.70812e-10
7.70259e-09
-6.51552e-09
-6.49908e-09
1.04869e-09
6.55261e-09
-4.58607e-09
-3.01526e-09
7.31245e-10
2.02917e-09
2.33841e-09
-5.09833e-09
-3.59965e-09
-6.37675e-09
1.10253e-08
-7.98193e-09
5.11368e-09
7.90105e-09
-3.90955e-10
1.92525e-10
7.56243e-09
-3.07637e-10
1.74583e-10
4.8085e-09
-4.67523e-09
3.66113e-09
-3.83717e-09
-1.3162e-10
2.40598e-10
1.13357e-09
-5.03717e-09
2.07755e-10
3.47805e-09
-1.13153e-10
4.8534e-09
2.31835e-09
-6.93151e-09
-1.60028e-09
-7.11867e-09
-1.25404e-09
3.85606e-09
1.2779e-11
-3.41438e-09
7.1098e-10
-1.11569e-08
6.44428e-09
-2.406e-09
-1.01919e-08
1.35346e-09
-6.92368e-09
2.83142e-09
9.09593e-09
-5.00353e-09
-3.84089e-09
5.85035e-09
-2.0673e-09
5.79063e-11
8.86944e-09
-1.60529e-09
-8.67166e-09
1.40752e-09
2.16933e-09
-5.9972e-09
-1.29164e-11
3.65331e-09
-5.89032e-09
5.58134e-09
-3.34427e-09
5.78763e-09
3.51306e-11
-5.03872e-10
2.44976e-09
-8.78517e-10
-3.41977e-09
-1.59193e-09
1.08291e-09
2.14566e-09
5.50683e-09
-8.73532e-09
-1.32529e-08
4.43937e-09
9.89659e-09
-6.46097e-09
-3.96043e-09
4.11554e-09
7.378e-10
7.28105e-10
5.15721e-09
4.74588e-09
-1.46636e-09
9.02495e-09
-8.43698e-09
8.17132e-09
-1.01416e-08
9.27701e-10
-2.96526e-09
7.19475e-09
1.23285e-08
-7.85312e-09
2.50017e-09
1.42678e-08
6.23226e-09
6.51996e-09
-3.72719e-09
-6.76426e-09
1.01922e-08
4.93499e-10
8.48273e-09
-7.80906e-09
1.11868e-08
-1.18604e-08
-1.47681e-09
1.19101e-08
-1.95068e-09
8.48905e-10
5.95232e-09
6.88258e-11
-6.87011e-09
3.53784e-10
-7.31392e-09
6.32456e-09
-1.84904e-09
6.71191e-09
-2.76705e-10
4.75152e-09
4.93761e-09
1.36845e-08
4.2971e-09
-5.75978e-09
6.81188e-09
-5.34916e-09
-4.2737e-10
4.80481e-09
-8.03611e-11
6.61038e-10
4.69327e-09
-5.28544e-09
-4.74494e-09
4.42583e-09
4.32724e-09
-4.05976e-09
4.18953e-09
-1.91065e-10
3.78118e-09
2.75398e-09
3.35676e-09
5.22923e-09
7.65084e-10
1.22541e-09
2.33686e-09
-5.19776e-09
-1.78648e-10
1.0314e-08
1.89191e-09
6.59932e-09
-3.42121e-09
-3.72235e-09
-5.50437e-09
4.258e-09
4.9687e-09
-3.68305e-09
2.80115e-10
-3.19394e-10
9.70694e-09
-7.82995e-10
-6.93457e-09
-1.98931e-09
3.95465e-09
-1.86274e-09
7.61502e-09
4.8219e-09
-2.75685e-09
-5.74808e-09
-1.46547e-09
-3.52647e-10
8.56526e-09
-3.20385e-09
-3.31121e-09
6.16234e-09
-4.81805e-10
-3.4587e-09
7.36565e-10
-3.50401e-09
-2.8898e-10
8.59702e-09
-3.73764e-09
-1.17939e-08
2.68637e-09
4.04789e-09
-2.9841e-09
-2.39815e-10
3.14139e-09
-9.63589e-09
-5.03071e-09
4.25841e-09
-4.87342e-09
-5.11418e-09
-2.29523e-09
1.06965e-08
-3.28713e-09
-4.99937e-09
4.57673e-10
-5.72475e-10
-6.42078e-09
4.09411e-09
6.42035e-09
-4.09379e-09
-6.92045e-09
9.67354e-09
-9.17388e-09
-6.47e-09
-5.15597e-09
-5.3138e-09
6.82863e-10
-3.68453e-10
5.45412e-09
2.25472e-09
-9.2499e-09
1.54099e-09
-9.93506e-10
1.13381e-09
2.54147e-09
-7.23711e-09
6.95035e-09
-5.54756e-09
1.18023e-08
-3.71325e-09
7.55672e-09
5.89219e-10
-1.34203e-08
5.27488e-09
-9.34532e-09
2.86194e-09
1.40402e-08
-4.2813e-09
2.99661e-09
-3.48801e-09
4.77292e-09
-6.25689e-09
2.56516e-09
1.38994e-08
-1.2552e-08
-1.47674e-08
8.81404e-09
-4.25974e-09
-1.83174e-09
7.69036e-09
2.86494e-09
-5.92724e-09
-3.19423e-09
-9.60093e-10
3.37171e-10
-7.4142e-09
3.99518e-09
5.91727e-09
-2.49793e-09
2.07441e-09
-7.27836e-09
-2.20824e-09
-7.22926e-10
-1.2056e-08
2.2725e-10
-3.70994e-09
5.87352e-09
-2.10038e-09
4.65058e-10
-7.86639e-10
-7.04832e-09
5.57004e-10
3.29539e-10
-6.97951e-09
-3.33979e-09
2.79819e-10
-3.79684e-09
1.38982e-08
3.87558e-09
-7.83398e-09
-9.93967e-09
3.29372e-09
5.6646e-09
4.93992e-09
1.08084e-08
-1.13567e-09
-5.79722e-09
8.28362e-09
5.81859e-09
-1.08096e-08
7.80281e-09
8.67143e-09
-5.00359e-09
-1.364e-08
8.44251e-09
-4.38685e-09
-5.19137e-09
7.44501e-09
9.28115e-09
-1.50931e-09
6.55369e-09
5.86418e-09
-1.09085e-08
6.99383e-09
-1.35067e-08
1.21544e-09
1.51599e-08
-9.38141e-09
1.48051e-08
-7.03604e-09
-2.15447e-08
3.2235e-09
4.47651e-09
1.38447e-08
5.33706e-09
-1.20768e-08
5.19105e-09
-3.71378e-09
1.2353e-08
-1.82484e-09
4.51525e-09
1.10612e-08
1.46849e-08
4.95159e-09
1.14493e-08
5.10969e-10
2.8412e-09
-5.82153e-09
5.99741e-09
-3.017e-09
-5.30115e-09
9.13887e-09
-9.96458e-10
1.77402e-09
4.00923e-09
-1.16047e-08
5.72559e-09
-9.25272e-09
1.68335e-08
-1.96631e-08
1.6942e-08
6.85703e-09
-4.1569e-09
7.28172e-09
6.01412e-09
5.94235e-10
1.24641e-09
6.46432e-09
-8.31795e-09
-6.04644e-09
1.08017e-08
-6.19973e-09
1.44461e-09
-5.30378e-09
1.01529e-09
-1.75785e-09
1.75483e-09
8.32989e-10
-3.81371e-09
-5.74723e-10
-3.62895e-09
-5.69135e-10
-2.57322e-09
-3.22489e-09
4.7691e-10
3.50011e-09
4.4516e-09
-7.38135e-09
-5.70264e-10
-2.92006e-09
6.69112e-09
-2.70809e-10
3.86123e-09
-6.14733e-09
-6.33857e-10
-2.62965e-09
6.85593e-09
-3.65031e-10
-1.16598e-09
4.32778e-09
-2.85694e-09
-3.04893e-10
3.23019e-09
-3.92952e-09
-4.66678e-10
-1.05407e-09
4.54551e-09
-2.61317e-10
-2.02431e-09
-2.48749e-09
4.66037e-09
-1.48543e-10
-4.6702e-09
3.05348e-09
-4.07697e-10
2.44206e-09
-4.57084e-09
-3.58589e-10
9.5678e-10
-6.12765e-09
5.6407e-09
-4.69834e-10
6.59555e-09
-5.2194e-09
-4.19346e-10
5.74164e-10
4.90967e-09
-6.0932e-09
6.09458e-10
-5.92015e-09
5.8222e-09
6.72041e-10
-2.0866e-09
3.92956e-09
-1.94073e-09
9.79748e-11
2.20157e-09
-4.13567e-09
-1.52559e-10
1.61383e-09
2.56795e-09
-2.52006e-10
-3.64532e-09
1.86172e-09
-1.57418e-10
-9.5875e-10
6.20079e-09
-4.89573e-09
-3.46404e-10
-5.06941e-09
4.46638e-09
-3.55806e-10
5.13129e-09
-3.2191e-09
-2.53895e-09
6.26861e-10
-1.66301e-09
-3.04254e-09
4.78672e-09
-8.11458e-11
3.24972e-09
-4.66047e-09
-2.52203e-10
-2.22416e-09
-2.42955e-09
4.27115e-09
3.8247e-10
2.12398e-09
-4.70976e-09
3.61462e-10
4.41712e-09
-2.78941e-09
4.96272e-10
-3.11393e-09
4.44389e-09
-1.23691e-09
-9.30273e-11
8.5223e-10
-3.80157e-09
-1.64726e-10
4.5125e-09
-3.5534e-09
-1.06879e-10
-1.32359e-09
6.16325e-09
-4.52953e-09
-3.10086e-10
5.3356e-09
-6.08723e-09
-5.71973e-10
1.67568e-09
-4.37429e-09
2.22123e-09
4.78327e-10
5.15261e-09
-4.10432e-09
6.27859e-10
-5.24742e-09
-2.19315e-09
7.78192e-09
-3.41435e-10
9.55318e-10
-5.70892e-09
-4.93781e-10
-5.39699e-09
-3.82079e-10
-1.98269e-09
-2.84098e-09
4.52161e-09
3.01825e-10
2.60977e-09
-4.79118e-09
1.98585e-10
-2.51596e-09
4.57182e-09
5.5389e-10
-5.06431e-09
2.01219e-09
5.35817e-10
1.41211e-09
-4.92186e-09
3.16059e-10
-3.85982e-09
4.78756e-09
4.84623e-10
-6.04984e-09
1.7392e-09
4.50757e-10
-3.81571e-09
4.86211e-09
-8.15588e-10
-2.30829e-10
1.03912e-09
-4.54729e-09
-3.07524e-10
4.6756e-09
-3.44313e-09
-1.93342e-10
3.7849e-09
7.03241e-10
-4.44059e-09
-4.77798e-11
-6.60873e-10
4.40925e-09
3.63833e-11
-4.00438e-09
3.45388e-09
-1.10771e-10
-1.70018e-09
-3.56525e-09
5.18638e-09
7.90026e-11
2.72503e-09
-4.31675e-09
-1.08607e-10
-2.59422e-09
5.26198e-09
5.71934e-11
-1.77634e-09
4.93788e-09
-3.11108e-09
-5.05801e-11
4.08721e-09
-5.53496e-09
-3.28816e-10
-3.76294e-09
7.87095e-09
-3.83032e-09
-2.77697e-10
-2.50384e-09
-3.58659e-09
6.41465e-09
-3.24152e-10
-5.74714e-09
-5.19586e-10
-5.89287e-10
-2.20859e-09
2.80943e-09
-1.13322e-11
2.23423e-09
-9.86125e-11
4.59458e-10