/*--------------------------------*- C++ -*----------------------------------*\
| =========                 |                                                 |
| \\      /  F ield         | OpenFOAM: The Open Source CFD Toolbox           |
|  \\    /   O peration     | Version:  v1612+                                |
|   \\  /    A nd           | Web:      www.OpenFOAM.com                      |
|    \\/     M anipulation  |                                                 |
\*---------------------------------------------------------------------------*/
FoamFile
{
    version     2.0;
    format      ascii;
    class       volVectorField;
    location    "200";
    object      U;
}
// * * * * * * * * * * * * * * * * * * * * * * * * * * * * * * * * * * * * * //

dimensions      [0 1 -1 0 0 0 0];

internalField   nonuniform List<vector> 
16797
(
(-0.837624 -0.235631 -0.350025)
(-0.508074 -0.123535 -0.274214)
(-0.749061 -0.153234 -0.441735)
(-0.784758 -0.139478 -0.47197)
(-0.798813 -0.108327 -0.495244)
(-0.792486 -0.115985 -0.496386)
(-0.825862 -0.162395 -0.51645)
(-0.852464 -0.126132 -0.536631)
(-0.754937 -0.170427 -0.45173)
(-0.698824 -0.17852 -0.409279)
(-0.776549 -0.149271 -0.467034)
(-0.828619 -0.153714 -0.513582)
(-0.749153 -0.171739 -0.441226)
(-0.762648 -0.169119 -0.454371)
(-0.726872 -0.184158 -0.446712)
(-0.724054 -0.123836 -0.419003)
(-0.700592 -0.135698 -0.414768)
(-0.729153 -0.119023 -0.425939)
(-0.708777 -0.127964 -0.418564)
(-0.753174 -0.124718 -0.453723)
(-0.75708 -0.146498 -0.464957)
(-0.776925 -0.134039 -0.489608)
(-0.694852 -0.133555 -0.408664)
(-0.859675 -0.128619 -0.553623)
(-0.800461 -0.127043 -0.496502)
(-0.793249 -0.0796245 -0.511812)
(-0.6987 -0.0724366 -0.43088)
(-0.784223 -0.0837368 -0.492148)
(-0.738919 -0.130097 -0.443839)
(-0.798944 -0.108767 -0.484635)
(-0.746122 -0.114483 -0.442025)
(-0.768734 -0.125121 -0.468446)
(-0.855466 -0.268384 -0.372186)
(-0.833137 -0.26244 -0.356902)
(-0.894739 -0.26609 -0.399537)
(-0.839908 -0.255088 -0.363773)
(-0.79507 -0.249304 -0.335678)
(-0.900199 -0.25365 -0.409192)
(-0.853195 -0.231405 -0.366302)
(-0.784616 -0.230246 -0.334854)
(-0.896897 -0.258115 -0.401337)
(-0.865496 -0.253697 -0.374028)
(-0.794983 -0.236262 -0.338939)
(-0.899668 -0.244013 -0.405378)
(-0.87414 -0.236713 -0.381817)
(-0.833549 -0.230723 -0.355261)
(-0.509078 -0.0941245 -0.361993)
(-0.525815 -0.100179 -0.357576)
(-0.506142 -0.10654 -0.311323)
(-0.500046 -0.0994263 -0.318369)
(-0.529412 -0.0937275 -0.355761)
(-0.522874 -0.0913879 -0.354122)
(-0.422795 -0.100597 -0.2576)
(-0.458596 -0.11199 -0.271345)
(-0.45461 -0.0969076 -0.30701)
(-0.462895 -0.101043 -0.291709)
(-0.533009 -0.105423 -0.341619)
(-0.605045 -0.157133 -0.503403)
(-0.583781 -0.159522 -0.488255)
(-0.57683 -0.136612 -0.474675)
(-0.655426 -0.164088 -0.504855)
(-0.611398 -0.162614 -0.502647)
(-0.540392 -0.130573 -0.453978)
(-0.542557 -0.123948 -0.449475)
(-0.669668 -0.154925 -0.500753)
(-0.629186 -0.139167 -0.48291)
(-0.576083 -0.0886156 -0.436551)
(-0.558568 -0.10271 -0.441138)
(-0.62514 -0.151333 -0.505037)
(-0.664834 -0.168912 -0.511288)
(-0.597328 -0.144667 -0.501302)
(-0.632691 -0.13697 -0.496223)
(-0.603776 -0.101251 -0.449786)
(-0.552926 -0.0985774 -0.438866)
(-0.561428 -0.123666 -0.470743)
(-0.641244 -0.134284 -0.4928)
(-0.639705 -0.115359 -0.469871)
(-0.948964 -0.102911 -0.537248)
(-0.949366 -0.107854 -0.532901)
(-0.916876 -0.0996216 -0.53506)
(-0.973126 -0.127765 -0.512777)
(-0.934757 -0.128955 -0.478366)
(-0.868059 -0.116379 -0.480522)
(-0.865506 -0.111681 -0.485319)
(-0.951712 -0.119363 -0.53603)
(-0.922568 -0.0993934 -0.540455)
(-0.962005 -0.129836 -0.503717)
(-0.969475 -0.126896 -0.524561)
(-0.8789 -0.115311 -0.472677)
(-0.855104 -0.0967406 -0.490261)
(-0.890787 -0.106603 -0.510239)
(-0.922977 -0.113392 -0.536608)
(-0.94571 -0.113446 -0.539168)
(-0.872112 -0.101818 -0.477896)
(-0.945517 -0.112474 -0.522506)
(-0.930498 -0.106527 -0.518669)
(-0.47656 -0.199011 -0.408346)
(-0.37456 -0.144848 -0.322455)
(-0.346019 -0.139488 -0.301591)
(-0.406013 -0.159129 -0.350902)
(-0.412433 -0.182104 -0.365538)
(-0.398279 -0.18077 -0.346551)
(-0.356937 -0.157903 -0.306905)
(-0.378762 -0.15956 -0.33008)
(-0.353215 -0.147085 -0.307064)
(-0.77845 -0.0285472 -0.474964)
(-0.777716 -0.0190942 -0.470876)
(-0.838959 -0.0249557 -0.477135)
(-0.836108 -0.00158558 -0.489308)
(-0.819578 -0.0202449 -0.487834)
(-0.74541 -0.0114582 -0.464833)
(-0.869803 -0.0191562 -0.509411)
(-0.776305 -0.0154975 -0.479668)
(-0.731569 0.00842766 -0.471917)
(-0.870833 -0.0143235 -0.48764)
(-0.786063 0.015991 -0.497977)
(-0.791743 0.0211223 -0.504846)
(-0.893081 -0.00423457 -0.527565)
(-0.689306 0.0132656 -0.456096)
(-0.734391 0.0164577 -0.468022)
(-0.87287 0.00396359 -0.522753)
(-0.657762 -0.0645508 -0.438929)
(-0.697895 -0.0821486 -0.450569)
(-0.700664 -0.0863405 -0.449174)
(-0.701046 -0.0924635 -0.428424)
(-0.685321 -0.0861493 -0.424741)
(-0.670198 -0.0909694 -0.427955)
(-0.668077 -0.0899479 -0.425844)
(-0.769941 -0.0926583 -0.488768)
(-0.77336 -0.0950309 -0.488078)
(-0.684855 -0.0779458 -0.434894)
(-0.700621 -0.0938217 -0.435189)
(-0.768717 -0.106371 -0.475733)
(-0.772964 -0.10772 -0.468399)
(-0.384608 -0.0258818 -0.388429)
(-0.409857 -0.0426861 -0.424679)
(-0.402391 -0.0293071 -0.41367)
(-0.41732 -0.0446184 -0.439137)
(-0.464508 -0.0395842 -0.462444)
(-0.461512 -0.0423384 -0.482895)
(-0.396888 -0.0310532 -0.407736)
(-0.424549 -0.0411023 -0.422971)
(-0.506361 -0.072674 -0.503676)
(-0.466258 -0.0599423 -0.461184)
(-0.435891 0.00124343 -0.4328)
(-0.404014 -0.003089 -0.405415)
(-0.489344 -0.0241992 -0.468885)
(-0.469681 -0.00254423 -0.467319)
(-0.506447 -0.048119 -0.501538)
(-0.493136 -0.0608776 -0.485044)
(-0.491668 0.0072935 -0.43911)
(-0.50429 0.00553945 -0.452323)
(-0.4407 -0.0345172 -0.435209)
(-0.517163 -0.0109912 -0.474228)
(-0.527325 0.000788549 -0.469223)
(-0.467904 -0.0013094 -0.430094)
(-0.526933 -0.0541757 -0.451463)
(-0.499718 -0.0515834 -0.442178)
(-0.491506 -0.0627538 -0.437988)
(-0.48608 -0.035156 -0.412077)
(-0.501668 -0.0386815 -0.423451)
(-0.505824 -0.0542553 -0.426634)
(-0.613337 -0.0792919 -0.456818)
(-0.609988 -0.0787438 -0.467653)
(-0.580256 -0.0762336 -0.485957)
(-0.560316 -0.0869927 -0.478993)
(-0.489859 -0.0217354 -0.403618)
(-0.552665 -0.0793943 -0.467959)
(-0.601673 -0.0643636 -0.453841)
(-0.606781 -0.0833585 -0.474918)
(-0.524157 -0.0211389 -0.4073)
(-0.782098 -0.109191 -0.459754)
(-0.801616 -0.125759 -0.460291)
(-0.782385 -0.0894565 -0.452301)
(-0.808576 -0.119662 -0.4589)
(-0.807048 -0.178095 -0.475043)
(-0.724631 -0.149776 -0.495979)
(-0.756367 -0.179185 -0.49229)
(-0.752898 -0.161671 -0.49577)
(-0.755325 -0.202992 -0.49319)
(-0.79514 -0.147251 -0.480083)
(-0.782182 -0.167637 -0.479834)
(-0.723863 -0.110179 -0.479012)
(-0.72796 -0.169431 -0.505673)
(-0.766348 -0.114479 -0.474681)
(-0.708456 -0.0873438 -0.480565)
(-0.790113 -0.160441 -0.429886)
(-0.825692 -0.187674 -0.44091)
(-0.857263 -0.223131 -0.449312)
(-0.849493 -0.220276 -0.446446)
(-0.847471 -0.189074 -0.435623)
(-0.85538 -0.184054 -0.44446)
(-0.85256 -0.227552 -0.444022)
(-0.819317 -0.192152 -0.443422)
(-0.808572 -0.171329 -0.437535)
(-0.769865 -0.140343 -0.434855)
(-0.785171 -0.138951 -0.442423)
(-0.785131 -0.170414 -0.437268)
(-0.779538 -0.142228 -0.431825)
(-0.777816 -0.180339 -0.437295)
(-0.748253 -0.155823 -0.444211)
(-0.772491 -0.165102 -0.437965)
(-0.776441 -0.18719 -0.447005)
(-0.788805 -0.188305 -0.435049)
(-0.814211 -0.209932 -0.435004)
(-0.890848 -0.193656 -0.384558)
(-0.899766 -0.212593 -0.394751)
(-0.876211 -0.211737 -0.371282)
(-0.863827 -0.219807 -0.364849)
(-0.915883 -0.193925 -0.39993)
(-0.841571 -0.202223 -0.363095)
(-0.883338 -0.230994 -0.383271)
(-0.937286 -0.212001 -0.423643)
(-0.941012 -0.191439 -0.44002)
(-0.87588 -0.241467 -0.379332)
(-0.873016 -0.232459 -0.371519)
(-0.928945 -0.201279 -0.408271)
(-0.899458 -0.197609 -0.391601)
(-0.933262 -0.236901 -0.425162)
(-0.950853 -0.212341 -0.435293)
(-0.943197 -0.196075 -0.441488)
(-0.949793 -0.211027 -0.433075)
(-0.934921 -0.209115 -0.434923)
(-0.903784 -0.213008 -0.399968)
(-0.426076 -0.093512 -0.335491)
(-0.450007 -0.0920371 -0.345116)
(-0.424678 -0.095172 -0.331498)
(-0.409058 -0.0974318 -0.331014)
(-0.513615 -0.111372 -0.411774)
(-0.507702 -0.101685 -0.397849)
(-0.457291 -0.115981 -0.395718)
(-0.425607 -0.109799 -0.359159)
(-0.457728 -0.1026 -0.381801)
(-0.510508 -0.117312 -0.418121)
(-0.508795 -0.103374 -0.393806)
(-0.533325 -0.119384 -0.429086)
(-0.493855 -0.10642 -0.403621)
(-0.481149 -0.120937 -0.399049)
(-0.460876 -0.10549 -0.364811)
(-0.491792 -0.129914 -0.418843)
(-0.464507 -0.122723 -0.397958)
(-0.526367 -0.124566 -0.436896)
(-0.422811 -0.0762271 -0.347671)
(-0.401113 -0.0816706 -0.319428)
(-0.429689 -0.0665314 -0.335363)
(-0.42186 -0.0748581 -0.328503)
(-0.453198 -0.0858348 -0.391157)
(-0.429228 -0.0878174 -0.370186)
(-0.426318 -0.0722778 -0.330199)
(-0.398292 -0.0797599 -0.321259)
(-0.433813 -0.0681592 -0.326679)
(-0.442324 -0.0791539 -0.351361)
(-0.432542 -0.0840784 -0.352527)
(-0.481605 -0.0889466 -0.397408)
(-0.4852 -0.0769858 -0.382053)
(-0.488714 -0.0889597 -0.409335)
(-0.482773 -0.0752287 -0.393864)
(-0.454918 -0.0927791 -0.388574)
(-0.669069 -0.096425 -0.429512)
(-0.681112 -0.0931626 -0.43396)
(-0.758713 -0.129817 -0.473287)
(-0.622607 -0.0946308 -0.409686)
(-0.651029 -0.0974707 -0.418824)
(-0.68797 -0.094638 -0.440763)
(-0.700808 -0.0988265 -0.440601)
(-0.725425 -0.109367 -0.460721)
(-0.706835 -0.1232 -0.442221)
(-0.78038 -0.145668 -0.481098)
(-0.732105 -0.137407 -0.454971)
(-0.673859 -0.0924568 -0.431353)
(-0.704863 -0.0961718 -0.453527)
(-0.701124 -0.113137 -0.441314)
(-0.648467 -0.0866039 -0.411657)
(-0.366093 -0.0211198 -0.260178)
(-0.405433 -0.00359135 -0.310327)
(-0.382108 -0.010193 -0.297171)
(-0.382936 -0.0195264 -0.255705)
(-0.357569 -0.0251113 -0.236094)
(-0.340766 -0.015335 -0.248676)
(-0.330478 -0.0201595 -0.235778)
(-0.33443 -0.0154168 -0.233693)
(-0.331074 -0.0181157 -0.228134)
(-0.324403 -0.0225787 -0.217536)
(-0.378659 -0.0215919 -0.254203)
(-0.355219 -0.0192987 -0.241321)
(-0.316375 -0.0251219 -0.217261)
(-0.384866 -0.00535765 -0.279083)
(-0.362743 -0.00946514 -0.253983)
(-0.354307 -0.0123853 -0.243348)
(-0.836535 -0.205962 -0.467725)
(-0.82796 -0.237015 -0.467104)
(-0.823408 -0.207109 -0.474374)
(-0.840997 -0.235031 -0.470956)
(-0.809958 -0.284542 -0.444834)
(-0.82648 -0.262183 -0.465365)
(-0.783778 -0.285954 -0.42342)
(-0.801054 -0.276054 -0.425288)
(-0.822939 -0.263045 -0.404461)
(-0.83577 -0.238222 -0.475337)
(-0.836341 -0.245318 -0.462295)
(-0.86048 -0.201597 -0.455371)
(-0.882687 -0.198963 -0.460419)
(-0.821612 -0.248297 -0.460842)
(-0.817702 -0.273358 -0.410078)
(-0.840115 -0.210932 -0.46816)
(-0.861113 -0.225185 -0.451013)
(-0.866353 -0.218229 -0.452503)
(-0.871823 -0.288424 -0.39245)
(-0.907846 -0.284194 -0.425803)
(-0.904951 -0.266621 -0.419873)
(-0.893866 -0.279685 -0.428408)
(-0.834909 -0.30846 -0.412045)
(-0.885043 -0.287315 -0.435966)
(-0.782974 -0.283279 -0.349145)
(-0.861568 -0.291283 -0.388926)
(-0.809732 -0.295728 -0.365261)
(-0.748752 -0.293284 -0.326256)
(-0.904942 -0.272516 -0.432476)
(-0.843631 -0.279002 -0.375937)
(-0.843434 -0.280787 -0.368424)
(-0.797584 -0.284276 -0.347712)
(-0.784054 -0.304889 -0.365166)
(-0.797824 -0.306411 -0.370205)
(-0.907552 -0.285061 -0.448731)
(-0.877689 -0.303379 -0.433914)
(-0.795591 -0.303381 -0.362452)
(-0.82091 -0.319111 -0.387664)
(-0.903116 -0.283853 -0.431811)
(-0.641802 -0.309415 -0.449475)
(-0.621204 -0.314344 -0.420899)
(-0.709504 -0.324519 -0.453272)
(-0.688152 -0.281568 -0.507003)
(-0.697985 -0.301428 -0.497629)
(-0.722527 -0.223429 -0.500586)
(-0.737246 -0.238407 -0.509028)
(-0.688133 -0.299864 -0.504151)
(-0.766818 -0.263472 -0.499776)
(-0.753079 -0.306011 -0.494501)
(-0.719996 -0.294845 -0.492115)
(-0.729074 -0.287052 -0.506417)
(-0.677526 -0.301331 -0.509442)
(-0.720129 -0.237637 -0.521721)
(-0.689418 -0.275626 -0.52206)
(-0.435785 -0.0949909 -0.309207)
(-0.359423 -0.0886096 -0.232868)
(-0.419723 -0.0946129 -0.280929)
(-0.376157 -0.0904025 -0.24958)
(-0.333282 -0.0866555 -0.206712)
(-0.357906 -0.0886341 -0.22906)
(-0.342722 -0.0860985 -0.213472)
(-0.442375 -0.0965031 -0.281547)
(-0.402348 -0.0977699 -0.248977)
(-0.39163 -0.0987078 -0.239496)
(-0.353491 -0.0896795 -0.21973)
(-0.413852 -0.204645 -0.354182)
(-0.386537 -0.191318 -0.332038)
(-0.480372 -0.228055 -0.400645)
(-0.784403 -0.298547 -0.351375)
(-0.80165 -0.298498 -0.352788)
(-0.818001 -0.320011 -0.391785)
(-0.816677 -0.312984 -0.376965)
(-0.798943 -0.299906 -0.356494)
(-0.830764 -0.294181 -0.374086)
(-0.82296 -0.28877 -0.367737)
(-0.875609 -0.311059 -0.439966)
(-0.880377 -0.313344 -0.442165)
(-0.885983 -0.314128 -0.433001)
(-0.829601 -0.290059 -0.380162)
(-0.862844 -0.311926 -0.418214)
(-0.887872 -0.283688 -0.433744)
(-0.885871 -0.295515 -0.440639)
(-0.88625 -0.291713 -0.413256)
(-0.887349 -0.303457 -0.420073)
(-0.473286 -0.14856 -0.428997)
(-0.480282 -0.151195 -0.438638)
(-0.561979 -0.159141 -0.48182)
(-0.59232 -0.183519 -0.500246)
(-0.550032 -0.183784 -0.487684)
(-0.540247 -0.179942 -0.484426)
(-0.492743 -0.152266 -0.442845)
(-0.474136 -0.108373 -0.405415)
(-0.467259 -0.118735 -0.41213)
(-0.486406 -0.151227 -0.44016)
(-0.472673 -0.12152 -0.411519)
(-0.582047 -0.175839 -0.500818)
(-0.509972 -0.148651 -0.466094)
(-0.588322 -0.146335 -0.496911)
(-0.58601 -0.172881 -0.500559)
(-0.544539 -0.119921 -0.46542)
(-0.384213 -0.069877 -0.241006)
(-0.356397 -0.0657324 -0.226987)
(-0.390989 -0.069886 -0.250034)
(-0.360494 -0.0721556 -0.236889)
(-0.390295 -0.0632245 -0.268628)
(-0.404156 -0.0635161 -0.262089)
(-0.403166 -0.0787072 -0.254253)
(-0.425769 -0.0807574 -0.266426)
(-0.35006 -0.0728407 -0.231261)
(-0.386763 -0.0733921 -0.260089)
(-0.43915 -0.0683479 -0.288015)
(-0.357564 -0.071914 -0.247812)
(-0.350713 -0.0720389 -0.235896)
(-0.342476 -0.0705369 -0.235047)
(-0.327698 -0.0681355 -0.218156)
(-0.353031 -0.0753498 -0.232049)
(-0.326945 -0.0706229 -0.212934)
(-0.440831 -0.0673911 -0.300943)
(-0.414966 -0.055477 -0.297249)
(-0.404376 -0.0684501 -0.298689)
(-0.365211 -0.0730631 -0.250878)
(-0.394626 -0.0785745 -0.256208)
(-0.396723 -0.0704831 -0.285624)
(-0.423152 -0.0742036 -0.284819)
(-0.650933 -0.335721 -0.435692)
(-0.656951 -0.343189 -0.424794)
(-0.691014 -0.325567 -0.468994)
(-0.630315 -0.337159 -0.429194)
(-0.617894 -0.340073 -0.405696)
(-0.66348 -0.334293 -0.434482)
(-0.679911 -0.344265 -0.430309)
(-0.750378 -0.342494 -0.467602)
(-0.702632 -0.342309 -0.42002)
(-0.6645 -0.332087 -0.401231)
(-0.722281 -0.332236 -0.434218)
(-0.656545 -0.344959 -0.412318)
(-0.84019 -0.0438804 -0.478712)
(-0.879358 -0.0499123 -0.488552)
(-0.873239 -0.018611 -0.505836)
(-0.853439 -0.0170592 -0.508467)
(-0.864553 -0.0371879 -0.488075)
(-0.921553 -0.0460058 -0.492184)
(-0.865899 -0.0521433 -0.473047)
(-0.929688 -0.0627902 -0.495091)
(-0.783929 -0.0239532 -0.476817)
(-0.885067 -7.49163e-05 -0.519967)
(-0.889189 -0.0174066 -0.514942)
(-0.945712 -0.0394073 -0.501353)
(-0.871634 0.00110732 -0.517084)
(-0.916223 -0.0255351 -0.519582)
(-0.674285 -0.0100672 -0.455148)
(-0.679307 -0.0139707 -0.46283)
(-0.567758 0.008114 -0.414353)
(-0.684813 -0.000168342 -0.470572)
(-0.657988 0.0016345 -0.469502)
(-0.605403 0.00972473 -0.451407)
(-0.653821 -0.00647238 -0.459594)
(-0.690254 -0.0053446 -0.478263)
(-0.590062 0.00753741 -0.424331)
(-0.583378 0.0204229 -0.434265)
(-0.543584 0.00132634 -0.413806)
(-0.542772 -0.00345556 -0.402823)
(-0.702936 0.000497527 -0.495135)
(-0.70544 -0.00805236 -0.495801)
(-0.58092 -0.00188812 -0.420164)
(-0.593291 0.0221009 -0.442712)
(-0.548141 0.00156437 -0.417267)
(-0.547003 0.00548529 -0.417719)
(-0.843982 -0.0883818 -0.459251)
(-0.837102 -0.0951118 -0.442754)
(-0.891564 -0.102273 -0.466712)
(-0.85692 -0.0984405 -0.462782)
(-0.839069 -0.123449 -0.452668)
(-0.838517 -0.119208 -0.449916)
(-0.878717 -0.140549 -0.453708)
(-0.893915 -0.151924 -0.45207)
(-0.84073 -0.0982834 -0.454124)
(-0.891672 -0.10419 -0.472153)
(-0.88315 -0.114937 -0.461717)
(-0.799462 -0.119422 -0.439479)
(-0.787364 -0.112512 -0.43967)
(-0.86852 -0.139201 -0.452887)
(-0.827221 -0.0940264 -0.471272)
(-0.84452 -0.114377 -0.459262)
(-0.363669 -0.107613 -0.380833)
(-0.349913 -0.0920574 -0.385022)
(-0.493604 -0.0969062 -0.480068)
(-0.521124 -0.11293 -0.499635)
(-0.473498 -0.112677 -0.46705)
(-0.518835 -0.13406 -0.495779)
(-0.374291 -0.11648 -0.400849)
(-0.508473 -0.115584 -0.499105)
(-0.39471 -0.134145 -0.426948)
(-0.377431 -0.0954676 -0.405323)
(-0.396244 -0.0892531 -0.409034)
(-0.398473 -0.0775133 -0.407606)
(-0.500617 -0.166443 -0.494578)
(-0.391075 -0.136318 -0.409169)
(-0.546622 -0.159095 -0.517465)
(-0.440382 -0.0813338 -0.440747)
(-0.442672 -0.0875191 -0.449881)
(-0.474233 -0.136108 -0.484538)
(-0.916757 -0.243483 -0.442005)
(-0.9179 -0.253993 -0.437247)
(-0.907947 -0.227056 -0.451403)
(-0.900287 -0.224235 -0.451845)
(-0.891769 -0.228515 -0.448348)
(-0.908238 -0.237338 -0.450257)
(-0.925009 -0.230271 -0.458595)
(-0.711231 -0.0086964 -0.459766)
(-0.783567 -0.0221547 -0.481278)
(-0.769349 -0.0133612 -0.510247)
(-0.818732 0.00388828 -0.542483)
(-0.820486 -0.0138233 -0.502567)
(-0.839788 -0.00727471 -0.523017)
(-0.62357 -0.00532624 -0.423657)
(-0.701028 -0.0159098 -0.456999)
(-0.829342 -0.0162082 -0.501108)
(-0.856624 -0.0123003 -0.529052)
(-0.766743 0.0141957 -0.495687)
(-0.735162 0.00745016 -0.497268)
(-0.734556 -0.0171964 -0.454236)
(-0.746324 0.00512481 -0.472089)
(-0.74461 0.00578666 -0.495402)
(-0.839951 0.00599632 -0.556019)
(-0.663612 0.00731115 -0.453528)
(-0.826784 0.010725 -0.545947)
(-0.806444 0.0138475 -0.527575)
(-0.810771 -0.00420982 -0.496207)
(-0.797501 0.00600011 -0.526093)
(-0.90126 -0.26904 -0.435453)
(-0.907676 -0.273925 -0.434724)
(-0.907595 -0.277345 -0.432267)
(-0.820267 -0.257692 -0.455946)
(-0.821369 -0.225605 -0.445051)
(-0.846512 -0.269452 -0.446722)
(-0.814383 -0.232868 -0.444275)
(-0.878187 -0.238907 -0.443369)
(-0.886755 -0.248068 -0.448085)
(-0.865788 -0.303182 -0.435636)
(-0.889935 -0.294499 -0.433136)
(-0.837807 -0.257518 -0.460918)
(-0.86938 -0.262538 -0.444378)
(-0.874127 -0.298708 -0.445042)
(-0.869093 -0.292282 -0.444824)
(-0.865865 -0.265855 -0.448663)
(-0.864085 -0.3063 -0.448445)
(-0.876646 -0.303361 -0.446928)
(-0.863898 -0.292116 -0.458571)
(-0.411849 -0.0483359 -0.340894)
(-0.431491 -0.0600309 -0.385763)
(-0.403862 -0.0544561 -0.345494)
(-0.402513 -0.0562821 -0.344788)
(-0.413915 -0.0625662 -0.368674)
(-0.421475 -0.0466102 -0.348078)
(-0.480791 -0.0346127 -0.394614)
(-0.436049 -0.0567426 -0.375324)
(-0.429026 -0.0684747 -0.380095)
(-0.514163 -0.0722298 -0.448882)
(-0.439817 -0.0754947 -0.397043)
(-0.788459 -0.0914997 -0.468257)
(-0.813376 -0.0835204 -0.483973)
(-0.856723 -0.142838 -0.451161)
(-0.877781 -0.138918 -0.462089)
(-0.890257 -0.128767 -0.470653)
(-0.829773 -0.114436 -0.454781)
(-0.77503 -0.0804812 -0.463002)
(-0.779274 -0.0882821 -0.466717)
(-0.840463 -0.129269 -0.45411)
(-0.822626 -0.109034 -0.462539)
(-0.457926 -0.0890459 -0.277758)
(-0.468355 -0.0873352 -0.279705)
(-0.511247 -0.0847654 -0.32095)
(-0.539179 -0.080044 -0.341826)
(-0.473464 -0.0763311 -0.32201)
(-0.436491 -0.0766936 -0.29022)
(-0.419907 -0.0819504 -0.260857)
(-0.447826 -0.0872023 -0.272772)
(-0.391228 -0.0801756 -0.238763)
(-0.504586 -0.0747107 -0.325053)
(-0.484497 -0.0692934 -0.328639)
(-0.512144 -0.0648079 -0.333025)
(-0.501924 -0.0654413 -0.33629)
(-0.494804 -0.0704621 -0.341542)
(-0.436219 -0.0697786 -0.305729)
(-0.39626 -0.0799948 -0.252289)
(-0.475963 -0.0874693 -0.292224)
(-0.515776 -0.070744 -0.336455)
(-0.410443 0.00180626 -0.317342)
(-0.465089 0.00831836 -0.346882)
(-0.441626 -0.00173385 -0.328356)
(-0.473014 0.0151398 -0.353957)
(-0.453313 0.00848192 -0.346141)
(-0.459023 -0.0114367 -0.313889)
(-0.483118 -0.0035915 -0.340175)
(-0.442971 -0.0242491 -0.275883)
(-0.465463 -0.0161194 -0.296605)
(-0.458111 -0.0191292 -0.286642)
(-0.406135 -0.0270841 -0.252184)
(-0.4122 0.00350667 -0.313905)
(-0.488672 -0.00425166 -0.333893)
(-0.423659 -0.0225909 -0.268126)
(-0.450988 -0.010494 -0.292285)
(-0.402618 -0.0216554 -0.257232)
(-0.440957 0.00760306 -0.328168)
(-0.502022 0.00724115 -0.356078)
(-0.451293 -0.00510501 -0.30757)
(-0.436029 -0.0848607 -0.315188)
(-0.449181 -0.0829421 -0.328015)
(-0.451044 -0.0717994 -0.336866)
(-0.44153 -0.0800766 -0.331335)
(-0.493581 -0.0879668 -0.384639)
(-0.41016 -0.0871967 -0.311181)
(-0.511888 -0.082943 -0.401111)
(-0.483801 -0.0768723 -0.382921)
(-0.432455 -0.0834828 -0.325046)
(-0.451256 -0.0809398 -0.353372)
(-0.448824 -0.0964945 -0.374853)
(-0.519246 -0.115616 -0.427657)
(-0.548803 -0.0938678 -0.437768)
(-0.422579 -0.0867071 -0.330837)
(-0.43067 -0.0821443 -0.339515)
(-0.753174 0.0207059 -0.54682)
(-0.720929 0.0167827 -0.517481)
(-0.852224 -0.00854303 -0.603069)
(-0.845258 0.00217577 -0.602436)
(-0.758337 0.0155018 -0.540477)
(-0.7911 0.00324826 -0.560777)
(-0.865783 -0.0028248 -0.606159)
(-0.823825 -0.00817135 -0.567588)
(-0.861016 0.00143726 -0.611446)
(-0.832287 -0.0587182 -0.552872)
(-0.838605 -0.0578393 -0.566186)
(-0.856705 -0.0539186 -0.575905)
(-0.862374 -0.0480497 -0.589497)
(-0.79679 -0.00556383 -0.548901)
(-0.811829 -0.0286282 -0.541326)
(-0.866941 -0.0328585 -0.598351)
(-0.825815 -0.0230551 -0.568714)
(-0.864381 -0.0638131 -0.57442)
(-0.761046 -0.103331 -0.443618)
(-0.767222 -0.085916 -0.456855)
(-0.825729 -0.160046 -0.463854)
(-0.800606 -0.141044 -0.454947)
(-0.800727 -0.11643 -0.455127)
(-0.832864 -0.0848699 -0.459252)
(-0.79684 -0.0917104 -0.448181)
(-0.851048 -0.136904 -0.456324)
(-0.874136 -0.136851 -0.455538)
(-0.847982 -0.167513 -0.460683)
(-0.864406 -0.18312 -0.461283)
(-0.874841 -0.17595 -0.461867)
(-0.88426 -0.15112 -0.45392)
(-0.875411 -0.150461 -0.456636)
(-0.868229 -0.0967835 -0.458829)
(-0.844166 -0.125983 -0.45302)
(-0.890604 -0.16144 -0.451239)
(-0.886378 -0.123238 -0.45588)
(-0.907729 -0.174054 -0.547204)
(-0.905691 -0.17596 -0.540309)
(-0.912464 -0.167849 -0.543219)
(-0.868624 -0.170185 -0.516186)
(-0.930382 -0.151447 -0.547738)
(-0.934746 -0.158323 -0.542852)
(-0.929914 -0.158746 -0.514193)
(-0.925363 -0.158657 -0.543219)
(-0.884048 -0.173629 -0.524764)
(-0.937848 -0.150848 -0.542247)
(-0.943271 -0.152482 -0.533458)
(-0.939898 -0.147114 -0.530354)
(-0.88847 -0.162977 -0.514983)
(-0.862363 -0.166397 -0.495259)
(-0.905402 -0.164752 -0.509166)
(-0.864968 -0.169161 -0.489759)
(-0.924058 -0.150386 -0.522199)
(-0.915681 -0.158125 -0.515797)
(-0.894929 -0.165421 -0.5052)
(-0.823965 -0.205542 -0.448594)
(-0.807003 -0.171017 -0.455883)
(-0.889009 -0.189111 -0.446178)
(-0.894635 -0.198774 -0.441499)
(-0.855181 -0.225613 -0.448479)
(-0.875276 -0.221023 -0.44599)
(-0.867632 -0.169715 -0.442396)
(-0.903598 -0.20235 -0.44276)
(-0.783134 -0.144164 -0.435949)
(-0.802589 -0.136902 -0.430026)
(-0.88444 -0.20428 -0.44667)
(-0.932088 -0.159457 -0.502722)
(-0.89897 -0.161825 -0.477274)
(-0.938103 -0.178113 -0.492132)
(-0.952538 -0.178821 -0.493723)
(-0.817353 -0.148312 -0.444784)
(-0.896346 -0.169234 -0.476512)
(-0.942865 -0.172768 -0.50688)
(-0.933956 -0.173392 -0.498083)
(-0.893581 -0.168925 -0.502569)
(-0.814023 -0.159333 -0.454727)
(-0.948787 -0.169227 -0.52757)
(-0.938445 -0.156978 -0.52078)
(-0.899827 -0.171056 -0.489281)
(-0.877158 -0.167763 -0.488946)
(-0.946668 -0.182473 -0.527283)
(-0.879057 -0.0485343 -0.498642)
(-0.89213 -0.0464332 -0.499362)
(-0.964833 -0.0589895 -0.52315)
(-0.979456 -0.0408441 -0.5562)
(-0.973882 -0.0486586 -0.54534)
(-0.945336 -0.0463923 -0.567374)
(-0.966984 -0.0414394 -0.581293)
(-0.903125 -0.030761 -0.545385)
(-0.887043 -0.0254825 -0.542374)
(-0.89791 -0.0657879 -0.498754)
(-0.949098 -0.0654167 -0.516634)
(-0.981172 -0.0494874 -0.541419)
(-0.949104 -0.0340698 -0.559125)
(-0.9704 -0.0507682 -0.567812)
(-0.986969 -0.0580118 -0.559566)
(-0.868939 -0.035843 -0.520626)
(-0.895906 -0.0615639 -0.494702)
(-0.976721 -0.0577637 -0.542363)
(-0.946896 -0.0563681 -0.53688)
(-0.964671 -0.061387 -0.554033)
(-0.857799 -0.213081 -0.531129)
(-0.828667 -0.208503 -0.516875)
(-0.8297 -0.215705 -0.513027)
(-0.798926 -0.210382 -0.491989)
(-0.871241 -0.205523 -0.533145)
(-0.79707 -0.204107 -0.49019)
(-0.899858 -0.20067 -0.54753)
(-0.911399 -0.210073 -0.552932)
(-0.843923 -0.21314 -0.520987)
(-0.901489 -0.169816 -0.555329)
(-0.891338 -0.183467 -0.554215)
(-0.886375 -0.184665 -0.545742)
(-0.889578 -0.184157 -0.548326)
(-0.87706 -0.181149 -0.545354)
(-0.856637 -0.209851 -0.528148)
(-0.9132 -0.178543 -0.552529)
(-0.43179 0.0264143 -0.389877)
(-0.421602 0.0230909 -0.390899)
(-0.407227 0.0175074 -0.348492)
(-0.42499 0.0160855 -0.398612)
(-0.380569 0.00569323 -0.338332)
(-0.441792 0.0130425 -0.335452)
(-0.39226 0.00558847 -0.307816)
(-0.450884 0.0306182 -0.367467)
(-0.453558 0.0264073 -0.370848)
(-0.393748 0.0113771 -0.332811)
(-0.420574 0.00726387 -0.378446)
(-0.389277 0.00198656 -0.336611)
(-0.474847 0.0284006 -0.381482)
(-0.46648 0.018263 -0.370388)
(-0.438915 0.0174274 -0.385331)
(-0.403319 -0.0492803 -0.323701)
(-0.373147 -0.0538147 -0.295213)
(-0.382328 -0.0386471 -0.303616)
(-0.381416 -0.0447974 -0.300277)
(-0.451114 -0.0287332 -0.347356)
(-0.440996 -0.0265977 -0.34677)
(-0.409629 -0.0382118 -0.329206)
(-0.39512 -0.0434248 -0.301526)
(-0.37699 -0.0488216 -0.283307)
(-0.426394 -0.0411104 -0.323588)
(-0.430267 -0.0343325 -0.319618)
(-0.409809 -0.0442901 -0.297578)
(-0.847975 -0.0159421 -0.581802)
(-0.84257 -0.0511224 -0.567334)
(-0.850745 -0.0699866 -0.574453)
(-0.899149 -0.0463778 -0.621221)
(-0.801726 -0.00975409 -0.554845)
(-0.823477 -0.051359 -0.535549)
(-0.879038 -0.00222503 -0.620846)
(-0.795324 0.0017921 -0.557816)
(-0.424712 0.000440403 -0.386663)
(-0.440345 0.0089441 -0.390179)
(-0.486836 0.0318696 -0.408348)
(-0.510571 0.0202556 -0.424037)
(-0.532159 0.00392511 -0.440297)
(-0.539417 -0.00246721 -0.455049)
(-0.443717 -0.00411777 -0.421197)
(-0.450571 0.0234333 -0.384373)
(-0.493992 0.0295508 -0.415483)
(-0.487191 0.0283034 -0.402808)
(-0.53323 0.00446238 -0.452418)
(-0.469698 0.0328865 -0.410713)
(-0.695235 -0.302994 -0.438653)
(-0.677113 -0.305993 -0.379751)
(-0.829125 -0.266813 -0.44773)
(-0.808046 -0.319554 -0.418251)
(-0.821601 -0.263421 -0.46999)
(-0.813675 -0.242558 -0.4867)
(-0.817287 -0.253952 -0.477948)
(-0.789218 -0.282393 -0.468619)
(-0.74393 -0.302554 -0.39777)
(-0.766535 -0.297977 -0.469394)
(-0.760483 -0.321794 -0.398296)
(-0.787738 -0.282996 -0.481032)
(-0.812883 -0.295609 -0.420218)
(-0.726397 -0.301465 -0.436762)
(-0.866367 -0.235057 -0.395954)
(-0.852773 -0.225215 -0.358363)
(-0.916282 -0.197033 -0.402681)
(-0.921736 -0.180796 -0.423894)
(-0.837511 -0.252788 -0.370068)
(-0.807336 -0.25026 -0.353293)
(-0.895707 -0.214128 -0.424007)
(-0.813877 -0.228476 -0.335066)
(-0.924448 -0.161748 -0.434762)
(-0.902247 -0.190563 -0.386404)
(-0.903371 -0.205826 -0.378746)
(-0.848481 -0.207867 -0.346349)
(-0.846542 -0.244732 -0.375407)
(-0.874147 -0.243795 -0.393202)
(-0.918867 -0.18199 -0.394513)
(-0.851043 -0.210728 -0.360934)
(-0.887912 -0.214874 -0.441857)
(-0.898794 -0.23128 -0.404699)
(-0.890879 -0.19906 -0.434992)
(-0.74441 -0.329728 -0.415403)
(-0.721928 -0.343204 -0.432329)
(-0.807584 -0.286256 -0.473345)
(-0.779263 -0.26785 -0.479747)
(-0.764477 -0.334223 -0.430564)
(-0.707178 -0.331668 -0.396546)
(-0.73001 -0.340659 -0.424042)
(-0.778864 -0.318185 -0.464165)
(-0.782621 -0.275982 -0.48248)
(-0.788556 -0.285516 -0.475844)
(-0.754884 -0.313802 -0.48177)
(-0.773222 -0.298386 -0.480555)
(-0.804049 -0.329993 -0.460307)
(-0.78119 -0.321021 -0.452217)
(-0.824978 -0.316886 -0.462977)
(-0.805898 -0.313734 -0.46599)
(-0.719517 -0.332911 -0.404059)
(-0.668479 -0.326312 -0.379736)
(-0.67294 -0.347884 -0.42029)
(-0.689047 -0.323357 -0.41731)
(-0.667342 -0.329105 -0.425178)
(-0.746673 -0.338094 -0.439585)
(-0.757075 -0.330499 -0.43155)
(-0.712195 -0.333514 -0.404238)
(-0.64131 -0.330045 -0.386594)
(-0.767468 -0.333454 -0.435107)
(-0.723787 -0.326517 -0.458466)
(-0.787099 -0.305955 -0.455047)
(-0.740994 -0.318775 -0.481293)
(-0.787453 -0.322642 -0.45385)
(-0.696213 -0.341727 -0.453108)
(-0.669018 -0.340099 -0.430067)
(-0.714569 -0.333966 -0.451337)
(-0.748123 -0.330578 -0.444404)
(-0.855644 -0.247254 -0.409809)
(-0.868101 -0.243757 -0.399132)
(-0.879948 -0.209142 -0.45027)
(-0.87619 -0.246636 -0.444176)
(-0.879829 -0.222234 -0.46422)
(-0.882816 -0.217774 -0.455687)
(-0.859511 -0.250993 -0.40528)
(-0.904782 -0.210061 -0.442178)
(-0.890378 -0.214336 -0.461309)
(-0.935595 -0.191949 -0.441528)
(-0.940313 -0.184937 -0.447638)
(-0.90214 -0.224621 -0.429394)
(-0.858422 -0.254273 -0.398366)
(-0.868112 -0.23117 -0.387367)
(-0.928424 -0.178847 -0.443155)
(-0.949798 -0.180437 -0.445884)
(-0.920866 -0.209025 -0.428192)
(-0.898258 -0.201658 -0.442013)
(-0.911545 -0.196761 -0.443169)
(-0.895771 -0.192363 -0.449384)
(-0.865734 -0.201142 -0.441463)
(-0.868356 -0.18288 -0.444097)
(-0.872196 -0.182686 -0.450075)
(-0.877891 -0.188163 -0.443166)
(-0.853071 -0.1716 -0.446691)
(-0.942187 -0.201581 -0.448115)
(-0.939378 -0.223986 -0.444631)
(-0.942451 -0.209244 -0.442315)
(-0.915734 -0.217491 -0.433118)
(-0.934836 -0.220225 -0.433595)
(-0.90185 -0.170555 -0.451911)
(-0.881458 -0.193624 -0.446814)
(-0.901686 -0.169367 -0.45346)
(-0.897903 -0.184034 -0.45203)
(-0.937884 -0.17772 -0.458313)
(-0.938563 -0.1965 -0.442537)
(-0.931807 -0.201593 -0.444332)
(-0.947275 -0.18659 -0.452332)
(-0.948782 -0.182501 -0.451492)
(-0.921875 -0.176441 -0.450488)
(-0.895719 -0.184369 -0.443921)
(-0.929869 -0.200719 -0.438037)
(-0.944707 -0.185368 -0.439569)
(-0.888851 -0.175188 -0.448211)
(-0.936306 -0.195279 -0.430714)
(-0.931057 -0.215844 -0.418518)
(-0.927886 -0.234375 -0.43022)
(-0.921924 -0.227177 -0.4304)
(-0.921489 -0.166835 -0.451846)
(-0.932898 -0.20189 -0.43293)
(-0.945277 -0.207874 -0.437657)
(-0.881065 -0.195064 -0.442777)
(-0.929909 -0.216513 -0.432003)
(-0.931024 -0.223874 -0.430892)
(-0.934519 -0.193705 -0.419372)
(-0.925135 -0.213181 -0.432912)
(-0.900011 -0.183929 -0.444176)
(-0.803008 -0.349283 -0.450665)
(-0.769147 -0.35758 -0.449386)
(-0.763383 -0.362543 -0.445962)
(-0.7649 -0.342388 -0.386764)
(-0.773302 -0.346749 -0.39922)
(-0.764358 -0.351578 -0.396202)
(-0.698783 -0.336684 -0.357492)
(-0.814965 -0.340597 -0.450046)