/*--------------------------------*- C++ -*----------------------------------*\
| =========                 |                                                 |
| \\      /  F ield         | OpenFOAM: The Open Source CFD Toolbox           |
|  \\    /   O peration     | Version:  v1612+                                |
|   \\  /    A nd           | Web:      www.OpenFOAM.com                      |
|    \\/     M anipulation  |                                                 |
\*---------------------------------------------------------------------------*/
FoamFile
{
    version     2.0;
    format      ascii;
    class       volScalarField;
    location    "100";
    object      p;
}
// * * * * * * * * * * * * * * * * * * * * * * * * * * * * * * * * * * * * * //

dimensions      [0 2 -2 0 0 0 0];

internalField   nonuniform List<scalar> 
21294
(
2.82839
2.84478
2.77556
2.74694
2.88174
2.75651
2.84518
2.84906
2.72363
2.75883
2.71324
2.85255
2.75292
2.73042
2.75706
2.74197
2.76682
2.76019
2.7551
2.84092
2.89842
2.89586
2.7361
2.73442
2.73523
2.8982
2.72083
2.71154
2.70987
2.75207
2.78655
2.73766
2.77335
2.73028
2.92544
2.77928
2.87432
2.73189
2.79755
2.80688
2.80539
2.78868
2.77311
2.76251
2.81172
2.76916
2.89294
2.84777
2.81763
2.88888
2.85275
2.8672
2.8506
2.83209
2.73337
2.73055
2.78337
2.73999
2.80566
2.84767
2.77773
2.79731
2.84822
2.81653
2.84182
2.82889
2.84066
2.8533
2.74992
2.88621
2.88431
2.75785
2.74917
2.7444
2.7415
2.73639
2.8464
2.75645
2.86758
2.77265
2.73742
2.7661
2.95424
2.94657
2.88632
2.80274
2.79984
2.77359
2.77036
2.77578
2.7197
2.73008
2.77701
2.80045
2.73283
2.72308
2.7258
2.7375
2.79991
2.72982
2.72481
2.72496
2.72306
2.82202
2.82546
2.83709
2.8979
2.71336
2.71931
2.78971
2.78062
2.89246
2.86663
2.79137
2.8784
2.9086
2.81466
2.80454
2.80464
2.80672
2.81211
2.80758
2.76979
2.84229
2.74795
2.83758
2.89173
2.73834
2.72781
2.73282
2.83372
2.75503
2.85159
2.85696
2.85177
2.88891
2.71917
2.9426
2.91807
2.84414
2.79819
2.80078
2.79863
2.79826
2.79182
2.75922
2.82108
2.81577
2.84813
2.89437
2.87906
2.87386
2.79574
2.79155
2.79852
2.78796
2.82866
2.82135
2.86032
2.87878
2.85586
2.87937
2.85421
2.73424
2.73363
2.86655
2.89303
2.78313
2.77953
2.78328
2.78271
2.96663
2.85702
2.75358
2.74966
2.95572
2.86886
2.84701
2.8396
2.96203
2.96314
2.75669
2.87826
2.89778
2.75715
2.89623
2.89358
2.8703
2.71279
2.72309
2.83114
2.89574
2.90387
2.91058
2.92285
2.95753
2.7548
2.75194
2.74735
2.76515
2.76173
2.77862
2.83508
2.86445
2.86606
2.89393
2.88906
2.91334
2.88555
2.70448
2.84539
2.86011
2.89604
2.79646
2.84691
2.82288
2.85354
2.80816
2.79627
2.78943
2.77946
2.78112
2.78561
2.77587
2.91317
2.92531
2.90589
2.74778
2.76008
2.74634
2.77391
2.81034
2.9099
2.93425
2.92866
2.83847
2.83684
2.75345
2.77994
2.95002
2.95706
2.9505
2.94927
2.73331
2.74114
2.74095
2.7267
2.72106
2.7269
2.72725
2.86752
2.7649
2.76848
2.76501
2.76258
2.76335
2.76642
2.8172
2.77798
2.72386
2.78667
2.90723
2.78894
2.85905
2.77363
2.77302
2.76756
2.72045
2.77001
2.82061
2.82641
2.82852
2.77915
2.77492
2.87834
2.76615
2.7595
2.77965
2.7122
2.94168
2.83172
2.78562
2.84823
2.84976
2.83656
2.7757
2.77652
2.91773
2.73798
2.74534
2.86728
2.7612
2.80717
2.75948
2.93374
2.9179
2.75907
2.85703
2.86783
2.86402
2.79811
2.83374
2.82825
2.82542
2.8277
2.779
2.77523
2.76781
2.76828
2.77707
2.79253
2.7885
2.75988
2.76148
2.75901
2.76669
2.79032
2.94392
2.77438
2.91137
2.86239
2.82435
2.98083
2.83801
2.85773
2.8735
2.72601
2.75373
2.90259
2.78707
2.90741
2.76564
2.93005
2.81527
2.82983
2.79016
2.7245
2.77877
2.77141
2.96785
2.96202
2.7219
2.77771
2.91212
2.81297
2.76521
2.73773
2.73029
2.84673
2.7645
2.76571
2.93337
2.85032
2.80792
2.8001
2.84088
2.84532
2.87938
2.85613
2.74338
2.74358
2.74679
2.85597
2.89472
2.90301
2.87883
2.88439
2.89643
2.88356
2.88349
2.71173
2.70992
2.86187
2.74159
2.74183
2.84696
2.86292
2.7829
2.88907
2.74466
2.81573
2.85901
2.78606
2.7906
2.78818
2.78803
2.77433
2.80882
2.79375
2.84356
2.73404
2.76672
2.7698
2.74924
2.7563
2.87719
2.86565
2.76528
2.79558
2.83558
2.83727
2.84662
2.79598
2.79669
2.76548
2.82206
2.80268
2.83978
2.74653
2.74973
2.74231
2.80959
2.89379
2.86589
2.71888
2.83345
2.83307
2.71281
2.72417
2.71287
2.79861
2.80482
2.76936
2.7648
2.80058
2.86811
2.8476
2.79658
2.79783
2.80079
2.74704
2.75265
2.91149
2.94315
2.93528
2.80292
2.86187
2.87582
2.90047
2.88148
2.71858
2.75966
2.93585
2.94896
2.83611
2.77108
2.9034
2.84595
2.87415
2.80569
2.7519
2.79494
2.80292
2.7464
2.94464
2.7691
2.74677
2.90666
2.88353
2.85012
2.95502
2.96582
2.96322
2.95551
2.92343
2.83174
2.79867
2.79194
2.80501
2.71814
2.75281
2.74323
2.79294
2.89686
2.87885
2.86077
2.70497
2.83946
2.75431
2.77731
2.75595
2.75133
2.87086
2.7865
2.78161
2.86336
2.74609
2.76548
2.73916
2.73779
2.9214
2.89177
2.9118
2.90098
2.89316
2.80958
2.85152
2.82846
2.75197
2.75014
2.76513
2.8395
2.80958
2.85532
2.8393
2.83236
2.85717
2.80417
2.78755
2.86685
2.89366
2.77151
2.78135
2.78391
2.78052
2.7195
2.92318
2.74305
2.73816
2.73837
2.91694
2.93081
2.95828
2.76731
2.80469
2.71064
2.85142
2.74991
2.73482
2.81656
2.89513
2.75956
2.88295
2.88273
2.88006
2.74001
2.80515
2.71749
2.88472
2.72675
2.84886
2.74222
2.91818
2.93274
2.95594
2.91351
2.7727
2.78748
2.7558
2.77134
2.71339
2.76794
2.7707
2.80912
2.76539
2.75008
2.76556
2.79667
2.77832
2.77859
2.78138
2.92489
2.8687
2.84348
2.75936
2.75839
2.83538
2.76239
2.78777
2.70572
2.71828
2.71955
2.75972
2.75151
2.7466
2.7656
2.75603
2.77419
2.78048
2.78518
2.79824
2.88457
2.87615
2.87879
2.80707
2.7657
2.76376
2.73349
2.84872
2.9528
2.82575
2.82548
2.79737
2.85413
2.84584
2.79562
2.75763
2.80189
2.76372
2.78502
2.80728
2.76397
2.89794
2.75802
2.7496
2.80127
2.82086
2.82572
2.82827
2.79155
2.84064
2.81775
2.74931
2.76779
2.80663
2.73616
2.76064
2.72772
2.73604
2.76008
2.77678
2.76828
2.71371
2.78832
2.78503
2.77598
2.79445
2.7948
2.82926
2.83866
2.809
2.90242
2.94243
2.9235
2.88168
2.88514
2.85257
2.88815
2.91986
2.95122
2.86763
2.8806
2.93554
2.88212
2.90796
2.93274
2.87812
2.9048
2.85692
2.86973
2.83506
2.82985
2.86875
2.83766
2.85275
2.858
2.84171
2.89998
2.83195
2.86701
2.87313
2.84869
2.89502
2.80158
2.77429
2.79047
2.7911
2.76965
2.81118
2.82401
2.81618
2.77521
2.7756
2.79218
2.88652
2.89727
2.83225
2.84737
2.90082
2.89871
2.82114
2.87216
2.83198
2.85195
2.8568
2.76815
2.79231
2.7892
2.76379
2.76211
2.81119
2.74711
2.72285
2.7326
2.7239
2.73658
2.73448
2.79074
2.78006
2.83906
2.82573
2.79617
2.74947
2.77799
2.75421
2.75443
2.75888
2.75965
2.74299
2.73683
2.75233
2.74247
2.74922
2.7312
2.73364
2.77915
2.75845
2.75829
2.77642
2.74538
2.82346
2.76997
2.79778
2.8058
2.80758
2.7913
2.8811
2.77956
2.88935
2.83276
2.82899
2.88401
2.88856
2.81244
2.80896
2.93131
2.96011
2.90297
2.93364
2.88381
2.83685
2.89241
2.86288
2.94003
2.8538
2.90393
2.87356
2.71795
2.75304
2.7345
2.76037
2.72963
2.83454
2.72228
2.76649
2.76004
2.74089
2.79997
2.75165
2.72536
2.76243
2.73758
2.7859
2.79415
2.83656
2.83166
2.81579
2.82585
2.80299
2.80657
2.80785
2.79694
2.77938
2.77893
2.80028
2.77785
2.78667
2.76433
2.76644
2.7747
2.77648
2.76764
2.75449
2.76143
2.71255
2.73722
2.92511
2.91648
2.95864
2.94601
2.94511
2.97333
2.87277
2.88251
2.87428
2.87512
2.9519
2.96025
2.94024
2.90992
2.85807
2.85467
2.83646
2.85479
2.86553
2.87071
2.85199
2.83893
2.85101
2.8246
2.83539
2.83866
2.84131
2.83653
2.84499
2.86277
2.82894
2.84171
2.84301
2.84361
2.84299
2.79083
2.78135
2.79618
2.7869
2.78455
2.78149
2.78939
2.78959
2.82746
2.82553
2.80614
2.81741
2.80606
2.82582
2.83229
2.83887
2.81455
2.8569
2.8211
2.83209
2.81725
2.84673
2.84537
2.82057
2.82607
2.82985
2.80995
2.80401
2.78077
2.7671
2.74719
2.75152
2.74624
2.76076
2.75835
2.74868
2.80814
2.78514
2.75363
2.78502
2.76343
2.77299
2.76519
2.76781
2.74215
2.74782
2.74788
2.74777
2.78121
2.76009
2.78547
2.76841
2.77316
2.76877
2.7701
2.83596
2.788
2.81943
2.78545
2.81743
2.79844
2.79767
2.76681
2.76366
2.89266
2.8114
2.85354
2.83467
2.83285
2.85738
2.86531
2.83771
2.85804
2.88179
2.8899
2.85105
2.78811
2.74943
2.79034
2.75884
2.77133
2.76151
2.76925
2.77932
2.78487
2.7855
2.77431
2.7618
2.75742
2.77736
2.78018
2.75931
2.83439
2.79109
2.8174
2.78686
2.82165
2.81221
2.79625
2.70428
2.78879
2.78868
2.7883
2.79149
2.81104
2.78635
2.81271
2.80059
2.81125
2.81087
2.79893
2.86471
2.82698
2.84632
2.78702
2.82705
2.84163
2.8194
2.81703
2.82853
2.82111
2.80509
2.78186
2.79132
2.79721
2.79331
2.80382
2.82273
2.79895
2.78538
2.7868
2.79814
2.79734
2.78749
2.85945
2.80632
2.81579
2.81593
2.82677
2.80349
2.74312
2.738
2.72734
2.73248
2.7658
2.81581
2.79412
2.80643
2.79959
2.7695
2.81031
2.79981
2.79546
2.80173
2.80608
2.78674
2.7971
2.75918
2.77139
2.76005
2.76177
2.76955
2.78727
2.7782
2.78038
2.79459
2.78142
2.76594
2.80057
2.78973
2.77201
2.78053
2.774
2.72538
2.74193
2.72105
2.72907
2.74193
2.73386
2.80152
2.7466
2.75262
2.78524
2.7564
2.76679
2.7663
2.75703
2.74998
2.74868
2.74517
2.75626
2.74564
2.76067
2.73807
2.73347
2.74356
2.73955
2.74247
2.76876
2.79262
2.76525
2.75483
2.7746
2.78794
2.75939
2.77643
2.78237
2.77772
2.77398
2.7795
2.78437
2.78188
2.77977
2.75259
2.75511
2.76009
2.75711
2.76968
2.76893
2.76819
2.77352
2.77749
2.76883
2.76836
2.77541
2.77513
2.77749
2.7687
2.77308
2.71358
2.71108
2.71154
2.70695
2.72585
2.71207
2.71651
2.72135
2.7118
2.78809
2.79128
2.78574
2.77933
2.78329
2.77918
2.77008
2.79097
2.78071
2.78184
2.7789
2.7848
2.79041
2.82629
2.80799
2.79779
2.80244
2.81989
2.81578
2.80537
2.79502
2.83772
2.80872
2.80573
2.81187
2.82705
2.79854
2.80962
2.80138
2.80744
2.80394
2.83121
2.81979
2.81676
2.81066
2.7953
2.80353
2.78917
2.7985
2.80422
2.72646
2.72707
2.7381
2.88011
2.89823
2.8479
2.88689
2.85901
2.87189
2.87755
2.95406
2.91719
2.94982
2.91186
2.93358
2.92461
2.91866
2.90344
2.91116
2.92451
2.94974
2.94015
2.93234
2.93941
2.93216
2.93069
2.90876
2.89072
2.92468
2.92433
2.91342
2.8712
2.90299
2.86061
2.89649
2.87072
2.83616
2.86462
2.84307
2.86354
2.83122
2.83501
2.85798
2.88802
2.92422
2.91277
2.92933
2.93236
2.90188
2.90231
2.86629
2.8372
2.87902
2.8601
2.86012
2.87679
2.88417
2.88907
2.8888
2.87212
2.91672
2.86858
2.89853
2.87233
2.88429
2.87796
2.95878
2.96137
2.96076
2.89184
2.82809
2.82769
2.86658
2.82217
2.86428
2.85972
2.87669
2.85302
2.93624
2.91507
2.92391
2.91632
2.93146
2.95744
2.94181
2.95311
2.89732
2.86262
2.91431
2.879
2.88648
2.91297
2.9283
2.912
2.8659
2.90943
2.88709
2.88975
2.90822
2.93519
2.9234
2.85254
2.84987
2.83172
2.84468
2.85568
2.86481
2.83973
2.88024
2.91121
2.87534
2.88013
2.88573
2.82231
2.83712
2.8353
2.80775
2.81818
2.83704
2.84296
2.81695
2.81415
2.83054
2.83893
2.81209
2.84315
2.80891
2.82877
2.835
2.82469
2.82098
2.83384
2.82116
2.84209
2.83999
2.84898
2.83824
2.8592
2.87877
2.87508
2.88123
2.88858
2.84956
2.85315
2.8557
2.84493
2.83606
2.84293
2.83121
2.85005
2.84909
2.85537
2.85845
2.81567
2.84614
2.84981
2.85274
2.8503
2.83513
2.86457
2.85676
2.8713
2.87171
2.85448
2.86147
2.83663
2.83511
2.87215
2.87687
2.78186
2.77589
2.75863
2.82651
2.91618
2.9023
2.93191
2.85543
2.84037
2.83125
2.8313
2.84695
2.84555
2.82982
2.87884
2.87593
2.85054
2.83967
2.87952
2.87289
2.84264
2.84199
2.87436
2.90065
2.88961
2.89348
2.89818
2.86481
2.83074
2.88151
2.87142
2.85739
2.85058
2.88278
2.88715
2.91395
2.889
2.88795
2.76571
2.76124
2.75345
2.75463
2.76261
2.82035
2.80989
2.78951
2.78775
2.77985
2.77697
2.78526
2.78093
2.77365
2.76011
2.76878
2.77375
2.80454
2.7738
2.77955
2.78115
2.77591
2.7877
2.77308
2.7738
2.76622
2.8106
2.79998
2.78844
2.79654
2.80317
2.78084
2.79108
2.8085
2.81278
2.74615
2.75367
2.74929
2.74675
2.76333
2.80385
2.80207
2.80854
2.79335
2.75619
2.78464
2.78153
2.78792
2.77595
2.82181
2.78909
2.82433
2.80114
2.76698
2.78161
2.77702
2.83129
2.85901
2.82705
2.8414
2.91724
2.90895
2.84827
2.85878
2.81099
2.8171
2.84509
2.85027
2.81719
2.88756
2.8653
2.81473
2.85071
2.8554
2.85806
2.85328
2.86021
2.91259
2.85784
2.87163
2.86743
2.88596
2.86121
2.85898
2.89527
2.9039
2.87768
2.90091
2.88732
2.87553
2.86095
2.81464
2.83008
2.84433
2.82645
2.8234
2.84942
2.87201
2.85275
2.85947
2.83378
2.886
2.911
2.87362
2.83206
2.86854
2.87043
2.85237
2.86138
2.90308
2.82679
2.83723
2.86959
2.87225
2.88136
2.87284
2.80134
2.78805
2.77938
2.77606
2.79929
2.79647
2.77914
2.74361
2.75581
2.75285
2.75551
2.78417
2.77633
2.80858
2.80115
2.78849
2.78565
2.80458
2.77105
2.78487
2.81241
2.78746
2.76947
2.78421
2.78592
2.78647
2.75879
2.78273
2.77045
2.77659
2.76698
2.78104
2.78573
2.75678
2.76966
2.75566
2.76189
2.77069
2.77351
2.81217
2.80066
2.78883
2.79865
2.80636
2.78448
2.73345
2.7328
2.73787
2.80774
2.76303
2.77008
2.71649
2.72805
2.71807
2.71407
2.71521
2.71941
2.72147
2.72408
2.71812
2.71579
2.72624
2.73665
2.72926
2.7359
2.73558
2.73095
2.73576
2.73645
2.73666
2.73183
2.73999
2.74089
2.73369
2.72351
2.71782
2.72068
2.7173
2.71521
2.72537
2.73035
2.73663
2.7197
2.72771
2.72186
2.72716
2.72306
2.73934
2.74046
2.72352
2.73632
2.73407
2.7236
2.82005
2.78055
2.80334
2.81607
2.80246
2.79491
2.82063
2.80021
2.83117
2.80055
2.81637
2.79554
2.80083
2.81616
2.85148
2.82898
2.80929
2.80865
2.78921
2.81959
2.84977
2.82174
2.82524
2.82467
2.82486
2.78808
2.8063
2.81534
2.82016
2.78101
2.7911
2.80908
2.83594
2.82602
2.84893
2.8441
2.74969
2.75306
2.76406
2.74794
2.75241
2.74668
2.75106
2.76957
2.77349
2.79161
2.77582
2.77752
2.77989
2.77596
2.76086
2.75406
2.77081
2.76183
2.76658
2.76455
2.76478
2.74971
2.75645
2.76405
2.76237
2.75677
2.7627
2.75589
2.74983
2.75312
2.76015
2.75035
2.7477
2.75878
2.77123
2.7703
2.76197
2.76103
2.77117
2.76789
2.7617
2.75604
2.74591
2.76737
2.7521
2.76007
2.7547
2.75157
2.72334
2.72276
2.72695
2.72659
2.76634
2.72909
2.74049
2.73784
2.73881
2.73244
2.76085
2.74099
2.74377
2.74279
2.74271
2.7325
2.72992
2.73117
2.7287
2.74008
2.74753
2.75278
2.75374
2.73991
2.7419
2.75156
2.77095
2.75132
2.75158
2.75427
2.74908
2.74512
2.74051
2.7312
2.72685
2.72543
2.72465
2.72016
2.7297
2.73826
2.73867
2.74699
2.73794
2.73254
2.73972
2.74657
2.74476
2.74098
2.74594
2.74223
2.74326
2.74784
2.74608
2.74304
2.73464
2.74112
2.72611
2.73036
2.73758
2.75532
2.77574
2.78315
2.78491
2.78652
2.76922
2.76859
2.78488
2.76978
2.77359
2.77937
2.77178
2.75776
2.76276
2.77836
2.77376
2.76088
2.74919
2.75484
2.76045
2.7808
2.76277
2.76125
2.76943
2.76585
2.75451
2.7556
2.75393
2.75413
2.73739
2.71614
2.71678
2.81479
2.81608
2.80016
2.83683
2.77952
2.78561
2.78447
2.77547
2.78446
2.77991
2.7712
2.78655
2.78112
2.76664
2.78547
2.78029
2.78876
2.78447
2.79254
2.7776
2.77762
2.77832
2.77951
2.76716
2.78781
2.77067
2.76903
2.78933
2.79134
2.80236
2.80018
2.79127
2.78652
2.7986
2.80873
2.81044
2.78713
2.79576
2.79406
2.79972
2.80272
2.80452
2.79272
2.80826
2.79613
2.79952
2.80069
2.80271
2.79731
2.80999
2.8032
2.80103
2.80168
2.79233
2.78937
2.78358
2.7852
2.86926
2.84333
2.80359
2.82592
2.83822
2.8426
2.82326
2.84659
2.83996
2.88504
2.82358
2.86902
2.87114
2.8561
2.81836
2.80133
2.79728
2.79331
2.79283
2.78449
2.80008
2.80209
2.80165
2.79789
2.80323
2.80301
2.79756
2.79909
2.78575
2.81051
2.79552
2.79968
2.792
2.81609
2.90822
2.84778
2.81198
2.81149
2.82493
2.83635
2.80759
2.88526
2.82149
2.85686
2.85369
2.87035
2.83839
2.81327
2.83715
2.8304
2.83746
2.85105
2.8154
2.83196
2.82109
2.81446
2.83004
2.80156
2.79957
2.80376
2.83047
2.82323
2.82721
2.90037
2.95833
2.91105
2.87764
2.91446
2.91536
2.90584
2.92714
2.90847
2.94433
2.95239
2.94856
2.87409
2.93858
2.96359
2.86294
2.88372
2.84099
2.82065
2.85202
2.84145
2.83922
2.85245
2.85549
2.86411
2.85373
2.87909
2.90324
2.90072
2.9038
2.84542
2.86453
2.91574
2.8958
2.86857
2.87127
2.89658
2.96405
2.97455
2.87356
2.85669
2.84421
2.84485
2.86938
2.86945
2.84495
2.87504
2.87046
2.86994
2.87245
2.91774
2.92258
2.9525
2.94387
2.8557
2.90614
2.90125
2.88433
2.87508
2.91433
2.90035
2.80474
2.83111
2.72533
2.72009
2.79701
2.72447
2.71232
2.72261
2.71704
2.71492
2.7184
2.75849
2.77115
2.73589
2.7391
2.75726
2.75984
2.74032
2.71406
2.7339
2.72921
2.75531
2.77696
2.74334
2.76519
2.76566
2.74339
2.73558
2.73069
2.73253
2.72665
2.72873
2.73014
2.79051
2.83698
2.79665
2.83287
2.81637
2.82322
2.82329
2.8586
2.81044
2.84392
2.80535
2.82849
2.80998
2.85885
2.75415
2.76716
2.7259
2.72461
2.72764
2.72059
2.7369
2.74178
2.76872
2.75728
2.7453
2.74599
2.72676
2.75436
2.74716
2.75398
2.73315
2.73583
2.73106
2.78134
2.77158
2.79207
2.80374
2.81813
2.80335
2.79803
2.82357
2.81091
2.80822
2.808
2.82356
2.79811
2.81314
2.8013
2.82661
2.82746
2.82174
2.7943
2.82234
2.8013
2.80022
2.82076
2.82094
2.79027
2.76476
2.77183
2.76276
2.78906
2.77945
2.76913
2.72627
2.72043
2.7215
2.71249
2.72267
2.72359
2.71161
2.77814
2.78498
2.75825
2.75477
2.7595
2.73763
2.77303
2.75389
2.76333
2.75531
2.75973
2.74687
2.73023
2.74248
2.73487
2.73214
2.74547
2.79085
2.79395
2.76914
2.78367
2.785
2.76604
2.81399
2.81603
2.79264
2.78936
2.71941
2.80803
2.75127
2.77
2.76737
2.76404
2.76066
2.7629
2.76459
2.74985
2.74982
2.76748
2.75993
2.74896
2.75048
2.76211
2.73112
2.79083
2.83796
2.84337
2.82178
2.84158
2.83747
2.84037
2.83197
2.94264
2.92818
2.95844
2.94333
2.93344
2.94022
2.94621
2.94188
2.90287
2.8432
2.86169
2.84976
2.81277
2.811
2.83508
2.82527
2.81637
2.81762
2.82948
2.80893
2.81032
2.8337
2.82477
2.81435
2.8144
2.82568
2.81345
2.81148
2.79276
2.79612
2.80725
2.80745
2.79341
2.82469
2.87556
2.85351
2.85987
2.85676
2.86869
2.8578
2.86222
2.8315
2.82221
2.82805
2.82843
2.82422
2.82626
2.82718
2.789
2.78723
2.80955
2.74509
2.74309
2.74546
2.74692
2.7452
2.74809
2.7481
2.79216
2.78869
2.79101
2.75539
2.76134
2.75508
2.76181
2.75363
2.76032
2.75492
2.74393
2.74878
2.74778
2.79171
2.79066
2.77482
2.77919
2.78675
2.78971
2.77906
2.79132
2.8032
2.80235
2.76326
2.79743
2.90994
2.87954
2.90201
2.89118
2.8972
2.89053
2.90065
2.83825
2.86649
2.84686
2.85565
2.74707
2.75874
2.74418
2.75767
2.7466
2.75858
2.74857
2.74002
2.75345
2.74997
2.75174
2.74483
2.74482
2.74641
2.77998
2.79078
2.78719
2.78568
2.78485
2.79955
2.77006
2.78651
2.78759
2.80626
2.80698
2.80529
2.82684
2.82248
2.80488
2.81873
2.82485
2.8253
2.81771
2.81044
2.81142
2.80387
2.82641
2.83684
2.81313
2.83263
2.82831
2.83191
2.82214
2.83112
2.79998
2.78617
2.78214
2.79335
2.79414
2.78758
2.79022
2.79355
2.8208
2.81584
2.83289
2.83579
2.81131
2.81406
2.82735
2.82181
2.80742
2.80066
2.80754
2.79355
2.80449
2.80632
2.79526
2.80634
2.80977
2.80188
2.80862
2.82483
2.74727
2.76481
2.74626
2.75425
2.75079
2.75597
2.75104
2.75469
2.76903
2.75022
2.76415
2.75664
2.77131
2.75414
2.79181
2.79217
2.8113
2.80171
2.79318
2.7961
2.80827
2.74101
2.73046
2.73953
2.74377
2.74709
2.77768
2.77666
2.78926
2.75453
2.74575
2.76281
2.76328
2.76844
2.74531
2.74254
2.73818
2.7337
2.7419
2.7436
2.7374
2.73063
2.74518
2.73627
2.73716
2.73485
2.73782
2.73744
2.7604
2.76831
2.77046
2.774
2.77443
2.77132
2.77412
2.77523
2.75871
2.76533
2.76627
2.75951
2.7649
2.76357
2.775
2.76739
2.7644
2.76629
2.76138
2.76214
2.76123
2.71271
2.71042
2.71145
2.70887
2.708
2.71181
2.7123
2.71643
2.72056
2.72141
2.72407
2.78882
2.78366
2.78734
2.7858
2.78361
2.78524
2.78865
2.78782
2.78733
2.78473
2.78381
2.78637
2.77809
2.78039
2.77312
2.79149
2.79602
2.78686
2.79506
2.7954
2.79595
2.7925
2.81017
2.81293
2.8148
2.81799
2.78859
2.79228
2.7889
2.79777
2.79159
2.79274
2.79222
2.80824
2.8105
2.81138
2.81334
2.8036
2.809
2.80651
2.81003
2.81632
2.82988
2.82508
2.81021
2.81342
2.8227
2.83209
2.8168
2.83208
2.83592
2.82915
2.82843
2.83573
2.80126
2.80792
2.79931
2.80645
2.80244
2.80071
2.8772
2.89592
2.90713
2.90518
2.89143
2.89236
2.89897
2.96202
2.94657
2.96153
2.93246
2.91644
2.90262
2.94595
2.92142
2.93071
2.95075
2.95165
2.90022
2.90798
2.91494
2.91464
2.85865
2.89019
2.85342
2.86609
2.86921
2.864
2.87319
2.88052
2.90387
2.88513
2.88096
2.87869
2.88837
2.92922
2.90786
2.94693
2.94571
2.92877
2.92716
2.92622
2.84154
2.87275
2.84641
2.85755
2.85001
2.85951
2.85073
2.85899
2.87952
2.85506
2.87618
2.86161
2.88106
2.86348
2.89463
2.90344
2.91726
2.90624
2.90911
2.92525
2.9341
2.9221
2.93549
2.84843
2.86038
2.84182
2.85937
2.85377
2.85838
2.85149
2.90426
2.8738
2.89942
2.8836
2.89755
2.8868
2.89902
2.93403
2.94621
2.93529
2.94143
2.9578
2.93972
2.90905
2.91203
2.90059
2.89784
2.91099
2.90245
2.89832
2.88556
2.91592
2.90339
2.90454
2.8951
2.90217
2.89738
2.94823
2.92518
2.8538
2.88352
2.86275
2.87581
2.87123
2.87398
2.87037
2.87421
2.87297
2.86648
2.8768
2.84484
2.86081
2.87075
2.80916
2.81443
2.81085
2.82425
2.81205
2.81691
2.81432
2.84219
2.82844
2.81887
2.82924
2.82927
2.80251
2.81903
2.85803
2.82553
2.8435
2.8585
2.91087
2.90073
2.8971
2.8823
2.87788
2.86199
2.87976
2.81388
2.81539
2.8299
2.83123
2.82111
2.81806
2.82714
2.84695
2.85281
2.85539
2.85834
2.8562
2.8536
2.84905
2.86542
2.8434
2.84218
2.83707
2.83983
2.84462
2.86516
2.86474
2.86184
2.82143
2.84293
2.82741
2.84545
2.83165
2.83876
2.82915
2.85786
2.86017
2.86976
2.84769
2.85375
2.85413
2.86944
2.87248
2.85469
2.74778
2.75699
2.7566
2.80702
2.798
2.77902
2.8199
2.90179
2.90673
2.80807
2.80767
2.82417
2.82468
2.813
2.81241
2.82326
2.87759
2.88331
2.88744
2.88873
2.88535
2.89402
2.87647
2.88451
2.87731
2.88201
2.88341
2.87221
2.87406
2.88545
2.89384
2.87855
2.87063
2.87228
2.86373
2.8587
2.87546
2.86564
2.86552
2.91348
2.8907
2.90156
2.89564
2.91297
2.89855
2.90193
2.77131
2.81897
2.83342
2.80738
2.80039
2.81317
2.82469
2.79363
2.78473
2.78654
2.78971
2.77214
2.77544
2.77131
2.76406
2.76872
2.77242
2.77452
2.7783
2.79095
2.77597
2.77968
2.78548
2.78147
2.7654
2.76876
2.76975
2.76041
2.7693
2.76693
2.76684
2.8058
2.78762
2.81832
2.8108
2.80408
2.80376
2.81835
2.75412
2.80125
2.79416
2.81692
2.812
2.80195
2.80599
2.81415
2.76319
2.77973
2.77964
2.76826
2.77192
2.78673
2.772
2.79125
2.78652
2.78845
2.80766
2.7886
2.79177
2.78878
2.79136
2.87622
2.8925
2.88912
2.86386
2.86827
2.907
2.914
2.9029
2.90586
2.80901
2.81503
2.80758
2.82114
2.80948
2.81743
2.80947
2.82143
2.84843
2.82825
2.84745
2.83257
2.84318
2.83029
2.87666
2.87373
2.89328
2.8961
2.8826
2.87876
2.89216
2.90442
2.88009
2.89966
2.89329
2.89289
2.89084
2.8958
2.82865
2.84823
2.82896
2.82788
2.82911
2.83092
2.8238
2.85456
2.8172
2.90617
2.89711
2.89526
2.89539
2.90497
2.8951
2.85158
2.85274
2.8323
2.83424
2.8475
2.85336
2.83688
2.89018
2.83768
2.86421
2.8396
2.85449
2.85647
2.86222
2.85611
2.76539
2.76678
2.75363
2.76571
2.76567
2.76487
2.76239
2.7674
2.7595
2.81208
2.80967
2.81591
2.80415
2.80971
2.80844
2.80835
2.81014
2.788
2.80924
2.79264
2.80526
2.79255
2.81092
2.7735
2.7721
2.7642
2.7579
2.77028
2.76784
2.76202
2.75853
2.7698
2.76383
2.76254
2.76289
2.75911
2.75981
2.80491
2.78704
2.81097
2.80909
2.80342
2.80254
2.81215
2.74542
2.72763
2.72033
2.72548
2.78747
2.80382
2.78081
2.79235
2.7538
2.72066
2.72216
2.7223
2.71611
2.72045
2.7275
2.72351
2.7229
2.72283
2.72456
2.72772
2.73413
2.73278
2.72879
2.73151
2.73311
2.73292
2.72839
2.7313
2.7265
2.72832
2.73351
2.72816
2.72772
2.72677
2.7245
2.7261
2.72965
2.73585
2.73424
2.72412
2.72702
2.73265
2.72691
2.73076
2.73044
2.73089
2.72912
2.73037
2.72732
2.80178
2.81597
2.80075
2.80081
2.80279
2.80811
2.80005
2.79445
2.78264
2.79186
2.79147
2.79506
2.78674
2.80036
2.80776
2.7882
2.79813
2.79594
2.79648
2.79574
2.85527
2.8335
2.8569
2.83996
2.84868
2.8432
2.84529
2.83316
2.82516
2.85269
2.83514
2.83371
2.82171
2.84511
2.80769
2.80718
2.78157
2.81045
2.80733
2.81311
2.75517
2.75418
2.76189
2.75015
2.74609
2.75395
2.74152
2.75186
2.74315
2.74988
2.78916
2.77341
2.78728
2.78311
2.78808
2.78062
2.78854
2.75926
2.75825
2.75056
2.75454
2.76032
2.75582
2.75592
2.76438
2.75886
2.76043
2.76124
2.76725
2.76411
2.76628
2.75572
2.76002
2.76281
2.76093
2.75821
2.76109
2.76535
2.75791
2.75934
2.75306
2.75516
2.75456
2.75989
2.75203
2.75185
2.74699
2.74047
2.73983
2.74511
2.74522
2.74555
2.72618
2.7292
2.74684
2.74334
2.74091
2.74447
2.7424
2.73923
2.7362
2.74698
2.73938
2.74079
2.73829
2.74714
2.74761
2.74191
2.7478
2.75983
2.74896
2.75175
2.75043
2.75233
2.75161
2.75434
2.72748
2.73377
2.74098
2.74515
2.74712
2.74383
2.74364
2.74829
2.73109
2.73423
2.73192
2.73493
2.73489
2.73676
2.73345
2.7399
2.72885
2.73539
2.74018
2.74181
2.74376
2.74028
2.74176
2.74319
2.74582
2.75884
2.79305
2.79493
2.78734
2.78129
2.79125
2.78935
2.78121
2.75928
2.7757
2.77084
2.75128
2.75555
2.74975
2.75236
2.75386
2.75729
2.75293
2.76447
2.76723
2.76728
2.76843
2.75534
2.77872
2.76438
2.77032
2.76918
2.77367
2.74993
2.74636
2.74517
2.74852
2.75261
2.75116
2.71933
2.73099
2.72713
2.73027
2.7338
2.73105
2.79652
2.86855
2.81975
2.79906
2.78592
2.7928
2.80852
2.7852
2.80744
2.80963
2.78898
2.81057
2.81786
2.79452
2.77643
2.76683
2.77004
2.76946
2.77078
2.77268
2.77465
2.78666
2.78022
2.78464
2.78721
2.7677
2.77123
2.77075
2.7723
2.7701
2.76914
2.77163
2.78375
2.77354
2.7816
2.77685
2.77029
2.80699
2.8021
2.81211
2.8032
2.80803
2.80626
2.80869
2.79089
2.795
2.78987
2.80157
2.80028
2.81216
2.80649
2.80263
2.8054
2.80603
2.80832
2.80369
2.80701
2.80486
2.80411
2.80543
2.80944
2.79175
2.79106
2.78858
2.79235
2.78769
2.79604
2.81325
2.80984
2.79372
2.80943
2.81963
2.85232
2.86171
2.88201
2.88064
2.89276
2.88718
2.88599
2.88433
2.86495
2.88275
2.89402
2.8218
2.79012
2.79737
2.80009
2.78489
2.79632
2.79607
2.79583
2.80354
2.80846
2.80245
2.79592
2.78817
2.79399
2.7961
2.79129
2.79775
2.79521
2.78649
2.81729
2.79588
2.80661
2.79716
2.81633
2.80674
2.82132
2.82793
2.81708
2.8189
2.82247
2.82163
2.8334
2.82888
2.85713
2.82603
2.82661
2.85538
2.84756
2.86185
2.85146
2.8953
2.8752
2.87614
2.81066
2.80358
2.80984
2.80809
2.79949
2.8039
2.79501
2.80873
2.7973
2.78631
2.93627
2.95925
2.95659
2.95624
2.94569
2.95311
2.94663
2.8942
2.87976
2.90542
2.90248
2.89759
2.8941
2.90966
2.90988
2.90235
2.88499
2.94244
2.91634
2.90763
2.87997
2.9149
2.90284
2.89827
2.8252
2.85246
2.83038
2.83929
2.82945
2.8413
2.82954
2.88211
2.88805
2.85945
2.88095
2.87762
2.8839
2.87301
2.88824
2.88357
2.85692
2.86542
2.88163
2.87927
2.86162
2.95774
2.95234
2.93139
2.94663
2.95618
2.95273
2.94344
2.83214
2.82679
2.84498
2.84354
2.83422
2.8346
2.84404
2.9124
2.91617
2.90008
2.91739
2.89878
2.90535
2.89343
2.88304
2.90122
2.89268
2.88913
2.80968
2.80382
2.80963
2.71385
2.72021
2.71478
2.71533
2.7122
2.71703
2.71447
2.73576
2.74
2.74443
2.73725
2.74242
2.73589
2.72175
2.73265
2.73373
2.73617
2.73132
2.73381
2.73519
2.74721
2.74291
2.74563
2.74737
2.74501
2.74848
2.74693
2.73213
2.73298
2.72658
2.84862
2.84123
2.84229
2.84691
2.83709
2.84967
2.83302
2.85047
2.83829
2.85839
2.85298
2.83721
2.84825
2.85452
2.74978
2.73054
2.71937
2.73378
2.73005
2.72332
2.72611
2.73169
2.77724
2.77614
2.77771
2.76766
2.77119
2.78541
2.77573
2.75151
2.77432
2.76046
2.76563
2.76483
2.75964
2.73647
2.73139
2.73906
2.74878
2.72443
2.7722
2.75096
2.78206
2.76267
2.78088
2.7829
2.80552
2.8199
2.80767
2.80636
2.80785
2.81034
2.80512
2.79454
2.79743
2.82794
2.83604
2.83554
2.83858
2.82768
2.82174
2.80601
2.79209
2.80541
2.81636
2.7563
2.75609
2.74385
2.74506
2.75151
2.75391
2.74478
2.71835
2.71087
2.72196
2.80833
2.78109
2.76334
2.77844
2.76689
2.76768
2.76426
2.77148
2.75484
2.74895
2.74068
2.74895
2.74764
2.74268
2.7305
2.74064
2.73229
2.73888
2.78981
2.77054
2.7859
2.77865
2.78225
2.77659
2.78201
2.84179
2.8024
2.79292
2.81368
2.79847
2.81187
2.79746
2.7992
2.85473
2.82976
2.8331
2.83929
2.83987
2.85272
2.84133
2.824
2.81007
2.82819
2.82322
2.83081
2.82021
2.82688
2.82598
2.82328
2.80598
2.82147
2.82843
2.84294
2.83723
2.81806
2.80739
2.82573
2.82772
2.79868
2.7809
2.79724
2.79231
2.79352
2.79091
2.79566
2.80294
2.8006
2.78502
2.79599
2.7968
2.7988
2.7942
2.79155
2.81023
2.81159
2.80577
2.8015
2.80453
2.80321
2.7755
2.77686
2.77965
2.78797
2.77828
2.77831
2.78386
2.80256
2.79722
2.80108
2.79356
2.80439
2.79416
2.79918
2.80054
2.7803
2.79477
2.78276
2.79558
2.78112
2.79233
2.77665
2.78269
2.79843
2.79974
2.78605
2.7846
2.79572
2.79834
2.77805
2.79272
2.77976
2.7922
2.77835
2.79015
2.80766
2.8036
2.78733
2.79012
2.80431
2.79976
2.78883
2.75091
2.76656
2.75287
2.76089
2.74941
2.761
2.7518
2.76289
2.76777
2.74853
2.76662
2.76243
2.76857
2.76107
2.7778
2.79493
2.77455
2.77563
2.78201
2.78477
2.77542
2.78111
2.78275
2.79858
2.78257
2.78158
2.7784
2.78325
2.76477
2.75059
2.7647
2.76277
2.76365
2.76
2.76268
2.75619
2.76339
2.76259
2.7546
2.75804
2.75863
2.76014
2.71571
2.71342
2.7044
2.70871
2.70969
2.71084
2.70866
2.70729
2.70587
2.7059
2.7076
2.70656
2.70639
2.7109
2.70603
2.70563
2.70483
2.70524
2.70429
2.72962
2.72975
2.72932
2.73036
2.73292
2.73082
2.81259
2.81059
2.80956
2.81162
2.82146
2.82023
2.71094
2.71133
2.7093
2.92367
2.91497
2.92472
2.9165
2.92298
2.93062
2.91852
2.92908
2.91645
2.94288
2.94608
2.93242
2.94596
2.93945
2.94648
2.9385
2.92739
2.94703
2.95874
2.94464
2.93892
2.96168
2.97401
2.96779
2.95148
2.95477
2.9624
2.96124
2.96624
2.94374
2.96251
2.95464
2.96506
2.95161
2.95768
2.94759
2.94141
2.95164
2.97203
2.95086
2.94854
2.95743
2.97613
2.97137
2.97434
2.97917
2.90153
2.88526
2.92306
2.91326
2.91528
2.90347
2.89531
2.91815
2.91258
2.9094
2.87588
2.89929
2.94735
2.93927
2.94574
2.95256
2.94882
2.97841
2.98356
2.95457
2.97258
2.95842
2.96254
2.95216
2.95198
2.95957
2.95936
2.96673
2.9568
2.96474
2.9473
2.96224
2.97043
2.95688
2.90948
2.84746
2.87632
2.88152
2.87151
2.88822
2.8744
2.87706
2.86845
2.82954
2.83517
2.81271
2.83193
2.82779
2.83943
2.82542
2.86684
2.84404
2.85856
2.85448
2.85513
2.88129
2.85411
2.86273
2.85922
2.86741
2.85989
2.86636
2.87222
2.86882
2.86605
2.86026
2.84197
2.8494
2.85078
2.85091
2.84914
2.85138
2.85903
2.83958
2.8564
2.8483
2.8471
2.84258
2.86401
2.85937
2.84757
2.85999
2.85641
2.80973
2.83075
2.80886
2.82358
2.81352
2.82578
2.81526
2.82944
2.83539
2.81471
2.83235
2.82903
2.83962
2.82718
2.84321
2.8375
2.84409
2.8473
2.85507
2.83918
2.84681
2.84504
2.8437
2.849
2.84376
2.85042
2.83337
2.81664
2.83166
2.82764
2.82619
2.82478
2.82963
2.76667
2.76471
2.7979
2.80753
2.79116
2.8701
2.84352
2.85765
2.85356
2.86146
2.85272
2.86185
2.88728
2.88013
2.86043
2.86918
2.88065
2.87906
2.86706
2.81225
2.83757
2.81489
2.82839
2.81849
2.82878
2.81819
2.83305
2.83965
2.81612
2.83532
2.82864
2.84104
2.82693
2.85371
2.87064
2.84515
2.8484
2.85429
2.86135
2.84511
2.85483
2.85289
2.87161
2.85249
2.85647
2.85154
2.85995
2.83314
2.81593
2.83497
2.83036
2.82672
2.82625
2.83483
2.78047
2.7885
2.78809
2.78858
2.78134
2.78456
2.78215
2.77197
2.77809