/*--------------------------------*- C++ -*----------------------------------*\
| =========                 |                                                 |
| \\      /  F ield         | OpenFOAM: The Open Source CFD Toolbox           |
|  \\    /   O peration     | Version:  v1612+                                |
|   \\  /    A nd           | Web:      www.OpenFOAM.com                      |
|    \\/     M anipulation  |                                                 |
\*---------------------------------------------------------------------------*/
FoamFile
{
    version     2.0;
    format      ascii;
    class       volVectorField;
    location    "100";
    object      U;
}
// * * * * * * * * * * * * * * * * * * * * * * * * * * * * * * * * * * * * * //

dimensions      [0 1 -1 0 0 0 0];

internalField   nonuniform List<vector> 
21294
(
(-0.707957 0.381161 -0.644083)
(-0.704932 0.353781 -0.6172)
(-0.228331 0.199801 -0.226858)
(-0.278199 0.168255 -0.243629)
(-0.544371 0.357577 -0.679272)
(-0.6735 0.0875434 -0.545594)
(-0.639123 0.25162 -0.633788)
(-0.660488 0.268264 -0.625388)
(-0.263533 0.100308 -0.212945)
(-0.238318 0.185079 -0.274466)
(-0.282738 0.107122 -0.298517)
(-0.709063 0.296189 -0.598381)
(-0.670227 0.120109 -0.554084)
(-0.425664 0.13959 -0.26809)
(-0.604662 0.134955 -0.403462)
(-0.291247 0.138855 -0.394789)
(-0.681024 0.183415 -0.635361)
(-0.420935 0.231364 -0.290975)
(-0.454404 0.163044 -0.269441)
(-0.613703 0.21523 -0.669573)
(-0.533617 0.302601 -0.616187)
(-0.597186 0.381104 -0.682888)
(-0.572926 0.169582 -0.368351)
(-0.560878 0.270433 -0.45681)
(-0.596959 0.275557 -0.484528)
(-0.622263 0.332079 -0.505057)
(-0.41388 0.129013 -0.270628)
(-0.375002 0.0700789 -0.465)
(-0.529273 0.113471 -0.599453)
(-0.583312 0.0592672 -0.576983)
(-0.237599 0.242924 -0.260815)
(-0.620128 0.102415 -0.397955)
(-0.689555 0.211413 -0.653241)
(-0.606119 0.107912 -0.620036)
(-0.529877 0.392876 -0.627177)
(-0.445598 0.281375 -0.300257)
(-0.576257 0.371866 -0.687685)
(-0.564317 0.158267 -0.362351)
(-0.176933 0.283641 -0.296003)
(-0.224371 0.362523 -0.336891)
(-0.522254 0.181466 -0.578602)
(-0.209655 0.258065 -0.268726)
(-0.400441 0.22817 -0.247818)
(-0.645197 0.207979 -0.45307)
(-0.5684 0.369585 -0.513576)
(-0.254591 0.195466 -0.415344)
(-0.513452 0.273769 -0.609554)
(-0.689175 0.251643 -0.590599)
(-0.499403 0.27493 -0.590054)
(-0.613991 0.281012 -0.50221)
(-0.55831 0.203921 -0.639493)
(-0.556222 0.246345 -0.65159)
(-0.648399 0.267733 -0.57537)
(-0.712796 0.274338 -0.633629)
(-0.36043 0.158978 -0.248893)
(-0.450998 0.170231 -0.301183)
(-0.552055 0.188973 -0.61995)
(-0.499755 0.0902412 -0.587725)
(-0.358634 0.286597 -0.548963)
(-0.57442 0.249961 -0.544386)
(-0.739621 0.156667 -0.60439)
(-0.558579 0.18915 -0.586767)
(-0.683381 0.27936 -0.589161)
(-0.710124 0.246563 -0.600421)
(-0.657137 0.249324 -0.610285)
(-0.664557 0.198737 -0.552351)
(-0.601112 0.203867 -0.550244)
(-0.551571 0.327407 -0.576165)
(-0.301522 0.143497 -0.451091)
(-0.599358 0.358714 -0.689408)
(-0.591503 0.342313 -0.660615)
(-0.613463 0.0711045 -0.472934)
(-0.646689 0.154039 -0.523841)
(-0.688228 0.113955 -0.529229)
(-0.636781 0.0992519 -0.467209)
(-0.253041 0.129429 -0.262112)
(-0.622782 0.244846 -0.635809)
(-0.482074 0.211484 -0.313359)
(-0.638289 0.294208 -0.580232)
(-0.259324 0.154212 -0.432215)
(-0.319148 0.123044 -0.447243)
(-0.687468 0.110743 -0.586278)
(-0.540104 0.481155 -0.620027)
(-0.530773 0.483259 -0.57714)
(-0.53279 0.273538 -0.649731)
(-0.455531 0.340156 -0.32054)
(-0.183391 0.25648 -0.269681)
(-0.348533 0.250486 -0.249705)
(-0.324831 0.188179 -0.201878)
(-0.471317 0.324827 -0.342744)
(-0.518997 0.118727 -0.315753)
(-0.54375 0.0253305 -0.577249)
(-0.392786 0.252132 -0.254625)
(-0.655649 0.223109 -0.599339)
(-0.36115 0.0579345 -0.482936)
(-0.32205 0.0980175 -0.411131)
(-0.269562 0.0820347 -0.362518)
(-0.361335 0.17181 -0.25329)
(-0.160172 0.195169 -0.285769)
(-0.288598 0.115613 -0.18998)
(-0.485247 0.198652 -0.335124)
(-0.480423 0.151311 -0.304981)
(-0.45251 0.131993 -0.28013)
(-0.583241 0.330325 -0.550996)
(-0.542923 0.362975 -0.484589)
(-0.706426 0.271003 -0.589936)
(-0.638284 0.374687 -0.542655)
(-0.488482 0.0889647 -0.281046)
(-0.491911 -0.00796516 -0.498801)
(-0.578921 0.258308 -0.426462)
(-0.231311 0.224567 -0.254303)
(-0.525283 0.307386 -0.65143)
(-0.601227 0.238112 -0.506459)
(-0.496833 0.182858 -0.59864)
(-0.643328 0.338014 -0.639979)
(-0.511902 0.366849 -0.657837)
(-0.591867 0.150494 -0.634632)
(-0.675441 0.19767 -0.695219)
(-0.673358 0.187358 -0.688683)
(-0.687631 0.200829 -0.7148)
(-0.555363 0.0978003 -0.587258)
(-0.590459 0.116419 -0.627167)
(-0.182035 0.145426 -0.28575)
(-0.62721 0.238278 -0.662396)
(-0.507439 0.0859185 -0.56284)
(-0.553272 0.175048 -0.609832)
(-0.53521 0.302885 -0.646662)
(-0.354586 0.173605 -0.260563)
(-0.57417 0.0966173 -0.350219)
(-0.609478 0.125167 -0.406012)
(-0.622568 0.216517 -0.609904)
(-0.479938 0.0906774 -0.572226)
(-0.60637 0.246635 -0.568706)
(-0.644813 0.261423 -0.653316)
(-0.685513 0.296595 -0.638195)
(-0.517827 0.279637 -0.647181)
(-0.397383 0.152868 -0.280735)
(-0.573912 0.420389 -0.515458)
(-0.632069 0.434454 -0.558597)
(-0.595038 0.291855 -0.549685)
(-0.211749 0.224038 -0.395368)
(-0.306216 0.21367 -0.510384)
(-0.188827 0.21697 -0.358347)
(-0.209436 0.211351 -0.405543)
(-0.196109 0.202697 -0.36806)
(-0.238631 0.171375 -0.25365)
(-0.57992 0.139716 -0.604132)
(-0.588435 0.0926105 -0.608741)
(-0.575473 0.201859 -0.639719)
(-0.559148 0.30637 -0.621387)
(-0.593018 0.32225 -0.647205)
(-0.561835 0.302063 -0.652971)
(-0.549989 0.176694 -0.587317)
(-0.537912 0.159169 -0.573813)
(-0.588089 0.193909 -0.589673)
(-0.623144 0.215639 -0.539301)
(-0.585262 0.163334 -0.611902)
(-0.616083 0.193292 -0.639973)
(-0.639629 0.257418 -0.665984)
(-0.529563 0.321689 -0.579529)
(-0.532354 0.340677 -0.545967)
(-0.526427 0.410727 -0.628368)
(-0.559062 0.381851 -0.569514)
(-0.59148 0.0621382 -0.577185)
(-0.51537 -0.00029175 -0.534737)
(-0.663338 0.315584 -0.592013)
(-0.520462 0.389254 -0.644369)
(-0.237727 0.265612 -0.283063)
(-0.166578 0.16027 -0.210816)
(-0.191095 0.199594 -0.258199)
(-0.16083 0.167336 -0.235265)
(-0.458686 0.440497 -0.56787)
(-0.627552 0.24345 -0.503965)
(-0.486982 0.225371 -0.324357)
(-0.38008 0.189111 -0.26216)
(-0.467314 0.408476 -0.558404)
(-0.600353 0.28698 -0.656939)
(-0.691153 0.288127 -0.633789)
(-0.686477 0.247131 -0.604908)
(-0.539665 0.454773 -0.537792)
(-0.546419 0.455246 -0.504588)
(-0.305173 0.195185 -0.242497)
(-0.669916 0.376771 -0.569647)
(-0.64559 0.395109 -0.558888)
(-0.23603 0.159375 -0.286148)
(-0.562719 0.309892 -0.595051)
(-0.570082 0.307493 -0.60481)
(-0.579719 0.258744 -0.517538)
(-0.41693 0.0454926 -0.498115)
(-0.489764 0.0341661 -0.537378)
(-0.684161 0.290563 -0.602561)
(-0.604295 0.361702 -0.623864)
(-0.607076 0.392977 -0.622225)
(-0.614856 0.37677 -0.583566)
(-0.544891 0.352539 -0.571822)
(-0.52075 0.473237 -0.555897)
(-0.262422 0.162205 -0.22466)
(-0.253528 0.170265 -0.257068)
(-0.252796 0.168287 -0.246865)
(-0.293528 0.140512 -0.468265)
(-0.26096 0.200082 -0.440824)
(-0.290866 0.144791 -0.479994)
(-0.697875 0.263239 -0.578157)
(-0.656636 0.262516 -0.529146)
(-0.685438 0.327367 -0.567279)
(-0.621403 0.327425 -0.54641)
(-0.632327 0.322668 -0.562661)
(-0.611945 0.373824 -0.580011)
(-0.626638 0.341812 -0.555586)
(-0.275214 0.0892983 -0.264602)
(-0.700536 0.287822 -0.574585)
(-0.69077 0.277543 -0.562528)
(-0.591258 0.349435 -0.502248)
(-0.681788 0.205156 -0.595886)
(-0.58323 0.28324 -0.596836)
(-0.601001 0.304877 -0.581495)
(-0.5951 0.2519 -0.682476)
(-0.608674 0.106498 -0.636178)
(-0.459075 0.173245 -0.569773)
(-0.453484 0.224237 -0.585575)
(-0.244474 0.211915 -0.424822)
(-0.267193 0.181604 -0.448647)
(-0.3468 0.177604 -0.53011)
(-0.278551 0.19396 -0.474137)
(-0.556304 0.422177 -0.645632)
(-0.522359 0.355173 -0.603268)
(-0.583314 0.447652 -0.681305)
(-0.590262 0.149974 -0.389358)
(-0.644293 0.172443 -0.488126)
(-0.582993 0.0781725 -0.382843)
(-0.616959 0.093489 -0.502013)
(-0.622503 0.120174 -0.641852)
(-0.52342 0.376425 -0.675217)
(-0.488504 0.425412 -0.643733)
(-0.48073 0.357195 -0.63328)
(-0.608872 0.220546 -0.677924)
(-0.557406 0.148419 -0.614838)
(-0.695773 0.0919705 -0.574654)
(-0.693239 0.12102 -0.561405)
(-0.4982 0.418189 -0.592394)
(-0.522146 0.412911 -0.543114)
(-0.520357 0.407904 -0.544598)
(-0.529649 0.44228 -0.559777)
(-0.247991 0.123777 -0.244212)
(-0.26957 0.146848 -0.266597)
(-0.283309 0.154047 -0.241743)
(-0.238699 0.103824 -0.242848)
(-0.277096 0.120475 -0.264354)
(-0.29977 0.140483 -0.331531)
(-0.270589 0.119439 -0.314846)
(-0.639635 0.276102 -0.576142)
(-0.510356 0.249684 -0.346393)
(-0.439424 0.202503 -0.273477)
(-0.496998 0.202775 -0.302196)
(-0.557237 0.216572 -0.38082)
(-0.528451 0.280325 -0.377733)
(-0.557133 0.285167 -0.411659)
(-0.621362 0.13387 -0.656316)
(-0.601658 0.166481 -0.602601)
(-0.565186 0.0471175 -0.604786)
(-0.520317 0.338028 -0.38558)
(-0.502303 0.333678 -0.64546)
(-0.537607 0.142074 -0.573265)
(-0.674057 0.299376 -0.623398)
(-0.627974 0.116275 -0.518786)
(-0.647788 0.177065 -0.537128)
(-0.597922 0.132338 -0.599283)
(-0.409371 0.149277 -0.27002)
(-0.529764 0.203503 -0.633544)
(-0.59599 0.120548 -0.632448)
(-0.576973 0.1419 -0.620984)
(-0.536868 0.114071 -0.592785)
(-0.44114 0.160268 -0.580874)
(-0.440256 0.198446 -0.592483)
(-0.591241 0.271592 -0.552207)
(-0.24021 0.162536 -0.371814)
(-0.225657 0.164177 -0.295603)
(-0.741055 0.177409 -0.594331)
(-0.576436 0.106112 -0.351964)
(-0.542136 0.437702 -0.624935)
(-0.619912 0.207581 -0.661884)
(-0.534607 0.232395 -0.370336)
(-0.5962 0.227139 -0.60993)
(-0.602617 0.22626 -0.590554)
(-0.6334 0.220386 -0.644261)
(-0.320002 0.249186 -0.254775)
(-0.268745 0.222258 -0.220062)
(-0.575297 0.355424 -0.530909)
(-0.620211 0.168796 -0.453158)
(-0.520686 0.129126 -0.317604)
(-0.665647 0.312905 -0.580095)
(-0.547383 0.136884 -0.600468)
(-0.337663 0.185654 -0.519034)
(-0.424252 0.13639 -0.571247)
(-0.59422 0.394635 -0.495419)
(-0.603052 0.373462 -0.502637)
(-0.575954 0.149954 -0.619167)
(-0.649524 0.243475 -0.525643)
(-0.580765 0.255912 -0.619013)
(-0.581824 0.249888 -0.623532)
(-0.366939 0.230474 -0.545309)
(-0.632159 0.213041 -0.625148)
(-0.697891 0.254877 -0.572908)
(-0.731542 0.26993 -0.596467)
(-0.694205 0.243782 -0.580982)
(-0.412912 0.188455 -0.578968)
(-0.635123 0.154459 -0.599542)
(-0.609913 0.108171 -0.592942)
(-0.654169 0.0676561 -0.521393)
(-0.664153 0.0923267 -0.49441)
(-0.233675 0.203881 -0.426002)
(-0.23333 0.22509 -0.406414)
(-0.592515 0.0558453 -0.432217)
(-0.650226 0.11682 -0.51328)
(-0.420061 0.226176 -0.278753)
(-0.484847 0.245463 -0.324227)
(-0.607029 0.223584 -0.444199)
(-0.564113 0.416471 -0.472988)
(-0.358412 0.274509 -0.263405)
(-0.582091 0.325999 -0.504457)
(-0.702159 0.355361 -0.604987)
(-0.668892 0.239109 -0.569853)
(-0.492049 0.469401 -0.505449)
(-0.585533 0.219234 -0.635967)
(-0.645348 0.240314 -0.517993)
(-0.601923 0.266603 -0.599352)
(-0.274619 0.121899 -0.26042)
(-0.595293 0.065425 -0.572114)
(-0.563509 0.351219 -0.631007)
(-0.708645 0.175946 -0.572064)
(-0.622975 0.385487 -0.580017)
(-0.680123 0.0774601 -0.550437)
(-0.594802 0.415278 -0.536249)
(-0.580225 0.169366 -0.551407)
(-0.576775 0.24662 -0.611648)
(-0.326389 0.24439 -0.525311)
(-0.342499 0.109146 -0.212511)
(-0.711034 0.177308 -0.610714)
(-0.313367 0.232886 -0.249341)
(-0.499091 0.499269 -0.600158)
(-0.525452 0.50302 -0.607337)
(-0.512163 0.14973 -0.319993)
(-0.716642 0.130748 -0.560325)
(-0.573126 0.342564 -0.542813)
(-0.572084 0.324241 -0.491644)
(-0.282729 0.2205 -0.261592)
(-0.524842 0.11237 -0.307878)
(-0.580942 0.116536 -0.373782)
(-0.647102 0.23438 -0.584268)
(-0.218029 0.154828 -0.238127)
(-0.215062 0.179559 -0.251083)
(-0.545696 0.370812 -0.508054)
(-0.604592 0.291188 -0.574032)
(-0.69447 0.198168 -0.547687)
(-0.735823 0.213504 -0.603161)
(-0.646824 0.246999 -0.653776)
(-0.588342 0.209048 -0.578346)
(-0.634789 0.299967 -0.557805)
(-0.677197 0.271629 -0.552662)
(-0.482977 0.17106 -0.293531)
(-0.305324 0.164219 -0.229001)
(-0.32142 0.189897 -0.251626)
(-0.663765 0.279572 -0.54141)
(-0.656579 0.363115 -0.592727)
(-0.615339 0.349897 -0.582539)
(-0.629041 0.288603 -0.50816)
(-0.64455 0.317047 -0.524682)
(-0.634243 0.319944 -0.527798)
(-0.678363 0.375009 -0.605774)
(-0.627886 0.294 -0.51858)
(-0.253887 0.0902505 -0.225586)
(-0.249386 0.0855503 -0.199381)
(-0.570592 0.310328 -0.679774)
(-0.416666 0.116312 -0.552887)
(-0.362273 0.07795 -0.494378)
(-0.56814 0.255193 -0.665466)
(-0.572205 0.30205 -0.671936)
(-0.666134 0.145134 -0.578563)
(-0.616248 0.370554 -0.526602)
(-0.207431 0.11647 -0.20719)
(-0.616202 0.196062 -0.599673)
(-0.651709 0.256364 -0.555634)
(-0.296416 0.24269 -0.20999)
(-0.369783 0.289884 -0.247647)
(-0.421925 0.311401 -0.293203)
(-0.419441 0.33918 -0.3084)
(-0.191664 0.166092 -0.242641)
(-0.667944 0.16031 -0.513252)
(-0.221384 0.251041 -0.234721)
(-0.562308 0.2369 -0.663559)
(-0.286853 0.105428 -0.392927)
(-0.28336 0.196597 -0.468684)
(-0.255969 0.176401 -0.412377)
(-0.420874 0.17587 -0.260391)
(-0.584484 0.175482 -0.383166)
(-0.561251 0.258373 -0.606216)
(-0.621654 0.267305 -0.631877)
(-0.624876 0.0273749 -0.538215)
(-0.455925 0.314929 -0.30989)
(-0.63239 0.221081 -0.559453)
(-0.628509 0.184567 -0.520812)
(-0.618922 0.19568 -0.533981)
(-0.321139 0.284542 -0.220109)
(-0.589918 0.0574296 -0.579143)
(-0.674439 0.0740517 -0.526812)
(-0.689596 0.18444 -0.539803)
(-0.529689 0.164428 -0.578943)
(-0.591355 0.309302 -0.575644)
(-0.345732 0.159193 -0.48244)
(-0.238732 0.146071 -0.309135)
(-0.234293 0.11759 -0.328597)
(-0.187946 0.276588 -0.248296)
(-0.649022 0.36741 -0.556813)
(-0.66343 0.275688 -0.542135)
(-0.506171 0.0946661 -0.294168)
(-0.635689 0.264006 -0.700395)
(-0.574348 0.136072 -0.629004)
(-0.286746 0.0907392 -0.327138)
(-0.276906 0.11486 -0.289908)
(-0.362031 0.0927674 -0.224349)
(-0.205056 0.245974 -0.231518)
(-0.188692 0.267637 -0.255206)
(-0.381991 0.202815 -0.245044)
(-0.351304 0.174728 -0.200957)
(-0.31117 0.229415 -0.517137)
(-0.557372 0.264408 -0.657618)
(-0.606385 0.273781 -0.68934)
(-0.196817 0.215231 -0.377857)
(-0.244605 0.264378 -0.455047)
(-0.593493 0.255971 -0.499005)
(-0.328366 0.134255 -0.468366)
(-0.34607 0.13542 -0.498737)
(-0.621174 0.415007 -0.539227)
(-0.57519 0.429565 -0.537614)
(-0.591868 0.435561 -0.517091)
(-0.195775 0.242427 -0.38833)
(-0.530145 0.233626 -0.601144)
(-0.548346 0.344503 -0.657125)
(-0.486788 0.368313 -0.617875)
(-0.526929 0.337749 -0.613322)
(-0.526441 0.0524309 -0.582353)
(-0.401246 0.221281 -0.267796)
(-0.529386 0.371831 -0.528777)
(-0.527022 0.478724 -0.579053)
(-0.690772 0.276377 -0.624558)
(-0.229648 0.150064 -0.386475)
(-0.62027 0.37146 -0.513421)
(-0.552494 0.178183 -0.628606)
(-0.675325 0.33605 -0.584719)
(-0.238193 0.227462 -0.449659)
(-0.242803 0.151278 -0.223628)
(-0.179961 0.191463 -0.319455)
(-0.672262 0.20378 -0.58266)
(-0.355235 0.166307 -0.238597)
(-0.548292 0.381961 -0.49179)
(-0.306891 0.215903 -0.239675)
(-0.606635 0.0758088 -0.417292)
(-0.497844 0.417767 -0.654084)
(-0.687273 0.375048 -0.614425)
(-0.574089 0.199409 -0.626763)
(-0.54827 0.479346 -0.534143)
(-0.50978 0.463871 -0.546076)
(-0.490657 0.452584 -0.560129)
(-0.536542 0.488375 -0.560806)
(-0.565697 0.368455 -0.569657)
(-0.559811 0.151196 -0.588827)
(-0.288125 0.208257 -0.497878)
(-0.246549 0.174079 -0.462439)
(-0.490165 0.391151 -0.362332)
(-0.357176 0.0717333 -0.453401)
(-0.487353 0.161345 -0.298512)
(-0.640258 0.030201 -0.480657)
(-0.309396 0.301885 -0.243151)
(-0.549427 0.340626 -0.669101)
(-0.563218 0.271142 -0.609007)
(-0.591509 0.280362 -0.65242)
(-0.295207 0.0888563 -0.206996)
(-0.557361 0.433588 -0.56737)
(-0.202416 0.124293 -0.242418)
(-0.571174 0.280402 -0.407912)
(-0.258166 0.161333 -0.379884)
(-0.250569 0.15103 -0.368487)
(-0.529155 0.471203 -0.642318)
(-0.218082 0.223127 -0.237376)
(-0.168844 0.173595 -0.221265)
(-0.533282 0.20844 -0.621679)
(-0.411802 0.122084 -0.555893)
(-0.495352 0.163226 -0.617751)
(-0.307797 0.0978068 -0.428001)
(-0.327275 0.121564 -0.45352)
(-0.529971 0.33087 -0.579386)
(-0.539281 0.273472 -0.646317)
(-0.529787 0.31259 -0.580214)
(-0.581961 0.358644 -0.639144)
(-0.570754 0.333826 -0.628559)
(-0.593296 0.340389 -0.549163)
(-0.629622 0.219187 -0.550116)
(-0.615973 0.24158 -0.577288)
(-0.620076 0.125929 -0.399494)
(-0.597808 0.114138 -0.423375)
(-0.680866 0.152911 -0.606037)
(-0.693716 0.295743 -0.570175)
(-0.673588 0.169545 -0.535997)
(-0.645096 0.251184 -0.565166)
(-0.681683 0.250492 -0.582961)
(-0.712767 0.277588 -0.619022)
(-0.561479 0.219736 -0.651982)
(-0.695363 0.182718 -0.538418)
(-0.726649 0.161996 -0.563731)
(-0.630228 0.273242 -0.508761)
(-0.610499 0.295755 -0.494549)
(-0.232488 0.20032 -0.367766)
(-0.295284 0.20581 -0.494374)
(-0.207351 0.186423 -0.377944)
(-0.175126 0.168161 -0.321028)
(-0.633022 0.069166 -0.408577)
(-0.601174 0.382674 -0.523721)
(-0.540043 0.122001 -0.329354)
(-0.591024 0.0998731 -0.3855)
(-0.581471 0.136271 -0.368717)
(-0.614625 0.395609 -0.531466)
(-0.592087 0.399743 -0.527399)
(-0.505354 0.425883 -0.587141)
(-0.281776 0.196539 -0.22324)
(-0.556886 0.380742 -0.48428)
(-0.396655 0.0884873 -0.49274)
(-0.582049 0.298927 -0.575974)
(-0.198617 0.114133 -0.226467)
(-0.253085 0.117284 -0.229228)
(-0.437984 0.259535 -0.571528)
(-0.551199 0.312552 -0.608564)
(-0.230877 0.154634 -0.336569)
(-0.6524 0.322242 -0.5547)
(-0.526086 0.305885 -0.653849)
(-0.610477 0.319272 -0.615124)
(-0.489776 0.189907 -0.328047)
(-0.144527 0.208384 -0.24609)
(-0.291024 0.118879 -0.267414)
(-0.64115 0.347551 -0.581259)
(-0.595019 0.0214413 -0.371823)
(-0.549224 0.180857 -0.621992)
(-0.569341 0.0429598 -0.55675)
(-0.472656 0.347359 -0.627558)
(-0.473996 0.375519 -0.629045)
(-0.46807 0.422361 -0.619723)
(-0.498829 0.37161 -0.664597)
(-0.272337 0.177683 -0.449916)
(-0.568967 0.125152 -0.566229)
(-0.392346 0.193475 -0.257613)
(-0.448108 0.144445 -0.571148)
(-0.470439 0.0595131 -0.544897)
(-0.538952 0.220255 -0.360525)
(-0.470405 0.191299 -0.289495)
(-0.49736 0.306251 -0.357618)
(-0.57424 0.113831 -0.583161)
(-0.622734 -0.00152495 -0.504639)
(-0.588841 0.00608182 -0.488239)
(-0.690444 0.136716 -0.539703)
(-0.582068 0.180972 -0.612589)
(-0.554846 0.133176 -0.590438)
(-0.611954 0.153004 -0.596023)
(-0.499598 0.4058 -0.645975)
(-0.533515 0.467141 -0.644308)
(-0.566785 0.386253 -0.566859)
(-0.550342 0.256467 -0.380038)
(-0.421421 0.162766 -0.245377)
(-0.546197 0.147305 -0.609571)
(-0.586713 0.0936973 -0.419334)
(-0.585202 0.107553 -0.449055)
(-0.319754 0.0663239 -0.385378)
(-0.506375 0.0684381 -0.579333)
(-0.35256 0.0538331 -0.452624)
(-0.704736 0.129711 -0.603702)
(-0.626009 0.0453376 -0.567814)
(-0.667384 0.0899869 -0.593359)
(-0.612145 0.075767 -0.554582)
(-0.624403 0.0872687 -0.572142)
(-0.658928 0.124261 -0.573311)
(-0.680307 0.132572 -0.582348)
(-0.67394 0.109026 -0.497729)
(-0.680933 0.12852 -0.512292)
(-0.56357 0.321827 -0.681228)
(-0.531223 0.228597 -0.63331)
(-0.567669 0.306091 -0.668578)
(-0.54162 0.176523 -0.580147)
(-0.642139 0.352559 -0.623322)
(-0.631923 0.354473 -0.608682)
(-0.266389 0.0992248 -0.352705)
(-0.546721 0.492214 -0.590823)
(-0.531004 0.468974 -0.576206)
(-0.696183 0.305515 -0.718554)
(-0.599008 0.494042 -0.700871)
(-0.467978 0.474163 -0.541478)
(-0.661704 0.45012 -0.702884)
(-0.721613 0.366535 -0.671719)
(-0.580459 0.151424 -0.583497)
(-0.583527 0.345431 -0.569756)
(-0.628726 0.124973 -0.603973)
(-0.43838 0.36091 -0.480031)
(-0.614276 0.404139 -0.660952)
(-0.614249 0.305409 -0.596071)
(-0.45625 0.210053 -0.296071)
(-0.55547 0.553108 -0.695566)
(-0.606237 0.341145 -0.595482)
(-0.648623 0.299168 -0.607569)
(-0.660993 0.209258 -0.684345)
(-0.454946 0.572108 -0.541156)
(-0.538547 0.314907 -0.59107)
(-0.560702 0.516729 -0.603178)
(-0.517077 0.265181 -0.608565)
(-0.59088 0.431842 -0.602638)
(-0.740815 0.257526 -0.620072)
(-0.74451 0.20586 -0.656074)
(-0.742573 0.276099 -0.666963)
(-0.751202 0.265438 -0.647583)
(-0.615744 0.0512491 -0.584489)
(-0.593546 0.123665 -0.611978)
(-0.624711 0.148921 -0.641742)
(-0.598691 0.264378 -0.627213)
(-0.596903 0.0844662 -0.568905)
(-0.330454 0.366359 -0.393645)
(-0.268302 0.248675 -0.343136)
(-0.299403 0.111387 -0.322711)
(-0.274231 0.322582 -0.31051)
(-0.181494 0.176063 -0.291962)
(-0.394463 0.307946 -0.293297)
(-0.315569 0.438033 -0.455595)
(-0.232717 0.308538 -0.397519)
(-0.42149 0.613589 -0.527323)
(-0.450318 0.62856 -0.550362)
(-0.259491 0.356097 -0.457541)
(-0.578639 0.556657 -0.679715)
(-0.538167 0.420175 -0.579982)
(-0.548111 0.397127 -0.597052)
(-0.6137 0.317631 -0.512048)
(-0.548063 0.631409 -0.637603)
(-0.607504 0.475429 -0.604741)
(-0.585701 0.565841 -0.599191)
(-0.612212 0.519254 -0.58897)
(-0.557213 0.417227 -0.476297)
(-0.663185 0.448087 -0.616311)
(-0.573446 0.595683 -0.653451)
(-0.578932 0.477905 -0.564516)
(-0.635154 0.522329 -0.660103)
(-0.599921 0.536439 -0.665366)
(-0.582049 0.365011 -0.493457)
(-0.619819 0.335226 -0.678012)
(-0.502514 0.270634 -0.612812)
(-0.568678 0.24612 -0.6634)
(-0.559956 0.277965 -0.658412)
(-0.71009 0.324089 -0.703754)
(-0.714212 0.259635 -0.614601)
(-0.636726 0.331048 -0.651489)
(-0.670391 0.252883 -0.655042)
(-0.614289 0.251034 -0.648312)
(-0.613461 0.262045 -0.618205)
(-0.709075 0.321679 -0.64438)
(-0.580609 0.373136 -0.616136)
(-0.641585 0.46839 -0.702188)
(-0.616498 0.502413 -0.701326)
(-0.622155 0.375006 -0.706763)
(-0.63581 0.387108 -0.728076)
(-0.586984 0.454238 -0.700939)
(-0.628962 0.295534 -0.625805)
(-0.438106 0.379281 -0.542982)
(-0.524215 0.150007 -0.569961)
(-0.524799 0.215935 -0.600925)
(-0.285611 0.240476 -0.467168)
(-0.736184 0.367336 -0.662915)
(-0.658404 0.167887 -0.520369)
(-0.704843 0.230222 -0.59787)
(-0.696941 0.162381 -0.606221)
(-0.663018 0.156816 -0.608354)
(-0.68258 0.287092 -0.65165)
(-0.652693 0.338947 -0.555841)
(-0.616109 0.366393 -0.59391)
(-0.591766 0.523963 -0.672298)
(-0.68663 0.443786 -0.671951)
(-0.64304 0.460126 -0.628168)
(-0.6313 0.432649 -0.640122)
(-0.636462 0.479911 -0.641396)
(-0.647606 0.31463 -0.578496)
(-0.729925 0.373356 -0.645339)
(-0.668756 0.266628 -0.53249)
(-0.700434 0.415119 -0.657493)
(-0.561689 0.376843 -0.585131)
(-0.496895 0.462505 -0.558684)
(-0.664731 0.303894 -0.654457)
(-0.401606 0.323968 -0.504231)
(-0.468566 0.255901 -0.603596)
(-0.647809 0.456334 -0.634374)
(-0.546563 0.0789861 -0.594382)
(-0.492111 0.0857578 -0.572364)
(-0.328962 0.18521 -0.346427)
(-0.538231 0.231748 -0.588414)
(-0.479401 0.290702 -0.504171)
(-0.318391 0.154565 -0.420142)
(-0.602355 0.442582 -0.653098)
(-0.667575 0.322328 -0.67983)
(-0.634386 0.384036 -0.727357)
(-0.634369 0.262846 -0.699877)
(-0.611523 0.151546 -0.550925)
(-0.316205 0.193558 -0.443134)
(-0.421295 0.427718 -0.476308)
(-0.386685 0.312752 -0.384428)
(-0.238476 0.189488 -0.331611)
(-0.337135 0.259607 -0.45442)
(-0.47422 0.377413 -0.446034)
(-0.554439 0.320494 -0.496508)
(-0.659676 0.150216 -0.467265)
(-0.387854 0.313368 -0.427155)
(-0.233671 0.129246 -0.287479)
(-0.342276 0.21519 -0.297662)
(-0.293976 0.172434 -0.371901)
(-0.422997 0.149163 -0.259664)
(-0.515195 0.439055 -0.53719)
(-0.529178 0.374831 -0.499377)
(-0.59756 0.242823 -0.426847)
(-0.633534 0.359117 -0.603)
(-0.595194 0.270336 -0.469261)
(-0.599719 0.175866 -0.592947)
(-0.508028 0.296955 -0.361262)
(-0.408371 0.505974 -0.430421)
(-0.270647 0.444451 -0.351117)
(-0.253801 0.384974 -0.288016)
(-0.279839 0.298289 -0.265229)
(-0.531505 0.327638 -0.621927)
(-0.514656 0.310678 -0.35738)
(-0.508433 0.382197 -0.614992)
(-0.521634 0.579528 -0.633928)
(-0.541162 0.360405 -0.527306)
(-0.49234 0.278296 -0.586249)
(-0.507415 0.363172 -0.621738)
(-0.54369 0.399722 -0.475077)
(-0.484079 0.141351 -0.542799)
(-0.470485 0.421544 -0.635399)
(-0.503044 0.510851 -0.638743)
(-0.523479 0.468896 -0.692974)
(-0.480705 0.423128 -0.631048)
(-0.538801 0.39388 -0.679274)
(-0.428816 0.64711 -0.562726)
(-0.556236 0.629021 -0.596396)
(-0.510908 0.659056 -0.579852)
(-0.526497 0.607809 -0.644495)
(-0.493448 0.649013 -0.642975)
(-0.530776 0.545667 -0.694025)
(-0.53755 0.5395 -0.686335)
(-0.518229 0.195609 -0.573617)
(-0.667854 0.310955 -0.656438)
(-0.669402 0.277224 -0.627432)
(-0.680751 0.325403 -0.637277)
(-0.551681 0.287419 -0.533645)
(-0.646978 0.235818 -0.697725)
(-0.638782 0.200483 -0.474378)
(-0.659355 0.0943794 -0.545492)
(-0.701512 0.208844 -0.651283)
(-0.619102 0.0643831 -0.422306)
(-0.710555 0.295022 -0.731383)
(-0.672948 0.287576 -0.646123)
(-0.676097 0.114514 -0.482264)
(-0.698698 0.104736 -0.613014)
(-0.640694 0.293363 -0.613228)
(-0.680656 0.143423 -0.680899)
(-0.61857 0.0981472 -0.596247)
(-0.654972 0.337403 -0.605192)
(-0.590975 0.227164 -0.569485)
(-0.613151 0.275985 -0.596247)
(-0.621568 0.286692 -0.593538)
(-0.692059 0.394044 -0.680985)
(-0.732722 0.3468 -0.694829)
(-0.725749 0.371354 -0.680312)
(-0.734116 0.35181 -0.688161)
(-0.6718 0.372416 -0.657668)
(-0.675391 0.371896 -0.65409)
(-0.733319 0.351294 -0.68675)
(-0.597571 0.399396 -0.601477)
(-0.71725 0.359233 -0.659039)
(-0.543062 0.369416 -0.552568)
(-0.667601 0.349346 -0.636418)
(-0.636562 0.381063 -0.625171)
(-0.658048 0.371405 -0.631945)
(-0.642246 0.357625 -0.627514)
(-0.225802 0.151865 -0.256486)
(-0.286574 0.200061 -0.251218)
(-0.306622 0.107764 -0.250237)
(-0.36459 0.120808 -0.496815)
(-0.57454 0.398894 -0.581621)
(-0.59569 0.409347 -0.617227)
(-0.538179 0.554245 -0.610236)
(-0.558546 0.55869 -0.59038)
(-0.562883 0.536438 -0.57111)
(-0.510474 0.46186 -0.527476)
(-0.660151 0.298226 -0.541115)
(-0.640312 0.318378 -0.537264)
(-0.608488 0.260153 -0.484331)
(-0.655761 0.305111 -0.531345)
(-0.551245 0.475796 -0.539243)
(-0.516061 0.467662 -0.574876)
(-0.579602 0.457882 -0.564714)
(-0.514482 0.307184 -0.582938)
(-0.671114 0.381027 -0.701349)
(-0.667072 0.324535 -0.677179)
(-0.685037 0.393926 -0.717901)
(-0.672817 0.342536 -0.703523)
(-0.628352 0.32528 -0.674306)
(-0.592776 0.285642 -0.646762)
(-0.667427 0.345875 -0.700684)
(-0.644979 0.293879 -0.700785)
(-0.683952 0.328969 -0.684709)
(-0.688596 0.357391 -0.728569)
(-0.698182 0.339449 -0.71148)
(-0.668792 0.29655 -0.71428)
(-0.669527 0.293524 -0.706317)
(-0.692547 0.348814 -0.711449)
(-0.595595 0.481399 -0.716722)
(-0.598909 0.542017 -0.690397)
(-0.567658 0.535467 -0.685053)
(-0.580437 0.535962 -0.681381)
(-0.596228 0.496472 -0.712549)
(-0.603231 0.489487 -0.710431)
(-0.565959 0.545339 -0.678122)
(-0.313581 0.409419 -0.413158)
(-0.350663 0.394374 -0.436786)
(-0.37594 0.480798 -0.452964)
(-0.381462 0.437825 -0.449604)
(-0.357906 0.417476 -0.479119)
(-0.38458 0.411007 -0.488053)
(-0.374452 0.449758 -0.449817)
(-0.610686 0.160183 -0.579061)
(-0.632565 0.179281 -0.562243)
(-0.679954 0.240147 -0.575821)
(-0.602909 0.465891 -0.660929)
(-0.672205 0.449215 -0.666923)
(-0.629113 0.446507 -0.676369)
(-0.671803 0.444544 -0.678148)
(-0.646483 0.466842 -0.690818)
(-0.661286 0.468279 -0.690352)
(-0.655376 0.443746 -0.673601)
(-0.68162 0.408668 -0.69889)
(-0.686184 0.434444 -0.667385)
(-0.684241 0.417323 -0.705239)
(-0.694345 0.425323 -0.676988)
(-0.704184 0.399738 -0.681708)
(-0.712368 0.385332 -0.671401)
(-0.691259 0.430703 -0.679922)
(-0.656876 0.321016 -0.609779)
(-0.696511 0.268892 -0.603467)
(-0.644674 0.297473 -0.62583)
(-0.645852 0.289654 -0.627969)
(-0.509276 0.121344 -0.579985)
(-0.579126 0.379819 -0.59605)
(-0.428811 0.311708 -0.456848)
(-0.540077 0.353076 -0.537886)
(-0.448695 0.317077 -0.473597)
(-0.562312 0.358516 -0.568416)
(-0.558748 0.348323 -0.562851)
(-0.456519 0.326411 -0.475408)
(-0.625423 0.134846 -0.58795)
(-0.550566 0.440594 -0.606019)
(-0.484919 0.36946 -0.486507)
(-0.579125 0.426305 -0.626801)
(-0.489005 0.375156 -0.511912)
(-0.475466 0.411539 -0.512509)
(-0.426504 0.378766 -0.470731)
(-0.521465 0.400938 -0.544589)
(-0.259673 0.131983 -0.200437)
(-0.356462 0.161399 -0.226639)
(-0.372325 0.151434 -0.220746)
(-0.272559 0.156852 -0.25355)
(-0.673211 0.309951 -0.685783)
(-0.548452 0.368105 -0.537294)
(-0.645796 0.372935 -0.690972)
(-0.559166 0.404593 -0.584504)
(-0.624829 0.372095 -0.650612)
(-0.627839 0.379024 -0.635322)
(-0.565462 0.39567 -0.600494)
(-0.603392 0.446591 -0.705215)
(-0.632457 0.354801 -0.608675)
(-0.570661 0.512716 -0.674255)
(-0.628092 0.373943 -0.594333)
(-0.614342 0.352346 -0.65567)
(-0.613015 0.244066 -0.529896)
(-0.604737 0.428985 -0.637491)
(-0.333805 0.220217 -0.234854)
(-0.495804 0.183731 -0.302804)
(-0.49648 0.316047 -0.594373)
(-0.440268 0.233975 -0.568647)
(-0.567136 0.293829 -0.56187)
(-0.534758 0.262173 -0.567085)
(-0.557576 0.294868 -0.589926)
(-0.584227 0.476907 -0.715683)
(-0.553767 0.512958 -0.702357)
(-0.554562 0.537822 -0.684726)
(-0.543955 0.561633 -0.687466)
(-0.568464 0.514865 -0.709518)
(-0.55813 0.493074 -0.702996)
(-0.551899 0.557759 -0.691281)
(-0.67204 0.375451 -0.687534)
(-0.582139 0.33854 -0.589568)
(-0.698484 0.354375 -0.701797)
(-0.621675 0.338332 -0.623854)
(-0.622349 0.374367 -0.624954)
(-0.574289 0.356344 -0.581718)
(-0.652589 0.352507 -0.654236)
(-0.673377 0.302532 -0.688839)
(-0.694332 0.273021 -0.719402)
(-0.649857 0.362385 -0.69849)
(-0.678942 0.322912 -0.700424)
(-0.690393 0.258814 -0.654714)
(-0.692296 0.264523 -0.655216)
(-0.670034 0.3297 -0.698436)
(-0.584586 0.0337938 -0.54778)
(-0.661132 0.0473494 -0.570772)
(-0.656133 0.285617 -0.72357)
(-0.695046 0.264864 -0.722537)
(-0.67967 0.355389 -0.733906)
(-0.693172 0.282413 -0.71912)
(-0.65636 0.234066 -0.711225)
(-0.657848 0.20661 -0.693849)
(-0.687617 0.311748 -0.730227)
(-0.352118 0.127208 -0.263514)
(-0.256062 0.24247 -0.447053)
(-0.342315 0.205764 -0.538746)
(-0.418317 0.240097 -0.579074)
(-0.296144 0.18492 -0.493601)
(-0.457133 0.536373 -0.540356)
(-0.359623 0.420527 -0.474803)
(-0.501266 0.533507 -0.56092)
(-0.441813 0.488754 -0.529728)
(-0.422489 0.537959 -0.515433)
(-0.411225 0.538926 -0.498265)
(-0.437678 0.489224 -0.53021)
(-0.591173 0.333201 -0.548413)
(-0.526797 0.431515 -0.598919)
(-0.547177 0.364063 -0.594106)
(-0.51952 0.218725 -0.59755)
(-0.595138 0.504398 -0.610749)
(-0.585142 0.345113 -0.597901)
(-0.562391 0.390434 -0.617427)
(-0.570495 0.255587 -0.579775)
(-0.629827 0.384577 -0.615515)
(-0.573231 0.295291 -0.604836)
(-0.419913 0.480579 -0.529343)
(-0.326134 0.289511 -0.523146)
(-0.483591 0.32822 -0.607046)
(-0.348749 0.320307 -0.543978)
(-0.338125 0.3035 -0.539479)