/*--------------------------------*- C++ -*----------------------------------*\
| =========                 |                                                 |
| \\      /  F ield         | OpenFOAM: The Open Source CFD Toolbox           |
|  \\    /   O peration     | Version:  v1612+                                |
|   \\  /    A nd           | Web:      www.OpenFOAM.com                      |
|    \\/     M anipulation  |                                                 |
\*---------------------------------------------------------------------------*/
FoamFile
{
    version     2.0;
    format      ascii;
    class       volVectorField;
    location    "100";
    object      wallShearStress;
}
// * * * * * * * * * * * * * * * * * * * * * * * * * * * * * * * * * * * * * //

dimensions      [0 2 -2 0 0 0 0];

internalField   uniform (0 0 0);

boundaryField
{
    WALL
    {
        type            calculated;
        value           nonuniform List<vector> 
1533
(
(0.0229662 0.000905544 0.0125864)
(0.0223033 0.00220939 0.013565)
(0.0134728 0.00078691 0.0179347)
(0.0127397 -0.000329099 0.0173073)
(0.0169478 0.00618191 0.0115265)
(0.016575 0.00469936 0.00974072)
(0.0207345 0.0035697 0.0119992)
(0.0216219 0.00185631 0.0122429)
(0.0210109 0.00193405 0.0110718)
(0.0219354 0.0010582 0.0116365)
(0.012556 -0.00143598 0.0194726)
(0.0142034 -0.000553374 0.0208057)
(0.0169447 0.00364485 0.016429)
(0.0145529 0.00361167 0.0161067)
(0.0112595 -0.00523903 0.0190947)
(0.0113794 -0.00323675 0.020018)
(0.0192007 0.000974392 0.0158224)
(0.0205659 -4.30699e-05 0.0141807)
(0.0168461 -0.00479008 0.0138027)
(0.0162416 -0.00526493 0.0137338)
(0.0190226 0.00512235 0.0139162)
(0.018211 0.00483327 0.0156491)
(0.0227728 -0.00150587 0.0115954)
(0.0230005 -1.65949e-05 0.0122793)
(0.00647018 -0.00637906 0.00577478)
(0.0117405 -0.00226768 0.00550278)
(0.0107767 -0.00274392 0.00549501)
(0.00716668 -0.00204114 0.00756082)
(0.00704689 -0.0023282 0.00733863)
(0.0141816 0.00289782 0.017306)
(0.0133327 0.0021534 0.0174018)
(0.0135331 0.00145955 0.0177286)
(0.0130058 -0.000265752 0.0162263)
(0.0159679 0.00322319 0.00677899)
(0.0140338 0.00139252 0.0179774)
(0.0142119 0.000159507 0.0193841)
(0.0171762 0.00294302 0.00880703)
(0.0153138 0.00089406 0.00705993)
(0.018233 0.00395214 0.0109169)
(0.0183714 0.00472904 0.0130712)
(0.00816767 2.89639e-07 0.0101145)
(0.00815309 -0.000631714 0.0100291)
(0.0081694 0.000167171 0.0104393)
(0.0100062 0.000704995 0.0132365)
(0.00871831 -0.000241183 0.0107752)
(0.0197194 0.00349792 0.0115722)
(0.020187 0.00411765 0.0125917)
(0.0179824 0.00499043 0.0142565)
(0.0180508 0.00552828 0.0130424)
(0.0183528 0.00506172 0.0136353)
(0.0196611 0.00469733 0.0132487)
(0.020634 -0.000427236 0.0101908)
(0.0128239 -0.00292006 0.0193181)
(0.0122912 -0.00053656 0.0188755)
(0.0152268 0.001828 0.00636434)
(0.0161872 0.00336875 0.00769853)
(0.0214948 0.00269806 0.0136422)
(0.0221482 0.000299689 0.0125432)
(0.0210672 0.00118488 0.0125452)
(0.0223 0.000942113 0.0126084)
(0.0215483 0.00193345 0.013638)
(0.0216759 0.00175068 0.0122297)
(0.0205348 0.00222309 0.013816)
(0.020656 0.00328993 0.0132838)
(0.00819813 -0.000555208 0.0118697)
(0.00815827 3.39448e-05 0.0114792)
(0.00764609 -0.0010783 0.0108188)
(0.00867155 -0.000496906 0.0122292)
(0.0086402 0.000391155 0.0120726)
(0.00714166 -0.000771931 0.0105791)
(0.0135703 -0.0113765 0.01382)
(0.0130889 -0.0113194 0.0148108)
(0.0141514 -0.0116569 0.0128945)
(0.0122752 -0.0110722 0.0150437)
(0.0134837 -0.0025371 0.0166192)
(0.0137872 -0.00296101 0.0168451)
(0.0135314 -0.00250816 0.0171273)
(0.0137996 -0.00171338 0.0170166)
(0.013329 -0.00114954 0.0173545)
(0.0132357 0.000313899 0.0176235)
(0.0132032 -0.00076978 0.0173907)
(0.0132928 0.000671332 0.0177327)
(0.0159505 0.00452704 0.0142683)
(0.0159586 0.00428053 0.0135819)
(0.017025 0.0051404 0.0138209)
(0.018268 0.00491254 0.0144075)
(0.0161694 0.00549591 0.013907)
(0.0219223 0.000948026 0.013651)
(0.0201409 0.00312283 0.0130563)
(0.021492 0.00112607 0.0154195)
(0.0207288 -0.000168094 0.0114858)
(0.022394 0.000111444 0.012705)
(0.0196213 0.00130694 0.0120174)
(0.0205539 0.00126853 0.0148985)
(0.0196573 -0.00703185 0.0115621)
(0.021094 -0.00547184 0.0111595)
(0.0213275 -0.00479033 0.0110201)
(0.0197453 -0.00651864 0.0109084)
(0.0200697 -0.00638135 0.0113598)
(0.021266 -0.00558562 0.0116402)
(0.00599013 -0.00300077 0.00647329)
(0.00618538 -0.00286772 0.00704078)
(0.0060818 -0.00314865 0.00677335)
(0.00606096 -0.00289249 0.00726739)
(0.00601643 -0.00306091 0.00703875)
(0.00630856 -0.00299205 0.00680083)
(0.0165185 0.00252922 0.00729618)
(0.0157907 0.0023649 0.00714568)
(0.0158344 0.00153551 0.00712497)
(0.0156156 0.00154817 0.0066129)
(0.013996 0.000730559 0.00570518)
(0.0147542 0.000776021 0.00631264)
(0.00962568 0.00205662 0.0121943)
(0.00867527 0.000438347 0.0118975)
(0.0107496 0.000922971 0.0128938)
(0.0104422 0.00261813 0.0127956)
(0.00968561 0.000703521 0.0120135)
(0.0110626 0.00267231 0.0130074)
(0.0188511 0.0060959 0.0127375)
(0.0200049 0.00404649 0.0115479)
(0.0197669 0.00483613 0.0130859)
(0.0187877 0.00375836 0.0112374)
(0.0187272 0.00434829 0.0129489)
(0.011268 -0.00684317 0.0182826)
(0.0105795 -0.00549266 0.0189262)
(0.0112636 -0.00744636 0.018079)
(0.01172 -0.00612842 0.0191362)
(0.010757 -0.00678675 0.0182982)
(0.0108335 -0.00538808 0.0194872)
(0.0115598 -0.00898032 0.0177148)
(0.0122577 -0.00990617 0.0168822)
(0.0110583 -0.00851594 0.0179806)
(0.0112413 -0.00929129 0.0173068)
(0.0122483 -0.0104014 0.0161712)
(0.0114806 -0.00987627 0.016458)
(0.0114802 -0.00586663 0.0188405)
(0.0117785 -0.00658937 0.0180663)
(0.0109292 -0.00617178 0.0181874)
(0.0112234 -0.0050209 0.0185368)
(0.011533 -0.00685042 0.018207)
(0.0118799 -0.00576054 0.0188062)
(0.0151035 0.00183499 0.019567)
(0.0150561 0.000827507 0.0203841)
(0.0133132 -0.000331308 0.0194762)
(0.0147688 0.0010277 0.0197296)
(0.013457 -0.000779997 0.0204996)
(0.0154715 -0.000681205 0.0226389)
(0.0163978 0.00285365 0.0186163)
(0.0174087 0.0031477 0.0171952)
(0.0172291 0.00326473 0.0162983)
(0.0174932 0.00258326 0.0177422)
(0.0171046 0.0028069 0.0198488)
(0.0165493 0.0032213 0.0180049)
(0.013276 0.00152503 0.0183124)
(0.012904 -0.000959412 0.018393)
(0.0134526 -7.87675e-05 0.0188647)
(0.0132876 -0.000731732 0.0197423)
(0.0145334 0.000705722 0.0201598)
(0.0195238 0.00534628 0.0131369)
(0.0176351 0.00502638 0.0148246)
(0.0190353 0.00563701 0.0135629)
(0.0194056 0.0034925 0.0136376)
(0.0185 0.00494547 0.0146885)
(0.0193555 0.00458469 0.0116931)
(0.0195348 0.00411723 0.0111047)
(0.00930949 0.00141935 0.0125367)
(0.0087661 0.000812918 0.0122403)
(0.00799305 0.000258463 0.0112564)
(0.00769314 -0.000116183 0.0107137)
(0.00958579 0.000937907 0.0127069)
(0.00922837 0.000496651 0.0126032)
(0.0143619 0.00302538 0.0159237)
(0.0119716 0.00439438 0.0141891)
(0.0103754 0.00318542 0.0127089)
(0.0148036 0.00330284 0.0154481)
(0.0170736 0.00284464 0.0145903)
(0.0185394 0.00311272 0.0159774)
(0.0198435 0.0032066 0.0142463)
(0.0167517 0.00434646 0.0110783)
(0.0174379 0.00534866 0.0153237)
(0.0162335 0.000565111 0.00720587)
(0.0174842 0.000979914 0.00890161)
(0.0163528 0.000623532 0.00751226)
(0.0164363 0.00116277 0.00841876)
(0.0147092 -0.000365938 0.00670112)
(0.0157197 -0.000313153 0.00705159)
(0.0138978 2.48426e-05 0.00600061)
(0.0155554 0.00118602 0.00658095)
(0.0132305 -0.000769876 0.005949)
(0.0123843 -0.000695768 0.00554434)
(0.0148122 0.000914835 0.00640034)
(0.0141591 0.000165395 0.00605642)
(0.0165734 0.0036259 0.0151071)
(0.0145237 0.00343528 0.0151037)
(0.016464 0.00598541 0.0138811)
(0.0167954 0.00443379 0.0172968)
(0.015128 0.0044956 0.01644)
(0.0175526 0.00455855 0.0163117)
(0.0138804 0.00288726 0.0184418)
(0.0148634 0.000874898 0.0189222)
(0.015523 0.00371654 0.0182382)
(0.0151137 0.00230244 0.0171553)
(0.014743 0.00254463 0.0177895)
(0.0148369 0.00244493 0.0181659)
(0.0164573 0.00480055 0.012715)
(0.0184707 0.00523356 0.0125344)
(0.0162525 0.0064288 0.0126972)
(0.0164138 0.00433643 0.0138867)
(0.017537 0.0050077 0.0123055)
(0.0165508 0.00593338 0.012001)
(0.0161263 0.00285965 0.0198604)
(0.0159106 0.00480308 0.0168152)
(0.0161867 0.00274941 0.0178759)
(0.0145327 0.00235811 0.0186256)
(0.0169807 0.00356552 0.0190348)
(0.0146799 0.00180649 0.0181309)
(0.019235 0.00492211 0.0158181)
(0.0166954 0.00594171 0.0145604)
(0.0165415 0.00561226 0.0153853)
(0.018435 0.0046859 0.0155444)
(0.0157839 0.00380044 0.014736)
(0.0165627 0.00322338 0.0164537)
(0.0173061 0.0038185 0.0162905)
(0.0186179 0.00469286 0.0170407)
(0.0176117 0.00410426 0.0145891)
(0.0178074 0.00464776 0.0130303)
(0.0176371 0.00465894 0.0136366)
(0.0175085 0.0054021 0.014705)
(0.0141551 0.00369001 0.0167692)
(0.0143292 0.0023069 0.0181268)
(0.0162334 0.00474102 0.0173684)
(0.0155239 0.00201108 0.0185489)
(0.0176994 0.00276984 0.0182734)
(0.0171333 0.00443708 0.0175911)
(0.0155912 0.00562644 0.0156093)
(0.0143402 0.0043793 0.0138833)
(0.0154647 0.00356244 0.017536)
(0.0141556 0.00460615 0.0153346)
(0.0157466 0.00400341 0.0163059)
(0.0153071 0.0039324 0.0170897)
(0.016866 0.0045591 0.0130323)
(0.0147468 0.00457134 0.0129307)
(0.0151742 0.00544993 0.0141334)
(0.0174531 0.00575916 0.0138373)
(0.0167556 0.00648604 0.0120771)
(0.0160902 0.00474683 0.014271)
(0.0172353 0.00508806 0.0122326)
(0.0167981 0.00560362 0.0103771)
(0.0175702 0.005469 0.010167)
(0.0163143 0.00568448 0.0102008)
(0.0168075 0.00477867 0.00910836)
(0.017567 0.00462158 0.00960805)
(0.0171144 0.0048823 0.0109607)
(0.0167367 0.0059431 0.0110516)
(0.012701 0.00466609 0.0156342)
(0.0134197 0.00216253 0.0162453)
(0.0131682 0.0050994 0.0153188)
(0.0154165 0.00443715 0.0165474)
(0.0141007 0.00392684 0.0155942)
(0.0141134 0.00244996 0.0161177)
(0.0140666 0.0034417 0.0157214)
(0.0139976 0.00420519 0.0156098)
(0.0132724 0.00280253 0.0168507)
(0.0140755 0.00283038 0.0168369)
(0.0127398 0.00311819 0.0164917)
(0.00708822 -0.00197157 0.00727582)
(0.00743556 -0.00184596 0.00774651)
(0.00695604 -0.00162569 0.00804701)
(0.00765026 -0.00160776 0.00847879)
(0.00754822 -0.00148527 0.00912675)
(0.0103086 -0.00179624 0.00544822)
(0.0127213 -0.000568088 0.00544374)
(0.0127525 -0.000906754 0.00580039)
(0.0114152 -0.00138175 0.00557752)
(0.0110194 -0.001669 0.00523676)
(0.011507 -0.00136791 0.00518107)
(0.00723749 -0.00225319 0.00637477)
(0.00691432 -0.00236589 0.00643655)
(0.00717131 -0.00234518 0.00685057)
(0.00712689 -0.00221151 0.00655342)
(0.00706549 -0.00225265 0.0061447)
(0.00700542 -0.00235001 0.00632854)
(0.00661742 -0.00189694 0.00933076)
(0.00622673 -0.00250174 0.00834718)
(0.00625021 -0.00242975 0.00798664)
(0.00631259 -0.00164846 0.00907829)
(0.00620448 -0.0022016 0.00872001)
(0.0062519 -0.00204354 0.00849624)
(0.00617592 -0.00295998 0.00606815)
(0.00634204 -0.00264022 0.0060815)
(0.00671331 -0.00278891 0.00569397)
(0.00656113 -0.00299118 0.00587014)
(0.00636274 -0.00285174 0.00637504)
(0.00675845 -0.00270851 0.00587357)
(0.00604318 -0.00245466 0.0088642)
(0.0058453 -0.00237525 0.00843855)
(0.00573247 -0.00299978 0.00741304)
(0.00600436 -0.00278943 0.00774467)
(0.00577285 -0.00295727 0.00717232)
(0.00557277 -0.00271316 0.00793476)
(0.00783476 -0.00350444 0.00530406)
(0.00877826 -0.00342427 0.0053143)
(0.00694025 -0.0036318 0.00564337)
(0.0073527 -0.00363968 0.00549824)
(0.00767246 -0.00361284 0.00569062)
(0.00846706 -0.00355423 0.00576892)
(0.0139359 -0.00158404 0.00625851)
(0.0150575 -0.0011761 0.0069123)
(0.0162524 -0.000168852 0.00798632)
(0.0158393 -0.000730183 0.00746797)
(0.0150249 -0.00156166 0.00676465)
(0.0158141 -0.000188972 0.00728361)
(0.0112883 -0.00319067 0.00559802)
(0.0127691 -0.00270862 0.0058083)
(0.0104136 -0.00311868 0.00544329)
(0.0095479 -0.00346267 0.00539172)
(0.0102648 -0.00339953 0.00540891)
(0.0117482 -0.00291959 0.00586853)
(0.0131083 -0.00244552 0.00590529)
(0.0166963 -0.000739084 0.00753789)
(0.0155864 -0.0016579 0.00720452)
(0.0141207 -0.00254031 0.00643617)
(0.0155965 -0.0012863 0.00733751)
(0.0148119 -0.00200885 0.00653514)
(0.00561086 -0.00453487 0.00611238)
(0.00646252 -0.00448051 0.00593475)
(0.00548498 -0.00433251 0.00629081)
(0.00605704 -0.00469347 0.00600324)
(0.00547884 -0.00404913 0.00609792)
(0.00603664 -0.00411406 0.00558707)
(0.00591384 -0.00297586 0.0115783)
(0.00657091 -0.00195425 0.0128157)
(0.00659408 -0.00178216 0.0132061)
(0.00743129 -0.000317637 0.0138706)
(0.00696612 -0.00139865 0.0127374)
(0.0072536 -0.0016357 0.013213)
(0.00567746 -0.00200729 0.0114228)
(0.00622111 -0.00229388 0.0119154)
(0.00589404 -0.00488068 0.0057658)
(0.00539305 -0.00509586 0.00614068)
(0.00514158 -0.00480237 0.00612602)
(0.00634071 -0.00501696 0.00544632)
(0.0060327 -0.0052569 0.00573353)
(0.00547104 -0.00473297 0.00598376)
(0.00602331 -0.00595466 0.00622028)
(0.0054829 -0.0058528 0.00576396)
(0.0053888 -0.00579201 0.00658774)
(0.00510665 -0.00565476 0.0062915)
(0.019376 -0.0078597 0.012574)
(0.016735 -0.00848159 0.0133258)
(0.0183735 -0.00795672 0.0120908)
(0.0176594 -0.00860503 0.0129815)
(0.0175977 -0.00770421 0.0124226)
(0.0180731 -0.0072171 0.0118759)
(0.0218721 0.0037034 0.0144822)
(0.0194254 0.00433204 0.0156209)
(0.0189629 0.00319727 0.0140054)
(0.0197486 0.00452262 0.0137661)
(0.0208499 0.00367538 0.0137116)
(0.0176431 0.00372636 0.0138667)
(0.0224748 -0.00181132 0.011607)
(0.0221175 -0.000730196 0.0111289)
(0.0224231 -0.00300847 0.0113052)
(0.0218053 -0.00338787 0.0109044)
(0.0216379 -0.00281834 0.0108269)
(0.00719995 -0.00117962 0.012557)
(0.00768895 -0.000551906 0.0134175)
(0.0083114 0.000170835 0.013792)
(0.00687127 -0.00177741 0.0117689)
(0.0075708 -6.548e-05 0.0128225)
(0.00612068 -0.0016476 0.0110666)
(0.0197157 0.00395167 0.0139326)
(0.0206218 0.00255142 0.0130854)
(0.019456 0.00396171 0.0130032)
(0.0207103 0.00395048 0.0127154)
(0.0190482 0.00315087 0.0123596)
(0.0204586 0.00483653 0.0145216)
(0.0167097 0.0057111 0.0148207)
(0.0169785 0.00446413 0.0141025)
(0.0180102 0.0051156 0.0142943)
(0.0158119 0.00483556 0.0151461)
(0.0139587 0.00303053 0.0147542)
(0.0176746 0.00421313 0.0152007)
(0.0207948 0.00356271 0.0130108)
(0.0208849 0.00268162 0.0126163)
(0.021171 0.00253306 0.0117767)
(0.0200973 0.00486882 0.0127014)
(0.0211643 0.00408694 0.0131566)
(0.0208276 0.00245804 0.0116222)
(0.0204855 0.00252883 0.0117882)
(0.0218833 0.00365306 0.0137411)
(0.0122559 0.00380917 0.0145861)
(0.0114572 0.00287132 0.0147958)
(0.00947947 0.00215369 0.0128593)
(0.0116492 0.00256531 0.01395)
(0.0105028 0.0020425 0.013849)
(0.011171 0.00283045 0.0142955)
(0.007647 -0.00127626 0.0123497)
(0.00806279 -0.000350703 0.0127983)
(0.00861003 -0.000464448 0.0138415)
(0.00970522 0.000754705 0.0149265)
(0.00777375 -0.000812394 0.0134211)
(0.00882647 0.000600598 0.0138674)
(0.00945796 0.000459244 0.0140616)
(0.00909902 0.00151641 0.0139048)
(0.0109346 0.0021456 0.0158595)
(0.00799659 -7.46427e-06 0.0125363)
(0.00871465 0.000211456 0.0134808)
(0.0104754 0.00111255 0.0146298)
(0.0222573 -8.51206e-05 0.0111981)
(0.0225033 0.000653173 0.0120698)
(0.0212248 -0.000510549 0.0105085)
(0.0214201 -0.00188495 0.0117999)
(0.0210387 -0.00139905 0.0107654)
(0.0213344 0.000724155 0.0104818)
(0.0216848 0.000839754 0.0112227)
(0.0208271 0.00243165 0.0108344)
(0.0213206 -0.00556709 0.0115563)
(0.0202502 -0.00600992 0.0111562)
(0.0208048 -0.00562722 0.0118764)
(0.0209436 -0.00509989 0.011503)
(0.0200861 -0.00697179 0.0124281)
(0.0199599 -0.00682722 0.0124429)
(0.0218618 0.000424915 0.0113603)
(0.0218044 -0.000302941 0.011127)
(0.0218345 0.000665828 0.0113331)
(0.0222328 -0.000846692 0.0111476)
(0.0212888 0.00112491 0.0113257)
(0.0214455 -0.00053178 0.0108784)
(0.0212278 -0.00347617 0.01216)
(0.0215714 -0.00263981 0.0113943)
(0.020054 -0.00427478 0.0116905)
(0.0204758 -0.00473924 0.0124636)
(0.021649 -0.00278832 0.0117109)
(0.0205491 -0.00421475 0.0117802)
(0.0168627 -0.00475909 0.0118099)
(0.01968 -0.00358532 0.0109258)
(0.0183374 -0.00448611 0.0115942)
(0.0194413 -0.00348475 0.0111194)
(0.0144824 -0.0039649 0.0160307)
(0.015527 -0.00465102 0.0145977)
(0.0152057 -0.00399886 0.0157732)
(0.0142806 -0.00362556 0.0158139)
(0.0154849 -0.00468213 0.0147597)
(0.0145051 -0.00455756 0.0149901)
(0.0190291 -0.0064199 0.0132296)
(0.0178602 -0.00662887 0.0133236)
(0.0192996 -0.00543315 0.0120919)
(0.0194004 -0.00584307 0.0126106)
(0.0193716 -0.00602525 0.0124986)
(0.0185942 -0.00670769 0.013032)
(0.0161495 -0.00578696 0.0130197)
(0.0160527 -0.00572757 0.014511)
(0.0169116 -0.00529164 0.0127524)
(0.0166614 -0.00538369 0.0132341)
(0.0155646 -0.00541915 0.0143192)
(0.015098 -0.0060155 0.0175707)
(0.014503 -0.00623079 0.0157369)
(0.0142837 -0.00590617 0.0171614)
(0.0135501 -0.00505011 0.0172404)
(0.0146292 -0.00644281 0.0168496)
(0.0119453 -0.00199877 0.0184887)
(0.0125173 -0.00420502 0.0186402)
(0.0121097 -0.00365208 0.018756)
(0.0124893 -0.0027716 0.0183811)
(0.0130247 -0.00429441 0.0185501)
(0.0125261 -0.00290947 0.0187984)
(0.015661 0.00294273 0.018981)
(0.0136214 0.00178006 0.0178081)
(0.0139089 0.002388 0.0186356)
(0.0138476 0.00148432 0.0184712)
(0.0146526 0.00263115 0.0183251)
(0.0129929 0.00307547 0.0169079)
(0.0131352 -0.00240892 0.0186405)
(0.0139675 -0.00471857 0.0183393)
(0.0132481 -0.00228983 0.0188661)
(0.0130299 -0.00286482 0.0185991)
(0.01293 -0.00313062 0.0186555)
(0.0125157 -0.00349696 0.0183338)
(0.0133073 -0.00411518 0.018261)
(0.0158748 -0.00843769 0.0142502)
(0.0164567 -0.00820909 0.0138529)
(0.0156961 -0.00816945 0.0149038)
(0.0149835 -0.00796978 0.0152865)
(0.0158809 -0.00793917 0.0143158)
(0.015247 -0.00826186 0.0145577)
(0.0155142 -0.00742477 0.0151489)
(0.0153314 -0.00712132 0.0159327)
(0.0169914 -0.00711095 0.0136841)
(0.015822 -0.00692063 0.0147218)
(0.0167402 -0.00713568 0.0144119)
(0.0163753 -0.00746582 0.0141573)
(0.0137049 -0.00605511 0.0178703)
(0.0143833 -0.00701771 0.0164067)
(0.0136263 -0.00567594 0.0182061)
(0.0145825 -0.00733977 0.0172627)
(0.0138773 -0.00590983 0.0176044)
(0.0143628 -0.00654788 0.0167371)
(0.0184789 0.00207845 0.01591)
(0.0184855 0.00360112 0.0140415)
(0.0200435 0.00203614 0.0138929)
(0.0209658 0.00258838 0.0142169)
(0.0177652 0.00339659 0.0124083)
(0.0182814 0.00171594 0.0145548)
(0.0161382 -0.000851743 0.0209741)
(0.0152726 -0.0014438 0.021907)
(0.0153727 0.000375148 0.018821)
(0.0129141 0.00125831 0.0189424)
(0.0156703 0.000232426 0.0196451)
(0.015261 5.90544e-05 0.0201681)
(0.0154635 0.000587412 0.0205657)
(0.0140412 -0.00138705 0.0199754)
(0.0129655 -0.00138498 0.020072)
(0.0175855 0.00180566 0.0192442)
(0.0185491 0.00249554 0.0179232)
(0.0184649 0.00309526 0.0164634)
(0.0161509 0.00152229 0.0185176)
(0.0160425 0.00187339 0.0175291)
(0.0180744 0.00115448 0.0177986)
(0.0169304 0.00212838 0.0177296)
(0.018633 0.00198637 0.0171908)
(0.0191565 0.0012023 0.0182804)
(0.0164055 0.000772415 0.0187689)
(0.0176846 0.00281304 0.0168367)
(0.0175106 0.000822102 0.0187307)
(0.0206625 0.0022841 0.0164294)
(0.0195625 0.00108452 0.0136005)
(0.0191895 0.00235603 0.0141013)
(0.0199123 0.00107799 0.0140692)
(0.0197829 0.00193553 0.0159205)
(0.0196113 0.00104546 0.0122699)
(0.0117433 -0.00694608 0.0197565)
(0.0112904 -0.00671059 0.0193479)
(0.0105671 -0.00744969 0.0180046)
(0.0106922 -0.00709119 0.0186376)
(0.0110443 -0.00804413 0.0184912)
(0.0117413 -0.0060498 0.0199822)
(0.0112148 -0.00782689 0.0171541)
(0.0127313 -0.00936964 0.0168633)
(0.0123688 -0.00937145 0.0159308)
(0.0117676 -0.00886715 0.0169812)
(0.0119671 -0.00944322 0.0168119)
(0.0118361 -0.00833638 0.017136)
(0.0143899 -0.0105718 0.0138835)
(0.0146467 -0.0114309 0.014615)
(0.0136443 -0.0110914 0.0152246)
(0.013602 -0.0104005 0.0149566)
(0.0152557 -0.0110318 0.0132483)
(0.0131147 -0.0105394 0.01582)
(0.0176195 -0.00897623 0.0125317)
(0.0182741 -0.00837156 0.0116353)
(0.0171186 -0.0095666 0.0134831)
(0.0197206 -0.00852786 0.012007)
(0.0173738 -0.00943319 0.0129162)
(0.0195716 -0.009189 0.0130909)
(0.00907382 0.000160638 0.0129184)
(0.0101943 0.0013469 0.0142673)
(0.0102513 0.00206626 0.0142288)
(0.0112217 0.00258893 0.0146658)
(0.00920633 0.00191618 0.0136976)
(0.011782 0.00213144 0.0154671)
(0.0214375 0.000847382 0.0128941)
(0.021348 0.00193193 0.0143839)
(0.0206494 0.00203609 0.0140804)
(0.022291 0.000702196 0.0131644)
(0.0210924 0.00182707 0.0127355)
(0.0198841 0.00302832 0.0142119)
(0.0183066 0.0039779 0.0156106)
(0.0181118 0.0029653 0.0149088)
(0.0181421 0.00404618 0.0162256)
(0.0196577 0.0027977 0.0148747)
(0.0186308 0.00462933 0.0146665)
(0.0175134 0.00304648 0.0161374)
(0.0200345 0.00415556 0.0134823)
(0.0173838 0.00531184 0.0148504)
(0.0201223 0.00444832 0.016339)
(0.0187046 0.00307282 0.013651)
(0.0201112 0.00367629 0.0147898)
(0.0180618 0.00366468 0.0148132)
(0.0222254 -0.000784896 0.011729)
(0.0223635 -0.00262865 0.01126)
(0.0223892 -0.00360113 0.011554)
(0.0222354 -0.00246886 0.0110307)
(0.0229449 -0.0016601 0.0120647)
(0.0226198 -0.000972265 0.0113416)
(0.0224123 1.5084e-06 0.0147427)
(0.019876 0.00100841 0.0144628)
(0.0190317 0.00119001 0.0147351)
(0.00786956 -0.00212817 0.00590948)
(0.0077568 -0.00206221 0.00558604)
(0.00741063 -0.00205107 0.00620813)
(0.00722383 -0.00207251 0.00611886)
(0.00756367 -0.00216927 0.00618641)
(0.00783197 -0.00224867 0.00520467)
(0.00825648 -0.00203119 0.00542877)
(0.00886168 -0.00217612 0.00547374)
(0.00883893 -0.00177152 0.00498908)
(0.00950237 -0.00172872 0.00511485)
(0.00766047 -0.00216395 0.00536542)
(0.0158205 0.00506653 0.0158172)
(0.0144998 0.00450488 0.0127917)
(0.0158673 0.00655667 0.0133683)
(0.0148554 0.00631217 0.0133131)
(0.0169661 0.00487898 0.016121)
(0.0151439 0.0046887 0.0125792)
(0.0176886 0.00441497 0.0105128)
(0.018592 0.00499609 0.014147)
(0.0177149 0.00562494 0.0117333)
(0.0182454 0.00487837 0.0113414)
(0.01812 0.00460298 0.0119087)
(0.0190933 0.00504116 0.014177)
(0.0136914 -0.00191328 0.0197571)
(0.0141161 0.0017542 0.0199683)
(0.0148517 0.000270141 0.0199127)
(0.0142205 4.38784e-06 0.0195835)
(0.0129972 0.000228015 0.0192878)
(0.0135578 -0.000718303 0.019021)
(0.0152875 0.00189444 0.0199114)
(0.0143827 -0.000850795 0.0211547)
(0.0157348 6.93871e-06 0.0211242)
(0.0147905 0.00096849 0.0199555)
(0.0131871 0.000532715 0.0195175)
(0.0124215 -0.00185536 0.0202623)
(0.0131765 -0.0025205 0.0196913)
(0.0125187 -0.00143302 0.0204788)
(0.0131437 -0.00100326 0.0199745)
(0.014759 0.00251085 0.0204293)
(0.0128854 -0.00317726 0.0196002)
(0.013282 -0.00274966 0.0203962)
(0.0131661 -0.000523892 0.0198023)
(0.012756 -0.00223977 0.0199818)
(0.0112047 -0.00114432 0.0051974)
(0.00999274 -0.00131677 0.00502427)
(0.0114938 -0.00120095 0.00551447)
(0.00792397 -0.00548037 0.00546279)
(0.0210275 0.00370086 0.0155468)
(0.0170777 0.00420111 0.0152854)
(0.0207803 0.00311718 0.0138472)
(0.0217821 0.000581581 0.0123946)
(0.0222891 -0.000499955 0.0114394)
(0.0220911 -0.00333242 0.0110631)
(0.0227094 -0.00323701 0.0112401)
(0.0228956 -0.00121779 0.0117964)
(0.0225624 -0.00241876 0.0110803)
(0.0222987 -0.000332973 0.011727)
(0.0109526 0.00278188 0.0147575)
(0.0129326 -0.00862494 0.0175353)
(0.0114701 -0.00746571 0.0173531)
(0.0128438 -0.0102943 0.0164916)
(0.0173538 -0.00896799 0.0111474)
(0.0181159 -0.0094945 0.0116248)
(0.0158256 -0.0108678 0.0128719)
(0.0164204 -0.0102898 0.0120159)
(0.0171435 -0.00980856 0.0114771)
(0.0104109 -0.00847422 0.0173949)
(0.0191936 0.000604676 0.0162771)
(0.0180338 0.00148047 0.0165037)
(0.0152648 0.00146222 0.0190755)
(0.0175631 0.00115861 0.0197996)
(0.0134281 -0.00293882 0.0221129)
(0.0120933 -0.00403949 0.0209468)
(0.0128206 -0.00435562 0.0205314)
(0.0118734 -0.00450375 0.0202734)
(0.0126462 -0.000981137 0.0217652)
(0.0120184 -0.00139636 0.0204753)
(0.0129811 -0.00156781 0.0207906)
(0.0139559 -0.00122553 0.0210296)
(0.0161371 0.000914935 0.020289)
(0.017348 0.00113929 0.0191223)
(0.0180672 -2.52426e-05 0.00950091)
(0.0186486 0.000973242 0.00966349)
(0.0183358 0.00116244 0.00958517)
(0.0184754 0.00335767 0.0152265)
(0.0197673 0.00251705 0.0121999)
(0.0183409 0.00302402 0.0173029)
(0.018333 0.00143753 0.0110513)
(0.0181368 0.00235384 0.00996645)
(0.0192435 0.00183174 0.0125244)
(0.015294 -0.00230572 0.00684933)
(0.0163716 -0.00206243 0.00749426)
(0.0152869 -0.00296402 0.00702428)
(0.0141606 -0.00367866 0.00655932)
(0.0129587 -0.00374501 0.00614815)
(0.0141665 -0.00322101 0.00659824)
(0.0169147 -0.00097484 0.00803788)
(0.0195552 0.000873721 0.0111344)
(0.0181079 0.000807047 0.0102979)
(0.0184867 -0.000797523 0.00936904)
(0.019191 0.000918679 0.0115687)
(0.0183449 -0.000234571 0.0106619)
(0.00570593 -0.00247622 0.00963898)
(0.00543569 -0.00283943 0.00898189)
(0.00562592 -0.00309186 0.00959784)
(0.00483749 -0.00338334 0.00845724)
(0.00518813 -0.00315632 0.00942914)
(0.0051417 -0.00327989 0.00886034)
(0.00462573 -0.00426466 0.00683963)
(0.00480886 -0.00444366 0.00655425)
(0.00480386 -0.00404583 0.00718291)
(0.0047688 -0.00387085 0.00758402)
(0.00481993 -0.00369717 0.00795808)
(0.012532 -0.0070641 0.0181732)
(0.0133365 -0.0087898 0.0176088)
(0.0130621 -0.00757027 0.0180063)
(0.0126481 -0.00745468 0.0180279)
(0.0168691 -0.00873907 0.0127907)
(0.0154687 -0.0090286 0.0153523)
(0.0159884 -0.00897075 0.014221)
(0.0155534 -0.00931385 0.0141333)
(0.0162213 -0.00908016 0.013855)
(0.0134865 -0.00873279 0.016787)
(0.0145564 -0.0089597 0.0158871)
(0.0145425 -0.00917563 0.0150796)
(0.0138266 -0.00931027 0.0158487)
(0.0130336 -0.00812068 0.0169186)
(0.0137903 -0.00842727 0.0167371)
(0.0164926 -0.00873782 0.0136666)
(0.014742 -0.00746542 0.0153857)
(0.0132058 -0.00585192 0.0183469)
(0.0129532 -0.00534995 0.0182606)
(0.0131743 -0.00450938 0.018666)
(0.0144056 -0.00738615 0.0177487)
(0.0131576 -0.00648096 0.0177003)
(0.0145756 -0.0066763 0.0162149)
(0.0137511 -0.00549432 0.0173568)
(0.0137393 -0.00460196 0.0180033)
(0.0134567 -0.00447064 0.01737)
(0.0139973 -0.00483829 0.0172167)
(0.0136221 -0.0035196 0.01789)
(0.0136999 -0.00452205 0.0168456)
(0.0149631 -0.00510339 0.0170757)
(0.0173995 -0.00676569 0.0137273)
(0.0191339 -0.00510857 0.011678)
(0.017577 -0.00685698 0.0131571)
(0.0153388 -0.0051907 0.0161352)
(0.0146223 -0.0047567 0.0166738)
(0.0136333 -0.00338025 0.0174858)
(0.0144197 -0.00394422 0.0172377)
(0.0146861 -0.00485684 0.0159268)
(0.0150431 -0.0048533 0.0151762)
(0.013995 -0.00292732 0.0163943)
(0.0127253 -0.0014391 0.0175833)
(0.013883 -0.0023672 0.0182971)
(0.0133595 -0.000694377 0.0180079)
(0.0190235 -0.00459396 0.011338)
(0.0184205 -0.00544095 0.0125544)
(0.0187247 -0.00404138 0.0107389)
(0.0170303 -0.0049923 0.0116944)
(0.0186799 -0.00461131 0.0118724)
(0.0177211 -0.00437341 0.0117017)
(0.015101 -0.00464754 0.0135499)
(0.0201378 -0.00245259 0.0104395)
(0.0216059 2.02612e-06 0.0111222)
(0.0221749 -0.000844226 0.0114675)
(0.0213254 -0.00146308 0.0105426)
(0.0209072 -0.004345 0.0120796)
(0.0220303 -0.00259284 0.0114319)
(0.0218722 -0.00180225 0.0109084)
(0.0209412 -0.00315069 0.0107029)
(0.0163794 -0.00761457 0.0135146)
(0.0176195 -0.00813824 0.0136118)
(0.0173176 -0.00742838 0.0128625)
(0.0179595 -0.00691817 0.0126212)
(0.0180357 -0.00752233 0.0126555)
(0.0219195 -0.000674259 0.0113544)
(0.0219677 -0.00168494 0.0112301)
(0.0215939 -0.00244393 0.0112089)
(0.0191318 -0.00679618 0.0121912)
(0.0223799 -0.00217493 0.0115081)
(0.0198919 -0.00477496 0.0122171)
(0.0192466 -0.00445385 0.0114218)
(0.0200252 -0.00343268 0.0111448)
(0.0207103 -0.00300315 0.0112203)
(0.0219074 -0.00112885 0.0111078)
(0.00571335 -0.00265644 0.00909846)
(0.00883315 0.000459327 0.0128364)
(0.00602764 -0.00208999 0.0104485)
(0.00722404 -0.000995836 0.0111612)
(0.0079277 -0.000596584 0.0116831)
(0.0130459 0.00321552 0.0149535)
(0.0095826 0.00121332 0.0132726)
(0.0219994 0.00114505 0.0117989)
(0.0215256 0.00127189 0.0116101)
(0.012647 0.00405327 0.0140706)
(0.0214766 0.00152466 0.0121698)
(0.0221275 0.00281481 0.0130608)
(0.0171438 0.00351953 0.0160251)
(0.017421 0.00308227 0.0159197)
(0.0164488 0.00437656 0.0155988)
(0.0161956 0.00344957 0.0161378)
(0.0193653 0.00385487 0.0147175)
(0.0188876 0.00330446 0.015586)
(0.0222288 -0.00282831 0.0101258)
(0.0228437 -0.00136181 0.0120325)
(0.0231172 -0.000968386 0.0118398)
(0.0223545 -0.000507474 0.0121448)
(0.0227002 -0.00236363 0.0111752)
(0.0221617 -0.00249111 0.0109976)
(0.0226077 -0.00391052 0.0117551)
(0.0224912 -0.00119804 0.0116446)
(0.0212835 1.17995e-05 0.0105172)
(0.0231223 -0.00299859 0.0115037)
(0.0162783 0.00462709 0.0154482)
(0.012792 0.0039113 0.0151919)
(0.016306 0.00390498 0.0166422)
(0.0170744 0.00337073 0.0177061)
(0.0139828 0.00269716 0.0155376)
(0.0110496 0.0022508 0.0149403)
(0.0117587 0.0033661 0.0151646)
(0.0116233 0.00196542 0.0157303)
(0.010012 0.00114901 0.0146549)
(0.00588282 -0.00252948 0.0102861)
(0.00674684 -0.00112255 0.0120419)
(0.00635083 -0.00192512 0.0110403)
(0.0056315 -0.00277542 0.0102375)
(0.00608485 -0.00251036 0.0110498)
(0.0143193 0.00437714 0.0150104)
(0.0152005 0.00455213 0.0147028)
(0.0173332 0.00413816 0.0153865)
(0.021934 -0.00319678 0.0113891)
(0.0218892 -0.00404939 0.0117852)
(0.0224882 0.000220397 0.012297)
(0.0228239 -0.00359541 0.0117037)
(0.0226101 -0.000971475 0.0118222)
(0.0222902 -0.00112593 0.0114389)
(0.0223899 -0.00200598 0.0115901)
(0.0222047 -0.00138808 0.0113424)
(0.0220665 0.000914965 0.0117693)
(0.0226227 0.000117964 0.0120122)
(0.0220497 0.000870228 0.0120629)
(0.0160207 0.00501912 0.0146126)
(0.018607 0.00540598 0.0137655)
(0.0218095 0.00167227 0.0128441)
(0.0213288 0.00280086 0.0122507)
(0.0204356 0.00374807 0.0122936)
(0.0207131 0.00215614 0.01269)
(0.021872 0.00247785 0.0126078)
(0.0214259 0.00271016 0.0131609)
(0.0204485 0.00261351 0.0141309)
(0.0216712 -0.00479764 0.0109297)
(0.0213383 -0.00733552 0.0115619)
(0.0190817 -0.00873859 0.0116382)
(0.0193932 -0.00845598 0.0119814)
(0.0183879 -0.00999542 0.01156)
(0.0189668 -0.00940706 0.0107614)
(0.0219698 -0.00555238 0.0110706)
(0.0217587 -0.00459318 0.0105892)
(0.0209806 -0.00656393 0.0108056)
(0.0220926 -0.0024781 0.0105463)
(0.0228708 -0.00376623 0.0114862)
(0.0224029 -0.0048335 0.0101976)
(0.0179871 -0.0101032 0.0112929)
(0.0176957 -0.0106162 0.0119904)
(0.0169239 -0.0111635 0.0125384)
(0.017065 -0.0105555 0.0111901)
(0.00498667 -0.00337409 0.00894679)
(0.00709054 -0.00559574 0.00556196)
(0.00866913 -0.00638516 0.00601694)
(0.0100534 -0.00609515 0.0056131)
(0.012448 -0.00545453 0.00584656)
(0.014047 -0.00502505 0.00636191)