/*--------------------------------*- C++ -*----------------------------------*\
| =========                 |                                                 |
| \\      /  F ield         | OpenFOAM: The Open Source CFD Toolbox           |
|  \\    /   O peration     | Version:  v1612+                                |
|   \\  /    A nd           | Web:      www.OpenFOAM.com                      |
|    \\/     M anipulation  |                                                 |
\*---------------------------------------------------------------------------*/
FoamFile
{
    version     2.0;
    format      ascii;
    class       volVectorField;
    location    "50";
    object      wallShearStress;
}
// * * * * * * * * * * * * * * * * * * * * * * * * * * * * * * * * * * * * * //

dimensions      [0 2 -2 0 0 0 0];

internalField   uniform (0 0 0);

boundaryField
{
    WALL
    {
        type            calculated;
        value           nonuniform List<vector> 
1501
(
(0.00299999 -0.0169107 0.0060503)
(0.00289917 -0.0167162 0.00595107)
(0.00338288 -0.0183774 0.0068031)
(0.00291501 -0.0177863 0.00658691)
(0.00277072 -0.016733 0.00592629)
(0.0028532 -0.016572 0.00592374)
(0.00501034 -0.0268567 0.0104792)
(0.00579946 -0.0285796 0.010781)
(0.00301887 -0.0166601 0.00605754)
(0.00281252 -0.0162207 0.00599876)
(0.0030163 -0.0171538 0.00643205)
(0.00306634 -0.0171331 0.00636801)
(0.00364927 -0.0195824 0.00722037)
(0.00354195 -0.0194054 0.00695285)
(0.00377811 -0.0215945 0.00783484)
(0.0036624 -0.0204958 0.00752556)
(0.00719056 -0.0364877 0.0151579)
(0.0166625 -0.0586649 0.0278059)
(0.00430781 -0.0249069 0.00902478)
(0.00428697 -0.0230896 0.00823657)
(0.0467284 -0.11344 0.0444056)
(0.00341954 -0.0220745 0.00830948)
(0.0032264 -0.0203919 0.00755298)
(0.00399499 -0.021966 0.00881924)
(0.00347666 -0.0217774 0.00817201)
(0.00369332 -0.0199599 0.00770157)
(0.00330179 -0.0210926 0.00773562)
(0.00247658 -0.0155344 0.0053331)
(0.00259748 -0.0153619 0.00522968)
(0.00262183 -0.0168644 0.00624564)
(0.00289937 -0.0170738 0.00594292)
(0.00277338 -0.0162428 0.00611392)
(0.00261883 -0.0163677 0.00604309)
(0.00269151 -0.015727 0.00574257)
(0.00356761 -0.0242512 0.00898975)
(0.00352163 -0.022349 0.00811531)
(0.00331849 -0.0239201 0.00880875)
(0.00357846 -0.0238192 0.00882793)
(0.00330985 -0.0218584 0.00806862)
(0.00329346 -0.0218777 0.00795829)
(0.00267197 -0.0171687 0.00607885)
(0.00300736 -0.0176047 0.00658329)
(0.00316132 -0.0185709 0.00713811)
(0.00301616 -0.0182826 0.00672272)
(0.0028518 -0.0175339 0.00617693)
(0.0028942 -0.0186549 0.00681062)
(0.00776533 -0.0542676 0.0272051)
(0.00654996 -0.0392954 0.0176197)
(0.00481526 -0.0309176 0.0126251)
(0.00537166 -0.0304715 0.0123559)
(0.00449406 -0.0319376 0.01293)
(0.00546376 -0.0405501 0.0178549)
(0.0452489 -0.116026 0.0680649)
(0.0502545 -0.132243 0.0723557)
(0.0306428 -0.09369 0.0490853)
(-0.00200638 -0.0757489 0.0294049)
(-0.0139084 -0.111018 0.0454002)
(0.00433542 -0.0243771 0.00946967)
(0.00403387 -0.0238606 0.00801983)
(0.00398843 -0.0237234 0.00821591)
(0.0049111 -0.0258754 0.00904138)
(0.00347268 -0.021309 0.00770508)
(0.00381275 -0.023027 0.00763087)
(0.00345494 -0.0215841 0.00797491)
(0.00332656 -0.02113 0.00763953)
(0.00369187 -0.0228769 0.00797551)
(0.00366498 -0.0221173 0.00764386)
(0.00354554 -0.0213113 0.00709762)
(0.00373167 -0.0233194 0.0082091)
(0.00307398 -0.0177611 0.00646066)
(0.00306561 -0.017081 0.00651726)
(0.00283876 -0.0180681 0.00634034)
(0.00300462 -0.0174238 0.0065331)
(0.00281001 -0.0174458 0.00619086)
(0.00328225 -0.0174256 0.00670565)
(0.00292379 -0.0165857 0.00643299)
(0.00318308 -0.0172507 0.00595672)
(0.00886163 -0.0408517 0.0160858)
(0.00745425 -0.0365081 0.0132561)
(0.00708622 -0.0359974 0.0131185)
(0.00720585 -0.0361967 0.0127286)
(0.00871617 -0.0426518 0.0152848)
(0.00426713 -0.0235344 0.00867171)
(0.0046719 -0.0255099 0.00955202)
(0.00447579 -0.0255832 0.00932848)
(0.00397424 -0.0237601 0.00876053)
(0.00469234 -0.0263054 0.00972493)
(0.00413194 -0.0233639 0.00891436)
(0.00536055 -0.0290479 0.0104341)
(0.00521792 -0.0288311 0.010229)
(0.00580202 -0.0314183 0.010848)
(0.00572688 -0.0315499 0.0108349)
(0.00535408 -0.0289697 0.0102543)
(0.00531266 -0.0317871 0.0103444)
(0.00408207 -0.0340801 0.0120043)
(0.00445128 -0.0315474 0.0111743)
(0.00383734 -0.0286887 0.010399)
(0.0039972 -0.0282649 0.0101468)
(0.00398793 -0.0277179 0.00973942)
(0.00412402 -0.030114 0.010891)
(0.0145302 -0.110009 0.0196054)
(0.0070994 -0.0523104 0.01604)
(0.00145979 -0.139217 0.0239216)
(0.0166209 -0.0866064 0.0136584)
(0.00492339 -0.0597754 0.0179173)
(0.00643184 -0.0765538 0.0207615)
(0.00756766 -0.0437233 0.014288)
(0.0087222 -0.0520146 0.0156406)
(0.00933885 -0.0540725 0.0160576)
(0.0113561 -0.0749278 0.018537)
(0.00806581 -0.0441304 0.0140612)
(0.00575985 -0.0317738 0.0112051)
(0.00506656 -0.0292326 0.0101886)
(0.00543581 -0.0292156 0.0104288)
(0.00601284 -0.0315923 0.0111441)
(0.00593409 -0.0319781 0.0114907)
(0.00535151 -0.0295185 0.0103374)
(0.003043 -0.0185697 0.00689629)
(0.00353175 -0.0186356 0.00739987)
(0.0032654 -0.0198427 0.00726094)
(0.00306624 -0.0190869 0.00681187)
(0.00325276 -0.0184777 0.0073537)
(0.00330778 -0.0192818 0.00692792)
(0.00323428 -0.0185699 0.00674746)
(0.00303057 -0.0178251 0.00650935)
(0.00340473 -0.0186496 0.00672737)
(0.00288232 -0.017692 0.00633765)
(0.00328793 -0.017979 0.0069281)
(0.00352541 -0.0188037 0.00700301)
(0.0031521 -0.0176609 0.00643719)
(0.00315605 -0.0180873 0.0063484)
(0.0030431 -0.0177979 0.006298)
(0.00282846 -0.017043 0.00623089)
(0.00269447 -0.0163447 0.00667192)
(0.00273523 -0.0171657 0.00646862)
(0.00322072 -0.0180772 0.00635326)
(0.00301005 -0.0171237 0.00634766)
(0.00306982 -0.0173685 0.00638331)
(0.00292407 -0.0166416 0.00590563)
(0.00290102 -0.0170469 0.00613999)
(0.00303053 -0.0174875 0.00622205)
(0.0027738 -0.0164992 0.00603592)
(0.00278905 -0.015564 0.00566726)
(0.00319105 -0.0185075 0.0067043)
(0.00324716 -0.0184545 0.00679016)
(0.00289406 -0.0177815 0.00662791)
(0.00290159 -0.0174812 0.00661701)
(0.00290775 -0.0177071 0.00632334)
(0.00272816 -0.0173674 0.00636792)
(0.0027916 -0.0169861 0.00600283)
(0.00301685 -0.0173417 0.00631436)
(0.00263859 -0.0163224 0.00602971)
(0.00297227 -0.0170345 0.00636728)
(0.00314243 -0.0173521 0.00639919)
(0.00291558 -0.0171607 0.00633629)
(0.00341142 -0.019963 0.0073441)
(0.00363276 -0.020714 0.00750617)
(0.00385968 -0.0208474 0.00774527)
(0.00350231 -0.0196776 0.00728085)
(0.00368194 -0.0205197 0.00771924)
(0.00363046 -0.0207165 0.00764355)
(0.00302038 -0.0174275 0.00658561)
(0.0028995 -0.0186952 0.00683883)
(0.0030857 -0.0184022 0.00680329)
(0.00290682 -0.0178221 0.00661014)
(0.0031052 -0.0185092 0.0068174)
(0.00288477 -0.0180783 0.00666013)
(0.00332545 -0.0179464 0.00655144)
(0.00304557 -0.0184824 0.00684251)
(0.00320089 -0.0182387 0.00664755)
(0.00317398 -0.0180716 0.00650835)
(0.00301926 -0.0181537 0.00679249)
(0.00313165 -0.017888 0.00645392)
(0.00340436 -0.0193454 0.00695791)
(0.00380007 -0.020797 0.00774045)
(0.00373813 -0.0204626 0.00747455)
(0.00377796 -0.0194603 0.00719655)
(0.00336759 -0.0198859 0.00721281)
(0.00308955 -0.0191795 0.00691682)
(0.00330689 -0.0191667 0.0070585)
(0.00317075 -0.0194681 0.00717323)
(0.0031053 -0.0183685 0.00681126)
(0.00289319 -0.0184971 0.00687212)
(0.00327178 -0.0195644 0.00729134)
(0.00276809 -0.0163184 0.00610666)
(0.00279402 -0.0168305 0.00635725)
(0.00303778 -0.016904 0.00617841)
(0.00265055 -0.0163322 0.00616564)
(0.00314994 -0.0167706 0.00604443)
(0.00319337 -0.0180325 0.00656095)
(0.00302034 -0.0170605 0.00617522)
(0.00292099 -0.0170294 0.00627024)
(0.00301024 -0.0174018 0.00632157)
(0.00298752 -0.0170294 0.006151)
(0.00280592 -0.0162067 0.00604994)
(0.00278136 -0.0164854 0.00611511)
(0.0032109 -0.0179249 0.00655265)
(0.00314527 -0.0185253 0.00678086)
(0.00305173 -0.017756 0.00651188)
(0.00309721 -0.0181777 0.00668047)
(0.00309035 -0.0176763 0.00643075)
(0.00317524 -0.0181207 0.00656229)
(0.00287285 -0.0165468 0.00610093)
(0.0025571 -0.0177221 0.00643301)
(0.00258479 -0.0171348 0.00632239)
(0.00271057 -0.0170187 0.00634642)
(0.00324121 -0.0173502 0.00662413)
(0.00325513 -0.0167632 0.00625609)
(0.00260858 -0.0163143 0.006023)
(0.00276132 -0.0168661 0.00604913)
(0.00280355 -0.0166038 0.0061412)
(0.00314922 -0.0171898 0.00627534)
(0.00284781 -0.0169164 0.00626177)
(0.00278523 -0.0165019 0.00585985)
(0.00333456 -0.0182576 0.00654313)
(0.00325688 -0.0184148 0.00664638)
(0.00312597 -0.0177158 0.00646846)
(0.00329942 -0.0180128 0.0066041)
(0.00329079 -0.0181718 0.00659059)
(0.00319664 -0.0181768 0.00664837)
(0.00352006 -0.0194712 0.00693012)
(0.0034808 -0.0196559 0.00748913)
(0.00334263 -0.0197218 0.0073575)
(0.0034903 -0.0201157 0.00725663)
(0.00356498 -0.0198645 0.0072106)
(0.00343044 -0.0194268 0.00721748)
(0.0325104 -0.111931 0.0782173)
(0.0299875 -0.0880317 0.0497198)
(0.0105233 -0.0741993 0.0539128)
(0.0166629 -0.0625876 0.0317616)
(0.0460119 -0.114661 0.0670084)
(0.00593284 -0.0314423 0.0124211)
(0.00542892 -0.0313302 0.0125096)
(0.00536785 -0.0275973 0.0108343)
(0.00534381 -0.0287291 0.0113286)
(0.00517826 -0.0271407 0.0105817)
(0.00543467 -0.0294942 0.0119172)
(0.00929834 -0.0465149 0.0215382)
(0.00617914 -0.0505317 0.0246243)
(0.00750522 -0.0403963 0.0177464)
(0.00598178 -0.0345682 0.0145022)
(0.00670279 -0.0366801 0.0154249)
(0.00581926 -0.0329418 0.0135209)
(0.00424381 -0.0243099 0.00890833)
(0.00442158 -0.025655 0.00936166)
(0.0045034 -0.026266 0.0094245)
(0.00403171 -0.0244446 0.00882172)
(0.00409619 -0.0234868 0.00875298)
(0.0045739 -0.0264901 0.00952586)
(0.00471071 -0.0276688 0.00990691)
(0.00412862 -0.0246025 0.00889702)
(0.00511583 -0.026383 0.00952124)
(0.00454273 -0.0245925 0.00899062)
(0.00446493 -0.0256593 0.00920402)
(0.00555417 -0.0401811 0.0133521)
(0.00561876 -0.0359163 0.0122711)
(0.00623869 -0.0481848 0.0153254)
(0.00671762 -0.0455271 0.0145301)
(0.00543035 -0.0391085 0.013329)
(0.00572021 -0.0383916 0.0129833)
(0.00497835 -0.0363242 0.0123301)
(0.00451815 -0.0332011 0.0121718)
(0.00479714 -0.037853 0.0140361)
(0.0049635 -0.0410031 0.0142673)
(0.00463092 -0.0502215 0.0172792)
(0.00427447 -0.0337368 0.0122883)
(0.00804928 -0.0605578 0.0168738)
(0.00553792 -0.0470945 0.0150265)
(0.00535866 -0.0376257 0.0127395)
(0.00391023 -0.0653386 0.0217251)
(0.00580004 -0.0397982 0.0131841)
(0.00561776 -0.0445656 0.0147927)
(0.00396684 -0.0216065 0.00803736)
(0.00382403 -0.0229932 0.00841238)
(0.00396707 -0.0221687 0.00829886)
(0.00406598 -0.0234248 0.00876151)
(0.00368712 -0.0209469 0.00782754)
(0.00375456 -0.0212498 0.00805174)
(0.00306652 -0.0180372 0.00662214)
(0.00330416 -0.0190129 0.00689131)
(0.00347038 -0.0194906 0.00698148)
(0.00313776 -0.0184929 0.00684784)
(0.00329446 -0.0180993 0.00649516)
(0.00326907 -0.0185488 0.00664234)
(0.00283337 -0.0171651 0.00642279)
(0.00299953 -0.0177152 0.00634733)
(0.00301232 -0.0181941 0.00664502)
(0.00298965 -0.0178383 0.00642649)
(0.00299399 -0.0177571 0.00656069)
(0.00297893 -0.0173704 0.00634793)
(0.00289447 -0.0170852 0.00635269)
(0.00302986 -0.0168872 0.00598351)
(0.00288784 -0.0169722 0.00618758)
(0.00297973 -0.0169219 0.00612335)
(0.00296695 -0.0169396 0.00618428)
(0.00285867 -0.0172416 0.00630039)
(0.00304891 -0.0169344 0.00603536)
(0.00293097 -0.0173323 0.00626033)
(0.00419617 -0.0247815 0.00878445)
(0.00364721 -0.023603 0.00854915)
(0.00378117 -0.0225519 0.0082259)
(0.00400793 -0.0231705 0.0082708)
(0.00402444 -0.022313 0.00786546)
(0.00389188 -0.0244454 0.00883917)
(0.00412882 -0.0227606 0.00814185)
(0.00405591 -0.0223695 0.00791303)
(0.0038316 -0.0221797 0.00789109)
(0.00383233 -0.021443 0.00759853)
(0.00394693 -0.0220746 0.00778303)
(0.0040413 -0.0221431 0.00779787)
(0.00478464 -0.0263404 0.00920877)
(0.00433011 -0.0235509 0.00843751)
(0.00402984 -0.0231637 0.00845455)
(0.00407209 -0.0237472 0.0086691)
(0.00401482 -0.0226609 0.00822054)
(0.00473511 -0.025514 0.00916681)
(0.00301569 -0.0171095 0.00644751)
(0.00295811 -0.0167188 0.00610402)
(0.00287794 -0.0169168 0.00652835)
(0.00296217 -0.0167937 0.00619435)
(0.00286212 -0.0168839 0.00624451)
(0.00298642 -0.0166608 0.00609687)
(0.0027724 -0.0165469 0.00626494)
(0.00291701 -0.0165239 0.00608872)
(0.00291428 -0.0166388 0.00625886)
(0.0029752 -0.0167277 0.0062271)
(0.00294004 -0.016304 0.00605291)
(0.00285831 -0.0163123 0.00594121)
(0.00286515 -0.0165735 0.00603934)
(0.00274626 -0.0166537 0.00619542)
(0.00298256 -0.0171746 0.00633217)
(0.00293868 -0.0170897 0.00638635)
(0.00293113 -0.0172633 0.00649852)
(0.00294826 -0.0169865 0.00620823)
(0.00298692 -0.0161655 0.0061009)
(0.00271065 -0.0162612 0.00602729)
(0.00306268 -0.0168124 0.00610421)
(0.00285913 -0.0164967 0.00625957)
(0.00271304 -0.0161606 0.00604836)
(0.00270734 -0.0162104 0.00599904)
(0.00342528 -0.0189914 0.00696885)
(0.00355263 -0.0193074 0.00719345)
(0.00343598 -0.018898 0.00703821)
(0.00347532 -0.0190828 0.00705297)
(0.0034169 -0.0187441 0.00687436)
(0.00367041 -0.0194292 0.00698818)
(0.00428651 -0.0240427 0.00907055)
(0.00423293 -0.0228925 0.00850629)
(0.00474052 -0.0241393 0.0085201)
(0.0043987 -0.0228803 0.0082848)
(0.00403852 -0.0219967 0.00805679)
(0.00431095 -0.0230795 0.00848596)
(0.00343999 -0.0195371 0.00713089)
(0.0036713 -0.0201915 0.00744875)
(0.00375033 -0.0195911 0.00707076)
(0.00333004 -0.0186193 0.00682627)
(0.00356397 -0.0190333 0.00693307)
(0.00371377 -0.0198401 0.00722065)
(0.00409102 -0.0229049 0.00816042)
(0.0036086 -0.0214227 0.00815383)
(0.00397704 -0.0222193 0.00762047)
(0.00336801 -0.0221499 0.00731677)
(0.00392784 -0.0232645 0.00745405)
(0.00633943 -0.0318622 0.0119747)
(0.00685274 -0.0352745 0.0127966)
(0.00542172 -0.0282226 0.0106684)
(0.005947 -0.0298207 0.0106058)
(0.00555563 -0.0308092 0.012187)
(0.00666655 -0.0354043 0.0141686)
(0.00398242 -0.0228426 0.00812702)
(0.00402267 -0.0242495 0.00816644)
(0.00395348 -0.0245092 0.00859349)
(0.00417207 -0.0231255 0.00831637)
(0.00435222 -0.0237761 0.00843365)
(0.00442169 -0.024144 0.00893608)
(0.00478397 -0.0253228 0.00940088)
(0.00473781 -0.0258291 0.00971251)
(0.00511522 -0.0268796 0.00918096)
(0.00495945 -0.0260563 0.00883885)
(0.00492168 -0.0253917 0.00865272)
(0.00486444 -0.0272403 0.00970556)
(0.00485088 -0.0273842 0.00962012)
(0.00533283 -0.0300065 0.0108904)
(0.00598202 -0.0297756 0.0119614)
(0.0046036 -0.0273254 0.0096077)
(0.00587876 -0.0312123 0.0116216)
(-0.00740736 -0.137535 0.076973)
(0.00396387 -0.0367638 0.0138425)
(0.00402337 -0.0300091 0.0110427)
(0.00391268 -0.0326033 0.0128782)
(0.00365582 -0.0289535 0.00959305)
(0.00392673 -0.0267115 0.00979153)
(0.00331941 -0.0468039 0.0188381)
(0.00785878 -0.0808554 0.0173951)
(-0.00722632 -0.0874292 0.0459395)
(-0.00887283 -0.129213 0.0324195)
(-0.0135189 -0.154944 0.0543435)
(-0.000991467 -0.146674 0.0327281)
(0.00593822 -0.0342622 0.0122392)
(0.00575055 -0.0344409 0.0118783)
(0.0153433 -0.0638882 0.0218778)
(0.00809225 -0.0467811 0.014975)
(0.0063616 -0.0370268 0.0128479)
(0.00836833 -0.0425687 0.0145406)
(0.0271042 -0.13156 0.0220738)
(0.0187785 -0.0994607 0.0178739)
(0.0245718 -0.133372 0.0205793)
(0.0275657 -0.0845468 0.0294255)
(0.0474207 -0.115976 0.0407149)
(0.0247695 -0.073597 0.0279918)
(0.00372976 -0.0203717 0.00778783)
(0.00400182 -0.0201523 0.00759003)
(0.00400196 -0.0221235 0.00846023)
(0.00378826 -0.0220418 0.00826588)
(0.00439527 -0.0211292 0.00814983)
(0.0031639 -0.017183 0.00642735)
(0.00322371 -0.0176622 0.00658797)
(0.00289024 -0.0185678 0.00682038)
(0.00297833 -0.0188544 0.00706455)
(0.00298333 -0.0185108 0.00688741)
(0.00301804 -0.0166639 0.00623369)
(0.00305343 -0.0188494 0.00688727)
(0.00293461 -0.0193576 0.00695456)
(0.00327022 -0.0200814 0.00767619)
(0.00320276 -0.0202364 0.00740263)
(0.00288337 -0.0195261 0.00699391)
(0.00299119 -0.0204441 0.00716317)
(0.00258814 -0.0172356 0.00650465)
(0.00289107 -0.0166766 0.00644305)
(0.00261695 -0.0171014 0.00633989)
(0.00275455 -0.0172306 0.00652453)
(0.00253597 -0.0158857 0.00580464)
(0.00286019 -0.0165386 0.00641176)
(0.00295679 -0.0172406 0.00611357)
(0.00298461 -0.0171288 0.00584163)
(0.00302427 -0.01729 0.00607779)
(0.00272015 -0.0159153 0.00592061)
(0.00289612 -0.0167044 0.00632635)
(0.00285412 -0.0168493 0.00566956)
(0.00291633 -0.0173815 0.00615738)
(0.00321124 -0.0185509 0.00650121)
(0.00286713 -0.0175517 0.00626272)
(0.00327788 -0.0187131 0.00665324)
(0.00280903 -0.0181129 0.00696373)
(0.00286036 -0.0159307 0.0059025)
(0.00294742 -0.0159599 0.00589817)
(0.00261599 -0.0160388 0.00600402)
(0.0027879 -0.0160722 0.00595995)
(0.00262875 -0.0164628 0.00624383)
(0.00273275 -0.0157447 0.00584518)
(0.00258774 -0.0159407 0.00594987)
(0.00252765 -0.0155957 0.00590704)
(0.00244125 -0.0158698 0.00592233)
(0.00297874 -0.0161238 0.00633183)
(0.00244508 -0.0161967 0.006001)
(0.00280877 -0.0157528 0.00613961)
(0.0024679 -0.0157126 0.00586763)
(0.00270081 -0.016232 0.00617445)
(0.00274976 -0.0156847 0.00583091)
(0.0025978 -0.0157676 0.00591146)
(0.00285784 -0.0168081 0.00629574)
(0.00307132 -0.0168627 0.00619183)
(0.00339929 -0.017598 0.00673632)
(0.00267953 -0.0174744 0.00657733)
(0.00262207 -0.0167116 0.00615839)
(0.00268671 -0.0169864 0.00628704)
(0.00296658 -0.0161499 0.00603416)
(0.00273674 -0.0162923 0.00598968)
(0.00282182 -0.0165255 0.00638165)
(0.00286138 -0.0163972 0.00614888)
(0.0029477 -0.0160445 0.00585174)
(0.00291583 -0.0163307 0.00617929)
(0.00348903 -0.0189115 0.00699809)
(0.00311371 -0.0172187 0.00624678)
(0.00304035 -0.0178623 0.00655241)
(0.00337933 -0.0185792 0.00686021)
(0.0030353 -0.0175502 0.00654155)
(0.00342152 -0.018695 0.0067956)
(0.00333858 -0.0178413 0.00639434)
(0.00333616 -0.0186406 0.00680346)
(0.00290017 -0.0174212 0.00652574)
(0.00312157 -0.0172289 0.00648466)
(0.00316896 -0.0186409 0.00702005)
(0.00282796 -0.0173558 0.00641398)
(0.00323692 -0.0181774 0.00686697)
(0.00317599 -0.0175964 0.00661399)
(0.00302468 -0.0166908 0.00617621)
(0.00300232 -0.017106 0.00648366)
(0.00295687 -0.0172733 0.00644318)
(0.00316244 -0.0174719 0.00663203)
(0.00298015 -0.0170904 0.00649352)
(0.00371157 -0.019833 0.00734555)
(0.00346927 -0.0187071 0.00689344)
(0.00368442 -0.0197295 0.00728667)
(0.00394574 -0.0209843 0.00786948)
(0.0038691 -0.0200291 0.00733615)
(0.0039286 -0.0205755 0.00756051)
(0.00265453 -0.0154724 0.00560271)
(0.00248104 -0.0154427 0.00531431)
(0.00250172 -0.0157945 0.00570939)
(0.00264082 -0.0156846 0.00575154)
(0.00248152 -0.0161478 0.00546665)
(0.00261765 -0.0159515 0.00584395)
(0.00252026 -0.0159577 0.00566065)
(0.00252248 -0.0156733 0.00572529)
(0.00260296 -0.0155369 0.00571186)
(0.00254225 -0.0152906 0.0054829)
(0.00251846 -0.0152646 0.00546955)
(0.00262119 -0.015564 0.00571622)
(0.00282444 -0.0158474 0.00598066)
(0.0026386 -0.0156315 0.0057518)
(0.00275936 -0.0157822 0.0056933)
(0.00276828 -0.0163595 0.00589166)
(0.00269882 -0.015847 0.00584529)
(0.00270605 -0.0161747 0.00580156)
(0.00280168 -0.0159833 0.0058417)
(0.00279586 -0.0161372 0.0059476)
(0.00285487 -0.0163685 0.0059116)
(0.00286608 -0.0162079 0.0057547)
(0.00270256 -0.0163443 0.00621914)
(0.00281349 -0.016356 0.00592813)
(0.00265784 -0.0163602 0.0061112)
(0.00289159 -0.0163599 0.00586506)
(0.00331697 -0.0190692 0.00671346)
(0.00321478 -0.0182715 0.00637612)
(0.00317067 -0.0185929 0.00665933)
(0.00344088 -0.019089 0.00673345)
(0.00327244 -0.01924 0.00700513)
(0.00335726 -0.0187708 0.00653651)
(0.00289372 -0.0186534 0.00689136)
(0.00290596 -0.0172635 0.00667357)
(0.00263769 -0.0162772 0.00620201)
(0.00289321 -0.0173355 0.00667269)
(0.00268995 -0.0175153 0.00617426)
(0.00267743 -0.0166086 0.00598058)
(0.00264138 -0.0175174 0.00703319)
(0.00304748 -0.0173559 0.00615648)
(0.00305665 -0.0202769 0.00767406)
(0.00310109 -0.0191307 0.00722382)
(0.00316417 -0.0198749 0.00765809)
(0.00315669 -0.0194343 0.00732833)
(0.00337715 -0.0191137 0.00743383)
(0.00345691 -0.0201144 0.0080494)
(0.0039069 -0.0258399 0.0100023)
(0.00408397 -0.0233773 0.00921027)
(0.00443827 -0.0279885 0.0110743)
(0.00409569 -0.0229153 0.00885545)
(0.00403385 -0.0241956 0.00935507)
(0.00385357 -0.0270998 0.010486)
(0.0029102 -0.0187444 0.00698392)
(0.00311414 -0.0189869 0.00725977)
(0.00301971 -0.0198157 0.00741254)
(0.00310991 -0.0197414 0.00739673)
(0.00310135 -0.0195701 0.00739973)
(0.003071 -0.0197084 0.00743077)
(0.00510607 -0.026165 0.0100121)
(0.00481205 -0.0249642 0.00941189)
(0.00481084 -0.0251018 0.00943983)
(0.00517059 -0.0265422 0.0100462)
(0.00470404 -0.0255216 0.00982958)
(0.00374693 -0.0217928 0.00854708)
(0.00270564 -0.0170122 0.00566333)
(0.00328043 -0.0194902 0.00715983)
(0.00342016 -0.0194951 0.00709513)
(0.00353458 -0.0194329 0.00713476)
(0.00335331 -0.0197264 0.00718296)
(0.00296816 -0.018017 0.00624992)
(0.00298518 -0.0176996 0.00631769)
(0.00294381 -0.0183045 0.00666803)
(0.00305836 -0.0181475 0.00668827)
(0.00307502 -0.0181867 0.00664931)
(0.00315116 -0.0182754 0.00643164)
(0.00333049 -0.019972 0.00701473)
(0.00343338 -0.0194165 0.00658328)
(0.00334518 -0.0191141 0.00661098)
(0.00253094 -0.0157078 0.00579344)
(0.00261388 -0.0159073 0.005893)
(0.00276073 -0.0159938 0.00561296)
(0.00284256 -0.0162256 0.00570831)
(0.00277162 -0.0165115 0.00606971)
(0.00275657 -0.0163103 0.00599434)
(0.00266035 -0.0166879 0.00621683)
(0.00279147 -0.0164493 0.00599816)
(0.00296295 -0.0165517 0.00596685)
(0.00280542 -0.016432 0.00603807)
(0.00287067 -0.0162025 0.00586707)
(0.00293332 -0.0159473 0.00564032)
(0.00272686 -0.0160378 0.00561395)
(0.00260839 -0.0158357 0.00576539)
(0.00259825 -0.015833 0.00580934)
(0.0026879 -0.0155845 0.00578542)
(0.00282966 -0.0163032 0.00580858)
(0.00284669 -0.0158324 0.00552982)
(0.00332972 -0.0188108 0.00706795)
(0.00333811 -0.0193334 0.00729134)
(0.00361795 -0.0187663 0.00693771)
(0.00364511 -0.0195937 0.00720505)
(0.00321307 -0.0186545 0.00713046)
(0.00305228 -0.0165282 0.00611884)
(0.00366201 -0.0186833 0.00724097)
(0.00322004 -0.0186191 0.00711924)
(0.00347955 -0.0183116 0.00679129)
(0.00353892 -0.0175613 0.00635935)
(0.00348797 -0.0183219 0.00675816)
(0.00328146 -0.0177918 0.00655906)
(0.00320121 -0.0173319 0.00635158)
(0.00316122 -0.0171858 0.00635797)
(0.00301574 -0.016489 0.00630849)
(0.00288578 -0.017607 0.00666171)
(0.00297031 -0.0160045 0.00595254)
(0.00259204 -0.015917 0.00584234)
(0.00294429 -0.0158054 0.00590531)
(0.00295217 -0.0159968 0.00615444)
(0.0026985 -0.0157519 0.00569526)
(0.00267744 -0.0161086 0.00597597)
(0.00324601 -0.0159 0.00621158)
(0.00269275 -0.0154769 0.00571205)
(0.00274548 -0.0159174 0.00600884)
(0.0025573 -0.0160393 0.00603836)
(0.00262598 -0.0152817 0.00567144)
(0.00275256 -0.0157895 0.0058411)
(0.00286272 -0.0151081 0.00560969)
(0.00294335 -0.0159898 0.00597423)
(0.00272004 -0.0158648 0.00598374)
(0.00298959 -0.0153329 0.00585254)
(0.00296587 -0.0155667 0.00602796)
(0.0025263 -0.0160314 0.00601016)
(0.00273431 -0.0153015 0.00565148)
(0.00295095 -0.0155225 0.00613066)
(0.00287653 -0.0158627 0.00622024)
(0.00273498 -0.0162207 0.00632871)
(0.00269551 -0.0152479 0.0059186)
(0.002584 -0.0157536 0.00592149)
(0.00272422 -0.0152985 0.00582956)
(0.0032955 -0.0184281 0.00649884)
(0.00311277 -0.0189016 0.00676513)
(0.00296388 -0.0177512 0.00649565)
(0.00299732 -0.0182512 0.00631891)
(0.00305445 -0.0175645 0.00617955)
(0.00271034 -0.0171106 0.00663812)
(0.00296345 -0.0173101 0.0062033)
(0.00312355 -0.0185691 0.00662486)
(0.00304078 -0.017714 0.00629931)
(0.00288844 -0.0172404 0.00617539)
(0.00274398 -0.0164549 0.00598567)
(0.00276875 -0.0164551 0.00633556)
(0.00279055 -0.017453 0.00587563)
(0.00269313 -0.0180295 0.00577748)
(0.00290415 -0.0172611 0.00577778)
(0.00288329 -0.0168175 0.00616552)
(0.00269923 -0.0163305 0.00556312)
(0.00265461 -0.0167785 0.00596368)
(0.00265003 -0.0166542 0.00567701)
(0.00270091 -0.0166959 0.00605574)
(0.00264669 -0.0165194 0.00582451)
(0.00275045 -0.0163701 0.00589249)
(0.00275675 -0.0167741 0.00589453)
(0.00265273 -0.0158841 0.0060964)
(0.00269607 -0.0165233 0.00608779)
(0.00259417 -0.0162063 0.00604251)
(0.00274725 -0.0170515 0.00600176)
(0.0026451 -0.0170564 0.00624581)
(0.00246917 -0.0158059 0.00550615)
(0.00262626 -0.0159865 0.00571214)
(0.00268343 -0.0160901 0.006104)
(0.00259175 -0.016308 0.00595358)
(0.00274782 -0.0155312 0.00594299)
(0.00259745 -0.01644 0.0060962)
(0.00241194 -0.0154447 0.00528781)
(0.00250677 -0.0162779 0.0061186)
(0.00271036 -0.0170568 0.00646189)
(0.00250001 -0.0161795 0.00597908)
(0.00270496 -0.0159372 0.00548927)
(0.00231029 -0.0149407 0.00518021)
(0.0026263 -0.016025 0.00604394)
(0.00230411 -0.0167825 0.0056785)
(0.0027405 -0.0162433 0.00614269)
(0.00278228 -0.0166294 0.00636638)
(0.00270284 -0.0163649 0.00625819)
(0.00270292 -0.0159774 0.00604639)
(0.00265728 -0.016334 0.0062672)
(0.00253382 -0.0154321 0.00560189)
(0.00259352 -0.0161152 0.00587145)
(0.00268578 -0.0159075 0.00601548)
(0.00272739 -0.0157042 0.00601346)
(0.00294184 -0.015929 0.00639614)
(0.00268992 -0.0161431 0.00585329)
(0.0027056 -0.0156739 0.00570451)
(0.00249541 -0.0151459 0.00552053)
(0.00258473 -0.0160078 0.00601307)
(0.00243669 -0.0161916 0.00585866)
(0.00256747 -0.0160102 0.00593189)
(0.00248281 -0.0159798 0.00574698)
(0.00256049 -0.0155468 0.00583295)
(0.00289521 -0.0152229 0.00602457)
(0.0028509 -0.0160057 0.00640335)
(0.00280597 -0.016219 0.00581427)
(0.00251967 -0.0159645 0.00607264)
(0.00270018 -0.016794 0.00643921)
(0.00256112 -0.0166643 0.00632441)
(0.00273797 -0.0169304 0.00640309)
(0.00287387 -0.017498 0.00666584)
(0.0027131 -0.0163705 0.00624102)
(0.00259068 -0.0170161 0.00600671)
(0.00275743 -0.0163557 0.00624466)
(0.00269446 -0.0174809 0.00653311)
(0.00235535 -0.0165367 0.00583588)
(0.0029558 -0.016327 0.00622975)
(0.00264974 -0.0169079 0.00627404)
(0.00279889 -0.0176875 0.00682566)
(0.00244288 -0.0173471 0.00646427)
(0.00289444 -0.0170193 0.00655823)
(0.00268058 -0.0169116 0.00627032)
(0.0025438 -0.0169411 0.00640319)
(0.00306872 -0.0169082 0.00681189)
(0.00271108 -0.0164752 0.00637853)
(0.00346911 -0.0237125 0.00859075)
(0.00303849 -0.0210183 0.00726361)
(0.00321535 -0.0199442 0.00767665)
(0.00324429 -0.0189034 0.00714848)
(0.00308105 -0.0187069 0.00706976)
(0.00303526 -0.0205333 0.00742835)
(0.00313185 -0.0204773 0.00717038)
(0.00297475 -0.0184401 0.00695022)
(0.00323513 -0.0213615 0.00810525)
(0.00341367 -0.0200114 0.00779613)
(0.00277279 -0.0165413 0.0058593)
(0.00261835 -0.0167167 0.00627298)
(0.0025942 -0.0161333 0.00585238)
(0.00285832 -0.0162082 0.00609994)
(0.00312677 -0.0167349 0.00634837)
(0.0033116 -0.0192784 0.0075677)
(0.00545258 -0.0287707 0.0118201)
(0.0042776 -0.0231348 0.0092514)
(0.0044855 -0.0263507 0.0103869)
(0.00468638 -0.0246941 0.00964657)
(0.00410323 -0.0227402 0.00895933)
(0.00328854 -0.0209095 0.00801721)
(0.00323599 -0.0196037 0.00742889)
(0.00319267 -0.0184933 0.00687638)
(0.00289572 -0.0175653 0.00657676)
(0.003103 -0.0171151 0.00657422)
(0.0030865 -0.0167911 0.00624657)
(0.00315518 -0.0179247 0.00667716)
(0.00316738 -0.0194454 0.00733246)
(0.00323759 -0.018378 0.0069273)
(0.00341168 -0.0175393 0.00660608)
(0.00302603 -0.0190243 0.00710177)
(0.00326669 -0.0182382 0.00677268)
(0.00289155 -0.0181004 0.00687677)
(0.00323147 -0.0179553 0.00693261)
(0.00373613 -0.0187131 0.00727948)
(0.00339954 -0.0190208 0.00712093)
(0.00330501 -0.0190753 0.00720528)
(0.00328817 -0.0199121 0.00744007)
(0.00377262 -0.0215472 0.00801484)
(0.00468989 -0.0233238 0.00873433)
(0.00371699 -0.0210214 0.00804392)
(0.00340484 -0.020647 0.00787072)
(0.00334361 -0.0206607 0.0078326)
(0.00374921 -0.0218268 0.00858437)
(0.00423998 -0.0228481 0.00864265)
(0.00362364 -0.0221244 0.00865091)
(0.00390549 -0.0238246 0.00950974)
(0.00439391 -0.0242188 0.00931797)
(0.00360587 -0.0231184 0.00893268)
(0.0496179 -0.117592 0.0580139)
(0.023976 -0.0758384 0.0314312)
(0.0422782 -0.0945675 0.041818)
(0.0117445 -0.0500751 0.0193726)
(0.008653 -0.0404989 0.0154765)
(0.0123861 -0.0710806 0.0183798)
(0.00851263 -0.0517174 0.0154569)
(0.0321756 -0.133302 0.0207127)
(0.0203787 -0.0953209 0.0230163)
(0.0131353 -0.0680539 0.0203312)
(0.0488376 -0.146432 0.0350764)
(0.0356726 -0.125273 0.0214677)
(0.0229887 -0.0932957 0.0235351)
(0.0255441 -0.095484 0.024547)
(0.0368091 -0.114587 0.023734)
(0.0234618 -0.088558 0.0242449)
(0.0148204 -0.0777303 0.0203974)
(0.0118303 -0.0499887 0.0184898)
(0.00787195 -0.0492692 0.0150754)
(0.0140352 -0.0664113 0.0207229)
(0.00284324 -0.0906833 0.0256452)
(0.00757249 -0.107738 0.0757398)
(0.00671695 -0.0752391 0.0440159)
(-0.00758773 -0.158769 0.0421705)
(0.00786952 -0.0940487 0.0132201)
(0.00290623 -0.0707971 0.023687)
(-0.00455127 -0.0728387 0.0342007)
(0.0025136 -0.0521619 0.0181818)
(0.00418678 -0.0372652 0.0137809)
(0.00250703 -0.0524817 0.0220288)
(2.86734e-05 -0.0682834 0.0285559)
(-0.0123763 -0.102857 0.0483367)
(0.00837328 -0.0788959 0.0459506)
(0.00783568 -0.055844 0.0273584)
(0.0052907 -0.041726 0.0177177)
(0.00473987 -0.0335725 0.0136883)
(0.00131304 -0.0898904 0.0476275)
(-0.00378956 -0.124303 0.0768021)
(0.00590576 -0.0826393 0.0451943)
(0.00649599 -0.0575533 0.027628)
(0.000833183 -0.11653 0.0765063)
(0.00425598 -0.111664 0.0761141)
(0.00749147 -0.0819966 0.046964)
(0.00410735 -0.0255425 0.010259)
(0.00395988 -0.0262771 0.0105988)
(0.00483016 -0.0327465 0.0134679)
(0.00405723 -0.0285036 0.0112399)
(0.00429236 -0.0287482 0.011475)
(0.00433819 -0.0298143 0.0119677)
(0.00433604 -0.0290995 0.0119591)
(0.00473095 -0.0643347 0.0315107)
(0.00489613 -0.0475405 0.020043)
(0.00633286 -0.0564685 0.0266658)
(0.00535844 -0.0370492 0.0153421)
(0.00482478 -0.0345063 0.0140475)
(0.00518392 -0.0336647 0.014068)
(0.00552729 -0.0426753 0.0181756)
(0.00402555 -0.0259446 0.00988044)
(0.00472114 -0.0367157 0.015123)
(0.00448383 -0.0300949 0.0117799)
(0.00514116 -0.0310089 0.0132706)
(0.00373573 -0.0259133 0.00978669)
(0.00398375 -0.0276412 0.0105115)
(0.00353682 -0.0266056 0.0095866)
(-0.000380824 -0.0722171 0.0327039)
(-0.0116952 -0.123035 0.0660927)
(0.00184225 -0.0626772 0.0278498)
(0.0049735 -0.0442354 0.020202)
(-0.00709694 -0.0795415 0.0294268)
(0.0058645 -0.0788743 0.0523928)
(0.00528623 -0.0398462 0.0171946)
(0.00338724 -0.0535572 0.0239008)
(0.00418163 -0.0318125 0.0125469)
(0.00215379 -0.0559872 0.0200812)
(0.0043534 -0.0351901 0.0138754)
(0.00414003 -0.0331503 0.012681)
(0.00609803 -0.0309964 0.0119343)