/*--------------------------------*- C++ -*----------------------------------*\
| =========                 |                                                 |
| \\      /  F ield         | OpenFOAM: The Open Source CFD Toolbox           |
|  \\    /   O peration     | Version:  v1612+                                |
|   \\  /    A nd           | Web:      www.OpenFOAM.com                      |
|    \\/     M anipulation  |                                                 |
\*---------------------------------------------------------------------------*/
FoamFile
{
    version     2.0;
    format      ascii;
    class       volScalarField;
    location    "150";
    object      p;
}
// * * * * * * * * * * * * * * * * * * * * * * * * * * * * * * * * * * * * * //

dimensions      [0 2 -2 0 0 0 0];

internalField   nonuniform List<scalar> 
16950
(
0.459644
0.49354
0.484041
0.471637
0.472413
0.464621
0.488091
0.493635
0.486212
0.475655
0.456067
0.459447
0.469321
0.482066
0.461448
0.480578
0.457857
0.454462
0.479913
0.486969
0.477892
0.475997
0.475482
0.494812
0.495779
0.485812
0.483951
0.505049
0.504755
0.491504
0.484691
0.493312
0.510162
0.512146
0.496053
0.49794
0.49033
0.500001
0.510842
0.512543
0.512159
0.518679
0.489495
0.500448
0.515362
0.499078
0.506029
0.494391
0.501873
0.508535
0.493841
0.497772
0.460248
0.470539
0.4928
0.498882
0.497099
0.479194
0.460628
0.474117
0.46303
0.456274
0.48535
0.454011
0.458864
0.477034
0.464182
0.485447
0.524557
0.532984
0.522536
0.527413
0.545149
0.533399
0.535068
0.546549
0.53708
0.54786
0.528914
0.544579
0.522047
0.533215
0.538012
0.540145
0.544151
0.519219
0.416613
0.427232
0.423336
0.420891
0.423617
0.430323
0.435532
0.416933
0.433339
0.430186
0.420758
0.436436
0.429992
0.427332
0.495662
0.506464
0.504891
0.498919
0.51387
0.498453
0.503949
0.49145
0.482995
0.494873
0.493743
0.509539
0.505402
0.520146
0.516236
0.49287
0.499185
0.511434
0.418742
0.415821
0.412331
0.410684
0.420424
0.420279
0.416159
0.419377
0.417126
0.421014
0.417967
0.416192
0.419304
0.418282
0.384492
0.383138
0.371491
0.376388
0.390825
0.388889
0.371912
0.373289
0.374197
0.385524
0.387428
0.369827
0.373095
0.374169
0.376584
0.384183
0.390078
0.388027
0.380225
0.379752
0.377836
0.381689
0.465125
0.479127
0.481394
0.486337
0.487415
0.496316
0.487836
0.495057
0.486559
0.492671
0.461282
0.473314
0.480043
0.489385
0.476221
0.481426
0.454349
0.467042
0.476758
0.458328
0.445724
0.454084
0.462206
0.461662
0.457867
0.458905
0.472494
0.47589
0.470529
0.472001
0.473976
0.478221
0.486272
0.480557
0.466757
0.462622
0.469774
0.47557
0.52217
0.523352
0.528389
0.526362
0.541433
0.520696
0.530925
0.536117
0.504305
0.512652
0.503845
0.533733
0.524471
0.543674
0.520937
0.535992
0.526015
0.385232
0.373358
0.389103
0.384123
0.385461
0.380286
0.391299
0.393728
0.38067
0.37534
0.38587
0.390616
0.377445
0.389085
0.377246
0.389436
0.449396
0.451306
0.457621
0.450049
0.451474
0.454592
0.452152
0.450572
0.442345
0.451444
0.453402
0.455496
0.455553
0.457726
0.453713
0.457602
0.462377
0.463773
0.458999
0.450135
0.420653
0.422747
0.43423
0.432403
0.444626
0.446862
0.423848
0.421148
0.461532
0.451073
0.455583
0.449824
0.471151
0.453627
0.459806
0.45683
0.433356
0.431439
0.464679
0.470116
0.43666
0.443093
0.448719
0.454687
0.440931
0.472077
0.504791
0.499411
0.495245
0.471518
0.483733
0.501916
0.504283
0.491648
0.498998
0.516509
0.51274
0.522896
0.532985
0.534473
0.542494
0.533949
0.534955
0.50521
0.535886
0.508554
0.510934
0.54024
0.531631
0.524061
0.511611
0.534611
0.527857
0.479475
0.477638
0.48724
0.490467
0.500612
0.503554
0.495959
0.498108
0.473232
0.470211
0.483632
0.488465
0.488918
0.479644
0.47461
0.46986
0.480647
0.470975
0.532799
0.534154
0.527809
0.555343
0.560412
0.554117
0.564906
0.540005
0.540473
0.545665
0.548436
0.536252
0.562337
0.567966
0.551818
0.55002
0.56043
0.545477
0.535473
0.557611
0.351999
0.353785
0.36682
0.374327
0.357383
0.366277
0.368592
0.347386
0.350672
0.348278
0.354483
0.349005
0.381262
0.387377
0.380968
0.38548
0.3796
0.383841
0.375762
0.374317
0.389386
0.372728
0.37288
0.387425
0.379434
0.380063
0.376042
0.434783
0.435152
0.429462
0.426967
0.423899
0.433985
0.438795
0.432888
0.505051
0.494789
0.498759
0.50385
0.500254
0.481737
0.482576
0.492184
0.488285
0.497993
0.508513
0.381852
0.381913
0.387034
0.37457
0.375409
0.379816
0.369864
0.384243
0.375477
0.372196
0.37272
0.471356
0.46808
0.459549
0.465249
0.462403
0.447625
0.451569
0.452556
0.439939
0.463348
0.463749
0.460539
0.465294
0.451278
0.436884
0.450236
0.450396
0.444228
0.447203
0.452409
0.448776
0.4585
0.465009
0.455471
0.46463
0.46684
0.466955
0.470993
0.466268
0.478542
0.471565
0.460099
0.463356
0.480072
0.479802
0.475267
0.47196
0.477907
0.480338
0.478762
0.486986
0.486493
0.496882
0.499855
0.498217
0.513806
0.513702
0.51017
0.520995
0.50046
0.496132
0.493275
0.491496
0.50447
0.446647
0.436309
0.429971
0.429066
0.431504
0.441012
0.440047
0.445358
0.415706
0.420836
0.420963
0.43325
0.433574
0.436174
0.4246
0.412322
0.410039
0.419213
0.422386
0.376307
0.381747
0.39369
0.388739
0.388061
0.378597
0.378401
0.391398
0.381608
0.410005
0.415273
0.399591
0.396079
0.402657
0.39218
0.40564
0.405259
0.385815
0.39913
0.406939
0.404442
0.41087
0.406759
0.415865
0.42811
0.406072
0.403817
0.435677
0.433538
0.419708
0.425744
0.425432
0.415804
0.413968
0.433243
0.42482
0.41234
0.41663
0.425909
0.412742
0.424338
0.480852
0.478424
0.473322
0.463482
0.48629
0.511213
0.50594
0.487648
0.490251
0.490558
0.496871
0.476642
0.490887
0.470265
0.481573
0.513816
0.520636
0.463949
0.476141
0.486357
0.509043
0.494028
0.495919
0.508815
0.503419
0.502196
0.44305
0.438287
0.458359
0.453784
0.436049
0.441489
0.435235
0.44876
0.447892
0.437633
0.439222
0.454208
0.451743
0.448075
0.45115
0.443212
0.446629
0.446287
0.450657
0.456684
0.453619
0.399813
0.416587
0.422435
0.410994
0.404252
0.423041
0.423962
0.414434
0.416916
0.435891
0.436953
0.445276
0.449692
0.476937
0.480416
0.445623
0.442494
0.459907
0.446466
0.472433
0.468852
0.471073
0.459556
0.461313
0.414296
0.416734
0.407242
0.393552
0.413862
0.419672
0.401328
0.399568
0.406117
0.3997
0.400167
0.406959
0.412291
0.400074
0.409346
0.395184
0.396189
0.411591
0.390778
0.395242
0.515039
0.521834
0.505002
0.510648
0.516778
0.518066
0.507136
0.508721
0.49535
0.501247
0.505257
0.494982
0.482332
0.495451
0.491642
0.485811
0.482499
0.520966
0.514852
0.482261
0.480934
0.499175
0.50905
0.517453
0.499488
0.494938
0.487989
0.486238
0.486854
0.509319
0.504527
0.499081
0.573783
0.565803
0.573258
0.571187
0.571841
0.566932
0.565395
0.565346
0.55774
0.560462
0.555331
0.551758
0.552481
0.548724
0.534422
0.535032
0.552647
0.53364
0.533305
0.543317
0.477202
0.467768
0.457509
0.45752
0.477067
0.47015
0.466347
0.463236
0.464598
0.45046
0.466929
0.470079
0.45697
0.454063
0.458934
0.448038
0.453244
0.455411
0.378564
0.384757
0.385559
0.383411
0.378995
0.376613
0.397027
0.390549
0.36779
0.384053
0.388515
0.385466
0.381386
0.431841
0.435198
0.456358
0.461521
0.44802
0.433948
0.450149
0.456079
0.450559
0.462239
0.440526
0.435365
0.457328
0.448954
0.46467
0.474023
0.482172
0.466183
0.48162
0.4922
0.485612
0.481482
0.472541
0.464047
0.466332
0.472937
0.486398
0.478646
0.45762
0.466149
0.461491
0.469036
0.446973
0.4559
0.45426
0.451726
0.453628
0.457925
0.45405
0.45698
0.439591
0.449256
0.45603
0.458893
0.447184
0.439554
0.444188
0.454413
0.454449
0.451954
0.47631
0.480254
0.465793
0.472089
0.470048
0.469767
0.458268
0.469321
0.460575
0.450041
0.444754
0.453338
0.466962
0.465407
0.43686
0.448942
0.455177
0.446808
0.446126
0.430413
0.446148
0.452794
0.440457
0.440949
0.444655
0.459408
0.461514
0.464804
0.474958
0.474496
0.462064
0.469373
0.448978
0.457044
0.449585
0.489131
0.500098
0.489266
0.478136
0.491945
0.476471
0.473255
0.479667
0.47733
0.481475
0.348484
0.349859
0.347988
0.346279
0.352169
0.346188
0.34824
0.347851
0.461537
0.440174
0.454085
0.448141
0.468569
0.469326
0.452863
0.461621
0.453887
0.436921
0.445755
0.467586
0.447861
0.465023
0.454125
0.466851
0.470468
0.434816
0.422763
0.432819
0.436318
0.416238
0.423814
0.433208
0.436016
0.432
0.440397
0.415473
0.445312
0.441757
0.44488
0.421743
0.433136
0.430188
0.482115
0.472415
0.464586
0.466958
0.481865
0.47697
0.479007
0.466614
0.469391
0.46551
0.477661
0.466318
0.48167
0.458674
0.4745
0.47571
0.474309
0.493585
0.49904
0.50608
0.498491
0.490245
0.496563
0.502435
0.492157
0.500857
0.485177
0.488679
0.475896
0.477408
0.487686
0.488488
0.473364
0.478187
0.469022
0.430905
0.426212
0.428452
0.542923
0.553348
0.400773
0.402139
0.394739
0.491279
0.49642
0.488244
0.451015
0.446555
0.481713
0.479318
0.539023
0.539131
0.42555
0.414213
0.426972
0.375617
0.372957
0.476568
0.469718
0.470373
0.468898
0.488122
0.461716
0.468167
0.454641
0.458031
0.456449
0.553495
0.55038
0.549829
0.590546
0.591123
0.400997
0.402276
0.391693
0.399278
0.494421
0.489728
0.539049
0.535908
0.424162
0.442383
0.436721
0.506746
0.509592
0.393833
0.396573
0.458376
0.469665
0.468625
0.396627
0.390854
0.389677
0.526922
0.529022
0.535114
0.350965
0.346348
0.350853
0.515265
0.517542
0.518701
0.464744
0.479217
0.478363
0.41548
0.417768
0.412566
0.369775
0.369015
0.372354
0.367962
0.569093
0.567292
0.476108
0.48288
0.479031
0.443616
0.42727
0.44226
0.504514
0.504179
0.491942
0.507711
0.368288
0.371499
0.366392
0.576617
0.579739
0.588726
0.46452
0.466602
0.46807
0.469328
0.369575
0.369821
0.348287
0.361322
0.548502
0.549376
0.552733
0.528942
0.533079
0.519479
0.430701
0.436936
0.437488
0.452827
0.453817
0.447328
0.4488
0.49085
0.504192
0.494408
0.410668
0.420358
0.404915
0.404015
0.4872
0.495584
0.393599
0.394147
0.402899
0.490356
0.479619
0.492097
0.464344
0.468231
0.54929
0.553779
0.544952
0.531969
0.377141
0.371975
0.371582
0.421575
0.420424
0.429755
0.435027
0.45297
0.447952
0.507434
0.507348
0.509785
0.401218
0.403028
0.376423
0.375781
0.37962
0.387114
0.3816
0.394649
0.41974
0.414864
0.41102
0.430388
0.420771
0.431236
0.437808
0.438013
0.4298
0.427264
0.419387
0.442824
0.519576
0.519356
0.524963
0.478675
0.485129
0.486172
0.47702
0.506783
0.520148
0.516087
0.526105
0.513627
0.496826
0.514456
0.513653
0.505796
0.492774
0.483983
0.509259
0.526474
0.522851
0.512058
0.497898
0.50885
0.522157
0.509022
0.413392
0.428245
0.435082
0.433429
0.462626
0.457899
0.464395
0.444201
0.440811
0.457082
0.465546
0.475513
0.419414
0.434419
0.433479
0.416646
0.44378
0.46718
0.481973
0.451654
0.447204
0.46108
0.461604
0.453918
0.446288
0.446101
0.457431
0.437623
0.437901
0.4694
0.468679
0.458054
0.450911
0.458258
0.451288
0.448379
0.429553
0.427479
0.421101
0.436109
0.42758
0.42438
0.427379
0.432661
0.427933
0.431079
0.431085
0.432574
0.422689
0.425085
0.425014
0.399102
0.405735
0.417186
0.367223
0.355545
0.37436
0.368111
0.399161
0.40351
0.410173
0.394589
0.409077
0.39512
0.393853
0.384649
0.387449
0.521674
0.526721
0.529608
0.530078
0.517077
0.523074
0.514224
0.531692
0.524929
0.548056
0.541443
0.521162
0.536982
0.537771
0.527579
0.530628
0.524481
0.548672
0.536364
0.533164
0.572581
0.556757
0.57439
0.565563
0.560654
0.549147
0.515377
0.503843
0.507059
0.419119
0.417579
0.429777
0.427436
0.433883
0.439186
0.440903
0.440248
0.449768
0.438523
0.45008
0.455477
0.510409
0.500122
0.510208
0.503186
0.497588
0.493413
0.478302
0.457362
0.457248
0.461209
0.508067
0.502404
0.499583
0.508064
0.496031
0.503573
0.502699
0.492509
0.473205
0.459775
0.453555
0.471741
0.476642
0.474085
0.474697
0.46559
0.475221
0.478228
0.471622
0.453561
0.464138
0.398345
0.398296
0.403258
0.39609
0.402275
0.403089
0.534049
0.525592
0.523178
0.436305
0.435022
0.441602
0.511942
0.513543
0.517714
0.503074
0.491909
0.494769
0.517827
0.463277
0.476183
0.465369
0.489977
0.507792
0.510271
0.491774
0.513207
0.498051
0.49776
0.469474
0.464953
0.478816
0.471489
0.472982
0.459813
0.472956
0.493107
0.486891
0.49169
0.484547
0.479054
0.388291
0.39727
0.396102
0.396393
0.41978
0.409732
0.413581
0.404158
0.408011
0.406353
0.401773
0.398071
0.404218
0.405246
0.418712
0.422358
0.416354
0.405489
0.411932
0.411483
0.405318
0.405263
0.459504
0.454423
0.436186
0.421424
0.423072
0.424081
0.406555
0.415417
0.413911
0.405543
0.406891
0.4128
0.402041
0.408616
0.411063
0.417511
0.421427
0.425632
0.414863
0.425082
0.4263
0.411288
0.412802
0.413949
0.407732
0.416297
0.442629
0.450266
0.45454
0.463855
0.469848
0.479736
0.546805
0.537638
0.528423
0.532304
0.539055
0.534332
0.513626
0.519282
0.516899
0.518286
0.497204
0.4933
0.489093
0.47687
0.445106
0.446387
0.43993
0.449992
0.446639
0.44624
0.44142
0.440612
0.443288
0.443122
0.438317
0.439879
0.445947
0.442233
0.457645
0.444494
0.454189
0.451405
0.450115
0.447762
0.452127
0.466479
0.46507
0.446048
0.455624
0.456265
0.452639
0.450233
0.442371
0.440202
0.440905
0.436484
0.445438
0.444997
0.443176
0.441623
0.443366
0.441417
0.441468
0.434188
0.431861
0.432241
0.440747
0.438849
0.433869
0.435769
0.435217
0.438208
0.439771
0.44139
0.47819
0.499007
0.486285
0.49835
0.516825
0.504653
0.518319
0.510269
0.51199
0.513512
0.550111
0.548737
0.518271
0.530365
0.536477
0.529277
0.522783
0.53764
0.529034
0.515007
0.52157
0.552539
0.550957
0.544266
0.519504
0.531152
0.538204
0.530484
0.55974
0.555484
0.540477
0.556672
0.580109
0.576951
0.574253
0.578502
0.540589
0.542866
0.545477
0.546211
0.543578
0.546338
0.565515
0.563613
0.55257
0.549003
0.559256
0.550138
0.542576
0.564191
0.570582
0.563609
0.545024
0.547762
0.545793
0.557943
0.566014
0.549279
0.395302
0.403248
0.393572
0.383162
0.388061
0.393214
0.387408
0.383625
0.361353
0.35396
0.362288
0.365986
0.356359
0.365353
0.360853
0.353757
0.368136
0.379601
0.37593
0.371509
0.381492
0.368213
0.380027
0.373642
0.372112
0.367764
0.375663
0.362886
0.373575
0.375073
0.358167
0.362676
0.362391
0.360811
0.366353
0.370386
0.375582
0.365823
0.36422
0.354947
0.355027
0.367847
0.36574
0.369241
0.430195
0.434798
0.49656
0.492003
0.490151
0.470721
0.475648
0.471773
0.468183
0.48025
0.471494
0.471402
0.467776
0.493238
0.479186
0.473595
0.468507
0.481487
0.46884
0.454998
0.464341
0.451781
0.457296
0.471483
0.462618
0.474345
0.46528
0.461717
0.465771
0.463284
0.464147
0.473011
0.467026
0.45178
0.462177
0.469817
0.466535
0.569191
0.572373
0.579288
0.588862
0.572976
0.59094
0.588711
0.595135
0.581148
0.556898
0.548384
0.570246
0.553796
0.546941
0.540948
0.544338
0.547634
0.349594
0.352071
0.355468
0.357933
0.35432
0.390233
0.39597
0.388927
0.368855
0.37525
0.376071
0.372831
0.370775
0.370557
0.37819
0.38363
0.373391
0.371916
0.366413
0.367178
0.367073
0.364544
0.367678
0.366334
0.36746
0.366376
0.363935
0.355382
0.354882
0.363578
0.362234
0.361768
0.357854
0.362654
0.361152
0.357211
0.502472
0.506726
0.488819
0.483945
0.496013
0.490515
0.517495
0.508958
0.496917
0.50913
0.516838
0.482738
0.489735
0.483418
0.488083
0.471125
0.498183
0.488634
0.489017
0.505886
0.506752
0.490079
0.49673
0.509157
0.493444
0.488995
0.505115
0.496139
0.445697
0.451018
0.449175
0.439727
0.449206
0.444759
0.447703
0.439773
0.425238
0.42987
0.431653
0.432468
0.435928
0.427836
0.498545
0.499592
0.486894
0.47796
0.488202
0.467128
0.480592
0.476292
0.491977
0.485105
0.476976
0.469699
0.558383
0.569531
0.570534
0.545889
0.550606
0.549869
0.559819
0.551519
0.562887
0.565775
0.565117
0.57569
0.548502
0.558529
0.569125
0.559844
0.572526
0.562203
0.577686
0.576204
0.563448
0.554964
0.575285
0.565224
0.561985
0.568957
0.563512
0.561233
0.567525
0.555684
0.375261
0.374
0.370724
0.375566
0.367937
0.366399
0.366397
0.358824
0.361708
0.367715
0.367642
0.358007
0.367585
0.366713
0.384478
0.37887
0.371652
0.373451
0.372305
0.378236
0.374753
0.380801
0.408806
0.409779
0.408274
0.412267
0.398857
0.405668
0.423867
0.429214
0.426217
0.42661
0.426674
0.42529
0.425312
0.416072
0.41784
0.420166
0.460431
0.46176
0.51417
0.513984
0.512944
0.513626
0.501051
0.506402
0.496926
0.492989
0.485589
0.509298
0.49983
0.485008
0.486614
0.487801
0.499739
0.491789
0.497567
0.48889
0.430704
0.447615
0.446706
0.429167
0.453062
0.452686
0.533654
0.528923
0.528201
0.503941
0.517528
0.517112
0.494548
0.50808
0.504298
0.508151
0.49735
0.491682
0.496304
0.487882
0.512585
0.498592
0.495492
0.520196
0.512922
0.504566
0.506589
0.49921
0.512488
0.505832
0.52726
0.497971
0.505206
0.513859
0.509171
0.524048
0.515301
0.357064
0.356698
0.351574
0.359748
0.360227
0.351501
0.343844
0.349814
0.341695
0.349378
0.351778
0.344628
0.350462
0.352546
0.348527
0.352511
0.355496
0.358484
0.351881
0.351368
0.35721
0.359462
0.350864
0.356166
0.535689
0.538208
0.529188
0.523162
0.530463
0.535289
0.52436
0.514805
0.518528
0.528534
0.525019
0.526685
0.513869
0.524265
0.516635
0.512992
0.510237
0.394912
0.389778
0.410168
0.408254
0.419535
0.417954
0.372223
0.366401
0.373468
0.379991
0.418002
0.409662
0.407545
0.391481
0.399674
0.406805
0.398881
0.401301
0.40629
0.4089
0.395668
0.401662
0.417255
0.412453
0.381504
0.36995
0.37284
0.37481
0.368531
0.382404
0.380094
0.451758
0.454429
0.450893
0.466667
0.501601
0.491957
0.486293
0.471056
0.469055
0.470556
0.452182
0.444693
0.444148
0.4342
0.434737
0.427918
0.426715
0.413173
0.433294
0.425364
0.417089
0.420646
0.420321
0.404962
0.401108
0.381604
0.405696
0.410319
0.401168
0.394405
0.39018
0.3906
0.374619
0.407973
0.396871
0.394846
0.411349
0.422195
0.396069
0.390981
0.531105
0.518341
0.506475
0.536066
0.521853
0.515055
0.508238
0.440624
0.458371
0.446729
0.4621
0.45025
0.437129
0.441652
0.448587
0.443135
0.440179
0.448804
0.433599
0.438434
0.430742
0.434735
0.454982
0.447499
0.437632
0.443258
0.43583
0.451947
0.441422
0.418732
0.425602
0.42978
0.427734
0.434186
0.41678
0.420351
0.521996
0.512147
0.524901
0.532749
0.542164
0.540818
0.540028
0.525681
0.517598
0.540082
0.55452
0.5414
0.555591
0.538568
0.536865
0.535681
0.4802
0.477048
0.476137
0.465238
0.480889
0.384373
0.395695
0.396781
0.395221
0.393514
0.398072
0.391395
0.386224
0.391441
0.391905
0.398561
0.399737
0.393047
0.394288
0.594701
0.598361
0.577628
0.58607
0.588691
0.59438
0.585429
0.582079
0.574739
0.569832
0.40066
0.527031
0.543387
0.544738
0.550973
0.545574
0.541503
0.544417
0.541268
0.531525
0.546214
0.545047
0.5388
0.561581
0.542762
0.546167
0.556839
0.550542
0.54904
0.539532
0.546613
0.537076
0.556225
0.534462
0.542906
0.544368
0.540768
0.551131
0.542958
0.354137
0.349942
0.3558
0.352524
0.349597
0.358188
0.35411
0.351457
0.352855
0.351009
0.353886
0.46345
0.459664
0.457534
0.460741
0.461071
0.461173
0.460379
0.45866
0.462111
0.450007
0.452912
0.455562
0.457498
0.457667
0.454649
0.460309
0.459847
0.45985
0.459277
0.42614
0.422927
0.48841
0.495626
0.495105
0.495835
0.458501
0.453662
0.450692
0.454567
0.440765
0.437666
0.490584
0.494634
0.490792
0.48034
0.474749
0.457777
0.457008
0.464769
0.460433
0.489165
0.474078
0.466073
0.488183
0.477528
0.47891
0.493519
0.483031
0.500736
0.487085
0.372156
0.37342
0.365484
0.359643
0.371553
0.370648
0.371132
0.37127
0.367556
0.366216
0.374907
0.378595
0.376467
0.387618
0.389803
0.391394
0.38531
0.374112
0.369947
0.378651
0.434779
0.422319
0.42237
0.442916
0.431486
0.440244
0.430593
0.42751
0.411267
0.406056
0.403012
0.566261
0.58029
0.567851
0.566619
0.541928
0.544589
0.525023
0.533444
0.520418
0.513613
0.533782
0.530499
0.527902
0.518611
0.519186
0.535644
0.52922
0.530346
0.527845
0.529041
0.536531
0.530529
0.520407
0.529834
0.538826
0.534372
0.531447
0.523742
0.451411
0.442774
0.451998
0.47177
0.48591
0.471232
0.477803
0.468751
0.476881
0.461334
0.470209
0.487722
0.476269
0.502411
0.505409
0.481044
0.493672
0.486489
0.4776
0.498914
0.484417
0.476934
0.471856
0.491471
0.481321
0.495928
0.487283
0.503223
0.45124
0.447109
0.440471
0.442143
0.441341
0.447174
0.447333
0.448267
0.450436
0.451704
0.451786
0.451624
0.449789
0.445705
0.457053
0.449324
0.453523
0.45864
0.4575
0.457101
0.493743
0.492724
0.50633
0.497101
0.500151
0.39194
0.387175
0.386381
0.387133
0.391572
0.398865
0.402073
0.40238
0.398953
0.403693
0.401433
0.415447
0.40782
0.407427
0.40191
0.393307
0.394851
0.381793
0.38331
0.397809
0.394352
0.395434
0.392724
0.567342
0.565382
0.557637
0.54804
0.437871
0.437347
0.432764
0.428482
0.438992
0.433388
0.424218
0.435574
0.431831
0.433102
0.433781
0.443155
0.445869
0.437592
0.436294
0.429644
0.430766
0.433976
0.431565
0.424835
0.435528
0.428279
0.43039
0.449861
0.451192
0.435127
0.459135
0.460516
0.44097
0.459469
0.453332
0.452451
0.454153
0.428452
0.423532
0.43257
0.432734
0.422023
0.427172
0.430802
0.429989
0.432335
0.434399
0.428581
0.430137
0.416694
0.415466
0.409306
0.409822
0.404777
0.386453
0.402961
0.391224
0.391688
0.396427
0.392708
0.395559
0.408371
0.401438
0.39679
0.393413
0.427285
0.429196
0.436878
0.440068
0.418324
0.418309
0.40623
0.418403
0.405946
0.409357
0.42224
0.417527
0.406823
0.406708
0.477502
0.486647
0.475688
0.481523
0.482721
0.486312
0.478839
0.471583
0.496289
0.487477
0.498217
0.451263
0.463378
0.450783
0.441659
0.46537
0.463968
0.43124
0.442304
0.437704
0.420147
0.413737
0.42169
0.428687
0.421942
0.444512
0.435104
0.442629
0.428442
0.423648
0.449115
0.448919
0.52162
0.530265
0.532895
0.528838
0.514894
0.532764
0.526966
0.525151
0.521009
0.538536
0.550995
0.553976
0.546474
0.554851
0.53562
0.53866
0.529164
0.549724
0.538369
0.544846
0.526861
0.545257
0.533471
0.530628
0.543881
0.539503
0.543395
0.530218
0.534479
0.532889
0.543096
0.537316
0.442911
0.447533
0.453496
0.439152
0.447114
0.436576
0.443374
0.433556
0.451963
0.458758
0.457252
0.447298
0.464277
0.465816
0.472044
0.467344
0.460708
0.449873
0.453234
0.469212
0.470436
0.465634
0.457745
0.455034
0.500269
0.496095
0.499825
0.487268
0.50816
0.493216
0.501043
0.492424
0.475601
0.466091
0.481703
0.485448
0.482911
0.477429
0.466453
0.474797
0.468297
0.490564
0.486325
0.431534
0.437847
0.435661
0.430173
0.448243
0.499931
0.505455
0.500137
0.498951
0.492064
0.492165
0.498792
0.499556
0.501097
0.483507
0.448465
0.452109
0.454188
0.453872
0.454732
0.444985
0.450312
0.466744
0.464527
0.462293
0.462625
0.353449
0.361525
0.366961
0.366082
0.359775
0.351846
0.526692
0.527403
0.535183
0.531084
0.531772
0.382599
0.384044
0.383268
0.385652
0.379484
0.384637
0.38685
0.374933
0.382272
0.392537
0.392632
0.463875
0.467952
0.467841
0.464219
0.532953
0.538929
0.531511
0.544862
0.535755
0.545517
0.538094
0.552016
0.554895
0.54679
0.540117
0.533445
0.527549
0.542176
0.532986
0.522507
0.530951
0.532026
0.54735
0.529632
0.532745
0.517317
0.543839
0.533658
0.522214
0.527101
0.535902
0.52918
0.535282
0.52346
0.528512
0.475566
0.459272
0.479349
0.452074
0.463971
0.473773
0.462549
0.467978
0.468062
0.478823
0.497198
0.490704
0.498482
0.513294
0.521406
0.510179
0.359273
0.372503
0.376393
0.381962
0.360728
0.360568
0.379497
0.378823
0.391288
0.384163
0.381078
0.441213
0.450101
0.455545
0.457083
0.460674
0.437295
0.473326
0.467026
0.45185
0.446373
0.42
0.426354
0.425669
0.510317
0.475333
0.512313
0.494464
0.500759
0.488612
0.48729
0.435737
0.431183
0.430681
0.433945
0.425191
0.438926
0.425716
0.423703
0.427682
0.439579
0.444974
0.370351
0.376473
0.391029
0.379134
0.371548
0.379191
0.376101
0.386804
0.385597
0.391316
0.390734
0.400874
0.385843
0.401595
0.397313
0.39241
0.384324
0.363115
0.3653
0.37038
0.370009
0.36522
0.364506
0.360115
0.364462
0.372567
0.374578
0.400954
0.395787
0.416607
0.411312
0.408465
0.38984
0.412083
0.411986
0.411312
0.408006
0.401583
0.38984
0.39677
0.514117
0.508375
0.522505
0.50484
0.522837
0.511588
0.510979
0.51355
0.530628
0.523621
0.505543
0.516906
0.526667
0.516576
0.533976
0.526302
0.524796
0.53188
0.520145
0.538688
0.528792
0.52053
0.530392
0.525088
0.53226
0.519254
0.347837
0.344511
0.351735
0.348455
0.348392
0.350539
0.348435
0.34933
0.34427
0.351712
0.340188
0.345291
0.34157
0.343819
0.346311
0.347893
0.34943
0.349281
0.356981
0.359847
0.357943
0.362256
0.350712
0.345795
0.355959
0.355649
0.348702
0.351136
0.351919
0.359368
0.352198
0.33921
0.348529
0.349159
0.356339
0.524016
0.519065
0.515862
0.523093
0.520271
0.531465
0.521741
0.489952
0.501497
0.539042
0.526751
0.528864
0.522463
0.516759
0.524228
0.522738
0.370534
0.372914
0.372749
0.374513
0.374619
0.383472
0.382856
0.383661
0.383505
0.362988
0.368647
0.363161
0.353871
0.362926
0.3618
0.367035
0.361562
0.366952
0.361307
0.566098
0.579144
0.585925
0.577372
0.558958
0.551077
0.553536
0.554953
0.57203
0.566339
0.561055
0.583858
0.584857
0.571136
0.587725
0.573581
0.579675
0.57218
0.565562
0.568283
0.523721
0.525826
0.507687
0.535012
0.539118
0.529024
0.537056
0.534044
0.553217
0.56342
0.554767
0.561081
0.544907
0.562105
0.549671
0.549832
0.551443
0.552896
0.528924
0.542375
0.539121
0.550201
0.545357
0.534095
0.534792
0.533877
0.555436
0.565537
0.548773
0.565346
0.557501
0.556145
0.564511
0.556322
0.555658
0.548848
0.555478
0.564276
0.559088
0.468312
0.452085
0.46673
0.462677
0.482128
0.470048
0.470717
0.465943
0.461476
0.478842
0.474769
0.35701
0.354339
0.357264
0.360758
0.359445
0.359396
0.351473
0.347585
0.349168
0.351402
0.345979
0.339424
0.572889
0.587704
0.582506
0.583344
0.575954
0.588859
0.578854
0.594457
0.585119
0.595713
0.585753
0.576383
0.580181
0.586898
0.580727
0.577273
0.565738
0.569042
0.568624
0.560186
0.462032
0.465876
0.468942
0.466913
0.471046
0.456738
0.455998
0.452736
0.456858
0.464949
0.447571
0.449459
0.463318
0.460888
0.454815
0.463818
0.469347
0.46744
0.460756
0.467145
0.465575
0.464623
0.463865
0.46365
0.359872
0.362265
0.351067
0.349269
0.350575
0.356258
0.355214
0.402489
0.41445
0.40899
0.396383
0.397117
0.550066
0.544153
0.552148
0.554939
0.567444
0.568797
0.574209
0.568503
0.571762
0.564979
0.53953
0.542415
0.532841
0.529691
0.517839
0.537262
0.539859
0.527582
0.526357
0.51464
0.51472
0.508761
0.531527
0.525997
0.529331
0.546755
0.516861
0.518307
0.528519
0.529654
0.538887
0.547477
0.541414
0.544401
0.539173
0.529631
0.526011
0.529704
0.533245
0.448847
0.446473
0.450587
0.45206
0.450386
0.442312
0.443134
0.52499
0.508318
0.516429
0.504156
0.52894
0.528541
0.542779
0.449847
0.453531
0.447499
0.442037
0.438885
0.446264
0.449493
0.447191
0.447573
0.456233
0.46613
0.451156
0.443539
0.444741
0.488676
0.421255
0.4202
0.420456
0.421083
0.420152
0.420127
0.422015
0.420265
0.384136
0.387226
0.392813
0.390687
0.389934
0.386407
0.389448
0.494272
0.51264
0.504413
0.519471
0.52019
0.510782
0.509402
0.524728
0.495767
0.501152
0.51809
0.512457
0.512668
0.507083
0.516727
0.513813
0.532741
0.524324
0.434412
0.44057
0.449145
0.44652
0.449916
0.454191
0.448975
0.44104
0.433273
0.447282
0.447622
0.41202
0.425282
0.425194
0.414754
0.419167
0.407287
0.403647
0.420225
0.421542
0.427729
0.435336
0.566931
0.564512
0.565711
0.559629
0.576278
0.574004
0.530367
0.502296
0.510603
0.519873
0.523011
0.515551
0.510533
0.508086
0.483716
0.468489
0.474862
0.456853
0.480603
0.479477
0.470694
0.458099
0.463031
0.487211
0.476763
0.423557
0.425869
0.437754
0.435621
0.436974
0.428723
0.413813
0.413063
0.419985
0.41505
0.512535
0.505514
0.505067
0.513454
0.508595
0.493219
0.500452
0.506028
0.490582
0.51638
0.500092
0.508115
0.506695
0.494564
0.49631
0.512755
0.499053
0.471777
0.466795
0.470499
0.456912
0.456573
0.478726
0.478921
0.449599
0.460621
0.457225
0.459924
0.458766
0.453017
0.443224
0.449491
0.445607
0.455692
0.452454
0.449499
0.445776
0.466808
0.460701
0.459646
0.462543
0.472829
0.471162
0.474145
0.467549
0.466693
0.47148
0.47068
0.469819
0.476095
0.47197
0.56248
0.548486
0.557461
0.555285
0.554783
0.545309
0.551456
0.563454
0.55741
0.506818
0.498082
0.511431
0.490964
0.51208
0.498983
0.492284
0.519711
0.511978
0.5178
0.511721
0.44712
0.447315
0.466829
0.444351
0.462709
0.350938
0.356536
0.357761
0.360037
0.350718
0.356555
0.359874
0.366686
0.341297
0.354231
0.359979
0.365944
0.350311
0.344023
0.345417
0.348407
0.352301
0.348944
0.359628
0.343419
0.527412
0.509168
0.500909
0.525701
0.51084
0.530656
0.53109
0.532868
0.534663
0.494873
0.509485
0.505555
0.503207
0.525783
0.510515
0.521528
0.518312
0.51354
0.512325
0.528604
0.517474
0.516623
0.509599
0.507871
0.512705
0.517797
0.52945
0.530472
0.531303
0.531498
0.498223
0.502444
0.504991
0.517253
0.512846
0.493637
0.507783
0.50115
0.488454
0.51542
0.51574
0.515605
0.521811
0.51812
0.504552
0.521396
0.515882
0.505495
0.518326
0.517564
0.515115
0.506254
0.512548
0.463203
0.469539
0.472318
0.466145
0.452891
0.451829
0.466575
0.445969
0.454125
0.462987
0.456442
0.469974
0.464274
0.454135
0.448048
0.433818
0.436967
0.435005
0.446845
0.444144
0.448325
0.453397
0.443614
0.457452
0.449289
0.445809
0.460184
0.454515
0.442097
0.456624
0.461804
0.451831
0.446399
0.456753
0.451288
0.444052
0.443287
0.514759
0.509598
0.516478
0.513466
0.52114
0.528101
0.518843
0.507199
0.515184
0.449928
0.444435
0.435174
0.452864
0.445702
0.438032
0.435018
0.450695
0.43245
0.433027
0.436499
0.436636
0.430964
0.495442
0.493252
0.495168
0.483492
0.482798
0.473988
0.484506
0.472969
0.474277
0.46806
0.482549
0.48808
0.369661
0.376819
0.373811
0.374419
0.37071
0.383076
0.384401
0.392423
0.393182
0.381151
0.397633
0.393057
0.394715
0.39145
0.396142
0.436537
0.448214
0.445075
0.444023
0.446964
0.45361
0.455088
0.446249
0.500087
0.506626
0.509216
0.516677
0.521527
0.517558
0.514798
0.43605
0.429506
0.431678
0.438399
0.441397
0.439911
0.432093
0.427717
0.436116
0.439431
0.433215
0.436745
0.43925
0.437178
0.437679
0.423621
0.425164
0.425502
0.417677
0.418137
0.424514
0.426762
0.417129
0.419411
0.426456
0.414802
0.508264
0.518699
0.54663
0.544248
0.531921
0.530139
0.521346
0.517885
0.551956
0.548683
0.534973
0.530649
0.506089
0.515976
0.497386
0.505703
0.502805
0.495418
0.495736
0.479665
0.48814
0.514086
0.508336
0.493854
0.499293
0.518318
0.516972
0.508107
0.502767
0.459538
0.444382
0.456311
0.468838
0.490086
0.493092
0.481546
0.476714
0.478866
0.481499
0.407332
0.400155
0.400207
0.407182
0.406228
0.410647
0.408646
0.470685
0.487909
0.482134
0.423966
0.413526
0.421939
0.425423
0.423433
0.427781
0.414792
0.422497
0.422638
0.418156
0.424616
0.41376
0.418276
0.410484
0.411261
0.415664
0.408161
0.40617
0.407096
0.405108
0.404106
0.400047
0.403894
0.432772
0.422808
0.422855
0.426466
0.419439
0.418574
0.42321
0.420918
0.420952
0.412373
0.415351
0.424723
0.420715
0.418575
0.424725
0.42044
0.418722
0.429839
0.425758
0.448058
0.442158
0.452156
0.446194
0.441897
0.451085
0.450393
0.452823
0.453096
0.449556
0.424319
0.430179
0.432996
0.429151
0.484232
0.474411
0.492669
0.482716