/*--------------------------------*- C++ -*----------------------------------*\
| =========                 |                                                 |
| \\      /  F ield         | OpenFOAM: The Open Source CFD Toolbox           |
|  \\    /   O peration     | Version:  v1612+                                |
|   \\  /    A nd           | Web:      www.OpenFOAM.com                      |
|    \\/     M anipulation  |                                                 |
\*---------------------------------------------------------------------------*/
FoamFile
{
    version     2.0;
    format      ascii;
    class       volVectorField;
    location    "150";
    object      wallShearStress;
}
// * * * * * * * * * * * * * * * * * * * * * * * * * * * * * * * * * * * * * //

dimensions      [0 2 -2 0 0 0 0];

internalField   uniform (0 0 0);

boundaryField
{
    WALL
    {
        type            calculated;
        value           nonuniform List<vector> 
1510
(
(-0.0041242 -0.0185258 0.00690506)
(-0.00447455 -0.018267 0.00747028)
(-0.00855565 -0.00974911 0.0015041)
(-0.00993404 -0.0117446 0.00407056)
(-0.0066227 -0.0179703 0.00729982)
(-0.00513618 -0.0181497 0.00755229)
(-0.000544847 -0.0161523 0.00886643)
(-0.000872747 -0.0181407 0.00880107)
(-0.0040755 -0.0156988 0.0108838)
(-0.00556467 -0.0153921 0.0113773)
(-0.00431952 -0.0166601 0.0130149)
(-0.00341121 -0.0156058 0.0133767)
(-0.00398663 -0.0169867 0.0100012)
(-0.00397975 -0.0167321 0.0110147)
(-0.00549383 -0.0149725 0.0151728)
(-0.00402796 -0.0150543 0.0142117)
(0.0030522 -0.0195131 0.00375813)
(0.00235498 -0.0177908 0.00496286)
(-0.0102714 -0.0119771 0.00126537)
(-0.0101207 -0.0112559 0.00069154)
(-0.0126755 -0.0168422 0.00663054)
(-0.0113409 -0.0141601 0.00455036)
(0.000941799 -0.0178722 -0.00727581)
(0.00059435 -0.0178209 -0.00824033)
(-0.0016243 -0.0174686 0.00803784)
(-0.00173477 -0.0173582 0.00720208)
(-0.00859743 -0.00982715 -0.000956105)
(-0.00952055 -0.0101862 3.61748e-05)
(-0.0119108 -0.0144522 0.00277358)
(-0.0114226 -0.0154974 0.00354123)
(-0.00691917 -0.00934162 -0.00292172)
(-0.00662293 -0.00948694 -0.00385744)
(-0.00865365 -0.00867187 -0.00117783)
(-0.00913057 -0.00945181 -0.00166395)
(-0.000724092 -0.0161917 0.0145926)
(-0.0163021 -0.0185985 0.00970143)
(-0.0168325 -0.0176083 0.0105317)
(-0.0124712 -0.0188498 0.0100256)
(-0.0140139 -0.0210264 0.0106299)
(-0.00318956 -0.0163243 0.00911983)
(-0.00481193 -0.0161785 0.00971487)
(-0.00856555 -0.0171923 0.00932536)
(-0.00678603 -0.0167592 0.00967138)
(7.32325e-05 -0.0188054 0.012228)
(0.000799191 -0.0169624 0.0107815)
(-0.00782023 -0.0187609 0.00720867)
(-0.0095401 -0.0200927 0.0068306)
(-0.0148234 -0.0276793 0.00541998)
(-0.0157823 -0.0248615 0.00783238)
(-0.0105175 -0.0127602 0.00121425)
(-0.0102321 -0.0110442 0.000581593)
(-0.00790242 -0.0280698 -0.00300426)
(-0.00679942 -0.0280218 -0.00270004)
(-0.00765461 -0.0155241 0.0146362)
(-0.00649998 -0.0157747 0.0136749)
(-0.00834234 -0.0271682 0.00235033)
(-0.00752858 -0.0212541 0.00253842)
(-0.0161691 -0.0201089 0.00953025)
(-0.0145271 -0.0205568 0.0078523)
(-0.00639679 -0.00970216 -0.00534793)
(-0.00621149 -0.00870966 -0.00472206)
(-0.00668486 -0.00930033 -0.00496603)
(-0.00602545 -0.00921067 -0.00520415)
(-0.00650502 -0.00865363 -0.00430583)
(-0.00695723 -0.00891292 -0.00465485)
(0.00149648 -0.0163847 -0.00114082)
(0.00205386 -0.016824 0.00016588)
(0.000587207 -0.0148729 -0.00119527)
(0.00216829 -0.0165168 -0.000450079)
(0.000920457 -0.0148002 -0.00165379)
(0.0014653 -0.0152648 -0.000512245)
(-0.00297731 -0.0089404 -0.00153804)
(-0.00372104 -0.00783587 -0.000929322)
(-0.00289655 -0.00902017 -0.00184453)
(-0.00331314 -0.00813986 -0.0010642)
(-0.00361022 -0.00887276 -0.00157434)
(-0.00365837 -0.00789621 -0.00126224)
(0.000599744 -0.0230768 -0.00652639)
(1.81592e-05 -0.022403 -0.00725134)
(1.68166e-05 -0.0212353 -0.00797048)
(-0.00181587 -0.0185523 0.00691916)
(-0.00159879 -0.0199147 0.00694621)
(-0.00227106 -0.019248 0.00716633)
(-0.00444992 -0.0176984 0.00711882)
(-0.00317386 -0.019116 0.0073761)
(-0.00188336 -0.0186272 0.0064378)
(-0.00352238 -0.0182049 0.00693152)
(-0.00248982 -0.0173851 0.00691674)
(-0.00158912 -0.0172899 -0.00949142)
(-0.00297347 -0.0153514 -0.00947971)
(-0.00200618 -0.0168772 -0.00966404)
(-0.00131406 -0.0174756 -0.0094271)
(-0.00203644 -0.0155329 -0.00965473)
(-0.00276133 -0.0154368 -0.00935939)
(-0.0127194 -0.0170589 0.00734958)
(-0.0110199 -0.0134717 0.00470998)
(-0.0112784 -0.0140149 0.00549069)
(-0.0132366 -0.0176088 0.00830146)
(-0.0113895 -0.0149571 0.00589196)
(-0.010991 -0.0145117 0.00672661)
(-0.00981499 -0.0185055 0.00946421)
(-0.00776181 -0.0171503 0.0102837)
(-0.0100005 -0.017794 0.00947779)
(-0.00929721 -0.017436 0.00994383)
(-0.00983543 -0.0172514 0.00944987)
(-0.00841957 -0.0170604 0.0100328)
(-0.0128861 -0.0323076 0.00621473)
(-0.0152106 -0.0324357 0.00701206)
(-0.0156737 -0.0314592 0.00731107)
(-0.012772 -0.0301968 0.00522561)
(-0.0141973 -0.0339852 0.00624322)
(-0.0151414 -0.0297189 0.00618892)
(-0.0136325 -0.0321614 0.00469467)
(-0.0123924 -0.0305601 0.00261269)
(-0.0122007 -0.0332159 0.00313208)
(-0.0130402 -0.0335656 0.00450368)
(-0.0122495 -0.0321768 0.0036882)
(-0.0136467 -0.0310806 0.00424834)
(-0.00636216 -0.0263258 -0.00245447)
(-0.00683088 -0.0264795 -0.00292222)
(-0.0087098 -0.0282388 -0.00286193)
(-0.012007 -0.0239337 0.00651569)
(-0.0113035 -0.0295939 0.00786053)
(-0.0127908 -0.029425 0.00889001)
(-0.0121018 -0.0260903 0.00820521)
(-0.0130487 -0.0245389 0.00740326)
(-0.0125703 -0.0291736 0.00744118)
(-0.00996089 -0.0113569 8.6737e-05)
(-0.00931186 -0.0102479 -0.000371134)
(-0.011035 -0.0146293 0.00211157)
(-0.00997115 -0.0132274 0.00138069)
(-0.00957368 -0.0107744 0.000120502)
(-0.0102911 -0.0105733 -0.000788733)
(-0.00651539 -0.00704032 -0.000584923)
(-0.00719683 -0.00868648 -0.000395251)
(-0.00658344 -0.00848056 -6.88991e-05)
(-0.00711513 -0.00962363 0.00020194)
(-0.00649148 -0.0069349 -0.000952263)
(-0.00716857 -0.00741787 -0.00102313)
(-0.0155075 -0.0287596 0.00702736)
(-0.0153571 -0.0291193 0.00634475)
(-0.0153163 -0.0284647 0.00602884)
(-0.0153176 -0.0306114 0.00622084)
(-0.0166436 -0.0277981 0.00807653)
(-0.0141009 -0.0264458 0.00519352)
(-0.0133725 -0.0275965 0.00398743)
(-0.0128791 -0.0254845 0.00391723)
(-0.0147035 -0.0296506 0.00513429)
(-0.0142084 -0.0262791 0.00546597)
(-0.0142129 -0.0295395 0.00465729)
(-0.013787 -0.0261039 0.00513371)
(-0.0123726 -0.0196365 0.00802479)
(-0.0130941 -0.021484 0.00921857)
(-0.0129044 -0.0197961 0.00954207)
(-0.0112864 -0.0185428 0.00907067)
(-0.011544 -0.0181443 0.00923034)
(-0.0128363 -0.0194437 0.00857586)
(-0.00973851 -0.0272339 -0.0032845)
(-0.00785826 -0.0253862 -0.00313271)
(-0.0103853 -0.0277886 -0.00201348)
(-0.00932615 -0.0263431 -0.00317054)
(-0.00942365 -0.0197565 0.00599093)
(-0.0099002 -0.0217199 0.00628068)
(-0.0114603 -0.0233472 0.00433673)
(-0.0116702 -0.0234368 0.00527089)
(-0.0101869 -0.021804 0.00513978)
(-0.0103461 -0.0214103 0.00446805)
(-0.0141427 -0.0209835 0.008557)
(-0.0144353 -0.0220891 0.00953369)
(-0.0130185 -0.018641 0.0104425)
(-0.0145793 -0.020723 0.009729)
(-0.0132726 -0.0185881 0.00962299)
(-0.012898 -0.0193314 0.00961258)
(0.00181457 -0.0177352 0.00772031)
(0.00259462 -0.0185959 0.00695743)
(0.00211094 -0.0181713 0.0076533)
(0.000565879 -0.0172827 0.00852751)
(0.00134666 -0.0180806 0.00874557)
(0.00227387 -0.0183422 0.00659452)
(-0.00234974 -0.016842 0.00910987)
(-0.00194634 -0.017231 0.00861529)
(-0.00306518 -0.0180885 0.0094646)
(-0.0034375 -0.0174664 0.00958859)
(-0.00506849 -0.0180391 0.00933584)
(-0.00231071 -0.0170341 0.00850155)
(-0.00597145 -0.0170482 0.00914903)
(-0.00552878 -0.0179645 0.009095)
(-0.00616328 -0.0174661 0.00871421)
(-0.0060619 -0.0187663 0.00884544)
(-0.00435837 -0.0172105 0.00882308)
(-0.00401106 -0.0169105 0.00877053)
(-0.0106469 -0.0128724 0.00544024)
(-0.00866094 -0.00995395 0.00209909)
(-0.00919728 -0.0104427 0.00308865)
(-0.0101446 -0.0118149 0.00386796)
(-0.011121 -0.0135025 0.00624685)
(-0.00933451 -0.010792 0.00366615)
(-0.0100993 -0.0117601 0.00489119)
(-0.00940357 -0.0109445 0.00276611)
(-0.0184094 -0.0276436 0.0101941)
(-0.0152304 -0.0260111 0.008571)
(-0.0165525 -0.0249797 0.00873008)
(-0.0165341 -0.025578 0.00883031)
(-0.0166571 -0.0261579 0.00901332)
(-0.0163141 -0.0261156 0.00890524)
(-0.0130838 -0.0211747 0.0106565)
(-0.0133602 -0.0244859 0.0114966)
(-0.0146983 -0.025947 0.0127148)
(-0.0134428 -0.0226154 0.0115824)
(-0.0137045 -0.022979 0.0109083)
(-0.0103333 -0.0118649 0.00513626)
(-0.0112122 -0.0144132 0.00772513)
(-0.0160445 -0.0194813 0.00903392)
(-0.0178566 -0.0218465 0.00975631)
(-0.0171141 -0.0220914 0.00933894)
(-0.0160368 -0.0203817 0.0087581)
(-0.0169888 -0.0201271 0.00959948)
(-0.0170039 -0.021591 0.00916014)
(-0.0148115 -0.0156358 0.00943706)
(-0.0168992 -0.0187136 0.0111688)
(-0.0154261 -0.0225548 0.00857044)
(-0.0187142 -0.028386 0.0111304)
(-0.0170855 -0.0232171 0.00958667)
(-0.0157178 -0.0232924 0.0093498)
(-0.0160429 -0.0233146 0.00930439)
(0.00152226 -0.0185583 0.0114352)
(0.00220094 -0.0182082 0.0108133)
(0.0020806 -0.0189036 0.00999841)
(0.00127919 -0.0179791 0.0116169)
(0.00144611 -0.0178854 0.00976939)
(-0.000993718 -0.017738 0.0126046)
(-0.000452825 -0.0170235 0.0133288)
(-0.00319028 -0.0171712 0.0146054)
(-0.00261224 -0.0151359 0.0138103)
(-0.00101753 -0.0172984 0.0142939)
(-0.0009988 -0.0168986 0.0134071)
(-0.00168705 -0.0156283 0.0131939)
(-0.0160406 -0.0189622 0.010052)
(-0.0143918 -0.015773 0.00961513)
(-0.015052 -0.0159282 0.0100545)
(-0.0152696 -0.0180676 0.00909494)
(-0.0169192 -0.018869 0.0105483)
(-0.012765 -0.0149416 0.0136931)
(-0.0105286 -0.0141256 0.0133657)
(-0.0116937 -0.0145765 0.0134918)
(-0.0121873 -0.0150942 0.0128966)
(-0.0119112 -0.0156029 0.0141565)
(-0.0126069 -0.0137354 0.0143765)
(-0.0124743 -0.0148326 0.0142532)
(-0.0139039 -0.0149814 0.0135352)
(-0.0122839 -0.014476 0.0146009)
(-0.0138086 -0.0148702 0.0129563)
(-0.0133879 -0.0152609 0.0134758)
(-0.00483823 -0.010436 -0.0071541)
(-0.00480173 -0.0107532 -0.00736776)
(-0.00486027 -0.0116341 -0.00783022)
(-0.00445656 -0.0119817 -0.007794)
(-0.00414737 -0.0117886 -0.00824056)
(-0.00868402 -0.00904706 -0.00277405)
(-0.00884948 -0.00867437 -0.00255104)
(-0.00874003 -0.00933456 -0.00248294)
(-0.00887433 -0.0092473 -0.00196937)
(-0.00990863 -0.00999776 -0.00167678)
(-0.00482443 -0.012773 -0.00752872)
(-0.00400622 -0.012759 -0.00798513)
(-0.00357497 -0.0134565 -0.00876694)
(-0.00452235 -0.0127521 -0.00782313)
(-0.00296386 -0.0141338 -0.00888792)
(-0.00360209 -0.014114 -0.00842849)
(-0.00803582 -0.00976608 -0.00315273)
(-0.00818194 -0.00936874 -0.0028667)
(-0.00922815 -0.0100091 -0.0022452)
(-0.00783029 -0.00902072 -0.00254531)
(-0.00820473 -0.00985736 -0.0031514)
(-0.0088682 -0.00976826 -0.00238406)
(-0.00648395 -0.00907283 -0.00199393)
(-0.00583994 -0.00822937 -0.00165937)
(-0.0063578 -0.00854993 -0.0014563)
(-0.00571854 -0.00857011 -0.00238242)
(-0.00573808 -0.00857349 -0.00207987)
(-0.00642298 -0.00841053 -0.00159414)
(-0.0118694 -0.019134 0.0067738)
(-0.0129393 -0.0192263 0.0062207)
(-0.0130291 -0.0212032 0.00739006)
(-0.0124893 -0.0214133 0.00681555)
(-0.0127958 -0.0189213 0.00575702)
(-0.012799 -0.0228386 0.00767012)
(-0.0136676 -0.0271537 0.011143)
(-0.0147636 -0.030688 0.0124534)
(-0.0135767 -0.0294969 0.0113404)
(-0.0128923 -0.0268905 0.0118442)
(-0.0143136 -0.0268934 0.0120819)
(-0.013439 -0.0268208 0.0115678)
(-0.016467 -0.0319679 0.0107171)
(-0.0149743 -0.031589 0.0104681)
(-0.0161717 -0.0344732 0.0121003)
(-0.0169932 -0.0321475 0.0100593)
(-0.0137529 -0.0324281 0.00990665)
(-0.0157734 -0.0329658 0.0100363)
(-0.0110781 -0.0131286 0.00241701)
(-0.0102616 -0.0111247 0.000815119)
(-0.0111863 -0.0126245 0.00151351)
(-0.012194 -0.0156146 0.00373024)
(-0.00883422 -0.00951689 -0.00133038)
(-0.00851414 -0.0096995 -0.00182679)
(-0.00868035 -0.0097269 -0.00176272)
(-0.00908467 -0.00979162 -0.000560564)
(-0.00945949 -0.0100303 -0.000734826)
(-0.00886059 -0.00977731 -0.00120269)
(-0.0071188 -0.00920488 -0.00163747)
(-0.00715212 -0.00906538 -0.00224376)
(-0.00831082 -0.0095423 -0.0013168)
(-0.00737936 -0.00896583 -0.00126364)
(-0.00777034 -0.009239 -0.00205685)
(-0.00921093 -0.0105076 0.00162755)
(-0.00981979 -0.0119296 0.00334274)
(-0.0113509 -0.013274 0.00325884)
(-0.00352586 -0.0117762 -0.00519329)
(-0.00413153 -0.0113636 -0.0055402)
(-0.00278959 -0.0125801 -0.00578526)
(-0.00421876 -0.0112697 -0.00506311)
(-0.00248735 -0.0126794 -0.00643354)
(-0.00370659 -0.0126423 -0.0063197)
(-0.00499185 -0.00946044 -0.00429775)
(-0.0052252 -0.00989507 -0.0041432)
(-0.00598362 -0.0090022 -0.00272404)
(-0.00554577 -0.00930542 -0.00327686)
(-0.00588848 -0.00879914 -0.00310622)
(-0.00606669 -0.00993252 -0.00408165)
(0.00138154 -0.0218006 0.00263266)
(0.000525464 -0.021626 0.00373136)
(-7.47497e-05 -0.0221616 0.00378837)
(0.000658832 -0.0235505 0.00287845)
(0.00140359 -0.0224314 0.00193299)
(0.00151287 -0.0227579 0.00181602)
(0.00259478 -0.0211152 -0.00112397)
(0.00337963 -0.0213574 -0.0016377)
(0.0023318 -0.0212729 0.000902182)
(0.00321225 -0.0190087 0.000432825)
(0.00420262 -0.0206999 -0.00094371)
(0.00182303 -0.0219946 0.000151036)
(0.00307829 -0.0182392 0.0045693)
(0.00159168 -0.0185868 0.00536316)
(0.00277015 -0.0185274 0.00487996)
(0.00155844 -0.0173105 0.00584096)
(0.000859034 -0.0169169 0.00579027)
(0.00250183 -0.0192637 0.00261892)
(0.00122305 -0.0196229 0.00337956)
(0.00200111 -0.019275 0.00302075)
(-0.00877051 -0.0210155 0.00563425)
(-0.00689134 -0.0204812 0.0073852)
(-0.0082801 -0.0211291 0.00587912)
(-0.00678499 -0.0188877 0.00707247)
(-0.0083553 -0.0207528 0.00666895)
(-0.007178 -0.0204362 0.00631038)
(-0.00620418 -0.0190184 0.00773225)
(-0.0054941 -0.0190678 0.00751957)
(-0.001035 -0.01545 -0.00697654)
(-0.00171911 -0.0148614 -0.00751731)
(-0.00114014 -0.0153949 -0.00694994)
(-0.00274288 -0.0139651 -0.00720166)
(-0.00255221 -0.0137933 -0.00713913)
(-0.00182538 -0.014095 -0.00693825)
(0.0028065 -0.0181295 0.00282061)
(0.00389001 -0.0181529 0.00329873)
(0.00244096 -0.0193688 0.00625691)
(0.00312384 -0.0189783 0.00581042)
(0.00327627 -0.0188371 0.00527369)
(0.0035657 -0.0194423 0.00327975)
(0.00396139 -0.0176516 0.00416865)
(0.00354092 -0.0200147 -0.00379732)
(0.00283208 -0.019272 -0.00463899)
(0.0025683 -0.0188227 -0.00605739)
(0.00268273 -0.0191993 -0.0050997)
(0.00284063 -0.0195478 -0.0037453)
(0.00265073 -0.0184101 -0.00589614)
(0.000795388 -0.0166108 -0.00661753)
(0.00156914 -0.0176841 -0.00622384)
(0.00239634 -0.0173086 -0.004876)
(0.0027895 -0.0171495 -0.00550434)
(0.000219992 -0.0158163 -0.0057479)
(0.00152087 -0.0160571 -0.00512885)
(0.00416555 -0.0189465 -0.000751214)
(0.00356947 -0.01821 -0.0029984)
(0.00363177 -0.0198341 -0.0020965)
(0.00398722 -0.0190176 -0.000531851)
(0.0033584 -0.0188019 -0.00115119)
(0.00336628 -0.0188514 -0.00275371)
(-0.000660519 -0.0174892 0.00664672)
(0.000305353 -0.0177954 0.00624105)
(-0.000434324 -0.0167077 0.00677204)
(-0.000328439 -0.0171089 0.00779538)
(-0.000508516 -0.0164782 0.00734767)
(0.00079412 -0.0168339 0.00590287)
(-0.000753071 -0.0159524 -0.00787593)
(-0.000407036 -0.016122 -0.00816192)
(0.000304759 -0.0160715 -0.0076584)
(0.00184971 -0.0191035 -0.00682574)
(0.000700403 -0.0172697 -0.00704602)
(0.000322461 -0.0173854 -0.00812225)
(0.00221153 -0.022487 -0.00314583)
(0.00153121 -0.02296 -0.00162485)
(0.0022105 -0.0218994 -0.0015472)
(0.00227677 -0.0224782 -0.000469961)
(0.0021984 -0.0226692 -0.000608654)
(0.00213975 -0.022984 -0.00292697)
(0.000946369 -0.0252131 5.24527e-05)
(-0.000664292 -0.0253296 0.00190197)
(0.000133988 -0.0253788 0.00183514)
(0.000401399 -0.0248956 0.000165982)
(0.00107897 -0.0245577 0.000831582)
(-0.000575754 -0.0268098 0.00117214)
(-0.000721138 -0.0180949 -0.0098972)
(-0.000646896 -0.020461 -0.00919244)
(0.000144471 -0.0206137 -0.00868223)
(-0.000126635 -0.0189049 -0.00979557)
(-0.000669751 -0.0180452 -0.00965667)
(0.000441382 -0.0204066 -0.00927159)
(0.000952793 -0.0217292 -0.00695996)
(0.00181657 -0.0222708 -0.00489124)
(0.00152254 -0.0213963 -0.00609863)
(0.00125542 -0.0223881 -0.0059501)
(0.00194684 -0.0228016 -0.00532554)
(0.00108762 -0.0214087 -0.00726465)
(0.00103741 -0.0226007 -0.00464896)
(0.00209811 -0.0246329 -0.00316763)
(0.000214389 -0.0251701 -0.00314945)
(0.00040331 -0.0239829 -0.00426997)
(0.00124251 -0.0236935 -0.00371796)
(-0.00434539 -0.0094094 -0.00332193)
(-0.00498644 -0.00920865 -0.00347387)
(-0.00398415 -0.0104161 -0.00436735)
(-0.00402634 -0.0104212 -0.00404006)
(-0.00492375 -0.0102993 -0.00394875)
(-0.00493582 -0.00910895 -0.00312166)
(-0.00205825 -0.0105617 -0.00200753)
(-0.000761391 -0.0123863 -0.00200312)
(-0.00190347 -0.0109477 -0.00263241)
(-0.000483622 -0.0124048 -0.00233973)
(-0.00132041 -0.0108993 -0.00195415)
(-0.0015659 -0.0122729 -0.00251396)
(0.00370298 -0.0184071 0.00779292)
(0.0027555 -0.0181159 0.00612339)
(0.00377607 -0.019134 0.0067878)
(0.00293771 -0.0190743 0.00885901)
(0.00308408 -0.0185272 0.00896704)
(0.0023332 -0.0193137 0.00954759)
(0.00355695 -0.0174842 0.00645375)
(0.00319378 -0.0174794 0.00337165)
(0.00332894 -0.0179512 0.00410136)
(0.00260651 -0.0180669 0.00204084)
(0.00267928 -0.0161941 0.00107138)
(-0.0030403 -0.00953694 -0.00214119)
(-0.00115675 -0.0113382 -0.00390853)
(-0.00240989 -0.0117398 -0.0035231)
(-0.00247035 -0.0104356 -0.0023254)
(-0.00145698 -0.0110866 -0.00301907)
(-0.00268663 -0.010053 -0.00305716)
(2.21154e-06 -0.0146511 -0.00269141)
(-5.11097e-05 -0.0132429 -0.00335401)
(-0.000191109 -0.0131287 -0.00301262)
(0.000926771 -0.0149898 -0.00213774)
(0.00102928 -0.0154549 -0.00238089)
(0.000178578 -0.0143966 -0.00242185)
(0.00372797 -0.0178846 -0.000393294)
(0.00384187 -0.0186117 0.00202173)
(0.00349997 -0.0187399 0.00133377)
(0.00387353 -0.0188796 -0.000160389)
(0.00407439 -0.0186675 0.000916083)
(-0.00604192 -0.0105793 -0.00620162)
(-0.00640339 -0.00997377 -0.00537165)
(-0.00581958 -0.011386 -0.00698505)
(-0.00623148 -0.0105869 -0.00602933)
(-0.00657658 -0.0102695 -0.005744)
(-0.00595815 -0.0114479 -0.00651613)
(-0.00582715 -0.00699626 -0.00360326)
(-0.00646484 -0.00818954 -0.00429402)
(-0.00662205 -0.00789839 -0.00396986)
(-0.00601566 -0.00718645 -0.00315177)
(-0.00603415 -0.00796559 -0.00404164)
(-0.00677259 -0.00757976 -0.00373684)
(-0.00335242 -0.0156092 0.0151066)
(-0.000336768 -0.0180546 0.0142911)
(-0.00330733 -0.0163558 0.0161905)
(-0.0011081 -0.0161069 0.0154058)
(-0.00258268 -0.0174613 0.0155537)
(-0.0100079 -0.0141211 0.0161064)
(-0.0106802 -0.0134673 0.0154092)
(-0.00586201 -0.0149441 0.0153626)
(-0.00691842 -0.0148309 0.0155375)
(-0.00785558 -0.0143547 0.0160761)
(-0.0100826 -0.0143318 0.0147708)
(-0.0106688 -0.0144625 0.0155647)
(-0.00896403 -0.0144152 0.0148443)
(-0.00950313 -0.0144109 0.0155995)
(-0.0109683 -0.0145916 0.0145729)
(-0.00860507 -0.0143558 0.0153395)
(-0.00029377 -0.0170934 0.00810845)
(-0.00158562 -0.0176801 0.00952605)
(-0.00111282 -0.0160232 0.009542)
(-0.00300429 -0.0152873 0.0102914)
(-0.00286885 -0.0161573 0.0109189)
(-0.00122049 -0.0162735 0.00970818)
(-0.0027702 -0.0165624 0.0102268)
(-0.00293632 -0.0162609 0.00959376)
(-0.00599959 -0.0159057 0.0112808)
(-0.00800427 -0.0171042 0.0107958)
(-0.00736963 -0.0172598 0.0108503)
(-0.0044786 -0.016258 0.0109787)
(-0.00508268 -0.0158739 0.0110809)
(-0.00624269 -0.0167618 0.0106235)
(-0.00745211 -0.0166438 0.011115)
(-0.00573328 -0.0167992 0.011248)
(-0.00473073 -0.014716 0.0113777)
(-0.00431797 -0.0154675 0.011787)
(-0.00309588 -0.0166566 0.0121767)
(-0.00603514 -0.01548 0.0130542)
(-0.00704675 -0.01633 0.0138)
(-0.00626195 -0.0142793 0.011781)
(-0.00749471 -0.0157651 0.0125525)
(-0.00469528 -0.0157667 0.0128274)
(-0.0129539 -0.0255912 0.00408871)
(-0.0126927 -0.0255592 0.00356276)
(-0.0129754 -0.0278222 0.00317872)
(-0.0122199 -0.0272193 0.00213756)
(-0.0122318 -0.0245603 0.00313329)
(-0.0130872 -0.0281341 0.0028596)
(-0.0120722 -0.0247377 0.00280258)
(-0.0115523 -0.023204 0.00283206)
(-0.0118667 -0.0253625 0.00168054)
(-0.011817 -0.0252422 0.00198923)
(-0.0111532 -0.0246638 0.000744842)
(-0.012143 -0.0248888 0.00244307)
(-0.0117149 -0.0202684 0.00707972)
(-0.0115736 -0.0200721 0.00871314)
(-0.0102744 -0.0183485 0.00841004)
(-0.0120063 -0.0201482 0.0078788)
(-0.0104572 -0.0187664 0.00734289)
(-0.0105618 -0.030953 0.00262138)
(-0.0106136 -0.0315652 0.00388006)
(-0.00929285 -0.0315204 0.00226326)
(-0.00893465 -0.0307255 0.00141406)
(-0.0111828 -0.0320296 0.00356014)
(-0.00919751 -0.0300671 0.00282596)
(-0.0135359 -0.0336541 0.00769781)
(-0.012909 -0.0339123 0.00564486)
(-0.0108098 -0.0319086 0.00445333)
(-0.012138 -0.0331537 0.00621646)
(-0.0105884 -0.0305621 0.00562452)
(-0.0105616 -0.0323186 0.00508378)
(-0.0141885 -0.017762 0.0104162)
(-0.0147417 -0.0188656 0.0116736)
(-0.0138133 -0.0186243 0.00936432)
(-0.0146356 -0.0195662 0.00950176)
(-0.0163261 -0.0209539 0.0113214)
(-0.0155196 -0.0213246 0.00930911)
(-0.015874 -0.0185226 0.0118835)
(-0.0148735 -0.0183897 0.00974777)
(-0.0153363 -0.0183022 0.0106487)
(-0.0143799 -0.0182154 0.00947097)
(-0.0145129 -0.0176312 0.00925403)
(-0.0164189 -0.0203898 0.0104184)
(-0.015548 -0.0193811 0.00941491)
(-0.0168114 -0.0209559 0.00977602)
(-0.017458 -0.026225 0.00911369)
(-0.0140452 -0.0173785 0.0100965)
(-0.015424 -0.0251835 0.00723593)
(-0.0142877 -0.0260105 0.00631943)
(-0.016389 -0.0265631 0.00807824)
(-0.0154839 -0.0264947 0.00776594)
(-0.0169295 -0.0271958 0.00861111)
(-0.0154318 -0.0239421 0.00759689)
(-0.0154002 -0.0244258 0.00729885)
(-0.0146041 -0.0209047 0.00808355)
(-0.0138835 -0.0193206 0.00854657)
(-0.0152573 -0.0218506 0.00893507)
(-0.0115565 -0.0228199 0.00385758)
(-0.000200591 -0.0163782 0.00974312)
(-0.00144248 -0.0162413 0.0104578)
(-0.00164075 -0.0162351 0.0116124)
(-0.00848962 -0.0162564 0.0117369)
(-0.00614683 -0.0146541 0.0120709)
(-0.00812157 -0.0161338 0.0121122)
(-0.00720782 -0.0154425 0.01164)
(-0.00762628 -0.0157701 0.0111218)
(-0.00438958 -0.0164305 0.0101837)
(-0.000738313 -0.0170266 0.0101897)
(6.45647e-06 -0.0175015 0.00958621)
(-0.00890635 -0.0141296 0.0158332)
(-0.0112156 -0.0139532 0.0152894)
(-0.00775434 -0.0150735 0.0153409)
(-0.00685917 -0.0148256 0.014875)
(-0.00551789 -0.0159246 0.0151206)
(-0.00512438 -0.0165854 0.0160683)
(-0.00825768 -0.0144603 0.0145724)
(-0.00703685 -0.0145705 0.0147501)
(-0.00581879 -0.00844942 -0.00491123)
(-0.0057199 -0.00776204 -0.00427122)
(-0.0053181 -0.0113906 -0.00722033)
(-0.00526655 -0.0109052 -0.00715029)
(-0.0071624 -0.0078935 -0.00326398)
(-0.00788316 -0.00931527 -0.00339304)
(-0.00656151 -0.00947121 -0.0048257)
(-0.00716372 -0.00906713 -0.00373084)
(-0.00706892 -0.0095198 -0.00422506)
(-0.0076984 -0.00898262 -0.00338309)
(-0.00755753 -0.00819579 -0.00311879)
(-0.0076828 -0.00753563 -0.00298607)
(0.00303335 -0.0197278 0.00173777)
(0.00361635 -0.0184301 0.00295072)
(0.00251485 -0.0193065 0.00338221)
(0.00354818 -0.0187404 0.00181169)
(0.00361636 -0.0197704 0.00132073)
(0.00241994 -0.0212747 -0.00570048)
(0.00181782 -0.021718 -0.00671079)
(0.00168638 -0.020594 -0.00796864)
(0.00127685 -0.0202718 -0.00868666)
(0.000343035 -0.0190895 -0.00898791)
(-0.00546369 -0.0224359 0.00579059)
(-0.00381693 -0.0213625 0.0060475)
(-0.00120475 -0.0241821 0.00349317)
(-0.00167575 -0.0229064 0.00431962)
(-0.00222731 -0.023659 0.00504542)
(-0.00377753 -0.0232562 0.005719)
(-0.00240585 -0.0223942 0.00548889)
(-0.0022731 -0.0211743 0.005161)
(-0.00284909 -0.0200316 0.00592612)
(-0.00341162 -0.0209882 0.00662515)
(-0.0116387 -0.0153337 0.00429356)
(-0.0110989 -0.0144691 0.0043334)
(-0.0116344 -0.015304 0.00506729)
(-0.011761 -0.0172775 0.00588532)
(-0.01173 -0.0181134 0.00626809)
(-0.0112787 -0.0165839 0.00549067)
(-0.0132825 -0.0199975 0.00809999)
(-0.0123577 -0.0206384 0.00875257)
(-0.0125572 -0.0196673 0.00757281)
(-0.0135937 -0.0251056 0.0105766)
(0.00359578 -0.0176872 0.00794667)
(0.00381837 -0.0179946 0.00548807)
(0.00268667 -0.0184852 0.00450494)
(0.0034345 -0.0181097 0.00391538)
(0.00274079 -0.0180234 0.00255931)
(0.00413912 -0.019365 0.00490794)
(0.00239649 -0.0182575 0.00445144)
(0.00249029 -0.0206264 0.00795909)
(0.00440953 -0.0181157 0.0059202)
(0.00263849 -0.0196154 0.00741862)
(0.00308995 -0.0179067 0.0086021)
(-0.00319953 -0.00929634 -0.00319692)
(-0.00116489 -0.0126486 -0.0029531)
(-0.00140762 -0.0111219 -0.0017463)
(-0.00533029 -0.00730248 -0.000143716)
(-0.00508551 -0.00775535 -0.00087377)
(-0.00519503 -0.00766997 -0.000323104)
(-0.00315444 -0.00939971 -0.00284994)
(-0.00474713 -0.00796098 -0.00103608)
(-0.00368488 -0.00860293 -0.00192339)
(-0.00327421 -0.0104251 -0.003937)
(-0.00287415 -0.0122382 -0.00534677)
(-0.00296373 -0.0121213 -0.00493875)
(-0.0031292 -0.0104502 -0.00440833)
(-0.00370841 -0.012059 -0.00512142)
(-0.00412392 -0.00971777 -0.00281499)
(-0.00399001 -0.00963123 -0.00293251)
(-0.00458042 -0.00925301 -0.00262895)
(-0.00459189 -0.00796971 -0.00130467)
(-0.0041648 -0.00823329 -0.00174011)
(-0.00410279 -0.00836632 -0.00223647)
(-0.00479625 -0.00862993 -0.00234359)
(-0.00480254 -0.00843937 -0.00201499)
(-0.00540965 -0.00872798 -0.00223158)
(-0.00531036 -0.00860672 -0.00233817)
(-0.00865322 -0.00984332 0.000512609)
(-0.0106289 -0.0119942 0.00233707)
(-0.00848733 -0.00948408 0.000655209)
(-0.00737362 -0.00868547 -0.000823245)
(-0.00862791 -0.00973166 3.12094e-05)
(-0.00749051 -0.00869724 0.00133397)
(-0.00761521 -0.00899182 0.00173765)
(-0.00715462 -0.00844393 0.000515915)
(-0.00716277 -0.00848355 0.00025575)
(-0.00691359 -0.00850479 -0.000710321)
(-0.0058469 -0.00857619 -0.0014775)
(-0.00731715 -0.00903919 -0.000341505)
(-0.00731012 -0.00908605 -0.000383672)
(-0.0077644 -0.00903539 -0.000298673)
(-0.00737728 -0.00868013 -0.000265969)
(-0.00604784 -0.00843524 -0.0015821)
(-0.00656171 -0.00865229 -0.000983399)
(-0.00657035 -0.00843659 -0.00126872)
(-0.00803393 -0.00920132 0.000674299)
(-0.00840525 -0.0097117 0.00120456)
(-0.00807882 -0.00928009 0.000655183)
(0.00132184 -0.0202658 -0.0084747)
(-0.00194325 -0.018211 -0.00962383)
(-0.000125511 -0.0238938 0.0027617)
(0.00192833 -0.0247238 -0.00412114)
(0.0018721 -0.023766 0.000779654)
(0.00168159 -0.0203052 -0.00820964)
(0.00164839 -0.0188746 -0.00790512)
(-0.00237672 -0.014753 -0.00813236)
(-0.00147663 -0.0159735 -0.00835476)
(-2.11028e-05 -0.0171102 -0.00891025)
(-0.00105277 -0.016163 -0.00873231)
(-0.000122527 -0.0187008 -0.00895667)
(0.000687874 -0.0193427 -0.0083733)
(0.000116145 -0.0177091 -0.00915631)
(0.000470718 -0.0194477 -0.0086483)
(0.00291178 -0.0182848 0.00357827)
(0.00181185 -0.0183625 0.00484134)
(0.00168982 -0.0189247 0.00480433)
(0.00118482 -0.0190989 0.00556279)
(0.000741647 -0.01827 0.00574906)
(0.000959565 -0.0186185 0.00566859)
(0.000431072 -0.0175317 0.00622003)
(-0.0010822 -0.0178095 0.00685564)
(0.000742116 -0.0160897 -0.00302903)
(-0.000910211 -0.0139887 -0.00629094)
(0.000225929 -0.0166251 -0.00556578)
(-7.07429e-05 -0.0156884 -0.00475154)
(-0.000452528 -0.0151318 -0.00577208)
(-0.00125719 -0.0144155 -0.00603409)
(-0.00225817 -0.0137344 -0.00563134)
(-0.00260297 -0.0137493 -0.00526351)
(-0.00165494 -0.0140476 -0.0050284)
(-0.000871279 -0.0150858 -0.00517643)
(-0.000324435 -0.0151151 -0.00599618)
(0.000332148 -0.0158386 -0.0052178)
(-0.000139013 -0.0151968 -0.00635179)
(-6.76638e-05 -0.0159718 -0.0071938)
(0.00122347 -0.0172717 -0.00518601)
(0.00186569 -0.0174215 -0.00453746)
(0.00340162 -0.0177082 -0.00268378)
(0.00341734 -0.0199321 -0.00134486)
(0.00231184 -0.0183046 -0.00353873)
(0.00276431 -0.0182671 -0.00375631)
(0.00124593 -0.0168708 -0.00357938)
(0.00112968 -0.0165677 -0.00390929)
(0.00116353 -0.0162015 -0.00491508)
(0.000966292 -0.0161752 -0.00459283)
(0.00185905 -0.0168548 -0.00296817)
(0.00297312 -0.0180143 -0.00249921)
(0.00191271 -0.0174882 -0.00294663)
(0.00158498 -0.0175515 -0.00615798)
(0.0014274 -0.0183457 -0.00750743)
(0.0018958 -0.0190324 -0.00664823)
(0.00273449 -0.0190355 -0.00451021)
(0.00355229 -0.0201256 -0.00279691)
(0.00267091 -0.0205548 -0.00500224)
(0.00261264 -0.0202834 -0.0060869)
(0.00292267 -0.0202046 -0.0035709)
(0.00282325 -0.0208362 -0.00375488)
(0.00326631 -0.0190499 0.00179431)
(0.00285337 -0.0187309 0.00269042)
(0.00315086 -0.0200749 -0.00143877)
(0.00375809 -0.0202998 -0.00337336)
(0.00350755 -0.0210323 -0.0013124)
(0.00346207 -0.0196483 0.000415086)
(0.00382836 -0.0194823 -0.00251748)
(0.00331962 -0.0192841 0.000481593)
(0.00290042 -0.0199425 -0.000750245)
(0.003034 -0.0204822 -0.00119792)
(0.000898129 -0.0168245 -0.00264376)
(0.000871368 -0.0162594 -0.00262541)
(0.00215215 -0.0174655 -0.000987848)
(0.00201608 -0.016015 -0.00182456)
(0.00155978 -0.017061 -0.00168435)
(0.00333135 -0.0182103 -0.00129191)
(0.00142081 -0.0162432 -0.00191521)
(0.00258269 -0.0173323 -0.00140511)
(0.00249106 -0.0187417 -0.000387149)
(0.00181154 -0.0175097 -0.00225547)
(0.00277746 -0.0184865 -0.00083706)
(0.00366472 -0.0181403 -0.000395405)
(0.0027816 -0.0185039 -0.00119073)
(0.0030199 -0.0170385 -0.00230204)
(0.0028297 -0.0168277 -0.0020134)
(0.0032784 -0.0181511 0.0011366)
(0.00239256 -0.0184407 0.00467979)
(0.00425749 -0.0192929 0.0017028)
(0.00319109 -0.0194732 0.00350202)
(0.00294 -0.0196317 0.00413152)
(0.0035946 -0.0185836 0.00338147)
(0.00353789 -0.0191122 0.00431419)
(0.00337218 -0.0184881 0.00552948)
(0.00322562 -0.0183216 0.00065633)
(0.00382429 -0.0180983 0.00298177)
(0.00364039 -0.0191312 0.00177418)
(0.00337045 -0.0191195 0.00683598)
(0.00330156 -0.0174502 0.00461134)
(0.00300458 -0.0176612 2.73097e-05)
(0.0027821 -0.019121 0.00137982)
(0.00280619 -0.0179696 0.000544301)
(0.00358919 -0.0179999 0.00198364)
(0.00337 -0.0178675 0.00686426)
(-0.00154366 -0.0146993 -0.00767667)
(-0.00266173 -0.0145381 -0.007747)
(-0.00594776 -0.0215302 0.00592417)
(-0.00589406 -0.0230919 0.00588232)
(-0.00541664 -0.0219259 0.0070028)
(-0.00383245 -0.0203852 0.00692797)
(-0.00552383 -0.0204639 0.00684191)
(-0.00504269 -0.0196875 0.00759021)
(-0.0013366 -0.0178509 0.00766512)
(0.00102917 -0.0185411 0.00491779)
(0.000872702 -0.0185415 0.00515001)
(0.00147486 -0.0194004 0.00373043)
(0.00142365 -0.0190273 0.00442597)
(0.0014097 -0.0187704 0.00424153)
(0.00263469 -0.0201145 0.00117402)
(0.00276884 -0.0189377 0.00143406)
(0.00225429 -0.0193195 0.00286713)
(0.00251135 -0.0192371 0.00193877)