/*--------------------------------*- C++ -*----------------------------------*\
| =========                 |                                                 |
| \\      /  F ield         | OpenFOAM: The Open Source CFD Toolbox           |
|  \\    /   O peration     | Version:  v1612+                                |
|   \\  /    A nd           | Web:      www.OpenFOAM.com                      |
|    \\/     M anipulation  |                                                 |
\*---------------------------------------------------------------------------*/
FoamFile
{
    version     2.0;
    format      ascii;
    class       volVectorField;
    location    "100";
    object      wallShearStress;
}
// * * * * * * * * * * * * * * * * * * * * * * * * * * * * * * * * * * * * * //

dimensions      [0 2 -2 0 0 0 0];

internalField   uniform (0 0 0);

boundaryField
{
    WALL
    {
        type            calculated;
        value           nonuniform List<vector> 
60385
(
(0.00546853 -0.010727 0.00428359)
(0.00521844 -0.00981749 0.0037457)
(0.0153257 0.00693224 0.00475655)
(0.00548487 -0.0110757 0.00464646)
(0.00526396 -0.0106969 0.0045253)
(0.0152908 -0.0278186 -0.000194347)
(0.0151429 -0.0274274 -6.13288e-05)
(0.0107857 -0.00345935 0.00141455)
(0.0113318 -0.00357027 0.00170518)
(0.00677584 0.00556273 0.0190931)
(0.00551605 0.00463296 0.0191456)
(0.0119624 0.00547409 0.0113)
(0.0124125 0.00546205 0.0120215)
(0.0126959 0.00800295 0.00374114)
(0.0126691 0.0079564 0.00227158)
(0.0138326 0.0060073 0.00280871)
(0.0144907 0.00620275 0.00231489)
(-0.0117748 -0.0221202 -0.0115114)
(-0.0124404 -0.0215029 -0.0117469)
(-0.0146916 -0.00984301 0.0145183)
(-0.0142656 -0.00858379 0.0122735)
(-0.0111244 0.0406376 0.00169179)
(-0.00999761 0.039286 -0.000134579)
(-0.00319809 0.0270238 0.0210023)
(-0.00299835 0.0296876 0.0207167)
(-0.00654198 -0.0211932 -0.00560809)
(-0.00717134 -0.0207278 -0.00716521)
(0.00735393 -0.00178726 0.00449362)
(0.00655863 -0.0023934 0.00462139)
(0.0146675 -0.0166472 0.0012949)
(0.0151009 -0.0127011 0.00187798)
(0.00859187 0.00367129 0.00929879)
(0.00937887 0.000844938 0.0106455)
(0.000991508 0.00250289 0.0108862)
(0.00184917 0.00165449 0.0118797)
(-0.0133552 -0.0263492 0.0155383)
(-0.01371 -0.0255482 0.0145231)
(0.00476989 -0.00953812 0.00394801)
(0.00539293 -0.0103425 0.00408737)
(0.00635401 -0.0124974 0.00501272)
(0.00649254 -0.0123896 0.00468366)
(0.00523416 -0.0104707 0.00427026)
(0.00503157 -0.0104622 0.00453038)
(0.00479892 -0.0100817 0.00445924)
(0.00509163 -0.0104335 0.00442575)
(-0.00564793 -0.00725154 0.00128044)
(-0.00448498 -0.00651846 0.00146131)
(0.010906 -0.010137 0.0113949)
(0.0105851 -0.0105572 0.010609)
(0.00508416 -0.0106112 0.00461672)
(0.00532406 -0.0106227 0.00425323)
(-0.0194364 0.0198537 0.00199226)
(-0.0203353 0.0175478 0.00151352)
(-0.00617334 -0.00533153 -0.00474687)
(-0.00578556 -0.00471885 -0.00422955)
(0.00542387 -0.00870942 -0.000744479)
(0.00529219 -0.00811965 -6.24288e-05)
(-0.00142188 -0.0210037 -0.0113258)
(-0.00192157 -0.0230078 -0.010325)
(-0.00315307 -0.0232162 -0.0074883)
(-0.0031754 -0.0235697 -0.0097885)
(0.00492702 -0.0101681 0.00432583)
(0.00513429 -0.0103821 0.0042947)
(0.00492875 -0.0100189 0.00457031)
(0.00503914 -0.010376 0.00400117)
(0.00458782 -0.0270293 -0.0138511)
(0.00545484 -0.0249477 -0.01474)
(0.0184348 -0.0256436 -0.0109413)
(0.0197306 -0.0225137 -0.0142085)
(0.00494267 -0.0100108 0.00424649)
(0.00473786 -0.00951894 0.0038911)
(0.00730344 -0.0146477 0.00618065)
(0.00712832 -0.0139098 0.00588602)
(0.00578978 -0.0118768 0.00492624)
(0.00607433 -0.0120444 0.00497813)
(0.00610216 -0.0125131 0.00531821)
(0.006314 -0.0126143 0.00533672)
(0.00830519 -0.0151946 0.00612872)
(0.00792067 -0.015627 0.00653689)
(0.00457056 -0.00949518 0.00403971)
(0.00482528 -0.00966994 0.00411292)
(0.00555364 -0.0113628 0.00521314)
(0.00572924 -0.0114671 0.00463608)
(0.00511878 -0.0105251 0.00428765)
(0.00522227 -0.0104411 0.00415131)
(0.00616338 -0.0118125 0.00508194)
(0.00534595 -0.0108006 0.00452567)
(0.00485338 -0.0101597 0.00430375)
(0.00529954 -0.0102653 0.00428624)
(-0.00355827 -0.00724051 0.00347809)
(-0.00293975 -0.00629779 0.00290566)
(-0.0213057 -0.0293236 0.00866872)
(-0.0203242 -0.0307202 0.00950571)
(-0.00708484 -0.0192527 0.00947522)
(-0.00874823 -0.0224054 0.0108862)
(0.00922985 -0.0136622 0.0133488)
(0.0105028 -0.0148485 0.0121154)
(0.0186175 -0.0248602 0.00292295)
(0.0223456 -0.0246873 0.000926566)
(0.0157084 -0.0104633 0.00430389)
(0.012632 -0.00936731 0.00291414)
(0.00932941 -0.0152589 0.00469436)
(0.00689071 -0.0158328 0.00555304)
(0.0049701 -0.00990861 0.00404114)
(0.00479027 -0.0102924 0.00447147)
(0.0050255 -0.0102581 0.00417008)
(0.00505372 -0.0100465 0.00410119)
(0.00544959 -0.0104119 0.00431246)
(0.00582951 -0.0108794 0.00437884)
(0.0320874 -0.0687011 0.0221244)
(0.0530161 -0.14026 0.0314587)
(0.0179447 -0.020162 0.00329794)
(0.0175324 -0.0224862 0.00542081)
(0.00265783 0.00246425 0.00924634)
(0.0038153 0.00132881 0.010065)
(0.0128832 0.0050585 0.0228965)
(0.0167561 0.00298563 0.0256061)
(0.0201182 0.00584216 0.00890929)
(0.0207652 0.00494007 0.00956939)
(0.0194067 0.00584862 0.0101012)
(0.0200357 0.0069447 0.0106123)
(0.00839034 0.000192158 0.0105878)
(0.00802843 -0.000641776 0.0123783)
(0.0108049 0.00249659 0.00877363)
(0.00994716 0.0025317 0.00775525)
(0.0103591 -0.000791152 0.00809064)
(0.0101365 -0.000467421 0.00680061)
(0.00692 -0.000908361 0.00719932)
(0.00660341 -0.00105041 0.00698984)
(0.0235006 0.00174514 0.00521069)
(0.0251245 0.000191125 0.00566286)
(0.00148609 -0.0170657 -0.0123519)
(0.00136424 -0.0175571 -0.0124359)
(0.0250062 -0.00164017 0.0129542)
(0.0273855 0.00166968 0.0157459)
(-0.00258421 0.00558683 0.0118347)
(-0.00300525 0.00576807 0.0110601)
(0.00193619 -0.00840229 -0.00875282)
(0.00253432 -0.00829967 -0.00893056)
(-0.0128361 0.0023329 0.0106446)
(-0.0131715 0.00196383 0.0108037)
(-0.0146847 -0.00565335 0.013789)
(-0.0145069 -0.003647 0.0125937)
(-0.0131569 0.00275757 0.0109607)
(-0.0137428 0.000935956 0.0116583)
(0.00276987 0.00122637 -0.000650141)
(-0.00029957 0.00261919 0.00263719)
(-0.00411691 -0.017944 -0.00692374)
(-0.00406756 -0.0164158 -0.0079666)
(-0.0213443 0.0391674 0.0167401)
(-0.0249437 0.036189 0.012825)
(-0.0190891 0.024995 0.0142849)
(-0.019484 0.0337027 0.00812464)
(-0.0272331 0.0125945 0.00207593)
(-0.0273323 0.012657 0.00205978)
(-0.0115406 -0.0162436 -0.00435826)
(-0.0110458 -0.0173962 -0.00455466)
(-0.00243578 -0.00513611 -0.00628445)
(-0.00262263 -0.00491736 -0.00604192)
(-0.00832351 -0.0128107 0.00312072)
(-0.0082223 -0.0133194 0.00301076)
(-0.00555667 -0.00950461 -0.00891159)
(-0.00524764 -0.00898475 -0.00826464)
(-0.00670276 -0.00950082 0.00272037)
(-0.00642647 -0.00904262 0.00244622)
(-0.0136683 -0.0181512 0.00669979)
(-0.0143455 -0.0191754 0.00804852)
(-0.0135477 -0.0184879 0.00808029)
(-0.0141375 -0.0185572 0.007925)
(-0.011561 -0.023861 -0.011613)
(-0.00950661 -0.0209781 -0.00891792)
(-0.0102846 -0.0219677 -0.0109971)
(-0.0117995 -0.0233399 -0.0123153)
(-0.00661909 -0.00987502 0.0032293)
(-0.00655626 -0.00978151 0.00316485)
(-0.00637965 -0.00911418 0.00284262)
(-0.00584599 -0.00841501 0.00236834)
(-0.00674098 -0.00974612 0.00294855)
(-0.00669404 -0.0104411 0.00364378)
(-0.00672303 -0.0105784 0.00365153)
(-0.00639553 -0.00977283 0.00313914)
(-0.00720128 -0.010105 0.00327058)
(-0.0071348 -0.0109713 0.00324001)
(-0.00713291 -0.0104609 0.00336497)
(-0.00636215 -0.00953818 0.00321775)
(-0.0073679 -0.010566 0.00317677)
(-0.0065025 -0.00972808 0.00301454)
(-0.00703878 -0.010206 0.00318612)
(-0.00707354 -0.0105717 0.00314637)
(-0.00656136 -0.00994759 0.00300164)
(-0.00653583 -0.00997362 0.0029971)
(-0.00694645 -0.0103333 0.00333503)
(-0.00646324 -0.00996565 0.00245415)
(-0.00567764 -0.00821558 0.00242002)
(-0.006265 -0.00884092 0.00254968)
(-0.00682939 -0.0105394 0.00295432)
(-0.00694729 -0.0109326 0.00305204)
(-0.00814354 -0.0124248 0.00359629)
(-0.00735231 -0.0122278 0.00270883)
(0.00397702 -0.000655101 0.0211578)
(0.00218931 0.00179823 0.0204728)
(0.0098319 0.00470572 0.00331097)
(0.0106563 0.00481985 0.00358507)
(0.0175152 0.00861069 0.00538059)
(0.0160287 0.00698279 0.00410374)
(0.0176599 0.00463892 0.00923439)
(0.0178866 0.00450057 0.00903533)
(0.0126452 0.00902791 0.00885739)
(0.0142646 0.00777817 0.00898673)
(0.0105352 0.00388132 0.0110229)
(0.0101623 0.00261697 0.0106574)
(0.00827568 0.00130133 0.00520564)
(0.00878974 0.00229698 0.00494609)
(0.0218699 0.00660219 0.0109971)
(0.0225087 0.00795359 0.0112558)
(0.0107461 0.00820335 0.0101643)
(0.0107771 0.00817298 0.00976687)
(0.0108651 0.0062959 0.0112734)
(0.0102816 0.00638178 0.0116894)
(0.0168854 0.00450444 0.0157051)
(0.0157194 0.00405583 0.0153944)
(0.0157032 0.00203794 0.0118749)
(0.017245 0.00409651 0.0111915)
(-0.00028366 -0.00603884 0.0121379)
(0.000869652 -0.0047527 0.0103041)
(0.00539608 -0.00425444 0.00286337)
(0.00482833 -0.00441672 0.00370499)
(0.00542886 -0.0104013 0.00412464)
(0.00492552 -0.0099583 0.00420876)
(0.00483254 -0.0099986 0.00447454)
(0.00500094 -0.0102728 0.0042703)
(0.00270981 -0.014407 -0.012483)
(0.00101994 -0.0135718 -0.0118845)
(-0.00680281 -0.00903549 0.0024845)
(-0.00550625 -0.0084343 0.00263622)
(-0.0096043 -0.0103979 0.00548054)
(-0.0088712 -0.00951613 0.00467341)
(-0.00576423 -0.00962982 0.000353036)
(-0.00625771 -0.00823964 0.00112779)
(-0.000587815 -0.00763122 0.0191179)
(-0.00188857 -0.00833907 0.0173979)
(0.0138741 -0.0291418 -0.00118808)
(0.0136956 -0.0272415 -0.00340333)
(0.0079145 0.00490177 0.00352405)
(0.00761136 0.00584878 0.00359405)
(0.000160618 -0.00290671 0.00430649)
(0.000813026 -0.00385613 0.00389516)
(0.00486834 -0.00951491 0.00396493)
(0.00502748 -0.00985897 0.00398717)
(-0.00901371 -0.0155192 -0.0143459)
(-0.00899527 -0.0157675 -0.0157911)
(-0.00860208 0.00714862 0.0079234)
(-0.00740187 0.00768611 0.0106466)
(-0.0144792 0.0040429 0.00909981)
(-0.0127968 0.00238752 0.0092553)
(0.00540604 -0.0104544 0.00428437)
(0.00535639 -0.0107918 0.00439363)
(0.00478875 -0.00954867 0.00398205)
(0.00466658 -0.00954454 0.00402204)
(0.0177079 -0.0161147 0.00253229)
(0.0169888 -0.0154906 0.00591267)
(-0.0132747 0.0173019 0.00775457)
(-0.0132728 0.0163954 0.00669331)
(-0.0163555 0.0154018 0.00359319)
(-0.0165313 0.0184155 0.00482096)
(0.00518343 -0.0128214 0.0136145)
(0.00520913 -0.0148236 0.0123586)
(0.00726188 -0.0172663 0.0113938)
(0.00795988 -0.014876 0.0138554)
(0.0136432 0.0070449 0.00175037)
(0.0136 0.00655896 0.00227371)
(-0.00684279 -0.00997603 0.00324534)
(-0.00728312 -0.00996091 0.00309808)
(-0.00616607 -0.00853206 0.00183209)
(-0.00600809 -0.00837385 0.00192513)
(-0.0053438 -0.0078724 -0.0027855)
(-0.00564257 -0.00776109 -0.00357524)
(0.00445894 -0.00925036 0.00442075)
(0.00484125 -0.00989929 0.00419894)
(0.0066764 -0.00185371 0.00595231)
(0.00622878 -0.00284188 0.00543643)
(0.00812564 -0.00133034 0.00691934)
(0.0069103 -0.00191596 0.00568735)
(0.00139677 -0.0035032 0.000573437)
(0.00385276 -0.00226662 -0.00214925)
(0.0232878 -0.03031 0.0393528)
(0.0186082 -0.015743 0.0472237)
(0.00532575 -0.0102504 0.00386175)
(0.00528005 -0.0104519 0.00412713)
(0.00567818 -0.010868 0.0042748)
(0.0046657 -0.00994842 0.00434534)
(-0.02983 -0.0186875 -0.00167874)
(-0.0306995 -0.0159039 0.00122343)
(0.00538298 -0.0103472 0.00432549)
(0.00503043 -0.0104338 0.00447197)
(0.00474595 -0.00983266 0.00425038)
(0.00499833 -0.0102801 0.00436952)
(0.00494792 -0.00996067 0.00415916)
(0.00529097 -0.00992374 0.00403166)
(0.00494309 -0.00998974 0.00453341)
(0.00518414 -0.0106997 0.00415435)
(0.00624737 -0.0129174 0.00551133)
(0.00648375 -0.01299 0.00537261)
(0.00529256 -0.0105202 0.00436943)
(0.00514844 -0.0103552 0.00424144)
(0.0054458 -0.0109923 0.00469012)
(0.00556358 -0.011011 0.00448598)
(0.00509835 -0.0110452 0.00454759)
(0.00537268 -0.0101751 0.00475526)
(0.00516316 -0.0103399 0.00435052)
(0.0052761 -0.0102702 0.0041782)
(-0.0211717 -0.0404513 0.0163045)
(-0.0226889 -0.0419935 0.0154349)
(0.00260344 -0.0144749 0.0142359)
(0.00417291 -0.0142126 0.0143936)
(0.00836203 -0.0120357 0.0127967)
(0.00642572 -0.0115945 0.0129962)
(-0.00160196 -0.00410315 0.00254401)
(-0.00163011 -0.00376525 0.00233331)
(0.00502473 -0.0101363 0.00433216)
(0.00527576 -0.0106868 0.00436621)
(0.00527801 -0.0106291 0.00435891)
(0.00490812 -0.010134 0.00450272)
(0.00687353 -0.0134123 0.00551769)
(0.00638491 -0.0133171 0.0056995)
(0.00597466 -0.0121577 0.00534263)
(0.00629628 -0.01234 0.00511495)
(0.00643652 -0.0122204 0.00487852)
(0.00627095 -0.0124816 0.00507101)
(0.0134041 -0.0120717 0.00203241)
(0.0154477 -0.0106989 0.00266402)
(0.0197142 -0.0127847 0.0156101)
(0.0194855 -0.00304542 0.0217535)
(0.0216387 -0.00370264 0.0237636)
(0.0227096 -0.00653395 0.0192569)
(0.0210032 -0.00473977 0.019543)
(0.00191039 0.0041604 0.00739271)
(0.00148162 0.00461574 0.00695048)
(0.00175514 0.00959977 0.0146777)
(-0.000590523 0.00911797 0.0148463)
(0.00633263 0.0104021 0.0187625)
(0.00337808 0.00992024 0.0194548)
(0.00789907 0.00289924 0.00983801)
(0.00941383 0.00341786 0.0110467)
(0.0103067 0.00177632 0.010181)
(0.00959104 0.00105513 0.0121174)
(0.0124096 0.00414699 0.00497235)
(0.0121548 0.00384825 0.00455939)
(0.0148839 -0.0109495 0.00253473)
(0.0147293 -0.00899792 0.00283095)
(0.0122926 -0.0012667 0.0112302)
(0.0141531 -0.00204929 0.0148613)
(0.0129911 -0.0108183 0.00667389)
(0.0117464 -0.00974511 0.00685537)
(-0.00414944 -0.0172653 0.00858958)
(-0.00531858 -0.017945 0.00910769)
(-0.0135492 0.000523057 0.0121286)
(-0.0141214 -0.00184549 0.012567)
(-0.0104664 0.0133594 0.0136312)
(-0.00811463 0.0136209 0.0122032)
(-0.00061525 -0.00147307 -0.00141652)
(0.00100486 -0.00220446 -0.00232428)
(0.000990083 -0.00605433 -0.00682808)
(0.00119994 -0.00620279 -0.00735844)
(-0.00549389 0.0049328 0.0103243)
(-0.00111088 0.0057967 0.0133343)
(-0.010279 0.0316158 0.0127642)
(-0.0115664 0.0355502 0.0125024)
(-0.027679 0.0327791 0.00913897)
(-0.0245455 0.0296655 0.00641636)
(-0.0228844 0.02732 0.0076387)
(-0.0252895 0.0299738 0.0101682)
(-0.0011905 -0.0124132 -0.0117191)
(-0.00300296 -0.0134668 -0.0130336)
(-0.00776807 -0.0118819 0.00412634)
(-0.0078513 -0.0118917 0.00386986)
(-0.0167875 -0.0149382 0.0140887)
(-0.015196 -0.0137974 0.0140336)
(-0.0068801 -0.0104574 0.00324427)
(-0.00703532 -0.0102571 0.00320692)
(-0.00756266 -0.012406 0.00276078)
(-0.00764598 -0.0117766 0.00338993)
(-0.0117354 -0.0111623 0.00879418)
(-0.0128375 -0.0130531 0.0101424)
(-0.00658702 -0.00948511 0.00278424)
(-0.00675082 -0.00959066 0.00285009)
(-0.00639161 -0.00927919 0.00270595)
(-0.00652277 -0.00936532 0.00286373)
(-0.00721724 -0.0110929 0.00299887)
(-0.00775804 -0.0115165 0.00341459)
(-0.00580224 -0.0102454 0.00163102)
(-0.00581797 -0.0100622 0.00214271)
(-0.0088673 -0.0120242 0.00321465)
(-0.00843986 -0.0118729 0.00322924)
(0.0207746 -0.0307114 -0.0253066)
(0.0213741 -0.0292928 -0.0243168)
(0.000982742 0.00266085 0.00207601)
(0.00359697 0.00184282 -0.000526694)
(0.00913425 0.00086351 -0.00706895)
(0.0125005 0.000765032 -0.0118422)
(-0.00776255 -0.00628019 0.0127549)
(-0.00855644 -0.00605141 0.0141369)
(0.00834752 0.00204738 0.00537454)
(0.00762599 0.00209159 0.00546608)
(0.00861493 0.00392234 0.00981044)
(0.00884184 0.00242791 0.0103394)
(0.0201016 0.0065574 0.00734503)
(0.0206133 0.00511403 0.00773373)
(0.0201145 0.00469548 0.00843526)
(0.0206948 0.00448552 0.00830841)
(0.0210324 0.00441579 0.00918878)
(0.0203066 0.00467258 0.00924687)
(0.0127481 0.00485257 0.0110813)
(0.0108085 0.00371673 0.0101205)
(0.00874488 0.00221927 0.00365365)
(0.00925174 0.00205004 0.00373575)
(0.00970468 0.00360121 0.00314068)
(0.0102334 0.00413476 0.00393129)
(0.0100228 0.00613784 0.004806)
(0.00999291 0.00567659 0.00372325)
(0.00873533 0.00353912 0.00383382)
(0.0094251 0.00484965 0.00385602)
(0.0168957 0.00731101 0.00453506)
(0.0132386 0.00490375 0.015399)
(0.0153151 0.00316751 0.0172137)
(0.0124116 0.00486084 0.0144771)
(0.0118749 0.00591225 0.0139772)
(0.00846259 -0.000765248 0.00654152)
(0.00825544 -0.000712826 0.00657926)
(0.0137897 0.00399548 0.0135172)
(0.0138531 0.00458027 0.0132318)
(0.0115424 0.00660084 0.0116564)
(0.010492 0.00554068 0.0107867)
(0.011127 0.00547624 0.0125918)
(0.0106332 0.00603894 0.0120296)
(0.0128972 0.000857131 0.0108546)
(0.0128247 0.000856363 0.011007)
(0.0044091 -0.00419396 0.00914552)
(0.0050256 -0.00399837 0.00923033)
(0.00945664 0.00518315 0.011259)
(0.00823487 0.00462916 0.0112787)
(0.00916082 0.00285947 0.00941205)
(0.0108619 0.00300912 0.0103849)
(0.00801841 -0.0100409 0.00224932)
(0.00899961 -0.00820745 0.00240135)
(-0.00356339 -0.00463003 0.00239289)
(-0.00453907 -0.00551993 0.00278504)
(-0.0036197 -0.00460188 0.00250708)
(-0.00355947 -0.00418524 0.00197238)
(-0.0159015 -0.01474 0.0112144)
(-0.0156151 -0.0156309 0.0113862)
(-0.00397395 -0.00433458 0.00186688)
(-0.00431117 -0.00501288 0.00224076)
(-0.000651378 -0.00796749 0.0113418)
(-0.00123373 -0.00723196 0.0148523)
(0.00524291 0.000600931 0.0190647)
(0.0163985 0.00710732 0.0196588)
(0.0187267 0.00376846 0.0186988)
(-0.000286217 -0.0217472 -0.0130997)
(-0.000118607 -0.0233311 -0.0118614)
(-0.00309838 -0.0270614 0.000312511)
(0.000228208 -0.0265145 0.00259818)
(-0.00155281 -0.0209094 0.00404316)
(-0.000939117 -0.0250855 0.00369602)
(0.0132477 -0.0176374 0.00650489)
(0.0106298 -0.0179498 0.00881488)
(0.0144447 -0.0200258 0.00283121)
(0.0146298 -0.0206283 0.00445086)
(0.00505351 -0.009782 0.00397314)
(0.00504825 -0.0101805 0.00425075)
(-0.00139389 -0.00461934 -0.00493362)
(-0.00149429 -0.00478913 -0.00512306)
(-0.00115627 -0.00539754 -0.00473474)
(-0.00121794 -0.00533385 -0.00453468)
(-0.00263685 -0.00725376 -0.00447452)
(-0.002464 -0.00799889 -0.00524721)
(-0.00499165 -0.010895 -0.0065514)
(-0.00581967 -0.0122422 -0.00718723)
(-0.00112007 -0.00570352 -0.00565247)
(-0.00134787 -0.00460901 -0.00517091)
(0.00513693 -0.00590487 0.00601264)
(0.00535734 -0.00521329 0.00567077)
(0.00470519 -0.0093803 0.00392881)
(0.00497074 -0.0101116 0.00415554)
(-0.00127636 -0.00232093 0.00475303)
(-0.00178441 -0.0022098 0.0050823)
(-0.00335141 -0.00654379 0.0059099)
(-0.00312989 -0.00471861 0.00574295)
(-0.0140664 -0.00497445 0.011649)
(-0.0129154 -0.00265339 0.0137164)
(0.00487158 0.00677142 0.0078061)
(0.00523861 0.00665819 0.00716572)
(0.0144678 -0.0179809 0.00760921)
(0.0153765 -0.0180944 0.00512614)
(5.52635e-05 -0.0174936 -0.00606352)
(-0.000714111 -0.0188964 -0.00603147)
(-0.00365589 -0.0241396 0.00171682)
(-0.0034764 -0.0244428 0.00125408)
(0.0076024 -0.0273265 -0.00570407)
(0.00871569 -0.0258286 -0.00648935)
(0.00495614 -0.0253095 -0.00250967)
(0.00661586 -0.0251522 -0.00424673)
(0.0157094 -0.0275175 -0.00567463)
(0.0162218 -0.0289515 -0.00480256)
(0.000325477 -0.0289272 -0.00345737)
(0.00130955 -0.0279813 -0.00457811)
(0.00244969 -0.0183104 -0.0122823)
(0.00195115 -0.0177158 -0.0124676)
(0.00237976 -0.0110697 0.00852438)
(0.00256752 -0.013335 0.00995473)
(0.00521816 -0.0107607 0.0121462)
(0.00207873 -0.00930579 0.0136337)
(0.000870957 -0.00996339 0.00993274)
(0.00168463 -0.00916804 0.00921461)
(-0.0144988 0.0230807 0.00967282)
(-0.016078 0.0219463 0.0125587)
(-0.0199952 0.0227166 -0.000489901)
(-0.0205601 0.0199952 -0.000645163)
(-0.00494469 -0.00599645 0.00275868)
(-0.00483141 -0.00570975 0.00259)
(-0.00893246 -0.00883074 0.00342405)
(-0.00781246 -0.00764464 0.00223776)
(-0.00869525 -0.00646453 0.000261561)
(-0.00887738 -0.00616353 -0.000937861)
(-0.00925354 -0.00634933 0.00134251)
(-0.00934493 -0.00765095 0.00217588)
(-0.00779178 -0.0066878 -0.00150275)
(-0.00778182 -0.00686799 -0.000218485)
(-0.0206833 -0.0152963 0.00290523)
(-0.0165744 -0.0184042 0.00250221)
(-0.0208952 -0.00913691 0.0257198)
(-0.0180602 -0.00908993 0.0264783)
(-0.0134036 -0.00760875 0.00583461)
(-0.0136353 -0.00651973 0.00397965)
(-0.0159904 -0.00669164 0.00837368)
(-0.0148567 -0.00564598 0.00531637)
(-0.0150676 -0.00821041 0.0203647)
(-0.0155566 -0.00838836 0.015427)
(-0.014867 -0.00552133 0.0162585)
(-0.0150693 -0.0072527 0.0209173)
(-0.0153376 -0.00685695 0.0185469)
(-0.0153829 -0.008626 0.0231908)
(-0.013206 -0.00428418 0.0111127)
(-0.0148981 -0.00598434 0.0142093)
(-0.00671307 -0.0101469 0.00328291)
(-0.00654591 -0.00946393 0.00294808)
(-0.00664326 -0.00996676 0.00322242)
(-0.00668693 -0.00971429 0.00288334)
(-0.00613175 -0.00869609 0.00249961)
(-0.00606073 -0.008572 0.00240753)
(0.00649826 -0.0202843 -0.0194571)
(0.00523287 -0.017406 -0.0159145)
(0.01161 -0.0162275 -0.0177014)
(0.0126308 -0.0182665 -0.0208158)
(-0.00137499 -0.00972478 -0.00934016)
(-0.000113866 -0.0113843 -0.0099311)
(0.0005213 -0.0020111 0.0211263)
(0.0035756 -0.00202584 0.0157839)
(-0.0183528 -0.00987287 0.0146398)
(-0.0179136 -0.0103495 0.0130454)
(0.00519053 -0.0110679 0.0047024)
(0.00529746 -0.010351 0.00444694)
(0.00574262 -0.0104799 0.00416259)
(0.00534149 -0.0108911 0.00440715)
(0.00570441 -0.0114183 0.00460206)
(0.00541013 -0.0103507 0.0041163)
(0.00484958 -0.0102108 0.00457079)
(0.00521011 -0.0103402 0.00427844)
(0.00518719 -0.0104333 0.0042814)
(0.00489125 -0.00993905 0.00423954)
(0.00494801 -0.0100485 0.00422325)
(0.00609345 -0.00333449 0.00321504)
(0.00602327 -0.00289336 0.00367731)
(0.00335296 -0.0098533 0.0150935)
(0.00354699 -0.0100594 0.0148113)
(0.0029513 -0.0114743 0.00982845)
(0.00570432 -0.0110084 0.0156702)
(0.00479772 -0.012522 0.0152232)
(0.00432335 -0.0127836 0.0105937)
(0.00584481 -0.0130565 0.0147147)
(0.0103927 -0.0155604 0.0172224)
(0.00897933 -0.0171551 0.0139717)
(0.0112968 -0.00692485 0.000664539)
(0.0116322 -0.00812231 0.00120679)
(0.00861582 -0.012863 0.00357745)
(0.00900432 -0.0130627 0.00267217)
(0.0124851 -0.0142814 0.0017281)
(0.0119418 -0.0111477 0.00197555)
(0.000651328 -0.00683233 0.00993006)
(0.000111288 -0.00825514 0.00871269)
(0.00439631 -0.00183585 0.00450934)
(0.00454922 -0.00127266 0.00432386)
(0.0113516 0.00558776 0.011545)
(0.0106782 0.00572161 0.0119441)
(0.00219211 -0.00402221 0.0108193)
(0.00289131 -0.00427579 0.0110049)
(0.00155802 -0.00435017 0.00833067)
(0.00164203 -0.00345062 0.00954723)
(0.00305099 -0.00414182 0.00888567)
(0.00242349 -0.0042541 0.00904943)
(0.00563571 2.62092e-05 0.00760554)
(0.00547988 0.00168951 0.0117975)
(0.00590588 0.00140754 0.00958022)
(0.00509718 -8.71473e-05 0.00583394)
(0.00531667 0.000562392 0.00666461)
(0.0053239 -0.0013805 0.0122969)
(0.00676446 -0.00112352 0.0127986)
(0.00965561 -0.00163677 0.0121047)
(0.00980229 -0.00173984 0.0112923)
(0.0130992 0.00169875 0.0101134)
(0.0143635 0.00159336 0.01145)
(0.0124513 0.00204945 0.00958865)
(0.0131436 0.00327299 0.00847871)
(0.0199601 0.00345424 0.0166207)
(0.0202071 0.0032524 0.0179664)
(0.0196701 0.00192471 0.0184631)
(0.0206971 -7.36383e-05 0.0186915)
(0.0197018 0.00257512 0.0178591)
(0.0196398 0.00139497 0.0176934)
(0.018103 0.0013888 0.0185112)
(0.0192137 -0.00051321 0.0176372)
(0.0112302 0.00536506 0.0120056)
(0.0111856 0.00616079 0.0122787)
(0.0151154 0.00434522 0.0169478)
(0.0159641 0.00217096 0.0170738)
(0.0172058 0.00627825 0.00371236)
(0.0171432 0.00699294 0.00418644)
(0.0179944 0.00547423 0.00362631)
(0.00911144 0.00480815 0.00493454)
(0.00959022 0.00616386 0.00567425)
(0.0201421 0.00949628 0.010956)
(0.0200993 0.00854571 0.0119139)
(0.0224599 0.00821446 0.0128118)
(0.0217721 0.00788942 0.0114406)
(0.0079074 0.000239268 0.00691552)
(0.00795125 0.000226914 0.00633786)
(0.00785698 -4.7006e-06 0.00648219)
(0.0131356 0.00504901 0.010956)
(0.0117048 0.0053898 0.0106015)
(0.0100674 0.00646533 0.00454087)
(0.0121223 0.00898126 0.00389902)
(0.0111504 0.00719901 0.00223194)
(0.0201707 0.000209044 0.0143255)
(0.0207165 0.00019443 0.0151377)
(0.00870351 0.00108142 0.00523772)
(0.00840752 0.00130829 0.0047449)
(0.00817227 0.000446083 0.005282)
(0.00859301 0.000296367 0.00663769)
(0.0108209 0.00324724 0.0106555)
(0.0116622 0.00455052 0.0116654)
(0.00955385 0.00189978 0.00990504)
(0.00902786 0.00192136 0.0102256)
(0.00930906 0.00416377 0.0100339)
(0.0116388 0.00518733 0.0110421)
(0.00963557 0.00406278 0.0112473)
(0.00961901 0.00463586 0.0108935)
(0.0103494 0.00296631 0.0119453)
(0.00992732 0.00408438 0.0111115)
(0.0110159 0.00406822 0.0100324)
(0.0120227 0.00573681 0.00961593)
(0.00701504 -0.000236557 0.00771425)
(0.0069274 -0.000255089 0.00740815)
(0.00743139 0.000328682 0.00770718)
(0.00789765 0.000354863 0.00802101)
(0.00763538 0.000825065 0.00839435)
(0.00728129 0.000439312 0.00812615)
(0.0166762 0.00657827 0.00984578)
(0.0179035 0.00766171 0.00973904)
(0.0228473 0.00395619 0.0112057)
(0.0232664 0.00497474 0.0111278)
(0.0146829 0.00524368 0.00930272)
(0.0158732 0.00718726 0.010515)
(0.00544174 0.0034178 0.00407633)
(0.016898 0.0058092 0.00771745)
(0.0171639 0.00635821 0.0071473)
(0.00945146 0.00158763 0.00246565)
(0.00880139 0.0013131 0.00269111)
(0.00875094 0.00218991 0.00349653)
(0.0102249 0.00242843 0.00313638)
(0.0127257 0.00685825 0.00285494)
(0.013738 0.00896226 0.00289544)
(0.0140114 0.0059035 0.002366)
(0.0139643 0.00568931 0.00267194)
(0.0159009 0.00539807 0.0120523)
(0.0196773 0.0061809 0.0120699)
(0.0136964 0.00519885 0.00253711)
(0.0155759 0.0054801 0.00257302)
(0.0160979 -0.0181188 -0.0228871)
(0.0188861 -0.0159448 -0.0232771)
(0.0100585 -0.0204414 -0.00346402)
(0.00811802 -0.0216675 -0.00307876)
(-0.00527533 -0.0185263 0.021359)
(-0.0056609 -0.0164348 0.0248445)
(-0.00754298 -0.0121395 0.00316855)
(-0.00699953 -0.0119944 0.00240858)
(-0.00662763 -0.00893891 0.00202617)
(-0.00632279 -0.00918042 0.00245951)
(-0.00718142 -0.0116579 0.00238012)
(-0.0069482 -0.0108018 0.00225922)
(-0.00789735 -0.0114444 0.00320714)
(-0.00748164 -0.0110776 0.00361333)
(-0.00816161 -0.0116006 0.0036055)
(-0.00836631 -0.0129644 0.00416915)
(-0.00805252 -0.0126929 0.00423134)
(-0.0084822 -0.0119462 0.00364602)
(-0.00932869 -0.0125882 0.00303613)
(-0.00608279 -0.00964797 0.00282877)
(-0.00534096 -0.00773159 0.00260828)
(-0.00577626 -0.00911642 0.00294115)
(-0.00555436 -0.00915356 0.00271506)
(-0.00803653 -0.0123019 0.00394756)
(-0.00785317 -0.0122632 0.00383242)
(-0.00667201 -0.0106175 0.00319386)
(-0.00659137 -0.00986847 0.00305361)
(-0.00708273 -0.0095485 0.00295106)
(-0.00674434 -0.00963867 0.00286148)
(-0.00674075 -0.00958121 0.00285446)
(-0.00684595 -0.00966862 0.00288033)
(-0.00722583 -0.0104365 0.00319347)
(-0.00653246 -0.0101287 0.00321352)
(-0.0071384 -0.0103573 0.00314267)
(-0.00659659 -0.0100736 0.00299658)
(-0.00696273 -0.0101057 0.003129)
(-0.00662779 -0.00987797 0.00284901)
(-0.00663374 -0.00945964 0.00289978)
(-0.00626652 -0.00945244 0.00300759)
(-0.00646263 -0.00959309 0.00304513)
(-0.0065981 -0.00898746 0.00277982)
(-0.00681788 -0.010556 0.00299526)
(-0.00609844 -0.00930302 0.00292763)
(-0.00629385 -0.00986458 0.00320007)
(-0.00691562 -0.0101427 0.00310834)
(-0.00694631 -0.0104813 0.00343776)
(-0.00672052 -0.00989492 0.00301246)
(-0.00668221 -0.00974156 0.00296808)
(-0.00632982 -0.00932908 0.00294473)
(-0.0061981 -0.00984763 0.00330904)
(-0.00634362 -0.00939461 0.00298046)
(-0.006772 -0.0101543 0.00329775)
(-0.00663669 -0.00997314 0.003231)
(-0.00695207 -0.0100427 0.00286798)
(-0.00702302 -0.010346 0.00289724)
(-0.00713375 -0.0106282 0.00313684)
(-0.00663185 -0.00956761 0.0027016)
(-0.0063651 -0.00981442 0.00334566)
(-0.0071298 -0.0119069 0.00318637)
(-0.00725311 -0.0105425 0.00301753)
(-0.00641674 -0.00982246 0.00265284)
(-0.00669382 -0.0102447 0.00244743)
(-0.00671012 -0.0104779 0.00290199)
(-0.00693428 -0.0101848 0.00338142)
(-0.0071654 -0.0112818 0.00250854)
(-0.00706675 -0.0110356 0.00257513)
(-0.00558466 -0.0087471 0.00278361)
(-0.00556828 -0.00823386 0.0025843)
(-0.00587948 -0.00838046 0.00242128)
(-0.0056429 -0.00807213 0.00221181)
(-0.00667256 -0.00978081 0.00309315)
(-0.00668114 -0.00941503 0.00280802)
(-0.00598622 -0.00878065 0.00245056)
(-0.00593363 -0.00854412 0.00258834)
(-0.0064082 -0.0101856 0.00280666)
(-0.00683751 -0.0106474 0.00279512)
(-0.00847422 -0.0127567 0.00418097)
(-0.00804037 -0.0119399 0.00377545)
(-0.00698502 -0.0100628 0.00310427)
(-0.00760807 -0.010181 0.00277488)
(-0.00644146 -0.00991439 0.00324083)
(-0.00669495 -0.0099324 0.00326331)
(-0.00660782 -0.00943914 0.00278184)
(-0.00732833 -0.00991342 0.00266691)
(-0.0049298 -0.0174508 0.00161319)
(-0.00432471 -0.0165825 0.00146096)
(-0.00742219 -0.0108239 -0.00138038)
(-0.0151876 -0.0120351 0.0163939)
(-0.0136051 -0.0139833 0.0186393)
(-0.0121438 -0.0182169 0.00868767)
(-0.00890508 -0.0172157 0.0088051)
(-0.011972 -0.0217853 -0.00757796)
(-0.0116319 -0.021286 -0.00937624)
(-0.0144216 -0.0200091 -0.00627088)
(-0.0148875 -0.0194903 -0.005017)
(-0.0130495 -0.0209834 -0.00798334)
(-0.0140286 -0.0217575 -0.00793073)
(-0.0106528 -0.0241208 -0.0113262)
(-0.0112676 -0.0272488 -0.0131026)
(-0.0154158 -0.0265434 -0.0114417)
(-0.0158885 -0.0233837 -0.00971771)
(-0.011311 -0.0213141 -0.0110107)
(-0.0123878 -0.0206781 -0.0115385)
(-0.00996134 -0.0148858 -0.013059)
(-0.00840966 -0.0134923 -0.0125809)
(-0.0132175 -0.0287777 0.0261628)
(-0.0117939 -0.0304768 0.0281704)
(-0.00723209 -0.027848 0.0274429)
(-0.00675338 -0.030326 0.0244581)
(-0.0178142 -0.034207 0.0129989)
(-0.0222463 -0.0339546 0.012358)
(-0.0182719 -0.0256115 0.0162505)
(-0.0184825 -0.0263961 0.0182147)
(-0.0155677 -0.0289153 0.0199946)
(-0.0174159 -0.0316311 0.019213)
(-0.0147722 -0.0211286 0.0188425)
(-0.014306 -0.0188145 0.0189564)
(-0.00850943 -0.0113241 0.00287456)
(-0.00735675 -0.0106445 0.0028251)
(-0.00880459 -0.0128178 0.00405262)
(-0.0105734 -0.0138961 0.00406741)
(-0.00827582 -0.0127688 0.00360711)
(-0.00827671 -0.0125447 0.00340108)
(-0.0164115 -0.0212197 0.0104018)
(-0.0165028 -0.0207026 0.00992458)
(-0.0178609 -0.0258806 0.0151455)
(-0.0161882 -0.0230123 0.0130269)
(-0.0143475 -0.0197604 0.0165354)
(-0.00627637 -0.00895908 0.00247252)
(-0.00622896 -0.00894579 0.00266183)
(-0.00756751 -0.0113236 0.00313195)
(-0.00748843 -0.0110759 0.0031949)
(-0.00673689 -0.0107362 0.00394191)
(-0.00709282 -0.0105154 0.00320723)
(-0.0108673 -0.0324798 0.0232197)
(-0.00997211 -0.031599 0.0265503)
(-0.0143152 -0.0336599 0.0247783)
(-0.0163167 -0.0352658 0.0221431)
(-0.00142367 -0.00545814 -0.00414819)
(-0.00116923 -0.00487034 -0.00454412)
(-0.00598578 -0.0100625 -0.00652398)
(-0.00509577 -0.00964613 -0.00557217)
(-0.00240102 -0.00671338 -0.00354053)