/*--------------------------------*- C++ -*----------------------------------*\
| =========                 |                                                 |
| \\      /  F ield         | OpenFOAM: The Open Source CFD Toolbox           |
|  \\    /   O peration     | Version:  v1612+                                |
|   \\  /    A nd           | Web:      www.OpenFOAM.com                      |
|    \\/     M anipulation  |                                                 |
\*---------------------------------------------------------------------------*/
FoamFile
{
    version     2.0;
    format      ascii;
    class       volVectorField;
    location    "150";
    object      U;
}
// * * * * * * * * * * * * * * * * * * * * * * * * * * * * * * * * * * * * * //

dimensions      [0 1 -1 0 0 0 0];

internalField   nonuniform List<vector> 
16880
(
(-0.262832 0.315611 -0.578708)
(-0.249697 0.298896 -0.557371)
(-0.265536 0.321759 -0.587099)
(-0.228703 0.278008 -0.528538)
(-0.269442 0.318443 -0.602933)
(-0.297147 0.353966 -0.655953)
(-0.368185 0.452541 -0.829755)
(-0.344714 0.421093 -0.773394)
(-0.32889 0.402495 -0.74598)
(-0.34119 0.408817 -0.76602)
(-0.311476 0.38601 -0.710653)
(-0.303873 0.37243 -0.687942)
(-0.313435 0.389182 -0.705762)
(-0.327242 0.403608 -0.733231)
(-0.323626 0.39617 -0.728761)
(-0.353976 0.433648 -0.805108)
(-0.305439 0.36143 -0.677175)
(-0.303135 0.381253 -0.687657)
(-0.296596 0.379166 -0.686855)
(-0.354821 0.434056 -0.806187)
(-0.359284 0.442716 -0.808303)
(-0.340959 0.419634 -0.767786)
(-0.313994 0.381038 -0.702398)
(-0.289811 0.348094 -0.649872)
(-0.217307 0.281653 -0.488807)
(-0.217367 0.291749 -0.509601)
(-0.212435 0.272902 -0.486788)
(-0.251008 0.305285 -0.58058)
(-0.282106 0.341948 -0.647879)
(-0.296661 0.362963 -0.666931)
(-0.322761 0.393115 -0.708974)
(-0.258266 0.306467 -0.556788)
(-0.246123 0.303622 -0.546376)
(-0.192961 0.245407 -0.445695)
(-0.237618 0.298761 -0.527102)
(-0.282804 0.345617 -0.636026)
(-0.224771 0.274125 -0.504156)
(-0.252054 0.303902 -0.549603)
(-0.364915 0.440145 -0.79646)
(-0.35808 0.433248 -0.797622)
(-0.298791 0.359579 -0.640363)
(-0.30593 0.374382 -0.666851)
(-0.305603 0.377496 -0.678522)
(-0.359073 0.44007 -0.794143)
(-0.35517 0.428972 -0.778599)
(-0.333719 0.411733 -0.739199)
(-0.30229 0.363474 -0.663901)
(-0.269421 0.32946 -0.600636)
(-0.298623 0.358421 -0.646707)
(-0.272666 0.330224 -0.602301)
(-0.313103 0.38055 -0.689186)
(-0.301751 0.36754 -0.666091)
(-0.321356 0.391255 -0.706521)
(-0.291628 0.363757 -0.653327)
(-0.280063 0.343462 -0.621347)
(-0.255754 0.312111 -0.579122)
(-0.236191 0.289619 -0.532415)
(-0.258854 0.312583 -0.583172)
(-0.225062 0.278531 -0.509852)
(-0.212449 0.269866 -0.484721)
(-0.292086 0.362142 -0.667774)
(-0.299922 0.373749 -0.685788)
(-0.251644 0.308483 -0.56823)
(-0.300394 0.372995 -0.683577)
(-0.246942 0.30317 -0.552566)
(-0.225132 0.275019 -0.508102)
(-0.201516 0.252154 -0.452122)
(-0.301483 0.366052 -0.676971)
(-0.249328 0.300633 -0.5643)
(-0.22658 0.27433 -0.504592)
(-0.29833 0.360014 -0.666634)
(-0.252285 0.307173 -0.563488)
(-0.22127 0.281618 -0.50616)
(-0.243967 0.309668 -0.55756)
(-0.220807 0.277483 -0.508592)
(-0.288287 0.374547 -0.663646)
(-0.29559 0.377622 -0.688275)
(-0.243798 0.293039 -0.554977)
(-0.249371 0.297917 -0.558306)
(-0.310681 0.377104 -0.695238)
(-0.307692 0.38418 -0.709424)
(-0.232034 0.275288 -0.520263)
(-0.213677 0.255787 -0.481716)
(-0.21031 0.266361 -0.484825)
(-0.234187 0.28918 -0.532117)
(-0.239873 0.295613 -0.53895)
(-0.295856 0.356748 -0.654689)
(-0.284041 0.349969 -0.640548)
(-0.226098 0.265849 -0.501147)
(-0.2008 0.250725 -0.456755)
(-0.245335 0.294475 -0.543593)
(-0.287399 0.349631 -0.650315)
(-0.286878 0.352214 -0.651306)
(-0.293052 0.355686 -0.663071)
(-0.255297 0.311899 -0.566796)
(-0.22588 0.280392 -0.518385)
(-0.231902 0.282196 -0.517694)
(-0.19884 0.255356 -0.465444)
(-0.254834 0.306881 -0.562891)
(-0.23827 0.301067 -0.547715)
(-0.233836 0.285386 -0.53186)
(-0.214458 0.269352 -0.500012)
(-0.232415 0.27893 -0.523588)
(-0.238276 0.29719 -0.535264)
(-0.277515 0.331736 -0.606921)
(-0.242465 0.29315 -0.540893)
(-0.309484 0.375675 -0.699643)
(-0.321843 0.391144 -0.721246)
(-0.263595 0.319907 -0.585864)
(-0.256105 0.304353 -0.557203)
(-0.250106 0.29356 -0.549568)
(-0.266799 0.321788 -0.586892)
(-0.310719 0.371637 -0.696561)
(-0.332941 0.393172 -0.740233)
(-0.256854 0.31028 -0.574275)
(-0.300841 0.367958 -0.669968)
(-0.293911 0.35741 -0.659607)
(-0.3046 0.366211 -0.684674)
(-0.34486 0.412423 -0.762176)
(-0.323509 0.391143 -0.717541)
(-0.26634 0.321717 -0.588755)
(-0.264828 0.314541 -0.579239)
(-0.309302 0.37315 -0.687508)
(-0.330957 0.40335 -0.723754)
(-0.30304 0.383398 -0.683638)
(-0.357831 0.422763 -0.792171)
(-0.34874 0.414304 -0.766988)
(-0.359116 0.427576 -0.790477)
(-0.34773 0.422343 -0.773502)
(-0.367995 0.445826 -0.809477)
(-0.260328 0.316182 -0.580075)
(-0.236894 0.278973 -0.517528)
(-0.265811 0.320587 -0.594153)
(-0.299186 0.367966 -0.669438)
(-0.28423 0.354142 -0.642934)
(-0.258616 0.307051 -0.569537)
(-0.343407 0.421953 -0.769734)
(-0.35588 0.430427 -0.786487)
(-0.322661 0.394723 -0.723823)
(-0.252408 0.30534 -0.563711)
(-0.259279 0.313914 -0.573029)
(-0.325563 0.396836 -0.723232)
(-0.280571 0.346679 -0.636302)
(-0.266133 0.32872 -0.599386)
(-0.408605 0.491543 -0.914587)
(-0.412543 0.504739 -0.931982)
(-0.420909 0.505755 -0.939035)
(-0.436064 0.527808 -0.978107)
(-0.434741 0.527078 -0.977289)
(-0.428842 0.514454 -0.957785)
(-0.431257 0.520273 -0.971756)
(-0.435223 0.527914 -0.981537)
(-0.431022 0.517147 -0.962311)
(-0.43332 0.525702 -0.967022)
(-0.426761 0.516201 -0.963455)
(-0.447273 0.540273 -0.997842)
(-0.439506 0.53175 -0.982731)
(-0.446812 0.538302 -0.999864)
(-0.4362 0.52661 -0.9667)
(-0.279909 0.340284 -0.64583)
(-0.332301 0.402808 -0.753807)
(-0.349289 0.417034 -0.776453)
(-0.313174 0.373337 -0.702147)
(-0.286749 0.35174 -0.667278)
(-0.318359 0.376473 -0.705459)
(-0.353303 0.432319 -0.813169)
(-0.329529 0.39855 -0.7496)
(-0.336699 0.418293 -0.776395)
(-0.281719 0.342242 -0.650762)
(-0.325679 0.383488 -0.726103)
(-0.300193 0.345753 -0.659825)
(-0.376647 0.450837 -0.845964)
(-0.36034 0.430717 -0.80782)
(-0.291839 0.353794 -0.682846)
(-0.344722 0.407573 -0.776044)
(-0.399654 0.471927 -0.895394)
(-0.395595 0.474225 -0.885502)
(-0.379545 0.451581 -0.848743)
(-0.414965 0.50682 -0.923744)
(-0.432534 0.53216 -0.966056)
(-0.406795 0.49689 -0.897601)
(-0.418286 0.509556 -0.926058)
(-0.43791 0.539637 -0.978939)
(-0.450223 0.551325 -1.00436)
(-0.44528 0.543692 -0.992444)
(-0.454586 0.554563 -1.01483)
(-0.432605 0.53064 -0.960538)
(-0.442701 0.543555 -0.994017)
(-0.430448 0.520522 -0.954344)
(-0.44919 0.544342 -0.997344)
(-0.309056 0.363011 -0.675418)
(-0.321731 0.371218 -0.693602)
(-0.330293 0.385765 -0.741581)
(-0.322332 0.378657 -0.715083)
(-0.355379 0.416093 -0.784814)
(-0.336974 0.406845 -0.757517)
(-0.326789 0.391621 -0.732599)
(-0.303731 0.353387 -0.667951)
(-0.356713 0.423362 -0.804503)
(-0.338377 0.394752 -0.74586)
(-0.341455 0.408324 -0.760659)
(-0.332621 0.398472 -0.738753)
(-0.315359 0.371236 -0.69703)
(-0.235615 0.268988 -0.519635)
(-0.240867 0.282923 -0.531877)
(-0.230702 0.263731 -0.5012)
(-0.203729 0.249094 -0.462118)
(-0.300858 0.358756 -0.666214)
(-0.284752 0.348372 -0.636146)
(-0.22545 0.272555 -0.514565)
(-0.212636 0.262005 -0.497633)
(-0.243678 0.280847 -0.53651)
(-0.225087 0.275199 -0.516828)
(-0.247309 0.298768 -0.551453)
(-0.250582 0.304229 -0.558854)
(-0.22703 0.271468 -0.497086)
(-0.298008 0.353159 -0.652211)
(-0.308999 0.367432 -0.683645)
(-0.259281 0.30012 -0.570813)
(-0.245793 0.292032 -0.545886)
(-0.304356 0.351572 -0.661331)
(-0.306117 0.349781 -0.648238)
(-0.324173 0.375273 -0.701658)
(-0.355839 0.419692 -0.783165)
(-0.320545 0.378269 -0.70574)
(-0.349166 0.416312 -0.770439)
(-0.310406 0.362324 -0.663111)
(-0.293905 0.336856 -0.625319)
(-0.333716 0.384142 -0.713777)
(-0.299673 0.355205 -0.656973)
(-0.362433 0.42834 -0.794417)
(-0.326093 0.386622 -0.716461)
(-0.307783 0.362998 -0.675871)
(-0.314915 0.359118 -0.669884)
(-0.296894 0.341659 -0.634347)
(-0.319993 0.361196 -0.683969)
(-0.329598 0.38512 -0.713213)
(-0.359294 0.423343 -0.791153)
(-0.294352 0.348747 -0.638768)
(-0.296463 0.345237 -0.638052)
(-0.318102 0.36683 -0.691114)
(-0.302188 0.347172 -0.653482)
(-0.277951 0.323782 -0.600057)
(-0.216187 0.264051 -0.474502)
(-0.250282 0.306171 -0.555997)
(-0.2743 0.334869 -0.604589)
(-0.282869 0.342215 -0.625176)
(-0.22437 0.267917 -0.487022)
(-0.180912 0.223039 -0.407049)
(-0.22894 0.293986 -0.523075)
(-0.305103 0.370932 -0.668147)
(-0.288377 0.358619 -0.639878)
(-0.216297 0.259785 -0.472523)
(-0.199714 0.250406 -0.444249)
(-0.244246 0.293282 -0.535064)
(-0.222984 0.276438 -0.497086)
(-0.194091 0.242769 -0.433104)
(-0.236099 0.286757 -0.518823)
(-0.291793 0.366857 -0.656712)
(-0.241934 0.297989 -0.543509)
(-0.214092 0.262328 -0.480273)
(-0.287351 0.350766 -0.641233)
(-0.235659 0.290338 -0.525867)
(-0.260906 0.326281 -0.59765)
(-0.260836 0.315278 -0.592719)
(-0.257586 0.306485 -0.579597)
(-0.257996 0.308876 -0.568326)
(-0.224878 0.268489 -0.488922)
(-0.324637 0.384755 -0.716646)
(-0.339711 0.41211 -0.764877)
(-0.20841 0.273541 -0.485065)
(-0.309042 0.375989 -0.692063)
(-0.31834 0.393687 -0.714145)
(-0.324172 0.401763 -0.729836)
(-0.244233 0.308832 -0.571432)
(-0.232273 0.280911 -0.515208)
(-0.327483 0.408397 -0.737745)
(-0.313816 0.391556 -0.712428)
(-0.307763 0.371362 -0.679737)
(-0.330225 0.398416 -0.739765)
(-0.248261 0.307641 -0.570807)
(-0.253648 0.308861 -0.577972)
(-0.248324 0.309648 -0.573264)
(-0.227793 0.277607 -0.510878)
(-0.307599 0.375817 -0.690704)
(-0.231296 0.284337 -0.522814)
(-0.265015 0.324384 -0.596306)
(-0.250058 0.306301 -0.559104)
(-0.299291 0.368117 -0.683972)
(-0.28516 0.344187 -0.646595)
(-0.221921 0.268263 -0.503781)
(-0.29998 0.367436 -0.694049)
(-0.28652 0.357176 -0.656982)
(-0.330986 0.393836 -0.742623)
(-0.29758 0.368963 -0.681379)
(-0.290274 0.353343 -0.667629)
(-0.279625 0.347574 -0.646867)
(-0.308679 0.372847 -0.709316)
(-0.264838 0.315545 -0.586288)
(-0.299299 0.367743 -0.679538)
(-0.313137 0.384135 -0.701172)
(-0.28256 0.358101 -0.656477)
(-0.23872 0.296569 -0.54163)
(-0.217591 0.25831 -0.48074)
(-0.23195 0.274315 -0.51757)
(-0.21328 0.253055 -0.468064)
(-0.260553 0.316418 -0.580036)
(-0.235793 0.284621 -0.524812)
(-0.255884 0.30753 -0.571309)
(-0.241469 0.299689 -0.552104)
(-0.351564 0.428729 -0.787187)
(-0.358363 0.431118 -0.79205)
(-0.355217 0.426191 -0.787009)
(-0.363537 0.43796 -0.811712)
(-0.320151 0.37546 -0.703444)
(-0.299818 0.345263 -0.649861)
(-0.305496 0.367202 -0.673867)
(-0.286125 0.338766 -0.637559)
(-0.291704 0.336902 -0.634021)
(-0.257059 0.314153 -0.587162)
(-0.232208 0.270417 -0.512513)
(-0.281252 0.349912 -0.643787)
(-0.290746 0.346962 -0.648914)
(-0.265702 0.31659 -0.589183)
(-0.333483 0.404097 -0.738665)
(-0.260275 0.313819 -0.572039)
(-0.248644 0.298261 -0.554807)
(-0.217003 0.265725 -0.496528)
(-0.25233 0.309692 -0.571443)
(-0.220448 0.266135 -0.494309)
(-0.267706 0.320571 -0.591754)
(-0.24481 0.295748 -0.54093)
(-0.246507 0.293319 -0.536002)
(-0.27434 0.332562 -0.601526)
(-0.258513 0.307869 -0.566437)
(-0.266317 0.324626 -0.586185)
(-0.297453 0.353584 -0.656877)
(-0.288443 0.350283 -0.644435)
(-0.320479 0.384724 -0.701523)
(-0.323861 0.384483 -0.711534)
(-0.336568 0.400935 -0.749097)
(-0.33992 0.404653 -0.735985)
(-0.329312 0.391132 -0.719844)
(-0.327061 0.391098 -0.712644)
(-0.332695 0.399144 -0.739861)
(-0.354834 0.429439 -0.789202)
(-0.339309 0.40315 -0.752288)
(-0.244875 0.288267 -0.547171)
(-0.231185 0.26794 -0.509485)
(-0.246959 0.288813 -0.540856)
(-0.236311 0.269705 -0.508558)
(-0.25107 0.297767 -0.564022)
(-0.273397 0.316672 -0.594106)
(-0.254233 0.295248 -0.555511)
(-0.265813 0.309441 -0.597941)
(-0.247602 0.289639 -0.545507)
(-0.31451 0.370403 -0.707639)
(-0.310267 0.371204 -0.701952)
(-0.264819 0.304521 -0.581693)
(-0.260061 0.297565 -0.562935)
(-0.253029 0.307038 -0.572341)
(-0.299155 0.358688 -0.665585)
(-0.305759 0.367132 -0.687395)
(-0.250696 0.300282 -0.569241)
(-0.237156 0.283329 -0.520452)
(-0.249264 0.298641 -0.55605)
(-0.220331 0.262899 -0.4771)
(-0.254606 0.305791 -0.57341)
(-0.254655 0.310952 -0.575455)
(-0.305903 0.367171 -0.674236)
(-0.316019 0.383436 -0.701131)
(-0.293339 0.356792 -0.656259)
(-0.324355 0.386605 -0.722077)
(-0.295539 0.354296 -0.662819)
(-0.250701 0.304855 -0.567775)
(-0.326971 0.392022 -0.730682)
(-0.358837 0.433755 -0.810134)
(-0.307913 0.37487 -0.689332)
(-0.322103 0.377734 -0.714132)
(-0.351186 0.416034 -0.775422)
(-0.36053 0.430175 -0.802981)
(-0.326717 0.379647 -0.701082)
(-0.306046 0.354031 -0.679683)
(-0.347334 0.419182 -0.777394)
(-0.324276 0.391732 -0.728383)
(-0.349041 0.422388 -0.796248)
(-0.334377 0.397388 -0.735719)
(-0.304921 0.359568 -0.687514)
(-0.355238 0.427214 -0.808328)
(-0.329296 0.37923 -0.728335)
(-0.319071 0.37057 -0.69322)
(-0.273296 0.334421 -0.630182)
(-0.257091 0.323455 -0.591702)
(-0.322501 0.387688 -0.740472)
(-0.321781 0.378036 -0.700182)
(-0.298678 0.357644 -0.664018)
(-0.28244 0.323076 -0.629448)
(-0.269861 0.331969 -0.614106)
(-0.270752 0.327552 -0.60858)
(-0.228593 0.269538 -0.504782)
(-0.224577 0.261151 -0.48804)
(-0.25332 0.289832 -0.553355)
(-0.224998 0.265823 -0.500571)
(-0.260261 0.308697 -0.575509)
(-0.2902 0.343688 -0.649207)
(-0.302496 0.358595 -0.670151)
(-0.200318 0.232315 -0.444547)
(-0.226296 0.268085 -0.498395)
(-0.211187 0.243633 -0.461403)
(-0.233212 0.263934 -0.506831)
(-0.244274 0.281905 -0.529786)
(-0.270549 0.318601 -0.599748)
(-0.286532 0.34221 -0.641719)
(-0.277645 0.33165 -0.619936)
(-0.248419 0.294872 -0.549846)
(-0.239708 0.280276 -0.522098)
(-0.253975 0.295169 -0.56658)
(-0.243353 0.292745 -0.539391)
(-0.225442 0.273134 -0.511445)
(-0.209834 0.253261 -0.469411)
(-0.255662 0.305161 -0.569453)
(-0.29787 0.358198 -0.667673)
(-0.227175 0.272485 -0.505144)
(-0.216901 0.249111 -0.477571)
(-0.242141 0.287061 -0.538842)
(-0.209708 0.249309 -0.468741)
(-0.247599 0.297573 -0.560821)
(-0.252696 0.2997 -0.561284)
(-0.291947 0.354134 -0.659594)
(-0.258021 0.309442 -0.584023)
(-0.236858 0.284618 -0.52938)
(-0.297808 0.364193 -0.678687)
(-0.296702 0.365639 -0.678881)
(-0.261511 0.315817 -0.59955)
(-0.284825 0.339673 -0.622824)
(-0.286188 0.34867 -0.646416)
(-0.303026 0.365776 -0.66975)
(-0.299574 0.359699 -0.660605)
(-0.275852 0.343636 -0.62407)
(-0.264593 0.319473 -0.585495)
(-0.259483 0.308122 -0.562567)
(-0.232831 0.285803 -0.518497)
(-0.276382 0.337697 -0.605009)
(-0.256021 0.315969 -0.569687)
(-0.234617 0.276703 -0.514764)
(-0.272574 0.313962 -0.58258)
(-0.238062 0.286215 -0.529097)
(-0.215055 0.256367 -0.472582)
(-0.242947 0.283074 -0.52595)
(-0.204283 0.252838 -0.467533)
(-0.310453 0.372668 -0.689486)
(-0.303969 0.368188 -0.679111)
(-0.263159 0.322552 -0.595209)
(-0.246184 0.294894 -0.544727)
(-0.261356 0.308789 -0.57235)
(-0.303537 0.36266 -0.670988)
(-0.301656 0.366129 -0.682876)
(-0.23459 0.286354 -0.526745)
(-0.234259 0.285545 -0.524273)
(-0.20461 0.252863 -0.464239)
(-0.235599 0.284564 -0.532575)
(-0.207145 0.250018 -0.456804)
(-0.258522 0.315454 -0.577906)
(-0.253866 0.311721 -0.570367)
(-0.293888 0.353308 -0.647954)
(-0.214418 0.263354 -0.473672)
(-0.243552 0.288469 -0.539881)
(-0.21278 0.257312 -0.475523)
(-0.239441 0.283159 -0.516295)
(-0.214589 0.255466 -0.472448)
(-0.33098 0.401395 -0.747993)
(-0.310672 0.372121 -0.707258)
(-0.259663 0.314647 -0.585359)
(-0.246199 0.290168 -0.532889)
(-0.261689 0.311617 -0.588492)
(-0.236175 0.290078 -0.535113)
(-0.271859 0.322768 -0.591234)
(-0.312529 0.380879 -0.703757)
(-0.355599 0.435734 -0.800555)
(-0.319972 0.382118 -0.726833)
(-0.306518 0.363808 -0.6777)
(-0.295017 0.351203 -0.664101)
(-0.260189 0.309301 -0.565675)
(-0.301868 0.379204 -0.692783)
(-0.322012 0.36985 -0.7085)
(-0.302108 0.348233 -0.655468)
(-0.304394 0.357059 -0.672469)
(-0.258951 0.316951 -0.587692)
(-0.236549 0.286668 -0.53409)
(-0.214351 0.267481 -0.482537)
(-0.245723 0.290508 -0.542127)
(-0.222979 0.265691 -0.490275)
(-0.249151 0.297278 -0.558396)
(-0.254707 0.297788 -0.563445)
(-0.244778 0.29686 -0.549749)
(-0.230492 0.276884 -0.520829)
(-0.248384 0.292724 -0.540393)
(-0.255035 0.30623 -0.564953)
(-0.300368 0.363121 -0.659163)
(-0.30622 0.360572 -0.670335)
(-0.252184 0.30914 -0.56799)
(-0.232334 0.28323 -0.516836)
(-0.297772 0.364397 -0.667463)
(-0.3145 0.373004 -0.697973)
(-0.301992 0.364452 -0.678972)
(-0.251868 0.302063 -0.554867)
(-0.306718 0.37592 -0.687475)
(-0.289224 0.355201 -0.648466)
(-0.340674 0.404122 -0.761268)
(-0.37779 0.46465 -0.860482)
(-0.374945 0.46099 -0.847594)
(-0.359336 0.435733 -0.813641)
(-0.350109 0.423364 -0.784832)
(-0.382258 0.469268 -0.864515)
(-0.363333 0.446012 -0.829183)
(-0.318677 0.392639 -0.71447)
(-0.328216 0.403987 -0.737315)
(-0.32087 0.39704 -0.722955)
(-0.36289 0.447407 -0.82461)
(-0.364495 0.449033 -0.829872)
(-0.301796 0.372492 -0.692676)
(-0.295304 0.36793 -0.677909)
(-0.334757 0.405297 -0.751143)
(-0.3005 0.370007 -0.68522)
(-0.285784 0.357263 -0.657017)
(-0.319935 0.39221 -0.720503)
(-0.325727 0.387649 -0.731884)
(-0.31012 0.374021 -0.693522)
(-0.330686 0.397631 -0.745467)
(-0.252134 0.290038 -0.548818)
(-0.23679 0.29344 -0.534858)
(-0.286967 0.349518 -0.656771)
(-0.239746 0.295461 -0.558565)
(-0.219757 0.260158 -0.485715)
(-0.318543 0.396168 -0.723676)
(-0.332368 0.416002 -0.756727)
(-0.278459 0.323135 -0.611086)
(-0.251853 0.301313 -0.562979)
(-0.256476 0.301275 -0.569582)
(-0.236008 0.278388 -0.523965)
(-0.315929 0.38588 -0.721663)
(-0.281032 0.342188 -0.641906)
(-0.298513 0.367113 -0.677103)
(-0.427561 0.509593 -0.95337)
(-0.396833 0.469459 -0.880518)
(-0.378959 0.459821 -0.854584)
(-0.363681 0.444975 -0.825864)
(-0.432749 0.519642 -0.964762)
(-0.386333 0.471084 -0.872141)
(-0.385342 0.465942 -0.853485)
(-0.372512 0.449802 -0.83448)
(-0.381621 0.455998 -0.846009)
(-0.358778 0.435438 -0.803733)
(-0.370259 0.44526 -0.821971)
(-0.369507 0.446417 -0.827222)
(-0.432754 0.521269 -0.960836)
(-0.41512 0.492924 -0.91469)
(-0.422293 0.50943 -0.948164)
(-0.419722 0.50542 -0.930451)
(-0.3874 0.465357 -0.858288)
(-0.406245 0.483333 -0.89774)
(-0.369262 0.44668 -0.819745)
(-0.363206 0.43267 -0.805021)
(-0.431639 0.522081 -0.96076)
(-0.424724 0.514243 -0.946585)
(-0.423012 0.51142 -0.939755)
(-0.421117 0.511754 -0.940459)
(-0.443329 0.538055 -0.989833)
(-0.420486 0.51429 -0.945032)
(-0.418691 0.506154 -0.931869)
(-0.438926 0.532149 -0.982138)
(-0.446758 0.543397 -0.996522)
(-0.453153 0.554309 -1.01543)
(-0.437114 0.526124 -0.97149)
(-0.434212 0.52977 -0.970971)
(-0.435988 0.529717 -0.976281)
(-0.432662 0.528572 -0.974236)
(-0.42391 0.517256 -0.95129)
(-0.450998 0.547886 -1.00711)
(-0.378865 0.469173 -0.863509)
(-0.379846 0.473011 -0.866979)
(-0.425287 0.517473 -0.947792)
(-0.410052 0.503607 -0.927334)
(-0.368575 0.452419 -0.837162)
(-0.386652 0.474554 -0.865313)
(-0.391133 0.480987 -0.877157)
(-0.411753 0.504045 -0.928379)
(-0.427676 0.517916 -0.958621)
(-0.386223 0.475611 -0.87673)
(-0.384024 0.472886 -0.868205)
(-0.403271 0.490437 -0.90304)
(-0.392292 0.479452 -0.885036)
(-0.376761 0.457797 -0.838336)
(-0.314272 0.384203 -0.711456)
(-0.377854 0.458772 -0.847075)
(-0.379683 0.457362 -0.842229)
(-0.362499 0.436125 -0.805769)
(-0.330767 0.397797 -0.737692)
(-0.352626 0.421769 -0.789283)
(-0.354613 0.428163 -0.786983)
(-0.299669 0.350578 -0.645651)
(-0.305872 0.375415 -0.689638)
(-0.327113 0.380482 -0.711458)
(-0.317701 0.372047 -0.712629)
(-0.407896 0.49018 -0.910454)
(-0.389702 0.476197 -0.874315)
(-0.39546 0.48086 -0.880045)
(-0.39655 0.473101 -0.866632)
(-0.406686 0.49298 -0.904466)
(-0.417517 0.50353 -0.932178)
(-0.393502 0.484382 -0.881334)
(-0.392242 0.488427 -0.902038)
(-0.420582 0.509294 -0.943648)
(-0.4304 0.522948 -0.958534)
(-0.4335 0.525763 -0.964617)
(-0.4311 0.529377 -0.965091)
(-0.441396 0.543181 -0.981991)
(-0.427662 0.522887 -0.957736)
(-0.45104 0.543149 -0.999412)
(-0.439981 0.539579 -0.990705)
(-0.432011 0.537254 -0.970136)
(-0.422624 0.525946 -0.953267)
(-0.428132 0.53113 -0.962548)
(-0.434457 0.543446 -0.979515)
(-0.344097 0.405021 -0.755326)
(-0.329311 0.386112 -0.72255)
(-0.335973 0.408829 -0.759209)
(-0.30682 0.373854 -0.694464)
(-0.310081 0.375408 -0.692677)
(-0.299975 0.355798 -0.651951)
(-0.358092 0.435616 -0.794076)
(-0.326211 0.394112 -0.729855)
(-0.33757 0.40519 -0.742558)
(-0.305357 0.371338 -0.693698)
(-0.30152 0.365146 -0.673925)
(-0.308323 0.378719 -0.6969)
(-0.296525 0.360669 -0.667785)
(-0.356914 0.43013 -0.788132)
(-0.400922 0.467488 -0.859063)
(-0.307032 0.369672 -0.702721)
(-0.365906 0.425549 -0.805658)
(-0.348994 0.418388 -0.786276)
(-0.336819 0.404205 -0.737655)
(-0.306914 0.367837 -0.678467)
(-0.307307 0.357504 -0.656637)
(-0.322245 0.390262 -0.715882)
(-0.33105 0.405518 -0.74184)
(-0.344796 0.416292 -0.765712)
(-0.342275 0.40744 -0.756179)
(-0.368956 0.444228 -0.818757)
(-0.37133 0.445179 -0.82405)
(-0.287116 0.351243 -0.660046)
(-0.336997 0.40725 -0.749932)
(-0.305721 0.366117 -0.68746)
(-0.280632 0.342384 -0.640208)
(-0.358887 0.424199 -0.791467)
(-0.363515 0.438761 -0.811057)
(-0.349226 0.42612 -0.783535)
(-0.273732 0.342897 -0.645947)
(-0.330657 0.403224 -0.740399)
(-0.286352 0.334899 -0.611239)
(-0.310338 0.360722 -0.682436)
(-0.35873 0.430205 -0.793233)
(-0.363791 0.443235 -0.809393)
(-0.378654 0.466072 -0.858966)
(-0.355525 0.434602 -0.798328)
(-0.359171 0.439025 -0.806829)
(-0.396066 0.486415 -0.886442)
(-0.40321 0.493808 -0.905225)
(-0.377494 0.463231 -0.846151)
(-0.344403 0.426418 -0.783883)
(-0.355107 0.434496 -0.795482)
(-0.371044 0.446261 -0.828368)
(-0.41135 0.499863 -0.915266)
(-0.414811 0.505524 -0.931002)
(-0.383111 0.46855 -0.856666)
(-0.362431 0.444853 -0.81555)
(-0.373138 0.455864 -0.841889)
(-0.400604 0.489809 -0.897656)
(-0.402759 0.489179 -0.899844)
(-0.412374 0.503626 -0.922041)
(-0.377824 0.460681 -0.849277)
(-0.403819 0.489944 -0.901584)
(-0.35093 0.422603 -0.786774)
(-0.371121 0.445011 -0.826714)
(-0.271401 0.329087 -0.604372)
(-0.321099 0.38181 -0.711369)
(-0.372652 0.441223 -0.8277)
(-0.251079 0.318142 -0.585433)
(-0.360241 0.428017 -0.80995)
(-0.30438 0.374381 -0.704192)
(-0.315591 0.38764 -0.711867)
(-0.304962 0.356729 -0.660954)
(-0.295219 0.360132 -0.667691)
(-0.328421 0.387233 -0.739862)
(-0.266812 0.311486 -0.601254)
(-0.258553 0.296268 -0.560024)
(-0.265207 0.306244 -0.594881)
(-0.227527 0.275711 -0.524243)
(-0.24679 0.291134 -0.56241)
(-0.303577 0.360047 -0.686844)
(-0.243539 0.29489 -0.559738)
(-0.289485 0.352857 -0.676911)
(-0.236136 0.283928 -0.538743)
(-0.2128 0.262369 -0.485833)
(-0.30357 0.370253 -0.694394)
(-0.306104 0.370057 -0.698007)
(-0.290166 0.359135 -0.661045)
(-0.255289 0.311825 -0.594559)
(-0.31653 0.382127 -0.71441)
(-0.252564 0.3055 -0.584843)
(-0.244325 0.295179 -0.551671)
(-0.215374 0.259194 -0.484113)
(-0.307326 0.371807 -0.698379)
(-0.301196 0.368996 -0.689978)
(-0.236961 0.279497 -0.528406)
(-0.265039 0.320743 -0.603647)
(-0.422743 0.509789 -0.935885)
(-0.429982 0.524734 -0.966325)
(-0.43407 0.520067 -0.959972)
(-0.429014 0.513269 -0.948039)
(-0.444626 0.54054 -0.991071)
(-0.442468 0.537813 -0.995105)
(-0.390447 0.477378 -0.863123)
(-0.365283 0.437914 -0.807128)
(-0.330214 0.387919 -0.725565)
(-0.330048 0.406929 -0.72834)
(-0.308313 0.367793 -0.681428)
(-0.320725 0.381366 -0.700477)
(-0.345273 0.41684 -0.771823)
(-0.332725 0.400181 -0.74266)
(-0.352036 0.422286 -0.785745)
(-0.367954 0.448595 -0.820183)
(-0.333596 0.39874 -0.735102)
(-0.312091 0.373104 -0.690543)
(-0.332415 0.394996 -0.736326)
(-0.324533 0.379961 -0.695711)
(-0.307998 0.350223 -0.661088)
(-0.324405 0.385104 -0.713511)
(-0.350372 0.418643 -0.778446)
(-0.323522 0.378 -0.70807)
(-0.417199 0.498665 -0.936269)
(-0.408274 0.482133 -0.915868)
(-0.396786 0.473122 -0.895204)
(-0.408304 0.476445 -0.921169)
(-0.403886 0.478071 -0.902886)
(-0.34364 0.408254 -0.77239)
(-0.410007 0.488081 -0.916248)
(-0.367316 0.429723 -0.813102)
(-0.361564 0.420001 -0.808776)
(-0.385478 0.45438 -0.850878)
(-0.259667 0.322909 -0.589429)
(-0.265489 0.334624 -0.612703)
(-0.336208 0.406208 -0.742549)
(-0.313415 0.380914 -0.6986)
(-0.295928 0.368016 -0.668202)
(-0.325621 0.399783 -0.734058)
(-0.309465 0.377742 -0.693726)
(-0.287005 0.346872 -0.639399)
(-0.364529 0.444257 -0.818684)
(-0.360319 0.436453 -0.803524)
(-0.33772 0.41061 -0.74389)
(-0.35331 0.430025 -0.795904)
(-0.350571 0.424847 -0.790929)
(-0.326196 0.388592 -0.718319)
(-0.228186 0.272773 -0.504136)
(-0.212514 0.249042 -0.460367)
(-0.224484 0.260436 -0.495518)
(-0.245318 0.295266 -0.549567)
(-0.234046 0.28238 -0.520303)
(-0.243721 0.295264 -0.548473)
(-0.228898 0.27204 -0.514343)
(-0.215977 0.264302 -0.477186)
(-0.267445 0.324885 -0.602858)
(-0.214806 0.254266 -0.480974)
(-0.248237 0.300338 -0.556131)
(-0.230452 0.283619 -0.51336)
(-0.278179 0.337535 -0.619962)
(-0.239553 0.287856 -0.534954)
(-0.222908 0.266875 -0.496962)
(-0.276749 0.33414 -0.62089)
(-0.286083 0.342094 -0.641964)
(-0.266834 0.324754 -0.601806)
(-0.277882 0.338662 -0.620632)
(-0.235885 0.28198 -0.543658)
(-0.227049 0.277113 -0.502409)
(-0.242519 0.296212 -0.562798)
(-0.238473 0.289608 -0.540796)
(-0.268662 0.310151 -0.598285)
(-0.252053 0.291144 -0.55468)
(-0.256055 0.30791 -0.5661)
(-0.258704 0.307393 -0.583583)
(-0.210828 0.258944 -0.468737)
(-0.232432 0.277505 -0.520667)
(-0.267008 0.329889 -0.612607)
(-0.215594 0.260012 -0.470185)
(-0.434326 0.517299 -0.970269)
(-0.430773 0.514558 -0.963119)
(-0.449029 0.531951 -0.999356)
(-0.448046 0.533061 -0.993396)
(-0.428148 0.513265 -0.953562)
(-0.434011 0.520676 -0.969993)
(-0.421488 0.501281 -0.941034)
(-0.452143 0.537089 -1.00123)
(-0.453163 0.540732 -1.00787)
(-0.458605 0.542672 -1.0105)
(-0.454268 0.539347 -1.01429)
(-0.447193 0.533153 -1.00036)
(-0.43118 0.516271 -0.963971)
(-0.436271 0.523264 -0.981543)
(-0.453425 0.544865 -1.01339)
(-0.453015 0.539866 -1.00613)
(-0.452586 0.539904 -1.00663)
(-0.456733 0.540126 -1.01404)
(-0.316449 0.372607 -0.700838)
(-0.318848 0.383879 -0.705109)
(-0.261136 0.312752 -0.572528)
(-0.224169 0.270762 -0.503043)
(-0.268565 0.312167 -0.597393)
(-0.239935 0.278452 -0.517793)
(-0.252752 0.290089 -0.543146)
(-0.239801 0.28155 -0.531659)
(-0.320179 0.379389 -0.716194)
(-0.348976 0.416585 -0.769174)
(-0.351667 0.420401 -0.775111)
(-0.259172 0.309774 -0.576667)
(-0.229339 0.274977 -0.50681)
(-0.257621 0.300052 -0.564881)
(-0.240738 0.289099 -0.545724)
(-0.289352 0.339743 -0.630922)
(-0.322986 0.382166 -0.705751)
(-0.251337 0.300892 -0.552036)
(-0.274839 0.330928 -0.60683)
(-0.274316 0.33072 -0.604896)
(-0.325804 0.374985 -0.706101)
(-0.305583 0.352342 -0.665906)
(-0.299687 0.341369 -0.662229)
(-0.293321 0.348297 -0.667409)
(-0.306272 0.36307 -0.684207)
(-0.234362 0.273423 -0.528542)
(-0.258921 0.299597 -0.578651)
(-0.233402 0.278617 -0.528344)
(-0.214097 0.24918 -0.476407)
(-0.222116 0.262168 -0.511539)
(-0.224657 0.265011 -0.510258)
(-0.242303 0.297559 -0.568554)
(-0.281963 0.34945 -0.652912)
(-0.224414 0.276259 -0.512978)
(-0.245362 0.291923 -0.566441)
(-0.241925 0.288542 -0.553672)
(-0.235083 0.276338 -0.522225)
(-0.284331 0.338593 -0.632167)
(-0.282525 0.337027 -0.628267)
(-0.294184 0.350516 -0.658704)
(-0.290078 0.348358 -0.661364)
(-0.380371 0.448435 -0.834656)
(-0.331167 0.386735 -0.724439)
(-0.290777 0.346978 -0.65182)
(-0.36611 0.432633 -0.813345)
(-0.358879 0.426449 -0.79738)
(-0.31952 0.374512 -0.702843)
(-0.333584 0.3919 -0.731354)
(-0.346554 0.404821 -0.760812)
(-0.343993 0.406384 -0.767526)
(-0.333017 0.388505 -0.73239)
(-0.340026 0.405053 -0.744476)
(-0.329676 0.392187 -0.730794)
(-0.299306 0.361329 -0.677429)
(-0.377547 0.446021 -0.839994)
(-0.307306 0.370839 -0.687255)
(-0.276374 0.327746 -0.616383)
(-0.302962 0.359229 -0.674547)
(-0.313186 0.371469 -0.698787)
(-0.342534 0.408687 -0.757117)
(-0.311556 0.366069 -0.694646)
(-0.319131 0.383479 -0.718415)
(-0.328522 0.389872 -0.729625)
(-0.303135 0.364982 -0.685056)
(-0.252961 0.306716 -0.563307)
(-0.258535 0.307043 -0.577392)
(-0.257352 0.309263 -0.582468)
(-0.241295 0.29156 -0.541477)
(-0.232384 0.284525 -0.540364)
(-0.212084 0.262631 -0.495313)
(-0.233888 0.282055 -0.518871)
(-0.222762 0.265103 -0.493022)
(-0.294929 0.360235 -0.666979)
(-0.259121 0.310813 -0.585227)
(-0.303306 0.368125 -0.685111)
(-0.397548 0.478029 -0.889902)
(-0.442526 0.529227 -0.977464)
(-0.439311 0.524732 -0.978753)
(-0.467984 0.557945 -1.02876)
(-0.430999 0.519619 -0.957278)
(-0.39072 0.468144 -0.866792)
(-0.382626 0.458107 -0.843986)
(-0.445737 0.536585 -0.988689)
(-0.44381 0.530879 -0.986315)
(-0.433491 0.51143 -0.966611)
(-0.4315 0.522999 -0.964357)
(-0.394564 0.473024 -0.868987)
(-0.452224 0.554764 -1.0153)
(-0.440806 0.520683 -0.97317)
(-0.403417 0.487255 -0.900364)
(-0.407326 0.497992 -0.913882)
(-0.383065 0.46622 -0.858472)
(-0.391729 0.47398 -0.872543)
(-0.401303 0.482617 -0.894212)
(-0.43625 0.525072 -0.973901)
(-0.397011 0.486488 -0.88686)
(-0.427063 0.528131 -0.95937)
(-0.252121 0.310032 -0.581612)
(-0.223505 0.290242 -0.527883)
(-0.331181 0.406937 -0.743477)
(-0.324237 0.397779 -0.734741)
(-0.308601 0.384716 -0.691657)
(-0.30198 0.382971 -0.683196)
(-0.228913 0.29039 -0.529803)
(-0.214393 0.271882 -0.487916)
(-0.206845 0.262968 -0.480972)
(-0.255496 0.308783 -0.573593)
(-0.222287 0.271636 -0.500596)
(-0.19916 0.250275 -0.448613)
(-0.334216 0.412283 -0.759657)
(-0.251177 0.315439 -0.576293)
(-0.218869 0.275429 -0.509446)
(-0.284233 0.355132 -0.654795)
(-0.25568 0.315353 -0.584996)
(-0.25533 0.317392 -0.591483)
(-0.225017 0.289364 -0.517582)
(-0.298121 0.373593 -0.688986)
(-0.404491 0.483312 -0.884192)
(-0.368005 0.445992 -0.821303)
(-0.419489 0.508677 -0.930039)
(-0.412073 0.500838 -0.9118)
(-0.375593 0.44661 -0.818302)
(-0.362797 0.422658 -0.775567)
(-0.395133 0.466351 -0.858145)
(-0.401013 0.476537 -0.872208)
(-0.421662 0.493698 -0.912907)
(-0.342591 0.405558 -0.756018)
(-0.38226 0.456859 -0.846856)
(-0.413693 0.500631 -0.922755)
(-0.391343 0.467378 -0.872561)
(-0.374321 0.443245 -0.810612)
(-0.441252 0.514483 -0.955927)
(-0.416954 0.500326 -0.922265)
(-0.43352 0.520646 -0.968229)
(-0.355701 0.417633 -0.783279)
(-0.367169 0.44302 -0.817978)
(-0.371202 0.440621 -0.806783)