/*--------------------------------*- C++ -*----------------------------------*\
| =========                 |                                                 |
| \\      /  F ield         | OpenFOAM: The Open Source CFD Toolbox           |
|  \\    /   O peration     | Version:  v1612+                                |
|   \\  /    A nd           | Web:      www.OpenFOAM.com                      |
|    \\/     M anipulation  |                                                 |
\*---------------------------------------------------------------------------*/
FoamFile
{
    version     2.0;
    format      ascii;
    class       volVectorField;
    location    "150";
    object      wallShearStress;
}
// * * * * * * * * * * * * * * * * * * * * * * * * * * * * * * * * * * * * * //

dimensions      [0 2 -2 0 0 0 0];

internalField   uniform (0 0 0);

boundaryField
{
    WALL
    {
        type            calculated;
        value           nonuniform List<vector> 
1497
(
(0.00467866 -0.00606032 0.0107319)
(0.00445964 -0.00524955 0.00998865)
(0.00473044 -0.00514339 0.010222)
(0.00490495 -0.00542249 0.0108978)
(0.00483941 -0.00517857 0.0100082)
(0.00464861 -0.00556374 0.0104941)
(0.00453697 -0.00520448 0.00999841)
(0.00447788 -0.00555528 0.0101719)
(0.00447657 -0.00572495 0.0108526)
(0.00431008 -0.00515096 0.0100839)
(0.00474175 -0.00517713 0.0098998)
(0.00420822 -0.00561796 0.0101012)
(0.00438576 -0.00538467 0.0097373)
(0.00450201 -0.00563264 0.0100707)
(0.00468989 -0.00478164 0.00993457)
(0.00418606 -0.00537878 0.00950162)
(0.0047359 -0.00539528 0.0102251)
(0.00475174 -0.00517981 0.00989692)
(0.00456209 -0.00597744 0.0106626)
(0.00515397 -0.00543043 0.010548)
(0.0046792 -0.00588194 0.0105729)
(0.00470499 -0.00584138 0.0105649)
(0.00478905 -0.00620401 0.0106756)
(0.00451225 -0.00529282 0.0099819)
(0.00435173 -0.00550188 0.0100293)
(0.00482477 -0.00570689 0.0105733)
(0.00472132 -0.00490333 0.0100905)
(0.00454606 -0.00542566 0.0101979)
(0.00457361 -0.00559346 0.0100795)
(0.0043157 -0.00535323 0.0098077)
(0.00466227 -0.00558557 0.0103939)
(0.00414735 -0.00535279 0.00991874)
(0.00443623 -0.00557972 0.0102946)
(0.00474369 -0.00577307 0.0105995)
(0.00465471 -0.00547114 0.0104284)
(0.00449886 -0.00567687 0.0102293)
(0.00478099 -0.00570561 0.0106375)
(0.00475994 -0.00536606 0.0101516)
(0.0047594 -0.00556784 0.0103978)
(0.00478812 -0.00556539 0.0103311)
(0.00472486 -0.00543287 0.0101697)
(0.00456615 -0.00555009 0.0101778)
(0.00438814 -0.00552688 0.0101636)
(0.00487238 -0.00568717 0.0106643)
(0.00450304 -0.00539478 0.0101118)
(0.0048247 -0.00532359 0.0101741)
(0.00449055 -0.00556516 0.0102105)
(0.00487022 -0.00545659 0.010502)
(0.00443345 -0.00538423 0.0100455)
(0.00469799 -0.0056676 0.0104717)
(0.004377 -0.00544553 0.0102467)
(0.00427482 -0.00533401 0.00990083)
(0.00469172 -0.00526904 0.010336)
(0.00467912 -0.005341 0.0101353)
(0.00469362 -0.00524404 0.010167)
(0.0045323 -0.00542971 0.0100553)
(0.00451934 -0.00540149 0.00985799)
(0.00457517 -0.0053932 0.0101007)
(0.00481473 -0.0057502 0.0103056)
(0.00491607 -0.00568908 0.0101778)
(0.00446787 -0.00546855 0.0105579)
(0.00433709 -0.00550438 0.00994196)
(0.0044953 -0.00557389 0.0102076)
(0.00484919 -0.00582323 0.0103585)
(0.00438232 -0.00542273 0.0100409)
(0.00403341 -0.00530061 0.010278)
(0.00461302 -0.00561261 0.0100447)
(0.00435831 -0.00529398 0.00981169)
(0.00470658 -0.00580873 0.0102781)
(0.0045634 -0.00559682 0.0100262)
(0.00457045 -0.00554803 0.0104555)
(0.00449118 -0.00547016 0.0102682)
(0.0047123 -0.0056605 0.0103411)
(0.00446659 -0.00531325 0.00997373)
(0.00468132 -0.00558428 0.0105965)
(0.00435487 -0.00542699 0.0103035)
(0.00439982 -0.00539833 0.0100969)
(0.00445122 -0.00533666 0.00982922)
(0.00445865 -0.00529288 0.00949562)
(0.00432694 -0.00532255 0.00975983)
(0.00451813 -0.0051675 0.00939363)
(0.00431454 -0.00546575 0.0101203)
(0.0044851 -0.00535366 0.0105624)
(0.00441345 -0.00544735 0.0106355)
(0.00440365 -0.00523 0.0105213)
(0.00451218 -0.00570129 0.0105836)
(0.00419588 -0.00514897 0.0104764)
(0.00430003 -0.00498765 0.0100925)
(0.00478271 -0.00556236 0.0103332)
(0.00458783 -0.00511224 0.00984281)
(0.0045799 -0.00554128 0.0101654)
(0.00453967 -0.00551555 0.0102127)
(0.0045818 -0.005602 0.010449)
(0.00462927 -0.00554427 0.0104191)
(0.00471578 -0.00565543 0.01037)
(0.00440328 -0.00554521 0.0102808)
(0.00452547 -0.00560872 0.0103311)
(0.00454012 -0.00552166 0.0103708)
(0.00462766 -0.00557384 0.0104993)
(0.00456028 -0.00556132 0.0103546)
(0.00438233 -0.00563814 0.0102411)
(0.00462269 -0.00574577 0.0104287)
(0.00456266 -0.00555275 0.010277)
(0.00473891 -0.00555368 0.0105054)
(0.00465964 -0.00516969 0.0104851)
(0.00486406 -0.00582694 0.010909)
(0.00471818 -0.0054178 0.0103337)
(0.00437254 -0.00527305 0.00987319)
(0.00456681 -0.00554592 0.0103254)
(0.00500068 -0.00589581 0.0112812)
(0.0053057 -0.00605608 0.0114808)
(0.00442031 -0.00604268 0.0103306)
(0.00475674 -0.00554033 0.0102468)
(0.00498149 -0.00574368 0.0114962)
(0.00508217 -0.00539995 0.0108875)
(0.00465185 -0.00565984 0.0103289)
(0.00468739 -0.00546508 0.010182)
(0.00484921 -0.0054891 0.0103112)
(0.00475861 -0.00558551 0.010312)
(0.00473559 -0.00559333 0.010541)
(0.00457133 -0.00551097 0.0101481)
(0.00469216 -0.00547729 0.0103182)
(0.0045221 -0.00559348 0.0102781)
(0.00465767 -0.00548648 0.010239)
(0.0045416 -0.00532928 0.0100683)
(0.00463614 -0.00538237 0.0101841)
(0.00472264 -0.00530323 0.0100821)
(0.0046594 -0.00554812 0.0105664)
(0.00493579 -0.00577506 0.010851)
(0.00463928 -0.00562587 0.0103155)
(0.00475766 -0.00552937 0.010489)
(0.00457873 -0.00547176 0.0102351)
(0.00454035 -0.00547599 0.0102039)
(0.00442896 -0.00526675 0.00992888)
(0.00452823 -0.00548891 0.0100954)
(0.00462482 -0.00556706 0.0103544)
(0.00438289 -0.00531845 0.00971157)
(0.00458667 -0.0053275 0.0102926)
(0.00461435 -0.00575883 0.0104609)
(0.00520466 -0.00496804 0.0100258)
(0.00475358 -0.00513869 0.00988666)
(0.00458752 -0.00531817 0.00975525)
(0.00501607 -0.00590034 0.0112485)
(0.00507417 -0.00566044 0.0103742)
(0.00521355 -0.00653924 0.0113768)
(0.00508162 -0.00593478 0.0110341)
(0.00503818 -0.00577462 0.0110543)
(0.0048966 -0.00566427 0.0109789)
(0.00479684 -0.00597295 0.011286)
(0.00536238 -0.00624754 0.0117941)
(0.00489236 -0.00608377 0.0107165)
(0.00496684 -0.00560848 0.0108259)
(0.0049731 -0.0057903 0.0109915)
(0.00475484 -0.00592243 0.0106737)
(0.00481973 -0.00599035 0.0108926)
(0.00471122 -0.00555982 0.0104448)
(0.00466535 -0.00529965 0.0103151)
(0.00474437 -0.00526391 0.0103406)
(0.00477053 -0.0054931 0.0106442)
(0.00483668 -0.00538329 0.0103845)
(0.00476616 -0.00554444 0.0104412)
(0.0046632 -0.00570579 0.0105946)
(0.00476294 -0.00539857 0.0101793)
(0.00476441 -0.00536257 0.0103092)
(0.00463946 -0.00554417 0.0104898)
(0.00468983 -0.00567957 0.0102607)
(0.00461297 -0.00557247 0.0102548)
(0.004748 -0.00545543 0.0105349)
(0.0053121 -0.00672703 0.0115511)
(0.00466117 -0.00614652 0.010547)
(0.00419487 -0.00505497 0.00999309)
(0.00430501 -0.0051474 0.0100464)
(0.0052693 -0.00656393 0.011709)
(0.0046321 -0.00564626 0.0110203)
(0.00439839 -0.0056861 0.0103658)
(0.00450293 -0.00568977 0.010244)
(0.00459963 -0.00536683 0.0100511)
(0.00449033 -0.00573831 0.010427)
(0.00444574 -0.0054688 0.0101974)
(0.00504605 -0.00587624 0.0111473)
(0.00514534 -0.00595875 0.0110501)
(0.00493537 -0.00566014 0.0105179)
(0.00512504 -0.00605531 0.0109817)
(0.00468305 -0.00598238 0.0108314)
(0.00498912 -0.00597801 0.0105383)
(0.00444079 -0.00522941 0.00956918)
(0.00449517 -0.00532866 0.00992941)
(0.00497804 -0.005676 0.0102952)
(0.0046057 -0.00563481 0.0103403)
(0.004598 -0.00531289 0.0099933)
(0.00492618 -0.00566285 0.0107101)
(0.00461191 -0.00540086 0.0100884)
(0.00457626 -0.00551178 0.0101341)
(0.00468143 -0.00550002 0.0102071)
(0.00463962 -0.0054605 0.0100775)
(0.00482554 -0.00534008 0.0101327)
(0.00488139 -0.00582655 0.0109562)
(0.00453024 -0.00547594 0.01)
(0.00490543 -0.00570672 0.0105413)
(0.00526336 -0.00600351 0.010804)
(0.00421544 -0.00537867 0.0104787)
(0.0049642 -0.00593222 0.0107045)
(0.00482024 -0.0055423 0.0109401)
(0.00496799 -0.00557059 0.0107911)
(0.00464183 -0.00513089 0.0100929)
(0.00440583 -0.00565967 0.0100745)
(0.00456089 -0.0053913 0.0100079)
(0.00467902 -0.00532104 0.0102991)
(0.00502263 -0.00603519 0.0108181)
(0.00546597 -0.00609114 0.0117117)
(0.0046465 -0.00540153 0.0108873)
(0.00512838 -0.00642777 0.0110687)
(0.0047176 -0.00562617 0.0109728)
(0.0048787 -0.00572355 0.0116465)
(0.00453153 -0.0054196 0.0106154)
(0.00485288 -0.00580977 0.010545)
(0.00508521 -0.00595582 0.0110281)
(0.00476596 -0.00568717 0.0108359)
(0.00458813 -0.00570493 0.0104485)
(0.00499459 -0.00610104 0.0108993)
(0.00438529 -0.0053629 0.0101093)
(0.00430185 -0.00532053 0.00981999)
(0.00434767 -0.00545348 0.0100486)
(0.00475575 -0.00595121 0.0103313)
(0.00447355 -0.00573554 0.0103401)
(0.00502767 -0.00600622 0.0104758)
(0.00483907 -0.00568195 0.0104199)
(0.00464171 -0.00546907 0.0102922)
(0.00433679 -0.00531897 0.0103807)
(0.00414358 -0.0053618 0.00989566)
(0.00417457 -0.00523638 0.00979265)
(0.00440415 -0.00546021 0.010092)
(0.0044318 -0.00538233 0.0101079)
(0.00428687 -0.00545301 0.00992679)
(0.00424071 -0.00547869 0.00967756)
(0.0043276 -0.00544112 0.009881)
(0.00432581 -0.00565233 0.0100082)
(0.00456217 -0.00587112 0.0107137)
(0.00473844 -0.00567299 0.0107223)
(0.00462207 -0.00559006 0.0108913)
(0.00462568 -0.0055044 0.0100606)
(0.00479939 -0.00557232 0.0103681)
(0.00451186 -0.0053772 0.010286)
(0.00450015 -0.00561925 0.0106566)
(0.0045063 -0.00548185 0.0100511)
(0.00451789 -0.00546401 0.00987567)
(0.00465096 -0.00557526 0.0102941)
(0.00416861 -0.00544092 0.0100638)
(0.00437467 -0.00527728 0.00968832)
(0.00443091 -0.00574874 0.0105121)
(0.00466374 -0.00566339 0.0106512)
(0.00453119 -0.00596033 0.0108615)
(0.00470435 -0.00576661 0.0109494)
(0.00465363 -0.00584616 0.0106662)
(0.00473308 -0.00569744 0.0104934)
(0.00443535 -0.00557807 0.0103289)
(0.0048763 -0.00559983 0.0104314)
(0.00480462 -0.00561251 0.0104229)
(0.00472804 -0.00552444 0.0102703)
(0.00493961 -0.00571146 0.0105918)
(0.00483598 -0.0056144 0.0104006)
(0.00516268 -0.00604773 0.0116196)
(0.00463919 -0.00551602 0.0104953)
(0.00457167 -0.00555683 0.0104087)
(0.0050196 -0.00565879 0.0105183)
(0.00459914 -0.00559722 0.0103398)
(0.00460337 -0.00564862 0.0100433)
(0.00480271 -0.00566615 0.0102929)
(0.0046085 -0.00552568 0.0102549)
(0.00481624 -0.00541482 0.0100391)
(0.00468897 -0.0057501 0.0104969)
(0.00458468 -0.00567225 0.0105148)
(0.00481265 -0.00554766 0.0101207)
(0.00421448 -0.00579769 0.00991961)
(0.00450481 -0.00571518 0.0102787)
(0.00474621 -0.00566764 0.0105668)
(0.00456811 -0.00587208 0.0106157)
(0.00454109 -0.005576 0.0101434)
(0.00467314 -0.00584759 0.0105562)
(0.0046946 -0.00523164 0.0100992)
(0.0043225 -0.00552 0.0100037)
(0.00442033 -0.00571888 0.010153)
(0.00448281 -0.00536888 0.010023)
(0.00433645 -0.00565894 0.0101481)
(0.00450325 -0.00551604 0.00999055)
(0.00465793 -0.00574932 0.0104063)
(0.00438036 -0.00560629 0.0102687)
(0.00450024 -0.00537753 0.00994498)
(0.00468172 -0.00522296 0.0100742)
(0.00462831 -0.00541415 0.0102263)
(0.00459077 -0.00524062 0.0100173)
(0.00454633 -0.00543369 0.00990383)
(0.00448366 -0.00492569 0.00978274)
(0.00436521 -0.0053059 0.00981308)
(0.00442692 -0.00529011 0.0097945)
(0.00448871 -0.00520391 0.00971485)
(0.00454931 -0.00516053 0.00969107)
(0.00452014 -0.00527854 0.0098007)
(0.00444351 -0.00520056 0.0095986)
(0.00468839 -0.00566627 0.0104713)
(0.00453396 -0.00520954 0.00965348)
(0.0044448 -0.00530589 0.00987279)
(0.0045808 -0.00509375 0.00991123)
(0.00438887 -0.00513029 0.00980765)
(0.00423088 -0.00541563 0.0101418)
(0.00476398 -0.0049684 0.00992756)
(0.00424436 -0.00524921 0.00978959)
(0.00464984 -0.0052005 0.0099371)
(0.00450724 -0.00519405 0.00969839)
(0.00485512 -0.00586849 0.0108933)
(0.00450808 -0.00561704 0.0104034)
(0.00446195 -0.00549861 0.0100802)
(0.004745 -0.00562975 0.0104846)
(0.0043463 -0.00533815 0.00996936)
(0.00438706 -0.00564591 0.0105856)
(0.0046319 -0.00549049 0.0100525)
(0.00475937 -0.00547466 0.0106719)
(0.00453607 -0.00549088 0.0103548)
(0.00432084 -0.00541143 0.0101905)
(0.00455953 -0.0060426 0.0110295)
(0.0045591 -0.00556222 0.0107237)
(0.00465034 -0.00551178 0.0103837)
(0.00449858 -0.0055562 0.0102084)
(0.00442754 -0.00554017 0.0102337)
(0.00439822 -0.00546128 0.010182)
(0.00456701 -0.00549757 0.0101777)
(0.00460706 -0.00567961 0.0104517)
(0.00444807 -0.00543573 0.0101869)
(0.00465071 -0.00540496 0.0101922)
(0.00459704 -0.00554558 0.0103633)
(0.0046107 -0.00571058 0.0104397)
(0.00445393 -0.00584882 0.0101524)
(0.00477387 -0.00570966 0.0107538)
(0.00481132 -0.00590979 0.0108684)
(0.00463833 -0.0059815 0.0104067)
(0.00451655 -0.00558518 0.0102869)
(0.00503111 -0.00552342 0.01053)
(0.00484165 -0.00565944 0.0101157)
(0.00451168 -0.00579489 0.0102625)
(0.00460787 -0.00614771 0.0104097)
(0.00544357 -0.00684872 0.0111962)
(0.00479289 -0.00590253 0.0112424)
(0.00495929 -0.00622254 0.0112294)
(0.0050088 -0.00620675 0.010831)
(0.00490099 -0.00613978 0.0105513)
(0.00494874 -0.00591829 0.0109028)
(0.00479346 -0.00568622 0.0100976)
(0.00422808 -0.00492217 0.0098626)
(0.00444461 -0.005629 0.0103745)
(0.00479889 -0.00579957 0.0102936)
(0.00450712 -0.00528392 0.00945041)
(0.00478671 -0.00594787 0.0101471)
(0.00441912 -0.00520638 0.010342)
(0.00447868 -0.00577115 0.0102414)
(0.00473125 -0.00589155 0.0113944)
(0.00445687 -0.00546114 0.0101059)
(0.00437023 -0.00556143 0.00988994)
(0.00450367 -0.00566073 0.010022)
(0.00454202 -0.00533869 0.00986187)
(0.00471773 -0.00549072 0.0101088)
(0.00442702 -0.00533243 0.00993761)
(0.00421 -0.00508523 0.00950322)
(0.00436731 -0.0052126 0.00973722)
(0.00453961 -0.00513105 0.00959549)
(0.00478423 -0.00511468 0.00960589)
(0.00454122 -0.00522879 0.00983922)
(0.00447981 -0.00489912 0.00917498)
(0.0045564 -0.00528793 0.00986028)
(0.00486253 -0.00544048 0.0102442)
(0.00460135 -0.00514297 0.00964207)
(0.00414278 -0.00514214 0.00957858)
(0.0044056 -0.00530515 0.00988444)
(0.00448804 -0.00532784 0.00987315)
(0.00406462 -0.00497333 0.00939953)
(0.00427051 -0.00521937 0.00950543)
(0.00402765 -0.00539579 0.0100685)
(0.00409781 -0.00485914 0.00927595)
(0.00416266 -0.00489112 0.0090257)
(0.0041279 -0.00496116 0.00924441)
(0.00453707 -0.00518188 0.00944876)
(0.00450903 -0.00544908 0.0099475)
(0.00450804 -0.00575333 0.0106666)
(0.00432731 -0.00529369 0.0097362)
(0.00446356 -0.00545118 0.0100018)
(0.00437774 -0.00544329 0.0100261)
(0.00425891 -0.00534695 0.00991639)
(0.00420779 -0.0052945 0.00981776)
(0.00468501 -0.00578315 0.0107721)
(0.00466543 -0.00585818 0.0102443)
(0.0047938 -0.0058399 0.0105417)
(0.00439781 -0.00531051 0.0100582)
(0.00476871 -0.00581446 0.0102416)
(0.00439656 -0.00558975 0.0102921)
(0.00437129 -0.00541748 0.00978241)
(0.00452265 -0.00543992 0.0105884)
(0.00459336 -0.00580156 0.0106362)
(0.00475358 -0.00567625 0.0101679)
(0.00481977 -0.0059716 0.0105602)
(0.00444829 -0.00532753 0.00993468)
(0.00475162 -0.00592579 0.0106337)
(0.00458547 -0.00564855 0.0110003)
(0.00490197 -0.00621884 0.0113587)
(0.00463905 -0.00559555 0.0105759)
(0.00501729 -0.00606032 0.0111928)
(0.00493866 -0.00603691 0.0109449)
(0.00453889 -0.00546697 0.0102039)
(0.00467441 -0.00543136 0.0101206)
(0.00466767 -0.00542041 0.0102029)
(0.00487763 -0.00530845 0.0101792)
(0.00444725 -0.00545999 0.0101356)
(0.00476486 -0.00533763 0.00998228)
(0.00455635 -0.00526551 0.00986608)
(0.0048768 -0.00542221 0.0101452)
(0.00452924 -0.00547439 0.0101376)
(0.00446026 -0.00541613 0.0100366)
(0.00450444 -0.00542311 0.010099)
(0.00461554 -0.00550053 0.0102608)
(0.00487512 -0.00561909 0.01063)
(0.00467736 -0.0056746 0.0105289)
(0.00445174 -0.0057719 0.010444)
(0.00448025 -0.00570316 0.0103928)
(0.00479947 -0.00557441 0.0104755)
(0.00483807 -0.00543309 0.0102822)
(0.00463411 -0.00496623 0.0102896)
(0.00430355 -0.005613 0.0101079)
(0.00447919 -0.00520359 0.0101057)
(0.00458744 -0.00546877 0.0102603)
(0.00481683 -0.00546947 0.0102698)
(0.00451775 -0.00470638 0.00995046)
(0.00434267 -0.00575355 0.0100173)
(0.00418603 -0.00551927 0.00985543)
(0.00479631 -0.00559358 0.0106749)
(0.00471066 -0.00566129 0.0104832)
(0.00507675 -0.00613971 0.0113286)
(0.00459336 -0.00597196 0.0107202)
(0.00452722 -0.00491666 0.00979795)
(0.00454411 -0.00537971 0.0100047)
(0.00465577 -0.00527744 0.0099054)
(0.00516648 -0.00535611 0.0107719)
(0.00471369 -0.00494987 0.00999335)
(0.0045539 -0.00569523 0.0104496)
(0.00450719 -0.00561071 0.0102066)
(0.00447478 -0.00551422 0.0101169)
(0.00445884 -0.00554171 0.0100485)
(0.00478368 -0.00557246 0.0106899)
(0.0045116 -0.00569644 0.010428)
(0.00517776 -0.00555793 0.0108447)
(0.00487261 -0.00580893 0.0107021)
(0.00490175 -0.00613937 0.0108461)
(0.004964 -0.00596862 0.0110847)
(0.00466521 -0.00572472 0.0106873)
(0.00452019 -0.00595596 0.0104923)
(0.00478934 -0.00587266 0.0106684)
(0.00464903 -0.00577579 0.010568)
(0.00466998 -0.00617448 0.0107096)
(0.00489948 -0.00551558 0.0104026)
(0.00472373 -0.00578649 0.0101665)
(0.00425752 -0.00556631 0.00980842)
(0.00484271 -0.00607108 0.0109165)
(0.00475202 -0.00592928 0.0109536)
(0.00461266 -0.00540535 0.0111465)
(0.00489348 -0.00532091 0.0107251)
(0.00471708 -0.00548201 0.0105843)
(0.00456269 -0.00533409 0.0102758)
(0.00474153 -0.00528967 0.0103573)
(0.00457825 -0.00544554 0.0101916)
(0.0047466 -0.00569438 0.0105274)
(0.00460356 -0.00520085 0.0102525)
(0.00465565 -0.00561442 0.0102633)
(0.00438076 -0.00552927 0.00984493)
(0.00483112 -0.00564803 0.0106013)
(0.00424665 -0.00556607 0.00981631)
(0.00466925 -0.0049527 0.0097983)
(0.00492573 -0.00541198 0.0105395)
(0.00432611 -0.00573652 0.0101533)
(0.00460603 -0.00551285 0.0100574)
(0.0047746 -0.0056164 0.010559)
(0.00489696 -0.00507836 0.0101888)
(0.0048198 -0.00492388 0.0103164)
(0.00465815 -0.00551155 0.0102921)
(0.00462991 -0.00563148 0.0108214)
(0.0044617 -0.0053299 0.0101746)
(0.00441777 -0.00538522 0.0101711)
(0.00424294 -0.00504286 0.0098525)
(0.00454163 -0.00578058 0.0108501)
(0.00444325 -0.00523075 0.0103134)
(0.0044181 -0.00561335 0.0102229)
(0.00499909 -0.00559031 0.0108883)
(0.0046879 -0.00539204 0.0107341)
(0.00448173 -0.00525779 0.0101901)
(0.00474586 -0.00555706 0.0108368)
(0.0046447 -0.00579032 0.0103442)
(0.00473641 -0.0056141 0.0102711)
(0.0046996 -0.00552816 0.0102056)
(0.00457088 -0.00533171 0.0099667)
(0.0044001 -0.00535408 0.00989012)
(0.00451778 -0.00540386 0.00999691)
(0.00441847 -0.00541239 0.0100363)
(0.00465151 -0.00548007 0.0101903)
(0.00466591 -0.005589 0.0103983)
(0.00465629 -0.00538106 0.00977899)
(0.00476045 -0.00558281 0.00995008)
(0.00464321 -0.0054237 0.010342)
(0.0048144 -0.00569613 0.0101417)
(0.00436701 -0.00521285 0.0102561)
(0.00455457 -0.00575002 0.0107568)
(0.00426722 -0.00514218 0.00959124)
(0.00445352 -0.00535154 0.00994763)
(0.0045359 -0.00547945 0.00999766)
(0.00460451 -0.00561218 0.0101673)
(0.00427151 -0.00533121 0.0101297)
(0.004527 -0.00530766 0.0100147)
(0.004327 -0.00524259 0.00985162)
(0.0044616 -0.00556456 0.0101051)
(0.00457813 -0.00548196 0.0105545)
(0.00409233 -0.00503215 0.00950376)
(0.00468265 -0.0054907 0.00965151)
(0.0044187 -0.00525375 0.00969299)
(0.00400772 -0.00512088 0.00965887)
(0.00418488 -0.00506235 0.0095956)
(0.00420248 -0.00511038 0.00961436)
(0.00437307 -0.00553903 0.0101377)
(0.00461075 -0.00559495 0.0103115)
(0.00415599 -0.0051617 0.00994779)
(0.00437305 -0.00545081 0.0103335)
(0.00413036 -0.00500576 0.00961564)
(0.00426093 -0.00524496 0.00983926)
(0.00455512 -0.00576533 0.0107694)
(0.00512396 -0.00595485 0.0107101)
(0.00519704 -0.00614308 0.0107587)
(0.00471669 -0.00546678 0.0108416)
(0.00498055 -0.00618864 0.0105269)
(0.00483665 -0.00547348 0.00995654)
(0.00453048 -0.00559839 0.0104244)
(0.00459405 -0.0056665 0.0102146)
(0.00478966 -0.0053874 0.01026)
(0.00454513 -0.0056043 0.0102367)
(0.00465159 -0.00540834 0.0103193)
(0.00446963 -0.00576304 0.0103745)
(0.00442872 -0.00546687 0.0100394)
(0.00481236 -0.00577033 0.0106725)
(0.00450968 -0.00506587 0.00980651)
(0.00454957 -0.00533935 0.010049)
(0.00437635 -0.00536448 0.00988258)
(0.00481309 -0.00542358 0.010361)
(0.0046017 -0.0055839 0.0103273)
(0.00469355 -0.00535712 0.0102059)
(0.00481584 -0.00548992 0.010453)
(0.00463754 -0.00546653 0.00995857)
(0.00438087 -0.00545251 0.00986591)
(0.00440189 -0.00530718 0.00994193)
(0.00450182 -0.0054473 0.00998142)
(0.00449341 -0.00531414 0.0100309)
(0.0043169 -0.00543996 0.00996676)
(0.00442599 -0.00553247 0.0101141)
(0.00449873 -0.00557897 0.0102582)
(0.00482935 -0.00568257 0.0108525)
(0.00487347 -0.005434 0.0101961)
(0.00472635 -0.00577004 0.0106595)
(0.00449731 -0.00579814 0.0106469)
(0.00481362 -0.00564187 0.0103785)
(0.00469508 -0.00557954 0.0100524)
(0.00465927 -0.00563672 0.0104777)
(0.00514074 -0.0058792 0.0106098)
(0.00488583 -0.00575788 0.0105386)
(0.00484389 -0.0056377 0.0102174)
(0.00480932 -0.00559954 0.0104517)
(0.0047242 -0.00575187 0.010521)
(0.0049579 -0.00597724 0.0106529)
(0.00457898 -0.00557763 0.0101411)
(0.00488525 -0.00572117 0.0103783)
(0.00524258 -0.00624204 0.0107085)
(0.00479502 -0.00530886 0.0108437)
(0.00482205 -0.00593394 0.0110465)
(0.00521272 -0.00646403 0.011295)
(0.00487128 -0.00567087 0.0107022)
(0.00506075 -0.00589421 0.0109297)
(0.00470757 -0.0060387 0.0106637)
(0.00494403 -0.00627748 0.0108844)
(0.0050048 -0.00591073 0.0108989)
(0.00453828 -0.00554676 0.0108028)
(0.00500133 -0.00598652 0.0109833)
(0.00509871 -0.00620208 0.0111962)
(0.00458169 -0.00592709 0.0104305)
(0.00434308 -0.00537403 0.00981288)
(0.0045563 -0.00560245 0.0103112)
(0.00449476 -0.00547214 0.0102604)
(0.00492718 -0.00567658 0.0108064)
(0.00443535 -0.00549161 0.0101177)
(0.00441479 -0.0057062 0.00984414)
(0.0044906 -0.00578643 0.0102474)
(0.00463198 -0.0056879 0.0104551)
(0.00414327 -0.00564722 0.00981403)
(0.00479696 -0.00527781 0.0103705)
(0.0047415 -0.00554243 0.010541)
(0.00465973 -0.00548347 0.0102659)
(0.00472868 -0.0055677 0.0100667)
(0.00477255 -0.00574378 0.010683)
(0.00476252 -0.00567014 0.0107112)
(0.00470943 -0.00543954 0.0104571)
(0.0047772 -0.00543419 0.0104659)
(0.0047942 -0.00572775 0.0103477)
(0.00479012 -0.00527792 0.0104612)
(0.00481809 -0.00572357 0.0109162)
(0.00451331 -0.00541706 0.0103645)
(0.00477401 -0.00591212 0.0108615)
(0.00462773 -0.00564608 0.0104279)
(0.00448418 -0.00551133 0.00975386)
(0.0045506 -0.00536626 0.0103446)
(0.00462122 -0.0052143 0.0101945)
(0.00446706 -0.00519052 0.0101169)
(0.00439139 -0.00560136 0.0100658)
(0.00456388 -0.00535881 0.0102786)
(0.00466062 -0.00546051 0.0103021)
(0.00471818 -0.00555513 0.0109881)
(0.00453686 -0.00562306 0.010504)
(0.00455462 -0.00541299 0.0101165)
(0.00481698 -0.00557941 0.0105961)
(0.0046541 -0.00522669 0.0103792)
(0.00488787 -0.0059521 0.011104)
(0.00460818 -0.00527771 0.0101759)
(0.00484303 -0.00540344 0.0108654)
(0.00478188 -0.00523154 0.0104829)
(0.00451584 -0.00531124 0.0101362)
(0.00464697 -0.00545773 0.0100411)
(0.00444001 -0.00538929 0.00980411)
(0.00461149 -0.00587682 0.0105204)
(0.00478487 -0.0063255 0.0106786)
(0.00479553 -0.0059088 0.0105976)
(0.00485709 -0.00597137 0.0109431)
(0.00481931 -0.00640089 0.0107459)
(0.00460023 -0.00515896 0.00982983)
(0.00439164 -0.00516238 0.00976999)
(0.00496135 -0.00533161 0.0103398)
(0.004556 -0.00517537 0.0100549)
(0.00464424 -0.00559294 0.0103161)
(0.00487731 -0.00568461 0.0107646)
(0.00442505 -0.00539494 0.0101743)
(0.0042394 -0.00518709 0.009641)
(0.00448915 -0.00535319 0.0100924)
(0.00478932 -0.00555611 0.010069)
(0.00471865 -0.00566207 0.0102659)
(0.00460565 -0.00566705 0.0102137)
(0.00433447 -0.00506247 0.00938215)
(0.00465188 -0.00516997 0.0097425)
(0.00457868 -0.00521837 0.00969682)
(0.00470299 -0.00580832 0.0104229)
(0.00461753 -0.00554946 0.0101155)
(0.00477206 -0.00579049 0.0104962)
(0.0047433 -0.00571341 0.0103949)
(0.00496893 -0.00578938 0.010809)
(0.00483316 -0.00591316 0.0108997)
(0.00503287 -0.00541138 0.0102576)
(0.00468842 -0.00606799 0.0109888)
(0.00460039 -0.00556975 0.0103105)
(0.0046592 -0.0058022 0.0104006)
(0.00494735 -0.00560169 0.0105727)
(0.00467227 -0.00570256 0.0105526)
(0.0046824 -0.00561373 0.0104576)
(0.0044466 -0.00551541 0.0104738)
(0.0048929 -0.00585034 0.0107059)
(0.00458692 -0.00562517 0.00982609)
(0.00459271 -0.00575199 0.0109017)
(0.00441008 -0.00533212 0.0097396)
(0.00474092 -0.00588912 0.0107589)
(0.00462128 -0.00566657 0.0100554)
(0.00433403 -0.00517101 0.00979987)
(0.00452254 -0.00569837 0.0100316)
(0.00460937 -0.00569571 0.0101627)
(0.00462625 -0.0056808 0.0108971)
(0.004661 -0.00552953 0.0102765)
(0.0046368 -0.00584722 0.0102559)
(0.00447165 -0.0053826 0.00986651)
(0.00450617 -0.00560163 0.0100284)
(0.00456712 -0.00590683 0.0107569)
(0.00405924 -0.00524222 0.0100581)
(0.00411977 -0.00491819 0.00960407)
(0.00427549 -0.00539603 0.0101878)
(0.00442194 -0.00552325 0.0104624)
(0.00454238 -0.00577759 0.0111222)
(0.00441062 -0.00541239 0.0103546)
(0.00450319 -0.00573187 0.0103967)
(0.0047091 -0.00598904 0.0113081)
(0.00481752 -0.00591047 0.0106769)
(0.00490263 -0.00585465 0.0106121)
(0.00466662 -0.00538301 0.0105042)
(0.00487952 -0.00570622 0.0103758)
(0.00490312 -0.00568234 0.0104886)
(0.00451996 -0.00556985 0.0106144)
(0.00471598 -0.00569465 0.0110295)
(0.00463725 -0.00548408 0.0102278)
(0.00472509 -0.00560937 0.0102567)
(0.00484392 -0.00574099 0.0107241)
(0.00445933 -0.00530173 0.010289)
(0.00401501 -0.00510406 0.00923264)
(0.00404257 -0.00537352 0.0101097)
(0.00451228 -0.00531451 0.00993376)
(0.00489474 -0.0055529 0.00985688)
(0.00446081 -0.00524837 0.00974418)
(0.00470106 -0.00540857 0.00981791)
(0.00450825 -0.00540358 0.0097635)
(0.00460484 -0.0057787 0.0104637)
(0.00430295 -0.00521524 0.00978959)
(0.0041195 -0.00492868 0.00943157)
(0.00455068 -0.00548323 0.0100547)
(0.00438186 -0.00540276 0.00988291)
(0.00452253 -0.00531709 0.00973424)
(0.00457912 -0.00535694 0.00975115)
(0.00421479 -0.00514691 0.00943541)
(0.00440067 -0.00526971 0.00952776)
(0.0042456 -0.0052426 0.00958027)
(0.00441819 -0.00514957 0.00922223)
(0.00447312 -0.0055303 0.0100777)
(0.003882 -0.00477538 0.00904613)
(0.00444824 -0.00519527 0.00940024)
(0.00460779 -0.00527997 0.00982686)
(0.00436369 -0.00531092 0.00952934)
(0.00471018 -0.00573241 0.0101266)
(0.00432084 -0.00524994 0.0100722)
(0.00415617 -0.00504473 0.00943951)
(0.00466891 -0.00528561 0.00983304)
(0.00458229 -0.00535206 0.00996125)
(0.00437103 -0.00515272 0.00965756)
(0.00437699 -0.00504943 0.00938748)
(0.00409347 -0.00510064 0.00943397)
(0.00416157 -0.00515121 0.00950482)
(0.00416434 -0.00511207 0.0094917)
(0.0041719 -0.00533779 0.00998441)
(0.00470922 -0.00568724 0.010433)
(0.00455275 -0.00532503 0.0104983)
(0.00462687 -0.00568542 0.010849)
(0.00426738 -0.00531013 0.0102978)
(0.00419735 -0.00496305 0.0097351)
(0.00442949 -0.00510743 0.00981934)
(0.00449456 -0.00551393 0.00983439)
(0.00453299 -0.0054292 0.0102819)
(0.00445869 -0.00542015 0.0101563)
(0.00451542 -0.0056075 0.010658)
(0.00448735 -0.00524 0.0101026)
(0.00434569 -0.00483871 0.0102113)
(0.00412023 -0.0050206 0.0108278)
(0.00389722 -0.0044982 0.00939546)
(0.0042293 -0.00548942 0.00999715)
(0.00412779 -0.00449111 0.0101602)
(0.00456012 -0.00578111 0.00998758)
(0.00460881 -0.00537429 0.00968045)
(0.00451692 -0.00466167 0.0101132)
(0.00426974 -0.00506774 0.00982901)
(0.00431242 -0.0053486 0.00977784)
(0.00454386 -0.00553461 0.0102942)
(0.00455902 -0.00516255 0.0100761)
(0.00460281 -0.00550926 0.0105)
(0.00444129 -0.00511332 0.0102242)
(0.00441107 -0.00479436 0.00974681)
(0.00444844 -0.00545741 0.0101351)
(0.0045973 -0.0055097 0.0106788)
(0.00463832 -0.0056057 0.0102316)
(0.00448583 -0.00523966 0.0104627)
(0.00425263 -0.00541684 0.0104848)
(0.004085 -0.00483827 0.00974062)
(0.00404035 -0.00483647 0.00925914)
(0.00451198 -0.00547529 0.0099695)
(0.0047692 -0.00556596 0.010545)
(0.0045832 -0.00554482 0.0101571)
(0.0048868 -0.00574007 0.0107307)
(0.00440079 -0.00562775 0.0102805)
(0.00476118 -0.00531735 0.00991125)
(0.00433631 -0.00534552 0.0100129)
(0.00460562 -0.00557865 0.0105236)
(0.00501823 -0.0057939 0.0106999)
(0.00497042 -0.00576222 0.0104688)
(0.00462514 -0.00554845 0.0100642)
(0.00466466 -0.00566076 0.0101563)
(0.00474025 -0.00557858 0.0102721)
(0.00449898 -0.00557269 0.0101934)
(0.00474254 -0.00539199 0.0099615)
(0.00445721 -0.00545076 0.0100253)
(0.00447405 -0.00558461 0.0100766)
(0.00466946 -0.00583243 0.0105897)
(0.00435119 -0.00579562 0.0103042)
(0.00450279 -0.00545652 0.00985722)
(0.00436622 -0.00566665 0.0102503)
(0.00433676 -0.00542857 0.0100634)
(0.00462018 -0.00553746 0.0105902)
(0.00470857 -0.00578127 0.0105191)
(0.00458119 -0.00552456 0.0106036)
(0.00438404 -0.00559915 0.0104904)
(0.00454609 -0.00570861 0.0102914)
(0.00480493 -0.00570454 0.010724)
(0.00454031 -0.00534507 0.0101257)
(0.00459151 -0.00556656 0.0106533)
(0.0047442 -0.00605248 0.0104752)
(0.00447165 -0.00586315 0.00999813)
(0.00453128 -0.00596009 0.00998082)
(0.00514818 -0.00655954 0.0109678)
(0.00446036 -0.00550957 0.0102192)
(0.00457221 -0.00544629 0.0104524)
(0.00438129 -0.00545856 0.0100098)
(0.00465395 -0.00604281 0.0101917)
(0.00490478 -0.00566319 0.0108339)
(0.00456694 -0.00556229 0.0101938)
(0.00471151 -0.00528935 0.0104952)
(0.00438462 -0.00566416 0.0104121)
(0.00462256 -0.0053938 0.0101441)
(0.00471681 -0.00540106 0.0103912)
(0.00448127 -0.00531076 0.0101525)
(0.00435569 -0.005578 0.00987532)
(0.00454673 -0.00548982 0.0102014)
(0.00463492 -0.00507113 0.00981193)
(0.00436539 -0.0053403 0.00992324)
(0.00428981 -0.00547416 0.00977359)
(0.00445289 -0.00539481 0.0100749)
(0.00458851 -0.00543698 0.0104821)
(0.00469098 -0.00547992 0.0106308)
(0.00478851 -0.00550422 0.0105102)
(0.00434421 -0.00551721 0.00969857)
(0.00429581 -0.00550871 0.00946266)
(0.00475642 -0.00562248 0.0104517)
(0.00456076 -0.00561753 0.0098955)
(0.0043431 -0.00580224 0.0100383)
(0.00442376 -0.00569045 0.00998056)
(0.00421773 -0.00570646 0.0101604)
(0.00432108 -0.00541377 0.0098937)
(0.00440239 -0.00534535 0.0098533)
(0.00475853 -0.00588707 0.0109109)
(0.00446211 -0.00541976 0.0101687)
(0.00459094 -0.00546244 0.0102003)
(0.00404359 -0.0053249 0.0096005)
(0.00456133 -0.00545968 0.0101544)
(0.00439023 -0.00565637 0.0104724)
(0.00459915 -0.0053543 0.0104346)
(0.00429708 -0.00531419 0.00986589)