/*--------------------------------*- C++ -*----------------------------------*\
| =========                 |                                                 |
| \\      /  F ield         | OpenFOAM: The Open Source CFD Toolbox           |
|  \\    /   O peration     | Version:  v1612+                                |
|   \\  /    A nd           | Web:      www.OpenFOAM.com                      |
|    \\/     M anipulation  |                                                 |
\*---------------------------------------------------------------------------*/
FoamFile
{
    version     2.0;
    format      ascii;
    class       volVectorField;
    location    "239";
    object      wallShearStress;
}
// * * * * * * * * * * * * * * * * * * * * * * * * * * * * * * * * * * * * * //

dimensions      [0 2 -2 0 0 0 0];

internalField   uniform (0 0 0);

boundaryField
{
    WALL
    {
        type            calculated;
        value           nonuniform List<vector> 
1514
(
(-0.00862246 0.0108573 0.0125651)
(-0.00782842 0.00888582 0.0131972)
(-0.00937208 0.0156806 0.0258272)
(-0.00980653 0.0156666 0.0236092)
(-0.00126686 0.00407912 0.00623266)
(-0.00122249 0.00419518 0.00649607)
(-0.00213564 0.00836013 0.00864158)
(-0.00167283 0.00676489 0.00779158)
(-0.00128668 0.0050736 0.00712625)
(-0.00122166 0.00454476 0.00680253)
(-0.00777361 0.0162081 0.0269911)
(-0.00870042 0.0153839 0.0264358)
(-0.00685123 0.0165497 0.0261728)
(-0.00712774 0.0172156 0.0265785)
(-0.00184653 0.00483776 0.00873688)
(-0.00119829 0.00474756 0.00791321)
(-0.00467323 0.00750168 0.0106369)
(-0.00702778 0.00739537 0.0226602)
(-0.0054626 0.00815991 0.0231854)
(-0.0121949 0.0145012 0.0148604)
(-0.0132489 0.0150803 0.0165219)
(-0.00624723 0.0159421 0.0255824)
(-0.00523749 0.0176863 0.0259037)
(-0.00273543 0.0121583 0.0227739)
(-0.00353543 0.0103904 0.0229903)
(-0.00399959 0.0133808 0.0230875)
(-0.00396532 0.0143117 0.0239438)
(-0.00311323 0.0128443 0.0236563)
(-0.00265127 0.0123992 0.0232671)
(-0.00535274 0.016419 0.0238716)
(-0.00454502 0.0163639 0.0224753)
(-0.00617173 0.0162985 0.0235044)
(-0.00201347 0.0034949 0.0097594)
(-0.00194326 0.00369197 0.00966584)
(-0.0132981 0.00985115 0.01771)
(-0.0133476 0.0117686 0.0169574)
(-0.0132295 0.00997729 0.0172589)
(-0.0137538 0.0121818 0.0163329)
(-0.0133022 0.0113446 0.017316)
(-0.012794 0.00956954 0.0168512)
(-0.00520503 0.00683658 0.00975047)
(-0.00479478 0.00637092 0.00979992)
(-0.00560787 0.00713948 0.0100567)
(-0.0041442 0.00547916 0.00877771)
(-0.0044156 0.00573328 0.00902286)
(-0.0049911 0.00636218 0.00947716)
(-0.0016881 0.00826324 0.0105756)
(-0.00192116 0.00872317 0.0108021)
(-0.00208935 0.00988917 0.010811)
(-0.0014483 0.00793483 0.0102357)
(-0.00146779 0.00752252 0.0102397)
(-0.00177962 0.00928531 0.010463)
(-0.00749795 0.0125915 0.0127536)
(-0.00697215 0.0143136 0.0137626)
(-0.00765247 0.0129158 0.0128676)
(-0.00726513 0.0128654 0.0130204)
(-0.00804285 0.0154534 0.0149018)
(-0.00750519 0.0135634 0.0121607)
(-0.00263044 0.00291779 0.0100336)
(-0.00200734 0.00356314 0.00962825)
(-0.00193715 0.00346562 0.00939453)
(-0.0024244 0.00298963 0.010055)
(-0.00239516 0.00311056 0.00947311)
(-0.00257493 0.00273949 0.0101045)
(-0.0117029 0.0152073 0.0155704)
(-0.0119063 0.0146537 0.0147086)
(-0.0133145 0.015513 0.015428)
(-0.0124329 0.0164539 0.0161017)
(-0.0110606 0.0158111 0.0144394)
(-0.0111781 0.016003 0.0142899)
(-0.0116732 0.01276 0.0178193)
(-0.012413 0.0142293 0.0167443)
(-0.0138919 0.0120732 0.0179699)
(-0.0123561 0.011258 0.0172619)
(-0.0123929 0.0128245 0.0174686)
(-0.0125888 0.0109355 0.0167164)
(-0.00847347 0.0124353 0.0246401)
(-0.00672884 0.0116808 0.0235473)
(-0.00723175 0.0122443 0.0241178)
(-0.00796996 0.012264 0.0241795)
(-0.00875258 0.0119985 0.02399)
(-0.0079708 0.0108837 0.0224128)
(-0.0052007 0.0168233 0.0189004)
(-0.00473033 0.0163177 0.020764)
(-0.00476831 0.0162042 0.0213463)
(-0.0040096 0.0159734 0.0210584)
(-0.0041329 0.0161254 0.0211101)
(-0.00559595 0.0173067 0.0210095)
(-0.00517586 0.0150777 0.0242561)
(-0.00490417 0.0149481 0.0235881)
(-0.00561179 0.0155014 0.0244019)
(-0.00459833 0.0167343 0.0241242)
(-0.0013928 0.00461171 0.00697669)
(-0.00133058 0.00532531 0.00715138)
(-0.0013331 0.00461582 0.00728334)
(-0.00124498 0.00468997 0.00710015)
(-0.00138385 0.0045166 0.00721649)
(-0.00119789 0.00523657 0.00739005)
(-0.00337036 0.0115224 0.0108839)
(-0.00313561 0.0128137 0.00980376)
(-0.00237564 0.00951889 0.0087089)
(-0.0023431 0.0102862 0.00940413)
(-0.0029522 0.0119234 0.00973161)
(-0.00191252 0.00863958 0.00815691)
(-0.0058726 0.0158263 0.0121493)
(-0.00405696 0.0137629 0.0104793)
(-0.00465615 0.0151663 0.0108537)
(-0.00594337 0.015709 0.0126431)
(-0.00484248 0.0151689 0.0115629)
(-0.00128271 0.00632943 0.00757631)
(-0.00140385 0.00701119 0.00773941)
(-0.00188918 0.00746196 0.00866454)
(-0.00125299 0.00648593 0.00755634)
(-0.00131707 0.00656222 0.00801003)
(-0.00166133 0.00730645 0.00856113)
(-0.00745077 0.0163111 0.0261872)
(-0.00666977 0.0165108 0.025697)
(-0.00726001 0.017072 0.0273852)
(-0.00682035 0.0162389 0.0259783)
(-0.0050763 0.0168506 0.0234904)
(-0.00531724 0.0169918 0.0230389)
(-0.00551894 0.0159554 0.0230932)
(-0.0052887 0.0171707 0.02447)
(-0.0056528 0.0173524 0.0240688)
(-0.00527406 0.0165697 0.023122)
(-0.00447902 0.0176634 0.0186493)
(-0.00503749 0.0177482 0.0202905)
(-0.0040366 0.0180342 0.0206808)
(-0.00467048 0.0181368 0.0209406)
(-0.0050758 0.0173759 0.0212075)
(-0.0031622 0.00191821 0.0103631)
(-0.00350889 0.00190592 0.0105283)
(-0.00324563 0.00172097 0.0105653)
(-0.00311316 0.00995938 0.0245693)
(-0.00364195 0.00908938 0.0248057)
(-0.00273157 0.0104191 0.0234312)
(-0.00303049 0.00880508 0.0237668)
(-0.00299494 0.010293 0.0249039)
(-0.00259612 0.0111692 0.0238538)
(-0.0103493 0.0162507 0.022894)
(-0.00927603 0.0149667 0.0219123)
(-0.00901458 0.0148382 0.0221952)
(-0.00936071 0.0154496 0.0220536)
(-0.00895508 0.0155149 0.0211593)
(-0.00950877 0.0154007 0.021421)
(-0.0100272 0.0151353 0.0197695)
(-0.00981932 0.0145866 0.0211539)
(-0.0108809 0.0158428 0.0218111)
(-0.0104422 0.016295 0.0227616)
(-0.0110916 0.0153644 0.021227)
(-0.00995399 0.0151848 0.0192995)
(-0.00962296 0.0157891 0.0188738)
(-0.00881786 0.0163747 0.0168071)
(-0.00952752 0.0162475 0.0169332)
(-0.00851236 0.0155619 0.0171721)
(-0.0093475 0.0156038 0.0190478)
(-0.00907898 0.015929 0.0185452)
(-0.00788019 0.0143674 0.0167101)
(-0.00667698 0.0129949 0.0153602)
(-0.00714279 0.0131047 0.0187353)
(-0.00624283 0.0122776 0.0165211)
(-0.00852232 0.0151758 0.0170875)
(-0.00397897 0.0101546 0.0114194)
(-0.00414841 0.0119747 0.0118846)
(-0.00331453 0.00954884 0.0104278)
(-0.00290158 0.00930696 0.00950159)
(-0.00313199 0.0105257 0.010371)
(-0.00458701 0.0160177 0.0193966)
(-0.00493858 0.0185044 0.0200873)
(-0.00483599 0.0180445 0.0223145)
(-0.00357612 0.0160725 0.0191014)
(-0.00483159 0.0170787 0.0194817)
(-0.00727426 0.0171734 0.0189393)
(-0.00685657 0.0158642 0.0175824)
(-0.00835191 0.0154202 0.0161063)
(-0.00862685 0.0148681 0.017468)
(-0.00818634 0.0164698 0.0198929)
(-0.00869355 0.0165128 0.0184867)
(-0.00325561 0.0139928 0.022344)
(-0.0030861 0.0126546 0.0239312)
(-0.00322021 0.0139841 0.0229768)
(-0.00338961 0.0147162 0.0227624)
(-0.00286434 0.0137898 0.0229055)
(-0.00303976 0.0122013 0.022594)
(-0.00556752 0.00497241 0.0115179)
(-0.00625681 0.00552513 0.0121394)
(-0.00635186 0.00617261 0.0118671)
(-0.0054722 0.00553537 0.0114747)
(-0.00494531 0.00491817 0.0109425)
(-0.00712329 0.00642828 0.0128766)
(-0.0062418 0.0185749 0.01804)
(-0.00753621 0.0181203 0.0177244)
(-0.00589149 0.0182622 0.0191919)
(-0.00625631 0.0176904 0.0173242)
(-0.00598001 0.0175514 0.0186115)
(-0.00714145 0.0183826 0.0182075)
(-0.00792988 0.0169344 0.0166434)
(-0.00652573 0.016768 0.0159294)
(-0.00807833 0.016218 0.0147724)
(-0.00802969 0.015563 0.016263)
(-0.00738429 0.0164912 0.0170106)
(-0.00708723 0.0179099 0.0169125)
(-0.00824089 0.0183103 0.0182652)
(-0.0081207 0.0170809 0.0186136)
(-0.00635136 0.0170785 0.0191158)
(-0.00773222 0.0185156 0.0195683)
(-0.00687464 0.0171022 0.0185151)
(-0.00645593 0.0178263 0.0187167)
(-0.00619042 0.00793757 0.0108822)
(-0.00584995 0.00736576 0.0105251)
(-0.00838669 0.0108369 0.0125779)
(-0.00793086 0.00971831 0.0132643)
(-0.00733483 0.00897543 0.012035)
(-0.00653573 0.00784573 0.011366)
(-0.00329214 0.0141518 0.0227356)
(-0.00355587 0.0140835 0.023314)
(-0.00384652 0.013159 0.0235918)
(-0.00344575 0.0137827 0.0235334)
(-0.00355168 0.0126612 0.0234223)
(-0.0040263 0.0125605 0.0238815)
(-0.00339445 0.0164819 0.0207966)
(-0.0032226 0.0147414 0.0225252)
(-0.00323106 0.0154372 0.0227519)
(-0.00338358 0.0166497 0.0214702)
(-0.00401867 0.016019 0.0229004)
(-0.00367824 0.0150028 0.0221898)
(-0.00366132 0.0169232 0.0230894)
(-0.00367743 0.0169654 0.0227525)
(-0.00349816 0.0160489 0.0213919)
(-0.00420422 0.0163375 0.0217002)
(-0.003953 0.0170302 0.021228)
(-0.00301449 0.0172608 0.0205409)
(-0.0104281 0.0161969 0.0253697)
(-0.0102925 0.0151191 0.0242853)
(-0.0109918 0.0152956 0.0229508)
(-0.00934128 0.0150947 0.0243765)
(-0.0101612 0.0142214 0.0224314)
(-0.00996171 0.0149828 0.0230932)
(-0.00703142 0.0146773 0.0249028)
(-0.00673426 0.0151631 0.0252968)
(-0.00818268 0.0152335 0.0261292)
(-0.0075183 0.0165689 0.0271299)
(-0.00604754 0.0155897 0.025489)
(-0.010582 0.0151884 0.02335)
(-0.0106968 0.015643 0.0230116)
(-0.0115344 0.0159746 0.0235188)
(-0.0115749 0.0159554 0.0208269)
(-0.0106978 0.0154824 0.0209313)
(-0.0113594 0.014729 0.0198553)
(-0.00867286 0.0150996 0.0258157)
(-0.00877459 0.0163925 0.0272985)
(-0.00898484 0.0148676 0.0249425)
(-0.00832472 0.0145028 0.0250113)
(-0.00852241 0.0147718 0.0248801)
(-0.00893643 0.0151033 0.0253842)
(-0.00832857 0.013467 0.0240243)
(-0.00866465 0.0141599 0.0241744)
(-0.00833227 0.014228 0.025446)
(-0.00673535 0.0135691 0.0237346)
(-0.00739039 0.0154714 0.026504)
(-0.0116808 0.0143806 0.0217491)
(-0.0116597 0.0145578 0.0231816)
(-0.0121566 0.01491 0.0212298)
(-0.011245 0.0137162 0.0198602)
(-0.011295 0.0125301 0.0190058)
(-0.0112645 0.0144457 0.0230849)
(-0.0120588 0.0145375 0.0207763)
(-0.0114632 0.0113422 0.0224069)
(-0.00984713 0.0109644 0.0224173)
(-0.00961212 0.0108965 0.0232563)
(-0.0104257 0.0111064 0.0221525)
(-0.00962272 0.0102928 0.0220061)
(-0.00946309 0.0109609 0.0236505)
(-0.00536311 0.0119517 0.0238876)
(-0.00554031 0.0120739 0.0231563)
(-0.00476169 0.0129214 0.0234877)
(-0.00455979 0.0128746 0.0232185)
(-0.00601974 0.0115971 0.023558)
(-0.00557848 0.0125103 0.0242849)
(-0.0117502 0.0134465 0.0225497)
(-0.0109325 0.0121175 0.0215027)
(-0.0109946 0.0117594 0.0210979)
(-0.0101887 0.0121615 0.0230536)
(-0.0111141 0.0129725 0.0226593)
(-0.0108934 0.0126549 0.0233749)
(-0.0135138 0.00848332 0.0189471)
(-0.0146203 0.0109976 0.0186518)
(-0.0141273 0.0104861 0.019472)
(-0.0142976 0.0101195 0.0192778)
(-0.0133878 0.00836395 0.0184209)
(-0.0132434 0.00802861 0.019659)
(-0.013492 0.0105902 0.0200967)
(-0.0143396 0.0121045 0.0194799)
(-0.0132899 0.00853353 0.0193207)
(-0.0109684 0.0126678 0.0178368)
(-0.0121923 0.0118276 0.0177335)
(-0.0104915 0.0131373 0.0169624)
(-0.0103501 0.0145073 0.0153712)
(-0.00959387 0.0150728 0.013711)
(-0.0123542 0.0143516 0.0157393)
(-0.01112 0.0138558 0.0150609)
(-0.0112867 0.0130931 0.0147938)
(-0.00924898 0.014043 0.0144235)
(-0.0116362 0.0149507 0.0143628)
(-0.0111789 0.0158733 0.0149185)
(-0.0130307 0.0168446 0.0146886)
(-0.00938646 0.0158402 0.012345)
(-0.0105669 0.0162776 0.015313)
(-0.00546744 0.00677315 0.0234471)
(-0.00494128 0.0074689 0.0245101)
(-0.00395795 0.00819371 0.0234736)
(-0.00492569 0.0072439 0.0230843)
(-0.00433548 0.00795819 0.0234281)
(-0.0047879 0.00716003 0.0241817)
(-0.0115336 0.00616846 0.0205539)
(-0.00978706 0.00564825 0.0207654)
(-0.0103827 0.00589864 0.0220255)
(-0.0117015 0.00623822 0.0195459)
(-0.0111653 0.00638608 0.0207655)
(-0.00811662 0.00570102 0.0229824)
(-0.00689296 0.00618264 0.0237232)
(-0.00658977 0.00591381 0.0234007)
(-0.00681706 0.00518041 0.0228098)
(-0.00807242 0.00506178 0.0231322)
(-0.00896871 0.00510796 0.0222317)
(-0.00944634 0.00739866 0.0208542)
(-0.0104698 0.00817678 0.0201165)
(-0.0107829 0.00828018 0.0205663)
(-0.0102495 0.00890894 0.022243)
(-0.0103006 0.00767144 0.0216574)
(-0.00926171 0.00789741 0.0214788)
(-0.00764462 0.010964 0.0237526)
(-0.00742062 0.0104946 0.0228005)
(-0.00667711 0.0110561 0.0238858)
(-0.00692507 0.0105574 0.023601)
(-0.00840847 0.0107039 0.0238508)
(-0.00855953 0.0103558 0.0233913)
(-0.00395322 0.0105279 0.0223723)
(-0.00536296 0.00896219 0.0224405)
(-0.00481249 0.00943771 0.0234889)
(-0.00470407 0.00966634 0.0232073)
(-0.00557758 0.00960801 0.022711)
(-0.00451631 0.0111751 0.0237555)
(-0.00603476 0.00821431 0.0224743)
(-0.00542416 0.00907068 0.0235623)
(-0.00721499 0.00775712 0.0218816)
(-0.00717337 0.007108 0.0218328)
(-0.00673262 0.00857546 0.0233956)
(-0.00814673 0.00727041 0.021948)
(-0.00287862 0.00287816 0.0098426)
(-0.00314866 0.00338497 0.0100526)
(-0.00328198 0.00312297 0.0102891)
(-0.00280943 0.00314101 0.00972226)
(-0.00266174 0.0033232 0.00946583)
(-0.00320083 0.00290546 0.0100963)
(-0.00141127 0.00472233 0.00810923)
(-0.00166072 0.0046767 0.00872797)
(-0.00155387 0.00493739 0.00863563)
(-0.00170405 0.00475908 0.00910372)
(-0.00213847 0.00405309 0.00872391)
(-0.00177341 0.00400997 0.00824316)
(-0.00142476 0.00549957 0.00845044)
(-0.00144018 0.00691706 0.00905507)
(-0.0013686 0.00710976 0.0086994)
(-0.00138742 0.00642171 0.00854291)
(-0.00153106 0.00541627 0.00887546)
(-0.00144474 0.00561456 0.00838156)
(-0.00132961 0.00638362 0.00877241)
(-0.00220972 0.0105053 0.00942181)
(-0.00202353 0.00951892 0.00927238)
(-0.00113188 0.0082966 0.00846797)
(-0.00140622 0.00986988 0.00930379)
(-0.00158434 0.0102524 0.00862064)
(-0.00165013 0.00892171 0.00916604)
(-0.00208559 0.00400593 0.00806337)
(-0.00271232 0.00433438 0.00908597)
(-0.00215828 0.00405506 0.00806683)
(-0.00188518 0.00404988 0.00811475)
(-0.0024672 0.00416586 0.00864405)
(-0.00239352 0.00430012 0.00875126)
(-0.00435236 0.00517623 0.00991333)
(-0.00325713 0.00450634 0.00924987)
(-0.00364426 0.0047546 0.00946268)
(-0.00477377 0.00527849 0.0106565)
(-0.00413148 0.00469793 0.0100749)
(-0.00335197 0.00449057 0.00974163)
(-0.00630944 0.0150929 0.0121809)
(-0.00610495 0.0144329 0.0118894)
(-0.0074896 0.015733 0.0140391)
(-0.00738019 0.0150066 0.0142227)
(-0.00881307 0.0169822 0.0139274)
(-0.00804189 0.0145854 0.0137662)
(-0.00637184 0.0169944 0.0193026)
(-0.00509381 0.017411 0.0172789)
(-0.00568332 0.0155879 0.015939)
(-0.00571571 0.015533 0.0162652)
(-0.00596073 0.0166453 0.0182671)
(-0.00495303 0.0167921 0.0170544)
(-0.00470482 0.0170336 0.0205023)
(-0.00515743 0.0185159 0.0225127)
(-0.00479565 0.0167511 0.0202416)
(-0.00534979 0.0168653 0.0205935)
(-0.00574959 0.018159 0.0216448)
(-0.0054615 0.0178132 0.0226658)
(-0.0029953 0.00497763 0.00825199)
(-0.00384738 0.00562433 0.00899098)
(-0.00282238 0.00467378 0.00783466)
(-0.00335672 0.00513504 0.0085422)
(-0.00342199 0.00536365 0.00855644)
(-0.00305536 0.00475698 0.00816887)
(-0.0015115 0.00395164 0.00695306)
(-0.00182692 0.00390085 0.00671046)
(-0.00205481 0.00414835 0.00701937)
(-0.00201214 0.00418443 0.00730777)
(-0.0060273 0.0109557 0.0137985)
(-0.0053555 0.0115606 0.0138281)
(-0.00524319 0.010818 0.0127778)
(-0.00587619 0.0124877 0.0145529)
(-0.00572078 0.00868333 0.0109918)
(-0.0063693 0.00910385 0.0115839)
(-0.00485194 0.00728154 0.00966696)
(-0.00436962 0.00670722 0.00965955)
(-0.0056139 0.0077664 0.0102828)
(-0.00527922 0.00726621 0.0101271)
(-0.00712686 0.0169765 0.0155398)
(-0.00658815 0.0176135 0.015837)
(-0.00736486 0.0174854 0.0170025)
(-0.00742438 0.0110653 0.0125732)
(-0.00955488 0.0133411 0.0155452)
(-0.00690321 0.00942015 0.0120595)
(-0.00848929 0.0107034 0.0126346)
(-0.00760562 0.0103942 0.0115446)
(-0.00790771 0.0121665 0.0141077)
(-0.00752523 0.011414 0.0116855)
(-0.00587338 0.00821082 0.0108969)
(-0.00608872 0.00840486 0.0104)
(-0.00634157 0.0099546 0.0110125)
(-0.00624639 0.0091405 0.0111992)
(-0.00613589 0.00920064 0.0110834)
(-0.00601925 0.0107231 0.0124123)
(-0.00594171 0.00999214 0.0125643)
(-0.00664427 0.0104214 0.0119194)
(-0.00631107 0.0098941 0.0121908)
(-0.00748828 0.0137978 0.0134403)
(-0.00555327 0.0110096 0.0130251)
(-0.00490056 0.00233244 0.0112792)
(-0.00429313 0.00231305 0.0110081)
(-0.00434675 0.0022833 0.0107662)
(-0.00382276 0.00205736 0.0102668)
(-0.00422887 0.00222019 0.0112714)
(-0.00725647 0.00394841 0.0128301)
(-0.00614316 0.0026955 0.0118882)
(-0.00563682 0.00275749 0.0117001)
(-0.0065121 0.00339556 0.0126215)
(-0.00781923 0.00376344 0.013585)
(-0.00651603 0.00279431 0.0119591)
(-0.0050985 0.00330166 0.0120857)
(-0.00438291 0.00279893 0.0109834)
(-0.00392405 0.00294661 0.0109591)
(-0.00411465 0.00314422 0.010964)
(-0.00439863 0.00273832 0.0111852)
(-0.00490308 0.00345162 0.0117987)
(-0.00817325 0.00561409 0.0133508)
(-0.00788925 0.00478579 0.0134622)
(-0.00687771 0.00435719 0.012925)
(-0.0075535 0.00506876 0.0136604)
(-0.00768947 0.00445925 0.0132546)
(-0.00865151 0.00567605 0.0142596)
(-0.00191502 0.00415721 0.00835894)
(-0.00219356 0.00394781 0.00866817)
(-0.00195786 0.00409477 0.00852838)
(-0.00198874 0.00421511 0.00818365)
(-0.00201277 0.00404716 0.00845991)
(-0.00197023 0.00786044 0.0127125)
(-0.00160778 0.00573163 0.011332)
(-0.0018693 0.00714071 0.0118659)
(-0.0017286 0.00587685 0.0111067)
(-0.00157757 0.00526386 0.0108152)
(-0.00151772 0.00613044 0.01118)
(-0.0019354 0.00268219 0.0100481)
(-0.00183457 0.00343648 0.0104172)
(-0.00177858 0.00324977 0.0107002)
(-0.00166178 0.00388998 0.0106095)
(-0.00181618 0.00317592 0.01031)
(-0.00206785 0.00265051 0.0106281)
(-0.0105502 0.0142496 0.0160586)
(-0.0110961 0.0154068 0.0168922)
(-0.0099245 0.0151594 0.0169441)
(-0.00827379 0.0143359 0.0152151)
(-0.009001 0.0143997 0.0151002)
(-0.00755348 0.0132587 0.0135936)
(-0.00448031 0.011097 0.0139321)
(-0.00459595 0.0126105 0.0145862)
(-0.00334259 0.00977101 0.0132613)
(-0.00335019 0.0111034 0.0129653)
(-0.00539988 0.0121841 0.0139673)
(-0.00496974 0.0120168 0.0128925)
(-0.00285399 0.0107266 0.0110253)
(-0.00405521 0.0121155 0.0118277)
(-0.00475111 0.0128827 0.0109883)
(-0.00294593 0.0119171 0.0109841)
(-0.00506739 0.0136975 0.0124619)
(-0.00407598 0.012807 0.0115714)
(-0.00133416 0.00437886 0.00887989)
(-0.00141012 0.00487437 0.00900654)
(-0.00405981 0.0132903 0.00980217)
(-0.00315037 0.0123195 0.00928356)
(-0.00329957 0.0123203 0.0103701)
(-0.00537801 0.0144091 0.0108742)
(-0.0053532 0.0150707 0.0122927)
(-0.00399155 0.0134379 0.0111159)
(-0.00409033 0.0136121 0.0245608)
(-0.00478709 0.0142322 0.0207087)
(-0.00440242 0.0139088 0.0209257)
(-0.00369338 0.0139898 0.0231726)
(-0.00844733 0.0170237 0.0212261)
(-0.00676686 0.015717 0.0198379)
(-0.00912045 0.0164215 0.0204812)
(-0.00859471 0.0153328 0.0177402)
(-0.00828386 0.0159745 0.0186024)
(-0.0108796 0.0163578 0.0195315)
(-0.00912673 0.0133135 0.0165381)
(-0.0084478 0.0145312 0.0184249)
(-0.0136069 0.0162111 0.0157949)
(-0.0124389 0.0123769 0.0151921)
(-0.0136958 0.0128594 0.0166534)
(-0.0131871 0.01478 0.017532)
(-0.0124515 0.0142807 0.0160632)
(-0.0127934 0.0123332 0.0162997)
(-0.0130164 0.013458 0.0158974)
(-0.0116623 0.0152038 0.0146192)
(-0.0123399 0.0129041 0.0149641)
(-0.0114639 0.0147993 0.0148067)
(-0.0119395 0.0130996 0.0144773)
(-0.011705 0.0140878 0.0148745)
(-0.0133627 0.0132134 0.0163487)
(-0.0138461 0.0111025 0.0177762)
(-0.0128824 0.0125962 0.0170219)
(-0.0133363 0.0122346 0.0166521)
(-0.0129247 0.0109389 0.0163789)
(-0.0134069 0.0106859 0.0166627)
(-0.00918077 0.0153054 0.0244304)
(-0.00971815 0.0165782 0.0264596)
(-0.00913781 0.0151375 0.0248091)
(-0.0087095 0.0143966 0.024018)
(-0.00866489 0.0142272 0.0236043)
(-0.00837338 0.0138251 0.0231206)
(-0.00925107 0.0151278 0.0238059)
(-0.010632 0.0166801 0.0246673)
(-0.00692198 0.0152526 0.0246009)
(-0.00685586 0.0164716 0.0259878)
(-0.00682641 0.0170122 0.0264396)
(-0.00738725 0.0163571 0.0265054)
(-0.00631643 0.0175509 0.0260443)
(-0.00661225 0.0177851 0.0266866)
(-0.00128806 0.00471437 0.00650998)
(-0.00129673 0.00496871 0.0065711)
(-0.00130929 0.00468726 0.00643253)
(-0.00139567 0.00558818 0.00715206)
(-0.00147303 0.00537006 0.00707166)
(-0.00130998 0.00480278 0.00677575)
(-0.00127152 0.00429786 0.00636787)
(-0.00127117 0.00407378 0.00637773)
(-0.00125797 0.00424918 0.00642326)
(-0.00119667 0.0044045 0.00652514)
(-0.001345 0.00436193 0.00659457)
(-0.00133502 0.00482236 0.0069696)
(-0.00150528 0.00466978 0.00669455)
(-0.00122436 0.00445176 0.00638517)
(-0.00139206 0.0068198 0.00796954)
(-0.001383 0.00765196 0.00792909)
(-0.00147346 0.00663788 0.00737765)
(-0.00156278 0.00603443 0.00736562)
(-0.00142866 0.00633028 0.00738037)
(-0.00134574 0.00423968 0.00622112)
(-0.00149631 0.00547778 0.00697399)
(-0.00139622 0.00553178 0.00725907)
(-0.00138883 0.00535198 0.00686924)
(-0.0012343 0.00503221 0.00697879)
(-0.00142334 0.00594909 0.00753613)
(-0.00129108 0.00576545 0.00763346)
(-0.00606178 0.0165623 0.0245687)
(-0.00569082 0.0170379 0.0246031)
(-0.00604393 0.016106 0.0254024)
(-0.00582602 0.0154908 0.023871)
(-0.00696892 0.0164956 0.0265323)
(-0.0081577 0.0137187 0.0224082)
(-0.00741893 0.0132376 0.0221904)
(-0.00761862 0.0144851 0.025099)
(-0.00751343 0.0136536 0.0237488)
(-0.00774736 0.0144893 0.0249365)
(-0.00828133 0.0153304 0.0265511)
(-0.00899484 0.0151333 0.0253409)
(-0.0115262 0.00521779 0.0243621)
(-0.0103255 0.0138953 0.0244041)
(-0.00953315 0.0127757 0.0232494)
(-0.014072 0.00995906 0.0189455)
(-0.0130956 0.00901978 0.0189093)
(-0.0124279 0.0136299 0.0155034)
(-0.0126743 0.0158302 0.0145621)
(-0.011726 0.00696554 0.0192166)
(-0.0120689 0.00717498 0.0186771)
(-0.0133646 0.0126335 0.0180625)
(-0.0113899 0.00747593 0.0205737)
(-0.0118212 0.00725075 0.0185423)
(-0.0112166 0.00772281 0.0204156)
(-0.0135579 0.0115372 0.0201865)
(-0.0132915 0.0113707 0.0184613)
(-0.0122443 0.00982483 0.0194717)
(-0.0124136 0.0087347 0.0203943)
(-0.0114096 0.00851012 0.0202933)
(-0.0120802 0.00960454 0.0197581)
(-0.00659072 0.0164123 0.0127131)
(-0.00462194 0.0146288 0.0114384)
(-0.0060481 0.015898 0.0135414)
(-0.00149646 0.00543403 0.0105753)
(-0.00162418 0.00498321 0.00891125)
(-0.00165304 0.00474898 0.00899823)
(-0.00509009 0.0148254 0.0122301)
(-0.00385644 0.0135175 0.0108811)
(-0.00364781 0.0129325 0.012032)
(-0.00356191 0.0138283 0.0112145)
(-0.00222265 0.0113293 0.0103932)
(-0.00263208 0.00891336 0.0127364)
(-0.00605089 0.0143015 0.0133158)
(-0.0060475 0.012926 0.0140753)
(-0.00976693 0.0149418 0.0185553)
(-0.00847397 0.0147987 0.0166415)
(-0.00131943 0.00470937 0.00921651)
(-0.00196921 0.00352568 0.0104091)
(-0.00203351 0.00309821 0.0103363)
(-0.00228958 0.0085117 0.0128143)
(-0.0016744 0.00457368 0.0101941)
(-0.0019314 0.00425609 0.0108972)
(-0.00149763 0.00416656 0.0100994)
(-0.00154812 0.00635782 0.0105783)
(-0.00174349 0.00561551 0.0106759)
(-0.00266459 0.00838077 0.0139168)
(-0.00162899 0.00358326 0.0111379)
(-0.00165383 0.00413767 0.011432)
(-0.00169352 0.007336 0.0124255)
(-0.00170123 0.00707848 0.0118727)
(-0.00184036 0.00660755 0.0124632)
(-0.0015235 0.00469134 0.0107764)
(-0.00167813 0.00510583 0.0115486)
(-0.00166928 0.00401027 0.00742687)
(-0.00164221 0.00435335 0.00765489)
(-0.00156049 0.00435039 0.00762018)
(-0.00160428 0.00400521 0.00708281)
(-0.00172867 0.00401548 0.0072893)
(-0.00180944 0.00401722 0.00733406)
(-0.00168586 0.00405507 0.00757439)
(-0.00167102 0.00415921 0.00729822)
(-0.00175811 0.00425515 0.00813569)
(-0.00172852 0.00431376 0.00790298)
(-0.00138298 0.00439893 0.00745885)
(-0.00158173 0.00440228 0.00782409)
(-0.00197903 0.00427511 0.00827297)
(-0.00171573 0.00422156 0.0076062)
(-0.00145384 0.00437489 0.00766205)
(-0.00415851 0.00428324 0.0104953)
(-0.00455365 0.00427865 0.0105911)
(-0.00616816 0.00473334 0.0118687)
(-0.00508137 0.00444654 0.0112436)
(-0.00621598 0.00457568 0.0129065)
(-0.00711372 0.00511879 0.012654)
(-0.00578226 0.00395262 0.0120271)
(-0.00611494 0.00397756 0.0125834)
(-0.00503041 0.0036334 0.0116646)
(-0.005907 0.00337886 0.011796)
(-0.00550473 0.00342972 0.0119693)
(-0.00518101 0.0029811 0.0117734)
(-0.00222892 0.00379839 0.00868803)
(-0.00251918 0.00397654 0.0093087)
(-0.0026418 0.00387674 0.00950954)
(-0.002522 0.00373882 0.00885988)
(-0.00266103 0.00365442 0.00967737)
(-0.00491869 0.00267332 0.0116758)
(-0.00642278 0.00349107 0.0121596)
(-0.00366351 0.013718 0.0107243)
(-0.00279611 0.0120224 0.00952476)
(-0.00655849 0.0135628 0.0136047)
(-0.00647048 0.0093201 0.0110351)
(-0.00681919 0.0159743 0.0156239)
(-0.00754479 0.0166198 0.0166246)
(-0.00745355 0.0153339 0.0158835)
(-0.00661884 0.0146231 0.0153949)
(-0.00847771 0.0132167 0.0134949)
(-0.00940458 0.0127331 0.0135073)
(-0.00965371 0.013821 0.013562)
(-0.00695206 0.0162821 0.0167286)
(-0.00603286 0.0151957 0.0155737)
(-0.00700739 0.0177091 0.0159435)
(-0.00869062 0.0163359 0.0159763)
(-0.0088682 0.0146745 0.0152673)
(-0.0086119 0.0175217 0.0169403)
(-0.00735687 0.0161202 0.0160518)
(-0.00884494 0.0157537 0.0151083)
(-0.00728261 0.0156902 0.0146634)
(-0.00803555 0.0159694 0.0151521)
(-0.00242247 0.00424266 0.00768486)
(-0.00194771 0.00421231 0.00770644)
(-0.00370653 0.00567074 0.00883659)
(-0.00278262 0.00445463 0.0079804)
(-0.00261164 0.00438029 0.00750799)
(-0.00617257 0.0140497 0.0163405)
(-0.00611184 0.0150904 0.0165138)
(-0.00585226 0.0174658 0.0216646)
(-0.00553697 0.0174137 0.0201231)
(-0.00522172 0.0167498 0.0201826)
(-0.00607904 0.0165236 0.0182079)
(-0.00668504 0.0164657 0.0185072)
(-0.00715832 0.0169546 0.0183121)
(-0.00621799 0.0164953 0.0191273)
(-0.00558722 0.0159445 0.0188539)
(-0.00539246 0.0174505 0.019743)
(-0.00730422 0.0193019 0.0194938)
(-0.00539901 0.0136947 0.0154342)
(-0.00252517 0.0043755 0.00803185)
(-0.00214914 0.00417054 0.00777368)
(-0.00296697 0.00458329 0.00835172)
(-0.00383709 0.00415724 0.0104873)
(-0.00303803 0.00390354 0.00977033)
(-0.00279225 0.0039677 0.00955219)
(-0.00314688 0.00393224 0.00956176)
(-0.00339408 0.00410654 0.00991404)
(-0.00377787 0.0042701 0.010146)
(-0.0032672 0.00440718 0.00988979)
(-0.00251467 0.00415126 0.00920741)
(-0.00232304 0.00418874 0.00887045)
(-0.00304061 0.0041956 0.009131)
(-0.00290215 0.00440039 0.00881563)
(-0.00246392 0.00431521 0.00853372)
(-0.00230264 0.00430317 0.00806166)
(-0.00209074 0.00416735 0.00769682)
(-0.00224367 0.00428443 0.00851478)
(-0.00238743 0.00440343 0.00833911)
(-0.00407762 0.00537802 0.00935809)
(-0.00522226 0.00570503 0.0104053)
(-0.00449446 0.00539552 0.00992243)
(-0.00283905 0.00445353 0.00877374)
(-0.00278422 0.00439863 0.00834353)
(-0.00357764 0.00470277 0.00896924)
(-0.00399668 0.00510037 0.00976697)
(-0.00354475 0.00503859 0.00926749)
(-0.00297254 0.00466612 0.00877838)
(-0.00245784 0.0101746 0.0103975)
(-0.00290678 0.0116893 0.00955974)
(-0.002462 0.0105345 0.00956867)
(-0.00244223 0.0124208 0.0108546)
(-0.00819336 0.0177308 0.0131172)
(-0.00817444 0.0167708 0.0128193)
(-0.00999394 0.0184152 0.0138959)
(-0.00854695 0.0180777 0.0135765)
(-0.00921949 0.0181537 0.0140176)
(-0.00478378 0.0151242 0.0124412)
(-0.00437883 0.0140707 0.0114231)
(-0.00688564 0.0158706 0.0126048)
(-0.00593027 0.0163859 0.0121075)
(-0.00694613 0.0173057 0.0128364)
(-0.00881866 0.0171417 0.0134724)
(-0.00764813 0.016558 0.0116595)
(-0.00903575 0.0155787 0.013092)
(-0.00738428 0.0151881 0.0122209)
(-0.00433849 0.0148866 0.0102747)
(-0.00608653 0.0159795 0.0128337)
(-0.00622134 0.0143177 0.0107166)
(-0.0069513 0.0161982 0.0115865)
(-0.0013698 0.00604333 0.00776648)
(-0.00125179 0.00561597 0.00751571)
(-0.00128772 0.00654602 0.00797742)
(-0.00261191 0.0115377 0.00978431)
(-0.0032452 0.0124616 0.010567)
(-0.00218559 0.0104583 0.00969456)
(-0.00267091 0.0114305 0.0109543)
(-0.00143155 0.00848037 0.00854064)
(-0.00142685 0.00749427 0.00835777)
(-0.00196096 0.00893545 0.00934232)
(-0.00178354 0.00978586 0.00960145)
(-0.00137542 0.00790744 0.00835241)
(-0.00120744 0.00726679 0.00799801)
(-0.00178637 0.00761184 0.00985727)
(-0.00190562 0.00836892 0.00949794)
(-0.00161308 0.00786537 0.00920692)
(-0.00152436 0.00602803 0.00942348)
(-0.00176383 0.00652867 0.00975553)
(-0.00159863 0.0056925 0.0095952)
(-0.00152138 0.00445792 0.00759117)
(-0.00169821 0.00444509 0.00800056)
(-0.00140446 0.00515567 0.00767339)
(-0.0018604 0.00365845 0.00871461)
(-0.00180544 0.00476447 0.00962298)
(-0.00163885 0.00564285 0.00929768)
(-0.00197236 0.0041536 0.00821306)
(-0.00148929 0.00476703 0.00772022)
(-0.00135109 0.0045042 0.0075178)
(-0.00169439 0.00403745 0.00846627)
(-0.00208635 0.00389571 0.0086794)
(-0.00199639 0.00390766 0.00923264)
(-0.002458 0.00378419 0.00924334)
(-0.00244888 0.00352155 0.00926666)
(-0.0022161 0.00391514 0.00903375)
(-0.00514396 0.00226065 0.0114072)
(-0.00397328 0.00256788 0.0111751)
(-0.00231077 0.00230415 0.0102674)
(-0.00275781 0.00198026 0.0100759)
(-0.00226496 0.00231139 0.009834)
(-0.00206612 0.00268488 0.00998231)
(-0.00364857 0.00240086 0.0107981)
(-0.00334768 0.00215577 0.0103754)
(-0.00297049 0.00203551 0.0101559)
(-0.00272935 0.002041 0.00988943)
(-0.00310268 0.00215427 0.010219)
(-0.00294067 0.00342133 0.00972519)
(-0.00356853 0.00334673 0.0108597)
(-0.00218793 0.00348915 0.00907775)
(-0.00245795 0.00347332 0.00931201)
(-0.003515 0.00264243 0.010639)
(-0.00335108 0.00285977 0.0105071)
(-0.00835517 0.0091958 0.0219099)
(-0.00807594 0.00859058 0.02281)
(-0.0120152 0.0102569 0.0220009)
(-0.00953731 0.00925917 0.0230789)
(-0.0088632 0.00888929 0.0209027)
(-0.0096991 0.00919644 0.0222956)
(-0.01044 0.00793368 0.0220519)
(-0.00868804 0.00732828 0.0219382)
(-0.0101362 0.00653309 0.0208845)
(-0.00494364 0.00767915 0.0222723)
(-0.00491409 0.00891152 0.023256)
(-0.00799363 0.0156961 0.0132199)
(-0.00953041 0.0160648 0.0121553)
(-0.0103802 0.0169951 0.0126814)
(-0.00883257 0.0168755 0.012144)
(-0.0089335 0.0164848 0.0132311)
(-0.013109 0.0125643 0.0176845)
(-0.0124392 0.0108985 0.0196844)
(-0.0129122 0.012393 0.0198514)
(-0.0119867 0.0180616 0.014835)
(-0.0125743 0.0154018 0.0155127)
(-0.0119634 0.0147973 0.0149573)
(-0.0118368 0.0165199 0.0146459)
(-0.00587004 0.0150114 0.0110964)
(-0.00796606 0.0169589 0.0139798)
(-0.0083547 0.0137464 0.0138426)
(-0.00732277 0.0146675 0.0150663)
(-0.0134007 0.00815021 0.0195911)