/*--------------------------------*- C++ -*----------------------------------*\
| =========                 |                                                 |
| \\      /  F ield         | OpenFOAM: The Open Source CFD Toolbox           |
|  \\    /   O peration     | Version:  v1612+                                |
|   \\  /    A nd           | Web:      www.OpenFOAM.com                      |
|    \\/     M anipulation  |                                                 |
\*---------------------------------------------------------------------------*/
FoamFile
{
    version     2.0;
    format      ascii;
    class       volVectorField;
    location    "150";
    object      U;
}
// * * * * * * * * * * * * * * * * * * * * * * * * * * * * * * * * * * * * * //

dimensions      [0 1 -1 0 0 0 0];

internalField   nonuniform List<vector> 
17078
(
(-0.276425 -0.129231 -1.23392)
(-0.202971 -0.0226407 -0.47405)
(0.00181626 -0.145344 -0.810078)
(-0.0135439 -0.137881 -0.814864)
(0.0260108 -0.128215 -0.800704)
(-0.00343527 -0.184674 -0.826784)
(0.0260707 -0.172146 -0.814597)
(0.0404904 -0.12915 -0.795704)
(0.0172392 -0.156936 -0.803554)
(-0.00987415 -0.0995357 -0.808649)
(-0.0246827 -0.125872 -0.817808)
(0.025959 -0.094342 -0.797561)
(0.031301 -0.119807 -0.801316)
(0.0089918 -0.178294 -0.82475)
(0.0219356 -0.148274 -0.795993)
(0.0393732 -0.0974369 -0.775637)
(0.0481847 -0.0909169 -0.774047)
(-0.0260065 -0.159988 -0.828849)
(-0.0107002 -0.110175 -0.760219)
(0.0160753 -0.0847535 -0.772181)
(0.0357735 -0.0964149 -0.801556)
(0.0356481 -0.0736379 -0.804758)
(0.0460331 -0.0933064 -0.780257)
(-0.0136206 -0.156397 -0.814813)
(0.032881 -0.0801925 -0.739585)
(0.0417233 -0.0716653 -0.795298)
(-0.179589 -0.0713688 -0.62956)
(-0.174037 -0.0472799 -0.569891)
(-0.209914 -0.0496419 -0.580867)
(-0.177733 -0.102473 -0.671793)
(-0.174354 -0.101098 -0.665509)
(-0.21427 -0.0377526 -0.582981)
(-0.212322 -0.00972251 -0.521157)
(-0.200035 -0.0596959 -0.643939)
(-0.197834 -0.134704 -0.728306)
(-0.22593 -0.052909 -0.636199)
(-0.241361 -0.0312555 -0.653038)
(-0.164994 -0.165547 -0.832938)
(-0.160205 -0.179953 -0.856933)
(-0.217336 -0.0797093 -0.731695)
(-0.203591 -0.0952635 -0.720943)
(-0.185719 -0.136799 -0.849365)
(-0.164819 -0.152932 -0.860319)
(-0.200255 -0.151494 -0.837198)
(-0.192457 -0.14015 -0.807591)
(-0.737516 0.128708 0.150604)
(-0.729417 0.171414 0.154756)
(-0.790791 0.154495 0.145952)
(-0.738031 0.11859 0.0126552)
(-0.752575 0.186855 -0.135967)
(-0.700963 0.124855 -0.303932)
(-0.722492 0.189357 -0.157943)
(-0.683217 0.130007 -0.0270808)
(-0.766611 0.141282 0.0747304)
(-0.788593 0.169772 0.140204)
(-0.691341 0.133712 -0.031419)
(-0.827613 0.16613 0.0864476)
(-0.793908 0.145484 -0.0714386)
(-0.728057 0.150813 -0.101885)
(-0.686729 0.149975 -0.00572589)
(-0.825977 0.251282 -0.0973451)
(-0.827794 0.247215 0.0463241)
(-0.320824 -0.10834 -0.404237)
(-0.330996 -0.122416 -0.411561)
(-0.256906 -0.120912 -0.308322)
(-0.246538 -0.107569 -0.287193)
(-0.246463 -0.111903 -0.232242)
(-0.237001 -0.101303 -0.247956)
(-0.226057 -0.110512 -0.213276)
(-0.375477 -0.124705 -0.40336)
(-0.360862 -0.117249 -0.407507)
(-0.317702 -0.0982907 -0.397123)
(-0.208373 -0.0923598 -0.243138)
(-0.191194 -0.094005 -0.194138)
(-0.312811 -0.116353 -0.295759)
(-0.256138 -0.0890772 -0.300284)
(-0.240451 -0.0975952 -0.255267)
(-0.1997 -0.096903 -0.187209)
(-0.264275 -0.125651 -0.469169)
(-0.272132 -0.133334 -0.535707)
(-0.255588 -0.1189 -0.422624)
(-0.259265 -0.133682 -0.483271)
(-0.284883 -0.13108 -0.560105)
(-0.274842 -0.0783452 -0.446832)
(-0.284679 -0.0954546 -0.540547)
(-0.279677 -0.118211 -0.475317)
(-0.243763 -0.0949681 -0.329431)
(-0.255368 -0.117547 -0.415843)
(-0.28061 -0.116795 -0.564011)
(-0.262577 -0.115139 -0.469161)
(-0.247485 -0.0837752 -0.316151)
(-0.260564 -0.105355 -0.459485)
(-0.322731 -0.0817521 -0.473151)
(-0.283446 -0.0463811 -0.327812)
(-0.263432 -0.0712102 -0.345262)
(-0.37033 -0.134117 -0.451582)
(-0.323077 -0.134691 -0.440701)
(-0.384537 -0.110835 -0.466562)
(-0.358862 -0.130613 -0.448122)
(-0.339196 -0.102387 -0.478933)
(-0.320094 -0.102695 -0.451454)
(-0.287722 -0.0997926 -0.439877)
(-0.304081 -0.0966728 -0.457003)
(-0.294679 -0.104301 -0.457075)
(-0.266652 -0.095191 -0.456481)
(-0.372972 -0.120532 -0.50336)
(-0.410243 -0.101666 -0.544277)
(-0.396503 -0.0992245 -0.562159)
(-0.398356 -0.122259 -0.562717)
(-0.32934 -0.0917515 -0.51737)
(-0.31257 -0.12954 -0.508532)
(-0.307256 -0.136747 -0.484379)
(-0.342811 -0.139557 -0.50585)
(-0.325549 -0.130861 -0.469224)
(-0.365208 -0.113607 -0.570706)
(-0.337761 -0.126872 -0.542068)
(-0.368189 -0.143892 -0.583895)
(0.0182592 -0.0946199 -0.834603)
(0.0214962 -0.0967134 -0.836036)
(0.0566756 -0.0840551 -0.803276)
(0.0687989 -0.0794138 -0.823912)
(0.0243547 -0.0802121 -0.864702)
(0.0497918 -0.0791403 -0.833456)
(-0.287815 -0.0484587 -0.567851)
(-0.275243 -0.0183245 -0.533092)
(-0.306068 -0.0687509 -0.59676)
(-0.286315 -0.0843426 -0.620344)
(-0.304993 -0.0167454 -0.532458)
(-0.302385 0.00360707 -0.466804)
(-0.312573 -0.0246738 -0.416452)
(-0.296508 -0.0122193 -0.314522)
(-0.312537 0.0116076 -0.457047)
(-0.295769 -0.028866 -0.447543)
(-0.285389 -0.0600044 -0.515937)
(-0.312939 0.0169424 -0.397307)
(-0.289073 -0.0580033 -0.427758)
(-0.288043 -0.0254504 -0.402376)
(-0.298268 -0.0120525 -0.34929)
(-0.159297 -0.142871 -0.749863)
(-0.162765 -0.101493 -0.679369)
(-0.165411 -0.114858 -0.699798)
(-0.17744 -0.0448906 -0.598634)
(-0.211257 -0.0958666 -0.746844)
(-0.199454 -0.0586675 -0.638391)
(-0.172447 -0.111353 -0.776041)
(-0.193624 -0.116784 -0.811493)
(-0.152716 -0.17396 -0.867536)
(-0.149911 -0.15325 -0.843479)
(-0.179025 -0.145907 -0.86765)
(-0.160573 -0.165271 -0.860848)
(-0.202622 -0.130052 -0.810781)
(-0.208396 -0.154503 -0.823451)
(-0.223524 -0.181024 -0.798457)
(-0.232572 -0.195751 -0.805399)
(-0.188777 -0.101982 -0.792663)
(-0.202341 -0.094501 -0.782694)
(-0.177664 -0.112434 -0.755474)
(-0.239498 -0.132828 -0.744077)
(-0.147999 -0.0992973 -0.75208)
(-0.150635 -0.117842 -0.755362)
(-0.216664 -0.140232 -0.746501)
(-0.209971 -0.124413 -0.740024)
(-0.24132 -0.171035 -0.766238)
(-0.157458 -0.125766 -0.803174)
(-0.117629 -0.116312 -0.777363)
(-0.145962 -0.162729 -0.851688)
(-0.132602 -0.179516 -0.850288)
(-0.138687 -0.106642 -0.79001)
(-0.2292 -0.187551 -0.790666)
(-0.201233 -0.191377 -0.793313)
(-0.182994 -0.204585 -0.804247)
(-0.191846 -0.199908 -0.822886)
(-0.196686 -0.190643 -0.798444)
(-0.231545 -0.182334 -0.77315)
(-0.147679 -0.152886 -0.876903)
(0.0102894 -0.0621218 -0.803643)
(0.0309818 -0.0927567 -0.857883)
(0.0603883 -0.0714975 -0.834975)
(0.0212325 -0.0710382 -0.790937)
(0.0231579 -0.0602892 -0.780103)
(0.0055327 -0.0542379 -0.755497)
(0.00436733 -0.082484 -0.879259)
(0.0329691 -0.0836979 -0.879516)
(0.015128 -0.110889 -0.963059)
(0.0018853 -0.0665037 -0.886356)
(-0.0118992 -0.046346 -0.867393)
(-0.0264861 -0.062629 -0.887203)
(0.0274129 -0.0423215 -0.870277)
(-0.00318185 -0.0349868 -0.829708)
(0.0122188 -0.026777 -0.842446)
(0.0375015 -0.0446009 -0.828558)
(-0.160262 -0.170259 -0.786072)
(-0.107291 -0.200247 -0.830197)
(-0.144684 -0.19313 -0.809384)
(-0.0962339 -0.118139 -0.761514)
(-0.133381 -0.129309 -0.745798)
(-0.0670547 -0.09124 -0.702041)
(-0.115883 -0.126381 -0.715197)
(-0.0332069 -0.0760166 -0.689802)
(-0.137145 -0.164037 -0.745901)
(-0.137862 -0.203636 -0.800346)
(-0.0753259 -0.183752 -0.831711)
(-0.100747 -0.227297 -0.843275)
(-0.0406533 -0.0789699 -0.726854)
(-0.067566 -0.118045 -0.711284)
(-0.128816 -0.175594 -0.785747)
(-0.0638208 -0.15954 -0.827368)
(-0.0592324 -0.178327 -0.815439)
(-0.0925454 -0.164347 -0.763903)
(-0.124502 -0.0661037 -0.777382)
(-0.0733 -0.0496997 -0.743422)
(-0.15479 -0.0686794 -0.799195)
(-0.101595 -0.0370886 -0.745611)
(-0.122132 -0.0901594 -0.813868)
(-0.128299 -0.0765025 -0.792888)
(-0.104001 -0.0808653 -0.799398)
(-0.0695164 -0.0878685 -0.801835)
(-0.140801 -0.150712 -0.855256)
(-0.154998 -0.144498 -0.809133)
(-0.436711 0.0365381 -0.499497)
(-0.41723 0.0449772 -0.486204)
(-0.432675 0.0957387 -0.487118)
(-0.471868 0.0310276 -0.465883)
(-0.469334 0.0152286 -0.452506)
(-0.438972 0.027539 -0.506464)
(-0.43143 0.000511384 -0.530553)
(-0.436807 0.0868417 -0.489536)
(-0.437231 0.0821468 -0.474814)
(-0.423219 0.0667628 -0.446967)
(-0.423195 0.0816873 -0.476028)
(-0.43582 0.0728666 -0.517754)
(-0.422961 0.023079 -0.524664)
(-0.447368 0.0816421 -0.49097)
(-0.446636 0.0790513 -0.458504)
(-0.446952 0.0723568 -0.439827)
(-0.509466 0.0856069 -0.270603)
(-0.514369 0.0822225 -0.274465)
(-0.525616 0.1302 -0.27289)
(-0.529716 0.0739671 -0.218924)
(-0.488551 0.0774977 -0.220632)
(-0.539328 0.115166 -0.206164)
(-0.548842 0.0809233 -0.179693)
(-0.531394 0.137255 -0.27265)
(-0.517915 0.117322 -0.266141)
(-0.547689 0.0580047 -0.156408)
(-0.53676 0.0696295 -0.17894)
(-0.521654 0.132444 -0.242705)
(-0.486899 0.0650352 -0.262049)
(-0.556769 0.100558 -0.144447)
(-0.525878 0.10563 -0.184541)
(-0.518776 0.119864 -0.218083)
(-0.216917 -0.149927 -0.807586)
(-0.179335 -0.168716 -0.815202)
(-0.161941 -0.0876099 -0.784027)
(-0.190919 -0.107714 -0.794327)
(-0.199847 -0.162393 -0.799972)
(-0.153348 -0.17465 -0.80925)
(-0.167638 -0.206771 -0.818146)
(-0.188961 -0.112151 -0.829387)
(-0.200022 -0.140998 -0.813013)
(-0.172514 -0.183048 -0.827592)
(-0.192876 -0.100732 -0.780391)
(-0.182345 -0.0722696 -0.791275)
(-0.206702 -0.11707 -0.782751)
(-0.214318 -0.175897 -0.805705)
(-0.136482 -0.163576 -0.841288)
(-0.189359 -0.149774 -0.845617)
(-0.263334 -0.107557 -0.804017)
(-0.184379 -0.186442 -0.811268)
(-0.201666 -0.165101 -0.804655)
(-0.231611 -0.121677 -0.788611)
(-0.488151 0.0797268 -0.279183)
(-0.49155 0.0730322 -0.261487)
(-0.476795 0.0410148 -0.276823)
(-0.461556 0.037225 -0.293824)
(-0.466934 0.0287153 -0.336848)
(-0.448902 0.0465912 -0.317756)
(-0.469573 0.0702656 -0.326187)
(-0.473696 0.0906163 -0.297564)
(-0.481246 0.0705662 -0.344084)
(-0.471864 0.111956 -0.340544)
(-0.48434 0.0400375 -0.305061)
(-0.460194 0.056011 -0.3699)
(-0.45774 0.0401663 -0.369477)
(-0.469723 0.0848976 -0.36846)
(-0.467599 0.0686807 -0.360849)
(-0.0570128 -0.0299389 -0.581861)
(-0.0632844 -0.0292948 -0.5704)
(-0.0781673 -0.00956734 -0.620781)
(-0.0637198 -0.0235154 -0.608731)
(-0.0407333 -0.035365 -0.628319)
(-0.038325 -0.0386175 -0.64678)
(-0.105694 0.0031596 -0.560532)
(-0.114984 0.00407429 -0.529855)
(-0.0953983 -0.00659714 -0.518805)
(-0.0666491 -0.0175549 -0.640483)
(-0.133801 0.0447403 -0.463818)
(-0.135126 0.0456639 -0.417012)
(-0.0962183 -0.0072739 -0.499483)
(-0.102125 0.00603085 -0.480754)
(-0.114306 0.0194504 -0.520564)
(-0.146463 0.0440635 -0.423983)
(-0.132909 0.0440106 -0.458672)
(-0.624949 0.2757 0.0598738)
(-0.604492 0.315109 0.137438)
(-0.555877 0.304726 0.097003)
(-0.531835 0.322445 0.164364)
(-0.63007 0.284067 -0.0851595)
(-0.601715 0.289537 -0.15436)
(-0.574244 0.327646 -0.0151008)
(-0.608534 0.361587 0.128632)
(-0.52516 0.428787 0.198421)
(-0.636382 0.295141 -0.0906525)
(-0.655059 0.329711 0.0250715)
(-0.535432 0.367235 0.149498)
(-0.538736 0.363504 0.057078)
(-0.544767 0.369748 -0.0363145)
(-0.569193 0.340925 -0.133949)
(-0.595873 0.322045 -0.147939)
(-0.113205 -0.226775 -0.602966)
(-0.140702 -0.24788 -0.667939)
(-0.147119 -0.243502 -0.658282)
(-0.189255 -0.239559 -0.720904)
(-0.133329 -0.251363 -0.675102)
(-0.149858 -0.266546 -0.678991)
(-0.199463 -0.263431 -0.748851)
(-0.155572 -0.269524 -0.78841)
(-0.149746 -0.270696 -0.799745)
(-0.162839 -0.291713 -0.788112)
(-0.199811 -0.241489 -0.821364)
(-0.173429 -0.243222 -0.830164)
(-0.201557 -0.275913 -0.792675)
(-0.0763491 -0.157257 -0.630518)
(-0.0525099 -0.124113 -0.617215)
(-0.0948301 -0.102076 -0.477067)
(-0.111268 -0.114984 -0.495384)
(-0.0702782 -0.0877538 -0.458611)
(-0.096072 -0.153756 -0.581442)
(-0.0855378 -0.106168 -0.436223)
(-0.0781094 -0.151238 -0.64891)
(-0.0768194 -0.126429 -0.587317)
(-0.0975033 -0.13903 -0.531059)
(-0.223538 -0.18334 -0.724561)
(-0.225796 -0.186666 -0.707464)
(-0.217545 -0.183993 -0.719045)
(-0.214368 -0.146996 -0.732748)
(-0.207071 -0.150902 -0.739759)
(-0.23488 -0.148467 -0.694163)
(-0.206655 -0.204054 -0.787576)
(-0.245153 -0.1698 -0.640628)
(-0.2157 -0.180509 -0.602699)
(-0.225776 -0.169351 -0.594169)
(-0.231954 -0.137296 -0.658279)
(-0.236247 -0.175757 -0.573456)
(-0.211527 -0.18454 -0.627347)
(-0.215373 -0.186869 -0.741005)
(-0.0894879 -0.157977 -1.01669)
(-0.10221 -0.188074 -1.05243)
(-0.126744 -0.164492 -1.06094)
(-0.095835 -0.15972 -1.02416)
(-0.120244 -0.201242 -1.04419)
(-0.134528 -0.195206 -0.988188)
(-0.0629732 -0.178893 -1.01335)
(-0.0950443 -0.178673 -1.02948)
(-0.141353 -0.171589 -1.02987)
(-0.104202 -0.192286 -1.0008)
(-0.123013 -0.184121 -0.953456)
(-0.120755 -0.204562 -0.963398)
(-0.0618467 -0.186648 -1.01571)
(-0.0784316 -0.184014 -1.04403)
(-0.0677966 -0.184839 -1.0324)
(-0.0748062 -0.20532 -0.999306)
(-0.0939615 -0.190741 -1.00797)
(-0.0796283 -0.188845 -1.01994)
(-0.0946414 -0.205459 -0.986811)
(-0.0869762 -0.208285 -1.04027)
(-0.0555767 -0.202404 -1.02368)
(-0.0765959 -0.197589 -1.01822)
(-0.197393 -0.141934 -0.764156)
(-0.178851 -0.125037 -0.692009)
(-0.176055 -0.159029 -0.732775)
(-0.205984 -0.147721 -0.774513)
(-0.203347 -0.152069 -0.815285)
(-0.213451 -0.145092 -0.828923)
(-0.196765 -0.165315 -0.820389)
(-0.173778 -0.151144 -0.74209)
(-0.154952 -0.18676 -0.851871)
(-0.148493 -0.187818 -0.809207)
(-0.189 -0.17959 -0.810311)
(-0.178674 -0.172816 -0.823511)
(-0.172271 -0.146135 -0.725899)
(-0.171903 -0.209286 -0.836185)
(-0.17447 -0.21075 -0.813149)
(-0.196621 -0.183837 -0.776575)
(-0.166477 -0.179913 -0.761445)
(-0.677108 0.395944 -0.691413)
(-0.609659 0.318021 -0.803845)
(-0.719479 0.396118 -0.605577)
(-0.642509 0.444569 -0.582076)
(-0.571319 0.300526 -0.696522)
(-0.630455 0.36151 -0.584569)
(-0.716573 0.44594 -0.689199)
(-0.65612 0.500474 -0.563436)
(-0.660916 0.445206 -0.547944)
(-0.610527 0.394269 -0.609726)
(-0.743263 0.372108 -0.630044)
(-0.650301 0.387807 -0.594316)
(-0.644447 0.367228 -0.579923)
(-0.579275 0.312923 -0.731169)
(-0.571544 0.342648 -0.675601)
(-0.643546 0.39355 -0.675945)
(-0.135788 -0.149694 -0.842938)
(-0.148685 -0.145369 -0.845558)
(-0.118158 -0.170539 -0.877596)
(-0.146874 -0.150538 -0.86917)
(-0.127779 -0.167479 -0.986062)
(-0.116628 -0.16681 -0.972213)
(-0.184265 -0.116125 -0.819207)
(-0.187882 -0.107609 -0.799442)
(-0.200062 -0.134304 -0.902465)
(-0.197733 -0.117678 -0.841849)
(-0.149289 -0.150764 -0.86178)
(-0.134047 -0.171478 -0.980609)
(-0.113824 -0.15198 -0.956321)
(-0.179743 -0.119461 -0.906136)
(-0.183473 -0.159725 -0.969025)
(-0.161313 -0.144759 -0.926149)
(-0.129515 -0.154473 -0.915778)
(-0.154448 -0.141266 -0.960394)
(-0.32234 0.129713 -0.825635)
(-0.324858 0.141287 -0.799744)
(-0.389143 0.321091 -0.489277)
(-0.384153 0.297321 -0.440147)
(-0.447274 0.305539 -0.538338)
(-0.371767 0.174995 -0.722334)
(-0.349319 0.220877 -0.595101)
(-0.380969 0.315271 -0.597113)
(-0.267576 0.122295 -0.769206)
(-0.21952 0.0733156 -0.801934)
(-0.282698 0.0793965 -0.800638)
(-0.39358 0.282663 -0.583965)
(-0.423248 0.345806 -0.44556)
(-0.373645 0.300215 -0.486415)
(-0.423871 0.313753 -0.432814)
(-0.429066 0.215953 -0.645427)
(-0.446232 0.3367 -0.490072)
(-0.298251 0.155369 -0.668181)
(-0.291703 0.119178 -0.662872)
(-0.268978 0.119666 -0.692937)
(-0.372199 0.0921398 -0.674297)
(-0.389805 0.185821 -0.608218)
(-0.310628 0.147444 -0.627957)
(-0.357773 0.211286 -0.58283)
(-0.625018 0.522335 0.189235)
(-0.678243 0.520357 0.107339)
(-0.68561 0.435737 -0.111951)
(-0.715901 0.445497 -0.0764945)
(-0.646401 0.465602 0.157917)
(-0.635562 0.542206 0.210382)
(-0.564572 0.525665 0.302941)
(-0.718157 0.41353 -0.0227566)
(-0.714798 0.371638 -0.0693512)
(-0.73673 0.448416 0.0237768)
(-0.733344 0.42811 0.130176)
(-0.620457 0.386883 0.178031)
(-0.603047 0.392601 0.203245)
(-0.60923 0.399508 0.188391)
(-0.712271 0.461947 0.223341)
(-0.619941 0.430652 0.269451)
(-0.672638 0.410063 0.268232)
(-0.617055 0.444824 0.290849)
(-0.662836 0.394704 0.172924)
(-0.180519 -0.0175417 -0.521527)
(-0.160165 -0.00617729 -0.461633)
(-0.199981 -0.0310307 -0.55349)
(-0.205329 -0.0118146 -0.521252)
(-0.188759 0.0159353 -0.441777)
(-0.158116 -0.0462264 -0.531398)
(-0.166909 -0.0635655 -0.571244)
(-0.202269 -0.143751 -0.739539)
(-0.211982 -0.127609 -0.687349)
(-0.21637 -0.117621 -0.729221)
(-0.21772 -0.0195169 -0.578911)
(-0.234126 -0.104611 -0.717971)
(-0.171402 -0.0785448 -0.596042)
(-0.094198 -0.32421 -0.761849)
(-0.114232 -0.292918 -0.719883)
(-0.110415 -0.278199 -0.660641)
(-0.10455 -0.277177 -0.664122)
(-0.0700505 -0.331518 -0.839455)
(-0.0983708 -0.342519 -0.830273)
(-0.0834698 -0.297593 -0.675127)
(-0.0788029 -0.255778 -0.595369)
(-0.0860536 -0.319188 -0.732432)
(-0.0863113 -0.296753 -0.675654)
(-0.0960256 -0.278454 -0.648201)
(-0.121021 -0.289322 -0.722137)
(-0.123018 -0.27022 -0.665514)
(-0.117285 -0.2606 -0.619526)
(-0.113109 -0.294782 -0.799306)
(-0.108941 -0.283524 -0.806326)
(-0.114851 -0.328929 -0.806251)
(-0.0804988 -0.338332 -0.826718)
(-0.112111 -0.285729 -0.651886)
(-0.126503 -0.273789 -0.697989)
(-0.127805 -0.287684 -0.794236)
(-0.105675 -0.307214 -0.830206)
(-0.684571 0.219227 -0.326587)
(-0.662886 0.14815 -0.395398)
(-0.76032 0.202252 -0.140723)
(-0.739977 0.174461 -0.275418)
(-0.637363 0.148472 -0.408806)
(-0.620253 0.151974 -0.439263)
(-0.735513 0.170032 -0.234053)
(-0.692039 0.123654 -0.239377)
(-0.610454 0.22074 -0.386829)
(-0.667673 0.262283 -0.285087)
(-0.754475 0.290577 -0.185166)
(-0.757861 0.242698 -0.169108)
(-0.638267 0.173156 -0.369535)
(-0.618345 0.255724 -0.367612)
(-0.737726 0.251717 -0.218747)
(-0.0613282 -0.0524453 -0.796482)
(-0.0203998 -0.0866595 -0.844936)
(-0.0584473 -0.0354756 -0.697975)
(-0.0404045 -0.0541091 -0.746545)
(-0.0543373 -0.0438081 -0.747352)
(-0.0989986 0.0274561 -0.581397)
(-0.100985 0.0517117 -0.718917)
(-0.0837109 0.0324599 -0.770634)
(-0.104449 0.00561655 -0.662212)
(-0.12414 0.0441745 -0.575104)
(-0.0973384 -0.00266534 -0.749203)
(-0.12432 0.081896 -0.642426)
(-0.0966238 0.0271466 -0.593771)
(-0.0819806 -0.00828735 -0.683253)
(-0.0910768 0.0103137 -0.722425)
(-0.120147 0.0856933 -0.629008)
(-0.129974 0.0837313 -0.569882)
(-0.152488 0.0788442 -0.811964)
(-0.188777 0.0866588 -0.800339)
(-0.146751 0.0905772 -0.609714)
(-0.176987 0.127165 -0.61021)
(-0.190082 0.151126 -0.537466)
(-0.212242 0.168525 -0.552206)
(-0.142218 -0.0181158 -0.921212)
(-0.189056 0.167922 -0.683906)
(-0.140267 0.059856 -0.68806)
(-0.205047 0.0829413 -0.689272)
(-0.236146 0.135966 -0.643291)
(-0.225896 0.180183 -0.614041)
(-0.145846 0.0396678 -0.752667)
(-0.114657 0.000803295 -0.80727)
(-0.177242 0.0835672 -0.623312)
(-0.184674 0.133825 -0.544763)
(-0.102675 0.00530844 -0.770863)
(-0.126189 0.000681399 -0.745263)
(-0.153615 0.0603844 -0.643227)
(-0.128117 0.0410275 -0.687032)
(-0.219938 -0.0163312 -0.775426)
(-0.203451 -0.0529982 -0.804833)
(-0.256306 -0.0900264 -0.776757)
(-0.258893 -0.0305412 -0.753302)
(-0.245908 -0.128274 -0.77824)
(-0.232715 -0.0827294 -0.756945)
(-0.278073 -0.0949438 -0.761084)
(-0.21695 -0.0380958 -0.774616)
(-0.227839 -0.0575073 -0.77019)
(-0.251695 -0.138314 -0.784566)
(-0.270331 -0.101919 -0.759238)
(-0.226945 -0.144347 -0.776049)
(-0.245822 -0.135529 -0.764279)
(-0.286699 -0.0573897 -0.743149)
(-0.218023 -0.115443 -0.781217)
(-0.254433 -0.131142 -0.76018)
(-0.478722 0.165965 -0.601476)
(-0.487297 0.203314 -0.63915)
(-0.481115 0.137594 -0.614555)
(-0.462477 0.143322 -0.586344)
(-0.43369 0.103944 -0.601978)
(-0.445193 0.0896672 -0.617194)
(-0.487474 0.246089 -0.667275)
(-0.442805 0.188551 -0.633253)
(-0.512843 0.162672 -0.676455)
(-0.462651 0.129639 -0.612915)
(-0.493582 0.193162 -0.747556)
(-0.448093 0.176548 -0.72004)
(-0.44148 0.112839 -0.775158)
(-0.491624 0.149563 -0.748101)
(-0.412722 0.0674045 -0.647806)
(-0.432957 0.0844546 -0.618513)
(-0.43608 0.158218 -0.65039)
(-0.418919 0.173564 -0.650885)
(-0.454222 0.0875125 -0.713896)
(-0.443815 0.118517 -0.644041)
(0.0713784 -0.0989987 -0.798102)
(0.0502298 -0.103185 -0.847)
(0.0608981 -0.105102 -0.846494)
(0.0823613 -0.105526 -0.816074)
(0.0792611 -0.140509 -0.876339)
(0.0725363 -0.130552 -0.876805)
(0.0725892 -0.0918687 -0.748645)
(0.0875265 -0.0990067 -0.78439)
(-0.459586 -0.0778173 -0.394128)
(-0.426063 -0.0822603 -0.364972)
(-0.409162 -0.11451 -0.429261)
(-0.458616 -0.0661952 -0.539069)
(-0.453623 -0.104178 -0.431047)
(-0.395118 -0.106334 -0.383101)
(-0.396169 -0.0886558 -0.601338)
(-0.403158 -0.100773 -0.597699)
(-0.385233 -0.111773 -0.405304)
(-0.44454 -0.0929305 -0.435458)
(-0.435303 -0.10574 -0.537397)
(-0.385926 -0.110153 -0.47199)
(-0.389442 -0.116365 -0.478315)
(-0.416402 -0.0960666 -0.515198)
(-0.442808 0.151616 -0.211051)
(-0.487048 0.161011 -0.219125)
(-0.42485 0.0973602 -0.217055)
(-0.44953 0.150477 -0.226246)
(-0.472092 0.149336 -0.366579)
(-0.467053 0.138676 -0.340905)
(-0.455563 0.078876 -0.236229)
(-0.433573 0.112608 -0.375661)
(-0.438111 0.0473868 -0.390927)
(-0.440042 0.0317474 -0.527827)
(-0.425346 0.0332944 -0.546203)
(-0.459931 0.0600887 -0.35344)
(-0.428715 0.0580396 -0.352116)
(-0.440242 0.0438148 -0.43595)
(-0.446843 0.118452 -0.453368)
(-0.444996 0.0560841 -0.539573)
(-0.457915 0.0650373 -0.517669)
(-0.474226 0.0660225 -0.452811)
(-0.175806 -0.155798 -0.539841)
(-0.140543 -0.123334 -0.424619)
(-0.128301 -0.107615 -0.357845)
(-0.106558 -0.0831749 -0.265743)
(-0.169094 -0.154548 -0.535698)
(-0.133124 -0.0937884 -0.42772)
(-0.107393 -0.0841044 -0.363262)
(-0.219414 -0.150322 -0.600413)
(-0.214555 -0.185215 -0.61678)
(-0.129328 -0.0956602 -0.335512)
(-0.186688 -0.145556 -0.564207)
(-0.142552 -0.115291 -0.463305)
(-0.126502 -0.0788367 -0.401623)
(-0.103764 -0.0644643 -0.29358)
(-0.192249 -0.142842 -0.541869)
(-0.117203 -0.0594838 -0.3295)
(-0.0925349 -0.051528 -0.283209)
(-0.181429 -0.0147173 -0.794367)
(-0.208777 0.024138 -0.805189)
(-0.24865 -0.000297175 -0.833347)
(-0.245251 -0.0156125 -0.864801)
(-0.24021 -0.00525338 -0.83328)
(-0.214077 -0.0859317 -0.884068)
(-0.203908 -0.0480878 -0.820934)
(-0.189226 -0.0385218 -0.855709)
(-0.202282 -0.117841 -0.838724)
(-0.177934 -0.10573 -0.836056)
(-0.174011 -0.127594 -0.83739)
(-0.205515 -0.101546 -0.911177)
(-0.191539 -0.107239 -0.888118)
(-0.167812 -0.0969591 -0.878183)
(-0.128409 -0.055481 -0.797299)
(-0.137184 -0.0921038 -1.06881)
(-0.0975708 -0.13152 -1.07548)
(-0.121428 -0.141922 -1.15755)
(-0.155515 -0.183958 -1.15803)
(-0.163845 -0.130385 -1.17341)
(-0.139442 -0.146041 -1.1089)
(-0.127869 -0.122789 -1.14281)
(-0.175825 -0.114948 -1.17485)
(-0.0613629 -0.150951 -1.07974)
(-0.0447201 -0.138909 -1.06865)
(-0.102654 -0.15296 -1.15863)
(-0.122581 -0.207574 -1.16612)
(-0.0850751 -0.178973 -1.13539)
(-0.100717 -0.178335 -1.1042)
(-0.0240473 -0.184586 -1.13003)
(-0.0928261 -0.161636 -1.15316)
(-0.139284 -0.180184 -1.18906)
(0.0684015 -0.295066 -0.926867)
(0.0716888 -0.30032 -0.942891)
(0.0512383 -0.28828 -0.883973)
(0.0389735 -0.283519 -0.883548)
(0.057033 -0.306535 -0.934365)
(0.0524371 -0.313474 -0.926741)
(0.0408068 -0.324453 -0.909499)
(0.0385325 -0.323698 -0.897769)
(0.0493773 -0.331917 -0.898571)
(0.0575649 -0.335337 -0.908082)
(0.0472608 -0.319559 -0.903582)
(0.068673 -0.311159 -0.928595)
(0.0389961 -0.281014 -0.887062)
(0.0416932 -0.301032 -0.903091)
(0.0575729 -0.330772 -0.914591)
(-0.240985 -0.0110686 -0.757402)
(-0.203511 0.0234422 -0.83093)
(-0.239391 0.0521801 -0.799933)
(-0.243828 0.036089 -0.75394)
(-0.201673 -0.00944889 -0.770329)
(-0.243946 -0.0188928 -0.768009)
(-0.250039 0.0654773 -0.863706)
(-0.235272 0.0488707 -0.846703)
(-0.282864 0.103026 -0.799542)
(-0.177642 0.0268325 -0.79064)
(-0.276141 0.0190354 -0.776941)
(-0.268467 0.0273929 -0.777035)
(-0.228484 0.0741984 -0.795853)
(-0.00672552 -0.130766 -0.871319)
(0.0231314 -0.13691 -0.873266)
(0.0375655 -0.132822 -0.874233)
(0.0112669 -0.14642 -0.870562)
(0.0245029 -0.146625 -0.847655)
(0.0250349 -0.138975 -0.83548)
(0.0349192 -0.13929 -0.813384)
(0.0646648 -0.0914712 -0.814429)
(0.0388289 -0.110268 -0.797897)
(-0.465403 0.250659 -0.271885)
(-0.441998 0.244899 -0.279047)
(-0.487654 0.176852 -0.547718)
(-0.511105 0.201988 -0.488757)
(-0.472511 0.164021 -0.486773)
(-0.45253 0.201371 -0.383425)
(-0.503079 0.197703 -0.414727)
(-0.490193 0.242467 -0.365915)
(-0.489406 0.261068 -0.26385)
(-0.486705 0.168387 -0.60405)
(-0.456946 0.116823 -0.619877)
(-0.462786 0.124858 -0.592767)
(-0.448501 0.123887 -0.563971)
(-0.550856 0.277312 -0.315249)
(-0.516619 0.156417 -0.714473)
(-0.524518 0.209112 -0.59977)
(-0.538748 0.231946 -0.585552)
(-0.461045 -0.0391899 -0.432732)
(-0.422466 -0.0778706 -0.347817)
(-0.444138 -0.0948728 -0.423657)
(-0.487849 -0.0450436 -0.356578)
(-0.411031 -0.0975328 -0.249336)
(-0.452949 -0.0857591 -0.408795)
(-0.471028 -0.0802435 -0.475223)
(-0.436291 -0.0708657 -0.208219)
(-0.457519 -0.0532882 -0.225027)
(-0.480311 -0.0337412 -0.486451)
(-0.48447 -0.0263134 -0.324167)
(-0.472061 -0.0355712 -0.419755)
(0.0290641 -0.211467 -1.03001)
(0.0255891 -0.271916 -1.06344)
(0.0501977 -0.215513 -1.00784)
(0.0663616 -0.222057 -0.999596)
(0.0355988 -0.241093 -1.02986)
(0.0498028 -0.237068 -0.959175)
(0.0343768 -0.267467 -1.0022)
(0.00373221 -0.244951 -1.02847)
(0.0346224 -0.293907 -1.04369)
(0.070731 -0.252927 -0.986733)
(0.00895593 -0.291334 -1.07563)
(0.0489096 -0.268484 -1.01653)
(0.0681897 -0.261382 -1.01245)
(-0.53867 0.110896 -0.452529)
(-0.604938 0.145731 -0.594273)
(-0.642901 0.176344 -0.364342)
(-0.644894 0.0992705 -0.370062)
(-0.572077 0.202769 -0.451995)
(-0.62635 0.254832 -0.424163)
(-0.614026 0.164396 -0.518068)
(-0.622168 0.140901 -0.624392)
(-0.505067 0.1172 -0.613217)
(-0.598562 0.194577 -0.616521)
(-0.671649 0.164431 -0.487819)
(-0.57206 0.106876 -0.434446)
(-0.543205 0.168667 -0.533797)
(-0.578914 0.13864 -0.471089)
(-0.545772 0.142949 -0.513135)
(-0.0819371 0.00495324 -0.670345)
(-0.0659739 -0.0235611 -0.699964)
(-0.0433879 -0.0502078 -0.846962)
(-0.0699059 -0.0191194 -0.782786)
(-0.0476761 -0.0358004 -0.730572)
(-0.0375381 -0.0508049 -0.795048)
(-0.0372791 -0.0347027 -0.792895)
(-0.066699 -0.00831279 -0.648437)
(-0.0765562 -0.00883117 -0.661186)
(-0.0908616 -0.0269021 -0.87533)
(-0.121407 0.0278004 -0.637209)
(-0.515303 0.120268 -0.841034)
(-0.515445 0.13419 -0.847127)
(-0.155215 -0.197933 -0.637284)
(-0.136647 -0.185023 -0.622996)
(-0.181713 -0.203537 -0.706862)
(-0.171531 -0.20201 -0.731278)
(-0.150029 -0.186746 -0.667903)
(-0.173393 -0.215423 -0.6853)
(-0.139135 -0.209048 -0.66588)
(-0.1837 -0.220606 -0.748432)
(-0.149999 -0.202492 -0.732505)
(-0.166801 -0.211414 -0.778808)
(-0.541198 0.213713 -0.214396)
(-0.572508 0.155075 -0.148691)
(-0.564317 0.262191 -0.291406)
(-0.560761 0.191133 -0.243645)
(-0.552985 0.264461 -0.333955)
(-0.0151959 -0.19989 -0.84702)
(0.0338362 -0.234318 -0.851501)
(0.0375122 -0.246289 -0.842815)
(0.0127422 -0.225811 -0.854248)
(-0.0153375 -0.275128 -0.879461)
(-0.012977 -0.280898 -0.874826)
(-0.0294711 -0.258946 -0.876022)
(0.0466157 -0.174486 -0.805738)
(0.0314984 -0.219824 -0.840073)
(0.0346441 -0.208863 -0.828548)
(-0.00173218 -0.223256 -0.843769)
(0.0323062 -0.191147 -0.81836)
(0.0144032 -0.254524 -0.867948)
(-0.00567443 -0.2854 -0.889518)
(-0.0818676 -0.117487 -0.652009)
(-0.0762956 -0.114817 -0.681547)
(-0.108522 -0.177359 -0.713478)
(-0.0980896 -0.161083 -0.656515)
(-0.0960244 -0.136771 -0.590842)
(-0.0974849 -0.182666 -0.700249)
(-0.0670918 -0.101065 -0.574701)
(-0.0845171 -0.124308 -0.569903)
(-0.0351449 -0.132423 -0.691257)
(-0.0757168 -0.153459 -0.668411)
(-0.016919 -0.101636 -0.617064)
(-0.0363959 -0.104908 -0.586933)
(-0.213083 -0.235216 -0.785466)
(-0.212312 -0.217782 -0.763467)
(-0.20147 -0.223273 -0.808254)
(-0.202049 -0.225242 -0.798546)
(-0.171521 -0.251934 -0.77774)
(-0.18194 -0.227733 -0.817558)
(-0.183593 -0.229537 -0.787714)
(-0.175033 -0.220298 -0.677081)
(-0.16428 -0.225344 -0.705757)
(-0.166464 -0.246402 -0.755014)
(-0.174483 -0.250373 -0.761166)
(-0.167102 -0.227851 -0.627277)
(-0.192191 -0.237135 -0.779561)
(-0.184701 -0.210336 -0.657397)
(-0.172627 -0.21278 -0.708856)
(-0.192105 -0.249143 -0.717375)
(-0.212277 -0.219535 -0.712222)
(-0.184054 -0.0247976 -0.827509)
(-0.200183 -0.0797722 -0.800015)
(-0.209544 -0.0801162 -0.808199)
(-0.20331 -0.0202381 -0.795312)
(-0.229039 -0.0909652 -0.805893)
(-0.219831 -0.0806188 -0.771208)
(-0.29306 -0.0665446 -0.768658)
(-0.231185 -0.0248177 -0.768646)
(-0.300733 -0.024615 -0.72452)
(-0.290057 -0.0168463 -0.743375)
(-0.25273 -0.0798801 -0.78506)
(-0.279078 -0.0336077 -0.731805)
(-0.317389 -0.0459953 -0.762665)
(-0.316734 -0.0397139 -0.746508)
(-0.281714 -0.0923229 -0.770942)
(-0.284677 -0.168912 -0.602293)
(-0.253043 -0.176172 -0.550386)
(-0.321955 -0.175739 -0.650412)
(-0.257808 -0.186027 -0.599334)
(-0.282789 -0.194781 -0.664543)
(-0.298953 -0.192033 -0.670238)
(-0.29087 -0.171179 -0.559657)
(-0.263192 -0.15381 -0.505284)
(-0.240595 -0.175233 -0.540457)
(-0.312654 -0.183456 -0.671725)
(-0.32272 -0.164926 -0.685995)
(-0.282058 -0.185501 -0.605935)
(-0.256001 -0.170173 -0.49487)
(-0.298214 -0.179538 -0.578065)
(-0.288357 -0.173768 -0.501307)
(-0.530109 -0.0517532 -0.313519)
(-0.535108 -0.0110649 -0.3329)
(-0.495791 -0.0370524 -0.30861)
(-0.505416 -0.0459537 -0.314962)
(-0.406511 -0.0816587 -0.183074)
(-0.429856 -0.0562136 -0.223952)
(-0.538178 -0.0305476 -0.259783)
(-0.578747 0.00350505 -0.2432)
(-0.540558 -0.0210854 -0.308627)
(-0.508404 -0.0632168 -0.168995)
(-0.494019 -0.0624045 -0.129436)
(-0.507718 -0.0465764 -0.331992)
(-0.470057 -0.0712418 -0.243445)
(-0.407729 -0.0664243 -0.18526)
(-0.397583 -0.074771 -0.167823)
(-0.545607 -0.0267921 -0.160211)
(-0.557149 -0.00644144 -0.257465)
(-0.448531 -0.0860193 -0.158238)
(-0.443639 -0.0726212 -0.0826549)
(-0.509081 -0.0455842 -0.285847)
(-0.52453 -0.0379217 -0.168886)
(-0.418683 -0.0807697 -0.099332)
(-0.483555 -0.0446016 -0.212785)
(-0.46861 -0.0667227 -0.157747)
(-0.0703047 -0.234105 -0.741977)
(-0.0488915 -0.244448 -0.760427)
(-0.074922 -0.270872 -0.837156)
(-0.097755 -0.275253 -0.841126)
(-0.0587332 -0.244309 -0.745222)
(-0.0867553 -0.270628 -0.839307)
(-0.0646097 -0.221675 -0.676244)
(-0.0388319 -0.167818 -0.55997)
(-0.0554447 -0.221242 -0.70228)
(-0.0493633 -0.173711 -0.613034)
(-0.109404 -0.277836 -0.81487)
(-0.116829 -0.259551 -0.786398)