/*--------------------------------*- C++ -*----------------------------------*\
| =========                 |                                                 |
| \\      /  F ield         | OpenFOAM: The Open Source CFD Toolbox           |
|  \\    /   O peration     | Version:  v1612+                                |
|   \\  /    A nd           | Web:      www.OpenFOAM.com                      |
|    \\/     M anipulation  |                                                 |
\*---------------------------------------------------------------------------*/
FoamFile
{
    version     2.0;
    format      ascii;
    class       surfaceScalarField;
    location    "100";
    object      phi;
}
// * * * * * * * * * * * * * * * * * * * * * * * * * * * * * * * * * * * * * //

dimensions      [0 3 -1 0 0 0 0];

internalField   nonuniform List<scalar> 
37420
(
-7.6285e-09
-2.45752e-10
7.91549e-09
-4.12332e-11
2.60901e-09
1.22745e-09
2.91134e-09
-6.74785e-09
-2.15206e-09
3.00271e-09
-7.97287e-09
7.12221e-09
-5.9581e-09
2.62081e-10
-3.74458e-09
4.96775e-09
-4.05662e-09
-6.86928e-09
3.04375e-10
-1.84561e-09
2.91413e-09
-6.80675e-09
-1.64033e-10
-6.93629e-10
2.20937e-09
1.92756e-09
3.64565e-09
-7.78248e-09
8.25892e-09
-1.07139e-08
4.66435e-09
-1.83997e-09
-1.13494e-08
4.55951e-09
8.62979e-09
-1.13136e-08
1.81574e-08
-8.51215e-09
1.66842e-09
7.91804e-09
-1.02245e-08
-9.00711e-09
-7.75871e-09
5.15604e-09
2.07601e-08
2.08685e-09
1.44838e-08
-3.68963e-09
4.97978e-09
-1.57739e-08
1.02912e-08
-4.31961e-09
-1.68383e-09
-2.0272e-09
-2.968e-09
6.679e-09
-1.57541e-08
-1.0311e-08
1.73231e-08
-1.85606e-09
-5.78849e-09
5.76863e-09
-2.49254e-09
-3.24786e-09
-2.72753e-09
6.17086e-09
-1.95457e-10
-4.39436e-09
-4.19318e-09
5.33958e-09
2.40019e-09
-6.46958e-09
-3.2489e-10
1.0053e-08
-5.72905e-09
-1.08487e-09
-3.2391e-09
2.61909e-09
3.2407e-09
4.15116e-09
-4.25961e-09
4.7818e-09
-1.25445e-09
-3.75673e-09
2.29396e-10
3.89228e-09
-9.6846e-11
2.76688e-09
-6.56232e-09
-4.56759e-09
1.58908e-09
6.87079e-09
4.22087e-09
8.78848e-09
-8.48036e-09
-4.52898e-09
-2.25254e-10
4.45089e-09
-4.75184e-12
-1.10426e-11
9.92604e-09
6.42701e-09
-7.56457e-09
7.93749e-09
6.43943e-09
5.55149e-09
-9.35829e-09
3.7099e-09
-4.5766e-09
1.17172e-08
1.22573e-08
-2.90723e-09
-2.92309e-09
1.56182e-08
-4.97079e-09
-7.29475e-09
-1.0013e-08
-7.0208e-09
4.46249e-09
1.25713e-08
-4.01992e-10
2.32471e-09
-1.19357e-08
6.09257e-09
-7.65943e-09
1.16485e-09
1.44545e-09
2.73126e-09
-1.11975e-08
3.1611e-10
1.29156e-09
3.67547e-09
-5.28319e-09
6.76444e-09
-9.23285e-09
2.78448e-09
-4.09439e-09
-2.86559e-09
1.14225e-08
-3.60011e-09
5.59828e-09
-5.19874e-09
-4.84518e-09
7.17833e-09
-5.89646e-09
2.14316e-09
4.84301e-09
-5.17152e-09
1.62006e-09
1.14568e-09
-2.04066e-09
4.69128e-09
1.29859e-10
3.49651e-09
-4.54998e-09
-1.32646e-09
-2.22249e-11
-2.35296e-10
5.48879e-09
3.95713e-09
-3.36812e-09
-6.0778e-09
1.67227e-09
4.00247e-09
-1.85953e-10
-7.9152e-10
6.89181e-09
7.30602e-09
1.82254e-09
-1.24966e-08
-5.90544e-09
9.04299e-09
-3.92907e-09
-9.16457e-11
7.07945e-11
7.233e-09
-7.21217e-09
6.63744e-11
5.85707e-09
-6.01511e-09
8.10454e-09
-7.80128e-09
-4.13421e-09
3.83094e-09
3.64393e-11
-1.16372e-10
8.18446e-09
3.52774e-09
-4.02299e-09
5.23915e-09
-3.91468e-11
1.18028e-08
-1.58857e-08
6.94621e-11
9.0443e-09
-7.4381e-09
7.54399e-09
2.30477e-10
5.18915e-09
1.61252e-08
-2.01191e-08
8.66013e-09
-4.66622e-09
1.70463e-08
-7.84397e-09
6.92276e-09
-2.59399e-09
1.77301e-09
-1.92982e-08
1.38734e-08
-6.45372e-09
1.24041e-09
1.69942e-08
-1.41456e-08
-9.58479e-09
6.73624e-09
7.42078e-09
5.83876e-09
3.73452e-09
3.88652e-09
1.29793e-08
-9.44511e-09
-3.32345e-09
1.67145e-08
3.65525e-09
1.10551e-08
-5.05107e-10
-4.61602e-10
-9.09352e-10
-1.05129e-08
1.18838e-08
-1.47197e-09
-1.53774e-08
1.63878e-08
2.22272e-08
4.00766e-10
-2.5222e-08
1.45243e-08
-1.41014e-10
-5.59008e-09
1.44098e-08
5.95326e-09
-5.14717e-09
2.34434e-08
-6.31083e-09
1.78781e-08
-1.48128e-09
6.22554e-09
6.49523e-09
5.36076e-09
-1.33373e-08
-1.52167e-08
8.2273e-09
-6.62172e-09
1.03786e-09
-2.64342e-09
-1.02607e-08
9.01081e-09
9.47711e-09
-9.58889e-09
1.31443e-09
-1.98617e-09
-1.18168e-08
-4.39384e-09
7.42197e-09
-4.752e-09
-1.63217e-09
-7.81683e-10
1.25251e-09
6.95112e-09
8.25348e-09
-2.44793e-11
1.85803e-09
5.64163e-09
-2.88322e-09
-4.6164e-09
5.93174e-09
-9.61425e-13
-4.07273e-09
-4.52958e-09
1.43146e-08
-1.53146e-09
3.65489e-09
5.14466e-09
-3.1579e-09
5.91424e-09
-9.44869e-10
2.83857e-09
-4.6422e-09
-2.94838e-09
-4.73889e-09
6.12358e-09
-1.93091e-09
2.33669e-09
3.09857e-09
9.02222e-10
1.54682e-09
4.39028e-09
-1.09595e-08
1.11221e-08
-1.19376e-08
1.17751e-08
-3.82519e-09
5.37194e-09
-9.5414e-09
7.99469e-09
3.6216e-09
-1.125e-08
3.8032e-09
4.80492e-09
-7.23003e-09
6.04676e-09
-2.03423e-09
1.22111e-08
-6.53428e-09
-4.15351e-09
-5.62164e-10
-6.17112e-09
1.84201e-09
-3.37651e-09
7.70566e-09
2.81261e-10
-1.74119e-08
9.00638e-09
-8.2202e-09
-7.32043e-09
-1.57368e-09
1.03868e-09
-5.52681e-09
7.25673e-09
1.12121e-10
-1.34657e-08
8.82814e-09
7.20297e-10
-8.3322e-09
-7.06286e-09
1.33609e-08
-9.27374e-09
1.42154e-09
6.22253e-10
-6.17052e-09
-6.52287e-09
7.01883e-09
-7.8158e-09
2.17448e-09
-3.21439e-09
-1.11243e-08
-1.07289e-08
1.99843e-09
-4.29247e-09
8.62246e-09
-7.92247e-09
8.86819e-09
-9.56819e-09
-2.52392e-09
4.17442e-10
-9.45979e-09
9.98171e-09
-9.98206e-09
-1.17323e-08
-2.51381e-10
-1.58252e-08
1.13031e-08
1.86797e-09
2.65409e-09
-1.06428e-08
-9.92985e-09
4.74746e-09
-2.87967e-09
8.50867e-09
-1.31433e-08
-7.09769e-09
1.09778e-09
-2.57121e-09
8.37672e-09
-1.61233e-08
-2.89627e-09
-1.84104e-09
1.13155e-08
-3.76468e-09
1.26541e-08
1.15094e-08
-2.03987e-08
-1.12341e-09
1.77647e-09
-1.53002e-08
1.46472e-08
4.26565e-10
-1.67033e-08
1.51534e-08
2.16153e-08
2.25427e-09
-2.34429e-08
2.26386e-08
6.14802e-09
-7.17124e-09
-1.67647e-08
-8.42695e-09
2.91388e-08
-3.94707e-09
7.66198e-09
1.1212e-08
-1.64446e-08
-2.07539e-08
2.04338e-08
-1.93184e-08
-1.07692e-09
3.95063e-09
1.74997e-08
6.50898e-10
-1.58963e-08
2.06162e-08
3.0315e-09
-2.07207e-08
1.99558e-08
1.2547e-08
-1.44891e-08
-1.73763e-08
-6.09619e-09
-2.11068e-09
-1.20618e-08
-6.20067e-09
3.57433e-12
-6.82638e-10
8.05428e-09
-3.3852e-09
-2.13545e-10
3.60228e-09
8.89074e-10
6.29824e-09
-2.54737e-09
-3.2024e-09
3.367e-09
-1.5494e-09
1.38412e-09
-2.24187e-09
-3.11397e-10
3.44228e-09
6.23406e-09
-2.13187e-09
-7.64143e-10
1.1576e-10
-1.90653e-10
1.46849e-09
-2.74894e-09
2.9105e-09
-1.63005e-09
-8.87531e-10
2.38612e-09
-3.00958e-11
2.33125e-09
-9.19755e-10
7.99827e-10
-2.21136e-09
1.53784e-09
-9.41266e-11
1.34302e-10
-3.80299e-09
-3.39164e-09
3.02839e-09
2.74947e-09
-3.48642e-10
-1.32466e-10
3.21079e-09
-3.1336e-10
-2.09759e-09
9.91005e-10
3.45987e-09
-1.24017e-09
2.53255e-09
-3.74566e-12
1.41373e-09
-5.36233e-09
4.08289e-09
5.29985e-10
-2.36026e-10
4.23749e-09
-4.53131e-09
-1.9025e-10
3.74862e-09
4.18737e-09
-3.08694e-09
6.21505e-10
-4.12671e-10
3.251e-09
2.96379e-09
3.53872e-09
8.49206e-09
-3.42753e-10
-2.00144e-09
-6.14786e-09
4.37574e-09
3.31305e-10
3.78501e-09
-9.49901e-09
5.43385e-09
8.44091e-09
-2.97859e-09
-6.86316e-09
7.62427e-09
-2.68605e-09
-6.93967e-09
4.25616e-09
3.69938e-09
4.27005e-09
-2.07712e-09
2.06318e-09
-7.63239e-10
-2.54936e-09
7.58261e-09
8.03171e-09
-3.36111e-09
-7.71228e-10
-5.8226e-09
-9.22811e-10
7.51668e-09
3.77893e-09
-1.30859e-09
-5.15643e-09
5.54055e-09
-1.74246e-09
-1.91869e-11
-3.88677e-09
-2.72871e-09
4.06608e-09
-4.23371e-10
5.52584e-09
-4.83381e-09
-1.46325e-09
3.28064e-09
-4.83511e-10
-4.28901e-09
-2.2873e-09
2.0021e-09
-7.5997e-09
-6.79911e-09
-2.5867e-09
-3.13379e-09
1.69524e-09
4.02517e-09
-2.92492e-09
-5.56704e-10
2.94621e-09
5.35363e-10
5.8838e-09
-3.12253e-09
-5.40766e-09
2.64638e-09
-1.59546e-10
5.02307e-09
1.02023e-09
4.31173e-09
-3.85569e-09
9.09126e-10
-1.3652e-09
5.75758e-10
3.57639e-09
1.73114e-09
-2.97023e-09
-1.90252e-09
3.14161e-09
-1.13607e-09
-5.77204e-11
-5.5693e-09
-1.40895e-09
-2.95034e-09
2.96942e-09
-1.97814e-09
-6.30662e-11
-4.22133e-09
-1.33561e-09
-2.96073e-09
-1.5347e-10
-9.73344e-09
-3.79318e-09
1.20073e-08
1.51948e-09
7.9697e-09
-1.07441e-08
1.25972e-08
-9.82276e-09
1.07523e-08
-1.31193e-09
-1.47058e-09
6.21666e-09
-1.1698e-08
1.64875e-09
3.83289e-09
-1.20607e-08
8.54395e-09
2.99434e-10
-1.67995e-08
5.75592e-09
-1.07325e-08
1.14454e-08
1.00394e-08
1.01182e-09
8.53103e-10
-5.07027e-09
-1.26913e-09
-5.72125e-09
-5.55169e-09
-1.12166e-08
6.91972e-09
-2.74226e-09
-5.44657e-09
1.25459e-08
-1.7798e-08
6.12724e-09
6.28243e-09
-9.16728e-10
-1.14929e-08
9.9379e-09
3.10911e-09
3.04446e-09
1.05135e-08
2.00797e-09
5.99849e-11
4.21458e-09
8.15272e-09
8.0245e-09
3.48103e-09
-7.27016e-09
-3.61326e-09
9.25124e-09
-6.12612e-09
2.69386e-09
-3.83793e-09
-2.02692e-09
1.04258e-08
-1.20122e-08
-2.29352e-09
1.70707e-08
-1.08567e-08
-3.92063e-09
1.19405e-08
-8.89237e-09
-5.34181e-09
-3.08548e-09
3.45337e-10
-5.54464e-09
8.28471e-09
-9.66889e-09
1.73782e-09
1.80481e-09
3.16569e-09
-1.9332e-10
1.40983e-08
-8.13853e-10
-4.63208e-10
6.83393e-09
-6.18972e-10
-9.60419e-10
1.37937e-08
1.96548e-09
7.5032e-10
7.46456e-09
5.65164e-09
-9.54267e-10
2.62645e-09
5.36592e-09
1.72928e-09
7.73111e-09
7.28684e-09
9.40682e-11
9.76389e-09
-5.29106e-09
-7.67064e-09
3.19779e-09
2.73709e-09
-1.13537e-08
1.08044e-08
-2.18772e-09
1.52569e-08
-9.52179e-09
1.44084e-08
-2.01435e-08
-1.51969e-09
1.82201e-08
-1.44354e-09
1.09813e-08
-3.85528e-11
-1.66062e-08
-2.38833e-08
6.69093e-09
2.47005e-09
2.50336e-09
1.32467e-08
-1.15369e-08
-4.07533e-09
2.50144e-09
1.31108e-08
-7.02961e-09
-3.83035e-09
-6.76959e-10
7.79436e-09
-4.73928e-09
-1.00847e-08
1.48729e-08
-4.29485e-09
1.32676e-08
-8.10382e-09
-6.47684e-10
1.1253e-08
-1.93633e-09
1.62686e-09
7.88144e-09
-3.41576e-10
-4.34208e-09
2.55748e-09
1.09272e-08
-5.75969e-09
7.66948e-09
1.85418e-10
-6.13613e-09
-3.58281e-09
-2.94527e-09
-6.45733e-09
-1.69897e-09
2.02009e-09
-9.31209e-09
1.21397e-08
-6.41043e-09
-1.95108e-10
-8.77665e-09
-3.40349e-10
-6.3601e-09
-2.92361e-10
-1.13026e-09
-8.11945e-09
1.72169e-10
9.0775e-09
-1.56888e-09
-8.33805e-09
-4.10359e-09
-4.29384e-09
-5.4943e-09
-3.08256e-10
-1.44648e-08
2.00475e-09
4.34054e-09
2.05618e-09
-5.19036e-10
-5.83102e-09
1.72494e-09
-2.37809e-09
-5.70696e-09
-3.90403e-09
1.3464e-10
-1.74791e-08
2.19378e-09
9.56315e-09
5.72221e-09
1.41989e-08
-9.20505e-09
-2.2473e-08
-2.78153e-08
1.06338e-08
1.93753e-08
-4.27331e-09
-9.34307e-09
-1.87174e-09
-8.22613e-09
6.1058e-09
3.9922e-09
-1.1339e-08
2.64649e-09
6.82094e-09
3.25758e-09
3.95834e-09
-1.64209e-08
-1.13049e-08
1.6892e-08
-9.86037e-09
6.02083e-09
-8.14834e-09
-9.21146e-09
-2.13295e-09
-7.22815e-11
-1.1258e-10
1.10903e-08
-4.8719e-09
1.50257e-09
-6.39327e-09
3.39321e-09
-1.07397e-08
1.02676e-08
8.71095e-09
-2.08656e-09
8.93601e-09
1.19654e-08
8.77229e-09
-3.87644e-09
-1.11171e-08
1.99406e-08
-6.94672e-09
4.54056e-09
-3.07365e-10
7.42632e-09
3.43097e-09
-1.5649e-08
4.79177e-09
-1.81088e-08
1.19656e-08
1.35696e-08
-1.27431e-08
-8.53163e-09
1.10106e-08
1.02641e-08
-1.3597e-08
4.28492e-09
1.99424e-08
6.35073e-11
-1.24119e-08
-7.59408e-09
1.37149e-08
-1.71127e-08
2.33403e-08
1.07415e-08
-1.01121e-08
-1.62783e-08
-7.30385e-09
-2.34449e-09
2.8025e-08
2.06176e-08
-1.54233e-08
-1.76062e-08
-6.41433e-09
9.91921e-09
-1.3442e-08
-1.32978e-09
6.24015e-09
-1.19482e-08
-1.50908e-08
2.13478e-08
-1.26817e-08
1.52272e-08
-3.26205e-09
-2.73884e-08
1.34192e-09
7.47097e-09
-2.53224e-08
1.17268e-08
-2.2797e-08
4.38017e-10
1.06321e-08
-6.52151e-09
1.53024e-08
2.94597e-09
1.21185e-10
2.31917e-08
-1.01103e-08
-1.29602e-08
-9.03851e-09
1.57334e-08
-1.61418e-08
9.44699e-09
-5.76159e-09
2.24318e-08
-9.64651e-09
1.53841e-08
-1.58479e-08
-2.00148e-08
2.42624e-08
-1.05802e-08
1.70192e-09
2.51046e-09
1.59903e-08
5.38539e-09
-2.3219e-10
2.15162e-08
5.85154e-09
-2.19824e-08
-9.99238e-09
-6.35719e-09
1.20059e-08
4.3437e-09
-2.94596e-09
1.43015e-08
1.76695e-08
-1.78056e-08
-2.40673e-09
8.23195e-09
1.19803e-08
-4.57244e-09
-1.08077e-08
-2.42558e-09
-1.42976e-08
2.53342e-09
9.35742e-09
-9.20166e-09
-9.66848e-09
6.40825e-09
1.60849e-08
-1.42613e-08
5.36392e-09
1.04197e-08
-1.32502e-08
-5.54832e-09
2.7805e-12
2.17886e-08
-1.62431e-08
7.71335e-09
-7.89778e-09
1.45539e-08
-1.53186e-08
9.98583e-09
-9.22113e-09
7.32128e-09
4.74851e-09
2.48417e-09
1.49052e-08
-2.42015e-08
1.01341e-08
-8.37809e-10
1.27982e-08
3.32479e-09
-1.21778e-09
-1.84446e-08
2.48556e-08
-1.63938e-08
5.27052e-09
-1.01626e-08
-1.31732e-08
-7.6722e-09
3.10079e-08
-1.36766e-08
1.63121e-08
-1.41084e-08
-1.54586e-08
-9.03385e-10
1.19682e-09
9.69465e-09
-9.98807e-09
8.47158e-09
6.23733e-10
-9.99867e-09
6.17464e-10
1.35176e-08
-1.29383e-08
-3.24647e-10
1.08911e-08
-9.94905e-09
5.01907e-09
8.1948e-09
-4.74228e-09
-3.68389e-09
8.98612e-09
-2.83177e-10
-9.89041e-09
1.01895e-08
9.07455e-09
-3.06381e-09
1.38071e-08
7.54222e-09
-7.83164e-09
1.65692e-08
8.12904e-09
-2.08858e-09
6.63623e-09
4.43849e-09
3.9004e-09
2.20583e-09
3.05611e-09
1.98949e-09
2.49676e-09
8.55113e-09
1.10742e-08
1.47003e-09
5.55638e-09
-1.68224e-08
9.79594e-09
7.55548e-09
3.50858e-09
5.03661e-09
4.9846e-09
-8.18466e-10
-4.66709e-09
9.38597e-09
-4.00063e-09
1.31973e-08
-4.16008e-09
1.01911e-08
-1.8174e-08
-1.56878e-08
8.63977e-09
-1.13957e-08
2.39818e-09
-1.90728e-08
2.80703e-08
-2.2418e-08
1.47568e-08
2.53052e-08
1.39254e-08
-3.93717e-08
8.06843e-09
-1.28959e-08
-1.03892e-08
-9.25098e-09
-1.44733e-08
1.30629e-09
8.51287e-09
8.04713e-09
5.17e-09
-2.17301e-08
1.5327e-08
1.8491e-08
2.36785e-08
-1.64352e-08
-2.4006e-09
1.3479e-09
1.51831e-08
-8.23226e-09
-8.29863e-09
1.14075e-08
-1.06979e-08
3.8184e-10
2.77421e-09
-1.18259e-08
-3.64227e-09
1.2694e-08
7.34508e-09
-4.56862e-09
-2.2454e-12
5.7371e-09
6.81699e-09
-5.20897e-09
5.89745e-09
-1.70225e-08
-7.00851e-10
-3.07807e-09
-4.07442e-09
1.28896e-08
-7.12526e-09
1.15594e-08
-7.51213e-09
-5.97024e-09
-6.55518e-09
8.45103e-09
-5.11038e-09
-9.2413e-10
6.42986e-11
3.59853e-09
-1.01771e-08
1.2476e-08
-1.01231e-09
-8.66666e-09
8.80442e-09
-8.59704e-09
-1.13145e-09
-2.12617e-09
4.37544e-09
-1.13048e-08
2.05342e-09
-3.16571e-09
-3.91084e-09
-7.85189e-09
5.6517e-09
-8.88603e-09
-3.96916e-09
7.20354e-09
-1.85912e-08
2.51133e-09
2.17315e-08
1.36753e-08
-1.73579e-08
-5.20344e-09
-1.0714e-08
5.79814e-09
-2.73879e-09
1.2208e-08
2.2025e-09
-1.16717e-08
-1.441e-08
9.57196e-10
4.41933e-09
-3.04542e-09
2.24424e-08
-2.38162e-08
1.23552e-09
1.68509e-08
-1.3667e-08
1.59548e-08
1.85092e-09
-1.79433e-08
1.68249e-09
-2.27555e-08
1.57409e-08
-4.35221e-10
-1.95774e-08
2.42698e-08
-4.2571e-09
3.56547e-09
-1.90725e-08
-1.96252e-08
-9.86023e-10
1.89016e-08
4.19927e-09
-2.21147e-08
-2.45888e-08
1.99325e-08
3.67022e-09
-9.13204e-09
-8.43201e-09
-7.02478e-09
-1.79702e-08
7.28793e-09
-3.66455e-09
1.43467e-08
5.60288e-09
-1.36937e-09
1.66705e-08
-2.09041e-08
6.95412e-09
-3.40625e-09
-2.1518e-08
-4.7943e-09
-1.5111e-09
2.5207e-08
2.24261e-08
5.39621e-09
-2.00164e-08
1.32031e-08
1.41715e-09
5.24953e-09
-1.78073e-08
1.81606e-08
-1.62228e-09
1.94848e-08
-1.09085e-08
-2.4521e-09
2.74782e-08
2.88939e-09
-2.79156e-08
-2.3935e-08
2.16769e-08
-1.94018e-10
-7.41946e-10
-1.40802e-08
-9.11279e-09
2.25138e-08
-1.35117e-09
-3.89336e-09
-1.72693e-08
-8.73049e-09
1.33848e-08
-1.68637e-08
2.06021e-08
2.18373e-09
7.48712e-09
7.83377e-09
1.60026e-08
-1.09072e-08
6.20949e-09
-1.13048e-08
5.86347e-09
9.57813e-09
5.60931e-10
-1.39079e-08
-6.96991e-09
5.46323e-09
1.54145e-08
-5.94313e-09
6.6416e-09
3.44167e-09
5.4548e-09
-1.17978e-08
5.32277e-09
1.23384e-08
-2.68675e-09
-2.90155e-09
3.61285e-09
6.06283e-09
8.91943e-09
1.48187e-10
5.27935e-10
-3.62046e-09
8.41523e-09
-4.63122e-09
-5.64858e-09
6.74304e-09
-6.73996e-09
2.41538e-09
8.09213e-10
3.51498e-09
1.14175e-08
-9.2381e-09
3.93176e-09
4.37965e-09
-1.16647e-09
-2.0529e-08
1.73158e-08
-1.15545e-08
9.51983e-09
2.59981e-09
-5.65158e-10
4.37739e-09
-1.15522e-08
-2.34046e-08
-1.12817e-08
1.01587e-08
1.06429e-08
-7.58129e-09
-1.714e-09
1.40753e-08
3.52336e-09
1.07015e-08
1.49202e-08
-2.29065e-09
4.26534e-09
-8.13197e-09
6.15721e-09
5.95671e-09
-1.47969e-08
6.54951e-09
6.08826e-09
-1.00161e-08
9.88454e-09
-6.75395e-10
1.1029e-08
1.73032e-08
5.59141e-09
2.87468e-09
1.16723e-08
2.05464e-08
-1.67357e-09
-3.16959e-09
-3.23716e-09
8.24457e-09
5.88009e-09
1.92415e-08
9.49688e-09
-2.04632e-08
5.03883e-10
9.44508e-09
1.05142e-08
-1.01144e-08
5.8175e-10
-1.09305e-08
8.69044e-09
-6.707e-09
-1.20979e-08
1.21748e-08
-5.72861e-09
-5.86447e-09
1.20745e-08
4.84204e-09
-4.74173e-09
5.91217e-09
6.66624e-09
-1.40406e-08
9.62698e-09
1.38587e-08
-1.01296e-09
-4.33721e-09
-7.00039e-09
5.35695e-09
7.55561e-09
-2.39286e-09
2.34502e-10
3.11964e-09
-1.48476e-08
-9.08627e-10
1.26366e-08
4.9042e-10
1.22562e-08
6.69176e-09
-5.16079e-09
-7.25958e-09
7.93756e-09
-7.75506e-09
7.25967e-09
-7.44219e-09
2.38196e-09
5.7296e-09
-1.74033e-10
-1.10799e-08
-4.78061e-09
-1.9377e-09
7.78505e-09
4.27343e-09
2.54474e-11
-1.55833e-09
8.62442e-09
-1.37731e-08
-1.44742e-08
6.52042e-09
1.34948e-10
1.3123e-08
-2.48375e-09
-3.37953e-09
1.2311e-08
6.54153e-09
1.9692e-09
9.43317e-09
6.55191e-09
-4.93923e-09
-2.16317e-09
4.57404e-09
-2.3937e-09
-1.71262e-11
7.76835e-09
-5.43749e-10
-2.33138e-09
-4.89316e-09
2.50961e-10
1.46405e-09
6.05337e-09
1.13432e-08
-7.70349e-09
-4.18338e-09
9.30142e-09
2.29275e-09
8.96119e-09
-2.96155e-10
5.18893e-09
-1.38539e-08
4.74712e-09
-3.48936e-09
5.52835e-09
-2.71775e-09
2.40052e-09
-5.2111e-09
3.5595e-09
-1.94319e-10
-7.68233e-09
4.66846e-09
1.30549e-09
4.73261e-09
1.31252e-08
1.24263e-09
-9.1788e-09
5.29962e-09
1.25728e-08
8.25437e-09
-4.61124e-09
7.27151e-09
4.54238e-09
9.29937e-09
-7.22325e-10
8.60889e-09
1.13617e-08
-6.88046e-09
-1.309e-08
-3.68855e-09
-1.79661e-09
1.40941e-08
1.87417e-08
3.15992e-09
-1.10593e-08
-1.08422e-08
6.183e-10
3.41152e-09
1.47121e-08
-1.58631e-08
3.18502e-09
1.32965e-08
-6.74461e-09
-5.95848e-09
-5.10405e-09
-1.73749e-08
1.14197e-08
2.77242e-10
3.03994e-09
8.04452e-09
6.27366e-09
-1.82581e-08
8.44773e-09
-5.86255e-09
1.88813e-09
1.35303e-08
-1.20068e-08
2.23723e-09
-1.0996e-08
1.19439e-08
1.26906e-08
-8.56524e-09
9.8779e-09
-8.17477e-09
5.31397e-10
-1.64946e-09
4.73131e-09
3.52198e-09
-3.43883e-09
-4.81445e-09
6.39368e-12
4.85449e-09
-1.29575e-10
4.58084e-09
4.02227e-09
-3.58659e-09
-5.01651e-09
4.66874e-09
-8.15162e-11
-6.91915e-09
6.53364e-09
5.05425e-09
2.05166e-10
-3.10203e-09
-3.15447e-09
4.86503e-09
3.14396e-09
1.31283e-09
-9.45275e-10
-7.94215e-09
1.53525e-10
2.25718e-10
6.15442e-09
-7.21427e-09
1.02989e-10
7.26486e-09
-2.7945e-09
3.74627e-10
4.71614e-09
-2.50326e-10
8.50612e-09
6.17181e-09
-1.74985e-09
6.29612e-09
6.903e-09
-6.43473e-09
-4.33144e-09
3.86315e-09
4.10608e-10
5.20488e-09
1.2874e-09
2.78278e-10
-2.72314e-09
-5.06292e-11
2.49525e-09
-3.01029e-10
2.21829e-09
-3.73044e-09
1.81308e-09
-2.33889e-09
-6.38158e-09
2.21828e-09
6.5021e-09
3.19272e-09
-5.83268e-09
-2.8404e-09
-1.11434e-09
4.4947e-09
-5.40061e-10
-2.93366e-09
3.71517e-10
1.34696e-09
-1.85185e-09
1.71346e-09
1.67997e-09
-2.00899e-10
4.03519e-09
-4.73901e-09
1.26743e-10
-2.65537e-09
-1.67114e-09
-1.951e-09
-3.70892e-09
1.44997e-09
-3.96632e-10
-3.25966e-09
-2.07085e-09
7.74556e-10
4.55592e-09
-4.76622e-09
-4.98655e-09
6.4931e-09
-1.04892e-09
-3.75768e-09
1.09768e-09
-3.03713e-09
-3.48472e-09
4.85072e-09
-3.93946e-09
-1.46578e-10
-3.64841e-10
-3.94065e-09
3.98263e-09
3.22851e-10
-3.7998e-09
3.44781e-09
-1.28498e-11
2.90693e-09
1.13466e-09
-7.98228e-09
3.5648e-09
-4.45767e-09
-5.5836e-09
-2.1193e-09
4.21819e-09
-1.38134e-10
-4.97257e-09
3.44466e-10
8.68022e-11
6.00513e-10
-5.34277e-09
-8.41341e-10
1.08865e-10
-5.75308e-09
1.56292e-09
4.09287e-09
-7.93079e-09
-5.19247e-10
-1.25874e-09
-2.17944e-09
5.17977e-09
-4.33886e-09
-6.02306e-09
5.18215e-09
1.28786e-09
-4.12692e-09
8.01882e-09
2.424e-09
-1.15021e-08
4.82918e-09
-9.98648e-09
-3.94277e-09
1.00598e-08
1.80658e-09
-5.61517e-09
-2.21447e-09
-2.3828e-09
6.24607e-11
-4.3717e-09
-6.4228e-09
6.85174e-09
-3.30633e-09
-1.13245e-09
6.70699e-11
-6.87689e-09
-8.71145e-10
1.32524e-09
-5.22663e-09
-4.95659e-09
1.17841e-08
3.87568e-09
-3.17311e-09
-1.24867e-08
9.26483e-10
-1.39181e-09
-6.23461e-09
-3.47641e-09
-3.88237e-11
9.99038e-10
-9.39877e-09
-2.53332e-09
-4.47367e-09
-5.01069e-09
1.85889e-08
4.82642e-09
-5.46681e-09
-1.79483e-08
-1.35974e-08
2.21461e-08
1.00402e-08
2.28747e-08
1.24392e-09
-1.9292e-08
2.07188e-08
-5.48821e-11
-2.61306e-08
1.08371e-08
-3.71574e-09
-6.24576e-09
3.15807e-09
2.2925e-08
-1.98371e-08
2.51354e-08
-3.1436e-08
-1.46285e-08
-1.48676e-08
3.53522e-08
-5.85591e-09
-2.02296e-08
-1.46687e-08
2.02698e-08
-4.95147e-09
-1.49019e-08
2.60452e-09
1.72491e-08
-2.04929e-08
-3.08876e-09
1.86304e-08
-4.30384e-10
1.4405e-08
8.17158e-09
7.54251e-09
-1.60909e-08
2.03837e-08
1.60524e-08
-1.13006e-08
2.55055e-08
1.78033e-08
-9.80572e-09
-2.45376e-08
-5.49764e-09
1.52015e-09
9.31671e-09
2.35196e-09
-2.81596e-09
1.07199e-08
-6.85784e-10
-7.21811e-09
5.12007e-09
7.55949e-09
-2.6299e-09
-1.00497e-08
-5.55976e-09
9.20553e-09
1.4743e-09
-9.77756e-09
-3.25441e-10
1.59681e-09
8.50612e-09
-7.08375e-09
-2.17253e-09
6.44027e-09
-1.8528e-09
7.24065e-09
3.3353e-09
-8.72315e-09
1.4452e-10
7.35629e-09
5.87204e-11
7.04386e-09
3.79063e-09
-1.34644e-08
7.07952e-09
-9.8132e-09
7.19156e-09
3.24889e-11
-8.09189e-09
6.82652e-10
5.02424e-09
-9.04959e-09
3.67387e-09
-7.97513e-09
-1.70996e-08
3.82191e-09
7.76884e-10
1.25008e-08
3.53231e-09
-1.22217e-08
-8.41018e-09
1.48856e-08
1.41718e-09
-1.55592e-08
-7.43512e-10
3.46206e-09
1.52455e-08
1.20774e-08
-1.188e-08
1.21986e-09
-1.56342e-09
1.71028e-08
1.59111e-08
-1.00311e-08
-2.34763e-09
3.77965e-09
1.29084e-08
6.01743e-10
-5.34273e-10
-1.22891e-08
-3.29097e-10
-1.46284e-08
-1.41631e-08
1.13772e-09
1.14546e-09
-7.64665e-11
-1.04889e-08
-4.49751e-10
-1.40425e-08
-9.64056e-09
1.18568e-08
-1.02507e-08
1.74786e-09
-1.07769e-08
2.61027e-09
1.02007e-08
-1.24463e-08
-3.64439e-10
-3.61702e-09
4.14991e-09
2.07745e-09
9.0826e-09
-1.83167e-09
-3.15107e-09
-4.09981e-09
-7.2004e-10
6.18568e-09
-8.49825e-09
1.15917e-08
1.05648e-09
-6.74211e-09
8.44463e-09
-7.42164e-09
-6.85635e-09
-6.72415e-09
4.25182e-09
1.75231e-09
-5.256e-09
-4.6192e-09
-5.93436e-09
-1.75256e-09
-2.3648e-09
-1.09912e-08
-3.25052e-09
-6.68482e-09
4.67935e-09
-6.327e-09
7.07532e-09
3.26952e-09
-4.01779e-09
-2.21051e-09
-1.77978e-09
-8.77318e-09
-6.11387e-09
2.81013e-09
2.82451e-10
3.02125e-09
3.43772e-09
-5.73952e-09
-3.81207e-09
-3.94246e-09
2.74653e-09
4.00606e-09
-4.35172e-10
-6.95674e-11
-3.30688e-10
6.07254e-09
8.86946e-10
-6.62883e-09
5.49858e-10
-6.62007e-09
-3.08255e-09
3.12931e-09
5.03101e-10
3.49097e-09
-2.88953e-10
-3.47514e-09
2.73118e-10
5.27512e-09
3.59512e-09
-5.37927e-09
-3.58989e-09
2.1838e-10
3.17785e-09
3.17712e-09
2.78532e-09
-9.11784e-11
9.42626e-10
8.56725e-09
-8.62295e-09
1.65632e-10
8.78752e-09
-8.01054e-09
5.94385e-09
3.3792e-09
5.35456e-09
-1.66547e-10
8.77162e-09
3.39508e-09
-6.68124e-09
7.34622e-10
-4.39389e-09
1.03405e-08
-4.84092e-10
2.57446e-09
3.55592e-09
-3.81336e-09
5.71573e-10
-3.14173e-10
-2.32548e-09
-4.79748e-09
7.85758e-09
-3.19285e-09
3.61389e-09
-6.25906e-11
-3.44953e-10
4.13852e-09
1.17124e-09
4.2885e-09
2.69655e-08
-1.36754e-08
-8.95333e-09
-4.33675e-09
-7.12427e-09
1.72037e-08
7.19974e-09
-1.72792e-08
9.36786e-09
-6.5737e-10
-1.58347e-08
6.88432e-09
-1.71147e-08
4.64261e-09
5.5878e-09
8.96663e-09
-3.90481e-09
2.19038e-08
-6.85456e-09
1.88931e-08
-9.79053e-09
-2.24802e-09
1.31639e-08
-1.31341e-08
2.71783e-09
2.15382e-08
-1.10922e-08
1.82446e-08
-6.15891e-09
6.41925e-09
1.97511e-08
-1.17483e-08
2.72439e-08
-2.53383e-08
9.84272e-09
-4.13259e-09
1.15432e-08
-1.9159e-08
-1.20966e-08
1.4528e-08
-9.04178e-09
6.6103e-09
-1.79551e-08
1.42319e-08
2.19678e-08
1.02199e-08
-6.63677e-09
-6.43901e-09
4.56228e-09
8.32146e-09
1.47821e-08
-7.25715e-09
-7.49251e-09
-3.2373e-11
1.1776e-08
6.08145e-09
-4.96781e-09
-9.8342e-09
1.08058e-08
1.08044e-08
-1.53854e-09
3.26377e-09
2.13234e-09
1.11113e-08
1.59908e-09
1.27457e-10
-6.07854e-09
4.3521e-09
2.94101e-09
-1.41044e-08
1.27624e-08
-3.97507e-09
3.6453e-10
9.69203e-09
-1.32466e-09
4.16665e-09
1.24392e-08
-3.73337e-10
-2.89489e-09
-9.17094e-09
-1.59922e-08
-4.35405e-09
3.24693e-09
1.70994e-08
1.4091e-08
-1.29991e-08
-1.70839e-08
-6.91849e-10
1.04289e-08
-2.98814e-09
1.06138e-08
-1.37089e-08
6.08323e-09
6.97967e-09
-1.20427e-08
2.07485e-09
-1.11331e-08
1.98417e-09
8.4572e-09
8.71967e-09
-1.34867e-08
-6.36606e-09
-1.17182e-08
2.7112e-09
-5.24133e-09
2.24285e-09
-9.94608e-09
-2.75159e-10
1.29325e-08
-5.79384e-09
2.82744e-09
1.35856e-08
-2.12939e-10
-3.32694e-09
-9.4592e-09
-3.29391e-09
-1.06279e-08
-2.38872e-09
-1.29479e-08
-9.95959e-11
-1.6714e-08
-1.00681e-08
-9.67071e-10
-1.25564e-08
-1.27535e-08
5.76014e-09
-8.9968e-09
1.59902e-08
-2.03564e-08
1.56426e-08
-8.03975e-09
-2.44003e-08
1.50307e-08
-2.08046e-09
1.14501e-08
9.69525e-09
-1.97753e-08
-3.50691e-09
1.3587e-08
1.62519e-08
-3.97843e-09
-6.51337e-09
1.59689e-08
-1.21339e-09
-1.64375e-09
-1.31117e-08
1.42383e-08
-4.98819e-09
1.18476e-09
-1.04349e-08
1.78465e-09
1.34898e-08
-1.08724e-08
-4.40215e-09
-1.12791e-08
-4.96231e-09
1.80261e-08
-4.15847e-09
-1.46268e-09
-1.53079e-08
2.09291e-08
-1.83575e-08
9.07636e-09
-1.99798e-09
2.85047e-10
-2.3906e-09
-1.62489e-08
1.44517e-08
1.22581e-08
-1.0461e-08
-1.72547e-09
1.4723e-08
-5.23355e-09
-3.72715e-09
1.55376e-08
2.32975e-08
-1.45589e-08
-1.37429e-08
5.00439e-09
-5.03348e-10
2.19971e-08
1.80384e-09
2.42811e-08
-1.0598e-08
8.74886e-09
2.19178e-08
1.86e-09
-3.00226e-09
-2.21547e-08
6.74365e-09
1.49055e-08
3.48014e-10
-2.14104e-08
3.50705e-09
2.55744e-08
-7.67098e-09
-2.24679e-08
1.38926e-09
-3.31828e-10
-4.89055e-09
2.60497e-08
-2.70987e-08
5.93965e-09
-2.83041e-08
9.45759e-10
-2.20779e-08
3.0016e-09
-9.22774e-09
-5.16647e-09
1.22274e-08
-2.59118e-08
2.40807e-08
2.37489e-08
-1.86054e-09
1.01018e-08
-1.82705e-08
1.4536e-08
-1.43253e-09
-1.45073e-08
4.5871e-09
2.44562e-08
-5.57728e-09
3.5134e-08
-1.67319e-08
2.52471e-08
-7.61904e-09
-2.71438e-09
5.03692e-09
5.2965e-09
-2.46263e-09
-5.15926e-09
2.85079e-12
7.46351e-09
6.27935e-09
-7.53434e-09
-6.20853e-09
5.22756e-09
-2.2668e-10
-8.17756e-09
8.88428e-09
4.52083e-09
-8.39665e-10
-1.05856e-09
7.52998e-09
-8.29004e-09
-4.39922e-09
1.98311e-09
2.83249e-09
5.96006e-09
1.07849e-09
1.84576e-09
2.27771e-09
8.71927e-09
-1.41905e-09
-1.75748e-09
-5.11353e-09
-1.92287e-09
-7.03057e-09
-5.64541e-09
-4.8129e-09
1.2736e-08
-8.7449e-09
4.17796e-09
6.78168e-09
-7.72783e-09
2.92928e-09
-8.29447e-09
1.02632e-08
2.00262e-09
7.10021e-09
-1.10258e-08
8.18211e-09
-7.93698e-09
-1.1184e-08
1.21184e-08
-1.7741e-09
1.17149e-08
-1.57987e-08
7.51109e-09
-7.05685e-09
-1.17492e-09
3.91497e-10
-9.88937e-09
1.32628e-08
6.50592e-10
1.31222e-09
2.22368e-08
-5.87054e-09
-1.76785e-08
2.96506e-08
-2.24029e-08
-5.93548e-09
2.47279e-08
8.8476e-09
-3.92496e-09
2.40424e-08
-1.09208e-08
1.16063e-08
1.24962e-08
-1.98344e-08
3.43347e-09
2.77003e-08
-2.45613e-08
5.70854e-09
9.44047e-09
4.23022e-08
3.82716e-09
1.76131e-08
-8.94411e-09
1.64763e-08
-2.29448e-08
-1.59344e-08
1.78048e-08
-1.52088e-08
-2.13499e-08
1.87539e-08
1.18752e-08
-1.12211e-08
1.71507e-08
1.29729e-08
-1.63001e-08
-1.03484e-08
-4.63224e-09
-2.22929e-09
-6.95679e-09
7.25924e-09
-2.24921e-08
1.30411e-08
2.19172e-09
2.05268e-08
6.37849e-09
-8.22956e-10
-2.87302e-08
-2.77865e-09
-4.23832e-09
1.68123e-08
-2.07779e-08
6.21643e-09
-2.25086e-09
-8.13876e-09
5.60204e-09
1.9349e-08
7.20644e-09
1.36658e-08
-6.25292e-09
2.79238e-09
-8.55785e-09
-3.37936e-09
4.94916e-09
6.98807e-09
1.57299e-09
1.98092e-10
3.79732e-09
7.6068e-09
-1.18559e-08
4.51766e-10
1.13953e-08
2.79501e-10
-1.39793e-09
6.92502e-09
-1.41694e-08
-1.98893e-09
2.17604e-08
4.42249e-09
5.20198e-09
1.52394e-08
-1.22791e-08
-1.80511e-08
8.72178e-09
3.83121e-09
5.49815e-09
6.38493e-09
-4.9537e-09
-1.94823e-08
-2.83713e-09
-1.51782e-08
7.08251e-11
8.67528e-09
-1.36997e-08
-4.73742e-09
1.68093e-08
-1.49089e-08
-1.28756e-08
8.20903e-09
-7.50859e-09
1.03471e-08
5.88334e-09
-2.08047e-09
3.24724e-09
-2.56371e-09
-1.77026e-08
1.38595e-08
6.40685e-09
3.68883e-09
8.31325e-09
-1.45657e-08
3.90041e-09
-3.83937e-09
1.67483e-08
-2.56091e-09
-1.12413e-08
9.04775e-09
3.33404e-09
-7.75171e-09
1.06446e-09
3.35324e-09
-5.37135e-09
1.83749e-09
6.86792e-09
-4.19083e-09
2.71331e-09
5.7285e-09
-4.25098e-09
-1.12439e-09
2.82329e-09
-5.88971e-09
2.134e-09
-5.68445e-09
-4.20125e-09
-3.25916e-09
2.18225e-11
-1.57314e-09
6.12395e-09
3.00895e-09
-4.86972e-09
2.92524e-09
-3.401e-09
4.83681e-09
-6.38832e-09
2.00481e-09
-5.14783e-10
-1.09599e-09
-4.07366e-09
4.26383e-09
-1.00353e-09
-3.77509e-09
1.66386e-09
-2.26975e-09
-1.75515e-09
1.8012e-11
-3.24942e-09
-8.71534e-09
5.57646e-09
4.64017e-10
-4.80943e-09
3.21828e-09
-3.75779e-09
1.57756e-09
-1.14421e-10
-2.20625e-09
-2.97675e-09
-2.2733e-10
5.41043e-09
-7.3191e-10
-4.89291e-09
3.41867e-09
-6.02963e-10
2.04609e-09
-4.41983e-09
-1.83588e-09
-2.22776e-09
3.83636e-09
-3.74104e-09
1.17332e-09
2.14726e-09
-3.85051e-09
1.10032e-09
-2.61766e-09
2.53721e-09
-4.99837e-09
2.26855e-09
-2.16309e-09
2.63246e-09
2.26218e-10
-5.44561e-10
-2.31406e-09
8.38891e-10
1.846e-09
-5.23598e-11
1.79267e-09
-3.44571e-09
-2.19739e-09
1.39227e-11
3.79492e-09
-3.16789e-10
-3.25188e-09
1.89989e-09
-7.75359e-10
-4.53979e-09
7.96792e-11
-6.13973e-09
5.28472e-09
-3.91058e-09
9.89213e-09
-1.97084e-09
1.44369e-09
-7.63003e-10
4.57902e-09
7.92519e-10
-3.92779e-09
3.82497e-09
-8.53697e-09
-5.87207e-09
1.05842e-08
-1.83065e-10
-3.16886e-09
7.17693e-09
6.34791e-09
-1.84114e-09
-9.30595e-09
-3.1074e-09
3.21384e-09
-7.66903e-09
-2.0341e-09
6.48935e-09
2.47355e-09
4.6353e-09
-1.00816e-08
2.97267e-09
-5.33015e-09
6.61157e-09
1.19228e-09
-1.3143e-08
6.95281e-09
1.08254e-08
-1.56326e-08
-7.59196e-09
-6.75436e-09
7.81718e-09
-1.45993e-10
-9.1667e-10
-8.09634e-09
3.42086e-09
-2.07884e-09
-1.10618e-08
4.24965e-09
1.00261e-08
2.16652e-09
-5.41105e-09
-2.17842e-09
6.09214e-09
-3.87841e-09
-3.53274e-11
5.54987e-09
-2.27339e-09
-3.18734e-09
-8.91659e-11
-7.63998e-09
9.16573e-09
1.4469e-09
1.08838e-08
-1.76441e-09
1.6415e-08
-1.28157e-09
-1.45951e-10
3.54633e-09
2.14946e-09
-6.23206e-09
2.99263e-09
-2.09068e-09
2.16348e-10
7.42848e-09
-1.03325e-09
1.49925e-09
-3.95378e-09
2.25191e-09
2.02572e-10
9.25532e-10