/*--------------------------------*- C++ -*----------------------------------*\
| =========                 |                                                 |
| \\      /  F ield         | OpenFOAM: The Open Source CFD Toolbox           |
|  \\    /   O peration     | Version:  v1612+                                |
|   \\  /    A nd           | Web:      www.OpenFOAM.com                      |
|    \\/     M anipulation  |                                                 |
\*---------------------------------------------------------------------------*/
FoamFile
{
    version     2.0;
    format      ascii;
    class       volVectorField;
    location    "50";
    object      U;
}
// * * * * * * * * * * * * * * * * * * * * * * * * * * * * * * * * * * * * * //

dimensions      [0 1 -1 0 0 0 0];

internalField   nonuniform List<vector> 
18887
(
(-0.241506 0.504922 -0.214042)
(-0.242215 0.518136 -0.215726)
(-0.245643 0.506838 -0.20883)
(-0.346209 0.69774 -0.291881)
(-0.402886 0.82547 -0.334626)
(-0.264267 0.515713 -0.210307)
(-0.248344 0.48842 -0.219125)
(-0.212292 0.412505 -0.191008)
(-0.293931 0.554187 -0.239092)
(-0.297901 0.574392 -0.244605)
(-0.257507 0.487905 -0.217588)
(-0.289811 0.561369 -0.24842)
(-0.306482 0.606371 -0.276721)
(-0.276383 0.516713 -0.227283)
(-0.302779 0.584806 -0.268625)
(-0.244935 0.46485 -0.208077)
(-0.275825 0.539394 -0.232169)
(-0.276899 0.552721 -0.236032)
(-0.323667 0.634475 -0.275243)
(-0.267469 0.513876 -0.226981)
(-0.246708 0.456513 -0.211073)
(-0.296161 0.567574 -0.244772)
(-0.527562 1.06381 -0.42855)
(-0.516432 1.03389 -0.419174)
(-0.530977 1.06333 -0.429653)
(-0.527449 1.04617 -0.426564)
(-0.512902 1.02801 -0.413127)
(-0.505441 1.0179 -0.41205)
(-0.538871 1.08455 -0.438194)
(-0.529977 1.07543 -0.432561)
(-0.508213 1.01782 -0.412338)
(-0.500998 1.00427 -0.412566)
(-0.517108 1.05284 -0.420777)
(-0.48919 0.975022 -0.401288)
(-0.491118 0.988697 -0.400969)
(-0.504387 1.00042 -0.405295)
(-0.502983 1.00447 -0.411417)
(-0.506401 1.02591 -0.420397)
(-0.473722 0.942971 -0.385928)
(-0.49632 0.976327 -0.399909)
(-0.493318 0.978679 -0.399576)
(-0.347147 0.714638 -0.292786)
(-0.33656 0.680684 -0.289612)
(-0.336974 0.692039 -0.290086)
(-0.271481 0.553278 -0.231737)
(-0.251331 0.511918 -0.218659)
(-0.257952 0.526155 -0.217412)
(-0.291464 0.59052 -0.244907)
(-0.265611 0.529722 -0.209619)
(-0.280233 0.575967 -0.233282)
(-0.289177 0.570056 -0.241063)
(-0.309524 0.636365 -0.25738)
(-0.332241 0.667294 -0.275436)
(-0.23771 0.48977 -0.197628)
(-0.277834 0.564078 -0.233263)
(-0.260971 0.527557 -0.219911)
(-0.227287 0.462831 -0.185355)
(-0.353076 0.703631 -0.29262)
(-0.339344 0.679777 -0.278538)
(-0.331403 0.675279 -0.2865)
(-0.361637 0.729347 -0.307982)
(-0.327886 0.65225 -0.268176)
(-0.280323 0.566016 -0.235091)
(-0.251721 0.520325 -0.214848)
(-0.244045 0.490113 -0.205277)
(-0.271058 0.553393 -0.228531)
(-0.256526 0.517587 -0.211932)
(-0.324564 0.643623 -0.269322)
(-0.320003 0.637074 -0.265438)
(-0.25445 0.510286 -0.211778)
(-0.280327 0.562139 -0.231155)
(-0.258826 0.515745 -0.213323)
(-0.218258 0.452215 -0.193174)
(-0.324832 0.649955 -0.271309)
(-0.239687 0.48594 -0.213828)
(-0.279431 0.555315 -0.234588)
(-0.218261 0.437558 -0.187628)
(-0.307794 0.629844 -0.256634)
(-0.322618 0.651306 -0.262866)
(-0.273327 0.55785 -0.229799)
(-0.259224 0.526584 -0.213736)
(-0.305508 0.629949 -0.257112)
(-0.311987 0.640284 -0.262958)
(-0.306471 0.618791 -0.25447)
(-0.276972 0.548088 -0.229117)
(-0.255114 0.519476 -0.212961)
(-0.280617 0.559702 -0.226878)
(-0.254123 0.520209 -0.214733)
(-0.238188 0.476285 -0.192192)
(-0.280157 0.572202 -0.237499)
(-0.253443 0.517628 -0.212271)
(-0.264454 0.544205 -0.221453)
(-0.255667 0.52571 -0.212709)
(-0.228389 0.465659 -0.189513)
(-0.239545 0.477152 -0.195131)
(-0.258295 0.534082 -0.228771)
(-0.267739 0.556098 -0.233312)
(-0.221646 0.464005 -0.196126)
(-0.319134 0.669578 -0.276823)
(-0.314976 0.672821 -0.273293)
(-0.247872 0.527368 -0.227435)
(-0.226206 0.484256 -0.207036)
(-0.275662 0.562139 -0.242095)
(-0.234124 0.495127 -0.211058)
(-0.342509 0.665983 -0.276317)
(-0.327602 0.630827 -0.269576)
(-0.290306 0.573993 -0.235539)
(-0.258057 0.507316 -0.214525)
(-0.283716 0.554336 -0.229481)
(-0.260046 0.514287 -0.213105)
(-0.285692 0.570096 -0.241197)
(-0.262303 0.514431 -0.209027)
(-0.354124 0.683487 -0.275523)
(-0.2935 0.574863 -0.236829)
(-0.293322 0.584438 -0.239856)
(-0.318355 0.635631 -0.261529)
(-0.382149 0.727572 -0.297814)
(-0.340945 0.669986 -0.276494)
(-0.251334 0.473832 -0.188676)
(-0.296003 0.605247 -0.258304)
(-0.274441 0.55846 -0.235598)
(-0.240594 0.470189 -0.189348)
(-0.226419 0.478713 -0.194031)
(-0.208498 0.439634 -0.188552)
(-0.230546 0.477441 -0.208228)
(-0.208161 0.436775 -0.180405)
(-0.219881 0.484984 -0.200054)
(-0.23365 0.513739 -0.214722)
(-0.231531 0.494984 -0.203485)
(-0.22757 0.486213 -0.203141)
(-0.244148 0.511787 -0.210817)
(-0.320117 0.674692 -0.286353)
(-0.334776 0.706343 -0.301675)
(-0.328625 0.693228 -0.296454)
(-0.246951 0.522477 -0.22098)
(-0.300983 0.633949 -0.264441)
(-0.294899 0.621997 -0.265704)
(-0.288485 0.610333 -0.263705)
(-0.245515 0.524959 -0.212055)
(-0.289186 0.619905 -0.266054)
(-0.34682 0.676274 -0.283043)
(-0.34703 0.689328 -0.282248)
(-0.353 0.693363 -0.287528)
(-0.275213 0.536697 -0.238733)
(-0.269166 0.520644 -0.224661)
(-0.297754 0.561223 -0.240481)
(-0.292705 0.581499 -0.246108)
(-0.263429 0.513083 -0.217823)
(-0.30308 0.596397 -0.253143)
(-0.288292 0.56879 -0.241443)
(-0.30359 0.599862 -0.260798)
(-0.300236 0.58938 -0.250294)
(-0.314022 0.615794 -0.26075)
(-0.403509 0.847787 -0.35163)
(-0.496391 0.987688 -0.423592)
(-0.457406 0.916364 -0.393069)
(-0.450028 0.915355 -0.387819)
(-0.480416 0.965172 -0.41555)
(-0.454278 0.922857 -0.390432)
(-0.476213 0.949966 -0.412793)
(-0.443046 0.892353 -0.376164)
(-0.421239 0.862652 -0.365565)
(-0.420136 0.850362 -0.365813)
(-0.434458 0.872844 -0.378502)
(-0.412546 0.826753 -0.36292)
(-0.391626 0.792564 -0.338526)
(-0.383573 0.783721 -0.336623)
(-0.358185 0.73572 -0.311939)
(-0.404321 0.820348 -0.345171)
(-0.420619 0.867674 -0.343945)
(-0.414517 0.849172 -0.343586)
(-0.406876 0.831761 -0.328683)
(-0.436404 0.8966 -0.354582)
(-0.448509 0.927949 -0.376398)
(-0.501944 1.02012 -0.412503)
(-0.494188 1.01237 -0.409577)
(-0.476631 0.967889 -0.396757)
(-0.466272 0.953242 -0.379581)
(-0.475495 0.969737 -0.401525)
(-0.440834 0.904295 -0.367543)
(-0.444936 0.911237 -0.375031)
(-0.50171 1.03033 -0.415335)
(-0.44091 0.897437 -0.362204)
(-0.492157 1.00848 -0.406647)
(-0.446255 0.905569 -0.371729)
(-0.443415 0.896369 -0.373432)
(-0.433214 0.881391 -0.354204)
(-0.441204 0.898036 -0.367851)
(-0.45993 0.935261 -0.378232)
(-0.489176 1.00853 -0.404374)
(-0.423032 0.859189 -0.346412)
(-0.496491 1.02612 -0.408322)
(-0.464667 0.972428 -0.392712)
(-0.504238 1.04581 -0.415153)
(-0.487085 1.00451 -0.402108)
(-0.537807 1.09719 -0.432914)
(-0.436562 0.925412 -0.37394)
(-0.463183 0.970653 -0.387509)
(-0.50389 1.03877 -0.420198)
(-0.494242 1.02429 -0.405866)
(-0.481534 0.999565 -0.396927)
(-0.513426 1.06107 -0.424203)
(-0.540369 1.1165 -0.451453)
(-0.548233 1.11867 -0.452108)
(-0.536842 1.10625 -0.443167)
(-0.525305 1.08452 -0.432785)
(-0.499462 1.0403 -0.41867)
(-0.410546 0.827668 -0.334472)
(-0.441234 0.886875 -0.360973)
(-0.371989 0.747666 -0.303525)
(-0.376202 0.763088 -0.300075)
(-0.391576 0.789291 -0.313476)
(-0.383241 0.764758 -0.304298)
(-0.435728 0.892713 -0.349036)
(-0.387968 0.799694 -0.311852)
(-0.450599 0.909041 -0.363073)
(-0.428332 0.866932 -0.346685)
(-0.460513 0.928669 -0.373097)
(-0.436335 0.88324 -0.357358)
(-0.437713 0.899586 -0.354297)
(-0.438141 0.900555 -0.354685)
(-0.463423 0.945289 -0.373638)
(-0.445102 0.915297 -0.362964)
(-0.518298 1.03949 -0.440479)
(-0.501245 1.01575 -0.427205)
(-0.446196 0.911885 -0.388171)
(-0.448251 0.924497 -0.386559)
(-0.530211 1.06374 -0.443316)
(-0.507313 1.02755 -0.425065)
(-0.471661 0.971502 -0.401095)
(-0.545562 1.13401 -0.458297)
(-0.54869 1.1414 -0.461095)
(-0.555346 1.14801 -0.466557)
(-0.54995 1.1331 -0.460557)
(-0.504314 1.03947 -0.427156)
(-0.521865 1.07826 -0.438229)
(-0.493139 1.01137 -0.417291)
(-0.473125 0.971741 -0.397927)
(-0.48298 0.984972 -0.40816)
(-0.486174 1.00386 -0.409644)
(-0.517971 1.07306 -0.434071)
(-0.530855 1.09298 -0.447948)
(-0.548621 1.13328 -0.4611)
(-0.572403 1.17233 -0.474401)
(-0.498453 1.02398 -0.414691)
(-0.492639 1.01571 -0.406425)
(-0.508295 1.04815 -0.431723)
(-0.530447 1.09202 -0.447804)
(-0.516484 1.07128 -0.437707)
(-0.514583 1.0661 -0.429802)
(-0.511268 1.05057 -0.42563)
(-0.387042 0.758789 -0.322122)
(-0.361599 0.710604 -0.306647)
(-0.383716 0.751726 -0.316936)
(-0.360971 0.71689 -0.299016)
(-0.386208 0.761624 -0.327869)
(-0.356315 0.697978 -0.300459)
(-0.355124 0.698988 -0.290695)
(-0.398101 0.766564 -0.323702)
(-0.368717 0.726899 -0.307589)
(-0.347231 0.678062 -0.287217)
(-0.357958 0.705556 -0.294926)
(-0.346297 0.669726 -0.292706)
(-0.41605 0.826981 -0.346861)
(-0.420992 0.836417 -0.354065)
(-0.414464 0.842703 -0.35361)
(-0.429294 0.862926 -0.361356)
(-0.375215 0.735036 -0.321886)
(-0.378791 0.753302 -0.314282)
(-0.438796 0.88457 -0.373635)
(-0.429814 0.868053 -0.361717)
(-0.421577 0.847719 -0.356805)
(-0.412249 0.833986 -0.350011)
(-0.353417 0.751433 -0.296879)
(-0.31702 0.665802 -0.265542)
(-0.344029 0.724189 -0.29309)
(-0.307517 0.644188 -0.264313)
(-0.367597 0.771804 -0.308533)
(-0.361793 0.766859 -0.312293)
(-0.4067 0.839816 -0.325708)
(-0.394693 0.824669 -0.319695)
(-0.39576 0.832237 -0.338273)
(-0.38169 0.815963 -0.324669)
(-0.38424 0.825343 -0.326818)
(-0.37431 0.805618 -0.313594)
(-0.323847 0.680673 -0.271896)
(-0.323224 0.692117 -0.266062)
(-0.36148 0.769098 -0.298533)
(-0.342943 0.68666 -0.287101)
(-0.313701 0.610772 -0.269538)
(-0.372091 0.752194 -0.307085)
(-0.334747 0.674439 -0.286707)
(-0.423032 0.862244 -0.359678)
(-0.388582 0.789667 -0.329872)
(-0.340818 0.663397 -0.280423)
(-0.381887 0.756721 -0.31651)
(-0.418772 0.825632 -0.341931)
(-0.411749 0.807286 -0.332345)
(-0.425728 0.85695 -0.356491)
(-0.40023 0.818019 -0.338274)
(-0.365231 0.725327 -0.3035)
(-0.399714 0.778664 -0.322525)
(-0.369543 0.719528 -0.305686)
(-0.32959 0.655042 -0.280233)
(-0.33011 0.638114 -0.278469)
(-0.342513 0.690585 -0.28774)
(-0.283802 0.582482 -0.248472)
(-0.26322 0.531849 -0.220779)
(-0.364462 0.717086 -0.307509)
(-0.411923 0.799981 -0.341052)
(-0.409137 0.799014 -0.341869)
(-0.368741 0.698944 -0.300659)
(-0.348245 0.666632 -0.27905)
(-0.334501 0.654565 -0.278532)
(-0.372541 0.721983 -0.304915)
(-0.395442 0.762061 -0.323278)
(-0.422547 0.824201 -0.356312)
(-0.435624 0.84369 -0.359928)
(-0.347827 0.673186 -0.289872)
(-0.353671 0.686382 -0.289707)
(-0.442228 0.863425 -0.361335)
(-0.446052 0.879281 -0.358856)
(-0.33662 0.65207 -0.280628)
(-0.4308 0.852151 -0.353444)
(-0.374059 0.743307 -0.310076)
(-0.365367 0.725246 -0.311398)
(-0.359291 0.702406 -0.298889)
(-0.287506 0.556918 -0.234776)
(-0.256252 0.507972 -0.216588)
(-0.254246 0.499888 -0.210809)
(-0.22939 0.457106 -0.185176)
(-0.265781 0.517871 -0.215314)
(-0.244135 0.482738 -0.202875)
(-0.300397 0.586582 -0.236926)
(-0.27517 0.544864 -0.225882)
(-0.222426 0.451648 -0.189873)
(-0.292289 0.561809 -0.240219)
(-0.329233 0.654563 -0.275548)
(-0.237746 0.47423 -0.191863)
(-0.212505 0.440649 -0.178835)
(-0.241115 0.478024 -0.205847)
(-0.323802 0.629564 -0.270961)
(-0.353941 0.689424 -0.279989)
(-0.335873 0.657449 -0.28044)
(-0.258215 0.501375 -0.207303)
(-0.328363 0.705943 -0.290376)
(-0.324511 0.677034 -0.281137)
(-0.337039 0.711935 -0.289693)
(-0.334779 0.703195 -0.291025)
(-0.322566 0.66233 -0.270658)
(-0.320936 0.65521 -0.267435)
(-0.25475 0.534059 -0.227507)
(-0.269875 0.553266 -0.225891)
(-0.321685 0.678908 -0.280065)
(-0.25643 0.545514 -0.228804)
(-0.271273 0.5867 -0.243953)
(-0.242954 0.5139 -0.219065)
(-0.250285 0.520109 -0.218581)
(-0.260221 0.549699 -0.220524)
(-0.218537 0.463662 -0.195156)
(-0.26369 0.548435 -0.229661)
(-0.224033 0.464364 -0.191643)
(-0.342118 0.687984 -0.310914)
(-0.348633 0.689007 -0.31288)
(-0.348811 0.679411 -0.31279)
(-0.402895 0.798968 -0.352269)
(-0.394491 0.783511 -0.347118)
(-0.418927 0.815013 -0.361974)
(-0.432519 0.846649 -0.368189)
(-0.352947 0.673051 -0.303188)
(-0.385936 0.736156 -0.330765)
(-0.396223 0.774893 -0.341458)
(-0.38017 0.752136 -0.339428)
(-0.362012 0.707565 -0.32078)
(-0.329258 0.640913 -0.291088)
(-0.54693 1.07928 -0.446016)
(-0.536135 1.05935 -0.438961)
(-0.571381 1.12927 -0.472395)
(-0.552999 1.09537 -0.455115)
(-0.559874 1.10522 -0.453708)
(-0.525393 1.04102 -0.430938)
(-0.532072 1.05891 -0.442654)
(-0.512004 1.01165 -0.422053)
(-0.553045 1.10033 -0.45566)
(-0.530608 1.0446 -0.433968)
(-0.536182 1.07016 -0.443153)
(-0.550397 1.078 -0.446249)
(-0.515656 1.01522 -0.420135)
(-0.564611 1.11646 -0.46425)
(-0.53207 1.05119 -0.437531)
(-0.541881 1.07104 -0.442966)
(-0.485357 0.964791 -0.408175)
(-0.509625 1.00612 -0.415736)
(-0.503177 0.983051 -0.409504)
(-0.503128 0.991238 -0.41787)
(-0.501138 0.978858 -0.407303)
(-0.490602 1.01992 -0.405289)
(-0.4468 0.940972 -0.374033)
(-0.493416 1.03844 -0.417531)
(-0.48864 1.02286 -0.414622)
(-0.515297 1.06841 -0.43078)
(-0.497024 1.03819 -0.416764)
(-0.422395 0.886634 -0.344628)
(-0.442843 0.93629 -0.371733)
(-0.425167 0.880083 -0.35306)
(-0.405655 0.855506 -0.341864)
(-0.407404 0.853491 -0.346027)
(-0.476896 0.993682 -0.399062)
(-0.439619 0.926367 -0.364559)
(-0.466288 0.983427 -0.390552)
(-0.50537 1.05039 -0.425223)
(-0.44019 0.914103 -0.363385)
(-0.427078 0.882354 -0.353446)
(-0.39828 0.859232 -0.34246)
(-0.355971 0.772486 -0.309918)
(-0.365398 0.760654 -0.308624)
(-0.39453 0.841784 -0.337222)
(-0.379923 0.773358 -0.32032)
(-0.384143 0.783917 -0.321632)
(-0.36062 0.733269 -0.307883)
(-0.351214 0.729626 -0.302504)
(-0.352793 0.705282 -0.294555)
(-0.343105 0.699974 -0.287532)
(-0.316877 0.652738 -0.256765)
(-0.423246 0.870094 -0.358508)
(-0.441095 0.895922 -0.370544)
(-0.387818 0.797232 -0.328806)
(-0.364037 0.745715 -0.299507)
(-0.35658 0.757752 -0.310773)
(-0.345529 0.723851 -0.296801)
(-0.454451 0.92721 -0.377686)
(-0.421249 0.862264 -0.356149)
(-0.445728 0.905189 -0.374184)
(-0.438284 0.902154 -0.37118)
(-0.411611 0.840588 -0.343368)
(-0.296123 0.592357 -0.244724)
(-0.308699 0.627048 -0.254369)
(-0.261621 0.535401 -0.225734)
(-0.262542 0.530473 -0.219242)
(-0.320002 0.652761 -0.269524)
(-0.25752 0.518997 -0.213928)
(-0.243976 0.499115 -0.205258)
(-0.233818 0.466653 -0.194095)
(-0.303239 0.607382 -0.243643)
(-0.260037 0.532441 -0.218448)
(-0.231512 0.474402 -0.188958)
(-0.271562 0.569322 -0.234253)
(-0.263301 0.53932 -0.227405)
(-0.243742 0.506432 -0.210911)
(-0.341236 0.689417 -0.279377)
(-0.243059 0.492902 -0.199593)
(-0.253787 0.503763 -0.208968)
(-0.240002 0.467718 -0.197748)
(-0.369609 0.735643 -0.306409)
(-0.363144 0.698063 -0.286514)
(-0.365079 0.741255 -0.320589)
(-0.288735 0.5555 -0.237102)
(-0.27873 0.5457 -0.231522)
(-0.2582 0.510399 -0.214326)
(-0.248217 0.485863 -0.207646)
(-0.214533 0.419311 -0.182928)
(-0.276634 0.554472 -0.240359)
(-0.22755 0.445759 -0.19695)
(-0.343816 0.675419 -0.285108)
(-0.333628 0.680787 -0.286971)
(-0.239693 0.471779 -0.201586)
(-0.279417 0.577678 -0.243646)
(-0.337449 0.684576 -0.288569)
(-0.319039 0.623501 -0.26319)
(-0.361468 0.704286 -0.292921)
(-0.285534 0.561673 -0.232701)
(-0.36352 0.732978 -0.309562)
(-0.372614 0.729373 -0.302755)
(-0.343783 0.683099 -0.283241)
(-0.292155 0.580468 -0.245237)
(-0.390993 0.796111 -0.324857)
(-0.411827 0.813156 -0.331506)
(-0.302405 0.601216 -0.261684)
(-0.351989 0.692461 -0.29224)
(-0.414616 0.830574 -0.339267)
(-0.417705 0.842015 -0.344301)
(-0.344404 0.688849 -0.278365)
(-0.317441 0.640348 -0.259666)
(-0.268619 0.552099 -0.236768)
(-0.280922 0.555076 -0.225843)
(-0.366913 0.744534 -0.305954)
(-0.325377 0.653109 -0.276574)
(-0.410325 0.818711 -0.346316)
(-0.393874 0.778143 -0.322656)
(-0.393677 0.79117 -0.334776)
(-0.398618 0.785483 -0.328633)
(-0.417988 0.806179 -0.343319)
(-0.359819 0.696523 -0.297448)
(-0.400118 0.795572 -0.338794)
(-0.392233 0.781471 -0.334986)
(-0.405157 0.802023 -0.331033)
(-0.398544 0.787789 -0.329399)
(-0.337056 0.64659 -0.272125)
(-0.339307 0.664974 -0.281257)
(-0.404828 0.798296 -0.330003)
(-0.376423 0.749636 -0.307413)
(-0.3056 0.568948 -0.233202)
(-0.297008 0.580427 -0.240922)
(-0.355986 0.701942 -0.294413)
(-0.380841 0.712439 -0.304581)
(-0.395952 0.763633 -0.31662)
(-0.389797 0.75526 -0.317125)
(-0.356259 0.673422 -0.274259)
(-0.321269 0.614123 -0.2525)
(-0.308908 0.633554 -0.249458)
(-0.290715 0.595549 -0.236199)
(-0.256839 0.514155 -0.211597)
(-0.25273 0.517388 -0.211621)
(-0.306193 0.632006 -0.248733)
(-0.241122 0.491238 -0.20188)
(-0.25291 0.515492 -0.212449)
(-0.220689 0.444922 -0.190446)
(-0.249218 0.501273 -0.210037)
(-0.24129 0.486986 -0.195423)
(-0.228756 0.457185 -0.183449)
(-0.281241 0.57928 -0.228197)
(-0.241093 0.502052 -0.204884)
(-0.243553 0.502135 -0.199581)
(-0.22173 0.435155 -0.185922)
(-0.268618 0.53471 -0.216285)
(-0.239017 0.468409 -0.201012)
(-0.322627 0.664514 -0.275498)
(-0.37053 0.715861 -0.293153)
(-0.501462 0.958623 -0.391627)
(-0.470744 0.90997 -0.378968)
(-0.43083 0.835589 -0.354794)
(-0.440058 0.854588 -0.352787)
(-0.38884 0.748624 -0.309916)
(-0.385095 0.735931 -0.310154)
(-0.422811 0.802267 -0.335207)
(-0.402949 0.780339 -0.332423)
(-0.376916 0.728074 -0.306171)
(-0.384918 0.747382 -0.313938)
(-0.476536 0.92058 -0.378838)
(-0.417074 0.803227 -0.335286)
(-0.458674 0.891379 -0.361234)
(-0.403734 0.781019 -0.335274)
(-0.40989 0.792195 -0.337504)
(-0.316269 0.611574 -0.268279)
(-0.30535 0.574248 -0.255898)
(-0.280415 0.521566 -0.230134)
(-0.367732 0.702464 -0.301099)
(-0.337515 0.650327 -0.273225)
(-0.275917 0.535046 -0.232531)
(-0.25135 0.481218 -0.202128)
(-0.397769 0.750907 -0.313232)
(-0.271256 0.532734 -0.230746)
(-0.259205 0.493002 -0.203866)
(-0.354939 0.685595 -0.285294)
(-0.390945 0.731591 -0.293476)
(-0.345343 0.666101 -0.272857)
(-0.277125 0.527378 -0.225579)
(-0.316181 0.613011 -0.260435)
(-0.370771 0.710433 -0.294244)
(-0.284952 0.550119 -0.245312)
(-0.316521 0.624314 -0.265202)
(-0.292323 0.567395 -0.245044)
(-0.405593 0.856396 -0.351286)
(-0.394679 0.798962 -0.328808)
(-0.330405 0.693389 -0.283437)
(-0.354432 0.730645 -0.291958)
(-0.392175 0.798681 -0.330162)
(-0.432801 0.900435 -0.357738)
(-0.436038 0.911265 -0.363105)
(-0.376089 0.772705 -0.320199)
(-0.344951 0.713957 -0.292202)
(-0.40423 0.824376 -0.34134)
(-0.435262 0.887688 -0.36463)
(-0.399118 0.836958 -0.336159)
(-0.385914 0.81166 -0.333012)
(-0.416578 0.866731 -0.350938)
(-0.412918 0.866564 -0.353515)
(-0.425285 0.890028 -0.356666)
(-0.459418 0.948804 -0.382773)
(-0.4397 0.920353 -0.365894)
(-0.44953 0.932627 -0.375805)
(-0.420896 0.887308 -0.360424)
(-0.463556 0.959675 -0.382926)
(-0.368373 0.750855 -0.327818)
(-0.334378 0.690518 -0.297593)
(-0.39215 0.801229 -0.344211)
(-0.396852 0.803968 -0.345646)
(-0.310726 0.633744 -0.279513)
(-0.3526 0.732384 -0.313535)
(-0.344846 0.70198 -0.307966)
(-0.306437 0.644985 -0.282166)
(-0.30275 0.620892 -0.266351)
(-0.299121 0.623516 -0.269666)
(-0.412038 0.817395 -0.357609)
(-0.354261 0.705671 -0.30689)
(-0.383547 0.76804 -0.329879)
(-0.446385 0.881169 -0.387363)
(-0.425607 0.854708 -0.378519)
(-0.394462 0.795857 -0.342697)
(-0.380664 0.749784 -0.33542)
(-0.364905 0.737904 -0.327773)
(-0.315472 0.651752 -0.284916)
(-0.426665 0.858572 -0.379724)
(-0.338053 0.686736 -0.279856)
(-0.379731 0.758467 -0.312544)
(-0.349454 0.715729 -0.295465)
(-0.338153 0.697543 -0.283486)
(-0.252606 0.527527 -0.220932)
(-0.267984 0.561839 -0.234024)
(-0.3068 0.648884 -0.26487)
(-0.343703 0.690473 -0.284303)
(-0.283805 0.586516 -0.23962)
(-0.274001 0.5702 -0.239419)
(-0.264344 0.532467 -0.221442)
(-0.290362 0.6003 -0.247999)
(-0.266344 0.539429 -0.224567)
(-0.268036 0.561111 -0.235667)
(-0.243833 0.500497 -0.206705)
(-0.268642 0.546356 -0.231192)
(-0.236207 0.481277 -0.200525)
(-0.27819 0.569194 -0.237804)
(-0.248842 0.498581 -0.212221)
(-0.248587 0.514727 -0.225548)
(-0.215517 0.459818 -0.199858)
(-0.254567 0.521675 -0.223211)
(-0.223983 0.470677 -0.198001)
(-0.283078 0.580424 -0.245948)
(-0.246247 0.515359 -0.217797)
(-0.268777 0.564753 -0.245182)
(-0.326471 0.683024 -0.281903)
(-0.316609 0.663195 -0.276048)
(-0.322863 0.66392 -0.281915)
(-0.335865 0.687482 -0.283843)
(-0.330382 0.685319 -0.288517)
(-0.266357 0.539615 -0.226475)
(-0.246177 0.510628 -0.217772)
(-0.255312 0.534083 -0.230385)
(-0.26716 0.565401 -0.230643)
(-0.329861 0.691503 -0.290327)
(-0.334801 0.692 -0.287886)
(-0.328174 0.66847 -0.271361)
(-0.313957 0.662518 -0.279866)
(-0.411126 0.823473 -0.329967)
(-0.45462 0.907598 -0.365353)
(-0.375393 0.754503 -0.310196)
(-0.338387 0.687696 -0.289902)
(-0.423022 0.859526 -0.34738)
(-0.384529 0.764701 -0.314029)
(-0.416345 0.835162 -0.37042)
(-0.46013 0.913237 -0.407106)
(-0.430894 0.86346 -0.380574)
(-0.484698 0.952604 -0.425728)
(-0.363643 0.707728 -0.303688)
(-0.341101 0.674889 -0.29509)
(-0.386882 0.757914 -0.328154)
(-0.34253 0.682106 -0.296903)
(-0.445776 0.878664 -0.393217)
(-0.473701 0.927509 -0.400745)
(-0.405617 0.825296 -0.358571)
(-0.402871 0.780589 -0.338565)
(-0.374929 0.754672 -0.323038)
(-0.426354 0.83424 -0.358064)
(-0.410254 0.818128 -0.346743)
(-0.395724 0.772763 -0.336208)
(-0.362635 0.725036 -0.316236)
(-0.349476 0.702736 -0.298581)
(-0.366969 0.735683 -0.312693)
(-0.40053 0.806572 -0.336752)
(-0.371807 0.735865 -0.312899)
(-0.338115 0.682443 -0.289407)
(-0.329297 0.650417 -0.264463)
(-0.368262 0.74684 -0.308016)
(-0.355527 0.694396 -0.283466)
(-0.362047 0.729039 -0.297611)
(-0.432611 0.873574 -0.356131)
(-0.445256 0.899843 -0.372372)
(-0.355996 0.729546 -0.290786)
(-0.423696 0.850621 -0.350642)
(-0.317592 0.61594 -0.249849)
(-0.347183 0.691598 -0.280068)
(-0.440737 0.895656 -0.365197)
(-0.308687 0.601964 -0.248776)
(-0.299899 0.585492 -0.249043)
(-0.273317 0.522902 -0.214945)
(-0.25441 0.505703 -0.206816)
(-0.226497 0.451141 -0.175505)
(-0.219088 0.442993 -0.173419)
(-0.422321 0.843987 -0.334638)
(-0.418502 0.83592 -0.337689)
(-0.34262 0.667056 -0.268808)
(-0.344933 0.674399 -0.266837)
(-0.422437 0.849645 -0.335122)
(-0.428169 0.854518 -0.341163)
(-0.371751 0.727333 -0.285622)
(-0.390455 0.75688 -0.306637)
(-0.371105 0.732266 -0.286064)
(-0.358293 0.698946 -0.281352)
(-0.460949 0.906931 -0.36882)
(-0.455385 0.899055 -0.36066)
(-0.332337 0.644668 -0.258394)
(-0.346601 0.680564 -0.279846)
(-0.366123 0.738065 -0.291882)
(-0.36713 0.71276 -0.287171)
(-0.391713 0.756059 -0.315785)
(-0.400327 0.787545 -0.315992)
(-0.33632 0.701392 -0.290938)
(-0.332377 0.691237 -0.282476)
(-0.289513 0.607125 -0.255054)
(-0.296173 0.629853 -0.262505)
(-0.331847 0.707667 -0.286647)
(-0.367608 0.765934 -0.305573)
(-0.401217 0.836783 -0.334506)
(-0.391029 0.826757 -0.332208)
(-0.282084 0.60332 -0.252199)
(-0.298395 0.627516 -0.263171)
(-0.344276 0.73709 -0.296181)
(-0.33898 0.716132 -0.29163)
(-0.356504 0.742627 -0.30338)
(-0.387659 0.814281 -0.325183)
(-0.336589 0.716098 -0.289709)
(-0.321445 0.653027 -0.275526)
(-0.329497 0.669319 -0.272405)
(-0.311339 0.637727 -0.262651)
(-0.327313 0.676094 -0.273013)
(-0.258269 0.516717 -0.210651)
(-0.232749 0.47303 -0.192664)
(-0.378628 0.762084 -0.294969)
(-0.355963 0.714446 -0.286686)
(-0.31491 0.640618 -0.262981)
(-0.308055 0.618118 -0.25482)
(-0.31773 0.648587 -0.266821)
(-0.25057 0.518092 -0.213653)
(-0.281455 0.558227 -0.223679)
(-0.28316 0.560373 -0.232359)
(-0.328536 0.663498 -0.270931)
(-0.362557 0.730188 -0.292752)
(-0.339446 0.68711 -0.275747)
(-0.322745 0.651064 -0.264142)
(-0.246039 0.512407 -0.212985)
(-0.22515 0.467515 -0.19521)
(-0.278222 0.565771 -0.226922)
(-0.270611 0.555907 -0.225519)
(-0.280441 0.580877 -0.240543)
(-0.264827 0.534502 -0.219474)
(-0.382645 0.775051 -0.316443)
(-0.346408 0.72725 -0.295523)
(-0.292254 0.61392 -0.251312)
(-0.357398 0.749563 -0.312093)
(-0.356593 0.740273 -0.305182)
(-0.335659 0.712752 -0.293951)
(-0.298761 0.618963 -0.25014)
(-0.301394 0.615838 -0.247024)
(-0.355264 0.730259 -0.307314)
(-0.330327 0.662036 -0.279335)
(-0.285834 0.598182 -0.250707)
(-0.360745 0.744059 -0.300745)
(-0.371685 0.773071 -0.316471)
(-0.253509 0.531084 -0.20824)
(-0.236789 0.503372 -0.201265)
(-0.239323 0.502018 -0.195688)
(-0.22492 0.469082 -0.183323)
(-0.31148 0.657157 -0.247607)
(-0.288807 0.603524 -0.23667)
(-0.247869 0.528961 -0.205611)
(-0.259382 0.536676 -0.209197)
(-0.244306 0.513573 -0.206736)
(-0.360812 0.746757 -0.295046)
(-0.386963 0.795148 -0.329033)
(-0.311363 0.66257 -0.264585)
(-0.289473 0.59873 -0.226913)
(-0.372348 0.763712 -0.322169)
(-0.293375 0.645903 -0.260161)
(-0.363793 0.751824 -0.304178)
(-0.378989 0.785697 -0.320186)
(-0.318182 0.665897 -0.267351)
(-0.250861 0.524643 -0.200644)
(-0.243927 0.523071 -0.199717)
(-0.285289 0.577705 -0.227028)
(-0.303188 0.618331 -0.246518)
(-0.324496 0.678571 -0.272684)
(-0.283116 0.569753 -0.242513)
(-0.256154 0.513875 -0.216303)
(-0.285624 0.571615 -0.244196)
(-0.257591 0.522381 -0.219843)
(-0.255692 0.513887 -0.216422)
(-0.242388 0.480804 -0.208426)
(-0.245251 0.500611 -0.212986)
(-0.37964 0.736422 -0.30911)
(-0.381673 0.743453 -0.308495)
(-0.381013 0.747902 -0.300652)
(-0.28295 0.575275 -0.236976)
(-0.295951 0.58081 -0.244187)
(-0.262672 0.530056 -0.220789)
(-0.348807 0.699879 -0.291906)
(-0.325206 0.661436 -0.274218)
(-0.363155 0.733915 -0.303151)
(-0.279076 0.558099 -0.233392)
(-0.349051 0.710195 -0.300201)
(-0.278679 0.522097 -0.223975)
(-0.253492 0.481319 -0.207893)
(-0.285394 0.552605 -0.238226)
(-0.273635 0.541738 -0.231602)
(-0.260803 0.502682 -0.211773)
(-0.302449 0.583301 -0.248745)
(-0.255376 0.488859 -0.211688)
(-0.241383 0.45493 -0.202222)
(-0.223064 0.441716 -0.189058)
(-0.347658 0.670166 -0.283198)
(-0.335053 0.666821 -0.279305)
(-0.275987 0.543251 -0.22694)
(-0.27024 0.518811 -0.229231)
(-0.251932 0.495476 -0.204244)
(-0.339144 0.654268 -0.277895)
(-0.345696 0.666387 -0.287316)
(-0.280111 0.549522 -0.218132)
(-0.352359 0.675311 -0.282918)
(-0.268173 0.518193 -0.22132)
(-0.291947 0.570273 -0.238203)
(-0.245858 0.520564 -0.211798)
(-0.257228 0.549613 -0.222335)
(-0.320638 0.661435 -0.269645)
(-0.342738 0.717301 -0.286208)
(-0.274266 0.567731 -0.224917)
(-0.236882 0.503864 -0.197386)
(-0.265659 0.567836 -0.225174)
(-0.214737 0.451139 -0.183997)
(-0.266103 0.546309 -0.22651)
(-0.225632 0.477066 -0.193797)
(-0.237057 0.514359 -0.204977)
(-0.265605 0.570597 -0.232631)
(-0.366874 0.759657 -0.302334)
(-0.34107 0.710381 -0.294103)
(-0.277594 0.585088 -0.235087)
(-0.327197 0.689268 -0.288036)
(-0.328982 0.690907 -0.282243)
(-0.330558 0.719174 -0.293104)
(-0.25859 0.54578 -0.22826)
(-0.326357 0.682342 -0.270608)
(-0.273282 0.551765 -0.247201)
(-0.292726 0.592519 -0.261149)
(-0.246142 0.504975 -0.212516)
(-0.34001 0.689156 -0.301504)
(-0.344842 0.715363 -0.308046)
(-0.284308 0.553539 -0.23407)
(-0.276963 0.555964 -0.23896)
(-0.354811 0.721965 -0.320936)
(-0.324497 0.645673 -0.289505)
(-0.397595 0.794092 -0.351321)
(-0.383391 0.754633 -0.348342)
(-0.319178 0.65939 -0.276555)
(-0.299407 0.623088 -0.2677)
(-0.412419 0.805862 -0.360507)
(-0.401692 0.809746 -0.361044)
(-0.320093 0.649306 -0.29161)
(-0.35665 0.708012 -0.314534)
(-0.346913 0.693245 -0.301977)
(-0.308771 0.623293 -0.273922)
(-0.342916 0.703177 -0.303759)
(-0.402765 0.801601 -0.360249)
(-0.391976 0.796103 -0.346506)
(-0.329281 0.650718 -0.270842)
(-0.347909 0.665789 -0.279267)
(-0.356479 0.698769 -0.298829)
(-0.350915 0.692699 -0.2927)
(-0.347502 0.678996 -0.290523)
(-0.355834 0.696243 -0.303253)
(-0.352907 0.685456 -0.296989)
(-0.284034 0.55089 -0.246705)
(-0.284809 0.546409 -0.23757)
(-0.339142 0.65414 -0.291858)
(-0.258628 0.499038 -0.222266)
(-0.269152 0.520092 -0.236384)
(-0.273485 0.523379 -0.233116)
(-0.2339 0.445611 -0.196866)
(-0.288738 0.550592 -0.248046)
(-0.263228 0.509525 -0.235003)
(-0.242059 0.471026 -0.213293)
(-0.40945 0.808599 -0.342756)
(-0.406705 0.799347 -0.335828)
(-0.4463 0.874439 -0.376826)
(-0.408923 0.78268 -0.339772)
(-0.457923 0.891235 -0.37923)
(-0.469222 0.927388 -0.390666)
(-0.474408 0.93086 -0.396769)
(-0.481549 0.955009 -0.407478)
(-0.458713 0.916153 -0.391087)
(-0.457564 0.8669 -0.384347)
(-0.450623 0.877776 -0.37101)
(-0.453417 0.886077 -0.37433)
(-0.491718 0.97778 -0.416642)
(-0.491908 0.976321 -0.412911)
(-0.48311 0.957869 -0.405777)
(-0.471457 0.938792 -0.398962)
(-0.367753 0.742194 -0.30791)
(-0.338629 0.674283 -0.281329)
(-0.367313 0.755434 -0.309954)
(-0.393095 0.807905 -0.330077)
(-0.351441 0.714704 -0.292357)
(-0.360475 0.723181 -0.30206)
(-0.370026 0.753323 -0.30843)
(-0.30918 0.618167 -0.259064)
(-0.314735 0.633689 -0.26541)
(-0.401663 0.812333 -0.33433)
(-0.357019 0.723797 -0.307665)
(-0.371263 0.761795 -0.317495)
(-0.396531 0.804019 -0.333943)
(-0.318267 0.630585 -0.263371)
(-0.35252 0.705839 -0.29815)
(-0.368935 0.752183 -0.314849)
(-0.355532 0.747105 -0.297051)
(-0.384346 0.806966 -0.321359)
(-0.420566 0.862603 -0.342505)
(-0.366411 0.783219 -0.305867)
(-0.424447 0.872164 -0.34897)
(-0.343217 0.725038 -0.285163)
(-0.329704 0.690521 -0.274194)
(-0.38273 0.790384 -0.312185)
(-0.354871 0.730971 -0.294439)
(-0.365089 0.771442 -0.308956)
(-0.414822 0.854173 -0.33837)
(-0.386655 0.790519 -0.308855)
(-0.320579 0.652802 -0.253036)
(-0.356153 0.704543 -0.284316)
(-0.341734 0.700172 -0.279838)
(-0.332652 0.680461 -0.265808)
(-0.323764 0.647751 -0.254945)
(-0.35724 0.744269 -0.299404)
(-0.380102 0.78107 -0.314452)
(-0.414455 0.856457 -0.33354)
(-0.38675 0.738379 -0.305366)
(-0.368078 0.694657 -0.291294)
(-0.369424 0.723537 -0.298048)
(-0.348078 0.66156 -0.28119)
(-0.385444 0.741027 -0.308216)
(-0.375302 0.729557 -0.308829)
(-0.399727 0.770484 -0.324559)
(-0.484561 0.927043 -0.402868)
(-0.477276 0.924729 -0.391961)
(-0.399403 0.773375 -0.331797)
(-0.385829 0.725944 -0.291709)
(-0.380394 0.717728 -0.302874)
(-0.381542 0.734346 -0.313347)
(-0.465073 0.918006 -0.382371)
(-0.515519 0.990398 -0.422101)
(-0.446721 0.871711 -0.369208)
(-0.485219 0.934409 -0.395081)
(-0.429206 0.81451 -0.344567)
(-0.480837 0.915631 -0.387631)
(-0.257984 0.509299 -0.213228)
(-0.234239 0.477689 -0.19575)
(-0.244454 0.486587 -0.205899)
(-0.266646 0.534234 -0.229601)