/*--------------------------------*- C++ -*----------------------------------*\
| =========                 |                                                 |
| \\      /  F ield         | OpenFOAM: The Open Source CFD Toolbox           |
|  \\    /   O peration     | Version:  v1612+                                |
|   \\  /    A nd           | Web:      www.OpenFOAM.com                      |
|    \\/     M anipulation  |                                                 |
\*---------------------------------------------------------------------------*/
FoamFile
{
    version     2.0;
    format      ascii;
    class       volScalarField;
    location    "50";
    object      p;
}
// * * * * * * * * * * * * * * * * * * * * * * * * * * * * * * * * * * * * * //

dimensions      [0 2 -2 0 0 0 0];

internalField   nonuniform List<scalar> 
21535
(
0.0293497
0.044211
0.0885204
0.0612299
0.0718709
0.0116023
0.0089779
0.086073
0.0285339
0.0437939
0.0890981
0.00935136
0.0448205
0.0146894
0.0303108
0.0197551
0.016844
0.0260352
0.0324525
0.0435182
0.0423445
0.084609
0.0909774
0.0948596
0.005419
-0.00182932
0.0822614
0.0614594
0.0921482
0.0192768
0.027874
0.0478836
0.0455748
0.03076
0.0852296
0.0670298
0.0654005
0.0166602
0.0302361
0.0242299
0.0734096
0.0794074
0.0806367
0.0649067
0.0653841
0.0999734
0.0744378
0.052002
0.0649466
0.00474905
0.0471011
0.0114716
0.0190859
0.0604886
0.0514387
0.0989239
0.00913159
0.00517711
0.0036259
0.00731258
0.0427739
0.0426551
0.015213
0.0190418
0.00626109
0.0481273
0.0529324
0.0692259
0.0312678
0.0320299
0.0231548
0.0901771
0.0983924
0.0614474
0.00362565
0.0550387
0.0241929
0.0174117
0.017281
0.00889479
0.00977141
0.0249124
0.0139509
0.00361073
0.0221378
0.0237263
0.0539576
0.0797653
0.0802029
0.0605202
0.0940901
0.0971896
0.0287893
0.0679241
0.0793681
0.0711926
0.00736036
0.0129714
0.0592128
0.0584952
0.0319943
0.0108507
0.00688109
0.0952737
0.0953304
0.0700141
0.0466895
0.0994293
0.010115
0.0192107
0.0173276
0.0663472
0.0204895
0.0968862
0.101247
0.0194178
0.0139964
0.0291067
0.0157375
0.00997196
0.0163674
0.00280799
0.00817016
0.0664154
0.0824814
0.0845687
0.0789105
0.0411578
0.0798114
0.0850136
0.0535218
0.085553
0.0855018
0.0938829
0.0956185
0.0825469
0.0857428
0.00535706
0.0027089
0.0153704
0.00666331
0.00782372
0.0405034
0.0590341
0.00958453
0.0223255
0.067771
0.0779733
0.0833981
0.0997072
0.102805
0.0959164
0.00668113
0.0106396
0.0752282
0.0735322
0.0757525
0.0380633
0.0262508
0.0841034
0.0885954
0.0901492
0.00299812
0.0416913
0.0392799
0.0523327
0.00209004
1.07857e-05
0.0191713
0.0271827
0.0325586
0.0308074
0.072624
0.071932
0.081805
0.0802295
0.079611
0.0647525
0.0609986
0.0371094
0.0538122
0.0516743
0.0237387
0.0312083
0.0467638
0.0094438
0.00877049
0.00536885
0.05336
0.0413213
0.0487186
0.0466362
0.0828807
0.0393269
0.0426586
0.0234582
0.0272581
0.0327122
0.0271676
0.0354276
0.0388078
0.0442046
0.0500363
0.0335125
0.0232811
0.0317462
0.0168611
0.0906379
0.0891235
0.0878804
0.0295959
0.0696722
0.0718606
0.0774728
0.0268212
0.0249971
0.0324119
0.0306096
0.0308372
0.0316903
0.0180517
0.0137718
0.0284853
0.00324989
0.00675047
0.0291631
0.0978952
0.0345215
0.0324205
0.0282097
0.0435233
0.0930661
0.099431
0.0155406
0.00226611
0.0383951
0.0712998
0.0168035
0.013168
0.028044
0.0775521
0.0391776
0.0905988
0.089456
0.0855574
0.00630634
0.00505053
0.00630608
-0.0014628
0.00714857
0.00549876
0.00480569
0.0589858
0.0647456
0.069997
0.0649047
0.0860078
0.0882609
0.0961823
0.0198989
0.0242786
0.0434622
0.0682387
0.0977741
0.0312655
0.0634223
0.0276937
0.0615815
0.0164319
0.0112322
0.0468769
0.0581697
0.0506852
0.0488069
0.0880283
0.0864439
0.0361771
0.0376431
0.0668374
0.0304132
0.0228805
0.0235016
0.068098
0.0886793
0.0885752
0.0499958
0.0923381
0.0474895
0.0555767
0.0539796
0.06517
0.0559905
0.059411
0.0627649
0.0659674
0.0705346
0.0815245
0.0478866
0.0822013
0.084298
0.0862714
0.0876305
0.0668562
0.0775166
0.0758617
0.0978604
0.0995006
0.0950895
0.0961137
0.101612
0.0515332
0.0609548
0.0495753
0.0651214
0.0563305
0.020729
0.0167731
0.014502
0.0180796
0.068031
0.00697272
0.00479274
0.0635235
0.0628269
0.0588063
0.0586947
0.0632242
0.00622735
0.0980211
0.0562179
0.057175
0.0589772
0.0174858
0.0482945
0.035135
0.0372498
0.0428506
0.0678243
0.0526879
0.0296492
0.0138453
0.0554411
0.0625517
0.0657939
0.0383159
0.0251483
0.0249171
0.0234371
0.034174
0.0538262
0.0427615
0.0281527
0.0244767
0.038803
0.0272683
0.0557438
0.0762201
0.0126353
0.0605251
0.0503709
0.072142
0.00332522
0.0593993
0.0663348
0.069948
0.0688479
0.0686991
0.0739006
0.0252558
0.0774995
0.0494896
0.0955296
0.0803126
0.0512257
0.0410507
0.0242846
0.011963
0.0118754
0.0423604
0.00268517
0.00623038
0.00840946
0.00472381
0.00331367
0.0318976
0.0853936
0.0780414
0.0857704
0.0320099
0.00390836
0.062547
0.0652613
0.0373538
0.0894355
0.0509213
0.0533157
0.0513781
0.067977
0.00943479
0.0195502
0.0135251
0.0952817
0.0857816
0.101125
0.0424864
0.0760534
0.0335133
0.0202094
0.0403943
0.0582167
0.0541873
0.0431457
0.0607704
0.0496073
0.00971111
0.0214159
0.0171927
0.0134681
0.0118675
0.00995863
0.0139055
0.0152076
0.0766966
0.0770944
0.0610991
0.00252019
0.0312264
0.0768476
0.0118654
0.0847395
0.0510878
0.0191846
0.0191502
0.0672151
0.0165833
0.100964
0.0227951
0.0825319
0.022271
0.0786262
0.0709131
0.0694522
0.0515787
0.0507146
0.0450538
0.0461665
0.0338383
0.0852992
0.0833675
0.0647269
0.0374884
0.0827001
0.0299671
0.0778793
0.00458251
0.00543414
0.0269639
0.0304182
0.0392969
0.0303816
0.0311162
0.0366102
0.0359744
0.0881702
0.103085
0.0887887
0.094659
0.0460213
0.0507932
0.012693
0.0649336
0.0755199
0.00260556
0.0896466
0.0300964
0.0889651
0.0990676
0.0310313
0.0152023
0.0767378
0.0745217
0.0706099
0.0527604
0.0511191
0.0454071
0.0441616
0.0480721
0.00802097
0.00277057
0.0175273
0.0251439
0.0252117
0.0450586
0.041689
0.0733954
0.0436734
0.092416
0.0788771
0.046914
0.0969902
0.0494589
0.0974235
0.0191578
0.00983971
0.0144135
-0.00111993
0.073889
0.0560265
0.0817149
0.0439714
0.0869629
0.0999798
0.0981747
0.0835435
0.092435
0.0322946
0.0344701
0.0787485
0.0696093
0.0582179
0.0612384
0.046882
0.0391377
0.0479597
0.0399381
0.00814346
0.040444
0.0302733
0.0623482
0.0581154
0.0895111
0.0949812
0.100655
0.102034
0.0925645
0.0816299
0.0135032
0.0113196
0.00214534
0.0349035
0.0359759
0.0102128
0.048577
0.0537344
0.0400926
0.0107306
0.00327404
0.0671419
0.0902498
0.0752464
0.0899894
0.0933615
0.0456052
0.0597846
0.0687004
0.0645764
0.0676942
0.0271233
0.00890906
0.0409381
0.0312095
0.0135486
0.0356121
0.00469917
0.00871532
0.0431365
0.0137412
0.0319726
0.0151986
0.0211126
0.0461991
0.0414165
0.0896817
0.0994634
0.0965763
0.100447
0.0451108
0.0636629
0.0468678
0.0550375
0.0483262
0.0478665
0.0507148
0.028175
0.0144039
0.0269808
0.0123637
0.0197662
0.00747066
0.0577953
0.0718164
0.058892
0.0668458
0.0998554
0.100944
0.0820015
0.0895725
0.100855
0.0860384
0.0791521
0.0827146
0.0904592
0.0968108
0.061391
0.0814383
0.0679549
0.0772215
0.0984697
0.105618
0.0902721
0.0977018
0.0753155
0.0730922
0.0529142
0.0759219
0.0634951
0.0653258
0.0908446
0.0928635
0.0952994
0.10178
0.090587
0.094461
0.0985002
0.0829723
0.0762151
0.0916027
0.0806188
0.0806997
0.0751681
0.0924869
0.0867796
0.0569219
0.0448433
0.0487233
0.0527664
0.0577209
0.0424443
0.0468572
0.0578286
0.0719678
0.0658769
0.08514
0.0752541
0.0602693
0.0458907
0.0518781
0.0600028
0.0492395
0.0592511
0.0519218
0.0554456
0.0632675
0.0632691
0.0553458
0.0922249
0.0419106
0.0429616
0.0647618
0.0423445
0.0582248
0.0527326
0.0869298
0.0915295
0.0883337
0.0939676
0.0731921
0.0530967
0.0703093
0.0670889
0.0537385
0.0699714
0.0528455
0.0713463
0.0584957
0.0653076
0.084505
0.0324541
0.0207408
0.0322532
0.0327506
0.0251949
0.0218094
0.0381661
0.0288885
0.0183836
0.0104443
0.0209355
0.0209454
0.0330944
0.0419021
0.0330096
0.0323557
0.0381797
0.0345647
0.012265
0.0136518
0.031129
0.0239611
0.0195627
0.0261593
0.0317362
0.026538
0.0204977
0.00263882
0.0121174
0.0204787
0.00808765
0.00986991
0.0216504
0.0143497
0.0128386
0.00373916
0.00595268
0.020024
0.00419005
0.0171145
0.00826076
0.00349259
0.00179778
0.0155856
0.00336358
0.0100095
0.00879865
0.00659237
0.0424567
0.0426535
0.0478233
0.0447337
0.0398775
0.0391014
0.0453958
0.0147911
0.011798
0.0084942
0.0117976
0.0113495
0.00520775
0.00682601
0.0123809
0.0149726
0.00254319
-0.000803655
0.00493344
0.00560202
-0.00226777
0.00107795
0.0719669
0.0803189
0.0817349
0.0800583
0.0834059
0.0864481
0.0873969
0.0820293
0.0890499
0.0689511
0.080209
0.0728348
0.0792623
0.071373
0.0743807
0.0773291
0.102064
0.108275
0.0984337
0.0997665
0.0796415
0.0880307
0.0798827
0.0881865
0.0862738
0.0881642
0.0854572
0.0909244
0.0886127
0.085701
0.0879075
0.0933697
0.094075
0.087147
0.10492
0.0892751
0.0402554
0.0414605
0.0394598
0.0421281
0.0660856
0.065091
0.0701253
0.0661023
0.0617179
0.0605688
0.0672568
0.0563301
0.0629062
0.051912
0.0778267
0.0673367
0.0765358
0.0681897
0.0707748
0.0694425
0.0707534
0.0410727
0.0452204
0.0664173
0.0569389
0.0745502
0.0727687
0.0750382
0.0715386
0.0696804
0.0688836
0.0731258
0.0649989
0.0726947
0.070196
0.0735048
0.0663592
0.0677925
0.0726733
0.0347191
0.0374243
0.0345466
0.0348537
0.0315634
0.0309026
0.0353274
0.0190546
0.0099148
0.0122506
0.013395
0.00508585
0.00883487
0.0436177
0.0351645
0.0309668
0.0339022
0.0273009
0.0170044
0.0167596
0.0103583
0.0155929
0.0194354
0.0155335
0.0346018
0.0242286
0.034459
0.0250582
0.0311292
0.0321844
0.0277203
0.0163117
0.00483963
0.0033132
0.00434555
0.00598631
0.00970982
0.013271
0.00286203
0.0095799
0.00487743
0.0109178
0.0100518
0.0058181
0.00408463
0.00285293
0.00379715
0.000250407
0.00153872
0.00208237
0.00670561
0.00509764
0.0308332
0.0281808
0.0284634
0.00821596
0.00862309
0.0144175
0.0134046
0.0149447
0.0119402
0.0261503
0.0251553
0.0275538
0.0225881
0.0313024
0.0217102
0.0104592
0.0201817
0.0246449
0.0287168
0.0343612
0.0248546
0.0262843
0.0282837
0.0244693
0.0167631
0.0152792
0.0201396
0.0114081
0.022907
0.0214178
0.0305131
0.0311527
0.0246715
0.0577614
0.0482674
0.0451361
0.0459662
0.0459393
0.0454664
0.0542144
0.0873426
0.0975304
0.0851366
0.0864315
0.0904119
0.0897584
0.086327
0.0863537
0.090527
0.0996791
0.0931941
0.0894686
0.0911479
0.0965444
0.0985193
0.0902101
0.0976801
0.0919383
0.0926831
0.0976827
0.0523818
0.0421167
0.0438127
0.0479931
0.0485484
0.0449629
0.0449862
0.0688273
0.0607644
0.0636189
0.0600473
0.0665493
0.0656553
0.0607374
0.0412526
0.0492067
0.0406506
0.0455292
0.0428152
0.0463838
0.0545627
0.044729
0.0493443
0.0460394
0.048779
0.0469993
0.0564256
0.0533518
0.0397336
0.0488187
0.0517651
0.0520108
0.0482658
0.0562525
0.0518175
0.054383
0.0505725
0.0574583
0.0562099
0.0519583
0.0407883
0.045165
0.048376
0.0478841
0.0389664
0.040752
0.047583
0.0046705
0.00421918
0.00155782
0.0054343
0.0049909
0.00862156
0.00859096
0.0033722
0.0343029
0.0242158
0.0362978
0.00592182
0.000778742
0.0282521
0.0290143
0.0134312
0.0136518
0.0273464
0.0103783
0.00818674
0.00143757
0.00417699
0.00754594
0.0106299
0.00157714
0.00709623
0.0058153
0.0260312
0.0183667
0.0255079
0.0180487
0.0316662
0.00571155
0.00667961
0.0032585
0.00744717
0.00904755
0.0109882
0.00545078
0.0202889
0.0167212
0.0233519
0.00628452
0.00903451
0.0062953
0.0119482
0.0110541
0.00692683
0.006801
0.000825726
0.0105163
0.00217837
0.00510214
0.00737092
9.37486e-05
0.00752431
0.0223094
0.021331
0.016893
0.0161107
0.00126701
0.000601424
0.0496849
0.0556224
0.0481655
0.0503857
0.067362
0.0656841
0.0712047
0.0688062
0.0687834
0.0674499
0.0697845
0.0478635
0.0495472
0.0588227
0.062246
0.0640862
0.0597167
0.0473402
0.0585348
0.0538414
0.0560738
0.0593726
0.0738962
0.0617659
0.0602945
0.0654723
0.0673214
0.0611461
0.0531215
0.0626863
0.104041
0.104676
0.10243
0.0947989
0.0786616
0.0896372
0.0993892
0.0923155
0.0827367
0.0896941
0.0899704
0.0916628
0.0892973
0.0973861
0.0911629
0.0989857
0.0965901
0.098582
0.0985223
0.0968875
0.0810862
0.0870384
0.07038
0.079716
0.0768808
0.0744025
0.0759451
0.0777757
0.071404
0.0599029
0.0616588
0.0537635
0.0545911
0.074462
0.0701785
0.0642081
0.0772727
0.0725317
0.072871
0.0623358
0.0746969
0.084249
0.0646156
0.0645979
0.0722126
0.0783871
0.085685
0.0844439
0.0874888
0.0809987
0.0819714
0.0863613
0.102951
0.102938
0.100665
0.0847704
0.0921074
0.0868336
0.097515
0.0864554
0.0879334
0.0889134
0.0908466
0.088832
0.0988286
0.0988769
0.0981221
0.0980706
0.0972708
0.0908019
0.0873511
0.0800802
0.0897915
0.0864105
0.065608
0.061049
0.0551615
0.0673291
0.0769245
0.0695878
0.0773294
0.0708751
0.0717828
0.0704905
0.0831575
0.0812973
0.073558
0.0609281
0.0676916
0.0986639
0.084487
0.0949887
0.0883541
0.0944532
0.0879276
0.0894815
0.0929538
0.0965282
0.0997683
0.0962341
0.0971542
0.0976217
0.0771271
0.0665007
0.0762811
0.0697666
0.0739739
0.0735954
0.0707765
0.0435722
0.050888
0.0648396
0.0720605
0.0668624
0.0680228
0.0673172
0.0712492
0.0581618
0.0777514
0.0691934
0.0712374
0.0599398
0.0738586
0.0746819
0.0567348
0.065755
0.0833523
0.0914628
0.0829058
0.0859082
0.0833546
0.0856274
0.0827897
0.103073
0.0977628
0.0914526
0.0906793
0.0922316
0.0874124
0.0882442
0.0861968
0.0855722
0.101945
0.0947347
0.0895398
0.100666
0.09749
0.0921083
0.0805829
0.0883016
0.0846066
0.102984
0.100181
0.0923611
0.0897063
0.0995374
0.0961531
0.0871786
0.0931263
0.0894161
0.0914635
0.0918259
0.100105
0.0941417
0.0986918
0.0990931
0.10062
0.10226
0.103744
0.102391
0.101949
0.0872112
0.092055
0.0899679
0.09988
0.108201
0.0941935
0.0977477
0.101729
0.0987018
0.0972284
0.102477
0.101582
0.0963126
0.101894
0.100386
0.0992651
0.103341
0.0857182
0.0889392
0.0777384
0.0763563
0.0838651
0.0846285
0.0754793
0.0702968
0.0850446
0.0972536
0.0850032
0.0830239
0.0807309
0.0835446
0.0797133
0.0772401
0.0761209
0.0867733
0.0749207
0.0969996
0.0855488
0.0835292
0.0831729
0.0914816
0.0811084
0.0890148
0.0799775
0.0846143
0.0815588
0.0820723
0.0834395
0.0884089
0.0849352
0.0871333
0.0918587
0.0823205
0.0868896
0.0927057
0.0937383
0.0797208
0.0819281
0.087557
0.0825779
0.0809944
0.0864295
0.0913246
0.0875525
0.0952127
0.057107
0.0531495
0.0334497
0.0452177
0.0527239
0.0522395
0.0543377
0.0525527
0.0527579
0.0487841
0.0443847
0.0514577
0.0432979
0.0385998
0.0401754
0.0378677
0.041499
0.0452417
0.046033
0.0403345
0.0414288
0.0477693
0.0519456
0.0451311
0.0451422
0.0500615
0.0480834
0.0568632
0.0593574
0.0539697
0.0558243
0.0565516
0.0532779
0.0548575
0.0428748
0.0472603
0.0466544
0.0462882
0.0438617
0.0496026
0.0566907
0.0507324
0.0428133
0.0487289
0.0494732
0.0502426
0.0487701
0.0487609
0.0583226
0.050912
0.0517339
0.0521934
0.0541519
0.0502003
0.0745595
0.0685378
0.0760325
0.0765405
0.071303
0.070991
0.0768399
0.0724337
0.0707348
0.0773514
0.0821962
0.067219
0.0761241
0.0814465
0.0723689
0.0733847
0.0750376
0.0709528
0.0584276
0.0782423
0.0722671
0.0713816
0.0601081
0.0718512
0.0705457
0.0610321
0.0696192
0.0657137
0.0691857
0.0669625
0.0686207
0.0489823
0.043598
0.0445056
0.0492983
0.0473138
0.0438695
0.0686139
0.0651806
0.0658485
0.0515872
0.0479729
0.0629536
0.0577076
0.0486136
0.0566323
0.060642
0.058767
0.0712601
0.0590508
0.0646006
0.0621213
0.0602262
0.0532559
0.0513166
0.055428
0.0561198
0.0510639
0.0509798
0.0561327
0.0659736
0.0599936
0.0586534
0.0603761
0.0604666
0.0535444
0.0470284
0.0508662
0.0524411
0.0527292
0.0534901
0.0518498
0.0666038
0.0713622
0.0636778
0.0629813
0.0740924
0.0651765
0.0697921
0.065599
0.06867
0.050628
0.0579239
0.0604558
0.0632152
0.0561824
0.0587191
0.0562615
0.0569344
0.0608864
0.0676345
0.0645368
0.058206
0.0454645
0.0280357
0.0439402
0.0438915
0.0363001
0.0337849
0.0423119
0.0445961
0.0327241
0.0334249
0.0425302
0.0427709
0.0485359
0.035329
0.0383195
0.0386464
0.0534193
0.0418045
0.0506557
0.0375864
0.0375094
0.0426591
0.0477686
0.0449913
0.0357766
0.0487716
0.0529095
0.0464792
0.0384852
0.0440979
0.0472179
0.0444208
0.0448688
0.0738234
0.0634619
0.073029
0.0640648
0.0685508
0.0657993
0.0663598
0.0531334
0.0482083
0.0453876
0.049815
0.0429568
0.0581988
0.062191
0.0559196
0.0596835
0.058005
0.0557679
0.0540671
0.0444245
0.0525491
0.0490849
0.0494246
0.054308
0.0642665
0.0704255
0.0574184
0.0579807
0.0628806
0.064139
0.0555302
0.0524097
0.0441575
0.0528972
0.0479626
0.0897731
0.0789204
0.0891334
0.0790901
0.0878219
0.0834626
0.0852972
0.0849935
0.0970931
0.0942428
0.0954871
0.097343
0.0829575
0.0944089
0.0913497
0.0926246
0.083749
0.0915663
0.0855085
0.0870136
0.0912727
0.0989928
0.0832713
0.0739592
0.0767611
0.0809837
0.077716
0.0764675
0.0820376
0.0749713
0.0697518
0.0695788
0.0930908
0.0822651
0.0739346
0.0794536
0.0876399
0.0813565
0.0798492
0.0799105
0.0733389
0.0845733
0.0822099
0.0911933
0.0460501
0.0517542
0.0407188
0.0424138
0.0516673
0.0481628
0.0600988
0.0756206
0.0596612
0.0630153
0.0719828
0.0693831
0.0637434
0.0643972
0.0643626
0.060837
0.0649866
0.0562598
0.0582385
0.0562067
0.0552899
0.0621535
0.0711466
0.0699422
0.0686313
0.0512051
0.0435309
0.0528605
0.0470212
0.0470542
0.0519021
0.0698949
0.0626889
0.0671951
0.0627196
0.0642718
0.0619914
0.0561773
0.0667461
0.0714276
0.0654678
0.052529
0.0613889
0.0605494
0.0545955
0.0549366
0.0740723
0.0794435
0.0817893
0.0825835
0.0763994
0.0773403
0.0824943
0.102849
0.0972423
0.0760118
0.0791927
0.089591
0.0830796
0.0815886
0.0820372
0.0858244
0.0792323
0.077996
0.0892913
0.0893341
0.0785944
0.0741232
0.0407234
0.0366472
0.0324807
0.042309
0.039942
0.0352609
0.01825
0.0156932
0.0136335
0.0145443
0.0205952
0.0213223
0.0141793
0.0349146
0.0273079
0.0338763
0.0394629
0.022279
0.0275733
0.0357184
0.0316375
0.0271182
0.0276804
0.0309517
0.0348481
0.0263057
0.0338596
0.0299119
0.0343391
0.0318911
0.0316872
0.0322819
0.0221066
0.0232427
0.0277354
0.025902
0.0244736
0.0286578
0.0285185
0.0373018
0.0400774
0.0337047
0.0374796
0.0373019
0.0321529
0.0294603
0.040373
0.0278226
0.0297313
0.0426823
0.0265415
0.0332572
0.0399589
0.0400484
0.0330701
0.0377135
0.0343095
0.0109024
0.00457768
0.00690816
0.0138072
0.0079771
0.0217325
0.0237105
0.0223061
0.0122791
0.0202362
0.017707
0.0184532
0.0191469
0.0272551
0.03768
0.0309305
0.0372585
0.0306844
0.0324712
0.0358571
0.0328876
0.0413091
0.0382575
0.0380803
0.0401292
0.0323667
0.0397602
0.0364683
0.0348451
0.0357704
0.0407918
0.0401016
0.0358481
0.0234514
0.0272521
0.028981
0.0310327
0.0247148
0.025173
0.0300095
0.030095
0.0378653
0.028089
0.0337085
0.0296143
0.031314
0.0308671
0.0407897
0.0370038
0.0258219
0.0330265
0.0364396
0.0321079
0.0330597
0.0200717
0.0174439
0.0080316
0.0118251
0.0161347
0.0140012
0.0120615
0.00700132
0.00885268
0.0222213
0.0276421
0.0346501
0.0297695
0.0269541
0.0264752
0.0311702
0.0294754
0.0307087
0.0237283
0.0342745
0.0303208
0.0249081
0.017874
0.0133136
0.0192258
0.0199131
0.015053
0.0154558
0.0213605
0.0199669
0.0143491
0.018191
0.0160161
0.0287318
0.0359791
0.023647
0.0252115
0.0280924
0.0298873
0.0209552
0.0357858
0.0296028
0.0354492
0.0237012
0.025977
0.0392202
0.0325303
0.0232814
0.0186739
0.0298284
0.0274755
0.0394407
0.00195696
0.0141609
0.00891467
0.0377472
0.0396926
0.0282704
0.0290043
0.0326594
0.0166424
0.0282766
0.0131919
0.0345203
0.0285812
0.0225073
0.0314127
0.0302048
0.01913
0.00561253
0.0293446
0.0230708
0.0316609
0.0231714
0.0193989
0.0270312
0.0103153
0.0045761
0.0117423
0.00958818
0.0145768
0.0196576
0.00492992
0.0353804
0.0202202
0.025804
0.0279744
0.0276941
0.0276818
0.0109211
0.00800545
0.0112233
0.0111029
0.0219485
0.0103988
0.0222455
0.0282636
0.019466
0.0293364
0.0263791
0.026189
0.0237587
0.0289706
0.0141844
0.0148027
0.0106467
0.0107888
0.0120227
0.0116929
0.0114648
0.0287871
0.0208061
0.035994
0.0317364
0.0236696
0.0279985
0.0134844
0.00600378
0.0137052
0.0116271
0.00494829
0.0168306
0.0192466
0.021153
0.0308388
0.0208951
0.0254083
0.0244749
0.0217139
0.011439
0.00915994
0.0186329
0.0162319
0.0117642
0.0114051
0.0166656
0.0147634
0.0252312
0.019826
0.0223584
0.0222753
0.0199894
0.00128565
0.000670022
0.00324733
0.000593417
0.00498772
0.00973177
0.00547987
0.017551
0.0192189
0.0277269
0.0203083
0.0258379
0.0261676
0.0203508
0.00500898
0.0130381
0.00921948
0.0124587
0.0111517
0.0127189
0.00356281
0.00659241
0.0117602
0.0113357
0.00668717
0.00944228
0.00588141
0.0105459
0.00684247
0.00786854
0.00721079
0.00773958
0.0171137
0.0133982
0.0100168
0.00949874
0.0163275
0.0157477
0.0120784
0.00198247
0.00315706
0.00305438
0.00261841
0.0118423
0.00175083
0.00496827
0.00703546
0.00552014
0.0030127
0.0084905
0.000288274
0.00660903
5.88565e-05
0.00247994
0.0043754
0.0193248
0.0147836
0.0254695
0.0192109
0.0244175
0.0231845
0.0201312
0.00861062
0.0104841
0.00442293
0.00332769
0.00565281
0.00839515
0.00258354
0.00670319
0.0162486
0.00928372
0.008499
0.00810147
0.0101186
0.00101659
0.00475103
0.00668684
0.00618238
8.22999e-05
4.04927e-05
0.00577862
0.0145047
0.0115815
0.0131039
0.00917799
0.0158945
0.0147242
0.0103638
0.0413644
0.0452965
0.040271
0.0411651
0.0418345
0.0426453
0.0404632
0.0124404
0.00477022
0.0205954
0.0142747
0.013455
0.0188991
0.0158455
0.0172752
0.00358589
0.005612
0.00849227
0.0065753
0.00855404
0.00301962
-0.0017024
0.00268857
0.00104085
0.00237815
0.0741108
0.0810396
0.095025
0.0897424
0.0910376
0.0906153
0.0925226
0.0911263
0.09191
0.0788914
0.0784364
0.0806878
0.0754973
0.0798913
0.0769025
0.0790808
0.0788014
0.0770005
0.0700609
0.0953245
0.0900834
0.0942445
0.0912126
0.0943135
0.0916294
0.0937271
0.0915233
0.0881123
0.0920165
0.0919753
0.0915959
0.0906286
0.0928007
0.101813
0.0750091
0.0774188
0.0786248
0.0846768
0.0749663
0.0764771
0.0794949
0.0462953
0.0471806
0.0469063
0.0483465
0.0489065
0.0407957
0.0585331
0.0637411
0.0593609
0.0604715
0.0599098
0.0611248
0.0594281
0.0387156
0.0504331
0.0434772
0.0450879
0.0637584
0.067792
0.0635907
0.0662957
0.0647854
0.0668794
0.0645824
0.0422404
0.050411
0.0474266
0.0555415
0.058212
0.0587061
0.06271
0.0962983
0.095876
0.0959532
0.0948574
0.0599117
0.0651201
0.0640433
0.0647074
0.0624566
0.0639807
0.0635727
0.0723043
0.0732423
0.0713484
0.0697336
0.0732582
0.0719781
0.0719816
0.0232224
0.0269898
0.0283562
0.027474
0.0258437
0.0262531
0.0268792
0.00211264
0.00775539
0.0138576
0.00959507
0.00564733
0.00417938
0.0102868
0.0384466
0.0350108
0.0409965
0.0370531
0.0395144
0.034703
0.0290493
0.0272155
0.0312838
0.0122971
0.0200522
0.00918579
0.03102
0.0190631
0.0320415
0.0287623
0.02626
0.00993725
0.012306
0.00531233
0.0119667
0.00801192
0.00321388
0.00420598
0.00574907
0.00248663
0.00410226
0.00497295
0.00744752
0.00436508
0.00520994
0.00343957
0.00700534
0.00766698
0.00667014
0.00648185
0.0469358
0.0342127
0.0426643
0.0409631
0.0402291
0.0384594
0.0176513
0.0124805
0.0189049
0.0170117
0.015985
0.0158521
0.0195841
0.0165636
0.0200774
0.015685
0.0220095
0.0206947
0.0221516
0.0219231
0.0244919
0.0214406
0.0184844
0.0248753
0.0242838
0.0242138
0.0242851
0.0451027
0.0379641
0.0455042
0.0484674
0.0500256
0.0416169
0.0977004
0.0958811
0.0948648
0.0949255
0.0906934
0.0913039
0.0931471
0.0942497
0.0912524
0.0996077
0.0983908
0.0996846
0.093085
0.0954718
0.0961106
0.100164
0.0993053
0.0998618
0.0990923
0.0965567
0.102662
0.0971594
0.0470699
0.044701
0.0445028
0.0408837
0.0427691
0.0575398
0.0584774
0.0594766
0.061466
0.0600177
0.0602866
0.0605652
0.038412
0.0358129
0.0364525
0.0403411
0.0428033
0.0417114
0.0504359
0.0511108
0.0560874
0.0547347
0.0508916
0.0516574
0.0528283
0.0426592
0.0471693
0.0431156
0.0469328
0.0441131
0.0464784
0.0445267
0.0491837
0.0481136
0.0439235
0.0470507
0.0477386
0.0483657
0.0464884
0.0515005
0.0507274
0.0562402
0.0497612
0.0513038
0.0482882
0.0523558
0.00617381
0.0255136
0.0317449
0.0139273
0.00720456
0.00755038
0.0021596
0.00475879
0.0258231
0.0332113
0.0293505
0.0367757
0.0191781
0.0137298
0.0156904
0.0119144
0.0160537
0.0124948
0.0152859
0.0160346
0.0115908
0.0160081
0.015621
0.0105465
0.0137634
0.0186145
0.00217407
0.00318223
0.00772049
0.0182404
0.0195722
0.0186188
0.0158283
0.0144394
0.0142276
0.00086402
0.00311407
0.101807
0.0576657
0.0553468
0.0590305
0.0549943
0.0575946
0.0578765
0.0578007
0.0763556
0.0764926
0.071663
0.0734494
0.0718994
0.0763683
0.0725141
0.0541999
0.0585339
0.0586818
0.0609395
0.0614645
0.0599048
0.0539851
0.0592032
0.0577626
0.0570447
0.0565721
0.0547607
0.0566312
0.0623312
0.0652977
0.061467
0.0650847
0.0574969
0.0644499
0.0591731
0.054573
0.0587688
0.0581529
0.0629039
0.0605473
0.0580912
0.102536
0.105933
0.101252
0.101863
0.100289
0.100379
0.102124
0.101794
0.103453
0.100764
0.082848
0.0844696
0.0836395
0.0849761
0.0827057
0.0823438
0.0885467
0.0853901
0.0844026
0.0853026
0.0821085
0.0992663
0.0966746
0.0965325
0.0974006
0.0960651
0.0973599
0.100605
0.0870126
0.0820057
0.093158
0.0816522
0.0770148
0.0734241
0.077813
0.0772168
0.0754325
0.0741579
0.0792507
0.0584016
0.0774804
0.0813712
0.0644036
0.0731448
0.0687715
0.0726279
0.0722634
0.064701
0.0691485
0.0755587
0.0797799
0.0736536
0.073273
0.0746658
0.0744332
0.0896428
0.0894328
0.0947972
0.0912196
0.0909533
0.0903103
0.0922632
0.109203
0.083097
0.0930156
0.0965072
0.098812
0.0969553
0.103892
0.096675
0.0962248
0.0857687
0.0922367
0.0798459
0.0807245
0.0807076
0.0859076
0.0866658
0.0811134
0.0833181
0.0568484
0.0629928
0.0617205
0.0606668
0.0568611
0.0602733
0.05949
0.07522
0.0723817
0.0791075
0.0795869
0.0765727
0.0773871
0.0793541
0.0647997
0.0800637
0.0705182
0.0718005
0.0744454
0.0744084
0.101959
0.110796
0.108075
0.0998442
0.0952226
0.0940619
0.095594
0.0925889
0.0951673
0.0937184
0.0944434
0.0986544
0.0990752
0.0987091
0.10026
0.0752553
0.074819
0.0751946
0.0772951
0.0733157
0.0745225
0.0699374
0.0725134
0.0723261
0.0733266
0.0713239
0.0502671
0.0716869
0.0669485
0.0687371
0.0599384
0.0685928
0.0610404
0.0654938
0.0605259
0.0635926
0.0653177
0.0685502
0.0610409
0.0866524
0.0855532
0.0901194
0.0892326
0.087512
0.0866485
0.0903739
0.0913815
0.0976874
0.096947
0.0833102
0.0863758
0.0849248
0.0881174
0.092157
0.0866866
0.0937735
0.100476
0.10063
0.102453
0.101896
0.0803306
0.0871208
0.0820829
0.0899083
0.0902597
0.0938352
0.0940972
0.0931455
0.0944023
0.0916551
0.0933538
0.100871
0.099643
0.0973718
0.109303
0.0999238
0.101241
0.0988748
0.0939944
0.090845
0.0937474
0.0941884
0.0873093
0.0926992
0.0907919
0.0910437
0.095141
0.101489
0.0960969
0.0997356
0.0936398
0.0968144
0.0973678
0.0977013
0.0978892
0.104268
0.102354
0.0979284
0.0992571
0.0987086
0.103148
0.0979318
0.0781409
0.0795633
0.0765564
0.0786951
0.0751683
0.0779343
0.0775974
0.0993888
0.0949118
0.0716971
0.0731585
0.0757687
0.0825422
0.0818798
0.0893598
0.0947812
0.0909432
0.0956134
0.0821365
0.0839349
0.0844495
0.0773389
0.0803492
0.0792157
0.0842734
0.0799144
0.0792166
0.0770579
0.0812309
0.0816058
0.0814375
0.089152
0.0824881
0.0958642
0.090851
0.0955433
0.0922519
0.0888173
0.0924937
0.0949214
0.0863685
0.0879443
0.0907623
0.0911508
0.0886432
0.092777
0.0910094
0.0890894
0.0857723
0.0845637
0.0865455
0.0885926
0.046113
0.043824
0.0516539
0.0520828
0.0497692
0.0570761
0.0490949
0.052406
0.05238
0.0556281
0.0438136
0.0537525
0.0446517
0.0484194
0.0391739
0.0366393
0.0439423
0.0486933
0.0426873
0.0453741
0.0531804
0.0478252
0.049319
0.0490819
0.0506774
0.0494671
0.050132
0.0531432
0.0521907
0.0575888
0.0546757
0.0545274
0.053943
0.0564606
0.0590322
0.054108
0.0582802
0.0568667
0.0583771
0.0559276
0.0592682
0.0438848
0.0476025
0.0424743
0.0432518
0.0443459
0.0450245
0.04221
0.0428563
0.0480549
0.0430427
0.0463544
0.0439654
0.0463113
0.043744
0.0542207
0.0532266
0.0584486
0.0580924
0.0556195
0.0555251
0.056378
0.0758242
0.0768908
0.0754126
0.0759446
0.0753914
0.0752187
0.0749774
0.0606489
0.0685674
0.0794091
0.0839878
0.0774589
0.0738564
0.0731557
0.0675268
0.0597683
0.0582216
0.0609424
0.0678905
0.0617703
0.0644992
0.0643984
0.0593725
0.0607412
0.0634444
0.0632178
0.0607604
0.0424549
0.0407852
0.0459954
0.0459299
0.0414314
0.0424826
0.0408188
0.06314
0.0617822
0.0576965
0.0566607
0.0516157
0.0575792
0.0548337
0.0580512
0.0644006
0.0602827
0.0605724
0.0549243
0.0607969
0.059928
0.0597969
0.0545158
0.0573606
0.0576006
0.0540381
0.0525352
0.0551869
0.062043
0.0563592
0.0553837
0.0611891
0.0623935
0.0622454
0.0546407
0.0454044
0.0515417
0.0592617
0.0554537
0.060989
0.0577207
0.0591473
0.0582509
0.0568636
0.0833607
0.0800118
0.0686551
0.0647455
0.0642161
0.0596372
0.0663187
0.0640711
0.0619429
0.0653875
0.0614773
0.054673
0.0585946
0.0657378
0.0647443
0.0603466
0.0610679
0.0480896
0.046093
0.0299954
0.0342774
0.0375083
0.0351942
0.0494554
0.0403811
0.0347333
0.0491111
0.0511771
0.0453669
0.0470305
0.0309822
0.0363912
0.0416013
0.0445223
0.0439236
0.10028
0.0587575
0.045302
0.0543274
0.0528209
0.0382564
0.0440419
0.0383801
0.0404807
0.0398068
0.0435095
0.0383855
0.0584332
0.0636525
0.0594086
0.064406
0.0599566
0.062079
0.0610348
0.04396
0.0418501
0.0382636
0.0453997
0.0442744
0.0377033
0.0425408
0.0531757
0.0542184
0.0582518
0.0604545
0.0582651
0.0567191
0.0465188
0.053673
0.0493513
0.0507339
0.0526694
0.0514259
0.0511705
0.057977
0.0586372
0.0604508
0.0510294
0.0558348
0.0552516
0.0499408
0.0531238
0.0562593
0.0556126
0.0497242
0.0528511
0.0559462
0.0776731
0.0743083
0.0790361
0.0911288
0.0871817
0.0920653
0.0877551
0.0904891
0.0877211
0.0899204
0.098038
0.0948468
0.0894873
0.0947565
0.0951303
0.0943898
0.0901625
0.0956248
0.0941207
0.095015
0.0893141
0.0938543
0.0948052
0.093381
0.0940368
0.0928629
0.0933125
0.094711
0.0750242
0.0778918
0.0712407
0.076522
0.0767181
0.0769588
0.0766163
0.0859231
0.0807084
0.0753177
0.0753885
0.0831655
0.0818773
0.0776036
0.0897582
0.088032
0.0861105
0.0809358
0.0839245
0.0768168
0.0803303
0.0545965
0.0494024
0.0541511
0.052515
0.0536447
0.0514614
0.0539853
0.0715752
0.0733356
0.0757873
0.0693129
0.069875
0.0683414
0.0721628
0.0677992
0.0698844
0.0677765
0.0705796
0.0621484
0.0589189
0.062712
0.0563119
0.0634628
0.0565099
0.0731775
0.0764756
0.0725164
0.0712564
0.0607086
0.0771871
0.0710592
0.0676164
0.0491661
0.0530138
0.0543419
0.0535096
0.0515695
0.052448
0.0531623
0.0667218
0.0667972
0.0702601
0.0686663
0.0667813
0.0658687
0.07191
0.0546322
0.0550926
0.0676597
0.0624618
0.0711075
0.06817
0.0596598
0.0674459
0.0663663
0.0856064
0.0844837
0.0891305
0.0859961
0.0868279
0.0850478
0.087197
0.0775416
0.0790635
0.0763334
0.0928346
0.0885998
0.0888795
0.0862162
0.0758743
0.0684984
0.0742732
0.039648
0.0316491
0.0301196
0.0308161
0.025455
0.0327002
0.0291507
0.0194191