/*--------------------------------*- C++ -*----------------------------------*\
| =========                 |                                                 |
| \\      /  F ield         | OpenFOAM: The Open Source CFD Toolbox           |
|  \\    /   O peration     | Version:  v1612+                                |
|   \\  /    A nd           | Web:      www.OpenFOAM.com                      |
|    \\/     M anipulation  |                                                 |
\*---------------------------------------------------------------------------*/
FoamFile
{
    version     2.0;
    format      ascii;
    class       volVectorField;
    location    "50";
    object      U;
}
// * * * * * * * * * * * * * * * * * * * * * * * * * * * * * * * * * * * * * //

dimensions      [0 1 -1 0 0 0 0];

internalField   nonuniform List<vector> 
21535
(
(0.154175 0.569794 -0.497303)
(0.113097 0.46205 -0.397345)
(0.154465 0.57575 -0.50013)
(0.151605 0.556761 -0.48296)
(0.146353 0.551866 -0.473264)
(0.141289 0.516523 -0.451216)
(0.156763 0.588492 -0.509895)
(0.13441 0.47525 -0.414941)
(0.146474 0.551723 -0.488252)
(0.181424 0.690539 -0.601104)
(0.151348 0.567086 -0.496334)
(0.178039 0.678082 -0.587429)
(0.166775 0.650005 -0.566123)
(0.153059 0.59018 -0.504551)
(0.151447 0.574703 -0.494906)
(0.140662 0.506475 -0.443589)
(0.150118 0.55033 -0.486206)
(0.161554 0.606702 -0.530924)
(0.175406 0.670953 -0.581069)
(0.133036 0.502622 -0.44038)
(0.144884 0.51612 -0.454016)
(0.147996 0.544879 -0.467004)
(0.138684 0.520411 -0.458882)
(0.154337 0.571249 -0.508816)
(0.131318 0.47662 -0.406176)
(0.134553 0.518672 -0.449657)
(0.147334 0.576812 -0.500127)
(0.15857 0.615861 -0.528898)
(0.144555 0.557956 -0.486988)
(0.14112 0.538574 -0.465576)
(0.152605 0.511204 -0.455769)
(0.119358 0.469334 -0.409141)
(0.145985 0.541443 -0.465428)
(0.146068 0.554646 -0.485867)
(0.146663 0.556952 -0.485467)
(0.145478 0.544221 -0.468354)
(0.124438 0.495258 -0.418482)
(0.173224 0.662596 -0.575967)
(0.136655 0.495542 -0.428624)
(0.144914 0.536582 -0.472457)
(0.146427 0.527847 -0.466312)
(0.163015 0.607147 -0.520683)
(0.149348 0.557969 -0.468831)
(0.138426 0.519022 -0.455416)
(0.159607 0.587554 -0.514973)
(0.148368 0.561032 -0.492451)
(0.144307 0.541317 -0.469128)
(0.139096 0.540828 -0.467594)
(0.140017 0.522374 -0.463299)
(0.152712 0.58217 -0.505876)
(0.144511 0.538518 -0.468276)
(0.1427 0.531552 -0.460859)
(0.149686 0.558532 -0.478793)
(0.146367 0.552757 -0.481824)
(0.144568 0.561246 -0.483992)
(0.128003 0.479819 -0.417137)
(0.145697 0.541799 -0.468453)
(0.130872 0.496632 -0.430943)
(0.137496 0.514745 -0.442977)
(0.142558 0.525315 -0.450756)
(0.139774 0.534047 -0.475143)
(0.152526 0.57608 -0.501613)
(0.168329 0.657386 -0.566252)
(0.1576 0.635668 -0.542255)
(0.143336 0.522114 -0.453404)
(0.137134 0.512971 -0.454337)
(0.125277 0.482517 -0.424592)
(0.127429 0.472903 -0.414441)
(0.133183 0.501763 -0.449629)
(0.140498 0.528918 -0.470318)
(0.142428 0.544079 -0.466411)
(0.138042 0.525174 -0.465562)
(0.132748 0.498297 -0.444134)
(0.134569 0.490724 -0.436593)
(0.134472 0.528488 -0.462811)
(0.151533 0.566039 -0.490981)
(0.133415 0.534559 -0.469101)
(0.134518 0.524623 -0.45999)
(0.142935 0.517937 -0.444283)
(0.136099 0.513241 -0.44843)
(0.152483 0.543205 -0.476894)
(0.151879 0.566438 -0.496005)
(0.145799 0.506493 -0.443012)
(0.138803 0.528535 -0.461082)
(0.138533 0.515436 -0.452035)
(0.157102 0.60153 -0.521999)
(0.14434 0.531643 -0.452333)
(0.135233 0.486329 -0.422102)
(0.145725 0.549381 -0.481083)
(0.145971 0.529619 -0.463502)
(0.154426 0.570862 -0.502073)
(0.1675 0.609112 -0.538253)
(0.154867 0.5523 -0.484031)
(0.132308 0.510498 -0.447783)
(0.145662 0.557696 -0.485024)
(0.127551 0.465798 -0.415422)
(0.139451 0.534533 -0.463192)
(0.148458 0.512371 -0.443004)
(0.159511 0.581425 -0.514605)
(0.148385 0.55526 -0.486501)
(0.144862 0.547448 -0.475032)
(0.127096 0.490466 -0.429393)
(0.141341 0.554985 -0.487497)
(0.161803 0.617213 -0.539797)
(0.162522 0.614155 -0.53672)
(0.139329 0.513813 -0.453471)
(0.120627 0.452265 -0.390109)
(0.149507 0.565801 -0.496867)
(0.146079 0.530266 -0.454307)
(0.148241 0.564698 -0.486864)
(0.125885 0.492476 -0.424415)
(0.135097 0.531926 -0.460991)
(0.1463 0.538252 -0.475437)
(0.146981 0.530799 -0.461279)
(0.135289 0.516198 -0.449158)
(0.130703 0.544574 -0.47316)
(0.132311 0.578614 -0.499131)
(0.136043 0.516193 -0.449877)
(0.120824 0.469151 -0.417253)
(0.133712 0.477729 -0.42054)
(0.159347 0.592612 -0.518257)
(0.137919 0.508194 -0.437437)
(0.140829 0.5178 -0.446695)
(0.13215 0.490984 -0.435386)
(0.140327 0.516116 -0.449467)
(0.144315 0.502521 -0.434514)
(0.158353 0.589091 -0.507409)
(0.149428 0.555071 -0.491598)
(0.137321 0.519119 -0.457013)
(0.127695 0.482123 -0.421091)
(0.136654 0.522971 -0.451266)
(0.123911 0.465701 -0.419286)
(0.162263 0.59331 -0.513525)
(0.132394 0.490649 -0.431553)
(0.126724 0.470849 -0.41295)
(0.144839 0.535957 -0.472615)
(0.15727 0.581401 -0.498011)
(0.136294 0.509769 -0.444221)
(0.149855 0.545543 -0.474423)
(0.127142 0.48781 -0.422319)
(0.131472 0.528095 -0.452377)
(0.151177 0.522053 -0.454403)
(0.131933 0.503837 -0.440085)
(0.151881 0.560951 -0.49382)
(0.148393 0.565658 -0.485352)
(0.154015 0.582141 -0.504406)
(0.147461 0.549295 -0.473125)
(0.131043 0.529105 -0.446764)
(0.131057 0.47548 -0.41058)
(0.143931 0.558314 -0.487668)
(0.159647 0.559277 -0.482784)
(0.140156 0.545364 -0.482684)
(0.148947 0.557618 -0.482553)
(0.140058 0.517681 -0.450084)
(0.122023 0.476777 -0.413542)
(0.153656 0.557782 -0.480155)
(0.133509 0.475422 -0.409955)
(0.125465 0.474547 -0.411886)
(0.141203 0.538085 -0.466019)
(0.145241 0.559012 -0.484657)
(0.146932 0.562089 -0.487686)
(0.150063 0.57255 -0.496853)
(0.142797 0.536878 -0.473441)
(0.152308 0.574353 -0.499459)
(0.13275 0.517095 -0.449001)
(0.152196 0.537068 -0.474236)
(0.142806 0.511773 -0.450059)
(0.121213 0.46203 -0.403545)
(0.160824 0.582039 -0.513196)
(0.143645 0.552302 -0.482823)
(0.132103 0.50788 -0.44818)
(0.134851 0.508192 -0.447222)
(0.137234 0.522411 -0.462039)
(0.142077 0.552273 -0.484489)
(0.148408 0.566264 -0.496636)
(0.165925 0.596262 -0.523184)
(0.146381 0.568487 -0.493998)
(0.132191 0.489996 -0.43109)
(0.144177 0.537816 -0.470249)
(0.135491 0.545545 -0.480193)
(0.146974 0.586718 -0.509295)
(0.146244 0.560391 -0.490929)
(0.131029 0.508443 -0.44761)
(0.142329 0.537234 -0.471175)
(0.146552 0.570877 -0.498087)
(0.154618 0.555663 -0.485437)
(0.140481 0.51855 -0.450162)
(0.139588 0.535492 -0.455162)
(0.132288 0.485143 -0.433264)
(0.143043 0.48185 -0.423595)
(0.136473 0.506916 -0.441169)
(0.150352 0.543347 -0.4783)
(0.132481 0.478962 -0.431086)
(0.143622 0.524653 -0.464523)
(0.144914 0.55926 -0.490981)
(0.145079 0.55197 -0.471143)
(0.117049 0.456672 -0.411837)
(0.153363 0.568357 -0.495807)
(0.144219 0.572473 -0.495737)
(0.145934 0.557184 -0.491574)
(0.143472 0.559699 -0.486873)
(0.139545 0.535859 -0.461488)
(0.154219 0.589389 -0.516676)
(0.150979 0.566108 -0.485231)
(0.136071 0.506132 -0.448749)
(0.150335 0.537129 -0.467697)
(0.149325 0.565001 -0.494983)
(0.140165 0.513917 -0.449508)
(0.136127 0.50711 -0.451228)
(0.14448 0.528626 -0.474685)
(0.13099 0.514124 -0.444185)
(0.132515 0.514998 -0.444235)
(0.138792 0.541733 -0.465633)
(0.146727 0.536245 -0.471699)
(0.153929 0.566363 -0.49277)
(0.152628 0.555821 -0.475966)
(0.152812 0.580619 -0.491502)
(0.140155 0.51834 -0.443998)
(0.143848 0.544909 -0.469401)
(0.130934 0.518007 -0.454767)
(0.129359 0.51488 -0.443159)
(0.144058 0.50792 -0.426295)
(0.129145 0.51541 -0.441758)
(0.144135 0.548968 -0.470774)
(0.134904 0.528486 -0.457366)
(0.154781 0.573082 -0.505741)
(0.134962 0.490152 -0.430318)
(0.13966 0.543466 -0.474552)
(0.160588 0.593734 -0.523941)
(0.143136 0.534273 -0.46838)
(0.150251 0.529978 -0.459378)
(0.129336 0.499199 -0.43202)
(0.155194 0.568765 -0.484408)
(0.143774 0.516119 -0.45113)
(0.152975 0.560571 -0.487448)
(0.141612 0.526662 -0.455954)
(0.148395 0.546256 -0.470555)
(0.136184 0.496657 -0.445761)
(0.147231 0.548635 -0.47929)
(0.152128 0.569745 -0.501858)
(0.147232 0.550758 -0.487988)
(0.148712 0.57227 -0.497622)
(0.146594 0.549217 -0.488556)
(0.148952 0.55097 -0.482096)
(0.14494 0.543167 -0.476395)
(0.16217 0.646946 -0.554567)
(0.136675 0.540351 -0.47741)
(0.132293 0.503242 -0.442402)
(0.127871 0.515593 -0.448531)
(0.144782 0.554745 -0.489326)
(0.135661 0.515835 -0.452746)
(0.138788 0.519481 -0.443207)
(0.12452 0.453501 -0.403169)
(0.134251 0.491079 -0.429216)
(0.161592 0.580177 -0.51496)
(0.13125 0.495102 -0.435466)
(0.138476 0.522595 -0.45719)
(0.154558 0.570572 -0.499111)
(0.145937 0.535785 -0.469576)
(0.117675 0.454525 -0.410283)
(0.141584 0.533813 -0.458329)
(0.145759 0.56475 -0.48623)
(0.127332 0.495058 -0.437886)
(0.150186 0.57515 -0.503758)
(0.150502 0.58233 -0.501425)
(0.14813 0.563768 -0.487089)
(0.14153 0.517272 -0.441065)
(0.143427 0.52726 -0.455339)
(0.126997 0.497142 -0.429235)
(0.148719 0.526905 -0.454073)
(0.130415 0.486802 -0.420674)
(0.148309 0.569155 -0.489945)
(0.147217 0.554603 -0.481878)
(0.144243 0.558546 -0.481306)
(0.153069 0.541867 -0.477835)
(0.151156 0.51506 -0.460139)
(0.1501 0.510956 -0.460794)
(0.128914 0.503972 -0.446624)
(0.127486 0.479045 -0.428616)
(0.153219 0.598315 -0.514533)
(0.152988 0.5477 -0.481539)
(0.15452 0.573783 -0.502791)
(0.136645 0.544605 -0.468073)
(0.127266 0.476253 -0.41452)
(0.134875 0.509516 -0.449547)
(0.128355 0.504004 -0.435864)
(0.136627 0.510564 -0.457927)
(0.134569 0.529187 -0.454925)
(0.158738 0.583022 -0.509198)
(0.15159 0.557963 -0.484795)
(0.129891 0.492334 -0.432754)
(0.138114 0.505498 -0.444229)
(0.149073 0.546874 -0.477563)
(0.158642 0.558881 -0.481716)
(0.160145 0.596372 -0.514315)
(0.122347 0.487396 -0.41675)
(0.139899 0.526894 -0.460888)
(0.140492 0.533312 -0.456683)
(0.147389 0.579428 -0.500855)
(0.144182 0.506614 -0.437474)
(0.143015 0.542989 -0.469769)
(0.13857 0.521298 -0.441055)
(0.138511 0.518569 -0.464517)
(0.14336 0.53197 -0.467211)
(0.138273 0.511938 -0.440881)
(0.151748 0.563726 -0.493195)
(0.157446 0.595497 -0.516893)
(0.129891 0.474621 -0.417413)
(0.133641 0.507993 -0.441859)
(0.132731 0.509728 -0.450438)
(0.143871 0.52457 -0.460876)
(0.150074 0.532159 -0.472407)
(0.150796 0.546037 -0.483319)
(0.136462 0.520125 -0.460198)
(0.118666 0.472535 -0.406312)
(0.143834 0.556224 -0.474564)
(0.12553 0.481131 -0.416554)
(0.126792 0.510616 -0.443662)
(0.144961 0.540661 -0.463541)
(0.144954 0.507673 -0.440453)
(0.147489 0.529385 -0.458115)
(0.13244 0.495566 -0.434842)
(0.152622 0.570119 -0.49918)
(0.120034 0.464879 -0.401544)
(0.144095 0.547258 -0.487888)
(0.133968 0.493882 -0.433244)
(0.14106 0.533738 -0.465604)
(0.134102 0.500159 -0.446149)
(0.142514 0.537621 -0.459714)
(0.151462 0.556107 -0.490921)
(0.135592 0.506169 -0.439989)
(0.132365 0.492313 -0.426004)
(0.128428 0.503793 -0.431426)
(0.153221 0.580833 -0.503876)
(0.115788 0.449091 -0.389136)
(0.15366 0.56181 -0.482285)
(0.129366 0.528508 -0.45969)
(0.123868 0.456963 -0.410876)
(0.121107 0.456828 -0.407653)
(0.137342 0.532315 -0.46499)
(0.148256 0.560236 -0.484235)
(0.140762 0.540337 -0.483524)
(0.135252 0.506258 -0.436316)
(0.141494 0.525652 -0.461649)
(0.134624 0.503246 -0.434666)
(0.157308 0.58323 -0.508063)
(0.148378 0.557076 -0.480864)
(0.149196 0.554476 -0.493545)
(0.153332 0.574239 -0.502947)
(0.123131 0.481335 -0.428263)
(0.124844 0.488165 -0.42318)
(0.153621 0.567046 -0.48831)
(0.159226 0.613294 -0.531798)
(0.124388 0.468529 -0.41194)
(0.142602 0.540609 -0.462769)
(0.114835 0.448462 -0.386048)
(0.153235 0.579803 -0.507774)
(0.122517 0.458455 -0.398396)
(0.145885 0.563537 -0.495781)
(0.130167 0.473684 -0.417916)
(0.147558 0.569713 -0.501697)
(0.14123 0.534945 -0.459204)
(0.145155 0.551552 -0.477817)
(0.135849 0.53817 -0.472265)
(0.122991 0.502254 -0.432564)
(0.14575 0.564835 -0.486035)
(0.138538 0.525764 -0.452095)
(0.142633 0.529914 -0.453456)
(0.138044 0.534379 -0.462525)
(0.126284 0.502483 -0.431864)
(0.121996 0.472704 -0.417127)
(0.156246 0.557433 -0.49366)
(0.145843 0.553122 -0.483506)
(0.138452 0.511535 -0.444103)
(0.116563 0.451949 -0.396926)
(0.130255 0.50485 -0.439196)
(0.131438 0.512755 -0.438687)
(0.136244 0.507062 -0.444394)
(0.159251 0.590086 -0.51917)
(0.117365 0.451203 -0.389673)
(0.137418 0.507306 -0.444603)
(0.144648 0.564954 -0.49028)
(0.147299 0.562322 -0.491167)
(0.142948 0.554539 -0.47992)
(0.149079 0.555526 -0.487064)
(0.145913 0.54295 -0.481169)
(0.146014 0.530033 -0.462874)
(0.146656 0.518269 -0.450095)
(0.108702 0.43865 -0.381717)
(0.124146 0.480745 -0.424001)
(0.139383 0.517569 -0.457072)
(0.140447 0.548939 -0.471156)
(0.127895 0.511622 -0.446857)
(0.163369 0.622911 -0.544328)
(0.120939 0.493343 -0.423972)
(0.135405 0.517516 -0.448248)
(0.141017 0.520203 -0.444438)
(0.137619 0.517669 -0.441523)
(0.156994 0.582839 -0.503143)
(0.128665 0.502089 -0.435327)
(0.143654 0.513261 -0.455672)
(0.129475 0.480559 -0.422138)
(0.136774 0.494656 -0.432437)
(0.13598 0.487143 -0.424089)
(0.154129 0.543055 -0.467291)
(0.136902 0.510831 -0.446745)
(0.141269 0.531957 -0.456113)
(0.138293 0.500693 -0.435492)
(0.133689 0.515077 -0.455198)
(0.140971 0.518945 -0.457441)
(0.127599 0.518337 -0.459787)
(0.145371 0.555078 -0.478651)
(0.140648 0.51105 -0.439547)
(0.143509 0.537041 -0.459243)
(0.140394 0.511961 -0.446544)
(0.157273 0.57516 -0.499844)
(0.141692 0.530575 -0.45981)
(0.15041 0.563211 -0.482261)
(0.146752 0.543074 -0.466405)
(0.144875 0.547223 -0.481133)
(0.127545 0.484113 -0.422218)
(0.136053 0.518894 -0.452249)
(0.121992 0.457022 -0.402705)
(0.154832 0.55127 -0.483052)
(0.138113 0.516661 -0.449568)
(0.15624 0.55883 -0.486959)
(0.129475 0.498404 -0.436967)
(0.159008 0.587593 -0.516129)
(0.13448 0.497151 -0.439453)
(0.145133 0.534463 -0.461081)
(0.126602 0.490439 -0.42202)
(0.132655 0.524355 -0.458948)
(0.145193 0.52033 -0.458972)
(0.126061 0.474806 -0.419113)
(0.110756 0.451823 -0.393828)
(0.138545 0.520329 -0.455772)
(0.129493 0.473393 -0.411977)
(0.142324 0.521687 -0.451089)
(0.132931 0.518295 -0.452051)
(0.140585 0.516498 -0.441929)
(0.127905 0.489261 -0.424186)
(0.144284 0.525701 -0.461156)
(0.151013 0.547808 -0.47578)
(0.149353 0.517343 -0.461225)
(0.129187 0.509033 -0.431981)
(0.128544 0.494518 -0.4291)
(0.119312 0.472075 -0.409609)
(0.128219 0.474704 -0.416058)
(0.153157 0.550508 -0.477494)
(0.137824 0.510817 -0.451364)
(0.130859 0.484206 -0.419302)
(0.145347 0.540047 -0.475075)
(0.162451 0.600267 -0.515724)
(0.123078 0.458564 -0.402518)
(0.161858 0.595046 -0.51464)
(0.135676 0.521769 -0.446403)
(0.143167 0.523806 -0.459598)
(0.156708 0.589172 -0.517544)
(0.141085 0.562639 -0.491216)
(0.150473 0.547125 -0.468441)
(0.132304 0.517618 -0.437464)
(0.123484 0.459008 -0.397407)
(0.150873 0.564311 -0.48539)
(0.148926 0.550293 -0.485491)
(0.129076 0.491737 -0.433699)
(0.127326 0.466039 -0.404041)
(0.150969 0.541386 -0.480881)
(0.142988 0.511439 -0.447387)
(0.136394 0.513324 -0.441641)
(0.145034 0.555909 -0.486641)
(0.152312 0.583338 -0.506756)
(0.154405 0.592264 -0.516553)
(0.123494 0.443735 -0.388178)
(0.143278 0.540275 -0.469359)
(0.146316 0.54443 -0.483525)
(0.148845 0.553582 -0.487023)
(0.145725 0.55013 -0.470696)
(0.150902 0.558259 -0.476058)
(0.123865 0.478048 -0.414231)
(0.13672 0.543599 -0.478668)
(0.155318 0.587274 -0.50857)
(0.151359 0.559434 -0.481243)
(0.122033 0.50577 -0.449288)
(0.124521 0.476982 -0.418991)
(0.122958 0.481116 -0.429634)
(0.148181 0.540783 -0.477287)
(0.153469 0.572141 -0.50435)
(0.134304 0.508179 -0.442129)
(0.139231 0.516501 -0.452026)
(0.127161 0.487539 -0.421245)
(0.134432 0.511803 -0.439115)
(0.144441 0.516888 -0.441993)
(0.14164 0.552709 -0.486559)
(0.151228 0.561809 -0.494405)
(0.156902 0.574144 -0.490371)
(0.13743 0.518498 -0.452729)
(0.152582 0.542382 -0.474122)
(0.116718 0.483367 -0.417512)
(0.124085 0.49402 -0.441119)
(0.164095 0.60715 -0.53205)
(0.141027 0.549158 -0.490155)
(0.113287 0.44854 -0.410858)
(0.130576 0.514089 -0.454005)
(0.1224 0.467701 -0.410041)
(0.143814 0.510825 -0.445856)
(0.118197 0.45964 -0.399566)
(0.118187 0.462059 -0.40123)
(0.1267 0.510222 -0.443171)
(0.123144 0.478142 -0.414575)
(0.143946 0.540254 -0.472328)
(0.127085 0.483985 -0.420722)
(0.137364 0.508708 -0.4468)
(0.132985 0.492539 -0.437061)
(0.145681 0.527204 -0.455071)
(0.150973 0.561575 -0.482279)
(0.160222 0.602632 -0.518013)
(0.134852 0.52911 -0.457366)
(0.158483 0.561715 -0.496236)
(0.146631 0.518086 -0.446275)
(0.133162 0.530778 -0.457814)
(0.137279 0.505811 -0.446847)
(0.131278 0.526548 -0.464018)
(0.135249 0.488312 -0.433732)
(0.141869 0.509398 -0.445386)
(0.115762 0.490073 -0.429743)
(0.144275 0.553491 -0.479573)
(0.138721 0.549176 -0.472327)
(0.138313 0.547188 -0.473331)
(0.143578 0.54905 -0.480872)
(0.141834 0.519255 -0.457167)
(0.149003 0.522946 -0.469309)
(0.138678 0.510271 -0.458749)
(0.132166 0.50476 -0.441641)
(0.121245 0.479268 -0.426495)
(0.121235 0.460285 -0.405559)
(0.121694 0.487041 -0.412053)
(0.126121 0.471864 -0.403487)
(0.137278 0.510584 -0.450593)
(0.143638 0.544205 -0.47764)
(0.12479 0.478057 -0.414513)
(0.126822 0.464742 -0.406856)
(0.136306 0.508879 -0.441324)
(0.125087 0.461727 -0.400699)
(0.152019 0.557769 -0.479777)
(0.192945 0.733639 -0.63873)
(0.13342 0.493475 -0.432887)
(0.183796 0.707412 -0.610832)
(0.135417 0.502266 -0.438723)
(0.193018 0.731401 -0.633533)
(0.187049 0.701149 -0.611604)
(0.191448 0.725878 -0.632046)
(0.192715 0.733447 -0.636547)
(0.129839 0.520964 -0.448006)
(0.192844 0.734684 -0.636052)
(0.191113 0.717524 -0.626041)
(0.189169 0.72113 -0.626379)
(0.187068 0.703479 -0.609715)
(0.192607 0.736481 -0.63848)
(0.160774 0.616875 -0.526632)
(0.16975 0.630003 -0.553295)
(0.130755 0.496208 -0.430769)
(0.124186 0.464343 -0.400696)
(0.128349 0.482725 -0.43133)
(0.167388 0.635715 -0.549823)
(0.187408 0.71323 -0.613507)
(0.1468 0.54578 -0.480118)
(0.182726 0.71066 -0.61539)
(0.142151 0.534177 -0.471137)
(0.147949 0.548157 -0.478941)
(0.132368 0.507516 -0.449432)
(0.14573 0.551861 -0.485993)
(0.128837 0.492874 -0.418737)
(0.191474 0.729034 -0.630209)
(0.191803 0.727431 -0.631667)
(0.157332 0.584891 -0.513762)
(0.17964 0.68075 -0.599299)
(0.173365 0.657125 -0.574102)
(0.192107 0.726734 -0.629553)
(0.170554 0.642559 -0.565438)
(0.191777 0.728725 -0.632049)
(0.193693 0.731842 -0.636238)
(0.192872 0.734522 -0.638434)
(0.184556 0.70822 -0.616438)
(0.134256 0.501809 -0.436717)
(0.183949 0.718571 -0.620364)
(0.137971 0.514431 -0.446295)
(0.175659 0.678769 -0.589073)
(0.147308 0.566733 -0.500672)
(0.138694 0.507482 -0.43599)
(0.165337 0.617548 -0.532978)
(0.18626 0.697358 -0.605446)
(0.18721 0.714145 -0.61711)
(0.171566 0.667214 -0.577583)
(0.151001 0.565861 -0.498028)
(0.180934 0.683781 -0.596719)
(0.149776 0.541545 -0.471091)
(0.181866 0.680088 -0.594514)
(0.176036 0.658387 -0.576046)
(0.171364 0.637344 -0.555545)
(0.175177 0.669268 -0.580586)
(0.129068 0.499427 -0.446031)
(0.189877 0.720004 -0.628502)
(0.168567 0.622398 -0.543131)
(0.155069 0.590186 -0.518843)
(0.171841 0.648668 -0.564526)
(0.143281 0.533192 -0.467046)
(0.155947 0.595798 -0.52186)
(0.147562 0.515155 -0.436571)
(0.128114 0.471199 -0.412699)
(0.191915 0.730919 -0.632367)
(0.187029 0.718869 -0.624114)
(0.121433 0.450122 -0.398002)
(0.18039 0.682054 -0.591049)
(0.142731 0.525465 -0.453554)
(0.150222 0.565813 -0.485823)
(0.161173 0.624445 -0.543742)
(0.178055 0.675138 -0.577555)
(0.19179 0.717073 -0.622184)
(0.144709 0.523248 -0.469381)
(0.189806 0.716316 -0.621714)
(0.170878 0.652303 -0.572357)
(0.163302 0.621933 -0.537081)
(0.191 0.706207 -0.618117)
(0.193409 0.719442 -0.627564)
(0.181459 0.679815 -0.592016)
(0.132093 0.48965 -0.425906)
(0.128704 0.496415 -0.44148)
(0.136965 0.5004 -0.437091)
(0.186636 0.708487 -0.609575)
(0.122437 0.463621 -0.405266)
(0.187159 0.684314 -0.591305)
(0.177559 0.668721 -0.569089)
(0.141668 0.53184 -0.476203)
(0.167162 0.613376 -0.531227)
(0.19003 0.725677 -0.629293)
(0.189772 0.714905 -0.622617)
(0.191054 0.727409 -0.631759)
(0.192861 0.729698 -0.635074)
(0.193123 0.733943 -0.638104)
(0.187625 0.7113 -0.621442)
(0.18215 0.692655 -0.600169)
(0.146805 0.544305 -0.467086)
(0.146723 0.557592 -0.474756)
(0.148996 0.549573 -0.474209)
(0.191259 0.730273 -0.633138)
(0.183734 0.706786 -0.613311)
(0.169778 0.645518 -0.56494)
(0.174299 0.660825 -0.570387)
(0.153211 0.609321 -0.521955)
(0.145283 0.560348 -0.484914)
(0.154961 0.563104 -0.48772)
(0.177797 0.655258 -0.574924)
(0.186471 0.708694 -0.618889)
(0.170697 0.630963 -0.542492)
(0.152763 0.550364 -0.483436)
(0.145103 0.53511 -0.460416)
(0.141953 0.523562 -0.449756)
(0.173575 0.664453 -0.583951)
(0.190747 0.727226 -0.627842)
(0.168019 0.656669 -0.573107)
(0.174565 0.6421 -0.563315)
(0.177515 0.667818 -0.583634)
(0.186742 0.71308 -0.620141)
(0.143851 0.551022 -0.474942)
(0.172988 0.658891 -0.57021)
(0.186203 0.710439 -0.61904)
(0.179205 0.651164 -0.571605)
(0.177375 0.671184 -0.58425)
(0.139853 0.536761 -0.465692)
(0.174017 0.668533 -0.58153)
(0.163308 0.613581 -0.52785)
(0.149276 0.567056 -0.495869)
(0.183966 0.697295 -0.609757)
(0.167457 0.619922 -0.545281)
(0.144204 0.54652 -0.478285)
(0.170954 0.643168 -0.562944)
(0.179964 0.681919 -0.59318)
(0.185237 0.683918 -0.59824)
(0.193741 0.738684 -0.637577)
(0.181864 0.685035 -0.596203)
(0.194069 0.737094 -0.639038)
(0.183863 0.701386 -0.606528)
(0.191719 0.731478 -0.633024)
(0.192684 0.735241 -0.638191)
(0.137476 0.536301 -0.460448)
(0.128632 0.510317 -0.431799)
(0.143162 0.528508 -0.450963)
(0.142323 0.545997 -0.475316)
(0.193522 0.733155 -0.632612)
(0.189172 0.719556 -0.623291)
(0.170107 0.638788 -0.559743)
(0.176024 0.666058 -0.580967)
(0.194503 0.736272 -0.636252)
(0.19274 0.730744 -0.634157)
(0.172838 0.617838 -0.53508)
(0.177866 0.671087 -0.575697)
(0.13248 0.519853 -0.446265)
(0.175271 0.665931 -0.576228)
(0.142602 0.527334 -0.45331)
(0.147817 0.579707 -0.502176)
(0.14975 0.543937 -0.464952)
(0.177994 0.677859 -0.584279)
(0.163069 0.607822 -0.534305)
(0.162828 0.611664 -0.533966)
(0.131546 0.509953 -0.437967)
(0.142154 0.552066 -0.480521)
(0.192097 0.735244 -0.635432)
(0.192213 0.738317 -0.634672)
(0.183893 0.686777 -0.590553)
(0.19123 0.734409 -0.633496)
(0.186413 0.720272 -0.619593)
(0.160825 0.585286 -0.513297)
(0.135549 0.513068 -0.438626)
(0.141277 0.532482 -0.459062)
(0.189898 0.722144 -0.624704)
(0.189115 0.723563 -0.625471)
(0.129555 0.523774 -0.445647)
(0.189333 0.728345 -0.629974)
(0.187726 0.718637 -0.618761)
(0.191861 0.737274 -0.634052)
(0.162776 0.620528 -0.547721)
(0.18045 0.696483 -0.599891)
(0.186668 0.71092 -0.613558)
(0.172713 0.646642 -0.560123)
(0.180972 0.699401 -0.606273)
(0.188714 0.718918 -0.628708)
(0.1895 0.722066 -0.631943)
(0.19052 0.725402 -0.633526)
(0.191662 0.731247 -0.637387)
(0.191874 0.732846 -0.637191)
(0.19257 0.733998 -0.637092)
(0.190984 0.730047 -0.63633)
(0.163986 0.622377 -0.543698)
(0.171577 0.664087 -0.57988)
(0.136077 0.52024 -0.448056)
(0.144801 0.540028 -0.464886)
(0.150373 0.55675 -0.475841)
(0.137585 0.521542 -0.450212)
(0.167454 0.620687 -0.535873)
(0.143147 0.511032 -0.455032)
(0.150473 0.564731 -0.494541)
(0.165721 0.639246 -0.552266)
(0.144464 0.539439 -0.470207)
(0.166201 0.634356 -0.548827)
(0.180228 0.697837 -0.604807)
(0.1623 0.641957 -0.55625)
(0.167149 0.667037 -0.581329)
(0.146888 0.531012 -0.467524)
(0.191637 0.721549 -0.62345)
(0.188288 0.714734 -0.620944)
(0.193731 0.735051 -0.635262)
(0.193046 0.734222 -0.636029)
(0.191222 0.7266 -0.631645)
(0.190939 0.724661 -0.629106)
(0.194022 0.735666 -0.637802)
(0.137402 0.503088 -0.458244)
(0.193493 0.732888 -0.63611)
(0.189105 0.715827 -0.622191)
(0.193698 0.737417 -0.638276)
(0.191912 0.727668 -0.633144)
(0.18889 0.711973 -0.61733)
(0.188313 0.703148 -0.611731)
(0.193319 0.73185 -0.634995)
(0.153738 0.593048 -0.515673)
(0.148075 0.552166 -0.491337)
(0.129746 0.520062 -0.460851)
(0.143931 0.53022 -0.46774)
(0.188425 0.713903 -0.619121)
(0.191915 0.720274 -0.625765)
(0.19373 0.733469 -0.635105)
(0.194672 0.733722 -0.63542)
(0.190794 0.718297 -0.624651)
(0.190135 0.711617 -0.622394)
(0.194389 0.734428 -0.635441)
(0.194335 0.736683 -0.639351)
(0.193709 0.72329 -0.627966)
(0.194229 0.737111 -0.63859)
(0.194658 0.732086 -0.634566)
(0.194395 0.735886 -0.637907)
(0.193932 0.735421 -0.637555)
(0.195117 0.732751 -0.636071)
(0.131284 0.516822 -0.443497)
(0.153205 0.559819 -0.492154)
(0.181292 0.687659 -0.597972)
(0.181064 0.686592 -0.593741)
(0.15593 0.593192 -0.510909)
(0.138007 0.539653 -0.465394)
(0.193677 0.734412 -0.636696)
(0.191395 0.727083 -0.629638)
(0.193574 0.736455 -0.636688)
(0.192637 0.733817 -0.636293)
(0.193328 0.7347 -0.637557)
(0.193126 0.733358 -0.637984)
(0.19265 0.735147 -0.636761)
(0.150886 0.559491 -0.486273)
(0.136885 0.540056 -0.461937)
(0.140899 0.530084 -0.465553)
(0.192878 0.724744 -0.628908)
(0.192048 0.72754 -0.632101)
(0.193659 0.735064 -0.63702)
(0.192287 0.731727 -0.635967)
(0.189165 0.711097 -0.617361)
(0.189888 0.713093 -0.621719)
(0.192707 0.732309 -0.636329)
(0.128995 0.512665 -0.44462)
(0.120444 0.477182 -0.415064)
(0.146302 0.531692 -0.460221)
(0.141732 0.532369 -0.464955)
(0.188931 0.717158 -0.621466)
(0.184828 0.702527 -0.61027)
(0.192352 0.732912 -0.633908)
(0.19089 0.72273 -0.626284)
(0.188138 0.712864 -0.620923)
(0.185917 0.711237 -0.61859)
(0.1916 0.727083 -0.631027)
(0.192424 0.731701 -0.634718)
(0.18457 0.700702 -0.610326)
(0.193148 0.734575 -0.635675)
(0.190876 0.720961 -0.624182)
(0.1909 0.719006 -0.625951)
(0.18794 0.7124 -0.619515)
(0.192251 0.728203 -0.630346)
(0.189181 0.722945 -0.629969)
(0.19271 0.735149 -0.638628)
(0.188541 0.722611 -0.629963)
(0.192898 0.733902 -0.638485)
(0.192289 0.735211 -0.637833)
(0.19293 0.736248 -0.63827)
(0.192624 0.733799 -0.638298)
(0.176775 0.678701 -0.582627)
(0.169309 0.653173 -0.565877)
(0.17734 0.685966 -0.588933)
(0.155008 0.573185 -0.4986)
(0.157745 0.589557 -0.502933)
(0.175597 0.666599 -0.569671)
(0.169245 0.61128 -0.531143)
(0.16719 0.613034 -0.526578)
(0.15023 0.56721 -0.484573)
(0.149673 0.555334 -0.475357)
(0.14606 0.534843 -0.464001)
(0.17268 0.653122 -0.565011)
(0.175981 0.664866 -0.5753)
(0.179912 0.676995 -0.587303)
(0.169505 0.644764 -0.557009)
(0.140504 0.511162 -0.445935)
(0.175424 0.672523 -0.583765)
(0.185686 0.705583 -0.615001)
(0.179418 0.669494 -0.582923)
(0.185139 0.704743 -0.614213)
(0.170337 0.633186 -0.558931)
(0.160167 0.614914 -0.54203)
(0.158189 0.607842 -0.532752)
(0.174294 0.667114 -0.584599)
(0.146333 0.546421 -0.466837)
(0.148351 0.552825 -0.479925)
(0.145825 0.545905 -0.474835)
(0.134571 0.491117 -0.43245)
(0.164325 0.618217 -0.5393)
(0.144016 0.563184 -0.482749)
(0.193248 0.737862 -0.634483)
(0.191455 0.738901 -0.636152)
(0.192461 0.736821 -0.63316)
(0.192115 0.734455 -0.633124)
(0.192138 0.732787 -0.631529)
(0.192454 0.730937 -0.630939)
(0.192006 0.736717 -0.633997)
(0.18677 0.711578 -0.612134)
(0.192319 0.73458 -0.632192)
(0.1909 0.728048 -0.62688)
(0.191296 0.735731 -0.632946)
(0.191033 0.735292 -0.63361)
(0.172681 0.66276 -0.574974)
(0.144991 0.556406 -0.473693)
(0.128416 0.498421 -0.434631)
(0.151732 0.555429 -0.481427)
(0.140681 0.514492 -0.452274)
(0.140189 0.522507 -0.448011)
(0.178703 0.683315 -0.598223)
(0.163874 0.627978 -0.547376)
(0.166038 0.62388 -0.539862)
(0.182693 0.71158 -0.61463)
(0.183034 0.710817 -0.614514)
(0.156586 0.590556 -0.51551)
(0.12252 0.456862 -0.397971)
(0.152946 0.583071 -0.519138)
(0.132227 0.509269 -0.441586)
(0.135643 0.53692 -0.474594)
(0.125186 0.496972 -0.446444)
(0.129877 0.475549 -0.41945)
(0.128471 0.495395 -0.434451)
(0.147267 0.515247 -0.443684)
(0.170826 0.670477 -0.582133)
(0.148599 0.537698 -0.47659)
(0.138723 0.527366 -0.462974)
(0.148085 0.55594 -0.47908)
(0.157511 0.592121 -0.519246)
(0.158089 0.581682 -0.511967)
(0.128421 0.49321 -0.433856)
(0.159057 0.617519 -0.537057)
(0.124978 0.477545 -0.40959)
(0.139304 0.53705 -0.469515)
(0.150549 0.569293 -0.501042)
(0.14614 0.548502 -0.477443)
(0.114878 0.437809 -0.386368)
(0.135743 0.499252 -0.431893)
(0.141418 0.531442 -0.462069)
(0.149187 0.539033 -0.476192)
(0.14319 0.560728 -0.489464)
(0.135449 0.503117 -0.439926)
(0.139324 0.50055 -0.432101)
(0.139715 0.527748 -0.454553)
(0.144631 0.562355 -0.492575)
(0.13351 0.501754 -0.439094)
(0.131006 0.523419 -0.459307)
(0.144526 0.530417 -0.463553)
(0.15311 0.567471 -0.48632)
(0.193901 0.736941 -0.637658)
(0.188994 0.718552 -0.62188)
(0.193995 0.736464 -0.638174)
(0.1924 0.72699 -0.628009)
(0.192925 0.734145 -0.635666)
(0.192754 0.732017 -0.632842)
(0.193244 0.732434 -0.635887)
(0.193388 0.732073 -0.636842)
(0.185537 0.68937 -0.597492)
(0.158801 0.591463 -0.516836)
(0.151329 0.561795 -0.483502)
(0.19143 0.726217 -0.630386)
(0.192005 0.724652 -0.632459)
(0.171237 0.637895 -0.558929)
(0.18436 0.697496 -0.603795)
(0.193178 0.726769 -0.630368)
(0.192412 0.725432 -0.629473)
(0.184508 0.699387 -0.604756)
(0.18966 0.713969 -0.624635)
(0.190804 0.720274 -0.627392)
(0.143907 0.514498 -0.444729)
(0.168709 0.662327 -0.577373)
(0.177675 0.66982 -0.585561)
(0.185071 0.687441 -0.599954)
(0.16638 0.630492 -0.550733)
(0.193499 0.734513 -0.636578)
(0.193619 0.733822 -0.637965)
(0.193065 0.732977 -0.63643)
(0.193163 0.735266 -0.636155)
(0.193383 0.735148 -0.635845)
(0.193133 0.733764 -0.634427)
(0.193214 0.735223 -0.636774)
(0.174761 0.665497 -0.579797)
(0.174637 0.657417 -0.572939)
(0.165371 0.639116 -0.561182)
(0.133553 0.515319 -0.446625)
(0.165602 0.642172 -0.561646)
(0.193036 0.734609 -0.637958)
(0.192356 0.732099 -0.635784)
(0.187952 0.713552 -0.621186)
(0.19188 0.727651 -0.634032)
(0.191683 0.732245 -0.637088)
(0.191968 0.731596 -0.635934)
(0.191846 0.730512 -0.635333)
(0.188995 0.717426 -0.62254)
(0.192571 0.726295 -0.632352)
(0.173183 0.66709 -0.582519)
(0.191845 0.731052 -0.634215)
(0.182357 0.694573 -0.60533)
(0.185193 0.70761 -0.615939)
(0.191973 0.725241 -0.62966)
(0.191586 0.729655 -0.632622)
(0.192373 0.733798 -0.637765)
(0.193193 0.730872 -0.635638)
(0.19321 0.732311 -0.637485)
(0.192961 0.735395 -0.637418)
(0.193022 0.734365 -0.637615)
(0.193544 0.73395 -0.636711)
(0.192863 0.734727 -0.637319)
(0.185487 0.7108 -0.619569)
(0.173059 0.667104 -0.581564)
(0.189974 0.725747 -0.628999)
(0.183837 0.701378 -0.614077)
(0.183688 0.706776 -0.615992)
(0.192813 0.726859 -0.630893)
(0.18454 0.707834 -0.610479)