/*--------------------------------*- C++ -*----------------------------------*\
| =========                 |                                                 |
| \\      /  F ield         | OpenFOAM: The Open Source CFD Toolbox           |
|  \\    /   O peration     | Version:  v1612+                                |
|   \\  /    A nd           | Web:      www.OpenFOAM.com                      |
|    \\/     M anipulation  |                                                 |
\*---------------------------------------------------------------------------*/
FoamFile
{
    version     2.0;
    format      ascii;
    class       surfaceScalarField;
    location    "200";
    object      phi;
}
// * * * * * * * * * * * * * * * * * * * * * * * * * * * * * * * * * * * * * //

dimensions      [0 3 -1 0 0 0 0];

internalField   nonuniform List<scalar> 
37231
(
9.2852e-09
-9.87684e-09
1.27113e-08
2.90826e-09
6.10472e-09
4.72146e-10
-9.48513e-09
1.42771e-09
-1.02454e-08
1.1726e-08
1.36779e-09
-1.06967e-08
7.80537e-09
1.52353e-09
8.20624e-09
3.33541e-09
-1.01739e-08
5.118e-09
-1.25124e-08
-1.04216e-08
1.7816e-08
9.06055e-09
4.96431e-09
-9.86906e-09
-4.15579e-09
4.18185e-09
6.24143e-09
-1.36272e-09
4.68369e-09
-4.89434e-09
6.31537e-09
-1.91047e-09
-7.35857e-09
1.17993e-08
-3.83853e-10
-6.45116e-09
3.47766e-09
1.25035e-08
1.02184e-09
-4.20573e-09
1.09892e-08
1.27057e-08
2.80401e-09
5.7981e-09
-8.13e-09
6.65258e-09
-5.75906e-09
-1.41984e-08
1.50124e-08
-5.01976e-09
-2.42782e-09
-1.31643e-10
-6.58261e-09
-5.31702e-09
-1.50759e-08
-1.59537e-08
1.27236e-08
1.8306e-08
1.62675e-09
-1.80568e-08
1.35415e-09
-1.27034e-08
2.0389e-09
1.22912e-08
1.96321e-09
-1.15699e-08
-3.09667e-09
-6.40526e-09
5.58905e-10
7.80955e-09
1.60056e-08
-1.3485e-08
-2.05774e-08
5.64192e-10
-5.1223e-10
-3.829e-09
2.03547e-08
-3.80218e-09
2.2313e-09
1.85003e-09
-1.04866e-08
4.6349e-09
-1.39735e-08
1.1943e-08
-1.14157e-08
3.69559e-11
1.37679e-08
-5.65388e-09
-1.47987e-09
-7.37027e-09
-6.78623e-09
-1.11309e-08
6.50136e-09
-6.41608e-09
8.61981e-10
-5.15896e-09
1.08101e-08
-6.51313e-09
1.08328e-08
-4.7407e-09
-5.23011e-09
-6.23012e-09
4.80135e-09
-4.23442e-09
5.6632e-09
1.61169e-09
-7.3247e-09
-5.17109e-10
4.071e-09
7.38482e-09
-6.23019e-10
2.60857e-10
4.76112e-09
-1.01809e-08
4.36209e-09
3.89665e-09
-7.99788e-09
6.4448e-09
-6.8234e-09
-4.15093e-09
1.15267e-10
8.83701e-09
1.27338e-09
-3.81261e-09
4.18834e-09
-6.75192e-09
-1.52485e-10
1.06408e-10
8.60579e-10
6.19105e-09
-6.06827e-10
4.31567e-09
4.41554e-10
3.44952e-09
6.81252e-09
-4.04759e-09
7.61238e-09
1.15597e-10
7.33127e-09
-4.17184e-09
5.32493e-09
-8.48436e-09
-2.48008e-09
-3.1458e-09
1.29572e-08
9.22402e-09
-9.93295e-10
-6.95733e-09
-5.50094e-09
1.22449e-08
7.5582e-09
2.33084e-09
-1.40609e-08
-6.6425e-09
1.10549e-08
-1.00576e-08
-1.87572e-09
6.4324e-09
-8.41764e-09
-2.63328e-09
-1.13936e-08
-7.63562e-11
3.05231e-09
4.45104e-09
-1.29693e-08
-5.03251e-09
4.04234e-09
1.02754e-08
-1.7646e-10
-6.31853e-10
-8.23654e-10
-4.79972e-09
-5.64323e-10
6.1877e-09
1.09832e-10
3.10887e-09
-4.37597e-09
-6.0021e-10
-1.56497e-09
-6.1664e-09
7.16708e-09
-6.96501e-09
5.50986e-09
-6.2339e-09
3.28188e-10
-2.60677e-10
-4.31703e-09
2.73263e-09
-4.64951e-09
-4.27207e-09
-7.13356e-09
6.6593e-09
-2.46036e-09
-4.17889e-09
-5.34834e-11
4.65374e-09
-4.91884e-09
-5.05191e-09
2.16721e-10
2.81223e-10
1.30794e-09
-1.11211e-08
-5.22597e-09
-4.25093e-09
9.09302e-09
6.5669e-10
-5.78778e-10
-5.30389e-09
-3.99e-09
3.95765e-10
4.18608e-09
-7.64353e-09
4.76539e-09
4.12802e-10
5.34009e-09
-9.93994e-09
-3.00834e-09
7.60818e-09
-1.13748e-08
2.58753e-10
1.64561e-08
-1.43929e-08
-1.28736e-08
1.58917e-08
-2.03262e-08
-4.0067e-09
-8.6624e-09
-1.42418e-08
2.57805e-09
-6.57292e-09
6.29557e-09
-8.38505e-09
-6.08238e-09
3.03745e-09
3.65901e-11
1.25567e-09
8.99334e-09
-3.79266e-09
-6.45636e-09
4.78174e-09
-6.50774e-09
5.63561e-09
-3.90962e-09
-9.76465e-09
1.48051e-08
-1.19611e-08
-8.36304e-09
-1.28923e-09
-1.72448e-08
-1.11399e-09
-5.46404e-09
1.98539e-09
7.33993e-09
-2.73272e-09
-6.59262e-09
1.21305e-08
-2.05445e-10
-9.93964e-09
-5.42283e-09
-1.18794e-08
7.53753e-09
1.99898e-10
-6.0385e-09
7.66568e-09
-2.84007e-09
1.21287e-09
-9.82277e-09
2.49503e-09
-5.65342e-09
1.15737e-08
-5.53462e-09
-3.47075e-09
-2.56831e-09
3.66814e-09
5.37177e-09
2.53382e-09
1.22063e-08
-1.66489e-08
-7.00618e-09
-5.89316e-09
7.36474e-09
-1.18576e-08
2.76661e-09
-1.98357e-09
1.09881e-08
3.55159e-09
-1.25561e-08
4.72019e-09
2.31817e-09
-9.0219e-09
1.78077e-08
3.81701e-09
-1.06366e-08
-1.80515e-08
6.24241e-09
1.28749e-09
1.05216e-08
9.62893e-09
-9.87271e-09
-5.92543e-09
-5.36397e-09
1.51064e-08
7.46854e-09
-8.67378e-09
-9.27742e-09
7.55724e-09
7.9626e-09
1.46233e-09
-1.11083e-09
1.20596e-08
-1.87245e-08
1.7672e-08
-1.10072e-08
5.98468e-09
7.36244e-09
-3.36674e-09
-1.18061e-08
8.71783e-09
-9.76642e-09
1.80365e-08
5.35776e-10
-9.00229e-10
1.63214e-08
7.69977e-09
-1.13063e-08
5.43021e-09
4.66972e-09
1.20638e-09
-5.80196e-09
4.11686e-10
-5.91597e-09
5.41161e-09
-3.74502e-09
5.06927e-09
2.79552e-09
-2.45318e-09
-7.85593e-09
1.19424e-08
-1.35649e-10
-6.25797e-09
-1.22206e-08
-1.47014e-10
1.29034e-08
1.06006e-08
-4.76809e-09
-5.42076e-09
4.17321e-09
3.84583e-09
-8.27082e-09
-9.51896e-10
-3.84674e-09
-3.14164e-10
-2.9528e-09
-8.95214e-10
-2.84929e-09
-1.02327e-09
-6.00789e-10
-2.70617e-09
-3.98987e-09
-1.79097e-09
-2.7182e-09
-2.17573e-09
-1.33893e-09
2.32078e-09
1.67106e-09
-6.85761e-10
-3.3059e-09
-5.17201e-10
6.62264e-10
-1.15511e-10
-5.18289e-09
8.27007e-09
-5.49616e-09
5.59668e-09
-8.37059e-09
8.06698e-09
-4.29083e-10
6.32178e-10
7.53975e-09
-1.8555e-10
7.12785e-10
2.8536e-11
-3.2438e-09
1.0755e-08
5.20218e-09
-7.68997e-10
-9.92936e-09
4.70281e-09
7.02872e-11
-4.62868e-09
-1.94726e-09
6.60448e-09
-5.00637e-09
1.92143e-10
-5.13769e-10
2.1021e-10
5.68261e-09
6.86312e-09
-4.92585e-09
-7.61989e-09
5.03973e-09
1.29115e-10
1.25777e-08
-2.49668e-09
-4.48437e-09
-2.66302e-09
1.19969e-08
2.50569e-09
9.94056e-09
-1.51093e-08
-1.0392e-08
8.59657e-09
6.83516e-09
-4.93468e-09
1.40581e-09
4.76511e-09
-1.046e-08
-6.19145e-09
8.45988e-09
9.15499e-09
1.33023e-08
-1.10927e-08
3.37337e-10
-2.54692e-09
1.63927e-09
4.65469e-10
1.11975e-08
1.03614e-09
-1.14524e-08
-6.76423e-10
1.10698e-08
-1.06997e-08
6.66025e-10
-9.05024e-09
1.62756e-09
9.06196e-09
-7.15793e-09
-1.55499e-09
1.83601e-09
9.69926e-09
-4.20165e-10
-5.68181e-10
-1.0464e-08
-6.78321e-10
-1.04415e-08
7.64836e-09
-6.55557e-10
-7.56099e-09
4.92532e-10
1.46816e-10
5.76338e-09
-6.40272e-09
8.49222e-09
-8.678e-09
-1.15168e-10
6.05608e-10
3.23165e-10
-4.86409e-09
6.16848e-09
-5.76933e-09
7.92851e-09
4.23446e-09
-4.74321e-09
-4.4965e-09
7.21938e-09
1.13916e-09
1.27723e-10
-5.17985e-09
2.00589e-10
1.93774e-10
1.20884e-08
7.94853e-09
-7.49194e-09
-1.2545e-08
-5.00075e-09
5.80895e-09
1.12802e-08
6.17916e-10
2.32986e-09
6.44111e-09
1.12772e-09
-6.95092e-09
5.04476e-09
7.09648e-09
-5.70014e-09
-2.09197e-09
2.61706e-09
-1.16657e-08
1.11406e-08
1.4715e-09
6.67266e-09
-1.02361e-08
1.29628e-09
2.07497e-09
-9.25333e-09
5.88208e-09
-2.11741e-09
-2.6032e-09
7.33769e-09
5.16303e-09
-5.31681e-09
7.29411e-09
-1.3643e-08
-2.56884e-09
6.42606e-09
-6.74234e-09
2.88512e-09
-8.85153e-09
2.65586e-09
4.29097e-09
-4.78484e-09
4.78409e-09
-4.76678e-10
-1.64612e-11
-5.96836e-09
8.40992e-09
1.28154e-09
-1.72295e-10
9.7275e-11
3.23656e-09
-1.85508e-09
4.93587e-10
-1.87505e-09
-2.22025e-09
2.82799e-09
2.62886e-09
2.44101e-09
-1.33045e-09
-2.96561e-09
1.12099e-10
1.08683e-10
-4.88345e-09
3.98381e-09
-5.00001e-11
9.49684e-10
2.55301e-09
-2.61419e-09
3.25705e-09
-3.19585e-09
2.53261e-09
1.32503e-10
-2.10856e-09
-2.2813e-09
1.5321e-09
-5.47674e-09
-3.00218e-09
3.83939e-09
-5.11108e-10
-3.26063e-10
-3.36249e-09
2.89292e-09
-8.04558e-10
6.99127e-10
-5.70489e-09
5.12844e-09
2.02394e-11
6.22671e-09
-5.74529e-09
-5.01677e-10
8.49824e-09
-8.04076e-09
-4.37249e-10
-4.69805e-09
-7.23883e-10
1.56012e-09
3.86179e-09
-7.82985e-09
-7.37438e-09
1.05062e-08
-6.43185e-09
-3.14063e-09
5.9475e-09
3.62497e-09
2.35847e-09
-2.9209e-10
2.36219e-09
5.56159e-09
1.25706e-09
-1.25639e-08
6.83161e-09
-9.31079e-09
1.26629e-08
-1.49359e-08
-1.6212e-09
3.89422e-09
1.66997e-08
-4.26132e-09
2.24524e-10
8.66098e-09
-1.52338e-08
-1.28143e-08
2.4951e-09
1.26776e-08
4.47352e-11
-6.31971e-09
-5.93795e-09
-2.81826e-09
2.21835e-09
-2.70597e-09
-3.98334e-10
-2.31259e-09
-1.07343e-10
-2.46121e-09
-5.03323e-10
-5.02544e-09
2.42095e-09
5.21567e-10
2.08295e-09
-5.72504e-10
-9.6384e-10
-3.4891e-09
-2.2076e-09
2.16734e-09
-2.43333e-09
-1.72597e-10
6.517e-11
1.52512e-09
-4.29624e-09
-3.1065e-09
-3.22447e-09
5.82766e-09
6.05222e-09
-4.80748e-09
-1.81723e-09
3.46729e-09
-1.13541e-09
-2.26177e-09
3.32512e-09
1.10399e-09
-4.85201e-09
4.22922e-10
6.12173e-10
-1.05952e-09
3.77247e-09
-5.09322e-09
1.93392e-09
-5.47475e-10
-3.93356e-09
-2.64007e-09
2.60866e-09
-9.08161e-09
7.31994e-09
2.72152e-09
-9.5987e-10
5.85688e-09
-6.77451e-09
-8.16401e-09
3.44998e-09
-5.85298e-09
3.31159e-09
-9.08605e-10
-4.34732e-09
5.29893e-09
2.49836e-09
-4.03104e-09
5.7428e-09
5.60818e-09
1.81564e-09
1.01956e-11
1.81775e-09
-1.1169e-08
2.57671e-09
1.19677e-08
-8.42487e-10
-6.25441e-09
-4.87083e-09
7.60386e-09
9.66359e-09
-5.29978e-09
6.26486e-09
-8.22094e-09
9.55994e-09
-1.4391e-09
-5.84201e-09
1.42813e-09
-5.51748e-09
-2.68939e-10
-4.01734e-09
3.15499e-10
5.85779e-09
-4.88253e-09
-1.06561e-09
1.39812e-09
9.33106e-09
6.64933e-09
-4.80889e-09
-2.58288e-10
-1.61125e-08
2.52772e-09
5.26302e-09
8.3217e-09
-1.9746e-09
-1.6996e-09
-1.24382e-08
8.70661e-10
6.14113e-09
-9.54461e-10
-6.05733e-09
6.01132e-09
-5.30316e-09
1.62507e-10
9.69532e-09
-1.00901e-08
-1.5798e-09
1.027e-08
-9.9914e-09
-1.97822e-09
1.07217e-08
5.44953e-09
-5.90123e-09
5.78976e-09
7.45967e-09
-1.69294e-08
9.12605e-09
1.30664e-08
5.97226e-09
-1.32064e-08
8.45659e-10
4.86387e-09
3.01785e-10
-5.93542e-09
8.03999e-09
3.68518e-09
3.5976e-10
1.5116e-09
-2.29979e-09
6.92932e-09
-1.01031e-08
1.59331e-08
3.29608e-09
-2.61924e-09
-1.59724e-09
9.97017e-09
-1.04694e-08
2.09645e-09
-5.25806e-09
3.82863e-09
-1.67831e-10
1.53772e-09
-2.73038e-09
1.11628e-08
-1.01956e-09
-1.27989e-08
3.34907e-09
1.09064e-09
-7.36827e-09
-5.33154e-09
-4.01523e-10
7.27077e-09
-1.77335e-09
2.70442e-10
4.37096e-10
1.21552e-08
-1.53227e-08
-3.28673e-09
6.20184e-09
-6.28254e-09
3.36742e-09
-5.05026e-09
-9.8458e-12
-1.87065e-09
7.67096e-09
1.06016e-08
-2.28815e-09
-7.64195e-09
-6.7144e-10
9.16799e-09
-3.02706e-09
-5.54364e-09
-6.98669e-09
4.73548e-09
1.22222e-08
-7.70492e-09
-9.25274e-09
-9.48566e-09
2.04824e-08
-6.26131e-09
-5.58396e-09
1.00007e-08
-1.39024e-08
4.45317e-09
6.86265e-09
-1.68998e-08
-1.34693e-08
1.34114e-08
1.228e-08
1.24595e-08
-5.44638e-09
-1.09077e-08
7.65596e-09
7.77628e-10
8.76201e-09
-2.67701e-09
1.26523e-08
-1.87397e-09
4.92041e-09
-1.02746e-09
8.56655e-09
2.35559e-09
1.59763e-08
7.45583e-09
4.16896e-09
-1.79671e-09
8.81808e-10
9.67689e-09
1.43864e-08
-9.08853e-09
-2.94231e-09
3.34177e-09
-5.63628e-09
5.12559e-09
-2.83109e-09
-6.12863e-09
7.06683e-10
8.76371e-09
-4.45114e-09
-2.12489e-09
4.47349e-10
-1.30148e-09
5.85362e-09
-7.46976e-09
2.9176e-09
-6.83682e-09
1.08418e-09
-2.49674e-09
9.05705e-09
-6.40781e-09
-1.35335e-09
-1.89916e-10
-2.10768e-09
-5.17218e-09
-2.08252e-09
-4.94422e-09
1.0087e-08
4.70046e-09
-4.13593e-09
-1.06515e-08
-4.48636e-09
1.20767e-08
-4.8156e-10
6.95692e-10
-1.11347e-10
4.79581e-09
4.41127e-10
-3.9352e-09
6.22577e-10
3.87539e-09
-2.23506e-09
-3.72285e-09
-2.39916e-09
-1.33249e-10
-3.42686e-09
-2.90751e-09
3.40865e-10
-6.00279e-09
-5.90275e-09
-2.81783e-11
4.38805e-09
-3.94765e-09
-4.12194e-10
5.16242e-09
-4.73145e-09
-4.5914e-10
-9.06438e-09
1.14259e-09
-8.12009e-10
8.73382e-09
-2.3642e-10
-4.9164e-09
-3.91155e-09
5.36076e-10
5.76894e-09
-1.00744e-08
2.40508e-10
-5.90952e-09
-4.40129e-09
-3.91812e-09
-5.72972e-09
4.39209e-09
-1.20674e-09
1.20269e-09
-3.49039e-10
5.27723e-09
-8.91344e-10
-4.46101e-09
5.00333e-09
-9.08791e-09
8.43707e-09
4.0428e-09
-3.00878e-09
-6.94351e-09
-1.44211e-09
-3.603e-09
-2.38443e-09
3.6631e-09
-5.22629e-09
-9.31132e-09
5.85556e-09
-3.63455e-09
1.87832e-10
8.06741e-09
1.38462e-08
-5.83854e-09
-1.60751e-08
1.67006e-08
-7.52742e-10
-7.88048e-09
-6.29564e-09
1.51285e-08
7.86775e-09
2.20615e-08
4.19386e-09
-1.24092e-08
1.14875e-08
4.2784e-09
-7.19737e-09
1.28974e-08
-6.45274e-09
-1.22162e-08
1.28513e-08
1.08524e-08
-4.30302e-09
-3.71927e-09
2.83845e-09
6.48342e-09
-1.51604e-08
8.25968e-09
-1.26186e-08
-1.07892e-08
-2.38963e-09
5.84499e-09
7.33386e-09
7.90986e-09
-5.80165e-09
4.27652e-09
8.46239e-09
-1.98606e-09
-4.01112e-09
1.42569e-08
1.13529e-08
-6.85547e-09
-1.88749e-08
5.97215e-09
1.87478e-08
-2.20803e-09
-8.75704e-09
-1.69024e-08
-9.56521e-10
2.38311e-08
-3.7543e-09
2.63562e-09
-1.57837e-08
4.06999e-09
1.30578e-08
1.19284e-08
-4.8786e-09
9.43392e-09
-1.25977e-09
1.25474e-08
-1.88048e-09
6.75294e-09
4.39635e-09
4.69746e-09
4.72605e-09
5.66513e-09
1.36863e-08
-1.55666e-09
-1.32591e-10
7.3544e-09
-6.06008e-09
4.53202e-10
4.05019e-09
7.12714e-09
-1.57213e-09
1.03768e-08
6.36674e-09
9.17582e-09
-1.33305e-08
-2.21208e-09
-6.79186e-09
5.0286e-09
1.98857e-09
1.4282e-09
-1.28275e-08
6.00237e-09
3.32922e-11
5.72335e-09
-6.40076e-09
-1.26531e-08
-5.63324e-09
-1.47093e-09
-9.33863e-09
3.96863e-09
-6.70491e-09
3.22215e-09
6.58797e-09
1.01892e-08
-2.31779e-08
1.07288e-08
-9.77407e-09
-1.26406e-08
4.45415e-09
4.84725e-09
3.33918e-09
1.47846e-08
-1.7236e-08
9.90014e-09
8.39043e-09
-4.36653e-09
2.99225e-09
2.85551e-09
-4.12987e-09
-3.31571e-09
4.59009e-09
7.66013e-09
-1.4578e-09
1.67335e-09
-7.87568e-09
5.30665e-09
3.04889e-09
-6.95407e-10
-6.49576e-11
-6.18006e-09
4.78721e-09
-2.29786e-09
4.00071e-09
2.44348e-09
-4.1463e-09
6.99911e-10
-1.42237e-10
-9.63544e-10
-1.44139e-11
-2.88805e-09
3.86602e-09
-5.4102e-10
-4.5524e-09
5.72038e-09
-4.06145e-09
2.3782e-09
-2.98417e-09
-2.74157e-09
2.86403e-09
2.69224e-09
-2.81469e-09
-7.39381e-10
-1.96299e-09
-3.9195e-11
1.51657e-10
7.05115e-10
3.14395e-09
8.58746e-10
3.73623e-09
1.12541e-09
4.16483e-09
2.00058e-09
5.44477e-09
1.42057e-09
-3.1291e-09
5.94292e-10
5.00213e-09
-1.73341e-09
2.46794e-09
-3.46108e-11
-9.45816e-11
5.40632e-10
2.63244e-09
1.07066e-10
4.65205e-09
3.51173e-09
1.13321e-08
-5.8367e-09
1.04541e-08
-1.59496e-08
1.34433e-09
3.24802e-10
9.66297e-09
1.95861e-09
4.15118e-09
-1.19465e-08
3.58115e-09
5.35022e-09
-6.97276e-09
1.70016e-09
-1.97833e-09
1.07323e-08
1.68998e-09
6.2317e-09
-3.77053e-09
5.79117e-09
-5.20034e-10
7.12628e-09
-7.59069e-11
9.70255e-09
1.30394e-10
-2.70667e-09
3.5746e-09
5.0376e-09
1.09036e-09
6.61196e-09
9.64071e-10
9.76591e-09
-2.88825e-10
-2.86512e-09
4.31672e-09
-1.7584e-09
7.2076e-09
1.15236e-08
-8.23781e-09
-1.80828e-09
7.72985e-09
1.00704e-08
-4.40184e-10
-1.20245e-08
2.39426e-09
1.53701e-08
1.26195e-08
-6.80947e-09
-2.11802e-08
-1.40136e-08
-7.17334e-09
1.45593e-08
6.6277e-09
-2.91236e-09
4.26895e-09
-1.12152e-08
6.11745e-09
-8.76136e-09
1.38591e-08
-1.10854e-08
9.94068e-09
1.1437e-08
-1.54965e-08
3.61934e-09
-3.16322e-09
2.07177e-08
5.78587e-09
1.23538e-08
-6.87361e-09
-1.12661e-08
-4.15038e-09
-7.18862e-09
1.27736e-09
1.00617e-08
8.2185e-09
-2.77231e-09
1.49216e-08
-9.17232e-10
1.29475e-09
1.43549e-08
-1.09035e-09
1.58533e-08
3.63001e-10
-1.93082e-09
-1.4022e-08
4.56232e-10
1.51917e-08
-1.26922e-09
-5.92818e-09
-8.99854e-09
6.16535e-09
-2.086e-08
3.84643e-09
-1.12447e-08
2.32732e-08
9.86064e-10
-2.65417e-09
1.18658e-08
-1.14393e-09
-9.73576e-09
1.86963e-09
-1.36445e-08
-9.08519e-09
-4.68513e-09
-2.44377e-09
-7.64546e-09
1.07557e-08
-1.38032e-08
-1.13517e-08
-9.78875e-10
-2.09876e-08
2.23878e-09
1.5352e-08
3.39683e-09
-1.21591e-11
-3.74976e-09
-1.72257e-08
-1.75355e-08
1.44426e-08
5.33159e-09
-2.71491e-09
-1.48327e-08
-3.3026e-10
-3.53783e-09
1.83107e-08
7.48528e-09
1.49326e-08
-1.71478e-08
-5.27009e-09
1.65614e-08
-1.33496e-08
4.27346e-09
1.4576e-08
-8.86111e-09
9.63713e-09
-3.91004e-09
1.81558e-08
2.27936e-09
1.82145e-09
1.08319e-08
1.53029e-08
2.53693e-09
1.48525e-09
-2.117e-08
-1.35276e-08
-4.30775e-09
1.43142e-08
-1.37562e-08
1.60422e-08
-1.88647e-08
2.63122e-09
2.8219e-09
1.34211e-08
5.25225e-09
1.13325e-08
-1.41701e-08
2.32835e-08
-1.4907e-08
5.79378e-09
-8.72653e-09
5.3266e-09
-1.07701e-08
1.54033e-08
1.06534e-09
-7.4815e-09
-8.98714e-09
-9.3459e-10
1.15833e-08
4.75461e-09
-1.36035e-08
3.9424e-09
5.37066e-09
-1.04029e-08
-1.0825e-08
1.58573e-08
-4.68797e-09
-3.54484e-09
-1.54921e-08
1.78969e-08
9.17849e-09
1.75956e-08
-6.83037e-09
-9.69988e-09
5.50027e-09
6.51546e-09
-5.02955e-10
-1.64154e-08
-5.65401e-09
-7.74849e-09
-1.63076e-08
-2.20076e-08
-3.38246e-09
3.87972e-09
-6.98011e-09
6.48286e-09
-7.14812e-09
3.70905e-09
5.66052e-11
2.9486e-09
-7.59064e-09
-2.50607e-09
-7.41211e-09
8.0011e-09
-1.48578e-09
8.96814e-10
3.49272e-09
-4.21298e-09
1.19872e-08
-1.12669e-08
-2.7298e-10
7.87118e-09
-4.10549e-09
-1.11054e-08
-5.19633e-10
-6.2404e-09
6.15181e-09
3.79765e-09
-3.56478e-09
-2.47165e-09
8.00452e-09
2.46823e-09
6.95564e-10
8.81996e-09
2.22595e-09
6.3408e-09
6.80606e-09
1.57169e-09
-8.96453e-09
7.33541e-09
1.43416e-09
1.94967e-10
7.40267e-09
-1.12352e-08
-5.13197e-09
-2.08114e-10
-4.09659e-09
-4.70935e-09
9.01406e-09
-1.74943e-09
-1.85003e-09
1.10021e-08
1.11688e-08
-5.27135e-09
-6.10554e-09
4.44948e-09
6.20065e-09
5.18641e-10
-5.9738e-09
-9.35803e-09
2.57317e-09
6.7391e-09
-4.8628e-09
-2.17491e-09
1.15681e-08
-6.82e-09
-9.26789e-09
1.29382e-08
-5.84524e-09
-2.5164e-09
-8.50092e-09
-4.86361e-09
1.04759e-08
-1.08836e-08
-1.74511e-08
2.25022e-09
1.03373e-08
3.24418e-09
-4.41574e-09
1.16475e-08
-1.35281e-08
-6.37092e-10
1.74094e-08
-1.15788e-08
-6.93208e-11
7.64492e-10
-1.52146e-08
-1.38153e-08
-1.12909e-08
7.56735e-09
-2.21013e-09
-9.8077e-10
1.13232e-08
-6.07977e-09
-1.17404e-08
6.49692e-09
1.20038e-08
-1.33404e-09
6.53442e-10
1.23534e-08
-7.65168e-09
-2.64307e-09
-2.05861e-09
1.14522e-09
1.12564e-08
-4.82897e-11
5.78066e-09
-1.15768e-08
-2.8362e-10
-1.22007e-08
1.37866e-08
-9.23755e-09
-1.33159e-09
-2.80061e-09
-9.35887e-09
5.1022e-09
1.00373e-08
8.5093e-09
-8.14224e-09
-3.01013e-09
8.43077e-09
1.22375e-09
-1.07514e-09
-8.18623e-09
1.11913e-09
-1.01407e-08
-2.93353e-10
-3.81692e-09
-9.09148e-09
2.1322e-09
-1.21813e-08
1.86286e-09
-1.18254e-08
-1.12571e-08
1.91445e-08
-1.07385e-08
2.85109e-09
1.07063e-08
-1.30788e-08
-8.8847e-09
-1.48663e-09
1.65095e-08
4.12167e-09
8.28338e-09
9.36339e-10
-1.23532e-08
9.84358e-09
-8.22885e-09
-2.14848e-09
-2.02908e-09
8.67893e-09
9.85965e-09
2.22861e-09
-1.03147e-08
9.7798e-09
-1.69369e-09
-2.95662e-09
7.06588e-09
-1.88063e-09
3.69236e-09
4.12215e-09
-1.08512e-08
1.65735e-08
-3.85805e-09
1.29026e-09
-1.38141e-08
4.0217e-10
3.25915e-10
1.3086e-08
-1.07777e-08
-1.3174e-08
1.01377e-08
-1.27757e-08
-7.88518e-09
1.03462e-08
-1.24965e-08
1.2297e-10
1.2875e-08
-1.10478e-08
-1.43238e-08
1.13177e-09
-2.39739e-08
-1.59566e-09
-6.87112e-09
2.4768e-09
5.98998e-09
-8.71624e-09
1.32832e-09
5.79225e-09
4.47319e-09
8.17375e-09
-7.74293e-09
-4.90401e-09
-1.78118e-09
6.29747e-09
-4.31072e-11
1.89165e-09
-8.22782e-09
-2.38008e-09
-4.9002e-09
-7.92686e-11
-6.53068e-09
-1.50702e-10
-5.60702e-09
5.58092e-10
7.52572e-09
-5.48218e-09
6.17263e-09
8.75191e-10
1.81638e-09
3.38472e-09
7.12391e-10
-1.184e-08
3.60973e-09
-6.75569e-09
4.75626e-09
-1.42059e-08
1.0778e-08
-9.05956e-09
1.43739e-08
4.63378e-09
9.7861e-09
-1.37075e-08
1.53424e-08
-1.40388e-08
3.33018e-09
-4.65789e-09
3.9797e-11
-1.21615e-08
3.97712e-09
5.9015e-09
1.3027e-08
-3.58616e-09
3.52612e-09
7.64837e-09
-8.82728e-09
-6.80497e-09
4.76199e-09
8.73946e-09
-6.69649e-09
-1.53698e-08
5.118e-09
3.44686e-09
1.10308e-09
-4.24854e-09
8.65533e-09
1.15232e-08
-7.0258e-09
-3.39431e-09
-6.39979e-09
-6.10953e-09
-2.43446e-10
1.27528e-08
2.56659e-10
-1.89448e-09
5.01879e-09
1.46887e-08
-8.18432e-09
-5.43737e-09
8.06729e-09
3.74252e-10
-2.32962e-10
-4.52086e-09
9.29621e-09
5.20739e-09
-8.79501e-09
-1.22403e-09
9.9406e-10
6.46875e-09
9.32052e-11
7.23859e-10
-5.95571e-09
6.76611e-09
2.40558e-09
-3.21599e-09
7.40434e-09
-4.50104e-09
-7.25588e-09
8.46284e-09
5.55914e-09
5.14114e-10
-3.65652e-10
9.18867e-09
-6.04541e-09
4.72628e-09
1.00315e-08
-3.28709e-10
1.77338e-09
-5.6669e-09
1.38723e-08
-4.79017e-09
8.96912e-09
9.80508e-10
1.41301e-08
-3.53173e-09
-5.87207e-09
3.68669e-09
-4.94939e-10
1.09383e-08
2.87022e-09
1.0848e-08
8.05645e-09
-1.27428e-08
1.58925e-08
-1.13678e-08
1.16233e-08
3.77429e-09
1.21416e-08
-8.08598e-10
-1.94015e-08
-4.76499e-09
5.20234e-09
1.89641e-08
-9.08221e-09
-1.15106e-09
-9.16825e-09
-9.45031e-09
3.51037e-10
4.33421e-09
-4.63656e-09
-1.3896e-08
-8.30868e-10
6.08552e-09
4.96601e-09
-1.02207e-08
1.03395e-08
-5.51274e-09
-5.97787e-09
-8.56566e-09
5.32947e-09
3.5872e-09
-7.14879e-09
-4.37756e-09
2.96068e-09
-1.52343e-08
3.44896e-09
-2.75829e-09
-8.71832e-09
1.66789e-08
-4.94187e-09
-7.98324e-09
-2.29907e-09
1.52242e-08
-1.82396e-09
-8.3844e-09
5.2665e-09
9.72899e-09
-6.36242e-09
4.94944e-10
-3.86148e-09
-1.12283e-08
1.2974e-08
-4.15785e-09
-7.6522e-09
9.51098e-09
-7.61518e-09
1.63336e-09
1.08015e-08
-3.39599e-09
1.91669e-09
-2.34351e-09
-4.99125e-09
-2.89821e-09
-6.28296e-09
5.4745e-10
1.79498e-09
-5.03128e-10
-7.57481e-09
-8.26735e-09
2.44715e-09
2.23357e-09
-2.81599e-09
-4.40883e-09
1.01798e-11
-6.04397e-09
7.826e-09
-2.43729e-10
-1.20783e-08
4.49605e-09
9.29139e-09
5.4828e-09
-9.63837e-09
-5.13581e-09
7.77366e-09
-3.55364e-09
-8.24829e-09
4.02826e-09
-1.05917e-09
7.52566e-09
9.8401e-10
-7.4505e-09
6.62668e-09
8.78096e-11
-1.07795e-08
1.33212e-08
1.11303e-09
-3.65467e-09
8.71583e-09
-1.16693e-08
-7.35496e-09
7.99462e-09
6.886e-09
-9.48916e-10
2.20634e-10
5.77473e-09
-9.5721e-09
-1.14304e-08
1.1103e-08
1.36486e-08
1.46101e-09
-4.17559e-09
8.20089e-10
-1.12635e-09
9.59765e-09
-1.1597e-09
9.97441e-09
4.72243e-09
7.50434e-09
-6.45203e-09
9.83249e-09
-3.64905e-09
1.07029e-09
8.90638e-09
-9.54116e-09
9.45176e-09
-6.39751e-09
6.68884e-09
1.57902e-10
1.17003e-09
-2.51225e-09
-4.20544e-09
5.54762e-09
-5.71923e-09
1.18431e-08
-4.95387e-09
-9.77258e-09
1.54108e-09
9.68648e-10
-1.17669e-08
4.26192e-09
6.53634e-09
-8.69539e-09
5.73964e-09
3.92439e-09
-1.30907e-08
-7.37162e-09
-6.12633e-09
-7.03859e-09
3.39233e-09
-8.67263e-09
9.40316e-09
-6.85685e-09
-7.63795e-09
7.69442e-09
-9.42711e-09
-5.24943e-09
-9.98888e-09
-1.2425e-09
-1.46023e-10
1.13774e-08
-9.15548e-09
7.25547e-10
-1.55894e-09
-1.50274e-09
-9.47744e-09
1.82469e-09
-6.47198e-09
4.95399e-09
1.5239e-11
1.02038e-08
-6.59586e-10
-8.81866e-09
-1.97382e-09
1.09351e-08
-2.5664e-09
2.4693e-09
-6.37489e-09
4.96919e-11
-1.20935e-08
-6.93437e-09
-8.75555e-10
7.66391e-09
-2.27427e-09
2.9389e-10
-4.78793e-09
-1.24662e-08
1.16906e-08
5.5635e-09
-7.10426e-09
4.2067e-11
-1.23513e-09
1.25611e-08
-1.32998e-08
1.82728e-09
-9.17919e-09
7.40159e-09
3.1861e-09
-6.83038e-09
5.47152e-09
2.04638e-09
-6.68132e-09
-1.05164e-09
-9.36815e-09
-7.53879e-10
1.15689e-08
-1.48354e-08
1.28464e-08
-1.2701e-08
7.33073e-09
-5.79268e-09
-8.6407e-09
7.10265e-09
-3.11507e-09
-1.05648e-09
1.15023e-08
-1.04087e-08
1.25177e-10
1.92044e-09
-1.22009e-08
-1.54526e-08
-4.79837e-09
-6.37802e-09
4.55261e-09
-2.97297e-09
-7.66401e-09
8.03806e-09
-3.48912e-09
1.13529e-10
-1.35702e-08
-2.19101e-08
1.7852e-09
3.69297e-09
-3.82639e-09
2.85566e-09
-2.72233e-09
6.32016e-09
-6.68827e-09
4.3538e-09
-3.98573e-09
-1.1102e-10
4.48751e-09
-1.03134e-10
-4.27333e-09
6.56427e-09
-3.5514e-10
-5.13971e-09
-3.06365e-09
7.91728e-10
7.41161e-09
-5.48688e-09
-3.09302e-11
3.78094e-10
3.10659e-11
-1.82498e-09
5.50534e-10
2.79161e-09
-6.40587e-09
-3.51388e-09
1.60919e-09
6.39218e-09
3.60094e-09
-3.16837e-09
5.5693e-09
-3.52308e-09
3.23775e-10
-1.00956e-09
-2.48245e-09
-7.50026e-10
-8.6046e-09
-1.73395e-09
1.10885e-08
-1.18015e-08
1.11133e-08
9.51514e-09
-8.82698e-09
2.24924e-09
-8.61261e-09
-5.43808e-09
-5.88488e-09
-1.00467e-08
1.17264e-08
4.20524e-09
-1.0398e-08
4.50733e-09
5.75748e-12
7.99739e-10
3.9989e-10
8.20935e-09
-9.409e-09
1.49818e-09
1.00367e-08
-1.07351e-08
-1.92392e-09
-1.37585e-09
-1.17352e-08
1.5035e-08
-1.03472e-08
-1.62338e-09
-1.12314e-08
-9.51376e-09
1.87249e-10
1.24242e-08
9.93559e-09
-5.60399e-10
-7.12594e-09
-1.02674e-08
1.06772e-08
9.52577e-09
1.99747e-09
1.01288e-08
4.32096e-09
-1.34888e-08
-2.06363e-09
-8.52621e-09
-2.23291e-09
4.91697e-10
-2.56825e-09
-6.51837e-09
-1.01757e-08
1.93444e-09
1.02387e-08
-6.11312e-09
4.4475e-10
8.61354e-09
-6.86083e-09
2.67503e-10
9.07143e-09
4.96657e-09
-3.15402e-09
-1.0884e-08
1.48849e-08
2.11968e-09
-7.93315e-09
8.36434e-09
-8.43291e-09
9.84836e-09
-1.05197e-10
-1.31763e-08
1.36073e-08
1.29918e-08
-2.34106e-09
1.5672e-08
-2.33421e-09
5.47931e-09
9.19494e-09
-1.23401e-08
5.99429e-09
-1.14825e-08
-1.27052e-10
2.04038e-09
1.0022e-08
5.09391e-10
2.46034e-09
-8.41158e-09
1.15498e-08
1.48341e-09
-1.26018e-08
-6.04043e-10
2.28821e-09
1.09177e-08
-9.57793e-12
-1.07107e-08
-1.88158e-09
1.01445e-08
-1.43179e-09
-8.72229e-09
8.29465e-09
1.24581e-09
-1.3043e-08
-6.13973e-09
1.70625e-08
2.12025e-09
-7.42277e-09
2.6744e-09
-1.24547e-08
-1.34106e-09
-1.19999e-08
-7.87761e-09
1.14629e-09
-1.42299e-08
1.20699e-08
1.01379e-09
-1.22854e-08
-1.39058e-08
6.14287e-09
2.33745e-09
3.49596e-09
-3.84568e-09
-1.98771e-09
2.91071e-09
-5.46857e-10
-2.63925e-11
5.94072e-09
-8.13077e-10
-1.63167e-09
6.11852e-09
2.73291e-09
1.623e-10
-2.06134e-09
-3.23091e-09
5.13002e-09
-1.98464e-09
-4.14163e-09
6.2888e-09
-4.47902e-09
-1.6847e-09
4.10253e-09
-2.58661e-09
-4.32945e-09
2.43705e-09
1.1137e-09
-3.57065e-09
-1.29619e-10
-5.76401e-09
2.09502e-09
-7.64366e-09
-8.14868e-09
1.00284e-08
-9.6299e-10
-2.05128e-09
3.53979e-09
-5.2549e-10
2.17434e-09
-2.68232e-09
-3.88407e-11
-6.16526e-09
8.14216e-09
-4.49587e-09
-2.48246e-09
5.7132e-11
1.98575e-09
-4.45622e-09
-1.10016e-09
1.00464e-09
-3.3483e-09
-1.35547e-09
-5.28354e-09
-2.17559e-09
-7.32855e-09
-1.41132e-09
-5.26012e-09
-5.49966e-09
2.42686e-10
3.31349e-09
7.10393e-10
-1.43937e-08
1.03698e-08
1.41171e-09
-1.10466e-08
1.29484e-08
-1.07249e-08
8.99472e-09
-6.76957e-09
8.49974e-09
4.0511e-09
-1.11573e-08
-3.61873e-09
2.45802e-09
7.24709e-09
-5.31216e-09
9.18187e-09
-8.75793e-09
-1.58471e-09
7.41924e-09
-6.84993e-09
-1.17266e-08
4.0401e-10
2.45666e-10
-8.55921e-09
-8.93629e-09
6.44891e-09
-5.82219e-09
-1.1495e-08
5.49212e-09
-5.27836e-09
1.90246e-10
-6.28135e-09
6.46131e-09
7.54034e-10
1.80798e-09
-1.14983e-08
2.31863e-09
-1.12249e-08
2.05636e-09
6.46539e-09
2.74741e-09
-6.89417e-09
9.00107e-10
2.86924e-10
-7.44101e-09
1.9137e-09
7.80406e-09
-5.36046e-09
3.03803e-10
1.26316e-09
3.45569e-09
-2.34722e-09
-5.68415e-09
8.74547e-10
-3.897e-09
-5.12707e-09
-5.64482e-09
-1.25135e-09
-1.21398e-08
8.26412e-09
1.48491e-08
-6.89441e-09
-4.08521e-09
-3.86953e-09
-7.07998e-09
4.27161e-09
-7.87018e-09
-1.88889e-09
-3.66432e-09
-1.30936e-10
-3.89024e-09
-3.17219e-09
-5.47344e-09
-3.05703e-10
7.44408e-09
-5.53406e-09
-8.80445e-09
-5.20403e-09
5.0827e-10
-9.36117e-09
-6.57907e-10
-6.74901e-09
-6.69737e-09
-5.64654e-09
2.90687e-10
1.57058e-10
-5.9818e-09
-6.04764e-11
-6.39784e-09
-7.62792e-09
-3.30613e-09
5.73001e-09
-1.23594e-08
-4.07301e-09
-4.88003e-10
-4.92919e-09
5.35672e-09
4.31922e-09
-4.65017e-09
-3.303e-09
-3.12148e-09
6.93275e-09
-4.23336e-09
-4.73214e-09
5.6625e-09
-3.72647e-09
3.81231e-09
2.05899e-09
1.66948e-09
-1.9435e-09
-1.78499e-09
3.64242e-09
-1.56963e-09
-1.37835e-11
-3.96291e-09
-2.10676e-09
2.61883e-09
3.45085e-09
-1.57437e-09
-2.60877e-09
2.20245e-10
-1.86953e-09
2.24843e-09
3.26351e-09
-1.96841e-10
-3.20857e-12
-3.04015e-09
-1.03816e-10
8.20098e-09
-7.65912e-09
-3.15066e-09
1.7859e-09
4.30831e-09
2.85437e-10
4.58182e-09
-4.67422e-09
5.06773e-10
4.5062e-09
-3.38745e-10
1.34757e-09
-4.90328e-09
-4.1034e-09
4.27383e-09
-9.16629e-10
-6.04697e-09
2.68977e-09
4.4355e-09
6.35857e-10
-7.97502e-10
8.07132e-09
-2.28825e-09
2.98235e-09
6.87486e-09
6.22054e-09
-2.95276e-09
-5.49747e-09
2.63735e-09
1.46821e-09
5.14652e-09
7.79382e-09
-1.44085e-08
4.32673e-09
6.21996e-09
-9.07849e-09
1.36005e-08
-1.17367e-08
1.37695e-08
-1.56333e-08
-5.29577e-10
2.44583e-09
1.16842e-08
2.03371e-11
9.1885e-09
-4.88211e-09
-6.56979e-09
1.42867e-09
-1.83006e-09
1.41708e-08
1.69408e-09
1.03908e-08
-4.29109e-09
8.43739e-09
-5.2335e-10
1.25756e-08
-1.1081e-08
-6.59052e-11
1.15262e-09
2.2159e-08
-1.07361e-08
9.14516e-09
7.16074e-10
9.75691e-09
1.78433e-09
-2.39611e-09
2.21457e-08
-1.12362e-08
6.17206e-10
-2.50977e-09
-8.9281e-09
-1.62739e-09
1.11727e-08
-1.29281e-08
1.24374e-08
3.4039e-09
-5.91212e-09
6.59221e-09
-4.08399e-09
-1.83803e-09
5.57909e-09
-3.37147e-10
-1.26948e-08
-7.07507e-09
5.30636e-09
1.44635e-08
-9.94588e-09
8.52048e-10
-5.94214e-10
4.51335e-09
3.57079e-10
-4.2762e-09
-3.46912e-11
-6.47163e-09
1.18254e-09
-4.42932e-09
4.53584e-09
-1.28904e-09
-3.18518e-09
4.63749e-09
-2.6977e-10
-5.09851e-10
-4.93709e-09
5.17431e-09
5.34186e-09
6.56485e-10
9.98636e-10
-7.80761e-09
1.38903e-09
-7.98665e-09
-9.76684e-09
-7.26409e-10
-2.1587e-09
8.19148e-09
-4.17537e-09
4.36918e-10
7.74576e-10
3.32434e-09
1.24703e-09
3.82739e-09
5.69494e-09
5.00806e-09
-8.37648e-09
1.50881e-09
4.09521e-09
-5.47683e-09
-1.27164e-10
-4.00758e-09
8.48615e-10
4.6678e-09
3.96927e-10
-1.09405e-09
-3.31044e-09
-4.52956e-09
6.12918e-09
-3.08648e-09
-1.37785e-09
6.85539e-09
-2.39099e-09
-2.76685e-09
-4.87744e-09
4.55783e-09
8.85573e-10
-9.76932e-09
6.11693e-09
3.43165e-09
-1.08169e-08
-4.366e-09
-5.81782e-10
7.03705e-11
-3.36695e-09
2.23168e-09
-3.21319e-10
3.79598e-09
-4.70218e-09
1.57381e-09
-7.38736e-09
-3.29276e-09
-4.90275e-09
-3.86277e-09
2.0813e-09
-6.64869e-09
4.73785e-09
-1.70461e-10
7.72233e-09
-5.56734e-09
-7.36817e-11
1.18547e-09
5.25048e-09
-6.05968e-09
-3.76249e-10
6.79409e-09
-5.41078e-09
-1.97839e-10
-1.09062e-09
7.07646e-09
-6.32051e-09
3.34658e-10
-6.65945e-09
5.32874e-09
2.40083e-10
-2.58397e-09
-6.13069e-10
-1.54819e-10
1.62815e-09
5.08488e-09
-6.56233e-09
-1.50697e-10
-4.15278e-09
3.80792e-12
-1.24502e-09
-2.98954e-09
-2.16709e-10
3.10881e-09
-3.98728e-09
-3.66556e-10
3.139e-09
5.00027e-09
-8.40102e-09
2.61746e-10
8.53853e-09
-6.00985e-09
6.1032e-10
-1.7417e-09
8.70375e-09
-6.70743e-09
-2.54619e-10
6.94567e-09
-8.23819e-09
-4.49189e-10
4.98041e-09
3.72139e-10
-5.36382e-11
3.00411e-09
2.88829e-09
-5.77716e-09
-1.15254e-10
7.60649e-09
3.78032e-10