/*--------------------------------*- C++ -*----------------------------------*\
| =========                 |                                                 |
| \\      /  F ield         | OpenFOAM: The Open Source CFD Toolbox           |
|  \\    /   O peration     | Version:  v1612+                                |
|   \\  /    A nd           | Web:      www.OpenFOAM.com                      |
|    \\/     M anipulation  |                                                 |
\*---------------------------------------------------------------------------*/
FoamFile
{
    version     2.0;
    format      ascii;
    class       volVectorField;
    location    "200";
    object      U;
}
// * * * * * * * * * * * * * * * * * * * * * * * * * * * * * * * * * * * * * //

dimensions      [0 1 -1 0 0 0 0];

internalField   nonuniform List<vector> 
16925
(
(0.186017 -0.263514 -1.0289)
(0.285921 -0.403248 -0.91106)
(0.274784 -0.388472 -0.903047)
(0.255791 -0.379224 -0.877607)
(0.269493 -0.398345 -0.905199)
(0.290161 -0.419081 -0.830043)
(0.306528 -0.429885 -0.830249)
(0.302733 -0.429976 -0.847213)
(0.293713 -0.411612 -0.881304)
(0.26401 -0.38376 -0.874709)
(0.299921 -0.421603 -0.875016)
(0.304636 -0.425554 -0.861683)
(0.275584 -0.401177 -0.876389)
(0.285839 -0.412628 -0.889739)
(0.276432 -0.395622 -0.890788)
(0.264442 -0.383942 -0.893378)
(0.274354 -0.408429 -0.860957)
(0.272063 -0.399393 -0.865952)
(0.29135 -0.41828 -0.879247)
(0.302572 -0.42083 -0.877765)
(0.183764 -0.213752 -0.82073)
(0.188142 -0.213111 -0.821744)
(0.19429 -0.242543 -0.880049)
(0.1974 -0.242021 -0.898743)
(0.201701 -0.249507 -0.906735)
(0.184585 -0.200491 -0.828967)
(0.187483 -0.214765 -0.83191)
(0.193338 -0.232643 -0.8458)
(0.200857 -0.24015 -0.92221)
(0.194885 -0.214271 -0.883136)
(0.218215 -0.242157 -0.926364)
(0.218295 -0.253581 -0.910444)
(0.205695 -0.224443 -0.889178)
(0.218635 -0.236692 -0.930169)
(0.212704 -0.229801 -0.920991)
(0.266652 -0.4842 -0.931864)
(0.266497 -0.492971 -0.930846)
(0.247867 -0.50163 -0.87306)
(0.254778 -0.50813 -0.899355)
(0.263352 -0.490698 -0.932899)
(0.2514 -0.498535 -0.921538)
(0.248358 -0.488566 -0.902774)
(0.251052 -0.483087 -0.913671)
(0.256242 -0.504121 -0.904336)
(0.266233 -0.506901 -0.928372)
(0.248149 -0.494613 -0.886279)
(0.23574 -0.487484 -0.840582)
(0.257393 -0.498586 -0.887932)
(0.253181 -0.492527 -0.893873)
(0.265682 -0.503785 -0.916569)
(0.248205 -0.500568 -0.893103)
(0.228639 -0.485444 -0.851047)
(0.264406 -0.481803 -0.928555)
(0.26411 -0.48074 -0.914228)
(0.270767 -0.508986 -0.942668)
(0.274159 -0.501111 -0.930212)
(0.257055 -0.446679 -0.882101)
(0.264551 -0.460095 -0.880997)
(0.269236 -0.481971 -0.907445)
(0.274283 -0.494482 -0.925837)
(0.275087 -0.466802 -0.915756)
(0.25547 -0.449074 -0.865181)
(0.182266 -0.266484 -1.00542)
(0.170655 -0.278172 -0.957218)
(0.175121 -0.271732 -0.989888)
(0.181366 -0.269069 -1.00584)
(0.166402 -0.257286 -0.973713)
(0.186582 -0.261351 -1.04216)
(0.188469 -0.252919 -1.01972)
(0.186643 -0.255645 -1.04309)
(0.176056 -0.242674 -1.05442)
(0.181611 -0.257494 -1.02502)
(0.185883 -0.238644 -1.03543)
(0.176978 -0.216963 -1.06755)
(0.183157 -0.239065 -1.03341)
(0.169686 -0.252082 -1.03672)
(0.301877 -0.41387 -0.823372)
(0.300177 -0.42526 -0.777367)
(0.305381 -0.412215 -0.865084)
(0.303404 -0.429277 -0.825143)
(0.301871 -0.421174 -0.861593)
(0.289503 -0.418096 -0.783356)
(0.304987 -0.412442 -0.840757)
(0.300562 -0.420324 -0.796036)
(0.242614 -0.360464 -0.889422)
(0.227914 -0.356145 -0.884823)
(0.218503 -0.342306 -0.878048)
(0.229196 -0.333957 -0.892784)
(0.227011 -0.349115 -0.896525)
(0.211793 -0.331379 -0.869169)
(0.248358 -0.367469 -0.906361)
(0.257999 -0.389663 -0.962097)
(0.253003 -0.400346 -0.964517)
(0.255553 -0.406909 -0.966619)
(0.229668 -0.328563 -0.906484)
(0.239445 -0.345191 -0.913096)
(0.217237 -0.342733 -0.835183)
(0.238703 -0.387975 -0.966948)
(0.241801 -0.381653 -0.963882)
(0.250378 -0.400671 -0.965499)
(0.253893 -0.402778 -0.960606)
(0.253425 -0.37952 -0.969543)
(0.250453 -0.375292 -0.965085)
(0.252124 -0.393498 -0.964973)
(0.151744 -0.311798 -0.599748)
(0.154512 -0.305175 -0.588506)
(0.150662 -0.287318 -0.58842)
(0.126173 -0.305871 -0.543922)
(0.129877 -0.278476 -0.53781)
(0.183417 -0.327704 -0.696082)
(0.156492 -0.316599 -0.630714)
(0.185205 -0.3279 -0.688246)
(0.188495 -0.331806 -0.710153)
(0.193247 -0.336712 -0.715354)
(0.177263 -0.35457 -0.648192)
(0.151013 -0.332632 -0.613678)
(0.194833 -0.343526 -0.721406)
(0.199334 -0.35022 -0.708983)
(0.165524 -0.287939 -0.64311)
(0.163251 -0.286816 -0.641155)
(0.159141 -0.295 -0.632308)
(0.146765 -0.28202 -0.594019)
(0.162206 -0.281558 -0.624215)
(0.166734 -0.290138 -0.641954)
(0.129013 -0.304998 -0.532682)
(0.130366 -0.308206 -0.541327)
(0.149275 -0.321953 -0.581039)
(0.151067 -0.339416 -0.600279)
(0.188269 -0.346457 -0.690513)
(0.174687 -0.355394 -0.652206)
(0.150798 -0.272073 -0.581395)
(0.124911 -0.268494 -0.514503)
(0.127329 -0.289582 -0.530487)
(0.140995 -0.330488 -0.581487)
(0.135454 -0.272763 -0.557013)
(0.128468 -0.205123 -0.411444)
(0.101179 -0.183423 -0.351445)
(0.153871 -0.207217 -0.442115)
(0.138542 -0.202049 -0.422262)
(0.0978173 -0.173472 -0.332893)
(0.130455 -0.18577 -0.384289)
(0.122413 -0.18134 -0.365862)
(0.109433 -0.17766 -0.357315)
(0.104248 -0.171984 -0.33765)
(0.116955 -0.185976 -0.369838)
(0.201936 -0.305007 -1.00717)
(0.207662 -0.30997 -1.00237)
(0.209265 -0.320601 -0.997047)
(0.212181 -0.318812 -0.994156)
(0.19522 -0.285463 -1.00176)
(0.201179 -0.295069 -0.968298)
(0.208913 -0.319511 -0.98157)
(0.198223 -0.312588 -0.936666)
(0.193125 -0.293125 -0.96436)
(0.199826 -0.290683 -1.01258)
(0.199064 -0.288438 -0.961582)
(0.216554 -0.302471 -1.0104)
(0.213611 -0.298262 -1.01197)
(0.215407 -0.29637 -1.008)
(0.205744 -0.295941 -1.01052)
(0.204111 -0.295928 -1.02114)
(0.203296 -0.297879 -1.034)
(0.214013 -0.287792 -1.01623)
(0.212999 -0.307438 -1.01824)
(0.217397 -0.233008 -1.03953)
(0.222592 -0.228386 -1.03451)
(0.222457 -0.217507 -1.04744)
(0.219748 -0.208665 -1.0402)
(0.231062 -0.239433 -1.03087)
(0.229358 -0.232857 -1.02259)
(0.224164 -0.217801 -1.03379)
(0.216374 -0.216808 -1.0458)
(0.215396 -0.201012 -1.0389)
(0.221811 -0.221723 -1.039)
(0.240059 -0.203573 -1.0267)
(0.243434 -0.227082 -1.06169)
(0.226686 -0.225383 -1.02428)
(0.23292 -0.226783 -0.979965)
(0.24339 -0.225068 -1.03317)
(0.224804 -0.208092 -0.998704)
(0.246746 -0.216879 -1.04214)
(0.241459 -0.202099 -0.97715)
(0.222935 -0.215752 -0.960659)
(0.225757 -0.209515 -0.977074)
(0.222964 -0.318297 -0.959491)
(0.234637 -0.338977 -0.972142)
(0.237248 -0.338445 -0.946316)
(0.23057 -0.369941 -0.966791)
(0.22994 -0.367342 -0.940032)
(0.255778 -0.38728 -0.912889)
(0.246542 -0.358967 -0.940021)
(0.23796 -0.36478 -0.965658)
(0.2502 -0.384154 -0.928386)
(0.240271 -0.351292 -0.966921)
(0.255259 -0.376435 -0.922914)
(0.242893 -0.376619 -0.912141)
(0.240319 -0.358752 -0.979689)
(0.230172 -0.37652 -0.94178)
(0.230783 -0.377314 -0.925621)
(0.229701 -0.38581 -0.914301)
(0.245424 -0.383681 -0.867581)
(0.22896 -0.388986 -0.870616)
(0.123544 -0.139523 -0.394605)
(0.1183 -0.138008 -0.376887)
(0.130067 -0.129707 -0.383805)
(0.12003 -0.129784 -0.350887)
(0.140655 -0.154838 -0.453198)
(0.144031 -0.142418 -0.414136)
(0.122004 -0.134468 -0.366907)
(0.139206 -0.150683 -0.466192)
(0.156168 -0.144365 -0.440831)
(0.150712 -0.15571 -0.427319)
(0.152869 -0.148624 -0.415102)
(0.164719 -0.154576 -0.451058)
(0.156044 -0.150617 -0.481558)
(0.314598 -0.477259 -0.791166)
(0.318059 -0.476912 -0.780319)
(0.301223 -0.456273 -0.821875)
(0.293754 -0.438519 -0.847289)
(0.307958 -0.488772 -0.769596)
(0.288759 -0.459744 -0.723133)
(0.32662 -0.485362 -0.789474)
(0.31724 -0.467884 -0.82365)
(0.304127 -0.464175 -0.780633)
(0.276413 -0.460491 -0.854572)
(0.2907 -0.469949 -0.85399)
(0.294074 -0.458543 -0.851735)
(0.290835 -0.47871 -0.781342)
(0.290883 -0.459529 -0.854419)
(0.296697 -0.48019 -0.813137)
(0.129301 -0.183979 -0.361016)
(0.0999971 -0.167112 -0.314611)
(0.117957 -0.187966 -0.371149)
(0.107415 -0.189782 -0.374309)
(0.101493 -0.181472 -0.357959)
(0.0948872 -0.178984 -0.343861)
(0.0892828 -0.158346 -0.303098)
(0.143563 -0.197363 -0.423233)
(0.144371 -0.205662 -0.437494)
(0.142247 -0.21048 -0.445106)
(0.132629 -0.209274 -0.431344)
(0.101824 -0.166203 -0.333542)
(0.128389 -0.182511 -0.397958)
(0.147844 -0.196982 -0.42622)
(0.166333 -0.211588 -0.471094)
(0.158484 -0.208901 -0.47203)
(0.11636 -0.176427 -0.364719)
(0.261479 -0.447018 -0.746511)
(0.257049 -0.444829 -0.720949)
(0.281284 -0.457168 -0.769383)
(0.272288 -0.458679 -0.722174)
(0.256754 -0.449224 -0.715294)
(0.243926 -0.434492 -0.646388)
(0.262074 -0.447069 -0.750984)
(0.263517 -0.425273 -0.810727)
(0.268338 -0.417398 -0.835535)
(0.262541 -0.419087 -0.810795)
(0.281047 -0.459998 -0.738288)
(0.261219 -0.449688 -0.678318)
(0.26884 -0.451764 -0.715089)
(0.280042 -0.451022 -0.771634)
(0.27225 -0.427205 -0.826564)
(0.28257 -0.453821 -0.749149)
(0.285369 -0.456965 -0.783171)
(0.22908 -0.330997 -1.00173)
(0.225221 -0.328352 -1.00011)
(0.219405 -0.316871 -0.991591)
(0.217272 -0.320657 -0.976033)
(0.22592 -0.318124 -1.01604)
(0.217876 -0.338756 -0.988227)
(0.217134 -0.336792 -0.978364)
(0.228955 -0.347987 -0.997009)
(0.223934 -0.315065 -1.00412)
(0.222306 -0.302961 -0.990441)
(0.20264 -0.321656 -0.94159)
(0.218876 -0.34572 -0.973998)
(0.203912 -0.335978 -0.922545)
(0.223587 -0.326684 -0.993403)
(0.221126 -0.321065 -0.993648)
(0.227986 -0.324288 -0.993494)
(0.284351 -0.372151 -0.859624)
(0.285119 -0.375644 -0.822586)
(0.284672 -0.37612 -0.858631)
(0.279955 -0.363381 -0.868357)
(0.289577 -0.366182 -0.84259)
(0.293817 -0.378441 -0.810051)
(0.292079 -0.371019 -0.775135)
(0.259097 -0.338156 -0.868307)
(0.317907 -0.35763 -0.815239)
(0.304383 -0.352215 -0.776862)
(0.309503 -0.363802 -0.850817)
(0.287552 -0.316906 -0.846113)
(0.28527 -0.332188 -0.850058)
(0.312286 -0.349404 -0.839594)
(0.300595 -0.355185 -0.815948)
(0.178654 -0.229526 -0.655718)
(0.188649 -0.25435 -0.690613)
(0.194438 -0.28421 -0.71718)
(0.224367 -0.259014 -0.724631)
(0.179477 -0.245823 -0.682889)
(0.174255 -0.266531 -0.685344)
(0.19474 -0.25537 -0.693441)
(0.217713 -0.298004 -0.733288)
(0.213515 -0.305341 -0.738717)
(0.182605 -0.288883 -0.693768)
(0.185475 -0.273074 -0.689293)
(0.204622 -0.314729 -0.73446)
(0.259353 -0.312127 -0.753363)
(0.217315 -0.29157 -0.717995)
(0.128453 -0.072076 -0.471307)
(0.105288 -0.0778116 -0.494682)
(0.0952853 -0.0749136 -0.495044)
(0.0802149 -0.077498 -0.558945)
(0.0859425 -0.0724718 -0.515585)
(0.0931502 -0.0790086 -0.548328)
(0.11948 -0.0705825 -0.454423)
(0.0854482 -0.0697547 -0.568318)
(0.0860047 -0.0669253 -0.505009)
(0.0953718 -0.0696777 -0.571904)
(0.106411 -0.0707843 -0.565648)
(0.114071 -0.0728417 -0.551633)
(0.134965 -0.0692698 -0.460684)
(0.130454 -0.0653975 -0.494087)
(0.101841 -0.0599942 -0.473025)
(0.118388 -0.0637571 -0.475178)
(0.127949 -0.0606436 -0.475547)
(0.113721 -0.055897 -0.496176)
(0.102168 -0.0667627 -0.534932)
(0.108061 -0.287307 -0.488074)
(0.121851 -0.310754 -0.525662)
(0.147069 -0.329017 -0.59876)
(0.145638 -0.335312 -0.595608)
(0.126864 -0.311448 -0.536054)
(0.151761 -0.320132 -0.616077)
(0.158368 -0.317418 -0.625886)
(0.131478 -0.32174 -0.563226)
(0.103306 -0.27725 -0.47798)
(0.113207 -0.281993 -0.502533)
(0.112392 -0.269558 -0.498236)
(0.131442 -0.280361 -0.5563)
(0.129151 -0.29134 -0.576457)
(0.12986 -0.260157 -0.552052)
(0.110475 -0.280289 -0.500278)
(0.125848 -0.312381 -0.557891)
(0.117048 -0.265006 -0.501582)
(0.109052 -0.261816 -0.4889)
(0.194009 -0.322972 -0.73916)
(0.207121 -0.358629 -0.765979)
(0.206995 -0.350452 -0.764758)
(0.208507 -0.334431 -0.757895)
(0.21672 -0.358055 -0.779268)
(0.180166 -0.32608 -0.708968)
(0.198726 -0.324244 -0.73097)
(0.185997 -0.321068 -0.72148)
(0.17877 -0.308564 -0.717398)
(0.181476 -0.312462 -0.703466)
(0.193987 -0.347149 -0.730004)
(0.190902 -0.34029 -0.726411)
(0.208156 -0.359126 -0.771412)
(0.174009 -0.309928 -0.696548)
(0.178906 -0.302256 -0.702842)
(0.191167 -0.342101 -0.718787)
(0.183442 -0.333855 -0.707846)
(0.180014 -0.319159 -0.696699)
(0.17037 -0.304047 -0.679292)
(0.205597 -0.344887 -0.752561)
(0.179845 -0.306232 -0.700252)
(0.173454 -0.297595 -0.688451)
(0.178901 -0.307692 -0.696452)
(0.0518228 -0.0482798 -0.656069)
(0.0388226 -0.0501205 -0.637462)
(0.0561229 -0.0532224 -0.66731)
(0.062968 -0.0649731 -0.621128)
(0.0655823 -0.0601058 -0.607437)
(0.0485109 -0.0551297 -0.613623)
(0.079808 -0.0523566 -0.572983)
(0.0926789 -0.058702 -0.555269)
(0.27509 -0.379436 -0.886995)
(0.272105 -0.394188 -0.885828)
(0.259373 -0.382839 -0.877633)
(0.285708 -0.390548 -0.870575)
(0.268652 -0.37621 -0.886897)
(0.275596 -0.373938 -0.890633)
(0.250137 -0.357561 -0.871174)
(0.284244 -0.388736 -0.899582)
(0.258756 -0.355113 -0.908014)
(0.282164 -0.371555 -0.900194)
(0.244003 -0.349078 -0.846716)
(0.241906 -0.331838 -0.879396)
(0.255476 -0.3546 -0.879047)
(0.289932 -0.387849 -0.935668)
(0.269932 -0.376792 -0.89844)
(0.0747739 -0.20541 -0.357681)
(0.12448 -0.20992 -0.440059)
(0.11581 -0.207261 -0.420886)
(0.0925106 -0.188208 -0.371022)
(0.0731704 -0.209095 -0.353368)
(0.0657862 -0.190935 -0.317722)
(0.100223 -0.220254 -0.433991)
(0.0794955 -0.20742 -0.375075)
(0.116802 -0.220465 -0.458921)
(0.0785467 -0.183359 -0.338639)
(0.0829437 -0.178475 -0.335549)
(0.0704677 -0.172504 -0.306767)
(0.0841243 -0.214947 -0.374099)
(0.119245 -0.225405 -0.466121)
(0.116478 -0.213605 -0.434659)
(0.108873 -0.226702 -0.447893)
(0.106621 -0.221975 -0.427133)
(0.0661661 -0.174865 -0.293719)
(0.0716632 -0.175505 -0.313162)
(0.0728335 -0.194598 -0.335335)
(0.107969 -0.217276 -0.428829)
(0.0893737 -0.194391 -0.35874)
(0.137078 -0.245967 -0.684602)
(0.136425 -0.245868 -0.670134)
(0.123848 -0.237895 -0.619691)
(0.0996598 -0.244868 -0.594642)
(0.152541 -0.268715 -0.707969)
(0.120426 -0.222993 -0.570209)
(0.119889 -0.239947 -0.582201)
(0.125295 -0.261278 -0.63911)
(0.126722 -0.269156 -0.618544)
(0.120971 -0.270071 -0.614298)
(0.12333 -0.218317 -0.596341)
(0.125134 -0.241596 -0.596425)
(0.125678 -0.229828 -0.579662)
(0.140371 -0.265245 -0.665096)
(0.11371 -0.234202 -0.537256)
(0.220093 -0.365359 -0.778494)
(0.162139 -0.257635 -0.724468)
(0.156422 -0.272221 -0.709197)
(0.162749 -0.267105 -0.710589)
(0.191834 -0.362469 -0.734014)
(0.211258 -0.373078 -0.794064)
(0.223973 -0.340549 -0.800029)
(0.211568 -0.346633 -0.761601)
(0.202549 -0.314326 -0.789496)
(0.149125 -0.279047 -0.668444)
(0.16163 -0.278976 -0.718836)
(0.187453 -0.298743 -0.760222)
(0.164514 -0.269403 -0.707693)
(0.178543 -0.298268 -0.750399)
(0.21718 -0.3343 -0.793932)
(0.198434 -0.29868 -0.758075)
(0.183488 -0.344204 -0.710647)
(0.200886 -0.386796 -0.75149)
(0.191332 -0.305788 -0.750115)
(0.223648 -0.333274 -0.803318)
(0.209391 -0.328927 -0.767917)
(0.206041 -0.373005 -0.745307)
(0.171294 -0.326196 -0.686317)
(0.160333 -0.28537 -0.702732)
(0.217656 -0.361848 -0.788956)
(0.172232 -0.302411 -0.716569)
(0.160117 -0.178704 -0.796672)
(0.161259 -0.167724 -0.811275)
(0.128022 -0.162116 -0.750366)
(0.125765 -0.14537 -0.733803)
(0.13856 -0.170659 -0.737805)
(0.147294 -0.155015 -0.723005)
(0.121736 -0.148099 -0.695025)
(0.172896 -0.179201 -0.811877)
(0.154777 -0.175904 -0.761747)
(0.146891 -0.175703 -0.715273)
(0.137431 -0.17276 -0.705156)
(0.133123 -0.145132 -0.719012)
(0.11966 -0.139416 -0.682074)
(0.172125 -0.1633 -0.805379)
(0.154683 -0.14861 -0.760951)
(0.180304 -0.170768 -0.788262)
(0.151947 -0.159394 -0.752993)
(0.164851 -0.171678 -0.751487)
(0.227529 -0.22964 -0.882431)
(0.22778 -0.218757 -0.869542)
(0.218721 -0.238469 -0.887047)
(0.226734 -0.249969 -0.88951)
(0.231853 -0.233141 -0.878732)
(0.207138 -0.190868 -0.85466)
(0.231995 -0.225043 -0.889224)
(0.199462 -0.225731 -0.860691)
(0.177713 -0.215915 -0.856907)
(0.16798 -0.206337 -0.835069)
(0.202958 -0.180872 -0.859738)
(0.231193 -0.205941 -0.877365)
(0.155527 -0.162739 -0.807814)
(0.175181 -0.167052 -0.817701)
(0.0768884 -0.1499 -0.585224)
(0.0714288 -0.169194 -0.585722)
(0.0817003 -0.17224 -0.621319)
(0.0813687 -0.128302 -0.624903)
(0.102502 -0.154939 -0.725218)
(0.107186 -0.195738 -0.75602)
(0.0826994 -0.141699 -0.658326)
(0.0909319 -0.198379 -0.657227)
(0.103284 -0.21113 -0.710994)
(0.0943282 -0.142283 -0.652686)
(0.10188 -0.162833 -0.727505)
(0.109112 -0.173361 -0.755629)
(0.0959079 -0.193246 -0.684797)
(0.271851 -0.441561 -0.896242)
(0.272485 -0.436699 -0.916128)
(0.266756 -0.444383 -0.915703)
(0.272826 -0.436524 -0.904086)
(0.265817 -0.439958 -0.918126)
(0.26587 -0.449533 -0.913256)
(0.267441 -0.437901 -0.922096)
(0.268611 -0.446171 -0.914071)
(0.25524 -0.43438 -0.907534)
(0.268169 -0.44232 -0.928783)
(0.268209 -0.437695 -0.92935)
(0.25692 -0.414796 -0.90177)
(0.248021 -0.402847 -0.889237)
(0.255515 -0.420999 -0.891757)
(0.246928 -0.413563 -0.892399)
(0.25894 -0.424039 -0.907782)
(0.255862 -0.408158 -0.905703)
(0.265634 -0.434605 -0.930402)
(0.253518 -0.423126 -0.918843)
(0.250943 -0.390331 -0.93913)
(0.250837 -0.394786 -0.929991)
(0.234872 -0.359028 -0.889545)
(0.243127 -0.370905 -0.88895)
(0.263579 -0.408177 -0.957254)
(0.228465 -0.340448 -0.856701)
(0.24514 -0.366713 -0.903894)
(0.266605 -0.400394 -0.966357)
(0.263017 -0.389027 -0.965928)
(0.258444 -0.388817 -0.937467)
(0.257913 -0.359326 -0.937308)
(0.262273 -0.378085 -0.94913)
(0.257319 -0.386047 -0.95483)
(0.250993 -0.363937 -0.951998)
(0.258875 -0.376823 -0.965682)
(0.230179 -0.238934 -0.871693)
(0.248782 -0.263848 -0.91109)
(0.23225 -0.259889 -0.879179)
(0.248501 -0.273305 -0.895887)
(0.211585 -0.225597 -0.846218)
(0.226244 -0.222545 -0.864037)
(0.229978 -0.24109 -0.849815)
(0.230793 -0.264033 -0.873872)
(0.227894 -0.256664 -0.862931)
(0.216305 -0.223038 -0.843615)
(0.240424 -0.270291 -0.885249)
(0.257262 -0.29631 -0.927023)
(0.20724 -0.243064 -0.827921)
(0.196623 -0.217221 -0.827667)
(0.220923 -0.254883 -0.885398)
(0.231345 -0.269679 -0.881124)
(0.231913 -0.249248 -0.894896)
(0.232388 -0.258301 -0.89926)
(0.23272 -0.228356 -0.86773)
(0.303065 -0.465874 -0.718248)
(0.310654 -0.471161 -0.743681)
(0.295514 -0.489108 -0.776406)
(0.278121 -0.465233 -0.707394)
(0.308593 -0.45218 -0.705751)
(0.296787 -0.462792 -0.68844)
(0.303494 -0.477219 -0.733196)
(0.296868 -0.481329 -0.747512)
(0.291455 -0.497045 -0.762308)
(0.304278 -0.505585 -0.805219)
(0.303038 -0.497147 -0.821082)
(0.302574 -0.487306 -0.754054)
(0.296854 -0.470961 -0.821879)
(0.299768 -0.477547 -0.823833)
(0.296649 -0.484599 -0.846356)
(0.297634 -0.469691 -0.838556)
(0.30482 -0.465721 -0.743262)
(0.294331 -0.484682 -0.853564)
(0.27891 -0.458464 -0.844845)
(0.286752 -0.467989 -0.841234)
(0.296893 -0.464884 -0.821866)
(0.188144 -0.292181 -1.02828)
(0.192135 -0.292358 -1.03686)
(0.191798 -0.251358 -1.03046)
(0.195172 -0.263097 -1.03984)
(0.198912 -0.290544 -1.01756)
(0.202144 -0.284658 -1.02364)
(0.190236 -0.26163 -1.03006)
(0.194193 -0.298395 -1.01185)
(0.191844 -0.263026 -1.02996)
(0.190101 -0.277885 -1.00594)
(0.18304 -0.280671 -1.00484)
(0.186299 -0.287487 -0.959269)
(0.183636 -0.270897 -0.985491)
(0.181106 -0.274794 -0.95492)
(0.19145 -0.1913 -1.05205)
(0.187804 -0.174865 -1.05639)
(0.195895 -0.199946 -1.06422)
(0.190478 -0.191654 -1.04653)
(0.190986 -0.173567 -1.04964)
(0.200407 -0.19146 -1.0552)
(0.160874 -0.152756 -0.934867)
(0.179315 -0.181186 -0.983489)
(0.181741 -0.166027 -1.01601)
(0.200228 -0.166304 -1.02931)
(0.200392 -0.171326 -1.01981)
(0.198444 -0.18984 -1.05023)
(0.173054 -0.139914 -0.964323)
(0.180162 -0.132891 -0.946857)
(0.179034 -0.151546 -0.947795)
(0.193173 -0.192306 -1.04188)
(0.213048 -0.145264 -0.942869)
(0.214213 -0.13343 -0.945986)
(0.216763 -0.147927 -0.949268)
(0.198698 -0.120458 -0.950022)
(0.260639 -0.198649 -1.03596)
(0.256203 -0.17611 -1.01615)
(0.2478 -0.164111 -1.00473)
(0.246237 -0.164233 -1.02136)
(0.243647 -0.160061 -1.02476)
(0.261065 -0.185088 -1.0179)
(0.244151 -0.311411 -0.969808)
(0.25779 -0.317211 -0.989066)
(0.236214 -0.279796 -0.954413)
(0.223141 -0.276407 -0.922834)
(0.248935 -0.317857 -0.988766)
(0.254978 -0.330121 -0.988233)
(0.227728 -0.269828 -0.945525)
(0.224001 -0.275755 -0.916646)
(0.252267 -0.299609 -0.981664)
(0.243778 -0.311009 -0.987656)
(0.24149 -0.309093 -1.01182)
(0.247646 -0.308878 -0.988332)
(0.260042 -0.301958 -0.990211)
(0.257923 -0.310948 -0.980728)
(0.247147 -0.371657 -0.989444)
(0.25487 -0.392341 -0.96781)
(0.227331 -0.387892 -0.946115)
(0.245622 -0.406659 -0.939961)
(0.239893 -0.392432 -0.932933)
(0.238784 -0.356161 -0.952736)
(0.237668 -0.349543 -0.986417)
(0.241693 -0.403902 -0.93757)
(0.22189 -0.391791 -0.906362)
(0.242613 -0.396632 -0.970855)
(0.246252 -0.368505 -0.98592)
(0.243356 -0.378473 -0.982696)
(0.250988 -0.397442 -0.965219)
(0.244213 -0.405901 -0.946234)
(0.231108 -0.385355 -0.953614)
(0.230786 -0.385968 -0.958689)
(0.259698 -0.398322 -1.00623)
(0.241027 -0.408696 -0.974428)
(0.231018 -0.387591 -0.954906)
(0.227105 -0.389224 -0.922955)
(0.262281 -0.240905 -0.970955)
(0.264079 -0.24928 -0.989087)
(0.247408 -0.237238 -0.976878)
(0.284348 -0.258284 -0.983254)
(0.279675 -0.253713 -0.972132)
(0.266591 -0.244807 -0.974396)
(0.2577 -0.230542 -0.989453)
(0.250446 -0.230205 -1.01324)
(0.265107 -0.237958 -0.965798)
(0.252848 -0.216606 -0.951154)
(0.260889 -0.435045 -0.916139)
(0.263739 -0.433187 -0.909771)
(0.254442 -0.426186 -0.90594)
(0.256066 -0.429397 -0.873135)
(0.257911 -0.4099 -0.938749)
(0.2632 -0.411962 -0.934755)
(0.260722 -0.420277 -0.892834)
(0.258989 -0.41446 -0.921721)
(0.260949 -0.435505 -0.859979)
(0.258422 -0.432345 -0.83583)
(0.277203 -0.424673 -0.869287)
(0.269105 -0.42341 -0.830411)
(0.254546 -0.379671 -0.904207)
(0.261533 -0.396132 -0.935417)
(0.254664 -0.389198 -0.916939)
(0.267698 -0.422672 -0.863829)
(0.275272 -0.414003 -0.883846)
(0.27462 -0.423751 -0.89875)
(0.260236 -0.386116 -0.907684)
(0.257966 -0.381003 -0.900857)
(0.252677 -0.365713 -0.970852)
(0.25541 -0.363614 -0.966179)
(0.22119 -0.331971 -0.88777)
(0.219732 -0.31958 -0.897445)
(0.260174 -0.389172 -0.949984)
(0.260377 -0.377798 -0.977724)
(0.258095 -0.360001 -0.991022)
(0.250558 -0.354598 -0.981562)
(0.242517 -0.366676 -0.973558)
(0.259359 -0.362289 -0.969729)
(0.198534 -0.184318 -0.554818)
(0.241333 -0.200901 -0.602873)
(0.224941 -0.199745 -0.553887)
(0.251564 -0.219214 -0.613245)
(0.203978 -0.19464 -0.551049)
(0.189443 -0.18551 -0.521343)
(0.195455 -0.185735 -0.531454)
(0.218405 -0.201096 -0.593072)
(0.233501 -0.210949 -0.58399)
(0.243675 -0.219439 -0.610428)
(0.209957 -0.199045 -0.544418)
(0.198155 -0.186688 -0.507393)
(0.207682 -0.185982 -0.520306)
(0.211943 -0.285767 -0.873709)
(0.227631 -0.290579 -0.873213)
(0.236028 -0.295937 -0.862428)
(0.251148 -0.36298 -0.920333)
(0.241492 -0.359425 -0.903718)
(0.241965 -0.329087 -0.920235)
(0.239243 -0.323088 -0.917553)
(0.232127 -0.304455 -0.919688)
(0.245189 -0.359008 -0.91666)
(0.246816 -0.350057 -0.914783)
(0.239813 -0.313389 -0.885873)
(0.273005 -0.329402 -0.863071)
(0.284858 -0.351266 -0.857245)
(0.254419 -0.367366 -0.930747)
(0.237969 -0.342389 -0.925917)
(0.280652 -0.364514 -0.828602)
(0.272847 -0.345349 -0.852744)
(0.261305 -0.376604 -0.885129)
(0.258121 -0.369282 -0.850964)
(0.270407 -0.35189 -0.86776)
(0.249863 -0.366097 -0.878078)
(0.26448 -0.366118 -0.853511)
(0.21076 -0.272661 -0.832219)
(0.197029 -0.251941 -0.803647)
(0.231335 -0.277924 -0.871804)
(0.208784 -0.277973 -0.872943)
(0.226648 -0.287082 -0.91144)
(0.222713 -0.292365 -0.876575)
(0.198213 -0.266297 -0.827511)
(0.207074 -0.286342 -0.834021)
(0.240535 -0.29752 -0.901803)
(0.221356 -0.299927 -0.898729)
(0.226318 -0.310953 -0.896335)
(0.231141 -0.317218 -0.920446)
(0.280274 -0.537212 -0.95419)
(0.272329 -0.519908 -0.935291)
(0.275453 -0.535854 -0.941335)
(0.275846 -0.53989 -0.944769)
(0.27438 -0.537448 -0.944228)
(0.273035 -0.544033 -0.94693)
(0.269352 -0.523123 -0.920012)
(0.273678 -0.53379 -0.932031)
(0.258997 -0.48802 -0.884535)
(0.267638 -0.518866 -0.924253)
(0.257855 -0.488222 -0.89079)
(0.0660925 -0.191815 -0.414727)
(0.0563455 -0.190742 -0.38427)
(0.0855977 -0.189919 -0.44144)
(0.0726908 -0.195233 -0.410259)
(0.0821656 -0.227512 -0.454189)
(0.0939154 -0.225964 -0.502678)
(0.0998363 -0.261623 -0.521322)
(0.0924849 -0.264608 -0.476488)
(0.068354 -0.22433 -0.405622)
(0.107949 -0.252262 -0.588936)
(0.107506 -0.250297 -0.596177)
(0.066277 -0.205728 -0.405788)
(0.0650234 -0.197814 -0.395961)
(0.0890485 -0.201486 -0.461355)
(0.0990238 -0.207559 -0.515203)
(0.0620872 -0.195668 -0.365748)
(0.0828062 -0.234074 -0.459764)
(0.103296 -0.276017 -0.541174)
(0.11573 -0.278816 -0.603185)
(0.108974 -0.2287 -0.579638)
(0.0877044 -0.210283 -0.494542)
(0.0739711 -0.207898 -0.457619)
(0.271618 -0.525603 -0.929989)
(0.274681 -0.529741 -0.937883)
(0.262193 -0.526551 -0.914621)
(0.267877 -0.526719 -0.922515)
(0.26128 -0.538339 -0.922563)
(0.263177 -0.537212 -0.912838)
(0.268004 -0.514718 -0.923335)
(0.262005 -0.518192 -0.912827)
(0.245889 -0.507095 -0.871689)
(0.273994 -0.526859 -0.939888)
(0.270144 -0.508724 -0.930274)
(0.239059 -0.511729 -0.843955)
(0.25879 -0.532666 -0.878688)
(0.276094 -0.531153 -0.928794)
(0.267266 -0.536673 -0.938891)
(0.247849 -0.519079 -0.877223)
(0.25276 -0.525382 -0.868279)
(0.26253 -0.538671 -0.894859)
(0.258315 -0.52276 -0.889286)
(0.251425 -0.52788 -0.869099)
(0.260875 -0.352037 -0.563354)
(0.256486 -0.324652 -0.547341)
(0.292511 -0.406791 -0.708144)
(0.30461 -0.438462 -0.743743)
(0.295255 -0.42845 -0.772699)
(0.294629 -0.397954 -0.735775)
(0.287115 -0.389047 -0.62288)
(0.240196 -0.319148 -0.510242)
(0.267851 -0.326984 -0.569112)
(0.24179 -0.320839 -0.520922)
(0.304583 -0.42874 -0.747883)
(0.304744 -0.440984 -0.761881)
(0.284761 -0.339814 -0.653007)
(0.288178 -0.366179 -0.702445)
(0.275788 -0.310348 -0.563232)
(0.298863 -0.400325 -0.708359)
(0.283299 -0.356344 -0.644422)
(0.312148 -0.446701 -0.759418)
(0.309503 -0.443964 -0.79249)
(0.269333 -0.323942 -0.584052)
(0.286438 -0.364261 -0.596949)
(0.286084 -0.406685 -0.641992)
(0.268578 -0.361626 -0.582005)
(0.267029 -0.358552 -0.579431)
(0.149916 -0.0658003 -0.411911)
(0.153666 -0.0680698 -0.392111)
(0.190638 -0.0843657 -0.465123)
(0.176561 -0.0852639 -0.429432)
(0.145418 -0.0727456 -0.413795)
(0.142484 -0.0704158 -0.428999)
(0.156257 -0.067229 -0.411859)
(0.205945 -0.0891499 -0.491271)
(0.203406 -0.0808025 -0.49777)
(0.173257 -0.0820913 -0.455423)
(0.167595 -0.0606102 -0.407755)
(0.192381 -0.0767161 -0.47824)
(0.163215 -0.0636066 -0.48405)
(0.146591 -0.0663255 -0.493065)
(0.162662 -0.0803312 -0.516017)
(0.177089 -0.0830559 -0.506465)
(0.153797 -0.0771199 -0.48333)
(0.161429 -0.0693683 -0.471035)
(0.241143 -0.33177 -0.733069)
(0.270171 -0.31089 -0.719912)
(0.21322 -0.295101 -0.693608)
(0.219073 -0.306611 -0.708245)
(0.244541 -0.293489 -0.697753)
(0.238222 -0.313275 -0.715145)
(0.205792 -0.282547 -0.66635)
(0.262127 -0.363652 -0.750029)
(0.261817 -0.344069 -0.741387)
(0.24484 -0.291329 -0.684201)
(0.21434 -0.29492 -0.680329)
(0.25117 -0.361025 -0.756082)
(0.263762 -0.374233 -0.760997)
(0.269324 -0.355428 -0.735536)
(0.247228 -0.294847 -0.675612)
(0.268896 -0.317439 -0.68862)
(0.284081 -0.338009 -0.716014)
(0.284567 -0.263738 -0.596187)
(0.236177 -0.218787 -0.50061)
(0.28236 -0.276696 -0.701325)
(0.268611 -0.252023 -0.663651)
(0.242353 -0.216712 -0.513868)
(0.286645 -0.253417 -0.601553)
(0.214655 -0.190123 -0.488698)
(0.207064 -0.192629 -0.458603)
(0.231796 -0.205135 -0.491408)
(0.27921 -0.261573 -0.573965)
(0.29772 -0.277353 -0.625978)
(0.293431 -0.292957 -0.699645)
(0.292236 -0.283036 -0.71173)
(0.268535 -0.250907 -0.635998)
(0.227283 -0.199221 -0.525876)
(0.213802 -0.198443 -0.49987)
(0.220863 -0.202275 -0.488311)
(0.263151 -0.24655 -0.565014)
(0.231737 -0.211485 -0.577521)
(0.279421 -0.257506 -0.666652)
(0.0852204 -0.240255 -0.367715)
(0.0817146 -0.239896 -0.374329)
(0.086132 -0.234857 -0.387163)
(0.0933838 -0.262419 -0.420713)
(0.10242 -0.250203 -0.436676)
(0.116583 -0.247401 -0.464137)
(0.130187 -0.255573 -0.509062)
(0.128766 -0.258401 -0.525566)
(0.104648 -0.236989 -0.426671)
(0.11562 -0.271015 -0.494272)
(0.104715 -0.279138 -0.480846)
(0.105213 -0.247142 -0.44286)
(0.12651 -0.268052 -0.528899)
(0.13049 -0.248052 -0.501356)
(0.111976 -0.243676 -0.455646)
(0.264787 -0.468892 -0.728679)
(0.251481 -0.458304 -0.694113)
(0.176138 -0.397812 -0.549836)
(0.198871 -0.418748 -0.590455)
(0.263974 -0.496811 -0.879927)
(0.270308 -0.49692 -0.883762)
(0.0705431 -0.220068 -0.338956)
(0.241174 -0.524372 -0.825052)
(0.242545 -0.527584 -0.823195)
(0.1675 -0.219425 -0.405981)
(0.162 -0.199536 -0.390526)
(0.279484 -0.483537 -0.876174)
(0.267288 -0.477762 -0.857465)
(0.253202 -0.501487 -0.727598)
(0.265685 -0.503279 -0.747134)
(0.260376 -0.450041 -0.706332)
(0.280236 -0.460111 -0.720573)
(0.27742 -0.453206 -0.705521)
(0.12337 -0.330458 -0.455852)
(0.111406 -0.317562 -0.428328)
(0.126304 -0.349721 -0.493183)
(0.0786731 -0.16757 -0.301351)
(0.0824471 -0.169474 -0.304059)
(0.247343 -0.506977 -0.867013)
(0.249764 -0.505148 -0.868989)
(0.260043 -0.51456 -0.894585)
(0.309944 -0.441865 -0.684273)
(0.27739 -0.3915 -0.598315)
(0.286632 -0.388893 -0.61051)
(0.257413 -0.518965 -0.804642)
(0.251973 -0.522581 -0.838897)
(0.068703 -0.213887 -0.333057)
(0.0646283 -0.203947 -0.323175)
(0.274577 -0.45656 -0.868639)
(0.266358 -0.449726 -0.844675)
(0.265881 -0.459732 -0.874081)
(0.154135 -0.179228 -0.397192)
(0.125195 -0.172843 -0.350974)
(0.126607 -0.178683 -0.361498)
(0.265476 -0.441971 -0.703587)
(0.270847 -0.435957 -0.70409)
(0.294292 -0.439565 -0.773098)
(0.268899 -0.287239 -0.560799)
(0.289468 -0.326011 -0.589459)
(0.264479 -0.485974 -0.745312)
(0.285858 -0.489301 -0.774931)
(0.282967 -0.47972 -0.731758)
(0.159479 -0.364159 -0.552502)
(0.134939 -0.34951 -0.521328)
(0.0718221 -0.175383 -0.313421)
(0.0685629 -0.183973 -0.320664)
(0.287922 -0.431566 -0.844425)
(0.297772 -0.423664 -0.854073)
(0.25602 -0.46044 -0.914807)
(0.259639 -0.465907 -0.909377)
(0.241966 -0.459846 -0.878887)
(0.25592 -0.456291 -0.869538)
(0.131543 -0.159339 -0.37435)
(0.126198 -0.157082 -0.364882)
(0.249504 -0.485352 -0.836832)
(0.239834 -0.477977 -0.838417)
(0.0756156 -0.219051 -0.393049)
(0.0767329 -0.223823 -0.371729)
(0.0776449 -0.255444 -0.413518)
(0.293832 -0.458714 -0.758864)
(0.303286 -0.456423 -0.792167)
(0.284776 -0.472766 -0.795822)