/*--------------------------------*- C++ -*----------------------------------*\
| =========                 |                                                 |
| \\      /  F ield         | OpenFOAM: The Open Source CFD Toolbox           |
|  \\    /   O peration     | Version:  v1612+                                |
|   \\  /    A nd           | Web:      www.OpenFOAM.com                      |
|    \\/     M anipulation  |                                                 |
\*---------------------------------------------------------------------------*/
FoamFile
{
    version     2.0;
    format      ascii;
    class       surfaceScalarField;
    location    "50";
    object      phi;
}
// * * * * * * * * * * * * * * * * * * * * * * * * * * * * * * * * * * * * * //

dimensions      [0 3 -1 0 0 0 0];

internalField   nonuniform List<scalar> 
37439
(
-1.07054e-09
-3.37133e-09
4.5054e-09
-6.35032e-11
-1.37663e-09
-4.52236e-09
6.06463e-10
5.29255e-09
-4.47062e-09
4.37851e-09
6.85306e-09
-6.76096e-09
-2.7854e-09
6.92751e-09
-1.11128e-08
6.97085e-09
-1.14716e-08
-1.98651e-11
-5.24814e-09
-6.06352e-09
-1.80874e-08
8.27446e-09
-2.61661e-08
2.54582e-08
-3.97788e-08
2.2595e-08
3.74539e-08
-2.25655e-08
3.82106e-09
-2.8573e-09
-6.96918e-09
6.00525e-09
-7.06755e-11
3.84037e-09
5.12187e-11
2.87026e-09
-4.736e-09
-5.24079e-09
7.10642e-09
-7.62369e-11
3.02208e-09
-7.56586e-11
1.35318e-10
1.84153e-09
3.59323e-09
-5.57017e-09
1.83989e-09
-5.65921e-09
3.95458e-09
4.35059e-09
-4.1508e-09
1.27559e-09
-1.47552e-09
2.17404e-09
6.56288e-09
-4.38635e-09
3.37367e-09
6.82679e-10
-6.91373e-09
3.11247e-09
1.90449e-10
4.49378e-09
-8.54713e-09
9.46409e-10
-3.07369e-09
3.9688e-09
4.96032e-09
-1.50926e-09
-6.93764e-10
-3.45628e-09
-1.16634e-09
-3.75007e-11
-3.38767e-09
-1.37632e-08
3.82874e-09
1.33222e-08
-1.25719e-08
1.94404e-09
7.24021e-09
3.09483e-09
-1.93046e-09
-7.27634e-09
6.11196e-09
-5.07557e-10
-1.01608e-08
-3.02939e-09
-1.005e-08
-9.70222e-10
9.4751e-09
-4.67614e-09
3.16435e-09
-5.66367e-09
4.44337e-09
-3.5863e-09
5.78043e-09
3.86319e-09
9.33081e-10
-6.72673e-09
1.72068e-09
2.27351e-09
-1.30997e-10
1.96964e-09
-4.85604e-09
-2.77728e-09
1.04008e-10
-6.95236e-09
-2.61299e-09
4.17682e-09
7.08775e-11
-1.63469e-09
4.1348e-09
-2.57191e-09
-2.61356e-09
4.33044e-09
2.45997e-09
1.59066e-09
-6.94152e-11
-4.21327e-09
2.38735e-09
-3.00294e-09
4.82888e-09
-2.64338e-09
2.07717e-11
3.41037e-09
2.73582e-10
-8.60084e-10
7.57791e-09
-3.31412e-09
-5.53827e-10
8.65049e-10
3.41541e-09
2.13476e-09
-6.10385e-09
4.05444e-09
1.17986e-08
-1.24376e-08
3.95976e-09
5.32096e-09
6.42733e-09
-2.39666e-09
9.6217e-09
-1.18313e-08
-2.84468e-09
2.00387e-08
-5.36279e-09
-3.71378e-09
1.76429e-09
-9.8819e-09
-8.55814e-09
1.13114e-08
-5.59806e-09
-2.9089e-09
-9.36304e-09
3.18788e-09
-5.33084e-09
3.04803e-09
-9.05115e-10
-3.51378e-09
2.1106e-09
4.59107e-09
2.58865e-09
-4.88954e-09
-3.02993e-09
-9.46142e-10
2.10001e-11
1.02709e-08
-1.75709e-09
-6.74944e-09
2.56685e-09
1.47475e-08
-7.04348e-09
6.34736e-10
-8.4332e-09
4.21835e-09
-3.06052e-09
-5.13533e-09
3.97752e-09
8.8958e-09
3.9138e-09
2.68099e-09
-5.96006e-09
-9.28727e-11
-4.21141e-09
-9.13028e-10
8.30463e-09
6.10421e-09
-1.34957e-08
4.28232e-09
-1.1256e-08
6.06067e-09
-8.8526e-09
6.00257e-09
3.36737e-09
-5.17351e-10
-1.35939e-08
1.67645e-08
-5.77585e-09
2.60524e-09
1.94441e-09
6.5276e-09
-4.18967e-09
1.61183e-08
-7.95039e-09
-6.22345e-09
1.93742e-09
-2.48537e-09
3.90568e-09
-1.38125e-09
1.56119e-09
-5.73e-09
-6.28448e-09
-7.62652e-09
1.014e-08
-1.18547e-09
-7.01703e-09
-5.57771e-09
3.19891e-09
-4.72328e-09
5.99203e-10
1.10147e-09
-6.42394e-09
1.5491e-09
9.89615e-09
-1.24375e-08
-1.22654e-08
1.48069e-08
-8.55025e-09
-4.57473e-09
2.30212e-08
7.40686e-09
-9.94401e-09
-9.90032e-09
-4.07706e-09
2.93369e-09
-3.81664e-09
-9.15469e-09
8.39668e-09
5.89967e-09
8.76157e-09
-1.1935e-08
-2.72624e-09
9.26773e-09
-1.18855e-09
-2.17952e-09
7.48138e-10
7.49471e-09
1.02489e-09
7.49107e-09
2.01867e-09
-3.98987e-10
-4.11607e-09
2.45245e-09
-5.57321e-09
-1.08083e-08
-5.1427e-09
-5.98986e-09
-1.80136e-08
-7.36972e-09
1.01279e-08
1.52554e-08
-4.89778e-09
-1.0357e-08
-2.75885e-09
1.61732e-08
-1.56337e-08
-5.43722e-09
1.26113e-08
-1.14771e-08
1.5039e-08
9.13093e-09
-1.10421e-08
-8.44573e-09
2.65689e-09
-8.95672e-10
-1.73461e-09
2.44739e-08
6.66102e-09
-1.64701e-08
-5.82461e-09
-8.24901e-09
3.43285e-09
-1.33504e-09
-1.24193e-08
1.74073e-08
-3.65295e-09
-1.2517e-08
-1.10166e-08
2.17989e-08
-1.98789e-08
6.21371e-09
5.41618e-09
-3.43938e-09
-8.9378e-09
1.36135e-08
1.84663e-08
-2.68677e-08
-5.21203e-09
2.93267e-10
-2.41381e-08
3.96592e-09
-1.96162e-08
7.31019e-09
-6.79077e-09
6.54413e-09
4.00219e-10
-1.53579e-10
-2.32722e-09
7.54458e-09
-1.20082e-08
3.16892e-09
-8.68977e-09
3.19364e-09
2.95976e-09
4.12392e-09
-3.91473e-09
2.40927e-09
5.75928e-10
-2.54137e-11
6.58652e-09
3.75673e-09
-2.79868e-09
5.97647e-09
7.15417e-09
3.97174e-09
1.84694e-10
-3.75623e-09
-3.51854e-09
4.03553e-09
1.89228e-09
1.78233e-09
-1.17697e-09
-4.04659e-09
-1.02825e-09
-1.04355e-09
6.1184e-09
-8.79199e-10
-3.932e-09
7.64602e-10
3.11636e-09
-2.62109e-09
8.06559e-11
5.70837e-09
-6.11113e-10
-1.70025e-09
6.38034e-09
6.0489e-09
-5.09844e-10
-2.50406e-10
2.90155e-10
-3.45651e-10
1.34751e-09
3.03366e-09
4.00299e-09
-2.89155e-09
3.1955e-09
-2.55889e-11
-1.0465e-08
9.03992e-09
-5.05361e-09
6.47878e-09
5.31854e-09
-9.09984e-09
-6.6837e-09
-1.44552e-09
1.29861e-09
9.18682e-09
-1.26006e-08
1.87754e-09
9.27761e-09
-5.38543e-09
-1.89658e-09
3.70602e-09
-1.62126e-09
-7.13831e-09
-5.52508e-10
-5.38245e-09
7.23359e-09
-8.19854e-09
9.52362e-09
1.40386e-10
-1.81675e-09
7.42416e-09
-6.33085e-09
-6.47867e-09
5.60979e-09
-6.38411e-09
3.49523e-09
8.87377e-09
-8.24584e-09
-4.12315e-09
4.07397e-09
-5.79894e-10
1.18557e-12
-2.68491e-09
3.01137e-09
3.74749e-09
1.2345e-09
4.95437e-09
-1.2553e-09
1.17073e-09
-8.16127e-09
3.57054e-09
-5.06407e-10
-4.31943e-09
3.02694e-09
-3.62765e-11
1.10663e-08
-8.76528e-10
-9.01914e-09
4.93611e-09
7.36471e-09
-3.56695e-09
2.89954e-09
3.6788e-09
-5.35396e-10
-4.5762e-12
-3.64047e-10
1.71861e-09
-8.61273e-09
7.25819e-09
-4.73555e-09
3.86511e-09
-1.55497e-09
4.21007e-09
-3.53174e-09
9.31388e-09
-9.15026e-09
-4.80283e-09
1.00378e-08
-1.02498e-09
1.03629e-08
-5.85184e-09
-2.43586e-09
2.93087e-09
-3.27846e-09
2.7835e-09
-2.9141e-09
-5.71071e-11
-9.68436e-10
6.79884e-09
-4.78392e-09
4.8496e-09
9.97215e-09
3.99273e-11
5.53903e-09
4.05096e-09
-7.28946e-09
8.8173e-09
-9.70262e-09
1.35233e-08
-2.82868e-09
-9.91701e-10
-4.41901e-09
5.86534e-09
2.10437e-08
-2.24897e-08
-4.61448e-11
6.9799e-09
-1.13523e-08
-3.77046e-09
3.46641e-09
-9.39832e-09
2.49704e-09
-1.78629e-08
1.15956e-08
-6.22943e-09
5.51541e-09
-4.32319e-11
7.57345e-10
-6.55154e-10
-1.53003e-09
-4.04418e-09
1.57525e-09
1.78134e-08
9.29408e-09
-6.48279e-09
9.29665e-09
5.51287e-09
5.02326e-09
9.8743e-09
-1.24004e-08
-1.31387e-08
1.14798e-08
1.61584e-09
-9.64541e-09
3.60588e-09
6.22242e-09
3.17711e-09
1.19086e-08
1.4049e-08
-2.98839e-09
-8.36999e-10
1.22379e-08
-8.41266e-09
-1.87345e-09
-1.698e-08
1.58649e-08
2.92021e-09
8.9334e-09
-1.37272e-08
9.1627e-09
-7.07955e-09
-9.50618e-11
1.10052e-08
-1.74757e-09
-7.09493e-09
8.27541e-09
1.10733e-08
5.27033e-09
-4.10595e-09
9.87861e-09
-8.04023e-09
1.00557e-08
1.67187e-09
-7.22539e-10
-9.95878e-09
1.6596e-08
-1.42579e-08
7.62059e-09
-2.91071e-09
4.23893e-09
-1.12872e-08
-5.58433e-09
1.11093e-08
4.5306e-09
4.11314e-09
-1.4224e-09
1.55962e-09
1.11855e-08
5.02108e-09
1.94671e-09
-7.42329e-09
1.67042e-08
1.82818e-09
1.71086e-09
7.50522e-09
-5.97212e-09
-1.51515e-09
-1.79182e-11
4.86608e-09
5.75647e-09
-3.11729e-09
-3.14344e-09
-1.37986e-08
1.097e-08
5.17209e-09
4.68886e-09
-8.3382e-09
-1.52273e-09
6.40612e-09
-1.33724e-08
3.82285e-09
1.95646e-09
8.08172e-09
1.3829e-08
-1.17018e-08
-2.05896e-09
-6.83215e-11
-7.68216e-09
1.77263e-08
-8.08775e-09
-4.81287e-09
-5.62815e-09
3.72989e-09
1.59176e-09
8.50742e-09
6.24085e-09
1.52154e-08
1.17522e-08
-1.1905e-08
-4.6601e-09
-8.03735e-09
3.46249e-09
-8.96133e-09
-1.53327e-09
-3.04158e-09
-9.30134e-09
-7.64976e-09
1.93789e-08
-2.42786e-09
-1.18203e-08
-1.43505e-08
1.68694e-08
8.2223e-09
-3.65972e-09
-1.63828e-08
5.16297e-09
-4.59042e-09
-1.86588e-08
2.51561e-09
1.61894e-08
-4.60684e-11
-8.47477e-09
1.0655e-08
-2.0839e-08
2.49694e-09
1.97059e-08
-2.82383e-09
-5.50716e-09
1.45127e-08
-3.84254e-09
1.34875e-08
-2.56219e-08
1.331e-08
2.69317e-09
-1.03413e-08
9.05889e-09
1.74718e-08
-5.1934e-09
1.67783e-08
2.31368e-10
-2.60197e-08
2.51497e-08
-1.73918e-09
2.60912e-09
-1.60612e-08
3.35148e-09
-2.92188e-09
3.74924e-09
2.20632e-09
-1.07095e-09
4.13607e-11
1.59843e-09
4.53098e-09
-2.14844e-09
-3.98093e-09
3.40506e-09
-1.85432e-09
4.76941e-11
-5.40234e-09
7.13217e-09
1.67523e-09
-3.00135e-09
2.12999e-09
-2.88395e-09
-4.12887e-11
6.8757e-09
-5.13174e-09
-2.2538e-09
-4.06746e-09
4.91983e-09
3.15063e-09
-1.93115e-10
-9.92352e-09
1.04765e-09
9.58951e-09
-7.13656e-10
-2.67885e-10
8.04696e-10
-1.04603e-08
5.06753e-09
4.53876e-09
-5.9858e-09
-3.62049e-09
6.14094e-09
-2.57607e-11
7.18517e-10
1.1614e-08
-1.26004e-08
7.7966e-09
7.12155e-10
-7.79023e-09
-2.33038e-10
7.95946e-09
7.01235e-11
-3.99478e-09
6.14167e-09
3.99405e-09
4.80141e-10
6.38517e-11
-4.41555e-09
-2.46287e-10
1.26723e-09
3.39458e-09
-4.05976e-09
1.24354e-10
5.15749e-09
-4.79803e-09
3.52698e-10
5.195e-09
-5.32628e-09
-1.01769e-10
5.98882e-10
-4.6796e-09
2.09723e-11
-5.4726e-09
2.91497e-10
-6.25486e-09
1.12565e-08
4.58783e-09
7.83589e-09
-2.47672e-09
1.49403e-09
4.40134e-09
1.55417e-09
4.90806e-09
-2.90987e-09
9.04387e-09
1.70186e-09
5.21162e-09
-1.62034e-10
-1.0481e-09
-8.66893e-10
1.09589e-08
1.17024e-08
5.8989e-09
7.55074e-09
5.45328e-09
-4.21785e-09
-8.78614e-09
6.14802e-09
-1.58055e-09
2.98321e-09
-1.42509e-09
1.85194e-09
5.72121e-09
1.14961e-09
2.87858e-09
2.94972e-09
-3.54157e-11
1.48e-09
-1.10894e-10
-2.16178e-09
2.78583e-10
3.73517e-09
4.05291e-09
2.57597e-09
-3.69779e-09
-2.93106e-09
-4.7388e-10
3.22356e-09
1.30325e-09
-7.13793e-10
3.20103e-11
2.84429e-09
7.47546e-10
-4.06571e-09
1.73225e-09
2.26168e-09
-2.40905e-09
4.4199e-09
-1.94699e-09
2.7615e-09
-8.48071e-11
-3.74517e-10
7.88703e-09
-4.37783e-09
-3.13463e-09
2.55732e-09
1.2023e-08
-1.55143e-08
9.34019e-10
7.05114e-09
-4.86832e-09
6.1428e-09
5.38356e-09
-3.63933e-09
9.11992e-09
-1.44735e-08
1.24047e-08
1.48237e-09
1.11316e-10
7.52627e-09
-4.51149e-09
8.2664e-09
2.3879e-09
9.92586e-09
-1.55165e-09
-1.28857e-08
5.60978e-09
6.76731e-09
-3.54128e-10
9.00118e-09
6.53444e-09
6.6715e-09
1.94452e-10
-4.55238e-09
-5.84329e-09
1.93968e-08
1.02297e-08
-8.01481e-09
9.09461e-09
-8.25035e-09
-2.71395e-09
5.15342e-09
5.81085e-09
-1.07076e-09
-1.03462e-09
-6.14501e-09
-9.43516e-09
4.60054e-09
2.12063e-09
-1.6277e-09
-8.87825e-09
1.55978e-09
-6.27419e-10
2.80169e-09
-3.73421e-09
4.88627e-09
-4.36115e-09
-4.38966e-10
4.94784e-09
-6.13666e-09
3.01242e-09
-4.07884e-09
-1.81485e-09
4.33311e-09
2.36776e-09
1.04927e-09
-6.26529e-11
-6.19786e-10
4.86109e-09
7.06446e-10
2.35982e-09
3.26952e-11
8.50119e-09
9.853e-10
5.66217e-09
3.79944e-09
3.38921e-09
1.98096e-11
-6.15058e-09
-1.06896e-08
1.14113e-08
5.42897e-09
3.19346e-09
-1.26094e-09
-8.08308e-09
8.8744e-09
-7.73045e-09
-1.18335e-08
4.49219e-09
-1.94821e-09
8.86739e-09
1.85299e-08
-8.03924e-10
-8.85158e-09
2.8824e-09
2.01397e-08
7.52715e-09
-3.72674e-09
-6.0693e-10
1.49123e-09
4.08784e-09
4.01231e-09
-7.24237e-09
4.72133e-09
2.00849e-09
-9.58611e-09
1.15899e-08
-1.52375e-08
2.01283e-08
-7.88814e-09
-8.15324e-09
3.71885e-09
-9.56854e-09
4.24756e-09
1.60214e-09
7.84573e-09
-1.78095e-09
-2.34593e-09
-1.51455e-09
-6.13848e-09
4.10693e-10
-9.77471e-09
-1.3259e-09
-2.01948e-09
2.06198e-09
1.09974e-09
-1.10498e-08
4.3763e-09
-1.2089e-08
1.58588e-08
1.07389e-09
-2.74696e-08
1.05369e-08
-1.24665e-08
6.66665e-09
1.96505e-08
-3.2059e-08
-1.26161e-08
2.43612e-08
1.08077e-08
-8.39158e-09
-2.67774e-08
-3.09319e-09
2.07763e-08
6.67807e-09
4.2212e-08
2.76457e-09
-3.41687e-08
3.01073e-08
1.01113e-08
1.99349e-09
4.7353e-09
-1.95277e-08
1.87255e-08
-3.93302e-09
-1.52717e-08
2.03339e-08
-3.26813e-10
-2.26213e-08
4.2564e-09
-7.85837e-10
-3.02271e-08
2.56407e-08
2.52429e-08
3.82773e-08
-7.58753e-09
-2.79249e-08
3.58382e-08
1.25506e-08
-2.01162e-08
1.42417e-08
-1.36531e-08
2.20172e-08
-1.23036e-08
9.01208e-09
7.3153e-09
-2.82172e-08
-3.91891e-10
5.24108e-09
1.71683e-08
4.47195e-09
1.54703e-08
-1.14133e-08
1.07386e-08
2.63155e-08
1.29961e-08
1.14289e-08
2.1015e-09
-1.6333e-10
2.30343e-08
-2.33065e-08
7.16054e-10
-1.55727e-08
2.0098e-08
1.59266e-08
2.51691e-08
-3.32016e-11
2.25924e-08
-3.015e-08
-3.33342e-09
1.50929e-08
1.83905e-08
1.22291e-08
-1.00422e-08
-3.23369e-08
-1.10705e-08
2.23779e-08
-7.90535e-09
-3.40204e-09
-1.49183e-08
-1.39724e-08
1.78202e-08
1.56079e-08
-2.17849e-09
8.94856e-09
7.28545e-09
1.26683e-08
-2.1566e-08
1.61222e-09
3.08665e-08
8.02144e-10
-1.94395e-08
1.27352e-08
1.4798e-08
7.07134e-09
2.95458e-09
-2.49442e-08
-1.08762e-08
1.02457e-08
1.26476e-08
2.65119e-08
-8.87161e-09
-1.68382e-08
2.39231e-08
1.53241e-08
2.484e-08
-1.7645e-08
-1.08277e-08
3.63263e-09
1.20496e-08
2.19138e-08
-9.12339e-09
6.53779e-09
1.88009e-08
2.78429e-08
-1.10326e-08
-2.5682e-08
1.37104e-08
3.80556e-08
-2.57231e-08
3.22977e-08
-7.12953e-09
3.21047e-08
-6.24723e-09
-1.87279e-08
3.16825e-09
-1.93191e-08
2.22542e-08
-6.10308e-09
-2.33767e-08
6.64226e-12
1.61988e-08
7.17138e-09
1.28246e-08
-2.76865e-08
-8.51474e-09
-3.7189e-10
2.0747e-08
-7.55046e-09
2.11296e-08
-8.36228e-09
-1.31392e-08
-8.61135e-09
2.43426e-08
-2.28607e-08
-1.19046e-09
1.23646e-08
9.57287e-09
1.13279e-08
1.63304e-08
1.04525e-08
-1.45228e-08
-1.22601e-08
7.67201e-09
-4.32338e-09
1.29818e-08
-3.12917e-09
6.4099e-09
4.3913e-09
1.19153e-08
2.16917e-09
-1.72137e-08
-1.45884e-08
1.26162e-09
9.00348e-09
1.68147e-09
-5.81741e-09
-9.72519e-09
-3.65749e-09
1.97926e-08
-1.49409e-08
1.7131e-08
-1.61011e-08
-7.20212e-10
1.28162e-08
4.00518e-09
-3.27467e-09
-3.65616e-09
-9.17026e-09
-1.17062e-08
5.0343e-09
7.93359e-09
-5.92425e-09
-4.10048e-09
-1.15569e-08
1.29337e-08
1.9565e-08
-1.52974e-08
-7.54223e-09
3.90392e-09
9.21547e-09
-5.30216e-09
-7.56944e-09
1.04748e-08
-6.45575e-09
-4.77062e-09
8.64386e-09
-1.918e-08
-1.79514e-10
1.07159e-08
-1.02446e-08
1.99432e-08
-1.05469e-09
-1.73656e-08
-1.98991e-08
1.80847e-08
-1.39108e-08
-5.04704e-09
1.59237e-09
-2.16501e-08
1.16865e-08
9.78421e-09
-1.47249e-08
8.95033e-09
-1.58755e-08
5.99329e-09
-8.171e-09
-1.25471e-08
3.25274e-09
-9.3885e-09
-7.77506e-09
-1.0653e-08
2.22762e-08
-1.65593e-09
-5.81554e-09
-1.48047e-08
-1.20536e-08
-6.34416e-09
-1.60009e-08
-7.10234e-09
1.71614e-08
1.22172e-08
8.03095e-09
-1.55063e-08
-6.9143e-10
8.16676e-09
1.70848e-08
-4.71772e-09
-4.3361e-09
3.63834e-09
1.17009e-08
-1.16006e-08
-1.47551e-08
1.46549e-08
-2.44761e-09
-1.05236e-10
1.42536e-08
1.75866e-08
-3.4585e-09
1.55076e-08
-2.96357e-08
2.99751e-09
2.15205e-08
-6.93142e-09
9.34917e-09
6.36166e-09
-1.91694e-08
1.29517e-08
-6.05035e-10
-2.33819e-09
1.43595e-08
-1.21687e-08
1.47256e-10
1.1097e-08
-1.13379e-08
-2.09749e-09
-2.16941e-09
1.26734e-08
-1.22055e-08
1.74514e-08
1.62745e-08
8.70004e-09
-5.39792e-09
4.94511e-09
-1.01841e-08
-2.40619e-09
1.60514e-08
1.57361e-08
2.56089e-09
-8.45708e-10
1.17557e-08
-2.05957e-08
-2.51256e-08
3.39657e-08
-4.26967e-09
-5.15654e-09
2.11819e-08
-2.2734e-08
6.00407e-09
1.97403e-08
-3.01033e-09
2.82561e-08
-1.8628e-08
-1.61863e-08
6.5582e-09
-2.22725e-08
4.28472e-08
7.68137e-09
1.86315e-08
-1.51158e-08
-2.41114e-08
1.43309e-08
-1.84333e-08
4.87293e-09
-1.62184e-09
-1.83668e-08
-5.9521e-09
-1.66554e-08
2.74804e-08
5.58255e-09
1.549e-08
-2.26944e-08
2.50791e-08
-2.54486e-08
2.33578e-08
-1.69067e-08
8.07586e-09
-6.9906e-09
-4.96601e-09
3.57014e-09
7.24602e-09
-1.87558e-09
-8.94066e-09
9.05676e-09
-7.09308e-09
1.60642e-09
4.46151e-09
5.6059e-11
1.05151e-08
-1.50328e-08
1.14786e-08
3.45102e-10
-7.36225e-09
3.1996e-09
1.17879e-08
-3.50887e-09
1.88799e-08
-1.5152e-08
-5.28406e-10
7.25414e-09
-1.02478e-09
5.55837e-09
-1.48361e-08
2.24864e-10
2.18654e-08
-3.06333e-09
4.79776e-09
7.32225e-09
3.15785e-09
1.83459e-09
-1.52489e-10
-8.77523e-09
-3.19225e-09
-4.26105e-09
7.79832e-09
6.9472e-09
-1.00834e-08
-1.21781e-08
1.62219e-08
1.08109e-08
-1.54478e-08
4.17257e-09
8.35867e-09
-5.58408e-09
6.52534e-09
-5.18192e-10
-9.38448e-09
1.44071e-08
1.38e-09
-2.7472e-09
1.21359e-08
-2.39728e-09
9.27678e-09
-6.51766e-09
-1.02573e-09
1.29271e-08
-5.38368e-09
1.50735e-08
-4.85848e-09
-1.67327e-08
5.16325e-09
-2.14989e-09
6.50364e-09
-9.51701e-09
8.63067e-09
-4.49315e-09
4.88872e-09
1.06988e-08
-5.14195e-10
1.1878e-08
5.93778e-09
7.61122e-09
-1.46196e-08
-2.87641e-09
1.00037e-08
-6.23636e-10
1.13532e-08
-5.59903e-09
5.7045e-09
-4.45827e-10
6.61899e-09
-9.76326e-09
7.51264e-10
1.47164e-08
-3.91968e-09
4.85511e-09
7.68588e-09
6.5357e-09
-6.61044e-09
5.97712e-09
3.49933e-09
5.27227e-10
6.95535e-09
1.03749e-08
-3.41803e-09
-5.62807e-09
9.79713e-09
3.09115e-09
1.72657e-09
2.0396e-09
8.50679e-09
1.52825e-09
4.60526e-09
-7.88441e-09
-1.12538e-08
-7.3191e-09
-1.24556e-08
-2.21129e-08
-1.9521e-09
-2.14801e-08
1.1794e-08
-2.70238e-08
-2.04577e-08
1.42299e-08
5.39812e-09
8.2974e-10
2.13994e-10
-4.632e-09
-1.60397e-08
7.01573e-10
-4.83845e-09
-9.20472e-09
1.33416e-08
-7.79835e-09
-3.27269e-09
1.17726e-08
-3.21903e-09
-1.0811e-08
1.4244e-08
-1.076e-09
1.24692e-08
-1.60251e-08
-2.49855e-09
-8.23182e-09
7.5114e-09
-1.17401e-08
8.16553e-09
-1.51234e-08
-1.68312e-09
1.1968e-08
1.14719e-09
-1.029e-08
-6.18959e-11
-7.01607e-09
3.64925e-10
1.15767e-08
-9.39753e-09
1.06831e-08
3.73173e-09
-1.06899e-08
5.27504e-09
9.26559e-09
-8.80654e-09
1.77824e-10
-9.56199e-09
2.36811e-09
-5.5538e-10
-1.02136e-08
7.91169e-11
-9.51688e-09
-1.83641e-08
1.6518e-08
-1.78285e-08
3.95161e-09
1.24957e-08
-3.34255e-09
1.53576e-08
7.77763e-09
-8.19853e-09
-1.71014e-09
1.31076e-08
-7.66689e-09
1.01749e-09
-1.28376e-08
1.32937e-08
5.02714e-09
-5.48324e-09
-1.07976e-08
7.75199e-09
-9.79198e-09
1.46816e-08
-4.9183e-09
-2.75918e-08
2.59585e-09
-1.6736e-08
-8.03965e-09
1.02811e-08
-5.55637e-09
1.08104e-08
1.42439e-09
7.71236e-10
7.01713e-09
-8.61093e-09
7.74634e-10
-9.29466e-09
2.17658e-09
1.3694e-09
5.74869e-09
4.07393e-09
-5.20229e-09
-8.16635e-09
6.77441e-10
6.50183e-09
-9.52467e-09
2.34537e-09
9.49635e-09
-7.52734e-09
7.55318e-10
-2.7244e-09
-5.96537e-09
2.59126e-09
5.55077e-09
-2.008e-09
1.16543e-10
2.05388e-09
-6.03806e-09
4.66161e-09
8.80905e-10
-6.00251e-09
9.15997e-09
-4.03839e-09
3.72484e-09
7.14085e-09
5.5066e-09
1.66839e-09
-5.1211e-09
3.64802e-09
-1.49415e-10
4.62064e-10
1.23027e-08
-9.03988e-09
6.85944e-09
-4.31015e-09
6.18714e-09
4.32032e-09
9.24049e-09
5.25964e-09
-4.69644e-10
-1.67721e-09
-3.11281e-09
6.73848e-09
-1.18257e-09
-5.36147e-09
6.50555e-09
1.04255e-09
-8.09624e-10
-1.64895e-09
-6.06756e-10
8.76124e-09
-7.42431e-09
-2.82898e-09
-6.16879e-09
-2.12997e-10
-7.66304e-10
-3.83964e-09
6.99383e-09
2.72585e-09
2.39136e-09
-8.75657e-09
1.08536e-08
-2.3657e-09
-6.00438e-09
3.86846e-09
-6.9303e-10
-6.91351e-09
1.34495e-08
-1.15059e-09
-2.22409e-08
9.94212e-09
-2.49176e-09
1.13044e-09
-1.21898e-09
-1.77848e-08
-7.98005e-09
-1.06838e-08
-1.15237e-08
-1.22998e-08
-2.49903e-08
8.00554e-09
-1.98399e-08
-2.64072e-08
-8.13518e-09
-7.27921e-09
5.38133e-09
1.25845e-08
1.40636e-09
-1.113e-08
-2.86081e-09
-5.94705e-09
6.77806e-09
-1.01354e-08
-1.31785e-08
-4.24535e-09
-5.20659e-09
-6.83452e-10
-9.54576e-09
-1.13426e-09
-1.03997e-08
-6.27842e-10
5.08055e-09
-5.47781e-09
-6.90271e-09
1.24378e-08
-5.61572e-09
-1.69036e-08
1.00815e-08
6.24368e-09
-3.35163e-09
-7.38164e-09
-1.41481e-08
-1.84752e-08
1.88464e-09
3.5612e-09
2.164e-10
-1.61343e-08
1.09301e-08
2.2681e-09
2.93607e-09
-7.76171e-09
6.82114e-09
-1.51938e-08
-1.48979e-08
9.25679e-09
-4.80443e-09
1.31313e-08
-1.24605e-08
4.13376e-09
1.14447e-09
-4.06419e-09
-1.47273e-08
1.42324e-08
1.1425e-08
-1.50603e-09
-6.40013e-09
-9.17473e-09
4.3474e-09
7.8196e-09
-2.99234e-09
-2.20158e-10
-4.53367e-10
8.92398e-09
-8.59135e-09
-5.52835e-10
1.13778e-08
1.89363e-09
-4.28656e-09
-6.77176e-09
5.5243e-09
9.32694e-10
3.14785e-10
1.0417e-09
-1.8466e-09
-5.96685e-09
8.34495e-09
-2.01806e-08
1.17125e-08
1.23166e-10
1.30711e-09
1.54345e-08
-8.44287e-09
1.00864e-08
-6.01821e-10
8.9391e-09
-1.01305e-08
-1.20044e-08
1.31959e-08
-4.50147e-09
1.14352e-08
-5.62658e-09
-4.15932e-09
9.51213e-09
1.71512e-10
-1.33776e-08
-4.35057e-09
-1.06505e-08
1.13149e-08
-4.82369e-09
-1.14722e-08
-5.12102e-09
1.01317e-08
2.03706e-09
-1.33959e-08
5.79487e-09
-6.67448e-10
3.7441e-09
7.56009e-09
2.47879e-09
4.87811e-09
1.23215e-09
-5.10369e-09
6.35033e-09
-4.8468e-09
9.82305e-09
6.00981e-09
-5.31102e-09
-7.732e-09
1.27079e-08
3.94595e-10
-1.62198e-09
-8.71402e-09
2.66385e-08
-3.16145e-08
1.36903e-08
1.6692e-08
-2.55277e-08
1.21826e-10
-1.45657e-08
1.03106e-08
-7.87804e-09
1.21333e-08
-8.07172e-10
-1.08791e-08
-2.87946e-09
-1.40761e-08
3.14757e-09
3.7567e-08
-6.65721e-09
9.27316e-09
2.0633e-08
-5.47097e-09
-1.59255e-08
7.63536e-10
-8.36195e-09
3.21425e-08
1.42121e-08
-1.17082e-08
-3.31107e-09
1.61607e-08
-9.76245e-09
-3.38585e-08
1.20065e-08
-1.69297e-08
2.06181e-08
-1.66785e-08
1.29901e-08
-1.90608e-08
-8.74792e-09
6.08289e-09
-1.32041e-08
-3.97499e-09
-2.52927e-08
-3.95094e-10
-1.59365e-08
6.18283e-09
-2.41048e-08
-7.51443e-09
-3.39498e-08
-3.79778e-09
-7.04406e-09
-5.83663e-09
-1.11476e-08
-1.17109e-08
-6.80608e-09
-1.23038e-08
-2.20727e-09
-1.23512e-08
7.60004e-09
-2.09549e-08
-1.24102e-08
5.28362e-09
-2.98382e-09
-6.26579e-09
3.96603e-09
-5.32809e-10
5.32125e-09
4.95183e-10
3.63172e-09
-2.63296e-11
-6.5892e-09
3.07753e-09
2.13893e-11
-4.60519e-09
-1.17488e-10
4.01846e-09
7.04224e-10
-4.51257e-09
3.47612e-09
-3.5687e-09
-7.54636e-09
6.4197e-09
1.00921e-09
-3.91381e-09
3.96351e-09
-7.59606e-09
5.05321e-09
3.61645e-10
-9.35426e-11
-4.29008e-10
3.44017e-09
6.63749e-11
-8.45272e-09
-3.07469e-09
3.87786e-09
3.21529e-09
-2.75649e-11
-7.97892e-09
7.59592e-09
7.95079e-09
-7.56778e-09
-5.27695e-10
-3.88642e-09
-3.56478e-09
6.34912e-09
-2.91333e-09
6.49396e-09
6.27485e-09
2.46454e-09
1.11328e-10
5.01999e-09
9.88601e-10
7.96988e-09
4.19459e-09
4.29878e-09
-1.50551e-09
6.37196e-09
2.80041e-09
-2.72785e-09
-7.20468e-10
5.57691e-09
-2.12853e-09
-2.86284e-09
2.58554e-10
-1.23496e-10
5.27803e-09
1.1976e-09
-1.03657e-10
-3.69571e-10
4.99821e-10
5.14783e-09
7.55523e-09
1.61226e-09
-2.05245e-09
5.23502e-09
4.37269e-09
-2.69805e-09
-2.02893e-10
3.81538e-11
3.02291e-09
6.29508e-10
-3.75603e-09
-4.46915e-11
-1.19079e-08
3.39968e-09
9.36211e-10
-1.12318e-08
-2.94668e-09
4.31922e-09
-5.78575e-09
4.41324e-09
-3.05578e-09
-9.37211e-11
-3.80239e-09
7.40118e-09
7.97216e-09
-4.18265e-10
-6.61765e-09
1.30071e-09
-3.72697e-09
-4.9033e-09
9.62495e-09
2.3193e-09
-1.77217e-08
5.77738e-09
-1.38322e-08
1.63356e-08
7.12157e-09
-1.21048e-08
-1.83718e-08
2.50857e-08
5.39076e-09
-1.70848e-08
7.29926e-09
-2.52728e-09
-1.15948e-08
2.89681e-10
-1.68356e-08
-3.41342e-09
3.69202e-09
-1.10905e-08
-9.68643e-09
-5.12205e-09
-9.55781e-09
1.43781e-08
1.16123e-08
-1.29507e-08
-1.30397e-08
3.32896e-09
-3.24735e-09
-1.69174e-08
-7.93236e-09
-3.33544e-10
-8.04105e-10
-1.81871e-08
1.46394e-08
4.35172e-09
-1.5142e-08
-3.18536e-09
-2.01681e-09
5.10092e-09
1.01261e-10
-2.37868e-09
-8.52585e-10
4.59322e-11
5.77022e-10
-2.90703e-09
-4.86463e-11
-4.92119e-09
5.59708e-10
4.93852e-09
-2.58184e-09
-3.25958e-09
3.82467e-09
-3.37891e-09
-5.54944e-11
2.13245e-09
-4.02281e-10
-4.6372e-09
-5.0618e-09
2.27307e-09
-4.98871e-09
-1.35039e-09
3.07956e-09
-3.73041e-09
-4.6372e-09
2.64057e-09
-6.77326e-09
9.31189e-09
-8.21108e-09
1.5398e-09
-3.65571e-09
1.10307e-08
3.17112e-09
-1.05461e-08
4.3058e-09
7.4439e-09
4.07918e-09
6.8916e-09
-1.72311e-09
2.27536e-09
7.71212e-09
-2.34976e-09
-3.65172e-09
-3.12769e-09
2.28893e-09
8.55082e-09
3.06825e-10
4.27534e-09
2.92297e-09
2.27372e-09
-2.8155e-11
5.77292e-09
-4.85314e-09
-1.89765e-09
9.77724e-10
-3.75926e-09
5.71525e-09
3.81686e-09
-1.26799e-08
9.4961e-09
5.5986e-11
-8.81068e-09
-7.52094e-09
-2.75022e-11
6.59171e-09
-1.19959e-09
3.48464e-09
-1.14146e-11
4.79156e-09
-6.05151e-09
-1.67337e-10
2.09247e-09
6.03975e-09
-2.41702e-09
-1.07877e-08
5.93152e-09
5.54957e-09
8.57694e-09
-1.40258e-09
-5.27773e-09
-1.89664e-09
-2.18249e-09
3.48601e-09
7.27344e-09
-4.42696e-09
4.07407e-09
-2.62779e-09
2.98072e-09
-4.5404e-09
-1.28914e-09
1.10587e-08
-7.76939e-09
-8.56699e-09
2.11805e-09
6.75814e-09
-2.17303e-09
7.57453e-09
-1.36255e-10
-5.26521e-09
-1.4568e-09
-8.4856e-09
9.15322e-10
6.64477e-09
2.80341e-09
-3.08003e-09
-4.26378e-09
1.9476e-10
-1.91193e-11
3.84512e-09
5.8475e-09
1.00869e-09
-5.54551e-09
-3.60202e-09
-3.61628e-09
8.13368e-09
-4.42543e-09
-2.60121e-09
3.42469e-09
-1.04063e-09
1.26952e-09
-5.0742e-09
-3.91854e-10
1.53019e-09
2.39701e-09
-2.91851e-09
-3.68026e-09
-9.43156e-12
7.11489e-09
1.15224e-08
-8.48929e-09
-1.01481e-08
-6.86585e-09
-4.3443e-09
1.8325e-08
7.32925e-09
3.32563e-09
8.67442e-10
-1.7121e-09
3.94543e-09
9.50417e-09
-1.17376e-08
7.74668e-09
1.53648e-08
-1.57823e-08
-1.32062e-09
-5.83235e-10
1.00496e-08
-8.14575e-09
7.66212e-09
-6.82202e-09
2.4855e-09
-1.95873e-10
6.53737e-09
1.31547e-09
9.65729e-10
-1.07706e-08
2.57163e-09
-8.12217e-09
-1.83681e-09
-6.63737e-09
1.65207e-09
3.37099e-09
-5.1709e-09
-3.69783e-11
-5.13903e-09
7.67059e-10
4.17608e-09
-1.88933e-09
1.21236e-10
-5.66347e-09
-1.18649e-09
6.26669e-09
-1.00971e-08
2.72141e-09
-1.73094e-09
8.96168e-10
-4.33621e-09
-7.40262e-09
-3.37349e-09
6.75179e-09
-6.6542e-09
3.27578e-09
-5.19292e-09
-7.00941e-11
6.33236e-09
1.1945e-09
-8.72007e-09
-3.60573e-11
-4.26073e-09
-5.49587e-09
7.52738e-09
2.19868e-10
-5.72964e-09
-2.01764e-09
8.69141e-10
7.57028e-09
-9.12064e-10
-2.64028e-09
-9.15151e-09
1.20116e-08
-5.46115e-09
1.18307e-10
6.21193e-09
3.37887e-09
-4.93316e-09
-1.59535e-09
-4.86952e-10
3.94841e-09
6.34466e-09
-4.11732e-09
-1.08365e-09
8.70759e-09
-7.50566e-09
-1.05736e-08
1.01503e-08
-6.60376e-10
-2.23853e-09
-9.09172e-09
7.5659e-10
2.87048e-09
3.20359e-09
-1.85791e-09
-4.21616e-09
5.03176e-09
-2.76818e-09
-1.32771e-09
4.88158e-09
1.47794e-09
1.91821e-09
-4.23108e-11
2.68538e-09
6.28404e-09
3.28595e-09
-7.16334e-09
-4.15701e-09
5.29289e-09
-7.25201e-10
3.27728e-09
-4.14836e-09
-3.16958e-09
6.68869e-09
-8.33717e-10
-1.24587e-09
-5.54442e-12
-2.12817e-09
2.70486e-09
4.71615e-09
-9.68226e-11
9.16206e-09
3.07671e-09
-4.64913e-09
-7.58977e-09
9.09243e-09
-7.27003e-10
7.96576e-10
1.04776e-08
-2.04348e-09
-5.35744e-09
8.73642e-09
1.08335e-08
9.46465e-09
-6.40656e-10
-1.34732e-08
8.6512e-09
8.63773e-11
-6.11598e-09
1.18002e-08
-7.7277e-09
-1.96851e-08
1.29285e-08
1.47857e-09
2.07805e-09
5.17967e-09
2.43264e-09
-1.00652e-08
9.11106e-09
-3.31208e-10
-1.31766e-08
1.59404e-08
-1.0694e-08
1.24409e-08
-8.58031e-09
2.88933e-09
-4.30331e-09
-5.66623e-10
-9.72064e-09
-1.56703e-08
-1.37984e-09
2.03485e-09
1.50153e-08
-3.57491e-10
-1.25455e-08
-2.76727e-09
-1.18597e-08
7.14101e-10
9.76582e-09
-2.14298e-09
-6.0336e-09
-3.68313e-09
-1.21615e-08
1.50024e-08
-8.05999e-10
-2.89254e-09
-9.62642e-09
-7.62923e-09
-7.05921e-09
3.55997e-10
-1.69948e-08
9.00961e-09
-7.46514e-09
1.00918e-09
1.75878e-10
6.28015e-09
6.17207e-09
-1.32812e-08
7.02391e-09
-6.88541e-09
-6.9601e-09
6.38215e-09
1.29205e-09
1.52403e-08
-1.50848e-08
-4.10862e-09
3.95313e-09
-9.72461e-09
1.50765e-08
9.88826e-09
-7.67743e-09
-5.75748e-10
5.41273e-09
2.84049e-09
-1.96063e-09
-6.97228e-09
9.22802e-09
-2.95142e-10
-1.80419e-09
-5.01672e-09
4.86029e-09
-3.46244e-09
-7.08321e-09
3.57335e-09
3.06629e-09
-6.25339e-09
-2.75382e-10
8.20635e-09
-8.58281e-09
-1.47084e-08
1.10554e-09
-2.62385e-09
-1.0744e-08
-1.04199e-09
-3.14317e-09
6.38661e-09
-6.31948e-09
3.07607e-09
2.00137e-09
-5.07041e-09
-7.41069e-11
4.00665e-09
5.09418e-11
4.06474e-09
-4.5309e-09
-5.78725e-09
-1.91295e-09
5.80024e-09
-4.89808e-10
-1.38932e-08
-3.37865e-09
-4.29829e-11
-2.89783e-09
-3.38239e-09
-5.06668e-09
-4.98675e-09
-8.40309e-09
-6.31809e-09
-7.23394e-10
6.53484e-09
5.06706e-10
-4.56353e-11
-1.42798e-09
-4.84445e-09
4.59201e-09
-1.10424e-09
-3.53339e-09
3.909e-09
-4.03658e-11
-5.71631e-10
4.49014e-09
-9.42189e-12
-4.18233e-09
5.49005e-09
-4.9002e-09
-4.68354e-09
-7.03895e-11
5.34171e-09
-5.20161e-10
1.71332e-09
-8.50695e-10
9.3938e-10
-9.01152e-10
-1.45837e-10
-4.45633e-09
-3.1773e-10
-1.26113e-10
-5.20691e-09
-3.93294e-09
7.02113e-09
-1.0325e-09
-7.41657e-09
5.37875e-09
1.12223e-09
-1.19081e-09
-5.12033e-09
3.78192e-10
-6.40876e-09
-6.81531e-09
5.54712e-09
-7.77041e-09
-8.70186e-09
2.08821e-10
-1.46129e-09
9.9544e-09
-8.95316e-09
5.79844e-09
-8.21166e-10
1.92881e-09
-9.54454e-10
-8.36473e-09
7.39041e-09
4.74358e-09
-3.98746e-09
-7.54903e-10
-1.17437e-12
-9.06034e-09
7.7066e-09
1.04139e-09
3.12361e-10
-8.43905e-09
1.30754e-09
3.36336e-09
-4.47146e-09
1.53664e-10
2.00194e-09
5.8825e-09
7.19916e-09
1.05859e-09
-7.21632e-09
2.80294e-09
5.80812e-10
-2.03681e-11
-2.1312e-09
-3.46479e-09
5.33734e-10
5.06228e-09
7.06991e-09
5.49224e-09
-8.49421e-10
-5.61878e-09
9.75987e-10
5.31666e-09
-5.50917e-09
-1.75988e-10
3.68523e-10
-5.9092e-09
1.60252e-09
7.08971e-09
-2.78301e-09
1.87756e-10
-7.80291e-10
-3.47944e-10
-3.1389e-10
-1.36819e-09
1.35129e-09
-4.21504e-09
6.3513e-09
-3.60907e-09
-4.182e-10
-3.5303e-09
-4.26699e-10
-1.77146e-09
4.97245e-09
-3.25998e-09
5.89518e-11
3.01679e-09
-4.76115e-09
-2.7119e-11
-1.4921e-09
4.43933e-09
6.95259e-11
3.53346e-10
-4.24127e-09
3.93772e-09
-4.97785e-11
-3.70558e-09
4.09171e-09
-3.281e-11
-1.51353e-09
-3.4114e-09
4.89876e-09
2.62016e-11
-2.63807e-09
-1.67974e-09
4.17743e-09
1.4039e-10
-4.06534e-09
-8.62715e-11
3.3509e-09
-5.07485e-09
4.42494e-11
3.81093e-10
-4.85478e-09
4.54396e-09
-7.02383e-11
4.77859e-09
1.57725e-11
-1.84869e-09
4.58136e-09
5.0796e-11
-4.56441e-09
2.8699e-09
-1.54162e-10
-7.32005e-11
4.66991e-09
-1.52922e-11
-1.66065e-09
7.26539e-09
-5.93553e-09
3.30802e-10
-4.52369e-09
2.90712e-09
-4.41667e-11
-4.24717e-10
-3.49394e-09
-1.4257e-11
3.60128e-09
-3.99402e-09
-3.19743e-11
-1.87505e-09
-2.34696e-09
4.192e-09
2.99827e-11
-5.29438e-09
3.58185e-09
-1.62507e-10
-5.42273e-09
3.18e-09
-1.04281e-10
9.70044e-10
-4.5099e-09
3.59864e-09
-5.87284e-11
4.75657e-09
-3.88354e-09
9.70152e-11
-1.77836e-09
-2.8537e-09
4.60185e-09
3.01383e-11
2.96566e-09