/*--------------------------------*- C++ -*----------------------------------*\
| =========                 |                                                 |
| \\      /  F ield         | OpenFOAM: The Open Source CFD Toolbox           |
|  \\    /   O peration     | Version:  v1612+                                |
|   \\  /    A nd           | Web:      www.OpenFOAM.com                      |
|    \\/     M anipulation  |                                                 |
\*---------------------------------------------------------------------------*/
FoamFile
{
    version     2.0;
    format      ascii;
    class       surfaceScalarField;
    location    "150";
    object      phi;
}
// * * * * * * * * * * * * * * * * * * * * * * * * * * * * * * * * * * * * * //

dimensions      [0 3 -1 0 0 0 0];

internalField   nonuniform List<scalar> 
36890
(
6.46164e-09
2.15492e-09
-5.97519e-09
-2.64138e-09
-4.81963e-09
1.1761e-09
3.46622e-09
1.77317e-10
7.46612e-09
7.29847e-10
-5.91109e-09
-2.2849e-09
-2.08653e-09
3.32546e-09
6.2272e-09
1.06434e-08
-2.23663e-09
-2.31635e-09
-6.0904e-09
6.22276e-09
2.3341e-09
2.52079e-09
-2.57012e-09
5.66347e-09
-5.61415e-09
1.57228e-08
-1.20315e-08
-5.92798e-09
-3.72142e-09
7.4489e-09
-4.02032e-10
-2.89369e-09
-9.78965e-11
-3.07041e-09
-5.15703e-09
1.90906e-09
-9.2631e-09
4.37426e-09
2.97975e-09
1.00303e-09
-2.1644e-09
3.72992e-09
-2.91155e-09
1.84645e-10
1.12685e-09
-2.90633e-10
-3.07085e-09
-5.68016e-09
3.65871e-09
5.09227e-09
-4.77734e-09
6.55232e-10
1.05124e-09
8.08139e-10
-4.99771e-09
-1.49062e-09
-3.72136e-09
-2.47865e-10
-2.6706e-09
-4.10844e-09
1.04377e-08
-4.28157e-09
2.26616e-09
-4.973e-09
-6.12442e-09
6.81586e-09
-3.12959e-09
-1.33226e-09
-5.11172e-10
-7.00918e-09
7.7395e-10
1.10806e-10
-4.9097e-09
-5.22908e-09
6.80647e-09
-4.25638e-09
-1.25241e-08
9.97399e-09
1.08611e-08
-1.16152e-09
-2.89316e-09
1.51423e-08
-8.38959e-09
-4.27312e-09
-7.80519e-10
1.67881e-09
-1.08449e-08
-4.26046e-09
-1.89879e-09
-6.85477e-09
7.08191e-09
-2.25115e-10
-6.01423e-09
-8.42578e-10
-3.29416e-09
5.09574e-09
5.28032e-09
-7.05745e-09
-1.34998e-09
8.18231e-09
2.95551e-09
-4.95735e-09
-4.01239e-09
-4.81941e-10
1.43277e-10
-6.44609e-09
3.82959e-09
-2.62672e-10
2.87915e-09
1.03381e-09
-4.9102e-09
-1.35703e-09
5.23338e-09
-2.9764e-09
3.6982e-09
3.11986e-10
-3.57108e-09
2.97942e-09
-6.46579e-09
-6.88919e-13
-8.52774e-09
-3.64644e-09
1.8809e-10
-1.03959e-09
-2.42709e-09
-2.67398e-09
-3.27582e-09
-6.32111e-09
1.47423e-08
-5.76437e-09
-1.17229e-09
-7.80571e-09
-7.08303e-09
1.35433e-08
-2.44521e-09
1.66412e-09
6.87925e-09
-6.09822e-09
5.02625e-09
5.93718e-10
-8.06525e-09
-8.68022e-09
-2.33237e-10
1.83035e-09
-9.41835e-09
6.32711e-10
-1.8984e-09
-4.2869e-09
-4.18204e-09
-3.60927e-09
-4.12312e-09
-4.91396e-09
9.01993e-10
5.22965e-09
7.66946e-09
-9.78183e-09
-3.11713e-09
8.68301e-09
-2.71612e-09
-7.37109e-10
6.1535e-09
-5.68761e-09
8.21715e-09
1.09779e-08
-3.99911e-09
6.90713e-10
2.16193e-09
1.49695e-08
8.39762e-09
-8.51562e-09
-2.59806e-09
-1.22979e-09
3.93984e-09
9.41992e-09
-8.71753e-09
-4.7015e-09
-4.72505e-09
1.63069e-08
-7.19575e-09
-1.04729e-08
1.29436e-08
-1.33148e-08
4.88936e-09
-1.41562e-09
-1.03956e-08
2.02946e-09
-1.14499e-08
9.72593e-09
3.08429e-10
-1.2368e-09
5.70796e-09
-1.48667e-08
5.64624e-09
-1.83329e-08
2.16266e-09
-4.98487e-09
-7.65049e-09
-4.63168e-09
-6.52043e-09
-7.43931e-09
-5.54477e-09
6.55318e-09
-4.88344e-09
1.22164e-08
9.66677e-09
-4.23599e-09
-1.76472e-08
1.25686e-08
2.55712e-09
-2.90932e-09
1.49883e-08
3.52471e-09
-8.84621e-09
6.05593e-09
1.27702e-08
-9.24744e-09
-9.57871e-09
7.20849e-09
-2.21669e-09
1.06412e-09
9.41094e-09
-5.19146e-09
-5.12928e-09
9.09793e-10
-9.25825e-09
1.85684e-08
1.00816e-10
4.62714e-11
1.32865e-08
-7.64174e-10
1.56512e-08
-6.16698e-10
-1.81602e-08
1.75516e-08
7.81715e-09
-2.8329e-09
-8.99608e-09
1.58792e-09
1.77088e-08
-1.19871e-08
-1.0851e-08
-3.40309e-09
1.18536e-08
4.46365e-09
7.78451e-09
1.05014e-08
7.24877e-09
-3.44603e-09
5.66982e-09
-1.12199e-08
-1.69295e-08
-2.79252e-09
-1.61057e-10
-2.90071e-09
-1.19984e-09
1.93043e-09
-2.64829e-09
-2.28369e-09
-9.74828e-10
7.19208e-12
6.43526e-10
-3.99322e-09
7.01419e-10
2.91394e-09
-8.76657e-10
-2.19834e-09
1.47479e-09
-1.86457e-09
-9.21748e-10
-4.87886e-11
1.80126e-09
-2.03439e-09
-9.5293e-11
-5.75552e-09
1.53618e-09
-2.73416e-09
6.95357e-09
4.77776e-09
-9.0092e-09
-1.52406e-09
-1.4907e-08
3.78586e-09
9.72384e-09
1.39746e-09
7.48832e-10
3.27525e-09
-5.98287e-09
-2.42433e-09
9.94341e-09
-7.8715e-09
6.6664e-09
-1.05205e-08
1.10798e-10
7.67557e-09
-1.03124e-08
5.08911e-09
2.91934e-09
-1.24829e-08
7.31847e-09
-8.11508e-09
-2.07055e-08
6.3919e-09
8.84438e-09
5.46925e-09
-3.88505e-09
-1.46579e-08
-2.1625e-09
-9.80557e-09
7.49206e-09
1.15693e-08
-1.2535e-08
1.00897e-08
9.99488e-09
-1.0956e-08
8.46961e-09
-1.96463e-09
-1.75172e-08
1.10121e-08
7.90474e-09
-1.39857e-08
1.45506e-08
-2.98939e-09
1.80853e-08
-2.16679e-08
6.57188e-09
-8.88186e-09
1.65907e-08
4.15339e-09
-1.18623e-08
1.00623e-08
-1.15648e-08
-7.3794e-09
-1.58317e-08
-1.28962e-09
2.15376e-08
-4.4164e-09
-6.28076e-09
5.11331e-10
-2.2686e-08
3.3847e-09
1.63118e-08
-3.70114e-10
-1.44111e-08
-2.13549e-08
7.82537e-09
-6.08516e-09
2.13862e-08
-2.20407e-08
1.93402e-08
-1.46672e-08
-7.74372e-09
2.6108e-09
-8.76319e-09
8.05537e-09
-1.90289e-09
-8.4452e-09
9.8282e-09
1.2279e-09
-3.41098e-09
-9.52829e-10
-4.39917e-09
-3.8937e-09
-7.96246e-09
-5.89495e-09
9.15004e-09
-1.01959e-09
-2.23549e-09
-8.03414e-10
-8.9852e-09
-4.88628e-09
5.86123e-09
7.08045e-09
2.65775e-09
2.28426e-09
5.0812e-09
9.61923e-09
-5.55031e-09
6.49991e-09
1.23911e-09
2.56609e-09
-3.40882e-09
-8.15611e-09
8.99906e-09
-1.85711e-09
3.47058e-09
-7.13957e-09
9.72597e-09
-3.60592e-09
-1.13518e-08
6.65476e-09
-2.03854e-09
5.00307e-09
3.27107e-09
9.88364e-09
1.06828e-08
-6.54357e-09
-2.21016e-09
-1.92899e-09
-6.30868e-09
5.37797e-09
1.16135e-08
-2.33478e-09
1.14671e-08
1.65961e-08
-1.34136e-08
8.24888e-09
1.1944e-08
-8.90075e-09
9.06051e-09
1.80998e-09
3.47176e-09
-1.43422e-08
1.10798e-08
3.50017e-09
-5.51945e-09
3.81643e-09
7.66611e-09
-4.027e-10
1.0167e-08
-8.76928e-09
2.41866e-09
4.0276e-10
8.84903e-09
9.1534e-10
7.63541e-10
7.30541e-09
3.58198e-10
1.18491e-08
-1.11029e-08
-1.10429e-09
-6.02305e-10
1.08219e-08
-9.86132e-09
5.7882e-09
4.08799e-09
-8.06617e-09
1.06316e-08
-1.34316e-09
4.43176e-09
-9.72928e-09
1.07929e-08
-4.95627e-09
-2.3271e-10
-9.21555e-09
1.44045e-08
-1.47034e-08
1.38351e-08
-7.63617e-09
1.18352e-08
3.80256e-09
-1.47321e-08
-1.15263e-09
1.2082e-08
-1.62114e-08
2.09236e-09
1.79216e-08
1.08019e-08
-9.85577e-09
-1.56783e-08
-3.87792e-09
-1.53158e-09
-3.83276e-10
1.50264e-08
-1.25507e-08
1.92031e-09
-1.30051e-09
-1.66422e-08
1.60224e-08
-1.34987e-08
1.50357e-08
1.09678e-08
-6.06738e-09
8.96784e-09
-1.38683e-08
-2.08194e-09
-4.48955e-10
9.06658e-09
2.08009e-09
-1.72141e-08
-2.06196e-09
9.0466e-09
-1.52593e-08
1.28061e-08
2.53692e-09
-1.02113e-08
5.52094e-09
-1.32967e-08
-7.20144e-09
1.23708e-08
1.52862e-09
-6.29753e-09
-7.60196e-09
1.05775e-08
1.13889e-08
-9.59566e-09
2.183e-08
-1.3957e-09
-2.15935e-08
1.15902e-09
6.25034e-09
9.63004e-09
5.94964e-09
-1.92475e-08
5.21909e-11
1.77995e-08
2.50312e-09
-8.25187e-09
-1.34988e-08
-2.55541e-08
9.56138e-09
-5.60077e-09
-8.50603e-09
-1.45449e-08
2.3833e-08
-1.07043e-08
-2.55122e-09
-1.4622e-08
-3.24606e-09
-1.08752e-10
1.79768e-08
-1.14519e-08
-2.32128e-08
2.00427e-08
-2.02906e-09
-1.76749e-08
2.61639e-09
4.09719e-09
-8.74267e-09
8.16237e-09
-1.40521e-08
-1.12689e-08
-2.62608e-09
1.06489e-08
-3.75541e-09
-3.41633e-09
1.2845e-08
-8.43806e-09
1.8908e-08
3.49846e-09
1.38786e-08
1.12797e-08
-3.19181e-09
1.95171e-09
6.33017e-09
-5.09007e-09
4.41664e-09
-9.54774e-10
-6.65368e-09
9.12935e-09
3.23718e-09
-7.94989e-09
7.75078e-10
8.18162e-09
1.72637e-10
-2.50429e-09
1.17834e-08
-7.32737e-09
6.88845e-09
2.16797e-10
-7.26576e-09
1.16891e-08
-1.18619e-09
3.45494e-09
-8.45673e-09
4.04702e-09
1.0844e-08
-9.89332e-09
1.57444e-09
-6.88512e-10
9.99861e-09
-1.08846e-08
1.36572e-09
9.00603e-09
-8.79732e-09
9.82112e-09
1.45768e-09
5.04571e-10
9.9268e-09
6.78276e-09
1.62108e-09
1.01761e-08
-1.24857e-08
9.87534e-09
2.42631e-09
6.01744e-09
1.11154e-08
-7.25757e-09
2.41918e-09
5.21929e-09
8.4048e-10
1.26941e-08
1.2133e-08
3.49071e-09
4.81836e-09
-2.59221e-09
-5.71676e-09
4.39833e-09
4.43006e-10
-1.35057e-09
-6.06036e-09
4.40727e-09
6.05141e-09
-4.14596e-10
-8.27379e-10
5.00718e-10
-9.19433e-09
2.79592e-10
8.41412e-09
-7.16571e-09
2.75039e-10
7.39144e-09
5.26441e-09
-3.57016e-09
4.47874e-09
-6.17293e-09
5.61285e-09
-7.63041e-10
1.15992e-09
-7.32226e-09
4.00109e-09
5.41423e-09
-8.25539e-09
4.8843e-09
-5.58713e-09
-6.46284e-09
-5.95571e-09
1.6457e-09
-1.14302e-09
1.96416e-10
-4.81114e-09
4.89434e-09
4.87872e-09
5.73464e-09
-5.40581e-10
-7.15297e-10
6.53634e-09
-1.08203e-09
5.2667e-09
1.16617e-09
5.56432e-10
-6.98931e-09
9.96059e-10
-1.34814e-09
5.61878e-09
4.96157e-09
1.3791e-09
-5.17445e-09
6.20114e-09
-2.43547e-10
4.05605e-09
1.46327e-09
-4.96291e-09
4.75875e-09
-2.03356e-10
-4.99357e-10
-1.0257e-10
4.85654e-09
1.4472e-09
4.32347e-09
1.34455e-09
-5.77067e-09
4.99542e-09
4.9266e-10
-6.31423e-10
-1.11653e-09
-1.76891e-09
7.88088e-09
-2.79484e-09
6.00176e-09
-8.4263e-09
9.78478e-09
-3.12721e-09
-8.4094e-09
4.75939e-10
1.0834e-09
-8.29965e-09
8.6796e-09
-5.94689e-09
3.55154e-09
-1.58753e-09
2.05738e-08
8.59895e-09
-1.33349e-08
-1.58378e-08
7.73879e-09
5.69691e-10
1.22653e-08
-8.04166e-09
-1.06897e-08
2.14796e-09
1.69099e-08
-5.15597e-09
-3.15499e-09
1.87719e-08
5.87674e-09
-1.60628e-08
6.61494e-09
1.00176e-08
-5.61234e-09
-2.37854e-08
8.87961e-09
-1.03064e-08
-6.5294e-11
-1.30859e-08
2.9898e-09
1.01614e-08
-1.38578e-08
-1.11875e-08
1.31074e-08
-9.28029e-09
7.36038e-09
-2.75747e-09
1.0318e-08
-1.87481e-08
-1.71623e-08
8.79245e-09
-6.83192e-09
6.85339e-09
-1.66992e-09
-1.64518e-09
-1.49339e-09
4.38085e-09
-1.2423e-09
2.59971e-09
-3.65261e-09
-4.33178e-09
5.38467e-09
-8.17041e-10
-4.51785e-10
3.86852e-09
2.00043e-09
-5.04911e-09
1.86367e-09
1.185e-09
-2.04895e-09
2.40418e-09
2.448e-09
-2.46805e-09
-7.97005e-10
-1.90442e-09
2.85903e-09
1.3676e-09
-1.16814e-09
-2.6675e-09
2.18123e-09
-7.78674e-10
-3.49615e-11
-1.65083e-09
-3.47946e-10
-5.0172e-11
-2.47657e-09
-8.79334e-10
-1.69322e-09
-1.89626e-09
-2.23115e-09
-7.11308e-11
-2.13367e-09
-2.39826e-09
1.43298e-09
-1.24197e-09
2.66438e-09
1.20905e-08
-2.07285e-08
5.97357e-09
9.4754e-09
5.47482e-09
-1.22859e-08
3.59723e-10
9.66881e-09
7.5125e-09
2.3226e-09
-1.27001e-09
3.45697e-09
3.32461e-09
-5.5116e-09
4.22108e-09
-7.24451e-09
1.7533e-09
-1.0046e-08
5.58805e-10
1.00321e-09
8.48392e-09
4.94772e-09
-9.51887e-09
1.23953e-08
-4.81536e-09
-2.63223e-09
1.57739e-09
-4.51235e-09
7.15609e-09
-3.14984e-09
8.18418e-09
6.54236e-09
1.76132e-09
3.59895e-09
-1.19026e-08
9.64289e-09
9.64559e-09
-1.27461e-08
8.26818e-10
2.03683e-09
4.13926e-09
6.21919e-09
6.01783e-10
3.11799e-09
-8.23209e-09
-5.74244e-09
3.19438e-09
5.93728e-09
-2.52971e-10
-1.00011e-08
8.22946e-09
2.0246e-09
-9.02568e-09
7.32376e-09
1.44892e-09
-7.63732e-09
8.15258e-09
-1.24787e-09
7.3259e-10
6.24533e-09
-1.11098e-09
-1.27717e-08
-3.85607e-09
7.40165e-09
-1.32604e-09
-2.21958e-09
1.16001e-08
-9.21091e-09
-1.28986e-09
7.00798e-09
-6.02444e-09
3.06307e-10
5.44996e-09
-1.26484e-08
6.08749e-09
6.98188e-09
6.38114e-09
-7.91308e-09
5.68096e-09
1.10502e-11
1.59486e-09
-7.04208e-09
-3.57847e-09
-6.9181e-09
-1.48816e-09
-8.0017e-10
9.99581e-10
-7.11753e-09
6.23413e-09
-2.63353e-11
6.68795e-09
-6.49778e-09
3.10396e-11
-2.2125e-10
8.77123e-09
-1.75353e-09
-3.29767e-10
6.96112e-09
2.74297e-09
1.89601e-09
7.55805e-09
6.80471e-09
-6.27109e-09
5.45426e-09
-1.21602e-09
3.85347e-09
-7.05045e-09
4.12629e-09
-7.07726e-09
1.00014e-08
6.43203e-10
-3.83594e-09
-3.85763e-09
-5.07308e-09
-4.97433e-09
1.06906e-08
2.80204e-10
-4.66782e-09
8.56748e-09
-4.17987e-09
-3.27843e-09
-2.23536e-09
5.79402e-09
1.73215e-08
3.58999e-09
-7.1492e-09
-1.37624e-08
-6.81609e-09
1.48901e-08
9.24744e-09
-5.52978e-09
7.09326e-09
-3.38624e-09
1.82275e-09
-4.45611e-09
-1.83413e-09
9.8802e-09
-4.9287e-09
-4.60047e-09
3.45958e-10
-8.55314e-09
-1.19983e-08
7.67638e-09
7.70672e-09
1.3185e-09
-4.57755e-10
-1.10422e-10
1.60099e-09
-8.30678e-09
2.06652e-09
-5.7369e-09
-4.21699e-09
-4.28476e-09
-2.58771e-10
1.86909e-11
-5.52772e-10
-7.30232e-10
-4.45394e-09
-7.83705e-10
-4.05383e-09
-2.5789e-09
-1.02313e-10
2.66732e-09
-3.68559e-10
-3.0825e-09
2.91169e-10
-2.02777e-10
-8.67207e-10
-4.77703e-09
3.30674e-09
-4.54252e-09
2.70053e-09
-3.68071e-09
-1.91758e-10
2.61831e-09
-8.2307e-10
-2.81118e-09
9.5802e-10
-2.05033e-10
-4.35516e-09
2.90766e-09
8.29931e-09
-5.23736e-09
-3.05126e-09
-1.07e-11
4.93117e-09
-2.13299e-09
5.50112e-09
9.56998e-09
-3.8455e-09
-2.38359e-09
-3.34091e-09
3.43985e-09
1.10613e-08
-5.27847e-09
-3.80441e-09
-5.91357e-09
2.13777e-09
1.64278e-09
-6.52665e-09
-2.4382e-09
1.02313e-08
-5.25031e-09
2.60434e-09
-7.58534e-09
4.18504e-09
7.43064e-10
5.30313e-09
-2.66524e-09
-4.96867e-09
-2.63365e-09
-9.17148e-09
-3.4957e-10
7.97442e-09
1.01359e-08
-3.93555e-09
-3.59603e-09
4.77457e-09
6.10437e-09
-8.63771e-09
3.3388e-09
8.5877e-09
-4.16272e-09
-6.94886e-09
7.02323e-09
1.06078e-09
-1.13513e-09
-5.24014e-09
-5.80928e-09
4.10058e-09
-4.12844e-09
-2.29127e-09
5.68266e-09
-9.01635e-09
1.77085e-09
8.5954e-09
-2.7527e-09
-2.39279e-09
-3.4499e-09
-7.25561e-11
6.51033e-09
2.15766e-09
5.18836e-09
1.76233e-09
6.73904e-09
-2.77197e-09
-4.15476e-10
7.95618e-09
5.35384e-09
-6.57096e-09
-1.21681e-09
4.11392e-09
4.14131e-09
9.40186e-09
-1.19078e-08
-4.8634e-09
-3.1294e-09
8.38339e-10
-1.22157e-09
-1.44834e-08
-6.92655e-09
-2.19724e-10
7.98468e-09
-7.73618e-09
6.24634e-09
2.68345e-10
3.14689e-09
-3.72307e-09
3.36754e-09
-2.79139e-09
3.87647e-09
-9.29881e-10
2.00316e-10
2.30475e-09
-2.49068e-09
-3.53715e-09
3.55984e-09
-6.11137e-10
-6.43957e-10
6.62838e-10
3.21316e-09
5.38086e-09
-9.25689e-09
4.07554e-09
-5.90336e-09
-6.13004e-09
4.04501e-09
5.96147e-09
-2.11878e-09
-6.43705e-10
2.50119e-09
1.28777e-10
4.42163e-09
-1.8196e-09
2.43751e-09
-4.80876e-10
-4.95463e-09
4.03709e-09
1.10038e-09
-1.82812e-10
3.36867e-09
-3.90163e-09
-2.91343e-09
4.33174e-09
2.61885e-09
5.60228e-10
-1.04952e-10
-3.06443e-09
-1.4625e-10
3.07251e-10
2.90345e-09
-3.00972e-12
-3.88909e-09
5.07206e-09
1.25448e-09
5.22547e-09
-3.73375e-09
6.08232e-09
4.1992e-10
3.76557e-09
1.3047e-10
4.22173e-09
7.17751e-10
5.78444e-09
5.92024e-09
-7.72016e-11
-3.95169e-09
5.26673e-09
-1.23783e-09
-3.75829e-09
4.9754e-09
-1.29432e-09
-3.41816e-10
-3.34248e-09
7.03594e-09
-3.35167e-09
7.07514e-10
-3.80679e-09
-8.52416e-10
-3.0435e-09
-7.26077e-12
-2.314e-09
-1.83459e-09
-2.00252e-09
3.03414e-09
-3.34562e-09
3.95249e-09
-7.25495e-09
1.29992e-09
4.06658e-09
4.64661e-09
-4.76071e-09
-7.90189e-12
4.0225e-09
5.20033e-11
-6.16947e-10
-2.65632e-09
7.91988e-09
-1.72729e-11
6.76108e-09
-1.06802e-08
-5.93502e-09
9.85414e-09
-1.8762e-09
-9.00798e-09
1.76453e-08
-1.01464e-08
-1.09146e-08
1.91848e-08
-4.6739e-09
-8.63622e-09
3.16371e-09
-9.56205e-09
1.35183e-08
2.99735e-09
9.11966e-09
-1.10061e-08
5.4972e-09
-2.65909e-09
-9.02758e-09
5.51681e-09
-6.65485e-10
1.06385e-08
-1.17171e-08
-7.55762e-09
-6.7606e-09
6.48449e-09
5.97362e-10
-5.05262e-10
6.03639e-09
-1.02614e-08
-1.26848e-10
2.71157e-08
-5.46656e-09
-1.28599e-08
-8.78916e-09
-1.13589e-09
1.78376e-08
1.0414e-08
-1.33404e-08
-1.04948e-08
1.83686e-08
1.61658e-08
-1.2493e-08
-1.65328e-08
5.60209e-09
9.42789e-09
-3.51416e-10
-1.35738e-08
4.65432e-09
9.27088e-09
-9.76365e-09
-2.80033e-09
2.3912e-08
-1.1348e-08
-1.24783e-08
8.31679e-09
-4.64852e-09
-6.46302e-09
-1.38143e-09
8.05286e-09
-1.30528e-08
-1.79894e-08
-2.04937e-09
8.75194e-09
1.12869e-08
2.95718e-10
-8.6644e-09
-9.62077e-09
1.26433e-08
-6.69867e-09
-1.18934e-08
5.94878e-09
1.88287e-09
-1.71792e-09
-7.67391e-09
1.24269e-08
-7.55331e-09
7.38526e-09
-1.26728e-08
1.5251e-08
-7.56996e-09
5.52769e-09
1.09595e-08
9.8528e-09
-1.85821e-08
-2.23019e-09
1.22395e-08
-7.65188e-10
-5.14861e-10
1.13094e-08
1.44601e-08
-1.35299e-08
-2.47411e-09
1.45773e-08
-7.93837e-10
3.32247e-09
8.93399e-09
-5.09732e-09
-7.15912e-09
1.05945e-08
-9.51665e-09
2.24464e-09
1.03331e-08
-1.0891e-08
1.11523e-08
-9.33852e-10
9.3516e-09
1.91539e-09
9.85721e-09
-2.4785e-09
-1.064e-08
1.04721e-08
1.47452e-08
2.88621e-09
1.56437e-08
-1.53163e-08
8.60665e-09
9.60439e-09
3.83266e-09
2.2066e-09
1.92876e-09
1.39971e-08
-6.57428e-09
-8.82025e-09
5.91723e-09
1.27603e-08
1.88348e-08
-6.43386e-09
-1.3063e-09
3.96368e-09
3.09306e-09
-5.75036e-09
1.90406e-09
1.15711e-09
-4.36729e-09
-5.90464e-09
4.23557e-09
-4.97264e-09
6.64178e-09
5.09242e-09
-1.36932e-08
2.69621e-09
-2.48903e-09
-8.0966e-10
7.53432e-09
-4.19858e-09
6.80201e-09
2.17671e-09
-2.15574e-09
3.94277e-09
-3.48067e-09
-9.45383e-09
-7.58584e-10
-1.05758e-09
-1.34367e-09
-3.15025e-09
5.55157e-09
-1.26654e-09
-4.28158e-09
4.49055e-09
-3.2943e-09
4.66138e-09
-2.08537e-09
6.95149e-10
-8.69577e-10
-5.64097e-09
2.31209e-09
1.6678e-09
-4.69304e-09
-5.14035e-09
-3.98123e-09
-7.38505e-09
3.27041e-10
-8.34822e-09
-3.03314e-10
-5.1024e-09
-1.38158e-09
1.96058e-09
-8.75338e-09
-2.41499e-09
9.2078e-09
8.29024e-10
5.71144e-09
-4.57988e-09
5.06995e-09
-1.4471e-08
6.4768e-10
8.35535e-09
-3.53576e-09
2.50348e-10
9.1931e-09
7.00023e-11
-9.07774e-10
-4.67852e-09
-4.41432e-09
1.01278e-08
-4.68582e-09
-1.01205e-08
2.03697e-08
7.3491e-09
-1.43905e-08
-1.33282e-08
1.5831e-08
-5.13934e-09
9.678e-09
1.42495e-09
-1.7547e-08
1.04092e-08
5.71285e-09
4.7837e-09
-1.17381e-08
8.37933e-09
-7.14157e-09
-1.3171e-08
1.17774e-09
1.91349e-08
-1.21271e-08
9.76925e-09
1.61508e-08
-4.50227e-09
-4.29943e-09
2.13483e-08
1.06336e-08
-5.34925e-10
-1.40531e-08
1.41697e-09
6.81232e-10
-1.33432e-08
5.99243e-09
6.04207e-09
5.14843e-09
-1.71829e-08
9.87895e-09
3.38627e-09
-7.27277e-09
-1.07325e-08
4.92773e-09
-1.9081e-08
-7.56395e-09
-1.14179e-08
1.43488e-09
-1.24724e-08
-6.82959e-09
-6.04119e-09
-7.52379e-09
1.50144e-08
-4.10438e-09
-1.33562e-08
1.09808e-08
-5.96163e-09
1.9858e-09
5.56237e-10
-3.49894e-09
8.23121e-09
1.17174e-08
-1.64497e-08
1.34731e-08
1.38774e-09
-7.53713e-09
2.67164e-09
7.30252e-09
3.89616e-09
1.08194e-08
-1.56506e-08
9.35076e-10
1.13674e-08
6.40737e-09
3.8748e-09
-6.88169e-10
7.6328e-09
1.59857e-09
1.36437e-08
3.00047e-09
-1.7184e-08
8.58274e-09
5.7269e-09
1.21343e-08
1.46103e-08
-5.53064e-09
-7.69194e-09
8.56262e-09
8.71932e-09
-5.58696e-09
-6.56516e-09
-1.83032e-09
9.15582e-09
-6.2933e-09
3.77482e-09
-6.2993e-09
7.32711e-09
-6.55845e-09
7.15363e-09
-1.04525e-08
9.55825e-09
-2.89003e-09
6.58912e-10
1.18276e-08
-1.3234e-09
-2.90901e-09
5.28967e-09
-3.63852e-09
1.25789e-09
6.08235e-09
-9.39403e-09
-2.08629e-09
6.10142e-09
1.27461e-09
-7.25962e-09
5.1719e-09
1.4309e-12
6.13966e-09
-7.3169e-09
5.91159e-09
2.81921e-09
-2.6293e-09
7.48828e-09
-5.40338e-09
6.76415e-09
-7.46645e-09
1.35709e-08
-1.92864e-10
-6.84318e-09
4.54867e-09
-9.12884e-10
-8.85908e-10
9.10431e-09
-1.61638e-09
-2.03067e-08
-7.28355e-09
1.67393e-08
-1.40624e-08
-9.03684e-09
1.40054e-08
-3.72607e-09
-1.38863e-08
3.60691e-09
-8.77185e-09
1.07877e-08
1.19896e-08
3.99081e-09
-1.11748e-08
1.0262e-08
-1.05765e-08
1.00774e-08
-9.76288e-09
1.31791e-08
-1.8032e-08
-9.20943e-09
1.37645e-09
4.51911e-09
2.06625e-08
-8.96499e-09
4.24352e-09
7.39491e-09
-9.86709e-09
3.65838e-09
4.92115e-10
5.71646e-09
-7.47743e-10
-7.58713e-09
-1.53228e-09
-9.1137e-09
2.47748e-09
1.02945e-08
-7.6967e-09
-2.16481e-09
-1.99083e-09
-7.19615e-09
1.16641e-08
-2.53386e-09
-5.14979e-09
5.69271e-09
-6.33476e-09
4.29298e-09
-1.46453e-09
-6.81221e-09
6.89574e-10
4.76027e-09
-2.6335e-10
3.89391e-09
2.92633e-09
-7.30126e-09
9.20443e-09
-4.05609e-09
-7.74242e-10
-8.05165e-09
1.12915e-09
8.2706e-09
1.59508e-10
-3.48612e-10
1.42305e-09
4.21842e-10
2.64722e-09
-2.67444e-09
-4.78151e-09
-7.79978e-09
2.05561e-09
-6.54355e-09
1.56209e-10
3.91597e-09
-7.42599e-09
5.21747e-10
2.98831e-09
1.58152e-10
7.20871e-09
-3.4509e-09
8.32461e-09
-5.04105e-09
-1.37461e-09
-1.90893e-09
2.95422e-09
-3.31569e-09
-2.65601e-09
6.12986e-09
-5.92858e-09
3.13465e-09
-2.8627e-09
-5.26261e-09
4.98167e-09
3.14365e-09
-5.56617e-09
1.55737e-09
1.14609e-09
3.33199e-09
-6.12501e-09
-2.77316e-09
-1.73933e-09
-1.91301e-10
-2.596e-09
-6.34581e-09
-7.08891e-09
2.71771e-09
4.18933e-09
2.23134e-09
-2.32959e-09
-1.20121e-09
-3.96931e-10
-7.24009e-09
-4.93026e-09
-3.53324e-09
6.14247e-09
-5.25966e-09
-5.03221e-10
-3.7952e-10
8.76283e-10
3.91564e-09
-5.10637e-10
8.77565e-09
-7.38553e-09
-8.794e-10
-4.67583e-09
-1.09455e-09
-6.48049e-09
6.21377e-09
-5.40624e-09
-8.1373e-10
-9.21003e-09
1.15052e-08
-2.4513e-09
6.58871e-09
-1.1523e-08
-3.56998e-09
1.41096e-09
-2.51679e-09
1.85958e-09
2.04751e-09
-3.65819e-09
-5.71159e-09
-2.26804e-09
-3.30563e-09
-6.89681e-10
-5.10424e-09
2.0912e-09
-4.5056e-09
1.0494e-08
-8.07964e-09
1.07642e-08
-2.43581e-09
-6.23726e-09
9.08434e-10
4.19718e-09
5.60413e-09
-1.07097e-08
7.49334e-09
-1.10905e-08
-7.5938e-09
6.64841e-09
1.17096e-08
-6.71215e-10
3.57139e-09
1.0122e-08
3.12103e-09
-5.74973e-09
7.13287e-09
-5.3715e-09
6.87587e-09
2.57493e-09
-1.33515e-08
5.9796e-09
4.05795e-11
7.33136e-09
-9.59328e-09
-1.38931e-09
-2.36895e-09
5.59299e-09
-9.58216e-09
1.25117e-08
-3.79768e-09
9.02596e-09
-3.2824e-09
5.0543e-09
9.95126e-09
3.18864e-09
-5.79324e-09
9.48046e-09
1.48913e-08
6.75905e-09
-2.43166e-08
3.90174e-09
1.09148e-08
9.50005e-09
-6.77828e-09
3.50542e-09
-2.10438e-08
1.82945e-08
-1.33099e-08
8.33149e-10
-5.8177e-09
1.08401e-08
1.13562e-08
-2.16666e-09
1.29835e-08
-1.57286e-09
-7.90524e-09
8.04815e-09
1.58501e-08
1.20893e-09
7.31213e-09
-1.06878e-08
8.10409e-09
3.88993e-09
-1.07851e-08
-1.06387e-08
2.5196e-09
1.89591e-08
1.38031e-08
-9.24953e-09
-3.72039e-09
-6.10513e-09
9.26952e-09
-1.44786e-09
1.19855e-08
-2.43356e-09
-3.38526e-09
9.61162e-09
-7.29458e-09
-6.85577e-09
1.74235e-08
3.21486e-09
2.66552e-09
5.97074e-09
1.05875e-08
-9.13868e-09
-3.8681e-10
-1.06199e-09
-1.50918e-09
1.0826e-09
1.10141e-08
4.41591e-09
-8.48378e-09
-5.07081e-09
6.7324e-09
-2.41492e-09
9.84182e-11
1.12855e-08
-9.71947e-09
-1.95284e-09
8.48543e-11
9.69151e-09
-5.41397e-09
-6.69221e-09
-1.83921e-09
1.39454e-08
7.64464e-10
7.69957e-10
-1.00182e-08
4.10074e-12
7.8109e-09
1.43891e-09
-1.03939e-08
-1.04133e-08
8.97095e-09
1.52721e-09
-9.04426e-09
-6.78302e-09
5.49705e-09
1.2288e-09
-5.9559e-09
3.1864e-09
-1.04264e-10
5.86358e-09
-7.31527e-09
-5.24051e-09
8.66895e-09
3.81023e-10
-3.51471e-10
-7.25387e-09
-6.43794e-09
9.98958e-09
-1.31653e-09
2.22716e-09
6.22321e-09
9.69943e-09
-1.81497e-08
1.01819e-08
1.27962e-08
-2.0751e-08
1.19196e-08
-1.39329e-08
5.10343e-09
-3.09011e-09
3.43054e-09
1.09937e-08
-2.50459e-09
-1.23607e-08
6.06573e-09
1.25182e-08
-6.82374e-10
-8.24775e-09
1.57253e-11
6.72199e-10
-1.52605e-08
1.45726e-08
1.07454e-08
2.64078e-10
-1.53498e-08
1.8691e-08
6.84072e-09
1.74636e-09
-7.49175e-09
1.50141e-08
1.79704e-09
6.41754e-09
5.83721e-09
-1.19191e-08
-3.3561e-10
6.75335e-09
5.72792e-09
-6.06373e-09
2.54163e-09
4.04309e-09
-7.4753e-10
7.17668e-09
2.1183e-09
4.876e-09
8.7272e-10
-2.08001e-11
4.87615e-09
7.17653e-09
-8.84727e-09
-5.79142e-09
2.01109e-09
1.26276e-08
-2.79575e-09
-2.00844e-09
4.47419e-09
9.04118e-09
-6.34071e-09
-7.17466e-09
5.30355e-09
4.33606e-11
-1.08845e-08
-1.17261e-09
6.26565e-09
-7.0344e-09
-6.64581e-09
-3.25244e-09
1.01397e-08
-3.52241e-09
5.57353e-09
4.34615e-09
-1.51576e-08
1.30931e-08
-4.3099e-11
2.10759e-09
-1.71817e-08
2.43051e-09
-4.06347e-10
8.71576e-11
1.43926e-08
-4.31269e-10
-1.40485e-08
1.25016e-08
2.46284e-09
-1.263e-08
-2.3345e-09
1.35836e-08
9.45837e-10
-2.02785e-09
-1.33831e-08
-4.50333e-09
1.07241e-08
7.16231e-09
-1.64645e-08
8.47276e-09
-5.39137e-09
-2.02234e-08
7.51989e-09
8.20017e-09
1.83731e-10
-1.72043e-08
-3.20276e-09
1.34126e-08
-2.32303e-10
1.22043e-10
2.65983e-09
1.16107e-08
5.98354e-09
8.28807e-09
-6.87983e-10
-1.38179e-08
-1.38209e-08
9.121e-09
1.5424e-08
6.35438e-10
1.12929e-08
1.55735e-08
-1.93465e-08
2.44074e-09
1.10939e-08
2.86455e-09
8.08336e-09
9.73592e-10
1.27601e-08
1.29591e-08
-2.39749e-09
5.47737e-09
2.81281e-10
-3.36117e-09
6.73788e-09
-2.14646e-09
-6.98891e-09
-3.72863e-09
5.5426e-09
3.6634e-09
2.90925e-09
9.99817e-11
4.14755e-09
-7.25621e-09
7.35037e-09
-4.24174e-09
6.74685e-09
3.09943e-10
6.14082e-10
-1.00167e-08
3.24935e-09
-7.46988e-10
4.84801e-09
2.13678e-09
7.85942e-09
2.45181e-09
9.16658e-09
-1.10043e-08
7.68901e-09
-4.9559e-09
-3.55328e-09
-7.28948e-09
9.52509e-10
9.89027e-09
-3.70113e-09
-3.22027e-09
3.36819e-09
-3.30161e-09
8.63189e-09
5.19933e-09
-7.71166e-09
6.13907e-09
1.82082e-09
-2.48e-10
-4.99359e-09
-8.95665e-09
6.23859e-09
1.46431e-09
2.16402e-09
-3.44519e-10
9.94444e-09
-3.46079e-09
-5.59448e-09
7.91066e-09
-2.66067e-09
-1.94357e-11
-2.2103e-09
-2.10087e-09
-6.07251e-09
6.69502e-09
-2.18905e-09
1.56656e-09
-5.53133e-09
-2.60948e-09
2.45518e-09
1.00988e-08
5.4574e-09
7.92425e-09
-3.13817e-09
1.35496e-10
1.0743e-08
9.19856e-09
-6.6079e-09
-4.53125e-09
-8.66534e-10
8.21706e-09
-3.44299e-09
1.86324e-10
1.365e-09
-2.42976e-09
-2.57366e-09
-3.46726e-09
4.88748e-09
-5.51913e-11
2.47066e-09
5.63562e-09
-7.55445e-09
-5.51756e-10
-2.16871e-09
2.92139e-09
-5.66043e-09
4.90786e-09
8.671e-10
-5.46549e-09
2.65133e-09
-5.25146e-09
1.7144e-09
-2.69899e-10
-4.32021e-09
5.92436e-09
4.77264e-09
-3.35606e-09
1.23478e-09
2.16686e-09
3.64386e-10
-3.73603e-09
-7.33809e-09
-6.5207e-09
-2.82098e-09
9.70608e-09
-6.46197e-09
7.40036e-09
1.46858e-09
1.65548e-09
1.07937e-10
-9.41389e-09
5.56994e-09
5.49553e-09
4.10082e-09
7.37805e-09
9.09188e-09
-1.39968e-09
2.4066e-09
-4.64921e-09
8.84578e-09
4.8953e-09
-8.00526e-09
6.84236e-09
-6.86234e-09
8.02535e-09
4.25674e-09
-1.16434e-08
-6.18471e-10
-1.26977e-08
1.56026e-08
3.93755e-09
-8.54704e-09
1.06147e-10
1.00858e-09
9.53572e-09
1.82395e-09
2.72547e-09
6.96975e-09
-9.27574e-09
-9.33734e-09
1.93134e-09
-4.9007e-09
7.96722e-09
-9.51325e-09
-1.97261e-09
2.69879e-10
-5.47131e-10
-5.2282e-09
5.50541e-09
7.61315e-09
-7.06129e-09
-2.8201e-10
7.26461e-09
-2.25484e-09
3.17438e-09
6.90572e-09
5.07969e-10
-1.6578e-09
-5.75591e-09
-7.35968e-09
1.18549e-08
2.76936e-09
-9.50518e-09
1.80388e-09
3.41593e-10
-2.31835e-09
-3.07569e-11
2.57839e-09
-3.14352e-09
-3.05994e-09
5.06033e-10
-5.3012e-09
7.8551e-09
5.79023e-09
-2.98047e-09
5.03415e-09
-7.84392e-09
6.52627e-09
7.99258e-09
2.88864e-09
4.70545e-09
9.74965e-09
-9.48499e-09
1.19597e-08
-3.37761e-09
-8.0761e-09
-2.04039e-09
-5.14412e-09
-1.29237e-09
8.47685e-09
-2.97186e-09
-5.30436e-09
6.2358e-09
-2.21031e-10
-1.24753e-08
9.72444e-09
3.42265e-09
-1.52299e-08
1.15862e-08
-4.87974e-09
-5.81837e-09
5.55394e-09
8.0003e-10
-5.798e-09
1.18181e-10
-7.64758e-09
9.77785e-09
-4.8502e-09
3.45854e-10
2.40747e-09
-6.77503e-09
-1.08624e-08
-7.92887e-09
-2.13902e-09
-8.576e-10
-8.09959e-09
1.02829e-09
-5.6435e-09
-6.43168e-11
1.06925e-08
-9.30796e-09
-7.18257e-09
2.20881e-10
4.65324e-09
-3.91229e-10
2.3017e-09
1.43435e-09
-7.46909e-09
-1.29656e-08
5.53888e-09
2.46825e-09
-1.03419e-08
-9.24762e-09
-1.24974e-09
7.28866e-10
2.16957e-10
-8.38973e-09
7.44387e-09
4.1234e-11
5.52451e-09
-1.67127e-10
-5.3986e-09
-8.3796e-09
-8.74172e-09
9.02515e-09
8.09624e-09
-1.45432e-08
6.19593e-09
-3.23804e-11
-4.5144e-09
-7.24603e-09
1.11435e-08
-7.87622e-09
7.97195e-09
-5.45139e-11
4.92452e-09
-1.05634e-08
1.11634e-08
7.05339e-09
1.64582e-09
-1.25025e-08
3.80322e-09
6.80662e-09
-1.42964e-08
1.63418e-11
-1.95143e-09
6.94488e-09
5.74749e-09
-6.49646e-09
1.28615e-09
1.46839e-08
6.21427e-09
-9.08285e-09
-8.30404e-09
1.45147e-08
-8.85326e-09
1.27808e-09
-2.6226e-09
4.20624e-09
-5.37401e-09
5.33125e-09
-4.16348e-09
4.60175e-09
-6.58572e-10
2.63072e-10
-3.3981e-09
6.71272e-10
4.36116e-09
-1.6343e-09
4.00635e-09
1.01491e-09
-8.41936e-09
4.70987e-09
-3.22288e-11
-9.74823e-09
5.38913e-09
6.83529e-09
-1.32886e-09
-1.75194e-10
5.24024e-09
6.19678e-09
4.09672e-09
-4.5407e-11
6.53069e-10
1.31768e-08
-8.58962e-09
-7.92912e-09
-4.62746e-09
1.32097e-08
2.18842e-10
-8.16721e-09
1.2998e-08
-5.04964e-09
-5.06744e-09
-2.64289e-09
-8.00575e-09
8.48379e-10
5.82848e-09
6.59397e-09
-7.30023e-09
6.06325e-09
6.44427e-09
1.15491e-09
5.61054e-09
8.8341e-09
1.0787e-08
-6.6623e-09
-3.62502e-09
1.32274e-08
-2.94005e-09
-5.90331e-09
7.58141e-09
-8.3404e-09
-8.6499e-09
-9.49509e-10
1.88689e-08
-9.48375e-09
-4.78411e-09
5.61794e-09
-1.00098e-08
-7.6975e-09
4.25579e-09
4.18746e-09
1.43717e-09
2.43736e-09
-1.10558e-08
7.0597e-09
-7.20401e-09
1.12001e-08
-1.32818e-08
4.8915e-09
-5.82529e-09
1.19355e-08
-8.37303e-09
6.80353e-09
2.24646e-10
-1.01628e-09
9.63229e-09
-9.62849e-09
6.34688e-09
-9.9964e-09
-6.32508e-10
2.59999e-09
-6.6531e-09
-7.35311e-09
1.14061e-08
-5.9312e-09
-4.28039e-09
1.28115e-08
-3.52265e-09
-6.49291e-09
4.0843e-09
-1.06315e-08
4.55725e-10
-1.59567e-08
3.40094e-09
1.15054e-08
1.05031e-09
-1.25834e-08
-3.50204e-09
1.28742e-10
-1.4516e-08
4.41811e-09
-1.09193e-08
-1.61802e-08
-5.28773e-09
-8.27958e-09
9.28688e-09
-4.72804e-09
-1.24948e-08
9.86966e-09
-1.34189e-08
3.40307e-09
-1.34532e-08
-9.26037e-10
1.88444e-09
6.51966e-09
-1.26544e-08
-7.31844e-09
-7.8306e-09
1.54402e-09
-2.06389e-10
1.05064e-08
-6.8289e-10
-1.33255e-08
-8.13398e-09
1.3984e-09
-8.47691e-09
1.5777e-09
-3.0567e-09
-9.46899e-09
-7.97019e-09
-8.64071e-09
-1.17098e-08
4.55907e-09
1.51475e-09
-1.433e-08
8.2561e-09
1.72266e-09
1.03254e-08
-7.48901e-09
-4.3001e-09
9.09324e-09
-3.07045e-09
7.08508e-09
-9.87043e-09
1.14638e-08
-3.95607e-09
2.81767e-09
-9.88781e-09
4.16881e-09
1.286e-08
-7.14106e-09
-7.63251e-10
-1.0825e-08
1.70044e-09
-8.07405e-09
-1.03617e-08
8.08681e-09
1.0349e-08
-9.8896e-09
1.05229e-09
7.24586e-09
-1.91522e-08
1.01529e-09
5.7776e-10
1.00206e-08
-1.50508e-09
7.71111e-09
-4.82656e-11
-5.7591e-10
1.09365e-08
1.10318e-09
1.22682e-08
-1.21372e-08
1.3305e-09
-5.46406e-09
2.35017e-09
-4.24946e-09
1.65051e-08
-1.48066e-09
-1.12635e-08
3.22483e-09
9.51934e-09
8.80971e-09
-7.09241e-09
6.34997e-10
-2.35228e-09
8.9432e-10
6.43473e-09
1.06478e-08
-6.54564e-09
6.09806e-09
-1.02003e-08
7.01874e-10
4.53652e-09
5.40945e-09
5.00538e-09
-3.04307e-09
-8.50795e-09
-4.46558e-10
5.54448e-09
-9.25462e-11
-5.33574e-09
-1.01272e-09
-4.91503e-09
-4.32553e-09
-8.10261e-09
-1.05914e-08
5.25037e-09
6.04285e-09
-5.50601e-09