/*--------------------------------*- C++ -*----------------------------------*\
| =========                 |                                                 |
| \\      /  F ield         | OpenFOAM: The Open Source CFD Toolbox           |
|  \\    /   O peration     | Version:  v1612+                                |
|   \\  /    A nd           | Web:      www.OpenFOAM.com                      |
|    \\/     M anipulation  |                                                 |
\*---------------------------------------------------------------------------*/
FoamFile
{
    version     2.0;
    format      ascii;
    class       volScalarField;
    location    "50";
    object      p;
}
// * * * * * * * * * * * * * * * * * * * * * * * * * * * * * * * * * * * * * //

dimensions      [0 2 -2 0 0 0 0];

internalField   nonuniform List<scalar> 
17088
(
1.98511
1.9463
2.09637
2.09049
2.10906
2.10156
2.11434
2.11028
2.08485
2.09424
2.11002
2.11291
2.10583
2.09738
2.09717
1.95108
1.95201
1.95399
1.95523
1.9517
1.95177
1.95611
1.95654
1.95842
1.95615
1.95413
1.95188
1.95108
1.95743
1.94289
1.9402
1.94007
1.94157
1.94334
1.94442
1.94937
1.93279
1.93934
1.95245
1.95059
1.95285
1.93771
1.94722
1.94426
1.92154
1.93374
1.93133
1.9385
1.93832
1.93176
1.93559
1.93632
1.93404
1.93116
1.93271
1.93354
1.9326
1.93249
1.9356
1.92998
1.93168
2.02546
2.0286
2.01836
2.02538
2.03415
2.02497
2.04214
2.03589
2.03821
2.04119
2.01498
2.04274
2.04068
2.03241
2.03266
1.9905
1.98731
1.99354
1.9872
1.98204
1.99585
1.99049
1.9842
1.98389
1.99491
1.99933
2.00366
1.99371
2.01766
2.03079
2.01694
2.0147
1.98634
1.98557
1.99468
1.98982
2.00522
1.99102
1.99344
1.99403
2.00781
2.00624
2.01609
2.02698
1.9535
1.95814
2.02388
2.03817
2.0199
2.01435
2.00572
2.01176
2.00787
2.02323
2.00157
1.99521
2.01952
2.01677
2.00275
2.00241
1.93211
1.93252
1.92524
1.93435
1.93052
1.94087
1.93764
1.93209
1.93848
1.93046
1.93508
1.94365
1.94989
1.94657
1.9466
1.93968
2.00861
2.01853
2.00197
2.01125
2.02062
1.987
1.99571
2.00106
1.98245
1.97225
1.98986
1.99363
1.99366
1.98217
1.97138
1.97132
1.9895
1.9254
1.93344
1.9351
1.93489
1.92968
1.93062
1.93274
1.93001
1.93189
1.93024
1.92975
1.92943
1.93195
1.93139
1.92674
1.93073
1.93321
1.93126
1.92937
1.96089
1.96193
1.95959
1.96121
1.95824
1.96313
1.96293
1.9654
1.96016
1.95891
1.96638
1.96531
1.96553
1.96637
1.96519
1.97095
1.97082
1.96946
1.99331
1.9882
1.98232
1.98537
1.9833
1.97862
1.98768
1.99254
1.9862
1.98572
1.98247
1.98096
1.9816
1.98188
1.98699
1.98626
1.98176
2.02651
2.03917
2.03556
2.033
2.03846
2.01326
2.0082
2.0352
2.03485
2.01009
2.01419
2.00996
1.97816
1.97832
1.99552
1.99116
1.97961
1.99257
1.98191
1.9742
1.98465
1.9914
1.98513
1.98523
1.98295
1.98153
1.97944
1.96512
1.96169
1.94811
1.96406
1.96675
1.96967
1.96052
1.96426
1.97262
1.95398
1.95639
1.95772
1.95508
1.95315
1.96378
1.98884
1.98726
1.98846
1.98826
1.99137
1.99371
1.93846
1.93354
1.93491
1.93808
1.929
1.93568
1.93254
1.93423
1.93607
1.92881
1.93439
1.93384
1.93225
1.92801
1.92622
1.96935
1.97059
1.97085
1.96302
1.96712
1.9653
1.96907
1.97079
1.97016
1.96569
1.96555
1.96977
1.97052
1.96308
1.9644
1.96597
1.96513
1.96532
1.96298
1.97252
1.99478
1.9779
1.98551
1.9664
1.978
1.98514
2.00162
1.97388
1.98114
1.98261
1.99415
1.98384
1.98875
1.97893
1.98758
1.97614
1.97773
1.99436
1.99354
1.98188
1.98821
1.98852
1.98047
2.018
2.01047
2.01946
2.01769
2.02182
2.01259
2.01593
2.01068
2.00462
2.01076
2.00814
2.00814
2.00293
2.0107
2.00539
1.92917
1.92736
1.93008
1.92361
1.92719
1.9277
1.92769
1.92556
1.92256
1.92518
1.92793
1.92804
1.9263
1.92785
1.92818
1.92575
1.96613
1.96681
1.95932
1.97465
1.97505
1.96734
1.9649
1.96318
1.97274
1.96668
1.9597
1.97008
1.97298
1.98222
1.98064
1.97446
1.97399
1.9761
2.07986
2.07588
2.0822
2.07346
2.0713
2.07332
2.07408
2.06963
2.09872
2.08634
2.09803
2.07171
2.06584
2.06742
2.07206
2.09273
1.93972
1.93314
1.93155
1.94077
1.94023
1.94135
1.94651
1.94736
1.94473
1.93751
1.95288
1.96486
1.95582
1.94077
1.95166
1.94717
2.00942
2.00586
2.01975
2.00143
2.00723
2.02319
2.02752
2.03244
2.03843
2.03212
2.00106
2.02503
2.01175
2.03548
2.03326
2.0079
2.02253
2.02515
1.95019
1.9567
1.95641
1.95159
1.96266
1.96101
1.954
1.96096
1.95601
1.97807
1.96255
1.97153
1.95829
1.96057
1.95995
1.96698
1.96111
1.96429
1.96524
1.96679
1.96211
1.96948
1.96786
1.96839
1.96997
1.95913
1.96851
1.96882
1.97036
1.96743
1.96999
1.96596
1.93381
1.93334
1.93495
1.93419
1.93484
1.93533
1.93875
1.9367
1.9358
1.93683
1.94013
1.93749
1.93241
1.9416
1.93661
1.94077
1.9339
1.93948
1.94872
1.95059
1.95546
1.95606
1.95649
1.95505
1.96234
1.95798
1.96251
1.95254
1.9637
1.95307
1.94948
1.96809
1.96077
1.96481
1.96505
1.98492
1.98454
1.97059
1.97281
1.98752
1.97434
1.99902
1.97393
1.99543
1.98634
1.99668
2.00198
2.02523
2.00924
2.02385
2.02276
2.02808
2.01953
2.00832
2.02317
2.01115
2.03215
2.02767
2.03165
2.01332
2.01275
2.00948
2.02265
2.02934
2.00821
2.02993
2.03937
2.02528
2.02881
2.03628
2.03007
2.0017
2.00115
1.98642
1.99246
1.99389
1.99401
1.99783
2.00843
1.99167
1.99893
2.00004
2.01523
2.00484
2.00904
2.0038
2.0003
2.00457
2.01688
2.01204
2.00948
2.00222
1.90959
1.9159
1.90808
1.91084
1.91232
1.91799
1.91853
1.91372
1.9154
1.91382
1.91739
1.91554
1.91883
1.91578
1.91643
1.9142
1.91599
1.92016
1.94644
1.94551
1.94809
1.94908
1.95518
1.94467
1.93584
1.94021
1.94949
1.95346
1.9476
1.9471
1.94144
1.93871
1.95541
1.94203
1.95797
1.95041
1.94722
1.94531
1.95336
1.95332
1.94562
1.94142
1.93334
1.94743
1.94976
1.95402
1.95209
1.94051
1.94236
1.94562
1.94334
2.0521
2.05671
2.04702
2.05705
2.04151
2.05473
2.05925
2.05957
2.06016
2.0707
2.04454
2.05413
2.05333
2.04975
2.04693
2.05378
2.05076
2.06125
1.91748
1.92101
1.9255
1.93619
1.91869
1.92496
1.93359
1.92247
1.92273
1.93194
1.93506
1.92942
1.91872
1.93133
1.91727
2.03278
2.0392
2.03385
2.03022
2.02387
2.03419
2.02858
2.03983
2.01766
2.00695
2.03738
2.01535
2.01042
1.97253
1.97261
1.96632
1.97085
1.96568
1.97137
1.97614
1.97312
1.96057
1.96972
1.96403
1.97344
1.96777
1.96488
1.96907
1.95974
1.97137
1.96554
1.97265
1.97097
1.97048
1.97206
1.97439
1.96364
1.97617
1.96088
1.96922
1.9592
1.97315
1.96505
1.96816
1.96049
1.96614
1.9573
1.96202
1.97164
1.96606
1.96159
1.96067
1.95991
1.96509
1.96355
1.96238
1.95937
1.95795
1.96662
1.96135
2.0479
2.05476
2.05464
2.04828
2.02864
2.02728
2.0386
2.04045
2.04062
2.05159
2.03759
2.0258
1.99434
1.99199
2.01524
2.0279
1.98904
2.00123
2.01082
2.01372
2.02355
2.00369
2.00216
2.00254
2.01118
2.02377
1.99958
2.0021
2.01662
2.0063
2.01004
1.99626
1.99582
1.98802
1.99087
1.99466
1.98361
1.99545
1.98724
1.99153
1.99176
1.98782
1.99511
1.99758
1.99449
1.99155
2.00421
1.98277
1.99788
2.0792
2.07943
2.07211
2.07237
2.07911
2.08426
2.08785
2.07968
2.07322
2.07468
2.07965
2.06428
2.07984
2.05686
2.05923
2.06657
2.06804
2.07013
2.06546
2.08566
2.07728
2.06329
2.069
2.06129
2.04189
2.06335
2.02827
2.03942
2.05656
2.06741
2.04697
2.04241
2.04552
2.03587
2.04257
2.01642
2.04768
2.01956
2.02064
2.02271
2.02975
2.05448
1.962
1.96013
1.96146
1.96215
1.9636
1.9592
1.96176
1.96303
1.96471
1.97491
1.97612
1.97541
1.96784
1.96284
1.96316
1.95963
2.00575
2.00689
2.00668
2.00383
2.00689
2.00946
1.99829
2.00123
2.00542
2.00047
1.99964
1.99449
2.00566
2.00585
1.99068
1.99479
2.00887
2.00414
1.93027
1.93693
1.94034
1.9386
1.93752
1.93411
1.93232
1.93616
1.93304
1.9375
1.93378
1.97103
1.9546
1.95798
1.96101
1.9629
1.95947
1.96383
1.96099
1.95895
1.96168
1.95858
1.96906
1.95338
1.95624
1.95749
1.95423
1.95398
1.95817
1.96336
1.96467
1.95976
1.95117
1.95684
1.94837
1.95705
1.96192
1.95654
1.9585
2.00428
1.99238
2.00747
2.01164
2.01316
2.01121
2.00145
1.99058
1.99459
2.01048
2.00424
2.00231
1.98578
1.99282
1.98963
1.99277
2.00221
1.94779
1.93773
1.94014
1.93439
1.93507
1.96292
1.9446
1.94853
1.95349
1.95649
1.96285
1.94137
1.94446
1.95884
1.95291
1.95369
1.9564
1.95435
1.95394
1.95948
1.96022
1.95707
1.95846
1.95328
1.9645
1.95757
1.94423
1.94525
1.94657
1.94703
1.95756
1.94839
1.95619
1.95456
1.94897
1.95227
1.94372
1.95225
1.95272
1.9593
1.95268
1.95907
1.94774
1.95241
1.93757
1.93028
1.94408
1.93436
1.93226
1.93986
1.9352
1.93179
1.93027
1.93507
1.93928
1.93623
1.93552
1.93609
1.93156
1.93791
1.94071
1.93354
1.93527
1.96771
1.96445
1.96955
1.96669
1.96578
1.96138
1.96522
1.9625
1.95768
1.95977
1.96216
1.95682
1.95864
1.9211
1.9271
1.92082
1.92159
1.91328
1.91255
1.92095
1.91959
1.92961
1.92493
1.91952
1.91586
1.91675
1.91684
1.92167
1.91698
1.91988
1.91179
1.92116
1.91727
1.9184
1.9215
1.91417
1.91599
2.00344
1.99826
2.00779
2.00695
1.99258
2.00015
1.99706
1.99051
1.99312
2.00752
1.99038
1.9937
1.99189
1.98186
1.9876
1.9936
1.98237
1.9882
1.98568
1.92043
1.92162
1.92058
1.92927
1.92448
1.93301
1.92667
1.92485
1.91914
1.92835
1.92041
1.92888
2.03031
2.02404
2.01114
2.0182
2.01949
2.01472
2.01382
2.01354
2.01167
1.99307
1.99861
2.01865
2.02192
2.01719
2.01168
1.99628
2.02079
2.04407
2.0365
2.05339
2.02907
2.04008
2.03663
2.0493
2.05213
2.03296
2.04186
2.01749
2.05019
2.0369
2.02098
2.02125
1.98625
1.98669
1.94751
1.95055
1.95139
2.01508
2.02288
2.12469
2.12068
2.11327
2.04994
2.05015
2.03944
1.96152
1.95805
1.96033
1.94919
1.95137
1.94232
1.97723
1.97645
1.98311
1.92928
1.92488
1.92958
1.9731
1.97162
1.98348
2.08005
2.06934
2.06751
2.05534
1.9396
2.04944
2.04644
2.03388
2.048
1.98339
1.9814
1.97166
1.97308
1.97296
1.92845
1.92863
2.03334
2.02994
2.02087
2.01521
2.01883
2.00466
1.99924
1.99487
2.04446
2.04432
2.03641
1.92862
1.9303
1.9293
1.95001
1.95334
1.95394
2.09031
2.0912
2.08609
2.0029
2.07233
2.06636
2.07008
2.00414
2.01337
2.01371
2.02402
2.10306
2.10763
1.95608
1.95594
1.96721
1.96012
1.96041
1.96095
1.92509
1.92587
1.96332
1.96512
2.00551
1.99767
2.00229
2.03617
2.03554
2.03018
2.03548
1.97174
1.9727
1.96527
1.99397
1.99615
2.00078
2.00457
2.00537
1.97826
1.98429
1.91708
1.92087
1.92306
1.93056
1.93146
1.92858
1.93821
1.94131
1.92496
1.92668
1.92256
1.97187
1.97601
1.96895
1.96882
1.93271
1.93264
1.94588
1.95231
2.02126
2.01635
2.08828
2.08516
1.99037
1.99139
1.98923
2.03435
2.03152
2.04038
2.03864
1.97539
1.97492
1.96873
1.97482
1.93717
1.93962
1.96935
1.96474
1.9685
1.95921
1.98341
1.98492
1.99145
2.03659
2.03486
2.04412
1.98057
1.97666
1.97803
1.99099
1.99389
1.9903
1.98996
1.98177
1.97938
1.99055
1.98964
1.98151
1.99684
1.99089
1.9853
1.98755
1.98778
1.98564
1.98483
1.98839
1.98831
1.98897
1.98962
1.98266
1.99365
1.98773
1.98248
1.97926
1.9822
1.97211
1.97336
1.9784
1.97625
1.98432
1.98112
1.98592
1.97996
1.97741
1.98407
1.97874
1.98038
1.9798
2.02496
2.02705
2.03326
2.02172
2.02841
2.02961
2.03569
2.02144
2.03165
2.03269
2.03498
2.03902
2.03089
2.03391
2.02846
2.02837
2.0229
2.02007
2.03399
2.03734
2.03187
2.04932
2.03969
2.03707
2.04825
2.03857
2.03448
1.97309
1.97259
1.97108
1.97954
1.98474
1.97315
1.9761
1.97801
1.99355
1.98847
1.99238
1.99543
1.99455
1.98793
2.00447
1.9647
1.96832
1.97586
1.97489
1.97777
1.97992
1.97757
1.97432
1.98733
1.98655
1.98267
1.97461
1.98043
1.98749
1.97902
1.99322
1.99066
1.95634
1.96023
1.95965
1.95633
1.96324
1.96798
1.9608
1.96561
1.96224
2.00071
1.98537
2.00447
1.98703
1.9753
1.97714
1.96781
1.9698
1.9474
1.94477
1.94236
1.93345
1.93449
1.93835
1.93844
1.94192
1.93999
1.94327
1.9452
1.94461
1.93936
1.93818
1.93815
1.94336
1.94056
1.94116
1.9391
2.022
2.00547
2.0159
2.02718
2.00991
1.95596
1.96241
1.95726
1.96174
1.96115
1.97383
1.97754
1.9736
1.96738
1.97101
1.96556
1.96983
1.98413
1.98897
1.97692
1.974
1.9733
1.97066
1.97776
1.96874
1.99426
1.98526
1.98588
1.97933
2.01977
2.01518
2.02514
2.05898
2.07223
2.05851
2.01344
2.02354
2.03627
2.01722
2.02227
2.03807
2.03858
2.0003
2.02413
2.00965
2.0105
2.0081
2.00604
2.02142
2.02038
2.00893
2.02126
2.01925
2.02327
2.02577
1.98747
1.98682
1.98823
1.98951
1.99331
1.9876
1.98852
1.98665
1.98841
1.98762
2.08249
2.08982
2.08509
2.07634
2.0828
2.07478
2.09165
2.08453
2.09058
2.10426
2.09548
2.08699
2.08471
2.08555
2.08255
2.08477
2.08749
2.08391
2.08373
2.07717
2.07493
2.07148
2.07886
2.08171
2.07628
2.07036
2.07514
2.07984
2.07276
2.08182
2.09437
2.09089
2.0846
2.09935
2.08887
2.08636
2.0808
2.08241
2.06018
2.05007
2.04621
2.04411
2.01282
2.02047
2.00234
2.00821
2.00612
2.00802
1.95182
1.94304
1.94223
1.9488
1.94652
1.95569
1.95588
1.95064
1.95093
1.94384
1.95021
1.94508
1.94686
1.95275
1.9533
1.95311
1.94494
1.94703
1.95007
1.93348
1.93143
1.95499
1.95567
1.94655
1.92677
1.92704
1.92571
1.92948
1.93398
1.93432
1.93472
1.93606
1.93202
1.92947
1.92832
1.93705
1.93111
1.93682
1.93298
1.93884
1.98624
1.99298
1.98807
1.98067
1.97712
1.96589
1.96998
1.98155
1.9783
1.97305
1.92468
1.92151
1.9256
1.91833
1.92135
1.92983
1.92671
1.92901
1.93111
1.92663
1.92202
1.92387
1.92731
1.92457
1.92107
1.92134
1.92823
1.93029
1.92693
1.92475
1.93311
1.93713
1.93124
1.93041
1.93955
1.93767
1.93663
1.94262
1.94358
1.94534
1.94764
1.94582
1.94385
1.9431
1.94215
1.94188
1.93682
1.93449
1.93662
1.93723
1.93527
1.93504
1.92595
1.92658
1.93052
1.92858
1.9266
1.92815
1.92706
1.93033
1.92485
1.93112
1.92737
1.9225
1.92744
1.92921
1.9317
1.93149
1.93524
1.93789
1.93758
1.93481
1.93333
1.9302
1.93447
1.93
1.93302
1.93335
1.93219
1.93234
1.93545
1.93059
1.93209
1.93122
1.93082
1.91679
1.92131
1.92017
1.91984
1.92491
1.91759
1.92322
1.92928
1.91792
1.91792
1.91853
1.91813
1.91769
1.91634
1.91968
1.91561
1.91341
1.91125
1.91763
1.91689
1.91415
1.91612
1.99096
1.98496
2.01188
2.00815
2.00872
1.98018
1.97968
1.98462
1.95609
1.96591
1.96185
1.99386
1.98971
1.98278
1.9834
1.98953
1.98861
1.98493
1.98108
1.98486
2.0103
2.01364
2.0206
2.00407
2.01574
2.01623
2.00425
2.0018
1.97763
1.97521
1.99028
1.98677
1.9862
1.98711
1.98296
1.99354
1.98233
1.98598
1.9871
1.99698
1.99016
1.99255
1.99828
2.00613
1.99562
1.95702
1.9615
1.96649
1.94816
1.94527
1.982
1.99516
2.00997
1.99051
1.95789
1.96163
1.96244
1.96148
2.02849
2.03544
2.03357
2.02846
2.04317
2.05325
2.05258
2.04705
1.97897
1.98934
1.98593
1.99741
1.98926
1.98788
1.98537
1.98666
1.97925
1.97759
1.9896
1.98981
1.98352
1.98285
1.97692
2.03664
2.02967
2.02921
2.01981
2.03528
2.03412
2.04062
2.02489
2.01662
2.00944
2.00935
2.01844
1.96206
1.96164
1.97186
1.96492
1.96533
1.96127
1.96773
1.96612
1.96692
1.96766
1.96739
1.96665
1.95909
1.96066
1.92895
1.93205
1.93113
1.92745
1.92661
1.92689
1.92645
1.92425
1.923
1.92645
1.92512
1.91991
1.9171
1.92013
1.92146
1.92048
1.92257
1.92323
1.91849
1.92179
1.95256
1.95374
1.95994
1.95692
1.95568
1.95669
1.96595
1.96367
1.96372
1.96356
1.96986
1.97087
1.96854
1.96191
1.96416
1.96174
1.965
1.96618
1.96494
1.95895
1.9536
1.95604
1.9773
1.9731
1.97072
1.96779
1.97733
1.97412
1.97473
1.97311
1.96134
1.95056
1.96012
1.96327
1.96526
1.96695
1.96074
1.93985
1.94127
1.94652
1.95476
1.95548
1.95808
1.9719
1.96542
1.96955
1.94097
1.94786
1.94437
1.96591
1.96507
2.00184
1.99508
1.99452
1.99218
1.99454
1.99706
1.99152
2.09074
2.10047
2.09874
2.11416
2.10716
2.12312
2.11339
2.11106
2.11755
2.12376
2.1035
2.11073
2.11478
2.11784
2.11176
2.10984
2.10244
2.10013
2.09919
2.10791
2.10235
2.10959
2.10884
1.98766
1.97358
1.98996
1.97458
1.9985
2.00182
2.00539
1.9939
1.9936
2.00228
2.00333
2.01255
2.0028
2.01647
2.00823
2.04606
2.05984
2.05807
2.06077
2.0715
2.06442
2.06659
2.06815
2.05681
2.06432
2.05771
2.06286
2.06647
2.05921
2.07774
2.06458
2.07606
2.0728
2.08234
2.07161
2.06456
2.05751
2.06006
2.06349
2.06113
2.03622
2.03021
1.98323
1.98405
1.99779
1.99901
1.91714
1.91414
1.91768
1.91441
1.91331
2.09578
2.1015
2.08476
2.08307
2.08163
2.09458
2.08687
2.07841
2.06265
2.07145
2.07004
2.08093
1.94984
1.95053
1.95341
1.95314
1.95342
1.95441
1.96075
1.94999
1.9501
1.95086
1.9543
1.95301
1.95582
1.95692
1.94955
1.94444
1.9426
1.94505
1.95194
1.95215
1.94514
1.94871
1.94613
1.94891
1.94961
1.94949
1.94437
1.94808
1.93719
1.93247
1.92621
1.9302
1.9285
1.93242
1.93246
1.94283
1.93675
1.93081
1.92922
1.93005
1.9268
1.92591
1.92045
1.92029
1.92465
1.92661
1.93215
1.9292
2.0541
2.04476
2.03688
2.05363
2.02996
2.01916
2.03119
2.03503
2.01703
2.00464
2.03807
2.04309
2.03365
2.02878
2.03438
2.0316
2.00713
2.00505
2.00135
1.9956
1.9967
2.00812
2.00675
1.99244
1.99302
2.00191
2.00142
2.00266
2.00089
1.99161
1.99351
1.99655
2.00239
1.98958
1.99271
1.98843
1.99484
1.99794
2.00115
2.01427
1.99993
1.99601
2.01421
2.01306
2.01634
2.00261
2.00202
2.01301
2.04358
2.05216
2.04646
2.03973
2.03266
2.03369
2.02937
2.01684
2.03192
2.03083
2.03651
2.04049
2.03034
2.03413
2.03555
2.03192
2.03585
2.0377
2.03783
1.93403
1.93711
1.93435
1.97672
1.97315
1.9739
1.97377
1.9731
1.97294
1.97582
1.97178
1.97157
1.9672
1.9686
1.96795
1.96847
1.96702
1.9697
1.9695
1.9719
1.96921
1.97215
1.95702
1.96428
1.96207
1.97992
1.97245
1.97492
1.97805
1.97502
1.97289
1.9722
1.97209
1.98704
1.98132
1.97896
1.98365
1.96077
1.9618
1.95819
1.97071
1.97464
1.97481
1.96641
1.96883
1.97109
1.97528
1.97386
1.96934
1.96875
2.08722
2.04222
2.04738
2.05446
2.05021
2.05035
2.04484
2.05938
2.07522
2.0591
2.05577
2.07533
2.05411
2.05761
2.07136
2.07227
2.0562
2.05315
2.04708
2.05303
2.05637
2.05828
2.05581
2.0511
2.05447
2.06759
2.06021
2.06406
1.94613
1.94855
1.93972
1.93947
1.93798
2.02379
2.01151
2.02018
2.03559
2.03557
2.05061
2.0434
2.04893
2.05898
2.07986
2.0685
2.06826
2.06072
1.97369
1.98034
1.97606
1.97515
1.97296
1.97928
1.97687
1.97452
1.97437
1.99643
1.98066
1.98396
1.99258
1.98563
1.98999
1.98432
2.09827
2.09515
2.08974
2.09324
2.04854
2.0449
2.02371
2.03049
2.02301
2.04805
2.04503
2.03549
2.032
2.04908
2.05037
2.03441
2.0286
1.92452
1.92316
1.94839
1.943
1.9448
1.92496
1.9245
1.92979
1.92351
1.92511
1.92778
1.92478
1.92263
1.92192
1.92489
1.92109
1.92263
1.93458
1.92875
1.92805
1.92982
1.92618
1.92512
1.91649
1.91499
1.98334
1.97777
1.97862
1.9784
1.96891
1.97449
1.97575
1.97628
1.97705
1.9778
1.97558
1.96763
1.96834
1.9732
1.97374
1.95666
1.96583
1.95872
1.95227
1.96141
1.96409
1.96201
1.9647
1.94894
1.93996
1.94773
1.94504
1.95229
1.94556
1.95392
1.95002
1.94968
1.94718
1.95396
1.95109
2.03736
2.04899
2.04428
2.04584
2.03558
2.05101
2.05147
2.03532
2.0347
2.03124
2.04067
2.0382
2.06541
2.06931
2.06842
2.05934
2.05016
2.10021
2.09779
2.11258
2.1135
2.10865
2.01059
2.00931
2.01381
1.95926
1.95316
1.94613
1.95873
1.93939
1.94441
1.94371
1.94827
1.98354
1.98444
1.98419
1.97931
1.98284
1.98713
1.98646
1.99201
1.98866
1.98993
1.98416
1.9792
1.98406
1.9848
1.98935
1.98405
1.99392
1.99061
1.98464
1.98953
1.98957
1.9895
1.97991
1.98246
1.98449
1.97586
1.97779
1.97149
1.97447
1.97195
1.93517
1.93242
1.93834
1.93222
1.93081
1.93898
1.94174
1.93893
1.94264
1.94093
1.94196
1.93657
1.95226
1.95275
1.94952
1.95864
1.95072
1.95966
1.95659
1.94942
1.95465
1.95513
1.96162
1.9571
1.96505
1.95732
1.966
1.94985
1.97381
1.96218
1.96565
1.95998
2.04271
2.04587
2.03776
2.04635
2.05244
2.0408
2.04689
2.08407
2.08685
2.08557
2.07374
2.07953
2.07029
2.09768
1.92171
1.92695
1.93077
1.92926
1.92578
1.92476
1.92117
1.9304
1.92578
1.93431
1.92796
1.95849
1.96371
1.95755
1.94781
1.94961
1.99979
1.98901
1.98719
1.99979
1.99124
1.98675
2.07438
2.07777
2.06826
2.07671
2.06481
2.05952
2.07653
2.06161
2.06548
2.0688
2.07113
2.06201
2.08858
2.09448
2.07499
2.07639
2.05335
2.054
2.04407
2.04938
2.04259
2.02347
2.03591
2.02554
2.01179
2.04174
2.02644
2.0507
2.04017
2.04748
2.04298
2.04447
2.0314
2.00469
1.99832
2.00971
2.0105
2.01831
2.00873
2.01383
1.94181
1.94345
1.93845
1.94254
1.93969
1.93843
1.94576
1.94436
2.08193
1.97059
1.9773
1.97368
1.97886
1.9764
1.97553
1.94802
1.95006
1.94767
1.95007
1.95732
1.95065
1.95089
1.95202
1.95415
1.95573
1.97154
1.97799
1.97962
1.97443
1.97396
1.97516
1.97842
1.97778
1.98069
1.97623
1.97871
1.97763
1.97704
1.97701
1.9753
1.97853
1.97773
1.93378
1.93124
1.93525
1.93711
2.04205
2.05202
2.03717
2.0498
2.041
2.03551
2.03782
2.03868
2.0344
2.03851
2.04187
2.04832
2.049
2.04268
2.0442
2.03876
2.03561
2.04327
2.04627
2.04905
2.04507
2.02083
2.01331
2.01562
2.01055
2.01322
2.0144
2.02165
2.02533
2.02608
2.01915
2.01378
2.05135
2.03001
2.03481
2.03762
2.03239
2.04325
2.04411
2.03811
2.02007
2.01735
2.02594
2.01839
2.03599
2.02728
2.02626
2.01417
1.93942
1.93624
1.93207
1.94039
1.92407
1.93392
1.93276
1.92888
1.93201
1.93532
1.94099
1.93548
1.93696
1.93454
1.9487
1.95041
1.9511
1.94927
1.94852
1.94915
1.95232
1.95337
1.94192
1.94208
1.94245
1.94529
1.94884
1.95076
1.94377
1.94586
1.94475
1.94469
1.95014
1.94712
2.05247
2.07081
2.0765
2.08466
2.07132
2.07411
2.06279
2.0598
2.05186
2.0557
2.05935
2.05957
2.05406
2.1073
2.09035
2.08822
2.10136
2.09951
1.97282
1.97444
1.98366
1.98042
1.97471
2.02463
2.03541
2.03935
2.03109
2.0387
2.03088
2.02438
2.02232
2.03669
2.03668
1.98629
1.99001
1.98089
1.98407
1.98232
1.96646
1.97697
1.97819
1.97264
1.96809
2.09818
2.10483
2.10195
2.10974
2.09537
2.10641
2.10063
2.09475
2.09267
1.98827
1.98903
1.99393
1.99109
1.9903
1.98931
1.98925
1.9846
1.98801
1.98041
1.97838
1.9731
1.97002
1.95677
1.95235
1.95509
1.96095
1.98836
1.98524
1.98955
1.98318
1.9706
1.98845
1.98288
1.9823
1.98145
1.97117
1.96802
1.95716
1.95782
1.95598
1.96937
1.96892
1.96231
1.96719
1.96445
1.966
1.96334
1.96533
1.9514
1.95681
1.96041
1.9612
1.96119
1.9589
1.95698
1.95752
1.95631
1.92484
1.92784
1.92569
1.91971
1.9217
1.92639
1.92797
1.9295
1.92098
1.91757
1.92055
1.91661
1.92305
1.97696
1.98275
1.97855
1.97458
1.97071
1.97666
1.96499
1.96996
1.97062
1.96973
1.96791
1.96982
1.96791
1.96954
1.97089
1.97033
1.97267
1.97234
2.03026
2.02296
2.04659
2.03832
2.05254
2.03812
2.0256
2.04647
2.03737
2.05693
2.0585
2.02539
2.02313
2.03143
2.02977
2.04108
2.04419
2.03753
2.03944
2.05148
2.04288
2.05334
2.04328
2.00914
2.00249
1.98932
2.00649
1.99198
1.99181
1.99733
1.99001
1.96946
1.97092
1.96341
1.97548
1.96986
1.96745
1.96323
1.97114
1.95825
1.95479
1.97246
1.97218
1.97132
1.96039
1.96327
1.96103
1.98145
1.99297
2.00363
1.98774
1.98788
1.99572
1.97688
1.96973
1.97205
1.97701
2.00114
1.99477
2.00613
2.00154
1.99409
1.99002
1.94839
1.95392
1.95042
1.95544
1.95183
1.95352
1.95498
1.95707
1.94805
1.94939
1.94747
1.94499
2.00926
2.01233
2.013
2.00095
1.98595
1.99828
1.99273
2.00041
1.99952
1.99142
1.99304
1.98771
1.98967
2.00216
2.00441
1.99066
1.91646
1.91802
1.9125
1.915
1.91722
1.90976
1.91496
1.91777
1.93004
1.9274
1.93156
1.93092
1.92989
1.9293
1.92379
1.92833
1.93028
1.92091
1.91833
1.92245
1.91449
1.92348
1.92181
1.924
1.92247
1.92154
1.92206
1.91874
1.91784
1.918
1.92164
1.92152
1.91812
1.91804
1.98451
1.98292
1.97988
1.97621
1.99326
1.98172
1.97569
1.98494
1.98052
1.98815
1.9886
1.98688
1.97835
1.98243
1.9779
1.9814
2.00616
2.00322
2.00461
1.99382
2.02132
2.01518
2.0041
2.00098
2.01752
2.01483
2.00823
1.99949
1.99757
1.99788
1.95742
1.96039
1.9595
1.97244
1.96008
1.96811
1.95975
1.95705
1.96828
1.97448
2.00038
2.00931
1.99797
1.99929
2.00691
2.00868
2.01336
2.00755
2.0094
2.00768
2.00629
1.98715
1.9873
1.98583
1.98674
1.98609
1.98475
1.98174
1.98216
1.98472
1.98138
1.98597
1.98032
1.98085
1.98091
2.00691
2.0003
1.99527
2.00561
2.00917
2.01256
1.99567
1.97811
1.97926
1.97947
1.97492
1.98082
1.98015
1.96034
1.95987
1.96567
1.96215
1.96046
1.96047
1.9566
1.9564
1.95644
1.98051
1.9785
1.97736
1.97257
1.98119
1.98647
1.9803
1.97078
1.97226
1.97472
1.9783
1.95013
1.95684
1.95411
1.95164
1.95204
1.94921
1.95091
1.94819
1.94731
1.95437
1.95308
1.95113
1.95026
1.94721
1.94639
1.94641
1.9453
1.94558
1.9466
1.94806
1.94912
1.94727
1.94747
1.97675
1.96733
1.96557
1.97433
1.97031
1.96645
1.96768
1.97051
1.96465
1.96458
1.98172
1.99068
1.98378
1.99007
1.98654
1.99704
1.98569
1.97853
1.97235
1.97754
1.98222
1.98425
1.97301
1.96857
1.98546
1.97777
1.95676
1.96095
1.96041
1.95797
1.94931
1.9514
1.95467
1.95711
1.95446
1.95016
1.94676
1.95317
1.95386
2.01935
2.02692
2.01733
2.02065
2.02503
2.01877
2.01078
2.01996
2.00919
1.96802
1.97099
1.97533
1.9739
1.97257
1.97537
1.97561
1.9748
1.97353
1.97603
1.97285
1.96961
1.97125
1.96765
1.97367
1.97205
1.96961
1.96385
1.96376
1.96814
1.97019
1.9726
1.9669
1.9689
1.96575
1.96951
1.96294
1.9666
1.9516
1.95698
1.96384
1.96097
1.96811
1.97112
1.98014
1.988
1.98873
1.99014
1.98317
1.98582
1.974
1.97643
1.97985
1.98595
1.99264
1.99142
1.99494
1.9894
1.97889
1.98766
1.99254
1.98862
2.00293
1.99685
2.00615
2.00417
2.00476
1.9799
1.97349
1.9738
1.97162
2.02201
2.02276
2.03298
2.03698
2.03314
2.02553
2.03457
2.02688
2.03976
2.02873
2.06328
2.05642
2.0641
2.06367
2.07111
2.06686
2.0655
2.04697
2.05112
2.05283
2.04643
2.04808
2.04482
2.02982
1.97892
1.97865
1.98162
1.98467
1.98778
1.98262
1.98685
1.98616
1.98011
1.97832
1.97908
1.97773
1.98396
1.98451
1.98971
1.98474
1.98313
1.99888
1.98443
1.97921
1.98746
1.98865
2.00799
1.99809
2.00436
2.01139
2.00388
2.00036
2.0007
2.0147
1.93111
1.93654
1.94216
1.94075
1.94002
1.93721
1.93996
1.94173
1.99419
1.98893
1.99193
1.97729
1.98177
1.98627
1.98807
1.98309
1.99532
1.98735
1.99749
2.00113
2.03595
2.03117
2.03901
2.05501
2.04792
2.03374
2.03889
2.03133
2.05818
2.04891
2.04837
2.03008
2.02449
2.05543
2.05936
2.05205
2.01237
2.01691
2.0273
2.03059
2.01729
2.00731
2.01823
2.02634
1.95454
1.94707
1.95145
1.95215
1.95723
1.94785
1.95458
1.95721
1.94007
1.94405
1.94064
1.94768
1.93774
1.93609
1.94039
1.93924
1.96956
1.98083
1.97348
1.98014
1.98138
1.98287
1.97127
1.97131
1.9636
1.97671
1.97658
1.98637
2.02344
2.03098
2.0318
2.02495
2.03542
2.03606
2.03599
2.03111
1.98732
1.98692
2.00369
2.00199
2.00717
2.00257
1.996
2.00051
1.99826
1.96069
1.95758
1.96028
1.9531
1.96362
1.95858
1.96099
1.95386
1.96225
1.93789
1.94174
1.93517
1.94114
1.9345
1.93799
1.93937
1.93989
1.94147
1.94083
1.9595
1.95056
1.95253
1.95917
1.95751
1.9615
1.96404
2.08478
2.06847
2.06977
2.08246
2.07564
2.07132
2.08439
2.08624
2.07828
2.08879
2.08393
1.93872
1.93351
1.93826
1.94514
1.94221
1.94174
1.94229
1.94047
1.94757
1.94723
1.94694
1.94619
1.9485
1.94737
1.93688
1.95112
1.94555
1.95139
1.95099
1.94617
1.94338
1.95144
1.94694
1.95176
1.95447
1.94817
1.95206
1.94005
1.93266
1.93485
1.93715
1.94185
1.93758
1.92439
1.93236
1.92984
1.92912
1.9295
1.92291
1.92395
1.9295
1.93221
1.92969
1.93088
1.92368
1.91884
1.92813
1.9205
1.9238
1.92472
1.92618
1.93881
1.9418
1.94713
1.9369
1.94237
1.94205
1.94066
1.94428
1.94256
1.94363
1.92794
1.92708
1.93136
1.92504
1.93006
1.93449
1.92927
1.93113
1.93504
1.93469
1.93298
1.93205
1.9294
1.92803
1.92291
1.91545
1.91794
1.91341
1.91572
1.91393
1.91468
1.91379
1.91701
1.91649
1.97268
1.98065
1.9622
1.96366
1.9578
1.96584
1.95917
1.97279
1.97544
1.97653
1.97351
1.97561
2.01436
2.02689
2.02676
2.00343
2.00592
2.01535
2.00863
2.00334
2.01309
2.01181
2.00918
2.01904
2.02305
2.02872
2.0334
2.02665
2.03177
2.03322
2.03075
2.02378
2.02325
2.01073
2.02144
1.97886
1.98508
1.97359
1.9819
1.98075
1.98616
1.98507
1.98604
1.98458
1.99724
1.99299
1.9944
1.99231
1.99318
1.99016
1.98921
1.98464
2.0043
1.99876
1.99666
1.99912
2.00368
2.01223
2.01238
2.01184
2.00929
2.00856
2.00911
2.0033
2.00184
2.01057
2.00406
1.95988
1.96055
1.96071
1.96053
1.96372
1.96772
1.96728
1.96917
1.97089
1.96364
1.96083
1.95187
1.94777
1.94661
1.95022
1.95856
2.02407
1.97935
1.99656
1.99632
1.98753
1.9917
1.98515
1.99295
1.99845
1.99104
1.99444
2.00103
1.9887
1.98702
1.96624
1.96385
1.97025
1.96448
1.96563
1.96511
1.96598
1.92624
1.92533
1.91859
1.92222
1.91984
1.92011
1.96438
1.96496
1.96652
1.96172
1.94563
1.95272
1.94961
1.94956
1.95451
1.95533
1.9539
1.95231
1.95056
1.94971
1.95113
1.9526
1.95213
1.98502
1.98813
1.98415
1.98734
1.9895
1.96209
1.9577
2.07042
2.07383
2.07182
2.07034
2.05666
2.04935
2.04613
2.09841
2.09972
2.10125
1.98209
1.9887
1.99356
1.97567
1.97309
2.00044
1.99127
1.99661
1.99619
1.99274
1.99186
1.98106
1.98789
2.05701
2.05786
2.06399
2.06143
2.05065
2.05684
2.04459
2.04377
2.05136
2.0499
2.06859
2.07413
2.06262
2.07404
2.06934
2.07167
2.06015
2.06077
2.05637
2.07079
2.08
2.07016
2.0869
2.09045
2.09518
2.10247
2.1043
2.107
2.10027
1.95495
1.94961
1.93021
1.92903
1.92449
2.00326
2.00191
1.995
1.99462
1.99502
1.99606
2.00496
2.00399
2.00234
2.00736
2.00307
2.00451
1.9963
1.99868
2.01608
2.00837
2.02804
2.02433
2.01837
2.01805
2.0156
2.02997
2.02971
2.01948
2.02447
1.97315
1.96272
1.96855
1.97044
1.95622
1.96461
1.96853
1.97164
2.04532
2.03296
2.02852
2.01331
2.03034
2.03718
2.0371
2.02674
2.03404
2.02996
2.03303
2.05961
2.08147
2.06803
2.06608
2.05826
2.05179
2.06921
2.06354
2.07608
2.07743
2.07262
1.97823
1.97544
1.96731
2.00653
2.00683
2.00877
2.01287
2.00904
2.00663
1.99323
1.99797
1.9856
1.99738
2.0685
2.07673
2.07133
2.07914
2.07318
2.08346
2.08383
2.08382
2.07922
2.07408
2.05955
2.06845
2.08406
2.07262
2.01776
2.02996
2.02035
1.93524
1.91327
1.91498
1.91379
1.92319
1.91801
1.91515
1.91525
1.92067
1.92352
1.91801
1.91672
1.91807
1.92002
1.97258
1.96259
1.9696
1.96942
1.97515
1.9788
1.96647
1.96868
1.94751
1.944
1.93217
1.94352
1.93644
1.94166
1.94508
1.94509
1.94301
1.94575
2.07139
2.0521
2.05188
2.0555
2.06496
2.066
2.06784
2.05736
2.06504
2.05442
2.05406
2.06105
2.05078
2.07329
2.07381
2.0899
2.11147
2.12057
2.1015
2.09636
2.10724
2.11494
2.09324
1.98464
1.98773
1.99235
1.98807
1.986
1.99135
1.9904
1.98763
1.94289
1.94189
1.93991
1.94192
1.93988
1.94311
1.94387
1.94365
1.94333
1.94159
2.09505
2.08739
2.08562
2.09806
2.09905
2.09124
2.10019
2.10078
2.09189
2.08964
2.09864
2.08998
2.09095
1.94045
1.94751
1.94594
1.93017
1.93737
1.94646
1.9699
1.96118
1.96271
1.95816
1.96472
1.9635
1.96709
1.97136
1.96409
1.96351
1.95034
1.94315
1.9448
1.95449
1.94376
2.00448
2.01519
2.00951
2.00788
2.0034
2.00456
2.00302
1.99521
1.99163
1.99505
1.99277
2.00414
1.99912
2.06055
2.06191
2.03859
2.04182
2.07106
2.05047
2.05026
2.05543
2.04179
2.04714
2.0854
2.09707
2.0911
2.07092
2.08523
2.08223
2.07312
2.07667
2.07703
2.08778
2.08467
2.09642
2.09318
2.09639
2.09427
1.9396
1.94879
1.94237
1.94191
1.94381
1.94444
1.94394
1.94189
1.94667
1.94571
1.94515
1.94963
1.95288
1.95848
1.95212
1.95293
1.95104
1.93778
1.94753
1.94466
1.9411
1.9424
1.94917
1.94835
1.9454
1.94462
1.97093
1.97429
2.04392
2.0304
2.0491
2.02653
2.01388
2.016
2.02484
2.01439
2.02393
2.02603
2.02702
2.02726
2.02713
2.0244
2.02573
2.01282
2.01805
2.02431
2.01286
2.00908
2.0138
2.01284
2.01001
2.00626
2.00746
2.01565
2.01471
2.01798
2.01196
2.01531
2.05457
2.05386
2.05091
2.05715
2.05715
2.06104
2.05635
2.04792
2.04802
2.05339
2.0549
1.94283
1.94817
1.93611
1.94593
1.94643
1.95247
1.94041
1.93636