/*--------------------------------*- C++ -*----------------------------------*\
| =========                 |                                                 |
| \\      /  F ield         | OpenFOAM: The Open Source CFD Toolbox           |
|  \\    /   O peration     | Version:  v1612+                                |
|   \\  /    A nd           | Web:      www.OpenFOAM.com                      |
|    \\/     M anipulation  |                                                 |
\*---------------------------------------------------------------------------*/
FoamFile
{
    version     2.0;
    format      ascii;
    class       surfaceScalarField;
    location    "206";
    object      phi;
}
// * * * * * * * * * * * * * * * * * * * * * * * * * * * * * * * * * * * * * //

dimensions      [0 3 -1 0 0 0 0];

internalField   nonuniform List<scalar> 
41818
(
7.54002e-09
1.08032e-08
-6.2718e-09
-1.20714e-08
9.22808e-09
-4.59542e-10
-7.29535e-09
-1.47318e-09
5.44796e-10
-5.14774e-09
-3.93712e-09
8.54008e-09
2.19908e-09
5.40878e-09
-7.64379e-09
3.5938e-11
-6.95279e-09
1.33802e-08
-5.88261e-09
-1.35954e-08
1.05884e-08
-3.94579e-09
1.83159e-09
-4.78025e-09
5.51793e-09
-4.04626e-09
2.01663e-09
1.03062e-08
1.05737e-09
2.87496e-09
-6.94704e-09
4.79267e-09
-7.2057e-10
2.4234e-09
8.13331e-09
-1.49169e-09
-1.12621e-09
9.83339e-09
-7.21547e-09
7.67911e-09
-2.14781e-09
-7.02299e-09
4.69897e-09
7.56882e-12
5.99616e-09
-7.47912e-09
-9.31016e-10
-1.37914e-09
9.78927e-09
4.7406e-09
-6.28675e-09
-5.93297e-09
-1.81985e-09
6.06119e-09
4.99285e-10
-8.11145e-09
2.43755e-09
7.21241e-09
-1.53851e-09
-7.29102e-09
-1.75147e-09
-3.56639e-10
-3.47065e-09
5.6483e-09
-1.82092e-09
-5.70538e-09
7.78637e-09
-4.9637e-09
-5.68136e-09
7.17446e-09
-7.28104e-09
-3.41842e-10
2.65917e-09
1.47793e-09
1.09056e-09
-8.85529e-09
9.04131e-09
1.96477e-09
-9.52818e-09
5.05829e-10
1.24439e-09
5.27711e-09
2.02786e-09
-6.21442e-09
3.3312e-09
1.26074e-10
2.6566e-09
-6.82913e-09
-3.10849e-09
3.06427e-10
-8.23513e-09
2.18785e-09
9.95838e-09
-6.01954e-10
-7.3917e-09
2.22906e-09
-5.40324e-09
1.12069e-08
-2.94828e-09
-5.78078e-09
-2.47778e-09
8.30173e-09
8.23323e-09
-5.32802e-09
-6.34884e-09
-3.91326e-09
7.31382e-09
1.00077e-09
5.03204e-09
1.75364e-09
5.61583e-09
2.59739e-09
-6.62331e-10
4.97378e-10
-6.26523e-09
-7.45934e-10
-7.57749e-09
-4.36896e-09
9.46869e-09
-7.02105e-09
4.47564e-09
-9.5801e-10
1.59164e-09
-6.89886e-09
4.59985e-09
-5.5922e-09
3.43376e-11
3.99428e-09
-5.36705e-09
-4.2995e-10
5.52814e-11
2.56617e-10
2.02312e-09
-1.17033e-09
3.19914e-09
-4.05193e-09
2.87125e-10
4.59895e-09
-2.86298e-09
-4.61538e-09
8.94298e-09
-4.04048e-09
-2.05205e-09
5.99071e-09
-8.55402e-09
2.7798e-09
-6.00219e-09
-7.18091e-10
4.58729e-09
7.2976e-10
2.73466e-09
-2.5362e-10
-2.63046e-09
5.82698e-09
5.74646e-09
2.82946e-09
5.30764e-10
-4.99688e-11
5.80517e-09
7.17717e-11
5.3463e-09
-8.08983e-10
3.09463e-09
4.49025e-09
-4.80509e-09
3.27741e-09
7.14851e-11
-2.54269e-10
-5.54971e-09
5.47493e-09
3.35219e-09
1.91349e-09
-2.97297e-09
6.28558e-09
-1.54264e-09
3.46648e-10
8.87114e-11
5.8502e-09
4.17147e-10
5.73467e-09
3.81135e-10
5.38232e-09
2.9136e-09
-1.07457e-10
3.50411e-13
5.56329e-09
3.29509e-09
-2.28693e-08
-1.09592e-09
6.83335e-09
1.71318e-08
-1.1111e-08
-2.40266e-08
1.22682e-08
8.7862e-09
-1.38584e-09
-1.85114e-08
5.76177e-09
1.92846e-09
8.52038e-09
7.17545e-09
-1.70817e-08
2.28548e-09
-5.35711e-09
-9.29806e-09
1.23697e-08
-8.81005e-09
1.48532e-08
-3.75772e-09
1.0721e-08
-8.61098e-09
6.41039e-09
-1.14056e-08
8.49294e-09
-2.44442e-09
2.40104e-09
1.23234e-08
-7.54904e-09
1.13e-08
-3.13723e-09
-2.88344e-09
5.3734e-09
-1.33428e-08
1.16126e-09
2.93712e-10
-9.78392e-10
-7.25644e-10
-7.07078e-09
2.15048e-09
-7.48831e-10
5.66923e-09
1.43567e-09
-6.02234e-09
-2.48397e-09
8.89996e-09
4.45085e-09
-1.1296e-08
-2.05483e-09
8.8044e-09
-7.11436e-09
7.20994e-09
8.3051e-09
-6.64606e-09
-2.23222e-10
2.26252e-10
1.02293e-08
2.87908e-09
-2.72569e-09
4.29756e-09
1.19097e-08
-6.23295e-09
1.16447e-09
4.31984e-09
1.08478e-08
-2.86291e-10
-1.54388e-09
-9.01757e-09
-2.91273e-09
-2.04601e-09
-9.53623e-09
-5.03862e-09
4.96729e-09
3.42787e-09
-3.35645e-09
1.4486e-09
-3.27111e-10
-6.16003e-09
9.51716e-10
-5.75088e-09
-1.22309e-09
-3.13912e-10
-6.78922e-09
5.22818e-09
-2.36489e-09
-9.96395e-10
-2.96227e-09
-7.62186e-09
3.20892e-09
-5.63463e-09
-2.60155e-09
5.02728e-09
-1.50432e-09
4.25553e-09
4.57574e-10
-3.7959e-09
-1.19618e-09
6.18269e-09
-1.19046e-09
-2.8935e-09
-4.93667e-09
4.03422e-09
-4.77074e-09
3.72959e-10
1.6125e-09
4.25936e-09
7.74147e-10
-6.64665e-09
-5.00195e-09
2.53311e-09
-2.63787e-09
-4.66594e-09
-8.71991e-10
-1.53154e-09
-3.26108e-09
-2.61279e-09
-2.73832e-11
-6.41032e-09
3.17672e-09
2.75028e-09
-5.41552e-09
-2.79837e-09
-8.59507e-11
2.30537e-09
6.55089e-09
-4.34471e-09
-4.51159e-09
4.04584e-09
-2.26128e-09
5.20707e-10
1.58856e-09
9.00814e-09
1.15049e-10
-4.78181e-09
3.22024e-10
-3.37997e-09
3.24994e-09
2.45052e-10
-3.80919e-09
-1.79232e-09
7.19007e-09
-5.90468e-10
-1.09829e-08
3.87838e-09
7.6949e-09
-8.40177e-09
5.55e-09
-4.20059e-09
-6.30712e-09
-4.75179e-10
-3.59722e-09
-9.00515e-09
7.80654e-10
-9.15969e-09
-5.61637e-09
3.01703e-09
-1.11733e-09
5.58034e-10
-7.30512e-09
9.39113e-09
-2.74011e-09
5.44807e-09
-1.00132e-08
-4.25204e-09
3.94419e-10
5.14783e-09
2.43994e-09
-1.58545e-09
-6.00231e-09
8.17747e-09
-5.36371e-09
2.33412e-09
6.13897e-10
-1.51589e-09
9.07944e-09
-6.27886e-09
-3.11911e-10
7.20467e-09
-3.66563e-09
-1.73317e-10
-4.22096e-09
-6.89299e-09
7.11251e-09
4.00137e-09
-6.91507e-09
-9.71551e-10
-3.35831e-09
1.29934e-09
-4.83409e-09
-8.82604e-09
-1.44735e-09
-6.77573e-10
7.47817e-09
-9.47659e-09
1.04991e-08
4.50263e-09
-5.52508e-09
2.33939e-09
-9.24428e-09
-2.57173e-09
8.00771e-09
-2.87231e-09
-1.87227e-09
8.36403e-09
1.03056e-08
-6.66692e-09
7.75577e-09
8.32994e-09
1.62036e-08
-1.78037e-08
-6.7299e-09
6.3008e-09
7.71129e-09
-1.3974e-08
-3.81298e-11
3.84985e-09
1.05367e-08
-8.0858e-09
8.34414e-09
3.36442e-09
-4.17485e-09
-7.53371e-09
-6.95604e-09
1.91358e-08
-1.5889e-10
9.01563e-09
-5.12551e-10
1.64817e-08
-4.37054e-10
-1.13878e-08
-5.21477e-09
1.32196e-08
3.38293e-09
6.32525e-09
-1.23128e-09
3.22279e-09
5.21267e-09
-7.24193e-10
9.51129e-09
4.2482e-09
-2.4012e-09
6.2021e-09
-1.4701e-09
8.39102e-09
-3.55652e-09
8.2664e-09
-4.52383e-09
7.53994e-10
5.23584e-09
3.03089e-09
5.98953e-09
6.13715e-09
-3.93899e-09
7.31312e-09
4.47549e-09
4.69256e-09
-8.65075e-09
-5.6087e-10
8.34088e-09
8.70607e-10
-2.37096e-09
-8.31729e-09
2.03741e-09
7.14252e-09
-2.34152e-10
1.19454e-09
-8.10303e-09
-1.24688e-08
1.07923e-08
1.11555e-09
-6.09181e-10
-1.42307e-08
-1.38852e-08
8.16512e-09
1.95636e-09
3.76364e-09
1.4538e-09
-1.59482e-08
-1.02793e-08
1.40437e-08
4.40063e-09
-9.77486e-09
8.60922e-09
-9.11374e-09
7.13198e-09
5.44523e-09
-2.43967e-09
-1.01376e-08
8.70787e-09
5.56659e-09
1.27214e-09
6.83452e-09
4.70201e-09
8.04664e-09
-9.68516e-09
1.36405e-09
6.59109e-10
9.92925e-10
6.95704e-09
1.27325e-08
1.9703e-09
-1.78887e-09
1.00443e-08
4.52326e-10
4.64925e-09
-3.39879e-09
2.38926e-09
5.93937e-09
-4.92983e-09
4.86998e-09
-1.09443e-08
2.6756e-09
5.57646e-09
4.1099e-09
-4.8164e-09
5.3298e-09
-1.15436e-09
1.40101e-09
3.51781e-09
-3.32724e-09
5.31811e-09
-5.50875e-09
-2.37425e-09
-4.05624e-09
9.94823e-09
-4.53648e-09
7.49199e-09
-1.37849e-09
9.51892e-10
5.6776e-10
-4.79229e-09
6.61375e-09
-4.74166e-09
3.5156e-09
-2.83024e-09
4.33593e-11
4.56572e-10
-5.16231e-09
-8.04806e-09
9.12682e-09
1.16227e-10
-1.19504e-09
3.57584e-09
-3.97768e-09
-7.6463e-09
-4.21986e-09
7.02213e-09
6.32441e-09
8.89321e-10
-1.53349e-09
7.09675e-09
2.81227e-10
-1.13557e-08
-9.45963e-10
8.15887e-09
5.58135e-09
1.76735e-09
-2.85123e-09
-4.49773e-09
1.79092e-09
1.03785e-08
-6.58818e-09
2.97268e-09
7.07935e-09
-3.03003e-09
-7.70135e-09
4.47994e-09
2.51306e-09
7.08024e-10
-3.08398e-09
2.04602e-09
-6.66347e-09
-9.03842e-09
6.23565e-09
-4.02406e-09
8.78757e-09
-6.38575e-09
6.8415e-09
-3.4505e-09
8.78337e-09
2.21031e-09
-1.87948e-08
7.801e-09
5.63784e-09
-8.33958e-09
1.14851e-08
-2.08545e-08
2.0769e-09
6.10672e-09
1.26709e-08
3.72815e-09
-9.68395e-09
-1.04612e-08
2.95854e-08
6.87274e-09
9.6567e-09
-1.43191e-08
1.84544e-08
-5.94384e-09
-4.04852e-09
-3.70474e-09
-5.86323e-10
-1.33676e-08
-9.47567e-09
-9.65638e-09
4.38256e-09
7.35072e-09
-5.14445e-09
-1.41959e-08
-4.37572e-09
-6.71299e-09
-2.08336e-09
5.09159e-09
-1.62332e-08
-1.11914e-08
-3.26403e-09
-3.28993e-09
1.77453e-08
-1.38323e-08
-1.12035e-08
1.38444e-08
-1.08435e-08
-3.44472e-09
1.10242e-08
-2.04113e-10
-1.09135e-08
2.74094e-10
5.6492e-10
3.38726e-09
-1.15262e-08
7.574e-09
-9.98696e-09
7.10712e-09
8.00358e-09
3.74511e-09
-1.79683e-09
-9.95191e-09
-2.48606e-10
-1.7348e-09
-1.23632e-08
1.24605e-08
-1.41081e-08
7.16465e-11
2.2469e-09
-1.0028e-08
8.97874e-09
1.51488e-09
-1.22904e-08
-2.18337e-09
1.14074e-08
-2.75205e-08
4.90971e-09
-1.68543e-08
1.58986e-08
-1.05911e-09
-1.35483e-08
-4.38386e-09
-2.41958e-08
-1.6977e-08
3.30931e-09
-3.15663e-09
4.46981e-09
-4.62257e-09
-1.89563e-09
9.10153e-09
-3.89664e-09
-3.52655e-09
7.99493e-09
-6.36407e-09
2.06535e-09
-8.7486e-09
2.33947e-09
1.46811e-09
6.62096e-10
5.88769e-09
5.55339e-09
-6.39741e-09
-2.303e-10
5.19186e-09
1.43574e-09
4.36902e-09
-8.70113e-09
3.30943e-09
8.29257e-10
1.58489e-08
-6.96764e-09
-2.83813e-09
-6.04316e-09
-2.67347e-09
2.67409e-09
1.58483e-08
-1.55978e-08
5.51922e-10
1.23723e-08
-1.45705e-08
3.8579e-09
9.19631e-10
6.70306e-09
-4.34934e-09
-3.83026e-10
9.76019e-09
1.79092e-09
4.64878e-09
5.26581e-09
3.28457e-09
1.17318e-09
3.2431e-09
-7.70109e-09
6.86217e-09
-7.66832e-09
4.09067e-09
-4.00475e-09
7.9934e-09
5.98746e-10
-4.58745e-09
-6.34948e-10
-7.28079e-09
3.91077e-09
3.72041e-09
-3.66709e-09
-5.09209e-09
5.03856e-09
-5.96339e-09
1.0333e-08
-6.49371e-10
-7.42629e-09
-2.20421e-09
4.07438e-09
-3.23839e-09
7.53896e-09
-3.70188e-09
3.52715e-09
-7.40052e-09
6.55126e-09
-5.46933e-09
2.44516e-09
1.03139e-09
-9.66353e-10
6.48615e-09
1.14405e-09
-3.25413e-09
1.50431e-09
-2.14678e-09
3.89666e-09
1.29797e-10
-3.30296e-09
-8.0941e-11
-3.59811e-09
5.24092e-09
-5.75913e-09
4.11632e-09
-3.24007e-09
-2.28218e-10
-9.59162e-10
7.70442e-09
-5.5527e-09
-3.64896e-10
3.77082e-09
-3.70811e-10
-5.34529e-09
1.63415e-10
-3.38591e-09
-2.87825e-10
5.50979e-09
-3.82013e-09
-4.92972e-09
-1.53014e-09
1.28081e-09
-1.59871e-09
1.028e-08
-9.64039e-09
-8.74042e-09
6.77688e-09
1.2645e-09
-6.46895e-10
-4.00351e-09
4.2185e-10
-4.50265e-09
-5.50906e-09
-2.80951e-09
-6.18278e-09
1.71575e-09
1.05117e-08
1.31388e-08
-2.78073e-09
-2.08701e-08
6.96544e-09
5.44222e-09
-1.89612e-09
1.90426e-08
3.08567e-09
-8.98979e-09
1.19763e-08
1.40317e-08
7.29657e-09
8.65195e-09
-1.87295e-08
-6.84514e-09
1.28288e-08
-5.41563e-10
1.23518e-08
-1.19005e-08
1.64523e-08
-6.61621e-09
2.99266e-09
-2.74474e-11
1.12918e-08
5.18793e-09
-7.02293e-09
1.42225e-08
-4.11434e-09
8.87883e-09
-7.24996e-09
1.10319e-09
4.63217e-09
-5.74579e-09
1.3184e-08
6.78411e-09
4.23616e-09
1.27336e-08
8.6114e-10
-9.12783e-09
-4.46693e-09
1.80074e-09
-2.32961e-09
1.32624e-08
6.94144e-09
-3.36477e-09
3.31834e-09
-6.89507e-09
2.71855e-09
3.91468e-09
3.08209e-10
4.6092e-09
5.98155e-09
-6.11178e-09
-4.479e-09
6.68328e-09
6.44474e-10
-9.6456e-09
1.94612e-10
1.12517e-08
-2.8029e-09
-8.59031e-09
-6.56661e-10
6.91728e-09
-7.19165e-09
-1.05265e-08
7.6783e-10
-1.02444e-08
-1.02906e-08
3.86679e-09
-8.62022e-09
7.76641e-09
4.76841e-09
-4.74792e-09
-5.53993e-10
-9.4064e-10
7.81853e-09
1.43638e-09
7.03953e-09
-9.13271e-09
8.26214e-09
1.08844e-08
-5.97347e-09
1.04652e-09
-5.95743e-09
-2.68909e-09
9.86812e-09
3.70534e-09
1.10222e-08
-4.70442e-09
-1.22913e-08
1.08889e-09
7.24426e-09
-3.55701e-09
-2.53189e-09
4.46893e-09
1.61997e-09
-5.95176e-09
2.76471e-09
-3.69956e-10
-3.29349e-09
8.91034e-09
-4.57033e-09
5.75899e-09
-7.20199e-09
-1.33486e-08
6.76862e-09
1.87562e-09
-1.25658e-09
-4.8732e-09
1.78013e-10
2.25512e-10
4.94339e-09
-5.93787e-09
7.68959e-10
3.72716e-09
-4.2946e-09
7.92973e-10
3.95193e-09
-4.11281e-09
5.10429e-09
4.70151e-10
7.20895e-09
-3.34468e-09
-3.8978e-09
3.51004e-09
3.73245e-09
7.38839e-10
-5.15021e-09
1.0667e-09
5.5065e-09
-7.38953e-09
-4.05485e-09
2.13252e-09
3.09674e-09
-4.66227e-09
-3.58466e-09
-7.08211e-10
-9.28393e-11
-2.53845e-09
1.63038e-10
-2.28678e-09
2.60693e-09
7.02587e-10
-5.84796e-09
2.69613e-09
-1.94548e-10
-5.36455e-09
2.36772e-09
4.24065e-09
-3.91224e-09
6.34792e-09
3.62772e-09
2.71752e-09
-3.73829e-09
3.20932e-09
-2.89813e-10
5.01805e-09
3.51611e-09
-7.83153e-09
-2.20843e-09
-7.68518e-09
3.19602e-09
8.88735e-12
-2.33473e-09
5.04336e-09
-4.16017e-09
1.27318e-09
-1.10798e-08
-9.17313e-10
1.0724e-08
-9.46863e-09
8.0398e-09
9.60984e-09
-8.18101e-09
-9.75504e-09
8.28983e-09
6.68458e-10
7.96756e-10
4.67634e-09
-8.02371e-09
-6.40766e-09
-1.26425e-09
1.38564e-09
-9.59001e-09
-5.18392e-09
-5.42251e-10
6.33249e-09
-6.06318e-10
-1.2479e-08
1.04055e-08
8.09333e-10
-1.14336e-08
2.27726e-10
-8.35501e-09
-7.90875e-09
-5.52081e-09
7.44593e-09
6.36472e-09
-5.12491e-10
-3.3198e-10
1.61699e-09
4.05772e-10
-1.00465e-08
-5.02222e-09
2.45345e-10
6.16251e-09
-4.90369e-09
-6.60782e-10
9.31825e-09
-1.62696e-09
1.27955e-08
1.82882e-09
-1.30073e-08
1.40052e-09
1.20634e-08
-1.9695e-10
-9.40778e-09
-1.16599e-09
-7.38596e-09
5.06671e-09
-5.82693e-09
-3.49463e-10
4.31307e-09
-4.65206e-09
-4.35655e-10
7.7463e-10
-1.08283e-10
-1.6915e-09
6.11285e-09
1.69276e-09
-3.98634e-09
3.16681e-09
-8.73264e-10
7.69281e-10
-2.83066e-09
3.75413e-09
3.91217e-10
-3.71194e-09
-1.33136e-09
-1.83573e-09
2.49673e-09
-2.37904e-09
1.07638e-10
1.32053e-09
-3.79468e-09
-1.51223e-09
-1.64988e-09
1.39756e-10
-1.40653e-09
-4.8291e-09
-2.72391e-10
6.50802e-09
-3.46643e-09
-1.73478e-09
8.21709e-09
-5.35116e-09
-2.47473e-09
7.54349e-09
-1.01792e-09
-1.30439e-09
3.05002e-09
-5.21204e-09
3.29848e-09
3.29892e-09
-7.90178e-09
1.24246e-09
-1.65591e-09
-1.30871e-09
1.72132e-10
-6.88129e-09
9.142e-11
1.08851e-08
-1.15019e-09
-2.2674e-09
-7.46757e-09
3.08191e-09
3.15622e-09
4.64703e-09
-1.4287e-09
5.53342e-09
-5.25493e-09
3.28576e-09
-2.84412e-11
-4.68605e-09
1.59782e-09
6.30104e-09
-2.36548e-09
-1.87607e-09
3.46642e-09
7.45168e-12
-2.38047e-09
-9.01614e-09
9.12916e-09
4.79475e-09
-9.61546e-10
3.96568e-09
-7.79892e-09
-3.4773e-09
2.31619e-09
5.95585e-09
1.45884e-09
-4.91693e-11
4.9041e-09
4.47886e-09
1.44397e-09
6.92653e-09
-2.19742e-09
1.78941e-10
-8.4007e-09
5.99177e-09
3.64899e-09
1.55735e-09
-6.16787e-09
7.40914e-09
3.6977e-09
-1.65485e-09
1.70396e-09
-3.74693e-09
2.24557e-09
1.54355e-09
-9.15395e-11
3.32768e-10
2.45635e-09
-4.44403e-09
-1.05907e-09
-6.27796e-09
6.48099e-09
8.55949e-10
-7.34024e-09
6.62521e-09
-3.44117e-10
2.87972e-09
-2.7874e-09
-7.43258e-09
-1.62453e-11
-3.38202e-09
-4.5125e-09
4.41405e-09
2.3439e-09
-2.82481e-09
2.86914e-09
-5.32383e-09
1.01467e-10
7.02375e-09
-4.25612e-09
-2.51781e-09
5.78603e-09
2.11761e-09
-2.1791e-09
3.5194e-09
1.41689e-10
1.55925e-10
3.69373e-09
1.93626e-09
4.89187e-09
2.28777e-09
-5.0711e-10
7.12746e-10
6.41948e-09
2.24567e-10
5.74917e-09
-3.62039e-09
-1.57511e-10
-6.56979e-10
4.43467e-09
-1.40682e-09
1.48003e-09
5.44709e-09
7.72285e-10
3.86607e-09
-2.17345e-09
2.28867e-09
-6.08716e-11
-5.03767e-09
-4.81757e-09
4.37194e-09
5.48338e-09
-8.31496e-10
-3.78445e-09
-4.2169e-10
-4.22213e-09
-3.78643e-09
3.72789e-09
4.28071e-09
-4.62963e-09
-4.23993e-10
5.12421e-09
2.98831e-11
-4.58676e-09
-5.67319e-10
-7.07785e-09
2.45014e-09
-1.89814e-10
-3.4136e-09
9.40927e-09
-2.0108e-10
-5.79448e-09
-4.83936e-09
3.04113e-10
7.48863e-10
-2.76409e-09
-5.71498e-10
6.6374e-09
-3.30176e-09
-9.30354e-10
4.51608e-09
-6.34978e-09
-1.53762e-09
-1.68728e-09
-7.09083e-09
1.03158e-08
-2.74433e-09
-6.43107e-09
7.6378e-09
2.23027e-09
2.14594e-09
-5.30648e-09
4.46832e-09
-2.80955e-09
1.02464e-09
-1.39569e-09
-3.40971e-09
-1.95281e-10
-5.07359e-09
1.96414e-09
4.24202e-09
-2.47025e-09
5.80582e-09
-3.64091e-09
-4.19466e-09
2.9309e-09
-2.15221e-09
3.02913e-09
9.37172e-10
-1.81409e-09
3.19018e-09
-1.57327e-10
-5.18492e-09
2.05113e-09
4.23116e-09
-3.09207e-09
4.98475e-09
9.55057e-11
2.1616e-09
2.63778e-09
-4.95646e-09
-1.36422e-09
4.46299e-09
1.02163e-09
-3.64249e-09
-2.56401e-09
-1.3972e-09
-3.28447e-09
3.31748e-09
-3.12911e-09
-8.22598e-11
3.54884e-09
-1.23823e-08
7.55428e-09
1.27928e-09
-8.07068e-09
1.3913e-08
-4.82049e-09
-4.76821e-09
-9.39318e-10
2.06502e-09
3.29991e-09
-1.03439e-09
-7.03374e-09
2.16448e-09
1.96102e-10
-6.01807e-09
6.28246e-09
-6.31204e-09
-4.77663e-10
-5.5926e-09
-3.58765e-09
-1.07951e-08
-7.76506e-09
-1.86553e-09
3.61252e-09
-4.19402e-09
-4.04869e-09
-1.4254e-09
4.60747e-10
3.42734e-09
-2.46706e-09
-5.1543e-09
1.36367e-10
-7.08909e-09
-1.28504e-08
-3.29273e-10
1.48315e-08
-1.65188e-09
-3.14266e-09
-1.25838e-09
-8.44935e-09
1.23502e-08
-4.762e-09
-1.07308e-08
1.23454e-08
-7.78313e-10
7.8303e-10
1.34683e-08
-1.45217e-09
1.22376e-08
8.93451e-10
-5.20414e-09
-7.92687e-09
-9.66495e-10
9.80829e-09
3.39577e-09
1.27531e-08
-4.50829e-09
-7.35131e-09
9.57595e-09
2.21062e-09
4.22227e-10
9.34811e-09
5.0612e-09
-1.962e-09
4.09349e-09
-7.33561e-09
-1.25603e-10
-6.34468e-09
6.63114e-09
-2.34001e-09
-9.05312e-09
5.95976e-09
-1.06933e-10
9.18479e-09
4.70578e-09
-8.16686e-09
1.1002e-08
5.63681e-09
-8.10242e-09
-6.80424e-09
7.6024e-10
6.20146e-09
-1.5745e-10
-9.68697e-09
-1.72849e-09
4.62518e-09
6.79029e-09
1.23697e-09
-1.348e-09
6.95457e-11
3.53304e-09
4.54676e-09
1.02497e-08
-4.42107e-09
7.08234e-09
-1.2911e-08
3.10386e-09
1.7817e-08
-1.06712e-08
-2.38339e-09
-4.07195e-09
9.55917e-09
3.65474e-09
-1.14269e-08
2.7086e-09
5.06359e-09
-1.1087e-08
7.97371e-09
6.76802e-09
2.1795e-09
7.18217e-09
-1.35107e-08
4.14899e-09
6.62647e-09
9.20465e-09
-1.36516e-08
-5.841e-09
-3.80705e-09
-1.43898e-09
-1.06415e-08
6.90311e-09
-1.24808e-08
1.1566e-09
-6.13974e-09
1.06595e-08
7.49568e-10
3.15216e-09
-2.29093e-09
7.71237e-12
1.14879e-08
8.0656e-09
-3.17439e-09
-1.05637e-08
5.17355e-09
-2.24272e-09
-2.17248e-09
-5.15421e-09
-7.65225e-09
9.41934e-11
-1.3659e-08
1.96716e-08
-9.61321e-09
1.409e-08
-1.11259e-08
2.02255e-08
4.28581e-09
5.91189e-09
1.32451e-08
-1.69623e-08
8.00303e-09
-1.44667e-08
1.80986e-08
-7.72174e-10
1.42264e-08
-7.77338e-10
-1.93539e-09
1.40899e-09
-1.64928e-09
-1.32868e-10
-7.94858e-09
-2.48085e-09
-2.52853e-09
1.2958e-08
-8.38751e-09
-2.57416e-09
3.01307e-09
6.87119e-09
-2.66131e-09
2.70715e-09
-6.91714e-09
9.97883e-09
-4.20678e-09
1.09916e-09
-9.64602e-10
-9.62273e-09
2.19979e-09
8.42059e-09
5.9359e-10
9.53016e-09
9.88923e-10
-1.30933e-08
-6.42566e-09
1.3475e-08
6.19677e-09
3.93199e-09
-1.70818e-09
-3.0584e-09
6.72664e-09
9.22942e-09
-1.37739e-08
1.88307e-09
9.85795e-09
-4.83534e-09
7.87402e-10
-7.89162e-09
1.33532e-08
-6.24907e-09
-6.12818e-09
-1.25546e-09
8.26805e-09
-1.34383e-08
-2.71122e-09
3.58481e-09
5.89129e-09
-2.80026e-09
4.96054e-09
-4.44849e-09
2.28827e-09
4.56576e-09
1.4159e-10
-7.50757e-09
4.00264e-09
3.60149e-09
-3.0383e-09
6.72699e-09
2.23617e-09
-8.61098e-09
7.89494e-09
-4.48824e-09
5.20432e-09
-5.38881e-09
-3.44352e-09
2.21392e-10
-1.06714e-09
3.30038e-09
5.66174e-09
-1.01162e-08
3.22527e-09
5.82388e-09
5.10614e-09
-7.96217e-09
-2.53277e-09
-2.15556e-10
8.3343e-10
-5.64003e-09
-8.51333e-09
4.03714e-09
-9.18225e-09
9.86818e-11
-9.51047e-09
-3.43939e-10
1.34107e-09
4.21117e-09
-6.25672e-09
-7.46495e-09
3.7358e-09
-5.37749e-09
1.78326e-09
6.29831e-09
-9.74831e-09
1.08049e-09
2.36955e-09
5.86621e-09
6.45213e-10
1.9022e-09
7.06089e-09
-3.09688e-09
1.27661e-09
6.63511e-09
-4.68646e-09
6.4792e-09
1.76796e-11
-4.37836e-09
-4.95341e-09
-7.46498e-09
9.3175e-10
6.18928e-09
-9.9859e-09
1.61652e-08
2.41262e-09
-8.77141e-09
-9.80632e-09
6.47194e-10
1.13131e-08
-1.19085e-08
-5.18358e-11
1.66326e-08
1.79638e-10
-9.38634e-10
9.06262e-10
1.6665e-08
1.05827e-08
-2.08304e-10
-9.05254e-09
-8.7472e-09
1.02577e-08
7.542e-09
-8.76647e-09
-2.14297e-10
3.40537e-09
-5.68296e-10
-1.47455e-08
-5.44546e-09
1.03619e-10
-8.46547e-09
-9.33462e-09
1.66212e-09
1.23649e-08
1.05576e-09
-1.25143e-08
-6.60664e-09
-4.04777e-10
6.7868e-09
2.24664e-10
3.88025e-10
-4.83075e-09
1.23477e-08
-1.55539e-08
-1.21279e-08
8.89389e-09
1.8788e-08
-1.72218e-08
-7.04579e-10
2.37238e-09
6.89758e-09
-2.27658e-08
3.74037e-09
5.46787e-09
-7.50126e-09
8.93097e-09
-3.32911e-09
1.76909e-08
-1.82571e-08
-2.99588e-09
-1.51277e-09
-1.00499e-08
-2.5429e-08
2.90039e-09
-8.37811e-09
6.54577e-09
-1.06803e-09
-2.59652e-09
-4.55295e-09
-4.18403e-09
1.07753e-08
3.55773e-09
-1.01489e-08
4.79895e-09
-2.20389e-09
-6.77908e-09
-1.10087e-08
-2.84942e-09
6.35686e-09
-3.29144e-09
-1.07131e-08
1.08071e-08
-6.77598e-10
-5.33055e-09
8.51162e-09
1.55904e-09
-5.95491e-09
1.11374e-08
2.00276e-09
3.91354e-10
3.97842e-09
4.5724e-09
-8.9422e-09
3.13778e-09
-7.18552e-09
4.43911e-09
2.07314e-09
6.22407e-09
-4.31879e-09
7.40092e-09
-2.19001e-09
5.86905e-09
-2.09308e-09
3.62496e-09
4.10793e-09
5.45927e-09
-4.99479e-09
1.55766e-09
-8.75566e-10
5.54199e-09
1.21231e-08
-3.5125e-09
1.98834e-09
2.29525e-09
4.48125e-09
5.24067e-09
-7.73356e-09
6.12317e-09
8.93773e-10
4.36879e-09
4.88198e-09
-3.86649e-09
1.06819e-08
6.62547e-09
1.34307e-10
-5.80648e-09
6.11481e-09
-4.42587e-10
-4.29331e-09
4.75741e-09
-3.2976e-10
7.15502e-11
-3.36073e-10
-4.02874e-09
-4.88779e-10
-5.24614e-09
3.81367e-10
-4.42994e-09
5.17191e-10
3.53141e-09
-5.0625e-09
1.34868e-09
4.09521e-09
-2.21155e-09
8.61137e-09
-6.88859e-09
-5.11418e-11
8.1153e-09
-1.02758e-08
-4.75544e-10
-4.64327e-09
5.63176e-11
-1.4805e-10
5.67703e-09
7.47398e-10
-3.09602e-10
5.96339e-09
-6.35063e-09
-1.07334e-08
-9.43004e-10
1.01912e-08
1.48515e-09
7.28997e-09
-9.90806e-09
1.12892e-09
5.06535e-09
8.25297e-09
-5.84625e-10
-7.10849e-09
7.08218e-09
1.02176e-08
1.07708e-11
1.70677e-10
1.51492e-09
6.91601e-09
-6.57667e-09
9.22061e-09
2.42369e-09
1.3309e-09
1.66243e-09
2.14177e-08
-1.29579e-08
-1.01222e-08
2.27373e-08
-1.27364e-08
-8.33841e-09
3.69927e-09
4.5238e-09
1.31946e-08
7.38978e-09
1.90467e-08
-7.87893e-09
6.08689e-09
-1.11659e-08
-1.16904e-08
5.62946e-09
1.05847e-08
9.50189e-09
2.43748e-09
-1.98183e-08
7.01372e-09
-1.02483e-08
-2.78195e-09
-2.82164e-09
-7.76707e-09
8.04377e-09
-3.05874e-09
-1.61192e-08
1.07895e-08
1.04711e-08
4.49974e-09
1.91737e-09
-1.68882e-08
-1.89946e-08
1.19237e-08
1.75419e-08
-4.4046e-09
-7.57645e-09
2.10493e-09
-9.0568e-09
1.25812e-08
2.14184e-08
3.48668e-09
2.69464e-09
4.32698e-09
-3.16575e-09
-3.85591e-09
2.50433e-09
-6.05785e-09
7.78472e-09
2.71364e-09
4.02375e-09
-2.27431e-09
-2.20908e-09
4.09249e-09
8.3025e-10
2.12896e-09
6.46709e-10
1.26477e-08
-3.28056e-09
-6.86281e-09
5.80105e-09
3.91985e-10
6.45468e-09
-4.06284e-09
3.32596e-09
4.82943e-09
-1.39818e-10
1.00846e-10
-9.2055e-09
8.5628e-09
-1.89924e-09
7.91989e-09
6.62494e-09
6.49482e-09
-7.31864e-09
1.14133e-08
-6.68757e-09
2.01261e-09
3.53686e-09
-9.72434e-09
-5.13242e-09
3.58848e-09
5.15627e-09
-3.41886e-09
1.79944e-09
1.73491e-09
2.30103e-09
3.11668e-09
-7.15283e-09
-7.22893e-10
-2.75823e-09
7.11235e-09
-3.63121e-09
-4.09013e-09
-2.58052e-09
5.94779e-09
5.69396e-09
-1.05022e-09
-1.97526e-10
-2.7809e-10
6.2387e-09
-5.76317e-09
2.88064e-09
-1.74301e-09
-5.47811e-09
4.46295e-09
1.87859e-09
1.83281e-11
-3.58814e-09
5.10464e-09
4.63382e-09
7.93387e-09
-2.07721e-10
-8.81314e-09
2.79237e-09
1.11254e-08
-4.5802e-10
-4.2125e-10
-1.73635e-09
4.98933e-09
7.39845e-09
-7.1778e-10
-4.44902e-09
-5.62495e-10
7.80388e-09
-4.43003e-09
-4.77004e-10
-8.87217e-09
3.72652e-09
1.0135e-08
6.10844e-10
-2.08455e-09
-1.04645e-09
-2.33046e-10
-4.08009e-09
7.24412e-09
-3.07284e-09
-3.96398e-10
-3.76362e-10
-6.27971e-09
-7.52586e-09
8.25138e-09
5.55418e-09
-8.49727e-09
2.08814e-09
1.29409e-10
-1.56997e-08
1.77621e-09
6.39761e-09
-1.88603e-09
-2.02321e-10
-1.36113e-08
3.04398e-10
-1.48294e-09
9.42993e-09
-1.98637e-09
-8.39692e-09
-7.9528e-09
-1.17128e-09
9.42847e-09
-6.27063e-09
4.05972e-10
-2.68319e-09
1.22852e-08
-1.26463e-08
3.0442e-09
-9.17399e-09
2.20172e-10
1.14895e-08
-1.4927e-09
-1.01991e-08
6.81239e-09
6.45328e-09
3.55035e-09
-1.5636e-08
1.36447e-08
-1.2321e-08
2.63011e-09
1.32412e-08
-2.56732e-09
1.36813e-08
1.94054e-09
-9.85981e-11
-1.44882e-08
-9.21983e-09
2.07871e-09
-1.78133e-08
-1.1735e-08
6.28203e-09
-9.52581e-10
1.3395e-08
-2.31766e-09
2.7158e-09
3.17116e-09
1.23885e-08
1.9334e-09
9.95132e-09
4.98964e-09
1.89087e-08
3.50624e-10
1.64029e-08
-1.17639e-08
-5.76703e-09
8.05104e-09
4.06165e-10
2.18932e-10
1.27683e-08
3.20771e-09
-7.84858e-09
-8.12747e-09
6.96812e-09
6.95953e-09
-1.15937e-09
-1.27065e-08
5.06444e-09
1.68183e-09
5.96019e-09
-4.70514e-09
-4.79366e-09
5.57538e-09
6.45717e-09
8.17219e-09
-2.35258e-09
-1.36682e-08
5.66073e-09
1.07942e-08
4.09549e-09
-2.05505e-08
8.23631e-09
-1.21384e-08
9.56279e-09
1.18714e-08
-7.0174e-09
6.93862e-09
6.61461e-09
8.61992e-09
7.92501e-10
-1.24028e-09
6.25547e-09
9.32396e-09
6.43785e-09
1.1295e-08
1.56362e-08
-9.62044e-10
-1.54134e-10
-1.11917e-08
8.44698e-09
1.81031e-08
6.3199e-09
-7.4871e-09
-1.69359e-08
-9.71445e-09
1.05605e-08
1.72571e-08
-5.32392e-10
-2.86216e-09
3.16753e-09
8.02374e-09
-6.30765e-10
6.69849e-09
-8.09204e-09
4.5611e-09
3.12878e-10
1.44094e-08
-6.31263e-09
7.08176e-09
-6.5132e-09
5.74406e-09
4.72859e-11
-5.90535e-09
-4.54561e-10
-6.74233e-09
5.84343e-09
-5.18717e-09
6.08608e-09
-6.20286e-09
-4.92178e-10
-3.67245e-09
-3.8844e-09
1.05672e-08
-3.01036e-09
-2.95345e-09
-8.2061e-09
1.32381e-08
-5.1066e-09
-1.93899e-09
-4.70596e-09
-6.30598e-09
6.61345e-09
-6.86913e-09
-5.94717e-09
-5.20429e-11
1.47832e-09
3.466e-09
-7.28752e-09
2.42313e-09
-8.72828e-09
9.47667e-09
3.95363e-09
1.21317e-09
-8.82591e-09
1.29083e-08
-4.72575e-09
-7.13397e-09
-1.04857e-09
-6.59185e-11
1.04794e-09
1.19262e-08
-5.86371e-10
1.45096e-12
9.28414e-09
-8.6993e-09
-4.74953e-10
8.49299e-09
-8.60446e-09
-9.85383e-09
9.31296e-09
-5.1029e-09
-7.44643e-09
7.48448e-09
1.23399e-09
1.96887e-10
-6.77277e-09
-7.442e-09
9.17764e-10
7.57214e-09
-5.03272e-10
6.93598e-09
-6.23584e-09
6.53081e-09
-8.51215e-09
-5.15267e-09
-1.18464e-09
2.73338e-10
-7.80226e-09
-8.13197e-09
9.05115e-09
-5.7657e-09
5.1182e-09
-1.43486e-11
-4.99814e-09
-3.3112e-09
3.61395e-09
4.69538e-09
-4.4803e-09
-4.25807e-10
-9.20134e-11
7.50218e-09
-5.99117e-09
-5.99132e-09
1.55345e-09
2.6375e-09
8.62191e-09
-4.26643e-10
-1.46835e-09
-6.72691e-09
5.21737e-09
4.95797e-09
-1.41384e-09
2.97372e-10
4.73043e-09
-1.23496e-09
-5.18287e-09
-3.71829e-09
-1.00802e-09
3.31246e-09
-4.06713e-09
-7.69593e-11
-1.58265e-09
7.09738e-09
1.55572e-10
4.82527e-09
-4.43865e-09
-5.42198e-10
-3.72416e-09
-1.87398e-10
8.44267e-10
5.70184e-09
-9.43294e-10
-6.22691e-09
4.96344e-09
6.99857e-10
-6.08181e-09
-4.25927e-09
-9.12087e-10
1.80092e-09
-1.00486e-08
8.83988e-09
9.12752e-10
3.22602e-09
1.26301e-08
-1.40552e-08
-1.92383e-08
7.85452e-09
1.51242e-08
-1.75251e-08
4.90644e-09
1.28644e-08
1.34883e-09
7.09065e-09
-7.48809e-09
1.59284e-08
-7.09153e-09
6.52234e-09
-2.05906e-09
6.88877e-09
5.16175e-09
-6.65834e-10
-8.3147e-09
3.81881e-09
3.3693e-09
-5.87557e-09
7.66803e-09
-7.54979e-09
7.7757e-09
-1.60507e-09
7.09636e-09
-8.62941e-09
-6.01672e-09
6.66754e-09
4.58424e-09
-1.19176e-08
3.56195e-09
1.10775e-08
-7.97194e-09
-1.38433e-08
9.61076e-09
-3.0243e-09
7.25682e-09
-5.04048e-09
5.33062e-09
7.48556e-09
1.83516e-09
2.20703e-10
1.22619e-08
4.5125e-09
-7.46071e-09
-5.36649e-09
4.72101e-10
-3.55865e-09
-4.4303e-09
5.28258e-10
3.59002e-09
-8.08498e-09
7.5666e-09
-3.07184e-09
-1.04991e-08
7.93872e-10
-1.63963e-08
-2.119e-09
3.24613e-09
1.5269e-08
1.294e-08
-9.24241e-09
-2.0094e-08
9.27871e-09
-3.26469e-09
-1.40991e-08
6.01147e-09
-7.23189e-09
1.74791e-09
-5.11386e-09
4.24676e-09
-1.69949e-09
1.03927e-08
9.56335e-09
-2.20706e-08
8.16897e-09
-7.2476e-10
-2.07012e-09
-5.69157e-09
1.30356e-08
8.74957e-09
-5.85673e-09
1.91494e-08
5.02154e-09
-1.11354e-08
-1.88762e-08
-1.17969e-09
1.86719e-09
1.81887e-08
2.39215e-09
-1.25187e-08
1.22989e-09
1.40402e-08
-1.40499e-08
-1.22015e-09
-7.68167e-09
8.79896e-09
1.12583e-10
-8.81291e-10
-7.80241e-09
8.5443e-09
1.39408e-10
8.55884e-09
2.83323e-09
-6.76689e-09
-4.11548e-12
1.49993e-09
1.64698e-08
4.03146e-10
1.55042e-08
-6.85977e-10
9.88809e-09
-6.95727e-09
-4.25939e-09
1.44422e-09
1.00142e-08
-9.95848e-09
7.87478e-09
-7.11654e-09
-6.92708e-09
-1.70347e-08
1.832e-09
5.00398e-09
-1.37631e-08
4.39078e-09
-7.67271e-09
6.56543e-11
-4.71859e-09
3.99562e-09
-1.22438e-08
-4.34962e-09
2.31662e-09
-5.51424e-09
5.29641e-09
-2.09878e-09
-5.80661e-09
-2.63011e-09
1.07533e-08
-5.31127e-09
-5.97586e-09
5.48053e-09
-1.14206e-09
-6.10914e-09
1.73694e-09
-6.4698e-09
1.64214e-11
9.74417e-10
7.36904e-09
-6.65693e-09
-1.68651e-09
-5.12589e-09
-3.69507e-10
5.9134e-09
-2.2552e-11
7.18736e-10
-6.6096e-09
8.36243e-10
-4.87621e-11
-7.53567e-09
7.39248e-09
9.79413e-10
5.86411e-10
-8.14465e-09
-1.02316e-08
1.60128e-09
6.31179e-09
2.31851e-09
3.40499e-10
-9.98567e-09
-9.24938e-09
1.03905e-08
-3.77129e-09
2.3808e-10
1.1551e-09
-6.90196e-09
9.63766e-10
2.88462e-09
-1.2504e-08
9.57355e-09
9.24222e-09
-1.15456e-08
-6.179e-10
1.48024e-09
-1.04916e-08
1.03583e-08
2.51945e-09
-1.0922e-08
-1.9557e-09
8.68277e-10
2.62466e-09
6.86534e-09
-8.8532e-09
1.52255e-08
-1.82058e-09
-4.55176e-09
1.00432e-08
-6.54935e-09
-1.23471e-08
1.26325e-08
1.59033e-09
-8.68367e-09
-5.53918e-09
3.99193e-09
9.50891e-09
-7.84313e-09
3.30605e-09
7.16176e-09
-5.69584e-09
3.72158e-10
-6.69662e-09
-2.63505e-09
-8.32534e-09
2.3e-09
3.29486e-10
-7.98224e-09
-7.03972e-09
7.05739e-09
6.11981e-09
-8.05539e-09
-5.12181e-09
8.67461e-09
6.82777e-10
-7.27289e-09
8.65607e-09
1.38424e-08
1.18242e-09
1.58792e-09
-6.18654e-09
-4.31772e-09
1.44865e-09
-1.41846e-08
-1.31742e-10
1.27797e-08
6.83853e-09
4.63697e-10
7.05986e-09
8.45328e-09
-1.4589e-08
1.02342e-08
3.0364e-09
-3.28589e-09
-5.91053e-09
-2.02564e-10
-1.17461e-10
-3.72295e-09
-2.88824e-09
5.61479e-09
-2.53629e-09
-1.1737e-09
-1.29604e-11
-2.48285e-09
-2.55969e-10
-6.51367e-10
1.47584e-09
-4.11034e-09
1.15041e-09
-4.28463e-09
1.73915e-09
6.32174e-09
-2.52058e-09
-5.54027e-09
6.52905e-09
-3.31405e-09
-4.35625e-09
-1.10393e-09
2.57194e-09
-3.7036e-09
-1.82636e-09
2.6975e-09
2.52027e-09
6.26426e-09
-5.07378e-09
-6.54908e-09
7.59733e-10
3.57966e-09
2.20966e-09
3.05296e-09
-8.08469e-09
9.31146e-09
-4.27972e-09
-8.47272e-09
-2.80489e-09
4.72849e-09
-2.06567e-09
-9.24773e-09
1.43663e-08
-4.34148e-09