/*--------------------------------*- C++ -*----------------------------------*\
| =========                 |                                                 |
| \\      /  F ield         | OpenFOAM: The Open Source CFD Toolbox           |
|  \\    /   O peration     | Version:  v1612+                                |
|   \\  /    A nd           | Web:      www.OpenFOAM.com                      |
|    \\/     M anipulation  |                                                 |
\*---------------------------------------------------------------------------*/
FoamFile
{
    version     2.0;
    format      ascii;
    class       volScalarField;
    location    "206";
    object      p;
}
// * * * * * * * * * * * * * * * * * * * * * * * * * * * * * * * * * * * * * //

dimensions      [0 2 -2 0 0 0 0];

internalField   nonuniform List<scalar> 
19037
(
3.87504
3.68011
3.94401
3.93311
3.94267
3.9451
3.94709
3.94561
3.94706
3.9479
3.9589
3.95025
3.94785
3.94757
3.95448
3.94843
3.95063
3.95617
3.9487
3.96008
3.978
3.99039
3.96178
3.97657
3.97693
3.97743
3.99601
3.81206
3.78632
3.78275
3.76971
3.82158
3.81998
3.81381
3.79854
3.77239
3.79366
3.79859
3.78936
3.78496
3.76371
3.76356
3.69359
3.69589
3.68845
3.69119
3.69875
3.72194
3.7154
3.68926
3.70521
3.711
3.71239
3.69075
3.69769
3.70251
3.68155
3.68467
3.68023
3.68072
3.67983
3.68067
3.68109
3.68119
3.68135
3.67791
3.68011
3.67911
3.68356
3.68375
3.679
3.67929
3.68211
3.6822
3.68109
3.68263
3.70288
3.71033
3.68229
3.68322
3.69615
3.68689
3.69959
3.7101
3.68577
3.68608
3.68615
3.68052
3.70327
3.70549
3.67557
3.68624
3.67575
3.66991
3.67728
3.67899
3.67515
3.671
3.66827
3.67213
3.73876
3.74245
3.76702
3.75002
3.7308
3.72093
3.72639
3.76997
3.75114
3.76619
3.74363
3.76256
3.7617
3.77858
3.73282
3.73409
3.78288
3.80745
3.7469
3.73146
3.77365
3.74889
3.75271
3.79841
3.72194
3.72511
3.76126
3.75285
3.74333
3.75695
3.75542
3.73769
3.75475
3.74338
3.76184
3.75283
3.75434
3.76096
3.75377
3.76227
3.73676
3.71606
3.73877
3.72943
3.89766
3.89044
3.90386
3.9002
3.88294
3.86905
3.87931
3.89633
3.90154
3.89699
3.8696
3.89119
3.87436
3.88326
3.95875
3.95038
3.94418
3.94362
3.94201
3.9438
3.97861
3.97363
3.96591
3.98033
3.96815
3.98315
3.96949
3.96534
3.95278
3.95018
3.98053
3.97893
3.97014
3.98497
3.89692
3.89721
3.88505
3.89712
3.90884
3.91631
3.92215
3.92191
3.89549
3.91127
3.92205
3.91436
3.88858
3.89304
3.9019
3.92773
3.92737
3.91838
3.91176
3.92308
3.90327
3.89313
3.91673
3.88872
3.85994
3.90806
3.88939
3.87708
3.90346
3.90847
3.90944
3.72961
3.7324
3.70808
3.70947
3.72317
3.72321
3.716
3.71979
3.71774
3.72382
3.70748
3.6927
3.69307
3.70745
3.70773
3.70902
3.73256
3.70465
3.70222
3.71722
3.71677
3.69736
3.69865
3.6959
3.69496
3.6963
3.6994
3.69797
3.69749
3.70132
3.68615
3.68293
3.6928
3.69874
3.67678
3.6889
3.69129
3.68687
3.7017
3.68672
3.69059
3.68292
3.81692
3.82249
3.7974
3.84196
3.84083
3.85026
3.82208
3.84782
3.7752
3.78939
3.83283
3.83266
3.82032
3.76461
3.77746
3.76799
3.99474
3.99445
3.99752
3.97922
3.99181
4.00532
3.97013
3.99368
3.97276
3.9729
3.98898
3.98704
3.97119
3.90484
3.91333
3.91505
3.90772
3.90962
3.90463
3.92091
3.90605
3.90552
3.91439
3.92166
3.89916
3.92079
3.90906
3.92696
3.92777
3.92418
3.92219
3.92555
3.91524
3.68192
3.66357
3.6828
3.67545
3.68691
3.65875
3.67149
3.65651
3.67016
3.67444
3.66544
3.67868
3.67527
3.67856
3.68194
3.68021
3.68438
3.67142
3.68596
3.67648
3.67536
3.67202
3.6723
3.67322
3.67745
3.67829
3.67367
3.67898
3.67694
3.67588
3.75959
3.75597
3.75386
3.76991
3.76337
3.7625
3.79247
3.8029
3.79295
3.78398
3.8001
3.76113
3.76205
3.78467
3.78126
3.77789
3.77137
3.788
3.78929
3.78798
3.65848
3.66331
3.66312
3.66351
3.6673
3.66645
3.6666
3.66659
3.66097
3.67375
3.67063
3.67142
3.66404
3.66763
3.67689
3.66668
3.69626
3.69234
3.69738
3.69033
3.70277
3.69569
3.68123
3.69628
3.6963
3.69911
3.69326
3.70186
3.70318
3.70529
3.69845
3.70748
3.70548
3.70387
3.70282
3.69868
3.6665
3.67105
3.66345
3.67662
3.67992
3.6687
3.67091
3.6787
3.67472
3.66372
3.67977
3.68346
3.65714
3.65953
3.67216
3.66061
3.6775
3.68763
3.67846
3.68526
3.65812
3.67907
3.67467
3.68773
3.6841
3.72327
3.71704
3.71541
3.73088
3.7298
3.72655
3.70765
3.70734
3.71685
3.70561
3.72496
3.70026
3.71187
3.72167
3.72662
3.72646
3.68813
3.69193
3.69025
3.7005
3.69375
3.69361
3.68131
3.68576
3.68982
3.6858
3.68846
3.67381
3.68557
3.69192
3.68525
3.68153
3.68406
3.68362
3.86607
3.85992
3.85234
3.84805
3.86832
3.86555
3.83637
3.83219
3.86426
3.85521
3.8317
3.82415
3.81315
3.82674
3.87906
3.87502
3.83617
3.86302
3.87194
3.86135
3.86441
3.84462
3.818
3.81331
3.87937
3.82927
3.87262
3.89268
3.84939
3.82721
3.85292
3.82353
3.82972
3.85887
3.84267
3.83551
3.87912
3.85711
3.90027
3.89451
3.86808
3.88205
3.85944
3.82622
3.82549
3.89417
3.89655
3.8741
3.74929
3.75828
3.76009
3.76117
3.74589
3.74603
3.75445
3.75992
3.77153
3.78703
3.75788
3.76706
3.76114
3.75773
3.76767
3.7576
3.76057
3.78144
3.94569
3.93329
3.91682
3.92806
3.94058
3.93068
3.94516
3.93612
3.91879
3.91756
3.92014
3.90192
3.89437
3.93541
3.93748
3.7611
3.76422
3.74519
3.75563
3.79617
3.78324
3.78049
3.77475
3.76848
3.76355
3.76791
3.74577
3.75172
3.75001
3.72596
3.7482
3.7337
3.72072
3.71258
3.71569
3.72169
3.73893
3.73049
3.69353
3.69567
3.71749
3.69203
3.71145
3.70987
3.74459
3.72736
3.7343
3.72205
3.73711
3.71559
3.79721
3.79271
3.79217
3.80456
3.80514
3.79824
3.78073
3.81177
3.80577
3.8033
3.79658
3.81452
3.813
3.81603
3.66923
3.66224
3.64124
3.66031
3.6678
3.65247
3.65263
3.6568
3.66125
3.65444
3.66566
3.65594
3.64195
3.65071
3.63842
3.64566
3.65889
3.64598
3.65501
3.68283
3.67921
3.68277
3.68298
3.68373
3.67994
3.68515
3.68369
3.68399
3.68188
3.68513
3.684
3.68225
3.68101
3.68385
3.68029
3.68248
3.68396
3.68133
3.6813
3.68233
3.68359
3.68649
3.68668
3.68296
3.67922
3.68568
3.68295
3.68559
3.684
3.68472
3.68295
3.68391
3.68199
3.68759
3.68606
3.68367
3.65397
3.65926
3.65376
3.68339
3.68365
3.67337
3.69675
3.69387
3.67676
3.67845
3.67692
3.67472
3.68838
3.67802
3.66061
3.6843
3.67981
3.67984
3.68217
3.67886
3.68081
3.68069
3.67979
3.67996
3.67905
3.67603
3.67789
3.67498
3.6801
3.67959
3.67875
3.67749
3.67966
3.67652
3.67502
3.66859
3.67249
3.66766
3.66978
3.669
3.66988
3.67292
3.67237
3.66844
3.65569
3.67168
3.66052
3.66675
3.70052
3.7076
3.71252
3.71274
3.69086
3.69049
3.69293
3.7009
3.70074
3.7146
3.68321
3.67701
3.70626
3.6947
3.6998
3.68313
3.71762
3.68342
3.70581
3.73118
3.72545
3.74711
3.75733
3.73377
3.73983
3.71849
3.72592
3.72652
3.7372
3.7199
3.71803
3.72367
3.71228
3.71283
3.72004
3.72201
3.74217
3.7242
3.71638
3.71454
3.72651
3.71321
3.71927
3.73147
3.71104
3.70589
3.70291
3.71216
3.717
3.72835
3.71493
3.70989
3.70206
3.70694
3.71751
3.7061
3.73212
3.72058
3.72199
3.70988
3.70133
3.71024
3.70707
3.73502
3.72641
3.70181
3.73155
3.72277
3.71349
3.70682
3.701
3.71217
3.70029
3.72792
3.72295
3.66168
3.65995
3.66205
3.66523
3.66054
3.66196
3.66343
3.66289
3.65625
3.66629
3.66718
3.66764
3.66154
3.87663
3.90358
3.88303
3.88608
3.86475
3.87526
3.90377
3.90938
3.87482
3.90144
3.92365
3.88893
3.89662
3.91378
3.89887
3.83304
3.82945
3.83775
3.82295
3.81042
3.83795
3.84182
3.84288
3.83823
3.84489
3.8331
3.82368
3.82056
3.80857
3.8445
3.83816
3.83278
3.82346
3.83425
3.80492
3.77189
3.76068
3.75252
3.78593
3.77296
3.79245
3.81764
3.81694
3.80236
3.81115
3.80544
3.79701
3.78273
3.78414
3.79129
3.80247
3.79571
3.7827
3.78586
3.80378
3.80755
3.79677
3.80073
3.77726
3.77119
3.76948
3.77689
3.78228
3.78107
3.79044
3.78123
3.7663
3.76091
3.71382
3.71831
3.71873
3.71823
3.72536
3.71139
3.69967
3.70442
3.70457
3.71007
3.70125
3.69798
3.70083
3.70238
3.71107
3.7141
3.70434
3.70008
3.69974
3.69895
3.80326
3.80471
3.80283
3.79031
3.81905
3.77416
3.83749
3.8078
3.80464
3.83486
3.84479
3.81591
3.84047
3.72042
3.72814
3.70814
3.73528
3.71274
3.7341
3.73803
3.7424
3.73142
3.71109
3.71454
3.70792
3.69602
3.71221
3.74892
3.75545
3.74396
3.71295
3.71937
3.70723
3.726
3.72278
3.68395
3.68433
3.68501
3.67781
3.68448
3.68442
3.68378
3.68077
3.68012
3.6883
3.68933
3.68573
3.68219
3.68067
3.68427
3.68108
3.68038
3.68668
3.68185
3.68665
3.68666
3.68654
3.68525
3.68418
3.68677
3.68766
3.68243
3.67984
3.68424
3.68302
3.68376
3.6795
3.68161
3.68286
3.68475
3.68186
3.68334
3.6849
3.68638
3.6778
3.67305
3.68201
3.68274
3.67901
3.68043
3.67844
3.67624
3.68174
3.68053
3.6784
3.67943
3.67865
3.7478
3.74297
3.72785
3.74431
3.73727
3.76042
3.74232
3.76645
3.75672
3.78446
3.77505
3.75869
3.77276
3.7823
3.77685
3.73504
3.7295
3.73051
3.73642
3.7332
3.76001
3.75887
3.75071
3.75736
3.74716
3.75558
3.74547
3.74449
3.72178
3.71772
3.71782
3.72595
3.72352
3.83373
3.84976
3.8458
3.86583
3.84472
3.85637
3.84136
3.8415
3.8647
3.87503
3.83599
3.8792
3.86539
3.87229
3.88457
3.82956
3.84948
3.85999
3.84611
3.64973
3.64795
3.66094
3.66427
3.6621
3.66205
3.65787
3.65432
3.65094
3.64342
3.64843
3.65438
3.65221
3.65934
3.6591
3.65027
3.64142
3.64262
3.8207
3.80663
3.81822
3.83575
3.83593
3.82604
3.81801
3.8007
3.81009
3.80917
3.79333
3.83422
3.82059
3.84212
3.80725
3.82277
3.80272
3.78716
3.77347
3.75459
3.74529
3.76697
3.74507
3.7736
3.72156
3.7478
3.73506
3.73234
3.7361
3.71732
3.72982
3.75556
3.75824
3.77031
3.7336
3.72362
3.66807
3.67029
3.66671
3.66612
3.67258
3.67603
3.66805
3.67123
3.66765
3.67631
3.67957
3.67246
3.68363
3.66235
3.66269
3.65912
3.6634
3.67104
3.65534
3.652
3.67058
3.66715
3.66254
3.64989
3.66318
3.66341
3.64691
3.66116
3.65445
3.67918
3.68388
3.7089
3.69709
3.69577
3.68728
3.68918
3.70973
3.70392
3.68171
3.69577
3.69326
3.69521
3.68925
3.68619
3.71954
3.68596
3.68078
3.66686
3.66828
3.75606
3.74579
3.74489
3.6776
3.67764
3.67533
3.75206
3.74962
3.67832
3.67839
3.67296
3.66969
3.66591
3.66726
3.66639
3.67622
3.67617
3.67272
3.66827
3.76291
3.76666
3.75213
3.76842
3.75128
3.74929
3.80171
3.80227
3.6815
3.6798
3.68012
3.67534
3.67961
3.67542
3.70336
3.67429
3.67527
3.67419
3.68222
3.68102
3.67946
3.6908
3.69059
3.6671
3.66794
3.8208
3.8187
3.8117
3.67867
3.6746
3.67834
3.68046
3.67506
3.68757
3.68575
3.67455
3.86027
3.85914
3.68492
3.68185
3.68211
3.68543
3.68066
3.68109
3.78168
3.80602
3.80185
3.67785
3.68252
3.67656
3.684
3.68388
3.68218
3.77799
3.74162
3.75187
3.89961
3.88087
3.87556
3.87854
3.87734
3.87843
3.73985
3.76991
3.76222
3.78763
3.68398
3.68216
3.68258
3.6807
3.68347
3.6819
3.68604
3.69092
3.6852
3.68317
3.68323
3.68175
3.68007
3.68509
3.68635
3.95143
3.95308
3.94209
3.85915
3.87635
3.68662
3.68834
3.69216
3.68445
3.83513
3.86525
3.85523
3.88051
3.72273
3.72307
3.68649
3.68294
3.68267
3.68005
3.68455
3.68357
3.68245
3.68219
3.68771
3.84876
3.82766
3.97782
3.98153
3.72111
3.72016
3.90223
3.9145
3.88168
3.71177
3.70548
3.70105
3.69332
3.69243
3.69331
3.68732
3.68614
3.68395
3.68605
3.6828
3.75979
3.75592
3.74332
3.68593
3.69017
3.68615
3.68642
3.90803
3.89714
3.68593
3.68242
3.77897
3.76783
3.7769
3.98903
4.00367
3.75333
3.7491
3.75613
3.93604
3.92372
3.91363
3.91547
3.93766
3.9436
3.68786
3.68731
3.69088
3.99394
3.98962
3.99248
3.98494
3.73677
3.73376
3.7191
3.68439
3.70752
3.71259
3.81337
3.80273
3.79318
3.695
3.70038
3.69614
3.70105
3.6997
3.73915
3.74561
3.74205
3.98043
3.97944
3.97283
3.9766
3.8402
3.82819
3.82702
3.95179
3.93533
3.93394
3.96519
3.96792
3.96535
3.94611
3.93929
3.74457
3.71476
3.73561
3.73165
3.85063
3.84594
3.78276
3.79059
3.78547
3.72051
3.9187
3.92599
3.92813
3.86348
3.85442
3.95144
3.95951
3.95906
3.94841
3.94765
3.9515
3.94674
3.94149
3.93594
3.93983
3.92914
3.93084
3.92702
3.93492
3.93002
3.93135
3.94543
3.9452
3.94026
3.93698
3.79864
3.80794
3.82613
3.8297
3.81359
3.83978
3.84107
3.88992
3.88671
3.87315
3.89787
3.86995
3.83566
3.83725
3.8354
3.82563
3.84286
3.84982
3.82086
3.88742
3.89376
3.8821
3.8691
3.87451
3.88264
3.88214
3.88334
3.87849
3.88354
3.89404
3.86112
3.87908
3.89759
3.9014
3.92285
3.92332
3.91678
3.91362
3.91058
3.95933
3.95423
3.9351
3.93509
3.93859
3.93826
3.93173
3.94799
3.93986
3.94295
3.94787
3.93812
3.93093
3.93811
3.92861
3.9234
3.93878
3.92669
3.7083
3.71056
3.71089
3.71928
3.69733
3.7015
3.70711
3.72423
3.70654
3.70431
3.70397
3.81062
3.80821
3.8079
3.79104
3.74263
3.74264
3.73303
3.74474
3.85609
3.84557
3.85965
3.86509
3.81668
3.82485
3.83772
3.83086
3.82819
3.8343
3.84402
3.84935
3.84119
3.74951
3.74994
3.75723
3.74318
3.71741
3.72145
3.72881
3.73398
3.72644
3.74343
3.96611
3.96159
3.95308
3.95897
3.92482
3.91192
3.90504
3.932
3.92872
3.95909
3.94722
3.95131
3.9587
3.95473
3.9561
3.95193
3.92594
3.92671
3.9316
3.92246
3.9134
3.90061
3.91299
3.97978
3.98744
3.98427
3.9842
3.9395
3.95092
3.95094
3.9574
3.96557
3.96855
3.96938
3.97237
3.89027
3.8966
3.88301
3.90944
3.90796
3.9166
3.91447
3.9263
3.92021
3.90044
3.90349
3.88919
3.93058
3.92238
3.94667
3.94308
3.93646
3.94945
3.92983
3.94817
3.93228
3.94015
3.93478
3.92586
3.97243
3.97186
3.97123
3.96173
3.97969
3.97575
3.96361
3.78559
3.78062
3.80132
3.86349
3.83749
3.84763
3.83769
3.84186
3.86231
3.83636
3.82769
3.98964
3.984
3.99236
3.9737
3.95425
3.94155
3.95482
3.95874
3.94794
3.95936
3.96046
3.97089
3.99179
3.98558
3.97553
3.98619
3.99118
3.97915
3.97134
3.96368
3.97893
3.96652
3.97684
3.9775
3.97622
3.96423
3.96001
3.96535
3.95729
3.97031
3.96363
3.95647
3.73012
3.73747
3.73936
3.72931
3.77218
3.77106
3.78591
3.78227
3.79132
3.74925
3.74692
3.75347
3.75918
3.70957
3.71776
3.70463
3.73693
3.71471
3.72401
3.7811
3.78229
3.76322
3.75925
3.7541
3.77302
3.76648
3.7749
3.76572
3.76683
3.75291
3.78919
3.78116
3.77578
3.77789
3.79215
3.83361
3.84312
3.82316
3.81262
3.82068
3.82085
3.80912
3.79958
3.82521
3.8271
3.83449
3.80498
3.86197
3.84069
3.8511
3.85664
3.83362
3.8315
3.81726
3.82442
3.83427
3.83713
3.8226
3.69012
3.69817
3.69022
3.69951
3.69016
3.70509
3.69527
3.69086
3.70985
3.69679
3.70158
3.73007
3.74577
3.74619
3.74876
3.74528
3.7323
3.72527
3.73027
3.73207
3.67837
3.67944
3.69145
3.68664
3.69428
3.69964
3.70096
3.70174
3.69326
3.69048
3.69053
3.70501
3.68715
3.69856
3.72054
3.70295
3.71614
3.7181
3.70541
3.73471
3.73997
3.74796
3.75858
3.72338
3.73051
3.742
3.73573
3.76648
3.754
3.7545
3.75047
3.95726
3.9672
3.94452
3.93764
3.94845
3.94006
3.97026
3.97525
3.9761
3.96859
3.98966
3.99302
3.97364
3.99305
4.00437
4.00907
3.99206
3.98012
3.98126
3.99423
3.98767
3.98894
3.98309
3.98999
3.97626
3.99024
3.69376
3.68
3.68316
3.69137
3.68751
3.69042
3.67895
3.69124
3.70729
3.71342
3.71549
3.69722
3.70371
3.70384
3.71068
3.69428
3.70038
3.81396
3.833
3.83867
3.8992
3.9297
3.92083
3.8936
3.94501
3.89687
3.8899
3.90979
3.90544
3.91646
3.90134
3.83225
3.82969
3.81171
3.84146
3.95031
3.96177
3.9439
3.87644
3.88234
3.86574
3.88403
3.90023
3.91869
3.90858
3.93029
3.93009
3.71565
3.72
3.73665
3.74311
3.73694
3.72867
3.71908
3.72043
3.72939
3.7333
3.73573
3.73563
3.72551
3.72534
3.77882
3.76002
3.7491
3.77732
3.79208
3.8096
3.80147
3.78093
3.78739
3.79771
3.80146
3.80201
3.76413
3.77383
3.78545
3.78458
3.7847
3.76277
4.00481
3.9865
4.00021
4.00138
3.98887
4.00052
3.9616
3.98194
3.98456
3.99588
3.97488
3.96155
3.94973
3.71751
3.7233
3.71913
3.75787
3.76324
3.76776
3.7721
3.77179
3.76109
3.76014
3.75354
3.76217
3.74847
3.74393
3.73011
3.72889
3.68355
3.68726
3.69204
3.68547
3.68802
3.6813
3.6896
3.68119
3.68954
3.68902
3.67873
3.68123
3.68312
3.68719
3.69266
3.82844
3.83038
3.84575
3.89939
3.87956
3.87262
3.85965
3.85736
3.88188
3.88029
3.85271
3.86718
3.8702
3.84591
3.83603
3.87988
3.87742
3.85704
3.84452
3.95643
3.93416
3.89571
3.90398
3.95056
3.92997
3.91019
3.94552
3.9253
3.9389
3.95612
3.93945
3.94511
3.9402
3.91789
3.68446
3.68701
3.68899
3.6893
3.6883
3.68985
3.6879
3.6911
3.69238
3.69183
3.69421
3.69186
3.69424
3.6958
3.69706
3.69028
3.69124
3.69805
3.69533
3.72485
3.73462
3.74085
3.72053
3.70825
3.72021
3.72622
3.73824
3.82513
3.79932
3.81552
3.80274
3.83292
3.84535
3.8244
3.79007
3.77205
3.78828
3.68553
3.69377
3.69389
3.69131
3.69101
3.68912
3.68246
3.68499
3.68795
3.68355
3.68973
3.68932
3.69177
3.6895
3.68967
3.69594
3.69052
3.70244
3.693
3.69952
3.70246
3.69423
3.82404
3.82858
3.97366
3.97133
3.95896
3.92489
3.92133
3.90397
3.94088
3.94769
3.90556
3.90585
3.92775
3.9426
3.94706
3.91033
3.92422
3.96735
3.95157
3.94479
3.92269
3.97631
3.95054
3.91962
3.93478
3.92901
3.71021
3.68423
3.67614
3.70747
3.77276
3.77274
3.96948
3.96162
3.97558
3.93167
3.93506
3.92368
3.96569
3.99432
3.99451
3.98195
3.9887
3.97102
3.96574
3.96215
3.96315
3.95491
3.93913
3.9633
3.95621
3.96108
3.95362
3.77433
3.74591
3.78418
3.77649
3.782
3.79131
3.779
3.81664
3.86741
3.87645
3.90521
3.86995
3.85734
3.6864
3.685
3.68683
3.68576
3.68529
3.6911
3.68387
3.68384
3.68179
3.68702
3.68633
3.68891
3.68186
3.68466
3.68666
3.68417
3.68358
3.6833
3.68216
3.68742
3.68193
3.68214
3.68577
3.68339
3.68443
3.68455
3.68042
3.68251
3.68302
3.6859
3.68443
3.68493
3.68246
3.68224
3.68403
3.68542
3.68705
3.68299
3.68592
3.68372
3.68637
3.68576
3.68274
3.68238
3.68552
3.70459
3.70209
3.69241
3.69524
3.68893
3.70449
3.69413
3.69193
3.69135
3.703
3.70541
3.69516
3.70368
3.71957
3.71452
3.72305
3.70502
3.70956
3.70004
3.69475
3.68676
3.68115
3.68581
3.68855
3.71308
3.71675
3.73725
3.72415
3.73393
3.72461
3.73712
3.75144
3.7427
3.93594
3.93291
3.94742
3.87034
3.8623
3.8463
3.89626
3.86039
3.90835
3.89827
3.83377
3.85094
3.8421
3.81102
3.8069
3.78746
3.78733
3.79238
3.78809
3.76839
3.80767
3.8281
3.81841
3.8021
3.6829
3.68182
3.68324
3.68587
3.8507
3.8526
3.85911
3.84732
3.88526
3.86882
3.79762
3.81789
3.82451
3.79098
3.84257
3.83471
3.8353
3.84089
3.90935
3.92302
3.90072
3.89714
3.91226
3.89556
3.89707
3.9046
3.89018
3.9245
3.90769
3.90687
3.90272
3.88119
3.92694
3.92411
3.6754
3.67848
3.68366
3.68439
3.67633
3.67731
3.69093
3.67851
3.67995
3.68105
3.68332
3.68448
3.68285
3.69291
3.68976
3.68566
3.68682
3.68714
3.68463
3.68414
3.68274
3.68553
3.68522
3.68445
3.68647
3.68666
3.68412
3.68204
3.68201
3.68175
3.68317
3.72265
3.70187
3.72664
3.70482
3.67563
3.68674
3.6869
3.68625
3.68106
3.69184
3.6824
3.68139
3.68081
3.67587
3.67173
3.68219
3.68169
3.68313
3.67626
3.67681
3.6798
3.67602
3.67963
3.68197
3.67894
3.68086
3.68584
3.68216
3.6806
3.68163
3.68131
3.68562
3.68191
3.68312
3.68559
3.68316
3.68549
3.68273
3.6832
3.67383
3.67508
3.68046
3.68307
3.68487
3.67771
3.68251
3.70398
3.69654
3.69031
3.68277
3.67982
3.67265
3.68039
3.69047
3.68463
3.68615
3.67997
3.67924
3.68082
3.69222
3.69073
3.67511
3.68185
3.69754
3.68097
3.68689
3.68203
3.75589
3.76465
3.77215
3.7938
3.76936
3.75038
3.7951
3.78205
3.72988
3.74243
3.7571
3.75723
3.74212
3.90071
3.91527
3.9084
3.88729
3.91396
3.85549
3.8728
3.86296
3.86555
3.87487
3.85382
3.8853
3.89777
3.87339
3.9126
3.89455
3.89365
3.88338
3.87677
3.8682
3.8238
3.82206
3.82385
3.86445
3.85344
3.88971
3.87805
3.88149
3.88522
3.90076
3.88709
3.86657
3.86643
3.8819
3.87334
3.73513
3.74578
3.72514
3.71792
3.72898
3.72444
3.71466
3.73528
3.7246
3.7215
3.74525
3.74627
3.73098
3.73766
3.761
3.74457
3.73994
3.73127
3.68219
3.68365
3.68452
3.68378
3.68162
3.68301
3.67817
3.68128
3.67818
3.67803
3.68288
3.6747
3.67396
3.66812
3.67615
3.67515
3.68208
3.68105
3.68137
3.67342
3.67956
3.74731
3.75026
3.76235
3.76672
3.76738
3.74653
3.74663
3.83685
3.85301
3.83774
3.79732
3.80706
3.86155
3.86107
3.79953
3.77438
3.79353
3.78504
3.78498
3.7766
3.68255
3.67986
3.68326
3.68279
3.68395
3.68377
3.6813
3.67498
3.67911
3.68339
3.68532
3.68253
3.68015
3.6822
3.68369
3.68238
3.6836
3.67366
3.66302
3.67499
3.67946
3.67391
3.66894
3.66467
3.67311
3.67607
3.66836
3.71883
3.72219
3.70817
3.68873
3.72827
3.72847
3.84692
3.85275
3.85206
3.86047
3.83236
3.83233
3.84877
3.84397
3.85086
3.83868
3.67526
3.67068
3.66811
3.67663
3.69407
3.69502
3.70657
3.72422
3.70455
3.67701
3.68026
3.67686
3.67124
3.68038
3.67863
3.68364
3.68293
3.6653
3.67754
3.67722
3.67491
3.67818
3.67812
3.68144
3.67834
3.67088
3.68211
3.67541
3.6751
3.67157
3.67381
3.67547
3.76706
3.75312
3.78448
3.76875
3.79404
3.79219
3.789
3.78215
3.7684
3.80195
3.80017
3.7968
3.79414
3.78375
3.78019
3.77294
3.77614
3.78911
3.80469
3.79941
3.7829
3.77679
3.79968
3.80808
3.80338
3.66954
3.67382
3.66641
3.66303
3.66499
3.75469
3.75842
3.73118
3.7337
3.72637
3.6945
3.70321
3.70062
3.70273
3.67072
3.67238
3.67365
3.68259
3.67897
3.68171
3.67898
3.68015
3.67872
3.68166
3.68031
3.68371
3.68373
3.68161
3.68338
3.67972
3.68004
3.6759
3.6769
3.67526
3.67986
3.67902
3.67671
3.67456
3.67469
3.68148
3.68053
3.67857
3.67191
3.67912
3.67693
3.70107
3.70129
3.77075
3.76507
3.75085
3.78498
3.81277
3.78684
3.78447
3.77282
3.77522
3.7635
3.77143
3.77247
3.82441
3.83637
3.82778
3.82152
3.7961
3.79081
3.8232
3.81358
3.80615
3.78941
3.79955
3.7768
3.79589
3.71574
3.71248
3.73181
3.73824
3.75195
3.7702
3.75687
3.74918
3.7736
3.77182
3.77408
3.72263
3.71153
3.69771
3.71172
3.70563
3.71907
3.71204
3.71092
3.72396
3.71528
3.72405
3.72901
3.71078
3.72349
3.7262
3.73771
3.73867
3.74157
3.7573
3.74161
3.75532
3.74894
3.73931
3.7383
3.75242
3.76364
3.76749
3.76979
3.77415
3.77293
3.75019
3.79129
3.77495
3.66892
3.66665
3.67428
3.66541
3.67433
3.66585
3.67244
3.67572
3.66995
3.6686
3.66946
3.66341
3.66194
3.65624
3.66437
3.6639
3.6756
3.67244
3.67292
3.67556
3.67437
3.66919
3.67391
3.67659
3.67413
3.66126
3.67343
3.66615
3.66092
3.66357
3.66088
3.66782
3.66917
3.6637
3.6665
3.66546
3.67106
3.6762
3.67983
3.67935
3.67625
3.67772
3.67705
3.65589
3.6601
3.66597
3.6523
3.65666
3.66465
3.6607
3.66355
3.66537
3.66432
3.66606
3.67659
3.67148
3.65587
3.66022
3.66122
3.66518
3.65369
3.64939
3.66769
3.66722
3.67212
3.67613
3.67334
3.6736
3.6705
3.66492
3.66504
3.66829
3.67713
3.66921
3.66709
3.67377
3.66978
3.66977
3.65021
3.67513
3.67659
3.66016
3.66054
3.6678
3.66337
3.67642
3.67599
3.67807
3.67721
3.67598
3.68017
3.6794
3.67808
3.67876
3.71758
3.73183
3.74651
3.74311
3.72764
3.73992
3.73029
3.72558
3.73846
3.73806
3.69616
3.67517
3.6769
3.68071
3.67183
3.68536
3.69181
3.68845
3.69072
3.70532
3.70854
3.70227
3.70918
3.70874
3.71484
3.72519
3.70907
3.72423
3.7301
3.71208
3.7138
3.66235
3.66071
3.66334
3.66237
3.65007
3.66216
3.68301
3.68189
3.67407
3.69162
3.66557
3.6643
3.66584
3.65871
3.67852
3.67499
3.6715
3.66605
3.67165
3.70565
3.69361
3.70001
3.70102
3.71713
3.72546
3.7185
3.72007
3.71608
3.73232
3.72086
3.7173
3.73136
3.71984
3.70507
3.72228
3.70419
3.67824
3.67894
3.67777
3.67793
3.67695
3.67756
3.67737
3.67691
3.6779
3.67697
3.67246
3.68034
3.67572
3.67373
3.66671
3.67223
3.67683
3.67916
3.67705
3.67807
3.6749
3.67879
3.67935
3.67775
3.67707
3.74385
3.75258
3.73504
3.7207
3.73308
3.74506
3.74937
3.75785
3.71027
3.71453
3.72297
3.72844
3.72477
3.73676
3.72804
3.74465
3.74887
3.80292
3.8201
3.81386
3.8032
3.80757
3.793
3.74334
3.77162
3.74842
3.73529
3.72459
3.73563
3.73235
3.75955
3.75004
3.75035
3.7608
3.66724
3.66462
3.67196
3.67465
3.66619
3.6606
3.67154
3.68093
3.67751
3.67073
3.67417
3.67551
3.67579
3.6739
3.67721
3.67784
3.76535
3.74721
3.72801
3.71434
3.75136
3.74241
3.75113
3.74375
3.73829
3.72322
3.73696
3.71722
3.72628
3.66722
3.67156
3.68177
3.67481
3.6661
3.67644
3.65777
3.66174
3.67588
3.76996
3.74861
3.76826
3.72687
3.76549
3.75044
3.77128
3.78504
3.76736
3.77596
3.78292
3.85111
3.85245
3.84561
3.83837
3.81551
3.85801
3.85103
3.8536
3.85138
3.67695
3.67428
3.67595
3.67798
3.67859
3.67583
3.67929
3.68143
3.6804
3.67816
3.67644
3.67791
3.67603
3.67812
3.68094
3.68324
3.68201
3.67599
3.67434
3.68184
3.68068
3.68551
3.68023
3.68241
3.68289
3.68109
3.6797
3.66417
3.67279
3.67446
3.67185
3.67737
3.67355
3.67501
3.672
3.68081
3.68357
3.68334
3.6832
3.67963
3.68424
3.68301
3.68292
3.68167
3.68424
3.68521
3.68682
3.68343
3.68206
3.68202
3.6828
3.68159
3.68186
3.68902
3.68038
3.68058
3.68316
3.68185
3.68422
3.69159
3.68256
3.68203
3.68161
3.67816
3.74537
3.743
3.71647
3.73364
3.7471
3.75526
3.72674
3.71832
3.74706
3.7901
3.81424
3.79908
3.80983
3.7995
3.82247
3.823
3.81884
3.77632
3.77346
3.79637
3.7809
3.77523
3.82314
3.83099
3.83665
3.8397
3.79404
3.7775
3.81852
3.79381
3.79056
3.83881
3.84252
3.78288
3.7924
3.83088
3.8301
3.81605
3.80734
3.79729
3.96842
3.94959
3.93359
3.93674
3.9351
3.95225
3.9338
3.93451
3.90444
3.9437
3.90284
3.90913
3.90122
3.89878
3.92049
3.91667
3.72168
3.71808
3.71656
3.71278
3.71994
3.70644
3.71046
3.71507
3.68427
3.68571
3.68317
3.68808
3.68191
3.68492
3.68446
3.68759
3.68559
3.68175
3.68503
3.68324
3.68522
3.68302
3.6818
3.68705
3.6866
3.68494
3.68533
3.68321
3.68539
3.68279
3.6844
3.6842
3.6858
3.68404
3.68192
3.68413
3.81954
3.81711
3.83253
3.81317
3.82051
3.80595
3.78216
3.81769
3.83475
3.83982
3.84713
3.96733
3.96056
3.98099
3.97549
3.96984
3.97877
3.96039
3.94995
3.93468
3.92056
3.92663
3.94075
3.92198
3.95686
3.94901
3.95032
3.9506
3.94941
3.95391
3.94228
4.00103
3.99544
3.9917
4.0045
3.90453
3.95221
3.9519
3.95077
3.95117
3.93437
3.91608
3.95341
3.93944
3.95451
3.97618
3.95639
3.97629
3.95689
3.98864
3.98572
3.96734
3.74353
3.72687
3.76597
3.74204
3.76746
3.76914
3.77504
3.77077
3.87939
3.88427
3.82314
3.8732
3.88247
3.8865
3.86152
3.85429
3.83873
3.85895
3.85385
3.86845
3.8379
3.86715
3.88762
3.89561
3.84744
3.87761
3.88734
3.8938
3.87205
3.86181
3.71162
3.72026
3.70575
3.71998
3.72071
3.7174
3.68367
3.68534
3.68612
3.6822
3.68244
3.68348
3.68374
3.68116
3.68284
3.68505
3.68755
3.68673
3.6868
3.68794
3.68271
3.68523
3.88031
3.9153
3.91571
3.89679
3.9034
3.88545
3.93127
3.9257
3.91759
3.92515
3.89971
3.86156
3.87956
3.8689
3.86442
3.86347
3.85835
3.68688
3.685
3.6789
3.68283
3.68027
3.68499
3.76577
3.74655
3.77596
3.78085
3.77907
3.75408
3.75708
3.75211
3.93846
3.92667
3.9776
3.95145
3.93582
3.96481
3.97778
3.97929
3.95029
3.92752
3.95119
3.93418
3.92284
3.96838
3.95871
3.96918
3.95648
3.95209
3.96484
3.99369
3.98993
3.99217
3.95907
3.95469
4.00156
3.99145
3.97683
3.97063
3.95798
3.98218
3.96816
3.98424
4.0184
3.99784
4.00395
3.99478
3.9951
3.99674
3.99073
3.98269
3.98886
4.00775
4.00393
3.99275
4.013
4.00276
3.97679
4.00441
3.9901
3.99467
3.98988
3.75953
3.76286
3.74095
3.74746
3.77079
3.76407
3.89474
3.89763
3.88511
3.91156
3.89962
3.86544
3.85243
3.86313
3.87804
3.89903
3.87183
3.8864
3.8951
3.87435
3.90894
3.88733
3.86405
3.87204
3.80797
3.8086
3.85131
3.81607
3.81493
3.81019
3.86588
3.87979
3.84204
3.82719
3.88507
3.86372
3.86631
3.81377
3.83494
3.81361
3.79872
3.81965
3.82722
3.83277
3.83607
3.84382
3.97178
3.97555
3.98459
3.9822
3.97699
3.98664
3.98115
3.96916
3.96976
3.9773
3.98254
3.96646
3.9836
3.97008
3.96107
3.96881
3.96144
3.95271
3.77429
3.76653
3.77453
3.76806
3.79055
3.757
3.7585
3.80316
3.80821
3.80579
3.79412
3.80034
3.77543
3.7842
3.78741
3.7809
3.87271
3.88495
3.88057
3.88039
3.86818
3.86711
3.87156
3.8144
3.81957
3.8062
3.81149
3.80668
3.78958
3.8129
3.80401
3.79026
3.7949
3.78988
3.79451
3.80487
3.7986
3.81031
3.78071
3.77571
3.97687
3.98787
3.97746
3.97171
3.96509
3.97117
3.99116
3.98515
3.86947
3.84872
3.84768
3.8707
3.86369
3.86826
3.85318
3.84803
3.904
3.90604
3.88959
3.88247
3.89009
3.87158
3.91452
3.88924
3.87993
3.8718
3.86748
3.84719
3.84693
3.83848
3.87506
3.87741
3.86865
3.86254
3.95104
3.96719
3.97306
3.97236
3.96925
3.96739
3.96963
3.96484
3.96352
3.9637
3.89002
3.92074
3.90538
3.90033
3.90819
3.90471
3.92576
3.92695
3.92345
3.89286
3.91401
3.90822
3.97227
3.9804
3.97537
3.98644
3.98143
3.97368
3.93357
3.93105
3.93778
3.93696
3.93026
3.92415
3.87377
3.88356
3.87929
3.86895
3.85882
3.86459
3.86828
3.86683
3.72796
3.72329
3.72924
3.73042
3.73794
3.72668
3.71562
3.72184
3.7192
3.74057
3.72211
3.7326
3.72689
3.7281
3.71073
3.70929
3.73149
3.7197
3.7158
3.71585
3.73249
3.73259
3.96471
3.95651
3.95559
3.96245
3.9585
3.96059
3.96251
3.88498
3.89385
3.87948
3.873
3.87956
3.87535
3.8984
3.89719
3.90664
3.90721
3.90435
3.91594
3.90861
3.77178
3.75437
3.75782
3.75222
3.75597
3.77069
3.75947
3.78321
3.79878
3.9406
3.938
3.9503
3.94623
3.94285
3.94819
3.95428
3.95351
3.95151
3.94861
3.94845
3.94641
3.94305
3.94138
3.95359
3.94562
3.95247
3.95202
3.93791
3.94142
3.88924
3.89442
3.88973
3.89825
3.89774
3.93556
3.93443
3.95102
3.94937
3.94499
3.95629
3.94664
3.82287
3.8213
3.80618
3.8302
3.8205
3.82483
3.80997
3.83519
3.83932
3.84534
3.95148
3.94846
3.91022
3.93173
3.91488
3.94044
3.92446
3.92624
3.90218
3.88923
3.91595
3.90978
3.91763
3.90865
3.72839
3.73686
3.73466
3.74534
3.74133
3.73912
3.71915
3.71172
3.69885
3.74124
3.7283
3.71509
3.73248
3.70704
3.69384
3.72957
3.73165
3.8103
3.82627
3.8389
3.83427
3.83225
3.81218
3.83276
3.82453
3.82888
3.82799
3.82112
3.81309
3.84783
3.86558
3.8602
3.87958
3.86831
3.86116
3.83907
3.8452
3.85579
3.86386
3.85198
3.85095
3.86838
3.87481
3.85807
3.86233
3.87486
3.8705
3.85016
3.92158
3.90421
3.89243
3.90359
3.89818
3.83598
3.92182
3.91322
3.91963
3.92579
3.93156
3.90368
3.90788
3.92362
3.91449
3.90751
3.91926
3.92606
3.92138
3.95131
3.95735
3.95363
3.96665
3.9574
3.95888
3.94775
3.96237
3.95321
3.96478
3.9645
3.92857
3.92862
3.76554
3.76302
3.75902
3.75365
3.82312
3.80005
3.81082
3.81648
3.72797
3.73184
3.71091
3.71807
3.71605
3.89498
3.89789
3.8979
3.90151
3.90025
3.90409
3.89198
3.90144
3.92321
3.93291
3.93288
3.94407
3.93638
3.94308
3.9353
3.93258
3.93527
3.92489
3.95474
3.94648
3.91943
3.92547
3.94784
3.74606
3.7579
3.75441
3.7501
3.75512
3.77395
3.75407
3.75412
3.76847
3.78071
3.96806
3.74416
3.75974
3.84122
3.86208
3.86301
3.8268
3.71441
3.71987
3.71896
3.7183
3.73349
3.71354
3.72609
3.73066
3.73658
3.73083
3.73449
3.71623
3.71751
3.73155
3.74091
3.69353
3.69042
3.67821
3.69127
3.68098
3.69444
3.69725
3.7073
3.71181
3.72649
3.71375
3.71143
3.71169
3.70114
3.70582
3.70659
3.7136
3.69802
3.70892
3.76906
3.77528
3.79785
3.76449
3.77378
3.79971
3.80711
3.78944
3.78442
3.78005
3.77754
3.97307
3.98809
3.98212
3.99852
3.98773
3.99463
3.99344
3.72576
3.71779
3.72902
3.70901
3.72878
3.73155
3.71241
3.72323
3.97023
3.96558
3.97253
3.96039
3.97504
3.96431
3.95629
3.94801
3.95323
3.93599
3.94281
3.73843
3.74325
3.71323
3.69806
3.70667
3.70054
3.70339
3.70618
3.7059
3.70858
3.71593
3.75257
3.7217
3.75019
3.72975
3.74224
3.75606
3.74731
3.72649
3.73745
3.74118
3.74435
3.86404
3.89395
3.89658
3.74934
3.75212
3.77771
3.76713
3.76169
3.78035
3.7906
3.78737
3.80378
3.76269
3.76863
3.77327
3.78272
3.69229
3.69686
3.70537
3.68018
3.68508
3.68878
3.6875
3.6938
3.68473
3.68857
3.69185
3.68414
3.89497
3.88127
3.87733
3.89861
3.91027
3.89164
3.91811
3.92588
3.91434
3.9107
3.89873
3.78655
3.80238
3.80684
3.7816