/*--------------------------------*- C++ -*----------------------------------*\
| =========                 |                                                 |
| \\      /  F ield         | OpenFOAM: The Open Source CFD Toolbox           |
|  \\    /   O peration     | Version:  v1612+                                |
|   \\  /    A nd           | Web:      www.OpenFOAM.com                      |
|    \\/     M anipulation  |                                                 |
\*---------------------------------------------------------------------------*/
FoamFile
{
    version     2.0;
    format      ascii;
    class       volVectorField;
    location    "206";
    object      wallShearStress;
}
// * * * * * * * * * * * * * * * * * * * * * * * * * * * * * * * * * * * * * //

dimensions      [0 2 -2 0 0 0 0];

internalField   uniform (0 0 0);

boundaryField
{
    WALL
    {
        type            calculated;
        value           nonuniform List<vector> 
1705
(
(-0.00573068 -0.0074154 0.00135625)
(-0.00456741 -0.0066483 0.00151649)
(-0.0284918 -0.0171808 -0.00206267)
(-0.0294021 -0.0145866 0.000812977)
(-0.0131286 -0.00613748 0.0116234)
(-0.0112862 -0.00461175 0.013131)
(-0.00995641 -0.0153772 -0.00117299)
(-0.00980097 -0.0174345 -0.000512849)
(-0.0206032 -0.0209834 -0.00503737)
(-0.0268923 -0.0219893 -0.00372286)
(-0.0253816 -0.0250957 -0.00365651)
(-0.0239205 -0.0255176 -0.00235972)
(-0.0118586 -0.0131154 -0.00122162)
(-0.00901991 -0.0125588 -0.00117829)
(-0.000918765 -0.00701947 0.00435735)
(-0.00114836 -0.00818723 0.00160631)
(-0.00572355 -0.015564 -0.00277764)
(-0.00693594 -0.0181103 -0.0023422)
(-0.00551399 -0.0121547 -0.00447573)
(-0.00692008 -0.0141389 -0.004369)
(-0.0216027 -0.0289673 0.00525337)
(-0.0237732 -0.0277467 0.00473788)
(-0.0293218 -0.0202068 1.37223e-06)
(-0.0294207 -0.0169859 0.00166039)
(-0.0218462 -0.0303214 0.00287031)
(-0.0212209 -0.0309466 0.0050186)
(-0.00816145 -0.00884738 -4.36063e-05)
(-0.00927763 -0.0100144 -0.000586712)
(-0.0100006 -0.00936814 0.000558845)
(-0.010749 -0.00987068 0.000867032)
(-0.0207656 -0.0132424 -0.0013572)
(-0.0220612 -0.0122471 0.00128513)
(-0.00752452 -0.00955526 -0.00257225)
(-0.0103636 -0.0108616 -0.00147342)
(-0.0116808 -0.0112673 -0.00209114)
(-0.0143969 -0.0127826 7.57345e-05)
(-0.00720153 -0.0150346 0.0155436)
(-0.00704538 -0.0140477 0.015668)
(-0.0100612 -0.00988067 0.0130738)
(-0.0119732 -0.00952538 0.0130838)
(-0.0140204 -0.010906 0.00296919)
(-0.0133772 -0.0105282 0.00295984)
(-0.00491942 -0.00660392 0.000470837)
(-0.00708319 -0.00835727 0.000636385)
(-0.00391688 -0.00805024 -0.00363248)
(-0.00284729 -0.00707444 -0.00291229)
(-0.00060167 -0.00178764 0.00443889)
(-0.000280724 -0.00231847 0.0043061)
(0.000140401 -0.00195357 0.00366263)
(0.000364348 -0.00177838 0.00288077)
(-0.0112909 -0.0108172 0.00776898)
(-0.0102952 -0.012649 0.00631642)
(-0.0101063 -0.0104487 0.00752844)
(-0.00985391 -0.0103901 0.00642146)
(-0.0120148 -0.01299 0.00603528)
(-0.0120962 -0.0124083 0.00698931)
(-0.0137759 -0.0295257 0.00658433)
(-0.0146451 -0.0313223 0.00430495)
(-0.0142524 -0.0292513 0.00594157)
(-0.0154545 -0.0281789 0.0025045)
(-0.014501 -0.0290202 0.00363843)
(-0.0161536 -0.0310914 0.00460004)
(-0.0137746 -0.0122758 0.0187347)
(-0.0187565 -0.0166825 0.0212377)
(-0.0150186 -0.0124131 0.0208824)
(-0.0149816 -0.0115769 0.0195396)
(-0.0179783 -0.0110581 0.0189452)
(-0.0230517 -0.0129142 0.0236269)
(-0.00318367 -0.0121732 -0.000718324)
(-0.00428477 -0.0142227 -0.00157661)
(-0.00266807 -0.011829 -0.000894654)
(-0.00234671 -0.0112116 0.000579792)
(-0.00448992 -0.0126013 -0.00329932)
(-0.0138901 -0.0119369 0.00454747)
(-0.0134902 -0.011851 0.00411876)
(-0.0202218 -0.0143112 0.00674078)
(-0.0177681 -0.012831 0.00535709)
(-0.01546 -0.0118458 0.00379515)
(-0.017988 -0.0152217 0.00723389)
(-0.0260593 -0.0175112 0.0211766)
(-0.0253877 -0.0195839 0.023184)
(-0.0255084 -0.0164134 0.0218697)
(-0.0252519 -0.0198427 0.0221627)
(-0.0287306 -0.0187165 0.0214796)
(-0.0264385 -0.0187905 0.0210175)
(-0.0177383 -0.0167216 -0.00563903)
(-0.0195862 -0.0178963 -0.00572469)
(-0.0147066 -0.017775 -0.00585247)
(-0.0155866 -0.017084 -0.00595615)
(-0.0170935 -0.0178136 -0.00639373)
(-0.0194683 -0.0162428 -0.00523529)
(-0.00454935 -0.00687396 0.00177959)
(-0.00400428 -0.00607334 0.00169638)
(-0.00475138 -0.00656295 0.00173821)
(-0.00640087 -0.00777557 0.00157809)
(-0.00690055 -0.0085365 0.00177696)
(-0.00520601 -0.00702972 0.00112666)
(-0.00574104 -0.00797793 0.00213331)
(-0.0064899 -0.00783022 0.00157096)
(-0.0196509 -0.0130747 0.000101423)
(-0.0209202 -0.0125874 0.00103822)
(-0.0197949 -0.0119956 0.00372842)
(-0.019039 -0.0125704 0.000787358)
(-0.019763 -0.0123532 0.00232841)
(-0.0209279 -0.0127713 0.00321446)
(-0.00695645 -0.00431002 0.00985361)
(-0.00484779 -0.00371247 0.00883739)
(-0.00525107 -0.00389834 0.00851866)
(-0.00626452 -0.00532047 0.00910138)
(-0.00599251 -0.00354437 0.00955973)
(-0.00739155 -0.00509752 0.00973969)
(-0.00797645 -0.0227233 0.00622173)
(-0.00671494 -0.0212169 0.00907686)
(-0.00765769 -0.0215239 0.0101345)
(-0.00878002 -0.0243092 0.00896696)
(-0.00717623 -0.0207429 0.0107897)
(-0.00686288 -0.0210315 0.00679244)
(-0.0206321 -0.020624 0.0222062)
(-0.019891 -0.023041 0.0250954)
(-0.0213257 -0.020758 0.0228632)
(-0.0171724 -0.0226797 0.0212906)
(-0.0194309 -0.0226404 0.0230504)
(-0.0191807 -0.0228412 0.0216914)
(-0.0140259 -0.0289327 0.0161649)
(-0.0150547 -0.0313658 0.0134459)
(-0.0160006 -0.0314661 0.0162253)
(-0.0151888 -0.0291589 0.0172516)
(-0.015456 -0.031651 0.0156101)
(-0.0153607 -0.0291301 0.0176192)
(-0.0141355 -0.0310853 0.0144858)
(-0.0141004 -0.0305533 0.0137422)
(-0.0141757 -0.030901 0.010813)
(-0.0138 -0.0302917 0.00923281)
(-0.0142313 -0.0315902 0.0130257)
(-0.0133285 -0.0293361 0.0142723)
(-0.0112116 -0.0108288 0.0128192)
(-0.0074548 -0.0101487 0.0129643)
(-0.0102662 -0.00877399 0.0128138)
(-0.00699418 -0.00892602 0.0113767)
(-0.0084405 -0.00995173 0.0129986)
(-0.00930403 -0.00863197 0.0126435)
(-0.01954 -0.0114465 0.00677103)
(-0.0185165 -0.0109142 0.00909457)
(-0.0203023 -0.0128068 0.00709429)
(-0.0191217 -0.0109332 0.00767323)
(-0.0184898 -0.010496 0.00919728)
(-0.0194072 -0.0106134 0.00819678)
(-0.0234889 -0.014951 0.00608348)
(-0.0248247 -0.0190072 0.00677049)
(-0.00275513 -0.00498201 0.00104665)
(-0.00261954 -0.00473138 0.00116336)
(-0.00346586 -0.00559246 0.000889276)
(-0.00267965 -0.00476447 0.00129036)
(-0.00408784 -0.00602261 0.000770862)
(-0.00350986 -0.00573531 0.00120128)
(-0.00744633 -0.00873245 0.00223021)
(-0.00236163 -0.00441316 0.00181584)
(-0.0029243 -0.00509795 0.00169223)
(-0.00333507 -0.00567212 0.0018053)
(-0.00254223 -0.00468321 0.00168084)
(-0.0106043 -0.00994962 0.00235841)
(-0.0079146 -0.00892643 0.00199812)
(-0.00986567 -0.00965789 0.00230507)
(-0.00873348 -0.00919749 0.00197457)
(-0.00862626 -0.0097114 0.00239157)
(-0.0019425 -0.0039053 0.00117514)
(-0.00204349 -0.00408999 0.00105276)
(-0.00162606 -0.0035086 0.00112868)
(-0.00178046 -0.00367721 0.00112883)
(-0.00158549 -0.00333146 0.00132644)
(-0.00155564 -0.00324643 0.00122181)
(-0.00185097 -0.00328867 0.00195822)
(-0.0019734 -0.00330792 0.00226893)
(-0.00168758 -0.00310848 0.0018475)
(-0.00183595 -0.00319418 0.00212771)
(-0.0019176 -0.00336086 0.00226043)
(-0.00191299 -0.00341302 0.00199805)
(-0.00240818 -0.00381423 0.00280403)
(-0.00227532 -0.00349542 0.00252572)
(-0.00195247 -0.00323397 0.00209718)
(-0.00180447 -0.00317164 0.00216607)
(-0.002053 -0.00345928 0.00250505)
(0.00532876 -0.0235722 0.0105865)
(0.00436793 -0.0245167 0.00806909)
(-0.00107812 -0.0159962 0.0139831)
(-0.00070233 -0.0135835 0.0109896)
(0.00107065 -0.0174086 0.0126503)
(-0.00156176 -0.0138333 0.0122305)
(0.00194352 -0.018602 0.0121669)
(0.00101302 -0.0161791 0.010276)
(-0.0104574 -0.0129294 0.0122808)
(-0.0117844 -0.0137648 0.00979482)
(-0.0095831 -0.0143844 0.0118795)
(-0.0121041 -0.0128667 0.0100601)
(-0.0118397 -0.0140704 0.0121528)
(-0.0103683 -0.0144293 0.0110547)
(-0.012273 -0.0137004 0.0137313)
(-0.0116106 -0.0120683 0.0139464)
(-0.0103168 -0.0133244 0.0139969)
(-0.00952874 -0.0140693 0.0155182)
(-0.0102067 -0.0126197 0.0148268)
(-0.0123061 -0.0122916 0.0132962)
(-0.00512911 -0.0127317 0.0135209)
(-0.00489094 -0.0145906 0.015132)
(-0.0038007 -0.012768 0.0135233)
(-0.00656784 -0.0126675 0.013821)
(-0.00365849 -0.0144353 0.0144439)
(-0.0101283 -0.0130483 0.0062915)
(-0.00995959 -0.0141259 0.00795887)
(-0.00933865 -0.0138088 0.00879953)
(-0.0126056 -0.0122967 0.00410585)
(-0.0145764 -0.0127158 0.00629708)
(-0.0129753 -0.013437 0.00737172)
(-0.0134059 -0.0127296 0.00739411)
(-0.0140136 -0.0134664 0.00409149)
(-0.0146344 -0.0131891 0.00493642)
(-0.0128401 -0.0121562 0.00529724)
(-0.00895273 -0.0122027 0.00238543)
(-0.0111946 -0.0124408 0.0039002)
(-0.010064 -0.0113046 0.00156084)
(-0.0105911 -0.0120265 0.00277095)
(-0.00898603 -0.0119365 0.0033046)
(-0.000616208 -0.0123837 0.00467811)
(0.000151202 -0.0163381 0.00461004)
(-0.000514614 -0.0114177 0.00580898)
(-0.000211162 -0.0138847 0.00802598)
(0.00151535 -0.0174657 0.00581132)
(0.00201793 -0.0178294 0.0088877)
(0.00164656 -0.0166047 0.00960361)
(-0.0119868 -0.0117472 -0.000489407)
(-0.00960059 -0.0105153 -0.00104899)
(-0.0104733 -0.011255 3.17334e-05)
(-0.0117505 -0.011494 0.00101187)
(-0.0127968 -0.01212 0.000667722)
(-0.00968228 -0.0109521 -0.00237669)
(-0.00923965 -0.0107332 -0.003609)
(-0.0119989 -0.0120845 -0.00230132)
(-0.00866656 -0.00989072 -0.00331858)
(-0.010933 -0.0109979 -0.00325251)
(-0.0105251 -0.0112697 -0.00493584)
(-0.00934872 -0.0117722 -0.00600907)
(-0.0108191 -0.0117798 -0.00561073)
(-0.00927282 -0.010748 -0.00524117)
(-0.00752044 -0.010249 -0.00524275)
(-0.00725165 -0.0115268 -0.0049606)
(-0.0192498 -0.0143944 -0.00456934)
(-0.0192817 -0.0135458 -0.00214211)
(-0.0174958 -0.0124454 -0.00378854)
(-0.0215367 -0.0135713 -0.0023143)
(-0.0206096 -0.0140558 -0.00360301)
(-0.0242547 -0.012372 0.00465952)
(-0.0246362 -0.0114266 0.00497822)
(-0.0253041 -0.0126292 0.00219004)
(-0.0259098 -0.0105834 0.00329869)
(-0.025494 -0.0113059 0.00223774)
(-0.0260731 -0.012559 0.000874285)
(-0.0176619 -0.0113619 0.00332452)
(-0.0164012 -0.0118236 0.00285005)
(-0.0141567 -0.0105612 0.00199668)
(-0.0163451 -0.0111304 0.0020666)
(-0.0186787 -0.0120452 0.00322922)
(-0.0017155 -0.00307491 0.00227964)
(-0.00148521 -0.00276038 0.00179706)
(-0.00146108 -0.002875 0.00164976)
(-0.00173048 -0.00324116 0.00264876)
(-0.0013886 -0.0029216 0.00173133)
(-0.00139923 -0.00285309 0.0020018)
(-0.00245769 -0.00457264 0.00073146)
(-0.00341472 -0.00555414 0.000689682)
(-0.00268091 -0.00486296 0.0008352)
(-0.00365169 -0.00592422 0.00065163)
(-0.0028151 -0.00489859 0.000466269)
(-0.00336401 -0.0055918 0.000455371)
(-0.019107 -0.0119232 0.00173858)
(-0.0179658 -0.0111449 0.00181029)
(-0.0174265 -0.0117126 0.001703)
(-0.0218071 -0.0116303 0.00401522)
(-0.0204724 -0.0124377 0.00346376)
(-0.0210348 -0.0123844 0.00361241)
(-0.013172 -0.00971401 -0.000167321)
(-0.0151234 -0.0104795 1.98775e-05)
(-0.00954741 -0.00889449 6.76189e-06)
(-0.0102569 -0.0093258 0.000328198)
(-0.011266 -0.00916147 -0.000286024)
(-0.0131267 -0.0105049 0.000653812)
(-0.0210207 -0.0115991 0.00254602)
(-0.0214463 -0.0118778 0.00281064)
(-0.0194306 -0.0116091 0.00146323)
(-0.0184619 -0.0119492 0.00165248)
(-0.0177388 -0.0120199 0.00109186)
(-0.0224933 -0.0119614 0.00379535)
(-0.0226764 -0.0122917 0.00529843)
(-0.0262735 -0.0125993 0.00934139)
(-0.0251447 -0.0132884 0.0080186)
(-0.0266882 -0.0130153 0.00885873)
(-0.0244811 -0.0120529 0.0064754)
(-0.0227973 -0.0120708 0.00570856)
(-0.0278781 -0.0123698 0.0100436)
(-0.0280141 -0.0114122 0.0117033)
(-0.0265361 -0.0118683 0.00727219)
(-0.0295829 -0.0114313 0.011587)
(-0.0265617 -0.0107471 0.00895621)
(-0.0253075 -0.0115582 0.00676334)
(-0.0152897 -0.0125769 -0.00017796)
(-0.0137496 -0.012577 -0.000586843)
(-0.0143685 -0.0131811 -0.000746851)
(-0.0130758 -0.0130389 -0.000676095)
(-0.016048 -0.013644 0.000173199)
(-0.0167037 -0.0131017 0.000618554)
(-0.00586785 -0.00784352 1.68363e-05)
(-0.00699853 -0.00793245 0.000173738)
(-0.00822079 -0.00865884 2.1008e-05)
(-0.00557054 -0.0069184 3.00509e-05)
(-0.0047291 -0.00675787 0.000568233)
(-0.00773417 -0.00896328 0.000111909)
(-0.0108748 -0.0100642 6.25743e-05)
(-0.00566252 -0.00774223 0.000237724)
(-0.0272772 -0.0121673 0.00404342)
(-0.027729 -0.0132908 0.0035577)
(-0.0277436 -0.0128498 0.0028535)
(-0.0270108 -0.0121232 0.00492047)
(-0.0256243 -0.0102446 0.00470627)
(-0.0285638 -0.0146631 0.00251696)
(-0.0165273 -0.00754485 0.00754082)
(-0.0187048 -0.00900099 0.00760321)
(-0.0165135 -0.00706744 0.00812434)
(-0.0133643 -0.00654823 0.00708414)
(-0.0142103 -0.00708164 0.0079414)
(-0.0180576 -0.00838743 0.00766916)
(-0.0264537 -0.0265473 0.00194213)
(-0.0262767 -0.0264535 0.0017417)
(-0.0238725 -0.0268223 0.00133963)
(-0.0245383 -0.0285202 0.0034632)
(-0.0262811 -0.0246758 0.00135187)
(-0.0231251 -0.0283192 0.00285143)
(-0.0199055 -0.031696 0.00418755)
(-0.0197762 -0.0302545 0.00318873)
(-0.0223102 -0.0311257 0.00258887)
(-0.0226731 -0.029354 0.00174973)
(-0.0203254 -0.0311738 0.00456774)
(-0.0280487 -0.0164703 0.00178281)
(-0.0282568 -0.0221389 0.00160739)
(-0.0284862 -0.019595 -0.000312887)
(-0.028495 -0.0216583 -8.47503e-06)
(-0.029102 -0.0192584 0.00179161)
(-0.0208882 -0.00862342 0.00888133)
(-0.0218223 -0.00866601 0.00858446)
(-0.0178704 -0.00814365 0.0101021)
(-0.017039 -0.00751528 0.00882621)
(-0.0226395 -0.00897283 0.00807095)
(-0.0194689 -0.00754924 0.00902951)
(-0.0233101 -0.00897788 0.00601719)
(-0.0211323 -0.00938538 0.00713581)
(-0.0226073 -0.00883627 0.0072103)
(-0.0202435 -0.00895098 0.00847891)
(-0.0201659 -0.00847835 0.00797836)
(-0.0243007 -0.00962914 0.00630683)
(-0.0228613 -0.00965567 0.00709043)
(-0.0221483 -0.00955477 0.00769641)
(-0.0213602 -0.00826751 0.00702899)
(-0.0193406 -0.00754647 0.00761014)
(-0.0179932 -0.00828406 0.00851573)
(-0.0174544 -0.00797822 0.00768521)
(-0.0196122 -0.0334142 0.00999709)
(-0.0208538 -0.0310717 0.00847788)
(-0.0217687 -0.0337503 0.0098199)
(-0.020058 -0.0305706 0.00680726)
(-0.0200689 -0.0335622 0.00881829)
(-0.0191664 -0.0335084 0.0102166)
(-0.0185211 -0.0347473 0.0134296)
(-0.0179129 -0.0349734 0.0159575)
(-0.018567 -0.0358984 0.0162952)
(-0.0175185 -0.0342838 0.0145975)
(-0.0189538 -0.0354985 0.0146167)
(-0.0184525 -0.0344219 0.013101)
(-0.0209751 -0.028055 0.0209821)
(-0.0206739 -0.0262848 0.0204414)
(-0.0207676 -0.0289075 0.0211023)
(-0.0221675 -0.0290377 0.0237234)
(-0.0189746 -0.0278617 0.0200595)
(-0.0217154 -0.0276621 0.0212047)
(-0.0224863 -0.0210105 0.02253)
(-0.0223357 -0.0236535 0.0235109)
(-0.0234482 -0.021614 0.0220386)
(-0.0242346 -0.0209286 0.02225)
(-0.0209427 -0.0236567 0.0222513)
(-0.0221566 -0.023397 0.0220866)
(-0.0230166 -0.0229311 0.0220276)
(-0.0228508 -0.0239476 0.0218414)
(-0.0240728 -0.0226027 0.0207818)
(-0.024273 -0.0218283 0.0202205)
(-0.023452 -0.0219932 0.0210849)
(-0.0237224 -0.0239504 0.0218074)
(-0.0240594 -0.0181416 0.0109507)
(-0.0212088 -0.0148342 0.00829753)
(-0.0229578 -0.0146214 0.00834355)
(-0.0235216 -0.016135 0.0114891)
(-0.0232009 -0.0143041 0.00943523)
(-0.0243508 -0.0157466 0.0116216)
(-0.00687608 -0.00940907 -0.00459428)
(-0.00485244 -0.00872551 -0.00348699)
(-0.00377507 -0.00786461 -0.00378602)
(-0.00543218 -0.00801314 -0.00479662)
(-0.00627698 -0.00875617 -0.00384547)
(-0.000551834 -0.00610728 -0.00141027)
(-0.00205629 -0.00748078 -0.00278835)
(-0.00211 -0.00713918 -0.00294413)
(-0.00148836 -0.00647912 -0.00272897)
(-0.00115886 -0.0063507 -0.00212583)
(-0.000578488 -0.00615156 -0.00113618)
(-0.00837159 -0.0158852 -0.00423983)
(-0.0082901 -0.0136288 -0.00529433)
(-0.010376 -0.0149753 -0.00507563)
(-0.0105307 -0.0169721 -0.00452506)
(-0.00250126 -0.0135083 0.00382274)
(-0.00314743 -0.0111254 0.00981746)
(-0.00270938 -0.00839157 0.0089563)
(-0.00342823 -0.0134831 0.00767679)
(-0.00134804 -0.0095489 0.00576728)
(-0.00174135 -0.0105327 0.00291679)
(-0.0016687 -0.00895699 -0.00136506)
(-0.000701414 -0.00778001 -0.000217344)
(-0.000370609 -0.00759348 0.00369348)
(-0.00130517 -0.00901924 0.000217056)
(-0.000270219 -0.00688175 0.00130147)
(-0.000380734 -0.00599042 0.00305205)
(-0.00726364 -0.0187536 8.84296e-05)
(-0.00484648 -0.0199328 0.000564665)
(-0.00443818 -0.0183011 0.000201915)
(-0.00663687 -0.0170511 -0.000268366)
(-0.00663624 -0.0201525 -0.000146471)
(-0.00499343 -0.0157323 6.51894e-05)
(-0.00213282 -0.00558276 0.000651678)
(-0.00174204 -0.00525994 0.000734428)
(-0.00201363 -0.00542861 0.000673116)
(-0.0023986 -0.00572682 0.000441188)
(-0.00160555 -0.00476061 0.00101544)
(-0.0013516 -0.00381621 0.0024317)
(-0.00111639 -0.00405563 0.00220574)
(-0.00136713 -0.0043289 0.0031561)
(-0.0011506 -0.00439493 0.00168651)
(-0.0011958 -0.00397298 0.00156304)
(-0.00124814 -0.00389151 0.00184207)
(-0.00188548 -0.00943454 0.00166516)
(-0.00139302 -0.014932 0.00206164)
(-0.00316672 -0.0145135 0.00106163)
(-0.00165537 -0.0123675 0.00242774)
(-0.00297537 -0.0117996 0.000852101)
(-0.00190154 -0.0147741 0.00175449)
(-0.00552541 -0.0100713 -0.00057532)
(-0.00422179 -0.00890772 -0.000231857)
(-0.0035434 -0.00753915 -0.000236372)
(-0.00358328 -0.00701242 -0.000176605)
(-0.00575474 -0.00941644 -0.00067051)
(-0.00473466 -0.00828072 -0.000384243)
(-0.0225578 -0.0158112 0.0243522)
(-0.0208352 -0.0146814 0.0214837)
(-0.0235445 -0.0189927 0.0228565)
(-0.0247729 -0.015714 0.0218576)
(-0.0202956 -0.0166491 0.0223723)
(-0.0228246 -0.0145018 0.0204231)
(-0.0218906 -0.00968092 0.0187164)
(-0.0193319 -0.0117273 0.0196225)
(-0.0204591 -0.0100487 0.0191094)
(-0.0237409 -0.0103825 0.0198822)
(-0.0180617 -0.010254 0.0194949)
(-0.0164184 -0.0325895 0.00724162)
(-0.0175743 -0.0349638 0.00916867)
(-0.0178004 -0.0325589 0.00506073)
(-0.0160189 -0.0329308 0.01051)
(-0.0175504 -0.0321538 0.00616309)
(-0.0183362 -0.0325417 0.00497759)
(-0.0206917 -0.0284466 0.000552673)
(-0.0241113 -0.0297506 -0.00108984)
(-0.0195557 -0.0294838 0.00117745)
(-0.0228569 -0.0296196 -0.000491054)
(-0.0200926 -0.0323986 0.00319088)
(-0.0202341 -0.0305454 0.00182672)
(-0.0211559 -0.0252082 -0.00236077)
(-0.0255929 -0.0226538 -0.00179154)
(-0.0266745 -0.0209373 -0.00250616)
(-0.0262032 -0.0222957 -0.0030563)
(-0.0249871 -0.0251713 -0.00186358)
(-0.0254298 -0.0236306 -0.00337635)
(-0.0128937 -0.0224883 -0.00275819)
(-0.0145965 -0.0225337 -0.00400997)
(-0.0169663 -0.0219802 -0.00480631)
(-0.0155778 -0.021704 -0.00442937)
(-0.0139578 -0.0222293 -0.00396986)
(-0.0170159 -0.0204702 -0.00461141)
(-0.0276808 -0.0162144 -0.00324219)
(-0.0273374 -0.0150308 0.00041066)
(-0.0270053 -0.0144162 -0.00197354)
(-0.0274628 -0.0157785 -0.000587032)
(-0.0252693 -0.0151653 -0.00287489)
(-0.0267398 -0.0181686 -0.00339591)
(-0.0244006 -0.0128767 0.0206328)
(-0.0270819 -0.0125126 0.0182529)
(-0.0268428 -0.012649 0.019002)
(-0.0237218 -0.0132411 0.0212697)
(-0.0246374 -0.0108599 0.0188953)
(-0.0250371 -0.0110133 0.019441)
(-0.0257753 -0.0110479 0.00708325)
(-0.0235865 -0.011073 0.00526005)
(-0.0268971 -0.0114608 0.00830764)
(-0.0250176 -0.010193 0.0093877)
(-0.0275107 -0.0102465 0.00958331)
(-0.0263255 -0.0104575 0.00562134)
(-0.00600679 -0.00310383 0.0103074)
(-0.00564638 -0.00213712 0.00967086)
(-0.00754079 -0.00301154 0.0101923)
(-0.00486512 -0.00270453 0.00909575)
(-0.00764924 -0.00393836 0.011032)
(-0.00925388 -0.00294643 0.0113796)
(-0.00365172 -0.00159512 0.00892758)
(-0.00279668 -0.00350473 0.00896959)
(-0.00165763 -0.00180199 0.00657789)
(-0.00270378 -0.00176899 0.00736456)
(-0.00131246 -0.00319196 0.00668497)
(-0.00129485 -0.00166449 0.00635529)
(-0.0245371 -0.00821275 0.0125239)
(-0.0253459 -0.00871081 0.0104413)
(-0.023148 -0.00934946 0.0104212)
(-0.0245493 -0.00974876 0.00875444)
(-0.0230989 -0.00865304 0.0120734)
(-0.0241061 -0.0107238 0.00924469)
(-0.0174481 -0.0100026 0.00935276)
(-0.0155103 -0.00830383 0.0107791)
(-0.0167862 -0.0078228 0.0106786)
(-0.0150899 -0.00864614 0.00945107)
(-0.017418 -0.0100989 0.00814485)
(-0.0158854 -0.0105919 0.00881606)
(-0.00903968 -0.00513467 0.0100246)
(-0.0123066 -0.00635556 0.010555)
(-0.010955 -0.00706858 0.00959044)
(-0.0107566 -0.00533441 0.0109386)
(-0.00975788 -0.00523735 0.009627)
(-0.0125602 -0.00691852 0.00979536)
(-0.00274808 -0.00257622 0.00745225)
(-0.00184265 -0.00244398 0.00692385)
(-0.00276543 -0.00273691 0.00730974)
(-0.00338452 -0.00281218 0.00833008)
(-0.00126911 -0.00257585 0.00606687)
(-0.00190911 -0.00233828 0.0066046)
(-0.0123009 -0.0192741 0.000672881)
(-0.0113576 -0.0200523 0.000823097)
(-0.0084125 -0.0203189 0.000344663)
(-0.00965219 -0.0199774 0.00018263)
(-0.00939753 -0.0192867 0.000388472)
(-0.011675 -0.0199017 0.000466284)
(-0.00505002 -0.0228143 0.00177231)
(-0.0027752 -0.0234412 0.00192229)
(-0.00395359 -0.0209841 0.00157347)
(-0.00648633 -0.0212464 0.00133107)
(-0.00250352 -0.0238835 0.00283238)
(-0.00608195 -0.0201967 0.000385626)
(-0.00863715 -0.0157079 0.00495765)
(-0.0110532 -0.0175414 0.00472104)
(-0.00970846 -0.0167201 0.00418983)
(-0.0102659 -0.0153685 0.00550235)
(-0.011587 -0.0150369 0.00465053)
(-0.0180572 -0.0124807 0.00616093)
(-0.0172695 -0.014958 0.00447434)
(-0.0167569 -0.015095 0.00579618)
(-0.0185676 -0.0145891 0.00511105)
(-0.0168422 -0.0130686 0.00722002)
(-0.0164895 -0.0129246 0.00616396)
(-0.0155309 -0.0158358 0.00031697)
(-0.0178604 -0.0156947 0.00240436)
(-0.0168094 -0.017007 0.0025438)
(-0.0148084 -0.0172592 0.000471997)
(-0.0173 -0.0164215 0.00146269)
(-0.0154143 -0.0184109 0.00171188)
(-0.00144409 -0.00541117 0.00669229)
(-0.000868811 -0.00560086 0.00518073)
(-0.00191629 -0.00586373 0.00771684)
(-0.00207384 -0.00439998 0.00733457)
(-0.00709229 -0.00675982 0.00777519)
(-0.00797782 -0.00828344 0.00758413)
(-0.000434121 -0.00200722 0.00445708)
(-0.000327583 -0.00210595 0.00448269)
(0.000340701 -0.00273576 0.00316864)
(0.000362622 -0.00289424 0.003616)
(-0.000306393 -0.00197499 0.00414405)
(0.000155457 -0.00255763 0.00349325)
(0.000356813 -0.00431629 -0.000104799)
(0.000608484 -0.00361625 0.000412509)
(0.000525611 -0.002879 0.000940656)
(-1.26965e-05 -0.00482708 -0.00136293)
(0.00013106 -0.00398082 -0.000420093)
(0.000762336 -0.0036055 0.00103001)
(-0.00770866 -0.0222983 0.00308769)
(-0.00934581 -0.0221456 -0.000544968)
(-0.00927639 -0.023332 0.00128314)
(-0.00787172 -0.0205698 0.000384916)
(-0.0109503 -0.0240378 -0.000967086)
(-0.0110772 -0.0225998 -0.00240025)
(-0.00259022 -0.00849832 -0.00271046)
(-0.00164885 -0.00708313 -0.00237863)
(-0.00440855 -0.00789895 -0.00450106)
(-0.00447486 -0.0100306 -0.00405481)
(-0.00196963 -0.0073494 -0.00321704)
(-0.00276626 -0.00738242 -0.00370579)
(-0.0250495 -0.0105161 0.00584001)
(-0.0264432 -0.0112635 0.00455567)
(-0.027417 -0.0130479 0.00212627)
(-0.0253964 -0.0109787 0.00506776)
(-0.0265303 -0.011277 0.00314197)
(-0.0271489 -0.0130099 0.00319106)
(-0.00214107 -0.00335847 0.0032269)
(-0.00169023 -0.00319477 0.00295171)
(-0.00224046 -0.00362613 0.00375282)
(-0.00169224 -0.00299358 0.00258466)
(-0.00151763 -0.00299382 0.00232596)
(-0.00148986 -0.00319183 0.00248084)
(-0.0163406 -0.0135451 0.00910318)
(-0.00777364 -0.0111383 0.000311001)
(-0.0124545 -0.0225874 -0.00330357)
(0.000748114 -0.00391457 0.00234605)
(-0.000502149 -0.00223295 0.00477519)
(-0.000676407 -0.00234647 0.00523518)
(-0.00138541 -0.00223136 0.00574844)
(0.00060962 -0.0032878 0.00201187)
(0.000705103 -0.00282917 0.00146352)
(0.000632325 -0.00290941 0.0026482)
(0.000580642 -0.00224206 0.00178502)
(-0.00112925 -0.0020836 0.00510635)
(-0.0117167 -0.00525155 0.0155821)
(-0.0107556 -0.00695974 0.0162873)
(-0.0112373 -0.00524627 0.0152875)
(-0.00919052 -0.00498191 0.0147028)
(-0.021023 -0.013634 0.00456858)
(-0.0209412 -0.0131481 0.00579411)
(-0.0199301 -0.0146561 0.00355051)
(-0.0196033 -0.0156064 0.00316536)
(-0.0183866 -0.0163032 0.00186565)
(-0.0191147 -0.0145013 0.00437747)
(-0.0194543 -0.0131795 0.00541033)
(-0.0186274 -0.0154166 0.00404815)
(-0.00600917 -0.00487902 0.0076112)
(-0.0132686 -0.0152215 0.00394407)
(-0.0131337 -0.0148832 0.00512393)
(-0.00669596 -0.00657098 0.00800388)
(-0.00766248 -0.00709673 0.00852465)
(-0.0149814 -0.0138272 0.00592515)
(-0.0142734 -0.0133562 0.00586905)
(-0.0160193 -0.0131397 0.0068642)
(-0.0159553 -0.0107088 0.00772171)
(-0.0147895 -0.0112278 0.00831904)
(-0.0135831 -0.00958072 0.00874393)
(-0.0144198 -0.0115058 0.00731399)
(-0.00964623 -0.00755294 0.0088418)
(-0.0107688 -0.00736495 0.00873286)
(-0.0120755 -0.00952159 0.00875561)
(-0.0126547 -0.016429 0.00327477)
(-0.00733127 -0.0196913 -0.000312333)
(-0.0140331 -0.0182179 0.00248464)
(-0.0137094 -0.0189231 0.00148238)
(-0.0127302 -0.0183254 0.00246438)
(-0.00846335 -0.0206922 0.000869344)
(-0.0117418 -0.0190227 0.00160804)
(-0.000254239 -0.00255619 0.00458209)
(0.000163866 -0.00286515 0.00396048)
(0.000286964 -0.00305684 0.00321922)
(-0.0193431 -0.0130058 0.00748093)
(-0.0182043 -0.0129444 0.00746869)
(-0.0134674 -0.00894688 0.0094472)
(-0.0114504 -0.0082364 0.0168945)
(-0.0147787 -0.00832244 0.0182522)
(-0.0215903 -0.012457 0.00734343)
(-0.0217226 -0.0110413 0.00695292)
(-0.0202688 -0.0109199 0.00833248)
(-0.0210391 -0.00979502 0.00799035)
(-0.0197274 -0.00983017 0.00949467)
(-0.0207665 -0.00868659 0.0114649)
(-0.0218959 -0.00982489 0.0102117)
(-0.0206792 -0.00897374 0.0116175)
(-0.00331859 -0.00454301 0.00936263)
(-0.000674898 -0.00240965 0.00557752)
(-0.00130274 -0.00219324 0.0059638)
(-0.00730421 -0.005627 0.0135909)
(-0.00798468 -0.0077608 0.0150451)
(-0.00450764 -0.00513011 0.0112508)
(-0.00286566 -0.00510829 0.00900567)
(-0.00427469 -0.0042917 0.0103018)
(-0.00489134 -0.00185141 0.00958907)
(-0.0037869 -0.00194245 0.00841075)
(-0.0177837 -0.00711966 0.0132186)
(-0.018451 -0.00637301 0.012051)
(-0.0167852 -0.00653384 0.0114649)
(-0.0149875 -0.00477212 0.0148183)
(-0.0120533 -0.00472887 0.0151741)
(-0.0160125 -0.00486958 0.0138127)
(-0.0153972 -0.00582577 0.0130554)
(-0.0139228 -0.00643154 0.0111326)
(-0.0118714 -0.00464508 0.0123765)
(-0.0108655 -0.00483728 0.0118515)
(-0.0039946 -0.00726538 0.0104299)
(-0.00544039 -0.0174101 0.0107785)
(0.000542586 -0.00408552 0.00275255)
(0.000222954 -0.00372796 0.00157335)
(-5.16645e-05 -0.0027525 0.00407012)
(-0.000250567 -0.00324939 0.00540523)
(-0.0201424 -0.0132654 0.00240442)
(-0.0195197 -0.0140234 0.00209154)
(-0.0151928 -0.0162028 0.000408847)
(-0.0172568 -0.0159022 0.00108462)
(-0.0175556 -0.0144141 0.0012769)
(-0.0262118 -0.00874046 0.010534)
(-0.0278365 -0.00979197 0.0134208)
(-0.0276593 -0.0108791 0.0165588)
(-0.0277781 -0.0104948 0.00767407)
(-0.019039 -0.0207351 -0.0048164)
(-0.0225931 -0.0188279 -0.00451318)
(-0.0235655 -0.0182403 -0.0047663)
(-0.0281448 -0.0164931 -0.0046447)
(-0.0285986 -0.0194871 -0.00184141)
(-0.0286574 -0.0224135 -0.00315911)
(-0.0256997 -0.017797 -0.00493904)
(-0.0212157 -0.0199785 -0.0055371)
(-0.0227339 -0.0214286 -0.003201)
(-0.0187499 -0.02112 -0.00451406)
(-0.0216454 -0.0260245 -0.00286457)
(-0.0174685 -0.0262522 -0.00160489)
(-0.0201472 -0.0243757 -0.00431504)
(-0.0120817 -0.024339 -0.00144545)
(-0.0149096 -0.0235869 -0.00299101)
(-0.0103951 -0.0234266 0.000752552)
(-0.0126674 -0.0237238 -0.000633298)
(-0.0104507 -0.0262455 0.0026144)
(-0.00961727 -0.0250497 0.00365149)
(-0.00899427 -0.023314 0.00475374)
(-0.0194188 -0.0256061 -0.00149502)
(-0.0256657 -0.0085787 0.0146344)
(-0.0158015 -0.00952022 0.0189554)
(-0.013874 -0.0097483 0.0180381)
(-0.0195395 -0.00907506 0.0205191)
(-0.0258617 -0.0106837 0.0173409)
(-0.0223832 -0.00799904 0.0171798)
(-0.0250426 -0.00933183 0.0161884)
(-0.02488 -0.0099727 0.0185835)
(-0.0101583 -0.013364 0.0172884)
(-0.0070667 -0.017745 0.014573)
(-0.00803062 -0.0158878 0.0159861)
(-0.00929123 -0.0142846 0.0169111)
(-0.00962289 -0.015505 0.0172208)
(-0.0256737 -0.0118151 0.0201077)
(-0.00600911 -0.0197003 0.00869467)
(-0.00690367 -0.0217177 0.00478318)
(-0.00471163 -0.00968425 -0.000894739)
(-0.00194994 -0.00596211 0.005263)
(-0.000501016 -0.0183096 0.00327699)
(-0.00446136 -0.0112062 -0.000395011)
(-0.000346245 -0.0158316 0.0029816)
(-0.00103707 -0.00764737 0.00322783)
(-0.00110605 -0.00981519 0.00297325)
(-0.00104162 -0.00756007 0.00273932)
(-0.00132996 -0.00484586 0.00396123)
(-0.00120026 -0.00550583 0.00318534)
(-0.00137834 -0.00402547 0.00378344)
(-0.00292299 -0.00633549 0.000383022)
(-0.0163962 -0.0139458 0.000384867)
(-0.004059 -0.0145112 0.00041309)
(-0.00490223 -0.0138044 -2.57039e-05)
(-0.00207085 -0.0203597 0.00139664)
(-0.0031979 -0.0205349 0.00114535)
(-0.00175302 -0.0196498 0.00189446)
(-0.00250091 -0.0168285 0.00185918)
(-0.00644238 -0.010891 -0.00115304)
(-0.00583663 -0.0113359 -0.000924146)
(-0.00727881 -0.0105165 -0.000988965)
(-0.00845362 -0.0116226 -0.00088843)
(-0.0103468 -0.0122895 -0.00107867)
(-0.0142599 -0.0151284 -0.000558444)
(-0.0148641 -0.0142311 -0.000396335)
(-0.0135785 -0.0135958 -0.000881632)
(-0.000886343 -0.0226073 0.00227689)
(-9.93466e-05 -0.0253253 0.00344449)
(-0.00108128 -0.00536142 0.00588391)
(-0.000264753 -0.00473889 0.00434602)
(-0.000587062 -0.00501648 0.00448901)
(-8.48357e-05 -0.00560369 0.00203075)
(0.00013571 -0.00501424 0.000828813)
(-0.00282977 -0.00543962 0.00917407)
(-0.00491695 -0.0154771 0.0107994)
(-0.000946371 -0.00625972 0.00649899)
(-0.00273737 -0.00976472 -0.00216568)
(-0.00626584 -0.0205345 0.0036182)
(-0.00489981 -0.0181102 0.00550875)
(-0.00634756 -0.0195039 0.00164209)
(-0.00425724 -0.0168728 0.00463012)
(-0.00354564 -0.0165967 0.00770771)
(-0.00406285 -0.0100388 -0.003717)
(-0.00872539 -0.0194963 -0.00221428)
(-0.00427799 -0.0170759 0.00258377)
(-0.00574321 -0.018387 0.000886128)
(-0.00666911 -0.0180771 -0.00118361)
(-0.00842909 -0.0180284 -0.0035546)
(-0.0126248 -0.0173611 -0.00557608)
(0.000490285 -0.00494246 0.000951455)
(0.000268255 -0.00539224 0.000567648)
(0.000220908 -0.00523273 -0.00038671)
(-0.000191549 -0.00544743 -0.000501995)
(-0.000174127 -0.00449196 -0.00102728)
(-0.000679052 -0.0054246 -0.00150083)
(-0.00136827 -0.00523393 -0.00209097)
(-0.0006961 -0.00518394 -0.00162393)
(-0.000910247 -0.00526808 -0.00174365)
(-0.00309822 -0.00737394 -0.00408051)
(-0.0025816 -0.00698863 -0.00197468)
(-0.00198411 -0.00590726 -0.00201572)
(-0.00389879 -0.00745149 -0.002413)
(-0.00429136 -0.00839122 -0.00176079)
(-0.00617884 -0.0102954 -0.00103783)