/*--------------------------------*- C++ -*----------------------------------*\
| =========                 |                                                 |
| \\      /  F ield         | OpenFOAM: The Open Source CFD Toolbox           |
|  \\    /   O peration     | Version:  v1612+                                |
|   \\  /    A nd           | Web:      www.OpenFOAM.com                      |
|    \\/     M anipulation  |                                                 |
\*---------------------------------------------------------------------------*/
FoamFile
{
    version     2.0;
    format      ascii;
    class       volScalarField;
    location    "100";
    object      p;
}
// * * * * * * * * * * * * * * * * * * * * * * * * * * * * * * * * * * * * * //

dimensions      [0 2 -2 0 0 0 0];

internalField   nonuniform List<scalar> 
18977
(
0.232832
0.202739
0.200248
0.200541
0.203755
0.200777
0.198752
0.203172
0.202141
0.197594
0.199522
0.200041
0.201147
0.19491
0.198342
0.197649
0.198757
0.19506
0.196892
0.194004
0.195417
0.190491
0.192845
0.193097
0.189427
0.192548
0.189538
0.19157
0.188866
0.190412
0.193145
0.188702
0.195601
0.19681
0.194829
0.194963
0.195957
0.1924
0.192038
0.200448
0.1995
0.200213
0.200753
0.192769
0.191927
0.197667
0.19862
0.197727
0.197604
0.190731
0.192539
0.193358
0.191187
0.196233
0.192164
0.201394
0.192091
0.194754
0.189332
0.195279
0.195474
0.201175
0.19557
0.195414
0.197108
0.19839
0.193239
0.197616
0.158298
0.158392
0.151377
0.150241
0.144344
0.148538
0.154214
0.150154
0.150753
0.149691
0.146294
0.151372
0.154473
0.145215
0.151273
0.152017
0.154092
0.151897
0.149718
0.151605
0.151366
0.204445
0.202357
0.20272
0.200007
0.199776
0.203929
0.200733
0.207323
0.200959
0.199028
0.202729
0.20543
0.201784
0.210767
0.205733
0.19594
0.19989
0.203639
0.198506
0.201531
0.199705
0.212689
0.220383
0.209379
0.210818
0.209141
0.218464
0.217191
0.212998
0.212683
0.212964
0.220804
0.214942
0.2153
0.217796
0.213592
0.214652
0.214706
0.217112
0.143747
0.147251
0.151473
0.15042
0.146514
0.147357
0.152586
0.156374
0.158269
0.15095
0.143422
0.146652
0.14131
0.140983
0.146074
0.147027
0.155328
0.163014
0.150386
0.194376
0.193967
0.190342
0.189553
0.193578
0.186635
0.195141
0.201601
0.184181
0.186392
0.185536
0.187812
0.188583
0.191473
0.186922
0.191718
0.197188
0.155867
0.152713
0.151035
0.147463
0.144702
0.156043
0.15674
0.15288
0.149976
0.150576
0.149638
0.152918
0.162162
0.167822
0.171572
0.169878
0.166329
0.170772
0.179573
0.175456
0.173782
0.173502
0.175196
0.175784
0.173052
0.176588
0.171615
0.194443
0.192047
0.195148
0.192777
0.197738
0.195211
0.197032
0.193724
0.19525
0.190521
0.190635
0.192753
0.191233
0.188144
0.186707
0.190705
0.149112
0.155214
0.151109
0.147696
0.15185
0.153036
0.152461
0.155594
0.154057
0.149245
0.146665
0.203562
0.200729
0.205726
0.200293
0.202144
0.200607
0.20748
0.198306
0.200706
0.203223
0.19865
0.203714
0.203566
0.205291
0.205567
0.205422
0.201975
0.172821
0.176458
0.183249
0.178302
0.17686
0.178128
0.175124
0.174659
0.17805
0.177995
0.172732
0.176216
0.173007
0.170513
0.174564
0.174745
0.178368
0.177834
0.178696
0.1762
0.17289
0.172451
0.17801
0.178633
0.175048
0.173247
0.18157
0.175842
0.174432
0.173656
0.176926
0.178027
0.178865
0.181342
0.18005
0.17534
0.177111
0.179873
0.155148
0.154527
0.155867
0.148698
0.153211
0.159838
0.155675
0.158497
0.154434
0.153506
0.157013
0.159475
0.159396
0.158934
0.157797
0.157211
0.159547
0.152881
0.158621
0.156782
0.156051
0.165926
0.173083
0.174889
0.172478
0.175727
0.174686
0.177486
0.174672
0.171004
0.172149
0.175481
0.16905
0.170313
0.172114
0.174862
0.172822
0.170673
0.183421
0.180529
0.188004
0.179313
0.184067
0.182723
0.186532
0.186633
0.181982
0.180309
0.186973
0.183578
0.180146
0.178842
0.17989
0.180492
0.179146
0.182896
0.179793
0.174753
0.178755
0.177167
0.177106
0.176687
0.178449
0.17481
0.172261
0.173934
0.177225
0.177421
0.175434
0.171051
0.17456
0.177245
0.168163
0.17229
0.174015
0.206795
0.20208
0.202706
0.199453
0.19705
0.204088
0.202704
0.203447
0.19817
0.199108
0.201598
0.203407
0.201112
0.20224
0.202823
0.201111
0.17368
0.173181
0.169187
0.167618
0.165606
0.170616
0.168432
0.168473
0.172649
0.17089
0.170052
0.165997
0.165228
0.160787
0.166071
0.17191
0.168529
0.166226
0.164527
0.163869
0.160866
0.164556
0.164037
0.156287
0.166303
0.15915
0.162894
0.164321
0.160257
0.164404
0.165106
0.170078
0.166149
0.164231
0.161723
0.159659
0.16763
0.196486
0.192799
0.195977
0.196403
0.197678
0.197561
0.191833
0.197355
0.19814
0.198939
0.196712
0.190394
0.193683
0.196894
0.197718
0.198572
0.199472
0.197543
0.197315
0.196155
0.194837
0.195168
0.196877
0.195208
0.218692
0.219066
0.222942
0.223852
0.218949
0.216831
0.221451
0.226455
0.222503
0.223878
0.225939
0.222599
0.223306
0.221098
0.223899
0.219787
0.223984
0.219156
0.218541
0.228485
0.228147
0.222534
0.215407
0.219511
0.215091
0.216196
0.214307
0.21598
0.217353
0.218527
0.215502
0.217903
0.2178
0.217101
0.218331
0.214921
0.216777
0.216509
0.216426
0.219065
0.214375
0.222452
0.19889
0.204568
0.20063
0.194157
0.207113
0.207742
0.199593
0.199583
0.201246
0.202425
0.204046
0.202927
0.197183
0.21211
0.210287
0.207313
0.21219
0.204847
0.216227
0.226671
0.21051
0.208005
0.213713
0.209996
0.207231
0.215404
0.204976
0.196939
0.200867
0.195892
0.194332
0.194591
0.194613
0.196008
0.19867
0.200247
0.195054
0.196781
0.197315
0.200957
0.193064
0.193587
0.194723
0.193758
0.196961
0.20021
0.202009
0.201666
0.202228
0.210993
0.201832
0.20383
0.204729
0.205931
0.206434
0.209325
0.201296
0.200446
0.203027
0.198993
0.200877
0.203241
0.20974
0.208525
0.204746
0.208068
0.205284
0.210914
0.210771
0.19943
0.199026
0.1958
0.201295
0.205552
0.208935
0.202048
0.210656
0.207303
0.208696
0.211078
0.206378
0.20847
0.199157
0.2117
0.203272
0.214603
0.215623
0.153755
0.158844
0.147461
0.153652
0.159546
0.159203
0.160036
0.151384
0.159936
0.156902
0.155789
0.162688
0.156084
0.155506
0.158421
0.148311
0.15321
0.220402
0.221812
0.212998
0.218929
0.221196
0.220837
0.221349
0.220534
0.222796
0.221791
0.164731
0.167701
0.165866
0.165527
0.173838
0.174498
0.167014
0.169861
0.172044
0.177751
0.168929
0.175654
0.173969
0.180345
0.170987
0.21585
0.214333
0.222494
0.215888
0.218842
0.22139
0.223658
0.221866
0.220032
0.166296
0.174419
0.162576
0.168396
0.173173
0.170315
0.165766
0.166383
0.166475
0.171526
0.168962
0.167844
0.218219
0.223757
0.226405
0.229275
0.225694
0.222674
0.225517
0.149143
0.143611
0.149448
0.14878
0.148461
0.1514
0.156865
0.149952
0.149355
0.149691
0.1462
0.156966
0.155507
0.15141
0.149267
0.148093
0.145436
0.185255
0.187668
0.184987
0.18705
0.189483
0.184176
0.184859
0.186003
0.181511
0.183121
0.183003
0.183314
0.18315
0.188272
0.188427
0.18405
0.185517
0.2199
0.219623
0.221326
0.222274
0.220201
0.222438
0.222718
0.216592
0.219014
0.222428
0.221671
0.221537
0.21615
0.156895
0.159089
0.169235
0.162172
0.160141
0.156335
0.156297
0.162184
0.154355
0.165051
0.162982
0.163697
0.156232
0.150854
0.164079
0.163659
0.159724
0.153967
0.158802
0.158424
0.173743
0.166911
0.17134
0.170376
0.172657
0.171409
0.167446
0.169798
0.169383
0.168604
0.171752
0.172464
0.17189
0.167543
0.175788
0.176095
0.149488
0.147836
0.14269
0.150097
0.146252
0.147897
0.149311
0.152226
0.149017
0.14745
0.1338
0.159614
0.185982
0.18855
0.183031
0.188207
0.183959
0.188006
0.193034
0.190302
0.18431
0.179453
0.178792
0.188121
0.18702
0.192076
0.189056
0.175758
0.182258
0.186895
0.185249
0.154577
0.158716
0.163144
0.163232
0.159877
0.157804
0.15943
0.157743
0.158115
0.161206
0.161948
0.161941
0.161864
0.163489
0.161978
0.159132
0.157431
0.159843
0.146246
0.149602
0.144143
0.146334
0.148002
0.146902
0.148535
0.147487
0.142886
0.148682
0.147219
0.154666
0.15552
0.153322
0.156557
0.151259
0.148069
0.155238
0.151519
0.16162
0.152032
0.152975
0.154517
0.181793
0.179729
0.184881
0.181248
0.177678
0.177813
0.182867
0.180749
0.180842
0.180571
0.1825
0.182593
0.180069
0.18277
0.185193
0.183425
0.180499
0.183054
0.178306
0.182699
0.157515
0.158605
0.159894
0.158596
0.159653
0.154224
0.157832
0.155647
0.154154
0.148397
0.157259
0.151705
0.159343
0.15425
0.153592
0.151942
0.151946
0.189056
0.188935
0.185041
0.185477
0.190562
0.186548
0.191514
0.199105
0.185681
0.187788
0.188777
0.188118
0.197949
0.196981
0.191275
0.186395
0.19485
0.18097
0.193262
0.187615
0.186498
0.188176
0.144651
0.146116
0.147984
0.14775
0.148418
0.150573
0.147475
0.147856
0.150494
0.148647
0.18893
0.186523
0.191801
0.190163
0.195126
0.19257
0.183466
0.189059
0.189225
0.19008
0.186889
0.18799
0.188771
0.198354
0.193256
0.190069
0.184757
0.185351
0.185522
0.184847
0.182461
0.181406
0.186406
0.185268
0.183669
0.187197
0.18394
0.18497
0.184379
0.186665
0.187337
0.18409
0.18545
0.188765
0.184558
0.188831
0.18626
0.182988
0.186623
0.185005
0.185117
0.186993
0.176647
0.17932
0.183444
0.182545
0.186384
0.181564
0.179608
0.177054
0.178493
0.212454
0.210317
0.210632
0.212938
0.213724
0.209878
0.210965
0.215514
0.211979
0.208007
0.213703
0.214473
0.215859
0.212626
0.211355
0.211038
0.211854
0.21526
0.211372
0.211145
0.213485
0.217049
0.217547
0.217833
0.213766
0.210125
0.214253
0.215667
0.215869
0.212789
0.210372
0.215575
0.21185
0.21084
0.211241
0.211961
0.212294
0.209997
0.210059
0.211741
0.21284
0.211432
0.214885
0.212369
0.216896
0.211205
0.219005
0.213165
0.207519
0.21314
0.214724
0.20905
0.214741
0.213407
0.216815
0.219648
0.214831
0.20593
0.207397
0.207468
0.21677
0.209477
0.210409
0.216715
0.209339
0.183393
0.181929
0.185496
0.182985
0.181158
0.185776
0.172919
0.173757
0.181374
0.178513
0.181137
0.18569
0.182931
0.183445
0.182863
0.182203
0.186543
0.181509
0.181611
0.188997
0.185952
0.180882
0.184267
0.18399
0.184436
0.185364
0.188195
0.188393
0.187073
0.182628
0.186355
0.185349
0.186673
0.185259
0.184898
0.193219
0.189814
0.194287
0.190205
0.190261
0.189643
0.193346
0.18672
0.188513
0.189281
0.190266
0.186958
0.192602
0.190677
0.187742
0.187804
0.187917
0.156736
0.154333
0.155834
0.154276
0.158598
0.155358
0.153771
0.1563
0.155958
0.215492
0.221342
0.213675
0.216069
0.217831
0.212746
0.218431
0.216127
0.220989
0.217748
0.21747
0.206087
0.212129
0.216236
0.216521
0.214547
0.21287
0.207005
0.213867
0.207275
0.224706
0.229967
0.231336
0.230023
0.145672
0.151308
0.152882
0.148861
0.149414
0.148153
0.152299
0.150947
0.152573
0.15541
0.143939
0.153092
0.147551
0.147021
0.15097
0.150625
0.148361
0.149566
0.152514
0.145805
0.146609
0.147895
0.152558
0.147389
0.145927
0.154731
0.143495
0.148291
0.148154
0.143992
0.147606
0.146427
0.152299
0.151615
0.152721
0.16218
0.166742
0.163069
0.166061
0.173276
0.163879
0.164385
0.16653
0.170231
0.170779
0.169212
0.173579
0.164917
0.167059
0.19584
0.197785
0.202455
0.204079
0.199395
0.19931
0.199824
0.200911
0.202221
0.202889
0.204176
0.2044
0.208674
0.205152
0.204911
0.203759
0.207949
0.200653
0.2065
0.206078
0.192382
0.189945
0.19218
0.189592
0.19204
0.198001
0.189403
0.1908
0.187449
0.187926
0.189023
0.190775
0.190826
0.190984
0.191054
0.194577
0.191328
0.176066
0.174334
0.175946
0.181482
0.175755
0.177889
0.176425
0.188575
0.178316
0.180762
0.1855
0.173988
0.183447
0.179609
0.182622
0.182589
0.225689
0.225616
0.217875
0.217737
0.224495
0.22453
0.220537
0.228973
0.219338
0.218074
0.214209
0.214085
0.223544
0.2164
0.21318
0.219772
0.227046
0.225028
0.221282
0.21928
0.221526
0.228013
0.209142
0.214206
0.213235
0.221096
0.219118
0.21549
0.206513
0.207922
0.205958
0.204219
0.218803
0.21691
0.215435
0.2176
0.215337
0.211534
0.211038
0.208927
0.215663
0.212637
0.202421
0.203431
0.202719
0.206914
0.198624
0.199352
0.213347
0.210157
0.212818
0.201083
0.202101
0.201416
0.200658
0.196649
0.195472
0.203852
0.209803
0.205108
0.204226
0.204338
0.205884
0.203465
0.201976
0.196639
0.198764
0.194803
0.193798
0.194824
0.194844
0.190768
0.190312
0.191027
0.188073
0.188753
0.190547
0.189009
0.187053
0.188897
0.197806
0.194493
0.205884
0.199345
0.193111
0.19385
0.183315
0.180477
0.187997
0.191987
0.188304
0.192846
0.185491
0.183958
0.181865
0.182536
0.189574
0.184364
0.187543
0.192486
0.188704
0.19742
0.186805
0.189775
0.185694
0.180397
0.186704
0.180881
0.177521
0.176357
0.17272
0.178555
0.17154
0.173094
0.184298
0.187085
0.176583
0.188102
0.173202
0.171039
0.167167
0.180938
0.179942
0.177371
0.182813
0.185323
0.180551
0.178666
0.16507
0.171655
0.165985
0.165786
0.166599
0.16765
0.170035
0.174173
0.173926
0.165945
0.171194
0.173877
0.172911
0.169224
0.170909
0.174351
0.166842
0.162683
0.167435
0.162125
0.162552
0.158439
0.157712
0.162291
0.159338
0.156709
0.153982
0.157812
0.155829
0.15823
0.162514
0.166823
0.165355
0.162345
0.167839
0.15578
0.153644
0.150844
0.16381
0.165929
0.162237
0.166299
0.159697
0.158383
0.147591
0.147314
0.151945
0.150999
0.146582
0.151595
0.15352
0.15098
0.151174
0.158109
0.157676
0.14883
0.14539
0.144627
0.150432
0.145715
0.148261
0.148689
0.152262
0.143424
0.145452
0.149488
0.151777
0.148409
0.142909
0.151468
0.149566
0.148159
0.153473
0.155583
0.154024
0.148875
0.146725
0.152569
0.147535
0.14533
0.146478
0.154249
0.148961
0.153253
0.147851
0.148985
0.144131
0.143302
0.149593
0.148544
0.150798
0.147127
0.14824
0.144061
0.150129
0.145753
0.150487
0.147934
0.146969
0.157192
0.146362
0.148956
0.156942
0.148004
0.152326
0.150307
0.148301
0.150174
0.152446
0.147374
0.150777
0.153774
0.153057
0.153221
0.15401
0.155571
0.152908
0.154197
0.156949
0.153211
0.153437
0.156051
0.154185
0.151449
0.153647
0.151894
0.157253
0.148986
0.1453
0.152548
0.147879
0.148586
0.150048
0.151002
0.14877
0.144808
0.142655
0.144345
0.142547
0.150813
0.149423
0.153117
0.147419
0.146957
0.151677
0.14874
0.15373
0.148003
0.14697
0.150805
0.148233
0.15159
0.147626
0.144315
0.142851
0.15198
0.161223
0.153823
0.158188
0.156531
0.156898
0.146803
0.152682
0.151084
0.150428
0.152884
0.150651
0.160226
0.156145
0.15844
0.151223
0.143962
0.141875
0.14784
0.148434
0.157714
0.145961
0.146909
0.150751
0.156698
0.152789
0.150935
0.150796
0.154907
0.155099
0.151855
0.147925
0.159683
0.151522
0.157275
0.151476
0.162164
0.156242
0.165928
0.1601
0.151372
0.149671
0.148948
0.149534
0.160688
0.172603
0.167415
0.159273
0.15508
0.16412
0.161327
0.160943
0.159423
0.162529
0.158749
0.168487
0.16888
0.159492
0.165054
0.171267
0.163371
0.164184
0.160461
0.167887
0.166207
0.171083
0.166475
0.168864
0.162354
0.153562
0.155783
0.161874
0.156417
0.160408
0.158792
0.156211
0.159363
0.151999
0.151065
0.152198
0.159094
0.161185
0.157173
0.157355
0.155236
0.15475
0.156473
0.158397
0.154689
0.154551
0.148542
0.151053
0.173074
0.166248
0.165036
0.169761
0.167008
0.164739
0.169158
0.163689
0.16906
0.171131
0.167431
0.164044
0.164204
0.162174
0.162195
0.160473
0.15912
0.156862
0.157681
0.162553
0.16469
0.159711
0.158751
0.15923
0.15771
0.147689
0.14966
0.153963
0.157447
0.15782
0.152951
0.15868
0.155018
0.156587
0.155184
0.153484
0.16624
0.162556
0.165066
0.161339
0.155257
0.154944
0.155293
0.162113
0.158551
0.157881
0.163138
0.155977
0.157294
0.157883
0.159963
0.160908
0.166203
0.161903
0.174517
0.168749
0.17009
0.169348
0.162301
0.15924
0.157137
0.161003
0.159486
0.160121
0.15722
0.168242
0.165901
0.162602
0.172651
0.170876
0.17488
0.168841
0.177674
0.17876
0.176671
0.177121
0.165951
0.169996
0.174909
0.174785
0.178903
0.179518
0.182219
0.182387
0.17432
0.174055
0.171611
0.169773
0.167583
0.172153
0.169921
0.162676
0.166882
0.164342
0.161522
0.169946
0.181776
0.176933
0.166913
0.17584
0.178975
0.175732
0.176232
0.175073
0.173718
0.167423
0.181135
0.17904
0.175403
0.171982
0.171787
0.174149
0.181457
0.176569
0.178497
0.174761
0.169269
0.163641
0.176022
0.171807
0.174429
0.170473
0.173468
0.176206
0.17271
0.177775
0.177597
0.180641
0.176057
0.17094
0.172052
0.168366
0.171484
0.167917
0.162767
0.165785
0.165408
0.166147
0.165402
0.174591
0.171641
0.17313
0.168471
0.167828
0.17644
0.164152
0.167042
0.162111
0.165023
0.171748
0.166171
0.164063
0.165292
0.173355
0.173097
0.168439
0.169128
0.170872
0.16844
0.165068
0.170921
0.166498
0.167705
0.169471
0.165978
0.163957
0.164092
0.17485
0.172277
0.171282
0.166123
0.171579
0.172559
0.174633
0.157736
0.161683
0.164664
0.16429
0.163394
0.16419
0.164153
0.156754
0.159258
0.163341
0.163413
0.177212
0.174178
0.173795
0.176495
0.17211
0.169872
0.177463
0.176844
0.167201
0.166577
0.167118
0.169784
0.171124
0.172757
0.16473
0.166733
0.169238
0.179971
0.177345
0.179911
0.175723
0.167103
0.166337
0.186983
0.181522
0.176799
0.179747
0.176612
0.19284
0.185225
0.185414
0.18602
0.188492
0.182686
0.18201
0.183686
0.186752
0.184836
0.172925
0.1758
0.186487
0.186918
0.183087
0.183002
0.182452
0.183348
0.184561
0.183014
0.176322
0.181196
0.188984
0.183836
0.183193
0.183204
0.177403
0.173555
0.171596
0.175942
0.179374
0.176613
0.182482
0.177984
0.177616
0.171581
0.177506
0.177872
0.19739
0.191342
0.186467
0.183127
0.181647
0.188986
0.184225
0.185089
0.186747
0.182297
0.191006
0.185001
0.184377
0.179982
0.178531
0.179959
0.178433
0.181017
0.175873
0.178835
0.174965
0.171638
0.17874
0.175335
0.176429
0.174374
0.163669
0.167296
0.173712
0.171439
0.171915
0.168999
0.179723
0.174319
0.17758
0.181095
0.179577
0.17618
0.175808
0.177093
0.176552
0.185907
0.185597
0.176979
0.18503
0.184213
0.188793
0.192356
0.186841
0.181683
0.181564
0.185289
0.182705
0.185801
0.187263
0.18853
0.189343
0.180047
0.181279
0.173611
0.175164
0.177803
0.185982
0.179568
0.182722
0.177871
0.173528
0.178257
0.172373
0.181688
0.175901
0.19388
0.191751
0.192341
0.194645
0.187664
0.191022
0.192309
0.191672
0.183821
0.192992
0.195886
0.19132
0.19554
0.192357
0.189135
0.196089
0.190607
0.188393
0.197814
0.190984
0.185333
0.188152
0.193593
0.189658
0.184753
0.19286
0.19519
0.19243
0.187629
0.184657
0.18543
0.182782
0.1893
0.185865
0.187428
0.182844
0.189146
0.187875
0.184675
0.188893
0.193452
0.177097
0.193095
0.188615
0.187612
0.196574
0.187703
0.186877
0.17451
0.18191
0.176603
0.175898
0.175595
0.178306
0.178928
0.180073
0.180909
0.17762
0.17734
0.184098
0.183556
0.183987
0.184322
0.18076
0.189462
0.186064
0.180621
0.179551
0.185664
0.185042
0.184214
0.18772
0.184815
0.185204
0.183221
0.18638
0.186793
0.186055
0.206644
0.204654
0.198174
0.19968
0.194414
0.19566
0.196119
0.202884
0.194947
0.200272
0.196041
0.190711
0.191172
0.194547
0.193132
0.191214
0.191662
0.189348
0.192831
0.190933
0.195012
0.193599
0.17626
0.188939
0.18523
0.188741
0.187594
0.188327
0.186587
0.192894
0.186879
0.187362
0.190007
0.19063
0.186817
0.184075
0.183159
0.183309
0.178281
0.187812
0.188091
0.186081
0.179303
0.182354
0.179394
0.182892
0.17929
0.17719
0.17715
0.179014
0.181276
0.180639
0.187808
0.183634
0.184889
0.183113
0.184219
0.206207
0.200678
0.207195
0.203987
0.201183
0.199281
0.194952
0.203031
0.202401
0.20047
0.195672
0.202685
0.197307
0.200013
0.193511
0.195013
0.199576
0.198498
0.196751
0.193336
0.190602
0.186615
0.195828
0.197652
0.185222
0.190334
0.202084
0.20074
0.191284
0.206342
0.202777
0.201769
0.192565
0.208524
0.192802
0.189149
0.188685
0.185906
0.185671
0.187813
0.184936
0.18497
0.181587
0.182131
0.187957
0.185348
0.18662
0.184228
0.185349
0.184875
0.184736
0.193518
0.193503
0.186441
0.187
0.193163
0.189397
0.186251
0.189959
0.188642
0.197652
0.190799
0.186801
0.197065
0.191469
0.187354
0.186527
0.185501
0.185478
0.187078
0.189872
0.184966
0.18038
0.195032
0.187602
0.199487
0.19005
0.20074
0.194801
0.19705
0.185767
0.190972
0.189213
0.185743
0.184269
0.185162
0.188154
0.181896
0.183719
0.18597
0.190269
0.188916
0.190634
0.194007
0.191998
0.196358
0.197089
0.194749
0.192604
0.198444
0.204188
0.196615
0.194774
0.200563
0.199115
0.192668
0.19398
0.195443
0.189849
0.192472
0.194906
0.196904
0.19186
0.193544
0.200794
0.197589
0.195623
0.195073
0.196162
0.207625
0.200292
0.205607
0.199596
0.202289
0.196231
0.195775
0.19115
0.202502
0.19944
0.198304
0.200388
0.193593
0.190188
0.198343
0.19739
0.197351
0.201991
0.212516
0.210288
0.202438
0.203303
0.208789
0.2079
0.206591
0.212983
0.214724
0.207459
0.209132
0.209365
0.210758
0.203676
0.205868
0.20582
0.208657
0.20749
0.19811
0.199794
0.218762
0.213023
0.212413
0.207555
0.214723
0.205728
0.20836
0.207118
0.208235
0.208811
0.210591
0.198223
0.210984
0.204219
0.211475
0.205789
0.206286
0.202241
0.199951
0.200652
0.203121
0.203812
0.195899
0.196592
0.200954
0.196273
0.201688
0.202
0.203221
0.196623
0.199352
0.195018
0.194967
0.19401
0.193913
0.192726
0.19399
0.199231
0.205226
0.201465
0.206165
0.20247
0.201952
0.202631
0.20061
0.19456
0.20314
0.194049
0.194603
0.209449
0.203628
0.20281
0.207438
0.213946
0.199133
0.202626
0.202665
0.20459
0.207228
0.208348
0.210359
0.202557
0.205347
0.202146
0.19525
0.199638
0.200095
0.199624
0.202637
0.198101
0.198961
0.197525
0.198042
0.199859
0.202337
0.199015
0.213741
0.210286
0.209645
0.217532
0.213135
0.210424
0.212058
0.207344
0.207937
0.211985
0.212524
0.219775
0.213357
0.21201
0.209532
0.201
0.199502
0.204488
0.204263
0.204568
0.204252
0.210349
0.207119
0.209207
0.211756
0.213747
0.204333
0.208862
0.202376
0.203246
0.200596
0.202886
0.207443
0.201167
0.199084
0.203578
0.197809
0.195483
0.198077
0.209305
0.206963
0.205907
0.206361
0.218364
0.216059
0.213047
0.218057
0.212162
0.210815
0.205654
0.217952
0.215308
0.205505
0.206793
0.209279
0.213522
0.21799
0.214436
0.212227
0.215132
0.220003
0.215204
0.215248
0.209018
0.210316
0.209684
0.202777
0.209384
0.205237
0.210682
0.214993
0.214977
0.222004
0.217123
0.220093
0.214469
0.215317
0.21634
0.215858
0.213848
0.215044
0.220813
0.219036
0.219885
0.219244
0.218521
0.217159
0.2183
0.225131
0.219695
0.219459
0.213838
0.221445
0.210233
0.209789
0.216009
0.215234
0.222541
0.223572
0.214216
0.210487
0.204815
0.208086
0.207541
0.211385
0.209721
0.212118
0.208958
0.206907
0.200007
0.205647
0.205406
0.203887
0.20434
0.217213
0.2102
0.212959
0.208862
0.207035
0.200487
0.206433
0.204573
0.205523
0.203198
0.211492
0.207637
0.209675
0.208323
0.205284
0.2282
0.225643
0.219635
0.226053
0.231164
0.220379
0.216558
0.228662
0.225684
0.222854
0.21729
0.21348
0.215931
0.225576
0.221597
0.219079
0.217272
0.222335
0.220069
0.21818
0.215532
0.220088
0.216889
0.212444
0.215128
0.215851
0.219871
0.213304
0.213703
0.211117
0.219773
0.216469
0.217154
0.218297
0.209557
0.215984
0.212068
0.213463
0.210429
0.212505
0.203665
0.209903
0.210152
0.210352
0.200608
0.203013
0.210037
0.207694
0.209617
0.22613
0.227448
0.227621
0.22618
0.230736
0.225463
0.224124
0.225238
0.22892
0.223925
0.217424
0.221186
0.209571
0.218189
0.209206
0.21261
0.219848
0.217908
0.213455
0.216541
0.221197
0.22753
0.225795
0.227198
0.230138
0.235059
0.222981
0.225645
0.227171
0.230247
0.227949
0.228681
0.226744
0.227338
0.223179
0.219784
0.224929
0.225188
0.223141
0.216905
0.218634
0.224231
0.222043
0.219691
0.216609
0.225751
0.219467
0.22223
0.217363
0.219635
0.210963
0.212207
0.22282
0.220756
0.218752
0.218534
0.223068
0.219471
0.219087
0.216684
0.218622
0.217185
0.21418
0.21847
0.21729
0.21361
0.211802
0.211096
0.217032
0.215778
0.216143
0.216741
0.225998
0.231809
0.225909
0.224104
0.226318
0.220613
0.223653
0.224893
0.226427
0.224957
0.224815
0.22579
0.221921
0.230494
0.230143
0.227214
0.216657
0.220649
0.218565
0.221802
0.224273
0.219824
0.225563
0.224711
0.216542
0.224772
0.223019
0.218781
0.221926
0.219351
0.222416
0.222706
0.214791
0.215238
0.218477
0.216634
0.214004
0.212542
0.217612
0.217475
0.21908
0.215612
0.216598
0.217469
0.230445
0.231852
0.227619
0.235221
0.230741
0.229439
0.225
0.216814
0.219237
0.226678
0.226797
0.224597
0.22881
0.226738
0.224214
0.225146
0.221956
0.22329
0.219758
0.225255
0.220628
0.220967
0.225313
0.222008
0.224872
0.214466
0.221441
0.222527
0.225437
0.223781
0.222276
0.219716
0.225571
0.224786
0.228547
0.227422
0.222153
0.228311
0.220176
0.222205
0.22915
0.224996
0.230776
0.22991
0.227754
0.226224
0.228105
0.221927
0.221261
0.22642
0.217724
0.222301
0.221899
0.226015
0.224479
0.223201
0.229614
0.230124
0.234553
0.23468
0.233569
0.22824
0.225704
0.22082
0.225227
0.226393
0.227514
0.22639
0.231798
0.22916
0.229531
0.231099
0.227353
0.21947
0.217829
0.22119
0.222346
0.222687
0.224842
0.221091
0.223884
0.21835
0.218804
0.221616
0.217599
0.214477
0.221359
0.220562
0.2138
0.217561
0.218758
0.215163
0.219459
0.219627
0.217001
0.217455
0.213531
0.224548
0.217043
0.215922
0.21632
0.21877
0.221353
0.222613
0.205835
0.203535
0.202006
0.208852
0.208879
0.213427
0.21186
0.214382
0.210495
0.220494
0.219103
0.212625
0.21511
0.216572
0.218171
0.214039
0.213991
0.228783
0.229496
0.222905
0.22454
0.233408
0.228446
0.227921
0.223344
0.22739
0.228907
0.228355
0.225505
0.221901
0.221478
0.226389
0.223074
0.224903
0.226363
0.214976
0.216164
0.213322
0.209865
0.210363
0.209555
0.211393
0.206273
0.206234
0.208073
0.209901
0.207589
0.212179
0.211505
0.211626
0.21152
0.205877
0.208601
0.216602
0.208657
0.213224
0.217149
0.215017
0.214114
0.216272
0.213238
0.220136
0.231181
0.222777
0.22207
0.228745
0.229248
0.229733
0.22557
0.22779
0.229328
0.207518
0.208163
0.207751
0.207919
0.213478
0.208449
0.206954
0.208695
0.209607
0.211103
0.208868
0.210601
0.206158
0.201403
0.199909
0.205569
0.211894
0.210847
0.211607
0.214806
0.205172
0.205758
0.208674
0.206527
0.217487
0.212434
0.214054
0.211488
0.214619
0.213631
0.221355
0.220902
0.220187
0.217673
0.213397
0.223854
0.221885
0.222601
0.221477
0.218714
0.218817
0.2185
0.218373
0.208378
0.205672
0.21058
0.211196
0.208479
0.214686
0.210935
0.205295
0.225463
0.218028
0.218926
0.221488
0.214837
0.223637
0.218493
0.22064
0.218177
0.216968
0.217107
0.217343
0.21933
0.220141
0.201565
0.204353
0.205443
0.209893
0.207233
0.208602
0.208507
0.208434
0.210093
0.206802
0.200142
0.205166
0.202272
0.199395
0.201909
0.199882
0.200821
0.19993
0.205811
0.202495
0.209537
0.208174
0.198142
0.199875
0.200047
0.198891
0.19786
0.206095
0.206241
0.212883
0.208601
0.207257
0.208214
0.20317
0.204618
0.211461
0.213148
0.218319
0.212906
0.211349
0.210103
0.218287
0.215493
0.212849
0.217512
0.212831
0.212872
0.215377
0.213391
0.197707
0.194547
0.18722
0.187466
0.196961
0.196171
0.193033
0.197734
0.195137
0.196912
0.198613
0.196439
0.203537
0.203875
0.199325
0.197395
0.198898
0.206015
0.205387
0.214191
0.20613
0.187944
0.193284
0.189821
0.190315
0.19605
0.193802
0.190974
0.192633
0.203025
0.19583
0.205602
0.200604
0.194433
0.195272
0.203078
0.203833
0.204033
0.204082
0.202378
0.195098
0.20037
0.197148
0.202642
0.198118
0.21182
0.204504
0.20259
0.209178
0.214423
0.210603
0.204898
0.205631
0.195734
0.197788
0.198742
0.206682
0.20827
0.200726
0.196787
0.20405
0.199328
0.205793
0.202997
0.200894
0.194795
0.197224
0.191982
0.193222
0.200457
0.198622
0.193188
0.196236
0.19079
0.193763
0.189852
0.188563
0.19564
0.192037
0.188273
0.190875
0.197794
0.198001
0.204131
0.19659
0.194977
0.193743
0.19899
0.197344
0.198621
0.196174
0.189273
0.197914
0.19782
0.192104
0.195196
0.196492
0.190551
0.190289
0.192889
0.19748
0.196645
0.190571
0.192279
0.180716
0.189611
0.187871
0.185903
0.188112
0.183605
0.182178
0.184218
0.188509
0.189195
0.188472
0.196054
0.191538
0.192428
0.19
0.197997
0.199802
0.189893
0.192234
0.189382
0.192467
0.187081
0.196193
0.204518
0.20186
0.189745
0.193233
0.191041
0.18428
0.192849
0.193121
0.186024
0.187469
0.196316
0.185538
0.179529
0.178425
0.184331
0.181127
0.179562
0.177126
0.179015
0.178808
0.177801
0.172261
0.168137
0.172937
0.177688
0.195024
0.195289
0.191025
0.194286
0.194238
0.18771
0.191284
0.189344
0.179015
0.186354
0.183194
0.179756
0.179903
0.182586
0.176958
0.181284
0.183869
0.182978
0.180657
0.182811
0.180981
0.186948
0.183569
0.194242
0.194444
0.191745
0.20112
0.198525
0.198675
0.197703
0.193881
0.19999
0.19589
0.19219
0.193799
0.197105
0.19435
0.197187
0.193975
0.194315
0.192693
0.193705
0.182684
0.19516
0.192885
0.189181
0.194708
0.192574
0.199942
0.203716
0.198833
0.192966
0.193293
0.191495
0.192314
0.179863
0.17561
0.179183
0.178714
0.183313
0.178808
0.178262
0.183512
0.18218
0.182964
0.182247
0.18355
0.181597
0.179626
0.182366
0.18002
0.180786
0.185632
0.182723
0.181416
0.178859
0.170278
0.185691
0.181651
0.180986
0.178252
0.181506
0.179463
0.175148
0.174076
0.174839
0.174656
0.172206
0.171925
0.176426
0.176835
0.175815
0.173229
0.169262
0.166807
0.175459
0.17534
0.172948
0.180771
0.178902
0.179152
0.176024
0.180341
0.176253
0.178925
0.173514
0.179073
0.182222
0.180524
0.178429
0.178167
0.178369
0.179493
0.177737
0.180131
0.179019
0.18101
0.18027
0.184881
0.187433
0.178349
0.186676
0.181426
0.182357
0.181753
0.18692
0.18521
0.179006
0.181945
0.180834
0.183394
0.19441
0.191724
0.186129
0.191471
0.183689
0.186301
0.183404
0.182425
0.189568
0.189813
0.185879
0.157446
0.167499
0.167213
0.162035
0.164925
0.166306
0.164003
0.164032
0.174696
0.173679
0.176828
0.177126
0.167618
0.168634
0.167102
0.171044
0.17164
0.172069
0.179984
0.174762
0.171642
0.177262
0.17603
0.176579
0.178418
0.177453
0.175323
0.178182
0.17084
0.170751
0.175846
0.171985
0.178735
0.175792
0.173116
0.175952
0.175874
0.174502
0.183957
0.184656
0.181304
0.182681
0.18106
0.181161
0.177823
0.185892
0.183861
0.186413
0.184384
0.158185
0.162088
0.157868
0.154515
0.155239
0.15813
0.153183
0.156533
0.160325
0.159586
0.152135
0.158532
0.165998
0.16575
0.166791
0.164594
0.168521
0.175038
0.171013
0.17358
0.16992
0.154786
0.157086
0.156156
0.15736
0.150594
0.152322
0.155063
0.146173
0.15135
0.154631
0.156136
0.153435
0.160249
0.15934
0.163278
0.16013
0.163915
0.16272
0.160216
0.162282
0.163258
0.157883
0.158755
0.163859
0.161551
0.161121
0.164866
0.166145
0.162332
0.168992
0.168013
0.162559
0.163172
0.16127
0.165275
0.159768
0.166957
0.164584
0.161134
0.162962
0.156338
0.157909
0.166149
0.162152
0.159861
0.158969
0.159413
0.155678
0.147002
0.144448
0.146033
0.147453
0.155478
0.156095
0.152545
0.155341
0.153663
0.169904
0.165636
0.16395
0.175347
0.168694
0.163454
0.165921
0.160054
0.167251
0.165857
0.16323
0.170883
0.168468
0.174342
0.154272
0.157061
0.155077
0.160191
0.158276
0.158112
0.159784
0.156491
0.157841
0.155494
0.151022
0.151914
0.160482
0.162011
0.155424
0.15798
0.157354
0.159097
0.154369
0.153945
0.154545
0.155329
0.155292
0.164298
0.161408
0.163686
0.159612
0.153969
0.153869
0.152442
0.156456
0.152816
0.148231
0.155648
0.154546
0.159336
0.151081
0.152524
0.155599
0.152253
0.158282
0.16026
0.141185
0.145151
0.148256
0.143498
0.142137
0.148122