/*--------------------------------*- C++ -*----------------------------------*\
| =========                 |                                                 |
| \\      /  F ield         | OpenFOAM: The Open Source CFD Toolbox           |
|  \\    /   O peration     | Version:  v1612+                                |
|   \\  /    A nd           | Web:      www.OpenFOAM.com                      |
|    \\/     M anipulation  |                                                 |
\*---------------------------------------------------------------------------*/
FoamFile
{
    version     2.0;
    format      ascii;
    class       volScalarField;
    location    "150";
    object      p;
}
// * * * * * * * * * * * * * * * * * * * * * * * * * * * * * * * * * * * * * //

dimensions      [0 2 -2 0 0 0 0];

internalField   nonuniform List<scalar> 
16968
(
3.61691
3.6276
3.57777
3.59418
3.59658
3.59534
3.59898
3.5893
3.59195
3.59363
3.59593
3.60158
3.60302
3.60667
3.59525
3.60384
3.59526
3.63944
3.64318
3.6507
3.63135
3.62605
3.63187
3.64071
3.6254
3.63604
3.62708
3.62275
3.61443
3.6115
3.62608
3.5991
3.60102
3.59719
3.60408
3.59402
3.59766
3.59199
3.596
3.5936
3.60459
3.58996
3.59866
3.58967
3.5861
3.63179
3.63119
3.62547
3.62982
3.62821
3.6276
3.62855
3.62856
3.63063
3.62943
3.62802
3.63134
3.62907
3.63263
3.63134
3.63506
3.63448
3.62834
3.63068
3.62905
3.66522
3.66824
3.68861
3.68231
3.7056
3.70444
3.69933
3.63953
3.63887
3.64154
3.64077
3.63965
3.63818
3.63778
3.63857
3.64629
3.63695
3.64102
3.68636
3.68009
3.67175
3.66173
3.67873
3.65748
3.66237
3.65151
3.65027
3.66819
3.64246
3.66036
3.67307
3.65704
3.66224
3.64269
3.48351
3.49275
3.49028
3.48746
3.47721
3.50087
3.48433
3.49512
3.49339
3.50029
3.48616
3.492
3.50993
3.49721
3.48597
3.506
3.54414
3.54293
3.54497
3.54331
3.58003
3.58347
3.56176
3.57377
3.55975
3.54791
3.55413
3.58149
3.57715
3.56471
3.55311
3.56905
3.62128
3.6199
3.62603
3.62461
3.63008
3.62897
3.62613
3.62938
3.63098
3.62914
3.62908
3.62329
3.63031
3.63275
3.6283
3.62861
3.62751
3.63624
3.64093
3.64981
3.64671
3.6516
3.65704
3.65535
3.64544
3.64072
3.652
3.6533
3.6543
3.63724
3.64013
3.64104
3.64383
3.64821
3.65041
3.59142
3.59087
3.5963
3.59855
3.60297
3.60018
3.59528
3.60276
3.60287
3.59059
3.60521
3.6007
3.59612
3.60497
3.59604
3.56075
3.55531
3.55251
3.54961
3.5467
3.55318
3.56002
3.55845
3.55219
3.53989
3.53527
3.5355
3.52946
3.54876
3.54049
3.54573
3.58198
3.57001
3.53361
3.55576
3.55449
3.58326
3.56326
3.54626
3.53201
3.56534
3.55198
3.53966
3.56957
3.57981
3.53332
3.54484
3.54717
3.54246
3.54691
3.53968
3.54221
3.53333
3.51649
3.50974
3.52725
3.51993
3.53199
3.52567
3.52418
3.53092
3.52781
3.53163
3.53955
3.53683
3.54547
3.54743
3.5201
3.51726
3.6586
3.66644
3.65999
3.66637
3.67075
3.6805
3.68485
3.68169
3.65786
3.65734
3.69096
3.68315
3.68581
3.6775
3.65784
3.59241
3.58506
3.58429
3.57932
3.57719
3.53919
3.54311
3.53011
3.52225
3.58667
3.58208
3.57346
3.56102
3.56257
3.53841
3.54036
3.56636
3.56624
3.52905
3.67092
3.66905
3.67083
3.66894
3.67676
3.67875
3.65991
3.67692
3.68656
3.65747
3.67974
3.48269
3.48817
3.49841
3.49046
3.50623
3.51132
3.48027
3.49106
3.48304
3.50975
3.50172
3.49998
3.52009
3.5191
3.50815
3.51494
3.50152
3.51095
3.50382
3.51237
3.51481
3.65773
3.65348
3.6574
3.6505
3.63007
3.63203
3.65359
3.65091
3.63726
3.61978
3.62331
3.64491
3.64173
3.64168
3.64893
3.63701
3.62841
3.64534
3.62694
3.63901
3.64109
3.64003
3.63426
3.60979
3.61549
3.61054
3.6084
3.60541
3.60378
3.60792
3.60836
3.60689
3.60701
3.61221
3.61209
3.60939
3.60792
3.61532
3.61637
3.61762
3.61255
3.60363
3.61541
3.61809
3.62317
3.61428
3.62624
3.62743
3.6321
3.6229
3.62501
3.62595
3.62659
3.62753
3.61883
3.62324
3.62424
3.62547
3.62461
3.62543
3.62222
3.62065
3.61766
3.62238
3.62189
3.62081
3.61749
3.62129
3.62035
3.62286
3.61664
3.61482
3.62125
3.61281
3.61292
3.61582
3.61711
3.61632
3.61247
3.61105
3.55571
3.56166
3.58094
3.57133
3.51066
3.51027
3.51096
3.56015
3.59734
3.50996
3.56473
3.57007
3.5212
3.51995
3.5445
3.53596
3.54179
3.63615
3.63749
3.63585
3.63542
3.63745
3.63028
3.64164
3.63562
3.63873
3.63975
3.64247
3.63589
3.64209
3.64415
3.64268
3.64071
3.6423
3.63997
3.63983
3.63677
3.63677
3.64252
3.67845
3.67837
3.63006
3.65343
3.67041
3.6759
3.64558
3.6401
3.65511
3.6474
3.66177
3.68169
3.67435
3.66557
3.65358
3.65722
3.66284
3.66863
3.62922
3.62671
3.61577
3.62075
3.62025
3.62872
3.62765
3.62729
3.6299
3.62651
3.61925
3.62329
3.63024
3.6299
3.62224
3.6318
3.62658
3.62204
3.62288
3.6289
3.63322
3.634
3.62299
3.62913
3.62621
3.63708
3.62677
3.62485
3.62326
3.62479
3.61758
3.618
3.63447
3.6203
3.62497
3.62857
3.63972
3.62977
3.62255
3.60626
3.6075
3.61051
3.61154
3.60925
3.60776
3.6097
3.60479
3.61246
3.6087
3.60698
3.607
3.61192
3.61413
3.61269
3.60621
3.60795
3.56808
3.57887
3.57524
3.56792
3.57676
3.5748
3.57002
3.56219
3.56435
3.57889
3.57388
3.57868
3.58105
3.57586
3.57144
3.55141
3.56966
3.5649
3.55408
3.55511
3.6456
3.63142
3.64206
3.65184
3.64946
3.65886
3.64166
3.6319
3.65662
3.63797
3.66861
3.66843
3.65364
3.64625
3.62094
3.61764
3.62915
3.61728
3.61496
3.63539
3.63467
3.64324
3.64429
3.64226
3.64161
3.62404
3.63191
3.63177
3.63264
3.63555
3.63118
3.63074
3.62717
3.6364
3.63485
3.63849
3.63374
3.63771
3.63257
3.63203
3.63978
3.62917
3.63183
3.64394
3.63748
3.63968
3.63645
3.63753
3.60867
3.60658
3.61608
3.61702
3.60714
3.60543
3.6121
3.614
3.61431
3.61123
3.61131
3.62112
3.61273
3.61581
3.64319
3.6416
3.63877
3.63699
3.64157
3.63675
3.64116
3.63447
3.64097
3.64177
3.56139
3.566
3.55989
3.55865
3.55501
3.55976
3.56882
3.55616
3.54173
3.53976
3.54659
3.55004
3.5422
3.54934
3.59368
3.59488
3.59267
3.59893
3.59344
3.58259
3.58245
3.59586
3.58984
3.59009
3.58301
3.59183
3.57526
3.5799
3.58127
3.6229
3.64723
3.65543
3.65448
3.66691
3.65994
3.61305
3.60233
3.60001
3.59573
3.66412
3.62631
3.66593
3.65476
3.65385
3.65634
3.65048
3.65388
3.65535
3.65163
3.65536
3.65254
3.65575
3.64612
3.65413
3.6527
3.64809
3.64508
3.64683
3.64928
3.6485
3.63846
3.64142
3.63639
3.63894
3.64197
3.63927
3.63614
3.64187
3.63808
3.64141
3.63203
3.63976
3.63791
3.63813
3.63668
3.6332
3.64023
3.63459
3.6384
3.6322
3.63895
3.64011
3.63526
3.63676
3.61143
3.6197
3.61975
3.61597
3.61372
3.62373
3.61835
3.61678
3.61751
3.61233
3.62013
3.60649
3.6107
3.61922
3.61133
3.61904
3.60848
3.60955
3.60487
3.61712
3.45404
3.45533
3.44198
3.44552
3.46217
3.4628
3.43534
3.43964
3.45535
3.43864
3.44071
3.45395
3.45803
3.46968
3.44712
3.44676
3.63212
3.62714
3.63013
3.6299
3.63445
3.63004
3.63033
3.62575
3.63263
3.63048
3.63115
3.62718
3.62795
3.62855
3.6274
3.62811
3.62748
3.62573
3.62501
3.62191
3.64009
3.63832
3.63742
3.6162
3.61637
3.61298
3.61481
3.61065
3.61018
3.61961
3.62125
3.61143
3.62045
3.61794
3.61491
3.61587
3.61921
3.6163
3.6017
3.60981
3.58933
3.59577
3.60208
3.60661
3.60292
3.59726
3.60201
3.60298
3.59331
3.59303
3.60623
3.60674
3.60008
3.60423
3.59427
3.59366
3.62039
3.61526
3.61927
3.63127
3.63424
3.63018
3.61966
3.62412
3.6176
3.62234
3.62008
3.6188
3.62918
3.62934
3.62462
3.62188
3.62622
3.62584
3.61448
3.61597
3.62214
3.61874
3.61801
3.62008
3.61355
3.61468
3.6237
3.6231
3.617
3.62397
3.62434
3.61839
3.59186
3.59365
3.59135
3.59249
3.5967
3.58517
3.5896
3.58942
3.59985
3.5804
3.59055
3.59698
3.62859
3.62507
3.63017
3.62693
3.62713
3.62255
3.62817
3.62511
3.62507
3.63103
3.62395
3.6268
3.62692
3.63569
3.63031
3.62779
3.62144
3.59724
3.60495
3.59378
3.60085
3.61016
3.59945
3.61023
3.60205
3.58684
3.60433
3.61487
3.61149
3.61485
3.58624
3.59641
3.63105
3.6258
3.63757
3.63463
3.63107
3.62964
3.63579
3.63423
3.62743
3.63009
3.62752
3.6309
3.63389
3.63166
3.62868
3.63035
3.63372
3.63119
3.63978
3.63323
3.6362
3.63563
3.63713
3.63104
3.62808
3.6291
3.63684
3.63367
3.66515
3.6758
3.66512
3.66717
3.66303
3.66012
3.67261
3.67413
3.67498
3.66939
3.66498
3.67721
3.67471
3.68091
3.67758
3.67195
3.66952
3.68699
3.68198
3.67776
3.66619
3.47338
3.47113
3.46031
3.46251
3.47021
3.47947
3.48445
3.49377
3.49316
3.4617
3.46919
3.47488
3.47245
3.49377
3.49243
3.4606
3.45147
3.46356
3.46543
3.47184
3.46249
3.47693
3.54435
3.52464
3.52829
3.52007
3.53248
3.52597
3.54762
3.5433
3.53458
3.51761
3.52346
3.51532
3.53512
3.53236
3.53503
3.53221
3.54192
3.59219
3.58118
3.59916
3.597
3.58563
3.57945
3.6048
3.57798
3.59476
3.59794
3.57959
3.58549
3.56921
3.57419
3.58212
3.57664
3.5685
3.58189
3.58692
3.57936
3.58666
3.58191
3.62685
3.63054
3.62513
3.63444
3.62421
3.62124
3.6296
3.62867
3.62812
3.63565
3.63233
3.62162
3.62905
3.61909
3.61998
3.63175
3.61974
3.62561
3.62669
3.63258
3.62879
3.62711
3.62196
3.62706
3.49511
3.49332
3.49537
3.49912
3.49053
3.492
3.49476
3.48972
3.48085
3.47645
3.48827
3.47576
3.47601
3.47797
3.47842
3.4823
3.59707
3.5976
3.59822
3.59739
3.59986
3.59693
3.59706
3.59205
3.58745
3.59355
3.59313
3.59011
3.58783
3.58665
3.58915
3.5856
3.63834
3.63955
3.6244
3.62449
3.63099
3.63876
3.60189
3.61591
3.62161
3.43122
3.4322
3.4294
3.43571
3.43133
3.45684
3.45317
3.43233
3.43527
3.4382
3.43373
3.43875
3.53868
3.53267
3.4291
3.42465
3.42704
3.47995
3.48118
3.4721
3.44336
3.43808
3.44191
3.6997
3.70466
3.71915
3.49082
3.49064
3.4759
3.47013
3.46817
3.44033
3.43898
3.56538
3.56496
3.54704
3.67537
3.6616
3.57556
3.58254
3.55991
3.72398
3.72182
3.59878
3.60216
3.47499
3.48496
3.48685
3.48095
3.44822
3.44975
3.46238
3.4575
3.50613
3.502
3.50528
3.47664
3.4678
3.4715
3.47696
3.4669
3.46703
3.70243
3.70019
3.50316
3.50774
3.57084
3.57404
3.65008
3.6465
3.68948
3.6969
3.69054
3.52695
3.5239
3.50804
3.50543
3.63276
3.62549
3.62859
3.62666
3.62947
3.65384
3.65413
3.65825
3.57553
3.56525
3.57693
3.65536
3.65328
3.65596
3.65433
3.62129
3.62005
3.62301
3.53964
3.54072
3.53021
3.64476
3.64479
3.64132
3.6392
3.64643
3.59562
3.59001
3.59483
3.56052
3.5576
3.63503
3.63581
3.64367
3.6403
3.6368
3.57412
3.56708
3.5691
3.58052
3.58561
3.62326
3.63
3.61905
3.62605
3.63779
3.63729
3.59792
3.59381
3.6143
3.6145
3.61852
3.61564
3.59465
3.58936
3.59125
3.63207
3.63158
3.62681
3.62759
3.62209
3.62457
3.61686
3.63249
3.63379
3.63902
3.60487
3.59743
3.60364
3.61086
3.61295
3.63828
3.63811
3.63186
3.60682
3.60474
3.63624
3.63839
3.63439
3.63061
3.63134
3.638
3.63822
3.63261
3.63442
3.61514
3.61378
3.639
3.63882
3.62292
3.6284
3.62295
3.62142
3.62067
3.62184
3.6256
3.64583
3.63919
3.63797
3.62996
3.63253
3.63528
3.6406
3.63558
3.64067
3.63913
3.64215
3.63954
3.63529
3.63435
3.59421
3.5854
3.59287
3.6067
3.59218
3.60327
3.61397
3.6473
3.6506
3.64823
3.63541
3.67877
3.67544
3.67653
3.67448
3.67021
3.67172
3.67038
3.67114
3.67756
3.6783
3.67542
3.66477
3.66447
3.66387
3.6731
3.674
3.66893
3.67386
3.67322
3.66933
3.67177
3.66957
3.6755
3.67849
3.68294
3.68269
3.67759
3.67913
3.67468
3.67543
3.67677
3.6871
3.67735
3.68476
3.68123
3.68118
3.68737
3.68039
3.67045
3.66804
3.62824
3.63426
3.61546
3.62942
3.62206
3.61834
3.61991
3.6033
3.62723
3.63368
3.62593
3.64471
3.64163
3.63351
3.6608
3.6625
3.65329
3.64936
3.6522
3.6589
3.66075
3.66827
3.65907
3.65901
3.6525
3.64344
3.65045
3.55253
3.5372
3.56044
3.55282
3.5365
3.63452
3.61863
3.63379
3.64002
3.55221
3.56599
3.56355
3.57553
3.56363
3.57697
3.58822
3.62759
3.62856
3.6172
3.6103
3.61843
3.58312
3.60026
3.60598
3.60434
3.59073
3.59208
3.58456
3.58075
3.60061
3.5987
3.57778
3.58601
3.58551
3.57405
3.58953
3.55807
3.55566
3.54675
3.5455
3.55683
3.55771
3.611
3.60445
3.60251
3.58974
3.58553
3.57124
3.57413
3.56301
3.58421
3.61791
3.62956
3.6241
3.62928
3.62308
3.62574
3.629
3.63106
3.62988
3.6371
3.6327
3.63088
3.63327
3.63969
3.64223
3.63816
3.64327
3.6275
3.62442
3.62496
3.62654
3.63026
3.62703
3.62598
3.63955
3.64149
3.64593
3.64294
3.63987
3.63726
3.64198
3.63869
3.63091
3.63483
3.63609
3.63465
3.63901
3.6429
3.64223
3.63732
3.6382
3.64335
3.63859
3.64118
3.64102
3.6359
3.64442
3.64098
3.64685
3.63913
3.63445
3.63277
3.63102
3.63857
3.6325
3.62816
3.62701
3.6292
3.62161
3.63331
3.6287
3.63648
3.63922
3.62659
3.62917
3.63005
3.62733
3.62553
3.62949
3.64019
3.63432
3.63493
3.6376
3.63252
3.64304
3.63845
3.63917
3.63752
3.61305
3.61351
3.62067
3.61477
3.62524
3.62766
3.62087
3.619
3.6199
3.61737
3.6154
3.62168
3.62156
3.61
3.62033
3.61946
3.61413
3.62316
3.6195
3.61751
3.62336
3.62157
3.62646
3.62726
3.63084
3.6226
3.62822
3.6293
3.62642
3.62498
3.61515
3.62027
3.61527
3.61563
3.61386
3.61854
3.6182
3.61621
3.61342
3.62275
3.62033
3.62037
3.61721
3.62555
3.62527
3.62395
3.62415
3.62455
3.6225
3.62687
3.62521
3.62621
3.62164
3.62835
3.62579
3.62021
3.62651
3.62422
3.62872
3.62279
3.62755
3.62469
3.6204
3.61588
3.6146
3.62004
3.61877
3.62706
3.62981
3.63312
3.63134
3.62961
3.63001
3.63507
3.63686
3.63854
3.64139
3.63291
3.63929
3.64288
3.64338
3.6375
3.63564
3.64126
3.63884
3.63979
3.64023
3.63931
3.63512
3.63644
3.63453
3.63863
3.63726
3.64465
3.6431
3.6396
3.64375
3.64184
3.64552
3.64345
3.63888
3.63992
3.64055
3.64212
3.64005
3.60746
3.60818
3.61649
3.59898
3.60423
3.60575
3.60442
3.63326
3.63089
3.63619
3.63697
3.63199
3.63578
3.63507
3.63479
3.641
3.639
3.63558
3.63398
3.62776
3.63067
3.62859
3.63201
3.62779
3.62886
3.63923
3.63476
3.63114
3.63874
3.6351
3.63858
3.63443
3.6374
3.64253
3.63941
3.63453
3.64418
3.63623
3.63582
3.64489
3.63438
3.64166
3.64756
3.63814
3.6391
3.64069
3.63929
3.6395
3.6426
3.63148
3.63857
3.63818
3.63178
3.63466
3.63426
3.63299
3.64173
3.62513
3.62873
3.63526
3.6336
3.62927
3.62358
3.61409
3.61785
3.61731
3.61777
3.61445
3.61447
3.62352
3.61738
3.62365
3.61637
3.61851
3.61917
3.61401
3.61534
3.62613
3.61439
3.61529
3.60483
3.59408
3.59568
3.60598
3.60698
3.6073
3.60658
3.60459
3.60469
3.60334
3.61313
3.60919
3.60879
3.60562
3.61639
3.6127
3.60871
3.61156
3.61342
3.60535
3.60924
3.60191
3.60966
3.6063
3.6078
3.59589
3.59945
3.59537
3.5985
3.5953
3.6347
3.63605
3.63184
3.6301
3.63593
3.64079
3.63636
3.63317
3.63325
3.63696
3.63644
3.63535
3.63469
3.63288
3.62569
3.61839
3.61891
3.6226
3.61824
3.62864
3.63289
3.62657
3.62137
3.62379
3.62417
3.62236
3.62755
3.62534
3.62371
3.63089
3.62682
3.61323
3.62241
3.61616
3.6188
3.62003
3.63426
3.63923
3.64057
3.63459
3.63452
3.63219
3.6343
3.62713
3.63158
3.63091
3.60634
3.60215
3.60631
3.60215
3.60657
3.60741
3.59288
3.59915
3.5957
3.59948
3.58404
3.59256
3.59352
3.59117
3.58668
3.58838
3.59626
3.59247
3.5772
3.57505
3.58301
3.58195
3.58591
3.57872
3.58196
3.57244
3.58558
3.59176
3.58644
3.58109
3.58397
3.598
3.59784
3.60367
3.60136
3.59984
3.59782
3.60152
3.60248
3.60713
3.61289
3.61469
3.613
3.61305
3.61008
3.60998
3.61023
3.62158
3.62504
3.62223
3.62079
3.61619
3.6236
3.62119
3.61867
3.62613
3.62521
3.62893
3.63308
3.62585
3.61129
3.58942
3.58789
3.589
3.59328
3.58576
3.57643
3.58833
3.59445
3.60793
3.61032
3.60828
3.60662
3.60356
3.60076
3.60173
3.6056
3.63934
3.6404
3.64255
3.6478
3.63524
3.6367
3.641
3.63856
3.63744
3.63217
3.64109
3.6402
3.6371
3.6391
3.64528
3.63769
3.63865
3.63996
3.63542
3.6385
3.63135
3.63454
3.62727
3.63185
3.62809
3.62662
3.62827
3.62521
3.6329
3.62402
3.6303
3.62514
3.62735
3.62559
3.62511
3.61659
3.61301
3.62083
3.62043
3.61805
3.6178
3.56602
3.57327
3.5638
3.58207
3.58971
3.58606
3.5906
3.58589
3.58525
3.55312
3.55103
3.56346
3.64361
3.64323
3.64338
3.64442
3.64409
3.64076
3.64165
3.647
3.64103
3.64076
3.64217
3.64074
3.64241
3.63828
3.64026
3.64117
3.64171
3.63599
3.63615
3.63852
3.63481
3.63395
3.6242
3.62961
3.63018
3.63004
3.63833
3.63225
3.62683
3.62975
3.54841
3.52565
3.5444
3.54894
3.55159
3.56649
3.57692
3.56438
3.56769
3.55749
3.55557
3.55854
3.56266
3.56265
3.57778
3.57579
3.58003
3.58133
3.55395
3.55711
3.56905
3.56643
3.56404
3.56374
3.55809
3.60369
3.59908
3.60327
3.59487
3.57742
3.58267
3.58295
3.57425
3.577
3.57497
3.58534
3.58638
3.58019
3.58405
3.56899
3.58162
3.58791
3.58911
3.57173
3.57277
3.60415
3.59772
3.59694
3.59392
3.60394
3.6022
3.59193
3.58966
3.60016
3.64518
3.64192
3.63813
3.63314
3.64532
3.64627
3.65518
3.65526
3.64626
3.64673
3.65116
3.65319
3.6526
3.64714
3.65023
3.64704
3.64669
3.64571
3.64656
3.51305
3.52738
3.53947
3.51636
3.51718
3.52587
3.53103
3.50455
3.52919
3.51803
3.5255
3.51568
3.52052
3.56028
3.54745
3.55484
3.55647
3.59836
3.60211
3.59047
3.60823
3.60617
3.6169
3.62133
3.62678
3.62929
3.63136
3.62281
3.61362
3.61207
3.61807
3.61546
3.60896
3.60686
3.60438
3.61375
3.61679
3.62225
3.61916
3.61912
3.62613
3.62383
3.62449
3.624
3.62928
3.62549
3.62639
3.62788
3.6321
3.6331
3.62868
3.65179
3.6557
3.65501
3.65081
3.67627
3.6775
3.67235
3.66124
3.6612
3.67
3.66528
3.64899
3.66204
3.65701
3.65251
3.65748
3.65931
3.66539
3.6661
3.67161
3.66978
3.66993
3.6645
3.66133
3.65251
3.65287
3.64598
3.64675
3.65239
3.64633
3.59564
3.58844
3.59157
3.58332
3.58617
3.58872
3.58249
3.57687
3.57497
3.58686
3.58365
3.58035
3.53515
3.54896
3.56513
3.55158
3.55293
3.55913
3.55699
3.55468
3.53865
3.54545
3.65357
3.64981
3.65285
3.64972
3.66133
3.65588
3.65745
3.65666
3.65884
3.65413
3.65388
3.62125
3.62626
3.62398
3.62395
3.62324
3.60979
3.61127
3.6075
3.61719
3.61265
3.62364
3.61526
3.62947
3.63413
3.63571
3.63865
3.6371
3.6419
3.6346
3.47348
3.47575
3.4896
3.51905
3.50114
3.49139
3.50214
3.51013
3.51443
3.49911
3.50873
3.50512
3.50863
3.50478
3.50798
3.53162
3.54713
3.54927
3.52607
3.52106
3.52128
3.52828
3.52523
3.52158
3.51844
3.54173
3.53483
3.53824
3.52865
3.52886
3.54166
3.55603
3.55512
3.55459
3.55956
3.54842
3.5388
3.71037
3.71208
3.68073
3.67665
3.68867
3.68716
3.68357
3.68449
3.6785
3.7021
3.69942
3.70195
3.70153
3.70007
3.69488
3.70173
3.70072
3.70241
3.69871
3.70371
3.70432
3.70053
3.66077
3.65871
3.65658
3.65776
3.64137
3.64645
3.64776
3.64177
3.64728
3.65085
3.64735
3.64193
3.6347
3.63684
3.62664
3.63574
3.64085
3.64734
3.53979
3.5581
3.56117
3.55529
3.54766
3.54881
3.54549
3.58222
3.57785
3.58907
3.59186
3.51589
3.51785
3.51849
3.50835
3.51379
3.47954
3.47973
3.49394
3.68105
3.67782
3.68553
3.69097
3.68839
3.69444
3.6952
3.70603
3.70787
3.69673
3.70916
3.68708
3.68999
3.68123
3.69098
3.44839
3.47827
3.46079
3.4621
3.47013
3.44802
3.45707
3.47271
3.4776
3.46128
3.46903
3.46732
3.46564
3.49769
3.49441
3.47586
3.48667
3.50327
3.4978
3.49598
3.47728
3.47214
3.48181
3.47677
3.49986
3.48366
3.48788
3.43492
3.46059
3.45199
3.44102
3.43772
3.44904
3.50094
3.5037
3.49606
3.50385
3.50687
3.49653
3.5148
3.52349
3.51495
3.50764
3.53431
3.52928
3.49292
3.49041
3.50894
3.65014
3.65875
3.64472
3.54687
3.53183
3.54927
3.56197
3.6116
3.61155
3.60289
3.62875
3.63121
3.63145
3.62065
3.61317
3.6237
3.6181
3.60875
3.61734
3.58248
3.56267
3.58645
3.58709
3.5655
3.56156
3.60269
3.56484
3.55749
3.59762
3.59813
3.71861
3.71995
3.71177
3.71129
3.70492
3.71228
3.71363
3.70009
3.71911
3.71804
3.56614
3.54023
3.56097
3.52466
3.54229
3.61652
3.60413
3.60343
3.57283
3.59457
3.58685
3.56831
3.57719
3.57807
3.57739
3.61115
3.58861
3.58701
3.58034
3.53762
3.53209
3.55833
3.55479
3.56553
3.56238
3.56857
3.62638
3.62923
3.60059
3.60707
3.60967
3.59167
3.60131
3.61002
3.59513
3.65655
3.66655
3.70125
3.67393
3.68656
3.68677
3.65885
3.66873
3.69356
3.68145
3.68168
3.70456
3.67862
3.66464
3.69781
3.68541
3.65133
3.6584
3.66846
3.65935
3.65204
3.63778
3.53693
3.53338
3.54858
3.53758
3.56514
3.62704
3.62215
3.61047
3.62133
3.57663
3.57136
3.57915
3.59101
3.58305
3.58341
3.55931
3.56083
3.58618
3.59611
3.53765
3.53791
3.52529
3.52933
3.53017
3.54233
3.55442
3.54108
3.5493
3.54818
3.55776
3.60396
3.60231
3.59637
3.60143
3.61585
3.60684
3.57643
3.58847
3.62377
3.61656
3.62008
3.59379
3.57543
3.46294
3.45393
3.45324
3.45515
3.46685
3.44212
3.45168
3.45912
3.44573
3.44899
3.4583
3.46333
3.45253
3.45433
3.44647
3.45043
3.45904
3.45608
3.44354
3.44415
3.51937
3.49849
3.49832
3.5087
3.49129
3.47226
3.47518
3.48602
3.48091
3.46185
3.45804
3.45034
3.47251
3.47041
3.45066
3.45083
3.48412
3.49024
3.71597
3.68323
3.69834
3.70367
3.70098
3.68943
3.44231
3.44047
3.42715
3.43731
3.45264
3.43368
3.44085
3.46968
3.47671
3.46621
3.44509
3.45475
3.46336
3.48914
3.46652
3.44772
3.45344
3.45334
3.46056
3.47903
3.44887
3.60246
3.61911
3.45385
3.46768
3.46092
3.47111
3.49042
3.48819
3.5059
3.50305
3.51141
3.4988
3.50911
3.53348
3.50018
3.49111
3.49336
3.50086
3.52047
3.50679
3.43633
3.4253
3.4222
3.42789
3.42595
3.43379
3.43665
3.43504
3.43114
3.44285
3.43542
3.43938
3.43711
3.43125
3.43657
3.45193
3.43676
3.44186
3.42874
3.44286
3.44457
3.4426
3.50553
3.51168
3.51651
3.51958
3.55704
3.57741
3.52853
3.52673
3.54818
3.5408
3.5867
3.58883
3.53886
3.49649
3.49922
3.52306
3.51174
3.53668
3.5979
3.57939
3.56012
3.5713
3.58893
3.58158
3.57722
3.57747
3.57551
3.55668
3.55186
3.56501
3.44045
3.43677
3.44257
3.45314
3.4532
3.44636
3.45437
3.45248
3.44924
3.45183
3.45256
3.44017
3.44111
3.44632
3.44857
3.45332
3.45923
3.43414
3.43312
3.43904
3.43566
3.42967
3.43761
3.42586
3.4384
3.43237
3.43508
3.42618
3.4301
3.4457
3.44334
3.44325
3.44571
3.55709
3.57544
3.4425
3.43549
3.42436
3.43575
3.43339
3.44145
3.42404
3.42515
3.43711
3.43025
3.43624
3.69273
3.69213
3.67901
3.69839
3.70161
3.67424
3.659
3.66503
3.67264
3.67615
3.68739
3.68892
3.68687
3.68497
3.6684
3.67333
3.6713
3.66294
3.66083
3.65524
3.65855
3.54209
3.52834
3.54742
3.52271
3.5212
3.52561
3.50449
3.52026
3.52409
3.53719
3.55832
3.49507
3.50026
3.50219
3.50541
3.49608
3.64608
3.63676
3.64405
3.64177
3.63159
3.62933
3.62166
3.62157
3.61243
3.51556
3.51705
3.51725
3.51914
3.50368
3.49958
3.50545
3.50914
3.63744
3.64465
3.64314
3.6464
3.6357
3.5429
3.55323
3.53608
3.5169
3.51941
3.55801
3.55163
3.53961
3.53837
3.51258
3.6905
3.6932
3.69198
3.69314
3.68305
3.68488
3.68256
3.69109
3.68817
3.68211
3.66787
3.68402
3.68619
3.68459
3.68516
3.68126
3.67359
3.68209
3.67965
3.71346
3.71987
3.71236
3.71948
3.71562
3.71505
3.71578
3.71704
3.70793
3.70593
3.71153
3.68184
3.69053
3.68467
3.68978
3.6913
3.68699
3.6836
3.68095
3.67527
3.68946
3.67622
3.67362
3.65725
3.65652
3.65936
3.65805
3.65654
3.6999
3.70538
3.71666
3.71276
3.7097
3.71401
3.70612
3.70397
3.70425
3.71279
3.71635
3.70888
3.70903
3.71891
3.71616
3.71372
3.62983
3.63952
3.6367
3.64365
3.63703
3.6291
3.63837
3.63337
3.62944
3.63409
3.56574
3.56972
3.58638
3.57536
3.57528
3.59182
3.59239
3.5829
3.58329
3.56207
3.56233
3.57203
3.58074
3.66116
3.66302
3.66599
3.66608
3.66233
3.65595
3.65548
3.65331
3.65783
3.65376
3.64877
3.654
3.64299
3.64585
3.65771
3.64822
3.60781
3.60478
3.61521
3.61538
3.61602
3.61098
3.61459
3.61741
3.61021
3.61204
3.60263
3.60174
3.59958
3.60128
3.59148
3.62069
3.61605
3.61503
3.61078
3.61797
3.56677
3.5601
3.58209
3.56537
3.57126
3.56354
3.58589
3.5804
3.58977
3.58379
3.59527
3.64743
3.6449
3.65399
3.6472
3.65271
3.6477
3.64742
3.64275
3.64743
3.64256
3.63697
3.64468
3.64519
3.6497
3.64361
3.64536
3.64577
3.63892
3.6468
3.64773
3.65338
3.65518
3.64876
3.65731
3.65096
3.652
3.65123
3.65085
3.65085
3.64663
3.6528
3.64819
3.64845
3.65009
3.65435
3.61151
3.6098
3.60719
3.60018
3.60187
3.60353
3.61007
3.6369
3.63924
3.64227
3.64122
3.6385
3.63808
3.64335
3.63806
3.6403
3.63894
3.64347
3.64124
3.64742
3.64814
3.65032
3.64308
3.65327
3.64472
3.64852
3.64635
3.64338
3.64957
3.64027
3.6482
3.64896
3.64584
3.64785
3.60405
3.59165
3.59148
3.60683
3.61075
3.61066
3.59588
3.62989
3.63262
3.62788
3.62476
3.62568
3.62821
3.63191
3.62427
3.62816
3.63809
3.64554
3.63615
3.63659
3.64104
3.63917
3.63521
3.64392
3.64506
3.6395
3.64252
3.6426
3.61567
3.61728
3.6211
3.61625
3.62037
3.6181
3.61408
3.61008
3.61581
3.61831
3.60877
3.61821
3.60978
3.6128
3.61346
3.62113
3.62016
3.62025
3.62018
3.61885
3.61889
3.62236
3.61809
3.62238
3.59879
3.60258
3.60184
3.60855
3.59701
3.59741
3.59776
3.59379
3.59892
3.60645
3.60222
3.61291
3.61255
3.61463
3.6123
3.61061
3.60686
3.60611
3.61119
3.61002
3.60636
3.60259
3.61378
3.60823
3.61151
3.57849
3.56278
3.57201
3.57281
3.56966
3.57264
3.57008
3.56164
3.56899
3.56668
3.59257
3.59495
3.60076
3.58625
3.58989
3.61903
3.6264
3.6324
3.62815
3.61826
3.61792
3.6193
3.61872
3.6197
3.63658
3.63098
3.63258
3.63046
3.62862
3.63156
3.62834
3.63336
3.63392
3.63171
3.63227
3.63179
3.62723
3.62593
3.63049
3.61775
3.62052
3.61862
3.6144
3.61874
3.63223
3.62845
3.63139
3.63846
3.63635
3.63232
3.63271
3.63153
3.6287
3.63095
3.63882
3.6384
3.64026
3.63792
3.63457
3.63624
3.64341
3.64085
3.64121
3.63696
3.63911
3.63886
3.64261
3.63603
3.6348
3.6395
3.63407
3.63792
3.63772
3.63711
3.63995
3.63645
3.63776
3.63653
3.62592
3.62665
3.62469
3.62797
3.62424
3.61543
3.61724
3.6252
3.62736
3.61532
3.61593
3.62358
3.62223
3.61949
3.61202
3.60909
3.60873
3.60933
3.6122
3.60847
3.60623
3.62785
3.62599
3.62933
3.63042
3.62581
3.62396
3.63056
3.63229
3.63305
3.62659
3.62727
3.63079
3.63193
3.6067
3.618
3.60629
3.60975
3.60443
3.61214
3.61328
3.6193
3.61612
3.60903
3.60901
3.60741
3.63052
3.63229
3.6352
3.63147
3.6264
3.63418
3.62571
3.63084
3.63161
3.6167
3.61558
3.62511
3.62007
3.61998
3.61342
3.6163
3.61701
3.61317
3.61231
3.61656
3.62852
3.63284
3.63815
3.63415
3.63014
3.63397
3.62839
3.62964
3.63776
3.63219
3.63404
3.63379
3.63297
3.62742
3.62835
3.63073
3.63016
3.62631
3.62077
3.61869
3.62081
3.62728
3.62534
3.62493
3.62669
3.62999
3.62992
3.64117
3.6392
3.64048
3.63818
3.63463
3.64217
3.64658
3.64839
3.64229
3.64075
3.64148
3.63505
3.63749
3.64419
3.64034
3.64338
3.64294
3.64475
3.6278
3.63725
3.63801
3.63935
3.64602
3.64274
3.64197
3.64504
3.64185
3.63954
3.64365
3.60259
3.60928
3.61083
3.5977
3.62058
3.60539
3.60181
3.62008
3.6194
3.54375
3.53784
3.54432
3.53288
3.51554
3.53598
3.52374
3.62781
3.6488
3.64129
3.64279
3.64328
3.63764
3.64565
3.65066
3.64727
3.64108
3.64663
3.63321
3.63252
3.61948
3.6296
3.61961
3.63357
3.62799
3.62805
3.63407
3.65774
3.66193
3.66403
3.65285
3.65923
3.66725
3.66859
3.67189
3.65595
3.65482
3.65787
3.65133
3.65572
3.65576
3.58908
3.59379
3.5957
3.58288
3.58279
3.58074
3.57608
3.58149
3.57096
3.57292
3.6663
3.67462
3.67301
3.66511
3.67561
3.66987
3.67111
3.6706
3.67465
3.6569
3.65728
3.65982
3.65894
3.65855
3.66397
3.65471
3.65444
3.66244
3.65974
3.66726
3.66008
3.66962
3.66062
3.65536
3.66386
3.66696
3.66563
3.65796
3.66453
3.66634
3.61323
3.61731
3.62481
3.61324
3.61544
3.62874
3.62648
3.62529
3.62216
3.62151
3.60025
3.60024
3.60746
3.6029
3.5976
3.60579
3.6043
3.60437
3.65686
3.65822
3.65387
3.65894
3.65963
3.66114
3.66542
3.65878
3.66686
3.66578
3.51819
3.54124
3.55129
3.53595
3.54048
3.52801
3.52151
3.52616
3.51892
3.53959
3.55224
3.60591
3.59577
3.59284
3.60501
3.60494
3.59857
3.60017
3.59308
3.59406
3.49163
3.51963
3.49265
3.49365
3.49094
3.51034
3.51543
3.51937
3.51152
3.67028
3.66267
3.6681
3.66588
3.62339
3.60527
3.61228
3.59759
3.60856
3.6066
3.62931
3.61416
3.59874
3.60081
3.56743
3.54259
3.56069
3.56645
3.5757
3.56883
3.56418
3.55572
3.62746
3.63106
3.63059
3.62571
3.62877
3.6408
3.62833
3.6282
3.61886
3.62539
3.61982
3.62118
3.64408
3.6416
3.64194
3.63693
3.6358
3.63295
3.63049
3.63256
3.64201
3.63681
3.63846
3.6378
3.62885
3.63064
3.63521
3.63608
3.63233
3.63907
3.6367
3.63462
3.63636
3.64022
3.64094
3.63787
3.64414
3.63567
3.63805
3.63838
3.64126
3.61715
3.63275
3.63444
3.62774
3.62618
3.62543
3.61979
3.61484
3.62752
3.62653
3.62688
3.63584
3.6375
3.63117
3.63164
3.63949
3.63987
3.63257
3.6337
3.63386
3.63956
3.63777
3.63755
3.64103
3.63981
3.63809
3.63937
3.64066
3.64407
3.64029
3.63623
3.6358
3.63862
3.63224
3.63018
3.63988
3.63584
3.64231
3.61831
3.62131
3.60479
3.5981
3.59855
3.59457
3.58778
3.58624
3.60028
3.60146
3.59655
3.59877
3.59743
3.59158
3.56409
3.56581
3.56998
3.56474
3.57369
3.57698
3.58304
3.57924
3.56977
3.57377
3.57927
3.58314
3.6114
3.61072
3.61062
3.6122
3.61862
3.60897
3.61238
3.60866
3.61615
3.59971
3.60712
3.60849
3.63803
3.63166
3.63699
3.63811
3.63836
3.6378
3.63567
3.63149
3.63238
3.63402
3.62941
3.63478
3.63371
3.63248
3.63375
3.63897
3.64081
3.64737
3.63369
3.63856
3.64378
3.6389
3.63764
3.63855
3.63546
3.63723
3.6387
3.64021
3.62319
3.62546
3.62724
3.63256
3.63344
3.62994
3.62792
3.63288
3.63048
3.62619
3.6313
3.62887
3.62408
3.62206
3.62046
3.6232
3.54104
3.52732
3.52807
3.5363
3.53063
3.54911
3.55456
3.54812
3.54493
3.5791
3.58745
3.60029
3.60288
3.58933
3.59144
3.58839
3.59205
3.59831
3.59467
3.59978
3.5905
3.59456
3.62904
3.62699
3.63331
3.64101
3.6349
3.63449
3.63314
3.65074
3.6495
3.64666
3.64875
3.65074
3.65439
3.65078
3.65229
3.65105
3.65183
3.6509
3.64266
3.64752
3.64415
3.64099
3.64086
3.6418
3.64224
3.54449
3.53338
3.52974
3.52135
3.54528
3.53469
3.53876
3.54846
3.54106
3.57957
3.57718
3.56971
3.574
3.57317
3.56596
3.55771
3.56461
3.57409
3.57494
3.57169
3.57023
3.61018
3.6654
3.65306
3.64229
3.64187
3.64222
3.64411
3.63306
3.64272
3.64725
3.63904
3.55889
3.56489
3.60964
3.62131
3.61742
3.60688
3.60643
3.61043
3.60209
3.59422
3.6097
3.6163
3.59358
3.60676
3.60239
3.59973
3.60785
3.60965
3.6076
3.60141
3.59942
3.5914
3.5882
3.59838
3.59522
3.59551
3.52651
3.52108
3.53102
3.56879
3.56417
3.57194
3.57089
3.57517
3.56691
3.56808
3.55494
3.5465
3.54717
3.54792
3.56397
3.55643
3.56078
3.55563
3.55713
3.65989
3.67501
3.67156
3.66828
3.67094
3.67407
3.67148
3.66398
3.69634
3.69505
3.62371
3.62117
3.63156
3.62837
3.63327
3.62963
3.63043
3.5283
3.55089
3.55674
3.5605
3.56891
3.53412
3.52859
3.53499
3.55721
3.56533
3.53868
3.53297
3.53657
3.45709
3.47317
3.46706
3.45668
3.47581
3.47002
3.46423
3.46355
3.4708
3.45681
3.45764
3.47057
3.46546
3.46439
3.52982
3.5483
3.55627
3.56865
3.56171
3.52845
3.55272
3.55893
3.57347
3.54755
3.53915
3.54638
3.53589
3.57433
3.57819
3.60877
3.62956
3.62046
3.57187
3.57261
3.5795
3.57475
3.55446
3.57088
3.58957
3.58465
3.5953
3.58484
3.5647
3.59319
3.59531
3.59736
3.59279
3.57749
3.47264
3.46987
3.43807
3.46406
3.43682
3.43815
3.43533
3.44742
3.454
3.44276
3.44122
3.43974
3.44666
3.44954
3.45363
3.47868
3.4744
3.48021
3.47442
3.47294
3.49345
3.49148
3.48074
3.48056
3.48969
3.4722
3.47924
3.69964
3.70867
3.70401
3.71301
3.48076
3.47596
3.63953
3.64464
3.63128
3.63199
3.53395
3.54056
3.48874
3.5265
3.52432
3.513
3.48539
3.46864
3.45975
3.47396
3.46604
3.47045
3.48786
3.48404
3.47001
3.46688
3.45958
3.47166
3.45798
3.46087
3.46425
3.44186
3.44403
3.44209
3.44166
3.44126
3.68631
3.692
3.69757
3.68825
3.69099
3.6835
3.67195
3.67641
3.66619
3.67245
3.68061
3.65911
3.65855
3.66297
3.61996
3.60632
3.62244
3.62978
3.62057
3.62846
3.65394
3.6478
3.65364
3.64294
3.64383
3.71382
3.7169
3.71762
3.7132
3.52774
3.50457
3.52598
3.53587
3.53831
3.52711
3.51723
3.51015
3.51602