/*--------------------------------*- C++ -*----------------------------------*\
| =========                 |                                                 |
| \\      /  F ield         | OpenFOAM: The Open Source CFD Toolbox           |
|  \\    /   O peration     | Version:  v1612+                                |
|   \\  /    A nd           | Web:      www.OpenFOAM.com                      |
|    \\/     M anipulation  |                                                 |
\*---------------------------------------------------------------------------*/
FoamFile
{
    version     2.0;
    format      ascii;
    class       surfaceScalarField;
    location    "150";
    object      phi;
}
// * * * * * * * * * * * * * * * * * * * * * * * * * * * * * * * * * * * * * //

dimensions      [0 3 -1 0 0 0 0];

internalField   nonuniform List<scalar> 
37284
(
3.19559e-09
-1.55108e-08
1.3808e-08
-1.49278e-09
-3.15727e-09
1.87767e-09
-3.78566e-09
5.06525e-09
1.20369e-08
3.82709e-09
-1.46378e-08
-1.22622e-09
1.09663e-09
-1.05781e-08
8.00953e-09
1.47198e-09
-1.10503e-08
2.12489e-09
1.0022e-08
1.01492e-09
-9.83436e-09
-1.7587e-09
-9.7728e-09
-2.62556e-10
6.53315e-10
-6.7456e-09
8.57079e-09
-2.47851e-09
-5.92524e-09
8.70344e-09
-7.45597e-09
-1.0466e-08
1.19967e-08
2.23372e-09
3.47402e-10
-1.00371e-08
3.1468e-09
-1.33662e-09
-1.16446e-08
5.18914e-10
-7.14491e-09
-7.2059e-09
-2.74117e-09
-5.08459e-09
5.72712e-10
7.05419e-09
-1.01545e-08
1.76363e-09
-5.59342e-09
7.56302e-09
4.34578e-09
-9.34554e-09
1.33297e-08
-8.32996e-09
1.88927e-08
-9.60627e-09
-4.94064e-09
6.14428e-09
-1.58516e-09
1.43336e-08
4.68961e-09
8.17636e-09
-2.22115e-08
9.10334e-09
-1.61514e-08
1.17377e-08
1.42651e-08
-1.56951e-08
2.3149e-08
2.68146e-08
-2.05592e-08
-2.94043e-08
-6.25446e-09
1.47262e-08
6.31659e-10
-4.88116e-09
1.19564e-08
-1.39538e-08
2.87841e-08
-5.65098e-10
-1.41172e-09
1.22041e-08
3.93383e-09
-3.61703e-09
6.22324e-09
2.24396e-08
-2.50457e-08
1.36936e-08
-1.87224e-08
2.4521e-08
-2.02187e-08
1.92102e-09
-1.65298e-09
1.2924e-08
-1.15335e-08
1.00374e-09
1.71147e-09
1.77864e-08
-2.05016e-08
1.46462e-08
-1.54011e-08
1.8023e-08
-1.79645e-08
1.82175e-08
-1.81932e-09
-3.47417e-09
7.50759e-09
1.4971e-08
-4.26111e-09
3.47712e-09
4.63255e-10
1.07058e-08
1.66124e-08
-1.31199e-08
1.42939e-08
5.37188e-09
1.21577e-08
-6.85529e-09
2.3059e-08
8.92071e-09
2.56593e-09
1.008e-08
1.21613e-08
-5.62882e-09
-4.15396e-10
2.77226e-08
-1.72272e-08
1.38772e-08
-1.74562e-08
1.6003e-08
7.76122e-09
-6.30802e-09
4.66365e-09
-4.41343e-09
-1.77064e-08
-3.22802e-09
2.54586e-09
-9.53378e-09
1.02159e-08
3.14105e-10
-1.30233e-08
9.48116e-09
-1.584e-09
-9.70869e-09
1.38386e-08
1.45938e-08
-8.47315e-09
9.88234e-09
4.20868e-09
-1.56035e-08
1.17089e-08
1.72185e-08
-8.70002e-09
8.5771e-10
-9.98049e-09
-1.04029e-10
5.50733e-10
-7.9453e-09
-9.80293e-09
8.03953e-09
-1.81813e-08
1.76283e-09
-2.26509e-09
-1.12526e-08
-3.86959e-09
-9.47897e-09
3.25271e-10
-1.0549e-08
-3.30108e-09
1.31824e-08
1.89675e-09
-1.94926e-08
-4.99661e-09
-1.04779e-08
5.70948e-10
4.18389e-09
-1.28362e-08
-8.55911e-09
4.10156e-09
-7.64648e-09
1.5466e-09
6.11914e-09
-1.02421e-08
1.57007e-10
1.68963e-09
-1.25273e-08
1.06806e-08
1.21367e-09
-8.70319e-09
2.94951e-10
-6.37922e-09
-7.34858e-10
-4.01407e-09
-6.06512e-09
-4.88697e-09
1.71896e-10
-5.7607e-09
1.04758e-08
-2.26339e-09
-8.41591e-09
5.79236e-09
-9.09146e-09
-1.06649e-08
1.99283e-08
-1.46077e-08
3.25293e-09
3.40671e-09
-8.22752e-09
-9.39874e-10
-8.31253e-09
1.22024e-08
1.62471e-09
-3.94318e-10
6.2392e-09
-1.34974e-08
-7.40962e-09
8.06792e-10
-4.09032e-09
-3.03416e-09
7.15357e-09
8.45903e-10
1.28637e-08
3.47196e-09
-1.71815e-08
-1.19526e-08
9.54905e-09
3.2495e-09
-9.26666e-11
-1.43613e-08
2.50137e-09
1.30327e-08
1.5102e-09
-1.09876e-08
-3.55522e-09
1.18242e-08
1.40722e-08
-1.50707e-08
-1.47177e-09
3.62861e-09
1.29139e-08
3.00724e-09
-1.81705e-08
2.26983e-09
2.21572e-08
-2.14197e-08
1.49747e-08
-1.11947e-08
6.35109e-09
1.7262e-09
4.52614e-10
7.98243e-09
1.37222e-08
-5.72745e-09
-4.60532e-09
1.49518e-08
-4.61893e-09
-6.11875e-09
6.74242e-09
-4.30921e-09
-9.04473e-09
8.74865e-09
1.39624e-09
6.38264e-09
-2.13578e-09
1.28965e-10
-9.34497e-09
1.13517e-08
1.42095e-08
-2.95521e-10
-1.60498e-08
1.94092e-10
-7.97817e-10
1.34477e-08
-1.2844e-08
-8.81437e-09
-1.23986e-09
1.02483e-08
-6.67199e-09
2.20622e-09
-4.34863e-09
1.22554e-08
-7.22505e-09
9.17908e-09
-1.94628e-09
7.04566e-09
-4.97042e-09
8.62067e-09
-1.08625e-08
1.21193e-10
-1.52748e-08
1.43557e-08
1.70277e-09
-1.20942e-08
1.05126e-08
-7.56232e-09
8.02523e-09
5.70355e-09
-5.32989e-09
-7.38564e-09
4.36633e-09
-7.85343e-10
-8.37465e-09
-2.93425e-09
-2.64412e-09
-7.13969e-09
1.72382e-08
5.7462e-09
-6.60928e-09
-1.63751e-08
5.31248e-09
1.27913e-09
1.06465e-08
-2.20185e-08
6.7129e-09
2.06181e-08
-1.53017e-08
-9.70608e-10
1.26382e-08
-2.69451e-08
1.91099e-08
-4.80305e-09
3.25389e-08
-2.75939e-08
7.69311e-09
-2.48862e-08
-3.12316e-09
-9.79527e-09
3.78046e-08
-1.37485e-08
2.14012e-08
1.19887e-08
-8.20376e-10
-2.49169e-08
1.55784e-08
-1.67784e-08
-3.18157e-09
4.65824e-09
4.97085e-09
-5.30594e-09
-2.661e-08
-2.23284e-08
-2.94696e-10
1.83102e-08
-2.20153e-08
-1.60086e-09
7.64051e-09
1.19487e-08
1.69551e-08
4.50878e-09
-9.0335e-09
3.23472e-09
1.28999e-09
-1.06141e-08
4.02918e-09
1.10937e-08
-2.66717e-09
-8.19712e-09
1.83079e-09
4.91019e-09
-7.41391e-09
-1.63454e-10
-9.57721e-09
3.87328e-09
1.58968e-08
-3.82813e-09
-9.78549e-11
-2.85183e-09
-4.46424e-09
-3.26425e-09
-5.03073e-09
-9.40911e-09
4.02843e-10
-4.52141e-09
-7.73953e-09
-2.58989e-09
-5.86618e-09
-3.03945e-09
1.14955e-08
-8.44453e-09
-7.70332e-09
1.3558e-08
-3.67504e-09
-8.03375e-09
-1.595e-09
-1.14855e-08
1.01917e-08
-8.64512e-09
-1.27992e-08
6.08838e-09
-1.39152e-08
-1.85403e-09
-2.6807e-10
-2.58773e-09
4.70982e-09
2.20974e-09
-1.54418e-09
-2.51957e-09
1.03618e-10
1.99763e-09
1.08496e-10
2.06541e-09
7.05038e-10
-4.31463e-09
1.94825e-09
2.32671e-09
-2.20956e-09
1.91754e-09
1.34328e-10
-2.44151e-10
-9.3238e-10
3.50324e-09
2.54726e-09
4.09425e-09
-5.93647e-09
7.08735e-09
-4.80815e-09
5.12573e-09
-1.27562e-09
-2.03696e-09
6.50215e-10
3.99087e-09
-2.60413e-09
-1.2386e-09
2.57864e-09
-3.37701e-09
4.08875e-09
-9.85317e-11
1.16996e-09
-5.16017e-09
2.68233e-09
4.27753e-09
-2.87112e-09
6.27173e-09
7.17104e-10
-6.88258e-10
1.91744e-09
5.04256e-09
3.19888e-09
5.24998e-09
-6.35657e-09
-7.33528e-09
8.32727e-09
5.36455e-09
-1.25278e-08
-6.67049e-10
6.83821e-09
-7.46208e-10
-1.16873e-08
1.07134e-08
1.72009e-09
9.61139e-09
-1.10639e-08
7.06281e-10
-6.02254e-09
3.10615e-09
1.15802e-08
-1.26981e-08
-4.90468e-09
-2.4804e-09
3.41151e-10
1.37195e-08
-5.99247e-10
2.69877e-09
-1.31634e-08
-1.48422e-08
2.55569e-09
-1.00608e-10
3.47873e-09
1.32441e-09
-1.13237e-08
1.6257e-08
-1.58844e-08
-2.85304e-09
-8.27064e-09
1.76872e-08
6.84038e-09
-1.15065e-08
-3.05345e-09
3.70563e-09
-1.20769e-08
1.48364e-08
-2.49131e-09
-6.49308e-10
-1.16957e-08
-3.23234e-09
1.39297e-08
4.13904e-09
1.01712e-08
-1.12738e-09
-1.15352e-08
-1.28743e-08
7.80754e-09
1.83439e-09
9.87478e-09
-1.25778e-08
-1.32317e-08
7.84875e-09
1.93126e-08
1.68452e-08
-2.89654e-09
-1.4598e-08
9.2297e-09
-5.61628e-09
1.02904e-08
-1.43144e-08
-1.2644e-08
8.67133e-09
1.17802e-08
-2.7749e-09
5.67825e-12
-3.4975e-09
1.2445e-08
-1.09878e-09
2.34669e-09
2.82717e-09
-8.69481e-09
3.08277e-09
1.48417e-08
-1.08967e-08
-7.13879e-09
9.34063e-09
-3.38112e-09
2.01345e-08
3.59468e-09
-1.403e-08
-9.69923e-09
1.27018e-08
1.73141e-08
-9.88138e-09
4.87251e-09
-2.46037e-08
1.84987e-08
1.2324e-09
4.29007e-09
-1.83569e-08
1.89393e-08
1.48776e-08
-3.09521e-09
-7.49234e-09
-8.71664e-09
-5.75699e-09
1.80683e-08
-7.60297e-09
-1.2041e-08
1.28703e-09
-8.92819e-09
-2.32785e-08
-1.89361e-08
1.11352e-08
1.55442e-08
-7.74338e-09
7.85598e-09
-5.21611e-09
-1.66699e-08
-1.95153e-09
-1.05674e-08
2.03749e-08
-1.2317e-08
-8.57058e-09
1.56966e-08
-2.40444e-08
3.13161e-09
-5.06103e-09
1.02878e-08
-1.67587e-08
8.3649e-09
-1.89395e-09
-1.42469e-08
1.49787e-08
9.556e-09
-1.20972e-08
1.3563e-09
-3.506e-09
-8.91057e-09
-1.99453e-08
3.01022e-09
2.93012e-09
6.10346e-09
-1.20438e-08
8.48601e-09
3.69185e-09
-9.16766e-09
1.66204e-09
1.38455e-08
-9.62339e-09
-5.88419e-09
1.40659e-08
-3.91788e-09
1.24911e-08
-1.10325e-08
-1.63436e-09
1.75783e-10
5.83645e-09
-4.75737e-09
1.1412e-08
7.554e-09
-1.31206e-08
1.80512e-09
3.76144e-09
1.18318e-09
1.22073e-08
-2.54759e-09
3.27254e-09
4.8582e-10
6.27955e-09
-2.02783e-09
4.11315e-09
5.92126e-09
1.53369e-08
-9.14393e-09
1.62483e-08
-1.39481e-08
1.14672e-09
-7.12717e-09
1.15924e-08
-6.75383e-09
-9.75863e-09
-2.83318e-09
-1.32786e-08
1.1837e-08
-1.87901e-09
5.05184e-09
-3.74733e-10
-5.75952e-09
-3.58054e-09
-2.2494e-09
-1.30802e-09
-8.82023e-09
-4.39834e-09
3.60685e-09
-4.75143e-09
3.5051e-09
-2.36055e-09
-1.72189e-09
9.30374e-10
-1.14292e-09
4.80191e-09
-7.32952e-10
-2.92607e-09
-1.89404e-09
-4.00034e-09
-9.45655e-09
7.42262e-09
-3.9702e-09
-1.34496e-09
6.93175e-10
-2.70958e-09
-4.08856e-09
-2.50135e-09
-8.91145e-09
6.21406e-09
-1.06095e-08
-7.21268e-09
-4.19437e-08
3.20789e-08
-1.37894e-08
2.36541e-08
-3.17155e-09
-1.62593e-08
-2.25129e-08
1.19886e-08
1.37682e-08
6.32203e-09
-2.59609e-08
2.16963e-08
1.62532e-08
-1.24151e-08
-1.67173e-08
2.4483e-08
1.17717e-08
-9.3379e-09
-2.69168e-08
1.71041e-08
2.38627e-09
4.99261e-09
-3.88085e-08
3.07002e-08
2.52124e-08
3.54606e-09
-3.05829e-08
-3.28928e-08
1.64191e-08
2.68431e-09
-1.29075e-08
-3.62446e-08
-1.53218e-08
2.42812e-08
4.80887e-09
-1.44818e-08
4.45292e-09
-2.13914e-09
-2.16806e-08
-1.67694e-08
3.39143e-08
1.35553e-08
-8.90356e-09
4.37099e-09
2.87171e-08
-2.41846e-08
-1.405e-08
1.51473e-08
-2.39503e-08
1.47388e-08
-2.95514e-08
-1.95685e-09
-6.02e-09
3.9801e-09
8.551e-09
-6.5111e-09
5.55825e-11
9.44986e-09
-1.55254e-08
-7.24891e-09
-3.13232e-09
-1.87909e-08
1.15976e-08
1.81094e-09
-2.75864e-09
1.03976e-08
1.07194e-08
-3.57462e-10
-8.99328e-10
1.54165e-08
-1.08886e-08
-6.13286e-09
6.95973e-09
9.7865e-09
4.1824e-09
-3.77686e-09
-8.99657e-09
-8.49539e-09
2.12688e-08
8.97611e-09
-5.32247e-09
-6.55744e-09
-1.85698e-09
2.68879e-09
5.72559e-09
-1.12292e-09
-5.22949e-09
-2.05034e-10
-5.46952e-09
-5.19374e-09
6.4961e-09
4.16715e-09
-6.23294e-09
-3.59522e-10
6.90453e-09
-7.42296e-09
-5.71451e-09
9.7218e-10
7.38614e-10
-7.71513e-09
4.82949e-09
1.02865e-09
-7.71543e-09
-5.2292e-09
1.07025e-09
8.1146e-09
-3.28993e-10
3.62047e-10
-7.45599e-09
2.78522e-09
-1.08773e-08
1.25441e-08
-4.45203e-09
-8.15223e-09
1.20077e-08
8.81621e-09
-2.68916e-11
-9.1183e-09
7.93967e-09
1.84872e-09
-1.93131e-10
3.23435e-10
1.11562e-08
-1.12865e-08
1.16324e-08
-1.18524e-08
-7.02995e-09
-2.10684e-09
1.22196e-08
1.51963e-09
-1.155e-09
1.02044e-08
1.39935e-09
-5.708e-11
1.18678e-09
-7.98867e-09
-5.61964e-09
5.39169e-09
8.21657e-09
-8.77494e-09
4.71642e-10
3.14541e-10
-1.55873e-08
1.88935e-09
8.07836e-09
-4.2503e-09
-7.1109e-09
-4.22613e-09
2.25463e-08
-1.37989e-08
-6.93172e-09
-1.81549e-09
1.44016e-08
1.0034e-08
-7.48931e-09
-5.53595e-09
7.68871e-09
-7.75307e-09
5.35916e-10
-1.08941e-08
-1.00157e-08
1.41152e-08
-1.2314e-08
-8.73292e-09
9.03028e-09
5.35391e-09
-2.68983e-10
-7.581e-09
2.7428e-09
1.02297e-08
-5.53887e-10
6.61539e-10
-6.12498e-09
2.56362e-09
-4.19173e-09
-3.05426e-09
-1.056e-08
6.67738e-09
-2.06257e-08
4.99024e-09
-1.06268e-08
-7.64108e-09
1.58903e-09
1.23053e-08
-6.25325e-09
-2.38959e-09
3.7788e-09
-5.01065e-09
9.34245e-09
-5.7003e-09
1.35721e-10
-9.60413e-09
1.51423e-09
-2.05027e-09
-5.52807e-09
4.07768e-09
-3.65374e-09
5.10413e-09
9.60051e-09
-4.39422e-09
-7.18777e-09
1.98149e-09
2.3242e-09
3.80965e-09
3.46665e-09
-7.79114e-09
-2.35535e-09
5.75227e-09
-8.03869e-09
4.88316e-10
1.33125e-08
-5.76209e-09
-3.36444e-09
-9.37301e-09
4.69876e-09
4.00989e-09
-1.28063e-08
5.43197e-09
8.17174e-09
-1.83415e-08
1.41797e-08
-4.69836e-09
4.19447e-09
-8.86913e-09
-5.89279e-09
1.45528e-08
-6.5635e-09
3.21281e-09
-5.6405e-09
8.99117e-09
6.37698e-10
-1.27293e-08
-1.57189e-08
-6.62036e-09
3.99772e-09
-1.42108e-08
-1.43144e-08
-2.35653e-09
-1.51682e-09
-3.31442e-09
-6.06998e-09
1.0485e-08
-8.23786e-09
-6.1206e-09
3.87347e-09
6.91641e-09
-6.38597e-09
-4.61199e-09
7.02628e-09
-1.27745e-08
-1.42837e-08
-5.74552e-10
4.95723e-09
-1.22146e-08
-2.68019e-09
-2.10522e-10
-5.91088e-09
6.21042e-09
-8.89992e-11
-4.74176e-09
4.85083e-09
-3.19575e-10
-1.23139e-09
1.79412e-09
-6.4736e-09
4.48066e-10
-6.42121e-09
-1.6712e-09
3.98073e-09
2.54132e-09
-3.15202e-09
1.27025e-09
2.10582e-10
6.95705e-09
-1.57868e-10
-5.88698e-10
1.77411e-09
-9.01202e-09
9.03204e-09
-9.90694e-10
-6.30379e-09
-3.13846e-09
1.0433e-08
9.9471e-09
1.17795e-09
-3.88191e-09
-1.95551e-09
3.73508e-09
-2.10332e-09
3.23735e-10
3.82372e-09
4.40444e-10
-3.08621e-09
-8.36199e-09
-8.74023e-09
1.07985e-08
-3.0121e-08
4.69796e-09
1.2815e-08
1.2608e-08
-1.71999e-08
-6.74111e-09
2.96532e-08
-5.71224e-09
-2.10239e-09
-2.31119e-09
-2.57074e-08
1.97058e-08
-3.13083e-09
-1.86774e-08
1.21114e-08
1.22923e-08
-1.84877e-08
1.41029e-08
-1.27967e-08
1.86637e-08
8.3971e-09
-8.9433e-09
-2.5846e-09
-6.85451e-09
-1.36435e-09
-7.39162e-09
1.56105e-08
-1.76033e-08
7.47052e-09
1.38681e-08
-1.06914e-08
-1.06472e-08
1.96405e-08
-3.77291e-09
6.05498e-09
-5.16809e-09
1.3216e-08
-1.04203e-08
-5.97915e-09
2.24545e-08
-3.01651e-09
8.95183e-09
7.93277e-09
1.00042e-08
6.61979e-09
1.16954e-08
-6.48853e-09
9.46121e-09
1.84659e-09
-1.35032e-08
5.50191e-09
2.14782e-09
-1.07715e-08
3.12183e-09
9.01436e-09
-7.76656e-09
4.25413e-09
-9.66803e-09
-7.19568e-10
6.66468e-09
3.72295e-09
8.17204e-09
-1.56922e-08
-1.08284e-10
-3.25974e-10
8.84303e-09
-8.40878e-09
-1.38905e-08
1.49217e-08
-1.13951e-09
2.77326e-09
-1.06897e-08
-5.97405e-09
6.92501e-10
-5.09244e-10
8.83111e-09
-1.84254e-08
7.80699e-09
9.89888e-09
-1.6008e-09
1.45472e-08
1.97532e-09
2.00084e-08
4.73611e-09
-1.65724e-08
1.54647e-08
1.12084e-08
2.02513e-08
-1.2742e-08
2.09162e-09
1.65589e-08
1.29406e-09
-2.4529e-09
1.17008e-08
-1.0542e-08
8.83712e-09
-4.34698e-10
-7.10833e-09
1.51034e-08
-1.54059e-08
-2.3311e-09
9.12591e-09
8.61103e-09
-5.61103e-09
-1.34288e-09
-8.45195e-09
9.83474e-09
-1.01641e-08
-5.28165e-09
-2.48931e-09
9.21418e-09
3.10986e-09
1.22218e-08
7.7566e-09
-6.45157e-09
-1.35268e-08
3.76745e-09
5.965e-09
6.55047e-09
4.80147e-12
1.20132e-09
8.53958e-09
-1.38474e-09
-5.4829e-09
-1.67195e-09
2.11575e-09
4.09272e-09
-4.23163e-09
-1.01697e-08
4.23721e-09
3.56417e-09
1.47759e-08
1.52526e-09
-1.22085e-08
5.524e-09
-3.81095e-10
1.40756e-09
3.63805e-09
7.72788e-09
-5.84193e-09
-4.31321e-09
2.92119e-09
1.01093e-09
3.41837e-09
-6.20631e-09
-3.93015e-09
2.88863e-09
2.44788e-09
-4.15742e-09
5.12791e-09
-5.06755e-09
7.83312e-10
3.54089e-10
-4.00441e-09
4.6001e-09
-4.14668e-09
3.29897e-10
9.07987e-09
8.53405e-11
-1.39326e-08
7.33623e-09
5.76088e-09
-1.191e-08
6.23446e-09
-6.88275e-09
2.27825e-08
7.24926e-09
3.67432e-09
3.01204e-08
-6.98017e-09
-1.06133e-08
1.32419e-08
-7.69019e-09
-4.05159e-09
-1.68248e-10
-3.09508e-09
1.91648e-08
-5.79897e-09
-1.02707e-08
-7.80699e-09
-1.58473e-08
-9.56699e-09
-2.2841e-09
8.24611e-09
4.03595e-09
-1.02832e-08
7.91596e-09
-7.21177e-09
-7.99884e-09
1.27798e-09
-1.00203e-08
-4.88167e-09
-1.20682e-08
-2.26652e-09
5.49094e-09
6.55292e-09
-1.98508e-08
-1.23763e-08
-1.42606e-08
-3.30519e-09
-1.7728e-08
-2.89173e-09
5.88631e-09
-1.97807e-08
1.67861e-08
1.81109e-09
-1.18389e-08
7.13608e-09
-4.08598e-09
-3.1503e-09
-1.81181e-08
2.53544e-08
8.55546e-09
-1.08304e-08
-1.8315e-08
2.1051e-08
-9.91387e-09
2.14831e-08
-6.56105e-09
-5.00816e-09
-1.25033e-08
6.18345e-09
1.81535e-09
4.5045e-09
-1.38065e-08
-8.61076e-09
2.26813e-09
3.44483e-09
1.57701e-08
1.69978e-09
-2.37146e-08
2.23419e-09
-1.18953e-08
-1.25466e-08
6.3238e-09
-2.0376e-08
3.76081e-09
1.14258e-08
1.44158e-08
-2.20049e-08
-3.83674e-09
1.39281e-08
-9.06328e-09
4.30092e-09
3.49046e-09
-1.64908e-08
-1.07143e-08
-2.16503e-09
-2.06451e-08
-1.22775e-08
-2.99886e-09
-3.23053e-09
-7.6408e-09
-1.18489e-08
-2.14441e-09
-1.86921e-09
8.86064e-09
-4.84711e-09
-6.37619e-09
-5.412e-09
9.64374e-09
-5.83716e-09
3.70796e-09
-4.24702e-09
-5.93821e-09
9.08163e-09
3.93036e-09
-1.57058e-08
-6.63214e-09
8.58529e-09
1.75479e-09
7.47253e-09
-1.01743e-08
4.29235e-09
-3.06509e-09
-1.34967e-08
1.22694e-08
-3.78852e-10
-1.19748e-08
1.6646e-08
3.93632e-09
-1.76906e-09
6.41805e-09
-1.60741e-09
1.1975e-08
-1.28601e-09
8.91611e-09
-3.05099e-09
3.75132e-09
-7.57727e-09
7.60867e-10
-7.99506e-09
1.09526e-08
-3.33637e-09
-8.88887e-09
-8.26294e-09
3.65509e-09
-8.88867e-09
-3.85866e-09
8.82348e-09
-1.21351e-09
-6.19647e-09
4.85736e-09
-2.74511e-08
-5.84602e-09
2.64418e-08
-1.14181e-08
-1.05244e-08
-5.50866e-09
2.24918e-08
-2.00584e-08
-1.38514e-08
-2.02644e-10
1.68484e-08
-1.88578e-08
1.40288e-08
4.62637e-09
-1.52242e-08
-1.32647e-08
1.44697e-08
5.85273e-09
-6.01677e-09
-1.43057e-08
-4.20875e-09
1.82549e-09
-1.35386e-08
-8.34534e-09
-1.18692e-08
-5.16305e-09
1.59012e-08
5.54931e-10
-1.06034e-08
7.62769e-09
4.06477e-09
1.21348e-09
5.6226e-09
-1.79477e-08
2.96068e-09
-9.20734e-09
9.77974e-09
-6.26413e-09
5.98499e-09
1.14225e-08
3.08383e-10
-1.99659e-08
2.94578e-08
-9.80034e-09
-1.77785e-08
2.62228e-08
-8.13593e-09
1.00282e-08
2.25822e-09
-1.058e-09
-1.12284e-08
4.92219e-09
9.28774e-09
-4.18178e-09
1.89084e-09
-2.47731e-09
-1.71921e-08
-1.56436e-09
-1.65107e-08
1.06475e-08
-9.9536e-09
1.58749e-08
-3.05199e-10
1.81161e-08
8.80351e-09
2.5382e-09
2.57831e-08
-4.39837e-11
4.8368e-10
2.93012e-08
1.22934e-08
-1.58287e-08
-1.41898e-08
-5.3121e-09
1.16915e-08
7.81039e-09
1.01406e-08
3.94088e-09
8.87556e-10
-1.23039e-08
6.79307e-09
-4.82829e-11
1.15838e-08
1.64477e-09
4.98884e-09
-1.4179e-09
5.0375e-09
5.05977e-09
8.98144e-10
2.82566e-09
-8.78356e-09
7.10141e-09
4.21385e-09
-9.82956e-09
-1.48567e-09
1.7743e-09
3.78557e-09
-5.00114e-10
4.30459e-09
-3.11299e-09
5.82741e-10
-1.87531e-09
-6.50858e-09
7.84147e-10
7.59985e-09
3.27718e-09
-8.47886e-10
1.2934e-08
6.30083e-10
-7.58104e-09
-5.98293e-09
1.08688e-08
9.16657e-09
2.35604e-09
-9.14267e-10
-4.55473e-09
1.49083e-09
5.55676e-09
-8.35598e-09
-8.41591e-09
1.12152e-08
4.8245e-11
7.86457e-09
1.39127e-08
-2.25969e-09
-4.22576e-09
-3.50011e-09
6.18502e-09
6.4175e-09
-6.50342e-10
-1.19522e-08
-1.61249e-08
2.61012e-11
5.47192e-09
6.13773e-09
-1.60776e-08
-9.68936e-09
5.81212e-09
3.90326e-09
-3.33409e-09
6.21951e-11
-3.84023e-09
-5.77847e-09
5.36538e-09
4.25307e-09
3.31029e-09
-7.80088e-09
-1.8369e-09
-1.26511e-08
3.30359e-09
-9.07192e-09
-4.79172e-09
5.53142e-10
-1.44157e-09
-7.59854e-09
7.55929e-09
-3.7975e-09
-4.34837e-09
-3.13861e-09
-3.72672e-11
7.52425e-09
-5.89154e-09
-2.21803e-11
1.56537e-09
-5.02605e-09
-2.47461e-09
3.0123e-09
4.48835e-09
-4.10003e-09
-1.32677e-09
4.00754e-10
1.07985e-08
-3.50383e-09
-1.23185e-09
-6.06286e-09
1.26797e-09
7.05597e-09
-4.9028e-09
4.77649e-09
1.86763e-09
-5.90837e-09
-1.8508e-09
-3.1133e-09
7.81318e-11
6.46495e-09
-9.05578e-09
2.56865e-09
-5.05784e-09
-1.06252e-08
8.98571e-09
-7.41625e-09
-5.42909e-10
-3.845e-09
-6.23733e-09
-4.15377e-09
-3.45008e-09
-4.63797e-09
1.97903e-10
-5.29562e-09
8.86383e-09
-8.62605e-09
-1.45294e-08
1.05017e-08
-6.23164e-09
-9.52962e-09
-3.95537e-09
-6.0628e-10
-1.22088e-08
6.58341e-09
-4.06875e-09
-2.38253e-09
-1.06396e-09
-2.66443e-09
-3.44308e-09
7.17152e-09
-2.00443e-09
2.93799e-09
-1.9975e-09
1.3092e-09
-6.98045e-09
2.78497e-09
2.8863e-09
4.9866e-09
-6.34184e-09
-8.2527e-10
-4.04202e-09
1.42425e-09
-2.78871e-09
-4.09737e-11
-4.60007e-09
8.9078e-10
-3.32728e-10
2.67043e-09
2.46384e-09
-8.52604e-09
3.39177e-09
2.54953e-09
-4.47916e-09
2.98685e-09
3.17761e-09
-3.70062e-09
2.92202e-10
2.79797e-09
-1.03316e-10
2.16293e-09
9.82599e-09
-3.85354e-09
-8.13536e-09
-1.63991e-09
5.30195e-11
1.22678e-09
1.48385e-08
-1.22989e-09
1.33468e-08
1.12569e-10
5.80185e-09
1.41943e-09
7.61721e-09
1.28236e-08
6.32512e-09
1.58292e-10
1.033e-08
5.10533e-09
1.86775e-08
9.14218e-09
1.04727e-08
1.34382e-08
2.51891e-08
7.69488e-09
8.85021e-09
1.98993e-08
1.23373e-09
-1.03527e-08
1.77143e-09
1.03087e-08
-1.7274e-09
-4.7741e-09
9.04709e-09
-1.46257e-08
4.55698e-09
-1.57375e-08
6.40644e-09
9.20087e-09
-2.79903e-10
-7.14954e-09
-7.51946e-09
5.87727e-09
-4.63744e-09
6.27965e-09
-5.0671e-09
1.02e-08
5.17577e-09
-1.64125e-09
5.62126e-09
5.98466e-09
-8.94714e-09
8.23114e-09
-1.61589e-09
-3.92678e-10
-6.22258e-09
6.65284e-09
1.07792e-08
-4.98633e-09
2.12465e-09
8.73894e-09
1.71367e-09
6.27936e-09
2.20697e-09
7.42534e-09
9.41156e-10
-6.17555e-10
-4.75214e-09
-7.00535e-09
6.56832e-09
5.18917e-09
-3.72483e-09
-4.21283e-09
3.18553e-09
-5.52985e-10
-1.01772e-08
-1.12094e-09
-5.79891e-09
5.78152e-09
1.13833e-09
4.67222e-09
-5.90317e-09
1.10003e-10
-3.78127e-09
-1.52566e-09
1.90741e-09
3.39953e-09
9.28731e-10
-3.77969e-11
2.45773e-09
-8.80963e-09
2.97419e-09
-6.41963e-09
4.62409e-10
3.79344e-09
-1.79557e-09
-4.20041e-10
8.83611e-09
-6.62051e-09
5.23516e-09
-5.7992e-09
7.28656e-09
-5.75213e-09
8.81651e-10
-3.29489e-09
5.16953e-10
4.05328e-09
-7.76176e-09
-1.93611e-08
1.7225e-08
-1.15131e-08
-1.65863e-09
5.28408e-09
-7.4615e-11
1.09461e-08
-1.012e-08
-1.23392e-08
7.50165e-09
6.06499e-09
-2.62043e-09
1.24241e-09
1.25246e-08
1.38792e-08
-2.43064e-08
-2.09741e-09
2.15634e-08
-4.45149e-09
-4.58728e-09
1.38028e-08
-1.26192e-08
-1.79609e-08
2.1804e-09
-4.29092e-10
-6.39454e-09
1.29483e-08
-1.70299e-08
-1.1858e-08
-1.05931e-09
2.42979e-09
-4.4543e-09
3.08383e-09
2.02766e-09
2.20888e-09
-5.29586e-09
1.78386e-09
5.24635e-09
-5.00255e-09
-2.45132e-09
6.66495e-09
-4.57899e-09
-2.64312e-10
3.89014e-10
-3.70417e-09
1.9001e-10
-1.06482e-09
-3.35986e-10
-1.23805e-09
-2.13013e-09
-2.10026e-09
-3.46291e-09
5.2272e-09
8.81872e-09
-9.61308e-09
5.30062e-10
-9.13709e-09
1.55045e-08
-6.63583e-09
-2.38029e-09
1.62122e-09
7.39492e-09
2.06455e-09
3.73909e-10
-9.07428e-09
-2.41597e-09
-3.22877e-09
-5.47217e-09
-9.12135e-10
1.27582e-08
-8.69321e-09
-7.29372e-09
4.95958e-09
-1.33849e-09
-2.72408e-09
-3.98613e-09
-1.10434e-08
4.81621e-09
-9.45622e-10
8.23721e-10
3.32999e-09
1.55611e-09
-6.9868e-11
4.68132e-09
-2.48268e-10
7.97829e-09
-1.11309e-09
-2.18385e-09
1.68607e-09
8.29193e-09
-1.99969e-09
5.04935e-09
-3.32803e-11
1.15888e-08
-1.63935e-08
-2.24772e-09
7.05249e-09
-1.34103e-09
1.33296e-08
-3.99683e-10
-3.02152e-10
5.85096e-09
1.08528e-09
5.84503e-09
-7.17855e-09
6.90896e-09
-6.12581e-09
8.96114e-09
-4.22918e-09
9.46498e-09
-4.61029e-09
4.1065e-09
-1.43606e-09
9.17485e-09
1.72622e-09
2.30025e-10
6.53669e-10
4.16567e-09
7.08591e-09
6.7945e-10
-1.17194e-08
-5.35353e-09
-8.74565e-09
1.77925e-09
4.71875e-09
-9.13101e-09
-1.45456e-09
9.24455e-09
-5.86503e-09
-2.58652e-09
3.45283e-09
-3.4669e-09
4.89779e-09
1.11164e-10
-1.35561e-08
4.0969e-09
-2.63221e-08
-1.85861e-08
3.78449e-08
7.06327e-09
-2.67773e-08
2.04681e-08
-2.00129e-08
1.19887e-08
9.49397e-09
-3.37602e-08
1.67199e-08
-3.15085e-08
6.52848e-09
-8.39469e-09
2.52109e-08
-9.81965e-10
2.55071e-08
-1.06122e-08
-8.5711e-09
8.31433e-09
-6.52867e-10
1.78456e-08
1.27094e-08
-1.38276e-08
1.27085e-08
2.0382e-08
4.75447e-09
2.13534e-08
1.6566e-08
-2.1216e-08
6.01791e-09
-5.43974e-09
2.06378e-08
-1.39754e-08
1.0737e-09
-7.91228e-10
3.23141e-08
-2.5505e-08
2.35083e-08
-4.27053e-09
-6.28112e-09
5.61711e-09
2.20174e-08
-1.32974e-09
1.54306e-08
2.35511e-08
-1.40182e-08
1.67816e-08
2.58769e-08
-7.05318e-09
-6.1316e-09
1.20074e-08
1.17744e-09
-6.57853e-09
-5.05979e-09
5.96987e-09
5.66846e-09
-1.78554e-09
7.13485e-09
-1.20207e-08
6.67129e-09
4.41153e-09
-8.76397e-09
2.56686e-09
3.21552e-09
3.04165e-09
-1.28357e-08
-9.10823e-09
5.27058e-09
-2.56139e-09
8.73773e-09
9.58489e-10
2.98379e-09
-1.13367e-09
-3.50161e-09
-5.67635e-09
6.9736e-11
4.35715e-09
-4.17229e-09
-8.94884e-09
-9.71171e-09
2.0482e-09
7.16036e-09
6.68294e-10
-1.28885e-08
5.08909e-09
1.25152e-11
-1.39964e-08
8.89479e-09
-1.04062e-08
1.29439e-08
2.55137e-09
7.40589e-09
-1.09706e-08
-1.12048e-08
7.045e-09
9.03234e-09
1.09738e-08
-1.02547e-08
-9.75151e-09
1.1988e-08
7.04545e-10
-3.66024e-09
5.30331e-09
-6.8071e-09
1.16771e-08
-1.01733e-08
-7.69801e-09
1.80275e-08
-5.02616e-09
8.71218e-09
3.62375e-09
-1.08759e-08
1.18901e-08
7.24248e-09
2.81249e-09
9.18875e-10
9.0477e-09
1.01828e-08
7.87632e-09
-6.79288e-09
1.13726e-08
-1.76726e-09
1.2538e-08
-1.14546e-08
-2.20602e-09
7.95901e-09
1.22745e-08
-1.40126e-08
-9.09879e-09
1.62569e-08
4.27041e-09
1.9132e-08
-1.17253e-08
2.8557e-08
-1.17486e-08
7.4039e-09
-1.02328e-09
2.21765e-08
3.34593e-09
1.54306e-08
4.09617e-09
-1.59288e-09
1.39865e-08
1.50451e-08
-4.66356e-09
-1.19744e-08
8.66984e-09
6.74332e-10
2.80922e-09
1.05969e-08
2.66498e-09
-1.42101e-08
1.94825e-08
-3.31633e-09
-1.95605e-09
2.42632e-09
1.07896e-08
-1.37493e-08
5.33312e-10
-1.60318e-08
4.24803e-09
-5.83283e-09
1.78913e-08
-1.26886e-09
-7.74994e-09
2.13996e-08
1.39475e-08
-1.17918e-08
-5.47204e-09
-9.37295e-09
4.75177e-10
-4.85151e-09
-5.67327e-09
-1.97315e-08
5.55833e-09
6.39189e-10
1.59424e-08
5.40113e-09
-1.41203e-08
-7.22326e-09
8.34819e-09
4.63959e-09
2.95462e-09
-8.90801e-09
9.03418e-09
8.22202e-09
-3.0317e-09
-1.98929e-08
2.42787e-09
5.7846e-09
8.86073e-09
-1.00057e-08
-4.01394e-09
-2.18485e-09
-1.08934e-09
7.28814e-09
-8.57231e-09
-1.11766e-08
1.5735e-08
2.92402e-09
1.20348e-09
1.34934e-09
-5.47682e-09
-8.03509e-09
5.88662e-09
7.38936e-09
-5.24086e-09
2.6142e-09
8.03084e-09
1.83753e-09
-1.24826e-08
7.10412e-09
-6.09261e-09
1.6027e-09
1.41615e-09
-2.88433e-09
9.78813e-09
-2.23059e-09
4.84244e-09
3.41484e-09
-6.02668e-09
8.68468e-10
-5.28387e-09
5.69685e-09
1.73925e-09
-2.59367e-09
-1.85682e-09
9.48219e-09
-1.31833e-09
-6.30701e-09
2.51367e-09
3.40889e-09
-5.88092e-09
-4.16283e-11
7.14399e-09
-8.6282e-09
3.32172e-09
4.30886e-09
6.68711e-09
-3.852e-09
6.6551e-09
1.67431e-10
-1.60085e-12
1.38666e-09
5.30204e-09
1.75145e-09
9.40492e-09
-8.71234e-10
1.15566e-09
-9.68934e-09
9.1955e-09
9.87604e-09
-9.66661e-09
1.37286e-08
-9.35088e-09
-9.38591e-09
4.97943e-09
1.2194e-08
-9.30989e-09
-2.06839e-09
1.12573e-08
1.20998e-10
-8.44481e-09
-1.0216e-08
9.82434e-09
2.72102e-09
-3.24006e-09
-9.30531e-09
7.10957e-11
7.68486e-09
-1.4898e-09
-3.57339e-09
1.42587e-08
-1.06831e-10
-7.38456e-09
1.02124e-08
-1.1059e-08
1.38701e-08
-1.24229e-08
4.92648e-10
1.26633e-08
4.11829e-10
-1.20967e-08
-3.40681e-09
-9.12292e-09
-1.20583e-08
-2.12964e-09
-5.66023e-09
5.55009e-09
2.23977e-09
-3.59395e-09
1.6032e-09
-1.38882e-10
1.8156e-09
2.36124e-09
-6.85703e-09
3.21167e-09
-4.71049e-09
4.99988e-09
-6.23258e-09
2.82258e-09
-3.48292e-09
-1.70109e-09
3.38936e-09
-8.50734e-11
1.78905e-09
-2.78464e-10
-3.82084e-09
3.03553e-09
4.59497e-09
-5.03015e-11
5.57583e-09
-1.00146e-09
-1.03175e-08
5.74313e-09
1.03846e-09
1.14538e-08
-2.42602e-09
2.37467e-09
3.44071e-09
2.12261e-09
-3.62143e-09
6.44865e-09
8.25054e-09
-9.38883e-10
-5.14676e-09
-2.16491e-09
2.23056e-09
5.17545e-10
5.50243e-09
9.71232e-10
1.15907e-08
-3.99116e-09
2.30886e-09
3.88452e-09
-3.96282e-09
3.15463e-09
3.12144e-11
-3.29017e-09
1.04321e-10
-4.10171e-09
2.05748e-09
4.35308e-09
-1.07654e-09
1.29471e-10
-9.58501e-09
6.91022e-09
3.19233e-09
-3.32251e-09
-7.20137e-09
-6.0894e-09
9.11811e-09
-1.12596e-09
-6.03997e-09
-8.60862e-09
-3.07313e-10
-7.85825e-10
-7.61444e-09
8.24239e-09
-1.06021e-08
-7.80892e-10
1.05972e-08
6.93536e-09
2.13848e-09
-1.9676e-08
-8.43964e-09
7.76057e-09
2.9689e-10
-1.29803e-08
1.19025e-08
-6.14743e-09
-7.35475e-09
6.32653e-10
-2.28993e-09
-1.51607e-08
8.09509e-10
6.99641e-09
-1.20443e-08
1.20791e-08
1.30603e-10
-1.65348e-10
8.08684e-09
-6.41501e-09
-9.0072e-09
7.3354e-09
-4.41792e-10
-8.99676e-09
-1.23599e-08
8.37637e-09
-1.99077e-09
9.12126e-11
-1.01448e-08
-1.52883e-08
-1.86313e-09
-1.36769e-09
-2.84683e-09
3.07271e-09
3.06597e-09
-3.2919e-09
5.68045e-09
2.39116e-09
-1.09185e-08
-3.76959e-09
7.05332e-09
-2.11066e-10
-6.00803e-09
7.9188e-09
6.83827e-09
-7.56574e-09
3.11857e-09
-4.23854e-09
-3.83964e-09
-3.86193e-09
1.19399e-08
-5.30348e-09
-5.89612e-09
6.96094e-09
5.49889e-09
-1.04105e-09
-9.76143e-09
-6.91334e-09
8.57253e-09
-5.26542e-09
-4.44393e-09
5.84734e-09
9.49073e-10
5.59755e-10
-6.77434e-09
6.97804e-09
3.76344e-09
2.03094e-09
-1.27193e-09
1.41188e-09
6.7819e-10
-6.39407e-09
-6.13295e-09
-7.80599e-11
6.34164e-09
-8.71701e-10
-5.17003e-09
-4.09787e-09
2.76121e-09
1.42063e-09
-8.39551e-11
-1.21274e-09
4.25115e-09
-7.13625e-09
4.20937e-09
-1.06126e-08
5.1905e-09
-1.21015e-10
4.13132e-09
-4.08835e-09
1.53416e-09
-7.80871e-09
8.27048e-09
-1.9959e-09
4.19202e-09
1.0335e-10
-7.70691e-09
4.14937e-09
-9.69593e-11
4.16798e-09
-7.23181e-11
8.24585e-09
-1.00468e-08
4.11146e-09
1.27392e-08
-1.29769e-08
-1.7831e-08
1.02727e-08
-3.56039e-10
7.91442e-09
7.34731e-10
-9.88212e-09
-8.68366e-09
-2.01839e-08
9.12761e-09
2.1329e-08
-1.03844e-08
-9.06476e-09
1.29428e-08
-8.39122e-09
-1.44337e-08
5.42733e-09
7.15947e-09
-1.10869e-08
2.62558e-08
-6.04133e-09
-1.60652e-08
2.87415e-09
3.95313e-09
9.23792e-09
-9.10747e-09
-3.24248e-09
-3.71526e-09
1.97865e-08
-6.83273e-09
-2.20613e-08
1.22124e-08
1.04483e-08
-6.51534e-09
-1.14601e-08
-5.43968e-09
-4.12593e-09
-7.50778e-09
-2.24187e-08
-6.99983e-10
3.46892e-09
6.44209e-10
-3.41315e-09
2.37538e-09
-3.23966e-09
1.6429e-10
6.14845e-09
2.56138e-09
-8.30064e-09
-4.09184e-10
4.58443e-10
5.5744e-09
1.15615e-10
3.50554e-09
4.21818e-10
-3.0919e-09
4.08761e-09
4.57869e-09
-2.74904e-09
8.10302e-10
-1.32414e-09
3.26287e-09
-4.0806e-10
3.44074e-11
-6.17313e-10
4.93315e-09
1.15319e-08
2.09695e-09
-1.10675e-08
4.55687e-09
3.88317e-09
-1.39253e-09
4.86284e-09
2.64839e-09
-2.9679e-09
-8.85292e-11
1.61003e-09
4.67955e-09
-5.6449e-09
-6.44629e-10
2.93429e-09
4.76887e-09
-1.60451e-09
1.28707e-09
-3.26251e-09
-9.92438e-10
-1.01012e-09
3.77593e-09
1.68493e-10
-5.52871e-10
4.22234e-09
-2.7686e-10
-7.3677e-09
9.74152e-09
-4.63469e-09
1.83102e-08
-6.2485e-09
4.81733e-10
-1.25434e-08
7.65421e-10
7.06383e-09
1.04809e-08
-1.10087e-08
4.89897e-09
6.87519e-09
-5.20727e-09
-4.98931e-09
-8.12144e-10
-6.19417e-09
-5.26158e-09
-1.51944e-08
6.90237e-09
1.53558e-08
-4.77202e-09
-9.94062e-09
-9.97788e-09
1.20068e-08
-6.80093e-09
1.20543e-08
-2.37953e-09
-1.96527e-08
-1.10539e-08
9.0353e-09
-2.97066e-09
-4.62896e-09
-1.26192e-08
3.81735e-09
-1.23155e-08
-1.97882e-09
1.04769e-08
-1.37009e-09
1.20898e-08
-1.75228e-08
1.72142e-08
8.6357e-11
-5.55489e-09
-1.5651e-08
7.65544e-09
1.28945e-08
-5.53511e-09
-1.08057e-09