/*--------------------------------*- C++ -*----------------------------------*\
| =========                 |                                                 |
| \\      /  F ield         | OpenFOAM: The Open Source CFD Toolbox           |
|  \\    /   O peration     | Version:  v1612+                                |
|   \\  /    A nd           | Web:      www.OpenFOAM.com                      |
|    \\/     M anipulation  |                                                 |
\*---------------------------------------------------------------------------*/
FoamFile
{
    version     2.0;
    format      ascii;
    class       volVectorField;
    location    "150";
    object      U;
}
// * * * * * * * * * * * * * * * * * * * * * * * * * * * * * * * * * * * * * //

dimensions      [0 1 -1 0 0 0 0];

internalField   nonuniform List<vector> 
16968
(
(-0.379891 0.4752 -0.890417)
(-0.19393 0.255028 -0.485146)
(-0.313593 0.44043 -0.837972)
(-0.352783 0.44758 -0.836769)
(-0.35221 0.454187 -0.842672)
(-0.357233 0.44235 -0.828303)
(-0.355913 0.461312 -0.853994)
(-0.294867 0.385708 -0.710011)
(-0.317547 0.41084 -0.771746)
(-0.307069 0.396917 -0.741721)
(-0.27861 0.366434 -0.682854)
(-0.350166 0.432506 -0.818029)
(-0.351817 0.44721 -0.837845)
(-0.330084 0.42314 -0.790064)
(-0.284231 0.368269 -0.683426)
(-0.314387 0.405333 -0.760485)
(-0.29879 0.381101 -0.709017)
(-0.26327 0.411561 -0.875473)
(-0.263507 0.40918 -0.863495)
(-0.267366 0.416549 -0.904985)
(-0.281758 0.435836 -0.923471)
(-0.297385 0.443346 -0.991714)
(-0.305504 0.443095 -0.927097)
(-0.307208 0.439264 -0.961827)
(-0.250767 0.406932 -0.895476)
(-0.225306 0.383122 -0.829621)
(-0.305291 0.452083 -0.98111)
(-0.255669 0.42201 -0.936955)
(-0.287248 0.449891 -1.01031)
(-0.290179 0.455287 -1.02402)
(-0.274808 0.450382 -0.987493)
(-0.37903 0.479502 -0.895726)
(-0.388238 0.489085 -0.922983)
(-0.371853 0.468466 -0.876346)
(-0.404596 0.509375 -0.947492)
(-0.36176 0.468011 -0.869512)
(-0.380282 0.483597 -0.911551)
(-0.362833 0.458472 -0.861114)
(-0.40127 0.499263 -0.948119)
(-0.363049 0.469171 -0.880387)
(-0.402734 0.510481 -0.959593)
(-0.349249 0.449 -0.833491)
(-0.405666 0.5145 -0.981207)
(-0.388027 0.486647 -0.920468)
(-0.360622 0.462823 -0.865802)
(-0.392817 0.476297 -0.895371)
(-0.380819 0.457725 -0.861577)
(-0.301419 0.370896 -0.692965)
(-0.334739 0.416015 -0.771101)
(-0.341259 0.415703 -0.773574)
(-0.384032 0.463507 -0.871524)
(-0.371006 0.451559 -0.849469)
(-0.378963 0.45748 -0.860811)
(-0.384696 0.466183 -0.874678)
(-0.287183 0.34938 -0.658723)
(-0.329735 0.396823 -0.746004)
(-0.365156 0.449445 -0.831874)
(-0.356573 0.433185 -0.811231)
(-0.324658 0.39524 -0.732681)
(-0.296406 0.367786 -0.679666)
(-0.354185 0.43121 -0.802093)
(-0.353609 0.433713 -0.809784)
(-0.307396 0.370542 -0.697823)
(-0.32298 0.38526 -0.724641)
(-0.324375 0.393032 -0.737996)
(-0.0331002 0.298058 -0.780785)
(-0.0560605 0.323469 -0.827553)
(-0.0736922 0.299821 -0.744265)
(-0.0600685 0.309764 -0.759102)
(-0.0288561 0.276447 -0.643336)
(-0.0104146 0.252802 -0.57296)
(-0.0175337 0.28127 -0.66077)
(-0.362266 0.441243 -0.818057)
(-0.366666 0.447598 -0.82742)
(-0.378742 0.46367 -0.866009)
(-0.391102 0.477062 -0.890187)
(-0.341456 0.416789 -0.775365)
(-0.354214 0.43362 -0.805823)
(-0.329405 0.417472 -0.754494)
(-0.359174 0.435604 -0.806015)
(-0.35632 0.436799 -0.811666)
(-0.388968 0.473363 -0.880808)
(-0.366356 0.432516 -0.813537)
(-0.228042 0.324928 -0.814272)
(-0.248039 0.373348 -0.881406)
(-0.254099 0.394257 -0.891783)
(-0.196994 0.310272 -0.822822)
(-0.219907 0.33044 -0.837589)
(-0.247766 0.41144 -0.979591)
(-0.259548 0.417098 -0.989086)
(-0.265919 0.423916 -0.982403)
(-0.231821 0.371791 -0.919082)
(-0.241354 0.394087 -0.902061)
(-0.250612 0.412289 -0.98395)
(-0.209847 0.371703 -0.925439)
(-0.203348 0.34865 -0.897542)
(-0.213536 0.340047 -0.906952)
(-0.193731 0.316867 -0.832595)
(-0.236478 0.377412 -0.946034)
(-0.103418 0.357105 -0.830269)
(-0.141727 0.372234 -0.871547)
(-0.0900107 0.348267 -0.878183)
(-0.0272677 0.309887 -0.787917)
(-0.0206922 0.311311 -0.764799)
(-0.164227 0.383809 -0.926793)
(-0.0244301 0.301453 -0.749848)
(-0.0832918 0.329341 -0.818226)
(-0.0967843 0.336865 -0.88596)
(-0.0210382 0.299557 -0.806321)
(0.00278859 0.278163 -0.736998)
(-0.011681 0.293522 -0.721069)
(-0.139431 0.354755 -0.910919)
(-0.00943101 0.293919 -0.79335)
(0.0281994 0.275108 -0.674463)
(-0.0711634 0.321501 -0.831166)
(-0.356321 0.480041 -0.98579)
(-0.35737 0.477663 -0.991608)
(-0.350261 0.466578 -0.976618)
(-0.336692 0.453921 -0.966905)
(-0.383109 0.517026 -1.04586)
(-0.37797 0.513697 -1.03733)
(-0.356659 0.48518 -1.0147)
(-0.357426 0.492672 -1.01572)
(-0.337314 0.447021 -0.956101)
(-0.325566 0.45256 -0.979426)
(-0.364337 0.468056 -0.974307)
(-0.384873 0.510612 -1.04376)
(-0.367905 0.49797 -1.00775)
(-0.381648 0.517915 -1.02903)
(-0.367054 0.502932 -1.03062)
(-0.380929 0.514805 -1.06158)
(-0.26389 0.313855 -0.591273)
(-0.250039 0.3001 -0.584865)
(-0.248618 0.307514 -0.575869)
(-0.218765 0.263368 -0.504934)
(-0.25621 0.312948 -0.601028)
(-0.32098 0.391336 -0.725528)
(-0.240555 0.2881 -0.549246)
(-0.263779 0.323389 -0.607416)
(-0.263428 0.330342 -0.616611)
(-0.257581 0.317575 -0.605468)
(-0.364405 0.4394 -0.827499)
(-0.327259 0.392954 -0.737308)
(-0.31194 0.3698 -0.700598)
(-0.31017 0.378725 -0.708563)
(-0.367007 0.447421 -0.829748)
(-0.365938 0.451195 -0.836709)
(-0.314723 0.392048 -0.726261)
(-0.0786649 0.236986 -0.509664)
(-0.055839 0.21449 -0.445705)
(-0.0116741 0.181742 -0.399312)
(-0.0762115 0.243167 -0.488249)
(-0.0554519 0.203837 -0.406505)
(-0.0230541 0.179357 -0.379299)
(-0.0775491 0.231842 -0.469006)
(-0.126552 0.280282 -0.586134)
(-0.139881 0.277389 -0.61623)
(-0.130111 0.278622 -0.582502)
(-0.0383074 0.20852 -0.428469)
(-0.0602022 0.228078 -0.475196)
(-0.0646662 0.239581 -0.532626)
(-0.0331912 0.207324 -0.468191)
(-0.129254 0.289151 -0.626953)
(-0.123074 0.275301 -0.602438)
(-0.117342 0.269988 -0.58231)
(-0.0625339 0.236063 -0.511555)
(-0.295151 0.406507 -0.750982)
(-0.275704 0.378754 -0.697971)
(-0.306271 0.404978 -0.751716)
(-0.27665 0.371392 -0.684377)
(-0.292714 0.389648 -0.730501)
(-0.283581 0.384648 -0.720978)
(-0.29924 0.406419 -0.763825)
(-0.293056 0.383994 -0.712838)
(-0.32368 0.412332 -0.774182)
(-0.315264 0.417103 -0.775902)
(-0.305947 0.400203 -0.758637)
(-0.35569 0.463195 -0.876632)
(-0.347806 0.452453 -0.856901)
(-0.346208 0.451329 -0.843683)
(-0.345193 0.455636 -0.846223)
(-0.341181 0.48013 -0.931054)
(-0.299658 0.448029 -0.861325)
(-0.324873 0.463833 -0.894741)
(-0.286132 0.436131 -0.831423)
(-0.301588 0.439499 -0.853785)
(-0.342552 0.485305 -0.945494)
(-0.339664 0.485229 -0.934673)
(-0.352421 0.490289 -0.988423)
(-0.330594 0.475945 -0.915961)
(-0.292902 0.440513 -0.880277)
(-0.284371 0.419835 -0.834981)
(-0.301917 0.457198 -0.921115)
(-0.286463 0.438086 -0.869065)
(-0.341995 0.490141 -0.974764)
(-0.339556 0.483474 -0.937467)
(-0.337396 0.483031 -0.936544)
(-0.296755 0.455799 -1.00557)
(-0.260373 0.416291 -0.945698)
(-0.293995 0.460687 -1.0544)
(-0.298304 0.467566 -1.06347)
(-0.277943 0.44431 -1.0756)
(-0.286786 0.470419 -1.04464)
(-0.324412 0.482253 -1.07971)
(-0.331424 0.472897 -1.04133)
(-0.286324 0.428163 -1.00165)
(-0.295926 0.450109 -0.983343)
(-0.272771 0.419856 -0.938617)
(-0.293671 0.437715 -0.99981)
(-0.330456 0.485565 -1.05232)
(-0.320915 0.476618 -1.0493)
(-0.358335 0.490186 -0.949948)
(-0.354475 0.486801 -0.967653)
(-0.35303 0.479136 -0.958804)
(-0.358419 0.483379 -0.942456)
(-0.351812 0.445115 -0.899377)
(-0.331073 0.423614 -0.848097)
(-0.340697 0.433964 -0.899246)
(-0.31316 0.404513 -0.819522)
(-0.297505 0.390229 -0.83038)
(-0.305607 0.409536 -0.839643)
(-0.341565 0.427346 -0.909545)
(-0.320805 0.427032 -0.908202)
(-0.331914 0.422793 -0.892868)
(-0.305116 0.40042 -0.826974)
(-0.330276 0.454365 -0.947815)
(-0.337635 0.468917 -0.944807)
(-0.328695 0.440341 -0.934038)
(-0.344393 0.451389 -0.941533)
(-0.321842 0.425487 -0.857498)
(-0.318723 0.419226 -0.846437)
(-0.356337 0.467076 -0.938797)
(-0.345059 0.43538 -0.896761)
(-0.317877 0.41708 -0.841156)
(-0.318965 0.419138 -0.857913)
(0.0483344 0.261715 -0.664311)
(0.0775634 0.255772 -0.597814)
(0.0670528 0.272094 -0.652333)
(0.100002 0.232453 -0.558689)
(0.065512 0.258001 -0.56782)
(0.0783536 0.240582 -0.542202)
(0.0190766 0.249342 -0.548192)
(0.00747579 0.280578 -0.641545)
(-0.0298012 0.30596 -0.791178)
(0.0327442 0.277062 -0.679153)
(0.04079 0.230213 -0.520897)
(-0.0143574 0.281949 -0.609627)
(-0.0702307 0.315122 -0.756009)
(-0.049466 0.326208 -0.762396)
(-0.030251 0.309198 -0.796031)
(-0.275374 0.457779 -1.07096)
(-0.271391 0.454482 -1.08433)
(-0.2349 0.435526 -1.10324)
(-0.260085 0.461944 -1.11625)
(-0.262504 0.478469 -1.0989)
(-0.290061 0.485247 -1.0901)
(-0.269236 0.458133 -1.11753)
(-0.268056 0.466935 -1.09652)
(-0.27001 0.454654 -1.03978)
(-0.256816 0.449751 -1.04769)
(-0.274533 0.449176 -1.0419)
(-0.240438 0.44166 -1.08432)
(-0.274901 0.453058 -1.10528)
(-0.303131 0.492229 -1.09069)
(-0.262631 0.450009 -1.04472)
(-0.263584 0.450292 -1.03924)
(-0.25133 0.432721 -1.0416)
(-0.264678 0.462159 -1.09532)
(-0.237286 0.446816 -1.03379)
(-0.230378 0.348457 -0.806602)
(-0.244986 0.382978 -0.852186)
(-0.255824 0.385247 -0.879133)
(-0.278831 0.425073 -0.973717)
(-0.251512 0.405612 -0.881053)
(-0.204861 0.340541 -0.777109)
(-0.218583 0.390213 -0.931907)
(-0.190542 0.355893 -0.894237)
(-0.224931 0.342481 -0.813529)
(-0.239933 0.40272 -0.919224)
(-0.209229 0.355706 -0.826844)
(-0.14616 0.352425 -0.72115)
(-0.111947 0.324678 -0.661417)
(-0.123524 0.335396 -0.702907)
(-0.107243 0.313178 -0.648942)
(-0.15277 0.345409 -0.691411)
(-0.140975 0.336337 -0.708105)
(-0.155771 0.367192 -0.739558)
(-0.16348 0.360292 -0.728522)
(-0.120893 0.341398 -0.695572)
(-0.16873 0.356745 -0.729518)
(-0.20631 0.407069 -0.851853)
(-0.191518 0.387852 -0.813867)
(-0.220441 0.407216 -0.805906)
(-0.193923 0.38276 -0.777995)
(-0.229348 0.398329 -0.819468)
(-0.233452 0.412549 -0.839922)
(-0.180832 0.365866 -0.745383)
(-0.224437 0.41112 -0.825651)
(-0.248045 0.419078 -0.845296)
(-0.230061 0.411423 -0.861124)
(-0.194371 0.397823 -0.807734)
(-0.198353 0.281177 -0.718952)
(-0.170395 0.234723 -0.629803)
(-0.213291 0.316544 -0.764084)
(-0.223641 0.310101 -0.742758)
(-0.271097 0.395247 -0.896956)
(-0.244219 0.362699 -0.851928)
(-0.193537 0.275387 -0.69139)
(-0.162157 0.226758 -0.640528)
(-0.252179 0.374917 -0.843283)
(-0.239055 0.367504 -0.841543)
(-0.26479 0.373824 -0.876872)
(-0.168832 0.230239 -0.683333)
(-0.143826 0.207052 -0.630911)
(-0.169243 0.233668 -0.643671)
(-0.207745 0.288875 -0.714031)
(-0.25187 0.355915 -0.814771)
(-0.256925 0.365289 -0.855058)
(-0.217428 0.347817 -0.83798)
(-0.207608 0.319911 -0.826155)
(-0.175257 0.26413 -0.729788)
(-0.161229 0.230226 -0.702265)
(-0.190196 0.275871 -0.728389)
(-0.185769 0.276266 -0.720596)
(-0.243708 0.313498 -0.63354)
(-0.206271 0.278965 -0.568161)
(-0.209 0.275935 -0.581242)
(-0.195051 0.268972 -0.54477)
(-0.281873 0.36355 -0.732531)
(-0.307511 0.387069 -0.770345)
(-0.339769 0.443864 -0.862899)
(-0.333866 0.417141 -0.829043)
(-0.281922 0.357546 -0.716704)
(-0.295635 0.381664 -0.757643)
(-0.312475 0.385335 -0.765891)
(-0.287185 0.359885 -0.702728)
(-0.330065 0.421237 -0.831223)
(-0.338487 0.432216 -0.841036)
(-0.216763 0.290538 -0.575994)
(-0.223616 0.294791 -0.587398)
(-0.296576 0.389225 -0.7415)
(-0.257546 0.353559 -0.70345)
(-0.300436 0.390227 -0.79092)
(-0.324705 0.431369 -0.830389)
(-0.320404 0.400648 -0.78606)
(-0.316081 0.400894 -0.776114)
(-0.243176 0.323914 -0.636779)
(-0.275292 0.338963 -0.638589)
(-0.241317 0.300779 -0.583652)
(-0.292563 0.357476 -0.678433)
(-0.227511 0.291666 -0.557513)
(-0.218006 0.276145 -0.53589)
(-0.192255 0.252945 -0.480843)
(-0.304314 0.368597 -0.703216)
(-0.305565 0.386785 -0.724629)
(-0.263369 0.335667 -0.63116)
(-0.264866 0.331958 -0.634691)
(-0.214111 0.26929 -0.517922)
(-0.214266 0.27075 -0.504356)
(-0.235451 0.297164 -0.560204)
(-0.307435 0.383502 -0.729187)
(-0.213167 0.272035 -0.509651)
(-0.426284 0.52857 -0.982688)
(-0.416473 0.517551 -0.969324)
(-0.428617 0.523717 -0.980289)
(-0.413624 0.513003 -0.956242)
(-0.427569 0.526993 -0.985941)
(-0.419751 0.513958 -0.962012)
(-0.431584 0.538234 -1.00201)
(-0.40151 0.500614 -0.930336)
(-0.36552 0.44911 -0.83066)
(-0.411987 0.501569 -0.936519)
(-0.370478 0.455023 -0.850263)
(-0.388711 0.480774 -0.900842)
(-0.408727 0.505322 -0.942796)
(-0.402046 0.496809 -0.933062)
(-0.367761 0.457415 -0.852054)
(-0.374648 0.469763 -0.878027)
(-0.412112 0.512213 -0.957168)
(-0.383052 0.478834 -0.898038)
(-0.39035 0.485227 -0.90207)
(-0.0502591 0.303567 -0.865624)
(-0.0306926 0.285143 -0.843221)
(-0.109284 0.340446 -0.935251)
(-0.143408 0.366655 -0.948604)
(-0.00335521 0.244483 -0.844821)
(-0.0436414 0.260545 -0.88283)
(-0.0753274 0.280813 -0.902583)
(-0.0139151 0.284133 -0.854153)
(-0.0977591 0.368461 -0.917442)
(-0.0518234 0.271696 -0.90721)
(-0.153425 0.393323 -1.02615)
(-0.139351 0.387764 -1.0279)
(-0.132638 0.364899 -0.996449)
(-0.106071 0.356371 -0.992707)
(-0.0244079 0.316571 -0.900976)
(0.0157257 0.287297 -0.882582)
(-0.102661 0.366208 -0.993059)
(-0.276062 0.342902 -0.645101)
(-0.290336 0.376226 -0.688181)
(-0.314499 0.397357 -0.739123)
(-0.305931 0.402364 -0.739072)
(-0.295794 0.376966 -0.690635)
(-0.291891 0.368286 -0.682094)
(-0.288577 0.369336 -0.702824)
(-0.218215 0.279813 -0.523956)
(-0.219938 0.284732 -0.53526)
(-0.29666 0.373249 -0.685211)
(-0.289598 0.380405 -0.698637)
(-0.261962 0.337738 -0.624193)
(-0.274043 0.357957 -0.663845)
(-0.279207 0.360089 -0.691532)
(-0.217724 0.28794 -0.529807)
(-0.215414 0.281783 -0.523032)
(-0.199881 0.277163 -0.498372)
(-0.206848 0.268729 -0.489934)
(-0.193268 0.232975 -0.45221)
(-0.204134 0.251352 -0.485264)
(-0.195557 0.240732 -0.440388)
(-0.264061 0.335915 -0.64262)
(-0.225956 0.332549 -0.746725)
(-0.220828 0.307376 -0.715169)
(-0.274784 0.39988 -0.900594)
(-0.304528 0.465432 -1.016)
(-0.247418 0.365418 -0.836348)
(-0.227588 0.307934 -0.71949)
(-0.292218 0.403739 -0.891943)
(-0.274486 0.416854 -0.875628)
(-0.251259 0.39254 -0.854071)
(-0.270906 0.419999 -0.911476)
(-0.253669 0.389602 -0.875752)
(-0.221059 0.335214 -0.736904)
(-0.217757 0.32028 -0.704624)
(-0.249269 0.3549 -0.813336)
(-0.277666 0.381643 -0.86926)
(-0.267753 0.396291 -0.860859)
(-0.245746 0.363729 -0.793579)
(-0.261584 0.366768 -0.803333)
(-0.357501 0.461656 -0.876988)
(-0.321958 0.415591 -0.788158)
(-0.362425 0.46787 -0.888425)
(-0.322825 0.417757 -0.782968)
(-0.380836 0.482874 -0.91764)
(-0.343748 0.4256 -0.792308)
(-0.315078 0.391767 -0.735175)
(-0.327448 0.400915 -0.77193)
(-0.325952 0.403493 -0.777656)
(-0.368771 0.4689 -0.879591)
(-0.376026 0.483975 -0.913005)
(-0.388979 0.499004 -0.931616)
(-0.398451 0.491506 -0.924131)
(-0.375868 0.478088 -0.896648)
(-0.354721 0.456602 -0.874206)
(-0.366938 0.46239 -0.871727)
(-0.320809 0.414042 -0.769657)
(-0.389213 0.496758 -0.931566)
(-0.37578 0.483915 -0.903661)
(-0.370036 0.471477 -0.879293)
(-0.280574 0.352542 -0.69037)
(-0.297261 0.380878 -0.727408)
(-0.262327 0.324139 -0.624938)
(-0.325178 0.440791 -0.81494)
(-0.323604 0.399912 -0.7565)
(-0.279149 0.371382 -0.703816)
(-0.298697 0.373413 -0.73135)
(-0.28518 0.375641 -0.732244)
(-0.309483 0.403104 -0.787393)
(-0.269049 0.340805 -0.662888)
(-0.306023 0.403318 -0.771702)
(-0.290632 0.378082 -0.743007)
(-0.268478 0.363685 -0.705139)
(-0.270618 0.357444 -0.712274)
(-0.317481 0.410878 -0.792306)
(-0.325288 0.437716 -0.833437)
(-0.250637 0.316055 -0.659438)
(-0.285019 0.359684 -0.699727)
(-0.287701 0.374032 -0.731662)
(-0.407807 0.516234 -0.963918)
(-0.41199 0.515155 -0.974687)
(-0.401536 0.504296 -0.948662)
(-0.401755 0.508828 -0.948138)
(-0.379847 0.480079 -0.900631)
(-0.409903 0.514016 -0.958294)
(-0.373811 0.465338 -0.880049)
(-0.360507 0.46175 -0.865062)
(-0.404788 0.498938 -0.937612)
(-0.376013 0.473207 -0.885898)
(-0.349194 0.442195 -0.824168)
(-0.34571 0.444211 -0.827863)
(-0.40082 0.502429 -0.939472)
(-0.401219 0.499104 -0.935999)
(-0.379182 0.479541 -0.896886)
(-0.350359 0.445846 -0.835753)
(-0.354116 0.444331 -0.836574)
(-0.376177 0.498699 -0.960427)
(-0.37497 0.506921 -0.974066)
(-0.33988 0.473784 -0.901059)
(-0.320065 0.449374 -0.847246)
(-0.369395 0.489731 -0.941943)
(-0.369455 0.485044 -0.938569)
(-0.351931 0.473077 -0.896056)
(-0.338631 0.467614 -0.898712)
(-0.37445 0.503837 -0.970793)
(-0.356541 0.493421 -0.961922)
(-0.372752 0.505058 -0.992152)
(-0.353714 0.476047 -0.919351)
(-0.335577 0.458746 -0.881328)
(-0.344985 0.464722 -0.873992)
(-0.324077 0.445867 -0.877204)
(-0.346558 0.48117 -0.925865)
(-0.319399 0.457102 -0.865522)
(-0.311682 0.444713 -0.860543)
(-0.328234 0.463304 -0.881596)
(-0.317496 0.454494 -0.866055)
(-0.166983 0.251195 -0.73893)
(-0.197442 0.319222 -0.854057)
(-0.124261 0.192994 -0.684921)
(-0.106899 0.159083 -0.621412)
(-0.151412 0.227159 -0.759184)
(-0.116773 0.174453 -0.672168)
(-0.223985 0.322569 -0.860819)
(-0.208568 0.320372 -0.853834)
(-0.117704 0.175082 -0.618842)
(-0.147587 0.243244 -0.764065)
(-0.177877 0.261314 -0.773479)
(-0.15384 0.205282 -0.694692)
(-0.186937 0.294604 -0.835482)
(-0.17093 0.25583 -0.743311)
(-0.203317 0.308307 -0.701031)
(-0.231575 0.341943 -0.793419)
(-0.260658 0.38148 -0.836816)
(-0.180997 0.294598 -0.701153)
(-0.163998 0.267566 -0.65954)
(-0.145062 0.199953 -0.564015)
(-0.174315 0.271107 -0.667024)
(-0.258546 0.359426 -0.813435)
(-0.180907 0.251269 -0.639157)
(-0.133876 0.202053 -0.572536)
(-0.197749 0.271871 -0.669819)
(-0.139862 0.230812 -0.636631)
(-0.255902 0.311109 -0.581116)
(-0.254014 0.306177 -0.574152)
(-0.222777 0.270246 -0.522209)
(-0.209967 0.249401 -0.496422)
(-0.246595 0.29532 -0.560508)
(-0.243691 0.299365 -0.554336)
(-0.233676 0.277814 -0.519503)
(-0.237906 0.288784 -0.545612)
(-0.22184 0.275569 -0.510945)
(-0.312581 0.380449 -0.695306)
(-0.301827 0.367209 -0.690091)
(-0.313798 0.383265 -0.705961)
(-0.292093 0.354759 -0.669671)
(-0.225185 0.268056 -0.516463)
(-0.22513 0.273708 -0.513933)
(-0.31593 0.384272 -0.725256)
(-0.299474 0.363842 -0.683146)
(-0.311926 0.376234 -0.704651)
(-0.233558 0.292808 -0.53491)
(-0.30537 0.365594 -0.68691)
(-0.253478 0.311239 -0.577492)
(-0.25719 0.313445 -0.587499)
(-0.253116 0.319921 -0.590411)
(-0.226171 0.293292 -0.537339)
(-0.265615 0.325217 -0.623972)
(-0.298688 0.38442 -0.710364)
(-0.23257 0.294929 -0.535267)
(-0.209545 0.269685 -0.478329)
(-0.25097 0.31586 -0.579341)
(-0.252539 0.316941 -0.581591)
(-0.232792 0.290662 -0.534398)
(-0.228413 0.291138 -0.53411)
(-0.209209 0.260922 -0.477247)
(-0.325235 0.401784 -0.76154)
(-0.260015 0.330973 -0.617475)
(-0.21855 0.276154 -0.499282)
(-0.321666 0.397281 -0.727398)
(-0.310415 0.373475 -0.691869)
(-0.331512 0.406526 -0.74432)
(-0.320882 0.390624 -0.716572)
(-0.329588 0.40375 -0.737677)
(-0.378897 0.462458 -0.853681)
(-0.315624 0.38422 -0.720114)
(-0.392159 0.476735 -0.888539)
(-0.382345 0.464633 -0.853568)
(-0.395149 0.477173 -0.886615)
(-0.356364 0.458867 -0.890777)
(-0.358496 0.461201 -0.882429)
(-0.328874 0.423342 -0.803046)
(-0.340517 0.436096 -0.860149)
(-0.302727 0.403618 -0.756627)
(-0.360805 0.469632 -0.898891)
(-0.367368 0.481443 -0.9172)
(-0.318937 0.404393 -0.775776)
(-0.292632 0.382158 -0.733819)
(-0.319592 0.407026 -0.791824)
(-0.297619 0.398121 -0.749479)
(-0.357738 0.471227 -0.914095)
(-0.322126 0.430287 -0.837538)
(-0.307023 0.39954 -0.76147)
(-0.29221 0.366126 -0.738318)
(-0.300694 0.375409 -0.767477)
(-0.287471 0.348994 -0.723383)
(-0.230254 0.291385 -0.620182)
(-0.218646 0.270803 -0.59696)
(-0.21736 0.269118 -0.623527)
(-0.200175 0.253089 -0.577161)
(-0.242541 0.313212 -0.641478)
(-0.226718 0.28389 -0.593893)
(-0.240514 0.304769 -0.654487)
(-0.276446 0.35116 -0.734185)
(-0.279255 0.347379 -0.72931)
(-0.23116 0.278968 -0.62862)
(-0.224093 0.279492 -0.604496)
(-0.237216 0.295184 -0.624235)
(-0.16509 0.335329 -0.990869)
(-0.146955 0.324693 -0.98702)
(-0.136921 0.291051 -0.947106)
(-0.162198 0.334924 -0.963977)
(-0.165304 0.319585 -0.963559)
(-0.137969 0.293472 -0.959253)
(-0.232401 0.410628 -1.05778)
(-0.190569 0.387714 -1.05991)
(-0.190445 0.396402 -1.06504)
(-0.20569 0.397465 -1.0858)
(-0.129634 0.302538 -0.932199)
(-0.222183 0.400346 -1.08247)
(-0.172954 0.365982 -1.00186)
(-0.176856 0.251137 -0.492663)
(-0.169468 0.238639 -0.472204)
(-0.208071 0.291176 -0.584371)
(-0.198227 0.282353 -0.549037)
(-0.174621 0.257085 -0.484079)
(-0.173894 0.249107 -0.473455)
(-0.187634 0.266799 -0.504841)
(-0.190642 0.255744 -0.497199)
(-0.223733 0.317169 -0.615588)
(-0.244379 0.334326 -0.663312)
(-0.239373 0.316859 -0.623343)
(-0.2492 0.350482 -0.658904)
(-0.215728 0.28818 -0.573571)
(-0.244283 0.331451 -0.648681)
(-0.264981 0.365705 -0.711228)
(-0.260029 0.360282 -0.7166)
(-0.222106 0.304811 -0.58766)
(-0.248671 0.337042 -0.645753)
(-0.221989 0.273247 -0.514036)
(-0.202046 0.263078 -0.485535)
(-0.230748 0.288786 -0.542326)
(-0.241753 0.292277 -0.558107)
(-0.238628 0.289643 -0.540276)
(-0.212808 0.25497 -0.478697)
(-0.321896 0.384593 -0.719438)
(-0.307423 0.378252 -0.701578)
(-0.241112 0.296993 -0.549856)
(-0.28639 0.348439 -0.653212)
(-0.264934 0.321479 -0.611524)
(-0.286051 0.348435 -0.655612)
(-0.300954 0.366586 -0.688526)
(-0.28219 0.346723 -0.647953)
(-0.219929 0.266846 -0.498811)
(-0.228098 0.287044 -0.542047)
(-0.323587 0.381726 -0.715715)
(-0.327741 0.39177 -0.724485)
(-0.24656 0.298623 -0.571265)
(-0.237996 0.297877 -0.56298)
(-0.232369 0.287096 -0.538354)
(-0.212832 0.260325 -0.496881)
(-0.326124 0.391444 -0.726996)
(-0.218685 0.269034 -0.511769)
(-0.41394 0.529915 -1.0033)
(-0.421454 0.532136 -0.998871)
(-0.407192 0.510544 -0.960657)
(-0.416431 0.528274 -0.989067)
(-0.424144 0.535105 -1.00541)
(-0.407718 0.524185 -0.992381)
(-0.377678 0.481457 -0.909015)
(-0.368541 0.471176 -0.900658)
(-0.396948 0.505799 -0.954201)
(-0.418146 0.540096 -1.00747)
(-0.410626 0.522356 -0.983856)
(-0.383394 0.503118 -0.950564)
(-0.387866 0.500879 -0.955159)
(-0.367556 0.486519 -0.917443)
(-0.402625 0.513183 -0.971993)
(-0.406053 0.538857 -1.01993)
(-0.398972 0.528871 -1.01504)
(-0.402096 0.515373 -0.975671)
(-0.39377 0.515259 -0.967942)
(-0.377103 0.485038 -0.92945)
(-0.0701968 0.315221 -0.757138)
(-0.113683 0.343248 -0.854084)
(-0.085158 0.293034 -0.669626)
(-0.0584903 0.290249 -0.638114)
(-0.129228 0.359915 -0.882479)
(-0.0734123 0.34112 -0.794979)
(-0.0507776 0.278687 -0.629046)
(-0.0239862 0.25796 -0.582329)
(-0.0399722 0.321254 -0.72986)
(-0.0496834 0.273465 -0.632491)
(-0.0841095 0.296007 -0.679151)
(-0.134595 0.340056 -0.832359)
(-0.127151 0.355646 -0.795836)
(-0.173763 0.393959 -0.920371)
(-0.0361065 0.292609 -0.664272)
(-0.0725447 0.321522 -0.708494)
(-0.370896 0.451703 -0.83336)
(-0.356243 0.428355 -0.793424)
(-0.367397 0.46696 -0.856703)
(-0.355159 0.433296 -0.805745)
(-0.391126 0.47153 -0.882844)
(-0.355794 0.433679 -0.805311)
(-0.377621 0.463881 -0.868578)
(-0.366045 0.442173 -0.829011)
(-0.382797 0.46501 -0.867259)
(-0.392172 0.487779 -0.906214)
(-0.402215 0.490854 -0.914958)
(-0.334707 0.417006 -0.780207)
(-0.39404 0.476702 -0.900943)
(-0.38364 0.470982 -0.875548)
(-0.407646 0.494996 -0.926266)
(-0.411773 0.500452 -0.9369)
(-0.393665 0.486274 -0.911732)
(-0.378742 0.468256 -0.870793)
(-0.377701 0.460524 -0.865382)
(-0.351218 0.432723 -0.808203)
(-0.324987 0.397877 -0.742702)
(-0.31575 0.384364 -0.704924)
(-0.303405 0.363923 -0.67165)
(-0.40642 0.502341 -0.939352)
(-0.38912 0.480804 -0.90193)
(-0.399438 0.483777 -0.908554)
(-0.384773 0.471411 -0.885266)
(-0.385705 0.469499 -0.881516)
(-0.375275 0.455419 -0.859104)
(-0.386259 0.478515 -0.892812)
(-0.403472 0.497762 -0.930036)
(-0.367615 0.446831 -0.83897)
(-0.321152 0.392307 -0.734782)
(-0.318511 0.374927 -0.716721)
(-0.324585 0.396958 -0.744039)
(-0.31582 0.40176 -0.742431)
(-0.374552 0.458993 -0.850482)
(-0.330288 0.396898 -0.753533)
(-0.236005 0.332429 -0.642708)
(-0.288411 0.388165 -0.750311)
(-0.19955 0.308761 -0.602141)
(-0.275644 0.389642 -0.753285)
(-0.271687 0.360406 -0.691623)
(-0.285301 0.378853 -0.71541)
(-0.283053 0.381432 -0.742392)
(-0.279888 0.382395 -0.740631)
(-0.204432 0.279876 -0.569164)
(-0.213776 0.305128 -0.589179)
(-0.185305 0.283329 -0.561766)
(-0.228206 0.332028 -0.671924)
(-0.190324 0.274999 -0.536124)
(-0.239341 0.3255 -0.626518)
(-0.20356 0.297231 -0.578322)
(-0.191997 0.291627 -0.561776)
(-0.211827 0.323105 -0.620208)
(-0.259587 0.370188 -0.70526)
(-0.312533 0.392891 -0.761346)
(-0.287301 0.36213 -0.704195)
(-0.286923 0.361283 -0.679227)
(-0.300835 0.385419 -0.720257)
(-0.306472 0.37212 -0.710923)
(-0.319436 0.396836 -0.746542)
(-0.296334 0.363697 -0.691872)
(-0.280696 0.354391 -0.691796)
(-0.295915 0.379492 -0.744882)
(-0.315596 0.395618 -0.758621)
(-0.3513 0.450084 -0.849639)
(-0.349727 0.44418 -0.832841)
(-0.30198 0.367422 -0.722626)
(-0.33118 0.414574 -0.805806)
(-0.350859 0.441799 -0.837694)
(-0.334166 0.429454 -0.807876)
(-0.186471 0.267498 -0.52934)
(-0.174874 0.263293 -0.515259)
(-0.192188 0.265181 -0.551382)
(-0.187709 0.25134 -0.517292)
(-0.200747 0.283313 -0.55101)
(-0.206967 0.282963 -0.554415)
(-0.145716 0.225208 -0.454776)
(-0.168426 0.219928 -0.478383)
(-0.185572 0.250465 -0.523561)
(-0.164517 0.232461 -0.485863)
(-0.250877 0.343987 -0.659064)
(-0.256942 0.349002 -0.694276)
(-0.16736 0.254537 -0.512515)
(-0.202699 0.288719 -0.572201)
(-0.268177 0.354625 -0.696838)
(-0.196818 0.278736 -0.564368)
(-0.252332 0.320918 -0.595038)
(-0.262733 0.334423 -0.621887)
(-0.293752 0.381177 -0.708655)
(-0.247298 0.317866 -0.585768)
(-0.24542 0.308856 -0.561246)
(-0.249062 0.314588 -0.580152)
(-0.234172 0.305667 -0.554304)
(-0.296125 0.371695 -0.693479)
(-0.297785 0.372491 -0.710671)
(-0.25569 0.329954 -0.595601)
(-0.247189 0.323354 -0.592166)
(-0.28563 0.357235 -0.66234)
(-0.312105 0.386893 -0.735494)
(-0.33453 0.409502 -0.785273)
(-0.346662 0.417908 -0.791925)
(-0.302822 0.378118 -0.705085)
(-0.357668 0.438373 -0.826005)
(-0.281366 0.354218 -0.66379)
(-0.322552 0.404332 -0.75215)
(-0.312523 0.399041 -0.746495)
(-0.320061 0.40064 -0.76037)
(-0.30207 0.358547 -0.683563)
(-0.303292 0.37567 -0.696996)
(-0.277013 0.354473 -0.657818)
(-0.356533 0.433975 -0.821318)
(-0.307152 0.380975 -0.705961)
(-0.322795 0.393258 -0.752141)
(-0.309484 0.378875 -0.709957)
(-0.314545 0.394327 -0.744139)
(-0.138184 0.276231 -0.647592)
(-0.181783 0.312194 -0.720475)
(-0.187485 0.332629 -0.781592)
(-0.201569 0.360434 -0.802657)
(-0.16795 0.27976 -0.682166)
(-0.143264 0.269263 -0.727459)
(-0.158463 0.302166 -0.758763)
(-0.207883 0.347186 -0.815651)
(-0.182517 0.316225 -0.792382)
(-0.0705893 0.186388 -0.581529)
(-0.0820105 0.186609 -0.580975)
(-0.182544 0.304939 -0.725253)
(-0.128518 0.248998 -0.653023)
(-0.147205 0.299124 -0.731728)
(-0.0763519 0.206971 -0.591077)
(-0.236998 0.295429 -0.567684)
(-0.231266 0.297616 -0.556127)
(-0.222631 0.281508 -0.518865)
(-0.247099 0.299936 -0.559348)
(-0.245662 0.303865 -0.582138)
(-0.218552 0.274404 -0.527949)
(-0.236977 0.302652 -0.560744)
(-0.219408 0.264123 -0.507819)
(-0.240048 0.289844 -0.548447)
(-0.230714 0.284269 -0.531111)
(-0.22859 0.293117 -0.547343)
(-0.301216 0.3683 -0.68368)
(-0.292163 0.349359 -0.664323)
(-0.3356 0.428405 -0.787071)
(-0.355757 0.441236 -0.821368)
(-0.379688 0.47265 -0.885104)
(-0.398765 0.496979 -0.937028)
(-0.341808 0.429855 -0.789348)
(-0.339925 0.437324 -0.80726)
(-0.37353 0.468987 -0.877342)
(-0.354615 0.439165 -0.816352)
(-0.349459 0.440939 -0.812979)
(-0.371847 0.462952 -0.860734)
(-0.369673 0.463819 -0.865014)
(-0.367028 0.457431 -0.864988)
(-0.375606 0.471159 -0.882107)
(-0.364284 0.455746 -0.840494)
(-0.374848 0.468455 -0.873547)
(-0.0848113 0.213274 -0.397465)
(-0.074009 0.19452 -0.360342)
(-0.160046 0.279892 -0.563708)
(-0.155665 0.284331 -0.552385)
(-0.0827821 0.220305 -0.419212)
(-0.157081 0.278223 -0.562373)
(-0.0719579 0.188607 -0.33807)
(-0.0659938 0.175252 -0.311201)
(-0.097743 0.229003 -0.427551)
(-0.196912 0.313089 -0.636496)
(-0.193612 0.315986 -0.640281)
(-0.141083 0.261353 -0.559473)
(-0.0775532 0.156884 -0.305414)
(-0.120728 0.223368 -0.427879)
(-0.0797331 0.195524 -0.346906)
(-0.175804 0.300867 -0.615147)
(-0.100104 0.185474 -0.354194)
(-0.0796169 0.181069 -0.339322)
(-0.105969 0.1993 -0.37793)
(-0.183833 0.282343 -0.578507)
(-0.113045 0.202582 -0.397399)
(-0.234489 0.410584 -0.881777)
(-0.234721 0.412679 -0.898075)
(-0.224562 0.389496 -0.864555)
(-0.219565 0.384796 -0.860252)
(-0.237443 0.399058 -0.870047)
(-0.256211 0.436493 -0.978231)
(-0.27267 0.451182 -1.02293)
(-0.285068 0.460698 -0.974471)
(-0.295707 0.446915 -0.957753)
(-0.243111 0.395867 -0.869094)
(-0.249236 0.39442 -0.880587)
(-0.255044 0.414092 -0.97498)
(-0.234707 0.415097 -0.944209)
(-0.286814 0.449724 -0.974777)
(-0.276589 0.42308 -0.983273)
(-0.228107 0.38817 -0.887084)
(-0.215326 0.36545 -0.853275)
(-0.222698 0.387788 -0.924787)
(-0.240962 0.393113 -0.914586)
(-0.259129 0.400571 -0.888284)
(-0.243007 0.385342 -0.907809)
(-0.254595 0.415132 -0.927362)
(-0.269851 0.404134 -0.778429)
(-0.256737 0.399465 -0.752378)
(-0.173341 0.346554 -0.666277)
(-0.175849 0.350462 -0.678627)
(-0.186032 0.34606 -0.648566)
(-0.175378 0.33576 -0.638927)
(-0.265412 0.411556 -0.776016)
(-0.234118 0.393149 -0.725543)
(-0.216868 0.385659 -0.738482)
(-0.216229 0.369139 -0.698412)
(-0.172166 0.335634 -0.636474)
(-0.200576 0.358993 -0.701981)
(-0.198841 0.350646 -0.669014)
(-0.194102 0.350812 -0.663109)
(-0.230361 0.379803 -0.72416)
(-0.214147 0.359304 -0.671879)
(-0.227058 0.380647 -0.717565)
(-0.126093 0.259358 -0.633254)
(-0.18836 0.342487 -0.774612)
(-0.141138 0.251726 -0.615513)
(-0.14315 0.271918 -0.631839)
(-0.24053 0.388945 -0.834133)
(-0.156727 0.312574 -0.705028)
(-0.191275 0.328297 -0.721817)
(-0.213575 0.369534 -0.800961)
(-0.190723 0.332605 -0.734006)
(-0.208707 0.357288 -0.767163)
(-0.215494 0.363247 -0.782437)
(-0.253086 0.391788 -0.828636)
(-0.359094 0.473747 -0.889572)
(-0.364983 0.462037 -0.88195)
(-0.349126 0.481479 -0.889403)
(-0.380525 0.495892 -0.954923)
(-0.354174 0.47022 -0.880761)
(-0.38965 0.505023 -0.970862)
(-0.388163 0.506873 -0.955778)
(-0.333754 0.457017 -0.853144)
(-0.382244 0.501691 -0.961246)
(-0.349126 0.470876 -0.884362)
(-0.201023 0.296221 -0.561491)