/*--------------------------------*- C++ -*----------------------------------*\
| =========                 |                                                 |
| \\      /  F ield         | OpenFOAM: The Open Source CFD Toolbox           |
|  \\    /   O peration     | Version:  v1612+                                |
|   \\  /    A nd           | Web:      www.OpenFOAM.com                      |
|    \\/     M anipulation  |                                                 |
\*---------------------------------------------------------------------------*/
FoamFile
{
    version     2.0;
    format      ascii;
    class       volVectorField;
    location    "206";
    object      U;
}
// * * * * * * * * * * * * * * * * * * * * * * * * * * * * * * * * * * * * * //

dimensions      [0 1 -1 0 0 0 0];

internalField   nonuniform List<vector> 
18963
(
(-0.256116 -0.528487 -0.515274)
(0.45377 -0.883521 -0.156188)
(0.613513 -0.680931 -0.177992)
(0.140198 -0.774222 -0.559924)
(0.161087 -0.78078 -0.547124)
(0.176814 -0.828212 -0.559043)
(0.174786 -0.799918 -0.544436)
(0.168932 -0.812924 -0.582025)
(0.146555 -0.769187 -0.559582)
(0.179633 -0.829092 -0.55573)
(0.192595 -0.837265 -0.560332)
(0.199403 -0.790704 -0.555792)
(0.190948 -0.782634 -0.553116)
(0.208587 -0.891092 -0.595788)
(0.198403 -0.865081 -0.595289)
(0.223906 -0.875905 -0.582666)
(-0.00744866 -0.654287 -0.492071)
(-0.0199209 -0.646635 -0.469312)
(0.0618078 -0.698814 -0.477256)
(0.0552897 -0.712901 -0.380386)
(0.0513599 -0.722878 -0.419445)
(0.0175793 -0.663233 -0.390471)
(-0.0250091 -0.651498 -0.464133)
(-0.0493766 -0.610509 -0.505877)
(-0.00388764 -0.632045 -0.46409)
(-0.0124451 -0.623125 -0.448085)
(0.00588703 -0.681372 -0.394838)
(0.0113711 -0.663591 -0.403118)
(-0.0309662 -0.626924 -0.441994)
(-0.00678728 -0.662881 -0.41612)
(0.00482518 -0.807061 -0.489195)
(0.0043206 -0.80758 -0.480035)
(0.000403275 -0.79045 -0.495382)
(0.0387578 -0.810415 -0.441831)
(0.020892 -0.793935 -0.466449)
(0.0249701 -0.799489 -0.453569)
(0.0197112 -0.798331 -0.477883)
(0.0222902 -0.77278 -0.453845)
(0.0291175 -0.812585 -0.466848)
(0.014352 -0.811944 -0.478755)
(0.00540396 -0.787783 -0.494721)
(0.0426461 -0.806494 -0.437534)
(0.00731292 -0.778838 -0.474964)
(0.0241133 -0.777456 -0.431326)
(0.0352084 -0.774333 -0.428403)
(0.138341 -0.773411 -0.325562)
(0.136523 -0.752937 -0.329181)
(0.0899831 -0.774925 -0.372508)
(0.0910174 -0.773299 -0.382187)
(0.071627 -0.752997 -0.379741)
(0.0959788 -0.755585 -0.36578)
(0.140823 -0.77976 -0.330353)
(0.133088 -0.768866 -0.32981)
(0.0878525 -0.756888 -0.359406)
(0.092597 -0.761845 -0.355982)
(0.102995 -0.74089 -0.337171)
(0.0914266 -0.743113 -0.351014)
(0.0895883 -0.760307 -0.346433)
(0.117131 -0.761494 -0.344392)
(0.135514 -0.77172 -0.31685)
(0.0825394 -0.724808 -0.345715)
(0.111071 -0.784395 -0.37798)
(0.101318 -0.773501 -0.348189)
(0.136924 -0.774377 -0.307213)
(0.0985499 -0.761072 -0.36088)
(0.112562 -0.769672 -0.314412)
(0.11113 -0.788581 -0.354159)
(0.445142 -1.00708 -0.276663)
(0.470486 -0.986398 -0.266165)
(0.453253 -0.998929 -0.274078)
(0.4638 -0.994389 -0.267501)
(0.483487 -0.978315 -0.247343)
(0.45574 -1.00694 -0.255681)
(0.470605 -1.01963 -0.264445)
(0.480264 -0.982225 -0.229359)
(0.454854 -1.00198 -0.250566)
(0.444405 -0.994488 -0.253463)
(0.456459 -0.982623 -0.247955)
(0.462898 -0.978136 -0.249879)
(0.490345 -0.973212 -0.235535)
(0.478379 -0.963592 -0.21166)
(0.450224 -0.968307 -0.228004)
(0.438826 -0.92487 -0.232002)
(0.47298 -0.948561 -0.218067)
(0.451112 -0.916847 -0.202728)
(0.452543 -0.942972 -0.221825)
(0.511792 -0.910578 -0.29843)
(0.522952 -0.934677 -0.292459)
(0.514888 -0.980204 -0.316363)
(0.517509 -0.964572 -0.305919)
(0.528066 -0.958206 -0.290612)
(0.512264 -0.981566 -0.308033)
(0.531416 -0.923603 -0.275368)
(0.494808 -0.867644 -0.279777)
(0.501681 -0.941493 -0.294311)
(0.5168 -0.951964 -0.32071)
(0.499188 -0.970905 -0.307435)
(0.49982 -0.900916 -0.292848)
(0.511379 -0.950669 -0.313667)
(0.567228 -0.599227 -0.176231)
(0.576799 -0.581392 -0.173708)
(0.581177 -0.562915 -0.174576)
(0.578925 -0.565274 -0.161902)
(0.57964 -0.571882 -0.193151)
(0.575933 -0.562204 -0.182349)
(0.56106 -0.527598 -0.153953)
(0.544802 -0.621798 -0.183273)
(0.574133 -0.62969 -0.168665)
(0.563627 -0.632771 -0.185885)
(0.574743 -0.546184 -0.172865)
(0.562307 -0.517006 -0.15194)
(0.553308 -0.62755 -0.181269)
(0.527728 -0.655265 -0.173024)
(0.575311 -0.653532 -0.179742)
(0.590169 -0.632576 -0.170907)
(0.568201 -0.61594 -0.14983)
(0.571212 -0.650085 -0.163649)
(0.562566 -0.612191 -0.15379)
(0.55536 -0.572899 -0.142189)
(0.55988 -0.660963 -0.161712)
(0.560487 -0.54702 -0.137118)
(0.042833 -0.657031 -0.310673)
(0.0690969 -0.64279 -0.294202)
(0.076162 -0.652524 -0.27011)
(0.0800065 -0.661976 -0.270998)
(0.151712 -0.692792 -0.275279)
(0.0625335 -0.684675 -0.304197)
(0.118246 -0.66542 -0.263652)
(0.0958046 -0.680446 -0.277066)
(0.182886 -0.693544 -0.268474)
(0.171293 -0.723848 -0.279749)
(0.150606 -0.760216 -0.295009)
(0.104789 -0.688137 -0.301146)
(0.163922 -0.472503 -0.249503)
(0.201529 -0.517092 -0.257959)
(0.26544 -0.523792 -0.245381)
(0.223135 -0.50714 -0.247952)
(0.153585 -0.443718 -0.234241)
(0.154332 -0.434752 -0.231621)
(0.15631 -0.495063 -0.273454)
(0.133468 -0.443506 -0.24228)
(0.175292 -0.369152 -0.217402)
(0.171606 -0.373347 -0.21358)
(0.221951 -0.494629 -0.239603)
(0.190351 -0.449838 -0.229848)
(0.245074 -0.505569 -0.244422)
(0.127786 -0.381933 -0.201001)
(0.138363 -0.361942 -0.202532)
(0.159459 -0.412796 -0.219394)
(0.134691 -0.411355 -0.227759)
(0.265946 -0.436727 -0.231741)
(0.218125 -0.382278 -0.234047)
(0.228683 -0.443473 -0.217337)
(0.217985 -0.396409 -0.225998)
(0.232713 -0.422494 -0.231968)
(0.57257 -0.577025 -0.274121)
(0.588455 -0.560601 -0.276343)
(0.585851 -0.610741 -0.280062)
(0.589151 -0.548571 -0.299029)
(0.589469 -0.516426 -0.311988)
(0.604552 -0.532642 -0.294554)
(0.464108 -0.509974 -0.307479)
(0.462775 -0.511654 -0.313015)
(0.534808 -0.517926 -0.314395)
(0.474292 -0.512534 -0.2906)
(0.542072 -0.56677 -0.272357)
(0.56333 -0.531505 -0.291801)
(0.504256 -0.551536 -0.258006)
(0.477099 -0.546823 -0.272861)
(0.421232 -0.532064 -0.254802)
(0.47456 -0.504181 -0.309699)
(0.459502 -0.514644 -0.285907)
(0.588729 -0.523083 -0.304827)
(0.570106 -0.518768 -0.303261)
(0.497913 -0.503459 -0.319852)
(0.493866 -0.537371 -0.304272)
(0.564714 -0.54035 -0.295818)
(0.156817 -0.791819 -0.551906)
(0.128585 -0.776451 -0.545543)
(0.123284 -0.786922 -0.56771)
(0.0905037 -0.745588 -0.539007)
(0.221547 -0.848642 -0.544241)
(0.20658 -0.838175 -0.586841)
(0.176758 -0.819719 -0.560548)
(0.151667 -0.77367 -0.495955)
(0.20483 -0.833092 -0.567832)
(0.229302 -0.822943 -0.539045)
(0.215719 -0.83097 -0.53139)
(0.224553 -0.826934 -0.534379)
(0.21113 -0.828412 -0.511279)
(0.199794 -0.799939 -0.501574)
(0.180211 -0.800624 -0.532754)
(0.166486 -0.78725 -0.515545)
(0.050685 -0.0960476 -0.107071)
(0.0323658 -0.0865539 -0.0920954)
(0.0216555 -0.126883 -0.10017)
(0.0237712 -0.140147 -0.0883037)
(0.0242195 -0.0970397 -0.0798061)
(0.0132205 -0.182411 -0.112991)
(0.0217392 -0.129339 -0.0914847)
(0.0315822 -0.174178 -0.150121)
(0.0157917 -0.157439 -0.11382)
(0.0645909 -0.0988046 -0.125033)
(0.0255431 -0.103709 -0.0963518)
(0.0353681 -0.0635654 -0.0785233)
(0.0217362 -0.195407 -0.139034)
(0.0253481 -0.0974281 -0.0659086)
(0.0656681 -0.0793836 -0.107186)
(0.0420551 -0.0671 -0.0871391)
(0.0701617 -0.0931777 -0.121983)
(0.173936 -0.873068 -0.408886)
(0.209696 -0.878289 -0.384743)
(0.176164 -0.830576 -0.44961)
(0.167947 -0.765966 -0.455996)
(0.189683 -0.878948 -0.364199)
(0.181864 -0.887565 -0.386244)
(0.222161 -0.900514 -0.392619)
(0.237793 -0.928404 -0.402818)
(0.199829 -0.821897 -0.465661)
(0.191676 -0.842619 -0.464466)
(0.197277 -0.825779 -0.425882)
(0.222163 -0.823362 -0.45338)
(0.215418 -0.929026 -0.378879)
(0.236866 -0.886702 -0.429327)
(0.201804 -0.907696 -0.445894)
(0.309836 -0.283467 -0.328232)
(0.325711 -0.312017 -0.320501)
(0.333791 -0.329441 -0.332459)
(0.262608 -0.273432 -0.297728)
(0.300618 -0.29876 -0.321531)
(0.271974 -0.365575 -0.293783)
(0.202372 -0.276727 -0.282271)
(0.242222 -0.291378 -0.294405)
(0.179268 -0.26719 -0.255729)
(0.202176 -0.270213 -0.26254)
(0.253072 -0.249183 -0.308542)
(0.23729 -0.252339 -0.284534)
(0.210062 -0.259963 -0.27228)
(0.22208 -0.256831 -0.287813)
(0.482636 -0.609369 -0.198285)
(0.522911 -0.597407 -0.191822)
(0.529933 -0.622165 -0.19456)
(0.553222 -0.621266 -0.197769)
(0.511901 -0.60804 -0.200968)
(0.521052 -0.662125 -0.177935)
(0.478313 -0.66771 -0.192769)
(0.464966 -0.61097 -0.204229)
(0.463559 -0.637922 -0.199957)
(0.549182 -0.668304 -0.174969)
(0.536064 -0.710018 -0.170613)
(0.556705 -0.691248 -0.166309)
(0.484633 -0.673833 -0.196046)
(0.520808 -0.725174 -0.166452)
(0.49857 -0.702927 -0.177265)
(0.533618 -0.684428 -0.161868)
(0.505499 -0.720282 -0.165044)
(0.495087 -0.694835 -0.17383)
(0.527754 -0.697586 -0.16561)
(-0.0682549 -0.709578 -0.761323)
(-0.0269586 -0.672009 -0.722573)
(-0.000111265 -0.712636 -0.745012)
(-0.00925777 -0.673998 -0.710144)
(-0.0362548 -0.733393 -0.713466)
(0.404912 -0.455543 -0.287477)
(0.388706 -0.446308 -0.28248)
(0.300887 -0.430677 -0.262772)
(0.338436 -0.43882 -0.27356)
(0.455541 -0.470003 -0.288715)
(0.472719 -0.482601 -0.285197)
(0.352983 -0.46645 -0.261874)
(0.280396 -0.449036 -0.231071)
(0.309997 -0.439645 -0.249858)
(0.263973 -0.409871 -0.243418)
(0.514926 -0.576712 -0.243282)
(0.491678 -0.563902 -0.254361)
(0.447435 -0.507881 -0.265063)
(0.380346 -0.531994 -0.229713)
(0.44787 -0.583243 -0.235578)
(0.306202 -0.496507 -0.236039)
(0.356869 -0.493181 -0.247954)
(0.405119 -0.533156 -0.228459)
(0.498445 -0.540081 -0.284217)
(0.426476 -0.541695 -0.2397)
(0.406473 -0.552832 -0.230956)
(0.333521 -0.516661 -0.220568)
(0.397604 -0.503262 -0.25395)
(0.408014 -0.95565 -0.479027)
(0.382897 -0.948262 -0.504767)
(0.349199 -0.92248 -0.537744)
(0.34524 -0.92793 -0.527604)
(0.390727 -0.936818 -0.506948)
(0.430585 -0.946037 -0.453667)
(0.42504 -0.953155 -0.495786)
(0.422714 -0.928765 -0.402028)
(0.448741 -0.928431 -0.392893)
(0.428809 -0.936374 -0.409295)
(0.411532 -0.939497 -0.459407)
(0.430377 -0.940983 -0.434229)
(0.379089 -0.920512 -0.405326)
(0.398284 -0.925458 -0.397334)
(0.329022 -0.915542 -0.527135)
(0.429177 -0.929517 -0.434907)
(0.365284 -0.916624 -0.504509)
(0.316298 -0.89523 -0.500777)
(0.32203 -0.89468 -0.465694)
(-0.0349023 -0.327937 -0.219082)
(-0.0251909 -0.492299 -0.287732)
(-0.00858707 -0.22112 -0.15347)
(-0.0156835 -0.330142 -0.178652)
(-0.0159563 -0.41887 -0.231353)
(-0.0406356 -0.628116 -0.475575)
(-0.0437991 -0.614291 -0.440958)
(-0.0641942 -0.382436 -0.290996)
(-0.05038 -0.609077 -0.409991)
(-0.0126869 -0.193674 -0.140389)
(-0.0489808 -0.48346 -0.374056)
(-0.049503 -0.42908 -0.347976)
(-0.0289418 -0.453802 -0.285299)
(-0.0512143 -0.305251 -0.270797)
(-0.0222476 -0.32706 -0.222192)
(-0.0190725 -0.331727 -0.241263)
(-0.0317416 -0.249624 -0.205375)
(-0.0128477 -0.181477 -0.141139)
(0.229512 -0.709351 -0.219889)
(0.211674 -0.689335 -0.229134)
(0.169448 -0.661773 -0.255073)
(0.223332 -0.68661 -0.213774)
(0.275629 -0.695848 -0.210189)
(0.276748 -0.682039 -0.199516)
(0.331284 -0.742852 -0.205635)
(0.31442 -0.739393 -0.221113)
(0.255304 -0.73415 -0.202928)
(0.284802 -0.740502 -0.208238)
(0.311341 -0.725411 -0.208588)
(0.319551 -0.737068 -0.167109)
(0.234409 -0.68055 -0.224945)
(0.275826 -0.702315 -0.234939)
(0.269292 -0.745395 -0.240585)
(0.302308 -0.7517 -0.216193)
(0.258417 -0.704214 -0.239717)
(0.260532 -0.723488 -0.254056)
(0.246805 -0.71254 -0.256296)
(0.251996 -0.739462 -0.259083)
(0.226004 -0.731457 -0.264367)
(0.264887 -0.71941 -0.247639)
(0.171673 -0.69576 -0.28907)
(0.195275 -0.679636 -0.266265)
(0.194734 -0.694906 -0.261463)
(0.171375 -0.716597 -0.28262)
(0.206907 -0.717942 -0.28382)
(0.190613 -0.730165 -0.272581)
(0.199828 -0.737386 -0.27389)
(0.233998 -0.758684 -0.252034)
(0.252034 -0.737205 -0.252617)
(0.161061 -0.707642 -0.27128)
(0.187855 -0.737859 -0.263177)
(0.203063 -0.270307 -0.314746)
(0.199287 -0.228519 -0.280062)
(0.201248 -0.251392 -0.300954)
(0.209211 -0.272337 -0.320749)
(0.166206 -0.204335 -0.264774)
(0.156702 -0.273689 -0.308614)
(0.136093 -0.220804 -0.271284)
(0.180074 -0.20849 -0.268991)
(0.155287 -0.168602 -0.230864)
(0.104821 -0.325614 -0.335717)
(0.0833822 -0.339706 -0.344467)
(0.0475819 -0.323514 -0.34923)
(0.0251019 -0.314716 -0.342503)
(0.136555 -0.201887 -0.252705)
(0.0846852 -0.187634 -0.232014)
(0.10703 -0.183452 -0.236518)
(0.133087 -0.330022 -0.340553)
(0.0444192 -0.242472 -0.252823)
(0.0602769 -0.263718 -0.279588)
(0.107904 -0.286404 -0.301108)
(0.413448 -0.973291 -0.230316)
(0.430802 -0.976107 -0.216052)
(0.431349 -0.984957 -0.233869)
(0.432193 -0.983593 -0.223714)
(0.410277 -0.96773 -0.235209)
(0.412773 -0.972671 -0.214419)
(0.4156 -0.967143 -0.215348)
(0.40963 -1.02856 -0.262265)
(0.403439 -1.00807 -0.255893)
(0.415472 -1.00648 -0.246863)
(0.387848 -1.0202 -0.269566)
(0.391494 -0.971295 -0.25397)
(0.397863 -0.981467 -0.246702)
(0.397296 -0.985517 -0.222901)
(0.403635 -0.962651 -0.21264)
(0.409592 -0.974994 -0.232644)
(0.390286 -0.975542 -0.241745)
(0.39803 -0.944734 -0.222966)
(0.365987 -0.245022 -0.287595)
(0.350631 -0.254271 -0.302015)
(0.371986 -0.356318 -0.313458)
(0.393027 -0.356409 -0.314089)
(0.449699 -0.32825 -0.312753)
(0.430971 -0.286793 -0.303552)
(0.344371 -0.228109 -0.288536)
(0.330745 -0.203334 -0.266276)
(0.431939 -0.323318 -0.309171)
(0.400046 -0.302243 -0.315611)
(0.400414 -0.31605 -0.310939)
(0.37486 -0.355306 -0.306957)
(0.382111 -0.350485 -0.307848)
(0.439296 -0.305673 -0.294945)
(0.413293 -0.267999 -0.281808)
(0.368293 -0.258127 -0.293148)
(0.347921 -0.27765 -0.300315)
(0.361668 -0.20835 -0.264414)
(0.436023 -0.86181 -0.191753)
(0.439512 -0.87497 -0.189574)
(0.37874 -0.832476 -0.19645)
(0.40832 -0.870928 -0.196618)
(0.372121 -0.878344 -0.235912)
(0.397438 -0.89242 -0.219798)
(0.380192 -0.879456 -0.231429)
(0.42328 -0.896288 -0.205596)
(0.442048 -0.835219 -0.193972)
(0.346988 -0.90119 -0.257359)
(0.367162 -0.874674 -0.233781)
(0.360992 -0.90734 -0.238182)
(0.416273 -0.821132 -0.180662)
(0.397273 -0.834127 -0.211415)
(0.364865 -0.859968 -0.234406)
(0.361791 -0.803191 -0.245913)
(0.404781 -0.838231 -0.183326)
(0.329576 -0.797186 -0.243676)
(0.282278 -0.221135 -0.278227)
(0.270236 -0.218437 -0.281455)
(0.276334 -0.267872 -0.283171)
(0.241346 -0.184615 -0.26113)
(0.227335 -0.240991 -0.262021)
(0.249044 -0.200973 -0.267783)
(0.255976 -0.192065 -0.270488)
(0.22374 -0.164323 -0.239794)
(0.190945 -0.223694 -0.251219)
(0.174915 -0.237031 -0.240384)
(0.194733 -0.151166 -0.235106)
(0.177684 -0.162487 -0.233819)
(0.192066 -0.214606 -0.238625)
(0.196909 -0.176472 -0.247767)
(0.163021 -0.150749 -0.215487)
(0.168 -0.131723 -0.209813)
(0.177173 -0.150534 -0.224291)
(0.168426 -0.165326 -0.221086)
(0.1769 -0.207139 -0.232287)
(0.186647 -0.141501 -0.222412)
(0.310087 -0.972431 -0.525296)
(0.304 -0.934778 -0.471558)
(0.209701 -0.915502 -0.583898)
(0.204504 -0.904618 -0.620278)
(0.276767 -0.946223 -0.570865)
(0.256587 -0.969321 -0.556393)
(0.204694 -0.887857 -0.640071)
(0.177722 -0.870062 -0.645279)
(0.261095 -0.946101 -0.481664)
(0.27308 -0.943079 -0.455142)
(0.281272 -0.929572 -0.405546)
(0.288352 -0.956943 -0.549425)
(0.182319 -0.896644 -0.617986)
(0.199948 -0.907469 -0.617887)
(0.273462 -0.939346 -0.454382)
(0.234925 -0.960257 -0.576041)
(0.262941 -0.949143 -0.554175)
(0.25119 -0.942461 -0.491787)
(0.488749 -0.922952 -0.187662)
(0.474728 -0.953367 -0.20859)
(0.468708 -0.978231 -0.217152)
(0.484646 -0.942569 -0.201497)
(0.468138 -0.929078 -0.20969)
(0.465457 -0.956513 -0.242846)
(0.475439 -0.973977 -0.25563)
(0.47475 -0.975022 -0.225072)
(0.487058 -0.955952 -0.203889)
(0.475645 -0.931966 -0.237607)
(0.464598 -0.925921 -0.243983)
(0.489639 -0.960719 -0.236774)
(0.506747 -0.975777 -0.215157)
(0.499878 -0.927385 -0.227845)
(0.492425 -0.903233 -0.217462)
(0.492258 -0.92366 -0.219121)
(0.470293 -0.892701 -0.221416)
(0.522465 -0.92661 -0.209635)
(0.497657 -0.939026 -0.209286)
(0.527862 -0.941536 -0.206704)
(0.521491 -0.933801 -0.194089)
(0.637922 -0.556424 -0.27551)
(0.642189 -0.575044 -0.263555)
(0.644243 -0.561297 -0.271807)
(0.638533 -0.57553 -0.275872)
(0.638267 -0.53487 -0.267595)
(0.639891 -0.525117 -0.292447)
(0.655636 -0.512809 -0.293455)
(0.583003 -0.687852 -0.184506)
(0.610804 -0.698499 -0.202366)
(0.574333 -0.65772 -0.186348)
(0.594824 -0.736173 -0.19982)
(0.60392 -0.673159 -0.198694)
(0.601544 -0.664389 -0.193702)
(0.620027 -0.741612 -0.209917)
(0.633081 -0.789498 -0.222449)
(0.592834 -0.733439 -0.206353)
(0.566442 -0.66824 -0.197631)
(0.620882 -0.667474 -0.201094)
(0.643554 -0.728869 -0.230827)
(0.642671 -0.753664 -0.233192)
(0.642934 -0.750875 -0.216786)
(0.649717 -0.754392 -0.238448)
(0.647127 -0.727801 -0.230998)
(0.620516 -0.649997 -0.204756)
(0.595742 -0.63457 -0.190465)
(0.630149 -0.804058 -0.235086)
(0.630969 -0.739555 -0.214665)
(0.588343 -0.695536 -0.201458)
(0.647737 -0.721395 -0.245775)
(0.656306 -0.743399 -0.249725)
(0.615668 -0.660443 -0.204048)
(0.604632 -0.659985 -0.195419)
(0.661417 -0.779536 -0.231238)
(0.573799 -0.476824 -0.2472)
(0.598445 -0.48759 -0.210507)
(0.574433 -0.426335 -0.211057)
(0.564527 -0.40514 -0.258596)
(0.577286 -0.382215 -0.229614)
(0.555745 -0.526062 -0.256305)
(0.570637 -0.546862 -0.238041)
(0.566168 -0.430673 -0.214378)
(0.549318 -0.442695 -0.269318)
(0.583775 -0.43404 -0.2415)
(0.568925 -0.536792 -0.22953)
(0.583876 -0.508087 -0.225122)
(0.578521 -0.495847 -0.218006)
(0.568409 -0.539261 -0.240585)
(0.533665 -0.491888 -0.256968)
(0.601642 -0.506972 -0.224301)
(0.236469 -0.887526 -0.605397)
(0.218074 -0.860413 -0.603888)
(0.246762 -0.864322 -0.573368)
(0.26863 -0.85091 -0.58745)
(0.267363 -0.906562 -0.585692)
(0.282351 -0.916024 -0.595644)
(0.262543 -0.904232 -0.605521)
(0.231202 -0.866935 -0.584363)
(0.194001 -0.84399 -0.586833)
(0.289742 -0.922674 -0.578087)
(0.294158 -0.919338 -0.56685)
(0.302239 -0.91966 -0.549333)
(0.282748 -0.892015 -0.556509)
(0.263215 -0.916083 -0.580712)
(0.283811 -0.911212 -0.571301)
(0.257394 -0.898555 -0.589093)
(0.24068 -0.857943 -0.595449)
(0.280818 -0.92178 -0.57892)
(0.284738 -0.900013 -0.579514)
(0.481105 -0.816711 -0.171464)
(0.496645 -0.818695 -0.174512)
(0.460678 -0.809354 -0.175609)
(0.498134 -0.830739 -0.170476)
(0.485686 -0.843551 -0.179206)
(0.516205 -0.858275 -0.175607)
(0.515757 -0.867623 -0.175229)
(0.508234 -0.867476 -0.173696)
(0.474397 -0.861128 -0.188223)
(0.490405 -0.884541 -0.186568)
(0.497254 -0.874723 -0.186691)
(0.477633 -0.875617 -0.188069)
(0.167535 -0.429856 -0.212847)
(0.200508 -0.455263 -0.22074)
(0.162852 -0.41459 -0.225632)
(0.22209 -0.504342 -0.220211)
(0.154112 -0.418637 -0.224174)
(0.212879 -0.428873 -0.217827)
(0.189587 -0.436197 -0.224091)
(0.212514 -0.486773 -0.222119)
(0.206532 -0.589633 -0.261804)
(0.193676 -0.546443 -0.251831)
(0.148925 -0.431643 -0.231875)
(0.196375 -0.511751 -0.234026)
(0.140824 -0.4694 -0.204573)
(0.203276 -0.601349 -0.269963)
(0.195914 -0.569831 -0.265067)
(0.11563 -0.439978 -0.233502)
(0.233841 -0.86673 -0.302727)
(0.24794 -0.851508 -0.279596)
(0.227727 -0.800051 -0.329833)
(0.237502 -0.824249 -0.314423)
(0.215178 -0.862202 -0.296983)
(0.217706 -0.816159 -0.348951)
(0.209486 -0.826722 -0.301052)
(0.250058 -0.852169 -0.265988)
(0.241315 -0.86301 -0.276608)
(0.207542 -0.820936 -0.322074)
(0.153345 -0.764478 -0.330353)
(0.158201 -0.773248 -0.330775)
(0.19421 -0.799123 -0.303785)
(0.200248 -0.817484 -0.293608)
(0.265823 -0.839948 -0.254922)
(0.235309 -0.813974 -0.275367)
(0.21815 -0.788932 -0.286483)
(0.193996 -0.787777 -0.308649)
(0.219544 -0.837558 -0.275475)
(0.256433 -0.831423 -0.250579)
(0.126304 -0.762754 -0.561923)
(0.0875436 -0.745396 -0.574544)
(0.170933 -0.820002 -0.624823)
(0.081146 -0.726597 -0.601312)
(0.135007 -0.760202 -0.54918)
(0.147066 -0.753957 -0.505503)
(0.121638 -0.778794 -0.58022)
(0.122082 -0.760716 -0.560029)
(0.14647 -0.809485 -0.5744)
(0.170251 -0.839844 -0.607844)
(0.143645 -0.728244 -0.64666)
(0.145681 -0.790982 -0.643463)
(0.159344 -0.809731 -0.615429)
(0.357384 -0.933767 -0.227014)
(0.344102 -0.924535 -0.231847)
(0.360379 -0.938579 -0.215954)
(0.332133 -0.89281 -0.231734)
(0.349817 -0.920407 -0.225992)
(0.325757 -0.905075 -0.248064)
(0.367576 -0.90029 -0.217213)
(0.374556 -0.907425 -0.213473)
(0.375193 -0.910566 -0.205485)
(0.375171 -0.929994 -0.207379)
(0.395114 -0.906021 -0.209116)
(0.417266 -0.913804 -0.199746)
(0.358386 -0.913355 -0.228365)
(0.405121 -0.905785 -0.200691)
(0.394125 -0.894616 -0.201478)
(0.375944 -0.888772 -0.204619)
(0.40116 -0.93581 -0.206408)
(0.369481 -0.901489 -0.229597)
(0.359167 -0.93771 -0.22571)
(0.393468 -0.925889 -0.206909)
(0.34571 -0.771145 -0.456227)
(0.317836 -0.731794 -0.421143)
(0.317424 -0.895587 -0.236943)
(0.288256 -0.857998 -0.251564)
(0.316863 -0.892662 -0.257388)
(0.325251 -0.837916 -0.213543)
(0.327159 -0.877181 -0.23657)
(0.301716 -0.830321 -0.251479)
(0.554047 -0.570738 -0.198013)
(0.534033 -0.60335 -0.200632)
(0.504122 -0.637864 -0.181111)
(0.570633 -0.570438 -0.197872)
(0.457786 -0.571907 -0.218768)
(0.49662 -0.58813 -0.22294)
(0.536644 -0.581719 -0.213757)
(-0.00169147 -0.764066 -0.470797)
(0.0246983 -0.748013 -0.437636)
(0.018444 -0.788597 -0.471228)
(0.023202 -0.766349 -0.46297)
(-0.000224159 -0.705674 -0.441333)
(0.0126635 -0.696112 -0.410324)
(0.00246143 -0.721983 -0.452269)
(-0.0175476 -0.733331 -0.444028)
(-0.0111996 -0.732468 -0.454266)
(-0.0292492 -0.693611 -0.436426)
(-0.0104268 -0.706833 -0.444162)
(0.293348 -0.229517 -0.301287)
(0.309149 -0.230175 -0.29703)
(0.27386 -0.211401 -0.277035)
(0.304898 -0.212256 -0.281049)
(0.336406 -0.231284 -0.283797)
(0.36432 -0.274672 -0.307844)
(0.379459 -0.286521 -0.300445)
(0.304634 -0.370425 -0.299279)
(0.289301 -0.353501 -0.285445)
(0.364178 -0.380595 -0.314061)
(0.357125 -0.337925 -0.31415)
(0.277533 -0.343352 -0.284812)
(0.245044 -0.321896 -0.272352)
(0.329322 -0.33717 -0.30379)
(0.406703 -0.846388 -0.209579)
(0.425477 -0.840479 -0.206594)
(0.44779 -0.859477 -0.200342)
(0.391561 -0.773961 -0.217554)
(0.396279 -0.829213 -0.229983)
(0.444734 -0.783121 -0.17283)
(0.445702 -0.768281 -0.187473)
(0.430607 -0.747764 -0.180552)
(0.417595 -0.74461 -0.204025)
(0.388899 -0.744488 -0.225461)
(0.438555 -0.79129 -0.188016)
(0.481771 -0.78241 -0.181484)
(0.448555 -0.733563 -0.188683)
(0.483939 -0.782503 -0.180529)
(0.621497 -0.481135 -0.250774)
(0.62357 -0.460618 -0.247947)
(0.659501 -0.593902 -0.246896)
(0.608682 -0.46408 -0.232075)
(0.597623 -0.427968 -0.229784)
(0.619633 -0.48704 -0.234833)
(0.632841 -0.533672 -0.232388)
(0.606108 -0.493998 -0.209256)
(0.592948 -0.460885 -0.216964)
(0.552751 -0.796506 -0.196509)
(0.568638 -0.795796 -0.195226)
(0.588075 -0.810664 -0.194598)
(0.566961 -0.838452 -0.196681)
(0.539607 -0.809448 -0.202654)
(0.574776 -0.858152 -0.183766)
(0.571506 -0.87061 -0.193297)
(0.532815 -0.792257 -0.194521)
(0.574903 -0.796033 -0.190036)
(0.552331 -0.814999 -0.182891)
(0.55727 -0.816364 -0.183857)
(0.524694 -0.837091 -0.203001)
(0.544723 -0.872441 -0.1998)
(0.559203 -0.86389 -0.182597)
(0.537047 -0.822029 -0.193636)
(0.56836 -0.790775 -0.184997)
(0.552671 -0.82988 -0.184664)
(0.559667 -0.842524 -0.19445)
(0.21172 -0.46617 -0.223955)
(0.183667 -0.472911 -0.225939)
(0.223712 -0.430433 -0.225586)
(0.17513 -0.396164 -0.21845)
(0.179751 -0.472243 -0.235174)
(0.260428 -0.499999 -0.226274)
(0.152696 -0.365956 -0.211376)
(0.263511 -0.432466 -0.233384)
(0.11956 -0.398434 -0.221955)
(0.174025 -0.472869 -0.237178)
(0.135775 -0.357874 -0.209136)
(0.160362 -0.366502 -0.210803)
(0.243567 -0.48721 -0.219198)
(0.157551 -0.367175 -0.210744)
(0.164019 -0.347572 -0.205798)
(0.372545 -0.769553 -0.183119)
(0.39393 -0.754712 -0.161473)
(0.448467 -0.718974 -0.159951)
(0.462269 -0.713411 -0.149204)
(0.353947 -0.77313 -0.177699)
(0.411844 -0.735412 -0.173352)
(0.404179 -0.74244 -0.167696)
(0.441527 -0.755651 -0.149849)
(0.436952 -0.720969 -0.151732)
(0.438 -0.721383 -0.160636)
(0.433651 -0.709514 -0.160538)
(0.432379 -0.738614 -0.162235)
(0.448659 -0.736888 -0.159136)
(0.427194 -0.772081 -0.165282)
(0.421279 -0.765613 -0.166738)
(0.421932 -0.760536 -0.167643)
(0.396329 -0.738551 -0.166541)
(0.410722 -0.779854 -0.180593)
(-0.253555 -0.532304 -0.551363)
(-0.25023 -0.598682 -0.604967)
(-0.315484 -0.486291 -0.637323)
(-0.315014 -0.452536 -0.563871)
(-0.259831 -0.589396 -0.665371)
(-0.26444 -0.511594 -0.626952)
(-0.281367 -0.500523 -0.544879)
(-0.26105 -0.632577 -0.644126)
(-0.341765 -0.516838 -0.731518)
(-0.321539 -0.521331 -0.736926)
(-0.38108 -0.494982 -0.670686)
(-0.30093 -0.597266 -0.797982)
(-0.319002 -0.589408 -0.790936)
(-0.336654 -0.584312 -0.769312)
(0.260493 -0.926588 -0.550011)
(0.268811 -0.937406 -0.538126)
(0.297987 -0.946411 -0.556595)
(0.248497 -0.911783 -0.556525)
(0.223432 -0.894338 -0.571932)
(0.277466 -0.934472 -0.56562)
(0.284198 -0.924343 -0.56705)
(0.252295 -0.920402 -0.60242)
(0.239042 -0.881688 -0.589897)
(0.263903 -0.911376 -0.565349)
(-0.235688 -0.461 -0.684893)
(-0.253258 -0.480145 -0.722381)
(-0.227616 -0.567096 -0.75737)
(-0.278759 -0.60156 -0.775075)
(0.0289932 -0.663493 -0.337666)
(0.02208 -0.687441 -0.368493)
(0.068174 -0.675825 -0.31454)
(0.0558697 -0.674852 -0.331056)
(0.077162 -0.713615 -0.350662)
(0.053922 -0.717106 -0.391021)
(0.0184623 -0.670135 -0.371931)
(0.076014 -0.754486 -0.378952)
(0.0815633 -0.754909 -0.371469)
(0.0578189 -0.692479 -0.338497)
(0.0785281 -0.709593 -0.346368)
(0.100782 -0.757291 -0.352835)
(0.102751 -0.732519 -0.344808)
(0.0474445 -0.688832 -0.367862)
(0.0868764 -0.7253 -0.353429)
(0.107057 -0.751179 -0.357474)
(0.0372141 -0.892422 -0.631513)
(0.0454922 -0.889252 -0.572806)
(0.0588004 -0.883349 -0.699609)
(0.0388567 -0.88783 -0.711691)
(0.0609587 -0.892966 -0.671977)
(0.0659202 -0.902072 -0.625141)
(0.015762 -0.883257 -0.678271)
(-0.0314703 -0.862333 -0.660678)
(0.0225653 -0.817924 -0.768582)
(-0.0112963 -0.825854 -0.771847)
(-0.0140113 -0.833324 -0.725583)
(-0.00356948 -0.851647 -0.757281)
(0.00104129 -0.871953 -0.694285)
(-0.0491279 -0.781379 -0.757444)
(-0.0382857 -0.795216 -0.770802)
(-0.0537257 -0.771827 -0.78913)
(-0.0234286 -0.865963 -0.749897)
(-0.0937901 -0.753611 -0.798635)
(0.155747 -0.409232 -0.296884)
(0.136124 -0.388729 -0.287155)
(0.127601 -0.310394 -0.267052)
(0.31581 -0.464245 -0.337745)
(0.340931 -0.411387 -0.332543)
(0.216446 -0.360163 -0.32821)
(0.238431 -0.416588 -0.330795)
(0.197641 -0.449228 -0.318682)
(0.204221 -0.442267 -0.316937)
(0.157718 -0.321678 -0.267244)
(0.155052 -0.279865 -0.26861)
(0.172578 -0.312635 -0.290676)
(0.259621 -0.352834 -0.326332)
(0.286781 -0.460885 -0.319059)
(0.310113 -0.442064 -0.331882)
(0.193718 -0.261176 -0.27558)
(0.245689 -0.26306 -0.286864)
(0.262076 -0.274919 -0.301583)
(0.270375 -0.307253 -0.304618)
(0.162153 -0.930087 -0.357784)
(0.158934 -0.905725 -0.364417)
(0.1674 -0.916141 -0.349659)
(0.176827 -0.922751 -0.361098)
(0.205433 -0.95296 -0.352167)
(0.206134 -0.944539 -0.343658)
(0.206983 -0.94606 -0.332305)
(0.201461 -0.963118 -0.347576)
(0.193154 -0.943637 -0.326657)
(0.172868 -0.921421 -0.345547)
(0.1714 -0.919632 -0.345907)
(0.160929 -0.944649 -0.354004)
(0.195014 -0.928735 -0.342377)
(0.196474 -0.921068 -0.340872)
(0.199133 -0.943813 -0.331563)
(0.195871 -0.927174 -0.327275)
(0.209671 -0.949953 -0.330326)
(0.199708 -0.921384 -0.327159)
(0.178554 -0.945873 -0.361874)
(0.180848 -0.932109 -0.361183)
(0.223281 -0.520058 -0.216072)
(0.189283 -0.423472 -0.197446)
(0.210373 -0.472614 -0.214538)
(0.203258 -0.527191 -0.247453)
(0.199809 -0.541426 -0.253399)
(0.109936 -0.254015 -0.178031)
(0.113677 -0.255651 -0.165847)
(0.116837 -0.226677 -0.146123)
(0.121801 -0.226814 -0.143929)
(0.147958 -0.350421 -0.165287)
(0.123018 -0.272352 -0.156969)
(0.137295 -0.344941 -0.173505)
(0.128608 -0.266238 -0.158788)
(0.181362 -0.511414 -0.257042)
(0.16542 -0.460378 -0.241748)
(0.108706 -0.304767 -0.182096)
(0.117635 -0.309974 -0.167498)
(0.116811 -0.355816 -0.191719)
(0.155109 -0.360432 -0.189095)
(0.139291 -0.306624 -0.169743)
(0.193057 -0.485157 -0.206962)
(0.144033 -0.304787 -0.184152)
(0.138996 -0.303288 -0.182119)
(0.116674 -0.231559 -0.178386)
(0.104908 -0.299488 -0.195683)
(0.178898 -0.504959 -0.233128)
(0.564214 -0.819539 -0.190696)
(0.575514 -0.822965 -0.199168)
(0.589667 -0.851969 -0.206032)
(0.580651 -0.859288 -0.209471)
(0.574013 -0.836432 -0.193674)
(0.570723 -0.798859 -0.19287)
(0.547948 -0.759453 -0.17678)
(0.599091 -0.850825 -0.214781)
(0.599985 -0.847299 -0.212176)
(0.604807 -0.810675 -0.212234)
(0.594428 -0.803031 -0.200257)
(0.573846 -0.822425 -0.162889)
(0.566346 -0.813952 -0.189886)
(0.563315 -0.794182 -0.172781)
(0.579586 -0.754694 -0.174345)
(0.585451 -0.763472 -0.186719)
(0.592111 -0.820079 -0.197304)
(0.599765 -0.784836 -0.192539)
(0.55319 -0.784635 -0.169362)
(0.56455 -0.756216 -0.168083)
(0.553447 -0.733146 -0.158466)
(0.575919 -0.802868 -0.172521)
(0.272576 -0.968013 -0.425422)
(0.27668 -0.983727 -0.447979)
(0.266504 -0.963602 -0.436499)
(0.299267 -0.941022 -0.494568)
(0.28432 -0.952746 -0.468239)
(0.305911 -1.00962 -0.419061)
(0.282132 -0.990108 -0.408418)
(0.293246 -0.935259 -0.461838)
(0.304597 -1.01464 -0.423109)
(0.326998 -0.983116 -0.414245)
(0.297231 -0.948398 -0.48337)
(0.315295 -0.953604 -0.488869)
(0.326626 -0.97866 -0.45656)
(0.302364 -0.978268 -0.430472)
(0.286399 -0.944571 -0.445936)
(0.314651 -0.986859 -0.452736)
(0.326461 -0.98968 -0.425635)
(0.329085 -0.99812 -0.412241)
(0.340315 -0.995711 -0.447801)
(0.318789 -1.01442 -0.41919)
(0.337591 -0.961477 -0.466923)
(0.331287 -0.988732 -0.459902)
(0.596728 -0.694381 -0.193299)
(0.621618 -0.820419 -0.22969)
(0.629848 -0.776369 -0.220751)
(0.63109 -0.759326 -0.211026)
(0.616772 -0.811416 -0.217367)
(0.560286 -0.674973 -0.158441)
(0.592071 -0.75204 -0.197047)
(0.554263 -0.698472 -0.18426)
(0.605373 -0.772269 -0.197207)
(0.622924 -0.795811 -0.217516)
(0.599332 -0.77537 -0.205424)
(0.583814 -0.750628 -0.186888)
(0.457346 -0.844452 -0.177041)
(0.465813 -0.857021 -0.17987)
(0.467773 -0.85593 -0.166859)
(0.451204 -0.843889 -0.160387)
(0.503847 -0.887126 -0.16638)
(0.489798 -0.840842 -0.158671)
(0.464291 -0.775533 -0.138031)
(0.444031 -0.885268 -0.198919)