/*--------------------------------*- C++ -*----------------------------------*\
| =========                 |                                                 |
| \\      /  F ield         | OpenFOAM: The Open Source CFD Toolbox           |
|  \\    /   O peration     | Version:  v1612+                                |
|   \\  /    A nd           | Web:      www.OpenFOAM.com                      |
|    \\/     M anipulation  |                                                 |
\*---------------------------------------------------------------------------*/
FoamFile
{
    version     2.0;
    format      ascii;
    class       volScalarField;
    location    "206";
    object      p;
}
// * * * * * * * * * * * * * * * * * * * * * * * * * * * * * * * * * * * * * //

dimensions      [0 2 -2 0 0 0 0];

internalField   nonuniform List<scalar> 
18946
(
0.495979
0.353371
0.439009
0.426936
0.465459
0.462744
0.465118
0.466636
0.46696
0.469185
0.468764
0.466365
0.466378
0.466723
0.469028
0.467474
0.471122
0.471143
0.467125
0.470047
0.455958
0.460822
0.448605
0.455338
0.461984
0.45785
0.457736
0.46102
0.464546
0.462654
0.458393
0.453214
0.455386
0.460045
0.453665
0.460752
0.456087
0.467373
0.461821
0.450306
0.450006
0.451363
0.447391
0.439817
0.448816
0.450848
0.444191
0.441868
0.441161
0.45743
0.451536
0.502371
0.49984
0.496735
0.500138
0.495158
0.496364
0.497323
0.500757
0.487073
0.48342
0.487254
0.484077
0.490831
0.490682
0.483486
0.462696
0.461099
0.467085
0.462801
0.466951
0.464861
0.462269
0.463864
0.46753
0.467606
0.467149
0.462835
0.458948
0.462605
0.460498
0.461379
0.489312
0.474046
0.488612
0.49904
0.477828
0.494086
0.479478
0.482393
0.479621
0.488853
0.478932
0.489126
0.498753
0.496521
0.501442
0.499892
0.495521
0.490194
0.49444
0.491416
0.485874
0.485872
0.503781
0.492278
0.505067
0.503335
0.48774
0.504284
0.492208
0.494356
0.503543
0.49244
0.502429
0.49723
0.420699
0.415699
0.426504
0.425039
0.410833
0.413812
0.415275
0.416093
0.41037
0.407882
0.415711
0.411792
0.416904
0.420227
0.414175
0.410188
0.416593
0.41033
0.416877
0.421697
0.413399
0.419227
0.416996
0.448594
0.439855
0.436049
0.436178
0.433578
0.437954
0.441254
0.44749
0.437743
0.433788
0.446592
0.442958
0.448092
0.438259
0.436751
0.441397
0.443425
0.449679
0.442348
0.44187
0.500267
0.50139
0.492348
0.487988
0.496194
0.495919
0.487219
0.487366
0.48375
0.488853
0.483619
0.480523
0.48297
0.479594
0.515939
0.516115
0.53042
0.516349
0.545941
0.546646
0.540038
0.532546
0.525812
0.540655
0.544527
0.548001
0.515685
0.518379
0.525313
0.523537
0.520881
0.548053
0.531842
0.532091
0.539379
0.536705
0.541662
0.506266
0.502411
0.505306
0.479695
0.495025
0.507812
0.504557
0.474181
0.477705
0.480667
0.477602
0.495348
0.477659
0.481525
0.49506
0.478722
0.474162
0.489719
0.444162
0.439924
0.441762
0.438278
0.442441
0.440094
0.442172
0.436392
0.445529
0.444499
0.443247
0.443677
0.443108
0.44278
0.567259
0.565989
0.579973
0.58849
0.564914
0.573244
0.581266
0.579156
0.587084
0.5904
0.512826
0.502279
0.499266
0.510404
0.51812
0.511943
0.517339
0.516093
0.488755
0.511352
0.510591
0.497997
0.492656
0.500178
0.487966
0.485703
0.487382
0.48015
0.478917
0.497232
0.431227
0.426186
0.433617
0.432535
0.435632
0.431903
0.428664
0.432627
0.434963
0.434008
0.435586
0.43505
0.431087
0.428996
0.43208
0.434433
0.429967
0.431711
0.431177
0.381075
0.380149
0.389428
0.383248
0.381863
0.38658
0.386779
0.392841
0.381074
0.383508
0.380966
0.38146
0.384406
0.384761
0.378475
0.386463
0.377606
0.38139
0.37777
0.377183
0.384834
0.386078
0.38437
0.382138
0.386428
0.385388
0.386598
0.383957
0.386754
0.399174
0.389955
0.394665
0.395859
0.386101
0.37805
0.384698
0.389881
0.393578
0.394798
0.39646
0.397069
0.419578
0.412168
0.413356
0.416815
0.419719
0.418209
0.410849
0.417941
0.41785
0.386742
0.383441
0.387094
0.389125
0.383141
0.377781
0.380434
0.384713
0.380896
0.376668
0.370987
0.376889
0.378293
0.379124
0.371283
0.381901
0.376864
0.380247
0.383556
0.375502
0.382984
0.391482
0.388717
0.385758
0.383659
0.391683
0.387097
0.393401
0.394906
0.402472
0.391229
0.406608
0.40882
0.410721
0.40372
0.404607
0.406312
0.408652
0.404916
0.417792
0.417739
0.410063
0.406391
0.412831
0.40366
0.412915
0.413964
0.417405
0.420656
0.417895
0.413496
0.415038
0.423749
0.421635
0.420874
0.411449
0.409421
0.410209
0.407903
0.40839
0.404034
0.40766
0.406092
0.403707
0.400473
0.406571
0.400052
0.395367
0.405158
0.401657
0.396692
0.397575
0.404776
0.414921
0.414772
0.412648
0.413525
0.411992
0.419327
0.419121
0.426508
0.429381
0.418581
0.411677
0.417924
0.422789
0.425327
0.42792
0.420257
0.423828
0.421355
0.41607
0.422947
0.46044
0.470271
0.471393
0.457302
0.460428
0.46399
0.462125
0.463193
0.466393
0.477309
0.469027
0.459454
0.47295
0.46992
0.463926
0.46792
0.440543
0.437969
0.434623
0.440725
0.443125
0.443845
0.442362
0.438992
0.438966
0.43839
0.442052
0.441641
0.43976
0.439841
0.458879
0.457263
0.448081
0.450009
0.458455
0.455078
0.453246
0.453245
0.45236
0.457964
0.457375
0.458633
0.459945
0.459303
0.438475
0.442806
0.451387
0.449965
0.444355
0.446479
0.447683
0.456816
0.456961
0.447868
0.448486
0.447258
0.449054
0.452689
0.448668
0.449707
0.440359
0.432088
0.432827
0.434196
0.429194
0.440647
0.441402
0.437347
0.430398
0.437644
0.435942
0.438551
0.412659
0.404898
0.413377
0.413155
0.417231
0.415674
0.416776
0.41127
0.414034
0.407974
0.409863
0.413925
0.418311
0.412526
0.457515
0.456127
0.451847
0.448246
0.445234
0.446112
0.441284
0.448914
0.456677
0.441878
0.441866
0.449061
0.4523
0.45929
0.459882
0.458737
0.447273
0.452729
0.450505
0.458944
0.454296
0.461776
0.460043
0.37872
0.381809
0.376708
0.370139
0.372334
0.377167
0.380755
0.3706
0.374544
0.383237
0.379426
0.377241
0.379768
0.429363
0.434913
0.433531
0.432775
0.433827
0.438143
0.43408
0.436803
0.43589
0.438553
0.442949
0.435639
0.439727
0.437108
0.399585
0.403917
0.402014
0.39204
0.393214
0.399469
0.399117
0.399206
0.400943
0.400708
0.40056
0.399505
0.392316
0.390317
0.389704
0.399541
0.39823
0.3927
0.394395
0.397415
0.430909
0.430695
0.421555
0.425493
0.421557
0.419413
0.423971
0.429815
0.432939
0.427258
0.426079
0.429274
0.416151
0.424842
0.430566
0.419537
0.421405
0.424604
0.423398
0.423794
0.423196
0.425494
0.422659
0.46509
0.467082
0.474757
0.470568
0.460351
0.461757
0.472339
0.462729
0.458269
0.457927
0.471042
0.470886
0.465
0.461246
0.45509
0.457035
0.453183
0.461814
0.467222
0.456874
0.46118
0.463508
0.463448
0.45859
0.455659
0.464629
0.457765
0.455927
0.447421
0.442176
0.443099
0.44303
0.451888
0.446873
0.455873
0.451402
0.459203
0.456347
0.458778
0.449551
0.446913
0.4435
0.445613
0.446212
0.453004
0.456241
0.458018
0.455467
0.459824
0.460135
0.46084
0.453748
0.466804
0.46156
0.462151
0.407162
0.407746
0.407394
0.412123
0.407461
0.410274
0.410276
0.411032
0.409318
0.405165
0.408029
0.407405
0.410094
0.41147
0.411485
0.526198
0.528983
0.524959
0.510545
0.527844
0.520017
0.530589
0.51475
0.506731
0.512905
0.511336
0.532199
0.52374
0.516624
0.50909
0.507084
0.516899
0.523015
0.509018
0.535826
0.537127
0.510765
0.533929
0.536655
0.514866
0.533364
0.469943
0.469621
0.48645
0.479023
0.483398
0.481993
0.470043
0.47135
0.48037
0.487118
0.480086
0.475452
0.481989
0.487322
0.47382
0.474589
0.478239
0.475832
0.473997
0.470359
0.474708
0.473041
0.47224
0.477809
0.478115
0.471303
0.471519
0.471798
0.471399
0.470129
0.47087
0.467525
0.469686
0.37751
0.379762
0.377406
0.376965
0.376317
0.372919
0.375774
0.382265
0.370935
0.373305
0.367514
0.375231
0.375319
0.373785
0.370496
0.381275
0.377294
0.379886
0.424078
0.426395
0.432865
0.429679
0.426323
0.425628
0.428892
0.431637
0.427834
0.423813
0.427704
0.429321
0.429599
0.429466
0.425368
0.426571
0.424064
0.426615
0.46435
0.467187
0.465201
0.465939
0.462271
0.462811
0.461325
0.460505
0.458037
0.461701
0.465775
0.465032
0.466702
0.460902
0.457607
0.456383
0.464438
0.462162
0.469956
0.465801
0.399518
0.3998
0.400617
0.400186
0.40597
0.410432
0.407916
0.4058
0.407016
0.405832
0.400588
0.406399
0.412177
0.525296
0.528657
0.534358
0.518601
0.520606
0.531071
0.523564
0.533837
0.536588
0.533919
0.535314
0.528123
0.518146
0.534186
0.535126
0.514246
0.527259
0.525492
0.513304
0.45871
0.456151
0.446804
0.452124
0.452106
0.4448
0.45027
0.453349
0.454321
0.450574
0.382809
0.377673
0.382521
0.385245
0.38001
0.374283
0.373436
0.385506
0.377487
0.390256
0.387596
0.379768
0.381347
0.39063
0.408817
0.406412
0.407327
0.398365
0.401676
0.404264
0.402199
0.411311
0.401721
0.399417
0.397016
0.400024
0.407877
0.408756
0.396082
0.399952
0.400782
0.403722
0.397149
0.405027
0.406821
0.403062
0.39951
0.405644
0.406329
0.408315
0.399859
0.405111
0.407937
0.408209
0.409263
0.407791
0.410024
0.406722
0.408803
0.40948
0.408943
0.409151
0.404333
0.41087
0.397664
0.403698
0.409646
0.399816
0.404983
0.408004
0.401987
0.401578
0.452676
0.450982
0.453785
0.452626
0.451424
0.456244
0.45128
0.452671
0.450688
0.453296
0.450509
0.456179
0.454679
0.454381
0.451242
0.451468
0.452503
0.45306
0.45007
0.392385
0.386832
0.385385
0.38716
0.393294
0.391027
0.386323
0.391755
0.386651
0.390231
0.396498
0.395475
0.395784
0.442663
0.441356
0.451268
0.445958
0.442325
0.440274
0.449328
0.443756
0.443886
0.452461
0.450474
0.439906
0.437754
0.452156
0.438223
0.447882
0.452078
0.456553
0.454152
0.449661
0.451604
0.456283
0.453934
0.451925
0.452921
0.464099
0.458036
0.455622
0.451501
0.456384
0.457017
0.453736
0.450533
0.42849
0.42264
0.433157
0.428317
0.430747
0.430802
0.430649
0.428677
0.425792
0.427816
0.414394
0.418304
0.41693
0.424791
0.422366
0.418304
0.425408
0.414193
0.417677
0.42071
0.454579
0.456914
0.454772
0.456147
0.452131
0.449816
0.458163
0.46049
0.453293
0.455392
0.533806
0.531128
0.535502
0.536173
0.528578
0.525271
0.529275
0.532593
0.516492
0.517335
0.521898
0.526207
0.515674
0.512197
0.525976
0.510508
0.510838
0.512422
0.517734
0.514066
0.501003
0.480799
0.501783
0.500637
0.507013
0.505213
0.485307
0.484098
0.494084
0.494326
0.504914
0.486039
0.500449
0.500664
0.4927
0.496681
0.490406
0.496162
0.489459
0.483877
0.494956
0.481318
0.477621
0.493775
0.495491
0.495569
0.47149
0.48703
0.481304
0.488866
0.495892
0.497703
0.479367
0.490564
0.487574
0.487895
0.487814
0.506786
0.50174
0.490557
0.484731
0.489055
0.494902
0.497987
0.506308
0.500578
0.492396
0.490002
0.484039
0.49253
0.493608
0.484089
0.490078
0.48655
0.486838
0.486199
0.445862
0.448898
0.449193
0.443754
0.44926
0.448394
0.441557
0.441356
0.446204
0.444282
0.441295
0.445282
0.432436
0.438307
0.44742
0.44997
0.434856
0.444491
0.448432
0.448731
0.445254
0.447281
0.443708
0.439464
0.448235
0.441477
0.444221
0.439093
0.435654
0.432645
0.440666
0.433048
0.439069
0.438379
0.44596
0.438708
0.440185
0.436438
0.442344
0.443458
0.442756
0.44034
0.443944
0.442597
0.438785
0.434671
0.438816
0.431368
0.433532
0.440425
0.442122
0.435364
0.436623
0.431581
0.436304
0.435423
0.437149
0.430397
0.561514
0.562868
0.571514
0.476205
0.476732
0.477477
0.478229
0.481251
0.477793
0.581182
0.476884
0.477251
0.479876
0.535827
0.545102
0.551801
0.496874
0.49261
0.551749
0.548937
0.469291
0.468866
0.470646
0.469039
0.471144
0.470331
0.469382
0.468215
0.552639
0.551228
0.462672
0.46697
0.500084
0.499983
0.511144
0.519797
0.518848
0.462226
0.461931
0.465297
0.527647
0.524946
0.538892
0.482628
0.487005
0.490648
0.494606
0.464341
0.464684
0.518416
0.523209
0.518398
0.465106
0.463333
0.46403
0.45791
0.454976
0.449193
0.46058
0.460246
0.488393
0.490932
0.458791
0.458839
0.454085
0.47656
0.488125
0.479934
0.48412
0.469516
0.508878
0.502621
0.502165
0.490553
0.45826
0.457285
0.486051
0.485424
0.459766
0.461253
0.480698
0.483317
0.476814
0.486076
0.450555
0.45147
0.454168
0.452674
0.451752
0.449637
0.465453
0.46476
0.461153
0.456823
0.460461
0.443316
0.44504
0.45382
0.444681
0.449435
0.450828
0.454188
0.459764
0.457059
0.458846
0.457992
0.454357
0.4433
0.455495
0.453461
0.457307
0.440756
0.438739
0.442929
0.443787
0.443826
0.447965
0.448091
0.445793
0.444223
0.441794
0.44524
0.441461
0.443035
0.442659
0.439882
0.434958
0.449431
0.443843
0.44283
0.435532
0.439669
0.432173
0.442087
0.443483
0.438215
0.439573
0.427267
0.426161
0.433139
0.426438
0.429268
0.434133
0.425252
0.424954
0.414429
0.424711
0.422835
0.428112
0.428928
0.437927
0.43535
0.422848
0.419314
0.432911
0.436127
0.43697
0.408029
0.415317
0.410059
0.415336
0.4145
0.427459
0.420739
0.428374
0.424856
0.431641
0.431522
0.412546
0.414431
0.411587
0.42138
0.430909
0.427701
0.430007
0.430389
0.405891
0.401436
0.401386
0.394529
0.392703
0.389992
0.390581
0.393826
0.396506
0.423305
0.423157
0.427631
0.426596
0.425876
0.428136
0.408751
0.406254
0.40609
0.403342
0.407868
0.401521
0.420496
0.417514
0.422582
0.390022
0.391993
0.373763
0.374287
0.411134
0.419666
0.416222
0.41435
0.422563
0.420073
0.415478
0.415945
0.380019
0.382451
0.376865
0.374216
0.378515
0.379514
0.386319
0.415114
0.415069
0.411549
0.364187
0.360897
0.3983
0.400414
0.355026
0.352944
0.411985
0.410619
0.409141
0.40763
0.357558
0.355881
0.418072
0.417049
0.415648
0.414864
0.412323
0.410868
0.408274
0.37608
0.370586
0.363632
0.356226
0.41016
0.409917
0.420307
0.416121
0.413559
0.413411
0.418252
0.414293
0.416808
0.408964
0.413635
0.420587
0.41811
0.414791
0.38725
0.386389
0.381629
0.380901
0.381321
0.376617
0.375969
0.379036
0.378304
0.383071
0.377317
0.380363
0.383099
0.396487
0.392095
0.394672
0.386214
0.383026
0.388024
0.388043
0.36478
0.358479
0.35851
0.360113
0.360195
0.358998
0.352845
0.354747
0.358472
0.358252
0.359936
0.361844
0.352703
0.400623
0.398733
0.414365
0.407752
0.399506
0.404824
0.403538
0.372698
0.369574
0.384596
0.376449
0.375713
0.374062
0.371037
0.372964
0.367817
0.361126
0.371059
0.369561
0.368899
0.370309
0.368551
0.363722
0.360907
0.369435
0.365327
0.368453
0.409768
0.411058
0.415449
0.416039
0.410456
0.411602
0.413391
0.421128
0.420944
0.418912
0.414299
0.41448
0.41489
0.414984
0.41564
0.409758
0.409337
0.404874
0.406337
0.408464
0.40606
0.410265
0.412277
0.41351
0.411518
0.410736
0.407104
0.40825
0.41125
0.401564
0.412335
0.410671
0.386912
0.378247
0.387885
0.384564
0.384977
0.384657
0.421618
0.422004
0.419678
0.412787
0.412124
0.405951
0.415813
0.41376
0.406558
0.405125
0.406173
0.412126
0.413497
0.424824
0.41781
0.41761
0.415537
0.383596
0.37619
0.381244
0.363101
0.369714
0.373712
0.375536
0.374904
0.367014
0.40101
0.393116
0.394286
0.398375
0.400974
0.391286
0.409209
0.398401
0.39482
0.392388
0.396103
0.387643
0.393105
0.391627
0.394251
0.393938
0.391974
0.391732
0.420567
0.415214
0.423
0.41848
0.418953
0.430538
0.425874
0.42081
0.420843
0.425259
0.421034
0.418251
0.423347
0.424566
0.421132
0.421479
0.419405
0.421978
0.397845
0.403887
0.394841
0.400609
0.40531
0.411567
0.412116
0.405782
0.403291
0.410847
0.410419
0.40292
0.399249
0.408322
0.404022
0.400461
0.416455
0.412646
0.410301
0.411013
0.404428
0.418403
0.411397
0.416768
0.413615
0.409637
0.414432
0.416062
0.401412
0.40502
0.394607
0.406813
0.402825
0.397486
0.409907
0.404661
0.405409
0.408587
0.411357
0.414481
0.408089
0.409334
0.413458
0.415316
0.406726
0.413202
0.409174
0.427057
0.422238
0.421074
0.419982
0.424361
0.429296
0.426013
0.430222
0.422708
0.428919
0.426603
0.425074
0.402435
0.404929
0.396098
0.393383
0.383101
0.380777
0.377838
0.395818
0.398893
0.402444
0.386801
0.388629
0.40719
0.404064
0.395846
0.398588
0.400068
0.401385
0.412108
0.406189
0.39726
0.412104
0.407816
0.411016
0.407318
0.407045
0.408879
0.410268
0.410259
0.402275
0.407165
0.409539
0.396984
0.400774
0.406867
0.405729
0.405613
0.404861
0.436608
0.435454
0.433679
0.429905
0.426519
0.428458
0.426101
0.418986
0.418682
0.433103
0.428448
0.428338
0.426678
0.424526
0.414989
0.423131
0.425891
0.419896
0.416609
0.422055
0.421594
0.422195
0.429809
0.4222
0.425452
0.417803
0.407994
0.406107
0.397079
0.397693
0.398602
0.406887
0.407702
0.404846
0.400238
0.396973
0.40886
0.402869
0.431263
0.435135
0.433186
0.428201
0.430159
0.4316
0.431251
0.435149
0.435077
0.431687
0.433048
0.428297
0.431154
0.43174
0.425634
0.425083
0.424201
0.425851
0.42839
0.429037
0.429064
0.429293
0.429512
0.429048
0.432354
0.431185
0.423298
0.429682
0.426112
0.424531
0.425571
0.42553
0.422899
0.425574
0.419807
0.412799
0.425696
0.425236
0.424989
0.424563
0.417206
0.417814
0.420136
0.416792
0.407944
0.412871
0.407779
0.414195
0.40743
0.406314
0.438753
0.442583
0.439208
0.433538
0.435892
0.440609
0.438246
0.439261
0.435049
0.435302
0.439301
0.442228
0.435398
0.436581
0.437188
0.438644
0.438694
0.436035
0.436329
0.43767
0.432934
0.42972
0.434072
0.433092
0.422685
0.427378
0.424841
0.427913
0.424477
0.423196
0.427451
0.43233
0.419707
0.415814
0.413229
0.412766
0.425949
0.422993
0.4173
0.419288
0.417593
0.414576
0.444119
0.43719
0.43791
0.435199
0.434354
0.437443
0.436644
0.439236
0.435325
0.435776
0.419716
0.431775
0.433483
0.429429
0.430357
0.428919
0.434644
0.436026
0.428056
0.433932
0.424687
0.423567
0.428865
0.427326
0.435567
0.423854
0.432239
0.426082
0.419195
0.427799
0.42703
0.425769
0.416262
0.420185
0.431593
0.4294
0.423295
0.42417
0.425209
0.437706
0.432183
0.429049
0.426311
0.42619
0.426688
0.431338
0.434247
0.432432
0.432349
0.422225
0.424746
0.427773
0.442781
0.437747
0.435242
0.427131
0.422955
0.431761
0.435143
0.433001
0.422784
0.427385
0.420843
0.423266
0.42388
0.431993
0.432646
0.430121
0.426053
0.429301
0.434905
0.430795
0.419376
0.420415
0.424775
0.429548
0.434529
0.428802
0.428316
0.444139
0.444976
0.441039
0.438155
0.438079
0.440897
0.441127
0.438551
0.43969
0.441013
0.437666
0.436777
0.437969
0.439197
0.437345
0.434767
0.432847
0.433791
0.432901
0.437542
0.435659
0.4333
0.434193
0.436883
0.437168
0.435977
0.433114
0.43745
0.43558
0.433919
0.432391
0.434968
0.436075
0.428071
0.435782
0.42858
0.431817
0.433764
0.436157
0.43348
0.449384
0.446829
0.442691
0.443961
0.448212
0.44687
0.435308
0.433549
0.445379
0.438689
0.437624
0.439441
0.431231
0.436185
0.449157
0.432228
0.439323
0.439447
0.43787
0.441952
0.436811
0.441523
0.441029
0.442228
0.44913
0.446491
0.446367
0.44119
0.443838
0.443464
0.441775
0.443851
0.437702
0.43887
0.438008
0.437408
0.4402
0.440466
0.438585
0.432111
0.446462
0.437386
0.432852
0.445334
0.436952
0.434325
0.428688
0.440804
0.435246
0.436355
0.443867
0.441932
0.441698
0.440515
0.455936
0.445961
0.448827
0.447733
0.437167
0.447988
0.443175
0.42784
0.435665
0.438041
0.439046
0.438736
0.43519
0.426478
0.428749
0.43081
0.430548
0.430438
0.444867
0.444267
0.44687
0.449654
0.451973
0.445742
0.447588
0.44206
0.448609
0.447509
0.434958
0.44036
0.442258
0.440721
0.436654
0.439906
0.442515
0.4492
0.445844
0.442755
0.455048
0.447222
0.451809
0.453159
0.454435
0.446297
0.44629
0.446044
0.447131
0.445066
0.456301
0.453079
0.449557
0.431342
0.431742
0.425334
0.44024
0.433614
0.434986
0.441857
0.437492
0.434677
0.438723
0.436727
0.447926
0.449993
0.446679
0.447506
0.449016
0.449821
0.443948
0.442957
0.441093
0.455343
0.45014
0.449778
0.449065
0.446482
0.434131
0.441665
0.438373
0.4519
0.456185
0.449194
0.44827
0.432137
0.438203
0.436029
0.436512
0.444719
0.438406
0.437752
0.447497
0.448848
0.44539
0.442301
0.453142
0.444196
0.443954
0.436141
0.43894
0.448975
0.448381
0.445748
0.446496
0.444812
0.437614
0.452927
0.442398
0.442001
0.442291
0.443056
0.443923
0.459462
0.450433
0.443787
0.456369
0.457074
0.455166
0.470714
0.46664
0.462
0.453464
0.464494
0.459511
0.462921
0.470962
0.475433
0.469641
0.470855
0.463529
0.457498
0.46557
0.462156
0.460131
0.46328
0.452634
0.459949
0.461114
0.455856
0.452192
0.450265
0.450986
0.447128
0.442069
0.446384
0.448102
0.450724
0.450669
0.44503
0.446334
0.44351
0.444522
0.442316
0.446591
0.441213
0.445295
0.445005
0.447934
0.440839
0.44314
0.440262
0.443283
0.453297
0.449858
0.448904
0.447227
0.469096
0.458605
0.467294
0.463029
0.460415
0.454115
0.451755
0.474991
0.473816
0.468943
0.450031
0.46254
0.457535
0.45179
0.469095
0.46372
0.458531
0.457861
0.466993
0.467184
0.467687
0.455285
0.45544
0.454014
0.45179
0.454105
0.450839
0.451673
0.448752
0.449068
0.454866
0.458436
0.458172
0.454217
0.457206
0.453413
0.453069
0.458616
0.454253
0.451736
0.44737
0.448197
0.445822
0.447819
0.450895
0.445854
0.449649
0.44933
0.450614
0.499524
0.495625
0.491909
0.487874
0.48722
0.480129
0.487106
0.478934
0.491192
0.487909
0.474311
0.490915
0.484919
0.487876
0.478904
0.469492
0.481279
0.479894
0.476581
0.472721
0.460524
0.456726
0.473149
0.467898
0.473471
0.47849
0.477069
0.478997
0.473922
0.475378
0.461302
0.466174
0.477104
0.469185
0.470773
0.464709
0.466562
0.464092
0.453029
0.466886
0.463685
0.470471
0.473229
0.461518
0.455609
0.452045
0.43812
0.458763
0.456567
0.455988
0.455862
0.450863
0.460018
0.459794
0.506508
0.505061
0.500463
0.504231
0.482029
0.493998
0.490427
0.494632
0.483303
0.480348
0.492916
0.488543
0.492442
0.494461
0.498182
0.493199
0.49427
0.493902
0.489408
0.482121
0.477267
0.480296
0.468381
0.464764
0.468716
0.471754
0.478895
0.480242
0.478234
0.47514
0.459831
0.459175
0.452086
0.45909
0.45877
0.455217
0.459495
0.4503
0.455872
0.457902
0.459054
0.463007
0.457173
0.455417
0.455575
0.449587
0.459527
0.45388
0.449081
0.45336
0.453894
0.447636
0.451338
0.458425
0.453291
0.453754
0.455095
0.454299
0.456038
0.452062
0.456724
0.454013
0.451907
0.452978
0.505511
0.497735
0.489928
0.487212
0.49561
0.512645
0.51208
0.508429
0.50901
0.487937
0.501417
0.478927
0.479724
0.483826
0.489577
0.488636
0.469472
0.468485
0.482027
0.482708
0.477126
0.458044
0.465048
0.458155
0.458774
0.461963
0.456264
0.462169
0.457959
0.459075
0.460998
0.451208
0.457799
0.454476
0.453408
0.447814
0.451009
0.452155
0.459231
0.452475
0.453532
0.456442
0.455782
0.454668
0.452658
0.457613
0.457397
0.45885
0.46263
0.455497
0.453597
0.454381
0.462108
0.454502
0.458583
0.458658
0.458696
0.503043
0.502036
0.511569
0.51006
0.503265
0.482327
0.46768
0.470302
0.462564
0.464878
0.464592
0.481437
0.472629
0.467718
0.479183
0.47295
0.482129
0.480938
0.463944
0.464665
0.461989
0.458099
0.463347
0.460172
0.459965
0.458404
0.458738
0.459552
0.458362
0.465603
0.462334
0.452092
0.458782
0.465206
0.455271
0.457268
0.462895
0.455341
0.446866
0.448146
0.453942
0.451461
0.4723
0.466666
0.463049
0.465735
0.467709
0.472474
0.464743
0.460227
0.480537
0.473187
0.478612
0.46458
0.469659
0.469316
0.467854
0.472572
0.466984
0.527924
0.527368
0.517775
0.514139
0.532317
0.531445
0.543077
0.539624
0.519763
0.531192
0.519716
0.534593
0.528418
0.509059
0.496641
0.501276
0.494575
0.492463
0.499824
0.499801
0.504106
0.51332
0.509855
0.509378
0.508756
0.505776
0.505124
0.498828
0.492265
0.505748
0.510902
0.513387
0.521257
0.518604
0.521553
0.520449
0.516383
0.46792
0.468443
0.466708
0.465518
0.462571
0.466115
0.464706
0.464347
0.46606
0.467154
0.469443
0.467949
0.463473
0.466885
0.466065
0.464542
0.465099
0.461729
0.460856
0.463397
0.464967
0.463962
0.461884
0.517066
0.50989
0.516013
0.509406
0.487628
0.489204
0.500269
0.501943
0.500122
0.487789
0.46954
0.479905
0.477192
0.481456
0.474007
0.473094
0.468697
0.482278
0.477909
0.489109
0.486916
0.486428
0.534042
0.522285
0.512498
0.522881
0.501227
0.514996
0.503377
0.508222
0.501484
0.509942
0.513213
0.523112
0.517084
0.548073
0.535491
0.546122
0.468009
0.464091
0.463998
0.464722
0.467433
0.464479
0.461648
0.457738
0.45913
0.463411
0.459276
0.459811
0.46074
0.456009
0.543338
0.529346
0.525567
0.48964
0.478213
0.488411
0.475238
0.470432
0.47737
0.470719
0.474759
0.490272
0.490679
0.480577
0.477843
0.473137
0.489611
0.491679
0.521391
0.513763
0.525484
0.514467
0.502489
0.497845
0.504211
0.499606
0.49693
0.491521
0.495393
0.493358
0.513815
0.512568
0.50547
0.50165
0.465908
0.468163
0.45805
0.465152
0.466478
0.463018
0.457772
0.460994
0.469855
0.472486
0.480253
0.479268
0.480537
0.469817
0.467893
0.462352
0.467822
0.465154
0.461659
0.470217
0.462235
0.457965
0.454574
0.456763
0.576463
0.565578
0.563378
0.562847
0.562781
0.548576
0.531438
0.541586
0.533079
0.543198
0.544437
0.538789
0.535571
0.471933
0.472877
0.476444
0.474748
0.472354
0.469923
0.468897
0.468329
0.474313
0.475502
0.473578
0.473037
0.474522
0.477083
0.475249
0.473836
0.468283
0.470369
0.461833
0.466534
0.469318
0.470377
0.462037
0.461128
0.470172
0.468098
0.467914
0.471092
0.460074
0.463853
0.466757
0.467073
0.469923
0.472572
0.468174
0.467891
0.468287
0.468624
0.468138
0.53567
0.524246
0.526142
0.538082
0.538913
0.533193
0.560775
0.548078
0.536799
0.530492
0.551425
0.54835
0.552453
0.568454
0.578487
0.569478
0.555914
0.53472
0.539961
0.530898
0.520932
0.529169
0.524631
0.536471
0.531295
0.539436
0.534665
0.501194
0.49473
0.495501
0.49523
0.477976
0.472963
0.476454
0.472207
0.471286
0.485797
0.472336
0.484367
0.488029
0.509661
0.530376
0.510088
0.505258
0.535737
0.499687
0.506654
0.495979
0.490937
0.491524
0.50034
0.501814
0.502747
0.49349
0.511865
0.509999
0.506662
0.574718
0.563861
0.551276
0.560911
0.55179
0.550088
0.551361
0.542604
0.538026
0.538981
0.538714
0.530882
0.530788
0.536664
0.533003
0.534903
0.478274
0.476777
0.472574
0.466633
0.462029
0.471814
0.465411
0.467076
0.477125
0.471831
0.468624
0.470402
0.472157
0.460164
0.46636
0.467124
0.469303
0.470361
0.469459
0.46467
0.478593
0.474557
0.480533
0.469915
0.465748
0.471199
0.568632
0.569976
0.588468
0.581675
0.578221
0.581883
0.577229
0.478155
0.478997
0.475919
0.478509
0.472913
0.477364
0.482638
0.475306
0.479548
0.474542
0.47711
0.479311
0.481191
0.480051
0.479648
0.471841
0.549763
0.550205
0.549605
0.530318
0.541091
0.551614
0.545991
0.541969
0.550492
0.477392
0.48086
0.477435
0.486028
0.484272
0.481017
0.483605
0.48221
0.483039
0.588121
0.573165
0.474546
0.475194
0.47276
0.472522
0.470297
0.475209
0.475944
0.50639
0.510022
0.509688
0.522104
0.51989
0.525102
0.522775
0.480413
0.497385
0.498407
0.493715
0.493327
0.573468
0.57245
0.588114
0.580389
0.574732
0.5675
0.566005
0.588359
0.591913
0.563569
0.563285
0.562372
0.553596
0.561828
0.550625
0.562632
0.565709
0.563524
0.56247
0.468271
0.468804
0.471851
0.469511
0.475003
0.472246
0.470337
0.474555
0.477362
0.47839
0.471894
0.474206
0.474436
0.471799
0.474631
0.476142
0.468026
0.469231
0.479658
0.475206
0.475587
0.470974
0.471564
0.469791
0.472101
0.471082
0.541981
0.543678
0.548197
0.549895
0.554925
0.56129
0.550012
0.553172
0.553899
0.57124
0.571771
0.572721
0.571851
0.565463
0.565599
0.561804
0.569182
0.572929
0.472453
0.471514
0.482214
0.479739
0.465817
0.472971
0.485317
0.472678
0.466257
0.481878
0.488193
0.480914
0.488521
0.489571
0.464122
0.465681
0.46412
0.46486
0.467606
0.466584
0.461903
0.460494
0.464565
0.466583
0.466001
0.466705
0.466291
0.532523
0.536674
0.528772
0.530427
0.544593
0.541382
0.538523
0.538461
0.509166
0.509827
0.520525
0.516211
0.519633
0.513128
0.500001
0.5041
0.513641
0.507744
0.504154
0.521099
0.518378
0.505514
0.506909
0.479808
0.481188
0.475376
0.482873
0.507982
0.522232
0.516621
0.522183
0.51231
0.511064
0.502888
0.501624
0.522244
0.509391
0.504833
0.461712
0.457425
0.457204
0.4564
0.458899
0.464954
0.465088
0.463245
0.468811
0.464579
0.462395
0.448615
0.44583
0.444298
0.454827
0.462391
0.457179
0.461987
0.46148
0.461114
0.465095
0.45919
0.461151
0.457512
0.484707
0.482491
0.486245
0.489491
0.491514
0.495533
0.498088
0.492268
0.496389
0.495542
0.460287
0.462807
0.462919
0.463544
0.463088
0.461261
0.462021
0.458061
0.466058
0.464
0.46378
0.500215
0.492527
0.494057
0.48863
0.487258
0.50094
0.500121
0.498494
0.449866
0.443836
0.451942
0.443907
0.448192
0.449234
0.447175
0.463453
0.457436
0.460582
0.456234
0.458361
0.462959
0.451543
0.45675
0.452894
0.470204
0.469948
0.478207
0.48411
0.484202
0.484258
0.482326
0.477362
0.481702
0.478048
0.478439
0.47516
0.488507
0.483149
0.485438
0.487612
0.482485
0.477332
0.47884
0.496621
0.4937
0.494404
0.493831
0.485786
0.45294
0.454523
0.451171
0.453048
0.453008
0.450796
0.455813
0.453303
0.452986
0.452011
0.452563
0.452466
0.453575
0.449914
0.452973
0.452035
0.452124
0.451405
0.452605
0.452747
0.458989
0.459222
0.4581
0.457074
0.45856
0.454724
0.455845
0.460539
0.459918
0.456461
0.455989
0.456937
0.455688
0.446624
0.446981
0.449428
0.445852
0.44943
0.448514
0.448244
0.449247
0.44901
0.442247
0.445915
0.447975
0.457616
0.442799
0.448893
0.454563
0.456429
0.44086
0.440681
0.450611
0.450945
0.440597
0.443305
0.442003
0.443289
0.439926
0.448494
0.442393
0.446635
0.446661
0.45383
0.452605
0.451502
0.458338
0.459974
0.449694
0.449107
0.447059
0.451075
0.450096
0.45661
0.453294
0.436669
0.430209
0.431749
0.433376
0.442292
0.436465
0.432602
0.434691
0.437163
0.437812
0.432184
0.437107
0.441611
0.429482
0.430694
0.432003
0.438632
0.433693
0.429152
0.432284
0.434006
0.434537
0.439243
0.440749
0.440159
0.444334
0.443033
0.442879
0.441433
0.443139
0.440992
0.437213
0.437407
0.437291
0.440246
0.440159
0.434661
0.437626
0.437558
0.43905
0.412063
0.408554
0.405918
0.41891
0.418592
0.419914
0.413294
0.418747
0.421912
0.413976
0.418375
0.443135
0.439972
0.42859
0.435448
0.429211
0.431959
0.434744
0.436051
0.433185
0.439518
0.439526
0.432318
0.440132
0.444027
0.4376
0.437713
0.437168
0.437461
0.436707
0.431463
0.431891
0.419246
0.425714
0.42524
0.431839
0.437787
0.427168
0.43261
0.436129
0.435075
0.42488
0.42775
0.423963
0.427479
0.420069
0.42969
0.432034
0.434505
0.438022
0.432216
0.434783
0.424484
0.417775
0.429665
0.428831
0.424645
0.418916
0.426009
0.420945
0.419356
0.423569
0.419612
0.440227
0.4332
0.431206
0.436204
0.432763
0.434616
0.436969
0.432011
0.432121
0.430893
0.424001
0.419585
0.435163
0.426096
0.428263
0.426336
0.42365
0.428087
0.42981
0.412631
0.424013
0.419739
0.417767
0.428822
0.419234
0.424862
0.419801
0.409307
0.419743
0.412858
0.413327
0.417684
0.421167
0.415864
0.414797
0.424264
0.435047
0.431187
0.433868
0.432146
0.429782
0.433391
0.42918
0.436997
0.429471
0.401544
0.395899
0.398587
0.406882
0.400868
0.404667
0.381912
0.379487
0.392468
0.389438
0.386854
0.387899
0.396214
0.389644
0.392707
0.38219
0.388792
0.383353
0.387386
0.386763
0.392917
0.388986
0.399657
0.396297
0.408009
0.406809
0.40542
0.399048
0.402809
0.402297
0.404
0.404808
0.402357
0.407692
0.397854
0.397035
0.415585
0.420508
0.426248
0.426569
0.426987
0.434826
0.420793
0.423814
0.419098
0.424743
0.420688
0.418589
0.429536
0.427844
0.413549
0.418801
0.417696
0.418831
0.418569
0.411937
0.417173
0.413122
0.419782
0.418687
0.416324
0.413645
0.409828
0.397557
0.396837
0.395517