/*--------------------------------*- C++ -*----------------------------------*\
| =========                 |                                                 |
| \\      /  F ield         | OpenFOAM: The Open Source CFD Toolbox           |
|  \\    /   O peration     | Version:  v1612+                                |
|   \\  /    A nd           | Web:      www.OpenFOAM.com                      |
|    \\/     M anipulation  |                                                 |
\*---------------------------------------------------------------------------*/
FoamFile
{
    version     2.0;
    format      ascii;
    class       volVectorField;
    location    "200";
    object      wallShearStress;
}
// * * * * * * * * * * * * * * * * * * * * * * * * * * * * * * * * * * * * * //

dimensions      [0 2 -2 0 0 0 0];

internalField   uniform (0 0 0);

boundaryField
{
    WALL
    {
        type            calculated;
        value           nonuniform List<vector> 
1497
(
(0.00497019 -0.00636438 0.0113299)
(0.00477574 -0.00559543 0.010667)
(0.00505641 -0.00573204 0.0110137)
(0.00527019 -0.00600303 0.0117233)
(0.00512624 -0.00558902 0.0106847)
(0.00493749 -0.00598421 0.0112143)
(0.00483107 -0.00557444 0.0106802)
(0.00474757 -0.00592857 0.0108267)
(0.00505195 -0.00640145 0.0118637)
(0.0047913 -0.00569616 0.010906)
(0.00511819 -0.005635 0.0107373)
(0.00452833 -0.00600896 0.0108209)
(0.004718 -0.0059328 0.0105951)
(0.0048506 -0.00616807 0.0109103)
(0.00504615 -0.00537439 0.0108643)
(0.00447864 -0.00601309 0.0103805)
(0.00498783 -0.00592519 0.0110928)
(0.00499713 -0.00571648 0.0108316)
(0.00474297 -0.00617202 0.0110613)
(0.00541322 -0.00572911 0.0111146)
(0.00492415 -0.0061912 0.0111439)
(0.00502858 -0.00629865 0.0112448)
(0.00507608 -0.00660884 0.0112524)
(0.00475807 -0.00560818 0.0105476)
(0.00456925 -0.0058048 0.0105743)
(0.00504876 -0.00621888 0.0113268)
(0.00497184 -0.00540483 0.0108428)
(0.00474003 -0.00567148 0.010677)
(0.00477689 -0.00589612 0.0106076)
(0.00452099 -0.0055284 0.0101344)
(0.00481436 -0.00572727 0.0106339)
(0.00437093 -0.00556648 0.0103247)
(0.00464813 -0.00578677 0.0106865)
(0.00495401 -0.00594587 0.0109887)
(0.00481682 -0.00559378 0.0107318)
(0.00480659 -0.00606033 0.0109256)
(0.00510691 -0.00610236 0.0113752)
(0.00497895 -0.00578162 0.0108178)
(0.00496317 -0.0060286 0.0111039)
(0.00497531 -0.00603951 0.0110489)
(0.00495793 -0.00590422 0.0109177)
(0.0048821 -0.00599852 0.0109829)
(0.00464367 -0.005957 0.0109297)
(0.00499954 -0.00579827 0.0109388)
(0.00472141 -0.00601116 0.0109801)
(0.00507991 -0.005936 0.01112)
(0.0047252 -0.00610939 0.011061)
(0.00509463 -0.00601965 0.0113223)
(0.00478882 -0.00579511 0.0107961)
(0.00502869 -0.00599939 0.0111503)
(0.00464408 -0.00577779 0.0108675)
(0.00456289 -0.00570234 0.010571)
(0.00492914 -0.00582503 0.011107)
(0.00489113 -0.00591494 0.0109036)
(0.00491831 -0.00582852 0.0109741)
(0.0047452 -0.00600177 0.0108588)
(0.00475933 -0.00604593 0.0107835)
(0.0048011 -0.00601074 0.0109759)
(0.00499063 -0.00593636 0.0106526)
(0.00510406 -0.00588097 0.0105596)
(0.00466269 -0.00568811 0.0109912)
(0.00454405 -0.00573776 0.0104017)
(0.00467542 -0.00576923 0.0105942)
(0.00506329 -0.00605846 0.0107969)
(0.00496885 -0.00609591 0.0110277)
(0.00461924 -0.0059558 0.0113279)
(0.00524273 -0.00631632 0.0111494)
(0.00494063 -0.00595152 0.0108602)
(0.00524422 -0.00644401 0.011208)
(0.00509321 -0.00623731 0.0109671)
(0.00482611 -0.00583214 0.0110324)
(0.00478704 -0.0058 0.0108899)
(0.00498664 -0.00596686 0.0109912)
(0.00476161 -0.00563554 0.0106575)
(0.00492536 -0.00583954 0.0111577)
(0.00466875 -0.00579427 0.0110425)
(0.00485343 -0.00595344 0.0112454)
(0.00490694 -0.0059185 0.011013)
(0.0049801 -0.00592193 0.0107204)
(0.00485706 -0.00593635 0.0109506)
(0.00501693 -0.00574744 0.0105485)
(0.0048119 -0.00606772 0.0113127)
(0.00494389 -0.00591375 0.0113892)
(0.00487882 -0.00606756 0.0114867)
(0.0048985 -0.00582184 0.0114288)
(0.00503717 -0.00642984 0.011456)
(0.00473986 -0.00583188 0.01145)
(0.00482077 -0.0055751 0.0110062)
(0.00502678 -0.00585633 0.0109005)
(0.00479464 -0.0053648 0.0103321)
(0.00478363 -0.00582206 0.0106692)
(0.00480884 -0.00579058 0.0107039)
(0.0047907 -0.00580024 0.0107823)
(0.00488258 -0.00577357 0.0108025)
(0.0049381 -0.00584835 0.0107224)
(0.00464179 -0.00578193 0.0107065)
(0.00480936 -0.0058948 0.010833)
(0.00468856 -0.00566742 0.0106466)
(0.00479024 -0.0057129 0.0107798)
(0.00473864 -0.00572165 0.0106742)
(0.00458258 -0.00581707 0.0105973)
(0.00479569 -0.0059115 0.0107404)
(0.00474799 -0.00573209 0.0106224)
(0.00499898 -0.00580635 0.0110583)
(0.0049169 -0.0054157 0.0110194)
(0.00514928 -0.00612363 0.011503)
(0.0049646 -0.00564439 0.0108474)
(0.00460478 -0.00548413 0.0103488)
(0.00484721 -0.00582446 0.0109131)
(0.00525952 -0.00632288 0.0119045)
(0.00558401 -0.00644963 0.0120916)
(0.00464215 -0.00648619 0.0108914)
(0.00499065 -0.00589272 0.0107676)
(0.00524822 -0.00615882 0.0121249)
(0.00533833 -0.00575968 0.0114642)
(0.00491269 -0.00619176 0.0111197)
(0.00491639 -0.00600709 0.0109657)
(0.00509193 -0.00599154 0.0110878)
(0.00497172 -0.00608818 0.0110758)
(0.00494143 -0.00605691 0.011289)
(0.00484142 -0.00605269 0.0109466)
(0.00488132 -0.00597331 0.0110416)
(0.00470241 -0.00608569 0.0109972)
(0.0048359 -0.00596736 0.0109455)
(0.00474485 -0.00584166 0.0108003)
(0.00485541 -0.00590323 0.0109432)
(0.00495014 -0.00583399 0.0108389)
(0.00493729 -0.00612555 0.0113866)
(0.00527433 -0.00631549 0.0116887)
(0.00493 -0.00614473 0.0111057)
(0.00508764 -0.00603932 0.0113131)
(0.00493826 -0.0058419 0.010961)
(0.0048989 -0.00590131 0.0109803)
(0.00475653 -0.00570556 0.0106841)
(0.0048868 -0.00588616 0.0108418)
(0.00497154 -0.00602997 0.0111568)
(0.00467889 -0.00600438 0.0107974)
(0.00495306 -0.00599473 0.0114787)
(0.00496633 -0.00647303 0.0116603)
(0.00564425 -0.00558009 0.0111497)
(0.00511517 -0.00576996 0.0109515)
(0.00492249 -0.00597565 0.0108623)
(0.00508696 -0.00599461 0.0113898)
(0.00514544 -0.00574243 0.010508)
(0.00537885 -0.00672237 0.0117773)
(0.00523444 -0.00607933 0.0113944)
(0.00521446 -0.00595281 0.0114723)
(0.00508412 -0.00585031 0.0114199)
(0.00497018 -0.00617841 0.0117073)
(0.00555901 -0.00644985 0.0122391)
(0.00502289 -0.00622564 0.0110319)
(0.00510831 -0.00572334 0.011132)
(0.00512716 -0.00595812 0.0113486)
(0.00489962 -0.00607776 0.0109986)
(0.00497746 -0.00616252 0.0112559)
(0.00483596 -0.0056747 0.010716)
(0.00489272 -0.00579421 0.0109968)
(0.00498503 -0.00576618 0.0110438)
(0.0050144 -0.0059449 0.0112846)
(0.00508616 -0.00585606 0.0110206)
(0.0050224 -0.00607644 0.0111363)
(0.0048983 -0.00620982 0.011272)
(0.00499403 -0.0058131 0.0107868)
(0.00497951 -0.00575139 0.0108918)
(0.00484624 -0.00589451 0.0110346)
(0.00491505 -0.00611869 0.0108464)
(0.00482912 -0.00594027 0.0107863)
(0.00496744 -0.00580063 0.0110796)
(0.00560673 -0.00715196 0.0121935)
(0.00493627 -0.00655581 0.0111483)
(0.00445307 -0.00542478 0.010562)
(0.00457184 -0.00553448 0.0106325)
(0.00555552 -0.0069562 0.0123484)
(0.00490081 -0.00604631 0.0116497)
(0.00476687 -0.00612584 0.0111642)
(0.00481434 -0.00613653 0.0110306)
(0.00490972 -0.00583093 0.0108736)
(0.0048464 -0.00619686 0.0112448)
(0.00480015 -0.00593804 0.0110247)
(0.00526987 -0.00618137 0.0118137)
(0.00537223 -0.00627789 0.0117135)
(0.00514056 -0.00595776 0.0111308)
(0.00536981 -0.00637694 0.0116296)
(0.00490015 -0.0062935 0.0114572)
(0.00523497 -0.00630505 0.0111605)
(0.00467899 -0.00562829 0.0102887)
(0.00471156 -0.00570215 0.0106164)
(0.00524231 -0.00607747 0.011018)
(0.0048646 -0.00606297 0.0111123)
(0.00486438 -0.00569347 0.0107097)
(0.00518223 -0.00607032 0.0114771)
(0.00488364 -0.00583612 0.0108608)
(0.00481398 -0.00588946 0.0108319)
(0.00491914 -0.00586678 0.0108813)
(0.00489876 -0.00587285 0.0108085)
(0.00510927 -0.00576374 0.0109027)
(0.00510205 -0.00612823 0.0115722)
(0.0047536 -0.00576293 0.0105693)
(0.00517788 -0.00601635 0.0111305)
(0.00554326 -0.00632582 0.0113919)
(0.00444795 -0.00567938 0.0110795)
(0.00520833 -0.00623299 0.0112766)
(0.00519712 -0.00613901 0.0118266)
(0.00535455 -0.00614696 0.0116654)
(0.00498005 -0.00570934 0.0109051)
(0.00475247 -0.00626671 0.0109288)
(0.00488636 -0.0059924 0.0107818)
(0.00503073 -0.00593313 0.0111726)
(0.00536908 -0.00652829 0.0114656)
(0.00583728 -0.00662278 0.0124357)
(0.00498468 -0.00590663 0.0115683)
(0.00549579 -0.00695732 0.0117335)
(0.00505007 -0.00610636 0.0116287)
(0.00521466 -0.00624548 0.0123687)
(0.00489976 -0.00593931 0.0114104)
(0.00524719 -0.00639429 0.0113322)
(0.00550396 -0.00658153 0.0119093)
(0.00514903 -0.00624734 0.011678)
(0.00495228 -0.0062475 0.0112595)
(0.00539928 -0.0066828 0.0117113)
(0.00463397 -0.00565141 0.010672)
(0.00454399 -0.00561077 0.0103969)
(0.00464671 -0.00581768 0.0106802)
(0.00509068 -0.00636682 0.0110448)
(0.00475971 -0.00607389 0.0109651)
(0.00534681 -0.00639526 0.011175)
(0.00511055 -0.00598696 0.0109924)
(0.00489109 -0.00575795 0.0108332)
(0.00460336 -0.0056384 0.0110027)
(0.00441434 -0.00569796 0.0105238)
(0.00445645 -0.00557212 0.0104045)
(0.00465871 -0.00576047 0.0106528)
(0.0047037 -0.00567306 0.0107045)
(0.00457766 -0.0058102 0.0106037)
(0.00451415 -0.00578499 0.01029)
(0.00461155 -0.00577776 0.0105132)
(0.00462391 -0.00599796 0.0106902)
(0.00489517 -0.00627033 0.0114737)
(0.00510297 -0.00607929 0.011432)
(0.00496818 -0.00599756 0.0116454)
(0.00496096 -0.00587903 0.0107101)
(0.00515085 -0.00596086 0.01105)
(0.00485598 -0.00576424 0.0109775)
(0.00484125 -0.00602321 0.0113746)
(0.00478264 -0.00581366 0.0106783)
(0.00485092 -0.00584011 0.0105354)
(0.00496982 -0.00591174 0.0109069)
(0.00445172 -0.00578535 0.0107054)
(0.00468636 -0.00561676 0.0103047)
(0.00475976 -0.00613133 0.0112133)
(0.00490455 -0.00597054 0.0112265)
(0.00476137 -0.00624587 0.0113979)
(0.00501619 -0.00610436 0.0115543)
(0.00492795 -0.00614909 0.0111923)
(0.00500474 -0.00600046 0.0110536)
(0.00472441 -0.0058877 0.0108499)
(0.00505658 -0.00601272 0.0110975)
(0.00501426 -0.0059925 0.0110765)
(0.00493904 -0.00592556 0.0109337)
(0.00514291 -0.00610124 0.0112621)
(0.00505704 -0.00599737 0.0110594)
(0.00545813 -0.00636612 0.012212)
(0.00491078 -0.0058095 0.0110325)
(0.00478838 -0.00583649 0.0109453)
(0.00527884 -0.00594048 0.0110506)
(0.00486381 -0.00589433 0.010881)
(0.00483253 -0.00592541 0.0105652)
(0.00501489 -0.00601314 0.0109128)
(0.00486522 -0.00590185 0.010919)
(0.00509116 -0.0057694 0.0106797)
(0.00492305 -0.00608037 0.0111034)
(0.00481663 -0.00604023 0.0111656)
(0.00505281 -0.00587502 0.0107112)
(0.00445082 -0.0060235 0.0103814)
(0.00472274 -0.00591057 0.0107025)
(0.00497809 -0.00586371 0.0109942)
(0.00475911 -0.00602709 0.0109501)
(0.00474582 -0.0057545 0.0105236)
(0.00491827 -0.00608699 0.0110318)
(0.00499873 -0.00555696 0.0107248)
(0.00461753 -0.00584172 0.0106186)
(0.00470134 -0.00601569 0.010732)
(0.00478061 -0.00570164 0.0106513)
(0.00463892 -0.00595064 0.010735)
(0.0047701 -0.005771 0.0104965)
(0.00493171 -0.00601074 0.0109357)
(0.00469254 -0.00597061 0.0109438)
(0.00486363 -0.00592325 0.0108473)
(0.0050664 -0.00579477 0.011045)
(0.00500168 -0.00595007 0.0111263)
(0.0049488 -0.00581415 0.0109322)
(0.00490324 -0.00604532 0.0108957)
(0.00481195 -0.00550329 0.0107308)
(0.00471603 -0.00597556 0.0109411)
(0.00484351 -0.00589781 0.010892)
(0.00487756 -0.00580444 0.0107671)
(0.00487449 -0.00580657 0.0107388)
(0.0049444 -0.00590107 0.0109248)
(0.00485033 -0.00582911 0.0107387)
(0.00503997 -0.00603363 0.0111291)
(0.0049228 -0.0055845 0.0103474)
(0.00478762 -0.00564693 0.010491)
(0.00500109 -0.00550251 0.0106858)
(0.00472286 -0.00549393 0.0104789)
(0.0045666 -0.0058036 0.0108527)
(0.00512096 -0.0053347 0.0106341)
(0.00456097 -0.00556778 0.0103865)
(0.00493178 -0.00549019 0.010473)
(0.00481646 -0.00550979 0.0102926)
(0.00515606 -0.00615499 0.0114436)
(0.00472065 -0.00585276 0.0108231)
(0.00464771 -0.00565266 0.0103659)
(0.0049416 -0.00581328 0.0108281)
(0.00455348 -0.00552768 0.0103281)
(0.00463098 -0.00590915 0.0110755)
(0.00488774 -0.00582788 0.0106542)
(0.00504909 -0.00584127 0.0113445)
(0.00482148 -0.00584485 0.0110094)
(0.0044704 -0.00556683 0.0104283)
(0.00468589 -0.00617622 0.011233)
(0.00473037 -0.00576621 0.0110376)
(0.0048333 -0.00570208 0.0106892)
(0.00461687 -0.0057048 0.0104226)
(0.00456812 -0.00570353 0.0105012)
(0.00468804 -0.00580325 0.0108242)
(0.00480425 -0.00581886 0.0107765)
(0.00489095 -0.00603539 0.0111107)
(0.0046962 -0.005774 0.0108078)
(0.00492344 -0.00572765 0.0108041)
(0.00485598 -0.00585629 0.0109575)
(0.00489579 -0.00608092 0.0110984)
(0.00474279 -0.00622586 0.0108286)
(0.00506849 -0.00608536 0.0114458)
(0.00508744 -0.00625117 0.0115049)
(0.00491385 -0.00632068 0.0110463)
(0.00478651 -0.00592953 0.0109148)
(0.00528422 -0.00576103 0.0110653)
(0.00509348 -0.00591641 0.010641)
(0.00468906 -0.00597479 0.0106513)
(0.00480299 -0.00636841 0.0108137)
(0.00570253 -0.00713832 0.0117224)
(0.00501438 -0.0061248 0.0117168)
(0.00520016 -0.00644241 0.0117327)
(0.00517606 -0.00638259 0.0111655)
(0.00504876 -0.00630521 0.0108409)
(0.00510013 -0.00608162 0.0112056)
(0.00536503 -0.0063194 0.0112226)
(0.00478691 -0.00551045 0.0108579)
(0.00496947 -0.00625129 0.0114976)
(0.00538416 -0.00643479 0.0112946)
(0.00509398 -0.00590459 0.0105299)
(0.00530684 -0.00653632 0.0111312)
(0.0047234 -0.00565152 0.0110375)
(0.00482445 -0.00629485 0.0109854)
(0.00502909 -0.00633954 0.012109)
(0.0048065 -0.00597873 0.0108441)
(0.0046587 -0.00598229 0.0105714)
(0.00483727 -0.00619554 0.010735)
(0.00499734 -0.00598487 0.0110935)
(0.0051263 -0.00615568 0.0113417)
(0.0048224 -0.00598466 0.0111387)
(0.00461501 -0.00568338 0.0106206)
(0.00478937 -0.00581662 0.0108866)
(0.00499178 -0.00574848 0.0107843)
(0.00519789 -0.00574355 0.0108365)
(0.00486674 -0.00587338 0.0109988)
(0.00487224 -0.00552702 0.0103775)
(0.00487738 -0.00593681 0.0110179)
(0.0052321 -0.00611567 0.0115063)
(0.00495053 -0.0057908 0.0108079)
(0.00463412 -0.00570115 0.010537)
(0.00492588 -0.0059163 0.0110282)
(0.00502632 -0.00594413 0.0110403)
(0.00457382 -0.00554527 0.0104938)
(0.00479798 -0.00581003 0.010576)
(0.00453495 -0.00596035 0.0110703)
(0.0045482 -0.00547559 0.0105192)
(0.00459548 -0.00550374 0.0102092)
(0.00455581 -0.00561235 0.0105089)
(0.00504912 -0.00581642 0.0106163)
(0.00502951 -0.00610657 0.0112016)
(0.00480201 -0.00605729 0.0111527)
(0.00465737 -0.00563315 0.0103112)
(0.00475051 -0.0057647 0.0104908)
(0.00472844 -0.00579352 0.0105963)
(0.00462773 -0.00574263 0.0105963)
(0.00453564 -0.00566097 0.0104708)
(0.00516488 -0.00635792 0.0116897)
(0.00507133 -0.00633006 0.0110425)
(0.00517078 -0.00627761 0.0112596)
(0.00481668 -0.00580243 0.0108214)
(0.00516413 -0.0062761 0.0109718)
(0.00484319 -0.00610806 0.0111422)
(0.00473049 -0.00583652 0.0105775)
(0.00495572 -0.00591918 0.0115308)
(0.00499128 -0.00629586 0.0116241)
(0.00521762 -0.0061911 0.0111558)
(0.00524516 -0.00647296 0.0114745)
(0.00491476 -0.00584832 0.0109162)
(0.00503606 -0.0062653 0.011201)
(0.00481431 -0.00590244 0.011529)
(0.00513282 -0.00646993 0.0118948)
(0.0048212 -0.00579127 0.0109843)
(0.00528612 -0.00635939 0.0117627)
(0.00524917 -0.00640487 0.0115745)
(0.00475467 -0.00602949 0.0110573)
(0.00490364 -0.0060348 0.0110415)
(0.00492173 -0.005935 0.0110676)
(0.00512241 -0.00586412 0.0110997)
(0.00466604 -0.00596744 0.010917)
(0.00501388 -0.0059143 0.0109173)
(0.0048503 -0.00568431 0.0106591)
(0.00515494 -0.0058644 0.010951)
(0.00481965 -0.00586018 0.0108543)
(0.00472922 -0.00579419 0.0107385)
(0.00480068 -0.00583679 0.0108747)
(0.00485919 -0.00590253 0.0109808)
(0.0051213 -0.0060374 0.0113354)
(0.00492766 -0.0061602 0.011354)
(0.00467254 -0.00626041 0.0112372)
(0.00470662 -0.0061289 0.0111143)
(0.00503417 -0.00606431 0.0112658)
(0.00506942 -0.00585695 0.0109651)
(0.00494814 -0.00557123 0.011164)
(0.00458841 -0.00627123 0.0110036)
(0.00479546 -0.00583464 0.0109825)
(0.00491128 -0.00615783 0.0112222)
(0.00517742 -0.00614506 0.0112734)
(0.00483175 -0.00529119 0.0107787)
(0.00464567 -0.00612378 0.0106863)
(0.00446959 -0.00586259 0.0104907)
(0.00513373 -0.00599504 0.0114134)
(0.00504916 -0.0060952 0.0112304)
(0.00544309 -0.00656446 0.0121362)
(0.00492637 -0.00638636 0.011461)
(0.0048976 -0.00550784 0.0107375)
(0.00489208 -0.00603804 0.0109924)
(0.00502697 -0.00586123 0.0108062)
(0.0055832 -0.00593309 0.0117284)
(0.0050734 -0.00556807 0.0109189)
(0.00493107 -0.00613818 0.0112631)
(0.00489383 -0.00602782 0.0109882)
(0.00484694 -0.00591625 0.0108864)
(0.00485644 -0.00592994 0.0108128)
(0.00500073 -0.00594355 0.0112869)
(0.00471747 -0.00609607 0.0110486)
(0.00539536 -0.0058737 0.0113921)
(0.00510442 -0.00619547 0.0113403)
(0.00510806 -0.00648763 0.0113821)
(0.00518221 -0.00630853 0.011653)
(0.00482871 -0.00592583 0.0110753)
(0.00469828 -0.00623292 0.010947)
(0.00497499 -0.00609018 0.0110925)
(0.00483414 -0.0059883 0.010989)
(0.00488108 -0.00648526 0.0112381)
(0.00511208 -0.00576657 0.0108731)
(0.00514083 -0.00652901 0.0109193)
(0.0046033 -0.00625257 0.0105108)
(0.00527658 -0.00680056 0.0117298)
(0.00511089 -0.00662354 0.0117292)
(0.00502162 -0.00610813 0.0119619)
(0.00526543 -0.00596769 0.0114932)
(0.00500727 -0.00607686 0.0113437)
(0.00486316 -0.00591145 0.0110024)
(0.00504667 -0.00588785 0.0110995)
(0.00486001 -0.0060036 0.0109113)
(0.00503419 -0.00627603 0.0112782)
(0.00491347 -0.00581429 0.0109646)
(0.00491588 -0.00616406 0.0110111)
(0.00464157 -0.00611849 0.0106065)
(0.00510719 -0.00618218 0.0113796)
(0.00449319 -0.00615612 0.0105618)
(0.00492807 -0.00549645 0.0105527)
(0.00524758 -0.00599575 0.011364)
(0.00465427 -0.00632701 0.0109479)
(0.0049343 -0.0060559 0.0108115)
(0.00511457 -0.00623234 0.0113954)
(0.00521353 -0.00560852 0.0109559)
(0.00513092 -0.00544986 0.0111044)
(0.0049882 -0.00611512 0.0110688)
(0.00497299 -0.00617469 0.011635)
(0.00479126 -0.00577185 0.0108754)
(0.00475883 -0.0058298 0.0108781)
(0.00455502 -0.00551229 0.0105491)
(0.00489363 -0.00636101 0.0116438)
(0.00479258 -0.00571472 0.0110412)
(0.00474499 -0.00604249 0.010951)
(0.00537099 -0.00609312 0.0117216)
(0.00504853 -0.00586982 0.0115494)
(0.00479641 -0.00563419 0.0108771)
(0.00509656 -0.0060038 0.0116099)
(0.00497969 -0.00628564 0.011096)
(0.00509424 -0.00616349 0.0113105)
(0.00506905 -0.00601284 0.0111401)
(0.00489597 -0.00576344 0.0108098)
(0.00470039 -0.00582416 0.0107833)
(0.00485784 -0.00589008 0.0109626)
(0.00473665 -0.0058653 0.0108955)
(0.00492824 -0.00582343 0.0109118)
(0.0049447 -0.00591653 0.0110996)
(0.00497162 -0.00574671 0.0105119)
(0.00508609 -0.00594778 0.0106843)
(0.00489398 -0.00570416 0.0109742)
(0.00516482 -0.00612182 0.0109803)
(0.00482983 -0.00577996 0.0111029)
(0.00498858 -0.00628528 0.0115151)
(0.00469534 -0.00564692 0.0103467)
(0.00492007 -0.00592388 0.010755)
(0.00493319 -0.00599869 0.0107398)
(0.005136 -0.00626146 0.0111247)
(0.00478316 -0.00600339 0.0110511)
(0.0050397 -0.00592441 0.0109003)
(0.00484685 -0.00588214 0.0107649)
(0.00495412 -0.00622911 0.0110137)
(0.00506483 -0.00610522 0.0114455)
(0.0046868 -0.0056933 0.0106115)
(0.00529041 -0.00618358 0.0109212)
(0.00501984 -0.00590024 0.010891)
(0.00459368 -0.00578985 0.0108574)
(0.00476083 -0.00571156 0.0108232)
(0.00480112 -0.00577889 0.0107744)
(0.00494026 -0.00626056 0.0111548)
(0.00519101 -0.0063082 0.0113125)
(0.00472599 -0.00581576 0.0110095)
(0.00495907 -0.00615341 0.0113728)
(0.00468872 -0.00565136 0.0105772)
(0.00484248 -0.00591143 0.0108632)
(0.00474436 -0.00597006 0.0111851)
(0.00536013 -0.00621054 0.0111779)
(0.00540688 -0.00636353 0.0111827)
(0.00493063 -0.0056991 0.0113259)
(0.00516724 -0.00639612 0.0108921)
(0.00507443 -0.00573074 0.0104582)
(0.00466742 -0.00574898 0.0107109)
(0.0047448 -0.00582817 0.0105275)
(0.00507164 -0.00580416 0.0109715)
(0.00481239 -0.0060494 0.0109547)
(0.0049378 -0.00581276 0.0110238)
(0.00475091 -0.00617096 0.0110826)
(0.00471778 -0.00585956 0.0107386)
(0.0051008 -0.0062279 0.0114246)
(0.00479627 -0.00545726 0.0104786)
(0.00483868 -0.00575169 0.0107567)
(0.00466129 -0.00573399 0.0105361)
(0.00510887 -0.00579145 0.0110434)
(0.00490045 -0.00598027 0.0110315)
(0.00499435 -0.00574249 0.0108951)
(0.0051082 -0.005871 0.0111345)
(0.00492537 -0.00584938 0.0106258)
(0.00466164 -0.00583085 0.0105237)
(0.00470128 -0.0056901 0.0106267)
(0.00479915 -0.00583526 0.0106655)
(0.00477262 -0.00567225 0.0106958)
(0.00460234 -0.0058334 0.0106456)
(0.00471133 -0.00588644 0.0107703)
(0.00481839 -0.00595194 0.0109523)
(0.00513192 -0.00606393 0.0115479)
(0.00516532 -0.00577249 0.0108336)
(0.00503658 -0.0061542 0.0113754)
(0.00468347 -0.0061012 0.0112646)
(0.00503108 -0.00601189 0.0110667)
(0.00489492 -0.00591074 0.0106879)
(0.00485116 -0.00595257 0.0111046)
(0.00534657 -0.00620013 0.0112624)
(0.00507384 -0.00610207 0.0112091)
(0.00500681 -0.00592233 0.0107896)
(0.00499184 -0.00591245 0.0110842)
(0.00488438 -0.0060353 0.0110936)
(0.0051324 -0.00628335 0.0112425)
(0.00474848 -0.00589116 0.0107473)
(0.00505436 -0.0060553 0.01102)
(0.00550781 -0.00656822 0.0112817)
(0.00500681 -0.00553139 0.0113953)
(0.00508471 -0.00625068 0.0116746)
(0.00550614 -0.00684444 0.0119275)
(0.00508232 -0.0059165 0.0112269)
(0.00531253 -0.00618722 0.0115587)
(0.00488655 -0.00624535 0.0111316)
(0.00511376 -0.00647675 0.0113041)
(0.00513691 -0.00604807 0.0112961)
(0.00470244 -0.00572881 0.0112801)
(0.00516938 -0.00616825 0.011447)
(0.00525888 -0.00634679 0.0116298)
(0.00484295 -0.00629328 0.011075)
(0.00459699 -0.00572202 0.0104448)
(0.00484809 -0.00598288 0.0109947)
(0.0047845 -0.00581147 0.0109137)
(0.00522585 -0.00603998 0.0114812)
(0.00471426 -0.00584539 0.010761)
(0.00468204 -0.00617484 0.0105223)
(0.00477202 -0.00620385 0.0109346)
(0.0049305 -0.00610158 0.0111739)
(0.00441174 -0.00610662 0.0104994)
(0.00510286 -0.00568942 0.0110773)
(0.00504257 -0.00597426 0.0112675)
(0.00479798 -0.0056099 0.0105514)
(0.00513477 -0.00607569 0.0110652)
(0.00506603 -0.00600099 0.0112807)
(0.00507952 -0.00597761 0.0113633)
(0.00503166 -0.00577255 0.0111243)
(0.00509539 -0.00575434 0.0111216)
(0.00508164 -0.00602403 0.010938)
(0.00508058 -0.00554021 0.0110582)
(0.00510683 -0.00595328 0.0115202)
(0.00478105 -0.00572522 0.0109306)
(0.00507309 -0.00625103 0.0114962)
(0.00492184 -0.00600283 0.0110698)
(0.00476649 -0.00582763 0.0103362)
(0.00486129 -0.00574054 0.01098)
(0.00493602 -0.00556964 0.010843)
(0.00477895 -0.00554404 0.0107772)
(0.0047105 -0.00612827 0.0107982)
(0.00489689 -0.0057723 0.0109539)
(0.00498282 -0.00585129 0.0109195)
(0.00509718 -0.00608705 0.0117852)
(0.00493274 -0.0061586 0.0112591)
(0.00491322 -0.00590507 0.0107828)
(0.00522998 -0.00618655 0.0113649)
(0.00502538 -0.00584379 0.0111123)
(0.00527034 -0.0065478 0.0119351)
(0.00495301 -0.00585542 0.0109031)
(0.0051973 -0.00600608 0.0116464)
(0.00511977 -0.00585195 0.0111972)
(0.00478944 -0.00590041 0.0108929)
(0.0050343 -0.00609455 0.0107575)
(0.0048052 -0.00605098 0.0105073)
(0.00484258 -0.00604944 0.0110225)
(0.00503467 -0.00657881 0.0112233)
(0.00504486 -0.00614808 0.0111085)
(0.00507641 -0.00612403 0.0114403)
(0.00501818 -0.00661906 0.0111903)
(0.00488419 -0.00581622 0.0107632)
(0.00471384 -0.00576702 0.0106133)
(0.00527256 -0.00594617 0.0111832)
(0.00490267 -0.00578585 0.0110253)
(0.00493438 -0.00624937 0.0112494)
(0.00518538 -0.0063448 0.01168)
(0.00471865 -0.00579699 0.0109512)
(0.00451756 -0.00558907 0.0103963)
(0.00484126 -0.00593443 0.0112673)
(0.00520173 -0.00612102 0.0111821)
(0.00512022 -0.00627885 0.0114449)
(0.00500187 -0.00623153 0.0113008)
(0.00465729 -0.00563835 0.0104988)
(0.00499274 -0.00574834 0.0108721)
(0.00488527 -0.00583485 0.0108399)
(0.00510356 -0.00632549 0.0114148)
(0.00497183 -0.00597933 0.0109944)
(0.00521115 -0.00636599 0.0116257)
(0.00515188 -0.00622923 0.0114398)
(0.00522327 -0.00620043 0.011532)
(0.00509267 -0.00626965 0.011552)
(0.00527681 -0.00576943 0.0108838)
(0.00491542 -0.00642954 0.0116061)
(0.00480781 -0.00582216 0.0108018)
(0.00485779 -0.00603086 0.0108304)
(0.00517286 -0.00583777 0.0110416)
(0.00500338 -0.00610988 0.0113084)
(0.00516457 -0.00622048 0.0113493)
(0.0046159 -0.00573254 0.0109187)
(0.00511111 -0.00616546 0.0112459)
(0.00480799 -0.00590467 0.0103406)
(0.00479352 -0.00601385 0.0114173)
(0.00460284 -0.00559077 0.0102171)
(0.00500822 -0.00627811 0.0113422)
(0.00491454 -0.00609027 0.0106277)
(0.00476658 -0.00573174 0.0105646)
(0.00494707 -0.00626605 0.010793)
(0.00497654 -0.00620966 0.0108485)
(0.0049677 -0.00610407 0.0115294)
(0.00504532 -0.00602152 0.0109574)
(0.00501567 -0.00631851 0.0109163)
(0.00494497 -0.00590056 0.0106891)
(0.00488936 -0.00607631 0.0107405)
(0.00495261 -0.00637717 0.0114655)
(0.00447159 -0.00571534 0.0107749)
(0.00457451 -0.00542559 0.0104103)
(0.00470292 -0.00590324 0.0109634)
(0.004734 -0.00594191 0.0110599)
(0.00484311 -0.00615493 0.0117032)
(0.00476021 -0.00587357 0.010966)
(0.00477912 -0.00611832 0.0109804)
(0.00499459 -0.00637985 0.0118788)
(0.00505657 -0.00626114 0.0111843)
(0.00512203 -0.00616064 0.0110887)
(0.00483453 -0.00562139 0.0109306)
(0.00513216 -0.00600857 0.0108409)
(0.0051613 -0.00600829 0.0109974)
(0.00472789 -0.00585505 0.0110766)
(0.00495147 -0.00602399 0.0115179)
(0.00487926 -0.00577619 0.0106713)
(0.0049004 -0.0058626 0.0106515)
(0.00500714 -0.00596217 0.0111046)
(0.00459458 -0.00548641 0.0106321)
(0.00458123 -0.00576735 0.0104655)
(0.0045536 -0.00607132 0.0114419)
(0.00499233 -0.00584614 0.0108538)
(0.00542389 -0.00620406 0.0110714)
(0.00504681 -0.00589022 0.0109076)
(0.00527895 -0.00607169 0.0110574)
(0.00500486 -0.00595249 0.0106536)
(0.00509906 -0.00632725 0.0113685)
(0.00483061 -0.00579953 0.0107625)
(0.00466779 -0.00551457 0.0104603)
(0.00496841 -0.00592382 0.0108138)
(0.00486843 -0.00592638 0.0108104)
(0.0049629 -0.00579812 0.010585)
(0.00500874 -0.00589403 0.0107632)
(0.00470359 -0.00568637 0.0104326)
(0.00474915 -0.00591768 0.0107612)
(0.00463662 -0.00584635 0.0107983)
(0.00483874 -0.0057715 0.0104434)
(0.00494817 -0.0062349 0.0114483)
(0.00435829 -0.00541247 0.0103224)
(0.00498903 -0.00586164 0.0107378)
(0.00504354 -0.00591966 0.0111575)
(0.00484398 -0.0059511 0.0107968)
(0.00528769 -0.00645963 0.0114961)
(0.00489032 -0.00592136 0.0114062)
(0.00472477 -0.00570098 0.010696)
(0.00493831 -0.005888 0.0108657)
(0.00487325 -0.00599363 0.0110901)
(0.00467351 -0.00576822 0.0107948)
(0.00477131 -0.00558528 0.0103771)
(0.00454637 -0.00567882 0.0105412)
(0.0046111 -0.00572289 0.0105756)
(0.00457372 -0.00575081 0.010702)
(0.00465884 -0.00596223 0.0111999)
(0.00498311 -0.0060953 0.011057)
(0.00488417 -0.00582131 0.0111749)
(0.0049442 -0.0061566 0.0115232)
(0.00463937 -0.00586558 0.0110531)
(0.00460621 -0.00554001 0.0104801)
(0.00486743 -0.00572597 0.0105989)
(0.00496288 -0.00616466 0.0106521)
(0.00501382 -0.00614468 0.0110981)
(0.0050126 -0.00611721 0.0110994)
(0.00503084 -0.00633096 0.0115693)
(0.00491578 -0.00589876 0.0108735)
(0.00476921 -0.00550461 0.0109607)
(0.00459805 -0.00569539 0.0117342)
(0.00439187 -0.00511712 0.0102278)
(0.0046889 -0.00620225 0.0108014)
(0.0045773 -0.00511336 0.010962)
(0.00514523 -0.00653811 0.0109728)
(0.00518099 -0.00611486 0.0105337)
(0.00500839 -0.00528371 0.010937)
(0.00467116 -0.00565931 0.0105804)
(0.00467184 -0.00589726 0.0105031)
(0.00485207 -0.00606412 0.0110207)
(0.00492929 -0.0057497 0.0108038)
(0.00494627 -0.0061287 0.0112712)
(0.00479668 -0.0057416 0.0109747)
(0.00473253 -0.00539175 0.0104254)
(0.00477505 -0.00601883 0.0108538)
(0.00493764 -0.00606892 0.0114558)
(0.00495563 -0.00610255 0.0109616)
(0.0048411 -0.00579708 0.0111961)
(0.00468673 -0.00592656 0.011444)
(0.00461927 -0.00544768 0.0107281)
(0.00459159 -0.00544365 0.0102911)
(0.00489814 -0.00595852 0.010674)
(0.00511214 -0.00595644 0.011192)
(0.00493895 -0.00597172 0.010831)
(0.00507385 -0.00594058 0.0111103)
(0.00454776 -0.00578729 0.0105921)
(0.00496921 -0.00552696 0.0103302)
(0.00455967 -0.00558773 0.0104697)
(0.00487843 -0.00588687 0.011109)
(0.00523094 -0.00599576 0.0110855)
(0.00522591 -0.00604628 0.0110241)
(0.00484498 -0.00579255 0.0105456)
(0.00485072 -0.00585599 0.0105478)
(0.00494796 -0.00580082 0.0107117)
(0.00472818 -0.00585659 0.0107441)
(0.00493509 -0.00561476 0.0104148)
(0.00466815 -0.00570596 0.0105269)
(0.00465958 -0.00578862 0.0104931)
(0.00484928 -0.00606085 0.011043)
(0.00461364 -0.00612535 0.0109035)
(0.00470715 -0.00572421 0.0103704)
(0.00455869 -0.00591582 0.0107402)
(0.00452487 -0.00569956 0.0105677)
(0.00477964 -0.00569702 0.0109292)
(0.00485305 -0.00592243 0.0108182)
(0.00472216 -0.00567882 0.0109051)
(0.00454498 -0.00577138 0.0108312)
(0.00469068 -0.00587529 0.0105999)
(0.00493774 -0.00584344 0.0110052)
(0.00467202 -0.00548431 0.0104023)
(0.00477753 -0.0057578 0.0110675)
(0.00490375 -0.00621906 0.0108073)
(0.00463169 -0.00604117 0.0103303)
(0.00469652 -0.00612433 0.0103203)
(0.00541694 -0.0068584 0.0115431)
(0.00465143 -0.00571507 0.0106293)
(0.00475112 -0.00563594 0.0108455)
(0.0045783 -0.00566681 0.0104428)
(0.00487886 -0.00630231 0.010686)
(0.0052043 -0.0061543 0.011588)
(0.00485609 -0.00607004 0.0109114)
(0.00498807 -0.00576425 0.011233)
(0.00465643 -0.00614617 0.0111703)
(0.00488229 -0.00590174 0.0108621)
(0.00498586 -0.00594687 0.0111297)
(0.00474733 -0.00582011 0.0108673)
(0.00459633 -0.00609517 0.0105989)
(0.00479746 -0.00595857 0.0109208)
(0.00487605 -0.00550108 0.0104901)
(0.00463041 -0.00580271 0.0106366)
(0.00453457 -0.00596275 0.0104768)
(0.00474496 -0.0058701 0.0107874)
(0.00488665 -0.00589127 0.0112144)
(0.00500154 -0.00598413 0.0113749)
(0.00510692 -0.0059506 0.0112411)
(0.00463774 -0.00594622 0.0103732)
(0.00459124 -0.00594578 0.0101264)
(0.0050803 -0.00608041 0.0111896)
(0.00486675 -0.00610012 0.0105802)
(0.00464782 -0.00624409 0.0107472)
(0.00473057 -0.00609681 0.0106868)
(0.00444108 -0.00606201 0.0107482)
(0.00456446 -0.00573911 0.0104786)
(0.00467217 -0.00569336 0.0104907)
(0.00499712 -0.00622662 0.0115205)
(0.0046735 -0.00569479 0.0106834)
(0.00478122 -0.00571082 0.0106689)
(0.00424861 -0.00561287 0.0101292)
(0.00480932 -0.0057764 0.0107297)
(0.00465087 -0.00596744 0.0110752)
(0.00486404 -0.00569215 0.0110627)
(0.00452784 -0.00564047 0.0104487)
(0.00479973 -0.0058687 0.0109527)
(0.00499557 -0.00625844 0.0116515)
(0.00462353 -0.00598213 0.0107212)
(0.00467197 -0.00585389 0.0106105)
(0.00447464 -0.00565631 0.0101519)