/*--------------------------------*- C++ -*----------------------------------*\
| =========                 |                                                 |
| \\      /  F ield         | OpenFOAM: The Open Source CFD Toolbox           |
|  \\    /   O peration     | Version:  v1612+                                |
|   \\  /    A nd           | Web:      www.OpenFOAM.com                      |
|    \\/     M anipulation  |                                                 |
\*---------------------------------------------------------------------------*/
FoamFile
{
    version     2.0;
    format      ascii;
    class       volVectorField;
    location    "200";
    object      U;
}
// * * * * * * * * * * * * * * * * * * * * * * * * * * * * * * * * * * * * * //

dimensions      [0 1 -1 0 0 0 0];

internalField   nonuniform List<vector> 
18964
(
(-0.367112 0.731702 -0.307262)
(-0.239827 0.480374 -0.20618)
(-0.364458 0.748381 -0.31396)
(-0.336891 0.684908 -0.286819)
(-0.369453 0.763653 -0.321899)
(-0.345551 0.693668 -0.290327)
(-0.384232 0.788066 -0.326343)
(-0.339724 0.696188 -0.289082)
(-0.327611 0.67239 -0.279928)
(-0.350761 0.725634 -0.303731)
(-0.359487 0.739549 -0.314235)
(-0.411868 0.831235 -0.341901)
(-0.411464 0.821871 -0.337982)
(-0.357905 0.732635 -0.316057)
(-0.321442 0.663565 -0.28169)
(-0.354816 0.71719 -0.304911)
(-0.319227 0.659294 -0.277401)
(-0.345946 0.705568 -0.303)
(-0.357685 0.741792 -0.307647)
(-0.35177 0.716823 -0.30649)
(-0.310878 0.637431 -0.264033)
(-0.41552 0.83142 -0.347593)
(-0.408458 0.831917 -0.344922)
(-0.397078 0.794732 -0.337496)
(-0.352263 0.702664 -0.298053)
(-0.331725 0.663867 -0.274818)
(-0.335887 0.658034 -0.271219)
(-0.316959 0.63297 -0.254163)
(-0.345221 0.689969 -0.287504)
(-0.35371 0.697263 -0.291973)
(-0.257525 0.510159 -0.207754)
(-0.292029 0.581538 -0.237766)
(-0.323868 0.652849 -0.275443)
(-0.289959 0.573324 -0.238017)
(-0.300315 0.601851 -0.25032)
(-0.267073 0.515318 -0.210246)
(-0.243951 0.458865 -0.190927)
(-0.276048 0.550813 -0.225211)
(-0.253958 0.509894 -0.210157)
(-0.227031 0.438486 -0.187655)
(-0.240832 0.468287 -0.200262)
(-0.41525 0.829874 -0.352775)
(-0.409766 0.818025 -0.347536)
(-0.439789 0.883766 -0.370762)
(-0.429487 0.864291 -0.368391)
(-0.463614 0.934869 -0.390504)
(-0.430916 0.860909 -0.365423)
(-0.453621 0.907651 -0.382384)
(-0.427755 0.84975 -0.366528)
(-0.418531 0.839233 -0.353013)
(-0.441097 0.887566 -0.374818)
(-0.436118 0.879741 -0.369069)
(-0.411711 0.824775 -0.349248)
(-0.45367 0.902726 -0.382311)
(-0.431262 0.856753 -0.36761)
(-0.461741 0.928809 -0.391754)
(-0.465672 0.931387 -0.396311)
(-0.463827 0.931517 -0.393586)
(-0.416578 0.83918 -0.35401)
(-0.443959 0.900841 -0.378706)
(-0.415985 0.829052 -0.35316)
(-0.405851 0.813051 -0.346059)
(-0.421313 0.836661 -0.357084)
(-0.417973 0.830935 -0.351756)
(-0.419407 0.836746 -0.350391)
(-0.426201 0.848807 -0.351706)
(-0.422369 0.845508 -0.355536)
(-0.361595 0.73042 -0.305635)
(-0.343456 0.695026 -0.290243)
(-0.410222 0.822194 -0.346803)
(-0.399735 0.805569 -0.335797)
(-0.391144 0.782853 -0.322503)
(-0.374158 0.751741 -0.310972)
(-0.422688 0.850177 -0.358546)
(-0.386038 0.775304 -0.325191)
(-0.360821 0.7183 -0.308821)
(-0.4034 0.807177 -0.336834)
(-0.371533 0.752902 -0.316943)
(-0.38431 0.779108 -0.330351)
(-0.349749 0.702567 -0.295916)
(-0.454252 0.911928 -0.379892)
(-0.424558 0.854711 -0.354224)
(-0.370132 0.737039 -0.312684)
(-0.376103 0.751478 -0.317123)
(-0.411047 0.825318 -0.341543)
(-0.286845 0.571248 -0.233257)
(-0.261524 0.52683 -0.221245)
(-0.328058 0.651651 -0.272971)
(-0.331493 0.670571 -0.275728)
(-0.336722 0.67893 -0.277111)
(-0.261648 0.518933 -0.208161)
(-0.235361 0.472354 -0.191604)
(-0.273171 0.5545 -0.224127)
(-0.286306 0.578291 -0.242235)
(-0.279306 0.563525 -0.232798)
(-0.244919 0.495943 -0.20583)
(-0.262796 0.513372 -0.207743)
(-0.245626 0.483834 -0.195635)
(-0.227327 0.443181 -0.180755)
(-0.334154 0.66342 -0.272282)
(-0.286249 0.575063 -0.231328)
(-0.281137 0.552724 -0.225575)
(-0.2911 0.575712 -0.237638)
(-0.344059 0.688026 -0.280315)
(-0.262633 0.524247 -0.208556)
(-0.251059 0.505568 -0.206168)
(-0.268448 0.531759 -0.215237)
(-0.279745 0.553638 -0.223715)
(-0.336905 0.655005 -0.272468)
(-0.346202 0.684056 -0.281082)
(-0.280995 0.560269 -0.229954)
(-0.276129 0.542614 -0.22186)
(-0.253832 0.501864 -0.203243)
(-0.296858 0.592339 -0.242906)
(-0.259753 0.518916 -0.210011)
(-0.239144 0.474561 -0.190125)
(-0.267691 0.530862 -0.219605)
(-0.28251 0.569128 -0.229686)
(-0.325625 0.66112 -0.265351)
(-0.326837 0.652465 -0.263161)
(-0.278847 0.537887 -0.229237)
(-0.260328 0.500877 -0.209805)
(-0.368378 0.725865 -0.302236)
(-0.347602 0.686359 -0.28653)
(-0.338816 0.684652 -0.285511)
(-0.300591 0.592174 -0.243862)
(-0.238055 0.472045 -0.195315)
(-0.296036 0.586105 -0.24595)
(-0.264723 0.526158 -0.218983)
(-0.262232 0.515537 -0.21973)
(-0.259318 0.519676 -0.207835)
(-0.282375 0.560138 -0.22738)
(-0.304879 0.609016 -0.240985)
(-0.270714 0.522759 -0.214819)
(-0.24199 0.480705 -0.19151)
(-0.405864 0.801339 -0.33531)
(-0.373139 0.744382 -0.305942)
(-0.372675 0.738937 -0.314301)
(-0.352539 0.695775 -0.292506)
(-0.355313 0.710092 -0.295737)
(-0.395982 0.78921 -0.333052)
(-0.330639 0.657 -0.27803)
(-0.406763 0.804421 -0.335975)
(-0.378862 0.754211 -0.31591)
(-0.367354 0.723523 -0.30026)
(-0.340543 0.660463 -0.279642)
(-0.336715 0.669833 -0.282719)
(-0.384635 0.757257 -0.314968)
(-0.350401 0.693204 -0.29225)
(-0.430794 0.854373 -0.362467)
(-0.430062 0.865723 -0.364837)
(-0.360924 0.71627 -0.299581)
(-0.345043 0.685536 -0.280452)
(-0.441767 0.886609 -0.369907)
(-0.418836 0.832361 -0.34645)
(-0.35867 0.713892 -0.299845)
(-0.365286 0.721195 -0.299725)
(-0.481005 0.973922 -0.405783)
(-0.450136 0.891588 -0.37654)
(-0.491712 1.00236 -0.418043)
(-0.469034 0.94953 -0.395846)
(-0.468861 0.950147 -0.401257)
(-0.462171 0.924844 -0.379952)
(-0.466451 0.932582 -0.383592)
(-0.475687 0.963759 -0.397321)
(-0.462047 0.928998 -0.388576)
(-0.517159 1.03765 -0.432975)
(-0.501322 1.01176 -0.422567)
(-0.470907 0.942894 -0.394269)
(-0.473245 0.941975 -0.385786)
(-0.500441 1.00355 -0.416627)
(-0.509059 1.02749 -0.429224)
(-0.49992 1.00499 -0.42016)
(-0.48949 0.979775 -0.407969)
(-0.468216 0.947459 -0.387354)
(-0.471113 0.946774 -0.390017)
(-0.475619 0.950643 -0.393442)
(-0.463603 0.931303 -0.389023)
(-0.518987 1.03773 -0.433507)
(-0.497589 0.996037 -0.413276)
(-0.463879 0.926719 -0.38737)
(-0.486822 0.978884 -0.408979)
(-0.477649 0.963371 -0.405025)
(-0.513748 1.03464 -0.432361)
(-0.515489 1.03465 -0.431709)
(-0.493327 0.987444 -0.415228)
(-0.4712 0.947107 -0.397182)
(-0.508275 1.0253 -0.427366)
(-0.514798 1.03663 -0.430788)
(-0.504728 1.01713 -0.424234)
(-0.508931 1.01837 -0.425311)
(-0.493251 0.992719 -0.41396)
(-0.486001 0.978437 -0.408551)
(-0.4937 0.988539 -0.411373)
(-0.418418 0.822514 -0.344898)
(-0.43272 0.857583 -0.361646)
(-0.460635 0.912231 -0.383835)
(-0.46261 0.916017 -0.383297)
(-0.446319 0.893592 -0.370542)
(-0.464521 0.919311 -0.385807)
(-0.432198 0.855598 -0.35879)
(-0.443604 0.881757 -0.371619)
(-0.415919 0.819104 -0.345507)
(-0.418833 0.829185 -0.350659)
(-0.44071 0.871086 -0.364624)
(-0.450718 0.896563 -0.378832)
(-0.443381 0.884015 -0.375263)
(-0.447825 0.900015 -0.373459)
(-0.428632 0.85771 -0.355783)
(-0.424549 0.849705 -0.354452)
(-0.4256 0.852956 -0.356348)
(-0.39323 0.770384 -0.327301)
(-0.434089 0.859981 -0.357924)
(-0.425743 0.857283 -0.359251)
(-0.367859 0.731354 -0.300347)
(-0.337436 0.686896 -0.285569)
(-0.363464 0.732964 -0.308264)
(-0.398646 0.794448 -0.33306)
(-0.369472 0.740948 -0.309162)
(-0.370002 0.741625 -0.310155)
(-0.371168 0.741877 -0.300663)
(-0.373475 0.762203 -0.323316)
(-0.340589 0.696569 -0.298168)
(-0.388221 0.777897 -0.331577)
(-0.417078 0.847126 -0.353299)
(-0.34872 0.711288 -0.301313)
(-0.346613 0.718836 -0.311424)
(-0.409613 0.836381 -0.35332)
(-0.363685 0.748422 -0.311624)
(-0.362847 0.736126 -0.31021)
(-0.334505 0.683755 -0.295385)
(-0.401843 0.82971 -0.346413)
(-0.394477 0.792817 -0.333487)
(-0.362772 0.747614 -0.316371)
(-0.37973 0.783145 -0.330769)
(-0.331763 0.679952 -0.293284)
(-0.365178 0.744651 -0.311524)
(-0.341907 0.685557 -0.295245)
(-0.275577 0.551823 -0.236001)
(-0.278857 0.552763 -0.231023)
(-0.341842 0.685459 -0.290083)
(-0.361162 0.715485 -0.298019)
(-0.326648 0.655152 -0.277239)
(-0.297776 0.600606 -0.249912)
(-0.241712 0.471299 -0.201406)
(-0.301404 0.612315 -0.250121)
(-0.242479 0.489234 -0.212273)
(-0.291304 0.586014 -0.2492)
(-0.268348 0.520076 -0.218016)
(-0.298032 0.583868 -0.247326)
(-0.341923 0.68681 -0.290724)
(-0.270916 0.538659 -0.227299)
(-0.375792 0.758125 -0.313096)
(-0.396704 0.796188 -0.323104)
(-0.367891 0.749359 -0.312062)
(-0.368295 0.770237 -0.314304)
(-0.359358 0.743795 -0.308253)
(-0.337647 0.700188 -0.289263)
(-0.343911 0.688723 -0.284156)
(-0.3522 0.71631 -0.291305)
(-0.275296 0.550706 -0.223901)
(-0.283822 0.59538 -0.232941)
(-0.327945 0.661356 -0.270556)
(-0.247133 0.476691 -0.202754)
(-0.29803 0.596925 -0.241127)
(-0.266947 0.549491 -0.228105)
(-0.262795 0.52566 -0.211377)
(-0.283498 0.571305 -0.231358)
(-0.250755 0.507842 -0.214899)
(-0.269878 0.545029 -0.224828)
(-0.335251 0.675015 -0.274513)
(-0.299239 0.609573 -0.247332)
(-0.388745 0.793924 -0.336974)
(-0.348953 0.710506 -0.2989)
(-0.346901 0.705712 -0.296399)
(-0.298488 0.605094 -0.246772)
(-0.364494 0.751438 -0.313833)
(-0.326073 0.66906 -0.270481)
(-0.366726 0.738246 -0.313405)
(-0.354831 0.714316 -0.292833)
(-0.330796 0.672375 -0.279978)
(-0.427349 0.863616 -0.360996)
(-0.414738 0.844127 -0.348655)
(-0.309466 0.643232 -0.258708)
(-0.414818 0.844181 -0.347146)
(-0.389205 0.784962 -0.323814)
(-0.37633 0.767818 -0.321206)
(-0.361875 0.732461 -0.306551)
(-0.35853 0.726308 -0.305658)
(-0.343299 0.687186 -0.293031)
(-0.394014 0.79521 -0.328383)
(-0.378748 0.769515 -0.317757)
(-0.386521 0.779743 -0.324212)
(-0.342286 0.710698 -0.302055)
(-0.43679 0.883893 -0.372318)
(-0.429242 0.869716 -0.364572)
(-0.375632 0.752347 -0.318809)
(-0.357868 0.723774 -0.310891)
(-0.423727 0.852883 -0.358115)
(-0.385082 0.761993 -0.32142)
(-0.354405 0.710887 -0.301192)
(-0.433017 0.869828 -0.369209)
(-0.257965 0.524796 -0.220394)
(-0.284171 0.578913 -0.241675)
(-0.323161 0.667562 -0.282823)
(-0.299962 0.5956 -0.251253)
(-0.259204 0.531939 -0.222174)
(-0.230291 0.474845 -0.20241)
(-0.267139 0.530127 -0.220013)
(-0.223629 0.471472 -0.205046)
(-0.300189 0.610552 -0.248246)
(-0.268988 0.537433 -0.225786)
(-0.285431 0.577317 -0.244942)
(-0.234409 0.482786 -0.20701)
(-0.289152 0.583143 -0.242075)
(-0.271858 0.555562 -0.233511)
(-0.254559 0.513344 -0.215231)
(-0.370782 0.751953 -0.316124)
(-0.348999 0.688405 -0.285302)
(-0.361564 0.733721 -0.30563)
(-0.345035 0.703906 -0.294992)
(-0.328058 0.656222 -0.282825)
(-0.357163 0.72209 -0.300829)
(-0.377613 0.76379 -0.32079)
(-0.373742 0.766923 -0.319243)
(-0.354898 0.733094 -0.312961)
(-0.347937 0.699516 -0.286883)
(-0.411265 0.828509 -0.345821)
(-0.437398 0.881579 -0.367815)
(-0.336413 0.66282 -0.286811)
(-0.430553 0.867282 -0.358958)
(-0.428298 0.860805 -0.362461)
(-0.400394 0.799486 -0.335175)
(-0.395632 0.794421 -0.335462)
(-0.267764 0.530061 -0.215406)
(-0.278204 0.558877 -0.2301)
(-0.277714 0.569759 -0.23357)
(-0.261552 0.524161 -0.216048)
(-0.239273 0.478581 -0.193758)
(-0.330184 0.678649 -0.275145)
(-0.325275 0.666648 -0.269736)
(-0.260598 0.539049 -0.222242)
(-0.23434 0.483624 -0.198269)
(-0.277597 0.551617 -0.218958)
(-0.328279 0.660677 -0.267853)
(-0.28657 0.575111 -0.237472)
(-0.261309 0.527564 -0.212234)
(-0.285583 0.569968 -0.229067)
(-0.32041 0.643383 -0.265488)
(-0.308476 0.619164 -0.248722)
(-0.364054 0.714613 -0.302333)
(-0.271538 0.549609 -0.224177)
(-0.344463 0.673776 -0.277783)
(-0.346692 0.68581 -0.281355)
(-0.361562 0.715308 -0.2926)
(-0.260976 0.52159 -0.21513)
(-0.242743 0.485614 -0.202532)
(-0.279541 0.571477 -0.232735)
(-0.335077 0.665856 -0.276446)
(-0.350712 0.694858 -0.287497)
(-0.485634 0.973821 -0.408464)
(-0.482532 0.985562 -0.411334)
(-0.493376 1.00321 -0.418514)
(-0.486396 0.989869 -0.413034)
(-0.501013 1.00547 -0.420705)
(-0.502027 1.01753 -0.427742)
(-0.501694 1.01617 -0.423895)
(-0.487325 0.98889 -0.413455)
(-0.502466 1.02089 -0.422299)
(-0.511464 1.03794 -0.431963)
(-0.508542 1.02416 -0.429162)
(-0.519471 1.04711 -0.43731)
(-0.506491 1.02038 -0.426848)
(-0.511513 1.0301 -0.428513)
(-0.507728 1.02618 -0.428317)
(-0.457957 0.927826 -0.386874)
(-0.43345 0.877641 -0.366367)
(-0.457285 0.9237 -0.385896)
(-0.463199 0.93214 -0.393458)
(-0.447389 0.902487 -0.377627)
(-0.423726 0.863267 -0.358625)
(-0.434207 0.885168 -0.372908)
(-0.405413 0.81484 -0.350696)
(-0.390292 0.782262 -0.330667)
(-0.44832 0.902766 -0.376061)
(-0.42832 0.86368 -0.358907)
(-0.450304 0.909397 -0.381947)
(-0.423488 0.864743 -0.35754)
(-0.426225 0.867412 -0.362039)
(-0.430609 0.876192 -0.363753)
(-0.427454 0.86666 -0.359537)
(-0.385778 0.772086 -0.31904)
(-0.394768 0.791674 -0.333041)
(-0.435052 0.881011 -0.369351)
(-0.273632 0.542304 -0.22756)
(-0.230784 0.461055 -0.183893)
(-0.290218 0.582292 -0.24431)
(-0.32386 0.64807 -0.272318)
(-0.356911 0.705931 -0.291801)
(-0.345125 0.687484 -0.285555)
(-0.262615 0.525497 -0.217364)
(-0.23527 0.46404 -0.188201)
(-0.29231 0.576099 -0.238381)
(-0.308187 0.607554 -0.259023)
(-0.255895 0.506157 -0.205668)
(-0.303532 0.606683 -0.253872)
(-0.35544 0.702084 -0.286903)
(-0.31004 0.615345 -0.251104)
(-0.265645 0.532005 -0.224975)
(-0.341708 0.690702 -0.285863)
(-0.349144 0.693961 -0.285454)
(-0.362205 0.719897 -0.289616)
(-0.293743 0.581946 -0.240074)
(-0.495115 0.982141 -0.407989)
(-0.49797 0.977192 -0.402557)
(-0.465426 0.924322 -0.380811)
(-0.439257 0.876802 -0.355464)
(-0.504233 0.993741 -0.408925)
(-0.501808 0.990614 -0.410631)
(-0.485073 0.954031 -0.392106)
(-0.496815 0.984611 -0.406132)
(-0.474843 0.941819 -0.390476)
(-0.502938 0.994281 -0.408775)
(-0.503251 0.999212 -0.411529)
(-0.477991 0.945023 -0.38671)
(-0.48601 0.959993 -0.395118)
(-0.499893 0.979896 -0.405684)
(-0.485825 0.96747 -0.395397)
(-0.48642 0.959336 -0.39405)
(-0.471122 0.933766 -0.392515)
(-0.458322 0.911932 -0.383224)
(-0.49592 0.979735 -0.411096)
(-0.481742 0.957815 -0.398819)
(-0.456523 0.908445 -0.381297)
(-0.467981 0.924974 -0.39026)
(-0.499303 0.991873 -0.412979)
(-0.49787 0.990133 -0.412364)
(-0.495782 0.9903 -0.413876)
(-0.499531 0.995523 -0.415135)
(-0.493256 0.978276 -0.410389)
(-0.468654 0.934767 -0.394793)
(-0.469848 0.945283 -0.399096)
(-0.461209 0.906622 -0.38167)
(-0.486655 0.964287 -0.404684)
(-0.490785 0.981841 -0.414395)
(-0.493645 0.983012 -0.414431)
(-0.491165 0.981502 -0.413951)
(-0.471273 0.934917 -0.397207)
(-0.47407 0.940696 -0.394529)
(-0.505156 1.0058 -0.417579)
(-0.489473 0.970786 -0.405945)
(-0.473583 0.951125 -0.393937)
(-0.479562 0.965521 -0.404663)
(-0.485231 0.966422 -0.405788)
(-0.509955 1.01639 -0.419057)
(-0.515844 1.02766 -0.430411)
(-0.505216 1.00834 -0.419581)
(-0.5096 1.01371 -0.420231)
(-0.492418 0.98446 -0.410261)
(-0.498459 0.996821 -0.412512)
(-0.502217 0.997054 -0.416972)
(-0.513971 1.02986 -0.427865)
(-0.472241 0.955167 -0.391483)
(-0.482467 0.960906 -0.39588)
(-0.491065 0.98442 -0.407677)
(-0.478579 0.959533 -0.395734)
(-0.498356 0.991915 -0.413893)
(-0.492411 0.984582 -0.408689)
(-0.517539 1.03719 -0.431287)
(-0.512102 1.0223 -0.428866)
(-0.506997 1.01529 -0.422967)
(-0.500654 1.00256 -0.420489)
(-0.518692 1.0442 -0.436832)
(-0.50542 1.01499 -0.421265)
(-0.492384 0.985034 -0.412308)
(-0.490883 0.984554 -0.409466)
(-0.516026 1.02824 -0.429428)
(-0.503212 1.01063 -0.421164)
(-0.506456 1.01474 -0.423499)
(-0.504001 1.01815 -0.424085)
(-0.511779 1.02163 -0.426484)
(-0.503214 1.01188 -0.422791)
(-0.480398 0.967501 -0.401421)
(-0.482329 0.966999 -0.405391)
(-0.475301 0.961277 -0.398705)
(-0.484989 0.965529 -0.401487)
(-0.495499 0.992953 -0.414105)
(-0.458298 0.921288 -0.379621)
(-0.488263 0.979057 -0.409681)
(-0.44768 0.905672 -0.370796)
(-0.448374 0.90471 -0.378789)
(-0.426481 0.861549 -0.360392)
(-0.440361 0.895405 -0.372268)
(-0.446933 0.899683 -0.374182)
(-0.47325 0.954614 -0.38849)
(-0.474915 0.962246 -0.396065)
(-0.463511 0.942142 -0.386468)
(-0.466547 0.930591 -0.380189)
(-0.484692 0.975267 -0.40298)
(-0.484616 0.957937 -0.394573)
(-0.50212 0.998997 -0.419129)
(-0.488746 0.98403 -0.405725)
(-0.486777 0.978433 -0.402899)
(-0.504781 1.00798 -0.418333)
(-0.451283 0.904748 -0.369899)
(-0.462711 0.938989 -0.383753)
(-0.466239 0.926428 -0.376445)
(-0.489824 0.970532 -0.402102)
(-0.478274 0.947221 -0.388675)
(-0.488259 0.97254 -0.401381)
(-0.506827 1.0154 -0.420224)
(-0.497495 0.993722 -0.410274)
(-0.498978 1.00213 -0.414468)
(-0.360116 0.730532 -0.295843)
(-0.325392 0.661913 -0.264923)
(-0.339643 0.695742 -0.276823)
(-0.353701 0.71606 -0.287124)
(-0.365127 0.749442 -0.305178)
(-0.361966 0.730201 -0.297813)
(-0.335284 0.684016 -0.279633)
(-0.330955 0.658004 -0.269997)
(-0.370135 0.751777 -0.301496)
(-0.381522 0.774509 -0.316529)
(-0.375024 0.754024 -0.311461)
(-0.356972 0.719199 -0.285587)
(-0.35004 0.695125 -0.277509)
(-0.335487 0.666097 -0.271425)
(-0.353009 0.704048 -0.28795)
(-0.413987 0.832234 -0.340668)
(-0.397301 0.797315 -0.329842)
(-0.340854 0.695415 -0.27732)
(-0.449067 0.899341 -0.375678)
(-0.433741 0.882013 -0.372406)
(-0.441937 0.894355 -0.379831)
(-0.485454 0.97744 -0.406808)
(-0.437254 0.871728 -0.364903)
(-0.487122 0.972202 -0.405589)
(-0.439211 0.896635 -0.381133)
(-0.417094 0.853227 -0.353513)
(-0.436463 0.883355 -0.36823)
(-0.429833 0.871255 -0.366662)
(-0.423445 0.860358 -0.356778)
(-0.392867 0.787527 -0.331145)
(-0.404643 0.827138 -0.341409)
(-0.348432 0.709074 -0.292897)
(-0.34649 0.716125 -0.289863)
(-0.325889 0.663974 -0.273024)
(-0.322599 0.662556 -0.272511)
(-0.409371 0.84369 -0.346897)
(-0.408418 0.834013 -0.350215)
(-0.395735 0.811724 -0.334877)
(-0.353901 0.72027 -0.296545)
(-0.321468 0.652419 -0.271097)
(-0.350742 0.73265 -0.303739)
(-0.384772 0.782001 -0.321302)
(-0.380678 0.777377 -0.31585)
(-0.33638 0.703162 -0.29092)
(-0.325567 0.665296 -0.268402)
(-0.333478 0.695441 -0.280631)
(-0.324251 0.66653 -0.276565)
(-0.279984 0.551159 -0.222514)
(-0.291735 0.580872 -0.235144)
(-0.272294 0.557378 -0.225187)
(-0.248244 0.491585 -0.201683)
(-0.305723 0.631143 -0.255464)
(-0.280975 0.562599 -0.235724)
(-0.341948 0.689913 -0.290444)
(-0.315163 0.644398 -0.270267)
(-0.267561 0.531572 -0.221504)
(-0.233606 0.472101 -0.199009)
(-0.354742 0.715575 -0.296349)
(-0.369654 0.736694 -0.308964)
(-0.341294 0.688071 -0.285717)
(-0.330479 0.674801 -0.275842)
(-0.260565 0.518384 -0.22101)
(-0.260332 0.528902 -0.22089)
(-0.284709 0.566795 -0.234439)
(-0.331742 0.67823 -0.278703)
(-0.287749 0.585032 -0.245722)
(-0.252217 0.504514 -0.221432)
(-0.25454 0.528595 -0.220909)
(-0.230325 0.490921 -0.209159)
(-0.264876 0.520394 -0.2142)
(-0.288673 0.558859 -0.222273)
(-0.293866 0.590347 -0.238719)
(-0.288907 0.561506 -0.230866)
(-0.277647 0.542462 -0.220784)
(-0.265731 0.516134 -0.210936)
(-0.298646 0.59063 -0.236742)
(-0.264966 0.513984 -0.219284)
(-0.248508 0.491221 -0.209299)
(-0.305395 0.60619 -0.243367)
(-0.281558 0.566273 -0.233208)
(-0.269096 0.528876 -0.21684)
(-0.234024 0.457036 -0.190495)
(-0.355207 0.706713 -0.289937)
(-0.343654 0.686743 -0.286708)
(-0.286498 0.566167 -0.234411)
(-0.263892 0.522134 -0.217541)
(-0.283832 0.553834 -0.225459)
(-0.349489 0.694596 -0.287529)
(-0.382998 0.755631 -0.308515)
(-0.374125 0.735322 -0.300597)
(-0.326288 0.650627 -0.265432)
(-0.347123 0.682403 -0.279772)
(-0.346472 0.685796 -0.279484)
(-0.470254 0.933379 -0.390985)
(-0.481225 0.959964 -0.39797)
(-0.444027 0.890927 -0.370438)
(-0.447131 0.897395 -0.37768)
(-0.447475 0.891382 -0.37329)
(-0.410278 0.830743 -0.347896)
(-0.490316 0.989922 -0.412805)
(-0.469208 0.933895 -0.38822)
(-0.434201 0.877612 -0.366548)
(-0.452778 0.909154 -0.384268)
(-0.46673 0.920208 -0.384072)
(-0.42709 0.854497 -0.352333)
(-0.429947 0.866468 -0.359257)
(-0.445124 0.890234 -0.377628)
(-0.410909 0.82464 -0.347507)
(-0.422493 0.834604 -0.354153)
(-0.439003 0.890648 -0.379455)
(-0.456285 0.917029 -0.379463)
(-0.432266 0.868256 -0.355953)
(-0.444676 0.89502 -0.362157)
(-0.429261 0.858611 -0.355708)
(-0.426645 0.848659 -0.348605)
(-0.473597 0.94948 -0.389397)
(-0.484478 0.958239 -0.393875)
(-0.415653 0.811121 -0.327673)
(-0.419599 0.831528 -0.335903)
(-0.409594 0.82066 -0.34054)
(-0.427499 0.861044 -0.351003)
(-0.465754 0.926112 -0.382714)
(-0.45003 0.897894 -0.367252)
(-0.44661 0.890667 -0.364532)
(-0.492143 0.970073 -0.4036)
(-0.478725 0.945815 -0.388962)
(-0.479234 0.954226 -0.39079)
(-0.445756 0.878264 -0.365515)
(-0.381844 0.764668 -0.328605)
(-0.341193 0.675943 -0.297605)
(-0.351497 0.705002 -0.303804)
(-0.336053 0.682065 -0.295793)
(-0.346154 0.677169 -0.297514)
(-0.382488 0.765833 -0.324298)
(-0.353039 0.704755 -0.311574)
(-0.347885 0.703025 -0.302634)
(-0.354738 0.700469 -0.305623)
(-0.353111 0.708254 -0.298718)
(-0.346114 0.69622 -0.296693)
(-0.417189 0.828889 -0.35297)
(-0.411944 0.817505 -0.349147)
(-0.416265 0.836937 -0.353167)
(-0.372518 0.740101 -0.319856)
(-0.363196 0.719769 -0.305091)
(-0.399207 0.790364 -0.343275)
(-0.323123 0.652577 -0.270305)
(-0.343069 0.693664 -0.283451)
(-0.262194 0.544979 -0.230031)
(-0.263915 0.539902 -0.217895)
(-0.334328 0.667456 -0.282102)
(-0.2816 0.57698 -0.241593)
(-0.340354 0.686229 -0.281132)
(-0.330098 0.664616 -0.265523)
(-0.27469 0.570995 -0.233268)
(-0.279857 0.569672 -0.236281)
(-0.359616 0.734513 -0.302995)
(-0.33958 0.700051 -0.292291)
(-0.264904 0.538004 -0.225399)
(-0.241082 0.484435 -0.193792)
(-0.308386 0.636449 -0.256693)
(-0.270072 0.560638 -0.231429)
(-0.317809 0.658375 -0.259958)
(-0.254613 0.528505 -0.212959)
(-0.315485 0.64866 -0.265487)
(-0.263925 0.535671 -0.221266)
(-0.246962 0.49617 -0.208541)
(-0.283782 0.57933 -0.238872)
(-0.416946 0.839315 -0.344994)
(-0.408451 0.825656 -0.336999)
(-0.381025 0.755196 -0.308635)
(-0.358332 0.723623 -0.293631)
(-0.384922 0.776001 -0.319273)
(-0.40706 0.827688 -0.341869)
(-0.377119 0.74953 -0.304802)
(-0.429696 0.858965 -0.353964)
(-0.419159 0.839973 -0.34433)
(-0.368497 0.748015 -0.302311)
(-0.350739 0.692603 -0.281007)
(-0.384922 0.770901 -0.318882)
(-0.369742 0.745328 -0.307049)
(-0.400805 0.802818 -0.329807)
(-0.399793 0.797176 -0.328205)
(-0.422148 0.845136 -0.343425)
(-0.385709 0.779828 -0.321455)
(-0.399211 0.804955 -0.326801)
(-0.357531 0.721934 -0.292931)
(-0.35267 0.712797 -0.287521)
(-0.352596 0.683954 -0.290725)
(-0.330107 0.657546 -0.279702)
(-0.356848 0.69437 -0.290845)
(-0.378436 0.745995 -0.307712)
(-0.289086 0.566816 -0.233953)
(-0.273365 0.543801 -0.224286)
(-0.340375 0.659735 -0.280017)
(-0.288651 0.58397 -0.247101)
(-0.283124 0.566087 -0.231135)
(-0.362183 0.712337 -0.29906)
(-0.366648 0.724635 -0.301671)
(-0.351448 0.680474 -0.28633)
(-0.266361 0.529656 -0.222455)
(-0.251852 0.505086 -0.201766)
(-0.268198 0.537129 -0.220157)
(-0.244657 0.49542 -0.206569)
(-0.271195 0.536061 -0.217405)
(-0.289024 0.574472 -0.238645)
(-0.341576 0.676649 -0.280604)
(-0.281494 0.553296 -0.230268)
(-0.281793 0.558076 -0.227187)
(-0.244989 0.47777 -0.195288)
(-0.254538 0.501003 -0.205859)
(-0.240312 0.462966 -0.189696)
(-0.260179 0.519359 -0.215918)
(-0.236076 0.463966 -0.19418)
(-0.291569 0.573991 -0.228758)
(-0.245534 0.475258 -0.198261)
(-0.265946 0.531916 -0.221448)
(-0.283426 0.563742 -0.233535)
(-0.329662 0.650151 -0.263654)
(-0.334036 0.651529 -0.267039)
(-0.371753 0.743482 -0.304369)
(-0.338853 0.68697 -0.28354)
(-0.34664 0.698717 -0.2867)
(-0.31722 0.64546 -0.267577)
(-0.377907 0.766879 -0.320301)
(-0.336286 0.668279 -0.271188)
(-0.32456 0.654625 -0.270619)
(-0.354782 0.716909 -0.297248)
(-0.362653 0.729903 -0.303729)
(-0.394786 0.795046 -0.330799)
(-0.34584 0.700269 -0.289469)
(-0.330081 0.666654 -0.273711)
(-0.282214 0.578002 -0.237913)
(-0.247052 0.496193 -0.209047)
(-0.249923 0.516516 -0.212386)
(-0.237221 0.44715 -0.190111)
(-0.322422 0.62913 -0.267109)
(-0.271233 0.539969 -0.229624)
(-0.312803 0.623073 -0.255153)
(-0.326445 0.656469 -0.276048)
(-0.242075 0.474805 -0.197556)
(-0.278707 0.562323 -0.231643)
(-0.252096 0.50243 -0.208123)
(-0.249296 0.502015 -0.205567)
(-0.320767 0.644852 -0.266579)
(-0.328629 0.656409 -0.275895)
(-0.275391 0.553384 -0.217621)
(-0.227915 0.453 -0.197234)
(-0.264774 0.535539 -0.226744)
(-0.246927 0.499189 -0.209761)
(-0.399141 0.807413 -0.327708)
(-0.366173 0.745925 -0.302163)
(-0.342886 0.703255 -0.287246)
(-0.365198 0.745429 -0.304983)
(-0.342918 0.689001 -0.29001)
(-0.327232 0.667896 -0.276298)
(-0.359595 0.725804 -0.291786)
(-0.328519 0.657714 -0.27485)
(-0.353193 0.716515 -0.291892)
(-0.399956 0.805683 -0.32856)
(-0.324388 0.649008 -0.267874)
(-0.386529 0.780858 -0.317852)
(-0.352767 0.722486 -0.288641)
(-0.361924 0.735976 -0.297131)
(-0.335702 0.681922 -0.279335)
(-0.378977 0.772254 -0.313085)
(-0.358579 0.727229 -0.292615)
(-0.353486 0.69856 -0.30183)
(-0.267815 0.534712 -0.226534)
(-0.338278 0.680284 -0.294152)
(-0.288783 0.597621 -0.251473)
(-0.252471 0.506307 -0.210099)
(-0.358449 0.733463 -0.312645)
(-0.310244 0.621622 -0.254224)
(-0.387923 0.791582 -0.329073)
(-0.387907 0.782101 -0.32706)
(-0.388374 0.777617 -0.326221)
(-0.437246 0.871005 -0.357292)
(-0.417056 0.84279 -0.353227)
(-0.407305 0.817188 -0.347528)
(-0.428654 0.859697 -0.358862)
(-0.445322 0.899599 -0.372095)
(-0.455873 0.914985 -0.384804)
(-0.434909 0.874026 -0.363262)
(-0.451323 0.907834 -0.382395)
(-0.459413 0.923952 -0.386139)
(-0.449252 0.898955 -0.373689)
(-0.368441 0.739878 -0.296004)
(-0.3687 0.749492 -0.300828)
(-0.357881 0.703574 -0.289533)
(-0.337288 0.662888 -0.275224)
(-0.416492 0.823097 -0.335363)
(-0.440212 0.879355 -0.358855)
(-0.360825 0.705397 -0.290311)
(-0.38187 0.74535 -0.306194)
(-0.40069 0.790223 -0.320774)
(-0.373943 0.749739 -0.308526)
(-0.343288 0.66996 -0.280274)
(-0.39064 0.77006 -0.3129)
(-0.370156 0.733124 -0.303668)
(-0.418899 0.835412 -0.341283)
(-0.406039 0.795598 -0.326225)
(-0.38145 0.75721 -0.309525)
(-0.392905 0.790418 -0.320128)
(-0.406291 0.801385 -0.327754)
(-0.348211 0.679785 -0.283009)
(-0.383254 0.761037 -0.312417)
(-0.378075 0.739231 -0.302645)
(-0.34997 0.695817 -0.285698)
(-0.383533 0.749797 -0.305078)
(-0.344548 0.680954 -0.285261)
(-0.454674 0.912537 -0.391281)
(-0.474986 0.958826 -0.409054)
(-0.478353 0.954954 -0.405326)
(-0.461196 0.921459 -0.394431)
(-0.428221 0.859786 -0.364487)
(-0.427581 0.848104 -0.358461)
(-0.471429 0.940436 -0.396727)
(-0.473257 0.946428 -0.40211)
(-0.47924 0.958379 -0.401834)
(-0.431167 0.855142 -0.363997)
(-0.465753 0.928396 -0.389208)
(-0.460822 0.917862 -0.386611)
(-0.435932 0.868907 -0.370468)
(-0.433586 0.857154 -0.363997)
(-0.421541 0.836022 -0.352395)
(-0.415664 0.828752 -0.350044)
(-0.44575 0.899246 -0.379855)
(-0.46479 0.923893 -0.390123)
(-0.441161 0.876117 -0.371028)
(-0.422156 0.851317 -0.347963)
(-0.451985 0.897057 -0.367843)
(-0.449416 0.894687 -0.363318)
(-0.438266 0.876775 -0.359254)
(-0.409674 0.834271 -0.338726)
(-0.414524 0.838031 -0.344161)
(-0.385772 0.777304 -0.319859)
(-0.379946 0.763011 -0.312777)
(-0.255564 0.535537 -0.227276)
(-0.246535 0.515406 -0.214923)
(-0.261152 0.532702 -0.220669)
(-0.275089 0.568427 -0.228065)
(-0.320896 0.635372 -0.260303)
(-0.265815 0.54277 -0.223218)
(-0.245607 0.50038 -0.208146)
(-0.328621 0.669305 -0.276947)
(-0.332962 0.682345 -0.278259)
(-0.278796 0.580247 -0.24039)
(-0.277771 0.558956 -0.230538)
(-0.35943 0.716954 -0.297637)
(-0.387757 0.766368 -0.319625)
(-0.342644 0.675698 -0.277258)
(-0.348497 0.688132 -0.280996)
(-0.276744 0.556978 -0.231557)
(-0.256158 0.512366 -0.212132)
(-0.371631 0.734825 -0.303038)
(-0.358247 0.707126 -0.292106)
(-0.378163 0.744326 -0.307884)
(-0.275225 0.549511 -0.227725)
(-0.28826 0.581767 -0.243243)
(-0.357225 0.704652 -0.296671)
(-0.343106 0.687513 -0.288851)
(-0.367602 0.711853 -0.291042)
(-0.282639 0.571444 -0.235678)
(-0.295715 0.583505 -0.241007)
(-0.292031 0.573976 -0.235429)
(-0.294537 0.592891 -0.245769)
(-0.292175 0.590591 -0.247259)
(-0.261653 0.521302 -0.217266)
(-0.237063 0.475527 -0.199096)
(-0.258372 0.516038 -0.209837)
(-0.25277 0.49667 -0.2075)
(-0.426823 0.847825 -0.348247)
(-0.402869 0.794883 -0.332473)
(-0.399631 0.791713 -0.328843)
(-0.441197 0.872325 -0.361168)
(-0.420836 0.83402 -0.353393)
(-0.420163 0.828319 -0.342773)
(-0.379441 0.748131 -0.31203)
(-0.364478 0.731335 -0.300628)
(-0.34554 0.684358 -0.276175)
(-0.374695 0.736171 -0.307488)
(-0.346404 0.698994 -0.291722)
(-0.353865 0.696827 -0.287891)
(-0.371958 0.714111 -0.294807)
(-0.432098 0.853221 -0.355361)
(-0.381852 0.761483 -0.311993)
(-0.362369 0.729302 -0.301456)
(-0.303355 0.605163 -0.247803)
(-0.307768 0.607 -0.248867)
(-0.294197 0.592803 -0.247554)
(-0.271788 0.548221 -0.232613)
(-0.344238 0.686888 -0.284363)
(-0.344186 0.688782 -0.284177)
(-0.29718 0.596988 -0.245346)
(-0.416832 0.826982 -0.339488)
(-0.400258 0.793188 -0.325274)
(-0.387573 0.764071 -0.313086)
(-0.30882 0.61808 -0.253521)
(-0.373006 0.733195 -0.289671)
(-0.385688 0.760597 -0.307728)
(-0.349552 0.688321 -0.284909)
(-0.372456 0.747522 -0.29917)
(-0.382506 0.750561 -0.311038)
(-0.356064 0.716326 -0.296585)
(-0.336207 0.674998 -0.281299)
(-0.381784 0.756236 -0.308618)
(-0.339237 0.678974 -0.280863)
(-0.403408 0.812779 -0.332455)
(-0.421787 0.846785 -0.345771)
(-0.400903 0.792603 -0.324978)
(-0.377112 0.749077 -0.303914)
(-0.376183 0.752518 -0.308747)
(-0.346911 0.68782 -0.278801)
(-0.338772 0.675802 -0.27154)
(-0.365128 0.72851 -0.298004)
(-0.34491 0.688544 -0.287458)
(-0.395643 0.785305 -0.32264)
(-0.343495 0.69029 -0.280961)
(-0.41012 0.817322 -0.339537)
(-0.408534 0.811003 -0.341354)
(-0.367901 0.732458 -0.308245)
(-0.298252 0.597616 -0.252477)
(-0.378483 0.756492 -0.313612)
(-0.358478 0.716219 -0.297054)
(-0.412365 0.808192 -0.34135)
(-0.412145 0.818738 -0.340944)
(-0.406084 0.806939 -0.33737)
(-0.400653 0.789327 -0.333001)
(-0.35281 0.719489 -0.299706)
(-0.37928 0.738672 -0.311678)
(-0.412159 0.808477 -0.338938)
(-0.4126 0.817434 -0.341219)
(-0.355642 0.70113 -0.289754)
(-0.324769 0.636461 -0.271736)
(-0.347992 0.687008 -0.287938)
(-0.373833 0.740786 -0.31232)
(-0.339164 0.689443 -0.293313)
(-0.322687 0.617752 -0.262954)