/*--------------------------------*- C++ -*----------------------------------*\
| =========                 |                                                 |
| \\      /  F ield         | OpenFOAM: The Open Source CFD Toolbox           |
|  \\    /   O peration     | Version:  v1612+                                |
|   \\  /    A nd           | Web:      www.OpenFOAM.com                      |
|    \\/     M anipulation  |                                                 |
\*---------------------------------------------------------------------------*/
FoamFile
{
    version     2.0;
    format      ascii;
    class       volVectorField;
    location    "50";
    object      U;
}
// * * * * * * * * * * * * * * * * * * * * * * * * * * * * * * * * * * * * * //

dimensions      [0 1 -1 0 0 0 0];

internalField   nonuniform List<vector> 
19069
(
(-0.427206 0.426929 -0.200113)
(-0.336676 0.571671 -0.277933)
(-0.643969 0.372941 -0.479645)
(-0.503368 0.220766 -0.286134)
(-0.467512 0.215881 -0.284189)
(-0.328959 0.16513 -0.214676)
(-0.367402 0.177036 -0.223246)
(-0.414641 0.194207 -0.211277)
(-0.395909 0.192384 -0.196685)
(-0.485956 0.230027 -0.289936)
(-0.5046 0.234435 -0.277938)
(-0.423697 0.189405 -0.213362)
(-0.471427 0.219649 -0.286052)
(-0.330448 0.185315 -0.2171)
(-0.328249 0.185881 -0.223121)
(-0.297312 0.164179 -0.189432)
(-0.383931 0.188211 -0.24889)
(-0.406049 0.193401 -0.213612)
(-0.437193 0.206142 -0.210704)
(-0.440029 0.210257 -0.248792)
(-0.334346 0.163039 -0.19854)
(-0.299654 0.510988 -0.105553)
(-0.284963 0.493811 -0.0898202)
(-0.347755 0.54502 -0.12776)
(-0.403798 0.566843 -0.169536)
(-0.411149 0.539393 -0.152046)
(-0.351991 0.495934 -0.10162)
(-0.299094 0.498111 -0.0823826)
(-0.262486 0.45384 -0.057639)
(-0.415138 0.570702 -0.196265)
(-0.371122 0.491091 -0.112258)
(-0.338717 0.46695 -0.0862697)
(-0.437893 0.532439 -0.171104)
(-0.416341 0.564034 -0.180672)
(-0.358776 0.534999 -0.1361)
(-0.349253 0.467168 -0.0967233)
(-0.297058 0.442291 -0.0532145)
(-0.443166 0.542063 -0.17699)
(-0.369267 0.496359 -0.116339)
(-0.325071 0.492569 -0.102429)
(-0.302112 0.463562 -0.0689361)
(-0.40557 0.353331 -0.360684)
(-0.307 0.327057 -0.295013)
(-0.311914 0.337858 -0.300233)
(-0.301864 0.29671 -0.289378)
(-0.425631 0.357639 -0.360681)
(-0.413482 0.283177 -0.384174)
(-0.357738 0.328209 -0.332015)
(-0.709091 0.436819 -0.513)
(-0.751865 0.41341 -0.523523)
(-0.691268 0.438371 -0.494304)
(-0.69792 0.437435 -0.504163)
(-0.625884 0.386097 -0.440846)
(-0.535273 0.364858 -0.399215)
(-0.595987 0.369786 -0.428838)
(-0.622151 0.384798 -0.44379)
(-0.608405 0.358391 -0.414924)
(-0.590652 0.349817 -0.419477)
(-0.570622 0.34424 -0.401913)
(-0.62876 0.346566 -0.428621)
(-0.719331 0.396038 -0.493276)
(-0.701542 0.396674 -0.473888)
(-0.626449 0.400624 -0.450052)
(-0.55059 0.347755 -0.390548)
(-0.558574 0.329915 -0.377046)
(-0.574731 0.337656 -0.389209)
(-0.573554 0.375439 -0.420974)
(-0.517001 0.347419 -0.380831)
(-0.420857 0.301281 -0.379539)
(-0.427265 0.337001 -0.37748)
(-0.515509 0.31274 -0.427967)
(-0.56357 0.334658 -0.448032)
(-0.422471 0.359825 -0.375058)
(-0.529268 0.372908 -0.425971)
(-0.484535 0.3245 -0.408242)
(-0.518583 0.306638 -0.426383)
(-0.373714 0.280269 -0.34765)
(-0.348686 0.312207 -0.342215)
(-0.411491 0.377952 -0.375936)
(-0.368378 0.30976 -0.345814)
(-0.389372 0.286142 -0.354708)
(-0.42759 0.354421 -0.385949)
(-0.461206 0.378657 -0.379016)
(-0.4758 0.384886 -0.360838)
(-0.45707 0.398374 -0.357382)
(-0.472789 0.36622 -0.382319)
(-0.431194 0.383814 -0.341121)
(-0.564081 0.384841 -0.420339)
(-0.572012 0.371935 -0.458886)
(-0.468622 0.395188 -0.351816)
(-0.51635 0.416724 -0.36314)
(-0.646984 0.415601 -0.464206)
(-0.617255 0.417078 -0.432992)
(-0.592263 0.351994 -0.469743)
(-0.590925 0.354285 -0.469089)
(-0.64118 0.419844 -0.448276)
(-0.569021 0.394107 -0.416875)
(-0.893346 0.4345 -0.619022)
(-0.854299 0.438484 -0.544229)
(-0.848835 0.465869 -0.546174)
(-0.753957 0.431273 -0.424381)
(-0.897947 0.418774 -0.62054)
(-0.791321 0.344634 -0.539029)
(-0.761275 0.436888 -0.432112)
(-0.758337 0.41842 -0.425918)
(-0.830721 0.444082 -0.517087)
(-0.733846 0.321239 -0.464098)
(-0.733817 0.375503 -0.38537)
(-0.745171 0.409366 -0.395538)
(-0.733251 0.439915 -0.505281)
(-0.730737 0.446886 -0.512848)
(-0.797715 0.467701 -0.551861)
(-0.884671 0.497656 -0.60679)
(-0.873745 0.494948 -0.606261)
(-0.823511 0.503018 -0.575927)
(-0.785064 0.4931 -0.554249)
(-0.758656 0.460169 -0.534763)
(-0.707812 0.450756 -0.493324)
(-0.905495 0.520976 -0.613745)
(-0.878911 0.53604 -0.620215)
(-0.731772 0.465966 -0.533868)
(-0.865938 0.510173 -0.609831)
(-0.881613 0.525199 -0.615625)
(-0.876613 0.505329 -0.621713)
(-0.869603 0.506969 -0.610351)
(-0.77479 0.478779 -0.560793)
(-0.731936 0.506876 -0.45196)
(-0.770511 0.50895 -0.49084)
(-0.802797 0.52615 -0.519817)
(-0.789073 0.494459 -0.472926)
(-0.710273 0.466197 -0.391949)
(-0.683957 0.512657 -0.377126)
(-0.766074 0.512106 -0.497477)
(-0.817955 0.51338 -0.529736)
(-0.648763 0.481543 -0.359557)
(-0.694342 0.501244 -0.392555)
(-0.806097 0.517267 -0.499328)
(-0.724203 0.500889 -0.440722)
(-0.760337 0.501429 -0.487614)
(-0.713951 0.49861 -0.42294)
(-0.752908 0.496082 -0.473185)
(-0.874141 0.479006 -0.577943)
(-0.87591 0.489183 -0.571264)
(-0.882617 0.479135 -0.571876)
(-0.747946 0.43765 -0.494355)
(-0.753876 0.424997 -0.460165)
(-0.794202 0.449348 -0.498041)
(-0.733332 0.430149 -0.467672)
(-0.775901 0.451243 -0.500999)
(-0.751613 0.726667 -0.532256)
(-0.721313 0.719649 -0.501281)
(-0.822905 0.732995 -0.566727)
(-0.82628 0.720219 -0.564312)
(-0.869824 0.717309 -0.587151)
(-0.868834 0.764861 -0.587491)
(-0.765868 0.70202 -0.510535)
(-0.704866 0.714894 -0.495611)
(-0.754419 0.736453 -0.535357)
(-0.836373 0.669789 -0.556969)
(-0.749267 0.685985 -0.483861)
(-0.725919 0.676483 -0.457243)
(-0.814513 0.728203 -0.547648)
(-0.813012 0.686391 -0.541493)
(-0.704186 0.705901 -0.46316)
(-0.739698 0.726784 -0.49322)
(-0.790524 0.706657 -0.52444)
(-0.739526 0.713943 -0.48563)
(-0.76099 0.695099 -0.486861)
(-0.653477 0.577237 -0.496256)
(-0.602006 0.579458 -0.47033)
(-0.643349 0.567334 -0.491134)
(-0.620428 0.570999 -0.49615)
(-0.456022 0.521206 -0.394849)
(-0.408117 0.475095 -0.365499)
(-0.637141 0.575199 -0.505537)
(-0.601188 0.564586 -0.475096)
(-0.466165 0.494773 -0.418396)
(-0.416979 0.464594 -0.378231)
(-0.478743 0.539359 -0.415271)
(-0.462708 0.503271 -0.401697)
(-0.594905 0.549295 -0.475935)
(-0.450715 0.508196 -0.398221)
(-0.625404 0.549195 -0.501836)
(-0.472298 0.480345 -0.411429)
(-0.511077 0.50006 -0.433534)
(-0.495486 0.514417 -0.418634)
(-0.656791 0.549963 -0.507417)
(-0.509846 0.501462 -0.433098)
(-0.354186 0.252864 -0.292969)
(-0.318632 0.246726 -0.275077)
(-0.290456 0.238289 -0.260036)
(-0.302718 0.237227 -0.259734)
(-0.264202 0.21487 -0.227698)
(-0.393396 0.267205 -0.290562)
(-0.347018 0.254512 -0.270639)
(-0.378246 0.253284 -0.288905)
(-0.329659 0.236917 -0.266227)
(-0.333499 0.237989 -0.220404)
(-0.361763 0.244775 -0.236076)
(-0.28688 0.214068 -0.208435)
(-0.427163 0.26893 -0.288304)
(-0.266412 0.201141 -0.210236)
(-0.313123 0.216993 -0.220781)
(-0.375084 0.245301 -0.251118)
(-0.620464 0.635596 -0.509691)
(-0.642286 0.658007 -0.511602)
(-0.650939 0.657338 -0.507615)
(-0.669995 0.684356 -0.519099)
(-0.755758 0.707794 -0.570081)
(-0.603857 0.670095 -0.501728)
(-0.615896 0.653591 -0.504587)
(-0.604575 0.650762 -0.510587)
(-0.602351 0.642652 -0.495366)
(-0.78439 0.723878 -0.58572)
(-0.675001 0.649203 -0.522711)
(-0.600184 0.614537 -0.478803)
(-0.787402 0.694126 -0.57627)
(-0.634115 0.628273 -0.494517)
(-0.287582 0.534925 -0.307571)
(-0.258396 0.52276 -0.278474)
(-0.296109 0.522423 -0.307474)
(-0.294165 0.532127 -0.30968)
(-0.302835 0.556715 -0.297954)
(-0.301006 0.565852 -0.265451)
(-0.280259 0.538526 -0.253213)
(-0.499091 0.551327 -0.383442)
(-0.535057 0.606713 -0.403032)
(-0.430315 0.579792 -0.355199)
(-0.449633 0.54295 -0.382145)
(-0.299605 0.554897 -0.257905)
(-0.325354 0.568816 -0.267518)
(-0.482251 0.573809 -0.3725)
(-0.444866 0.57298 -0.351392)
(-0.428511 0.492242 -0.373046)
(-0.481592 0.553441 -0.38685)
(-0.472976 0.604127 -0.356047)
(-0.347952 0.557404 -0.32492)
(-0.334416 0.576573 -0.278942)
(-0.569947 0.469901 -0.32353)
(-0.581382 0.479774 -0.322307)
(-0.565832 0.455303 -0.304779)
(-0.546783 0.444002 -0.300837)
(-0.518194 0.447184 -0.265714)
(-0.51187 0.443085 -0.237181)
(-0.459287 0.378512 -0.241882)
(-0.453826 0.379238 -0.237468)
(-0.450934 0.373097 -0.231083)
(-0.498898 0.441536 -0.224481)
(-0.484689 0.379194 -0.255861)
(-0.44146 0.387108 -0.187504)
(-0.452825 0.400032 -0.209517)
(-0.478556 0.433805 -0.19718)
(-0.472673 0.383866 -0.233315)
(-0.414884 0.371109 -0.178395)
(-0.410034 0.367948 -0.154225)
(-0.619428 0.821599 -0.481172)
(-0.57069 0.804592 -0.462188)
(-0.57102 0.793862 -0.444518)
(-0.565009 0.796543 -0.451386)
(-0.632656 0.849906 -0.511068)
(-0.667115 0.847166 -0.504071)
(-0.594544 0.810151 -0.463574)
(-0.707663 0.871256 -0.510935)
(-0.696932 0.896831 -0.484744)
(-0.633929 0.848782 -0.444277)
(-0.454503 0.293435 -0.208145)
(-0.483934 0.310682 -0.214767)
(-0.451474 0.276352 -0.206901)
(-0.394378 0.247779 -0.18565)
(-0.4726 0.296268 -0.288032)
(-0.485457 0.301684 -0.30537)
(-0.398908 0.255637 -0.243715)
(-0.356002 0.236316 -0.202125)
(-0.411347 0.263459 -0.232307)
(-0.469558 0.296719 -0.222506)
(-0.51771 0.321993 -0.255773)
(-0.413959 0.268066 -0.203435)
(-0.356554 0.235241 -0.182434)
(-0.551859 0.335183 -0.280172)
(-0.469822 0.274094 -0.233406)
(-0.540587 0.322239 -0.293036)
(-0.514072 0.300297 -0.269199)
(-0.412386 0.25246 -0.207992)
(-0.398544 0.24918 -0.203421)
(-0.491097 0.290316 -0.309456)
(-0.56755 0.319598 -0.32299)
(-0.432488 0.25952 -0.24115)
(-0.403603 0.387667 -0.371236)
(-0.469836 0.381986 -0.404259)
(-0.394083 0.391842 -0.367187)
(-0.385159 0.397987 -0.365368)
(-0.264273 0.372524 -0.309898)
(-0.276248 0.3638 -0.315803)
(-0.444384 0.361974 -0.394711)
(-0.443324 0.374549 -0.390284)
(-0.246887 0.354522 -0.293977)
(-0.378246 0.323498 -0.350375)
(-0.340668 0.322539 -0.342645)
(-0.373133 0.382483 -0.359895)
(-0.395707 0.352907 -0.368535)
(-0.274644 0.350423 -0.302476)
(-0.250338 0.327888 -0.297467)
(-0.222555 0.318314 -0.26914)
(-0.232607 0.313904 -0.281302)
(-0.23791 0.304503 -0.28484)
(-0.268419 0.315109 -0.31325)
(-0.283949 0.306148 -0.31117)
(-0.270497 0.299906 -0.318664)
(-0.265488 0.292269 -0.312645)
(-0.840694 0.501101 -0.57727)
(-0.897376 0.563652 -0.60964)
(-0.81581 0.468184 -0.561596)
(-0.863748 0.502557 -0.590338)
(-0.887696 0.537686 -0.607469)
(-0.863709 0.525461 -0.58377)
(-0.843091 0.540608 -0.546048)
(-0.767794 0.479603 -0.463095)
(-0.824191 0.554623 -0.53188)
(-0.817832 0.573055 -0.507593)
(-0.768451 0.545466 -0.463536)
(-0.721096 0.49808 -0.435354)
(-0.784775 0.476031 -0.509577)
(-0.721628 0.443279 -0.441988)
(-0.85024 0.551694 -0.553084)
(-0.707289 0.471107 -0.42344)
(-0.720499 0.45697 -0.436257)
(-0.776913 0.510542 -0.495637)
(-0.857245 0.512394 -0.603033)
(-0.844955 0.516512 -0.584657)
(-0.922147 0.532259 -0.649736)
(-0.959989 0.573574 -0.672227)
(-0.890789 0.513604 -0.611348)
(-0.952504 0.531661 -0.664372)
(-0.857683 0.499031 -0.604531)
(-0.830759 0.515389 -0.575603)
(-0.898364 0.544351 -0.622751)
(-0.956275 0.54875 -0.664085)
(-0.945163 0.559005 -0.634044)
(-0.950985 0.535901 -0.661912)
(-0.891599 0.554853 -0.596618)
(-1.01557 0.595065 -0.674761)
(-0.808792 0.525459 -0.541458)
(-0.929078 0.564063 -0.605906)
(-0.724616 0.731436 -0.415327)
(-0.700058 0.742187 -0.387416)
(-0.793927 0.763247 -0.487935)
(-0.821341 0.808385 -0.493492)
(-0.853301 0.786895 -0.553514)
(-0.826632 0.785422 -0.53232)
(-0.783072 0.790543 -0.459737)
(-0.705501 0.71944 -0.424076)
(-0.751749 0.793446 -0.45744)
(-0.816869 0.832138 -0.540738)
(-0.836206 0.824076 -0.549475)
(-0.823416 0.826005 -0.532589)
(-0.83781 0.814525 -0.537464)
(-0.795939 0.801714 -0.496613)
(-0.537798 0.541634 -0.288422)
(-0.476481 0.493585 -0.210212)
(-0.522778 0.505761 -0.269804)
(-0.479869 0.456577 -0.258529)
(-0.491243 0.465645 -0.233198)
(-0.44763 0.413535 -0.227897)
(-0.400128 0.424011 -0.141138)
(-0.42865 0.445907 -0.154351)
(-0.46268 0.424786 -0.23234)
(-0.426557 0.407175 -0.191648)
(-0.46648 0.531563 -0.402043)
(-0.482918 0.531916 -0.396785)
(-0.55875 0.520723 -0.439615)
(-0.511441 0.556307 -0.401844)
(-0.535505 0.569278 -0.418967)
(-0.58832 0.533575 -0.440519)
(-0.660216 0.538745 -0.484343)
(-0.69009 0.571892 -0.481399)
(-0.575182 0.592833 -0.426501)
(-0.665351 0.559493 -0.476184)
(-0.694242 0.583006 -0.483507)
(-0.661397 0.591313 -0.449273)
(-0.577373 0.695399 -0.511738)
(-0.4907 0.674836 -0.473561)
(-0.620416 0.688473 -0.526379)
(-0.540675 0.685676 -0.487193)
(-0.546842 0.721424 -0.467059)
(-0.530293 0.713841 -0.480149)
(-0.624365 0.736301 -0.510219)
(-0.723718 0.753208 -0.570472)
(-0.549412 0.690241 -0.495718)
(-0.501772 0.690385 -0.466846)
(-0.582996 0.682534 -0.501718)
(-0.541114 0.666595 -0.493077)
(-0.66815 0.75607 -0.547403)
(-0.704179 0.757805 -0.556782)
(-0.552734 0.716517 -0.490456)
(-0.505018 0.712899 -0.465904)
(-0.604499 0.712828 -0.518286)
(-0.666681 0.433896 -0.315964)
(-0.678783 0.429676 -0.324124)
(-0.527461 0.427239 -0.185995)
(-0.508517 0.431962 -0.193757)
(-0.677723 0.423162 -0.318759)
(-0.681032 0.422314 -0.331256)
(-0.627441 0.423785 -0.27763)
(-0.590561 0.437586 -0.26687)
(-0.476949 0.395992 -0.143952)
(-0.482917 0.40417 -0.164331)
(-0.448411 0.398715 -0.129736)
(-0.519509 0.381809 -0.174987)
(-0.511514 0.40913 -0.188253)
(-0.534404 0.379373 -0.183447)
(-0.507526 0.383264 -0.170218)
(-0.604984 0.42716 -0.285929)
(-0.565959 0.396391 -0.215659)
(-0.624106 0.418995 -0.27734)
(-0.379591 0.591692 -0.291813)
(-0.516261 0.707216 -0.384903)
(-0.442245 0.613085 -0.328882)
(-0.373142 0.652282 -0.360794)
(-0.458767 0.72868 -0.4101)
(-0.358111 0.625061 -0.32939)
(-0.403788 0.632375 -0.340357)
(-0.549674 0.766921 -0.410487)
(-0.47239 0.656218 -0.367175)
(-0.387464 0.656624 -0.359328)
(-0.486868 0.734654 -0.419514)
(-0.42731 0.642276 -0.365681)
(-0.404563 0.665182 -0.372293)
(-0.490455 0.480691 -0.387564)
(-0.528008 0.529004 -0.430269)
(-0.512342 0.509578 -0.409042)
(-0.443431 0.456845 -0.358845)
(-0.430947 0.48201 -0.3812)
(-0.475662 0.521402 -0.413956)
(-0.553802 0.510639 -0.409763)
(-0.578408 0.556211 -0.4345)
(-0.548164 0.548666 -0.438849)
(-0.559626 0.568398 -0.443828)
(-0.428286 0.450378 -0.365227)
(-0.491544 0.529997 -0.416596)
(-0.46528 0.488771 -0.393655)
(-0.395022 0.45443 -0.359611)
(-0.541245 0.505993 -0.416939)
(-0.620027 0.570066 -0.468973)
(-0.616606 0.589467 -0.477489)
(-0.579804 0.542411 -0.443603)
(-0.8089 0.645465 -0.508914)
(-0.802743 0.633068 -0.502923)
(-0.536508 0.467036 -0.304269)
(-0.508737 0.441948 -0.287081)
(-0.627017 0.569455 -0.368083)
(-0.667498 0.581833 -0.408628)
(-0.702868 0.589467 -0.439917)
(-0.521811 0.463203 -0.313386)
(-0.561247 0.495345 -0.351136)
(-0.567374 0.492191 -0.304951)
(-0.634475 0.550543 -0.378826)
(-0.639108 0.549962 -0.412192)
(-0.70487 0.590367 -0.437831)
(-0.546126 0.479547 -0.309901)
(-0.634142 0.637696 -0.501567)
(-0.640398 0.648942 -0.499538)
(-0.555753 0.621997 -0.469951)
(-0.479596 0.539218 -0.42795)
(-0.575491 0.601097 -0.464112)
(-0.653754 0.62569 -0.503747)
(-0.599773 0.59517 -0.476689)
(-0.465077 0.531902 -0.407119)
(-0.468515 0.533437 -0.405889)
(-0.506263 0.605495 -0.434974)
(-0.576565 0.623363 -0.480782)
(-0.540041 0.611521 -0.46157)
(-0.446284 0.526746 -0.40324)
(-0.435972 0.520121 -0.390855)
(-0.404655 0.541519 -0.395306)
(-0.368034 0.517484 -0.372189)
(-0.379225 0.53593 -0.377042)
(-0.389925 0.545364 -0.386131)
(-0.595606 0.630318 -0.459884)
(-0.475337 0.546389 -0.414362)
(-0.407568 0.519993 -0.387695)
(-0.424991 0.518814 -0.389971)
(-0.586844 0.573212 -0.352667)
(-0.552858 0.54887 -0.330596)
(-0.543885 0.553208 -0.326708)
(-0.487466 0.51575 -0.296786)
(-0.690815 0.670537 -0.421417)
(-0.697613 0.666197 -0.447488)
(-0.544888 0.559538 -0.404696)
(-0.508625 0.527773 -0.372779)
(-0.524307 0.519255 -0.369825)
(-0.484138 0.508758 -0.350897)
(-0.531853 0.523099 -0.328333)
(-0.508063 0.517851 -0.32019)
(-0.556741 0.583846 -0.357674)
(-0.531768 0.554721 -0.344218)
(-0.698023 0.684976 -0.455286)
(-0.542949 0.567823 -0.398049)
(-0.598148 0.568158 -0.402273)
(-0.710191 0.670769 -0.469731)
(-0.687943 0.669539 -0.474961)
(-0.681746 0.597501 -0.396311)
(-0.66761 0.587168 -0.374159)
(-0.508629 0.479514 -0.238013)
(-0.502856 0.467902 -0.23044)
(-0.511772 0.48785 -0.219307)
(-0.479437 0.456049 -0.209352)
(-0.510092 0.460278 -0.256824)
(-0.505893 0.455049 -0.243464)
(-0.459491 0.429859 -0.225956)
(-0.688729 0.590127 -0.383505)
(-0.642797 0.561594 -0.349785)
(-0.590304 0.507596 -0.316055)
(-0.497136 0.453068 -0.224359)
(-0.537503 0.49545 -0.242723)
(-0.552749 0.486206 -0.263405)
(-0.541704 0.474799 -0.236829)
(-0.63064 0.545498 -0.323694)
(-0.659765 0.523211 -0.433912)
(-0.657867 0.526786 -0.435997)
(-0.794173 0.522674 -0.524201)
(-0.798878 0.529935 -0.525325)
(-0.704025 0.519988 -0.478989)
(-0.712476 0.522366 -0.486512)
(-0.662137 0.525871 -0.419082)
(-0.635112 0.515938 -0.39106)
(-0.686535 0.520723 -0.452473)
(-0.71496 0.533908 -0.47595)
(-0.814831 0.547663 -0.563253)
(-0.794483 0.54844 -0.549584)
(-0.734479 0.518427 -0.464159)
(-0.761906 0.524092 -0.499729)
(-0.713481 0.535546 -0.463565)
(-0.521314 0.505569 -0.333378)
(-0.632444 0.496684 -0.414799)
(-0.577968 0.495272 -0.397024)
(-0.556129 0.508656 -0.351811)
(-0.677813 0.534686 -0.438306)
(-0.743065 0.489014 -0.504854)
(-0.730143 0.512352 -0.496723)
(-0.626242 0.496125 -0.422686)
(-0.670756 0.508273 -0.461995)
(-0.657782 0.465492 -0.470635)
(-0.627763 0.46405 -0.464894)
(-0.549005 0.449808 -0.410858)
(-0.936636 0.520471 -0.609964)
(-0.918392 0.501903 -0.602837)
(-0.897772 0.494933 -0.584792)
(-0.758181 0.424459 -0.446983)
(-0.690504 0.417603 -0.408663)
(-0.87038 0.506521 -0.551619)
(-0.769725 0.438856 -0.474092)
(-0.839919 0.480081 -0.517217)
(-0.778785 0.45304 -0.44046)
(-0.748225 0.431172 -0.431675)
(-0.828182 0.491205 -0.5154)
(-0.746581 0.462345 -0.44094)
(-0.765076 0.455829 -0.457035)
(-0.627204 0.514901 -0.363833)
(-0.639005 0.507918 -0.368977)
(-0.689636 0.523534 -0.434637)
(-0.648372 0.514183 -0.368686)
(-0.67519 0.520362 -0.388437)
(-0.716232 0.536031 -0.439355)
(-0.757064 0.549321 -0.493632)
(-0.673081 0.507387 -0.3834)
(-0.672489 0.501865 -0.380736)
(-0.762772 0.512767 -0.457913)
(-0.745939 0.488207 -0.442596)
(-0.793757 0.536193 -0.509135)
(-0.859662 0.549292 -0.569934)
(-0.757672 0.484112 -0.444495)
(-0.795815 0.544703 -0.527152)
(-0.761829 0.52602 -0.499646)
(-0.82909 0.530893 -0.525574)
(-0.537421 0.269712 -0.43544)
(-0.514453 0.3043 -0.435611)
(-0.396226 0.208295 -0.331453)
(-0.331668 0.207314 -0.302628)
(-0.398369 0.209631 -0.343662)
(-0.372986 0.208641 -0.316651)
(-0.486108 0.252647 -0.408241)
(-0.467296 0.221933 -0.382327)
(-0.419403 0.264212 -0.37185)
(-0.359536 0.233668 -0.32833)
(-0.378509 0.27885 -0.36248)
(-0.437472 0.295983 -0.396625)
(-0.330625 0.254833 -0.326998)
(-0.538873 0.550597 -0.307335)
(-0.591385 0.590419 -0.362387)
(-0.450447 0.502592 -0.201625)
(-0.420797 0.50765 -0.192055)
(-0.57928 0.547742 -0.315177)
(-0.500017 0.535284 -0.272348)
(-0.542266 0.56175 -0.328621)
(-0.469625 0.487785 -0.204089)
(-0.447239 0.500462 -0.210032)
(-0.48665 0.537036 -0.234238)
(-0.512545 0.532064 -0.255228)
(-0.447636 0.503244 -0.185899)
(-0.447655 0.515891 -0.192539)
(-0.63377 0.541183 -0.36336)
(-0.556735 0.532542 -0.287364)
(-0.652638 0.525881 -0.374924)
(-0.638622 0.543984 -0.35612)
(-0.545575 0.601202 -0.332706)
(-0.572364 0.563129 -0.329165)
(-0.507758 0.522735 -0.235399)
(-0.545062 0.50356 -0.256117)
(-0.64665 0.533767 -0.367741)
(-0.649134 0.551486 -0.385186)
(-0.574402 0.510125 -0.287302)
(-0.362661 0.423322 -0.313388)
(-0.488456 0.437246 -0.361539)
(-0.549645 0.450583 -0.397385)
(-0.453309 0.418448 -0.358947)
(-0.574877 0.386859 -0.446884)
(-0.648087 0.430908 -0.482567)
(-0.367813 0.405545 -0.329717)
(-0.404833 0.379944 -0.362709)
(-0.614399 0.44427 -0.462847)
(-0.476924 0.431115 -0.388762)
(-0.41269 0.40936 -0.367443)
(-0.551101 0.393081 -0.444131)
(-0.616316 0.423304 -0.476961)
(-0.406886 0.383574 -0.361307)
(-0.444151 0.376398 -0.390869)
(-0.38658 0.350451 -0.364293)
(-0.351725 0.391158 -0.344199)
(-0.420524 0.45217 -0.208841)
(-0.434272 0.458334 -0.219161)
(-0.379754 0.442664 -0.189713)
(-0.341016 0.43393 -0.170465)
(-0.513994 0.465456 -0.275992)
(-0.498215 0.459687 -0.278112)
(-0.396396 0.449048 -0.195036)
(-0.396147 0.444016 -0.227175)
(-0.491254 0.469171 -0.310496)
(-0.488266 0.470272 -0.295792)
(-0.355903 0.447441 -0.204941)
(-0.315991 0.433067 -0.172436)
(-0.395002 0.455447 -0.241945)
(-0.392057 0.453294 -0.247727)
(-0.487407 0.475344 -0.273796)
(-0.406672 0.473669 -0.218893)
(-0.534798 0.308376 -0.437469)
(-0.540725 0.293498 -0.427242)
(-0.481519 0.293175 -0.400315)
(-0.525936 0.290292 -0.41468)
(-0.522746 0.299684 -0.407355)
(-0.27923 0.246207 -0.275682)
(-0.272195 0.238717 -0.266734)
(-0.462151 0.241361 -0.351377)
(-0.454795 0.268762 -0.353524)
(-0.307529 0.233994 -0.285207)
(-0.317808 0.223649 -0.282557)
(-0.335169 0.246055 -0.309314)
(-0.368566 0.280815 -0.338773)
(-0.281902 0.245818 -0.27952)
(-0.51453 0.278456 -0.406699)
(-0.524427 0.28434 -0.427272)
(-0.368089 0.278122 -0.341574)
(-0.35103 0.222353 -0.316736)
(-0.33643 0.2337 -0.31195)
(-0.466267 0.235874 -0.36356)
(-0.426402 0.228272 -0.354628)
(-0.440447 0.236356 -0.341924)
(-0.487799 0.301904 -0.408172)
(-0.395044 0.271436 -0.346728)
(-0.699572 0.378686 -0.370183)
(-0.67352 0.353652 -0.368479)
(-0.593172 0.354334 -0.236736)
(-0.544842 0.324824 -0.205804)
(-0.528764 0.320161 -0.201003)
(-0.551465 0.311571 -0.215878)
(-0.557308 0.311477 -0.233487)
(-0.629649 0.33655 -0.283829)
(-0.643358 0.338881 -0.312853)
(-0.642536 0.360817 -0.309077)
(-0.673581 0.400252 -0.334084)
(-0.718705 0.391771 -0.380846)
(-0.659755 0.372473 -0.304896)
(-0.647483 0.381329 -0.297776)
(-0.667466 0.41445 -0.320498)
(-0.575443 0.358101 -0.227834)
(-0.601403 0.320987 -0.265887)
(-0.681479 0.377512 -0.324996)
(-0.427606 0.627639 -0.206818)
(-0.468574 0.665982 -0.234666)
(-0.697364 0.736608 -0.41207)
(-0.659296 0.690852 -0.353371)
(-0.50196 0.641687 -0.212143)
(-0.436391 0.615889 -0.176033)
(-0.446372 0.603513 -0.188133)
(-0.412749 0.595672 -0.180204)
(-0.426761 0.632712 -0.217568)
(-0.46402 0.630828 -0.246628)
(-0.546123 0.69422 -0.328954)
(-0.511676 0.684377 -0.29712)
(-0.686849 0.702732 -0.390986)
(-0.621918 0.67012 -0.322652)
(-0.677944 0.731965 -0.390061)
(-0.483481 0.645965 -0.20878)
(-0.449468 0.633624 -0.197875)
(-0.527762 0.630076 -0.230422)
(-0.863887 0.775827 -0.622415)
(-0.910925 0.828125 -0.619511)
(-0.849894 0.746486 -0.576549)
(-0.877734 0.807997 -0.594146)
(-0.836699 0.78864 -0.599081)
(-0.818937 0.774646 -0.588528)
(-0.764523 0.791318 -0.588118)
(-0.774637 0.77911 -0.594287)
(-0.74377 0.806999 -0.574674)
(-0.72525 0.766799 -0.561301)
(-0.761571 0.806765 -0.546775)
(-0.708812 0.777168 -0.510101)
(-0.834825 0.818863 -0.585497)
(-0.852864 0.808455 -0.580958)
(-0.878301 0.821923 -0.593428)
(-0.845577 0.796724 -0.600696)
(-0.825228 0.765258 -0.592067)
(-0.841068 0.818153 -0.595802)
(-0.783506 0.776513 -0.561538)
(-0.778272 0.784029 -0.550679)
(-0.857913 0.860181 -0.595561)
(-0.74903 0.796848 -0.573484)
(-0.839475 0.813301 -0.583686)
(-0.571885 0.300411 -0.335063)
(-0.600443 0.313202 -0.326914)
(-0.736781 0.356651 -0.477003)
(-0.632646 0.328266 -0.390134)
(-0.679716 0.355048 -0.409931)
(-0.717906 0.390425 -0.410809)
(-0.736194 0.393966 -0.428668)
(-0.72892 0.383225 -0.463807)
(-0.749863 0.473694 -0.434004)
(-0.765226 0.482885 -0.44118)
(-0.821857 0.49168 -0.520227)
(-0.753788 0.492675 -0.439603)
(-0.731521 0.492499 -0.439298)
(-0.813754 0.503293 -0.519702)
(-0.840013 0.501928 -0.532311)
(-0.844724 0.48417 -0.493008)
(-0.783614 0.477283 -0.438827)
(-0.851926 0.483495 -0.498517)
(-0.766728 0.500823 -0.451337)
(-0.750899 0.487062 -0.416464)
(-0.895917 0.498283 -0.564842)
(-0.810912 0.493486 -0.467169)
(-0.836109 0.485692 -0.502581)
(-0.782554 0.499534 -0.446086)
(-0.823724 0.497389 -0.487866)
(-0.841821 0.492756 -0.515768)
(-0.406619 0.62083 -0.262135)
(-0.427357 0.627557 -0.253955)
(-0.460518 0.633834 -0.290408)
(-0.481151 0.628932 -0.304017)
(-0.287856 0.576323 -0.192729)
(-0.316907 0.58834 -0.216226)
(-0.414979 0.599512 -0.242323)
(-0.455504 0.610903 -0.266042)
(-0.28911 0.550601 -0.161231)
(-0.246972 0.528165 -0.148841)
(-0.29424 0.562363 -0.193213)
(-0.266211 0.540039 -0.168686)
(-0.432495 0.606383 -0.243531)
(-0.325067 0.587802 -0.181945)
(-0.346728 0.571789 -0.206622)
(-0.491657 0.4623 -0.388225)
(-0.527328 0.484821 -0.408479)
(-0.613884 0.52695 -0.459852)
(-0.593115 0.530834 -0.453727)
(-0.466491 0.451715 -0.383525)
(-0.434018 0.438303 -0.366201)
(-0.45937 0.487262 -0.397141)
(-0.419311 0.468608 -0.372644)
(-0.463039 0.463415 -0.394125)
(-0.436412 0.456249 -0.373612)
(-0.556104 0.535037 -0.45015)
(-0.445262 0.490993 -0.397912)
(-0.450935 0.489014 -0.397176)
(-0.454551 0.449605 -0.378389)
(-0.579892 0.525822 -0.45294)
(-0.487995 0.456268 -0.394779)
(-0.470253 0.486912 -0.410953)
(-0.585246 0.546954 -0.460178)
(-0.470574 0.509385 -0.41471)
(-0.474955 0.576644 -0.274264)
(-0.460715 0.574395 -0.271051)
(-0.450829 0.565669 -0.260655)
(-0.386387 0.536298 -0.188565)
(-0.462672 0.588187 -0.285041)
(-0.387036 0.543619 -0.19723)
(-0.491379 0.558791 -0.298001)
(-0.377529 0.538275 -0.203788)
(-0.358232 0.565291 -0.237083)
(-0.495517 0.583001 -0.322511)
(-0.470857 0.601085 -0.314658)
(-0.39068 0.575037 -0.280623)
(-0.34237 0.551452 -0.244111)
(-0.337038 0.523115 -0.221478)
(-0.29525 0.5008 -0.185935)
(-0.351787 0.524738 -0.195987)
(-0.337652 0.523108 -0.175331)
(-0.32352 0.520951 -0.18974)
(-0.481544 0.568886 -0.300065)
(-0.29526 0.496197 -0.164037)
(-0.651558 0.60731 -0.454721)
(-0.656395 0.597311 -0.444664)
(-0.505768 0.481292 -0.33491)
(-0.507033 0.48786 -0.344974)
(-0.673801 0.603197 -0.471196)
(-0.709217 0.623328 -0.486319)
(-0.489501 0.468488 -0.303302)
(-0.46954 0.461993 -0.286333)
(-0.598983 0.57747 -0.406326)
(-0.654889 0.584919 -0.44047)
(-0.512185 0.482467 -0.329628)
(-0.52487 0.505936 -0.366339)
(-0.527229 0.502751 -0.372328)
(-0.695371 0.616681 -0.469006)
(-0.669266 0.609355 -0.458226)
(-0.54812 0.513077 -0.335029)
(-0.512013 0.48317 -0.315712)
(-0.642479 0.585028 -0.418829)
(-0.532809 0.513522 -0.380803)
(-0.480407 0.485753 -0.332052)
(-0.63422 0.589268 -0.419379)
(-0.541251 0.520244 -0.357636)
(-0.667296 0.638892 -0.370056)
(-0.70948 0.676916 -0.407445)
(-0.638093 0.634903 -0.324045)
(-0.643192 0.658244 -0.340563)
(-0.669712 0.639382 -0.367825)
(-0.626273 0.609623 -0.31964)
(-0.522466 0.620348 -0.247415)
(-0.482042 0.596549 -0.221242)
(-0.583114 0.64858 -0.312465)
(-0.547196 0.611946 -0.252476)
(-0.519212 0.580516 -0.213853)
(-0.589601 0.626827 -0.31475)
(-0.482676 0.543182 -0.19736)
(-0.560865 0.563894 -0.251259)
(-0.475005 0.573857 -0.201564)
(-0.427647 0.550912 -0.164602)
(-0.512831 0.593323 -0.241774)
(-0.518509 0.554025 -0.210434)
(-0.444704 0.527772 -0.164383)
(-0.569683 0.663706 -0.389654)
(-0.556247 0.659718 -0.388123)
(-0.580192 0.655581 -0.391203)
(-0.627575 0.678405 -0.436091)
(-0.582803 0.665131 -0.406641)
(-0.486742 0.621599 -0.389897)
(-0.512585 0.638592 -0.378093)
(-0.468846 0.622987 -0.364176)
(-0.528689 0.654119 -0.376824)
(-0.335531 0.572548 -0.266417)
(-0.291703 0.542827 -0.236259)
(-0.369744 0.594631 -0.284875)
(-0.280066 0.541618 -0.251519)
(-0.504843 0.65949 -0.34767)
(-0.421478 0.630668 -0.297189)
(-0.490362 0.64223 -0.337272)
(-0.48206 0.635001 -0.327699)
(-0.477895 0.624626 -0.373165)
(-0.446981 0.627866 -0.329572)
(-0.334283 0.605984 -0.258608)
(-0.322709 0.573771 -0.246312)
(-0.305185 0.575322 -0.229668)
(-0.342506 0.584706 -0.288814)
(-0.417542 0.621017 -0.334654)
(-0.424366 0.617122 -0.281186)
(-0.742495 0.700402 -0.548977)
(-0.712302 0.69629 -0.539687)
(-0.675577 0.678722 -0.514117)
(-0.791177 0.703708 -0.558618)
(-0.739318 0.710489 -0.54209)
(-0.753961 0.721297 -0.544159)
(-0.791691 0.724197 -0.557619)
(-0.736587 0.687815 -0.531898)
(-0.748879 0.67401 -0.535803)
(-0.723086 0.706183 -0.550301)
(-0.782055 0.68077 -0.562066)
(-0.425989 0.599877 -0.219183)
(-0.411796 0.592956 -0.204454)
(-0.654211 0.636308 -0.386681)
(-0.582654 0.620182 -0.318434)
(-0.573739 0.631659 -0.337695)
(-0.526215 0.642388 -0.318215)
(-0.444011 0.618939 -0.220164)
(-0.430029 0.598531 -0.230027)
(-0.43978 0.611892 -0.233521)
(-0.449178 0.599048 -0.21487)
(-0.682821 0.658179 -0.387684)
(-0.607104 0.639746 -0.351812)
(-0.464777 0.595428 -0.243295)
(-0.49601 0.631246 -0.266293)
(-0.562121 0.632829 -0.354565)
(-0.550761 0.634668 -0.350167)
(-0.476054 0.590283 -0.245069)
(-0.524411 0.638129 -0.321883)
(-0.498708 0.621799 -0.290532)
(-0.620537 0.652896 -0.378558)
(-0.570809 0.632893 -0.312527)
(-0.618 0.661484 -0.360912)
(-0.300824 0.633315 -0.332118)
(-0.315925 0.625112 -0.328658)
(-0.189974 0.612178 -0.19911)
(-0.211207 0.635085 -0.190859)
(-0.475037 0.612041 -0.284796)
(-0.465542 0.63285 -0.326584)
(-0.455072 0.611485 -0.285017)
(-0.164114 0.468614 -0.242962)
(-0.162807 0.47986 -0.242629)
(-0.368088 0.653501 -0.0969001)
(-0.426821 0.673131 -0.122048)
(-0.2741 0.64797 -0.360853)
(-0.256921 0.670194 -0.344419)
(-0.249544 0.614815 -0.200177)
(-0.227025 0.6064 -0.19819)
(-0.242961 0.608532 -0.17905)
(-0.490877 0.580711 -0.324373)
(-0.466392 0.558945 -0.286687)
(-0.50001 0.588705 -0.274728)
(-0.236026 0.26083 -0.13649)
(-0.227474 0.260913 -0.141985)
(-0.190577 0.434186 -0.264869)
(-0.189816 0.413364 -0.262796)
(-0.238995 0.576643 -0.103602)
(-0.214784 0.564384 -0.0910818)
(-0.231626 0.535861 -0.0662874)
(-0.226679 0.57141 -0.09739)
(-0.207918 0.537228 -0.0627212)
(-0.547591 0.598843 -0.245889)
(-0.485904 0.590677 -0.179878)
(-0.531575 0.592468 -0.209108)
(-0.306361 0.344049 -0.0630809)
(-0.283265 0.34378 -0.0422179)
(-0.302818 0.367975 -0.0529505)
(-0.329162 0.38042 -0.0692931)
(-0.382987 0.595735 -0.40053)
(-0.316982 0.607251 -0.399045)
(-0.35639 0.596636 -0.398898)
(-0.355926 0.602265 -0.382211)
(-0.49085 0.539802 -0.352696)
(-0.48205 0.531269 -0.312513)
(-0.484051 0.556713 -0.358539)
(-0.403483 0.619802 -0.161551)