/*--------------------------------*- C++ -*----------------------------------*\
| =========                 |                                                 |
| \\      /  F ield         | OpenFOAM: The Open Source CFD Toolbox           |
|  \\    /   O peration     | Version:  v1612+                                |
|   \\  /    A nd           | Web:      www.OpenFOAM.com                      |
|    \\/     M anipulation  |                                                 |
\*---------------------------------------------------------------------------*/
FoamFile
{
    version     2.0;
    format      ascii;
    class       surfaceScalarField;
    location    "100";
    object      phi;
}
// * * * * * * * * * * * * * * * * * * * * * * * * * * * * * * * * * * * * * //

dimensions      [0 3 -1 0 0 0 0];

internalField   nonuniform List<scalar> 
37890
(
1.36935e-09
6.60101e-09
-1.34185e-09
-6.62852e-09
1.16645e-08
-9.04108e-10
-2.87996e-09
-7.88037e-09
5.96609e-09
-7.65204e-09
-8.85313e-09
1.05391e-08
-1.46302e-08
-1.18922e-08
8.02608e-09
1.84964e-08
-9.45949e-09
-3.53865e-10
-4.81675e-09
-1.68986e-08
-2.20188e-10
5.22701e-09
-1.32351e-08
-1.31229e-08
9.91387e-09
-5.96623e-09
7.73272e-09
-1.16802e-08
6.31631e-09
3.3774e-09
7.2969e-09
1.09397e-08
-1.19201e-08
-7.31462e-09
2.26375e-08
1.70822e-08
-1.0907e-08
-1.34898e-08
7.44556e-09
-2.24791e-08
1.79846e-09
-1.38148e-08
1.51288e-08
6.13164e-09
-5.92712e-09
1.60953e-08
-4.22561e-09
-5.94259e-09
8.73682e-09
-6.42938e-09
-8.23455e-09
4.12834e-09
6.84323e-09
5.12376e-09
6.43267e-09
6.43249e-09
-4.11279e-09
3.36874e-09
-5.68532e-09
7.26873e-09
1.11191e-08
-1.15446e-08
1.97037e-09
-6.67988e-09
1.11422e-08
-7.44737e-09
1.66865e-08
8.56295e-09
1.5122e-09
-1.39063e-08
3.83113e-09
-8.38334e-09
1.02664e-08
-6.09804e-09
-9.51451e-09
1.13869e-08
4.34507e-09
-1.45559e-08
-1.1146e-08
5.21082e-09
9.95019e-10
-6.54695e-09
-8.35432e-09
-4.01958e-09
9.84445e-09
-1.20463e-08
2.63571e-10
-1.56508e-09
3.65466e-09
1.65201e-09
4.82918e-10
-5.78949e-09
1.0979e-09
2.53417e-09
2.26484e-11
3.498e-09
-3.3427e-09
1.49677e-09
3.06503e-09
1.53095e-09
2.17473e-09
-2.74337e-09
1.05159e-09
-1.35724e-09
2.29931e-09
1.59222e-09
9.68757e-10
-1.51272e-10
8.76214e-10
-1.25272e-09
-2.72319e-09
3.09976e-09
1.89183e-09
-4.68204e-11
-1.56858e-10
2.08463e-09
3.72053e-10
5.43491e-10
2.36496e-09
3.875e-09
5.55332e-10
-3.88668e-09
2.65411e-09
-1.27429e-10
7.24024e-10
-3.25071e-09
-1.59717e-09
3.00915e-09
1.24215e-09
-2.72806e-09
1.25941e-09
-1.28451e-10
4.32031e-10
-3.28754e-09
9.39071e-10
-7.75744e-09
5.91367e-09
9.04729e-10
-7.3438e-09
5.71481e-09
2.56807e-09
6.27102e-10
-3.87242e-09
3.96933e-09
2.41675e-09
9.21068e-10
-2.90574e-09
3.66113e-09
1.50485e-11
-8.31841e-10
-5.88483e-09
-7.6682e-09
3.58622e-10
6.88882e-09
-1.53265e-09
-1.13034e-09
7.40265e-09
1.14467e-09
1.6966e-09
1.67925e-10
3.67548e-09
-7.20734e-09
2.84698e-09
-9.29871e-09
1.36591e-08
-1.9218e-10
-1.61791e-08
9.16393e-09
-8.54842e-09
4.05664e-09
5.71809e-09
-1.22633e-09
3.54507e-09
-2.70834e-09
-9.38522e-09
5.70701e-09
3.28082e-09
-9.07741e-09
8.9575e-11
-1.34734e-08
7.49133e-09
5.78989e-09
-1.47458e-08
-3.90138e-09
5.17385e-09
-8.07273e-11
-6.57229e-09
-8.09277e-09
7.98471e-09
-4.69209e-09
2.52418e-10
8.63036e-09
3.41096e-09
-7.1074e-09
-9.15246e-09
4.29456e-09
-7.09302e-09
9.01208e-11
1.2587e-08
-4.02198e-09
-3.01146e-09
7.3095e-09
-3.44367e-12
6.63056e-09
-5.0499e-09
-8.15293e-09
-2.82266e-10
1.38816e-08
-3.6226e-09
-1.73664e-08
3.3565e-09
3.00895e-09
-1.60168e-08
-9.13397e-09
-1.09271e-08
2.31859e-09
7.32785e-09
1.28067e-09
-1.08503e-09
1.29678e-08
-5.90424e-09
-5.97856e-09
-5.8697e-09
1.1702e-08
-6.91733e-09
5.42151e-09
-8.20978e-09
-3.08143e-09
-4.98156e-10
-4.88801e-09
-5.54095e-09
-7.8984e-09
-6.01096e-09
1.34112e-08
-1.85808e-09
1.08032e-08
2.75689e-09
3.76572e-09
-2.02293e-10
3.77564e-09
-5.33764e-09
-3.32599e-09
2.0198e-09
6.77186e-09
4.17612e-09
6.93756e-09
5.88543e-09
-3.3404e-10
4.27557e-09
-1.75808e-10
3.73256e-09
-2.90959e-10
3.67946e-09
7.53367e-09
2.10357e-09
3.94756e-09
2.2398e-09
8.27999e-09
-3.74795e-09
8.02283e-09
-7.96685e-09
-6.47628e-09
3.5287e-09
1.09145e-08
-1.3938e-09
-7.71499e-09
1.14197e-09
-4.85329e-09
-2.58537e-09
3.84561e-09
3.59302e-09
-5.41299e-09
-8.34042e-10
5.22867e-09
-3.45636e-09
-9.4873e-09
2.3598e-10
-1.48356e-09
3.89931e-09
-2.04085e-09
-7.27147e-09
1.57989e-09
-2.65944e-10
-8.14759e-09
2.65036e-09
-2.20965e-09
9.58394e-09
4.21373e-09
-6.51231e-10
-3.32659e-09
3.50071e-09
-1.84758e-09
-7.32813e-11
5.50481e-09
1.17049e-09
-1.06623e-08
2.88318e-09
6.60868e-09
-1.22274e-08
5.16816e-09
8.2297e-09
-1.57121e-08
-7.17763e-09
6.43977e-09
-1.50117e-08
1.1455e-08
-8.71911e-09
1.26824e-08
2.47648e-09
4.0444e-09
-8.94776e-09
-1.08087e-08
-5.81997e-09
-5.14727e-09
1.3149e-08
2.82592e-09
-1.52691e-08
-7.05798e-10
-1.2764e-08
1.50553e-08
1.08577e-08
-9.72997e-09
3.19621e-10
1.22362e-08
-6.01351e-09
3.0635e-09
8.1181e-09
-5.68681e-09
9.33349e-09
-7.55092e-09
3.90431e-09
-9.72139e-09
-1.78537e-09
-3.87747e-09
4.49178e-09
-1.79137e-08
1.27234e-09
-1.08507e-08
-4.89276e-09
-8.92327e-09
-4.3765e-09
-4.61384e-09
-1.58648e-08
-8.32764e-09
-9.4002e-09
-2.52721e-09
-1.37749e-08
-5.34669e-09
2.86606e-09
-3.54162e-09
-1.01752e-08
1.0535e-10
-6.18702e-09
-2.97083e-09
2.15745e-09
2.06075e-09
-1.24747e-09
-5.28001e-09
4.35202e-09
-2.04293e-09
3.22122e-09
1.68945e-09
1.55991e-09
-6.471e-09
-1.70213e-09
1.35717e-09
3.56616e-09
-6.72063e-10
-2.81385e-09
-1.79438e-09
-4.70628e-09
2.07592e-09
4.78778e-09
5.70354e-10
-9.24691e-10
3.87186e-09
-1.85647e-09
-3.75747e-09
1.74194e-09
4.69936e-09
-2.57297e-10
-2.71957e-10
7.04721e-09
5.63341e-09
-2.15041e-09
-3.75497e-09
-9.17207e-09
9.28631e-09
4.55687e-09
-4.67111e-09
1.23619e-08
-6.60665e-09
-1.49273e-08
6.57527e-09
1.1833e-09
4.60332e-09
8.33918e-09
7.5224e-09
-6.23853e-09
1.66407e-08
-1.5016e-08
-4.6863e-09
8.01275e-09
-9.565e-09
-1.38201e-08
2.70978e-09
6.48623e-09
1.17797e-08
-3.31854e-09
-6.55891e-09
6.26982e-09
8.62824e-09
4.62858e-09
5.92205e-10
2.8546e-09
6.26571e-09
1.21425e-08
-3.0181e-09
-3.63021e-09
5.27924e-09
-1.02948e-08
8.64579e-09
-6.42334e-09
2.82724e-09
-3.40981e-11
-6.08444e-09
-6.83716e-09
6.49827e-09
-3.74133e-09
-4.38175e-10
8.54169e-09
-4.36208e-09
1.52573e-09
4.57367e-09
-9.84071e-09
-3.78499e-09
6.38611e-09
2.26131e-10
-6.91278e-09
6.65634e-09
-2.0066e-09
2.2631e-09
4.21867e-09
-9.60566e-09
9.81526e-09
-6.03472e-09
-4.28169e-09
7.05968e-09
3.87841e-09
4.95434e-09
-9.61136e-09
-1.18391e-09
5.84105e-09
-6.36434e-09
8.26241e-09
3.05627e-09
6.23157e-09
-7.74235e-09
4.0244e-09
-5.09403e-09
-2.47547e-09
1.35535e-10
4.34971e-09
-2.88916e-11
7.17059e-09
-1.37129e-08
-9.23642e-09
1.57786e-08
-1.16331e-08
1.81273e-08
6.76289e-10
-3.40717e-09
4.71399e-09
-1.294e-08
3.86584e-09
-2.09859e-08
-5.6584e-09
1.83906e-08
-1.54641e-08
2.7319e-09
1.38582e-09
1.02677e-08
6.47372e-09
1.46495e-08
9.49772e-09
-2.27614e-08
-6.19553e-09
1.55386e-08
5.30637e-09
1.17205e-09
1.44115e-08
-1.08695e-08
1.49582e-08
-5.06913e-09
-8.71699e-09
-8.30705e-09
-7.85416e-10
2.89694e-09
-8.32928e-09
-4.22871e-09
4.25093e-09
5.45193e-09
-9.91539e-09
-5.68682e-10
8.06348e-09
2.77298e-09
-4.48858e-09
1.02869e-08
8.6132e-09
6.34235e-09
4.1272e-09
1.01004e-08
-9.71759e-09
2.41929e-09
7.29897e-09
-5.95494e-09
6.77043e-09
5.52687e-09
3.36005e-09
8.12737e-10
-2.74804e-09
-5.01029e-09
6.94565e-09
-2.46754e-09
-3.16619e-09
6.44641e-09
2.00118e-09
4.67969e-09
-9.4289e-09
5.16701e-09
7.90572e-09
-6.08576e-09
-7.96121e-09
6.14126e-09
7.06884e-09
-4.17346e-09
9.13684e-10
-8.70176e-09
-5.8341e-09
5.34421e-09
-2.67645e-09
9.0876e-09
-1.8525e-09
-6.76568e-09
-4.69727e-10
4.74173e-09
-1.48826e-09
-9.23452e-09
8.29563e-09
-2.05334e-09
1.19404e-08
-1.3383e-08
3.49573e-09
1.50281e-08
-1.87293e-08
1.64761e-09
9.2604e-09
-5.08251e-09
1.085e-08
-4.81845e-09
-9.77575e-10
1.50563e-08
-2.05169e-09
9.17351e-09
4.37992e-09
-4.59631e-09
-1.04354e-08
1.06515e-08
-7.20214e-09
1.06043e-08
-1.09864e-08
6.18169e-11
-2.45856e-09
3.32277e-09
-5.63523e-09
-8.6742e-09
-6.86108e-09
-8.54544e-09
-1.37195e-08
7.07132e-09
-3.68624e-09
-1.63886e-08
9.63919e-09
-1.43992e-08
3.51074e-09
2.82087e-10
5.07264e-09
5.44041e-09
-1.07956e-08
5.7334e-09
-1.10867e-08
1.49507e-08
-1.67394e-08
6.97424e-09
2.89395e-09
-1.10697e-08
-2.58815e-09
-9.69719e-09
2.27214e-09
-1.35263e-08
-1.25596e-08
-2.29979e-09
-5.78619e-09
-7.63618e-09
-1.51628e-09
1.22085e-08
-3.32807e-09
-7.36431e-09
1.76805e-08
-6.75104e-09
-1.24458e-08
-9.26093e-09
-4.67901e-09
-5.67428e-09
1.9614e-08
-1.29983e-08
-5.38521e-09
9.12253e-09
-6.20678e-09
5.41681e-09
1.1402e-08
7.1529e-11
-1.05574e-08
-1.10269e-08
1.69051e-08
-3.21294e-09
-9.17839e-09
1.83383e-09
-1.5727e-08
1.14668e-08
-6.76679e-09
-1.26478e-08
-7.86564e-09
4.78639e-09
-1.15219e-08
2.92363e-09
-9.427e-09
1.51546e-08
-1.13116e-08
-1.05146e-08
-9.2823e-09
-5.56776e-09
-1.02346e-08
-4.02767e-09
1.33221e-08
9.40033e-10
-4.71607e-09
-1.22697e-08
-9.60548e-09
-2.52705e-09
8.10478e-09
-1.53885e-08
1.0668e-09
7.31656e-09
-3.42161e-09
1.31471e-08
4.76589e-09
7.08553e-09
-8.32237e-09
-1.37794e-08
1.37973e-08
6.80897e-09
-9.50285e-09
-1.11036e-08
1.57342e-08
-4.78318e-09
2.84604e-09
-5.32979e-09
1.92242e-08
4.15075e-09
9.66623e-09
1.91707e-09
-1.19339e-08
3.81496e-09
1.3705e-09
-1.92579e-08
1.04404e-08
-1.85729e-08
8.74674e-09
-3.08961e-09
-4.77495e-10
-1.62121e-08
2.47271e-09
1.85232e-09
1.1887e-08
-1.1888e-09
-4.19097e-09
-1.08324e-08
-3.71707e-09
-1.25051e-08
1.50334e-08
-6.98182e-09
1.61467e-09
-9.71423e-09
1.50814e-08
-1.04128e-08
8.80094e-09
-5.36993e-09
-2.70421e-09
1.31599e-08
-1.41728e-08
-2.8657e-09
1.21552e-08
-1.34804e-08
1.1428e-08
-1.69979e-08
-7.78449e-09
1.55706e-08
-6.17138e-09
3.00942e-09
-2.62235e-10
-8.72518e-09
2.0204e-09
8.55641e-09
1.28189e-08
-9.22024e-09
1.05885e-08
-2.44832e-09
4.16234e-10
1.15823e-08
3.70935e-09
1.43863e-08
2.5452e-10
-5.21994e-09
-5.92989e-09
-4.5064e-09
1.56562e-08
-4.09836e-09
-8.88714e-09
7.76549e-09
-7.82392e-09
-9.9241e-09
1.18181e-08
-1.51516e-08
3.22932e-09
-1.38983e-08
1.58875e-08
-6.49574e-09
-1.2342e-08
-2.86519e-09
5.28312e-09
2.79248e-09
-7.94005e-09
-7.19451e-09
-1.1495e-08
6.6199e-09
-4.01213e-09
-6.3398e-09
-6.01937e-09
-8.07325e-09
-7.16595e-09
1.34087e-09
1.91229e-09
-1.28508e-08
-1.18338e-08
-1.26035e-08
1.72714e-08
6.79223e-09
-2.13522e-08
2.72614e-09
-1.10426e-08
-5.65112e-10
8.62122e-09
-6.79066e-09
-1.2655e-09
1.4416e-09
-4.79387e-09
4.55738e-09
-1.20515e-09
-4.98369e-09
5.8602e-09
1.97341e-09
-4.96657e-09
-1.99057e-09
-2.50191e-09
-3.18534e-10
6.98294e-09
1.38585e-09
1.86375e-09
-1.02326e-08
-2.9614e-09
4.9777e-09
3.928e-09
1.52816e-09
-4.07028e-09
2.07237e-09
-6.46352e-10
-6.36139e-09
-1.10435e-09
5.13541e-09
2.33023e-09
4.45641e-10
-8.66349e-09
-6.99217e-09
2.03589e-09
5.40179e-09
2.38359e-09
1.77871e-09
-2.63421e-09
4.81039e-09
-3.54371e-10
1.86956e-09
-6.90437e-09
6.89846e-09
2.61482e-09
1.6104e-09
-4.01977e-09
-2.05373e-10
1.09362e-09
-6.21627e-09
-7.28043e-10
-6.84187e-09
-5.70813e-09
4.18935e-09
4.14528e-10
-4.65748e-09
4.63098e-09
8.74465e-09
-7.3468e-09
-6.0288e-09
1.32839e-08
-4.02435e-09
-4.62859e-09
-6.69268e-09
1.35975e-08
6.37912e-09
2.22296e-09
-1.70976e-10
-2.11428e-10
2.50899e-09
-9.64435e-09
1.1538e-08
3.0829e-09
-1.48323e-08
1.20882e-08
-4.57449e-09
-2.77052e-09
-4.85754e-10
-1.10381e-08
1.42944e-08
-2.72434e-09
-8.75321e-09
8.70702e-09
-9.42754e-09
1.37135e-08
7.80217e-09
2.83743e-09
-9.18206e-09
3.59252e-09
7.0904e-09
2.91461e-09
5.83007e-09
-6.04542e-09
7.95585e-09
9.71682e-11
1.09772e-08
3.25786e-09
-1.57268e-10
-1.40778e-08
1.4076e-08
-1.17243e-08
9.29837e-09
8.00773e-09
8.07783e-09
-2.37445e-09
-5.64769e-09
-5.57226e-11
1.11543e-08
7.90072e-09
3.14332e-10
-8.43504e-09
5.54422e-11
8.06533e-09
2.0611e-10
1.12626e-08
-5.85746e-09
4.51283e-09
-2.7608e-10
1.27316e-08
4.60235e-09
-4.07957e-11
1.29786e-08
9.31302e-09
-1.2611e-09
-7.13555e-11
-7.46305e-09
-5.08829e-09
-1.00124e-08
-6.83796e-09
-1.16384e-09
-2.95265e-09
-1.77248e-09
-9.03107e-10
-4.25656e-09
-3.59215e-09
-2.63659e-10
-2.08217e-09
-4.10165e-09
-1.35518e-09
7.53905e-09
-1.29007e-09
-6.30619e-09
5.51409e-09
-7.28921e-09
-7.08378e-09
1.02713e-08
-1.38631e-08
-9.38521e-10
7.51247e-09
4.34732e-09
-1.15762e-08
-6.6342e-09
-3.09628e-09
3.59829e-10
-3.03539e-09
-6.95142e-09
8.63165e-09
-1.03039e-08
5.97845e-09
-9.63367e-09
7.48111e-09
-8.1513e-09
4.72545e-09
-8.6019e-09
-5.75719e-09
-1.23102e-08
5.06547e-09
4.86826e-09
-2.85586e-09
-1.35886e-08
-2.59178e-09
3.65818e-10
-1.09791e-09
-1.22052e-08
4.70121e-09
-5.68451e-09
-1.75742e-09
5.63684e-09
-9.59061e-09
-5.12168e-11
5.02572e-09
-6.75706e-09
-1.35658e-08
1.52973e-08
-1.64347e-08
-4.90705e-09
2.63676e-08
-2.67932e-09
-1.21348e-08
-1.62059e-09
1.51137e-08
-1.23924e-08
-5.40053e-09
1.66524e-08
-6.4456e-09
-2.23422e-09
-5.8482e-09
-4.30997e-09
-4.16196e-09
-1.13451e-08
1.32729e-08
-1.08663e-08
7.33235e-09
-3.2229e-09
9.87698e-09
-1.48432e-08
8.04342e-10
8.41818e-09
-1.21959e-08
-8.35706e-09
-2.53682e-09
-2.61082e-09
-3.52616e-09
-1.2718e-08
-5.5415e-09
6.62722e-09
1.16323e-08
-4.26761e-09
-7.2535e-09
-1.19693e-09
-1.22001e-08
9.71183e-10
5.68739e-09
-1.09537e-08
-5.23074e-09
-7.65393e-09
3.69341e-09
9.19128e-09
-8.08401e-09
3.82444e-09
3.51429e-09
1.61414e-08
-1.30284e-08
6.32788e-09
-6.87283e-09
-1.46221e-09
1.36168e-10
-8.19125e-09
1.5399e-08
1.03195e-08
-1.08246e-08
6.48366e-09
1.00039e-08
-1.46264e-09
1.77825e-09
-5.8921e-09
7.70471e-09
7.30103e-09
-1.3202e-10
-5.32799e-11
-4.05058e-09
-4.67986e-09
8.765e-10
7.85378e-09
3.39964e-10
-8.59226e-09
4.20157e-09
-1.96274e-10
2.94718e-09
-7.43108e-09
-3.78338e-09
-3.62662e-09
8.28631e-09
-6.78697e-09
3.3436e-09
-2.32321e-10
-6.51058e-10
-7.70899e-09
4.45119e-09
5.12917e-09
-4.16957e-09
-5.41092e-09
3.54961e-10
7.72432e-09
-3.62815e-09
4.73728e-09
4.45623e-09
1.83014e-09
-1.10238e-08
1.04804e-08
-1.25301e-08
-6.97265e-09
3.14952e-09
2.61267e-09
7.20112e-09
-2.29098e-09
-5.5924e-09
6.8225e-10
-5.01954e-09
4.63533e-09
7.58531e-09
8.08201e-09
-9.71953e-09
-6.53466e-10
-4.42945e-09
5.40639e-09
7.10507e-09
1.79123e-09
5.1216e-09
-1.06174e-09
-5.8511e-09
-5.57757e-10
-7.37055e-09
1.30985e-08
-2.51403e-09
4.27269e-09
4.39634e-09
3.62273e-09
-4.09355e-09
-1.27436e-09
-1.2246e-10
-1.73381e-09
1.17755e-08
-9.08644e-09
5.33589e-09
8.02325e-09
-7.24726e-10
-1.08758e-08
6.42848e-09
1.13157e-09
-2.22416e-09
-5.09871e-09
9.79338e-09
-3.75277e-09
-2.14362e-10
4.76167e-09
-6.54814e-09
-2.65467e-10
3.07316e-10
-7.71112e-10
-3.62518e-09
4.08907e-09
7.6506e-10
3.13958e-09
-3.11641e-09
-7.88326e-10
3.30668e-09
-2.56799e-09
2.62816e-11
-4.27352e-09
-1.14392e-09
5.66366e-09
-2.46021e-10
-1.03139e-09
-2.93476e-09
3.62666e-09
-6.45459e-10
-3.75237e-09
-8.72179e-10
3.54413e-09
9.54669e-10
3.37567e-10
5.71523e-10
2.23041e-09
2.77207e-09
-3.47323e-10
-2.86628e-09
5.38768e-10
-4.00245e-09
3.55964e-09
-4.05228e-09
2.98733e-09
-2.25768e-09
-4.59052e-09
3.42159e-09
3.42653e-09
-5.7471e-09
3.74124e-09
-2.51868e-10
-4.96291e-09
8.72255e-10
5.81213e-09
-1.72151e-09
-1.00177e-08
1.9886e-09
2.86193e-09
5.16719e-09
-1.91315e-09
-6.73509e-11
-8.03729e-09
-7.59773e-09
4.9958e-09
-1.33504e-09
-8.17587e-09
-1.06008e-09
-4.76233e-09
7.52642e-11
-4.87457e-09
-1.14846e-09
-1.38223e-09
-6.27401e-09
7.58886e-09
4.1173e-10
-6.50914e-09
-5.84508e-09
-1.10418e-08
4.9904e-09
-9.5218e-10
7.00367e-09
-7.21014e-10
-8.63517e-10
-9.45731e-09
6.35895e-09
1.51585e-09
-1.28832e-09
-6.58645e-09
-1.60153e-09
6.08184e-09
1.87864e-09
-9.47321e-09
3.92102e-09
1.05426e-08
-8.67836e-09
-7.75907e-09
2.63481e-09
4.17209e-09
-1.39807e-09
-7.22452e-09
-1.94716e-09
6.40734e-09
1.86082e-09
-6.32099e-09
2.52295e-09
-4.134e-09
-3.36129e-10
3.44919e-09
-4.33192e-09
-4.05598e-10
1.74342e-09
1.04228e-10
1.51979e-10
9.85089e-09
2.87577e-09
6.16639e-09
-4.10112e-09
7.12887e-09
1.65255e-10
5.18506e-09
6.41629e-10
-3.92463e-09
-1.90203e-09
-3.11847e-09
1.99889e-09
6.30466e-09
-2.10582e-09
-3.71004e-10
-3.15885e-09
2.56957e-09
-2.84476e-09
3.43401e-09
-6.29196e-09
2.70657e-09
4.26471e-10
5.42267e-09
5.39435e-09
-1.19063e-08
1.0892e-09
3.06156e-10
1.1918e-09
-1.0974e-08
3.62176e-09
7.65826e-09
5.4388e-09
-1.10185e-08
1.57889e-09
-3.22673e-09
-4.57998e-10
7.60403e-09
-3.0356e-09
9.89413e-10
-5.02839e-09
-2.25301e-09
-2.76441e-10
-1.24323e-09
-5.13183e-09
1.18137e-08
-3.10624e-09
-3.16539e-09
9.47992e-10
6.24907e-09
7.06816e-09
5.50774e-09
7.45841e-09
8.99668e-09
1.20542e-08
3.51026e-09
8.31908e-09
4.62122e-09
1.4906e-08
1.50616e-08
-2.25658e-09
1.25086e-09
-9.49694e-10
1.95569e-09
-3.30585e-09
1.20928e-09
-1.59822e-10
1.92713e-09
2.63788e-09
-2.27065e-09
-2.2941e-09
-1.41166e-09
3.29935e-11
-2.6028e-09
-1.02394e-10
3.9561e-09
-2.88609e-09
1.49264e-09
5.0283e-10
1.18573e-09
1.97322e-09
1.17569e-09
-2.64592e-09
-3.49874e-09
5.3696e-09
-5.73028e-09
3.13815e-09
-1.17923e-10
2.7102e-09
-3.8951e-11
-4.84347e-09
-8.47834e-10
2.35305e-09
-2.10094e-09
5.64093e-10
-3.61192e-09
7.77254e-10
-3.88685e-09
6.24274e-09
-5.85461e-09
-7.73597e-09
3.73127e-09
-1.27519e-09
-6.49971e-09
-5.51562e-09
4.80459e-09
-2.05066e-08
-1.23767e-08
1.8238e-08
1.46453e-08
-3.02086e-09
-1.15499e-08
-5.93588e-09
1.68089e-08
-8.04736e-09
-1.17824e-08
-2.07816e-09
6.51032e-09
1.1403e-08
-6.79778e-09
-1.26525e-08
6.29729e-09
3.02745e-09
2.20846e-09
2.82026e-09
-1.15599e-08
6.53145e-09
4.29885e-09
-1.02679e-08
8.1775e-09
3.14348e-09
-1.10008e-08
1.06776e-08
1.2575e-08
-5.13275e-09
2.3794e-09
-1.33812e-08
-5.58089e-10
-1.22617e-08
3.64033e-09
5.8144e-09
-1.29227e-09
-1.28608e-08
8.33852e-09
1.18518e-08
5.0045e-09
-1.10418e-08
9.28568e-09
2.08771e-09
4.78354e-10
-7.24201e-09
1.27757e-09
6.10392e-09
-1.4194e-08
-1.10732e-08
1.0091e-08
4.73734e-10
-6.54242e-09
-6.6513e-09
-6.25617e-09
-7.78938e-09
4.87294e-11
-9.07044e-09
-9.54944e-09
1.85711e-08
-8.77694e-09
-9.00685e-09
-5.26156e-09
-4.98149e-09
-8.90096e-09
-1.70492e-08
-9.68396e-09
-1.73384e-08
3.07783e-09
5.19009e-09
-8.95553e-09
-8.91844e-09
-8.04631e-09
1.75572e-08
-7.5288e-09
-1.98199e-09
1.31668e-08
-5.25984e-09
-1.59532e-08
1.04931e-08
2.06599e-09
6.07841e-10
1.03388e-08
1.77115e-08
-1.72068e-08
5.98072e-09
-5.44481e-10
2.18229e-08
1.17167e-08
4.38643e-09
-1.4037e-08
-1.45641e-08
1.18536e-09
-1.23717e-08
-6.9996e-09
6.64963e-09
7.86972e-09
-7.51989e-09
5.6179e-09
3.69578e-09
-1.63136e-08
-8.90744e-09
1.5061e-08
4.9591e-10
9.00329e-09
-1.22929e-08
1.38136e-08
-1.3356e-08
-4.57961e-09
1.88451e-08
-4.52026e-10
1.317e-08
-2.68867e-09
2.45448e-09
1.80382e-08
-1.2564e-08
8.5597e-10
1.41623e-08
5.82783e-10
2.31388e-11
-1.63202e-08
-1.90505e-09
1.90811e-08
-1.63583e-08
6.20838e-10
1.64587e-08
2.64547e-10
-9.05019e-09
-7.67332e-09
1.69688e-08
-2.96872e-09
-8.22405e-09
1.85594e-08
-1.40286e-08
-1.99395e-08
4.59842e-09
1.71933e-08
8.41746e-10
-1.46131e-08
-6.16811e-09
1.54818e-08
-2.16725e-09
-1.24728e-08
2.73624e-09
1.73439e-08
1.29914e-08
-1.79514e-08
-8.52051e-09
5.57893e-09
-1.80782e-09
1.80756e-09
-1.09062e-08
1.28079e-08
-1.52153e-08
-1.02302e-08
1.91603e-08
-1.46166e-08
-5.09388e-09
-2.33396e-10
-1.40967e-09
8.41219e-09
-1.20964e-08
-7.85186e-09
-1.59536e-09
1.07678e-08
-1.32061e-09
1.24967e-08
-6.88999e-09
-1.34587e-08
-1.30851e-08
1.33929e-08
-1.90322e-09
-7.0912e-09
9.70362e-09
-1.56976e-08
-1.21205e-08
1.19346e-08
5.44173e-09
4.17422e-09
-1.81554e-08
1.77549e-08
-4.43204e-09
-7.88116e-09
-4.72771e-09
1.39342e-08
8.54835e-09
-9.50074e-09
1.06111e-08
1.22824e-08
2.78207e-09
-2.57927e-09
7.99992e-09
1.03941e-08
-1.42198e-08
1.49494e-08
-1.13815e-08
3.55244e-09
6.6692e-09
-1.39291e-08
1.00333e-08
7.44808e-09
-7.52931e-10
1.06996e-08
-8.66967e-09
1.61036e-09
8.49458e-09
1.28828e-08
6.39544e-10
1.0623e-09
6.79295e-09
4.09953e-11
-7.58955e-09
8.18816e-09
-8.60331e-10
-8.72956e-09
9.63102e-09
9.28945e-09
-9.08751e-09
9.70055e-09
-1.19896e-08
1.731e-09
-6.11818e-09
5.06017e-09
-5.06322e-09
3.50014e-09
-7.16646e-09
-1.48093e-09
-3.57629e-09
1.80624e-08
1.16997e-09
1.10111e-08
-2.76932e-09
1.79897e-08
1.62411e-08
-1.89383e-08
-1.52928e-08
1.03981e-09
-1.86146e-09
-6.88541e-10
-1.72937e-09
1.23e-11
9.26934e-09
1.17045e-09
-1.23432e-08
4.99468e-10
-9.68422e-09
9.31678e-09
-1.32102e-10
-1.47132e-08
1.48391e-08
3.7351e-10
-7.60757e-09
6.29263e-09
-1.33982e-08
-1.40625e-08
1.86012e-08
-1.11381e-08
-1.7693e-09
1.29353e-09
8.03549e-09
1.39926e-08
-3.05206e-10
-3.70255e-09
-9.98493e-09
-8.5264e-10
6.28333e-09
8.56192e-09
-7.28423e-09
-8.43279e-09
1.17662e-08
3.95076e-09
4.31613e-09
-4.73136e-09
-6.86903e-09
-1.37152e-08
4.93399e-09
7.92855e-09
-9.70428e-09
-1.0057e-08
1.04278e-08
-8.80375e-09
-1.78269e-08
3.03848e-09
1.08636e-08
7.55609e-09
-6.65352e-09
5.92933e-09
9.86819e-09
1.2589e-08
-1.15281e-08
-4.76349e-09
6.79328e-09
1.2079e-08
8.19865e-09
1.04878e-09
1.18027e-09
1.11187e-08
4.63593e-09
-2.27889e-09
1.93269e-08
1.29881e-08
-8.47373e-09
9.19822e-09
-6.94836e-09
-7.64074e-09
5.39077e-09
-2.98353e-10
8.12349e-10
8.68407e-09
3.77714e-09
-6.14915e-09
-1.11233e-08
1.34952e-08
-2.16215e-09
-3.34736e-09
9.28661e-09
2.57896e-09
-1.84245e-08
9.69638e-09
-6.5316e-09
1.00049e-08
-9.72335e-10
-9.33104e-09
-9.34028e-09
1.78787e-08
1.46632e-09
4.63183e-09
-5.1022e-09
-8.86999e-09
4.0165e-09
3.02842e-09
-5.45873e-11
-6.99028e-09
-4.70072e-09
4.09217e-09
4.62506e-09
-2.49281e-09
-6.6647e-09
7.43148e-09
1.72591e-09
-9.46212e-09
6.11108e-09
8.57918e-10
-7.11382e-09
9.66954e-09
-4.11383e-09
1.55796e-09
1.96311e-09
-1.01421e-09
-5.64964e-09
3.78188e-09
-6.90783e-09
-6.3362e-09
1.4561e-10
-5.2685e-11
-5.09809e-09
2.27139e-09
5.99197e-09
1.02346e-08
-4.23555e-09
-8.01501e-09
2.01599e-09
-1.47953e-09
1.04429e-09
1.06697e-08
6.27814e-09
-7.70253e-09
-2.81124e-09
-2.24483e-10
5.02315e-09
-6.65781e-09
-7.05285e-11
-9.74179e-10
-7.82402e-10
3.74709e-09
-9.6225e-09
-3.83993e-09
4.43068e-09
-6.61257e-10
1.68762e-09
-6.30995e-09
5.21755e-10
4.71828e-09
-8.09251e-10
-2.83191e-09
3.40893e-09
-5.52666e-11
2.49189e-09
-6.75981e-09
2.10987e-09
-3.25418e-09
9.27464e-10
3.56629e-09
-3.30251e-09
9.78963e-10
3.25105e-09
1.24973e-10
-1.85488e-11
-3.12614e-09
-4.92972e-09
4.91103e-09
3.14482e-09
-2.92266e-09
-7.85199e-11
2.28736e-09
-3.10017e-09
3.46525e-10
-2.98893e-09
-7.15432e-09
-1.91018e-11
8.21765e-09
-4.31592e-09
5.87091e-09
-1.05283e-08
-2.72404e-09
1.33569e-09
1.19167e-08
1.14084e-08
-1.32335e-08
-8.7033e-09
-9.7214e-09
5.61089e-09
1.55188e-08
6.55891e-09
-4.76204e-09
7.01068e-09
-8.80761e-09
-2.9474e-09
-9.93577e-11
7.70008e-09
-4.51941e-09
-1.64142e-08
2.21436e-09
-4.2357e-09
1.03467e-08
-1.96281e-08
1.13741e-08
-3.97487e-09
6.68442e-09
-5.70846e-09
-3.51424e-09
-2.40574e-09
1.29798e-08
-8.77496e-09
8.27629e-09
-3.01554e-09
1.18955e-08
-2.99674e-09
7.47028e-09
9.42628e-09
-7.76155e-10
-5.88702e-09
8.8503e-09
-5.36901e-09
1.53267e-09
3.48469e-09
-2.01798e-09
-2.04653e-09
5.79858e-10
-9.96891e-11
-8.70454e-10
4.45487e-09
-5.85355e-09
-1.3596e-09
7.11356e-09
-9.52332e-10
-1.89924e-09
1.56613e-09
9.25965e-09
-2.91945e-11
7.11291e-09
2.43751e-09
-4.59405e-09
1.10055e-10
-1.30608e-09
2.87314e-09
8.07673e-09
-5.88277e-09
4.54748e-09
3.47856e-10
-1.77698e-09
-7.05419e-10
-4.38369e-09
6.27355e-09
-2.57266e-09
6.82833e-10
5.03836e-09
-2.11799e-09
-7.30409e-09
-1.51047e-09
4.88675e-09
2.89736e-09
3.72422e-09
-1.96325e-10
3.43631e-09
3.12816e-09
-8.68246e-09
-3.58611e-09
4.44981e-09
-4.50013e-10
-4.97812e-10
4.67209e-09
4.5324e-09
-3.17602e-09
1.77173e-09
-4.0547e-11
3.52215e-09
1.4059e-09
5.73092e-09
-1.64853e-09
-1.58938e-09
6.63682e-09
6.83507e-10
4.086e-09
-5.71594e-09
-5.29628e-09
-1.15283e-08
7.98543e-09
8.83912e-09
-6.3742e-09
1.23599e-09
-1.58127e-10
-8.7676e-09
-4.7155e-09
1.9548e-09
-7.17972e-09
-7.96208e-09
-1.75264e-08
-9.17119e-10
9.50412e-09
8.93938e-09
5.14606e-10
-9.32522e-09
-8.71578e-09
-4.63199e-09
2.4325e-09
-3.90567e-09
6.10513e-09
-5.85169e-09
1.39469e-09
-1.75024e-10
-4.70644e-09
9.07492e-11
-6.83128e-09
-4.27446e-09
6.39025e-09
5.84721e-09
-6.01851e-09
1.56596e-09
-2.69195e-09
1.09717e-08
1.24625e-08
-5.97891e-09
-5.96895e-09
5.52682e-09
-7.11411e-09
1.39262e-08
8.39433e-10
3.24028e-09
8.1914e-09
-1.44661e-08
-6.26546e-09
-4.41989e-09
3.78986e-09
-7.62936e-09
8.00505e-10
3.039e-09
-5.87539e-09
1.99789e-09
7.66736e-09
3.148e-09
-5.49812e-09
-3.04907e-09
3.21655e-10
2.68043e-09
-5.33417e-09
3.45425e-09
-4.32798e-09
9.00631e-09
-4.07152e-09
-6.24255e-09
5.98608e-09
-6.99686e-09
-1.23743e-10
6.11945e-09
2.14391e-09
-6.73068e-09
-6.38636e-09
7.17164e-09
3.92895e-09
7.22972e-09
-5.92404e-09
-5.23464e-09
-3.55929e-09
4.91361e-10
-6.02508e-10
1.5897e-09
1.00676e-09
-7.99561e-09
-3.65842e-09
-4.78853e-09
4.88765e-09
-1.35932e-08
4.01078e-09
1.29696e-10
-4.46903e-09
1.28619e-08
-8.5225e-09
-3.69344e-09
-8.09313e-09
1.19163e-08
2.35665e-09
4.41728e-09
5.31357e-09
-1.20873e-08
1.01414e-08
9.39483e-09
-1.71796e-08
4.8397e-09
-1.72218e-08
8.68871e-09
1.23944e-08
-1.20238e-08
-1.19158e-08
1.39641e-08
1.27516e-08
-5.65833e-09
-3.65002e-09
-3.44322e-09
9.33723e-09
-6.55553e-09
-1.24422e-08
9.66055e-09
9.07444e-09
-1.36697e-08
8.77138e-09
-1.73034e-08
9.15595e-09
-8.48136e-09
6.65215e-09
-1.46224e-09
3.29151e-09
4.38258e-10
-3.01683e-09
8.91667e-09
6.13043e-09
-2.16026e-08
-6.70644e-09
7.14175e-09
-1.11255e-08
-5.73961e-09
-1.86648e-08
-6.36034e-09
9.88594e-09
-1.02535e-08
6.72789e-09
-7.64905e-09
1.58787e-09
-2.99156e-10
-7.08861e-10
-1.56564e-09
1.21605e-08
-5.26969e-09
2.71664e-10
-5.25538e-09
-4.54579e-09
-8.37295e-09
-7.02434e-09
-1.5443e-09
7.8598e-09
-5.36608e-09
-7.03815e-11
-7.79429e-10
-1.67007e-08
2.56442e-09
1.49158e-08
-1.17179e-08
9.01285e-10
1.00372e-08
9.35773e-09
-1.05667e-08
-1.54917e-08
1.94173e-10
-2.5543e-09
-9.0571e-09
8.41409e-09
-1.57941e-09
-7.2835e-09
-1.34586e-08
1.44574e-08
-6.65396e-09
-6.53296e-09
1.39196e-09
-1.28411e-08
6.90341e-09
-1.58287e-08
-9.39011e-09
-1.27544e-09
1.24261e-08
-1.76048e-09
-5.60411e-09
6.36688e-09
-1.01528e-08
6.16974e-10
7.49049e-11
-8.33525e-09
7.64336e-09
-1.62719e-10
-4.89788e-09
5.67751e-09
1.76822e-10
-8.98248e-09
8.88066e-09
-7.10382e-09
7.11798e-09
-7.93899e-09
7.88447e-09
-1.22091e-09
-6.23195e-09
5.28213e-09
-6.98915e-09
-1.32467e-09
-1.05114e-08
1.17698e-08
-1.66724e-09
-3.73558e-09
1.52135e-08
-9.41522e-09
1.56245e-08
-1.45446e-08
-1.79176e-09
-1.71764e-09
-5.90583e-09
1.72383e-09
-6.37964e-09
-2.42074e-10
-7.8033e-09
2.4233e-09
-5.25124e-09
5.33239e-09
7.6038e-10
-7.29492e-10
6.46381e-09
-4.49444e-09
-1.42245e-08
1.22552e-08
-8.83003e-10
5.67973e-09
-6.44704e-09
6.84741e-09
-6.78e-09
5.18487e-09
-1.1004e-08
4.36617e-09
-7.44659e-09
8.26532e-09
-1.32049e-09
2.43661e-09
7.10817e-09
-2.7707e-09
-6.77403e-09
-1.22305e-09
-6.90132e-09
1.05611e-08
-3.05061e-09
9.37695e-09
-7.54928e-09
7.86819e-10
-1.24901e-08
8.65266e-09
-1.01909e-08
1.27232e-08
-8.08067e-10
-1.72412e-09
1.15974e-08
-1.24114e-08
3.95993e-09
3.25284e-09
-1.04615e-10
9.13876e-09
-1.11227e-08
7.10425e-09
9.37134e-09
-1.12068e-08
-5.26875e-09
5.58246e-09
-4.60035e-09
8.15662e-09
9.42098e-09
1.21391e-10
-6.32174e-09
4.83384e-09
1.42111e-08
-5.64762e-10
5.84042e-09
6.46928e-09
6.70003e-09
-3.74835e-09
-5.16893e-09
5.98529e-09
9.98171e-09
-1.07981e-08
4.44863e-09
-1.01823e-08
-1.57163e-09
1.35097e-08
1.08829e-08
6.88527e-09
-2.58136e-09
-1.18863e-09
-3.11538e-09
4.97965e-09
4.13704e-09
-2.2315e-09
3.0199e-09
-2.29645e-09
-3.30508e-09
5.72853e-10
-5.75133e-09
8.19815e-09
-2.35053e-09
3.57635e-09
9.57817e-09
-1.08041e-08
6.72089e-10
-6.24684e-09
3.27822e-09
-4.80626e-09
3.68488e-09
4.90932e-09
-3.78815e-09
-1.4642e-09
-2.76924e-09
8.84051e-09
-4.49638e-09
-5.72574e-09
1.38147e-09
5.32505e-09
1.1648e-09
-4.381e-10
8.99398e-09
3.11246e-09
-3.90463e-09
-8.10414e-09
6.72014e-09
5.81655e-09
-2.56994e-09
-1.03547e-08
1.01344e-08
-2.37126e-10
4.57417e-10
1.65935e-08
-1.0849e-08
-1.60992e-08
1.17276e-08
2.01734e-09
2.84858e-09
8.61838e-09
1.32437e-08
-4.88145e-09
2.42774e-09
1.10722e-08
-9.83489e-09
2.20938e-09
2.7441e-09
-1.03488e-08
2.76789e-10
-2.42135e-09
6.27408e-09
-1.47017e-08
4.08485e-09
7.53867e-09
-1.40448e-08
6.34362e-09
-1.28408e-08
8.70662e-09
-1.1014e-08
1.97854e-08
9.50932e-09
-1.4988e-08
9.56351e-09
-3.69055e-09
8.8045e-10
1.27036e-08
-2.93977e-09
-3.48973e-09
3.70693e-09
-7.11144e-09
7.99764e-09
-1.3727e-08
-1.29266e-09
-9.91761e-09
6.2277e-09
1.85142e-09
1.83849e-09
3.38409e-09
-8.98993e-09
-4.31176e-09
-6.1841e-09
5.86801e-09
6.54378e-09
-2.63751e-09
-1.62493e-10
2.49524e-09
-7.76332e-09
7.11951e-09
-5.25564e-09
-1.02667e-08
5.1255e-09
1.03969e-08
3.09702e-09
-7.77727e-09
-5.7537e-10
-2.49574e-09
-1.01745e-08
3.68036e-09
3.16252e-09
-5.50023e-09
-2.99796e-10
-1.06285e-08
9.85627e-09
3.27191e-10
4.45067e-10
6.23339e-09
2.61468e-11
-1.21829e-08
-4.11332e-09
1.43209e-08
1.97532e-09
1.86163e-09
-3.48313e-09
-1.05614e-08
1.41127e-08
-8.83423e-09
-1.30557e-08
-2.67277e-10
2.40893e-10
-8.23687e-09
1.0096e-08
-7.09625e-09
-1.13811e-09
1.37884e-08
-1.20765e-08
6.92741e-09
2.42563e-09
-1.92684e-08
4.5868e-09
-7.37698e-09
-7.65694e-09
1.76873e-09
9.24827e-09
-1.3121e-09
-1.75803e-09
1.18753e-08
-7.20963e-09
9.59262e-09
-1.4293e-08
7.12607e-09
-1.73646e-09
7.10038e-09
1.57514e-08
2.8161e-09
-1.12128e-08
-7.35483e-09
2.87074e-09
8.20959e-09
-5.71766e-09
-6.39359e-09
6.21488e-09
-1.51716e-08
1.51105e-08
-6.15382e-09
1.11224e-08
-5.18465e-09
2.7714e-10
1.28034e-08
-7.94429e-09
-1.60719e-08
7.02649e-09
8.64764e-09
2.67564e-09
-4.98038e-09
-1.28669e-08
5.80669e-09
7.5185e-09
7.15065e-09
9.77844e-09
-5.21418e-09
-7.91484e-09
1.08586e-08
-6.87639e-09
-1.26614e-08
-1.07021e-08
-3.97204e-10
-1.5474e-08
-2.1045e-09
-3.75775e-09
-6.30558e-09
-1.33633e-09
1.13996e-08
-5.9546e-09
-4.49477e-09
6.6916e-09
-6.79599e-09
-3.78164e-09
4.85166e-09
5.72596e-09
2.1482e-09
-6.04145e-09
-2.90277e-09
-1.88512e-09
2.51663e-10
2.79875e-10
1.93637e-09
-8.52185e-09
-7.51756e-09
1.84281e-09
-2.4499e-09
-2.22508e-09
1.80166e-10
-6.73297e-09
1.02483e-08
-6.28138e-09
-3.68611e-09
1.37283e-09
-8.77099e-09
1.35667e-09
-9.07873e-09
3.71857e-09
-4.35737e-09
2.47143e-10
-1.98346e-09
-7.28001e-09
2.98206e-09
4.6941e-09
-5.60695e-10
-1.29044e-08
-5.98444e-09
1.5998e-09
-6.90152e-09
-9.40642e-10
2.62427e-09
-2.55368e-09
8.70092e-10
1.22498e-09
-2.02289e-09
-1.42684e-10
-1.52474e-09
-1.2199e-09
-7.7828e-11
2.82244e-09
-2.9273e-10
-6.9577e-12
-1.5937e-09