/*--------------------------------*- C++ -*----------------------------------*\
| =========                 |                                                 |
| \\      /  F ield         | OpenFOAM: The Open Source CFD Toolbox           |
|  \\    /   O peration     | Version:  v1612+                                |
|   \\  /    A nd           | Web:      www.OpenFOAM.com                      |
|    \\/     M anipulation  |                                                 |
\*---------------------------------------------------------------------------*/
FoamFile
{
    version     2.0;
    format      ascii;
    class       volVectorField;
    location    "100";
    object      wallShearStress;
}
// * * * * * * * * * * * * * * * * * * * * * * * * * * * * * * * * * * * * * //

dimensions      [0 2 -2 0 0 0 0];

internalField   uniform (0 0 0);

boundaryField
{
    WALL
    {
        type            calculated;
        value           nonuniform List<vector> 
1532
(
(-0.00198362 0.00732981 0.0190215)
(-0.00126676 0.00854291 0.0188264)
(-0.000203055 0.0066424 0.0128732)
(-0.0009157 0.00513488 0.0136573)
(0.00134266 0.00575892 0.0105732)
(0.00135352 0.00594495 0.0108579)
(-0.000880497 0.00434273 0.01497)
(0.0020968 0.00401966 0.0102289)
(0.00183132 0.00345396 0.00966768)
(0.00182785 0.00338267 0.00959686)
(0.00211519 0.00365335 0.00984133)
(0.00185624 0.00381405 0.00961651)
(0.00204125 0.00423927 0.0102281)
(-0.00110283 0.00749137 0.0151252)
(-0.00116721 0.00895124 0.0163151)
(-0.000904639 0.00735991 0.014605)
(-0.00139232 0.0081662 0.016935)
(-0.000774628 0.00889108 0.0154743)
(-0.00132207 0.00846381 0.0160489)
(-0.00206595 0.00991133 0.0322862)
(-0.00199431 0.0102134 0.0322308)
(-0.000737746 0.0105881 0.032299)
(-0.00210979 0.00993262 0.0323747)
(-0.0025995 0.0100426 0.0336137)
(-0.00147154 0.0104493 0.031823)
(-0.00794392 0.0135014 0.025022)
(-0.00711772 0.0152031 0.0258403)
(-0.00698577 0.0143853 0.0262379)
(-0.00734352 0.0162229 0.0247686)
(-0.0072637 0.0120784 0.0250232)
(-0.00830814 0.0137734 0.0263953)
(-0.00018325 0.00188193 0.0125781)
(0.000205644 0.00156526 0.0120425)
(0.000157207 0.00164185 0.0112586)
(-0.000287701 0.00220609 0.0120167)
(0.000388225 0.00144524 0.0111763)
(-0.000682611 0.00250574 0.0125621)
(-0.00583855 0.00927812 0.0306552)
(-0.00745797 0.010386 0.0306212)
(-0.00696922 0.0095865 0.0287359)
(-0.0066176 0.00994314 0.030179)
(-0.00715561 0.00947655 0.0303665)
(-0.0067247 0.00991595 0.0314563)
(-0.000317849 0.0124785 0.025813)
(-0.000301592 0.012961 0.0279885)
(0.000202982 0.0122147 0.0285991)
(0.000116711 0.0113704 0.0273913)
(-0.000212838 0.0109152 0.0264076)
(-0.000110305 0.0122478 0.0268221)
(0.00188956 0.00143198 0.00952335)
(0.00179492 0.00132965 0.00992532)
(0.00217786 0.000793053 0.0101346)
(0.00216666 0.00105199 0.00972419)
(0.00213692 0.00134103 0.00942182)
(0.00192939 0.000902248 0.010134)
(-0.000675558 0.00459347 0.0132215)
(-0.000616318 0.00500001 0.0131552)
(-0.00111267 0.00495264 0.0158862)
(0.00197857 0.00714343 0.012456)
(0.00183837 0.00846565 0.0138354)
(0.00202021 0.00653842 0.0118871)
(0.00222783 0.00814514 0.0130256)
(0.00247984 0.00728297 0.0122843)
(0.00177318 0.00816637 0.013458)
(-7.65936e-05 0.00209754 0.00697429)
(-5.77759e-06 0.00237309 0.0074769)
(0.000173296 0.00254522 0.00773322)
(0.000197738 0.00246393 0.00744095)
(-9.44268e-05 0.00212723 0.00711755)
(-2.51411e-06 0.00219066 0.00697168)
(-0.00599965 0.0111832 0.0256405)
(-0.00613022 0.0103453 0.0255109)
(-0.0053939 0.00973832 0.0245687)
(-0.00594472 0.0108584 0.0248497)
(-0.00537917 0.00931458 0.0246438)
(-0.00642517 0.0106308 0.0263218)
(0.000476557 0.000127583 0.0160146)
(1.56526e-05 0.000773101 0.0165291)
(-0.000235435 0.00122558 0.0158481)
(0.000437563 0.000367199 0.0153648)
(-0.000227656 0.00112803 0.016747)
(0.00118438 0.0096362 0.0249507)
(0.00149304 0.00901244 0.0240069)
(0.00200112 0.00980989 0.0254952)
(0.00109495 0.00936271 0.0246531)
(0.002033 0.00935895 0.0255014)
(0.00246173 0.00936938 0.0249222)
(-0.00184581 0.00613338 0.021694)
(-0.00138744 0.00654256 0.0217622)
(-0.00165938 0.00597189 0.0203002)
(-0.00178817 0.0063706 0.0210558)
(-0.00117324 0.00742441 0.0212608)
(-0.000949021 0.00841247 0.0220396)
(0.00139865 0.00644972 0.011749)
(0.000964987 0.00689203 0.0124762)
(0.00112518 0.00651209 0.0117847)
(0.000878359 0.00684594 0.0120932)
(0.00144149 0.00557548 0.0108225)
(0.00146669 0.00636069 0.0109931)
(0.00127142 0.0066126 0.0115801)
(0.00134184 0.00613518 0.011123)
(0.00160767 0.00669371 0.0116797)
(0.000703692 0.00638371 0.0127832)
(0.00132506 0.00703454 0.0118851)
(0.00159957 0.00516196 0.010268)
(0.00181403 0.00507292 0.0108353)
(0.00211822 0.00508683 0.0100139)
(0.00194968 0.00545718 0.0102529)
(0.0015567 0.00572936 0.0109714)
(0.00216552 0.00488529 0.00999323)
(0.0025736 0.00415748 0.00893134)
(0.00229779 0.00376873 0.00924352)
(0.00246311 0.00433047 0.00923034)
(0.0023108 0.00419228 0.00927866)
(0.00272522 0.00379879 0.00929307)
(0.0026355 0.00351809 0.00897757)
(-0.00160227 0.00613763 0.0231756)
(-0.00131035 0.00704225 0.0235496)
(-0.00173285 0.00591817 0.0220272)
(-0.00186303 0.00679518 0.0233781)
(-0.00160099 0.00697607 0.0242813)
(-0.00183769 0.00657299 0.0237769)
(0.00119869 0.00949635 0.0254973)
(-0.00102156 0.00788402 0.0253466)
(0.000107559 0.00868721 0.0244335)
(-0.000267031 0.00844695 0.0245103)
(0.000702564 0.00910912 0.0256115)
(-0.000426667 0.00852032 0.0225944)
(-0.000283871 0.00869812 0.0239215)
(-0.0005659 0.00901201 0.0233175)
(-0.000199033 0.00915066 0.0239309)
(0.000356797 0.00922122 0.0235682)
(-0.000250233 0.00807987 0.0220903)
(0.00127152 -0.00147339 0.0167281)
(0.000885343 -0.0018072 0.0182309)
(-0.000210331 0.000114028 0.0192733)
(0.000830651 -0.000976902 0.0173033)
(0.000208719 -0.000304322 0.0174513)
(0.000262287 -0.00147582 0.0193684)
(-0.00205073 0.00833349 0.0279308)
(-0.00266295 0.00842429 0.0276063)
(-0.00233981 0.00797868 0.0266888)
(-0.00169898 0.0079333 0.026386)
(-0.0018085 0.00864359 0.0282347)
(-0.00207054 0.00845516 0.0279092)
(-0.00220101 0.00787605 0.0263296)
(-0.00184706 0.00737793 0.0257611)
(-0.00186459 0.00793378 0.0268446)
(-0.0030118 0.00810552 0.0261298)
(-0.00271948 0.00767882 0.0253911)
(-0.0026199 0.00774253 0.0260769)
(0.00155299 0.00849472 0.0243587)
(0.00163141 0.00832215 0.0247808)
(0.00191065 0.00849558 0.0249286)
(0.0016602 0.0081762 0.0254183)
(0.0021215 0.00789525 0.0243425)
(0.00177094 0.00862471 0.0245429)
(0.00220151 0.00616513 0.0227363)
(0.00276525 0.00701758 0.0244279)
(0.00172065 0.00729929 0.0248986)
(0.00128234 0.00665071 0.0240454)
(0.00293701 0.00678812 0.0231706)
(0.0010236 0.00868617 0.0259666)
(0.00170856 0.00830404 0.0245811)
(0.000904673 0.00883222 0.025655)
(0.00102162 0.00910164 0.0256665)
(0.00139517 0.00876267 0.0251199)
(0.00112732 0.00889161 0.0246455)
(0.00092471 0.00812831 0.0247546)
(-0.000424538 0.0079285 0.0264562)
(0.000231122 0.00812733 0.0257475)
(0.000173828 0.00758263 0.0252219)
(0.00048262 0.00847096 0.0267337)
(-0.00231627 0.00660629 0.0210545)
(-0.00258277 0.00658617 0.0219405)
(-0.00270637 0.0069802 0.0207061)
(-0.00273981 0.00745443 0.0230934)
(-0.00321427 0.00796713 0.0216491)
(-0.00314964 0.00754751 0.0221279)
(-0.00145564 0.00667607 0.0232208)
(-0.00144177 0.00716575 0.0242509)
(-0.00210245 0.0070502 0.0237853)
(-0.00066462 0.00653471 0.0240861)
(-0.00191349 0.00670727 0.02338)
(-0.00186263 0.00638291 0.0223712)
(-0.00176293 0.00740955 0.0255167)
(-0.00152978 0.00751984 0.0250475)
(-0.000623666 0.0071512 0.0244084)
(-0.00105014 0.00744575 0.0252104)
(-0.00143528 0.00715468 0.0251649)
(-0.0018957 0.00688743 0.0241524)
(0.00548004 0.00883705 0.0259182)
(0.00543926 0.00766129 0.024064)
(-4.10985e-05 0.00164873 0.00594814)
(-0.000130534 0.00185093 0.0065782)
(-0.000136818 0.00159075 0.00620169)
(-0.000234967 0.00189268 0.00666878)
(-0.000358982 0.00156737 0.00611722)
(-0.000357923 0.00170386 0.00646239)
(0.000226888 0.00279912 0.00810467)
(0.000223811 0.00301278 0.0084072)
(5.67496e-05 0.00227216 0.00725563)
(6.416e-05 0.00251572 0.00779358)
(-3.30499e-05 0.00231575 0.00739675)
(0.000122306 0.00264686 0.00780911)
(0.0021642 0.00587866 0.0110421)
(0.0019469 0.00655918 0.0111543)
(0.00229288 0.00770765 0.0126226)
(0.00215609 0.00720928 0.0123663)
(0.00221121 0.00627028 0.0116641)
(0.00209959 0.00548732 0.0108112)
(0.00158054 0.0113714 0.0150028)
(0.00160559 0.00892773 0.013287)
(0.00208266 0.00906157 0.013314)
(0.00131824 0.0102037 0.0140916)
(0.00199344 0.0086261 0.0127235)
(0.0016243 0.0100447 0.0138008)
(-7.95403e-05 0.00184239 0.0075505)
(1.90461e-05 0.001925 0.00722031)
(-7.67317e-06 0.00190529 0.00745865)
(-2.92184e-05 0.00196736 0.00720683)
(-0.000231607 0.00194781 0.00715537)
(-0.000110569 0.00185958 0.00736069)
(0.00100117 0.00274519 0.00840496)
(0.000979568 0.00243261 0.00799817)
(0.00145737 0.00316879 0.00865116)
(0.00135437 0.00325546 0.00896601)
(0.00100685 0.00280866 0.00827333)
(0.000806963 0.00246674 0.0078653)
(0.0010097 0.0034621 0.00895499)
(0.00166523 0.00452528 0.0098402)
(0.00112328 0.00327701 0.00862409)
(0.00150998 0.00432571 0.00969548)
(0.00134038 0.00384773 0.009605)
(0.00182421 0.00493327 0.0103199)
(0.00164549 0.0097049 0.0137735)
(0.00132823 0.00626495 0.0109844)
(0.00144434 0.00709571 0.0115091)
(0.00168624 0.00900185 0.0128819)
(0.00178819 0.00833946 0.0121825)
(0.00157102 0.00710036 0.0118949)
(0.000857943 0.0120127 0.0159908)
(3.49854e-06 0.015554 0.0169848)
(0.00034928 0.0138082 0.0156117)
(0.000802155 0.0114978 0.0146747)
(0.00169613 0.0112814 0.0137706)
(-0.000469121 0.0129882 0.0163074)
(0.00135467 0.00529112 0.0107508)
(0.000782601 0.00395908 0.0093822)
(0.00116746 0.00481121 0.0102029)
(0.000433232 0.0020433 0.00717573)
(0.000137187 0.00186406 0.00708107)
(0.00037498 0.00195594 0.00728779)
(0.000163165 0.00188402 0.00722727)
(0.000136021 0.00208291 0.00726065)
(0.000168633 0.00170707 0.00757392)
(5.07605e-05 0.00172808 0.00760867)
(0.000159973 0.00183963 0.00721148)
(0.000157022 0.00187455 0.00718132)
(0.000240001 0.00180485 0.00738696)
(0.000105669 0.00178604 0.00735693)
(-0.00161999 0.0152388 0.0179954)
(-0.00294559 0.0152019 0.019836)
(-0.00206884 0.0154316 0.0193934)
(-0.00322032 0.0147557 0.0204635)
(-0.00184553 0.0165425 0.0184397)
(-0.00417309 0.0152997 0.0232513)
(-0.0031541 0.0119962 0.0197021)
(-0.00221982 0.0125912 0.0179344)
(-0.00247305 0.0150343 0.0198554)
(-0.00274677 0.0136204 0.0200017)
(-0.00359611 0.0147577 0.020987)
(-0.00429548 0.0122873 0.0211464)
(-3.7006e-05 0.00903979 0.0149979)
(0.00079094 0.00786344 0.0134499)
(0.000575058 0.00813708 0.0141407)
(7.7953e-05 0.00834964 0.0137557)
(-0.000212298 0.00861353 0.0158754)
(0.000631151 0.00817158 0.013528)
(4.80174e-05 0.0096998 0.0153521)
(0.000847564 0.00874634 0.0146073)
(0.00123241 0.0088116 0.0141213)
(-0.000148476 0.00876875 0.0148252)
(0.000180592 0.00927553 0.01492)
(0.000668322 0.00859022 0.0147708)
(0.00149509 0.00662046 0.0122587)
(0.00151112 0.00673557 0.0126483)
(0.00114092 0.00762946 0.0128535)
(0.00177954 0.00639166 0.0118923)
(0.00131075 0.00763838 0.01313)
(0.0011272 0.00690094 0.0123755)
(-0.00338533 0.00970558 0.0194152)
(-0.00310354 0.00916253 0.0203694)
(-0.00374709 0.00933588 0.0199679)
(-0.00330499 0.0083534 0.0195326)
(-0.00396027 0.00974415 0.0207015)
(-0.00305637 0.00982885 0.0194544)
(-0.00351763 0.0122185 0.0200934)
(-0.00324482 0.0108207 0.0205505)
(-0.00391666 0.00976416 0.0195694)
(-0.00444814 0.0111321 0.021097)
(-0.00308859 0.0118288 0.0209832)
(-0.00432222 0.0106644 0.0203853)
(-0.000924053 0.00539203 0.0132287)
(-0.0010357 0.00735739 0.0138673)
(-0.00131844 0.00689243 0.0152216)
(-0.00120446 0.00663125 0.0155411)
(-0.00126785 0.00736583 0.0148341)
(0.00180909 0.00249258 0.0187064)
(0.00154152 0.00290539 0.018794)
(0.000778342 0.00340147 0.0189793)
(0.00106778 0.00306994 0.01842)
(0.00025506 0.00330672 0.0177138)
(0.000280654 0.00355726 0.0187005)
(-0.00126814 0.00534793 0.0200971)
(-0.000305786 0.00397078 0.0186635)
(-0.000514914 0.00499928 0.0211203)
(-0.00127092 0.00568389 0.0195447)
(-0.000498809 0.00429893 0.0198526)
(-0.00145441 0.00538609 0.0190856)
(0.00135573 0.00490173 0.0223121)
(0.000113042 0.0049233 0.021171)
(0.000324714 0.00506404 0.0221888)
(0.000366004 0.00418364 0.0204672)
(0.00127259 0.00396194 0.0203458)
(0.00155674 0.00418919 0.0212746)
(0.000695861 0.00130396 0.0113929)
(0.000766127 0.00136171 0.0107135)
(0.00128696 0.00109863 0.0107664)
(0.0013993 0.00120558 0.0102666)
(0.00100228 0.0013378 0.0101895)
(0.000923523 0.0012009 0.0112351)
(0.00146008 0.00140577 0.00955969)
(0.00168087 0.0015797 0.00943994)
(0.00149311 0.00147617 0.00907587)
(0.00144636 0.00173728 0.0089822)
(0.00149515 0.00150415 0.00946782)
(0.00166037 0.00180645 0.00928828)
(0.00226218 0.00309706 0.00931345)
(0.00203719 0.00271621 0.00915765)
(0.00222529 0.00334193 0.00946626)
(0.00210676 0.00325324 0.00986419)
(0.00212749 0.00285657 0.00944004)
(0.00262581 0.00118817 0.00943355)
(0.00272209 0.00182344 0.00909351)
(0.00284053 0.00147851 0.00913367)
(0.00287725 0.00120922 0.0095805)
(0.00242817 0.00159519 0.00919105)
(0.00258215 0.00180875 0.0091312)
(2.69275e-05 0.00572013 0.011758)
(0.000124787 0.00589358 0.0119926)
(-4.00632e-05 0.00747283 0.0134016)
(-0.000342718 0.0062513 0.0137226)
(8.00243e-05 0.00668553 0.0125698)
(-0.00291219 0.00760189 0.0194047)
(-0.00305057 0.00804642 0.0204705)
(-0.00271142 0.00846952 0.0186819)
(-0.00311356 0.00813719 0.0195999)
(-0.00296344 0.0088028 0.0199696)
(-0.0027498 0.00830482 0.019609)
(-0.00211413 0.00682114 0.0193233)
(-0.00269792 0.00717429 0.019757)
(-0.00259623 0.00788186 0.0197315)
(-0.00245131 0.00724708 0.0207755)
(-0.00250819 0.00706022 0.0184554)
(-0.00215544 0.00655047 0.0203043)
(-0.000678437 0.00582546 0.0221466)
(-0.00089261 0.00595956 0.0218879)
(-0.00118237 0.00576923 0.0212103)
(-0.00175574 0.00669434 0.0220126)
(-0.00149852 0.00596033 0.0211869)
(-0.000742882 0.00611378 0.0228642)
(-0.00176407 0.00271309 0.0093892)
(-0.00100603 0.00211509 0.00826277)
(-0.00121744 0.0020743 0.00807223)
(-0.000903849 0.00186047 0.00817062)
(-0.00165701 0.00253217 0.00877914)
(-0.00154566 0.0025504 0.00958208)
(-0.000217151 0.00174795 0.00785747)
(-0.000495826 0.00184773 0.00830643)
(-0.000568829 0.00168009 0.00727016)
(-0.000510297 0.00176532 0.00728211)
(-0.000334411 0.00178064 0.00743023)
(-0.000952449 0.0020023 0.00844745)
(-0.000324536 0.00165976 0.00656875)
(-0.000575594 0.00172483 0.00715482)
(-0.000257694 0.00162856 0.00697855)
(-0.000406001 0.00159576 0.00669533)
(-0.000514929 0.00159827 0.0067545)
(-0.000618102 0.00168409 0.00725874)
(-0.00151563 0.00586352 0.0175012)
(-0.00183991 0.00650204 0.0176591)
(-0.0019067 0.00702705 0.0184713)
(-0.00824551 0.0111096 0.0314572)
(-0.00779649 0.00988628 0.0307682)
(-0.00265981 0.0039734 0.0109796)
(-0.00311384 0.00509504 0.0115952)
(-0.00363225 0.00619741 0.0131318)
(-0.00220132 0.00374218 0.0103055)
(-0.00340572 0.00636198 0.0126919)
(-0.00291135 0.00503351 0.0120602)
(-0.00254983 0.0150522 0.0213221)
(-0.00207466 0.0140915 0.0215479)
(-0.00281651 0.0148674 0.0202642)
(-0.0025345 0.0117945 0.0182523)
(-0.00165764 0.00726355 0.0182269)
(-0.00102619 0.010676 0.0213182)
(-0.00174049 0.00976648 0.0192858)
(-0.00151983 0.0105389 0.0198472)
(-0.0017259 0.0108436 0.0224846)
(-0.000397541 0.00903301 0.0268452)
(-2.01951e-06 0.00969866 0.0262906)
(7.12996e-05 0.00934644 0.0263477)
(-1.50094e-05 0.00879479 0.0258627)
(7.86196e-06 0.00963337 0.0264513)
(-0.000180732 0.00958268 0.0255833)
(0.000518021 0.00923604 0.0237015)
(8.29248e-05 0.00926039 0.0233131)
(0.000163123 0.00990115 0.0238929)
(-9.92132e-05 0.00921083 0.0229044)
(0.000612229 0.00993918 0.0251753)
(0.000450786 0.010348 0.0254871)
(-0.00081845 0.00939553 0.0207244)
(-0.000502051 0.00976748 0.0225203)
(-0.000444938 0.0102186 0.0219399)
(-0.000862002 0.0100058 0.0226241)
(-0.000198799 0.0108265 0.0233035)
(-0.000298501 0.010196 0.0231983)
(-0.00209691 0.00702136 0.0165415)
(-0.00229113 0.00676891 0.0183114)
(-0.00247335 0.00817457 0.0181566)
(-0.0014848 0.00496169 0.0154522)
(-0.00191244 0.00686731 0.0167985)
(-0.00116766 0.0140567 0.0242554)
(-0.00166385 0.0144954 0.0260587)
(-0.000701478 0.0134894 0.02718)
(-0.000264056 0.0132515 0.0243787)
(-0.000848052 0.0131258 0.0230689)
(-0.000843566 0.0140083 0.0261281)
(-0.000393547 0.0116364 0.0305429)
(-0.00151139 0.0105825 0.0312642)
(-3.02795e-05 0.0125336 0.0306423)
(-0.000721086 0.0104199 0.0294763)
(-0.00113847 0.0110517 0.0312523)
(-0.000877312 0.0123853 0.03227)
(-0.00248059 0.0105903 0.0196761)
(-0.00217269 0.0103227 0.0207079)
(-0.00251047 0.0109757 0.0204004)
(-0.00198687 0.0105362 0.0213058)
(-0.00150274 0.0107708 0.0213891)
(-0.00208159 0.0111393 0.0195537)
(-0.00205231 0.00539003 0.0150814)
(-0.00271485 0.0074174 0.0153147)
(-0.0025428 0.0077083 0.0193048)
(-0.00217972 0.00715273 0.0152614)
(-0.00312981 0.00790214 0.0192204)
(-0.00233942 0.00683744 0.0154435)
(-0.00284521 0.00755157 0.0155888)
(-0.00309694 0.00631444 0.0137325)
(-0.002799 0.00500045 0.0126456)
(-0.00311404 0.00553874 0.0125807)
(-0.00215982 0.00394189 0.0114711)
(-0.00306308 0.00619781 0.0138182)
(-0.00247944 0.00534657 0.0129413)
(-0.00285798 0.00711618 0.0148639)
(-0.00262616 0.00553951 0.0133863)
(-0.00263008 0.00685997 0.0154245)
(-0.00296745 0.0069353 0.0142793)
(-0.00390311 0.00908836 0.0313717)
(-0.00289933 0.00850781 0.0301374)
(-0.00410295 0.0087759 0.0308932)
(-0.00449751 0.00893043 0.031091)
(-0.00331189 0.0092383 0.0321655)
(-0.00462165 0.00952844 0.0324384)
(-0.00382766 0.00987301 0.0336727)
(-0.00661155 0.0105732 0.0261692)
(-0.00675991 0.00990586 0.0271167)
(-0.00655561 0.0107346 0.0280665)
(-0.00623151 0.00985404 0.0284736)
(-0.00668264 0.0106333 0.0275103)
(-0.00597378 0.0096135 0.0273912)
(-0.00387323 0.00812139 0.0268748)
(-0.00385873 0.00835233 0.0280453)
(-0.00327697 0.00790878 0.0258135)
(-0.00373036 0.00832299 0.0274665)
(-0.00318539 0.00793872 0.0274353)
(-0.00323632 0.00834003 0.0282102)
(-0.000230861 0.0107164 0.0276784)
(0.000281558 0.0110835 0.0282162)
(-0.000650991 0.0103332 0.0292753)
(-0.000462396 0.00991711 0.0274533)
(-1.65065e-05 0.0102014 0.0278119)
(-0.000249972 0.0109118 0.0285392)
(-0.000602978 0.00830302 0.0266073)
(-0.00100803 0.00905976 0.0282324)
(-0.000483563 0.00921556 0.0280824)
(-0.00137117 0.00881259 0.0283759)
(-0.00117377 0.0092231 0.0287293)
(-0.000486171 0.00883869 0.0266121)
(-6.9461e-05 0.00143891 0.0131167)
(-0.000502754 0.00185825 0.014308)
(0.000534074 0.000915495 0.0128617)
(0.000222086 0.00127122 0.0125913)
(-0.000122859 0.00134723 0.0142871)
(0.00043895 0.000785311 0.0135973)
(0.000674041 0.00148017 0.00897718)
(0.000694965 0.00142173 0.0101552)
(0.000916628 0.00140195 0.00902964)
(0.000520493 0.00146294 0.0101173)
(0.000600297 0.00141603 0.00931552)
(0.000801727 0.0015161 0.00978006)
(-0.000205393 0.00209408 0.0100104)
(0.000195611 0.00171031 0.00989599)
(-0.000419307 0.00213861 0.0101001)
(-1.66702e-05 0.00193301 0.0104789)
(-0.000474092 0.00233182 0.0115744)
(-0.000622162 0.0022739 0.0117372)
(-0.00803044 0.0112685 0.0295673)
(-0.00785917 0.0115955 0.0268936)
(-0.0086407 0.0128124 0.0286969)
(-0.00770613 0.0107172 0.0278586)
(-0.00768223 0.0112755 0.0271712)
(-0.00840294 0.0116244 0.0285207)
(-0.00653749 0.0126178 0.0265219)
(-0.0073337 0.0143238 0.0258916)
(-0.0071274 0.0120418 0.0270463)
(-0.00657634 0.0111879 0.025725)
(-0.00686278 0.0137481 0.0263183)
(-0.00692747 0.0115762 0.0249668)
(-0.000658471 0.00947214 0.015721)
(-0.000956535 0.00938896 0.016242)
(0.00235762 0.00514383 0.0107222)
(0.00220182 0.00470327 0.0102315)
(0.00210717 0.00594825 0.0115935)
(0.00230216 0.00576995 0.0112899)
(0.00218118 0.00499708 0.010894)
(0.00220336 0.00561841 0.011216)
(0.00123741 0.00208903 0.00779396)
(0.00128429 0.0025156 0.00827145)
(0.00140687 0.00234825 0.0084563)
(0.00156934 0.00256782 0.00860987)
(0.00166671 0.00272938 0.00860087)
(0.00199934 0.0044679 0.0108233)
(0.00219309 0.00428962 0.010178)
(0.00196996 0.00359522 0.0100715)
(0.00206793 0.00384832 0.0101534)
(0.00210782 0.00420581 0.0105707)
(0.00200318 0.00380066 0.0107738)
(0.000768799 0.0102525 0.0148704)
(0.00130027 0.00958196 0.0134214)
(0.00206332 0.00932413 0.0135033)
(0.00205226 0.00977565 0.0142625)
(0.00151594 0.0104489 0.0143432)
(0.00210862 0.00997626 0.0137074)
(-0.000224712 0.0109173 0.0161465)
(-0.000876074 0.0127957 0.018274)
(-0.000818954 0.0131133 0.0182335)
(0.000194842 0.0128517 0.0160742)
(-0.000273834 0.0112334 0.016167)
(-0.000564404 0.0128054 0.0171119)
(-0.000335408 0.0115278 0.0176599)
(0.000221533 0.011716 0.0156359)
(0.00163066 0.00967567 0.0137336)
(0.000169459 0.0104796 0.0152283)
(0.000935608 0.011129 0.0159806)
(0.00066348 0.0106802 0.0158767)
(0.001456 0.0109125 0.0147227)
(0.00213262 0.00344738 0.00996233)
(0.00194401 0.00436757 0.0108355)
(0.00196544 0.00485445 0.0105623)
(0.00149403 0.00288693 0.00925946)
(0.00178205 0.0050598 0.0111775)
(0.00189367 0.00480479 0.0109143)
(0.00202413 0.00516483 0.0111781)
(0.00200533 0.00482715 0.0106772)
(0.00205103 0.00584041 0.0116808)
(0.00220951 0.00611339 0.0118594)
(0.00190914 0.00405601 0.00990143)
(0.00180565 0.00380763 0.00960472)
(0.00158202 0.00321812 0.00918571)
(0.00169339 0.00302949 0.00892249)
(-0.000287986 0.00871343 0.0150918)
(-0.000809296 0.00806121 0.0151193)
(-0.00188403 0.00873418 0.0168984)
(-0.00128087 0.00862466 0.0170503)
(-0.00185627 0.00788156 0.0165941)
(-0.00202987 0.00893061 0.0176325)
(-0.0019125 0.00790906 0.0174112)
(-0.00186592 0.00747477 0.015757)
(-0.00188152 0.00783996 0.0167224)
(-0.00480277 0.0176541 0.0219868)
(-0.00364513 0.0140532 0.0186748)
(-0.00426556 0.0179968 0.0213945)
(-0.00569525 0.0167681 0.0222074)
(-0.00658331 0.0177331 0.025724)
(-0.00559036 0.0171843 0.0217825)
(-0.00640415 0.0174464 0.0235916)
(-0.00757456 0.0174767 0.0246195)
(-0.00569801 0.0163369 0.0215228)
(-0.0067385 0.0190385 0.0211035)
(-0.0073979 0.0155924 0.0256543)
(-0.00719574 0.012085 0.0264756)
(-0.00680046 0.0105429 0.0259292)
(-0.00728442 0.0167899 0.0243122)
(-0.00661823 0.0155651 0.0235628)
(-0.00456373 0.0148087 0.0207403)
(-0.00600583 0.012453 0.022621)
(-0.00677704 0.0140877 0.0235853)
(-0.00468296 0.0132206 0.0227291)
(-0.00445363 0.0143003 0.0199507)
(0.000513914 0.00146413 0.00927087)
(-0.000501928 0.0102863 0.0287802)
(-0.00274623 0.00843276 0.0289304)
(-0.00248201 0.00836794 0.0282135)
(-0.00214664 0.00800691 0.0272357)
(-0.00307314 0.00886151 0.0300874)
(-0.00191583 0.00924875 0.0299982)
(-0.00263081 0.00871388 0.0288998)
(-0.00157383 0.00948353 0.0291472)
(-0.00107305 0.00907129 0.0281442)
(-0.00127819 0.00842155 0.0271357)
(-0.000603426 0.00876759 0.0278529)
(-0.00156314 0.00921476 0.0304071)
(-0.004705 0.00865444 0.0284897)
(-0.00437763 0.00917255 0.0303158)
(-0.00355196 0.00825933 0.0282605)
(-0.00376161 0.0083973 0.0294736)
(-0.00397298 0.00879981 0.0292311)
(-0.00342103 0.00897678 0.0302509)
(-0.00368815 0.00814292 0.0285038)
(-0.00264596 0.00859942 0.0290922)
(-0.00172086 0.00369648 0.0118351)
(-0.0011742 0.00269291 0.0105945)
(-0.00139398 0.00300085 0.00989379)
(-0.000454261 0.00176798 0.00843331)
(-0.000623764 0.00209642 0.00908456)
(-0.000896201 0.0024906 0.00987046)
(-0.000972921 0.0023743 0.00906792)
(-0.000671141 0.00206182 0.00873347)
(-0.00183639 0.00364778 0.0118755)
(-0.00201873 0.00433198 0.0123771)
(-0.00300519 0.00634991 0.0149111)
(-0.002156 0.00504677 0.0135832)
(-0.00200298 0.00480077 0.0130712)
(-0.00211109 0.00439406 0.0133383)
(-0.00267164 0.00609682 0.0156492)
(-0.00209045 0.00830289 0.0155079)
(-0.00221728 0.00721101 0.0155466)
(-0.00212471 0.00753108 0.0166111)
(-0.0020568 0.00955694 0.0164008)
(-0.0027511 0.0110347 0.0181089)
(-0.00196628 0.011908 0.0193105)
(0.000149633 0.0105237 0.0278076)
(-0.000478823 0.0107839 0.0287639)
(-0.000430064 0.0112065 0.0278451)
(-0.00102953 0.00910661 0.0286812)
(-0.000937327 0.00990175 0.0292353)
(-0.00019038 0.00920157 0.0264951)
(0.0003504 0.00952868 0.0271167)
(0.000689292 0.0095014 0.0249625)
(2.65262e-05 0.0109868 0.025967)
(-6.09833e-05 0.009663 0.0262139)
(-0.000114657 0.0104615 0.0263156)
(3.46275e-05 0.00975863 0.0256089)
(0.000221055 0.010373 0.0249674)
(0.000222742 0.0102893 0.0253291)
(3.7124e-05 0.00953786 0.0253197)
(-0.000113635 0.0107528 0.025143)
(-0.000211411 0.0102693 0.0239016)
(0.000242272 0.0111195 0.0250565)
(0.000260382 0.0103155 0.0245787)
(0.000110366 0.010715 0.0266226)
(-0.000104294 0.0101902 0.024232)
(-0.000205514 0.0107244 0.0248686)
(0.000128431 0.0122605 0.0263797)
(6.27894e-05 0.011558 0.0259114)
(-0.000794968 0.0111323 0.024704)
(-0.00080012 0.0112856 0.0243195)
(-0.00120824 0.0125409 0.0244443)
(-0.000582987 0.0111668 0.024308)
(-0.000969286 0.0108589 0.0234524)
(-0.000775477 0.0126475 0.0227893)
(-0.000970023 0.0126903 0.0241057)
(-0.000515446 0.0113073 0.0247783)
(-0.000636588 0.0112107 0.0236551)
(-0.000675456 0.0115156 0.0229233)
(-0.000714356 0.0118225 0.023227)
(-0.00115011 0.00982353 0.0224627)
(-0.001822 0.0112064 0.0198477)
(-0.00189589 0.0102173 0.0222572)
(-0.00139616 0.00901172 0.0203773)
(-0.00106841 0.0097311 0.0203601)
(-0.00265575 0.00736174 0.0182158)
(-0.00181683 0.00751935 0.0183048)
(-0.00136901 0.00887237 0.0208461)
(-0.00147416 0.00859104 0.0201182)
(-0.0016447 0.00757821 0.0198726)
(-0.00182935 0.00652559 0.0196456)
(-0.00171727 0.00661406 0.0197754)
(-0.00115792 0.00764087 0.0202216)
(-0.000768068 0.00928991 0.0212051)
(-0.000583156 0.00962887 0.0229928)
(-0.00038673 0.00971028 0.0220764)
(-0.000499416 0.0098475 0.0214151)
(-0.000131094 0.00992964 0.0228379)
(-0.000261944 0.00910402 0.0225592)
(-0.000261163 0.0103904 0.0237344)
(-0.000870006 0.00921302 0.0222876)
(-0.00145531 0.00850729 0.0210198)
(-0.00138062 0.00902496 0.0212766)
(-0.00118124 0.00881968 0.0218294)
(-0.00098364 0.00826986 0.021455)
(-0.00142361 0.00826236 0.0215765)
(-0.00115509 0.0141381 0.0242962)
(-0.000429727 0.014016 0.0284008)
(-0.000531385 0.015266 0.0265961)
(-0.000735872 0.0144577 0.0274411)
(-0.00326962 0.0105561 0.0168577)
(-0.00286775 0.00831108 0.0166712)
(-0.00408283 0.0120136 0.0176459)
(-0.00322571 0.00755635 0.0145949)
(-0.00406046 0.0121138 0.0178612)
(-0.00378081 0.0115533 0.0206405)
(-0.0026273 0.0120619 0.0195492)
(-0.00260203 0.0148802 0.0228562)
(-0.00238804 0.0148632 0.0245153)
(-0.00152211 0.0131412 0.0234252)
(-0.00371898 0.0109084 0.0179339)
(-0.00255669 0.0114014 0.0222823)
(-0.00120149 0.0121876 0.0241822)
(-0.00136378 0.0121542 0.0226069)
(-0.00136715 0.0123271 0.0216901)
(-0.00143491 0.0133264 0.0222547)
(-0.00113568 0.0128129 0.0225092)
(-0.00122939 0.0121277 0.0209515)
(-0.00119087 0.00255352 0.00951422)
(-0.00155957 0.00287314 0.0100584)
(-0.00194029 0.00334686 0.0104925)
(-0.00108098 0.00232369 0.0090453)
(-0.00376381 0.00799539 0.0156806)
(-0.00380886 0.00763534 0.0145836)
(-0.00432909 0.00980541 0.0160799)
(-0.00411376 0.0111946 0.0171127)
(-0.0038361 0.00895818 0.0150378)
(-0.0049908 0.0115152 0.0169566)
(-0.00409654 0.0105165 0.018607)
(-0.000464703 0.0116727 0.0331208)
(-0.000537284 0.0154097 0.0242132)
(-0.00114289 0.015173 0.0242545)
(-0.000223165 0.0160094 0.0272785)
(-0.000231173 0.0164646 0.026234)
(-0.000128742 0.0147048 0.0294757)
(0.000106406 0.0145527 0.02889)
(-0.000471868 0.0142348 0.0282355)
(0.000176692 0.014299 0.0306948)
(-0.000719538 0.0121993 0.0326928)
(-0.00591522 0.00944496 0.0322013)
(-0.00480783 0.00904514 0.0320357)
(-0.00443763 0.00946594 0.0334152)
(-0.00646512 0.00917996 0.0321793)
(-0.00155427 0.00401217 0.0147427)
(-0.00144889 0.00382226 0.0142314)
(-0.00147693 0.00348057 0.0152468)
(-0.00177212 0.00648451 0.0187802)
(-0.00165198 0.00464409 0.0179948)
(-0.00170568 0.00480332 0.0159985)
(-0.00147815 0.00383714 0.0161596)
(-0.00201771 0.00466152 0.0163018)
(-0.00136248 0.00427414 0.0175511)
(-0.00151633 0.00581954 0.018055)
(-0.000962471 0.00272099 0.0156049)
(-0.00130172 0.00296519 0.015894)
(-0.00129662 0.00312499 0.0157197)
(0.000130421 0.0143812 0.0316782)
(-0.000114641 0.0122716 0.0308435)
(-0.000235033 0.0134413 0.0309918)
(0.000135895 0.0135244 0.0292328)
(-0.000459854 0.0122443 0.0303656)
(-0.000237835 0.0117939 0.0305764)
(-0.000659037 0.0109559 0.0320785)
(-0.000852477 0.0105594 0.0321662)
(-0.000775543 0.0110217 0.0315192)
(-0.000520949 0.0107969 0.0304411)
(-0.00227366 0.00335493 0.0101968)
(-0.00066164 0.00178564 0.00751303)
(-0.00100917 0.00183505 0.00753664)
(-0.00216944 0.00345177 0.0101933)
(-0.00128918 0.00252172 0.00954098)
(-0.00184518 0.00303346 0.0102834)
(-0.00182119 0.00284667 0.00949212)
(-0.000626432 0.00187953 0.00824997)
(-0.000983433 0.00208848 0.00846577)
(0.000142931 0.00565076 0.0227039)
(-0.00197643 0.00695513 0.0176958)
(-0.0015213 0.00606941 0.0205522)
(-0.00236122 0.00799709 0.0175226)
(-0.00199453 0.00709312 0.0176561)
(-0.00426573 0.00871545 0.0231816)
(-0.0044988 0.00939193 0.0230807)
(-0.00235978 0.00832234 0.0185241)
(-0.00241042 0.00868153 0.0181132)
(-0.00266738 0.00794689 0.0185847)
(-0.0024053 0.00910598 0.0190318)
(0.000240755 0.00757526 0.0139881)
(-0.000179801 0.00779646 0.0140229)
(8.37396e-05 0.00783583 0.0133028)
(0.000785369 0.00177553 0.00760433)
(0.000602497 0.00189976 0.00712111)
(0.000945827 0.00189946 0.00767084)
(0.00122819 0.00193088 0.00784559)
(0.000888738 0.00205089 0.00754577)
(0.000705486 0.00786835 0.0137642)
(0.00114092 0.00714555 0.0130963)
(0.000976829 0.00714371 0.0128841)
(0.00179736 0.00575468 0.0115373)
(0.00158941 0.00667558 0.0125712)
(0.0018095 0.0065913 0.0122912)
(0.002003 0.00612308 0.0119803)
(0.00149771 0.00228329 0.00881667)
(0.00112687 0.00177009 0.00777959)
(0.00127261 0.00188002 0.00786543)
(0.00187386 0.00516377 0.0110078)
(0.0019047 0.00485028 0.0107251)
(0.00210475 0.0045111 0.01052)
(0.000199622 0.00705787 0.0130169)
(-0.000387007 0.00599573 0.0140534)
(0.000935241 0.00647945 0.0116533)
(0.000825838 0.0063718 0.0121663)
(0.0038156 -0.0016903 0.0123761)
(0.00212053 0.00322789 0.0100173)
(0.00201175 0.00254223 0.00922523)
(0.00187453 0.00250469 0.00932146)
(0.00161443 0.00230879 0.008776)
(0.00199997 0.00280953 0.00975017)
(0.0018314 0.00309814 0.00956255)
(0.0020045 0.00289988 0.00958905)
(0.00127068 0.00177363 0.00830404)
(0.00116757 0.00142574 0.00877944)