/*--------------------------------*- C++ -*----------------------------------*\
| =========                 |                                                 |
| \\      /  F ield         | OpenFOAM: The Open Source CFD Toolbox           |
|  \\    /   O peration     | Version:  v1612+                                |
|   \\  /    A nd           | Web:      www.OpenFOAM.com                      |
|    \\/     M anipulation  |                                                 |
\*---------------------------------------------------------------------------*/
FoamFile
{
    version     2.0;
    format      ascii;
    class       volScalarField;
    location    "200";
    object      p;
}
// * * * * * * * * * * * * * * * * * * * * * * * * * * * * * * * * * * * * * //

dimensions      [0 2 -2 0 0 0 0];

internalField   nonuniform List<scalar> 
16840
(
3.24763
3.23435
3.27184
3.24332
3.24676
3.24407
3.26644
3.26905
3.2607
3.2557
3.28564
3.27327
3.29118
3.2756
3.24917
3.23984
3.26356
3.25918
3.25777
3.23001
3.23848
3.26549
3.27374
3.24964
3.23387
3.23701
3.25212
3.25771
3.23369
3.27159
3.29811
3.3058
3.31273
3.31131
3.29245
3.29586
3.30249
3.31291
3.31086
3.29757
3.29251
3.31002
3.29367
3.29885
3.30405
3.21436
3.21969
3.24042
3.24108
3.23604
3.23034
3.21968
3.20445
3.22662
3.20724
3.2441
3.24163
3.23261
3.2407
3.23465
3.23847
3.22387
3.26074
3.27404
3.24051
3.23828
3.27124
3.26701
3.28883
3.26068
3.23214
3.26824
3.25309
3.26658
3.27802
3.26112
3.28644
3.24898
3.27106
3.26337
3.25728
3.25818
3.27612
3.26676
3.25955
3.2746
3.28621
3.25902
3.26118
3.29332
3.27679
3.28941
3.28669
3.24151
3.24425
3.23961
3.23503
3.24753
3.24567
3.23136
3.22083
3.2222
3.21428
3.22016
3.20967
3.15828
3.15456
3.14232
3.14076
3.15253
3.15386
3.13991
3.12577
3.13564
3.13894
3.13129
3.12009
3.13556
3.14077
3.15819
3.15488
3.14515
3.12853
3.1425
3.1409
3.13693
3.1437
3.31379
3.3144
3.31551
3.31322
3.31043
3.30239
3.31094
3.30714
3.31109
3.3102
3.30797
3.30355
3.29954
3.29463
3.29696
3.30101
3.30787
3.30946
3.31592
3.30716
3.30372
3.14854
3.15339
3.1491
3.15255
3.1488
3.14924
3.14699
3.15267
3.1512
3.14746
3.15545
3.15858
3.15108
3.14784
3.15679
3.15654
3.15384
3.15639
3.15704
3.15813
3.22183
3.23569
3.23387
3.23812
3.25347
3.24386
3.22941
3.26083
3.25512
3.21379
3.2323
3.24211
3.22578
3.21109
3.20768
3.21453
3.22619
3.2262
3.21009
3.20902
3.31768
3.32343
3.32168
3.31141
3.31187
3.32448
3.31755
3.2986
3.30291
3.29644
3.29433
3.306
3.31856
3.32225
3.30681
3.30699
3.29953
3.30303
3.31293
3.31167
3.3128
3.32099
3.1792
3.16982
3.20269
3.18887
3.20874
3.18649
3.20464
3.18696
3.16756
3.16739
3.18513
3.19011
3.18898
3.19477
3.20427
3.19776
3.21273
3.1832
3.21332
3.22547
3.21233
3.22194
3.10982
3.10233
3.09897
3.09498
3.11121
3.10257
3.0917
3.11603
3.1004
3.1109
3.11051
3.10311
3.09565
3.09942
3.10087
3.32604
3.32956
3.31753
3.31881
3.31891
3.33329
3.33234
3.3276
3.32966
3.31156
3.31532
3.34089
3.3315
3.33862
3.33659
3.33159
3.32166
3.22939
3.22025
3.22962
3.23913
3.23527
3.23439
3.232
3.22075
3.22812
3.24324
3.19653
3.2045
3.19538
3.19814
3.20156
3.19585
3.27599
3.25728
3.25838
3.26543
3.2837
3.27444
3.2519
3.26176
3.26628
3.27921
3.23838
3.2507
3.25883
3.26999
3.35196
3.35757
3.34513
3.34602
3.35834
3.34853
3.35607
3.35929
3.34754
3.35428
3.33945
3.34105
3.34433
3.33845
3.35884
3.36443
3.36229
3.3653
3.35176
3.35259
3.2446
3.24082
3.2396
3.23919
3.24974
3.24747
3.24008
3.24088
3.23636
3.26687
3.26383
3.24811
3.25955
3.26008
3.26719
3.25353
3.26098
3.25497
3.23649
3.22846
3.24729
3.25808
3.24194
3.20097
3.214
3.24225
3.25526
3.22938
3.21071
3.21624
3.1376
3.16649
3.15702
3.16652
3.14905
3.15058
3.15364
3.168
3.19647
3.18977
3.1896
3.18114
3.17065
3.13867
3.13478
3.10913
3.10242
3.10552
3.10473
3.10742
3.09641
3.09697
3.09995
3.10093
3.14319
3.14408
3.1584
3.14473
3.1545
3.15375
3.13901
3.17461
3.13285
3.13647
3.14621
3.15619
3.26381
3.26539
3.24476
3.25646
3.26902
3.23376
3.23975
3.25029
3.25941
3.24443
3.23492
3.25565
3.26522
3.27005
3.26276
3.27647
3.28753
3.27721
3.26988
3.28717
3.27216
3.28889
3.33762
3.33488
3.33058
3.34586
3.33231
3.33562
3.34868
3.3461
3.34236
3.34641
3.35262
3.35188
3.33875
3.34928
3.35148
3.35859
3.34464
3.35362
3.1251
3.1252
3.12832
3.12706
3.12885
3.12632
3.12177
3.12578
3.12938
3.12292
3.12794
3.12261
3.1335
3.12578
3.12639
3.1249
3.1268
3.25081
3.25537
3.22576
3.21544
3.25168
3.24593
3.23369
3.21637
3.21449
3.23827
3.25091
3.25636
3.23856
3.23668
3.24792
3.24901
3.29517
3.29829
3.30671
3.29011
3.31641
3.30496
3.28778
3.29371
3.30945
3.30634
3.3062
3.30165
3.30948
3.30189
3.2366
3.23206
3.27485
3.27298
3.24174
3.24507
3.26074
3.26956
3.24443
3.26302
3.28005
3.26837
3.25195
3.24273
3.28218
3.25091
3.25937
3.22448
3.2495
3.19268
3.1815
3.18613
3.164
3.23179
3.24704
3.2223
3.24098
3.22799
3.24072
3.22138
3.24688
3.23418
3.22096
3.20626
3.18335
3.20385
3.23881
3.22399
3.20782
3.20005
3.17579
3.18585
3.18772
3.19802
3.19903
3.17823
3.17491
3.17597
3.17237
3.18085
3.16636
3.16724
3.16303
3.16236
3.0964
3.09262
3.09037
3.08909
3.08032
3.08753
3.10532
3.08033
3.08777
3.09329
3.0834
3.10503
3.10866
3.10354
3.0963
3.09801
3.08809
3.08439
3.21842
3.20052
3.24166
3.2097
3.2383
3.24594
3.212
3.24247
3.26928
3.26521
3.24715
3.25797
3.33772
3.34319
3.32969
3.3387
3.32815
3.3221
3.31697
3.31971
3.32294
3.33151
3.34082
3.34192
3.33073
3.33931
3.33548
3.23284
3.22927
3.25583
3.25036
3.24121
3.24307
3.25782
3.26038
3.22222
3.22063
3.24741
3.23483
3.2465
3.23136
3.23593
3.24481
3.23579
3.216
3.22925
3.22048
3.19851
3.24877
3.25689
3.24972
3.25323
3.23377
3.25075
3.22355
3.21317
3.22343
3.21549
3.20572
3.22997
3.23616
3.22251
3.22708
3.2012
3.201
3.20744
3.22856
3.20464
3.20471
3.19691
3.18829
3.20886
3.21165
3.1829
3.20078
3.24432
3.24456
3.23658
3.25202
3.23863
3.22469
3.21975
3.26255
3.25688
3.26074
3.2272
3.22847
3.23152
3.25003
3.25469
3.22899
3.246
3.24248
3.26739
3.26921
3.26463
3.27954
3.26573
3.28293
3.28252
3.28838
3.28487
3.29146
3.28257
3.28074
3.2657
3.27914
3.29095
3.28658
3.27449
3.28685
3.28694
3.28311
3.27852
3.27501
3.28216
3.26931
3.24489
3.25604
3.24009
3.2645
3.2604
3.25207
3.2613
3.24349
3.298
3.30467
3.29641
3.30569
3.30715
3.28237
3.30564
3.29725
3.31543
3.29682
3.30703
3.30274
3.31581
3.31983
3.31887
3.31389
3.32494
3.29906
3.30201
3.31211
3.31311
3.31898
3.19909
3.20535
3.22245
3.22698
3.22321
3.21127
3.17959
3.18737
3.18172
3.19421
3.19549
3.21646
3.18244
3.18434
3.19572
3.29882
3.31043
3.29939
3.29205
3.28746
3.29285
3.30668
3.31456
3.31422
3.32215
3.3234
3.30797
3.31139
3.30082
3.31144
3.31667
3.31764
3.32094
3.31235
3.33021
3.32827
3.32681
3.32578
3.31961
3.31943
3.31806
3.32281
3.33576
3.33858
3.33882
3.33709
3.32263
3.32665
3.33114
3.3294
3.33567
3.33664
3.33637
3.3305
3.3339
3.33026
3.3383
3.34359
3.33895
3.33427
3.33938
3.34597
3.34173
3.35097
3.34686
3.33164
3.33083
3.33362
3.12636
3.12347
3.1287
3.14186
3.12979
3.15648
3.14906
3.14775
3.14965
3.1472
3.14634
3.13195
3.13211
3.12486
3.1424
3.34706
3.34886
3.33647
3.34423
3.32088
3.32175
3.34331
3.33659
3.34407
3.33568
3.3352
3.32567
3.32813
3.27929
3.2903
3.28552
3.27787
3.27406
3.28512
3.27403
3.26261
3.2658
3.26558
3.27801
3.29968
3.27861
3.26456
3.26746
3.30332
3.30272
3.28994
3.09821
3.09479
3.0968
3.09759
3.10428
3.09754
3.09961
3.1139
3.10632
3.11198
3.10533
3.30211
3.29883
3.29512
3.29411
3.29349
3.28635
3.30281
3.30558
3.3039
3.28298
3.29597
3.30101
3.3035
3.28202
3.2827
3.28992
3.29394
3.28677
3.28603
3.29821
3.15751
3.17021
3.1856
3.1722
3.15572
3.16092
3.16842
3.16129
3.1679
3.17954
3.16348
3.18406
3.19485
3.1378
3.15121
3.15244
3.18424
3.18905
3.14799
3.17853
3.17402
3.19425
3.18094
3.16978
3.13576
3.13923
3.14761
3.13472
3.09868
3.11309
3.12409
3.14426
3.10634
3.10542
3.11741
3.12429
3.1019
3.10608
3.11705
3.12496
3.11991
3.11648
3.11352
3.11503
3.11799
3.12186
3.12853
3.12318
3.1251
3.12444
3.1193
3.12452
3.12427
3.11985
3.12974
3.13102
3.12871
3.12227
3.12595
3.12684
3.12357
3.13091
3.1607
3.15126
3.16626
3.16455
3.1577
3.15711
3.16845
3.14376
3.13941
3.13966
3.1398
3.15126
3.1462
3.14165
3.13558
3.15295
3.14011
3.14443
3.14148
3.13686
3.32131
3.30484
3.3102
3.29956
3.3097
3.31481
3.29793
3.30383
3.29925
3.30219
3.29939
3.2881
3.31305
3.29132
3.29168
3.10967
3.10135
3.27739
3.28064
3.10547
3.10926
3.10207
3.1035
3.10965
3.11512
3.11445
3.30274
3.30482
3.19583
3.19833
3.16557
3.1764
3.28221
3.27911
3.27016
3.11881
3.11444
3.12122
3.13999
3.12587
3.1348
3.11244
3.11418
3.302
3.30519
3.2228
3.22011
3.25385
3.28148
3.26613
3.11359
3.12093
3.13152
3.13914
3.11611
3.12143
3.12569
3.1204
3.32164
3.32149
3.31433
3.16545
3.15773
3.16746
3.26054
3.24908
3.25027
3.27922
3.28578
3.19455
3.1845
3.3182
3.31872
3.32
3.13614
3.14659
3.13933
3.14279
3.19775
3.1882
3.18577
3.1722
3.27257
3.26168
3.13455
3.1374
3.32588
3.32312
3.32233
3.27714
3.27205
3.28072
3.26458
3.1859
3.17492
3.18587
3.31961
3.32209
3.14329
3.12785
3.15003
3.20972
3.21651
3.14849
3.14672
3.30461
3.29281
3.25549
3.25073
3.34542
3.33738
3.33896
3.33424
3.14654
3.14547
3.14901
3.14368
3.16453
3.16612
3.16983
3.168
3.32845
3.32663
3.2679
3.26071
3.16725
3.16189
3.16419
3.15871
3.31528
3.31818
3.26674
3.26549
3.26986
3.17466
3.16977
3.16732
3.22255
3.21251
3.21378
3.34245
3.34369
3.33208
3.33064
3.33827
3.28643
3.28084
3.16287
3.15122
3.16203
3.16517
3.17297
3.16388
3.21086
3.20425
3.33086
3.3313
3.32246
3.34772
3.34888
3.24543
3.24903
3.17309
3.17217
3.20315
3.19976
3.27551
3.27944
3.35783
3.35355
3.35079
3.35109
3.3393
3.34206
3.16274
3.17446
3.17064
3.3091
3.31188
3.34242
3.34114
3.20489
3.20326
3.21835
3.19643
3.20011
3.18825
3.18694
3.24706
3.2466
3.36095
3.35936
3.20026
3.19475
3.19614
3.31857
3.31132
3.30863
3.18791
3.18654
3.18222
3.3591
3.35607
3.25315
3.26176
3.2184
3.21575
3.20268
3.20041
3.22505
3.2283
3.21766
3.21442
3.23944
3.22642
3.21476
3.2222
3.24426
3.24281
3.22517
3.21762
3.2957
3.31903
3.29481
3.31008
3.19972
3.19998
3.20624
3.20271
3.20195
3.19938
3.2022
3.18759
3.19144
3.19181
3.36778
3.36583
3.36378
3.33848
3.34266
3.34678
3.35124
3.34792
3.3459
3.18376
3.1838
3.18801
3.18657
3.21394
3.20959
3.2079
3.20609
3.21082
3.19729
3.20818
3.21003
3.21087
3.20808
3.19866
3.19893
3.25084
3.26115
3.25289
3.28957
3.27725
3.28969
3.28271
3.22371
3.23221
3.27368
3.27863
3.26946
3.26415
3.28857
3.29126
3.23918
3.24333
3.24489
3.24139
3.24263
3.24967
3.23945
3.23733
3.23602
3.25225
3.2517
3.26835
3.25288
3.26354
3.25664
3.24489
3.25138
3.34129
3.34682
3.35146
3.35935
3.36036
3.35372
3.35544
3.17113
3.17517
3.18131
3.17787
3.18243
3.27598
3.27436
3.28913
3.2946
3.29475
3.30362
3.29445
3.31155
3.30333
3.29899
3.29009
3.28749
3.32574
3.32381
3.30402
3.32731
3.31752
3.31279
3.30608
3.32178
3.3119
3.30262
3.32482
3.19229
3.18991
3.19093
3.20148
3.2007
3.20334
3.1921
3.20187
3.20118
3.19817
3.19616
3.17964
3.18989
3.18787
3.18551
3.18211
3.35178
3.35456
3.35982
3.36069
3.34856
3.3602
3.35594
3.35686
3.34754
3.34843
3.35035
3.34531
3.35553
3.35197
3.36537
3.36981
3.35929
3.34978
3.36344
3.35607
3.21752
3.22422
3.23802
3.23052
3.25535
3.24709
3.16987
3.17752
3.1684
3.18044
3.18515
3.19622
3.20634
3.20343
3.20234
3.18955
3.19268
3.21112
3.21986
3.19439
3.19592
3.19608
3.20016
3.32996
3.32815
3.34316
3.34932
3.35525
3.3514
3.34708
3.32675
3.34415
3.34553
3.33676
3.33524
3.33371
3.33895
3.33891
3.34897
3.32839
3.32288
3.31387
3.33481
3.31793
3.31996
3.316
3.33626
3.33686
3.3128
3.30487
3.27397
3.28564
3.28878
3.27062
3.28734
3.29433
3.27619
3.32416
3.32971
3.31737
3.31005
3.31793
3.31082
3.3367
3.33848
3.32582
3.32231
3.31348
3.31257
3.32423
3.32284
3.1646
3.17226
3.15891
3.33688
3.33527
3.35398
3.34851
3.34758
3.35141
3.31077
3.32295
3.33175
3.33135
3.32601
3.32164
3.31045
3.32932
3.3321
3.35124
3.35375
3.34869
3.35498
3.35021
3.35143
3.34816
3.35328
3.36045
3.35398
3.352
3.35295
3.34905
3.36056
3.36099
3.35281
3.25702
3.26625
3.26925
3.26586
3.27186
3.26866
3.28638
3.28314
3.27088
3.29121
3.3005
3.27227
3.27271
3.28407
3.28084
3.31549
3.27963
3.28797
3.30821
3.29544
3.29366
3.28851
3.28136
3.17595
3.18605
3.19254
3.18583
3.21731
3.2072
3.22054
3.20892
3.20269
3.22244
3.2362
3.22224
3.22942
3.23721
3.23746
3.21991
3.21789
3.20498
3.2119
3.20328
3.23729
3.23581
3.22074
3.21648
3.16149
3.16762
3.16387
3.16396
3.16646
3.16503
3.16498
3.16946
3.17534
3.17389
3.17446
3.16199
3.16323
3.22823
3.23314
3.26839
3.28464
3.25202
3.25047
3.26545
3.26087
3.26132
3.25375
3.34611
3.33714
3.33026
3.34598
3.35196
3.35786
3.34914
3.34532
3.34517
3.35566
3.34867
3.33965
3.33542
3.32639
3.32329
3.32317
3.32377
3.2723
3.29037
3.30264
3.30627
3.30779
3.28852
3.3001
3.28818
3.33568
3.34378
3.3228
3.32719
3.33683
3.32953
3.19372
3.18164
3.19356
3.19215
3.18911
3.22042
3.23575
3.21355
3.20853
3.21115
3.24416
3.24369
3.15383
3.16245
3.15495
3.15704
3.16469
3.17861
3.18327
3.18335
3.1996
3.17536
3.17433
3.19168
3.17124
3.17586
3.1752
3.17265
3.18358
3.18858
3.22146
3.23774
3.22037
3.2011
3.20089
3.19577
3.18946
3.22448
3.23091
3.19985
3.19901
3.15404
3.15121
3.15101
3.15748
3.15939
3.15461
3.30623
3.2953
3.29175
3.28277
3.25746
3.27387
3.27473
3.28256
3.28376
3.25509
3.24659
3.26584
3.2665
3.26349
3.2497
3.25215
3.26233
3.2536
3.2511
3.24619
3.26723
3.26869
3.34616
3.34063
3.3389
3.32841
3.32851
3.32713
3.33674
3.32674
3.33713
3.33411
3.32395
3.33026
3.32501
3.32426
3.34234
3.33855
3.33118
3.33827
3.34714
3.34208
3.33372
3.34289
3.33969
3.34341
3.33894
3.34396
3.34129
3.3478
3.34177
3.34135
3.34587
3.34176
3.33727
3.34054
3.34898
3.34468
3.3544
3.34599
3.33918
3.35128
3.34292
3.34268
3.34386
3.33751
3.34719
3.34389
3.25131
3.24689
3.2479
3.24645
3.24302
3.22845
3.22399
3.16195
3.16113
3.18073
3.17945
3.16985
3.16553
3.1623
3.15058
3.15861
3.15798
3.16176
3.16255
3.16311
3.16473
3.1671
3.16061
3.17169
3.17234
3.16997
3.17536
3.17579
3.28662
3.28015
3.27172
3.24051
3.24441
3.25371
3.23712
3.31529
3.31324
3.31933
3.32332
3.31629
3.28522
3.30006
3.29997
3.30332
3.30316
3.30328
3.30418
3.14555
3.14723
3.14877
3.15421
3.15495
3.15603
3.15335
3.15191
3.25766
3.26848
3.29066
3.2836
3.30222
3.28837
3.30822
3.2816
3.26873
3.27005
3.27949
3.32337
3.31711
3.32829
3.32484
3.33424
3.33667
3.32147
3.3265
3.32923
3.34098
3.34003
3.33683
3.33363
3.32671
3.31249
3.31761
3.31491
3.31624
3.30681
3.31536
3.30712
3.31939
3.31934
3.17096
3.1655
3.20018
3.18132
3.16637
3.1662
3.198
3.20188
3.17524
3.17483
3.17282
3.1824
3.18477
3.19779
3.17297
3.16468
3.17996
3.17762
3.19664
3.21324
3.19521
3.16567
3.16337
3.16152
3.16916
3.15795
3.16202
3.17979
3.17528
3.1403
3.13993
3.14203
3.1411
3.13963
3.14371
3.14621
3.13883
3.14507
3.15065
3.14899
3.14659
3.15141
3.14604
3.14631
3.14656
3.33449
3.33059
3.33317
3.34013
3.32624
3.34023
3.32862
3.33463
3.22071
3.19827
3.20566
3.22488
3.23784
3.21774
3.20578
3.20519
3.27429
3.27067
3.2756
3.26467
3.25758
3.32051
3.32611
3.32762
3.13798
3.14152
3.13841
3.13855
3.15218
3.13528
3.13666
3.14881
3.14726
3.14353
3.14353
3.14115
3.14505
3.13416
3.13422
3.14184
3.14061
3.14463
3.14409
3.14064
3.1402
3.15749
3.15709
3.14261
3.15739
3.15367
3.14567
3.14781
3.14628
3.15147
3.14779
3.15024
3.14776
3.22157
3.2173
3.19904
3.19135
3.24043
3.24486
3.21021
3.21456
3.22626
3.22174
3.2561
3.24932
3.24198
3.23307
3.21974
3.24211
3.25096
3.25449
3.24019
3.24398
3.23245
3.22768
3.21622
3.25456
3.25126
3.13187
3.13279
3.12656
3.13934
3.14191
3.15435
3.14818
3.14607
3.14891
3.15287
3.14241
3.14187
3.3052
3.30331
3.3127
3.30762
3.31291
3.31645
3.31249
3.31591
3.31374
3.31524
3.30735
3.32857
3.31704
3.33218
3.32487
3.32631
3.32359
3.19494
3.19078
3.1892
3.18396
3.24189
3.25085
3.25406
3.26354
3.24847
3.25557
3.23994
3.23781
3.23174
3.26143
3.26281
3.24079
3.23087
3.2357
3.23094
3.24699
3.26258
3.25206
3.24061
3.27677
3.2739
3.26639
3.26223
3.24929
3.26018
3.26042
3.2625
3.26158
3.24456
3.28857
3.28006
3.29391
3.26779
3.2712
3.29035
3.27465
3.2748
3.29473
3.27854
3.29304
3.29629
3.27623
3.30141
3.30187
3.29333
3.30534
3.30047
3.30735
3.32002
3.32058
3.33071
3.3214
3.32537
3.31204
3.3246
3.31709
3.3303
3.33126
3.32574
3.32834
3.33435
3.3326
3.33059
3.325
3.31767
3.32477
3.32076
3.12933
3.13153
3.13207
3.12715
3.13175
3.13338
3.13129
3.13713
3.13203
3.1317
3.13525
3.13701
3.13538
3.13928
3.13284
3.13614
3.13628
3.13826
3.13448
3.13639
3.13001
3.12969
3.1325
3.13678
3.13807
3.14114
3.13959
3.21416
3.23273
3.23422
3.20276
3.19582
3.21034
3.22423
3.2106
3.25733
3.26797
3.25927
3.27023
3.27064
3.26925
3.2852
3.30095
3.27165
3.25915
3.27885
3.26856
3.15951
3.16261
3.16815
3.15454
3.16866
3.16925
3.15898
3.15643
3.19088
3.19436
3.17434
3.21084
3.20934
3.15919
3.17236
3.16017
3.20252
3.18149
3.20308
3.17675
3.17072
3.1605
3.18388
3.17282
3.16991
3.19277
3.17374
3.19597
3.16626
3.16955
3.17201
3.20027
3.18957
3.16327
3.15798
3.19417
3.18498
3.13794
3.13171
3.14105
3.13459
3.1357
3.12465
3.13309
3.12155
3.13488
3.13678
3.13116
3.13098
3.13984
3.13072
3.14432
3.28437
3.28732
3.28871
3.30344
3.31082
3.30513
3.31207
3.29942
3.29053
3.32282
3.31974
3.32767
3.33366
3.32254
3.31822
3.32127
3.3162
3.1659
3.16187
3.14944
3.16387
3.1655
3.17125
3.15881
3.17294
3.17092
3.23668
3.22457
3.22542
3.20817
3.20606
3.19789
3.17379
3.20069
3.194
3.192
3.15628
3.1888
3.17645
3.29895
3.26622
3.29017
3.27602
3.26696
3.21902
3.23887
3.23105
3.21804
3.22346
3.2041
3.22913
3.23684
3.22318
3.21847
3.23235
3.22525
3.23105
3.23489
3.27776
3.28378
3.26521
3.26456
3.2802
3.26734
3.16323
3.1694
3.16735
3.13356
3.14723
3.13295
3.13974
3.20167
3.188
3.18123
3.16739
3.18703
3.18434
3.3054
3.29233
3.30949
3.31843
3.3142
3.30911
3.31452
3.32052
3.31524
3.31263
3.31947
3.31467
3.31989
3.31457
3.31801
3.32695
3.12596
3.11962
3.11841
3.11717
3.12045
3.12066
3.11838
3.11599
3.11645
3.1123
3.11923
3.12279
3.11952
3.12848
3.13497
3.12081
3.12513
3.12368
3.12329
3.12782
3.13376
3.11883
3.11995
3.1252
3.12656
3.12505
3.12337
3.12541
3.12609
3.12588
3.11802
3.12055
3.11325
3.11724
3.12602
3.1182
3.11487
3.11044
3.12076
3.12159
3.1194
3.11862
3.11869
3.11581
3.12284
3.12293
3.12533
3.1212
3.12405
3.12925
3.1334
3.21213
3.22571
3.22446
3.23468
3.23797
3.24112
3.25264
3.2579
3.25955
3.25128
3.26929
3.26476
3.1661
3.17173
3.1581
3.16307
3.16178
3.14909
3.15464
3.2031
3.20285
3.20102
3.2087
3.18605
3.18528
3.24711
3.25857
3.25022
3.29467
3.30085
3.30133
3.27521
3.28113
3.27944
3.30408
3.30007
3.29755
3.29801
3.3157
3.31438
3.30634
3.29555
3.29818
3.30558
3.30203
3.29204
3.28909
3.28905
3.27908
3.29257
3.29017
3.29253
3.29385
3.28221
3.28017
3.10925
3.1121
3.10959
3.10969
3.11546
3.11875
3.12131
3.11177
3.11323
3.11707
3.11521
3.11511
3.11742
3.10926
3.10626
3.11305
3.11188
3.10501
3.10098
3.10803
3.10969
3.11233
3.11115
3.11517
3.10952
3.11712
3.10587
3.10719
3.10974
3.11112
3.11197
3.11401
3.1192
3.11334
3.1256
3.12375
3.13937
3.13936
3.12979
3.12031
3.12305
3.15004
3.15815
3.12868
3.14913
3.13199
3.13217
3.12303
3.10724
3.10527
3.11822
3.10609
3.11667
3.10302
3.11111
3.10052
3.11622
3.11519
3.10757
3.10224
3.22134
3.22261
3.23348
3.26481
3.26611
3.25675
3.25209
3.24346
3.30632
3.29731
3.29691
3.25964
3.27099
3.2645
3.28988
3.27144
3.29602
3.29072
3.2752
3.27067
3.30929
3.29748
3.29112
3.29257
3.28086
3.28915
3.27419
3.17606
3.14687
3.16677
3.14908
3.15417
3.14512
3.15513
3.14885
3.16121
3.1712
3.13921
3.13725
3.19014
3.19367
3.19616
3.16227
3.15484
3.20813
3.19796
3.20574
3.18203
3.19128
3.18646
3.1787
3.18116
3.20275
3.22689
3.23051
3.20154
3.20771
3.22244
3.21503
3.21334
3.20711
3.29758
3.29144
3.2895
3.29528
3.29274
3.29434
3.30609
3.30157
3.30386
3.29962
3.14173
3.13272
3.13882
3.11019
3.12751
3.12087
3.12091
3.12077
3.12732
3.12207
3.12448
3.11105
3.1232
3.11852
3.12351
3.12371
3.1078
3.11328
3.11783
3.11724
3.10947
3.10855
3.10814
3.11257
3.10633
3.10365
3.09694
3.10074
3.09998
3.09677
3.09195
3.10148
3.10136
3.10068
3.1009
3.10082
3.10524
3.09595
3.10829
3.10657
3.10268
3.09997
3.22764
3.22553
3.25883
3.26287
3.2635
3.24937
3.24357
3.26599
3.26379
3.09325
3.09435
3.11645
3.11218
3.10148
3.13915
3.1286
3.10566
3.10111
3.12799
3.11417
3.11587
3.11808
3.08935
3.10588
3.10935
3.10827
3.10446
3.09537
3.0982
3.1075
3.10695
3.10397
3.1052
3.10309
3.17415
3.18387
3.15599
3.13653
3.14565
3.15889
3.15052
3.18219
3.11169
3.1072
3.1101
3.1126
3.10957
3.10924
3.11006
3.10397
3.10734
3.10344
3.10041
3.1046
3.09952
3.108
3.1053
3.09659
3.09466
3.30379
3.2993
3.30786
3.30166
3.31383
3.31055
3.3059
3.29727
3.30606
3.29946
3.3044
3.2908
3.28777
3.2845
3.27664
3.27724
3.27161
3.26236
3.25819
3.26405
3.2777
3.2866
3.28339
3.29959
3.28994
3.28896
3.28536
3.30104
3.30127
3.23481
3.2485
3.23809
3.22733
3.25235
3.26129
3.23711
3.21274
3.23736
3.23647
3.23815
3.21956
3.23568
3.22214
3.23283
3.22929
3.24326
3.23477
3.24087
3.29287
3.30065
3.30026
3.30721
3.30244
3.30755
3.31125
3.31112
3.30753
3.31359
3.30782
3.30048
3.30038
3.30747
3.29849
3.31341
3.31201
3.28927
3.28557
3.27326
3.29456
3.28825
3.27867
3.28059
3.26779
3.24739
3.26085
3.24651
3.26216
3.27224
3.26943
3.26786
3.2718
3.24506
3.2332
3.25996
3.25615
3.24996
3.26738
3.27324
3.27624
3.2608
3.27556
3.2568
3.25901
3.25799
3.25245
3.24632
3.23582
3.27355
3.25833
3.25077
3.24263
3.24883
3.2547
3.2435
3.24407
3.23147
3.25874
3.25365
3.12976
3.12524
3.12913
3.12036
3.12956
3.10825
3.10125
3.13348
3.11785
3.136
3.1269
3.1206
3.14099
3.11739
3.11576
3.117
3.11079
3.10849
3.11112
3.11723
3.11651
3.30769
3.30759
3.30873
3.29828
3.30473
3.3149
3.30003
3.30514
3.31135
3.30957
3.32361
3.32751
3.32736
3.32022
3.32148
3.31779
3.31426
3.32328
3.31641
3.31978
3.31247
3.31231
3.30274
3.3136
3.30304
3.30946
3.31179
3.31111
3.31901
3.31559
3.3154
3.3078
3.28661
3.28694
3.27503
3.29637
3.29106
3.28209
3.29528
3.279
3.28903
3.28209
3.27175
3.29744
3.2955
3.28309
3.29464
3.28319
3.23513
3.24661
3.24032
3.26419
3.25326
3.27627
3.273
3.26066
3.26332
3.3171
3.31732
3.31426
3.32189
3.32481
3.32068
3.31438
3.32156
3.31826
3.29168
3.29571
3.29811
3.29293
3.29979
3.30242
3.31802
3.32877
3.32995
3.32241
3.31328
3.30938
3.32249
3.31887
3.32911
3.32747
3.33273
3.33787
3.33561
3.31915
3.31159
3.21709
3.21287
3.21037
3.1925
3.21042
3.20578
3.21833
3.23134
3.22754
3.1897
3.20445
3.21489
3.21396
3.20362
3.20745
3.2144
3.2205
3.2244
3.22104
3.22077
3.19382
3.19049
3.1856
3.14059
3.14055
3.1329
3.13503
3.13702
3.13764
3.13808
3.13018
3.14333
3.14461
3.14804
3.1528
3.14551
3.1589
3.15801
3.15459
3.1643
3.15329
3.14824
3.14862
3.15523
3.17976
3.1673
3.16592
3.17443
3.19463
3.16734
3.18901
3.15714
3.1609
3.26861
3.26
3.26588
3.27366
3.25855
3.25122
3.26412
3.25611
3.27878
3.26827
3.17715
3.17094
3.1747
3.18505
3.18663
3.18098
3.17782
3.19988
3.18758
3.18559
3.18025
3.20084
3.19898
3.16822
3.1683
3.1686
3.16873
3.16274
3.17024
3.1588
3.16003
3.16906
3.1671
3.16422
3.16184
3.16213
3.16383
3.15744
3.33607
3.35125
3.33849
3.34793
3.34012
3.34695
3.33959
3.34689
3.34407
3.33741
3.33705
3.29636
3.30877
3.31286
3.3174
3.31842
3.32421
3.32556
3.32044
3.32622
3.32362
3.32221
3.32239
3.32425
3.312
3.32535
3.32387
3.31329
3.33086
3.31887
3.34175
3.33163
3.32754
3.34393
3.33405
3.32911
3.32695
3.32833
3.33955
3.332
3.33275
3.32729
3.32441
3.32374
3.33005
3.16416
3.16605
3.16078
3.15943
3.15913
3.1646
3.17166
3.17471
3.16295
3.17341
3.19165
3.18971
3.19836
3.19988
3.19712
3.19032
3.19619
3.18577
3.20212
3.20057
3.31515
3.31943
3.31142
3.30449
3.32067
3.31095
3.30562
3.29688
3.32379
3.32425
3.31997
3.32099
3.33324
3.32864
3.32678
3.32845
3.32206
3.31633
3.33436
3.3376
3.33285
3.3297
3.33169
3.32367
3.33383
3.3437
3.34307
3.35063
3.35487
3.34737
3.35516
3.34871
3.34343
3.3147
3.30337
3.30269
3.31368
3.31628
3.31388
3.32896
3.18296
3.18185
3.18937
3.19549
3.19239
3.20122
3.19684
3.19237
3.17767
3.17197
3.17933
3.18845
3.17341
3.17692
3.16306
3.17523
3.18553
3.19782
3.20395
3.19319
3.18761
3.20546
3.2035
3.21179
3.21343
3.20921
3.21114
3.34424
3.36152
3.34993
3.36463
3.36199
3.3549
3.35249
3.36002
3.35715
3.18
3.1831
3.18034
3.18569
3.30981
3.32722
3.31722
3.3139
3.3304
3.26988
3.26252
3.24767
3.27258
3.27477
3.34005
3.34033
3.33789
3.33475
3.33164
3.34421
3.34606
3.34666
3.24322
3.24042
3.23696
3.25581
3.24129
3.24215
3.26079
3.25863
3.23071
3.23949
3.25721
3.26104
3.26139
3.22962
3.21292
3.21766
3.23205
3.23424
3.22251
3.21401
3.21502
3.20576
3.20851
3.20666
3.20227
3.35163
3.36426
3.35708
3.36435
3.35957
3.36767
3.36888
3.35909
3.35847
3.35295
3.35047
3.26186
3.26519
3.2656
3.27791
3.28056
3.28938
3.27327
3.27101
3.17548
3.17245
3.17514
3.17771
3.17326
3.17111
3.16789
3.16913
3.17025
3.17387
3.20135
3.18417
3.18162
3.17849
3.1707
3.17341
3.16602
3.16901
3.1622
3.1705
3.16628
3.17217
3.16688
3.16563
3.17152
3.2628
3.26369
3.27087
3.26678
3.28218
3.28463
3.26323
3.26459
3.28128
3.27703
3.27502
3.27524
3.28983
3.2873
3.286
3.27516
3.28859
3.2882
3.31718
3.32242
3.32292
3.3331
3.32628
3.32982
3.33051
3.32334
3.31989
3.32055
3.32169
3.32094
3.31846
3.31777
3.32131
3.32025
3.32153
3.32275
3.32645
3.31828
3.31624
3.32552
3.32717
3.32697
3.32543
3.33265
3.3236
3.11295
3.11286
3.11775
3.1097
3.10686
3.11992
3.11924
3.11612
3.113
3.31322
3.31601
3.31957
3.30706
3.31414
3.31217
3.30779
3.31115
3.12553
3.13202
3.12248
3.13162
3.12815
3.12624
3.12051
3.16415
3.14162
3.14589
3.16008
3.16455
3.15861
3.14475
3.13608
3.15674
3.16949
3.27842
3.28619
3.29814
3.29738
3.27868
3.34716
3.34419
3.34562
3.32897
3.33238
3.32602
3.34003
3.33623
3.2021
3.19387
3.19425
3.19999
3.20249
3.19566
3.19507
3.19669
3.19392
3.19384
3.19855
3.20243
3.20152
3.20921
3.20551
3.20854
3.21374
3.21964
3.20746
3.22175
3.21751
3.22181
3.2193
3.21722
3.22496
3.22328
3.23258
3.23566
3.29109
3.29184
3.28372
3.28597
3.29796
3.30747
3.30309
3.30911
3.3356
3.32656
3.33697
3.33644
3.33166
3.32461
3.32011
3.3265
3.3272
3.32826
3.33087
3.3293
3.33552
3.31916
3.32991
3.34137
3.34101
3.33331
3.33071
3.32185
3.3341
3.32989
3.20023
3.18924
3.19374
3.19901
3.34227
3.33591
3.35044
3.3419
3.34232
3.34658
3.34103
3.34846
3.35529
3.34959
3.33642
3.34257
3.34191
3.35153
3.35288
3.35142
3.35385
3.34503
3.35558
3.36187
3.36252
3.35582
3.35388
3.35819
3.35483
3.26155
3.24345
3.24092
3.23713
3.30782
3.31764
3.34768
3.34989
3.35
3.35047
3.35472
3.35789
3.35418
3.3486
3.35671
3.34672
3.24668
3.24966
3.23259
3.24154
3.21249
3.2186
3.2324
3.22853
3.22617
3.22398
3.29825
3.30459
3.28374
3.28557
3.29392
3.30061
3.28869
3.30016
3.30149
3.31451
3.30294
3.3092
3.3015
3.30896
3.17815
3.18596
3.19314
3.19449
3.19658
3.19422
3.19998
3.1975
3.1943
3.19217
3.18423
3.1817
3.18316
3.18637
3.18961
3.17832
3.17583
3.18678
3.19177
3.17763
3.17723
3.17034
3.17104
3.1517
3.15292
3.16056
3.15863
3.16035
3.14914
3.15287
3.16109
3.16434
3.15699
3.16178
3.33977
3.34057
3.32982
3.34048
3.33788
3.26922
3.27923
3.31263
3.28964
3.28739
3.31853
3.31527
3.30406
3.29054
3.31116
3.30835
3.20046
3.22273
3.21069
3.19683
3.19936
3.21375
3.21702
3.22808
3.23472
3.19498
3.19936
3.21043
3.20014
3.20319
3.19873
3.32037
3.31542
3.29827
3.30597
3.31508
3.32067
3.31382
3.33489
3.32853
3.34269
3.32568
3.33228
3.33183
3.33225
3.32798
3.33241
3.33833
3.33244
3.3349
3.33735
3.33946
3.33941
3.34626
3.34541
3.33934
3.3352
3.33221
3.33465
3.33194
3.34089
3.33353
3.33618
3.33367
3.34599
3.32892
3.345
3.33933
3.33254
3.3391
3.33823
3.33554
3.33146
3.33041
3.3416
3.33803
3.34156
3.33599
3.33747
3.34576
3.34158
3.34356
3.34214
3.32439
3.321
3.31693
3.32355
3.30999
3.3128
3.31751
3.33145
3.33044
3.32926
3.27017
3.28538
3.28252
3.2678
3.26886
3.26128
3.25894
3.2844
3.27776
3.27827
3.26987
3.16281
3.18528
3.18452
3.19835
3.18927
3.19183
3.19899
3.20896
3.2136
3.22197
3.16063
3.16001
3.14608
3.14459
3.15691
3.15932
3.14997
3.15026
3.15205
3.16157
3.20182
3.20618
3.28441
3.28896
3.30392
3.29183
3.30076
3.30369
3.29435
3.28436
3.28233
3.3
3.30053
3.14728
3.13525
3.13855
3.14971
3.14941
3.13776
3.15237
3.14153
3.15244
3.15405
3.13228
3.14078
3.13944
3.13527
3.30821
3.31105
3.30473
3.20959
3.21158
3.20437
3.21136
3.2208
3.23806
3.22829
3.22584
3.19214
3.1973
3.21694
3.20742
3.3362
3.33922
3.33029
3.32631
3.32527
3.33547
3.33337
3.33233
3.32368
3.32686
3.33405
3.32708
3.31862
3.31561
3.31461
3.31054
3.13483
3.14066
3.13992
3.14186
3.13635
3.14066
3.1382
3.13773
3.13574
3.12824
3.14036
3.13729
3.13509
3.2142
3.24284
3.22256
3.23815
3.22018
3.22358
3.23355
3.25551
3.25473
3.30295
3.32027
3.31304
3.30342
3.32002
3.30568
3.2967
3.27949
3.29904
3.29808
3.28931
3.28434
3.29765
3.28562
3.28311
3.30304
3.29554
3.29876
3.29537
3.28523
3.13198
3.14717
3.14843
3.15384
3.1376
3.12905
3.14182
3.13856
3.13297
3.13879
3.30968
3.30964
3.31624
3.32588
3.31861
3.32227
3.32735
3.32845
3.32098
3.32467
3.32146
3.15662
3.14341
3.12507
3.14344
3.14501
3.1436
3.15014
3.1443
3.1483
3.13788
3.23655
3.24808
3.20998
3.21329
3.17735
3.20235
3.207
3.19877
3.19848
3.1802
3.19288
3.1745
3.2028
3.16511
3.15035
3.1514
3.15142
3.18598
3.15096
3.15721
3.16592
3.17686
3.26846
3.28678
3.28448
3.28213
3.26988
3.2888
3.27872
3.29182
3.11227
3.11435
3.11513
3.11879
3.11981
3.11866
3.11817
3.11946
3.11825
3.11665
3.11919
3.11812
3.12297
3.14104
3.12314
3.13139
3.13267
3.12934
3.13104
3.12513
3.13004
3.12331
3.13569
3.12843
3.13015
3.30342
3.31248
3.30706
3.31081
3.31066
3.31122
3.12578
3.11151
3.30682
3.30429
3.31046
3.3078
3.29989
3.30516
3.30313
3.30057
3.29695
3.29799
3.15936
3.20159
3.19291
3.2082
3.18018
3.21327
3.19447
3.20758
3.18855
3.18621
3.17295
3.17788
3.22603
3.23836
3.18008
3.17021
3.18305
3.16979
3.17691
3.15967
3.15373
3.28308
3.2908
3.15413
3.14403
3.15309
3.13815
3.1304
3.1351
3.14276
3.14446
3.13637
3.13849
3.12936
3.12207
3.10762
3.10911
3.10437
3.10634
3.1062
3.09336
3.08975
3.10063
3.09309
3.09314
3.09593
3.09588
3.08708
3.08984
3.09823
3.09552
3.08361
3.09512
3.09741
3.09498
3.0953
3.09524
3.09969
3.0948
3.10296
3.10664
3.10381
3.10886
3.12871
3.14052
3.15042
3.14632
3.13225
3.13202
3.1981
3.20624
3.21614
3.19949
3.18477
3.11106
3.10326
3.10859
3.10881
3.10711
3.10764
3.10296
3.10393
3.10908
3.10771
3.10945
3.1089
3.10758
3.10232
3.10812
3.11022
3.11204
3.09617
3.11418
3.107
3.10667
3.10068
3.11056
3.10944
3.10581
3.22232
3.28033
3.28571
3.2816
3.2715
3.29209
3.27692
3.27956
3.29064
3.28296
3.29424
3.29103
3.28889
3.29108
3.21601
3.23455
3.24951
3.24746
3.2269
3.23878
3.22105
3.22977
3.21678
3.2081
3.20565
3.22019
3.216
3.20377
3.21177
3.28167
3.2885
3.28735
3.28879