/*--------------------------------*- C++ -*----------------------------------*\
| =========                 |                                                 |
| \\      /  F ield         | OpenFOAM: The Open Source CFD Toolbox           |
|  \\    /   O peration     | Version:  v1612+                                |
|   \\  /    A nd           | Web:      www.OpenFOAM.com                      |
|    \\/     M anipulation  |                                                 |
\*---------------------------------------------------------------------------*/
FoamFile
{
    version     2.0;
    format      ascii;
    class       volVectorField;
    location    "200";
    object      wallShearStress;
}
// * * * * * * * * * * * * * * * * * * * * * * * * * * * * * * * * * * * * * //

dimensions      [0 2 -2 0 0 0 0];

internalField   uniform (0 0 0);

boundaryField
{
    WALL
    {
        type            calculated;
        value           nonuniform List<vector> 
1505
(
(0.00904291 -0.0107348 0.0046662)
(0.00779811 -0.0103717 0.00578188)
(0.0111295 -0.00848652 0.000917603)
(0.00940867 -0.00915218 0.00125084)
(0.0144101 0.00668029 0.00897021)
(0.0172935 0.00543517 0.00920861)
(0.0102155 -0.00641546 0.0095285)
(0.0100067 -0.00640804 0.0104752)
(0.0107574 -0.00643229 0.00779524)
(0.0111156 -0.00594229 0.00951663)
(0.0164303 0.00916705 0.00992979)
(0.0133694 0.00876921 0.00994307)
(0.0154811 -0.00125085 0.0140677)
(0.0174458 -0.00253507 0.0155765)
(0.00838706 -0.0121802 0.0169668)
(0.00950573 -0.0116424 0.0172887)
(0.0210693 0.00179943 0.00201137)
(0.0213854 0.00159021 0.00195941)
(0.0196582 0.00493014 0.00535494)
(0.0179679 0.00427077 0.00601215)
(0.0127776 0.00539031 0.0100853)
(0.0152388 0.00579006 0.00909567)
(0.00786938 0.00441713 0.011043)
(0.0066784 0.00358121 0.00976281)
(0.00534191 0.00105526 0.00881769)
(0.00559766 0.00209874 0.00922308)
(0.0222419 0.0107668 0.00782217)
(0.0229184 0.0098956 0.00495714)
(0.0203544 -0.00085118 0.0162482)
(0.0245347 -0.000628573 0.0162103)
(0.0199474 0.00192298 0.0147781)
(0.0178426 0.00147855 0.0151095)
(0.0134726 -0.00546452 0.0155113)
(0.014869 -0.00503621 0.0156394)
(0.0109936 -0.00746947 0.00678296)
(0.0113961 -0.00750624 0.00597021)
(0.0139667 -0.00622157 0.0159625)
(0.0161294 -0.00726026 0.0176455)
(0.022818 -0.00198812 0.0150202)
(0.0206103 -0.00251186 0.0156654)
(0.0140749 0.00333423 0.00830921)
(0.0129214 0.00350514 0.00983258)
(0.0180744 0.00408143 0.00599079)
(0.0168643 0.00524964 0.00786628)
(0.0153843 0.0010562 0.00741713)
(0.0136963 0.00226911 0.00864737)
(0.0145949 0.00803302 0.0105133)
(0.0156608 0.0074077 0.00883898)
(0.0101543 0.00226853 0.0102868)
(0.0121518 0.00222488 0.00968217)
(0.0201301 0.00872263 0.00638587)
(0.0217421 0.00683653 0.00585779)
(0.00893078 -0.0108893 0.0158865)
(0.00816011 -0.0112778 0.015427)
(0.00819895 -0.0126137 0.017092)
(0.0120646 -0.00334692 0.0130653)
(0.011453 -0.00420699 0.0121116)
(0.0246839 0.0086853 0.00477059)
(0.0247358 0.00664247 0.00299988)
(0.0128411 0.00933647 0.0102579)
(0.0137972 0.0102598 0.00949871)
(0.0144531 -0.00604844 0.00811233)
(0.0235414 -0.00447403 0.0145905)
(0.0226309 -0.00387215 0.015272)
(0.00533083 -0.0130033 0.0115004)
(0.00426676 -0.0135362 0.0090435)
(0.020497 0.00119288 0.00260098)
(0.0201641 0.00126982 0.00261102)
(0.0192635 -4.13839e-05 0.0018847)
(0.020086 -0.000157599 0.00174215)
(0.0198312 0.00193196 0.0028384)
(0.0194988 -0.00102048 0.00179504)
(0.0134944 0.00938301 0.0102792)
(0.0109951 0.00731953 0.0112862)
(0.0127189 0.00950463 0.010347)
(0.0131613 0.00832783 0.0120476)
(0.0127882 0.00889229 0.0124334)
(0.0102204 0.00740165 0.0110579)
(0.00850572 -0.0107025 0.00468058)
(0.00944139 -0.0100431 0.00530434)
(0.00850028 -0.0101298 0.00606396)
(0.00843072 -0.00986473 0.0049596)
(0.00848192 -0.0104524 0.00554383)
(0.0092478 -0.0097341 0.00483003)
(0.00906775 -0.0102993 0.00580059)
(0.00819582 -0.0106235 0.00662733)
(0.010682 -0.00990196 0.00232753)
(0.0123575 -0.00880113 0.00114167)
(0.0115329 -0.00854356 0.00114352)
(0.0113597 -0.00938699 0.00128094)
(0.0101979 -0.00919876 0.00182248)
(0.0118004 -0.00934665 0.00131344)
(0.0106376 -0.0093722 0.00163225)
(0.00973779 -0.0096394 0.00174448)
(0.0230985 -0.000388351 0.0121791)
(0.0248101 0.00142573 0.0126481)
(0.0233704 0.000616675 0.011298)
(0.0237088 0.000635889 0.0131128)
(0.0249431 0.00174196 0.0135815)
(0.00558346 -0.0035283 0.00942894)
(0.00719054 -0.00452909 0.00993128)
(0.00665484 -0.00385377 0.00896206)
(0.00522986 -0.00296066 0.00952289)
(0.00504484 -0.00257159 0.00896284)
(0.0051464 -0.00279137 0.00842797)
(0.00926554 0.00570806 0.0108815)
(0.0080873 0.00324445 0.0116368)
(0.0100568 0.00542278 0.011128)
(0.00928795 0.00467782 0.0113271)
(0.00735667 0.00368747 0.0112129)
(0.00896682 0.00488219 0.0124948)
(0.0170395 0.00643788 0.00643926)
(0.0161002 0.0058332 0.0100761)
(0.0168621 0.00774362 0.00817745)
(0.0186866 0.00587529 0.00756634)
(0.0180858 0.00696734 0.00755514)
(0.0151908 0.00649885 0.00934828)
(0.0153836 0.0061688 0.00874237)
(0.0160137 0.00654732 0.00717007)
(0.0107126 0.00820583 0.0113768)
(0.0108205 0.00729856 0.0111866)
(0.0092465 0.00682223 0.0108823)
(0.0112568 0.00828734 0.0103894)
(0.0108254 0.00905044 0.0102605)
(0.00960883 0.00644453 0.0112007)
(0.0134542 0.00908006 0.0112684)
(0.0162897 0.0105593 0.00987868)
(0.012247 0.00917805 0.0106022)
(0.0154209 0.00959835 0.0119723)
(0.0115223 0.00839593 0.0104695)
(0.0216061 0.0119488 0.00799525)
(0.0237145 0.0112434 0.00530614)
(0.0221498 0.0122075 0.00813164)
(0.0224779 0.0119307 0.00627184)
(0.0246972 0.0108631 0.0061174)
(0.0217599 0.0110529 0.00604521)
(0.0130045 0.00942017 0.0108095)
(0.0111082 0.00845699 0.0105086)
(0.0136739 0.0106284 0.00965214)
(0.00792985 0.00520399 0.0102416)
(0.00768644 0.00416446 0.0106697)
(0.00923751 0.00624063 0.0108444)
(0.00940404 -0.00630478 0.00924483)
(0.010567 -0.00668744 0.00979761)
(0.0101488 -0.00606442 0.0102107)
(0.009981 -0.00586855 0.00885056)
(0.0103843 -0.00677324 0.00877847)
(0.0103971 -0.00574614 0.00985256)
(0.0101813 -0.00564441 0.010581)
(0.00977717 -0.00565206 0.0105791)
(0.00769778 -0.0077998 0.0101993)
(0.00795992 -0.00851735 0.0106769)
(0.00740304 -0.00811535 0.0090323)
(0.00793266 -0.00828811 0.00936673)
(0.00869749 -0.00818845 0.0109503)
(0.00750816 -0.00880514 0.0101144)
(0.0139854 -0.00572397 0.0017141)
(0.0149916 -0.00469649 0.0022886)
(0.0146486 -0.00509997 0.0024485)
(0.0129157 -0.00611475 0.00153376)
(0.0139013 -0.00533757 0.00174673)
(0.0134032 -0.00655629 0.00179764)
(0.0185737 -0.0097949 0.0135433)
(0.0173645 -0.00851519 0.012197)
(0.021178 -0.0100607 0.0147641)
(0.0206576 -0.00858641 0.0143835)
(0.0193175 -0.00848366 0.0133174)
(0.01654 -0.00948739 0.0131038)
(0.0230642 -0.00563959 0.0149524)
(0.0218131 -0.0066471 0.0142433)
(0.0232419 -0.00505234 0.0148983)
(0.0235995 -0.00576155 0.0145472)
(0.0215774 -0.00599829 0.0132985)
(0.0239413 -0.00521828 0.0134747)
(0.0221998 -0.00919519 0.0153717)
(0.0217196 -0.00825021 0.0164623)
(0.0226397 -0.00796096 0.0163638)
(0.0216823 -0.00797151 0.0174237)
(0.0236853 -0.00911253 0.0166027)
(0.0221421 -0.00871234 0.0159495)
(0.00580214 0.00117644 0.0116789)
(0.0055827 0.00126068 0.0114734)
(0.00630275 0.00229985 0.0119026)
(0.00495641 0.000648779 0.0105345)
(0.00503293 0.000712076 0.0109097)
(0.00580453 0.00212234 0.011253)
(0.00637863 0.00109858 0.0105919)
(0.00710765 0.00143339 0.0109266)
(0.00595679 0.000746253 0.0112475)
(0.00498304 0.000161777 0.0104369)
(0.00625313 0.00132804 0.0112685)
(0.00793654 0.00258822 0.0114189)
(0.00695822 0.00162268 0.0111081)
(0.0059421 0.00120221 0.0115562)
(0.00645883 0.00141251 0.0117016)
(0.00735134 0.00248537 0.0113811)
(0.00386319 -0.000214897 0.010382)
(0.00480069 -0.000139155 0.0112776)
(0.0048329 0.00106801 0.0105676)
(0.00436284 -0.00113204 0.0104782)
(0.00459915 0.000214216 0.0116137)
(0.00449285 0.000819366 0.010584)
(0.0187589 -0.018475 0.0203055)
(0.0198339 -0.0154369 0.0177186)
(0.0203354 -0.0165974 0.0205531)
(0.0183187 -0.0169197 0.0185034)
(0.0178564 -0.0160874 0.019032)
(0.0180308 -0.017426 0.0209441)
(0.0182609 -0.0147126 0.0174913)
(0.018824 -0.0135612 0.0161875)
(0.0198814 -0.0141832 0.0169025)
(0.0162877 -0.0146646 0.0171796)
(0.0167132 -0.0136741 0.0147599)
(0.0157884 -0.0128799 0.015927)
(0.0117028 -0.00666399 0.00650078)
(0.0128089 -0.00678251 0.00646184)
(0.0126742 -0.00631915 0.00698913)
(0.0107976 -0.00615526 0.00901891)
(0.0115993 -0.00623913 0.00840376)
(0.0118212 -0.00626514 0.00922952)
(0.0118427 -0.00667763 0.00783228)
(0.0124872 -0.00635027 0.00803715)
(0.011105 -0.0054453 0.0105752)
(0.0114408 -0.00341919 0.0123135)
(0.0104639 -0.00382333 0.0107785)
(0.0110166 -0.00486579 0.0112816)
(0.0111121 -0.0035199 0.0117129)
(0.00589428 -0.0119137 0.0074038)
(0.00560689 -0.0122526 0.00758666)
(0.00586245 -0.0112041 0.00623936)
(0.0057541 -0.0111895 0.00802235)
(0.00620811 -0.011363 0.00669587)
(0.0064485 -0.0114744 0.00830799)
(0.0104414 -0.00958995 0.0158446)
(0.010995 -0.011074 0.0177672)
(0.0126293 -0.0100942 0.0175252)
(0.0120127 -0.00977201 0.0172726)
(0.00928208 -0.0105656 0.0162214)
(0.009014 -0.0131288 0.0184679)
(0.0106527 -0.0134439 0.0191004)
(0.0121702 -0.01292 0.0194126)
(0.0125533 -0.0133935 0.0196738)
(0.021132 -0.00193012 0.00192437)
(0.0223254 -0.000225926 0.00137801)
(0.0201342 -0.00269001 0.00143583)
(0.0222882 4.74581e-05 0.00116183)
(0.0225894 0.000520648 0.00134874)
(0.0211639 -0.0023081 0.00179113)
(0.0159514 0.00922339 0.010947)
(0.0177026 0.00963038 0.0088904)
(0.0145677 0.00900111 0.0100859)
(0.0177814 0.0101156 0.00835653)
(0.0153334 0.00952167 0.0103143)
(0.0181679 0.0095569 0.00854537)
(0.0164277 0.0105589 0.00904812)
(0.0163591 0.00907364 0.0087579)
(0.015658 -0.00670808 0.00252175)
(0.0146627 -0.00678163 0.00239576)
(0.0171209 -0.0052906 0.000499449)
(0.0154014 -0.00623061 0.00237533)
(0.017306 -0.00585786 0.00214997)
(0.0106339 0.00217226 0.00984903)
(0.00925828 0.00210786 0.0114064)
(0.0108999 0.00190948 0.0105387)
(0.0106325 0.00656498 0.0118039)
(0.0108724 0.00736663 0.0126988)
(0.0111774 0.00794485 0.0113283)
(0.00952164 0.00561584 0.0121408)
(0.0116444 0.00726966 0.0112326)
(0.00892161 0.00573276 0.0117639)
(0.015442 0.00862374 0.00927955)
(0.0123899 0.00733004 0.0103669)
(0.011442 0.0076367 0.0102153)
(0.0143589 0.00843854 0.01171)
(0.014476 0.00853313 0.00945458)
(0.0135638 0.00631464 0.00994823)
(0.0128573 0.00674017 0.012177)
(0.0132002 0.00619129 0.0106681)
(0.0118686 0.00597485 0.0111543)
(0.0112575 0.00648045 0.0115126)
(0.0126925 0.006866 0.00973649)
(0.0108286 0.00330011 0.0108338)
(0.0105712 0.00292716 0.0106866)
(0.00952705 0.00280158 0.011024)
(0.00854129 0.00221354 0.0108716)
(0.00934086 0.00275601 0.0107889)
(0.011474 0.00313564 0.0105969)
(0.0142298 0.00507517 0.00991009)
(0.015553 0.00431971 0.0086608)
(0.0147283 0.0045979 0.00996792)
(0.0159993 0.00419796 0.00797417)
(0.00773366 0.00410205 0.0114443)
(0.00761218 0.00463953 0.0115078)
(0.00869588 0.00517085 0.0115482)
(0.00692633 0.00325625 0.011091)
(0.00723234 0.00301392 0.0115777)
(0.00818383 0.0055345 0.0113358)
(0.00691784 0.00258776 0.0116634)
(0.00646874 0.00245076 0.0114681)
(0.0057006 0.00189256 0.0108639)
(0.006059 0.00166108 0.0110277)
(0.00741802 0.00375775 0.0116272)
(0.00700134 0.00328659 0.0111007)
(0.00455724 -0.000658001 0.00831414)
(0.0047822 -0.000855656 0.00854439)
(0.00477939 7.01954e-05 0.0086653)
(0.00504858 -0.00045428 0.00902055)
(0.00516665 -0.000386949 0.00922854)
(0.00485753 0.000456159 0.00913859)
(0.00461385 -0.00186961 0.00807973)
(0.00530572 -0.00253386 0.00823762)
(0.00468121 -0.00152992 0.00798939)
(0.00487754 -0.00183945 0.00810652)
(0.00508293 -0.00223225 0.00800175)
(0.00466252 -0.00156953 0.00820564)
(0.00463075 -0.00179071 0.00980618)
(0.0047273 -0.00056121 0.00970721)
(0.0048971 -0.0010339 0.00996569)
(0.00481236 -0.00172669 0.00903471)
(0.00432444 -0.0013569 0.00944558)
(0.00446362 -0.000857365 0.00885144)
(0.0188753 -0.000485297 0.0147874)
(0.0195257 -0.0009026 0.0164794)
(0.0152041 -0.0013808 0.0147996)
(0.0156989 -0.000953564 0.014463)
(0.0179569 -0.0020766 0.0161038)
(0.0171074 -0.00175251 0.0161244)
(0.0183875 -0.00238397 0.0154958)
(0.0148966 -0.00309884 0.0153626)
(0.0159913 -0.00398683 0.0161405)
(0.0186639 -0.00409991 0.0166923)
(0.0165349 -0.00368738 0.0158331)
(0.018173 -0.00242959 0.0164732)
(0.0161666 -0.00341972 0.0158662)
(0.0154915 -0.0036602 0.0160356)
(0.0195783 -0.00529229 0.0165456)
(0.021924 -0.00589804 0.0164366)
(0.0207951 -0.00654122 0.0175728)
(0.019159 -0.00618794 0.0171338)
(0.0212629 -0.00546963 0.0168303)
(0.0185334 -0.00569089 0.0173771)
(0.0203655 -0.00407575 0.0159411)
(0.0203482 -0.00380122 0.0165382)
(0.0219672 -0.00426965 0.0161608)
(0.0226147 -0.00373552 0.0165033)
(0.0213686 -0.00267007 0.0155647)
(0.0241907 -0.00184986 0.013471)
(0.0237067 -0.00154652 0.0125907)
(0.0243878 -0.00249924 0.0128159)
(0.0240876 -0.00107379 0.0139883)
(0.0227001 -0.00252067 0.0120504)
(0.0249724 -0.001078 0.0144956)
(0.00723548 -0.00304471 0.0076691)
(0.00548372 -0.00200321 0.00690789)
(0.00540834 -0.00221961 0.00744878)
(0.0059009 -0.00258008 0.0070904)
(0.00740429 -0.00297451 0.00738634)
(0.00689463 -0.00254807 0.00723946)
(0.0167605 -0.0031814 0.00869069)
(0.0209444 -0.00148693 0.0098931)
(0.0219783 -0.00218232 0.0112512)
(0.0190521 -0.003485 0.00969772)
(0.0205549 -0.00256793 0.00986579)
(0.0191968 -0.00286942 0.00961498)
(0.00916796 -0.00311991 0.00710027)
(0.0125181 -0.00354559 0.00803583)
(0.0128935 -0.00288307 0.00765802)
(0.00845749 -0.00279639 0.00720503)
(0.00656562 -0.00337997 0.00834061)
(0.00709578 -0.00406077 0.00828245)
(0.00999622 -0.00468142 0.00936632)
(0.00802362 -0.00379748 0.00744073)
(0.00908272 -0.00503352 0.00981561)
(0.00663353 -0.00363125 0.00864531)
(0.0151686 -0.00410503 0.00193181)
(0.0159447 -0.00338904 0.00245598)
(0.0155595 -0.0042377 0.00126665)
(0.0143355 -0.00467954 0.00141826)
(0.0157575 -0.00343903 0.0018811)
(0.0148845 -0.00527594 0.00129878)
(0.015771 0.000501514 0.00555551)
(0.0155848 0.00103464 0.00677259)
(0.0153166 0.00171037 0.00741528)
(0.0161744 -0.000575696 0.00528396)
(0.0160441 -0.00314359 0.00309285)
(0.0167859 -0.0010742 0.00364521)
(0.0169033 -0.000976254 0.00447369)
(0.0168515 -0.00203739 0.00293102)
(0.0163395 -0.00270087 0.00318941)
(0.0169631 -0.0014869 0.00365128)
(0.0171237 0.00266912 0.0069313)
(0.016469 0.000958508 0.00567597)
(0.0159689 0.00136454 0.00711813)
(0.0169208 0.00107552 0.00466948)
(0.0166417 0.00151908 0.00543898)
(0.0159676 0.00308457 0.00710873)
(0.0168884 -0.00179457 0.00259907)
(0.0174765 -0.000831183 0.00411792)
(0.0177157 -0.000133001 0.00363377)
(0.0169744 -0.00160228 0.00328305)
(0.0174819 -0.00083251 0.00253466)
(0.0175868 0.000278736 0.00420413)
(0.00798207 -0.0109711 0.00300358)
(0.00919051 -0.0105854 0.0028611)
(0.00878326 -0.00984717 0.00212405)
(0.0085595 -0.0108288 0.00335885)
(0.00797892 -0.0109494 0.00270923)
(0.00844828 -0.0102932 0.00173024)
(0.00751628 -0.00843574 0.0107852)
(0.00769543 -0.00945221 0.00981789)
(0.00719396 -0.00873868 0.0106436)
(0.00822972 -0.00902055 0.0112601)
(0.00701258 -0.00943827 0.0100967)
(0.00707878 -0.00930287 0.00926909)
(0.00877919 -0.0103217 0.00370671)
(0.00859159 -0.010096 0.00328109)
(0.0102723 -0.0100374 0.00321352)
(0.00950794 -0.0101189 0.00369155)
(0.00950873 -0.0100136 0.00272159)
(0.0102375 -0.00975803 0.00257768)
(0.00987103 -0.00977953 0.00357602)
(0.0101193 -0.0099449 0.00393857)
(0.0109176 -0.00940425 0.00292538)
(0.0107871 -0.00982032 0.00353746)
(0.0107201 -0.00980529 0.00282396)
(0.0150998 -0.0063527 0.00346212)
(0.017283 -0.00561976 0.00292381)
(0.0177826 -0.00501176 0.00265055)
(0.0183464 -0.00445286 0.00167023)
(0.0162312 -0.00625041 0.00309523)
(0.015511 -0.0056085 0.00271235)
(0.0134935 -0.00752845 0.00543902)
(0.0127826 -0.00641794 0.00572466)
(0.0120843 -0.00669831 0.00564011)
(0.0145602 -0.00658595 0.00485653)
(0.0143564 -0.0062915 0.00388183)
(0.013621 -0.00696934 0.0045144)
(0.0106773 -0.00672252 0.00757723)
(0.0119785 -0.00723321 0.00717121)
(0.0106275 -0.00685687 0.00862215)
(0.0118545 -0.00719593 0.00760683)
(0.0113039 -0.00763888 0.00825817)
(0.0108209 -0.00709073 0.00715692)
(0.00905814 -0.00667835 0.0090439)
(0.00885735 -0.00671791 0.00998486)
(0.00979755 -0.00739709 0.00939703)
(0.00896858 -0.00689944 0.00994528)
(0.010069 -0.00684704 0.0106963)
(0.0090058 -0.00608809 0.0100488)
(0.00849246 -0.0076992 0.0103779)
(0.00812243 -0.00742976 0.00888732)
(0.0083407 -0.00666624 0.0102317)
(0.00874358 -0.00775892 0.00920552)
(0.00949484 -0.00724939 0.0109602)
(0.00814334 -0.0075066 0.0101681)
(0.0114918 -0.00443395 0.0136544)
(0.0129953 -0.00576957 0.0156202)
(0.0109472 -0.00557602 0.0139744)
(0.0137617 -0.00437275 0.0154673)
(0.01213 -0.00536187 0.0149788)
(0.0137439 -0.00410964 0.0148728)
(0.00873193 -0.00736001 0.0115824)
(0.00907891 -0.00734104 0.0122577)
(0.0103153 -0.00667356 0.0133989)
(0.0100414 -0.00641911 0.0129649)
(0.00935919 -0.00717693 0.0126564)
(0.00887453 -0.00625616 0.0116161)
(0.0107206 -0.00520103 0.0132973)
(0.0109383 -0.00561657 0.0131891)
(0.00952787 -0.00563844 0.0120239)
(0.00951542 -0.00629479 0.0117274)
(0.0101584 -0.00493959 0.0123331)
(0.00932662 -0.00525916 0.0116362)
(0.00954481 -0.00517228 0.0121739)
(0.00735245 -0.00836402 0.0115999)
(0.00747578 -0.00966136 0.0117698)
(0.0072958 -0.0081898 0.0111982)
(0.00782059 -0.0102738 0.012061)
(0.00806791 -0.00940108 0.0127403)
(0.00819949 -0.00845502 0.0130675)
(0.00824391 -0.00863901 0.0117264)
(0.00907803 -0.00935538 0.0134878)
(0.0084033 -0.00738617 0.0117556)
(0.00967529 -0.00765721 0.0135126)
(0.00910823 -0.00753805 0.0128863)
(0.008356 -0.00854696 0.0120898)
(0.0100814 -0.00837201 0.0144677)
(0.0109525 -0.00777574 0.0151255)
(0.0107396 -0.00796691 0.0151074)
(0.0118178 -0.00739447 0.015788)
(0.0109779 -0.00760464 0.0152097)
(0.00910116 -0.00814181 0.0134989)
(0.012478 -0.00749323 0.0161637)
(0.0106081 -0.00720662 0.0144339)
(0.0113977 -0.00597425 0.014233)
(0.013231 -0.00555261 0.0156091)
(0.0107137 -0.00687116 0.0143651)
(0.0228655 0.00318192 0.0123067)
(0.0223402 0.00112948 0.0149512)
(0.0220596 0.00186026 0.0155826)
(0.0229983 -0.00144152 0.00329043)
(0.024945 0.00156348 0.00252588)
(0.0220189 -0.00164525 0.00313357)
(0.0245873 0.00127178 0.00278232)
(0.0230641 -0.000829548 0.00304248)
(0.0247502 0.000110021 0.00346601)
(0.0198193 -0.00500753 0.00522715)
(0.0212236 -0.00359477 0.00381021)
(0.0184098 -0.00359052 0.00209365)
(0.0208298 -0.00282341 0.00343435)
(0.0212865 -0.00290252 0.00299539)
(0.0177703 -0.00446969 0.00289656)
(0.0186939 -0.0052224 0.00520153)
(0.017418 -0.00554036 0.00657354)
(0.015102 -0.00568105 0.00794573)
(0.0169107 -0.00610376 0.00755121)
(0.00875375 0.00614025 0.0111743)
(0.00928408 0.00587551 0.0117041)
(0.00996995 0.00659806 0.0112395)
(0.00948859 0.00710245 0.0109725)
(0.00765318 0.00459853 0.0105362)
(0.00820173 0.00472969 0.0112911)
(0.0230938 0.00895561 0.00367285)
(0.0213717 0.00990653 0.00608947)
(0.0233811 0.00774513 0.00392199)
(0.0220788 0.00979284 0.00558711)
(0.0216673 0.00833277 0.00402536)
(0.00532222 0.00165309 0.00937201)
(0.0054679 0.000468663 0.00902138)
(0.005363 0.000780764 0.00919799)
(0.00470264 0.000125372 0.00792017)
(0.00499231 7.87358e-05 0.00817669)
(0.0235814 0.00309072 0.00164925)
(0.0247324 0.00387348 0.00336154)
(0.0241905 0.00519493 0.00216147)
(0.0235002 0.0022543 0.00192058)
(0.0237701 0.00163266 0.00239777)
(0.0242356 0.00526768 0.00274427)
(0.0172178 -0.00525143 0.00112715)
(0.0192376 -0.00264161 0.00148207)
(0.0183938 -0.0031818 0.000793555)
(0.0184975 -0.0024487 0.00057603)
(0.0183322 -0.00400129 0.00139339)
(0.0178472 -0.00463092 0.000810953)
(0.0167274 -0.00561106 0.00101542)
(0.0179751 -0.00306568 0.00084982)
(0.0169384 -0.00483003 0.000651383)
(0.0173267 -0.00444324 0.00123657)
(0.0159678 -0.00587282 0.00122895)
(0.0182468 -0.00369531 0.00122479)
(0.0199766 0.00412559 0.00426408)
(0.0189153 0.00504291 0.00593254)
(0.0198345 0.00280169 0.0045567)
(0.0189641 0.00368983 0.00453031)
(0.0196885 0.00458154 0.00573577)
(0.0199598 0.0050552 0.00523072)
(0.020616 0.00340099 0.00315834)
(0.0200832 0.00545879 0.00447141)
(0.0207927 0.00429952 0.00303602)
(0.0193679 0.00580218 0.00525438)
(0.020115 0.00364127 0.0041505)
(0.0214692 0.00124612 0.00196098)
(0.0208502 1.28912e-05 0.00107271)
(0.0218922 0.0033399 0.00290982)
(0.0215373 0.000667883 0.00190633)
(0.0201358 -0.00118487 0.0018397)
(0.0206465 -0.00168094 0.00178089)
(0.00523263 -0.011609 0.00573599)
(0.00448828 -0.0118101 0.0063342)
(0.00605601 -0.0133573 0.00685115)
(0.00587742 -0.0126238 0.00882394)
(0.00413428 -0.011035 0.00695732)
(0.00476172 -0.0114721 0.00814827)
(0.00563916 -0.0131481 0.0137155)
(0.00601229 -0.0125091 0.0144152)
(0.00624267 -0.0116846 0.0140305)
(0.00556405 -0.0133244 0.0144363)
(0.00556469 -0.0118178 0.0127974)
(0.00492556 -0.0126858 0.0126813)
(0.00557459 -0.0123744 0.0125804)
(0.00529301 -0.0129815 0.0105651)
(0.0053549 -0.0116396 0.0107431)
(0.00462699 -0.0122625 0.0108881)
(0.0209693 0.00225388 0.0021241)
(0.0208037 0.00324662 0.00393697)
(0.0188086 0.00569883 0.00545574)
(0.0192011 0.00175408 0.00319881)
(0.019316 0.00182119 0.00339499)
(0.0195704 0.00108684 0.00313586)
(0.0188554 0.000788495 0.00330697)
(0.0188199 -0.000467801 0.00267548)
(0.0180863 -0.00171285 0.000679517)
(0.0190046 -0.000947748 0.00209543)
(0.0188164 -0.00230386 0.00214746)
(0.0189043 0.00020073 0.00188246)
(0.0183144 -0.000922209 0.00225383)
(0.0182181 -0.00266635 0.00120494)
(0.016949 -0.00556543 0.0014369)
(0.0199762 -0.000815774 0.00126563)
(0.012675 0.0043875 0.0111418)
(0.0120146 0.0045382 0.0110424)
(0.0124284 0.00512183 0.00995828)
(0.0227409 -0.00663384 0.0132609)
(0.00530967 -0.00167209 0.00655341)
(0.00599077 -0.00199849 0.00685428)
(0.00557167 0.00218796 0.00956956)
(0.00504192 -0.00053445 0.00749464)
(0.00521728 -0.000170136 0.00758845)
(0.00489802 -0.000365318 0.00789596)
(0.0159535 -0.00591321 0.00707594)
(0.0141747 -0.00582755 0.00684202)
(0.0227633 -0.000968224 0.00289117)
(0.0101005 -0.0050017 0.0109983)
(0.00990057 -0.00526943 0.0110215)
(0.0100393 -0.00522733 0.0114689)
(0.0131154 -0.00199494 0.0140496)
(0.0137636 -0.00110132 0.014144)
(0.0140995 -0.000318138 0.0139806)
(0.0141452 -0.00180586 0.0144236)
(0.0141601 -0.00221133 0.0147443)
(0.0167484 -0.0004976 0.0152624)
(0.016604 -0.00187772 0.0160366)
(0.0156685 -0.000150888 0.0148326)
(0.0142877 -0.000548005 0.0143926)
(0.0142372 -0.00149601 0.0147176)
(0.014656 -0.00097738 0.0147012)
(0.0180524 0.000742731 0.0142482)
(0.0174338 0.00032952 0.0148085)
(0.0220109 0.00108999 0.0159129)
(0.010612 -0.00536171 0.0112758)
(0.0122476 -0.0073739 0.015429)
(0.0101035 -0.00768387 0.0141379)
(0.00788598 -0.00798635 0.0115041)
(0.00845551 -0.0087391 0.0125744)
(0.00800242 -0.00903404 0.0134674)
(0.0110099 -0.00544533 0.0128649)
(0.0104312 -0.00451621 0.0123513)
(0.013686 -0.00208945 0.0144789)
(0.0125161 -0.00244467 0.0137411)
(0.0149301 -0.00181115 0.0151173)
(0.01137 -0.00385818 0.0134458)
(0.0115072 -0.00383287 0.0136478)
(0.0122197 -0.00423601 0.0142173)
(0.0109103 -0.00352272 0.0128214)
(0.0096255 -0.00699064 0.0132411)
(0.0124567 -0.0054852 0.0149849)
(0.0114139 -0.00609002 0.0144929)
(0.010423 -0.00530883 0.0134029)
(0.0119978 -0.00460577 0.0142565)
(0.0139981 -0.00306759 0.015137)
(0.0138262 -0.00297632 0.0143226)
(0.0144684 -0.00366161 0.0154821)
(0.0126012 -0.0037985 0.014494)
(0.0127754 -0.00295835 0.0141415)
(0.0114901 -0.00376345 0.0134821)
(0.0122642 -0.0035934 0.0137959)
(0.0103955 -0.00809647 0.0071866)
(0.00991771 -0.00715769 0.00764498)
(0.00931725 -0.0073992 0.00675862)
(0.0105556 -0.00955936 0.00718433)
(0.00896546 -0.00764793 0.00734922)
(0.00989422 -0.00899693 0.00701526)
(0.00914597 -0.00763571 0.00877674)
(0.00947994 -0.00664094 0.0119305)
(0.00763908 -0.00727558 0.00764582)
(0.0101453 -0.00584958 0.0114739)
(0.0101012 -0.00580971 0.0117476)
(0.00981591 -0.00532205 0.011584)
(0.00951712 -0.00677064 0.0114319)
(0.0101709 -0.00615919 0.0112773)
(0.00998694 -0.00726915 0.00903101)
(0.0100219 -0.00761437 0.00907429)
(0.0102102 -0.00781973 0.00850352)
(0.00988879 -0.00861109 0.00953472)
(0.00877431 -0.00724762 0.00754807)
(0.00954907 -0.00846536 0.00962064)
(0.00916362 -0.0083563 0.00737743)
(0.0110522 -0.00846015 0.00636642)
(0.008553 -0.00936813 0.00784538)
(0.0103648 -0.00717006 0.00808822)
(0.0127367 -0.00856955 0.00496636)
(0.0108375 -0.00807661 0.00659424)
(0.0113171 -0.00834052 0.00552255)
(0.0115127 -0.00787424 0.00519687)
(0.0118825 -0.00728924 0.00419177)
(0.0131417 -0.00775844 0.00585334)
(0.01031 -0.0074897 0.0069024)
(0.0143708 -0.00736085 0.00510545)
(0.0165886 -0.00496991 0.00287424)
(0.0151653 -0.00747112 0.00439368)
(0.0155116 -0.00592157 0.00345246)
(0.0105292 -0.00942317 0.00430948)
(0.00933829 -0.00952149 0.00582748)
(0.0099022 -0.00962852 0.00487463)
(0.0100431 -0.00983608 0.00434539)
(0.010581 -0.00957068 0.00377236)
(0.00872005 -0.00941383 0.00704351)
(0.00783688 -0.00927644 0.00820746)
(0.00790261 -0.00891311 0.00650124)
(0.00871596 -0.00952276 0.00614165)
(0.00711479 -0.0103299 0.00820967)
(0.00770291 -0.00982344 0.00841449)
(0.00715309 -0.00968346 0.00858948)
(0.00684917 -0.0104353 0.00872177)
(0.00661803 -0.00975088 0.0100266)
(0.00669981 -0.00991873 0.010624)
(0.00694187 -0.0104154 0.00980384)
(0.00688502 -0.0110611 0.00846481)
(0.00706114 -0.0111688 0.0077774)
(0.0108195 -0.0096265 0.00255443)
(0.0095637 -0.0110141 0.0024147)
(0.00954022 -0.00963526 0.00146819)
(0.0105549 -0.00949075 0.00163924)
(0.00891114 -0.0102137 0.0023071)
(0.00802828 -0.0103162 0.00383703)
(0.0117689 -0.00938087 0.00268659)
(0.0138396 -0.00840639 0.00132659)
(0.0129815 -0.008225 0.00128387)
(0.0124466 -0.00866008 0.00121192)
(0.0116898 -0.00871608 0.0024428)
(0.00796755 -0.0112775 0.00453948)
(0.00761427 -0.0115004 0.00458628)
(0.0170416 -3.92395e-05 0.00390582)
(0.0169668 5.61668e-05 0.00546407)
(0.0165393 -0.00130541 0.00428237)
(0.0155171 -0.00341455 0.00247101)
(0.0139854 -0.0063354 0.00105275)
(0.0144749 -0.00630194 0.00119466)
(0.0167853 -0.00244479 0.00288559)
(0.0154388 -0.00402883 0.00221942)
(0.0145715 -0.00512799 0.000811743)
(0.0164758 -0.00416531 0.00201757)
(0.016119 -0.00345528 0.00153608)
(0.015477 -0.00440835 0.00110441)
(0.0168347 -0.00237956 0.00178549)
(0.0168494 -0.0028429 0.00238909)
(0.0179615 -0.00206781 0.00295696)
(0.0154238 -0.00593611 0.00114399)
(0.0140815 -0.00730749 0.00170997)
(0.0162005 -0.00532101 0.00132685)
(0.0144003 -0.00673928 0.00120878)
(0.0149308 -0.00631223 0.000575455)
(0.0155629 -0.00542383 0.000942019)
(0.00865231 -0.0109683 0.00263599)
(0.0065508 -0.00230336 0.00698956)
(0.0203214 -0.00373147 0.0103769)
(0.0222055 -0.00278316 0.0110055)
(0.0209388 -0.00441559 0.0114299)
(0.022583 -0.00310825 0.0117497)
(0.013209 -0.00549393 0.0100989)
(0.0148417 -0.00641525 0.010303)
(0.0183711 -0.00654175 0.0112859)
(0.0188533 -0.00481819 0.0105391)
(0.0171735 -0.00561147 0.0106666)
(0.0167375 -0.00646693 0.0107432)
(0.0210311 -0.00654235 0.012721)
(0.0211943 -0.00544618 0.0124408)
(0.013064 -0.00852963 0.0169491)
(0.0193833 -0.00462899 0.016739)
(0.0127139 -0.00815045 0.0170532)
(0.0141101 -0.00644154 0.0164003)
(0.0164005 -0.00631075 0.0174247)
(0.0173152 -0.00518077 0.0167041)
(0.0153477 -0.00641288 0.0173481)
(0.0166696 -0.00220633 0.0160288)
(0.0212025 0.00167794 0.0136756)
(0.0198353 0.00021055 0.0161736)
(0.0186619 -0.00129817 0.0153153)
(0.0209278 -0.000643933 0.0153129)
(0.0206247 2.14528e-05 0.0149245)
(0.0242798 0.000504786 0.0151783)
(0.0232331 -0.000493303 0.0137378)
(0.0212121 -0.000327307 0.0149314)
(0.00507427 -0.00162011 0.00715986)
(0.0134287 -0.00661274 0.0106923)
(0.0110409 -0.00612904 0.00967944)
(0.00463443 -0.00197593 0.00848568)
(0.00509608 -0.00186659 0.00759017)
(0.00608134 -0.00284504 0.00809121)
(0.00528734 -0.000601427 0.00835912)
(0.00486955 1.88325e-05 0.0100686)
(0.00485355 -0.00116695 0.00836886)
(0.00448907 -0.00110374 0.00820823)
(0.0048958 0.000268038 0.00994375)
(0.00986119 0.00669485 0.0123435)
(0.00605491 0.00165668 0.0112046)
(0.00636229 0.00229907 0.0111741)
(0.00698451 0.00367735 0.0105398)
(0.00720441 0.00353919 0.0106655)
(0.00660184 0.00293026 0.010651)
(0.00584262 0.00209601 0.00988673)
(0.00671584 0.00269898 0.0108777)
(0.00591566 0.00117328 0.0102966)
(0.00596145 0.00234749 0.0102494)
(0.0055576 0.000412198 0.0100978)
(0.00548637 0.00232872 0.00992943)
(0.0052812 0.00102966 0.0100634)
(0.00569357 0.00164209 0.0105612)
(0.00574749 0.00105823 0.00986411)
(0.00566227 0.000277737 0.00960667)
(0.00475568 -0.00134816 0.00708554)
(0.00483362 -0.0011549 0.00786741)
(0.00496207 -0.00117296 0.00731011)
(0.00488454 -0.00148132 0.00737613)
(0.00481759 -0.000749525 0.00743905)
(0.00487621 -0.000857845 0.00783888)
(0.0127523 0.00446187 0.00924202)
(0.0164833 0.00465631 0.00797982)
(0.0150844 0.00431882 0.00830555)
(0.0167372 0.00299426 0.00733416)
(0.0174698 0.000994545 0.00546267)
(0.0175449 0.000739747 0.00392095)
(0.0175915 0.00233707 0.00546613)
(0.01698 0.00308808 0.00631188)
(0.0166715 0.00376453 0.00693146)
(0.0180537 0.00183092 0.00503223)
(0.0182683 0.00320452 0.00736617)
(0.0179741 0.00243489 0.00562861)
(0.0137023 0.00417551 0.0090017)
(0.0114878 0.0034357 0.0104717)
(0.0109972 0.00405969 0.0106984)
(0.0156457 0.00322848 0.00851077)
(0.0136558 0.00345872 0.00969113)
(0.0150457 0.00324551 0.00773113)
(0.0145936 0.00259287 0.00883344)
(0.00791227 0.0036576 0.0111381)
(0.0088496 0.00404375 0.0112513)
(0.00967971 0.00407543 0.0120143)
(0.010248 0.00483237 0.011026)
(0.0101028 0.00570106 0.0116392)
(0.0152254 0.00739885 0.0108279)
(0.0122123 0.00637756 0.0118096)
(0.00834821 0.0045307 0.0122212)
(0.0102308 0.00634521 0.0118992)
(0.00845989 0.00470249 0.0121704)
(0.0112776 0.00672286 0.0121433)
(0.0135631 0.00786775 0.0112432)
(0.0152249 0.00224881 0.00891746)
(0.0143248 0.00171621 0.00812242)
(0.0119738 0.00312788 0.00915548)
(0.0127666 0.00263101 0.0090398)
(0.0122411 0.00216472 0.00992792)
(0.0133348 0.0025517 0.00969076)
(0.00858745 0.00197123 0.0112224)
(0.0112933 -0.00916477 0.00388487)
(0.0112919 -0.00899698 0.00336405)
(0.0146326 -0.00665685 0.00110623)