/*--------------------------------*- C++ -*----------------------------------*\
| =========                 |                                                 |
| \\      /  F ield         | OpenFOAM: The Open Source CFD Toolbox           |
|  \\    /   O peration     | Version:  v1612+                                |
|   \\  /    A nd           | Web:      www.OpenFOAM.com                      |
|    \\/     M anipulation  |                                                 |
\*---------------------------------------------------------------------------*/
FoamFile
{
    version     2.0;
    format      ascii;
    class       volVectorField;
    location    "50";
    object      U;
}
// * * * * * * * * * * * * * * * * * * * * * * * * * * * * * * * * * * * * * //

dimensions      [0 1 -1 0 0 0 0];

internalField   nonuniform List<vector> 
17165
(
(-0.653404 0.357238 -0.2297)
(-0.722103 0.381668 -0.261257)
(-0.734426 0.389715 -0.248476)
(-0.80793 0.432861 -0.26992)
(-0.674751 0.349687 -0.242272)
(-0.607863 0.337367 -0.20762)
(-0.842586 0.401913 -0.282653)
(-0.829019 0.407809 -0.269764)
(-0.726123 0.375824 -0.216009)
(-0.652016 0.345188 -0.173189)
(-0.824075 0.394931 -0.24847)
(-0.850133 0.420769 -0.265581)
(-0.670315 0.352831 -0.195565)
(-0.583399 0.32431 -0.161535)
(-0.718574 0.356997 -0.237084)
(-0.695579 0.36511 -0.205235)
(-0.618083 0.33078 -0.194947)
(-0.647576 0.335955 -0.21008)
(-0.486201 0.606296 -0.321793)
(-0.456432 0.576676 -0.317347)
(-0.634155 0.62798 -0.357842)
(-0.614414 0.641874 -0.353624)
(-0.519331 0.580276 -0.337939)
(-0.458773 0.595641 -0.325163)
(-0.411555 0.555688 -0.296469)
(-0.625627 0.630042 -0.34729)
(-0.616222 0.640332 -0.339815)
(-0.628821 0.611882 -0.34838)
(-0.480453 0.545171 -0.31327)
(-0.468631 0.577906 -0.323726)
(-0.432637 0.533836 -0.308994)
(-0.506157 0.594708 -0.337554)
(-0.52019 0.561272 -0.323982)
(-0.481255 0.557154 -0.314987)
(-0.452358 0.555572 -0.307547)
(-0.408352 0.520485 -0.0976592)
(-0.44482 0.531113 -0.100817)
(-0.545801 0.546592 -0.155877)
(-0.555596 0.556563 -0.172171)
(-0.400632 0.520731 -0.0920461)
(-0.372113 0.507753 -0.0911875)
(-0.44346 0.538721 -0.126927)
(-0.531237 0.577963 -0.167374)
(-0.560632 0.562086 -0.166438)
(-0.384896 0.527599 -0.111268)
(-0.388778 0.538533 -0.127244)
(-0.336236 0.521264 -0.104856)
(-0.36127 0.516092 -0.0954484)
(-0.399776 0.532155 -0.112517)
(-0.448734 0.560543 -0.139927)
(-0.503747 0.603292 -0.131081)
(-0.559746 0.621218 -0.128572)
(-0.511705 0.606633 -0.109748)
(-0.473457 0.596122 -0.097841)
(-0.573382 0.649149 -0.201924)
(-0.618556 0.65471 -0.211856)
(-0.537249 0.62602 -0.160117)
(-0.638385 0.667849 -0.179508)
(-0.547747 0.637946 -0.123009)
(-0.672481 0.656891 -0.185926)
(-0.638841 0.650738 -0.173414)
(-0.478172 0.619897 -0.101466)
(-0.641976 0.645608 -0.204312)
(-0.651735 0.649723 -0.22614)
(-0.733925 0.690362 -0.234705)
(-0.762185 0.693318 -0.265221)
(-0.535232 0.637486 -0.179401)
(-0.71096 0.667711 -0.2502)
(-0.3892 0.631678 -0.126284)
(-0.501829 0.653567 -0.171196)
(-0.371129 0.614305 -0.110268)
(-0.33111 0.585467 -0.103377)
(-0.339017 0.588867 -0.103617)
(-0.400818 0.616394 -0.123197)
(-0.374553 0.595117 -0.112687)
(-0.306601 0.554784 -0.0817527)
(-0.414642 0.617623 -0.116998)
(-0.458341 0.63607 -0.156793)
(-0.489085 0.628052 -0.152943)
(-0.430359 0.621247 -0.101857)
(-0.422264 0.59623 -0.0920885)
(-0.355823 0.563071 -0.0918605)
(-0.688206 0.353958 -0.300652)
(-0.782856 0.367198 -0.281253)
(-0.763071 0.37036 -0.312069)
(-0.83646 0.426234 -0.310166)
(-0.970672 0.500552 -0.346535)
(-0.702332 0.400496 -0.324777)
(-0.725925 0.390586 -0.310522)
(-0.781737 0.375504 -0.293933)
(-0.732619 0.398439 -0.316343)
(-0.89692 0.431194 -0.343522)
(-0.845861 0.441454 -0.326304)
(-0.97729 0.50047 -0.347849)
(-0.897193 0.469135 -0.328561)
(-0.939985 0.470667 -0.344036)
(-1.01927 0.504719 -0.365958)
(-0.797015 0.37688 -0.285818)
(-0.961651 0.474724 -0.344502)
(-0.811692 0.449911 -0.333418)
(-0.783955 0.429005 -0.328182)
(-1.04769 0.403792 -0.327471)
(-1.11682 0.383859 -0.359307)
(-1.06015 0.410544 -0.324386)
(-1.02681 0.41142 -0.304176)
(-1.12706 0.374539 -0.367827)
(-1.13928 0.355597 -0.366098)
(-1.2241 0.371246 -0.416009)
(-1.03958 0.318949 -0.337978)
(-1.12561 0.378248 -0.351268)
(-1.06532 0.38427 -0.320713)
(-1.11923 0.375944 -0.363432)
(-1.13442 0.365734 -0.377922)
(-1.13078 0.364788 -0.362461)
(-1.01761 0.402567 -0.2966)
(-1.04816 0.353241 -0.344504)
(-1.05779 0.382335 -0.302217)
(-1.02892 0.387976 -0.298051)
(-0.72294 0.367306 -0.16474)
(-0.7244 0.376039 -0.161638)
(-0.662267 0.367262 -0.122887)
(-0.760053 0.336113 -0.188904)
(-0.790749 0.333982 -0.205446)
(-0.636171 0.320226 -0.11934)
(-0.623972 0.360156 -0.0971384)
(-0.695822 0.361073 -0.134921)
(-0.717245 0.311326 -0.166572)
(-0.709678 0.294163 -0.163241)
(-0.776519 0.297505 -0.209324)
(-0.656643 0.281564 -0.135957)
(-0.628943 0.288752 -0.105375)
(-0.60102 0.304553 -0.0914637)
(-0.731066 0.306385 -0.164656)
(-0.646538 0.286292 -0.11532)
(-0.644732 0.293676 -0.116789)
(-1.07159 0.421545 -0.368537)
(-1.05277 0.431321 -0.370759)
(-1.09364 0.450055 -0.392293)
(-1.11608 0.463311 -0.42574)
(-1.09203 0.461813 -0.397179)
(-1.06752 0.460109 -0.379374)
(-1.03456 0.44347 -0.394903)
(-1.04223 0.43594 -0.391064)
(-1.0326 0.484808 -0.354628)
(-0.982343 0.474269 -0.340412)
(-1.13638 0.434336 -0.411215)
(-1.09465 0.430457 -0.390975)
(-0.965872 0.458564 -0.324002)
(-0.962632 0.47293 -0.347578)
(-1.00049 0.459702 -0.386521)
(-0.989725 0.456034 -0.383349)
(-1.03117 0.47545 -0.379716)
(-1.13829 0.462894 -0.387385)
(-1.03134 0.460538 -0.363978)
(-0.964863 0.47613 -0.351706)
(-0.841719 0.734868 -0.305424)
(-0.81709 0.719102 -0.29362)
(-0.85746 0.740855 -0.317439)
(-0.852256 0.74184 -0.315429)
(-0.909431 0.720761 -0.357494)
(-0.832386 0.746823 -0.312791)
(-0.816894 0.746148 -0.299678)
(-0.948556 0.764043 -0.379931)
(-0.922031 0.754079 -0.374942)
(-0.849968 0.707242 -0.309806)
(-0.948476 0.787637 -0.367206)
(-0.855717 0.747739 -0.339589)
(-0.927307 0.77351 -0.380401)
(-0.76618 0.733459 -0.306551)
(-0.814259 0.733239 -0.307306)
(-0.750295 0.657396 -0.324384)
(-0.78537 0.712325 -0.32284)
(-0.79688 0.722162 -0.328601)
(-0.757473 0.670278 -0.28874)
(-0.777485 0.6099 -0.335945)
(-0.854731 0.600532 -0.338052)
(-0.912398 0.684334 -0.352284)
(-0.771175 0.581932 -0.323562)
(-1.02669 0.870387 -0.423357)
(-0.860866 0.643375 -0.343214)
(-0.869977 0.661873 -0.344673)
(-0.857572 0.763965 -0.365229)
(-0.882479 0.665141 -0.36534)
(-0.850898 0.587515 -0.352706)
(-0.948368 0.729775 -0.375444)
(-0.499645 0.286682 -0.0421368)
(-0.544582 0.294768 -0.0609842)
(-0.507993 0.323901 -0.0485823)
(-0.469194 0.302542 -0.0330669)
(-0.642389 0.3711 -0.116725)
(-0.639015 0.384894 -0.108889)
(-0.547325 0.374307 -0.0562507)
(-0.523264 0.371954 -0.0438136)
(-0.491665 0.338047 -0.0424349)
(-0.433085 0.311728 -0.0223257)
(-0.630797 0.333217 -0.111524)
(-0.560397 0.373161 -0.0664329)
(-0.53862 0.306141 -0.0587699)
(-0.554395 0.356834 -0.0543149)
(-0.351676 0.333404 -0.294341)
(-0.28771 0.322461 -0.283134)
(-0.263288 0.354797 -0.289558)
(-0.212831 0.306767 -0.259126)
(-0.251512 0.286418 -0.253906)
(-0.377334 0.332979 -0.268714)
(-0.387782 0.345543 -0.281064)
(-0.206863 0.277279 -0.247801)
(-0.283676 0.350854 -0.29754)
(-0.356038 0.36334 -0.296527)
(-0.269955 0.328564 -0.285799)
(-0.284662 0.289987 -0.254228)
(-0.243108 0.301229 -0.265435)
(-0.502667 0.186623 -0.207047)
(-0.45395 0.178189 -0.170971)
(-0.509528 0.190559 -0.160689)
(-0.53156 0.1893 -0.188244)
(-0.517244 0.204592 -0.18831)
(-0.625333 0.235836 -0.160954)
(-0.512409 0.202189 -0.148302)
(-0.625964 0.217909 -0.178981)
(-0.570126 0.226668 -0.165134)
(-0.63415 0.225744 -0.174075)
(-0.773444 0.264786 -0.235229)
(-0.728084 0.391618 -0.175735)
(-0.771194 0.425195 -0.189904)
(-0.810871 0.420716 -0.230871)
(-0.818435 0.421869 -0.220324)
(-0.797651 0.389213 -0.221439)
(-0.749383 0.397526 -0.178758)
(-0.870586 0.429427 -0.267122)
(-0.877813 0.422906 -0.285606)
(-0.821367 0.348017 -0.228863)
(-0.80782 0.424314 -0.227815)
(-0.927303 0.370186 -0.291039)
(-0.722654 0.360285 -0.268649)
(-0.678873 0.333774 -0.249041)
(-0.610623 0.285351 -0.216375)
(-0.550804 0.261467 -0.207365)
(-0.495155 0.247871 -0.210623)
(-0.479307 0.255238 -0.214763)
(-0.533101 0.268375 -0.239112)
(-0.420938 0.261044 -0.240215)
(-0.447466 0.282674 -0.257934)
(-0.611722 0.325937 -0.267739)
(-0.551266 0.273266 -0.263647)
(-0.49219 0.294771 -0.277244)
(-0.483133 0.298471 -0.270865)
(-0.810353 0.397894 -0.285284)
(-0.867478 0.377395 -0.315442)
(-0.693745 0.46949 -0.247196)
(-0.705291 0.433202 -0.234122)
(-0.688983 0.401249 -0.256554)
(-0.827875 0.44279 -0.265372)
(-0.735772 0.465792 -0.223004)
(-0.707243 0.444321 -0.246657)
(-0.639066 0.458024 -0.214705)
(-0.766029 0.386812 -0.272977)
(-0.74798 0.422969 -0.239258)
(-0.795654 0.384639 -0.269477)
(-0.781453 0.453471 -0.231596)
(-0.671354 0.449511 -0.190091)
(-0.37303 0.603416 -0.104281)
(-0.310692 0.568708 -0.093614)
(-0.517164 0.662405 -0.170603)
(-0.464351 0.659485 -0.168562)
(-0.309862 0.591284 -0.116456)
(-0.372245 0.622992 -0.119842)
(-0.282064 0.564187 -0.0938277)
(-0.496836 0.657549 -0.195603)
(-0.46073 0.654739 -0.17546)
(-0.34451 0.605846 -0.110749)
(-0.293236 0.590762 -0.11522)
(-0.360953 0.625792 -0.150588)
(-0.363353 0.627387 -0.146811)
(-0.325486 0.619565 -0.137455)
(-0.704051 0.553661 -0.308822)
(-0.616555 0.494088 -0.306156)
(-0.543734 0.517374 -0.311603)
(-0.656066 0.584884 -0.324105)
(-0.585042 0.470292 -0.287364)
(-0.768353 0.607308 -0.324433)
(-0.710604 0.56254 -0.308862)
(-0.554822 0.528344 -0.313265)
(-0.904833 0.236797 -0.298406)
(-0.887462 0.227694 -0.284211)
(-0.894378 0.232395 -0.288916)
(-0.7683 0.206533 -0.252526)
(-0.762657 0.187787 -0.272073)
(-0.783579 0.189677 -0.252339)
(-0.78313 0.201612 -0.243369)
(-0.863359 0.238359 -0.2943)
(-0.888184 0.223842 -0.319941)
(-0.743989 0.183629 -0.270849)
(-0.747531 0.195965 -0.238465)
(-0.94252 0.217436 -0.33178)
(-0.911592 0.208093 -0.324255)
(-0.559881 0.391478 -0.120501)
(-0.512555 0.400302 -0.0938568)
(-0.556503 0.382846 -0.132459)
(-0.549916 0.398067 -0.120334)
(-0.518703 0.410124 -0.0991598)
(-0.554006 0.411085 -0.119375)
(-0.578444 0.407944 -0.129669)
(-0.527186 0.410715 -0.0967516)
(-0.630335 0.425329 -0.173911)
(-0.663672 0.426384 -0.188829)
(-0.522082 0.42761 -0.106629)
(-0.496469 0.408182 -0.0895911)
(-0.629222 0.435833 -0.14602)
(-0.570649 0.452035 -0.12599)
(-0.548114 0.436689 -0.104193)
(-0.572219 0.473204 -0.129982)
(-0.668728 0.437535 -0.17277)
(-0.657936 0.503913 -0.168086)
(-0.60967 0.494687 -0.149548)
(-0.544752 0.453539 -0.106572)
(-0.583454 0.488511 -0.131769)
(-0.50575 0.435407 -0.0885831)
(-0.647612 0.478614 -0.178224)
(-0.721881 0.473334 -0.217684)
(-0.62594 0.514786 -0.157265)
(-0.689939 0.48666 -0.200961)
(-0.748938 0.377321 -0.168254)
(-0.718497 0.384908 -0.161319)
(-0.754138 0.366506 -0.176467)
(-0.72838 0.390498 -0.159728)
(-0.704513 0.403937 -0.159555)
(-0.861368 0.362645 -0.254406)
(-0.881608 0.338654 -0.263434)
(-0.901472 0.357045 -0.273284)
(-0.806459 0.366084 -0.205981)
(-0.746785 0.39267 -0.180753)
(-0.945225 0.374682 -0.304108)
(-0.954916 0.375071 -0.298148)
(-0.789975 0.391664 -0.211556)
(-0.84781 0.436463 -0.259283)
(-0.897995 0.417795 -0.293223)
(-0.765158 0.424136 -0.204168)
(-0.865272 0.434485 -0.287171)
(-0.898538 0.406305 -0.286764)
(-0.787675 0.413192 -0.232057)
(-0.977852 0.631327 -0.306852)
(-0.882933 0.630666 -0.277069)
(-0.891211 0.603009 -0.251951)
(-1.02393 0.614925 -0.33589)
(-1.04178 0.575512 -0.366209)
(-1.03386 0.598054 -0.330569)
(-1.02522 0.628032 -0.344915)
(-1.05733 0.607281 -0.363598)
(-0.931388 0.629602 -0.283925)
(-0.874941 0.602608 -0.243833)
(-1.01988 0.592046 -0.341381)
(-1.02323 0.62818 -0.319667)
(-0.932577 0.615571 -0.267895)
(-0.981007 0.614444 -0.320276)
(-0.992023 0.591464 -0.2982)
(-1.04088 0.595601 -0.345219)
(-0.92702 0.585668 -0.268563)
(-0.904096 0.607287 -0.259314)
(-0.544001 0.567697 -0.106415)
(-0.503081 0.553806 -0.0934498)
(-0.512979 0.593991 -0.117716)
(-0.581481 0.582574 -0.126308)
(-0.618251 0.613835 -0.16165)
(-0.588643 0.559435 -0.123354)
(-0.47679 0.540154 -0.0850928)
(-0.623716 0.626308 -0.178525)
(-0.644122 0.622135 -0.190916)
(-0.722098 0.662859 -0.235411)
(-0.694542 0.65014 -0.200572)
(-0.691083 0.611577 -0.18479)
(-0.743558 0.626081 -0.186507)
(-0.742694 0.645257 -0.215779)
(-0.768406 0.651708 -0.217584)
(-0.478457 0.197495 -0.25928)
(-0.559453 0.198998 -0.269777)
(-0.588794 0.299238 -0.287081)
(-0.545281 0.291441 -0.278687)
(-0.493707 0.211392 -0.25363)
(-0.409918 0.213089 -0.257235)
(-0.58624 0.217343 -0.282897)
(-0.512323 0.270344 -0.275972)
(-0.493703 0.248182 -0.269655)
(-0.588852 0.301505 -0.276328)
(-0.472642 0.285226 -0.267019)
(-0.659227 0.25884 -0.277356)
(-0.556854 0.256945 -0.27315)
(-0.664843 0.231759 -0.275788)
(-0.579481 0.254427 -0.278168)
(-1.07663 0.542382 -0.374835)
(-1.09836 0.526464 -0.376846)
(-1.08369 0.511834 -0.364001)
(-1.05111 0.506174 -0.357676)
(-1.05548 0.570139 -0.336006)
(-1.01349 0.582588 -0.317074)
(-1.05077 0.547152 -0.349937)
(-1.06742 0.537751 -0.349031)
(-1.03997 0.485616 -0.370098)
(-1.05044 0.480225 -0.370581)
(-1.10312 0.543947 -0.373956)
(-0.995297 0.549009 -0.299291)
(-1.00256 0.568786 -0.310943)
(-1.05045 0.502301 -0.35627)
(-0.9834 0.531448 -0.329444)
(-0.994922 0.517346 -0.349437)
(-1.01312 0.559619 -0.344403)
(-1.04537 0.543341 -0.328371)
(-1.06453 0.542506 -0.318587)
(-1.01737 0.546176 -0.314342)
(-0.974229 0.544378 -0.325411)
(-1.01177 0.559593 -0.313557)
(-0.760753 0.334872 -0.285525)
(-0.550861 0.327285 -0.265054)
(-0.587438 0.348746 -0.257804)
(-0.655902 0.400989 -0.221842)
(-0.656679 0.431427 -0.221079)
(-0.778794 0.349229 -0.252442)
(-0.69873 0.410315 -0.250701)
(-0.628306 0.420649 -0.200567)
(-0.603194 0.431818 -0.201826)
(-0.763215 0.311913 -0.294522)
(-0.676873 0.329762 -0.271793)
(-0.631617 0.333016 -0.273832)
(-0.561018 0.393457 -0.257368)
(-0.581386 0.407842 -0.247862)
(-0.652589 0.347844 -0.272124)
(-0.614833 0.383406 -0.257717)
(-0.7354 0.394552 -0.234248)
(-0.771266 0.35788 -0.278949)
(-0.844255 0.380831 -0.267943)
(-0.807331 0.35656 -0.291387)
(-0.746361 0.471139 -0.178304)
(-0.686619 0.475631 -0.17979)
(-0.569005 0.478171 -0.123254)
(-0.615865 0.4809 -0.124777)
(-0.802452 0.466938 -0.244545)
(-0.692363 0.473868 -0.19407)
(-0.741548 0.500927 -0.223412)
(-0.637275 0.507694 -0.177242)
(-0.694202 0.484588 -0.228692)
(-0.560427 0.491232 -0.142514)
(-0.53987 0.48455 -0.143824)
(-0.676524 0.488053 -0.162427)
(-0.792441 0.492467 -0.241271)
(-0.675003 0.484887 -0.190717)
(-0.378096 0.471795 -0.198876)
(-0.441891 0.495314 -0.22458)
(-0.581432 0.501477 -0.235043)
(-0.368859 0.483106 -0.20623)
(-0.316602 0.454815 -0.184037)
(-0.568136 0.451425 -0.233038)
(-0.463524 0.497607 -0.202031)
(-0.426807 0.471779 -0.197857)
(-0.504573 0.505566 -0.168974)
(-0.432446 0.488481 -0.16815)
(-0.35781 0.467456 -0.175041)
(-0.569445 0.48626 -0.21721)
(-0.45637 0.495091 -0.192004)
(-0.404944 0.492549 -0.147895)
(-0.347483 0.465041 -0.154116)
(-0.977151 0.308757 -0.344747)
(-1.00565 0.342588 -0.337748)
(-1.03145 0.325505 -0.345706)
(-0.922554 0.280901 -0.322664)
(-1.1472 0.399763 -0.410594)
(-1.05041 0.371303 -0.374706)
(-0.936864 0.270954 -0.324869)
(-0.935376 0.277085 -0.322815)
(-0.917392 0.28478 -0.322674)
(-1.01578 0.315637 -0.350644)
(-1.1077 0.381166 -0.387147)
(-1.01507 0.367807 -0.350502)
(-1.0535 0.35824 -0.337375)
(-1.06083 0.389559 -0.36692)
(-1.13467 0.397663 -0.384678)
(-0.887198 0.270648 -0.32191)
(-0.972847 0.2821 -0.355306)
(-0.937747 0.28978 -0.350791)
(-1.09898 0.362807 -0.379872)
(-0.954899 0.338274 -0.343919)
(-1.14376 0.400993 -0.392239)
(-1.12613 0.37718 -0.394231)
(-0.988963 0.348313 -0.352371)
(-0.935318 0.313988 -0.344532)
(-1.09384 0.322415 -0.375719)
(-1.14357 0.379782 -0.39678)
(-0.493702 0.486578 -0.0750006)
(-0.464903 0.473955 -0.0676169)
(-0.498232 0.501263 -0.0860543)
(-0.489204 0.50141 -0.0689429)
(-0.538971 0.523612 -0.102898)
(-0.584993 0.497907 -0.0985039)
(-0.574802 0.47439 -0.0810574)
(-0.494941 0.455611 -0.0700386)
(-0.528957 0.49503 -0.104794)
(-0.689402 0.536337 -0.173526)
(-0.521467 0.498593 -0.0874622)
(-0.510488 0.490804 -0.0798278)
(-0.572024 0.498077 -0.0986194)
(-0.557294 0.486293 -0.0854223)
(-0.695608 0.514696 -0.161412)
(-0.526041 0.46305 -0.0743899)
(-0.622635 0.485109 -0.103649)
(-0.703156 0.526829 -0.192052)
(-0.694946 0.501426 -0.172584)
(-0.724476 0.521573 -0.19467)
(-0.557575 0.478778 -0.0821729)
(-0.72861 0.505456 -0.173853)
(-0.680535 0.683818 -0.219357)
(-0.599256 0.647149 -0.187813)
(-0.718748 0.69377 -0.243683)
(-0.74204 0.718 -0.262947)
(-0.76922 0.706895 -0.286855)
(-0.634936 0.694738 -0.212298)
(-0.569101 0.687933 -0.246514)
(-0.616507 0.674017 -0.275801)
(-0.592215 0.612117 -0.234125)
(-0.616973 0.650396 -0.247061)
(-0.547596 0.666342 -0.202293)
(-0.581683 0.670412 -0.241201)
(-1.09335 0.45213 -0.379084)
(-1.10209 0.434861 -0.386906)
(-1.08355 0.437936 -0.405566)
(-1.05476 0.429793 -0.385725)
(-1.04965 0.430267 -0.356363)
(-1.0447 0.425903 -0.346232)
(-1.15312 0.425852 -0.404438)
(-1.11663 0.40839 -0.395636)
(-1.04599 0.43173 -0.402899)
(-1.0247 0.428914 -0.365262)
(-1.07486 0.413604 -0.396649)
(-1.12879 0.405952 -0.396848)
(-1.11238 0.418032 -0.384915)
(-0.964652 0.391534 -0.322517)
(-1.06445 0.387073 -0.368202)
(-1.04892 0.415584 -0.367587)
(-1.07728 0.408032 -0.369955)
(-0.507794 0.50621 -0.0714557)
(-0.47627 0.488737 -0.0675547)
(-0.512683 0.501844 -0.0828746)
(-0.464192 0.504513 -0.0676742)
(-0.554423 0.501426 -0.0843585)
(-0.567962 0.531945 -0.0983951)
(-0.769572 0.575551 -0.179948)
(-0.515144 0.524414 -0.0818314)
(-0.539029 0.518413 -0.108302)
(-0.527978 0.536447 -0.0935533)
(-0.574321 0.512378 -0.102434)
(-0.621752 0.540878 -0.132509)
(-0.629286 0.540713 -0.147071)
(-0.72834 0.567116 -0.178474)
(-0.638418 0.39289 -0.159471)
(-0.605243 0.373795 -0.128518)
(-0.651858 0.371647 -0.160426)
(-0.787923 0.380134 -0.212902)
(-0.836844 0.401901 -0.253377)
(-0.625164 0.416254 -0.148236)
(-0.565184 0.392661 -0.106564)
(-0.638643 0.390421 -0.167936)
(-0.621437 0.406172 -0.127444)
(-0.628125 0.394728 -0.12049)
(-0.738712 0.336522 -0.171616)
(-0.775669 0.356356 -0.204002)
(-0.767428 0.403774 -0.22612)
(-0.838533 0.354265 -0.243886)
(-0.855325 0.363324 -0.238858)
(-0.59231 0.40789 -0.120423)
(-0.606528 0.39651 -0.117968)
(-0.733063 0.36651 -0.170031)
(-0.821713 0.393395 -0.240963)
(-0.74083 0.394964 -0.198241)
(-0.812116 0.631773 -0.344768)
(-0.766865 0.63308 -0.318561)
(-0.649148 0.625511 -0.306675)
(-0.607948 0.628371 -0.277611)
(-0.734894 0.610062 -0.327741)
(-0.714694 0.594773 -0.274896)
(-0.831368 0.613956 -0.350717)
(-0.514869 0.608042 -0.238277)
(-0.510332 0.611663 -0.255322)
(-0.668721 0.593363 -0.299398)
(-0.520639 0.577347 -0.271377)
(-0.567719 0.594398 -0.294078)
(-0.731707 0.598154 -0.31496)
(-0.688888 0.59437 -0.28143)
(-0.664454 0.59173 -0.30071)
(-0.524091 0.568358 -0.261859)
(-0.461436 0.557657 -0.237723)
(-0.510379 0.590089 -0.219578)
(-0.411889 0.552614 -0.209047)
(-0.519148 0.582589 -0.228077)
(-0.585283 0.634116 -0.228294)
(-0.566751 0.585472 -0.266152)
(-0.591451 0.6025 -0.25251)
(-0.671735 0.626785 -0.250054)
(-0.737902 0.33723 -0.298612)
(-0.690488 0.323699 -0.251829)
(-0.717391 0.348235 -0.281276)
(-0.764537 0.3654 -0.327791)
(-0.938815 0.420533 -0.351622)
(-0.695262 0.331139 -0.257103)
(-0.76458 0.34745 -0.308972)
(-0.702046 0.342422 -0.26344)
(-0.867082 0.386332 -0.308993)
(-0.882571 0.388089 -0.340945)
(-0.740805 0.342947 -0.266114)
(-0.907319 0.393924 -0.294243)
(-0.840722 0.359104 -0.285062)
(-0.836926 0.373685 -0.271837)
(-0.834468 0.364618 -0.269499)
(-0.921066 0.396292 -0.30851)
(-0.715795 0.308681 -0.1729)
(-0.766737 0.328637 -0.195843)
(-0.707587 0.290888 -0.167568)
(-0.539668 0.261621 -0.0770559)
(-0.535471 0.288539 -0.0625139)
(-0.662414 0.322094 -0.142371)
(-0.637098 0.322958 -0.111744)
(-0.611809 0.253461 -0.135679)
(-0.545534 0.240806 -0.0960878)
(-0.655661 0.278577 -0.155179)
(-0.567615 0.27063 -0.10215)
(-0.517896 0.276897 -0.0636417)
(-0.518279 0.294652 -0.0608262)
(-0.518734 0.287372 -0.0614607)
(-0.508808 0.25899 -0.0652119)
(-0.62525 0.335591 -0.116187)
(-0.568975 0.303043 -0.0882844)
(-0.602165 0.493232 -0.207493)
(-0.586118 0.481497 -0.192637)
(-0.755007 0.468634 -0.217722)
(-0.801021 0.449804 -0.252476)
(-0.518839 0.475722 -0.148645)
(-0.489627 0.460866 -0.117174)
(-0.723071 0.489151 -0.235124)
(-0.757277 0.473056 -0.233743)
(-0.728213 0.497462 -0.218369)
(-0.721272 0.447777 -0.199805)
(-0.727358 0.455824 -0.207201)
(-0.684977 0.465541 -0.16886)
(-0.708094 0.455165 -0.192079)
(-0.573285 0.473156 -0.148141)
(-0.545558 0.470698 -0.117002)
(-0.505306 0.45965 -0.108455)
(-0.749292 0.477298 -0.255927)
(-0.611762 0.474946 -0.200539)
(-0.688288 0.456807 -0.183883)
(-0.74806 0.479867 -0.232062)
(-0.585062 0.477149 -0.12079)
(-0.554788 0.462581 -0.119858)
(-0.524502 0.466786 -0.127333)
(-0.607892 0.469412 -0.143098)
(-0.541409 0.468026 -0.13844)
(-0.59661 0.467808 -0.154455)
(-0.766048 0.396833 -0.210427)
(-0.774611 0.369927 -0.21724)
(-0.792949 0.402543 -0.215907)
(-0.693582 0.414621 -0.163495)
(-0.687248 0.379399 -0.163686)
(-0.676457 0.327912 -0.180356)
(-0.648859 0.323727 -0.155608)
(-0.657009 0.400966 -0.131263)
(-0.644263 0.380532 -0.126995)
(-0.713956 0.357245 -0.179069)
(-0.617111 0.384916 -0.111756)
(-0.591824 0.280827 -0.131121)
(-0.585498 0.281783 -0.124799)
(-0.584044 0.31748 -0.0900085)
(-0.639805 0.384872 -0.12201)
(-0.567275 0.342054 -0.0892789)
(-0.587795 0.304753 -0.109369)
(-0.549654 0.29777 -0.0837365)
(-0.576236 0.33327 -0.104632)
(-0.601935 0.47428 -0.299187)
(-0.617637 0.47539 -0.303878)
(-0.51773 0.543024 -0.283665)
(-0.432252 0.522465 -0.275529)
(-0.623041 0.469431 -0.298782)
(-0.62009 0.481043 -0.297053)
(-0.505179 0.469786 -0.308224)
(-0.551157 0.451157 -0.312185)
(-0.516696 0.481224 -0.28855)
(-0.567944 0.52249 -0.290838)
(-0.494063 0.479179 -0.307428)
(-0.413312 0.474463 -0.290155)
(-0.510226 0.477368 -0.288705)
(-0.551978 0.508724 -0.285004)
(-0.528574 0.539466 -0.276724)
(-0.405427 0.456172 -0.301243)
(-0.432423 0.446152 -0.302517)
(-0.442256 0.461505 -0.304381)
(-0.462461 0.413163 -0.30722)
(-0.416001 0.404004 -0.314468)
(-0.323545 0.425428 -0.299535)
(-0.42541 0.417653 -0.318058)
(-0.429343 0.447374 -0.313259)
(-0.282864 0.382887 -0.288146)
(-0.316612 0.370373 -0.297071)
(-0.305675 0.381949 -0.303717)
(-0.307912 0.434608 -0.304178)
(-0.284003 0.376745 -0.289341)
(-0.239415 0.379337 -0.279158)
(-0.742539 0.445606 -0.234617)
(-0.727977 0.436653 -0.243132)
(-0.715376 0.412327 -0.222064)
(-0.739835 0.423011 -0.261252)
(-0.772835 0.446525 -0.275118)
(-0.682076 0.407114 -0.209884)
(-0.682116 0.4037 -0.205835)
(-0.715056 0.385047 -0.240215)
(-0.698661 0.393917 -0.211883)
(-0.611557 0.359051 -0.193469)
(-0.588136 0.333418 -0.184871)
(-0.606406 0.324208 -0.204076)
(-0.718477 0.391856 -0.256276)
(-0.665788 0.378639 -0.235455)
(-0.526998 0.293214 -0.181878)
(-0.615535 0.339749 -0.199409)
(-0.669095 0.371098 -0.238066)
(-0.833509 0.376325 -0.226745)
(-0.874345 0.392354 -0.258942)
(-0.841204 0.370299 -0.239375)
(-0.799678 0.365371 -0.220032)
(-0.814933 0.349814 -0.214719)
(-0.829005 0.364714 -0.23372)
(-0.888018 0.386 -0.242216)
(-0.901101 0.367633 -0.270337)
(-0.869352 0.360147 -0.270043)
(-0.985699 0.424654 -0.288433)
(-0.955687 0.413615 -0.294971)
(-0.85191 0.376411 -0.225294)
(-0.901931 0.384866 -0.284978)
(-0.986745 0.405565 -0.292468)
(-0.968727 0.392982 -0.305298)
(-0.473653 0.532007 -0.135155)
(-0.469154 0.547681 -0.131408)
(-0.538669 0.552611 -0.161774)
(-0.499856 0.551314 -0.142347)
(-0.41166 0.49893 -0.0988207)
(-0.581809 0.546507 -0.193144)
(-0.581249 0.539606 -0.178569)
(-0.386091 0.464664 -0.0678716)
(-0.48281 0.526403 -0.135783)
(-0.600749 0.523285 -0.171477)
(-0.625986 0.543892 -0.175172)
(-0.451144 0.489624 -0.0795725)
(-0.519914 0.513691 -0.11811)
(-0.484874 0.502199 -0.109146)
(-0.379155 0.201327 -0.130386)
(-0.377215 0.19861 -0.109681)
(-0.578009 0.272267 -0.187892)
(-0.539081 0.285366 -0.144102)
(-0.528976 0.278455 -0.160309)
(-0.466263 0.226041 -0.153375)
(-0.35333 0.208319 -0.0967073)
(-0.3793 0.213302 -0.0968482)
(-0.399493 0.228769 -0.0893513)
(-0.446723 0.250634 -0.0941428)
(-0.616602 0.306399 -0.164637)
(-0.605833 0.274772 -0.180953)
(-0.539517 0.242446 -0.149958)
(-0.521105 0.259639 -0.121431)
(-0.497819 0.243518 -0.127674)
(-0.448452 0.245125 -0.101854)
(-0.511526 0.270254 -0.1112)
(-0.555561 0.283481 -0.120327)
(-1.03505 0.560918 -0.376251)
(-1.03861 0.583101 -0.38526)
(-1.0124 0.515239 -0.349404)
(-1.05072 0.528007 -0.368248)
(-1.06721 0.532007 -0.363854)
(-0.993107 0.598166 -0.374227)
(-1.00596 0.584667 -0.369082)
(-0.949593 0.464619 -0.320209)
(-1.01875 0.526905 -0.363511)
(-0.989794 0.504101 -0.336811)
(-1.04622 0.542958 -0.372011)
(-0.97073 0.594852 -0.363905)
(-0.941393 0.550788 -0.347612)
(-0.904702 0.441754 -0.302946)
(-0.99677 0.490131 -0.344724)
(-0.991309 0.502697 -0.343808)
(-0.951607 0.530293 -0.325656)
(-0.933541 0.543348 -0.314566)
(-0.901114 0.495064 -0.309057)
(-0.799903 0.528933 -0.319953)
(-0.719481 0.52335 -0.264613)
(-0.55597 0.522659 -0.222658)
(-0.5071 0.508892 -0.20928)
(-0.605629 0.536972 -0.227771)
(-0.561608 0.520816 -0.228666)
(-0.749369 0.521676 -0.311233)
(-0.790522 0.520053 -0.335617)
(-0.758019 0.552163 -0.320547)
(-0.716546 0.537183 -0.286446)
(-0.519676 0.503436 -0.223229)
(-0.623323 0.524778 -0.26829)
(-0.540402 0.529242 -0.248568)
(-0.576266 0.524071 -0.23611)
(-0.755952 0.540184 -0.31317)
(-0.572379 0.514586 -0.249466)
(-0.601162 0.536906 -0.279265)
(-0.897959 0.561797 -0.357161)
(-0.913146 0.544763 -0.35014)
(-0.784405 0.557024 -0.312629)
(-0.758356 0.558154 -0.318829)
(-0.898323 0.534594 -0.353517)
(-0.947302 0.57896 -0.381332)
(-0.969832 0.557067 -0.368574)
(-0.940225 0.548796 -0.381898)
(-0.809298 0.532737 -0.36963)
(-0.781789 0.58404 -0.325525)
(-0.771386 0.553603 -0.346163)
(-0.73123 0.554946 -0.327699)
(-0.936808 0.554739 -0.382433)
(-0.854864 0.548373 -0.370366)
(-0.968919 0.563598 -0.384218)
(-0.95544 0.547532 -0.3712)
(-0.851061 0.538145 -0.376659)
(-0.737436 0.569381 -0.339721)
(-0.553503 0.489259 -0.128008)
(-0.492689 0.478136 -0.103073)
(-0.49217 0.461737 -0.0857991)
(-0.500375 0.493443 -0.118063)
(-0.451246 0.470728 -0.0910986)
(-0.61445 0.471702 -0.135686)
(-0.554335 0.468788 -0.0934547)
(-0.49551 0.446444 -0.0659244)
(-0.431795 0.43476 -0.0460415)
(-0.632787 0.497663 -0.163192)
(-0.458747 0.447611 -0.0653326)
(-0.418432 0.447623 -0.057086)
(-0.501313 0.449979 -0.0776641)
(-0.554241 0.46377 -0.0943198)
(-0.49695 0.464225 -0.0904823)
(-0.569668 0.499404 -0.129863)
(-0.631452 0.472387 -0.127546)
(-0.642875 0.491309 -0.14273)
(-0.419481 0.258955 -0.121596)
(-0.370377 0.238828 -0.118173)
(-0.471411 0.272388 -0.193796)
(-0.464863 0.275381 -0.164019)
(-0.399001 0.247472 -0.127071)
(-0.437725 0.267951 -0.124159)
(-0.422488 0.250421 -0.131093)
(-0.43906 0.261359 -0.116467)
(-0.344294 0.226346 -0.13077)
(-0.537773 0.30787 -0.158005)
(-0.483087 0.262221 -0.138034)
(-0.472682 0.263675 -0.14946)
(-0.492473 0.265742 -0.190274)
(-0.494152 0.258381 -0.16864)
(-0.43844 0.259864 -0.18008)
(-0.560409 0.284678 -0.199321)
(-0.586303 0.297104 -0.19241)
(-0.511278 0.298084 -0.125298)
(-0.627294 0.326257 -0.186843)
(-0.534334 0.309959 -0.133207)
(-0.516494 0.285089 -0.128839)
(-0.577542 0.693394 -0.214071)
(-0.555226 0.689235 -0.200182)
(-0.401887 0.621327 -0.114685)
(-0.430565 0.657011 -0.129498)
(-0.438339 0.601953 -0.111797)
(-0.516049 0.641387 -0.125067)
(-0.416137 0.62978 -0.116487)
(-0.383868 0.599652 -0.0964128)
(-0.484983 0.631213 -0.115631)
(-0.406967 0.580278 -0.100767)
(-0.555 0.683323 -0.189782)
(-0.532868 0.678305 -0.183335)
(-0.563277 0.698667 -0.184298)
(-0.628245 0.714166 -0.194389)
(-0.456416 0.63825 -0.122131)
(-0.478617 0.634832 -0.126146)
(-0.585635 0.679603 -0.179974)
(-0.562595 0.661782 -0.194018)
(-0.474901 0.653099 -0.142756)
(-0.514994 0.681824 -0.187688)
(-0.271838 0.631187 -0.18151)
(-0.269543 0.627717 -0.199408)
(-0.205914 0.619259 -0.198843)
(-0.435711 0.223706 -0.0586362)
(-0.418002 0.207557 -0.0649237)
(-0.435119 0.20301 -0.0760818)
(-0.503563 0.253901 -0.07373)
(-0.262793 0.233737 -0.188245)
(-0.233844 0.222588 -0.16987)
(-0.244163 0.21505 -0.154351)
(-0.50972 0.519673 -0.0857136)
(-0.542648 0.517313 -0.105624)
(-0.514709 0.54416 -0.0934822)
(-0.499991 0.447286 -0.0482307)
(-0.550922 0.443357 -0.0580875)
(-0.498169 0.442388 -0.0636643)
(-0.596203 0.474518 -0.12773)
(-0.553402 0.422404 -0.139564)
(-0.545757 0.436322 -0.11672)
(-0.541919 0.469186 -0.18213)
(-0.550274 0.466445 -0.195771)
(-0.519303 0.439162 -0.288605)
(-0.547287 0.4714 -0.304672)
(-0.359949 0.141552 -0.137662)
(-0.322654 0.139913 -0.165256)
(-0.35972 0.135149 -0.148006)
(-0.309794 0.137736 -0.148372)
(-0.26899 0.32027 -0.279191)
(-0.261058 0.350751 -0.276309)
(-0.243752 0.305824 -0.273203)
(-0.251092 0.280794 -0.263882)
(-0.60535 0.453723 -0.32957)
(-0.591033 0.45873 -0.308112)
(-0.639182 0.44807 -0.33117)
(-0.671815 0.280549 -0.245382)
(-0.671156 0.279649 -0.264033)
(-0.637225 0.345358 -0.141439)
(-0.646896 0.341977 -0.164438)
(-0.471748 0.418313 -0.0729697)
(-0.449909 0.437147 -0.0780899)
(-0.472218 0.447354 -0.109784)
(-0.453355 0.580508 -0.0871104)
(-0.417385 0.589428 -0.0818641)
(-0.238448 0.518944 -0.236495)
(-0.252658 0.52846 -0.217658)
(-0.514794 0.417951 -0.0641991)
(-0.490347 0.442552 -0.0710555)
(-0.24308 0.52781 -0.265223)
(-0.221836 0.506453 -0.279862)
(-0.196773 0.488189 -0.289212)
(-0.61594 0.331861 -0.275938)
(-0.671722 0.369893 -0.315556)
(-0.659334 0.321638 -0.27579)
(-0.521214 0.234723 -0.0564842)
(-0.498196 0.220995 -0.0479464)
(-0.349037 0.330054 -0.0433075)
(-0.358144 0.343514 -0.0415382)
(-0.627169 0.364178 -0.310901)
(-0.616376 0.339857 -0.315274)
(-0.673608 0.339224 -0.311938)
(-0.537882 0.382782 -0.0826626)
(-0.513339 0.353994 -0.0614387)
(-0.436372 0.327628 -0.0312774)
(-0.397532 0.284331 -0.0474837)
(-0.43129 0.284817 -0.0525648)
(-0.253331 0.24785 -0.0804917)
(-0.279659 0.270554 -0.0742156)
(-0.369106 0.542613 -0.082885)
(-0.341626 0.514717 -0.0641244)
(-0.365662 0.483702 -0.0557894)