/*--------------------------------*- C++ -*----------------------------------*\
| =========                 |                                                 |
| \\      /  F ield         | OpenFOAM: The Open Source CFD Toolbox           |
|  \\    /   O peration     | Version:  v1612+                                |
|   \\  /    A nd           | Web:      www.OpenFOAM.com                      |
|    \\/     M anipulation  |                                                 |
\*---------------------------------------------------------------------------*/
FoamFile
{
    version     2.0;
    format      ascii;
    class       volVectorField;
    location    "206";
    object      U;
}
// * * * * * * * * * * * * * * * * * * * * * * * * * * * * * * * * * * * * * //

dimensions      [0 1 -1 0 0 0 0];

internalField   nonuniform List<vector> 
19064
(
(-0.100951 0.644989 0.161183)
(-0.12469 0.434083 0.0669444)
(-0.136331 0.462326 0.0663186)
(-0.146991 0.547921 0.080977)
(-0.165455 0.610132 0.0876202)
(-0.162297 0.615349 0.0829394)
(-0.166336 0.550992 0.075871)
(-0.16016 0.566059 0.0755173)
(-0.155055 0.541565 0.0685183)
(-0.141417 0.502138 0.0814428)
(-0.140484 0.550322 0.0894865)
(-0.123428 0.498758 0.0868066)
(-0.128173 0.433849 0.0628496)
(-0.105962 0.396164 0.0633551)
(-0.125983 0.491052 0.0866119)
(-0.103691 0.408986 0.0731966)
(-0.133913 0.483305 0.0656547)
(-0.123015 0.473129 0.0773233)
(-0.110546 0.429315 0.0694828)
(-0.168343 0.552681 0.162285)
(-0.150021 0.508826 0.142478)
(-0.15467 0.523126 0.151343)
(-0.196687 0.656913 0.196577)
(-0.187031 0.64157 0.208278)
(-0.172306 0.623475 0.178551)
(-0.194393 0.661995 0.191679)
(-0.140664 0.504266 0.141424)
(-0.169408 0.617561 0.202191)
(-0.183326 0.667418 0.21327)
(-0.197438 0.665977 0.201296)
(-0.228736 1.03968 0.217472)
(-0.225065 1.03723 0.213173)
(-0.248822 1.04283 0.205752)
(-0.247661 0.999473 0.187193)
(-0.226305 1.04119 0.21929)
(-0.217097 1.02626 0.225352)
(-0.23558 1.01242 0.199958)
(-0.240427 1.01396 0.190766)
(-0.276885 0.650402 0.0370245)
(-0.273659 0.646379 0.0560253)
(-0.283617 0.667797 0.0212603)
(-0.291049 0.677792 0.0486462)
(-0.280001 0.667602 0.0620177)
(-0.270156 0.599395 0.0308915)
(-0.268268 0.601187 0.0416215)
(-0.294124 0.670623 0.0105476)
(-0.29191 0.679422 0.0392484)
(-0.279855 0.615048 0.108583)
(-0.270736 0.593868 0.0899154)
(-0.274688 0.598988 0.0580259)
(-0.281617 0.648334 0.0833971)
(-0.296511 0.706757 0.0537618)
(-0.272941 0.606401 0.0513124)
(-0.279756 0.622949 0.0824018)
(-0.274161 0.589692 0.0996569)
(-0.288348 0.674356 0.0703664)
(-0.333499 0.97823 0.123211)
(-0.331873 0.978324 0.123919)
(-0.311036 0.972615 0.137425)
(-0.315447 0.979415 0.139031)
(-0.327945 0.980459 0.129243)
(-0.325074 0.983216 0.138952)
(-0.335767 0.993417 0.134688)
(-0.335394 0.984261 0.121538)
(-0.333457 0.969317 0.118279)
(-0.317907 0.962677 0.130695)
(-0.300167 0.935872 0.13497)
(-0.342882 1.00007 0.125465)
(-0.350666 1.00105 0.138143)
(-0.320026 0.978343 0.144648)
(-0.338203 1.00328 0.146146)
(-0.344544 0.996957 0.134299)
(-0.324233 0.957616 0.131753)
(-0.317332 0.955579 0.139415)
(-0.335535 0.977527 0.129866)
(-0.337686 0.983119 0.137383)
(-0.33235 0.964338 0.137448)
(-0.318252 0.92772 0.145515)
(-0.333526 0.968873 0.14491)
(-0.340091 0.983002 0.145995)
(-0.325963 0.976814 0.149027)
(-0.346945 0.999722 0.140749)
(-0.194028 0.720102 0.104955)
(-0.236854 0.828814 0.12709)
(-0.233472 0.716518 0.0873439)
(-0.245652 0.7543 0.0836093)
(-0.204746 0.731662 0.112268)
(-0.216849 0.786932 0.121359)
(-0.24936 0.793783 0.0902233)
(-0.228944 0.779736 0.101325)
(-0.228295 0.710491 0.0892327)
(-0.222819 0.724254 0.0919759)
(-0.19473 0.683068 0.0964534)
(-0.200457 0.665792 0.0842093)
(-0.217216 0.73748 0.0935201)
(-0.236858 0.766132 0.0910576)
(-0.143387 0.562154 0.0872614)
(-0.134941 0.551666 0.092488)
(-0.151345 0.583493 0.0953789)
(-0.152241 0.589995 0.0864271)
(-0.130629 0.502686 0.0836222)
(-0.115872 0.459702 0.0793211)
(-0.150487 0.508129 0.0779182)
(-0.169122 0.53384 0.0879438)
(-0.139844 0.513651 0.086726)
(-0.125526 0.47898 0.0784816)
(-0.167964 0.583803 0.0849195)
(-0.146286 0.545136 0.0853902)
(-0.146819 0.496374 0.0846147)
(-0.34973 0.897271 0.0575012)
(-0.349631 0.907141 0.0556703)
(-0.357332 0.877928 0.0371847)
(-0.364328 0.950474 0.0622989)
(-0.358207 0.920546 0.0616813)
(-0.356368 0.910801 0.0613078)
(-0.338476 0.891218 0.060899)
(-0.33761 0.883525 0.0436544)
(-0.36473 0.972935 0.0776879)
(-0.346046 0.93128 0.0764619)
(-0.347985 0.918144 0.0669777)
(-0.355837 0.931454 0.0624992)
(-0.364166 0.905805 0.055055)
(-0.361928 0.907936 0.0483554)
(-0.369609 0.972674 0.0661089)
(-0.367911 0.974026 0.0728968)
(-0.363411 0.935865 0.0706022)
(-0.364449 0.971975 0.0774522)
(-0.357479 0.967465 0.0787273)
(-0.354889 0.92184 0.0700221)
(-0.277119 0.960202 0.162213)
(-0.277029 0.989701 0.1843)
(-0.283023 0.985587 0.180451)
(-0.281594 0.980389 0.1758)
(-0.290197 0.987779 0.188817)
(-0.292607 0.97983 0.177304)
(-0.277463 0.935001 0.151405)
(-0.269619 0.930659 0.147413)
(-0.265268 0.932283 0.156693)
(-0.266143 0.900855 0.131686)
(-0.286932 0.971677 0.172308)
(-0.282718 0.966204 0.171377)
(-0.295497 0.972463 0.175757)
(-0.272787 0.9262 0.157617)
(-0.273381 0.893528 0.14032)
(-0.271146 0.895946 0.134927)
(-0.279382 0.925731 0.148774)
(-0.273823 0.926676 0.151722)
(-0.28934 0.937903 0.156919)
(-0.307435 0.988367 0.189165)
(-0.29221 0.960459 0.171949)
(-0.291314 0.960666 0.172148)
(-0.21362 0.55103 0.118146)
(-0.205146 0.531259 0.126683)
(-0.227003 0.641713 0.0967502)
(-0.217568 0.632304 0.0817371)
(-0.210801 0.559025 0.125854)
(-0.201825 0.521846 0.117525)
(-0.207284 0.524315 0.125162)
(-0.230616 0.667811 0.111316)
(-0.225696 0.650108 0.0964873)
(-0.21714 0.6126 0.115315)
(-0.219152 0.626109 0.107084)
(-0.223069 0.599604 0.111917)
(-0.219421 0.608706 0.0999825)
(-0.226209 0.613198 0.107029)
(-0.22226 0.606802 0.117502)
(-0.206815 0.558088 0.119658)
(-0.225888 0.644221 0.115784)
(-0.221198 0.622475 0.121706)
(-0.20603 0.554403 0.111679)
(-0.199184 0.54624 0.109504)
(-0.212454 0.557388 0.133474)
(-0.35555 0.961914 0.107389)
(-0.344828 0.924844 0.108513)
(-0.349644 0.915041 0.085675)
(-0.346164 0.958269 0.0949644)
(-0.348313 0.960444 0.113597)
(-0.351926 0.978919 0.116731)
(-0.337947 0.962772 0.129161)
(-0.339985 0.971498 0.123318)
(-0.338042 0.940144 0.103605)
(-0.332275 0.945932 0.111006)
(-0.332713 0.872496 0.0806591)
(-0.329083 0.87527 0.0908996)
(-0.324244 0.875343 0.0921208)
(-0.352383 0.966136 0.106151)
(-0.340094 0.912718 0.0926749)
(-0.344343 0.932383 0.0884716)
(-0.34812 0.975945 0.116054)
(-0.328193 0.900645 0.0975282)
(-0.321272 0.850212 0.0780412)
(-0.330318 0.877021 0.0775776)
(-0.324093 0.896766 0.0952762)
(-0.339441 0.931388 0.0905681)
(-0.343227 0.964634 0.106466)
(-0.297291 1.01061 0.183208)
(-0.292298 0.999602 0.18313)
(-0.283287 1.00125 0.192116)
(-0.300766 1.02603 0.191208)
(-0.277059 1.01583 0.201852)
(-0.264298 0.993732 0.203888)
(-0.285334 1.00498 0.189017)
(-0.289817 0.993997 0.180514)
(-0.279211 1.01143 0.190743)
(-0.284471 1.01616 0.197341)
(-0.288753 1.00869 0.188376)
(-0.345799 0.9666 0.144878)
(-0.368651 0.986183 0.120874)
(-0.323639 0.951383 0.16621)
(-0.342009 0.975316 0.136073)
(-0.286749 0.913021 0.169613)
(-0.318141 0.952552 0.169242)
(-0.338499 0.949787 0.112338)
(-0.291723 0.927171 0.143229)
(-0.305061 0.942089 0.153095)
(-0.297755 0.925354 0.1645)
(-0.33869 0.970064 0.16828)
(-0.350406 0.977987 0.150114)
(-0.294166 0.931773 0.144861)
(-0.234679 0.949237 0.18251)
(-0.22393 0.928042 0.165712)
(-0.237341 0.909699 0.149958)
(-0.231386 0.9189 0.155849)
(-0.226008 0.954708 0.178319)
(-0.2354 0.982867 0.19536)
(-0.247472 0.947852 0.162431)
(-0.235165 0.936962 0.15347)
(-0.235677 0.906617 0.145547)
(-0.232088 0.973255 0.17773)
(-0.263822 0.579756 0.118203)
(-0.261282 0.574244 0.109174)
(-0.249727 0.549571 0.12846)
(-0.276524 0.614751 0.111656)
(-0.271342 0.662507 0.125805)
(-0.280719 0.691919 0.100989)
(-0.269114 0.644067 0.130999)
(-0.263092 0.625464 0.150371)
(-0.267355 0.632722 0.105661)
(-0.26996 0.588983 0.1023)
(-0.24658 0.568688 0.150908)
(-0.261701 0.588722 0.128565)
(-0.274915 0.895852 0.170651)
(-0.284672 0.908311 0.156495)
(-0.22086 0.81455 0.179789)
(-0.202204 0.780234 0.161902)
(-0.266182 0.879374 0.165561)
(-0.204303 0.808708 0.189168)
(-0.213649 0.822553 0.181648)
(-0.198009 0.775581 0.171816)
(-0.225709 0.838846 0.155489)
(-0.225961 0.817779 0.164954)
(-0.177419 0.745245 0.141027)
(-0.163855 0.728351 0.150759)
(-0.23546 0.847527 0.178616)
(-0.217818 0.824083 0.161268)
(-0.186677 0.758664 0.15624)
(-0.161917 0.707403 0.154372)
(-0.204053 0.777311 0.174253)
(-0.166476 0.709528 0.173868)
(-0.228509 0.611661 0.0701052)
(-0.209626 0.593774 0.0690539)
(-0.209612 0.568736 0.0722751)
(-0.194576 0.502349 0.0695523)
(-0.229014 0.600815 0.0640014)
(-0.216936 0.595418 0.059864)
(-0.203329 0.466561 0.0967467)
(-0.221424 0.559685 0.094019)
(-0.212103 0.534011 0.0926185)
(-0.232835 0.616151 0.078302)
(-0.179378 0.420655 0.0813399)
(-0.181541 0.420712 0.0869892)
(-0.20387 0.515465 0.0661665)
(-0.189598 0.480805 0.05941)
(-0.213896 0.515301 0.0945216)
(-0.182867 0.424669 0.0834864)
(-0.21059 0.495208 0.0765428)
(-0.334293 0.934181 0.221726)
(-0.309443 0.883654 0.218257)
(-0.345975 0.957871 0.205032)
(-0.344813 0.9606 0.201636)
(-0.325936 0.920361 0.211466)
(-0.333371 0.94004 0.207505)
(-0.333937 0.939816 0.209868)
(-0.355946 1.00549 0.180467)
(-0.357388 0.999573 0.171707)
(-0.336756 0.935842 0.200158)
(-0.327099 0.914038 0.214854)
(-0.322872 0.91756 0.217531)
(-0.355931 1.01704 0.185723)
(-0.350996 0.99246 0.18659)
(-0.34576 0.985542 0.174982)
(-0.32628 0.925939 0.203966)
(-0.35189 1.01057 0.177611)
(-0.336093 0.958589 0.190171)
(-0.343362 1.00436 0.146904)
(-0.350256 0.999456 0.138102)
(-0.333752 0.987755 0.154713)
(-0.332257 1.00391 0.155143)
(-0.333163 0.985774 0.156837)
(-0.345549 0.996282 0.141009)
(-0.348848 0.995537 0.134747)
(-0.341131 1.00321 0.140614)
(-0.331582 0.968899 0.156586)
(-0.324002 0.973921 0.149814)
(-0.318964 0.940484 0.149173)
(-0.340663 0.987465 0.153709)
(-0.315614 0.913569 0.157142)
(-0.335483 0.973473 0.149694)
(-0.336419 0.960825 0.153075)
(-0.238588 0.761895 0.150587)
(-0.239987 0.738861 0.162891)
(-0.230993 0.767238 0.216228)
(-0.239624 0.764385 0.193341)
(-0.236165 0.743911 0.171455)
(-0.242047 0.774939 0.153607)
(-0.234401 0.796693 0.214226)
(-0.22459 0.783009 0.230105)
(-0.232905 0.747244 0.17333)
(-0.231782 0.836999 0.200252)
(-0.233919 0.816915 0.198198)
(-0.240477 0.778776 0.1501)
(-0.233145 0.765998 0.165246)
(-0.230087 0.841238 0.223766)
(-0.229624 0.807267 0.226263)
(-0.226067 0.809457 0.235528)
(-0.229029 0.809382 0.225228)
(-0.22997 0.768824 0.210908)
(-0.243 0.83279 0.183486)
(-0.142622 0.39454 0.0992948)
(-0.150383 0.398222 0.108516)
(-0.146408 0.410868 0.097564)
(-0.156151 0.425683 0.107046)
(-0.168986 0.445152 0.122451)
(-0.170112 0.443598 0.120687)
(-0.147077 0.410772 0.0984897)
(-0.197503 0.545673 0.130506)
(-0.192273 0.517851 0.129917)
(-0.175397 0.494322 0.103633)
(-0.18497 0.517853 0.106066)
(-0.205458 0.561738 0.122643)
(-0.19943 0.543045 0.111925)
(-0.199858 0.542166 0.105213)
(-0.180161 0.703416 0.118039)
(-0.171688 0.673159 0.109058)
(-0.147747 0.640133 0.105291)
(-0.173806 0.65687 0.106376)
(-0.135308 0.568959 0.101888)
(-0.134011 0.566779 0.0999284)
(-0.124827 0.494636 0.0874565)
(-0.120659 0.554352 0.104963)
(-0.193828 0.69508 0.0978742)
(-0.171548 0.610807 0.0876354)
(-0.178345 0.607888 0.0873382)
(-0.116112 0.521489 0.0921142)
(-0.158999 0.566856 0.0800082)
(-0.175631 0.625021 0.0909206)
(-0.187462 0.402138 0.135515)
(-0.191298 0.41853 0.130789)
(-0.205758 0.477123 0.121727)
(-0.217464 0.506757 0.126577)
(-0.227079 0.522972 0.133352)
(-0.228543 0.54149 0.132293)
(-0.221585 0.515822 0.130227)
(-0.199744 0.436546 0.14008)
(-0.161911 0.357146 0.132344)
(-0.183585 0.406864 0.144177)
(-0.173469 0.3812 0.144408)
(-0.213094 0.50196 0.156184)
(-0.223881 0.525888 0.156462)
(-0.222404 0.522915 0.160879)
(-0.22736 0.53112 0.147686)
(-0.17671 0.396273 0.13544)
(-0.189709 0.419522 0.133548)
(-0.211329 0.494442 0.136233)
(-0.20292 0.464503 0.162702)
(-0.19285 0.431646 0.161718)
(-0.19779 0.453943 0.163845)
(-0.19665 0.455618 0.155946)
(-0.0890565 0.377407 0.0608096)
(-0.0780187 0.348124 0.0558955)
(-0.0959723 0.40055 0.0649322)
(-0.0872633 0.387958 0.0568161)
(-0.116893 0.450158 0.0762342)
(-0.127679 0.464578 0.0787272)
(-0.105325 0.404839 0.0700389)
(-0.144313 0.481728 0.0971752)
(-0.150055 0.496162 0.105125)
(-0.0788072 0.345975 0.0565344)
(-0.125684 0.476966 0.079721)
(-0.0984936 0.403145 0.0667083)
(-0.0992716 0.381314 0.0729377)
(-0.073065 0.340289 0.0530621)
(-0.117934 0.422283 0.0817816)
(-0.0917754 0.362134 0.0671391)
(-0.131857 0.430659 0.0905313)
(-0.135906 0.445147 0.0879752)
(-0.0903356 0.360818 0.0696003)
(-0.143836 0.502382 0.0878167)
(-0.145906 0.515819 0.0905023)
(-0.106781 0.391943 0.0731253)
(-0.217152 0.918362 0.259876)
(-0.207655 0.887657 0.253606)
(-0.210972 0.879821 0.251022)
(-0.204236 0.907408 0.267686)
(-0.176227 0.859312 0.277586)
(-0.162631 0.791996 0.278091)
(-0.171012 0.792808 0.288562)
(-0.158425 0.757967 0.282095)
(-0.205157 0.888411 0.259055)
(-0.205111 0.830704 0.266685)
(-0.194664 0.839477 0.280744)
(-0.177021 0.796242 0.285632)
(-0.189562 0.856909 0.269323)
(-0.161205 0.810539 0.28566)
(-0.194355 0.89473 0.275119)
(-0.179813 0.835724 0.28569)
(-0.167985 0.864763 0.287438)
(-0.16466 0.82639 0.282569)
(-0.256652 0.741598 0.0841322)
(-0.264969 0.76372 0.0853265)
(-0.263244 0.775672 0.0887117)
(-0.283319 0.814626 0.0844664)
(-0.300094 0.861597 0.106888)
(-0.290006 0.848191 0.107644)
(-0.261122 0.731582 0.0786878)
(-0.261619 0.769213 0.0853468)
(-0.287283 0.827048 0.103444)
(-0.27438 0.796018 0.0933581)
(-0.274896 0.811828 0.103328)
(-0.256821 0.793113 0.107051)
(-0.274738 0.818065 0.117869)
(-0.28108 0.832095 0.112389)
(-0.275228 0.829103 0.10906)
(-0.270028 0.813218 0.107125)
(-0.253165 0.746159 0.0978852)
(-0.266428 0.804207 0.103847)
(-0.258072 0.759232 0.0964928)
(-0.3539 0.983406 0.159878)
(-0.345742 0.967965 0.157532)
(-0.343338 0.984831 0.173544)
(-0.332601 0.967204 0.183746)
(-0.330796 0.963612 0.175192)
(-0.35411 0.983343 0.165716)
(-0.35773 1.00437 0.169582)
(-0.346661 0.986007 0.160774)
(-0.35549 0.990307 0.173135)
(-0.341234 0.984268 0.182696)
(-0.291224 0.897132 0.209245)
(-0.269592 0.850498 0.209322)
(-0.291811 0.89664 0.207847)
(-0.297182 0.916538 0.211936)
(-0.339812 0.961882 0.170115)
(-0.310361 0.938028 0.199731)
(-0.310463 0.912871 0.204511)
(-0.3145 0.912589 0.198336)
(-0.329857 0.939238 0.197959)
(-0.301888 0.932358 0.21413)
(-0.305272 0.915369 0.217522)
(-0.283208 0.856359 0.211723)
(-0.332434 0.964695 0.181595)
(-0.307704 0.904316 0.211448)
(-0.345688 0.997271 0.189603)
(-0.342029 0.983472 0.201225)
(-0.349247 0.971336 0.150085)
(-0.339428 0.962712 0.153867)
(-0.33962 0.967921 0.159731)
(-0.344364 0.963377 0.150085)
(-0.342625 0.99464 0.190739)
(-0.350089 0.99958 0.194527)
(-0.352285 1.00361 0.189231)
(-0.340431 0.980753 0.17421)
(-0.343159 0.96589 0.16108)
(-0.346734 0.983824 0.176988)
(-0.342823 0.980472 0.17116)
(-0.330866 0.982287 0.206137)
(-0.329489 0.977945 0.208456)
(-0.332702 0.977221 0.211486)
(-0.345711 0.994787 0.207894)
(-0.336345 0.980319 0.196753)
(-0.339636 0.994497 0.200824)
(-0.338874 0.989822 0.181074)
(-0.340164 0.996102 0.212528)
(-0.336464 0.991353 0.197191)
(-0.308558 0.970466 0.149582)
(-0.295434 0.929737 0.141604)
(-0.315302 0.985246 0.147183)
(-0.295366 0.972623 0.151641)
(-0.286191 0.937591 0.138814)
(-0.33034 0.989717 0.136612)
(-0.318225 0.987604 0.135656)
(-0.32373 0.980559 0.12475)
(-0.309903 0.977816 0.138613)
(-0.300091 0.977014 0.142727)
(-0.303369 0.980874 0.14905)
(-0.310908 0.980956 0.138652)
(-0.314256 0.987869 0.134512)
(-0.17054 0.834871 0.276364)
(-0.213731 0.894301 0.230104)
(-0.21479 0.906829 0.236842)
(-0.210093 0.864324 0.259933)
(-0.212923 0.871162 0.223675)
(-0.194288 0.927922 0.260289)
(-0.193656 0.938796 0.261745)
(-0.213968 0.960892 0.250412)
(-0.219726 0.951785 0.233522)
(-0.183499 0.87995 0.275677)
(-0.181103 0.872419 0.284377)
(-0.212273 0.880023 0.251707)
(-0.219135 0.871758 0.224237)
(-0.186578 0.889074 0.274949)
(-0.18187 0.890079 0.274261)
(-0.212808 0.912714 0.248964)
(-0.250422 0.729098 0.0864699)
(-0.233765 0.659075 0.083166)
(-0.237781 0.708374 0.104215)
(-0.241861 0.689006 0.106421)
(-0.239894 0.700707 0.0940326)
(-0.242347 0.68547 0.0978308)
(-0.248827 0.74632 0.104213)
(-0.245843 0.686235 0.0955545)
(-0.242019 0.664782 0.0880005)
(-0.247857 0.697011 0.0725464)
(-0.242318 0.683048 0.103425)
(-0.245573 0.74571 0.103438)
(-0.242457 0.690729 0.0917646)
(-0.25057 0.962251 0.196006)
(-0.254528 0.934705 0.183114)
(-0.24789 0.907446 0.167618)
(-0.244832 0.951036 0.190494)
(-0.241482 0.922077 0.182387)
(-0.2412 0.992611 0.215634)
(-0.237757 0.984562 0.217019)
(-0.265941 0.986592 0.191886)
(-0.25606 1.02338 0.210779)
(-0.256949 0.915549 0.174723)
(-0.247809 0.893823 0.156839)
(-0.245132 0.891667 0.155073)
(-0.240797 0.910988 0.178136)
(-0.240319 0.958027 0.196859)
(-0.255705 1.00031 0.204393)
(-0.239096 0.993339 0.219387)
(-0.241055 1.00491 0.22296)
(-0.250568 1.0141 0.213545)
(-0.256918 0.982352 0.187167)
(-0.253263 1.01508 0.211421)
(-0.2442 0.899971 0.160862)
(-0.239669 0.922752 0.177849)
(-0.260667 1.01801 0.208644)
(-0.256547 0.923546 0.161797)
(-0.249061 0.906929 0.165264)
(-0.265618 0.953225 0.165881)
(-0.247499 0.958011 0.1694)
(-0.240505 0.932594 0.165301)
(-0.267244 0.968454 0.165115)
(-0.280766 0.989937 0.164574)
(-0.255906 0.97705 0.167152)
(-0.254581 0.962541 0.162022)
(-0.289977 0.996009 0.162678)
(-0.282553 0.996498 0.167881)
(-0.254213 0.910547 0.162326)
(-0.283797 0.985032 0.162385)
(-0.292158 0.989445 0.153563)
(-0.287038 0.984519 0.152678)
(-0.292628 0.984464 0.154798)
(-0.276412 0.956538 0.159388)
(-0.2535 0.936805 0.163095)
(-0.273751 1.00053 0.170628)
(-0.292491 0.984783 0.149209)
(-0.281869 0.973229 0.158145)
(-0.263672 0.960989 0.158782)
(-0.355905 0.948003 0.0578307)
(-0.36249 0.936395 0.0444389)
(-0.367497 0.948532 0.0514389)
(-0.310169 0.989138 0.154327)
(-0.311744 1.00149 0.1626)
(-0.310696 0.960185 0.140355)
(-0.311102 0.982605 0.14727)
(-0.313831 0.993645 0.157374)
(-0.316848 0.99787 0.150306)
(-0.330259 0.993625 0.139907)
(-0.337716 1.01175 0.155938)
(-0.333764 1.01024 0.154303)
(-0.318856 0.973762 0.142457)
(-0.332778 1.00522 0.156637)
(-0.321725 0.997412 0.164748)
(-0.31792 0.995892 0.154154)
(-0.333562 0.993116 0.141454)
(-0.328158 0.995958 0.153804)
(-0.320882 0.996499 0.157999)
(-0.177401 0.580387 0.070624)
(-0.14206 0.474618 0.0639814)
(-0.138636 0.504594 0.0672441)
(-0.165275 0.569049 0.0705304)
(-0.171514 0.597238 0.0668701)
(-0.12078 0.461587 0.0745274)
(-0.172626 0.64678 0.0845909)
(-0.139863 0.555755 0.0826535)
(-0.239577 0.724281 0.0947297)
(-0.229806 0.64377 0.129996)
(-0.224016 0.597863 0.118442)
(-0.229265 0.640676 0.132118)
(-0.226068 0.618517 0.126416)
(-0.232281 0.660801 0.136324)
(-0.226838 0.644358 0.133084)
(-0.235577 0.685887 0.107767)
(-0.241586 0.699899 0.102381)
(-0.227025 0.656701 0.120371)
(-0.233711 0.651832 0.108462)
(-0.233592 0.62972 0.104439)
(-0.223152 0.611507 0.130137)
(-0.219724 0.60778 0.111769)
(-0.218221 0.709445 0.0905784)
(-0.205622 0.633205 0.0889777)
(-0.211314 0.678371 0.0864059)
(-0.192787 0.636579 0.0842194)
(-0.201327 0.659241 0.0864461)
(-0.152333 0.536697 0.0887425)
(-0.148577 0.499163 0.0818634)
(-0.170495 0.583991 0.0883485)
(-0.164998 0.526088 0.0828083)
(-0.196541 0.652853 0.0948557)
(-0.192266 0.599695 0.0893827)
(-0.192726 0.655554 0.0941521)
(-0.142892 0.486812 0.0820197)
(-0.186916 0.558873 0.0840683)
(-0.161111 0.504583 0.0835668)
(-0.173971 0.538051 0.0877565)
(-0.176168 0.541703 0.0841017)
(-0.271412 0.965708 0.16057)
(-0.288795 0.982987 0.159867)
(-0.231813 0.944833 0.185976)
(-0.215833 0.913886 0.184886)
(-0.276793 0.984738 0.168969)
(-0.284771 0.987501 0.161997)
(-0.236544 0.939026 0.17327)
(-0.257154 0.963564 0.174604)
(-0.232769 0.922859 0.179193)
(-0.255775 0.973562 0.178554)
(-0.264783 0.98147 0.174423)
(-0.248148 0.958289 0.177992)
(-0.285458 0.997379 0.169367)
(-0.275474 1.01937 0.203175)
(-0.276156 1.03173 0.207671)
(-0.283115 1.00502 0.193474)
(-0.284541 1.02471 0.202947)
(-0.270134 1.00391 0.193603)
(-0.263304 1.01251 0.196663)
(-0.271062 1.02386 0.199509)
(-0.282028 1.01079 0.188362)
(-0.264061 0.989282 0.193156)
(-0.267076 0.959672 0.17867)
(-0.264911 1.01975 0.202214)
(-0.268456 1.04057 0.21294)
(-0.277667 0.96803 0.177267)
(-0.27298 1.01142 0.19389)
(-0.282828 1.00762 0.19346)
(-0.275324 0.902712 0.239168)
(-0.245352 0.842435 0.23812)
(-0.319366 0.96426 0.190923)
(-0.297936 0.946453 0.197376)
(-0.251576 0.847322 0.242015)
(-0.236418 0.81589 0.233582)
(-0.306155 0.949044 0.221661)
(-0.269816 0.892257 0.236814)
(-0.291221 0.939784 0.209043)
(-0.292013 0.925671 0.217326)
(-0.286576 0.91641 0.232461)
(-0.28784 0.937215 0.206343)
(-0.261159 0.901464 0.208591)
(-0.27519 0.902815 0.230134)
(-0.248379 0.854347 0.231613)
(-0.288241 0.911688 0.234754)
(-0.281122 0.901111 0.241177)
(-0.237045 0.833427 0.224571)
(-0.210307 0.781027 0.24092)
(-0.241799 0.859084 0.214704)
(-0.22618 0.825824 0.228373)
(-0.24404 0.855712 0.232157)
(-0.208829 0.854982 0.237169)
(-0.182493 0.78127 0.246335)
(-0.223215 0.853144 0.21997)
(-0.251734 0.808134 0.156517)
(-0.255211 0.820733 0.159967)
(-0.254923 0.798511 0.16474)
(-0.254941 0.813679 0.141279)
(-0.249163 0.868952 0.186269)
(-0.243627 0.871452 0.200156)
(-0.198714 0.77035 0.25198)
(-0.207819 0.765931 0.24416)
(-0.211414 0.747651 0.231505)
(-0.247705 0.834744 0.18779)
(-0.243602 0.826076 0.170915)
(-0.249811 0.815009 0.152737)
(-0.251166 0.886678 0.192329)
(-0.207468 0.830945 0.24548)
(-0.235618 0.786376 0.228063)
(-0.225463 0.851397 0.211752)
(-0.24117 0.806894 0.199067)
(-0.153453 0.589032 0.0672301)
(-0.142072 0.580435 0.0738138)
(-0.203749 0.695677 0.0671911)
(-0.165463 0.695028 0.119678)
(-0.149345 0.620811 0.113321)
(-0.183061 0.723386 0.12154)
(-0.181757 0.725798 0.111926)
(-0.204358 0.729152 0.0781868)
(-0.224125 0.799011 0.0990872)
(-0.158855 0.6491 0.0850156)
(-0.152633 0.595295 0.0702193)
(-0.244726 0.825594 0.110943)
(-0.228042 0.797516 0.102124)
(-0.15642 0.660575 0.101284)
(-0.13889 0.579465 0.078678)
(-0.127278 0.554228 0.0901286)
(-0.186645 0.728042 0.111002)
(-0.231849 0.806769 0.105816)
(-0.255225 0.863314 0.101378)
(-0.166343 0.687381 0.0801131)
(-0.159415 0.639779 0.0754585)
(-0.145481 0.599046 0.0650903)
(-0.18773 0.731304 0.0698083)
(-0.18496 0.722281 0.0760093)
(-0.243755 0.777072 0.0474092)
(-0.251032 0.8098 0.0520758)
(-0.169452 0.663463 0.063302)
(-0.163764 0.626281 0.060239)
(-0.235803 0.782165 0.0531382)
(-0.227652 0.784903 0.0559209)
(-0.245922 0.810029 0.0583215)
(-0.238114 0.778291 0.0553004)
(-0.163544 0.646444 0.0599748)
(-0.20037 0.72484 0.0551123)
(-0.174346 0.642699 0.0551246)
(-0.232243 0.592391 0.186761)
(-0.213511 0.566838 0.185568)
(-0.194284 0.521036 0.193939)
(-0.215578 0.558328 0.188835)
(-0.208538 0.543142 0.191478)
(-0.214358 0.543076 0.188961)
(-0.226964 0.542386 0.18316)
(-0.229077 0.559474 0.17287)
(-0.226125 0.54152 0.180143)
(-0.199802 0.588708 0.0594891)
(-0.210081 0.628542 0.0557642)
(-0.198042 0.533931 0.051152)
(-0.189484 0.545896 0.0588427)
(-0.14677 0.438188 0.053894)
(-0.149792 0.430367 0.0542153)
(-0.137572 0.405394 0.0585639)
(-0.150612 0.476078 0.0486373)
(-0.146997 0.444169 0.0500309)
(-0.163664 0.482612 0.0493351)
(-0.159993 0.49433 0.0491933)
(-0.187467 0.587544 0.0543068)
(-0.194129 0.529628 0.057455)
(-0.156124 0.483767 0.04708)
(-0.173058 0.525195 0.0469703)
(-0.194834 0.564763 0.0439779)
(-0.16656 0.459554 0.0528702)
(-0.190494 0.535348 0.0474162)
(-0.248232 0.863446 0.190803)
(-0.220347 0.780154 0.202395)
(-0.266564 0.884189 0.180091)
(-0.254342 0.865757 0.186582)
(-0.252735 0.826071 0.199739)
(-0.235679 0.81683 0.203284)
(-0.258743 0.868905 0.186563)
(-0.249128 0.841081 0.205292)
(-0.304356 0.913907 0.193644)
(-0.250839 0.820712 0.208922)
(-0.310986 0.940123 0.181681)
(-0.334076 0.958845 0.173533)
(-0.293742 0.900443 0.196704)
(-0.247821 0.791918 0.144464)
(-0.250824 0.757128 0.114507)
(-0.247208 0.750851 0.117013)
(-0.239198 0.664483 0.127654)
(-0.244243 0.702785 0.106725)
(-0.244971 0.775993 0.14912)
(-0.238911 0.738056 0.15863)
(-0.244341 0.64739 0.12512)
(-0.249052 0.692921 0.097626)
(-0.242207 0.697838 0.145451)
(-0.23752 0.689742 0.157238)
(-0.24376 0.709744 0.139)
(-0.247123 0.72991 0.129602)
(-0.252261 0.740063 0.106738)
(-0.243987 0.687239 0.157186)
(-0.243985 0.689623 0.140287)
(-0.295569 0.962221 0.117114)
(-0.286569 0.955684 0.114814)
(-0.294077 0.962713 0.128709)
(-0.295108 0.961564 0.101361)
(-0.311775 0.95379 0.0805461)
(-0.297246 0.950909 0.106518)
(-0.312281 0.960895 0.0912756)
(-0.317964 0.958548 0.0862763)
(-0.35145 0.94931 0.118997)
(-0.363305 0.971885 0.117355)
(-0.354609 0.939571 0.0968701)
(-0.347908 0.919875 0.0885088)
(-0.357703 0.932065 0.0900302)
(-0.356542 0.966568 0.128198)
(-0.371976 0.959948 0.0962274)
(-0.367176 0.93305 0.0890019)
(-0.344057 0.882217 0.089943)
(-0.351453 0.906825 0.0898457)
(-0.360232 0.969869 0.12572)
(-0.364569 0.968787 0.116522)
(-0.3623 0.91349 0.0869678)
(-0.360752 0.910548 0.0959114)
(-0.3545 0.954899 0.115402)
(-0.366535 0.933624 0.0933424)
(-0.345896 0.978136 0.168505)
(-0.340149 0.98602 0.197803)
(-0.323894 0.958299 0.172129)
(-0.322665 0.963908 0.171801)
(-0.327195 0.961502 0.174006)
(-0.329577 0.978817 0.202954)
(-0.296438 0.938567 0.197304)
(-0.302348 0.953855 0.181027)
(-0.274302 0.886745 0.222279)
(-0.271789 0.875605 0.226503)
(-0.309177 0.956551 0.225082)
(-0.295531 0.916713 0.222988)
(-0.302891 0.951953 0.193246)
(-0.296136 0.917785 0.217743)
(-0.361566 0.959074 0.0848643)
(-0.366932 0.987416 0.0921548)
(-0.363356 0.98295 0.087951)
(-0.381542 1.00708 0.0939955)
(-0.384208 1.00399 0.0907437)
(-0.378753 0.999365 0.101636)
(-0.380667 1.00619 0.106393)
(-0.366283 0.991954 0.110274)
(-0.370385 0.997142 0.10733)
(-0.364992 0.981625 0.102667)
(-0.373296 0.987409 0.0976645)
(-0.369602 0.976598 0.0771524)
(-0.371198 0.982289 0.0843486)
(-0.371132 0.967493 0.0827555)
(-0.369679 0.969651 0.0765455)
(-0.358932 0.981246 0.0961789)
(-0.353808 0.967372 0.0921844)
(-0.370236 0.99103 0.102948)
(-0.372966 0.988311 0.0940079)
(-0.365935 0.981124 0.0892071)
(-0.362486 0.939714 0.0837527)
(-0.30499 0.897443 0.115324)
(-0.311427 0.92476 0.120603)
(-0.302299 0.881785 0.117134)
(-0.304221 0.881578 0.110692)
(-0.33432 0.947092 0.123485)
(-0.335592 0.952514 0.123929)
(-0.303766 0.842696 0.0978997)
(-0.304826 0.85925 0.105889)
(-0.325843 0.916041 0.109631)
(-0.317087 0.924007 0.113313)
(-0.334646 0.966362 0.129935)
(-0.315672 0.887132 0.117746)
(-0.307774 0.8667 0.106351)
(-0.317096 0.924203 0.119923)
(-0.32712 0.953031 0.134528)
(-0.331278 0.981774 0.148757)
(-0.337729 0.966387 0.14084)
(-0.325317 0.965313 0.138054)
(-0.314012 0.915985 0.13136)
(-0.307433 0.921278 0.126989)
(-0.246149 0.729217 0.0970054)
(-0.243703 0.71787 0.0879358)
(-0.235737 0.697426 0.0997762)
(-0.239541 0.720199 0.100221)
(-0.231722 0.72846 0.118427)
(-0.246515 0.740835 0.098335)
(-0.236753 0.743177 0.107326)
(-0.261696 0.782266 0.0886906)
(-0.257545 0.795435 0.0989146)
(-0.265851 0.811669 0.102519)
(-0.264825 0.822499 0.111821)
(-0.234976 0.736303 0.115613)
(-0.257541 0.804383 0.107058)
(-0.254595 0.771261 0.0965464)
(-0.275607 0.842216 0.117244)
(-0.260925 0.818996 0.109037)
(-0.24606 0.786309 0.112174)
(-0.269618 0.813136 0.107498)
(-0.367614 1.00173 0.150691)
(-0.356834 1.00241 0.165733)
(-0.36149 0.990372 0.162309)
(-0.34643 0.964463 0.193124)
(-0.362097 0.995938 0.160045)
(-0.362695 0.99704 0.155242)
(-0.359849 1.00737 0.164489)
(-0.330219 0.912823 0.201495)
(-0.331467 0.932175 0.197936)
(-0.344899 0.960692 0.188466)
(-0.353525 0.988542 0.175189)
(-0.35659 0.998968 0.174529)
(-0.362673 0.994504 0.173842)
(-0.323885 0.912618 0.204323)
(-0.30858 0.877785 0.205023)
(-0.344299 0.949967 0.195668)
(-0.319171 0.884838 0.20175)
(-0.323803 0.9158 0.207183)
(-0.3528 0.996597 0.181969)
(-0.329968 0.939343 0.207694)
(-0.244728 1.02948 0.204651)
(-0.231108 1.03316 0.212421)
(-0.233944 1.02115 0.210275)
(-0.216136 1.00796 0.228161)
(-0.22234 1.0261 0.228977)
(-0.229557 1.02174 0.222359)
(-0.213717 0.984984 0.209815)
(-0.221495 1.01592 0.226604)
(-0.244618 1.04351 0.217626)
(-0.230413 1.01511 0.211678)
(-0.23909 1.02577 0.218387)
(-0.229393 1.0215 0.215566)
(-0.252922 1.01977 0.204012)
(-0.25246 1.02847 0.208732)
(-0.255173 1.03527 0.20506)
(-0.276073 0.997604 0.191356)
(-0.278524 1.02502 0.199929)
(-0.269537 1.0203 0.20374)
(-0.268785 1.0212 0.204912)
(-0.279489 0.969257 0.182347)
(-0.286424 0.982217 0.181554)
(-0.292273 1.02285 0.196776)
(-0.265773 0.942424 0.172085)
(-0.292807 0.998431 0.186465)
(-0.28689 1.01588 0.203524)
(-0.28582 0.994302 0.180893)
(-0.282886 0.994816 0.182292)
(-0.294273 0.965211 0.191893)
(-0.293962 0.951964 0.17597)
(-0.265963 0.916302 0.151477)
(-0.247017 0.88421 0.134026)
(-0.24152 0.883498 0.203008)
(-0.226411 0.853057 0.174891)
(-0.251741 0.912428 0.17511)
(-0.246311 0.903423 0.170926)
(-0.243851 0.910317 0.199242)
(-0.259647 0.940744 0.162318)
(-0.271012 0.933753 0.174181)
(-0.256333 0.920085 0.169863)
(-0.252539 0.92509 0.189844)
(-0.274946 0.950398 0.217792)
(-0.268441 0.959294 0.222)
(-0.288721 0.970234 0.203504)
(-0.162153 0.505858 0.0906144)
(-0.142084 0.471096 0.0880144)
(-0.146835 0.516894 0.0770272)
(-0.138295 0.506073 0.0723991)
(-0.162281 0.542858 0.0841566)
(-0.15866 0.498008 0.0955768)
(-0.127447 0.44835 0.0825973)
(-0.141257 0.500424 0.0798686)
(-0.129102 0.459879 0.0854437)
(-0.128896 0.464003 0.0758836)
(-0.144612 0.476712 0.0835896)
(-0.153015 0.516776 0.0877195)
(-0.160401 0.529457 0.0843989)
(-0.169928 0.516531 0.0863865)
(-0.214316 0.974968 0.232356)
(-0.216866 0.995793 0.239139)
(-0.216524 0.980288 0.226203)
(-0.228698 0.983515 0.225169)
(-0.232595 0.993363 0.225699)
(-0.24855 1.00135 0.218637)
(-0.242132 0.970132 0.206225)
(-0.230652 1.00645 0.229338)
(-0.22275 0.980895 0.22796)
(-0.255993 1.01318 0.213189)
(-0.235546 0.976275 0.223229)