/*--------------------------------*- C++ -*----------------------------------*\
| =========                 |                                                 |
| \\      /  F ield         | OpenFOAM: The Open Source CFD Toolbox           |
|  \\    /   O peration     | Version:  v1612+                                |
|   \\  /    A nd           | Web:      www.OpenFOAM.com                      |
|    \\/     M anipulation  |                                                 |
\*---------------------------------------------------------------------------*/
FoamFile
{
    version     2.0;
    format      ascii;
    class       surfaceScalarField;
    location    "206";
    object      phi;
}
// * * * * * * * * * * * * * * * * * * * * * * * * * * * * * * * * * * * * * //

dimensions      [0 3 -1 0 0 0 0];

internalField   nonuniform List<scalar> 
41494
(
1.24829e-09
1.39774e-08
-1.91637e-09
-1.33093e-08
-3.1077e-09
1.22469e-09
1.49112e-08
-1.30282e-08
-1.08316e-08
-1.23244e-09
8.95636e-09
-1.78197e-09
9.83837e-10
9.33506e-09
-8.53692e-09
9.90146e-09
-1.58776e-09
-1.00957e-08
-1.04865e-08
-1.30676e-08
1.27225e-08
-1.0068e-09
1.13639e-08
-9.13243e-09
-7.98801e-10
-9.4965e-09
1.87011e-09
8.42519e-09
-1.10454e-08
9.01413e-09
-9.43367e-10
-9.11817e-09
-4.56912e-10
2.95474e-10
9.38899e-11
9.35066e-09
1.49374e-09
9.30789e-09
-1.23894e-08
-9.93615e-09
6.0596e-09
-6.86982e-09
1.01181e-08
-7.8719e-09
8.84532e-09
-1.98022e-09
9.16809e-09
2.378e-09
-7.2264e-09
-4.31969e-09
-3.62107e-09
7.93978e-09
4.84938e-09
-8.67459e-09
1.58439e-08
-4.79136e-09
-7.14559e-09
-1.47069e-08
1.31779e-08
7.74334e-09
-2.94322e-09
-1.20265e-08
4.26404e-09
-1.4178e-10
2.98809e-09
1.73984e-08
-4.54255e-09
-5.75911e-09
-3.14972e-09
2.7134e-09
6.19543e-09
-7.53345e-09
2.07295e-09
-2.98604e-10
7.16557e-09
-1.72544e-08
9.71238e-09
-1.00803e-08
6.45994e-09
1.02723e-10
-1.03085e-09
1.19587e-08
-5.83008e-09
7.51263e-09
5.06909e-10
-1.2519e-08
1.48825e-08
-1.11519e-09
-3.4293e-09
-3.56591e-09
-5.5238e-09
-2.08973e-08
3.85431e-09
1.29193e-08
4.12374e-09
-5.81308e-10
-4.84004e-09
-1.3385e-09
6.75985e-09
7.28033e-09
-6.08285e-09
-1.77878e-09
1.4679e-09
1.0899e-09
4.72254e-09
7.73415e-09
-1.4171e-09
-6.87191e-09
5.54867e-10
7.76257e-09
-4.86846e-09
-6.93253e-09
-5.67429e-10
-1.05929e-09
3.48197e-09
-3.76118e-09
2.33862e-10
2.23086e-09
-3.52401e-09
-4.99593e-09
3.45101e-09
4.16559e-09
1.71466e-09
-4.41235e-09
-1.70948e-09
2.47292e-09
2.71853e-09
5.49885e-10
-2.85007e-11
-1.24681e-10
-2.57206e-09
2.70749e-09
-1.07498e-11
-2.20275e-09
-1.64406e-09
-4.47099e-09
8.3178e-09
-2.25004e-09
4.21288e-09
2.95008e-09
-2.12122e-09
-1.74615e-09
4.59942e-11
1.15708e-08
-5.31828e-09
7.36451e-09
-1.3617e-08
-4.92931e-09
9.17784e-09
7.32223e-09
-5.86204e-09
1.5052e-09
5.76916e-10
3.77993e-09
1.69119e-09
1.74251e-09
-8.363e-09
4.54517e-09
-4.05018e-09
3.16958e-10
-8.11952e-10
1.76577e-09
-3.08264e-09
-4.95394e-10
-3.26154e-09
7.85916e-10
2.97103e-09
-3.80128e-09
3.52445e-09
-2.18569e-10
-1.53229e-10
3.3184e-09
-1.00771e-11
-3.15509e-09
2.35389e-09
-2.44239e-09
-6.47254e-11
3.18384e-10
1.74805e-09
-5.43334e-09
-3.0773e-09
3.88011e-09
4.63053e-09
-3.2002e-09
-1.05899e-09
-1.17415e-09
-7.27288e-09
2.60699e-10
3.93488e-09
-6.54875e-09
-3.92433e-09
6.69025e-09
8.81898e-10
2.42551e-09
-9.99766e-09
7.93697e-09
-2.35258e-09
1.10586e-09
9.62079e-09
-2.74282e-09
4.76154e-09
-2.39029e-09
7.24954e-09
8.31645e-09
3.25198e-10
-7.85032e-09
4.42194e-09
3.68908e-09
1.17475e-08
4.7565e-09
-1.56221e-08
1.29618e-08
-3.56692e-09
3.40684e-09
-7.53009e-09
-6.57316e-10
-3.78617e-09
4.97796e-09
5.59357e-09
4.05361e-09
-9.62569e-09
-2.25953e-09
7.8316e-09
3.34393e-09
5.68763e-09
-5.52651e-09
7.70305e-09
-1.10818e-08
-1.27928e-08
1.61715e-08
-8.6826e-09
-9.16043e-09
2.55461e-08
-1.31244e-08
-1.39184e-08
1.83602e-08
-1.83922e-09
-1.35725e-08
2.28737e-09
-6.30759e-09
-1.23509e-08
9.49809e-09
-1.69794e-08
-4.10054e-10
-1.54878e-08
8.55798e-10
-1.36978e-08
-7.11013e-09
6.88948e-09
-1.77987e-08
-9.4716e-09
8.04931e-09
-1.4283e-08
1.14103e-08
-5.17662e-09
-8.32191e-09
8.83442e-10
-2.03515e-09
7.04221e-09
-1.92901e-08
4.34454e-09
1.01783e-08
-1.6558e-08
-1.82969e-08
-1.1641e-09
-7.03557e-09
-3.07603e-09
-8.18535e-09
9.67703e-09
-1.23681e-08
-1.50672e-08
9.49815e-09
8.39892e-09
-6.54256e-09
-1.1101e-08
2.77258e-10
-1.14812e-08
-2.92895e-09
1.76834e-09
1.26418e-08
-6.71479e-09
-2.32247e-09
-2.4439e-09
3.74022e-09
-3.71856e-09
-6.73644e-09
-2.27745e-09
7.45373e-09
-1.43606e-09
-1.13316e-08
1.03146e-09
7.37124e-09
-7.19786e-09
-6.45625e-09
-5.17619e-09
-2.16404e-10
7.16094e-09
-2.42176e-09
6.51119e-09
-6.36689e-09
-1.33382e-08
3.23979e-09
-9.6225e-10
2.7545e-09
-6.69773e-09
4.97468e-09
-7.94711e-09
1.04852e-08
8.70846e-09
-8.89499e-09
4.00114e-09
-1.37783e-09
3.91426e-09
-2.65517e-09
1.18739e-10
-5.33403e-10
-5.48851e-09
5.74092e-09
2.80994e-10
1.0623e-10
-2.14983e-10
6.08307e-09
-5.97431e-09
1.53183e-10
-8.78394e-09
8.09735e-09
-8.76225e-09
8.36814e-09
5.47297e-10
-8.37533e-09
-2.80685e-10
-1.74194e-09
2.62108e-09
-2.80616e-09
1.92702e-09
1.99679e-09
-8.31449e-09
4.57577e-09
-2.71582e-09
-5.90111e-09
3.12842e-09
-4.12497e-09
3.13272e-11
4.29872e-09
-1.06773e-08
2.99345e-09
-4.49734e-09
1.17084e-10
-3.02474e-09
-4.36814e-09
-9.5718e-09
-7.25687e-09
1.08976e-08
5.93111e-09
-9.76034e-09
4.6387e-09
-4.45016e-09
1.35354e-08
9.41626e-09
-1.32696e-08
-9.68211e-09
1.90365e-08
-1.29603e-08
7.4592e-09
-6.42251e-09
5.75194e-11
-8.91885e-10
-6.83211e-09
-9.35073e-09
-2.09664e-09
1.48784e-08
6.25477e-09
2.10091e-09
5.21871e-09
-7.71061e-09
1.11146e-08
7.49355e-09
-2.15891e-09
-9.13007e-10
9.59696e-10
-3.0072e-09
-1.1222e-08
-2.11642e-09
-9.88418e-09
-9.69717e-09
-1.9137e-09
9.45196e-09
-2.56401e-09
-9.24958e-09
1.20559e-09
-1.06017e-08
7.06773e-09
-8.86935e-09
8.25048e-09
-1.12523e-09
5.2901e-09
5.06129e-09
1.99713e-09
9.45119e-09
-9.27257e-09
-2.17575e-09
-9.03653e-09
-4.92454e-09
8.69086e-09
5.2702e-09
-1.22554e-09
-5.81385e-09
7.9361e-09
-7.41854e-09
-1.7431e-09
-1.76154e-09
4.7731e-09
3.21276e-09
-2.46095e-09
-8.29641e-09
7.54461e-09
3.91314e-09
8.75081e-09
1.73851e-08
-4.71815e-09
-3.54836e-09
-9.11855e-09
3.06535e-09
1.51504e-08
-8.30663e-10
1.13705e-08
-7.12208e-09
-8.96652e-09
2.5199e-09
1.19159e-08
-7.14237e-09
-1.38801e-08
1.74742e-08
-8.17934e-09
1.08472e-08
-1.24214e-08
9.7535e-09
-1.5384e-08
4.15701e-09
3.04768e-09
-7.51543e-10
1.41187e-08
-1.12633e-08
1.30067e-08
-2.49485e-09
2.40773e-09
-7.59207e-09
-1.01997e-08
-3.95805e-09
-6.05565e-09
-3.70742e-09
-7.3727e-09
4.60767e-09
3.57099e-09
-1.18861e-08
-1.50694e-08
7.96304e-09
7.44726e-09
-1.04317e-08
4.98169e-09
-8.55307e-09
-2.64042e-09
5.2001e-09
6.21781e-10
3.98115e-09
4.96864e-09
-2.28737e-10
4.602e-10
5.41862e-09
5.00597e-09
-7.90346e-09
-2.52114e-09
-2.91764e-09
5.25011e-09
-5.07983e-09
2.74736e-09
3.72933e-09
3.87285e-09
2.97024e-09
-3.11375e-09
-2.96158e-10
4.17194e-09
-2.9322e-12
-5.21801e-09
4.58773e-09
6.13326e-09
-5.50298e-09
6.06895e-10
-5.748e-10
4.55357e-09
4.58538e-09
-4.17031e-09
4.28706e-09
-2.96454e-11
-4.04729e-09
4.19847e-09
4.02076e-09
-4.70161e-10
4.75667e-09
-9.25596e-10
1.58755e-09
-7.92828e-10
-4.13911e-11
5.59088e-09
4.85544e-10
3.17423e-09
6.43092e-11
3.73059e-09
-7.62228e-10
5.04424e-09
-4.3234e-09
3.50055e-09
3.97281e-09
-5.60371e-09
-4.32203e-09
5.95294e-09
-4.83286e-10
4.51302e-09
-5.69261e-11
-3.86825e-09
2.07341e-09
-1.01691e-09
2.81175e-09
-4.19212e-09
-1.5942e-10
-4.28437e-09
-5.29098e-10
6.21351e-10
6.78353e-10
5.85028e-09
-4.45523e-09
2.17759e-09
5.11082e-09
-8.30532e-09
-1.29058e-09
2.27711e-09
-5.2709e-09
5.57797e-09
1.68609e-09
-8.55464e-09
1.06559e-09
-4.39219e-09
-6.47349e-09
-2.74136e-09
9.8932e-09
-8.32915e-09
2.39222e-09
-5.36555e-10
4.8676e-09
1.81267e-10
4.49496e-09
1.27172e-10
-4.68481e-09
6.2677e-11
-3.0466e-09
-4.21696e-09
1.24655e-08
-7.09445e-09
8.49694e-11
-5.45605e-09
1.19018e-08
-8.45496e-09
-1.2879e-08
-5.4119e-09
7.16321e-09
1.11277e-08
-6.22165e-09
-3.70728e-09
-2.95008e-09
5.70846e-09
-5.83096e-09
-6.09916e-09
8.1167e-10
-5.15117e-10
-8.6487e-09
-3.27854e-10
1.61398e-08
-6.51496e-09
-5.84102e-09
-1.05224e-08
4.08593e-09
6.05471e-10
4.60656e-09
3.89557e-11
-4.33908e-09
-3.06433e-10
-3.90116e-09
8.17986e-09
-2.32488e-10
-3.62971e-09
-4.06745e-10
-7.04647e-10
-3.22769e-09
9.50902e-09
-1.52614e-08
8.98823e-09
-3.23581e-09
1.00179e-08
-2.52864e-09
-3.29591e-09
-4.19331e-09
6.71897e-09
2.07311e-09
7.16935e-10
8.94632e-09
1.00042e-08
-1.22315e-08
8.95469e-09
2.16198e-09
-1.09881e-09
3.19526e-09
1.47057e-08
6.81175e-09
-4.33442e-09
5.3225e-10
7.86706e-09
-7.9492e-09
5.81595e-09
5.86384e-09
2.57173e-10
1.4275e-08
-5.2638e-09
2.56933e-09
-1.06313e-09
1.25359e-08
-1.40421e-08
1.15027e-08
3.5298e-10
-9.28638e-09
1.05046e-08
-2.72551e-09
3.72368e-09
1.0802e-08
-5.50492e-09
-1.50818e-08
9.78468e-09
-2.58958e-09
1.37607e-08
-1.08182e-08
-2.29897e-09
1.9879e-08
-2.01696e-08
1.46271e-08
-1.79892e-08
-9.05102e-09
1.01326e-08
1.14543e-08
-3.17732e-10
7.24685e-09
6.83161e-09
1.02397e-08
9.32157e-09
4.30646e-09
1.3445e-08
-6.55319e-09
2.16616e-08
1.17429e-08
4.56808e-09
-1.68381e-09
1.54294e-08
-1.63957e-08
1.24216e-08
3.96875e-10
3.57721e-09
-6.18418e-09
9.07167e-10
-9.71136e-09
-3.37092e-09
1.57377e-08
-2.65538e-09
-1.34525e-08
4.45958e-09
-7.18463e-10
-5.73794e-09
4.70707e-09
1.04497e-08
-4.52297e-09
6.43039e-09
-1.71861e-09
1.50264e-08
-4.88532e-09
-9.23394e-09
1.15563e-08
3.86702e-09
-6.10758e-10
9.5656e-09
-2.52446e-09
1.2357e-08
4.02901e-09
-8.01636e-09
-8.36969e-09
4.85078e-09
-1.9953e-09
9.50156e-09
1.30361e-08
-1.59119e-08
4.17916e-09
9.73743e-09
-6.31423e-09
2.73382e-09
7.4095e-09
-1.01679e-08
1.01186e-08
5.03983e-09
-1.09792e-08
-1.27898e-08
7.9865e-09
-6.79807e-09
1.16013e-08
-3.12456e-09
-1.15659e-08
1.90066e-09
9.62243e-09
-5.43854e-10
-7.70206e-09
-1.37651e-09
3.18253e-09
-9.07791e-09
1.55178e-08
1.02443e-08
-7.631e-09
-4.75422e-09
2.14096e-09
2.14133e-08
1.10872e-08
-9.59937e-09
-2.03167e-09
1.09564e-08
-8.94712e-09
-8.88969e-09
-1.86586e-09
6.12992e-09
-6.48873e-09
-1.12071e-08
-1.54043e-09
8.72284e-10
-8.18747e-09
-4.26882e-09
-5.7209e-09
-9.578e-09
5.69953e-09
1.00078e-11
-1.53884e-08
-1.38984e-08
3.33994e-09
-3.19351e-09
3.40291e-09
-3.54935e-09
5.30144e-10
-3.63844e-09
6.04652e-09
-2.93823e-09
6.39871e-09
-2.52863e-09
-1.54254e-09
2.27709e-09
-4.373e-09
7.05927e-10
-5.44197e-09
3.35378e-09
2.10485e-09
-4.75271e-09
-6.77005e-11
3.47929e-09
-5.7803e-11
3.40964e-09
7.01563e-11
-7.68827e-11
5.65922e-09
4.14913e-09
5.8816e-09
1.72458e-09
-5.50133e-09
6.2077e-09
-3.93796e-10
1.74382e-09
5.51652e-09
-4.98325e-09
1.00959e-08
-6.62753e-09
3.60023e-09
-5.07849e-11
1.91932e-09
-1.63628e-09
5.76348e-09
-4.91802e-10
8.07034e-09
-1.29088e-09
5.17112e-09
1.12546e-09
7.67958e-09
-1.54668e-09
4.65511e-09
5.78647e-09
1.91198e-09
-8.80659e-09
9.64645e-09
-2.75183e-09
-6.9223e-09
8.30771e-09
5.26573e-10
-6.04363e-09
-4.0691e-10
-2.35605e-09
5.24058e-09
-2.46906e-09
-8.81516e-09
-3.85993e-10
-1.29573e-09
-1.53049e-09
9.43816e-09
1.73879e-09
9.19872e-10
5.85735e-09
-3.92261e-09
-1.84994e-09
5.36564e-09
2.99428e-09
3.10062e-09
-8.56396e-09
4.51745e-09
3.95996e-09
-5.48314e-09
-1.28306e-09
5.41452e-09
-4.14711e-09
-1.07445e-09
5.46508e-09
-2.43512e-10
-4.19647e-09
5.4964e-11
-5.59883e-12
3.08455e-09
-3.90654e-09
1.21649e-09
2.79542e-09
-5.19493e-11
4.33863e-09
-4.4932e-09
1.04574e-10
-8.34413e-09
2.70187e-09
3.9022e-09
1.74007e-09
1.31263e-08
-5.8043e-09
-1.56661e-08
8.13876e-09
7.68939e-09
-1.54576e-09
-6.61653e-09
5.68615e-09
2.47614e-09
-4.78052e-09
5.33361e-10
2.7014e-09
-2.02539e-10
-4.00134e-10
8.74144e-09
-6.94272e-09
-8.1638e-10
7.55656e-09
-3.84833e-09
1.13399e-09
-9.47489e-09
-4.16114e-09
7.71209e-09
5.92394e-09
-5.52316e-09
3.7628e-09
-7.71453e-09
3.93864e-09
-1.29881e-10
-9.61306e-09
-6.51164e-10
-2.35291e-09
7.59941e-09
-1.32525e-08
-4.10062e-10
-5.33666e-09
8.26823e-09
-2.22502e-09
-2.80324e-09
-3.33078e-09
2.91315e-09
3.22087e-09
-2.88804e-09
4.91588e-11
3.56353e-11
-3.74177e-09
2.01924e-10
2.09071e-10
-3.11024e-09
-3.51957e-09
-5.84784e-09
-4.91839e-09
6.38882e-09
4.37741e-09
-5.95235e-09
-5.35653e-09
2.68678e-09
-2.24865e-09
-9.62534e-09
-1.68354e-09
-3.31143e-09
3.30987e-09
5.07131e-11
-3.56286e-10
-4.04663e-09
7.08969e-09
-2.81978e-09
-4.66717e-09
7.13066e-09
-4.13053e-09
-2.00069e-09
1.2331e-08
1.63076e-08
-1.54869e-08
-1.31517e-08
-2.66813e-10
1.48031e-08
-2.20529e-09
1.36724e-08
9.39043e-09
-2.77493e-08
4.68645e-09
-9.85643e-09
1.12177e-08
-1.62812e-09
1.34066e-08
3.37588e-10
2.5634e-09
1.28924e-08
1.53173e-08
-4.29606e-09
1.69088e-08
1.05961e-09
1.74584e-08
-5.8758e-09
-1.58787e-08
1.27078e-08
-1.31738e-08
-5.50946e-09
1.85161e-08
-7.43201e-09
-5.57463e-09
1.86172e-08
-1.14189e-08
-1.26797e-08
1.56388e-08
1.55571e-08
4.40159e-09
1.53587e-09
-1.25251e-08
5.31285e-09
2.01046e-08
3.09424e-09
1.48676e-08
2.92841e-09
1.87942e-08
-9.31736e-09
-1.25441e-08
3.34958e-08
2.11176e-08
3.33232e-09
7.8969e-09
1.05119e-09
-1.22804e-08
1.01683e-08
5.85737e-09
-1.26933e-08
1.66919e-08
4.7351e-09
-5.85047e-09
-1.55766e-08
1.05697e-08
1.22031e-09
4.90197e-09
3.45937e-12
9.3599e-09
8.04909e-10
7.15372e-09
7.46636e-10
3.31519e-09
8.74134e-09
-6.19916e-09
-1.94646e-08
1.01474e-08
1.98869e-08
-1.14143e-08
1.15904e-08
-1.63897e-08
1.27696e-08
5.62278e-09
-6.80192e-09
9.5692e-09
4.4207e-09
-8.3895e-09
1.02556e-08
7.70308e-09
-1.04032e-08
-3.36028e-09
5.37396e-09
9.80756e-09
8.29367e-09
-3.29202e-09
9.89426e-09
3.54517e-09
1.96247e-09
4.55307e-09
2.37333e-09
1.48826e-08
-7.27568e-09
-2.9303e-09
-4.67667e-09
9.04777e-09
7.0225e-09
1.38021e-08
-2.98724e-08
1.02345e-08
1.3696e-08
-1.98759e-08
1.96802e-08
2.74585e-10
-7.89317e-11
-1.3281e-08
-2.78831e-08
2.12882e-08
5.52265e-09
9.02404e-09
-2.78277e-08
7.36685e-09
1.39516e-08
-1.57958e-08
1.15184e-08
1.51843e-08
-1.90128e-09
-6.2747e-09
1.79576e-08
-9.78163e-09
1.60207e-08
-1.05552e-08
1.69013e-08
-1.4152e-08
-3.20824e-09
4.25843e-09
-1.1715e-08
1.8975e-08
2.19521e-08
-4.68847e-09
1.76399e-08
5.00613e-09
1.10224e-10
1.70636e-08
1.12364e-10
2.50528e-09
5.45255e-09
7.85382e-09
-2.48172e-09
1.22341e-08
-7.39031e-09
-2.36203e-09
1.0591e-08
-8.17946e-09
-4.89324e-09
5.15185e-09
-5.20577e-09
-1.01021e-08
1.01561e-08
-7.79474e-09
-2.52125e-09
1.54678e-08
3.34696e-09
5.57709e-09
3.31e-09
7.10295e-09
6.83499e-09
4.43458e-09
1.81874e-10
-1.20068e-08
4.97279e-09
-8.71767e-09
-3.68009e-09
1.46243e-09
2.40781e-09
1.48986e-10
-5.10449e-09
4.99105e-09
-7.43782e-09
9.43628e-09
-5.02974e-09
-1.3175e-08
8.10264e-09
-9.12684e-09
4.17018e-10
2.17449e-10
-2.68247e-09
2.88203e-09
-4.21142e-09
-5.54252e-09
-1.76899e-09
-1.04582e-08
-7.25924e-09
-1.23258e-08
-1.12888e-08
-1.22363e-08
4.16714e-09
-8.66882e-09
1.6738e-08
-7.71595e-09
1.76616e-09
-6.28647e-09
-1.09401e-08
1.46725e-08
-1.29647e-09
-2.43595e-09
-1.57786e-08
2.74641e-08
-2.26256e-08
1.11013e-08
3.06708e-09
-2.99469e-08
2.03441e-09
1.87049e-08
-9.63806e-09
-2.25102e-08
1.92049e-08
1.79778e-08
8.09935e-09
-3.14546e-09
-1.1559e-08
-1.5389e-08
1.26611e-08
1.42869e-08
-1.9462e-08
1.86979e-10
7.33254e-09
1.02636e-08
-1.45291e-08
1.22689e-08
-2.90192e-09
-1.45139e-08
-2.17149e-09
9.57492e-09
-1.38253e-08
-6.45456e-09
2.32828e-08
-3.02803e-09
8.66262e-09
-1.43034e-08
8.44189e-09
-1.96446e-08
8.17467e-09
2.11922e-08
-1.49563e-08
3.41109e-09
-8.05132e-09
-1.83571e-09
-8.01028e-09
1.17589e-08
-4.52441e-09
8.74197e-09
-9.41243e-09
-7.60276e-09
4.61388e-09
1.24013e-08
1.00478e-09
-5.44349e-09
-4.97371e-09
-2.63592e-09
-3.96205e-09
-8.68166e-09
5.20065e-09
-5.12601e-11
-1.7179e-08
8.54864e-09
5.91274e-09
-1.20253e-08
6.0613e-09
-7.10046e-09
5.01998e-09
1.46959e-08
-1.26155e-08
-5.49524e-10
-4.21225e-10
-6.1297e-09
-4.21409e-09
1.38479e-08
-5.80181e-09
5.08988e-09
-3.50216e-09
-4.38591e-10
-1.53976e-08
1.37484e-09
-1.77301e-09
-9.4958e-10
-4.91699e-09
-1.1464e-08
1.73306e-08
-3.98359e-09
1.26942e-08
5.83768e-09
-6.12512e-10
9.50776e-09
8.6386e-09
-7.71791e-09
5.42166e-09
-8.05584e-09
-3.60466e-09
6.23883e-09
1.02636e-08
-7.5332e-09
2.6913e-09
-1.60469e-09
1.06395e-08
1.22874e-09
6.05024e-09
-6.9535e-09
2.56062e-09
1.30315e-08
7.12666e-09
-7.05819e-09
7.58835e-12
-4.82599e-10
-9.06379e-09
-7.67885e-09
6.87296e-09
-7.98802e-10
-5.44597e-10
-7.58022e-09
-1.05051e-09
-5.89832e-09
-1.36744e-09
-1.17061e-08
5.49337e-09
-5.93526e-10
1.62099e-08
-1.66881e-08
1.07176e-09
1.59727e-08
4.40045e-10
-1.70063e-08
-6.53169e-09
-6.99123e-09
1.24724e-08
-1.24369e-08
4.53778e-09
8.59295e-09
-5.7584e-10
7.95562e-09
1.78116e-08
3.79252e-10
-2.87744e-08
1.93772e-08
9.01791e-09
-1.6981e-08
5.65411e-09
1.44856e-08
-1.88687e-08
-2.43913e-08
-2.12251e-09
-4.84652e-09
-1.0012e-08
-8.95873e-09
2.24376e-08
2.17137e-09
-5.12799e-09
-1.37315e-08
1.88397e-08
-1.86832e-08
-6.7477e-09
6.59121e-09
1.84076e-08
9.99265e-09
-9.56054e-09
8.87303e-09
-2.39268e-09
-7.87286e-09
-1.22189e-10
-4.61097e-09
2.20825e-09
2.52491e-09
-4.17734e-09
1.83943e-09
2.21572e-09
-1.20857e-08
1.68136e-09
6.52493e-09
3.87942e-09
-2.8195e-09
3.49261e-09
-6.34078e-09
3.41116e-09
-1.89199e-10
-8.97108e-09
-4.16227e-09
3.97846e-09
-3.99352e-09
-4.10847e-09
1.95479e-09
3.99311e-09
5.01734e-09
-7.79589e-09
9.30348e-09
6.49791e-10
1.40777e-08
1.8004e-09
-6.15187e-09
1.56072e-09
4.12563e-09
-3.88595e-09
8.78428e-09
-6.57376e-09
-1.04755e-10
-2.52644e-11
3.79473e-10
6.84612e-09
-4.37073e-09
6.705e-09
-4.08753e-09
4.06537e-09
-4.34858e-09
-6.66619e-11
-2.21898e-08
8.70285e-09
6.79732e-09
6.68962e-09
3.20228e-09
-6.83494e-09
-1.85571e-08
-6.51708e-09
3.2139e-09
-5.81498e-09
-3.08425e-09
-1.19698e-08
-1.63573e-08
1.01496e-08
1.49105e-08
-9.94109e-09
1.19178e-08
-3.35475e-09
-4.76374e-09
-3.79934e-09
-2.21438e-09
5.54894e-09
8.58327e-09
-5.7809e-09
3.14978e-10
3.25155e-09
-6.03786e-09
-3.0978e-09
5.24475e-09
5.90102e-09
-9.96195e-10
-3.53551e-09
-8.06317e-09
4.01781e-09
8.32844e-09
-7.98181e-09
4.67661e-09
3.62017e-09
5.27093e-09
-1.18907e-08
7.4828e-09
-8.24973e-09
-2.03534e-10
-2.19615e-09
4.36196e-09
5.77005e-09
-7.93586e-09
5.3402e-09
2.69254e-09
-1.02289e-08
-6.14447e-09
1.07015e-08
-9.85465e-09
5.29761e-09
1.16056e-08
-5.8402e-09
-1.40341e-09
7.11449e-09
9.13774e-09
-4.64665e-09
1.0699e-08
-4.20352e-09
6.18969e-10
2.97497e-09
9.64488e-09
-7.27965e-09
8.50705e-09
-1.1959e-08
4.74999e-09
1.2089e-08
-1.10689e-08
1.67866e-08
-9.06169e-09
4.89828e-09
5.3907e-09
-2.86881e-09
-3.15242e-09
-3.97483e-09
-7.4757e-09
1.27858e-08
1.14765e-08
3.4594e-09
1.15388e-09
1.20159e-08
5.81218e-10
5.86389e-09
1.10503e-08
5.81094e-09
8.71495e-09
1.28088e-08
7.89732e-09
-1.50876e-08
-1.36276e-09
-1.4321e-08
8.33822e-09
-1.68698e-09
3.98529e-10
-1.37992e-08
1.67387e-08
-1.31607e-09
-1.71097e-08
4.80168e-09
-2.38397e-09
-9.1719e-10
-1.05704e-08
1.03606e-09
1.60081e-08
-5.19817e-09
-2.01226e-08
1.62022e-08
-2.34372e-08
9.27253e-09
1.30998e-08
-1.2981e-08
6.16478e-09
-1.3632e-08
-1.26554e-08
-1.25109e-08
-4.7615e-09
-6.7838e-09
-1.05151e-09
5.4608e-09
4.61919e-09
-8.31336e-09
5.09566e-09
2.1662e-09
-1.75625e-09
2.33959e-09
-4.81023e-10
-3.80181e-09
9.74363e-09
-3.5088e-09
8.12343e-09
4.75181e-09
-1.0202e-09
7.64657e-10
6.78345e-10
2.00767e-09
-2.18721e-09
-1.6093e-09
-1.16224e-08
1.54189e-08
-9.76674e-09
1.56461e-09
7.09371e-09
1.10842e-09
-8.66521e-09
-4.35389e-09
3.25237e-09
-1.14682e-08
-2.75024e-09
8.46421e-09
5.75426e-09
9.77068e-09
-1.03933e-08
-2.32451e-09
4.96588e-09
-1.41096e-08
-1.06004e-08
1.02406e-09
7.25185e-09
1.70532e-09
-1.49713e-08
1.68197e-08
-3.55377e-09
-2.02037e-09
-8.85675e-09
1.25824e-08
2.268e-09
-1.34632e-08
5.94767e-10
-8.41758e-09
8.07142e-09
-1.37627e-08
-5.50292e-10
6.24156e-09
1.25086e-09
-1.79589e-10
7.00015e-09
1.36869e-09
9.58887e-09
-9.7067e-09
4.66824e-10
-4.44814e-09
6.53843e-09
-2.55711e-09
-4.44197e-09
7.37874e-09
-2.46994e-09
-1.03161e-09
5.59331e-09
-9.00368e-09
4.0693e-09
-9.54905e-09
-9.38905e-09
5.88441e-10
-4.96208e-09
-1.32803e-08
9.48455e-09
7.79238e-09
-4.535e-09
-2.66895e-09
7.10372e-09
-4.87968e-09
5.56834e-09
8.64948e-10
6.05919e-09
-6.5861e-09
2.34778e-10
7.72001e-09
-4.60419e-09
3.64627e-10
-2.34654e-09
8.40137e-10
-2.80913e-09
2.83394e-09
-4.86734e-09
5.94226e-09
6.24242e-09
2.14561e-09
-1.8496e-09
4.53193e-09
3.49472e-09
-3.95735e-09
4.76282e-09
-4.76588e-09
-7.65613e-11
-4.02978e-11
-1.22073e-09
5.09939e-09
2.36376e-09
1.55382e-09
-2.66937e-09
2.90143e-09
-5.31294e-09
-1.65561e-10
5.43786e-09
2.02468e-10
4.83637e-11
-2.04146e-08
2.19882e-09
1.4749e-09
1.67409e-08
-5.8559e-09
-1.315e-08
-1.40879e-09
1.24785e-09
-9.81949e-09
1.07705e-08
-1.66177e-09
-7.76764e-09
-2.33266e-09
-8.10765e-09
8.77854e-09
-1.44401e-08
1.35824e-08
-6.91268e-09
2.78903e-09
1.17142e-08
-7.59054e-09
8.16542e-10
-3.60674e-09
-4.12249e-09
4.17997e-09
-9.92757e-09
-2.36005e-09
-6.79042e-09
3.20275e-09
-1.15164e-08
-5.31227e-09
7.00919e-09
-1.23322e-08
-5.0401e-09
-1.08221e-08
-5.65334e-09
2.03527e-09
-1.29109e-08
-1.10612e-08
1.17158e-08
-4.23517e-09
-4.69155e-09
1.66899e-09
4.73449e-09
6.59277e-09
-6.24409e-09
4.65019e-09
-4.05944e-09
5.89616e-09
9.57089e-10
-1.30973e-08
2.55896e-09
-9.57368e-09
-4.46084e-09
-3.72298e-09
7.71147e-09
-1.42953e-09
-6.37262e-09
-8.85591e-09
1.77921e-09
1.39052e-08
8.46657e-10
1.01732e-08
2.30039e-09
-8.82477e-09
-4.40419e-09
8.14069e-09
5.08826e-09
8.39547e-09
-5.8069e-09
2.30812e-09
3.43696e-09
2.10334e-08
1.31502e-08
3.65986e-09
8.07713e-09
9.2964e-09
-8.27162e-09
-1.83765e-08
8.9299e-09
1.77182e-08
-5.30744e-09
6.95671e-10
-9.77868e-09
-1.48825e-08
7.7618e-09
-3.16669e-09
-3.32038e-09
7.67461e-09
4.80666e-09
-7.38889e-10
1.79378e-08
-9.43707e-09
1.58656e-08
-2.02514e-09
-3.54573e-09
2.23968e-09
3.33119e-09
-1.90212e-09
-7.71254e-11
-4.58928e-11
2.19974e-09
-1.52878e-09
-2.57309e-09
-3.11525e-10
-1.03446e-09
3.59716e-09
9.41206e-09
-1.94791e-09
-1.10613e-08
4.60591e-09
-1.32028e-09
5.46412e-09
1.276e-09
-2.44793e-09
-4.29219e-09
5.80878e-09
-2.30387e-10
-1.14272e-10
-3.84229e-09
7.35796e-09
-6.98431e-09
7.74793e-09
2.61695e-09
-1.89203e-10
2.47243e-09
-5.94912e-09
-2.44286e-09
-8.22031e-11
-3.81059e-09
2.13535e-09
-3.78101e-09
-1.00949e-08
-1.75432e-08
1.30474e-08
1.45908e-08
-2.13085e-08
9.85092e-09
1.36269e-09
-1.29603e-08
1.23406e-09
-9.58234e-09
1.11265e-08
-1.68807e-08
-7.20597e-09
-5.48412e-09
1.06908e-08
-1.57971e-08
1.05904e-08
-1.82636e-08
6.14092e-09
6.63861e-09
-8.16827e-09
9.4477e-09
8.57149e-09
4.25446e-09
-1.06712e-08
-6.29394e-09
-7.71524e-09
-9.2909e-09
1.60772e-08
3.90455e-09
-1.44084e-08
1.70136e-08
5.50658e-09
-8.11182e-09
7.20882e-09
-2.1098e-08
-5.19221e-10
-1.25489e-08
-5.06242e-09
1.81426e-09
-9.3534e-09
-9.48946e-09
4.88847e-09
3.9569e-09
-1.33717e-08
9.22678e-09
-9.17453e-10
-1.55163e-08
4.82435e-09
-5.38065e-09
-2.75887e-10
-6.77213e-09
1.24287e-08
-6.88313e-09
-4.62173e-09
6.1242e-09
7.04575e-09
-1.10632e-08
-1.42923e-09
5.44671e-09
-8.9642e-09
1.57341e-08
-2.07493e-09
-4.67226e-09
-4.31604e-09
3.59342e-09
-1.58367e-08
9.99396e-10
1.12439e-08
-8.91418e-10
-6.8973e-09
1.01659e-09
-5.45345e-11
3.53791e-09
-6.69443e-09
1.27633e-08
-1.50331e-08
1.32722e-08
2.25845e-09
-1.19372e-08
3.61756e-09
2.96021e-09
7.9877e-09
-5.36463e-09
4.70796e-09
2.88976e-11
-5.31479e-09
5.17829e-09
1.07608e-10
-5.22703e-09
5.20806e-09
4.78687e-11
4.65889e-10
-5.35475e-09
8.89565e-10
3.9993e-09
-6.23984e-09
1.31592e-09
5.38982e-09
1.90517e-09
-2.23908e-09
-4.98088e-09
2.47489e-10
-3.56935e-09
-4.88782e-09
3.85604e-09
-6.30162e-09
7.10128e-09
5.16272e-10
-7.56364e-11
-1.00828e-10
3.95872e-09
9.91005e-09
-1.01281e-10
-1.37675e-08
1.42231e-09
8.1912e-09
-5.65479e-09
-3.21802e-09
-6.48065e-09
5.29577e-09
2.07445e-09
1.29114e-08
9.32903e-09
-1.23304e-08
1.77034e-09
7.14613e-09
3.99497e-09
3.65992e-09
5.70298e-09
-8.04335e-09
-6.4125e-09
-1.43784e-10
1.70993e-08
-3.7942e-09
-3.97602e-09
1.45426e-08
9.70278e-09
-4.50371e-09
2.34926e-09
9.29053e-10
-6.08091e-09
2.80259e-09
2.28834e-09
-7.34872e-09
7.40965e-09
-3.26857e-09
-5.74318e-09
1.13001e-08
-6.81471e-09
4.4752e-09
-7.11814e-09
-5.52972e-09
5.29915e-09
-2.37527e-09
-4.68373e-09
-5.91487e-11
-6.46391e-09
-1.99227e-09
-3.49092e-09
-6.02275e-09
2.69896e-09
-1.02411e-08
-9.14762e-09
1.36456e-08
-1.21962e-08
7.47987e-09
-7.02543e-09
-5.13817e-09
2.62027e-09
-6.70119e-10
2.18202e-10
-3.95185e-09
-2.73027e-09
-3.45074e-09
-2.35381e-09
-3.17437e-10
-6.20992e-09
-8.85877e-11
-1.08887e-08
-9.77324e-09
6.23391e-09
1.57964e-08
1.85039e-09
-3.45414e-09
-1.41926e-08
4.61272e-09
6.91485e-09
-1.65193e-08
1.22741e-08
8.85792e-09
-1.64305e-09
-1.30258e-08
3.67427e-09
1.10131e-08
-1.56732e-09
-1.31201e-08
1.70497e-08
-1.50184e-08
1.45661e-08
-9.67311e-10
-1.70529e-08
9.09613e-09
8.2081e-09
-2.73811e-09
3.72513e-09
4.17809e-09
3.10989e-09
1.07312e-08
1.00436e-08
9.82638e-09
6.18461e-09
9.32059e-09
-1.18552e-08
2.52565e-09
2.04797e-08
-7.82629e-09
-8.38954e-09
1.87415e-08
-8.1329e-09
-3.03856e-09
3.34518e-09
3.36072e-09
6.90489e-09
-9.45014e-10
1.01151e-08
1.45375e-09
7.21384e-09
-1.37327e-10
8.65068e-09
-8.66849e-09
6.1563e-09
-2.52791e-09
5.15589e-09
-9.17902e-10
-7.06326e-09
2.82527e-09
-5.33775e-09
4.90588e-09
5.58777e-09
6.6418e-09
-1.09004e-08
3.34069e-09
4.38265e-10
1.32127e-08
1.58763e-09
-7.20913e-09
-1.44176e-09
-3.77895e-09
2.88261e-11
2.89142e-09
-4.95504e-09
-2.62794e-09
-5.55575e-10
-1.69688e-08
-5.01834e-10
-4.24226e-09
-5.33045e-09
1.06746e-08
-4.44566e-09
-3.26531e-09
-4.78006e-09
4.18411e-09
-1.96152e-09
7.28832e-11
4.41873e-09
-9.92934e-09
5.63485e-09
-5.66178e-09
-1.05614e-10
1.51529e-08
-1.56054e-08
5.69723e-09
1.13072e-08
-1.38836e-09
-4.62458e-09
1.73439e-08
8.49411e-09
-2.12135e-08
6.83242e-09
-2.83731e-10
-1.11733e-08
1.22996e-08
1.44747e-10
2.7086e-09
2.57171e-09
-1.26665e-08
-1.71347e-10
1.02661e-08
1.71501e-09
-9.12765e-09
9.98434e-09
7.42126e-09
2.22223e-08
-2.69813e-09
1.18344e-08
-2.25868e-09
-1.18522e-08
1.14128e-08
1.65362e-08
-1.50483e-08
-8.22354e-09
6.7357e-09
1.08669e-08
-4.781e-10
6.14736e-09
9.28811e-09
2.16383e-09
4.28921e-09
3.72872e-09
1.90655e-09
-1.74609e-09
1.06965e-10
9.21507e-09
-1.16451e-08
-4.24516e-09
-7.74637e-10
3.45788e-10
-2.2981e-09
1.56808e-08
-1.37285e-08
-1.58816e-09
1.1323e-08
-9.38901e-09
-1.83707e-08
-1.43155e-08
7.33747e-09
2.53488e-08
-4.0282e-10
-1.28837e-08
-5.08419e-09
-1.01839e-08
-4.53441e-09
4.6635e-10
8.3292e-09
-1.10937e-08
6.95354e-09
-8.07534e-09
-2.5813e-09
8.59758e-09
5.30667e-09
2.91556e-09
-1.03684e-08
-5.42507e-09
2.14534e-08
-1.35177e-08
6.28653e-09
5.46966e-09
-1.39827e-08
9.45904e-09
2.51591e-08
-1.9844e-08
-4.64337e-09
-6.71785e-10
7.62737e-09
2.97256e-10
1.72345e-08
-1.67769e-08
6.34746e-09
1.80568e-08
-1.55113e-08
7.01033e-10
-1.96664e-09
-4.00611e-09
-7.74523e-09
2.31234e-10
1.15201e-08
-4.36791e-09
-5.01832e-09
5.38012e-09
-9.74074e-09
-2.37239e-09
-1.05336e-08
1.21161e-08
-1.13233e-08
-4.67081e-10
3.4522e-10
-1.04117e-08
-1.6228e-08
1.15069e-08
-1.02868e-08
-3.70118e-09
-2.24002e-09
-1.1503e-08
-1.86277e-08
-1.55074e-08
-4.64725e-09
1.24663e-08
-1.09909e-08
-7.74449e-10
1.9045e-08
-2.18388e-09
-2.48265e-08
-1.1479e-08
2.10175e-11
-2.04264e-08
6.76352e-09
-5.16804e-09
-7.11001e-09
4.35082e-09
7.92723e-09
-8.44746e-09
-5.81936e-10
3.86136e-09
3.02013e-09
-8.45952e-09
-3.00806e-09
-4.31672e-09
2.26839e-10
-6.28866e-09
1.17912e-08
-1.1517e-09
-9.94596e-09
4.09839e-09
5.26564e-09
-1.0926e-08
2.27683e-08
8.83266e-09
-2.06749e-08
-1.11304e-08
-3.17385e-09
3.37817e-09
-2.51583e-09
-1.07906e-08
2.17604e-09
2.3162e-09
-6.01118e-09
-6.21741e-10
-5.33562e-09
1.36316e-09
-2.4587e-09
-9.52513e-09
2.03787e-09
-9.40516e-09
8.95689e-10
-1.23862e-09
-1.06824e-08
6.07964e-10
-7.85776e-09
-1.03103e-08
-9.57679e-11
-6.20771e-10
5.32978e-09
-4.61324e-09
-3.44594e-10
2.99162e-09
-2.7428e-09
-3.97779e-10
5.76209e-09
-5.98508e-09
4.29337e-09
-5.03574e-09
4.49263e-09
3.21119e-09
-3.41045e-09
-1.07634e-09
5.54393e-09
2.50411e-11
4.87151e-09
4.06863e-09
-5.94852e-09
5.71373e-09
-1.02799e-09
-3.40688e-09
4.47703e-09
4.47378e-09
-1.56366e-10
-3.93171e-11
-1.1022e-09
-6.36118e-09
5.92643e-09
1.53695e-09
-3.94402e-09
2.99666e-09
-1.54836e-10
-6.92184e-11
-1.42045e-09
6.88763e-09
-1.62707e-09
-3.17603e-11
-9.1752e-09
-1.40765e-09
3.46162e-10
1.02367e-08
-2.56364e-09
-8.97836e-10
6.50711e-10
3.46078e-10
4.92964e-09
6.18767e-10
3.0286e-09
8.90018e-09
-4.57619e-09
7.83861e-09
5.44196e-09
8.58108e-09
6.74978e-09
1.43923e-09
-1.67701e-08
6.52625e-09
-1.57674e-09
-2.62021e-09
-2.3293e-09
4.91954e-09
-8.39152e-09
-8.81907e-10
-3.56012e-09
4.31223e-11
8.43653e-09
7.88708e-09
7.22024e-09
-1.00593e-08
1.08986e-09
-5.73545e-09
-5.41373e-09
4.56555e-09
3.09523e-09
-7.74234e-09
8.15587e-11
5.25864e-09
-2.26982e-09
3.38344e-09
-6.73679e-09
2.47144e-09
3.7883e-09
-6.26518e-09
5.86032e-09
5.05724e-10
3.82124e-09
-2.90088e-09
6.7323e-09
2.36664e-09
7.4914e-09
-6.76281e-09
1.52274e-09
-6.49074e-09
-1.76879e-09
-4.63613e-09
-1.06305e-10
-6.02407e-09
3.62892e-09
-3.03424e-09
-3.26742e-09
2.50199e-09
-4.12157e-10
2.51062e-10
-1.43103e-08
1.23379e-08
1.72131e-09
-1.11702e-08
-7.35331e-10
-3.71654e-09
-1.8373e-08
7.38977e-09
2.81521e-09
-2.09371e-08
-3.01341e-09
-4.83931e-09
4.06655e-09
-3.67049e-09
3.12852e-09
-6.98813e-09
1.70262e-09
-5.40104e-09
2.79282e-11
-1.20828e-08
7.98186e-09
1.14907e-08
1.38004e-09
-1.06476e-08
-1.51113e-09
8.20176e-09
-8.12022e-09
1.42959e-09
3.23649e-09
-4.77561e-09
2.79903e-11
3.81308e-09
1.37526e-09
9.97986e-11
8.66103e-10
-4.63618e-09
-1.63096e-09
5.66627e-11
-3.96617e-09
-6.68352e-09
-1.12616e-08
-9.43654e-09
2.17891e-09
1.85193e-08
-1.05192e-08
-4.12231e-09
3.37992e-09
1.76403e-08
-1.59744e-08
-1.21851e-08
-4.8931e-09
1.30968e-08
-4.56255e-09
8.95164e-09
-2.21018e-09
-5.37362e-09
-3.0721e-10
1.11828e-09
1.34325e-09
-6.03437e-09
5.6881e-10
-1.14959e-09
-3.81054e-09
-1.10143e-08
4.77783e-09
-1.64577e-08
1.50352e-08
-3.35534e-09
-3.38735e-09
1.00576e-08
6.32511e-09
-1.29954e-08
1.74746e-08
-1.38464e-08
9.19416e-09
-5.35722e-09
1.32685e-09
-2.57196e-09
-7.27295e-09
4.69651e-09
-7.13857e-09
-1.29893e-10
-4.73129e-10
-1.87586e-10
1.27354e-08
-7.2852e-09
-4.10959e-09
-1.3406e-09
2.1959e-09
4.0179e-10
1.01377e-08
2.18132e-09
-1.08009e-08
1.08155e-08
1.20078e-09
-6.57423e-09
5.77524e-09
-4.13842e-09
7.52051e-09
-8.00935e-09
-4.12577e-10
-2.37893e-09
-7.44746e-09
-7.84708e-09
-1.01042e-08
8.7404e-09
-5.21046e-09
-9.90363e-09