/*--------------------------------*- C++ -*----------------------------------*\
| =========                 |                                                 |
| \\      /  F ield         | OpenFOAM: The Open Source CFD Toolbox           |
|  \\    /   O peration     | Version:  v1612+                                |
|   \\  /    A nd           | Web:      www.OpenFOAM.com                      |
|    \\/     M anipulation  |                                                 |
\*---------------------------------------------------------------------------*/
FoamFile
{
    version     2.0;
    format      ascii;
    class       volVectorField;
    location    "50";
    object      U;
}
// * * * * * * * * * * * * * * * * * * * * * * * * * * * * * * * * * * * * * //

dimensions      [0 1 -1 0 0 0 0];

internalField   nonuniform List<vector> 
21325
(
(0.172637 0.732418 -0.205688)
(0.161047 0.712791 -0.18936)
(0.138149 0.612663 -0.173537)
(0.156308 0.6984 -0.183526)
(0.18369 0.810007 -0.209963)
(0.178308 0.795301 -0.225173)
(0.152034 0.692142 -0.18887)
(0.166277 0.626958 -0.17024)
(0.175541 0.728338 -0.199797)
(0.167046 0.710312 -0.200987)
(0.18136 0.796022 -0.223919)
(0.148341 0.683013 -0.190804)
(0.177661 0.827193 -0.226127)
(0.163011 0.698483 -0.182827)
(0.154051 0.666915 -0.175835)
(0.154508 0.677989 -0.184877)
(0.147743 0.665485 -0.185605)
(0.119725 0.559387 -0.165351)
(0.177832 0.834297 -0.23612)
(0.152931 0.668457 -0.181532)
(0.171144 0.699974 -0.192227)
(0.150706 0.675141 -0.182203)
(0.178303 0.751128 -0.20225)
(0.166743 0.720219 -0.197795)
(0.172289 0.801535 -0.227062)
(0.189251 0.879762 -0.240589)
(0.150264 0.636237 -0.184965)
(0.143199 0.645326 -0.169302)
(0.156042 0.689907 -0.202954)
(0.143969 0.624626 -0.170042)
(0.13392 0.607686 -0.171985)
(0.134529 0.649114 -0.196457)
(0.144053 0.593012 -0.168587)
(0.144001 0.604027 -0.166989)
(0.15218 0.69936 -0.190147)
(0.1593 0.645315 -0.177008)
(0.180913 0.788028 -0.223424)
(0.158487 0.718534 -0.204667)
(0.152433 0.683502 -0.190165)
(0.186552 0.834056 -0.226215)
(0.154368 0.641222 -0.177061)
(0.156793 0.675184 -0.182723)
(0.138773 0.636796 -0.173546)
(0.148465 0.681254 -0.195864)
(0.136848 0.648041 -0.187265)
(0.135546 0.611067 -0.174738)
(0.157757 0.708724 -0.192158)
(0.163127 0.675593 -0.190724)
(0.170745 0.693864 -0.192916)
(0.159289 0.6578 -0.179119)
(0.130606 0.613361 -0.164491)
(0.125895 0.588601 -0.159688)
(0.158139 0.733427 -0.199157)
(0.183117 0.824994 -0.227686)
(0.189849 0.844756 -0.228746)
(0.128891 0.5872 -0.167919)
(0.118345 0.559576 -0.160814)
(0.156252 0.679571 -0.189484)
(0.167892 0.746811 -0.205819)
(0.147072 0.673185 -0.193206)
(0.127547 0.552368 -0.141683)
(0.149019 0.61052 -0.165122)
(0.145846 0.613773 -0.157583)
(0.16212 0.699678 -0.199562)
(0.173925 0.765567 -0.196674)
(0.152477 0.709382 -0.192544)
(0.159116 0.728535 -0.191767)
(0.133691 0.638499 -0.175251)
(0.149806 0.707477 -0.191345)
(0.148047 0.631202 -0.170333)
(0.160646 0.688919 -0.188554)
(0.183976 0.794788 -0.21809)
(0.130578 0.595347 -0.162794)
(0.161546 0.697742 -0.185142)
(0.163981 0.725756 -0.206297)
(0.169591 0.720386 -0.205103)
(0.138017 0.645962 -0.175191)
(0.130115 0.575727 -0.145799)
(0.125283 0.594132 -0.160468)
(0.172069 0.767045 -0.21729)
(0.158251 0.732731 -0.208785)
(0.147329 0.66846 -0.186999)
(0.169445 0.732335 -0.211686)
(0.148687 0.637654 -0.181144)
(0.126659 0.57314 -0.167705)
(0.141456 0.613939 -0.174833)
(0.148573 0.645318 -0.18958)
(0.150463 0.723667 -0.204005)
(0.15754 0.680871 -0.199197)
(0.154721 0.678164 -0.191442)
(0.15795 0.718089 -0.207743)
(0.170766 0.733743 -0.201457)
(0.153824 0.703138 -0.189282)
(0.162971 0.751375 -0.200915)
(0.148032 0.661343 -0.189564)
(0.159522 0.68677 -0.188342)
(0.146625 0.636816 -0.172658)
(0.153487 0.701521 -0.197525)
(0.149685 0.700512 -0.196049)
(0.15383 0.67126 -0.184675)
(0.142655 0.616143 -0.169358)
(0.159582 0.688869 -0.188035)
(0.156186 0.707776 -0.192588)
(0.162243 0.716029 -0.193341)
(0.154992 0.662927 -0.190473)
(0.152589 0.666358 -0.182818)
(0.142388 0.627223 -0.173336)
(0.131814 0.637483 -0.180555)
(0.119252 0.528574 -0.133782)
(0.151284 0.670821 -0.193265)
(0.164915 0.720478 -0.205823)
(0.14356 0.684339 -0.194162)
(0.136424 0.629809 -0.176117)
(0.158638 0.694174 -0.193457)
(0.16178 0.708351 -0.194823)
(0.128425 0.575824 -0.166234)
(0.151071 0.679265 -0.187549)
(0.17097 0.789647 -0.21627)
(0.188993 0.860232 -0.231192)
(0.189125 0.864014 -0.229623)
(0.168309 0.744878 -0.201994)
(0.140172 0.606945 -0.164365)
(0.166842 0.718705 -0.202722)
(0.161932 0.677296 -0.181348)
(0.135861 0.602979 -0.161181)
(0.164722 0.694658 -0.196967)
(0.154903 0.681572 -0.191638)
(0.140693 0.658354 -0.183395)
(0.148631 0.722948 -0.197724)
(0.170177 0.670604 -0.177912)
(0.135143 0.65542 -0.192503)
(0.167336 0.661696 -0.203883)
(0.171319 0.787463 -0.216856)
(0.14655 0.670502 -0.18357)
(0.149031 0.652684 -0.185045)
(0.1602 0.671279 -0.188911)
(0.171658 0.725285 -0.207274)
(0.161728 0.716058 -0.1965)
(0.126351 0.593802 -0.172583)
(0.170207 0.740404 -0.204955)
(0.15273 0.635845 -0.18687)
(0.14281 0.633863 -0.174091)
(0.146493 0.622064 -0.161952)
(0.153042 0.677412 -0.190174)
(0.137151 0.623319 -0.173659)
(0.150575 0.625535 -0.181053)
(0.143424 0.656419 -0.188049)
(0.150225 0.693104 -0.201001)
(0.165524 0.743437 -0.203809)
(0.172925 0.738931 -0.20478)
(0.152911 0.630839 -0.1693)
(0.156249 0.714152 -0.200155)
(0.155244 0.655551 -0.183034)
(0.155367 0.69946 -0.202714)
(0.148115 0.641815 -0.183688)
(0.151061 0.648522 -0.190727)
(0.161141 0.719197 -0.198437)
(0.153283 0.676527 -0.199384)
(0.129136 0.606305 -0.17253)
(0.133872 0.605709 -0.165904)
(0.155593 0.696119 -0.191125)
(0.162283 0.712181 -0.190773)
(0.156472 0.683261 -0.189429)
(0.144721 0.635635 -0.175314)
(0.165374 0.744131 -0.199906)
(0.144048 0.658382 -0.188083)
(0.171275 0.701226 -0.193745)
(0.161123 0.730357 -0.205697)
(0.171749 0.74337 -0.207568)
(0.140819 0.644232 -0.188081)
(0.138683 0.612811 -0.188661)
(0.141864 0.580878 -0.163434)
(0.155876 0.634516 -0.174897)
(0.139576 0.587446 -0.161627)
(0.156005 0.675761 -0.181767)
(0.164822 0.677792 -0.187948)
(0.142649 0.642168 -0.18537)
(0.143157 0.692869 -0.201304)
(0.163502 0.700361 -0.185337)
(0.148857 0.614433 -0.174768)
(0.154029 0.684405 -0.187234)
(0.139336 0.603414 -0.159573)
(0.149042 0.64186 -0.168566)
(0.130009 0.554667 -0.130652)
(0.141671 0.58812 -0.167206)
(0.176942 0.756346 -0.207979)
(0.129963 0.569124 -0.150132)
(0.134736 0.61851 -0.172038)
(0.16191 0.761603 -0.207279)
(0.151369 0.666435 -0.195804)
(0.155088 0.713585 -0.194637)
(0.151767 0.711365 -0.201116)
(0.166119 0.765669 -0.214866)
(0.156144 0.72648 -0.203555)
(0.153846 0.697949 -0.191735)
(0.148753 0.636449 -0.190242)
(0.140308 0.66643 -0.192449)
(0.130142 0.607979 -0.173004)
(0.162419 0.717926 -0.212162)
(0.147672 0.64438 -0.191731)
(0.163672 0.745002 -0.224076)
(0.138708 0.635394 -0.189061)
(0.159294 0.651685 -0.197236)
(0.165059 0.711259 -0.207324)
(0.151118 0.61488 -0.180596)
(0.153756 0.675253 -0.182909)
(0.163537 0.682968 -0.183096)
(0.179057 0.790212 -0.221319)
(0.159595 0.718648 -0.196922)
(0.147042 0.652765 -0.196127)
(0.152597 0.667647 -0.190166)
(0.157118 0.701873 -0.200158)
(0.179826 0.777116 -0.21773)
(0.127817 0.558926 -0.160013)
(0.162894 0.712679 -0.193264)
(0.167967 0.709101 -0.191682)
(0.129177 0.571231 -0.159841)
(0.137663 0.662366 -0.189091)
(0.140976 0.611241 -0.177456)
(0.164055 0.72031 -0.200701)
(0.165188 0.725345 -0.203011)
(0.151704 0.654248 -0.186784)
(0.176827 0.783443 -0.21939)
(0.164509 0.694384 -0.195851)
(0.152184 0.68602 -0.195515)
(0.158418 0.6764 -0.19229)
(0.143747 0.652714 -0.178082)
(0.141613 0.627288 -0.180686)
(0.120216 0.576973 -0.165614)
(0.147649 0.722958 -0.205799)
(0.143882 0.624869 -0.180414)
(0.141629 0.608966 -0.173263)
(0.134836 0.616887 -0.174036)
(0.145864 0.646675 -0.186204)
(0.158865 0.689266 -0.178515)
(0.151358 0.648626 -0.189992)
(0.138294 0.589242 -0.1676)
(0.174896 0.710313 -0.199408)
(0.151999 0.721162 -0.208758)
(0.154495 0.692359 -0.200502)
(0.153776 0.664316 -0.185841)
(0.15978 0.732479 -0.209332)
(0.143984 0.672582 -0.185688)
(0.143684 0.692147 -0.196097)
(0.146497 0.678754 -0.193778)
(0.173682 0.755979 -0.211301)
(0.130186 0.571 -0.164335)
(0.146904 0.646586 -0.179422)
(0.155075 0.658648 -0.182951)
(0.161939 0.658629 -0.193362)
(0.15034 0.623421 -0.178916)
(0.136047 0.538869 -0.148083)
(0.130982 0.615373 -0.180347)
(0.127462 0.603042 -0.165928)
(0.128975 0.599913 -0.179702)
(0.159643 0.714637 -0.194027)
(0.159317 0.687533 -0.192504)
(0.167423 0.681219 -0.187717)
(0.158927 0.697898 -0.190194)
(0.152559 0.636525 -0.174431)
(0.143873 0.62092 -0.174535)
(0.159672 0.666877 -0.192165)
(0.160352 0.680432 -0.192356)
(0.153406 0.69813 -0.192652)
(0.1442 0.629447 -0.166967)
(0.128654 0.619434 -0.16443)
(0.156761 0.710796 -0.188609)
(0.158715 0.714475 -0.190934)
(0.146337 0.681636 -0.183828)
(0.15737 0.73842 -0.206295)
(0.158662 0.684789 -0.196471)
(0.138908 0.594455 -0.172095)
(0.164593 0.725828 -0.202897)
(0.157622 0.729024 -0.205677)
(0.153903 0.701386 -0.197451)
(0.152626 0.651509 -0.17996)
(0.125934 0.589599 -0.179931)
(0.120758 0.555511 -0.156166)
(0.158294 0.736025 -0.204657)
(0.139438 0.628023 -0.183673)
(0.14729 0.641312 -0.185074)
(0.150666 0.673314 -0.190898)
(0.165891 0.675545 -0.18349)
(0.138834 0.58818 -0.155594)
(0.14686 0.662711 -0.183668)
(0.125617 0.616191 -0.181591)
(0.151577 0.6599 -0.191759)
(0.166153 0.735152 -0.202714)
(0.155219 0.672948 -0.199999)
(0.148892 0.647903 -0.183897)
(0.138689 0.584965 -0.16255)
(0.176963 0.714506 -0.211597)
(0.147049 0.625278 -0.175883)
(0.151325 0.7158 -0.197113)
(0.172947 0.806244 -0.22359)
(0.1351 0.602254 -0.169349)
(0.135489 0.603272 -0.172027)
(0.135512 0.623904 -0.182322)
(0.158754 0.731275 -0.196412)
(0.142068 0.67977 -0.193368)
(0.152285 0.688348 -0.180104)
(0.160914 0.726404 -0.194498)
(0.123075 0.594532 -0.169818)
(0.135836 0.631177 -0.172417)
(0.141092 0.683799 -0.191405)
(0.153949 0.652832 -0.174291)
(0.149392 0.613827 -0.159639)
(0.157915 0.693241 -0.194322)
(0.145374 0.655153 -0.180748)
(0.148023 0.629272 -0.166269)
(0.136848 0.616203 -0.180875)
(0.132492 0.585366 -0.161414)
(0.167441 0.732952 -0.200376)
(0.140366 0.596515 -0.173461)
(0.149503 0.616539 -0.176269)
(0.157717 0.640893 -0.184364)
(0.137273 0.576166 -0.158227)
(0.125661 0.51861 -0.146714)
(0.165205 0.703557 -0.199983)
(0.14234 0.592396 -0.167976)
(0.14597 0.631124 -0.179686)
(0.16218 0.705715 -0.20096)
(0.14643 0.691235 -0.191794)
(0.147376 0.693695 -0.185709)
(0.144706 0.661196 -0.186379)
(0.159698 0.72188 -0.197929)
(0.161664 0.69835 -0.19974)
(0.143381 0.651013 -0.187043)
(0.138851 0.621079 -0.175968)
(0.139589 0.622374 -0.1744)
(0.13639 0.593522 -0.16202)
(0.156863 0.671216 -0.189844)
(0.161403 0.700609 -0.206057)
(0.170408 0.744708 -0.214298)
(0.150636 0.695852 -0.189128)
(0.137891 0.624744 -0.189572)
(0.126942 0.5914 -0.170061)
(0.157033 0.694234 -0.19378)
(0.173876 0.811577 -0.220603)
(0.150424 0.646651 -0.183097)
(0.163776 0.740638 -0.195001)
(0.130184 0.553988 -0.155017)
(0.149473 0.631839 -0.171452)
(0.152271 0.68187 -0.189869)
(0.135719 0.578997 -0.154765)
(0.163727 0.710476 -0.203105)
(0.160566 0.699331 -0.202022)
(0.158628 0.690683 -0.194376)
(0.161178 0.692441 -0.195869)
(0.164454 0.74145 -0.206961)
(0.16457 0.728958 -0.20003)
(0.15287 0.665852 -0.179945)
(0.157485 0.680122 -0.187007)
(0.162797 0.68812 -0.174588)
(0.161392 0.72634 -0.198486)
(0.129068 0.592938 -0.163819)
(0.160839 0.741571 -0.207809)
(0.147057 0.622017 -0.176661)
(0.151043 0.606494 -0.172748)
(0.152464 0.730355 -0.206831)
(0.139982 0.613406 -0.169178)
(0.130957 0.598752 -0.159918)
(0.137048 0.611522 -0.174135)
(0.155102 0.73116 -0.20183)
(0.167091 0.752805 -0.209107)
(0.149572 0.671067 -0.18387)
(0.137817 0.638538 -0.176697)
(0.119709 0.562726 -0.163618)
(0.148121 0.710567 -0.199819)
(0.14031 0.655769 -0.188632)
(0.155201 0.728184 -0.205095)
(0.111803 0.534842 -0.151778)
(0.12944 0.594575 -0.17195)
(0.146768 0.66523 -0.187005)
(0.120062 0.572934 -0.176959)
(0.145748 0.636097 -0.188794)
(0.155173 0.674027 -0.184918)
(0.145667 0.606501 -0.171806)
(0.158637 0.736575 -0.20583)
(0.139586 0.593647 -0.178002)
(0.136777 0.657166 -0.186153)
(0.169708 0.739305 -0.212153)
(0.150335 0.646535 -0.180663)
(0.129184 0.646742 -0.185955)
(0.137914 0.608488 -0.162931)
(0.122133 0.612236 -0.169865)
(0.130891 0.582616 -0.164497)
(0.138172 0.599098 -0.165002)
(0.125417 0.566163 -0.169909)
(0.148328 0.671567 -0.189557)
(0.14854 0.668844 -0.20479)
(0.152647 0.698035 -0.191699)
(0.15646 0.647206 -0.1883)
(0.153591 0.709853 -0.198669)
(0.148844 0.664501 -0.186605)
(0.145616 0.64684 -0.174814)
(0.135221 0.595254 -0.165805)
(0.145358 0.688993 -0.184026)
(0.156873 0.688859 -0.198511)
(0.138391 0.60638 -0.17542)
(0.123336 0.584361 -0.158284)
(0.143608 0.638344 -0.171393)
(0.161403 0.720535 -0.204266)
(0.141094 0.67436 -0.174108)
(0.145205 0.63195 -0.17163)
(0.149362 0.617397 -0.167713)
(0.148148 0.662721 -0.171196)
(0.134387 0.602127 -0.170303)
(0.156374 0.646435 -0.173622)
(0.165405 0.696158 -0.189812)
(0.154276 0.663311 -0.171647)
(0.148875 0.640999 -0.169066)
(0.153328 0.685447 -0.199128)
(0.144431 0.637695 -0.178608)
(0.127545 0.618874 -0.171325)
(0.14745 0.66217 -0.190923)
(0.141114 0.608567 -0.173575)
(0.146569 0.623856 -0.174334)
(0.157065 0.68245 -0.198666)
(0.124692 0.593352 -0.162908)
(0.157668 0.621674 -0.162589)
(0.134015 0.6148 -0.176525)
(0.145078 0.672119 -0.194893)
(0.132309 0.598942 -0.163817)
(0.147755 0.692854 -0.19252)
(0.14235 0.6012 -0.173458)
(0.166909 0.697079 -0.194042)
(0.141547 0.60342 -0.170001)
(0.134972 0.583084 -0.159479)
(0.135799 0.5804 -0.155045)
(0.15554 0.689187 -0.190357)
(0.144015 0.667219 -0.180087)
(0.118887 0.561533 -0.159878)
(0.14576 0.65022 -0.165473)
(0.1584 0.701943 -0.195929)
(0.13914 0.657218 -0.186553)
(0.136427 0.587153 -0.175485)
(0.14868 0.678816 -0.188262)
(0.138279 0.62622 -0.173083)
(0.151878 0.68835 -0.177461)
(0.1467 0.651003 -0.188434)
(0.159304 0.717083 -0.197453)
(0.139644 0.650978 -0.184328)
(0.149728 0.673036 -0.192181)
(0.148057 0.712175 -0.197665)
(0.154727 0.685481 -0.199209)
(0.140348 0.59647 -0.175758)
(0.174424 0.744291 -0.218995)
(0.12999 0.589553 -0.17078)
(0.142756 0.656551 -0.192035)
(0.153493 0.66787 -0.181216)
(0.152809 0.657969 -0.17982)
(0.14517 0.621886 -0.163551)
(0.18012 0.739215 -0.203819)
(0.143699 0.646298 -0.178138)
(0.144948 0.682801 -0.191679)
(0.145574 0.67061 -0.185421)
(0.154947 0.703384 -0.192106)
(0.151933 0.666379 -0.192103)
(0.151688 0.709309 -0.192779)
(0.153433 0.682633 -0.187517)
(0.155349 0.696772 -0.19328)
(0.15232 0.702194 -0.19183)
(0.160286 0.702113 -0.198407)
(0.141284 0.601832 -0.170971)
(0.144456 0.614035 -0.175721)
(0.147208 0.633161 -0.179107)
(0.145519 0.666346 -0.177986)
(0.161576 0.713086 -0.195995)
(0.157543 0.644864 -0.186426)
(0.155432 0.706605 -0.199284)
(0.16041 0.707389 -0.195727)
(0.148194 0.630798 -0.162474)
(0.137684 0.567361 -0.141574)
(0.141465 0.62419 -0.162101)
(0.157835 0.627755 -0.173296)
(0.163698 0.689784 -0.18854)
(0.137385 0.610647 -0.176307)
(0.134302 0.602146 -0.17961)
(0.148984 0.629155 -0.187525)
(0.138734 0.632282 -0.177697)
(0.15161 0.655585 -0.189264)
(0.139884 0.591145 -0.176764)
(0.145581 0.619453 -0.180053)
(0.140175 0.621107 -0.195249)
(0.171393 0.713686 -0.2033)
(0.146582 0.641979 -0.179105)
(0.13799 0.596274 -0.175755)
(0.146082 0.670948 -0.196989)
(0.1581 0.738091 -0.214358)
(0.139707 0.647666 -0.191354)
(0.112565 0.54665 -0.156511)
(0.144638 0.647817 -0.188699)
(0.167234 0.733191 -0.208626)
(0.124596 0.559909 -0.16256)
(0.16544 0.714297 -0.19745)
(0.156782 0.649102 -0.180186)
(0.148285 0.681021 -0.187244)
(0.137711 0.604378 -0.168163)
(0.172821 0.768469 -0.23073)
(0.144146 0.610091 -0.185948)
(0.162364 0.701237 -0.205278)
(0.149093 0.701502 -0.200484)
(0.135685 0.602686 -0.165697)
(0.140956 0.636378 -0.173521)
(0.149419 0.618918 -0.169351)
(0.131844 0.553078 -0.14804)
(0.129806 0.571223 -0.165554)
(0.150771 0.633486 -0.185039)
(0.161549 0.659028 -0.176939)
(0.158148 0.65415 -0.19233)
(0.141313 0.672478 -0.191217)
(0.133191 0.613987 -0.177228)
(0.151084 0.633056 -0.177899)
(0.165758 0.707572 -0.188284)
(0.161372 0.733248 -0.202547)
(0.150576 0.697719 -0.205704)
(0.143118 0.631741 -0.185898)
(0.127268 0.575368 -0.167177)
(0.160613 0.735882 -0.206213)
(0.137104 0.654027 -0.175722)
(0.122393 0.562209 -0.159075)
(0.14675 0.658762 -0.194013)
(0.147792 0.665641 -0.187634)
(0.156363 0.685789 -0.198907)
(0.138854 0.622997 -0.158319)
(0.17139 0.7556 -0.206206)
(0.152875 0.646645 -0.176871)
(0.153595 0.70131 -0.182457)
(0.128543 0.616121 -0.170986)
(0.164941 0.694399 -0.202133)
(0.123245 0.564081 -0.147935)
(0.139689 0.572526 -0.167209)
(0.13208 0.560599 -0.164055)
(0.162985 0.734293 -0.207423)
(0.148511 0.663137 -0.187821)
(0.140534 0.646277 -0.180242)
(0.154973 0.69989 -0.20105)
(0.153647 0.690705 -0.194171)
(0.146238 0.632751 -0.179597)
(0.1586 0.664457 -0.182375)
(0.144027 0.610904 -0.168555)
(0.153549 0.638602 -0.174617)
(0.13135 0.584009 -0.157349)
(0.16056 0.690777 -0.193652)
(0.139006 0.561595 -0.159097)
(0.166554 0.709543 -0.2042)
(0.175062 0.736931 -0.200852)
(0.140356 0.68814 -0.183503)
(0.142024 0.626241 -0.18227)
(0.141953 0.660788 -0.179671)
(0.135748 0.602313 -0.181972)
(0.147244 0.635104 -0.190056)
(0.139802 0.680397 -0.184995)
(0.165222 0.729396 -0.221951)
(0.142005 0.634489 -0.181983)
(0.130985 0.575874 -0.170153)
(0.175364 0.75268 -0.208499)
(0.156576 0.670453 -0.1859)
(0.151389 0.647714 -0.191364)
(0.150554 0.686715 -0.187323)
(0.133927 0.603452 -0.169007)
(0.144749 0.669581 -0.191995)
(0.136978 0.642149 -0.178111)
(0.144312 0.633877 -0.180434)
(0.179024 0.768949 -0.214808)
(0.129763 0.574616 -0.166022)
(0.153817 0.718385 -0.203434)
(0.131853 0.624858 -0.176593)
(0.153594 0.67872 -0.191278)
(0.140584 0.684261 -0.189363)
(0.140592 0.603134 -0.179267)
(0.150119 0.668735 -0.187486)
(0.140601 0.653729 -0.189164)
(0.153221 0.698865 -0.188191)
(0.136187 0.603319 -0.169078)
(0.13472 0.607062 -0.166315)
(0.133088 0.574793 -0.158095)
(0.143734 0.624394 -0.175817)
(0.139218 0.626606 -0.182704)
(0.139755 0.635145 -0.183867)
(0.160815 0.760027 -0.204894)
(0.149093 0.672433 -0.18689)
(0.14362 0.658485 -0.18086)
(0.138176 0.612975 -0.183476)
(0.154074 0.704876 -0.194864)
(0.181768 0.857026 -0.238577)
(0.193254 0.888518 -0.238472)
(0.196571 0.896244 -0.246657)
(0.207691 0.952285 -0.2575)
(0.179941 0.802474 -0.218796)
(0.178113 0.811788 -0.231024)
(0.132614 0.576923 -0.151135)
(0.17515 0.811866 -0.21708)
(0.204963 0.953126 -0.256721)
(0.204204 0.942118 -0.259676)
(0.190648 0.875051 -0.243201)
(0.20502 0.95767 -0.259643)
(0.157154 0.691294 -0.189649)
(0.206635 0.953434 -0.251066)
(0.191498 0.857794 -0.237455)
(0.176283 0.773806 -0.213924)
(0.158692 0.723144 -0.199435)
(0.145848 0.642481 -0.180132)
(0.147905 0.661489 -0.182797)
(0.163869 0.714746 -0.20378)
(0.15856 0.662287 -0.189795)
(0.184508 0.826399 -0.235445)
(0.20762 0.939111 -0.25387)
(0.196999 0.898302 -0.247154)
(0.206648 0.949952 -0.256555)
(0.183877 0.796516 -0.219472)
(0.154143 0.664235 -0.184545)
(0.158919 0.695102 -0.203894)
(0.180045 0.823202 -0.230811)
(0.205718 0.954987 -0.255736)
(0.175811 0.815208 -0.224791)
(0.20636 0.945413 -0.25464)
(0.206953 0.939575 -0.250791)
(0.208316 0.944153 -0.255072)
(0.207219 0.888956 -0.242629)
(0.127449 0.55456 -0.156386)
(0.205659 0.954577 -0.255734)
(0.203471 0.935373 -0.252713)
(0.139762 0.63976 -0.188375)
(0.147031 0.661222 -0.194839)
(0.20095 0.881958 -0.245522)
(0.183927 0.804314 -0.22829)
(0.167934 0.745024 -0.207533)
(0.162965 0.727414 -0.201623)
(0.149634 0.613538 -0.175392)
(0.20458 0.942719 -0.251883)
(0.16738 0.726163 -0.216004)
(0.135343 0.634019 -0.184157)
(0.196548 0.884263 -0.240559)
(0.154689 0.691731 -0.196654)
(0.152401 0.638347 -0.183523)
(0.207008 0.946023 -0.251686)
(0.182972 0.808326 -0.229347)
(0.206857 0.93943 -0.249411)
(0.16154 0.666586 -0.187482)
(0.171412 0.711882 -0.192962)
(0.205503 0.940399 -0.251702)
(0.20646 0.948375 -0.255714)
(0.205512 0.954332 -0.254735)
(0.170605 0.780278 -0.215978)
(0.20113 0.928509 -0.251653)
(0.205579 0.951328 -0.256574)
(0.204616 0.951634 -0.254729)
(0.185321 0.852882 -0.23839)
(0.186973 0.852144 -0.232206)
(0.205229 0.946408 -0.252077)
(0.199535 0.922627 -0.250796)
(0.181355 0.823615 -0.225565)
(0.192865 0.900478 -0.244013)
(0.164873 0.771059 -0.217356)
(0.202785 0.928016 -0.249337)
(0.206367 0.956795 -0.257596)
(0.207032 0.954863 -0.254448)
(0.205218 0.947847 -0.256039)
(0.206807 0.952128 -0.253303)
(0.205335 0.956823 -0.255689)
(0.203237 0.938034 -0.252892)
(0.159749 0.723563 -0.214811)
(0.173068 0.799017 -0.223757)
(0.151959 0.716972 -0.20345)
(0.133723 0.640048 -0.179004)
(0.197343 0.908541 -0.238202)
(0.157667 0.702494 -0.195343)
(0.204863 0.957407 -0.256132)
(0.200673 0.935382 -0.250572)
(0.189437 0.804852 -0.219966)
(0.201848 0.931299 -0.252733)
(0.206823 0.95848 -0.256557)
(0.205875 0.949757 -0.255943)
(0.202394 0.923922 -0.252952)
(0.202058 0.895457 -0.24305)
(0.16112 0.679092 -0.189467)
(0.17086 0.720624 -0.198195)
(0.156396 0.691855 -0.190661)
(0.185102 0.871153 -0.231633)
(0.150572 0.699825 -0.192467)
(0.204784 0.952368 -0.253803)
(0.168331 0.786561 -0.213625)
(0.201141 0.931877 -0.25044)
(0.192732 0.905345 -0.245572)
(0.194623 0.888948 -0.2367)
(0.158117 0.720557 -0.192268)
(0.203052 0.927693 -0.250879)
(0.167852 0.751759 -0.205264)
(0.197074 0.902377 -0.240851)
(0.204504 0.953574 -0.257904)
(0.177595 0.78388 -0.228317)
(0.133687 0.619269 -0.17224)
(0.124884 0.547149 -0.157843)
(0.145995 0.676042 -0.190487)
(0.139759 0.570811 -0.158421)
(0.162494 0.743231 -0.203993)
(0.198178 0.913436 -0.253825)
(0.204361 0.955762 -0.258194)
(0.200623 0.891454 -0.244199)
(0.199109 0.942316 -0.258346)
(0.206265 0.95543 -0.256078)
(0.206147 0.959927 -0.257986)
(0.185908 0.850367 -0.234604)
(0.15765 0.685391 -0.192342)
(0.160103 0.709387 -0.201033)
(0.150255 0.651868 -0.186477)
(0.200889 0.931608 -0.255623)
(0.171493 0.784296 -0.22382)
(0.145401 0.635921 -0.187359)
(0.198734 0.930951 -0.255927)
(0.165228 0.778737 -0.220568)
(0.166708 0.706703 -0.210641)
(0.160866 0.683881 -0.187775)
(0.131586 0.541292 -0.151384)
(0.167899 0.691692 -0.190783)
(0.188362 0.874356 -0.246962)
(0.16417 0.675825 -0.204604)
(0.180317 0.815664 -0.234353)
(0.134538 0.593288 -0.172404)
(0.162084 0.772711 -0.206709)
(0.173072 0.81545 -0.21898)
(0.129466 0.561275 -0.148818)
(0.171288 0.765353 -0.199617)
(0.132648 0.621062 -0.179234)
(0.175196 0.802389 -0.216202)
(0.127719 0.534418 -0.143274)
(0.163092 0.730577 -0.203995)
(0.203303 0.908968 -0.243572)
(0.208037 0.952038 -0.251407)
(0.143397 0.644632 -0.184825)
(0.194262 0.86906 -0.23471)
(0.186446 0.857687 -0.236567)
(0.17002 0.772596 -0.211157)
(0.155544 0.658056 -0.18568)
(0.200115 0.927973 -0.248719)
(0.137875 0.598465 -0.170506)
(0.157475 0.708433 -0.203007)
(0.194346 0.875618 -0.242174)
(0.165687 0.763056 -0.211089)
(0.207668 0.955605 -0.252447)
(0.182722 0.811507 -0.226528)
(0.188904 0.83791 -0.22546)
(0.196753 0.893719 -0.23937)
(0.202246 0.91504 -0.247778)
(0.155965 0.72337 -0.193898)
(0.202543 0.929627 -0.25338)
(0.191488 0.90169 -0.249196)
(0.201325 0.938193 -0.252683)
(0.177746 0.81796 -0.222338)
(0.205951 0.958331 -0.255142)
(0.195842 0.937975 -0.252447)
(0.196321 0.903704 -0.240653)
(0.152721 0.706204 -0.191943)
(0.137931 0.647916 -0.182914)
(0.147555 0.631673 -0.178841)
(0.168369 0.777667 -0.207757)
(0.149203 0.701935 -0.19384)
(0.131169 0.583874 -0.162881)
(0.154091 0.676087 -0.196585)
(0.203593 0.897284 -0.247374)
(0.190416 0.840475 -0.234486)
(0.161442 0.678535 -0.192793)
(0.186139 0.818255 -0.229373)
(0.157486 0.716049 -0.197519)
(0.182548 0.791058 -0.226592)
(0.198634 0.863843 -0.236115)
(0.198244 0.864447 -0.243196)
(0.133239 0.59893 -0.174787)
(0.161548 0.71579 -0.210075)
(0.13764 0.636878 -0.190358)
(0.153955 0.671284 -0.195711)
(0.150667 0.680337 -0.193359)
(0.175863 0.749693 -0.211387)
(0.140748 0.621408 -0.175767)
(0.19998 0.900848 -0.246252)
(0.146959 0.642473 -0.185092)
(0.182623 0.853439 -0.241553)
(0.187592 0.81409 -0.230261)
(0.169699 0.774197 -0.217389)
(0.189148 0.876616 -0.240183)
(0.195242 0.895226 -0.245062)
(0.152803 0.695449 -0.188969)
(0.159006 0.678675 -0.186919)
(0.148118 0.694467 -0.187573)
(0.131395 0.610641 -0.160385)
(0.140158 0.613983 -0.160955)
(0.198074 0.890075 -0.23925)
(0.165316 0.740684 -0.19312)
(0.19442 0.851884 -0.229219)
(0.139814 0.602974 -0.164665)
(0.156023 0.663468 -0.18059)
(0.184932 0.824701 -0.223145)
(0.125732 0.582756 -0.166505)
(0.185551 0.840455 -0.229626)
(0.129808 0.598726 -0.165288)
(0.177054 0.838603 -0.227637)
(0.182026 0.843416 -0.22814)
(0.189727 0.878975 -0.236167)
(0.173688 0.80229 -0.220813)
(0.193547 0.888382 -0.245)
(0.1544 0.680692 -0.196008)
(0.196398 0.900999 -0.24831)
(0.184498 0.836294 -0.234633)
(0.192592 0.878631 -0.245138)
(0.189427 0.848948 -0.230366)
(0.205334 0.935277 -0.253274)
(0.200332 0.918276 -0.25126)
(0.196618 0.88032 -0.240091)
(0.201463 0.917494 -0.249053)
(0.20677 0.95001 -0.255076)
(0.206765 0.954182 -0.256639)
(0.202945 0.90627 -0.248556)
(0.174302 0.789534 -0.216077)
(0.159209 0.753345 -0.208668)
(0.136854 0.614796 -0.171348)
(0.155021 0.693294 -0.19573)
(0.152422 0.708991 -0.193747)
(0.158258 0.738997 -0.203872)
(0.174972 0.790595 -0.213181)
(0.138508 0.611185 -0.157918)
(0.142783 0.636194 -0.19586)
(0.182116 0.832942 -0.233988)
(0.174151 0.772195 -0.221796)
(0.172479 0.788044 -0.226103)
(0.18168 0.838445 -0.236758)
(0.151002 0.698111 -0.201013)
(0.17296 0.797027 -0.211265)
(0.178526 0.807445 -0.218567)
(0.161489 0.734621 -0.194448)
(0.175442 0.776946 -0.206449)
(0.188354 0.848531 -0.223653)
(0.144896 0.664609 -0.175156)
(0.162287 0.716533 -0.185481)
(0.189079 0.864204 -0.231706)
(0.182224 0.837214 -0.223846)
(0.15053 0.702244 -0.183337)
(0.148473 0.675997 -0.182469)
(0.201835 0.943062 -0.252095)
(0.178783 0.835556 -0.223143)
(0.198732 0.927832 -0.248136)
(0.180179 0.830661 -0.219408)
(0.197071 0.893111 -0.241847)
(0.190539 0.843761 -0.229047)
(0.186876 0.860957 -0.232026)
(0.204245 0.954423 -0.258622)
(0.202789 0.949769 -0.256575)
(0.204955 0.952892 -0.257856)
(0.204686 0.952535 -0.256675)
(0.196916 0.900121 -0.246599)
(0.199403 0.925132 -0.251443)
(0.161855 0.736229 -0.201191)
(0.198393 0.923686 -0.250038)
(0.171683 0.802374 -0.220374)
(0.189514 0.876937 -0.239802)
(0.180543 0.853933 -0.235156)
(0.183533 0.855285 -0.232352)
(0.151323 0.685562 -0.191566)
(0.173232 0.821805 -0.223002)
(0.174131 0.824428 -0.224332)
(0.201884 0.927925 -0.255201)
(0.186937 0.878628 -0.247786)
(0.199597 0.92963 -0.256946)
(0.195192 0.933196 -0.258651)
(0.204562 0.949903 -0.25928)
(0.203852 0.955374 -0.258644)
(0.196057 0.932187 -0.255043)
(0.188285 0.794791 -0.222925)
(0.193891 0.868883 -0.23602)
(0.18905 0.831967 -0.231999)
(0.160966 0.691506 -0.187889)
(0.19467 0.864036 -0.239784)
(0.159693 0.732692 -0.215513)
(0.203755 0.950705 -0.258616)
(0.189292 0.840558 -0.241345)
(0.202094 0.942172 -0.256339)
(0.191313 0.85158 -0.235714)
(0.198651 0.920908 -0.25589)
(0.195197 0.878401 -0.248072)
(0.203052 0.907819 -0.248816)
(0.170972 0.740802 -0.208853)
(0.159324 0.672006 -0.190355)
(0.192486 0.884834 -0.234476)
(0.202986 0.941737 -0.245928)
(0.195465 0.900678 -0.237042)
(0.197256 0.919254 -0.240572)
(0.124552 0.524083 -0.141134)
(0.131844 0.587081 -0.160778)
(0.207315 0.957394 -0.251847)
(0.205061 0.953111 -0.249649)
(0.206236 0.955997 -0.25163)
(0.205668 0.953137 -0.249934)
(0.206625 0.952462 -0.251045)
(0.206321 0.955896 -0.25131)
(0.19044 0.818604 -0.223443)
(0.207543 0.949826 -0.251875)
(0.205653 0.912559 -0.243856)
(0.206154 0.945859 -0.251899)
(0.19851 0.875554 -0.240566)
(0.196837 0.878994 -0.2406)
(0.205183 0.940258 -0.249185)
(0.149534 0.682759 -0.186696)
(0.1405 0.667755 -0.176888)
(0.134881 0.649341 -0.17059)
(0.143038 0.66882 -0.181666)
(0.15133 0.698061 -0.196088)
(0.205199 0.927953 -0.249915)
(0.18804 0.843973 -0.236718)
(0.191693 0.861863 -0.234875)
(0.180757 0.798355 -0.221468)
(0.20108 0.876942 -0.237248)
(0.198273 0.868422 -0.232466)
(0.183642 0.80537 -0.222033)
(0.164129 0.713054 -0.191899)
(0.143271 0.6347 -0.18107)
(0.147935 0.666056 -0.1837)
(0.142805 0.623044 -0.178993)
(0.151401 0.651532 -0.185127)
(0.145119 0.668291 -0.185543)
(0.136895 0.621604 -0.17848)
(0.1604 0.724745 -0.195851)
(0.160031 0.733919 -0.201953)
(0.180226 0.83263 -0.227807)
(0.150029 0.693685 -0.190113)
(0.169045 0.782201 -0.223737)
(0.156743 0.668777 -0.196937)
(0.143142 0.661013 -0.189464)
(0.1557 0.686696 -0.197532)
(0.151655 0.665072 -0.19309)
(0.194483 0.904707 -0.249565)
(0.194867 0.918846 -0.251513)
(0.174388 0.783134 -0.2085)
(0.185856 0.841559 -0.230362)
(0.166319 0.750495 -0.209835)
(0.152695 0.667418 -0.189968)
(0.135478 0.606755 -0.169945)
(0.158455 0.68757 -0.192979)
(0.155766 0.681142 -0.194306)
(0.169421 0.71994 -0.206758)
(0.14392 0.621346 -0.170037)
(0.141445 0.597275 -0.173691)
(0.137248 0.585994 -0.169491)
(0.173181 0.737738 -0.189889)
(0.156625 0.691495 -0.200525)
(0.12035 0.570401 -0.163604)
(0.156839 0.699637 -0.205495)
(0.127947 0.576733 -0.165183)
(0.207171 0.951587 -0.257433)
(0.207892 0.955308 -0.25776)
(0.202494 0.938995 -0.256797)
(0.204846 0.945515 -0.255589)
(0.206116 0.958497 -0.258459)
(0.206768 0.958164 -0.258102)
(0.204517 0.933483 -0.254654)
(0.182817 0.798723 -0.221934)
(0.205712 0.945043 -0.254169)
(0.200894 0.892701 -0.247584)
(0.194153 0.862033 -0.240704)
(0.193464 0.856171 -0.237799)
(0.201257 0.896669 -0.245751)
(0.201349 0.911637 -0.25013)
(0.148488 0.660929 -0.182902)
(0.189771 0.828373 -0.226003)
(0.19298 0.848076 -0.237363)
(0.19911 0.855026 -0.236036)
(0.184434 0.809834 -0.228657)
(0.201298 0.887007 -0.241562)
(0.193924 0.884593 -0.245294)
(0.184479 0.783968 -0.224717)
(0.162325 0.708847 -0.208882)
(0.158255 0.682462 -0.197759)
(0.186808 0.822693 -0.228001)
(0.176256 0.772959 -0.217988)
(0.207242 0.948472 -0.256416)
(0.205419 0.927692 -0.250954)
(0.206151 0.930147 -0.254786)
(0.200442 0.886541 -0.242502)
(0.205665 0.935179 -0.253435)
(0.201827 0.897208 -0.240545)
(0.190015 0.828506 -0.226619)
(0.171723 0.706873 -0.187597)