/*--------------------------------*- C++ -*----------------------------------*\
| =========                 |                                                 |
| \\      /  F ield         | OpenFOAM: The Open Source CFD Toolbox           |
|  \\    /   O peration     | Version:  v1612+                                |
|   \\  /    A nd           | Web:      www.OpenFOAM.com                      |
|    \\/     M anipulation  |                                                 |
\*---------------------------------------------------------------------------*/
FoamFile
{
    version     2.0;
    format      ascii;
    class       volVectorField;
    location    "100";
    object      wallShearStress;
}
// * * * * * * * * * * * * * * * * * * * * * * * * * * * * * * * * * * * * * //

dimensions      [0 2 -2 0 0 0 0];

internalField   uniform (0 0 0);

boundaryField
{
    WALL
    {
        type            calculated;
        value           nonuniform List<vector> 
54707
(
(0.0150438 0.00159941 0.0127937)
(-0.00306896 -0.011614 0.00978506)
(-0.00296351 -0.0140225 0.00381554)
(0.0148827 0.00257816 0.0133645)
(-0.0023236 -0.0104021 0.00968771)
(-0.00312923 -0.0147806 0.00429241)
(0.00219629 -0.0116089 0.00819831)
(0.00220152 -0.0121715 0.00817414)
(-0.00295428 -0.0110702 0.00971935)
(-0.00282099 -0.0110885 0.00982986)
(0.0229662 0.000905544 0.0125864)
(0.0223033 0.00220939 0.013565)
(-0.00283514 -0.0104251 0.00911627)
(-0.00265797 -0.0102611 0.00910053)
(0.00969442 -0.00834777 -0.0165384)
(0.010541 -0.00944698 -0.0180142)
(-0.00315534 -0.0133996 0.0114369)
(-0.0034417 -0.01323 0.0114167)
(-0.00342751 -0.0107657 0.0100863)
(-0.00260937 -0.00951193 0.00818717)
(-0.0087189 -0.0207993 0.0166502)
(-0.00807131 -0.0195685 0.0195181)
(0.0134728 0.00078691 0.0179347)
(0.0127397 -0.000329099 0.0173073)
(-0.00327392 -0.0148338 0.00415062)
(-0.00296519 -0.0139776 0.00401594)
(0.00832021 -0.00714699 -0.0147883)
(0.00805844 -0.00629349 -0.0148076)
(-0.00272836 -0.0106665 0.00930728)
(-0.00287932 -0.0106232 0.00936078)
(-0.00310706 -0.010719 0.00922811)
(-0.00268728 -0.0103851 0.00916306)
(-0.00333792 -0.0060425 0.0140334)
(-0.00404632 -0.00601196 0.00995899)
(0.0158976 -0.00423214 0.0065561)
(0.0159677 -0.00457959 0.00677767)
(-0.00317965 -0.0136305 0.00366698)
(-0.0030367 -0.0137419 0.00376418)
(-0.00279039 -0.0128119 0.00349477)
(-0.00291438 -0.0126086 0.00350834)
(-0.0096166 -0.0166008 8.53026e-05)
(-0.00905376 -0.0176133 -0.000653395)
(0.00197843 -0.00786608 0.0136903)
(0.00238286 -0.0104945 0.0135847)
(0.00521759 -0.00930861 0.010941)
(0.00404131 -0.0089475 0.0123485)
(0.00145989 -0.0125473 0.0063433)
(0.0012855 -0.0125228 0.00622488)
(0.00364685 -0.0184519 0.00931963)
(0.00289078 -0.0187105 0.00904057)
(-0.00298017 -0.0130724 0.00355365)
(-0.00317023 -0.0133255 0.00371678)
(-0.00309753 -0.0146747 0.00402813)
(-0.00310837 -0.0143683 0.00398497)
(-0.00286436 -0.0130676 0.0035618)
(-0.00284037 -0.0128766 0.0035099)
(0.00909099 0.00149663 0.00704013)
(0.00965595 0.00244971 0.00803305)
(0.0130489 0.00405055 0.0136319)
(0.0142691 0.00482767 0.0152902)
(0.0163608 0.00630099 0.0105488)
(0.0161744 0.00577812 0.00850699)
(0.0169478 0.00618191 0.0115265)
(0.016575 0.00469936 0.00974072)
(0.0203825 -0.00535131 0.0094968)
(0.0201727 -0.00321592 0.0108121)
(-0.0030506 -0.0128295 0.00375498)
(0.0164663 -0.0113952 0.00739837)
(0.0137351 -0.012388 0.0072767)
(0.00414449 -0.012697 0.00878431)
(0.00390204 -0.0119765 0.0107973)
(0.00636182 -0.0131762 0.00493538)
(0.0072555 -0.0128607 0.00432327)
(0.0192686 -0.00249859 0.0121414)
(0.0190723 -0.00347494 0.009838)
(0.0207345 0.0035697 0.0119992)
(0.0216219 0.00185631 0.0122429)
(0.0210109 0.00193405 0.0110718)
(0.0219354 0.0010582 0.0116365)
(0.0150795 -0.00543527 0.00805989)
(0.0154519 -0.005379 0.00817979)
(0.00755526 -0.00899122 0.00788532)
(0.00579388 -0.00936181 0.00744215)
(0.0150077 0.00408611 0.0114441)
(0.0150996 0.00454759 0.011397)
(0.00264161 -0.011615 0.00250908)
(0.0026374 -0.0100375 0.00324609)
(0.00151356 -0.0108707 0.013729)
(0.00175739 -0.0117326 0.0138827)
(0.00344119 -0.00996763 0.00764451)
(0.00289484 -0.00937304 0.00776647)
(0.00415302 -0.010658 0.00588171)
(0.00444236 -0.0104212 0.00548829)
(0.00162426 -0.00888623 -0.0154897)
(0.000443299 -0.00812262 -0.0145051)
(0.00557851 -0.0154354 -0.0252984)
(0.0059243 -0.0163244 -0.023534)
(0.00607365 -0.018493 -0.0211687)
(0.00543566 -0.0178767 -0.0236995)
(0.00733985 -0.01799 0.00705152)
(0.00738075 -0.0174348 0.00749708)
(-0.0136904 -0.0156344 -0.000755568)
(-0.0139814 -0.0159726 -4.05319e-05)
(-0.01764 -0.0149709 -0.00302306)
(-0.0156531 -0.015362 -0.00214032)
(-0.0152334 -0.0150265 -0.00730738)
(-0.0147696 -0.0140855 -0.00801087)
(-0.003904 -0.0272261 0.0220774)
(-0.0054631 -0.0266206 0.0217744)
(0.00262554 -0.0118833 0.00915057)
(0.00274791 -0.0124409 0.00860074)
(0.00858174 -0.00435912 0.00740408)
(0.0085325 -0.00568866 0.00690042)
(-0.022169 -0.0157472 0.000474672)
(-0.0219178 -0.0146609 -0.000912745)
(-0.0121202 -0.0183933 -0.00285888)
(-0.0135684 -0.0171976 -0.00330448)
(0.00528988 -0.00911625 0.0307862)
(0.00248224 -0.00746817 0.030232)
(0.00064058 -0.011335 0.0217825)
(0.00287507 -0.0132475 0.0206599)
(-0.0146294 -0.0062046 0.00298714)
(-0.0158722 -0.00737346 0.00407337)
(-0.0134259 -0.00773613 0.00219681)
(-0.0131462 -0.00707841 0.0033839)
(-0.0191755 -0.0124586 -0.00132474)
(-0.0201256 -0.0138815 -0.000897033)
(0.00115736 -0.00566124 0.00381665)
(0.000272591 -0.00432297 0.00287335)
(-0.00136562 -0.00886235 0.00709827)
(-0.00144789 -0.00752691 0.00622903)
(-0.00248876 -0.0109194 0.0099539)
(-0.00258063 -0.0115529 0.0107177)
(-0.00260791 -0.0105472 0.00908405)
(-0.00267811 -0.0101097 0.008557)
(-0.00270995 -0.0105269 0.0091888)
(-0.00284777 -0.0105976 0.00926455)
(0.000929794 -0.0126755 0.0192485)
(0.00081781 -0.0132229 0.0187606)
(-0.00052322 -0.0153429 0.0173809)
(0.000572265 -0.014563 0.0184558)
(-0.00411295 -0.0203938 0.0172006)
(-0.0057031 -0.0216714 0.0190372)
(-0.00283838 -0.0106534 0.00930179)
(-0.00297884 -0.0107137 0.00934286)
(-0.00280103 -0.0107157 0.0094139)
(-0.0026587 -0.0105373 0.00918353)
(-0.00269431 -0.0107652 0.00923364)
(-0.00275692 -0.0107869 0.0093673)
(-0.00380882 -0.0138157 0.0122012)
(-0.00372249 -0.0140774 0.0124754)
(-0.00286722 -0.0105941 0.00927624)
(-0.00280519 -0.0104213 0.00915778)
(-0.00586655 -0.0140332 0.00559922)
(-0.00516505 -0.0122257 0.00603046)
(-0.0180177 0.0147964 0.0127112)
(-0.018025 0.0184945 0.0139072)
(-0.00370775 -0.0163003 0.00425894)
(-0.00371769 -0.0172629 0.00461149)
(0.0137651 0.000907871 0.00768102)
(0.01487 0.000944591 0.00818095)
(0.00972473 -0.00392772 -0.0132173)
(0.00916295 -0.00394816 -0.0115336)
(0.00572175 -0.0124388 0.000101885)
(0.00641023 -0.0151428 0.000655156)
(0.0086257 -0.0023756 0.0047421)
(0.00900465 -0.00281091 0.00439536)
(0.00184051 -0.0127966 0.00768838)
(0.00158582 -0.0113962 0.00716339)
(0.00194048 -0.0125965 0.00703393)
(0.00233369 -0.0134237 0.00702887)
(0.00400528 -0.0138675 0.00708104)
(0.00457982 -0.014192 0.0072223)
(-0.00279167 -0.010609 0.00927043)
(-0.00268318 -0.0106216 0.00914522)
(0.0109271 -0.00989047 0.00220526)
(0.0109658 -0.0108429 0.00181745)
(0.00160809 -0.0182112 0.00821254)
(0.00180463 -0.0173371 0.00785207)
(-0.0028691 -0.010767 0.00935008)
(-0.00278152 -0.0108116 0.00933058)
(-0.00119241 -0.0173224 0.0077755)
(-0.00122543 -0.0195203 0.0100314)
(0.00590107 -0.0209737 0.0201)
(0.00693324 -0.0197568 0.0233324)
(0.00333957 -0.00986373 0.0109123)
(0.00330349 -0.0101307 0.00964095)
(0.00215655 -0.00924946 0.00560857)
(0.00235745 -0.00905283 0.0052576)
(0.00330919 -0.00815268 0.00419182)
(0.00272883 -0.00823234 0.00460183)
(-0.00342685 -0.00488338 -0.00870686)
(-0.00300294 -0.00401811 -0.00905431)
(0.0183645 0.00687682 0.00487794)
(0.0187205 0.00621334 0.00434291)
(0.013873 0.00178682 0.00725105)
(0.0145973 0.0025969 0.00762859)
(0.0122299 -0.00868087 0.00297635)
(0.011792 -0.00931972 0.00264303)
(0.0189886 -0.0316136 -0.00274233)
(0.0180871 -0.0296117 0.00261823)
(0.012556 -0.00143598 0.0194726)
(0.0142034 -0.000553374 0.0208057)
(0.00554647 -0.00713685 0.00387109)
(0.00512644 -0.0071081 0.00471172)
(-0.00273743 -0.00995362 0.00850973)
(-0.00243072 -0.0109391 0.00927976)
(-0.00781488 -0.0335071 0.00985863)
(-0.00767222 -0.0312712 0.00921489)
(0.00500453 -0.0089762 0.0105737)
(0.00455377 -0.00747807 0.00953549)
(-0.00576942 -0.010174 0.00691811)
(-0.00762665 -0.0115189 0.00497422)
(-0.000471916 0.0108114 0.0191401)
(2.05802e-05 0.0095827 0.0188399)
(0.00216701 -0.0132934 0.00738039)
(0.00241652 -0.0133266 0.00741349)
(0.0041265 -0.0107189 0.00536332)
(0.00474597 -0.0107142 0.00528714)
(0.00441319 -0.0109176 0.0053959)
(0.00393988 -0.0112203 0.00568936)
(0.00170344 -0.0145689 0.00717192)
(0.00164848 -0.0145445 0.00680107)
(0.00151377 -0.0143103 0.00614506)
(0.00139152 -0.0149484 0.0068079)
(-0.00147151 -0.0125739 0.00480086)
(-0.00183474 -0.012583 0.00469378)
(-0.00279676 -0.0130934 0.00359404)
(-0.00262484 -0.012466 0.00360471)
(-0.0029103 -0.0129404 0.00352058)
(-0.00280447 -0.0126351 0.00344459)
(0.00975115 -0.000469888 0.00911851)
(0.0091398 -0.000141471 0.0084959)
(0.00902025 -0.000698518 0.00780638)
(0.00864962 -0.000979123 0.00750602)
(0.00932156 -0.000213498 0.00819415)
(0.00895822 0.000347576 0.00814823)
(0.0132019 0.00332666 0.0139806)
(0.0127814 0.00263985 0.0147463)
(0.0136164 0.00210232 0.00381131)
(0.0132038 0.00171792 0.00408756)
(-0.00282826 -0.0134181 0.00402109)
(-0.00312216 -0.0136005 0.00367217)
(-0.0028357 -0.0135191 0.00406876)
(-0.00309624 -0.0140594 0.00395752)
(0.019903 0.00516511 0.00860649)
(0.0187065 0.00546914 0.00841298)
(0.0177196 0.00625502 0.00905745)
(0.0174767 0.00710487 0.00909993)
(0.0169447 0.00364485 0.016429)
(0.0145529 0.00361167 0.0161067)
(-0.00039588 -0.0115064 0.00536271)
(-0.00075754 -0.0113733 0.00546098)
(0.0167529 -0.00524725 0.00768565)
(0.0170036 -0.00606997 0.00746124)
(0.0118571 -0.000612622 0.00762318)
(0.0116041 -0.000488483 0.00724933)
(0.0112977 0.00101671 0.00484821)
(0.0122844 0.000658315 0.00617667)
(0.0109888 -0.000552362 0.00358791)
(0.0107804 -0.00110887 0.00335219)
(0.00933155 -0.0136212 0.00928413)
(0.00866495 -0.0140929 0.00964209)
(0.0186871 0.00685252 0.00475675)
(0.0192686 0.00597876 0.00511507)
(0.0193956 0.0060368 0.00472103)
(0.0186158 0.00666993 0.00453793)
(-0.000894341 -0.0121699 0.00513715)
(-0.000463969 -0.0120667 0.00505266)
(0.000111275 -0.0112225 0.00523094)
(-0.000172113 -0.0113532 0.00527388)
(0.00263296 -0.00895748 0.00331161)
(0.00236411 -0.00844691 0.00357985)
(0.015134 -0.00749082 -0.0210848)
(0.0154543 -0.00961197 -0.0218153)
(0.00637315 -0.0199916 -0.0197802)
(0.00763093 -0.0213489 -0.0193504)
(0.00834636 0.00307022 0.00952672)
(0.00751278 0.0033087 0.0103026)
(-0.00812252 -0.0149791 -0.00226432)
(-0.00775063 -0.0152496 -0.00187914)
(0.00659787 -0.00187661 0.0075452)
(0.00634221 -0.00155968 0.00757444)
(-0.0153229 -0.0133134 0.00491405)
(-0.0147142 -0.0130804 0.00478499)
(0.00511407 -0.0111716 0.00759449)
(0.00478281 -0.0113517 0.00796475)
(-0.0199592 -0.016028 0.00563421)
(-0.0206887 -0.0166736 0.00475424)
(0.00606336 -0.0177872 0.0304069)
(0.00723825 -0.0161314 0.0300032)
(0.00480489 -0.0163372 0.0267605)
(0.00570349 -0.0177676 0.0245431)
(-0.00181487 -0.0194337 0.0189628)
(-0.000899944 -0.0192848 0.0152655)
(-0.0169564 -0.0103986 0.00769236)
(-0.015021 -0.0117069 0.00807877)
(-0.00242696 -0.00997064 0.00900177)
(-0.00288541 -0.0108158 0.00946759)
(-0.00136934 -0.00758476 0.00613435)
(-0.0013715 -0.0067145 0.00551505)
(-0.00162406 -0.00728863 0.00609401)
(-0.00170684 -0.00716925 0.00590686)
(-0.00275064 -0.0109554 0.00988834)
(-0.0029299 -0.0108972 0.00954538)
(0.0120222 -0.0203671 -0.00132723)
(0.012424 -0.0204969 0.00141338)
(-0.00310635 -0.000797851 0.00545625)
(-0.00304224 -0.00106964 0.00596128)
(-0.00746756 -0.0180839 0.00370166)
(-0.00898438 -0.0173078 0.00441817)
(-0.00220483 -0.0116752 -0.0186521)
(-0.00266737 -0.0130541 -0.0267592)
(0.013351 -3.57171e-05 0.00812124)
(0.0144127 -0.000573624 0.0087638)
(-0.00327077 -0.015615 0.00442687)
(-0.00358029 -0.0156457 0.00417576)
(-0.00626597 -0.0330353 0.00856315)
(-0.00656685 -0.0314738 0.00754071)
(-0.00292884 -0.013464 0.00408499)
(-0.00285783 -0.0125207 0.00358586)
(-0.000271116 -0.0117763 0.0137824)
(-0.000361117 -0.0117548 0.0129487)
(0.00205693 -0.0076212 -0.0102893)
(0.00273957 -0.0175818 0.00776011)
(0.00259703 -0.0177906 0.00776202)
(0.00125275 -0.0113375 0.0063379)
(0.00121642 -0.0120731 0.00647091)
(0.00419038 -0.00783657 0.00517463)
(0.00379829 -0.0081713 0.00536722)
(0.00192534 -0.0129306 0.00718624)
(0.00119604 -0.0120019 0.00690219)
(-0.00289049 -0.0102638 0.00858855)
(-0.00296191 -0.0118574 0.00965256)
(-0.00294627 -0.0103717 0.00906485)
(-0.00295643 -0.0106631 0.00910944)
(-0.00264372 -0.0102913 0.00909256)
(-0.00262637 -0.0100182 0.00873077)
(-0.00307336 -0.0105095 0.00921692)
(-0.00269388 -0.0105308 0.00910449)
(-0.00260756 -0.0100814 0.00891726)
(-0.00296205 -0.0108569 0.00937974)
(-0.00274339 -0.0100334 0.0087076)
(-0.00316532 -0.0104407 0.00926923)
(-0.00273173 -0.0106287 0.00925839)
(-0.00261901 -0.0101963 0.00884454)
(-0.00241747 -0.0102462 0.00869051)
(-0.00287043 -0.0105639 0.00904845)
(-0.00269479 -0.0100016 0.00883773)
(-0.00269423 -0.0108659 0.009202)
(-0.00274931 -0.0104892 0.00929719)
(-0.00281635 -0.0106628 0.00927522)
(0.00417258 -0.0113751 0.00535354)
(0.00342802 -0.011354 0.00566029)
(0.0023926 -0.0129168 0.00733249)
(0.00310558 -0.0136606 0.00747404)
(0.00478464 -0.0139611 0.00676708)
(0.00478708 -0.0138448 0.0068081)
(0.00258015 -0.0131359 0.00726252)
(0.00193704 -0.0121657 0.00766384)
(0.00335664 -0.0116906 0.0097712)
(0.00375639 -0.0110444 0.00981121)
(0.00131355 -0.0105617 0.00706058)
(0.00162206 -0.0105464 0.00747777)
(0.00910772 0.00371905 0.00631371)
(0.00983642 0.00423123 0.00675379)
(-0.00277314 -0.0135418 0.00392867)
(-0.00255673 -0.0129814 0.00378984)
(-0.00327757 -0.0141073 0.00567238)
(-0.0034045 -0.0140828 0.00542798)
(-0.00286593 -0.012945 0.00359059)
(-0.0028911 -0.0133056 0.00375168)
(-0.00288439 -0.0131304 0.00365883)
(-0.00286601 -0.0129454 0.00353013)
(0.0112595 -0.00523903 0.0190947)
(0.0113794 -0.00323675 0.020018)
(0.0192007 0.000974392 0.0158224)
(0.0205659 -4.30699e-05 0.0141807)
(0.00377155 -0.00764223 0.0127817)
(0.00359204 -0.00700622 0.0129229)
(0.0104653 -0.00818954 0.00410843)
(0.00994916 -0.00805837 0.00389765)
(0.0106543 -0.00691321 0.00385205)
(0.0104274 -0.00607251 0.00362924)
(0.00974551 -0.00480751 0.00390358)
(0.0103619 -0.00552775 0.00400362)
(0.00979551 -0.00417051 0.00398991)
(0.010361 -0.00506422 0.00373448)
(0.00890052 -0.00278313 0.00452144)
(0.00888598 -0.00308781 0.00393157)
(0.0131513 -0.0100404 0.00591182)
(0.012894 -0.00921905 0.00473807)
(0.0108952 -0.00519181 0.00376784)
(0.0104165 -0.00404636 0.00380717)
(0.0114361 -0.00435095 0.00404364)
(0.0111611 -0.00394566 0.00414129)
(0.0104177 -0.005332 0.00431542)
(0.0103198 -0.00461453 0.00429734)
(0.00837619 -0.00762865 0.00379707)
(0.00806513 -0.00732003 0.00446099)
(0.0116955 -0.00983354 0.00247401)
(0.0119109 -0.010921 0.00242256)
(0.0116114 -0.0107788 0.00203128)
(0.0113951 -0.0122746 0.00178433)
(0.010862 -0.0119418 0.00136486)
(0.0102345 -0.0125594 0.00118412)
(0.00475466 -0.00790337 0.0054062)
(0.0050498 -0.00748901 0.00526193)
(0.0106351 -0.00299086 -0.0145148)
(0.0103696 -0.00326171 -0.0129126)
(0.00752655 -0.00444488 -0.0100573)
(0.00689964 -0.00465867 -0.0101898)
(0.00603741 -0.00892272 -0.0137741)
(0.0056772 -0.00849692 -0.0130422)
(0.00658177 -0.00716234 -0.0127592)
(0.00616898 -0.00643512 -0.0115144)
(0.00362652 -0.0107845 -0.0124957)
(0.00391271 -0.00999145 -0.0126779)
(0.00152029 -0.0126432 -0.0123349)
(0.00120237 -0.0111582 -0.0118328)
(0.0025831 -0.0094131 -0.0118962)
(0.00254932 -0.0110734 -0.0126464)
(0.00681307 -0.00413164 -0.00869668)
(0.00691324 -0.00402928 -0.00860753)
(0.00888807 -0.0096019 -0.0198932)
(0.0088321 -0.00953897 -0.0207667)
(0.0117491 -0.00821334 -0.0181587)
(0.0108329 -0.00947371 -0.0184684)
(0.00252521 -0.0112533 -0.0141424)
(0.00344823 -0.0106948 -0.0136538)
(0.00423605 -0.010267 -0.0133771)
(0.00473572 -0.00932293 -0.0128163)
(-0.0026302 -0.00983936 0.00848302)
(-0.00226885 -0.0100546 0.00862397)
(-0.00160237 -0.012091 0.0126712)
(-0.00166359 -0.0124717 0.01281)
(0.000632456 -0.0129091 0.0149412)
(-0.000313443 -0.0123724 0.014675)
(-0.005104 -0.0214622 0.0184504)
(-0.00637517 -0.0216891 0.0195808)
(-0.00561473 -0.0165952 0.0173084)
(-0.0059293 -0.0174574 0.0177312)
(-0.000151496 -0.0117609 0.011826)
(0.00017894 -0.0116128 0.0109706)
(-0.0122167 0.00156716 0.0243659)
(-0.0119345 0.00166525 0.0235671)
(0.015938 -0.00735531 -0.0159699)
(0.0113503 -0.00783281 -0.0100517)
(-0.00659601 -0.0272022 -0.0258371)
(-0.00556483 -0.021415 -0.00990384)
(-0.00455172 -0.0199679 -0.00605542)
(0.0131405 0.0022419 0.0062616)
(0.0136925 0.00249231 0.00659741)
(0.0202187 0.00180983 0.00832338)
(0.0206955 0.00121945 0.00816948)
(0.0180312 0.00497686 0.0103987)
(0.0179079 0.00645612 0.0108856)
(0.0160773 0.00857128 0.00525388)
(0.0157468 0.00784362 0.0068788)
(-0.00319912 -0.0137173 0.00395691)
(-0.00306229 -0.013799 0.00390417)
(-0.00347384 -0.0153125 0.00419755)
(-0.00332437 -0.0150343 0.00420838)
(-0.00330948 -0.0145479 0.00416208)
(-0.00326604 -0.0146972 0.00408656)
(-0.00406266 -0.0185405 0.00477659)
(0.0115126 -0.0106702 0.00271336)
(0.0112605 -0.0113215 0.00247541)
(0.0104157 -0.00697256 0.00300005)
(0.0112511 -0.00888787 0.00363426)
(0.0113817 -0.00804964 0.0101805)
(0.0101061 -0.00931663 0.00842612)
(0.0114691 -0.0054094 0.00422072)
(0.0131888 -0.00622637 0.00486716)
(0.0109705 -0.00962642 0.0105843)
(0.0103225 -0.00780938 0.00876728)
(0.0110589 0.00310336 0.00277603)
(0.0111606 0.0034836 0.00274263)
(0.0119538 0.00385142 0.00218153)
(0.0115675 0.00364221 0.00207994)
(0.0190243 0.00332827 0.00669913)
(0.0198997 0.00354776 0.00751012)
(0.0174553 -0.00387982 0.006523)
(0.0168634 -0.00308805 0.00715172)
(-0.00179901 0.000365764 0.00506197)
(-0.00163478 0.00103194 0.00572936)
(0.00122349 -0.00642137 -0.00485461)
(0.00163401 -0.00551573 -0.00354324)
(0.000885527 -0.00686636 -0.005861)
(-0.000326867 -0.00927353 -0.00966552)
(0.00909247 -0.0277567 -0.0339762)
(0.00443496 -0.0260108 -0.0318014)
(-0.00974336 0.00655447 0.0216332)
(-0.0113749 0.00741561 0.0228259)
(-0.00976649 0.00645762 0.0239776)
(-0.0112921 0.00629057 0.0244923)
(-0.00906047 -0.0289919 0.00530985)
(-0.00707184 -0.0308864 -0.00111414)
(-0.0118837 -0.0223137 -0.000144792)
(-0.0123572 -0.0240895 0.000553577)
(-0.00697536 0.0124424 0.0284326)
(-0.0058998 0.0130807 0.0268155)
(-0.0115481 0.00657034 0.0276995)
(-0.0120297 0.00677824 0.027061)
(-0.00761992 0.00886664 0.030445)
(-0.00761451 0.0084499 0.0298392)
(-0.00396671 -0.000182343 0.00565565)
(-0.00453347 -0.000661528 0.00583399)
(-0.00935336 0.00200279 0.00816579)
(-0.0111412 0.00346227 0.00956061)
(-0.00355463 -0.00254716 0.00626637)
(-0.00379783 -0.00192411 0.0061955)
(-0.0047839 0.0213598 0.0205673)
(-0.00418082 0.021833 0.0245161)
(-0.00644583 0.00822954 0.0294559)
(-0.00480294 0.00982131 0.0295963)
(-0.0026281 -0.00512859 0.0171478)
(-0.00339457 -0.00605953 0.0182112)
(0.00550462 -0.021099 0.00659535)
(0.00448868 -0.0246622 0.00388484)
(0.012572 -0.020785 0.00035721)
(0.0126057 -0.0187382 0.000848278)
(0.0102191 -0.0226457 0.00327587)
(-0.00262298 -0.0109176 0.00936075)
(-0.00299801 -0.0106805 0.00950275)
(-0.00374536 -0.0131933 0.0117255)
(-0.00343207 -0.0128079 0.0113452)
(-0.00332222 -0.0129517 0.0110656)
(-0.00302258 -0.0125389 0.012455)
(-0.00386405 -0.0147137 0.0127625)
(-0.00442168 -0.0146812 0.013815)
(-0.0030361 -0.0171749 0.0146325)
(-0.00292814 -0.0164597 0.0141777)
(-0.00291543 -0.0106354 0.00903391)
(-0.00271568 -0.0104319 0.00890455)
(-0.00297856 -0.0108991 0.00956074)
(-0.00294391 -0.0110804 0.00970036)
(-0.00305382 -0.0111715 0.00989947)
(-0.00308465 -0.010471 0.00930194)
(-0.0032689 -0.0117321 0.0103765)
(-0.00279767 -0.0106825 0.00923509)
(-0.00310987 -0.0113488 0.0101671)
(-0.00300678 -0.0114907 0.00997299)
(-0.00277411 -0.0119074 0.0102647)
(-0.00309793 -0.0122609 0.0105071)
(-0.00303976 -0.010771 0.00937326)
(-0.00300691 -0.0112608 0.00983967)
(-0.00281428 -0.0105511 0.00914936)
(-0.00263864 -0.0107014 0.00940328)
(-0.00287964 -0.0105572 0.00926137)
(-0.00273446 -0.010365 0.00909493)
(-0.00265681 -0.0112862 0.00932448)
(-0.00279017 -0.0109281 0.0094251)
(-0.002888 -0.0103979 0.00923325)
(-0.00276791 -0.0104901 0.00911954)
(-0.00290062 -0.0097453 0.00816032)
(-0.00307678 -0.0111346 0.00889968)
(-0.00266991 -0.01028 0.00890766)
(-0.00256038 -0.0103761 0.00890954)
(-0.0028088 -0.0106629 0.00911571)
(-0.0028189 -0.0103738 0.00900339)
(-0.00293656 -0.011156 0.00956373)
(-0.00280532 -0.0102632 0.00890354)
(-0.00295588 -0.0110184 0.00943538)
(-0.00298338 -0.0108081 0.00896132)
(-0.00300806 -0.0106249 0.0093035)
(-0.00259022 -0.010424 0.00910667)
(-0.00270104 -0.0110767 0.00904279)
(-0.00272093 -0.0103855 0.00920089)
(-0.0028056 -0.0105497 0.00905413)
(-0.00283127 -0.010477 0.00925348)
(-0.0027535 -0.0104191 0.00895906)
(-0.00257046 -0.0102139 0.00939376)
(-0.00289277 -0.0108064 0.00952127)
(-0.00311157 -0.0107785 0.00957926)
(-0.00267786 -0.0106625 0.00934112)
(-0.0027995 -0.0105248 0.00907074)
(-0.00292945 -0.0104338 0.00902479)
(-0.00275223 -0.0101567 0.00893758)
(-0.00280436 -0.0107303 0.00937994)
(-0.0029154 -0.0105817 0.00934722)
(-0.00279198 -0.0107175 0.00940309)
(-0.00288395 -0.0106414 0.00918503)
(-0.00280508 -0.010125 0.00930284)
(-0.00248278 -0.00956056 0.00893997)
(-0.000902421 -0.0136637 0.0148543)
(-0.000966544 -0.0145204 0.0154775)
(0.00200886 -0.0162375 0.0202526)
(0.00243712 -0.0160566 0.0213181)
(-0.00090458 -0.0124896 0.0157675)
(-0.000835915 -0.0116188 0.015474)
(0.00331069 -0.0124117 0.0227095)
(0.00359434 -0.0135787 0.0224671)
(-0.00280221 -0.0123032 0.0118556)
(-0.00217781 -0.0117987 0.0116758)
(-0.00110375 -0.00654632 0.0051312)
(-0.00111292 -0.00743937 0.00579381)
(-0.00264516 -0.00866511 0.0113336)
(-0.00243922 -0.0099008 0.0122862)
(-0.000609667 -0.00946853 0.00773893)
(-0.000883526 -0.00826237 0.00645784)
(-0.00204149 -0.00688566 0.0063525)
(-0.0020889 -0.00705565 0.00668467)
(-0.0025649 -0.00673227 0.00812232)
(-0.00184309 -0.00632805 0.00666732)
(-0.00269595 -0.0109184 0.00950911)
(-0.00301299 -0.0104878 0.00941969)
(-0.00323052 -0.0111897 0.00982531)
(-0.00341679 -0.0110356 0.00949483)
(-0.0025243 -0.0111532 0.00867312)
(-0.00273538 -0.011526 0.00978605)
(-0.00314749 -0.0113351 0.00985755)
(-0.00260512 -0.00988669 0.00907974)
(-0.00269742 -0.01034 0.00900811)
(-0.00274458 -0.0104102 0.00904554)
(-0.00302181 -0.0111255 0.0102044)
(-0.00262473 -0.0103017 0.00905897)
(-0.00269455 -0.0120362 0.0112665)
(-0.002579 -0.011772 0.0110608)
(-0.00243358 -0.0106304 0.0107431)
(-0.00270288 -0.0109347 0.0104093)
(-0.00238068 -0.0109299 0.010329)
(-0.00260846 -0.0112616 0.0104849)
(-0.00332311 -0.0121617 0.0108363)
(-0.0026434 -0.0122647 0.0112518)
(-0.00265578 -0.011383 0.0104388)
(-0.00252385 -0.0106071 0.00969035)
(-0.0028915 -0.0105693 0.00925239)
(-0.00271141 -0.0104169 0.00904618)
(-0.00255133 -0.0100045 0.00864373)
(-0.00278193 -0.0103829 0.00864226)
(-0.00275664 -0.0107288 0.00952391)
(-0.00271049 -0.0104144 0.00900561)
(-0.00285493 -0.0107073 0.00924988)
(-0.00259868 -0.0104544 0.00918618)
(-0.00289021 -0.0105495 0.00905018)
(-0.00269291 -0.0102861 0.00900632)
(-0.00261801 -0.010335 0.00916017)
(-0.00242294 -0.0103555 0.00929784)
(-0.00266239 -0.0106975 0.00946357)
(-0.00291713 -0.0104977 0.00920871)
(-0.00171799 -0.00751326 0.00633525)
(-0.00137942 -0.00851889 0.00675899)
(-0.00121096 -0.0099432 0.00805925)
(-0.00173588 -0.00879188 0.00723702)
(-0.00245552 -0.00954336 0.00871366)
(-0.00262435 -0.00949534 0.00849855)
(-0.00257079 -0.00971719 0.0086861)
(-0.00273572 -0.0102983 0.00806765)
(-0.00251672 -0.0100457 0.0087014)
(-0.00270833 -0.0101091 0.00885307)
(-0.0154992 -0.00795396 0.00895876)
(-0.0156742 -0.0072519 0.00683281)
(0.00462725 -0.0184234 0.0197067)
(0.00392035 -0.0182264 0.0228974)
(0.00457697 -0.0227224 0.0233486)
(0.00281902 -0.0241788 0.0223282)
(-0.00197373 -0.0236366 0.0172718)
(-0.00367192 -0.0215206 0.0148593)
(0.00615289 -0.0107018 0.0210776)
(0.00804057 -0.0106148 0.0193657)
(0.00451132 -0.0108353 0.0275729)
(0.00532183 -0.0130383 0.0284444)
(0.000256711 -0.0140184 0.0158949)
(0.00182409 -0.0137979 0.0161827)
(7.08994e-05 -0.00321605 0.00188506)
(0.000374146 -0.00390592 0.00223098)
(-0.000910687 -0.0040012 0.00320392)
(-0.000686811 -0.00348797 0.00273417)
(0.000208314 -0.00582371 0.00415903)
(0.00109786 -0.00703015 0.00508445)
(-0.000430251 -0.00471636 0.00239089)
(-0.000396864 -0.00334985 0.0018735)
(-0.00473527 -0.0115808 -0.00164963)
(-0.00533479 -0.0109593 -0.00255652)
(-0.0204319 -0.0151076 0.001008)
(-0.0222223 -0.0159145 0.002915)
(-0.0214222 -0.0172238 0.00814537)
(-0.0202846 -0.0168325 0.00988024)
(-0.0205241 -0.0171282 0.0113721)
(-0.0194545 -0.0159984 0.0075902)
(-0.00284425 -0.016041 0.00250879)
(-0.00286192 -0.0152864 0.00206608)
(-0.00336858 -0.0127039 0.0024794)
(-0.003026 -0.0123563 0.0041037)
(0.0035323 -0.017554 0.0109468)
(0.00420098 -0.0173772 0.0115542)
(-0.00892931 -0.0101015 0.00196209)
(-0.0074711 -0.0108628 0.00213667)
(-0.00659716 -0.0202539 0.0112136)
(-0.00722968 -0.0202883 0.00843918)
(-0.0110983 -0.0204716 0.0104087)
(-0.0121234 -0.0204735 0.00825091)
(-0.0141997 -0.00904079 0.0110804)
(-0.0142027 -0.00803532 0.0108616)
(-0.0156886 -0.00614495 0.00753742)
(-0.0149855 -0.00613984 0.00583286)
(-0.0115988 -0.00696596 0.0135376)
(-0.0123586 -0.006611 0.013515)
(-0.00421599 -0.0197557 0.0119941)
(-0.00486307 -0.018955 0.0119992)
(-0.00532676 -0.017242 0.0033092)
(-0.00666755 -0.0183375 0.00347391)
(0.00679708 -0.0121278 0.0227218)
(0.00457172 -0.01055 0.0244096)
(-0.0125819 -0.00993729 -0.01315)
(-0.012161 -0.010502 -0.0141195)
(-0.00932906 -0.012009 -0.014442)
(-0.0106033 -0.0102819 -0.0133548)
(-0.00889835 -0.0103181 -0.014236)
(-0.0097021 -0.00968689 -0.0140235)
(-0.0102403 -0.0186561 -0.00413074)
(-0.0105841 -0.0193896 -0.00252626)
(-0.019753 -0.0137877 -0.00114258)
(-0.0200383 -0.0129253 -0.00306089)
(-0.0147749 -0.0190388 -5.19138e-05)
(-0.0144052 -0.0214203 -0.00131007)
(-0.016728 -0.0194122 0.000117195)
(-0.0174733 -0.0172925 0.000796812)
(-0.0195278 -0.0148733 -0.00232005)
(-0.0180797 -0.0164462 -0.00134466)
(-0.0141059 -0.0187859 -0.00233069)
(-0.012412 -0.0191481 -0.00228059)
(-0.0193486 -0.0141338 -0.00332252)
(-0.0184911 -0.0164229 -0.0027751)
(-0.0111139 -0.0180601 -0.00285352)
(-0.0138175 -0.0170702 -0.00340046)
(-0.016273 -0.0167799 -0.00383632)
(-0.0178339 -0.0155903 -0.0041216)
(-0.0186662 -0.0137411 -0.00567426)
(-0.0216919 -0.0173995 0.00316232)
(-0.0209401 -0.0159325 0.00183533)
(-0.0211445 -0.0159913 0.000842156)
(-0.0187203 -0.0171103 0.000712287)
(-0.0201558 -0.0128277 -0.000282515)
(-0.0216296 -0.0136856 0.000850592)
(-0.00579042 -0.0065084 -0.00854683)
(-0.00734095 -0.00682847 -0.00938457)
(-0.000114643 -0.00688259 0.00511136)
(-0.000522163 -0.0058066 0.00427415)
(-0.000597954 -0.00503867 0.00377529)
(-9.15547e-05 -0.00595239 0.00431325)
(0.00595385 0.00955408 0.0255955)
(0.0090751 0.0087938 0.0275969)
(0.00513848 -0.0103454 0.00744224)
(0.00455542 -0.0106078 0.00794386)
(0.00652089 -0.00271177 0.00644865)
(0.00784728 -0.000950965 0.00680323)
(0.00826113 -0.00138902 0.00701056)
(0.00815876 -0.000127323 0.00780147)
(-0.000367774 -0.00603574 0.01086)
(0.000937789 -0.00690433 0.00948104)
(0.00158625 -0.00779281 0.0110316)
(0.00567518 -0.0120266 0.00733136)
(0.00622473 -0.011727 0.00710441)
(0.00431407 -0.0121088 0.00947874)
(0.00466835 -0.0126803 0.00866731)
(0.00603128 -0.0131191 0.0069865)
(0.00603031 -0.0136788 0.00749972)
(0.00700961 -0.0124837 0.00699281)
(0.00695233 -0.0127054 0.00704017)
(0.00570989 -0.0127327 0.00737605)
(0.0055088 -0.0129238 0.00779782)
(0.00255728 -0.0112624 0.00904743)
(0.00237119 -0.0115508 0.00853027)
(0.00369037 -0.0132563 0.00929333)
(0.00342243 -0.0121916 0.00957416)
(0.00480053 -0.0136399 0.00837871)
(0.00411995 -0.0127204 0.00828729)
(0.00476822 -0.0137762 0.00783945)
(0.00444577 -0.0129009 0.00744993)
(-0.006154 -0.0246674 0.0216627)
(-0.0078024 -0.0227175 0.0215386)
(-0.0120176 -0.0135638 -0.00863718)
(-0.0128653 -0.012752 -0.00901909)
(-0.016848 -0.0158605 -0.0042981)
(-0.0179981 -0.0144549 -0.00519012)
(-0.0163724 -0.0136774 -0.00765873)
(-0.0156085 -0.0144861 -0.00665692)
(-0.0145931 -0.0100202 -0.0121801)
(-0.0135426 -0.00979385 -0.0128828)
(-0.0025245 -0.0158373 -0.0095949)
(-0.00283268 -0.0152278 -0.00809319)
(-0.0166975 -0.0154641 9.54963e-05)
(-0.0160852 -0.0145544 0.00133321)
(-0.017466 -0.0124456 0.00238875)
(-0.0200364 -0.0121472 0.00103461)
(0.00509616 -0.00193319 0.01025)
(0.00750118 0.00058961 0.0102886)
(-0.00955463 -0.0169978 -0.00741082)
(-0.00935636 -0.01593 -0.00811629)
(-0.00756518 -0.0164409 -0.00571925)
(-0.00697822 -0.0172835 -0.00587274)
(-0.0131335 -0.015866 -0.00275088)
(-0.0111458 -0.0163349 -0.0034302)
(-0.0152366 -0.0179343 -0.00433898)
(0.00879726 0.00264686 0.00956628)
(0.00918654 0.00521891 0.0100024)
(0.00744566 0.00961027 0.0134948)
(0.00782072 0.0080277 0.0112328)
(0.00881919 0.00260762 0.00837134)
(0.00847904 0.0046533 0.00907791)
(0.00832441 -0.00577388 0.00749995)
(0.00847095 -0.0051983 0.00850184)
(0.0062322 -0.0131345 0.00806158)
(0.00578832 -0.0126158 0.00842784)
(0.00314603 -0.0080036 0.00356979)
(0.00288902 -0.00825203 0.00408189)
(0.00296986 -0.00842558 0.0039565)
(0.00329063 -0.00819743 0.00329498)
(0.00255827 -0.00872386 0.00402511)
(0.0019775 -0.00886735 0.00435409)
(0.00197919 -0.00947442 0.00485043)
(0.0019699 -0.00946765 0.00482694)
(0.00177475 -0.00968424 0.00487707)
(0.0014618 -0.00943231 0.00492855)
(0.000121306 -0.0112973 0.0052676)
(0.000240837 -0.0113656 0.005391)
(0.00472824 -0.0214699 0.000366874)
(0.00581964 -0.0213144 0.000112257)
(0.000982806 -0.0109147 0.00560256)
(0.00115017 -0.0109524 0.00572281)
(0.00264405 -0.00868234 0.00457055)
(0.00260805 -0.00886556 0.00477841)
(0.00417926 -0.0083497 0.00325555)