/*--------------------------------*- C++ -*----------------------------------*\
| =========                 |                                                 |
| \\      /  F ield         | OpenFOAM: The Open Source CFD Toolbox           |
|  \\    /   O peration     | Version:  v1612+                                |
|   \\  /    A nd           | Web:      www.OpenFOAM.com                      |
|    \\/     M anipulation  |                                                 |
\*---------------------------------------------------------------------------*/
FoamFile
{
    version     2.0;
    format      ascii;
    class       surfaceScalarField;
    location    "150";
    object      phi;
}
// * * * * * * * * * * * * * * * * * * * * * * * * * * * * * * * * * * * * * //

dimensions      [0 3 -1 0 0 0 0];

internalField   nonuniform List<scalar> 
37865
(
1.89223e-09
-2.35356e-09
9.59981e-09
-9.13846e-09
-2.9147e-09
-2.97721e-09
1.69445e-09
4.19741e-09
-6.61183e-09
-6.1209e-10
4.30923e-09
-2.90622e-09
-7.92628e-10
-8.44292e-09
1.21417e-08
-1.39297e-08
-4.51792e-09
1.55415e-08
-1.06299e-08
-3.92647e-10
-2.9072e-09
4.12798e-09
-5.45409e-09
-1.65113e-09
-5.40342e-09
2.91958e-09
-5.43016e-09
-2.11634e-09
2.09238e-09
-4.14688e-09
2.50813e-09
-3.7914e-09
-2.74682e-09
3.64863e-09
-4.3469e-09
-2.32073e-09
2.14972e-09
-8.05117e-09
-6.92563e-09
-3.96171e-09
1.95189e-09
-1.06526e-10
-6.06357e-09
-2.04501e-09
-8.13686e-10
-2.08161e-09
-7.99015e-09
3.72217e-09
1.52117e-09
-6.04883e-09
3.116e-09
-3.64549e-09
-2.39277e-09
-4.88837e-09
-3.30082e-09
1.38038e-10
-3.92857e-09
-2.93393e-09
-2.70222e-09
-6.11472e-09
6.08255e-09
-2.34164e-09
-3.28658e-09
-4.54371e-10
5.65322e-09
7.39108e-09
-6.96176e-09
-8.36556e-09
2.05115e-09
5.35189e-09
9.62512e-10
-5.14564e-09
-5.56156e-09
1.04498e-09
6.65936e-09
-1.78422e-09
-8.36952e-09
5.00813e-09
-2.84996e-09
4.30639e-10
-7.44672e-10
3.16399e-09
-4.64098e-09
-1.57822e-09
7.26419e-09
-1.95827e-09
-5.77978e-09
3.09705e-09
6.26122e-09
-1.0847e-08
2.62748e-09
8.36829e-09
-3.68528e-09
2.30866e-09
-6.94283e-09
-4.51893e-09
-8.30207e-10
-5.64321e-09
1.59896e-09
-6.80272e-09
-7.85348e-09
-3.00367e-09
6.44723e-10
6.84347e-09
-4.48447e-09
-4.3733e-10
9.35133e-09
-1.19176e-08
-7.75633e-09
-5.51975e-09
2.34859e-09
1.09275e-08
-3.98045e-09
-1.86317e-09
-1.9127e-09
2.39507e-09
7.06589e-09
-9.89824e-09
5.16906e-09
-2.12926e-09
-2.66521e-09
6.63839e-09
2.87031e-09
7.95218e-09
-1.26603e-09
5.10915e-09
-1.04883e-08
1.24451e-08
1.48209e-08
-1.75957e-09
-7.55961e-09
-5.29517e-09
7.33505e-09
-7.0894e-09
-4.45065e-09
8.68718e-09
-3.91195e-09
-2.99663e-09
1.40324e-08
1.85028e-08
-6.67841e-09
5.89093e-09
-7.81125e-09
2.24014e-09
-1.64432e-09
5.05914e-11
5.94022e-09
-4.64436e-10
-5.52637e-09
3.36831e-09
-3.25119e-09
-6.65335e-11
3.4215e-09
-6.70317e-09
-6.16687e-09
9.44852e-09
-1.33991e-09
-3.76674e-09
8.52814e-09
4.14974e-09
-1.96243e-10
1.98672e-09
-3.58151e-09
6.39134e-09
4.41713e-09
-1.0808e-08
-3.12333e-10
-3.1641e-09
3.81448e-09
-1.58584e-10
-5.46177e-11
3.10491e-09
3.58204e-09
-4.39844e-09
-2.28852e-09
-2.17784e-10
-9.36273e-09
2.99961e-09
-3.61415e-09
-3.61181e-09
-9.28893e-09
-3.68794e-09
7.45837e-09
-1.21791e-08
-7.79587e-09
9.62316e-09
-5.47278e-09
-1.57793e-09
-5.06688e-09
4.25203e-09
1.633e-09
-3.31747e-09
1.36954e-09
7.20833e-10
-4.57375e-10
1.80281e-09
4.47828e-09
-4.75992e-09
5.06321e-10
-6.5092e-11
2.80492e-10
7.56555e-09
-1.84537e-09
3.92867e-09
3.04788e-11
-2.77996e-09
-4.52133e-09
2.5143e-09
4.78698e-09
-1.95327e-09
-7.42719e-10
-8.39709e-11
-5.37849e-09
-1.26437e-09
2.12154e-09
-4.04853e-09
-3.28322e-09
9.84893e-09
-3.17193e-09
-1.09133e-08
4.23627e-09
5.99369e-09
2.59086e-09
3.47372e-09
7.33511e-10
-2.88086e-09
-1.32636e-09
-2.76013e-09
1.41437e-09
4.81947e-09
-1.93393e-09
-9.26845e-11
3.31483e-09
8.27048e-09
-5.59161e-09
7.2435e-09
5.12971e-10
-7.73343e-09
-2.48897e-09
-1.87679e-10
-2.06524e-09
-8.50944e-12
-8.07106e-10
-4.04123e-09
2.74864e-09
-6.26987e-10
4.02297e-09
-6.14465e-09
1.91957e-09
7.4679e-09
-6.63883e-09
3.97461e-10
2.07067e-09
-8.53043e-09
6.06229e-09
2.00658e-09
-6.55337e-09
3.9198e-09
4.13928e-09
-7.98341e-09
5.85071e-09
-8.91836e-09
1.98387e-10
1.28592e-08
8.7213e-09
-7.93945e-09
-8.76526e-09
-3.96222e-09
3.76516e-09
-7.24129e-09
1.91264e-09
1.36642e-09
-2.20211e-09
1.1505e-09
-6.18968e-09
6.8885e-09
-8.69315e-09
4.95967e-09
-8.76873e-10
2.80569e-09
1.94841e-09
-6.43111e-09
-4.346e-09
6.46395e-09
-4.84055e-09
2.52631e-09
-1.08075e-08
-1.4341e-08
5.96614e-10
2.45518e-08
-1.37676e-08
-5.96975e-09
8.92985e-09
3.31687e-09
9.17718e-09
3.29361e-09
-1.57877e-08
1.1149e-08
-1.50238e-08
7.19162e-09
-1.69633e-08
-5.46434e-09
8.08669e-09
-1.55891e-08
-1.51418e-08
-6.15754e-09
-6.67353e-09
1.34276e-08
-7.24913e-09
1.3337e-08
5.06109e-09
5.31252e-09
-3.38448e-09
6.6443e-09
1.22839e-09
-7.03018e-09
1.72953e-08
-9.62682e-09
-6.38277e-10
1.19177e-08
-1.56543e-08
6.16342e-09
-1.45586e-08
2.42545e-09
-4.89433e-09
4.90021e-09
-7.8936e-09
7.86437e-09
-8.02264e-09
1.07593e-08
6.77397e-09
-2.87888e-09
-1.20177e-08
-7.70233e-10
6.87879e-11
-9.22566e-09
-6.4756e-09
1.36056e-08
2.09564e-09
-6.5946e-09
-1.50001e-08
1.23691e-08
3.29063e-09
-5.03495e-09
-4.73129e-09
-4.5037e-09
1.32699e-08
4.83947e-09
1.55585e-08
-8.57618e-09
-3.69165e-09
1.3131e-09
9.74165e-09
1.55996e-08
-1.6182e-08
-7.67946e-09
8.26182e-09
-5.6089e-09
1.96138e-08
1.59481e-09
-5.26473e-09
1.88342e-08
-1.91783e-08
8.12065e-09
-1.20723e-08
1.0469e-08
-1.73591e-08
2.84626e-09
4.04386e-09
-8.82354e-09
-3.04546e-09
-6.24675e-09
1.81158e-08
-1.44121e-08
-1.17012e-08
1.72897e-08
-8.75846e-09
-1.4418e-08
2.5112e-09
2.15047e-08
-9.59796e-09
2.66349e-09
-9.7467e-09
-7.33476e-09
-1.07056e-08
-7.31548e-09
2.06845e-08
-1.27202e-08
-8.56798e-09
1.65838e-08
4.70435e-09
-1.10279e-08
-1.23979e-08
6.64772e-09
9.66526e-10
1.50649e-08
-2.26791e-08
1.74571e-08
4.17286e-09
-1.49823e-08
5.7377e-09
-1.5799e-08
2.89787e-09
-5.72816e-09
6.0678e-09
-7.49591e-10
1.43045e-08
9.22043e-09
-1.14544e-08
-6.19801e-09
2.01636e-08
6.05001e-09
5.96526e-09
4.56851e-09
1.47894e-08
-7.71866e-09
-3.94652e-09
6.79655e-09
-9.75664e-09
9.60864e-09
1.0862e-09
-7.12458e-09
-1.11355e-08
1.36402e-08
4.61987e-09
-1.12333e-08
7.69285e-09
-3.58418e-09
2.61365e-09
-3.22048e-09
-1.05287e-08
-1.08618e-09
-7.53343e-09
6.00628e-09
5.38966e-09
-6.45465e-09
-4.94129e-09
-2.12016e-10
2.37339e-09
3.84487e-09
2.45127e-09
5.02956e-09
3.37967e-09
1.27118e-08
-6.10605e-09
2.37886e-09
6.10058e-09
-8.54176e-10
1.37779e-10
7.90074e-10
8.22417e-09
1.70334e-09
-1.07176e-08
1.90994e-09
5.68815e-09
-6.80802e-09
-5.63089e-09
-5.48786e-09
6.44063e-09
-6.35213e-09
5.39936e-09
-6.33989e-09
-2.1482e-12
8.22377e-10
8.13889e-09
-7.37094e-10
1.70638e-10
-3.74751e-10
9.19423e-09
1.0968e-08
-1.24851e-08
1.27101e-10
1.65965e-09
-8.92791e-09
1.19328e-08
2.16719e-09
-5.26437e-10
3.76795e-09
-3.78287e-09
5.41388e-10
5.56491e-09
7.18342e-11
2.26925e-09
-2.89962e-09
6.19528e-09
-1.08393e-09
7.12113e-09
-1.68191e-09
2.10665e-09
-5.44642e-10
1.70592e-09
7.14551e-10
-1.31083e-10
-7.30149e-10
3.22907e-09
1.07975e-09
1.48189e-09
-1.01114e-10
1.96473e-09
7.19694e-10
-2.21399e-09
3.09478e-09
-1.75563e-11
7.04242e-09
-9.00415e-09
2.77445e-09
-8.12726e-10
-4.67495e-10
8.30718e-09
-7.97277e-10
5.56881e-09
2.51062e-09
-1.60105e-09
-6.47838e-09
3.5558e-09
2.07826e-09
-6.52442e-11
-3.96932e-09
-8.52697e-09
5.69046e-09
6.80579e-09
-3.58014e-09
2.08603e-09
-2.47524e-09
-1.62203e-09
-1.04851e-08
1.1944e-09
-5.6058e-09
-1.51666e-09
5.92806e-09
4.73812e-09
1.20719e-11
-9.2342e-10
5.96489e-09
-5.50898e-09
-1.09317e-09
-5.82496e-09
7.37663e-09
-5.95919e-09
2.01664e-09
7.43824e-09
-8.82889e-09
4.42303e-09
-6.08333e-10
8.86866e-09
-5.11698e-09
-9.83506e-09
-7.09875e-10
5.69649e-10
7.55188e-09
2.87006e-09
-1.55389e-08
-8.09159e-10
-7.44393e-09
5.7498e-09
-4.67489e-09
1.31378e-09
-2.38869e-09
-4.59283e-09
5.52571e-09
4.81691e-09
3.60783e-09
5.21217e-09
-4.03605e-09
6.29554e-10
3.82023e-09
-8.41968e-10
3.11515e-09
-2.94107e-09
-4.84897e-09
-8.4813e-10
5.23594e-10
-5.44528e-10
5.23309e-09
4.36786e-09
-2.40388e-11
-9.02288e-09
-7.53259e-10
1.29739e-08
-3.19777e-09
-8.64496e-09
1.03736e-09
-1.41527e-09
-1.70291e-09
6.47535e-09
2.21677e-09
3.44295e-09
-7.78001e-10
-8.26264e-09
-3.63073e-09
9.9247e-09
1.96867e-09
-5.5698e-09
-1.76137e-09
5.78545e-09
-1.40027e-08
-8.84344e-09
1.70607e-08
9.87665e-09
-7.08297e-09
-1.5545e-08
1.27513e-08
-3.29247e-09
1.05781e-08
-1.50022e-09
-6.53086e-09
4.00708e-09
-1.64311e-08
-3.45888e-09
3.91629e-09
-6.98828e-09
8.65004e-09
-8.306e-09
-3.63653e-09
1.16298e-08
1.17758e-08
-1.47555e-08
7.51026e-09
3.22016e-09
8.99368e-10
-1.16228e-08
1.01605e-08
8.97248e-09
2.51524e-09
-2.36224e-09
4.06176e-09
3.05747e-09
1.07597e-08
2.33707e-09
-5.74081e-09
3.33141e-09
8.36182e-10
1.18678e-08
9.55397e-11
-1.08177e-08
-1.14571e-09
6.98602e-09
-6.11021e-10
5.49277e-09
-1.06661e-08
-8.81016e-09
4.60527e-10
-1.229e-08
8.60991e-09
-8.60253e-09
4.73032e-09
3.26115e-09
-6.88431e-10
-7.81858e-09
-1.35656e-08
-7.7061e-10
5.52597e-09
-1.52673e-08
-1.05883e-08
-3.22168e-09
4.88784e-09
5.35533e-09
-6.06903e-10
-5.43686e-09
2.49507e-09
-3.61446e-10
3.25569e-09
7.51432e-09
-6.51861e-09
-4.25142e-09
5.85091e-09
-1.00129e-10
-3.68068e-09
3.56942e-09
3.06303e-09
-7.57431e-09
4.4878e-10
-2.09465e-08
7.14248e-09
4.01637e-11
1.37639e-08
-1.39803e-08
2.67579e-09
-9.64195e-09
1.62055e-08
-9.45376e-09
-2.07321e-08
2.6619e-08
-9.93645e-09
-4.77011e-10
9.02172e-09
2.47397e-08
-2.19381e-08
7.01413e-09
1.49641e-08
-7.32716e-09
-1.19351e-08
1.37886e-08
2.96931e-10
-2.52317e-08
1.11462e-08
1.31895e-08
-1.04089e-08
1.1008e-08
3.4316e-10
2.34893e-08
-1.48108e-08
1.19809e-09
-1.28122e-08
-2.60142e-09
1.42156e-08
1.58536e-08
-1.466e-09
5.90475e-09
-1.13549e-08
1.24643e-08
-2.1969e-08
9.03156e-09
4.70942e-09
2.1126e-09
-1.0297e-08
1.65449e-08
5.84994e-09
-6.55271e-10
-1.65496e-08
4.58452e-09
4.35905e-10
8.57957e-09
-3.89201e-09
-5.12347e-09
1.37359e-08
-8.0078e-09
-5.29223e-09
1.27669e-08
3.34863e-10
-9.23148e-09
-3.87031e-09
3.47587e-09
6.42841e-09
2.86262e-09
8.54648e-09
-2.2819e-09
7.47135e-09
9.50389e-09
7.62216e-09
3.41209e-09
-9.46681e-09
-1.95309e-09
8.46867e-09
3.90745e-09
-7.15516e-09
-5.22097e-09
-1.16542e-08
7.8571e-09
7.27292e-09
-7.90721e-09
7.37552e-09
5.2107e-09
-6.15782e-09
-2.22055e-09
7.41023e-09
4.3142e-09
-9.34326e-09
-2.96986e-09
1.17899e-08
5.23151e-10
-7.66502e-09
6.17885e-09
2.13022e-09
4.11789e-09
6.53588e-09
6.03728e-09
1.26535e-08
-7.27201e-10
-1.79636e-08
1.60726e-08
4.34797e-09
-1.43833e-08
-5.1304e-09
1.57358e-08
2.0481e-09
1.538e-08
-4.43782e-09
-1.70351e-09
1.39923e-08
-7.94082e-09
5.96974e-09
7.73792e-09
3.29853e-09
-1.70062e-08
-2.45567e-08
-9.95737e-09
2.68616e-08
7.65238e-09
-3.90169e-09
-7.35501e-09
-2.25788e-09
1.35146e-08
-1.27226e-08
-2.93301e-09
2.0835e-08
-2.52197e-09
-8.4423e-09
1.13344e-08
3.07767e-09
-3.26645e-09
8.8996e-09
-7.33668e-09
8.01442e-09
-1.20081e-08
5.96291e-09
1.38272e-08
-1.08905e-08
9.42951e-09
-2.39564e-09
-1.07098e-09
1.48144e-08
-1.73625e-09
1.75678e-09
2.4695e-09
-4.89164e-09
6.65376e-10
1.88693e-09
7.191e-09
-7.32114e-09
-3.91499e-09
-8.75669e-10
6.67758e-09
-2.37083e-09
3.00943e-09
3.59476e-09
-4.23336e-09
7.46143e-10
-2.976e-09
-1.4097e-10
1.90428e-09
3.52362e-09
-2.9584e-09
5.89038e-10
1.48397e-09
5.11801e-09
2.5577e-09
9.27219e-11
2.95207e-09
1.16059e-09
5.72773e-10
1.47749e-09
-3.11974e-09
1.06963e-09
2.6753e-09
9.06909e-10
-2.88054e-10
3.74992e-10
2.86514e-09
2.3992e-09
-1.29563e-10
5.53368e-09
-7.37111e-09
1.52856e-08
-1.34481e-08
-2.31143e-09
1.78214e-08
-9.97625e-09
7.69971e-09
2.11854e-09
2.05271e-09
-1.1871e-08
4.70677e-09
-2.61312e-09
5.60605e-09
-8.23265e-09
-6.47826e-09
1.23995e-08
2.91187e-09
-1.20546e-08
1.12612e-08
-3.93247e-09
4.06575e-10
-1.00193e-08
1.24762e-08
-6.38942e-09
2.20452e-09
-1.01711e-08
-1.43734e-09
7.43531e-09
-1.43994e-08
5.59092e-09
-9.28298e-09
-1.55952e-09
-4.16803e-10
1.98731e-09
-1.09832e-11
-1.68358e-09
-1.50298e-09
1.96297e-09
1.22359e-09
-8.71106e-10
-7.87996e-10
-2.44839e-11
-2.33017e-09
-1.00455e-10
4.68338e-09
-4.41895e-09
-2.52959e-09
2.26515e-09
-3.22328e-09
1.72124e-10
1.54815e-09
-2.85219e-09
-1.15909e-09
-2.52892e-09
6.80788e-09
1.42542e-09
-5.70439e-09
2.32658e-09
1.23994e-09
-1.33409e-10
-3.4367e-09
2.86365e-10
-2.00086e-09
2.95443e-09
1.50071e-09
-1.47677e-09
-4.44288e-09
-2.24258e-09
4.02966e-09
-4.46236e-09
2.64117e-08
-2.35124e-08
6.43532e-10
-3.54279e-09
4.55852e-09
6.59589e-09
1.52573e-08
1.80512e-08
1.25064e-08
-2.39467e-08
-6.61086e-09
6.93834e-09
1.56713e-08
7.15894e-09
1.82445e-08
-1.88076e-08
-7.86947e-11
-1.18096e-08
1.88266e-08
-1.20551e-08
1.91353e-08
1.13999e-09
-1.43867e-08
1.93454e-08
-6.09873e-09
-1.36032e-08
1.96405e-08
-4.89734e-09
5.91737e-10
-1.78219e-08
2.84347e-09
-1.63982e-08
3.38676e-09
9.82832e-09
-1.5272e-08
-6.61144e-09
8.19676e-09
-1.0178e-08
-1.00522e-08
1.44208e-08
3.32794e-09
5.96525e-09
6.54495e-09
-7.2563e-09
5.93183e-09
-5.22046e-09
-1.084e-09
6.22069e-09
1.40825e-09
8.30375e-09
3.89358e-10
-1.02535e-08
1.5604e-09
6.10699e-09
1.11276e-09
1.681e-09
-8.54794e-09
-4.09837e-09
5.87644e-09
4.44262e-09
1.80301e-09
3.04503e-11
-1.19452e-09
1.45397e-09
-5.22378e-09
4.96434e-09
4.80314e-10
4.2016e-09
-1.65995e-10
-1.17278e-09
-4.45269e-09
5.79149e-09
5.77289e-09
-4.48489e-09
5.95813e-09
4.91024e-09
-4.76139e-09
-1.11046e-08
7.28742e-09
8.39939e-09
-4.58224e-09
3.02632e-10
-8.76921e-09
-2.63796e-09
7.23196e-09
-5.24831e-09
-3.61341e-09
1.92659e-10
5.26568e-09
2.24336e-09
5.91397e-10
-3.1758e-09
6.79435e-09
2.16177e-08
-6.95571e-09
-5.12931e-09
-9.53271e-09
2.54073e-09
9.58549e-09
9.49147e-09
-6.92985e-09
1.34317e-08
-6.75415e-09
2.52265e-10
-7.92915e-09
-5.95642e-09
8.16549e-09
7.80694e-09
-1.27287e-08
7.24316e-09
1.5071e-08
-1.56662e-08
-7.36705e-10
3.67424e-09
-1.16104e-08
-9.18512e-09
6.98849e-09
-2.74523e-09
-1.21724e-08
4.87323e-09
-4.6389e-09
-6.39148e-09
2.49672e-09
1.20602e-08
-1.1604e-08
-3.28532e-09
8.49786e-09
-5.87766e-10
-6.14304e-09
-5.58794e-09
1.53278e-08
8.38338e-09
2.43886e-09
-1.1559e-08
-9.04209e-09
7.64802e-10
4.99195e-09
-4.59302e-09
-5.03684e-09
-4.42503e-09
7.22045e-09
4.91707e-09
-1.25745e-08
4.91214e-09
5.60351e-09
-2.0658e-09
1.37935e-09
9.00995e-09
-7.99947e-09
5.34972e-09
-2.07363e-09
-5.67034e-09
1.8429e-09
5.90105e-09
-8.59435e-09
2.3294e-10
6.28777e-09
2.27514e-09
-7.70351e-09
-3.16596e-09
-3.26265e-09
-1.32552e-10
8.61839e-10
-2.66441e-09
1.13184e-08
-9.51588e-09
-6.34718e-09
9.05192e-09
7.13204e-09
-1.4273e-09
-6.9559e-09
1.25115e-09
6.82778e-09
-6.04292e-09
-1.06843e-08
8.25284e-09
1.12036e-10
-3.64237e-09
-4.17317e-09
2.69073e-09
-5.42011e-09
-5.33263e-10
-5.67321e-09
-4.89904e-09
-1.02626e-08
7.41092e-09
-2.82157e-09
-3.5997e-09
-9.31766e-09
6.36881e-09
6.54854e-09
-6.74767e-09
2.00556e-09
1.14239e-09
6.06482e-09
8.51023e-10
-5.66841e-10
4.15766e-09
2.12502e-09
-2.17854e-10
-1.28173e-08
1.80792e-09
8.36477e-09
2.64459e-09
-2.99848e-10
-7.1507e-10
-1.18024e-08
9.368e-09
-9.58933e-09
8.15195e-09
3.2453e-09
1.09611e-08
-6.49753e-09
-1.12112e-08
-4.05728e-10
2.04913e-09
5.31555e-09
8.47659e-10
-1.37764e-08
5.86752e-09
2.19367e-08
-1.40278e-08
-9.37356e-10
-4.47428e-09
-6.52398e-10
-1.00453e-08
9.98257e-09
-4.22099e-09
6.40343e-09
-5.74274e-11
-2.97736e-09
1.52137e-08
8.85033e-09
-6.51214e-09
2.87742e-09
6.45902e-09
-4.86115e-10
3.49622e-09
7.86362e-09
3.85387e-09
-1.56863e-09
3.14416e-09
-8.63272e-09
7.05719e-09
-1.56709e-09
-5.61497e-09
7.08039e-09
1.0167e-10
6.56426e-09
-1.5342e-08
1.34803e-09
7.42971e-09
-6.34301e-09
4.93503e-09
-1.59122e-10
1.1183e-08
-7.05053e-09
2.43185e-09
2.08863e-09
7.5257e-09
-4.94434e-09
-1.127e-09
9.2155e-09
5.43133e-09
4.24552e-09
-5.05896e-09
-4.61789e-09
-1.00799e-09
9.63182e-11
6.22531e-09
-4.58378e-09
4.86156e-09
-6.50311e-09
5.34576e-09
-1.28443e-10
-5.53432e-09
-2.52613e-09
1.2306e-08
-4.99566e-09
4.98635e-09
-8.01936e-09
8.981e-09
6.19338e-11
-9.70467e-09
-4.72972e-09
5.07983e-09
1.0237e-08
-1.49003e-08
-2.38717e-09
-9.12869e-09
1.13463e-08
-1.59844e-08
5.67697e-09
5.57772e-09
-4.04024e-09
-7.0826e-09
-8.50866e-09
-1.1926e-08
-1.3847e-08
1.03953e-08
-7.48478e-09
-1.04025e-08
-1.59315e-08
1.13364e-08
1.08404e-08
-5.04355e-09
-1.71332e-08
1.46135e-08
-4.22303e-09
9.45901e-10
-1.07287e-08
1.527e-08
1.00722e-08
5.79025e-09
-5.67856e-09
5.15659e-09
-2.01632e-08
9.96305e-09
-7.00975e-09
1.52733e-08
-2.4733e-09
3.92213e-09
-1.57189e-08
1.15601e-08
2.36617e-10
-1.44434e-08
1.29596e-08
5.40592e-09
1.28882e-08
-1.47414e-08
8.97806e-09
-1.18088e-08
-6.10804e-09
6.42698e-10
-1.7068e-09
4.21315e-09
1.27636e-08
3.78417e-09
9.78231e-09
3.94365e-09
1.14006e-08
-5.93566e-10
1.74968e-08
1.09454e-08
-3.35508e-09
-1.36984e-08
1.45649e-08
2.24974e-08
-3.16306e-09
-1.48166e-08
-4.51773e-09
9.3625e-09
6.54025e-09
-6.08126e-09
2.77078e-09
1.2673e-08
-1.8143e-08
9.5531e-10
1.11064e-08
-2.41249e-08
-2.10473e-08
2.70291e-08
-2.02642e-08
-7.02384e-09
1.21028e-08
4.75398e-09
-1.40498e-09
1.07263e-08
-1.13091e-08
7.12303e-09
-8.82095e-10
1.43791e-08
2.71012e-09
-3.91526e-09
-1.36115e-08
1.77169e-08
-2.12169e-08
-1.67642e-08
-4.80635e-09
1.47589e-09
1.60822e-08
-1.26931e-09
-3.5829e-09
1.76816e-08
-2.47352e-09
1.44948e-08
6.00728e-09
1.2134e-08
-3.64648e-09
1.65277e-08
-1.32217e-08
2.70126e-09
-4.47228e-09
-1.65242e-08
2.01144e-08
1.30107e-08
6.78309e-09
-2.00993e-09
-3.46485e-10
2.3929e-09
2.15434e-09
6.24339e-09
-2.15855e-08
1.31878e-08
5.24447e-09
-1.84597e-08
1.53696e-08
2.3221e-09
-1.41035e-08
1.80249e-08
-1.13196e-08
1.88862e-08
3.99997e-09
-2.37708e-08
4.75601e-09
1.50149e-08
-8.57443e-09
3.5821e-09
-1.65932e-08
1.98253e-08
-2.28088e-08
1.63298e-08
6.44426e-09
-8.92813e-09
-7.67004e-09
2.26511e-08
-6.05291e-09
-1.24529e-08
-2.0246e-08
-9.75075e-09
-2.03852e-08
7.26933e-10
-2.51984e-08
1.47207e-08
-2.1368e-08
-1.24445e-08
-8.73577e-09
1.09752e-08
1.02051e-08
-9.72072e-09
6.88881e-10
-3.41271e-09
-5.49392e-10
-8.34757e-09
1.61182e-10
-9.73904e-09
-5.3107e-10
-9.6934e-09
5.38332e-09
1.52853e-08
-6.61262e-09
-2.3919e-09
-2.12476e-09
-2.32897e-09
-5.28532e-09
-1.58275e-08
2.71933e-09
4.76056e-09
-6.47873e-09
-1.14735e-08
-1.18766e-08
-1.24135e-08
4.91919e-09
1.93709e-08
-1.49187e-08
5.76149e-09
-1.17841e-08
3.82934e-09
1.34211e-09
-6.45814e-09
-7.6549e-09
1.69224e-08
-9.47718e-09
-1.18906e-08
4.44536e-09
1.57631e-08
4.98873e-09
7.81711e-09
-1.68974e-08
-5.83842e-09
-9.49377e-09
-1.53519e-09
-1.44001e-08
7.06847e-09
1.65253e-08
-7.83072e-09
1.7371e-08
-5.98284e-09
-1.73933e-08
-2.28389e-08
-3.05315e-09
-1.18393e-08
-1.90124e-08
8.01281e-09
-1.93573e-08
6.64814e-09
1.59985e-10
8.09907e-09
-5.11429e-09
6.31151e-09
1.3342e-08
2.81437e-09
1.54735e-08
8.75236e-09
1.12399e-08
5.77319e-09
6.70447e-09
7.54097e-09
1.62495e-08
1.81993e-09
1.32439e-08
6.6841e-09
8.52108e-09
-3.50405e-09
1.82816e-08
-7.64416e-09
6.98737e-09
-1.76249e-08
4.48918e-09
9.15288e-09
4.63956e-09
4.90976e-09
9.24081e-10
-1.34781e-08
1.1992e-08
3.71691e-09
-1.07992e-08
-1.12695e-08
5.98888e-09
1.64405e-09
-5.92615e-09
-5.61675e-09
-5.06869e-09
8.89342e-09
-1.08549e-10
-9.85136e-09
-5.00629e-09
-8.01283e-09
-1.58393e-09
-5.5205e-09
-5.66615e-09
-1.69454e-08
-2.48481e-09
1.18968e-08
1.6812e-08
1.60189e-09
3.13363e-09
1.2514e-08
3.00976e-09
1.28824e-09
-4.25965e-10
-6.48494e-10
1.35885e-08
-1.49605e-09
-1.58753e-08
-1.4695e-08
3.99945e-09
1.37053e-08
1.38385e-08
1.79545e-08
-1.47158e-08
-4.50795e-09
5.4159e-09
-1.33139e-08
-8.86635e-09
6.5259e-09
-1.92722e-09
-1.10932e-08
-2.93447e-10
9.94973e-09
-1.10761e-08
-8.00862e-10
-6.74435e-09
8.15818e-09
8.53591e-09
2.39267e-09
-4.69285e-09
-8.793e-09
-1.10847e-08
1.13395e-08
-1.36818e-09
1.11332e-09
4.95769e-09
-4.84367e-09
-1.11987e-08
1.8231e-08
-1.08807e-08
7.24306e-10
8.64037e-09
6.43707e-09
-7.1056e-09
-1.04076e-08
-3.9793e-10
9.06495e-11
1.60014e-08
-1.31728e-09
-1.15203e-09
-1.06464e-08
6.29243e-09
-1.22881e-08
6.57709e-09
5.48673e-09
-9.48468e-09
7.25219e-09
8.64315e-10
-9.67324e-09
6.48098e-09
8.38565e-09
-7.34602e-09
6.21255e-09
7.02808e-09
1.30647e-08
-2.62311e-09
2.70846e-09
1.21994e-08
-7.87983e-09
8.93921e-09
-2.36865e-08
-6.58921e-09
2.13365e-08
2.28842e-08
-1.12365e-08
3.49401e-09
1.26333e-08
-3.0627e-09
1.42545e-08
1.43898e-09
2.95665e-09
9.04903e-09
1.08785e-08
-9.04144e-09
-4.8685e-10
2.69028e-09
6.83799e-09
-1.31075e-08
-1.15173e-08
1.55834e-08
9.37386e-09
7.83725e-09
-7.64976e-09
-2.60608e-09
1.88326e-08
-8.57679e-09
6.4424e-09
-7.85439e-09
-6.23776e-09
7.70867e-09
1.44764e-08
-4.82579e-09
4.11322e-09
1.04185e-10
6.08381e-10
-9.08946e-09
2.8274e-09
1.43628e-09
-6.6546e-10
3.97164e-09
8.07047e-10
2.43185e-09
7.103e-09
-4.95231e-09
-4.58254e-09
6.55567e-09
2.67563e-10
-7.48869e-09
-2.52751e-09
8.93099e-09
-5.86293e-09
9.89109e-09
-1.4011e-09
2.53967e-10
-4.71578e-09
1.07254e-08
7.52441e-09
-3.72509e-09
-1.45247e-08
1.18418e-08
-3.07758e-10
-8.08631e-10
1.17551e-08
7.02667e-09
-6.93996e-09
-1.05281e-08
1.31038e-08
9.17937e-09
5.80013e-10
-3.58373e-09
7.73169e-09
-3.96008e-09
7.60024e-09
-1.13719e-08
8.72839e-09
-1.30446e-09
5.68715e-09
-1.33723e-08
1.41648e-09
1.10457e-08
6.41643e-10
1.10698e-09
7.33616e-09
-5.35444e-09
-2.15087e-09
8.08532e-09
1.87034e-09
8.44427e-09
-1.58622e-09
-6.41099e-09
7.6986e-09
5.82735e-10
2.38422e-09
-1.19498e-09
4.26177e-09
-3.92906e-09
-5.9691e-10
-3.71425e-10
8.66694e-09
8.95434e-09
6.81832e-09
-1.7233e-10
7.40901e-09
-9.62122e-10
-3.26274e-09
6.63856e-11
2.98895e-09
-2.05025e-09
8.28922e-09
-3.73904e-09
1.66714e-08
-1.14898e-08
9.24387e-09
1.84016e-09
-3.30663e-09
-5.19418e-09
-9.6603e-09
1.53648e-08
-1.87653e-08
2.18785e-08
-4.84681e-10
-2.62848e-09
6.95506e-09
7.67016e-09
7.10428e-09
2.51546e-09
-1.72899e-08
5.2964e-09
5.9062e-09
-3.53243e-09
-1.88105e-08
1.64783e-08
7.62863e-09
9.24651e-09
-2.09527e-08
2.71655e-09
-5.35876e-09
5.15765e-09
8.31448e-09
3.08267e-10
-4.07927e-09
-3.95438e-09
1.72802e-08
-7.54866e-09
-1.23897e-09
-3.45735e-09
1.22449e-08
-3.03458e-09
-5.99362e-09
1.4795e-09
4.65143e-09
9.61883e-09
2.20802e-09
8.06884e-09
-8.47595e-09
1.14283e-08
-4.59848e-09
-5.6237e-09
6.81779e-09
-3.30284e-09
-2.69902e-09
2.09162e-09
-4.6867e-09
5.29409e-09
-8.09076e-09
1.07138e-10
5.28461e-09
-1.66534e-09
-2.6763e-09
6.43325e-09
-5.52612e-09
-3.07379e-09
6.93457e-09
-4.01793e-10
3.27665e-09
-8.401e-09
5.14677e-09
-8.24072e-09
2.69215e-09
3.28816e-09
-6.70032e-09
-4.67859e-09
-1.5193e-09
1.20759e-10
-5.13394e-09
7.6044e-09
-8.19317e-09
5.22652e-09
5.91883e-09
1.92801e-10
1.95938e-09
-8.07099e-09
3.23039e-09
-5.55228e-09
1.3609e-09
-1.34671e-09
-6.71451e-09
-2.14972e-09
2.46154e-10
-6.20611e-09
-6.26168e-10
3.68157e-09
-4.83548e-09
1.25477e-11
-2.60846e-09
-5.71826e-09
4.58197e-09
3.74474e-09
-3.7712e-09
2.77455e-09
-1.61181e-09
-6.99088e-10
-8.79037e-09
9.0384e-10
-2.37657e-09
6.05469e-09
-2.72847e-09
3.82029e-09
-1.87996e-10
1.21885e-09
-6.09573e-09
1.63871e-09
-3.77456e-09
9.03862e-10
-1.15918e-09
-2.16199e-09
3.4827e-09
-1.51111e-09
2.74879e-09
-4.72038e-09
6.13714e-09
-3.81361e-09
2.74825e-09
-4.95846e-09
-3.17869e-09
5.54126e-09
-2.18399e-10
-2.1151e-10
-1.98615e-10
2.37623e-08
-2.65357e-09
-5.05465e-09
-1.60541e-08
6.77137e-09
9.40878e-09
7.58215e-09
1.63309e-08
-5.06725e-09
-1.39172e-08
1.08665e-08
1.22358e-08
-1.57208e-08
1.01675e-08
1.49621e-08
-5.30803e-09
-1.54674e-08
-2.04048e-09
-1.05499e-09
1.39619e-08
-1.29788e-08
-4.48391e-09
1.54222e-08
6.68065e-10
1.16225e-08
-1.73578e-08
1.02733e-08
-1.49132e-08
7.77995e-09
-9.13622e-09
-3.0658e-09
-4.08813e-09
1.24273e-08
-5.27335e-09
-8.97577e-09
1.33332e-08
-7.42322e-09
-6.92179e-09
1.30012e-08
3.11591e-09
2.35567e-10
1.9201e-09
-3.70678e-09
4.93455e-09
3.39614e-09
-4.6239e-09
-4.80495e-09
-2.28181e-10
-1.98932e-09
6.20431e-09
4.05548e-09
3.56909e-09
2.26466e-09
-7.82309e-09
-5.17602e-09
-4.94074e-10
-1.07523e-09
6.74532e-09
-2.80429e-09
1.19735e-09
7.77948e-10
3.95098e-10
3.64643e-09
1.82136e-09
6.20009e-09
5.80526e-09
-6.97734e-09
7.13643e-10
4.58446e-10
7.53159e-09
-4.94894e-09
-1.25704e-09
5.13076e-09
-1.94797e-09
4.07261e-09
1.23445e-08
6.67911e-09
-2.16215e-08
2.59784e-09
1.12995e-08
-5.81726e-09
-1.25587e-08
-1.05077e-08
5.73689e-10
-7.70581e-09
-3.36667e-09
-2.11769e-08
-1.16665e-08
-7.12084e-09
-1.41586e-08
-1.09494e-08
1.0066e-08
-7.02518e-09
8.33271e-09
-1.13736e-08
-1.74429e-09
1.03889e-08
1.42148e-09
4.96788e-09
8.3751e-10
4.56921e-09
-1.03746e-08
4.51987e-10
5.58359e-09
-1.06769e-09
6.41776e-09
-1.26054e-08
4.95914e-09
-2.85665e-10
1.86509e-09
9.55116e-09
-3.08349e-09
1.3065e-08
-8.11028e-10
7.71779e-09
8.79566e-09
-1.19443e-08
-1.53489e-09
8.44238e-10
1.21472e-10
5.49531e-09
3.08078e-10
7.78587e-09
2.83717e-09
-1.0719e-09
8.73396e-09
1.21169e-08
-5.65641e-09
-3.43242e-09
-1.27923e-08
1.17031e-08
-8.4078e-09
7.76735e-09
-3.09131e-09
3.73178e-09
-1.07614e-08
6.54009e-09
-4.18647e-09
-7.47006e-10
2.80128e-09
5.71308e-09
-1.08034e-08
3.49846e-09
6.55795e-09
4.3866e-09
-4.61588e-09
-1.05321e-08
1.53633e-09
-2.41046e-10
3.78658e-09
-8.04988e-09
-7.79301e-09
4.09845e-09
-8.56588e-09
1.22604e-08
-8.69789e-09
-2.36457e-09
3.26945e-09
1.14951e-09
-3.70328e-09
5.35505e-09
8.74642e-09
3.07258e-09
-3.38791e-09
-8.38257e-09
-2.10694e-09
-6.00071e-11
-4.66507e-09
-8.28227e-10
5.02896e-10
-9.33062e-09
4.21185e-09
3.92868e-09
-6.81369e-09
-5.42843e-10
-7.41286e-09
1.26236e-08
2.24083e-10
-5.43484e-09
-7.43681e-09
-3.46549e-09
3.48944e-09
6.49522e-09
-5.47428e-09
4.48005e-09
-5.50097e-09
1.7919e-09
4.04041e-09
6.62933e-10
2.40631e-09
-8.4202e-09
5.39618e-10
1.55665e-09
-6.70758e-09
3.25338e-09
1.51676e-09
-3.79933e-09
4.65091e-09
3.18883e-09
7.4201e-10
-6.12685e-11
3.57166e-09
2.01954e-09
-3.18489e-09
4.27735e-09
3.63182e-11
4.22079e-09
-2.05136e-09
-1.49894e-10
2.68509e-10
4.22767e-09
-2.75382e-10
4.57394e-09
-2.80792e-11
-6.61906e-10
5.04712e-09
-5.2154e-09
-3.78179e-10
3.94395e-09
2.96948e-10
3.89882e-09
4.20319e-09
1.30066e-09
-6.58351e-09
1.03124e-08
-6.44134e-09
5.41698e-09
-5.81463e-09
6.83899e-09
-1.18302e-09
-5.33657e-09
7.82505e-11
1.05625e-08
6.06449e-09
-4.13463e-09
-7.56074e-09
-5.98256e-11
-9.8981e-11
1.11398e-09
-7.59852e-09
6.81316e-09
-6.48114e-09
-5.66859e-09
8.99545e-10
-1.31006e-08
-9.0306e-10
5.04539e-09
-5.37218e-09
1.22985e-09
3.89929e-09
1.35633e-10
-4.93799e-09
3.26308e-09
4.46316e-10
-7.94371e-09
1.79945e-09
-6.15495e-09
-2.81514e-09
4.70123e-09
3.1593e-09
1.2849e-09
-2.00754e-10
4.15528e-09
-5.19508e-09
1.17543e-09
2.83878e-09
5.33318e-09
-4.01669e-09
4.14612e-09
-2.2451e-11
-4.81655e-09
2.45762e-09
-1.23077e-09
1.74739e-09
-2.24272e-09
9.56163e-10
-8.34189e-09
1.48584e-09
9.09929e-09
-3.72128e-09
-6.86384e-09
-2.13401e-09
-4.60379e-09
8.22364e-09
9.11877e-09
-1.38597e-09
1.36648e-09
-1.25392e-08
-5.04104e-09
1.14131e-08
6.16718e-09
1.66876e-09
-6.46043e-09
-7.74756e-09
-2.44431e-08
6.51584e-09
1.28862e-08
-1.09638e-08
-1.18105e-08
-2.95923e-09
-5.63521e-09
-2.23295e-09
7.19185e-09
-9.28523e-09
4.32631e-09
2.49724e-09
4.38858e-09
1.98031e-08
-9.477e-09
-2.12899e-08
1.93592e-08
-1.12035e-09
1.56425e-09
-3.0883e-09
1.13989e-08
-1.20319e-08
-1.55245e-08
8.11754e-09
1.77575e-08
9.98092e-09
2.97635e-10
-6.09012e-09
1.44727e-08
-2.65085e-10
6.38804e-09
-9.38846e-09
1.03766e-08
-7.62986e-09
6.64168e-09
-6.42894e-09
2.71155e-10
-3.23069e-09
-7.47287e-10
1.60144e-09
9.52251e-09
7.54736e-09
5.84847e-09
-6.76586e-09
-6.62997e-09
1.81108e-09
5.72324e-09
1.30413e-11
5.99233e-09
-6.98515e-09
-5.43612e-09
1.73551e-10
-1.10572e-08
1.52998e-09
8.77994e-09
-7.17577e-09
-3.61027e-09
-4.07075e-10
8.40139e-09
-6.39286e-09
-7.13916e-10
2.63739e-10
6.29865e-09
-6.2878e-10
-1.31222e-08
7.23751e-09
7.62403e-09
-1.54903e-08
-6.90064e-10
6.62858e-09
1.29901e-09
-2.4181e-10
-6.72412e-09
7.84704e-09
-8.0945e-10
-4.88585e-09
6.77623e-09
3.77744e-10
-2.26811e-09
4.10193e-09
-1.43535e-09
1.60436e-09
-4.27094e-09
-2.22989e-09
-1.40245e-09
7.73427e-09
-2.51993e-09
-2.59141e-09
2.88143e-09
-3.78035e-09
-1.74934e-10
3.89514e-09
-6.77561e-09
-2.00537e-09
-3.61053e-09
8.98431e-09
-2.47846e-09
-2.70601e-10
1.57649e-10
-4.06006e-09
-2.19874e-09
1.40216e-11
1.33419e-08
1.25051e-10
-2.22614e-09
-1.12408e-08
4.27179e-10
1.21052e-08
-3.96065e-09
-1.87896e-08
2.28753e-08
1.41099e-08
-2.23878e-09
-1.58318e-08
7.76389e-09
-5.13976e-09
1.14858e-08
-2.68768e-09
8.73536e-09
1.74271e-08
-2.34748e-08
4.04687e-09
1.12848e-08
-1.80193e-08
7.37313e-09
-1.033e-09
-8.56628e-09
6.85269e-09
9.47624e-10
-1.51627e-08
8.42428e-09
8.83493e-09
-2.09649e-09
-9.59204e-10
-7.64936e-09
-6.55415e-09
1.42194e-08
-6.51122e-09
5.56991e-11
3.54879e-09
1.9406e-08
1.98796e-09
2.05908e-09
-1.05583e-08
6.53975e-09
3.87249e-09
-1.00452e-08
6.77344e-09
-8.19327e-09
1.40868e-08
6.15988e-09
9.99222e-09
-2.61954e-09
1.27081e-08
9.8477e-09
-6.30736e-09
-7.00111e-09
5.9612e-09
8.35494e-09
-7.31503e-09
4.67167e-09
1.01195e-09
-1.26847e-08
-7.73004e-09
1.12597e-08
2.43154e-09
-5.7675e-09
2.70914e-09
4.12834e-09
-5.79808e-09
2.68169e-09
5.65502e-09
7.10194e-09
-3.96039e-09
-8.79658e-09
6.87712e-09
-1.28176e-09
5.96671e-11
5.05496e-10
1.11575e-08
-3.30802e-09
5.5825e-09
-9.48677e-10
3.05023e-09
3.67425e-11
3.79013e-09
4.03084e-09
6.12134e-09
-7.47602e-09
3.93865e-09
3.57412e-09
-4.17581e-09
-2.27656e-09
-1.02365e-09
-8.16173e-10
-4.6414e-09
-2.49521e-09
5.80114e-09
1.98786e-09
5.17761e-09
4.09423e-09
7.3899e-09
5.75542e-09
7.68988e-09
1.51858e-09
2.8377e-09
1.70118e-08
-1.2901e-08
2.18568e-08
-1.41149e-08
-4.90423e-09
1.1547e-08
2.87869e-10
5.17693e-09
9.94848e-09
2.34553e-08
-9.50382e-09
8.59871e-09
-1.32098e-08
-1.75545e-09
8.94282e-09
-7.1345e-09
7.35516e-09
5.95712e-09
3.12815e-09
-1.42457e-10
-1.05344e-08
6.61524e-09
1.0298e-08
-1.29892e-08
1.2904e-08
6.04232e-09
-4.10534e-11
-5.59302e-09
1.54007e-08
-6.84302e-09
5.70204e-09
-3.29689e-11
9.73157e-09
9.39841e-09
3.44974e-10
7.37349e-09
3.21241e-09
-4.63604e-09
7.247e-09
4.76252e-09
5.05285e-09
-2.90484e-10
4.52234e-09
-4.80359e-09
5.33408e-09
-9.42287e-10
1.27116e-08
1.47082e-08
8.06744e-09
-2.32441e-09
-6.24627e-09
6.22754e-09
2.34312e-09
3.41225e-09
-5.48971e-09
-2.46956e-10
2.3377e-09
8.29981e-09
-7.57048e-09
-3.06703e-09
5.76937e-09
-1.9426e-11
-3.35806e-09
-3.65596e-11
-2.85163e-09
-2.93316e-09
-5.91461e-09
3.13733e-09
9.10616e-10
4.25186e-09
2.99792e-09
5.90878e-09
-5.76907e-09
-7.93468e-10