/*--------------------------------*- C++ -*----------------------------------*\
| =========                 |                                                 |
| \\      /  F ield         | OpenFOAM: The Open Source CFD Toolbox           |
|  \\    /   O peration     | Version:  v1612+                                |
|   \\  /    A nd           | Web:      www.OpenFOAM.com                      |
|    \\/     M anipulation  |                                                 |
\*---------------------------------------------------------------------------*/
FoamFile
{
    version     2.0;
    format      ascii;
    class       volVectorField;
    location    "206";
    object      wallShearStress;
}
// * * * * * * * * * * * * * * * * * * * * * * * * * * * * * * * * * * * * * //

dimensions      [0 2 -2 0 0 0 0];

internalField   uniform (0 0 0);

boundaryField
{
    WALL
    {
        type            calculated;
        value           nonuniform List<vector> 
1686
(
(-0.00903042 -0.0104466 0.00438721)
(-0.00857525 -0.00963173 0.00396556)
(-0.0210558 -0.0191873 0.00422203)
(-0.0192696 -0.020641 0.00320401)
(-0.0180905 -0.0126078 0.0184127)
(-0.0170082 -0.012221 0.0206287)
(-0.0130414 -0.00823126 0.00526729)
(-0.0137832 -0.00734096 0.00373131)
(-0.0168619 -0.00766669 0.00869388)
(-0.0162825 -0.00667871 0.00580827)
(-0.0172209 -0.0119983 0.0215225)
(-0.0186208 -0.0108956 0.018157)
(-0.0161602 -0.00857489 0.0163558)
(-0.0165061 -0.0114464 0.0201677)
(-0.0134957 -0.00617581 0.0108247)
(-0.0151303 -0.00826114 0.0135626)
(-0.00864469 -0.0227588 0.0154101)
(-0.00840079 -0.020133 0.0178767)
(-0.00721003 -0.0120574 -0.00150644)
(-0.0173311 -0.0144262 0.0181633)
(-0.0155118 -0.0172166 0.020031)
(-0.0128286 -0.0199585 0.00852688)
(-0.00931706 -0.0185703 0.00848696)
(-0.0152238 -0.0234418 0.0136944)
(-0.0142387 -0.0245442 0.0148521)
(-0.012897 -0.0243715 0.0133373)
(-0.0133694 -0.0246014 0.0105075)
(-0.0180333 -0.0233896 0.00716161)
(-0.0196335 -0.0224251 0.00737651)
(-0.0145651 -0.0236403 0.0104273)
(-0.0143188 -0.0255326 0.0131571)
(-0.0153321 -0.0238531 0.0123145)
(-0.0165155 -0.0239117 0.011165)
(-0.00279149 -0.0100272 0.0093673)
(-0.00397033 -0.0109343 0.0130566)
(-0.00124201 -0.0113418 0.00483241)
(-0.00184048 -0.0115944 0.00579984)
(-0.00234761 -0.0100625 0.00205913)
(-0.00154888 -0.0122488 0.00216278)
(-0.00229602 -0.00720897 0.00317806)
(-0.00252281 -0.00639118 0.00277805)
(-0.0227944 -0.0127415 0.0168086)
(-0.021731 -0.0127982 0.0170678)
(-0.0198226 -0.0231044 0.00629211)
(-0.0184369 -0.0226009 0.00542989)
(-0.0207197 -0.0234213 0.00636357)
(-0.0195803 -0.0232948 0.00588078)
(-0.0189869 -0.0252303 0.00700381)
(-0.018628 -0.0231602 0.00645448)
(-0.0178107 -0.0248261 0.0072258)
(-0.0242516 -0.0140045 0.0134372)
(-0.0239097 -0.013765 0.0151786)
(-0.0251437 -0.0144903 0.0145246)
(-0.0243981 -0.0136793 0.0154739)
(-0.0240783 -0.0140422 0.0124986)
(-0.025205 -0.0141691 0.0129452)
(-0.0163823 -0.00885008 0.00869694)
(-0.018929 -0.00816013 0.00914272)
(-0.0195273 -0.00773029 0.00751372)
(-0.0147206 -0.00789611 0.00808797)
(-0.0169927 -0.00644252 0.00731388)
(-0.0173819 -0.00604113 0.00677592)
(-0.0172466 -0.00650181 0.0103171)
(-0.0158095 -0.0152797 0.0166719)
(-0.0175769 -0.015926 0.0155443)
(-0.0155013 -0.0172167 0.0177273)
(-0.0160257 -0.0162572 0.0189088)
(-0.0175713 -0.0144712 0.015682)
(-0.0130224 -0.0215535 0.0155032)
(-0.0127406 -0.0219236 0.0160791)
(-0.0166143 -0.024543 0.0166076)
(-0.0161588 -0.0248219 0.0141702)
(-0.0143722 -0.0196763 0.0211859)
(-0.0152795 -0.0170777 0.0217016)
(-0.0158055 -0.0170898 0.022236)
(-0.0143943 -0.017865 0.0214464)
(-0.0141708 -0.0192492 0.0206911)
(-0.0152113 -0.0186199 0.0217633)
(-0.0241442 -0.0174458 0.00892526)
(-0.0236645 -0.0197824 0.00911388)
(-0.0230768 -0.0174011 0.00918017)
(-0.0241829 -0.0177112 0.0105331)
(-0.0236566 -0.018025 0.00969515)
(-0.00252574 -0.0065536 0.00404768)
(-0.00274446 -0.00539401 0.00276044)
(-0.00308361 -0.00533958 0.00246799)
(-0.00264703 -0.00587129 0.00339474)
(-0.0162636 -0.00988337 0.00985629)
(-0.0150328 -0.00918896 0.00770186)
(-0.0146835 -0.00786081 0.00800718)
(-0.0161579 -0.00902825 0.0121643)
(-0.0181888 -0.0102365 0.0133033)
(-0.0157931 -0.00878997 0.00998248)
(-0.00671055 -0.0145856 0.0155614)
(-0.00573629 -0.0142694 0.0149616)
(-0.00584069 -0.0132668 0.0153894)
(-0.00830175 -0.0127044 0.0172526)
(-0.00702196 -0.0128412 0.0167517)
(-0.00834707 -0.0143899 0.0169177)
(-0.00965475 -0.0234532 0.0035439)
(-0.00963149 -0.0215423 0.00273049)
(-0.0100445 -0.0210384 0.00361928)
(-0.0106047 -0.0206907 0.00211832)
(-0.00752216 -0.0213613 0.00581818)
(-0.0082517 -0.0212468 0.00526851)
(-0.00487071 -0.0207532 0.00895367)
(-0.00534755 -0.0213253 0.0101601)
(-0.00605829 -0.0212175 0.0122797)
(-0.0055489 -0.0214861 0.00835117)
(-0.00591785 -0.0204158 0.0126541)
(-0.00598081 -0.0219781 0.0105947)
(-0.0178933 -0.00952401 0.015632)
(-0.0204869 -0.00843243 0.0137432)
(-0.020138 -0.00958565 0.0154379)
(-0.0183295 -0.00820407 0.0129319)
(-0.021111 -0.00879172 0.0134505)
(-0.0172743 -0.0100762 0.0137556)
(-0.0242895 -0.0109933 0.007861)
(-0.0229282 -0.00897719 0.00883571)
(-0.023731 -0.0112408 0.00811395)
(-0.0230638 -0.0102671 0.0111401)
(-0.023993 -0.00991808 0.0110836)
(-0.0236232 -0.010234 0.00988318)
(-0.00609134 -0.0217361 0.00809118)
(-0.00712889 -0.0224022 0.00548754)
(-0.00717244 -0.0211686 0.00505561)
(-0.00668182 -0.0214229 0.004916)
(-0.00760655 -0.023483 0.00727524)
(-0.0132024 -0.025274 0.0105799)
(-0.0137604 -0.0265117 0.0126774)
(-0.0154324 -0.0262209 0.00876965)
(-0.0158821 -0.0270801 0.00990737)
(-0.0161468 -0.0286032 0.0117796)
(-0.0118384 -0.0111401 0.0186784)
(-0.0118774 -0.0109937 0.0180436)
(-0.0131858 -0.0112294 0.0185045)
(-0.0148935 -0.0120179 0.0172373)
(-0.0134881 -0.0119831 0.0173276)
(-0.0155582 -0.0123622 0.0194103)
(-0.00221266 -0.00834924 0.00166083)
(-0.00272786 -0.00774967 0.00104329)
(-0.00245724 -0.00735183 0.00174116)
(-0.00202442 -0.0082266 0.00205055)
(-0.00324994 -0.00660678 0.000910443)
(-0.00280189 -0.00652782 0.00124)
(-0.00299413 -0.00469649 0.00143863)
(-0.00329489 -0.00495742 0.00170101)
(-0.00331696 -0.00444805 0.00149469)
(-0.00337803 -0.00418195 0.00138105)
(-0.00291135 -0.00563617 0.00181697)
(-0.00281684 -0.00487894 0.00152475)
(-0.00668049 -0.0046938 0.00317182)
(-0.00786532 -0.00503011 0.00393269)
(-0.00563908 -0.00437752 0.00253605)
(-0.0076818 -0.0050491 0.00360626)
(-0.00568765 -0.00436316 0.00241397)
(-0.00644112 -0.00445759 0.00271208)
(-0.0041073 -0.00405374 0.00197971)
(-0.0040861 -0.00415686 0.00184735)
(-0.00398514 -0.00397227 0.00188092)
(-0.00383456 -0.00421636 0.00192676)
(-0.00368396 -0.00386318 0.00175279)
(-0.00267306 -0.00832435 0.00620129)
(-0.00292064 -0.00878688 0.00779787)
(-0.00255053 -0.00890124 0.00715714)
(-0.00298801 -0.009712 0.00866359)
(-0.00322278 -0.00953975 0.00890815)
(-0.00262526 -0.00795224 0.00625634)
(-0.00247484 -0.00665001 0.00281127)
(-0.00234202 -0.00782881 0.00388121)
(-0.0025793 -0.00615599 0.00207537)
(-0.0022034 -0.00652635 0.00238001)
(-0.00220659 -0.00701046 0.00287018)
(-0.00266054 -0.00592097 0.00214389)
(-0.00213564 -0.0218152 -0.00400963)
(-0.00139058 -0.0226201 -0.00369312)
(-0.00361002 -0.0220642 -0.00615377)
(-0.00351062 -0.020171 -0.0034436)
(-0.00325968 -0.0209997 -0.00432424)
(-0.00522973 -0.020909 -0.00592748)
(-0.00530836 -0.0182269 -0.00441885)
(-0.00422276 -0.0187424 -0.00339302)
(-0.0039629 -0.0199995 -0.00534035)
(-0.00449025 -0.0171725 0.0107248)
(-0.00487884 -0.0167847 0.0115176)
(-0.00600657 -0.0156355 0.0117352)
(-0.00505517 -0.0160859 0.0108613)
(-0.00568558 -0.0160821 0.0126319)
(-0.00634273 -0.0155145 0.0127244)
(-0.002124 -0.00948674 0.00651215)
(-0.00179975 -0.00845326 0.00462274)
(-0.00168141 -0.00918855 0.00544627)
(-0.0019912 -0.00883992 0.00554168)
(-0.00171918 -0.00816672 0.004661)
(-0.00202063 -0.010229 0.00658322)
(-0.00163337 -0.0098459 0.00341883)
(-0.00133136 -0.0131227 0.00392753)
(-0.00160057 -0.0130056 0.00550539)
(-0.0014253 -0.0134791 0.00479055)
(-0.00188853 -0.0148535 0.00894634)
(-0.0019107 -0.0154019 0.0096767)
(-0.00200508 -0.0158763 0.00787353)
(-0.00111519 -0.0142931 0.00707646)
(-0.000824921 -0.0140906 0.00798992)
(-0.00212705 -0.014508 0.0096481)
(-0.0061135 -0.00527749 0.00150845)
(-0.00494359 -0.0054331 0.00123105)
(-0.00637055 -0.00502305 0.00212572)
(-0.00734252 -0.00510606 0.0024563)
(-0.00789332 -0.00565919 0.00236125)
(-0.00510649 -0.00488148 0.00153811)
(-0.00730894 -0.00488899 0.00281914)
(-0.0103612 -0.00598191 0.00479456)
(-0.0105929 -0.00568967 0.00532485)
(-0.00880272 -0.00497686 0.00359368)
(-0.00874991 -0.00519809 0.00418514)
(-0.00673184 -0.00489106 0.00296129)
(-0.00150912 -0.0202075 0.00345997)
(-0.00216905 -0.0180664 0.00518585)
(-0.00229432 -0.0203568 0.00178806)
(-0.00282196 -0.0171338 0.00364014)
(-0.00240589 -0.017888 0.00277173)
(-0.00214039 -0.0201541 0.00472026)
(-0.00424368 -0.0187808 0.0078684)
(-0.00464557 -0.0176575 0.00894757)
(-0.00338236 -0.0175391 0.00936869)
(-0.00318651 -0.0202685 0.00648759)
(-0.00321 -0.0189962 0.00686869)
(-0.00328011 -0.0189938 0.00738084)
(-0.00277749 -0.0161997 0.00303846)
(-0.00240904 -0.0168529 0.00221209)
(-0.00675417 -0.0150977 0.0111869)
(-0.00613084 -0.0170523 0.00918039)
(-0.00591835 -0.0164793 0.0104967)
(-0.00683548 -0.0147098 0.00956971)
(-0.00755287 -0.0142809 0.0108225)
(-0.0077432 -0.0145717 0.00987285)
(-0.0140972 -0.0117086 0.0207492)
(-0.0159554 -0.0119942 0.0203055)
(-0.0138349 -0.0120275 0.0196974)
(-0.011974 -0.0121979 0.0201666)
(-0.0155803 -0.0111847 0.0200271)
(-0.0119365 -0.0131423 0.0191344)
(-0.0030005 -0.0134492 0.0109252)
(-0.00341559 -0.012906 0.0124077)
(-0.00293882 -0.0142355 0.0102363)
(-0.00393032 -0.0140851 0.0126655)
(-0.00403187 -0.0131752 0.0131034)
(-0.00331297 -0.0142482 0.0111282)
(-0.00590263 -0.0118859 0.0160798)
(-0.00661862 -0.0128336 0.0170571)
(-0.00484588 -0.0120134 0.0144542)
(-0.00525976 -0.012832 0.0153067)
(-0.00705219 -0.0122301 0.0174551)
(-0.00456612 -0.0126526 0.0140318)
(-0.00910792 -0.00542093 0.00513053)
(-0.0110472 -0.00589267 0.0073149)
(-0.0104221 -0.00598406 0.00650189)
(-0.00953569 -0.00535675 0.00550707)
(-0.00840063 -0.00531893 0.00454558)
(-0.0106837 -0.00604379 0.00689005)
(-0.00444432 -0.0086727 -5.3818e-05)
(-0.00583007 -0.00657359 0.000748418)
(-0.00688065 -0.00763067 0.000369506)
(-0.00398878 -0.00771733 0.000526666)
(-0.00557699 -0.00811777 4.04179e-05)
(-0.00412855 -0.00641318 0.00054684)
(-0.0127758 -0.00652468 0.00864527)
(-0.0111373 -0.00604698 0.00636408)
(-0.0121848 -0.00578634 0.00744035)
(-0.0133754 -0.0069502 0.00900159)
(-0.014247 -0.00657878 0.0100701)
(-0.0104917 -0.00594964 0.0063639)
(-0.00467499 -0.00958919 0.0109497)
(-0.00429482 -0.00941217 0.00946974)
(-0.00373541 -0.00874594 0.00852376)
(-0.00647516 -0.0100766 0.0141716)
(-0.00696722 -0.0109352 0.0146767)
(-0.00918755 -0.0108259 0.0163161)
(-0.00888624 -0.0108306 0.0166267)
(-0.00641125 -0.0104289 0.0137518)
(-0.00861826 -0.011556 0.0152555)
(-0.00756304 -0.0102652 0.0151658)
(-0.00189942 -0.0136192 0.000306511)
(-0.000902125 -0.012358 0.00224335)
(-0.00126375 -0.0126687 -0.000393931)
(-0.00175266 -0.0108531 -0.000812117)
(-0.00109594 -0.0118679 0.000975447)
(-0.00121365 -0.0107393 -0.000627971)
(-0.005627 -0.00879888 -0.00463762)
(-0.00670523 -0.0075321 -0.00454672)
(-0.00572807 -0.00863854 -0.00400982)
(-0.0041633 -0.00909111 -0.00363887)
(-0.00672954 -0.00783785 -0.00454883)
(-0.00443408 -0.00961437 -0.00373663)
(-0.0035063 -0.00918846 -0.00431632)
(-0.00337689 -0.00961041 -0.00333249)
(-0.00396734 -0.00766121 -0.00421352)
(-0.00345207 -0.00793139 -0.00357393)
(-0.00253305 -0.00992776 -0.00288777)
(-0.00242262 -0.00965546 -0.00275643)
(-0.00515009 -0.00696671 -0.00422468)
(-0.00773983 -0.00727665 -0.00486513)
(-0.00614449 -0.00683097 -0.00458473)
(-0.00645387 -0.00662484 -0.00481044)
(-0.00888182 -0.00686583 -0.00499367)
(-0.00808412 -0.00642186 -0.00458505)
(-0.0156303 -0.0247296 0.00947866)
(-0.0153702 -0.0238783 0.00902562)
(-0.0155846 -0.0227848 0.00856586)
(-0.0167111 -0.0244273 0.010196)
(-0.0144471 -0.0234522 0.0108458)
(-0.0201271 -0.0242376 0.010158)
(-0.0206087 -0.0235509 0.00924825)
(-0.0190248 -0.0244657 0.0104946)
(-0.0195318 -0.0259314 0.0118976)
(-0.0205044 -0.0236462 0.00946563)
(-0.020256 -0.0215466 0.00891456)
(-0.0215625 -0.0232954 0.00950724)
(-0.0225207 -0.0222309 0.00948325)
(-0.0219097 -0.022051 0.00932015)
(-0.0199545 -0.0214635 0.00839504)
(-0.0220052 -0.0213659 0.00979529)
(-0.0228327 -0.019985 0.0107368)
(-0.0207888 -0.0191285 0.00930624)
(-0.021279 -0.0206791 0.00948646)
(-0.0230984 -0.0184125 0.0101197)
(-0.0238391 -0.0194244 0.0117732)
(-0.0239271 -0.0169031 0.0120696)
(-0.0228678 -0.0165167 0.0102488)
(-0.0236233 -0.0160694 0.0115798)
(-0.0226298 -0.0191629 0.0102201)
(-0.021048 -0.0199303 0.00663928)
(-0.0236329 -0.0201359 0.00743003)
(-0.0216095 -0.0193562 0.0074741)
(-0.0201691 -0.0219242 0.00685633)
(-0.0226516 -0.0197083 0.00767054)
(-0.0209799 -0.0205759 0.0065349)
(-0.0145 -0.0118597 0.018022)
(-0.0175383 -0.0131303 0.0200501)
(-0.0182903 -0.0129995 0.0196844)
(-0.0153572 -0.0111017 0.0201712)
(-0.0153256 -0.0128412 0.020616)
(-0.0156001 -0.0105236 0.0192079)
(-0.0151682 -0.0254069 0.00634004)
(-0.0157596 -0.0218189 0.00382396)
(-0.0159155 -0.0238744 0.00523858)
(-0.0154244 -0.0230589 0.00400798)
(-0.0146901 -0.02263 0.0036442)
(-0.015281 -0.0240729 0.00515249)
(-0.0197797 -0.019768 0.00338966)
(-0.0185268 -0.0221544 0.00305632)
(-0.0188175 -0.0228653 0.00328127)
(-0.0181692 -0.0194004 0.00205039)
(-0.0185932 -0.0205054 0.00332906)
(-0.0016977 -0.014535 0.00306622)
(-0.00209335 -0.0152751 0.00339892)
(-0.00172564 -0.0133338 0.00227345)
(-0.00251216 -0.0160793 0.00562752)
(-0.00211568 -0.0158089 0.0049728)
(-0.00277773 -0.0152394 0.00574216)
(-0.00283341 -0.0157766 0.00230036)
(-0.00208103 -0.0138449 0.00124812)
(-0.00193948 -0.0147729 0.00207147)
(-0.0027127 -0.0140072 0.000896718)
(-0.00189468 -0.0151519 0.0041912)
(-0.00185835 -0.0149677 0.00381077)
(-0.00214495 -0.0108286 -0.000673269)
(-0.00201253 -0.0121256 -0.00138878)
(-0.0015271 -0.0110871 0.000127847)
(-0.00234173 -0.0107358 -0.00192307)
(-0.0023329 -0.0107469 -0.0020254)
(-0.001448 -0.0115678 1.00013e-05)
(-0.00353624 -0.0126388 -0.00133274)
(-0.00406203 -0.0100975 -0.0027252)
(-0.00521229 -0.0128839 -0.00236567)
(-0.00562664 -0.0106358 -0.00354383)
(-0.00424992 -0.0139069 -0.00156911)
(-0.00552307 -0.0114352 -0.00322861)
(-0.0130182 -0.021222 0.0187135)
(-0.0133154 -0.0221264 0.0169709)
(-0.0128858 -0.0224814 0.017763)
(-0.0129401 -0.0211772 0.0189862)
(-0.0127693 -0.0227794 0.0157401)
(-0.0131926 -0.0237986 0.0175992)
(-0.0152584 -0.0144831 0.0197462)
(-0.0153606 -0.0164037 0.0205364)
(-0.0151043 -0.0154974 0.0207787)
(-0.0151354 -0.0172607 0.021117)
(-0.0159252 -0.0146816 0.0203923)
(-0.014478 -0.0172724 0.0205138)
(-0.0139524 -0.0226791 0.0164423)
(-0.0132676 -0.0202368 0.0175052)
(-0.014359 -0.0217466 0.0192589)
(-0.0148812 -0.0237435 0.0191755)
(-0.0145564 -0.0204029 0.0205706)
(-0.0141089 -0.0202081 0.0195845)
(-0.0145627 -0.017711 -0.00338744)
(-0.0154691 -0.0186634 -0.00327264)
(-0.0136718 -0.0192908 -0.0051245)
(-0.0118677 -0.0180314 -0.00610301)
(-0.00483014 -0.0144195 -0.00219642)
(-0.00390626 -0.0135955 -0.000686423)
(-0.00480771 -0.015314 -0.00197933)
(-0.00393538 -0.011451 -0.000518369)
(-0.00610861 -0.0134553 -0.00159156)
(-0.00546304 -0.0108358 -0.000844336)
(-0.00509836 -0.0211869 -0.00759233)
(-0.00622573 -0.0208498 -0.00770699)
(-0.00607709 -0.0210513 0.0118142)
(-0.00571699 -0.0173745 0.0130087)
(-0.0084614 -0.020154 0.0139247)
(-0.00583992 -0.0193235 0.0109795)
(-0.00673301 -0.0195788 0.0143705)
(-0.00834007 -0.0203596 0.0151908)
(-0.0162882 -0.0189816 0.000329925)
(-0.0166602 -0.0170925 0.00237212)
(-0.0166369 -0.0193031 0.00210079)
(-0.0165754 -0.0187524 -0.000661049)
(-0.0162264 -0.0168794 0.00101826)
(-0.0165952 -0.0191374 -0.00103736)
(-0.0148494 -0.0186813 0.00683447)
(-0.0142537 -0.0188331 0.00806526)
(-0.015096 -0.0168168 0.00917756)
(-0.017564 -0.0187642 0.00807272)
(-0.0160437 -0.018618 0.00573327)
(-0.0169487 -0.0175827 0.00624803)
(-0.0127512 -0.0182776 0.00728861)
(-0.0113553 -0.019102 0.00590753)
(-0.00924223 -0.0177369 0.00631631)
(-0.0098503 -0.0174529 0.00876426)
(-0.0084188 -0.0175533 0.00690969)
(-0.0134353 -0.019092 0.00973738)
(-0.0176023 -0.0125148 0.0169553)
(-0.0177896 -0.0127904 0.0138646)
(-0.0175077 -0.00996298 0.0121745)
(-0.0171162 -0.0114895 0.0163085)
(-0.019064 -0.012288 0.0149861)
(-0.0172965 -0.01181 0.0118757)
(-0.0139662 -0.0175626 0.0166047)
(-0.0111344 -0.0198597 0.0160544)
(-0.0110613 -0.0166799 0.0160479)
(-0.0134376 -0.0184362 0.0156198)
(-0.0127285 -0.018382 0.0170882)
(-0.0115433 -0.019414 0.0167219)
(-0.0135757 -0.0155443 -0.000884345)
(-0.0155409 -0.0156034 0.000911601)
(-0.0168429 -0.0190399 -0.00108871)
(-0.0163985 -0.0171754 0.00100074)
(-0.0157101 -0.0171557 -0.00282846)
(-0.0138863 -0.018337 -0.0034209)
(-0.0159285 -0.0161367 -0.0014104)
(-0.010806 -0.0146312 -0.00177495)
(-0.00846194 -0.0148774 -0.0029086)
(-0.00962395 -0.0156248 -0.00355017)
(-0.0115975 -0.015443 -0.00298734)
(-0.0112213 -0.00901636 0.00197758)
(-0.00933055 -0.00700982 0.00159993)
(-0.00744983 -0.00747481 0.000725397)
(-0.00994775 -0.00950403 0.000876937)
(-0.0110532 -0.0081104 0.00233056)
(-0.00853641 -0.00879512 0.000355425)
(-0.0181412 -0.016411 0.00766036)
(-0.0175604 -0.0154242 0.00755901)
(-0.0171851 -0.0138736 0.00442722)
(-0.0187198 -0.0166135 0.00516481)
(-0.0177992 -0.0177166 0.00479353)
(-0.0163808 -0.0107496 0.00809417)
(-0.0140879 -0.00960934 0.00481589)
(-0.0155442 -0.00965498 0.00771974)
(-0.0150529 -0.00962421 0.00620083)
(-0.015324 -0.0105912 0.00606508)
(-0.0132733 -0.00852116 0.00458799)
(-0.00668157 -0.016942 0.00908946)
(-0.00593475 -0.0164335 0.00780063)
(-0.0051908 -0.0172462 0.00743807)
(-0.00732492 -0.0165088 0.00964702)
(-0.00478303 -0.016071 0.00847859)
(-0.00959886 -0.0237328 0.0160084)
(-0.0120506 -0.0263673 0.0129798)
(-0.00995953 -0.0247669 0.0121047)
(-0.0093169 -0.0242732 0.0132969)
(-0.0109855 -0.0249707 0.0111252)
(-0.0105252 -0.0242509 0.0146211)
(-0.0107675 -0.0214829 0.0184435)
(-0.0108667 -0.0223423 0.0185663)
(-0.00921551 -0.0227536 0.0155646)
(-0.00860892 -0.0221605 0.0154013)
(-0.00970905 -0.0223374 0.0172869)
(-0.0153009 -0.0080097 0.0127803)
(-0.0143006 -0.00824389 0.0121709)
(-0.0131569 -0.00715178 0.00962685)
(-0.0167081 -0.00906458 0.0157342)
(-0.0146866 -0.0089203 0.0140574)
(-0.0138869 -0.00674178 0.0109827)
(-0.0170693 -0.0103697 0.0178903)
(-0.0164273 -0.00807797 0.0170958)
(-0.0165015 -0.00829935 0.0159756)
(-0.0147339 -0.00754445 0.0135273)
(-0.0166714 -0.00997897 0.0185333)
(-0.0159332 -0.00814521 0.014078)
(-0.0182803 -0.0117728 0.0211408)
(-0.0167163 -0.0117976 0.0217647)
(-0.0170995 -0.0118492 0.0194681)
(-0.0163899 -0.0109168 0.0221919)
(-0.0170869 -0.00938775 0.0179416)
(-0.017251 -0.0102988 0.0173265)
(-0.0127561 -0.0198447 0.0218855)
(-0.0150629 -0.0164187 0.0219869)
(-0.013058 -0.0197387 0.0218351)
(-0.0140431 -0.0177847 0.0227432)
(-0.0132097 -0.0170514 0.0219346)
(-0.0157708 -0.0173585 0.0226916)
(-0.0180379 -0.0152841 0.0230973)
(-0.015661 -0.0157169 0.0231271)
(-0.0166422 -0.0144099 0.022315)
(-0.0157533 -0.0158037 0.0234371)
(-0.0174541 -0.0126825 0.0212604)
(-0.00780277 -0.0124629 -0.00386669)
(-0.00886471 -0.0124504 -0.00341761)
(-0.00697535 -0.0137032 -0.00244565)
(-0.00650796 -0.0127853 -0.0028908)
(-0.00910991 -0.010403 -0.00399034)
(-0.00434491 -0.0152492 0.000468583)
(-0.00384026 -0.0149367 -7.94412e-05)
(-0.00497583 -0.0149971 -0.000985928)
(-0.00382909 -0.0150165 0.000898293)
(-0.00343142 -0.0155619 0.00120491)
(-0.00444467 -0.0144161 -0.000787413)
(-0.0176808 -0.0065581 0.000220728)
(-0.0151884 -0.00709012 -0.00255949)
(-0.0177331 -0.00648262 -0.000308628)
(-0.0169058 -0.00591107 -0.00071822)
(-0.0147244 -0.00788836 -0.00290122)
(-0.016853 -0.00774948 -0.00197061)
(-0.0119006 -0.0208034 0.000855574)
(-0.0146448 -0.0187462 -8.44594e-05)
(-0.0128187 -0.0205144 0.000537813)
(-0.0133683 -0.0197218 -0.000628535)
(-0.0144313 -0.0189437 -0.000578676)
(-0.013777 -0.0196767 0.000484742)
(-0.0147377 -0.0168969 -0.00203109)
(-0.0149578 -0.0171363 -0.00181694)
(-0.0132016 -0.0161369 -0.00234772)
(-0.0129257 -0.0175551 -0.00202018)
(-0.0134505 -0.0177097 -0.00165268)
(-0.0149164 -0.0168594 -0.00201566)
(-0.0195124 -0.00605385 0.00611411)
(-0.0204678 -0.00645056 0.00408047)
(-0.0195048 -0.00655825 0.00452867)
(-0.0202922 -0.00742621 0.00531272)
(-0.0200052 -0.00684416 0.00252988)
(-0.0189583 -0.00606216 0.00312315)
(-0.0242799 -0.0118643 0.00942799)
(-0.0249564 -0.0120575 0.00890852)
(-0.0241453 -0.0108001 0.00807742)
(-0.0238656 -0.0123511 0.00651698)
(-0.0235759 -0.0130327 0.00630275)
(-0.0233187 -0.0115256 0.00920399)
(-0.0224019 -0.0141584 0.00510511)
(-0.0220408 -0.0142054 0.00476964)
(-0.0231578 -0.0134251 0.00724561)
(-0.0203965 -0.0119136 0.00390707)
(-0.0241371 -0.0131521 0.00748486)
(-0.0249078 -0.0166613 0.00684563)
(-0.0214701 -0.0107159 0.0151618)
(-0.0229233 -0.0107345 0.0162762)
(-0.0224566 -0.00945521 0.0142505)
(-0.0234237 -0.0103514 0.015158)
(-0.023565 -0.0115574 0.012632)
(-0.0245279 -0.0117128 0.0139437)
(-0.0148547 -0.0103457 0.0173695)
(-0.016312 -0.0097429 0.0169636)
(-0.0170631 -0.0113016 0.0183927)
(-0.0188017 -0.0101741 0.0173394)
(-0.0180093 -0.00979096 0.0173933)
(-0.0144142 -0.0100397 0.0180632)
(-0.00753975 -0.013643 0.0126176)
(-0.0096882 -0.013171 0.0139339)
(-0.00869873 -0.0128195 0.0141035)
(-0.00837649 -0.0135225 0.0121093)
(-0.00824332 -0.0143214 0.0133196)
(-0.0102805 -0.0118535 0.0202425)
(-0.0119619 -0.0121637 0.0209602)
(-0.0129891 -0.0123533 0.0210898)
(-0.00952986 -0.0130415 0.0190618)
(-0.00976242 -0.0122095 0.01892)
(-0.0134282 -0.0130557 0.022091)
(-0.0189032 -0.010607 0.0184302)
(-0.0163296 -0.0120445 0.0194364)
(-0.0198396 -0.0113784 0.0194156)
(-0.0182443 -0.0117098 0.0194012)
(-0.0172298 -0.0120513 0.0201503)
(-0.0217665 -0.018014 0.00505941)
(-0.0204755 -0.0191461 0.00412697)
(-0.022715 -0.0186163 0.00601773)
(-0.0213999 -0.0195677 0.00450032)
(-0.0230717 -0.0174343 0.00588079)
(-0.0192564 -0.010626 0.0203888)
(-0.018899 -0.0109944 0.0190959)
(-0.0216397 -0.0130558 0.0190253)
(-0.0210491 -0.0117131 0.016755)
(-0.0226507 -0.0117636 0.0182913)
(-0.0219971 -0.0144728 0.0195063)
(-0.0242537 -0.015186 0.0125364)
(-0.0248323 -0.0166802 0.0105371)
(-0.0242546 -0.01439 0.0127252)
(-0.0237823 -0.0160632 0.00985888)
(-0.0236914 -0.0157082 0.0112316)
(-0.0249195 -0.0162843 0.0116353)
(-0.023394 -0.0133538 0.0166859)
(-0.0246884 -0.0140945 0.0158457)
(-0.0228847 -0.0123577 0.0181614)
(-0.0220537 -0.0128254 0.0162126)
(-0.0211098 -0.0124288 0.0183866)
(-0.0237384 -0.0144343 0.0152551)
(-0.015035 -0.00590735 -0.00141144)
(-0.0147808 -0.00552367 -0.000844547)
(-0.0139089 -0.00558054 -0.00145964)
(-0.00467534 -0.0129283 0.00367656)
(-0.00570158 -0.0140935 0.00412998)
(-0.00482926 -0.0139691 0.00482282)
(-0.0042018 -0.0146006 0.00351801)
(-0.00419848 -0.013822 0.0035506)
(-0.0040763 -0.0150379 0.00282411)
(-0.00569719 -0.0142041 0.00472486)
(-0.00967538 -0.00928597 0.0045447)
(-0.00931415 -0.00950399 0.00362101)
(-0.0105312 -0.00863343 0.00249674)
(-0.0105642 -0.00844085 0.00370043)
(-0.00819859 -0.010086 0.00428106)
(-0.0101078 -0.00939804 0.00387656)
(-0.0133608 -0.00878365 0.00959837)
(-0.0115194 -0.0100116 0.00856159)
(-0.0111348 -0.00999233 0.00987382)
(-0.012769 -0.0103472 0.0100585)
(-0.0121763 -0.00859757 0.00822581)
(-0.0138468 -0.00881147 0.00883216)
(-0.0118232 -0.0111427 0.0114568)
(-0.00929342 -0.0125514 0.0106031)
(-0.00916933 -0.0125266 0.0115657)
(-0.0102957 -0.011432 0.0106372)
(-0.0105386 -0.0120871 0.012519)
(-0.0112054 -0.0106988 0.0123117)
(-0.00772934 -0.0116866 0.00546793)
(-0.00727202 -0.0124187 0.00651844)
(-0.00690346 -0.012388 0.0050431)
(-0.00644111 -0.0124061 0.00609188)
(-0.00833963 -0.01144 0.00583553)
(-0.00795512 -0.0114645 0.00644264)
(-0.0116348 -0.00780446 0.00274753)
(-0.011413 -0.00865982 0.00353391)
(-0.0119893 -0.00792014 0.00438523)
(-0.0125162 -0.00765383 0.00273297)
(-0.0115077 -0.00858035 0.00430099)
(-0.0138891 -0.00638713 0.00284149)
(-0.0147595 -0.00617345 0.00262188)
(-0.0151503 -0.00537298 0.00154336)
(-0.0138262 -0.00576006 0.00127135)
(-0.0137715 -0.00672856 0.00187647)
(-0.0145764 -0.00608717 0.000462769)
(-0.0105828 -0.00786208 -0.00403292)
(-0.00849288 -0.00779619 -0.00436161)
(-0.00766037 -0.0091366 -0.00419683)
(-0.0112395 -0.00886633 -0.00439823)
(-0.0104016 -0.00971986 -0.0044)
(-0.00857295 -0.0102827 -0.00443606)
(-0.0154057 -0.019826 0.00353326)
(-0.0146927 -0.0191217 0.00537171)
(-0.0120487 -0.00657717 -0.00356235)
(-0.01165 -0.00669571 -0.0039083)
(-0.0105473 -0.0052624 -0.00389906)
(-0.0132404 -0.00634683 7.32865e-05)
(-0.0125899 -0.0063638 0.00036909)
(-0.0126845 -0.00725307 0.00108387)
(-0.0120431 -0.00719885 0.00146916)
(-0.0130632 -0.00677731 0.00220351)
(-0.00837984 -0.0132267 0.0101456)
(-0.00637192 -0.0144063 0.00701883)
(-0.00705 -0.0143412 0.00896796)
(-0.00580062 -0.0139395 0.0075886)
(-0.00687809 -0.0125813 0.00744378)
(-0.0106361 -0.0118453 0.00985088)
(-0.0128358 -0.0101412 0.0113508)
(-0.0101819 -0.0106203 0.00631916)
(-0.00891105 -0.0102839 0.00579912)
(-0.00540891 -0.0134233 0.00652878)
(-0.00612596 -0.013063 0.00635179)
(-0.0036198 -0.0157515 0.00220318)
(-0.0117039 -0.00732543 0.000487108)
(-0.0118574 -0.0077759 0.00210333)
(-0.0111195 -0.00779062 0.00212806)
(-0.0158642 -0.00534335 0.000896686)
(-0.0130516 -0.00528185 -0.00268106)
(-0.0141017 -0.00533813 -0.000699391)
(-0.0131197 -0.00514937 -0.0002863)
(-0.0129533 -0.0056856 -0.00128649)
(-0.0115442 -0.00558945 -0.00288559)
(-0.0122471 -0.004933 -0.00210761)
(-0.0231762 -0.0146974 0.00843686)
(-0.0248374 -0.0156345 0.00824329)
(-0.0263598 -0.0160253 0.010736)
(-0.0233922 -0.0151093 0.00802433)
(-0.0252216 -0.0177809 0.0106852)
(-0.0246577 -0.0164395 0.00974213)
(-0.025732 -0.0189786 0.00910698)
(-0.0226296 -0.0141881 0.0195403)
(-0.0141012 -0.0122593 0.0209694)
(-0.0198782 -0.0133262 0.0217802)
(-0.0113591 -0.0120444 0.0199885)
(-0.0115582 -0.011449 0.0193622)
(-0.021834 -0.0115833 0.0177822)
(-0.0224064 -0.0133436 0.020093)
(-0.0201934 -0.0121935 0.0204906)
(-0.0140453 -0.0116315 0.0209216)
(-0.016951 -0.0126906 0.0219258)
(-0.00976682 -0.0124177 0.0201929)
(-0.00766529 -0.0108496 0.0186229)
(-0.0106808 -0.0109864 0.0199194)
(-0.0244625 -0.0119518 0.0155353)
(-0.02485 -0.0134098 0.0123784)
(-0.025097 -0.0126519 0.0142562)
(-0.0196886 -0.0120444 0.0198893)
(-0.0174907 -0.0107713 0.0204481)
(-0.0176186 -0.011034 0.0199055)
(-0.0226776 -0.0121585 0.0156676)
(-0.020202 -0.010681 0.0180372)
(-0.0215332 -0.0117004 0.0171475)
(-0.00845047 -0.0133739 0.0117531)
(-0.017347 -0.0110935 0.0194894)
(-0.0239653 -0.0126882 0.0135739)
(-0.0237027 -0.0118118 0.0167157)
(-0.0232571 -0.010523 0.014935)
(-0.0225246 -0.0103749 0.0136734)
(-0.025838 -0.0147009 0.00937545)
(-0.023781 -0.0132357 0.0096647)
(-0.0240129 -0.0171897 0.00670744)
(-0.0242057 -0.0119501 0.0119251)
(-0.0238306 -0.0117404 0.0121149)
(-0.0226427 -0.0132075 0.00515635)
(-0.0154352 -0.0193898 0.00128644)
(-0.0165326 -0.0224361 0.00286194)
(-0.0201741 -0.0150283 0.00214155)
(-0.0200446 -0.0139539 0.00197494)
(-0.0186326 -0.0157866 0.00120516)
(-0.0179361 -0.0171246 0.000559675)
(-0.019012 -0.0180968 0.0018383)
(-0.0171773 -0.0185399 0.00138141)
(-0.0176116 -0.0204294 0.00183693)
(-0.022272 -0.0212455 0.00577367)
(-0.0217361 -0.0204143 0.00473618)
(-0.0198769 -0.0183721 0.00390263)
(-0.0204153 -0.0226051 0.00521984)
(-0.0201947 -0.0246569 0.00623211)
(-0.0194293 -0.0205812 0.00380536)
(-0.0198501 -0.0199867 0.00340689)
(-0.0170048 -0.0217855 0.00440597)
(-0.0168939 -0.00644359 0.00338242)
(-0.0161011 -0.00599547 0.00147686)
(-0.0172726 -0.00545816 0.00240541)
(-0.0164497 -0.00587494 0.00118275)
(-0.0117495 -0.009436 0.00684491)
(-0.0116959 -0.00955588 0.0059425)
(-0.0105697 -0.00898277 0.00482209)
(-0.0103866 -0.00894059 0.00593545)
(-0.011771 -0.00796116 0.00527136)
(-0.0146781 -0.00775781 0.0069495)
(-0.0133251 -0.00757679 0.00709437)
(-0.0125698 -0.00867807 0.0072707)
(-0.0136583 -0.0069629 0.00463275)
(-0.0125163 -0.00714042 0.00387231)
(-0.0152633 -0.00552542 0.00404336)
(-0.0149892 -0.00640947 0.00488644)
(-0.0212622 -0.00906964 0.0106819)
(-0.0206145 -0.00726266 0.00652171)
(-0.0205908 -0.00703271 0.00852143)
(-0.0214833 -0.00717357 0.00834488)
(-0.0164345 -0.0154611 -0.00255574)
(-0.0142082 -0.0202313 0.00143028)
(-0.0124008 -0.0202095 0.0017436)
(-0.0168519 -0.0185701 -4.75908e-05)
(-0.0175512 -0.017618 0.000185574)
(-0.016455 -0.018178 0.000450351)
(-0.0148133 -0.0189599 0.000598404)
(-0.0117365 -0.0206962 0.00166237)
(-0.0145724 -0.0173383 -0.0010075)
(-0.0209448 -0.0155913 0.00225681)
(-0.0210122 -0.0133957 0.00301182)
(-0.0185329 -0.0178647 -0.000176018)
(-0.0190863 -0.0162706 0.000248825)
(-0.0189733 -0.0153395 0.000675083)
(-0.0165105 -0.0177953 -0.000495426)
(-0.0162397 -0.0145706 -0.00116573)
(-0.0182212 -0.0123699 -0.000475773)
(-0.0173972 -0.0136506 -0.00102666)
(-0.0202098 -0.0143637 0.000370407)
(-0.0185324 -0.0144902 -0.000873615)
(-0.0196626 -0.0133175 0.0011633)
(-0.0196109 -0.012403 0.00111773)
(-0.0216634 -0.011415 0.0042382)
(-0.0208475 -0.013401 0.00295299)
(-0.0231158 -0.0109783 0.00708326)
(-0.0231489 -0.0129146 0.004981)
(-0.0228989 -0.0123261 0.00441085)
(-0.0203305 -0.0117564 0.00190564)
(-0.0113212 -0.00516821 -0.00363382)
(-0.0191471 -0.00594752 0.00138027)
(-0.0181928 -0.00579771 0.00191637)
(-0.0132069 -0.00591199 -0.00288221)
(-0.013425 -0.00453589 -0.00219448)
(-0.0159366 -0.00495405 2.88271e-05)
(-0.0129977 -0.00896341 -0.00348468)
(-0.0132626 -0.0093692 -0.0035846)
(-0.0101198 -0.0107925 -0.00422463)
(-0.0119519 -0.0100526 -0.00383188)
(-0.0147224 -0.0151339 -0.00246142)
(-0.0146749 -0.0115677 -0.00251682)
(-0.0122014 -0.0108904 -0.00348968)
(-0.0168329 -0.0153047 0.0216582)
(-0.0148086 -0.0175206 0.0229827)
(-0.0154986 -0.0179209 0.0236915)
(-0.0190399 -0.0124206 0.0211034)
(-0.0155013 -0.0153954 0.0237859)
(-0.0154728 -0.0157636 0.0231405)