# vtk DataFile Version 2.0
Vessel Segment
ASCII
DATASET POLYDATA
POINTS 500 float
4.773571852130917 27.497629276861673 -7.543518793364527
4.622473144503215 27.36616129441036 -7.544042185865336
4.471374436875513 27.23469331195905 -7.544565578366146
4.320275729247809 27.103225329507737 -7.545088970866955
4.169177021620108 26.971757347056425 -7.545612363367764
4.018078313992405 26.840289364605113 -7.546135755868573
3.8669796063647017 26.708821382153804 -7.546659148369382
3.7158808987369993 26.577353399702496 -7.547182540870192
3.564782191109297 26.445885417251183 -7.547705933371001
3.4136834834815946 26.31441743479987 -7.5482293258718105
3.2625847758538917 26.18294945234856 -7.5487527183726195
3.1114860682261893 26.051481469897247 -7.5492761108734285
2.9603873605984865 25.92001348744593 -7.549799503374238
2.8092886529707846 25.788545504994623 -7.550322895875048
2.658189945343082 25.65707752254331 -7.550846288375857
2.50709123771538 25.525609540092002 -7.551369680876666
2.355992530087677 25.39414155764069 -7.551893073377475
2.2048938224599746 25.26267357518938 -7.552416465878284
2.0537951148322717 25.131205592738063 -7.552939858379093
1.9026964072045696 24.999737610286754 -7.553463250879903
1.7515976995768665 24.868269627835442 -7.553986643380712
1.600498991949164 24.736801645384134 -7.554510035881521
1.4494002843214613 24.60533366293282 -7.55503342838233
1.2983015766937587 24.47386568048151 -7.55555682088314
1.1472028690660563 24.342397698030197 -7.556080213383951
0.9961041614383536 24.210929715578885 -7.556603605884759
0.8450054538106511 24.079461733127573 -7.557126998385569
0.6939067461829485 23.947993750676265 -7.557650390886378
0.542808038555246 23.816525768224952 -7.558173783387188
0.39170933092754345 23.68505778577364 -7.558697175887996
0.24061062329984095 23.55358980332233 -7.559220568388806
0.08951191567213834 23.42212182087102 -7.559743960889615
-0.061586791955564255 23.290653838419704 -7.560267353390424
-0.21268549958326685 23.159185855968396 -7.560790745891234
-0.3637842072109698 23.027717873517084 -7.561314138392042
-0.5148829148386728 22.89624989106577 -7.561837530892852
-0.6659816224663757 22.764781908614463 -7.562360923393661
-0.8170803300940783 22.633313926163154 -7.562884315894472
-0.9681790377217808 22.50184594371184 -7.56340770839528
-1.1192777453494833 22.37037796126053 -7.56393110089609
-1.2703764529771866 22.238909978809215 -7.564454493396899
-1.4214751606048897 22.107441996357903 -7.564977885897708
-1.5725738682325923 21.97597401390659 -7.565501278398518
-1.723672575860295 21.844506031455282 -7.566024670899328
-1.8747712834879975 21.71303804900397 -7.566548063400136
-2.0258699911157 21.581570066552658 -7.567071455900946
-2.1769686987434027 21.450102084101346 -7.567594848401754
-2.328067406371105 21.318634101650034 -7.568118240902564
-2.479166113998808 21.18716611919872 -7.568641633403373
-2.6302648216265108 21.05569813674741 -7.569165025904182
-2.781363529254213 20.9242301542961 -7.569688418404992
-2.932462236881916 20.79276217184479 -7.570211810905801
-3.0835609445096184 20.661294189393477 -7.57073520340661
-3.2346596521373208 20.529826206942165 -7.57125859590742
-3.3857583597650236 20.398358224490853 -7.57178198840823
-3.5368570673927264 20.26689024203954 -7.5723053809090395
-3.687955775020429 20.13542225958823 -7.572828773409848
-3.839054482648131 20.003954277136916 -7.573352165910657
-3.990153190275834 19.872486294685604 -7.573875558411466
-4.141251897903537 19.741018312234296 -7.5743989509122756
-4.292350605531239 19.609550329782984 -7.5749223434130855
-4.443449313158942 19.47808234733167 -7.575445735913894
-4.594548020786645 19.34661436488036 -7.5759691284147035
-4.744128060644847 19.213543512597784 -7.573118837655547
-4.891395193137849 19.078031514521086 -7.565130479824357
-5.038662325630851 18.94251951644438 -7.557142121993168
-5.18367397091726 18.80496555744988 -7.54491523651545
-5.327363394854809 18.666214551400014 -7.530203623247841
-5.4710528187923595 18.52746354535015 -7.515492009980233
-5.612124749531447 18.386567066565508 -7.496654422881422
-5.752556807491482 18.245146105195015 -7.476808199602306
-5.892988865451517 18.10372514382452 -7.456961976323191
-6.030727617430828 17.96018834033008 -7.433755944400364
-6.168276106978133 17.816502068015122 -7.410312566491523
-6.3057201361730435 17.67273101978867 -7.3867881961769655
-6.440824365867751 17.527061082358777 -7.361449683117564
-6.575928595562459 17.381391144928884 -7.33611117005816
-6.710738156379027 17.23544482533359 -7.310811565933449
-6.843923608706163 17.08797518700848 -7.285726413811764
-6.9771090610333 16.940505548683376 -7.260641261690077
-7.109911909116206 16.792546418787936 -7.23648740876127
-7.24179447027989 16.643409903392897 -7.214573631519048
-7.3736770314435764 16.494273387997854 -7.192659854276825
-7.505220487666137 16.34440767711472 -7.174273952138826
-7.6364150588187805 16.19379174000955 -7.159517672584108
-7.767609629971421 16.043175802904386 -7.144761393029391
-7.898532011977444 15.891776318969988 -7.139644364706699
-8.029378015049183 15.740156964138759 -7.137232204471109
-8.160081170337854 15.588564208678994 -7.138149216020133
-8.290135923325995 15.437092190785322 -7.154177716159008
-8.42019067631414 15.285620172891646 -7.170206216297886
-8.548405815252316 15.135753564452568 -7.2032023937304075
-8.675825584729155 14.986581065548668 -7.243534660137419
-8.80134476686936 14.839026198897734 -7.292601684669657
-8.92272198787377 14.694996647708317 -7.360704418841735
-9.044099208878178 14.550967096518901 -7.428807153013809
-9.155593482437844 14.4140950036876 -7.523336898337094
-9.26692319495407 14.277342089757369 -7.61830668005178
-9.369830959074445 14.14515586894085 -7.727356671606099
-9.46809798871475 14.015486026662485 -7.844165261553349
-9.562844684710699 13.886868796837073 -7.964633059025667
-9.64671177133436 13.761504671252773 -8.096409656318333
-9.730578857958022 13.636140545668471 -8.228186253611002
-9.803414975922694 13.51086358146547 -8.366254182883178
-9.872642781367865 13.385615128403519 -8.50638005399599
-9.939380089884551 13.259693988879127 -8.646989523296073
-9.993862135492975 13.130462686889658 -8.789978687531407
-10.0483441811014 13.001231384900194 -8.93296785176674
-10.095107727063915 12.86853360788258 -9.075265427818165
-10.13428938565118 12.732430710121523 -9.216883656333014
-10.173471044238445 12.596327812360467 -9.358501884847866
-10.199863627487085 12.454062114021994 -9.496770944903762
-10.2226198859346 12.310044143217322 -9.634087734055942
-10.245271656910514 12.165985627205297 -9.771370757438746
-10.25010535488807 12.015013005097746 -9.90289576089483
-10.254939052865625 11.864040382990199 -10.034420764350912
-10.255995578893419 11.712238089622494 -10.164814462027566
-10.241381806633633 11.556993751174467 -10.290514727884336
-10.226768034373848 11.401749412726435 -10.416214993741107
-10.204993089711934 11.246354095916466 -10.540277665835529
-10.169751278347885 11.090674858351491 -10.661260778373022
-10.134509466983836 10.934995620786516 -10.782243890910511
-10.089461144173125 10.781105471186054 -10.901771169826906
-10.03314376761723 10.629271233979786 -11.019625492217482
-9.976826391061334 10.477436996773516 -11.13747981460806
-9.909289141455725 10.329857553185935 -11.25433098821427
-9.832485143847734 10.18579224029233 -11.37035363845374
-9.755681146239745 10.041726927398726 -11.486376288693204
-9.66771011104404 9.903923393783929 -11.601587190715108
-9.572094850487016 9.770406265726027 -11.716242422868174
-9.476479589929996 9.636889137668128 -11.830897655021237
-9.370877503650123 9.510445059825209 -11.944377968639182
-9.25885055624693 9.38855131324977 -12.057102417618161
-9.146823608843734 9.266657566674333 -12.169826866597145
-9.026278882203181 9.151394212714665 -12.280378307130624
-8.90035026203574 9.040321778346831 -12.389556238703896
-8.774421641868297 8.929249343978999 -12.498734170277165
-8.640767539098292 8.823660516315623 -12.603830290638816
-8.50295286347094 8.721024895123438 -12.706728144068862
-8.365138187843584 8.618389273931252 -12.809625997498909
-8.218851305418607 8.519717281342459 -12.904162698573352
-8.07031866835211 8.422095940318943 -12.996483082558328
-7.920508097160968 8.324596989036623 -13.086592971785183
-7.7617249505360135 8.227957355276219 -13.161182631462806
-7.602941803911062 8.131317721515815 -13.235772291140428
-7.43717822570091 8.032645828886068 -13.287823460337052
-7.269026269166096 7.933278591996527 -13.332163008629077
-7.098306968758871 7.831439645350347 -13.339419039453833
-6.927270820355849 7.7288574460991555 -13.329115109029603
-6.7734423971877815 7.631964050140269 -13.245071014403795
-6.648642325183468 7.549984282946288 -13.119440088529611
-6.549372277062066 7.481494481545579 -12.960755372680108
-6.500686062396655 7.4433074243654325 -12.770265674896308
-6.463703903535344 7.413088076863749 -12.576968497377688
-6.4531370752779535 7.4008513576778805 -12.377335011608306
-6.446302978209417 7.39157866391801 -12.177674580521709
-6.45884739982327 7.39769374366411 -11.977874262498034
-6.471391821437123 7.403808823410212 -11.778073944474354
-6.492825370258807 7.418477240562047 -11.579685123304259
-6.519000753357192 7.437708367588817 -11.382049253915062
-6.545176136455577 7.456939494615587 -11.184413384525865
-6.577898945432285 7.484120537356969 -10.98874767062334
-6.611828256452523 7.512766520631292 -10.793444999642556
-6.645757567472762 7.541412503905614 -10.598142328661774
-6.682912576893689 7.575186670293075 -10.404272084185074
-6.720738695809533 7.610027759855425 -10.210699857349294
-6.758564814725377 7.644868849417776 -10.017127630513516
-6.797202231371391 7.681698140765057 -9.824089949045678
-6.836192648157178 7.719392509730431 -9.631284851230642
-6.8751830649429655 7.7570868786958025 -9.438479753415615
-6.913644071574918 7.794189979114211 -9.245455251953024
-6.951654900162059 7.830790300890197 -9.052244183035366
-6.989665728749201 7.867390622666182 -8.859033114117704
-7.026402964727723 7.9013634703489934 -8.665127275726956
[...]
POINT_DATA 500
SCALARS MaximumInscribedSphereRadius float
LOOKUP_TABLE default
1.5
1.5
1.5
1.5
1.5
1.5
1.5
1.5
1.5
1.5
1.5
1.5
1.5
1.5
1.5
1.5
1.5
1.5
1.5
1.5
1.5
1.5
1.5
1.5
1.5
1.5
1.5
1.5
1.5
1.5
1.5
1.5
1.5
1.5
1.5
1.5
1.5
1.5
1.5
1.5
1.5
1.5
1.5
1.5
1.5
1.5
1.5
1.5
1.5
1.5
1.5
1.5
1.5
1.5
1.5
1.5
1.5
1.5
1.5
1.5
1.5
1.5
1.5
1.5
1.5
1.5
1.5
1.5
1.5
1.5
1.5
1.5
1.5
1.5
1.5
1.5
1.5
1.5
1.5
1.5
1.5
1.5
1.5
1.5
1.5
1.5
1.5
1.5
1.5
1.5
1.5
1.5
1.5
1.5
1.5
1.5
1.5
1.5
1.5
1.5
1.5
1.5
1.5
1.5
1.5
1.5
1.5
1.5
1.5
1.5
1.5
1.5
1.5
1.5
1.5
1.5
1.5
1.5
1.5
1.5
1.5
1.5
1.5
1.5
1.5
1.5
1.5
1.5
1.5
1.5
1.5
1.5
1.5
1.5
1.5
1.5
1.5
1.5
1.5
1.5
1.5
1.5
1.5
1.5
1.5
1.5
1.5
1.5
1.5
1.5
1.5
1.5
1.5
1.5
1.5
1.5
1.5
1.5
1.5
1.5
1.5
1.5
1.5
1.5
1.5
1.5
1.5
1.5
1.5
1.5
1.5
1.5
1.5
1.5
1.5
1.5
1.5
1.5
1.5
1.5
1.5
1.5
1.5
1.5
1.5
1.5
1.5
1.5
1.5
1.5
1.5
1.5
1.5
1.5
1.5
1.5
1.5
1.5
1.5
1.5
1.5
1.5
1.5
1.5
1.5
1.5
1.5
1.5
1.5
1.5
1.5
1.5
1.5
1.5
1.5
1.5
1.5
1.5
1.5
1.5
1.5
1.5
1.5
1.5
1.5
1.5
1.5
1.5
1.5
1.5
1.5
1.5
1.5
1.5
1.5
1.5
1.5
1.5
1.5
1.5
1.5
1.5
1.5
1.5
1.5
1.5
1.5
1.5
1.5
1.5
1.5
1.5
1.5
1.5
1.5
1.5
1.5
1.5
1.5
1.5
1.5
1.5
1.5
1.5
1.5
1.5
1.5
1.5
1.5
1.5
1.5
1.5
1.5
1.5
1.5
1.5
1.5
1.5
1.5
1.5
1.5
1.5
1.5
1.5
1.5
1.5
1.5
1.5
1.5
1.5
1.5
1.5
1.5
1.5
1.5
1.5
1.5
1.5
1.5
1.5
1.5
1.5
1.5
1.5
1.5
1.5
1.5
1.5
1.5
1.5
1.5
1.5
1.5
1.5
1.5
1.5
1.5
1.5
1.5
1.5
1.5
1.5
1.5
1.5
1.5
1.5
1.5
1.5
1.5
1.5
1.5
1.5
1.5
1.5
1.5
1.5
1.5
1.5
1.5
1.5
1.5
1.5
1.5
1.5
1.5
1.5
1.5
1.5
1.5
1.5
1.5
1.5
1.5
1.5
1.5
1.5
1.5
1.5
1.5
1.5
1.5
1.5
1.5
1.5
1.5
1.5
1.5
1.5
1.5
1.5
1.5
1.5
1.5
1.5
1.5
1.5
1.5
1.5
1.5
1.5
1.5
1.5
1.5
1.5
1.5
1.5
1.5
1.5
1.5
1.5
1.5
1.5
1.5
1.5
1.5
1.5
1.5
1.5
1.5
1.5
1.5
1.5
1.5
1.5
1.5
1.5
1.5
1.5
1.5
1.5
1.5
1.5
1.5
1.5
1.5
1.5
1.5
1.5
1.5
1.5
1.5
1.5
1.5
1.5
1.5
1.5
1.5
1.5
1.5
1.5
1.5
1.5
1.5
1.5
1.5
1.5
1.5
1.5
1.5
1.5
1.5
1.5
1.5
1.5
1.5
1.5
1.5
1.5
1.5
1.5
1.5
1.5
1.5
1.5
1.5
1.5
1.5
1.5
1.5
1.5
1.5
1.5
1.5
1.5
1.5
1.5
1.5
1.5
1.5
1.5
1.5
1.5
1.5
1.5
1.5
1.5
1.5
1.5
1.5
1.5
1.5
1.5
1.5
1.5
1.5
1.5
1.5
1.5
1.5
1.5
1.5
1.5
1.5
1.5
1.5
1.5
1.5
1.5
1.5
1.5
