# vtk DataFile Version 2.0
Vessel Segment
ASCII
DATASET POLYDATA
POINTS 500 float
7.927700315574843 25.263063237650766 -1.0697109648335985
7.781433412591296 25.134145148674655 -1.1317189557640608
7.635166509607747 25.00522705969855 -1.193726946694523
7.488899606624199 24.876308970722445 -1.2557349376249856
7.342632703640652 24.74739088174634 -1.3177429285554476
7.196365800657102 24.61847279277023 -1.3797509194859097
7.0500988976735535 24.489554703794127 -1.4417589104163717
6.903831994690005 24.36063661481802 -1.5037669013468338
6.757565091706457 24.231718525841913 -1.5657748922772958
6.61129818872291 24.10280043686581 -1.627782883207758
6.465031285739361 23.9738823478897 -1.68979087413822
6.318764382755813 23.844964258913592 -1.7517988650686822
6.172497479772265 23.71604616993749 -1.8138068559991445
6.026230576788716 23.58712808096138 -1.875814846929606
5.879963673805168 23.458209991985278 -1.9378228378600686
5.73369677082162 23.329291903009167 -1.9998308287905306
5.587429867838072 23.200373814033064 -2.061838819720993
5.441162964854524 23.071455725056957 -2.1238468106514548
5.2948960618709755 22.942537636080854 -2.1858548015819173
5.148629158887427 22.813619547104743 -2.2478627925123793
5.002362255903879 22.684701458128636 -2.309870783442841
4.856095352920331 22.55578336915253 -2.3718787743733034
4.709828449936783 22.426865280176422 -2.4338867653037655
4.563561546953235 22.297947191200315 -2.4958947562342275
4.417294643969687 22.16902910222421 -2.5579027471646896
4.271027740986139 22.0401110132481 -2.619910738095151
4.124760838002591 21.911192924271994 -2.6819187290256132
3.9784939350190425 21.782274835295887 -2.7439267199560753
3.832227032035494 21.653356746319783 -2.805934710886538
3.6859601290519457 21.524438657343676 -2.867942701817
3.5396932260683975 21.395520568367573 -2.929950692747462
3.3934263230848494 21.266602479391466 -2.991958683677924
3.2471594201013017 21.13768439041536 -3.053966674608386
3.100892517117753 21.008766301439252 -3.1159746655388485
2.954625614134205 20.879848212463145 -3.17798265646931
2.8083587111506567 20.750930123487038 -3.2399906473997726
2.6620918081671086 20.62201203451093 -3.301998638330234
2.5158249051835595 20.493093945534824 -3.3640066292606967
2.3695580022000113 20.364175856558717 -3.4260146201911588
2.223291099216463 20.23525776758261 -3.488022611121621
2.0770241962329155 20.106339678606506 -3.550030602052083
1.9307572932493666 19.9774215896304 -3.6120385929825454
1.7844903902658178 19.848503500654292 -3.6740465839130083
1.63822348728227 19.71958541167819 -3.7360545748434695
1.4919565842987212 19.590667322702078 -3.798062565773932
1.3456896813151737 19.461749233725975 -3.860070556704394
1.199422778331625 19.332831144749868 -3.922078547634856
1.0531558753480772 19.20391305577376 -3.984086538565318
0.9068889723645284 19.074994966797654 -4.046094529495781
0.7606220693809794 18.946076877821547 -4.108102520426243
0.6143551663974317 18.817158788845443 -4.170110511356705
0.46808826341388293 18.688240699869333 -4.232118502287167
0.3218213604303354 18.55932261089323 -4.29412649321763
0.17555445744678655 18.430404521917122 -4.356134484148091
0.02928755446323894 18.301486432941015 -4.418142475078553
-0.11697934852030996 18.172568343964908 -4.4801504660090155
-0.26324625150385883 18.0436502549888 -4.542158456939478
-0.4095131544874064 17.914732166012694 -4.60416644786994
-0.5557800574709553 17.785814077036587 -4.666174438800402
-0.7020469604545029 17.65689598806048 -4.728182429730864
-0.8483138634380518 17.527977899084377 -4.790190420661326
-0.9945807664215995 17.39905981010827 -4.852198411591788
-1.1412612119712766 17.269166555773655 -4.910348129291385
-1.2902684772218382 17.133786480604517 -4.946789063179381
-1.439275742472401 16.99840640543538 -4.983229997067376
-1.5882862728245897 16.863005707717043 -5.019546774481267
-1.7378068534111377 16.724383506580235 -5.036468737899545
-1.887327433997687 16.585761305443423 -5.053390701317822
-2.036848014584235 16.447139104306615 -5.0703126647360985
-2.186104437454279 16.30735693129012 -5.075550180176
-2.33533231867733 16.16744942592162 -5.079525217298427
-2.4845601999003826 16.027541920553123 -5.083500254420852
-2.633661329094665 15.887465838994386 -5.082167906021118
-2.7827416075845446 15.747362026658113 -5.079962492884259
-2.9318218860744247 15.607258214321837 -5.077757079747399
-3.081329594735128 15.467599104144504 -5.076523306868947
-3.230878387323451 15.327982738051602 -5.075382926550898
-3.3805323554693603 15.188504275980634 -5.075211171145924
-3.5310868093767045 15.050206512268113 -5.0833325302477235
-3.6816412632840474 14.911908748555593 -5.091453889349522
-3.832451287717793 14.774972182039239 -5.108110839132952
-3.983555697318008 14.639603543831463 -5.1345997179696425
-4.134660106918224 14.504234905623683 -5.161088596806332
-4.283857313196059 14.3746484701392 -5.214006487524408
-4.433038657142838 14.245110125601677 -5.267144190011379
-4.578160811763743 14.121424338488902 -5.339672686628191
-4.7210012128736505 14.00102839384963 -5.423101146029409
-4.860537575935142 13.883980556368533 -5.515209769185072
-4.993149372583508 13.77394964485357 -5.625510183571242
-5.125761169231875 13.663918733338605 -5.735810597957414
-5.247845211868821 13.56130376542128 -5.863855024606673
-5.369290790464131 13.459138543320279 -5.992975551036773
-5.4865877915617185 13.358210693426987 -6.126624568661976
-5.598410198058459 13.258915719190787 -6.266249527066957
-5.710232604555197 13.159620744954587 -6.405874485471935
-5.81619218589202 13.058427284655295 -6.548621679279226
-5.9203630324371 12.956654600521066 -6.692321460097006
-6.024533878982179 12.854881916386839 -6.836021240914788
-6.122271264522766 12.746500964075398 -6.979397603738456
-6.219777282377695 12.637882357457315 -7.122762335424116
-6.316807803925812 12.528622343922812 -7.265928689015682
-6.407098414555529 12.41027072354061 -7.406283137103022
-6.497389025185246 12.291919103158408 -7.546637585190364
-6.586640676296233 12.172334412756134 -7.6865309729512505
-6.667633710668508 12.042948134780683 -7.822759424339767
-6.748626745040783 11.913561856805233 -7.958987875728285
-6.827769178254735 11.782590463628948 -8.094653230579986
-6.8960369968774495 11.642304520521549 -8.227009683463278
-6.964304815500161 11.502018577414152 -8.359366136346566
-7.029032072287086 11.359809124998637 -8.491206334260166
-7.080052008919536 11.210152787278098 -8.621047845954152
-7.131071945551986 11.060496449557562 -8.750889357648138
-7.174854979989974 10.908806535756252 -8.880552849166165
-7.203346738564178 10.752819759567494 -9.009840191394506
-7.231838497138382 10.596832983378732 -9.139127533622853
-7.2462644930320845 10.4400573337311 -9.269047958434061
-7.24705106175519 10.282516721504932 -9.399582276994089
-7.247837630478295 10.124976109278764 -9.530116595554114
-7.225159140446056 9.97095047405468 -9.662164811207195
-7.194845296317968 9.818068585979471 -9.794705637617852
-7.163850355023494 9.665421954454462 -9.927273345958714
-7.102735970156916 9.52317882589257 -10.061029825623017
-7.041621585290338 9.38093569733068 -10.194786305287318
-6.973889854104755 9.24217463963441 -10.328386700415892
-6.886333051472974 9.113845604136136 -10.461519478024808
-6.798776248841193 8.985516568637863 -10.594652255633722
-6.703571596188301 8.862231043266519 -10.72678062147617
-6.595966227379059 8.747123389760208 -10.857280369447503
-6.488360858569818 8.632015736253901 -10.987780117418836
-6.375280042095316 8.52054173700122 -11.116515551339997
-6.253644158911474 8.41474510998163 -11.242494347755294
-6.1320082757276335 8.308948482962041 -11.36847314417059
-6.007474022250532 8.204272228750614 -11.492411290856918
-5.8761638870321065 8.102215209794247 -11.611578756146487
-5.744853751813681 8.000158190837876 -11.730746221436057
-5.6122905888228205 7.897671058158625 -11.848041831458293
-5.474007384493351 7.793220466784104 -11.956792467662272
-5.335724180163884 7.688769875409583 -12.06554310386625
-5.196753581325048 7.583200484566063 -12.172119503794583
-5.053242045816534 7.470240290529387 -12.264332871871385
-4.909730510308021 7.357280096492713 -12.356546239948182
-4.765402521314885 7.240746031527228 -12.441832021638827
-4.618755972711366 7.114062909763852 -12.507444885894582
-4.472109424107846 6.987379788000478 -12.57305775015034
-4.3266322407202855 6.850537664834722 -12.612040606038896
-4.181801483743295 6.708079634233087 -12.636302363260048
-4.040564468725992 6.562721253911901 -12.643721061504962
-3.9078916825464347 6.410451064399535 -12.611001148514498
-3.7788531769905567 6.259011956224363 -12.569491496886984
-3.6717850791646356 6.1125970048839715 -12.474845018004721
-3.5660441180690263 5.9670691889087975 -12.378189130938088
-3.4919429349947073 5.842691240456123 -12.233627683385247
-3.4178417519203883 5.718313292003448 -12.089066235832407
-3.3702246901770074 5.619086290460157 -11.917638428328278
-3.3272196039120976 5.5242391038617145 -11.741532081870833
-3.2970334887155914 5.444555806890322 -11.556758068152252
-3.2793224641825933 5.379629614596011 -11.363548905126695
-3.2617705352590747 5.314928533417228 -11.170274906789642
-3.2635286342689844 5.277550028538294 -10.969131604704364
-3.2652867332788946 5.2401715236593605 -10.767988302619084
-3.2727774575567516 5.212407911569373 -10.56589437670712
-3.288897472019965 5.199117546220419 -10.36236948182819
-3.3050174864831776 5.185827180871464 -10.15884458694926
-3.3282402481358613 5.187012082756923 -9.955807437814693
-3.354031125198964 5.19343075628918 -9.752946641199662
-3.3801538138007223 5.200747815255271 -9.550192440785349
-3.411161890752714 5.2212921469987394 -9.349007697055022
-3.442169967704706 5.241836478742209 -9.147822953324697
-3.4736578786066423 5.265392923950027 -8.947075465527266
-3.5057989103796245 5.293049275322785 -8.746923143986404
-3.5379399421526054 5.320705626695542 -8.546770822445549
-3.568180208070459 5.347661236732162 -8.34622916085182
-3.598047567432924 5.374479370057923 -8.145611115595372
-3.626482428395968 5.398568206889326 -7.944495090804643
[...]
POINT_DATA 500
SCALARS MaximumInscribedSphereRadius float
LOOKUP_TABLE default
1.5
1.5
1.5
1.5
1.5
1.5
1.5
1.5
1.5
1.5
1.5
1.5
1.5
1.5
1.5
1.5
1.5
1.5
1.5
1.5
1.5
1.5
1.5
1.5
1.5
1.5
1.5
1.5
1.5
1.5
1.5
1.5
1.5
1.5
1.5
1.5
1.5
1.5
1.5
1.5
1.5
1.5
1.5
1.5
1.5
1.5
1.5
1.5
1.5
1.5
1.5
1.5
1.5
1.5
1.5
1.5
1.5
1.5
1.5
1.5
1.5
1.5
1.5
1.5
1.5
1.5
1.5
1.5
1.5
1.5
1.5
1.5
1.5
1.5
1.5
1.5
1.5
1.5
1.5
1.5
1.5
1.5
1.5
1.5
1.5
1.5
1.5
1.5
1.5
1.5
1.5
1.5
1.5
1.5
1.5
1.5
1.5
1.5
1.5
1.5
1.5
1.5
1.5
1.5
1.5
1.5
1.5
1.5
1.5
1.5
1.5
1.5
1.5
1.5
1.5
1.5
1.5
1.5
1.5
1.5
1.5
1.5
1.5
1.5
1.5
1.5
1.5
1.5
1.5
1.5
1.5
1.5
1.5
1.5
1.5
1.5
1.5
1.5
1.5
1.5
1.5
1.5
1.5
1.5
1.5
1.5
1.5
1.5
1.5
1.5
1.5
1.5
1.5
1.5
1.5
1.5
1.5
1.5
1.5
1.5
1.5
1.5
1.5
1.5
1.5
1.5
1.5
1.5
1.5
1.5
1.5
1.5
1.5
1.5
1.5
1.5
1.5
1.5
1.5
1.5
1.5
1.5
1.5
1.5
1.5
1.5
1.5
1.5
1.5
1.5
1.5
1.5
1.5
1.5
1.5
1.5
1.5
1.5
1.5
1.5
1.5
1.5
1.5
1.5
1.5
1.5
1.5
1.5
1.5
1.5
1.5
1.5
1.5
1.5
1.5
1.5
1.5
1.5
1.5
1.5
1.5
1.5
1.5
1.5
1.5
1.5
1.5
1.5
1.5
1.5
1.5
1.5
1.5
1.5
1.5
1.5
1.5
1.5
1.5
1.5
1.5
1.5
1.5
1.5
1.5
1.5
1.5
1.5
1.5
1.5
1.5
1.5
1.5
1.5
1.5
1.5
1.5
1.5
1.5
1.5
1.5
1.5
1.5
1.5
1.5
1.5
1.5
1.5
1.5
1.5
1.5
1.5
1.5
1.5
1.5
1.5
1.5
1.5
1.5
1.5
1.5
1.5
1.5
1.5
1.5
1.5
1.5
1.5
1.5
1.5
1.5
1.5
1.5
1.5
1.5
1.5
1.5
1.5
1.5
1.5
1.5
1.5
1.5
1.5
1.5
1.5
1.5
1.5
1.5
1.5
1.5
1.5
1.5
1.5
1.5
1.5
1.5
1.5
1.5
1.5
1.5
1.5
1.5
1.5
1.5
1.5
1.5
1.5
1.5
1.5
1.5
1.5
1.5
1.5
1.5
1.5
1.5
1.5
1.5
1.5
1.5
1.5
1.5
1.5
1.5
1.5
1.5
1.5
1.5
1.5
1.5
1.5
1.5
1.5
1.5
1.5
1.5
1.5
1.5
1.5
1.5
1.5
1.5
1.5
1.5
1.5
1.5
1.5
1.5
1.5
1.5
1.5
1.5
1.5
1.5
1.5
1.5
1.5
1.5
1.5
1.5
1.5
1.5
1.5
1.5
1.5
1.5
1.5
1.5
1.5
1.5
1.5
1.5
1.5
1.5
1.5
1.5
1.5
1.5
1.5
1.5
1.5
1.5
1.5
1.5
1.5
1.5
1.5
1.5
1.5
1.5
1.5
1.5
1.5
1.5
1.5
1.5
1.5
1.5
1.5
1.5
1.5
1.5
1.5
1.5
1.5
1.5
1.5
1.5
1.5
1.5
1.5
1.5
1.5
1.5
1.5
1.5
1.5
1.5
1.5
1.5
1.5
1.5
1.5
1.5
1.5
1.5
1.5
1.5
1.5
1.5
1.5
1.5
1.5
1.5
1.5
1.5
1.5
1.5
1.5
1.5
1.5
1.5
1.5
1.5
1.5
1.5
1.5
1.5
1.5
1.5
1.5
1.5
1.5
1.5
1.5
1.5
1.5
1.5
1.5
1.5
1.5
1.5
1.5
1.5
1.5
1.5
1.5
1.5
1.5
1.5
1.5
1.5
1.5
1.5
1.5
1.5
1.5
1.5
1.5
