# vtk DataFile Version 2.0
Vessel Segment
ASCII
DATASET POLYDATA
POINTS 500 float
1.769444752862292 30.282813438851605 -3.4673459356989076
1.667695501009121 30.07937719553366 -3.4959940649962986
1.56594624915595 29.875940952215718 -3.5246421942936896
1.4641969973027795 29.672504708897776 -3.553290323591081
1.3624477454496093 29.46906846557983 -3.5819384528884717
1.260698493596439 29.265632222261885 -3.6105865821858627
1.1589492417432687 29.062195978943944 -3.6392347114832537
1.0571999898900981 28.858759735626002 -3.6678828407806447
0.9554507380369277 28.655323492308057 -3.6965309700780358
0.8537014861837573 28.45188724899011 -3.7251790993754264
0.7519522343305869 28.24845100567217 -3.753827228672818
0.6502029824774165 28.045014762354228 -3.782475357970209
0.548453730624246 27.841578519036283 -3.8111234872676
0.44670447877107555 27.63814227571834 -3.839771616564991
0.3449552269179052 27.4347060324004 -3.868419745862382
0.2432059750647346 27.231269789082454 -3.897067875159773
0.1414567232115642 27.027833545764512 -3.9257160044571635
0.0397074713583937 26.824397302446563 -3.9543641337545545
-0.06204178049477696 26.62096105912862 -3.983012263051946
-0.16379103234794729 26.417524815810676 -4.011660392349336
-0.2655402842011181 26.214088572492734 -4.040308521646728
-0.3672895360542888 26.010652329174793 -4.068956650944119
-0.4690387879074591 25.80721608585685 -4.09760478024151
-0.57078803976063 25.603779842538906 -4.126252909538901
-0.6725372916138006 25.40034359922096 -4.154901038836291
-0.7742865434669708 25.19690735590302 -4.183549168133682
-0.8760357953201414 24.993471112585073 -4.212197297431073
-0.9777850471733116 24.79003486926713 -4.240845426728465
-1.0795342990264813 24.586598625949186 -4.269493556025855
-1.1812835508796518 24.383162382631244 -4.298141685323246
-1.2830328027328228 24.179726139313303 -4.326789814620637
-1.3847820545859937 23.976289895995357 -4.355437943918028
-1.4865313064391645 23.772853652677416 -4.384086073215419
-1.5882805582923352 23.56941740935947 -4.4127342025128105
-1.6900298101455054 23.36598116604153 -4.441382331810202
-1.791779061998675 23.162544922723583 -4.4700304611075925
-1.8935283138518457 22.959108679405638 -4.4986785904049835
-1.995277565705016 22.755672436087696 -4.5273267197023745
-2.097026817558186 22.552236192769755 -4.555974848999766
-2.198776069411357 22.34879994945181 -4.584622978297156
-2.3005253212645274 22.145363706133864 -4.613271107594548
-2.4022745731176975 21.941927462815922 -4.641919236891939
-2.504023824970869 21.738491219497977 -4.67056736618933
-2.6057730768240392 21.535054976180035 -4.699215495486721
-2.7075223286772094 21.331618732862093 -4.727863624784112
-2.809271580530381 21.128182489544148 -4.756511754081503
-2.911020832383551 20.924746246226206 -4.785159883378894
-3.012770084236721 20.72131000290826 -4.813808012676285
-3.114519336089892 20.517873759590316 -4.842456141973676
-3.216268587943062 20.314437516272374 -4.871104271271067
-3.3180178397962328 20.111001272954432 -4.899752400568458
-3.419767091649404 19.907565029636487 -4.928400529865849
-3.521516343502574 19.704128786318545 -4.95704865916324
-3.623265595355744 19.5006925430006 -4.985696788460631
-3.7250148472089153 19.297256299682658 -5.014344917758022
-3.8267640990620855 19.093820056364713 -5.042993047055413
-3.942014707580951 18.89693345480238 -5.056662354729774
-4.06705742273774 18.704797101092844 -5.05946799719812
-4.192100137894527 18.512660747383308 -5.062273639666467
-4.324576802982297 18.326418332374303 -5.052755622788296
-4.464215703736889 18.14585442991527 -5.031364381939449
-4.603854604491478 17.965290527456244 -5.009973141090603
-4.746357763259383 17.788691120943874 -4.979723223281121
-4.893067140049119 17.617913653035068 -4.936464167849198
-5.039776516838856 17.447136185126265 -4.893205112417275
-5.186753037189916 17.278152910421117 -4.8450146028771375
-5.334505169410242 17.11437881065398 -4.782506344782311
-5.482257301630566 16.950604710886843 -4.719998086687485
-5.629753273986431 16.78712525988225 -4.656283970683441
-5.774084287020765 16.62728631419076 -4.57767098971366
-5.918415300055096 16.467447368499275 -4.499058008743879
-6.062746313089431 16.30760842280779 -4.420445027774097
-6.201628794917953 16.148582121532108 -4.331198309026009
-6.339856130781845 15.989653534794456 -4.2406729612068474
-6.478083466645737 15.830724948056801 -4.150147613387686
-6.6112027333954355 15.670224193853315 -4.054948534050088
-6.742717396649445 15.509229572915629 -3.958281290174239
-6.8742320599034565 15.348234951977942 -3.861614046298389
-7.001870604392679 15.183302039858333 -3.7664577202749374
-7.1282405384585275 15.017080168976921 -3.6717959008062975
-7.254610472524376 14.85085829809551 -3.577134081337658
-7.379378011446871 14.676392805365202 -3.4962362093601715
-7.50408195260329 14.501600129957065 -3.4158846173164603
-7.629869471661463 14.321832003849334 -3.351857791472437
-7.756847989489517 14.136595184024948 -3.3057740931423645
-7.884425929396272 13.950096800423786 -3.281226432159838
-8.013161608839324 13.761161799430926 -3.2982740389831204
-8.137245274343854 13.581581215853829 -3.354522981575802
-8.256382540810218 13.411947008603086 -3.452453968140685
-8.361762705971124 13.267242888292143 -3.591498595515348
-8.460639936988512 13.134323133739803 -3.7499774985160856
-8.548192478432142 13.020987173800767 -3.927686790120325
-8.629722216051764 12.918066453265634 -4.115623369392276
-8.70872145219536 12.81923930332779 -4.306572067628134
-8.780589257168405 12.731948608607603 -4.506009486092825
-8.85245706214145 12.64465791388741 -4.705446904557519
-8.922459144569029 12.559378769082409 -4.9063884893516665
-8.990634323872357 12.476069320593492 -5.108802943824831
-9.058809503175686 12.392759872104575 -5.311217398297995
-9.12678163222687 12.307581912965148 -5.51290945334792
-9.194515848681817 12.220214632634239 -5.713755077918265
-9.262250065136765 12.132847352303326 -5.914600702488611
-9.330019092883912 12.04335700981692 -6.114451639793515
-9.397904438805535 11.946772684355091 -6.310978936992715
-9.465789784727157 11.850188358893266 -6.507506234191917
-9.533675130648781 11.75360403343144 -6.704033531391119
-9.59985844288341 11.64600617648085 -6.895313890919826
-9.66588217995454 11.537375739445947 -7.086102320739368
-9.731905917025669 11.428745302411045 -7.27689075055891
-9.79412957271727 11.312379044715435 -7.464211538448271
-9.853801123681926 11.190817470787561 -7.649203485326744
-9.913472674646584 11.06925589685969 -7.834195432205218
-9.968515487368414 10.94337629491768 -8.01751550271527
-10.015103619121174 10.809609543744106 -8.197781786086544
-10.061691750873933 10.675842792570531 -8.378048069457817
-10.10320749363298 10.539765075918258 -8.557537348310639
-10.128255759411491 10.396184825278457 -8.734504087185316
-10.153304025190002 10.252604574638653 -8.911470826059993
-10.170177645621488 10.10757434055948 -9.087692390579772
-10.165003244985922 9.95863332331345 -9.261904128473688
-10.159828844350352 9.809692306067419 -9.436115866367604
-10.138753760918961 9.661181442156089 -9.608565550140304
-10.097725257386077 9.513210368284312 -9.778804070620605
-10.056696753853194 9.365239294412534 -9.949042591100909
-9.991480440038025 9.222201924214751 -10.115079540074179
-9.915509405817648 9.081358245920311 -10.279248327924421
-9.839538371597273 8.940514567625875 -10.443417115774661
-9.738060421977192 8.808870265377319 -10.601120760883722
-9.634563845051032 8.677954005363354 -10.758312752056174
-9.52991592023006 8.547599143124692 -10.915127036056871
-9.408720030558325 8.425313076334328 -11.066512652466937
-9.287524140886589 8.303027009543964 -11.217898268877004
-9.165749053556775 8.181050748846372 -11.369044613574413
-9.035282959618923 8.063723206530094 -11.516600626013277
-8.90481686568107 7.9463956642138145 -11.664156638452143
-8.774350771743219 7.829068121897536 -11.811712650891009
-8.64041170346449 7.712521398837861 -11.956748298430794
-8.506147868031439 7.596047692283096 -12.101548259882577
-8.371884032598384 7.479573985728329 -12.246348221334365
-8.236592938573938 7.361480495674339 -12.388844733900417
-8.100739094187109 7.242499659669869 -12.530079376567265
-7.964885249800275 7.123518823665393 -12.67131401923412
-7.828345677956375 7.003039109564362 -12.810548020074792
-7.690233749535758 6.879122504015385 -12.94519459729603
-7.552121821115142 6.755205898466407 -13.079841174517266
-7.414009892694525 6.63128929291743 -13.214487751738503
-7.271056788323961 6.50122696861003 -13.337769139496636
-7.1278536625750615 6.3708472501218045 -13.460463574753144
-6.98465053682616 6.2404675316335805 -13.58315801000965
-6.8355006198794115 6.105477340492273 -13.692585231216693
-6.683345492237441 5.968157247179173 -13.79530786633172
-6.5311903645954725 5.830837153866071 -13.898030501446744
-6.372741481768397 5.69048839679939 -13.98445053068555
-6.208536503338705 5.547369707061186 -14.055960644423148
-6.044331524909019 5.404251017322988 -14.127470758160745
-5.8733388963024185 5.260197118743675 -14.17260819850527
-5.697477783637828 5.115472435840602 -14.198829675794205
-5.521616670973236 4.9707477529375295 -14.225051153083138
-5.3417727921399605 4.832109769430785 -14.201307055638383
-5.161254299541338 4.694502770677948 -14.169099628165908
-4.983333878991957 4.562350115033312 -14.118715082572674
-4.811795761268698 4.443596344706075 -14.023677474957244
-4.640257643545439 4.324842574378837 -13.928639867341815
-4.486455509407655 4.228180782542358 -13.791374055706173
-4.337587854782503 4.137665388774575 -13.642359574672595
-4.195458364807653 4.054352693722758 -13.484757836246674
-4.076173561922356 3.9954596154220865 -13.298042352718593
-3.9568887590370583 3.936566537121415 -13.111326869190515
-3.854331913074366 3.894832851146775 -12.911993810715304
-3.764698503196551 3.8663559132022023 -12.702912853908582
-3.6750650933187363 3.837878975257629 -12.493831897101861
-3.606073395280389 3.830936877555758 -12.275906707654377
-3.5426362342121034 3.8297896512871623 -12.05560159848139
[...]
POINT_DATA 500
SCALARS MaximumInscribedSphereRadius float
LOOKUP_TABLE default
1.5
1.5
1.5
1.5
1.5
1.5
1.5
1.5
1.5
1.5
1.5
1.5
1.5
1.5
1.5
1.5
1.5
1.5
1.5
1.5
1.5
1.5
1.5
1.5
1.5
1.5
1.5
1.5
1.5
1.5
1.5
1.5
1.5
1.5
1.5
1.5
1.5
1.5
1.5
1.5
1.5
1.5
1.5
1.5
1.5
1.5
1.5
1.5
1.5
1.5
1.5
1.5
1.5
1.5
1.5
1.5
1.5
1.5
1.5
1.5
1.5
1.5
1.5
1.5
1.5
1.5
1.5
1.5
1.5
1.5
1.5
1.5
1.5
1.5
1.5
1.5
1.5
1.5
1.5
1.5
1.5
1.5
1.5
1.5
1.5
1.5
1.5
1.5
1.5
1.5
1.5
1.5
1.5
1.5
1.5
1.5
1.5
1.5
1.5
1.5
1.5
1.5
1.5
1.5
1.5
1.5
1.5
1.5
1.5
1.5
1.5
1.5
1.5
1.5
1.5
1.5
1.5
1.5
1.5
1.5
1.5
1.5
1.5
1.5
1.5
1.5
1.5
1.5
1.5
1.5
1.5
1.5
1.5
1.5
1.5
1.5
1.5
1.5
1.5
1.5
1.5
1.5
1.5
1.5
1.5
1.5
1.5
1.5
1.5
1.5
1.5
1.5
1.5
1.5
1.5
1.5
1.5
1.5
1.5
1.5
1.5
1.5
1.5
1.5
1.5
1.5
1.5
1.5
1.5
1.5
1.5
1.5
1.5
1.5
1.5
1.5
1.5
1.5
1.5
1.5
1.5
1.5
1.5
1.5
1.5
1.5
1.5
1.5
1.5
1.5
1.5
1.5
1.5
1.5
1.5
1.5
1.5
1.5
1.5
1.5
1.5
1.5
1.5
1.5
1.5
1.5
1.5
1.5
1.5
1.5
1.5
1.5
1.5
1.5
1.5
1.5
1.5
1.5
1.5
1.5
1.5
1.5
1.5
1.5
1.5
1.5
1.5
1.5
1.5
1.5
1.5
1.5
1.5
1.5
1.5
1.5
1.5
1.5
1.5
1.5
1.5
1.5
1.5
1.5
1.5
1.5
1.5
1.5
1.5
1.5
1.5
1.5
1.5
1.5
1.5
1.5
1.5
1.5
1.5
1.5
1.5
1.5
1.5
1.5
1.5
1.5
1.5
1.5
1.5
1.5
1.5
1.5
1.5
1.5
1.5
1.5
1.5
1.5
1.5
1.5
1.5
1.5
1.5
1.5
1.5
1.5
1.5
1.5
1.5
1.5
1.5
1.5
1.5
1.5
1.5
1.5
1.5
1.5
1.5
1.5
1.5
1.5
1.5
1.5
1.5
1.5
1.5
1.5
1.5
1.5
1.5
1.5
1.5
1.5
1.5
1.5
1.5
1.5
1.5
1.5
1.5
1.5
1.5
1.5
1.5
1.5
1.5
1.5
1.5
1.5
1.5
1.5
1.5
1.5
1.5
1.5
1.5
1.5
1.5
1.5
1.5
1.5
1.5
1.5
1.5
1.5
1.5
1.5
1.5
1.5
1.5
1.5
1.5
1.5
1.5
1.5
1.5
1.5
1.5
1.5
1.5
1.5
1.5
1.5
1.5
1.5
1.5
1.5
1.5
1.5
1.5
1.5
1.5
1.5
1.5
1.5
1.5
1.5
1.5
1.5
1.5
1.5
1.5
1.5
1.5
1.5
1.5
1.5
1.5
1.5
1.5
1.5
1.5
1.5
1.5
1.5
1.5
1.5
1.5
1.5
1.5
1.5
1.5
1.5
1.5
1.5
1.5
1.5
1.5
1.5
1.5
1.5
1.5
1.5
1.5
1.5
1.5
1.5
1.5
1.5
1.5
1.5
1.5
1.5
1.5
1.5
1.5
1.5
1.5
1.5
1.5
1.5
1.5
1.5
1.5
1.5
1.5
1.5
1.5
1.5
1.5
1.5
1.5
1.5
1.5
1.5
1.5
1.5
1.5
1.5
1.5
1.5
1.5
1.5
1.5
1.5
1.5
1.5
1.5
1.5
1.5
1.5
1.5
1.5
1.5
1.5
1.5
1.5
1.5
1.5
1.5
1.5
1.5
1.5
1.5
1.5
1.5
1.5
1.5
1.5
1.5
1.5
1.5
1.5
1.5
1.5
1.5
1.5
1.5
1.5
1.5
1.5
1.5
1.5
1.5
1.5
1.5
1.5
1.5
1.5
