# vtk DataFile Version 2.0
Vessel Segment
ASCII
DATASET POLYDATA
POINTS 500 float
3.3274604109948474 24.883082585239485 -14.947242811885555
3.2330493525352946 24.78961638856311 -14.7594871378414
3.1386382940757414 24.696150191886733 -14.571731463797244
3.044227235616188 24.60268399521036 -14.383975789753087
2.949816177156635 24.50921779853398 -14.196220115708932
2.8554051186970817 24.41575160185761 -14.008464441664776
2.7609940602375285 24.322285405181237 -13.82070876762062
2.6665830017779752 24.228819208504863 -13.632953093576464
2.572171943318422 24.135353011828485 -13.445197419532306
2.477760884858869 24.04188681515211 -13.257441745488151
2.3833498263993156 23.948420618475733 -13.069686071443996
2.2889387679397624 23.854954421799356 -12.881930397399842
2.1945277094802087 23.761488225122985 -12.694174723355683
2.1001166510206555 23.668022028446607 -12.506419049311527
2.0057055925611023 23.574555831770233 -12.318663375267374
1.911294534101549 23.48108963509386 -12.130907701223215
1.8168834756419958 23.38762343841748 -11.94315202717906
1.7224724171824422 23.294157241741107 -11.755396353134904
1.6280613587228887 23.200691045064733 -11.567640679090747
1.5336503002633353 23.107224848388356 -11.379885005046592
1.439239241803782 23.01375865171198 -11.192129331002437
1.3448281833442286 22.920292455035604 -11.004373656958279
1.2504171248846754 22.82682625835923 -10.816617982914124
1.1560060664251222 22.73336006168286 -10.62886230886997
1.0615950079655687 22.63989386500648 -10.441106634825813
0.9671839495060157 22.546427668330104 -10.253350960781656
0.8727728910464625 22.45296147165373 -10.065595286737501
0.7783618325869095 22.359495274977355 -9.877839612693347
0.6839507741273562 22.266029078300978 -9.690083938649188
0.589539715667803 22.1725628816246 -9.502328264605033
0.49512865720825006 22.079096684948226 -9.314572590560878
0.40071759874869667 21.985630488271852 -9.126816916516722
0.3063065402891436 21.892164291595478 -8.939061242472565
0.21189548182959048 21.798698094919104 -8.75130556842841
0.11748442337003699 21.70523189824273 -8.563549894384256
0.023073364910484354 21.611765701566352 -8.375794220340099
-0.0713376935490694 21.518299504889974 -8.188038546295942
-0.16574875200862257 21.4248333082136 -8.000282872251786
-0.26015981046817593 21.331367111537226 -7.812527198207629
-0.3545708689277294 21.237900914860855 -7.6247715241634735
-0.4489819273872826 21.144434718184478 -7.437015850119319
-0.5433929858468357 21.050968521508103 -7.249260176075162
-0.6378040443063897 20.957502324831726 -7.061504502031005
-0.7322151027659429 20.864036128155355 -6.87374882798685
-0.8266261612254961 20.770569931478978 -6.685993153942694
-0.9210372196850491 20.6771037348026 -6.498237479898538
-1.0154482781446024 20.583637538126226 -6.310481805854383
-1.1098593366041556 20.490171341449848 -6.122726131810227
-1.2042703950637095 20.396705144773474 -5.93497045776607
-1.2986814535232627 20.303238948097096 -5.747214783721914
-1.3930925119828155 20.209772751420726 -5.559459109677758
-1.4875035704423687 20.116306554744348 -5.371703435633602
-1.581914628901922 20.022840358067974 -5.1839477615894465
-1.6763256873614754 19.9293741613916 -4.996192087545291
-1.7707367458210284 19.835907964715226 -4.808436413501135
-1.865147804280582 19.742441768038848 -4.6206807394569775
-1.9739386743458256 19.637439382513346 -4.448381205701104
-2.091512331099338 19.52539101553581 -4.285521850085131
-2.2090859878528506 19.413342648558274 -4.122662494469159
-2.334023951669009 19.294827821940384 -3.9711675987884925
-2.468628709486331 19.167824765170167 -3.8345903175139817
-2.6032334673036543 19.040821708399953 -3.6980130362394696
-2.7406298729245133 18.910933585535208 -3.5677215948947594
-2.886909507928274 18.77186496938973 -3.45743216021073
-3.033189142932035 18.632796353244245 -3.347142725526701
-3.179774408183821 18.4933040804486 -3.2379508901340777
-3.333263969927693 18.344241252570512 -3.1535542148616678
-3.4867535316715657 18.195178424692422 -3.0691575395892583
-3.640243093415439 18.046115596814335 -2.984760864316848
-3.796676238497666 17.88968920721821 -2.922544935760191
-3.9535879188797804 17.732065731006916 -2.863934908264011
-4.110499599261898 17.574442254795617 -2.80532488076783
-4.267394470411883 17.41146821302827 -2.7656574282844284
-4.424282767746299 17.246401652645197 -2.733398106853512
-4.581171065080716 17.081335092262123 -2.701138785422595
-4.735831424825177 16.912259390946897 -2.68668683602081
-4.889264337852541 16.740974917313387 -2.682045574510761
-5.042697250879906 16.569690443679875 -2.6774043130007126
-5.191524882116541 16.395521085941667 -2.691868506556395
-5.337927846875153 16.219832845733386 -2.7163916625274984
-5.484330811633761 16.044144605525112 -2.740914818498601
-5.622846471780886 15.867203759636983 -2.787991624307179
-5.7587346964169175 15.68984564310866 -2.8425815494140005
-5.8946229210529495 15.512487526580335 -2.8971714745208232
-6.018475900930776 15.336736050539328 -2.9783388858344253
-6.141126747864132 15.161145052785098 -3.062160972843631
-6.2624441951335195 14.986031418115267 -3.1484257131530313
-6.3708401428747585 14.815543738465905 -3.25836133348343
-6.4792360906159985 14.64505605881654 -3.368296953813831
-6.584253370737268 14.476441729797981 -3.483677241115364
-6.679450647421756 14.31327224226785 -3.6148823014880005
-6.774647924106244 14.150102754737716 -3.7460873618606367
-6.866093542515304 13.989776721112062 -3.8829667372758925
-6.950715434409382 13.83462252094714 -4.030166875182845
-7.035337326303458 13.67946832078222 -4.177367013089796
-7.117254239468377 13.527068984225965 -4.328725756494418
-7.194453144971288 13.379474664239108 -4.4873379146448755
-7.271652050474199 13.231880344252252 -4.645950072795332
-7.347527298446394 13.086149260754109 -4.8068240919600855
-7.420007671808659 12.945196946764732 -4.9734992601006365
-7.492488045170926 12.804244632775355 -5.140174428241191
-7.564603176368894 12.663989947761186 -5.307569710287543
-7.634016887277568 12.528895097104165 -5.480291130731624
-7.703430598186239 12.393800246447144 -5.653012551175704
-7.772844309094912 12.258705395790125 -5.825733971619781
-7.839693153891794 12.128633748341404 -6.003241593755241
-7.906297619705002 11.999040708836066 -6.181205242464408
-7.972902085518212 11.869447669330729 -6.359168891173578
-8.036543680396953 11.743835737159404 -6.54098376913308
-8.09896054526876 11.619869432394953 -6.724390588196595
-8.161377410140569 11.495903127630502 -6.907797407260112
-8.219692200147799 11.375342572294162 -7.094702343681995
-8.274712907617026 11.257516930407803 -7.284416367623371
-8.329733615086255 11.139691288521444 -7.474130391564745
-8.3783663549833 11.025348414964721 -7.6675137517760845
-8.420744750355794 10.914415457439441 -7.864489693344391
-8.463123145728293 10.80348249991416 -8.061465634912702
-8.493609020791114 10.697118894886277 -8.262804762311882
-8.516125706803255 10.593817217266778 -8.467067664642194
-8.538642392815397 10.490515539647278 -8.671330566972507
-8.537323516883387 10.393957969468998 -8.879812571808387
-8.531787259152452 10.29859367830965 -9.089041090032811
-8.518076983937192 10.204914728120624 -9.298117694434758
-8.47799194601512 10.116673797639457 -9.506704124815498
-8.437906908093048 10.028432867158289 -9.71529055519624
-8.372713374721528 9.943361231555938 -9.918083675673328
-8.296749164678207 9.85964911390981 -10.118391666447714
-8.215990910538823 9.77598036264987 -10.316448381235443
-8.109128282698947 9.69254774863196 -10.502246520907697
-8.002265654859071 9.609115134614045 -10.688044660579951
-7.883867698775577 9.523266552411934 -10.865003846016664
-7.754894603572782 9.43520310478804 -11.033859822880913
-7.6259215083699905 9.347139657164147 -11.202715799745162
-7.487279088562383 9.252295697163122 -11.359523851057915
-7.34538522168109 9.155171694033157 -11.512280617107276
-7.203491354799795 9.058047690903189 -11.665037383156639
-7.057394835639265 8.950618683285356 -11.806326291541948
-6.910412407300185 8.841017405050248 -11.945197802605781
-6.763429978961102 8.73141612681514 -12.084069313669614
-6.6173903633352085 8.609967926804906 -12.21353623618706
-6.471607923932315 8.485288176611167 -12.34043781722427
-6.325825484529419 8.360608426417427 -12.467339398261482
-6.184423620776646 8.224102761914242 -12.586394505644632
-6.044990929710459 8.082281068351856 -12.701922436957858
-5.905558238644272 7.94045937478947 -12.817450368271086
-5.772917573116521 7.786884210981737 -12.925018095111755
-5.644442460473787 7.6261006376042015 -13.027703824304098
-5.515967347831053 7.465317064226666 -13.130389553496439
-5.397895311661488 7.29096100325272 -13.221746296290915
-5.285125774839527 7.109686978461923 -13.30732859888603
-5.172356238017568 6.928412953671132 -13.392910901481146
-5.078742852800539 6.728425464960687 -13.456159967110413
-4.987377069243465 6.526242315376558 -13.516788661930766
-4.906723318253264 6.317433988550714 -13.563796396904566
-4.844305170699041 6.097347306835753 -13.587616522932208
-4.785355812850172 5.876608238247488 -13.606823377800067
-4.760528982323457 5.649451631901057 -13.580649427094345
-4.735893867047966 5.422353799285436 -13.554224685834287
-4.7540059894235025 5.208360895060364 -13.471880536189346
-4.772118111799038 4.994367990835298 -13.38953638654441
-4.829472293070926 4.813491939500218 -13.259791261058096
-4.887325689810814 4.633037182197083 -13.129443126937579
-4.972578089113659 4.490872783861981 -12.971021202511679
-5.060797218840249 4.352854418676284 -12.80955948247214
-5.162745128357942 4.241287362493359 -12.63775250517612
-5.272188723615287 4.144162281686533 -12.460297189246194
-5.384276431907795 4.053461919462228 -12.281734817693962
-5.50848263446936 3.9922073162834533 -12.098098590736909
-5.632688837030923 3.930952713104679 -11.914462363779855
-5.762072243897777 3.885530767063829 -11.730540514638227
-5.896512493247194 3.855573393890026 -11.546339683576669
-6.030952742596611 3.825616020716223 -11.362138852515109
-6.169657793234432 3.8141540504897704 -11.179534122246087
[...]
POINT_DATA 500
SCALARS MaximumInscribedSphereRadius float
LOOKUP_TABLE default
1.5
1.5
1.5
1.5
1.5
1.5
1.5
1.5
1.5
1.5
1.5
1.5
1.5
1.5
1.5
1.5
1.5
1.5
1.5
1.5
1.5
1.5
1.5
1.5
1.5
1.5
1.5
1.5
1.5
1.5
1.5
1.5
1.5
1.5
1.5
1.5
1.5
1.5
1.5
1.5
1.5
1.5
1.5
1.5
1.5
1.5
1.5
1.5
1.5
1.5
1.5
1.5
1.5
1.5
1.5
1.5
1.5
1.5
1.5
1.5
1.5
1.5
1.5
1.5
1.5
1.5
1.5
1.5
1.5
1.5
1.5
1.5
1.5
1.5
1.5
1.5
1.5
1.5
1.5
1.5
1.5
1.5
1.5
1.5
1.5
1.5
1.5
1.5
1.5
1.5
1.5
1.5
1.5
1.5
1.5
1.5
1.5
1.5
1.5
1.5
1.5
1.5
1.5
1.5
1.5
1.5
1.5
1.5
1.5
1.5
1.5
1.5
1.5
1.5
1.5
1.5
1.5
1.5
1.5
1.5
1.5
1.5
1.5
1.5
1.5
1.5
1.5
1.5
1.5
1.5
1.5
1.5
1.5
1.5
1.5
1.5
1.5
1.5
1.5
1.5
1.5
1.5
1.5
1.5
1.5
1.5
1.5
1.5
1.5
1.5
1.5
1.5
1.5
1.5
1.5
1.5
1.5
1.5
1.5
1.5
1.5
1.5
1.5
1.5
1.5
1.5
1.5
1.5
1.5
1.5
1.5
1.5
1.5
1.5
1.5
1.5
1.5
1.5
1.5
1.5
1.5
1.5
1.5
1.5
1.5
1.5
1.5
1.5
1.5
1.5
1.5
1.5
1.5
1.5
1.5
1.5
1.5
1.5
1.5
1.5
1.5
1.5
1.5
1.5
1.5
1.5
1.5
1.5
1.5
1.5
1.5
1.5
1.5
1.5
1.5
1.5
1.5
1.5
1.5
1.5
1.5
1.5
1.5
1.5
1.5
1.5
1.5
1.5
1.5
1.5
1.5
1.5
1.5
1.5
1.5
1.5
1.5
1.5
1.5
1.5
1.5
1.5
1.5
1.5
1.5
1.5
1.5
1.5
1.5
1.5
1.5
1.5
1.5
1.5
1.5
1.5
1.5
1.5
1.5
1.5
1.5
1.5
1.5
1.5
1.5
1.5
1.5
1.5
1.5
1.5
1.5
1.5
1.5
1.5
1.5
1.5
1.5
1.5
1.5
1.5
1.5
1.5
1.5
1.5
1.5
1.5
1.5
1.5
1.5
1.5
1.5
1.5
1.5
1.5
1.5
1.5
1.5
1.5
1.5
1.5
1.5
1.5
1.5
1.5
1.5
1.5
1.5
1.5
1.5
1.5
1.5
1.5
1.5
1.5
1.5
1.5
1.5
1.5
1.5
1.5
1.5
1.5
1.5
1.5
1.5
1.5
1.5
1.5
1.5
1.5
1.5
1.5
1.5
1.5
1.5
1.5
1.5
1.5
1.5
1.5
1.5
1.5
1.5
1.5
1.5
1.5
1.5
1.5
1.5
1.5
1.5
1.5
1.5
1.5
1.5
1.5
1.5
1.5
1.5
1.5
1.5
1.5
1.5
1.5
1.5
1.5
1.5
1.5
1.5
1.5
1.5
1.5
1.5
1.5
1.5
1.5
1.5
1.5
1.5
1.5
1.5
1.5
1.5
1.5
1.5
1.5
1.5
1.5
1.5
1.5
1.5
1.5
1.5
1.5
1.5
1.5
1.5
1.5
1.5
1.5
1.5
1.5
1.5
1.5
1.5
1.5
1.5
1.5
1.5
1.5
1.5
1.5
1.5
1.5
1.5
1.5
1.5
1.5
1.5
1.5
1.5
1.5
1.5
1.5
1.5
1.5
1.5
1.5
1.5
1.5
1.5
1.5
1.5
1.5
1.5
1.5
1.5
1.5
1.5
1.5
1.5
1.5
1.5
1.5
1.5
1.5
1.5
1.5
1.5
1.5
1.5
1.5
1.5
1.5
1.5
1.5
1.5
1.5
1.5
1.5
1.5
1.5
1.5
1.5
1.5
1.5
1.5
1.5
1.5
1.5
1.5
1.5
1.5
1.5
1.5
1.5
1.5
1.5
1.5
1.5
1.5
1.5
1.5
1.5
1.5
1.5
1.5
1.5
1.5
1.5
1.5
1.5
1.5
1.5
1.5
1.5
1.5
1.5
1.5
1.5
