# vtk DataFile Version 2.0
Vessel Segment
ASCII
DATASET POLYDATA
POINTS 500 float
6.910389351121728 24.1568477437229 -5.678893463420607
6.74866847254341 24.02898785001076 -5.70975751498607
6.5869475939650926 23.901127956298623 -5.740621566551534
6.425226715386774 23.77326806258649 -5.771485618116998
6.2635058368084575 23.645408168874354 -5.802349669682462
6.101784958230139 23.517548275162213 -5.833213721247924
5.940064079651821 23.389688381450075 -5.8640777728133875
5.778343201073502 23.261828487737944 -5.894941824378851
5.616622322495184 23.133968594025802 -5.925805875944314
5.4549014439168655 23.006108700313668 -5.956669927509777
5.293180565338549 22.87824880660153 -5.987533979075241
5.1314596867602305 22.75038891288939 -6.018398030640705
4.969738808181912 22.622529019177257 -6.049262082206168
4.808017929603595 22.494669125465123 -6.080126133771632
4.646297051025276 22.366809231752985 -6.110990185337095
4.484576172446959 22.238949338040847 -6.141854236902558
4.32285529386864 22.111089444328712 -6.172718288468021
4.161134415290324 21.98322955061657 -6.203582340033485
3.999413536712005 21.855369656904436 -6.234446391598947
3.8376926581336877 21.7275097631923 -6.265310443164411
3.6759717795553692 21.59964986948016 -6.296174494729874
3.5142509009770513 21.471789975768022 -6.327038546295338
3.3525300223987338 21.343930082055888 -6.357902597860801
3.1908091438204162 21.216070188343753 -6.388766649426265
3.029088265242098 21.08821029463161 -6.4196307009917275
2.8673673866637808 20.960350400919477 -6.450494752557192
2.7056465080854633 20.83249050720734 -6.481358804122655
2.543925629507145 20.704630613495205 -6.512222855688118
2.3822047509288264 20.576770719783067 -6.543086907253581
2.220483872350508 20.448910826070932 -6.5739509588190455
2.0587629937721905 20.321050932358794 -6.604815010384508
1.897042115193872 20.193191038646656 -6.635679061949972
1.7353212366155542 20.065331144934518 -6.666543113515435
1.5736003580372366 19.937471251222384 -6.697407165080898
1.4118794794589185 19.809611357510242 -6.728271216646362
1.2501586008806012 19.681751463798108 -6.759135268211825
1.0884377223022836 19.55389157008597 -6.789999319777289
0.9267168437239656 19.42603167637383 -6.820863371342752
0.7649959651456477 19.298171782661697 -6.8517274229082155
0.6032750865673294 19.170311888949563 -6.882591474473679
0.4415542079890112 19.04245199523743 -6.913455526039142
0.2798333294106934 18.914592101525287 -6.944319577604605
0.11811245083237429 18.786732207813152 -6.975183629170068
-0.04360842774594337 18.65887231410101 -7.0060476807355325
-0.2053293063242611 18.531012420388876 -7.036911732300995
-0.3670501849025789 18.403152526676738 -7.067775783866459
-0.5287710634808966 18.2752926329646 -7.098639835431922
-0.690491942059214 18.147432739252466 -7.129503886997386
-0.8522128206375328 18.019572845540328 -7.16036793856285
-1.01393369921585 17.89171295182819 -7.191231990128313
-1.1756545777941685 17.763853058116055 -7.222096041693776
-1.3373754563724867 17.635993164403917 -7.252960093259239
-1.4990963349508046 17.50813327069178 -7.283824144824702
-1.660817213529122 17.380273376979645 -7.314688196390166
-1.8225380921074392 17.252413483267507 -7.345552247955629
-1.984258970685758 17.12455358955537 -7.376416299521093
-2.1459798492640756 16.996693695843234 -7.407280351086557
-2.3077007278423936 16.868833802131096 -7.43814440265202
-2.469421606420711 16.740973908418958 -7.469008454217483
-2.631142484999029 16.61311401470682 -7.499872505782946
-2.7928633635773465 16.485254120994686 -7.530736557348409
-2.952661101113851 16.354660740590973 -7.553731895871164
-3.103626845090285 16.21151386757718 -7.540590299344332
-3.254592589066719 16.068366994563398 -7.5274487028175
-3.404664931188854 15.924797078908123 -7.512119131405246
-3.541507526979221 15.774962628645657 -7.464389411532238
-3.6783501227695874 15.62512817838319 -7.4166596916592304
-3.8151927185599543 15.47529372812072 -7.368929971786222
-3.9402407427663886 15.323924005860444 -7.299072800345522
-4.064829779298246 15.172494538240272 -7.228354535522408
-4.189418815830103 15.021065070620098 -7.157636270699293
-4.30760456829611 14.869874751939456 -7.076395015728895
-4.424615120945062 14.71872832445387 -6.993222468007969
-4.541625673594015 14.56758189696829 -6.910049920287043
-4.657311997137082 14.416668608864565 -6.824645575857587
-4.7725425375321295 14.265835564429345 -6.7384730748266595
-4.887773077927178 14.115002519994121 -6.652300573795732
-5.006226043628402 13.9639469111431 -6.571107494938339
-5.12588339284998 13.812808118699245 -6.491775478304854
-5.24554074207156 13.661669326255385 -6.412443461671368
-5.3739949159626255 13.510240818815241 -6.3494216253221225
-5.50376968018651 13.358768818997135 -6.288848293657136
-5.636286914211862 13.207707037448397 -6.235362985614446
-5.77889865164329 13.058155190381026 -6.207967328061
-5.921510389074719 12.908603343313658 -6.180571670507553
-6.070625951141936 12.764567949042373 -6.187402156878946
-6.221968857246798 12.622421756730299 -6.2059539613779915
-6.3725036163109605 12.48514831505166 -6.242693792119034
-6.521673589367282 12.35610389798029 -6.31014927542725
-6.670843562423602 12.227059480908924 -6.377604758735464
-6.807474731756701 12.11122408429032 -6.483861161054123
-6.943573243416416 11.995949816648396 -6.591765855163728
-7.072030527044505 11.884312316359642 -6.710892932511234
-7.18892600615904 11.778177543253552 -6.84700039581711
-7.305821485273574 11.672042770147465 -6.983107859122983
-7.408429898280899 11.567660730798625 -7.1309135127488315
-7.503406546688725 11.464214954454418 -7.284968023494278
-7.59838319509655 11.36076917811021 -7.43902253423972
-7.675590022675522 11.254925653972542 -7.600777700146139
-7.746921800591904 11.14828938760632 -7.765078852978419
-7.81825357850829 11.041653121240095 -7.929380005810701
-7.870216140144937 10.929274893521566 -8.09669410448685
-7.916078299008619 10.815088214885353 -8.264957141050592
-7.961940457872302 10.700901536249141 -8.433220177614333
-7.9875850541774644 10.579359669484132 -8.60014323492885
-8.006223929933956 10.455269108114415 -8.766601967222295
-8.024862805690448 10.331178546744699 -8.933060699515737
-8.02267989482107 10.199761259553908 -9.094301986158914
-8.013196958660478 10.065775255050013 -9.253714059685713
-8.003714022499883 9.931789250546117 -9.413126133212513
-7.973265927052626 9.792000891448453 -9.564194134541935
-7.9364462831474825 9.650449131321563 -9.712726278184093
-7.899626639242337 9.508897371194672 -9.861258421826252
-7.842747113802748 9.364385362905272 -9.999884654831067
-7.781213845825758 9.219186599174593 -10.136212790630001
-7.719680577848769 9.073987835443916 -10.272540926428935
-7.6403006232504165 8.929405176913022 -10.39974222890905
-7.5578636623721955 8.78492805267568 -10.525380171906091
-7.475426701493976 8.640450928438337 -10.651018114903131
-7.378286254076883 8.50004879845712 -10.770459045441136
-7.279019222816441 8.360236040045972 -10.889003694234155
-7.179752191555995 8.220423281634819 -11.007548343027176
-7.069291560047898 8.087191462663277 -11.123622169759916
-6.9569740218753084 7.955051355923162 -11.239286111750566
-6.8446564837027175 7.822911249183044 -11.35495005374122
-6.724546425276421 7.698275692465479 -11.470983774032113
-6.602433858998753 7.575568641526774 -11.587112519286103
-6.4803212927210865 7.452861590588069 -11.70324126454009
-6.353366186501775 7.336651238121324 -11.820714240549462
-6.224111301260086 7.223526243966662 -11.938825607512694
-6.094856416018399 7.110401249812002 -12.056936974475924
-5.962915709754883 7.0012810518695145 -12.175744694537888
-5.828311154087643 6.896132888517251 -12.29524307111484
-5.693706598420401 6.790984725164985 -12.414741447691798
-5.557808863199679 6.68720533664525 -12.533933767792636
-5.418635272867135 6.586893299600407 -12.652350792097089
-5.279461682534591 6.486581262555564 -12.770767816401541
-5.13997399405079 6.386321031397893 -12.888845686959298
-4.99602676010027 6.286796336913554 -13.002108274308576
-4.852079526149755 6.187271642429218 -13.115370861657848
-4.708132292199236 6.087746947944881 -13.228633449007125
-4.558977729001273 5.984802780124556 -13.33158331249571
-4.409424086918249 5.881596550978439 -13.43374283027256
-4.259870444835223 5.778390321832319 -13.535902348049412
-4.104193371004756 5.66723193698704 -13.61866503071007
-3.9483470233604088 5.555853725779799 -13.700891514651989
-3.790993171362267 5.440899162387865 -13.773055816660019
-3.630115057311912 5.317583759268929 -13.82169662710221
-3.469236943261557 5.194268356149993 -13.8703374375444
-3.310797391398558 5.059119839974086 -13.866984217768147
-3.1524219649096565 4.923660155682188 -13.86226374287079
-3.0159537893210873 4.78581371256862 -13.786372950434309
-2.8897837601144505 4.651627957810824 -13.695007355594694
-2.7998810082157397 4.530796874027574 -13.550883349752288
-2.73303557581631 4.422546629996347 -13.389478709283415
-2.6945645942790084 4.32977842928587 -13.206808434789306
-2.6760442466609575 4.249414413011428 -13.016949338759286
-2.6775723471702992 4.181515396557797 -12.819866175752598
-2.6872040312888053 4.118758017339749 -12.62187136951551
-2.716121954125917 4.0682375505684085 -12.421706885045243
-2.74503987696303 4.017717083797067 -12.221542400574966
-2.789663909126892 3.9768515064492194 -12.022201873896162
-2.8368907070589797 3.9375859062290406 -11.822997890844393
-2.887075936188889 3.900104749481876 -11.62426899511028
-2.946459867393918 3.8681719941611994 -11.42701729671576
-3.0058437985989492 3.836239238840522 -11.229765598321238
-3.0691869916396586 3.807114860726962 -11.033371179428109
-3.136282457407762 3.780652038640727 -10.83778922170232
-3.203377923175866 3.754189216554492 -10.642207263976534
-3.2734155813072308 3.7314250805874782 -10.447215603964668
-3.3446409667466934 3.7101540592661024 -10.252462239967524
-3.4158663521861565 3.688883037944727 -10.057708875970379
-3.488041764501484 3.672431074238169 -9.862848376762754
-3.560367263846054 3.65674043429995 -9.66797095213346
[...]
POINT_DATA 500
SCALARS MaximumInscribedSphereRadius float
LOOKUP_TABLE default
1.5
1.5
1.5
1.5
1.5
1.5
1.5
1.5
1.5
1.5
1.5
1.5
1.5
1.5
1.5
1.5
1.5
1.5
1.5
1.5
1.5
1.5
1.5
1.5
1.5
1.5
1.5
1.5
1.5
1.5
1.5
1.5
1.5
1.5
1.5
1.5
1.5
1.5
1.5
1.5
1.5
1.5
1.5
1.5
1.5
1.5
1.5
1.5
1.5
1.5
1.5
1.5
1.5
1.5
1.5
1.5
1.5
1.5
1.5
1.5
1.5
1.5
1.5
1.5
1.5
1.5
1.5
1.5
1.5
1.5
1.5
1.5
1.5
1.5
1.5
1.5
1.5
1.5
1.5
1.5
1.5
1.5
1.5
1.5
1.5
1.5
1.5
1.5
1.5
1.5
1.5
1.5
1.5
1.5
1.5
1.5
1.5
1.5
1.5
1.5
1.5
1.5
1.5
1.5
1.5
1.5
1.5
1.5
1.5
1.5
1.5
1.5
1.5
1.5
1.5
1.5
1.5
1.5
1.5
1.5
1.5
1.5
1.5
1.5
1.5
1.5
1.5
1.5
1.5
1.5
1.5
1.5
1.5
1.5
1.5
1.5
1.5
1.5
1.5
1.5
1.5
1.5
1.5
1.5
1.5
1.5
1.5
1.5
1.5
1.5
1.5
1.5
1.5
1.5
1.5
1.5
1.5
1.5
1.5
1.5
1.5
1.5
1.5
1.5
1.5
1.5
1.5
1.5
1.5
1.5
1.5
1.5
1.5
1.5
1.5
1.5
1.5
1.5
1.5
1.5
1.5
1.5
1.5
1.5
1.5
1.5
1.5
1.5
1.5
1.5
1.5
1.5
1.5
1.5
1.5
1.5
1.5
1.5
1.5
1.5
1.5
1.5
1.5
1.5
1.5
1.5
1.5
1.5
1.5
1.5
1.5
1.5
1.5
1.5
1.5
1.5
1.5
1.5
1.5
1.5
1.5
1.5
1.5
1.5
1.5
1.5
1.5
1.5
1.5
1.5
1.5
1.5
1.5
1.5
1.5
1.5
1.5
1.5
1.5
1.5
1.5
1.5
1.5
1.5
1.5
1.5
1.5
1.5
1.5
1.5
1.5
1.5
1.5
1.5
1.5
1.5
1.5
1.5
1.5
1.5
1.5
1.5
1.5
1.5
1.5
1.5
1.5
1.5
1.5
1.5
1.5
1.5
1.5
1.5
1.5
1.5
1.5
1.5
1.5
1.5
1.5
1.5
1.5
1.5
1.5
1.5
1.5
1.5
1.5
1.5
1.5
1.5
1.5
1.5
1.5
1.5
1.5
1.5
1.5
1.5
1.5
1.5
1.5
1.5
1.5
1.5
1.5
1.5
1.5
1.5
1.5
1.5
1.5
1.5
1.5
1.5
1.5
1.5
1.5
1.5
1.5
1.5
1.5
1.5
1.5
1.5
1.5
1.5
1.5
1.5
1.5
1.5
1.5
1.5
1.5
1.5
1.5
1.5
1.5
1.5
1.5
1.5
1.5
1.5
1.5
1.5
1.5
1.5
1.5
1.5
1.5
1.5
1.5
1.5
1.5
1.5
1.5
1.5
1.5
1.5
1.5
1.5
1.5
1.5
1.5
1.5
1.5
1.5
1.5
1.5
1.5
1.5
1.5
1.5
1.5
1.5
1.5
1.5
1.5
1.5
1.5
1.5
1.5
1.5
1.5
1.5
1.5
1.5
1.5
1.5
1.5
1.5
1.5
1.5
1.5
1.5
1.5
1.5
1.5
1.5
1.5
1.5
1.5
1.5
1.5
1.5
1.5
1.5
1.5
1.5
1.5
1.5
1.5
1.5
1.5
1.5
1.5
1.5
1.5
1.5
1.5
1.5
1.5
1.5
1.5
1.5
1.5
1.5
1.5
1.5
1.5
1.5
1.5
1.5
1.5
1.5
1.5
1.5
1.5
1.5
1.5
1.5
1.5
1.5
1.5
1.5
1.5
1.5
1.5
1.5
1.5
1.5
1.5
1.5
1.5
1.5
1.5
1.5
1.5
1.5
1.5
1.5
1.5
1.5
1.5
1.5
1.5
1.5
1.5
1.5
1.5
1.5
1.5
1.5
1.5
1.5
1.5
1.5
1.5
1.5
1.5
1.5
1.5
1.5
1.5
1.5
1.5
1.5
1.5
1.5
1.5
1.5
1.5
1.5
1.5
1.5
1.5
1.5
1.5
1.5
