# vtk DataFile Version 2.0
Vessel Segment
ASCII
DATASET POLYDATA
POINTS 500 float
5.408347952345554 22.018792428627815 -13.263693315462751
5.29019926360586 21.903078271291264 -13.14197546601969
5.172050574866165 21.787364113954713 -13.020257616576632
5.053901886126471 21.671649956618158 -12.898539767133576
4.935753197386776 21.555935799281606 -12.776821917690516
4.817604508647082 21.440221641945055 -12.655104068247457
4.699455819907388 21.324507484608503 -12.533386218804397
4.581307131167693 21.208793327271948 -12.41166836936134
4.463158442427998 21.0930791699354 -12.289950519918282
4.345009753688304 20.977365012598845 -12.168232670475222
4.22686106494861 20.861650855262297 -12.046514821032165
4.108712376208915 20.745936697925742 -11.924796971589105
3.99056368746922 20.630222540589187 -11.803079122146046
3.8724149987295253 20.514508383252636 -11.681361272702986
3.7542663099898315 20.398794225916085 -11.559643423259928
3.6361176212501367 20.28308006857953 -11.43792557381687
3.517968932510443 20.16736591124298 -11.316207724373813
3.3998202437707477 20.051651753906427 -11.194489874930753
3.2816715550310533 19.935937596569875 -11.072772025487694
3.163522866291359 19.820223439233324 -10.951054176044636
3.0453741775516643 19.70450928189677 -10.829336326601577
2.9272254888119695 19.58879512456022 -10.707618477158519
2.8090768000722752 19.473080967223666 -10.58590062771546
2.690928111332581 19.357366809887115 -10.464182778272402
2.572779422592886 19.241652652550563 -10.342464928829344
2.4546307338531914 19.12593849521401 -10.220747079386284
2.3364820451134967 19.010224337877457 -10.099029229943225
2.218333356373803 18.894510180540905 -9.977311380500167
2.1001846676341085 18.778796023204357 -9.855593531057107
1.9820359788944144 18.663081865867806 -9.733875681614048
1.8638872901547197 18.54736770853125 -9.61215783217099
1.7457386014150253 18.4316535511947 -9.490439982727931
1.6275899126753306 18.315939393858145 -9.368722133284871
1.5094412239356356 18.200225236521593 -9.247004283841813
1.3912925351959413 18.08451107918504 -9.125286434398754
1.2731438464562466 17.96879692184849 -9.003568584955696
1.1549951577165525 17.85308276451194 -8.881850735512637
1.0368464689768577 17.737368607175387 -8.760132886069579
0.9186977802371636 17.621654449838832 -8.63841503662652
0.8005490914974687 17.50594029250228 -8.51669718718346
0.6824004027577741 17.39022613516573 -8.394979337740404
0.5642517140180788 17.274511977829174 -8.273261488297344
0.44610302527838497 17.158797820492623 -8.151543638854285
0.3279543365386912 17.04308366315607 -8.029825789411227
0.20980564779899735 16.92736950581952 -7.9081079399681675
0.09165695905930202 16.81165534848297 -7.786390090525108
-0.026491729680392262 16.695941191146417 -7.66467224108205
-0.14464041842008657 16.580227033809862 -7.542954391638991
-0.2627891071597819 16.464512876473314 -7.421236542195933
-0.3809377958994762 16.34879871913676 -7.299518692752875
-0.49908648463917044 16.233084561800208 -7.177800843309816
-0.6172351733788647 16.117370404463657 -7.056082993866758
-0.73538386211856 16.0016562471271 -6.934365144423698
-0.8535325508582542 15.885942089790554 -6.812647294980639
-0.9716812395979484 15.770227932454002 -6.690929445537581
-1.0898299283376427 15.654513775117449 -6.569211596094521
-1.2079786170773381 15.538799617780898 -6.447493746651462
-1.3261273058170322 15.423085460444344 -6.325775897208404
-1.4442759945567263 15.307371303107791 -6.204058047765345
-1.5624246832964217 15.19165714577124 -6.082340198322287
-1.680573372036116 15.075942988434686 -5.960622348879228
-1.7987220607758103 14.960228831098135 -5.838904499436169
-1.9134836185099195 14.834480008806306 -5.724615878636437
-2.0258318651926355 14.70158154636366 -5.615620539838117
-2.1381801118753505 14.568683083921012 -5.506625201039797
-2.2481843915021305 14.429616430357445 -5.403449315421517
-2.355815395224578 14.284304458915562 -5.306165649138663
-2.4634463989470246 14.138992487473683 -5.208881982855813
-2.5699118110874872 13.990604541453171 -5.115271649747389
-2.674107136541147 13.836225878746111 -5.0288154389441955
-2.778302461994808 13.681847216039051 -4.942359228141001
-2.882154968185708 13.526372399610125 -4.857593593859694
-2.9842725521440556 13.365350224357053 -4.781383542978338
-3.086390136102404 13.204328049103978 -4.705173492096979
-3.188483589677371 13.043129603123624 -4.6293335879599695
-3.289946047292454 12.877321776719935 -4.563172813100141
-3.391408504907536 12.711513950316249 -4.497012038240313
-3.492889889058312 12.54563216637132 -4.431085781272218
-3.595181771709559 12.37658326947711 -4.375202376449548
-3.697473654360806 12.207534372582897 -4.319318971626877
-3.8002256757369244 12.038133022093552 -4.265572414295447
-3.9049137692702827 11.867248693633925 -4.2208168214459105
-4.009601862803643 11.696364365174295 -4.176061228596371
-4.116760627848282 11.525227437594635 -4.139347711224573
-4.225502120403227 11.353928693450314 -4.107785997336341
-4.336135944519286 11.183085943504844 -4.0821361791958815
-4.4506342291103085 11.013174410685624 -4.06855945010537
-4.567699131481 10.845107255474968 -4.065774564755885
-4.688937056017974 10.680038843865521 -4.0805359628862075
-4.812814960811849 10.525175247257435 -4.129714723649512
-4.934152169339249 10.384342976088044 -4.211225989355043
-5.048602208942826 10.26340694922215 -4.33061515538999
-5.143382912554697 10.174192329213334 -4.48942788640228
-5.227414209469202 10.096931666308121 -4.659319899944058
-5.3038219306483665 10.028148857100518 -4.837069440122866
-5.372192495571946 9.963138016011056 -5.019381835953813
-5.438517504404158 9.89908718765684 -5.202855535220514
-5.502396300849086 9.83102036668713 -5.385716787224128
-5.5649388713067625 9.760759838529385 -5.568243494299017
-5.627408160008607 9.688357832114447 -5.749880833996466
-5.689502644307305 9.605003093045292 -5.926969445223875
-5.751597128606003 9.521648353976136 -6.104058056451285
-5.813880007045962 9.43105886913784 -6.277221337581656
-5.876421303105334 9.330545584301365 -6.445000298094161
-5.938962599164707 9.230032299464892 -6.612779258606668
-6.001125899345146 9.119879349799472 -6.774142477651531
-6.062928524486261 9.000528451994906 -6.92938394263744
-6.124731149627377 8.881177554190337 -7.0846254076233475
-6.184508847200758 8.752267157814996 -7.232391694408827
-6.242440719479667 8.61464278838425 -7.373343973017971
-6.300372591758578 8.477018418953502 -7.5142962516271155
-6.353609239641585 8.330948521625931 -7.647963614943431
-6.402787027359414 8.17757775561481 -7.775333419294393
-6.451964815077242 8.024206989603687 -7.9027032236453545
-6.491663264208567 7.863654085192635 -8.023956815647427
-6.525612163415364 7.698744963001359 -8.14150071124737
-6.559561062622159 7.533835840810083 -8.259044606847311
-6.574299713843693 7.364464490810196 -8.373869426754109
-6.58537930018803 7.194243199619485 -8.488176331724315
-6.589856121844274 7.024887607722787 -8.603509904674466
-6.570929153086272 6.858600525124222 -8.722482547523787
-6.552002184328268 6.6923134425256565 -8.841455190373107
-6.508924125979146 6.537603091897591 -8.968342769518705
-6.457403573121715 6.386939618563253 -9.097997172329247
-6.397372193289235 6.243967633077139 -9.231417580415918
-6.318754419666689 6.117792725289542 -9.37306238987778
-6.240136646044144 5.991617817501947 -9.514707199339643
-6.148254993184345 5.88544035391842 -9.664033421395793
-6.053241376739113 5.783984832229013 -9.815173434432674
-5.957432009127486 5.684532339050185 -9.967006544398421
-5.855321631310558 5.600940461123614 -10.124327815747382
-5.753211253493628 5.517348583197044 -10.281649087096344
-5.65074178649251 5.435319771168864 -10.439514666065294
-5.546537829735044 5.360840954820457 -10.600009385740083
-5.442333872977576 5.2863621384720485 -10.76050410541487
-5.33812944735705 5.211884088829548 -10.92099887191356
-5.233079109396516 5.138789312990753 -11.081578117059108
-5.128028771435982 5.065694537151959 -11.242157362204658
-5.022978433475448 4.992599761313166 -11.402736607350205
-4.916482651510635 4.916553249837209 -11.5609494244587
-4.809247074555632 4.838996005859487 -11.7179510762773
-4.70201149760063 4.761438761881765 -11.874952728095899
-4.593513436731692 4.681698358237252 -12.029876927661148
-4.481202220417937 4.595364027273387 -12.178526474310999
-4.3688910041041815 4.50902969630952 -12.327176020960852
-4.256579787790425 4.422695365345655 -12.475825567610707
-4.13667857805399 4.326055419487014 -12.61147347075279
-4.015678718940355 4.227923738819753 -12.745239389715579
-3.8946788598267195 4.129792058152492 -12.879005308678368
-3.765894067760913 4.022734772451031 -12.996928853982704
-3.6329036250160924 3.910855611326453 -13.106293881192766
-3.4999131822712717 3.798976450201875 -13.215658908402828
-3.3580758337147594 3.6780495280106806 -13.299456577030256
-3.2118802493333956 3.552665423019697 -13.370659042261899
-3.0656846649520344 3.427281318028716 -13.441861507493542
-2.9110035633179967 3.2933577886521594 -13.457988640733323
-2.7562095934028035 3.1593206739603246 -13.473383201300063
-2.604761586853935 3.0274709182957955 -13.448209094476264
-2.455748904569857 2.897213208906675 -13.393507509533375
-2.3156894807216495 2.7739410337798884 -13.315646899612073
-2.1929790277640624 2.66420491722225 -13.192910420968381
-2.0749766682125577 2.5581019332406676 -13.064565175277911
-1.9928508404185292 2.4796840831342086 -12.893480100166473
-1.9107250126245008 2.4012662330277497 -12.722395025055032
-1.8622046649922224 2.347794721599291 -12.531827612340177
-1.823693197132153 2.301753096706694 -12.335457682481831
-1.7946335789197199 2.262343230430271 -12.137157127866121
-1.7961551247680556 2.2443902118411527 -11.932610097201216
-1.7976766706163916 2.2264371932520355 -11.728063066536311
-1.8163934412537999 2.2195679009246914 -11.52469991062379
-1.851900441259787 2.2235212822452075 -11.322492745916975
-1.8874074412657744 2.2274746635657237 -11.120285581210156
-1.9394043898889004 2.240802241994322 -10.922704394567713
-2.0019772906388895 2.260142031991598 -10.728090113625502
[...]
POINT_DATA 500
SCALARS MaximumInscribedSphereRadius float
LOOKUP_TABLE default
1.5
1.5
1.5
1.5
1.5
1.5
1.5
1.5
1.5
1.5
1.5
1.5
1.5
1.5
1.5
1.5
1.5
1.5
1.5
1.5
1.5
1.5
1.5
1.5
1.5
1.5
1.5
1.5
1.5
1.5
1.5
1.5
1.5
1.5
1.5
1.5
1.5
1.5
1.5
1.5
1.5
1.5
1.5
1.5
1.5
1.5
1.5
1.5
1.5
1.5
1.5
1.5
1.5
1.5
1.5
1.5
1.5
1.5
1.5
1.5
1.5
1.5
1.5
1.5
1.5
1.5
1.5
1.5
1.5
1.5
1.5
1.5
1.5
1.5
1.5
1.5
1.5
1.5
1.5
1.5
1.5
1.5
1.5
1.5
1.5
1.5
1.5
1.5
1.5
1.5
1.5
1.5
1.5
1.5
1.5
1.5
1.5
1.5
1.5
1.5
1.5
1.5
1.5
1.5
1.5
1.5
1.5
1.5
1.5
1.5
1.5
1.5
1.5
1.5
1.5
1.5
1.5
1.5
1.5
1.5
1.5
1.5
1.5
1.5
1.5
1.5
1.5
1.5
1.5
1.5
1.5
1.5
1.5
1.5
1.5
1.5
1.5
1.5
1.5
1.5
1.5
1.5
1.5
1.5
1.5
1.5
1.5
1.5
1.5
1.5
1.5
1.5
1.5
1.5
1.5
1.5
1.5
1.5
1.5
1.5
1.5
1.5
1.5
1.5
1.5
1.5
1.5
1.5
1.5
1.5
1.5
1.5
1.5
1.5
1.5
1.5
1.5
1.5
1.5
1.5
1.5
1.5
1.5
1.5
1.5
1.5
1.5
1.5
1.5
1.5
1.5
1.5
1.5
1.5
1.5
1.5
1.5
1.5
1.5
1.5
1.5
1.5
1.5
1.5
1.5
1.5
1.5
1.5
1.5
1.5
1.5
1.5
1.5
1.5
1.5
1.5
1.5
1.5
1.5
1.5
1.5
1.5
1.5
1.5
1.5
1.5
1.5
1.5
1.5
1.5
1.5
1.5
1.5
1.5
1.5
1.5
1.5
1.5
1.5
1.5
1.5
1.5
1.5
1.5
1.5
1.5
1.5
1.5
1.5
1.5
1.5
1.5
1.5
1.5
1.5
1.5
1.5
1.5
1.5
1.5
1.5
1.5
1.5
1.5
1.5
1.5
1.5
1.5
1.5
1.5
1.5
1.5
1.5
1.5
1.5
1.5
1.5
1.5
1.5
1.5
1.5
1.5
1.5
1.5
1.5
1.5
1.5
1.5
1.5
1.5
1.5
1.5
1.5
1.5
1.5
1.5
1.5
1.5
1.5
1.5
1.5
1.5
1.5
1.5
1.5
1.5
1.5
1.5
1.5
1.5
1.5
1.5
1.5
1.5
1.5
1.5
1.5
1.5
1.5
1.5
1.5
1.5
1.5
1.5
1.5
1.5
1.5
1.5
1.5
1.5
1.5
1.5
1.5
1.5
1.5
1.5
1.5
1.5
1.5
1.5
1.5
1.5
1.5
1.5
1.5
1.5
1.5
1.5
1.5
1.5
1.5
1.5
1.5
1.5
1.5
1.5
1.5
1.5
1.5
1.5
1.5
1.5
1.5
1.5
1.5
1.5
1.5
1.5
1.5
1.5
1.5
1.5
1.5
1.5
1.5
1.5
1.5
1.5
1.5
1.5
1.5
1.5
1.5
1.5
1.5
1.5
1.5
1.5
1.5
1.5
1.5
1.5
1.5
1.5
1.5
1.5
1.5
1.5
1.5
1.5
1.5
1.5
1.5
1.5
1.5
1.5
1.5
1.5
1.5
1.5
1.5
1.5
1.5
1.5
1.5
1.5
1.5
1.5
1.5
1.5
1.5
1.5
1.5
1.5
1.5
1.5
1.5
1.5
1.5
1.5
1.5
1.5
1.5
1.5
1.5
1.5
1.5
1.5
1.5
1.5
1.5
1.5
1.5
1.5
1.5
1.5
1.5
1.5
1.5
1.5
1.5
1.5
1.5
1.5
1.5
1.5
1.5
1.5
1.5
1.5
1.5
1.5
1.5
1.5
1.5
1.5
1.5
1.5
1.5
1.5
1.5
1.5
1.5
1.5
1.5
1.5
1.5
1.5
1.5
1.5
1.5
1.5
1.5
1.5
1.5
1.5
1.5
1.5
1.5
1.5
1.5
1.5
1.5
1.5
1.5
1.5
1.5
1.5
1.5
1.5
