# vtk DataFile Version 2.0
Vessel Segment
ASCII
DATASET POLYDATA
POINTS 500 float
1.4956108301525086 26.814662143732846 -17.743697223867844
1.3961167438135358 26.654097382790603 -17.629598057424644
1.296622657474563 26.493532621848363 -17.515498890981444
1.1971285711355901 26.33296786090612 -17.401399724538244
1.0976344847966173 26.172403099963876 -17.28730055809504
0.9981403984576445 26.011838339021637 -17.17320139165184
0.8986463121186719 25.851273578079397 -17.05910222520864
0.799152225779699 25.69070881713715 -16.945003058765437
0.6996581394407266 25.530144056194906 -16.830903892322237
0.6001640531017538 25.369579295252667 -16.716804725879037
0.500669966762781 25.209014534310423 -16.60270555943584
0.40117588042380786 25.04844977336818 -16.488606392992637
0.30168179408483514 24.88788501242594 -16.374507226549436
0.2021877077458623 24.727320251483697 -16.260408060106236
0.10269362140688934 24.56675549054145 -16.146308893663033
0.0031995350679165646 24.40619072959921 -16.032209727219836
-0.0962945512710562 24.245625968656967 -15.918110560776636
-0.19578863761002896 24.085061207714727 -15.804011394333434
-0.29528272394900174 23.92449644677248 -15.689912227890234
-0.39477681028797473 23.76393168583024 -15.575813061447034
-0.49427089662694734 23.603366924888 -15.461713895003836
-0.5937649829659204 23.442802163945757 -15.347614728560632
-0.6932590693048931 23.282237403003514 -15.23351556211743
-0.7927531556438655 23.121672642061274 -15.119416395674232
-0.8922472419828381 22.96110788111903 -15.005317229231029
-0.9917413283218109 22.800543120176787 -14.89121806278783
-1.0912354146607837 22.639978359234547 -14.777118896344628
-1.1907295009997565 22.479413598292304 -14.663019729901428
-1.2902235873387295 22.31884883735006 -14.548920563458228
-1.3897176736777024 22.158284076407817 -14.434821397015028
-1.4892117600166754 21.997719315465574 -14.320722230571828
-1.588705846355648 21.83715455452333 -14.206623064128626
-1.6881999326946209 21.67658979358109 -14.092523897685426
-1.787694019033594 21.516025032638847 -13.978424731242225
-1.8871881053725665 21.355460271696607 -13.864325564799026
-1.9866821917115396 21.19489551075436 -13.750226398355824
-2.0861762780505115 21.03433074981212 -13.636127231912626
-2.185670364389484 20.873765988869877 -13.522028065469424
-2.2851644507284563 20.713201227927634 -13.407928899026222
-2.3846585370674296 20.55263646698539 -13.293829732583024
-2.4841526234064015 20.39207170604315 -13.179730566139824
-2.583646709745375 20.231506945100907 -13.065631399696622
-2.6831407960843476 20.070942184158664 -12.951532233253422
-2.782634882423321 19.91037742321642 -12.83743306681022
-2.8821289687622937 19.74981266227418 -12.72333390036702
-2.9816230551012666 19.589247901331937 -12.60923473392382
-3.081117141440239 19.428683140389698 -12.495135567480618
-3.1806112277792113 19.268118379447454 -12.381036401037418
-3.2801053141181846 19.10755361850521 -12.266937234594218
-3.3795994004571575 18.946988857562967 -12.152838068151018
-3.4790934867961307 18.786424096620724 -12.038738901707816
-3.5785875731351027 18.625859335678484 -11.924639735264616
-3.678081659474076 18.46529457473624 -11.810540568821416
-3.7775757458130483 18.304729813793998 -11.696441402378214
-3.8770698321520216 18.144165052851754 -11.582342235935014
-3.976563918490995 17.983600291909514 -11.468243069491812
-4.076058004829967 17.82303553096727 -11.354143903048614
-4.175865557218193 17.675432013542167 -11.225846472133611
-4.276088731163765 17.545013681653224 -11.078723701742755
-4.376311905109337 17.41459534976428 -10.931600931351898
-4.477580994947843 17.30328266305385 -10.770323437379849
-4.578928301244133 17.193398748866727 -10.607987414374161
-4.680735348605132 17.08524464467415 -10.44485183477064
-4.785357741014501 16.98768348589494 -10.276819960532155
-4.889980133423871 16.890122327115733 -10.108788086293671
-4.995371815144464 16.793368044986458 -9.94079509776073
-5.105890723718753 16.701991505101642 -9.773061278087637
-5.2164096322930416 16.610614965216826 -9.605327458414543
-5.326928540867331 16.519238425332013 -9.437593638741449
-5.446045930972342 16.4292954992931 -9.275053982000458
-5.565239551387339 16.339365283036436 -9.11256037439605
-5.684433171802337 16.24943506677977 -8.950066766791645
-5.81287073396193 16.157481432285586 -8.796085598357024
-5.943411322524913 16.06506746365082 -8.644041037143207
-6.073951911087895 15.972653495016049 -8.491996475929392
-6.213582963492998 15.876191976308139 -8.35131795447228
-6.357461710022202 15.77783916195665 -8.215950433765776
-6.501340456551406 15.679486347605158 -8.08058291305927
-6.654076448145993 15.575309837101035 -7.960895445056456
-6.811574895563936 15.468001980963951 -7.849638991184783
-6.9690733429818765 15.360694124826866 -7.738382537313113
-7.134758284482396 15.24493873234739 -7.65115364238054
-7.303177512335328 15.126361865485896 -7.5719499442936815
-7.471596740188259 15.007784998624404 -7.492746246206823
-7.644377780234004 14.877049602453333 -7.451348063868847
-7.817267842457589 14.746010307515856 -7.410894818974113
-7.988641006962169 14.611314658680783 -7.382951022602029
-8.156435070617738 14.467991889391108 -7.384523110700631
-8.324229134273306 14.324669120101436 -7.386095198799231
-8.481470576248126 14.174043676159815 -7.415044868275322
-8.633543664243488 14.019841603704453 -7.4574032465956215
-8.78428381398353 13.865188350646639 -7.501658797716879
-8.911143769403553 13.70245199215082 -7.57990306134208
-9.038003724823577 13.539715633655 -7.65814732496728
-9.15162187755466 13.374800926911409 -7.748302398375278
-9.246121095795404 13.206741051913566 -7.855654676522963
-9.340620314036148 13.038681176915725 -7.9630069546706475
-9.408763881251474 12.869783636462248 -8.086120434247093
-9.466521950600706 12.700556012233054 -8.215444647288162
-9.524280019949938 12.531328388003859 -8.34476886032923
-9.545400636866898 12.36570994905409 -8.48884173437352
-9.564979339599189 12.200243405326503 -8.633535316684785
-9.580226870540086 12.035818324486387 -8.779386970619907
-9.563184855636928 11.879157508207783 -8.933872225019353
-9.54614284073377 11.722496691929177 -9.0883574794188
-9.523483615128672 11.56808452732207 -9.243803617263447
-9.474083393530337 11.424377174858993 -9.403824085985384
-9.424683171932005 11.280669822395918 -9.563844554707321
-9.372477652917867 11.138596055834043 -9.724155945577522
-9.296868876621378 11.010150516683368 -9.886894361064275
-9.22126010032489 10.881704977532692 -10.04963277655103
-9.145651324028401 10.753259438382015 -10.212371192037786
-9.052451125186417 10.6387007770669 -10.376194812577287
-8.957483232857308 10.525537553979877 -10.540127481142836
-8.862515340528196 10.412374330892854 -10.704060149708383
-8.759963747046925 10.306949155151992 -10.868329638497043
-8.652057018874734 10.20698810371561 -11.032836968627969
-8.544150290702543 10.107027052279228 -11.197344298758894
-8.43493861677192 10.00870331223938 -11.361912852920037
-8.319427737470308 9.91828316564499 -11.526776946368905
-8.203916858168697 9.827863019050598 -11.691641039817775
-8.088405978867085 9.737442872456208 -11.85650513326664
-7.970317959029957 9.650487472002627 -12.021385806870283
-7.851251841900115 9.564847040125102 -12.18627277310883
-7.73218572477027 9.479206608247576 -12.351159739347379
-7.6128886586500935 9.393285151773146 -12.515731851277764
-7.493123835034494 9.306794516098536 -12.679666266276037
-7.373359011418893 9.220303880423929 -12.84360068127431
-7.2537058063856605 9.133138471930781 -13.007241950675857
-7.135175918763865 9.0391822223451 -13.167933034311687
-7.016646031142069 8.945225972759422 -13.32862411794752
-6.898421144124469 8.849535322688329 -13.488416853178057
-6.782630580536506 8.74000177630835 -13.641039535166373
-6.666840016948544 8.63046822992837 -13.793662217154688
-6.553457349651316 8.508339719880157 -13.93744620718142
-6.442595192761596 8.373027196413185 -14.071978131343158
-6.3347760718549155 8.22745610774454 -14.195620297241092
-6.234730775226562 8.055678203359607 -14.291443184087424
-6.146743361491684 7.867463506565407 -14.352796955969524
-6.072048524814507 7.661128934863495 -14.376152069976055
-6.036404502643813 7.453760663924035 -14.314454515504819
-6.019038124322861 7.258790935633671 -14.220935029836905
-6.025601520669551 7.083058928753869 -14.087616167546933
-6.0488966130490915 6.929173252165501 -13.933576235598624
-6.082724637595403 6.789040270737315 -13.766491982219556
-6.126176370656181 6.663634686696632 -13.591249990335243
-6.179208446632574 6.55289013660297 -13.407887019705711
-6.233461502955672 6.444074606455634 -13.223907379052395
-6.302127734988572 6.358030371119973 -13.032648199926776
-6.370793967021473 6.271986135784313 -12.841389020801158
-6.445560286280633 6.19586774880802 -12.648699841524165
-6.528544165451255 6.133120687607862 -12.454084278003569
-6.611528044621876 6.070373626407705 -12.25946871448297
-6.703253696086328 6.0235286940700465 -12.064766387611696
-6.799802704449913 5.985457914201904 -11.870016188227615
-6.896351712813501 5.947387134333761 -11.675265988843533
-7.002820775804812 5.932167819673083 -11.482922937620287
-7.111437268853077 5.921895244226402 -11.291100970454146
-7.220212756539462 5.912182274200584 -11.099389614194147
-7.337622252979038 5.932857989977041 -10.913684847484092
-7.455031749418611 5.953533705753498 -10.727980080774042
-7.573309006408448 5.982371972464764 -10.544500115387658
-7.6941378687000945 6.035211800707383 -10.36756206395582
-7.814966730991743 6.088051628950002 -10.190624012523982
-7.934188417933924 6.1563680874737905 -10.018667552263553
-8.051912291728472 6.23910805014347 -9.851353704743016
-8.169636165523022 6.321848012813149 -9.684039857222478
-8.280186331958424 6.423713124227627 -9.522872439228621
-8.388750638159312 6.530872551463759 -9.363406505470206
-8.496912877657536 6.638537094947508 -9.204051954062884
-8.591830687378259 6.762840610588505 -9.048366434977105
-8.686748497098984 6.887144126229503 -8.892680915891326
-8.777536872243545 7.013786242870395 -8.736633961849762
[...]
POINT_DATA 500
SCALARS MaximumInscribedSphereRadius float
LOOKUP_TABLE default
1.5
1.5
1.5
1.5
1.5
1.5
1.5
1.5
1.5
1.5
1.5
1.5
1.5
1.5
1.5
1.5
1.5
1.5
1.5
1.5
1.5
1.5
1.5
1.5
1.5
1.5
1.5
1.5
1.5
1.5
1.5
1.5
1.5
1.5
1.5
1.5
1.5
1.5
1.5
1.5
1.5
1.5
1.5
1.5
1.5
1.5
1.5
1.5
1.5
1.5
1.5
1.5
1.5
1.5
1.5
1.5
1.5
1.5
1.5
1.5
1.5
1.5
1.5
1.5
1.5
1.5
1.5
1.5
1.5
1.5
1.5
1.5
1.5
1.5
1.5
1.5
1.5
1.5
1.5
1.5
1.5
1.5
1.5
1.5
1.5
1.5
1.5
1.5
1.5
1.5
1.5
1.5
1.5
1.5
1.5
1.5
1.5
1.5
1.5
1.5
1.5
1.5
1.5
1.5
1.5
1.5
1.5
1.5
1.5
1.5
1.5
1.5
1.5
1.5
1.5
1.5
1.5
1.5
1.5
1.5
1.5
1.5
1.5
1.5
1.5
1.5
1.5
1.5
1.5
1.5
1.5
1.5
1.5
1.5
1.5
1.5
1.5
1.5
1.5
1.5
1.5
1.5
1.5
1.5
1.5
1.5
1.5
1.5
1.5
1.5
1.5
1.5
1.5
1.5
1.5
1.5
1.5
1.5
1.5
1.5
1.5
1.5
1.5
1.5
1.5
1.5
1.5
1.5
1.5
1.5
1.5
1.5
1.5
1.5
1.5
1.5
1.5
1.5
1.5
1.5
1.5
1.5
1.5
1.5
1.5
1.5
1.5
1.5
1.5
1.5
1.5
1.5
1.5
1.5
1.5
1.5
1.5
1.5
1.5
1.5
1.5
1.5
1.5
1.5
1.5
1.5
1.5
1.5
1.5
1.5
1.5
1.5
1.5
1.5
1.5
1.5
1.5
1.5
1.5
1.5
1.5
1.5
1.5
1.5
1.5
1.5
1.5
1.5
1.5
1.5
1.5
1.5
1.5
1.5
1.5
1.5
1.5
1.5
1.5
1.5
1.5
1.5
1.5
1.5
1.5
1.5
1.5
1.5
1.5
1.5
1.5
1.5
1.5
1.5
1.5
1.5
1.5
1.5
1.5
1.5
1.5
1.5
1.5
1.5
1.5
1.5
1.5
1.5
1.5
1.5
1.5
1.5
1.5
1.5
1.5
1.5
1.5
1.5
1.5
1.5
1.5
1.5
1.5
1.5
1.5
1.5
1.5
1.5
1.5
1.5
1.5
1.5
1.5
1.5
1.5
1.5
1.5
1.5
1.5
1.5
1.5
1.5
1.5
1.5
1.5
1.5
1.5
1.5
1.5
1.5
1.5
1.5
1.5
1.5
1.5
1.5
1.5
1.5
1.5
1.5
1.5
1.5
1.5
1.5
1.5
1.5
1.5
1.5
1.5
1.5
1.5
1.5
1.5
1.5
1.5
1.5
1.5
1.5
1.5
1.5
1.5
1.5
1.5
1.5
1.5
1.5
1.5
1.5
1.5
1.5
1.5
1.5
1.5
1.5
1.5
1.5
1.5
1.5
1.5
1.5
1.5
1.5
1.5
1.5
1.5
1.5
1.5
1.5
1.5
1.5
1.5
1.5
1.5
1.5
1.5
1.5
1.5
1.5
1.5
1.5
1.5
1.5
1.5
1.5
1.5
1.5
1.5
1.5
1.5
1.5
1.5
1.5
1.5
1.5
1.5
1.5
1.5
1.5
1.5
1.5
1.5
1.5
1.5
1.5
1.5
1.5
1.5
1.5
1.5
1.5
1.5
1.5
1.5
1.5
1.5
1.5
1.5
1.5
1.5
1.5
1.5
1.5
1.5
1.5
1.5
1.5
1.5
1.5
1.5
1.5
1.5
1.5
1.5
1.5
1.5
1.5
1.5
1.5
1.5
1.5
1.5
1.5
1.5
1.5
1.5
1.5
1.5
1.5
1.5
1.5
1.5
1.5
1.5
1.5
1.5
1.5
1.5
1.5
1.5
1.5
1.5
1.5
1.5
1.5
1.5
1.5
1.5
1.5
1.5
1.5
1.5
1.5
1.5
1.5
1.5
1.5
1.5
1.5
1.5
1.5
1.5
1.5
1.5
1.5
1.5
1.5
1.5
1.5
1.5
1.5
1.5
1.5
1.5
1.5
1.5
1.5
1.5
1.5
1.5
1.5
