# vtk DataFile Version 2.0
Vessel Segment
ASCII
DATASET POLYDATA
POINTS 500 float
4.419212507035329 30.967973744532507 -5.712457998858118
4.288450474156363 30.819935319554286 -5.770725748223061
4.157688441277397 30.671896894576065 -5.828993497588005
4.026926408398431 30.52385846959784 -5.887261246952948
3.896164375519465 30.375820044619623 -5.945528996317892
3.7654023426404994 30.227781619641398 -6.003796745682836
3.634640309761534 30.079743194663177 -6.06206449504778
3.503878276882568 29.931704769684956 -6.120332244412723
3.3731162440036018 29.78366634470673 -6.1785999937776666
3.2423542111246353 29.635627919728506 -6.23686774314261
3.1115921782456697 29.487589494750285 -6.295135492507553
2.980830145366704 29.339551069772064 -6.353403241872496
2.8500681124877385 29.191512644793843 -6.41167099123744
2.7193060796087725 29.04347421981562 -6.469938740602384
2.5885440467298064 28.895435794837397 -6.528206489967328
2.4577820138508404 28.74739736985918 -6.586474239332271
2.3270199809718743 28.599358944880954 -6.6447419886972146
2.1962579480929083 28.451320519902733 -6.703009738062158
2.065495915213942 28.30328209492451 -6.761277487427101
1.9347338823349758 28.155243669946287 -6.819545236792045
1.8039718494560102 28.007205244968066 -6.8778129861569886
1.6732098165770437 27.859166819989845 -6.936080735521932
1.542447783698078 27.711128395011624 -6.994348484886876
1.4116857508191114 27.563089970033403 -7.05261623425182
1.2809237179401458 27.415051545055178 -7.1108839836167625
1.1501616850611798 27.267013120076957 -7.169151732981707
1.0193996521822142 27.118974695098736 -7.22741948234665
0.8886376193032479 26.970936270120514 -7.285687231711594
0.757875586424282 26.822897845142293 -7.343954981076537
0.6271135535453156 26.67485942016407 -7.402222730441481
0.4963515206663498 26.526820995185847 -7.460490479806424
0.3655894877873834 26.378782570207623 -7.518758229171368
0.23482745490841764 26.2307441452294 -7.577025978536311
0.10406542202945193 26.08270572025118 -7.635293727901255
-0.02669661084951433 25.93466729527296 -7.693561477266199
-0.15745864372848 25.786628870294734 -7.751829226631141
-0.2882206766074464 25.638590445316513 -7.810096975996085
-0.4189827094864122 25.490552020338292 -7.868364725361029
-0.5497447423653786 25.342513595360067 -7.926632474725973
-0.680506775244345 25.19447517038185 -7.984900224090916
-0.8112688081233103 25.046436745403625 -8.043167973455859
-0.9420308410022766 24.898398320425404 -8.101435722820803
-1.072792873881243 24.750359895447183 -8.159703472185747
-1.2035549067602092 24.602321470468958 -8.21797122155069
-1.3343169396391743 24.454283045490737 -8.276238970915633
-1.4650789725181403 24.306244620512516 -8.334506720280576
-1.5958410053971068 24.158206195534294 -8.392774469645522
-1.7266030382760733 24.01016777055607 -8.451042219010464
-1.8573650711550385 23.86212934557785 -8.509309968375408
-1.9881271040340047 23.714090920599627 -8.567577717740352
-2.118889136912971 23.566052495621406 -8.625845467105297
-2.249651169791936 23.41801407064318 -8.684113216470239
-2.3804132026709026 23.26997564566496 -8.742380965835181
-2.511175235549869 23.12193722068674 -8.800648715200126
-2.641937268428835 22.973898795708514 -8.85891646456507
-2.7726993013078003 22.825860370730297 -8.917184213930014
-2.9034613341867663 22.677821945752072 -8.975451963294956
-3.0342233670657333 22.52978352077385 -9.0337197126599
-3.1649853999446993 22.381745095795626 -9.091987462024845
-3.2957474328236644 22.233706670817405 -9.150255211389787
-3.426509465702631 22.085668245839184 -9.208522960754731
-3.5572714985815974 21.937629820860963 -9.266790710119675
-3.688033531460563 21.78959139588274 -9.325058459484618
-3.8278005828729915 21.644312219270663 -9.365804161185691
-3.9700283235063543 21.49978702808207 -9.401761831229203
-4.112256064139716 21.355261836893476 -9.437719501272714
-4.255811707823016 21.211540188999255 -9.470577808344467
-4.406596665283059 21.072193157616738 -9.486562694249002
-4.557381622743101 20.932846126234217 -9.502547580153534
-4.708166580203143 20.793499094851697 -9.518532466058067
-4.863684672432004 20.658744773149735 -9.521725183311407
-5.020446229084179 20.52519702412599 -9.521557208889632
-5.177207785736352 20.391649275102242 -9.52138923446786
-5.336684141643867 20.261726410663098 -9.513667010467884
-5.497452641255872 20.13352885677363 -9.502349243992553
-5.658221140867878 20.005331302884166 -9.491031477517224
-5.82114150451684 19.880336858626002 -9.47568315562849
-5.98454483505073 19.756061324045284 -9.459430211161786
-6.14829179457791 19.63216016114291 -9.443868945303315
-6.313203634214642 19.509528094068305 -9.430652425286043
-6.478115473851372 19.386896026993703 -9.417435905268773
-6.642703293444436 19.26317311620251 -9.417011584243358
-6.807266505222903 19.139367360906924 -9.417558771207057
-6.967157790317274 19.01246290727963 -9.443671835316419
-7.1240952029043365 18.88492158384365 -9.478905769374457
-7.268474415221288 18.755530791114662 -9.548345534181294
-7.397209157036782 18.628093200703958 -9.64288697540423
-7.514225433429324 18.502118653342798 -9.756230786903146
-7.60047590343639 18.384114785320932 -9.901152839349525
-7.679858688217087 18.268086202696864 -10.051008307049166
-7.739747818625552 18.15772308978046 -10.214233582343919
-7.794970635668705 18.048368533428565 -10.379537056731262
-7.837112568691838 17.94184122214469 -10.550666261019808
-7.879154423969018 17.8353149894305 -10.721817154991541
-7.909451185740624 17.728915337323528 -10.89551354351588
-7.939747947512229 17.622515685216555 -11.069209932040216
-7.965937953924815 17.514757524061036 -11.242679585904195
-7.9878035943163255 17.405568868547988 -11.415910490786235
-8.009669234707836 17.296380213034936 -11.589141395668275
-8.02651370591604 17.183594467069412 -11.760575604480069
-8.04151780272971 17.069490304432016 -11.931351282714278
-8.056521899543378 16.955386141794623 -12.102126960948485
-8.066443389691601 16.8362542576586 -12.269762688753746
-8.074978057392936 16.715750526852162 -12.436541660562803
-8.083512725094268 16.595246796045725 -12.603320632371862
-8.087396981268787 16.4696385256934 -12.766383361588009
-8.089221483678166 16.34176935982929 -12.927800097835844
-8.091045986087547 16.21390019396518 -13.089216834083677
-8.08935930892297 16.08211834288172 -13.247332490971473
-8.084086880826838 15.946340707938553 -13.402076959305365
-8.078814452730704 15.810563072995388 -13.556821427639257
-8.071903259362308 15.67293623458554 -13.709753580854661
-8.059396565130365 15.52899536220767 -13.856497653945244
-8.04688987089842 15.385054489829795 -14.003241727035828
-8.034383176666475 15.241113617451923 -14.149985800126407
-8.015574001748867 15.089524928397548 -14.288049425399524
-7.996229764185914 14.937286961507013 -14.425376105396065
-7.9768855266229615 14.785048994616478 -14.562702785392606
-7.954004629681185 14.627577800250618 -14.693219465389644
-7.928914154235971 14.466837072210609 -14.819481500538098
-7.903823678790758 14.3060963441706 -14.945743535686551
-7.877370566816511 14.142239097235326 -15.067394611908934
-7.848374578748851 13.972565977009864 -15.180440974423014
-7.819378590681193 13.802892856784402 -15.293487336937094
-7.790160698485758 13.6315717797528 -15.403729656194272
-7.759872723421239 13.452303800764483 -15.50045010596919
-7.7295847483567215 13.27303582177616 -15.597170555744107
-7.699602940994339 13.092336418580942 -15.690932078090796
-7.671498066381932 12.902861801820455 -15.766554169804898
-7.643393191769524 12.713387185059966 -15.842176261518997
-7.6173729412524835 12.520880460779201 -15.909045972599342
-7.596018620244246 12.321587093292987 -15.956325585319949
-7.57466429923601 12.122293725806774 -16.003605198040553
-7.562287924225014 11.918520626000467 -16.023421975401597
-7.553480758079204 11.712966595420525 -16.032320821705966
-7.551416305391633 11.508778965594153 -16.02357483557478
-7.561305713953775 11.307013767793237 -15.98354709914894
-7.575307211923868 11.109114943892951 -15.93368504863176
-7.607315179213987 10.928146623227061 -15.840759422058408
-7.640724946671293 10.749766982344777 -15.744678046694743
-7.692354341881286 10.60503320849276 -15.607580434076837
-7.74398373709128 10.460299434640735 -15.470482821458926
-7.806878173890095 10.350745077744879 -15.308753983166593
-7.871459236482168 10.246457857375969 -15.143337305800213
-7.939067076139413 10.158614344513069 -14.970871373079222
-8.010144477560285 10.089620075445369 -14.790324955303076
-8.081221878981157 10.020625806377671 -14.609778537526928
-8.153874038938797 9.973672561336844 -14.423220513094833
-8.226893669614064 9.93186260063279 -14.235259677145688
-8.299913300289331 9.890052639928737 -14.047298841196541
-8.371917819642121 9.866173591943477 -13.855925346989672
-8.44382957075008 9.843933200984587 -13.664239979286993
-8.515741321858041 9.821692810025697 -13.472554611584314
-8.584809685759595 9.810460538502078 -13.278940026894725
-8.653322033648255 9.801380872386563 -13.08494818949237
-8.721834381536917 9.792301206271047 -12.890956352090019
-8.786797475472344 9.788088941513347 -12.695634553545695
-8.84983349990258 9.786519435163408 -12.499590651823208
-8.912869524332814 9.784949928813466 -12.303546750100718
-8.97257554356997 9.784446142882116 -12.106501383556376
-9.027932364895904 9.78533425538628 -11.908148040459777
-9.083289186221837 9.786222367890442 -11.70979469736318
-9.135928479251884 9.786486545525747 -11.510757880673925
-9.18111700989003 9.785040054513036 -11.309847155496687
-9.226305540528177 9.783593563500325 -11.108936430319448
-9.268862504168176 9.780748293430744 -10.907555008929194
-9.301143426233747 9.772440912097423 -10.704335559528532
-9.333424348299317 9.764133530764102 -10.501116110127871
-9.361483571365625 9.752929482946389 -10.297582740719589
-9.378226087837476 9.733960617051487 -10.093207875832586
-9.394968604309327 9.714991751156589 -9.888833010945586
-9.403569819440113 9.68993434321801 -9.684895859631498
-9.40297171244259 9.657997143314347 -9.481453305923917
-9.402373605445064 9.626059943410686 -9.278010752216337
[...]
POINT_DATA 500
SCALARS MaximumInscribedSphereRadius float
LOOKUP_TABLE default
1.5
1.5
1.5
1.5
1.5
1.5
1.5
1.5
1.5
1.5
1.5
1.5
1.5
1.5
1.5
1.5
1.5
1.5
1.5
1.5
1.5
1.5
1.5
1.5
1.5
1.5
1.5
1.5
1.5
1.5
1.5
1.5
1.5
1.5
1.5
1.5
1.5
1.5
1.5
1.5
1.5
1.5
1.5
1.5
1.5
1.5
1.5
1.5
1.5
1.5
1.5
1.5
1.5
1.5
1.5
1.5
1.5
1.5
1.5
1.5
1.5
1.5
1.5
1.5
1.5
1.5
1.5
1.5
1.5
1.5
1.5
1.5
1.5
1.5
1.5
1.5
1.5
1.5
1.5
1.5
1.5
1.5
1.5
1.5
1.5
1.5
1.5
1.5
1.5
1.5
1.5
1.5
1.5
1.5
1.5
1.5
1.5
1.5
1.5
1.5
1.5
1.5
1.5
1.5
1.5
1.5
1.5
1.5
1.5
1.5
1.5
1.5
1.5
1.5
1.5
1.5
1.5
1.5
1.5
1.5
1.5
1.5
1.5
1.5
1.5
1.5
1.5
1.5
1.5
1.5
1.5
1.5
1.5
1.5
1.5
1.5
1.5
1.5
1.5
1.5
1.5
1.5
1.5
1.5
1.5
1.5
1.5
1.5
1.5
1.5
1.5
1.5
1.5
1.5
1.5
1.5
1.5
1.5
1.5
1.5
1.5
1.5
1.5
1.5
1.5
1.5
1.5
1.5
1.5
1.5
1.5
1.5
1.5
1.5
1.5
1.5
1.5
1.5
1.5
1.5
1.5
1.5
1.5
1.5
1.5
1.5
1.5
1.5
1.5
1.5
1.5
1.5
1.5
1.5
1.5
1.5
1.5
1.5
1.5
1.5
1.5
1.5
1.5
1.5
1.5
1.5
1.5
1.5
1.5
1.5
1.5
1.5
1.5
1.5
1.5
1.5
1.5
1.5
1.5
1.5
1.5
1.5
1.5
1.5
1.5
1.5
1.5
1.5
1.5
1.5
1.5
1.5
1.5
1.5
1.5
1.5
1.5
1.5
1.5
1.5
1.5
1.5
1.5
1.5
1.5
1.5
1.5
1.5
1.5
1.5
1.5
1.5
1.5
1.5
1.5
1.5
1.5
1.5
1.5
1.5
1.5
1.5
1.5
1.5
1.5
1.5
1.5
1.5
1.5
1.5
1.5
1.5
1.5
1.5
1.5
1.5
1.5
1.5
1.5
1.5
1.5
1.5
1.5
1.5
1.5
1.5
1.5
1.5
1.5
1.5
1.5
1.5
1.5
1.5
1.5
1.5
1.5
1.5
1.5
1.5
1.5
1.5
1.5
1.5
1.5
1.5
1.5
1.5
1.5
1.5
1.5
1.5
1.5
1.5
1.5
1.5
1.5
1.5
1.5
1.5
1.5
1.5
1.5
1.5
1.5
1.5
1.5
1.5
1.5
1.5
1.5
1.5
1.5
1.5
1.5
1.5
1.5
1.5
1.5
1.5
1.5
1.5
1.5
1.5
1.5
1.5
1.5
1.5
1.5
1.5
1.5
1.5
1.5
1.5
1.5
1.5
1.5
1.5
1.5
1.5
1.5
1.5
1.5
1.5
1.5
1.5
1.5
1.5
1.5
1.5
1.5
1.5
1.5
1.5
1.5
1.5
1.5
1.5
1.5
1.5
1.5
1.5
1.5
1.5
1.5
1.5
1.5
1.5
1.5
1.5
1.5
1.5
1.5
1.5
1.5
1.5
1.5
1.5
1.5
1.5
1.5
1.5
1.5
1.5
1.5
1.5
1.5
1.5
1.5
1.5
1.5
1.5
1.5
1.5
1.5
1.5
1.5
1.5
1.5
1.5
1.5
1.5
1.5
1.5
1.5
1.5
1.5
1.5
1.5
1.5
1.5
1.5
1.5
1.5
1.5
1.5
1.5
1.5
1.5
1.5
1.5
1.5
1.5
1.5
1.5
1.5
1.5
1.5
1.5
1.5
1.5
1.5
1.5
1.5
1.5
1.5
1.5
1.5
1.5
1.5
1.5
1.5
1.5
1.5
1.5
1.5
1.5
1.5
1.5
1.5
1.5
1.5
1.5
1.5
1.5
1.5
1.5
1.5
1.5
1.5
1.5
1.5
1.5
1.5
1.5
1.5
1.5
1.5
1.5
1.5
1.5
1.5
1.5
1.5
1.5
1.5
1.5
1.5
1.5
1.5
