# vtk DataFile Version 2.0
Vessel Segment
ASCII
DATASET POLYDATA
POINTS 500 float
-0.714362341173441 26.12076100322031 -7.494379018916034
-0.8154148701128126 25.92266143424734 -7.44088532059558
-0.9164673990521841 25.724561865274367 -7.387391622275127
-1.0175199279915557 25.526462296301396 -7.333897923954672
-1.1185724569309274 25.328362727328425 -7.280404225634218
-1.2196249858702992 25.130263158355458 -7.226910527313763
-1.3206775148096708 24.932163589382483 -7.173416828993308
-1.4217300437490423 24.734064020409516 -7.119923130672855
-1.5227825726884139 24.53596445143655 -7.066429432352401
-1.623835101627785 24.337864882463577 -7.012935734031945
-1.7248876305671563 24.139765313490607 -6.959442035711492
-1.8259401595065277 23.941665744517636 -6.905948337391037
-1.9269926884458992 23.743566175544665 -6.852454639070583
-2.0280452173852708 23.545466606571694 -6.7989609407501295
-2.1290977463246423 23.347367037598723 -6.745467242429674
-2.230150275264014 23.149267468625755 -6.691973544109221
-2.3312028042033854 22.951167899652784 -6.638479845788767
-2.4322553331427565 22.753068330679813 -6.584986147468312
-2.5333078620821277 22.554968761706842 -6.5314924491478585
-2.634360391021499 22.35686919273387 -6.477998750827403
-2.7354129199608708 22.158769623760904 -6.42450505250695
-2.8364654489002423 21.960670054787933 -6.3710113541864954
-2.9375179778396134 21.762570485814962 -6.317517655866041
-3.0385705067789854 21.56447091684199 -6.264023957545588
-3.1396230357183565 21.36637134786902 -6.210530259225132
-3.240675564657728 21.16827177889605 -6.157036560904678
-3.3417280935970997 20.97017220992308 -6.103542862584224
-3.442780622536471 20.77207264095011 -6.05004916426377
-3.5438331514758428 20.57397307197714 -5.996555465943316
-3.6448856804152148 20.37587350300417 -5.9430617676228605
-3.7459382093545868 20.1777739340312 -5.889568069302407
-3.8469907382939574 19.979674365058226 -5.836074370981953
-3.9480432672333285 19.78157479608526 -5.782580672661499
-4.0490957961727005 19.583475227112288 -5.729086974341044
-4.150148325112071 19.385375658139317 -5.6755932760205905
-4.251200854051444 19.187276089166346 -5.622099577700135
-4.352253382990815 18.989176520193375 -5.568605879379682
-4.453305911930188 18.791076951220408 -5.515112181059227
-4.554358440869558 18.592977382247433 -5.461618482738772
-4.65541096980893 18.394877813274466 -5.408124784418319
-4.756463498748301 18.196778244301495 -5.354631086097864
-4.857516027687673 17.998678675328527 -5.30113738777741
-4.9585685566270445 17.800579106355556 -5.247643689456956
-5.059621085566416 17.602479537382585 -5.194149991136502
-5.160673614505788 17.404379968409614 -5.140656292816048
-5.26172614344516 17.206280399436643 -5.0871625944955925
-5.362778672384531 17.008180830463672 -5.033668896175138
-5.463831201323902 16.8100812614907 -4.980175197854684
-5.564883730263274 16.611981692517734 -4.926681499534229
-5.665936259202645 16.413882123544763 -4.873187801213776
-5.766988788142017 16.215782554571792 -4.819694102893322
-5.8680413170813885 16.01768298559882 -4.766200404572867
-5.969093846020759 15.819583416625852 -4.712706706252414
-6.070146374960131 15.62148384765288 -4.659213007931959
-6.171198903899501 15.423384278679912 -4.605719309611505
-6.272251432838874 15.22528470970694 -4.5522256112910515
-6.370038234744626 15.025705101665814 -4.498395577098774
-6.4616108182891825 14.823309187834905 -4.443925543136553
-6.5531834018337385 14.620913274003996 -4.389455509174331
-6.64306403094834 14.417678995455658 -4.335371804218494
-6.728899260738714 14.212440218440172 -4.2822117973680465
-6.81473449052909 14.007201441424685 -4.229051790517599
-6.900049878014724 13.801393866687858 -4.177312241699376
-6.984534280038357 13.594677049603986 -4.127843342967534
-7.069018682061988 13.387960232520115 -4.078374444235691
-7.155663517574318 13.181318641575164 -4.032578930687811
-7.243655127178275 12.97472394520736 -3.989073337204684
-7.331646736782234 12.768129248839557 -3.945567743721557
-7.427978883349307 12.563787704217948 -3.9097918048208546
-7.524395526313551 12.359468985849094 -3.8740941735838534
-7.62721567113635 12.157702182301147 -3.8429948976651414
-7.736343860952228 11.958449252234368 -3.816425429480177
-7.847726441594602 11.760376735435338 -3.7913902590100568
-7.972147533486135 11.569131265432862 -3.775228864009317
-8.096568625377666 11.377885795430387 -3.759067469008577
-8.234608785606579 11.195684070726601 -3.754416558176495
-8.374094910367745 11.01444253908571 -3.75098773915309
-8.522232145193012 10.840703764405655 -3.760449819345407
-8.673200493737394 10.669420299854082 -3.7741305028557868
-8.827172014742604 10.503312109074741 -3.8037707470919635
-8.982579676265045 10.339678774617852 -3.8410429778672155
-9.134032182852028 10.178833133131628 -3.898346798856198
-9.283401136062658 10.019456032624472 -3.9662031489128617
-9.42012394110715 9.861329115335467 -4.05712953501159
-9.55043405127252 9.703836149461209 -4.159754431996377
-9.660051363701948 9.54771648379066 -4.2840955045127345
-9.75895999720425 9.3923075113352 -4.419674861685437
-9.835371781381065 9.239448091842513 -4.569951997836879
-9.895461338797013 9.088438459446461 -4.730892870847697
-9.941277229486726 8.940001603790245 -4.89748417501482
-9.961679849485545 8.796145398149939 -5.074135678796355
-9.98208246948436 8.652289192509633 -5.250787182577889
-9.9683511765333 8.517080120568622 -5.434580812171273
-9.952861800205625 8.382316423350234 -5.618742300342196
-9.927152045114681 8.250898012090023 -5.803556444299918
-9.881316370303164 8.126067121527047 -5.989655794831149
-9.835480695491645 8.001236230964071 -6.17575514536238
-9.776385470053604 7.881624588954129 -6.361062794860809
-9.705669232718822 7.766587230887531 -6.54567657717022
-9.634952995384042 7.651549872820931 -6.730290359479632
-9.552600052912323 7.54159778695483 -6.912839115854842
-9.461733360996408 7.435366233048684 -7.093877039636746
-9.370866669080492 7.329134679142538 -7.27491496341865
-9.271653430083033 7.226553517558046 -7.453427302100066
-9.164612614972818 7.127395774479435 -7.629571091319033
-9.057571799862604 7.028238031400825 -7.805714880538
-8.945531602699443 6.930936996069253 -7.979621556050652
-8.82562899100575 6.83655596281287 -8.150009973681687
-8.705726379312054 6.742174929556487 -8.320398391312718
-8.583569569537246 6.64829297791545 -8.489380308653294
-8.45350683864454 6.5561614047861205 -8.653429349667755
-8.32344410775183 6.464029831656792 -8.817478390682219
-8.19317510540056 6.371895203519736 -8.981353493333499
-8.05504002671053 6.279644073932768 -9.138595528799678
-7.916904948020502 6.187392944345798 -9.295837564265856
-7.778769869330473 6.095141814758829 -9.453079599732035
-7.635391062866859 6.001224642039066 -9.604480621613124
-7.4906732908394815 5.906882051662462 -9.754390163313388
-7.3459555188121035 5.8125394612858585 -9.904299705013653
-7.19828003543291 5.716251025883358 -10.04993465759469
-7.047956805653501 5.618220667909703 -10.191742993374229
-6.897633575874093 5.520190309936047 -10.33355132915377
-6.746209476284209 5.4210183491882145 -10.473294689953244
-6.590874125597303 5.317790418278996 -10.60570145601713
-6.4355387749103965 5.2145624873697765 -10.738108222081014
-6.280203424223489 5.111334556460558 -10.8705149881449
-6.120701730241248 5.001867717563404 -10.992471169186508
-5.960708139967668 4.891664286531675 -11.113193509507276
-5.800714549694086 4.7814608554999465 -11.233915849828044
-5.638073706769781 4.665683969679307 -11.345162944086209
-5.473685688353383 4.546228627398987 -11.45015641623634
-5.309297669936987 4.426773285118665 -11.555149888386472
-5.143312728842546 4.302251421544987 -11.650515189437087
-4.975143564832199 4.170799722190881 -11.732711366996005
-4.806974400821852 4.039348022836775 -11.814907544554925
-4.638144905753207 3.901447198971608 -11.881585947239985
-4.468496889354748 3.755552285013911 -11.929029104867439
-4.29884887295629 3.6096573710562145 -11.976472262494894
-4.1336689582590305 3.45343057183108 -11.984324739093925
-3.9699758760415946 3.293765672128212 -11.979002781808495
-3.814043488002813 3.132883947834767 -11.949430147181712
-3.672971319943379 2.9696722411098637 -11.873422181945994
-3.537078131834416 2.8084820293394226 -11.78899698835172
-3.438835701091631 2.661987919267629 -11.643379238374795
-3.3405932703488475 2.5154938091958363 -11.497761488397872
-3.2848104630705453 2.395826033715298 -11.312607127156053
-3.235288005378159 2.280113597895048 -11.121623392317272
-3.201499242144389 2.176218582971446 -10.922456410570218
-3.1924209200293947 2.0908833337793102 -10.710437289014612
-3.1833425979144003 2.0055480845871743 -10.498418167459004
-3.1919408115413703 1.9342063446169075 -10.282145820257236
-3.213277623512225 1.8729490293326194 -10.062808385305058
-3.2346144354830804 1.8116917140483313 -9.843470950352879
-3.2672134531464576 1.7591094525611295 -9.623777409674236
-3.3122757418396507 1.7161274016919155 -9.403689786139596
-3.3573380305328433 1.6731453508227014 -9.183602162604952
-3.405852749029207 1.6326428591829591 -8.963981661309733
-3.471234224813349 1.6042541905862693 -8.746643273738846
-3.5366157005974905 1.575865521989579 -8.529304886167955
-3.601997176381632 1.5474768533928889 -8.311966498597066
-3.682621962701322 1.5296366372409151 -8.098881084672781
-3.7671492956561385 1.5144970042396897 -7.886884504303066
-3.8516766286109556 1.4993573712384642 -7.674887923933351
-3.945371181073863 1.491159543836592 -7.466777882899221
-4.049081289379217 1.4905459181183782 -7.2629140423313325
-4.15279139768457 1.4899322924001646 -7.059050201763446
-4.262468610699645 1.4951690756613465 -6.858861208490656
-4.385354845438379 1.5133565583086521 -6.666807004217462
-4.508241080177113 1.5315440409559573 -6.4747527999442696
-4.637081996177706 1.558749596052131 -6.288490386973191
-4.777125646060468 1.6029211416576343 -6.1131242577502025
-4.9171692959432285 1.6470926872631375 -5.9377581285272125
-5.063449641730179 1.7107132647945564 -5.7751223744371085
-5.21426004951409 1.7884607649399369 -5.6217334057414625
[...]
POINT_DATA 500
SCALARS MaximumInscribedSphereRadius float
LOOKUP_TABLE default
1.5
1.5
1.5
1.5
1.5
1.5
1.5
1.5
1.5
1.5
1.5
1.5
1.5
1.5
1.5
1.5
1.5
1.5
1.5
1.5
1.5
1.5
1.5
1.5
1.5
1.5
1.5
1.5
1.5
1.5
1.5
1.5
1.5
1.5
1.5
1.5
1.5
1.5
1.5
1.5
1.5
1.5
1.5
1.5
1.5
1.5
1.5
1.5
1.5
1.5
1.5
1.5
1.5
1.5
1.5
1.5
1.5
1.5
1.5
1.5
1.5
1.5
1.5
1.5
1.5
1.5
1.5
1.5
1.5
1.5
1.5
1.5
1.5
1.5
1.5
1.5
1.5
1.5
1.5
1.5
1.5
1.5
1.5
1.5
1.5
1.5
1.5
1.5
1.5
1.5
1.5
1.5
1.5
1.5
1.5
1.5
1.5
1.5
1.5
1.5
1.5
1.5
1.5
1.5
1.5
1.5
1.5
1.5
1.5
1.5
1.5
1.5
1.5
1.5
1.5
1.5
1.5
1.5
1.5
1.5
1.5
1.5
1.5
1.5
1.5
1.5
1.5
1.5
1.5
1.5
1.5
1.5
1.5
1.5
1.5
1.5
1.5
1.5
1.5
1.5
1.5
1.5
1.5
1.5
1.5
1.5
1.5
1.5
1.5
1.5
1.5
1.5
1.5
1.5
1.5
1.5
1.5
1.5
1.5
1.5
1.5
1.5
1.5
1.5
1.5
1.5
1.5
1.5
1.5
1.5
1.5
1.5
1.5
1.5
1.5
1.5
1.5
1.5
1.5
1.5
1.5
1.5
1.5
1.5
1.5
1.5
1.5
1.5
1.5
1.5
1.5
1.5
1.5
1.5
1.5
1.5
1.5
1.5
1.5
1.5
1.5
1.5
1.5
1.5
1.5
1.5
1.5
1.5
1.5
1.5
1.5
1.5
1.5
1.5
1.5
1.5
1.5
1.5
1.5
1.5
1.5
1.5
1.5
1.5
1.5
1.5
1.5
1.5
1.5
1.5
1.5
1.5
1.5
1.5
1.5
1.5
1.5
1.5
1.5
1.5
1.5
1.5
1.5
1.5
1.5
1.5
1.5
1.5
1.5
1.5
1.5
1.5
1.5
1.5
1.5
1.5
1.5
1.5
1.5
1.5
1.5
1.5
1.5
1.5
1.5
1.5
1.5
1.5
1.5
1.5
1.5
1.5
1.5
1.5
1.5
1.5
1.5
1.5
1.5
1.5
1.5
1.5
1.5
1.5
1.5
1.5
1.5
1.5
1.5
1.5
1.5
1.5
1.5
1.5
1.5
1.5
1.5
1.5
1.5
1.5
1.5
1.5
1.5
1.5
1.5
1.5
1.5
1.5
1.5
1.5
1.5
1.5
1.5
1.5
1.5
1.5
1.5
1.5
1.5
1.5
1.5
1.5
1.5
1.5
1.5
1.5
1.5
1.5
1.5
1.5
1.5
1.5
1.5
1.5
1.5
1.5
1.5
1.5
1.5
1.5
1.5
1.5
1.5
1.5
1.5
1.5
1.5
1.5
1.5
1.5
1.5
1.5
1.5
1.5
1.5
1.5
1.5
1.5
1.5
1.5
1.5
1.5
1.5
1.5
1.5
1.5
1.5
1.5
1.5
1.5
1.5
1.5
1.5
1.5
1.5
1.5
1.5
1.5
1.5
1.5
1.5
1.5
1.5
1.5
1.5
1.5
1.5
1.5
1.5
1.5
1.5
1.5
1.5
1.5
1.5
1.5
1.5
1.5
1.5
1.5
1.5
1.5
1.5
1.5
1.5
1.5
1.5
1.5
1.5
1.5
1.5
1.5
1.5
1.5
1.5
1.5
1.5
1.5
1.5
1.5
1.5
1.5
1.5
1.5
1.5
1.5
1.5
1.5
1.5
1.5
1.5
1.5
1.5
1.5
1.5
1.5
1.5
1.5
1.5
1.5
1.5
1.5
1.5
1.5
1.5
1.5
1.5
1.5
1.5
1.5
1.5
1.5
1.5
1.5
1.5
1.5
1.5
1.5
1.5
1.5
1.5
1.5
1.5
1.5
1.5
1.5
1.5
1.5
1.5
1.5
1.5
1.5
1.5
1.5
1.5
1.5
1.5
1.5
1.5
1.5
1.5
1.5
1.5
1.5
1.5
1.5
1.5
1.5
1.5
1.5
1.5
1.5
1.5
1.5
1.5
1.5
1.5
1.5
1.5
1.5
