# vtk DataFile Version 2.0
Vessel Segment
ASCII
DATASET POLYDATA
POINTS 500 float
9.764948784054312 20.377839946650226 -9.989100333306132
9.579455512495963 20.30114880237476 -9.898059297804451
9.393962240937613 20.2244576580993 -9.807018262302769
9.208468969379263 20.14776651382384 -9.715977226801089
9.022975697820915 20.071075369548378 -9.624936191299405
8.837482426262564 19.994384225272917 -9.533895155797726
8.651989154704216 19.917693080997456 -9.442854120296044
8.466495883145866 19.841001936721995 -9.351813084794362
8.281002611587516 19.764310792446533 -9.260772049292678
8.095509340029167 19.687619648171072 -9.169731013790997
7.910016068470818 19.610928503895607 -9.078689978289315
7.72452279691247 19.53423735962015 -8.987648942787635
7.5390295253541195 19.457546215344685 -8.896607907285953
7.35353625379577 19.380855071069224 -8.80556687178427
7.16804298223742 19.304163926793763 -8.71452583628259
6.982549710679071 19.2274727825183 -8.623484800780908
6.7970564391207215 19.15078163824284 -8.532443765279226
6.611563167562372 19.07409049396738 -8.441402729777543
6.426069896004023 18.997399349691918 -8.350361694275863
6.240576624445674 18.920708205416453 -8.25932065877418
6.055083352887324 18.844017061140995 -8.1682796232725
5.869590081328975 18.76732591686553 -8.077238587770818
5.684096809770624 18.69063477259007 -7.986197552269137
5.498603538212276 18.61394362831461 -7.895156516767455
5.313110266653926 18.537252484039147 -7.8041154812657725
5.1276169950955754 18.460561339763686 -7.71307444576409
4.942123723537227 18.38387019548822 -7.622033410262409
4.756630451978879 18.30717905121276 -7.530992374760728
4.571137180420529 18.2304879069373 -7.439951339259046
4.385643908862179 18.153796762661838 -7.348910303757364
4.20015063730383 18.077105618386376 -7.257869268255684
4.014657365745482 18.000414474110915 -7.166828232754002
3.8291640941871314 17.923723329835454 -7.075787197252319
3.6436708226287817 17.847032185559993 -6.984746161750638
3.458177551070432 17.77034104128453 -6.893705126248956
3.272684279512084 17.693649897009067 -6.802664090747275
3.0871910079537344 17.616958752733606 -6.711623055245592
2.901697736395385 17.540267608458144 -6.620582019743912
2.7162044648370354 17.463576464182687 -6.529540984242231
2.530711193278686 17.386885319907222 -6.438499948740549
2.345217921720337 17.31019417563176 -6.347458913238867
2.159724650161987 17.2335030313563 -6.256417877737186
1.9742313786036396 17.15681188708084 -6.165376842235505
1.7887381070452903 17.080120742805377 -6.0743358067338225
1.603244835486941 17.003429598529912 -5.98329477123214
1.4177515639285914 16.926738454254455 -5.89225373573046
1.2322582923702416 16.85004730997899 -5.801212700228778
1.046765020811892 16.77335616570353 -5.7101716647270955
0.8612717492535424 16.696665021428068 -5.619130629225415
0.6757784776951928 16.619973877152606 -5.528089593723733
0.4902852061368437 16.543282732877145 -5.437048558222051
0.30479193457849607 16.466591588601684 -5.34600752272037
0.1192986630201468 16.38990044432622 -5.254966487218688
-0.0661946085382029 16.313209300050758 -5.163925451717007
-0.2516878800965526 16.236518155775297 -5.0728844162153255
-0.4371811516549023 16.159827011499836 -4.981843380713643
-0.622674423213252 16.083135867224374 -4.890802345211962
-0.8081676947716017 16.006444722948913 -4.79976130971028
-0.9818805090486793 15.902896554744675 -4.712741586322089
-1.1541553570159868 15.7960701185863 -4.62621271920562
-1.324392596140772 15.686099710428701 -4.540082151194686
-1.4824182155458514 15.557287123309774 -4.456338634667807
-1.6404438349509305 15.428474536190848 -4.372595118140929
-1.79496594551942 15.295672870177341 -4.289014242844624
-1.9397242876673344 15.15175422277326 -4.205886624949699
-2.084482629815249 15.007835575369178 -4.122759007054771
-2.226566126367124 14.861585760837144 -4.039332748939843
-2.3599812266230984 14.707781311926595 -3.954938684765118
-2.493396326879073 14.553976863016043 -3.870544620590392
-2.626235530788891 14.39977782209116 -3.7860067416961045
-2.7505682002849534 14.239750283431036 -3.699344583199543
-2.8749008697810163 14.079722744770912 -3.612682424702982
-2.999233539277079 13.91969520611079 -3.526020266206421
-3.1184005388540346 13.756609836602331 -3.437877384584721
-3.2360842778309946 13.592646447381075 -3.349309330951372
-3.3537680168079547 13.42868305815982 -3.2607412773180227
-3.4697338318379907 13.263474437499555 -3.1722540678660045
-3.583485475754066 13.09666088229758 -3.08387105560581
-3.697237119670141 12.929847327095608 -2.995488043345615
-3.8109129435574145 12.762659825300048 -2.907735243859907
-3.9241210622161216 12.59316558767506 -2.8238699898473065
-4.037329180874829 12.423671350050073 -2.740004735834707
-4.150597548117929 12.254135343441776 -2.6563206476988794
-4.267885662687544 12.081812536766982 -2.58472383192232
-4.385173777257161 11.909489730092185 -2.5131270161457584
-4.504598957069316 11.736819405600299 -2.4470461929851277
-4.632159144683396 11.562826210801484 -2.4019626899215925
-4.7597193322974745 11.388833016002668 -2.356879186858057
-4.900208906327084 11.220232117904928 -2.3556142908226447
-5.0432190427927575 11.052682439104998 -2.3628917595465655
-5.191885279804526 10.914583223486389 -2.445278697965613
-5.335729590172563 10.793261835080086 -2.5526915247263657
-5.463598179210072 10.71370037330519 -2.713618070972521
-5.576439053517513 10.654446458399889 -2.890995902608318
-5.674882215212873 10.614648743518117 -3.084135337614555
-5.763423974411044 10.580637381731137 -3.2826599345004612
-5.841521238913202 10.552729754665066 -3.4868650695429926
-5.917432247142027 10.523009817705065 -3.6915518535982397
-5.9840354754888185 10.485574142303758 -3.8982892128973052
-6.050638703835609 10.44813846690245 -4.105026572196371
-6.112951844860966 10.393058446501877 -4.308822689997825
-6.173640105065899 10.33129558828703 -4.511504805556519
-6.233813033936237 10.264035869957338 -4.712180385069111
-6.291560436320257 10.170903904191709 -4.9034117371519885
-6.349307838704277 10.07777193842608 -5.094643089234866
-6.4061564389219505 9.968415452513 -5.276591896329201
-6.462281850094559 9.846004486235548 -5.451071835303983
-6.518407261267169 9.723593519958097 -5.625551774278766
-6.573639260875307 9.583674487426997 -5.786320263764651
-6.6286848729470655 9.440102843416945 -5.944228209026484
-6.683730485018824 9.29653119940689 -6.102136154288316
-6.737666732240223 9.140974083126464 -6.248632163986256
-6.79156451261415 8.985001374686659 -6.39473246871432
-6.845462292988079 8.829028666246852 -6.540832773442386
-6.897072709907511 8.66736765022891 -6.681469389887242
-6.948643158476051 8.505607239305963 -6.822010536322713
-7.000213607044591 8.343846828383013 -6.962551682758183
-7.046869347500737 8.180705384773447 -7.103206362280803
-7.093123999175841 8.017451235240319 -7.243870307226007
-7.139378650850943 7.854197085707192 -7.384534252171208
-7.176539332598711 7.692077307192166 -7.529093889304929
-7.212184283338382 7.530146599164571 -7.67430283817987
-7.2478292340780515 7.368215891136975 -7.819511787054813
-7.268080318478416 7.2095415135445 -7.970961307056541
-7.285476671167999 7.0514710095695445 -8.123568116325071
-7.302873023857581 6.893400505594591 -8.2761749255936
-7.295076436797827 6.74211592839241 -8.436083818332026
-7.285251811180414 6.59137762015612 -8.596580530791993
-7.271812395296775 6.441903118586962 -8.757597578347198
-7.227386638506266 6.303262093193179 -8.92307498997872
-7.182960881715757 6.164621067799395 -9.088552401610242
-7.12645940334972 6.0314288213271645 -9.253751556541445
-7.045584770585231 5.909234172729931 -9.418389089255967
-6.964710137820742 5.787039524132698 -9.583026621970488
-6.867311965915075 5.673878407585172 -9.744109913146087
-6.754702997730053 5.569033137571319 -9.901921336018276
-6.642094029545033 5.464187867557465 -10.059732758890465
-6.515347626577187 5.36772034572989 -10.211366394440354
-6.378768797231504 5.277079453239184 -10.358703448611958
-6.242189967885818 5.186438560748475 -10.50604050278357
-6.097087019661522 5.100108374336359 -10.647255435386487
-5.943485876084857 5.018075784295691 -10.78236686499952
-5.789884732508192 4.936043194255025 -10.917478294612557
-5.632872393983418 4.854686289124487 -11.048761902529076
-5.466861831183362 4.775111740163345 -11.169948286852389
-5.3008512683833064 4.695537191202202 -11.2911346711757
-5.13484070558325 4.61596264224106 -11.412321055499012
-4.959168269709156 4.533121952335318 -11.516474201510098
-4.783336667651055 4.450227457211208 -11.620346748146439
-4.607505065592952 4.367332962087099 -11.724219294782777
-4.425764500112841 4.278382217871334 -11.81080411337231
-4.241807525093858 4.187159818324865 -11.890904429924536
-4.057850550074873 4.095937418778397 -11.971004746476764
-3.8706683800574204 3.9975101142752574 -12.030432316056107
-3.681371841060231 3.894359427914721 -12.076307274104625
-3.492075302063042 3.791208741554185 -12.122182232153142
-3.303773065478386 3.6798130659016106 -12.135671041492934
-3.1159414404519894 3.564514968601811 -12.133831218700577
-2.9281098154255925 3.4492168713020126 -12.13199139590822
-2.753605333610765 3.328007932720721 -12.074950852617373
-2.5798396876874006 3.2064713063808323 -12.01485006806616
-2.4150086646765287 3.08651497263487 -11.93647209678274
-2.2689717263996365 2.9698828030092788 -11.819647847518917
-2.122934788122744 2.8532506333836873 -11.70282359825509
-1.9992166606643924 2.746714633437679 -11.557226399303968
-1.8868008683877835 2.645291374250943 -11.397058463400189
-1.774385076111171 2.5438681150642033 -11.236890527496405
-1.6887349025803573 2.4606348258342705 -11.052353663106782
-1.607327917280461 2.3802852161177652 -10.863953560899525
-1.525920931980565 2.2999356064012595 -10.675553458692267
-1.467385155854928 2.2414598838778215 -10.471616762940467
-1.4114573737344331 2.185478431169067 -10.265908436204242
-1.355529591613938 2.1294969784603124 -10.060200109468017
-1.3169480790465429 2.096691758554824 -9.84614015870535
-1.2820234914942548 2.0687725312966174 -9.630319526043582
[...]
POINT_DATA 500
SCALARS MaximumInscribedSphereRadius float
LOOKUP_TABLE default
1.5
1.5
1.5
1.5
1.5
1.5
1.5
1.5
1.5
1.5
1.5
1.5
1.5
1.5
1.5
1.5
1.5
1.5
1.5
1.5
1.5
1.5
1.5
1.5
1.5
1.5
1.5
1.5
1.5
1.5
1.5
1.5
1.5
1.5
1.5
1.5
1.5
1.5
1.5
1.5
1.5
1.5
1.5
1.5
1.5
1.5
1.5
1.5
1.5
1.5
1.5
1.5
1.5
1.5
1.5
1.5
1.5
1.5
1.5
1.5
1.5
1.5
1.5
1.5
1.5
1.5
1.5
1.5
1.5
1.5
1.5
1.5
1.5
1.5
1.5
1.5
1.5
1.5
1.5
1.5
1.5
1.5
1.5
1.5
1.5
1.5
1.5
1.5
1.5
1.5
1.5
1.5
1.5
1.5
1.5
1.5
1.5
1.5
1.5
1.5
1.5
1.5
1.5
1.5
1.5
1.5
1.5
1.5
1.5
1.5
1.5
1.5
1.5
1.5
1.5
1.5
1.5
1.5
1.5
1.5
1.5
1.5
1.5
1.5
1.5
1.5
1.5
1.5
1.5
1.5
1.5
1.5
1.5
1.5
1.5
1.5
1.5
1.5
1.5
1.5
1.5
1.5
1.5
1.5
1.5
1.5
1.5
1.5
1.5
1.5
1.5
1.5
1.5
1.5
1.5
1.5
1.5
1.5
1.5
1.5
1.5
1.5
1.5
1.5
1.5
1.5
1.5
1.5
1.5
1.5
1.5
1.5
1.5
1.5
1.5
1.5
1.5
1.5
1.5
1.5
1.5
1.5
1.5
1.5
1.5
1.5
1.5
1.5
1.5
1.5
1.5
1.5
1.5
1.5
1.5
1.5
1.5
1.5
1.5
1.5
1.5
1.5
1.5
1.5
1.5
1.5
1.5
1.5
1.5
1.5
1.5
1.5
1.5
1.5
1.5
1.5
1.5
1.5
1.5
1.5
1.5
1.5
1.5
1.5
1.5
1.5
1.5
1.5
1.5
1.5
1.5
1.5
1.5
1.5
1.5
1.5
1.5
1.5
1.5
1.5
1.5
1.5
1.5
1.5
1.5
1.5
1.5
1.5
1.5
1.5
1.5
1.5
1.5
1.5
1.5
1.5
1.5
1.5
1.5
1.5
1.5
1.5
1.5
1.5
1.5
1.5
1.5
1.5
1.5
1.5
1.5
1.5
1.5
1.5
1.5
1.5
1.5
1.5
1.5
1.5
1.5
1.5
1.5
1.5
1.5
1.5
1.5
1.5
1.5
1.5
1.5
1.5
1.5
1.5
1.5
1.5
1.5
1.5
1.5
1.5
1.5
1.5
1.5
1.5
1.5
1.5
1.5
1.5
1.5
1.5
1.5
1.5
1.5
1.5
1.5
1.5
1.5
1.5
1.5
1.5
1.5
1.5
1.5
1.5
1.5
1.5
1.5
1.5
1.5
1.5
1.5
1.5
1.5
1.5
1.5
1.5
1.5
1.5
1.5
1.5
1.5
1.5
1.5
1.5
1.5
1.5
1.5
1.5
1.5
1.5
1.5
1.5
1.5
1.5
1.5
1.5
1.5
1.5
1.5
1.5
1.5
1.5
1.5
1.5
1.5
1.5
1.5
1.5
1.5
1.5
1.5
1.5
1.5
1.5
1.5
1.5
1.5
1.5
1.5
1.5
1.5
1.5
1.5
1.5
1.5
1.5
1.5
1.5
1.5
1.5
1.5
1.5
1.5
1.5
1.5
1.5
1.5
1.5
1.5
1.5
1.5
1.5
1.5
1.5
1.5
1.5
1.5
1.5
1.5
1.5
1.5
1.5
1.5
1.5
1.5
1.5
1.5
1.5
1.5
1.5
1.5
1.5
1.5
1.5
1.5
1.5
1.5
1.5
1.5
1.5
1.5
1.5
1.5
1.5
1.5
1.5
1.5
1.5
1.5
1.5
1.5
1.5
1.5
1.5
1.5
1.5
1.5
1.5
1.5
1.5
1.5
1.5
1.5
1.5
1.5
1.5
1.5
1.5
1.5
1.5
1.5
1.5
1.5
1.5
1.5
1.5
1.5
1.5
1.5
1.5
1.5
1.5
1.5
1.5
1.5
1.5
1.5
1.5
1.5
1.5
1.5
1.5
1.5
1.5
1.5
1.5
1.5
1.5
1.5
1.5
1.5
1.5
1.5
1.5
1.5
1.5
1.5
1.5
1.5
1.5
