/*--------------------------------*- C++ -*----------------------------------*\
| =========                 |                                                 |
| \\      /  F ield         | OpenFOAM: The Open Source CFD Toolbox           |
|  \\    /   O peration     | Version:  v1612+                                |
|   \\  /    A nd           | Web:      www.OpenFOAM.com                      |
|    \\/     M anipulation  |                                                 |
\*---------------------------------------------------------------------------*/
FoamFile
{
    version     2.0;
    format      ascii;
    class       volVectorField;
    location    "100";
    object      U;
}
// * * * * * * * * * * * * * * * * * * * * * * * * * * * * * * * * * * * * * //

dimensions      [0 1 -1 0 0 0 0];

internalField   nonuniform List<vector> 
17056
(
(-0.263401 0.342735 -0.692154)
(-0.272612 0.323267 -0.62123)
(-0.288544 0.343852 -0.620616)
(-0.328918 0.410523 -0.713737)
(-0.224334 0.299296 -0.561434)
(-0.254964 0.272912 -0.545881)
(-0.220678 0.301069 -0.543406)
(-0.241984 0.290672 -0.551786)
(-0.250933 0.278424 -0.552334)
(-0.242091 0.288184 -0.553161)
(-0.237102 0.298616 -0.554972)
(-0.248345 0.280125 -0.547592)
(-0.230528 0.314524 -0.55953)
(-0.219797 0.322277 -0.564416)
(-0.229104 0.327446 -0.571855)
(-0.214968 0.359023 -0.553538)
(-0.224078 0.361492 -0.57044)
(-0.24 0.321052 -0.568584)
(-0.23705 0.345968 -0.583141)
(-0.231878 0.316217 -0.572218)
(-0.242982 0.311216 -0.561016)
(-0.240191 0.364443 -0.606705)
(-0.241527 0.355795 -0.598766)
(-0.243623 0.355045 -0.604321)
(-0.236578 0.32919 -0.576453)
(-0.236598 0.349097 -0.580949)
(-0.23061 0.358589 -0.593261)
(-0.235007 0.360427 -0.599572)
(-0.240972 0.334599 -0.586465)
(-0.236305 0.323479 -0.576766)
(-0.236535 0.329806 -0.588398)
(-0.295705 0.34816 -0.693409)
(-0.29071 0.344169 -0.690711)
(-0.299873 0.351265 -0.698825)
(-0.297698 0.347476 -0.689308)
(-0.289025 0.335642 -0.674309)
(-0.283535 0.332594 -0.661447)
(-0.290328 0.333368 -0.666252)
(-0.273827 0.31874 -0.627886)
(-0.297618 0.33782 -0.684152)
(-0.29183 0.33729 -0.679306)
(-0.288797 0.332825 -0.667489)
(-0.270817 0.315547 -0.626059)
(-0.291083 0.333889 -0.665142)
(-0.29653 0.342125 -0.684604)
(-0.289467 0.337885 -0.67189)
(-0.29554 0.339317 -0.675086)
(-0.298594 0.34631 -0.694972)
(-0.32436 0.414545 -0.712543)
(-0.326689 0.412808 -0.713703)
(-0.325299 0.414516 -0.715864)
(-0.2929 0.364332 -0.63534)
(-0.314172 0.391107 -0.677154)
(-0.326013 0.409332 -0.706845)
(-0.32284 0.404993 -0.698954)
(-0.306928 0.386293 -0.668615)
(-0.311557 0.392061 -0.68111)
(-0.31664 0.404006 -0.698798)
(-0.306686 0.395741 -0.685177)
(-0.276563 0.290989 -0.5475)
(-0.26884 0.28623 -0.547731)
(-0.264919 0.279179 -0.548986)
(-0.260878 0.278106 -0.545441)
(-0.267209 0.280654 -0.546463)
(-0.283739 0.294064 -0.548495)
(-0.290527 0.291879 -0.549656)
(-0.269061 0.281947 -0.547967)
(-0.265862 0.278226 -0.547562)
(-0.266112 0.272899 -0.539774)
(-0.265329 0.271854 -0.546413)
(-0.250665 0.275154 -0.547863)
(-0.261526 0.27415 -0.545205)
(-0.26865 0.283784 -0.544531)
(-0.259545 0.275707 -0.548269)
(-0.275061 0.286735 -0.54866)
(-0.273654 0.27808 -0.54214)
(-0.268668 0.285717 -0.542268)
(-0.252227 0.271955 -0.54905)
(-0.25633 0.27447 -0.546383)
(-0.232065 0.313219 -0.650703)
(-0.231354 0.317162 -0.637458)
(-0.228895 0.317914 -0.638305)
(-0.227677 0.32033 -0.632083)
(-0.240307 0.331916 -0.652576)
(-0.23921 0.327941 -0.644094)
(-0.227555 0.326542 -0.653396)
(-0.237415 0.340701 -0.669308)
(-0.242142 0.333062 -0.675431)
(-0.234269 0.333448 -0.67469)
(-0.239252 0.342495 -0.679308)
(-0.238902 0.339007 -0.67832)
(-0.233024 0.337214 -0.671609)
(-0.233595 0.336775 -0.678624)
(-0.245194 0.271461 -0.560613)
(-0.246407 0.274329 -0.558343)
(-0.249969 0.270691 -0.552802)
(-0.247347 0.271451 -0.558233)
(-0.240568 0.27355 -0.566301)
(-0.244707 0.271282 -0.562654)
(-0.243178 0.276571 -0.563401)
(-0.238788 0.274364 -0.564579)
(-0.250097 0.272973 -0.551609)
(-0.250616 0.273091 -0.551775)
(-0.249743 0.274883 -0.554645)
(-0.243212 0.27458 -0.565789)
(-0.241491 0.267552 -0.564412)
(-0.246621 0.270669 -0.552283)
(-0.248208 0.272978 -0.552767)
(-0.25266 0.273457 -0.549616)
(-0.250898 0.272928 -0.550982)
(-0.248752 0.273015 -0.551937)
(-0.24532 0.271556 -0.554185)
(-0.25185 0.273035 -0.547835)
(-0.244815 0.275472 -0.556489)
(-0.250052 0.272941 -0.549895)
(-0.265016 0.266292 -0.608989)
(-0.264699 0.262836 -0.602491)
(-0.271964 0.273858 -0.649794)
(-0.263535 0.270799 -0.636217)
(-0.264923 0.272353 -0.623212)
(-0.258997 0.269528 -0.620664)
(-0.277445 0.258642 -0.634047)
(-0.275513 0.264944 -0.628705)
(-0.282657 0.275446 -0.656171)
(-0.283369 0.273502 -0.66886)
(-0.268374 0.258916 -0.638509)
(-0.275006 0.263571 -0.659069)
(-0.265838 0.254868 -0.621756)
(-0.280103 0.264056 -0.657143)
(-0.251334 0.392013 -0.673315)
(-0.251208 0.377162 -0.67159)
(-0.251865 0.376961 -0.641987)
(-0.247141 0.373187 -0.651088)
(-0.260892 0.391091 -0.681788)
(-0.257895 0.386492 -0.673381)
(-0.262957 0.396767 -0.680842)
(-0.256441 0.388914 -0.67595)
(-0.24989 0.380779 -0.652244)
(-0.246677 0.369533 -0.649936)
(-0.25421 0.388686 -0.662904)
(-0.259661 0.390949 -0.674751)
(-0.264262 0.389344 -0.679474)
(-0.26163 0.379217 -0.653939)
(-0.264689 0.40227 -0.678085)
(-0.256213 0.379777 -0.659615)
(-0.267153 0.396563 -0.665746)
(-0.257286 0.391393 -0.666813)
(-0.260531 0.325656 -0.648696)
(-0.269414 0.314253 -0.649639)
(-0.266638 0.313208 -0.647185)
(-0.258309 0.325496 -0.645862)
(-0.278326 0.326509 -0.67502)
(-0.281105 0.323978 -0.673503)
(-0.270549 0.326496 -0.654285)
(-0.269677 0.329786 -0.658222)
(-0.277178 0.319605 -0.664118)
(-0.281004 0.335907 -0.686041)
(-0.280616 0.335322 -0.689881)
(-0.26867 0.333639 -0.660483)
(-0.277116 0.333902 -0.694166)
(-0.276445 0.338689 -0.696696)
(-0.275005 0.332669 -0.674927)
(-0.273655 0.33476 -0.67774)
(-0.304081 0.366256 -0.69944)
(-0.300256 0.362556 -0.69673)
(-0.298701 0.358188 -0.687696)
(-0.30098 0.359648 -0.709285)
(-0.306871 0.366192 -0.706612)
(-0.310825 0.364167 -0.709519)
(-0.308851 0.364599 -0.711145)
(-0.303129 0.362079 -0.69191)
(-0.302619 0.358888 -0.685069)
(-0.307173 0.359873 -0.695204)
(-0.307303 0.357335 -0.699898)
(-0.300738 0.358169 -0.688985)
(-0.307172 0.36656 -0.712414)
(-0.305649 0.36921 -0.708504)
(-0.305218 0.362317 -0.7045)
(-0.311335 0.362713 -0.704112)
(-0.308705 0.363843 -0.708794)
(-0.310039 0.363071 -0.70064)
(-0.311256 0.363016 -0.701256)
(-0.309311 0.365313 -0.701573)
(-0.323491 0.378555 -0.689179)
(-0.32084 0.376915 -0.679567)
(-0.298193 0.347478 -0.630624)
(-0.306345 0.354639 -0.645126)
(-0.332162 0.386877 -0.708859)
(-0.32869 0.382436 -0.695241)
(-0.311437 0.359024 -0.65271)
(-0.294034 0.349783 -0.629032)
(-0.273768 0.324649 -0.588129)
(-0.326079 0.378934 -0.68932)
(-0.302487 0.354456 -0.6432)
(-0.268919 0.324334 -0.582628)
(-0.298205 0.34226 -0.629885)
(-0.310446 0.364501 -0.654397)
(-0.323225 0.288412 -0.580479)
(-0.332365 0.299773 -0.588459)
(-0.297602 0.28476 -0.544789)
(-0.292593 0.28408 -0.543792)
(-0.316374 0.293585 -0.571843)
(-0.331953 0.314119 -0.585077)
(-0.324658 0.310182 -0.585495)
(-0.294083 0.291235 -0.555719)
(-0.296937 0.296366 -0.56334)
(-0.30659 0.296437 -0.566316)
(-0.315773 0.297897 -0.568975)
(-0.301154 0.281985 -0.550343)
(-0.33644 0.318896 -0.587134)
(-0.330338 0.316255 -0.587249)
(-0.30298 0.296811 -0.56038)
(-0.312332 0.30236 -0.573933)
(-0.298597 0.410951 -0.700368)
(-0.296145 0.405778 -0.691039)
(-0.292918 0.401727 -0.696403)
(-0.297006 0.404847 -0.700601)
(-0.296828 0.409657 -0.693387)
(-0.296246 0.406107 -0.696214)
(-0.281647 0.387257 -0.666353)
(-0.296175 0.416571 -0.69481)
(-0.288159 0.403433 -0.679715)
(-0.292066 0.396699 -0.695951)
(-0.293656 0.40364 -0.697722)
(-0.291755 0.40773 -0.689898)
(-0.289714 0.391861 -0.672381)
(-0.294338 0.412796 -0.699893)
(-0.290239 0.402848 -0.693344)
(-0.282714 0.39271 -0.671574)
(-0.290018 0.395617 -0.688082)
(-0.288023 0.401514 -0.692637)
(-0.291098 0.406927 -0.687429)
(-0.315973 0.32362 -0.667497)
(-0.313749 0.317711 -0.664733)
(-0.322576 0.321996 -0.661885)
(-0.319981 0.318235 -0.651794)
(-0.312681 0.315539 -0.666923)
(-0.308898 0.306681 -0.650719)
(-0.303834 0.305786 -0.633847)
(-0.319468 0.318067 -0.654592)
(-0.318862 0.311683 -0.647502)
(-0.311502 0.315741 -0.656397)
(-0.309142 0.31677 -0.654181)
(-0.300846 0.300243 -0.625204)
(-0.29744 0.299752 -0.622082)
(-0.310586 0.313136 -0.66344)
(-0.317827 0.305677 -0.660335)
(-0.322171 0.316701 -0.65164)
(-0.319931 0.305863 -0.651826)
(-0.312447 0.308974 -0.632284)
(-0.306507 0.304312 -0.633949)
(-0.309396 0.303895 -0.643663)
(-0.286053 0.362527 -0.648148)
(-0.273002 0.349104 -0.629102)
(-0.265273 0.334052 -0.599063)
(-0.295197 0.37015 -0.666307)
(-0.282051 0.355547 -0.643213)
(-0.270307 0.338478 -0.605636)
(-0.313968 0.409755 -0.730297)
(-0.28316 0.352161 -0.631013)
(-0.310864 0.390177 -0.69648)
(-0.305823 0.318737 -0.635571)
(-0.315953 0.333169 -0.648333)
(-0.307881 0.324641 -0.644151)
(-0.325047 0.319667 -0.640976)
(-0.307948 0.323286 -0.64171)
(-0.322736 0.327011 -0.647222)
(-0.315743 0.319814 -0.651724)
(-0.322684 0.324335 -0.655013)
(-0.316292 0.328178 -0.654496)
(-0.322656 0.388442 -0.683835)
(-0.313924 0.389001 -0.684449)
(-0.331541 0.401896 -0.700748)
(-0.325938 0.401115 -0.70065)
(-0.317979 0.381926 -0.677792)
(-0.309539 0.376523 -0.670309)
(-0.306687 0.386084 -0.677748)
(-0.331615 0.402339 -0.70341)
(-0.321624 0.395949 -0.697367)
(-0.325388 0.389035 -0.686259)
(-0.309774 0.386142 -0.679416)
(-0.314551 0.375289 -0.673342)
(-0.318248 0.383797 -0.683886)
(-0.326737 0.396255 -0.698554)
(-0.32046 0.391255 -0.692767)
(-0.334966 0.426059 -0.754284)
(-0.326738 0.418079 -0.731965)
(-0.331244 0.420406 -0.747639)
(-0.317395 0.405292 -0.718781)
(-0.329966 0.426946 -0.753664)
(-0.311989 0.386349 -0.693774)
(-0.243518 0.292578 -0.555922)
(-0.24659 0.28748 -0.550745)
(-0.234377 0.308505 -0.562952)
(-0.242644 0.305398 -0.564757)
(-0.234321 0.304097 -0.552396)
(-0.241314 0.318977 -0.569154)
(-0.24084 0.327803 -0.569675)
(-0.241835 0.311788 -0.559867)
(-0.240928 0.312258 -0.551814)
(-0.245334 0.310844 -0.556192)
(-0.236847 0.30866 -0.557028)
(-0.311735 0.392963 -0.722034)
(-0.312483 0.392718 -0.7192)
(-0.311343 0.382483 -0.703642)
(-0.30946 0.382385 -0.702128)
(-0.3115 0.39298 -0.711957)
(-0.313158 0.390085 -0.709191)
(-0.308069 0.375058 -0.705795)
(-0.309684 0.37532 -0.711079)
(-0.310337 0.379708 -0.698685)
(-0.30672 0.379316 -0.70277)
(-0.31159 0.386375 -0.720718)
(-0.311686 0.383386 -0.71995)
(-0.310238 0.391499 -0.718355)
(-0.30857 0.383627 -0.712074)
(-0.309206 0.383304 -0.71626)
(-0.312445 0.383314 -0.70711)
(-0.306706 0.38189 -0.704844)
(-0.312918 0.375523 -0.702356)
(-0.310603 0.378182 -0.711487)
(-0.315504 0.376872 -0.702433)
(-0.317026 0.381112 -0.708773)
(-0.315316 0.379639 -0.712262)
(-0.300345 0.347823 -0.676861)
(-0.299376 0.350388 -0.680004)
(-0.29582 0.352485 -0.684718)
(-0.301421 0.350106 -0.672416)
(-0.298796 0.350662 -0.667301)
(-0.298182 0.347243 -0.677301)
(-0.297326 0.347962 -0.682805)
(-0.29355 0.341221 -0.662254)
(-0.287938 0.346582 -0.666017)
(-0.288132 0.341875 -0.66509)
(-0.290665 0.339192 -0.671788)
(-0.287976 0.351014 -0.67758)
(-0.295577 0.343909 -0.683591)
(-0.293357 0.350537 -0.676795)
(-0.288181 0.34444 -0.66927)
(-0.288507 0.346161 -0.66688)
(-0.330198 0.391619 -0.718894)
(-0.333913 0.393097 -0.724578)
(-0.331549 0.392382 -0.721654)
(-0.328057 0.384968 -0.712047)
(-0.332603 0.385673 -0.720749)
(-0.334167 0.392653 -0.731227)
(-0.335061 0.389301 -0.725729)
(-0.321984 0.387117 -0.713159)
(-0.32999 0.389961 -0.71889)
(-0.329421 0.382599 -0.71428)
(-0.33328 0.388038 -0.719611)
(-0.337727 0.392325 -0.730873)
(-0.340775 0.387898 -0.72699)
(-0.321992 0.384184 -0.71802)
(-0.334211 0.390528 -0.73027)
(-0.334677 0.391329 -0.729735)
(-0.324837 0.38797 -0.722985)
(-0.326267 0.38973 -0.721757)
(-0.331568 0.386187 -0.719642)
(-0.33314 0.387712 -0.722945)
(-0.329096 0.383893 -0.723133)
(-0.329328 0.38346 -0.716448)
(-0.333873 0.387833 -0.72362)
(-0.300053 0.365426 -0.709573)
(-0.2986 0.359456 -0.705537)
(-0.30133 0.36139 -0.702829)
(-0.300188 0.363418 -0.707406)
(-0.30314 0.359913 -0.700266)
(-0.295121 0.351829 -0.697267)
(-0.30319 0.356367 -0.701755)
(-0.301033 0.352263 -0.698288)
(-0.301104 0.355154 -0.695458)
(-0.294378 0.350898 -0.694836)
(-0.293262 0.351033 -0.701081)
(-0.302825 0.355268 -0.700601)
(-0.294556 0.346626 -0.691235)
(-0.299807 0.351473 -0.693559)
(-0.300983 0.355209 -0.70008)
(-0.300547 0.344485 -0.694075)
(-0.326826 0.391561 -0.676783)
(-0.320039 0.382689 -0.669937)
(-0.333227 0.39244 -0.682152)
(-0.333747 0.391047 -0.677916)
(-0.327531 0.390169 -0.67311)
(-0.316037 0.376551 -0.663862)
(-0.327903 0.389296 -0.673819)
(-0.324671 0.389163 -0.666989)
(-0.331557 0.384754 -0.67711)
(-0.31859 0.377811 -0.661055)
(-0.332549 0.392977 -0.677745)
(-0.331082 0.37627 -0.668941)
(-0.331916 0.371209 -0.662248)
(-0.327536 0.377106 -0.66239)
(-0.331093 0.376987 -0.671536)
(-0.321823 0.371193 -0.658423)
(-0.276215 0.383606 -0.698513)
(-0.275883 0.381297 -0.684318)
(-0.270095 0.382971 -0.675118)
(-0.267689 0.379271 -0.679611)
(-0.267459 0.387581 -0.694538)
(-0.276483 0.394645 -0.691894)
(-0.280751 0.400546 -0.710608)
(-0.265974 0.371966 -0.669695)
(-0.261945 0.374462 -0.679272)
(-0.262405 0.378188 -0.673164)
(-0.275431 0.389301 -0.692469)
(-0.275371 0.38197 -0.696129)
(-0.272385 0.380862 -0.69793)
(-0.268439 0.385767 -0.69445)
(-0.271158 0.377315 -0.684004)
(-0.315301 0.372434 -0.715192)
(-0.317726 0.374078 -0.715962)
(-0.313392 0.367072 -0.705993)
(-0.308606 0.363193 -0.699259)
(-0.313479 0.369411 -0.712496)
(-0.319631 0.370013 -0.718223)
(-0.317965 0.372011 -0.720561)
(-0.314331 0.370428 -0.713146)
(-0.314798 0.371142 -0.708602)
(-0.32351 0.3766 -0.718459)
(-0.32314 0.371443 -0.714231)
(-0.315425 0.372188 -0.712292)
(-0.315134 0.367391 -0.707929)
(-0.321402 0.374377 -0.715911)
(-0.32233 0.370742 -0.714095)
(-0.293679 0.336066 -0.660179)
(-0.294847 0.339842 -0.657031)
(-0.295933 0.331887 -0.655249)
(-0.289502 0.341166 -0.649787)
(-0.290049 0.347696 -0.65294)
(-0.286335 0.331521 -0.631892)
(-0.299616 0.337913 -0.663438)
(-0.302831 0.339062 -0.668764)
(-0.289125 0.332532 -0.634023)
(-0.291201 0.335893 -0.647156)
(-0.301849 0.340557 -0.65522)
(-0.304974 0.340527 -0.665488)
(-0.2888 0.336017 -0.64059)
(-0.295845 0.345262 -0.651174)
(-0.291648 0.342509 -0.644449)
(-0.311819 0.393265 -0.676263)
(-0.303568 0.391714 -0.679226)
(-0.312163 0.396015 -0.684052)
(-0.317869 0.397026 -0.685504)
(-0.312416 0.39876 -0.683891)
(-0.309857 0.395583 -0.681214)
(-0.324445 0.405138 -0.702635)
(-0.31828 0.403844 -0.698688)
(-0.321366 0.411986 -0.704577)
(-0.309784 0.394674 -0.691578)
(-0.32539 0.411081 -0.71137)
(-0.32332 0.411599 -0.704573)
(-0.319969 0.407578 -0.700623)
(-0.31295 0.406481 -0.699656)
(-0.320103 0.413319 -0.710556)
(-0.318576 0.414174 -0.707055)
(-0.325749 0.3425 -0.622574)
(-0.315707 0.339917 -0.610093)
(-0.314626 0.341663 -0.613238)
(-0.312509 0.335579 -0.607815)
(-0.33734 0.349338 -0.647482)
(-0.338834 0.351219 -0.649088)
(-0.324086 0.347671 -0.623984)
(-0.325153 0.333973 -0.615941)
(-0.3233 0.341862 -0.626309)
(-0.33531 0.341936 -0.643953)
(-0.335837 0.354878 -0.647101)
(-0.313365 0.32866 -0.610627)
(-0.322306 0.342222 -0.635166)
(-0.325051 0.343748 -0.63901)
(-0.328664 0.349097 -0.640499)
(-0.334274 0.354725 -0.640515)
(-0.33377 0.341426 -0.638578)
(-0.320034 0.332162 -0.617539)
(-0.321646 0.335172 -0.63022)
(-0.323973 0.335585 -0.629278)
(-0.228151 0.311463 -0.577684)
(-0.21859 0.315353 -0.587861)
(-0.2208 0.332848 -0.593499)
(-0.216235 0.328909 -0.603836)
(-0.223264 0.331546 -0.608759)
(-0.225294 0.347172 -0.614703)
(-0.227473 0.296825 -0.5666)
(-0.230453 0.295 -0.562508)
(-0.229548 0.327487 -0.589265)
(-0.226604 0.333306 -0.59829)
(-0.225147 0.331822 -0.599163)
(-0.229627 0.310061 -0.575614)
(-0.232536 0.313111 -0.577038)
(-0.237207 0.325697 -0.582248)
(-0.223518 0.3353 -0.602311)
(-0.23064 0.306276 -0.57153)
(-0.229932 0.313834 -0.576186)
(-0.236329 0.326567 -0.579822)
(-0.289673 0.384048 -0.666639)
(-0.297536 0.39899 -0.676142)
(-0.29914 0.396079 -0.674394)
(-0.29362 0.392492 -0.673325)
(-0.298722 0.399906 -0.682194)
(-0.303335 0.400724 -0.685266)
(-0.304457 0.400179 -0.682521)
(-0.302329 0.391247 -0.673993)
(-0.301548 0.397045 -0.679256)
(-0.292426 0.377519 -0.651126)
(-0.288 0.372113 -0.6472)
(-0.292289 0.384153 -0.665113)
(-0.296031 0.387736 -0.676222)
(-0.302007 0.38138 -0.664084)
(-0.290662 0.370387 -0.648895)
(-0.297155 0.382112 -0.658768)
(-0.301984 0.383059 -0.656126)
(-0.29061 0.370869 -0.651154)
(-0.330972 0.37424 -0.705133)
(-0.315617 0.357109 -0.66954)
(-0.328463 0.371419 -0.699695)
(-0.322667 0.363025 -0.685119)
(-0.327108 0.377247 -0.701996)
(-0.328006 0.369336 -0.695398)
(-0.325101 0.365307 -0.684919)
(-0.313867 0.360066 -0.665781)
(-0.321983 0.363564 -0.680965)
(-0.309901 0.358442 -0.665758)
(-0.31288 0.355971 -0.67006)
(-0.330144 0.376926 -0.702673)
(-0.331432 0.378586 -0.70364)
(-0.329162 0.374373 -0.703335)
(-0.330443 0.37725 -0.707559)
(-0.328437 0.382603 -0.703542)
(-0.322651 0.370627 -0.690121)
(-0.322959 0.3699 -0.685939)
(-0.326562 0.374744 -0.693959)
(-0.331652 0.381343 -0.707651)
(-0.327045 0.381142 -0.702076)
(-0.332264 0.385202 -0.708867)
(-0.321837 0.357967 -0.623147)
(-0.327954 0.354838 -0.628662)
(-0.34008 0.382591 -0.648071)
(-0.334588 0.386377 -0.64583)
(-0.343163 0.380344 -0.645521)
(-0.33411 0.373644 -0.639752)
(-0.323718 0.359005 -0.63608)
(-0.315016 0.34994 -0.625702)
(-0.332884 0.359627 -0.631117)
(-0.314934 0.354485 -0.61869)
(-0.334994 0.367404 -0.642828)
(-0.340196 0.382628 -0.653868)
(-0.330859 0.372965 -0.639323)
(-0.325046 0.367954 -0.631779)
(-0.339842 0.376409 -0.640993)
(-0.334509 0.366236 -0.643667)
(-0.329258 0.361499 -0.631239)
(-0.335101 0.380514 -0.649239)
(-0.325269 0.366634 -0.62843)
(-0.34338 0.372639 -0.649808)
(-0.342298 0.368024 -0.645127)
(-0.318877 0.365375 -0.641814)
(-0.320007 0.369257 -0.635839)
(-0.325089 0.363579 -0.630221)
(-0.340564 0.375492 -0.640125)
(-0.337595 0.37156 -0.634876)
(-0.332999 0.371597 -0.645709)
(-0.338427 0.370652 -0.643619)
(-0.25599 0.275474 -0.547139)
(-0.268513 0.283631 -0.546042)
(-0.264606 0.294704 -0.545784)
(-0.256619 0.2839 -0.539819)
(-0.270795 0.289921 -0.538838)
(-0.253728 0.277555 -0.549083)
(-0.266563 0.301315 -0.529461)
(-0.254721 0.277655 -0.544749)
(-0.281013 0.317292 -0.545898)
(-0.278282 0.314656 -0.545558)
(-0.258921 0.29483 -0.546195)
(-0.296771 0.323019 -0.548958)
(-0.274991 0.315566 -0.544489)
(-0.289572 0.386654 -0.638965)
(-0.294773 0.38665 -0.639616)
(-0.295575 0.407402 -0.649689)
(-0.290885 0.402499 -0.64439)
(-0.288937 0.405096 -0.639837)
(-0.28192 0.393861 -0.632447)
(-0.28732 0.400927 -0.634696)
(-0.28951 0.406073 -0.642122)
(-0.287244 0.414654 -0.631191)
(-0.297437 0.412109 -0.632701)
(-0.295194 0.407383 -0.631235)
(-0.302719 0.401583 -0.637926)
(-0.292152 0.411134 -0.641358)
(-0.304793 0.419959 -0.649831)
(-0.276847 0.327724 -0.632247)
(-0.27896 0.331754 -0.631411)
(-0.313965 0.367265 -0.712274)
(-0.303338 0.359465 -0.696293)
(-0.286133 0.333603 -0.649943)
(-0.290691 0.338328 -0.656181)
(-0.295665 0.347479 -0.668879)
(-0.308154 0.357504 -0.699128)
(-0.314045 0.364912 -0.71141)
(-0.309618 0.366369 -0.706655)
(-0.31248 0.366165 -0.712162)
(-0.326216 0.392248 -0.710493)
(-0.327982 0.390682 -0.708878)
(-0.324613 0.395994 -0.706433)
(-0.336304 0.391119 -0.712187)
(-0.336458 0.391399 -0.713997)
(-0.334287 0.396569 -0.713172)
(-0.334621 0.398066 -0.714076)
(-0.33202 0.388422 -0.707583)
(-0.335455 0.399683 -0.713705)
(-0.328974 0.387008 -0.706213)
(-0.333872 0.399104 -0.712678)
(-0.331471 0.400776 -0.7087)
(-0.327498 0.386178 -0.704933)
(-0.334245 0.3927 -0.707957)
(-0.327146 0.389035 -0.703028)
(-0.336674 0.393566 -0.709218)
(-0.336305 0.397206 -0.714914)
(-0.248205 0.292421 -0.555791)
(-0.244011 0.291752 -0.552674)
(-0.251916 0.295902 -0.557773)
(-0.249879 0.283549 -0.552916)
(-0.24939 0.284216 -0.551854)
(-0.247168 0.30649 -0.562663)
(-0.251147 0.28753 -0.552847)
(-0.249152 0.294376 -0.556305)
(-0.251925 0.288256 -0.549144)
(-0.250617 0.294929 -0.553925)
(-0.24948 0.309908 -0.561138)
(-0.248026 0.31175 -0.55343)
(-0.251069 0.296303 -0.55694)
(-0.249735 0.293128 -0.55242)
(-0.249705 0.28403 -0.550607)
(-0.328073 0.41744 -0.73955)
(-0.317915 0.40816 -0.724413)
(-0.329681 0.420297 -0.746994)
(-0.325299 0.41951 -0.750383)
(-0.329674 0.422366 -0.748116)
(-0.326111 0.417021 -0.743797)
(-0.328272 0.421562 -0.747756)
(-0.31895 0.409147 -0.725667)
(-0.322164 0.416452 -0.734214)
(-0.336325 0.428826 -0.754465)
(-0.3289 0.418751 -0.742683)
(-0.332067 0.424517 -0.753942)
(-0.323379 0.41433 -0.737077)
(-0.320519 0.416643 -0.738376)
(-0.323156 0.410395 -0.72968)
(-0.31549 0.405924 -0.724222)
(-0.308062 0.344349 -0.662643)
(-0.312325 0.345721 -0.677483)
(-0.317173 0.34339 -0.675987)
(-0.321844 0.350238 -0.681178)
(-0.317771 0.343497 -0.677357)
(-0.316129 0.345633 -0.670469)
(-0.316503 0.344465 -0.664528)
(-0.323969 0.350149 -0.677793)
(-0.325709 0.348597 -0.678591)
(-0.307553 0.339943 -0.672174)
(-0.318668 0.339866 -0.673568)
(-0.306456 0.348471 -0.663933)
(-0.314996 0.347084 -0.6776)
(-0.323467 0.34437 -0.673959)
(-0.258642 0.283717 -0.549027)
(-0.258308 0.280749 -0.551703)
(-0.254624 0.286342 -0.552864)
(-0.255434 0.282315 -0.551804)
(-0.254 0.273683 -0.549469)
(-0.254 0.27568 -0.548778)
(-0.253463 0.274037 -0.54826)
(-0.255001 0.274935 -0.547714)
(-0.251941 0.27293 -0.549763)
(-0.252664 0.277522 -0.551591)
(-0.255859 0.277617 -0.553084)
(-0.254609 0.276986 -0.54951)
(-0.251987 0.278115 -0.551404)
(-0.253926 0.274849 -0.549944)
(-0.252188 0.274241 -0.549826)
(-0.252768 0.273177 -0.548914)
(-0.256579 0.273486 -0.549873)
(-0.253523 0.2781 -0.549861)
(-0.2521 0.274984 -0.549664)
(-0.253275 0.273297 -0.548998)
(-0.303228 0.349283 -0.570175)
(-0.302272 0.348561 -0.566773)
(-0.294214 0.326671 -0.555434)
(-0.282426 0.340972 -0.558253)
(-0.274789 0.326029 -0.553278)
(-0.269776 0.318601 -0.555321)
(-0.258794 0.296048 -0.550342)
(-0.277043 0.306698 -0.544252)
(-0.28039 0.315835 -0.540853)
(-0.297334 0.334071 -0.56182)
(-0.2813 0.323526 -0.557414)
(-0.281987 0.325789 -0.550023)
(-0.258589 0.288014 -0.5401)
(-0.267346 0.301554 -0.552973)
(-0.276607 0.274173 -0.557499)
(-0.28075 0.278583 -0.561446)
(-0.275311 0.277293 -0.549935)
(-0.278219 0.278996 -0.551667)
(-0.311424 0.278698 -0.571991)
(-0.306099 0.278729 -0.56625)
(-0.294561 0.276616 -0.574031)
(-0.291214 0.281382 -0.57172)
(-0.280419 0.283927 -0.558693)
(-0.281681 0.287022 -0.550361)
(-0.314006 0.298784 -0.57228)
(-0.313857 0.283131 -0.575326)
(-0.308741 0.287653 -0.581484)
(-0.313834 0.291862 -0.57981)
(-0.300516 0.290079 -0.564495)
(-0.30147 0.291115 -0.571)
(-0.248556 0.283133 -0.558149)
(-0.245278 0.289273 -0.558373)
(-0.241657 0.286975 -0.557004)
(-0.253883 0.279722 -0.55196)
(-0.246607 0.281518 -0.558904)
(-0.242556 0.27992 -0.558189)
(-0.249952 0.280062 -0.552203)
(-0.253197 0.277051 -0.552498)
(-0.253542 0.276976 -0.55412)
(-0.249574 0.274102 -0.55273)
(-0.249563 0.274556 -0.550595)
(-0.251459 0.275496 -0.551976)
(-0.250182 0.273427 -0.553643)
(-0.253377 0.273624 -0.549889)
(-0.24955 0.274098 -0.55013)
(-0.250794 0.275466 -0.550271)
(-0.252152 0.273941 -0.549727)
(-0.248423 0.273055 -0.552486)
(-0.251593 0.272531 -0.549498)
(-0.251244 0.273044 -0.550084)
(-0.242537 0.378265 -0.664056)
(-0.243183 0.379356 -0.676064)
(-0.23776 0.336138 -0.608741)
(-0.232745 0.335741 -0.612561)
(-0.242204 0.355673 -0.639014)
(-0.242036 0.35905 -0.63664)
(-0.233235 0.354686 -0.623657)
(-0.234522 0.348845 -0.624039)
(-0.242018 0.377889 -0.664852)
(-0.238038 0.372909 -0.671777)
(-0.243813 0.370252 -0.66672)
(-0.232115 0.338827 -0.626293)
(-0.233848 0.339228 -0.624909)
(-0.225406 0.343339 -0.616673)
(-0.240244 0.363436 -0.671677)
(-0.237809 0.368852 -0.673161)
(-0.225308 0.362874 -0.648149)
(-0.231134 0.349475 -0.637688)
(-0.234077 0.364405 -0.657288)
(-0.233387 0.355555 -0.652716)
(-0.305465 0.383534 -0.669302)
(-0.299439 0.378484 -0.662597)
(-0.29625 0.374017 -0.645188)
(-0.299613 0.386531 -0.673931)
(-0.284453 0.357005 -0.627837)
(-0.308174 0.391267 -0.68092)
(-0.303119 0.394457 -0.682289)
(-0.29635 0.377048 -0.658556)
(-0.325442 0.417627 -0.720321)
(-0.322449 0.41152 -0.717152)
(-0.310919 0.391517 -0.680246)
(-0.248711 0.289147 -0.551618)
(-0.287936 0.327198 -0.624566)
(-0.272751 0.308205 -0.58428)
(-0.294601 0.337833 -0.641636)
(-0.293958 0.337235 -0.652251)
(-0.279826 0.317026 -0.599042)
(-0.28598 0.329234 -0.633832)
(-0.300885 0.342047 -0.657804)
(-0.273442 0.312551 -0.6036)
(-0.303284 0.341433 -0.656211)
(-0.283789 0.31808 -0.610352)
(-0.317488 0.357573 -0.690714)
(-0.316869 0.356 -0.684086)
(-0.304994 0.346315 -0.660723)
(-0.314308 0.360884 -0.690026)
(-0.314357 0.363313 -0.692817)
(-0.321233 0.359464 -0.692585)
(-0.315201 0.355087 -0.688226)
(-0.319892 0.362502 -0.693712)
(-0.320075 0.361835 -0.695092)
(-0.306958 0.380731 -0.713744)
(-0.307034 0.387526 -0.724501)
(-0.310443 0.391424 -0.735158)
(-0.299788 0.380531 -0.717024)
(-0.306031 0.386892 -0.722037)
(-0.315592 0.391317 -0.732397)
(-0.288943 0.357924 -0.673755)
(-0.281642 0.348558 -0.659576)
(-0.286454 0.36147 -0.675112)
(-0.272268 0.34312 -0.646338)
(-0.309006 0.384541 -0.715567)
(-0.290763 0.356491 -0.675768)
(-0.290911 0.362235 -0.671021)
(-0.268551 0.343811 -0.631943)
(-0.276731 0.346824 -0.638988)
(-0.283157 0.354419 -0.665735)
(-0.280192 0.34102 -0.651055)
(-0.267344 0.320995 -0.60379)
(-0.291828 0.36591 -0.677883)
(-0.281009 0.350983 -0.655377)
(-0.268912 0.331419 -0.616126)
(-0.334537 0.403771 -0.730721)
(-0.329861 0.403873 -0.732736)
(-0.339748 0.402488 -0.733371)
(-0.33249 0.401456 -0.728876)
(-0.338497 0.401238 -0.733051)
(-0.336054 0.399784 -0.73516)
(-0.339528 0.397465 -0.739607)
(-0.33876 0.405308 -0.740728)
(-0.327642 0.394768 -0.725389)
(-0.330651 0.394987 -0.727935)
(-0.338924 0.397631 -0.736318)
(-0.328962 0.391154 -0.727663)
(-0.334353 0.392048 -0.733305)
(-0.289487 0.352472 -0.698247)
(-0.290013 0.349232 -0.694656)
(-0.283324 0.339077 -0.66754)
(-0.276582 0.335345 -0.662583)
(-0.27844 0.337961 -0.665646)
(-0.276576 0.332542 -0.66157)
(-0.292359 0.354492 -0.70184)
(-0.289973 0.351755 -0.698448)
(-0.284445 0.349657 -0.679593)
(-0.276121 0.336979 -0.659036)
(-0.27867 0.338128 -0.661607)
(-0.265007 0.326686 -0.632571)
(-0.294182 0.359166 -0.70749)
(-0.298363 0.363669 -0.710311)
(-0.29488 0.362084 -0.707041)
(-0.275554 0.342672 -0.659119)
(-0.270525 0.31851 -0.629437)
(-0.279496 0.342393 -0.66249)
(-0.297979 0.363069 -0.710323)
(-0.28154 0.341116 -0.663029)
(-0.284602 0.35746 -0.683904)
(-0.295564 0.322703 -0.600746)
(-0.3005 0.336274 -0.608858)
(-0.3003 0.340018 -0.61102)
(-0.301442 0.34119 -0.601121)
(-0.304565 0.330238 -0.59596)
(-0.324845 0.34827 -0.613044)
(-0.309981 0.33366 -0.596211)
(-0.305472 0.333062 -0.591101)
(-0.332296 0.354471 -0.62397)
(-0.290245 0.333045 -0.664991)
(-0.287076 0.328639 -0.648244)
(-0.292305 0.334725 -0.66643)
(-0.280422 0.325201 -0.643115)
(-0.292931 0.336441 -0.667778)
(-0.290071 0.335589 -0.664408)
(-0.277389 0.318651 -0.627022)
(-0.301827 0.346959 -0.685804)
(-0.305167 0.352308 -0.693913)
(-0.307958 0.348082 -0.695622)
(-0.300263 0.342228 -0.681988)
(-0.301824 0.343406 -0.691616)
(-0.231746 0.293355 -0.552051)
(-0.269059 0.252282 -0.555618)
(-0.316203 0.252206 -0.552231)
(-0.2722 0.254192 -0.55313)
(-0.269965 0.263667 -0.548329)
(-0.256337 0.259838 -0.5563)
(-0.272648 0.263849 -0.546559)
(-0.276364 0.265143 -0.546479)
(-0.299418 0.285517 -0.53395)
(-0.260071 0.272371 -0.54545)
(-0.310713 0.276612 -0.540071)
(-0.280922 0.274281 -0.541041)
(-0.245067 0.266355 -0.558039)
(-0.250963 0.268812 -0.555193)
(-0.248762 0.264139 -0.556158)
(-0.237256 0.27337 -0.562228)
(-0.261714 0.279209 -0.542193)
(-0.266642 0.270915 -0.543337)
(-0.219565 0.288431 -0.5628)
(-0.199173 0.287142 -0.586641)
(-0.229272 0.274243 -0.559775)
(-0.303572 0.309382 -0.526502)
(-0.223468 0.252585 -0.589209)
(-0.242076 0.266533 -0.55765)
(-0.234775 0.271708 -0.561259)
(-0.238138 0.267433 -0.563717)
(-0.268988 0.287297 -0.539154)
(-0.201367 0.323258 -0.566907)
(-0.263593 0.288517 -0.539242)
(-0.235383 0.288482 -0.552123)
(-0.251633 0.279808 -0.547539)
(-0.245712 0.286587 -0.546099)
(-0.267648 0.292361 -0.536966)
(-0.266245 0.300893 -0.532337)
(-0.252359 0.281223 -0.543696)
(-0.256813 0.298051 -0.537063)
(-0.270049 0.339211 -0.529789)
(-0.250521 0.360655 -0.523261)
(-0.24724 0.294427 -0.538995)
(-0.286384 0.325645 -0.611766)
(-0.271278 0.310651 -0.585085)
(-0.261434 0.311151 -0.57461)
(-0.266652 0.310692 -0.572806)
(-0.255278 0.299192 -0.555036)
(-0.26777 0.325499 -0.571992)
(-0.27505 0.320661 -0.584081)
(-0.266336 0.316516 -0.575659)
(-0.263802 0.32203 -0.611976)
(-0.262058 0.308463 -0.596993)
(-0.248918 0.309217 -0.569249)
(-0.255792 0.299623 -0.562709)
(-0.270978 0.316148 -0.587279)
(-0.276018 0.316367 -0.594502)
(-0.267936 0.311058 -0.583699)
(-0.26548 0.306693 -0.586564)
(-0.26322 0.309882 -0.581894)
(-0.262963 0.336427 -0.619325)
(-0.256604 0.317524 -0.594421)
(-0.25123 0.313602 -0.573739)
(-0.277718 0.334375 -0.604588)
(-0.273041 0.334893 -0.596346)
(-0.263555 0.335571 -0.598406)
(-0.273959 0.34471 -0.611551)
(-0.263267 0.338968 -0.592899)
(-0.275314 0.356644 -0.639337)
(-0.263877 0.332822 -0.605772)
(-0.268964 0.349259 -0.626965)
(-0.26957 0.324682 -0.590236)
(-0.26503 0.323898 -0.574891)
(-0.255089 0.313847 -0.583306)
(-0.253444 0.3107 -0.579742)
(-0.264259 0.315009 -0.592857)
(-0.257594 0.304858 -0.579182)
(-0.261901 0.314282 -0.574821)
(-0.278227 0.334674 -0.59687)
(-0.261597 0.328929 -0.608486)
(-0.260397 0.326451 -0.599962)
(-0.264038 0.307727 -0.587435)
(-0.27307 0.312379 -0.595643)
(-0.283307 0.345217 -0.615293)
(-0.278922 0.345624 -0.620556)
(-0.272321 0.351751 -0.630147)
(-0.262517 0.341725 -0.619193)
(-0.257661 0.330158 -0.60159)
(-0.269453 0.357991 -0.648162)
(-0.26084 0.326957 -0.612846)
(-0.26462 0.33016 -0.613784)
(-0.258227 0.313724 -0.596282)
(-0.26492 0.3151 -0.610864)
(-0.259037 0.308278 -0.595825)
(-0.293615 0.336981 -0.619287)
(-0.26195 0.30808 -0.568127)
(-0.271255 0.312401 -0.585042)