/*--------------------------------*- C++ -*----------------------------------*\
| =========                 |                                                 |
| \\      /  F ield         | OpenFOAM: The Open Source CFD Toolbox           |
|  \\    /   O peration     | Version:  v1612+                                |
|   \\  /    A nd           | Web:      www.OpenFOAM.com                      |
|    \\/     M anipulation  |                                                 |
\*---------------------------------------------------------------------------*/
FoamFile
{
    version     2.0;
    format      ascii;
    class       surfaceScalarField;
    location    "100";
    object      phi;
}
// * * * * * * * * * * * * * * * * * * * * * * * * * * * * * * * * * * * * * //

dimensions      [0 3 -1 0 0 0 0];

internalField   nonuniform List<scalar> 
41233
(
-1.21175e-08
-2.72089e-09
4.59783e-09
4.62782e-09
-4.58982e-09
1.17885e-08
-1.18267e-08
2.1015e-09
3.13187e-09
-1.37794e-09
-3.85529e-09
5.89742e-09
-6.53988e-09
9.82673e-09
-9.18435e-09
7.91011e-09
3.67119e-09
-5.9908e-09
-5.5905e-09
-2.45112e-09
5.43936e-09
4.92194e-09
-1.20085e-09
-3.65543e-09
2.80192e-09
2.0544e-09
-5.14205e-09
1.49013e-09
-5.47018e-09
3.37386e-09
7.53568e-09
-6.48895e-10
-1.15013e-09
1.3652e-09
-3.16677e-09
-1.85384e-09
-2.56408e-09
3.86553e-09
6.3775e-11
-3.06727e-09
-8.06557e-09
1.96609e-09
-8.20004e-09
3.83538e-09
-4.43337e-09
-1.7169e-09
4.90337e-09
-3.48589e-10
7.54104e-09
-3.81862e-09
-1.90247e-09
-2.16194e-09
3.71579e-09
-4.26263e-10
1.32562e-09
-3.05857e-09
4.70356e-10
-2.94987e-11
8.36421e-10
-7.24383e-09
-5.02174e-10
4.03435e-09
3.7117e-09
-7.37408e-09
3.88639e-09
-3.75613e-09
-8.47197e-09
4.18985e-09
3.77995e-09
-1.27875e-09
-6.2104e-10
-6.57214e-09
-1.36351e-09
-7.28931e-09
-4.85699e-09
3.16596e-09
5.72544e-09
-1.56272e-09
5.92257e-10
6.78504e-09
-5.60894e-09
3.01378e-09
-1.85317e-09
9.29959e-09
-8.06737e-09
5.74831e-09
2.56161e-10
-7.36789e-09
6.58112e-09
-8.15606e-09
1.8781e-09
-3.03103e-10
3.55266e-09
-5.7295e-09
8.75802e-09
3.6997e-09
4.85967e-10
7.56573e-09
-9.16272e-09
-2.91465e-09
9.63326e-09
1.19844e-08
-8.11399e-09
2.5017e-09
-3.09196e-09
4.71931e-10
2.57405e-09
-4.69764e-09
5.5757e-09
-3.45221e-09
7.51374e-09
-1.96691e-09
-2.9728e-09
-1.0972e-09
-6.00574e-09
2.40533e-09
-4.73449e-09
7.87674e-09
-1.12595e-08
8.1173e-09
3.82071e-09
-9.57277e-09
4.65488e-09
-1.0358e-09
-5.19998e-09
-5.47219e-09
1.17079e-08
3.26936e-09
2.48343e-09
-1.77152e-10
7.72918e-09
3.0539e-09
-5.32944e-09
2.39437e-09
-3.07067e-09
-2.37077e-09
-3.99446e-09
7.88503e-09
-2.62796e-09
-1.0457e-08
1.15347e-09
1.99708e-09
-8.81611e-10
3.35392e-09
-4.84305e-09
4.97075e-09
-8.4803e-09
2.6919e-09
5.64992e-09
-3.37102e-09
3.83987e-09
-1.57124e-09
4.23322e-10
-1.40052e-09
3.42673e-10
-4.19472e-09
6.06769e-09
2.6087e-09
3.8218e-10
8.99583e-09
4.41364e-09
-1.46305e-08
1.22095e-09
-7.41445e-09
7.5288e-09
8.88143e-09
1.32397e-08
-1.23012e-08
3.47498e-09
4.10634e-09
-4.89865e-09
1.40319e-08
7.53702e-10
-1.0816e-08
-4.56837e-09
-2.10414e-09
-6.3284e-09
1.01806e-09
6.80228e-09
-1.6216e-09
3.64646e-09
-8.82725e-09
7.90796e-09
-8.35173e-09
-1.18575e-08
-1.14879e-09
1.27839e-08
1.73652e-08
-2.29103e-09
-7.16633e-09
1.98748e-09
1.04791e-08
4.20745e-09
4.90653e-10
-2.28675e-09
-7.85834e-09
1.79321e-09
5.78834e-09
-9.69675e-09
-1.32322e-08
1.07116e-08
-4.54437e-09
7.06491e-09
-9.29051e-09
-6.23278e-09
3.45574e-09
9.2433e-09
7.46769e-09
-1.09699e-08
2.53095e-09
3.92379e-10
-6.18497e-09
8.4919e-09
5.53424e-10
-6.11514e-09
-1.60799e-09
2.21121e-09
5.51288e-09
-1.01972e-09
-4.5524e-09
-5.42726e-10
-4.53335e-09
3.96283e-09
-4.49155e-10
6.30468e-09
2.43102e-09
1.88268e-09
-1.06184e-08
1.87215e-09
-3.52038e-09
7.95309e-09
-5.67551e-09
7.14673e-10
3.35597e-09
-5.30267e-09
-4.92527e-09
-1.93361e-09
5.29105e-09
-3.75889e-09
4.01693e-10
7.35841e-09
5.85834e-10
-3.34523e-09
-4.59922e-09
-4.77531e-10
-5.45289e-09
6.40251e-09
-4.72216e-10
-2.03801e-09
1.10679e-09
8.28973e-09
-5.95665e-09
-6.148e-10
-4.91081e-09
8.7489e-09
-3.2521e-09
-8.96297e-10
-1.07406e-08
6.72599e-09
6.58737e-09
-6.81952e-09
2.66329e-09
-6.9481e-10
9.15438e-09
4.91471e-09
-7.72025e-09
-1.03525e-08
4.15336e-09
7.8723e-09
-3.77833e-09
4.6549e-09
1.69823e-09
-6.45375e-10
1.50752e-09
6.60706e-09
2.67063e-09
-1.07854e-08
3.96284e-09
-1.12537e-08
8.79802e-09
-8.42651e-09
6.1836e-09
1.76242e-09
4.80419e-10
-2.07187e-09
2.52382e-10
6.34265e-09
9.16647e-09
-1.28385e-08
-4.89552e-09
-3.08165e-09
-9.01142e-09
1.69884e-08
7.57108e-09
-6.44945e-09
-6.01736e-09
9.8539e-10
1.82169e-08
-1.28598e-08
1.36472e-08
-8.69917e-09
8.34223e-09
-1.24764e-09
-8.06307e-09
1.1165e-08
7.34282e-09
6.49946e-09
4.37454e-09
-1.08315e-08
9.16271e-09
6.77861e-09
-6.4554e-09
-9.16803e-09
7.12747e-09
8.49543e-09
4.85699e-09
-9.68077e-09
-1.63166e-09
-9.24001e-09
-4.69234e-09
-1.47708e-09
-5.55433e-09
1.17086e-09
-2.86189e-09
-2.93714e-09
-3.36914e-09
-4.27198e-09
-8.27082e-09
1.49032e-09
4.77711e-09
-1.05395e-08
4.91367e-09
4.3843e-09
-7.80783e-09
-3.63829e-09
-1.95092e-09
6.47727e-09
-8.88296e-10
6.69487e-09
-5.55625e-09
2.92034e-09
-1.78036e-09
-4.26789e-09
2.49488e-09
-3.56545e-09
9.21571e-09
4.83736e-09
-2.86086e-09
-6.1616e-09
1.11827e-09
1.47759e-09
-4.02803e-09
2.70373e-09
-1.59467e-09
3.32746e-09
3.51018e-09
1.20944e-08
-5.94754e-09
-9.65733e-09
1.17748e-08
-2.06093e-09
-6.20389e-09
7.16021e-10
3.16578e-09
8.21256e-09
3.77833e-09
8.71246e-09
4.06745e-10
3.56678e-09
2.58323e-09
-6.55695e-09
-2.26538e-09
-2.97599e-09
8.40869e-09
-3.16732e-09
3.09516e-09
1.07959e-08
-9.21876e-09
-4.67238e-09
4.94996e-09
-1.07202e-08
5.40419e-09
3.6597e-10
8.89795e-09
-2.7042e-09
-1.21413e-08
-6.11258e-09
1.5753e-09
7.70301e-09
3.19203e-09
9.4803e-09
-4.57083e-09
4.03661e-11
-5.11549e-09
-9.71997e-09
6.74619e-09
8.08923e-09
-3.25943e-09
7.92986e-09
-7.60239e-09
8.12135e-09
-8.27664e-09
-1.59125e-09
3.08514e-09
-1.09049e-08
-7.25243e-09
-5.2515e-10
2.50252e-10
6.1972e-09
-5.92234e-09
4.41796e-09
4.96582e-11
-4.99273e-09
-3.97747e-10
9.79557e-09
-9.14779e-09
-6.48248e-10
9.52485e-09
-9.27459e-09
1.11941e-08
9.43428e-09
-1.08329e-08
-3.20919e-09
7.15964e-09
7.24348e-09
-5.60567e-10
4.51114e-09
4.67419e-10
5.61371e-09
2.29654e-11
6.43265e-09
-7.03127e-09
2.05172e-09
4.26398e-09
-5.21762e-09
2.85472e-09
9.52251e-09
1.29194e-09
2.92474e-09
2.99103e-09
3.91459e-09
6.47066e-09
4.14665e-09
-4.1846e-09
5.19518e-09
3.32716e-09
1.46743e-09
2.44396e-09
5.99814e-10
-4.85867e-09
2.55937e-09
7.4945e-09
7.55422e-10
7.64274e-09
-2.22862e-09
-2.00535e-08
9.2738e-09
1.41308e-08
-3.35146e-09
-2.01644e-08
-6.52114e-09
6.63164e-09
-4.50359e-09
-9.54694e-09
1.68544e-08
-2.80417e-09
-1.36674e-08
1.13045e-08
-2.14101e-09
-8.12632e-09
9.42373e-09
-1.08444e-08
9.95837e-09
-4.79264e-09
-1.32925e-08
4.68874e-09
-8.39799e-09
4.79775e-09
8.478e-09
6.77327e-10
-1.39535e-08
7.71511e-09
2.03424e-09
-4.95173e-09
-5.66371e-09
1.04692e-08
2.90934e-09
8.95368e-09
-6.13946e-09
6.12167e-09
1.09522e-08
-1.63968e-08
9.89576e-09
-1.73998e-09
1.38805e-08
-1.13404e-08
-2.95162e-09
4.11365e-10
-3.89507e-11
1.57264e-09
1.23467e-08
1.11009e-08
-3.91243e-09
1.76509e-09
-3.1452e-09
8.97984e-09
-7.95287e-09
2.11806e-09
9.78463e-09
-1.82893e-09
-4.22607e-09
1.12657e-08
-9.34437e-09
1.35653e-09
7.94856e-09
-1.07891e-08
2.09801e-10
1.46503e-08
-1.32875e-08
1.10209e-09
-1.72051e-09
9.59822e-09
1.10965e-08
7.36636e-09
-4.8501e-09
7.00229e-09
-1.96908e-09
8.92222e-09
-6.70074e-09
1.16905e-09
8.74181e-09
-1.11585e-08
7.86957e-09
-8.66966e-09
-8.31287e-09
8.4455e-09
1.62979e-09
6.18407e-09
-5.57473e-09
-2.12514e-09
6.89102e-09
3.97587e-09
5.12158e-09
6.22723e-10
-4.64574e-09
7.38055e-09
5.71065e-09
1.26219e-09
2.76092e-10
2.24414e-09
8.2933e-09
-4.07199e-09
1.59905e-08
5.72694e-09
6.56764e-10
1.56112e-09
2.60347e-09
1.56209e-09
4.86958e-09
-4.60194e-09
-2.05375e-09
1.01502e-08
-3.49453e-09
-2.87489e-09
-7.93272e-09
6.2058e-09
1.00545e-08
-6.56202e-09
3.00222e-09
-6.49493e-09
-3.98881e-09
7.89596e-09
-4.18554e-09
2.78276e-10
9.76613e-09
-3.70048e-09
-2.82902e-09
-5.43576e-09
6.2119e-09
4.0622e-09
2.23745e-09
-2.27405e-09
-3.22584e-09
6.97184e-09
4.95139e-09
-8.6975e-09
5.8625e-10
5.55591e-09
-9.36824e-09
9.34846e-09
-1.53243e-08
6.20933e-09
-1.04623e-09
1.203e-09
1.27868e-08
-7.01797e-09
1.21057e-08
-5.34679e-09
1.13394e-08
-3.38562e-09
1.28777e-08
5.37058e-09
-6.14241e-09
-2.80928e-09
8.37714e-09
7.30992e-09
4.35698e-09
5.6206e-09
1.02607e-08
9.91558e-11
1.1481e-08
-5.82826e-09
1.72017e-09
-1.46099e-09
5.56896e-09
2.33441e-09
1.56907e-09
-9.73214e-09
5.12153e-09
2.91463e-09
-5.70187e-09
7.01983e-09
2.09523e-09
-7.54614e-09
6.61595e-09
2.12395e-09
3.18292e-09
2.78098e-09
-8.43117e-10
5.73996e-09
8.79971e-10
-3.7056e-09
1.91435e-09
-3.48518e-09
-4.05692e-09
5.62725e-09
-2.41815e-09
-2.19674e-09
6.52922e-09
2.29525e-09
1.82393e-09
2.40232e-09
-6.5225e-09
3.88285e-09
-5.07297e-09
-2.42538e-09
-5.10113e-09
3.46955e-09
2.06862e-09
-6.35343e-09
1.85908e-09
-4.03536e-09
3.68576e-09
1.64257e-09
-2.25633e-09
-2.7573e-10
6.85682e-09
-3.88166e-09
-4.01808e-09
3.64489e-09
1.04799e-09
1.54969e-09
3.86945e-09
-1.78469e-09
5.63899e-09
-1.84142e-09
-2.01273e-09
4.53946e-09
-4.3794e-09
-1.94467e-09
6.31348e-09
-4.24595e-09
3.57135e-09
4.77654e-09
-3.82759e-09
4.94676e-09
-5.89562e-09
6.49038e-09
7.16609e-10
-6.2082e-09
-9.99412e-10
-5.57739e-09
-6.14749e-10
1.26819e-08
-4.7398e-09
-1.2111e-10
-4.82542e-09
1.07828e-08
-6.57205e-09
-4.48112e-10
1.93607e-09
7.09135e-09
7.31093e-10
-1.71144e-09
-6.11097e-09
5.65963e-09
-6.42809e-09
1.24009e-09
-1.15754e-09
1.17531e-08
-7.64012e-09
6.97086e-09
-1.10846e-08
1.26779e-09
9.33601e-09
1.14932e-09
5.92079e-09
-1.23833e-10
-1.34375e-08
4.9952e-09
2.19319e-09
-8.48763e-09
7.47088e-09
-1.69933e-09
1.81886e-10
-9.06458e-09
6.22435e-09
1.14009e-09
-7.00434e-09
9.30623e-09
-1.13668e-08
-1.18414e-08
4.71296e-09
4.45355e-10
-5.48068e-09
8.734e-09
-3.69962e-09
-4.79021e-09
1.02308e-08
-1.10589e-08
6.02075e-09
6.56158e-10
-2.40921e-09
-2.14488e-09
-1.07138e-08
3.63056e-09
-2.26495e-09
9.34727e-09
-1.038e-08
-7.54076e-09
7.20658e-09
2.01966e-09
-1.33228e-08
-8.14865e-10
-1.01872e-08
-9.60367e-09
9.4695e-09
1.03207e-08
-2.89243e-09
-2.37376e-09
-4.92198e-09
-1.47706e-08
9.91084e-10
6.94229e-09
6.83617e-09
-8.76611e-09
-2.61003e-09
-3.39503e-09
-2.49369e-09
-1.50527e-08
7.16592e-09
-4.64151e-09
-7.85505e-09
-5.57025e-09
-5.56998e-09
1.34103e-08
-9.49105e-09
-6.52981e-09
9.12024e-09
5.28025e-09
1.44207e-08
1.99085e-09
-4.69791e-09
5.28082e-09
8.53679e-09
-8.98299e-09
-9.2449e-09
5.58777e-09
-6.55227e-09
-2.39262e-09
-3.83436e-11
1.15636e-08
-2.93393e-09
-8.53127e-09
-9.94265e-11
3.12833e-10
8.74512e-09
-3.35873e-09
-1.09576e-08
-4.45037e-10
-8.57489e-09
-1.29145e-09
1.03099e-08
-2.23877e-09
-1.47659e-08
-1.19374e-08
-3.34406e-09
6.70591e-09
-1.47912e-08
1.36802e-08
-1.12871e-09
-6.61982e-09
4.48423e-09
-1.21581e-08
1.42927e-08
-8.2716e-09
-6.26239e-09
2.59601e-09
-3.78994e-09
-1.11016e-08
-1.18793e-08
1.31951e-08
-2.60739e-09
7.83376e-09
1.77658e-09
-6.01002e-09
-3.60036e-09
-1.36478e-08
5.45948e-09
1.60219e-08
-4.45807e-09
-5.84882e-09
-7.87764e-09
6.47646e-09
-4.8611e-09
3.34526e-09
-1.50129e-08
-3.62624e-09
8.24952e-09
-1.09144e-08
-9.8564e-09
5.94849e-09
2.53527e-09
-4.4254e-09
-4.05862e-09
8.0154e-09
-5.19231e-09
3.1252e-09
8.12724e-09
-1.873e-09
-3.7192e-09
6.43393e-09
9.70845e-09
7.4877e-09
5.02724e-09
-1.43387e-09
-1.10813e-08
3.82068e-09
7.97458e-09
-4.30767e-09
1.22279e-08
-1.16261e-08
4.5234e-09
2.51197e-09
-2.63196e-09
4.32242e-09
-7.09393e-09
5.40271e-09
2.87632e-09
9.24869e-10
2.39014e-09
-6.33853e-09
-1.16533e-08
1.56012e-08
-5.84272e-09
1.20535e-08
-7.50113e-10
1.11837e-08
-6.11131e-09
-5.02496e-09
7.15118e-09
-3.85918e-09
7.52197e-09
-5.53613e-09
-1.16317e-08
8.89898e-09
3.59888e-09
-1.46442e-09
1.89219e-09
8.71226e-09
-4.83831e-09
-2.06863e-09
6.057e-09
-4.87691e-09
3.16563e-09
-8.4091e-10
-4.39359e-09
-7.29121e-10
5.01231e-09
1.77352e-09
2.33287e-09
1.03441e-10
2.85115e-09
-5.28679e-09
7.83761e-09
-3.86389e-09
-1.27013e-09
1.66894e-09
7.64603e-09
1.50801e-09
6.83137e-09
2.30508e-09
-3.31794e-09
-4.39399e-09
7.57083e-09
2.43902e-10
-3.83903e-09
1.34602e-09
-2.8881e-09
5.38121e-09
-2.02607e-09
-2.45466e-09
6.41711e-10
2.91707e-09
-4.53296e-09
-1.35206e-09
2.96805e-09
-1.58567e-09
5.84882e-09
-1.21913e-09
2.95946e-09
-4.62831e-09
-2.37929e-09
-5.26181e-09
3.10811e-09
-5.07763e-09
6.72368e-10
-7.4253e-10
9.04573e-10
-6.25772e-09
6.09576e-09
1.52326e-10
-5.88564e-09
4.99083e-09
-3.83361e-09
-2.62586e-09
4.874e-09
-6.42553e-09
1.23999e-09
-6.2097e-09
2.36486e-09
-2.22042e-09
-3.31386e-09
4.56643e-10
-5.69228e-09
-1.78986e-09
-6.66706e-11
-5.23841e-09
6.77165e-10
3.57557e-09
-9.84418e-10
-3.26819e-09
5.35161e-09
-4.74108e-09
2.50166e-09
6.61879e-10
-3.82336e-09
-6.01487e-09
9.34517e-09
2.2602e-09
-1.43615e-09
-1.01692e-08
-5.82912e-09
7.59866e-09
7.57562e-09
9.41808e-10
-4.51072e-09
1.24989e-09
2.04395e-09
-6.38213e-09
3.08826e-09
3.88132e-09
4.96722e-09
4.85073e-10
4.88643e-09
2.62488e-09
-4.90421e-09
4.3232e-09
5.16429e-09
6.10304e-09
2.01778e-10
-7.741e-09
1.98361e-09
-2.26276e-09
-7.3929e-10
-6.38443e-09
-1.15741e-09
-7.78195e-09
4.99542e-09
-5.95102e-09
-3.17694e-09
2.56357e-10
-3.53829e-11
1.92933e-08
4.15829e-09
-1.72399e-08
1.72043e-08
8.54504e-10
1.23438e-09
1.04321e-08
-9.5738e-10
-5.31661e-09
1.12283e-08
1.6408e-08
9.33904e-09
1.6654e-09
9.779e-09
2.0111e-09
-2.45126e-09
2.10755e-09
1.04574e-08
-2.78595e-09
3.27497e-09
5.62455e-09
-4.83735e-09
5.81252e-09
9.03969e-09
-8.64632e-09
1.16609e-08
-2.57322e-09
6.457e-09
-3.52639e-09
8.73046e-09
4.7097e-09
-2.86959e-10
2.03432e-09
-1.83682e-09
1.28877e-08
-1.72682e-09
1.50626e-08
-9.83073e-09
-3.53665e-09
1.16406e-08
-9.1477e-09
-2.34989e-09
1.66687e-09
-4.48068e-09
-1.59838e-09
6.21069e-10
-1.54351e-09
2.52064e-09
1.72358e-09
-3.40933e-09
8.70872e-11
-3.5379e-09
-2.38289e-09
6.54189e-09
-4.97609e-09
3.16176e-09
-1.74397e-09
-7.83031e-09
7.19139e-09
1.39999e-09
-7.92739e-09
4.78348e-09
-1.67039e-09
3.69415e-09
3.14048e-09
2.161e-09
4.91631e-10
3.55058e-09
-7.36742e-09
4.32649e-09
4.18369e-09
-6.58391e-09
-5.51468e-10
-3.09522e-09
-1.80653e-09
5.58143e-10
-3.67797e-09
-1.84968e-09
-2.3963e-09
1.5174e-08
-4.08499e-09
-7.53545e-09
-3.55346e-09
2.61912e-09
9.21131e-09
3.34359e-09
3.68154e-09
-6.86634e-09
2.80898e-09
3.75965e-10
-6.18756e-09
-2.65573e-09
4.75841e-09
-6.40591e-09
7.23838e-09
-3.40551e-09
-2.93983e-09
2.15583e-10
9.75099e-09
-8.23494e-09
-9.05157e-09
7.53268e-09
2.64933e-09
7.23065e-09
-7.93146e-10
-9.08668e-09
7.42138e-09
-4.49372e-09
4.49916e-09
-3.45604e-09
-3.03534e-09
6.68255e-10
-9.11744e-09
-2.4685e-09
-1.27286e-08
6.16392e-09
-1.77777e-09
-7.15997e-10
-2.95791e-09
-2.61029e-09
2.92961e-09
2.63862e-09
6.20793e-11
-3.09801e-09
7.79448e-11
-4.87418e-09
-1.26679e-09
7.62725e-09
-1.48641e-09
2.70654e-09
-9.70316e-10
-6.61029e-09
1.65338e-09
2.58626e-09
-6.84991e-09
-9.05285e-09
-4.49162e-10
5.79562e-09
3.70638e-09
1.65266e-09
-7.99891e-09
6.63275e-09
-1.0149e-10
-4.87852e-09
8.03876e-09
-1.73284e-09
3.26905e-10
9.83499e-10
-4.98809e-09
3.03439e-09
4.13465e-09
-1.69504e-09
-3.7064e-09
-7.65803e-10
-4.28379e-09
-2.98551e-09
8.03516e-09
-3.93151e-09
6.09532e-09
-2.81744e-09
2.87213e-09
7.35359e-12
-1.38474e-09
-4.72686e-09
1.82783e-09
3.76192e-09
-2.51159e-10
-4.89555e-09
2.45119e-09
-6.5384e-09
5.20628e-09
7.29598e-09
-1.36943e-09
-3.69125e-09
4.95922e-09
2.72933e-09
-3.1152e-09
2.68428e-10
-3.56554e-10
9.53877e-09
1.15119e-11
2.70519e-10
-9.82125e-09
-1.08955e-08
-2.06883e-09
1.62431e-09
1.13398e-08
-1.35273e-09
-6.95932e-09
-2.58371e-09
1.13781e-08
1.98732e-09
-8.93525e-09
5.4744e-09
2.23696e-09
-5.72424e-09
-5.20748e-09
-5.50403e-10
6.16288e-09
-4.05019e-10
-6.04248e-09
8.22414e-09
-7.38927e-09
-7.50885e-09
7.50996e-09
-5.51549e-10
6.74296e-09
-5.75995e-09
4.77922e-09
-1.05183e-10
-4.10069e-10
-1.58259e-08
-1.0507e-08
2.05535e-08
5.77958e-09
1.68e-08
-1.24262e-08
4.41089e-09
-4.23384e-09
-4.80231e-09
3.19637e-09
2.21595e-08
-1.20256e-09
1.32008e-08
-1.72089e-08
-2.25644e-09
2.26618e-08
-5.36242e-09
2.89188e-09
1.25767e-08
5.81522e-09
2.17213e-08
2.80846e-08
-8.58305e-09
-6.57045e-09
6.60689e-09
8.54679e-09
-8.87271e-09
3.28481e-09
-2.99503e-09
1.2062e-12
5.35399e-10
-7.10692e-09
-9.58966e-09
7.18326e-10
-4.99619e-09
1.25801e-09
1.03452e-08
-2.37452e-09
6.63178e-10
1.03391e-10
-8.59055e-09
-1.10235e-09
-5.37761e-09
2.32353e-09
6.79669e-10
-2.35139e-09
-2.81479e-09
6.42453e-09
-2.73066e-09
-4.80854e-09
5.18804e-09
7.10287e-09
1.49009e-10
-7.96158e-09
7.09853e-10
4.99712e-09
3.36271e-09
-1.25688e-09
-8.59064e-11
-5.1882e-09
-4.33613e-10
-7.46758e-09
5.08662e-09
-8.70846e-09
5.54432e-09
-2.98869e-09
5.03776e-10
5.63959e-09
-5.57639e-09
1.71279e-10
-2.64169e-09
-6.07907e-09
-2.45797e-09
-3.42816e-09
4.85241e-09
-8.00516e-11
-8.97963e-09
4.20671e-09
-5.49688e-09
-6.0647e-10
1.09555e-08
-7.03365e-09
-2.07891e-09
-3.28924e-09
1.24014e-08
-6.74271e-09
-1.22714e-08
1.19802e-08
-4.79551e-09
7.17747e-11
-7.73475e-10
3.22268e-10
1.10364e-08
-3.12536e-09
-8.23339e-09
6.0695e-09
-1.47389e-09
-4.27349e-09
7.57398e-09
8.10583e-09
-4.64329e-09
9.1341e-09
4.50937e-09
5.29042e-09
-1.21532e-08
6.78258e-09
-8.22297e-09
1.2907e-08
7.5347e-10
2.91531e-09
7.5653e-09
7.37104e-09
-5.30139e-09
2.14945e-09
2.80957e-09
3.14679e-09
6.488e-09
-1.15671e-08
-1.39528e-08
1.33665e-08
-9.19886e-12
1.03649e-08
-2.98474e-09
-4.09886e-09
-7.47775e-09
4.95149e-09
-1.30129e-08
4.94004e-10
3.29805e-09
9.22095e-09
-2.06427e-09
-5.31464e-09
-5.63396e-09
-8.79395e-09
8.35359e-09
-2.7302e-09
3.17059e-09
-4.53802e-09
-6.32008e-09
6.82837e-09
-5.88925e-09
-6.25383e-09
5.69783e-09
3.14984e-09
4.89691e-09
-2.20544e-09
-7.22955e-09
2.708e-09
-5.41317e-10
7.86336e-09
-4.59489e-09
3.55997e-09
9.84042e-09
1.32091e-09
-3.88269e-09
5.92322e-09
4.70776e-09
-3.03364e-09
-4.97738e-09
4.26602e-09
3.74488e-09
-6.6098e-09
3.56004e-09
1.6073e-11
2.75675e-09
8.01334e-09
-6.06257e-09
-1.14507e-09
-4.26132e-10
3.46184e-09
9.02255e-10
4.47426e-09
4.64858e-09
-1.08205e-08
1.69769e-09
3.4657e-09
5.5244e-09
-4.51579e-09
3.69464e-09
3.81039e-10
6.75984e-09
-1.08353e-08
-5.86446e-10
1.05384e-08
-6.25719e-09
-4.51702e-09
-8.17983e-09
1.21106e-08
9.47213e-09
-1.3608e-08
-5.31892e-09
8.59263e-09
1.9204e-10
-5.92138e-09
5.25105e-09
-1.22641e-08
8.20343e-09
3.09667e-09
1.52029e-09
4.03979e-09
8.15458e-09
-9.09794e-09
7.03933e-09
-4.80113e-09
7.23406e-09
1.17125e-08
-8.39262e-09
3.71946e-09
9.58483e-09
-1.83238e-09
3.95983e-09
-1.88739e-08
2.34262e-09
1.24614e-09
1.52848e-08
-6.15306e-09
-6.94132e-09
-1.2318e-08
1.56437e-08
-1.10865e-08
7.76057e-09
-1.17017e-08
-6.76932e-09
6.49931e-10
1.73362e-08
1.49772e-08
-1.31376e-08
-8.78094e-09
2.06906e-08
-1.96084e-08
1.3895e-08
3.01745e-09
1.89192e-08
-1.04792e-08
2.4565e-09
-3.06383e-09
-6.04047e-09
-1.61406e-08
-1.08951e-09
-1.08525e-08
1.25918e-08
-2.07191e-08
7.82603e-09
-6.71538e-09
-4.15702e-09
-1.54115e-08
1.73395e-08
-6.86721e-09
-1.52871e-09
-7.97766e-09
3.92069e-10
-1.06354e-08
-4.20963e-09
4.04107e-09
-8.80258e-09
4.8059e-09
-4.43834e-11
1.08795e-08
-1.2507e-08
5.6686e-09
2.52216e-09
-5.52136e-09
1.38785e-08
-5.89369e-09
-1.17469e-09
9.59044e-09
1.1648e-08
-1.55985e-09
-1.88908e-08
9.05201e-09
-9.91112e-09
-1.54711e-09
4.59319e-10
4.78463e-09
-1.25409e-09
-1.10845e-08
4.26887e-09
1.18575e-08
-5.04192e-09
1.26025e-08
-8.92549e-09
-1.55827e-08
1.19055e-08
-1.04331e-10
1.62241e-09
-5.46029e-09
8.55446e-09
7.74188e-09
-1.82272e-08
6.8241e-09
8.13441e-10
-1.83288e-10
-6.09645e-09
-1.29738e-08
1.28661e-08
1.94298e-09
-1.85929e-08
1.05532e-08
1.34519e-08
1.02025e-08
-1.23246e-08
-1.133e-08
8.29703e-09
7.09791e-09
1.46753e-11
-9.48236e-09
-3.50638e-09
-1.35591e-08
-5.01929e-09
-1.09764e-09
-1.14857e-10
1.06198e-08
-9.59549e-10
-1.07581e-08
-9.23866e-09
1.02831e-08
1.80407e-09
-8.40256e-10
4.68128e-09
-3.54408e-09
5.06116e-11
-1.249e-08
-1.10227e-09
9.58308e-09
-9.44044e-09
-1.08487e-08
9.79683e-09
-3.7815e-09
-1.1945e-09
-1.07047e-08
-5.21822e-09
2.80261e-09
-3.92419e-09
-7.6263e-10
-8.33812e-09
2.28877e-10
6.41705e-09
-1.43807e-09
-5.20803e-09
-1.71498e-09
7.8314e-09
-5.88751e-09
2.78726e-09
-5.71711e-09
9.34672e-09
6.45502e-09
-2.5924e-09
-1.07539e-09
-4.84262e-10
3.52744e-09
-4.48119e-09
3.25665e-09
-5.45583e-09
-1.287e-09
7.42849e-09
-8.32791e-09
2.18642e-09
-6.88572e-09
4.86694e-09
7.31747e-10
-1.01431e-08
-1.28974e-09
-6.78357e-10
1.21108e-08
-5.20255e-09
2.48775e-09
1.11916e-09
6.44989e-09
-1.11455e-09
2.8722e-09
-1.93706e-09
1.92579e-09
-5.05453e-09
-5.1992e-09
-2.08771e-09
1.13039e-08
4.53603e-10
-3.92614e-09
2.79394e-09
9.72358e-09
-1.21416e-09
-1.15806e-08
1.30847e-08
-1.29326e-08
-3.85054e-09
5.30782e-09
8.73632e-09
-1.05343e-08
-3.74269e-09
-1.12642e-08
2.13819e-08
-3.10406e-09
-7.01349e-09
2.07415e-08
-1.02842e-08
-2.47748e-08
-9.81627e-09
1.00915e-08
2.44997e-08
4.95989e-10
-4.52931e-09
1.93148e-09
6.8774e-09
2.3452e-09
9.22038e-09
1.44339e-08
-1.12404e-08
-2.6977e-09
1.59594e-08
-2.1584e-09
6.32833e-10
2.06239e-09
2.39886e-08
1.00283e-08
-1.00758e-09
-8.91822e-09
-1.02616e-10
-4.61681e-09
1.67074e-08
-7.27012e-09
-5.20667e-09
9.37282e-09
5.96451e-09
-1.13032e-08
-9.80355e-09
1.26494e-08
-7.46282e-09
-1.04098e-08
-4.01461e-10
5.47093e-09
-9.83405e-09
-1.00157e-08
-1.06096e-09
-8.7475e-09
-5.91319e-10
-1.07098e-09
-9.23388e-10
-3.62144e-09
-3.04632e-09
2.82678e-09
-4.64757e-09
4.8672e-09
-4.31542e-09
6.00089e-10
6.69039e-10
6.26137e-11
-5.10256e-09
7.24514e-10
-3.27833e-09
2.92418e-09
4.16745e-10
6.70227e-09
1.28331e-10
-7.70051e-09
8.69897e-10
2.21802e-09
-6.18302e-10
-1.21061e-09
1.04162e-09
2.99604e-09
-2.62783e-09
2.50294e-09
7.24982e-10
2.02454e-09
-4.45404e-09
7.44981e-10
-3.89499e-09
-6.16908e-10
9.13218e-10
-2.66528e-09
-5.37417e-09
4.35307e-09
3.68634e-09
-4.24617e-09
9.63866e-10
-1.6399e-10
-4.71201e-09
-4.98263e-10
-4.04947e-09
-3.60696e-10
5.99191e-09
4.23366e-09
-5.63629e-10
-9.66182e-09
-6.12169e-09
5.09884e-09
7.0149e-09
-9.21529e-10
-5.66941e-09
4.69294e-10
1.50785e-09
2.38133e-09
-1.12567e-09
-4.50784e-09
-4.43018e-09
-7.06156e-09
-6.1326e-09
1.68921e-09
1.1505e-08
-5.43555e-09
-1.4203e-09
-2.05604e-10
1.41202e-08
-9.55203e-09
-1.00036e-08
1.1572e-08
-3.58431e-09
6.13965e-09
-1.72613e-09
-6.31682e-09
1.9033e-09
2.85647e-09
3.02303e-09
2.60218e-10
-1.30341e-09
-1.15691e-08
3.32057e-09
3.09929e-09
7.43754e-09
-8.6686e-09
-1.86824e-09
-8.69877e-09
5.66921e-09
-2.01502e-09
-3.89835e-09
7.60259e-09
-2.977e-09
4.06134e-09
5.76668e-09
-3.60993e-09
6.99749e-10
-2.36077e-09
-4.79276e-09
3.25518e-09
4.28915e-10
5.79692e-10
-6.7927e-09
7.64588e-09
-4.63137e-09
1.79985e-09
-7.90635e-09
8.20545e-09
-3.66863e-09
-5.39598e-09
8.83533e-09
-4.70955e-09
6.36834e-09
-9.26017e-10
5.44539e-10
-5.98704e-09
3.95803e-09
-2.17794e-09
4.58766e-09
1.05967e-08
-8.73388e-09
5.78297e-09
-1.88876e-09
6.27003e-09
9.09192e-09
-1.34732e-08
5.04921e-09
7.26345e-09
-1.42015e-08
3.45062e-10
1.35355e-08
-9.61548e-09
-4.26534e-09
-5.14417e-09
-3.20921e-09
8.69835e-09
3.40569e-09
-6.91212e-09
9.77627e-09
-5.38674e-09
-4.4748e-09
1.32672e-08
-5.24211e-09
4.90453e-09
1.3003e-08
-8.01121e-10
1.33364e-09
2.23513e-09
3.85579e-09
-6.14985e-09
9.98444e-09
-8.30942e-09
-9.8868e-09
-1.5052e-09
7.56988e-09
-1.01234e-08
-3.8592e-09
6.41249e-09
-3.82008e-09
-7.07418e-09
2.48413e-10
1.06456e-08
-4.49645e-09
5.38952e-09
-1.078e-08
-1.33712e-09
4.41046e-09
1.1408e-08
-3.27159e-09
-1.46887e-08
6.55177e-09
6.52866e-10
-8.2896e-09
1.90444e-08
9.91556e-09
-2.00065e-08
-3.64718e-09
1.37379e-08
1.31815e-08
-1.95954e-08
-8.10467e-09
1.45174e-08
2.37499e-08
-1.26658e-08
-5.56754e-09
9.94302e-09
-1.88743e-08
2.93659e-09
-5.37192e-09
-1.08687e-08
1.55107e-09
3.52013e-09
1.55543e-08
-5.3565e-09
-1.37188e-08
1.67326e-08
-3.60674e-09
-9.60627e-09
-8.35688e-10
-3.61663e-09
-1.57342e-08
-4.69708e-09
7.5177e-09
-1.48591e-08
1.38154e-09
-1.28411e-08
-1.69019e-08
4.26546e-09
8.28095e-09
-1.79031e-08
-1.21828e-08
-2.23125e-08
-4.0875e-09
9.90141e-09
-6.20603e-09
3.91929e-10
1.04088e-08
-1.04448e-08
-1.70535e-08
1.70896e-08
-3.53634e-09
1.89123e-09
1.20536e-08
-2.20555e-08
-2.2167e-09
1.64548e-08
7.81619e-09
-1.11487e-08
6.78632e-09
-1.76935e-08
-2.50201e-10
9.19476e-09
-1.55671e-08
6.62226e-09
4.7873e-09
-9.12499e-09
5.23727e-09
1.12769e-09
-1.22764e-08
7.69149e-09
2.36806e-09
-1.86379e-08
-2.0179e-08
1.65696e-09
5.66036e-09
1.28615e-08
1.10247e-09
-8.56508e-09
-1.27167e-08
2.1429e-08
-1.35404e-08
2.07287e-08
1.71546e-08
-1.98922e-08
6.09841e-09
1.54506e-08
-1.92626e-08
-4.61797e-09
9.15724e-10
1.30316e-08
-9.32933e-09
6.76595e-09
-5.28576e-09
1.12184e-08
1.71027e-09
6.32323e-09
2.00655e-08
1.84575e-08
-8.5413e-09
8.61267e-09
-5.67567e-09
5.60455e-09
2.22488e-09
-5.79317e-09
-4.9727e-09
-6.16427e-10
8.38494e-10
8.39167e-09
8.70216e-10
-8.54764e-09
7.06185e-09
2.82607e-10
3.38459e-09
3.76608e-09
-7.43256e-09
4.66752e-09
5.19777e-09
-9.58248e-09
1.02694e-08
-3.37651e-09
8.99075e-09
-1.13992e-08
3.60897e-09
-2.93827e-10
1.42566e-09
-6.69395e-09
6.13884e-09
-6.03425e-09
8.29877e-09
-7.83258e-10
2.50502e-09
4.31805e-09
9.23217e-09
-8.35218e-09
9.75711e-09
-1.67287e-09
-7.08825e-09
-3.89049e-10
-3.62636e-09
5.77031e-09
6.16378e-09
-3.29911e-11
3.73855e-09
-6.36196e-09
-3.96477e-10
1.22952e-08
-5.53684e-09
-7.65579e-09
-5.44005e-09
6.7339e-09
-7.86926e-11
2.35274e-09
-9.92978e-09
1.38049e-09
-1.17932e-08
7.79878e-09
-1.46865e-08
8.26837e-09
1.42356e-08
-6.83331e-09
-3.85534e-09
-5.91395e-09
-2.02381e-09
-1.41802e-08
2.67578e-11
-5.32966e-10
9.39379e-11
-1.02169e-08
4.91643e-09
-6.51007e-09
-1.7457e-08
1.69538e-08
-6.57965e-09
-1.14558e-08
-1.29958e-08
-1.10223e-09
1.41378e-10
6.46423e-09
-5.50348e-09
-1.42561e-09
6.2489e-09
-5.92558e-09
7.43746e-10
-2.01633e-10
4.14531e-09
-4.68771e-09
6.45191e-09
-5.5667e-09
4.24387e-09
6.24014e-09
-4.03197e-09
-2.33978e-09
6.00387e-09
5.79953e-10
4.4278e-09
-6.05504e-09
-3.47017e-09
6.03144e-09
3.6877e-09
6.54388e-10
1.8089e-08
-3.94563e-10
-6.70493e-09
-1.09892e-08
9.71901e-10
2.93568e-09
1.41822e-08
8.69243e-09
-4.94104e-09
1.4069e-09
8.25741e-09
-5.39723e-10
-7.66151e-10
7.30998e-09
7.10764e-09
1.30319e-08
-1.53092e-08
2.34477e-09
1.36231e-08
7.61e-09
-3.95855e-10
7.13419e-09
-1.56649e-08
8.92636e-09
7.7534e-09
9.94221e-09
-1.80918e-08
-1.94507e-08
1.16727e-09
7.06175e-09
1.12213e-08
4.05024e-10
-1.00143e-08
-9.84171e-09
1.15401e-08
6.71889e-09
-1.05056e-08
-2.2938e-08
1.02194e-08
1.38856e-08
-1.0993e-08
-5.64599e-09
2.22169e-08
-9.85179e-09
1.16777e-08
-1.01894e-08
4.49156e-09
1.23403e-08
-6.88988e-09
1.64296e-08
-1.28349e-09
-1.06547e-08
1.75092e-08
-1.51834e-08
8.30017e-09
1.62707e-08
9.91533e-09
1.41986e-08
-1.89705e-09
2.40535e-08
-3.22051e-09
-9.15532e-09
1.10125e-08
4.82329e-09
8.21749e-09
1.23224e-08
7.81212e-09
1.42173e-08
1.09937e-08
-1.19662e-08
5.47708e-09
1.47889e-08
-1.47269e-08
1.68054e-09
1.07984e-09
2.58061e-09
-8.78167e-10
-1.97155e-08
1.46029e-08
9.93553e-09
-1.13656e-08
-1.15705e-08
3.97644e-09
2.25632e-08
-1.30711e-08
2.25244e-08
3.21222e-09
-5.81441e-09
5.64447e-09
6.08317e-09
-5.91351e-09
7.35266e-09
-4.40975e-09
5.60811e-09
-8.55113e-09
2.77684e-10
9.078e-09
-2.00327e-09
-9.90534e-10
5.6356e-09
-1.20853e-08
7.44014e-09
-1.12147e-08
6.14789e-09
-1.79754e-10
-3.23949e-10
6.42919e-09
-6.85614e-11
-3.13831e-10
6.59504e-09
1.47539e-10
5.86349e-09
-2.96758e-11
-2.17431e-09
2.42979e-09
5.60733e-09
5.4521e-10
3.87519e-09
1.66626e-08
-2.38401e-09
-8.6705e-09
6.39566e-09
3.26349e-09
7.00334e-09
6.16155e-09
9.31181e-09
-3.38043e-09
1.18211e-10
-5.53863e-09
8.80042e-09
3.32625e-09
6.56845e-09
-1.64307e-10
8.928e-10
-7.29727e-09
6.35454e-09
5.92065e-09
-5.70679e-09
8.90235e-09
1.34233e-08
-1.01717e-08
-9.44671e-09
7.17157e-09
3.81229e-09
-1.25453e-08
1.17023e-09
4.49715e-09
6.87794e-09
5.74405e-10
-4.88947e-09
-8.23019e-09
-1.14718e-08
6.38534e-09
6.25675e-09
-1.3534e-08
-7.7246e-09
9.7868e-09
-1.45341e-08
6.67141e-09
1.23598e-08
-9.15142e-09
-4.80824e-09
-4.21677e-09
-1.42067e-08
1.40514e-08
7.27078e-09
-1.18823e-08
-9.43987e-09
-6.74359e-09
8.85129e-09
1.19437e-08
-2.34069e-11
5.50603e-10
-9.67383e-09
7.29091e-09
-7.23873e-09
9.62171e-09
-9.60061e-09
-7.25832e-10
6.52613e-10
-4.6789e-10
1.37734e-08
-6.01458e-09
9.01843e-09
-1.58851e-08
2.64997e-09
1.50548e-08
8.33071e-09
-8.91283e-09
1.06859e-09
4.85424e-09
-8.84336e-09
-4.96779e-09
8.95672e-09
-3.38018e-09
9.18818e-10
7.31551e-09
-5.83702e-09
4.43435e-09
-4.8384e-09
6.24114e-09
-9.35029e-09
1.33098e-10
-2.01516e-09
6.50441e-09
-5.4954e-11
-5.63554e-09
-5.01555e-09
1.30075e-09
2.2373e-09
-1.19595e-08
8.39442e-09
1.32779e-09
-5.68292e-09
5.90506e-09
-5.39945e-09
-3.30499e-09
-1.3902e-10
-4.14975e-09
-6.88531e-09
-5.86075e-09
-7.19346e-10
1.74178e-09
-7.09601e-09
-3.78028e-09
-1.65115e-09
-7.36659e-09
9.47588e-09
-4.57881e-10
-2.17821e-09
-1.14323e-08
-1.65867e-09
-1.02803e-08
4.57251e-09
-1.29045e-08
3.07367e-09
9.34302e-09
-3.2462e-09
-1.09574e-08
4.85999e-09
3.90128e-09
-7.26308e-09
1.27046e-08
6.83384e-09
-1.48039e-08
4.72366e-09
5.85916e-09
-6.59778e-09
7.57236e-09
-7.42938e-09
4.94734e-09
-1.3971e-09
3.87897e-09
-5.03318e-09
-4.17272e-09
1.77657e-09
3.60298e-09
9.7681e-09
-8.42415e-09
-3.86827e-09
1.13722e-08
-3.81189e-09
5.80255e-09
8.21055e-09
-1.15266e-08
-7.64157e-09
-2.1543e-09
3.1017e-09
5.78363e-09
-9.97713e-09
-1.06104e-08
-8.51946e-10
3.77004e-11
-9.00332e-09
3.79431e-09
-1.10519e-08
4.65169e-09
-6.80871e-09
-9.11908e-09
4.87591e-09
1.37341e-09
-3.96056e-09
-7.38999e-09
1.05315e-08
-5.51877e-09
-1.00459e-08
6.76222e-10
-4.70346e-09
-5.4497e-09
1.87444e-09
-1.13536e-08
-9.63775e-09
6.32629e-09
3.08807e-09
-1.36263e-08
4.21185e-09
6.27238e-09
-5.30134e-11
1.06923e-10
3.21483e-09
-1.68346e-09
-2.32312e-09
-6.95994e-09
-5.01144e-09
1.80145e-09
1.0163e-08
-6.95301e-09
5.6353e-11
-2.31223e-09
-2.75559e-09
-1.17767e-08
3.85485e-09
3.59741e-09
4.32475e-09
-1.73627e-08
8.67411e-09
-4.32064e-09
8.62387e-09
2.74897e-09
-1.47008e-08
-1.20792e-09
3.23001e-09
1.26781e-08
1.24118e-08
-1.6809e-08
-1.03037e-08
-9.75623e-09
-1.36762e-08
8.7239e-09
1.47085e-08
8.04017e-09
6.6393e-09
-2.4436e-08
-1.04382e-08
-7.84149e-09
4.60342e-09
-3.28395e-09
1.36767e-08
4.51194e-09
-1.4905e-08
-5.23407e-10
-1.31989e-08
-1.85354e-08
2.80407e-09