/*--------------------------------*- C++ -*----------------------------------*\
| =========                 |                                                 |
| \\      /  F ield         | OpenFOAM: The Open Source CFD Toolbox           |
|  \\    /   O peration     | Version:  v1612+                                |
|   \\  /    A nd           | Web:      www.OpenFOAM.com                      |
|    \\/     M anipulation  |                                                 |
\*---------------------------------------------------------------------------*/
FoamFile
{
    version     2.0;
    format      ascii;
    class       volVectorField;
    location    "100";
    object      wallShearStress;
}
// * * * * * * * * * * * * * * * * * * * * * * * * * * * * * * * * * * * * * //

dimensions      [0 2 -2 0 0 0 0];

internalField   uniform (0 0 0);

boundaryField
{
    WALL
    {
        type            calculated;
        value           nonuniform List<vector> 
1666
(
(0.0184348 -0.0256436 -0.0109413)
(0.0197306 -0.0225137 -0.0142085)
(-0.0146847 -0.00565335 0.013789)
(-0.0145069 -0.003647 0.0125937)
(0.00397702 -0.000655101 0.0211578)
(0.00218931 0.00179823 0.0204728)
(0.0232878 -0.03031 0.0393528)
(0.0186082 -0.015743 0.0472237)
(-0.00776255 -0.00628019 0.0127549)
(-0.00855644 -0.00605141 0.0141369)
(0.0005213 -0.0020111 0.0211263)
(0.0035756 -0.00202584 0.0157839)
(-0.0183528 -0.00987287 0.0146398)
(-0.0179136 -0.0103495 0.0130454)
(-0.00714883 -0.000626451 0.011854)
(-0.00700171 4.05515e-05 0.0116546)
(-0.00209668 -0.00712538 0.00349847)
(-0.000620593 -0.00588433 0.00515232)
(-0.00159995 -0.00440296 0.00634118)
(0.00154578 -0.00310954 0.00703312)
(0.0196731 -0.0220022 -0.00579915)
(0.0172697 -0.01748 -0.002566)
(0.020448 -0.0142362 -0.0043036)
(0.0175482 -0.0124436 0.00093098)
(-0.0213562 -0.0427069 0.0197382)
(0.0147593 -0.0211974 0.00810625)
(0.014663 -0.0150325 0.00791841)
(0.0228497 -0.0320662 -0.00385965)
(0.0215106 -0.0329901 -0.00974994)
(0.0152792 -0.0105382 0.00467945)
(0.0149296 -0.0106612 0.00458502)
(0.0149857 -0.0237673 0.0217121)
(0.0108924 -0.0239075 0.0164875)
(0.00816803 -0.0240943 0.018146)
(0.0135924 -0.0248184 0.0202999)
(0.0110589 -0.0225572 0.0222747)
(0.00797115 -0.0220757 0.0176137)
(0.0151708 -0.00691632 0.00210937)
(0.0141209 -0.00850238 0.00441117)
(0.0152144 -0.00866123 0.00303613)
(0.011723 -0.00624491 0.00535575)
(0.0131886 -0.00592923 0.00322376)
(0.0137622 -0.00667118 0.00444648)
(0.0109021 -0.00678535 0.00581331)
(0.00568691 -0.00352829 0.0187572)
(0.00503332 -0.00271608 0.0199586)
(0.00468352 -0.00277028 0.0152704)
(0.00771172 -0.00446565 0.0162132)
(0.00840986 -0.00474311 0.0164025)
(-0.0083902 0.00374113 0.0262924)
(-0.00702052 0.00457672 0.0279364)
(-0.0113068 0.0023853 0.0257431)
(-0.0113935 0.00452862 0.0283726)
(-0.0128615 0.00212074 0.0246551)
(-0.0125845 0.00270431 0.0252936)
(-0.0176654 -0.00985422 0.0154082)
(-0.0184525 -0.0131524 0.0189584)
(-0.0163071 -0.0127257 0.0146843)
(-0.0171132 -0.0157141 0.0159126)
(-0.0172803 -0.0105113 0.0136578)
(-0.0187052 -0.00836001 0.0148094)
(0.000777932 0.00327971 0.0197965)
(-0.0018304 0.0030999 0.018458)
(-0.00249965 0.00328121 0.0168023)
(-0.000858906 0.00304837 0.0198787)
(-0.000216065 0.00315472 0.0166232)
(-0.000787928 0.00349054 0.0162919)
(-0.00052959 -0.0104626 0.0242334)
(0.00252636 -0.0109979 0.0236081)
(0.000189401 -0.0120442 0.0240455)
(-0.00150347 -0.0121103 0.023956)
(-0.000205273 -0.0142715 0.0228526)
(0.0012539 -0.0107334 0.0259339)
(-0.014771 -0.0228485 0.014667)
(-0.0145123 -0.0306719 0.0111347)
(-0.0198529 -0.0349519 0.0247222)
(-0.0137556 -0.0261977 0.0143821)
(-0.0156031 -0.0231175 0.0217104)
(-0.0195968 -0.0392517 0.018412)
(-0.00217408 -0.0236237 0.00140255)
(0.000760035 -0.0198442 -0.00536403)
(-0.00297845 -0.0199777 -1.3353e-05)
(-0.00186716 -0.0222324 -0.00183371)
(-0.00337923 -0.0213744 -0.000795047)
(0.00100847 -0.0222483 -0.00133479)
(0.000277775 -0.02351 -0.000525525)
(-0.00451058 -0.0161781 -0.00404733)
(-0.00441538 -0.0170935 -0.0045524)
(-0.00544196 -0.0165081 -0.00114408)
(-0.00520868 -0.0144697 -0.00524527)
(-0.00497909 -0.0126777 -0.00145558)
(-0.00620043 -0.0140145 -0.000822065)
(-0.00495865 -0.0114984 0.000428141)
(0.0313139 -0.0293312 0.0390452)
(0.0265462 -0.0251922 0.0334239)
(0.0207048 -0.0189451 0.032884)
(0.0213725 -0.0201646 0.0390016)
(0.0186226 -0.0186492 0.0364887)
(0.028702 -0.0242354 0.0296524)
(-0.0110793 -0.0160973 0.0534719)
(-0.00485703 -0.0018974 0.0288266)
(-0.00106765 -0.00264993 0.0361326)
(-0.00572273 -0.00279847 0.033316)
(-0.0145638 -0.00862994 0.03791)
(-0.00718488 -0.0117147 0.0421542)
(0.0026898 -0.0244417 -0.0161391)
(0.000216718 -0.0215 -0.0131783)
(-0.000544501 -0.0231802 -0.0113806)
(-0.00788533 -0.0146213 0.00797879)
(-0.00853041 -0.0136234 0.00938182)
(-0.00830718 -0.0130638 0.00765913)
(-0.0073947 -0.0106799 0.00788122)
(-0.00729641 -0.0134739 0.00638924)
(-0.00841333 -0.0144169 0.00611159)
(-0.00820472 -0.0118104 0.010882)
(-0.00788279 -0.0155736 0.00871869)
(-0.0098275 -0.0158862 0.0111241)
(-0.00967066 -0.0172819 0.00981819)
(-0.00903185 -0.0169094 0.0113402)
(-0.00956864 -0.0155794 0.0115083)
(0.00464446 -0.0270429 0.0129417)
(0.00750253 -0.0260242 0.0160099)
(0.00178194 -0.026128 0.0150752)
(0.00690983 -0.0279796 0.0150181)
(0.00342663 -0.0252733 0.0142268)
(0.00584823 -0.0271354 0.0166477)
(-0.00908733 -0.0217853 0.0180422)
(-0.012962 -0.0214911 0.019218)
(-0.012253 -0.0202249 0.0192537)
(-0.0109332 -0.0218711 0.0183368)
(-0.00850812 -0.0230053 0.0175692)
(-0.00747132 -0.0234587 0.0168463)
(-0.0123267 -0.0104692 0.0180854)
(-0.0133195 -0.0157627 0.0201881)
(-0.0129129 -0.0138076 0.0208279)
(-0.0124666 -0.0130773 0.0193369)
(-0.0139367 -0.0110713 0.0200236)
(-0.0131012 -0.0107492 0.019532)
(-0.0071052 -0.0239907 0.0176351)
(-0.00174928 -0.0260337 0.0151024)
(-0.00419031 -0.0230963 0.0141058)
(-0.00356171 -0.0247969 0.0172854)
(-0.00108506 -0.0259808 0.0161938)
(-0.00550363 -0.0207162 0.0126618)
(-0.0103656 -0.0155853 0.0142114)
(-0.00941902 -0.0179186 0.0135096)
(-0.00988424 -0.0195386 0.0175185)
(-0.0105498 -0.0162773 0.0160908)
(-0.0106841 -0.014764 0.0163333)
(-0.00950057 -0.0184083 0.0185587)
(0.0123712 -0.0178422 0.0216129)
(0.0135574 -0.0203766 0.0227871)
(0.011219 -0.0121329 0.0212861)
(0.0115779 -0.0141474 0.0221466)
(0.0102591 -0.0133064 0.0221692)
(0.0113012 -0.0168329 0.0223597)
(-0.000666995 -0.0244713 0.0183779)
(-0.00252693 -0.0251174 0.0200817)
(0.00148345 -0.022604 0.019057)
(0.00228878 -0.0220075 0.0191488)
(-2.67796e-06 -0.0214977 0.018675)
(-0.00128219 -0.0242543 0.0184246)
(-0.00622804 -0.0224073 0.0162036)
(-0.00775397 -0.0265581 0.0181313)
(-0.00442424 -0.0239287 0.0193422)
(-0.00174446 -0.0247424 0.0155139)
(-0.00575484 -0.0227438 0.0189792)
(-0.00289483 -0.00229749 0.0143968)
(-0.0021846 -0.00176078 0.0180494)
(-0.00315952 -0.00203559 0.0155128)
(0.000632364 -0.00152195 0.0155466)
(0.000448002 -0.00191205 0.0148618)
(-0.00126136 -0.00275563 0.0156985)
(-0.00550177 -0.00254995 0.0203726)
(-0.00785106 -0.00275244 0.0240943)
(-0.00811604 -0.00345743 0.0215422)
(-0.00420153 -0.00170808 0.0224632)
(-0.00640958 -0.00227224 0.0239488)
(-0.0122273 -0.00754946 0.0214862)
(-0.0128953 -0.00912944 0.0201903)
(-0.0122306 -0.00580384 0.0220603)
(-0.0109969 -0.00713536 0.0206281)
(-0.0109848 -0.005043 0.0218075)
(-0.0101431 -0.00496938 0.0209149)
(0.00113544 -0.00327103 0.0111688)
(-0.00216839 -0.00427689 0.0110961)
(0.000968757 -0.00373169 0.0114977)
(-0.000811619 -0.00329792 0.0112685)
(-0.00226506 -0.00456119 0.0105423)
(-0.00082137 -0.00470154 0.0116364)
(-0.00519701 -0.00607427 0.0101312)
(-0.00666229 -0.00787441 0.00878808)
(-0.00660082 -0.00722371 0.011313)
(-0.00515601 -0.00602658 0.00907001)
(-0.00552062 -0.00716147 0.00789681)
(-0.0061555 -0.00767785 0.00771339)
(-0.00353852 -0.00367356 0.0138451)
(-0.00503841 -0.00552668 0.0144039)
(-0.00349544 -0.00478894 0.0132806)
(-0.00583437 -0.00622297 0.0140005)
(-0.00201464 -0.00361476 0.0135675)
(-0.00217164 -0.00345059 0.0143256)
(0.0119284 -0.0213894 0.0157784)
(0.00931194 -0.0219713 0.0137803)
(0.0141224 -0.0214792 0.0143899)
(0.0103633 -0.0232855 0.0120868)
(0.00990957 -0.0250544 0.0103003)
(0.0123335 -0.0199806 0.0112437)
(0.00282077 -0.0225452 0.0123604)
(0.00514418 -0.0246397 0.0143512)
(0.00276292 -0.0239961 0.00997419)
(0.00196105 -0.023632 0.00977882)
(0.00602309 -0.0248149 0.0110443)
(0.00679265 -0.0248106 0.0138986)
(0.00465065 -0.00275914 0.0263487)
(0.00559625 -0.00346329 0.0261978)
(0.00208433 -0.00339118 0.0338137)
(-3.49656e-05 -0.00156321 0.0246085)
(0.00195449 -0.00104543 0.0259973)
(-0.00355197 -0.000282721 0.0224077)
(-0.00268213 0.00220094 0.0215129)
(-0.00444241 0.000517403 0.0224073)
(-0.00301387 -0.000409625 0.0240884)
(-0.00193542 0.00202288 0.0227903)
(-0.00083874 0.000902484 0.0236414)
(0.0139608 -0.018615 0.0197054)
(0.0201673 -0.0175935 0.0247171)
(0.0194088 -0.0222902 0.0287658)
(0.0145097 -0.0166986 0.0241714)
(0.0165186 -0.0230277 0.0212205)
(0.0172937 -0.0211102 0.0195777)
(-0.0046117 -0.00729685 0.00821237)
(-0.00398412 -0.0066413 0.00884392)
(-0.0020477 -0.00506948 0.0097979)
(-0.001464 -0.00471581 0.00900089)
(-0.00278324 -0.00606681 0.00859465)
(-0.0033642 -0.00546689 0.010107)
(-0.00782416 -0.0135867 0.00653677)
(-0.00711526 -0.0115609 0.00549491)
(-0.00699156 -0.0112967 0.00823273)
(-0.00609374 -0.0101614 0.00883983)
(-0.00741743 -0.0119804 0.00741851)
(-0.00687044 -0.01192 0.00570961)
(-0.0038346 -0.0170576 -0.00791112)
(-0.00169677 -0.0214914 -0.0110965)
(-0.00261696 -0.0196529 -0.00921017)
(-0.00282013 -0.017531 -0.00826976)
(-0.00359451 -0.0156933 -0.00705531)
(-0.000304602 -0.0251364 0.00710098)
(0.00114833 -0.0249506 0.00419371)
(6.91235e-05 -0.0258344 0.00339243)
(-0.00699763 -0.0182065 0.00441158)
(-0.0060041 -0.0190925 0.00350031)
(-0.00637882 -0.0147868 0.00501267)
(-0.0013456 -0.0225276 -0.00458781)
(-0.00436447 -0.0171811 -0.00224647)
(-0.002819 -0.0205603 -0.00505833)
(-0.0020638 -0.0211018 -0.00390094)
(-0.00460219 -0.018245 -0.00250751)
(-0.00384743 -0.0192193 -0.00381272)
(0.035041 -0.0391353 0.0167243)
(0.0396214 -0.0395345 0.0100838)
(0.0305073 -0.0321349 0.00971559)
(0.0256051 -0.0334978 0.00954296)
(0.0334827 -0.0380696 0.00460019)
(0.0364717 -0.0413559 0.00908898)
(0.014702 -0.0303776 -0.00661347)
(0.0167748 -0.0323874 0.000619075)
(0.0151847 -0.0323153 -0.00364285)
(0.0194311 -0.0312202 0.00159449)
(0.0198506 -0.0307528 -0.00679396)
(0.0278666 -0.0349878 0.000308521)
(0.0187632 -0.0283338 -0.0243049)
(0.0235974 -0.0331837 -0.0200035)
(0.00822641 -0.0271045 -0.00523917)
(0.00269901 -0.0262451 -0.00524484)
(0.00274009 -0.0240834 -0.0064421)
(0.00575752 -0.0258226 -0.00887614)
(0.00846556 -0.0289304 -0.00648625)
(0.00410904 -0.0267146 -0.00351329)
(0.00499043 -0.0248309 -0.0170069)
(0.00710067 -0.0251858 -0.0169365)
(0.00517708 -0.0238459 -0.0177199)
(0.0111169 -0.0261693 -0.0214323)
(0.0143106 -0.0234643 0.000785089)
(0.0154098 -0.0242671 0.00218131)
(0.015596 -0.0227628 0.000637963)
(0.0155186 -0.0240396 0.00659196)
(0.0165041 -0.0218149 0.00249604)
(0.00656392 -0.0303485 0.000741563)
(0.0114431 -0.0270705 0.0026308)
(0.00987081 -0.0280513 0.00208545)
(0.00670953 -0.0305864 0.00326182)
(0.0112562 -0.0292637 -0.00034539)
(0.00986453 -0.0326443 -0.000824083)
(0.0192758 -0.0316884 -0.0212397)
(0.0161524 -0.0337091 -0.0215931)
(0.0185783 -0.0271288 -0.0156526)
(0.0148944 -0.0348155 -0.0173617)
(0.0186167 -0.0253064 -0.0167242)
(0.0170387 -0.0331679 -0.0148928)
(-0.0153404 -0.0231788 0.0475331)
(-0.0177684 -0.015818 0.0364603)
(-0.0227518 -0.0316147 0.0344665)
(-0.0141242 -0.0129383 0.0280014)
(-0.0127607 -0.0389348 0.0396792)
(-0.0179705 -0.0350408 0.0328091)
(-0.0122779 -0.0143402 0.0143808)
(-0.0101195 -0.0106088 0.0147714)
(-0.0138349 -0.0150357 0.0194178)
(-0.0121781 -0.0105379 0.0183655)
(-0.010225 -0.00850723 0.0139067)
(-0.0107915 -0.00859794 0.0170993)
(-0.0098537 -0.0164513 0.0108172)
(-0.00870512 -0.0150799 0.0104846)
(-0.00759618 -0.0166775 0.0105862)
(-0.00914629 -0.0138402 0.0123338)
(-0.010018 -0.0202926 0.0119611)
(-0.00905714 -0.0214912 0.00936088)
(0.00424504 -0.0119768 0.00617182)
(0.00396131 -0.0104278 0.00581349)
(0.00183432 -0.0120919 0.00553034)
(0.00351406 -0.0133485 0.00576254)
(0.0022934 -0.0136357 0.00565997)
(0.00218397 -0.00860161 0.00483522)
(0.0219093 -0.0165255 -0.00783404)
(0.0219905 -0.0136845 -0.00605588)
(0.0222248 -0.0165945 -0.0129066)
(0.0180741 -0.0132944 -0.00162535)
(0.0186503 -0.0169395 -0.00212825)
(0.0166273 -0.0141668 -0.000833739)
(0.016941 -0.0126236 -0.000874047)
(0.0189135 -0.019452 -0.00370054)
(0.0178673 -0.0198332 -0.00441829)
(0.0152285 -0.0133217 0.00690962)
(0.0146918 -0.0121959 0.00680182)
(0.0152745 -0.0126541 0.00803742)
(0.0158401 -0.0172299 0.00465047)
(0.014625 -0.0157185 0.00659992)
(0.0153966 -0.0148832 0.00500855)
(0.0200704 -0.0207236 -0.0115987)
(0.0188094 -0.0263538 -0.0137754)
(0.0178954 -0.0182015 -0.00756536)
(0.0186914 -0.0158381 -0.00827877)
(0.0203533 -0.0167078 -0.0100771)
(0.018378 -0.0221975 -0.00973392)
(0.00881178 -0.00574198 0.00802978)
(0.00951045 -0.00568863 0.00682785)
(0.0103799 -0.00578674 0.00699711)
(0.0107803 -0.00644797 0.00654449)
(0.00805909 -0.00582031 0.00815255)
(0.0116561 -0.00639094 0.006208)
(-0.00383514 -0.00884725 0.00549491)
(-0.0040591 -0.00987738 0.00646657)
(-0.00130672 -0.0067898 0.00675414)
(-0.00252498 -0.00775094 0.00609497)
(-0.000957352 -0.00622617 0.00688214)
(-0.00230763 -0.00535159 0.00455294)
(-0.00354243 -0.00817086 0.0034806)
(-0.00553914 -0.0108573 0.000780814)
(-0.00344716 -0.00847158 0.00416465)
(-0.00437528 -0.00819742 0.00100342)
(-0.0045367 -0.00977622 0.0036331)
(0.005954 -0.00490478 0.00664908)
(0.00423164 -0.00520431 0.00676459)
(0.0055135 -0.00376014 0.00469606)
(0.00765037 -0.00590203 0.00702898)
(0.00447141 -0.00553434 0.00723198)
(0.00725648 -0.00554772 0.00638806)
(-0.00338859 -0.00809229 0.001817)
(-0.000492133 -0.00906653 0.00395104)
(0.000345806 -0.00732075 0.00462656)
(-0.00216882 -0.00861442 0.00242732)
(-0.000778053 -0.00652727 0.00379565)
(-0.00594484 -0.00117004 0.0108387)
(-0.00552049 0.000402338 0.0102924)
(-0.00631913 -0.000274169 0.0111671)
(-0.00579197 -0.0003692 0.0105513)
(-0.00672802 -0.00170683 0.0112585)
(-0.00552507 0.00125426 0.0111159)
(-0.00610739 0.000132948 0.0128107)
(-0.00496159 0.00114238 0.0109906)
(-0.00520989 0.00135187 0.0118005)
(-0.00591262 -0.000260852 0.0115128)
(-0.0051517 0.00104507 0.012339)
(-0.00563579 -2.0543e-06 0.0111273)
(-0.00373636 0.0026238 0.0127961)
(-0.00357315 0.00270698 0.0134065)
(-0.00323914 0.00351533 0.0133092)
(-0.00318765 0.00302611 0.014359)
(-0.00235177 0.0041579 0.014698)
(-0.00199752 0.0036219 0.0145289)
(-0.00764109 -0.00179681 0.0122297)
(-0.00732568 -0.00200024 0.0127261)
(-0.00832263 -0.00390037 0.0153685)
(-0.00834807 -0.00301796 0.0134587)
(-0.00912239 -0.00532757 0.0156143)
(-0.0071557 -8.95333e-05 0.0116045)
(-0.00533734 0.00225818 0.0108582)
(-0.00457742 0.00265648 0.0119324)
(-0.00387849 0.00331063 0.0116696)
(-0.00465896 0.00277918 0.010597)
(-0.00387636 0.00337828 0.0112592)
(-0.00490911 0.00221578 0.0114365)
(-0.00209687 0.0051479 0.0131378)
(-0.00221712 0.00543239 0.0146221)
(-0.00149585 0.00529077 0.012865)
(-0.0021332 0.00590742 0.0131255)
(-0.00240834 0.00525175 0.0125862)
(-0.00117775 0.00554996 0.0141917)
(0.00348514 -0.00228525 0.0218115)
(0.00366257 -0.00103718 0.0211168)
(0.00350711 -0.000678183 0.0215307)
(0.00304903 -0.0018133 0.0213831)
(0.00332271 -0.00351355 0.021455)
(0.00293097 -0.00318138 0.0221395)
(0.00105739 0.00466999 0.0163451)
(3.44066e-06 0.00461852 0.0143665)
(-0.00134337 -0.00758599 0.0216154)
(-0.000879309 -0.00609245 0.0214157)
(-0.00210245 -0.00837384 0.0211442)
(-0.00227008 -0.0112525 0.0209306)
(-0.00142373 -0.00975667 0.0214971)
(-0.00409606 -0.0115684 0.0213829)
(-0.00167641 -0.00915441 0.0216456)
(-0.00322123 -0.00947608 0.0208517)
(-0.00311471 -0.0126085 0.0203047)
(0.00157458 -0.00706249 0.0216059)
(0.000901196 -0.00817592 0.0212662)
(0.00212016 -0.00559891 0.0219837)
(6.1945e-05 -0.00734344 0.0217817)
(0.000579532 -0.00586415 0.0219026)
(0.00185859 -0.00519525 0.0224983)
(-0.0141972 -0.00884701 0.0120392)
(-0.0144318 -0.0095275 0.0134246)
(-0.0139372 -0.00480494 0.0119043)
(-0.0137999 -0.00629004 0.0133126)
(-0.0136581 -0.0091223 0.0143135)
(-0.014413 -0.00794915 0.015464)
(-0.0150019 -0.00640695 0.0115153)
(-0.0148163 -0.00717479 0.0126386)
(0.00471894 0.00144748 0.0308864)
(-0.00595916 0.00540104 0.029204)
(0.00225323 0.00291942 0.0316545)
(-0.00342168 0.00477375 0.0280144)
(-0.00234317 0.00430197 0.0315556)
(0.00326294 0.00253235 0.0303266)
(0.00115174 0.00399539 0.0245163)
(0.00189694 -0.00155017 0.0253554)
(0.00523251 -0.00477056 0.0238553)
(0.0048801 -0.00240144 0.0252755)
(0.0026494 -0.000789058 0.0250043)
(0.000806406 -0.00263684 0.0250248)
(0.00322303 -0.00448795 0.0258639)
(-0.0160597 -0.005656 0.0123352)
(-0.0162122 -0.00426597 0.0113281)
(-0.0149129 -0.00281059 0.011004)
(-0.016189 -0.00659 0.0118085)
(-0.0167303 -0.00657561 0.0112258)
(-0.0141498 -0.00359048 0.0097737)
(-0.0154012 -0.0022197 0.00986185)
(-0.0152689 -1.4855e-05 0.0129964)
(-0.014421 0.000247509 0.0125908)
(-0.0146186 0.00182528 0.0127959)
(-0.0121978 0.00262699 0.0137135)
(-0.0129155 0.00283642 0.0148136)
(-0.00589808 0.00518624 0.0182518)
(-0.00224576 0.00471648 0.0180121)
(-0.00120636 0.00495989 0.0205393)
(-0.00437522 0.0045242 0.019325)
(-0.00772476 0.00474767 0.0175525)
(0.00520063 -0.0105119 0.0276246)
(0.00783114 -0.0081842 0.0296622)
(0.0055169 -0.0072792 0.0283758)
(0.00716135 -0.0100013 0.0290728)
(0.00360342 -0.00952829 0.0273091)
(0.00518245 -0.00878047 0.0273103)
(-0.0008784 -0.00605307 0.0268071)
(-0.000765844 -0.00814771 0.0256143)
(0.00178169 -0.00657624 0.0266989)
(-0.00178973 -0.007482 0.027007)
(0.00062203 -0.00582909 0.0273115)
(0.00155946 -0.00850306 0.0257319)
(-0.00427757 -0.011323 0.0143798)
(-0.00388377 -0.0132489 0.0135944)
(-0.00262222 -0.0140928 0.0163402)
(-0.00340631 -0.0150915 0.0149281)
(-0.00376139 -0.0141986 0.0170806)
(-0.00398923 -0.0127508 0.0155698)
(0.00111605 0.00142533 0.0220484)
(0.00355397 0.00055738 0.0198964)
(0.002298 0.000126327 0.0234428)
(0.00537484 -0.00165275 0.0228788)
(0.00378452 -0.00136142 0.0245555)
(0.00378466 -0.000556939 0.0217839)
(0.00448475 -0.00138735 0.0214313)
(-0.00569724 -0.00858149 0.0129406)
(-0.00721509 -0.00713474 0.0132978)
(-0.00613244 -0.00801212 0.0126976)
(-0.00718271 -0.0103377 0.0138356)
(-0.00598881 -0.0109857 0.0123775)
(-0.00695555 -0.00752718 0.0126323)
(-0.00393226 -0.0209987 0.00862061)
(-0.00547748 -0.0209109 0.00907702)
(-0.00099903 -0.0235808 0.00732972)
(-0.00250656 -0.0219196 0.0108055)
(-0.00549743 -0.0233564 0.00690248)
(-0.00369433 -0.023859 0.00542761)
(-0.00291313 -0.0228193 0.0188414)
(-0.00573626 -0.0225455 0.0195625)
(-0.00247663 -0.0198629 0.0212339)
(-0.00244286 -0.0210314 0.0198511)
(0.00212474 -0.0183517 0.0208517)
(0.0022743 -0.0193118 0.0196557)
(-0.00120935 -0.0177223 0.021321)
(-0.000124247 -0.0171643 0.0218011)
(0.00136247 -0.0163377 0.0210787)
(-0.000524071 -0.0193098 0.0203894)
(0.00347308 -0.00603348 0.0211793)
(0.00277852 -0.00751467 0.0218912)
(0.00328595 -0.00512323 0.0221596)
(0.00401267 -0.00474471 0.0222971)
(0.00399823 -0.00434579 0.0227556)
(0.00239364 -0.0066347 0.0233447)
(-3.93293e-05 -0.0130057 0.0217362)
(0.00135421 -0.0120477 0.0217012)
(0.000832349 -0.0102298 0.0215419)
(-0.000649807 -0.0111774 0.0215876)
(0.00217052 -0.0108011 0.023286)
(0.00208048 -0.0097016 0.0229494)
(0.00486473 -0.00331117 0.0113944)
(0.00783879 -0.00472021 0.0108836)
(0.00771403 -0.00415452 0.0102579)
(0.00619125 -0.00316764 0.0110078)
(0.00482487 -0.00347395 0.0106432)
(0.00613792 -0.00467636 0.011471)
(0.00991476 -0.00667732 0.0110955)
(0.0127077 -0.0103768 0.0122769)
(0.0115256 -0.00779291 0.0104315)
(0.0143256 -0.0115302 0.0110365)
(0.0110198 -0.00745607 0.0115629)
(0.0138356 -0.0101106 0.0101458)
(0.0149068 -0.0187155 0.015687)
(0.013953 -0.0150911 0.0150511)
(0.01469 -0.016306 0.0139319)
(0.0163295 -0.0194005 0.0134474)
(0.0152181 -0.0204199 0.0139207)
(0.0128046 -0.0131048 0.0147246)
(-0.0132499 -0.0137589 0.0161867)
(-0.0102625 -0.0113541 0.0158446)
(-0.0118938 -0.0136182 0.0165496)
(-0.0131152 -0.0107842 0.0165873)
(-0.0105731 -0.0131697 0.0146722)
(-0.0117537 -0.0125668 0.0149302)
(-0.0160147 -0.0158555 0.0169458)
(-0.0149319 -0.0164629 0.0166289)
(-0.0152427 -0.0201213 0.0181035)
(-0.0132479 -0.0191566 0.0187694)
(-0.0138179 -0.0179167 0.0196202)
(-0.0154121 -0.0168326 0.0165544)
(0.00435096 -0.00135023 0.0208588)
(0.00411569 -0.00224408 0.0216806)
(0.00394396 -0.000165665 0.0210044)
(0.00389379 -0.00150172 0.0221439)
(0.00331698 0.000354837 0.0203535)
(0.00348776 0.00120449 0.021823)
(-0.0177589 -0.00117993 0.0224088)
(-0.0175904 -0.00107362 0.0222922)
(-0.0195343 -0.00724294 0.0186074)
(-0.0190944 -0.00594127 0.0179966)
(-0.0185593 -0.00426841 0.0224043)
(-0.020222 -0.00319771 0.0205487)
(-0.00676465 -0.014477 0.0175441)
(-0.00890703 -0.0113343 0.0180291)
(-0.00835254 -0.0142465 0.01876)
(-0.00700246 -0.0119356 0.0199528)
(-0.00698601 -0.0125806 0.0214099)
(-0.00780435 -0.0110571 0.0174698)
(-0.00861735 -0.0190143 0.018556)
(-0.00818449 -0.0179104 0.0176928)
(-0.0101987 -0.0190824 0.0204396)
(-0.00625149 -0.0185702 0.0188211)
(-0.00488671 -0.0195269 0.0202395)
(-0.00455981 -0.0203371 0.0189515)
(-0.00703227 -0.0202718 0.020128)
(-0.0120757 -0.00342807 0.0256002)
(-0.00877867 -0.00152883 0.0271677)
(-0.0112425 -0.00228517 0.027901)
(-0.0114057 -0.00384723 0.0233944)
(-0.00998313 -0.00281323 0.0242623)
(-0.0067125 0.00141694 0.0229255)
(-0.00507678 0.00216421 0.024624)
(-0.00369034 0.00296209 0.0262604)
(-0.00801521 0.00277766 0.0270875)
(-0.00999436 0.00128532 0.0237327)
(-0.00905453 0.00222299 0.024929)
(0.0120489 -0.0136291 0.0215488)
(0.0123387 -0.0173168 0.0218012)
(0.0130566 -0.0182348 0.0194945)
(0.013624 -0.0204886 0.0198844)
(0.0126487 -0.0143623 0.0189111)
(0.0116965 -0.0123838 0.0211745)
(0.0122874 -0.0105904 0.0265829)
(0.0113377 -0.00915737 0.0249585)
(0.00990678 -0.00769309 0.0265281)
(0.0112308 -0.00882624 0.0284713)
(0.00800792 -0.00581768 0.0284703)
(0.00958423 -0.00695215 0.029653)
(0.00874947 -0.0218089 0.0198902)
(0.0105421 -0.0211884 0.0225469)
(0.00882699 -0.0217723 0.0171625)
(0.0111337 -0.0214312 0.0183942)
(0.00801831 -0.0226443 0.0175518)
(0.0116749 -0.0206999 0.0218423)
(0.00720377 -0.00199272 0.0294759)
(0.00331611 0.00125427 0.0318036)
(0.00729898 -0.00259951 0.0318298)
(0.00595125 -0.000724076 0.0266938)
(0.00214644 0.00194745 0.0286617)
(0.00269303 0.00171179 0.0309045)
(0.00347732 -0.0207224 0.0166182)
(0.00504141 -0.0220122 0.0182437)
(0.00206481 -0.021345 0.0151671)
(0.00418386 -0.0235849 0.0166069)
(0.00181495 -0.0180795 0.0159203)
(0.000207986 -0.0167294 0.0140943)
(0.00878113 -0.0131539 0.0293021)
(0.00941359 -0.0163481 0.0268855)
(0.00738459 -0.014567 0.026251)
(0.00550733 -0.0150305 0.0253436)
(0.00756135 -0.016302 0.025046)
(0.00745281 -0.012562 0.0270571)
(0.00747523 -0.00377491 0.0277355)
(0.00798274 -0.00377054 0.0282015)
(0.0104243 -0.00767602 0.0292159)
(0.0101458 -0.00514914 0.0258818)
(0.0112027 -0.00812995 0.027238)
(0.00966487 -0.00631061 0.0279849)
(-0.00774239 -0.00729249 0.0121244)
(-0.00811321 -0.0105031 0.0111009)
(-0.00705453 -0.0079602 0.0121269)
(-0.00835637 -0.00962002 0.0126264)
(-0.00737889 -0.00406475 0.0126092)
(-0.00767308 -0.00689277 0.0122931)
(-0.00702189 -0.00822693 0.019148)
(-0.00663488 -0.00928271 0.0211499)
(-0.00816651 -0.00612066 0.0183059)
(-0.00745685 -0.00738436 0.0176845)
(-0.00572712 -0.00974956 0.0194052)
(-0.00625716 -0.00956956 0.0182385)
(-0.00214643 -0.0106765 0.024485)
(-0.00450832 -0.00876616 0.0245604)
(-0.00266671 -0.0108032 0.0232418)
(-0.0029006 -0.00964915 0.0252773)
(-0.00565479 -0.00950463 0.0237721)
(-0.00420886 -0.00968363 0.0224451)
(0.0105733 -0.00408274 0.00225758)
(0.00821894 -0.00387089 0.0037475)
(0.00733473 -0.00501994 0.0040274)
(0.00997423 -0.00594915 0.00378825)
(0.0075623 -0.00378646 0.003986)
(-0.00341014 -0.0458954 0.00211328)
(-0.00960891 -0.0567407 0.00541425)
(0.00965537 -0.0377066 -0.0108694)
(0.00843932 -0.0411525 -0.0141145)
(0.00945001 -0.0412658 -0.0137572)
(0.0130597 -0.0350638 -0.0124034)
(0.0126333 -0.0399791 -0.0144979)
(0.0123679 -0.0328098 -0.0113102)
(0.0039013 -0.0249742 -0.0126383)
(-0.00119703 -0.022521 -0.0123787)
(0.00146176 -0.0232255 -0.0124901)
(0.00388364 -0.0254497 -0.0114864)
(0.00207306 -0.0258352 -0.00912549)
(-0.00168882 -0.0197111 -0.00710952)
(-0.00147088 -0.0216437 -0.00958324)
(-0.0140388 -0.00666667 0.0239028)
(-0.0156616 -0.00782697 0.0233213)
(-0.0137725 -0.00607362 0.0248728)
(-0.0140547 -0.00858765 0.0231969)
(-0.0153934 -0.0111748 0.0218091)
(-0.0157835 -0.0100562 0.0216239)
(-0.00321347 -0.0501201 0.0772447)
(0.0283078 -0.049806 0.0674377)
(0.00114064 -0.0221536 -0.0142491)
(0.0148009 -0.0362428 -0.027198)
(0.0134028 -0.0368777 -0.0191469)
(0.00425307 -0.0440146 -0.00858964)
(-0.0123154 -0.0439332 0.0119557)
(-0.00657964 0.00436211 0.0160999)
(-0.00399546 0.00212351 0.0184167)
(-0.00711081 -0.000660043 0.0160058)
(-0.00626176 7.13216e-05 0.0183365)
(-0.00880773 -0.00409532 0.0158124)
(-0.00808055 -0.00161603 0.0185277)
(-0.00777836 -0.00199825 0.0150701)
(-0.00844203 -0.00450668 0.0137087)
(-0.00173568 -0.016178 0.021716)
(0.0107165 -0.0103718 0.0305538)
(0.0102214 -0.00636209 0.0165328)
(0.0115652 -0.00843788 0.0160912)
(0.0106163 -0.00706649 0.0176363)
(0.00874567 -0.00622471 0.0208462)
(-0.00196497 -0.00176159 0.0226473)
(0.00773918 -0.00505848 0.0231183)
(0.00242396 -0.00255991 0.0230228)
(0.00300077 -0.00322038 0.0257083)
(0.00570668 -0.00447459 0.0254667)
(0.00145931 -0.00261634 0.0259563)
(-0.0012524 -0.0018941 0.0257548)
(-0.00204553 -0.00118064 0.0246537)
(-0.0010564 -0.000981564 0.0249517)
(0.00346385 -0.000221784 0.027203)
(0.00597207 -0.00095257 0.0268725)
(0.00866381 -0.00445516 0.0307741)
(0.0114822 -0.0171958 0.0240032)
(0.0111522 -0.0208183 0.0232561)
(0.00917624 -0.0199485 0.0194224)
(0.0112866 -0.0194603 0.0234619)
(0.00700648 -0.0196716 0.0181837)
(0.00718241 -0.00533826 0.026991)
(0.0125432 -0.0120003 0.0268521)
(0.0127042 -0.0104161 0.0284203)
(0.00893649 -0.00685016 0.0259243)
(0.00992163 -0.00768968 0.0236688)
(0.00304031 -0.00260634 0.0257979)
(0.00570969 -0.00437073 0.0273096)
(0.000854294 -0.000873114 0.0299617)
(0.00224291 -0.00224534 0.0270411)
(-0.000199044 -0.00089341 0.0283352)
(0.0056031 -0.00290235 0.0297868)
(0.00279031 -0.000958018 0.0278948)
(0.0116772 -0.00971982 0.0185773)
(0.0106126 -0.00902163 0.0216488)
(0.0118048 -0.0104994 0.0232505)
(0.0116566 -0.0120541 0.0173014)
(0.0112293 -0.0157172 0.0245547)
(0.0122814 -0.0130505 0.024947)
(0.0122454 -0.0120363 0.0238752)
(0.0130738 -0.0192312 0.0212364)
(0.00339988 -0.00301796 0.0296788)
(0.00431422 -0.00330616 0.0312083)
(0.00742711 -0.00554919 0.0304895)
(0.00705213 -0.00475035 0.0270337)
(0.00106895 0.00141936 0.0253008)
(0.00133146 0.00201454 0.026396)
(-0.00330484 0.00350336 0.0299328)
(-0.00205105 0.000703652 0.0260767)
(-0.00212106 0.00104778 0.0243809)
(-0.00734816 0.000715215 0.022955)
(-0.00977178 -0.000725847 0.0218652)
(-0.0052907 -0.00159214 0.0252613)
(-0.00670376 -0.000188297 0.0248532)
(-0.00591127 -0.000726086 0.0289534)
(-0.00581257 -0.00116425 0.0254358)
(-0.00568538 -0.000660848 0.0280219)
(-0.0120648 -0.00499471 0.0239981)
(-0.0096678 -0.00149683 0.0261162)
(-0.0125592 -0.00323419 0.0234299)
(-0.0123144 -0.00362069 0.0240959)
(-0.0103843 -0.00192341 0.0224126)
(-0.00806733 0.00322942 0.0282848)
(-0.00367677 0.00337731 0.0299959)
(-0.0115272 -0.000961401 0.0214686)
(-0.0115221 0.0016942 0.024214)
(-0.0109071 0.000264795 0.0218831)
(-0.014862 -3.70406e-05 0.0229764)
(-0.00965009 -0.0214954 0.0173082)
(-0.0167477 -0.0175177 0.0172203)
(-0.0102951 -0.0198862 0.0182803)
(-0.0122219 -0.0201511 0.019135)
(-0.0134729 -0.0173533 0.017313)
(-0.0189325 -0.0148408 0.0189595)
(-0.0197659 -0.00941518 0.0187675)
(-0.017222 -0.0113839 0.01271)
(-0.0162031 -0.00772997 0.0106015)
(-0.0117221 -0.0192983 0.0180598)
(-0.00626991 -0.0160855 0.0173873)
(-0.00576096 -0.0149303 0.0196581)
(-0.00888079 -0.0163996 0.0192262)
(-0.00953454 -0.018863 0.0171122)
(-0.0151808 -0.0125387 0.0126044)
(-0.015011 -0.0146735 0.0125305)
(-0.013211 -0.0154083 0.0145241)
(-0.00965896 -0.0180477 0.0154241)
(-0.0123084 -0.0169357 0.0176587)
(-0.0146959 -0.0158623 0.0144742)
(-0.0128334 -0.00941977 0.0128505)
(-0.0149038 -0.0110081 0.01308)
(-0.0138271 -0.0121725 0.0121894)
(-0.010552 -0.0113378 0.0166012)
(-0.00751708 -0.0162792 0.0174062)
(-0.00914645 -0.0152604 0.0190196)
(-0.00925021 -0.0133372 0.0173345)
(-0.0110427 -0.0146417 0.0158317)
(-0.00915193 -0.0143022 0.0137091)
(-0.0134862 -0.0134613 0.0142697)
(-0.0124211 -0.0144415 0.0139386)
(-0.0196486 -0.00617114 0.0214066)
(-0.0131711 0.0007024 0.0249817)
(-0.0150669 -0.000354216 0.0236473)
(-0.0183052 -0.00399818 0.0239311)
(-0.0141959 -0.000562769 0.0228765)
(-0.0192009 -0.012516 0.0192869)
(-0.0184817 -0.00810677 0.0193901)
(-0.0187361 -0.00932574 0.0185683)
(-0.0179409 -0.00869388 0.0195164)
(-0.0164422 -0.00948086 0.0185656)
(-0.0153836 -0.00241502 0.0226537)
(-0.0174463 -0.00802701 0.0203894)
(-0.0182384 -0.0040306 0.0235716)
(-0.0169918 -0.00625465 0.0214697)
(-0.0120959 -0.00301601 0.0199132)
(-0.0130816 -0.00299576 0.0187285)
(-0.0154621 -0.00801928 0.017864)
(-0.0149449 -0.00653651 0.0210366)
(-0.0144703 -0.00515223 0.0193506)
(-0.0148353 -0.00315537 0.0196556)
(-0.0130979 -0.0171225 0.0164154)
(-0.0152628 -0.0192051 0.0181538)
(-0.0139017 -0.0171989 0.0162209)
(-0.0168063 -0.0161864 0.0197983)
(-0.0178002 -0.0122099 0.0182666)
(-0.0183734 -0.0116469 0.0184616)
(-0.0157769 -0.0138895 0.0183043)
(-0.0162543 -0.017576 0.018456)
(-0.0161373 -0.0136056 0.0201932)
(-0.0162692 -0.00989537 0.0183086)
(0.0108438 -0.00755508 0.0149562)
(0.0118276 -0.00965907 0.0144088)
(0.0116826 -0.00913532 0.0140382)
(0.00957456 -0.00666429 0.0132797)
(0.0107385 -0.00733518 0.016026)
(0.0102105 -0.00792243 0.015201)
(0.00900696 -0.00497266 0.0109341)