/*--------------------------------*- C++ -*----------------------------------*\
| =========                 |                                                 |
| \\      /  F ield         | OpenFOAM: The Open Source CFD Toolbox           |
|  \\    /   O peration     | Version:  v1612+                                |
|   \\  /    A nd           | Web:      www.OpenFOAM.com                      |
|    \\/     M anipulation  |                                                 |
\*---------------------------------------------------------------------------*/
FoamFile
{
    version     2.0;
    format      ascii;
    class       volScalarField;
    location    "200";
    object      p;
}
// * * * * * * * * * * * * * * * * * * * * * * * * * * * * * * * * * * * * * //

dimensions      [0 2 -2 0 0 0 0];

internalField   nonuniform List<scalar> 
16937
(
2.54237
2.53451
2.62858
2.74974
2.64394
2.64489
2.63135
2.63791
2.63747
2.63175
2.64691
2.6227
2.6274
2.6217
2.61321
2.61829
2.62382
2.62116
2.61516
2.61674
2.61093
2.61963
2.6298
2.62566
2.624
2.61056
2.59946
2.58866
2.59998
2.59148
2.60216
2.60638
2.61284
2.59251
2.59548
2.77589
2.77574
2.75996
2.76595
2.77105
2.77168
2.77233
2.76988
2.74403
2.75306
2.75695
2.74788
2.75997
2.75553
2.76229
2.76679
2.75917
2.74597
2.73101
2.65616
2.65645
2.6833
2.66968
2.65346
2.65715
2.68441
2.66584
2.65846
2.66447
2.67136
2.67901
2.67135
2.66088
2.66129
2.6558
2.7131
2.73395
2.73299
2.73717
2.72634
2.73986
2.71437
2.74249
2.75247
2.74991
2.73205
2.74435
2.72389
2.73815
2.68776
2.67757
2.69671
2.69433
2.70238
2.69753
2.69052
2.7006
2.71582
2.70609
2.69101
2.67517
2.68173
2.68285
2.72154
2.68375
2.71056
2.65777
2.66379
2.67847
2.68398
2.66134
2.67317
2.69557
2.70962
2.69512
2.70401
2.71478
2.70719
2.60211
2.59787
2.59413
2.59686
2.60377
2.5983
2.59149
2.60367
2.5943
2.59856
2.5989
2.60925
2.60646
2.59668
2.57314
2.58055
2.58608
2.58757
2.58916
2.57742
2.5929
2.58364
2.59109
2.59322
2.57173
2.56262
2.56981
2.56666
2.56761
2.56181
2.56492
2.57105
2.52352
2.52593
2.51844
2.52034
2.5145
2.51494
2.52514
2.52082
2.52529
2.52136
2.51766
2.51633
2.51862
2.52546
2.52171
2.52263
2.5195
2.64061
2.64683
2.64335
2.65593
2.6257
2.6419
2.63071
2.64299
2.66189
2.67468
2.67614
2.65459
2.63102
2.67144
2.67187
2.65421
2.68436
2.67832
2.68072
2.66583
2.67036
2.6553
2.68557
2.66525
2.55483
2.56004
2.55829
2.55803
2.55855
2.56534
2.56673
2.55614
2.55726
2.56118
2.55784
2.56472
2.58909
2.5994
2.59374
2.60708
2.59123
2.59727
2.59367
2.5459
2.55483
2.55698
2.55011
2.57095
2.58837
2.57197
2.56482
2.58869
2.5621
2.5765
2.55938
2.56489
2.56372
2.56338
2.58562
2.59201
2.59903
2.59802
2.57543
2.57354
2.57393
2.58749
2.5991
2.59958
2.58703
2.59149
2.7199
2.71477
2.73094
2.69414
2.71446
2.68716
2.67612
2.72429
2.71776
2.72836
2.68958
2.70848
2.66793
2.67305
2.66696
2.66604
2.66546
2.67041
2.67086
2.67252
2.66983
2.66581
2.6772
2.66736
2.66927
2.67151
2.67333
2.68204
2.66607
2.67583
2.61417
2.61645
2.60513
2.60556
2.60934
2.61001
2.60512
2.60405
2.6109
2.61656
2.60786
2.60377
2.60591
2.60923
2.58145
2.57739
2.57452
2.56464
2.57713
2.57661
2.58496
2.5783
2.58066
2.58828
2.56722
2.57697
2.57321
2.57444
2.58302
2.58879
2.58248
2.70135
2.70473
2.7198
2.71649
2.71832
2.71095
2.69031
2.7014
2.69363
2.70322
2.67676
2.68608
2.70728
2.69544
2.686
2.51014
2.50792
2.51213
2.51421
2.5141
2.51003
2.65778
2.66567
2.65658
2.66332
2.67568
2.6709
2.69019
2.69027
2.67175
2.65886
2.66792
2.67001
2.67727
2.65677
2.65831
2.69445
2.65234
2.68441
2.69132
2.67442
2.67458
2.69054
2.69937
2.65362
2.66065
2.65497
2.58626
2.58958
2.59336
2.58958
2.59019
2.58053
2.60061
2.59076
2.57422
2.60808
2.59484
2.5779
2.60328
2.60032
2.59332
2.6182
2.60306
2.66215
2.6642
2.67719
2.672
2.66619
2.66102
2.65158
2.66054
2.6671
2.66999
2.68101
2.65864
2.66066
2.66074
2.67547
2.6811
2.64881
2.66122
2.66196
2.66547
2.60644
2.61109
2.62267
2.62846
2.60029
2.58838
2.58488
2.63177
2.63193
2.63259
2.63
2.63888
2.60621
2.60067
2.73584
2.7396
2.73708
2.73183
2.74021
2.72733
2.72792
2.74222
2.7407
2.74529
2.53976
2.54424
2.53109
2.53169
2.52976
2.53249
2.53166
2.53992
2.55671
2.55375
2.54936
2.54051
2.53813
2.5424
2.53258
2.54812
2.54327
2.55709
2.54165
2.55435
2.52357
2.52628
2.52411
2.52535
2.52423
2.52863
2.52754
2.52776
2.53217
2.53216
2.53135
2.53037
2.52995
2.5249
2.53127
2.53205
2.53175
2.53384
2.5331
2.53533
2.55202
2.53823
2.56736
2.5595
2.56313
2.55725
2.54312
2.56437
2.56265
2.57611
2.57622
2.55718
2.57438
2.56656
2.54911
2.54687
2.55324
2.5555
2.553
2.55597
2.55794
2.56364
2.56603
2.56359
2.56654
2.57359
2.55895
2.55044
2.55359
2.55992
2.57213
2.55674
2.60461
2.60152
2.57664
2.59972
2.59448
2.58338
2.53711
2.53173
2.54136
2.53601
2.54276
2.54635
2.53482
2.53426
2.5346
2.54224
2.53388
2.53327
2.53995
2.54251
2.53828
2.54479
2.54636
2.53109
2.54575
2.54725
2.54256
2.53953
2.59225
2.59211
2.61824
2.61888
2.60927
2.62598
2.62978
2.61133
2.62857
2.63909
2.63607
2.61613
2.61104
2.5902
2.59326
2.61702
2.60546
2.6216
2.62465
2.62706
2.62761
2.62008
2.61052
2.60662
2.61893
2.62359
2.52028
2.51414
2.51908
2.5156
2.51874
2.51411
2.52097
2.51439
2.51851
2.52011
2.51716
2.51677
2.51341
2.5162
2.51633
2.52112
2.524
2.51964
2.51831
2.51348
2.51378
2.51855
2.51491
2.51962
2.51644
2.51294
2.66919
2.65869
2.68173
2.68022
2.65481
2.6712
2.65125
2.6413
2.66964
2.69032
2.69466
2.67372
2.65419
2.65775
2.66127
2.6741
2.69174
2.71911
2.73252
2.70526
2.70996
2.73562
2.7191
2.71154
2.72177
2.74443
2.744
2.72209
2.74146
2.73381
2.71621
2.71688
2.72573
2.70401
2.69412
2.72726
2.73516
2.71567
2.73862
2.72562
2.67056
2.67219
2.67735
2.67607
2.66222
2.66031
2.66603
2.64458
2.65136
2.64757
2.64061
2.67408
2.63703
2.64397
2.64953
2.64367
2.67499
2.66765
2.65209
2.6596
2.61101
2.62384
2.75031
2.75286
2.74966
2.75583
2.69852
2.69702
2.72886
2.71697
2.74183
2.74228
2.74238
2.71345
2.72428
2.71523
2.7281
2.74023
2.54191
2.5444
2.54481
2.54217
2.55813
2.55328
2.54567
2.54208
2.53656
2.54452
2.54591
2.55708
2.5459
2.54584
2.5535
2.73244
2.74107
2.7526
2.73955
2.71872
2.71902
2.71229
2.71634
2.71423
2.71686
2.72809
2.73452
2.71613
2.72472
2.71644
2.63108
2.646
2.65212
2.65395
2.65437
2.65031
2.65468
2.65476
2.62847
2.63907
2.62663
2.66699
2.64242
2.62537
2.66502
2.66499
2.67201
2.61666
2.55678
2.55624
2.55017
2.5509
2.5502
2.5556
2.55678
2.55551
2.55102
2.54987
2.55568
2.56181
2.55917
2.55553
2.55269
2.55862
2.5589
2.55661
2.58467
2.58447
2.58709
2.60055
2.60128
2.59389
2.60264
2.58699
2.6046
2.60036
2.59184
2.59869
2.58751
2.58465
2.58281
2.58372
2.58817
2.59293
2.59038
2.58437
2.59083
2.58637
2.5535
2.56204
2.54836
2.54937
2.56152
2.56099
2.56008
2.55965
2.54243
2.54938
2.5648
2.57466
2.54607
2.54561
2.54145
2.56214
2.54574
2.5588
2.51501
2.51572
2.52438
2.52216
2.52331
2.52433
2.51708
2.52155
2.51052
2.51173
2.54334
2.57308
2.56975
2.56135
2.55112
2.57216
2.57037
2.54632
2.5459
2.54947
2.5554
2.56344
2.56444
2.5643
2.55322
2.54573
2.55849
2.5463
2.56243
2.63712
2.61906
2.62398
2.60143
2.61601
2.60837
2.60315
2.63652
2.64919
2.61108
2.61722
2.63262
2.64267
2.61895
2.50479
2.50624
2.50215
2.5049
2.50303
2.50495
2.51132
2.51182
2.51218
2.51302
2.50579
2.51742
2.51273
2.51156
2.51213
2.51422
2.52484
2.52447
2.66907
2.66488
2.67074
2.68338
2.67096
2.66245
2.68269
2.685
2.67231
2.68513
2.69794
2.70543
2.69583
2.70638
2.69737
2.69604
2.69463
2.7032
2.68482
2.68595
2.70087
2.60717
2.6109
2.63078
2.6212
2.63794
2.64591
2.66882
2.66655
2.60544
2.62827
2.60506
2.60835
2.62547
2.64704
2.65315
2.65847
2.65721
2.65888
2.64146
2.63624
2.64862
2.64552
2.53827
2.53182
2.53293
2.54004
2.55291
2.54018
2.53341
2.5373
2.53739
2.53795
2.53266
2.53121
2.53749
2.54138
2.54038
2.53329
2.54921
2.5531
2.54818
2.54918
2.55022
2.55408
2.55109
2.5574
2.55845
2.55824
2.55628
2.55499
2.55897
2.55872
2.55987
2.56014
2.56382
2.55721
2.56119
2.51268
2.51453
2.65138
2.64398
2.67367
2.67249
2.52309
2.52441
2.639
2.62804
2.57454
2.56768
2.71527
2.71193
2.69589
2.69393
2.70425
2.52785
2.5281
2.50016
2.51002
2.508
2.50113
2.51657
2.51855
2.5219
2.52166
2.71253
2.71388
2.62487
2.60779
2.60926
2.51568
2.5146
2.51687
2.50973
2.50893
2.69269
2.68807
2.57288
2.58049
2.58617
2.54266
2.54139
2.74815
2.7453
2.7463
2.73175
2.55598
2.54819
2.51414
2.51655
2.53518
2.53542
2.65975
2.64709
2.54802
2.54694
2.52186
2.5245
2.52278
2.5278
2.52836
2.66333
2.65483
2.58146
2.58026
2.75743
2.75354
2.73817
2.59996
2.59848
2.74589
2.73749
2.54403
2.54375
2.53788
2.64033
2.65162
2.64012
2.65816
2.57712
2.57362
2.57063
2.53759
2.53879
2.54319
2.59468
2.58787
2.77623
2.76941
2.76718
2.75416
2.70689
2.7018
2.69156
2.53545
2.53803
2.53665
2.56833
2.56898
2.74703
2.74223
2.78418
2.78353
2.55091
2.55041
2.54195
2.54477
2.54184
2.60892
2.60842
2.71483
2.72255
2.70071
2.58602
2.58229
2.58324
2.54256
2.54872
2.54753
2.54736
2.55512
2.55413
2.60566
2.60538
2.68289
2.67604
2.56291
2.55794
2.56029
2.56923
2.57159
2.78041
2.77525
2.76678
2.77307
2.56498
2.56866
2.55902
2.57393
2.5692
2.56824
2.59544
2.59132
2.5926
2.60667
2.60487
2.59474
2.70421
2.68555
2.68204
2.65925
2.56673
2.56748
2.57514
2.7812
2.78028
2.77578
2.57281
2.57421
2.66398
2.66349
2.64963
2.58406
2.59251
2.5904
2.57719
2.57819
2.74122
2.73543
2.73167
2.72562
2.61381
2.61192
2.64239
2.64092
2.62102
2.62148
2.70559
2.70481
2.77062
2.77289
2.7703
2.60979
2.60909
2.70362
2.694
2.70302
2.70247
2.74162
2.73831
2.73467
2.63729
2.633
2.65756
2.65511
2.65706
2.75477
2.76128
2.75942
2.73574
2.73915
2.76792
2.76882
2.75521
2.75539
2.70114
2.70154
2.70623
2.71761
2.71397
2.72098
2.72752
2.71767
2.7237
2.72953
2.73147
2.7359
2.73256
2.72402
2.71692
2.72567
2.72542
2.72356
2.70585
2.71336
2.72455
2.72246
2.72622
2.72599
2.63259
2.63899
2.63915
2.64707
2.66354
2.65977
2.65803
2.67113
2.65092
2.66267
2.67278
2.68125
2.76497
2.76759
2.76551
2.77139
2.76405
2.75537
2.76032
2.75011
2.76936
2.76277
2.76584
2.76787
2.77115
2.75249
2.76275
2.75627
2.76375
2.75889
2.75491
2.75444
2.67401
2.66834
2.68487
2.6879
2.69023
2.6831
2.66349
2.6487
2.65578
2.64986
2.65609
2.66139
2.61952
2.63018
2.6263
2.62491
2.62961
2.61109
2.66174
2.65316
2.63273
2.63355
2.64989
2.64556
2.64095
2.70838
2.71515
2.72518
2.7183
2.70658
2.74975
2.74351
2.6971
2.69944
2.697
2.70544
2.6991
2.70253
2.68791
2.68664
2.71584
2.7087
2.70097
2.69707
2.70601
2.70305
2.7003
2.5877
2.59787
2.59761
2.58651
2.59128
2.58811
2.59209
2.59858
2.60232
2.59373
2.59481
2.60322
2.60003
2.60201
2.59588
2.59602
2.59325
2.5999
2.60436
2.59859
2.60008
2.75293
2.75535
2.76364
2.76842
2.77504
2.76573
2.76165
2.78055
2.77704
2.76811
2.77267
2.76309
2.7625
2.76168
2.7597
2.73343
2.74888
2.76698
2.76714
2.74973
2.65517
2.66008
2.67587
2.66836
2.67379
2.66408
2.65516
2.64949
2.67465
2.67969
2.65422
2.69738
2.68918
2.69554
2.69239
2.67656
2.67192
2.67745
2.67215
2.67046
2.66546
2.71143
2.72503
2.73818
2.73799
2.74742
2.72062
2.70506
2.69878
2.73491
2.72367
2.72316
2.70209
2.73402
2.71695
2.72991
2.74947
2.7343
2.71586
2.71821
2.72925
2.71446
2.58947
2.58834
2.58025
2.58792
2.58506
2.58272
2.58742
2.62136
2.63598
2.62501
2.62265
2.63562
2.62989
2.6336
2.63024
2.64029
2.63983
2.63951
2.63477
2.62932
2.64428
2.61641
2.60744
2.61621
2.61637
2.65694
2.66193
2.67045
2.65446
2.64809
2.65135
2.66173
2.65967
2.65477
2.64824
2.64424
2.65702
2.64929
2.64399
2.6618
2.64714
2.58198
2.59548
2.59634
2.60079
2.59766
2.76112
2.75682
2.76963
2.7041
2.71039
2.7104
2.57532
2.57902
2.58539
2.58876
2.57383
2.57562
2.57857
2.57138
2.57183
2.57422
2.57611
2.57557
2.58889
2.59066
2.59655
2.59174
2.58969
2.5923
2.59356
2.59058
2.58995
2.63483
2.63059
2.64453
2.65155
2.65771
2.64568
2.63923
2.65606
2.64502
2.65204
2.63248
2.62818
2.63681
2.6515
2.65115
2.65277
2.64799
2.6507
2.65392
2.56849
2.56992
2.57623
2.58257
2.58406
2.57213
2.57535
2.75304
2.76463
2.765
2.77413
2.77089
2.77817
2.76168
2.77887
2.77184
2.78333
2.76648
2.75787
2.7849
2.78272
2.76509
2.78023
2.56859
2.5689
2.64122
2.63924
2.65682
2.69209
2.69838
2.71043
2.67846
2.67492
2.66949
2.68183
2.67375
2.68433
2.69673
2.70219
2.6809
2.69867
2.6619
2.64899
2.66963
2.72333
2.72577
2.71318
2.6067
2.60932
2.61532
2.62118
2.60855
2.60937
2.61727
2.60185
2.59824
2.60286
2.61894
2.59028
2.59378
2.59286
2.58134
2.58455
2.5798
2.56246
2.56516
2.574
2.57636
2.58079
2.57279
2.5796
2.5744
2.60611
2.60056
2.59981
2.6009
2.59764
2.59959
2.5669
2.56463
2.57313
2.56853
2.56779
2.57233
2.57035
2.57647
2.57563
2.57933
2.57232
2.56835
2.57376
2.57378
2.5746
2.58038
2.57683
2.57479
2.5772
2.5778
2.57288
2.57305
2.58278
2.58737
2.58877
2.55242
2.56017
2.55388
2.54998
2.56434
2.57026
2.57169
2.57342
2.57302
2.56523
2.56679
2.57003
2.56872
2.57086
2.57142
2.56122
2.55085
2.56137
2.56202
2.55463
2.54869
2.55158
2.54902
2.55038
2.56064
2.56211
2.56185
2.55707
2.55866
2.5611
2.55417
2.55626
2.73868
2.74908
2.75154
2.72876
2.72455
2.73748
2.7898
2.79412
2.75526
2.75831
2.74773
2.76122
2.76488
2.55818
2.56451
2.56247
2.55952
2.56065
2.55425
2.62606
2.64551
2.64517
2.6616
2.66393
2.6488
2.64376
2.64266
2.64927
2.64509
2.64945
2.71458
2.72103
2.72885
2.58834
2.58795
2.592
2.58522
2.57653
2.59038
2.59335
2.57683
2.57511
2.60479
2.60164
2.60138
2.5958
2.60084
2.59403
2.58637
2.59319
2.59802
2.59422
2.54432
2.54649
2.54917
2.54576
2.55093
2.55854
2.56227
2.56325
2.56308
2.5642
2.56575
2.56401
2.56041
2.55946
2.55844
2.56655
2.56348
2.54662
2.54744
2.54505
2.54649
2.55155
2.55185
2.54997
2.55035
2.55339
2.56098
2.55981
2.56249
2.56561
2.55792
2.55845
2.55757
2.55503
2.55617
2.54879
2.55163
2.55579
2.54864
2.5494
2.63365
2.61197
2.61178
2.59337
2.57049
2.57795
2.57851
2.57484
2.58175
2.56854
2.67637
2.68742
2.66314
2.66235
2.75236
2.7487
2.69548
2.72355
2.70968
2.70311
2.73529
2.73701
2.70223
2.69146
2.67903
2.68217
2.69053
2.67725
2.66299
2.64334
2.64886
2.6627
2.65448
2.74541
2.74858
2.73814
2.73614
2.73386
2.71705
2.76875
2.76375
2.73796
2.7513
2.74031
2.72449
2.72712
2.73096
2.75107
2.73158
2.59001
2.60295
2.60348
2.60429
2.59917
2.62951
2.61952
2.61495
2.62947
2.63341
2.61775
2.64753
2.60553
2.61384
2.62175
2.61391
2.54681
2.54235
2.54897
2.545
2.7697
2.77356
2.76637
2.78006
2.7572
2.78186
2.78192
2.76699
2.75922
2.78101
2.77394
2.76638
2.78374
2.78666
2.77713
2.76682
2.76886
2.78908
2.76498
2.77687
2.78282
2.781
2.77314
2.77444
2.76218
2.78972
2.77266
2.77426
2.76383
2.78454
2.77527
2.78411
2.77221
2.77363
2.77806
2.6797
2.67082
2.68591
2.64961
2.65776
2.6481
2.64098
2.66239
2.72301
2.73943
2.73195
2.71832
2.74737
2.55436
2.56217
2.57322
2.56224
2.56858
2.56709
2.55525
2.5579
2.56315
2.56125
2.56296
2.56153
2.56296
2.56654
2.53693
2.53361
2.53118
2.53324
2.53592
2.53887
2.53898
2.53887
2.54616
2.53975
2.54074
2.54583
2.54333
2.52387
2.53652
2.54246
2.53307
2.53309
2.53653
2.53673
2.5302
2.53017
2.5326
2.67084
2.68112
2.68109
2.67856
2.66284
2.65381
2.67953
2.67834
2.68846
2.67959
2.68943
2.73038
2.75234
2.75876
2.72779
2.70846
2.72385
2.73111
2.74769
2.73853
2.71618
2.70545
2.70255
2.718
2.70859
2.71458
2.71503
2.70774
2.76548
2.77181
2.77038
2.77143
2.75864
2.74144
2.75075
2.76942
2.74027
2.74869
2.76669
2.76942
2.76814
2.76869
2.77819
2.78338
2.77441
2.76196
2.76626
2.77899
2.76829
2.76114
2.5523
2.54406
2.54445
2.55784
2.57151
2.58088
2.57448
2.57917
2.58779
2.58814
2.56521
2.57468
2.57643
2.58353
2.60686
2.59941
2.6175
2.64123
2.60577
2.60201
2.65002
2.64935
2.53659
2.53939
2.54195
2.53285
2.53365
2.53693
2.54097
2.54409
2.54151
2.54441
2.53442
2.53661
2.54598
2.54614
2.55019
2.54004
2.54144
2.5482
2.54053
2.54677
2.54882
2.53915
2.53929
2.54312
2.5417
2.57905
2.58852
2.59026
2.57666
2.57562
2.57891
2.56906
2.57649
2.57994
2.57434
2.56906
2.57301
2.68472
2.68988
2.66621
2.65261
2.69675
2.68916
2.66624
2.6898
2.67534
2.6248
2.62668
2.62893
2.54673
2.55135
2.55342
2.54883
2.71047
2.72144
2.72943
2.71404
2.7487
2.74352
2.74197
2.72576
2.61689
2.6125
2.60547
2.6462
2.6497
2.65501
2.63735
2.6428
2.54507
2.56115
2.55172
2.54636
2.56832
2.57712
2.71587
2.7194
2.72946
2.7277
2.72059
2.73709
2.72657
2.73062
2.73931
2.73332
2.71804
2.74749
2.73226
2.73178
2.71954
2.75551
2.73811
2.74379
2.76052
2.76179
2.76145
2.76856
2.75387
2.73734
2.75965
2.75641
2.75893
2.76533
2.74657
2.74685
2.73347
2.56641
2.56088
2.57216
2.57022
2.56685
2.57938
2.57002
2.58287
2.57509
2.5799
2.60368
2.60417
2.59306
2.58319
2.5844
2.59865
2.60379
2.59916
2.59042
2.5802
2.61422
2.60806
2.55875
2.56068
2.55846
2.55829
2.55882
2.65341
2.65635
2.67205
2.6591
2.72302
2.71363
2.69978
2.71864
2.69546
2.67986
2.67479
2.68381
2.52007
2.51744
2.52467
2.51836
2.52635
2.52384
2.52654
2.52532
2.52064
2.52577
2.51942
2.52439
2.52712
2.52268
2.5235
2.51699
2.51779
2.52919
2.52747
2.53566
2.53296
2.53618
2.53881
2.5374
2.53322
2.5323
2.53105
2.53051
2.53392
2.5362
2.52756
2.53049
2.5321
2.5261
2.52817
2.53499
2.5372
2.5316
2.51287
2.52161
2.51576
2.52172
2.51713
2.51658
2.54467
2.53904
2.53311
2.53395
2.53914
2.54997
2.52675
2.52588
2.52578
2.52253
2.52853
2.52296
2.52624
2.52929
2.52751
2.52876
2.5309
2.52258
2.52595
2.66051
2.67155
2.6688
2.67712
2.69432
2.69624
2.69322
2.676
2.6655
2.66053
2.66285
2.50503
2.50757
2.51239
2.50794
2.51161
2.50873
2.50536
2.50753
2.51412
2.52567
2.52819
2.52874
2.53337
2.53122
2.57678
2.57832
2.56816
2.56946
2.59858
2.60496
2.72187
2.72207
2.72905
2.73635
2.72703
2.73426
2.72515
2.74526
2.73203
2.72335
2.72092
2.7342
2.74824
2.73668
2.73982
2.73746
2.76111
2.74714
2.74705
2.74061
2.74196
2.72971
2.75624
2.73692
2.54813
2.54992
2.54429
2.55241
2.5608
2.56854
2.52692
2.52677
2.52698
2.5353
2.53192
2.53606
2.53655
2.53333
2.53281
2.54515
2.54508
2.54301
2.53183
2.53084
2.54319
2.54192
2.64074
2.62908
2.64636
2.61156
2.61236
2.59408
2.58484
2.57927
2.59244
2.57979
2.59358
2.67568
2.67667
2.67283
2.67187
2.66487
2.64511
2.68791
2.70365
2.67735
2.68106
2.70301
2.69193
2.69127
2.72325
2.71541
2.70126
2.71224
2.69316
2.72364
2.51081
2.5086
2.59604
2.59283
2.5836
2.59415
2.67389
2.67039
2.5652
2.56509
2.58023
2.57257
2.58638
2.65319
2.66285
2.67088
2.69487
2.68669
2.70088
2.69645
2.72641
2.72697
2.73017
2.73881
2.7286
2.72371
2.72028
2.73253
2.72006
2.71297
2.73989
2.73594
2.70808
2.7166
2.7299
2.71469
2.73443
2.71992
2.72658
2.72988
2.51722
2.52158
2.51873
2.52013
2.52289
2.53028
2.51859
2.5203
2.52128
2.52252
2.52486
2.52741
2.52369
2.52274
2.52253
2.524
2.52038
2.51223
2.51509
2.51638
2.52066
2.5094
2.51286
2.50551
2.50421
2.51065
2.50985
2.51381
2.50155
2.51908
2.52417
2.51699
2.50973
2.49767
2.49505
2.49022
2.49737
2.50176
2.50169
2.50146
2.50183
2.50514
2.50844
2.50357
2.51456
2.51528
2.51252
2.51355
2.51285
2.51151
2.51522
2.51016
2.51385
2.51262
2.53562
2.52928
2.5267
2.51248
2.51103
2.52243
2.52289
2.52575
2.52377
2.5221
2.52557
2.54424
2.53204
2.53986
2.54169
2.53359
2.5368
2.53417
2.53206
2.53621
2.52837
2.53122
2.70492
2.70854
2.70387
2.69724
2.66295
2.6659
2.68277
2.68073
2.66449
2.68665
2.67788
2.7012
2.70243
2.7043
2.71147
2.69227
2.69596
2.70578
2.70293
2.71343
2.72185
2.71035
2.6934
2.69496
2.71423
2.70581
2.70771
2.70678
2.69592
2.71392
2.72059
2.72551
2.70719
2.69704
2.72126
2.71091
2.62175
2.63518
2.62443
2.53329
2.53683
2.54579
2.55297
2.55015
2.54765
2.58146
2.60346
2.61471
2.58784
2.58002
2.58847
2.66683
2.65151
2.63955
2.65909
2.63847
2.62831
2.65959
2.6748
2.67733
2.68112
2.63411
2.64926
2.65585
2.63956
2.64408
2.65228
2.64113
2.53735
2.54067
2.54436
2.53727
2.53369
2.56617
2.56788
2.57684
2.56586
2.57547
2.68379
2.69198
2.66934
2.67958
2.67125
2.65855
2.65719
2.66583
2.66201
2.63401
2.64473
2.62651
2.65497
2.64458
2.65789
2.64676
2.65619
2.64814
2.65114
2.66929
2.66101
2.65039
2.67805
2.65768
2.66181
2.65033
2.62931
2.50904
2.50821
2.52817
2.53369
2.52556
2.69002
2.6887
2.70233
2.68656
2.67893
2.66991
2.65054
2.67475
2.679
2.66121
2.66216
2.6726
2.67828
2.6223
2.56556
2.5536
2.6284
2.62311
2.60833
2.625
2.60571
2.61926
2.63158
2.63357
2.64076
2.60361
2.60853
2.59633
2.56403
2.56183
2.57153
2.57462
2.55436
2.56836
2.55669
2.57472
2.5773
2.57239
2.60286
2.59307
2.59953
2.58541
2.58256
2.61246
2.60378
2.62078
2.60082
2.62161
2.61084
2.63087
2.62798
2.62202
2.49685
2.51816
2.51232
2.50833
2.51577
2.50818
2.50984
2.50416
2.52062
2.51934
2.51754
2.5193
2.51358
2.50744
2.51225
2.51558
2.50879
2.5084
2.63552
2.66044
2.64687
2.64681
2.64743
2.60571
2.59866
2.66246
2.65309
2.62789
2.62485
2.60703
2.68278
2.71012
2.70215
2.70705
2.69348
2.66428
2.68019
2.67165
2.66883
2.67797
2.70684
2.70923
2.68468
2.67211
2.6589
2.66566
2.74771
2.73793
2.72385
2.73717
2.72166
2.7128
2.73434
2.72049
2.59347
2.57714
2.58474
2.57363
2.57648
2.59685
2.5861
2.60112
2.59997
2.60402
2.5935
2.59194
2.57824
2.59897
2.61393
2.58375
2.5747
2.59101
2.61283
2.59827
2.62268
2.6579
2.67519
2.67833
2.6512
2.64585
2.65748
2.63687
2.63561
2.6407
2.66012
2.63607
2.61964
2.64377
2.63402
2.709
2.70135
2.71274
2.71211
2.72282
2.70827
2.72696
2.71867
2.70952
2.70944
2.7331
2.72106
2.71801
2.72194
2.51166
2.52199
2.52579
2.52848
2.51799
2.52036
2.51397
2.52391
2.51312
2.5139
2.51927
2.52456
2.52302
2.51845
2.51992
2.50722
2.49763
2.50612
2.50189
2.50643
2.51074
2.5043
2.50047
2.50185
2.50418
2.49437
2.50422
2.51161
2.67578
2.72465
2.68821
2.72292
2.72683
2.72389
2.70872
2.69551
2.71891
2.72542
2.71485
2.65704
2.68763
2.66749
2.69379
2.69338
2.66762
2.65584
2.7268
2.75498
2.7411
2.74977
2.75926
2.74868
2.76006
2.74669
2.77338
2.75881
2.72399
2.7337
2.73216
2.72582
2.74007
2.73396
2.77279
2.75047
2.75169
2.74429
2.73742
2.75843
2.76734
2.75776
2.7521
2.75247
2.74033
2.56055
2.55631
2.54943
2.55189
2.55681
2.56161
2.55874
2.55327
2.55362
2.58278
2.59842
2.58621
2.61998
2.60265
2.60562
2.62325
2.61628
2.61717
2.59979
2.64767
2.66262
2.65961
2.65141
2.63421
2.64177
2.63068
2.66683
2.67452
2.58253
2.58856
2.58181
2.57922
2.60242
2.59644
2.5903
2.59194
2.58443
2.58211
2.74467
2.75836
2.74793
2.73473
2.74444
2.75912
2.74347
2.75959
2.76088
2.75789
2.77253
2.76446
2.69767
2.70872
2.69104
2.70697
2.71804
2.7205
2.72746
2.71623
2.70983
2.69637
2.68389
2.7276
2.716
2.5451
2.54414
2.54578
2.54673
2.55197
2.54972
2.73522
2.72694
2.74054
2.71859
2.74472
2.65817
2.65031
2.66922
2.66648
2.66016
2.64948
2.63354
2.64933
2.67453
2.65813
2.69059
2.75345
2.75344
2.74186
2.75957
2.75247
2.76911
2.75548
2.73066
2.73777
2.73238
2.74269
2.76403
2.75573
2.73515
2.74545
2.75382
2.74236
2.75397
2.75824
2.75544
2.53527
2.53543
2.53537
2.5423
2.54073
2.53541
2.54151
2.54038
2.53877
2.54325
2.77083
2.78267
2.76599
2.77192
2.78174
2.78964
2.74256
2.73515
2.72621
2.73583
2.738
2.71776
2.73327
2.71435
2.70803
2.72023
2.72901
2.72634
2.75959
2.74499
2.74643
2.7562
2.75276
2.76087
2.75499
2.66715
2.68239
2.70586
2.68601
2.69692
2.71732
2.71629
2.71078
2.71782
2.72818
2.58019
2.57722
2.57598
2.57623
2.58013
2.57528
2.57878
2.57222
2.5761
2.61304
2.61301
2.6097
2.59846
2.59963
2.59945
2.59733
2.61291
2.60774
2.60856
2.60831
2.59401
2.60061
2.72269
2.70755
2.70358
2.73348
2.7314
2.72155
2.74566
2.73684
2.71451
2.72515
2.71264
2.72703
2.7099
2.76483
2.75696
2.77988
2.75444
2.76286
2.77888
2.78366
2.77536
2.77644
2.75982
2.77088
2.76886
2.77133
2.76662
2.76785
2.77245
2.77107
2.77261
2.77068
2.74464
2.74283
2.74755
2.76752
2.76565
2.76559
2.7613
2.75588
2.75567
2.77302
2.77293
2.69606
2.70003
2.70298
2.69333
2.6686
2.66562
2.68566
2.69581
2.69119
2.6742
2.66716
2.58608
2.58267
2.57136
2.57853
2.58365
2.58648
2.58238
2.58292
2.57444
2.57482
2.58002
2.57854
2.70773
2.72146
2.72012
2.71494
2.71099
2.70606
2.71232
2.72033
2.70927
2.70224
2.63541
2.63581
2.64046
2.6515
2.64159
2.64737
2.63455
2.62934
2.63005
2.623
2.62866
2.63124
2.61755
2.70452
2.70429
2.71713
2.71037
2.72105
2.71027
2.73084
2.71549
2.59289
2.58815
2.59134
2.59066
2.59588
2.599
2.59279
2.59302
2.60145
2.60072
2.59969
2.58268
2.58671
2.58827
2.58642
2.58447
2.66972
2.68669
2.68588
2.68343
2.66597
2.65824
2.68449
2.69107
2.69544
2.69589
2.69613
2.69478
2.70639
2.68605
2.6846
2.73852
2.73208
2.75497
2.74185
2.74963
2.75516
2.75488
2.74452
2.74692
2.7476
2.71169
2.71936
2.71947
2.715
2.7276
2.72913
2.73146
2.72212
2.72294
2.72367
2.72234
2.71298
2.73435
2.7194
2.73589
2.72967
2.72462
2.72104
2.63667
2.66359
2.67371
2.65395
2.65944
2.66952
2.66831
2.67497
2.67606
2.6682
2.66395
2.75062
2.75699
2.76031
2.75934
2.7589
2.75201
2.74748
2.75819
2.75839
2.75764
2.75148
2.74972
2.75765
2.74792
2.74031
2.75525
2.76109
2.75237
2.75856
2.75379
2.75139
2.7623
2.75865
2.77229
2.75873
2.77054
2.75643
2.7527
2.76634
2.75338
2.75755
2.64233
2.65841
2.65728
2.65324
2.64735
2.65192
2.67337
2.68296
2.6989
2.70294
2.68839
2.66864
2.69416
2.68268
2.6973
2.69703
2.69345
2.75182
2.75154
2.76187
2.76303
2.76433
2.75948
2.75397
2.76836
2.75974
2.72808
2.73536
2.74128
2.73808
2.73538
2.73656
2.73477
2.72538
2.76701
2.76133
2.7569
2.75688
2.76386
2.75481
2.77006
2.76691
2.76331
2.75387
2.52329
2.53202
2.52613
2.52536
2.53111
2.5329
2.52779
2.52558
2.52583
2.52975
2.52999
2.52367
2.52183
2.51909
2.52368
2.51976
2.52434
2.51753
2.52077
2.51747
2.51818
2.52254
2.51942
2.51638
2.52103
2.52292
2.51171
2.51457
2.52305
2.51878
2.51426
2.5156
2.71749
2.71876
2.61097
2.62319
2.62572
2.64214
2.66572
2.65539
2.62897
2.63301
2.64679
2.63744
2.62657
2.63553
2.63945
2.69081
2.708
2.67936
2.68681
2.66858
2.68776
2.68882
2.67324
2.68212
2.68001
2.67443
2.68474
2.68893
2.6722
2.67591
2.72689
2.70854
2.75416
2.75565
2.73095
2.7351
2.75383
2.75913
2.59702
2.59543
2.58653
2.59401
2.59186
2.59458
2.59151
2.59515
2.57735
2.58206
2.58316
2.58673
2.58827
2.58367
2.58483
2.58409
2.58857
2.58993
2.59075
2.75854
2.76032
2.77882
2.77598
2.76623
2.77136
2.77482
2.76822
2.76869
2.7629
2.75799
2.76717
2.66165
2.6774
2.67136
2.67045
2.67204
2.58011
2.58065
2.59115
2.58032
2.5803
2.58131
2.56832
2.56613
2.57315
2.55872
2.56553
2.56962
2.56788
2.57166
2.56403
2.56404
2.64279
2.64578
2.60707
2.61603
2.62752
2.62048
2.62636
2.63599
2.62122
2.61386
2.61991
2.61086
2.61309
2.56495
2.56736
2.5709
2.57052
2.56355
2.56267
2.556
2.56374
2.56375
2.64752
2.65394
2.64071
2.63612
2.628
2.62392
2.60706
2.63114
2.62764
2.6273
2.62099
2.62284
2.62658
2.61451
2.62063
2.59683
2.62297
2.61471
2.61617
2.60281
2.61384
2.62405
2.5799
2.59519
2.5951
2.59615
2.57964
2.58193
2.58627
2.5894
2.58652
2.58277
2.5793
2.58868
2.57869
2.58655
2.58472
2.57601
2.58167
2.58166
2.58134
2.5803
2.58758
2.58704
2.58263
2.58171
2.58517
2.58954
2.56329
2.74639
2.75991
2.74959
2.75273
2.74433
2.73444
2.75219
2.74337
2.72368
2.73452
2.5698
2.56546
2.57775
2.56932
2.56838
2.5739
2.56948
2.56491
2.56259
2.56505
2.57583
2.5812
2.57897
2.57721
2.56164
2.57169
2.56607
2.57205
2.5672
2.56718
2.56033
2.56868
2.57083
2.56608
2.56396
2.56344
2.6647
2.6796
2.67785
2.64945
2.66044
2.68387
2.68064
2.68635
2.67613
2.69018
2.67698
2.66118
2.58349
2.57533
2.5771
2.58513
2.57621
2.5771
2.58573
2.58826
2.57433
2.57473
2.58333
2.58499
2.58626
2.59152
2.58881
2.56316
2.56432
2.56533
2.55499
2.55323
2.55926
2.54895
2.55195
2.55748
2.56012
2.56065
2.55275
2.55489
2.55411
2.55804
2.55806
2.55397
2.55362
2.68362
2.69029
2.72369
2.71811
2.60172
2.60743
2.59923
2.74269
2.74406
2.74672
2.74672
2.73187
2.74152
2.72804
2.727
2.74565
2.73857
2.76441
2.76227
2.73641
2.75467
2.74948
2.74416
2.5461
2.54211
2.73182
2.7396
2.739
2.74814
2.73031
2.74221
2.75868
2.76027
2.76532
2.53743
2.54186
2.54097
2.53982
2.53719
2.54164
2.53394
2.53711
2.54001
2.53851
2.59134
2.57776
2.57806
2.59251
2.59192
2.57826
2.57387
2.58429
2.58301
2.56644
2.57335
2.5624
2.55959
2.56794
2.57366
2.56072
2.55326
2.55387
2.5468
2.54844
2.55011
2.55474
2.55948
2.54395
2.54779
2.55302
2.55795
2.5563
2.54054
2.53829
2.5463
2.54357
2.54087
2.53789
2.54462
2.54198
2.65238
2.6369
2.65349
2.6464
2.62393
2.6146
2.62885
2.60868
2.60103
2.61866
2.60802
2.63819
2.60316
2.61402
2.63348
2.54599
2.54475
2.54478
2.55187
2.5521
2.58512
2.57579
2.57954
2.59247
2.59813
2.58557
2.57469
2.58133
2.59642
2.58541
2.57832
2.55201
2.55481
2.54763
2.55044
2.55633
2.55386
2.54825
2.54859
2.54961
2.54691
2.55392
2.55677
2.54839
2.54051
2.54842
2.54718
2.54698
2.54461
2.54229
2.54058
2.60094
2.5692
2.58548
2.57961
2.59815
2.56959
2.56485
2.58421
2.57119
2.57637
2.70959
2.72278
2.57742
2.58494
2.60477
2.61712
2.63302
2.62771
2.59957
2.62126
2.62789
2.63433
2.57682
2.55571
2.5658
2.57181
2.56836
2.56665
2.69992
2.69753
2.66996
2.67855
2.71118
2.67913
2.68562
2.68153
2.69948
2.68827
2.67416
2.67648
2.70304
2.69639
2.52452
2.52643
2.68012
2.66003
2.67033
2.70343
2.6706
2.70539
2.70381
2.68995
2.61391
2.6455
2.6212
2.62857
2.63731
2.63752
2.64478
2.63333
2.65025
2.57157
2.5683
2.56296
2.57113
2.53997
2.56687
2.55848
2.5652
2.56164
2.67154
2.6705
2.50361
2.50275
2.50605
2.50878
2.50358
2.50518
2.50927
2.5048
2.50705
2.50537
2.50943
2.51322
2.50372
2.50785
2.707
2.69235
2.71513
2.71969
2.70116
2.68122
2.69184
2.70214
2.70997
2.69474
2.67092
2.68561
2.55398
2.52918
2.54175
2.5125
2.52736
2.54199
2.53404
2.54905
2.55506
2.53473
2.54029
2.54635
2.60525
2.6191
2.62265
2.59721
2.59643
2.60008
2.62688
2.62321
2.61998
2.60902
2.62443
2.63423
2.71372
2.70812
2.70969
2.51923
2.52089
2.52151
2.51959
2.52366
2.52333
2.5218
2.5233
2.52473
2.52599
2.51996
2.51811
2.51596
2.51757
2.51908
2.51819
2.51117
2.51354
2.5104
2.51576
2.51577
2.51762
2.52611
2.52207
2.51927
2.52298
2.52152
2.53018
2.52658
2.51716
2.5204
2.52549
2.69506
2.69325
2.67717
2.68936
2.68326
2.67747
2.70833
2.70434
2.71928
2.6982
2.68859
2.71043
2.71122
2.60818
2.59349
2.62339
2.61593
2.60112
2.6048
2.62533
2.6257
2.61336
2.63397
2.63376
2.57451
2.58368
2.69578
2.676
2.67149
2.68105
2.68924
2.5602
2.56445
2.56203
2.54589
2.56952
2.5755
2.57821
2.56282
2.57163
2.54745
2.59671
2.60847
2.54242
2.52386
2.53271
2.51791
2.51437
2.49987
2.50044
2.49706
2.51659
2.5169
2.62308
2.63097
2.61756
2.64657
2.63087
2.64403
2.64333
2.65014
2.64706
2.50698
2.51042
2.50721
2.51161
2.51389
2.50675
2.50821
2.50696
2.50834
2.50895
2.51198
2.51379
2.51514
2.63345
2.64537
2.64722
2.52418
2.52426
2.52379
2.66631
2.73044
2.73405
2.73321
2.72997
2.7516
2.73241
2.74306
2.7478
2.73752
2.75484
2.73915
2.7334
2.73851
2.74357
2.73632
2.73322
2.74218
2.74959
2.75172
2.75347
2.74225
2.75838
2.74955
2.7504
2.73674
2.74764
2.76526
2.75852
2.77028
2.77277
2.76125
2.74945
2.74903
2.7379
2.74739
2.71974
2.72967
2.68644
2.70596
2.69313
2.72242
2.68747
2.6742
2.71067
2.68936
2.68772
2.71303
2.71533