/*--------------------------------*- C++ -*----------------------------------*\
| =========                 |                                                 |
| \\      /  F ield         | OpenFOAM: The Open Source CFD Toolbox           |
|  \\    /   O peration     | Version:  v1612+                                |
|   \\  /    A nd           | Web:      www.OpenFOAM.com                      |
|    \\/     M anipulation  |                                                 |
\*---------------------------------------------------------------------------*/
FoamFile
{
    version     2.0;
    format      ascii;
    class       volVectorField;
    location    "200";
    object      U;
}
// * * * * * * * * * * * * * * * * * * * * * * * * * * * * * * * * * * * * * //

dimensions      [0 1 -1 0 0 0 0];

internalField   nonuniform List<vector> 
16937
(
(-0.624482 0.329965 -0.27144)
(-0.223123 0.6389 -0.313274)
(-0.782765 0.615574 -0.477773)
(-0.741196 0.262188 -0.193807)
(-0.806137 0.370823 -0.403833)
(-0.721105 0.413147 -0.345406)
(-0.815026 0.387029 -0.399515)
(-0.783986 0.40058 -0.375557)
(-0.809096 0.370514 -0.395698)
(-0.732149 0.397006 -0.352832)
(-0.747514 0.403522 -0.354713)
(-0.709685 0.430027 -0.335952)
(-0.811264 0.372073 -0.385292)
(-0.73498 0.396455 -0.331596)
(-0.718352 0.41235 -0.314163)
(-0.6921 0.398663 -0.302194)
(-0.664563 0.422675 -0.305335)
(-0.798573 0.395718 -0.373924)
(-0.733453 0.413087 -0.336471)
(-0.786873 0.384841 -0.3572)
(-0.67171 0.416275 -0.285953)
(-0.646106 0.409969 -0.269474)
(-0.715112 0.489244 -0.321545)
(-0.699289 0.495725 -0.320471)
(-0.67576 0.49362 -0.328082)
(-0.779792 0.463959 -0.382039)
(-0.76341 0.476072 -0.378014)
(-0.75529 0.47742 -0.372261)
(-0.76241 0.457516 -0.358915)
(-0.661853 0.515238 -0.291728)
(-0.708878 0.518667 -0.341237)
(-0.65953 0.515244 -0.307812)
(-0.741317 0.488097 -0.352655)
(-0.663257 0.528411 -0.313922)
(-0.615457 0.516029 -0.28225)
(-0.884374 0.431465 -0.405665)
(-0.842523 0.419124 -0.377402)
(-0.910171 0.445393 -0.431783)
(-0.858173 0.441508 -0.409477)
(-0.903756 0.420538 -0.399365)
(-0.862356 0.417274 -0.394618)
(-0.889979 0.402145 -0.395984)
(-0.831742 0.444327 -0.399462)
(-0.932194 0.439797 -0.433417)
(-0.922174 0.425552 -0.410344)
(-0.914754 0.423311 -0.436056)
(-0.94234 0.400333 -0.452054)
(-0.928794 0.401313 -0.422278)
(-0.907273 0.447697 -0.454085)
(-0.883366 0.423411 -0.431803)
(-0.88861 0.447712 -0.450315)
(-0.903317 0.437439 -0.444063)
(-0.938182 0.433229 -0.478304)
(-0.964113 0.393499 -0.470679)
(-0.894953 0.312311 -0.415325)
(-0.812516 0.339138 -0.35999)
(-0.930018 0.298025 -0.40866)
(-0.932135 0.298988 -0.414912)
(-0.814867 0.33091 -0.377149)
(-0.791523 0.358476 -0.332195)
(-0.81488 0.34404 -0.31861)
(-0.790273 0.348629 -0.31213)
(-0.932763 0.304986 -0.429134)
(-0.78725 0.338002 -0.328006)
(-0.880672 0.293559 -0.402863)
(-0.878172 0.30185 -0.38434)
(-0.92082 0.292662 -0.414628)
(-0.928198 0.294788 -0.428623)
(-0.837954 0.32436 -0.374608)
(-0.848086 0.315701 -0.391808)
(-0.92122 0.451099 -0.364255)
(-0.901193 0.467316 -0.343279)
(-0.941199 0.449277 -0.384631)
(-0.921481 0.46876 -0.367071)
(-0.917686 0.417123 -0.353672)
(-0.895021 0.45841 -0.323881)
(-0.936706 0.441602 -0.412443)
(-0.937547 0.437997 -0.377907)
(-0.913696 0.459731 -0.360027)
(-0.913931 0.43632 -0.348091)
(-0.939967 0.407752 -0.381752)
(-0.929931 0.422828 -0.365901)
(-0.945596 0.416931 -0.407031)
(-0.937075 0.42327 -0.38077)
(-0.829723 0.50762 -0.277572)
(-0.788568 0.539748 -0.246836)
(-0.794143 0.542855 -0.199015)
(-0.697431 0.563584 -0.162653)
(-0.69091 0.613413 -0.16082)
(-0.812022 0.534622 -0.261014)
(-0.678721 0.606872 -0.160548)
(-0.645094 0.60499 -0.133613)
(-0.767921 0.564742 -0.196648)
(-0.680598 0.58802 -0.152108)
(-0.822282 0.530447 -0.274244)
(-0.803539 0.559694 -0.270101)
(-0.710554 0.604005 -0.170602)
(-0.684848 0.579463 -0.142995)
(-0.769249 0.567662 -0.202213)
(-0.732061 0.573592 -0.185821)
(-0.699331 0.583452 -0.15995)
(-0.795663 0.496269 -0.309574)
(-0.820464 0.528212 -0.300533)
(-0.867042 0.511201 -0.33041)
(-0.852609 0.541533 -0.308723)
(-0.784037 0.554208 -0.262094)
(-0.7813 0.545098 -0.283796)
(-0.791393 0.590918 -0.235496)
(-0.804603 0.585155 -0.244566)
(-0.847975 0.545617 -0.289388)
(-0.833288 0.566026 -0.289432)
(-0.777364 0.590816 -0.219885)
(-0.83863 0.562676 -0.276779)
(-0.544381 0.294437 -0.344309)
(-0.536482 0.290548 -0.349507)
(-0.423554 0.29408 -0.305533)
(-0.400699 0.293354 -0.293473)
(-0.533788 0.321673 -0.343721)
(-0.431842 0.327423 -0.309499)
(-0.420019 0.306718 -0.308342)
(-0.468031 0.314331 -0.31319)
(-0.381017 0.285963 -0.288098)
(-0.332948 0.280539 -0.266718)
(-0.396499 0.335334 -0.284246)
(-0.435251 0.30799 -0.297112)
(-0.407936 0.32039 -0.279589)
(-0.328772 0.296139 -0.246814)
(-0.710047 0.27476 -0.347138)
(-0.690597 0.288113 -0.355937)
(-0.791638 0.293712 -0.397923)
(-0.74695 0.289542 -0.378769)
(-0.813117 0.317954 -0.422412)
(-0.783562 0.33284 -0.408918)
(-0.783419 0.318499 -0.416652)
(-0.776856 0.340484 -0.412202)
(-0.765679 0.30922 -0.396048)
(-0.785025 0.351254 -0.408948)
(-0.685392 0.287669 -0.345279)
(-0.64463 0.273812 -0.313187)
(-0.739873 0.351866 -0.375632)
(-0.698914 0.336753 -0.349105)
(-0.670459 0.287261 -0.337771)
(-0.726136 0.331441 -0.354351)
(-0.704571 0.349838 -0.337811)
(-0.7714 0.367423 -0.395662)
(-0.369258 0.33549 -0.285852)
(-0.357892 0.331222 -0.28811)
(-0.31516 0.321185 -0.278641)
(-0.291892 0.311777 -0.273769)
(-0.288847 0.301959 -0.259695)
(-0.273542 0.288789 -0.256803)
(-0.360952 0.289836 -0.263458)
(-0.332814 0.285785 -0.251784)
(-0.334921 0.317285 -0.277427)
(-0.380835 0.331006 -0.27668)
(-0.275743 0.291681 -0.260047)
(-0.332651 0.305452 -0.258575)
(-0.331188 0.295462 -0.2566)
(-0.316682 0.29903 -0.265593)
(-0.300832 0.292712 -0.254785)
(-0.365386 0.299023 -0.260896)
(-0.349013 0.299195 -0.257967)
(-0.726654 0.564853 -0.306553)
(-0.733759 0.59645 -0.286419)
(-0.762219 0.596208 -0.311839)
(-0.748409 0.624924 -0.27581)
(-0.747999 0.574501 -0.316307)
(-0.782773 0.57356 -0.337852)
(-0.706456 0.570713 -0.300121)
(-0.736374 0.603958 -0.311599)
(-0.748814 0.59669 -0.309192)
(-0.742486 0.635772 -0.298263)
(-0.747174 0.657859 -0.285969)
(-0.715815 0.634729 -0.270577)
(-0.686673 0.62001 -0.294537)
(-0.674411 0.697436 -0.224455)
(-0.667096 0.684527 -0.228145)
(-0.738797 0.640355 -0.295876)
(-0.742358 0.667148 -0.282226)
(-0.764114 0.651217 -0.281275)
(-0.708848 0.694396 -0.234366)
(-0.695645 0.717945 -0.235879)
(-0.75118 0.629547 -0.282715)
(-0.687748 0.643562 -0.273007)
(-0.733828 0.674071 -0.229131)
(-0.75183 0.676613 -0.253321)
(-0.539973 0.281044 -0.309939)
(-0.558599 0.321269 -0.325012)
(-0.547239 0.31655 -0.326749)
(-0.53261 0.265813 -0.306401)
(-0.565515 0.266171 -0.321626)
(-0.592502 0.307233 -0.323813)
(-0.630406 0.335434 -0.345089)
(-0.510373 0.302829 -0.318929)
(-0.509414 0.307557 -0.32382)
(-0.595933 0.276043 -0.324072)
(-0.518325 0.299598 -0.318892)
(-0.593914 0.298908 -0.33689)
(-0.627514 0.599744 -0.334857)
(-0.629022 0.614665 -0.353415)
(-0.610862 0.559349 -0.344164)
(-0.638908 0.60539 -0.367993)
(-0.612501 0.615931 -0.352372)
(-0.673829 0.601308 -0.39201)
(-0.638984 0.572593 -0.349052)
(-0.56717 0.492713 -0.357294)
(-0.566221 0.491153 -0.330447)
(-0.576223 0.476877 -0.354751)
(-0.603185 0.546573 -0.363944)
(-0.586986 0.565204 -0.367606)
(-0.655575 0.627771 -0.399541)
(-0.631877 0.582987 -0.390791)
(-0.615985 0.580028 -0.389647)
(-0.672835 0.630014 -0.404339)
(-0.586201 0.503623 -0.344053)
(-0.602021 0.598798 -0.383335)
(-0.588776 0.374047 -0.330787)
(-0.588474 0.396312 -0.337079)
(-0.579723 0.37883 -0.320258)
(-0.604515 0.382478 -0.329636)
(-0.680447 0.41497 -0.324239)
(-0.656184 0.397585 -0.337469)
(-0.683053 0.4352 -0.317894)
(-0.705207 0.423519 -0.343992)
(-0.662836 0.433126 -0.316126)
(-0.645446 0.396678 -0.344936)
(-0.685678 0.395262 -0.353569)
(-0.666686 0.374753 -0.348099)
(-0.699406 0.431769 -0.337069)
(-0.698416 0.438734 -0.346884)
(-0.671918 0.437155 -0.322589)
(-0.667643 0.397274 -0.354325)
(-0.864085 0.524291 -0.282529)
(-0.857294 0.536005 -0.309718)
(-0.850124 0.533865 -0.31105)
(-0.867652 0.531793 -0.296482)
(-0.836852 0.568088 -0.296843)
(-0.846976 0.507677 -0.332648)
(-0.858763 0.48603 -0.336488)
(-0.843131 0.552081 -0.282493)
(-0.867158 0.548901 -0.326931)
(-0.840597 0.572086 -0.306851)
(-0.85234 0.500354 -0.363313)
(-0.868073 0.537481 -0.326321)
(-0.541689 0.370147 -0.194168)
(-0.497952 0.371929 -0.143644)
(-0.611169 0.370908 -0.251974)
(-0.686414 0.362825 -0.28574)
(-0.64565 0.362329 -0.253832)
(-0.732635 0.351243 -0.295605)
(-0.520169 0.378199 -0.169703)
(-0.452818 0.359701 -0.132577)
(-0.583852 0.374209 -0.209513)
(-0.50224 0.390765 -0.158207)
(-0.569283 0.370545 -0.178675)
(-0.544018 0.368575 -0.169359)
(-0.452272 0.388575 -0.130703)
(-0.645679 0.369161 -0.198035)
(-0.5309 0.376167 -0.135671)
(-0.465129 0.370721 -0.134205)
(-0.590013 0.369447 -0.176581)
(-0.466932 0.371617 -0.127918)
(-0.63739 0.309601 -0.35789)
(-0.574999 0.346813 -0.333785)
(-0.43175 0.315436 -0.281547)
(-0.471732 0.297609 -0.311059)
(-0.418736 0.310868 -0.289645)
(-0.455782 0.310644 -0.307511)
(-0.564234 0.286783 -0.346994)
(-0.623275 0.308431 -0.36261)
(-0.638803 0.311678 -0.36091)
(-0.611463 0.339524 -0.342214)
(-0.499944 0.345461 -0.303311)
(-0.592944 0.281973 -0.36287)
(-0.595746 0.330253 -0.351826)
(-0.559319 0.348448 -0.333921)
(-0.770789 0.396283 -0.332499)
(-0.78373 0.410884 -0.366927)
(-0.791437 0.432022 -0.359609)
(-0.749147 0.400632 -0.315448)
(-0.766215 0.413042 -0.326364)
(-0.78815 0.387127 -0.355467)
(-0.826706 0.368556 -0.402353)
(-0.786931 0.306467 -0.37969)
(-0.836599 0.391365 -0.423888)
(-0.810971 0.3879 -0.41091)
(-0.738249 0.338878 -0.350699)
(-0.755004 0.325019 -0.378737)
(-0.755418 0.404994 -0.331508)
(-0.740027 0.324418 -0.34072)
(-0.802874 0.348805 -0.382017)
(-0.778944 0.304131 -0.380558)
(-0.784787 0.317914 -0.407616)
(-0.884498 0.460874 -0.480067)
(-0.828191 0.458782 -0.462738)
(-0.804165 0.459543 -0.452477)
(-0.751953 0.474551 -0.433378)
(-0.826053 0.475419 -0.463085)
(-0.790659 0.48241 -0.45564)
(-0.925167 0.424929 -0.495647)
(-0.916281 0.441353 -0.494567)
(-0.824985 0.477274 -0.46858)
(-0.799883 0.471525 -0.45123)
(-0.886094 0.457118 -0.493156)
(-0.892375 0.458596 -0.489819)
(-0.75823 0.486899 -0.434385)
(-0.829899 0.494644 -0.474504)
(-0.798737 0.504208 -0.458505)
(-0.241046 0.401003 -0.316029)
(-0.233952 0.43836 -0.320903)
(-0.22211 0.413361 -0.317234)
(-0.175237 0.40563 -0.316456)
(-0.185098 0.427611 -0.315719)
(-0.149762 0.377743 -0.298706)
(-0.67003 0.797046 -0.359223)
(-0.659703 0.822765 -0.366268)
(-0.672615 0.824248 -0.372156)
(-0.676893 0.833226 -0.371729)
(-0.711401 0.780306 -0.370313)
(-0.679863 0.818672 -0.359574)
(-0.686438 0.800109 -0.353424)
(-0.704696 0.782163 -0.354549)
(-0.677901 0.817886 -0.363625)
(-0.675506 0.821653 -0.387028)
(-0.677624 0.828059 -0.378096)
(-0.674047 0.818889 -0.376253)
(-0.643206 0.805873 -0.360831)
(-0.699749 0.8008 -0.378296)
(-0.706966 0.755244 -0.381401)
(-0.680904 0.800789 -0.352952)
(-0.684975 0.795107 -0.37135)
(-0.67715 0.812669 -0.389515)
(-0.666579 0.796117 -0.376045)
(-0.702404 0.796411 -0.390318)
(-0.691159 0.805123 -0.384703)
(-0.686527 0.782394 -0.370098)
(-0.663372 0.780961 -0.355727)
(-0.700423 0.806163 -0.378073)
(-0.712672 0.786711 -0.382496)
(-0.701885 0.812993 -0.384433)
(-0.655342 0.513573 -0.368421)
(-0.677693 0.529094 -0.395405)
(-0.63093 0.564659 -0.333687)
(-0.635523 0.54094 -0.354467)
(-0.636268 0.553234 -0.338733)
(-0.579946 0.510686 -0.333365)
(-0.722453 0.568271 -0.405104)
(-0.666608 0.486761 -0.374062)
(-0.609952 0.465351 -0.332351)
(-0.693342 0.527363 -0.378889)
(-0.634331 0.508918 -0.330765)
(-0.585699 0.446823 -0.327729)
(-0.692847 0.56089 -0.387988)
(-0.627998 0.580731 -0.345039)
(-0.63959 0.54473 -0.336133)
(-0.699918 0.586954 -0.365698)
(-0.638878 0.510591 -0.333343)
(-0.721621 0.36671 -0.316736)
(-0.67187 0.361851 -0.271915)
(-0.76005 0.333392 -0.297417)
(-0.699918 0.346687 -0.266103)
(-0.857093 0.300287 -0.388233)
(-0.77935 0.329379 -0.33614)
(-0.771129 0.344079 -0.339438)
(-0.754111 0.338655 -0.320044)
(-0.683833 0.345257 -0.281176)
(-0.707641 0.328702 -0.274926)
(-0.781554 0.314332 -0.318081)
(-0.736402 0.366282 -0.317355)
(-0.679458 0.352707 -0.277899)
(-0.737751 0.347346 -0.291404)
(-0.871079 0.292755 -0.390649)
(-0.817411 0.329722 -0.350994)
(-0.860717 0.296281 -0.408746)
(-0.961671 0.296458 -0.449976)
(-0.810329 0.311409 -0.374934)
(-0.863368 0.296184 -0.392165)
(-0.624158 0.622614 -0.313076)
(-0.631734 0.647913 -0.31499)
(-0.694891 0.666864 -0.336058)
(-0.673359 0.660847 -0.33813)
(-0.603928 0.574909 -0.313974)
(-0.605635 0.545216 -0.321712)
(-0.601805 0.53914 -0.314617)
(-0.668152 0.674274 -0.329018)
(-0.669522 0.620778 -0.3455)
(-0.683308 0.6317 -0.334771)
(-0.672508 0.649076 -0.352067)
(-0.674781 0.644361 -0.344203)
(-0.624412 0.641445 -0.34522)
(-0.616871 0.588494 -0.345902)
(-0.641011 0.234483 -0.183633)
(-0.57349 0.216051 -0.139581)
(-0.628935 0.219214 -0.17113)
(-0.573641 0.215914 -0.138183)
(-0.516655 0.207047 -0.103752)
(-0.738122 0.241107 -0.260935)
(-0.71927 0.239363 -0.247098)
(-0.542159 0.201334 -0.118129)
(-0.671337 0.210059 -0.195309)
(-0.61894 0.202879 -0.160113)
(-0.602784 0.373343 -0.312674)
(-0.590611 0.345687 -0.307925)
(-0.584303 0.383325 -0.274924)
(-0.606996 0.39145 -0.296171)
(-0.602427 0.395969 -0.268329)
(-0.654736 0.442894 -0.307043)
(-0.637481 0.428645 -0.280108)
(-0.689367 0.433615 -0.347036)
(-0.728978 0.458861 -0.388234)
(-0.657452 0.388074 -0.358344)
(-0.643224 0.387068 -0.345716)
(-0.583676 0.337293 -0.289169)
(-0.599047 0.371576 -0.275506)
(-0.657204 0.423122 -0.29833)
(-0.634745 0.416794 -0.27951)
(-0.694181 0.412662 -0.336513)
(-0.681134 0.440703 -0.351214)
(-0.65173 0.369537 -0.340269)
(-0.604231 0.344659 -0.292763)
(-0.653386 0.353845 -0.338029)
(-0.424324 0.299658 -0.151254)
(-0.401988 0.282513 -0.162436)
(-0.370795 0.272106 -0.139012)
(-0.423969 0.310378 -0.144036)
(-0.382808 0.282507 -0.136494)
(-0.505187 0.352583 -0.179137)
(-0.476655 0.337996 -0.158201)
(-0.487598 0.32954 -0.180082)
(-0.477165 0.297048 -0.194042)
(-0.509028 0.307223 -0.199969)
(-0.406669 0.274472 -0.144975)
(-0.423246 0.278025 -0.167106)
(-0.527241 0.353907 -0.192887)
(-0.4696 0.332293 -0.145855)
(-0.451387 0.305427 -0.148586)
(-0.433036 0.298319 -0.143015)
(-0.51732 0.31961 -0.188632)
(-0.512933 0.321329 -0.182445)
(-0.472395 0.312233 -0.151695)
(-0.4358 0.293114 -0.147666)
(-0.748384 0.493547 -0.375373)
(-0.721362 0.561115 -0.37459)
(-0.747716 0.536211 -0.385197)
(-0.71648 0.519072 -0.345272)
(-0.756803 0.525712 -0.399095)
(-0.729407 0.558665 -0.394275)
(-0.713758 0.591992 -0.34751)
(-0.769623 0.535639 -0.420431)
(-0.747706 0.557573 -0.370549)
(-0.780634 0.572209 -0.446098)
(-0.741243 0.583993 -0.415278)
(-0.71091 0.611497 -0.357516)
(-0.773375 0.554433 -0.425326)
(-0.709719 0.592116 -0.394167)
(-0.598788 0.383513 -0.189245)
(-0.58784 0.367563 -0.184281)
(-0.577873 0.413343 -0.174827)
(-0.622117 0.455392 -0.207004)
(-0.56574 0.431218 -0.172681)
(-0.603018 0.398559 -0.185869)
(-0.556544 0.397327 -0.168673)
(-0.642888 0.394453 -0.230397)
(-0.638953 0.435742 -0.232506)
(-0.693675 0.366593 -0.267591)
(-0.691647 0.378994 -0.26834)
(-0.733204 0.431357 -0.298018)
(-0.683929 0.361185 -0.263915)
(-0.654396 0.377108 -0.234566)
(-0.615939 0.442548 -0.207414)
(-0.667215 0.458122 -0.259768)
(-0.734163 0.432792 -0.319483)
(-0.69096 0.417096 -0.269261)
(-0.65173 0.698678 -0.376066)
(-0.660679 0.714856 -0.402579)
(-0.624579 0.631224 -0.402199)
(-0.662678 0.671787 -0.406591)
(-0.667327 0.720083 -0.409779)
(-0.617263 0.646478 -0.397363)
(-0.456112 0.298652 -0.284699)
(-0.448315 0.294484 -0.263629)
(-0.46241 0.289646 -0.272068)
(-0.438267 0.275137 -0.264852)
(-0.488062 0.280375 -0.270131)
(-0.483212 0.295201 -0.286627)
(-0.451597 0.304729 -0.283133)
(-0.457664 0.310568 -0.274518)
(-0.446885 0.282585 -0.246903)
(-0.501607 0.278267 -0.275145)
(-0.500184 0.319593 -0.263392)
(-0.488606 0.29755 -0.247773)
(-0.533785 0.327694 -0.282762)
(-0.5303 0.328423 -0.299192)
(-0.515274 0.29816 -0.260223)
(-0.520791 0.294386 -0.284892)
(-0.560943 0.306576 -0.302419)
(-0.499683 0.307958 -0.257549)
(-0.558226 0.328321 -0.294988)
(-0.545708 0.319067 -0.305493)
(-0.551738 0.303294 -0.280671)
(-0.54264 0.317379 -0.273425)
(-0.608452 0.607351 -0.270481)
(-0.556818 0.639817 -0.259262)
(-0.502262 0.723694 -0.196434)
(-0.560794 0.718936 -0.198369)
(-0.609969 0.630023 -0.261736)
(-0.652647 0.629102 -0.264449)
(-0.498325 0.72676 -0.172837)
(-0.493276 0.702841 -0.197022)
(-0.474055 0.703845 -0.182932)
(-0.603488 0.717129 -0.195709)
(-0.540358 0.716804 -0.178784)
(-0.523672 0.693571 -0.186094)
(-0.50574 0.667948 -0.218257)
(-0.562252 0.611504 -0.266247)
(-0.563752 0.621462 -0.270718)
(-0.604853 0.647793 -0.258132)
(-0.510805 0.703723 -0.21797)
(-0.65693 0.596947 -0.26872)
(-0.657434 0.641314 -0.258181)
(-0.625305 0.698014 -0.20072)
(-0.564295 0.715448 -0.177912)
(-0.578221 0.68864 -0.199836)
(-0.644682 0.624825 -0.252249)
(-0.601267 0.652156 -0.260253)
(-0.639346 0.61947 -0.249664)
(-0.643743 0.640745 -0.248883)
(-0.393114 0.354515 -0.274842)
(-0.362859 0.340719 -0.272989)
(-0.368095 0.36018 -0.292565)
(-0.35705 0.355195 -0.282094)
(-0.39463 0.328549 -0.27373)
(-0.295688 0.307912 -0.265089)
(-0.35908 0.342654 -0.288852)
(-0.30702 0.3297 -0.279156)
(-0.260895 0.256159 -0.231106)
(-0.255071 0.249109 -0.226106)
(-0.246051 0.249282 -0.225058)
(-0.222006 0.230128 -0.204317)
(-0.296465 0.252343 -0.193734)
(-0.315577 0.254401 -0.198741)
(-0.342516 0.279671 -0.220012)
(-0.285222 0.253929 -0.223582)
(-0.344397 0.277385 -0.23454)
(-0.334212 0.281495 -0.239753)
(-0.230837 0.225986 -0.199838)
(-0.240581 0.237246 -0.196548)
(-0.21434 0.220399 -0.190808)
(-0.276613 0.234318 -0.198633)
(-0.269026 0.248718 -0.200635)
(-0.257669 0.234138 -0.201957)
(-0.309697 0.27595 -0.224881)
(-0.250877 0.247095 -0.217093)
(-0.703818 0.791818 -0.428613)
(-0.72601 0.786086 -0.432642)
(-0.702889 0.777056 -0.4146)
(-0.708171 0.779304 -0.414333)
(-0.690495 0.788885 -0.447014)
(-0.670282 0.790439 -0.439916)
(-0.708123 0.793128 -0.456994)
(-0.643305 0.797714 -0.466341)
(-0.725153 0.75983 -0.424871)
(-0.700171 0.769986 -0.420455)
(-0.664697 0.761429 -0.409927)
(-0.625152 0.765601 -0.429601)
(-0.71979 0.777913 -0.45682)
(-0.715437 0.789647 -0.461062)
(-0.731721 0.777826 -0.443455)
(-0.72674 0.773079 -0.441158)
(-0.680185 0.76345 -0.430194)
(-0.892625 0.36987 -0.324461)
(-0.871175 0.361524 -0.301689)
(-0.945581 0.342509 -0.394126)
(-0.968716 0.334521 -0.430574)
(-0.93286 0.35973 -0.362222)
(-0.930115 0.342249 -0.355581)
(-0.903523 0.363866 -0.342302)
(-0.897342 0.349081 -0.339364)
(-0.920538 0.378065 -0.334719)
(-0.892997 0.382707 -0.311353)
(-0.892784 0.364405 -0.319531)
(-0.893238 0.382433 -0.31122)
(-0.908358 0.408925 -0.324787)
(-0.89954 0.393505 -0.315912)
(-0.926907 0.382629 -0.356412)
(-0.931492 0.392545 -0.377013)
(-0.923643 0.35948 -0.386205)
(-0.964878 0.353972 -0.407206)
(-0.952266 0.356319 -0.3975)
(-0.935358 0.398547 -0.347848)
(-0.953302 0.382964 -0.423782)
(-0.937117 0.381649 -0.369261)
(-0.958152 0.36188 -0.404848)
(-0.91209 0.31291 -0.486281)
(-0.873318 0.319756 -0.454128)
(-0.939463 0.290239 -0.500766)
(-0.951051 0.292983 -0.507212)
(-0.867802 0.325573 -0.432475)
(-0.871821 0.303605 -0.452563)
(-0.875883 0.311554 -0.439328)
(-0.861863 0.329601 -0.412406)
(-0.87964 0.296283 -0.437241)
(-0.896063 0.256814 -0.452959)
(-0.880608 0.267442 -0.452672)
(-0.931211 0.272526 -0.497606)
(-0.860911 0.311811 -0.428626)
(-0.872226 0.304144 -0.430779)
(-0.974546 0.237864 -0.511926)
(-0.939201 0.26224 -0.493299)
(-0.981102 0.25159 -0.525368)
(-0.987336 0.264789 -0.520456)
(-0.95289 0.246303 -0.486962)
(-0.957577 0.266022 -0.508223)
(-0.419106 0.289179 -0.292341)
(-0.520119 0.298776 -0.323018)
(-0.890444 0.480911 -0.433493)
(-0.874985 0.481086 -0.423482)
(-0.904751 0.468693 -0.455512)
(-0.879929 0.466416 -0.42794)
(-0.963619 0.425243 -0.458156)
(-0.944895 0.422813 -0.484521)
(-0.927832 0.440979 -0.461851)
(-0.930406 0.449354 -0.470476)
(-0.929761 0.448514 -0.437122)
(-0.915485 0.472251 -0.437056)
(-0.919919 0.470138 -0.480206)
(-0.937049 0.449593 -0.482186)
(-0.945968 0.440618 -0.465067)
(-0.952498 0.406376 -0.453668)
(-0.926419 0.464087 -0.461439)
(-0.934728 0.446278 -0.438494)
(-0.529333 0.349328 -0.158094)
(-0.512967 0.330048 -0.168944)
(-0.544402 0.363567 -0.160752)
(-0.521833 0.348567 -0.161574)
(-0.684336 0.330266 -0.297509)
(-0.63046 0.326054 -0.233555)
(-0.576547 0.327436 -0.205489)
(-0.585955 0.3179 -0.226578)
(-0.562516 0.340174 -0.194268)
(-0.587281 0.384251 -0.176484)
(-0.595862 0.386586 -0.189304)
(-0.692458 0.32667 -0.290372)
(-0.620821 0.385034 -0.213714)
(-0.657302 0.362856 -0.23976)
(-0.669584 0.380942 -0.26563)
(-0.813922 0.266486 -0.309135)
(-0.830577 0.254347 -0.309978)
(-0.761653 0.25501 -0.244715)
(-0.708142 0.258385 -0.176796)
(-0.778197 0.279109 -0.287447)
(-0.795513 0.261075 -0.307642)
(-0.828311 0.262926 -0.333326)
(-0.855773 0.249936 -0.36759)
(-0.844559 0.267812 -0.33492)
(-0.86658 0.259842 -0.367963)
(-0.85508 0.273567 -0.346471)
(-0.820863 0.268732 -0.289834)
(-0.872125 0.263426 -0.375272)
(-0.830021 0.272493 -0.313844)
(-0.785482 0.284965 -0.268322)
(-0.847341 0.55574 -0.489093)
(-0.872301 0.514697 -0.494617)
(-0.759865 0.637339 -0.472084)
(-0.839788 0.550925 -0.483824)
(-0.854199 0.565495 -0.470348)
(-0.698163 0.614411 -0.457013)
(-0.789737 0.591841 -0.482451)
(-0.864954 0.485952 -0.476313)
(-0.861579 0.478542 -0.476947)
(-0.852467 0.532752 -0.479424)
(-0.830273 0.556862 -0.463875)
(-0.869868 0.565661 -0.499478)
(-0.778296 0.63104 -0.484435)
(-0.805164 0.616312 -0.481456)
(-0.806463 0.584451 -0.493156)
(-0.870231 0.556208 -0.512386)
(-0.873951 0.52539 -0.501298)
(-0.836416 0.591882 -0.464589)
(-0.417271 0.191504 -0.165366)
(-0.444112 0.196855 -0.173578)
(-0.438714 0.222456 -0.162184)
(-0.401974 0.201317 -0.162147)
(-0.371232 0.19699 -0.140978)
(-0.431717 0.20069 -0.175282)
(-0.416909 0.202694 -0.151638)
(-0.397723 0.192551 -0.150637)
(-0.447558 0.234311 -0.14793)
(-0.389697 0.211275 -0.134243)
(-0.50182 0.233206 -0.198224)
(-0.507756 0.216345 -0.210005)
(-0.487332 0.216156 -0.20563)
(-0.528958 0.243003 -0.190051)
(-0.49932 0.247265 -0.164679)
(-0.495341 0.23637 -0.159445)
(-0.439007 0.210726 -0.153282)
(-0.438968 0.219636 -0.142655)
(-0.363669 0.481705 -0.248217)
(-0.388529 0.479379 -0.271326)
(-0.566322 0.451479 -0.323799)
(-0.407677 0.485658 -0.243585)
(-0.425523 0.4868 -0.246323)
(-0.598764 0.459641 -0.325862)
(-0.556155 0.468728 -0.299927)
(-0.408476 0.510978 -0.262914)
(-0.411303 0.498976 -0.237258)
(-0.384697 0.486987 -0.233794)
(-0.337393 0.473997 -0.221117)
(-0.445413 0.497923 -0.272607)
(-0.518838 0.42541 -0.334998)
(-0.543972 0.434553 -0.338322)
(-0.477677 0.457384 -0.317403)
(-0.529993 0.477472 -0.300294)
(-0.360384 0.463256 -0.268534)
(-0.317918 0.441597 -0.242242)
(-0.423402 0.478211 -0.289723)
(-0.391706 0.468087 -0.28053)
(-0.376036 0.452284 -0.272033)
(-0.504335 0.446745 -0.337216)
(-0.649472 0.735523 -0.400772)
(-0.654876 0.719312 -0.400457)
(-0.616456 0.73264 -0.380649)
(-0.623073 0.695232 -0.387118)
(-0.654162 0.721776 -0.398331)
(-0.733395 0.657627 -0.42977)
(-0.717293 0.613067 -0.410499)
(-0.685864 0.703628 -0.416984)
(-0.651689 0.679301 -0.374802)
(-0.671968 0.662163 -0.402873)
(-0.716702 0.689493 -0.452327)
(-0.73993 0.644789 -0.458734)
(-0.698397 0.614783 -0.398291)
(-0.689827 0.633108 -0.398591)
(-0.674954 0.642293 -0.385703)
(-0.719623 0.584772 -0.426679)
(-0.707742 0.586563 -0.42019)
(-0.704444 0.651522 -0.434951)
(-0.47383 0.381604 -0.248852)
(-0.505644 0.397619 -0.26785)
(-0.494206 0.379236 -0.272215)
(-0.469165 0.354333 -0.274146)
(-0.520227 0.408069 -0.290729)
(-0.467696 0.3706 -0.276941)
(-0.447045 0.357509 -0.258736)
(-0.459348 0.368845 -0.271969)
(-0.401592 0.344128 -0.249548)
(-0.410795 0.345119 -0.252036)
(-0.489417 0.475947 -0.310644)
(-0.574213 0.507314 -0.295144)
(-0.589741 0.486708 -0.310917)
(-0.583907 0.403421 -0.319817)
(-0.53926 0.364904 -0.3059)
(-0.618592 0.438525 -0.32124)
(-0.612954 0.464502 -0.311578)
(-0.492339 0.429928 -0.321969)
(-0.497518 0.420148 -0.335653)
(-0.535252 0.517134 -0.317187)
(-0.564677 0.46793 -0.307485)
(-0.539627 0.472698 -0.322463)
(-0.58385 0.396392 -0.323637)
(-0.585409 0.407758 -0.327884)
(-0.540059 0.391012 -0.305468)
(-0.496596 0.38874 -0.298684)
(-0.567076 0.441313 -0.312757)
(-0.498182 0.426732 -0.335042)
(-0.547461 0.421998 -0.320337)
(-0.779349 0.474495 -0.347937)
(-0.76833 0.425723 -0.344841)
(-0.781163 0.42022 -0.35508)
(-0.733736 0.367395 -0.353098)
(-0.765517 0.46483 -0.336868)
(-0.737824 0.445844 -0.33581)
(-0.739165 0.415196 -0.35139)
(-0.817266 0.461431 -0.340932)
(-0.80855 0.462577 -0.333589)
(-0.740831 0.454479 -0.353675)
(-0.753947 0.46071 -0.334222)
(-0.809027 0.453182 -0.34089)
(-0.794718 0.481315 -0.317271)
(-0.74278 0.48445 -0.327204)
(-0.519645 0.668608 -0.274669)
(-0.513706 0.655095 -0.251397)
(-0.484676 0.608413 -0.221987)
(-0.596284 0.623873 -0.322348)
(-0.601511 0.580686 -0.302413)
(-0.559575 0.5844 -0.25371)
(-0.601617 0.56232 -0.272934)
(-0.606909 0.563187 -0.275784)
(-0.607516 0.594248 -0.288464)
(-0.600732 0.649209 -0.300362)
(-0.514286 0.577889 -0.218151)
(-0.626676 0.653127 -0.362592)
(-0.607013 0.538247 -0.294229)
(-0.621616 0.532529 -0.312865)
(-0.585324 0.573269 -0.266806)
(-0.60661 0.678653 -0.350107)
(-0.641336 0.608583 -0.360202)
(-0.627209 0.654684 -0.349815)
(-0.737505 0.747644 -0.357136)
(-0.726606 0.760832 -0.364695)
(-0.727066 0.758566 -0.363219)
(-0.723871 0.755755 -0.347519)
(-0.750566 0.74674 -0.387173)
(-0.731055 0.751133 -0.369044)
(-0.744981 0.75885 -0.36972)
(-0.705289 0.768957 -0.351192)
(-0.730623 0.768052 -0.378644)
(-0.736818 0.762457 -0.377718)
(-0.699968 0.778136 -0.335499)
(-0.689476 0.765117 -0.332856)
(-0.709845 0.774052 -0.368553)
(-0.686459 0.76245 -0.350184)
(-0.717155 0.768212 -0.340425)
(-0.704435 0.777068 -0.336536)
(-0.714445 0.770947 -0.373573)
(-0.716249 0.760081 -0.35862)
(-0.711662 0.77716 -0.36148)
(-0.70199 0.786408 -0.354902)
(-0.733165 0.764125 -0.362443)
(-0.54244 0.77247 -0.262404)
(-0.531707 0.781728 -0.272197)
(-0.512959 0.827621 -0.242489)
(-0.53713 0.819675 -0.252774)
(-0.531245 0.812609 -0.230069)
(-0.494956 0.82229 -0.220075)
(-0.584076 0.803145 -0.248089)
(-0.542212 0.800258 -0.229151)
(-0.547804 0.765557 -0.265207)
(-0.519193 0.82402 -0.255942)
(-0.595537 0.73309 -0.286434)
(-0.588431 0.757671 -0.274027)
(-0.545714 0.81852 -0.237726)
(-0.55802 0.799194 -0.227462)
(-0.599878 0.799475 -0.258173)
(-0.529911 0.801888 -0.216336)
(-0.587415 0.82257 -0.246288)
(-0.533303 0.815614 -0.234483)
(-0.593669 0.786071 -0.270421)
(-0.624633 0.780988 -0.282212)
(-0.585165 0.814759 -0.261064)
(-0.561688 0.830846 -0.247366)
(-0.419391 0.470872 -0.319983)
(-0.371215 0.444904 -0.324569)
(-0.382268 0.416581 -0.325973)
(-0.493231 0.505542 -0.298716)
(-0.518432 0.537496 -0.309746)
(-0.423544 0.487807 -0.320193)
(-0.360647 0.464748 -0.326989)
(-0.333296 0.504649 -0.321002)
(-0.460548 0.469258 -0.318116)
(-0.475813 0.441138 -0.316446)
(-0.348419 0.542783 -0.31672)
(-0.357624 0.541566 -0.315604)
(-0.384511 0.509645 -0.317662)
(-0.457512 0.574075 -0.304887)
(-0.448408 0.572676 -0.307396)
(-0.36412 0.542236 -0.315752)
(-0.386557 0.35088 -0.322813)
(-0.390367 0.339765 -0.315547)
(-0.471634 0.330842 -0.332191)
(-0.464486 0.345552 -0.32735)
(-0.415156 0.315587 -0.314463)
(-0.390416 0.365806 -0.319954)
(-0.367778 0.34411 -0.310249)
(-0.395298 0.318202 -0.315497)
(-0.407874 0.342661 -0.325258)
(-0.523642 0.346735 -0.338187)
(-0.527301 0.327739 -0.335053)
(-0.431317 0.314518 -0.315853)
(-0.493406 0.302406 -0.320453)
(-0.515592 0.318406 -0.337498)
(-0.43889 0.319934 -0.321105)
(-0.50381 0.314412 -0.340033)
(-0.552406 0.330084 -0.345055)
(-0.417781 0.37007 -0.323133)
(-0.514615 0.34809 -0.340046)
(-0.135154 0.489266 -0.30978)
(-0.110895 0.453697 -0.3062)
(-0.534701 0.828571 -0.237342)
(-0.499771 0.83814 -0.233066)
(-0.647364 0.772926 -0.414433)
(-0.629925 0.781565 -0.428273)
(-0.49722 0.757677 -0.34652)
(-0.489341 0.741023 -0.32212)
(-0.64601 0.789439 -0.495613)
(-0.644239 0.789066 -0.48621)
(-0.3166 0.759627 -0.230707)
(-0.266055 0.751257 -0.242287)
(-0.702698 0.750789 -0.379349)
(-0.680233 0.749155 -0.350505)
(-0.622872 0.773605 -0.244139)
(-0.63337 0.778373 -0.249532)
(-0.671536 0.770032 -0.265226)
(-0.159102 0.454328 -0.296028)
(-0.144905 0.41537 -0.288324)
(-0.412609 0.469374 -0.155281)
(-0.470041 0.536598 -0.178594)
(-0.438507 0.467147 -0.154189)
(-0.440318 0.529469 -0.163898)
(-0.511671 0.696699 -0.299116)
(-0.502073 0.666794 -0.258836)
(-0.176801 0.259388 -0.236035)
(-0.185042 0.24945 -0.23366)
(-0.731798 0.713702 -0.446046)
(-0.726631 0.714515 -0.425231)
(-0.699091 0.738776 -0.492015)
(-0.622463 0.741327 -0.468011)
(-0.625968 0.7425 -0.448505)
(-0.308623 0.255588 -0.167098)
(-0.28106 0.24466 -0.167244)
(-0.289857 0.236789 -0.174329)
(-0.293143 0.248323 -0.163637)
(-0.317359 0.265693 -0.156553)
(-0.654845 0.746865 -0.225316)
(-0.62286 0.751033 -0.216425)
(-0.283012 0.6931 -0.235832)
(-0.348988 0.694686 -0.233535)
(-0.368981 0.700844 -0.227173)
(-0.174837 0.44499 -0.278427)
(-0.18157 0.469862 -0.270174)
(-0.752296 0.672854 -0.309446)
(-0.76276 0.674352 -0.329461)
(-0.761872 0.670214 -0.35442)
(-0.7374 0.696198 -0.317811)
(-0.577491 0.693814 -0.359453)
(-0.572274 0.688071 -0.317223)
(-0.412428 0.346886 -0.139536)
(-0.380552 0.338183 -0.135631)
(-0.187894 0.264067 -0.244614)
(-0.190194 0.281828 -0.247041)
(-0.590827 0.689683 -0.154262)
(-0.548226 0.72213 -0.153833)
(-0.19283 0.376783 -0.266391)
(-0.183533 0.353146 -0.260525)
(-0.343608 0.256741 -0.146375)
(-0.483888 0.48465 -0.163979)
(-0.50019 0.500685 -0.179559)
(-0.253402 0.212348 -0.194972)
(-0.271195 0.2084 -0.189213)
(-0.7326 0.661791 -0.481935)
(-0.690076 0.672292 -0.450727)
(-0.321397 0.617353 -0.213108)
(-0.280902 0.580414 -0.237067)
(-0.785863 0.62244 -0.401069)
(-0.801455 0.624488 -0.426558)
(-0.786719 0.646067 -0.431181)
(-0.630818 0.668749 -0.380127)
(-0.646862 0.68216 -0.382044)
(-0.764221 0.610629 -0.234614)
(-0.734342 0.635402 -0.206008)