/*--------------------------------*- C++ -*----------------------------------*\
| =========                 |                                                 |
| \\      /  F ield         | OpenFOAM: The Open Source CFD Toolbox           |
|  \\    /   O peration     | Version:  v1612+                                |
|   \\  /    A nd           | Web:      www.OpenFOAM.com                      |
|    \\/     M anipulation  |                                                 |
\*---------------------------------------------------------------------------*/
FoamFile
{
    version     2.0;
    format      ascii;
    class       surfaceScalarField;
    location    "100";
    object      phi;
}
// * * * * * * * * * * * * * * * * * * * * * * * * * * * * * * * * * * * * * //

dimensions      [0 3 -1 0 0 0 0];

internalField   nonuniform List<scalar> 
41566
(
-8.19573e-10
-6.2184e-09
1.20528e-09
5.83249e-09
-5.07348e-09
4.76766e-09
-9.57507e-09
9.88077e-09
-1.59822e-08
-2.03848e-09
5.82558e-09
1.21949e-08
-1.91382e-09
-4.72007e-09
-9.34845e-09
3.18765e-09
3.72486e-09
1.66976e-09
-8.58221e-09
7.70715e-10
-4.38395e-09
6.80099e-09
-3.02549e-09
7.52102e-09
1.43315e-08
-5.75563e-09
-1.04899e-08
3.59662e-09
8.69645e-09
-1.18662e-08
1.46662e-08
-9.39498e-09
8.60774e-09
9.01646e-09
-6.29705e-09
-7.4396e-09
-5.84253e-09
2.99275e-09
-4.46788e-09
4.02463e-09
-8.95197e-09
-5.64269e-09
-3.94848e-09
3.74855e-09
-1.00784e-09
-1.09321e-08
-1.12314e-08
2.18747e-09
-5.45096e-09
6.29169e-09
-3.02823e-09
-1.90286e-09
3.8177e-09
2.72546e-10
-5.72115e-11
2.41564e-09
-7.80941e-09
4.00516e-09
1.58773e-09
-5.65026e-09
2.06119e-09
4.10145e-11
5.0243e-09
-5.93046e-10
1.8604e-09
-1.80363e-09
3.88207e-09
2.94574e-09
1.82546e-09
1.88624e-10
8.49748e-09
1.84848e-09
-7.93041e-09
1.7294e-09
-6.96518e-09
6.82347e-09
6.42128e-09
1.48314e-09
-5.07602e-10
-3.94591e-09
8.33557e-09
-2.29519e-09
3.61301e-09
1.12369e-08
-7.65902e-09
-4.16378e-09
6.63912e-09
5.4158e-09
-3.58313e-09
5.288e-09
-7.12066e-09
7.20667e-09
-4.08608e-09
3.48997e-09
2.45293e-09
-1.47276e-08
1.14122e-08
8.62779e-10
-1.30846e-08
1.13024e-08
4.23524e-09
2.88794e-09
3.04648e-09
9.57525e-09
-1.55096e-08
6.49522e-09
5.54724e-09
-9.15469e-09
5.08135e-09
-1.51193e-08
-1.19521e-09
-8.45091e-09
9.46406e-09
1.3606e-08
-1.3495e-08
1.91279e-08
-3.1685e-09
1.07543e-08
3.24066e-09
-2.69266e-09
8.15786e-09
-2.58322e-09
5.83757e-09
4.44782e-09
1.44643e-08
-1.06595e-08
-4.29579e-09
1.94032e-08
1.41132e-08
-9.76105e-09
-2.67704e-09
1.36366e-08
8.16863e-09
8.19613e-09
2.73263e-09
7.77249e-10
8.55539e-09
2.97474e-09
1.78961e-08
-9.94912e-09
1.18159e-08
-2.68803e-09
8.21274e-10
-2.70039e-09
5.6698e-09
-1.29185e-08
2.09018e-09
-8.71266e-09
3.92209e-09
6.22685e-09
1.3158e-09
-1.87289e-09
6.69095e-09
1.13519e-08
3.28161e-09
3.1353e-09
-4.32675e-09
4.48424e-09
1.13142e-10
9.94565e-12
-3.96091e-10
4.87033e-09
-4.55786e-09
4.8043e-09
-2.36548e-10
-2.49483e-09
6.57384e-09
4.25387e-09
-8.33294e-09
1.49893e-09
-3.90648e-09
-8.73377e-11
-1.02057e-09
4.58538e-09
3.00903e-09
2.80147e-09
2.86895e-09
7.63684e-11
2.13016e-09
-2.52462e-09
2.65731e-10
1.28694e-10
-2.28653e-09
2.14832e-09
2.26838e-09
1.24938e-09
-2.48612e-09
-1.28779e-09
-1.10975e-09
7.25773e-11
1.24929e-09
-2.44583e-09
4.11202e-09
-2.9156e-09
-2.28637e-09
5.68394e-09
-3.0058e-09
8.25725e-10
-1.83432e-09
8.45281e-10
-1.20778e-10
-5.88536e-10
-3.22202e-10
3.83555e-09
-2.92481e-09
3.95475e-09
-6.29209e-10
-3.91409e-09
3.71104e-10
-1.55012e-10
-2.05045e-09
-2.43723e-09
-2.84428e-09
-3.43443e-09
3.99212e-09
7.4888e-10
4.66723e-10
2.73913e-09
1.57865e-09
2.26166e-09
-3.04592e-09
-1.87687e-09
-1.22181e-10
-2.92486e-09
-4.12858e-10
-9.75971e-11
-2.54009e-09
-2.80117e-09
9.13314e-09
3.08059e-09
-9.41263e-09
2.59356e-09
-5.51443e-09
1.19636e-10
5.8457e-09
-4.55288e-09
-1.06414e-08
1.03658e-08
-1.07896e-08
5.20933e-09
-4.78557e-09
5.59945e-09
-9.62006e-10
5.72832e-09
1.28176e-09
1.01633e-08
-3.7505e-09
3.7338e-09
-4.54736e-09
4.5639e-09
-7.80758e-09
3.09499e-09
1.01807e-08
-2.90694e-09
-1.23289e-08
5.05512e-09
-6.47215e-10
3.82414e-11
-1.30231e-08
1.03062e-09
-9.25096e-09
-1.57659e-09
-2.19541e-09
3.55338e-09
6.61035e-09
-2.40624e-09
7.4217e-09
2.35227e-09
-7.53727e-09
-2.62265e-09
-2.38823e-09
1.93104e-10
7.34365e-09
1.29454e-09
-1.15453e-08
-8.40865e-10
-4.52725e-09
5.67435e-09
-2.2216e-09
2.87882e-10
4.78426e-09
-6.36669e-09
2.87688e-09
1.74428e-10
-5.89578e-09
3.07234e-09
1.27483e-08
-9.92481e-09
-5.46126e-09
-1.38674e-09
9.52227e-10
-5.01069e-09
-8.49108e-09
8.04057e-09
-4.58282e-09
-1.06053e-10
3.30224e-09
1.72754e-09
9.62623e-10
-7.70099e-09
1.4978e-09
-4.35314e-09
-2.02458e-09
8.52e-09
-3.42307e-09
4.50507e-09
9.03248e-10
-3.22893e-09
-2.1793e-09
-3.84323e-09
6.32374e-09
-2.41007e-09
-5.29878e-10
1.10589e-09
3.21098e-09
-3.35424e-09
3.18959e-09
-5.85922e-10
1.64089e-09
-8.61322e-10
-1.41359e-09
1.39564e-09
-1.35291e-08
2.44779e-09
1.44113e-08
-3.33016e-09
5.15482e-09
-1.95882e-09
-1.67252e-08
1.70159e-08
-6.27205e-09
-2.58399e-09
-8.16024e-09
3.85968e-09
-7.26114e-09
2.04172e-08
-1.09215e-08
-1.53416e-09
1.6315e-08
-1.13905e-08
1.01303e-08
-9.6617e-09
-2.01812e-09
-1.72966e-08
7.92403e-09
6.89955e-09
-1.28444e-08
3.92653e-09
-7.33737e-09
1.00348e-08
-2.49694e-10
3.66826e-09
-5.85092e-09
-4.37865e-10
1.51214e-08
-2.72346e-10
-1.71406e-08
1.75044e-08
-8.01922e-10
5.56928e-09
-2.46688e-08
-2.42674e-08
-1.44573e-09
1.84518e-08
-1.3035e-08
6.49477e-09
-1.88014e-08
1.78756e-08
-3.32857e-09
8.69379e-09
1.54998e-09
-1.2352e-08
-7.62612e-09
-2.89174e-09
9.59777e-09
1.07839e-08
-5.88542e-09
6.43403e-09
-8.23273e-09
7.68386e-09
-4.98031e-09
-9.05862e-10
5.7934e-13
-9.65008e-10
5.23509e-10
6.87531e-09
1.25894e-09
-7.08272e-09
4.85857e-09
6.89324e-09
3.83109e-09
-8.31632e-09
-2.40818e-09
1.19981e-08
1.17558e-09
-6.28063e-09
-9.03592e-09
-3.35807e-09
4.16105e-09
-9.84519e-09
-4.17117e-09
1.15809e-08
2.94258e-09
-1.06926e-08
4.70833e-09
3.51438e-09
2.35224e-09
-7.74572e-09
6.6522e-09
-6.82592e-09
9.70153e-09
9.38507e-09
1.49006e-09
1.1228e-09
8.9607e-09
-4.24956e-10
-7.63619e-10
-7.77229e-09
7.26724e-09
-3.59063e-10
-6.54364e-09
-3.66761e-09
-1.5902e-09
4.89861e-09
6.34034e-09
-5.36216e-09
3.71067e-09
-4.68889e-09
-5.06353e-09
4.32117e-09
-5.92503e-09
-4.4422e-11
2.70501e-09
6.68229e-09
1.37716e-09
-3.8901e-11
-8.02049e-09
-8.72464e-09
1.18589e-08
3.54805e-09
-1.4251e-08
1.06975e-08
-5.17111e-09
8.77657e-09
-7.70978e-09
3.10436e-10
2.44449e-09
-1.50549e-08
-1.6405e-09
6.58825e-09
-5.28374e-09
9.39305e-09
5.44242e-10
1.7903e-08
-7.63349e-09
-3.74118e-09
1.19189e-08
-2.62255e-09
3.76571e-09
-2.86514e-08
6.86593e-09
9.96274e-10
2.07892e-08
-6.92677e-10
-3.01551e-09
-2.49431e-08
-6.37795e-09
-7.48238e-09
1.01193e-08
-1.22623e-08
3.26187e-09
1.83944e-08
-1.74176e-09
-1.73454e-08
1.77779e-08
8.51947e-10
-8.94967e-09
3.87949e-10
-1.64098e-08
1.21224e-08
-1.69808e-08
-1.31522e-08
-5.34615e-09
-3.75231e-09
6.72934e-10
8.42562e-09
-3.35163e-09
-3.05677e-09
1.06206e-09
-2.44101e-09
5.75013e-09
-7.75957e-09
4.45034e-09
-6.64208e-09
8.49337e-10
5.6408e-09
-6.45806e-09
-2.2395e-09
-2.78224e-09
4.67082e-09
-4.07606e-09
1.04993e-08
6.11647e-09
-4.06866e-09
-8.68996e-09
2.01884e-11
-1.66321e-09
3.84553e-09
2.11736e-09
-1.00316e-08
8.66545e-10
-3.47908e-09
3.26968e-09
-8.44298e-09
2.39128e-09
-7.70121e-09
6.89485e-09
5.96369e-09
4.54039e-09
-8.38658e-09
-1.71719e-09
-3.03595e-09
1.22085e-08
-3.92254e-09
-1.07952e-08
2.50864e-09
2.62977e-08
8.75561e-09
-2.2845e-08
-1.52119e-08
2.61358e-08
1.53735e-08
5.1528e-09
3.00353e-09
-1.9956e-08
1.17998e-08
2.25461e-08
7.88582e-09
-2.52796e-08
-8.99523e-09
-5.22567e-10
-5.69452e-09
-8.69948e-09
-2.0654e-08
1.52311e-08
1.41221e-08
-2.25901e-08
4.89508e-09
1.46718e-09
4.24812e-10
1.52945e-09
-1.62335e-08
-2.28537e-08
-2.36328e-09
1.42612e-08
1.09555e-08
-1.51195e-08
-1.39726e-08
6.23843e-09
-9.57809e-09
2.11702e-08
3.6387e-09
4.42327e-09
8.6436e-09
-1.00632e-08
-8.08357e-09
1.40363e-08
-2.14053e-08
9.46377e-09
2.07696e-08
3.24466e-10
-8.65829e-09
-1.24357e-08
1.86241e-08
-1.92599e-08
-6.15139e-09
6.62377e-09
1.34633e-08
-8.90617e-09
-1.1181e-08
1.75075e-08
-1.1799e-09
-9.70392e-09
1.46258e-08
9.17949e-09
-1.03421e-08
1.51887e-08
-7.66884e-09
7.10591e-09
1.15014e-08
-1.05242e-09
-1.26949e-09
1.05169e-08
6.91431e-09
2.92433e-09
6.83052e-10
-7.25829e-10
-1.11904e-08
1.12328e-08
-7.65861e-10
-9.28373e-09
1.07324e-08
9.1126e-09
-1.01184e-08
2.79875e-10
8.02397e-09
3.6163e-11
1.03739e-08
2.27021e-09
-4.62015e-09
-3.01897e-10
1.18612e-10
8.50607e-09
-6.66585e-09
-2.60626e-09
1.16853e-09
-4.32812e-10
-1.03775e-08
9.46959e-09
5.95077e-09
-9.55062e-09
-3.83324e-09
-6.49522e-10
1.40331e-08
-6.89316e-09
-7.66549e-09
5.00778e-09
5.79003e-09
-1.30406e-08
3.57078e-10
1.32654e-08
-1.319e-08
5.71451e-09
-1.80286e-09
1.12347e-08
3.93404e-09
-1.06866e-08
-9.13193e-10
-8.28697e-09
-4.05956e-09
1.16968e-08
2.29919e-09
-1.64258e-09
-7.4975e-10
-1.06483e-08
-2.29453e-09
-1.25382e-08
-3.9369e-09
9.57864e-09
-8.73135e-09
1.07046e-08
-1.18767e-08
1.48442e-08
3.12737e-09
9.10434e-09
2.48828e-09
-8.09462e-09
-1.42023e-08
1.98088e-08
1.40715e-08
-3.868e-09
-7.71508e-09
2.13647e-08
9.69329e-09
-1.88555e-08
-1.22024e-08
2.19661e-08
-1.08418e-08
1.02408e-08
-1.32376e-08
1.8072e-09
3.3361e-09
-1.18211e-08
1.09499e-09
-3.47583e-09
-8.10265e-09
-8.06024e-09
6.29785e-09
9.86505e-09
-1.7612e-08
-3.59584e-09
1.31052e-08
7.89328e-09
-1.10785e-08
1.33047e-08
1.00472e-09
1.2941e-09
5.59481e-09
-1.3981e-08
2.27096e-08
-3.23657e-09
-1.05123e-09
1.92622e-08
-5.42472e-09
-3.26928e-08
-3.40075e-09
-8.27855e-09
1.22293e-09
1.56474e-08
-8.13476e-09
-1.57913e-08
-5.20129e-09
-2.46379e-08
-8.80215e-09
-2.87559e-09
-4.30971e-09
1.59872e-08
-1.59189e-09
2.3873e-09
8.35163e-09
-1.09933e-08
1.04933e-09
1.28705e-08
-7.39455e-09
-8.30248e-09
1.47767e-08
-7.21418e-10
-7.10578e-10
-9.56146e-09
-1.15394e-08
1.54413e-09
4.76814e-09
5.22693e-09
-1.14622e-08
1.2671e-08
-1.49919e-08
8.23354e-09
-1.50935e-08
-1.70847e-10
-2.3033e-10
-1.81934e-08
-1.45265e-08
2.83378e-09
2.02474e-09
6.11853e-09
-9.99666e-09
1.85322e-09
-6.62698e-09
5.6265e-09
3.02502e-09
-8.57549e-09
2.44348e-09
-4.95052e-10
4.71262e-09
2.16896e-09
-5.06547e-09
-1.81626e-09
8.26039e-10
1.23215e-09
3.56802e-09
-4.81108e-09
1.77555e-09
3.86134e-09
-1.09782e-09
1.82562e-09
-5.53908e-09
3.16412e-09
4.50462e-10
-1.75709e-09
4.9115e-09
-2.92355e-09
-2.3097e-10
4.97111e-09
-4.55926e-09
7.95752e-10
-3.91488e-09
4.89452e-09
5.99081e-09
-6.17523e-09
6.30284e-09
1.33225e-09
5.8906e-09
-4.40523e-09
6.5332e-09
-2.57217e-09
3.07843e-09
1.71961e-09
6.7916e-10
9.68859e-10
-1.23502e-08
-4.40011e-10
1.0055e-09
1.17843e-08
-9.89351e-10
-5.65672e-09
-5.70433e-09
-9.95741e-09
-6.37891e-09
7.34869e-09
8.98743e-09
6.58813e-09
-1.04055e-08
-6.14014e-09
-1.33589e-08
1.19791e-08
9.39345e-10
-7.7601e-09
-6.00491e-09
4.57641e-10
1.0202e-08
-4.65492e-09
-1.08578e-08
-1.75358e-09
1.23161e-08
2.95085e-10
4.28812e-09
-2.87964e-09
-7.78749e-09
-8.53886e-09
-3.12285e-09
7.78391e-09
-3.03829e-09
8.79284e-09
6.67363e-09
-5.2645e-09
9.94521e-09
2.29499e-09
-1.24395e-08
1.99264e-10
7.04269e-09
1.15991e-08
9.1885e-09
-7.94464e-09
3.53771e-10
1.58777e-08
-9.61051e-09
-1.33188e-08
-1.03785e-08
1.93403e-08
-9.46534e-09
-1.48859e-08
-1.62265e-09
-5.09787e-09
-2.74526e-09
-6.2767e-09
-1.22984e-08
7.34358e-09
-1.542e-08
-5.61734e-09
-7.19511e-09
-9.84749e-09
1.17502e-08
-3.34155e-09
-1.56037e-08
-1.81173e-09
-1.92287e-08
-6.78047e-09
-6.80311e-11
7.18008e-09
-3.31518e-10
-6.23961e-09
-6.50481e-10
1.09533e-10
-1.08131e-09
-6.96937e-09
7.98243e-09
-5.0104e-09
-8.10142e-10
-3.03277e-09
-9.98717e-09
6.05055e-09
-9.9984e-09
1.95511e-09
-1.21498e-09
-1.63217e-09
-7.15129e-09
-2.35011e-09
-8.85195e-09
4.88584e-09
1.98394e-09
-8.91458e-10
-5.97852e-09
4.42156e-09
-1.36993e-09
1.83413e-09
-5.36194e-09
4.32967e-09
2.22258e-10
-2.9947e-09
2.05397e-09
-2.64297e-09
-9.28364e-10
-7.66142e-09
-6.00026e-09
4.1804e-09
-2.41823e-09
1.43817e-08
-9.17552e-09
-2.78813e-09
-1.05286e-08
1.33301e-08
-5.21954e-09
3.30202e-09
-4.43009e-09
-9.99967e-09
-1.93376e-10
-4.21872e-09
9.61233e-09
-1.45693e-08
6.10599e-09
-2.08533e-08
1.28482e-09
6.3443e-09
-1.01328e-08
2.5036e-09
5.46022e-09
-1.00376e-08
1.32135e-08
4.61816e-09
-5.00553e-09
5.82553e-09
-9.85233e-09
4.06149e-10
8.22726e-09
-2.90597e-09
-1.06952e-09
-4.25184e-09
-2.38222e-09
6.87394e-09
3.73527e-09
5.5614e-09
-3.07831e-09
-5.38913e-09
2.76112e-09
4.18025e-10
-2.5197e-09
-6.72385e-10
1.00658e-08
-8.57955e-09
-2.66286e-09
8.72265e-09
-5.3068e-09
-4.34234e-09
-4.92422e-09
-1.9263e-09
6.17795e-09
-2.75714e-09
5.93859e-10
-6.58696e-09
-1.18973e-09
5.8504e-09
-2.47431e-09
-7.23673e-09
3.12397e-09
-5.61121e-09
3.79794e-10
5.06031e-09
-8.96146e-09
8.22825e-10
-8.96195e-09
5.10927e-09
-5.61876e-09
1.34605e-10
-1.75257e-09
-6.16966e-09
-2.50246e-09
-6.32492e-09
-6.05696e-10
3.55239e-09
-1.4903e-08
1.19559e-08
-6.89232e-11
-5.96248e-09
9.96438e-09
-3.93356e-09
6.69248e-09
-2.42477e-09
-4.33691e-09
-1.50472e-08
8.02773e-09
1.05669e-09
-8.6654e-09
5.79904e-09
-7.24013e-09
1.01064e-08
-7.91857e-09
-4.72041e-10
-2.75132e-10
6.24641e-09
3.11204e-09
-4.50522e-09
1.61062e-08
-5.80215e-09
6.82462e-09
-8.40886e-09
-6.3346e-09
-1.03041e-09
6.14678e-10
-5.67035e-09
7.41136e-09
-8.33187e-12
-1.05765e-08
-6.73627e-09
-1.36809e-09
1.86805e-08
-3.44603e-09
-9.67699e-09
2.54623e-09
-1.23708e-08
-5.98933e-09
1.16237e-08
-1.38346e-08
-1.98229e-09
4.08435e-09
9.8057e-09
-1.98794e-08
6.86116e-09
-1.51087e-08
1.23319e-08
-9.40918e-09
1.49022e-08
9.59727e-09
-2.78189e-09
-1.35092e-08
6.69381e-09
-2.55843e-09
-2.95291e-09
-4.68455e-10
-1.10258e-08
2.085e-09
-1.06609e-08
5.15339e-10
-4.51215e-09
-7.84846e-09
-1.4742e-09
8.52656e-09
3.39625e-09
-1.47048e-08
-5.05761e-09
-1.17768e-08
3.05229e-10
-4.40799e-09
3.99037e-09
1.12438e-10
-4.52338e-09
4.1227e-09
7.05871e-10
-9.19628e-10
-3.06971e-09
-4.18708e-10
-1.23842e-09
-4.20463e-09
-2.94391e-09
4.8659e-09
2.20073e-09
1.06476e-09
-1.82664e-11
1.974e-10
1.04021e-09
3.62821e-09
-3.98295e-09
8.51172e-10
3.32914e-09
-3.12071e-09
2.02525e-10
5.15985e-09
-5.13374e-10
-4.09793e-11
-4.60556e-09
-3.68164e-10
4.59608e-09
9.31865e-10
-5.67025e-09
1.27959e-09
5.43077e-09
7.76021e-10
4.88098e-09
-4.80576e-09
5.06041e-09
-5.13101e-10
-5.06066e-09
3.75614e-10
4.31662e-09
8.2366e-10
-5.78811e-09
-5.94971e-09
5.43383e-09
5.11193e-09
-5.16709e-09
7.48936e-09
-4.75917e-09
4.3585e-09
-3.39202e-09
3.58265e-09
-1.01801e-08
9.98936e-09
-1.80792e-08
2.25043e-09
1.24367e-08
-3.91548e-09
-3.29764e-09
8.0253e-11
7.1327e-09
-5.65737e-09
1.91628e-10
1.54997e-09
-2.23932e-09
-3.63208e-09
-1.22079e-08
-2.77784e-09
-3.65827e-09
3.13837e-09
-2.32977e-09
-6.10551e-09
-1.11124e-08
9.70456e-09
-5.24477e-09
8.90756e-09
-6.80558e-09
1.75234e-09
-7.87422e-09
-5.4776e-09
2.78378e-09
-1.0788e-08
-2.17595e-09
-9.45919e-09
-1.29418e-09
2.87902e-09
-4.23878e-09
2.16936e-10
-4.93831e-09
6.23232e-10
4.31811e-09
-3.09877e-12
-4.19001e-09
3.44763e-09
-4.19594e-09
-3.50286e-09
3.44192e-09
6.84205e-10
-8.66538e-09
9.725e-10
-2.50264e-09
4.34708e-09
2.47348e-09
1.02385e-09
-7.89683e-11
1.25928e-10
7.23785e-09
-3.92189e-09
9.16295e-09
-4.71468e-09
-4.32241e-09
-7.63243e-09
1.11441e-09
-4.0714e-09
1.05892e-08
8.63084e-10
-1.25771e-09
3.33706e-09
6.15121e-09
-3.86642e-09
-5.62196e-09
4.33266e-09
2.81817e-11
-4.13253e-09
-2.9328e-09
8.17951e-09
1.07756e-09
-3.65071e-10
5.45651e-09
3.1304e-09
2.65565e-09
4.53026e-09
9.51998e-09
-1.54437e-08
5.48568e-09
4.37158e-10
5.18127e-09
-8.19962e-09
-5.52003e-09
-9.32955e-09
7.62334e-09
-1.37376e-08
-1.0799e-08
6.4398e-09
-6.10332e-10
4.96918e-09
-1.0232e-08
-9.28535e-09
8.71828e-09
5.85868e-09
8.14361e-09
-8.54589e-09
-4.90821e-10
1.27892e-08
1.61849e-09
5.5571e-09
9.67848e-10
6.23822e-09
-9.24921e-10
7.38341e-10
-6.05189e-09
1.0153e-08
-1.22312e-08
1.2265e-08
1.68613e-09
-2.32807e-08
2.79561e-09
8.54424e-09
-1.70918e-08
-3.80469e-09
1.87489e-09
4.78312e-09
-2.85322e-09
-7.7689e-10
5.08435e-10
-3.53631e-09
-2.30563e-09
-2.51687e-09
6.6975e-09
7.06208e-09
-3.5556e-09
-6.28802e-09
2.78138e-09
1.9268e-09
-2.81106e-09
2.02866e-10
6.80866e-10
2.27833e-09
-2.46844e-09
2.11689e-09
-3.42097e-09
5.72838e-09
-4.61315e-09
5.8032e-10
3.06076e-09
-2.61595e-09
2.3773e-09
-3.1017e-09
-2.91172e-10
3.07797e-09
-2.33076e-09
-3.55832e-09
7.50909e-10
-1.41391e-10
-1.57249e-09
2.59081e-09
-4.57403e-09
1.62634e-09
-5.52967e-09
-5.08835e-09
2.35727e-09
3.31134e-09
-1.05186e-09
-1.44574e-09
3.3939e-09
-2.81953e-09
2.40291e-09
-2.94643e-09
3.93735e-09
5.21134e-11
-2.03264e-09
5.66934e-09
8.88169e-10
-4.52481e-09
1.12203e-09
3.21816e-09
-6.37278e-09
1.53852e-10
5.34605e-09
1.69449e-10
-4.10125e-09
3.95669e-09
2.98438e-10
-2.18103e-09
7.31742e-09
-4.2482e-09
5.38694e-09
-6.44595e-09
4.1034e-09
-4.98648e-09
-1.01172e-09
2.61223e-09
3.74559e-09
2.79523e-09
3.51055e-09
-2.70344e-09
1.58088e-09
3.73475e-09
9.02926e-10
3.50272e-10
-6.60127e-09
2.55798e-09
6.83854e-09
1.13773e-09
-2.35208e-09
4.17405e-09
-5.355e-09
2.08383e-09
8.3129e-09
-1.13891e-10
-1.62096e-09
9.67015e-09
-9.71239e-09
1.01276e-08
-1.98927e-10
-1.15493e-08
6.86605e-11
8.38511e-09
-1.2894e-08
4.44051e-09
-1.30981e-08
4.78042e-09
8.12796e-09
-1.46008e-09
-1.91903e-09
-3.50684e-09
-7.45502e-09
1.28812e-08
-3.34354e-10
-6.25573e-09
-6.50798e-09
-6.12202e-09
-7.10632e-09
1.01181e-08
-4.02704e-09
-8.01007e-09
4.13531e-09
5.11942e-09
8.63083e-10
5.61471e-09
-1.17565e-08
-3.88979e-09
1.06004e-09
-4.24071e-09
-9.81045e-09
1.05444e-08
7.25548e-10
2.4359e-09
-9.41718e-09
-9.63734e-09
-1.33476e-08
-1.12215e-08
1.6963e-08
1.39045e-08
1.22031e-08
-5.7565e-09
-5.03747e-09
1.26183e-09
1.05901e-08
3.51174e-10
3.6545e-09
8.39382e-09
-2.97355e-09
7.96412e-09
-4.77916e-09
4.69502e-10
7.56885e-10
9.24888e-09
1.03003e-09
1.06081e-09
1.52579e-09
-8.86367e-09
8.59969e-09
-5.10198e-09
4.94087e-09
8.12516e-09
-5.20982e-12
3.29706e-09
-8.96763e-11
6.55635e-09
-5.51335e-09
7.54629e-09
-2.12261e-09
3.73029e-09
5.77037e-09
-5.34985e-09
-3.87673e-09
7.83425e-10
3.77434e-10
-9.1642e-09
1.05737e-08
-2.68757e-09
1.27792e-09
-9.22939e-09
3.82089e-09
-3.75585e-09
2.14889e-09
2.56206e-09
5.86261e-09
-2.59223e-10
-1.00196e-08
1.04933e-09
1.46045e-08
-6.68786e-10
-1.34315e-08
-5.04304e-10
-3.83801e-09
8.06312e-09
1.03792e-08
9.82666e-09
1.22839e-09
-1.37427e-08
-1.18654e-08
-1.47313e-09
6.08886e-09
7.24959e-09
8.35846e-10
-8.89026e-09
-3.81104e-09
1.21698e-08
-1.07905e-09
-1.17596e-08
6.85848e-09
-7.85758e-09
3.03906e-09
6.96733e-09
-4.87498e-09
8.38258e-10
4.68463e-09
1.3205e-08
-8.67271e-09
3.77517e-09
1.09863e-08
-6.19043e-09
-1.64648e-09
-5.40721e-10
-9.42862e-09
4.28878e-11
-5.17721e-09
8.05607e-10
6.44103e-09
-6.68835e-09
7.61977e-09
-5.33393e-09
2.37412e-09
-8.45601e-09
1.14158e-08
-7.83335e-09
-2.64386e-09
5.14335e-09
3.841e-09
-2.7311e-09
-3.75291e-09
2.64293e-09
-5.05253e-09
1.12676e-08
-3.69196e-09
-5.9862e-09
4.62553e-09
-5.5728e-09
-8.50293e-10
7.69105e-09
-1.51994e-08
-3.24965e-10
-8.45499e-09
7.69001e-09
7.45182e-09
2.62245e-09
-2.82276e-09
-7.25158e-09
-7.98416e-10
2.264e-09
-1.14855e-08
2.23238e-09
2.49479e-09
-4.83043e-09
-9.1499e-09
2.72206e-09
-8.16309e-09
2.79721e-09
-3.31933e-09
2.28851e-09
-9.21108e-10
-2.02924e-09
-4.53942e-09
-8.16517e-09
5.29053e-10
-8.18226e-09
-2.65313e-09
-1.58734e-09
4.13079e-09
-8.1412e-09
-6.68544e-09
1.0893e-08
1.44683e-09
6.12379e-09
-1.84635e-08
8.48876e-09
9.32821e-09
-6.92407e-09
1.51704e-08
6.85721e-09
-2.0581e-08
1.10499e-08
9.03533e-09
-4.91482e-09
1.41589e-08
6.58633e-09
-1.46217e-08
-3.30909e-09
1.55851e-08
-3.7874e-09
1.89396e-08
-8.08978e-09
-1.03373e-08
-1.005e-08
4.98076e-09
1.54063e-08
-1.74241e-08
-1.2304e-08
1.93908e-08
1.72859e-08
3.09218e-09
1.45089e-08
3.3325e-09
-1.09842e-08
1.66464e-08
6.89782e-09
-7.50519e-09
1.37573e-08
-1.7802e-08
1.79823e-09
2.2465e-09
2.373e-08
-4.06081e-09
-5.91191e-09
-8.1073e-10
9.70027e-09
-1.5332e-09
3.77719e-10
7.36613e-09
7.40816e-09
-8.7772e-09
3.76407e-09
1.23791e-08
-1.16557e-08
2.01643e-08
1.57723e-08
3.15175e-09
-2.22108e-09
-1.67029e-08
1.90091e-08
3.86529e-09
-7.10197e-09
-1.2116e-10
-1.49688e-09
1.11014e-08
-9.48349e-09
-2.44139e-09
1.70383e-08
-1.47182e-08
9.85322e-09
-8.19831e-09
1.93134e-08
9.54883e-09
1.41825e-08
6.87973e-10
-1.70915e-08
2.17849e-08
-3.73694e-09
-1.71195e-08
-8.97777e-09
4.57653e-09
2.1521e-08
-1.73968e-08
-2.67566e-09
1.90182e-08
-2.07716e-08
-2.94209e-09
1.40615e-08
5.91869e-09
6.53826e-09
1.62098e-09
-1.86699e-08
-2.82447e-09
1.25169e-08
-1.70486e-08
1.20153e-08
-6.2948e-10
-1.50686e-09
1.80986e-08
-1.7137e-08
-7.08644e-09
7.26083e-09
1.69627e-08
9.48492e-09
-7.30852e-09
1.18741e-08
-1.38573e-08
1.96112e-08
2.16589e-09
9.8665e-09
-2.62427e-08
9.85054e-09
6.52535e-09
2.17384e-08
3.10043e-09
-1.49725e-08
-1.73792e-08
-1.63225e-09
-7.23113e-09
-6.711e-09
-1.44724e-08
8.89667e-09
1.22863e-08
1.07231e-08
-2.59709e-08
8.53657e-09
-1.49815e-08
1.75475e-08
8.15697e-09
-1.81638e-08
-1.3688e-08
1.84195e-08
-1.84295e-08
1.74073e-08
-1.7397e-08
-1.13918e-08
4.7902e-09
2.50208e-08
-5.39114e-09
-2.79766e-09
1.4457e-08
-1.22419e-09
-1.95656e-08
-1.18739e-08
5.46854e-09
-1.2529e-08
-6.16146e-09
5.26496e-10
-1.02801e-09
4.44513e-09
1.39901e-08
-1.60923e-08
-9.63464e-09
-6.86348e-09
1.98666e-08
-1.58007e-08
-2.41798e-08
-2.05997e-08
4.59e-09
-1.26071e-08
-1.38344e-08
5.05917e-09
3.60397e-09
-1.28581e-08
-1.60313e-08
1.2831e-08
-8.34882e-09
-8.26975e-09
5.99735e-09
1.18927e-08
2.17029e-09
-2.33773e-08
-2.29003e-08
-6.24459e-09
2.02334e-08
-4.59587e-09
1.5578e-08
-4.24529e-09
-1.08205e-09
9.913e-09
-4.58608e-09
9.23911e-09
-3.84973e-09
-9.63489e-09
4.26603e-09
2.07082e-10
9.21606e-09
-1.36898e-08
9.39827e-09
-6.2145e-09
8.37614e-09
-5.13844e-10
1.37643e-09
-3.71844e-09
4.07939e-09
8.01489e-09
7.44018e-09
-1.10831e-08
1.60537e-09
4.58906e-09
-1.623e-09
5.42492e-09
-5.59635e-09
1.7939e-09
8.37203e-09
-8.74058e-09
-1.25478e-09
1.02253e-09
1.27742e-08
5.40722e-09
1.17672e-08
-6.66557e-09
8.13942e-10
-3.38764e-10
7.85294e-10
7.46854e-09
3.53381e-09
-6.25875e-09
1.23856e-08
-9.66065e-09
1.74459e-08
-6.21516e-09
-7.69681e-09
1.26072e-08
1.31418e-08
-8.30311e-09
-1.31795e-08
1.55259e-08
1.02606e-08
1.04195e-09
6.23674e-09
-1.35375e-08
5.879e-09
-1.10064e-08
6.16924e-09
-1.92367e-11
-7.74655e-10
1.04311e-08
-1.07673e-08
5.00627e-09
-6.02208e-09
-5.53649e-09
6.55207e-09
-2.65762e-09
-8.40272e-09
1.60665e-08
-1.22524e-08
2.51207e-08
-4.01947e-09
4.90888e-09
1.49547e-09
-8.52655e-09
1.00892e-09
-1.01935e-08
3.28611e-09
-3.95156e-09
-8.9019e-09
2.65991e-09
-6.79727e-09
4.45381e-09
-1.60816e-09
7.49957e-09
-8.06012e-09
-1.42152e-09
-1.90798e-09
-9.53838e-10
-8.14459e-09
-3.4021e-09
-1.20434e-08
-1.08628e-08
1.3067e-09
-3.80529e-09
-2.67503e-10
-3.01027e-09
2.57858e-09
-6.46346e-10
1.30406e-08
-8.57651e-09
-5.74832e-09
1.28442e-09
1.14374e-08
-1.03092e-08
1.06322e-09
1.2595e-09
-1.21153e-08
6.80742e-10
-2.05034e-09
-9.00301e-09
-1.1367e-08
1.10142e-08
-1.30424e-08
-6.54823e-09
-3.19132e-10
1.02406e-09
-1.1564e-08
2.24174e-09
5.83036e-09
-1.21449e-08
5.66299e-10
-1.27983e-08
6.51348e-09
-2.03593e-09
-8.77044e-09
-1.33849e-09
-1.04253e-08
1.17397e-08
-3.35024e-09
-1.41213e-09
1.18006e-08
-2.39161e-09
-7.99686e-09
-1.87487e-09
-9.96271e-09
-1.3015e-08
1.66365e-08
-9.59171e-09
5.97011e-09
1.60138e-08
-2.02326e-08
-8.79634e-09
-1.31729e-08
1.84423e-08
2.42933e-10
2.5979e-09
-1.90749e-09
8.48917e-10
-1.00122e-08
-3.90966e-09
1.33538e-08
-1.18359e-08
1.06967e-08
-1.64813e-08
1.06052e-08
-2.01411e-08
-8.94041e-10
2.03265e-09
4.73876e-09
-7.94767e-10
8.71155e-10
-4.81536e-09
-1.29626e-10
4.48064e-09
3.87657e-10
-9.88144e-09
2.32798e-10
8.8538e-09
5.41821e-09
8.13174e-10
-5.36028e-09
4.88202e-09
4.0646e-10
-3.10209e-09
2.0343e-09
6.06592e-09
-4.99825e-09
-1.19649e-09
6.1342e-09
-8.0398e-09
-6.74773e-10
-5.72508e-09
7.21324e-09
4.53755e-09
6.07022e-09
-1.18043e-08
8.62602e-09
-7.18755e-09
-2.11301e-09
1.0543e-08
2.62072e-09
-1.0009e-09
1.16256e-08
-8.18514e-11
-1.01183e-10
8.54704e-09
-5.82526e-09
7.3488e-09
-5.41576e-09
-1.31756e-08
-3.8215e-09
1.4085e-08
2.91216e-09
-7.94526e-09
6.33282e-09
-1.15632e-08
-6.19351e-09
8.3938e-09
-9.10504e-09
6.90478e-09
1.55465e-08
-2.21975e-08
4.57346e-10
1.93026e-09
1.36457e-08
-2.71344e-09
-1.28625e-08
-7.97941e-09
1.07255e-08
-8.15794e-10
-1.31672e-08
1.36627e-09
-1.53294e-08
-5.78312e-09
7.59358e-09
1.78789e-10
-1.43953e-09
8.77824e-09
1.29003e-08
-1.03254e-08
-7.18589e-10
-1.09725e-08
1.61935e-08
-7.77735e-09
-1.14885e-09
1.08906e-08
-8.05831e-09
-1.06097e-08
2.04269e-09
-1.33497e-08
8.78585e-09
8.71913e-10
3.98792e-09
9.86005e-09
9.65127e-09
1.79197e-08
-2.42773e-08
-8.98868e-11
1.63088e-08
4.148e-09
-1.42485e-08
4.5514e-09
9.03127e-09
-2.62776e-09
8.93566e-09
4.4495e-10
2.83085e-09
5.88347e-10
5.51638e-09
4.27566e-09
7.58646e-09
3.99971e-09
5.53999e-09
9.5067e-09
2.61413e-09
3.1731e-10
2.95171e-09
1.08306e-08
4.58277e-09
7.781e-09
8.015e-09
4.57203e-09
-3.13388e-09
1.41005e-08
9.55305e-09
2.68854e-10
6.74406e-09
-3.71589e-09
-5.93663e-09
-4.72052e-09
6.40897e-09
-6.6643e-09
-4.71455e-10
1.19912e-09
7.74654e-09
-3.74741e-09
-1.97385e-09
6.51736e-09
2.20054e-09
5.86814e-09
2.83205e-10
-7.10896e-09
3.73515e-11
2.35104e-09
-6.02676e-09
6.28802e-10
6.05171e-09
2.02992e-09
-1.93916e-08
1.34415e-08
3.084e-10
5.64169e-09
1.10123e-08
-2.11848e-08
-9.21909e-09
-3.12968e-09
1.25379e-08
-2.99785e-09
-6.41045e-09
1.43108e-08
-5.97621e-09
-1.18061e-08
6.82802e-09
1.84195e-08
-3.84585e-11
-7.5545e-10
-8.03585e-09
6.16263e-09
2.18157e-09
-3.79274e-09
1.00677e-08
3.39919e-09
5.3459e-09
-6.36988e-09
1.89286e-10
1.27306e-08
-6.5501e-09
-3.17799e-09
-7.57562e-09
4.38372e-09
1.31799e-08
-4.93457e-09
8.92954e-09
-6.99279e-09
7.17381e-09
-6.15068e-10
-8.35811e-09
4.68181e-10
4.71191e-09
-8.36984e-09
7.55843e-10
-2.27273e-09
1.07673e-09
-1.70131e-09
-1.36307e-08
2.44272e-09
2.71863e-09
8.46934e-09
1.02585e-08
-1.62441e-08
-7.64514e-09
-1.03911e-08
4.7732e-09
8.06058e-09
-5.43002e-10
4.10415e-10
1.11466e-08
-9.72946e-09
-1.94096e-10
5.03683e-09
1.0883e-08
-1.99211e-08
1.49191e-08
-1.63105e-09
1.29659e-08
1.9061e-09
-8.94335e-09
-9.20688e-09
-1.10508e-08
7.78368e-10
1.25498e-08
-1.97737e-08
-8.56733e-09
-1.17186e-09
-6.19929e-09
2.20354e-09
9.11979e-09
-8.01077e-09
3.76193e-09
6.96756e-09
-3.68985e-09
-2.41478e-09
-4.45852e-09
6.5895e-09
-1.48389e-08
-5.15522e-09
-9.28174e-09
1.33192e-08
-1.03467e-08
8.09172e-09
7.84874e-09
-1.04683e-08
-6.66202e-09
-2.94953e-09
5.92213e-09
1.20929e-09
3.65328e-09
6.66487e-09
-1.60358e-08
5.71714e-09
5.74627e-09
7.72713e-09
-9.82029e-09
5.43999e-09
-9.91007e-09
9.29424e-09
-4.82425e-09
8.68537e-09
1.76393e-10
-3.42197e-09
-2.34034e-09
-4.41801e-09
1.25044e-08
1.15944e-08
-7.27005e-09
-3.27124e-09
-7.90648e-09
-4.85827e-09
-4.97817e-09
-1.98079e-10
-4.73398e-09
7.72204e-10
-1.01871e-08
4.43658e-09
7.57809e-09
-3.89632e-09
5.61232e-09
1.18454e-08
-6.53632e-09
-1.30481e-08
1.6313e-08
-9.26575e-09
1.50023e-08
-5.93488e-09
-1.50299e-08
6.75229e-09
4.35347e-09
-4.13975e-09
2.52073e-10
6.34688e-09
-2.45939e-09
-1.01037e-09
6.13982e-09
-9.26937e-09
5.03841e-09
-1.11197e-08
5.07088e-09
-2.13375e-09
7.42409e-09
6.64146e-09
5.1971e-09
-5.69887e-09
-1.64991e-09
6.24555e-09
1.75095e-09
4.7698e-09
2.21568e-10
7.93115e-09
3.15011e-10
-2.00078e-09
3.95241e-11
-2.53102e-09
1.04224e-08
1.46832e-08
-4.41942e-09
-1.02246e-08
-1.16727e-09
-3.48009e-09
9.8443e-09
4.40855e-09
-2.16989e-09
6.02394e-10
7.6122e-09
-8.2954e-09
8.0799e-11
6.22809e-09
-6.08113e-09
4.55422e-10
-1.26087e-09
-1.65309e-09
-3.60987e-09
-9.47964e-09
6.03497e-09
2.16559e-09
1.27912e-09
6.38894e-09
-9.17076e-09
-6.69773e-09
1.12999e-08
-1.08656e-09
-8.55646e-09
-1.65697e-09
1.2506e-08
-4.81591e-09
-8.31979e-09
-1.06218e-09
-6.29357e-09
6.87613e-09
-2.14358e-10
3.09757e-10
6.44361e-09
-5.84484e-10
3.12698e-10
-6.17179e-09
1.48125e-10
-8.36262e-10
-8.91898e-09
-1.08819e-08
-1.66013e-08
1.89267e-08
-5.7525e-10
-7.43182e-09
-3.34262e-09
1.06086e-08
-8.13124e-10
-1.06316e-08
1.00814e-08
2.69274e-09
8.26748e-09
-1.52864e-09
-1.22702e-08
7.71142e-09
1.44e-08
2.75946e-09
-2.48709e-08
1.55517e-08
9.50478e-09
-1.73451e-08
8.40504e-09
5.56907e-09
1.57761e-09
3.88941e-09
1.07667e-08
-2.56135e-10
9.54017e-09
2.75428e-09
5.33348e-09
-1.37351e-08
1.534e-08
-6.93848e-09
1.62605e-08
-1.60287e-10
1.01118e-08
-2.10874e-08
1.43369e-08
-1.54136e-09
-3.29083e-09
7.34653e-09
-8.35582e-10
8.82909e-09
4.30788e-09
1.92991e-08
-1.02144e-08
-2.13479e-09
1.66571e-08
-2.74121e-09
2.06701e-09
-1.11023e-08
9.92267e-09
-1.5615e-09
8.80369e-09
1.42276e-08
-5.6572e-09
-5.94443e-09
1.37323e-08
7.44752e-09
-6.71617e-09
-5.89886e-09
3.1536e-10
1.22995e-08
-1.15871e-08
1.13119e-08
3.26902e-09
2.84964e-09
1.37683e-09
-7.49545e-09
-8.09225e-09
7.5223e-10
4.60106e-09
-4.63741e-09
5.24324e-09
-1.67547e-09
3.39947e-09
1.75202e-09
-1.43455e-09
-1.59028e-09
-3.08721e-09
6.11223e-09
-1.93818e-09
-3.40594e-09
-8.9841e-10
-7.31728e-09
5.55604e-09
2.65982e-09
-1.93556e-09
-4.14368e-09
4.48896e-09
-4.14334e-09
2.69625e-10
-5.94315e-09
1.95761e-09
4.56231e-09
-4.40644e-09
-7.47319e-09
6.29802e-10
4.31277e-09
-3.80263e-10
-3.10128e-09
-4.12337e-10
-8.28602e-10
-6.95569e-09
6.99751e-09
7.86755e-10
-3.87479e-09
-5.50778e-11
-1.01773e-09
-1.96979e-09
1.04611e-08
-7.47332e-09
8.35925e-09
-2.12067e-09
-7.25636e-09
2.69012e-09
-6.92735e-10
-5.87232e-09
-6.23532e-09
-5.72954e-09
8.58342e-09
-1.49772e-09
3.91391e-09
3.23373e-09
-7.21985e-09
1.06973e-08
-1.91705e-08
-1.18996e-08
2.03728e-08
-1.10253e-08
4.78746e-09
1.69352e-08
1.16002e-09
-1.04652e-08
1.04221e-08
-1.11741e-09
1.92331e-09
-9.69441e-09
9.39757e-09
-1.62691e-09
-1.01149e-08
1.31977e-08
1.73611e-08
8.16595e-09
-6.00638e-09
-1.9521e-08
6.13511e-09
2.01003e-10
-4.03342e-09
-6.97123e-09
-1.10074e-08
-2.7018e-09
3.24359e-09
-1.3963e-08
-9.65948e-09
1.35072e-08
1.02348e-08
1.7811e-09
-1.80226e-08
-7.38734e-09
-7.65377e-09
-2.77269e-09
1.20106e-08
-3.10305e-09
1.53536e-08
-7.89169e-09
-2.04959e-09
4.36558e-09
-1.92737e-08
3.26098e-09
-1.40452e-08
1.68346e-09
1.19712e-08
-1.75778e-08
-1.20475e-09
-2.71552e-09
-3.27894e-09
-5.66607e-09
-4.71272e-09
4.39782e-09
5.9809e-09
-5.05025e-09
-7.00262e-10
8.43784e-11
5.92013e-09
-5.44281e-09
-5.52748e-09
1.69668e-10
1.03791e-09
-2.32611e-09
-4.46988e-09