/*--------------------------------*- C++ -*----------------------------------*\
| =========                 |                                                 |
| \\      /  F ield         | OpenFOAM: The Open Source CFD Toolbox           |
|  \\    /   O peration     | Version:  v1612+                                |
|   \\  /    A nd           | Web:      www.OpenFOAM.com                      |
|    \\/     M anipulation  |                                                 |
\*---------------------------------------------------------------------------*/
FoamFile
{
    version     2.0;
    format      ascii;
    class       volVectorField;
    location    "100";
    object      U;
}
// * * * * * * * * * * * * * * * * * * * * * * * * * * * * * * * * * * * * * //

dimensions      [0 1 -1 0 0 0 0];

internalField   nonuniform List<vector> 
18899
(
(0.139848 0.666959 0.343543)
(0.194403 0.8049 0.3613)
(-0.205134 0.763937 0.546115)
(-0.200996 0.762248 0.532909)
(-0.171338 0.804318 0.525855)
(-0.182711 0.81029 0.536707)
(-0.159727 0.795654 0.526976)
(-0.226263 0.785633 0.527625)
(-0.217788 0.792815 0.542402)
(-0.18285 0.771068 0.522438)
(-0.218801 0.820561 0.549486)
(-0.213833 0.768484 0.533241)
(-0.181427 0.767199 0.518243)
(-0.203195 0.817332 0.52564)
(-0.164212 0.761462 0.507177)
(-0.223846 0.788102 0.5408)
(-0.220459 0.80863 0.516931)
(0.0112461 0.583138 0.455214)
(0.0205105 0.563977 0.448434)
(0.00243693 0.594651 0.468787)
(0.00265487 0.568224 0.463354)
(0.0130547 0.548619 0.443904)
(0.00899704 0.628273 0.476344)
(0.0323745 0.585605 0.455238)
(0.0392479 0.553135 0.434741)
(-0.0377651 0.676365 0.499647)
(-0.0164429 0.605578 0.504373)
(-0.0104905 0.670086 0.492012)
(0.0103477 0.643364 0.492491)
(0.0215469 0.587295 0.474968)
(-0.0336631 0.668517 0.527285)
(-0.0124776 0.679949 0.519076)
(-0.0149395 0.634586 0.520329)
(-0.00451751 0.591475 0.487078)
(-0.0404659 0.691276 0.526631)
(-0.13172 0.854792 0.574529)
(-0.143462 0.851348 0.586725)
(-0.166384 0.843017 0.57788)
(-0.146769 0.854866 0.524527)
(-0.153117 0.84543 0.584136)
(-0.159103 0.858131 0.583989)
(-0.146828 0.836868 0.582524)
(-0.147345 0.845529 0.557287)
(-0.132047 0.850436 0.591395)
(-0.135364 0.874277 0.576127)
(-0.125485 0.862153 0.580293)
(-0.135758 0.868578 0.597517)
(-0.161292 0.870615 0.555084)
(-0.146372 0.851282 0.580673)
(-0.142605 0.832958 0.595224)
(-0.122742 0.860921 0.595534)
(-0.156327 0.881944 0.571557)
(-0.155617 0.877871 0.589724)
(0.225145 0.870851 0.644151)
(0.245221 0.849448 0.603551)
(0.299033 0.816364 0.567254)
(0.238073 0.846522 0.590622)
(0.245004 0.853607 0.604361)
(0.310931 0.784975 0.529598)
(0.297379 0.815863 0.557137)
(0.311474 0.781283 0.511838)
(0.326948 0.736936 0.496396)
(0.312457 0.826456 0.599513)
(0.319888 0.784995 0.565882)
(0.299047 0.83989 0.610608)
(0.247057 0.858802 0.620699)
(0.319287 0.776932 0.539773)
(0.0582281 0.261367 0.25331)
(0.0586456 0.238257 0.236819)
(0.055252 0.245248 0.237726)
(0.0507315 0.219187 0.215198)
(0.0407735 0.311671 0.261997)
(0.0496811 0.277637 0.244923)
(0.0483703 0.306179 0.270673)
(0.0484777 0.217023 0.208113)
(0.0456705 0.310925 0.263253)
(0.0376743 0.325736 0.257186)
(0.0499106 0.241593 0.220962)
(0.0515672 0.257867 0.239374)
(0.0421624 0.272432 0.223644)
(0.0359159 0.331951 0.267079)
(0.0403983 0.321181 0.265315)
(0.0414765 0.278366 0.231888)
(0.0423684 0.217932 0.205406)
(0.037927 0.302126 0.241952)
(0.0415341 0.255914 0.22056)
(-0.107616 0.649715 0.413619)
(-0.0902217 0.617692 0.396455)
(-0.205503 0.741073 0.552241)
(-0.207765 0.728405 0.564403)
(-0.176694 0.708589 0.519196)
(-0.182232 0.731782 0.54292)
(-0.105903 0.647938 0.417975)
(-0.128734 0.666607 0.452224)
(-0.218719 0.71944 0.561942)
(-0.194732 0.704134 0.54031)
(-0.195007 0.730251 0.527905)
(-0.213228 0.742045 0.53279)
(-0.13346 0.71048 0.470758)
(-0.121513 0.675369 0.437724)
(-0.121522 0.63613 0.432446)
(-0.098812 0.614203 0.388519)
(-0.14665 0.650489 0.450657)
(-0.139584 0.653779 0.456389)
(-0.0899989 0.6486 0.405436)
(-0.0699863 0.604387 0.366133)
(-0.144109 0.644789 0.434895)
(-0.109184 0.632749 0.41369)
(-0.106685 0.587642 0.405629)
(-0.118352 0.600457 0.41834)
(-0.130369 0.605753 0.440519)
(-0.0869995 0.545334 0.341971)
(-0.102461 0.529618 0.343361)
(-0.0868643 0.509691 0.312718)
(-0.0700426 0.502449 0.30567)
(-0.0649903 0.447722 0.294794)
(-0.0535363 0.422187 0.270796)
(-0.047395 0.407083 0.236633)
(-0.091528 0.488158 0.311601)
(-0.072591 0.469251 0.286376)
(-0.0466389 0.432967 0.242661)
(-0.0813868 0.482414 0.310261)
(-0.139099 0.71798 0.590966)
(-0.149272 0.717673 0.59365)
(-0.134682 0.783804 0.612891)
(-0.140149 0.773555 0.596767)
(-0.107307 0.701061 0.547637)
(-0.101538 0.693381 0.542621)
(-0.0795936 0.617145 0.49686)
(-0.0783259 0.596936 0.473795)
(-0.11399 0.644426 0.517985)
(-0.132707 0.665944 0.539268)
(-0.147792 0.711584 0.581806)
(-0.143248 0.735665 0.60991)
(-0.156417 0.775635 0.622369)
(-0.152503 0.773019 0.608628)
(-0.154108 0.790128 0.614101)
(-0.137623 0.742797 0.578272)
(-0.0955241 0.638384 0.510743)
(-0.0925415 0.657968 0.51887)
(-0.0896102 0.614421 0.490117)
(-0.123912 0.676863 0.544302)
(-0.138428 0.72083 0.592482)
(0.0939676 0.70825 0.368696)
(0.126605 0.618522 0.313389)
(0.110746 0.69733 0.367977)
(0.12222 0.654892 0.365705)
(-0.0267296 0.780807 0.477619)
(-0.0138778 0.771869 0.484635)
(0.0537542 0.765871 0.422755)
(0.0808018 0.702284 0.358584)
(-0.0227132 0.782992 0.474938)
(0.00168071 0.785973 0.484086)
(0.0598058 0.732839 0.445329)
(0.0619151 0.740768 0.442499)
(-0.0195156 0.771303 0.480041)
(0.0322853 0.723615 0.452143)
(-0.0119191 0.785086 0.484261)
(0.0427949 0.720842 0.401424)
(0.0971281 0.646847 0.348947)
(0.104321 0.639213 0.36754)
(0.120741 0.631756 0.356222)
(0.129597 0.60878 0.321329)
(0.0268776 0.740555 0.467491)
(-0.110355 0.726571 0.600276)
(-0.103591 0.740375 0.5841)
(-0.106226 0.752079 0.52766)
(-0.121594 0.727458 0.590006)
(-0.102383 0.759232 0.542074)
(-0.109721 0.781229 0.499529)
(-0.111906 0.758298 0.547616)
(-0.114785 0.756676 0.580074)
(-0.115575 0.740098 0.604983)
(-0.145907 0.806438 0.429079)
(-0.15311 0.788464 0.441577)
(-0.124223 0.767612 0.553011)
(-0.127144 0.742853 0.59342)
(-0.16654 0.752891 0.546645)
(-0.160356 0.771214 0.517942)
(-0.131985 0.734186 0.595306)
(-0.152097 0.803667 0.430796)
(-0.137428 0.800289 0.45202)
(-0.154611 0.739878 0.583054)
(0.0773463 0.921983 0.690469)
(0.0872038 0.903415 0.666651)
(0.0406965 0.946917 0.675015)
(0.0476422 0.93062 0.669691)
(0.0796785 0.888213 0.678715)
(0.0592268 0.92805 0.707243)
(0.0409535 0.943483 0.691316)
(0.0419042 0.930058 0.67641)
(0.0343392 0.940603 0.674925)
(0.0196146 0.920757 0.690236)
(0.0467485 0.915491 0.69365)
(0.0311475 0.934711 0.702345)
(0.00290144 0.940403 0.698881)
(-0.00385277 0.926005 0.694361)
(-0.00696354 0.939494 0.68233)
(0.00949096 0.93186 0.698844)
(-0.150256 0.842661 0.572561)
(-0.167015 0.831843 0.578038)
(-0.147728 0.794458 0.575115)
(-0.139514 0.802757 0.432926)
(-0.149478 0.800448 0.506206)
(-0.146899 0.813782 0.582106)
(-0.154475 0.816199 0.567716)
(-0.165354 0.838608 0.589726)
(-0.143567 0.801712 0.482085)
(-0.149367 0.80869 0.565165)
(-0.18491 0.830263 0.483659)
(-0.183723 0.842165 0.49452)
(-0.14304 0.837324 0.5098)
(-0.151016 0.828449 0.451332)
(-0.165023 0.842869 0.537818)
(-0.154284 0.81961 0.410236)
(-0.146635 0.836491 0.39886)
(-0.147029 0.829427 0.419117)
(-0.159605 0.829632 0.463427)
(0.116803 0.684372 0.405786)
(0.147205 0.688175 0.436051)
(0.163489 0.775981 0.452301)
(0.145209 0.69472 0.417285)
(0.140168 0.77022 0.477993)
(0.143793 0.735144 0.441173)
(0.175975 0.684759 0.440962)
(0.0405117 0.591558 0.425315)
(0.0800087 0.578707 0.433568)
(0.0201391 0.628042 0.418243)
(0.0461203 0.652294 0.43255)
(0.0233472 0.61656 0.412864)
(0.0641111 0.635369 0.422576)
(0.106624 0.625589 0.448869)
(0.144008 0.712649 0.442625)
(0.0662885 0.605365 0.428618)
(0.131285 0.647571 0.443223)
(0.116568 0.666459 0.422241)
(0.000570089 0.741163 0.488877)
(0.0217972 0.695464 0.479657)
(-0.0607219 0.768612 0.531462)
(-0.0730716 0.809053 0.56161)
(-0.0584112 0.825049 0.550355)
(0.0470074 0.674641 0.455151)
(0.0555532 0.727026 0.465035)
(0.0849371 0.699205 0.444907)
(-0.0435056 0.754496 0.526285)
(-0.082819 0.848991 0.571139)
(0.0188368 0.764347 0.471012)
(0.0244421 0.699669 0.467207)
(-0.0867134 0.81834 0.548093)
(-0.0503566 0.805565 0.517912)
(-0.052069 0.810343 0.51621)
(-0.145169 0.802317 0.453657)
(-0.144554 0.787258 0.511468)
(-0.152577 0.805825 0.407714)
(-0.132718 0.82178 0.370847)
(-0.155334 0.805614 0.434265)
(-0.129106 0.788291 0.464899)
(-0.186931 0.769318 0.55546)
(-0.200432 0.761453 0.572529)
(-0.147772 0.766493 0.533288)
(-0.134624 0.757468 0.53938)
(-0.16343 0.801372 0.443442)
(-0.16328 0.79619 0.499415)
(-0.135809 0.791676 0.431457)
(-0.154583 0.812294 0.407486)
(-0.168495 0.755134 0.528841)
(-0.209295 0.762761 0.547874)
(-0.189676 0.775736 0.542981)
(-0.165195 0.775065 0.513207)
(-0.108387 0.63743 0.50454)
(-0.116347 0.660382 0.525306)
(-0.0814815 0.562794 0.420825)
(-0.102999 0.573467 0.428261)
(-0.146982 0.709108 0.577847)
(-0.0990578 0.569616 0.435848)
(-0.119745 0.611925 0.455139)
(-0.121397 0.612872 0.452645)
(-0.163527 0.698963 0.561921)
(-0.176356 0.726209 0.603877)
(-0.171024 0.69921 0.574083)
(-0.125553 0.621498 0.495039)
(-0.161986 0.774759 0.556231)
(-0.141259 0.751971 0.544425)
(-0.135709 0.74354 0.539315)
(-0.0891091 0.653822 0.414516)
(-0.131274 0.754082 0.528389)
(-0.102997 0.715683 0.468702)
(-0.091937 0.676147 0.433572)
(-0.0781569 0.652964 0.407708)
(-0.0745571 0.694672 0.432922)
(-0.068382 0.63625 0.376625)
(-0.0665336 0.678225 0.403387)
(-0.130507 0.745251 0.525495)
(-0.116538 0.754754 0.516108)
(-0.0742031 0.699317 0.434925)
(-0.0550002 0.661989 0.390103)
(-0.0480295 0.618953 0.357191)
(-0.0495689 0.631528 0.365914)
(0.0482331 0.854108 0.51713)
(0.037991 0.887387 0.523337)
(0.14612 0.809493 0.478879)
(0.119393 0.798138 0.476197)
(0.060746 0.815651 0.50879)
(0.0544707 0.806086 0.512081)
(0.127295 0.845174 0.459129)
(0.165056 0.843928 0.436465)
(0.146204 0.802991 0.482779)
(0.0844106 0.860526 0.504979)
(0.205407 0.783732 0.421302)
(0.141711 0.891289 0.443136)
(-0.209815 0.774086 0.509825)
(-0.230755 0.791541 0.552038)
(-0.180723 0.793912 0.420203)
(-0.198305 0.797602 0.487012)
(-0.22817 0.772712 0.511214)
(-0.197872 0.820662 0.521184)
(-0.192701 0.834898 0.491491)
(-0.208981 0.838693 0.500985)
(-0.236812 0.806767 0.500955)
(-0.176637 0.829057 0.450379)
(-0.174038 0.816083 0.462574)
(-0.181744 0.791547 0.407387)
(-0.17634 0.805782 0.389635)
(-0.22536 0.798375 0.45131)
(0.0812902 0.345796 0.370877)
(0.105589 0.344199 0.375748)
(0.0540381 0.409438 0.371126)
(0.0444901 0.401667 0.356945)
(0.0578416 0.420143 0.382409)
(0.0423136 0.418494 0.363328)
(0.0473032 0.409718 0.358998)
(0.0691788 0.408904 0.383507)
(0.0759198 0.326751 0.330701)
(0.0727845 0.307648 0.317892)
(0.0536171 0.34195 0.328856)
(0.0526106 0.338972 0.323182)
(0.0481669 0.372205 0.334802)
(0.0875895 0.34964 0.364778)
(0.0825748 0.315575 0.335923)
(-0.155389 0.825816 0.539854)
(-0.146741 0.850623 0.497061)
(-0.156714 0.826548 0.56861)
(-0.132313 0.816715 0.570585)
(-0.149253 0.814754 0.532192)
(-0.151115 0.820824 0.473556)
(-0.142913 0.820708 0.463856)
(-0.153557 0.845249 0.500013)
(-0.149295 0.836621 0.506454)
(-0.146354 0.812927 0.566002)
(-0.148951 0.817991 0.452973)
(-0.13212 0.826877 0.525641)
(0.0281639 0.669132 0.541212)
(0.0373854 0.66091 0.531512)
(0.0462331 0.630421 0.503643)
(0.0540681 0.621389 0.492105)
(0.050685 0.687092 0.534357)
(0.00907153 0.759916 0.568293)
(-0.00331043 0.744393 0.566933)
(0.0773531 0.657042 0.503521)
(0.0797596 0.612924 0.482102)
(0.0666285 0.697872 0.530389)
(0.077377 0.648392 0.499321)
(0.0791377 0.635287 0.488222)
(0.034996 0.685027 0.533651)
(0.0325202 0.745583 0.538506)
(0.0541769 0.661724 0.504612)
(0.0575169 0.645934 0.503986)
(0.0101978 0.73674 0.537148)
(-0.0145862 0.839141 0.532144)
(0.0416 0.801413 0.473011)
(0.0546836 0.802057 0.449437)
(-0.0166924 0.833528 0.521753)
(0.0431875 0.849064 0.466315)
(0.00115652 0.878748 0.524497)
(0.041102 0.812476 0.492262)
(0.0268192 0.842715 0.492311)
(0.0253884 0.84976 0.481933)
(0.0651973 0.805692 0.435571)
(0.0735168 0.808163 0.448904)
(0.0890572 0.780673 0.410636)
(0.0546599 0.981972 0.545382)
(0.0580951 1.01296 0.546585)
(0.0281438 0.946506 0.537038)
(0.0455851 0.97911 0.529935)
(-0.0102585 0.867788 0.550467)
(-0.0161127 0.89017 0.559303)
(0.00387375 0.978352 0.592459)
(-0.0252368 0.861887 0.551327)
(-0.0358161 0.920706 0.595298)
(0.00402078 1.01133 0.610269)
(0.0236926 0.990822 0.561479)
(0.0182862 0.951795 0.550907)
(-0.0201664 0.979939 0.600952)
(-0.0203332 0.978759 0.607239)
(0.0159291 0.994204 0.552568)
(0.110749 0.330945 0.294562)
(0.0903493 0.35532 0.317764)
(0.111934 0.315408 0.284016)
(0.0928513 0.349532 0.31368)
(0.103423 0.335599 0.307091)
(0.11474 0.306989 0.282907)
(0.103907 0.345353 0.317562)
(0.122964 0.333349 0.308526)
(0.135867 0.314746 0.286075)
(0.0837223 0.491008 0.390911)
(0.106776 0.4698 0.371876)
(0.0718986 0.418231 0.358604)
(0.135395 0.367182 0.335493)
(0.13457 0.392044 0.33958)
(0.136712 0.398505 0.337029)
(0.0583158 0.435763 0.36878)
(0.0833448 0.489458 0.394264)
(0.0649637 0.492765 0.398504)
(0.0918478 0.446695 0.371018)
(0.126543 0.359193 0.313726)
(-0.041369 0.740548 0.465331)
(-0.0397499 0.753763 0.478603)
(0.0212935 0.677497 0.37587)
(0.0400959 0.664792 0.343768)
(-0.0502288 0.766335 0.486784)
(0.0330894 0.706974 0.394596)
(0.0463673 0.671725 0.346896)
(-0.00322868 0.73986 0.449822)
(-0.00715896 0.706743 0.412214)
(-0.00193302 0.680025 0.375768)
(0.0129058 0.730701 0.418468)
(-0.0491616 0.72964 0.454617)
(-0.00218271 0.714903 0.436255)
(-0.014512 0.690333 0.394205)
(0.0275791 0.602923 0.383933)
(0.0268896 0.608065 0.384898)
(0.0163123 0.645909 0.41805)
(-0.00161286 0.666644 0.425865)
(0.0587604 0.58827 0.377173)
(0.0695399 0.563393 0.353803)
(-0.0226454 0.674096 0.445694)
(-0.043792 0.734676 0.472669)
(-0.0160304 0.676282 0.451563)
(-0.023333 0.678812 0.456466)
(0.0458538 0.628848 0.381995)
(0.0699893 0.573703 0.33917)
(0.0551769 0.621903 0.3912)
(0.0539779 0.599367 0.384795)
(-0.0135016 0.705172 0.458966)
(0.0456432 0.651428 0.412474)
(0.067445 0.608996 0.370446)
(-0.132924 0.866725 0.588553)
(-0.109276 0.826397 0.564856)
(-0.0958516 0.815459 0.549069)
(-0.137109 0.84027 0.589244)
(-0.061137 0.78464 0.486908)
(-0.0830174 0.779667 0.505039)
(-0.0502304 0.773032 0.495071)
(-0.0227821 0.76215 0.482525)
(-0.0300257 0.760533 0.486162)
(-0.0692477 0.802814 0.507491)
(-0.0547485 0.778572 0.486898)
(-0.13865 0.833896 0.555995)
(-0.121298 0.816956 0.549591)
(-0.0983674 0.805924 0.527212)
(0.182763 0.348504 0.358545)
(0.191633 0.314327 0.337549)
(0.163303 0.332401 0.342371)
(0.133737 0.40323 0.380604)
(0.150541 0.295486 0.321783)
(0.149059 0.286962 0.309205)
(0.128169 0.377911 0.370656)
(0.130182 0.40717 0.389092)
(0.166457 0.29493 0.314857)
(0.178688 0.284532 0.306873)
(0.163412 0.297423 0.308902)
(0.161097 0.269557 0.287815)
(0.146764 0.388093 0.371834)
(0.177731 0.342414 0.347829)
(0.160505 0.400173 0.386254)
(0.174367 0.402587 0.380855)
(0.196165 0.34449 0.352752)
(0.199783 0.327865 0.334197)
(0.179834 0.29904 0.310341)
(-0.104796 0.604791 0.521569)
(-0.112454 0.576656 0.502047)
(-0.0923532 0.56595 0.476405)
(-0.0896901 0.550295 0.454265)
(-0.118036 0.650221 0.580587)
(-0.124684 0.638868 0.569293)
(-0.100579 0.553855 0.467066)
(-0.0906628 0.611657 0.529954)
(-0.100962 0.652189 0.576815)
(-0.0840489 0.582585 0.468475)
(-0.0774244 0.54784 0.436027)
(-0.127406 0.668404 0.591844)
(-0.136078 0.662806 0.582887)
(-0.104138 0.582704 0.481221)
(-0.0967861 0.618449 0.518881)
(-0.118103 0.598338 0.512339)
(0.0191284 0.959839 0.647676)
(-0.00542601 0.963152 0.640677)
(-0.0592299 0.923784 0.679642)
(-0.0306519 0.930177 0.677512)
(-0.0392426 0.933827 0.683241)
(-0.00964921 0.944962 0.640517)
(-0.0198414 0.910961 0.671004)
(-0.0608913 0.912834 0.673437)
(0.018554 0.918727 0.65253)
(0.0278649 0.915369 0.646301)
(0.0171132 0.907862 0.671585)
(0.0415865 0.915991 0.655983)
(-0.046695 0.935117 0.665147)
(-0.0172254 0.919849 0.663367)
(-0.0527359 0.91711 0.681135)
(-0.00604144 0.916515 0.668484)
(-0.2085 0.678058 0.633257)
(-0.161244 0.604455 0.524155)
(-0.153825 0.601923 0.509535)
(-0.12677 0.558327 0.509255)
(-0.109995 0.51679 0.453392)
(-0.163768 0.648558 0.60631)
(-0.178105 0.671891 0.611126)
(-0.131056 0.567801 0.473567)
(-0.121904 0.556853 0.499867)
(-0.129366 0.588325 0.538428)
(-0.129106 0.589163 0.512896)
(-0.149708 0.641684 0.57652)
(-0.140283 0.654339 0.602059)
(-0.152419 0.571309 0.494332)
(-0.131219 0.552883 0.45833)
(-0.129814 0.534525 0.462109)
(-0.000986944 0.529009 0.345937)
(0.00809594 0.510464 0.324488)
(-0.0074161 0.518414 0.342425)
(-0.00354817 0.500881 0.333385)
(-0.0231516 0.548268 0.397174)
(-0.0201448 0.529355 0.379874)
(-0.0167398 0.552754 0.39022)
(0.00524577 0.434662 0.339464)
(0.0232876 0.403905 0.326951)
(-0.00387857 0.486613 0.366157)
(-0.00547816 0.478725 0.363299)
(0.00664041 0.476817 0.319502)
(0.0116834 0.448773 0.308336)
(-0.0207827 0.539315 0.388575)
(0.0169258 0.41656 0.322022)
(0.0174492 0.397473 0.29824)
(-0.000308747 0.446141 0.338765)
(0.0102436 0.429939 0.313056)
(-0.0156106 0.521155 0.355865)
(0.0106643 0.428114 0.30733)
(0.000937175 0.463371 0.332424)
(-0.0686531 0.601809 0.418846)
(-0.0696285 0.617236 0.419785)
(-0.0313431 0.514617 0.305058)
(-0.0441101 0.538541 0.34738)
(-0.0410638 0.499211 0.333392)
(-0.0267189 0.466272 0.281602)
(-0.0872293 0.638455 0.444245)
(-0.0774093 0.586292 0.42447)
(-0.0513183 0.507274 0.337808)
(-0.0577287 0.538255 0.371722)
(-0.076421 0.58871 0.436961)
(-0.0831132 0.591886 0.442962)
(-0.0398865 0.579545 0.358506)
(-0.0387346 0.556638 0.330347)
(-0.0404029 0.503895 0.308591)
(-0.0765555 0.606802 0.426971)
(-0.0622013 0.541773 0.367363)
(-0.0341958 0.515261 0.303189)
(-0.0505608 0.588468 0.372098)
(-0.050518 0.579102 0.3558)
(-0.206219 0.756419 0.366138)
(-0.166779 0.743923 0.372884)
(-0.248608 0.775594 0.406209)
(-0.249066 0.754135 0.428285)
(-0.177529 0.774168 0.314818)
(-0.135771 0.768377 0.398837)
(-0.171415 0.7973 0.359967)
(-0.142467 0.801948 0.363358)
(-0.18992 0.805206 0.361952)
(-0.21638 0.764076 0.393253)
(-0.254728 0.79936 0.446671)
(-0.243657 0.788626 0.444521)
(-0.200111 0.799162 0.372007)
(-0.223856 0.795445 0.44906)
(-0.212317 0.81555 0.440789)
(-0.164189 0.773663 0.358318)
(-0.231004 0.789099 0.44599)
(-0.154243 0.767563 0.366531)
(-0.153109 0.751752 0.377289)
(-0.196161 0.743118 0.409702)
(-0.0954476 0.890298 0.683338)
(-0.0650004 0.835303 0.664132)
(-0.0618731 0.928069 0.685107)
(-0.0568317 0.953087 0.685296)
(-0.0674976 0.924877 0.697242)
(-0.0686261 0.878814 0.672418)
(-0.0990956 0.882402 0.679146)
(-0.0877011 0.867001 0.672688)
(-0.0536956 0.908385 0.642838)
(-0.0683961 0.887978 0.630805)
(-0.0722811 0.943289 0.689935)
(-0.0641546 0.923957 0.671599)
(-0.0496972 0.939927 0.681661)
(-0.0677891 0.913715 0.657749)
(-0.0873201 0.887085 0.629558)
(-0.0361775 0.953489 0.685349)
(-0.0395257 0.936441 0.67119)
(-0.0641889 0.880257 0.673615)
(-0.0593063 0.87473 0.676416)
(-0.0770846 0.860329 0.667469)
(-0.04109 0.914678 0.680199)
(-0.0390316 0.918122 0.677736)
(-0.165976 0.865158 0.547345)
(-0.172008 0.85778 0.515863)
(-0.157733 0.850741 0.529088)
(-0.15454 0.837692 0.514718)
(-0.150384 0.823994 0.474919)
(-0.140137 0.827401 0.422363)
(-0.157924 0.851763 0.51208)
(-0.157916 0.821834 0.450203)
(-0.143374 0.825752 0.423477)
(-0.137909 0.830404 0.370318)
(-0.136814 0.821717 0.409783)
(-0.164946 0.827858 0.454306)
(-0.139102 0.845099 0.448766)
(-0.140168 0.859533 0.437796)
(-0.148826 0.837579 0.41471)
(-0.168841 0.819882 0.49237)
(-0.15386 0.826276 0.402655)
(-0.1521 0.82755 0.377856)
(-0.139462 0.828643 0.389896)
(-0.155341 0.82699 0.391484)
(-0.125099 0.754163 0.510825)
(-0.116405 0.748816 0.508777)
(-0.117515 0.743971 0.440143)
(-0.107486 0.762747 0.486527)
(-0.126323 0.768508 0.515125)
(-0.16021 0.808791 0.415684)
(-0.120061 0.778633 0.447651)
(-0.156585 0.797653 0.393805)
(0.192384 0.618233 0.459282)
(0.183874 0.670168 0.474846)
(0.0757834 0.650287 0.468623)
(0.0951195 0.601065 0.458811)
(0.206704 0.689701 0.467422)
(0.194134 0.665325 0.475918)
(0.100307 0.680642 0.486308)
(0.189073 0.614886 0.472064)
(0.0979443 0.613008 0.46509)
(0.0573634 0.668237 0.471829)
(0.077762 0.640578 0.461969)
(0.11767 0.601067 0.464162)
(0.125586 0.674082 0.468609)
(0.0740881 0.646673 0.468968)
(0.0796985 0.679932 0.481751)
(-0.225998 0.739399 0.544022)
(-0.202501 0.718113 0.53818)
(-0.227539 0.739198 0.592557)
(-0.217433 0.735833 0.552286)
(-0.171447 0.719572 0.503822)
(-0.159047 0.700657 0.502288)
(-0.197508 0.747492 0.517354)
(-0.187836 0.709497 0.534097)
(-0.103258 0.721069 0.480259)
(-0.104966 0.725252 0.468259)
(-0.189807 0.750002 0.565319)
(-0.176255 0.742491 0.568419)
(-0.0750766 0.693983 0.437697)
(-0.0944163 0.723497 0.45344)
(-0.120274 0.712922 0.472176)
(-0.0989317 0.701846 0.447826)
(-0.136747 0.704646 0.473623)
(-0.133414 0.713457 0.475814)
(-0.14767 0.689454 0.488646)
(-0.176616 0.718048 0.508358)
(-0.151941 0.721629 0.505405)
(-0.0988385 0.698683 0.448713)
(-0.1554 0.72279 0.5105)
(-0.113688 0.693991 0.461502)
(0.249931 0.865276 0.616615)
(0.244906 0.893037 0.649192)
(0.223126 0.85801 0.58333)
(0.221873 0.874756 0.620142)
(0.146133 0.836683 0.610595)
(0.112691 0.813635 0.565307)
(0.241929 0.8953 0.657873)
(0.219098 0.886523 0.650269)
(0.107789 0.820169 0.636405)
(0.251625 0.854198 0.598599)
(0.21695 0.841879 0.562335)
(0.231309 0.852705 0.594035)
(0.222307 0.848333 0.558265)
(0.188552 0.861611 0.621119)
(0.1688 0.83639 0.569934)
(0.0764195 0.810432 0.554753)
(0.0407743 0.754213 0.549246)
(0.0679729 0.780164 0.564535)
(0.0518214 0.724852 0.549309)
(0.174887 0.826198 0.527721)
(0.210719 0.864939 0.630432)
(0.0990728 0.818784 0.628303)
(0.0796979 0.783559 0.570246)
(0.0794846 0.795602 0.563183)
(0.0841999 0.779962 0.538644)
(0.0944652 0.816365 0.61153)
(-0.00866495 0.787338 0.407072)
(0.00417107 0.778454 0.402033)
(-0.0208174 0.822378 0.442062)
(-0.023163 0.774412 0.429107)
(0.00310369 0.751499 0.408908)
(0.0157066 0.814731 0.397742)
(-0.00435809 0.866085 0.442037)
(-0.0436306 0.831277 0.497047)
(-0.0341119 0.871746 0.516605)
(-0.0714163 0.878944 0.544581)
(-0.0560399 0.894827 0.54685)
(-0.0502027 0.895143 0.537608)
(-0.0138257 0.844508 0.468696)
(-0.00341155 0.822018 0.439098)
(0.114507 1.00062 0.557884)
(0.0878556 1.01883 0.597828)
(0.0449718 0.829321 0.527646)
(0.0205137 0.790083 0.516886)
(0.117737 0.960845 0.516855)
(0.137767 1.0215 0.558588)
(0.078367 0.949884 0.534103)
(0.0872506 0.978357 0.55492)
(0.0832522 1.01457 0.610394)
(0.0869914 1.00782 0.599005)
(0.0531427 0.840731 0.522284)
(0.0402119 0.828654 0.514731)
(0.0437809 0.878879 0.550412)
(-0.0075574 0.791199 0.520325)
(0.0237993 0.826051 0.519226)
(0.0998614 0.904722 0.5007)
(0.133209 0.978607 0.5232)
(0.114561 1.00485 0.559294)
(0.0400888 0.851138 0.522656)
(0.0600829 0.850324 0.5058)
(-0.0563697 0.57243 0.480874)
(-0.0419106 0.542078 0.451672)
(-0.0424513 0.559866 0.451959)
(-0.0496332 0.575365 0.45929)
(-0.0345679 0.557006 0.434291)
(-0.103053 0.706525 0.537871)
(-0.0608502 0.655475 0.514203)
(-0.0334283 0.545123 0.413028)
(-0.104775 0.690291 0.448138)
(-0.0796327 0.665879 0.47349)
(-0.0872823 0.606008 0.420386)
(-0.110363 0.584926 0.51486)
(-0.114566 0.667635 0.598859)
(-0.122081 0.680222 0.612417)
(-0.122697 0.637825 0.597394)
(-0.109526 0.568963 0.496964)
(-0.106395 0.528954 0.45686)
(-0.112758 0.653187 0.582402)
(-0.123681 0.661582 0.608895)
(-0.145822 0.676234 0.605375)
(-0.118519 0.566499 0.491945)
(-0.0963987 0.581127 0.508285)
(-0.246452 0.7146 0.42046)
(-0.265655 0.71926 0.424369)
(-0.150457 0.627104 0.392649)
(-0.201155 0.687398 0.394965)
(-0.240742 0.717653 0.443631)
(-0.243941 0.705234 0.44823)
(-0.177748 0.674386 0.393653)
(-0.185262 0.663682 0.394245)
(-0.136788 0.6313 0.38917)
(-0.132894 0.65589 0.392664)
(-0.137251 0.652845 0.403717)
(-0.200152 0.690177 0.415569)
(-0.167112 0.617779 0.401307)
(-0.198799 0.633351 0.417058)
(-0.13168 0.623899 0.394291)
(-0.165828 0.659071 0.414513)
(-0.162067 0.644832 0.416874)
(-0.147784 0.632361 0.396243)
(-0.130176 0.657499 0.52665)
(-0.13716 0.656539 0.518286)
(-0.11372 0.646044 0.527436)
(-0.143045 0.666195 0.537741)
(-0.158381 0.730619 0.596032)
(-0.139108 0.705493 0.586357)
(-0.197585 0.754669 0.55991)
(-0.16851 0.737263 0.575452)
(-0.156789 0.708698 0.594793)
(-0.147384 0.683192 0.608719)
(-0.195547 0.746503 0.554437)
(-0.200817 0.747555 0.565138)
(-0.191014 0.74581 0.567689)
(-0.154354 0.698957 0.532752)
(-0.166832 0.690086 0.527364)
(-0.169657 0.733074 0.573069)
(-0.163846 0.698918 0.59995)
(-0.21081 0.72799 0.584194)
(-0.192953 0.742897 0.589443)
(-0.209233 0.702536 0.583923)
(-0.182421 0.722184 0.583192)
(-0.175827 0.709942 0.588462)
(0.0445505 0.757176 0.475118)
(0.0967733 0.779051 0.475695)
(0.111218 0.82306 0.576924)
(0.145467 0.800637 0.499265)
(0.0849327 0.782849 0.516027)
(0.0290313 0.776778 0.528499)
(0.0454702 0.753473 0.480793)
(0.0601508 0.767526 0.540559)
(0.0729067 0.794094 0.516557)
(0.0878566 0.803461 0.577058)
(0.113544 0.810049 0.55585)
(-0.0340657 0.773385 0.546333)
(-0.00566578 0.782386 0.571936)
(-0.0231678 0.758821 0.542865)
(-0.00919731 0.771107 0.58621)
(0.0259341 0.769529 0.415225)
(0.0197146 0.776797 0.415621)
(-0.0219477 0.804885 0.464678)
(-0.0147358 0.804584 0.477217)
(0.0447977 0.747909 0.378793)
(0.0550414 0.752428 0.375928)
(0.0700434 0.726001 0.338893)
(0.050785 0.772596 0.402176)
(0.0536471 0.776972 0.405612)
(-0.00816499 0.822109 0.479204)
(0.0485878 0.768387 0.393844)
(0.08106 0.735025 0.348294)
(0.323924 0.991648 0.420917)
(0.323205 0.979703 0.416739)
(0.297525 0.99146 0.449412)
(0.289203 0.969009 0.447924)
(0.25266 1.06246 0.503003)
(0.243026 1.04455 0.4736)
(0.22505 0.926957 0.460223)
(0.221689 0.942894 0.469965)
(0.29334 0.983635 0.434322)
(0.266307 1.04537 0.47024)
(0.261092 0.987151 0.436961)
(0.293605 1.00893 0.434079)
(0.294438 0.993909 0.428007)
(0.2433 1.04014 0.482673)
(0.174451 0.934693 0.483766)
(0.280981 1.00453 0.434509)
(0.258154 1.0257 0.488292)
(0.171484 0.96302 0.500909)
(0.204494 1.00454 0.508574)
(0.215001 0.984098 0.511394)
(0.220603 1.00283 0.496217)
(0.0140658 0.997653 0.663763)
(0.0301561 1.01998 0.676558)
(0.0710064 1.03006 0.698258)
(0.0254382 1.01779 0.658592)
(0.0590629 1.0375 0.673029)
(-0.00394721 0.913531 0.616409)
(0.0348766 1.00871 0.639669)
(0.00576241 0.960152 0.662058)
(0.0539008 0.996833 0.699717)
(0.0170693 0.934921 0.629257)
(0.0316234 0.985797 0.639647)
(0.0751197 1.04114 0.688094)
(0.0722435 1.0442 0.687546)
(0.0734093 1.01924 0.703672)
(0.0566033 1.00539 0.692952)
(0.0120688 0.936901 0.674086)
(0.0549415 0.991191 0.684941)
(0.0220079 0.947109 0.670193)
(-0.0143988 0.56392 0.381237)
(-0.0210038 0.533224 0.382754)
(-0.000143369 0.454731 0.334547)
(-0.000103484 0.494233 0.342693)
(-0.00200766 0.54315 0.345985)
(0.0172176 0.430615 0.306625)
(0.00875663 0.488741 0.311083)
(0.41133 0.624458 0.448612)
(0.443135 0.578092 0.425202)
(0.436381 0.67516 0.446054)
(0.404307 0.558993 0.448513)
(0.439571 0.509356 0.406406)
(0.360879 0.681097 0.471871)
(0.449365 0.668327 0.421738)
(0.444642 0.608622 0.410411)
(0.432295 0.542026 0.398076)
(0.429448 0.505111 0.444737)
(0.429054 0.528147 0.408248)
(0.343623 0.60483 0.45947)
(0.366849 0.693946 0.45186)
(0.432707 0.600124 0.413186)
(0.380444 0.582251 0.453032)
(0.378408 0.579202 0.465782)
(0.359316 0.672913 0.465585)
(0.323009 0.635998 0.478937)
(0.429883 0.656684 0.439108)
(-0.136828 0.843973 0.628459)
(-0.118123 0.865717 0.627878)
(-0.0837906 0.83288 0.624068)
(-0.0525412 0.844411 0.657483)
(-0.0608518 0.843197 0.651279)
(-0.12398 0.858153 0.607208)
(-0.111203 0.855937 0.602359)
(-0.110209 0.827482 0.609917)
(-0.101763 0.819141 0.611956)
(-0.0224518 0.836539 0.618083)
(-0.0845452 0.832199 0.580258)
(-0.108274 0.827649 0.600852)
(-0.0804293 0.849521 0.632813)
(-0.0394251 0.835588 0.599037)
(-0.0519869 0.854861 0.642079)
(-0.00124841 0.846185 0.62466)
(-0.0289391 0.815856 0.592648)
(-0.0916765 0.823424 0.582578)
(-0.0105116 0.815385 0.605733)
(-0.0447072 0.826986 0.591974)
(0.422013 0.7754 0.382581)
(0.409248 0.759975 0.362319)
(0.397129 0.789125 0.382418)
(0.398794 0.77767 0.393853)
(0.385406 0.806928 0.391861)
(0.232631 0.84188 0.436859)
(0.22753 0.812623 0.447099)
(0.280517 0.799657 0.440799)
(0.310223 0.765104 0.431924)
(0.374604 0.857565 0.379785)
(0.403369 0.792403 0.366762)
(0.279791 0.799292 0.433213)
(0.37845 0.846065 0.372658)
(0.348789 0.893062 0.383462)
(0.388418 0.796692 0.392274)
(0.263095 0.901116 0.668548)
(0.234326 0.896464 0.681554)
(0.316397 0.841269 0.635859)
(0.307115 0.899141 0.667232)
(0.297152 0.861994 0.637382)
(0.24659 0.863564 0.633421)
(0.325161 0.820536 0.609892)
(0.319112 0.738026 0.538245)
(0.32734 0.74442 0.520824)
(0.322531 0.798355 0.539648)
(0.304073 0.817689 0.543343)
(0.310394 0.82786 0.590268)
(0.3129 0.819794 0.557721)
(-0.0711656 0.588427 0.442473)
(-0.0729993 0.589569 0.44575)
(-0.0462875 0.545107 0.420197)
(0.00214319 0.422007 0.35255)
(-0.000505285 0.398156 0.314958)
(-0.00498396 0.413065 0.335656)
(-0.00680049 0.408433 0.302573)
(-0.00670658 0.46654 0.375212)
(-0.0141095 0.435521 0.336138)
(-0.037066 0.48653 0.364749)
(-0.0386637 0.464792 0.356038)
(-0.0487368 0.577246 0.46007)
(-0.0373848 0.546035 0.439517)
(-0.00248211 0.466544 0.378457)
(-0.0267121 0.464208 0.351225)
(-0.035776 0.477864 0.346564)
(-0.0342021 0.5383 0.431426)
(-0.058743 0.574628 0.442881)
(0.0116258 0.9026 0.700749)
(0.0322921 0.887756 0.691558)
(0.134961 0.869456 0.688165)
(0.0933498 0.879347 0.691934)
(-0.0269258 0.911095 0.69234)
(0.00808011 0.933183 0.702846)
(0.0957854 0.876083 0.690067)
(0.117372 0.849511 0.662945)
(0.1017 0.896424 0.691671)
(0.0262177 0.925637 0.70046)
(0.129126 0.840452 0.655383)
(0.0861326 0.877506 0.669167)
(0.0962832 0.874673 0.665973)
(-0.0937254 0.905172 0.629385)
(-0.115998 0.888768 0.633434)
(-0.0795296 0.896866 0.630705)
(-0.118638 0.908747 0.642923)
(-0.095221 0.932237 0.639153)
(-0.087385 0.908047 0.651166)
(-0.0705916 0.915787 0.630604)
(-0.0964468 0.928458 0.62994)