/*--------------------------------*- C++ -*----------------------------------*\
| =========                 |                                                 |
| \\      /  F ield         | OpenFOAM: The Open Source CFD Toolbox           |
|  \\    /   O peration     | Version:  v1612+                                |
|   \\  /    A nd           | Web:      www.OpenFOAM.com                      |
|    \\/     M anipulation  |                                                 |
\*---------------------------------------------------------------------------*/
FoamFile
{
    version     2.0;
    format      ascii;
    class       volVectorField;
    location    "200";
    object      wallShearStress;
}
// * * * * * * * * * * * * * * * * * * * * * * * * * * * * * * * * * * * * * //

dimensions      [0 2 -2 0 0 0 0];

internalField   uniform (0 0 0);

boundaryField
{
    WALL
    {
        type            calculated;
        value           nonuniform List<vector> 
54006
(
(0.0111534 -0.00410661 0.00140359)
(0.00980382 0.00247215 0.0060937)
(0.0010578 -0.00356847 -0.011769)
(0.00236599 -0.00450301 -0.013747)
(0.00618979 6.12985e-05 0.0102315)
(0.00515815 -0.000162661 0.0100858)
(0.00125919 -0.00913718 0.00672841)
(0.00116487 -0.00913516 0.00678193)
(0.00843606 -0.0260415 0.016544)
(0.00686947 -0.0256515 0.0164021)
(-0.0172105 -0.00740396 -0.0167162)
(-0.0164192 -0.00654969 -0.0171111)
(-0.00892079 -0.0115691 -0.00400307)
(-0.00873679 -0.0115567 -0.00413393)
(0.00458458 -0.00582617 0.0102482)
(0.00450842 -0.00551948 0.0102334)
(0.00772113 -0.00712248 0.00422098)
(0.00854475 -0.00769127 0.00383762)
(-0.0100952 -0.0120997 -0.00468243)
(-0.00947207 -0.0108123 -0.00448918)
(0.0087565 0.00977391 0.0230219)
(0.00981523 0.00787707 0.0225848)
(0.00695214 0.00285747 0.00794561)
(0.00731532 0.00305467 0.00788028)
(0.022168 0.0112449 0.00503959)
(0.0210579 0.0118546 0.00502131)
(0.00904291 -0.0107348 0.0046662)
(0.00779811 -0.0103717 0.00578188)
(0.00372319 -0.0117589 0.00257235)
(0.00294034 -0.013183 0.00346747)
(0.0111295 -0.00848652 0.000917603)
(0.00940867 -0.00915218 0.00125084)
(0.0144101 0.00668029 0.00897021)
(0.0172935 0.00543517 0.00920861)
(0.0110973 -0.00152092 0.00837667)
(0.011891 -0.000986704 0.00847145)
(0.0129216 -0.00437638 0.010923)
(0.0135484 -0.00492641 0.0115822)
(0.0187582 0.0069716 0.0128071)
(0.0198317 0.00752343 0.0138449)
(-0.00138819 -0.0130337 0.0224109)
(0.00153318 -0.0145993 0.0228751)
(-0.00479518 -0.00120752 0.0147982)
(-0.00450149 -0.000199346 0.0164746)
(-0.0127659 0.00983244 0.0308629)
(-0.0136349 0.0093596 0.0342607)
(-0.00315447 -0.0158045 0.0102557)
(-0.00404502 -0.0163729 0.00933112)
(0.00366203 -0.00476578 0.00841412)
(0.00392402 -0.00527619 0.00905144)
(0.0159399 -0.0226488 -0.024625)
(0.0185858 -0.0257175 -0.0257304)
(0.00395712 -0.0104428 0.00552534)
(0.00418955 -0.0102633 0.0055188)
(-0.00736992 -0.0109521 -0.00439357)
(-0.00778095 -0.0117902 -0.00460296)
(0.0102155 -0.00641546 0.0095285)
(0.0100067 -0.00640804 0.0104752)
(0.014929 0.000983636 0.0110284)
(0.0158865 0.0014404 0.0117467)
(-0.00981348 -0.0124653 -0.0042274)
(-0.00954914 -0.0122821 -0.00438505)
(0.00884521 -0.0110992 0.0197037)
(0.00964021 -0.0110309 0.0209581)
(0.00623484 -0.0071597 0.0137787)
(0.00632284 -0.00813926 0.0145041)
(0.00656896 -0.00857368 0.0154406)
(0.00663038 -0.00840072 0.0152732)
(0.00780311 -0.00971641 0.0177319)
(0.0075993 -0.00935918 0.0172084)
(0.0112217 -0.0237742 -0.00318298)
(0.00654115 -0.016875 -0.00256608)
(0.0261147 -0.0259265 -0.0175247)
(0.0216198 -0.0226916 -0.0102834)
(0.040368 -0.0292901 0.0101822)
(0.0496076 -0.0363104 0.01787)
(-0.00751591 -0.00891929 -0.00312971)
(-0.00768995 -0.00950484 -0.00298011)
(-0.00796709 -0.00995753 -0.00316491)
(-0.00774901 -0.0100853 -0.00294031)
(-0.00955786 -0.0119133 -0.00388218)
(-0.0106599 -0.0129633 -0.00384257)
(-0.00901478 -0.0113145 -0.00396975)
(-0.00867673 -0.0112873 -0.00415293)
(-0.00877063 -0.0111357 -0.00406914)
(-0.00913651 -0.011467 -0.00385348)
(-0.00997262 -0.00107631 0.0051758)
(-0.0105745 0.000710271 0.00533193)
(-0.0163645 -0.0405349 0.0206519)
(-0.0126189 -0.0335636 0.0135121)
(0.00203453 -0.00963159 0.00589791)
(0.00179656 -0.0101384 0.00604395)
(0.00497019 -0.00636438 0.0113299)
(0.00477574 -0.00559543 0.010667)
(0.00396068 -0.00659207 0.0116361)
(0.00370455 -0.0068866 0.0122483)
(-0.0157254 -0.000546863 0.0120204)
(-0.0156497 -0.000593727 0.0115713)
(0.00465677 -0.00547725 0.0104789)
(0.00494101 -0.0057853 0.0110564)
(-0.0137444 0.00669335 0.025801)
(-0.0163888 0.0085124 0.0223592)
(0.00787967 -0.0119006 0.0201135)
(0.00762818 -0.0100272 0.0178204)
(0.0143664 0.00192376 0.00893735)
(0.0154356 0.00202779 0.00919295)
(0.0156771 -0.00533939 0.00481775)
(0.0160483 -0.00463573 0.0043814)
(0.00993721 0.00152212 0.0050074)
(0.00937458 0.00162332 0.00485971)
(0.0133359 0.00360521 0.0078459)
(0.0140063 0.00411717 0.00805055)
(0.00763464 -0.0120001 0.0028867)
(0.00705344 -0.00947949 0.00365928)
(0.0128932 -0.0246123 0.0161821)
(0.0109316 -0.0258208 0.0175613)
(0.00756495 -0.0276457 0.0179301)
(0.00552387 -0.0276781 0.0176115)
(0.0107574 -0.00643229 0.00779524)
(0.0111156 -0.00594229 0.00951663)
(0.0199206 0.00881311 0.0107293)
(0.0180811 0.00651404 0.00904627)
(0.00455442 -0.0145083 0.0168881)
(0.00484248 -0.0148328 0.0180354)
(0.0164303 0.00916705 0.00992979)
(0.0133694 0.00876921 0.00994307)
(0.0154811 -0.00125085 0.0140677)
(0.0174458 -0.00253507 0.0155765)
(0.0132375 -0.00419611 0.0108701)
(0.0131478 -0.00470804 0.0097996)
(0.0196443 0.00944639 0.0056683)
(0.021086 0.00821215 0.00568596)
(0.0254751 0.00409553 0.00621715)
(0.0253895 0.005594 0.00502814)
(0.00900084 0.00649855 0.0094903)
(0.00795551 0.0050946 0.00940832)
(-0.0106931 0.00196196 0.021739)
(-0.00968647 0.00482039 0.0228727)
(-0.0093602 0.011741 0.0133328)
(-0.00859436 0.00968021 0.01414)
(-0.0373206 -0.00404227 0.0397268)
(-0.036738 -0.00572554 0.03708)
(-0.000555447 -0.00680792 0.00277349)
(-0.0008483 -0.00579261 0.000665398)
(-0.0203187 -0.0170547 -0.00661155)
(-0.0225727 -0.0137015 -0.00605874)
(-0.0231013 -0.0122578 -0.0174641)
(-0.023298 -0.0124823 -0.0200402)
(-0.0148366 -0.0302653 -0.0045334)
(-0.0106656 -0.029612 -0.0100173)
(-0.00902596 -0.0100348 -0.00483728)
(-0.00797815 -0.0086579 -0.00482559)
(-0.00641885 -0.0102236 -0.00367339)
(-0.00741622 -0.011215 -0.00428868)
(0.00021648 -0.00801753 0.0112978)
(0.000245143 -0.00832966 0.0125587)
(0.00225478 -0.0104891 0.00813323)
(0.00395569 -0.0102739 0.00908805)
(0.00440273 -0.00699889 0.00891643)
(0.00602997 -0.00566262 0.0098221)
(0.00693957 -0.00482655 0.0114906)
(0.00661384 -0.00544813 0.0111184)
(0.0041057 -0.0167775 0.00992762)
(0.00412079 -0.0158691 0.0105233)
(0.00188819 -0.0140867 0.0120138)
(0.00207579 -0.0127589 0.0116431)
(0.00995462 -0.0257461 0.0157331)
(0.00977283 -0.0253836 0.0154668)
(0.00230681 -0.0139933 0.0108177)
(0.00329976 -0.0133636 0.0103361)
(-0.0245786 0.00117699 0.0306115)
(-0.0231132 0.00339495 0.034829)
(-0.00875278 -0.0116455 -0.00338766)
(-0.0090828 -0.0122734 -0.00342734)
(-0.0104189 -0.0126935 -0.0040722)
(-0.00983724 -0.0125926 -0.00303996)
(-0.00848341 -0.0110614 -0.00396262)
(-0.00899514 -0.0116905 -0.00457619)
(-0.00759962 -0.0078814 -0.00245968)
(-0.00790863 -0.00844647 -0.00244577)
(-0.00965076 -0.01184 -0.00337446)
(-0.00885524 -0.010666 -0.0029312)
(-0.0104251 -0.0128319 -0.00403532)
(-0.00983516 -0.0128538 -0.0033632)
(-0.00861107 -0.0114528 -0.00385715)
(-0.00857175 -0.0113742 -0.00384074)
(0.0108742 -0.0100994 -0.000978573)
(0.00959754 -0.00990024 -0.00173992)
(0.00232929 -0.019904 -0.0202614)
(0.00123997 -0.0183792 -0.0199164)
(7.36579e-07 -0.00135313 -0.00231615)
(-0.000255815 -0.00258611 -0.00626656)
(-0.00216405 -0.00468274 -0.0108817)
(-0.00376591 -0.00469038 -0.00993804)
(-0.00201622 0.00149961 0.00428268)
(-0.00215385 0.00122117 0.00416353)
(0.00555521 -0.00681337 0.0126467)
(0.00596702 -0.00705325 0.0131551)
(0.00579488 -0.00705396 0.0131557)
(0.0056266 -0.00579905 0.011313)
(0.00481801 -0.00623243 0.0112221)
(-0.00400506 -0.00300582 0.00316997)
(-0.00330895 -0.00315547 0.00331385)
(0.0104611 -0.0242638 0.0233588)
(0.00914249 -0.0246504 0.0229943)
(0.00748038 -0.00481877 0.013754)
(0.00686886 -0.00594762 0.0145497)
(-0.00172795 -0.0129934 0.0199909)
(-0.00268896 -0.0147581 0.0231539)
(0.00527589 -0.00619837 0.0115408)
(0.00561266 -0.00639417 0.0124841)
(0.00159141 -0.0105731 0.00967918)
(0.0010006 -0.0125355 0.0108928)
(-0.00272157 -0.026676 -0.0181876)
(-0.00430734 -0.0274141 -0.0139266)
(0.00505641 -0.00573204 0.0110137)
(0.00527019 -0.00600303 0.0117233)
(-0.00815886 -0.0103314 -0.00294749)
(-0.00861876 -0.0105237 -0.00329424)
(0.00668669 -0.00773709 0.0142562)
(0.00660313 -0.00800347 0.0147984)
(-0.0163936 -0.0262611 -0.00106789)
(-0.0137095 -0.0249529 -0.00186631)
(0.00389898 -0.00540079 0.00961665)
(0.00410124 -0.00539695 0.00968259)
(0.00136261 -0.00557592 -0.0104088)
(0.000155861 -0.00545172 -0.0106763)
(-0.00990964 -0.00764921 -0.0135201)
(-0.0100581 -0.0078256 -0.0118823)
(-0.0109455 -0.0134546 -0.00442217)
(-0.00974467 -0.0137184 -0.00343961)
(0.00314815 -0.0277477 0.00547286)
(0.00129842 -0.00766745 0.0125133)
(0.00062128 -0.00798912 0.0158019)
(0.00512624 -0.00558902 0.0106847)
(0.00493749 -0.00598421 0.0112143)
(-0.00919731 0.0155281 0.0257114)
(-0.00964457 0.0154637 0.0233808)
(0.0130783 -0.0162693 0.031795)
(0.0147668 -0.0170706 0.0353234)
(-0.0111814 -0.00300637 -0.00901039)
(-0.00934521 -0.00314818 -0.00895835)
(-0.00694373 -0.0153432 0.00727627)
(-0.0062678 -0.0152828 0.0095422)
(-0.0228484 -0.00517902 -0.0139459)
(-0.0199616 -0.0027262 -0.0139055)
(-0.00103491 0.00429507 0.00632818)
(-0.000972469 0.00440565 0.00658849)
(-0.00566663 -0.023783 -0.00518021)
(-0.0058483 -0.0222518 -0.00496709)
(-0.00132101 0.00459111 0.00625533)
(-0.00149575 0.00479742 0.00641871)
(-0.0020338 0.00734536 0.00792687)
(-0.00162873 0.00614208 0.00727775)
(-0.00114187 0.00522037 0.00708111)
(-0.00103023 0.00473745 0.00681255)
(-0.00773168 0.016315 0.0271266)
(-0.00862399 0.0154491 0.0265267)
(-0.00679576 0.0167263 0.0263397)
(-0.00708954 0.0174463 0.0267888)
(-0.00792336 -0.0134441 -0.00598785)
(-0.00778976 -0.0123691 -0.00528705)
(-0.00851695 -0.0128178 -0.00655838)
(-0.00759769 -0.011124 -0.00580515)
(-0.0051216 -0.00636464 0.00163665)
(-0.00806 -0.00787558 0.00270205)
(-0.00640874 -0.00587648 0.00340389)
(-0.00350837 -0.00399059 0.00167689)
(-0.0168164 -0.0152716 -0.00538003)
(-0.0178496 -0.0145991 -0.00590447)
(0.0144927 0.00724284 0.00774513)
(0.0130265 0.00613938 0.0069259)
(0.0116286 0.00469192 0.00603535)
(0.0132801 0.00567735 0.0068841)
(0.00956462 0.00332577 0.00524396)
(0.00959981 0.00352092 0.00519932)
(0.0102672 0.00373882 0.00567787)
(0.0100628 0.00394762 0.00528935)
(-0.00548348 -0.0143247 0.00532625)
(-0.00461458 -0.0130719 0.00437186)
(-0.00487842 -0.0158007 0.0100419)
(-0.00556282 -0.0160148 0.00870491)
(-0.0137714 -0.00232844 0.0224393)
(-0.0128694 -0.00377173 0.0225824)
(0.00534656 -0.00700168 0.0124221)
(0.00557242 -0.00678917 0.0123183)
(0.00585677 -0.00706897 0.0128753)
(0.00548363 -0.00649584 0.0122869)
(0.0116991 -0.0109844 0.00180469)
(0.0117839 -0.0117713 0.00143334)
(0.0157703 -0.01698 -0.00408863)
(0.0136122 -0.014325 -0.000625114)
(0.0187753 -0.0247926 -0.00730506)
(0.0209063 -0.0258698 -0.0129011)
(0.00100626 -0.00587983 0.00914447)
(0.00170323 -0.00568965 0.00930471)
(0.00483107 -0.00557444 0.0106802)
(0.00474757 -0.00592857 0.0108267)
(0.00433514 -0.00582397 0.0100042)
(0.00508912 -0.00577576 0.0112832)
(0.00489865 -0.00560218 0.010541)
(0.00462927 -0.00525006 0.00998482)
(0.00463384 -0.00553223 0.0103381)
(0.00412063 -0.00547047 0.00997422)
(0.00505195 -0.00640145 0.0118637)
(0.0047913 -0.00569616 0.010906)
(-0.00598222 -0.0119985 0.0244875)
(-0.00605952 -0.0135754 0.0257335)
(0.0124907 0.00360775 0.00724477)
(0.014872 0.00439839 0.00844057)
(0.00836758 0.00246799 0.00528248)
(0.00891491 0.00277842 0.00514744)
(0.00965678 0.00292123 0.00536424)
(0.00906663 0.0023748 0.00581104)
(0.0116291 0.00277346 0.00724207)
(0.0121336 0.00345174 0.00729574)
(0.0197426 0.00693387 0.0109563)
(0.0194873 0.0066753 0.0109416)
(0.0201772 0.00811211 0.00641633)
(0.0187541 0.00859837 0.00535069)
(0.0182561 0.010341 0.0081193)
(0.0176632 0.0100554 0.00603029)
(0.0084171 0.00235789 0.00503222)
(0.00836762 0.00225812 0.00476968)
(0.00869301 0.00255026 0.00511314)
(0.00877489 0.0024971 0.00479898)
(0.0159782 -0.00936757 0.00496143)
(0.0157881 -0.0101893 0.00442457)
(0.0123226 -0.00542222 0.00511316)
(0.0120573 -0.0048047 0.00408855)
(0.0149902 -0.000628704 0.0123925)
(0.0141108 -0.000993087 0.0112065)
(0.00186928 -0.00643221 0.00627656)
(0.001532 -0.00719921 0.00683217)
(0.0132162 -0.0156238 0.00223665)
(0.0143765 -0.0165746 0.00150789)
(0.0155256 0.00403208 0.00651914)
(0.0144585 0.00336589 0.00629336)
(0.0201727 0.00689389 0.00925932)
(0.0235541 0.00940577 0.0120975)
(0.00838706 -0.0121802 0.0169668)
(0.00950573 -0.0116424 0.0172887)
(0.0210693 0.00179943 0.00201137)
(0.0213854 0.00159021 0.00195941)
(0.0196582 0.00493014 0.00535494)
(0.0179679 0.00427077 0.00601215)
(0.00655161 0.00112772 0.0109136)
(0.00480166 -0.00018296 0.0102785)
(0.0127776 0.00539031 0.0100853)
(0.0152388 0.00579006 0.00909567)
(0.00786938 0.00441713 0.011043)
(0.0066784 0.00358121 0.00976281)
(0.0269336 3.09066e-05 0.0144408)
(0.0247563 0.000184208 0.0142607)
(0.0246764 0.00400348 0.00735977)
(0.0253941 0.00280017 0.00880193)
(-0.00241801 -0.0123596 0.0136919)
(0.000505863 -0.0109961 0.0178587)
(-0.0235818 -0.00163736 0.0368783)
(-0.0289347 -0.00859522 0.0292842)
(-0.00989588 0.0142326 0.0356748)
(-0.0120135 0.0116123 0.0402147)
(-0.00454207 -0.0181942 -0.0130169)
(-0.00422422 -0.0180665 -0.0117043)
(-0.00785208 -0.023715 -0.0134978)
(-0.00709872 -0.0236084 -0.0131029)
(-0.00991812 -0.0237246 -0.0134785)
(-0.00937573 -0.0235007 -0.0157553)
(-0.00781486 -0.00342267 -0.00435957)
(-0.00869845 -0.00327922 -0.00733006)
(-0.0199412 -0.0122114 0.00296667)
(-0.0045367 -0.00326074 0.000244056)
(0.00202777 -0.000630054 0.0203167)
(0.00170536 -0.000591057 0.0215503)
(-0.0012305 -0.00728167 0.00800132)
(-0.00160689 -0.00719304 0.00809087)
(0.00268289 -0.0154296 0.0137379)
(0.00130729 -0.0147648 0.0141575)
(0.00272742 -0.0165696 0.012087)
(0.00265555 -0.0170692 0.012495)
(0.00211084 -0.0161393 0.0121959)
(0.0015597 -0.016018 0.012467)
(0.00316155 -0.0153436 0.0113897)
(0.00296338 -0.0158484 0.012044)
(0.000988128 -0.00914919 0.006675)
(0.000807129 -0.00877965 0.00688564)
(0.00340458 -0.0133946 0.0103273)
(0.00407694 -0.0144886 0.0112286)
(-0.0092809 -0.00947286 -0.00406911)
(-0.00964259 -0.0098145 -0.00431093)
(-0.0163379 0.00610253 0.0253351)
(-0.0169305 0.00693492 0.0212053)
(-0.00375953 0.00510735 0.000179302)
(-0.00405171 0.00553463 0.00056472)
(-0.00545201 -0.00492495 -0.00190216)
(-0.00672627 -0.00494408 -0.00108871)
(-0.0196489 -0.0136597 -0.00876807)
(-0.0181893 -0.0150782 -0.00750849)
(-0.0133098 -0.0190294 -0.00465475)
(-0.0125154 -0.0188065 -0.00527079)
(-0.0161575 -0.00917114 -0.0169006)
(-0.0159004 -0.00893037 -0.0181999)
(-0.0172716 -0.00827589 -0.0207753)
(-0.0172999 -0.0072114 -0.0190404)
(-0.00555304 -0.00728462 -0.00403917)
(-0.00720764 -0.00860576 -0.00521988)
(-0.00247881 -0.000695323 0.00590889)
(-0.00246217 -0.000548589 0.00498443)
(-0.0041908 -0.000747714 0.00307054)
(-0.00381288 -0.000501622 0.00385663)
(0.00541916 -0.00683282 0.0123978)
(0.00582242 -0.00665582 0.0127201)
(-0.00168805 0.0066608 0.0155416)
(-0.0023537 0.00531204 0.0178048)
(0.00478935 -0.00574566 0.0105476)
(0.00480036 -0.0056376 0.0105352)
(0.00485947 -0.0060784 0.0111387)
(0.0046712 -0.00565963 0.0107205)
(0.000490559 -0.0177632 0.00794836)
(0.00139576 -0.0186503 0.00816712)
(0.00288466 -0.0184933 0.0100153)
(0.00322259 -0.0193809 0.0104959)
(-0.00826315 -0.010208 -0.00322241)
(-0.00832281 -0.00984237 -0.0037695)
(0.0062559 -0.00720101 0.0138127)
(0.0062028 -0.00732474 0.0136369)
(0.00614021 -0.00777645 0.0138323)
(0.00613501 -0.0074762 0.0135712)
(0.00609903 -0.00723943 0.013624)
(0.00581211 -0.0076564 0.0134262)
(0.00708471 -0.00813424 0.015258)
(0.00637454 -0.00782893 0.0144888)
(0.00672153 -0.00763325 0.0145415)
(0.00670698 -0.00772051 0.0145051)
(0.00615261 -0.00724259 0.0134983)
(0.0063936 -0.00724367 0.0135296)
(0.0207868 -0.0290204 -0.0129764)
(0.0234657 -0.0331703 -0.0148169)
(-0.0101955 -0.0126655 -0.00459624)
(-0.00954259 -0.0129755 -0.0050725)
(-0.00983776 -0.0126262 -0.00440253)
(-0.00897094 -0.0114397 -0.00441141)
(-0.00794079 -0.0103878 -0.00311064)
(-0.00798625 -0.0103325 -0.0031989)
(-0.00767688 -0.00970654 -0.00315631)
(-0.00797398 -0.00951594 -0.00337523)
(-0.00931938 -0.0116218 -0.00398826)
(-0.00878391 -0.0110918 -0.0041131)
(-0.00915625 -0.0115572 -0.00390427)
(-0.00840405 -0.0111648 -0.00417282)
(-0.0091219 -0.0114431 -0.0037026)
(-0.00856311 -0.0109104 -0.00409209)
(-0.0100803 -0.0131165 -0.00453499)
(-0.0102297 -0.0128928 -0.00437552)
(0.0172057 -0.00161353 0.00828219)
(0.0167403 -0.00191375 0.00814445)
(0.0111737 -0.00143831 0.00839517)
(0.0115998 -0.000664764 0.00852502)
(0.0120811 0.00101252 0.00822938)
(0.0114201 0.00130299 0.00788473)
(-0.0163369 -0.025934 0.00191272)
(-0.0168321 -0.0287133 0.000335978)
(0.0019913 -0.0120964 0.00765514)
(0.0016882 -0.0140949 0.00687802)
(-0.0105213 -0.0145502 0.00305632)
(-0.0114599 -0.0195849 0.0042074)
(-0.00807768 -0.0135315 0.005656)
(-0.00797681 -0.00966768 0.00349832)
(-0.0109322 -0.0126112 0.00259547)
(-0.012297 -0.0139405 0.00181421)
(-0.0152069 -0.0269824 -0.00351113)
(-0.0150113 -0.0223269 -0.0034868)
(0.001421 -0.0132501 -0.00735348)
(0.00211938 -0.00962816 -0.00439924)
(0.00202382 -0.0172654 -0.0106462)
(0.00171706 -0.0138499 -0.00668058)
(-0.00742404 -0.0271502 -0.0259099)
(-0.0134005 -0.0256771 -0.0239528)
(0.000539977 -0.021482 -0.0169432)
(-0.001797 -0.0227206 -0.0202031)
(-0.00504113 -0.0277372 -0.0249721)
(-0.000661649 -0.0249792 -0.0204554)
(-0.0179378 -0.0298504 -0.000118651)
(-0.0194275 -0.0279897 -0.00140166)
(0.000384683 -0.00949363 0.00701672)
(0.000198433 -0.00925249 0.00679363)
(0.00279956 -0.0188881 0.00830443)
(0.00315989 -0.0203014 0.0100274)
(0.00244612 -0.0154161 0.00904972)
(0.00275809 -0.0158437 0.00949548)
(0.00105724 -0.0186712 0.00835641)
(0.000697865 -0.0180195 0.00873585)
(0.00177991 -0.0182517 0.00971434)
(0.00243915 -0.0175541 0.00906954)
(-0.000343882 -0.0142322 0.00935283)
(-0.000591315 -0.0134927 0.00857582)
(0.00527458 -0.0207679 0.0126094)
(0.00664307 -0.0216552 0.0132472)
(0.00879633 -0.02248 0.012889)
(0.00833161 -0.0214516 0.0124425)
(0.0072062 -0.0203305 0.0126839)
(0.00742094 -0.0199698 0.0125247)
(0.00775295 -0.0211218 0.0130769)
(0.00775352 -0.0211736 0.0130664)
(0.00505498 -0.0138575 0.0102701)
(0.0053574 -0.0144824 0.0104389)
(0.00583643 -0.0167129 0.0115054)
(0.00523499 -0.0154836 0.0108987)
(0.00106672 -0.0129789 0.0105007)
(0.00117007 -0.0110943 0.00984061)
(0.000947281 -0.0097231 0.00865584)
(0.000374662 -0.0110047 0.0092826)
(-0.00735485 -0.00814673 -0.00243176)
(-0.00748276 -0.008653 -0.00254288)
(0.00557561 -0.0162152 -0.0164231)
(0.00427323 -0.0155438 -0.0149136)
(0.00287194 -0.0162954 -0.019722)
(0.00333785 -0.0155124 -0.0184588)
(0.0054044 -0.00653915 0.0120568)
(0.00503265 -0.00645319 0.0116283)
(0.00493972 -0.00598952 0.011053)
(0.00501047 -0.00631601 0.0115944)
(0.00522495 -0.00638409 0.0117557)
(0.00528097 -0.00656407 0.0120652)
(0.00505021 -0.00642201 0.0117971)
(0.00528759 -0.00649885 0.0119638)
(0.00565465 -0.00658136 0.0123329)
(0.00534577 -0.00669511 0.0124197)
(0.00529647 -0.00615049 0.0117006)
(0.00513122 -0.00611858 0.0114748)
(0.00535639 -0.00619144 0.0115741)
(0.00524842 -0.00637351 0.0118233)
(0.00555639 -0.00664426 0.0119351)
(0.00594478 -0.00723637 0.0124625)
(0.0162008 0.00555457 0.008299)
(0.0178892 0.00796998 0.00886978)
(0.0119556 0.00353185 0.00590844)
(0.0107244 0.00310011 0.00537117)
(0.0152927 0.00610566 0.00756124)
(0.0133724 0.00455624 0.00649425)
(0.0061095 -0.00718311 0.0133415)
(0.00602701 -0.00844898 0.0145551)
(0.00432392 -0.00571796 0.0103883)
(0.00476744 -0.00541672 0.0102847)
(-0.000424806 -0.00344637 0.00399809)
(0.000319783 -0.00399209 0.00512108)
(0.00431192 -0.00536593 0.00988729)
(0.00476973 -0.00545379 0.0104273)
(0.00475555 -0.00559463 0.0105568)
(0.00458422 -0.00592775 0.010654)
(0.00512103 -0.00541975 0.0109954)
(0.00437314 -0.00578967 0.0106273)
(0.00464096 -0.00566779 0.0104949)
(0.00437299 -0.0056912 0.0103513)
(0.00438811 -0.00597834 0.0108443)
(0.00447931 -0.00571444 0.0104375)
(0.00466506 -0.00574446 0.0105426)
(0.00488883 -0.00561228 0.0108759)
(0.00459005 -0.00582189 0.01032)
(0.00484123 -0.0053322 0.0103336)
(0.00437948 -0.00546795 0.0100398)
(0.00480177 -0.0058003 0.01032)
(0.00442956 -0.00554838 0.0110171)
(0.00444259 -0.00538672 0.00980706)
(0.00430368 -0.00565029 0.00979501)
(0.0047183 -0.00504021 0.00984676)
(0.00461471 -0.00547204 0.0101232)
(0.00473562 -0.00562409 0.0104324)
(0.00466764 -0.00556529 0.0103124)
(0.00456181 -0.00550766 0.0103469)
(0.00449575 -0.00562883 0.0102899)
(0.00482584 -0.00552714 0.0104748)
(0.00467395 -0.00570137 0.0105682)
(0.00614088 9.60167e-05 0.00571251)
(0.00638147 0.000387556 0.00584635)
(0.00635899 0.00273869 0.00767962)
(0.00675819 0.00411788 0.00839031)
(-0.00236139 -0.0233461 0.0277486)
(-0.00263843 -0.0208946 0.027686)
(-0.00475188 -0.0163984 0.0281725)
(-0.00384633 -0.020012 0.0290173)
(0.00361258 -0.00459554 0.0130259)
(0.00237089 -0.00721031 0.0151)
(0.010639 -0.00369042 0.0098359)
(0.0111681 -0.00305604 0.0101857)
(0.00565434 -0.00426749 0.0138533)
(0.00509711 -0.00567515 0.0146669)
(0.00395893 -0.00784942 0.00281685)
(0.00483747 -0.00816036 0.00336102)
(0.00461683 -0.00845851 0.00565742)
(0.00460916 -0.00834214 0.0046088)
(0.00368615 -0.00866767 0.00209718)
(0.00396197 -0.00855107 0.00233212)
(0.00890348 -0.00817692 0.00310477)
(0.00663412 -0.00850574 0.00311268)
(0.00824398 -0.00822105 0.00266326)
(0.0102399 -0.0076973 0.00321263)
(0.00555147 -0.00837046 0.0116145)
(0.00462539 -0.0083872 0.0142199)
(-0.00428374 -0.0142269 0.027175)
(-0.00637606 -0.015147 0.0304602)
(0.00446077 -0.0084833 0.00673843)
(0.00313767 -0.00762422 0.00574423)
(-0.0116764 0.00987101 0.0250257)
(-0.0153323 0.0117892 0.0233692)
(0.00140742 -0.0229585 0.0207702)
(-0.000537971 -0.0190752 0.0199626)
(0.0021075 -0.0187589 0.0249251)
(0.00333174 -0.0185296 0.0239193)
(0.00066704 -0.0166616 0.022955)
(-2.10462e-05 -0.0178181 0.0250196)
(-0.0229656 -0.00957624 0.0211735)
(-0.0182459 -0.00858894 0.0137734)
(0.00476075 -0.00610628 0.0110488)
(0.00504529 -0.00579892 0.0109957)
(0.00522719 -0.0063694 0.0116529)
(0.00512656 -0.00633722 0.0115689)
(0.00543433 -0.00658825 0.0122653)
(0.00534502 -0.00643696 0.0118597)
(0.0049933 -0.00646622 0.0118652)
(0.00473143 -0.00604098 0.0108432)
(0.0049525 -0.00673436 0.0115094)
(0.00544513 -0.00647436 0.0118677)
(0.00545465 -0.00596926 0.0113102)
(0.00517662 -0.00629867 0.011747)
(0.00558255 -0.00678408 0.0126641)
(0.00507007 -0.00682886 0.0120257)
(0.00494455 -0.00620272 0.0113763)
(0.00536526 -0.00647791 0.0116811)
(0.0047399 -0.00610393 0.0112094)
(0.00515912 -0.00564751 0.0108274)
(0.00519898 -0.00626862 0.0114794)
(0.00495414 -0.006256 0.0111499)
(0.00510933 -0.00608134 0.0114398)
(0.00505296 -0.0061209 0.0111768)
(0.00550959 -0.00606786 0.011452)
(0.00510706 -0.0062465 0.011534)
(0.00513736 -0.00641075 0.0116085)
(0.00552863 -0.0062453 0.0117011)
(0.00489654 -0.00634012 0.0111236)
(0.00518155 -0.00602829 0.0114593)
(0.00505525 -0.00610357 0.0113611)
(0.00490729 -0.00603094 0.0110928)
(0.00493556 -0.00589132 0.0107278)
(0.00487721 -0.00628628 0.0111315)
(0.00556759 -0.00713248 0.013006)
(0.00588322 -0.00705524 0.0131923)
(0.00653178 -0.00795306 0.0139726)
(0.00669817 -0.00784751 0.0137908)
(0.0058224 -0.00671099 0.0127424)
(0.00631382 -0.00709549 0.0135382)
(0.00642222 -0.00752675 0.0141261)
(0.00600759 -0.00711016 0.0136572)
(0.00573066 -0.00657975 0.012799)
(0.00548117 -0.00675156 0.0122774)
(-0.00165535 0.00497283 0.00869138)
(-0.00100088 0.00490129 0.0078886)
(-0.0012343 0.00384648 0.00574849)
(-0.00136573 0.00347951 0.00547353)
(-0.00184239 0.00273148 0.00542467)
(-0.00165476 0.00319649 0.0055699)
(-0.00144872 0.00339341 0.00557338)
(-0.00153449 0.0036567 0.00579585)
(-0.00228482 0.00260031 0.00639769)
(-0.00247109 0.00261996 0.00702911)
(-0.00263154 -0.00272805 0.0036654)
(-0.00274542 -0.00241197 0.00293422)
(-0.00174684 0.00201108 0.00465219)
(-0.00201299 0.00188014 0.00473147)
(0.00687039 -0.0058998 0.00439923)
(0.00684432 -0.00642746 0.00521429)
(-0.00482073 0.007104 0.010161)
(-0.00513294 0.00810905 0.0111563)
(-0.00420672 0.000431576 0.0093043)
(-0.00338192 0.000166156 0.00913581)
(0.00180327 0.000820346 -0.0024678)
(0.00153252 0.000721195 -0.0020189)
(-0.00399277 -0.00753199 -0.0116699)
(-0.00585747 -0.00645385 -0.0113841)
(-0.00784653 -0.00539629 -0.0113035)
(-0.0102941 -0.00477643 -0.0112128)
(-0.0156993 -0.00941355 -0.0198855)
(-0.0163389 -0.00889707 -0.0191432)
(-0.00337194 -0.00980809 -0.0160787)
(-0.00138847 -0.0101144 -0.0128341)
(-0.00979206 -0.0163128 -0.0184813)
(-0.0107446 -0.018236 -0.0168564)
(-0.0123646 -0.000511551 -0.0115986)
(-0.0151114 -0.000437065 -0.0112628)
(-0.020114 -0.00253009 -0.0107042)
(-0.0165484 -0.00162018 -0.0113616)
(-0.00187611 -0.00388083 -0.0113684)
(-0.00331355 -0.00329343 -0.00950459)
(-0.000207518 -0.001006 -0.00145837)
(0.000340192 -0.000736538 -0.000812246)
(-0.00146038 -0.0239388 -0.00597237)
(-0.00187754 -0.020846 -0.00584826)
(-0.00620535 -0.00674819 -0.0112678)
(-0.00565103 -0.00578828 -0.0119927)
(-0.00430287 -0.00488812 -0.00958331)
(-0.00328013 -0.0050729 -0.0114586)
(-0.00457222 -0.00596017 -0.00909179)
(-0.00494124 -0.00585122 -0.00726836)
(-0.00855458 -0.0173521 -0.00573169)
(-0.00832016 -0.0143754 -0.00640921)
(-0.0024437 -0.00700345 -0.00259795)
(-0.000617697 -0.00975752 -0.00422895)
(-0.000872012 -0.0151641 -0.00708551)
(-0.00281125 -0.0163543 -0.00782968)
(-0.00828466 -0.0170811 -0.00705995)
(-0.00548453 -0.0158607 -0.00624521)
(0.000296144 -0.0164469 -0.0195128)
(0.000307527 -0.0168737 -0.0189491)
(0.00425749 -0.0187871 -0.0147572)
(0.00624392 -0.017835 -0.0140674)
(0.00862941 -0.0176577 -0.0151367)
(0.0100505 -0.0177679 -0.0157479)
(-0.00317642 -0.00607634 -0.0131398)
(-0.0014915 -0.00596419 -0.0123919)
(-0.0102337 -0.00790972 -0.0148958)
(-0.00922923 -0.0072579 -0.0158495)
(-0.0112755 -0.00835024 -0.0167174)
(-0.00850227 -0.00798609 -0.0165933)
(-0.0132438 -0.00830382 -0.0152655)
(-0.0134015 -0.00799343 -0.0163373)
(0.00214833 -0.00780974 -0.00602937)
(0.00229186 -0.00954035 -0.00686836)
(0.000991678 -0.00782355 -0.011306)
(0.0016441 -0.00795257 -0.00877984)
(-0.0149273 -0.015801 -0.00614354)
(-0.0166594 -0.0141885 -0.0062549)
(-0.0106955 -0.016497 -0.00329321)
(-0.0118358 -0.0171015 -0.00438172)
(-0.0103526 -0.017642 -0.00477708)
(-0.0123946 -0.0176519 -0.0035663)
(-0.00683384 -0.0167648 -0.00400721)
(-0.00485236 -0.0163919 -0.00573712)
(-0.0122088 -0.0181317 -0.00482499)
(-0.0100113 -0.0167457 -0.00520408)
(-0.00509344 -0.00990881 -0.00466132)
(-0.00585947 -0.0110643 -0.00385406)
(-0.00706372 0.00749604 0.0229197)
(-0.00546627 0.00827537 0.0234304)
(-0.011677 0.0139706 0.0147707)
(-0.0127426 0.0145896 0.0162684)
(-0.00626419 0.0160478 0.0257256)
(-0.00529314 0.0178454 0.0261445)
(-0.0109138 0.00334672 0.0273694)
(-0.00828143 0.00282545 0.0272588)
(0.0183667 -0.0180071 0.0157497)
(0.0192581 -0.0148936 0.0101452)
(0.00943941 -0.0138789 0.000242118)
(0.0095451 -0.011861 -0.000683036)
(0.00853617 -0.0139129 -3.40293e-05)
(0.00832351 -0.0148995 0.00124789)
(0.0110986 -0.0092866 0.00029193)
(0.0108159 -0.00788824 -0.000392124)
(0.0100998 -0.0135355 0.00212178)
(0.0103064 -0.0116071 0.000826597)
(0.0152019 -0.0219081 -0.00442022)
(0.0117154 -0.0251717 -0.00706407)
(0.0082555 -0.0258552 -0.00517861)
(0.00727457 -0.028304 -0.00377933)
(0.0151019 -0.0129997 -0.00682528)
(0.0129898 -0.0113946 -0.0069129)
(0.00881162 -0.0204929 -0.00705782)
(0.0105841 -0.0194559 -0.00896422)
(0.0107443 -0.00775192 -0.00351089)
(0.0113784 -0.00743075 -0.00303653)
(0.00892248 0.00459488 0.00787676)
(0.00945606 0.00684592 0.00991076)
(0.00913472 0.00590435 0.00861978)
(0.00891021 0.00455201 0.00741734)
(-0.007993 -0.010532 -0.00339997)
(-0.00873662 -0.01147 -0.00372191)
(-0.0103756 -0.0108091 -0.00483888)
(-0.00987852 -0.0109042 -0.00447836)
(-0.0109107 -0.0139392 -0.00402702)
(-0.0118068 -0.0143758 -0.00538486)
(-0.00709321 -0.00902603 -0.00304918)
(-0.00722407 -0.00942342 -0.00301519)
(-0.00813168 -0.0105175 -0.00356632)
(-0.00821396 -0.0108126 -0.00372047)
(-0.00867953 -0.0103698 -0.00343391)
(-0.00893308 -0.0104099 -0.00390367)
(-0.00996582 -0.0112785 -0.00467443)
(-0.0101609 -0.0122579 -0.00458136)
(-0.00910191 -0.0110832 -0.00343434)
(-0.00928233 -0.0118844 -0.00354612)
(-0.00884211 -0.0120582 -0.0045958)
(-0.00961924 -0.0123109 -0.00450756)
(-0.00867249 -0.0114282 -0.00429785)
(-0.00858379 -0.0109406 -0.00379847)
(-0.00913996 -0.0120062 -0.00447876)
(-0.00858063 -0.0121661 -0.00444992)
(-0.0109996 -0.0141191 -0.00449768)
(-0.0107483 -0.0133794 -0.00451674)
(-0.010821 -0.0130956 -0.00485147)
(-0.00938591 -0.0120937 -0.00487372)
(-0.00978194 -0.0123225 -0.00452802)
(-0.0100694 -0.0128327 -0.00379427)
(-0.0103198 -0.0127673 -0.00414356)
(-0.0103188 -0.0138206 -0.00363765)
(-0.0107283 -0.0130989 -0.00413251)
(-0.00706456 -0.00785127 -0.00217807)
(-0.00737966 -0.00856747 -0.00244699)
(-0.00793138 -0.00960778 -0.00300708)
(-0.00856005 -0.0102243 -0.00304887)
(-0.00853547 -0.00985821 -0.00262117)
(-0.00800967 -0.00977272 -0.00314405)
(-0.00851206 -0.0100558 -0.00278437)
(-0.0083225 -0.00994525 -0.00284745)
(-0.009007 -0.0111619 -0.00357889)
(-0.00904015 -0.0113618 -0.0040484)
(-0.0101834 -0.0132427 -0.00313959)
(-0.0100321 -0.0129916 -0.00369669)
(-0.0100706 -0.0130374 -0.00283965)
(-0.0103923 -0.0127977 -0.00395837)
(-0.0101997 -0.0130144 -0.0040253)
(-0.0105032 -0.0135431 -0.00414989)
(-0.0109235 -0.0118164 -0.00322132)
(-0.0108376 -0.0110205 -0.0028779)
(-0.00913092 -0.0113277 -0.00362251)
(-0.00929017 -0.0108924 -0.00262199)