/*--------------------------------*- C++ -*----------------------------------*\
| =========                 |                                                 |
| \\      /  F ield         | OpenFOAM: The Open Source CFD Toolbox           |
|  \\    /   O peration     | Version:  v1612+                                |
|   \\  /    A nd           | Web:      www.OpenFOAM.com                      |
|    \\/     M anipulation  |                                                 |
\*---------------------------------------------------------------------------*/
FoamFile
{
    version     2.0;
    format      ascii;
    class       volVectorField;
    location    "50";
    object      U;
}
// * * * * * * * * * * * * * * * * * * * * * * * * * * * * * * * * * * * * * //

dimensions      [0 1 -1 0 0 0 0];

internalField   nonuniform List<vector> 
17078
(
(-0.223471 -0.201642 -1.04608)
(-0.201178 -0.0638653 -0.532794)
(0.00779272 -0.312156 -1.23683)
(-0.000179347 -0.309458 -1.22719)
(0.0197962 -0.330697 -1.24808)
(0.01487 -0.327318 -1.18552)
(0.0372598 -0.325085 -1.20039)
(0.0474518 -0.338753 -1.25344)
(0.0290891 -0.330582 -1.20836)
(-0.00492042 -0.320675 -1.23997)
(-0.0169801 -0.315196 -1.18925)
(0.025571 -0.303403 -1.26605)
(0.025604 -0.327607 -1.25034)
(0.0350941 -0.339431 -1.18468)
(0.0401794 -0.334408 -1.20447)
(0.0524428 -0.328621 -1.22388)
(0.0483463 -0.333613 -1.25268)
(0.0156853 -0.313424 -1.13017)
(0.00270427 -0.317964 -1.19303)
(0.0301828 -0.320235 -1.23765)
(0.0366885 -0.330369 -1.26961)
(0.0208421 -0.327765 -1.27808)
(0.0495546 -0.324534 -1.26239)
(0.0118521 -0.320843 -1.14544)
(0.0379673 -0.310176 -1.19317)
(0.030363 -0.322114 -1.28335)
(-0.23764 0.155952 -0.390885)
(-0.23523 0.151713 -0.311792)
(-0.283731 0.161663 -0.298161)
(-0.234345 0.131849 -0.438096)
(-0.24726 0.127889 -0.374419)
(-0.297306 0.17881 -0.32701)
(-0.298916 0.177026 -0.259885)
(-0.318786 0.158495 -0.384048)
(-0.292164 0.095223 -0.481224)
(-0.303047 0.148801 -0.382444)
(-0.323646 0.177921 -0.330415)
(-0.264225 0.0244839 -0.697199)
(-0.222213 0.00682839 -0.772389)
(-0.338333 0.144347 -0.470275)
(-0.34879 0.112345 -0.466833)
(-0.309827 0.0478074 -0.691269)
(-0.287752 0.0365689 -0.728561)
(-0.288819 0.0550402 -0.631733)
(-0.2687 0.0655017 -0.65641)
(-0.842703 0.159443 -0.109491)
(-0.832048 0.172645 -0.111513)
(-0.864382 0.146108 -0.110237)
(-0.808027 0.113166 -0.278812)
(-0.790558 0.19569 -0.494676)
(-0.716471 0.0827636 -0.614413)
(-0.760452 0.190283 -0.547716)
(-0.759081 0.148087 -0.35983)
(-0.806545 0.139106 -0.172814)
(-0.828111 0.158578 -0.113137)
(-0.760074 0.159681 -0.369758)
(-0.866384 0.157615 -0.17441)
(-0.800974 0.116441 -0.379657)
(-0.756254 0.137574 -0.465857)
(-0.74928 0.143641 -0.340226)
(-0.808182 0.183143 -0.448226)
(-0.850672 0.223193 -0.263937)
(-0.176594 -0.0354447 -0.440877)
(-0.182792 -0.0533614 -0.441801)
(-0.107294 -0.0628057 -0.248327)
(-0.113246 -0.0416063 -0.27396)
(-0.106494 -0.0622666 -0.105705)
(-0.0922095 -0.0548053 -0.144392)
(-0.0712921 -0.0554672 -0.0762366)
(-0.236127 -0.0719888 -0.489646)
(-0.205913 -0.0538387 -0.466896)
(-0.171446 -0.0219443 -0.440865)
(-0.0690714 -0.0286569 -0.22251)
(-0.0298026 -0.0511149 -0.100488)
(-0.162385 -0.079072 -0.288633)
(-0.117294 -0.0167077 -0.325964)
(-0.10322 -0.0526744 -0.277708)
(-0.0501753 -0.0700082 -0.164251)
(-0.210999 -0.136533 -0.384585)
(-0.203123 -0.155778 -0.496629)
(-0.200014 -0.123271 -0.328357)
(-0.211529 -0.147725 -0.397883)
(-0.221314 -0.158447 -0.523689)
(-0.242095 -0.0962734 -0.38939)
(-0.232342 -0.13354 -0.532811)
(-0.2215 -0.138138 -0.413925)
(-0.204339 -0.101919 -0.242275)
(-0.218048 -0.133246 -0.331721)
(-0.217517 -0.161275 -0.543401)
(-0.220339 -0.133102 -0.407048)
(-0.219421 -0.0933496 -0.230166)
(-0.221867 -0.127193 -0.396508)
(-0.274677 -0.108849 -0.429332)
(-0.268502 -0.0610436 -0.260983)
(-0.238618 -0.078556 -0.269211)
(-0.233484 -0.0715764 -0.477124)
(-0.184791 -0.0474809 -0.416011)
(-0.243236 -0.0621238 -0.561924)
(-0.21873 -0.0625383 -0.505972)
(-0.203897 -0.00845351 -0.57984)
(-0.189932 -0.0215058 -0.493999)
(-0.169464 0.0024848 -0.464723)
(-0.169421 0.00893121 -0.493654)
(-0.180006 -0.00621565 -0.477326)
(-0.164125 0.00969478 -0.461465)
(-0.238667 -0.0597299 -0.54574)
(-0.291731 -0.0703906 -0.712019)
(-0.283512 -0.0749717 -0.712882)
(-0.271813 -0.047763 -0.707546)
(-0.211361 0.0110285 -0.575751)
(-0.194411 -0.0436578 -0.52748)
(-0.181614 -0.043576 -0.502243)
(-0.209347 -0.0567801 -0.484724)
(-0.197062 -0.0354171 -0.460942)
(-0.244226 -0.0269097 -0.663056)
(-0.211744 -0.0480742 -0.570922)
(-0.256048 -0.0650448 -0.691385)
(0.0107595 -0.331579 -1.2786)
(0.0130885 -0.335763 -1.25634)
(0.0361583 -0.315277 -1.25857)
(0.0590074 -0.326746 -1.28674)
(0.00902585 -0.308896 -1.26512)
(0.0141942 -0.2984 -1.2348)
(-0.24275 -0.0876386 -0.558625)
(-0.235373 -0.0723363 -0.584149)
(-0.253564 -0.125219 -0.639754)
(-0.221307 -0.148309 -0.67547)
(-0.261341 -0.0711597 -0.572253)
(-0.286255 -0.0376498 -0.465925)
(-0.30024 -0.0563542 -0.4071)
(-0.289791 -0.02563 -0.257944)
(-0.288435 -0.0284653 -0.473992)
(-0.272963 -0.0349012 -0.399362)
(-0.254381 -0.0756394 -0.489105)
(-0.302378 -0.0102652 -0.376071)
(-0.263398 -0.0720801 -0.382759)
(-0.267238 -0.0343921 -0.355646)
(-0.289302 -0.0131191 -0.29414)
(-0.266023 0.0777119 -0.522895)
(-0.288701 0.113197 -0.391976)
(-0.265192 0.118692 -0.441103)
(-0.306832 0.155836 -0.341626)
(-0.372921 0.103382 -0.42792)
(-0.347731 0.131321 -0.309509)
(-0.337216 0.079731 -0.439254)
(-0.360779 0.0584447 -0.54189)
(-0.246685 0.0155935 -0.750046)
(-0.318193 0.0558854 -0.50296)
(-0.334474 0.0340895 -0.693267)
(-0.296424 0.000691453 -0.708475)
(-0.142396 -0.227199 -1.01212)
(-0.131913 -0.214083 -0.953331)
(-0.123982 -0.223525 -0.862776)
(-0.141713 -0.232246 -0.89963)
(-0.136937 -0.218827 -1.04842)
(-0.151704 -0.219805 -1.02269)
(-0.104319 -0.229089 -0.959688)
(-0.146037 -0.216897 -0.860133)
(-0.104148 -0.227804 -0.997958)
(-0.0720637 -0.233445 -0.959171)
(-0.129333 -0.216866 -0.829282)
(-0.124679 -0.209895 -0.854837)
(-0.141507 -0.214033 -0.806662)
(-0.111702 -0.251223 -1.0706)
(-0.0700448 -0.261794 -1.05349)
(-0.0770267 -0.255796 -1.03008)
(-0.066792 -0.270249 -1.01224)
(-0.0953169 -0.244994 -1.07026)
(-0.121392 -0.224781 -0.827214)
(-0.105005 -0.232971 -0.824174)
(-0.0904753 -0.255161 -0.874764)
(-0.102584 -0.240138 -0.934041)
(-0.102287 -0.241816 -0.886507)
(-0.129094 -0.214202 -0.79449)
(-0.0890301 -0.243123 -1.05228)
(-0.0260887 -0.249201 -1.19611)
(-0.00553522 -0.223551 -1.11209)
(0.0266716 -0.292944 -1.22415)
(0.00763608 -0.280978 -1.19194)
(0.00353638 -0.280966 -1.20834)
(-0.0142186 -0.292026 -1.20124)
(-0.0422079 -0.233798 -1.13239)
(-0.0154563 -0.284617 -1.23543)
(-0.0139936 -0.25443 -1.19407)
(-0.0113784 -0.297003 -1.28774)
(-0.0265448 -0.287494 -1.30267)
(-0.0526703 -0.280309 -1.25235)
(-0.0162751 -0.30149 -1.3011)
(-0.0270334 -0.283438 -1.26852)
(-0.027296 -0.238839 -1.22056)
(0.00716931 -0.278041 -1.24412)
(-0.0775894 -0.248205 -0.889267)
(-0.0281281 -0.283972 -0.975121)
(-0.0557746 -0.24322 -0.884459)
(-0.0516032 -0.253437 -0.999993)
(-0.0637403 -0.228027 -0.925853)
(-0.0340488 -0.219683 -0.964175)
(-0.0505522 -0.207742 -0.864935)
(-0.0260702 -0.233042 -0.974676)
(-0.0683087 -0.245598 -0.853612)
(-0.0471982 -0.254249 -0.849913)
(-0.0128732 -0.283128 -1.02935)
(-0.0203811 -0.268764 -0.903619)
(-0.0249128 -0.266263 -1.07669)
(-0.0234113 -0.228092 -0.933323)
(-0.0531268 -0.252139 -0.87999)
(-0.0221146 -0.297598 -1.11169)
(0.000174448 -0.280337 -1.00767)
(-0.0321446 -0.263802 -0.925442)
(-0.120784 -0.261507 -1.17314)
(-0.0886266 -0.265965 -1.18256)
(-0.146242 -0.215823 -1.16133)
(-0.127265 -0.239206 -1.17677)
(-0.136326 -0.280137 -1.23228)
(-0.137243 -0.262588 -1.2172)
(-0.0876665 -0.228831 -1.17897)
(-0.0666197 -0.268458 -1.22309)
(-0.093621 -0.259826 -1.11773)
(-0.106353 -0.256371 -1.11699)
(-0.408016 0.18793 -0.730901)
(-0.338707 0.33198 -0.528551)
(-0.361748 0.441196 -0.492674)
(-0.427475 0.20037 -0.702875)
(-0.40161 0.208986 -0.661279)
(-0.436646 0.185478 -0.725657)
(-0.369682 0.22561 -0.717637)
(-0.504843 0.199108 -0.775015)
(-0.458904 0.250617 -0.763044)
(-0.34359 0.376729 -0.442483)
(-0.33074 0.400597 -0.429283)
(-0.404297 0.361382 -0.521741)
(-0.350926 0.318903 -0.614747)
(-0.455251 0.292 -0.660026)
(-0.364535 0.359247 -0.504776)
(-0.362825 0.372611 -0.543577)
(-0.520167 0.280392 -0.54221)
(-0.518955 0.214106 -0.591305)
(-0.549258 0.222134 -0.63379)
(-0.495627 0.211898 -0.497503)
(-0.444659 0.288063 -0.443169)
(-0.595713 0.242802 -0.556061)
(-0.571278 0.24283 -0.489209)
(-0.575643 0.252395 -0.525692)
(-0.559294 0.267956 -0.519508)
(-0.55432 0.223741 -0.438745)
(-0.508946 0.268085 -0.383589)
(-0.552024 0.264294 -0.531601)
(-0.45476 0.25699 -0.495752)
(-0.60427 0.284514 -0.385127)
(-0.527599 0.315491 -0.40119)
(-0.509982 0.332072 -0.421827)
(-0.187426 -0.14604 -1.02782)
(-0.13784 -0.169977 -1.06154)
(-0.174357 -0.175636 -1.1593)
(-0.184416 -0.157367 -1.11502)
(-0.172148 -0.145619 -1.02597)
(-0.131808 -0.149156 -1.02431)
(-0.126264 -0.127077 -0.962995)
(-0.225887 -0.106788 -0.963559)
(-0.231856 -0.0579919 -0.958744)
(-0.188155 -0.0565303 -0.927958)
(-0.197273 -0.169663 -1.13264)
(-0.177728 -0.169907 -1.19195)
(-0.209608 -0.130756 -1.11486)
(-0.174735 -0.124811 -0.989409)
(-0.143669 -0.095683 -1.00871)
(-0.235123 -0.0664301 -0.961693)
(-0.264252 -0.116658 -1.03926)
(-0.145176 -0.0854404 -0.922276)
(-0.197003 -0.085251 -0.961793)
(-0.243337 -0.112655 -1.04084)
(-0.414356 0.299381 -0.470368)
(-0.399997 0.33195 -0.384335)
(-0.403986 0.23741 -0.469962)
(-0.348581 0.24821 -0.444413)
(-0.353481 0.219147 -0.497072)
(-0.319276 0.269084 -0.451722)
(-0.360667 0.318487 -0.485174)
(-0.427733 0.318633 -0.502891)
(-0.462725 0.231406 -0.624316)
(-0.470056 0.291814 -0.601766)
(-0.412986 0.201538 -0.52126)
(-0.322857 0.307351 -0.533262)
(-0.362255 0.219483 -0.577745)
(-0.457765 0.245946 -0.639455)
(-0.37624 0.287498 -0.556875)
(-0.0671778 -0.0626106 -0.750156)
(-0.0801306 -0.0857323 -0.759935)
(-0.097996 -0.0935794 -0.901252)
(-0.0856316 -0.113927 -0.875543)
(-0.0622018 -0.12216 -0.904487)
(-0.060836 -0.102034 -0.873419)
(-0.111338 -0.0595506 -0.782751)
(-0.121463 -0.0518154 -0.70504)
(-0.105264 -0.0550136 -0.699166)
(-0.0776344 -0.0634702 -0.835773)
(-0.154548 0.0404869 -0.581349)
(-0.164453 0.0513414 -0.50949)
(-0.119287 -0.0162603 -0.628021)
(-0.120691 0.00373662 -0.589843)
(-0.129563 0.00815359 -0.651316)
(-0.177211 0.0407083 -0.531346)
(-0.156257 0.0383949 -0.579112)
(-0.617402 0.281506 0.00679071)
(-0.591492 0.331793 0.11174)
(-0.54319 0.331391 0.0752873)
(-0.502701 0.356573 0.164608)
(-0.624435 0.295372 -0.203961)
(-0.594019 0.311249 -0.290071)
(-0.558608 0.369094 -0.072826)
(-0.58265 0.382292 0.0786312)
(-0.495083 0.475568 0.205205)
(-0.621598 0.298076 -0.225908)
(-0.634027 0.334897 -0.0556657)
(-0.512073 0.405509 0.135342)
(-0.517522 0.405922 0.0208823)
(-0.537254 0.407974 -0.100918)
(-0.563165 0.369565 -0.247486)
(-0.590608 0.333615 -0.294611)
(-0.0356251 -0.117745 -0.460258)
(-0.052803 -0.144293 -0.517284)
(-0.0600119 -0.146069 -0.498951)
(-0.0799814 -0.140198 -0.605857)
(-0.0512548 -0.137933 -0.52142)
(-0.0591226 -0.169221 -0.531671)
(-0.0981282 -0.174301 -0.638841)
(-0.0642446 -0.138339 -0.669196)
(-0.0610552 -0.14599 -0.709714)
(-0.0665807 -0.181284 -0.665603)
(-0.0978643 -0.20306 -0.789502)
(-0.0745816 -0.216925 -0.862869)
(-0.0966187 -0.187552 -0.704923)
(-0.0556069 -0.166825 -0.592732)
(-0.0497217 -0.16693 -0.690745)
(-0.107171 -0.103491 -0.446822)
(-0.123325 -0.107625 -0.436722)
(-0.102284 -0.102732 -0.481483)
(-0.0883537 -0.139824 -0.499377)
(-0.10495 -0.108303 -0.407517)
(-0.0669224 -0.159479 -0.628088)
(-0.0715431 -0.139108 -0.608082)
(-0.0998566 -0.133344 -0.464893)
(-0.123431 -0.205601 -0.718033)
(-0.13287 -0.194071 -0.669418)
(-0.138633 -0.231483 -0.75216)
(-0.135187 -0.203413 -0.771561)
(-0.123681 -0.209883 -0.784746)
(-0.153598 -0.201723 -0.722892)
(-0.103684 -0.22655 -0.789716)
(-0.170445 -0.198195 -0.60513)
(-0.146241 -0.197158 -0.533241)
(-0.160537 -0.187561 -0.534168)
(-0.167373 -0.179071 -0.663788)
(-0.174711 -0.193344 -0.509151)
(-0.138589 -0.196289 -0.569097)
(-0.128215 -0.222892 -0.742799)
(-0.17846 -0.22493 -0.916932)
(-0.187755 -0.237945 -0.870495)
(-0.226005 -0.210002 -0.855049)
(-0.193695 -0.220978 -0.89702)
(-0.262414 -0.18718 -0.706123)
(-0.287611 -0.159567 -0.610814)
(-0.174027 -0.234148 -0.87324)
(-0.246606 -0.182469 -0.801631)
(-0.29784 -0.146511 -0.699754)
(-0.268462 -0.131757 -0.638439)
(-0.27345 -0.124735 -0.590425)
(-0.276757 -0.144385 -0.604471)
(-0.191309 -0.193039 -0.819056)
(-0.193822 -0.213118 -0.839137)
(-0.175664 -0.23029 -0.860654)
(-0.238875 -0.136655 -0.639985)
(-0.262341 -0.13124 -0.675067)
(-0.220246 -0.17499 -0.802517)
(-0.246385 -0.154423 -0.643237)
(-0.22636 -0.197674 -0.716897)
(-0.198417 -0.193275 -0.770343)
(-0.231284 -0.154622 -0.698863)
(-0.267463 0.0823523 -0.643134)
(-0.222793 0.0928308 -0.523569)
(-0.193576 0.0512652 -0.594341)
(-0.249133 0.0547663 -0.706641)
(-0.233013 0.00172785 -0.841173)
(-0.253056 0.0254243 -0.868594)
(-0.272421 0.0372323 -0.73258)
(-0.227513 0.0732531 -0.583815)
(-0.222586 -0.00459557 -0.776086)
(-0.187401 0.0269968 -0.69144)
(-0.211829 -0.0460741 -0.845632)
(-0.209038 -0.0481545 -0.886411)
(-0.206922 0.0739413 -0.57525)
(-0.202814 -0.0121209 -0.762821)
(-0.187795 -0.00111751 -0.724765)
(-0.196863 0.0225175 -0.662927)
(-0.187163 0.0373339 -0.628824)
(-0.764096 0.419111 -0.688198)
(-0.73587 0.302743 -0.783588)
(-0.716855 0.54756 -0.275139)
(-0.66693 0.595223 -0.411583)
(-0.662842 0.353571 -0.687684)
(-0.711776 0.402857 -0.518211)
(-0.735634 0.579785 -0.254496)
(-0.678096 0.645158 -0.175549)
(-0.647012 0.585947 -0.189566)
(-0.687205 0.46801 -0.518493)
(-0.849107 0.483106 -0.252532)
(-0.664319 0.598956 -0.325983)
(-0.705914 0.526445 -0.220074)
(-0.674517 0.403148 -0.576484)
(-0.626745 0.443091 -0.491927)
(-0.73637 0.5405 -0.399827)
(-0.315174 0.0149508 -0.536735)
(-0.324854 0.00353709 -0.491898)
(-0.293202 -0.0155034 -0.593017)
(-0.320307 -0.0159116 -0.501896)
(-0.283774 -0.119555 -0.745521)
(-0.293603 -0.0733969 -0.718513)
(-0.380457 0.0418195 -0.481415)
(-0.36349 0.0241913 -0.450801)
(-0.394297 -0.0346276 -0.517365)
(-0.3922 -0.00468174 -0.440017)
(-0.338214 0.0186908 -0.575873)
(-0.324366 -0.0601457 -0.594694)
(-0.230014 -0.114515 -0.91846)
(-0.360817 -0.0165588 -0.619161)
(-0.374955 -0.0801116 -0.617598)
(-0.351099 -0.0393701 -0.546976)
(-0.288171 -0.0542994 -0.800408)
(-0.294706 -0.0971551 -0.810784)
(-0.30718 0.0587303 -1.04867)
(-0.294407 0.0851136 -0.961632)
(-0.379378 0.297474 -0.675579)
(-0.382998 0.288234 -0.582537)
(-0.435141 0.28453 -0.739545)
(-0.352739 0.128186 -0.914433)
(-0.332249 0.199526 -0.779863)
(-0.374434 0.265108 -0.838083)
(-0.263248 0.0450411 -1.00492)
(-0.231928 -0.023858 -1.0481)
(-0.289872 -0.0412827 -1.07472)
(-0.369973 0.238975 -0.788778)
(-0.400453 0.344961 -0.634067)
(-0.363845 0.270857 -0.673298)
(-0.446435 0.307914 -0.586502)
(-0.446171 0.128289 -0.954535)
(-0.447921 0.314326 -0.723881)
(-0.279987 0.0896261 -0.906745)
(-0.306107 0.0173095 -1.00966)
(-0.280991 0.0121216 -1.00879)
(-0.378174 -0.0358615 -1.00748)
(-0.416267 0.0849686 -0.902889)
(-0.316566 0.0564325 -0.913108)
(-0.362262 0.146383 -0.852487)
(-0.604393 0.55223 0.148903)
(-0.662145 0.54314 0.0362374)
(-0.702519 0.444324 -0.253179)
(-0.723189 0.451493 -0.223008)
(-0.628821 0.483784 0.101232)
(-0.608082 0.561416 0.174338)
(-0.52905 0.548718 0.30526)
(-0.729956 0.419981 -0.146108)
(-0.734109 0.386374 -0.217182)
(-0.733175 0.442954 -0.114243)
(-0.714411 0.4306 0.0224987)
(-0.601167 0.388498 0.140865)
(-0.576908 0.397941 0.167064)
(-0.583634 0.40593 0.161366)
(-0.687737 0.457662 0.159058)
(-0.588854 0.435794 0.262055)
(-0.641623 0.399074 0.245531)
(-0.585468 0.444964 0.288386)
(-0.624088 0.386931 0.127813)
(-0.182534 0.174857 -0.296188)
(-0.176196 0.175433 -0.258816)
(-0.220526 0.170707 -0.341283)
(-0.236886 0.185575 -0.2736)
(-0.218232 0.195485 -0.221581)
(-0.172786 0.157284 -0.30399)
(-0.168988 0.14171 -0.3591)
(-0.221938 0.0633584 -0.618496)
(-0.218596 0.0917126 -0.509397)
(-0.253824 0.11035 -0.562291)
(-0.265191 0.19589 -0.340507)
(-0.296185 0.134226 -0.526854)
(-0.202682 0.138475 -0.388983)
(-0.0475816 -0.206017 -0.531103)
(-0.0692149 -0.1775 -0.482114)
(-0.06866 -0.150993 -0.403271)
(-0.0622447 -0.177715 -0.430021)
(-0.0227252 -0.239969 -0.657949)
(-0.0494763 -0.23502 -0.625949)
(-0.038398 -0.183144 -0.441549)
(-0.040887 -0.14633 -0.355712)
(-0.0486333 -0.190621 -0.485465)
(-0.0487198 -0.166034 -0.428445)
(-0.058977 -0.146322 -0.387842)
(-0.0710559 -0.188705 -0.494128)
(-0.0763985 -0.170417 -0.422553)
(-0.0733738 -0.146535 -0.365003)
(-0.039588 -0.224647 -0.658578)
(-0.044053 -0.220764 -0.665274)
(-0.0681175 -0.207443 -0.553302)
(-0.036036 -0.226298 -0.615248)
(-0.0722591 -0.175211 -0.410261)
(-0.068955 -0.182933 -0.472648)
(-0.0542037 -0.200009 -0.607144)
(-0.0453005 -0.223224 -0.651985)
(-0.693323 0.182407 -0.612323)
(-0.672824 0.0932662 -0.784026)
(-0.772288 0.169313 -0.444738)
(-0.729912 0.13832 -0.627156)
(-0.608559 0.0888499 -0.820025)
(-0.62115 0.0944054 -0.81595)
(-0.761882 0.149019 -0.499479)
(-0.715027 0.0760933 -0.57185)
(-0.585009 0.189631 -0.741122)
(-0.662479 0.241852 -0.549589)
(-0.775008 0.277537 -0.50059)
(-0.757657 0.219375 -0.394419)
(-0.666238 0.130197 -0.719184)
(-0.641943 0.221013 -0.735299)
(-0.740664 0.234527 -0.465789)
(-0.0921575 -0.096466 -0.964959)
(-0.0423879 -0.104085 -0.939034)
(-0.0671133 -0.0540975 -0.8209)
(-0.0458095 -0.0696804 -0.840176)
(-0.0702019 -0.0873532 -0.910454)
(-0.108576 0.0265554 -0.681049)
(-0.0970796 0.0504708 -0.778254)
(-0.0820227 0.0260165 -0.824779)
(-0.0966292 -0.0186378 -0.789765)
(-0.12731 0.0457102 -0.684523)
(-0.103406 -0.0339078 -0.88871)
(-0.122995 0.0807382 -0.734552)
(-0.0971277 0.0343511 -0.665904)
(-0.0827672 -0.00829016 -0.760163)
(-0.0887585 0.0141534 -0.769369)
(-0.113918 0.0970514 -0.670578)
(-0.125074 0.0928745 -0.625575)
(-0.135347 0.0616987 -0.884377)
(-0.167158 0.0744584 -0.875635)
(-0.143544 0.0876087 -0.714462)
(-0.165786 0.119345 -0.717734)
(-0.181643 0.151452 -0.654012)
(-0.204221 0.170713 -0.661074)
(-0.139853 -0.0509242 -1.01998)
(-0.170834 0.154481 -0.787519)
(-0.131128 0.051645 -0.798704)
(-0.205194 0.0194359 -0.929077)
(-0.235681 0.100899 -0.842102)
(-0.207709 0.167226 -0.73573)
(-0.155568 -0.0426489 -0.974775)
(-0.1225 -0.0467824 -0.964287)
(-0.175548 0.042688 -0.848726)
(-0.188593 0.126454 -0.691293)
(-0.117298 -0.0575831 -0.969669)
(-0.111755 -0.0297986 -0.878706)
(-0.161534 0.0100993 -0.876694)
(-0.129268 -0.00344207 -0.879749)
(-0.28482 -0.150865 -1.17232)
(-0.250789 -0.113141 -1.09411)
(-0.28657 -0.0993396 -1.04307)
(-0.301487 -0.11023 -1.10248)
(-0.259236 -0.0884426 -1.0146)
(-0.222985 -0.14967 -1.09423)
(-0.276552 -0.137873 -1.09138)
(-0.250971 -0.158963 -1.16748)
(-0.259121 -0.161474 -1.144)
(-0.208314 -0.133879 -0.978692)
(-0.242834 -0.117718 -1.02464)
(-0.193642 -0.127869 -1.00567)
(-0.225404 -0.11022 -1.02041)
(-0.3223 -0.0934191 -1.04201)
(-0.218599 -0.160476 -1.10875)
(-0.229988 -0.130214 -1.02663)
(-0.607336 0.349103 -0.694462)
(-0.666388 0.382925 -0.646124)
(-0.597667 0.359653 -0.424473)
(-0.564132 0.392122 -0.550526)
(-0.572657 0.297813 -0.663423)
(-0.550435 0.289671 -0.622849)
(-0.680984 0.329992 -0.71866)
(-0.581112 0.34144 -0.860022)
(-0.674837 0.345929 -0.44416)
(-0.616761 0.311107 -0.434222)
(-0.720972 0.236244 -0.702876)
(-0.637544 0.247618 -0.763205)
(-0.682102 0.205177 -0.690243)
(-0.765061 0.243989 -0.584818)
(-0.584638 0.192417 -0.747021)
(-0.613353 0.212197 -0.696657)
(-0.595271 0.243749 -0.793695)
(-0.555503 0.230437 -0.887152)
(-0.688754 0.253351 -0.644641)
(-0.635606 0.252929 -0.715049)
(0.0783177 -0.345538 -1.2776)
(0.0573911 -0.33047 -1.26882)
(0.0582721 -0.327417 -1.25023)
(0.0725745 -0.316493 -1.20845)
(0.0681278 -0.313913 -1.18578)
(0.0706832 -0.322107 -1.22305)
(0.0793506 -0.318894 -1.21302)
(0.0717133 -0.306899 -1.21674)
(-0.334868 -0.0991134 -0.536676)
(-0.294754 -0.0792439 -0.473181)
(-0.275367 -0.0689613 -0.542718)
(-0.365216 -0.0894073 -0.781161)
(-0.345029 -0.120666 -0.576373)
(-0.266986 -0.0961227 -0.472127)
(-0.288359 -0.0529653 -0.77561)
(-0.28598 -0.0558778 -0.774926)
(-0.25399 -0.0827818 -0.44389)
(-0.327239 -0.101575 -0.56941)
(-0.318209 -0.114481 -0.711478)
(-0.250134 -0.0769619 -0.515783)
(-0.258922 -0.0842513 -0.526249)
(-0.307552 -0.1007 -0.676222)
(-0.430968 0.121519 -0.257047)
(-0.488691 0.132543 -0.26779)
(-0.398261 0.0661937 -0.244306)
(-0.422053 0.145837 -0.254561)
(-0.464932 0.10856 -0.501076)
(-0.448327 0.118821 -0.436867)
(-0.421495 0.0616153 -0.259262)
(-0.408552 0.0724433 -0.462807)
(-0.405515 0.00612995 -0.44826)
(-0.377584 -0.0161386 -0.658519)
(-0.379339 -0.0335224 -0.702667)
(-0.40814 0.0383156 -0.411195)
(-0.379054 0.0328773 -0.395237)
(-0.401586 -0.00934987 -0.521544)
(-0.432317 0.0733054 -0.576153)
(-0.407237 -0.00923908 -0.732055)
(-0.433565 -0.00550706 -0.713205)
(-0.439746 0.0249879 -0.585849)
(-0.0840611 -0.0188853 -0.414299)
(-0.0487876 -0.00314746 -0.281956)
(-0.044681 -0.000472409 -0.227686)
(-0.0262576 0.0130614 -0.14274)
(-0.0839449 -0.00805256 -0.410924)
(-0.059116 0.027382 -0.291736)
(-0.0346741 0.0312417 -0.20579)
(-0.118911 -0.00766089 -0.495018)
(-0.111684 -0.0482295 -0.514711)
(-0.0423023 0.014538 -0.230059)
(-0.109471 0.0144212 -0.423455)
(-0.0698972 0.0256704 -0.329732)
(-0.0556879 0.0557745 -0.249854)
(-0.0310483 0.0394173 -0.134458)
(-0.107658 0.00973452 -0.421041)
(-0.0351275 0.0651471 -0.181686)
(-0.0268838 0.0553163 -0.136161)
(-0.254639 -0.127668 -1.14967)
(-0.285877 -0.089467 -1.13513)
(-0.316601 -0.141486 -1.1325)
(-0.334907 -0.0605252 -1.06199)
(-0.338579 -0.0774291 -1.04317)
(-0.340567 -0.0402093 -0.970334)
(-0.284538 -0.0973481 -1.05206)
(-0.275938 -0.117246 -1.08585)
(-0.291727 -0.0672411 -0.918788)
(-0.308654 -0.024644 -0.928119)
(-0.265183 -0.0554118 -0.944318)
(-0.351095 -0.0364864 -0.883292)
(-0.327081 -0.0684325 -0.850308)
(-0.269683 -0.0981124 -1.0063)
(-0.216912 -0.105567 -1.18847)
(-0.114404 -0.232378 -1.1874)
(-0.0793362 -0.267396 -1.20105)
(-0.108176 -0.137101 -1.05731)
(-0.115963 -0.244356 -1.05489)
(-0.119346 -0.220528 -1.12739)
(-0.12219 -0.235598 -1.1663)
(-0.117774 -0.154355 -1.11078)
(-0.137836 -0.148862 -1.07834)
(-0.0629488 -0.24454 -1.1672)
(-0.0516429 -0.210003 -1.12936)
(-0.101046 -0.161642 -1.10765)
(-0.0947382 -0.203366 -1.01601)
(-0.0775049 -0.158104 -1.03529)
(-0.0903377 -0.21253 -1.09902)
(-0.0325615 -0.224124 -1.11388)
(-0.0982441 -0.178752 -1.12069)
(-0.100956 -0.199656 -1.10457)
(0.0330338 -0.255344 -0.959352)
(0.0194618 -0.238407 -0.912931)
(0.0604726 -0.298093 -1.02236)
(0.0489252 -0.290479 -1.01345)
(0.0155625 -0.224046 -0.889192)
(0.0110926 -0.214458 -0.829741)
(0.0277195 -0.234554 -0.885265)
(0.0400043 -0.267309 -0.936462)
(0.0400352 -0.232462 -0.841089)
(0.0547838 -0.272488 -0.926049)
(0.0432769 -0.267753 -0.934516)
(0.0351297 -0.223781 -0.865032)
(0.0388083 -0.293329 -1.04728)
(0.0228669 -0.262341 -0.95495)
(0.0446418 -0.235274 -0.851055)
(-0.274963 -0.156994 -1.19625)
(-0.272181 -0.168266 -1.23736)
(-0.316598 -0.142402 -1.22568)
(-0.308424 -0.158803 -1.19096)
(-0.249766 -0.191689 -1.19772)
(-0.29179 -0.134446 -1.15039)
(-0.311685 -0.122645 -1.2081)
(-0.307757 -0.131602 -1.21171)
(-0.364472 -0.0812371 -1.22848)
(-0.259518 -0.189748 -1.2612)
(-0.363973 -0.117438 -1.18012)
(-0.350465 -0.105378 -1.18055)
(-0.308147 -0.138735 -1.2721)
(0.0176149 -0.329134 -1.22244)
(0.0448214 -0.334104 -1.23426)
(0.0618081 -0.337892 -1.24895)
(0.021111 -0.319629 -1.16599)
(0.0535085 -0.341492 -1.23481)
(0.0374031 -0.343853 -1.23606)
(0.052369 -0.352657 -1.25612)
(0.0550068 -0.339588 -1.27356)
(0.061543 -0.354669 -1.29679)
(-0.499389 0.438425 0.0293364)
(-0.483632 0.465918 0.0370185)
(-0.557635 0.441542 -0.274575)
(-0.604417 0.430696 -0.200235)
(-0.566854 0.398776 -0.20752)
(-0.552497 0.352823 -0.0177715)
(-0.596388 0.326252 0.0051012)
(-0.588318 0.376682 0.0492116)
(-0.502924 0.396908 0.134278)
(-0.655925 0.327993 -0.215528)
(-0.642047 0.304736 -0.325116)
(-0.605176 0.351753 -0.302222)
(-0.609499 0.301885 -0.271723)
(-0.605654 0.402877 0.149558)
(-0.738084 0.307552 -0.396604)
(-0.670455 0.406348 -0.287665)
(-0.715898 0.38226 -0.233305)
(-0.368328 -0.0509187 -0.551855)
(-0.317531 -0.0671714 -0.376347)
(-0.334398 -0.0808816 -0.467951)
(-0.412303 -0.0592506 -0.462071)
(-0.311095 -0.100636 -0.242241)
(-0.34138 -0.0951624 -0.496923)
(-0.358265 -0.0764723 -0.605236)
(-0.348171 -0.0682692 -0.221916)
(-0.37965 -0.0809604 -0.27111)
(-0.385758 -0.0514843 -0.668884)
(-0.39354 -0.035137 -0.44585)
(-0.38176 -0.0624211 -0.570617)
(0.0159301 -0.273086 -1.09219)
(0.0193296 -0.271666 -0.999634)
(0.0323704 -0.26546 -1.06763)
(0.0369871 -0.26211 -1.06855)
(0.0152502 -0.21335 -0.951016)
(0.0186666 -0.182759 -0.836561)
(0.0172773 -0.209936 -0.852116)
(0.00964446 -0.285928 -1.05006)
(0.0291098 -0.254366 -0.917059)
(0.0343384 -0.211477 -0.890087)
(0.0134195 -0.259639 -0.943273)
(0.0224194 -0.2361 -0.908227)
(0.0293229 -0.239419 -0.945109)
(-0.56993 0.0270539 -0.894159)
(-0.605757 0.0691076 -0.928165)
(-0.654651 0.125415 -0.755765)
(-0.653537 0.0210103 -0.770773)
(-0.589631 0.166416 -0.809616)
(-0.692439 0.190474 -0.783912)
(-0.603413 0.0756404 -0.889536)
(-0.603188 0.0583361 -0.919531)
(-0.516567 0.0315957 -0.988723)
(-0.573152 0.122058 -1.00624)
(-0.669221 0.103123 -0.863041)
(-0.605706 0.0382665 -0.859414)
(-0.555391 0.102334 -0.968295)
(-0.575921 0.0594155 -0.904001)
(-0.553024 0.0759655 -0.903553)
(-0.105169 -0.0857733 -0.94276)
(-0.0873102 -0.131072 -0.967318)
(-0.0709482 -0.146818 -1.07569)
(-0.0987797 -0.122001 -1.04016)
(-0.0635131 -0.105999 -0.931656)
(-0.0627635 -0.10925 -0.967563)
(-0.0698122 -0.13376 -1.01352)
(-0.0894917 -0.0669958 -0.888857)
(-0.0874352 -0.0822035 -0.918709)
(-0.110853 -0.0771349 -1.0134)
(-0.139879 -0.0311003 -0.883532)
(-0.63089 0.0123421 -0.591112)
(-0.535803 0.0262661 -0.672715)
(-0.0781848 -0.0265114 -0.51831)
(-0.0725006 -0.00994861 -0.500219)
(-0.10637 -0.0266826 -0.611916)
(-0.112536 -0.0183165 -0.628481)
(-0.0953393 0.00331159 -0.535314)
(-0.0931298 -0.056214 -0.584351)
(-0.0731641 -0.0362626 -0.55121)
(-0.105835 -0.058789 -0.688686)
(-0.100553 -0.00836859 -0.607766)
(-0.110458 -0.0371398 -0.709283)
(-0.605974 0.364961 -0.407666)
(-0.609458 0.356107 -0.314537)
(-0.595471 0.439731 -0.414495)
(-0.569595 0.416108 -0.319349)
(-0.549095 0.440562 -0.423942)
(0.0266637 -0.334225 -1.13649)
(0.0518809 -0.316745 -1.09923)
(0.0481011 -0.328178 -1.1191)
(0.0487929 -0.329242 -1.10039)
(0.0317435 -0.310125 -1.02047)
(0.038548 -0.308374 -1.02613)
(0.0195262 -0.314723 -1.06783)
(0.0631358 -0.339502 -1.21461)
(0.0644378 -0.334167 -1.13806)
(0.0383567 -0.317744 -1.1679)
(0.0269812 -0.317351 -1.12691)
(0.0430597 -0.342467 -1.20789)
(0.0347649 -0.301173 -1.06395)
(0.0362193 -0.302287 -1.0189)
(-0.0557386 -0.162457 -0.692063)
(-0.0449963 -0.165034 -0.746931)
(-0.067879 -0.170479 -0.649757)
(-0.0665122 -0.159868 -0.617024)
(-0.0809072 -0.144409 -0.563324)
(-0.0592285 -0.183477 -0.640526)
(-0.072203 -0.1436 -0.64523)
(-0.0825778 -0.137642 -0.574594)
(-0.0104392 -0.22182 -0.858487)
(-0.0533948 -0.167467 -0.641)
(-0.0149517 -0.180158 -0.761559)
(-0.0433986 -0.163126 -0.693173)
(-0.143134 -0.121902 -0.82462)
(-0.130883 -0.110636 -0.80118)
(-0.112396 -0.14159 -0.835083)
(-0.105472 -0.141043 -0.770054)
(-0.0767503 -0.150107 -0.754087)
(-0.113897 -0.151145 -0.912528)
(-0.107008 -0.11828 -0.82794)
(-0.0776936 -0.0759488 -0.526153)
(-0.0773068 -0.0674967 -0.604627)
(-0.0784388 -0.104706 -0.655409)
(-0.0818418 -0.0942172 -0.663862)
(-0.0635519 -0.0910119 -0.484469)
(-0.102706 -0.124285 -0.808938)
(-0.0743028 -0.0784058 -0.541828)
(-0.0850474 -0.0629573 -0.601997)
(-0.0867404 -0.0998072 -0.560124)
(-0.102649 -0.130706 -0.648259)
(-0.209141 -0.216092 -1.2243)
(-0.204369 -0.181896 -1.12805)
(-0.19896 -0.200129 -1.1277)
(-0.231606 -0.174006 -1.20866)
(-0.203174 -0.145501 -1.09973)
(-0.221948 -0.168003 -1.1305)
(-0.270915 -0.184437 -1.0572)
(-0.24263 -0.167028 -1.14052)
(-0.329815 -0.139621 -1.1364)
(-0.31099 -0.174772 -1.15348)
(-0.229732 -0.161747 -1.08374)
(-0.271453 -0.162608 -1.10574)
(-0.286546 -0.129564 -1.05252)
(-0.301971 -0.111015 -1.09712)
(-0.239952 -0.142759 -1.03331)
(-0.161951 -0.0757925 -0.556502)
(-0.130435 -0.0677935 -0.444029)
(-0.203273 -0.0961227 -0.632566)
(-0.133547 -0.0806691 -0.498894)
(-0.164852 -0.117477 -0.589354)
(-0.184 -0.11973 -0.618873)
(-0.171232 -0.0876998 -0.481293)
(-0.137655 -0.0587973 -0.381044)
(-0.114562 -0.0841321 -0.431606)
(-0.198586 -0.117904 -0.636442)
(-0.199894 -0.0996079 -0.654225)
(-0.157342 -0.106798 -0.519587)
(-0.135235 -0.0802844 -0.376268)
(-0.183743 -0.104683 -0.490425)
(-0.168275 -0.0970999 -0.39215)
(-0.424798 -0.111931 -0.546044)
(-0.433514 -0.0285429 -0.613771)
(-0.351066 -0.0265478 -0.478999)
(-0.360838 -0.0666027 -0.483071)
(-0.273738 -0.0969345 -0.316418)
(-0.297443 -0.0340973 -0.365203)
(-0.445438 -0.0816598 -0.451963)
(-0.501144 -0.0356557 -0.457135)
(-0.441008 -0.0574237 -0.563782)
(-0.419353 -0.12826 -0.321595)
(-0.413631 -0.110208 -0.280564)
(-0.363193 -0.028516 -0.522098)
(-0.342474 -0.0834717 -0.394108)
(-0.272294 -0.0675943 -0.305198)
(-0.268152 -0.0859073 -0.289787)
(-0.464571 -0.0679276 -0.325072)
(-0.466704 -0.00701762 -0.507389)
(-0.340958 -0.126774 -0.27975)
(-0.362284 -0.100897 -0.17703)
(-0.371889 -0.0300134 -0.4715)
(-0.438047 -0.0569595 -0.355676)
(-0.324234 -0.111476 -0.199283)
(-0.3559 -0.0320754 -0.373973)
(-0.352992 -0.080264 -0.300015)
(-0.045387 -0.0531544 -0.575348)
(-0.0487875 -0.0582566 -0.588467)
(-0.0732631 -0.105749 -0.752894)
(-0.0681037 -0.120406 -0.780896)
(-0.0660987 -0.0554287 -0.58276)
(-0.0900396 -0.107669 -0.768922)
(-0.0401236 -0.0500195 -0.497676)
(-0.032072 -0.00282564 -0.396603)
(-0.070614 -0.0176995 -0.50788)
(-0.0513417 0.0154174 -0.399594)
(-0.0553591 -0.107205 -0.730338)
(-0.0886228 -0.0868095 -0.692591)
(-0.0576864 -0.0982137 -0.716906)
(-0.0449359 -0.0194794 -0.456947)
(-0.046086 -0.0575959 -0.52155)
(-0.0708954 0.000946808 -0.478075)
(-0.0876333 -0.0148987 -0.566975)