/*--------------------------------*- C++ -*----------------------------------*\
| =========                 |                                                 |
| \\      /  F ield         | OpenFOAM: The Open Source CFD Toolbox           |
|  \\    /   O peration     | Version:  v1612+                                |
|   \\  /    A nd           | Web:      www.OpenFOAM.com                      |
|    \\/     M anipulation  |                                                 |
\*---------------------------------------------------------------------------*/
FoamFile
{
    version     2.0;
    format      ascii;
    class       volVectorField;
    location    "118";
    object      U;
}
// * * * * * * * * * * * * * * * * * * * * * * * * * * * * * * * * * * * * * //

dimensions      [0 1 -1 0 0 0 0];

internalField   nonuniform List<vector> 
21194
(
(-0.232873 0.867236 0.509272)
(-0.163109 0.678912 0.644084)
(-0.232426 0.865976 0.328679)
(0.171949 0.747902 0.157715)
(-0.0801943 0.801269 -0.211215)
(-0.116366 0.811135 -0.151481)
(-0.119067 0.786045 -0.168977)
(-0.252491 0.784691 0.50029)
(-0.0658409 0.900304 -0.0178594)
(-0.0689568 0.926893 -0.1545)
(-0.350083 0.618442 0.68632)
(-0.0522027 0.956667 0.143268)
(0.110072 0.5127 -0.0530719)
(-0.27727 0.655876 0.732267)
(-0.364541 0.626004 0.725217)
(-0.283741 0.796953 0.644454)
(-0.263559 0.715626 0.663144)
(-0.257032 0.634626 0.720074)
(-0.199361 0.776873 0.530828)
(-0.172043 0.736996 0.566271)
(-0.0410443 0.353755 0.14881)
(-0.287991 0.858049 0.114649)
(-0.188219 0.789697 0.510518)
(-0.187619 0.742231 0.472253)
(-0.200744 0.88988 0.334651)
(-0.0806046 0.861538 -0.0966041)
(-0.14017 0.655752 -0.0602817)
(-0.143702 0.627162 -0.0588017)
(0.0149435 0.768014 -0.216196)
(0.0513694 0.777545 -0.2483)
(0.0594686 0.736512 -0.230877)
(0.0208329 0.744279 -0.247951)
(0.003045 0.763549 -0.245175)
(0.0132756 0.775468 -0.229381)
(-0.12808 0.806163 -0.0899808)
(0.0289472 0.918037 0.119525)
(-0.110508 0.514062 0.599862)
(-0.314023 0.596236 0.74748)
(-0.354964 0.648921 0.762286)
(-0.217276 0.892848 0.381411)
(0.0790053 0.783254 -0.021973)
(-0.0182418 0.395807 0.0743349)
(-0.0755225 0.344894 0.0689876)
(-0.246452 0.42516 0.201583)
(-0.00241315 0.849964 0.276832)
(-0.0244564 0.945825 0.205914)
(0.00814974 0.919102 0.186126)
(-0.337683 0.670607 0.342341)
(0.0317318 0.907262 0.347598)
(-0.0956318 0.787032 0.415444)
(-0.194761 0.793888 0.409129)
(-0.142681 0.968647 0.23244)
(-0.203441 0.725602 0.559582)
(-0.316215 0.793334 0.151071)
(-0.0747834 0.835283 -0.248061)
(-0.161798 0.826332 0.062583)
(-0.132878 0.278018 0.171124)
(-0.145196 0.835892 0.571938)
(-0.21174 0.888927 0.484952)
(-0.0213017 0.947314 -0.143225)
(0.13404 0.807289 -0.117067)
(-0.101245 0.948793 0.339888)
(0.0396535 0.95456 0.259477)
(-0.146305 0.949393 0.000482695)
(0.0617161 0.826238 -0.214282)
(-0.20458 0.905017 0.319312)
(0.0298554 0.795873 -0.00332087)
(-0.0115367 0.802548 -0.00528483)
(-0.0844783 0.870654 0.162683)
(0.0701811 0.530909 0.184395)
(-0.310745 0.627886 0.665245)
(-0.272773 0.639863 0.689324)
(-0.311267 0.298234 0.351978)
(-0.227098 0.700465 0.694608)
(-0.206195 0.946293 0.162156)
(-0.274464 0.816022 0.100765)
(-0.148993 0.776295 0.0999382)
(-0.407468 0.390715 0.491159)
(-0.415588 0.381782 0.540571)
(-0.288626 0.642245 0.775954)
(-0.310485 0.594789 0.776312)
(-0.113081 0.923007 0.153629)
(-0.0273861 0.41532 0.397903)
(-0.271093 0.652394 0.694027)
(-0.247955 0.672422 0.677407)
(-0.202239 0.887389 0.455722)
(0.0533648 0.730329 -0.287113)
(-0.135572 0.900368 0.484274)
(-0.172149 0.845987 0.140092)
(-0.185568 0.836933 0.161534)
(-0.152591 0.816464 0.0897324)
(-0.146158 0.799157 0.12213)
(-0.149202 0.817881 0.0806787)
(-0.105786 0.801732 0.51953)
(-0.115155 0.812059 0.511191)
(-0.121755 0.912295 0.424525)
(-0.278503 0.771265 0.602761)
(-0.24829 0.792585 0.594298)
(-0.122815 0.520793 0.675192)
(0.133389 0.854699 0.161642)
(-0.0719639 0.954593 0.0813611)
(0.00074897 0.916166 0.252504)
(-0.0532312 0.950865 0.154263)
(-0.101548 0.796814 -0.111699)
(0.0124179 0.74491 -0.174187)
(-0.0462781 0.392828 0.087976)
(-0.299993 0.663288 0.643772)
(-0.389795 0.648602 0.505192)
(-0.284702 0.846424 0.0112354)
(-0.210681 0.925342 0.12052)
(-0.351332 0.688063 0.715466)
(-0.336268 0.687198 0.678828)
(-0.205476 0.95425 0.119636)
(-0.351302 0.734216 0.184559)
(-0.126811 0.80895 0.369322)
(-0.113415 0.181603 0.178135)
(0.0761407 0.917367 0.244091)
(0.00301243 0.390423 0.0573908)
(-0.0573952 0.353198 0.0414592)
(-0.0932232 0.894877 0.37356)
(-0.25468 0.848873 0.39363)
(-0.0511622 0.833972 0.0616306)
(-0.0988796 0.820401 0.118729)
(-0.204024 0.766538 0.49073)
(-0.175527 0.810755 0.441289)
(-0.115134 0.269751 0.160079)
(-0.297457 0.623985 0.773267)
(-0.40314 0.54681 0.565325)
(-0.286225 0.884949 0.349332)
(-0.259419 0.78463 0.438139)
(-0.168242 0.765636 0.498047)
(-0.0105295 0.644747 0.547234)
(-0.0288717 0.702393 0.480934)
(-0.166124 0.816859 0.0145174)
(-0.402267 0.437653 0.511558)
(-0.126945 0.830138 0.247381)
(-0.0988125 0.80288 0.247428)
(-0.325304 0.539492 0.806202)
(-0.369314 0.534158 0.749362)
(-0.259711 0.550403 0.762208)
(-0.280662 0.547764 0.79887)
(-0.0359417 0.826639 0.118895)
(-0.139562 0.920727 0.0385845)
(-0.216265 0.443086 0.109978)
(-0.17041 0.729414 0.67771)
(-0.199714 0.826574 0.0652414)
(-0.114704 0.818579 0.137837)
(-0.123461 0.754554 0.550071)
(-0.194145 0.305102 0.187967)
(-0.119207 0.901637 -0.0377536)
(-0.260032 0.831039 0.369894)
(-0.302789 0.682596 0.715877)
(-0.118299 0.799558 -0.00291361)
(-0.0509948 0.792561 -0.153813)
(-0.0749397 0.748009 -0.148794)
(-0.110992 0.768621 -0.1079)
(-0.31615 0.520522 0.783783)
(0.0438234 0.504558 0.298378)
(-0.143751 0.761245 0.551886)
(-0.162445 0.784229 0.467187)
(-0.329859 0.539641 0.821216)
(-0.140447 0.359226 0.161771)
(0.121527 0.759303 -0.0849917)
(-0.317433 0.751422 0.621885)
(-0.158986 0.54006 -0.0361114)
(-0.259337 0.403141 0.215339)
(-0.214951 0.435648 0.176087)
(0.020961 0.458961 0.315858)
(-0.0809806 0.285332 0.1896)
(-0.164183 0.732131 0.638827)
(-0.270477 0.764821 0.686712)
(-0.301119 0.786949 0.577399)
(-0.256922 0.880739 0.311088)
(-0.19205 0.875406 0.233298)
(-0.193393 0.693052 -0.208273)
(-0.254424 0.653725 -0.121311)
(-0.0423459 0.334385 0.193361)
(-0.081044 0.228048 0.139712)
(-0.186242 0.807991 0.404036)
(-0.194737 0.86764 0.250078)
(-0.230808 0.876861 0.41835)
(-0.317371 0.687667 0.648198)
(-0.337881 0.656711 0.688508)
(-0.0955946 0.816135 0.256291)
(-0.0425301 0.777104 0.00833541)
(0.0423336 0.861645 0.198994)
(0.0298867 0.836463 0.189273)
(0.0279504 0.850897 0.188043)
(0.0579238 0.9014 0.0621819)
(-0.123433 0.878155 -0.0948175)
(-0.071299 0.27085 0.228782)
(-0.289234 0.693392 0.0373238)
(0.0761126 0.859582 -0.00946937)
(0.0872448 0.852016 0.0159924)
(-0.0952158 0.763448 0.472164)
(-0.212155 0.720069 0.668194)
(-0.327448 0.566164 0.75987)
(-0.149641 0.777113 0.601299)
(-0.168924 0.787231 0.56588)
(-0.162588 0.801356 0.609459)
(-0.267132 0.735584 0.574946)
(-0.141403 0.572037 0.659854)
(-0.0323367 0.592013 0.465098)
(-0.15043 0.658937 0.704536)
(-0.183801 0.765312 0.473848)
(-0.188287 0.814941 0.413576)
(-0.177588 0.798136 0.465368)
(-0.27485 0.811848 0.0234884)
(-0.287076 0.823391 0.0350495)
(-0.326102 0.744683 0.516347)
(-0.38931 0.546479 0.426135)
(0.00903341 0.741592 -0.229989)
(-0.187077 0.936084 0.176036)
(0.052906 0.82362 0.17299)
(0.00597383 0.957445 0.0872611)
(-0.20556 0.678746 0.71705)
(-0.292982 0.544357 0.813719)
(-0.382453 0.583414 0.443608)
(-0.347422 0.44665 0.31449)
(-0.373103 0.64329 0.576822)
(-0.0127102 0.666859 -0.247865)
(-0.111755 0.841061 -0.0762188)
(-0.12885 0.823465 -0.0725523)
(-0.115494 0.824713 -0.0146317)
(-0.0758447 0.503599 0.590614)
(-0.149684 0.959077 0.328069)
(-0.0143329 0.911331 0.381495)
(0.0402166 0.902734 0.353339)
(-0.233146 0.684631 -0.215592)
(-0.301401 0.791792 -0.0239454)
(-0.249465 0.861554 -0.156478)
(-0.187717 0.78428 0.317392)
(-0.224049 0.801139 0.41958)
(-0.216787 0.736345 0.621547)
(-0.227736 0.674101 0.612761)
(-0.100522 0.832998 0.0320722)
(-0.0509167 0.820618 0.420862)
(-0.389564 0.474797 0.46576)
(-0.42022 0.442811 0.578001)
(-0.394083 0.321171 0.42236)
(-0.367004 0.326354 0.41229)
(-0.153162 0.381325 0.0945894)
(0.020312 0.418359 0.15053)
(-0.0616373 0.304118 0.0812611)
(-0.270615 0.73792 0.556825)
(-0.104564 0.783739 -0.225754)
(-0.0568438 0.815309 -0.249827)
(-0.105932 0.77711 0.512582)
(-0.0435234 0.804307 0.00247313)
(-0.208871 0.664909 0.715854)
(-0.171362 0.88307 0.466021)
(-0.0643079 0.887359 0.340979)
(-0.0314931 0.924138 0.251719)
(0.00198801 0.857223 0.286307)
(-0.0371944 0.896058 0.312241)
(-0.0390641 0.819393 0.0315732)
(0.0970449 0.861521 0.0398875)
(0.0161206 0.747801 -0.26106)
(-0.0843788 0.787148 -0.212914)
(-0.108021 0.762083 -0.185276)
(-0.10555 0.344218 0.116937)
(-0.10326 0.804822 0.424332)
(-0.423775 0.387954 0.562584)
(-0.203554 0.916698 0.260571)
(-0.267844 0.879039 0.347938)
(-0.0659806 0.283525 0.122456)
(-0.139668 0.41793 0.107321)
(-0.118009 0.372511 0.064258)
(-0.357722 0.578493 0.683822)
(-0.135127 0.846331 0.401864)
(0.0300472 0.90781 0.106881)
(-0.350435 0.626174 0.714799)
(0.0252386 0.933742 -0.0358907)
(0.0554543 0.941133 0.0902112)
(-0.142947 0.77454 0.00398558)
(-0.112533 0.936933 0.0790232)
(-0.167563 0.96668 0.0195519)
(-0.121019 0.972312 -0.0483788)
(-0.145666 0.974626 -0.026497)
(-0.106169 0.920977 0.189492)
(-0.176253 0.866366 0.263357)
(-0.211621 0.789621 0.323779)
(-0.0871469 0.80297 0.450945)
(-0.263705 0.826647 0.484723)
(0.0351225 0.770278 -0.276278)
(0.0358597 0.795687 -0.00388758)
(-0.3383 0.663692 0.726754)
(-0.236154 0.782718 0.522948)
(0.185964 0.653999 -0.0633013)
(-0.0838391 0.855532 0.37209)
(-0.053587 0.797362 0.346329)
(-0.213678 0.826999 0.385742)
(-0.221701 0.779153 0.584253)
(-0.302945 0.702859 0.720934)
(-0.313199 0.739646 0.686671)
(-0.14621 0.816536 0.183027)
(-0.177017 0.777406 0.196768)
(-0.152328 0.849949 0.188673)
(-0.345342 0.681655 0.599905)
(-0.222844 0.848727 0.331472)
(-0.238268 0.841883 0.316086)
(-0.191908 0.76188 0.649052)
(-0.416548 0.432033 0.476525)
(-0.256371 0.751545 0.522423)
(-0.27551 0.749609 0.705987)
(-0.28171 0.754828 0.588193)
(-0.181645 0.737132 0.650297)
(-0.177351 0.672553 0.675927)
(-0.150098 0.75816 -0.134528)
(-0.0583689 0.293683 0.170488)
(0.0659489 0.514967 0.333089)
(-0.0264697 0.512734 0.388449)
(-0.0411738 0.306498 0.248334)
(-0.0387632 0.242799 0.178949)
(-0.0415591 0.312155 0.229442)
(-0.185852 0.83406 0.0496765)
(-0.361583 0.629014 0.761465)
(-0.313402 0.607434 0.751645)
(-0.0508209 0.430891 -0.0995613)
(0.039864 0.747703 -0.207009)
(0.00911292 0.753667 -0.159282)
(-0.0380551 0.763417 -0.231553)
(-0.156195 0.817888 0.403229)
(-0.125549 0.815676 0.0179546)
(-0.145509 0.600932 -0.188562)
(-0.110284 0.191799 0.198922)
(-0.135067 0.199407 0.196182)
(0.0869881 0.786188 -0.131186)
(-0.299678 0.762972 0.618696)
(-0.325638 0.706572 0.655798)
(-0.297822 0.75321 0.622005)
(-0.22464 0.618677 0.734891)
(-0.235229 0.669686 0.712073)
(0.00536861 0.449232 -0.00309549)
(0.0802166 0.491781 0.00636906)
(0.0662785 0.463676 0.00120334)
(-0.262904 0.820182 0.458107)
(-0.0681747 0.423269 0.0141281)
(-0.039144 0.359877 0.012492)
(-0.0729658 0.411518 -0.0781268)
(-0.242168 0.671272 -0.0237006)
(-0.00868463 0.365937 0.0184166)
(-0.0830539 0.460712 -0.0799749)
(-0.101276 0.845757 0.237173)
(-0.0849067 0.806317 0.196148)
(0.0787648 0.4898 -0.0661332)
(-0.182462 0.715726 0.592203)
(0.0631844 0.864183 -0.0539089)
(0.0777282 0.781134 -0.0980801)
(0.0959473 0.774259 -0.0641735)
(0.110718 0.810274 -0.0582041)
(0.0921428 0.820979 -0.034593)
(0.0945806 0.862357 -0.00174117)
(0.0841258 0.816129 0.0510566)
(0.0965936 0.85156 -0.0117123)
(-0.290345 0.377869 0.272936)
(-0.195909 0.731752 0.450174)
(-0.177863 0.783372 0.075043)
(0.0401177 0.430076 -0.012111)
(-0.0927693 0.779025 -0.0232545)
(-0.0767628 0.787849 0.447693)
(-0.165261 0.783665 0.217554)
(-0.285843 0.653172 0.753336)
(-0.173989 0.800718 0.291433)
(-0.129591 0.829852 0.273335)
(-0.235056 0.535783 0.76923)
(-0.148911 0.792341 0.294134)
(-0.151586 0.811952 0.306465)
(-0.238071 0.696761 0.729062)
(-0.222557 0.805946 0.442296)
(-0.15964 0.968364 0.0650972)
(-0.0342086 0.734199 0.447873)
(-0.0416769 0.699935 0.577466)
(-0.0414346 0.813419 0.199573)
(0.0915463 0.813404 0.0266515)
(-0.219811 0.641769 0.71916)
(-0.0957628 0.864507 0.193529)
(-0.16699 0.772823 0.00540831)
(-0.0724132 0.34832 0.0419522)
(-0.0172964 0.883338 0.291219)
(-0.199703 0.734113 0.668462)
(-0.224225 0.879059 0.320448)
(0.00924152 0.756483 -0.249927)
(0.0341713 0.720597 0.498592)
(-0.406447 0.522087 0.600806)
(-0.169103 0.559389 -0.148405)
(-0.0369722 0.812803 0.0254838)
(-0.333409 0.607675 0.676185)
(-0.3079 0.694966 0.139937)
(-0.324657 0.65946 0.150092)
(0.0544814 0.451431 -0.0394769)
(0.0335919 0.416668 -0.0840434)
(-0.281762 0.694539 0.63742)
(-0.29023 0.753767 0.627712)
(-0.302423 0.647807 0.602701)
(-0.269944 0.746381 0.61618)
(-0.281128 0.671185 0.610184)
(-0.269283 0.699195 0.608723)
(-0.263952 0.707611 0.615627)
(-0.200828 0.644497 0.714784)
(-0.198645 0.609335 0.699873)
(-0.114804 0.303087 0.106291)
(0.0870732 0.802104 -0.196242)
(-0.0259601 0.384454 0.29576)
(0.114434 0.785824 -0.0816367)
(0.0103614 0.43028 0.304786)
(-0.223279 0.701154 0.72047)
(-0.278901 0.684614 0.654361)
(-0.048322 0.278154 0.132141)
(-0.00233509 0.795267 -0.134657)
(-0.290231 0.556002 0.797911)
(-0.248026 0.844414 0.465518)
(-0.208762 0.872267 0.443923)
(-8.41946e-07 0.765661 -0.00192402)
(-0.334757 0.511913 0.799596)
(-0.313842 0.514095 0.217536)
(-0.304208 0.742071 0.612795)
(-0.256361 0.718874 0.56095)
(-0.0304361 0.904187 0.416778)
(0.0602257 0.852435 0.380313)
(-0.19369 0.701924 0.678844)
(-0.103401 0.212912 0.206946)
(0.191432 0.853529 0.0144584)
(-0.2253 0.608636 0.751213)
(-0.226916 0.569898 0.760937)
(-0.308557 0.737309 0.638178)
(-0.324545 0.698637 0.682832)
(-0.213236 0.786494 0.418265)
(-0.242984 0.738544 0.412913)
(-0.240606 0.689961 0.629077)
(-0.228675 0.650645 0.644854)
(-0.250073 0.688401 0.645126)
(-0.221553 0.380177 0.26339)
(-0.290491 0.777034 0.524886)
(0.0923347 0.743366 -0.200602)
(-0.24034 0.780028 0.451412)
(-0.214231 0.762158 0.428823)
(-0.260123 0.520738 0.768267)
(-0.104541 0.784246 0.302544)
(-0.286345 0.65059 0.658648)
(-0.303492 0.633654 0.694902)
(-0.207555 0.74614 0.502862)
(-0.18982 0.885192 0.142334)
(-0.210626 0.880204 0.214731)
(-0.211105 0.831127 0.224516)
(-0.0908859 0.221308 0.204524)
(-0.0738742 0.236929 0.236724)
(-0.0710232 0.85916 0.399904)
(-0.0429489 0.813333 0.389343)
(-0.0704213 0.815776 0.443553)
(-0.0604869 0.815918 0.424833)
(-0.068424 0.804858 0.406455)
(-0.10253 0.845825 0.316294)
(-0.096569 0.795863 0.379521)
(-0.081054 0.782611 0.344714)
(-0.22238 0.823469 0.362809)
(-0.237562 0.808535 0.389606)
(-0.143368 0.778824 0.526217)
(-0.219424 0.810385 0.367068)
(-0.230939 0.868615 0.304373)
(0.118131 0.741225 -0.0913857)
(-0.0698375 0.264398 0.17419)
(-0.0422971 0.841535 0.231787)
(-0.308044 0.507255 0.76722)
(0.0339218 0.848265 0.151398)
(-0.154528 0.770546 0.345661)
(-0.176993 0.789276 0.370283)
(-0.160075 0.845851 0.00773663)
(-0.16208 0.858762 -0.0290243)
(-0.174073 0.844284 -0.0504879)
(-0.183645 0.858183 0.0329148)
(-0.168171 0.830258 0.132982)
(-0.14797 0.858168 0.04164)
(-0.225047 0.824097 0.404068)
(-0.226 0.848344 0.389974)
(-0.117222 0.759355 0.521778)
(-0.0917353 0.770546 0.521516)
(-0.322873 0.714581 0.651674)
(-0.0202644 0.418422 0.471381)
(-0.31792 0.719783 0.698362)
(-0.105074 0.797955 -0.111619)
(-0.292248 0.775964 0.510569)
(-0.215284 0.878742 0.309834)
(-0.2388 0.811329 0.328815)
(-0.213548 0.6296 0.702092)
(-0.290903 0.830332 0.442551)
(0.0888394 0.533185 0.395288)
(-0.0566288 0.379956 0.537702)
(-0.230452 0.89952 -0.0394586)
(-0.364271 0.48819 0.384931)
(-0.357595 0.661886 0.725237)
(-0.352823 0.665059 0.727243)
(-0.334044 0.632965 0.683066)
(-0.369418 0.599984 0.739801)
(-0.336006 0.683545 0.728065)
(-0.360531 0.68209 0.75472)
(-0.347663 0.661826 0.742225)
(-0.337434 0.679213 0.739597)
(-0.053547 0.734826 -0.151234)
(0.101177 0.66863 0.181765)
(-0.0611472 0.403224 0.0333454)
(-0.181672 0.77441 0.101277)
(-0.154495 0.853055 0.0727042)
(-0.184569 0.656535 0.672936)
(-0.215616 0.687042 0.712639)
(-0.206344 0.893863 0.48466)
(-0.152742 0.47074 0.706785)
(9.27106e-05 0.68783 0.576156)
(-0.145882 0.900094 0.262273)
(-0.179195 0.875112 0.365716)
(-0.239425 0.666956 0.672618)
(-0.109556 0.803779 -0.203778)
(-0.0910023 0.794931 -0.168836)
(-0.357087 0.63254 0.558451)
(-0.265095 0.778023 0.651524)
(-0.249933 0.69323 0.721362)
(-0.382492 0.451956 0.694302)
(-0.149936 0.812725 -0.0682567)
(-0.126522 0.887392 0.0866068)
(-0.130292 0.847023 -0.0355417)
(-0.160536 0.794228 -0.0220769)
(-0.131497 0.819138 -0.227871)
(-0.230006 0.651832 0.720721)
(-0.0202491 0.789697 0.325871)
(-0.231267 0.81667 0.313163)
(-0.245536 0.851182 0.299264)
(-0.214245 0.840793 0.226114)
(-0.319715 0.683374 0.697781)
(-0.261477 0.735099 0.710985)
(-0.053811 0.307683 0.34293)
(-0.0800468 0.428781 0.444264)
(-0.0586204 0.44143 0.495048)
(-0.291633 0.414939 0.290624)
(-0.412724 0.478826 0.457528)
(-0.321477 0.661714 0.67296)
(-0.333919 0.691873 0.677678)
(-0.262235 0.749498 0.602608)
(-0.244904 0.732684 0.49852)
(-0.259424 0.717342 0.543216)
(-0.167033 0.293256 0.179487)
(-0.170097 0.256173 0.164378)
(-0.07886 0.677367 -0.182729)
(-0.231098 0.764769 0.636565)
(-0.246429 0.842825 0.424088)
(-0.292274 0.838348 0.00799653)
(-0.0422199 0.849891 0.191632)
(-0.139853 0.810916 -0.183866)
(-0.00521304 0.880828 0.126291)
(-0.125449 0.854292 -0.00107655)
(-0.356671 0.638734 0.747746)
(-0.107611 0.241638 0.184587)
(-0.215174 0.517908 0.740644)
(-0.0861771 0.792059 0.49707)
(-0.098282 0.809417 -0.042982)
(-0.262712 0.784567 0.440162)
(-0.14164 0.336176 0.164482)
(-0.288975 0.318514 0.313711)
(-0.120831 0.834773 0.135752)
(-0.0607532 0.239838 0.146931)
(-0.0436487 0.317225 0.195378)
(0.0109671 0.338004 0.151393)
(-0.212316 0.281692 0.232026)
(-0.333995 0.36346 0.281067)
(-0.123059 0.796695 -0.0879075)
(-0.304197 0.748648 0.601021)
(-0.284808 0.789397 0.56723)
(-0.106678 0.7823 0.0473595)
(-0.260038 0.656921 0.709701)
(-0.218723 0.640502 0.668055)
(-0.238511 0.700482 0.629931)
(-0.225116 0.711526 0.610546)
(-0.378033 0.655319 0.463473)
(0.027081 0.808793 0.0980105)
(0.0156856 0.810896 0.0719762)
(-0.0199955 0.402443 0.170617)
(0.0154834 0.411714 0.202517)
(0.0472645 0.437915 0.27253)
(-0.0751553 0.948946 0.132391)
(-0.200889 0.6781 0.693686)
(-0.196704 0.634464 0.66314)
(-0.0476134 0.837162 0.329273)
(-0.0361208 0.762609 0.376997)
(-0.0221452 0.787032 0.336043)
(-0.123487 0.842327 0.265829)
(-0.107749 0.787629 -0.138398)
(-0.109585 0.784581 -0.10522)
(-0.126883 0.757001 -0.0648124)
(-0.0740905 0.812565 0.0140915)
(-0.306422 0.616828 0.663298)
(-0.311959 0.706078 0.695472)
(-0.265692 0.719163 0.567072)
(-0.255682 0.773362 0.566023)
(-0.208634 0.784336 0.627189)
(-0.166988 0.844448 0.57285)
(-0.341169 0.659804 0.725806)
(-0.0441822 0.817631 0.36027)
(-0.0452361 0.850897 0.336335)
(-0.264023 0.768492 0.61259)
(-0.31716 0.706542 0.573116)
(-0.031334 0.904679 -0.207411)
(0.0181953 0.949995 0.00431588)
(-0.145478 0.769271 0.0588774)
(-0.135144 0.760277 0.403724)
(-0.0381489 0.834851 0.356068)
(-0.237257 0.490714 0.35767)
(-0.121681 0.869435 0.401444)
(-0.147801 0.571007 0.389232)
(-0.315399 0.755417 0.641305)
(-0.0740269 0.499099 0.141037)
(0.0900407 0.849273 -0.337801)
(-0.0324804 0.966616 -0.116875)
(-0.139079 0.80409 0.56081)
(-0.205199 0.809224 0.503881)
(-0.257427 0.667019 0.718896)
(-0.255106 0.737647 0.642081)
(-0.282563 0.691059 0.708442)
(-0.0649629 0.728506 0.139614)
(-0.24066 0.818817 0.377166)
(0.159609 0.846651 0.122218)
(-0.138745 0.921905 0.143628)
(-0.351475 0.635217 0.7327)
(-0.00233477 0.692763 -0.225656)
(-0.149845 0.778655 0.317277)
(-0.222299 0.763977 0.36001)
(-0.113874 0.164539 0.164861)
(-0.168783 0.824016 0.380104)
(-0.207571 0.816148 0.446491)
(-0.247794 0.754841 0.518193)
(-0.248473 0.776332 0.561705)
(-0.264188 0.825416 0.522816)
(-0.208506 0.880593 0.38562)
(-0.0068766 0.882756 -0.38604)
(0.0643658 0.862958 -0.31716)
(-0.179056 0.83445 0.0455738)
(-0.105426 0.829567 -0.205127)
(-0.0533864 0.868379 -0.122089)
(-0.155255 0.851417 -0.0347071)
(-0.0527537 0.810846 -0.223542)
(-0.0556956 0.924008 0.225445)
(0.0115642 0.839698 0.147465)
(-0.151128 0.88251 0.352449)
(-1.97614e-05 0.919319 -0.0174965)
(-0.00255265 0.782447 0.351194)
(0.0297968 0.88057 0.21005)
(0.000566322 0.906628 0.0410274)
(-0.0790571 0.810402 0.28057)
(-0.0340459 0.911236 -0.16182)
(-0.0354198 0.861716 0.06361)
(-0.139316 0.876197 0.201174)
(-0.0731505 0.890491 0.246474)
(0.0133426 0.925832 -0.0167609)
(-0.0373003 0.813433 0.161737)
(-0.075391 0.85976 0.0880162)
(-0.0574011 0.91103 0.0943108)
(-0.0510228 0.854703 0.0495496)
(-0.0599951 0.76499 0.470792)
(-0.165708 0.267804 0.138364)
(-0.0760197 0.195911 0.167472)
(-0.0641855 0.429702 0.394656)
(-0.127562 0.447529 0.347722)
(-0.138952 0.284361 0.250393)
(-0.0705721 0.649883 0.163991)
(-0.0887346 0.438153 0.148182)
(-0.230455 0.722774 0.292985)
(-0.115289 0.737774 0.0737996)
(-0.192599 0.562483 0.106996)
(-0.305272 0.75495 0.50812)
(-0.282469 0.7631 0.529851)
(-0.254972 0.772413 0.674373)
(-0.122622 0.650054 0.227759)
(-0.126157 0.799417 0.402629)
(-0.248503 0.831197 0.47077)
(-0.242203 0.862329 0.488873)
(-0.117604 0.625627 0.238632)
(-0.0434066 0.433753 0.43198)
(-0.154807 0.414045 0.278554)
(-0.0927718 0.620432 0.37502)
(-0.0728234 0.330329 0.282689)
(-0.0991206 0.478572 0.285518)
(-0.0710811 0.773324 0.562971)
(-0.310583 0.719362 0.697373)
(-0.215072 0.76574 0.506132)
(-0.167054 0.692474 0.702258)
(-0.0946231 0.697985 0.480738)
(-0.160009 0.564458 0.359984)
(-0.111203 0.598406 0.238444)
(-0.183499 0.479295 0.203352)
(-0.0866764 0.560719 0.201816)
(-0.105721 0.659544 0.298579)
(-0.097073 0.666248 0.225463)
(-0.0780793 0.467302 0.241929)
(-0.120236 0.767637 0.521942)
(-0.0417423 0.936816 0.0414077)
(0.0623037 0.958272 -0.18507)
(0.0503425 0.834133 -0.204289)
(0.0450222 0.905177 0.0249891)
(0.037332 0.882054 -0.0748787)
(0.052354 0.778807 -0.163145)
(0.0910271 0.790065 -0.00362481)
(0.111951 0.861362 -0.103591)
(-0.185645 0.68106 0.692394)
(-0.263912 0.83499 0.52941)
(-0.168069 0.828466 0.562694)
(-0.197813 0.858018 0.493869)
(-0.265041 0.637966 0.666303)
(-0.240589 0.750311 0.590863)
(-0.208296 0.765922 0.55842)
(-0.238906 0.772394 0.593003)
(-0.197352 0.721628 0.50845)
(-0.249974 0.703952 0.689395)
(-0.231345 0.712323 0.674283)
(-0.147308 0.600997 0.399441)
(-0.264366 0.697685 0.738736)
(-0.15641 0.816597 0.533191)
(-0.231748 0.692353 0.72435)
(-0.127736 0.712155 0.364664)
(-0.234401 0.771142 0.624882)
(-0.186617 0.759132 0.631217)
(-0.203126 0.682951 0.739939)
(-0.230273 0.689668 0.717351)
(-0.212797 0.797069 0.531377)
(-0.240346 0.739806 0.643077)
(-0.188575 0.687533 0.585325)
(-0.213268 0.758475 0.563319)
(-0.285663 0.736215 0.660744)
(-0.0391174 0.910383 -0.175729)
(-0.134144 0.863714 -0.0495671)
(-0.0864582 0.922562 0.0118106)
(-0.00077528 0.638415 -0.114354)
(-0.0435708 0.580728 0.0468461)
(-0.197567 0.917675 0.379332)
(-0.0399801 0.710009 0.0238361)
(-0.109173 0.712405 -0.0760583)
(-0.0860586 0.686732 0.00305776)
(-0.0258846 0.889864 0.0944835)
(-0.105711 0.879209 0.481783)
(-0.158168 0.876135 0.258027)
(-0.225696 0.89234 0.332992)
(-0.234345 0.882836 0.454982)
(-0.268729 0.829449 0.479725)
(-0.139941 0.884243 0.153794)
(0.0368461 0.704483 -0.200879)
(-0.067369 0.932107 0.274439)
(0.0702055 0.885641 0.276485)
(-0.0664942 0.852758 -0.0132818)
(-0.178276 0.884934 0.463539)
(-0.074168 0.689837 0.0804494)
(-0.11917 0.827565 0.215121)
(-0.0367633 0.833525 -0.0687007)
(-0.119668 0.895736 0.120537)
(-0.0481299 0.665244 0.0504809)
(-0.0675628 0.798298 0.0951121)
(-0.085676 0.888034 -0.0187797)
(-0.287635 0.708006 0.627006)
(-0.305308 0.716046 0.618769)
(-0.265876 0.638586 0.539713)
(-0.342005 0.632416 0.735764)
(-0.367005 0.627324 0.753142)
(-0.30254 0.658989 0.728784)
(-0.026294 0.496053 -0.0575463)
(-0.229489 0.938322 0.158609)
(-0.108252 0.647319 -0.214511)
(-0.262825 0.610182 0.0596123)
(-0.137692 0.55167 -0.00797812)
(-0.222416 0.84352 -0.0640934)
(0.139164 0.798418 0.254213)
(0.0755437 0.933012 0.0912178)
(0.0455419 0.530304 -0.0707229)
(0.0784958 0.545878 -0.32628)
(-0.0583587 0.542056 -0.201254)
(-0.0356711 0.563881 -0.337259)
(-0.210098 0.842249 0.26458)
(-0.19313 0.781302 0.267117)
(-0.220236 0.668477 0.530913)
(-0.255955 0.785034 0.535329)
(-0.207937 0.679854 0.509714)
(-0.239242 0.771805 0.531956)
(-0.258585 0.754941 0.601066)
(-0.269379 0.773296 0.615582)
(-0.222713 0.734214 0.500759)
(-0.411809 0.493364 0.674685)
(-0.374244 0.511317 0.764799)
(0.0317861 0.868256 -0.348331)
(0.0221365 0.885655 -0.217685)
(0.0517423 0.842135 -0.323993)
(0.0244915 0.893397 -0.228909)
(-0.0132301 0.896031 -0.291884)
(-0.0188023 0.912007 -0.234708)
(0.0219713 0.883146 -0.240793)
(0.0164534 0.950159 -0.0992502)
(0.0122512 0.822702 -0.0854818)
(0.0590412 0.856027 -0.187905)
(0.0237792 0.866483 -0.108387)
(0.0307649 0.944576 -0.0271459)
(0.034329 0.955195 -0.0254825)
(0.0363595 0.852287 -0.169751)
(-0.0187765 0.836598 0.197035)
(-0.0197403 0.760071 0.134238)
(-0.14566 0.886595 0.0391753)
(-0.133835 0.845882 0.109368)
(-0.138292 0.799603 0.0471925)
(-0.0405998 0.844993 0.133716)
(-0.0100531 0.851212 0.131016)
(0.0105153 0.792459 0.124181)
(-0.172104 0.789611 0.398996)
(-0.118168 0.749456 0.335974)
(-0.160181 0.840592 0.384811)
(-0.138741 0.81346 0.402123)
(-0.114309 0.808805 0.35812)
(-0.0900946 0.902113 0.392688)
(-0.106403 0.887644 0.299471)
(-0.0692008 0.853816 0.41061)
(-0.0493398 0.806827 0.414209)
(-0.0833606 0.828958 0.447208)
(-0.0640089 0.25511 0.165662)
(-0.0526298 0.316155 0.182191)
(-0.0562077 0.270685 0.132805)
(-0.169606 0.234864 0.208581)
(-0.288754 0.414209 0.344283)
(-0.26552 0.433663 0.330087)
(0.0435398 0.447218 0.233778)
(0.0588191 0.519664 0.337079)
(0.00649609 0.585642 0.443872)
(-0.0223566 0.703835 0.519218)
(-0.424106 0.458493 0.503955)
(-0.333183 0.672425 0.456557)
(-0.39216 0.392264 0.456324)
(-0.381231 0.580249 0.435579)
(-0.384722 0.498705 0.380438)
(-0.413816 0.512716 0.485144)
(-0.0511058 0.637402 0.121081)
(-0.0148871 0.695436 0.287633)
(0.0282845 0.670376 0.174106)
(-0.00240609 0.733191 0.328858)
(-0.0876371 0.77632 0.229703)
(-0.0975972 0.798834 0.266737)
(0.0200218 0.681633 0.267318)
(-0.147873 0.480635 0.375576)
(-0.171849 0.599467 0.351912)
(-0.184022 0.520173 0.42387)
(-0.193792 0.599272 0.366561)
(-0.134766 0.495415 0.351562)
(-0.124398 0.528031 0.346063)
(-0.18169 0.562628 0.362773)
(-0.246416 0.667078 0.505175)
(-0.194228 0.642792 0.377655)
(-0.244415 0.624233 0.466061)
(-0.227327 0.666106 0.423995)
(-0.269579 0.720388 0.582169)
(-0.255829 0.727361 0.575229)
(-0.222923 0.655975 0.424944)
(-0.0604762 0.366648 0.175561)
(-0.0333381 0.628295 0.254972)
(-0.0295829 0.364966 0.142244)
(-0.0244258 0.622964 0.219257)
(-0.0706965 0.462059 0.173562)
(-0.0651243 0.477957 0.174041)
(-0.00150472 0.550523 0.203609)
(0.0478046 0.844183 -0.378653)
(0.0688547 0.819986 -0.352117)
(0.114697 0.84422 -0.424906)
(0.0851582 0.85033 -0.395133)
(0.0985813 0.83978 -0.399055)
(0.108423 0.839068 -0.442656)
(0.00579644 0.958381 -0.0975604)
(0.062734 0.968615 -0.0265446)
(0.0629428 0.883256 -0.200623)
(0.074478 0.970808 -0.150304)
(-0.0155994 0.996192 -0.111184)
(-0.040119 0.986581 -0.0367575)
(0.0662152 0.964883 -0.163742)
(0.0479926 0.815661 0.0722821)
(0.0448882 0.848476 0.0249271)
(0.0548412 0.80103 -0.0185373)
(0.120742 0.727475 -0.115883)
(-0.0887727 0.891202 0.36708)
(-0.100488 0.820652 0.346424)
(-0.113901 0.878529 0.352921)
(-0.115559 0.844725 0.382171)
(-0.131555 0.865381 0.483147)
(-0.12869 0.857766 0.527374)
(-0.128605 0.85233 0.376778)
(-0.191952 0.503543 0.454957)
(-0.154566 0.478252 0.395563)
(-0.193793 0.487285 0.465336)
(-0.163998 0.496235 0.415325)
(-0.17877 0.810753 0.445022)
(-0.168241 0.83427 0.445469)
(-0.191115 0.804557 0.501237)
(-0.201673 0.801252 0.482076)
(-0.203697 0.792801 0.495169)
(-0.176624 0.815674 0.474225)
(-0.267842 0.71046 0.68041)
(-0.240308 0.679968 0.584845)
(-0.260328 0.683541 0.647273)
(-0.256997 0.664103 0.600147)
(-0.274453 0.691592 0.690967)
(-0.280524 0.69565 0.683818)
(-0.258578 0.653058 0.604366)
(-0.174591 0.728476 0.649181)
(-0.20854 0.623272 0.721528)
(-0.205764 0.649 0.716415)
(-0.217375 0.629624 0.735066)
(-0.235387 0.609022 0.762458)
(-0.222892 0.68601 0.529828)
(-0.246601 0.698085 0.580539)
(-0.230712 0.663032 0.553296)
(-0.251032 0.667177 0.571348)
(-0.239572 0.725986 0.593343)
(-0.248897 0.738678 0.612733)
(-0.241233 0.652555 0.56277)
(-0.25858 0.606552 0.611989)
(-0.295059 0.690218 0.722909)
(-0.28707 0.670258 0.685023)
(-0.273833 0.709847 0.682039)
(-0.269907 0.69927 0.664034)
(-0.310648 0.636864 0.707394)
(-0.308476 0.646022 0.703468)
(-0.29337 0.699313 0.712665)
(-0.139744 0.541161 -0.207775)
(-0.0918085 0.89402 0.0799739)
(-0.0889919 0.896582 0.298159)
(-0.0783228 0.832135 0.148962)
(-0.113145 0.87133 0.291244)
(-0.0852536 0.788846 0.162948)
(-0.0556834 0.826108 0.174307)
(-0.0425517 0.793164 0.129468)
(-0.0878886 0.808992 0.164583)
(-0.205977 0.880435 0.223174)
(-0.205597 0.917078 0.236691)
(-0.238811 0.820671 0.349432)
(-0.227056 0.889548 0.282435)
(-0.242728 0.8661 0.321084)
(-0.218693 0.888954 0.25984)
(0.0659933 0.647984 -0.0188426)
(-0.00558196 0.909952 0.193632)
(0.0921844 0.621934 0.0954589)
(0.0334028 0.855944 0.269982)
(0.0785402 0.814792 0.0694292)
(0.0711682 0.835628 0.127277)
(0.0613399 0.836002 0.201731)
(-0.0504671 0.920033 0.265891)
(0.011632 0.865877 0.3414)
(0.0696802 0.843326 0.345723)
(-0.00285576 0.767327 0.550117)
(0.0473232 0.820175 0.338155)
(-0.160037 0.91851 0.082704)
(-0.191264 0.92397 0.221359)
(-0.192876 0.918194 0.202073)
(-0.131364 0.92894 0.0495316)
(-0.131111 0.917577 0.101177)
(-0.196371 0.904696 0.198264)
(-0.315167 0.751808 0.631594)
(-0.363459 0.59162 0.761127)
(-0.279482 0.661479 0.609832)
(-0.318019 0.706038 0.662726)
(-0.304519 0.735962 0.680565)
(-0.346224 0.695112 0.715009)
(-0.354635 0.670586 0.701475)
(-0.336523 0.702297 0.718223)
(-0.00243832 0.932015 -0.181801)