/*--------------------------------*- C++ -*----------------------------------*\
| =========                 |                                                 |
| \\      /  F ield         | OpenFOAM: The Open Source CFD Toolbox           |
|  \\    /   O peration     | Version:  v1612+                                |
|   \\  /    A nd           | Web:      www.OpenFOAM.com                      |
|    \\/     M anipulation  |                                                 |
\*---------------------------------------------------------------------------*/
FoamFile
{
    version     2.0;
    format      ascii;
    class       volVectorField;
    location    "166";
    object      wallShearStress;
}
// * * * * * * * * * * * * * * * * * * * * * * * * * * * * * * * * * * * * * //

dimensions      [0 2 -2 0 0 0 0];

internalField   uniform (0 0 0);

boundaryField
{
    WALL
    {
        type            calculated;
        value           nonuniform List<vector> 
1501
(
(-0.00500585 -0.0158043 0.0115586)
(-0.00646265 -0.0146207 0.0125543)
(0.00253832 -0.00628302 0.0117462)
(0.00306093 -0.00602188 0.0122228)
(-0.00321842 -0.00772387 0.00870283)
(-0.000675813 -0.00726766 0.0106272)
(-0.00567412 -0.0072778 0.00773975)
(-0.00503492 -0.00741793 0.00770301)
(-0.00467925 -0.00867937 0.00502548)
(-0.00356216 -0.00977989 0.00520074)
(-0.00548122 -0.0103552 0.0152993)
(-0.00587189 -0.0100599 0.0173223)
(-0.00662552 -0.004875 0.010179)
(-0.00661671 -0.00568511 0.00944403)
(-0.0102164 -0.0033578 0.00929463)
(-0.00882031 -0.00376405 0.00928711)
(0.00186863 -0.00852671 0.0118965)
(0.00163199 -0.0091041 0.0122971)
(-0.000296209 -0.0106382 0.00670743)
(2.93882e-05 -0.0104714 0.00657446)
(-0.0116058 0.00238888 0.0202508)
(-0.0120346 0.00631835 0.0216661)
(0.00249077 -0.00619017 0.00999255)
(0.00242106 -0.00701195 0.0103638)
(-0.000898511 -0.00751878 0.00745738)
(-0.00298808 -0.00744935 0.00564018)
(-0.00966516 0.00286106 0.0228782)
(-0.00899508 0.00659352 0.0249838)
(0.00340037 -0.013285 0.0112846)
(0.00274829 -0.0143459 0.0105974)
(0.00219763 -0.0139293 0.0146224)
(0.00416443 -0.0122044 0.0161543)
(-0.0128194 0.0129449 0.0220317)
(-0.0128485 0.0159922 0.0229494)
(-0.0140752 0.00369705 0.0138264)
(-0.013551 0.00220935 0.0124547)
(-0.0109904 0.000640489 0.0115584)
(-0.011766 0.00263375 0.0127302)
(-0.0138457 0.000280503 0.0103268)
(-0.0127444 0.00104387 0.010673)
(-0.00865853 -0.00936168 0.0165751)
(-0.00861274 -0.0125348 0.0164309)
(-0.00748905 -0.0132213 0.0144142)
(-0.00646825 -0.0150559 0.0135342)
(-0.0138656 -0.00257456 0.00918052)
(-0.0148962 0.000370525 0.0103499)
(-0.0135681 -0.00117035 0.00957215)
(-0.0148426 0.00131641 0.0120436)
(-0.0158958 0.0172118 0.0226162)
(-0.0153433 0.0147826 0.0208597)
(-0.00244456 0.0162694 0.0244144)
(-0.00528566 0.0167123 0.0250726)
(-0.0113141 -0.0032391 0.0184357)
(-0.0105223 -0.00650299 0.0175771)
(-0.00307885 0.00891727 0.0262283)
(-0.00271036 0.00785786 0.0260989)
(0.0034469 -0.00566891 0.014029)
(0.00489937 -0.00309876 0.0149213)
(-0.000949565 -0.00789772 0.0077662)
(0.000968957 -0.00738421 0.00987535)
(-0.00778692 -0.00199132 0.0120861)
(-0.00763692 -0.000882773 0.0138592)
(-0.0024285 -0.0151651 0.012721)
(-0.00911101 -0.00436559 0.0155129)
(-0.00919962 -0.00245641 0.0144576)
(-0.00830921 -0.0115451 0.0153167)
(-0.00738371 -0.0128957 0.0139104)
(-0.0141845 0.00544243 0.0151515)
(-0.0144519 0.00778687 0.0158981)
(-0.0163223 0.0081515 0.016204)
(-0.0157675 0.00604985 0.0148955)
(0.000587412 -0.00605738 0.0143595)
(0.00205475 -0.00781466 0.0159358)
(-0.00778265 -0.0053268 0.00782606)
(-0.00716825 -0.00632568 0.00845654)
(-0.00758016 -0.00491289 0.00926796)
(-0.00614678 -0.00492779 0.0106117)
(-0.00684008 -0.00536219 0.00953454)
(-0.00677137 -0.00451658 0.0100524)
(-0.00743411 -0.00453203 0.00992456)
(-0.00854363 -0.002072 0.0224978)
(-0.00686107 -0.0025544 0.0215925)
(-0.00534568 -0.0002375 0.0224435)
(-0.00575937 -0.00285178 0.0233855)
(-0.0074248 -0.00103541 0.023848)
(-0.00868133 -0.00397757 0.0218162)
(-0.0171308 0.00295496 0.0123364)
(-0.017487 0.00437346 0.0131658)
(-0.0175714 0.00483745 0.0135803)
(-0.016714 0.000809017 0.0118555)
(-0.0176355 0.00325783 0.0110557)
(-0.0162018 0.00131763 0.0109919)
(-0.000572838 -0.0111196 0.00605411)
(-0.00150664 -0.0114621 0.005511)
(-0.00137982 -0.010696 0.00551605)
(-0.00101643 -0.0115539 0.0059904)
(-0.00223695 -0.0111207 0.00533572)
(-0.00207416 -0.0107307 0.00521382)
(0.000877797 -0.0117722 0.0112083)
(0.000947385 -0.0119683 0.01094)
(0.000838516 -0.0113749 0.00941153)
(-0.00901365 -0.0057071 0.0134508)
(-0.0112615 -0.0055029 0.0148477)
(-0.00926407 -0.00522889 0.0142784)
(-0.0118919 0.00371032 0.018358)
(-0.0116156 0.00549798 0.0187561)
(0.00302629 -0.00550834 0.0165913)
(0.00221863 -0.00549207 0.0180742)
(0.00135218 -0.00480108 0.0153123)
(0.00271679 -0.0069555 0.0162847)
(0.00131826 -0.00410712 0.016171)
(-0.00588112 -0.0159221 0.0131411)
(-0.00490131 -0.0170615 0.0118313)
(-0.0058707 -0.0144939 0.0127886)
(-0.00544868 -0.0161645 0.0121154)
(-0.00479626 -0.0171236 0.0117745)
(-0.00527612 -0.0159112 0.0116271)
(-0.00570573 -0.0155122 0.0124526)
(-0.00616947 -0.0156151 0.0126699)
(0.000893727 -0.0117585 0.0142187)
(-0.00154037 -0.0139532 0.013931)
(0.00144422 -0.0133838 0.014844)
(0.000192203 -0.0136779 0.0135721)
(-0.000678389 -0.0119491 0.0142852)
(-0.0014635 -0.0120644 0.0133076)
(0.00381368 -0.00459033 0.0171199)
(0.00293735 -0.0057809 0.0159636)
(0.00298235 -0.00334531 0.0156027)
(0.00216014 -0.00559285 0.0147418)
(0.00141776 -0.00436679 0.0133272)
(0.00226667 -0.00352022 0.0142932)
(-0.00336413 -0.00451035 0.0122736)
(-0.0034569 -0.00376114 0.0124553)
(-0.00216885 -0.0038661 0.0128264)
(-0.00259038 -0.00511109 0.0123514)
(-0.00258027 -0.00459716 0.0132809)
(-0.0060427 -0.00768846 0.00647438)
(-0.00564132 -0.00828285 0.00620829)
(-0.00615725 -0.00761938 0.0067944)
(-0.0055496 -0.00857523 0.00604957)
(-0.0058732 -0.0080491 0.00596834)
(-0.00586248 -0.00788212 0.00677604)
(0.00191533 0.00336514 0.0244263)
(-0.000491883 0.00521711 0.0244334)
(0.00127241 0.00340169 0.0226264)
(-2.79258e-05 0.00476047 0.0245996)
(0.0020315 0.00245281 0.0240753)
(0.000210755 0.00440998 0.023882)
(0.00297546 -0.00575654 0.0132673)
(0.00472057 -0.00313023 0.0158561)
(0.00244617 -0.00561041 0.0120199)
(0.00441886 -0.00368456 0.0146366)
(0.00424046 -0.00377761 0.0156131)
(0.00390588 -0.00458438 0.0138031)
(-0.00579773 -0.0162262 0.0134835)
(-0.00535699 -0.0140039 0.012892)
(-0.00271723 -0.00754352 0.010388)
(-0.00491077 -0.0070973 0.0097668)
(-0.00675804 -0.00717273 0.00883944)
(-0.00267433 -0.00761513 0.0105189)
(-0.00741094 -0.00690474 0.00899392)
(-0.0049616 -0.00794638 0.00954273)
(0.00760147 0.00260427 0.0234143)
(0.00612369 -0.00167344 0.022542)
(0.00723111 0.000883806 0.0241865)
(0.00606717 -0.0012398 0.021043)
(0.00714762 0.000568624 0.0208765)
(0.00730701 0.00202743 0.0229613)
(0.00206415 -0.00450035 0.0144661)
(0.00594477 -0.00158078 0.0187702)
(0.00394505 -0.00392873 0.0158074)
(0.00527437 -0.00196089 0.0178689)
(0.00434016 -0.00298463 0.0175141)
(0.00184395 -0.00528261 0.0161434)
(0.00374349 0.0142439 0.028381)
(0.00300505 0.0151332 0.0275741)
(0.00759741 0.0115538 0.0278154)
(0.00888372 0.00740174 0.0259503)
(0.00900902 0.00972358 0.0266817)
(0.00643932 0.00841655 0.02365)
(0.00589605 0.0110971 0.0263195)
(0.00431829 0.00750819 0.0242836)
(0.00725842 0.00988947 0.0246987)
(0.00509885 0.0123672 0.0276422)
(0.00864509 0.00417016 0.0207179)
(0.00754407 0.00132898 0.0212015)
(0.00868125 0.00637262 0.02446)
(0.00830365 0.0041681 0.0231776)
(0.00759455 0.00159084 0.0208591)
(0.00826228 0.00569977 0.022367)
(0.0042115 -0.00403432 0.0148846)
(0.0047054 -0.00286137 0.0159496)
(0.00383535 -0.00461505 0.0136373)
(0.00411997 -0.0026381 0.016112)
(0.00474943 -0.00162195 0.0162314)
(0.00402624 -0.0046971 0.0143419)
(0.0030667 -0.00536551 0.0130173)
(0.00206677 -0.00690613 0.0115694)
(-7.00554e-05 -0.00764965 0.00981322)
(0.000167496 -0.00722688 0.0109202)
(0.00162308 -0.00653942 0.0112734)
(0.00147443 -0.00664598 0.0106444)
(-0.00149602 -0.00763447 0.00902612)
(-0.00122682 -0.00792661 0.00952618)
(-0.00300414 -0.00816068 0.00957197)
(0.00099302 -0.00686589 0.0112644)
(-0.00366788 0.00581702 0.0247528)
(-0.00238937 0.00255415 0.0251838)
(-0.00597311 0.00234836 0.0243004)
(-0.00516524 0.00609193 0.0260039)
(-0.00178344 0.0023476 0.0249551)
(-0.00615616 0.00177618 0.025524)
(-0.00420932 0.00280706 0.0240349)
(0.00466505 -0.00127548 0.0187768)
(0.00380395 0.000666924 0.0213977)
(0.00451572 -0.00147753 0.0185061)
(0.00374551 0.00126827 0.0203253)
(0.00456857 0.00046701 0.0202186)
(0.00454314 0.000289395 0.0188894)
(-0.00489064 -0.00736426 0.008037)
(-0.00452568 -0.0069139 0.00832541)
(-0.00564935 -0.00741342 0.00689276)
(-0.0054162 -0.00679557 0.00782432)
(-0.00349917 -0.0060592 0.00968345)
(-0.00331585 -0.00650456 0.00959362)
(-0.00411735 -0.00589416 0.00976203)
(-0.00467585 -0.00622264 0.0094426)
(-0.00374914 -0.00601698 0.00886512)
(-0.00435922 -0.00660725 0.00913914)
(-0.00493395 -0.00836729 0.00502518)
(-0.00504939 -0.00819742 0.00487333)
(-0.00659922 -0.00745794 0.00521624)
(-0.00556495 -0.00834575 0.00514734)
(-0.00595762 -0.00789796 0.00517206)
(-0.0064276 -0.00747258 0.00524737)
(-0.00494598 -0.00886596 0.00509296)
(-0.00398006 -0.00935561 0.00546923)
(-0.00392193 -0.00942346 0.00501873)
(-0.00316679 -0.00937441 0.00521228)
(-0.00202392 -0.00987378 0.00593605)
(-0.00222725 -0.00973579 0.00584401)
(-0.0032566 -0.009515 0.00552694)
(-0.00412591 -0.00934442 0.005328)
(-0.000912314 -0.0101226 0.00616535)
(-0.00120896 -0.0100915 0.00617901)
(-0.000654025 -0.010292 0.00698402)
(-7.86583e-06 -0.0100378 0.00710892)
(-0.00168828 -0.0102003 0.00613973)
(0.000226028 -0.0100793 0.00754318)
(-0.00701887 -0.00711108 0.00575559)
(-0.00596484 -0.00828912 0.00552336)
(-0.006722 -0.00734174 0.00574614)
(-0.00633033 -0.00782415 0.00519048)
(-0.00668718 -0.00743075 0.00553823)
(-0.00904945 -0.00517178 0.00574622)
(-0.00860919 -0.00549501 0.00595184)
(-0.0084459 -0.00619405 0.00567308)
(-0.00721428 -0.00641351 0.00482316)
(-0.00691132 -0.00667031 0.00498152)
(-0.0078301 -0.00672392 0.00554265)
(-0.0095815 -0.00374276 0.00776925)
(-0.00962116 -0.00455757 0.00808887)
(-0.010581 -0.00237726 0.00969483)
(-0.0110263 -0.00311311 0.00794158)
(-0.0104861 -0.00258241 0.0100503)
(-0.0107353 -0.00224165 0.00868761)
(-0.0100203 -0.00431367 0.00755303)
(-0.00946219 -0.00385407 0.0071694)
(-0.00798228 -0.00657739 0.00657955)
(-0.00767949 -0.00655175 0.00594367)
(-0.00931475 -0.00515253 0.00737151)
(-0.00820111 -0.00557622 0.00701626)
(-0.00865632 -0.0059307 0.00700751)
(-0.0079462 -0.00625143 0.0058429)
(-0.0102102 -0.00475857 0.00585505)
(-0.0111529 -0.00395107 0.00648231)
(-0.0114367 -0.00373724 0.00746919)
(-0.00957459 -0.00411868 0.00535379)
(-0.0105392 -0.00312742 0.00676896)
(-0.0100068 -0.00428258 0.00616918)
(0.00253985 -0.00792043 0.0154089)
(0.00159651 -0.00795075 0.0149249)
(0.00186881 -0.00967537 0.0144277)
(0.00251073 -0.00928559 0.0158382)
(0.000720644 -0.00995593 0.0144824)
(0.000329725 -0.00859795 0.0138506)
(0.00214432 0.0123775 0.0232506)
(0.00417567 0.00839541 0.0212808)
(0.00308029 0.0101777 0.0218829)
(0.0029228 -0.00105884 0.01515)
(0.00254537 -0.00144938 0.0142198)
(0.00414355 0.000551898 0.0169169)
(-0.00632319 -0.00348178 0.0121177)
(-0.00420422 -0.00346497 0.0107715)
(-0.00511064 -0.00400528 0.0115964)
(-0.0210349 0.00813408 0.0175756)
(-0.0206125 0.00518174 0.0168995)
(-0.00778184 -0.00537533 0.0162762)
(-0.00523511 -0.00621303 0.0204523)
(-0.00980317 -0.00527821 0.0176215)
(-0.00689358 -0.0137853 0.0134671)
(-0.0078557 -0.0123244 0.0145227)
(-0.00774476 -0.0139059 0.0147474)
(-0.00651581 -0.0143168 0.0131096)
(-0.00747792 -0.0122559 0.0146841)
(-0.00672272 -0.0134801 0.0129958)
(-0.010015 -0.00043825 0.015501)
(-0.0103053 -0.00189534 0.0149684)
(-0.00740782 -0.00345128 0.0130983)
(-0.00902767 -0.00124695 0.0141644)
(-0.0102534 -0.00126933 0.016144)
(-0.0110354 0.000240524 0.0166682)
(-0.0104798 -0.00556912 0.0178976)
(-0.00963937 -0.00360929 0.0197598)
(-0.0101084 -0.0072128 0.0182703)
(-0.0102468 -0.00491336 0.0190643)
(-0.00989408 -0.00715773 0.0191644)
(-0.00994007 -0.00532181 0.0203707)
(-0.00820094 -0.00889552 0.014387)
(-0.00724507 -0.00784209 0.0139558)
(-0.00942964 -0.00803436 0.0158352)
(-0.00884177 -0.00637943 0.0145457)
(-0.00721143 -0.00935413 0.0142865)
(-0.00951451 -0.00652784 0.015618)
(-0.0064737 -0.0139382 0.0133202)
(-0.00722892 -0.0135294 0.0144488)
(-0.00778207 -0.0118862 0.0138867)
(-0.00568678 -0.0140643 0.0130074)
(-0.00599023 -0.01307 0.0127094)
(-0.00554471 -0.0113098 0.0135721)
(-0.00510407 -0.0132451 0.0132351)
(-0.00667487 -0.0110168 0.0136875)
(-0.00365034 -0.0133159 0.0132778)
(-0.0042366 -0.0118815 0.0132017)
(-0.00647373 -0.012447 0.0139614)
(0.00349131 0.0100686 0.0259435)
(0.00144206 0.0105706 0.0245981)
(0.00180388 0.0107623 0.0261105)
(-0.00285036 0.0128855 0.022319)
(0.000473924 0.00831483 0.0225645)
(0.000863692 0.0089523 0.0218694)
(-0.00070341 0.0115713 0.0253346)
(-0.00190209 0.0137717 0.0230698)
(-0.00173636 0.00878296 0.0236075)
(-0.00445501 0.0168221 0.0249604)
(-0.00579414 0.0199196 0.0241425)
(-0.00884904 0.0175394 0.0238457)
(-0.00702323 0.0173736 0.0231473)
(-0.00368452 0.0145093 0.0256875)
(-0.00807117 0.0200165 0.0254758)
(-0.0133167 0.0201508 0.0225015)
(-0.0152454 0.0203735 0.0226461)
(-0.0108276 0.0197179 0.0219028)
(-0.0135296 0.0224317 0.0247878)
(-0.0163291 0.0192447 0.0217291)
(-0.0152356 0.0208172 0.0233853)
(-0.0197055 0.0111847 0.0184944)
(-0.0197716 0.0139115 0.0186453)
(-0.0187355 0.0123099 0.0171729)
(-0.0181944 0.0142365 0.0189603)
(-0.0186111 0.015409 0.0198006)
(-0.00998682 0.0153497 0.0229619)
(-0.00766459 0.0146619 0.0230205)
(-0.00662331 0.0133431 0.0228038)
(-0.00610192 0.013687 0.0234978)
(-0.00869876 0.0127968 0.0227408)
(0.00517675 -0.0068049 0.0186734)
(0.00547238 -0.00726015 0.0188636)
(0.00539008 -0.00801857 0.0188671)
(0.00497603 -0.00583421 0.0199704)
(0.00502108 -0.0053173 0.0197879)
(0.00513713 -0.0067571 0.0205881)
(-0.00679857 -0.00654642 0.00477471)
(-0.00580182 -0.0071226 0.00481194)
(-0.0047968 -0.00773578 0.00517746)
(-0.00503096 -0.00701925 0.00512104)
(-0.0041747 -0.00748687 0.00520885)
(-0.0065357 -0.00632248 0.00457179)
(-0.0048654 -0.00738992 0.00469273)
(-0.00515943 -0.0077238 0.0048511)
(-0.00301378 -0.00869351 0.0057022)
(-0.00403648 -0.00884233 0.00539309)
(-0.00378103 -0.0080136 0.00524862)
(-0.00233808 -0.00856074 0.0057371)
(-0.0124612 -0.0035624 0.00853446)
(-0.0141737 -0.00182833 0.0102657)
(-0.0140759 -0.00269306 0.00928272)
(-0.0143134 -0.0015892 0.0102807)
(-0.0128112 -0.00396702 0.00882607)
(-0.0134073 -0.00259984 0.0090152)
(-0.0101113 -0.00542924 0.00631949)
(-0.00867935 -0.00610879 0.00580916)
(-0.00841534 -0.00622451 0.00627511)
(-0.0096112 -0.00549492 0.00620997)
(-0.006912 -0.00712009 0.00606123)
(-0.00654155 -0.00676074 0.00562827)
(-0.00776806 -0.00587844 0.00492314)
(-0.00991521 -0.00549559 0.00688088)
(-0.0125596 -0.00347012 0.00791853)
(-0.012429 -0.00375041 0.00811296)
(-0.00962438 -0.00557802 0.00688971)
(-0.0109605 -0.00461245 0.00763717)
(-0.0110426 -0.0050938 0.00758428)
(0.00298373 -0.0107586 0.0137265)
(0.00289999 -0.0103243 0.0123055)
(0.00275619 -0.0101804 0.0128016)
(0.00228256 -0.00948624 0.0129)
(0.00257627 -0.00916656 0.0132779)
(0.00317103 -0.0102756 0.0122864)
(0.000828659 -0.00635624 0.0125295)
(0.00153166 -0.00819103 0.0128427)
(0.0015044 -0.00831416 0.0144261)
(0.0021752 -0.00795193 0.0138886)
(0.000884181 -0.00841797 0.0129514)
(0.00314287 -0.0128465 0.0113421)
(0.0034782 -0.0118798 0.0118575)
(0.00341511 -0.0146654 0.0117407)
(0.00285407 -0.0136546 0.0110357)
(0.0030798 -0.0120396 0.0116989)
(0.00365217 -0.0139418 0.0127825)
(-0.00668496 -0.0117882 0.0148543)
(-0.00685586 -0.011741 0.016831)
(-0.00731094 -0.0121043 0.0163629)
(-0.00664868 -0.0127901 0.0165673)
(-0.00725837 -0.0129059 0.0154684)
(-0.00725328 -0.0140354 0.0156585)
(-0.00547624 -0.0111442 0.0172209)
(-0.00670907 -0.0111407 0.0179619)
(-0.00346838 -0.0138546 0.0145122)
(-0.00439818 -0.0134968 0.0147009)
(-0.00400147 -0.0138462 0.0141698)
(-0.00451946 -0.0140206 0.0139418)
(-0.00372372 -0.0123388 0.0146801)
(-0.00438677 -0.0132031 0.0135759)
(-0.00647214 -0.00690512 0.0177033)
(-0.00617036 -0.00786797 0.0189119)
(-0.00544497 -0.0062199 0.0192351)
(-0.00638554 -0.00723743 0.0195208)
(-0.00521703 -0.00754051 0.0188884)
(-0.00650155 -0.00787635 0.0182266)
(-0.00737303 -0.0109621 0.0161812)
(-0.00777989 -0.011812 0.0158888)
(-0.00798109 -0.0087835 0.0170531)
(-0.0087559 -0.0109881 0.017929)
(-0.00701684 -0.01009 0.0165149)
(-0.00351636 -0.00159031 0.0156831)
(-0.00210082 -0.00273202 0.0148429)
(-0.00125365 -0.00127217 0.0161979)
(-0.00305997 -0.00184502 0.0147922)
(-0.00221774 -0.00177742 0.0161053)
(-0.0013371 -0.00299212 0.0158723)
(-0.00535593 -0.000159749 0.016154)
(-0.00419645 0.000648125 0.0163128)
(-0.0070354 0.00180462 0.0155738)
(-0.00591336 0.00251871 0.0162883)
(-0.00481606 0.00142123 0.0178029)
(-0.00654186 0.000576174 0.0155301)
(-0.0117571 -0.00343023 0.00743553)
(-0.0123392 -0.0036197 0.00781073)
(-0.0132695 -0.00127942 0.00932737)
(-0.0125818 -0.00211453 0.0079946)
(-0.0131765 -0.00246412 0.00868941)
(-0.00880436 0.000382815 0.0127703)
(-0.00907546 0.00148205 0.0145496)
(-0.0078596 0.000551731 0.0136299)
(-0.0103902 0.00172458 0.0137575)
(-0.00976629 0.000735625 0.012036)
(-0.0126736 0.00582122 0.0156122)
(-0.0125738 0.00678692 0.0172269)
(-0.0134819 0.00632031 0.0156061)
(-0.0147228 0.00392508 0.0138798)
(-0.0133812 0.0041219 0.015289)
(-0.00840339 0.00814353 0.0191268)
(-0.00972443 0.00717475 0.0172541)
(-0.008073 0.00765141 0.0195071)
(-0.0111846 0.00731767 0.0188562)
(-0.0105547 0.00881967 0.0197418)
(-0.0092209 0.00714707 0.0188101)
(-0.0111369 0.0132548 0.0197953)
(-0.0141888 0.012103 0.0193988)
(-0.0147386 0.0109466 0.0186696)
(-0.0158311 0.011924 0.0185215)
(-0.0128109 0.0116615 0.0190254)
(-0.0169139 0.00472991 0.0136324)
(-0.0165338 0.00663863 0.0142422)
(-0.0161406 0.00538739 0.0153316)
(-0.0159733 0.0045882 0.0134169)
(-0.0158527 0.00931126 0.0182555)
(-0.0164569 0.00754741 0.0160129)
(0.00162355 -0.0135202 0.0131)
(0.00266653 -0.012919 0.0147878)
(0.00311938 -0.0136274 0.0138102)
(0.00362401 -0.0139025 0.0153304)
(0.00335673 -0.0127109 0.0147213)
(0.00160567 -0.0157645 0.0144052)
(0.0032486 -0.0144635 0.0128551)
(0.00272689 -0.0158836 0.0120361)
(0.00374284 -0.0134991 0.0128317)
(0.00304769 -0.0144774 0.0116086)
(0.003085 -0.0143676 0.0125401)
(0.00252122 -0.0154527 0.0122073)
(0.00213552 -0.015341 0.0122125)
(0.000731042 -0.0157422 0.0123222)
(0.00101147 -0.0145518 0.0123504)
(0.00245403 -0.0154854 0.0132039)
(0.0023699 -0.0150702 0.013459)
(0.000610307 -0.0146015 0.0119794)
(0.000218841 -0.00207136 0.0179846)
(0.00117073 -0.000897768 0.0195311)
(-0.000532061 -0.000715107 0.0192587)
(0.00192435 -0.00240856 0.0191231)
(0.00154487 -0.00298194 0.0189607)
(-0.000204121 -0.000854867 0.0194818)
(-0.000739629 -0.0053272 0.0136104)
(-0.000207479 -0.00415478 0.0150176)
(7.71801e-05 -0.00535678 0.014069)
(0.000437897 -0.00471016 0.0146265)
(-0.00116943 -0.00429921 0.0144074)
(0.00385205 -0.00814199 0.0165898)
(0.0045194 -0.00983965 0.0157615)
(0.00427045 -0.0104808 0.0158454)
(0.00433897 -0.00944229 0.0169804)
(0.00353116 -0.0088862 0.0160046)
(0.00420781 -0.00942089 0.0156523)
(0.00391884 -0.00394456 0.0201492)
(0.00387693 -0.00139394 0.0221262)
(0.0041554 -0.00303133 0.0207074)
(0.00358645 -0.000475057 0.0220916)
(0.00318622 -0.00270435 0.0194632)
(0.00286016 -0.000939489 0.0199671)
(-0.00051311 -0.00617994 0.0125681)
(-0.00122296 -0.00608812 0.0110871)
(-0.00105627 -0.00526329 0.0124798)
(-0.000130072 -0.00685853 0.0119395)
(-0.00167848 -0.00572318 0.0123332)
(-0.000681649 -0.00635853 0.0113585)
(0.000602837 -0.00139586 0.0220365)
(-0.000141712 0.00110373 0.0224612)
(0.00139599 -0.00150915 0.0193197)
(-0.00144964 -0.00218628 0.0224785)
(-0.00162528 0.00105809 0.0216972)
(0.00160417 -0.000990559 0.0206401)
(-0.0069094 -0.00721157 0.00796478)
(-0.00697222 -0.00736978 0.00820123)
(-0.00957988 -0.00583064 0.0079302)
(-0.00845816 -0.00635251 0.00779608)
(-0.00846753 -0.00620309 0.00692543)
(-0.0101014 -0.00595778 0.00786416)
(-0.0103164 -0.00564719 0.00935256)
(-0.00960143 -0.00520592 0.00745526)
(-0.012353 -0.00437596 0.00918665)
(-0.00847488 -0.00622936 0.0087827)
(-0.0129304 -0.00387237 0.00885382)
(-0.0109514 -0.00529423 0.00844952)
(0.00176809 -0.00484083 0.0167527)
(0.00216219 -0.00393844 0.0169093)
(0.00250107 -0.00528916 0.0142979)
(0.00166275 -0.00407112 0.0172914)
(0.00249248 -0.00439894 0.0149736)
(0.0030138 -0.00421667 0.0153027)
(0.00200008 -0.00684362 0.00959268)
(0.00247011 -0.00764594 0.0113503)
(0.00294701 -0.00599481 0.0121316)
(0.00331008 -0.00510848 0.0126208)
(0.00272178 -0.00627876 0.0120051)
(-0.0121936 0.00881145 0.0230996)
(-0.00956277 0.0132708 0.0261525)
(-0.010506 0.0107971 0.0263862)
(-0.0120764 0.0089345 0.0253162)
(0.00163153 -0.0106006 0.0100669)
(0.00134503 -0.0104381 0.00935263)
(0.0014113 -0.0102375 0.00950469)
(0.0011844 -0.0109204 0.0102428)
(0.00139901 -0.0100474 0.0105478)
(0.00137238 -0.00948401 0.010621)
(0.00123215 -0.00940323 0.00987978)
(0.00142399 -0.00965019 0.00892028)
(0.00144832 -0.00865359 0.00941879)
(0.00211539 -0.00807654 0.0101574)
(0.000671972 -0.00896776 0.0077351)
(0.000595833 -0.00875434 0.00772958)
(0.00153238 -0.00780592 0.0147615)
(0.0011879 -0.0085999 0.0144537)
(0.00224681 -0.00751463 0.0125402)
(0.00209923 -0.00714131 0.013952)
(0.00169655 -0.0080232 0.0122954)
(0.00181047 -0.00913527 0.0106596)
(-0.0158021 -0.00130237 0.0108144)
(-0.0172109 0.000659011 0.0114266)
(-0.0135208 -0.00358702 0.0117216)
(-0.0150454 -0.00269891 0.0129085)
(-0.0143294 -0.00205425 0.00983226)
(-0.0161909 -0.000809141 0.0123959)
(-0.00379401 -0.00812999 0.00681402)
(-0.0023921 -0.00753695 0.00706068)
(-0.00208402 -0.00800418 0.00772018)
(0.000202788 -0.00738628 0.00787864)
(-0.00250266 -0.00761074 0.00614008)
(-0.00410371 -0.00782875 0.00626839)
(-0.00407643 -0.0078048 0.00732102)
(-0.00341353 -0.00813377 0.00813865)
(-0.00560984 -0.00777787 0.0077069)
(-0.00732667 -0.00707483 0.00685347)
(-0.0070508 -0.00684269 0.00660529)
(-0.00557315 -0.00762773 0.00664464)
(0.00140097 -0.00268693 0.0126432)
(0.00070391 -0.00343107 0.0120602)
(-0.00690171 -0.00374335 0.0114182)
(-0.0073123 -0.00389986 0.0109572)
(-0.00675685 -0.00253749 0.011932)
(-0.00665551 -0.00295715 0.0119974)
(-0.00722318 -0.00199059 0.0110868)
(-0.00752739 -0.00354978 0.0108552)
(-0.00579488 -0.00365354 0.0109036)
(-0.00470598 -0.00328505 0.0121297)
(-0.00568413 -0.00411176 0.0107898)
(-0.00434386 -0.00405278 0.0113409)
(-0.00503188 -0.00443735 0.0110686)
(-0.00535038 -0.00407238 0.012215)
(-0.0068805 -0.00658572 0.00843038)
(-0.00676978 -0.00553033 0.00837338)
(-0.0067423 -0.00681888 0.00726825)
(-0.00659359 -0.00682053 0.0076819)
(-0.00657819 -0.00657553 0.00721465)
(-0.00648678 -0.00602996 0.00812963)
(0.0065312 0.00340222 0.0218381)
(0.00627141 0.00519043 0.0223555)
(0.00600641 0.000226811 0.0178758)
(0.00713588 0.0028208 0.0189136)
(0.00682292 0.000481262 0.0200634)
(0.00718099 0.00316994 0.0211913)
(0.00624618 0.00472434 0.0212864)
(0.006628 -0.000344515 0.0175126)
(0.00594494 -0.00162996 0.0166525)
(0.00532062 -0.00255106 0.0165753)
(0.00581996 9.45833e-05 0.0191445)
(0.00565501 -0.00140114 0.0169309)
(0.00437737 0.00295155 0.0210237)
(0.00587968 0.00165751 0.0199249)
(0.00663097 0.0037736 0.02143)
(0.00496815 0.00304302 0.0240712)
(0.00535388 0.00164208 0.0200308)
(0.00552965 0.000589618 0.0192431)
(-0.0058085 -0.00531474 0.0104045)
(-0.00760557 -0.00629474 0.00674791)
(-0.00741431 -0.00670023 0.00680139)
(-0.00669058 -0.00692916 0.00709127)
(-0.00727237 -0.00645084 0.00714979)
(-0.00901804 -0.00459293 0.0085581)
(-0.00795952 -0.00606354 0.00780109)
(-0.00832693 -0.00504342 0.00847125)
(-0.00821907 -0.00566783 0.00773899)
(-0.00850959 -0.00316728 0.0105051)
(-0.00858964 -0.00357995 0.00983523)
(-0.00359034 -0.00311014 0.0206832)
(0.00225943 -0.00800294 0.0121692)
(-0.000413188 -0.0119496 0.00639243)
(-4.08365e-05 -0.012099 0.00709328)
(0.0004481 -0.0114352 0.0072504)
(-5.84016e-05 -0.0108642 0.00658713)
(0.00025902 -0.0104856 0.00738668)
(-0.000517046 -0.0108787 0.00657049)
(0.000871076 -0.0105416 0.00796898)
(0.000473183 -0.0108977 0.00763585)
(0.000516847 -0.0110633 0.00754788)
(0.000924992 -0.010273 0.00784181)
(0.000984525 -0.0116259 0.00834281)
(0.000891769 -0.0120849 0.00937291)
(0.00111599 -0.0104851 0.00891729)
(0.000589024 -0.011283 0.012443)
(0.000757945 -0.0119147 0.0120296)
(0.000755163 -0.0119184 0.0120051)
(0.000905078 -0.0103999 0.012999)
(0.00124438 -0.0118473 0.0113292)
(0.000870746 -0.0106547 0.0121176)
(-0.0184426 3.23403e-05 0.0172764)
(-0.0195245 0.00145398 0.0161898)
(-0.0197487 0.00336182 0.0143952)
(-0.0180849 -0.000231696 0.0153684)
(-0.0153723 -0.00219381 0.0139301)
(-0.0180067 0.000813016 0.0137237)
(-0.0108978 -0.00466407 0.0101498)
(-0.0123309 -0.00372835 0.00993483)
(-0.0148159 -0.00370352 0.0165085)
(-0.0171153 -0.0019954 0.0171548)
(-0.0118903 0.00187791 0.0187576)
(-0.0113861 0.00606354 0.0208001)
(-0.0117989 0.00255674 0.0192194)
(-0.00772475 0.00946473 0.0269132)
(-0.0118073 0.00399217 0.021524)
(-0.0119215 0.00725996 0.0231024)
(-0.0120899 0.00441716 0.0231822)
(-0.0117432 0.00427197 0.0209507)
(-0.0095804 0.00960221 0.027235)
(-0.0100004 0.0096019 0.0254355)
(-0.00980956 0.00637229 0.0241814)
(-0.0110721 0.0076141 0.0247797)
(-0.0110205 0.00598541 0.0230839)
(0.00246334 -0.00780408 0.0121216)
(0.0022777 -0.00639022 0.0141384)
(0.00246052 -0.00687974 0.0133316)
(-0.000789083 -0.00812733 0.00675061)
(-0.00165866 -0.00810409 0.00646073)
(-0.00198986 -0.00806078 0.00634981)
(0.000616196 -0.00756024 0.00766643)
(0.00158141 -0.00791761 0.00901714)
(0.000745238 -0.00767949 0.00816688)
(-0.00057693 -0.00791722 0.00745203)
(0.00164078 -0.00713472 0.00980145)
(-0.00141346 -0.00848523 0.00641678)
(0.000551252 -0.00861696 0.00860561)
(-0.000302384 -0.00868811 0.00723894)
(0.00335987 -0.00215511 0.0172041)
(0.00390835 -0.00241452 0.0165853)
(0.002751 -0.00614917 0.0133204)
(0.00290918 -0.00639825 0.0129775)
(0.00292875 -0.0057939 0.0130002)
(0.00299608 -0.00301182 0.0170623)
(0.00357485 -0.00361933 0.0149248)
(0.00310622 -0.00450323 0.0142916)
(0.00222655 -0.00572648 0.0144969)
(0.00244223 -0.00211572 0.0176161)
(0.00140729 -0.00673487 0.00888428)
(0.00297558 -0.00549977 0.0112409)
(-0.00811802 -0.00624474 0.00775142)
(-0.00256015 -0.00234025 0.0223749)
(-0.00247607 -0.00293805 0.0193295)
(-0.00189829 -0.00277191 0.0220259)
(-0.000582896 -0.00205038 0.0202463)
(-7.64885e-05 -0.00448343 0.0200891)
(-0.0109253 0.00348547 0.0228918)
(-0.0118231 0.00307938 0.0220503)
(-0.0108282 0.00178883 0.0221977)
(-0.0103336 0.00112205 0.0236185)
(0.00233937 -0.000421946 0.0213506)
(0.00209933 0.00117022 0.0218224)
(0.00246103 -0.00879069 0.0141278)
(0.00455678 -0.00429062 0.0187918)
(0.00354453 -0.00484256 0.0195114)
(0.0040639 -0.00497972 0.0188851)
(0.00134557 -0.00785778 0.0143845)
(0.00218018 -0.00761365 0.0144369)
(0.00152673 0.000760185 0.020072)
(0.00172017 -0.00101874 0.020444)
(0.00296397 -0.00275838 0.0197089)
(0.00485701 -0.00866264 0.0175923)
(0.00457467 -0.00852136 0.0193628)
(0.00413787 -0.00745704 0.0187848)
(0.00139713 -0.0160963 0.0121344)
(0.0030042 -0.00934668 0.0146002)
(0.00301442 -0.00893751 0.0147571)
(0.00347443 -0.0102273 0.0150097)
(0.00355626 -0.00999875 0.0144265)
(0.00375234 -0.00985682 0.0136722)
(0.0036518 -0.0101935 0.013885)
(0.0035489 -0.012186 0.0130696)
(0.00352617 -0.0134492 0.0127288)
(0.00357295 -0.0117457 0.0135402)
(0.00516 -0.0100318 0.0181619)
(0.0045397 -0.00800566 0.0183831)
(0.00488478 -0.00916202 0.0176002)
(0.00487455 -0.0105244 0.0176784)
(0.00404225 -0.0111251 0.015705)
(0.00475536 -0.0111644 0.0162664)
(-0.016402 0.0105665 0.0173371)
(-0.0100122 0.00954147 0.0208324)
(-0.00927208 0.00911022 0.0202622)
(-0.00606872 0.00861539 0.02139)
(-0.0079405 0.0101312 0.0194913)
(-0.01584 0.00289855 0.0129235)
(-0.0158631 0.00283428 0.0132263)
(-0.0151663 0.00301402 0.012968)
(-0.0110809 -0.00089979 0.0107473)
(-0.0101122 -0.00058419 0.0114218)
(-0.0111785 -0.00031563 0.0103208)
(-0.0110216 0.00571267 0.0163203)
(-0.0103168 0.0048851 0.01678)
(-0.00839429 0.00360366 0.0168253)
(-0.0113706 0.00411899 0.0159588)
(-0.00902064 0.00477563 0.0167829)
(-0.0106758 0.00124459 0.0124962)
(-0.0100453 0.00342564 0.0147336)
(-0.00823487 0.00269532 0.0150275)
(-0.00903674 0.00347124 0.0158515)
(-0.0122716 0.00386468 0.0146311)
(-0.0107882 0.00252734 0.0135506)
(-0.0121361 0.00114939 0.0119817)
(-0.0114459 -0.000221654 0.00940985)
(-0.0121082 -0.00159422 0.00900631)
(-0.0129597 9.31635e-05 0.00984213)
(-0.0120708 -0.00202456 0.00788848)
(-0.00164246 6.14834e-05 0.0174008)
(0.000672921 0.00231797 0.0212989)
(-0.00293833 -0.00104397 0.0168108)
(0.00190392 -0.00924479 0.0111712)
(0.00159636 -0.00956753 0.01123)
(0.00103129 -0.00791781 0.0149996)
(0.00125604 -0.00962726 0.0128851)
(0.00132192 -0.00990695 0.0126368)
(0.000802233 -0.00872828 0.0142678)
(0.00167874 -0.00924776 0.0130872)
(-0.00957029 -0.00801577 0.016673)
(-0.00861958 -0.00956899 0.0179002)
(-0.00870205 -0.00764218 0.0185975)
(-0.00852882 -0.00646944 0.0181014)
(-0.00946093 -0.00845847 0.0186332)
(-0.00433245 -0.00523665 0.0204273)
(-0.0058277 -0.00408606 0.0200092)
(-0.0044934 -0.00606986 0.0199005)
(-0.00844701 -0.00790277 0.019238)
(-0.00767832 -0.00901292 0.0184603)
(-0.00633449 -0.0057811 0.0194026)
(-0.00760953 -0.00655154 0.0194694)
(0.000131283 -0.0120365 0.0130219)
(-0.00109957 -0.0126382 0.0138737)
(-0.00654033 -0.00979326 0.0174408)
(-0.00523051 -0.00908311 0.0175908)
(0.000371075 -0.00880019 0.0149466)
(0.000382976 -0.00997743 0.01452)
(-4.87385e-06 -0.009792 0.0144107)
(4.52305e-06 -0.011997 0.014238)
(-0.000941699 -0.011633 0.014345)
(-0.000275385 -0.0104597 0.0137321)
(-0.00419329 -0.00909081 0.0178069)
(-0.00412569 -0.00640552 0.0182128)
(-0.00274042 -0.00528013 0.018392)
(-0.00316654 -0.00723798 0.0185473)
(-0.000807969 -0.00921557 0.0159412)