/*--------------------------------*- C++ -*----------------------------------*\
| =========                 |                                                 |
| \\      /  F ield         | OpenFOAM: The Open Source CFD Toolbox           |
|  \\    /   O peration     | Version:  v1612+                                |
|   \\  /    A nd           | Web:      www.OpenFOAM.com                      |
|    \\/     M anipulation  |                                                 |
\*---------------------------------------------------------------------------*/
FoamFile
{
    version     2.0;
    format      ascii;
    class       volScalarField;
    location    "239";
    object      p;
}
// * * * * * * * * * * * * * * * * * * * * * * * * * * * * * * * * * * * * * //

dimensions      [0 2 -2 0 0 0 0];

internalField   nonuniform List<scalar> 
17027
(
2.01785
2.13618
2.17397
2.15787
2.02611
2.01946
2.02866
2.02748
2.06337
2.04815
2.04202
2.05655
2.04019
2.06088
2.06928
2.05264
2.04136
2.05969
2.0328
2.06956
2.05654
2.04759
2.03592
2.04462
2.04044
2.03182
2.04354
2.03056
2.02803
2.02408
2.01765
2.04476
2.02767
2.02362
2.03064
2.01989
2.01528
2.03306
2.01939
2.09616
2.0976
2.08274
2.07925
2.0881
2.08979
2.07282
2.08023
2.08119
2.07634
2.1404
2.14717
2.16595
2.15995
2.1523
2.12828
2.13603
2.12687
2.13009
2.16398
2.14419
2.16164
2.13832
2.14757
2.14481
2.12917
2.1384
2.16409
2.19745
2.189
2.21158
2.20071
2.19482
2.21421
2.20925
2.2117
2.2101
2.20912
2.21963
2.20036
2.21219
2.20161
2.21184
2.20196
2.21711
2.21829
2.20916
2.19181
2.19032
2.18971
2.19789
2.1932
2.18358
2.18843
2.19545
2.19666
2.20443
2.19575
2.19224
2.1868
2.18306
2.19589
2.0382
2.04092
2.03588
2.02313
2.02818
2.03928
2.03599
2.0181
2.02044
2.02139
2.02593
2.03034
2.02835
2.02013
2.02667
2.01966
1.97332
1.97452
1.96139
1.96135
1.95747
1.95647
1.96541
1.9629
1.97567
1.97163
1.96023
1.96
1.95764
1.96772
1.97245
1.96728
1.96002
2.16316
2.16288
2.16032
2.16106
2.16351
2.16699
2.12873
2.13986
2.10476
2.11792
2.11962
2.14113
2.10068
2.10983
2.12088
2.10914
2.11253
2.12574
2.097
2.08991
2.07372
2.077
2.06313
2.08003
2.09263
2.05551
2.05997
2.0578
2.04912
2.05163
2.08391
2.07062
2.07492
2.06736
2.0509
2.05317
2.18574
2.18118
2.16686
2.16944
2.17958
2.16808
2.17804
2.17559
2.17489
2.17732
2.17557
2.18297
2.17971
2.16526
2.17333
2.16606
2.17828
2.17085
2.16739
2.16447
2.16957
2.15855
2.15495
2.16972
2.17505
2.16998
2.16167
2.17861
2.18094
2.18184
2.15858
2.16376
2.16598
2.16791
2.15463
2.06166
2.05602
2.0423
2.03383
2.00496
1.99944
2.03716
2.06325
2.00249
2.00377
2.01137
2.02215
2.01782
2.02299
2.04089
2.0426
2.17078
2.16832
2.16038
2.17768
2.18528
2.14616
2.13943
2.1823
2.16834
2.157
2.16195
2.17118
2.18085
1.9445
1.96131
1.96592
1.94544
1.96808
1.95731
1.9505
1.94991
1.94672
1.95256
1.9625
1.97197
1.95328
1.95727
1.96437
1.95811
1.95491
1.94696
2.02028
2.02837
2.04079
2.06192
2.07742
2.00943
2.03483
2.02552
2.01248
2.04174
2.05042
2.05027
2.06839
2.05927
2.07082
2.06764
2.0889
2.09003
2.05672
2.05456
2.07043
2.07258
2.08283
2.0901
2.09422
2.05676
2.08582
2.08364
2.06304
2.06331
2.0754
2.1863
2.18197
2.19108
2.16814
2.17932
2.18512
2.1676
2.10807
2.10757
2.09219
2.09467
2.10484
2.10691
2.10938
2.09865
2.08347
2.08348
2.08666
2.08372
2.08355
2.10467
2.1066
2.10366
2.09464
2.07949
2.08808
2.08521
2.09215
2.10672
2.10964
2.1274
2.11899
2.12797
2.10898
2.1133
2.10692
2.13348
2.12706
2.11172
2.11369
2.11035
2.12466
2.1291
2.13035
2.02558
2.0264
2.0145
2.01008
2.0014
2.00212
1.99191
1.99382
2.02037
2.0223
1.99922
1.99201
1.99228
1.98736
2.01258
1.99978
2.0184
2.02863
2.02908
2.0186
2.0247
2.03208
2.01046
2.03567
2.02805
2.03465
2.01175
2.03988
2.01084
2.02201
2.03965
2.09141
2.0958
2.115
2.11317
2.08274
2.07399
2.12038
2.07037
2.10683
2.08275
2.08886
2.10026
2.10132
2.08988
2.13076
2.11377
2.12466
2.11765
2.10791
2.0942
2.09611
2.09063
2.08617
2.15958
2.16067
2.15118
2.18215
2.17305
2.16403
2.17515
2.17255
2.17553
2.18416
2.17944
2.1772
2.1593
2.1575
2.16929
2.16252
2.1784
2.17046
2.17382
2.18085
2.17668
2.17727
2.18585
2.18402
2.16848
2.17201
2.179
2.17079
2.17436
2.18198
2.18252
2.18691
2.18667
2.18031
2.157
2.14906
2.14108
2.16488
2.16502
2.15357
2.16135
2.15447
2.15153
2.15428
2.16209
2.16004
2.16089
2.1409
2.14863
2.1526
2.15745
2.11576
2.10655
2.08761
2.09149
2.08766
2.0863
2.11373
2.09765
2.09506
2.09484
2.0889
2.09123
2.1022
2.09672
2.21812
2.21745
2.2052
2.21196
2.19305
2.18699
2.20049
2.19818
2.20167
2.19036
2.18323
2.2086
2.21183
2.20361
2.19362
2.21677
2.2013
2.20675
2.20068
2.1471
2.14238
2.20252
2.20171
2.15617
2.16239
2.15201
2.13831
2.14549
2.16155
2.15951
2.16456
2.17899
2.17266
2.16846
2.1995
2.1974
2.18855
2.17122
2.06242
2.04606
2.05401
2.04455
2.04479
2.0538
2.06123
2.03722
2.03636
2.04173
2.03513
2.04215
2.02052
2.02728
2.03176
2.03043
2.01747
2.03409
2.06621
2.05252
2.027
2.04262
2.02541
2.01579
2.05149
2.01227
2.00602
2.05571
2.06335
2.01993
2.03047
2.04231
2.05304
2.0483
2.05144
2.14216
2.15452
2.16184
2.1787
2.18807
2.0492
2.05687
2.05998
2.05808
2.06418
2.06222
2.07308
2.06778
2.05916
2.05842
2.05665
2.05796
2.05342
2.05778
2.06765
2.0678
2.07216
2.07528
2.06836
2.07143
2.00766
2.00224
2.00448
2.03635
2.03749
2.03072
2.0539
2.04835
2.06483
2.03463
2.05196
2.02408
2.03327
2.03749
2.06792
2.05172
2.02389
2.01593
2.01706
2.08178
2.0714
2.08161
2.07815
2.04889
2.07261
2.03394
2.02305
2.03742
2.03624
2.02812
2.07327
2.05217
2.06809
2.14249
2.15593
2.14196
2.14976
2.15209
2.11872
2.14169
2.12931
2.14103
2.15936
2.15601
2.14989
2.1405
2.11864
2.13341
2.11878
2.1432
2.14166
2.05321
2.0425
2.06067
2.0479
2.05427
2.06488
2.06076
2.0538
2.06545
2.06752
2.07214
2.04672
2.06369
2.06778
2.07667
2.09013
2.07681
2.05899
2.08602
2.09341
2.07897
2.18053
2.17929
2.20506
2.20651
2.19771
2.20237
2.18911
2.18824
2.1778
2.1767
2.18836
2.19076
2.20435
2.20287
2.19388
2.18024
2.18183
2.19443
2.19054
2.19849
2.18843
2.1919
2.19142
2.19796
2.19438
2.09485
2.09304
2.10267
2.1786
2.17686
2.17787
2.17073
2.18152
2.18583
2.1785
2.17534
2.17656
2.18531
2.18717
2.17288
2.18876
2.01552
1.99632
2.0077
1.99792
2.01565
1.98711
2.00434
1.97275
1.97557
2.00458
1.97705
1.98961
2.00007
1.97675
1.98487
1.96946
1.98053
2.06614
2.07076
2.06029
2.06399
2.09092
2.08416
2.08344
2.08277
2.09584
2.06656
2.07023
2.07137
2.08407
2.09415
2.09499
2.09186
2.08439
2.07057
2.118
2.12233
2.13033
2.11086
2.12963
2.12012
2.1364
2.10948
2.09152
2.12281
2.1219
2.07689
2.07713
2.07036
2.0958
2.10133
2.11904
2.0831
2.09648
2.08465
2.10049
2.08579
2.07599
2.10493
2.12548
2.13314
2.10028
2.12224
2.132
2.12206
2.11237
2.08987
2.15238
2.14689
2.14384
2.12714
2.14352
2.15672
2.16426
2.16755
2.17403
2.17807
2.17125
2.16625
2.16962
2.18335
2.15607
2.15625
2.17456
2.17556
2.16764
2.17215
2.15655
2.17073
2.15724
2.15293
2.16516
2.16578
2.15686
2.1488
2.16292
2.15479
2.15888
2.15639
2.16053
2.16771
2.15761
2.16138
2.16445
2.16771
2.16818
2.16726
2.16694
2.17276
2.1699
2.18138
2.17094
2.1742
2.17717
2.18949
2.1926
2.1942
2.18886
2.18479
2.19726
2.19613
2.1809
2.19488
2.19318
2.19326
2.19309
2.18374
2.18762
2.18624
2.17984
2.00959
2.01403
2.01414
2.00829
2.01318
2.01201
2.01214
2.0119
2.01003
2.01987
2.01947
2.02456
2.02841
2.01494
2.0219
2.02007
2.02462
2.01753
2.01766
2.02101
2.03699
2.0378
2.0386
2.03856
2.04377
2.04197
2.01847
2.01494
2.02933
2.03042
2.04061
2.03522
2.02546
2.0282
2.02486
2.02354
2.03035
2.03626
2.02572
2.11434
2.11093
2.1177
2.11631
2.11982
2.1204
2.11519
2.08536
2.08622
2.09248
2.10835
2.09874
2.11103
2.1081
2.09985
2.10384
2.1035
2.10793
2.10887
2.09382
2.09101
2.10011
2.14112
2.14601
2.12254
2.14257
2.13706
2.14073
2.15633
2.15438
2.12716
2.12799
2.15529
2.13202
2.13292
2.13207
2.14199
2.1473
2.14814
2.07606
2.08857
2.08763
2.07935
2.08883
2.09344
2.08358
2.08319
2.09322
2.09207
2.08558
2.07606
2.0784
2.09334
2.09871
2.09446
2.09338
2.09105
2.08124
2.09287
2.0767
2.08749
2.05868
2.05176
2.0623
2.05236
2.07179
2.07261
2.06157
2.08619
2.08221
2.07798
2.08086
2.08665
2.09616
2.11371
2.06487
2.11688
2.11069
2.09299
2.10298
2.07593
2.09825
2.10822
2.14187
2.14859
2.14382
2.14524
2.15732
2.15938
2.15983
2.17183
2.1666
2.15262
2.16633
2.15826
2.16346
2.17381
2.17112
2.17067
2.16469
2.16361
2.05027
2.05453
2.04424
2.04871
2.06885
2.05744
2.05752
2.0468
2.07025
2.05315
2.06799
2.06997
1.98523
1.97939
1.97926
1.97292
1.98163
1.98
1.97105
1.97404
1.98238
1.98933
1.98713
1.98742
1.98686
1.97832
1.97674
1.97267
1.96891
1.98237
1.98714
1.98143
2.05035
2.05397
2.06052
2.06655
2.07736
2.07664
2.04421
2.03874
2.07351
2.07044
2.03947
2.04521
2.06317
2.03993
2.04627
2.0589
2.07341
2.05361
2.04179
2.06276
2.20079
2.20432
2.20688
2.20798
2.20657
2.20981
2.20499
2.20326
2.21868
2.2276
2.21438
2.19471
2.19678
2.20409
2.21889
2.22168
2.20952
2.20888
2.20872
2.20088
2.2138
2.21883
2.00914
2.01934
2.00802
2.00631
2.01138
2.01029
2.00543
2.03337
1.99747
2.00879
2.01131
2.01532
2.02224
2.0161
2.02377
2.00645
2.02669
2.0037
2.01167
2.00468
1.99583
2.05613
2.03198
2.05311
2.06832
2.04364
2.06589
2.08056
2.08483
2.01294
2.00812
2.01576
2.02322
2.03519
2.03806
2.01779
2.00382
2.0072
2.04146
2.0388
2.00602
2.00941
2.00996
2.01449
2.02845
2.01808
2.02009
2.01901
2.02951
2.03239
2.01143
2.02745
2.02588
2.07278
2.07733
2.0832
2.07929
2.07673
2.07649
2.07552
2.07096
2.06714
2.0649
2.08271
2.08164
2.08094
2.07803
2.12048
2.11981
2.16956
2.14746
2.1608
2.11502
2.12317
2.14293
2.14464
1.9716
1.97652
1.97815
1.97876
1.9859
1.98877
1.98819
1.97527
2.00737
2.00531
1.98866
1.97573
1.99331
2.00648
2.01352
2.00643
1.98782
2.17964
2.17487
2.18386
2.19284
2.20811
2.21721
2.20277
2.20265
2.21573
2.22001
2.17841
2.18515
2.19113
2.1921
2.21196
2.21714
2.20237
2.21072
2.18826
2.20425
2.0979
2.10336
2.10073
2.09305
2.06187
2.05788
2.10073
2.09729
2.09426
2.08279
2.07325
2.06591
2.09005
2.08942
2.06906
2.07981
2.0783
2.08021
2.06856
2.0624
2.06484
2.07833
2.10303
2.10944
2.07648
2.08109
2.08017
2.08998
2.09444
2.07544
2.08539
2.10213
2.08625
2.09334
2.07913
2.02144
2.00783
2.00525
2.03255
2.00925
1.99957
2.00716
1.99292
2.02057
1.98775
1.98566
2.0332
2.02208
1.99366
2.01472
1.99882
1.98737
1.96142
1.9582
1.95903
1.96088
1.9582
1.95001
1.9649
1.95811
1.95909
1.95234
1.95525
1.96121
1.96373
1.96684
1.96291
1.96529
1.95823
1.95745
1.99179
1.98666
1.99599
1.99275
1.99585
1.99613
1.99645
2.00582
1.99664
2.0017
2.00357
2.0038
2.00476
2.00839
2.00557
2.00784
2.00787
1.95947
1.95827
1.94022
1.94343
1.94037
1.93734
1.93256
2.04638
2.02161
2.02944
2.0296
1.99646
2.00415
2.1378
2.12188
2.12759
1.96796
1.95953
1.96561
1.96918
1.9709
1.9625
1.95621
1.94478
1.94343
2.19342
2.19556
2.03458
2.03072
2.03486
2.16859
2.15345
2.14573
2.21642
2.21125
2.21062
2.14472
2.15404
2.12456
2.01615
2.01499
1.95882
1.95533
1.95121
2.05743
2.07051
2.04478
1.95966
1.95724
1.9616
2.18505
2.18455
2.17095
1.99581
1.9879
1.98842
2.10638
2.08898
2.0925
2.21419
2.20982
2.21856
2.16653
2.16804
1.98284
1.9814
1.97597
2.0341
2.02911
2.03712
2.10072
2.10194
2.11841
1.9735
1.97408
1.97294
1.975
1.97287
2.20009
2.20662
2.05301
2.03703
2.04007
2.05378
2.05927
2.21499
2.22147
1.98768
1.99003
2.05713
2.05936
2.05843
2.18194
2.18074
1.98002
1.97964
2.03597
2.02704
2.02515
2.22578
2.22309
2.00039
2.00505
2.00789
2.15733
2.00464
1.9972
1.99416
2.09809
2.09161
2.09142
2.08709
2.08727
2.18702
2.19657
2.20437
2.0477
2.05475
2.05417
2.22198
2.221
2.05524
2.05882
2.05271
2.13532
2.12751
2.11519
2.0339
2.03013
2.12852
2.11881
2.12873
2.11656
2.07895
2.07682
2.08061
2.01624
2.01936
2.1157
2.11213
2.19846
2.19868
2.20811
2.21706
2.06989
2.07197
2.17613
2.16302
2.17465
2.16258
2.14591
2.14234
2.06054
2.05853
2.07092
2.04267
2.04267
2.21008
2.20517
2.13535
2.13861
2.20149
2.19616
2.08186
2.08097
2.10522
2.20649
2.20646
2.2052
2.19226
2.1964
2.1902
2.2002
2.19214
2.04557
2.11992
2.13547
2.13245
2.11969
2.14734
2.14646
2.13607
2.13412
2.16112
2.14544
2.14793
2.15761
2.15468
2.15079
2.06067
2.06532
2.05613
2.06811
2.06478
2.06123
2.07254
2.0676
2.07017
2.07296
2.08601
2.07571
2.07379
2.07846
2.07884
2.08286
2.08545
2.08862
2.10363
2.10109
2.10497
2.0995
2.10223
2.08853
2.08609
2.09379
2.09059
2.18208
2.18363
2.19314
2.20056
2.19777
2.20415
2.19679
2.20361
2.2003
2.19663
2.19326
2.19577
2.1914
2.19691
2.19791
2.1965
2.19348
2.19509
2.12462
2.12257
2.15546
2.15789
2.12882
2.14068
2.13485
2.14838
2.13734
2.13452
2.13117
2.06877
2.06366
2.07221
2.09725
2.10605
2.10838
2.10763
2.11961
2.11872
2.12563
2.12752
2.16273
2.17167
2.15845
2.20199
2.20796
2.20609
2.20588
2.21393
2.20773
2.20432
2.19961
2.21333
2.21185
2.20051
2.20085
2.2079
2.20603
2.05125
2.03536
2.04466
2.05133
2.04357
2.03635
2.04181
2.03127
2.0356
2.04122
2.03379
2.03584
2.04207
2.07876
2.07275
2.0382
2.03915
2.04843
2.04422
2.0481
2.04021
2.04757
2.05265
2.05
2.05111
2.05203
2.04629
2.04173
2.03113
2.03807
2.05533
2.07492
2.06484
2.06055
2.05933
2.06644
2.06305
2.07101
2.07292
2.0563
2.05969
2.15928
2.15482
2.11573
2.11831
2.1235
2.11785
2.15219
2.15164
2.15448
2.1481
2.17468
2.15753
2.17309
2.17053
2.15884
2.15784
2.15941
2.1513
2.14452
2.14983
2.1362
2.14519
2.13653
2.1386
2.14982
2.15044
2.15146
2.15693
2.14802
2.16459
2.16347
2.15665
2.15505
2.15305
2.15836
2.15669
2.15078
2.16001
2.1563
2.15949
2.1571
2.15137
2.16865
2.16189
2.18676
2.18046
2.18369
2.17478
2.03751
2.05019
2.04753
2.04837
2.05586
2.05334
2.06439
2.06741
2.06104
2.06188
2.05385
2.05735
2.06893
2.061
2.06283
2.06393
2.06318
2.06457
2.06097
2.0724
2.0915
2.08375
2.11259
2.09089
2.08319
2.08061
2.08462
2.09693
2.10641
2.10172
2.21271
2.20958
2.21018
2.21918
2.21908
2.22281
2.2242
2.21647
2.20697
2.20932
2.2062
2.21528
2.21917
2.21373
2.21038
2.20769
2.21011
2.20634
2.19995
2.19829
2.1759
2.18633
2.18142
2.20828
2.19637
2.19769
2.20066
2.18781
2.20755
2.20242
2.13723
2.12804
2.1441
2.13643
2.13933
2.14376
2.12859
2.12018
2.11837
2.12644
2.00959
2.01747
2.01172
2.01564
2.0411
2.03651
2.03079
2.04495
2.02993
2.03757
2.01416
2.00894
2.01455
2.01017
2.01303
2.0324
2.02476
2.02045
2.03084
2.03186
2.02024
2.03223
2.02357
2.02627
2.03189
2.02769
2.02193
2.01771
2.01621
2.01453
2.01861
2.0222
2.10117
2.0854
2.10159
2.10459
2.08428
2.08416
2.10164
2.09575
2.10303
2.0944
2.09428
2.08216
2.08685
2.10868
2.10967
2.1029
2.11364
2.11287
2.10435
2.10047
2.15611
2.15112
2.14783
2.13787
2.13421
2.14174
2.12886
2.14127
2.14311
2.14934
2.13852
2.04406
2.04178
2.03
2.01018
2.02399
2.02675
2.01658
2.02174
2.02822
2.00456
2.0104
2.01282
2.01575
2.02241
2.01799
2.01742
2.01206
2.02196
2.0202
2.10054
2.09795
2.10034
2.11079
2.14889
2.15506
2.1443
2.1316
2.08574
2.102
2.09528
2.09131
2.0914
2.10022
2.10713
2.05086
2.05213
2.05014
2.06128
2.21753
2.21588
2.21059
2.22148
2.21217
2.22139
2.21778
2.20504
2.20732
2.22011
2.22798
2.22301
2.06233
2.05821
2.03005
2.03013
2.03282
2.04103
2.04383
2.04057
2.05739
2.05833
2.05052
2.05192
2.04603
2.05538
2.05327
2.06877
2.05492
2.04911
2.06935
2.07319
2.18593
2.19384
2.17875
2.18438
2.19154
2.19185
2.16831
2.168
2.17798
2.1654
2.16101
2.17625
2.17152
2.17699
2.18173
2.17472
2.18425
2.18367
2.20722
2.20236
2.19046
2.21431
2.21281
2.2062
2.20097
2.19542
2.20146
2.21642
2.11609
2.11378
2.10443
2.12389
2.14162
2.13539
2.14434
2.02772
2.02616
2.03576
2.0328
2.12622
2.10748
2.09483
2.10708
2.10921
2.10161
2.10956
2.11284
2.12792
2.12495
2.11826
2.05043
2.05519
2.06361
2.04781
2.06314
2.0748
2.08736
2.09541
2.08937
2.0863
2.12809
2.1247
1.99249
1.98603
1.99028
1.98647
1.98681
1.9929
1.9899
2.18978
2.2005
2.18862
2.14909
2.15274
2.16368
2.15199
2.18637
2.19293
2.1851
2.17199
2.16657
2.17492
2.17524
2.16669
2.01673
2.01161
2.01544
2.01778
2.01287
2.00921
2.01684
2.01512
1.99738
2.00926
1.99824
2.01166
2.00766
2.00555
2.00814
1.99956
1.99987
2.00734
1.99732
2.00016
2.00507
2.00305
2.00332
1.99352
1.9986
2.01553
2.02173
2.01592
2.0191
2.01502
2.21969
2.22194
2.21657
2.23011
2.23118
2.22751
2.21599
2.2045
2.21476
2.22197
2.22779
2.22366
2.2206
2.21821
2.21987
2.22175
2.21468
2.21082
2.22087
2.21508
2.21762
2.22437
2.22147
2.00321
1.99967
2.00003
1.99957
2.01029
2.01194
2.01609
2.01642
2.00849
2.01941
2.01475
2.01212
1.98925
1.98871
1.98924
1.98393
1.98544
1.98109
1.9788
1.97945
1.98172
1.97405
1.98136
2.15
2.14274
2.15396
2.15721
2.15917
2.16262
2.18417
2.18482
2.18207
2.16761
2.18226
2.17333
2.16046
2.1793
2.17322
2.15764
2.1555
2.15852
2.20595
2.19273
2.20208
2.18014
2.18244
2.19524
2.18354
2.19078
2.19601
2.19964
2.21097
2.19856
2.18775
2.18591
2.18748
1.99782
2.00089
2.03084
2.09431
2.09655
2.08196
2.07602
2.10502
2.10153
2.08396
2.09487
2.08008
2.08766
2.07305
2.06655
2.0823
2.07728
1.97978
1.98313
1.98977
2.00367
1.99674
1.98805
1.9898
2.00121
2.00307
2.21657
2.22545
2.23086
2.22239
2.22826
2.22377
2.22788
2.17771
2.18832
2.19384
2.21105
2.20122
2.20525
2.19334
2.21639
2.208
2.19854
2.20053
2.1894
2.19917
2.19491
2.21039
2.20632
2.21526
2.21276
2.20305
2.21899
2.22574
2.22697
2.20904
2.2139
2.21628
2.21112
2.20208
2.20318
2.03488
2.04095
2.03068
2.03153
2.04291
2.04926
2.04427
2.04961
2.04302
2.04704
2.04024
2.04859
2.05015
2.03571
2.03717
2.07729
2.07643
2.06899
2.06186
2.02361
1.99802
1.99449
2.01314
2.01951
2.02275
2
2.01687
2.0234
2.01012
2.01653
2.16075
2.17255
2.18179
2.20441
2.19594
2.2122
2.19782
2.19709
2.18227
2.18052
2.17228
2.17225
2.16578
2.18783
2.18869
2.18805
2.18642
2.20416
2.22318
2.21637
2.21267
2.22198
1.96932
1.97313
1.97383
1.96662
1.97272
1.97562
1.96779
1.96897
1.97211
1.97155
1.96502
1.96227
1.96993
1.97505
1.9642
1.9713
1.96337
1.9679
1.97523
1.97993
1.98195
1.97967
1.97982
1.9757
1.97528
1.96523
1.96383
1.98508
1.97197
1.98387
1.98551
1.97516
1.97506
1.97101
1.97033
1.97974
1.98466
1.98351
1.98853
1.98647
1.98322
1.96996
1.97872
1.97845
1.98419
1.98255
2.13692
2.12892
2.11089
2.13601
2.12524
2.13959
2.14508
2.14572
2.1233
2.11779
2.07232
2.0623
2.09048
2.05868
2.05796
2.07695
2.09245
2.10379
2.10124
2.10482
2.06964
2.07439
2.04528
2.057
2.04798
2.06164
2.06355
2.0764
2.08396
2.0774
2.06528
2.1088
2.10109
2.09464
2.07835
2.08734
2.10106
2.08687
2.11362
2.1188
1.99888
1.99458
2.00827
1.99962
1.99967
2.00268
2.01611
2.03356
2.03639
2.02695
2.05134
2.01644
2.0278
2.02807
2.03625
2.02923
2.08319
2.07561
2.04246
2.05486
2.06605
2.05095
1.97356
1.97485
1.9793
1.96726
1.98319
1.98886
1.99439
1.98649
1.98496
1.98877
1.99655
1.99941
2.12216
2.12789
2.19961
2.20071
2.2017
2.19402
2.14371
2.13099
2.11162
2.14225
2.11932
2.1244
2.11688
2.14608
2.14924
2.18076
2.18219
2.18191
2.19355
2.17769
2.17314
2.16867
2.16516
2.20654
2.21719
2.22033
2.22254
2.21438
2.21846
2.21491
2.19305
2.19987
2.19869
2.20734
2.19966
2.19003
2.18979
2.20878
2.19874
2.22553
2.21901
2.22349
2.21155
2.14769
2.13883
2.10873
2.14594
2.14145
2.11674
2.08951
2.05853
2.07686
2.08801
2.09402
2.108
1.97123
1.97276
1.98222
1.98057
1.98385
1.99897
2.00373
1.986
1.98681
2.00588
2.00207
2.18903
2.18863
2.17267
2.17163
2.20481
2.18795
2.21708
2.21191
2.21179
2.20328
2.20011
1.95374
1.95811
1.95303
1.95264
1.95788
1.9578
1.96055
1.96047
1.95522
2.00667
2.00892
2.00963
2.03896
2.0286
2.03905
2.03846
2.02541
2.01911
2.10219
2.10704
2.09974
2.08025
2.07156
2.05086
1.94579
1.94179
1.94987
1.95036
1.96193
1.96713
1.97191
1.97032
1.97598
1.97914
1.97147
1.96194
1.96074
1.96377
1.96498
1.97031
1.97785
2.01476
2.01051
1.99307
1.98403
1.99888
1.99952
1.9866
1.9912
2.00056
1.99448
2.00323
1.99265
1.98584
2.00461
2.01027
2.08138
2.09703
2.10436
2.11796
2.11191
2.17962
2.17639
2.19471
2.19061
2.18337
2.17386
2.1669
2.17129
2.15322
2.16111
2.17282
2.16498
2.14835
2.15935
2.20186
2.20438
2.21314
2.20021
2.19921
2.21171
2.20574
2.20984
2.2046
2.20812
2.20306
2.19211
2.18109
2.1968
2.21237
2.20858
2.1997
2.18985
2.19548
2.18795
2.19185
2.18684
2.15107
2.1582
2.14473
2.14267
2.07099
2.08503
2.14373
2.13717
2.17004
2.13652
2.16045
2.1642
2.14785
2.15338
2.12273
2.11531
1.98857
1.98651
2.03773
2.04927
2.06546
2.07805
2.04784
2.03551
2.15266
2.15377
2.14389
2.16914
2.17174
2.16748
2.17329
2.17945
2.17426
2.19565
2.19455
2.18207
2.18378
2.20299
2.19986
2.18636
2.1519
2.17991
2.16033
2.17986
2.15012
2.16547
2.16572
2.18345
2.17933
2.20172
2.20802
2.18946
2.17878
2.20263
2.18435
2.18641
2.18489
2.18865
2.21136
2.20291
2.18922
2.1904
2.2035
2.1913
1.93963
1.93855
1.94533
1.94494
1.94664
1.97412
1.97761
1.97125
1.96797
1.96341
1.95952
1.96789
1.96367
1.96361
1.97246
1.95358
1.95074
1.97573
1.97248
1.96618
1.97609
1.98323
2.06204
2.08485
2.06084
2.04767
2.09439
2.09584
2.09365
2.08992
2.08997
2.08384
2.10818
2.0725
2.06885
2.06798
2.0823
2.07179
2.11586
2.1062
2.08079
2.07307
2.18342
2.1735
2.16079
2.11198
2.14074
2.1264
2.13632
2.1177
1.98501
1.99883
2.00055
1.98924
2.08102
2.05393
2.01926
2.02701
2.06979
2.03427
2.02724
2.18095
2.1877
2.18306
2.17713
2.00768
2.00967
1.97964
1.98897
1.95074
1.95357
1.94522
1.93877
1.9383
1.93838
1.94693
1.94301
1.94808
1.94399
1.94272
1.94746
1.94753
1.95224
1.95367
1.9576
1.95466
1.96562
1.95829
1.97861
1.96931
1.96683
1.97915
1.97079
1.97044
1.99069
1.97335
1.95601
1.96574
1.96141
1.96114
1.9663
1.97262
1.94681
1.94869
1.94838
1.9487
1.94735
2.10934
2.09823
2.08226
1.98503
1.98232
1.98163
1.99039
1.9855
1.98478
1.97689
1.97768
1.95851
1.96095
1.96372
1.95704
1.95427
1.95456
2.16042
2.18044
2.1822
2.16501
2.18821
2.17707
2.17262
2.18982
2.18441
2.18881
2.18426
2.02136
1.98495
1.98513
2.02038
2.01875
2.01206
2.02369
2.02826
2.02627
2.02847
1.95211
1.96232
1.96817
1.96364
1.95366
1.95241
1.95733
1.95496
2.21066
2.18875
2.19514
2.21497
2.19672
2.20354
2.2018
2.19129
2.17191
2.19068
2.17781
2.18454
2.19783
2.18885
2.18738
2.1937
2.18342
2.09613
2.08742
2.06327
2.05982
2.04861
2.09396
2.08825
2.04941
1.99659
1.9992
2.00084
1.98977
1.98756
1.98212
1.99365
1.98939
1.98012
1.98852
1.98176
1.98044
1.98047
1.97593
1.97621
1.97202
1.97322
1.95912
1.95035
1.95552
1.95174
1.96165
1.95942
1.96307
1.96261
1.9577
1.95183
1.95066
2.10698
2.12999
2.12739
2.12966
2.13634
2.12217
2.11812
2.10319
2.1114
2.13732
2.13889
2.11026
2.10092
2.09332
2.08758
2.09946
2.11066
2.09571
2.0121
2.0099
2.01231
1.99938
1.99528
2.0164
1.99659
2.01068
2.01373
1.96201
1.96404
1.96799
1.9704
1.96355
1.96269
2.19795
2.20657
2.19649
2.19175
2.19315
2.18042
2.17501
2.18954
2.17483
2.18313
2.1845
2.16531
1.9864
1.98421
1.98579
1.99257
1.99803
1.99574
1.99011
1.99301
1.98102
1.99442
1.98818
1.9901
1.98319
1.97835
1.98669
1.97649
1.9793
1.98285
1.97891
1.97508
1.97237
1.97649
1.96893
1.97975
1.97389
1.97489
1.96804
1.97193
2.08095
2.07891
2.08629
2.09274
2.10567
2.09337
2.05912
2.09522
2.07966
2.08036
2.08223
2.0795
2.08859
2.11925
2.11811
2.09394
2.07316
2.05493
2.03645
2.04282
2.06016
2.04392
2.03077
2.03175
2.0365
2.03408
2.01081
2.00317
2.01167
2.00889
2.00381
2.01566
2.02193
2.02573
2.00086
2.00539
2.00107
2.0033
2.12299
2.11706
2.10743
2.12008
2.13144
2.12853
2.10822
2.09993
2.08727
2.17407
2.17895
2.16486
2.16746
2.17179
2.16633
2.16227
2.13343
2.12121
2.1434
2.1549
2.13937
2.159
2.15092
2.14167
2.14207
2.15655
1.98671
1.98241
1.98433
1.97663
1.9819
1.97863
1.98083
1.985
1.98991
2.22402
2.21606
2.21495
2.22663
2.22075
2.23233
2.22592
2.20497
2.2145
2.19836
2.21979
2.20777
2.22559
2.20113
2.2094
2.20609
2.20765
2.15336
2.16199
2.14816
2.14502
2.12813
2.1773
2.17761
2.17685
2.1711
2.19431
2.17545
2.20107
2.19144
2.19493
2.16351
2.15468
2.16554
2.20299
2.19039
2.16769
2.1546
2.15424
2.1573
2.16923
2.15023
2.16298
2.15438
2.18357
2.16453
2.16464
2.15936
2.17639
2.17558
2.18843
2.18448
2.22787
2.22187
2.21077
2.20189
2.22322
2.21775
2.2146
2.22001
2.21907
2.20664
2.21657
2.21268
2.20423
2.20311
2.21456
2.21514
2.03406
2.05286
2.03311
2.04446
2.04282
2.03922
2.03335
2.03044
2.02188
2.02602
2.02493
2.00216
2.00538
1.99862
2.00094
2.00345
2.16308
2.17585
2.195
2.18727
2.18111
2.19159
2.17488
2.17713
2.17264
2.16907
2.16896
2.19231
1.98997
1.9939
1.99453
1.98305
1.98743
1.98922
2.21763
2.22997
2.21496
2.22677
2.21917
2.22619
2.22317
2.21597
2.22102
1.99218
1.99528
1.99654
1.9984
1.9942
1.99658
1.99273
2.00067
1.98993
1.99143
1.98896
1.99318
2.20422
2.2043
2.20088
2.20158
2.18943
2.21161
2.19383
2.18373
2.18856
2.09953
2.13579
2.13751
2.136
2.12292
2.1245
2.11138
2.13526
2.12858
2.11555
2.11659
2.11748
2.1135
2.10697
2.10476
2.17787
2.17934
2.16881
2.18168
2.18389
2.17138
2.17551
2.17953
2.18954
2.19031
2.13555
2.15223
2.1425
2.15981
2.16605
2.15382
2.16132
2.16532
2.16676
2.16387
2.15985
2.13353
2.12955
2.13882
2.14227
2.16295
2.14644
2.15158
2.13956
2.15423
2.16908
2.16085
2.18712
2.18163
2.17756
2.18824
2.19743
2.1942
2.19433
2.18038
2.18035
2.02411
2.02987
2.02965
2.02643
2.04469
2.03877
2.03981
2.03758
2.049
2.21401
2.20426
2.20545
2.20588
2.19103
2.19145
2.1941
2.19117
2.18829
2.19444
2.06818
2.05507
2.0804
2.08306
2.06993
2.04928
2.05401
2.07094
2.0703
2.07518
2.07465
2.05345
2.05192
2.0304
2.02531
2.03469
2.03849
2.04906
2.03165
2.0328
2.04048
2.03802
2.04719
2.05281
2.04655
2.05167
2.03897
2.04946
2.04109
2.03495
2.04328
2.0324
2.02953
2.0372
2.03733
2.0382
2.17546
2.16494
2.17309
2.17013
2.18968
2.17615
2.16262
2.18198
2.18254
2.15094
2.15127
2.15762
2.14958
2.14484
2.15628
2.14986
2.15657
2.14663
2.1642
2.159
2.1668
2.17506
2.17128
2.16383
2.13513
2.16492
2.15696
2.1506
2.15262
2.13684
2.16388
2.20131
2.19775
2.2044
2.20142
2.20255
2.19632
2.19497
2.20573
2.21025
2.20574
2.20225
2.20198
2.21151
2.21199
2.20379
2.21372
2.17912
2.16878
2.17282
2.1835
2.18806
2.17215
2.17469
2.17355
2.17106
2.16284
2.18345
2.17517
2.1811
2.17713
2.18313
2.18726
2.17055
2.17394
2.17457
2.17917
2.1964
2.19273
2.20037
2.20186
2.19636
2.19021
2.16635
2.16953
2.16804
2.16086
2.16688
2.16096
2.17006
2.16637
2.15057
2.15709
2.1554
2.15487
2.15672
2.15285
2.19485
2.18489
2.17613
2.17537
2.11126
2.10536
2.11436
2.11732
2.11032
2.12097
2.09222
2.09498
2.08482
2.07773
2.08599
2.07452
2.075
2.04421
2.05447
2.0462
2.04216
2.0532
2.04283
2.04235
2.06381
2.05161
2.05113
2.04541
2.05485
2.04542
2.04603
2.04129
2.04424
2.03608
2.04213
2.03264
2.04544
2.0434
2.2146
2.20395
2.20311
2.20428
2.21341
2.20756
2.2013
2.2021
2.20879
2.21605
2.20699
2.20527
2.19717
2.19815
2.20312
2.2034
2.20082
2.19763
2.19687
2.1469
2.14126
2.15194
2.14357
2.14587
2.13934
2.15299
2.15665
2.15836
2.14485
2.14126
2.14899
2.17177
2.16408
2.16383
2.15787
2.1499
2.15513
2.15834
2.15446
2.15932
2.15153
2.19554
2.19766
2.19588
2.20493
2.1982
2.20108
2.19683
2.19976
2.20088
2.20332
2.20571
2.19793
2.20039
2.19631
2.20762
2.19938
2.20239
2.20201
2.20274
2.20277
2.20271
2.20719
2.19762
2.20198
2.18447
2.1865
2.1815
2.18568
2.18917
2.19465
2.17888
2.08918
2.10049
2.08878
2.08979
2.0976
2.09473
2.10839
2.09776
2.10966
2.10403
2.09667
2.09401
2.09687
2.09628
2.0492
2.0471
2.06048
2.04684
2.05352
2.05435
2.04746
2.04841
2.04338
2.04496
2.2067
2.20297
2.19975
2.19171
2.19702
2.19691
2.11798
2.11039
2.11051
2.12035
2.1212
2.20425
2.19925
2.19528
2.20527
2.20192
2.19801
2.19961
2.19752
2.2005
2.19963
2.20075
2.19897
2.18144
2.19083
2.17508
2.18648
2.1919
2.18585
2.19197
2.19175
2.18452
2.17799
2.1723
2.19039
2.18692
2.18827
2.18316
2.17839
2.19522
2.20646
2.20541
2.19908
2.19282
2.19836
2.19283
2.21931
2.21422
2.20757
2.20309
2.20319
2.19709
2.18284
2.18738
2.19157
2.18668
2.19314
2.1799
2.16554
2.17341
2.16989
2.16437
2.16941
2.00574
2.0159
2.00375
2.02923
2.01207
2.02468
2.00967
2.02608
2.13683
2.13066
2.12351
2.11582
2.10356
2.10029
2.11348
2.13897
2.13224
2.137
2.14292
2.14809
1.9582
1.95326
1.94889
1.95191
1.96111
1.95662
1.95486
1.95611
1.96146
1.96685
1.97037
1.95878
1.95665
1.95844
1.95968
1.96093
1.96597
1.96747
2.16471
2.18137
2.1777
2.17716
2.16945
2.17187
2.16328
2.17261
2.16594
2.096
2.08795
2.08699
2.10508
2.09641
2.10033
2.08958
2.09428
2.09172
2.18276
2.18375
2.0618
2.04833
2.06242
2.0524
2.0494
2.05338
2.05913
2.06272
2.05279
2.05407
2.05843
2.05657
2.05636
2.06171
2.12962
2.13045
2.12145
2.12894
2.12414
2.12696
2.10828
2.13525
2.13106
2.12065
2.1175
2.11902
2.12576
2.13174
2.12151
2.11708
2.11296
2.11285
2.11599
2.1026
2.09198
2.15905
2.15977
2.17924
2.1776
2.16727
2.17354
2.17608
2.18482
2.1842
2.18617
2.1686
2.17962
2.1732
2.04719
2.0565
2.05709
2.05683
2.11625
2.12852
2.12658
2.13654
2.1279
2.14314
2.13409
2.14612
2.14319
2.14251
2.14075
2.13875
2.14291
2.15339
2.14875
2.08712
2.20999
2.21141
2.21562
2.21043
2.21737
2.21404
2.20789
2.18472
2.18697
2.18859
2.1829
2.19514
2.20071
2.1986
2.19458
2.18779
2.2026
2.20498
2.19741
2.19299
2.19822
2.18111
2.19288
2.0259
2.02587
2.03073
2.04357
2.02585
2.03192
2.03039
2.02295
2.02497
2.03471
2.03773
2.0291
2.03333
2.02882
2.03354
2.0338
2.10686
2.10099
2.09917
2.0553
2.05665
2.05652
2.05592
2.06637
2.0661
2.05535
2.0499
2.07141
2.06479
2.06468
2.07187
2.0732
2.0089
2.00042
2.0089
1.99583
1.99263
2.00162
1.9937
1.99205
1.99366
2.0269
2.02665
2.04316
2.03968
2.02422
2.02841
2.03273
2.02965
2.01862
2.03109
2.03805
2.02866
2.03634
2.0436
2.03227
2.03849
2.02441
2.02155
2.02332
2.00066
2.01035
2.00456
2.00197
2.00351
2.00821
2.01661
2.09476
2.08596
2.07368
2.09249
2.10919
2.08701
2.09177
2.10385
2.09091
2.09935
2.08904
2.08622
2.07984
2.07082
2.07134
2.0644
2.06405
2.19233
2.21751
2.20132
2.22419
2.21639
2.19979
2.2043
2.20606
2.20803
2.20292
2.21227
2.21449
2.21098
2.20865
2.21111
2.07912
2.07782
2.07284
2.055
2.05632
2.06631
2.06475
2.06886
2.07297
2.05694
2.06243
2.06459
2.08604
2.09749
2.06983
2.079
2.0842
2.09716
2.09447
2.08546
2.08529
2.08191
2.07665
2.05812
2.06569
2.07434
2.07983
2.07157
2.06827
2.0645
2.07295
2.06802
2.06166
2.06157
2.06823
2.14251
2.13368
2.11427
2.13996
1.99783
1.99994
2.00439
2.00352
1.99423
1.99946
1.99284
1.99423
1.99658
1.99581
1.99419
2.03938
2.02367
2.03708
2.01965
2.0207
2.03314
2.03308
2.0277
2.0403
2.02554
2.02651
2.00446
2.00676
2.00746
2.21012
2.21363
2.19356
2.20795
2.21096
2.21115
2.1932
2.18859
2.20203
2.19718
2.01633
2.00974
2.00615
1.98385
1.98026
1.97949
1.97367
1.97006
1.97416
1.97528
1.9794
1.98695
2.14405
2.13391
2.14108
2.11802
2.10807
1.99003
1.99545
1.98918
1.9885
1.98248
1.98017
1.9862
1.98749
1.98469
2.21377
2.22024
2.22968
2.21844
2.2031
2.22147
2.21652
2.20923
2.20165
2.21436
2.21127
2.21849
2.21574
2.22401
2.2154
2.22536
2.23537
2.22658
2.22055
2.21482
2.22942
2.21947
2.21756
2.21371
2.18424
2.18875
2.20416
2.20215
2.2017
2.19998
2.17765
2.19329
2.18382
2.17089
2.19738
2.19498
2.20337
2.20603
2.20318