/*--------------------------------*- C++ -*----------------------------------*\
| =========                 |                                                 |
| \\      /  F ield         | OpenFOAM: The Open Source CFD Toolbox           |
|  \\    /   O peration     | Version:  v1612+                                |
|   \\  /    A nd           | Web:      www.OpenFOAM.com                      |
|    \\/     M anipulation  |                                                 |
\*---------------------------------------------------------------------------*/
FoamFile
{
    version     2.0;
    format      ascii;
    class       volVectorField;
    location    "239";
    object      U;
}
// * * * * * * * * * * * * * * * * * * * * * * * * * * * * * * * * * * * * * //

dimensions      [0 1 -1 0 0 0 0];

internalField   nonuniform List<vector> 
17027
(
(-0.210514 0.445616 -0.483464)
(-0.0671098 0.294008 -0.52582)
(-0.0428172 0.393703 -0.484852)
(-0.148819 0.660508 -0.701116)
(-0.0495264 0.34603 -0.877165)
(-0.046722 0.302374 -0.880959)
(-0.0612735 0.25942 -0.859069)
(-0.0500755 0.246932 -0.857067)
(-0.018684 0.280306 -0.899886)
(-0.0544345 0.279042 -0.899338)
(-0.00776654 0.235519 -0.90597)
(-0.00145311 0.222933 -0.895534)
(-0.047137 0.320024 -0.882102)
(-0.0595732 0.336106 -0.880797)
(-0.0122612 0.291264 -0.893617)
(-0.0575685 0.323995 -0.868404)
(-0.0217107 0.236066 -0.870076)
(-0.0222105 0.286866 -0.875076)
(-0.0288424 0.206651 -0.877004)
(-0.00774721 0.257413 -0.881134)
(-0.000948687 0.232296 -0.883214)
(-0.0093638 0.195243 -0.878778)
(-0.205567 0.424004 -0.633817)
(-0.198247 0.47107 -0.657095)
(-0.201301 0.499386 -0.656887)
(-0.209133 0.42216 -0.618088)
(-0.199643 0.500123 -0.682261)
(-0.216076 0.550736 -0.670504)
(-0.221385 0.495656 -0.650172)
(-0.217809 0.566302 -0.673503)
(-0.227756 0.493348 -0.6406)
(-0.196742 0.559837 -0.685963)
(-0.203856 0.468371 -0.671294)
(-0.21074 0.454329 -0.661081)
(-0.216034 0.445538 -0.627986)
(-0.222389 0.557241 -0.67575)
(-0.217725 0.50984 -0.664018)
(-0.211689 0.555301 -0.691347)
(-0.22012 0.47136 -0.650147)
(-0.223011 0.742577 -0.573959)
(-0.229882 0.776336 -0.588962)
(-0.22223 0.771237 -0.579753)
(-0.218167 0.826228 -0.63237)
(-0.244092 0.831398 -0.636084)
(-0.23665 0.768421 -0.603281)
(-0.221282 0.794656 -0.618039)
(-0.231829 0.824266 -0.634677)
(-0.23565 0.767669 -0.608132)
(-0.226846 0.80745 -0.628629)
(-0.214656 0.630604 -0.844001)
(-0.20965 0.629456 -0.820107)
(-0.208844 0.593176 -0.816708)
(-0.207116 0.566055 -0.825542)
(-0.216138 0.584286 -0.835626)
(-0.237279 0.631313 -0.846226)
(-0.219482 0.644887 -0.826617)
(-0.226318 0.531115 -0.813098)
(-0.219354 0.492285 -0.817137)
(-0.213584 0.588928 -0.812444)
(-0.212109 0.530085 -0.828725)
(-0.202689 0.515918 -0.810427)
(-0.227497 0.567405 -0.807827)
(-0.208108 0.512891 -0.810567)
(-0.226949 0.613007 -0.816868)
(-0.219436 0.582926 -0.847349)
(-0.220351 0.542806 -0.826083)
(-0.214556 0.530186 -0.796011)
(-0.0955922 0.615625 -0.591842)
(-0.0882645 0.609547 -0.591853)
(-0.0831093 0.603966 -0.60206)
(-0.0795601 0.594947 -0.587208)
(-0.086911 0.599608 -0.587144)
(-0.0633894 0.47228 -0.476891)
(-0.0627562 0.535391 -0.531198)
(-0.0585771 0.526821 -0.554231)
(-0.0807891 0.563737 -0.599555)
(-0.0347814 0.420693 -0.464634)
(-0.0724722 0.558018 -0.556342)
(-0.0660042 0.525404 -0.50978)
(-0.0628845 0.480247 -0.480452)
(-0.0616038 0.495905 -0.483396)
(-0.0543292 0.495489 -0.494694)
(-0.0421113 0.479889 -0.518023)
(-0.0484446 0.469469 -0.480959)
(-0.0403038 0.43501 -0.45379)
(-0.0469361 0.404593 -0.416171)
(-0.134569 0.596337 -0.494196)
(-0.150259 0.657752 -0.55093)
(-0.145472 0.597353 -0.509298)
(-0.135889 0.528957 -0.463687)
(-0.139098 0.641648 -0.523533)
(-0.157218 0.719652 -0.580852)
(-0.1474 0.714673 -0.573414)
(-0.128629 0.565325 -0.491059)
(-0.119265 0.503733 -0.449269)
(-0.120414 0.542539 -0.46309)
(-0.118597 0.579491 -0.476927)
(-0.144138 0.650643 -0.549111)
(-0.143997 0.716504 -0.596231)
(-0.152242 0.717006 -0.598935)
(-0.126152 0.61338 -0.518148)
(-0.166877 0.189456 -0.589562)
(-0.170357 0.230804 -0.608807)
(-0.19719 0.285247 -0.612406)
(-0.206527 0.332624 -0.639755)
(-0.200715 0.346322 -0.625279)
(-0.178872 0.192663 -0.562992)
(-0.194676 0.228741 -0.578684)
(-0.202905 0.2989 -0.606415)
(-0.204959 0.312762 -0.627396)
(-0.208938 0.223632 -0.57466)
(-0.196231 0.197031 -0.556534)
(-0.176405 0.180554 -0.588094)
(-0.175754 0.145027 -0.530392)
(-0.201036 0.179267 -0.54785)
(-0.191434 0.149679 -0.524429)
(-0.201252 0.217154 -0.583034)
(-0.158477 0.109776 -0.723877)
(-0.163139 0.118989 -0.746217)
(-0.203691 0.211804 -0.680695)
(-0.195423 0.19176 -0.698358)
(-0.208933 0.101381 -0.627004)
(-0.204522 0.135779 -0.647371)
(-0.202764 0.208234 -0.685169)
(-0.166843 0.0909133 -0.702983)
(-0.185625 0.128423 -0.674574)
(-0.20179 0.201536 -0.702824)
(-0.207261 0.109092 -0.613518)
(-0.199633 0.0639099 -0.580447)
(-0.19707 0.114393 -0.654121)
(-0.184686 0.0813228 -0.626423)
(-0.186074 0.0649328 -0.628047)
(-0.203093 0.13 -0.652162)
(-0.189989 0.0402726 -0.597214)
(-0.0527332 0.358941 -0.439114)
(-0.0672343 0.403795 -0.469861)
(-0.0626836 0.356491 -0.430623)
(-0.0530639 0.315292 -0.390716)
(-0.0983728 0.45766 -0.495714)
(-0.0631447 0.409844 -0.46315)
(-0.155139 0.586098 -0.774418)
(-0.151409 0.604878 -0.7771)
(-0.168775 0.594951 -0.747286)
(-0.193274 0.627658 -0.740862)
(-0.179717 0.621498 -0.75306)
(-0.176241 0.626672 -0.761256)
(-0.197973 0.636826 -0.76019)
(-0.173855 0.585153 -0.734084)
(-0.161033 0.621491 -0.753699)
(-0.190831 0.650844 -0.734488)
(-0.194777 0.655511 -0.743428)
(-0.177617 0.651598 -0.740584)
(-0.252668 0.7171 -0.772143)
(-0.243811 0.733392 -0.793705)
(-0.250717 0.725541 -0.790895)
(-0.238 0.73998 -0.760004)
(-0.252291 0.75846 -0.781362)
(-0.234865 0.701279 -0.787371)
(-0.214913 0.667173 -0.768684)
(-0.233909 0.718606 -0.79377)
(-0.203333 0.639713 -0.744774)
(-0.235795 0.683156 -0.74174)
(-0.249164 0.736022 -0.775845)
(-0.231684 0.69508 -0.734812)
(-0.227701 0.686118 -0.740653)
(-0.23776 0.713593 -0.746813)
(-0.219145 0.671062 -0.75402)
(-0.219707 0.655993 -0.763859)
(-0.240121 0.711252 -0.765819)
(-0.237837 0.727672 -0.765386)
(-0.0424881 0.479508 -0.54524)
(-0.0401411 0.452398 -0.533881)
(-0.0703693 0.516433 -0.5956)
(-0.0944845 0.579801 -0.636642)
(-0.0695656 0.556794 -0.613958)
(-0.12586 0.603586 -0.643218)
(-0.0914958 0.596354 -0.613462)
(-0.116475 0.610397 -0.626707)
(-0.0866551 0.582771 -0.599985)
(-0.0828904 0.546606 -0.581868)
(-0.0936813 0.583976 -0.610502)
(-0.0494647 0.49219 -0.534195)
(-0.0417 0.460295 -0.528756)
(-0.115482 0.609525 -0.63249)
(-0.0797548 0.535808 -0.593715)
(-0.0914683 0.555035 -0.618065)
(-0.168682 0.731354 -0.618467)
(-0.18169 0.760037 -0.625338)
(-0.182205 0.753575 -0.648284)
(-0.179971 0.761255 -0.633336)
(-0.177133 0.765323 -0.616377)
(-0.188139 0.784061 -0.648521)
(-0.20319 0.758002 -0.640259)
(-0.189892 0.624032 -0.56139)
(-0.172624 0.718581 -0.588276)
(-0.162876 0.745553 -0.595964)
(-0.187314 0.78122 -0.632761)
(-0.186072 0.738025 -0.591488)
(-0.183439 0.762735 -0.609751)
(-0.177064 0.769005 -0.62251)
(-0.191457 0.645116 -0.575456)
(-0.193138 0.689587 -0.586918)
(-0.186541 0.770737 -0.625651)
(-0.199114 0.781495 -0.643841)
(-0.194015 0.746458 -0.623901)
(-0.17991 0.432306 -0.958246)
(-0.179475 0.418078 -0.941343)
(-0.189312 0.481621 -0.91515)
(-0.192104 0.460589 -0.933859)
(-0.167533 0.432215 -0.870046)
(-0.157614 0.449881 -0.843745)
(-0.17758 0.397933 -0.950926)
(-0.188955 0.478973 -0.947928)
(-0.150649 0.383585 -0.878244)
(-0.147981 0.400942 -0.850675)
(-0.182811 0.408767 -0.906775)
(-0.170295 0.457011 -0.875396)
(-0.170835 0.500931 -0.901431)
(-0.173456 0.387967 -0.918774)
(-0.172679 0.436667 -0.95971)
(-0.174628 0.464344 -0.914459)
(-0.158999 0.66683 -0.735682)
(-0.147973 0.660277 -0.726486)
(-0.173122 0.66891 -0.74081)
(-0.126684 0.642494 -0.723514)
(-0.128791 0.641954 -0.72894)
(-0.159041 0.62296 -0.738655)
(-0.180154 0.648021 -0.738005)
(-0.14328 0.640053 -0.739254)
(-0.137546 0.626344 -0.738783)
(-0.160187 0.616268 -0.752662)
(-0.163849 0.632835 -0.747986)
(-0.122566 0.617918 -0.737356)
(-0.109926 0.614974 -0.751899)
(-0.160211 0.147655 -0.75987)
(-0.143933 0.2262 -0.797949)
(-0.145427 0.274606 -0.807379)
(-0.178981 0.11646 -0.739341)
(-0.149079 0.229587 -0.782174)
(-0.165464 0.16607 -0.771805)
(-0.173266 0.261655 -0.757702)
(-0.175423 0.190348 -0.742401)
(-0.197496 0.181148 -0.716206)
(-0.175559 0.113851 -0.69138)
(-0.1726 0.248342 -0.753619)
(-0.152918 0.294645 -0.789267)
(-0.204044 0.226626 -0.729033)
(-0.192719 0.180805 -0.68971)
(-0.143618 0.324651 -0.806593)
(-0.188468 0.235496 -0.72359)
(-0.195773 0.247093 -0.731414)
(-0.188957 0.272479 -0.720457)
(-0.172642 0.512607 -0.83563)
(-0.170993 0.535386 -0.884051)
(-0.193227 0.542211 -0.902436)
(-0.18996 0.529334 -0.899902)
(-0.173581 0.538383 -0.889959)
(-0.160547 0.511807 -0.84155)
(-0.155459 0.496279 -0.850584)
(-0.147544 0.466595 -0.844624)
(-0.147174 0.454874 -0.838352)
(-0.168772 0.54562 -0.87334)
(-0.165353 0.511561 -0.891277)
(-0.14154 0.490026 -0.88093)
(-0.150654 0.514346 -0.899611)
(-0.181262 0.548703 -0.869145)
(-0.188334 0.552708 -0.70785)
(-0.185814 0.554738 -0.705868)
(-0.197538 0.58425 -0.733009)
(-0.184956 0.584578 -0.705111)
(-0.209573 0.609509 -0.70146)
(-0.199689 0.570008 -0.695518)
(-0.200228 0.591801 -0.715218)
(-0.183167 0.548365 -0.696976)
(-0.196492 0.627639 -0.722553)
(-0.196039 0.629403 -0.698291)
(-0.20131 0.609825 -0.708687)
(-0.206647 0.595331 -0.688831)
(-0.212963 0.617082 -0.691466)
(-0.186166 0.584294 -0.681754)
(-0.213089 0.619905 -0.685901)
(-0.219851 0.648262 -0.707385)
(-0.192728 0.562036 -0.687088)
(-0.104027 0.629005 -0.643486)
(-0.0746437 0.579318 -0.624998)
(-0.0864731 0.584802 -0.626934)
(-0.142008 0.699528 -0.681042)
(-0.098268 0.592567 -0.658362)
(-0.103278 0.622832 -0.641768)
(-0.135064 0.647281 -0.67972)
(-0.165182 0.526436 -0.614892)
(-0.176407 0.527153 -0.626819)
(-0.183154 0.531243 -0.639758)
(-0.18637 0.541493 -0.616458)
(-0.160293 0.473879 -0.60458)
(-0.160268 0.503012 -0.610899)
(-0.133573 0.386239 -0.572107)
(-0.146724 0.363977 -0.543587)
(-0.186751 0.491921 -0.606682)
(-0.185811 0.434082 -0.580925)
(-0.179209 0.425314 -0.568077)
(-0.184335 0.48918 -0.59309)
(-0.186198 0.45968 -0.583467)
(-0.166173 0.433506 -0.586954)
(-0.162786 0.446438 -0.587038)
(-0.135568 0.35529 -0.57123)
(-0.132098 0.338772 -0.560885)
(-0.176722 0.389002 -0.567602)
(-0.164899 0.357379 -0.560092)
(-0.170225 0.445068 -0.610369)
(-0.174934 0.450431 -0.583214)
(-0.246838 0.847206 -0.643349)
(-0.247653 0.843221 -0.634392)
(-0.227274 0.855782 -0.653472)
(-0.241843 0.836724 -0.667178)
(-0.243611 0.827222 -0.648636)
(-0.24558 0.8628 -0.672643)
(-0.24103 0.863432 -0.660069)
(-0.244102 0.832199 -0.643324)
(-0.220352 0.838903 -0.629723)
(-0.235049 0.850314 -0.646949)
(-0.242938 0.815027 -0.639116)
(-0.238167 0.822415 -0.626745)
(-0.244854 0.848562 -0.654099)
(-0.244016 0.866756 -0.66701)
(-0.232254 0.858534 -0.632073)
(-0.228995 0.814315 -0.622556)
(0.00727239 0.164807 -0.912746)
(-0.0086454 0.209057 -0.905394)
(-0.0499644 0.261748 -0.904501)
(-0.0379986 0.264364 -0.921797)
(-0.0803056 0.253707 -0.878948)
(-0.060434 0.238845 -0.88602)
(0.0166819 0.0259551 -0.867088)
(0.00245615 0.0448967 -0.891279)
(-0.0105918 0.153948 -0.874705)
(-0.0190224 0.162645 -0.881654)
(-0.0516979 0.170468 -0.871536)
(0.0145458 0.132807 -0.911832)
(0.00608791 0.0972271 -0.889208)
(-0.0507637 0.188667 -0.892927)
(0.0248313 0.0825101 -0.876248)
(0.00306817 0.0763342 -0.871885)
(-0.192567 0.3174 -0.668553)
(-0.178123 0.356016 -0.678245)
(-0.181193 0.442424 -0.71394)
(-0.193145 0.411471 -0.713413)
(-0.166788 0.386678 -0.730126)
(-0.165653 0.402174 -0.742125)
(-0.197842 0.325415 -0.687024)
(-0.165508 0.310367 -0.686003)
(-0.171742 0.290867 -0.672672)
(-0.155665 0.325735 -0.742134)
(-0.157015 0.329206 -0.740757)
(-0.166232 0.414396 -0.732307)
(-0.188231 0.268204 -0.677882)
(-0.164056 0.256088 -0.68404)
(-0.160201 0.339059 -0.726241)
(-0.196081 0.624999 -0.781885)
(-0.20892 0.641727 -0.768328)
(-0.191115 0.612658 -0.761279)
(-0.183581 0.638636 -0.769564)
(-0.230465 0.680485 -0.780441)
(-0.217186 0.654515 -0.763673)
(-0.206767 0.652854 -0.754757)
(-0.214651 0.637094 -0.758889)
(-0.210841 0.675212 -0.772727)
(-0.209722 0.626524 -0.744295)
(-0.257497 0.712184 -0.820418)
(-0.24194 0.68946 -0.831189)
(-0.237063 0.696854 -0.815705)
(-0.237609 0.723503 -0.804821)
(-0.234186 0.692519 -0.803563)
(-0.230573 0.71863 -0.774878)
(-0.231367 0.694606 -0.793744)
(-0.230521 0.720563 -0.795222)
(-0.235052 0.700094 -0.826458)
(-0.249974 0.71179 -0.808039)
(-0.249418 0.720148 -0.79615)
(-0.234453 0.738669 -0.786714)
(-0.249554 0.740776 -0.815574)
(-0.196041 0.729662 -0.668028)
(-0.213658 0.705701 -0.685577)
(-0.204222 0.710772 -0.674733)
(-0.193645 0.713725 -0.680194)
(-0.184586 0.595617 -0.604501)
(-0.199194 0.51766 -0.603155)
(-0.191615 0.528903 -0.59559)
(-0.187787 0.558209 -0.594425)
(-0.192444 0.687968 -0.676166)
(-0.180962 0.593053 -0.610645)
(-0.194121 0.536031 -0.612075)
(-0.178881 0.518255 -0.56536)
(-0.198311 0.724147 -0.697312)
(-0.199791 0.557565 -0.624928)
(-0.213801 0.569774 -0.641356)
(-0.203142 0.684718 -0.685053)
(-0.170155 0.75535 -0.590106)
(-0.181328 0.776659 -0.600802)
(-0.171246 0.777153 -0.587898)
(-0.155367 0.72322 -0.569376)
(-0.157494 0.79165 -0.600967)
(-0.16642 0.786331 -0.611969)
(-0.144663 0.735712 -0.572162)
(-0.154666 0.752481 -0.589572)
(-0.177086 0.807054 -0.619275)
(-0.175589 0.811127 -0.610941)
(-0.170012 0.775895 -0.616588)
(-0.168913 0.785166 -0.619742)
(-0.166121 0.795176 -0.594186)
(-0.153221 0.759949 -0.583355)
(-0.153271 0.739528 -0.583798)
(-0.141041 0.706925 -0.555842)
(-0.151451 0.724013 -0.552994)
(-0.150996 0.74858 -0.562704)
(-0.137645 0.614301 -0.661337)
(-0.142124 0.645005 -0.658204)
(-0.115473 0.604979 -0.678)
(-0.0976982 0.567639 -0.633684)
(-0.0791655 0.51616 -0.603978)
(-0.0949656 0.496338 -0.62832)
(-0.0742871 0.469999 -0.599348)
(-0.0981634 0.51521 -0.60543)
(-0.104578 0.502238 -0.611259)
(-0.0780465 0.478455 -0.596094)
(-0.0717884 0.472836 -0.582984)
(-0.132543 0.613498 -0.651121)
(-0.134288 0.630794 -0.639139)
(-0.135158 0.556009 -0.649566)
(-0.12518 0.564274 -0.63632)
(-0.129059 0.581121 -0.636038)
(-0.079979 0.501238 -0.596862)
(-0.233093 0.815664 -0.713221)
(-0.248022 0.825842 -0.703282)
(-0.225008 0.77023 -0.721605)
(-0.220397 0.729521 -0.702732)
(-0.209525 0.69598 -0.686629)
(-0.218165 0.759272 -0.714574)
(-0.233666 0.815072 -0.700434)
(-0.225905 0.731297 -0.715613)
(-0.240386 0.818073 -0.730831)
(-0.244069 0.819934 -0.711696)
(-0.199269 0.693686 -0.678309)
(-0.22302 0.773477 -0.707265)
(-0.234502 0.800704 -0.697641)
(-0.232547 0.822782 -0.719977)
(-0.0657947 0.514505 -0.559698)
(-0.0494568 0.473848 -0.5242)
(-0.0890758 0.591561 -0.626501)
(-0.0639422 0.521657 -0.557986)
(-0.0793771 0.571978 -0.632089)
(-0.0824131 0.550852 -0.649563)
(-0.072013 0.580943 -0.625527)
(-0.0676502 0.522718 -0.548152)
(-0.0799062 0.592611 -0.618508)
(-0.092916 0.589725 -0.644925)
(-0.0820604 0.575386 -0.654534)
(-0.027447 0.450146 -0.537397)
(-0.015077 0.43129 -0.510949)
(-0.0462256 0.47229 -0.582006)
(-0.033663 0.455515 -0.542304)
(-0.0435876 0.452181 -0.50882)
(-0.0313382 0.469229 -0.543517)
(-0.0489247 0.490074 -0.530281)
(-0.0505604 0.518533 -0.560294)
(-0.0816105 0.468798 -0.88904)
(-0.0822976 0.459941 -0.892052)
(-0.0612728 0.4203 -0.86127)
(-0.0365606 0.402975 -0.83394)
(-0.116479 0.501334 -0.891559)
(-0.0988195 0.474941 -0.88817)
(-0.0980932 0.491194 -0.875753)
(-0.111766 0.496284 -0.884181)
(-0.0826772 0.463329 -0.901615)
(-0.110076 0.522099 -0.897116)
(-0.0553664 0.434227 -0.904282)
(-0.0601106 0.431128 -0.892178)
(-0.0585247 0.443792 -0.880732)
(-0.0814558 0.480228 -0.902873)
(-0.0671188 0.451995 -0.880429)
(-0.0884689 0.446225 -0.865343)
(-0.0680802 0.437616 -0.858087)
(-0.0938602 0.479136 -0.903789)
(-0.0847971 0.476844 -0.911403)
(-0.0995131 0.179105 -0.676134)
(-0.108958 0.178184 -0.672641)
(-0.0921522 0.148072 -0.674082)
(-0.11001 0.296797 -0.759208)
(-0.123506 0.272566 -0.746781)
(-0.126707 0.287512 -0.714245)
(-0.119177 0.251659 -0.700742)
(-0.126301 0.279902 -0.757321)
(-0.130275 0.319552 -0.735399)
(-0.10119 0.172371 -0.702368)
(-0.104419 0.132264 -0.638725)
(-0.106641 0.127835 -0.658267)
(-0.133933 0.295721 -0.751713)
(-0.158766 0.297061 -0.718717)
(-0.108548 0.101222 -0.688406)
(-0.10882 0.0930799 -0.647879)
(-0.127964 0.145781 -0.706807)
(-0.126037 0.175735 -0.669862)
(-0.141916 0.226553 -0.847686)
(-0.126475 0.182767 -0.833124)
(-0.126957 0.204682 -0.818251)
(-0.107242 0.143455 -0.82593)
(-0.102048 0.192369 -0.838576)
(-0.0985063 0.226502 -0.82186)
(-0.165751 0.291421 -0.855202)
(-0.16794 0.396003 -0.874124)
(-0.141571 0.368544 -0.852822)
(-0.173161 0.415806 -0.891246)
(-0.188092 0.396939 -0.904538)
(-0.161099 0.426704 -0.872195)
(-0.19327 0.438694 -0.894117)
(-0.176543 0.397177 -0.900447)
(-0.132678 0.242909 -0.888914)
(-0.179797 0.431033 -0.913226)
(-0.186371 0.388598 -0.928024)
(-0.106257 0.388885 -0.998904)
(-0.0960806 0.374818 -0.991377)
(-0.074716 0.370463 -0.991449)
(-0.0788612 0.316545 -0.930876)
(-0.108273 0.364565 -1.01596)
(-0.203204 0.337523 -0.450918)
(-0.204265 0.31224 -0.428899)
(-0.198126 0.356656 -0.488906)
(-0.201052 0.318099 -0.464145)
(-0.193275 0.396605 -0.508041)
(-0.200327 0.337208 -0.47531)
(-0.192202 0.328014 -0.458393)
(-0.187768 0.318795 -0.453175)
(-0.210505 0.469541 -0.532653)
(-0.208454 0.461458 -0.513)
(-0.206667 0.399004 -0.479317)
(-0.202582 0.348803 -0.451133)
(-0.202405 0.399418 -0.49272)
(-0.193629 0.284877 -0.434434)
(-0.21159 0.480747 -0.531271)
(-0.208892 0.497328 -0.527383)
(-0.192502 0.389744 -0.486515)
(-0.196926 0.41627 -0.489322)
(-0.203276 0.429322 -0.499713)
(-0.193973 0.369188 -0.461904)
(-0.0874385 0.324393 -0.867337)
(-0.113975 0.37323 -0.85101)
(-0.0858601 0.306646 -0.870233)
(-0.078212 0.342186 -0.859842)
(-0.0635415 0.357067 -0.899349)
(-0.0504429 0.317802 -0.894656)
(-0.0905735 0.368766 -0.861108)
(-0.0859657 0.369959 -0.892778)
(-0.0611538 0.343449 -0.868912)
(-0.198428 0.557266 -0.870073)
(-0.221325 0.61527 -0.870654)
(-0.201717 0.58252 -0.845595)
(-0.210076 0.583987 -0.849159)
(-0.216765 0.629698 -0.870776)
(-0.224101 0.592076 -0.908994)
(-0.216779 0.585129 -0.898243)
(-0.199306 0.561955 -0.861691)
(-0.180667 0.510149 -0.81852)
(-0.207619 0.579179 -0.85545)
(-0.22845 0.58193 -0.929291)
(-0.216239 0.510243 -0.900668)
(-0.233515 0.59445 -0.931489)
(-0.22998 0.560941 -0.918181)
(-0.217101 0.606541 -0.866723)
(-0.2223 0.599824 -0.883354)
(-0.194989 0.503795 -0.85369)
(-0.201143 0.471772 -0.875581)
(-0.214118 0.578786 -0.852234)
(-0.177511 0.4921 -0.834524)
(-0.210595 0.498754 -0.882309)
(-0.236688 0.579954 -0.892713)
(-0.21218 0.546031 -0.887057)
(-0.230135 0.610882 -0.901017)
(-0.147193 0.557093 -0.864576)
(-0.113095 0.525383 -0.873697)
(-0.135461 0.533769 -0.861205)
(-0.121041 0.525379 -0.847437)
(-0.156669 0.571883 -0.852411)
(-0.17322 0.58016 -0.85095)
(-0.168774 0.586881 -0.846609)
(-0.186739 0.603695 -0.81394)
(-0.183198 0.604286 -0.844896)
(-0.143841 0.580815 -0.835867)
(-0.118086 0.563437 -0.838845)
(-0.118058 0.541865 -0.835308)
(-0.128026 0.539668 -0.841299)
(-0.131545 0.545836 -0.83781)
(-0.153814 0.573564 -0.811037)
(-0.16488 0.578325 -0.840489)
(-0.152706 0.569276 -0.833368)
(-0.159242 0.588232 -0.825403)
(-0.138323 0.462049 -0.797334)
(-0.133807 0.37627 -0.798479)
(-0.108038 0.4494 -0.802605)
(-0.112151 0.426408 -0.806631)
(-0.0621776 0.295094 -0.826188)
(-0.0752602 0.303274 -0.814002)
(-0.0840243 0.367129 -0.835647)
(-0.0935068 0.348049 -0.826779)
(-0.113123 0.467756 -0.806788)
(-0.110157 0.432382 -0.818746)
(-0.0893565 0.434157 -0.85075)
(-0.120842 0.402747 -0.814456)
(-0.115411 0.41628 -0.798491)
(-0.0684914 0.319382 -0.825686)
(-0.105475 0.4525 -0.82914)
(-0.0857158 0.42758 -0.834243)
(-0.0840872 0.337882 -0.781148)
(-0.0859898 0.359338 -0.817687)
(-0.0513287 0.34992 -0.821903)
(-0.106051 0.463738 -0.832767)
(-0.0759023 0.317315 -0.795692)
(-0.158263 0.7371 -0.662258)
(-0.171296 0.749768 -0.665126)
(-0.123832 0.603493 -0.536763)
(-0.145977 0.559626 -0.519345)
(-0.148014 0.584181 -0.535503)
(-0.134025 0.645714 -0.561688)
(-0.160087 0.671981 -0.598308)
(-0.158313 0.735381 -0.628584)
(-0.17251 0.754592 -0.649114)
(-0.152496 0.7322 -0.655581)
(-0.15045 0.647049 -0.60986)
(-0.15925 0.720966 -0.650453)
(-0.13276 0.588696 -0.535343)
(-0.118349 0.627574 -0.554263)
(-0.148716 0.603109 -0.55286)
(-0.161446 0.706837 -0.626957)
(-0.158641 0.74352 -0.651435)
(-0.14324 0.699522 -0.612111)
(-0.140245 0.726572 -0.641624)
(-0.12854 0.676749 -0.619125)
(-0.157978 0.668988 -0.615066)
(-0.13635 0.594107 -0.57869)
(-0.165109 0.692389 -0.627172)
(-0.146551 0.598843 -0.550425)
(-0.150475 0.603038 -0.55457)
(-0.243438 0.861956 -0.660652)
(-0.244769 0.876158 -0.681322)
(-0.240327 0.856531 -0.676202)
(-0.16698 0.716821 -0.5715)
(-0.169154 0.700813 -0.571497)
(-0.162807 0.619738 -0.52748)
(-0.161111 0.632089 -0.523433)
(-0.149894 0.591912 -0.50685)
(-0.157622 0.636054 -0.538989)
(-0.172543 0.570563 -0.533636)
(-0.153336 0.511592 -0.494861)
(-0.168386 0.622565 -0.515793)
(-0.155304 0.577514 -0.508863)
(-0.143364 0.531792 -0.470348)
(-0.171006 0.612116 -0.541603)
(-0.156067 0.559799 -0.49557)
(-0.116535 0.427639 -0.90259)
(-0.1062 0.395387 -0.875366)
(-0.106074 0.417429 -0.904211)
(-0.137802 0.441496 -0.859587)
(-0.154417 0.475409 -0.884044)
(-0.161644 0.455917 -0.797115)
(-0.161079 0.489215 -0.862258)
(-0.116041 0.355621 -0.834252)
(-0.116648 0.357806 -0.83294)
(-0.151169 0.444067 -0.837571)
(-0.142018 0.435039 -0.818606)
(-0.152307 0.46036 -0.805288)
(-0.166495 0.481109 -0.856247)
(-0.15361 0.383238 -0.8139)
(-0.155187 0.403282 -0.815429)
(-0.150777 0.391377 -0.774718)
(-0.148778 0.423254 -0.777262)
(-0.232795 0.786375 -0.748175)
(-0.24566 0.791023 -0.751832)
(-0.220148 0.76541 -0.720161)
(-0.228032 0.800204 -0.737741)
(-0.264664 0.820854 -0.743366)
(-0.249781 0.823986 -0.716479)
(-0.23183 0.807368 -0.728433)
(-0.247871 0.800237 -0.741377)
(-0.25614 0.814979 -0.732059)
(-0.235757 0.812744 -0.737262)
(-0.231185 0.824479 -0.726804)
(-0.232603 0.786445 -0.715204)
(-0.257967 0.825713 -0.709646)
(-0.271484 0.838127 -0.719487)
(-0.254868 0.812419 -0.726951)
(-0.248058 0.820543 -0.728101)
(-0.245564 0.812081 -0.740679)
(-0.235168 0.804945 -0.735931)
(-0.0727854 0.425566 -0.860458)
(-0.0222342 0.389678 -0.873757)
(-0.0198313 0.403846 -0.862545)
(-0.0264339 0.351228 -0.828696)
(-0.0311674 0.3613 -0.834002)
(-0.0552633 0.41345 -0.866021)
(-0.0464788 0.39574 -0.859447)
(-0.0632872 0.392285 -0.87092)
(0.00694854 0.336541 -0.859859)
(-0.0149546 0.34867 -0.847416)
(-0.00261116 0.364061 -0.880014)
(-0.0841221 0.415157 -0.861309)
(-0.0731992 0.40435 -0.861557)
(-0.0716046 0.407407 -0.868786)
(-0.0626547 0.38254 -0.893441)
(-0.0219929 0.359426 -0.882547)
(-0.0144154 0.324608 -0.858992)
(-0.00441613 0.333246 -0.866655)
(-0.00709857 0.327923 -0.87568)
(-0.19254 0.381364 -0.993449)
(-0.174339 0.379443 -1.01045)
(-0.166193 0.39507 -0.989787)
(-0.180064 0.425339 -0.984236)
(-0.195673 0.435552 -0.96064)
(-0.180508 0.342963 -0.974345)
(-0.164533 0.401568 -0.963333)
(-0.180003 0.360313 -0.985099)
(-0.181431 0.413505 -0.970891)
(-0.168246 0.419275 -0.973411)
(-0.163457 0.336823 -0.989997)
(-0.157693 0.419019 -1.00065)
(-0.163701 0.457514 -0.984136)
(-0.156447 0.40787 -0.973558)
(-0.153178 0.423891 -0.983026)
(-0.166431 0.368544 -0.966452)
(-0.160097 0.37589 -0.996665)
(-0.153955 0.398261 -0.988052)
(-0.159364 0.359614 -0.970027)
(-0.131644 0.674858 -0.630001)
(-0.122301 0.669812 -0.631692)
(-0.135424 0.715634 -0.61937)
(-0.11574 0.678798 -0.608244)
(-0.126099 0.693102 -0.632611)
(-0.139951 0.691825 -0.637237)
(-0.121626 0.691155 -0.631239)
(-0.12002 0.704802 -0.613252)
(-0.152489 0.667671 -0.623209)
(-0.139456 0.661383 -0.624237)
(-0.149453 0.736263 -0.630126)
(-0.130371 0.729517 -0.612217)
(-0.153559 0.751901 -0.620336)
(-0.155915 0.75497 -0.639912)
(-0.124444 0.663783 -0.626542)
(-0.134326 0.72113 -0.619037)
(-0.177038 0.707823 -0.623806)
(-0.182417 0.713956 -0.64827)
(-0.162709 0.768355 -0.635925)
(-0.150455 0.767585 -0.647085)
(-0.174496 0.742334 -0.635001)
(-0.178472 0.727188 -0.635483)
(-0.160744 0.762082 -0.650884)
(-0.172249 0.746532 -0.652192)
(-0.172066 0.65689 -0.529939)
(-0.16248 0.618695 -0.515426)
(-0.16781 0.606006 -0.502222)
(-0.153916 0.564881 -0.496303)
(-0.179724 0.664794 -0.551915)
(-0.184198 0.786618 -0.599689)
(-0.198799 0.808387 -0.620358)
(-0.157792 0.546077 -0.476672)
(-0.176085 0.74009 -0.576581)
(-0.173112 0.766354 -0.580366)
(-0.168288 0.593202 -0.516472)
(-0.199125 0.794813 -0.617744)
(-0.164076 0.642402 -0.503041)
(-0.158752 0.610473 -0.501332)
(-0.178637 0.662458 -0.545966)
(-0.152893 0.624718 -0.50817)
(-0.149944 0.573942 -0.474706)
(-0.0479858 0.515278 -0.46364)
(-0.0347933 0.462986 -0.431271)
(-0.0546583 0.52598 -0.465682)
(-0.0731317 0.60229 -0.537422)
(-0.0658469 0.572417 -0.535677)
(-0.0247364 0.417167 -0.399532)
(-0.0346722 0.475844 -0.43648)
(-0.0683523 0.569049 -0.525116)
(-0.0587033 0.514011 -0.482923)
(-0.045253 0.505591 -0.466796)
(-0.0392636 0.457527 -0.443627)
(-0.0212202 0.407887 -0.402482)
(-0.0521936 0.478782 -0.450309)
(-0.0436336 0.442033 -0.435852)
(-0.0531989 0.468563 -0.467097)
(-0.0617216 0.494469 -0.482872)
(-0.0673051 0.390917 -0.601269)
(-0.055326 0.339008 -0.567281)
(-0.0837297 0.399234 -0.609716)
(-0.0802451 0.413721 -0.615452)
(-0.0339634 0.278198 -0.539858)
(-0.13238 0.492747 -0.67224)
(-0.114599 0.460903 -0.683032)
(-0.050954 0.307998 -0.569746)
(-0.0647572 0.383402 -0.617306)
(-0.0816302 0.417996 -0.613631)
(-0.0675583 0.361698 -0.592917)
(-0.1427 0.499806 -0.696529)
(-0.122638 0.477246 -0.691226)
(-0.0597215 0.323545 -0.597871)
(-0.0748351 0.353444 -0.633507)
(-0.042688 0.316819 -0.564779)
(-0.0786302 0.372376 -0.636986)
(-0.047416 0.304286 -0.580941)
(-0.10648 0.450526 -0.642167)
(-0.0873987 0.388231 -0.623993)
(-0.184599 0.682867 -0.67915)
(-0.177528 0.66777 -0.667398)
(-0.197566 0.726265 -0.670407)
(-0.188271 0.704018 -0.675561)
(-0.201533 0.711831 -0.689647)
(-0.181223 0.691302 -0.676372)
(-0.118309 0.524562 -0.574649)
(-0.121674 0.541726 -0.571903)
(-0.183854 0.689073 -0.65322)
(-0.196939 0.721371 -0.679147)
(-0.175178 0.673369 -0.650967)
(-0.134668 0.566872 -0.598831)
(-0.111956 0.50264 -0.560812)
(-0.134485 0.571631 -0.617993)
(-0.134909 0.550637 -0.570424)
(-0.120039 0.491723 -0.536421)
(-0.139865 0.572918 -0.589734)
(-0.152466 0.609306 -0.621266)
(-0.146922 0.57903 -0.582734)
(-0.0618217 0.255589 -0.590918)
(-0.0482573 0.218379 -0.574983)
(-0.0987834 0.346069 -0.656065)
(-0.1105 0.370426 -0.643062)
(-0.0572616 0.30049 -0.619854)
(-0.050596 0.265587 -0.609725)
(-0.107194 0.392694 -0.666054)
(-0.130513 0.369689 -0.651569)
(-0.127172 0.348096 -0.64608)
(-0.131031 0.415218 -0.665886)
(-0.11777 0.427412 -0.663394)
(-0.115526 0.373229 -0.641114)
(-0.0847581 0.293426 -0.60248)
(-0.107187 0.380287 -0.665026)
(-0.108899 0.371388 -0.680233)
(-0.0981965 0.371912 -0.681874)
(-0.0703727 0.247672 -0.598321)
(-0.046511 0.203617 -0.577752)
(-0.0577027 0.27204 -0.626908)
(-0.0695055 0.227457 -0.601198)
(-0.0890019 0.253719 -0.628596)
(-0.0688479 0.273564 -0.633816)
(-0.155462 0.614722 -0.716304)
(-0.137811 0.61605 -0.725849)
(-0.155536 0.55978 -0.727854)
(-0.154333 0.62582 -0.724844)
(-0.165557 0.615234 -0.718381)
(-0.148851 0.607497 -0.709265)
(-0.130425 0.60259 -0.736731)
(-0.124727 0.596851 -0.723217)
(-0.136085 0.552013 -0.729432)
(-0.148988 0.584648 -0.736871)
(-0.121324 0.573594 -0.709726)
(-0.129836 0.540485 -0.706634)
(-0.119095 0.52553 -0.714442)
(-0.131622 0.534318 -0.715954)
(-0.132725 0.58126 -0.713066)
(-0.124232 0.577272 -0.727484)
(-0.115625 0.548291 -0.726629)
(-0.18536 0.347343 -0.49445)
(-0.175463 0.333966 -0.487158)
(-0.174273 0.352112 -0.487391)
(-0.186192 0.333484 -0.488733)
(-0.172918 0.366189 -0.475357)
(-0.163017 0.33437 -0.485433)
(-0.179525 0.391246 -0.544653)
(-0.181217 0.354167 -0.485661)
(-0.174787 0.401287 -0.528568)
(-0.187983 0.522724 -0.57351)
(-0.195442 0.53825 -0.559892)
(-0.200921 0.438188 -0.534236)
(-0.204633 0.498106 -0.56684)
(-0.188276 0.421406 -0.504952)
(-0.181781 0.4529 -0.539661)
(-0.190557 0.50539 -0.554523)
(-0.19762 0.520698 -0.552183)
(-0.180127 0.451997 -0.544968)
(-0.202143 0.511729 -0.573002)
(-0.198157 0.504561 -0.573787)
(-0.19392 0.418757 -0.513267)
(-0.191542 0.456544 -0.52273)
(-0.222786 0.590439 -0.856714)
(-0.209584 0.529198 -0.858034)
(-0.215155 0.566931 -0.842169)
(-0.201206 0.537172 -0.822441)
(-0.246323 0.578407 -0.871492)
(-0.209769 0.550861 -0.856354)
(-0.227401 0.596579 -0.846985)
(-0.235496 0.628426 -0.876449)
(-0.242789 0.630513 -0.8717)
(-0.215735 0.576943 -0.887331)
(-0.24701 0.592133 -0.86109)
(-0.215104 0.580148 -0.858467)
(-0.235025 0.635909 -0.86857)
(-0.222946 0.618825 -0.879112)
(-0.198693 0.47441 -0.857313)
(-0.220906 0.572992 -0.862621)
(-0.23603 0.581236 -0.872146)
(-0.220059 0.546508 -0.865375)
(-0.240424 0.603347 -0.860143)
(-0.212952 0.525274 -0.857204)
(-0.233631 0.540625 -0.875035)
(-0.218731 0.508529 -0.859471)
(-0.203418 0.471553 -0.70534)
(-0.199718 0.492307 -0.716299)
(-0.215084 0.589621 -0.77873)
(-0.216059 0.629393 -0.774704)
(-0.230095 0.622452 -0.774669)
(-0.220742 0.617518 -0.75775)
(-0.206878 0.624116 -0.742522)
(-0.200524 0.461494 -0.676593)
(-0.193581 0.396179 -0.644011)
(-0.207164 0.439023 -0.67895)
(-0.195088 0.393488 -0.658934)
(-0.19733 0.422978 -0.693125)
(-0.219778 0.600329 -0.776227)
(-0.211202 0.510966 -0.715828)
(-0.207497 0.455036 -0.681091)
(-0.214161 0.610729 -0.755801)
(-0.207834 0.506686 -0.705152)
(-0.210606 0.481187 -0.714714)
(-0.205938 0.319037 -0.477547)
(-0.204894 0.362455 -0.503027)
(-0.21376 0.362478 -0.490259)
(-0.217071 0.476674 -0.541362)
(-0.212966 0.532598 -0.558492)
(-0.21971 0.533792 -0.562517)
(-0.203229 0.40538 -0.527386)
(-0.21821 0.472926 -0.559222)
(-0.210811 0.487777 -0.545493)
(-0.216724 0.495605 -0.549091)
(-0.196476 0.41274 -0.52768)
(-0.202054 0.431003 -0.509119)
(-0.205904 0.377032 -0.522313)
(-0.208292 0.328808 -0.472909)
(-0.199063 0.332484 -0.488228)
(-0.189821 0.262571 -0.422385)
(-0.214648 0.416517 -0.603169)