/*--------------------------------*- C++ -*----------------------------------*\
| =========                 |                                                 |
| \\      /  F ield         | OpenFOAM: The Open Source CFD Toolbox           |
|  \\    /   O peration     | Version:  v1612+                                |
|   \\  /    A nd           | Web:      www.OpenFOAM.com                      |
|    \\/     M anipulation  |                                                 |
\*---------------------------------------------------------------------------*/
FoamFile
{
    version     2.0;
    format      ascii;
    class       volVectorField;
    location    "100";
    object      wallShearStress;
}
// * * * * * * * * * * * * * * * * * * * * * * * * * * * * * * * * * * * * * //

dimensions      [0 2 -2 0 0 0 0];

internalField   uniform (0 0 0);

boundaryField
{
    WALL
    {
        type            calculated;
        value           nonuniform List<vector> 
1673
(
(0.00546853 -0.010727 0.00428359)
(0.00521844 -0.00981749 0.0037457)
(0.00523416 -0.0104707 0.00427026)
(0.00503157 -0.0104622 0.00453038)
(0.00457056 -0.00949518 0.00403971)
(0.00482528 -0.00966994 0.00411292)
(0.00485338 -0.0101597 0.00430375)
(0.00529954 -0.0102653 0.00428624)
(0.00478875 -0.00954867 0.00398205)
(0.00466658 -0.00954454 0.00402204)
(0.00494309 -0.00998974 0.00453341)
(0.00518414 -0.0106997 0.00415435)
(0.00529256 -0.0105202 0.00436943)
(0.00514844 -0.0103552 0.00424144)
(0.00516316 -0.0103399 0.00435052)
(0.0052761 -0.0102702 0.0041782)
(0.00491796 -0.00980671 0.00400838)
(0.00469288 -0.00941226 0.00405682)
(0.00508344 -0.0104213 0.00408119)
(0.00517307 -0.0106599 0.00436296)
(0.00506926 -0.010232 0.00424573)
(0.00534997 -0.0104809 0.00433819)
(0.00492471 -0.0105389 0.00427514)
(0.00534585 -0.0104856 0.00432587)
(0.00532121 -0.0105416 0.00426585)
(0.00542231 -0.01076 0.00423741)
(0.00483395 -0.0100696 0.00447184)
(0.00495845 -0.0100006 0.00414373)
(0.00512411 -0.0101534 0.00415167)
(0.00501496 -0.0100034 0.0041991)
(0.00494522 -0.0100874 0.00427116)
(0.00512328 -0.00986105 0.00401571)
(0.00520188 -0.010103 0.00407587)
(0.00498828 -0.0102636 0.00402002)
(0.00507989 -0.0103344 0.00452172)
(0.00527782 -0.0102492 0.00425226)
(0.00482815 -0.0103102 0.00437132)
(0.00517782 -0.0103929 0.0043225)
(0.00525426 -0.0107325 0.00442295)
(0.00570583 -0.0110116 0.00476947)
(0.00523375 -0.0105889 0.00442171)
(0.00505519 -0.0103381 0.00437135)
(0.00519141 -0.0104358 0.00433565)
(0.00490071 -0.0101176 0.00415724)
(0.00490763 -0.00993723 0.00413306)
(0.00548424 -0.0111833 0.00445555)
(0.00501074 -0.0102025 0.00427035)
(0.00539908 -0.0101496 0.00400723)
(0.00488013 -0.0101517 0.00426836)
(0.00503471 -0.0102148 0.00422426)
(0.00548247 -0.0110146 0.00453232)
(0.00509942 -0.0102628 0.00422416)
(0.00521342 -0.0104048 0.0041955)
(0.00526674 -0.0105619 0.00438845)
(0.00537746 -0.0107012 0.00436497)
(0.00497526 -0.0102059 0.0042143)
(0.00434378 -0.00983876 0.00473122)
(0.0050529 -0.0101228 0.00417201)
(0.00479078 -0.00990161 0.00436928)
(0.00517162 -0.0104576 0.00430779)
(0.00526119 -0.0103468 0.0041249)
(0.00494446 -0.0101318 0.00426433)
(0.00522659 -0.0105532 0.00420978)
(0.00503975 -0.0105867 0.00451294)
(0.00570062 -0.0112192 0.00449982)
(0.00520671 -0.010876 0.00422887)
(0.00532768 -0.0105553 0.00436793)
(0.0059054 -0.011761 0.00534803)
(0.00554151 -0.0115006 0.00438048)
(0.00583044 -0.0112909 0.00500048)
(0.00568645 -0.0108411 0.00511491)
(0.0051633 -0.0104497 0.00435977)
(0.00502471 -0.0102523 0.0042451)
(0.00524628 -0.0102123 0.0039299)
(0.00531405 -0.0105776 0.0044265)
(0.00538576 -0.00999511 0.00392767)
(0.00490802 -0.0100069 0.00433034)
(0.00497451 -0.010617 0.00410599)
(0.00552943 -0.0104721 0.00482031)
(0.0051179 -0.0104058 0.00442075)
(0.00544353 -0.0106251 0.00431344)
(0.00520558 -0.0106156 0.00442069)
(0.00534337 -0.0100714 0.00394813)
(0.00528369 -0.0101062 0.00407812)
(0.00546501 -0.0103039 0.00412573)
(0.00501745 -0.0098858 0.00398405)
(0.00527639 -0.0106158 0.00439477)
(0.0053361 -0.00997206 0.00408828)
(0.00506291 -0.00984316 0.00401939)
(0.00560868 -0.0111622 0.00467509)
(0.00544509 -0.0106785 0.00428368)
(0.00526174 -0.0103378 0.00416877)
(0.00530195 -0.0106664 0.00424929)
(0.00554345 -0.0105202 0.00414741)
(0.00554707 -0.0108059 0.00448543)
(0.0050513 -0.0102876 0.00441701)
(0.0048169 -0.0103584 0.00456432)
(0.00540869 -0.0110242 0.00435231)
(0.00512205 -0.010639 0.00413355)
(0.00480722 -0.0107067 0.00425939)
(0.00500351 -0.00991911 0.00402463)
(0.00556938 -0.0107535 0.00458445)
(0.00504057 -0.0103273 0.00426732)
(0.00494832 -0.0105206 0.00423096)
(0.00495909 -0.0100083 0.00401297)
(0.00512709 -0.0108365 0.00402036)
(0.0052253 -0.0105517 0.00435825)
(0.00573735 -0.0105164 0.0045842)
(0.00549069 -0.0104484 0.00451365)
(0.00489771 -0.0108162 0.00407379)
(0.00480827 -0.0100968 0.00374582)
(0.00517701 -0.0101935 0.00421016)
(0.00518515 -0.0102663 0.00440787)
(0.00528966 -0.0105836 0.00437045)
(0.00497787 -0.0110549 0.00400439)
(0.00500752 -0.00982625 0.00413364)
(0.00573927 -0.0106818 0.0046974)
(0.00511624 -0.0103811 0.00423095)
(0.00502502 -0.0104756 0.00403285)
(0.00505126 -0.0107954 0.00428769)
(0.00510062 -0.0105552 0.00419126)
(0.00497721 -0.0102264 0.00407431)
(0.00545683 -0.0112351 0.0048213)
(0.00567749 -0.0110962 0.00479835)
(0.00525976 -0.0102277 0.00441472)
(0.00615169 -0.011299 0.00476901)
(0.00562818 -0.0110915 0.00457595)
(0.00520867 -0.0105383 0.00450097)
(0.00511805 -0.010088 0.00428058)
(0.00518936 -0.0100892 0.00447707)
(0.00499091 -0.00991123 0.00415196)
(0.00512647 -0.0100242 0.00426892)
(0.00504213 -0.0101069 0.00410969)
(0.00519445 -0.0107143 0.00452976)
(0.00527392 -0.0107264 0.00433767)
(0.00529031 -0.0103933 0.00435062)
(0.00545173 -0.01039 0.00430736)
(0.00497847 -0.0107055 0.00452901)
(0.00484767 -0.0100144 0.00404272)
(0.00499019 -0.00997763 0.00413439)
(0.00529323 -0.0102139 0.00439739)
(0.00511498 -0.0103452 0.00434909)
(0.00513524 -0.010162 0.00422488)
(0.00497624 -0.0103822 0.00439208)
(0.00527035 -0.00996168 0.00409466)
(0.00490345 -0.0100678 0.00413559)
(0.00510115 -0.0102493 0.00417781)
(0.00528652 -0.0105469 0.00425286)
(0.00519059 -0.0103009 0.00409132)
(0.00532255 -0.0106933 0.0041719)
(0.00512052 -0.0103262 0.00413128)
(0.00508461 -0.0102239 0.00425482)
(0.00499278 -0.0100419 0.00425686)
(0.0051122 -0.010024 0.00414726)
(0.00510926 -0.0101044 0.00421133)
(0.00510082 -0.0103167 0.00418929)
(0.00486281 -0.00975911 0.00415253)
(0.00473395 -0.00979458 0.00423541)
(0.00499277 -0.010026 0.00474111)
(0.00515085 -0.0103469 0.00448105)
(0.0050736 -0.0103769 0.00445777)
(0.00506004 -0.0101979 0.00450469)
(0.00504362 -0.0100712 0.00455416)
(0.00509356 -0.0102952 0.00436718)
(0.00508746 -0.0104573 0.00427799)
(0.00504592 -0.010334 0.0043366)
(0.00488431 -0.0103176 0.0042721)
(0.00529152 -0.0115121 0.00455127)
(0.0051254 -0.0103192 0.00406183)
(0.00521526 -0.010642 0.00466446)
(0.00517055 -0.0104041 0.00407803)
(0.00546201 -0.011226 0.00476705)
(0.00560765 -0.0110331 0.00463031)
(0.00527986 -0.010328 0.00440773)
(0.00567677 -0.010754 0.0049726)
(0.00551988 -0.010767 0.00491586)
(0.00559681 -0.0109636 0.00472609)
(0.00519632 -0.0107689 0.00418031)
(0.00544163 -0.0106704 0.00433318)
(0.00531359 -0.0109906 0.00439482)
(0.00526509 -0.0103669 0.00422159)
(0.00515613 -0.0106207 0.004354)
(0.00546229 -0.0106896 0.0046031)
(0.00563557 -0.0106663 0.00500641)
(0.00546856 -0.0114603 0.0048734)
(0.00542131 -0.0107757 0.0044535)
(0.00512301 -0.0107433 0.00433629)
(0.00531535 -0.0108381 0.00460079)
(0.0051182 -0.0105255 0.00409549)
(0.00510498 -0.0104119 0.00437788)
(0.00508149 -0.0101958 0.0043515)
(0.00528573 -0.0108551 0.00458696)
(0.00530883 -0.0107655 0.00439834)
(0.00549435 -0.0106605 0.00465879)
(0.00553065 -0.0110659 0.00465897)
(0.00595312 -0.0110768 0.00501503)
(0.00571782 -0.011461 0.00502162)
(0.00537942 -0.0113877 0.00447552)
(0.00549406 -0.0105186 0.00469754)
(0.00513174 -0.0107521 0.00439248)
(0.00491917 -0.00981718 0.00409162)
(0.00482418 -0.00982761 0.00406805)
(0.00531516 -0.0105762 0.00449476)
(0.00511094 -0.0103723 0.00434309)
(0.0055974 -0.0109451 0.00463456)
(0.0051846 -0.0104022 0.00410042)
(0.00466546 -0.00989381 0.00401996)
(0.00505476 -0.0104232 0.00406077)
(0.00501062 -0.0102724 0.00435595)
(0.0049415 -0.0102193 0.00443664)
(0.00502423 -0.010349 0.00435454)
(0.00507145 -0.0100306 0.00405369)
(0.00505372 -0.0101411 0.00431584)
(0.00513885 -0.00996831 0.00414105)
(0.00496193 -0.0100829 0.00420713)
(0.00542969 -0.011176 0.004283)
(0.00509157 -0.0103299 0.00419623)
(0.00490806 -0.0106181 0.00451252)
(0.00492512 -0.0100927 0.00439008)
(0.00511866 -0.0104434 0.00438578)
(0.00528872 -0.0103269 0.00427947)
(0.00521263 -0.0101529 0.00419831)
(0.00549239 -0.0107802 0.00451029)
(0.00518961 -0.0103213 0.00425234)
(0.00492483 -0.00977692 0.00412018)
(0.00518535 -0.0103618 0.00439071)
(0.00460257 -0.00993321 0.0041178)
(0.00508501 -0.009654 0.00402067)
(0.00492659 -0.00917999 0.00386453)
(0.00516774 -0.00987092 0.00410303)
(0.00484045 -0.00999234 0.00439333)
(0.0050569 -0.00959445 0.0042719)
(0.00520097 -0.0115196 0.00438506)
(0.00516134 -0.0104909 0.0044087)
(0.00545402 -0.0102085 0.00446959)
(0.00532612 -0.0106926 0.00445331)
(0.00474583 -0.0103523 0.00410944)
(0.00530876 -0.0109626 0.00468171)
(0.00514275 -0.00989944 0.00415014)
(0.00522449 -0.00979693 0.00420869)
(0.00578782 -0.0104625 0.00421638)
(0.00516867 -0.00969501 0.00409168)
(0.00520339 -0.0101164 0.0040676)
(0.00482971 -0.0102653 0.00419037)
(0.00506425 -0.0101682 0.00426877)
(0.0049105 -0.0101681 0.00420175)
(0.00514357 -0.0102677 0.00429732)
(0.00500485 -0.0110854 0.00444238)
(0.00495981 -0.00987658 0.00417321)
(0.00530536 -0.00978128 0.00435956)
(0.00516548 -0.0103286 0.00429267)
(0.00521238 -0.0102076 0.00444854)
(0.00531877 -0.0101799 0.00441417)
(0.00543489 -0.0101724 0.00439814)
(0.00497925 -0.00976895 0.00414257)
(0.00518655 -0.0102044 0.00408434)
(0.00512385 -0.0101641 0.00417925)
(0.00523466 -0.0101409 0.0041393)
(0.00541804 -0.0106221 0.00426857)
(0.0053078 -0.0104834 0.00428675)
(0.00505282 -0.0101719 0.00425412)
(0.00564913 -0.0108789 0.00446925)
(0.00530939 -0.0102665 0.0042842)
(0.00511064 -0.0109588 0.00447858)
(0.00559718 -0.0103118 0.00432251)
(0.00524553 -0.0113266 0.00449775)
(0.00520003 -0.0104756 0.00427091)
(0.00564297 -0.0104751 0.00462402)
(0.00597002 -0.0111606 0.00480476)
(0.00467819 -0.0101466 0.00413018)
(0.00548101 -0.0103347 0.0045277)
(0.00502605 -0.0108753 0.00472099)
(0.00484637 -0.0102934 0.00428458)
(0.00557149 -0.0097223 0.00433452)
(0.00504699 -0.0095651 0.00415748)
(0.00506402 -0.0104361 0.00437676)
(0.00495629 -0.0100949 0.00418171)
(0.00579041 -0.0103746 0.00460254)
(0.00566936 -0.0104431 0.00466895)
(0.00556824 -0.0108446 0.00434197)
(0.00521592 -0.0104748 0.0044415)
(0.00509778 -0.0103068 0.00435492)
(0.00528942 -0.0109222 0.0046942)
(0.0053748 -0.0106367 0.00408783)
(0.00525397 -0.0106869 0.00447467)
(0.00504983 -0.0100625 0.00416737)
(0.00542021 -0.0107848 0.00467795)
(0.00511513 -0.0103758 0.00434749)
(0.00480314 -0.0103372 0.00449868)
(0.005285 -0.0102163 0.00440199)
(0.00526719 -0.010225 0.00423106)
(0.00526919 -0.0100563 0.00413812)
(0.00522623 -0.0106342 0.00460639)
(0.00526148 -0.0102923 0.00438773)
(0.00514496 -0.0102051 0.0042683)
(0.00531847 -0.0104644 0.00414201)
(0.00528232 -0.0104604 0.00426293)
(0.00528079 -0.0107105 0.00442717)
(0.00519341 -0.0103713 0.0042055)
(0.0052076 -0.0103337 0.00419743)
(0.00538301 -0.0106106 0.0043126)
(0.00552674 -0.0106445 0.00416941)
(0.00547423 -0.0105929 0.00447616)
(0.00508813 -0.00991461 0.00408303)
(0.00527214 -0.00971288 0.00390784)
(0.00502644 -0.0101924 0.00411258)
(0.00451055 -0.0097031 0.00435449)
(0.00475697 -0.0102478 0.00446083)
(0.00484667 -0.0102704 0.00432553)
(0.00480986 -0.00963037 0.00408873)
(0.00460861 -0.00959004 0.00411814)
(0.00487389 -0.0100368 0.00424808)
(0.00466585 -0.00971449 0.00428191)
(0.00474503 -0.00992717 0.00433403)
(0.00508763 -0.0102067 0.00419912)
(0.0045562 -0.010938 0.0045541)
(0.00484536 -0.0106501 0.00424167)
(0.00573922 -0.0106302 0.00459129)
(0.00487738 -0.010071 0.00404535)
(0.00552774 -0.0104281 0.00439921)
(0.00504739 -0.010173 0.00423949)
(0.00499182 -0.0102555 0.00436088)
(0.00512742 -0.0104974 0.00438064)
(0.00484275 -0.0100046 0.00424679)
(0.00488619 -0.0105571 0.00454002)
(0.00519953 -0.0106769 0.00450802)
(0.0055255 -0.0109008 0.0044733)
(0.00524756 -0.0107298 0.00439915)
(0.00514762 -0.0109938 0.00462899)
(0.00546337 -0.0105456 0.00442389)
(0.0051853 -0.0104117 0.00434758)
(0.00510199 -0.010328 0.00417681)
(0.00520724 -0.0106537 0.0043441)
(0.00499007 -0.0106234 0.00442264)
(0.0052391 -0.0106281 0.00438971)
(0.00524616 -0.0103789 0.00438922)
(0.00510167 -0.0103797 0.0041708)
(0.00550549 -0.010542 0.00481174)
(0.0052537 -0.0108579 0.00443804)
(0.00521111 -0.0106303 0.00428351)
(0.00519623 -0.010742 0.00449949)
(0.00501529 -0.0111188 0.00431179)
(0.00501559 -0.0105954 0.00425618)
(0.00502448 -0.0106134 0.00463758)
(0.00484535 -0.0110169 0.00438307)
(0.00437721 -0.00995516 0.00400056)
(0.00489964 -0.0100043 0.00420783)
(0.00460533 -0.0100371 0.00420934)
(0.00497238 -0.00989976 0.00404585)
(0.00502212 -0.0105277 0.0043795)
(0.00539539 -0.0103351 0.00434879)
(0.00530558 -0.0103701 0.0042588)
(0.00526923 -0.0106874 0.00436539)
(0.00510854 -0.0102957 0.00428841)
(0.00517173 -0.010064 0.00437634)
(0.00469447 -0.00953169 0.00369803)
(0.00510924 -0.0102859 0.00441123)
(0.00505123 -0.0105631 0.00447375)
(0.00516235 -0.011131 0.00464679)
(0.00487581 -0.0103477 0.00429839)
(0.00514679 -0.010506 0.0042281)
(0.00496967 -0.00994819 0.00409956)
(0.00506542 -0.00986596 0.00412053)
(0.00522476 -0.010268 0.00435067)
(0.00489137 -0.0102299 0.00447659)
(0.00522081 -0.0106061 0.00456612)
(0.00497939 -0.0101799 0.00438776)
(0.00474344 -0.0097683 0.00421667)
(0.00512239 -0.0104341 0.00450641)
(0.00500245 -0.00972769 0.00402641)
(0.00505342 -0.0102954 0.00452032)
(0.00493037 -0.00957396 0.00401637)
(0.00492388 -0.00983223 0.00418854)
(0.00494632 -0.00960319 0.0039329)
(0.00492204 -0.00985404 0.00415154)
(0.00545838 -0.0107409 0.00420217)
(0.00548482 -0.0104517 0.0042234)
(0.00517462 -0.0106475 0.00447529)
(0.00523492 -0.0109103 0.00470723)
(0.00527805 -0.0103119 0.00431402)
(0.0052519 -0.0108591 0.00455961)
(0.0047222 -0.00960427 0.00390797)
(0.00448021 -0.00999042 0.00430407)
(0.0049182 -0.0102766 0.00443444)
(0.0045811 -0.0101567 0.00419912)
(0.00517516 -0.00993537 0.00425974)
(0.00504705 -0.00985746 0.00423594)
(0.00524788 -0.0100069 0.00428904)
(0.00510014 -0.0105431 0.00457976)
(0.00510435 -0.010516 0.00431701)
(0.00505927 -0.0107977 0.00439701)
(0.00520029 -0.0103013 0.00437005)
(0.00475417 -0.010401 0.00427708)
(0.00496454 -0.00993697 0.00409669)
(0.00513916 -0.010129 0.00418494)
(0.00486813 -0.0108396 0.00439266)
(0.00486649 -0.0102657 0.00414168)
(0.0052545 -0.0106422 0.00427886)
(0.0050201 -0.0102258 0.00441171)
(0.00520931 -0.0103644 0.0043008)
(0.00516357 -0.010091 0.00417969)
(0.0050571 -0.0101276 0.00428349)
(0.00514075 -0.010351 0.00440795)
(0.00502356 -0.0101274 0.00428962)
(0.00526857 -0.0107441 0.00459369)
(0.00507499 -0.0104194 0.00441067)
(0.00492049 -0.0105115 0.00468251)
(0.00480006 -0.00989742 0.00430211)
(0.00528661 -0.0101792 0.00408181)
(0.00536307 -0.0106247 0.00445909)
(0.00499013 -0.0100071 0.00426866)
(0.00534785 -0.0101336 0.00421243)
(0.0047865 -0.00967788 0.00412277)
(0.00503138 -0.0102272 0.00409644)
(0.00472745 -0.0103279 0.00442857)
(0.0050023 -0.00966581 0.00403394)
(0.00486006 -0.0101915 0.00463035)
(0.00478129 -0.00971811 0.00404978)
(0.00469737 -0.00947952 0.00405185)
(0.00529543 -0.0103031 0.00426938)
(0.00488227 -0.00984181 0.00391345)
(0.00501099 -0.0103914 0.00419663)
(0.00490028 -0.00983975 0.0042743)
(0.00513763 -0.00981335 0.00436925)
(0.00488903 -0.00973504 0.00466734)
(0.00517594 -0.0107681 0.00501329)
(0.00534043 -0.0109299 0.00453115)
(0.0052545 -0.0107583 0.00446843)
(0.00553753 -0.0114911 0.00492466)
(0.00563493 -0.0113162 0.00475689)
(0.00488147 -0.0099271 0.00449482)
(0.00512413 -0.0101871 0.00438585)
(0.00487983 -0.00976087 0.00428475)
(0.00498062 -0.0100674 0.00444943)
(0.00509043 -0.0101518 0.00460426)
(0.00498844 -0.00980706 0.00439596)
(0.00512808 -0.0102826 0.00395503)
(0.00485679 -0.00996527 0.00438147)
(0.00507716 -0.0101988 0.00393369)
(0.00492302 -0.0101205 0.00406389)
(0.00522209 -0.0105978 0.00428765)
(0.00498444 -0.0102769 0.00434939)
(0.00543953 -0.0107079 0.00422184)
(0.0051986 -0.0105678 0.00420605)
(0.00536662 -0.0107234 0.0044378)
(0.00495526 -0.0102097 0.00445285)
(0.00535193 -0.0106826 0.00426149)
(0.00533473 -0.0105908 0.00446133)
(0.00576083 -0.0115634 0.00451994)
(0.00539843 -0.0108348 0.00436911)
(0.00533237 -0.0104409 0.00447423)
(0.00529712 -0.0103712 0.004505)
(0.0054403 -0.0109572 0.00434816)
(0.00536707 -0.0105147 0.00430599)
(0.00529181 -0.010641 0.0044825)
(0.00526832 -0.0101638 0.00441439)
(0.00481447 -0.0102825 0.00406471)
(0.00483596 -0.010269 0.00378556)
(0.00525321 -0.0107073 0.00414912)
(0.0052791 -0.0102709 0.00435511)
(0.00496631 -0.0103532 0.0042625)
(0.00588888 -0.0110518 0.00507554)
(0.00492091 -0.0113112 0.0042776)
(0.00467431 -0.010048 0.0038705)
(0.00486534 -0.0101428 0.00433393)
(0.00539572 -0.0108868 0.00474931)
(0.00539703 -0.0105733 0.00461876)
(0.00525798 -0.0104009 0.00425772)
(0.00533689 -0.0105443 0.00461927)
(0.00562517 -0.0108699 0.00473196)
(0.00545491 -0.0111097 0.00429626)
(0.00523602 -0.0107219 0.00443062)
(0.00531393 -0.0103982 0.0046273)
(0.00512692 -0.0100951 0.00404791)
(0.00521318 -0.0107067 0.00449812)
(0.00490279 -0.00964356 0.00440363)
(0.00542707 -0.0107645 0.00441862)
(0.00496905 -0.0102281 0.00487753)
(0.00527829 -0.0106924 0.00447859)
(0.00535649 -0.0105931 0.00435636)
(0.00539059 -0.010717 0.00438662)
(0.00552569 -0.0106384 0.00446224)
(0.00554672 -0.010825 0.00462163)
(0.00503123 -0.00987697 0.00433059)
(0.00530556 -0.0105623 0.00422891)
(0.00473915 -0.00984048 0.00413838)
(0.00509979 -0.0105618 0.00454403)
(0.00502371 -0.00994863 0.00470777)
(0.00482078 -0.00981602 0.00412168)
(0.00485683 -0.00951708 0.00410781)
(0.00505516 -0.0100718 0.00432458)
(0.00504844 -0.0100849 0.00403051)
(0.00497696 -0.00993921 0.0042699)
(0.0050659 -0.0102419 0.00411309)
(0.00495543 -0.0100037 0.00419138)
(0.00522473 -0.0104253 0.00428802)
(0.0052479 -0.0104266 0.00424107)
(0.0054087 -0.0108179 0.00378777)
(0.00517338 -0.0103068 0.00484399)
(0.00489627 -0.00983198 0.00406659)
(0.00511808 -0.0104021 0.00390466)
(0.00518404 -0.0103706 0.00465784)
(0.00568025 -0.0109524 0.00425706)
(0.00531996 -0.0113226 0.00455876)
(0.00466568 -0.00956218 0.00394307)
(0.00497533 -0.0097956 0.00400551)
(0.00492893 -0.0104956 0.00449671)
(0.00576553 -0.0111039 0.00464486)
(0.00532783 -0.010775 0.00439822)
(0.00518457 -0.0104535 0.00413574)
(0.00558138 -0.0105533 0.0046187)
(0.00483602 -0.00953624 0.00408166)
(0.00504681 -0.0103251 0.00420886)
(0.00530572 -0.0106353 0.00431823)
(0.00470632 -0.0095647 0.00411502)
(0.00489358 -0.00988789 0.00413573)
(0.00475713 -0.00973455 0.00403909)
(0.00483209 -0.00993507 0.00402207)
(0.00458996 -0.00967257 0.00421894)
(0.00478829 -0.00962808 0.00409222)
(0.00507363 -0.0104318 0.00444971)
(0.00504699 -0.010398 0.00437498)
(0.00539383 -0.0109242 0.00458639)
(0.00544389 -0.01029 0.00411941)
(0.0049713 -0.00995832 0.00404734)
(0.00516471 -0.0106218 0.00446135)
(0.00469687 -0.00960259 0.00394665)
(0.00490159 -0.00995375 0.00417566)
(0.00482405 -0.00972618 0.00390429)
(0.00475592 -0.00955283 0.00417795)
(0.00493035 -0.00984826 0.00432483)
(0.00501295 -0.0101088 0.00387203)
(0.00498633 -0.009911 0.00406226)
(0.00472167 -0.00955889 0.00437229)
(0.00494511 -0.0100922 0.00430848)
(0.00498186 -0.00991939 0.00412816)
(0.00520038 -0.0103774 0.00420961)
(0.0051523 -0.0101011 0.00407036)
(0.00520282 -0.0110788 0.00399057)
(0.00502916 -0.0100461 0.0042789)
(0.00524849 -0.0099573 0.00456149)
(0.00517439 -0.0100072 0.00458821)
(0.00539714 -0.0103765 0.0046186)
(0.0053704 -0.0109141 0.00448369)
(0.00513166 -0.0101333 0.00447552)
(0.00499525 -0.0100186 0.00454567)
(0.00484858 -0.00974434 0.00402784)
(0.00546125 -0.0105527 0.00472159)
(0.00482988 -0.00973604 0.00419873)
(0.00481312 -0.00961439 0.00430053)
(0.00506306 -0.0100601 0.00405487)
(0.00486264 -0.00962211 0.00401275)
(0.00487307 -0.00973471 0.00427988)
(0.0048347 -0.00970039 0.00419207)
(0.0046076 -0.00933564 0.00394944)
(0.00479671 -0.00978239 0.00408196)
(0.00487897 -0.009898 0.00445723)
(0.00473694 -0.0097125 0.0040909)
(0.00489704 -0.009865 0.00422734)
(0.00496148 -0.00990034 0.00393752)
(0.00486115 -0.00993302 0.00443067)
(0.0048334 -0.0096331 0.00405006)
(0.0047236 -0.00954781 0.00408153)
(0.00490039 -0.00982309 0.00419858)
(0.00488392 -0.00972706 0.00404638)
(0.00500887 -0.0100098 0.00423481)
(0.00510421 -0.0100744 0.00424435)
(0.00466939 -0.00959115 0.0040184)
(0.00502085 -0.010152 0.00423494)
(0.00507253 -0.0102614 0.00421426)
(0.00520865 -0.0103314 0.00431471)
(0.00510821 -0.0103073 0.00416583)
(0.0052249 -0.010604 0.00435449)
(0.00520925 -0.01052 0.00453063)
(0.00505435 -0.0101824 0.00416188)
(0.00503285 -0.0101665 0.00417844)
(0.00523972 -0.0106647 0.00454455)
(0.00501679 -0.0102312 0.00423752)
(0.00505735 -0.0101377 0.00417139)
(0.00518281 -0.0101652 0.00434664)
(0.00505295 -0.0102033 0.0044385)
(0.00515723 -0.0104487 0.00441519)
(0.00518446 -0.0103533 0.00440617)
(0.00500888 -0.0102388 0.00439224)
(0.00480372 -0.00977375 0.00409105)
(0.00525022 -0.0104843 0.00444529)
(0.00536422 -0.0103535 0.00437596)
(0.00547585 -0.0105758 0.00434045)
(0.00529148 -0.010122 0.00420435)
(0.00547599 -0.010468 0.00440853)
(0.00524561 -0.0104092 0.00439579)
(0.00553589 -0.010541 0.00434951)
(0.00544426 -0.0105328 0.00437785)
(0.005819 -0.0113813 0.00448268)
(0.00537507 -0.010958 0.0045744)
(0.00600322 -0.0110939 0.00446166)
(0.00558935 -0.0109206 0.00453335)
(0.00551532 -0.0107788 0.0044477)
(0.00535546 -0.0109233 0.00460676)
(0.00533146 -0.0105972 0.0043286)
(0.00549274 -0.0103915 0.00413888)
(0.00504875 -0.0102479 0.00420732)
(0.00524086 -0.0102901 0.00419217)
(0.0055529 -0.0104597 0.00419802)
(0.00478844 -0.0100009 0.00383157)
(0.00512119 -0.0100308 0.00470147)
(0.00523322 -0.0105544 0.00388534)
(0.00474108 -0.00958651 0.0037643)
(0.00476128 -0.00981455 0.00422768)
(0.00510712 -0.0105957 0.00447255)
(0.00507731 -0.0103707 0.00434784)
(0.00473348 -0.00981815 0.00438259)
(0.00487534 -0.00997798 0.0041529)
(0.00515634 -0.0104225 0.0040177)
(0.00537812 -0.0110012 0.00410506)
(0.00546219 -0.0111556 0.00460652)
(0.00507815 -0.010275 0.00444014)
(0.00510242 -0.0103332 0.00440833)
(0.00525662 -0.0104522 0.00433211)
(0.00534868 -0.0105733 0.00437604)
(0.00548749 -0.0105831 0.00438519)
(0.00538276 -0.0105521 0.00440432)
(0.00554183 -0.0101547 0.00410794)
(0.00519458 -0.0104069 0.00427013)
(0.00523884 -0.0104539 0.00445891)
(0.00539264 -0.0105858 0.00451894)
(0.00535355 -0.010417 0.00441429)
(0.00540594 -0.0104974 0.00440739)
(0.00441932 -0.0100382 0.00440489)
(0.00447854 -0.0101482 0.00446363)
(0.00474227 -0.0101324 0.00433558)
(0.00509756 -0.0102587 0.00411384)
(0.00495109 -0.00994072 0.00417948)
(0.00490164 -0.00967218 0.00394075)
(0.00517393 -0.0104469 0.00428669)
(0.00521353 -0.0105308 0.00430796)
(0.00500177 -0.0102117 0.00424831)
(0.00513451 -0.010189 0.00419102)
(0.00522605 -0.0106257 0.00436727)
(0.0056138 -0.0106587 0.00500933)
(0.00533758 -0.0103392 0.00462874)
(0.00471031 -0.00956482 0.00427527)
(0.00507834 -0.010302 0.00417431)
(0.00480404 -0.00967488 0.0041024)
(0.00488965 -0.0104582 0.00411031)
(0.0050232 -0.00992539 0.00393878)
(0.00482771 -0.0100161 0.00393047)
(0.00447097 -0.00951523 0.00355156)
(0.00503474 -0.0097377 0.00427801)
(0.00506907 -0.0104677 0.00446076)
(0.00483524 -0.00981401 0.00437718)
(0.00438343 -0.00913854 0.0035241)
(0.004526 -0.00949467 0.00410944)
(0.00483739 -0.00976905 0.00380654)
(0.00487272 -0.00976291 0.00411869)
(0.00503104 -0.00987137 0.00419725)
(0.00472148 -0.00956936 0.00425833)
(0.004782 -0.00965471 0.00397945)
(0.00495878 -0.00997153 0.00415961)
(0.00507455 -0.0100341 0.0041487)
(0.00491974 -0.00961396 0.00390984)
(0.00472156 -0.00972018 0.0040173)
(0.00479607 -0.00985418 0.00420375)
(0.00465944 -0.00981459 0.00422484)
(0.0045379 -0.00955572 0.00419097)
(0.00472961 -0.0097508 0.00393085)
(0.00472661 -0.00967282 0.00435119)
(0.0047876 -0.00993635 0.0045096)
(0.00522619 -0.0104531 0.00425619)
(0.00531339 -0.010486 0.00424736)
(0.00534536 -0.010546 0.0042568)
(0.00456659 -0.00988467 0.00445041)
(0.00477671 -0.0097248 0.00444328)
(0.00462586 -0.00933984 0.00397849)
(0.0043327 -0.00927136 0.00395101)
(0.00492735 -0.0102384 0.00460737)
(0.00497724 -0.00988761 0.00433229)
(0.00491987 -0.0104411 0.00464587)
(0.00531716 -0.0103325 0.0042711)
(0.00501393 -0.00992805 0.0042115)
(0.00534498 -0.0109072 0.00461831)
(0.00529982 -0.0103377 0.0043078)
(0.00524432 -0.0105843 0.00449484)
(0.00535985 -0.0107684 0.00442366)
(0.0053569 -0.0106077 0.00432634)
(0.00534747 -0.0101315 0.00396211)
(0.00529047 -0.0101783 0.00410947)
(0.00468287 -0.00973835 0.00372535)
(0.00571069 -0.0109665 0.00433285)
(0.00514318 -0.00971122 0.00447991)
(0.00479628 -0.00981884 0.00455757)
(0.00483003 -0.0099462 0.0043965)
(0.00491954 -0.0103246 0.00435523)
(0.00505303 -0.0104009 0.00430926)
(0.00519476 -0.0104472 0.00419763)
(0.00465967 -0.00961533 0.00402067)
(0.00520394 -0.0103689 0.00419239)
(0.00529501 -0.00961173 0.00440465)
(0.0047188 -0.00899682 0.00418092)
(0.00501895 -0.00980146 0.00423418)
(0.00505115 -0.0102801 0.00418687)
(0.0050821 -0.00992346 0.0039337)
(0.00498001 -0.0101612 0.00391054)
(0.00483853 -0.0102136 0.0039766)
(0.00504066 -0.0100598 0.00435107)
(0.00504697 -0.0096055 0.00472818)
(0.0051154 -0.0103811 0.00428901)
(0.0049419 -0.00991677 0.00430629)
(0.00535515 -0.0107772 0.00478089)
(0.00498569 -0.0101492 0.00431602)
(0.00479668 -0.0104931 0.00438207)
(0.00546103 -0.0106881 0.00449461)
(0.00478508 -0.0101198 0.0040855)
(0.00555427 -0.0108547 0.00464234)
(0.00499094 -0.00953388 0.00438594)
(0.00522682 -0.0103346 0.00442057)
(0.00523225 -0.0101807 0.00423855)
(0.00524153 -0.0107188 0.0042404)
(0.00498211 -0.00989842 0.00391138)
(0.00545273 -0.0105862 0.00480485)
(0.00514592 -0.0102703 0.00449432)
(0.00512879 -0.0105559 0.00431932)
(0.00490068 -0.0100414 0.00435612)
(0.0051504 -0.0102037 0.00418846)
(0.00500502 -0.0102961 0.00417361)
(0.00515206 -0.0102964 0.00434184)
(0.00465203 -0.00936231 0.00418661)
(0.00575471 -0.0109702 0.0048924)
(0.00508891 -0.0100986 0.00381611)
(0.00464912 -0.00956997 0.00424282)
(0.00532726 -0.0105335 0.00426194)
(0.00484593 -0.00973291 0.00400292)
(0.00471595 -0.0101306 0.00410699)
(0.00461502 -0.00942532 0.00410419)
(0.00508884 -0.0103427 0.00432038)
(0.00535095 -0.0107288 0.00441877)
(0.00531916 -0.0107261 0.0045331)
(0.00530194 -0.0104954 0.00421126)
(0.00535739 -0.0106423 0.00437218)
(0.00520761 -0.010577 0.00414785)
(0.00504884 -0.010087 0.00465429)
(0.00523088 -0.0105779 0.00441616)
(0.00489777 -0.00991094 0.00425556)
(0.00518217 -0.0104668 0.00451238)
(0.00530247 -0.0105689 0.00440319)
(0.00566824 -0.0110167 0.00446617)
(0.00507721 -0.0101927 0.00442574)
(0.00545851 -0.0107185 0.00442113)
(0.00537506 -0.0105878 0.00410752)
(0.00501741 -0.0101584 0.00404876)
(0.00524749 -0.0103334 0.00416251)
(0.00549827 -0.0108983 0.00447136)
(0.0048714 -0.00988199 0.00430637)
(0.00475372 -0.00981324 0.00405795)
(0.00500215 -0.010031 0.00401999)
(0.0052268 -0.0103864 0.00442356)
(0.00472337 -0.009782 0.00449083)
(0.00461953 -0.00962845 0.00413198)
(0.00537131 -0.0105415 0.00425304)
(0.00523422 -0.0105656 0.00438021)
(0.00521299 -0.010441 0.00431756)
(0.00518747 -0.0102407 0.00413885)
(0.00519996 -0.0103529 0.00409981)
(0.00547791 -0.0107291 0.00439475)
(0.00482425 -0.0102314 0.00449624)
(0.00488014 -0.0103505 0.00450711)
(0.00512032 -0.0106109 0.00449617)
(0.00497418 -0.0102497 0.00419959)
(0.00512482 -0.0102755 0.00412043)
(0.00545719 -0.0108329 0.0040527)
(0.00504111 -0.010061 0.00457877)
(0.005477 -0.0109075 0.00448227)
(0.0056927 -0.0104292 0.00488596)
(0.00482093 -0.0103558 0.00438033)
(0.00544634 -0.0103821 0.0047093)
(0.00537731 -0.0100235 0.00447929)
(0.00499449 -0.010184 0.00417134)
(0.0050743 -0.0104627 0.00434807)
(0.00536901 -0.0112901 0.00418973)
(0.00520547 -0.0105319 0.00427923)
(0.00567085 -0.0105758 0.00450544)
(0.00483768 -0.0101026 0.00423265)
(0.00520579 -0.0101542 0.00471401)
(0.00524763 -0.0106632 0.00483239)
(0.00503703 -0.0103676 0.0039785)
(0.00524833 -0.0102936 0.00447254)
(0.00486111 -0.00983413 0.00448014)
(0.00494192 -0.0106685 0.00440182)
(0.00461352 -0.00971701 0.00379389)
(0.00477052 -0.0101262 0.00414075)
(0.00510163 -0.0107155 0.00419117)
(0.00465595 -0.00970853 0.00393285)
(0.0053259 -0.00972603 0.00436018)
(0.00559929 -0.0112949 0.00426805)
(0.00489487 -0.0100225 0.00418381)
(0.0061746 -0.0108952 0.00509053)
(0.00514815 -0.0112059 0.0043519)
(0.00505307 -0.0108445 0.00417394)
(0.00533535 -0.0101864 0.00468371)
(0.00567001 -0.0103837 0.00489454)
(0.00511878 -0.0102972 0.00421935)
(0.00460518 -0.0096781 0.00415452)
(0.0047401 -0.00928153 0.00399263)
(0.00522232 -0.0104499 0.0047818)
(0.00502052 -0.0100606 0.00447619)
(0.00481551 -0.00969624 0.0044483)
(0.00513673 -0.0102893 0.00429689)
(0.00527583 -0.0104208 0.00426865)
(0.00527658 -0.0106261 0.00415085)
(0.00539274 -0.0105309 0.00485823)
(0.00524354 -0.0104632 0.00410408)
(0.00520054 -0.0103369 0.00452161)
(0.00529357 -0.0104762 0.00419602)
(0.00514578 -0.0100373 0.00446587)
(0.00556209 -0.0105753 0.00466052)
(0.0054986 -0.0109962 0.00421535)
(0.00536457 -0.010525 0.00465078)
(0.005034 -0.0104388 0.00453891)
(0.00498904 -0.0103919 0.00409863)
(0.00533765 -0.0105004 0.00434462)
(0.00528433 -0.0104172 0.00401821)
(0.00515088 -0.0104052 0.00411219)
(0.00499819 -0.00993312 0.00403753)
(0.00543368 -0.0107536 0.00455937)
(0.0052593 -0.0101996 0.00439345)
(0.0054139 -0.0106933 0.00416077)
(0.00550452 -0.0111395 0.00464425)
(0.00475461 -0.00975832 0.00419967)
(0.00563276 -0.0118456 0.00492902)
(0.00519731 -0.0114251 0.00410457)
(0.00513334 -0.0105411 0.00439079)