/*--------------------------------*- C++ -*----------------------------------*\
| =========                 |                                                 |
| \\      /  F ield         | OpenFOAM: The Open Source CFD Toolbox           |
|  \\    /   O peration     | Version:  v1612+                                |
|   \\  /    A nd           | Web:      www.OpenFOAM.com                      |
|    \\/     M anipulation  |                                                 |
\*---------------------------------------------------------------------------*/
FoamFile
{
    version     2.0;
    format      ascii;
    class       surfaceScalarField;
    location    "100";
    object      phi;
}
// * * * * * * * * * * * * * * * * * * * * * * * * * * * * * * * * * * * * * //

dimensions      [0 3 -1 0 0 0 0];

internalField   nonuniform List<scalar> 
41566
(
4.19085e-09
3.09567e-09
-3.75635e-09
-3.53016e-09
-2.94296e-09
4.12597e-09
-3.30046e-09
2.11742e-09
-6.86468e-09
1.26822e-09
6.70318e-09
-1.10669e-09
-4.20148e-09
3.91468e-09
6.4716e-09
-6.18481e-09
6.25146e-09
8.20708e-09
-1.866e-08
-7.0202e-09
6.32154e-09
-6.79454e-09
7.49319e-09
-4.54436e-09
-1.63101e-09
-8.44826e-10
-2.87863e-09
7.48745e-09
-6.94142e-10
-7.01341e-09
1.03863e-08
9.23361e-10
4.92898e-09
-7.24109e-09
1.38872e-09
8.4108e-09
4.1086e-09
-1.1596e-08
3.44842e-09
7.80211e-09
-8.09587e-09
1.99551e-08
1.37173e-08
5.80814e-09
-1.13184e-08
1.50239e-08
-2.30685e-09
1.00027e-09
8.365e-09
-6.43777e-09
9.00979e-10
6.69497e-10
-1.38465e-09
6.43221e-09
2.76922e-10
1.33603e-08
3.77086e-08
-1.54509e-08
-2.57693e-08
3.51169e-09
-2.89023e-09
2.35323e-08
1.70665e-08
-3.14454e-08
-6.37322e-09
1.46669e-08
2.31517e-08
-1.54538e-08
-4.96715e-09
-1.10243e-08
-2.00009e-08
-1.09038e-08
1.36477e-08
-3.10812e-09
-3.05405e-08
1.14114e-08
-2.35329e-08
-2.74037e-08
7.73577e-09
1.32948e-08
-1.7608e-08
-1.47629e-08
3.92851e-08
-2.38217e-08
-4.05203e-09
2.22459e-08
1.4149e-08
9.94461e-09
-3.06607e-08
2.83278e-08
-3.12936e-08
1.29105e-08
1.62435e-08
5.79476e-09
6.28953e-09
3.96211e-09
3.42371e-08
1.58178e-08
3.01234e-08
-2.36953e-08
1.05688e-08
1.34105e-08
3.03487e-08
9.77582e-09
-2.18629e-09
-1.15954e-09
-6.42996e-09
5.04187e-10
-3.28021e-09
1.25518e-08
-1.40945e-09
7.55134e-09
-5.63769e-09
1.3697e-08
-1.11812e-08
-4.70209e-09
-2.49355e-09
1.29104e-08
5.15884e-10
-1.17831e-09
-6.43678e-09
7.09921e-09
-4.78934e-10
-5.4895e-09
6.48434e-09
-2.76762e-09
-6.66253e-09
8.02069e-09
-1.0143e-08
-1.44216e-09
8.81755e-09
2.33614e-09
-1.1203e-08
-1.27613e-09
-5.26406e-09
9.37667e-10
1.18992e-08
-8.43676e-10
1.22797e-09
-1.22835e-08
1.73545e-09
-1.03922e-09
-9.80124e-10
-1.13794e-08
-1.42899e-08
1.03542e-08
-1.39671e-08
1.41263e-09
-1.57909e-08
-4.51501e-09
4.87898e-09
-6.59005e-10
-1.13393e-09
-3.08606e-09
4.18139e-09
3.15245e-09
-2.45485e-09
1.87756e-09
-5.12635e-09
-2.68236e-09
5.93116e-09
9.67714e-12
6.04928e-09
4.93761e-09
-2.84075e-09
-4.44069e-09
2.34384e-09
1.15261e-09
5.76871e-09
-1.9837e-09
-4.68838e-09
-1.09698e-09
-2.95748e-09
4.29062e-09
-1.32345e-09
3.55636e-10
2.1107e-09
-5.30707e-09
2.25502e-09
9.81614e-10
-3.27612e-09
3.94818e-11
-7.89749e-10
8.72901e-11
-5.60075e-09
3.27404e-09
-6.81361e-09
-3.47554e-09
-2.89654e-09
-5.11277e-09
4.94051e-09
3.06876e-09
7.62093e-10
-3.50553e-09
-1.53145e-10
3.15277e-09
-2.39898e-09
8.28675e-12
-2.86372e-09
-3.27183e-11
-2.21634e-09
-2.60859e-09
-3.76066e-09
-1.41477e-09
-2.79129e-10
4.84665e-09
-2.06728e-09
5.59301e-09
8.41991e-10
5.26418e-09
-6.06365e-09
-4.25495e-11
-1.00158e-08
1.7946e-09
9.0632e-09
8.77066e-09
-3.53921e-09
5.50026e-09
1.20311e-09
4.25665e-09
-1.82788e-09
-8.49243e-09
-1.30439e-09
-4.45477e-09
-4.27895e-09
6.06456e-09
-2.06475e-09
-5.54019e-09
2.868e-10
9.74425e-10
3.81996e-09
-1.84684e-09
-4.58174e-09
1.38173e-09
3.92335e-11
3.5906e-09
-7.26535e-09
6.05506e-09
-3.76885e-09
1.8966e-09
-8.26756e-09
-9.22831e-09
5.62199e-09
1.18739e-08
-8.505e-09
8.43866e-11
1.53056e-10
-1.63164e-08
-6.94622e-09
1.40343e-08
-1.68019e-08
-8.01946e-09
1.69176e-08
1.6883e-08
-1.5375e-08
-1.84256e-08
-4.89093e-09
5.00661e-09
8.63009e-09
-8.55886e-09
1.3169e-11
-4.94209e-09
-7.07907e-10
1.1272e-08
-2.50287e-09
6.19086e-09
1.67778e-09
8.25896e-09
7.07734e-09
5.21465e-10
-2.29738e-08
4.7538e-09
-2.56738e-09
7.44423e-10
-4.54946e-09
-5.24044e-09
-7.1955e-09
1.1728e-08
-1.28771e-08
5.13384e-09
1.63437e-08
1.49293e-08
-1.44422e-08
-1.68307e-08
9.64917e-09
8.3723e-09
9.64603e-09
-4.26506e-09
-4.63652e-09
-1.23239e-08
9.09282e-09
-1.5765e-08
1.82187e-08
-2.36758e-10
-5.98947e-10
6.47747e-09
-2.03982e-08
1.19973e-08
-9.78485e-09
-5.63421e-10
1.83016e-09
5.14955e-09
-3.91282e-09
-3.06689e-09
2.68199e-09
-9.22393e-10
7.05759e-11
-2.82998e-09
1.51174e-09
4.00022e-09
-2.86618e-10
2.60618e-09
4.04245e-09
-8.08945e-09
3.76036e-09
-8.83507e-09
3.47151e-09
9.40601e-09
3.87026e-09
-2.10564e-10
-7.57252e-09
-3.07802e-09
-1.92657e-09
-3.83048e-09
-7.29722e-09
7.76207e-09
-2.77882e-09
2.75175e-09
2.64847e-09
-5.61079e-09
1.90986e-09
-8.04953e-11
-3.95867e-09
4.68058e-09
2.92462e-09
4.38668e-09
-4.75054e-09
-2.56078e-09
2.54546e-09
5.50713e-10
-1.71559e-10
-8.74746e-10
6.68702e-10
-3.85421e-09
4.06023e-09
2.56461e-09
-2.95842e-09
-4.80953e-10
4.50466e-09
-2.36565e-10
1.18576e-10
3.06471e-09
3.98539e-09
3.24599e-09
-1.30683e-10
1.54135e-09
3.93635e-09
-5.3106e-09
-1.67155e-10
-2.92258e-10
-7.51128e-09
5.93683e-09
1.86663e-09
6.75267e-09
-1.03354e-09
-2.65445e-09
-2.75451e-08
6.38011e-09
4.15165e-10
2.07498e-08
1.85002e-09
-1.49864e-08
-1.44086e-08
-1.96098e-08
6.7209e-09
1.9269e-08
-8.6482e-09
-9.11159e-09
7.78456e-09
-1.25585e-08
-4.49432e-09
9.26829e-09
-1.47262e-08
2.28906e-09
2.02216e-08
1.09268e-08
-1.75536e-08
-5.93175e-09
-9.04171e-09
5.24236e-09
-1.72622e-08
1.3183e-08
-1.13135e-08
-2.09351e-08
2.95124e-09
-1.18377e-08
1.56074e-08
1.87365e-08
8.71098e-10
-6.52494e-09
-1.30827e-08
5.35844e-09
4.33639e-09
-9.64561e-09
1.48859e-08
-5.19961e-09
-1.14829e-08
1.05858e-08
-9.09687e-09
-1.01372e-08
-1.65358e-09
4.01726e-10
-1.10354e-08
6.74825e-09
-1.48547e-08
-1.65848e-09
1.29713e-08
-1.47583e-08
-4.7379e-09
2.82297e-10
7.97956e-09
3.49197e-09
-1.00718e-08
-1.39974e-09
9.26963e-09
-7.66067e-09
6.3706e-09
1.56936e-08
-8.36126e-09
-3.30364e-09
-4.02871e-09
-2.04473e-09
1.17834e-08
5.9549e-09
1.02505e-08
-8.95989e-09
-9.65192e-09
5.93225e-09
2.27355e-09
9.15924e-09
2.64974e-10
5.59535e-09
1.28335e-08
8.07673e-09
-4.48356e-09
8.19029e-09
-4.88818e-09
1.85603e-08
6.20801e-09
-7.12836e-09
-9.15142e-09
-1.17575e-09
1.2485e-08
-2.28516e-08
5.88301e-09
2.09571e-08
-2.33532e-08
-1.80523e-09
-1.62718e-08
1.83545e-10
-1.14129e-08
-1.5244e-08
1.77361e-08
1.50659e-08
-9.1373e-09
9.53444e-09
1.27518e-08
-4.55012e-09
2.07321e-08
-1.12064e-08
1.61776e-08
1.05781e-08
-4.78542e-09
1.49393e-08
-4.92616e-09
2.43748e-08
-9.91428e-09
-1.29694e-08
2.80762e-08
-2.0033e-08
2.03973e-08
-4.13446e-09
-1.19699e-09
1.89209e-08
1.42282e-08
6.90769e-10
6.31609e-09
1.41539e-08
-2.11608e-08
-1.26934e-08
2.04573e-08
2.81416e-09
2.15135e-08
-6.13074e-09
1.85106e-08
2.73777e-08
5.6651e-09
1.39466e-08
1.76721e-09
2.50061e-08
2.59429e-08
7.13571e-09
-1.19194e-09
-1.94786e-09
-3.99594e-09
2.5103e-09
-1.45514e-09
6.08052e-09
-5.27777e-09
1.02863e-09
6.75938e-09
-3.93156e-09
1.54922e-09
-2.89545e-09
6.99559e-09
-2.8409e-09
-5.34664e-09
1.30491e-09
4.23553e-09
-1.42238e-09
-4.45704e-09
2.75074e-09
-1.1949e-09
-6.6482e-12
-6.66911e-10
4.44626e-09
-4.09288e-09
1.63022e-09
3.76757e-09
4.12638e-09
-1.39599e-09
-5.57129e-09
-5.68531e-10
6.02027e-10
-1.65167e-09
2.61496e-09
3.24842e-09
-6.06679e-09
2.76626e-09
-8.63762e-11
-8.03141e-11
-1.40856e-08
-2.12761e-09
-4.72187e-09
-1.04135e-08
-1.85267e-08
3.27506e-08
-2.51526e-08
-9.48266e-10
-6.64976e-09
1.77613e-08
1.88658e-08
-3.8765e-09
1.40139e-08
-6.65372e-09
-3.10191e-09
-4.25827e-09
9.85645e-09
2.19188e-08
-9.14441e-09
1.24108e-08
-5.394e-09
3.26624e-09
-2.28242e-08
-1.42887e-08
-1.75176e-08
1.34229e-08
-4.11396e-09
7.272e-09
1.93339e-08
2.63967e-08
-1.20759e-08
-2.12337e-08
1.90209e-08
-2.02925e-08
2.30537e-08
9.1905e-09
-1.05831e-08
-2.16612e-08
2.26382e-08
1.34422e-09
-9.28671e-10
-2.3107e-08
2.95999e-08
1.61452e-08
7.34218e-10
-1.46507e-08
-3.28052e-08
-9.07578e-09
1.0827e-08
3.1054e-08
4.49753e-09
-2.95649e-08
-7.73782e-09
-1.17038e-08
1.29313e-08
1.1669e-10
5.10748e-09
1.54167e-08
1.61205e-08
-1.24912e-08
8.68209e-10
4.7977e-10
2.64677e-08
-8.60702e-09
-1.25879e-08
2.16747e-08
-2.39099e-09
-7.13825e-09
9.22252e-10
1.0952e-08
-1.12694e-08
-2.07364e-09
-1.21626e-08
1.05267e-08
1.43958e-08
-1.66971e-08
-8.28177e-09
1.74202e-10
2.51779e-09
-1.1022e-08
-1.78087e-08
1.09006e-08
-1.88477e-08
-4.50588e-09
1.11909e-08
4.62742e-09
-1.37189e-08
-2.1779e-09
-1.45634e-08
3.43058e-10
-1.74592e-08
1.42118e-08
-1.13159e-08
9.33845e-09
-2.63217e-08
-4.76018e-10
3.00968e-09
-1.65544e-08
1.08038e-08
-1.24873e-08
2.65035e-08
-1.48789e-09
9.50643e-09
-1.07128e-09
-3.41752e-09
4.49476e-09
-5.97292e-12
-5.84962e-09
6.60433e-09
-1.82597e-09
-9.88428e-10
1.43455e-09
-3.86364e-09
-8.2227e-09
-4.60555e-09
2.05778e-09
2.14726e-09
4.00546e-10
-4.01584e-09
3.8763e-09
-1.4835e-09
-5.08569e-09
2.69293e-09
-3.50205e-09
-2.73542e-10
7.65192e-09
-4.45875e-09
-5.26776e-10
2.0938e-09
6.84693e-09
2.79353e-09
2.90735e-09
1.43755e-08
-1.30137e-08
-2.92401e-09
9.37271e-09
6.56503e-09
1.71155e-09
-3.61352e-09
-1.11117e-08
-1.22689e-08
5.83261e-09
3.5123e-09
-1.78759e-09
-8.76975e-09
4.19098e-09
-7.13924e-09
-9.64676e-09
1.2595e-08
-6.16243e-10
-7.00037e-10
5.50727e-09
-1.50736e-10
-1.0602e-08
3.94984e-09
1.9159e-09
-6.01648e-09
1.8635e-09
-8.44547e-10
8.35377e-09
-5.11241e-09
4.32409e-09
6.62094e-09
4.10886e-09
-7.75244e-10
-3.09314e-09
-7.11421e-09
7.69167e-09
2.51573e-09
-7.43737e-09
5.31297e-10
3.81299e-09
-6.75301e-09
3.13078e-09
-1.49017e-09
-6.62471e-09
2.92838e-09
-8.00455e-09
-2.038e-09
-6.20958e-09
1.70061e-09
4.282e-09
-6.70509e-09
2.95439e-09
-2.67992e-09
-2.19384e-09
-4.78064e-09
-6.75041e-09
-2.02019e-09
7.42133e-09
1.34925e-09
5.10785e-09
-1.15368e-08
2.16419e-09
4.26473e-09
6.81771e-09
-9.16725e-09
7.45739e-09
-4.04558e-09
1.26682e-08
-1.80496e-09
-2.38079e-09
-1.63532e-09
-7.52073e-09
-6.08261e-09
-3.0486e-09
1.03876e-08
-2.86117e-09
-2.93264e-09
-4.59376e-09
-1.68392e-09
5.45408e-09
6.61742e-09
4.37792e-09
-1.04806e-08
2.00196e-11
4.24488e-10
2.81109e-09
-1.24028e-08
5.13732e-09
2.05025e-09
-6.7631e-09
7.87283e-09
-5.84642e-09
-4.88757e-09
4.2631e-09
1.92582e-09
-8.00068e-09
9.40917e-09
-5.796e-09
-7.38148e-09
5.91298e-09
2.13029e-08
-1.40574e-09
-4.43015e-09
-1.5467e-08
2.57735e-08
1.63373e-09
-6.10431e-09
1.75561e-09
5.92353e-09
-1.22235e-08
4.54432e-09
5.41935e-09
-9.03303e-09
5.3693e-09
2.66411e-09
-4.3394e-09
7.09466e-09
-1.03767e-09
9.62531e-09
5.4372e-09
1.49452e-09
1.88418e-08
-1.2474e-08
1.636e-08
-2.25233e-09
-3.54385e-09
-1.03358e-08
-9.45048e-09
-3.91463e-09
1.14165e-09
-8.49875e-09
-9.98475e-09
-4.41653e-09
-7.5113e-09
1.08902e-08
1.56387e-08
-3.76886e-09
-1.63e-08
1.66594e-08
1.35151e-08
-5.98082e-09
-1.99012e-10
6.53755e-09
-3.57696e-10
5.97114e-10
2.62151e-09
-9.19944e-09
6.84802e-09
3.18924e-09
-9.44011e-09
7.28137e-09
-6.32355e-10
-8.54929e-09
-2.87663e-09
-2.34849e-09
3.36763e-10
-3.49584e-09
3.46028e-09
-3.81488e-09
2.24291e-09
2.91128e-09
-7.64031e-09
-6.49707e-10
5.37881e-09
-6.50334e-09
1.15885e-09
8.2558e-09
-3.26545e-09
-7.04403e-09
2.66923e-09
5.02952e-09
-8.25728e-09
-3.76498e-11
-3.70336e-09
2.22957e-09
3.33707e-09
5.80206e-09
-9.78879e-09
-6.42773e-09
1.09237e-08
8.20083e-09
-7.42345e-09
7.68914e-09
-8.46649e-09
-1.01891e-08
-1.07047e-09
4.21553e-09
-1.06219e-08
1.26049e-08
-8.41073e-09
-8.6204e-11
-2.33483e-09
2.78634e-10
2.31398e-09
-6.29577e-09
-3.87816e-09
4.81371e-10
-6.79227e-09
-9.97164e-09
-2.16377e-09
-5.84872e-09
-3.39719e-09
9.72729e-09
1.2446e-08
-1.61918e-09
-8.57169e-09
-2.25515e-09
1.2765e-09
8.77462e-09
2.39486e-09
-7.85394e-09
1.9429e-09
7.18751e-09
-5.88605e-09
-3.58708e-09
6.29838e-09
-4.08858e-09
-1.07815e-08
-1.25292e-09
-1.02259e-09
8.57388e-09
2.73463e-09
4.61098e-09
-1.14342e-08
4.43226e-09
5.39966e-09
-7.09732e-09
1.40051e-09
-2.6756e-09
6.5165e-09
-6.83754e-10
5.38105e-10
-6.36822e-09
7.773e-09
5.98554e-09
-1.83882e-09
-6.50875e-09
8.70974e-09
-1.66291e-09
9.1279e-10
-7.64519e-10
3.89579e-10
-1.81925e-09
2.63142e-09
-6.64951e-09
5.8374e-09
5.95767e-09
-8.63905e-09
8.62169e-10
3.1534e-10
5.49015e-09
-8.15887e-10
-4.98958e-09
7.40731e-09
-6.34999e-09
-7.41938e-10
8.42883e-09
-5.50756e-09
-2.89802e-10
5.10799e-09
8.43957e-10
5.74354e-12
-6.68958e-09
5.193e-09
8.90392e-09
-1.08902e-09
-1.10399e-10
3.73743e-09
-1.65857e-09
2.95588e-09
-9.78751e-09
-8.45454e-10
7.67716e-09
-2.03683e-09
1.01857e-08
-9.24422e-09
-1.63228e-09
1.24145e-08
-1.32986e-08
4.6216e-09
-4.37039e-09
1.47481e-08
-1.64203e-08
1.12044e-08
-1.16141e-08
3.7817e-09
-8.58789e-09
5.0893e-09
-5.41057e-09
-1.12928e-08
9.53083e-10
-4.34831e-10
-4.02597e-09
-5.19113e-09
-7.45632e-09
-9.25032e-09
3.11692e-08
-2.78023e-08
-7.04288e-09
3.67593e-09
-5.97215e-09
2.57285e-08
-1.45377e-08
1.94371e-08
-8.92804e-09
-1.08658e-08
-9.749e-10
-2.69708e-09
3.35178e-08
-1.09399e-08
-3.73082e-09
-1.88471e-08
2.31306e-08
4.41504e-09
-1.04453e-08
-1.71926e-08
2.01815e-08
-1.33931e-08
-2.53492e-08
-8.77169e-09
-6.12007e-09
-1.0393e-08
-1.65571e-08
2.32193e-08
1.49188e-09
-2.53303e-08
-1.76728e-08
-1.37501e-09
1.29517e-09
-4.18609e-09
4.2659e-09
-2.28632e-10
-4.17832e-09
3.03193e-09
-9.44622e-10
-2.0097e-09
3.48465e-11
-2.03736e-10
-5.33134e-09
-2.03623e-09
-4.13621e-09
2.3199e-09
-2.91664e-09
-6.42285e-11
1.18821e-09
2.78223e-09
-4.19909e-09
5.67837e-09
-4.6939e-09
3.28212e-09
-3.41653e-09
-1.11485e-10
-7.42609e-10
-1.52645e-09
-4.39091e-09
-4.57119e-09
7.26529e-11
8.88953e-09
-2.34859e-09
-5.0975e-09
3.0553e-09
-3.12871e-09
-5.84287e-09
4.40047e-09
-6.77577e-09
1.29852e-09
-3.2562e-09
-3.5641e-09
6.893e-09
-1.91591e-09
-5.04815e-09
1.88323e-10
5.67208e-09
-6.07863e-09
-1.50932e-09
-4.87019e-09
4.63074e-09
5.52416e-10
-3.12932e-10
1.41279e-09
-4.20445e-09
-2.25646e-09
5.76794e-09
-4.72844e-09
8.48689e-09
-9.52636e-09
2.21277e-10
-3.69341e-09
2.16003e-10
7.95877e-10
-2.02892e-09
9.20966e-09
8.49942e-10
-9.78281e-09
1.84557e-09
1.97445e-11
3.00608e-09
-4.87133e-09
5.98786e-09
-6.17119e-09
1.60102e-09
1.7658e-09
-5.0117e-09
3.04863e-09
-5.76319e-09
3.5265e-09
-1.49923e-09
2.47543e-09
1.61232e-09
-1.05429e-10
-2.07861e-09
-2.45856e-12
-2.95668e-09
-3.60637e-09
4.48668e-09
2.07634e-09
8.60428e-10
-3.65733e-09
-1.59793e-10
3.62395e-09
-2.67919e-09
-8.43517e-11
2.51481e-09
3.33179e-09
1.69439e-10
-6.01606e-09
7.81333e-10
5.76344e-09
-5.54632e-09
-9.98477e-10
-2.939e-09
6.29988e-11
-2.47466e-09
4.63172e-09
-6.00247e-09
-1.91697e-09
3.1553e-09
4.76413e-09
-7.60768e-09
-6.04529e-09
7.65049e-09
-5.90881e-09
5.23377e-10
-1.60903e-10
-7.2015e-09
2.80986e-09
-4.93944e-09
1.52461e-09
-2.49633e-09
5.91114e-09
3.12007e-09
-3.58485e-09
-4.4747e-09
-6.65761e-10
3.72178e-09
6.40431e-11
3.57887e-09
2.04411e-09
-1.16849e-09
-4.45454e-09
-2.59053e-11
-4.75391e-09
8.89197e-10
5.71598e-10
-7.24973e-09
-5.0324e-09
-1.05067e-09
1.69587e-09
-6.44924e-09
-5.18397e-09
1.84742e-09
-2.10643e-09
2.46106e-09
2.10356e-09
-2.01017e-08
1.34386e-08
4.55958e-09
-1.40355e-08
1.04888e-08
5.6503e-09
-8.86639e-09
4.80751e-09
-3.64248e-09
7.70136e-09
6.96353e-10
3.20711e-11
-9.59483e-09
7.98919e-09
-7.86594e-09
5.73087e-10
1.27113e-09
1.15256e-08
-7.89767e-09
-1.35494e-09
-4.78291e-09
-7.17071e-09
-2.08287e-08
-4.93857e-09
1.66985e-08
-5.88217e-09
1.43822e-08
-1.60182e-08
2.22466e-09
1.01511e-08
-1.41413e-09
-7.23372e-09
-7.37031e-09
5.12635e-09
8.23932e-10
-1.36349e-08
7.68467e-09
5.82607e-09
-4.73006e-09
4.03037e-09
-3.39481e-09
-1.71375e-08
1.348e-08
-9.18835e-09
-9.36328e-09
-1.55351e-08
1.95268e-08
-1.74773e-08
-3.76289e-09
1.71343e-09
1.33058e-08
8.66884e-09
-2.44787e-09
6.70133e-09
1.65091e-08
-9.90459e-09
-1.64306e-08
-1.93004e-08
1.82537e-08
-1.04636e-08
-5.65437e-09
2.28194e-08
1.86774e-08
-1.36059e-08
-1.55351e-08
-9.91278e-09
-1.3875e-08
1.81335e-08
-2.50887e-08
1.58938e-08
-7.17895e-10
-2.11755e-08
9.44945e-09
-2.14896e-09
-3.22784e-08
2.7853e-09
4.40456e-09
-2.79992e-09
-2.00074e-08
-9.47092e-09
-1.4442e-08
-9.35169e-09
2.09937e-08
-2.39938e-08
5.6037e-09
-2.25354e-09
-5.27879e-09
-1.35873e-08
2.11197e-08
-4.17042e-09
-1.45137e-08
-1.43191e-09
7.43172e-09
-2.60071e-08
-2.00443e-08
-2.18409e-08
1.5516e-09
6.50314e-09
1.22632e-09
-9.28108e-09
3.93294e-09
-5.39386e-09
3.92892e-09
-2.468e-09
1.08031e-09
2.90754e-09
-5.49091e-11
6.84624e-09
-8.47176e-09
4.87922e-09
-3.2537e-09
1.63472e-09
5.43968e-09
-5.52281e-09
-1.88741e-10
-6.64695e-10
7.69966e-09
-2.05342e-09
2.93245e-09
7.55668e-10
-4.01009e-09
2.15736e-09
-2.00715e-10
-4.63627e-09
-6.57507e-10
5.10502e-09
3.18186e-09
-5.26392e-09
-2.55422e-09
2.5209e-10
-6.18589e-09
8.59803e-09
-2.22375e-09
-1.30068e-08
7.67089e-09
3.00165e-09
8.10568e-09
-2.50922e-09
1.53348e-08
-1.77343e-09
-1.05597e-08
-1.36006e-08
9.94228e-09
5.42409e-09
-4.00091e-09
-1.11272e-09
5.03689e-09
4.36734e-09
3.50544e-10
1.39922e-08
1.19779e-08
-1.78884e-08
2.12453e-08
1.73654e-08
-3.13704e-08
1.70625e-09
1.29351e-08
1.67292e-08
-1.14368e-08
-8.3897e-09
-1.15439e-08
-2.35863e-08
1.4691e-08
1.06016e-08
-1.29143e-08
-2.21087e-08
-9.35604e-09
1.85072e-08
3.7839e-09
1.58759e-08
-1.29096e-08
-1.1356e-08
-3.93215e-09
1.0452e-08
-4.71603e-09
1.70556e-08
8.67276e-09
-2.10123e-08
-1.22059e-09
-1.76857e-09
-9.92515e-09
-9.42901e-10
1.08691e-08
-1.11468e-08
1.36865e-09
1.17693e-08
-1.40808e-08
1.34163e-08
-1.38162e-08
7.25247e-09
-1.30923e-08
1.92562e-08
-7.47714e-09
-3.32709e-09
1.80567e-08
-1.60039e-08
7.35578e-09
6.84767e-09
-8.88817e-09
9.7193e-09
-5.42707e-09
5.63059e-10
5.66427e-09
-1.23087e-08
7.22753e-09
-5.83107e-10
-1.86356e-09
4.55672e-09
2.97111e-09
2.49962e-09
1.74891e-09
3.24897e-09
-7.49747e-09
3.18586e-09
6.71089e-09
-7.39714e-09
-8.52403e-09
-4.82296e-09
6.63686e-10
1.26833e-08
-5.58675e-09
-3.34667e-09
4.09367e-10
1.55758e-09
5.55686e-09
-3.9286e-09
6.11654e-09
-6.71579e-09
-4.98751e-09
3.0425e-09
-3.58976e-09
5.811e-09
-2.48593e-09
-4.4505e-09
-2.13078e-09
4.5207e-09
1.03276e-11
-2.40025e-09
3.09642e-09
-1.85022e-09
-3.37698e-09
6.158e-10
4.62513e-09
-7.20242e-10
3.6726e-09
3.96211e-11
3.4088e-09
1.02751e-09
-6.28653e-09
3.09517e-09
4.20084e-09
-3.88721e-09
3.96983e-09
-8.93347e-10
1.86842e-11
3.18952e-09
4.18685e-09
-6.34886e-09
6.89193e-09
-3.69207e-09
-1.08368e-08
-1.03466e-09
9.4142e-10
1.093e-08
1.0604e-09
-7.54536e-09
-4.35182e-09
1.18179e-08
-5.75899e-09
-4.57707e-09
-1.48189e-09
-2.65794e-10
1.10491e-08
-5.43906e-09
5.83399e-09
3.5749e-09
1.74744e-09
-2.98567e-09
-9.10458e-09
5.28015e-10
8.31076e-09
-3.49878e-09
-3.85837e-09
7.82705e-09
-4.68592e-09
-2.08074e-09
-9.82932e-11
8.86676e-09
2.85244e-09
-7.31997e-11
-6.41242e-09
-3.88899e-09
4.85672e-10
5.87633e-09
7.11776e-10
-7.72581e-10
-3.5748e-09
3.96218e-09
-1.05775e-11
7.43611e-09
-1.19776e-08
6.70568e-09
1.60542e-09
1.55244e-08
-9.69372e-09
-8.70344e-09
1.77663e-08
-9.42951e-09
-4.18341e-09
-7.0781e-09
-3.12335e-09
-8.2365e-09
1.8438e-08
-9.85924e-09
2.82967e-08
-1.4234e-08
1.22617e-08
-6.73119e-09
-6.3926e-09
-6.16026e-09
3.01121e-09
1.09595e-08
1.50886e-08
3.66574e-09
4.30528e-09
3.2373e-09
-3.00598e-09
-4.53658e-09
4.37825e-09
-1.53306e-10
8.03303e-11
-1.45092e-09
3.90456e-09
1.92462e-09
1.81359e-09
-2.72033e-11
-2.5523e-09
4.02479e-09
-5.33613e-09
2.52208e-09
-8.08035e-09
3.61297e-09
3.66922e-09
-4.76013e-09
8.87866e-10
2.85878e-09
-1.33673e-10
-1.44353e-10
2.69843e-09
3.03096e-12
4.87564e-09
-1.2124e-09
3.8429e-09
3.89152e-09
-1.95625e-09
8.66638e-10
3.78808e-09
2.34886e-09
6.80335e-09
1.75608e-08
-1.58007e-08
3.66402e-09
5.75938e-10
1.55389e-08
1.44593e-09
-2.76436e-09
-7.32888e-09
-1.22203e-08
2.23137e-08
1.41949e-08
-6.00387e-09
-1.09554e-08
-5.60664e-09
7.14448e-09
-1.00924e-08
-3.05592e-09
1.15748e-08
-1.23683e-10
-4.30664e-09
7.31217e-09
-2.32064e-09
6.58328e-09
4.46364e-09
-3.33422e-09
9.04871e-09
-1.01781e-08
1.01628e-08
1.61299e-09
1.19438e-08
-5.05131e-09
-1.42214e-08
-3.47448e-10
1.24166e-08
-1.08456e-08
-1.22356e-09
-3.48005e-10
-2.55765e-09
1.48496e-08
1.12083e-08
-1.3929e-09
1.08719e-08
5.73732e-09
-7.22556e-09
-9.3837e-09
1.28494e-08
1.23529e-09
-3.21274e-09
3.52071e-09
4.33357e-09
-2.11694e-09
1.52739e-08
1.09622e-09
-8.60602e-09
-3.42752e-09
-4.90153e-09
1.69348e-08
8.30659e-10
-1.07983e-08
1.36153e-09
-4.5793e-09
1.98214e-09
-6.90709e-09
9.13769e-09
-9.9532e-10
-4.43007e-10
-1.36896e-08
1.67062e-08
1.96668e-09
-8.37947e-09
-1.02934e-08
7.73336e-09
-1.09247e-09
1.00653e-08
-1.48746e-08
1.77065e-08
4.97385e-09
-8.19832e-09
-1.16502e-08
-1.2636e-08
4.73445e-09
6.80907e-09
-6.33575e-09
-6.20692e-09
1.1342e-08
1.01388e-08
-4.85227e-09
-9.72218e-10
-1.92151e-09
-1.70208e-08
1.14972e-08
3.63969e-09
-2.39517e-08
5.86591e-09
1.44461e-08
3.29701e-08
-3.13914e-09
-2.4016e-08
-5.81496e-09
2.57573e-08
1.64787e-08
-9.26588e-09
1.44372e-08
-2.08488e-08
9.60154e-09
-3.18987e-09
1.18214e-08
-8.38101e-09
1.09969e-08
4.24676e-09
-1.66822e-08
-8.41334e-09
1.83732e-08
-1.78726e-08
1.68329e-08
4.69092e-09
-4.31832e-09
-1.72055e-08
2.16137e-08
1.53607e-08
-2.01415e-08
-1.96347e-08
3.49678e-08
1.15806e-08
6.47248e-09
1.35493e-08
-2.57166e-08
-5.2927e-09
1.38474e-08
-1.02369e-08
-3.26742e-09
7.13165e-09
-1.04637e-08
1.15412e-09
9.95598e-09
3.86127e-11
-2.80208e-09
-7.19253e-09
-9.25549e-09
-3.96103e-09
2.37432e-08
2.06258e-09
9.51791e-09
2.26686e-09
7.77648e-09
4.24207e-09
1.14533e-08
9.89148e-09
-2.72123e-09
7.31997e-09
4.97853e-10
1.11354e-08
1.16761e-09
-1.8432e-08
-3.96937e-09
-2.33532e-09
-1.40147e-08
1.61692e-08
-5.42884e-09
-1.30757e-08
-1.12551e-08
1.39766e-08
1.34477e-08
-1.42938e-08
2.09845e-09
9.40302e-10
-2.85887e-09
-1.68638e-08
1.13589e-08
-1.55318e-08
1.31406e-09
9.57008e-09
-6.75622e-09
8.54505e-09
2.83787e-10
2.7797e-09
7.68426e-09
-1.07477e-08
1.126e-08
4.5866e-09
-1.55628e-08
-3.97118e-09
1.69995e-08
1.09373e-08
7.31205e-10
9.74586e-09
1.0078e-08
6.79212e-09
-1.32653e-08
-3.60478e-09
1.22047e-08
7.59341e-09
-9.72017e-09
-1.00628e-08
5.99422e-09
1.62733e-08
-4.87177e-09
1.60105e-09
-1.94867e-08
1.38092e-08
-7.5878e-09
-3.36688e-08
1.61892e-08
-4.72768e-09
2.22072e-08
8.62993e-09
-1.49793e-08
-2.73193e-08
-5.14405e-09
1.07002e-08
4.38042e-10
-1.32501e-08
4.2877e-09
3.81829e-09
2.22513e-08
-1.65884e-09
-1.19625e-08
2.6503e-08
1.19375e-08
1.65536e-08
-2.63844e-08
-5.1485e-09
6.95413e-09
-8.1029e-09
-6.65518e-10
-4.48173e-09
-9.15367e-09
-1.02032e-08
1.7698e-08
-1.07258e-08
-6.53076e-09
2.17827e-09
8.15148e-10
9.874e-09
-1.28674e-08
1.45515e-08
1.6886e-09
-1.40618e-08
6.15928e-09
1.33986e-08
-5.00643e-09
-8.6968e-09
9.94378e-09
4.91229e-09
-2.57359e-09
2.04481e-08
-1.61859e-08
-2.92446e-09
1.59428e-08
-1.55919e-08
9.49422e-09
-1.16035e-08
1.40076e-09
-2.23572e-10
2.2785e-09
-5.45941e-09
1.65796e-08
-3.18324e-09
1.54055e-08
1.41341e-09
3.41339e-09
1.1116e-08
1.64021e-08
9.66434e-09
1.23064e-09
9.8945e-09
-3.05103e-10
-4.57024e-09
1.70348e-08
-1.91745e-09
-9.24599e-09
-5.87134e-09
1.36789e-08
1.09762e-08
-7.62022e-09
1.42783e-08
-9.63068e-09
1.47199e-08
1.42189e-09
-9.07054e-09
-2.9051e-09
1.23124e-08
-7.0316e-10
-8.72506e-09
4.35903e-11
1.01394e-08
-3.70297e-09
1.25177e-08
-1.17198e-08
1.10605e-08
-1.44089e-08
6.25204e-09
-1.938e-09
1.00949e-08
3.83854e-09
-1.63772e-08
-1.87031e-09
-1.8869e-08
2.12511e-09
2.29959e-08
3.49293e-09
-1.85234e-08
4.04158e-09
-9.71851e-09
1.22837e-08
-3.82061e-09
-4.42153e-09
7.24174e-09
3.104e-09
-1.23101e-08
1.73999e-08
-2.96474e-09
-1.20928e-08
-8.82026e-10
-1.09107e-09
7.64586e-09
-4.86414e-09
-3.56199e-09
4.60551e-09
-5.28379e-09
-7.2702e-09
4.61212e-10
3.09312e-09
-9.04833e-09
-1.06625e-08
-1.9037e-08
7.1824e-10
3.52986e-09
1.4789e-08
-5.66231e-09
3.07231e-09
5.3371e-09
1.80678e-08
-1.38148e-08
1.2897e-08
4.44768e-09
-1.12577e-09
1.95426e-08
8.57569e-09
-3.3589e-09
9.15868e-09
7.41615e-09
-2.04634e-09
3.20587e-09
-1.59838e-09
-4.20472e-09
-1.26505e-08
-7.44417e-09
-7.87761e-09
1.61842e-08
8.7186e-09
5.36933e-09
-9.16903e-09
-5.92893e-09
-7.76272e-09
-2.78593e-09
1.84241e-09
8.70622e-09
-7.7074e-09
-9.46576e-10
8.91247e-10
7.35285e-09
-1.99135e-09
3.11101e-09
-8.47251e-09
-1.61021e-09
1.25566e-09
-7.49448e-10
6.47277e-09
-8.50928e-09
2.26522e-09
-1.29465e-08
8.68988e-09
-4.33585e-09
6.54756e-09
3.70052e-09
-5.91224e-09
-6.04985e-10
-2.63206e-09
-1.09882e-09
-4.94847e-09
7.45448e-09
6.86669e-09
3.25269e-09
8.80034e-11
-1.02074e-08
-1.09573e-08
6.97314e-09
5.04587e-09
-1.0617e-09
-1.3038e-08
4.34588e-09
-7.23011e-10
9.4321e-09
1.86076e-09
3.93734e-09
5.76444e-09
4.46138e-09
6.90218e-09
-4.20745e-09
2.63676e-09
-1.6632e-09
3.23386e-09
-2.87155e-09
-1.28853e-09
-4.7394e-11
-5.61349e-09
6.00844e-09
4.17878e-09
-4.57375e-09
3.65352e-10
-8.54843e-10
-5.12402e-09
-1.4945e-09
3.98091e-10
3.73315e-09
-8.95607e-09
2.94768e-09
4.34516e-09
7.42033e-09
-2.65673e-09
-4.06195e-09
-7.01694e-10
-4.40731e-09
-3.68778e-09
-1.36242e-09
3.55567e-09
-4.86845e-09
-1.07871e-10
5.12178e-09
-1.91616e-09
-5.86238e-09
1.90263e-10
6.30528e-11
2.26281e-09
-7.88109e-09
-3.18622e-10
5.93688e-09
-9.32519e-09
2.08895e-09
9.49904e-09
-6.39083e-09
-1.12492e-09
-7.20927e-09
-8.50675e-09
1.12001e-09
-8.19285e-09
5.15666e-09
4.3274e-09
-8.23999e-10
4.16974e-09
-7.89073e-09
3.92623e-09
-4.4284e-10
-6.05461e-09
-5.89807e-09
3.05693e-09
-9.1462e-09
7.35246e-09
-4.99725e-09
8.61739e-09
-7.29312e-10
-5.71698e-09
5.70437e-09
3.28952e-09
-4.17816e-09
1.59333e-10
3.22256e-09
-3.44573e-09
3.5127e-09
3.4453e-09
-1.37324e-10
-8.53973e-11
-2.43258e-09
-1.28403e-09
3.75697e-09
-4.03323e-11
2.26712e-09
-3.70876e-09
-2.73651e-09
-1.25052e-09
7.19224e-11
-4.12082e-09
6.38002e-10
4.13354e-09
-6.50691e-10
-2.71481e-10
-4.77927e-09
9.29945e-10
-3.56293e-09
-1.20161e-10
-5.71845e-10
-7.34771e-09
8.79532e-09
-8.75724e-10
6.20919e-10
-4.45532e-09
-3.65969e-09
-8.60579e-09
6.35821e-09
9.66454e-11
2.15093e-09
-2.08416e-09
-1.00457e-08
3.52406e-09
-5.00911e-09
7.4815e-09
3.88583e-09
1.38339e-08
-2.9624e-09
-1.58806e-08
4.51844e-09
-5.63441e-09
5.0815e-09
-3.96554e-09
3.40617e-09
1.20892e-09
8.46856e-10
-8.56542e-09
-2.14122e-09
7.25212e-09
-6.21639e-09
1.1055e-09
-5.72942e-09
-4.76754e-10
1.36877e-08
-4.98858e-09
1.30931e-08
-4.36334e-09
4.14693e-09
3.62258e-09
8.04467e-10
-8.62929e-11
5.56745e-09
-6.86181e-09
4.84983e-09
5.59662e-09
-4.879e-09
5.58576e-09
6.8548e-11
-2.81346e-09
3.43799e-09
4.96124e-09
5.94916e-10
2.18825e-09
2.85845e-09
7.10817e-09
6.34795e-09
-8.04176e-10
-1.10801e-08
5.5363e-09
-7.6626e-09
1.00146e-08
-8.86701e-09
3.86115e-09
4.20168e-09
5.41786e-09
-8.1381e-09
-6.14677e-09
5.25104e-09
-6.77105e-09
-9.5601e-09
-8.89504e-10
-1.52207e-09
6.68927e-09
-3.28783e-09
-8.0919e-09
4.69045e-09
2.85741e-09
4.00857e-09
-1.76732e-10
3.26839e-09
-4.87759e-09
4.98242e-09
-3.37323e-09
5.90178e-11
-7.79141e-09
6.30591e-09
-7.85222e-10
-1.58833e-09
4.21928e-09
-1.27709e-10
-4.98111e-09
6.11845e-09
-6.35622e-09
-1.68229e-09
-1.32269e-08
-9.84773e-09
-1.3741e-09
1.62893e-09
-4.87399e-09
-4.35453e-09
7.59961e-09
-4.81941e-09
-4.94475e-09
1.13931e-08
-3.72992e-09
-1.09076e-08
9.81816e-09
-9.68837e-09
1.08445e-09
4.12597e-10
4.42375e-09
-1.03432e-08
5.50686e-09
-9.31212e-09
5.3702e-09
-7.85515e-09
7.33415e-09
1.63218e-09
9.03827e-09
2.31862e-09
-1.2989e-08
6.75149e-09
-7.10729e-09
1.98801e-09
1.7099e-08
-1.72961e-08
9.23541e-09
1.14501e-08
-6.58648e-09
1.88791e-09
6.57322e-09
4.63258e-09
2.44273e-10
-2.00019e-08
2.20809e-08
-1.17673e-08
-9.67917e-10
-1.935e-09
-2.04461e-09
-1.33222e-08
4.45923e-09
-2.48646e-10
-2.49024e-09
-2.83332e-09
-7.75853e-09
1.64633e-09
-1.15461e-08
2.59926e-09
1.23387e-08
-1.26193e-08
1.34953e-08
-1.07723e-08
-1.23749e-10
-1.95144e-09
1.36872e-08
9.66284e-09
-2.71039e-09
-2.06396e-08
9.55423e-09
1.62085e-08
-1.20756e-08
-1.21826e-09
8.01816e-09
2.75435e-09
9.55537e-09
5.63158e-10
-4.55627e-10
1.09037e-08
1.48603e-08
2.55401e-09
-8.91322e-09
3.64881e-09
5.38976e-09
-5.46265e-09
-3.61918e-09
1.05959e-09
-6.16684e-09
1.74399e-08
-4.59482e-10
1.54739e-08
-6.51867e-09
-2.66584e-08
1.77032e-08
1.14948e-08
-2.87482e-09
6.85398e-09
1.49752e-08
9.06405e-10
-1.97505e-09
-1.39066e-08
1.83725e-08
-2.02942e-08
1.68968e-08
2.24805e-08
-1.18887e-08
1.42973e-08
-2.4889e-08
3.2027e-09
2.36825e-08
1.04987e-08
-2.8906e-08
2.27337e-08
-1.96305e-08
-2.19672e-09
1.92694e-08
1.26023e-08
-9.13799e-09
2.84712e-11
-1.68977e-08
7.37711e-10
1.61316e-08
8.01086e-10
1.75999e-08
-2.20016e-09
-1.31572e-08
-1.47649e-08
4.22193e-08
-2.2289e-08
2.85722e-08
-2.20018e-08
-1.82422e-08
1.16718e-08
1.16262e-08
3.04807e-08
-1.35348e-08
-1.22762e-08
1.17419e-08
-2.11962e-08
2.17306e-08
1.20415e-08
-1.68425e-08
-5.24247e-09
1.00434e-08
1.96689e-08
3.99881e-09
-3.87287e-10
-1.10224e-08
2.46558e-09
8.94406e-09
-1.46563e-08
2.29787e-09
1.19711e-08
1.80221e-08
-2.41542e-09
-2.7883e-08
-3.78379e-09
-1.95864e-10
2.26536e-08
-2.02044e-09
-8.89129e-09
1.71819e-08
-5.55069e-09
-1.14308e-08
-1.39541e-08
1.07286e-08
9.24609e-09
-1.95925e-08
-1.42577e-08
1.44447e-08
-3.97088e-09
7.6321e-09
-2.43052e-08
6.84832e-09
-1.01205e-08
-5.85404e-09
2.92832e-09
-1.13691e-08
3.3702e-09
5.07054e-09
5.27009e-09
-6.81267e-09
4.47089e-09
-4.71797e-09
-9.67424e-10
7.74415e-09
-2.05879e-09
-9.24749e-10
1.47687e-09
2.81667e-09
-3.85511e-09
-1.03306e-08
-2.35644e-10
-2.8329e-09
4.68877e-09
-4.43934e-09
2.58346e-09
1.56112e-09
-4.18198e-09
-2.12045e-10
-3.91587e-09
-2.14833e-09
5.09676e-09
-1.5185e-10
-8.23905e-09
1.48483e-09
4.73373e-09
2.02047e-09
-2.09211e-09
-3.89681e-09
-2.25014e-09
-3.98948e-09
3.32598e-09
-2.34164e-09
-8.67336e-11
-7.52169e-09
-5.87978e-09
1.13094e-08
-2.0688e-09
-1.92884e-09
-4.32194e-09
-4.06332e-09
-2.17513e-09
-1.65581e-10
-1.12112e-08
-6.15774e-09
2.91284e-09
3.59577e-09
1.14043e-08
1.14645e-08
2.07778e-08
3.51059e-09
9.47336e-09
-1.57084e-09
-1.14131e-08
1.01019e-08
-8.37612e-09
1.78482e-09
9.04727e-09
-6.23722e-10
1.04981e-09
8.51569e-09
1.06335e-08
6.95035e-09
1.05181e-09
-9.573e-09
5.98382e-09
3.42816e-10
9.03338e-09
-1.02374e-08
2.25583e-09
3.81467e-09
2.06737e-09
2.63363e-09
-5.49797e-09
1.73325e-09
7.57938e-09
1.25723e-08
8.12355e-09
-1.16624e-08
1.38901e-10
7.36556e-09
5.06776e-09