/*--------------------------------*- C++ -*----------------------------------*\
| =========                 |                                                 |
| \\      /  F ield         | OpenFOAM: The Open Source CFD Toolbox           |
|  \\    /   O peration     | Version:  v1612+                                |
|   \\  /    A nd           | Web:      www.OpenFOAM.com                      |
|    \\/     M anipulation  |                                                 |
\*---------------------------------------------------------------------------*/
FoamFile
{
    version     2.0;
    format      ascii;
    class       surfaceScalarField;
    location    "166";
    object      phi;
}
// * * * * * * * * * * * * * * * * * * * * * * * * * * * * * * * * * * * * * //

dimensions      [0 3 -1 0 0 0 0];

internalField   nonuniform List<scalar> 
37880
(
-2.36016e-09
1.28391e-08
-1.25894e-08
2.11039e-09
-1.11444e-08
9.34477e-09
-5.60553e-10
1.05207e-08
3.1832e-09
-8.6484e-10
2.07388e-09
-4.93466e-09
1.33815e-08
-1.09313e-08
-2.87388e-09
1.58791e-08
-9.95853e-09
2.21041e-09
1.16918e-08
-3.10919e-10
-9.2598e-09
-2.12109e-09
-5.10498e-09
1.39228e-08
-1.11278e-08
1.12633e-08
-5.24055e-09
-9.21824e-09
-2.22046e-09
9.67973e-10
-1.67479e-09
-1.04376e-08
-8.94643e-10
-1.07268e-08
-2.90613e-09
7.31623e-09
-1.04359e-08
-8.78244e-09
-1.31935e-08
1.29908e-08
-1.11598e-09
1.28791e-08
-1.34379e-08
1.28707e-09
-1.00435e-08
8.26299e-09
1.70994e-09
-2.30999e-09
-2.26246e-09
-9.84866e-09
-2.89901e-09
-1.34716e-08
-2.14873e-09
4.89343e-09
2.03306e-09
-2.28457e-09
1.06664e-09
1.04267e-08
3.16343e-09
1.18542e-08
2.84872e-10
6.38483e-09
-2.52447e-09
-4.14528e-09
8.91214e-09
-3.62293e-09
-5.00435e-09
-4.49647e-10
6.43834e-09
3.96071e-10
1.35442e-10
8.32702e-09
-3.37552e-09
-4.41417e-09
5.2652e-09
-2.66236e-11
8.16566e-09
-1.53601e-10
-7.98554e-09
7.6596e-09
-7.55082e-09
-2.80914e-09
-5.13387e-09
4.32008e-09
-1.16672e-08
5.48259e-09
-3.87639e-09
-4.27551e-09
-1.72636e-09
9.87824e-09
-7.47896e-09
-3.31436e-09
6.91687e-09
-4.30423e-09
-1.84911e-09
1.87777e-09
5.71097e-10
-5.25085e-09
3.75474e-10
-8.73888e-09
1.83098e-09
-7.02286e-09
-8.15242e-09
1.34489e-08
3.90655e-09
-1.42438e-08
1.94946e-09
-4.68538e-09
8.86755e-10
3.26861e-09
4.90784e-09
-1.34273e-08
-1.52541e-08
9.78382e-09
6.10851e-09
-1.23115e-08
-8.98451e-09
9.20695e-09
-2.35092e-09
-4.1353e-10
-1.19109e-09
3.95554e-09
-1.97661e-09
-3.40135e-09
3.28033e-09
2.09763e-09
-2.11791e-09
-2.20963e-09
4.17853e-10
-5.93712e-09
4.15471e-09
-2.75405e-09
-1.81419e-09
-2.87913e-09
7.2963e-09
-2.62468e-10
2.89678e-09
-6.31777e-09
3.83883e-09
-2.804e-09
2.94672e-09
1.00777e-09
-3.77025e-10
2.64959e-09
2.0407e-09
-3.91206e-09
1.07952e-08
-3.55297e-09
2.65537e-09
1.30266e-08
-1.1649e-09
9.88088e-09
2.46727e-10
9.85097e-09
-2.58552e-09
-3.32389e-09
2.37798e-09
7.24434e-09
-6.29845e-09
-1.39373e-08
5.23943e-10
1.00895e-08
3.93342e-09
-1.09858e-08
-6.88501e-09
-8.67073e-11
7.52585e-09
-6.84217e-09
-5.96966e-10
6.857e-09
3.49294e-09
-1.02872e-08
-6.27506e-11
2.30321e-09
-3.38626e-09
-9.58439e-09
1.06674e-08
-1.04149e-09
1.02017e-08
-1.17039e-08
8.84155e-09
-2.26169e-09
-5.50876e-09
-1.1822e-08
5.73053e-09
3.40395e-09
-8.91336e-10
-6.73855e-09
4.22592e-09
1.15226e-09
4.60455e-09
-2.35286e-09
-9.30643e-09
-1.06749e-09
2.44808e-09
5.01501e-09
-4.6903e-09
6.02679e-09
-6.99e-09
-7.09371e-09
2.76761e-09
1.99618e-09
-5.65515e-09
4.9937e-09
-1.07383e-09
-1.43003e-08
-7.64094e-10
-6.47998e-09
9.1102e-10
-1.58929e-09
7.15839e-09
-1.89872e-09
-2.80935e-09
-1.77188e-09
-2.875e-09
-6.5832e-10
4.4444e-09
-3.37152e-09
-1.37241e-09
1.86899e-09
-1.00822e-09
-1.89682e-09
2.24675e-09
1.00118e-11
-2.43383e-09
1.41573e-09
-2.92903e-09
-2.34118e-09
-4.16817e-09
2.58904e-09
-2.17923e-09
-4.79829e-09
1.28463e-09
-1.70871e-09
-2.00973e-09
-4.97657e-10
-1.1448e-10
-1.73921e-09
-1.30821e-10
-4.41278e-09
5.24851e-10
-4.58992e-09
1.11809e-08
-1.5269e-10
4.82302e-09
-4.46819e-09
-4.50011e-09
3.3048e-09
-3.07173e-09
3.13173e-10
3.57624e-09
-8.30363e-09
3.60476e-09
-7.7598e-09
-6.89756e-09
5.54012e-09
4.02651e-09
-2.66913e-09
3.33584e-10
-3.65495e-09
-3.0756e-09
7.01392e-09
2.62613e-09
3.22903e-09
-3.87836e-09
-1.97669e-09
-5.22652e-10
7.16641e-09
-4.0175e-09
3.41124e-09
-2.33454e-09
-1.59929e-09
5.58249e-09
1.24397e-09
-3.41509e-09
-4.03734e-11
3.57525e-09
2.04765e-09
4.51617e-09
2.60989e-09
-1.56276e-09
2.53366e-09
2.6045e-09
-2.08764e-10
-1.09868e-10
1.42174e-10
-1.2789e-09
-2.1816e-09
3.31877e-09
-7.48082e-10
-1.16932e-09
2.05984e-09
4.0217e-10
-4.21269e-09
2.53177e-09
2.18775e-09
-4.42736e-09
4.73094e-09
4.35837e-11
-1.24188e-09
4.68778e-10
1.74072e-09
-1.12123e-09
-1.08815e-09
1.51823e-09
-9.86178e-10
-6.31991e-11
4.48595e-10
-1.41984e-09
-1.97703e-10
-2.92666e-09
1.19398e-09
-1.10326e-10
-1.14235e-09
9.35394e-10
3.51008e-09
-3.13408e-09
-1.31145e-09
-2.04146e-09
2.95174e-09
2.50883e-11
-4.74295e-09
3.19052e-09
-1.36477e-09
2.91703e-09
4.12757e-09
-1.02038e-09
-7.85026e-09
-3.77887e-09
6.39503e-12
6.96296e-09
-4.93782e-09
5.28649e-09
1.00865e-08
-8.1036e-09
-1.50624e-09
-4.76689e-10
-2.15681e-09
7.30547e-09
1.68032e-09
4.64986e-10
1.08532e-09
-5.57611e-09
1.35666e-09
1.69549e-09
-2.65161e-09
-1.87835e-09
2.22586e-09
1.33279e-09
1.18849e-09
-1.15078e-10
-3.04413e-09
-2.00704e-09
1.86937e-09
3.1818e-09
-2.11938e-09
2.63746e-10
4.34084e-09
-8.50468e-09
4.10163e-09
-2.33262e-09
1.90875e-09
1.07126e-08
1.8118e-10
-1.38967e-08
3.00288e-09
-7.04398e-09
2.39499e-08
-6.19332e-09
-1.34827e-08
3.39655e-09
1.02673e-08
-1.28413e-08
-1.19735e-08
1.77708e-08
-2.49472e-09
-5.61371e-09
-4.73281e-09
-1.10524e-08
4.40946e-09
-6.83969e-09
1.00153e-08
-5.7829e-09
-1.52848e-08
-8.88852e-09
-5.98764e-10
-3.2568e-09
2.22075e-09
1.10513e-08
-5.70931e-09
-5.67393e-09
-1.33437e-08
-1.88656e-09
-4.24288e-09
-1.47145e-08
-1.57351e-08
-6.40081e-09
6.45404e-09
1.53306e-08
-1.53838e-08
2.89989e-09
-1.5619e-08
6.31835e-09
5.09236e-09
-9.75395e-09
7.56148e-09
-7.08523e-09
1.86317e-08
-1.30793e-08
4.71444e-09
-7.25417e-09
-4.61515e-09
3.34453e-09
-8.48336e-09
-1.02761e-08
-7.53173e-09
1.07226e-08
-6.37281e-09
-8.41216e-09
4.50893e-09
9.40043e-09
-1.82816e-08
2.50833e-09
-2.74647e-09
-8.68929e-09
-1.20586e-08
7.41777e-09
5.29152e-09
-1.59726e-08
1.99167e-09
-8.13198e-09
8.3814e-09
1.41252e-08
-1.43746e-08
7.77211e-09
-1.34572e-08
-2.44685e-09
1.21684e-08
-6.54897e-09
5.76019e-09
-1.13797e-08
-4.56078e-09
1.47446e-08
-1.80244e-09
2.05389e-09
-1.94403e-09
-9.88359e-09
1.3613e-08
-8.29022e-09
-3.30018e-09
-9.77687e-09
2.04948e-08
-9.84577e-09
1.18371e-08
5.33195e-09
7.20819e-09
1.58503e-09
1.02308e-08
7.771e-09
-4.89169e-09
-8.25446e-10
-1.07071e-08
8.70122e-09
-5.29897e-09
1.80005e-09
-2.41855e-09
-1.77406e-08
-1.21233e-08
1.0837e-08
1.90268e-08
-1.56825e-09
-2.2352e-09
6.22159e-09
1.12552e-08
1.24023e-08
6.07174e-09
-1.0984e-08
-1.03476e-09
2.28558e-08
-1.57749e-08
-1.17619e-08
1.65527e-08
-9.28424e-10
-2.32531e-08
2.20163e-08
2.35653e-09
2.05846e-08
1.0301e-08
1.91021e-08
-1.11515e-08
2.04176e-08
-7.59228e-09
1.84571e-08
4.03782e-09
8.95448e-09
4.21472e-09
4.61672e-09
-3.51682e-09
-5.67569e-09
4.57579e-09
-3.81876e-09
7.99181e-09
4.43671e-10
1.35167e-08
-4.77857e-09
-7.99734e-09
-7.40755e-10
9.22891e-09
-1.08443e-09
5.37219e-09
-5.88812e-09
7.07804e-09
-5.00868e-09
2.93886e-09
-1.23438e-08
7.21181e-09
-9.05148e-09
-4.69593e-09
3.56568e-09
5.01175e-09
-3.88149e-09
3.53389e-09
-2.38019e-10
-2.57491e-09
1.35752e-09
8.4292e-09
6.32957e-09
-6.3007e-09
3.50502e-09
1.06032e-08
-7.07915e-10
-1.79757e-09
7.98812e-10
-4.6522e-09
4.03426e-09
-1.80846e-10
-2.4078e-09
2.31921e-09
8.87429e-10
-7.3704e-09
5.80306e-10
4.3823e-09
-2.12866e-10
-3.54327e-09
-3.61426e-09
-2.37527e-09
-2.48979e-09
4.42383e-09
-8.95013e-10
5.05489e-10
1.16381e-09
5.57921e-09
8.75462e-09
-3.24469e-09
-1.39365e-09
-4.11627e-09
3.2917e-09
6.04324e-09
-2.11005e-09
-4.67789e-09
-1.84997e-09
2.08214e-09
-2.60741e-09
-2.61045e-09
-7.79598e-10
4.5539e-09
-3.08496e-09
-4.20422e-10
-3.68722e-09
4.55236e-09
3.82851e-10
-1.24783e-09
-6.37406e-09
8.88619e-09
7.17218e-09
-3.55731e-09
-5.00848e-09
1.66762e-09
-5.62761e-09
-1.27329e-09
2.7049e-10
-2.8891e-09
6.70338e-09
6.73521e-09
3.55341e-09
-5.44307e-09
-6.08966e-10
3.33774e-09
-1.46252e-08
-1.13626e-08
-4.53698e-09
-3.39474e-09
9.17603e-09
-1.71441e-08
7.87277e-09
7.98611e-09
-1.92537e-08
-2.0252e-08
3.73045e-09
-1.0597e-08
-7.36038e-09
-3.95133e-10
-3.88542e-10
4.13062e-09
-3.34691e-09
3.42689e-09
-3.91908e-10
-3.4301e-09
6.23005e-10
4.47028e-09
-2.28961e-10
-4.86431e-09
4.17488e-09
-3.9404e-09
2.49815e-09
2.0617e-09
-3.84973e-10
3.75324e-09
3.21518e-09
4.35529e-09
2.27342e-10
-1.15573e-09
2.7809e-09
-3.40174e-09
-2.97196e-09
2.71617e-09
-5.73879e-10
8.29679e-10
3.40764e-09
-2.36224e-09
3.30988e-09
2.0283e-09
-8.69631e-10
3.45444e-09
6.35559e-10
3.89608e-09
-8.8783e-10
-2.05036e-09
-1.99179e-09
-1.34356e-09
5.3857e-09
-1.77015e-09
3.17425e-09
1.80788e-09
-8.61863e-10
2.3184e-09
2.4503e-09
-1.36104e-09
-7.49881e-10
2.51134e-09
-2.07927e-09
3.05411e-09
1.06694e-09
-4.1697e-09
6.17104e-09
5.51281e-09
-7.51416e-09
-2.74703e-09
5.10543e-09
-8.61299e-09
6.25446e-09
-1.2517e-08
5.60031e-09
-7.7896e-09
-4.95055e-10
-3.62777e-09
1.19123e-08
-2.25733e-09
-4.26943e-10
3.81883e-09
-3.83015e-09
7.33893e-09
-7.32765e-09
9.49484e-09
1.26737e-08
-1.07131e-08
-4.21808e-09
-4.51901e-09
1.35649e-08
-1.48097e-08
-1.26796e-10
1.04175e-08
-2.25195e-09
-3.62302e-09
-8.93487e-09
5.58578e-09
-4.60461e-09
-9.59417e-09
7.01716e-10
-7.63299e-09
1.9204e-09
-5.63023e-09
-5.92e-09
9.62978e-09
-3.01603e-09
5.63815e-09
-8.55735e-09
-4.40769e-09
8.38778e-09
-1.23448e-08
6.11334e-09
-1.67275e-08
5.18057e-10
1.0096e-08
-7.31315e-09
7.79619e-09
-3.97695e-09
-2.58213e-09
-7.54138e-10
-1.09103e-08
-9.7942e-09
-1.26439e-08
-1.58487e-09
3.17555e-09
8.39954e-10
-2.43069e-09
2.23352e-09
-3.35346e-09
-1.0971e-09
2.57765e-09
1.69499e-09
1.15482e-09
-1.84121e-11
5.56363e-09
-1.80672e-09
-1.46461e-09
-2.02217e-09
2.02768e-09
1.45902e-09
-2.39704e-09
1.49808e-09
-5.65663e-10
9.05659e-11
-5.98158e-10
1.15357e-09
2.59699e-09
2.3684e-09
6.91785e-09
2.64207e-09
1.34257e-09
4.25712e-09
2.48595e-10
9.46274e-10
-6.43321e-09
5.23832e-09
1.45864e-09
-8.41089e-09
7.20083e-09
-3.8975e-09
4.49462e-09
3.4911e-10
-3.3783e-09
6.63797e-09
-7.15717e-09
8.34132e-10
-4.38693e-09
1.74458e-10
-6.35806e-09
7.03443e-09
7.82252e-10
3.69876e-09
-3.46456e-09
-6.66741e-09
-1.02034e-09
-3.69178e-09
-3.46112e-09
4.05198e-09
2.43271e-10
-1.39455e-09
-4.66768e-09
2.59763e-09
2.49261e-09
-6.94875e-09
3.06158e-09
-3.87573e-09
-3.50267e-09
-4.84423e-09
-2.78579e-09
4.72092e-10
-1.05601e-09
3.36975e-09
4.13049e-10
-5.93353e-09
2.73475e-09
-3.85877e-09
-3.95018e-10
4.72594e-09
-6.84531e-09
3.39959e-09
-3.05365e-09
-2.67113e-10
2.26512e-09
-4.41786e-09
-4.56927e-09
-2.0938e-09
8.67223e-10
-6.52851e-10
1.87962e-09
3.3897e-10
-2.51764e-09
8.48956e-11
4.63571e-09
-4.16349e-09
-6.71447e-10
-6.61008e-10
5.28421e-10
4.88615e-10
-3.14681e-09
2.12981e-09
9.30661e-10
-2.86867e-09
2.46635e-09
-4.60068e-09
1.3298e-09
-2.24952e-09
-3.74731e-09
4.01699e-09
-6.46742e-09
-2.29981e-09
3.99704e-09
4.7703e-09
-2.84029e-09
3.61886e-11
-3.66329e-09
6.99439e-09
-3.06572e-09
-6.76878e-09
-4.76013e-09
1.09034e-09
1.37016e-09
-2.33605e-09
-2.38784e-09
-4.45758e-09
7.9172e-10
7.66307e-09
1.04008e-10
2.43289e-09
-3.80689e-09
-3.03648e-09
7.63528e-09
2.44302e-09
-6.14581e-09
2.74961e-09
9.65389e-12
1.97185e-09
2.94536e-09
-5.29246e-09
2.23652e-09
-4.88412e-09
2.93802e-09
-4.73516e-09
2.79642e-09
-3.52751e-09
7.64254e-10
-6.63404e-10
1.63135e-10
1.33951e-08
-1.28948e-08
-4.95767e-10
9.18784e-09
-9.35548e-09
-2.09965e-10
-1.08334e-08
3.33137e-10
1.07103e-08
-1.29269e-08
1.22212e-08
5.44816e-09
-1.18505e-08
-6.52456e-09
-4.38153e-09
-1.0038e-09
-1.66921e-10
-9.99162e-09
1.03217e-08
1.18344e-09
1.71293e-10
-1.36365e-08
1.22817e-08
1.49899e-09
-9.79843e-09
9.48288e-09
-1.08195e-08
-7.25277e-09
4.9192e-09
-2.04796e-09
-1.32778e-09
6.43277e-10
-6.56827e-09
-1.3007e-08
4.61009e-10
-8.95365e-09
-6.82248e-09
9.22136e-10
-5.7182e-09
2.28753e-10
1.03223e-08
1.59996e-09
-1.2151e-08
8.59822e-09
1.59816e-09
-9.96767e-09
1.56734e-08
7.02574e-09
-1.71173e-08
-5.58191e-09
1.06975e-08
1.75418e-09
3.22169e-09
3.34597e-09
1.24341e-08
-4.37536e-09
-1.14047e-08
-8.25895e-09
8.62389e-09
1.03326e-08
-3.51053e-09
2.27731e-09
-7.88629e-09
-3.00787e-10
1.85093e-08
-4.23227e-09
4.94419e-09
6.84123e-09
-1.3918e-09
5.12784e-09
1.08469e-08
-6.59675e-10
3.65689e-09
1.05314e-08
1.46458e-08
-6.32274e-09
2.9313e-09
3.68328e-09
7.93392e-09
6.9135e-09
-1.19161e-08
7.7843e-09
-6.92279e-09
7.36265e-09
-8.22416e-09
9.02307e-09
-4.53442e-10
-7.85336e-10
1.30066e-09
-8.95007e-09
7.2659e-10
-5.09518e-09
8.14628e-09
5.97197e-09
2.41422e-09
-1.46755e-10
-9.46591e-09
9.99955e-09
-9.87101e-10
1.4062e-09
-9.57146e-09
-3.59653e-09
8.89777e-09
4.71656e-09
-1.00178e-08
3.52291e-09
-7.09176e-09
-2.7697e-11
5.84108e-09
9.60537e-11
1.21087e-08
-9.64875e-09
-1.05374e-09
1.25539e-08
5.35468e-09
-5.79995e-09
1.30097e-08
-1.99693e-10
-2.56134e-10
1.28039e-08
2.55034e-09
3.2395e-09
2.39652e-09
7.37371e-09
3.7836e-09
1.22598e-08
7.3467e-10
-3.18826e-09
8.29466e-09
1.26645e-08
-8.92286e-09
8.13111e-09
-2.24778e-10
4.06348e-10
-5.29925e-10
1.1337e-08
-1.1213e-08
-3.58222e-10
7.93778e-09
-7.17294e-09
-9.0415e-09
4.11544e-09
8.18763e-09
-3.26124e-09
-1.30815e-09
1.20122e-08
-1.97454e-08
-5.20989e-09
1.27827e-08
-3.45708e-09
-7.70356e-09
7.05296e-09
-1.88094e-10
8.38773e-10
-1.51109e-08
6.09932e-09
-8.09237e-09
8.45265e-09
-7.1832e-10
-1.25575e-08
-6.98616e-11
1.20976e-08
1.18922e-08
9.67992e-09
-9.55974e-09
7.52239e-09
-7.84818e-09
-1.83113e-09
-6.39917e-09
1.60786e-08
-8.88757e-09
-1.54743e-08
1.46499e-08
7.54678e-10
-7.62551e-09
-8.33946e-09
-2.32565e-09
8.03248e-09
2.6326e-09
-4.79934e-09
-1.24182e-10
-3.41599e-09
5.38836e-09
-4.21776e-09
-5.96998e-09
3.15615e-09
-9.34932e-11
-6.95412e-09
1.07579e-08
-3.92804e-09
-1.02113e-09
2.78564e-09
-8.7187e-09
2.17231e-09
-7.41124e-09
2.9559e-09
4.48155e-09
-5.26515e-09
3.22929e-10
-3.27123e-09
5.90419e-09
1.13979e-09
6.67901e-09
2.93902e-09
6.2145e-09
2.95776e-09
-1.22082e-09
4.42729e-09
-5.0302e-11
8.09976e-09
-4.99125e-09
3.40906e-09
-1.48353e-10
9.60394e-09
-2.23871e-10
-7.38016e-09
-2.00001e-09
1.26364e-09
-3.26513e-11
8.37286e-09
-7.36007e-09
7.16976e-10
7.90672e-09
-2.76657e-09
2.08545e-09
4.42917e-09
6.21261e-09
-6.78148e-09
2.76765e-10
6.472e-09
-9.94291e-10
-6.0111e-09
-2.047e-09
-3.27066e-10
5.47321e-09
4.51044e-09
-4.56076e-09
-1.27845e-08
-2.4458e-09
1.36706e-08
1.55965e-09
4.45197e-09
-1.91623e-09
-1.53204e-08
-1.61755e-08
9.5083e-09
1.25303e-09
5.41408e-09
-1.05083e-08
8.64838e-09
-1.43156e-08
-1.50355e-08
1.29665e-08
-3.76862e-10
2.53333e-09
-1.31168e-08
3.32436e-09
-1.5749e-08
-3.1118e-09
1.86242e-08
-1.29791e-08
1.24561e-08
-1.22436e-08
-7.70508e-11
1.18005e-08
1.94712e-09
8.41116e-09
1.02005e-09
-1.90414e-08
1.20753e-08
8.21907e-09
-5.55827e-09
-4.83481e-09
6.80352e-09
-6.54795e-09
8.15554e-09
-6.24639e-09
-1.0226e-09
1.40724e-08
1.21762e-08
-5.27842e-09
-5.87362e-10
6.14138e-09
1.15207e-09
4.37526e-09
-1.22535e-08
1.87328e-08
5.69685e-09
1.39583e-08
-7.58765e-09
-1.13857e-08
-1.01055e-08
2.04685e-08
8.49917e-09
1.89255e-08
7.99921e-09
8.23262e-09
-5.89037e-09
5.32389e-09
-9.60007e-09
1.01665e-08
-1.14849e-08
5.23303e-09
3.61576e-10
2.44291e-09
-1.67271e-08
1.45565e-08
-2.72353e-10
1.05114e-08
-1.0282e-08
2.21347e-09
3.01316e-09
-1.09739e-08
1.6476e-08
-8.51531e-09
-6.71331e-09
1.50503e-08
-8.76586e-09
-1.02313e-08
1.22839e-08
-1.3935e-10
1.88491e-09
-1.17831e-08
2.04366e-09
1.24838e-09
-9.27864e-09
-3.45466e-09
-8.05546e-09
-2.47926e-09
-4.41146e-09
-2.78253e-09
-9.53319e-09
-4.2052e-09
-1.04884e-08
-2.73856e-09
-9.52211e-09
8.5888e-09
2.70552e-09
-1.40329e-08
1.61197e-09
2.71317e-09
6.42304e-09
-7.11287e-09
9.23543e-09
-9.31248e-09
-1.37896e-08
4.42759e-09
-4.68115e-09
-3.00948e-09
1.41136e-08
-9.2353e-09
-6.27638e-09
3.76145e-09
1.06161e-08
-8.10119e-09
6.50535e-09
1.58773e-09
-1.43694e-08
9.98926e-09
2.77548e-10
1.16891e-08
-1.03373e-08
8.22278e-09
-9.57458e-09
-3.67344e-09
1.33235e-08
2.03904e-09
-1.67586e-09
2.87813e-09
1.31206e-08
-1.43228e-08
-1.76002e-08
2.42955e-09
1.34948e-08
3.85877e-09
8.39799e-09
-2.2675e-09
1.11244e-08
-1.98739e-08
-1.58283e-09
9.03385e-09
-1.23082e-08
7.36863e-09
1.82631e-08
-2.26665e-10
-7.1432e-09
1.0302e-08
5.23914e-09
1.06707e-08
-7.19775e-09
-5.76086e-09
-1.16864e-09
1.33104e-09
1.14006e-08
1.15778e-08
3.43116e-09
-5.72631e-10
5.04814e-09
2.59027e-09
-3.52839e-09
4.36923e-09
6.04708e-09
-4.21048e-09
-7.88302e-10
-1.04834e-09
6.22651e-09
1.49163e-09
-1.67109e-09
1.05175e-09
-7.88853e-10
5.96358e-09
1.34333e-09
-6.12645e-09
-2.0639e-09
6.76985e-09
3.68582e-10
-5.07459e-09
5.11139e-09
-5.83197e-09
-1.25576e-09
6.16091e-09
1.86468e-09
3.72515e-09
1.30458e-10
-5.67779e-09
-1.30011e-10
-1.25679e-09
7.06458e-09
2.51918e-10
2.31168e-10
-4.94026e-09
5.86198e-09
2.76509e-10
1.4149e-09
4.63246e-09
-6.83622e-09
-6.26501e-09
6.42307e-09
-7.25807e-09
1.24496e-09
-4.29923e-09
-2.13173e-09
-2.93588e-10
6.8289e-09
-4.40357e-09
7.20001e-09
-2.08834e-09
-7.24342e-09
-3.39563e-09
8.89594e-09
-5.79391e-09
-6.82563e-09
-3.15859e-09
-2.1242e-10
1.01966e-08
-9.94502e-09
1.83648e-09
1.2829e-09
9.9997e-09
-6.94897e-09
7.56348e-10
-3.80709e-09
-4.01616e-09
1.08572e-08
4.36278e-09
-4.11173e-09
1.24666e-09
-2.41828e-09
1.20416e-08
-1.3019e-08
8.41718e-09
-1.29238e-08
-1.36998e-08
-2.69077e-09
1.23744e-08
-8.20834e-09
-4.73515e-09
7.20895e-09
4.38312e-10
1.24867e-09
6.21814e-09
2.82728e-09
-3.25725e-09
9.26296e-09
1.00723e-08
2.40758e-09
-1.36956e-08
1.67769e-09
9.32712e-09
-1.34868e-08
8.49278e-09
-3.17562e-09
9.29091e-09
3.57243e-10
-6.47244e-09
7.26965e-09
-4.08856e-09
-6.35653e-09
5.11399e-09
2.99369e-09
1.18338e-09
-5.07397e-09
3.7169e-09
6.47118e-09
2.74136e-10
1.92166e-09
7.24263e-09
2.4884e-09
-6.73726e-09
1.04227e-08
5.3691e-10
6.35654e-09
-4.76308e-10
-5.3858e-09
-4.94177e-10
-2.1155e-09
1.29764e-09
7.17448e-09
4.47401e-09
-3.36532e-09
5.03805e-11
-1.1588e-09
2.17445e-09
2.57391e-09
-5.19641e-09
5.42086e-09
1.95011e-09
-6.82037e-09
2.10593e-10
1.41348e-09
5.96059e-09
-8.8722e-10
-5.54951e-09
5.28106e-09
-1.4359e-09
-4.03766e-09
-2.14823e-10
-1.48891e-09
6.60533e-09
-6.7729e-09
-6.25433e-09
6.42187e-09
-1.04489e-10
1.28203e-08
-6.11046e-09
-6.04085e-09
-5.72869e-09
1.1665e-08
1.36887e-10
2.86882e-10
-6.76968e-12
-7.9489e-09
1.91478e-09
1.98649e-09
7.64372e-10
4.3005e-09
5.69527e-09
4.9112e-09
3.6712e-09
1.99879e-09
7.92176e-09
-9.3397e-09
4.72166e-09
3.16041e-09
-8.14116e-09
1.67628e-09
3.30443e-09
-9.31521e-09
4.95228e-09
7.52332e-09
-5.88738e-09
-3.46809e-09
4.02085e-11
6.26421e-09
-9.70705e-10
-7.30327e-09
5.42631e-09
1.67578e-08
-7.86598e-09
-1.03253e-08
1.43342e-09
6.88771e-09
2.02367e-08
-1.03666e-08
1.80642e-09
-4.69266e-09
4.56256e-09
1.36464e-08
-3.00706e-09
1.01715e-10
1.97645e-09
-9.38145e-09
-1.30271e-08
3.87733e-09
5.30268e-09
3.84705e-09
-1.32069e-08
7.83928e-09
-7.16459e-09
6.34924e-09
1.10279e-09
-3.15388e-09
3.39362e-09
-3.96746e-09
3.72765e-09
6.68372e-10
-4.66622e-09
8.43983e-10
5.82292e-09
-5.48601e-09
3.31406e-10
-1.12172e-11
-9.65428e-10
6.79953e-09
1.25801e-08
-4.60188e-09
2.70597e-09
-1.06842e-08
-1.84135e-09
5.23999e-09
9.18145e-09
1.84481e-09
9.57529e-11
2.4995e-09
-4.4401e-09
1.74093e-09
3.88897e-09
-3.7851e-09
5.12332e-09
1.44371e-09
-4.40142e-09
-1.70854e-09
-2.58074e-09
5.6993e-11
8.50527e-09
-7.62147e-10
-1.2345e-08
1.1779e-09
4.99939e-09
-5.86911e-09
1.15603e-10
-3.70485e-09
6.29522e-09
-3.64654e-09
1.2031e-09
-1.37305e-10
7.6436e-10
-5.92794e-09
7.23258e-10
-3.60544e-09
-3.40215e-09
4.241e-09
-8.82938e-09
-9.88859e-09
2.36386e-08
-4.9207e-09
-7.8104e-09
1.22966e-08
-1.33156e-08
-5.07567e-09
8.67423e-10
-1.37535e-08
2.03655e-08
9.70415e-09
-6.43103e-09
1.17434e-08
-3.62246e-09
4.17564e-09
1.77313e-08
1.43775e-08
1.01928e-08
-1.64191e-08
1.21072e-08
-9.01957e-09
7.10517e-09
1.62047e-08
1.633e-09
1.95579e-09
-2.88683e-09
1.74978e-08
-1.65668e-08
1.24388e-08
6.1069e-09
-1.61086e-09
2.1298e-08
-6.54518e-10
1.39723e-08
-1.71821e-09
1.25461e-08
8.29467e-09
5.5329e-09
1.02775e-08
-5.21828e-09
-1.05921e-08
-1.34571e-09
-5.05355e-09
1.19322e-08
-9.2384e-09
-4.01113e-09
4.84399e-09
8.40553e-09
-7.13365e-09
-3.45045e-09
-2.46763e-09
2.8431e-09
9.90199e-09
9.72618e-09
-4.56068e-09
-1.22991e-08
5.36464e-09
3.50392e-10
-2.75595e-09
5.51181e-09
-7.97424e-09
6.62476e-09
-1.39414e-08
-7.78535e-09
1.29721e-08
3.25089e-10
9.28532e-09
-1.04459e-08
1.57962e-08
9.91074e-09
-1.27349e-08
1.31596e-08
-5.23031e-09
7.86694e-09
-1.65205e-09
-6.78635e-09
3.45797e-09
4.98046e-09
-8.11931e-09
6.07894e-09
3.88295e-10
4.50353e-09
2.93962e-09
1.08768e-08
3.63964e-09
4.15399e-10
8.84989e-10
8.08481e-09
5.36594e-09
-1.20323e-09
-1.22476e-08
-1.01799e-09
8.80228e-09
3.00503e-10
3.42312e-09
7.97226e-09
-6.02946e-09
1.1401e-08
-4.75915e-09
-3.76192e-09
-2.88001e-09
7.02073e-09
-4.14356e-09
8.52379e-09
3.32162e-09
5.00527e-09
3.20182e-09
-1.1529e-08
3.12395e-09
7.21834e-09
-5.31077e-09
5.5377e-09
3.06084e-09
-9.57488e-09
2.4438e-09
-4.48611e-09
7.04751e-09
-2.58862e-09
8.15634e-09
-1.20697e-09
-8.69815e-09
5.41897e-09
-8.0142e-09
3.22504e-09
3.58216e-09
-8.96249e-10
-4.37883e-09
3.73373e-09
5.79489e-09
-7.26348e-10
7.20161e-09
1.36517e-09
1.69285e-09
-4.56563e-09
6.73017e-09
-5.14738e-09
5.78379e-09
2.01266e-09
-9.3327e-09
7.38045e-09
1.60246e-08
-2.15689e-09
9.79675e-10
-1.04245e-09
-7.69823e-09
1.61211e-08
-9.23592e-09
-8.7019e-09
1.68953e-08
-4.46398e-09
-1.31314e-08
8.35938e-09
-8.11408e-09
1.49315e-09
1.16353e-09
-1.27226e-08
3.86079e-09
5.97449e-09
-1.35129e-08
8.11738e-09
-1.03251e-08
-5.90636e-09
1.37422e-09
-6.38823e-09
-1.39147e-08
7.33344e-09
1.22679e-09
-1.31944e-08
-2.39503e-10
-1.24164e-08
1.38826e-08
-1.0327e-09
-9.79655e-09
1.05897e-08
-1.03378e-08
-1.44098e-09
5.70728e-09
-5.09179e-09
8.45916e-09
-1.18442e-08
-9.43751e-09
-4.47647e-10
-2.88668e-10
4.19882e-09
6.73255e-09
-5.2241e-09
-4.19335e-09
-1.17353e-09
9.56568e-09
-7.06467e-09
-3.97643e-10
6.68251e-09
4.70117e-09
5.67415e-09
6.68335e-10
-6.12345e-09
9.85697e-09
5.63697e-09
1.91809e-09
4.48687e-10
-1.6693e-09
1.27525e-08
3.15131e-09
9.07215e-09
6.95026e-10
9.59517e-09
5.41995e-09
6.95547e-09
6.36767e-10
-1.493e-09
2.12591e-10
-1.17011e-09
8.74929e-09
-6.37568e-10
1.12921e-09
9.36534e-09
2.33724e-10
6.08417e-09
1.22628e-08
8.65879e-09
2.74457e-09
1.32041e-09
-1.35789e-09
-2.70733e-09
2.01648e-09
4.61323e-11
-1.18371e-09
-6.36536e-09
4.22705e-09
-5.91314e-10
-2.3154e-09
3.01509e-09
1.20271e-09
-3.74464e-09
-3.43291e-09
-1.99968e-08
1.15245e-08
1.3868e-08
-5.39558e-09
-1.07883e-08
-1.23104e-08
1.37103e-08
9.38839e-09
-7.98638e-10
-1.75796e-08
7.58989e-09
2.65201e-09
-1.46764e-08
-4.70476e-09
1.67292e-08
-1.54026e-08
-1.94217e-09
-1.22042e-08
4.27712e-09
7.12849e-09
1.3226e-08
-1.8831e-08
-1.19747e-08
-1.38774e-09
2.30347e-09
1.49821e-08
-2.3159e-08
4.76892e-09
3.40806e-09
-1.08567e-08
1.58944e-08
9.9444e-09
7.04621e-09
-1.97039e-08
1.48165e-08
-2.15868e-09
-2.4603e-08
8.49027e-09
6.75491e-09
9.83176e-09
-2.20202e-09
-1.43846e-08
3.79658e-09
-1.58726e-08
-7.35609e-09
-3.32984e-10
-1.69139e-08
-2.29379e-08
-4.12214e-09
-4.45227e-09
-1.12832e-08
-1.59205e-08
-3.20809e-09
8.61972e-09
7.67365e-09
2.57201e-09
3.88271e-09
-6.25522e-09
-3.33173e-10
5.75715e-09
3.95383e-09
-9.37788e-09
-2.47739e-09
3.35644e-09
8.96532e-10
-1.77559e-09
-7.48451e-09
4.6694e-09
2.48189e-09
3.21396e-09
-4.18406e-09
-6.51441e-09
-3.59232e-10
4.13459e-09
-7.17493e-09
3.39955e-09
3.28567e-09
-6.1223e-09
5.12108e-09
2.00751e-09
-1.00047e-08
2.8761e-09
4.7111e-09
-4.85432e-09
5.26428e-09
1.03669e-08
2.0554e-09
-6.66518e-09
1.13278e-08
2.69446e-09
-3.65535e-09
3.88432e-09
-3.51072e-09
4.33748e-09
-4.84887e-09
1.07886e-08
-4.02467e-09
3.84516e-09
-1.71816e-10
-6.38893e-10
-1.9631e-09
9.46653e-09
-3.36888e-09
6.12616e-09
-4.80358e-09
4.80884e-09
2.3192e-09
-6.19776e-09
-1.37965e-09
-1.15547e-09
-3.17817e-09
-5.04386e-10
-1.20138e-09
9.04049e-10
-3.22975e-09
-5.40297e-09
7.72867e-09
5.97646e-09
-2.42356e-09
-2.64888e-09
-5.59941e-10
5.50674e-09
-8.17658e-09
-6.27377e-09
-5.19081e-09
6.12083e-09
5.34371e-09
-8.34469e-09
2.43731e-09
-3.66411e-10
-5.75485e-09
1.60641e-09
9.51778e-09
-5.36933e-09
7.62354e-10
-5.40759e-10
-4.40447e-09
-2.39737e-11
-6.47355e-09
-6.27562e-09
3.33964e-09
-6.3232e-09
-8.37392e-09
1.93848e-09
8.6664e-10
5.56884e-09
1.30142e-09
-4.16862e-09
1.29041e-08
-5.17682e-09
-8.76395e-09
1.35297e-09
9.84822e-09
4.62665e-09
-7.76061e-09
-2.8359e-09
6.52794e-09
-2.54078e-10
-6.54657e-09
2.72624e-10
3.34632e-10
-6.21014e-10
8.71141e-09
-5.13526e-09
5.30751e-09
-8.88364e-09
7.51397e-10
8.58959e-09
-6.29585e-10
5.20097e-09
-4.71282e-09
-7.4229e-10
5.34627e-09
-4.9891e-09
4.84376e-09
2.85525e-10
5.39535e-09
-6.6541e-09
2.6612e-10
5.76692e-09
-6.09321e-09
2.98017e-10
4.02352e-10
-1.16308e-08
-4.93201e-09
6.86748e-09
8.11945e-10
-4.36477e-10
5.5761e-09
-5.0465e-09
-5.24245e-09
2.49257e-10
3.3761e-10
-4.68548e-09
5.23712e-09
-5.20883e-09
-5.38373e-09
5.90707e-09
-5.16602e-09
2.06465e-10
4.76499e-09
-5.28984e-09
-4.64119e-09
1.93207e-10
-9.93399e-09
4.16392e-09
-5.8879e-09
-4.4406e-09
6.16458e-09
-2.04915e-09
9.8601e-09
-5.71331e-09
-8.51575e-09
2.63807e-09
2.11632e-09
3.76136e-09
-3.32181e-09
-7.24308e-09
-4.0754e-09
7.40419e-09
6.53133e-09
-7.46528e-09
4.27134e-11
6.09425e-09
1.32832e-09
-6.10131e-09
-2.55511e-09
-9.83256e-10
5.92279e-09
-7.75586e-10
-5.14392e-09
2.26941e-09
-3.22684e-09
7.35902e-10
-8.08943e-09
6.15729e-09
-8.74322e-09
3.10564e-09
-2.14311e-09
5.19476e-09
-1.35772e-09
5.47017e-09
-5.09572e-09
6.05337e-09
-6.78326e-10
4.73836e-09
-1.64035e-08
-9.95317e-09
1.63966e-08
9.9601e-09
-1.10635e-08
-2.542e-09
-2.79805e-09
3.24693e-09
-4.5887e-10
6.98833e-09
-9.77644e-09
-1.16393e-08
-7.66561e-10
1.56527e-08
-1.01867e-08
-1.36664e-08
1.22138e-08
-1.34984e-08
2.75734e-09
5.54317e-10
7.76319e-09
-6.16212e-09
-2.45172e-09
2.61734e-10
3.9817e-09
-1.05269e-08
6.08628e-09
-1.23814e-08
1.55965e-08
1.46073e-08
-4.88952e-09
-1.01378e-08
1.26202e-09
-4.79068e-09
-1.62625e-08
5.80791e-09
3.50323e-11
-4.29392e-09
-1.24234e-08
4.33598e-09
-7.92017e-09
-2.06414e-10
1.08839e-08
9.76264e-09
3.08478e-09
3.54915e-09
-6.76524e-09
6.001e-09
-1.09038e-08
-1.55391e-10
-7.5323e-09
-3.62911e-09
5.42094e-09
-4.82212e-09
3.25071e-10
8.46748e-09
4.48208e-09
9.87808e-10
-1.39374e-08
-7.81492e-10
7.38951e-09
1.85943e-09
9.85958e-09
5.28783e-09
-1.06654e-08
7.7149e-09
1.36317e-09
8.30815e-09
-8.3932e-09
-9.39723e-09
9.48226e-09
8.02727e-09
1.95386e-10
8.54582e-11
4.68054e-09
-1.2086e-08
1.15142e-08
5.28093e-10
-6.75448e-09
9.4678e-09
9.76126e-09
3.29936e-09
1.05991e-08
-5.87123e-09
7.33269e-09
2.52189e-10
1.08108e-08
-5.60222e-09
-1.49323e-09
1.21253e-08
4.52012e-09
4.21062e-09
2.08008e-09
1.24947e-08
-7.03572e-09
6.02081e-09
1.51119e-09
-4.96312e-10
1.34899e-09
5.10409e-09
-1.34888e-08
5.93499e-10
6.46301e-09
-1.03579e-09
7.06421e-09
-6.28621e-09
-1.84555e-10
-6.52784e-09
3.15945e-09
9.83137e-09
-6.93368e-11
6.05661e-10
-8.45516e-10
8.04871e-09
-1.62136e-09
-5.58188e-09
1.06367e-08
-8.06635e-09
-3.41592e-09
5.91368e-09
-1.15286e-08
6.96394e-09
-8.38412e-09
1.89234e-09
1.45405e-08
7.49209e-09
-5.23949e-09
4.53778e-09
-5.7199e-09
-4.38552e-09
9.43729e-09
-4.67765e-09
2.2277e-10
5.88121e-09
-8.03389e-09
8.69797e-10
5.86227e-09
7.6001e-10
-2.4725e-09
1.20142e-08
4.99879e-09
-4.59478e-10
3.19589e-10
1.82224e-10
-4.08768e-09
-1.4479e-08
1.73607e-08
1.206e-09
1.3739e-08
-1.38186e-08
-4.00805e-09
-1.44001e-08
-1.33089e-08
4.89993e-09
2.2809e-08
-3.37826e-09
-8.91542e-09
-2.1064e-09
-9.51122e-09
-7.17594e-09
-1.50224e-08
-7.73061e-09
7.68102e-09
1.5072e-08
-3.57485e-10
-9.25916e-10
3.79763e-09
6.33211e-10
-1.82494e-08
3.2611e-09
-1.39424e-08
3.55146e-09
6.0786e-09
-6.97312e-09
1.95541e-08
-9.44384e-09
-4.24875e-10
-1.38409e-08
8.90113e-09
8.49124e-09
-4.97506e-10
-1.00823e-08
1.31806e-09
-1.10061e-08
7.72549e-10
3.24605e-09
2.35651e-09
-1.11672e-08
-9.14708e-09
1.4731e-08
-1.23754e-09
-3.26314e-09
-1.02304e-08
2.98611e-09
4.83867e-09
6.90624e-09
-4.82927e-09
4.84256e-09
-7.4237e-09
7.41035e-09
-6.55749e-10
-1.53967e-08
1.12232e-08
-1.40286e-08
1.05256e-08
6.48914e-09
-1.04236e-08
-8.37682e-09
-5.84338e-09
4.35077e-09
9.86941e-09
-4.58477e-09
-4.45058e-09
6.58515e-10
-8.36084e-09
8.09427e-09
9.38456e-09
-9.11799e-09
-4.09348e-09
-4.33587e-09
6.84939e-11
6.95981e-09
1.48307e-09
8.37079e-09
-1.68138e-08
7.0349e-09
2.19314e-08
-2.20065e-08
-3.97007e-09
3.88849e-09
4.25881e-09
-4.17726e-09
1.03705e-08
-1.49963e-08
-9.62981e-09
1.02552e-08
5.0821e-09
1.04754e-08
-5.18708e-09
9.06752e-09
2.73388e-10
9.88997e-09
-3.99933e-09
5.52963e-09
5.23455e-10
-1.71183e-09
1.41568e-08
1.58487e-08
7.09127e-09
-5.9649e-09
7.79806e-09
-8.92445e-09
6.25625e-10
6.32203e-09
1.436e-10
5.42739e-09
-6.71501e-09
9.24982e-09
-7.96222e-09
6.16584e-09
-1.12833e-10
1.24294e-09
9.34628e-09
-2.48539e-11
-1.52341e-09
8.4249e-09
7.81447e-09
9.30751e-09
9.77056e-09
-1.98095e-09
3.62844e-09
-6.78173e-09
-7.71489e-09
-1.67569e-09
-3.60226e-09
-8.22422e-09
6.03257e-09
-8.62892e-09
6.23092e-10
-1.0241e-08
7.77795e-09
2.06086e-09
-3.05208e-09
5.33465e-09
-3.74203e-09
-8.28715e-10
3.97059e-09
-3.28333e-09
-1.81722e-10
-7.23012e-09
-5.45593e-10
8.14536e-10
6.96124e-09
3.7001e-09
-7.29418e-09
-3.63597e-09
2.30211e-10
4.80347e-09
3.22499e-10
2.87211e-10
-3.75137e-09
-9.72899e-09
-7.78593e-11
1.06215e-08
1.2566e-09
-7.28548e-09
-6.48416e-09
7.74197e-11
-5.96305e-10
-7.07299e-09
5.72761e-09
1.94173e-09
-5.65543e-09
4.06032e-09
9.98877e-10
7.02457e-10
-6.07068e-09
-6.97662e-09
6.06101e-10
-3.65316e-10
6.01513e-09
8.5123e-09
2.87794e-08
-2.60183e-08
-1.12734e-08
-1.95437e-08
2.92821e-08
-1.22623e-09
-1.26735e-10
-5.32048e-10
2.94381e-08
2.10249e-09
-5.3605e-09
-1.62858e-08
-5.89671e-09
-1.80193e-08
-5.9449e-09
1.8274e-08
-1.76897e-08
1.45753e-08
3.95938e-09
-2.44796e-08
-2.30532e-08
1.88253e-08
5.75145e-09
-1.5235e-09
1.64839e-08
-2.49619e-08
-2.36977e-08
1.51544e-09
2.20555e-08
3.1221e-09
1.93852e-08
6.77488e-09
1.55051e-08
1.15491e-08
-1.05703e-08
2.82807e-08
6.04965e-09
1.52642e-08
-1.72016e-08
2.10701e-08