/*--------------------------------*- C++ -*----------------------------------*\
| =========                 |                                                 |
| \\      /  F ield         | OpenFOAM: The Open Source CFD Toolbox           |
|  \\    /   O peration     | Version:  v1612+                                |
|   \\  /    A nd           | Web:      www.OpenFOAM.com                      |
|    \\/     M anipulation  |                                                 |
\*---------------------------------------------------------------------------*/
FoamFile
{
    version     2.0;
    format      ascii;
    class       volVectorField;
    location    "166";
    object      wallShearStress;
}
// * * * * * * * * * * * * * * * * * * * * * * * * * * * * * * * * * * * * * //

dimensions      [0 2 -2 0 0 0 0];

internalField   uniform (0 0 0);

boundaryField
{
    WALL
    {
        type            calculated;
        value           nonuniform List<vector> 
1537
(
(-0.0234511 -0.0163983 0.00581157)
(-0.0253832 -0.0159991 0.00710328)
(-0.0217158 -0.0084227 -0.00681808)
(-0.0207431 -0.00830649 -0.00728086)
(-0.0233 -0.0155909 0.00254824)
(-0.0234557 -0.0152645 0.00254835)
(-0.00975462 -0.00456629 -0.00680073)
(-0.00893106 -0.00452893 -0.00548182)
(-0.0236823 -0.0113328 -0.00964307)
(-0.0248535 -0.0113576 -0.0092344)
(-0.0208787 -0.018376 0.0121645)
(-0.0222912 -0.0176313 0.0145492)
(-0.0154911 -0.00675775 0.0025078)
(-0.0219139 -0.000455542 0.00560248)
(-0.00960469 -0.0118555 0.00594798)
(-0.0095195 -0.00952534 0.00549377)
(-0.00992273 -0.0059721 -0.00289215)
(-0.0104967 -0.00595823 -0.0046221)
(-0.0100675 -0.00903787 0.00311402)
(-0.0106727 -0.0106299 0.00286195)
(-0.0101513 -0.0143246 0.00322505)
(-0.00951016 -0.0151618 0.00250761)
(-0.00733685 -0.00376936 -0.0047163)
(-0.0211958 -0.0104818 -0.00973123)
(-0.0219978 -0.0109736 -0.00937424)
(-0.0174577 0.00182819 -0.00496159)
(-0.0147772 0.000757336 -0.00311342)
(-0.0230318 -0.0173748 0.00552463)
(-0.0231081 -0.0166955 0.00741804)
(-0.029271 -0.00657794 -0.00427163)
(-0.0312867 -0.00583762 -0.00249254)
(-0.0249543 -0.0147721 0.000294127)
(-0.0238389 -0.0138263 -0.00183092)
(-0.0199765 0.00138966 -0.00284897)
(-0.020677 0.000750124 -0.00475134)
(-0.0122956 0.00102615 0.00964672)
(-0.0103144 -0.000326112 0.00951787)
(-0.0151722 -0.00605396 -0.0093024)
(-0.0132123 -0.00570724 -0.0085852)
(-0.0235263 -0.0123097 -0.00517678)
(-0.0224149 -0.0124412 -0.00513883)
(-0.0203803 -0.010369 -0.00811292)
(-0.0201911 -0.00932006 -0.00945318)
(-0.00792457 -0.00413184 -0.00422508)
(-0.00712165 -0.0035766 -0.0029519)
(-0.00811744 -0.00439515 -0.0035068)
(-0.00783282 -0.00391616 -0.00448484)
(-0.00750076 -0.00389916 -0.00305234)
(-0.00750456 -0.00382592 -0.00353599)
(-0.0202819 -0.00782678 -0.00866211)
(-0.019518 -0.0074991 -0.00842222)
(-0.0212455 -0.00855484 -0.00817534)
(-0.0219519 -0.00923509 -0.00820039)
(-0.020418 -0.00762992 -0.00821871)
(-0.0205656 -0.0085686 -0.00781334)
(-0.00894217 -0.0151586 0.000922739)
(-0.012767 -0.0141863 -0.002033)
(-0.0114913 -0.0151396 0.000451049)
(-0.0102159 -0.0134535 -0.000495958)
(-0.0105804 -0.0134357 -0.00148122)
(-0.0101756 -0.0127946 -0.000770121)
(-0.00874067 -0.0141078 0.000264905)
(-0.00753954 -0.00238042 0.00387312)
(-0.00738407 -0.00173718 0.00382928)
(-0.0074029 -0.00243631 0.00444076)
(-0.00784728 -0.00212268 0.0046258)
(-0.00780238 -0.00140031 0.00399756)
(-0.00801698 -0.00138817 0.00459344)
(-0.0131714 -0.0105115 -0.00249329)
(-0.0155312 -0.0103115 -0.00516005)
(-0.0154723 -0.00987997 -0.00532591)
(-0.0137077 -0.0110793 -0.00240064)
(-0.0150656 -0.010878 -0.00366342)
(-0.0133213 -0.00987595 -0.00371206)
(-0.0222518 -0.008495 -0.00276364)
(-0.0236192 -0.0118406 -0.00236324)
(-0.0223858 -0.010791 -0.00284452)
(-0.0224394 -0.0123798 -0.000816897)
(-0.0217347 -0.00941036 -0.00223517)
(-0.0215113 -0.0133687 -0.000384768)
(-0.0195555 0.00297325 0.00127199)
(-0.0201917 0.00240821 -0.000546386)
(-0.0208013 0.00321505 0.000934321)
(-0.0202374 0.00299863 -0.000905884)
(-0.0199862 0.00263917 -0.000626545)
(-0.0187259 0.0039164 0.0021396)
(-0.0200534 0.00164058 0.0060946)
(-0.0194923 0.0022634 0.00493405)
(-0.019597 0.00128488 0.00430238)
(-0.0190862 0.00317171 0.00807991)
(-0.0179702 0.0033207 0.00779493)
(-0.0186691 0.00340699 0.00674784)
(-0.0105699 7.30988e-05 0.00703264)
(-0.0110748 0.000909218 0.00697898)
(-0.0119185 0.00103907 0.00780078)
(-0.0108008 0.000363925 0.00775619)
(-0.0126572 0.00176257 0.00733681)
(-0.0122267 0.0014468 0.00688778)
(-0.0289438 -0.0106832 -0.00526038)
(-0.0293375 -0.0110986 -0.00650047)
(-0.0284773 -0.0100502 -0.0060089)
(-0.0313567 -0.010006 -0.00636823)
(-0.030549 -0.00951703 -0.00540323)
(-0.0289863 -0.00985159 -0.00490467)
(-0.0121617 0.000137728 -0.00151206)
(-0.0102477 -0.00132434 -0.00207625)
(-0.0109976 -0.000764785 -0.00166721)
(-0.0137965 -0.000157346 -0.00289954)
(-0.0259884 -0.00707248 -0.0130773)
(-0.0230564 -0.00533256 -0.0120823)
(-0.0262229 -0.00622058 -0.013419)
(-0.0271111 -0.00508609 -0.0135311)
(-0.0256704 -0.00496264 -0.0135592)
(-0.00757556 -0.00163695 -0.000403528)
(-0.00711701 -0.00184651 -0.000639242)
(-0.00748751 -0.0015198 0.000181382)
(-0.00729854 -0.00192879 -3.21226e-05)
(-0.00699698 -0.00208417 -0.000312596)
(-0.00699415 -0.00219488 -0.000758214)
(-0.0229526 -0.0157053 0.00172844)
(-0.0234016 -0.0149478 0.00175813)
(-0.0243665 -0.0157354 0.00301643)
(-0.0259556 -0.0171061 0.00688892)
(-0.0228287 -0.01495 0.00406295)
(-0.0228233 -0.0152057 0.00152771)
(-0.0223172 -0.0154316 0.00144324)
(-0.0263211 -0.0159249 0.00508348)
(-0.0082575 -0.00209006 0.00751057)
(-0.00915876 -0.00104164 0.00702155)
(-0.0093158 -0.000960053 0.00748475)
(-0.00832516 -0.00152716 0.00679254)
(-0.00809895 -0.00206987 0.00702407)
(-0.00893423 -0.00154588 0.00767519)
(-0.0119645 -0.0015477 0.0126204)
(-0.010235 -0.00231894 0.0125512)
(-0.0093897 -0.00285148 0.0132511)
(-0.0076951 -0.00706903 0.00935478)
(-0.00802291 -0.00597913 0.0090517)
(-0.00788905 -0.00510476 0.00901304)
(-0.00764443 -0.00672571 0.00990628)
(-0.00739149 -0.00748647 0.00986482)
(-0.00788471 -0.0054572 0.00909693)
(-0.00747848 -0.00399349 0.00707687)
(-0.00777775 -0.00477494 0.00814743)
(-0.00829494 -0.00428872 0.00790693)
(-0.00764457 -0.00325604 0.0067653)
(-0.00750347 -0.00307091 0.0076135)
(-0.0087358 -0.007435 0.00610476)
(-0.00928897 -0.00767298 0.00531247)
(-0.00862411 -0.00657809 0.00616298)
(-0.00856673 -0.00651641 0.00531082)
(-0.0091373 -0.00820436 0.0057378)
(-0.00886989 -0.00610262 0.00536955)
(-0.00940314 -0.0119701 0.0060014)
(-0.00936006 -0.010067 0.00667595)
(-0.00973953 -0.012101 0.00482914)
(-0.00898334 -0.0114561 0.00700615)
(-0.00888736 -0.0106226 0.00740316)
(-0.00924487 -0.0105237 0.00621287)
(-0.00810918 -0.00338606 0.00872844)
(-0.00840401 -0.00268584 0.00844759)
(-0.00841 -0.00342944 0.00912726)
(-0.00912844 -0.00174804 0.00934822)
(-0.00875955 -0.00257447 0.00956355)
(-0.00865824 -0.00192417 0.00856279)
(-0.00754828 -0.00930588 0.0115969)
(-0.0078284 -0.00900027 0.011021)
(-0.00757682 -0.0113541 0.0108656)
(-0.00761873 -0.0114574 0.0109446)
(-0.00686824 -0.0102231 0.0116065)
(-0.00718502 -0.00942807 0.0104817)
(-0.00493255 -0.0155971 0.00892254)
(-0.00601483 -0.0148722 0.00749963)
(-0.00602397 -0.0152335 0.00887848)
(-0.00630641 -0.0151674 0.00684661)
(-0.00644941 -0.0158388 0.00677893)
(-0.00525038 -0.0151266 0.00918946)
(-0.00610563 -0.0123575 0.010651)
(-0.00663798 -0.0119472 0.0115548)
(-0.00632073 -0.0141516 0.0106763)
(-0.00637407 -0.0122345 0.0119127)
(-0.00591527 -0.0131833 0.0115958)
(-0.00605223 -0.0139944 0.0105967)
(-0.0323321 -0.00527393 -0.0118865)
(-0.0308088 -0.00360038 -0.00808707)
(-0.0329166 -0.0052239 -0.0108045)
(-0.0322686 -0.00366348 -0.0103346)
(-0.0338266 -0.00435572 -0.0099973)
(-0.0286425 -0.00702519 -0.0025571)
(-0.0299353 -0.00661906 -0.000673879)
(-0.0274719 -0.00807954 -0.00324916)
(-0.0274493 -0.00601586 0.000565979)
(-0.0246842 -0.00755636 -0.00197438)
(-0.0263983 -0.00694255 -0.000382945)
(-0.0212551 -0.0048212 -0.00540399)
(-0.0222287 -0.00630443 -0.00518315)
(-0.0219754 -0.00633086 -0.00528105)
(-0.0210199 -0.00552225 -0.00561711)
(-0.0215211 -0.00561772 -0.00489302)
(-0.0216766 -0.00425711 -0.00496562)
(-0.0215917 -0.00891587 -0.00569363)
(-0.0226963 -0.0113889 -0.00486182)
(-0.0212473 -0.0116664 -0.00343953)
(-0.0210698 -0.00927595 -0.00453254)
(-0.0214926 -0.0079535 -0.00592327)
(-0.0210312 -0.0124651 -0.00329156)
(-0.0199329 -0.00925273 -0.00648142)
(-0.0225608 -0.0104641 -0.00604458)
(-0.0203952 -0.00705467 -0.00702432)
(-0.0211559 -0.0106315 -0.00642103)
(-0.0219464 -0.0112305 -0.00618016)
(-0.0218479 -0.0123625 -0.00408016)
(-0.0205661 -0.0118566 -0.00394878)
(-0.0207992 -0.00998987 -0.00550096)
(-0.023047 -0.0167542 0.00384938)
(-0.0226531 -0.0173473 0.00483996)
(-0.0225829 -0.018128 0.00657871)
(-0.0216395 -0.0164722 0.00435166)
(-0.024092 -0.0149735 0.00211234)
(-0.022163 -0.0181307 0.00696732)
(-0.0227737 -0.0183515 0.00635736)
(-0.023368 -0.0166584 0.00389075)
(-0.0223835 -0.0148526 0.000421122)
(-0.0222688 -0.0147798 0.00096212)
(-0.0229663 -0.0150364 0.000328804)
(-0.0214083 -0.0148116 0.00274204)
(-0.0226315 -0.0157658 0.00090172)
(-0.0234779 -0.0155142 0.00194781)
(-0.0195243 -0.00462903 -0.0114903)
(-0.0191936 -0.00598086 -0.0116088)
(-0.0189012 -0.00639518 -0.010586)
(-0.0192747 -0.00593638 -0.0109235)
(-0.0192804 -0.00701802 -0.0107297)
(-0.0185784 -0.00584075 -0.0112158)
(-0.0191531 -0.00255092 -0.0144464)
(-0.007315 -0.00377329 -0.00428484)
(-0.00791277 -0.00398491 -0.00510782)
(-0.00659972 -0.00195874 -0.00119481)
(-0.00627989 -0.00241811 -0.00190433)
(-0.00672193 -0.00239663 -0.00192189)
(-0.00668858 -0.00232927 -0.00136974)
(-0.00624825 -0.00242045 -0.00164488)
(-0.00679559 -0.00209185 -0.00147481)
(-0.00742099 -0.00227201 0.00193336)
(-0.00708627 -0.00227787 0.00149412)
(-0.00767026 -0.0014706 0.00199831)
(-0.00751822 -0.0018713 0.00219234)
(-0.00774866 -0.001572 0.00176453)
(-0.00702135 -0.00172878 0.00164435)
(-0.00907072 -0.00466791 -0.00454229)
(-0.0104923 -0.00554747 -0.00502728)
(-0.01076 -0.00545249 -0.00602328)
(-0.00943871 -0.0051846 -0.00431986)
(-0.0106787 -0.00475333 -0.00734045)
(-0.00944969 -0.00471875 -0.00544171)
(-0.0113166 -0.00525852 -0.00703001)
(-0.0089041 -0.0043457 -0.00610627)
(-0.00746811 -0.00324646 0.0018732)
(-0.00740953 -0.00363898 0.0016438)
(-0.00773792 -0.00411347 0.00131033)
(-0.00771777 -0.00386375 0.00079133)
(-0.00751409 -0.00327119 0.00147465)
(-0.00702375 -0.00325626 0.00117878)
(-0.00843756 -0.00514419 0.000469837)
(-0.00843168 -0.00469147 -0.00010396)
(-0.00905045 -0.00547516 -0.00107421)
(-0.00880482 -0.00546361 -0.000326724)
(-0.00954525 -0.00595939 -0.00087731)
(-0.00815009 -0.00470921 -0.000533485)
(-0.0214931 -0.0184446 0.00854427)
(-0.021801 -0.0182928 0.00694377)
(-0.0217907 -0.018051 0.00618553)
(-0.0216329 -0.00496298 -0.00865192)
(-0.0213563 -0.00328276 -0.00790142)
(-0.0210073 -0.00116194 -0.00782005)
(-0.0213312 -0.00429957 -0.00850838)
(-0.0224172 -0.00312745 -0.00960698)
(-0.0202071 -0.00186254 -0.00828434)
(-0.0204261 0.00398632 -0.00446706)
(-0.0191181 0.00250196 -0.00477726)
(-0.0208353 0.00205968 -0.00657348)
(-0.0205146 0.0020061 -0.00637295)
(-0.0195749 0.00227215 -0.00466529)
(-0.0218442 0.000597442 -0.00742627)
(-0.0176402 0.00318745 -0.00144129)
(-0.0200895 0.0022728 -0.00361277)
(-0.0221862 0.000224692 -0.00339717)
(-0.019168 0.00277011 -0.00356133)
(-0.0197243 0.00332951 -0.0012483)
(-0.0296711 -0.0124864 -0.000286411)
(-0.0284126 -0.0111058 0.001708)
(-0.0270087 -0.0126405 0.000718349)
(-0.0297538 -0.012489 0.00258141)
(-0.0271397 -0.0125637 0.00165458)
(-0.0267645 -0.0130099 6.08202e-05)
(-0.022927 -0.0119472 -0.00376603)
(-0.0240426 -0.0132243 -0.00197024)
(-0.0262479 -0.0132503 -0.00153903)
(-0.0258046 -0.0130256 -0.00319181)
(-0.0244858 -0.0128489 -0.00419925)
(-0.0255761 -0.0133286 -0.00182562)
(-0.0224616 -0.0131457 -0.00336932)
(-0.021406 -0.0130291 -0.00207762)
(-0.0218932 -0.0123786 -0.00366293)
(-0.022376 -0.0129393 -0.00279783)
(-0.0226176 -0.0134064 -0.00103282)
(-0.0228867 -0.0145603 0.000846084)
(-0.0321043 -0.0105261 -1.27112e-05)
(-0.032348 -0.00825362 0.000332486)
(-0.0332579 -0.00976807 5.46838e-05)
(-0.0323599 -0.0106666 -0.000305032)
(-0.0333047 -0.00880003 -0.00090524)
(-0.0310707 -0.00919969 -0.000162944)
(-0.0339596 -0.00513723 -0.00753007)
(-0.034243 -0.00553893 -0.00564619)
(-0.035405 -0.00556107 -0.00639067)
(-0.0347625 -0.00606652 -0.00872832)
(-0.0320234 -0.00552943 -0.00683652)
(-0.0332423 -0.0053359 -0.00484827)
(-0.0279442 -0.00846682 0.00886978)
(-0.0257411 -0.00731176 0.00632371)
(-0.0250381 -0.00671724 0.00727577)
(-0.0228503 -0.00719294 0.00593466)
(-0.0250403 -0.00829878 0.00928078)
(-0.0230365 -0.00724418 0.00795721)
(-0.0262639 -0.00719287 0.00460006)
(-0.0276101 -0.00684603 0.00210258)
(-0.0297825 -0.00750153 0.00393782)
(-0.0239488 -0.00707792 0.00180516)
(-0.0249463 -0.00715484 0.00342739)
(-0.0266618 -0.00717808 0.0013178)
(-0.0324658 -0.0127123 0.0103549)
(-0.0299873 -0.012555 0.0096341)
(-0.027947 -0.0117171 0.011144)
(-0.0254492 -0.0159394 0.00869816)
(-0.0265217 -0.0141053 0.0116897)
(-0.0260628 -0.0153696 0.0121541)
(-0.0261713 -0.0153194 0.00972094)
(-0.0291501 -0.0149432 0.00966373)
(-0.0240223 -0.0154593 0.0105455)
(-0.0248538 -0.0168723 0.0156146)
(-0.0252431 -0.0157234 0.016322)
(-0.023815 -0.0134431 0.0165882)
(-0.022783 -0.0146201 0.0154988)
(-0.0239134 -0.0163355 0.0162533)
(-0.0249835 -0.0146421 0.0161549)
(-0.0206094 -0.00700673 -0.0121131)
(-0.0196601 -0.00616477 -0.0121817)
(-0.0186573 -0.00666512 -0.0112294)
(-0.0223298 -0.00709801 -0.0125087)
(-0.0227458 -0.00499107 -0.0134989)
(-0.0233394 -0.00512819 -0.014396)
(-0.0218914 -0.0088075 -0.0105156)
(-0.0213427 -0.00836295 -0.011011)
(-0.0180911 -0.00957452 -0.00784902)
(-0.0193769 -0.00897817 -0.00874101)
(-0.0215901 -0.0091607 -0.00953431)
(-0.0199462 -0.00796881 -0.0105363)
(-0.0273612 -0.00761364 -0.0112562)
(-0.0251197 -0.00737096 -0.011292)
(-0.0280769 -0.00819166 -0.0114901)
(-0.0296393 -0.00583493 -0.0122158)
(-0.0259373 -0.00542781 -0.0111066)
(-0.0236233 -0.00726759 -0.0103267)
(-0.025142 -0.0100418 0.0135477)
(-0.0219615 -0.00813136 0.0109192)
(-0.0233483 -0.00814036 0.010652)
(-0.0238904 -0.00989559 0.0127656)
(-0.023237 -0.00838866 0.0118596)
(-0.0241194 -0.0103274 0.0139459)
(-0.0206597 0.0012774 -0.0138035)
(-0.0207323 0.00167059 -0.0132185)
(-0.020576 -0.000706392 -0.0145789)
(-0.0196513 0.000239897 -0.0134593)
(-0.0208544 0.00156402 -0.0133048)
(-0.0177624 0.00275497 -0.00543303)
(-0.0162957 0.00165244 -0.00429586)
(-0.0158225 0.00106643 -0.00403471)
(-0.0183196 0.0031478 -0.00539637)
(-0.0171116 0.00241215 -0.00476206)
(-0.0197537 0.00303185 -0.0075968)
(-0.0190589 0.0033715 -0.00648223)
(-0.0192179 0.00265867 -0.0068182)
(-0.0185558 0.0024128 -0.00537166)
(-0.0207528 -0.0010863 -0.010636)
(-0.0195479 -0.00342184 -0.0107911)
(-0.0198922 -9.82186e-05 -0.0103532)
(-0.0206292 -0.00374698 -0.010933)
(-0.0203818 -0.00108137 -0.0108391)
(-0.0202964 -0.00244474 -0.0118886)
(-0.0206881 0.000749997 -0.00905872)
(-0.0192706 0.00344007 -0.00652112)
(-0.0196649 0.00360447 -0.00791207)
(-0.019238 0.00416992 -0.00566604)
(-0.0223722 0.0020643 -0.00816792)
(-0.0208368 0.00201396 -0.00918075)
(-0.0179062 0.00268768 -0.00584959)
(-0.0175394 0.00395309 -0.00459723)
(-0.0184972 0.00312387 -0.00738228)
(-0.0188733 0.00381293 -0.00772547)
(-0.0195563 0.00334504 -0.00763965)
(-0.0195366 0.00351532 -0.00609576)
(-0.0341474 -0.0055927 -0.00844841)
(-0.0347352 -0.0061306 -0.00700943)
(-0.0344674 -0.00525986 -0.00895713)
(-0.0317377 -0.00475676 -0.00677382)
(-0.032661 -0.00590228 -0.00505687)
(-0.0344546 -0.00559656 -0.00678762)
(-0.0348088 -0.00710134 -0.00712185)
(-0.0217332 -0.010317 -0.00816908)
(-0.0211474 -0.0111327 -0.00593043)
(-0.0228036 -0.0118124 -0.00680008)
(-0.02074 -0.009705 -0.0076125)
(-0.0220171 -0.0120025 -0.00544199)
(-0.0267612 -0.0109986 -0.00418111)
(-0.0271029 -0.0115333 -0.00407398)
(-0.0254034 -0.0120233 -0.00588421)
(-0.0259632 -0.011913 -0.00586066)
(-0.027215 -0.0118222 -0.00557923)
(-0.0258009 -0.0116907 -0.00460738)
(-0.0190656 -0.00748869 -0.0123428)
(-0.0199388 -0.00827701 -0.0126062)
(-0.0194904 -0.00812169 -0.0124621)
(-0.0187293 -0.00590617 -0.0129838)
(-0.0186569 -0.00708251 -0.0123399)
(-0.0201827 -0.00732212 -0.0128659)
(-0.0198982 -0.00753572 -0.0135641)
(-0.021959 -0.01068 -0.00769187)
(-0.02183 -0.0107714 -0.00867478)
(-0.0238894 -0.0118177 -0.00711104)
(-0.0223826 -0.0108225 -0.00716976)
(-0.0200877 -0.00963928 -0.00935547)
(-0.0198825 -0.00808835 -0.0105928)
(-0.0177475 -0.00804486 -0.0103398)
(-0.0188265 -0.00903 -0.00935559)
(-0.0190955 -0.00858353 -0.0110758)
(-0.0178228 -0.00718965 -0.010182)
(-0.022947 -0.0112769 -0.0105993)
(-0.0253568 -0.0117308 -0.0091936)
(-0.0215836 -0.0106092 -0.0109977)
(-0.0316602 -0.0035583 -0.0108062)
(-0.0332288 -0.00422691 -0.0120143)
(-0.0332434 -0.00362345 -0.014396)
(-0.0316718 -0.00325794 -0.0115347)
(-0.0316001 -0.00396425 -0.0129016)
(-0.0317451 -0.00419548 -0.0133829)
(-0.0286026 -0.00215794 -0.0140652)
(-0.0309904 -0.0026344 -0.012538)
(-0.0306314 -0.00292064 -0.013863)
(-0.0305977 -0.00508656 -0.00975195)
(-0.0299476 -0.00471581 -0.0104749)
(-0.0311761 -0.00375443 -0.011708)
(-0.0317752 -0.00566301 -0.0104877)
(-0.0327839 -0.0053514 -0.0120867)
(-0.0311117 -0.0041667 -0.0115438)
(-0.0294058 -0.00732395 -0.00836557)
(-0.030252 -0.00837857 -0.00884754)
(-0.0321781 -0.0070787 -0.00848701)
(-0.0312353 -0.00643976 -0.00889962)
(-0.0314696 -0.00690638 -0.00936753)
(-0.0301495 -0.00742434 -0.00746796)
(-0.0200887 -0.0128357 -0.00666927)
(-0.0212749 -0.0129733 -0.0059959)
(-0.0194626 -0.0122708 -0.00596422)
(-0.0182588 -0.011596 -0.00405143)
(-0.0145939 -0.01313 -0.00302331)
(-0.0179277 -0.0135658 -0.00369733)
(-0.00962077 -0.0129425 0.00384885)
(-0.0106352 -0.0125048 0.00358772)
(-0.0113092 -0.014485 0.00276866)
(-0.0113199 -0.0143489 0.00150997)
(-0.0114969 -0.0129124 0.0022277)
(-0.0125716 -0.01368 0.00102339)
(-0.0149662 -0.0119138 -0.00375408)
(-0.0166751 -0.013047 -0.00368998)
(-0.0136145 -0.0137962 -0.00126624)
(-0.015318 -0.0146707 -0.00261336)
(-0.0136041 -0.0133601 -0.00101109)
(-0.0143824 -0.0135871 -0.00207442)
(-0.00514245 -0.0161493 0.00494139)
(-0.00578877 -0.015594 0.00434826)
(-0.00599182 -0.0143401 0.00256952)
(-0.00672745 -0.0151514 0.00283954)
(-0.00571576 -0.0161279 0.00430551)
(-0.00719798 -0.0149277 0.00199696)
(-0.0127134 -0.0105341 -0.00192566)
(-0.0135431 -0.010318 -0.00214211)
(-0.0114039 -0.0108971 -0.00164976)
(-0.00967846 -0.0119061 -0.00107115)
(-0.00748945 -0.0132721 0.000263111)
(-0.00752764 -0.0110366 -0.00062601)
(-0.00820447 -0.0119145 -0.000443794)
(-0.00663477 -0.0123755 -0.000137246)
(-0.00635842 -0.0129615 0.000650377)
(-0.020793 -0.00783888 -0.00159135)
(-0.0225339 -0.0070488 -0.000219133)
(-0.0169117 -0.00817526 -0.000884338)
(-0.018629 -0.00726177 -5.66415e-05)
(-0.0192787 -0.00915556 -0.00177415)
(-0.0203356 -0.00701581 1.58087e-05)
(-0.0138276 0.00238463 0.00875253)
(-0.0148133 0.00290697 0.00802855)
(-0.0156016 0.0025758 0.00822675)
(-0.0161499 0.00310069 0.00693762)
(-0.014311 0.00265601 0.00922995)
(-0.0157685 0.00294562 0.00669436)
(-0.0185304 0.00348023 0.00401799)
(-0.0194309 0.00306505 0.00291015)
(-0.0173024 0.00401601 0.00555111)
(-0.0198883 0.00283206 0.00240931)
(-0.0188652 0.00303829 0.00401297)
(-0.0184392 0.00329314 0.00518676)
(-0.0224914 -0.0188038 0.00913108)
(-0.0225227 -0.0186492 0.0109806)
(-0.0227568 -0.0188259 0.0136804)
(-0.0235468 -0.0177603 0.0131791)
(-0.0218776 -0.0180866 0.0112821)
(-0.0216247 -0.0179588 0.00987935)
(-0.0215061 -0.0185847 0.00955896)
(-0.0210317 -0.0172632 0.0115688)
(-0.0115374 -0.00675694 0.000647455)
(-0.0167064 -0.006377 0.00408186)
(-0.0132183 -0.00672654 0.00152388)
(-0.0161184 -0.00949831 -0.00712433)
(-0.0166957 -0.00747626 -0.00907405)
(-0.0164537 -0.00808495 -0.00847308)
(-0.0146717 -0.00859637 -0.00633719)
(-0.0131762 -0.00759471 -0.00541545)
(-0.0141979 -0.00744382 -0.00709046)
(-0.00941922 -0.00622319 0.00070428)
(-0.00850793 -0.00513681 0.0017591)
(-0.00814476 -0.00504881 0.00129012)
(-0.00969036 -0.00698263 0.00189838)
(-0.0096369 -0.00719756 0.00127176)
(-0.0087737 -0.00582293 0.00216543)
(-0.0119772 -0.00923585 -0.000689877)
(-0.0117018 -0.0103302 6.37272e-05)
(-0.0103294 -0.0082056 0.00154686)
(-0.0107089 -0.00847918 0.000538608)
(-0.0117573 -0.0101353 0.0010439)
(-0.00928722 -0.000494879 0.00636988)
(-0.00902049 -0.000846765 0.00540012)
(-0.00863799 -0.00135157 0.00555235)
(-0.010064 -8.56775e-05 0.00608912)
(-0.00866731 -0.00117332 0.00597959)
(-0.00979997 -0.000280153 0.0055955)
(-0.00758183 -0.00334836 0.00383607)
(-0.00807029 -0.00488234 0.00440963)
(-0.00748777 -0.00366674 0.00385681)
(-0.0079951 -0.00443207 0.00475075)
(-0.00815929 -0.00460287 0.00401642)
(-0.00760218 -0.00352057 0.00451397)
(-0.0329587 -0.00437485 -0.00938608)
(-0.0315164 -0.00528615 -0.00907475)
(-0.0328133 -0.00627934 -0.00897133)
(-0.034123 -0.00474632 -0.0104141)
(-0.0333698 -0.00498199 -0.00876896)
(-0.03306 -0.00543958 -0.00814621)
(-0.00680097 -0.00330239 -0.00315023)
(-0.0070775 -0.00335108 -0.00266419)
(-0.00631253 -0.00280344 -0.00253722)
(-0.0064514 -0.00291637 -0.00211306)
(-0.00664917 -0.00307832 -0.00344545)
(-0.0103842 0.000144935 0.00502944)
(-0.0125511 0.0013943 0.00473106)
(-0.0109804 0.000833525 0.0047426)
(-0.0150985 0.00314196 0.00486997)
(-0.0165775 0.00352357 0.00426744)
(-0.0138095 0.0024758 0.00525735)
(-0.0124013 0.00149026 0.00485571)
(-0.0117082 0.00123197 0.00594236)
(-0.0104548 0.000337897 0.00536722)
(-0.0113551 0.000979993 0.00538618)
(-0.0165555 0.00377041 0.000156922)
(-0.0186914 0.00411972 0.000503454)
(-0.0169578 0.00419568 0.00306809)
(-0.0107465 0.000611646 0.00426757)
(-0.0103825 0.000705508 0.00361165)
(-0.00950568 0.000141479 0.00384136)
(-0.00954712 0.000278716 0.00435281)
(-0.00884035 -0.000446339 0.00351771)
(-0.00764589 -0.00415152 0.00198602)
(-0.0104181 -0.00795893 0.000605231)
(-0.00904815 -0.00619682 1.55441e-05)
(-0.0106613 -0.0080236 -0.000396445)
(-0.0103942 -0.00747608 -0.000729314)
(-0.0119338 -0.00796804 -0.00305554)
(-0.0104101 -0.0073531 -0.001599)
(-0.0122188 -0.00734804 -0.00448236)
(-0.0163878 -0.0126144 -0.00432833)
(-0.0145906 -0.0136731 -0.00235659)
(-0.0138364 -0.0125972 -0.0019336)
(-0.013438 -0.0128142 -0.000500529)
(-0.0111732 -0.011032 0.00181049)
(-0.0120139 -0.0113455 0.00059723)
(-0.0114479 -0.0119076 0.00104017)
(-0.0106554 -0.0114407 0.00293686)
(-0.0116854 -0.0124734 0.00216828)
(-0.0136519 -0.00734084 0.000753298)
(-0.021024 -0.0163929 0.0039114)
(-0.0202462 -0.0145965 0.0022159)
(-0.0216421 -0.0119077 -0.000189942)
(-0.0241166 -0.0110631 -4.26918e-05)
(-0.0231079 -0.0125537 0.000722534)
(-0.022984 -0.0146553 0.00162051)
(-0.0219427 -0.0125799 0.00035965)
(-0.0228179 -0.00876051 -0.00109581)
(-0.0239637 -0.00989226 -0.00127544)
(-0.0223942 -0.00864027 -0.0018333)
(-0.0216128 -0.00650187 -0.00291627)
(-0.0230344 -0.00524925 -0.00348427)
(-0.0228351 -0.00679124 -0.00392803)
(-0.0189484 0.00377283 0.00243968)
(-0.0192252 0.00456773 0.00107978)
(-0.0193275 0.00428512 0.00221419)
(-0.0222107 -0.00417647 -0.00344479)
(-0.0224028 -0.00255943 -0.00364545)
(-0.0203428 0.00248051 0.000994562)
(-0.0182706 0.00357238 0.00422671)
(-0.0187131 0.00366667 0.00318881)
(-0.0177885 0.00382958 0.00508374)
(-0.0164758 0.0035152 0.0044629)
(-0.0180082 0.00386333 0.00357436)
(-0.0178545 0.00369832 0.00378813)
(-0.0170956 0.00365155 0.00495753)
(-0.0128649 0.00181869 0.00590669)
(-0.0135871 0.00281122 0.00569826)
(-0.0151443 0.00325219 0.00543866)
(-0.0156731 0.00330617 0.00571763)
(-0.0239419 -0.00543156 0.0025973)
(-0.0218701 -0.00158494 0.00324277)
(-0.0225822 -0.00263729 0.0032797)
(-0.021149 0.00136945 0.00758775)
(-0.0208074 0.000733751 0.00439817)
(-0.0203516 9.98765e-05 0.0043112)
(-0.0207818 0.000679232 0.00535991)
(-0.0196379 0.00212728 0.00764541)
(-0.0179583 0.00161484 0.00879128)
(-0.0203801 0.0017082 0.00890602)
(-0.0180017 0.00262054 0.0083923)
(-0.0178717 0.00168817 0.00893124)
(-0.021039 -0.00162181 0.00224872)
(-0.0214849 -0.000252283 0.00301748)
(-0.0228118 0.000758986 0.00318354)
(-0.0191716 0.00265642 0.00374722)
(-0.0165367 0.00348058 0.0057397)
(-0.0159656 0.00383456 0.00582818)
(-0.0175458 0.00375425 0.00680676)
(-0.0238598 -0.0032828 0.000630944)
(-0.0228599 -0.00553971 0.000674721)
(-0.0223454 -0.00594664 0.000886952)
(-0.0227101 -0.00758346 -0.000395273)
(-0.0224592 -0.00783435 -0.000141774)
(-0.0213923 0.00160808 -2.30424e-06)
(-0.0220866 0.000126803 -0.00166806)
(-0.0223178 -0.00161877 -0.00224219)
(-0.0216978 0.000814976 0.00211117)
(-0.0208778 0.00217438 0.00260339)
(-0.0209409 0.00177705 0.00171819)
(-0.0206923 0.000833903 7.73558e-05)
(-0.0228333 -0.0067392 -0.000944787)
(-0.0240113 -0.00425574 0.000663851)
(-0.0211385 -0.000348173 0.000846959)
(-0.0214252 -0.00651318 -0.00172352)
(-0.022009 -0.00482946 -0.00230637)
(-0.0222535 -0.00113748 -0.000574152)
(-0.0220195 -0.00276943 -0.00228475)
(-0.0219295 -0.00185147 -0.000689625)
(-0.0230276 -0.00431159 -0.00113668)
(-0.0212731 -0.00847002 -0.00289817)
(-0.0216706 -0.00904076 -0.00451498)
(-0.0231824 -0.00879229 -0.00412246)
(-0.0245188 -0.00972446 -0.00608295)
(-0.0257297 -0.00841739 -0.00573411)
(-0.0161541 -0.00771243 -0.000362107)
(-0.00834384 -0.00996214 -0.000707192)
(-0.0178017 -0.0091453 -0.00268287)
(-0.0171503 -0.00893788 -0.002153)
(-0.0146202 -0.00980988 -0.0016022)
(-0.0102299 -0.0105221 -0.00139953)
(-0.00600652 -0.0134041 0.00150902)
(-0.0197932 -0.0118358 -0.00457165)
(-0.0169218 -0.0112498 -0.00323189)
(-0.0125792 -0.0136679 -0.000104937)
(-0.0173587 -0.0123526 -0.00493343)
(-0.0180746 -0.0122664 -0.00613628)
(-0.0185934 -0.0105572 -0.00371999)
(-0.0155756 -0.0113635 -0.00418806)
(-0.0218856 -0.0102066 -0.00597181)
(-0.0134289 -0.0152074 -0.00158982)
(-0.0132802 -0.0148169 -0.000634037)
(-0.0117508 -0.0151328 0.000623064)
(-0.0135071 -0.0140266 -0.000119371)
(-0.01162 -0.0140122 0.000207691)
(-0.00927482 -0.0152565 0.00212867)
(-0.0108281 -0.0144752 0.00201555)
(-0.00917537 -0.0148335 0.00375909)
(-0.00926733 -0.0150113 0.00523528)
(-0.0314176 -0.00651628 -0.00770173)
(-0.0322415 -0.00578758 -0.00967058)
(-0.0301993 -0.005936 -0.0090939)
(-0.0265311 -0.010904 -0.00782675)
(-0.0273791 -0.0116904 -0.00946748)
(-0.0297469 -0.00966455 -0.00740445)
(-0.027247 -0.00984609 -0.00668708)
(-0.0278243 -0.0106333 -0.00799172)
(-0.0313457 -0.00843752 -0.00771188)
(-0.0287468 -0.00879904 -0.00714542)
(-0.0255245 -0.00224416 -0.0145576)
(-0.0250142 -0.0010017 -0.0152413)
(-0.0246711 -0.0017112 -0.0145004)
(-0.0292043 -0.000982391 -0.0145616)
(-0.026938 -0.00106644 -0.0140436)
(-0.0191121 -0.00340432 -0.0143457)
(-0.0184984 -0.00397876 -0.0129989)
(-0.0164247 -0.00254091 -0.0129206)
(-0.0162933 -0.00479275 -0.0113327)
(-0.0297563 -0.00208445 -0.0129821)
(-0.0332515 -0.00258585 -0.0123363)
(-0.0325823 -0.00377544 -0.0104755)
(-0.0342151 -0.00368836 -0.010302)
(-0.030515 -0.00328128 -0.0147389)
(-0.0278346 -0.00347141 -0.0147512)
(-0.0305259 -0.00299345 -0.0170424)
(-0.0293422 -0.00294996 -0.0141443)
(-0.0313725 -0.00417656 -0.0140521)
(-0.00984748 -0.00384923 -0.00796852)
(-0.0108371 -0.00358463 -0.00907885)
(-0.00820062 -0.00401043 -0.00567626)
(-0.0138368 -0.00518599 -0.010052)
(-0.0129379 -0.00428861 -0.0103868)
(-0.0153019 -0.00386463 -0.0118623)
(-0.0124469 -0.00446318 -0.00914604)
(-0.014107 -0.00473423 -0.0102666)
(-0.0145837 -0.00447708 -0.0115082)
(-0.0258197 -0.0111148 -0.00790482)
(-0.0253806 -0.0115576 -0.00792609)
(-0.0242432 -0.011178 -0.00770057)
(-0.0274474 -0.0124148 -0.00160705)
(-0.0273645 -0.0126933 -0.00278451)
(-0.0292871 -0.0122624 -0.00303189)
(-0.0267478 -0.0119132 -0.00321971)
(-0.0280774 -0.0112892 -0.00300295)
(-0.0244515 -0.011426 -0.00712322)
(-0.024804 -0.0118073 -0.00693087)
(-0.025584 -0.0115956 -0.0063961)
(-0.025596 -0.0112661 -0.0078628)
(-0.0311692 -0.00778526 -0.00693818)
(-0.0321754 -0.00727408 -0.00721594)
(-0.0320697 -0.00648029 -0.00663966)
(-0.0351213 -0.00590809 -0.00704629)
(-0.034294 -0.00823517 -0.00767777)
(-0.031207 -0.0109628 0.0067244)
(-0.0224395 -0.0121764 -0.00460857)
(-0.0221907 -0.0112998 -0.00646832)
(-0.0194905 0.00198439 -0.00864094)
(-0.0198289 -0.000191994 -0.0101674)
(-0.020663 0.00171543 -0.00892207)
(-0.0203007 -2.50195e-05 -0.00936499)
(-0.0219047 -0.000226559 -0.0100034)
(-0.020014 -0.00267265 -0.00908368)
(-0.0206371 -0.00236014 -0.0100866)
(-0.02227 0.000909949 -0.00960458)
(-0.0217945 -0.00102562 -0.00936898)
(-0.0209727 0.00205554 -0.0102939)
(-0.0208176 0.00248466 -0.00846081)
(-0.0199885 0.00285031 -0.00699128)
(-0.0197557 0.0038139 -0.00822767)
(-0.0218692 0.00270062 -0.0104241)
(-0.0198769 0.00172036 -0.00982176)
(-0.0197511 0.00257704 -0.00843694)
(-0.0218972 0.00203814 -0.0121741)
(-0.0204836 0.00260374 -0.0112526)
(-0.0198335 -0.000437919 -0.0121497)
(-0.0203561 0.00277811 -0.0118298)
(-0.0193833 0.00088811 -0.0112056)
(-0.020981 0.00162729 -0.0128728)
(-0.015695 0.0022382 -0.0025572)
(-0.0168775 0.00212428 -0.00367862)
(-0.0170264 0.00259896 -0.00490035)
(-0.0160102 0.00177799 -0.0033405)
(-0.0156227 0.00142496 -0.00269673)
(-0.0145375 0.000728937 -0.00257556)
(-0.0160117 0.000610695 -0.00387638)
(-0.0142092 9.35331e-05 -0.00219873)
(-0.00917866 -0.00174335 -0.00175305)
(-0.0228383 -0.0101929 -0.00967037)
(-0.0204408 -0.0108945 -0.00760714)
(-0.0205074 -0.00944999 -0.00873052)
(-0.0283479 -0.00583692 -0.0116153)
(-0.0193325 -0.00312927 -0.0130867)
(-0.0189332 -0.0036602 -0.0129634)
(-0.0184605 -0.00617734 -0.0121331)
(-0.0197137 -0.0075201 -0.0106965)
(-0.0177706 -0.00679484 -0.0109557)
(-0.0234585 -0.00406295 -0.0152888)
(-0.0242711 -0.00504973 -0.015014)
(-0.0302334 -0.00452193 -0.0121592)
(-0.0296676 -0.0034431 -0.0124058)
(-0.0303999 -0.00356564 -0.0115448)
(-0.0317416 -0.00337876 -0.0123079)
(-0.0303825 -0.00459158 -0.0120552)
(-0.0248324 -0.0127588 0.0155655)
(-0.0259955 -0.0124921 0.0154147)
(-0.0239063 -0.0177443 0.0159727)
(-0.0245135 -0.0115672 0.014678)
(-0.0231988 -0.0177209 0.0117648)
(-0.0249609 -0.0180986 0.0112203)