/*--------------------------------*- C++ -*----------------------------------*\
| =========                 |                                                 |
| \\      /  F ield         | OpenFOAM: The Open Source CFD Toolbox           |
|  \\    /   O peration     | Version:  v1612+                                |
|   \\  /    A nd           | Web:      www.OpenFOAM.com                      |
|    \\/     M anipulation  |                                                 |
\*---------------------------------------------------------------------------*/
FoamFile
{
    version     2.0;
    format      ascii;
    class       volScalarField;
    location    "166";
    object      p;
}
// * * * * * * * * * * * * * * * * * * * * * * * * * * * * * * * * * * * * * //

dimensions      [0 2 -2 0 0 0 0];

internalField   nonuniform List<scalar> 
16928
(
3.64121
3.61345
3.67077
3.67133
3.66857
3.67168
3.67347
3.66858
3.66976
3.67595
3.62605
3.62636
3.62184
3.62061
3.62042
3.62839
3.61837
3.6146
3.61713
3.62034
3.62628
3.62304
3.62403
3.6224
3.62196
3.61841
3.62181
3.62795
3.62567
3.62039
3.62367
3.62437
3.62382
3.62551
3.62719
3.62869
3.62431
3.62079
3.62281
3.62598
3.62347
3.61771
3.60735
3.60821
3.61016
3.60686
3.609
3.60847
3.60971
3.61028
3.61044
3.61239
3.61647
3.6099
3.61191
3.60787
3.61534
3.65931
3.65724
3.65588
3.6636
3.66432
3.66091
3.66294
3.65998
3.65475
3.66091
3.6602
3.6616
3.65584
3.65706
3.65931
3.66128
3.6608
3.65959
3.65011
3.65345
3.63537
3.64767
3.65408
3.64849
3.64792
3.65329
3.65514
3.6523
3.64478
3.62125
3.64916
3.6471
3.65115
3.64801
3.65049
3.65232
3.65163
3.64921
3.6487
3.64473
3.64571
3.64574
3.64327
3.63708
3.63058
3.63331
3.6316
3.63865
3.64162
3.64452
3.64479
3.63933
3.64554
3.63663
3.63547
3.64358
3.64316
3.63065
3.63462
3.61773
3.61371
3.61126
3.6119
3.61302
3.61497
3.61398
3.61129
3.60734
3.61396
3.61092
3.61514
3.61328
3.61569
3.61356
3.61284
3.6275
3.62571
3.62979
3.62061
3.63144
3.61811
3.62818
3.62405
3.62959
3.62288
3.62205
3.62823
3.6216
3.60033
3.59583
3.59464
3.60027
3.59895
3.6022
3.66651
3.6672
3.66561
3.67074
3.66399
3.66928
3.66181
3.66362
3.66459
3.6643
3.66858
3.66448
3.66882
3.66626
3.63331
3.63485
3.63174
3.61561
3.62867
3.63585
3.6305
3.62949
3.62962
3.63023
3.62937
3.6272
3.62782
3.62848
3.62402
3.63186
3.62883
3.62072
3.6182
3.61876
3.62156
3.61978
3.62606
3.62252
3.61816
3.62228
3.62265
3.62471
3.61921
3.62205
3.62071
3.6138
3.61284
3.619
3.62579
3.61763
3.62225
3.63482
3.636
3.63999
3.64306
3.64183
3.63767
3.64689
3.63745
3.6381
3.64274
3.63866
3.63871
3.63134
3.63305
3.63659
3.63949
3.64171
3.63696
3.63906
3.6332
3.63504
3.62913
3.62784
3.63169
3.63058
3.62868
3.62849
3.6295
3.63801
3.63333
3.63609
3.63778
3.62722
3.63596
3.63753
3.63609
3.63709
3.60241
3.60264
3.60751
3.60644
3.60413
3.60125
3.60262
3.60421
3.60743
3.60584
3.60306
3.60227
3.60208
3.60909
3.60354
3.60196
3.6035
3.60013
3.60953
3.61091
3.67653
3.67821
3.67984
3.67638
3.67992
3.67738
3.6794
3.67324
3.67163
3.67599
3.67316
3.67023
3.67446
3.67345
3.67326
3.6771
3.67111
3.66729
3.66902
3.66653
3.67249
3.66629
3.66299
3.66149
3.67078
3.66962
3.66997
3.65951
3.66857
3.67111
3.67086
3.66497
3.66736
3.66869
3.60238
3.60028
3.59891
3.60286
3.59931
3.59983
3.60133
3.64218
3.63777
3.63211
3.63479
3.63296
3.64289
3.63867
3.63883
3.63867
3.6081
3.60929
3.60783
3.60967
3.60733
3.61002
3.606
3.61568
3.60962
3.61024
3.61257
3.61248
3.61089
3.60923
3.6066
3.60749
3.61475
3.61505
3.61067
3.60709
3.63
3.63861
3.63305
3.62979
3.63108
3.6324
3.63185
3.63497
3.63475
3.63764
3.63134
3.62851
3.63242
3.6317
3.63462
3.63607
3.63369
3.62939
3.6323
3.62522
3.62953
3.62628
3.62699
3.62591
3.62387
3.62509
3.62281
3.62951
3.6298
3.63003
3.62516
3.62539
3.62621
3.62631
3.62344
3.62427
3.62584
3.62293
3.64652
3.64615
3.65287
3.64891
3.64398
3.64851
3.64371
3.65327
3.64719
3.65085
3.65536
3.64549
3.66389
3.65271
3.65139
3.65396
3.6007
3.60611
3.59951
3.60282
3.60076
3.60408
3.66574
3.66516
3.65218
3.66197
3.66165
3.66089
3.6654
3.66348
3.66017
3.65933
3.65255
3.65515
3.66351
3.65921
3.66079
3.66073
3.66523
3.66447
3.66211
3.66568
3.65619
3.65735
3.66717
3.66222
3.60656
3.60697
3.60356
3.60655
3.60922
3.61407
3.60665
3.61156
3.60471
3.60258
3.61194
3.60664
3.60482
3.60876
3.60685
3.60768
3.60462
3.60773
3.66737
3.66524
3.66409
3.66821
3.66526
3.66058
3.66477
3.66942
3.66298
3.66535
3.66332
3.66357
3.66543
3.65898
3.6671
3.66232
3.66012
3.66136
3.66149
3.65783
3.65844
3.6606
3.67601
3.67439
3.67661
3.67859
3.67827
3.67547
3.6731
3.67491
3.66989
3.6744
3.67376
3.67721
3.6757
3.67451
3.67275
3.67421
3.66947
3.66689
3.66913
3.66937
3.66497
3.6777
3.67094
3.67374
3.66719
3.67171
3.68047
3.67696
3.63967
3.64514
3.63887
3.6408
3.63783
3.64136
3.63726
3.63098
3.639
3.63756
3.64244
3.64326
3.63862
3.63916
3.64526
3.64547
3.60315
3.60409
3.60685
3.60738
3.60902
3.60849
3.60534
3.60468
3.60927
3.60942
3.6045
3.60767
3.60813
3.60736
3.60924
3.61072
3.64324
3.63888
3.64338
3.64058
3.63905
3.64153
3.64089
3.64212
3.64359
3.64452
3.64531
3.64327
3.64688
3.6421
3.65831
3.6555
3.65828
3.6589
3.65974
3.65686
3.65781
3.65651
3.66229
3.65822
3.65825
3.66159
3.65766
3.66241
3.66116
3.65899
3.66281
3.66212
3.66319
3.64907
3.65447
3.65224
3.65353
3.65309
3.65431
3.65109
3.6505
3.65233
3.64906
3.65384
3.65167
3.65431
3.65253
3.65358
3.60972
3.6098
3.61541
3.60691
3.61206
3.61116
3.60608
3.60504
3.60903
3.6028
3.60719
3.60628
3.60665
3.60253
3.60449
3.60392
3.60711
3.64941
3.64996
3.65442
3.65348
3.6534
3.65416
3.64684
3.64672
3.65524
3.65096
3.64781
3.64739
3.6491
3.65132
3.64717
3.65396
3.65694
3.65621
3.6559
3.65607
3.66105
3.65767
3.64949
3.65278
3.65742
3.65843
3.65656
3.65654
3.65411
3.65769
3.65938
3.64776
3.64729
3.6553
3.65264
3.65079
3.6556
3.65164
3.65007
3.65395
3.65591
3.65533
3.65512
3.65381
3.64828
3.64398
3.65214
3.65659
3.65604
3.65536
3.6499
3.65562
3.65418
3.65579
3.65669
3.65946
3.6601
3.65916
3.65663
3.65469
3.6556
3.65323
3.65637
3.65533
3.66174
3.66184
3.65791
3.65848
3.66132
3.66487
3.66065
3.64384
3.64394
3.64111
3.64336
3.63545
3.63624
3.64466
3.64283
3.64144
3.64717
3.63715
3.64271
3.63552
3.63363
3.6417
3.64072
3.63882
3.64096
3.63098
3.63041
3.6241
3.62669
3.62932
3.63195
3.63204
3.62233
3.62331
3.62549
3.62573
3.6238
3.62785
3.63546
3.63637
3.62809
3.6218
3.62626
3.67462
3.67684
3.67442
3.67326
3.67536
3.67782
3.67884
3.67637
3.67402
3.67847
3.67774
3.67695
3.61376
3.616
3.61508
3.61045
3.61038
3.61178
3.61599
3.6142
3.61586
3.61551
3.60764
3.61191
3.61258
3.61027
3.6418
3.64441
3.64011
3.64428
3.64051
3.63934
3.63466
3.64557
3.64377
3.64137
3.64773
3.64413
3.64113
3.6433
3.64425
3.64218
3.64301
3.68017
3.68149
3.67003
3.67909
3.6777
3.67747
3.67433
3.67626
3.66829
3.67854
3.67835
3.67805
3.63719
3.63738
3.64091
3.63928
3.63532
3.63982
3.63863
3.63863
3.63594
3.63436
3.63337
3.63276
3.6356
3.64264
3.63801
3.63624
3.6623
3.6635
3.66819
3.66884
3.6705
3.66269
3.66262
3.66012
3.66931
3.66885
3.66757
3.66727
3.66638
3.67763
3.66991
3.67584
3.67387
3.67284
3.67274
3.60783
3.60667
3.6081
3.61105
3.60859
3.6134
3.60776
3.61077
3.60128
3.5967
3.60719
3.60891
3.60357
3.60279
3.60802
3.60828
3.60578
3.60146
3.60491
3.6013
3.60102
3.60302
3.6052
3.60504
3.59549
3.64448
3.63732
3.63185
3.63893
3.63211
3.6293
3.64638
3.60553
3.59932
3.60694
3.61198
3.61024
3.61019
3.61176
3.60663
3.60881
3.61111
3.61303
3.65605
3.65847
3.65568
3.65325
3.65534
3.65561
3.65954
3.65398
3.65083
3.65158
3.65838
3.66028
3.65
3.6515
3.65438
3.65541
3.65079
3.65376
3.65372
3.65452
3.65504
3.61665
3.61712
3.6207
3.61711
3.61614
3.61491
3.61709
3.61738
3.61364
3.61478
3.61495
3.61278
3.61428
3.61524
3.61531
3.6137
3.61788
3.61508
3.61443
3.63608
3.63318
3.62788
3.62975
3.63037
3.6337
3.63304
3.62623
3.63138
3.63625
3.63713
3.63772
3.63551
3.63886
3.62959
3.63971
3.63745
3.64827
3.64493
3.6425
3.64212
3.64544
3.65024
3.64219
3.64093
3.64453
3.64891
3.64909
3.64861
3.64887
3.6447
3.64724
3.64745
3.64798
3.64179
3.62201
3.62441
3.61758
3.61097
3.62016
3.6205
3.61344
3.6116
3.6154
3.62174
3.61669
3.60862
3.61287
3.61628
3.61689
3.61373
3.65816
3.66479
3.67156
3.66781
3.667
3.65993
3.6645
3.6679
3.66914
3.66672
3.66329
3.66153
3.66552
3.66273
3.67048
3.67321
3.66537
3.66592
3.66463
3.6662
3.66481
3.66434
3.66692
3.66497
3.66628
3.66868
3.6691
3.66683
3.66595
3.6647
3.66679
3.66484
3.66434
3.66711
3.6721
3.67137
3.63701
3.63322
3.63461
3.63413
3.63803
3.64291
3.63804
3.64209
3.63641
3.63777
3.63729
3.63883
3.63803
3.63807
3.63757
3.66685
3.66757
3.66911
3.67856
3.66624
3.67584
3.67304
3.66969
3.66744
3.66451
3.67041
3.66816
3.67182
3.67685
3.67418
3.66937
3.66904
3.67046
3.67254
3.66623
3.67146
3.67278
3.61074
3.61393
3.61035
3.60778
3.61093
3.6081
3.61216
3.61254
3.61269
3.60412
3.60557
3.61465
3.60893
3.61114
3.66951
3.66835
3.66603
3.66845
3.66858
3.66551
3.66978
3.6727
3.6676
3.66533
3.66967
3.6702
3.67478
3.66881
3.67653
3.67578
3.67165
3.64108
3.65164
3.64735
3.65226
3.64956
3.64745
3.64697
3.65149
3.64654
3.65229
3.65111
3.65322
3.6594
3.65615
3.65905
3.66095
3.65914
3.65576
3.6607
3.65488
3.65495
3.6565
3.65488
3.65462
3.65546
3.65593
3.6549
3.65595
3.65436
3.66048
3.65908
3.65633
3.65817
3.65857
3.65927
3.65687
3.66126
3.66067
3.66069
3.66613
3.66732
3.67142
3.6669
3.66885
3.65914
3.66616
3.67006
3.67011
3.67011
3.66231
3.66842
3.6657
3.66675
3.66948
3.65843
3.66246
3.66352
3.65917
3.65815
3.65991
3.66525
3.66083
3.66059
3.65983
3.66251
3.65919
3.65614
3.65646
3.66338
3.63741
3.63814
3.63946
3.63523
3.6374
3.63781
3.63797
3.63905
3.64203
3.63843
3.63886
3.63255
3.63882
3.63077
3.63484
3.63774
3.6378
3.63687
3.62947
3.6344
3.67626
3.67404
3.67159
3.67033
3.67002
3.67255
3.67415
3.67399
3.67094
3.67517
3.66668
3.67435
3.66919
3.66493
3.66988
3.67285
3.67282
3.67165
3.67289
3.67052
3.67653
3.67494
3.67371
3.67004
3.6691
3.67467
3.67596
3.67191
3.67287
3.67153
3.67192
3.66732
3.66987
3.67441
3.67615
3.67432
3.67053
3.6678
3.67476
3.65666
3.65878
3.66128
3.65795
3.65866
3.65408
3.65618
3.65627
3.6561
3.65339
3.65529
3.65363
3.65339
3.65983
3.65208
3.65659
3.65772
3.65848
3.66176
3.65869
3.66056
3.66156
3.65741
3.65212
3.65511
3.65417
3.65999
3.65785
3.6588
3.654
3.65213
3.66109
3.66298
3.65976
3.65973
3.66128
3.65988
3.63909
3.64019
3.63809
3.63775
3.63456
3.63761
3.6345
3.63366
3.62938
3.63159
3.63712
3.63405
3.63482
3.63559
3.63693
3.63228
3.63911
3.63749
3.61537
3.61959
3.62336
3.61875
3.61854
3.62048
3.61285
3.61674
3.61672
3.61703
3.61932
3.61771
3.61404
3.61698
3.61394
3.61762
3.68091
3.64279
3.63985
3.64273
3.64001
3.63276
3.63542
3.63457
3.63707
3.64182
3.64157
3.64046
3.64016
3.63743
3.63399
3.63446
3.63646
3.67368
3.67058
3.6387
3.64554
3.64414
3.6129
3.62561
3.67037
3.66975
3.64453
3.64649
3.6066
3.60971
3.6146
3.66097
3.65818
3.6139
3.60814
3.60889
3.63213
3.63029
3.65275
3.64843
3.65128
3.64899
3.64774
3.64647
3.65527
3.66379
3.66553
3.66873
3.63533
3.62893
3.63111
3.62153
3.62745
3.62754
3.62157
3.62918
3.63316
3.66919
3.66756
3.62035
3.62275
3.61712
3.621
3.60846
3.60257
3.60636
3.6515
3.64827
3.63788
3.63433
3.63285
3.66174
3.66558
3.66057
3.6763
3.68065
3.61868
3.62827
3.62806
3.63046
3.6697
3.67303
3.65274
3.65641
3.6586
3.64331
3.642
3.6349
3.63446
3.60227
3.60307
3.65747
3.65661
3.63336
3.63055
3.63631
3.66317
3.66018
3.65416
3.61545
3.61232
3.61696
3.62176
3.61868
3.6277
3.62311
3.65154
3.65042
3.61759
3.61822
3.6105
3.61106
3.67906
3.68121
3.6502
3.6431
3.64226
3.62933
3.62585
3.62498
3.63166
3.67683
3.6769
3.60342
3.60607
3.61444
3.61578
3.60922
3.61481
3.6095
3.61406
3.62154
3.62064
3.61763
3.6177
3.63656
3.63963
3.6348
3.63328
3.67151
3.6761
3.67654
3.65756
3.66294
3.6595
3.66455
3.64933
3.6486
3.66836
3.66426
3.66335
3.6769
3.68152
3.68554
3.60704
3.6119
3.6428
3.64054
3.63748
3.601
3.60896
3.60925
3.61254
3.61687
3.60964
3.60911
3.61673
3.62556
3.62598
3.61557
3.61006
3.61182
3.63063
3.63177
3.62491
3.62482
3.63456
3.63524
3.6269
3.63163
3.62781
3.62735
3.62621
3.63143
3.62685
3.62562
3.6258
3.62843
3.6298
3.6268
3.62788
3.63368
3.63428
3.63669
3.63338
3.63099
3.62585
3.63342
3.63306
3.62919
3.60848
3.61378
3.60689
3.61254
3.60842
3.61354
3.62234
3.6191
3.62117
3.61362
3.60188
3.61364
3.61252
3.61139
3.60893
3.6236
3.61648
3.61128
3.61836
3.61328
3.61225
3.61705
3.61174
3.61057
3.61843
3.61366
3.61553
3.61587
3.61552
3.61387
3.62488
3.62069
3.63344
3.63136
3.62614
3.62883
3.62268
3.62647
3.62547
3.62416
3.62549
3.60695
3.6085
3.62526
3.62048
3.61361
3.62131
3.61408
3.60476
3.6087
3.60991
3.6088
3.61612
3.61591
3.61394
3.61064
3.61557
3.60747
3.6047
3.61664
3.61464
3.60912
3.61194
3.61484
3.61242
3.60569
3.59951
3.60539
3.60068
3.60982
3.61005
3.60834
3.61248
3.61037
3.6075
3.60845
3.59394
3.60478
3.60103
3.60094
3.60621
3.60461
3.60593
3.60479
3.61281
3.61047
3.60797
3.63198
3.63651
3.64072
3.64944
3.6459
3.64804
3.6311
3.63641
3.63713
3.63333
3.63834
3.63907
3.63505
3.6361
3.63265
3.63598
3.60112
3.60225
3.59663
3.60635
3.60707
3.60653
3.60683
3.60595
3.6107
3.60784
3.60688
3.61005
3.68155
3.67928
3.67205
3.67014
3.6792
3.67958
3.67823
3.67728
3.67989
3.67031
3.67944
3.67801
3.68187
3.67826
3.67713
3.67724
3.67457
3.67635
3.67499
3.6771
3.65425
3.66544
3.67014
3.67144
3.66395
3.66431
3.67143
3.67449
3.67686
3.66366
3.65659
3.66196
3.65974
3.67351
3.66511
3.66329
3.66413
3.66449
3.66765
3.66493
3.66288
3.6561
3.66089
3.66142
3.66497
3.65886
3.66966
3.66956
3.67114
3.66742
3.66144
3.66215
3.64516
3.65114
3.64747
3.65655
3.65169
3.65351
3.6485
3.64731
3.66064
3.65516
3.65656
3.65064
3.64893
3.64879
3.64888
3.64595
3.64488
3.6478
3.64963
3.64843
3.65421
3.65109
3.6472
3.64938
3.66552
3.66355
3.66572
3.66677
3.66649
3.64613
3.65886
3.65765
3.65241
3.65579
3.65437
3.65224
3.65866
3.65274
3.66454
3.6591
3.6606
3.66388
3.65932
3.66653
3.66459
3.66406
3.65967
3.6563
3.66225
3.66176
3.6674
3.67092
3.66837
3.67481
3.67308
3.67754
3.67364
3.67827
3.68339
3.6785
3.67829
3.68094
3.6769
3.67459
3.68061
3.67592
3.67487
3.67561
3.67256
3.6793
3.67259
3.6746
3.67763
3.67108
3.67011
3.67002
3.67423
3.64351
3.63793
3.63894
3.63222
3.63546
3.63214
3.63613
3.63863
3.63789
3.64017
3.62952
3.63112
3.63825
3.64044
3.63654
3.63724
3.6357
3.63794
3.63308
3.63031
3.63333
3.63153
3.62695
3.62866
3.63577
3.63163
3.62498
3.62547
3.62827
3.63393
3.63064
3.63518
3.63651
3.64093
3.64128
3.63371
3.63757
3.64748
3.63661
3.63365
3.64151
3.63469
3.63449
3.62922
3.62262
3.62593
3.62395
3.61426
3.62025
3.61766
3.61695
3.61507
3.6153
3.61663
3.61648
3.61178
3.61473
3.61654
3.62433
3.62755
3.62661
3.61916
3.61826
3.61863
3.61792
3.61766
3.62304
3.6145
3.62233
3.6238
3.62315
3.62235
3.61934
3.61587
3.61767
3.61926
3.6204
3.62634
3.62259
3.62246
3.62317
3.62267
3.61865
3.61043
3.62001
3.62227
3.61847
3.62161
3.61103
3.61749
3.61638
3.60609
3.60815
3.60445
3.61366
3.61227
3.6238
3.61819
3.61084
3.61078
3.61961
3.61619
3.60994
3.61779
3.61142
3.61015
3.61449
3.61248
3.61255
3.60596
3.60948
3.61041
3.60722
3.60806
3.60285
3.60843
3.61009
3.61374
3.62324
3.6173
3.61552
3.61577
3.61403
3.6225
3.62285
3.60253
3.61206
3.60649
3.67709
3.67204
3.67404
3.67846
3.67465
3.6761
3.67365
3.67797
3.62515
3.6238
3.63081
3.63013
3.62081
3.62344
3.62799
3.62392
3.61941
3.68131
3.68298
3.67791
3.67405
3.67323
3.67286
3.67744
3.67986
3.6792
3.67813
3.67622
3.67778
3.63633
3.63776
3.65248
3.65282
3.6475
3.65223
3.63953
3.6387
3.63861
3.64949
3.64849
3.65421
3.64599
3.64803
3.64844
3.64848
3.64674
3.64568
3.65099
3.65085
3.6459
3.64879
3.64588
3.6474
3.66972
3.6728
3.68156
3.68304
3.68065
3.68047
3.60557
3.61274
3.6087
3.60896
3.65009
3.64153
3.64813
3.64977
3.64108
3.6417
3.64722
3.65343
3.64881
3.65455
3.65074
3.65097
3.65735
3.65945
3.64695
3.65342
3.6513
3.62614
3.63125
3.62983
3.62779
3.61715
3.62346
3.62119
3.62168
3.6225
3.61613
3.62998
3.62536
3.6213
3.62923
3.63082
3.61516
3.61394
3.61829
3.62263
3.62095
3.61862
3.61996
3.61508
3.61774
3.61324
3.6746
3.66901
3.67384
3.6709
3.67148
3.67284
3.66988
3.66619
3.66516
3.66049
3.66734
3.6702
3.66692
3.66271
3.6604
3.65741
3.66754
3.65635
3.66103
3.65964
3.66141
3.66135
3.65735
3.66368
3.65839
3.65307
3.65536
3.65568
3.65634
3.64054
3.63409
3.63356
3.63709
3.62782
3.62903
3.63169
3.62724
3.63292
3.6295
3.62987
3.63517
3.62727
3.63217
3.63282
3.64035
3.6437
3.6319
3.62981
3.63506
3.63803
3.63359
3.63369
3.63199
3.64002
3.63752
3.6381
3.63634
3.67093
3.67788
3.68283
3.68168
3.67415
3.67418
3.67752
3.68048
3.66939
3.66203
3.65963
3.65059
3.65883
3.65703
3.65127
3.65029
3.65298
3.65365
3.65131
3.6583
3.66117
3.65906
3.65552
3.65315
3.66304
3.65503
3.65298
3.66377
3.65818
3.60026
3.60579
3.60592
3.60645
3.60468
3.60703
3.60521
3.60406
3.60436
3.61052
3.61092
3.61458
3.607
3.60926
3.61031
3.61076
3.63439
3.63929
3.63938
3.64938
3.64539
3.64549
3.64298
3.64658
3.64629
3.64098
3.63972
3.64403
3.64139
3.64356
3.6395
3.6372
3.63533
3.64534
3.64184
3.65569
3.64487
3.6476
3.65931
3.65049
3.65072
3.65683
3.65514
3.66295
3.65725
3.66736
3.66384
3.65181
3.65331
3.6458
3.64759
3.64975
3.64891
3.6573
3.65419
3.60186
3.60134
3.60506
3.5982
3.66331
3.67086
3.66121
3.65952
3.66664
3.66092
3.66175
3.66943
3.66599
3.66255
3.66913
3.66848
3.66948
3.67006
3.63332
3.62898
3.62827
3.62556
3.63108
3.62317
3.62502
3.62951
3.67048
3.67304
3.6718
3.67132
3.67786
3.65907
3.66146
3.66449
3.6665
3.67131
3.66152
3.66619
3.66648
3.66656
3.65997
3.66089
3.65902
3.66466
3.665
3.65501
3.66092
3.65813
3.66611
3.66305
3.66932
3.66406
3.67275
3.67129
3.66987
3.66348
3.6712
3.63507
3.63419
3.63248
3.63901
3.63842
3.62757
3.63068
3.63868
3.64317
3.64065
3.63864
3.63579
3.63279
3.63759
3.63136
3.63471
3.63328
3.63084
3.63121
3.63316
3.64375
3.63581
3.6382
3.63749
3.63613
3.63112
3.63243
3.63481
3.63548
3.6028
3.59637
3.59794
3.60461
3.59898
3.59992
3.64849
3.64651
3.65137
3.64275
3.6539
3.65314
3.64038
3.65188
3.65415
3.66277
3.64824
3.65411
3.65394
3.65427
3.60513
3.60735
3.60946
3.60882
3.60449
3.60588
3.60887
3.60391
3.60866
3.60723
3.60363
3.60344
3.60323
3.62695
3.62132
3.61989
3.62409
3.62495
3.61582
3.6224
3.61985
3.6157
3.62685
3.62382
3.612
3.61924
3.61727
3.61804
3.60919
3.61067
3.61671
3.61473
3.6179
3.62163
3.61892
3.62056
3.62075
3.62252
3.61579
3.66916
3.6689
3.66051
3.6704
3.6703
3.66983
3.67653
3.67427
3.67941
3.67419
3.66787
3.66374
3.66151
3.66433
3.66896
3.66232
3.66566
3.66233
3.66543
3.66303
3.63905
3.63693
3.62672
3.63077
3.62799
3.62414
3.63397
3.62628
3.62723
3.62878
3.62955
3.63975
3.63113
3.63067
3.63464
3.63088
3.63831
3.63422
3.63273
3.63269
3.63339
3.61786
3.62717
3.624
3.61424
3.61704
3.62399
3.62059
3.61517
3.61634
3.62081
3.62425
3.62066
3.62045
3.62741
3.62636
3.63186
3.63274
3.62902
3.62742
3.62885
3.62511
3.62403
3.62771
3.63112
3.62835
3.62542
3.62458
3.63133
3.62961
3.63316
3.63987
3.63175
3.62538
3.62954
3.62971
3.66514
3.67331
3.66365
3.66489
3.65774
3.66372
3.65755
3.66216
3.65368
3.6563
3.66394
3.66437
3.65983
3.65934
3.6594
3.6659
3.66335
3.66895
3.66782
3.66821
3.66394
3.6442
3.64154
3.64862
3.65073
3.65828
3.65253
3.64696
3.6567
3.65213
3.65083
3.65173
3.65559
3.65296
3.65459
3.64414
3.64315
3.64766
3.64771
3.64465
3.64257
3.64641
3.64237
3.64851
3.64767
3.64973
3.64493
3.65364
3.64617
3.64997
3.65186
3.64416
3.64707
3.64422
3.64586
3.64898
3.6525
3.65563
3.65017
3.65722
3.64781
3.64917
3.65013
3.63708
3.62882
3.63993
3.63724
3.63096
3.63059
3.63281
3.63364
3.63651
3.63718
3.63044
3.62918
3.62484
3.63258
3.63024
3.62667
3.62398
3.60936
3.60878
3.60633
3.60611
3.61055
3.60387
3.61045
3.6094
3.60992
3.61288
3.61144
3.6046
3.60695
3.61377
3.61486
3.61345
3.61311
3.60996
3.62006
3.65163
3.65548
3.65891
3.65454
3.65837
3.65626
3.65599
3.65436
3.65241
3.65703
3.65351
3.66032
3.66564
3.66229
3.66184
3.66768
3.66371
3.65652
3.65477
3.66096
3.65493
3.65493
3.66463
3.65943
3.66188
3.66619
3.60439
3.60333
3.60089
3.60534
3.60444
3.60461
3.60357
3.61261
3.6088
3.61822
3.6166
3.61602
3.61565
3.61155
3.61225
3.61287
3.61521
3.61852
3.61387
3.6105
3.61066
3.61311
3.61284
3.6177
3.60891
3.60158
3.60231
3.60733
3.60716
3.61084
3.61273
3.61413
3.60993
3.61158
3.6095
3.61022
3.60948
3.64664
3.6501
3.64689
3.64457
3.64335
3.64304
3.64111
3.6367
3.6479
3.64432
3.64459
3.64341
3.64567
3.64506
3.64224
3.64026
3.639
3.64113
3.63671
3.63901
3.63832
3.63521
3.63332
3.64171
3.64068
3.66386
3.66607
3.67299
3.66943
3.66954
3.67195
3.67404
3.6692
3.66965
3.67441
3.67534
3.67769
3.67171
3.67267
3.67732
3.67458
3.66839
3.67453
3.67027
3.67148
3.6233
3.63095
3.626
3.62465
3.6272
3.62669
3.62353
3.62299
3.61515
3.61317
3.61631
3.60638
3.62245
3.62264
3.61862
3.62064
3.62053
3.61797
3.61194
3.62227
3.62142
3.62207
3.62222
3.62123
3.63312
3.61889
3.64355
3.6445
3.64749
3.64204
3.64196
3.63685
3.64098
3.66972
3.66452
3.66772
3.67105
3.66151
3.6612
3.67101
3.6706
3.67191
3.67369
3.67666
3.67253
3.67949
3.6786
3.67449
3.6696
3.67094
3.67539
3.66926
3.67057
3.6656
3.66776
3.66922
3.67025
3.66831
3.65995
3.66265
3.66312
3.67014
3.66921
3.67041
3.67169
3.65818
3.66068
3.68078
3.67255
3.6717
3.66371
3.66588
3.66462
3.66731
3.66943
3.66592
3.67188
3.67175
3.66965
3.66845
3.67363
3.65302
3.6567
3.66254
3.65918
3.65623
3.66418
3.66169
3.65908
3.66919
3.66795
3.65749
3.65821
3.66623
3.66666
3.6673
3.66582
3.65456
3.64964
3.65266
3.65688
3.65385
3.65108
3.65182
3.65426
3.65002
3.65101
3.64649
3.64553
3.65773
3.65058
3.64758
3.65186
3.65306
3.65014
3.63689
3.63577
3.63678
3.63721
3.63418
3.63291
3.63888
3.64121
3.64097
3.6391
3.63166
3.64372
3.64026
3.64961
3.64681
3.65192
3.64983
3.64816
3.65025
3.65125
3.64508
3.64237
3.64062
3.64618
3.64275
3.63997
3.63993
3.63717
3.64218
3.65112
3.65621
3.64407
3.65142
3.64964
3.64639
3.65315
3.65315
3.65199
3.65053
3.63803
3.64688
3.64506
3.64026
3.64769
3.64027
3.64446
3.64417
3.64405
3.64507
3.63941
3.64535
3.64042
3.6446
3.64393
3.64113
3.63818
3.64302
3.64002
3.64772
3.64291
3.64303
3.65282
3.66266
3.65912
3.66133
3.65901
3.6622
3.65718
3.66458
3.66633
3.66384
3.66464
3.66506
3.66844
3.66568
3.64011
3.63961
3.63524
3.6166
3.62091
3.625
3.63632
3.63078
3.63412
3.63885
3.63207
3.64288
3.63109
3.62755
3.63902
3.63652
3.63097
3.61995
3.6236
3.62878
3.62236
3.62338
3.62511
3.6262
3.62598
3.64162
3.64764
3.64272
3.64271
3.63767
3.64424
3.6596
3.66271
3.6619
3.6601
3.66185
3.61611
3.61562
3.61851
3.61629
3.61385
3.61335
3.61582
3.62013
3.62928
3.62587
3.62663
3.6314
3.62454
3.62172
3.59875
3.65321
3.65025
3.65683
3.65868
3.65406
3.6536
3.65319
3.65026
3.65061
3.65165
3.65472
3.65173
3.65269
3.65384
3.65695
3.64707
3.64824
3.65156
3.64801
3.64661
3.64687
3.64193
3.64257
3.64229
3.63983
3.64309
3.60104
3.59433
3.60394
3.59773
3.60001
3.66486
3.65642
3.6544
3.66291
3.66101
3.66123
3.65856
3.66153
3.65851
3.66203
3.65637
3.65671
3.65995
3.65295
3.65916
3.66057
3.6682
3.67018
3.66807
3.67138
3.66792
3.66719
3.65847
3.66008
3.66191
3.66695
3.66576
3.66809
3.66565
3.6587
3.66149
3.66457
3.67056
3.66686
3.66717
3.67285
3.6722
3.67041
3.66822
3.67013
3.66706
3.66629
3.66405
3.66187
3.65756
3.65868
3.67522
3.67388
3.62844
3.62493
3.63469
3.63074
3.63043
3.63029
3.6313
3.62202
3.6268
3.62684
3.63081
3.62302
3.6241
3.62986
3.62725
3.62802
3.6207
3.6194
3.62009
3.5992
3.60082
3.59917
3.65535
3.65516
3.65729
3.65701
3.65244
3.65773
3.6568
3.65782
3.65336
3.65787
3.63409
3.63664
3.64263
3.64511
3.63924
3.63997
3.64186
3.64737
3.64186
3.64075
3.64001
3.64456
3.64102
3.6513
3.64564
3.64289
3.63777
3.64558
3.64214
3.63855
3.64315
3.63697
3.64116
3.6429
3.64181
3.64144
3.63929
3.64216
3.64802
3.64556
3.64694
3.64523
3.64626
3.6471
3.64819
3.64986
3.65046
3.6523
3.65308
3.65855
3.65532
3.65319
3.65563
3.60743
3.60278
3.64245
3.63109
3.63744
3.63361
3.6438
3.64005
3.63475
3.64128
3.63766
3.63492
3.63112
3.63386
3.63121
3.6311
3.63045
3.63009
3.63717
3.6343
3.63296
3.6348
3.63301
3.6693
3.66402
3.67549
3.66681
3.67249
3.67206
3.61179
3.614
3.61836
3.61851
3.61955
3.62136
3.62609
3.62432
3.62742
3.62284
3.62522
3.62168
3.62024
3.62349
3.62095
3.61107
3.61092
3.60572
3.61382
3.61111
3.60962
3.61102
3.60862
3.60667
3.63074
3.63574
3.63068
3.62944
3.62759
3.63344
3.63041
3.62454
3.62363
3.62618
3.62657
3.62067
3.62615
3.62728
3.62374
3.62369
3.62321
3.61948
3.62446
3.62963
3.6222
3.6221
3.65727
3.66014
3.65405
3.65868
3.65071
3.65144
3.65091
3.64789
3.64847
3.64753
3.64576
3.65074
3.64783
3.64803
3.64351
3.64421
3.64896
3.64562
3.6471
3.64659
3.60847
3.61008
3.60592
3.60373
3.60182
3.60976
3.60657
3.60561
3.60693
3.61593
3.61015
3.61684
3.60915
3.61138
3.60903
3.60727
3.6149
3.61074
3.61424
3.61202
3.61212
3.6117
3.61182
3.61391
3.67109
3.67208
3.67108
3.67001
3.67487
3.67469
3.67967
3.67978
3.6857
3.6845
3.68142
3.67726
3.68149
3.67878
3.67677
3.64162
3.64168
3.64465
3.64183
3.64228
3.64613
3.64206
3.63198
3.63441
3.63692
3.63295
3.63179
3.63299
3.63826
3.6381
3.63726
3.63704
3.64154
3.63965
3.6294
3.63319
3.63256
3.67152
3.67425
3.66719
3.66929
3.67085
3.66532
3.67751
3.67558
3.61899
3.61404
3.61579
3.60929
3.61184
3.61442
3.61475
3.61446
3.61429
3.61562
3.61272
3.61539
3.62152
3.62378
3.62672
3.62185
3.6179
3.62812
3.62428
3.62038
3.62099
3.62062
3.62689
3.62718
3.62286
3.6251
3.62583
3.62588
3.63088
3.62947
3.62403
3.62196
3.62348
3.62382
3.62293
3.62206
3.6263
3.62499
3.6252
3.62783
3.63122
3.62965
3.62942
3.62817
3.62771
3.62753
3.6292
3.63344
3.62285
3.62214
3.63054
3.63017
3.62774
3.62702
3.62644
3.62943
3.62824
3.63778
3.64574
3.64548
3.64198
3.64708
3.64288
3.64039
3.6365
3.64093
3.64221
3.64002
3.64061
3.64115
3.68306
3.68025
3.67886
3.67728
3.67774
3.68212
3.66257
3.66293
3.66258
3.66498
3.66808
3.66619
3.66838
3.67077
3.67282
3.66775
3.66276
3.66687
3.66083
3.65223
3.64942
3.65178
3.64728
3.63921
3.63789
3.64461
3.64233
3.6507
3.65649
3.65662
3.6524
3.65343
3.65479
3.64717
3.64862
3.65192
3.65012
3.65227
3.65086
3.64701
3.65305
3.64833
3.64643
3.64837
3.64717
3.65947
3.65763
3.66523
3.6601
3.67255
3.6663
3.65837
3.66042
3.65276
3.66033
3.65553
3.65305
3.65864
3.65462
3.67803
3.67401
3.67291
3.6702
3.67939
3.67562
3.67193
3.66825
3.66886
3.67422
3.67269
3.67295
3.66806
3.68225
3.67924
3.67982
3.68331
3.67772
3.6796
3.60699
3.6086
3.60175
3.60474
3.61075
3.6015
3.60806
3.60676
3.60355
3.59876
3.60309
3.60369
3.5997
3.6019
3.59994
3.60292
3.6021
3.60017
3.60204
3.6058
3.60706
3.60594
3.59655
3.59873
3.59996
3.59822
3.60041
3.59757
3.63917
3.63943
3.64222
3.63743
3.63915
3.64784
3.64334
3.64402
3.64793
3.64129
3.615
3.61782
3.61497
3.60579
3.60723
3.613
3.61292
3.61398
3.61442
3.60616
3.60576
3.60849
3.61129
3.61644
3.61841
3.61454
3.61405
3.61433
3.61555
3.62091
3.62088
3.62392
3.61927
3.61402
3.61449
3.61297
3.61336
3.61925
3.61694
3.61299
3.61062
3.61172
3.62416
3.62479
3.61921
3.6141
3.61557
3.61881
3.61484
3.62151
3.6192
3.61972
3.61885
3.61958
3.62408
3.61823
3.62401
3.6188
3.62184
3.61592
3.61763
3.62151
3.62295
3.6186
3.61919
3.60838
3.60829
3.62072
3.61577
3.60833
3.60889
3.59928
3.60558
3.60363
3.60846
3.60521
3.61087
3.60598
3.60095
3.62353
3.62727
3.62537
3.63142
3.62983
3.62568
3.62767
3.63082
3.62777
3.62893
3.62102
3.62096
3.63025
3.62698
3.60995
3.6155
3.60984
3.61545
3.61268
3.61202
3.61463
3.61283
3.60931
3.61005
3.61616
3.61768
3.61807
3.61722
3.617
3.62269
3.61974
3.62699
3.62621
3.62367
3.61869
3.6166
3.62326
3.62052
3.61712
3.61759
3.61895
3.61748
3.61886
3.61874
3.6176
3.61666
3.61306
3.62101
3.61884
3.62282
3.61703
3.63175
3.63173
3.62999
3.63228
3.63199
3.63343
3.63977
3.63146
3.63359
3.6329
3.66932
3.67425
3.67326
3.6665
3.66971
3.67278
3.67184
3.66468
3.66811
3.66575
3.66823
3.6663
3.66501
3.66242
3.65914
3.66666
3.6642
3.66638
3.66351
3.6435
3.649
3.64426
3.63692
3.64399
3.6279
3.63358
3.62989
3.62861
3.62551
3.62516
3.62886
3.62654
3.63129
3.60153
3.60182
3.6047
3.67556
3.67496
3.67196
3.67726
3.67673
3.67335
3.66963
3.67791
3.6
3.60307
3.60616
3.59998
3.60041
3.60404
3.60063
3.60593
3.6028
3.59961
3.60407
3.60079
3.60189
3.60747
3.60707
3.59862
3.63226
3.62982
3.63278
3.63576
3.63166
3.6316
3.62833
3.63349
3.63026
3.62657
3.62387
3.62151
3.6213
3.61829
3.61775
3.62004
3.63478
3.63442
3.63417
3.63464
3.63842
3.6353
3.63899
3.63878
3.64229
3.63904
3.63735
3.64105
3.63778
3.64432
3.64131
3.64541
3.64248
3.63892
3.6393
3.63838
3.64011
3.6451
3.64617
3.64354
3.64226
3.64066
3.64386
3.64251
3.64295
3.6469
3.64998
3.64492
3.65049
3.6504
3.6476
3.6484
3.66722
3.66519
3.66845
3.6651
3.66459
3.67176
3.67994
3.67685
3.66956
3.67843
3.67687
3.67694
3.67105
3.673
3.67859
3.67436
3.67084
3.66778
3.66938
3.66757
3.66991
3.66646
3.66776
3.66983
3.67184
3.63411
3.614
3.60726
3.61134
3.60681
3.61488
3.61276
3.61065
3.60783
3.61425
3.6076
3.60402
3.60799
3.61112
3.61143
3.60726
3.6107
3.61016
3.60988
3.61559
3.61093
3.60105
3.60805
3.61049
3.61383
3.61193
3.61258
3.60745
3.60376
3.63793
3.64018
3.64024
3.63609
3.60435
3.61031
3.60141
3.60609
3.60055
3.60025
3.67157
3.67442
3.67891
3.67471
3.67825
3.67688
3.68122
3.67736
3.66786
3.67207
3.66777
3.66923
3.67448
3.67234
3.66501
3.66741
3.67223
3.67189
3.663
3.66441
3.65433
3.64446
3.65152
3.65006
3.6485
3.64661
3.64645
3.65389
3.64913
3.65819
3.65625
3.67246
3.62037
3.62654
3.62697
3.62498
3.62972
3.63644
3.63433
3.63384
3.63202
3.63332
3.6349
3.63041
3.63352
3.63336
3.63756
3.61809
3.61367
3.61126
3.62093
3.6186
3.61069
3.61231
3.62149
3.61649
3.61875
3.61563
3.61761
3.60986
3.61648
3.61587
3.62723
3.62341
3.61506
3.61516
3.62373
3.62319
3.62222
3.62757
3.61499
3.6185
3.61963
3.61236
3.61522
3.61549
3.61682
3.61184
3.61637
3.62198
3.61954
3.62601
3.62211
3.62322
3.62074
3.62231
3.61706
3.61826
3.61732
3.68152
3.67283
3.68232
3.68442
3.67305
3.6716
3.67534
3.67361
3.68065
3.67197
3.67877
3.67977
3.67667
3.6747
3.68222
3.68484
3.67675
3.67783
3.68095
3.67545
3.67272
3.68368
3.68122
3.67534
3.67657
3.64801
3.6462
3.64384
3.64797
3.64739
3.63896
3.64843
3.64412
3.64629
3.64216
3.6431
3.64423
3.64469
3.64528
3.64286
3.64275
3.64992
3.6512
3.65025
3.64062
3.65193
3.6491
3.64978
3.65363
3.64928
3.64624
3.64878
3.64786
3.64818
3.64802
3.64871
3.65061
3.65225
3.64984
3.64989
3.64988
3.64977
3.66032
3.65793
3.66293
3.65716
3.65836
3.65541
3.66181
3.65558
3.6553
3.65076
3.65237
3.65834
3.6605
3.65697
3.65636
3.6569
3.65083
3.65847
3.65539
3.66206
3.67073
3.65167
3.64781
3.65701
3.65329
3.65285
3.65769
3.65656
3.65552
3.65692
3.65121
3.65182