/*--------------------------------*- C++ -*----------------------------------*\
| =========                 |                                                 |
| \\      /  F ield         | OpenFOAM: The Open Source CFD Toolbox           |
|  \\    /   O peration     | Version:  v1612+                                |
|   \\  /    A nd           | Web:      www.OpenFOAM.com                      |
|    \\/     M anipulation  |                                                 |
\*---------------------------------------------------------------------------*/
FoamFile
{
    version     2.0;
    format      ascii;
    class       surfaceScalarField;
    location    "118";
    object      phi;
}
// * * * * * * * * * * * * * * * * * * * * * * * * * * * * * * * * * * * * * //

dimensions      [0 3 -1 0 0 0 0];

internalField   nonuniform List<scalar> 
46514
(
-4.68296e-09
2.74008e-09
4.99959e-09
-3.05672e-09
-2.52466e-09
1.88682e-09
6.80426e-10
-4.25786e-11
4.575e-09
-3.78148e-09
-1.23397e-09
4.40459e-10
-2.40808e-09
-2.13359e-09
8.70663e-10
3.671e-09
-3.08714e-09
-9.19788e-10
8.81703e-09
-4.8101e-09
-1.68046e-09
-2.00969e-09
8.63165e-10
2.82698e-09
5.83959e-09
1.36463e-09
-8.0028e-09
7.98589e-10
2.70265e-09
-9.16232e-10
-1.73593e-09
-5.04826e-11
6.52627e-09
4.30755e-09
-6.07213e-09
-4.7617e-09
2.74477e-09
1.44282e-08
-6.80386e-09
-1.03691e-08
5.08795e-09
4.21615e-09
-1.48629e-09
-7.81781e-09
-1.09462e-08
1.0162e-08
1.16915e-08
-1.09072e-08
4.33323e-09
-2.56031e-09
-1.90448e-09
1.3155e-10
-3.63518e-09
-1.13031e-09
-3.33107e-09
8.09656e-09
2.34511e-09
-2.70935e-09
8.67851e-10
-5.03574e-10
1.93065e-09
-2.88886e-09
1.02519e-09
-6.69917e-11
-4.13402e-09
2.13098e-09
3.93369e-09
-3.14419e-09
1.0333e-09
-7.50616e-09
9.61706e-09
-1.34191e-08
-2.05171e-09
1.23267e-08
3.97192e-09
-2.58305e-09
-3.26294e-09
1.87408e-09
3.11051e-09
3.83376e-09
-2.23035e-09
-4.71393e-09
2.36104e-09
1.02818e-09
3.05564e-09
-6.44486e-09
-3.61804e-09
-3.58568e-09
2.05953e-09
5.14419e-09
-7.5143e-09
5.59093e-10
8.49781e-09
-1.54259e-09
-8.57254e-10
-1.54481e-09
2.39242e-09
9.64229e-12
-4.94194e-09
6.83021e-10
-3.05489e-09
-4.32193e-09
5.20011e-09
9.65048e-09
-1.05286e-08
-5.11292e-09
1.22965e-08
1.0439e-08
-1.76226e-08
-1.16576e-09
-5.93487e-09
-4.13662e-10
-6.10603e-09
2.97173e-09
4.51521e-09
-1.38091e-09
-2.49526e-09
-2.98313e-10
2.3357e-09
4.57869e-10
-2.46303e-09
1.69317e-09
9.18377e-10
-1.48509e-10
1.79219e-09
7.3682e-09
-7.28232e-09
-1.87806e-09
-3.53457e-09
3.88965e-09
2.53544e-09
-2.89053e-09
6.15976e-09
-6.20675e-10
-1.84576e-09
-3.69331e-09
4.11162e-09
-1.31563e-10
3.36096e-10
-4.31615e-09
4.37579e-09
-1.08135e-09
-3.25833e-09
-3.61091e-11
-1.15602e-09
-1.15502e-08
1.08292e-09
1.16233e-08
3.69172e-09
2.39708e-09
-5.96027e-09
-1.28531e-10
3.0563e-09
-5.19146e-09
-1.42615e-09
3.56131e-09
6.10171e-09
2.55079e-09
-9.29076e-10
-7.72343e-09
-4.35559e-09
-2.86153e-09
-8.84741e-10
8.10186e-09
1.37352e-10
4.14799e-09
-6.62754e-09
2.3422e-09
3.39599e-09
9.74243e-10
-9.59983e-10
-3.41024e-09
-5.71234e-10
-6.03289e-09
7.90798e-09
-1.30385e-09
1.18085e-09
-3.37586e-09
-2.81234e-09
5.00735e-09
-3.1025e-09
7.12217e-09
-1.12339e-09
-2.89626e-09
9.24672e-10
4.00402e-10
2.73451e-09
-4.05958e-09
4.57737e-09
2.92635e-09
-2.96473e-09
-4.53899e-09
-4.07333e-09
1.84775e-09
-1.12517e-09
3.35075e-09
-2.58188e-09
-3.63963e-09
4.87111e-09
1.35041e-09
-3.35454e-09
2.70731e-09
-1.09145e-09
1.73869e-09
4.29384e-09
4.07883e-09
-2.23436e-09
-6.13831e-09
3.65419e-09
4.66569e-09
-8.61988e-10
-7.45789e-09
-4.46794e-09
3.87302e-09
3.11141e-09
-2.51649e-09
7.27311e-10
2.51721e-09
-1.33319e-10
2.4197e-09
-1.32119e-09
-4.01978e-09
2.92128e-09
-4.7887e-09
2.82584e-09
2.18584e-09
-2.22981e-10
-2.28216e-09
-4.8742e-09
2.13644e-10
-2.41065e-09
1.77038e-09
2.39636e-09
-1.75608e-09
-1.72896e-09
7.42565e-10
-5.74849e-10
1.56125e-09
6.38596e-09
-1.12683e-09
1.6649e-09
-6.92404e-09
-1.03335e-08
1.21258e-09
2.60121e-10
8.86083e-09
-9.50541e-10
1.816e-09
-6.55175e-09
5.68629e-09
-4.57404e-09
-2.94541e-09
7.25259e-09
2.66863e-10
4.30455e-09
-4.49723e-09
-2.20326e-09
2.39593e-09
-9.95919e-10
3.94548e-09
-3.06307e-09
1.13511e-10
-2.46771e-09
-2.71291e-09
5.21595e-09
-3.53213e-11
-6.91801e-10
-1.56164e-09
2.1747e-09
7.87439e-11
1.54093e-09
1.80302e-09
-1.55851e-09
-1.78542e-09
-2.11089e-09
2.73808e-09
2.63274e-09
-3.25993e-09
-2.15047e-09
1.05632e-09
4.28647e-09
-3.19231e-09
-1.21784e-09
-2.0789e-09
6.00506e-11
3.23669e-09
-2.48153e-09
3.33258e-09
-9.54499e-10
1.0344e-10
-3.18553e-09
4.63018e-09
-6.76899e-09
5.32434e-09
-2.61656e-09
6.38963e-11
-3.26145e-09
5.81412e-09
4.5338e-09
2.20627e-09
-6.67624e-09
-6.38417e-11
5.66739e-09
-2.14574e-09
-3.60567e-09
8.4023e-11
-6.66856e-10
5.67214e-10
-3.49867e-09
3.59831e-09
5.79438e-09
-3.48079e-09
2.986e-09
-5.2996e-09
-5.44749e-09
8.24802e-10
-1.46928e-09
6.09197e-09
6.70664e-09
-1.27779e-09
-3.03479e-09
-2.39406e-09
-2.23491e-09
6.05485e-09
-3.85184e-09
3.18841e-11
-1.40133e-09
-1.91565e-09
7.66293e-12
5.48589e-09
-5.23018e-09
1.92282e-09
-2.17854e-09
6.54091e-09
1.83413e-09
-2.88915e-09
5.27759e-09
8.46203e-10
-2.58132e-09
-3.54247e-09
-1.66049e-09
4.58256e-09
-3.01659e-09
9.45238e-11
-8.86466e-10
-8.89703e-10
4.19186e-09
-2.41569e-09
-3.79382e-09
3.75231e-09
1.84277e-09
-1.80125e-09
2.2667e-09
8.45735e-09
-7.94431e-09
-2.77974e-09
6.50092e-09
-5.52476e-09
5.19105e-09
-6.1672e-09
3.05391e-09
9.9935e-10
2.37437e-09
-6.42763e-09
-4.26932e-09
2.40985e-09
-7.21854e-10
2.58133e-09
3.13114e-09
1.0163e-09
-1.35544e-09
-2.792e-09
1.39326e-09
2.4107e-09
-3.69115e-09
-1.1279e-10
1.75389e-09
4.44774e-09
-3.95873e-09
-2.24291e-09
2.28496e-09
7.97188e-10
-1.14141e-09
-1.94074e-09
1.00349e-08
-1.66818e-09
-6.44528e-09
-1.92145e-09
3.32451e-09
-9.68614e-10
2.01747e-09
-4.37337e-09
6.18401e-09
5.44846e-09
-7.39945e-09
-4.23302e-09
-2.18434e-09
-7.87735e-10
2.95983e-09
1.2245e-11
-7.43808e-09
2.09191e-09
1.61999e-09
3.72618e-09
-1.16619e-09
-7.52573e-09
7.52617e-09
-7.71274e-09
-4.80954e-12
6.55135e-09
2.83235e-09
-5.9692e-09
3.20921e-09
-7.23512e-11
2.15781e-09
-7.28894e-10
-1.49739e-09
6.84943e-11
2.88526e-09
4.41647e-09
8.92231e-10
-8.19396e-09
-3.51504e-09
4.4259e-09
-4.51585e-09
3.60499e-09
-6.14984e-09
5.55434e-09
-5.51053e-09
4.6494e-09
-1.73102e-09
5.33534e-11
2.05653e-09
1.73783e-09
-1.71708e-09
-2.07728e-09
4.02454e-09
-3.96083e-09
5.53244e-11
-1.19038e-10
7.6281e-09
4.07913e-09
-6.77747e-09
-4.92976e-09
2.53935e-09
4.35991e-09
-6.83496e-09
-6.43011e-11
9.91102e-09
-6.73955e-09
-3.28886e-09
1.174e-10
-4.2202e-10
2.95183e-09
1.76402e-09
2.42364e-09
-4.85229e-09
2.45617e-09
-2.75203e-11
1.858e-09
2.24425e-09
-3.92942e-09
-1.72825e-10
1.86231e-09
-2.16965e-09
3.86026e-10
-7.86788e-11
-2.41578e-09
8.78092e-09
-1.67177e-09
-4.69337e-09
2.13585e-09
1.83672e-09
-3.79758e-09
-1.74984e-10
5.03466e-09
-6.90688e-09
4.66501e-09
-2.79279e-09
1.27925e-09
3.13113e-09
-4.38682e-09
-2.35667e-11
3.55952e-09
-4.25244e-09
3.45171e-09
-2.75878e-09
4.13808e-09
-1.79141e-09
-2.54075e-09
1.94083e-10
2.32046e-09
9.30134e-10
-7.94542e-09
4.69483e-09
-4.91217e-09
5.19575e-09
6.178e-09
-6.46158e-09
-6.73521e-09
-1.84502e-10
3.49942e-09
3.42029e-09
-4.31489e-09
1.05188e-09
3.23966e-09
2.33547e-11
-3.73846e-09
4.22031e-09
-6.01539e-10
1.19694e-10
1.29897e-09
-4.65562e-09
-2.61392e-10
-7.93125e-09
4.26114e-09
4.59511e-09
-9.24992e-10
1.42596e-09
-3.85606e-09
2.62027e-09
-1.90168e-10
-1.03322e-09
-2.01194e-09
2.95686e-09
8.83026e-11
7.55604e-10
-1.65354e-09
-3.98968e-09
4.88762e-09
-4.56089e-09
-6.75924e-09
5.60189e-09
5.71823e-09
-2.93447e-09
1.21369e-09
-7.64457e-10
1.34103e-09
-5.57123e-09
4.25598e-09
-2.57832e-11
-2.71909e-09
-3.27312e-09
5.79959e-09
1.92623e-10
-1.47286e-09
2.14652e-09
-3.61684e-09
2.94319e-09
-3.64738e-09
5.48662e-09
-1.91272e-09
7.34792e-11
-1.12653e-09
-1.73507e-09
2.78536e-09
7.62443e-11
-4.44107e-09
4.11698e-09
3.64182e-09
-3.31773e-09
1.11517e-09
8.75768e-09
-3.82148e-09
-6.05137e-09
1.51948e-10
-7.34856e-09
2.66041e-09
4.53619e-09
1.53118e-09
-2.82627e-09
5.40672e-09
5.45866e-09
-2.49939e-09
-3.04409e-09
8.48217e-11
3.56144e-09
1.14131e-09
-4.49546e-09
-2.0729e-10
-6.99319e-09
8.71885e-09
-4.77486e-09
3.04921e-09
-4.14153e-09
1.4782e-09
-1.26415e-09
3.92748e-09
9.19887e-10
7.32946e-09
-2.86765e-09
-5.38169e-09
2.48845e-09
-7.25363e-09
3.29232e-09
2.36818e-09
-5.47884e-09
3.34206e-09
-2.31404e-10
1.88475e-09
1.31245e-09
-3.04232e-09
-1.5488e-10
3.97233e-09
3.81508e-09
-2.94072e-09
-4.84668e-09
5.83295e-09
-4.16503e-09
-1.91205e-09
2.44133e-10
-1.3629e-09
5.63877e-10
8.38161e-10
-3.91345e-11
5.8461e-09
6.72893e-09
-5.68454e-09
-6.89049e-09
-2.37701e-09
4.41712e-09
4.71724e-10
-2.51184e-09
4.57634e-09
2.14506e-09
-2.1464e-09
-2.68234e-10
2.9259e-11
-5.47976e-09
5.71874e-09
-4.19504e-09
1.93074e-09
-3.51594e-09
5.78023e-09
8.27154e-09
-2.74844e-09
-1.89801e-09
-3.62509e-09
2.69211e-09
1.24299e-09
-3.98176e-09
4.66524e-11
-5.11539e-09
5.15812e-09
3.75623e-09
-3.79895e-09
-1.68473e-09
-4.71215e-10
3.54233e-09
-1.38639e-09
-2.82536e-09
1.24543e-09
-1.04805e-10
9.22477e-10
3.35183e-09
-6.66353e-09
2.38922e-09
5.39843e-09
-4.64164e-09
-6.9689e-09
6.21212e-09
-1.86515e-09
-3.54346e-09
3.73761e-09
1.671e-09
3.34408e-09
1.66552e-09
-4.9996e-09
-9.99436e-12
-4.43312e-09
3.24671e-09
-1.68937e-09
2.87578e-09
3.28254e-09
-4.93516e-09
-2.78051e-09
1.5374e-09
4.78448e-09
-4.70543e-09
-1.61646e-09
-1.72878e-11
-5.74457e-09
7.29926e-09
-2.05141e-10
3.21863e-09
4.05624e-09
-7.06972e-09
4.7879e-09
-6.68399e-09
2.01822e-09
-1.22125e-10
5.51334e-09
-4.7043e-09
-5.11839e-09
4.30935e-09
3.74159e-09
2.24133e-09
-1.84389e-09
-4.13903e-09
-2.93453e-09
1.24264e-09
6.1886e-09
-3.43568e-09
-2.68902e-09
1.49287e-09
-2.0739e-09
2.05089e-09
-1.46986e-09
3.05753e-09
3.7025e-09
-6.68595e-09
-7.40731e-11
5.16983e-09
-4.16017e-09
1.19295e-09
-2.20261e-09
-8.41745e-09
3.37953e-09
-5.40194e-09
1.04399e-08
2.21483e-09
-6.8495e-09
6.06288e-11
1.44216e-09
-3.79398e-09
4.56666e-09
1.3813e-09
-4.46077e-09
3.29621e-09
-2.16738e-10
-2.26134e-09
-2.89924e-09
5.04183e-09
1.18733e-10
-2.66857e-09
4.14697e-09
1.65206e-10
-1.64361e-09
-4.91986e-09
-2.92373e-09
4.89182e-09
2.95176e-09
-1.14631e-09
2.79436e-09
-1.71262e-09
6.46107e-11
-2.12641e-09
7.04632e-09
-5.16466e-09
2.44747e-10
-5.69366e-09
2.31982e-09
2.29234e-09
1.08151e-09
-8.10702e-09
1.63433e-09
4.55648e-09
1.91622e-09
-4.02625e-10
-1.62946e-09
2.08573e-09
-5.36396e-11
-4.64584e-09
-3.56741e-09
2.11075e-09
6.1025e-09
-1.15945e-09
-3.80285e-09
-2.67876e-10
1.98089e-09
-5.18073e-09
-4.67808e-10
3.66766e-09
5.48003e-09
1.4539e-09
-3.16678e-09
-3.76715e-09
1.65698e-09
-5.03779e-09
6.30617e-09
-2.92535e-09
9.88424e-09
4.06107e-09
-3.53025e-09
-1.04151e-08
-3.45869e-09
2.84511e-09
-4.82176e-09
5.43532e-09
-5.95501e-10
-3.25738e-09
6.49073e-09
-2.63785e-09
8.43115e-09
-3.06103e-09
-2.51804e-09
-2.85209e-09
7.86136e-09
-5.40763e-09
-6.72171e-09
4.26798e-09
-3.47703e-09
1.25893e-09
2.2886e-09
-7.04888e-11
4.34773e-09
-2.88337e-09
-1.48696e-09
2.26022e-11
-2.9927e-09
-9.1981e-10
2.40039e-09
1.51213e-09
-2.73121e-09
3.27456e-09
2.30808e-09
-2.85142e-09
-3.11984e-09
-3.68437e-09
6.82428e-09
-2.00677e-11
3.6433e-09
-3.04729e-09
9.65037e-10
-1.56104e-09
-4.99865e-09
3.60422e-09
-1.75629e-09
3.15073e-09
-3.39165e-09
-2.48427e-09
-2.1378e-09
8.01372e-09
5.22109e-09
-4.46367e-09
-4.14907e-09
4.13959e-09
-4.61598e-10
-6.19643e-09
2.51843e-09
-4.57201e-09
1.22283e-09
3.39989e-09
-5.07064e-11
-3.79898e-09
3.36656e-09
4.52796e-09
-3.39076e-09
8.5633e-11
3.12241e-09
-1.21461e-09
-2.05546e-09
1.47668e-10
-4.71952e-10
-1.8844e-09
1.2915e-09
1.06485e-09
2.98381e-09
-1.75903e-09
2.46694e-09
-3.56377e-09
-5.07056e-09
-1.87781e-09
1.05122e-08
-3.68856e-09
-2.70913e-09
2.83392e-09
-6.17355e-09
2.87507e-09
-1.79036e-09
5.08884e-09
4.10302e-09
-2.6657e-09
-1.4341e-09
-3.20874e-12
3.56416e-10
1.60613e-09
-4.57874e-09
2.6162e-09
-1.26074e-09
7.74124e-10
-4.76969e-09
5.2563e-09
2.68851e-09
4.25192e-10
-4.37443e-09
-1.69196e-09
-3.48174e-09
1.53121e-09
3.64249e-09
2.58944e-09
1.63493e-09
-1.15391e-10
-4.80677e-09
4.6607e-09
1.96573e-09
-1.81965e-09
-2.0281e-09
-2.24444e-09
4.19901e-09
7.35217e-11
-4.29086e-09
-4.13109e-09
2.18377e-09
-8.52929e-10
1.20249e-09
-2.53329e-09
5.07914e-10
-1.51918e-09
2.02877e-09
-1.0175e-09
-4.11351e-09
4.56147e-09
-5.74081e-10
1.26123e-10
4.18999e-09
-4.21612e-09
-4.74926e-09
4.77539e-09
3.5463e-09
6.15362e-09
5.07212e-10
-1.02071e-08
-5.84565e-09
-2.72669e-09
3.5737e-09
4.6771e-09
4.7848e-09
-5.58326e-09
-3.87864e-09
-4.97031e-09
8.42504e-11
-3.71688e-10
5.25775e-09
-9.97803e-10
3.38491e-09
1.78256e-09
-4.16965e-09
4.25075e-09
2.05953e-09
-6.97262e-09
6.62342e-10
-3.69905e-10
-2.12143e-09
1.16718e-08
-9.18047e-09
-4.07733e-09
1.54738e-09
-1.51695e-09
-1.3804e-09
-1.09328e-09
6.07038e-10
1.86664e-09
-1.96043e-09
7.97344e-10
-2.26709e-09
-5.767e-09
6.58349e-09
-4.89381e-09
1.89355e-09
-7.46006e-09
5.74711e-09
-1.80596e-10
-2.85365e-09
-2.10733e-09
2.45086e-10
-1.61534e-09
-2.40045e-09
3.97152e-09
4.42814e-11
-4.42035e-09
2.9181e-09
-1.13093e-10
1.29375e-09
1.16968e-09
4.33227e-09
-6.79569e-09
2.88783e-09
5.60856e-10
-2.15493e-09
1.4569e-09
3.26719e-09
-2.77642e-09
-1.94768e-09
3.05909e-09
-4.30988e-09
4.44033e-09
-3.18954e-09
4.0055e-09
-6.40592e-09
-3.74199e-09
6.14241e-09
3.84541e-09
-1.93872e-09
1.61453e-11
4.23425e-09
2.94996e-10
-1.59715e-09
-2.9321e-09
3.9613e-09
-7.30692e-09
-1.16222e-10
3.46185e-09
-4.44085e-09
3.36432e-09
3.61928e-09
-2.54276e-09
-3.17481e-09
7.69474e-09
-5.14435e-10
2.56925e-09
4.06974e-09
-3.60553e-09
-3.03345e-09
1.91386e-09
-4.0535e-09
9.73378e-09
-7.59414e-09
2.81299e-09
9.82117e-10
-7.96152e-10
-2.99896e-09
-6.15391e-09
4.12105e-09
2.15367e-09
-1.20806e-10
-2.90447e-09
5.4907e-09
-2.68e-09
9.37744e-11
-1.2517e-09
2.1618e-11
1.02976e-09
2.10497e-09
-3.04161e-09
-9.31285e-11
-9.29123e-10
-4.82994e-09
-1.3665e-09
7.12557e-09
5.33787e-09
-1.38035e-09
-2.14444e-09
-1.81308e-09
-1.52517e-09
4.23066e-09
-4.25622e-09
1.55073e-09
-3.46384e-09
5.54804e-09
-2.40702e-09
3.22812e-10
-4.71255e-09
4.32609e-09
-3.07737e-09
3.49333e-09
-4.5351e-09
-2.70025e-09
3.74202e-09
-3.95686e-09
-2.09173e-09
5.94259e-09
1.0599e-10
1.07269e-09
1.98538e-09
-2.88773e-09
-1.70342e-10
-1.14056e-08
3.17326e-09
2.05881e-09
3.76531e-09
-6.40965e-09
-1.57524e-09
4.21958e-09
-2.5912e-09
-1.56047e-09
-2.03351e-09
6.18518e-09
-5.17682e-09
-3.53494e-09
5.52734e-09
3.18443e-09
-3.13978e-09
1.82525e-09
1.41847e-09
-1.0393e-10
-1.62614e-09
-2.90655e-09
4.37869e-09
1.54e-10
-3.10723e-09
3.95615e-09
-1.01344e-09
1.64515e-10
4.09915e-09
-1.02932e-09
-3.02169e-09
-4.81438e-11
-2.43182e-09
3.09204e-09
-4.76887e-09
4.10866e-09
4.53438e-09
-1.77387e-09
-6.93306e-09
4.17255e-09
-1.54466e-09
4.90992e-09
-1.18845e-09
-2.17681e-09
-3.55003e-09
2.1277e-09
1.50906e-09
-8.67112e-11
3.22807e-09
-9.51133e-10
-3.82159e-09
-5.06374e-11
-1.91528e-11
-4.10622e-09
4.17601e-09
-7.43616e-10
-8.93591e-09
3.52561e-09
7.17982e-09
-5.80923e-09
-3.15106e-09
1.78047e-09
-1.95264e-09
4.58744e-09
-2.63894e-09
4.1401e-12
1.86304e-09
-2.42508e-09
2.66595e-09
-2.10391e-09
-1.96752e-09
6.413e-10
5.30037e-09
-3.97415e-09
-1.05804e-08
2.84641e-09
5.32304e-09
2.41095e-09
-4.27623e-09
-2.17108e-09
6.3588e-09
8.85076e-11
2.3357e-09
-5.87717e-09
3.60201e-09
-6.05351e-11
-4.70829e-09
4.98433e-10
-6.63722e-11
-7.15215e-09
4.61553e-09
4.34662e-09
-1.81001e-09
6.1835e-09
-2.94115e-09
3.71358e-09
-6.95592e-09
-3.66621e-09
2.31174e-09
-3.0685e-09
4.42298e-09
3.3422e-09
-5.825e-09
5.37462e-09
-2.89181e-09
-2.57282e-09
8.71501e-09
-2.79999e-09
-2.51399e-09
-1.17996e-09
3.64583e-09
4.81262e-11
2.4129e-09
-6.23291e-09
3.90125e-09
-8.12454e-11
-1.43334e-09
-3.08404e-09
4.44404e-09
7.33478e-11
-4.75789e-09
5.18483e-09
9.54371e-10
4.59476e-09
-4.80292e-09
1.70134e-10
3.80247e-11
3.03512e-09
-4.09974e-09
2.87393e-09
-1.80931e-09
2.05199e-09
3.53968e-09
-7.83309e-11
3.46329e-09
1.07413e-09
-4.53704e-09
-3.72558e-13
1.97603e-10
-5.50649e-09
8.29271e-09
-4.50084e-10
-1.94988e-09
2.35901e-09
4.09482e-11
3.86227e-09
1.77186e-09
-5.52874e-09
-1.05388e-10
-6.37224e-09
4.37974e-09
7.04755e-09
-5.05505e-09
-3.14686e-09
-2.07498e-09
4.50313e-11
-4.14587e-09
-7.01313e-10
1.91271e-09
-2.22179e-09
-2.50169e-11
6.47356e-09
1.20164e-09
1.46958e-09
-9.14479e-09
2.69101e-09
-9.86084e-10
-1.82873e-09
1.23801e-10
6.2666e-09
-6.04405e-09
-1.58155e-09
1.359e-09
1.41086e-09
-4.09779e-09
2.67077e-09
1.61654e-11
3.31932e-09
5.84526e-09
4.21351e-09
1.33417e-09
-1.83417e-09
-3.71351e-09
-2.45776e-09
1.47021e-09
-6.95467e-10
1.68305e-09
-6.28023e-09
4.88283e-09
-5.20082e-09
6.59821e-09
-1.88794e-09
-4.45189e-09
5.95984e-11
-4.57026e-09
6.43162e-09
1.9063e-10
1.25579e-09
3.03533e-09
-4.21174e-09
-7.93812e-11
2.10595e-09
-1.99486e-09
-3.18398e-09
3.0729e-09
-1.02483e-09
2.30999e-09
-1.31746e-09
3.2297e-11
-3.12825e-09
-4.09017e-09
8.43818e-10
6.37459e-09
-3.36733e-09
-6.48295e-09
7.23646e-09
2.61382e-09
-1.16902e-09
1.96775e-09
-8.91541e-10
9.28126e-11
-5.07411e-10
-2.2076e-09
4.64304e-11
2.26563e-09
5.03079e-09
-7.1888e-09
-1.07619e-10
-5.02836e-09
2.11961e-10
1.46186e-09
6.06479e-09
-1.8053e-09
-4.37465e-09
1.15152e-10
3.1396e-09
2.29778e-09
-5.39732e-09
-4.0056e-11
1.69051e-09
-4.67518e-09
-5.65355e-10
-6.32701e-11
-4.65216e-09
4.54422e-09
1.71222e-10
1.93175e-09
-9.41767e-09
4.99343e-09
2.49248e-09
3.47337e-09
7.40222e-09
-8.0626e-09
-2.2078e-09
2.72191e-09
-4.29799e-09
3.78388e-09
1.91073e-09
-5.14319e-09
2.19629e-09
1.03617e-09
3.55495e-09
-4.33384e-09
-2.17029e-10
1.69978e-09
-4.4498e-09
2.92207e-09
-1.72048e-10
3.9413e-09
2.08873e-09
-8.08926e-10
-1.61424e-09
1.50181e-09
-3.86617e-09
3.97861e-09
3.95283e-09
-1.81742e-09
-2.17271e-09
3.72942e-11
1.5277e-09
-2.72094e-09
5.13454e-09
1.51703e-09
-6.14552e-10
-8.92349e-10
-1.01244e-11
-3.15464e-09
1.0307e-08
-5.0182e-09
-2.13416e-09
-7.20817e-10
-1.1233e-09
1.76781e-09
7.62953e-11
-5.22284e-09
-1.83993e-09
6.74787e-09
3.14903e-10
1.81404e-09
1.28885e-09
-3.10646e-09
3.57758e-12
-4.92133e-09
9.32041e-10
-6.74376e-11
4.05674e-09
-2.72238e-09
-3.75881e-09
-4.50748e-11
4.89277e-09
7.3845e-09
-7.1054e-09
-5.17186e-09
3.60507e-09
-5.89449e-09
1.65277e-09
6.36648e-10
3.15198e-09
-1.99826e-09
-1.17049e-09
1.67716e-11
2.53699e-09
1.88193e-09
2.51753e-09
-6.93645e-09
3.28321e-09
4.33983e-09
-5.08606e-09
-6.65306e-10
1.47427e-09
-3.07173e-09
2.26278e-09
7.047e-09
-2.43018e-09
-4.69387e-09
7.70506e-11
2.43211e-09
-3.31073e-09
8.96575e-10
-1.79473e-11
2.79459e-09
1.12041e-09
-3.68619e-09
-2.28803e-10
1.04529e-10
-4.05528e-09
6.95556e-09
-3.00481e-09
4.37147e-09
4.57505e-09
-8.67864e-09
-2.67874e-10
-8.04648e-10
-3.33285e-09
1.32814e-09
2.80936e-09
2.43783e-09
-8.66279e-10
8.54227e-11
3.20618e-09
1.28526e-09
3.65309e-11
3.42271e-09
-4.64915e-09
1.41837e-09
-1.91932e-10
5.30711e-09
-2.06609e-09
1.81696e-10
3.18826e-09
-1.01985e-08
2.09805e-09
-2.22396e-09
-3.85495e-10
2.58362e-09
2.5835e-11
-7.08319e-09
1.78416e-09
5.42579e-09
-1.26758e-10
9.57733e-09
3.58622e-09
-2.9263e-09
-1.02372e-08
-1.8925e-09
2.07077e-09
-6.8972e-09
-8.93689e-09
-1.78034e-09
1.64723e-09
-1.80558e-09
7.14234e-09
-2.03277e-09
-3.30399e-09
-2.72872e-09
2.44959e-09
-5.84711e-09
6.12624e-09
1.14106e-09
3.7331e-09
-7.36084e-10
1.86136e-09
-3.32606e-09
-2.1179e-09
3.58262e-09
-1.25877e-09
-8.88448e-10
2.09089e-09
5.63414e-11
-7.22549e-09
4.3217e-09
3.29734e-09
-3.93549e-10
1.03088e-09
-4.21373e-09
7.55864e-09
-2.45874e-09
2.66572e-09
3.03146e-09
-3.23844e-09
-4.5141e-09
3.02364e-09
1.47771e-09
1.27598e-11
1.55023e-09
-2.92907e-10
5.02009e-09
-6.27741e-09
-1.85812e-09
2.76916e-09
1.18718e-10
3.86143e-09
-4.8949e-09
-1.39834e-09
4.86471e-10
-3.81868e-10
3.15945e-09
-3.26404e-09
-1.90198e-09
-2.17374e-09
2.20826e-09
1.86747e-09
1.17108e-10
2.03411e-09
3.97909e-09
-6.13031e-09
-1.8574e-09
7.73339e-10
1.17343e-09
-8.93702e-11
-2.98634e-09
1.24118e-09
2.78542e-09
-1.04025e-09
-1.84647e-09
7.96814e-10
1.0396e-09
1.0061e-11
2.36158e-09
-3.39714e-09
1.24231e-09
-2.06738e-10
3.06196e-09
-3.7169e-09
7.36529e-10
-8.15912e-11
-5.0229e-09
4.75098e-09
-3.88002e-09
4.15195e-09
1.36858e-09
2.22093e-09
-3.43076e-09
-1.58755e-10
1.60477e-09
-1.54026e-09
-6.06493e-10
5.41975e-10
1.54044e-09
3.78569e-09
-3.72136e-09
-1.94417e-09
-4.47129e-09
3.22377e-09
3.19169e-09
1.57611e-09
3.37712e-09
-7.03984e-11
3.70818e-09
1.20771e-09
-2.22504e-09
-2.69084e-09
7.57426e-10
2.59703e-09
-6.83704e-09
3.48259e-09
3.13689e-09
1.7654e-09
-9.52167e-12
-1.10934e-09
1.7972e-09
1.91554e-09
-2.60335e-09
-4.09567e-09
2.4316e-09
-2.21022e-09
3.8743e-09
-1.38475e-11
8.1733e-09
-5.65435e-09
-2.50511e-09
6.05965e-09
-2.00263e-09
-4.07087e-09
5.63861e-09
-3.77743e-09
-2.53383e-09
6.72647e-10
-3.10936e-09
-2.2253e-09
1.23899e-09
6.37443e-10
-2.34105e-09
-4.22118e-09
5.92478e-09
2.76688e-09
1.11353e-09
-3.79389e-09
-8.65264e-11
-1.70952e-09
2.82589e-09
-1.46883e-09
3.52454e-10
-7.74446e-10
3.72091e-09
-2.96567e-09
1.92053e-11
-1.52925e-09
3.49465e-09
-3.29342e-09
1.32803e-09
-3.46511e-09
-1.62543e-09
6.12143e-09
-2.82768e-09
8.09817e-09
-3.84418e-09
-1.42629e-09
-2.79798e-09
2.08151e-09
7.25558e-10
-9.07506e-12
2.13292e-09
-3.08875e-09
7.13933e-09
-4.73395e-09
4.61915e-09
-5.53446e-11
1.7015e-10
1.97469e-10
-4.02779e-09
-8.77977e-10
2.48216e-09
-3.74469e-09
1.41905e-09
-1.56523e-10
-4.53947e-09
2.92219e-09
-7.94754e-10
2.41204e-09
4.25394e-09
-1.28321e-09
2.82365e-09
2.15273e-09
-1.23354e-09
1.53502e-10
-1.877e-09
2.55675e-09
-9.92572e-10
3.12848e-10
-3.32442e-09
3.01611e-09
3.56998e-09
-3.26167e-09
-3.02442e-09
9.49128e-10
1.98308e-10
2.25706e-09
-6.48622e-09
-9.27783e-11
9.09028e-10
-5.1532e-09
4.31085e-09
-6.667e-11
3.12014e-09
-1.89031e-09
-1.32394e-09
9.41118e-11
1.30449e-09
-8.6326e-11
-2.87714e-09
-4.39993e-09
1.98187e-09
5.29521e-09
-4.08409e-09
3.31164e-09
-5.31739e-09
6.08984e-09
2.24178e-09
-2.53431e-09
-5.37694e-09
5.66947e-09
8.49222e-10
-3.07824e-09
2.26971e-09
-4.06898e-11
2.74172e-09
-2.04905e-09
1.56558e-10
1.98686e-09
9.77741e-10
-2.22873e-10
-3.46188e-09
1.34587e-09
2.11242e-09
3.59698e-12
-2.29404e-09
1.77018e-09
-3.5053e-09
4.02916e-09
2.93943e-09
2.11515e-09
-5.16902e-09
1.1445e-10
-3.85084e-09
2.79082e-09
1.1142e-09
-5.41738e-11
-2.85869e-09
-1.18091e-09
6.85681e-09
-2.81719e-09
-8.33852e-09
2.13436e-09
8.4698e-09
-3.57937e-09
4.03178e-09
-5.52528e-10
1.00126e-10
-8.44198e-09
-2.85871e-09
4.08538e-09
7.21531e-09
2.82613e-09
1.93087e-09
-1.7086e-09
-3.04839e-09
5.12171e-09
-4.76192e-09
2.32872e-09
-6.11877e-10
-4.2748e-09
5.6608e-09
-3.25233e-09
2.58233e-09
5.23967e-09
-4.56966e-09
3.17132e-09
-3.33525e-09
1.3346e-09
-1.17068e-09
-1.6913e-09
1.39182e-09
-1.53333e-09
1.83279e-09
6.9421e-10
-2.06803e-09
1.46343e-09
-8.96186e-11
-2.28146e-09
7.32759e-09
-6.45407e-09
1.40794e-09
7.01055e-09
2.3195e-09
-7.39018e-09
-1.93987e-09
-7.72026e-10
-1.72464e-09
2.39845e-09
9.82206e-11
-2.06996e-09
1.35536e-09
7.92479e-10
-7.78649e-11
-5.44888e-09
1.59698e-09
-1.72927e-09
5.58117e-09
-3.26131e-09
-2.55966e-09
2.77796e-09
3.04302e-09
5.82667e-10
3.49362e-09
-2.49816e-09
-1.57812e-09
-1.47426e-09
6.43411e-09
-4.49011e-09
-4.69741e-10
-6.51333e-09
-6.40238e-10
4.37208e-09
2.78148e-09
-8.81251e-09
3.09983e-09
4.87368e-09
8.38996e-10
-1.49605e-09
-6.64673e-10
-3.92032e-11
-3.73675e-09
-4.04041e-09
5.33355e-09
2.44361e-09
-4.39672e-09
2.82072e-09
-2.89133e-09
4.46734e-09
-3.4815e-09
4.61597e-09
-8.44465e-09
7.31018e-09
-2.99883e-09
4.37445e-09
-1.46442e-09
8.88015e-11
3.55324e-09
-3.82286e-09
-1.89891e-09
2.16854e-09
1.18899e-09
-1.88161e-09
-2.81974e-11
-2.61065e-09
3.18609e-09
1.74503e-09
-5.8603e-09
-6.03935e-09
4.25047e-09
6.56652e-10
-7.08085e-09
-1.85874e-09
2.97913e-09
-1.16979e-09
4.94092e-11
-1.66473e-09
2.52207e-09
-1.00018e-09
1.4283e-10
3.95788e-09
-2.45266e-09
-1.43515e-09
-7.00658e-11
-3.91013e-09
2.58163e-09
2.26205e-09
-9.33537e-10
4.30397e-09
-3.44261e-09
-4.7715e-09
-3.29271e-09
5.20146e-09
-1.98412e-09
7.53791e-11
-2.69838e-09
-9.96163e-10
3.99871e-11
-9.39685e-10
-2.01382e-09
2.38008e-09
5.73429e-10
-1.58851e-09
-1.16422e-09
2.61693e-09
1.35811e-10
-7.94276e-10
-2.35027e-09
8.34408e-10
2.31014e-09
4.3064e-09
-2.31176e-09
-3.88335e-09
1.88872e-09
4.3627e-10
4.87652e-09
1.07425e-09
-6.38704e-09
-4.18709e-09
4.30587e-09
4.97934e-09
-5.09812e-09
-2.81382e-09
-4.1669e-11
2.09964e-09
2.64074e-09
-5.63874e-09
8.98373e-10
2.20715e-09
-1.49664e-09
-6.71175e-10
-3.93341e-11
-6.43512e-10
2.31801e-11
-6.96515e-09
-3.10628e-09
7.49862e-09
6.70021e-09
-2.48486e-09
9.10564e-11
-2.44039e-09
6.67863e-10
1.85247e-09
-7.99276e-11
-1.22032e-09
3.25147e-09
-2.16315e-09
1.32001e-10
5.01171e-10
1.35208e-09
-1.73495e-09
-1.18284e-10
-8.59522e-10
2.91603e-09
-2.11835e-09
6.18354e-11
-9.2238e-10
-1.01061e-09
-2.74383e-11
-8.00603e-10
-5.49976e-10
1.26252e-09
8.80567e-11
-3.4252e-09
-2.89817e-09
6.14364e-09
1.7974e-10
1.2716e-09
-2.41409e-09
1.22699e-09
-8.44947e-11
-1.38044e-09
-3.51498e-09
4.78968e-09
1.05743e-10
-3.69731e-09
2.97115e-10
-8.12956e-11
-1.275e-09
-8.76939e-10
2.04524e-09
1.06696e-10
-7.53607e-10
1.89035e-09
-1.24481e-09
1.08075e-10
4.46536e-09
3.23654e-09
-4.14046e-09
3.35557e-09
-4.95376e-09
4.38915e-09
-2.79096e-09
-3.11294e-09
-8.62142e-09
8.23703e-09
3.49732e-09
-6.11704e-09
-8.33929e-10
6.12344e-09
8.27523e-10
5.48585e-09
-2.18858e-09
-2.24335e-09
-1.05391e-09
-2.58652e-09
5.06758e-09
2.47736e-09
-4.95841e-09
4.06504e-09
-4.16315e-09
4.7469e-11
3.20101e-09
7.90048e-12
-2.42713e-09
-1.99339e-09
1.99442e-09
2.42611e-09
6.3366e-10
-2.83365e-09
3.40417e-09
-1.20419e-09
-6.42467e-09
3.87178e-09
-2.89961e-11
-2.25099e-09
3.53816e-09
2.6707e-09
-4.44057e-09
4.34118e-10
3.71286e-10
3.25551e-09
-5.60131e-09
3.10323e-09
-7.6757e-09
3.35473e-09
-2.66635e-09
6.98731e-09
-7.15029e-09
5.64017e-09
2.71177e-09
-9.08434e-10
2.25808e-09
1.96969e-09
1.12038e-09
-2.18323e-09
2.56968e-09
-1.50682e-09
-1.84996e-09
2.84138e-09
1.28966e-10
4.38645e-09
-2.79809e-09
-1.70584e-09
1.17489e-10
2.11032e-09
-1.34195e-09
-8.30453e-10
6.20827e-11
9.64587e-10
1.26814e-09
-1.22397e-10
3.03611e-09
-1.84161e-09
7.71006e-11
-2.30372e-09
-1.4421e-09
3.7017e-09
4.41219e-11
2.11344e-09
-9.51257e-10
-1.21753e-09
5.53406e-11
5.47454e-09
-2.96231e-09
-1.39701e-09
-1.11523e-09
-1.24623e-09
3.62457e-09
-2.46382e-09
8.54846e-11
1.55276e-09
-2.18102e-09
6.99648e-10
-7.13543e-11
8.69268e-10
-1.98451e-09
2.98475e-09
-1.8695e-09
-2.27164e-09
-1.00531e-09
1.56436e-11
1.32003e-09
2.45462e-09
-5.19195e-09
1.41731e-09
1.33447e-08
-9.48674e-10
-8.09105e-09
-4.30493e-09
-3.16732e-09
-2.6663e-09
1.7201e-09
1.11245e-08
1.70203e-09
-8.84078e-09
-3.98574e-09
-4.65055e-09
1.42887e-09
3.26587e-09
-4.41881e-11
9.12172e-10
1.2945e-08
-5.14312e-09
-8.71403e-09
-1.19098e-08
8.14294e-10
7.31801e-09
3.77751e-09
-5.1372e-09
4.17212e-09
8.69166e-09
-7.72658e-09
8.86298e-09
5.23402e-09
-9.36871e-10
-1.31601e-08
-9.42762e-10
7.12993e-10
-4.23816e-09
-5.27555e-09
-9.04132e-09
9.42807e-10
1.33741e-08
8.48314e-09
-7.50435e-09
-4.95023e-09
3.97144e-09
8.66511e-10
4.14127e-09
-1.25894e-08
7.58163e-09
-1.18536e-08
-8.42881e-10
4.71733e-09
7.9792e-09
-9.66116e-10
8.98535e-09
-1.32649e-08
5.2457e-09
-3.43769e-09
-5.83277e-09
9.97446e-09
-7.04e-10
6.20665e-09
-1.01353e-08
3.20775e-09
7.20953e-10
1.4833e-09
1.13297e-09
-2.58097e-09
-3.52897e-11
1.32286e-09
-1.96572e-09
7.25743e-10
-8.28866e-11
-2.60623e-09
8.29384e-10
-8.83013e-11
7.40122e-09
2.33835e-09
-2.90685e-09
-6.83272e-09
1.22493e-08
-8.3346e-09
9.04778e-10
-4.81949e-09
-9.49668e-10
-2.62521e-09
5.77274e-09
-2.19785e-09
8.30321e-09
-4.91693e-09
-7.29638e-09
3.91011e-09
-3.51988e-09
4.90456e-09
2.81749e-09
-4.20217e-09
-2.99559e-09
-1.23864e-09
5.07648e-09
-8.42252e-10
-2.04561e-09
5.72051e-09
-3.75371e-09
7.88024e-11
-3.83646e-09
8.98811e-09
2.35207e-09
-7.50371e-09
-4.02018e-09
-1.88821e-09
5.80376e-09
1.04628e-10
-4.22873e-09
7.82691e-09
-8.74575e-09
5.14758e-09
1.30013e-08
-4.22837e-09
-9.13612e-10
-7.85926e-09
1.59209e-09
-4.91943e-09
1.82594e-10
3.14475e-09
2.93104e-09
-2.69888e-12
8.60231e-09
-4.34317e-09
4.69622e-09
-2.83554e-09
2.48248e-09
-4.18494e-09
-7.82784e-09
1.29343e-08
-9.21474e-10
-4.08521e-10
-3.49078e-09
7.1252e-09
-3.22591e-09
-8.79943e-09
-4.16202e-09
5.08518e-09
7.87627e-09
8.89414e-09
-5.19411e-09
4.22212e-09
-7.92215e-09
9.06527e-09
-9.49996e-10
5.28323e-09
-1.33985e-08
-4.7948e-09
-8.17129e-09
7.87507e-10
1.21786e-08
-3.84294e-09
3.40472e-09
-3.09636e-09
-4.97963e-09
8.48651e-10
1.24342e-08
-1.20259e-09
-2.33536e-09
3.44715e-09
9.08016e-11
2.86076e-09
-4.57248e-09
-4.11447e-09
5.82619e-09
1.88248e-09
4.05159e-09
-7.79147e-09
1.95387e-10
-2.97214e-09
-7.68988e-11
4.31587e-09
-7.19075e-09
6.13325e-09
-3.25836e-09
-3.92186e-09
-7.99236e-09
7.31555e-09
4.59868e-09
7.5525e-09
8.63602e-10
-1.24244e-08
4.00835e-09
-2.21204e-10
1.51954e-08
-4.57532e-09
-1.03989e-08
-3.04109e-09
1.59073e-09
-4.95556e-09
-4.61757e-09
-7.52975e-09
1.13751e-08
7.72176e-10
-5.5196e-09
7.50822e-10
2.13822e-09
2.63056e-09
-4.48088e-09
2.81207e-09
7.72897e-09
-6.06015e-09
6.64768e-09
3.30779e-09
7.49106e-10
8.65254e-09
-5.40485e-09
1.13425e-10
-3.36112e-09
-1.10213e-08
7.58163e-09
-8.11091e-10
4.25077e-09
-4.66232e-09
1.84175e-10
-8.66716e-10
-4.1542e-09
1.25662e-08
-7.54524e-09
-2.59096e-09
-5.82456e-09
5.24072e-09
4.34499e-10
5.86537e-09
1.42997e-09
-7.72983e-09
-7.78907e-09
4.49291e-09
-3.15076e-09
6.44692e-09
2.94557e-09
-1.68867e-09
-2.40856e-09
1.15167e-09
-4.98128e-09
8.26165e-09
-7.152e-10
-2.56516e-09
-2.60098e-09
-4.43556e-09
4.33524e-11
-1.75287e-09
-6.92641e-10
2.42014e-09
2.53794e-11
7.86779e-09
-1.30158e-08
9.19298e-10
5.02924e-09
7.55991e-09
-8.50867e-09
-4.08048e-09
6.56869e-10
1.22814e-09
-1.75711e-09
-1.27886e-10
7.73881e-09
-1.123e-08
6.79214e-09
-3.30092e-09
4.24709e-09
2.09314e-09
-6.2967e-09
-4.35168e-11
1.77145e-09
-6.92662e-09
6.52375e-09
3.22196e-09
5.0473e-09
-3.79061e-09
-4.47865e-09
7.4192e-09
4.31787e-09
-8.40366e-10
-1.08967e-08
-8.47229e-09
7.49049e-09
4.91045e-09
-3.92864e-09
-4.15418e-09
-5.55827e-10
7.14917e-09
-2.43915e-09
-1.25135e-08
8.92192e-10
7.56755e-09
4.05377e-09
1.0504e-08
1.25617e-09
-7.41677e-09
-4.34343e-09
-7.75538e-10
-1.05265e-08
7.2673e-09
4.03479e-09
-3.93852e-09
-7.51678e-09
1.23312e-08
-8.75875e-10
4.93393e-09
7.68953e-09
-4.04139e-09
-8.58206e-09
-4.75354e-09