/*--------------------------------*- C++ -*----------------------------------*\
| =========                 |                                                 |
| \\      /  F ield         | OpenFOAM: The Open Source CFD Toolbox           |
|  \\    /   O peration     | Version:  v1612+                                |
|   \\  /    A nd           | Web:      www.OpenFOAM.com                      |
|    \\/     M anipulation  |                                                 |
\*---------------------------------------------------------------------------*/
FoamFile
{
    version     2.0;
    format      ascii;
    class       surfaceScalarField;
    location    "150";
    object      phi;
}
// * * * * * * * * * * * * * * * * * * * * * * * * * * * * * * * * * * * * * //

dimensions      [0 3 -1 0 0 0 0];

internalField   nonuniform List<scalar> 
37364
(
6.72673e-10
-4.51583e-09
-1.29492e-09
5.1381e-09
-1.7652e-09
2.01971e-09
1.7952e-09
-2.04963e-09
3.79057e-09
-1.42899e-09
1.2209e-09
-3.58264e-09
1.74171e-08
-2.84083e-08
1.38611e-08
-2.86987e-09
9.17559e-09
1.76761e-09
-1.31306e-09
-9.63011e-09
-2.16562e-09
6.23363e-09
5.10759e-09
-1.52574e-08
7.27864e-09
5.81319e-09
-1.53379e-09
-1.19561e-08
3.22243e-10
5.22317e-09
-1.45342e-08
8.98862e-09
2.90416e-09
-9.21376e-09
6.63178e-09
-3.26099e-09
-5.18908e-09
1.13541e-08
-7.96843e-09
9.93056e-09
-1.00947e-08
7.11454e-09
4.09241e-09
-7.86688e-09
-6.32028e-09
-6.90482e-09
-3.53696e-09
1.55598e-10
-9.33557e-09
-2.39578e-09
9.65236e-09
-8.79044e-09
7.39268e-09
-9.6329e-09
-6.7429e-09
8.83244e-09
8.79964e-09
-8.3118e-09
-1.58072e-09
2.41187e-09
1.32876e-09
-2.54461e-09
-8.41126e-09
3.91022e-10
1.05649e-08
-1.38793e-08
1.30751e-08
-1.74041e-09
-6.00184e-10
-1.05286e-08
-2.75059e-09
-1.97936e-09
-7.03209e-09
-6.09166e-09
5.06514e-09
1.41017e-08
1.26973e-09
1.10739e-08
-1.5398e-08
3.05432e-09
5.9437e-09
2.12231e-09
-6.79628e-09
1.02463e-09
1.70917e-08
-7.04247e-09
9.40998e-09
-2.44166e-09
1.15005e-08
-1.64509e-09
-1.59471e-08
-4.09181e-09
-3.8053e-09
1.54414e-08
-7.5443e-09
-6.21851e-09
5.14387e-09
-3.01718e-09
7.0968e-09
-6.95385e-09
-1.752e-09
7.94992e-09
1.08938e-08
3.12591e-09
4.53204e-09
1.56451e-08
4.0042e-09
1.50458e-08
-5.05243e-09
9.91369e-09
2.54432e-08
1.96783e-08
6.14909e-09
-5.68929e-09
8.15399e-09
3.27022e-09
1.48881e-08
-6.12041e-09
-1.97962e-09
9.05824e-09
1.81658e-08
8.37301e-09
1.50906e-08
1.16363e-08
-2.21698e-09
6.0455e-09
1.79009e-08
1.02836e-09
2.2385e-08
-1.50404e-08
1.87101e-08
-1.71261e-08
8.5678e-09
-4.03117e-09
1.25894e-08
5.50749e-10
-1.2592e-08
-5.0848e-09
9.78191e-09
-6.47012e-09
-2.76107e-09
5.84443e-09
-6.03637e-10
4.54112e-09
1.96726e-09
1.2445e-08
-9.07746e-09
2.87771e-09
2.16848e-09
-5.38433e-09
-1.62852e-08
4.29551e-09
-6.49373e-09
5.21234e-09
-3.01423e-09
-4.1532e-09
6.21009e-09
2.2386e-09
-4.77745e-09
3.49486e-09
-5.18754e-09
-3.35876e-09
-2.98567e-09
8.31169e-09
-5.43613e-09
1.47372e-09
5.93465e-09
-2.59577e-09
-9.83262e-09
2.35967e-09
-5.78243e-10
-1.27576e-08
7.86515e-09
2.2487e-10
1.10896e-08
4.18405e-10
4.15366e-09
7.94886e-09
-8.47841e-09
-3.62412e-09
-5.4707e-09
2.32734e-09
7.29701e-09
2.91167e-09
5.32763e-09
-2.90437e-10
-6.10419e-09
3.39153e-10
-2.71338e-09
-2.76437e-09
-8.8105e-09
1.67322e-09
-3.81192e-09
1.97715e-09
1.61535e-10
-2.24498e-09
3.10079e-09
-5.16659e-10
-3.68458e-09
-8.20969e-11
-2.94917e-09
6.71584e-09
-2.46653e-10
-8.33082e-10
-2.60485e-09
-1.91095e-09
-1.69111e-09
2.91872e-09
6.83329e-10
-3.72548e-09
2.20339e-09
4.43375e-09
1.31171e-09
-6.32105e-09
1.04852e-09
-3.07094e-09
-1.25764e-09
-1.65144e-09
3.77273e-09
-3.74934e-09
5.01584e-09
-1.51315e-09
2.54946e-09
-4.91445e-09
3.6767e-09
6.33538e-10
4.96583e-12
3.06175e-11
3.74047e-09
3.93432e-09
-2.57347e-09
-5.10131e-09
5.81037e-09
-6.63566e-10
-1.40634e-09
-1.8893e-09
4.61024e-09
3.08943e-09
1.98021e-09
6.4814e-11
1.48167e-09
2.21704e-09
-6.27216e-09
-6.54735e-09
9.06274e-09
-3.17894e-09
-1.0128e-08
5.0623e-09
-2.41877e-09
-1.21262e-09
4.34796e-09
-7.16553e-10
-3.82953e-09
1.21224e-09
1.98536e-10
-2.2366e-09
3.87291e-10
2.59065e-09
-2.61019e-09
-2.46309e-09
5.86072e-09
-5.08702e-10
8.21536e-09
-1.09449e-08
3.23827e-09
6.09095e-09
-3.10977e-09
1.60306e-10
5.54013e-09
6.83881e-09
-1.83726e-09
-6.00339e-09
1.00174e-09
3.39188e-09
5.1643e-09
-1.71742e-09
6.93899e-09
-1.96994e-09
-8.06466e-09
3.09559e-09
-1.05492e-08
5.45407e-09
8.50149e-09
-3.40635e-09
3.70734e-09
-7.31758e-09
-4.152e-10
3.14978e-09
-4.57187e-09
3.21085e-09
-5.59603e-09
4.3073e-09
-4.36909e-10
-1.63063e-10
2.02268e-09
7.73869e-09
-3.94454e-09
2.76838e-09
7.39189e-10
2.15394e-09
-2.88765e-09
-2.32807e-09
1.85728e-09
3.86262e-09
1.11539e-09
-2.93695e-10
-3.47287e-09
2.555e-09
3.68623e-09
-2.03553e-10
6.43495e-09
1.26526e-08
-7.68613e-09
6.30482e-10
-5.5969e-09
2.96059e-09
8.94052e-09
7.51492e-10
6.21114e-09
7.07568e-10
-9.56145e-09
2.64278e-09
7.33898e-10
7.6202e-09
-2.14291e-09
-4.88569e-09
-5.07344e-09
4.83208e-09
5.12707e-09
-7.23556e-09
3.05745e-09
-2.4237e-09
1.207e-10
-7.25843e-09
7.07262e-09
-6.77416e-09
2.66214e-09
1.22238e-09
2.27326e-09
-6.86418e-09
3.36858e-09
-6.76036e-09
5.55906e-09
3.24016e-09
-7.11504e-09
-3.36067e-09
-1.49205e-09
-3.41223e-10
7.82799e-09
-2.26199e-09
3.599e-09
2.2863e-09
-3.61203e-09
4.3786e-09
-4.69191e-10
-3.104e-10
-4.70803e-09
3.22249e-09
-3.35923e-10
1.07444e-09
-1.29507e-09
-1.64645e-09
1.8672e-09
-2.07957e-09
-1.4941e-09
4.64818e-09
-1.52436e-09
2.37903e-09
-1.68178e-10
5.4054e-10
1.98447e-09
2.92791e-09
-1.86153e-08
9.07296e-10
2.28684e-08
-5.16037e-09
-1.36207e-08
2.95451e-09
-7.949e-09
2.60469e-09
-1.92033e-08
1.33581e-08
3.24059e-09
1.53688e-08
-7.10464e-09
-2.04437e-08
1.21796e-08
-5.65145e-09
2.19275e-08
-1.97352e-08
-9.90157e-10
-1.72326e-08
1.41859e-08
-3.52555e-09
-1.1848e-08
-3.82977e-09
-6.04651e-09
-1.56337e-08
1.81547e-08
-2.27823e-08
1.07074e-08
-8.36875e-09
3.93274e-10
-2.91066e-08
5.93105e-09
-2.53884e-08
1.02318e-08
-1.82175e-08
8.34072e-09
-3.54997e-10
2.24479e-08
-2.42049e-08
1.19888e-08
1.28271e-08
-1.23242e-08
2.1945e-08
1.86552e-08
-7.79096e-09
-2.90817e-08
9.54701e-09
-1.50968e-08
-1.5301e-08
5.89435e-10
2.75387e-08
-6.9162e-09
-4.40409e-11
-1.77462e-09
-1.00261e-09
2.07313e-08
-1.85437e-08
5.02605e-10
-2.69023e-09
-2.00406e-08
1.20981e-08
2.86738e-08
-2.28634e-08
-1.28899e-08
1.57127e-08
-2.42288e-08
-1.71783e-08
-1.30533e-08
1.28819e-08
-6.74487e-09
8.51614e-09
-2.93604e-08
-1.52523e-08
2.79399e-08
-1.86775e-09
-1.50614e-08
3.96894e-10
-3.07741e-08
2.9424e-09
6.30893e-10
-4.87819e-09
1.30497e-09
3.35852e-09
-6.16099e-09
5.74484e-09
9.93649e-10
-5.41957e-09
7.78445e-09
-4.94212e-09
-9.0803e-09
1.50161e-08
-7.68068e-09
3.36948e-09
-1.90591e-10
-8.08781e-09
-8.01893e-10
-6.54888e-09
-1.32238e-09
1.76867e-09
-3.27023e-09
7.41913e-09
-5.91756e-09
-2.82844e-09
-1.95176e-09
-1.1863e-09
3.06548e-09
-4.70761e-09
3.68683e-09
-8.14336e-09
2.77531e-09
-4.58802e-09
-1.59697e-09
-1.78868e-09
2.61774e-10
-9.30445e-10
5.29212e-09
-3.20226e-09
1.34321e-10
-2.97278e-09
3.02764e-09
-3.53836e-09
3.48356e-09
7.80867e-09
-1.15358e-08
7.54345e-10
-4.70637e-09
-6.30952e-10
8.36499e-09
-4.59742e-09
7.69973e-09
-4.61102e-09
-1.66051e-09
-5.2642e-09
2.95634e-09
-1.00963e-08
2.54265e-09
-2.55223e-09
4.87768e-09
1.69536e-09
1.41125e-09
3.65157e-09
-6.75813e-09
-5.14064e-09
3.29767e-09
-4.24099e-09
-5.51066e-09
-4.68965e-09
-7.0672e-09
1.04938e-09
-2.85388e-09
-2.41841e-09
4.22299e-09
-2.77957e-09
-4.11999e-10
2.5362e-10
-5.88704e-09
-7.63263e-09
3.08917e-09
5.95474e-09
-2.26032e-09
-2.84342e-09
-2.52888e-09
4.85134e-09
-9.28734e-09
7.34553e-09
-4.75449e-09
7.88249e-09
-1.08743e-08
-1.22396e-08
1.75508e-08
5.56289e-09
-1.52367e-08
5.46728e-09
-1.10492e-09
3.26401e-10
1.96785e-08
5.9548e-09
-2.59599e-08
5.76991e-09
-2.06802e-08
-1.94881e-08
4.59626e-09
6.54449e-09
8.34727e-09
-1.71107e-09
-4.94175e-09
-1.28353e-08
-9.0945e-09
1.21238e-08
2.43793e-09
1.33659e-08
-5.92702e-09
1.29436e-08
-5.75225e-09
-8.90248e-09
7.76668e-09
9.7732e-09
-9.07685e-09
-2.24117e-08
1.10012e-08
1.79549e-08
-2.13986e-08
3.38721e-09
1.65032e-08
-8.82319e-09
1.55439e-08
-6.48099e-09
6.22855e-09
9.5811e-09
-9.32859e-09
9.77206e-09
-1.70572e-08
8.04188e-10
-5.72142e-09
-3.95826e-09
1.59083e-08
5.79783e-09
7.50687e-09
-3.53262e-09
1.20483e-08
3.33063e-09
1.60054e-08
5.55483e-09
-4.09771e-09
-1.74625e-08
1.46198e-08
-2.40029e-08
6.43289e-09
3.86827e-09
1.74716e-09
1.16268e-08
1.4349e-09
4.39821e-09
9.23157e-09
8.54512e-09
-8.63336e-09
4.48651e-09
4.68942e-09
-3.39038e-09
1.03278e-08
4.02162e-09
7.10071e-09
-3.38019e-09
-5.65285e-09
4.30038e-09
4.73268e-09
3.46784e-09
-1.30523e-08
6.20422e-09
4.11616e-09
-1.30421e-08
1.23938e-08
-4.50378e-09
6.60799e-10
-1.80988e-09
-4.93033e-09
-8.99232e-09
8.70333e-10
-5.3255e-09
-4.10862e-09
1.6127e-10
-7.9665e-09
1.19214e-08
-6.51135e-09
1.0973e-08
-6.86095e-09
-7.05797e-09
7.4076e-09
-4.16418e-09
-2.03596e-09
7.7216e-09
9.98387e-10
-1.40455e-08
1.05316e-08
-1.18023e-08
-4.41092e-09
-3.92358e-09
1.27655e-09
-5.14773e-09
-3.42734e-09
5.06449e-10
-3.01692e-09
8.43912e-09
-1.25884e-08
6.58432e-09
-2.06876e-09
-8.75725e-10
2.02431e-08
-1.34606e-08
5.32602e-09
-1.21085e-08
-2.09874e-08
-5.50455e-09
4.88445e-09
2.16076e-08
9.3147e-10
-1.09101e-08
-1.10086e-08
2.25658e-08
-1.06547e-08
-1.09796e-08
2.54681e-08
-2.0951e-08
1.80488e-08
1.1256e-09
1.36129e-08
-9.21682e-09
1.25443e-08
-1.2523e-08
9.19564e-09
1.88674e-08
-2.51699e-08
7.42807e-09
-1.32075e-08
1.20018e-08
-9.44248e-09
1.06482e-08
8.12548e-09
-1.7695e-08
3.52767e-10
3.52327e-08
-4.88018e-09
-1.25888e-08
-6.5198e-09
3.1653e-08
-2.27081e-08
-1.08318e-08
-2.52372e-08
-1.11119e-08
-7.45813e-09
-7.26032e-10
1.9296e-08
-6.20012e-09
-1.06817e-08
5.76993e-09
-2.01659e-08
-2.37095e-09
1.50786e-08
-1.60435e-09
-2.19257e-08
3.36418e-09
-1.22609e-08
1.28966e-08
-1.797e-08
1.73342e-08
-2.01061e-08
-7.53971e-09
1.97103e-08
-1.23892e-08
1.03144e-10
1.30483e-08
-2.29589e-08
9.84994e-09
-9.85091e-09
-1.85718e-08
1.85728e-08
-8.62295e-09
-3.45278e-09
-1.06715e-08
-2.19396e-09
-7.24063e-09
5.69134e-09
5.92308e-09
-2.14653e-08
8.35234e-09
-1.1284e-08
1.71084e-08
-2.18568e-08
-3.5587e-09
2.6971e-09
-6.23083e-09
-1.02019e-08
-3.01626e-09
1.55455e-08
3.44114e-09
9.6121e-09
-2.37637e-09
-1.06768e-08
-2.68939e-09
-8.31892e-09
1.01752e-08
2.16838e-08
-9.42993e-09
-1.3011e-08
7.57159e-10
1.12925e-08
1.46687e-09
-9.31818e-09
4.01467e-09
1.45065e-09
-1.16283e-08
6.16301e-09
-1.98185e-08
2.03416e-08
1.6894e-08
1.46783e-08
-3.59983e-10
-4.58785e-09
-9.73047e-09
1.51971e-09
4.14621e-09
9.01232e-09
-1.64551e-08
6.184e-09
1.17908e-08
-5.45867e-09
-1.13564e-08
9.94532e-09
-5.01481e-09
-9.51837e-09
8.45647e-09
5.63503e-09
-1.35789e-09
-4.30224e-09
1.13545e-08
-5.6944e-09
-3.6516e-09
7.0005e-09
-4.70682e-09
-7.53336e-09
4.44218e-09
9.27516e-09
-7.01374e-09
1.77796e-09
5.02869e-09
2.07035e-10
4.22046e-09
-5.52195e-09
-5.71227e-09
5.15672e-09
-4.44802e-09
-6.16739e-09
-5.98689e-10
2.36487e-09
9.56823e-10
-6.97332e-09
-6.95218e-09
-2.44735e-09
7.33056e-09
6.47125e-09
2.547e-09
2.00611e-09
-7.52889e-09
6.00638e-09
6.55117e-09
-7.61434e-10
1.28204e-08
-2.37185e-09
-9.01315e-09
-1.92553e-08
7.54989e-09
2.18999e-08
-1.01945e-08
1.66916e-09
-2.68127e-09
1.11178e-08
5.17151e-09
-1.82966e-08
2.00724e-09
-4.55263e-09
-7.25522e-09
2.29256e-08
1.14139e-08
-1.0795e-08
-1.07834e-08
1.89741e-08
-6.4079e-10
-1.59418e-10
-3.73586e-09
1.33386e-08
1.22972e-08
2.22027e-08
-1.81994e-08
-3.90755e-09
-9.56805e-11
-1.48301e-08
1.87362e-08
-2.16612e-08
8.72124e-09
9.20411e-09
-1.19889e-11
-2.43305e-08
2.50575e-08
-2.45997e-09
-2.47066e-09
-2.24293e-08
1.99467e-08
-1.03952e-08
-1.54649e-09
2.10317e-09
9.83849e-09
5.68479e-09
-4.72599e-09
-2.03408e-08
-4.65964e-09
1.68011e-08
8.19918e-09
-1.028e-09
-1.36281e-08
1.85065e-08
-5.77991e-09
-1.37547e-08
4.16897e-09
9.67785e-09
-7.35057e-09
5.23993e-09
-7.59996e-09
1.0333e-09
9.67848e-13
-8.38532e-09
5.23114e-09
1.06345e-09
-1.10206e-08
4.51319e-09
-8.28584e-10
-1.05136e-08
5.79715e-09
2.53265e-09
2.36228e-09
-3.8633e-09
-4.03112e-09
9.11921e-09
-8.98142e-09
4.19295e-09
-7.06488e-09
7.38508e-09
-1.97101e-09
8.61947e-09
-2.45557e-09
-7.3121e-09
1.11585e-08
4.17965e-10
-4.26432e-09
6.70897e-09
-1.75702e-10
-1.38453e-08
1.31675e-08
5.10142e-09
-1.156e-08
1.00744e-08
-2.78373e-09
5.87687e-09
-3.68087e-09
2.51618e-09
1.1239e-08
1.77825e-09
-1.51317e-08
9.67254e-09
5.47585e-09
2.89892e-09
5.82953e-09
4.31691e-09
-1.03221e-08
8.15632e-09
-1.9088e-09
3.33449e-09
6.22033e-09
-7.77658e-09
-3.93328e-09
9.78395e-09
-3.82821e-09
-6.20201e-09
-5.86082e-09
7.4034e-09
-3.47885e-11
2.33028e-09
-8.67123e-09
9.15993e-09
-9.2778e-09
2.03148e-08
-1.85811e-08
7.54417e-09
-1.00812e-08
-2.0784e-08
2.57285e-08
5.13677e-09
-2.60602e-09
1.52558e-08
-2.94558e-08
1.67686e-08
-1.24939e-08
1.92486e-08
1.39398e-09
1.4052e-08
-2.45027e-08
7.2266e-09
-1.52935e-08
-2.46823e-09
1.5894e-08
-1.38394e-08
-2.27209e-08
6.82518e-10
1.14095e-08
-2.58874e-09
-1.39266e-08
5.10588e-09
-1.46344e-10
-4.38601e-09
1.59418e-08
-1.39942e-08
-4.88631e-09
1.87341e-08
-1.88623e-08
2.2794e-09
2.80283e-09
9.10108e-09
1.41182e-09
-1.33157e-08
1.54974e-08
-5.62434e-09
4.33827e-10
-1.03068e-08
1.34139e-08
-1.62117e-08
1.31442e-08
-2.55683e-09
-6.40875e-09
6.41334e-09
-4.39059e-09
-1.53177e-08
-5.0176e-09
-6.43962e-09
9.5267e-09
-1.10988e-08
-4.86749e-09
4.08242e-09
-9.87342e-09
5.65162e-09
7.98672e-09
-1.36817e-08
4.33786e-11
2.45739e-09
5.08468e-09
-1.89039e-09
7.40482e-09
3.03931e-09
2.09948e-09
1.19505e-08
-8.96526e-09
-2.91044e-09
1.03e-08
-5.29008e-09
-5.58906e-09
-3.32318e-09
3.19517e-09
5.71706e-09
-3.87491e-09
-2.1358e-09
4.21654e-10
5.57765e-09
-5.29379e-09
-3.1943e-09
-1.55569e-09
4.31308e-09
9.19311e-09
3.18309e-09
5.56122e-09
-1.65426e-09
1.51415e-09
4.84834e-11
1.06543e-08
-4.64073e-09
1.39126e-09
-7.52195e-09
-9.87845e-10
1.1705e-08
-1.84257e-09
-7.81517e-09
1.39795e-08
-6.28217e-09
-4.92325e-09
5.44123e-09
5.76418e-09
-9.71165e-09
3.21181e-09
2.17689e-10
3.52964e-09
-7.68724e-09
-5.55405e-09
-1.73594e-09
3.4233e-10
1.66694e-08
-1.48138e-09
-4.02564e-09
-1.11623e-08
5.38731e-09
1.9675e-09
9.31461e-09
8.72445e-09
-9.45336e-09
2.44634e-09
-1.71739e-09
5.4446e-09
8.66718e-09
-1.42637e-08
6.06907e-09
1.01622e-08
-4.45927e-09
-1.12858e-08
-5.14422e-09
-8.03662e-10
1.13891e-08
4.13667e-09
-6.96914e-10
-1.14496e-08
-3.21867e-09
-1.02603e-08
-5.48704e-09
-3.96992e-09
9.29213e-10
-5.73025e-09
2.4391e-11
-9.64584e-09
-1.7294e-08
-3.36497e-09
2.42754e-09
1.82315e-08
6.37267e-09
-1.5632e-08
-8.03465e-09
-2.15541e-09
5.16319e-09
-3.26708e-10
1.77703e-08
-1.06467e-09
8.52236e-09
1.3288e-09
-9.34751e-09
-5.88498e-10
8.60718e-09
-5.4597e-09
5.72382e-09
8.36214e-09
-2.02706e-10
1.98585e-11
-8.17928e-09
8.37183e-09
1.37532e-09
-1.38499e-09
-2.59088e-09
1.61519e-09
-7.61086e-09
-4.39731e-10
-1.4398e-08
-2.03594e-09
-4.23871e-10
-1.49046e-08
-1.27446e-08
1.00007e-08
-1.01596e-08
-1.20973e-09
-1.07861e-08
-7.45668e-09
-2.54082e-08
-3.28934e-10
5.52859e-09
2.02086e-08
-1.67072e-08
7.10906e-09
-1.58101e-08
2.01966e-09
-8.56616e-09
-3.78354e-09
1.03301e-08
-7.162e-09
-1.14484e-09
1.03265e-08
-7.37195e-10
-7.76794e-09
1.34316e-09
-1.02725e-08
9.69119e-10
-7.55608e-09
-2.35344e-08
1.43833e-08
1.48766e-08
-4.87557e-09
-1.11459e-08
-1.88768e-08
1.47644e-08
-9.03895e-09
-2.72876e-09
-8.17459e-10
-2.36208e-09
-4.58841e-09
-6.80414e-09
-4.28576e-09
5.43996e-09
-2.00322e-08
7.03616e-09
-1.04031e-08
3.16699e-09
-7.53872e-09
-2.54524e-09
6.91696e-09
-2.15955e-09
4.6722e-09
6.54356e-10
1.12732e-09
8.44675e-09
-1.01728e-08
5.98708e-10
-8.32291e-09
1.9115e-09
1.00946e-08
-6.60039e-09
1.04969e-09
-4.54393e-09
8.0743e-10
7.14822e-10
8.57238e-09
-1.65324e-09
8.17554e-09
1.92443e-09
-1.76808e-10
-1.65464e-09
-6.49146e-09
-8.21058e-09
-2.13903e-09
9.85843e-09
-5.16635e-09
9.01262e-09
-4.05339e-09
-1.3458e-09
4.69265e-09
7.06545e-10
-2.28324e-09
-2.34055e-09
5.70408e-10
-6.89732e-09
6.26634e-09
-3.38381e-09
-2.46381e-09
-4.8517e-09
4.0891e-10
-4.01516e-09
-1.70918e-09
-1.35155e-09
-5.15479e-09
-5.65202e-09
2.85309e-10
1.32188e-08
-1.11968e-08
8.74805e-10
-2.8967e-09
-1.0463e-08
1.07417e-08
1.29402e-08
-1.16261e-08
-9.46005e-09
1.37642e-08
7.32185e-09
-3.72094e-09
-6.68848e-09
-1.21665e-09
4.64603e-09
1.64779e-08
-3.69185e-09
-1.74319e-08
1.32468e-08
-2.49027e-09
-6.11036e-09
2.53802e-08
-2.33303e-08
7.10615e-09
7.81106e-09
-7.83234e-09
1.03394e-08
4.59907e-09
1.19093e-08
-3.26383e-09
9.15108e-09
-6.94832e-09
-1.32792e-09
1.66673e-08
3.2254e-09
-6.44855e-09
-4.22063e-09
1.28908e-09
8.65516e-09
-1.3636e-08
-7.64971e-09
-1.1821e-08
6.87906e-10
1.67297e-09
-9.85428e-09
1.0788e-08
1.80921e-09
1.17879e-08
9.33949e-09
-3.93376e-09
6.01586e-09
-8.25976e-10
-1.2561e-09
-1.2151e-10
4.1185e-09
-7.93074e-09
5.96505e-09
2.50321e-09
-2.45237e-09
7.41311e-09
-7.40099e-09
6.13614e-09
-6.14824e-09
2.08624e-09
-2.31166e-11
5.35003e-09
6.04844e-09
-1.03124e-08
4.14245e-09
-2.17852e-09
-1.35174e-08
2.34982e-09
1.32538e-08
-6.20685e-09
-1.17437e-09
2.68384e-09
3.25813e-09
4.21543e-09
4.18837e-09
-4.28529e-09
6.54946e-09
1.69193e-10
-7.58806e-09
3.72579e-10
9.5653e-09
-7.57458e-09
-2.77815e-09
2.94927e-09
2.51274e-09
4.0411e-09
-2.69786e-10
8.93517e-09
-5.61331e-09
-1.45953e-09
-2.81503e-10
5.9294e-09
-2.54205e-09
8.52788e-09
2.64944e-09
-8.63545e-09
5.20933e-09
-7.56062e-09
-1.90884e-10
5.04447e-09
7.20661e-09
-7.79396e-09
-4.45718e-09
9.94699e-09
3.06718e-10
-7.09295e-09
1.0724e-08
6.31594e-09
-6.73592e-10
7.87148e-10
-1.06443e-09
-1.39201e-08
7.19051e-09
-9.05336e-09
-1.32666e-08
1.13172e-08
1.10026e-08
-8.26282e-09
-1.46422e-09
8.52771e-09
6.39324e-09
-1.59854e-08
8.29557e-09
-1.36236e-09
1.59444e-09
1.24951e-08
-1.43648e-08
3.54499e-09
-4.31646e-09
-8.75282e-09
1.85913e-08
1.47866e-09
-9.3358e-13
6.99595e-10
7.82913e-09
1.22902e-08
-4.49691e-10
3.53636e-09
-8.06008e-09
-9.23769e-09
2.02647e-09
-1.05494e-08
4.62814e-10
-1.26311e-08
-3.20737e-09
3.89081e-09
-2.63846e-09
-5.97304e-09
1.12023e-09
-8.9288e-09
-3.27423e-09
-3.87103e-09
3.81827e-09
3.32693e-09
-3.36166e-09
3.51319e-10
-2.63919e-10
-3.60044e-09
-2.64861e-09
-1.23515e-09
7.48414e-09
-3.90681e-09
-3.21903e-09
3.52538e-09
-7.3029e-10
-2.60908e-09
6.90705e-10
-3.91055e-09
-7.26563e-10
-5.9725e-10
4.38203e-10
-3.75151e-09
2.75113e-09
-3.19157e-09
-1.56817e-10
-6.67191e-09
2.46825e-09
-1.3658e-09
5.56944e-09
-5.8776e-10
-3.82791e-09
-2.25626e-09
-3.48438e-09
-9.74433e-10
-2.62708e-09
-4.21896e-09
5.05137e-09
-1.16584e-10
-1.00743e-08
2.17008e-09
6.53839e-09
-5.14699e-09
-8.75521e-09
-5.38881e-09
5.54205e-09
-1.33338e-10
-1.99118e-11
-1.73068e-09
-8.80511e-09
5.10303e-09
-7.13321e-09
2.77546e-09
-1.25435e-08
4.3259e-09
1.75895e-08
-9.37189e-09
6.37627e-09
-1.65919e-08
2.38499e-08
-1.36342e-08
-1.05968e-09
8.84994e-09
-2.42804e-08
5.80036e-09
7.4159e-09
-1.63297e-08
1.1842e-08
-2.92824e-09
1.88563e-08
1.32942e-08
-1.37799e-08
-9.19955e-09
5.17119e-09
-1.23014e-08
-2.22558e-09
-1.11508e-08
-7.93446e-09
1.19477e-08
7.13753e-09
-2.20232e-08
1.47507e-08
-3.87823e-09
2.40066e-08
-1.00517e-08
-4.43555e-09
-9.51944e-09
5.58601e-09
1.04861e-08
-1.42089e-08
-1.7866e-08
2.09499e-08
-9.31072e-09
3.11149e-09
1.09098e-08
2.19879e-08
-1.51375e-08
1.0697e-08
1.00266e-08
-1.70487e-08
3.89755e-09
-1.98633e-09
-1.20675e-08
-9.41681e-09
1.46529e-08
1.53172e-08
-2.12958e-08
-8.67439e-09
1.78018e-08
5.63295e-09
-8.78182e-09
2.10358e-08
-9.16254e-09
3.44402e-09
1.15559e-08
2.72817e-08
2.73616e-09
1.13551e-08
-2.83002e-08
-2.13389e-08
2.86565e-09
-1.24707e-08
4.15555e-09
1.90121e-08
-1.14053e-08
2.83213e-09
9.62065e-09
-1.8952e-08
2.06521e-08
-1.64358e-08
5.40436e-09
1.25923e-08
-3.34559e-09
-1.33178e-08
-1.2643e-08
4.66497e-09
2.66213e-08
-2.33016e-08
-5.54975e-09
9.39057e-10
-1.17892e-08
1.64e-08
-1.69915e-10
4.71995e-09
-1.00998e-08
-6.42679e-09
-1.32084e-08
2.05743e-08
-1.21392e-08
5.54251e-09
-1.23931e-08
4.69444e-09
-4.09056e-09
3.56218e-09
-2.95256e-08
1.69444e-08
9.01911e-09
-2.05879e-08
1.17571e-08
5.31195e-09
-1.33346e-08
-2.15028e-08
-8.11363e-09
-7.16231e-09
7.74387e-09
-8.2002e-09
-1.35887e-08
1.40451e-08
3.06323e-09
-9.26584e-10
5.60725e-09
1.59896e-08
-9.39672e-09
-3.5296e-09
-6.14903e-09
9.99948e-09
-2.09056e-08
1.0862e-08
3.89473e-09
-1.17408e-08
-1.85615e-08
1.4598e-08
-2.43678e-09
-1.3877e-08
-2.75121e-08
1.15608e-10
2.04117e-08
-1.19661e-08
-8.56115e-09
1.39988e-08
-8.91813e-09
-4.96507e-09
5.74537e-09
4.92572e-09
9.74059e-09
6.93202e-09
1.28122e-08
4.22891e-09
2.75647e-09
4.34391e-09
-1.13293e-08
7.21844e-09
9.49727e-09
-1.24868e-08
-4.5826e-09
-5.35126e-09
-4.4808e-09
1.44146e-08
5.10589e-09
-5.1075e-09
1.24861e-08
-1.93448e-08
9.3874e-09
-1.19645e-08
7.50278e-09
-1.03057e-08
1.43418e-08
-9.46067e-09
3.55145e-09
-3.00892e-09
3.89636e-09
-1.84645e-08
-7.21362e-09
9.95123e-09
9.87738e-09
-9.35575e-09
-2.60288e-09
-1.75219e-08
9.8191e-09
9.58922e-09
8.56741e-09
-1.42603e-08
5.75197e-10
1.25655e-08
4.769e-09
-1.45855e-08
-8.77856e-09
1.13401e-09
-7.74555e-09
1.03144e-08
5.99855e-09
-1.45189e-09
-1.85613e-08
1.08644e-08
9.1489e-09
-1.77659e-08
7.76842e-09
8.54567e-09
5.84363e-09
-1.02562e-08
7.98079e-09
-3.56816e-09
-2.34096e-09
7.88323e-09
3.01506e-10
-2.63452e-09
1.92411e-09
-1.63014e-09
-3.60105e-09
-9.28967e-09
-3.49562e-09
1.18482e-09
4.92133e-09
-2.6105e-09
7.7222e-09
-7.749e-10
-1.04429e-08
3.74491e-09
-8.09727e-09
-1.34136e-08
-5.92531e-09
-8.89108e-09
-1.77283e-10
-1.2739e-09
6.84933e-09
-5.39806e-09
-1.83451e-09
9.42566e-09
-3.92027e-09
6.53217e-09
5.27134e-09
1.60568e-09
2.45485e-09
6.53185e-09
-3.42291e-09
-5.5654e-09
8.11782e-09
2.36893e-09
-5.94047e-09
7.99738e-09
-1.23733e-08
8.96346e-09
-6.89139e-09
3.33234e-09
7.2368e-09
-1.33477e-09
-7.5711e-09
7.07146e-09
-4.2075e-09
1.599e-09
-4.64587e-10
1.01132e-09
-5.49716e-09
7.82185e-09
5.70107e-10
8.23673e-10
1.3906e-08
7.10391e-09
1.07349e-08
1.68701e-08
7.7476e-09
-2.3954e-09
1.42331e-09
8.13633e-10
2.06644e-10
3.11815e-09
-5.72018e-09
3.41787e-09
-5.62964e-09
4.54239e-09
2.76329e-09
-4.18751e-09
4.55936e-09
-3.59646e-09
1.25314e-09
5.9949e-09
-2.74984e-09
-1.14387e-09
2.97266e-10
2.67752e-09
-4.07707e-09
4.81743e-09
-2.15343e-09
2.50601e-09
4.2068e-09
4.20805e-10
1.89064e-10
7.05682e-09
3.4848e-10
1.66915e-08
-9.67237e-09
-2.79857e-08
2.09665e-08
-3.3894e-10
-1.54695e-09
-2.61003e-08
-1.5936e-09
1.79462e-08
2.61884e-09
2.22465e-10
-2.07043e-08
1.78629e-08
1.65934e-09
1.98269e-08
6.36298e-09
2.13011e-08
-2.48176e-08
-2.84644e-09
1.9064e-08
-1.58007e-08
3.09967e-09
-2.03949e-08
-1.22012e-09
-1.29765e-08
-3.96584e-09
-3.45257e-09
-3.18749e-09
2.06579e-08
-1.87234e-09
5.28445e-10
-2.84935e-09
-2.24967e-08
-1.62567e-08
9.60129e-09
-6.32108e-09
2.78778e-09
-1.8822e-08
-1.84884e-08
2.95158e-09
2.51382e-08
-1.855e-08
-1.71993e-09
-1.35099e-08
-7.57771e-10
1.59876e-08
-8.56328e-09
-1.15469e-09
7.99805e-09
3.69039e-09
-9.74315e-09
-2.51053e-09
-1.28626e-08
3.04311e-09
-2.17278e-09
-2.23205e-08
2.37355e-08
4.52716e-09
7.26477e-09
1.1954e-08
-2.37457e-08
4.71335e-09
7.71562e-09
-7.90177e-09
2.50295e-10
-1.10254e-08
9.62049e-09
-1.99192e-08
1.79967e-08
-1.42162e-08
4.00966e-09
-2.65607e-09
3.23757e-09
-1.01889e-08
9.19845e-09
-1.24753e-09
-2.24451e-08
4.13436e-09
9.40258e-09
-1.98937e-08
1.43894e-08
9.23464e-09
-1.15557e-09
-6.35223e-10
-1.70026e-09
3.27072e-10
1.88759e-08
-9.15333e-09
-1.00497e-08
-6.9838e-09
1.60043e-08
-8.69341e-09
6.04077e-09
-4.8403e-09
-8.18424e-09
9.95244e-09
7.44087e-09
-9.52747e-09
-7.86585e-09
1.4201e-08
1.79225e-09
5.60195e-09
8.60101e-09
4.67294e-09
1.21014e-08
9.50484e-09
8.20618e-09
-1.71029e-08
-2.56627e-10
-1.99558e-09
6.90942e-09
2.527e-09
1.13625e-08
8.42865e-10
9.37757e-09
-2.94578e-09
5.66951e-09
1.87115e-08
9.53727e-09
-2.00425e-08
-4.25691e-09
8.28006e-09
1.46886e-08
2.24487e-09
3.03559e-09
5.12178e-09
1.17593e-08
-2.50189e-09
1.70013e-08
7.6818e-09
7.34939e-10
5.40877e-09
3.74553e-09
1.05887e-08
1.57676e-08
9.35284e-09
-1.33653e-08
-1.17551e-08
7.33396e-09
-1.28712e-10
8.56232e-09
-2.45665e-08
8.71537e-09
-9.65081e-09
4.19837e-09
1.56631e-08
-1.61206e-08
-3.74096e-09
-6.45317e-09
9.79168e-09
-5.65298e-09
2.31445e-09
4.55714e-09
8.31954e-09
-1.20268e-08
-8.49955e-10
-2.08044e-10
4.64501e-09
-1.08902e-08
-3.1615e-09
-6.99474e-09
1.43544e-08
1.3365e-08
-1.19694e-08
4.32263e-09
5.34035e-09
6.71539e-10
-1.37217e-08
-8.49759e-09
-1.86106e-08
1.74572e-08
1.04813e-08
9.43689e-09
-6.55323e-09
1.05069e-08
3.38632e-09
-3.41194e-09
2.22535e-09
4.41165e-10
-8.33173e-09
1.33259e-08
-1.00014e-08
1.21765e-08
1.66085e-09
-8.35354e-09
1.04761e-08
-1.0322e-08
8.19946e-09
-1.2413e-08
6.55877e-09
-2.49934e-09
-8.87106e-09
6.58488e-09
-5.7175e-09
8.00365e-09
-4.69486e-09
-3.09788e-09
-1.07835e-09
-6.76321e-09
-7.18079e-09
1.53103e-09
-5.93077e-09
-4.29483e-09
2.07017e-08
7.21288e-09
-9.31724e-09
-2.14082e-09
-1.59058e-08
-6.02919e-09
1.1613e-08
-4.98936e-09
-4.87554e-10
-1.04289e-08
-1.15342e-08
-1.03319e-09
6.84993e-09
-1.17385e-08
-2.89359e-09
1.14843e-08
4.18184e-09
3.97403e-09
-1.96401e-08
6.4755e-09
-6.72971e-09
-6.31649e-09
-5.85365e-09
-1.14519e-08
2.48266e-08
-8.31069e-09
-1.70035e-08
9.33908e-09
9.45838e-09
-1.17148e-08
1.99951e-08
-1.80476e-09
9.3143e-09
-1.70551e-08
1.83213e-08
-1.73177e-08
1.55542e-08
1.21062e-08
7.96161e-09
1.10003e-08
1.9221e-08
8.4282e-09
-3.45154e-09
-6.68414e-09
1.7075e-09
-1.64083e-09
7.95203e-09
2.11703e-09
3.11674e-09
-2.34711e-09
-4.22115e-09
1.49716e-09
-2.12231e-11
1.54683e-09
7.51937e-09
-1.11414e-09
-1.03734e-08
-6.1704e-09
6.79765e-09
9.74613e-09
-6.11182e-09
-6.8094e-09
2.54787e-09
3.74136e-09
-2.35213e-09
1.07933e-10
-1.30449e-08
1.3205e-09
-1.58637e-08
-3.2931e-09
6.06235e-10
4.68195e-09
1.56912e-09
6.90588e-09
-1.67732e-09
4.13173e-09
-6.25182e-10
1.61956e-09
1.60048e-10
-3.52871e-09
5.70407e-09
-4.231e-09
5.60787e-09
-4.90557e-09
-2.89825e-09
2.86819e-10
1.81748e-09
2.45497e-09
2.25336e-09
2.78164e-09
3.54031e-09
4.6806e-09
-1.84389e-09
-5.50883e-11
3.12829e-09
6.37094e-10
2.34701e-09
-6.11243e-09
-4.05872e-09
1.92619e-09
5.26081e-09
1.6914e-09
1.83441e-09
1.44982e-11
3.86049e-09
2.5115e-09
-7.89496e-10
1.79987e-10
-3.44921e-09
-2.45068e-09
-1.47572e-09
5.85259e-09
2.0469e-09
1.97706e-09
-4.57217e-09
4.51085e-09
-1.91574e-09
3.58769e-09
2.23772e-10
3.15859e-09
-5.27577e-09
-3.07846e-09
5.19042e-09
-1.77289e-09
3.2053e-09
5.96153e-10
-2.59698e-09
-5.17199e-09
5.17412e-09
2.59495e-09
-2.78738e-09
6.52015e-10
-4.61488e-10
4.9656e-09
-1.96102e-09
-5.79194e-09
3.21999e-09
-3.42637e-09
2.89726e-09
-1.92595e-09
-3.19261e-10
6.88319e-09
-1.68761e-09
-1.97555e-09
-6.22588e-10
6.86799e-11
7.43712e-09
6.64917e-10
-2.69584e-10
2.50194e-09
5.21645e-09
1.1328e-09
2.47663e-09
-5.57043e-09
2.63811e-09
2.25872e-09
-3.76401e-09
5.97418e-09
-4.10751e-09
-3.55425e-09
-5.39636e-10
6.58252e-09
8.91951e-11
-2.64314e-09
2.28438e-09
-5.41954e-09
4.96913e-09
1.23207e-09
-5.1988e-10
1.12672e-09
-4.30797e-09
-2.23827e-09
-2.84353e-10
2.71203e-10
-1.90207e-09
-1.77804e-09
-2.73371e-09
-1.14004e-08
1.3714e-08
4.20084e-10
-8.68545e-09
-1.48522e-09
7.43693e-09
1.80857e-08
2.78645e-09
-2.20149e-09
-1.86707e-08
9.14162e-09
5.34021e-09
3.60389e-09
-4.00623e-09
1.74744e-09
-9.82898e-09
-2.86271e-09
2.33996e-09
-1.15112e-09
-6.71374e-09
5.5249e-09
-6.54356e-09
7.34475e-09
1.53877e-09
1.12698e-08
6.32333e-11
-8.54656e-09
8.26912e-09
8.34088e-09
3.96362e-10
-1.24268e-08
-3.77731e-09
7.88059e-09
-6.4753e-09
2.37204e-09
2.75644e-09
-5.93687e-09
-5.96861e-10
5.24428e-09
3.63754e-09
-6.49459e-09
-3.6865e-09
-3.19759e-10
-2.18737e-09
1.98005e-09
-5.72954e-09
-8.26631e-09
-4.4513e-09
5.38516e-09
3.44766e-10
-2.05075e-09
-3.67912e-09
1.88305e-09
3.58558e-09
-8.34289e-11
-3.52039e-09
1.77398e-09
5.07853e-09
-3.3321e-09
3.86359e-09
1.16097e-09
-8.54493e-09
5.60009e-09
-3.48133e-09
5.6491e-09
1.83405e-09
-5.74034e-09
1.06431e-08
1.75827e-10
5.71882e-09
3.54587e-09
-5.66888e-09
-3.59585e-09
6.80731e-11
1.49138e-09
4.15931e-09
-1.2218e-08
1.76646e-08
-1.90073e-09
-1.02687e-08
-7.68956e-09
-1.2074e-08
4.65011e-09
-5.5399e-09
8.12856e-09
-1.89969e-11
2.53353e-09
-6.1629e-09
4.05151e-10
1.00581e-08
-4.30029e-09
4.69605e-10
1.49608e-09
1.40157e-09
4.75096e-09
-1.50243e-09
4.87332e-09
1.13833e-10
5.11664e-09
5.1348e-10
-2.41432e-09
2.13077e-09
5.15687e-09
2.4047e-09
7.65257e-09
-5.3941e-09
2.2447e-08
-1.11342e-08
-5.91865e-09
-6.97897e-09
1.15219e-08
-9.93695e-09
1.0211e-08
9.52663e-09
4.58209e-09
-2.43197e-08
4.99571e-09
1.33536e-08
-3.42029e-09
-2.00788e-08
1.2365e-08
6.39961e-09
-1.67989e-08
-1.28214e-08
1.05175e-08
7.29961e-09
2.40609e-09
-3.70555e-09
-1.10076e-08
6.812e-09
1.44066e-08
7.2465e-09
-8.29375e-09
1.25607e-08
-1.8608e-09
1.46023e-08
-8.63783e-09
-7.72562e-09
1.76118e-09
-4.72252e-10
4.06694e-09
-4.99565e-09
1.90541e-08
-1.0532e-08
-8.897e-09
1.44188e-08
3.19142e-09
-4.42185e-09
-3.48249e-10
1.06749e-09
3.70248e-09
-7.39873e-09
7.28482e-09
-7.28883e-10
8.42745e-10
-6.52378e-09
-5.29682e-09
1.03573e-09
5.90085e-09
3.98495e-09
5.86665e-09
-3.72652e-09
-6.12511e-09
-7.40976e-10
-1.79789e-09
-3.67044e-09
2.11646e-09
2.62137e-09
4.3693e-11
5.26123e-10
-5.22338e-09
6.50515e-09
-2.02278e-09
3.86603e-09
-1.23599e-08
1.03213e-08
-1.82742e-09
-1.19592e-08
1.25463e-08
3.27892e-09
1.03391e-09
-5.65556e-09
1.734e-09
2.88755e-09
-4.31966e-09
2.89187e-09
2.46162e-09
2.25531e-09
2.14106e-09
-8.12291e-09
3.09723e-09
-6.0653e-09
-2.23658e-09
-7.02613e-09
-4.2182e-09
-9.97756e-09
-1.77539e-09
4.61008e-09
-2.55348e-09
1.07801e-08
5.99245e-09
-5.74521e-09
-7.82235e-09
5.70568e-09
7.22922e-09
-2.041e-08
7.475e-09
-1.71931e-08
1.04015e-08
1.24972e-08
1.55761e-08
1.19761e-08
-5.78274e-09
-2.17696e-08
4.03619e-09
-5.6533e-09
3.92431e-09
-5.86003e-09
9.16493e-09
2.50601e-10
1.40753e-08
9.79515e-10
-9.41344e-09
-2.1363e-08
-3.21191e-09
1.87149e-08
-1.05361e-08
-9.8474e-09
-1.00577e-09
4.18323e-09
-8.96041e-09
5.68115e-09
5.16865e-09
-1.18557e-08
9.6741e-09
1.90199e-10
2.09627e-08
-1.17479e-08
-1.97509e-08
2.35245e-09
1.53984e-08
-6.36279e-09
1.00267e-08
3.72226e-10
1.25761e-08
-1.28323e-08
4.80285e-09
-4.54669e-09
5.54044e-09
9.38817e-09
5.13821e-09
-1.82694e-09
-1.94116e-08
-3.9156e-09
1.41929e-08
-1.00102e-08
1.1635e-08
-6.91634e-11
6.71549e-09
-7.18504e-10
-2.17222e-09
-3.82479e-09
3.65293e-10
2.94362e-09
3.40656e-09
-9.49683e-09
5.15018e-09