/*--------------------------------*- C++ -*----------------------------------*\
| =========                 |                                                 |
| \\      /  F ield         | OpenFOAM: The Open Source CFD Toolbox           |
|  \\    /   O peration     | Version:  v1612+                                |
|   \\  /    A nd           | Web:      www.OpenFOAM.com                      |
|    \\/     M anipulation  |                                                 |
\*---------------------------------------------------------------------------*/
FoamFile
{
    version     2.0;
    format      ascii;
    class       surfaceScalarField;
    location    "100";
    object      phi;
}
// * * * * * * * * * * * * * * * * * * * * * * * * * * * * * * * * * * * * * //

dimensions      [0 3 -1 0 0 0 0];

internalField   nonuniform List<scalar> 
37239
(
-1.74925e-09
-6.06228e-09
1.65183e-09
6.15952e-09
2.99168e-09
-8.91788e-09
8.53606e-09
-2.60986e-09
1.18881e-08
-9.01403e-09
8.18937e-09
-1.10635e-08
-1.09439e-08
3.08388e-09
9.00063e-09
-1.14067e-09
6.44433e-11
1.00764e-08
-8.44514e-09
-1.69565e-09
9.92084e-09
-7.72106e-09
-2.1353e-09
4.4024e-09
2.58565e-09
3.08839e-09
5.33653e-09
8.98675e-09
-2.15123e-09
1.41176e-10
-6.43501e-09
5.8798e-09
1.06673e-09
-9.09769e-09
5.50388e-09
-7.34511e-09
-4.76876e-09
2.20545e-09
7.89989e-09
-1.75119e-09
6.32307e-09
-4.43065e-09
5.30082e-09
-5.98526e-09
-6.29416e-09
4.85439e-10
3.97171e-09
1.83705e-09
3.9266e-09
-4.91992e-09
8.9781e-10
-1.62676e-10
2.96009e-09
-5.13984e-09
4.76547e-09
-3.80014e-09
8.96568e-09
1.66868e-09
-5.01288e-09
5.18445e-09
-1.88454e-10
3.99336e-09
4.43746e-09
-8.94849e-09
5.17658e-10
-1.96782e-10
3.95194e-09
2.38199e-10
4.33147e-09
-9.08013e-11
1.30282e-08
-9.53396e-09
-5.69043e-10
-2.92518e-09
-1.94606e-09
4.03609e-09
1.09382e-08
-9.85752e-09
5.96725e-09
1.94419e-09
-1.31513e-08
-6.24015e-09
-7.89768e-10
1.09086e-09
-6.44309e-09
6.142e-09
-2.35439e-10
9.97146e-09
-5.69997e-09
3.47988e-09
6.18112e-11
-2.35511e-09
5.73798e-09
-3.70788e-09
5.78744e-09
-2.315e-09
1.48343e-10
-3.76351e-10
-2.55075e-09
5.7578e-09
-5.89648e-09
2.6894e-09
-8.04455e-09
5.50686e-09
-1.30369e-11
-5.57614e-09
-3.81316e-09
-4.30056e-09
1.36899e-08
-7.86932e-09
8.051e-09
-1.07158e-08
2.78818e-10
4.54047e-09
-1.49703e-09
-2.26359e-09
-4.28391e-09
-5.16696e-09
-7.04582e-09
-2.34722e-09
-1.52292e-11
-4.90752e-09
-2.54315e-09
3.63755e-09
-8.58198e-09
3.95329e-09
-3.52363e-09
5.64385e-09
-5.34008e-09
3.21987e-09
2.28291e-09
6.57541e-09
-1.23819e-08
-1.1466e-08
-1.00584e-08
-6.38593e-09
1.21438e-08
1.08332e-08
-7.45293e-09
-9.92351e-09
-2.48211e-09
-3.77786e-09
4.68754e-09
-3.50394e-11
-8.89402e-09
9.6668e-09
-1.16439e-08
8.55247e-09
6.49646e-09
-1.01967e-08
-6.09855e-09
9.79854e-09
-9.48965e-09
1.59463e-08
3.96769e-11
1.80984e-08
-1.63445e-08
-5.66092e-09
3.90679e-09
-5.47748e-09
1.45114e-08
9.06439e-09
3.02495e-09
-1.23517e-08
-8.70067e-10
-9.1765e-09
2.71165e-09
-1.86012e-09
5.63699e-09
9.49883e-09
-1.32758e-08
-1.38262e-08
2.78952e-09
-1.90632e-08
7.48699e-09
5.21478e-10
-4.3049e-09
-1.00429e-08
3.19251e-09
4.18356e-09
-1.17099e-08
4.33381e-09
5.62087e-09
-4.51403e-09
2.08546e-09
5.81729e-09
-1.6541e-08
-4.36603e-09
-8.8799e-09
6.50659e-09
-1.80167e-09
-1.02112e-08
6.18668e-09
-1.24555e-08
-1.94321e-09
8.21222e-09
1.9553e-09
-7.61662e-09
1.1848e-08
3.7278e-09
-6.21438e-09
-9.15068e-09
1.16375e-08
-7.22392e-09
1.29071e-08
2.56142e-09
-8.02445e-09
-6.9924e-09
-3.57018e-09
-1.48498e-09
-1.22501e-08
4.09268e-09
3.77078e-09
-1.05952e-08
-2.3261e-09
-5.47302e-09
2.01994e-09
-6.83647e-09
-2.20666e-09
6.98657e-11
3.97921e-09
-1.20735e-08
3.42681e-09
-1.01934e-08
-2.08055e-10
-8.06278e-09
-7.37648e-09
1.02063e-09
-2.07702e-09
1.06189e-08
-9.56231e-09
-2.46019e-09
-8.58944e-09
1.20703e-08
5.46807e-09
7.33099e-10
-8.27808e-09
2.23722e-09
5.2278e-09
-7.46335e-09
-1.50049e-12
-2.60053e-09
4.52575e-09
-2.17583e-09
2.50742e-10
-1.01348e-09
1.2112e-08
-4.79609e-10
-4.17912e-09
-3.98751e-09
6.36466e-09
1.80197e-09
-1.70074e-09
-3.11158e-09
6.33311e-10
6.35981e-09
-1.90521e-09
-4.8477e-09
5.46454e-10
4.7227e-09
1.55251e-09
5.83679e-09
5.8404e-09
3.90848e-09
-5.02616e-09
-5.94969e-09
4.55683e-09
-2.59458e-09
-6.54958e-09
-2.51161e-09
1.6939e-09
-1.35315e-09
6.01908e-09
-6.453e-09
-2.55667e-09
-3.40423e-09
2.50493e-10
1.66872e-08
-4.8766e-09
-3.57449e-09
-8.23617e-09
-2.13009e-09
4.00009e-09
1.48172e-08
1.1544e-08
-5.38394e-09
-1.10366e-08
1.5029e-09
7.91102e-09
9.82076e-09
-7.55488e-09
1.08713e-09
1.27337e-08
-3.45584e-09
1.4619e-08
-1.00759e-08
-2.94281e-09
-8.76973e-09
8.25677e-09
5.5839e-09
-9.41531e-09
-5.45527e-09
4.01543e-09
-1.94553e-09
-2.06196e-09
-4.76217e-09
-1.81691e-09
6.36638e-09
2.66995e-09
-3.08585e-09
-5.95041e-09
-2.78662e-10
5.59021e-10
6.0861e-09
-3.86398e-09
3.06953e-09
5.15815e-10
-2.62774e-09
2.05733e-09
-3.29356e-09
-2.06388e-09
6.83208e-09
-2.09825e-09
-6.54025e-10
-2.97361e-09
4.93977e-09
-1.31203e-09
-2.67691e-09
2.50693e-09
-4.8396e-10
7.4048e-10
-6.45404e-09
-2.52105e-09
2.91369e-09
-9.58948e-11
-3.67777e-10
-2.6603e-09
3.78576e-09
-4.09903e-09
2.51585e-09
-4.59644e-09
2.82107e-09
2.46307e-09
6.52922e-10
-6.00065e-10
-2.93095e-10
1.36136e-08
-4.06864e-09
6.72938e-09
-1.62745e-08
3.90472e-09
1.00277e-08
-3.18975e-10
1.4553e-08
1.94229e-09
-2.05641e-08
1.61918e-08
2.26582e-09
7.68676e-09
1.89128e-08
-2.46574e-08
1.39926e-08
5.23205e-09
-1.1538e-08
-1.80925e-09
1.53676e-08
5.35441e-09
1.05902e-08
1.59298e-09
2.85295e-10
1.29496e-09
1.46115e-08
1.14335e-09
1.45095e-08
-1.27265e-08
1.22722e-08
1.04819e-08
2.0634e-09
-8.06058e-09
-5.09565e-09
-1.18274e-08
1.6318e-08
6.04855e-10
-3.86114e-09
-1.12245e-08
9.98993e-09
4.12396e-09
4.28698e-09
1.26554e-08
-5.36005e-09
3.01969e-09
-1.58892e-09
1.7825e-09
-8.79264e-09
1.25913e-09
1.05388e-09
6.47975e-09
-5.37276e-09
-6.03187e-09
2.61195e-09
-6.27413e-09
1.90727e-09
5.62598e-09
-4.73602e-09
-1.36168e-09
-1.7636e-10
-3.79471e-09
1.57455e-10
5.54441e-09
-3.30724e-09
-1.54532e-10
-3.3294e-10
2.76853e-09
-8.0274e-10
5.75052e-09
-7.71627e-09
3.14429e-10
4.86981e-09
-2.41568e-09
-2.74378e-09
-7.36505e-09
1.73761e-09
8.12637e-09
-8.81012e-09
-3.3216e-09
-1.3473e-09
-4.86829e-09
6.76334e-09
-3.98217e-09
-1.04061e-09
2.07727e-09
-5.62379e-09
-9.29901e-10
1.23421e-09
2.55438e-10
4.26076e-09
2.1219e-09
-2.45251e-09
-4.88981e-10
1.549e-08
-1.25486e-08
-2.13737e-09
9.50635e-09
-9.8215e-09
-2.79991e-09
1.65604e-08
-1.42494e-08
5.62141e-09
-1.05586e-08
-1.19391e-08
-9.63801e-09
1.55383e-08
6.0388e-09
1.51259e-08
-1.05046e-08
4.32244e-09
1.52951e-09
-3.91191e-09
6.0773e-09
1.33729e-08
3.29574e-09
7.91829e-09
6.72017e-09
-7.50486e-09
4.08042e-09
2.55991e-09
-3.58125e-09
7.74149e-09
9.9997e-09
4.77911e-09
-5.27245e-09
1.03323e-08
3.98977e-09
-1.24607e-08
-6.10256e-09
5.45158e-09
1.31117e-08
-3.07753e-09
-4.60405e-09
-1.82128e-09
1.04585e-08
-6.34722e-09
-8.62806e-10
3.62877e-09
-1.00906e-08
-3.76142e-09
-1.26587e-08
-2.75293e-09
9.30901e-09
-8.64791e-09
-7.08826e-09
8.25688e-09
-1.27261e-08
1.39626e-08
-8.33114e-09
4.71541e-09
-8.72217e-09
-9.64377e-09
1.73902e-09
4.16696e-09
3.73747e-09
-7.60108e-09
-2.41152e-09
-3.24596e-09
1.32584e-08
-4.23184e-09
-7.05131e-09
3.682e-09
1.51012e-09
-1.35588e-08
2.40477e-09
5.41298e-09
-9.92664e-09
6.25251e-09
-7.58077e-09
1.05822e-08
-1.06939e-08
-1.11876e-09
-5.01627e-09
5.95758e-09
-4.18739e-09
-8.6596e-09
-3.40799e-09
4.16695e-09
-1.25836e-08
-7.88401e-11
-5.80088e-09
-2.78001e-09
-6.60579e-09
2.87412e-09
-1.69137e-08
3.9266e-09
1.01129e-08
-1.38039e-08
1.06995e-08
5.97835e-09
7.40741e-09
-1.55973e-08
-8.72391e-09
-6.8078e-09
4.11382e-10
-7.55779e-10
8.32284e-09
3.13242e-09
-3.14621e-09
3.76478e-09
-7.42665e-09
1.5755e-09
-2.0319e-08
-1.68678e-08
-2.20882e-08
1.38902e-08
-2.29861e-08
-3.61177e-09
9.73003e-09
3.65084e-08
8.31112e-10
-6.5098e-09
-3.08298e-08
-1.94996e-09
1.63701e-08
-2.82556e-09
-9.63117e-10
-1.43274e-08
3.00551e-09
1.05659e-08
2.10501e-08
-3.80331e-09
-1.64158e-08
1.10281e-08
8.07191e-09
-1.4366e-08
-2.79204e-08
1.12079e-08
8.39092e-09
1.04898e-08
-6.83885e-09
-1.2042e-08
7.01329e-09
-9.74818e-10
2.35227e-09
-1.73205e-08
5.80677e-09
1.8527e-08
-2.74291e-09
-4.08793e-09
-9.84328e-09
-1.84018e-09
7.43864e-09
4.24458e-09
1.12906e-08
-2.16052e-09
-1.89735e-08
-1.61687e-08
1.00408e-08
4.28757e-09
9.47398e-09
-1.43523e-08
4.19905e-09
2.26468e-09
-1.26273e-08
-1.48941e-09
1.99233e-08
-9.17318e-09
-6.19709e-09
8.26167e-09
-1.72612e-08
-1.34667e-08
9.67797e-09
1.38295e-08
-1.78202e-09
-2.21082e-09
1.23876e-08
-2.69357e-09
3.8671e-09
6.32058e-09
-6.80028e-10
-9.50748e-09
1.49094e-09
4.20487e-09
-1.82852e-09
6.97548e-09
8.36062e-10
5.19007e-09
-1.52854e-08
-5.46466e-09
8.88011e-09
6.00056e-10
-1.25739e-08
1.48527e-08
5.63224e-09
5.86712e-09
-1.17137e-08
5.05699e-09
1.01607e-10
2.52748e-09
-9.23971e-09
-4.82481e-10
7.1948e-09
2.11983e-09
-3.71909e-10
-6.3348e-09
-5.40673e-09
-2.43935e-09
3.00202e-10
-2.59592e-09
4.73481e-09
-4.10544e-09
-2.10117e-09
3.76715e-09
6.35691e-09
-2.13815e-09
-3.91875e-09
-7.21969e-09
4.58028e-09
8.9962e-09
6.86222e-09
-9.72361e-10
-8.02809e-09
2.43204e-09
-2.35554e-09
2.36373e-09
-2.60437e-09
-6.38694e-09
-7.41119e-11
-3.70313e-09
-1.42911e-09
9.71228e-09
-1.67418e-09
2.70571e-09
3.96478e-09
-7.03835e-09
-2.62285e-09
-5.18797e-09
6.3815e-09
-5.15225e-09
8.551e-10
-4.67503e-09
7.96351e-09
-8.56516e-10
5.17108e-09
-5.88137e-09
-1.54512e-09
1.5999e-10
-3.86713e-09
6.64262e-09
-2.41244e-10
8.86052e-10
-1.19491e-09
8.68009e-09
-8.37128e-09
6.87924e-09
5.82503e-11
-6.05144e-09
-3.24354e-10
-4.61287e-09
3.40798e-10
-7.06433e-09
2.85988e-10
-1.60948e-11
-3.94852e-09
-6.48192e-10
-1.23574e-09
-5.84462e-09
7.49344e-09
-8.40231e-09
7.3789e-09
-1.76165e-10
1.47731e-09
2.62146e-10
6.30552e-09
8.11155e-10
6.37984e-09
7.61514e-10
-5.7015e-09
6.10053e-09
1.36686e-09
-4.10302e-09
8.34456e-09
3.7483e-09
-1.47154e-09
1.13723e-08
-8.81332e-09
3.70917e-10
-2.92984e-09
-1.50392e-08
-2.21461e-09
5.97238e-11
1.71939e-08
-7.92755e-09
-4.30685e-09
-2.80489e-09
-7.83403e-09
9.06951e-09
5.04588e-09
-6.28138e-09
-4.38933e-09
-4.85923e-09
-1.06483e-08
6.69417e-09
2.00036e-09
8.86548e-09
-1.57251e-08
6.81002e-09
1.22182e-08
-1.70279e-08
1.44164e-08
-1.17876e-08
-6.93572e-09
-2.48992e-09
1.46916e-08
-5.95102e-12
1.0807e-09
-9.25144e-09
8.17659e-09
-1.40338e-08
1.02099e-08
-2.35964e-09
-1.30943e-09
1.04791e-08
-8.0681e-10
-2.11533e-09
1.4817e-08
-3.40567e-09
1.44545e-09
-6.62286e-10
-7.22826e-11
5.73838e-09
-3.93441e-10
-5.27265e-09
6.48328e-09
-2.70691e-10
-6.28488e-09
4.90311e-09
7.47236e-09
-5.8922e-09
5.22352e-09
-7.62946e-10
4.42549e-10
4.53172e-09
-1.0175e-09
3.95817e-09
2.76796e-09
6.98728e-09
1.32466e-08
5.89797e-09
-1.34061e-08
5.67902e-09
6.55007e-09
-2.62388e-10
-6.93723e-09
6.80619e-09
5.81391e-09
-6.34698e-09
1.14802e-08
-3.40117e-09
-2.18103e-09
3.49841e-09
1.36608e-08
4.70256e-09
3.48415e-10
-4.98914e-09
1.12555e-08
7.45113e-09
-7.73769e-09
-5.54574e-09
-3.30885e-09
3.1271e-09
2.96567e-09
-5.78327e-10
-6.57939e-09
4.192e-09
-1.15838e-09
-1.42176e-09
-3.1612e-09
4.76661e-09
-2.76379e-09
-6.93371e-09
-2.34183e-09
1.68152e-09
5.6194e-09
-7.67556e-09
3.74782e-10
5.06986e-09
-5.94177e-09
2.55373e-09
3.37099e-09
-4.91401e-09
-2.82835e-09
7.61433e-09
2.27402e-09
-7.6521e-11
-9.81175e-09
2.23565e-09
4.49355e-09
8.8512e-10
-8.96835e-09
8.13204e-09
3.07199e-09
2.8276e-09
-9.52191e-09
-1.75846e-09
-6.97394e-09
2.79068e-09
3.3478e-09
-9.81962e-09
-7.20096e-09
-5.02669e-09
-8.21097e-09
6.03677e-09
-7.41801e-09
6.32869e-10
-7.89939e-09
7.93558e-09
4.45742e-09
2.61052e-09
-1.05864e-08
-7.20427e-10
1.87856e-09
4.31298e-09
-4.05294e-09
1.56883e-09
-9.11862e-09
-6.61116e-10
-6.51806e-09
6.68908e-10
1.23878e-08
-1.41671e-09
-2.99208e-09
-7.97898e-09
3.6357e-09
-3.66446e-10
8.12358e-09
-6.71268e-09
8.85083e-10
-9.42189e-09
3.91528e-09
9.94613e-09
-1.03277e-08
4.15995e-09
1.07269e-08
-1.60373e-08
3.84901e-09
1.46102e-09
-1.24546e-08
1.3066e-08
1.01154e-08
4.51211e-09
-7.68172e-09
-1.05526e-08
1.37222e-08
-5.84265e-09
-9.9645e-09
4.19337e-10
-1.27207e-08
4.61947e-09
-8.66079e-09
3.23738e-09
-4.06692e-09
2.52703e-09
-1.09149e-08
-1.70614e-09
-1.83983e-08
-9.79975e-09
4.98782e-09
2.08753e-08
-1.74719e-08
-8.76608e-10
1.44651e-08
1.1658e-08
-1.50991e-08
-1.1024e-08
-1.30179e-08
1.5119e-09
-9.64374e-09
1.27451e-08
6.24164e-09
-1.48322e-08
-1.96215e-09
7.98609e-09
8.5703e-09
2.66115e-09
9.07445e-09
-1.53363e-08
5.84774e-10
-1.11297e-08
1.22074e-08
-1.66236e-09
-9.8451e-09
1.15395e-08
-1.10965e-09
4.97498e-10
-1.44012e-08
1.20081e-09
1.27028e-08
-1.02257e-08
9.97651e-09
7.46661e-10
1.04929e-09
3.82257e-09
-1.8105e-08
1.32331e-08
8.74932e-09
1.5182e-09
-9.21832e-09
-1.33093e-08
6.68056e-11
2.11274e-09
6.30126e-09
-1.08613e-08
-6.48253e-11
-3.47905e-09
-6.93012e-09
-3.36051e-09
-9.89649e-09
-1.14349e-08
-6.99611e-10
3.16962e-09
9.73728e-09
2.35648e-09
8.48338e-09
2.27235e-09
1.45067e-08
-1.29564e-08
-6.10593e-09
-1.70471e-08
1.08716e-08
2.06078e-08
-1.44323e-08
-3.2473e-09
2.52972e-09
-1.63296e-08
1.22396e-08
-4.50541e-10
1.76789e-08
-6.56105e-09
-1.78148e-09
-9.3363e-09
-2.41978e-09
8.15566e-09
1.1943e-08
1.60393e-08
-7.68872e-09
-1.49117e-08
5.42063e-09
8.19888e-09
-1.66279e-08
6.50432e-09
1.82793e-08
1.77074e-08
-1.15028e-08
5.69891e-09
-6.98082e-09
3.02345e-09
9.37797e-09
6.83109e-09
-2.31898e-08
1.43965e-08
-8.48015e-09
7.62241e-09
5.31458e-09
1.81381e-09
6.50773e-09
-1.36361e-08
1.04073e-08
-1.20735e-08
-6.81209e-09
1.63399e-08
-7.14301e-09
6.05293e-09
3.70366e-09
-2.61365e-09
-6.22819e-09
3.64973e-09
-4.56455e-09
-1.31139e-08
8.04712e-10
6.08101e-09
-3.60205e-09
6.23751e-09
3.41745e-09
-2.8513e-10
3.32785e-10
1.09897e-08
-4.22818e-09
-9.57852e-09
2.81697e-09
1.00243e-08
-5.91097e-09
6.87634e-09
2.92947e-09
-3.54355e-09
3.28931e-10
5.39687e-09
-4.19668e-09
-4.02202e-09
2.82183e-09
5.08356e-09
3.24278e-09
-1.44782e-08
-2.54459e-09
-3.23773e-09
2.02603e-08
-3.43227e-09
-1.14095e-08
3.6337e-10
1.05191e-08
-1.0958e-08
-3.51999e-09
3.95871e-09
-5.29057e-09
1.3265e-08
-7.85996e-10
-9.85524e-09
-3.1683e-10
-1.01406e-08
-2.29647e-09
7.14641e-09
-1.00479e-08
-8.78863e-10
-1.88629e-08
-6.97808e-09
1.59069e-08
9.93397e-09
-2.00638e-08
2.3268e-09
-1.12588e-09
1.84578e-08
-1.65374e-08
-5.35273e-09
-5.04533e-09
2.02653e-08
-1.39858e-08
-9.43816e-10
-3.53822e-09
1.37929e-09
-7.69642e-09
-3.25086e-09
-1.03353e-08
-2.49824e-09
-7.73077e-09
2.45789e-09
-2.502e-08
8.56497e-09
-1.72385e-08
3.0279e-09
-2.55591e-09
-1.00506e-08
-1.73366e-08
-2.69369e-09
-2.74191e-09
-4.05097e-11
5.47613e-09
-3.64081e-09
-2.14033e-09
3.08748e-09
-1.49703e-09
-2.18071e-09
3.69579e-11
-2.32234e-09
-2.17856e-09
1.759e-09
-3.3288e-09
-4.90589e-10
-1.51574e-09
2.68944e-09
-6.22351e-09
5.04979e-09
-7.03014e-09
3.33584e-09
-2.77684e-09
5.42576e-09
3.73038e-09
-1.49583e-10
2.48877e-10
-3.82977e-09
6.883e-09
-5.92951e-09
2.66522e-09
-3.09267e-09
-1.75326e-09
3.75308e-10
-8.66455e-10
-3.20215e-09
-2.15489e-09
-4.03188e-09
-3.8647e-09
4.42444e-10
-3.2007e-09
-1.27362e-09
-2.52053e-09
-3.65834e-10
-5.08412e-09
2.2306e-10
1.65883e-09
-1.80661e-09
-7.99736e-09
4.71985e-09
2.25106e-09
-7.25842e-09
-3.36214e-09
6.65447e-09
-1.15545e-08
1.03561e-08
-5.45622e-09
5.64597e-09
-8.91395e-09
9.92233e-09
-4.61787e-09
-4.69542e-09
-2.24124e-09
7.93985e-09
-4.66146e-09
-7.89635e-09
7.26025e-09
-4.48442e-09
7.58021e-09
-4.99568e-09
1.79019e-08
-4.4842e-09
3.51007e-09
9.32083e-10
6.63207e-09
-1.22597e-08
5.85302e-09
-9.58242e-09
8.68884e-09
-1.36513e-08
4.78046e-10
-8.27784e-09
1.1971e-08
2.20049e-09
-8.31703e-10
5.95268e-09
-1.2972e-08
-1.24666e-10
-9.73091e-09
-1.44891e-09
3.59129e-09
7.58863e-09
-6.02288e-09
-5.47e-10
-3.16103e-09
-7.0465e-09
6.4437e-10
4.95324e-09
6.80917e-09
-7.36445e-09
5.56329e-09
-5.00802e-09
2.37026e-09
5.03941e-09
-6.00527e-10
4.25183e-09
-6.40885e-09
-3.86585e-09
-4.24413e-10
8.47881e-10
1.53942e-09
-8.79615e-09
1.85815e-09
-8.37473e-09
6.91472e-09
-8.53983e-09
3.16456e-09
4.92813e-09
1.32468e-09
6.61915e-10
1.06482e-08
-8.41911e-09
8.06982e-09
-3.68869e-09
2.03238e-09
9.62872e-09
1.60326e-09
6.08085e-09
-7.03975e-09
-3.30319e-09
1.33704e-09
7.52939e-09
2.95559e-09
8.68151e-09
-1.20007e-09
-5.73108e-09
-9.41835e-09
1.48578e-08
-6.6393e-09
-9.16911e-09
1.75741e-08
2.80273e-09
-8.02155e-09
-4.28979e-09
7.98898e-09
5.54713e-09
4.56282e-09
-7.87032e-09
7.64432e-09
-4.33669e-09
8.7622e-09
-6.43585e-09
2.23645e-09
-5.34218e-09
-5.84226e-09
3.31405e-09
-5.97302e-09
4.31607e-09
-3.68518e-09
8.42446e-09
-1.84354e-09
-1.2554e-08
3.98059e-09
-1.39845e-09
-2.13949e-10
1.0047e-09
6.85334e-09
3.97217e-10
8.15112e-09
-7.85967e-10
-1.33377e-09
2.74154e-09
5.51426e-09
-1.00994e-08
9.70223e-10
-6.92471e-09
6.35157e-09
-5.9574e-09
7.38961e-09
-2.21816e-09
6.92674e-11
-1.27249e-08
1.36256e-08
-1.24212e-08
1.34949e-08
5.80217e-09
-9.01812e-09
-9.72483e-09
1.00298e-08
3.67548e-09
1.82959e-09
-6.04023e-09
-2.45357e-09
2.91845e-09
-2.42538e-09
-9.93629e-09
-4.81679e-09
1.33337e-08
-5.702e-09
1.10665e-08
-3.94855e-09
-4.58516e-09
-2.5329e-09
-4.16316e-09
3.82294e-09
1.14067e-08
2.13191e-09
-6.56816e-09
-2.34667e-09
6.78295e-09
-8.38641e-09
-7.53705e-10
1.12721e-08
7.1953e-09
-1.03946e-08
-7.49393e-10
9.50388e-09
-1.14961e-08
9.18752e-09
-2.21444e-09
-4.62831e-09
2.74752e-10
-3.87455e-09
-7.92061e-09
8.31263e-09
3.48265e-09
-6.19505e-09
1.0611e-10
-2.16829e-09
-8.60921e-09
2.3911e-09
-6.80935e-09
1.28057e-11
3.03358e-09
-3.54838e-09
-5.6802e-09
-3.11937e-10
-4.57507e-09
1.08506e-08
-7.93778e-09
-7.49802e-09
1.85545e-10
6.50192e-09
1.25731e-08
6.15151e-09
-3.61107e-10
-6.83478e-09
-3.19876e-09
-7.86749e-09
-1.75411e-09
-1.79343e-09
-5.06166e-09
-3.12323e-09
-5.44021e-09
-8.43264e-10
-5.82833e-09
2.52919e-09
2.97321e-09
-6.34566e-09
-5.72056e-09
4.66661e-09
-8.52817e-09
-4.9943e-09
5.41583e-09
-1.95421e-09
-7.7905e-09
4.32915e-09
-8.29703e-10
8.58658e-09
-2.34107e-09
4.73155e-09
-7.51614e-09
8.30501e-10
-2.24995e-09
6.15178e-09
-1.44596e-09
1.78171e-09
4.47725e-10
3.76155e-09
1.33507e-09
-7.16957e-10
-3.19468e-10
4.90969e-09
-6.71192e-09
-5.01428e-09
3.02129e-09
8.95176e-10
1.09781e-09
2.59616e-09
-4.31573e-09
-3.29472e-09
-3.71982e-09
3.33346e-09
3.40765e-09
-9.07325e-10
-2.16358e-10
-5.54863e-09
3.06571e-09
1.57164e-09
9.11337e-10
-2.37095e-10
-5.82418e-09
5.12635e-10
5.14754e-09
-5.14909e-09
3.06735e-09
3.7687e-10
5.95075e-11
-4.7521e-09
4.73958e-09
-4.22524e-09
-1.37446e-10
3.21913e-09
1.98631e-09
-2.60155e-09
-2.92105e-10
-2.77111e-09
-3.0422e-10
5.13677e-10
2.56173e-09
-6.34e-10
-1.50785e-10
-1.18408e-10
-2.7018e-09
2.5831e-09
1.62026e-09
1.61216e-10
-2.0856e-09
-2.66044e-09
-3.20266e-10
4.25495e-09
-7.15384e-10
3.52688e-09
-3.91112e-09
-6.47511e-09
2.30984e-09
8.07639e-09
2.63778e-09
-1.18923e-08
5.34351e-09
-1.43166e-08
-3.6228e-09
1.14643e-08
-5.34414e-09
-6.72987e-09
-2.24261e-09
2.54625e-09
-7.17662e-09
7.26817e-09
-3.28244e-09
8.13854e-09
-1.33798e-08
1.42491e-08
-8.04587e-09
7.10225e-09
-7.09082e-09
3.95269e-09
-3.96411e-09
-9.93119e-09
-7.3053e-09
4.14225e-09
-5.4534e-09
-5.41872e-09
-1.47282e-10
6.66681e-10
-2.53858e-09
-4.24744e-10
-3.19098e-10
-5.93275e-09
-2.18904e-09
-5.25798e-09
-9.40132e-09
6.87176e-09
-3.40319e-09
-5.93619e-09
-6.18404e-09
-1.04851e-08
-9.04497e-10
-3.22784e-09
5.41975e-10
-1.04141e-08
-1.27809e-08
1.20738e-08
1.11211e-08
-1.41115e-08
5.48715e-09
-1.78979e-09
1.29139e-08
2.56298e-10
5.38744e-09
-1.85576e-08
1.49961e-08
9.04511e-09
-1.11273e-08
-9.43659e-09
1.03974e-08
3.89622e-09
-4.85703e-09
4.23862e-09
-1.34189e-08
-2.40586e-09
-2.05226e-09
-8.32285e-09
-1.22788e-08
2.91414e-09
8.76734e-09
-1.28402e-09
8.15069e-09
2.50616e-10
3.1215e-09
1.0941e-08
-1.98867e-09
9.47511e-09
1.79707e-09
3.28312e-09
1.80837e-09
4.38359e-09
4.47595e-09
9.74816e-09
2.2225e-10
1.31028e-08
-8.8491e-09
-4.06113e-09
-7.79004e-09
1.21625e-08
-8.82737e-09
1.24127e-08
1.47459e-08
1.3419e-08
-4.77605e-10
-9.52828e-09
7.27555e-09
-7.94789e-09
7.5361e-09
-7.3782e-09
-4.67898e-09
3.91808e-09
7.92119e-10
-1.18173e-08
-8.69454e-09
1.34523e-08
7.05951e-09
-9.51393e-09
-3.51563e-09
1.21233e-09
1.42382e-08
-1.67983e-08
-6.9538e-09
-2.55925e-09
8.10295e-09
-1.26544e-08
-5.99798e-10
9.73861e-09
1.39993e-08
8.9835e-10
-2.04629e-09
-1.28513e-08
-2.07179e-09
3.41671e-09
-9.10152e-09
6.45168e-09
5.78157e-10
-4.44681e-10
-7.75852e-09
9.83901e-09
-1.2119e-09
-9.07172e-09
6.15963e-09
4.4415e-09
-7.62116e-10
-1.89363e-09
-1.6951e-08
-1.20509e-08
3.55385e-09
4.11131e-09
4.38583e-09
5.60377e-10
1.72793e-08
3.8271e-10
-1.88739e-08
1.69842e-08
4.73664e-09
1.78536e-08
-1.93645e-08
6.13162e-09
9.16271e-09
9.42492e-09
-5.28802e-09
1.28473e-08
8.04642e-09
7.51011e-09
2.43071e-10
4.53546e-09
-2.31428e-10
6.07846e-09
3.98382e-10
-8.46197e-09
-5.58705e-09
3.06195e-09
1.09871e-08
-9.58229e-09
1.28e-10
9.92353e-10
-8.67154e-09
-4.97614e-09
8.06071e-09
-4.5639e-09
-8.30559e-09
1.42053e-08
-1.8636e-08
1.27364e-08
1.34132e-08
2.44128e-09
-2.416e-08
-5.60091e-09
8.18684e-10
1.89876e-08
-3.69938e-09
1.15117e-08
8.42398e-09
-1.00488e-08
1.75281e-09
1.23046e-08
-3.19542e-10
7.48728e-09
-8.86865e-09
9.87445e-09
-3.01152e-09
2.00578e-09
-1.20615e-08
3.15783e-09
3.93663e-10
-1.13694e-08
-7.66019e-09
5.85554e-09
-6.01756e-09
-3.51048e-09
-5.07474e-09
3.99946e-09
4.58571e-09
-2.48464e-09
-1.76117e-10
-8.49785e-10
-8.21376e-09
-4.74159e-10
3.61314e-09
-5.34724e-09
-5.35115e-09
-6.62113e-09
7.66835e-09
6.26462e-09
-7.3119e-09
3.44947e-09
-3.17633e-09
-2.17142e-09
1.89823e-09
5.27848e-09
-2.00519e-09
2.47339e-09
1.05576e-09
2.21825e-09
4.25458e-09
-7.36246e-09
4.02557e-09
2.86274e-09
-3.93559e-09
-8.7741e-09
-5.26215e-09
6.51373e-09
-9.47005e-09
8.21841e-09
-4.20788e-09
4.02259e-09
4.21085e-09
5.80189e-09
-1.08779e-10
3.80894e-10
1.21309e-09
-8.9542e-09
1.93433e-10
7.13392e-09
1.62678e-09
-1.22266e-09
-1.55962e-08
7.86466e-09
2.40092e-09
1.1029e-08
-1.32365e-08
6.77682e-09
-1.1577e-08
7.69632e-09
-2.8962e-09
-5.86954e-09
4.9356e-09
-4.80353e-09
5.73749e-09
6.57661e-09
-1.36688e-08
-6.45614e-09
1.25561e-08
-1.16441e-09
9.63884e-09
-9.51836e-09
6.54865e-09
4.08605e-09
1.92136e-09
-8.06308e-09
5.35815e-09
9.25351e-09
5.73477e-09
3.5283e-11
1.36386e-09
-2.1927e-10
-5.47655e-09
1.14306e-08
1.61106e-09
-4.94335e-09
1.00822e-08
3.74364e-09
-4.60095e-09
-1.06624e-08
-5.55243e-10
1.95826e-08
-8.36495e-09
-1.98587e-08
-9.40494e-09
1.86014e-08
8.8967e-09
-1.06082e-08
1.88735e-09
-1.75919e-10
7.68017e-09
1.35433e-09
3.23299e-09
-1.22675e-08
2.36565e-10
-3.13959e-10
7.75757e-09
9.41703e-11
-9.99224e-09
9.49239e-09
4.05682e-10
1.3308e-08
-6.5885e-09
-6.08573e-09
-6.33799e-10
-7.33382e-09
1.03912e-09
-1.3564e-08
-5.81586e-09
-1.64874e-08
1.49695e-08
1.09655e-08
-1.54271e-08
1.17878e-08
-5.85662e-10
7.62805e-10
-1.50591e-08
4.89142e-09
-4.81463e-09
1.31561e-08
-2.40207e-09
9.47552e-09
3.46267e-09
4.48269e-09
-7.83818e-09
-9.5373e-09
6.40355e-09
2.98215e-09
-3.82693e-09
4.33373e-09
-1.05183e-09
5.45048e-10
-1.41181e-09
1.54621e-09
-3.96131e-09
-2.21832e-09
-2.53337e-09
-5.34467e-10
5.28619e-09
-2.03348e-09
-2.05885e-09
1.87404e-09
-1.51383e-09
-3.3825e-10
-1.81333e-10
8.8871e-10
1.38619e-09
2.2836e-09
-5.28372e-10
-3.16703e-09
-2.82058e-10
-2.13636e-09
-2.82253e-09
2.42559e-09
-2.24334e-09
-2.31246e-10
-3.37338e-09
-3.34039e-09
6.17933e-09
5.77923e-09
-3.57301e-09
-6.6e-10
3.29457e-09
-4.02612e-10
3.99955e-09
-6.93732e-09
2.47493e-09
-5.70004e-09
-2.81311e-10
-6.58522e-09
4.53955e-09
2.32699e-09
1.75114e-09
-2.56081e-09
-2.25663e-10
-2.66528e-10
2.36513e-09
-1.72067e-09
-4.74068e-09
4.09601e-09
1.01039e-09
-4.5856e-09
5.94019e-09
-7.36347e-10
-7.08586e-10
-1.01567e-08
1.16015e-08
5.74609e-09
6.83424e-09
-5.40051e-09
-7.17989e-09
6.86432e-10
6.29513e-09
-1.23554e-09
-9.37091e-09
6.61354e-09
1.16729e-08
-8.91557e-09
-3.74388e-10
-8.31014e-09
-6.98961e-09
8.21374e-10
4.4475e-09
-2.31491e-09
1.62038e-09
4.92702e-09
-4.07764e-10
4.90315e-10
-3.04101e-10
1.17072e-09
-7.30764e-09
1.28749e-08
-1.3045e-09
-1.2279e-08
7.19363e-09
6.57742e-09
-8.96243e-10
-8.53529e-10
-4.85713e-09
6.721e-09
6.58133e-09
-5.94612e-09
-3.35208e-09
4.71248e-09
-4.94278e-09
-5.13115e-10
7.49252e-09
-7.62637e-09
-7.82388e-09
1.33615e-09
3.13553e-09
-5.27416e-09
3.67266e-09
1.12581e-08
-7.17781e-09
6.76989e-09
-1.08502e-08
1.05589e-08
-1.68455e-08
-7.40602e-09
1.36925e-08
-1.0388e-08
7.38521e-09
1.42608e-08
-6.9262e-11
2.91803e-09
-1.32368e-08
6.94481e-10
2.68658e-09
-4.80868e-10
8.60591e-09
7.93812e-09
-1.60632e-08
7.10846e-09
-1.44812e-08
6.89187e-09
7.06813e-09
-1.53077e-08
-1.09664e-09
-3.73209e-09
1.18968e-08
-5.44505e-09
-2.15321e-09
1.49834e-08
-1.13159e-08
7.39221e-09
4.61814e-09
-4.55607e-09
1.17828e-09
1.11595e-08
-5.14761e-09
-9.5274e-09
-4.04884e-09
8.13118e-09
1.56279e-09
-4.40671e-09
6.2106e-09
1.28407e-08
-1.46446e-08
6.74402e-09
-1.51996e-08
1.14496e-08
4.01742e-09
7.32598e-10
-7.60832e-09
3.89724e-09
-7.75402e-09
-5.42329e-09
1.83807e-08
-9.06026e-09
-6.08607e-09
1.64943e-08
-1.58316e-08
9.71164e-09
-2.00934e-09
-1.43842e-08
9.008e-09
3.70783e-09
-9.0613e-09
2.66789e-09
-5.57825e-10
-7.26079e-09
1.00799e-09
-5.07635e-09
-3.1636e-09
-2.62847e-09
-1.09861e-09
6.8907e-09
-1.62676e-08
7.58106e-09
2.26225e-09
6.42418e-09
8.73335e-10
-7.89486e-09
-9.24605e-09
-1.3801e-08
-1.00199e-08
1.92222e-08
4.59838e-09
-8.94929e-09
4.47115e-09
-9.32307e-09
2.01968e-08
-9.7661e-09
-9.55741e-09
1.16361e-08
1.61417e-08
7.14801e-09
-9.72143e-09
-5.90455e-10
5.51318e-09
-4.80849e-09
6.44317e-09
-7.60002e-09
-5.32558e-09
1.02971e-08
-1.14451e-08
6.10728e-09
-6.05302e-09
-1.32869e-08
1.2232e-08
-2.6544e-09
-7.55411e-09
-5.78188e-09
9.3337e-09
1.56703e-08
-4.84328e-10
-8.26682e-10
2.27835e-08
-1.81374e-09
-6.56796e-09
-1.07559e-08
7.60236e-09
-1.52754e-08
-3.14542e-09
5.01928e-09
-1.27649e-08
1.0891e-08
-1.7678e-08
5.32723e-09
9.20521e-09
-7.04978e-09
-2.70911e-09
-7.91917e-09
-5.90244e-09
-1.42545e-08
1.3107e-08
-9.59228e-10
-7.54401e-09
1.35224e-08
-9.98431e-09
1.1336e-09
-2.28719e-08
1.58358e-08
1.33081e-08
-7.12479e-09
-8.89266e-09
-7.69304e-09
-1.09059e-08
7.73762e-09
6.54774e-09
-3.37954e-09
5.11993e-09
-1.48923e-08
1.27454e-08
-1.47503e-08
3.64666e-09
1.40561e-09
3.84021e-09
-6.952e-09
-4.80623e-10
-7.65857e-10
8.19846e-09
-6.08317e-09
9.01566e-09
-9.88451e-09
-6.2473e-09
1.3849e-09
-3.705e-09
8.56738e-09
-4.5702e-09
-1.25261e-08
2.21965e-08
-5.1003e-09
-5.96489e-09
-1.10431e-08
-6.58518e-09
1.6555e-09
-1.0353e-09
1.0826e-08
-5.49058e-09
1.13493e-08
-1.66849e-08
2.68913e-09
5.30453e-09
2.83222e-09
7.40862e-10
-8.50952e-09
2.27795e-09
6.93959e-09
-9.0895e-09
2.89072e-09
2.94933e-09
5.22767e-10
-9.71943e-09
-1.07211e-08
7.09226e-09
-8.89739e-09
-1.67861e-08
7.62527e-09
1.18499e-08
4.91569e-09
-1.03525e-08
1.66869e-09
-1.13902e-08
1.88542e-10
-3.39764e-09
-5.1382e-09
1.34515e-08
-7.8483e-09
8.24587e-09
5.68001e-09
-2.79058e-09
-1.11352e-08
3.31623e-09
3.2918e-09
1.63794e-09
-1.09001e-08
7.83125e-09
6.38515e-09
2.58744e-09
-7.80747e-09
7.39927e-09
-6.19822e-09
8.23495e-09
-9.43591e-09
1.02678e-08
4.23376e-10
2.19144e-09
-1.11802e-08
-1.76251e-09
3.59838e-09
5.99542e-09
-6.9345e-09
5.04235e-09
1.216e-08
8.09727e-10
4.90745e-10
-5.59617e-09
-2.98129e-09
4.30424e-09
4.27327e-09
-1.28962e-09
-4.70572e-09
3.99217e-10
-6.15147e-09
-6.11078e-09
6.38867e-09
5.87364e-09
-7.73218e-09
2.91124e-10
-3.78148e-09
-3.06608e-09
2.14192e-09
4.57818e-09
-9.3219e-09
-5.1673e-09
-1.33717e-10
-6.79429e-09
-6.10516e-09
-1.171e-09
-8.38431e-09
9.55397e-09
1.19757e-09
-1.47018e-08
3.95018e-09
2.55858e-09
-5.647e-09
1.26424e-08
-5.55392e-09
-5.6719e-09
4.59461e-09
6.63113e-09
-7.14248e-09
2.78612e-09
2.82841e-09
-8.07545e-09
-1.89548e-09
-3.63614e-09
7.92635e-10
2.88516e-09
-6.29077e-09
6.98872e-09
-3.58312e-09
-3.78355e-09
6.87594e-09
-2.07178e-10
2.53627e-09
-6.21797e-09
-1.10201e-08
-2.00669e-09
9.15987e-09
2.18484e-08
-6.31151e-09
-1.30006e-08
1.14698e-10
1.60866e-08
-4.60144e-09
-9.69197e-09
-9.75974e-10
-7.409e-09
5.38596e-09
-1.26527e-08
2.63262e-09
6.07152e-10
4.0985e-09
6.0156e-09
-3.12545e-09
5.8294e-09
9.01719e-10
-1.0713e-08
2.90392e-09
7.92374e-09
-1.16386e-08
4.68211e-09
4.23731e-09
8.50481e-09
7.60606e-09
1.49764e-09
-9.69433e-09
7.23308e-09
8.06893e-09
-7.69618e-09
6.84352e-09
7.67065e-11
3.12409e-10
2.71797e-09
-1.59073e-09
1.48579e-08
-1.59852e-08
7.77152e-09
-4.87007e-09
-8.72196e-09
5.82041e-09
6.25222e-09
-5.85326e-09
-1.317e-08
8.22895e-09
1.17844e-08
-4.10183e-09
-9.99309e-10
-1.12328e-08
-8.49754e-10
1.48004e-08
3.11406e-09
-7.90905e-09
-6.43799e-09
6.36281e-09
-9.41315e-09
-1.05158e-09
4.17148e-09
-3.61857e-09
5.80968e-09
1.15506e-08
1.57995e-08
-2.72228e-09
-5.30581e-09
1.05902e-08
-5.88321e-09
-3.03389e-09
2.50141e-09
-6.8845e-09
7.41681e-09
-9.36507e-10
-4.03217e-09
1.93463e-09
2.09181e-09
-3.47116e-09
-2.99194e-09
4.37119e-09
-3.43767e-09
8.03091e-09
-5.84449e-09
1.43678e-09
-4.33454e-09
-5.74338e-09
3.19328e-09
-6.87406e-09
-1.49269e-09
2.41062e-10
5.22707e-09
-4.96468e-09
-5.03648e-10
1.23175e-12
-6.63431e-09
-2.9691e-09
-8.60093e-09
8.13232e-09
-9.36909e-09
-1.45508e-09
8.37572e-10
7.32579e-09
-7.57684e-09
-1.20424e-09
-7.84422e-09
2.34925e-09
-1.04022e-08
3.08793e-09
8.96963e-09
-1.41973e-08
7.11332e-09
-5.98794e-09
1.95923e-09
-2.03285e-09
-5.66988e-09
4.71576e-10
1.62658e-09
-4.19262e-09
-3.90881e-10
-3.05439e-09
-3.92802e-10
4.29788e-09
3.87238e-09
3.3461e-10
7.74113e-09
-4.07582e-09
6.32577e-10
-1.01417e-09
7.57857e-09
-7.05925e-09
4.94873e-10
6.77202e-09
3.5233e-10
1.38403e-09
6.41946e-09
-7.45033e-09
-3.53205e-10
-5.12798e-09
6.65681e-09
-1.44792e-10
2.98601e-10
6.62782e-09
-7.93808e-09
1.01165e-09
-7.33665e-09
6.73598e-09
8.99264e-10
3.38241e-09
2.55777e-09
-5.96335e-09
2.30985e-11
5.49464e-09
-2.31888e-09
2.06611e-10
1.48734e-09
4.97234e-09
-7.03888e-09
5.79235e-10
-5.20842e-09
5.90608e-10
3.82225e-09
3.06756e-09
-7.50664e-09
6.16883e-10
-3.38176e-09
6.58193e-09
6.22108e-10
-7.97032e-09
4.20848e-09
3.80099e-10
1.9541e-09
4.29313e-09
-5.74174e-09
-5.05442e-10
-3.19213e-09
5.49085e-09
-3.44655e-10
-2.22146e-09
-2.57459e-09
5.25128e-09
-4.55249e-10
3.83634e-09
-5.29837e-09
-7.59374e-10
2.56043e-09
-4.72483e-09
-4.10164e-10
-1.76796e-09
6.06152e-09
-4.57187e-10
2.87402e-09
-7.98182e-09
5.93825e-09
-8.3047e-10
-4.35763e-09
7.6693e-09
-4.37661e-10
1.40481e-09
2.17046e-09
-3.24313e-09