/*--------------------------------*- C++ -*----------------------------------*\
| =========                 |                                                 |
| \\      /  F ield         | OpenFOAM: The Open Source CFD Toolbox           |
|  \\    /   O peration     | Version:  v1612+                                |
|   \\  /    A nd           | Web:      www.OpenFOAM.com                      |
|    \\/     M anipulation  |                                                 |
\*---------------------------------------------------------------------------*/
FoamFile
{
    version     2.0;
    format      ascii;
    class       volVectorField;
    location    "100";
    object      U;
}
// * * * * * * * * * * * * * * * * * * * * * * * * * * * * * * * * * * * * * //

dimensions      [0 1 -1 0 0 0 0];

internalField   nonuniform List<vector> 
16937
(
(-0.620345 0.337112 -0.239558)
(-0.192645 0.668742 -0.344721)
(-0.737484 0.653381 -0.475406)
(-0.932511 0.34142 -0.345406)
(-0.756425 0.476701 -0.368925)
(-0.676992 0.52595 -0.321292)
(-0.771058 0.486808 -0.368873)
(-0.736255 0.501841 -0.341643)
(-0.760541 0.474231 -0.356007)
(-0.694069 0.510739 -0.326115)
(-0.701759 0.512105 -0.31991)
(-0.67243 0.527428 -0.304951)
(-0.75614 0.465454 -0.333289)
(-0.686612 0.497317 -0.28286)
(-0.668543 0.498902 -0.260446)
(-0.645754 0.486418 -0.250511)
(-0.630008 0.521329 -0.27572)
(-0.74882 0.49078 -0.327667)
(-0.688174 0.50506 -0.290538)
(-0.732449 0.470946 -0.300456)
(-0.626692 0.501266 -0.237961)
(-0.605549 0.500386 -0.226306)
(-0.685692 0.575511 -0.303231)
(-0.673588 0.57876 -0.30398)
(-0.649422 0.575063 -0.306725)
(-0.756725 0.540454 -0.364452)
(-0.738192 0.551956 -0.351828)
(-0.727539 0.544123 -0.340318)
(-0.730544 0.532513 -0.326363)
(-0.638132 0.593253 -0.268187)
(-0.686776 0.594571 -0.324635)
(-0.630612 0.590024 -0.286405)
(-0.714317 0.571213 -0.344103)
(-0.640122 0.597102 -0.29244)
(-0.592727 0.587083 -0.263391)
(-0.897674 0.491709 -0.451339)
(-0.833407 0.468098 -0.419963)
(-0.907948 0.505837 -0.462366)
(-0.84154 0.485389 -0.442684)
(-0.916593 0.484151 -0.442044)
(-0.853795 0.471155 -0.434727)
(-0.904777 0.465719 -0.446087)
(-0.800956 0.482563 -0.428877)
(-0.955924 0.512713 -0.466567)
(-0.949631 0.500264 -0.453457)
(-0.912587 0.493552 -0.478992)
(-0.949895 0.472193 -0.492344)
(-0.961956 0.480723 -0.468786)
(-0.896398 0.50359 -0.480487)
(-0.865769 0.481491 -0.466858)
(-0.87044 0.500132 -0.481629)
(-0.89427 0.49733 -0.476614)
(-0.955152 0.5055 -0.508475)
(-0.983989 0.470729 -0.50401)
(-0.90799 0.378057 -0.41895)
(-0.858575 0.423911 -0.380368)
(-1.00888 0.373059 -0.441744)
(-0.977941 0.365372 -0.433994)
(-0.847543 0.407797 -0.392602)
(-0.881748 0.455436 -0.366781)
(-0.926719 0.432127 -0.357628)
(-0.884953 0.442572 -0.348099)
(-0.939864 0.363506 -0.430744)
(-0.886759 0.434545 -0.367176)
(-0.966378 0.352736 -0.430977)
(-0.993119 0.375331 -0.422778)
(-0.987924 0.355992 -0.439732)
(-0.93871 0.346881 -0.42863)
(-0.914251 0.404596 -0.404473)
(-0.890373 0.385692 -0.408728)
(-0.986983 0.54352 -0.390386)
(-0.942984 0.545168 -0.357572)
(-0.984136 0.523073 -0.410351)
(-0.961318 0.540656 -0.389641)
(-0.97638 0.512083 -0.376122)
(-0.927765 0.535674 -0.337658)
(-0.988662 0.525342 -0.437293)
(-0.981808 0.512619 -0.409177)
(-0.955732 0.532696 -0.384207)
(-0.962161 0.510873 -0.375244)
(-1.00922 0.501798 -0.415808)
(-0.989216 0.508833 -0.399783)
(-0.994966 0.495484 -0.431646)
(-0.988512 0.502195 -0.409493)
(-0.870742 0.608805 -0.286415)
(-0.816939 0.635047 -0.250287)
(-0.815855 0.62188 -0.200167)
(-0.703483 0.624778 -0.160909)
(-0.670802 0.644292 -0.149823)
(-0.83718 0.622011 -0.263557)
(-0.66891 0.662364 -0.151576)
(-0.634545 0.651073 -0.126959)
(-0.771477 0.629124 -0.189307)
(-0.675146 0.637066 -0.14289)
(-0.853668 0.623441 -0.274228)
(-0.837179 0.658367 -0.270868)
(-0.709531 0.675681 -0.168891)
(-0.682413 0.644698 -0.143248)
(-0.774576 0.634651 -0.19766)
(-0.733814 0.64574 -0.184715)
(-0.694332 0.637735 -0.151425)
(-0.835993 0.58749 -0.325926)
(-0.862352 0.619607 -0.314559)
(-0.905571 0.598103 -0.340879)
(-0.888568 0.631299 -0.319375)
(-0.821072 0.660788 -0.269558)
(-0.819769 0.647354 -0.294978)
(-0.805273 0.664206 -0.230574)
(-0.810269 0.645396 -0.23675)
(-0.887344 0.650347 -0.29365)
(-0.870419 0.661965 -0.291911)
(-0.765488 0.632674 -0.208221)
(-0.870898 0.64942 -0.27777)
(-0.472951 0.29377 -0.333199)
(-0.465945 0.286749 -0.334545)
(-0.369694 0.281648 -0.291676)
(-0.348288 0.278992 -0.281203)
(-0.492803 0.340596 -0.34628)
(-0.394307 0.336077 -0.310258)
(-0.376473 0.299757 -0.300969)
(-0.410155 0.308809 -0.307324)
(-0.334646 0.275732 -0.274961)
(-0.290759 0.269253 -0.253735)
(-0.368531 0.349925 -0.289962)
(-0.391638 0.317426 -0.29754)
(-0.370604 0.331358 -0.284995)
(-0.296684 0.29626 -0.245322)
(-0.615982 0.231547 -0.300301)
(-0.593095 0.235608 -0.309846)
(-0.677551 0.251173 -0.349221)
(-0.637445 0.240654 -0.331319)
(-0.721068 0.287147 -0.382096)
(-0.723252 0.322743 -0.37485)
(-0.698549 0.290812 -0.376754)
(-0.715064 0.327512 -0.377727)
(-0.665404 0.267665 -0.35609)
(-0.705307 0.322354 -0.376933)
(-0.611214 0.249025 -0.30412)
(-0.590778 0.244577 -0.27467)
(-0.699308 0.338323 -0.351495)
(-0.654893 0.317737 -0.321858)
(-0.600662 0.239982 -0.299733)
(-0.682029 0.320658 -0.322317)
(-0.680354 0.351984 -0.312752)
(-0.723452 0.358832 -0.367284)
(-0.367029 0.310616 -0.288727)
(-0.353794 0.307775 -0.294338)
(-0.310288 0.299129 -0.281954)
(-0.285553 0.29653 -0.280133)
(-0.282009 0.279499 -0.252367)
(-0.265296 0.270057 -0.247494)
(-0.347898 0.267327 -0.252624)
(-0.321164 0.268434 -0.238383)
(-0.327229 0.297704 -0.279751)
(-0.371765 0.301597 -0.273122)
(-0.267951 0.271913 -0.253572)
(-0.323065 0.281313 -0.248426)
(-0.321054 0.273934 -0.241665)
(-0.306016 0.275893 -0.259971)
(-0.290151 0.272747 -0.24602)
(-0.353331 0.273812 -0.24883)
(-0.337236 0.275455 -0.24517)
(-0.779632 0.650835 -0.333315)
(-0.779084 0.692117 -0.306437)
(-0.815502 0.68179 -0.336045)
(-0.796034 0.715359 -0.284564)
(-0.814777 0.649904 -0.350206)
(-0.844842 0.648075 -0.365988)
(-0.761472 0.661518 -0.332568)
(-0.803619 0.684307 -0.347365)
(-0.809332 0.67212 -0.336326)
(-0.785479 0.708243 -0.314053)
(-0.794438 0.734862 -0.298032)
(-0.742497 0.727103 -0.276937)
(-0.744456 0.729615 -0.324862)
(-0.657778 0.735373 -0.205024)
(-0.670308 0.743613 -0.22572)
(-0.804263 0.721103 -0.323846)
(-0.780344 0.739996 -0.285883)
(-0.80431 0.723836 -0.286547)
(-0.700921 0.723213 -0.210541)
(-0.675256 0.739218 -0.211348)
(-0.79551 0.71507 -0.293484)
(-0.724603 0.726901 -0.286326)
(-0.763141 0.739081 -0.219705)
(-0.763685 0.722257 -0.243194)
(-0.484035 0.236553 -0.288728)
(-0.52381 0.29483 -0.327741)
(-0.515475 0.292965 -0.330779)
(-0.478923 0.231019 -0.28639)
(-0.506034 0.218866 -0.300999)
(-0.533911 0.265358 -0.308075)
(-0.572105 0.298969 -0.335446)
(-0.481586 0.280021 -0.321688)
(-0.487645 0.29597 -0.335994)
(-0.531494 0.230937 -0.302222)
(-0.483289 0.279302 -0.321628)
(-0.532703 0.26358 -0.325117)
(-0.670158 0.55932 -0.346961)
(-0.674419 0.579443 -0.367602)
(-0.649079 0.517077 -0.358455)
(-0.681222 0.573015 -0.380253)
(-0.651686 0.57213 -0.358779)
(-0.715815 0.567456 -0.407887)
(-0.659806 0.517554 -0.356014)
(-0.588863 0.424067 -0.350808)
(-0.571968 0.400528 -0.321191)
(-0.601054 0.42512 -0.352358)
(-0.64269 0.502445 -0.372983)
(-0.624969 0.510011 -0.377066)
(-0.707166 0.603974 -0.419215)
(-0.661637 0.548185 -0.391258)
(-0.650506 0.539965 -0.397528)
(-0.723399 0.610106 -0.427274)
(-0.601161 0.434314 -0.344442)
(-0.628455 0.551531 -0.387041)
(-0.577893 0.372418 -0.34804)
(-0.591752 0.410829 -0.363442)
(-0.570789 0.36367 -0.333604)
(-0.594063 0.365957 -0.340939)
(-0.692405 0.444783 -0.350719)
(-0.667056 0.425364 -0.362603)
(-0.696614 0.481104 -0.342842)
(-0.717211 0.45708 -0.3695)
(-0.678138 0.461364 -0.341586)
(-0.632416 0.382826 -0.356172)
(-0.660731 0.372059 -0.357846)
(-0.649135 0.372893 -0.359153)
(-0.716106 0.459114 -0.361868)
(-0.70397 0.44251 -0.364731)
(-0.687075 0.455885 -0.34566)
(-0.660064 0.399255 -0.367643)
(-0.900967 0.604796 -0.283673)
(-0.891625 0.615279 -0.316985)
(-0.883799 0.616215 -0.314949)
(-0.909755 0.622578 -0.3028)
(-0.868184 0.648355 -0.301547)
(-0.888568 0.589614 -0.347388)
(-0.893138 0.563161 -0.350947)
(-0.865033 0.626049 -0.281212)
(-0.903879 0.620055 -0.334493)
(-0.865291 0.638466 -0.305434)
(-0.896043 0.577189 -0.378063)
(-0.905185 0.61652 -0.33308)
(-0.646591 0.468391 -0.23876)
(-0.628406 0.477866 -0.1979)
(-0.684553 0.461691 -0.283611)
(-0.769808 0.455329 -0.318019)
(-0.760489 0.457686 -0.298252)
(-0.837421 0.449514 -0.337619)
(-0.633404 0.47602 -0.218677)
(-0.590616 0.461911 -0.188925)
(-0.683578 0.473282 -0.248437)
(-0.609605 0.491328 -0.203126)
(-0.709754 0.476567 -0.237601)
(-0.665802 0.473303 -0.211691)
(-0.581034 0.493058 -0.178817)
(-0.779412 0.473912 -0.246684)
(-0.686144 0.480066 -0.192443)
(-0.602157 0.475095 -0.182866)
(-0.725891 0.474313 -0.224491)
(-0.621653 0.478479 -0.181348)
(-0.58413 0.331243 -0.360179)
(-0.550146 0.384354 -0.34559)
(-0.396205 0.32973 -0.285116)
(-0.412624 0.294764 -0.303553)
(-0.377228 0.317849 -0.289425)
(-0.400037 0.301654 -0.300255)
(-0.488372 0.285004 -0.335914)
(-0.574692 0.32813 -0.362567)
(-0.588589 0.332504 -0.36214)
(-0.581318 0.378875 -0.351924)
(-0.478996 0.375459 -0.315845)
(-0.517735 0.283426 -0.347678)
(-0.557527 0.357003 -0.359328)
(-0.531242 0.384377 -0.347395)
(-0.75048 0.43984 -0.292987)
(-0.767085 0.45119 -0.343368)
(-0.770914 0.482824 -0.331943)
(-0.739332 0.44512 -0.282109)
(-0.748242 0.461624 -0.286204)
(-0.762243 0.432063 -0.310917)
(-0.786106 0.398386 -0.360987)
(-0.730961 0.311982 -0.333821)
(-0.801577 0.420533 -0.401314)
(-0.780453 0.416933 -0.391459)
(-0.709544 0.348537 -0.313792)
(-0.708075 0.327358 -0.343804)
(-0.744369 0.44525 -0.301909)
(-0.703886 0.340249 -0.294571)
(-0.757559 0.36561 -0.346292)
(-0.714124 0.306777 -0.340969)
(-0.71953 0.311132 -0.367297)
(-0.859733 0.539611 -0.504926)
(-0.786794 0.528732 -0.484342)
(-0.75608 0.520063 -0.47398)
(-0.696589 0.52957 -0.450244)
(-0.785453 0.537888 -0.481305)
(-0.73796 0.536845 -0.47166)
(-0.913732 0.501717 -0.518277)
(-0.904282 0.515543 -0.5178)
(-0.780697 0.550506 -0.477872)
(-0.749337 0.544518 -0.460767)
(-0.868072 0.531857 -0.507124)
(-0.875732 0.531103 -0.503807)
(-0.695905 0.548187 -0.441591)
(-0.78723 0.555053 -0.484986)
(-0.744164 0.571619 -0.461766)
(-0.246789 0.439262 -0.370451)
(-0.237147 0.488766 -0.37435)
(-0.222842 0.458285 -0.370156)
(-0.171948 0.442514 -0.364462)
(-0.178755 0.469962 -0.360575)
(-0.146396 0.410472 -0.339794)
(-0.743955 0.804205 -0.375182)
(-0.690372 0.790784 -0.362698)
(-0.737617 0.828833 -0.387688)
(-0.730521 0.824634 -0.388063)
(-0.769132 0.773992 -0.380072)
(-0.733528 0.814116 -0.365944)
(-0.713654 0.767038 -0.347451)
(-0.725374 0.739298 -0.343576)
(-0.695856 0.778503 -0.356651)
(-0.735467 0.824531 -0.408383)
(-0.716009 0.807638 -0.389333)
(-0.693712 0.7805 -0.377284)
(-0.653922 0.763012 -0.353012)
(-0.768944 0.804305 -0.394686)
(-0.787339 0.770838 -0.408098)
(-0.709042 0.764871 -0.345731)
(-0.757765 0.800553 -0.385959)
(-0.704544 0.785492 -0.404754)
(-0.678532 0.751381 -0.373964)
(-0.742721 0.780262 -0.402359)
(-0.72133 0.774233 -0.390798)
(-0.695185 0.736697 -0.363147)
(-0.666168 0.731014 -0.343426)
(-0.763191 0.806801 -0.39758)
(-0.784767 0.804959 -0.408896)
(-0.760316 0.816462 -0.407119)
(-0.63446 0.444031 -0.360052)
(-0.695102 0.484478 -0.409348)
(-0.67115 0.536434 -0.350077)
(-0.660067 0.496194 -0.367963)
(-0.664526 0.513256 -0.348403)
(-0.565233 0.428259 -0.325649)
(-0.763643 0.544811 -0.417653)
(-0.662419 0.435766 -0.375616)
(-0.592592 0.394173 -0.324373)
(-0.712411 0.497204 -0.390126)
(-0.652939 0.477723 -0.34112)
(-0.563917 0.376946 -0.318882)
(-0.724361 0.523056 -0.401612)
(-0.665484 0.56032 -0.364177)
(-0.671113 0.512965 -0.348279)
(-0.743778 0.572325 -0.374656)
(-0.658813 0.478524 -0.343035)
(-0.772857 0.446825 -0.346602)
(-0.754527 0.449873 -0.311377)
(-0.903888 0.429355 -0.354787)
(-0.833477 0.444691 -0.321969)
(-0.9147 0.362947 -0.417607)
(-0.849675 0.402287 -0.370794)
(-0.832859 0.42525 -0.375618)
(-0.819359 0.414773 -0.352345)
(-0.774599 0.432259 -0.318646)
(-0.840689 0.423082 -0.327715)
(-0.918931 0.402249 -0.373746)
(-0.785948 0.448474 -0.347819)
(-0.749467 0.440352 -0.310203)
(-0.849507 0.440154 -0.338041)
(-0.966003 0.351606 -0.426919)
(-0.917536 0.403378 -0.393118)
(-0.866256 0.354075 -0.413507)
(-1.01297 0.359656 -0.471457)
(-0.832869 0.379899 -0.390136)
(-0.95641 0.361492 -0.427237)
(-0.697359 0.66251 -0.346594)
(-0.719303 0.697189 -0.353435)
(-0.783695 0.720004 -0.372561)
(-0.769108 0.717892 -0.385268)
(-0.663709 0.582125 -0.343814)
(-0.648451 0.537986 -0.345464)
(-0.6277 0.506546 -0.333471)
(-0.765817 0.724695 -0.369508)
(-0.736144 0.637434 -0.369923)
(-0.759097 0.657331 -0.36698)
(-0.749783 0.668983 -0.376791)
(-0.755707 0.666653 -0.374367)
(-0.692862 0.654565 -0.37927)
(-0.665583 0.565455 -0.366544)
(-0.940029 0.293399 -0.361997)
(-0.86054 0.268865 -0.318301)
(-0.923565 0.268031 -0.361623)
(-0.855656 0.281295 -0.312482)
(-0.805938 0.273887 -0.281172)
(-1.0203 0.296545 -0.432741)
(-1.00085 0.291696 -0.418793)
(-0.839151 0.268655 -0.3126)
(-0.911727 0.275963 -0.387296)
(-0.871935 0.2682 -0.353223)
(-0.603157 0.349648 -0.301345)
(-0.577794 0.306279 -0.29297)
(-0.602588 0.384336 -0.251495)
(-0.630219 0.392045 -0.282546)
(-0.624454 0.409156 -0.247451)
(-0.68306 0.464795 -0.29725)
(-0.660917 0.451274 -0.260809)
(-0.701531 0.44588 -0.340408)
(-0.731584 0.471263 -0.388732)
(-0.64212 0.358117 -0.343983)
(-0.635888 0.361937 -0.335109)
(-0.579227 0.317167 -0.267299)
(-0.612212 0.377164 -0.253822)
(-0.675329 0.443578 -0.284596)
(-0.654077 0.434921 -0.256644)
(-0.692254 0.418263 -0.318754)
(-0.69633 0.45236 -0.348981)
(-0.640598 0.357201 -0.328154)
(-0.596721 0.322743 -0.270497)
(-0.627627 0.322855 -0.319984)
(-0.434958 0.310472 -0.12248)
(-0.407758 0.289771 -0.135852)
(-0.375898 0.280198 -0.115393)
(-0.435391 0.324388 -0.117952)
(-0.388842 0.290314 -0.112781)
(-0.519507 0.372983 -0.147919)
(-0.489783 0.35898 -0.127174)
(-0.501241 0.343498 -0.148474)
(-0.485804 0.301163 -0.163707)
(-0.519344 0.313181 -0.167654)
(-0.413117 0.284397 -0.116624)
(-0.428878 0.285469 -0.137614)
(-0.542971 0.376429 -0.161285)
(-0.481743 0.355631 -0.115419)
(-0.460226 0.318395 -0.118255)
(-0.442284 0.309364 -0.11519)
(-0.530695 0.335482 -0.155033)
(-0.523429 0.336462 -0.146871)
(-0.482103 0.327669 -0.116455)
(-0.444829 0.305407 -0.11703)
(-0.751595 0.537135 -0.368481)
(-0.720059 0.613097 -0.362774)
(-0.74863 0.588888 -0.379768)
(-0.716696 0.574558 -0.330992)
(-0.76796 0.577803 -0.399672)
(-0.73609 0.610536 -0.388463)
(-0.709557 0.647494 -0.33239)
(-0.770928 0.58138 -0.424382)
(-0.741804 0.615054 -0.359854)
(-0.787831 0.625542 -0.448308)
(-0.740323 0.638883 -0.412099)
(-0.699335 0.665488 -0.343265)
(-0.770763 0.60752 -0.423172)
(-0.699823 0.644324 -0.383791)
(-0.599482 0.425401 -0.146379)
(-0.586849 0.409469 -0.142127)
(-0.575294 0.464259 -0.137758)
(-0.609043 0.513964 -0.16818)
(-0.561307 0.486221 -0.137469)
(-0.598482 0.44702 -0.144354)
(-0.550646 0.445124 -0.12994)
(-0.631254 0.445441 -0.185367)
(-0.631762 0.499106 -0.193961)
(-0.680283 0.414213 -0.219251)
(-0.682332 0.427077 -0.229312)
(-0.71468 0.490044 -0.260757)
(-0.675602 0.398181 -0.222568)
(-0.653081 0.417157 -0.192452)
(-0.615938 0.501032 -0.174573)
(-0.654743 0.516325 -0.221561)
(-0.720194 0.492007 -0.28426)
(-0.687508 0.46544 -0.234242)
(-0.719974 0.687022 -0.403741)
(-0.729122 0.713914 -0.437928)
(-0.672028 0.603449 -0.423189)
(-0.720278 0.656881 -0.436015)
(-0.743297 0.716731 -0.450611)
(-0.657888 0.612063 -0.412005)
(-0.426296 0.263647 -0.271057)
(-0.426741 0.265225 -0.243644)
(-0.430019 0.252812 -0.2504)
(-0.40646 0.241549 -0.242567)
(-0.450798 0.244744 -0.246247)
(-0.450915 0.259785 -0.270506)
(-0.42766 0.265106 -0.267003)
(-0.439667 0.276874 -0.25423)
(-0.432129 0.257749 -0.221731)
(-0.470597 0.242904 -0.251856)
(-0.493049 0.287251 -0.242128)
(-0.481649 0.2775 -0.222934)
(-0.521558 0.289407 -0.264751)
(-0.501786 0.279889 -0.28049)
(-0.502332 0.274708 -0.232357)
(-0.487221 0.251265 -0.265662)
(-0.521891 0.259886 -0.278318)
(-0.493343 0.283542 -0.232858)
(-0.541943 0.291332 -0.27903)
(-0.512566 0.270539 -0.289421)
(-0.535309 0.272124 -0.256951)
(-0.532001 0.287597 -0.250817)
(-0.642848 0.707776 -0.303366)
(-0.572783 0.741945 -0.28937)
(-0.474523 0.761212 -0.189931)
(-0.541611 0.772392 -0.196413)
(-0.643478 0.737056 -0.287653)
(-0.692663 0.735077 -0.287996)
(-0.466924 0.754209 -0.156467)
(-0.471582 0.75461 -0.191886)
(-0.451582 0.743496 -0.174183)
(-0.591134 0.773934 -0.192337)
(-0.512511 0.751959 -0.167453)
(-0.50631 0.744735 -0.179393)
(-0.492719 0.741592 -0.223598)
(-0.577547 0.715862 -0.288691)
(-0.576635 0.721037 -0.296884)
(-0.633079 0.752282 -0.279028)
(-0.495988 0.772906 -0.222289)
(-0.694674 0.699306 -0.29386)
(-0.690035 0.744546 -0.276343)
(-0.617071 0.758062 -0.201668)
(-0.54163 0.757973 -0.168331)
(-0.571844 0.757677 -0.200458)
(-0.675902 0.729311 -0.270993)
(-0.619573 0.759635 -0.274482)
(-0.669169 0.729107 -0.267574)
(-0.668859 0.746643 -0.265188)
(-0.387226 0.322428 -0.274158)
(-0.36145 0.311373 -0.272031)
(-0.374667 0.338937 -0.30323)
(-0.359122 0.327029 -0.287498)
(-0.384803 0.295287 -0.26803)
(-0.291039 0.286118 -0.259682)
(-0.361212 0.322308 -0.298933)
(-0.304274 0.309424 -0.288228)
(-0.252522 0.243882 -0.216881)
(-0.246278 0.238091 -0.211528)
(-0.237956 0.237626 -0.210572)
(-0.216108 0.221903 -0.190057)
(-0.292647 0.246158 -0.175224)
(-0.310476 0.247762 -0.179931)
(-0.335566 0.268754 -0.199967)
(-0.274263 0.241953 -0.207417)
(-0.332114 0.263461 -0.216523)
(-0.322368 0.265844 -0.222558)
(-0.224259 0.218915 -0.18421)
(-0.235287 0.230894 -0.181549)
(-0.209561 0.215321 -0.176138)
(-0.271131 0.228451 -0.181501)
(-0.263858 0.24205 -0.184827)
(-0.25001 0.226196 -0.185659)
(-0.300286 0.263417 -0.207362)
(-0.243947 0.237845 -0.201733)
(-0.73955 0.779202 -0.469216)
(-0.774469 0.784954 -0.47474)
(-0.711254 0.74095 -0.434744)
(-0.732904 0.758404 -0.440234)
(-0.705998 0.780214 -0.480019)
(-0.664754 0.761103 -0.465112)
(-0.700572 0.761699 -0.477927)
(-0.60882 0.76228 -0.485595)
(-0.769493 0.752297 -0.460473)
(-0.68353 0.722896 -0.429868)
(-0.638142 0.707555 -0.418139)
(-0.585671 0.716296 -0.439141)
(-0.743441 0.769219 -0.486873)
(-0.694067 0.751444 -0.47644)
(-0.746385 0.754075 -0.46741)
(-0.728085 0.7424 -0.46379)
(-0.655673 0.717482 -0.442207)
(-0.967978 0.472394 -0.356319)
(-0.962557 0.466396 -0.341879)
(-1.02927 0.439749 -0.436167)
(-1.01596 0.400733 -0.458992)
(-1.02561 0.456156 -0.419941)
(-1.03212 0.439228 -0.412849)
(-0.96792 0.463943 -0.374742)
(-0.993401 0.454739 -0.387161)
(-1.01623 0.479613 -0.390766)
(-0.982879 0.480355 -0.360254)
(-0.965509 0.467257 -0.348406)
(-0.970927 0.479445 -0.347936)
(-0.984654 0.509352 -0.360565)
(-0.973604 0.493892 -0.343715)
(-0.985356 0.476808 -0.381451)
(-0.991572 0.482007 -0.40979)
(-0.972106 0.461543 -0.407408)
(-1.02474 0.442198 -0.43656)
(-1.01794 0.443827 -0.438955)
(-1.01909 0.500252 -0.392225)
(-1.01815 0.470398 -0.459001)
(-1.01276 0.473074 -0.414158)
(-1.01664 0.44589 -0.439585)
(-0.881628 0.431506 -0.48972)
(-0.834346 0.442048 -0.450436)
(-0.910186 0.418364 -0.514469)
(-0.907588 0.40366 -0.501168)
(-0.810428 0.442847 -0.403485)
(-0.814423 0.421276 -0.428803)
(-0.814417 0.421952 -0.406416)
(-0.799033 0.430904 -0.367616)
(-0.806684 0.396235 -0.387452)
(-0.809437 0.32434 -0.381787)
(-0.792863 0.321156 -0.377526)
(-0.88217 0.381202 -0.488074)
(-0.796139 0.391255 -0.372281)
(-0.80055 0.386957 -0.373538)
(-0.869579 0.274518 -0.439293)
(-0.851426 0.310709 -0.4292)
(-0.905043 0.318891 -0.482832)
(-0.917155 0.337513 -0.483043)
(-0.851343 0.281639 -0.413311)
(-0.870981 0.320481 -0.458484)
(-0.35385 0.269889 -0.277228)
(-0.436423 0.283315 -0.306711)
(-0.871979 0.523014 -0.45026)
(-0.861382 0.524587 -0.444538)
(-0.890335 0.519711 -0.48085)
(-0.863509 0.510519 -0.452896)
(-0.995587 0.486931 -0.479773)
(-0.960318 0.474502 -0.496897)
(-0.957356 0.505687 -0.485491)
(-0.934995 0.503448 -0.487147)
(-0.964825 0.520318 -0.469336)
(-0.930767 0.532489 -0.463525)
(-0.912303 0.528077 -0.50721)
(-0.942413 0.515187 -0.506942)
(-0.95963 0.510615 -0.497152)
(-0.977469 0.476213 -0.47565)
(-0.936468 0.534248 -0.486131)
(-0.966105 0.518431 -0.469056)
(-0.538535 0.38415 -0.120322)
(-0.516593 0.358248 -0.13117)
(-0.551975 0.39887 -0.12365)
(-0.524457 0.382515 -0.123273)
(-0.671529 0.337364 -0.264299)
(-0.632571 0.346877 -0.194171)
(-0.581183 0.349153 -0.164008)
(-0.593261 0.335195 -0.189845)
(-0.572909 0.367467 -0.156595)
(-0.597211 0.422911 -0.138986)
(-0.600065 0.426633 -0.150285)
(-0.669597 0.340705 -0.246713)
(-0.629734 0.42156 -0.176989)
(-0.656341 0.399122 -0.200351)
(-0.670934 0.415935 -0.229521)
(-1.00056 0.347049 -0.453692)
(-1.0222 0.32929 -0.449186)
(-0.956247 0.33161 -0.397101)
(-0.912482 0.336167 -0.32273)
(-1.03417 0.358021 -0.430458)
(-1.04001 0.327586 -0.448114)
(-1.04302 0.343086 -0.45164)
(-1.06908 0.322175 -0.475834)
(-1.05256 0.354353 -0.436698)
(-1.05594 0.339688 -0.471286)
(-1.03023 0.361996 -0.476961)
(-0.999573 0.355409 -0.422589)
(-1.0659 0.341819 -0.484985)
(-1.03 0.360731 -0.424092)
(-1.00487 0.379261 -0.389514)
(-0.844827 0.599912 -0.492965)
(-0.880677 0.56836 -0.509721)
(-0.722214 0.674045 -0.473451)
(-0.827451 0.613011 -0.495506)
(-0.848217 0.63488 -0.480561)
(-0.635181 0.641251 -0.444787)
(-0.748642 0.63237 -0.483469)
(-0.874757 0.53202 -0.486954)
(-0.856246 0.519895 -0.482262)
(-0.852277 0.60236 -0.487313)
(-0.829813 0.621151 -0.469911)
(-0.86516 0.620767 -0.51287)
(-0.739217 0.668995 -0.484804)
(-0.780541 0.66915 -0.480371)
(-0.769776 0.623137 -0.493894)
(-0.855738 0.613872 -0.523748)
(-0.872207 0.579406 -0.516538)
(-0.837364 0.662358 -0.47185)
(-0.38308 0.179583 -0.124547)
(-0.404595 0.183144 -0.1298)
(-0.418207 0.21782 -0.121306)
(-0.374502 0.191509 -0.123723)
(-0.348983 0.190989 -0.106233)
(-0.396766 0.185708 -0.134974)
(-0.385404 0.193324 -0.108843)
(-0.366013 0.182588 -0.11137)
(-0.433128 0.232641 -0.108822)
(-0.373328 0.208744 -0.0998433)
(-0.471843 0.2239 -0.149597)
(-0.466672 0.199831 -0.160813)
(-0.447025 0.19913 -0.158718)
(-0.507349 0.240241 -0.138478)
(-0.481327 0.247624 -0.117962)
(-0.47424 0.234791 -0.109858)
(-0.415301 0.205572 -0.110771)
(-0.420027 0.217087 -0.102117)
(-0.374418 0.544588 -0.266334)
(-0.392557 0.539438 -0.290524)
(-0.573134 0.515414 -0.346621)
(-0.41909 0.550657 -0.258575)
(-0.436748 0.558788 -0.262348)
(-0.606132 0.531652 -0.346007)
(-0.556095 0.540508 -0.312314)
(-0.419113 0.577837 -0.280557)
(-0.42172 0.566641 -0.252837)
(-0.398003 0.549596 -0.251401)
(-0.351879 0.533362 -0.237748)
(-0.45383 0.561376 -0.29125)
(-0.515895 0.476852 -0.359786)
(-0.551211 0.493325 -0.365486)
(-0.484438 0.518785 -0.340664)
(-0.542218 0.544587 -0.321718)
(-0.36164 0.511811 -0.28679)
(-0.320337 0.489173 -0.258566)
(-0.427649 0.536964 -0.311529)
(-0.392275 0.517305 -0.301826)
(-0.377913 0.499263 -0.293184)
(-0.508362 0.50291 -0.364703)
(-0.61907 0.756537 -0.376049)
(-0.620631 0.745841 -0.3792)
(-0.588796 0.762794 -0.35723)
(-0.616175 0.744269 -0.371954)
(-0.630788 0.751161 -0.377996)
(-0.736333 0.709216 -0.422833)
(-0.730746 0.668274 -0.405953)
(-0.668612 0.740649 -0.400351)
(-0.646752 0.732014 -0.360444)
(-0.684541 0.708474 -0.395249)
(-0.726113 0.740019 -0.447997)
(-0.754876 0.695455 -0.459687)
(-0.71142 0.664764 -0.39122)
(-0.708386 0.684609 -0.391557)
(-0.68453 0.700131 -0.373154)
(-0.753189 0.622192 -0.430128)
(-0.741179 0.623905 -0.425292)
(-0.720075 0.695344 -0.4294)
(-0.49783 0.372672 -0.225684)
(-0.538858 0.389748 -0.247201)
(-0.510835 0.347934 -0.25434)
(-0.471898 0.313107 -0.254746)
(-0.537602 0.365443 -0.27592)
(-0.473402 0.324297 -0.258531)
(-0.45362 0.331846 -0.236361)
(-0.457293 0.319954 -0.252036)
(-0.403184 0.313233 -0.232283)
(-0.417341 0.32072 -0.228385)
(-0.51895 0.539445 -0.356655)
(-0.608966 0.587414 -0.342613)
(-0.621155 0.549392 -0.349962)
(-0.581377 0.38034 -0.330276)
(-0.527847 0.341427 -0.315726)
(-0.634323 0.43212 -0.345189)
(-0.639461 0.492027 -0.345859)
(-0.510419 0.468756 -0.362837)
(-0.520183 0.441015 -0.373476)
(-0.567146 0.592803 -0.367965)
(-0.598225 0.52864 -0.354726)
(-0.56775 0.542547 -0.367083)
(-0.586049 0.39648 -0.346237)
(-0.585511 0.392241 -0.3507)
(-0.543847 0.36892 -0.323451)
(-0.494698 0.381733 -0.32506)
(-0.590344 0.457415 -0.346454)
(-0.513615 0.455115 -0.375659)
(-0.563676 0.450135 -0.355799)
(-0.812684 0.545973 -0.369778)
(-0.766691 0.458692 -0.359572)
(-0.78055 0.45258 -0.365294)
(-0.713897 0.385542 -0.359698)
(-0.795231 0.525827 -0.35897)
(-0.73777 0.480336 -0.350726)
(-0.74896 0.47246 -0.369044)
(-0.847126 0.532462 -0.359386)
(-0.844541 0.543886 -0.354109)
(-0.75956 0.516378 -0.372947)
(-0.768205 0.534546 -0.351984)
(-0.840545 0.536428 -0.361345)
(-0.826744 0.572815 -0.336615)
(-0.768804 0.564921 -0.34987)
(-0.506162 0.693917 -0.243035)
(-0.497234 0.680137 -0.220583)
(-0.475867 0.637637 -0.194251)
(-0.61767 0.662267 -0.299859)
(-0.629471 0.616161 -0.279367)
(-0.574675 0.619223 -0.221575)
(-0.619626 0.604619 -0.246219)
(-0.635376 0.596563 -0.246926)
(-0.618832 0.644494 -0.264445)
(-0.602962 0.688981 -0.273977)
(-0.514587 0.616789 -0.188506)
(-0.64512 0.694422 -0.340927)
(-0.636693 0.570109 -0.272433)
(-0.655922 0.566763 -0.299213)
(-0.60485 0.610575 -0.235283)
(-0.610959 0.716744 -0.322263)
(-0.666891 0.650494 -0.347309)
(-0.639359 0.698801 -0.326192)
(-0.801401 0.762346 -0.372498)
(-0.788355 0.773374 -0.37719)
(-0.799183 0.778443 -0.377519)
(-0.786181 0.771939 -0.354709)
(-0.822767 0.765041 -0.414569)
(-0.796211 0.76308 -0.386122)
(-0.812253 0.775985 -0.383193)
(-0.759793 0.772303 -0.354436)
(-0.802854 0.782131 -0.402247)
(-0.805339 0.773173 -0.402894)
(-0.717197 0.739377 -0.318082)
(-0.699561 0.720129 -0.311547)
(-0.728888 0.734408 -0.363494)
(-0.687786 0.712844 -0.338806)
(-0.73413 0.731651 -0.322305)
(-0.72565 0.745842 -0.318596)
(-0.738838 0.738503 -0.376238)
(-0.725694 0.715634 -0.348006)
(-0.762092 0.771337 -0.366532)
(-0.716767 0.746915 -0.342116)
(-0.77394 0.747742 -0.36511)
(-0.561076 0.832709 -0.263921)
(-0.551792 0.843334 -0.27413)
(-0.487618 0.846136 -0.201322)
(-0.52472 0.853147 -0.227421)
(-0.505348 0.829439 -0.190323)
(-0.469272 0.832713 -0.174492)
(-0.576547 0.814931 -0.210954)
(-0.524377 0.809006 -0.187308)
(-0.568958 0.832724 -0.269742)
(-0.513777 0.855199 -0.225978)
(-0.650983 0.798131 -0.305217)
(-0.646675 0.820541 -0.287083)
(-0.525746 0.841689 -0.199619)
(-0.544643 0.821532 -0.193064)
(-0.592255 0.812903 -0.226288)
(-0.515041 0.812035 -0.169316)
(-0.565837 0.815552 -0.197558)
(-0.506696 0.812464 -0.184281)
(-0.630766 0.835831 -0.265063)
(-0.659248 0.819685 -0.27318)
(-0.588401 0.826741 -0.225207)
(-0.550876 0.835796 -0.201536)
(-0.438107 0.535145 -0.364921)
(-0.391197 0.505183 -0.373975)
(-0.404464 0.46345 -0.37773)
(-0.531168 0.574728 -0.358182)
(-0.553318 0.631285 -0.364788)
(-0.445312 0.570642 -0.366762)
(-0.373518 0.52717 -0.378492)
(-0.338582 0.577268 -0.367644)
(-0.494427 0.518589 -0.371472)
(-0.506439 0.467892 -0.358463)
(-0.349888 0.6145 -0.359855)
(-0.364969 0.618635 -0.362943)
(-0.395877 0.578779 -0.367419)
(-0.480405 0.664203 -0.354895)
(-0.471919 0.666546 -0.361498)
(-0.366879 0.621289 -0.359716)
(-0.382469 0.363612 -0.346868)
(-0.380712 0.34159 -0.333743)
(-0.458758 0.325631 -0.347447)
(-0.451877 0.345595 -0.344838)
(-0.39963 0.3133 -0.32971)
(-0.386414 0.383698 -0.345491)
(-0.359181 0.351782 -0.330318)
(-0.378407 0.320593 -0.329661)
(-0.394631 0.351427 -0.344021)
(-0.505255 0.345175 -0.355525)
(-0.50612 0.320363 -0.34719)
(-0.410673 0.312363 -0.329737)
(-0.461271 0.289961 -0.328274)
(-0.490712 0.310149 -0.351457)
(-0.417258 0.324467 -0.337896)
(-0.472614 0.312539 -0.355782)
(-0.522482 0.322218 -0.356626)
(-0.414024 0.393615 -0.349407)
(-0.498489 0.357662 -0.3625)
(-0.122521 0.518065 -0.340847)
(-0.096998 0.483533 -0.334622)
(-0.518489 0.826334 -0.185749)
(-0.477718 0.839601 -0.178599)
(-0.666452 0.750323 -0.449316)
(-0.622963 0.752253 -0.458723)
(-0.448115 0.751295 -0.306774)
(-0.435238 0.731235 -0.282245)
(-0.580106 0.761498 -0.493828)
(-0.591245 0.778622 -0.48276)
(-0.2724 0.780094 -0.226247)
(-0.222042 0.767311 -0.237372)
(-0.691418 0.701944 -0.370018)
(-0.654294 0.679106 -0.326922)
(-0.598011 0.757141 -0.201137)
(-0.606396 0.741436 -0.196342)
(-0.650425 0.735173 -0.213771)
(-0.152504 0.504444 -0.32825)
(-0.139343 0.463231 -0.322032)
(-0.41839 0.499313 -0.131707)
(-0.470902 0.570397 -0.151172)
(-0.446321 0.499829 -0.128853)
(-0.438189 0.55558 -0.137516)
(-0.486115 0.719415 -0.275554)
(-0.483095 0.69308 -0.235077)
(-0.175643 0.249325 -0.233757)
(-0.182098 0.238219 -0.226954)
(-0.68858 0.675313 -0.453568)
(-0.694026 0.670384 -0.424542)
(-0.640451 0.738622 -0.479663)
(-0.551603 0.729685 -0.442471)
(-0.563319 0.74432 -0.427744)
(-0.309655 0.254333 -0.149949)
(-0.279869 0.244067 -0.151559)
(-0.287016 0.234747 -0.156487)
(-0.294348 0.24771 -0.148247)
(-0.322092 0.267917 -0.138985)
(-0.631415 0.744952 -0.182487)
(-0.589763 0.747452 -0.17386)
(-0.252411 0.727698 -0.239127)
(-0.321663 0.73049 -0.240856)
(-0.346653 0.737147 -0.228831)
(-0.169092 0.500711 -0.305098)
(-0.181795 0.530745 -0.296253)
(-0.717037 0.636362 -0.282207)
(-0.727927 0.632782 -0.302164)
(-0.729367 0.626864 -0.335937)
(-0.700792 0.648941 -0.289427)
(-0.54458 0.722413 -0.341777)
(-0.548331 0.72505 -0.301742)
(-0.426743 0.366949 -0.116009)
(-0.392449 0.358106 -0.113522)
(-0.185027 0.257857 -0.244537)
(-0.188497 0.276547 -0.251671)
(-0.573528 0.733302 -0.147493)
(-0.517012 0.750685 -0.139662)
(-0.194222 0.408341 -0.295834)
(-0.180214 0.3756 -0.285369)
(-0.347742 0.26185 -0.125802)
(-0.484462 0.525779 -0.14143)
(-0.501298 0.544137 -0.158461)
(-0.241945 0.204086 -0.176966)
(-0.260175 0.20049 -0.170855)
(-0.669218 0.662017 -0.472664)
(-0.623957 0.677365 -0.435442)
(-0.31991 0.682608 -0.218175)
(-0.277569 0.645855 -0.244553)
(-0.736008 0.594567 -0.392191)
(-0.753021 0.606682 -0.423847)
(-0.740698 0.624568 -0.427951)
(-0.588689 0.696209 -0.363885)
(-0.604302 0.715082 -0.367849)
(-0.719671 0.603859 -0.206948)
(-0.687442 0.623137 -0.173966)
(-0.224021 0.239549 -0.233244)