/*--------------------------------*- C++ -*----------------------------------*\
| =========                 |                                                 |
| \\      /  F ield         | OpenFOAM: The Open Source CFD Toolbox           |
|  \\    /   O peration     | Version:  v1612+                                |
|   \\  /    A nd           | Web:      www.OpenFOAM.com                      |
|    \\/     M anipulation  |                                                 |
\*---------------------------------------------------------------------------*/
FoamFile
{
    version     2.0;
    format      ascii;
    class       volScalarField;
    location    "50";
    object      p;
}
// * * * * * * * * * * * * * * * * * * * * * * * * * * * * * * * * * * * * * //

dimensions      [0 2 -2 0 0 0 0];

internalField   nonuniform List<scalar> 
18855
(
0.00716381
0.0308778
0.0209896
0.0763586
0.067234
0.0661876
0.0676385
0.0640271
0.0640218
0.0719483
0.0694784
0.0683801
0.0643238
0.0682673
0.0659384
0.0729373
0.0732638
0.0650212
0.000650039
0.00679675
0.00331982
-0.00485715
0.00103118
0.00537373
0.000458734
0.00472765
-0.00212654
0.00293927
-0.0013876
0.00118074
0.000499892
0.0045567
0.0140888
0.0180142
0.0215772
0.0171998
0.015292
0.0130564
0.0166661
0.014961
0.0183822
0.0202111
0.0393822
0.0418452
0.0417076
0.0379659
0.0402207
0.0453163
0.0329244
0.0404035
0.0416891
0.0425242
0.0401436
0.035129
0.0428741
0.0399636
0.0377227
0.0417517
0.0419169
-0.000229497
0.00288963
-0.00167477
-0.00139712
0.00129988
-0.000682894
0.0050453
0.00295574
0.00228312
0.00363203
0.000175206
-0.000261387
0.0006801
0.0334294
0.0441775
0.0364188
0.0360558
0.0434534
0.0404366
0.0401411
0.0349627
0.0403187
0.0382109
0.0436672
0.0393518
0.0373999
0.0420444
0.0428295
0.0431358
0.0469858
0.0361266
0.0356032
0.0370989
0.0484185
0.0462028
0.0479477
0.0485751
0.0485192
0.0506242
0.0491161
0.0493071
0.0489464
0.0479197
0.0472932
0.0482029
0.00218918
0.00319836
0.00519673
-0.00127109
-0.000295469
0.00454493
0.00142836
-0.000429299
0.0041849
0.00180696
-0.000424867
-0.00190262
0.0119144
0.00755752
0.0111046
0.0100564
0.0117406
0.0142791
0.0189796
0.0102484
0.0100236
0.00874934
0.00852366
0.0353409
0.0317519
0.0342108
0.031856
0.0315555
0.034541
0.0373211
0.0360618
0.0296714
0.0314035
0.0355537
0.0384668
0.0367418
0.0326112
0.0350212
0.03683
0.0344109
0.0406239
0.0330826
0.076957
0.0747327
0.073773
0.0716606
0.0742304
0.0710424
0.0744612
0.0704306
0.0779001
0.0699471
0.0731875
0.0675666
0.0115828
0.010717
0.0111056
0.0155769
0.00996835
0.010586
0.0082308
0.0135241
0.0101226
0.0133915
0.00922879
0.0147803
0.014595
0.00686818
0.00926352
0.0114007
0.0140362
0.00218897
0.00566668
0.00878885
0.0133984
0.0129491
0.0074102
0.0109633
0.0180914
0.0160058
0.0192252
0.0203706
0.0153489
0.0173289
0.0192917
0.0197178
0.0178692
0.0210002
0.0155877
0.0237223
0.0131732
0.0174798
0.0159008
0.0147386
0.0135517
0.00408372
0.0152341
0.0115699
0.0487297
0.0422668
0.0454625
0.0420463
0.0399691
0.0407835
0.0400014
0.0412322
0.0438596
0.0443891
0.0457811
0.04544
0.0465293
0.0413263
0.0395816
0.0448114
0.0308399
0.0416878
0.0400762
0.0399311
0.00939672
0.0129764
0.00676879
0.00662248
0.0101716
0.00949216
0.0112497
0.00897662
0.00821458
0.0118451
0.00578108
0.0162603
0.0126879
0.00982856
0.011934
0.00987371
0.00297375
0.0136212
0.0134024
0.0121921
0.0111707
0.0148763
0.0109945
0.0116825
0.00744455
0.0106428
0.00838836
0.0119441
0.011787
0.0132685
0.00996986
0.00927195
0.0387154
0.0341741
0.0378311
0.0418563
0.042713
0.0383098
0.0372609
0.0388303
0.0398077
0.0413331
0.0375928
0.037951
0.0307239
0.0409379
0.0407249
0.0412253
0.0406797
0.0324458
0.0331368
0.0395272
0.0422816
0.0417278
0.0324986
0.0316865
0.0293713
0.027591
0.0295967
0.0299449
0.0296439
0.0290514
0.0273297
0.0286499
0.0278833
0.0280721
0.0310789
0.0263878
0.0310326
-0.00123966
0.00320526
2.89779e-05
-0.00171699
-0.000460701
0.00218905
0.00438543
-0.000397448
-0.00373463
0.00142573
0.00528917
0.00701351
0.00331287
0.00132947
0.0247862
0.0241997
0.0250254
0.0229923
0.0228999
0.0255295
0.0253665
0.0229898
0.0263195
0.0263634
0.0269058
0.0285582
0.0278351
0.0243761
0.0291127
0.0219185
0.0243199
0.0434355
0.040771
0.0420713
0.0369981
0.0414522
0.0440439
0.0417641
0.0450509
0.0435492
0.0408023
0.0360481
0.0359837
0.0379328
0.0419057
0.0447937
0.043478
0.036
0.0380476
0.0381204
0.0449515
0.0690937
0.0679076
0.0707025
0.07104
0.0671084
0.016224
0.0122554
0.0115656
0.00995587
0.00993862
0.0080108
0.00460703
0.0132842
0.0170746
0.0163826
0.0132377
0.0179075
0.0465083
0.047391
0.0394932
0.0380959
0.0403091
0.0403867
0.0412906
0.043824
0.0377491
0.0393481
0.0402083
0.0416441
0.0373428
0.0423262
0.0439059
0.0437765
0.0424907
0.0435769
0.046656
0.0465453
0.0437494
0.0433538
0.0449586
0.0471492
0.0469604
0.046803
0.0710776
0.0684752
0.0675138
0.0701535
0.0669917
0.0712114
0.0755273
0.0690998
0.0678862
0.0654106
0.066055
0.0656931
0.0659546
0.0575309
0.0579434
0.0538631
0.0631669
0.0561205
0.0532854
0.0524009
0.0520791
0.0524245
0.0521563
0.0485358
0.0518615
0.056753
0.0608904
0.0520056
0.00849104
0.00944686
0.0121615
0.0125941
0.0089909
0.00690465
0.0115753
0.00616785
0.0125302
0.0578843
0.0579454
0.0583163
0.0538531
0.0552717
0.0565017
0.0672498
0.0583396
0.0552571
0.0535397
0.0591094
0.0599536
0.0528623
0.053852
0.0554239
0.0591824
0.0640562
0.063422
0.0597054
0.0645158
0.0630788
0.0650162
0.0650801
0.070947
0.0637919
0.0635418
0.0638235
0.0636474
0.0636239
0.0651475
0.0612736
0.0601114
0.0625731
0.0644557
0.0670759
0.0619631
0.0178265
0.0203205
0.0186472
0.0185043
0.0218466
0.0218989
0.0174381
0.0239835
0.0200636
0.0253961
0.0197425
0.0252023
0.0242509
0.0228651
0.0225171
0.0217756
0.0291864
0.0311146
0.030503
0.0293986
0.0272921
0.0255317
0.0272455
0.0360437
0.0247246
0.0330841
0.0272816
0.0336533
0.0284387
0.0312047
0.0306382
0.0251676
0.0311265
0.0273227
0.0389926
0.044274
0.0460907
0.0390836
0.0444314
0.0424805
0.0403019
0.0413782
0.0431128
0.0462556
0.0434696
0.0426604
0.0442696
0.0466028
0.0480776
0.0461531
0.0394568
0.0237205
0.0282137
0.0240948
0.0203144
0.0199677
0.0199165
0.0252546
0.019278
0.0161606
0.0194507
0.0191774
0.0197784
0.0194825
0.0149305
0.0160633
0.0205883
0.0128984
0.0369811
0.0388795
0.0373359
0.0373222
0.0340168
0.0402791
0.0383654
0.0374477
0.036523
0.0378175
0.0379072
0.0335706
0.0416352
0.0433112
0.0292032
0.0263918
0.0277392
0.0287211
0.0266161
0.0285942
0.0266124
0.0266032
0.0236193
0.0272904
0.0285881
0.0264258
0.0270451
0.0298641
0.0251282
0.025837
0.031895
0.0301473
0.0413847
0.0417867
0.0420335
0.0415898
0.0455591
0.0377676
0.0382559
0.0387513
0.0338093
0.0318217
0.0359514
0.0313395
0.0394506
0.0330506
0.0371524
0.0396418
0.0405754
0.0346067
0.0335544
0.0371545
0.0698815
0.0665814
0.0689928
0.0665785
0.0658988
0.0653209
0.0763017
0.0744164
0.0693912
0.0705241
0.0694236
0.0673959
0.0687821
0.0727413
0.0731455
0.0827789
0.081426
0.072101
0.0764841
0.071805
0.0267468
0.0270308
0.0318719
0.0314383
0.0245586
0.0287231
0.0320063
0.0332022
0.0245239
0.0259865
0.0269221
0.0260721
0.0368856
0.0314176
0.0275224
0.0314761
0.0303132
0.0293851
0.0282411
0.0330992
0.0259184
0.0317407
0.072736
0.0735835
0.0702239
0.0702695
0.0742701
0.0695176
0.0797316
0.0727634
0.0689878
0.0751055
0.071036
0.00966308
0.0117448
0.0110576
0.0139359
0.00844893
0.00967783
0.0163095
0.0109557
0.0088886
0.0154751
0.012554
0.011273
0.00888192
0.0145931
0.0100994
0.0141935
0.0277176
0.0319645
0.0381223
0.0345129
0.029827
0.0251322
0.0271765
0.0310313
0.0364289
0.0295361
0.0325849
0.0300608
0.0319965
0.0268614
0.0238632
0.0250802
0.027204
0.0226683
0.0294868
0.0236555
0.0264515
0.0217036
0.0322583
0.0275003
0.0198556
0.0223243
0.0157074
0.0167003
0.0193738
0.0158949
0.0146815
0.0148328
0.0079977
0.0155406
0.0121166
0.0143241
0.0119204
0.0126739
0.013525
0.022939
0.0162939
0.00124497
0.000509253
0.0117474
0.00334394
-6.17766e-05
-0.000225496
-0.00122517
-0.00285216
0.00283899
0.00225593
0.00362593
0.0104793
0.00205704
0.00412461
-0.00423012
-0.00133386
0.00290373
0.0033953
0.0529119
0.0507498
0.0457854
0.0479311
0.0449941
0.0454089
0.052983
0.0526759
0.0507076
0.0472148
0.0461061
0.0457983
0.0470081
0.0497655
0.0480029
0.0492597
0.0447835
0.0474292
0.0673424
0.067182
0.0710848
0.0634195
0.0665751
0.0686103
0.0674717
0.0698933
0.066058
0.0716503
0.0696476
0.06815
0.0699436
0.0711254
0.0724614
0.0130668
0.00934347
0.00649841
0.00116032
0.00463145
0.00499297
0.00576495
0.0103457
0.00229849
0.00421336
0.00215173
0.00511891
0.00570091
0.00426834
0.00232782
0.0133268
0.00825584
0.00835807
0.00314663
0.00514633
0.00352853
0.0460803
0.0450106
0.0452521
0.0434125
0.0471852
0.0448066
0.0466673
0.0444713
0.0489116
0.0406299
0.043849
0.0438135
0.0459429
0.0439529
0.0500713
0.0502117
0.0507489
0.0470759
0.0444776
0.0679853
0.0678176
0.0689644
0.0685892
0.0683934
0.0622171
0.0687657
0.0661649
0.0732223
0.0699839
0.0696763
0.0656513
0.0678584
0.0648673
0.0669604
0.0649996
0.0661914
0.0604403
0.0454873
0.0453613
0.0466286
0.0477894
0.0468344
0.0425232
0.0440388
0.0442381
0.0422781
0.0440953
0.0473265
0.0492587
0.042382
0.0402541
0.0437664
0.0449661
0.0448094
0.0420268
0.0395324
0.0358546
0.0341015
0.0323277
0.0366989
0.0335003
0.0380348
0.0370834
0.0283015
0.0287082
0.0345212
0.0360692
0.0343528
0.0323043
0.03404
0.0327197
0.0348208
0.0354036
0.00562941
0.00635213
0.00327875
0.00139787
-0.00574288
0.00613584
0.00337602
0.00267584
0.00112546
0.00017615
0.00616938
0.000397097
0.00108921
0.00610211
0.00335451
0.00339712
0.000236229
0.00195322
2.12983e-05
0.00755556
-0.0068898
-0.00190162
0.00275586
0.00246381
-0.000631682
0.00519947
0.00950801
0.00850507
0.00596068
0.00707297
0.00715421
0.00752136
0.0061862
0.00797859
0.00789899
0.0108109
0.00898964
0.00755837
0.0077262
0.00693231
0.00794332
0.0053551
0.00572205
0.000872537
0.00714026
0.00747008
0.00757941
0.00315156
0.0104772
0.00650631
0.00579013
0.00692935
0.00805932
0.0084052
0.00949318
0.00910224
0.00485852
0.00715387
0.00130749
0.00938221
0.00415414
0.00837464
0.00915998
0.00790735
0.0124441
0.0432863
0.0435262
0.0397687
0.0398294
0.0416395
0.0427861
0.0334093
0.0401754
0.0405015
0.0433565
0.0369627
0.0370896
0.0401692
0.0473436
0.0434207
0.0498356
0.0477865
0.0467281
0.0473951
0.0405406
0.0445492
0.0431903
0.0493298
0.0426301
0.0443535
0.0456222
0.0456102
0.0460247
0.0437296
0.0418498
0.0434546
0.0440484
0.0422074
0.047629
0.0435954
0.0427308
0.0511387
0.0484477
0.0474168
0.0371411
0.0316158
0.0349698
0.0308278
0.0372873
0.0280275
0.0256308
0.0301527
0.0335164
0.0327362
0.0383841
0.0359872
0.0297111
0.0290157
0.0318497
0.0341954
0.0361779
0.0378651
0.0666565
0.0646513
0.065362
0.067742
0.0688447
0.071895
0.0688623
0.0691177
0.0597495
0.0651173
0.0659611
0.0622671
0.0606702
0.0720379
0.0606364
0.0659286
0.0609255
0.0571298
0.0520288
0.0551706
0.0560419
0.0557406
0.0533422
0.0502854
0.050534
0.0556563
0.0538275
0.0606654
0.0549483
0.0545249
0.0481754
0.0521443
0.0556322
0.0579593
0.0605925
0.0552192
0.0485922
0.0531608
0.0613456
0.0541016
0.0556151
0.0540601
0.0567538
0.0620742
0.0621523
0.0679192
0.0694048
0.0670844
0.0665556
0.067433
0.0667401
0.0698327
0.0680204
0.0695045
0.0701168
0.072478
0.068424
0.0684838
0.0739585
0.0725794
0.0759962
0.0737144
0.0752288
0.075102
0.0754044
0.0735674
0.0714168
0.0732376
0.0724738
0.0617291
0.0747064
0.0754469
0.0712943
0.0720881
0.0814446
0.0777226
0.0714735
0.0719596
0.0740643
0.0129945
0.00906799
0.0139259
0.0135995
0.0162379
0.0093868
0.0153631
0.0133283
0.0149587
0.0105312
0.0143612
0.0166085
0.00345575
0.00619525
0.0124729
0.00170571
-0.00328931
0.00470822
0.00323462
0.00241562
0.00257235
0.00465217
0.00518934
0.00663629
0.00327116
0.00325024
0.00517121
0.00381466
0.00315548
0.0033068
0.00425207
0.0024398
0.00301804
0.00385882
0.00482878
0.00366147
0.00554686
0.00324552
0.00583363
0.00295387
0.00282037
0.00192984
0.0047909
0.00236655
0.00360706
0.00294995
0.00547116
0.00520436
0.00383888
0.0771894
0.0809403
0.0778237
0.0756056
0.0725862
0.0798848
0.0804564
0.0699858
0.0722199
0.0770811
0.0713701
0.0734836
0.0728905
0.0779407
0.0795711
0.0676104
0.0655764
0.0594457
0.0655687
0.0614152
0.067913
0.0629359
0.0705029
0.0705448
0.0628848
0.0635998
0.0640651
0.0647998
0.0675035
0.061134
0.0619288
0.0673545
0.0640777
0.0680957
0.0678955
0.0608218
0.0607532
0.0592516
0.0586432
0.0525752
0.0550304
0.0575223
0.0573871
0.0605028
0.0581101
0.0534396
0.0524869
0.0488576
0.0536542
0.0528793
0.0513207
0.0544144
0.0582526
0.0524815
0.0556383
0.0525557
0.0476209
0.0531255
0.0540256
0.056608
0.0556617
0.0505763
0.0449664
0.0518476
0.0474019
0.0487306
0.0463622
0.0447163
0.0478767
0.0477373
0.0453898
0.0472768
0.0498338
0.0458213
0.0446565
0.048522
0.0475409
0.0459692
0.0467643
0.0412543
0.0400442
0.0470905
0.0401889
0.0372483
0.0411911
0.0416028
0.0401658
0.0384953
0.0461767
0.0431317
0.0376169
0.0373082
0.0379885
0.0376713
0.0437498
0.0411352
0.042235
0.0352545
0.0328331
0.0420463
0.0388078
0.0423614
0.0359161
0.036866
0.0356871
0.0403478
0.029419
0.0268408
0.0317678
0.0383029
0.0385133
0.0331335
0.0370635
0.0340298
0.0317067
0.0301721
0.0357077
0.02724
0.0290354
0.0261205
0.0297352
0.025717
0.0267369
0.0295914
0.0370763
0.0319194
0.03292
0.0337912
0.0290162
0.027445
0.0328344
0.0235958
0.024997
0.0288945
0.0203879
0.0248884
0.0208556
0.022579
0.0241563
0.015688
0.0162192
0.0189535
0.0197511
0.02045
0.018869
0.0212476
0.020413
0.0252515
0.0150625
0.0213593
0.0203617
0.0169918
0.0134539
0.018838
0.0183625
0.0159259
0.00090213
-8.51117e-05
-0.0013226
0.00189703
0.0122914
0.00982526
0.0197732
0.0144182
0.0121727
0.0111754
0.0151237
0.0121132
0.0166175
0.011101
0.0068433
0.0138185
0.0133858
-0.000484024
0.00389498
0.00168134
-0.0020915
0.0060332
0.0144139
0.00138948
0.00547725
0.0124307
0.00716832
0.00295489
0.00749716
0.00702932
0.00349352
0.00356376
0.0131726
0.00864849
0.00536455
0.0050262
0.0140786
0.0167678
0.00765727
0.00998195
0.00546878
-0.000887244
-0.00327057
0.00093764
0.00183922
-0.00154751
0.00455861
0.00148471
0.000937585
-0.00173032
0.00111352
0.00171447
-0.00180951
0.00269282
0.00994632
-0.00110279
0.00805164
-0.000549283
0.00455921
0.00310095
0.0039114
0.00459161
-1.14322e-05
0.00192925
-0.000637479
0.00156139
0.00631078
-0.00290332
0.000665428
0.00299506
0.00208529
0.00831568
0.00656267
-0.00345941
0.00304862
0.00862321
0.00590689
0.00647154
0.009337
0.00559315
0.00550726
0.00901523
0.00405284
0.0032987
0.00456855
0.00668716
0.005969
0.00432274
0.000555304
-0.000406914
0.00670626
0.00859832
0.00503927
0.00269044
0.000515677
-0.00145897
-0.00176122
-0.00213507
0.00513736
0.00973054
0.00985462
0.00450988
0.0023302
0.00466039
-0.0010919
0.00316499
0.00920014
0.00363742
-0.00157143
-0.000285937
-0.000576714
0.00430806
0.00227244
0.00205644
-0.00337784
0.00398581
0.00799537
0.00160038
0.000759171
0.000454014
0.00117853
-0.00221903
0.0040238
-0.00107068
0.00154891
0.00124635
0.00341321
0.001919
0.0021872
0.00346113
-0.00176254
0.00167932
-0.00119807
0.00131882
0.00233329
0.00343089
0.00171164
0.00761871
0.00267204
0.00448787
0.00366211
0.000572192
-0.00306185
-0.000753276
0.00145492
-0.000901669
-0.000188294
0.00737546
0.00393986
0.00529438
0.00844375
0.00634808
0.0016624
0.0017289
-0.000372463
-0.00225795
-0.00134661
0.00504487
0.00596942
0.000461583
-0.000461961
0.00233459
0.00270762
0.00206024
0.00443547
0.00315685
-0.000613296
0.000175973
0.000870248
0.00343975
0.000728186
0.000860104
0.00052415
0.00601871
0.00260634
-6.85742e-05
0.00239485
0.00105124
0.00392371
-0.00107747
0.0034061
-0.00127629
0.00274351
-0.000274833
0.00406132
-0.000725132
0.000501335
-0.0013131
0.000440031
0.00407719
-0.00260591
-0.000120648
0.0045209
0.00598825
0.00446464
-0.00122486
0.0027229
-0.00228615
0.00564746
0.00488139
-0.000216106
-0.00246335
0.0028993
0.00682648
0.00442983
0.00545836
0.00409066
-0.00315002
0.000233487
-0.00196745
-7.79207e-05
0.00533602
0.00625236
0.000384677
0.00329784
0.00412544
0.0079578
0.00271059
0.00339302
0.00492661
0.00479229
-0.00457447
0.00234194
0.00129172
0.00888079
0.00614462
0.00683156
0.00862463
0.00315398
0.000514277
0.00565279
0.00659409
0.00266767
1.42103e-05
0.00291054
0.00245202
0.000980255
-0.00187751
0.00180843
-0.000669778
0.00433574
0.00605772
0.00877784
0.00312255
0.00183458
0.00968109
0.0011338
-0.0014305
0.00697596
-0.000120963
0.00338181
0.000981531
0.00234636
0.00309677
-0.00214499
0.00350416
0.00823362
0.00042469
0.00281004
0.00178896
0.00553934
-0.00130261
-9.36789e-05
0.00450827
0.00075815
0.00136923
0.00855595
0.00470395
0.00735436
0.000577112
-0.00634498
0.00471075
0.00502824
-0.000815049
0.00241303
0.00519995
0.00162568
0.00563319
0.000361563
0.0012763
-0.00224467
0.00549053
0.00732985
0.00430519
0.00149173
0.00435088
-0.00147966
0.00810762
0.00480091
0.00605428
0.00157764
-0.00122667
0.00474022
0.00240251
0.00472351
0.00544643
-0.00112106
-0.00127484
0.00215089
-0.00326172
0.00690303
0.00864491
0.00751107
0.00726435
0.00489404
0.00320748
-0.000997774
0.00391617
0.00766269
0.00147558
-0.000975576
0.000981302
0.000813788
0.00473234
0.00217652
0.00169141
0.000154652
0.0034176
0.000705144
-0.00287489
0.00700972
0.00522596
0.00509319
-0.00422915
0.000465599
0.00653378
0.00233664
-0.00285695
0.00207309
-0.000102315
-0.00200894
0.00458008
0.00421222
0.00710841
-0.0036699
0.00366079
0.0018399
0.00659059
0.00349574
0.00341635
0.00279641
0.0022386
0.00120165
-0.00108392
0.000442945
0.00266685
-0.00271653
0.0020713
-1.58765e-05
0.00152345
0.00114677
-0.000476858
0.000949621
-0.000696163
0.000427958
0.00453353
0.00461329
0.00452543
0.00261723
0.00339844
-0.00119981
0.00329887
-0.000749664
7.72067e-05
0.00354629
-0.000265961
0.0127562
0.00875246
0.0076312
0.00634978
0.0056803
0.00882694
0.00514426
0.00713487
0.00558736
0.00906414
0.00928805
0.00407813
0.00902357
-0.000278222
0.00707422
0.00566247
0.00635306
0.00263011
0.00759067
0.00736334
0.00516218
0.00981991
0.00803832
0.00567671
0.00728809
0.00615376
0.0139351
0.00709184
0.0118348
0.0089738
0.0122326
0.00878084
-0.00703456
0.00734469
0.00340595
0.000870848
0.00310402
0.00231176
0.000810556
-0.00604382
0.00439218
0.00139795
0.00113855
-0.00150969
-0.00250249
0.00110386
-0.00122799
-0.000234994
0.00436484
0.00131992
0.00350977
-0.00165623
0.00962364
0.0147816
0.00903569
0.00866808
0.00590672
0.00736986
0.0170011
0.0107014
0.0051615
0.00613943
0.00614359
0.00618246
0.0099825
0.0151101
0.0117983
0.00333295
0.0173648
0.0146417
0.00794981
0.00782373
0.00319278
0.00319009
0.00196791
0.00699274
0.0102273
0.00611622
0.00666592
0.00554414
0.00490852
0.00310801
0.00842492
0.00711474
0.00808538
0.00293491
0.0108082
0.00889025
0.013196
0.00956188
0.00359266
0.0091279
0.00445101
0.00246161
0.00925918
0.00984285
0.0121768
0.0133261
0.00762667
0.00641361
0.0033833
0.00861529
0.00266288
0.0084125
0.011171
0.0123991
0.00663043
0.0100473
-0.00110356
0.00154003
0.0101291
-0.00155857
0.0184624
0.0180719
0.00840835
0.0144376
0.0177378
0.0166318
0.0147059
0.0138879
0.0172195
0.0144022
0.0149213
0.0139043
0.0125121
0.00948008
0.0116078
0.0172628
0.0127473
0.00569973
0.011495
0.00758167
0.0179975
0.0134196
0.01145
0.0188116
0.0157791
0.0109874
0.0141274
0.0133952
0.0234133
0.0175221
0.0213886
0.021312
0.0137329
0.0185032
0.0125676
0.0098452
0.0168862
0.00908016
0.0138568
0.0171823
0.0176575
0.0134481
0.0152814
0.00992445
0.0189867
0.0111447
0.0120747
0.01434
0.0148676
0.022767
0.0144494
0.0197802
0.0150025
0.021691
0.0168744
0.0125055
0.00989844
0.0158025
0.0206983
0.00780216
0.00644289
0.00893974
0.0103021
0.0139657
0.0137305
-0.000780495
0.00231937
-2.05367e-05
0.00135194
-6.40493e-05
0.00213602
4.52069e-05
0.0031498
0.00525615
0.0235416
0.0199443
0.0194563
0.0171772
0.0163093
0.01585
0.0194293
0.026426
0.0176951
0.0218425
0.0201328
0.0204309
0.0149264
0.0188487
0.0124509
0.0187619
0.0183188
0.0235001
0.0206942
0.0185938
0.0171638
0.0195252
0.00917549
0.0144924
0.0119012
0.0152525
0.00989678
0.00765188
0.00977385
0.0130057
0.0107964
0.0118832
0.0157069
0.0168476
0.0141963
0.0125271
0.0085433
0.00752342
0.0129155
0.0148867
0.0127976
0.00836802
0.0104062
0.0243155
0.0135722
0.0199888
0.0206835
0.0149682
0.0140722
0.0241814
0.022113
0.0194616
0.0195384
0.021912
0.0217205
0.0167188
0.00803061
0.0169446
0.0146196
0.0122711
0.018754
0.0183304
0.0170797
0.0189743
0.0155791
0.0232558
0.0168491
0.0198628
0.0230968
0.022093
0.0259599
0.0304921
0.022529
0.0190228
0.0270014
0.0301688
0.0268564
0.0173997
0.0237116
0.0253346
0.0250052
0.0235658
0.0224071
0.0218503
0.0253115
0.0296532
0.0239732
0.0198097
0.019088
0.021246
0.0167142
0.0233947
0.0222029
0.0187439
0.0210623
0.0193948
0.011213
0.0155763
0.020352
0.0202733
0.0172191
0.0175315
0.024604
0.0209579
0.0197862
0.0237154
0.0232299
0.0154594
0.016357
0.0173533
0.0171779
0.0199717
0.0159921
0.0169378
0.0124125
0.0125678
0.0149879
0.0275667
0.0256087
0.0256111
0.0290487
0.0212785
0.0243247
0.0255201
0.0237404
0.0241782
0.0165189
0.0165432
0.0133789
0.021356
0.0157325
0.0162735
0.0193578
0.01634
0.0219645
0.0226403
0.0200942
0.024687
0.0235779
0.0161365
0.0193457
0.0207977
0.0181915
0.0182124
0.0206455
0.0207104
0.0325293
0.0282802
0.0228722
0.0261534
0.0251371
0.0297418
0.0239611
0.0221413
0.0254081
0.0270004
0.0314522
0.0209545
0.0233196
0.024062
0.0262002
0.0222408
0.0257071
0.0268832
0.022754
0.0210684
0.0246062
0.0368621
0.0313235
0.024511
0.0276431
0.0251347
0.0244093
0.0303067
0.0251493
0.0261552
0.0279712
0.0283539
0.0260786
0.0263903
0.0264725
0.0209827
0.0319161
0.0168795
0.0234511
0.0193738
0.0178566
0.0235182
0.0348183
0.0349365
0.0320002
0.0280077
0.0373103
0.0319978
0.026091
0.0345258
0.0329028
0.0335932
0.0333491
0.0316891
0.0246172
0.0278163
0.0284802
0.0345754
0.0332395
0.0324074
0.0294256
0.0267813
0.027938
0.0302732
0.0251415
0.0215681
0.0291026
0.0390946
0.032724
0.0269276
0.028348
0.0297523
0.0321266
0.0301627
0.0341643
0.0346687
0.029226
0.0270435
0.0374542
0.0412653
0.0334261
0.0303062
0.0318511
0.0296769
0.0267005
0.0295765
0.0231582
0.0245172
0.0351849
0.0342638
0.0276367
0.0327565
0.0317985
0.0285639
0.0259858
0.0371116
0.0350245
0.0318316
0.0333109
0.0367584
0.0332276
0.0255895
0.0294403
0.027875
0.023905
0.0197816
0.020454
0.0280338
0.0250291
0.0272121
0.0259399
0.0364541
0.0340599
0.0335894
0.0393582
0.0329504
0.0299542
0.0310831
0.0361745
0.0306557
0.026989
0.0287271
0.0294041
0.0282963
0.029762
0.0176674
0.0280245
0.0264472
0.0241141
0.0182325
0.025347
0.0246968
0.0231147
0.0270425
0.0326021
0.028063
0.03103
0.0291979
0.028686
0.0337325
0.0309604
0.0416888
0.0366903
0.0298144
0.0325004
0.0331509
0.0350563
0.0289674
0.0334819
0.0353048
0.0386377
0.0304093
0.0314086
0.0234733
0.0241882
0.0362959
0.0306095
0.0312617
0.0298126
0.0361628
0.0306154
0.0335299
0.0296828
0.0275693
0.0226105
0.0300427
0.029901
0.0268042
0.0270881
0.0294845
0.0315994
0.0284336
0.0304779
0.0279779
0.0281078
0.0350954
0.0332737
0.0384504
0.0348672
0.0310696
0.0368098
0.0331684
0.0346713
0.0319493
0.0361628
0.0340265
0.0312103
0.0358925
0.0331157
0.0384199
0.0356056
0.0272671
0.0301401
0.0283165
0.0272179
0.023388
0.0256464
0.027328
0.0341176
0.0416458
0.0342643
0.0314614
0.0370121
0.0345457
0.0381618
0.0373387
0.0399754
0.0372475
0.0365902
0.0334086
0.0303279
0.0321235
0.0427885
0.0350534
0.0373004
0.0401316
0.0389152
0.0392061
0.0379835
0.038765
0.0390477
0.0386518
0.0338392
0.038546
0.0311991
0.0295348
0.0314343
0.0375587
0.0323397
0.0304009
0.0349227
0.0352213
0.0262913
0.030879
0.0330974
0.0296511
0.0277136
0.0334128
0.025953
0.0188779
0.0238845
0.0311401
0.0266105
0.0284778
0.0322844
0.0312471
0.0361085
0.0342884
0.0314237
0.0280169
0.0249327
0.0277145
0.025732
0.0263297
0.0458986
0.0414149
0.0367677
0.0352467
0.0388194
0.0361391
0.0327749
0.0336473
0.0376515
0.038516
0.0361485
0.0335599
0.0434821
0.0395839
0.0351948
0.0382741
0.0459019
0.039173
0.0438126
0.0374665
0.0363435
0.0364869
0.0427409
0.0398945
0.0417572
0.0414076
0.0406632
0.0388657
0.0312292
0.0377285
0.031142
0.0322104
0.0304499
0.0395163
0.034446
0.0349751
0.0339773
0.0339965
0.0326136
0.0362448
0.0426252
0.0421147
0.0366083
0.045895
0.0402359
0.0495695
0.0459713
0.0431606
0.0402055
0.0490941
0.0419157
0.0409831
0.0455021
0.0414696
0.0387469
0.0473514
0.0427332
0.0445039
0.0436815
0.0409933
0.0486837
0.04351
0.0413766
0.0390321
0.045344
0.0404868
0.0416704
0.0438711
0.0359401
0.039413
0.0380371
0.0359589
0.0411484
0.0370929
0.0456666
0.0409382
0.0435453
0.0329074
0.039128
0.034326
0.0326392
0.0331852
0.0308984
0.0340094
0.0470276
0.0372384
0.0354771
0.038738
0.0417465
0.044372
0.0457217
0.0449494
0.0446636
0.0375828
0.0411271
0.0400557
0.0410272
0.0430763
0.0480327
0.0390702
0.0389558
0.0440435
0.0503691
0.0464203
0.0370458
0.04137
0.0469769
0.0434859
0.04321
0.0469767
0.0367059
0.0403382
0.0440072
0.042262
0.0419214
0.0368679
0.0332822
0.0345286
0.0378852
0.0375208
0.0484239
0.0444656
0.0389613
0.0426498
0.0477696
0.0420115
0.0375268
0.0423411
0.0376237
0.0442531
0.0455043
0.0437606
0.036603
0.0368904
0.0281127
0.0389782
0.0361666
0.035738
0.0333507
0.0456708
0.0477497
0.0407465
0.0441654
0.0478665
0.0479157
0.0453469
0.0395983
0.0390687
0.0390015
0.0565405
0.0535029
0.046092
0.0471865
0.045451
0.0464316
0.0503576
0.0423643
0.046469
0.0496661
0.0532915
0.0475218
0.0452981
0.0460357
0.0437453
0.0487182
0.0487544
0.0388538
0.0398817
0.0452684
0.0443128
0.0423522
0.048145
0.0459887
0.0471595
0.0544446
0.0480428
0.0482589
0.0505682
0.0485043
0.0475127
0.056603
0.0554364
0.0496414
0.0488349
0.051048
0.0556354
0.0490242
0.0483953
0.0524305
0.0504344
0.0502767
0.0464395
0.0488932
0.0465555
0.0421736
0.0428676
0.0553881
0.0516762
0.0446461
0.0482582
0.0490117
0.0517525
0.0503463
0.0516248
0.0475821
0.0581612
0.0536544
0.0510267
0.054444
0.0471997
0.0494192
0.0490487
0.0492046
0.0486155
0.0455208
0.0465
0.0460336
0.0385204
0.0403755
0.0383673
0.0470123
0.0470991
0.0512945
0.0471329
0.049001
0.0458457
0.0527397
0.050981
0.0443439
0.0503903
0.042074
0.0481527
0.0464483
0.0424923
0.0391503
0.0506627
0.0466102
0.0440671
0.0423401
0.0430724
0.050251
0.0477311
0.0459527
0.0475065
0.0494364
0.0506151
0.0470886
0.0450384
0.0516556
0.047
0.0472827
0.0430986
0.0459624
0.0490711
0.043897
0.0434398
0.0370454
0.0448695
0.0533411
0.051159
0.0471639
0.0523862
0.0480026
0.0417486
0.0463511
0.0433845
0.0450391
0.0518317
0.0609384
0.0572698
0.0602898
0.0551312
0.0542953
0.0557126
0.0554851
0.0558489
0.0516891
0.0514227
0.0501342
0.0505391
0.0468061
0.0491326
0.0443381
0.0457986
0.0469655
0.0475031
0.0455973
0.0526419
0.0563543
0.054434
0.0491784
0.0530318
0.0602949
0.0600386
0.0554699
0.0526586
0.0507013
0.0512754
0.0525365
0.051876
0.0481714
0.0471943
0.0489582
0.0498131
0.0435464
0.0571357
0.0536281
0.0555029
0.0597221
0.0605263
0.0575909
0.0549325
0.0570351
0.0556014
0.063309
0.0560963
0.0568826
0.0537943
0.0588081
0.0576632
0.0602792
0.0597314
0.0568582
0.0570569
0.0511581
0.0522568
0.0539247
0.05721
0.0522961
0.0474286
0.0495806
0.0520525
0.0523014
0.0496854
0.049485
0.0603902
0.0535757
0.057991
0.0459826
0.0552968
0.0566452
0.0593588
0.054426
0.0583787
0.0533476
0.0616846
0.0478272
0.0521847
0.0491212
0.0524477
0.0496523
0.0551255
0.0518359
0.0459669
0.0502776
0.0581916
0.0563199
0.0566342
0.0567396
0.06034
0.0553581
0.0589784
0.0501954
0.0509246
0.0478194
0.0489948
0.0633868
0.0634275
0.0568082
0.0531401
0.062303
0.0578231
0.0556193
0.0555083
0.0505546
0.0517025
0.053395
0.051117
0.0491123
0.0546893
0.0537054
0.0522184
0.053419
0.0458504
0.0549828
0.0511083
0.0494642
0.052841
0.0594604
0.0528702
0.0482387
0.0511354
0.059328
0.0555797
0.0510732
0.0525964
0.0515941
0.0537451
0.0543418
0.0554278
0.0553966
0.0527698
0.0470248
0.0520336
0.0477626
0.0478797
0.0455552
0.0579213
0.0614115
0.0590162
0.0640724
0.0664612
0.0643712
0.0643619
0.0601029
0.0582679
0.0623857
0.0595472
0.0516232
0.0579445
0.0549614
0.0526741
0.0567089
0.0527819
0.0519554
0.0625824
0.0635087
0.0568508
0.0590936
0.0606414
0.0601815
0.0583349
0.0609579
0.0628751
0.0569346
0.0595452
0.0651096
0.0597157
0.0657762
0.0625257
0.0576651
0.0599428
0.0593773
0.059751
0.0614352
0.0649552
0.0596764
0.0625901
0.057382
0.0579306
0.0574874
0.0584965
0.0604523
0.0535283
0.0507869
0.0554821
0.052661
0.0554765
0.0554803
0.0541151
0.0558967
0.052045
0.0485338
0.0588716
0.0551245
0.052579
0.0551614
0.0523735
0.0507514
0.0675233
0.0633289
0.0681426
0.0637443
0.0532426
0.0585396
0.0660101
0.0630339
0.0600677
0.064415
0.0584581
0.05988
0.0611669
0.063345
0.068415
0.058088
0.0598721
0.0565179
0.0666593
0.062799
0.0713752
0.0623717
0.0642336
0.0651441
0.0686827
0.0656588
0.0672012
0.0653297
0.0586413
0.0571507
0.0654585
0.055528
0.0674509
0.0590695
0.0661543
0.0664665
0.0729443
0.0703225
0.0707221
0.0749578
0.078512
0.0735001
0.0747781
0.0700914
0.0653734
0.0681958
0.0609275
0.0667701
0.0613875
0.0625891
0.0661709
0.0743786
0.0691628
0.0679607
0.0712549
0.0720334
0.0691776
0.0641141
0.0701816
0.068548
0.0689402
0.0617075
0.0680812
0.064249
0.0639419
0.0582779
0.0603219
0.0720222
0.0667476
0.069644
0.0647583
0.0635835
0.0699185
0.0703592
0.0619662
0.0638429
0.0661558
0.0671243
0.0618569
0.0630223
0.068288
0.0690209
0.0690688
0.0649596
0.0691717
0.0610174
0.0661042
0.066084
0.0644663
0.0695919
0.0664615
0.0626768
0.0642702
0.063633
0.0648924
0.0663716
0.0610427
0.0637915
0.0619175
0.0595421
0.0622488
0.063208
0.0618843
0.0604165
0.0671709
0.0576985
0.0598556
0.0651278
0.0610977
0.0614682
0.0687616
0.0670527
0.069458
0.0645597
0.0660658
0.0721964
0.0742916
0.0717423
0.0629968
0.0634533
0.0671362
0.0709695
0.0668489
0.0733161
0.0683171
0.0712704
0.0713722
0.0675798
0.0754737
0.065958
0.0689421
0.0665432
0.0617278
0.0614183
0.0640654
0.0577855
0.0564464
0.0610799
0.0621186
0.0607779
0.0663267
0.0574325
0.0646315
0.0594698
0.0595923
0.0664305
0.0633136
0.0662492
0.0647429
0.0668516
0.0701006
0.0669987
0.0652982
0.0637299
0.0745438
0.0813366
0.0824719
0.0825775
0.0817846
0.0771721
0.0781835
0.0783966
0.0770027
0.0771209
0.0726986
0.0668571
0.0669523
0.0652301
0.0684274
0.0725575
0.0752347
0.0667022
0.0675932
0.0715678
0.0682177
0.0651347
0.0686615
0.0679529
0.0685682
0.0704194
0.0692279
0.0735332
0.0728384
0.0698409
0.0666519
0.0675141
0.0693067
0.0719317
0.0649906
0.0698737
0.0738272