/*--------------------------------*- C++ -*----------------------------------*\
| =========                 |                                                 |
| \\      /  F ield         | OpenFOAM: The Open Source CFD Toolbox           |
|  \\    /   O peration     | Version:  v1612+                                |
|   \\  /    A nd           | Web:      www.OpenFOAM.com                      |
|    \\/     M anipulation  |                                                 |
\*---------------------------------------------------------------------------*/
FoamFile
{
    version     2.0;
    format      ascii;
    class       volScalarField;
    location    "200";
    object      p;
}
// * * * * * * * * * * * * * * * * * * * * * * * * * * * * * * * * * * * * * //

dimensions      [0 2 -2 0 0 0 0];

internalField   nonuniform List<scalar> 
18977
(
0.291595
0.25948
0.256531
0.257514
0.261347
0.259152
0.254067
0.25602
0.256681
0.252128
0.256787
0.257726
0.256866
0.252233
0.254898
0.254263
0.253935
0.251188
0.25206
0.248023
0.24992
0.243533
0.246467
0.246771
0.241956
0.245479
0.241589
0.243798
0.238418
0.244413
0.247877
0.242354
0.249299
0.252507
0.248942
0.249532
0.250129
0.246629
0.246124
0.258309
0.258247
0.257914
0.258197
0.245414
0.242204
0.2491
0.247131
0.247183
0.246662
0.240032
0.244318
0.247131
0.241758
0.242641
0.246533
0.251047
0.245401
0.245037
0.240514
0.242073
0.242439
0.242826
0.239895
0.239341
0.243235
0.243202
0.240701
0.242556
0.19509
0.196106
0.194451
0.196807
0.188686
0.190711
0.19525
0.190403
0.19557
0.190481
0.188219
0.193051
0.191611
0.190282
0.191207
0.185422
0.192813
0.188156
0.186267
0.186106
0.185313
0.247264
0.243802
0.244595
0.248708
0.247971
0.245182
0.254336
0.253773
0.247222
0.249431
0.246095
0.250044
0.247484
0.256592
0.253347
0.249277
0.25229
0.254922
0.247986
0.246614
0.24773
0.268811
0.273784
0.26346
0.2647
0.267232
0.272412
0.26791
0.266287
0.265497
0.264458
0.271494
0.267636
0.271963
0.271404
0.269008
0.271556
0.267429
0.27015
0.181701
0.188514
0.191367
0.191239
0.181968
0.187681
0.186872
0.192762
0.192675
0.184929
0.183173
0.183549
0.185562
0.183092
0.189195
0.183175
0.194746
0.196496
0.186693
0.244101
0.244426
0.234801
0.23612
0.239706
0.24906
0.244384
0.238845
0.24098
0.233195
0.235733
0.236574
0.236526
0.238048
0.236457
0.240855
0.239038
0.19162
0.188994
0.188097
0.184198
0.181429
0.194581
0.192221
0.192089
0.185605
0.18911
0.188845
0.189038
0.194585
0.210527
0.207674
0.206891
0.210075
0.211327
0.217236
0.214409
0.218156
0.217891
0.216892
0.214841
0.210981
0.216916
0.211791
0.242577
0.243135
0.238683
0.24181
0.238752
0.243928
0.242413
0.239026
0.235556
0.23568
0.241615
0.237887
0.235676
0.230144
0.242268
0.232373
0.18984
0.194155
0.19113
0.18645
0.192158
0.193087
0.191064
0.19549
0.196317
0.192122
0.189492
0.259214
0.260292
0.263299
0.260593
0.259175
0.257833
0.263
0.255031
0.25739
0.256538
0.254788
0.260758
0.259372
0.258011
0.259432
0.262346
0.258752
0.211491
0.21416
0.220346
0.216727
0.212956
0.217455
0.210852
0.212018
0.21391
0.21559
0.210093
0.213881
0.214691
0.213565
0.212714
0.212324
0.215442
0.217427
0.215757
0.213992
0.219834
0.218852
0.224415
0.226023
0.222267
0.219585
0.229467
0.223222
0.219798
0.218528
0.222658
0.224973
0.226165
0.226873
0.227898
0.221509
0.224745
0.225412
0.188865
0.18845
0.191635
0.185283
0.189381
0.192521
0.189377
0.193227
0.192086
0.190608
0.193231
0.193468
0.196109
0.196537
0.194909
0.194839
0.198463
0.190756
0.195195
0.192677
0.193715
0.200727
0.218924
0.219811
0.217267
0.21929
0.219702
0.223938
0.220177
0.214722
0.217669
0.221989
0.212867
0.215218
0.217204
0.221469
0.21874
0.215956
0.2316
0.227975
0.231266
0.224971
0.232019
0.231264
0.234339
0.234702
0.228092
0.225902
0.232788
0.231674
0.227717
0.226189
0.228306
0.229186
0.22688
0.228434
0.228934
0.224276
0.225632
0.225246
0.222825
0.221753
0.226225
0.220296
0.222958
0.219663
0.221638
0.221021
0.224086
0.217676
0.222171
0.221316
0.214059
0.21996
0.216856
0.255625
0.254898
0.254405
0.25377
0.250129
0.25351
0.252348
0.256534
0.247098
0.248723
0.251826
0.251431
0.251149
0.254641
0.250221
0.250518
0.209552
0.209699
0.208127
0.205727
0.203098
0.206514
0.203997
0.205642
0.208129
0.207517
0.209676
0.20247
0.204784
0.200039
0.203964
0.209078
0.206216
0.204272
0.202964
0.201378
0.203849
0.208202
0.208783
0.200855
0.212171
0.20828
0.210105
0.208991
0.202448
0.207362
0.21131
0.215398
0.210001
0.206701
0.207418
0.203179
0.212402
0.250993
0.248539
0.251339
0.252243
0.250464
0.252079
0.249441
0.249275
0.25421
0.255781
0.253151
0.244249
0.245487
0.248289
0.250576
0.25267
0.254653
0.252672
0.253313
0.250588
0.248888
0.250293
0.251814
0.250797
0.281469
0.281013
0.28579
0.288253
0.28361
0.279949
0.285614
0.290597
0.285756
0.287996
0.291944
0.288686
0.288343
0.284178
0.286873
0.283913
0.287849
0.283435
0.280965
0.293721
0.293889
0.286547
0.273402
0.277258
0.272751
0.275632
0.272332
0.270128
0.273373
0.27157
0.275575
0.27504
0.274664
0.277076
0.276136
0.273565
0.273623
0.274485
0.274808
0.276596
0.275784
0.278141
0.246838
0.249165
0.246325
0.243575
0.250318
0.251233
0.243721
0.245696
0.241263
0.247591
0.24976
0.247836
0.246659
0.2623
0.260282
0.25682
0.264374
0.258169
0.269511
0.275647
0.266117
0.263694
0.261771
0.26294
0.261773
0.266807
0.261291
0.250988
0.255062
0.251113
0.249044
0.24803
0.249278
0.251155
0.253912
0.256077
0.250169
0.250625
0.253357
0.256354
0.245681
0.247048
0.24933
0.246062
0.252072
0.264237
0.266324
0.259201
0.258813
0.263536
0.26556
0.266939
0.260934
0.261464
0.266535
0.268844
0.259304
0.259241
0.2582
0.258597
0.261479
0.258712
0.266544
0.266965
0.261231
0.266356
0.260421
0.25938
0.260146
0.250201
0.250631
0.247836
0.250802
0.25841
0.261805
0.256826
0.261443
0.259515
0.261363
0.262174
0.254815
0.256091
0.250749
0.259722
0.253514
0.264651
0.264648
0.190812
0.194635
0.188424
0.190756
0.194643
0.19351
0.19431
0.188324
0.193761
0.190506
0.189638
0.195764
0.189816
0.190838
0.192742
0.18402
0.188647
0.283505
0.282607
0.284299
0.281353
0.279509
0.28032
0.282252
0.283506
0.281721
0.283999
0.211234
0.21348
0.212591
0.210425
0.216854
0.213875
0.212521
0.209514
0.219038
0.219855
0.222704
0.222697
0.222837
0.220574
0.215476
0.281482
0.281479
0.283304
0.281587
0.28851
0.285748
0.280818
0.283785
0.28357
0.210087
0.212763
0.213375
0.213799
0.214219
0.215592
0.209485
0.20759
0.211849
0.21684
0.214253
0.210243
0.286482
0.287252
0.285924
0.289938
0.288717
0.289332
0.285029
0.183354
0.179954
0.185955
0.18461
0.182891
0.185754
0.190863
0.185187
0.184086
0.182381
0.182701
0.191956
0.189994
0.185596
0.18518
0.184796
0.18001
0.22981
0.232458
0.22905
0.234044
0.233575
0.229694
0.224132
0.227148
0.230226
0.230338
0.227027
0.227925
0.225923
0.229596
0.229085
0.232162
0.22796
0.282879
0.284513
0.285248
0.285945
0.28173
0.279665
0.280304
0.2802
0.284112
0.285592
0.280144
0.282686
0.277825
0.193715
0.193219
0.201403
0.196873
0.194652
0.194012
0.191798
0.195582
0.192559
0.200807
0.201799
0.197191
0.1944
0.188893
0.20142
0.196845
0.195262
0.191807
0.197208
0.196086
0.210541
0.202733
0.209841
0.209741
0.207429
0.209603
0.206454
0.210268
0.205328
0.207834
0.205356
0.209699
0.207572
0.205223
0.210405
0.21194
0.18362
0.182351
0.180342
0.184618
0.183277
0.187667
0.186332
0.183223
0.185262
0.182968
0.181987
0.188049
0.237497
0.241461
0.233286
0.239481
0.234822
0.235559
0.246032
0.242407
0.23261
0.228533
0.227222
0.23417
0.233042
0.242382
0.240073
0.225477
0.229398
0.231783
0.23528
0.199977
0.201188
0.20713
0.209501
0.204061
0.202963
0.203073
0.200767
0.202697
0.207271
0.206257
0.206216
0.202631
0.20335
0.204192
0.205482
0.202694
0.204504
0.179954
0.18086
0.179534
0.179504
0.181669
0.183032
0.18265
0.181502
0.177798
0.177407
0.180126
0.192143
0.191609
0.190805
0.191468
0.189434
0.18913
0.195363
0.191534
0.194398
0.189954
0.194251
0.19223
0.233493
0.227588
0.236581
0.230143
0.229397
0.230695
0.233174
0.23037
0.228875
0.230441
0.231003
0.228109
0.226318
0.229588
0.234337
0.230816
0.227808
0.233062
0.227266
0.232106
0.199865
0.200062
0.199588
0.199583
0.201419
0.19775
0.200747
0.198593
0.196501
0.195697
0.197446
0.193931
0.198939
0.195033
0.196926
0.194263
0.194074
0.229355
0.229032
0.227983
0.228914
0.233061
0.229793
0.236002
0.240107
0.227689
0.230033
0.229123
0.228442
0.239256
0.238252
0.234583
0.229943
0.233595
0.225429
0.235544
0.230641
0.229374
0.231848
0.180336
0.182138
0.184867
0.189366
0.187649
0.187486
0.184546
0.184042
0.188456
0.185593
0.2302
0.229718
0.23354
0.231621
0.235169
0.234541
0.228745
0.230743
0.231302
0.231145
0.227797
0.232859
0.23018
0.23687
0.236307
0.234058
0.224978
0.225933
0.227599
0.226401
0.224308
0.221989
0.228018
0.229395
0.227324
0.229812
0.226401
0.22669
0.229354
0.230071
0.229859
0.227968
0.229663
0.233418
0.229251
0.231735
0.227156
0.226202
0.223479
0.224633
0.228353
0.226201
0.221016
0.221087
0.224635
0.221033
0.22094
0.223926
0.219898
0.220176
0.218515
0.26756
0.265246
0.264312
0.26966
0.260887
0.2628
0.262348
0.271526
0.260789
0.267538
0.263077
0.266968
0.266553
0.26462
0.267098
0.267951
0.271438
0.27316
0.26718
0.268293
0.270574
0.275742
0.273798
0.27424
0.272663
0.270929
0.273934
0.276375
0.270934
0.272699
0.265003
0.265907
0.264813
0.262282
0.266275
0.270358
0.268998
0.259918
0.263396
0.265973
0.270253
0.270943
0.26582
0.266292
0.271561
0.266911
0.267898
0.26435
0.260579
0.264396
0.266563
0.261724
0.265485
0.263444
0.266929
0.269389
0.262164
0.258063
0.262409
0.264396
0.266034
0.26239
0.263712
0.267494
0.262663
0.223438
0.22001
0.228426
0.224183
0.22874
0.229028
0.227281
0.225376
0.225478
0.22744
0.229385
0.22426
0.228031
0.228013
0.227693
0.226704
0.231051
0.233726
0.230992
0.241403
0.238624
0.22771
0.233994
0.235182
0.236171
0.236796
0.240677
0.24046
0.23898
0.230551
0.239393
0.237638
0.23781
0.237275
0.235717
0.242299
0.246017
0.245629
0.241869
0.239587
0.242058
0.245728
0.238444
0.238336
0.241864
0.239424
0.238875
0.244867
0.243313
0.239194
0.239634
0.239284
0.191466
0.18894
0.187527
0.189634
0.190371
0.190725
0.192414
0.190166
0.192027
0.277793
0.275764
0.26812
0.275619
0.271448
0.26979
0.263809
0.263645
0.273786
0.273829
0.277405
0.274054
0.274821
0.269365
0.273108
0.273245
0.26609
0.266119
0.274367
0.268694
0.289989
0.288463
0.28983
0.286826
0.178951
0.184838
0.18553
0.182157
0.183555
0.182966
0.184464
0.184441
0.185421
0.185585
0.175714
0.186389
0.18299
0.181839
0.185466
0.184432
0.183141
0.185794
0.187473
0.181046
0.180713
0.18225
0.186251
0.182339
0.181377
0.189332
0.177155
0.18396
0.183951
0.177494
0.181719
0.181645
0.187343
0.186092
0.188515
0.199434
0.205284
0.201377
0.203063
0.207886
0.201511
0.202369
0.203101
0.206778
0.207616
0.207191
0.210088
0.201981
0.203829
0.25138
0.247866
0.252815
0.251162
0.250341
0.251884
0.248339
0.2478
0.253864
0.252771
0.25361
0.25381
0.249506
0.251139
0.253013
0.25663
0.261246
0.249783
0.251347
0.254822
0.236351
0.238095
0.238282
0.231752
0.235134
0.237794
0.233416
0.231683
0.230001
0.241028
0.235196
0.239501
0.230237
0.234623
0.235646
0.240759
0.238251
0.218444
0.223979
0.225037
0.2211
0.215434
0.219134
0.217217
0.218321
0.229751
0.22776
0.221302
0.22529
0.223241
0.226972
0.220755
0.22182
0.287966
0.285539
0.279603
0.279121
0.285319
0.287653
0.282937
0.29107
0.282524
0.280497
0.276328
0.275749
0.288273
0.279177
0.275545
0.283869
0.28405
0.283433
0.280502
0.278938
0.279391
0.284971
0.268367
0.27362
0.273482
0.278274
0.274748
0.271777
0.264933
0.267256
0.264907
0.261351
0.272346
0.272159
0.272668
0.274269
0.272926
0.272304
0.273093
0.261042
0.26631
0.264201
0.259709
0.262758
0.261453
0.267221
0.254001
0.255576
0.264749
0.261129
0.262449
0.256336
0.256594
0.259459
0.258324
0.253196
0.252533
0.250573
0.256954
0.254003
0.251991
0.253636
0.256484
0.256421
0.252189
0.252401
0.255033
0.242188
0.241712
0.248164
0.246577
0.243801
0.241096
0.246198
0.240929
0.239926
0.244034
0.241136
0.238832
0.241909
0.241814
0.239724
0.248502
0.244308
0.239666
0.240703
0.232233
0.229505
0.236034
0.241802
0.239508
0.23755
0.234904
0.232886
0.230863
0.234097
0.231992
0.230391
0.233632
0.233573
0.230366
0.238485
0.230303
0.232449
0.230133
0.226448
0.231195
0.224664
0.224814
0.224139
0.218684
0.222081
0.216801
0.215129
0.223142
0.225835
0.216884
0.226361
0.220531
0.217192
0.211358
0.219966
0.221019
0.21551
0.2204
0.222457
0.218682
0.217498
0.207533
0.214688
0.210979
0.21123
0.210461
0.211642
0.208415
0.213678
0.213681
0.204774
0.208998
0.211604
0.210358
0.207362
0.207874
0.21298
0.207473
0.203087
0.206922
0.199822
0.206878
0.201527
0.201999
0.207335
0.200763
0.197257
0.195613
0.197929
0.196687
0.196483
0.199249
0.203449
0.200856
0.198986
0.203349
0.198435
0.195776
0.193332
0.198331
0.201443
0.19801
0.201493
0.195877
0.193655
0.187036
0.186758
0.192113
0.192451
0.184914
0.190896
0.192733
0.185241
0.185904
0.192164
0.192338
0.188256
0.185027
0.183593
0.186773
0.181787
0.185072
0.183344
0.186626
0.181675
0.178178
0.182215
0.18676
0.182856
0.178563
0.187264
0.182119
0.180983
0.187401
0.189356
0.187489
0.183071
0.181118
0.186096
0.180824
0.178826
0.179187
0.186833
0.182887
0.191591
0.186449
0.187647
0.182882
0.18238
0.186408
0.185112
0.187623
0.185095
0.187992
0.182632
0.189389
0.185195
0.186826
0.187501
0.186664
0.193496
0.182927
0.183862
0.192671
0.184236
0.186793
0.184681
0.182025
0.184897
0.187414
0.181486
0.184121
0.187212
0.185787
0.186482
0.186976
0.188887
0.187564
0.187679
0.191632
0.18844
0.188421
0.19052
0.188066
0.1858
0.187559
0.189171
0.196899
0.18703
0.185742
0.188618
0.18318
0.185309
0.186585
0.18611
0.185059
0.183739
0.182013
0.184114
0.18122
0.189485
0.18856
0.192178
0.187823
0.187542
0.192067
0.187979
0.194798
0.188156
0.185275
0.19136
0.188644
0.192809
0.186277
0.184172
0.181385
0.187993
0.195701
0.189178
0.193
0.190691
0.191831
0.180029
0.188001
0.185613
0.184449
0.186535
0.184843
0.19772
0.195072
0.199141
0.189332
0.180684
0.177287
0.183201
0.182855
0.195944
0.185059
0.186462
0.192528
0.198734
0.194069
0.19196
0.192655
0.194542
0.198123
0.192542
0.186495
0.202778
0.192343
0.19992
0.195027
0.197757
0.192497
0.202365
0.195535
0.186263
0.184481
0.183944
0.18488
0.195457
0.209273
0.203846
0.197042
0.190476
0.198975
0.195964
0.196872
0.19785
0.200057
0.19497
0.203457
0.204475
0.196866
0.20064
0.206648
0.199651
0.201315
0.198404
0.202982
0.202502
0.206621
0.202134
0.205384
0.198144
0.191256
0.191175
0.19664
0.193506
0.195144
0.195212
0.19729
0.203214
0.19271
0.192375
0.194356
0.20268
0.204844
0.199833
0.20042
0.197817
0.195625
0.199928
0.202509
0.196402
0.197913
0.189551
0.192702
0.210331
0.203361
0.200861
0.207883
0.206069
0.203767
0.207464
0.201031
0.205814
0.210231
0.205164
0.202128
0.204837
0.202982
0.205279
0.203164
0.202454
0.198054
0.200327
0.20475
0.206226
0.20264
0.201047
0.200017
0.199631
0.188225
0.188905
0.193686
0.199133
0.19863
0.192088
0.198556
0.196089
0.197667
0.196187
0.195126
0.211308
0.205894
0.208067
0.205216
0.198454
0.199171
0.197613
0.20382
0.19942
0.196763
0.202837
0.195851
0.198976
0.199624
0.203656
0.204969
0.211886
0.206708
0.215014
0.207172
0.2084
0.210589
0.198912
0.196802
0.194581
0.202127
0.199234
0.200603
0.196483
0.20991
0.207061
0.202187
0.21386
0.209865
0.214789
0.208789
0.21715
0.215713
0.21449
0.213861
0.204808
0.208084
0.212129
0.21085
0.215743
0.217013
0.219439
0.219144
0.212824
0.212227
0.21027
0.207036
0.205679
0.208306
0.20757
0.200985
0.203887
0.202268
0.199025
0.205921
0.218379
0.213872
0.206124
0.213469
0.216468
0.212171
0.21444
0.212562
0.210185
0.206814
0.219572
0.216997
0.213719
0.210007
0.208732
0.210197
0.223651
0.218546
0.220731
0.214618
0.209334
0.205071
0.213079
0.210809
0.216397
0.211664
0.212524
0.215164
0.21389
0.218545
0.217742
0.220973
0.216994
0.212841
0.212505
0.206948
0.210242
0.207802
0.201371
0.203939
0.205372
0.206596
0.204394
0.211891
0.215528
0.217859
0.212861
0.212725
0.222168
0.20537
0.211257
0.203276
0.207915
0.21566
0.20835
0.208345
0.210135
0.220469
0.2212
0.213995
0.214079
0.217761
0.212795
0.210174
0.218251
0.210888
0.213803
0.215856
0.211349
0.210337
0.209103
0.22246
0.218864
0.216974
0.211225
0.218127
0.219479
0.221899
0.203143
0.206735
0.210081
0.208709
0.207609
0.20954
0.210126
0.199049
0.201683
0.209009
0.208372
0.222879
0.219661
0.21725
0.219542
0.215299
0.212884
0.221552
0.220525
0.208285
0.208697
0.208668
0.212362
0.212836
0.212756
0.206658
0.209741
0.212562
0.222498
0.219638
0.222789
0.217125
0.209576
0.209243
0.226923
0.222826
0.218204
0.219913
0.218846
0.231844
0.225055
0.223996
0.225249
0.226817
0.221162
0.220645
0.223264
0.225543
0.222922
0.213043
0.217085
0.224453
0.225435
0.223428
0.221215
0.219515
0.219994
0.222279
0.22183
0.220316
0.224051
0.229312
0.222834
0.22336
0.224634
0.213384
0.210394
0.210091
0.21438
0.21697
0.212751
0.222421
0.219058
0.224194
0.216376
0.224981
0.226945
0.236592
0.231152
0.227636
0.225167
0.224245
0.23004
0.224846
0.225807
0.2279
0.223683
0.231228
0.227383
0.222409
0.219658
0.218132
0.217831
0.217674
0.226753
0.221431
0.223216
0.21837
0.214233
0.220499
0.219009
0.220144
0.218195
0.205352
0.210211
0.213513
0.213711
0.216008
0.212295
0.227169
0.220892
0.226511
0.231311
0.227149
0.224043
0.222218
0.224863
0.225747
0.22623
0.227115
0.220172
0.228941
0.227348
0.234641
0.236722
0.232303
0.228074
0.227056
0.230673
0.226156
0.233801
0.234369
0.232169
0.233115
0.22655
0.226435
0.217257
0.219203
0.221208
0.227562
0.222419
0.225956
0.21945
0.214983
0.222772
0.21758
0.222491
0.219575
0.237404
0.237103
0.238116
0.238084
0.231456
0.234846
0.234915
0.23646
0.22839
0.235049
0.238798
0.234871
0.238286
0.235142
0.231166
0.238306
0.234981
0.232491
0.240573
0.238114
0.226511
0.229274
0.234863
0.229321
0.224453
0.234435
0.236718
0.233993
0.228863
0.228608
0.232764
0.23132
0.236712
0.231252
0.232645
0.232264
0.234999
0.236199
0.231882
0.231482
0.235453
0.223916
0.238024
0.23104
0.234505
0.242504
0.234275
0.232535
0.220849
0.230919
0.224972
0.223615
0.221007
0.226789
0.226899
0.229167
0.230099
0.227059
0.226337
0.234767
0.233759
0.235204
0.232808
0.229616
0.240897
0.236192
0.229671
0.226542
0.236641
0.236694
0.234391
0.237893
0.235019
0.235634
0.232916
0.237626
0.236889
0.236404
0.250878
0.25005
0.242637
0.243495
0.235754
0.237632
0.238466
0.243062
0.242542
0.250371
0.246167
0.238067
0.242696
0.247114
0.245101
0.241717
0.242345
0.238427
0.243217
0.242107
0.246942
0.245443
0.223053
0.237212
0.234708
0.238672
0.237283
0.235917
0.233077
0.239425
0.232187
0.234552
0.243171
0.242862
0.237795
0.232588
0.233274
0.232579
0.227119
0.239001
0.240215
0.237312
0.226121
0.231491
0.226058
0.231923
0.228609
0.224408
0.224125
0.22888
0.228685
0.228152
0.236752
0.233928
0.234892
0.230686
0.233351
0.25259
0.247252
0.253159
0.250178
0.24786
0.247252
0.243505
0.249698
0.249895
0.24892
0.243058
0.249675
0.243428
0.247349
0.240433
0.243358
0.246791
0.244383
0.241756
0.240079
0.236411
0.232914
0.241485
0.243178
0.229785
0.235217
0.248006
0.246751
0.238773
0.249798
0.24814
0.247421
0.241472
0.251851
0.247701
0.241845
0.241487
0.237896
0.237654
0.241136
0.235459
0.237124
0.231221
0.231809
0.240109
0.235228
0.2388
0.235713
0.236567
0.236239
0.235976
0.247318
0.247142
0.237162
0.237977
0.246423
0.24277
0.23688
0.241724
0.241204
0.252979
0.244562
0.238693
0.252001
0.245342
0.239963
0.237216
0.236218
0.237076
0.240078
0.242593
0.234791
0.229748
0.246315
0.237883
0.251083
0.241689
0.256564
0.248767
0.251803
0.236501
0.241353
0.238137
0.235631
0.232555
0.236237
0.240026
0.229732
0.232675
0.235067
0.24228
0.240033
0.24277
0.247639
0.244255
0.250026
0.250871
0.247162
0.243395
0.249513
0.2552
0.247935
0.246693
0.250329
0.247106
0.244204
0.244765
0.245681
0.235596
0.239417
0.241262
0.243738
0.240017
0.240701
0.256251
0.253439
0.251313
0.249585
0.251169
0.257428
0.253213
0.259331
0.255071
0.257236
0.243599
0.243349
0.23983
0.250656
0.248506
0.246021
0.248014
0.242081
0.241134
0.248859
0.247984
0.248668
0.253186
0.260865
0.258557
0.251323
0.250873
0.257692
0.255958
0.25671
0.262578
0.262248
0.256575
0.257599
0.260294
0.259281
0.248417
0.2578
0.256505
0.255342
0.25537
0.246776
0.248846
0.266879
0.262481
0.262045
0.258729
0.262431
0.257671
0.257661
0.256787
0.258923
0.258321
0.25878
0.249406
0.259857
0.256173
0.259761
0.257544
0.256014
0.252221
0.25034
0.251543
0.247832
0.249776
0.242975
0.244022
0.245981
0.24217
0.250907
0.248722
0.260723
0.250727
0.256294
0.2515
0.250542
0.248619
0.249178
0.246566
0.248437
0.255991
0.263631
0.259702
0.266896
0.261885
0.259056
0.261261
0.256811
0.24781
0.258528
0.249023
0.248633
0.266719
0.259981
0.259342
0.262965
0.269585
0.254213
0.257206
0.257911
0.262543
0.261512
0.261419
0.262749
0.255732
0.255959
0.255091
0.249353
0.253329
0.253372
0.253665
0.25589
0.252937
0.250553
0.248747
0.251553
0.253714
0.252737
0.249606
0.269301
0.265424
0.265116
0.271912
0.265764
0.264689
0.265236
0.264718
0.262358
0.267606
0.267341
0.273746
0.268013
0.266757
0.25963
0.253396
0.251314
0.256675
0.253713
0.254916
0.259329
0.264587
0.260893
0.265687
0.262772
0.265842
0.256725
0.258512
0.255723
0.261777
0.257296
0.260271
0.267022
0.258719
0.254469
0.259306
0.252755
0.251538
0.254804
0.269373
0.266901
0.264191
0.264991
0.272418
0.269572
0.266635
0.268903
0.263346
0.263736
0.260362
0.266873
0.265613
0.258924
0.2613
0.260648
0.266455
0.270634
0.268442
0.265434
0.266813
0.28241
0.275726
0.276981
0.268344
0.269936
0.269494
0.25903
0.268466
0.261871
0.269705
0.27383
0.276278
0.280104
0.276426
0.279803
0.271665
0.272772
0.27343
0.271019
0.271832
0.267179
0.2743
0.271754
0.271604
0.271593
0.272361
0.272375
0.274863
0.279824
0.275612
0.273874
0.267989
0.271856
0.26275
0.262744
0.268502
0.267172
0.277336
0.276318
0.269968
0.271889
0.262534
0.26803
0.267982
0.2727
0.270401
0.274767
0.269284
0.26731
0.256442
0.265575
0.26499
0.262803
0.264313
0.280483
0.270657
0.273887
0.268333
0.26498
0.254475
0.263883
0.262154
0.264382
0.258523
0.271296
0.266453
0.269552
0.266333
0.260725
0.286525
0.283877
0.280813
0.285236
0.291065
0.277637
0.27438
0.282667
0.281726
0.277857
0.274075
0.269765
0.273343
0.282627
0.27808
0.279021
0.274874
0.284503
0.282733
0.279477
0.274973
0.280985
0.277312
0.271973
0.276606
0.27564
0.279418
0.272776
0.27463
0.270054
0.282328
0.277384
0.277106
0.279372
0.26798
0.27549
0.269496
0.271151
0.269125
0.271865
0.260024
0.269098
0.268374
0.269013
0.256387
0.259981
0.268102
0.265562
0.266551
0.282162
0.282922
0.284212
0.283879
0.289458
0.285197
0.281328
0.279893
0.28336
0.282059
0.274283
0.27757
0.267066
0.273311
0.267578
0.269398
0.276079
0.277438
0.270627
0.273769
0.278334
0.287005
0.286265
0.285322
0.287106
0.290902
0.287735
0.284542
0.285602
0.287219
0.286482
0.285134
0.287022
0.283791
0.278655
0.278631
0.281436
0.281815
0.28844
0.278482
0.281645
0.289011
0.284309
0.283871
0.278202
0.290621
0.283079
0.284224
0.28035
0.284551
0.272151
0.273663
0.28572
0.282981
0.28119
0.281075
0.287881
0.282563
0.281559
0.279652
0.282782
0.279716
0.276148
0.282025
0.279197
0.275789
0.273457
0.272859
0.280353
0.276379
0.279386
0.279526
0.288973
0.294193
0.287389
0.284834
0.289158
0.282368
0.281951
0.286406
0.28835
0.286232
0.286785
0.2874
0.284461
0.290463
0.29276
0.289216
0.275907
0.282537
0.279077
0.284131
0.28498
0.282913
0.289106
0.28924
0.279005
0.28944
0.288065
0.282403
0.286446
0.282453
0.287845
0.286894
0.275415
0.276475
0.280988
0.279317
0.276276
0.27398
0.279472
0.279134
0.283526
0.276534
0.28003
0.279881
0.292841
0.29483
0.287892
0.295728
0.291688
0.289159
0.287136
0.277375
0.279877
0.28837
0.285577
0.284087
0.291248
0.28777
0.284449
0.287326
0.282672
0.283034
0.28074
0.285672
0.280529
0.280911
0.285591
0.281728
0.285568
0.278286
0.283812
0.285886
0.290334
0.286863
0.285534
0.281743
0.289898
0.287103
0.291341
0.289578
0.286037
0.293395
0.28232
0.285393
0.29314
0.287579
0.294889
0.292292
0.291057
0.290021
0.291923
0.284335
0.281632
0.289894
0.280284
0.285202
0.285298
0.289908
0.287012
0.284574
0.289193
0.291425
0.294582
0.294145
0.293676
0.289224
0.285666
0.280693
0.286996
0.284551
0.289677
0.286625
0.292552
0.291587
0.289608
0.291797
0.289375
0.280884
0.281243
0.284874
0.286465
0.284956
0.290544
0.284366
0.287487
0.28104
0.279855
0.284506
0.279324
0.275331
0.284259
0.282699
0.274827
0.278149
0.276269
0.274183
0.277353
0.280615
0.27841
0.278331
0.273334
0.287858
0.278404
0.277665
0.278906
0.280597
0.282838
0.284243
0.264985
0.261042
0.259693
0.269875
0.269431
0.275773
0.274579
0.276946
0.270095
0.285822
0.280855
0.274607
0.275597
0.280196
0.280978
0.276274
0.274181
0.286273
0.289062
0.283889
0.283563
0.291976
0.28906
0.288069
0.282339
0.285967
0.29142
0.286894
0.287683
0.277687
0.276313
0.281184
0.280784
0.280772
0.281797
0.277227
0.276881
0.274292
0.271096
0.269418
0.26922
0.271463
0.263825
0.265329
0.265772
0.270422
0.267403
0.272778
0.271912
0.271587
0.271821
0.262804
0.26512
0.27447
0.26746
0.272211
0.275218
0.272925
0.272483
0.273367
0.270169
0.283443
0.292729
0.285744
0.282968
0.290559
0.290053
0.290252
0.284672
0.287017
0.290874
0.268426
0.268436
0.267566
0.268301
0.276038
0.269496
0.266594
0.269632
0.270385
0.272057
0.26717
0.272403
0.265455
0.256825
0.255789
0.26073
0.265727
0.266663
0.267457
0.269634
0.260791
0.26359
0.266286
0.263853
0.274554
0.271242
0.270054
0.269661
0.272631
0.271217
0.281488
0.281677
0.2816
0.276931
0.272493
0.285137
0.281943
0.279814
0.280562
0.278936
0.279161
0.278365
0.278411
0.265978
0.261869
0.271619
0.272259
0.266393
0.274619
0.269389
0.264748
0.280234
0.276832
0.276149
0.276684
0.270424
0.277042
0.276232
0.277665
0.272167
0.274325
0.274058
0.2733
0.27623
0.278373
0.25986
0.263382
0.265323
0.270864
0.266828
0.268596
0.269365
0.268063
0.271694
0.266156
0.255886
0.263065
0.258495
0.25454
0.259225
0.255647
0.258361
0.256086
0.264294
0.259617
0.269253
0.265768
0.254021
0.255823
0.25684
0.254166
0.253811
0.260326
0.262115
0.266666
0.265101
0.260168
0.261514
0.256137
0.25887
0.267037
0.270209
0.275488
0.269346
0.267773
0.266553
0.272148
0.272921
0.269768
0.273338
0.271377
0.270629
0.271718
0.271887
0.249079
0.245953
0.23736
0.238715
0.248393
0.247389
0.244247
0.249039
0.247498
0.247972
0.249054
0.249217
0.259053
0.260032
0.253619
0.250584
0.250435
0.255942
0.256812
0.263536
0.260007
0.240402
0.247208
0.243338
0.243328
0.2518
0.246612
0.244552
0.247085
0.2496
0.24684
0.252314
0.250871
0.244286
0.244647
0.249866
0.250839
0.252437
0.25046
0.248968
0.250253
0.252933
0.253558
0.25725
0.254599
0.265732
0.257827
0.256687
0.265433
0.273123
0.267005
0.262217
0.263195
0.245186
0.249617
0.249311
0.254662
0.25805
0.252002
0.24776
0.253836
0.250758
0.255592
0.255064
0.256373
0.249449
0.252341
0.245481
0.245046
0.257056
0.254506
0.243151
0.241655
0.240672
0.238727
0.237593
0.237181
0.245456
0.242292
0.236091
0.240581
0.243952
0.247487
0.252463
0.244899
0.24416
0.243854
0.247713
0.246829
0.248345
0.247685
0.240672
0.25016
0.250056
0.245016
0.247025
0.248205
0.242778
0.241485
0.24563
0.251404
0.250073
0.242698
0.244655
0.227976
0.237742
0.23692
0.235881
0.241474
0.233881
0.232253
0.233785
0.239058
0.240252
0.235097
0.239773
0.235626
0.23829
0.23788
0.240555
0.245075
0.234554
0.235649
0.234145
0.236422
0.233608
0.240315
0.246693
0.245981
0.236722
0.240777
0.238143
0.231426
0.239422
0.240782
0.233673
0.23268
0.239482
0.232625
0.228264
0.224069
0.23153
0.227489
0.22786
0.223996
0.227739
0.227703
0.224019
0.217784
0.213791
0.218374
0.221978
0.249664
0.249011
0.243686
0.248948
0.247221
0.239271
0.244136
0.240044
0.225798
0.234862
0.230472
0.227537
0.226633
0.229744
0.22361
0.228001
0.22966
0.228038
0.227591
0.227394
0.225413
0.23301
0.22989
0.243046
0.24581
0.242846
0.252666
0.249545
0.250373
0.250734
0.246151
0.253924
0.251119
0.245713
0.246754
0.24949
0.24766
0.251207
0.248213
0.249292
0.243944
0.246649
0.226524
0.237895
0.235247
0.232612
0.234724
0.234915
0.243589
0.24735
0.245146
0.237668
0.235478
0.236853
0.237712
0.22957
0.222831
0.229236
0.228343
0.233979
0.227889
0.227197
0.234613
0.23247
0.233222
0.231555
0.23334
0.228397
0.223887
0.229653
0.2261
0.226444
0.22985
0.228053
0.222068
0.219328
0.211914
0.227295
0.22211
0.221102
0.219575
0.222898
0.221908
0.217512
0.218097
0.220609
0.219389
0.217506
0.218473
0.224245
0.224459
0.224689
0.219833
0.213003
0.209042
0.213834
0.215754
0.212163
0.220476
0.218251
0.218707
0.218207
0.222149
0.218388
0.21957
0.220016
0.227857
0.232613
0.229615
0.227613
0.225982
0.226697
0.227446
0.226422
0.228456
0.227158
0.231879
0.230093
0.235441
0.239944
0.227386
0.230061
0.226103
0.225585
0.226811
0.228281
0.227033
0.224076
0.22484
0.224575
0.228125
0.233773
0.232795
0.227927
0.23038
0.224408
0.22672
0.224251
0.222552
0.228167
0.228675
0.225431
0.196516
0.208424
0.205906
0.20305
0.206945
0.206738
0.206551
0.206054
0.222795
0.219678
0.225655
0.223856
0.212554
0.212138
0.213277
0.216259
0.217832
0.219993
0.230469
0.222829
0.216596
0.226718
0.224259
0.222977
0.225944
0.226905
0.224281
0.215336
0.209177
0.20992
0.214285
0.209838
0.216984
0.21482
0.21194
0.214729
0.211615
0.211465
0.22032
0.221083
0.218639
0.223762
0.222177
0.219291
0.217089
0.223389
0.221334
0.223973
0.222441
0.198541
0.20042
0.196616
0.191639
0.195817
0.19526
0.191074
0.191701
0.197922
0.196949
0.190372
0.196542
0.211105
0.210485
0.212862
0.210815
0.212958
0.222498
0.216599
0.220155
0.213508
0.196926
0.197394
0.197615
0.197513
0.187955
0.189714
0.194865
0.188143
0.192593
0.194538
0.195153
0.193924
0.203106
0.200557
0.207504
0.204154
0.207093
0.205353
0.203037
0.205372
0.206873
0.195256
0.194945
0.200618
0.199095
0.197672
0.201034
0.202866
0.199712
0.206066
0.205394
0.200587
0.19991
0.19796
0.200752
0.194851
0.212606
0.209426
0.206551
0.207753
0.198633
0.199774
0.211711
0.207756
0.205171
0.202721
0.202432
0.189602
0.181303
0.178283
0.180693
0.181801
0.189491
0.190451
0.188872
0.188806
0.187251
0.206222
0.203182
0.200926
0.211911
0.207876
0.19993
0.201611
0.196751
0.205052
0.201672
0.199794
0.209767
0.208987
0.211756
0.188799
0.192735
0.190212
0.195802
0.194128
0.193612
0.195382
0.1912
0.191474
0.189099
0.186689
0.186401
0.195152
0.196344
0.190104
0.192659
0.201644
0.203242
0.195647
0.195802
0.198027
0.198319
0.198242
0.210252
0.205084
0.208515
0.201812
0.196489
0.19779
0.187665
0.191942
0.189069
0.184249
0.19296
0.191443
0.19717
0.187758
0.189977
0.192036
0.188155
0.196665
0.19752
0.175576
0.178854