/*--------------------------------*- C++ -*----------------------------------*\
| =========                 |                                                 |
| \\      /  F ield         | OpenFOAM: The Open Source CFD Toolbox           |
|  \\    /   O peration     | Version:  v1612+                                |
|   \\  /    A nd           | Web:      www.OpenFOAM.com                      |
|    \\/     M anipulation  |                                                 |
\*---------------------------------------------------------------------------*/
FoamFile
{
    version     2.0;
    format      ascii;
    class       surfaceScalarField;
    location    "200";
    object      phi;
}
// * * * * * * * * * * * * * * * * * * * * * * * * * * * * * * * * * * * * * //

dimensions      [0 3 -1 0 0 0 0];

internalField   nonuniform List<scalar> 
41739
(
5.10058e-09
-1.00221e-09
5.52076e-09
-6.41118e-09
6.41166e-09
5.70227e-11
-5.74904e-11
-5.08114e-09
5.60923e-09
-6.93927e-09
-3.50078e-09
3.23705e-09
-2.84632e-09
3.11005e-09
-1.06566e-09
-6.113e-09
3.67787e-09
-1.00762e-08
3.9294e-09
-1.54568e-08
9.82854e-09
1.44863e-08
-8.85811e-09
9.31099e-11
-9.02272e-09
-6.52715e-09
-8.99064e-09
1.44481e-09
8.20598e-10
6.72523e-09
-3.64279e-09
-5.25474e-09
-3.89e-09
5.61548e-09
4.68617e-09
1.89978e-09
-1.80549e-10
1.514e-09
9.75934e-09
2.79212e-09
-3.19786e-09
5.49573e-09
-3.7615e-09
1.65533e-10
6.41291e-09
-3.01211e-09
-6.0868e-10
1.78271e-09
5.45079e-09
-6.89272e-10
7.81875e-09
6.58918e-09
5.35108e-09
2.2753e-10
-5.60507e-09
2.64655e-11
-7.58601e-09
-3.72226e-09
6.7735e-09
4.53477e-09
1.42289e-09
9.80475e-10
5.75455e-09
-8.1579e-09
1.58871e-09
-5.07499e-09
3.52372e-09
-3.74439e-11
-5.6838e-09
-9.29238e-10
-2.07134e-09
8.68436e-09
-8.37181e-10
4.91297e-09
-4.05018e-09
-2.5612e-11
7.08331e-09
-8.26957e-09
-2.40187e-10
1.42645e-09
2.0392e-10
-2.20643e-09
9.08583e-09
-1.67034e-09
7.67342e-09
-5.79915e-09
-4.40749e-09
4.16004e-09
-2.89977e-09
8.09968e-11
-5.58336e-09
-5.17542e-09
-9.64712e-09
8.42116e-09
-7.15014e-09
-3.42622e-09
-7.2699e-10
1.72852e-10
-7.03187e-09
6.38288e-09
-3.55749e-10
-6.75412e-09
-2.39138e-10
-6.02406e-10
-7.49431e-09
3.75591e-10
-6.3147e-09
-7.37696e-09
2.867e-09
9.11724e-10
-6.62504e-09
-8.49202e-10
5.18338e-10
2.25369e-09
-3.25626e-09
1.91429e-09
8.60746e-11
2.15904e-09
8.57047e-12
1.74104e-08
-2.46141e-09
-1.39694e-09
-1.3552e-08
3.91088e-09
2.14352e-09
1.1356e-08
1.38446e-08
-2.46469e-09
-1.38414e-08
1.07465e-08
2.93482e-09
1.63337e-10
-8.64118e-09
7.05969e-09
1.83816e-09
-2.56684e-10
7.02751e-11
-1.11761e-08
-1.0432e-08
2.34914e-09
1.19937e-08
3.6581e-09
9.2319e-09
1.31014e-08
-2.64974e-09
-1.18486e-08
-4.81165e-09
7.48107e-09
7.51699e-09
2.47751e-09
5.32744e-09
1.40648e-09
-6.66363e-09
1.10259e-09
6.06301e-09
7.6383e-09
-8.88155e-09
7.21637e-10
2.10501e-09
-1.69981e-09
1.04532e-08
-6.40424e-09
9.47528e-09
2.76039e-09
-6.54438e-09
9.38899e-10
2.84509e-09
-4.24151e-09
4.15972e-09
2.84218e-09
2.05118e-09
-3.11039e-09
-2.9811e-09
4.04032e-09
-4.37456e-10
2.53855e-09
-4.99045e-11
-5.29388e-09
1.21805e-09
-1.65671e-10
-7.70493e-09
2.80974e-09
3.81832e-09
1.07689e-09
-2.54299e-09
-3.64381e-09
-3.57571e-10
3.09413e-09
-3.4389e-09
-9.26758e-11
-1.36265e-08
1.01331e-08
-2.06812e-09
5.56153e-09
1.02522e-08
-4.01493e-09
-1.98637e-08
-1.79596e-08
1.82076e-08
9.88511e-09
-1.34119e-08
5.70452e-09
-3.49951e-09
6.1038e-09
-1.09687e-08
8.36444e-09
-1.38472e-08
4.03939e-09
6.3083e-09
7.40777e-09
-2.45859e-08
1.31632e-08
1.21619e-08
1.00201e-08
-3.97437e-09
1.76566e-08
-1.49321e-08
4.68333e-09
-1.09554e-08
-5.72476e-09
2.83293e-09
-1.26867e-08
5.99344e-09
1.07327e-08
1.32237e-08
1.11654e-08
-6.73249e-09
6.28892e-10
1.63949e-09
5.68621e-09
-2.45585e-10
-1.06337e-08
3.63323e-09
-3.1395e-09
1.19783e-08
1.18251e-08
-2.06639e-08
7.82718e-09
-2.16003e-08
2.96874e-09
-1.05887e-08
1.37238e-08
-1.10653e-08
2.00276e-08
5.74836e-09
-4.17519e-09
6.66136e-09
1.43603e-08
-1.26025e-08
-2.58529e-09
8.27508e-10
1.32026e-08
-1.53349e-08
1.64927e-08
-2.22814e-10
-2.58068e-09
1.60061e-08
-1.3792e-08
-3.79612e-09
2.25321e-09
-1.26902e-08
-1.37043e-08
-1.74977e-09
1.20121e-08
-1.04851e-08
8.05507e-09
2.03791e-10
9.0264e-10
-9.16151e-09
7.37758e-09
1.45211e-09
-7.74633e-10
5.44849e-10
-9.35148e-09
6.22596e-09
-1.07044e-08
8.48141e-09
-1.57315e-09
-6.32429e-09
5.11937e-09
-2.38075e-09
-8.55989e-09
2.47054e-09
8.47011e-09
5.13446e-09
-1.3762e-10
-7.02364e-09
7.89084e-09
5.84903e-10
1.24456e-09
-8.06439e-09
-1.59598e-09
-1.13854e-09
-9.95571e-09
-1.10558e-08
-8.7958e-09
-4.64014e-09
3.77006e-09
-3.50245e-09
2.31261e-09
-2.51746e-10
-6.75138e-09
5.18587e-09
-1.7795e-10
1.74347e-09
1.67965e-09
-7.5643e-09
-8.66739e-10
1.0476e-10
-3.60418e-09
-3.17841e-10
3.81727e-09
-3.33422e-09
-2.53991e-10
3.69298e-09
5.00816e-09
-5.00845e-09
5.18617e-09
3.5005e-09
1.16513e-09
-4.84356e-09
5.98319e-10
-7.0198e-10
-2.73931e-09
3.41741e-12
-5.19825e-11
4.74231e-09
-7.6976e-09
5.37496e-10
7.10815e-09
-5.25416e-09
-1.4402e-09
-1.00322e-09
6.31918e-09
-6.03567e-09
-7.5842e-09
-2.67839e-09
-2.24702e-10
-5.67984e-09
9.85619e-10
3.37055e-09
-3.81982e-09
-5.36343e-10
4.54855e-09
-3.78763e-09
-7.55788e-10
8.2567e-10
4.47868e-09
-1.24545e-10
-2.26481e-08
2.24488e-08
-2.64318e-08
-5.08372e-09
-8.7286e-09
-8.83576e-09
3.24201e-09
-1.6628e-08
-1.45092e-09
1.4837e-08
-1.9977e-08
1.88603e-08
4.35876e-09
-2.7873e-09
-7.4598e-09
2.29981e-08
1.32211e-08
-2.0484e-08
-1.57351e-08
8.29215e-09
-3.10754e-09
1.78135e-08
5.0164e-09
-3.1494e-09
-1.8495e-08
-2.04708e-09
-1.29135e-08
1.94962e-08
-1.49664e-08
-9.6136e-09
-7.60263e-09
2.43116e-08
2.38625e-08
-3.9801e-09
2.4552e-08
-4.04452e-09
1.5445e-08
2.22986e-08
-1.3415e-08
-2.93677e-08
1.51466e-08
3.32748e-09
1.16389e-08
-1.81158e-08
-1.21346e-08
-7.30758e-09
6.02522e-09
1.26181e-08
4.46908e-09
-2.31125e-08
1.92296e-08
8.93002e-09
-2.21344e-08
2.82473e-10
9.68157e-09
-1.76894e-08
7.72539e-09
-1.87075e-08
8.03523e-09
1.09548e-08
-7.21836e-10
1.60311e-08
3.92029e-09
1.62125e-09
1.02751e-08
-3.44164e-09
1.47982e-08
-2.42655e-09
9.54035e-09
-8.51291e-09
-9.04528e-09
-6.75472e-09
-2.90756e-09
-1.2175e-08
-6.936e-09
7.81392e-09
1.12971e-08
-8.64827e-09
9.84018e-09
6.84333e-09
7.27497e-10
1.34171e-09
1.39619e-08
-1.31499e-08
1.70233e-09
1.1851e-08
-1.32041e-08
-2.38022e-09
4.83786e-09
-3.18951e-09
3.48483e-09
-3.36233e-09
6.83074e-09
5.17218e-09
-8.64057e-09
5.67264e-09
-9.20814e-09
1.7317e-10
1.03012e-08
9.41926e-09
-1.97037e-08
-1.67396e-11
5.2212e-09
1.43112e-09
-9.79667e-10
2.58055e-09
9.47136e-09
5.00567e-09
5.526e-09
-1.08411e-08
3.09403e-10
-4.16195e-09
-7.30026e-10
-4.31615e-09
-4.24718e-09
-1.9295e-09
1.11824e-08
-6.64093e-09
1.46598e-08
-5.43835e-09
5.32948e-09
-3.96543e-09
9.36738e-09
-5.70712e-09
-8.82462e-10
-2.54824e-09
8.76019e-09
-4.03016e-09
-6.24511e-09
9.39283e-09
8.57737e-09
7.30053e-09
1.60157e-09
-1.74795e-08
1.27922e-08
-2.11261e-08
1.69112e-08
-9.87621e-09
2.7086e-08
-4.41765e-09
-8.5841e-09
6.00838e-09
1.39805e-10
-3.24253e-09
-1.80234e-08
9.82732e-09
-1.64349e-10
1.04468e-08
-2.01098e-08
9.54608e-09
5.70135e-09
-5.42011e-09
-1.08097e-08
6.60581e-09
-4.49242e-09
8.69637e-09
-2.24648e-08
1.14907e-08
5.06075e-09
1.15248e-08
-6.13875e-09
9.96623e-10
1.36102e-08
-1.81968e-09
1.34843e-08
1.07047e-08
1.60241e-09
2.61171e-10
1.85946e-09
3.07573e-09
1.87582e-08
-5.34129e-09
-2.85327e-09
1.72522e-08
-1.13232e-08
1.63548e-08
-1.2772e-08
-6.43597e-09
-1.05892e-08
1.23909e-08
1.54505e-08
5.81977e-09
2.34923e-09
6.6254e-09
1.58573e-08
-9.64966e-09
-1.2833e-08
1.19176e-08
5.27556e-10
1.07256e-08
3.22433e-09
1.9074e-09
8.96186e-09
1.36813e-08
-1.56445e-08
1.50654e-08
3.80339e-09
7.93308e-09
-8.72186e-09
-1.48557e-08
1.67858e-09
1.22038e-08
2.47241e-09
9.75396e-09
4.31556e-09
-1.70638e-08
3.3585e-09
2.87707e-08
3.07311e-09
2.20743e-08
-7.56593e-09
-6.9198e-10
7.22599e-09
1.03191e-09
-8.16969e-09
1.48625e-09
8.73067e-09
-2.04724e-09
-8.519e-09
1.58194e-09
1.20457e-08
1.13783e-09
-9.07928e-09
-4.10428e-09
6.09196e-10
-6.9737e-09
-2.15449e-09
-6.19466e-09
-1.36582e-09
1.93292e-09
-1.12622e-08
-2.73474e-09
8.87607e-09
-1.2336e-08
-1.64409e-08
9.38434e-09
-9.84737e-09
9.33912e-09
4.98341e-09
4.15535e-09
-2.79284e-09
7.97728e-09
-4.96991e-09
-2.14538e-10
6.76374e-09
-3.45997e-09
-6.09662e-09
-3.85005e-09
5.23722e-09
5.37657e-09
3.15313e-09
9.74087e-10
4.30528e-10
4.77935e-09
2.73328e-11
7.41093e-09
-7.86771e-09
8.87305e-10
1.38458e-09
-9.53147e-09
3.17698e-09
-2.75528e-09
-1.69268e-09
9.2273e-09
-4.13858e-09
8.79422e-09
-8.0529e-09
-6.10941e-09
1.24696e-08
-6.02723e-09
1.12746e-09
6.86771e-12
-2.85343e-09
-5.02114e-09
1.36642e-08
-9.32251e-09
-1.03689e-08
-1.09639e-09
8.65115e-09
-7.23162e-09
1.15116e-08
-4.27308e-09
-1.51696e-08
6.2766e-09
-5.41994e-09
2.90651e-09
4.64362e-09
-2.13018e-09
5.44105e-10
-4.11459e-10
-5.55258e-09
6.67823e-09
2.01604e-11
-6.15428e-09
3.20028e-09
1.76891e-09
1.70906e-09
4.68889e-09
1.41791e-09
3.2288e-09
9.86303e-11
-3.73889e-09
-5.94072e-10
1.67359e-09
3.60935e-09
-3.84744e-09
1.37251e-09
1.88085e-09
-2.64656e-09
3.44274e-09
4.64175e-10
1.18068e-10
2.18724e-10
-2.25108e-09
3.70594e-09
-1.75455e-09
3.34578e-09
6.53119e-09
-6.02648e-10
-5.90837e-09
4.40089e-09
3.89923e-09
2.3188e-09
-2.61482e-10
-4.12371e-09
2.0664e-09
-2.72842e-09
3.29267e-09
1.88834e-09
3.61356e-09
-4.11758e-09
2.37257e-09
-2.88271e-09
1.08331e-10
-5.52863e-09
-1.79941e-09
-2.01847e-09
9.34649e-09
-6.19136e-09
1.12936e-10
5.4978e-10
-1.75196e-09
3.30844e-09
2.49309e-09
-4.04956e-09
2.98557e-09
1.41062e-09
-6.14815e-09
-9.67141e-10
-6.33548e-09
1.11125e-09
-3.6622e-09
2.92581e-09
-2.30758e-10
-5.12177e-10
1.58409e-10
7.15243e-09
-8.10334e-09
1.06384e-09
9.00754e-09
-3.65453e-09
-2.36511e-09
3.27245e-09
3.52509e-10
-4.1949e-09
3.25344e-09
3.87598e-09
-4.14384e-09
2.67482e-09
6.64314e-11
-2.85857e-09
-4.89226e-09
-5.92363e-09
4.47567e-09
-5.53359e-09
3.32839e-09
-1.59921e-10
-6.06586e-09
3.2071e-09
-3.30401e-09
1.11414e-09
7.38529e-10
-3.84654e-09
-5.23574e-09
8.34375e-09
-7.95248e-09
-6.1672e-09
1.48582e-08
-7.93632e-10
-1.50626e-08
7.90377e-09
1.73783e-09
-6.32473e-09
7.40357e-10
-1.01871e-08
5.7577e-09
3.05962e-09
-6.74744e-09
2.89423e-09
-6.80981e-09
4.63369e-09
1.4298e-08
-1.43688e-08
-6.67665e-09
-1.10787e-08
1.03142e-08
-2.84644e-09
5.16909e-09
-1.10581e-09
-1.21683e-09
9.76461e-09
-5.7851e-09
-6.82594e-09
8.60897e-09
2.8461e-09
1.47879e-08
-3.88775e-09
-1.37463e-08
-2.26155e-09
-9.26118e-09
4.17406e-09
-4.64909e-10
1.11695e-09
1.85088e-09
5.8683e-09
-8.83614e-09
8.97086e-09
-1.17416e-08
-6.22232e-09
-1.6933e-09
-6.633e-09
-8.95335e-09
2.94031e-09
1.04737e-10
-8.72436e-11
1.87932e-10
4.57268e-09
3.1219e-09
-2.90924e-09
-4.78534e-09
5.21292e-09
-1.93188e-11
-6.20924e-10
-2.34469e-09
4.01881e-09
3.53879e-09
8.62447e-10
-8.52414e-11
-6.20001e-09
7.08352e-09
-9.02832e-10
-1.91361e-09
3.17604e-09
-7.46244e-09
-6.35712e-09
1.53426e-09
-3.28638e-09
9.80411e-11
7.20714e-09
-1.21611e-09
5.01324e-09
7.36321e-09
-4.23328e-09
4.6093e-11
-3.03641e-09
-2.50394e-09
5.63839e-09
-2.20458e-09
3.06151e-11
-8.11823e-10
5.12908e-09
1.03532e-09
-5.35258e-09
-2.92326e-09
-9.31354e-11
2.558e-09
3.58909e-09
5.18314e-09
4.58336e-09
2.87335e-09
-6.76289e-10
-6.7804e-09
6.98014e-09
-1.78265e-10
-2.21851e-09
4.87602e-09
3.13608e-09
-5.13874e-09
9.26374e-09
2.59241e-09
-4.05004e-09
5.84546e-09
-1.97365e-09
1.48831e-09
-6.21464e-09
4.64734e-10
-7.67413e-10
-4.26373e-09
4.79579e-09
-6.73212e-11
3.02085e-09
3.19265e-10
-6.77888e-09
4.90748e-09
9.89963e-09
-3.05706e-10
-6.45784e-09
2.06137e-09
-4.83679e-09
6.48064e-10
9.81814e-11
-4.97474e-09
-4.50359e-09
5.28344e-09
-4.49453e-09
1.67855e-10
6.44812e-09
-6.35158e-09
-4.59107e-09
-1.35027e-10
2.07955e-09
2.98572e-09
-4.59591e-09
6.55422e-09
1.81752e-09
6.90488e-09
-1.52766e-08
8.82001e-09
7.08408e-09
-9.34987e-09
7.55791e-09
7.84506e-09
-1.35854e-08
7.42474e-09
3.89665e-09
-3.76349e-09
-8.21681e-12
9.4947e-09
-6.66488e-10
7.34877e-09
-4.52099e-10
-8.97732e-09
1.36505e-08
2.75159e-09
7.4526e-09
-8.58487e-09
1.14512e-08
-4.70528e-10
7.11488e-09
-7.26708e-10
3.1065e-09
-1.2305e-09
1.18868e-08
2.99418e-09
5.98819e-09
2.33922e-10
-5.55155e-09
4.71305e-09
7.95337e-09
2.33668e-09
-5.39446e-10
8.24219e-09
2.48232e-09
-7.40277e-09
2.28779e-09
1.70018e-08
9.22101e-10
1.5243e-08
-2.71173e-09
3.31544e-09
-1.78023e-09
1.17651e-09
-3.1337e-09
3.36469e-09
4.09986e-09
-4.33084e-09
2.59843e-09
-8.44386e-09
5.84282e-09
5.35735e-09
-3.39974e-09
-7.80045e-09
1.05071e-08
-7.22753e-09
2.56328e-09
3.00713e-09
3.50476e-09
-3.19646e-09
3.59756e-09
-5.09928e-10
-8.04904e-11
2.88596e-10
9.96446e-09
-1.75183e-09
-8.50121e-09
1.07797e-09
1.67445e-10
2.25935e-09
1.22705e-09
3.44848e-09
-2.20048e-09
2.65682e-09
1.00507e-08
3.32432e-09
3.04242e-09
-1.87647e-10
5.10054e-09
-7.12095e-10
-4.17471e-09
6.00488e-09
-6.03115e-10
3.96825e-09
-2.53861e-09
1.54479e-08
3.24515e-09
-1.61545e-08
9.51646e-10
-1.41803e-08
1.06901e-08
5.70674e-09
1.04747e-09
-1.92649e-09
-4.82774e-09
4.74845e-09
1.12374e-09
-1.65459e-10
3.50532e-09
4.05015e-09
7.89246e-09
1.13054e-08
-5.21225e-10
-2.83997e-09
-7.94417e-09
1.06217e-09
-6.05114e-10
1.08483e-08
-6.07056e-09
6.75723e-09
4.06178e-09
-7.20929e-10
-4.30216e-09
9.83699e-09
-7.31276e-09
6.11408e-09
-7.08892e-09
1.23399e-10
1.12505e-08
-1.03117e-08
7.657e-09
5.68531e-09
6.90339e-09
-5.54282e-09
-1.88179e-09
-9.76275e-11
6.39593e-09
4.49473e-09
-3.92348e-09
5.65503e-09
-3.65505e-11
-6.01971e-10
8.38238e-09
3.35168e-10
5.22225e-09
6.49044e-09
-7.25347e-09
1.01057e-09
4.71887e-09
1.52404e-09
-1.00047e-08
1.18278e-09
8.78199e-09
3.9946e-11
-9.29913e-09
-7.95905e-09
3.05363e-09
-5.1647e-09
-6.93778e-09
9.04884e-09
1.19878e-08
2.13312e-09
2.26194e-09
-1.63829e-08
7.04097e-09
2.82551e-09
2.12138e-09
-4.49203e-09
9.96095e-09
1.57205e-09
9.90388e-09
-1.00964e-08
-4.29945e-09
-5.25837e-09
-2.48771e-09
1.07997e-08
2.09326e-09
-6.34104e-09
2.68408e-09
-9.69905e-09
9.14809e-09
-1.48888e-11
-6.60015e-09
-1.06551e-08
1.96586e-09
4.86063e-09
3.82859e-09
-3.04632e-09
-7.62364e-09
6.9938e-09
4.87593e-09
1.44671e-08
-1.08808e-08
1.5963e-08
8.63275e-09
-1.20289e-08
-1.25669e-08
6.5543e-10
1.43755e-08
9.32099e-10
-1.65106e-08
1.58171e-08
1.34892e-09
-2.17629e-09
-8.57026e-10
-1.34773e-08
-8.27338e-09
1.41247e-08
8.52417e-09
1.81495e-09
-1.45558e-09
-5.25636e-09
1.33103e-08
7.76312e-09
-1.42633e-08
7.44664e-09
1.56032e-09
-2.78475e-09
-1.36549e-08
7.82626e-09
-1.27229e-09
-9.33871e-09
6.85719e-09
1.38726e-09
-4.18187e-10
-1.86863e-09
-1.10173e-08
2.64322e-09
-4.18621e-09
1.56677e-08
-3.73308e-09
1.96866e-08
9.96815e-09
4.33568e-09
5.43141e-09
2.59803e-10
-6.9635e-09
6.60328e-09
2.154e-10
6.05345e-09
-7.66227e-09
4.8382e-09
1.58784e-09
-3.72589e-10
7.03848e-09
-3.85322e-10
-6.75918e-10
3.52819e-09
-3.49919e-09
9.73425e-09
7.58309e-09
6.08027e-10
3.40799e-09
1.29114e-09
-1.32755e-09
-4.01948e-09
4.05588e-09
-2.53651e-09
2.75936e-10
3.5517e-09
2.22218e-10
4.85134e-09
2.02457e-09
7.28115e-09
-1.13432e-09
1.33342e-09
-4.21859e-09
-3.58127e-09
-8.95637e-11
-4.52159e-09
6.82209e-09
2.8264e-09
1.6596e-09
-9.21643e-10
3.1053e-09
8.7745e-10
1.25095e-11
5.26673e-09
1.22582e-10
-2.02663e-09
7.2787e-09
3.86007e-09
6.81279e-10
4.97662e-09
2.42628e-09
6.89494e-10
4.16293e-09
8.28028e-10
6.00248e-09
-4.40424e-09
1.94664e-09
3.59419e-09
4.66056e-09
1.34196e-09
4.78828e-09
4.96013e-09
-5.08785e-09
-2.09387e-09
3.1535e-09
2.73788e-10
4.049e-10
4.23674e-09
-1.03553e-09
2.1207e-09
2.21721e-11
-1.23683e-08
-5.80107e-09
6.09216e-09
1.20772e-08
-5.7429e-09
-1.9077e-09
-4.71768e-09
-5.86209e-09
1.73138e-10
-1.12106e-10
-3.56516e-09
-8.03983e-09
-2.65949e-09
-4.59287e-09
2.00442e-09
5.24795e-09
-3.39902e-10
-7.02945e-09
4.70986e-09
-3.50683e-09
4.857e-10
9.11329e-09
-1.03182e-08
6.47149e-09
3.15761e-09
4.05592e-09
-3.42667e-09
-3.78685e-09
3.37539e-09
-4.46363e-11
-6.41141e-09
-5.81451e-09
6.88029e-10
3.57715e-09
-7.83032e-09
3.39615e-09
-6.29607e-09
-4.12953e-09
-1.18303e-09
-1.37001e-11
-3.43795e-09
5.92807e-09
-2.88977e-09
2.82721e-09
-1.68839e-11
3.65582e-09
-6.39446e-09
1.6584e-09
-4.49265e-09
-9.81857e-10
1.80277e-09
2.30571e-09
-2.78003e-09
-1.32847e-09
2.84364e-09
-2.03721e-09
9.96349e-10
-3.08662e-09
5.65358e-09
-2.91989e-09
-5.51373e-09
1.39555e-09
2.22083e-09
3.5304e-09
-5.05809e-09
2.92324e-09
-5.09911e-09
8.27193e-09
-4.16267e-09
1.83742e-09
-2.73283e-09
-7.3343e-09
-9.55012e-09
1.0677e-08
-3.94263e-09
-1.38257e-08
1.01939e-08
1.53182e-08
-1.16864e-08
-6.35941e-10
-4.41377e-09
-8.77596e-09
-1.00895e-08
-4.33676e-09
1.87617e-09
1.25501e-08
-2.40702e-10
-9.85948e-09
1.0666e-11
-4.331e-09
-2.46449e-10
3.76798e-09
7.11829e-09
-9.23691e-09
-1.64934e-09
7.28422e-09
-1.25007e-09
-2.26617e-09
7.60573e-09
-2.46881e-10
4.16413e-10
-7.77523e-09
-3.37713e-09
-4.30291e-09
1.6373e-08
-6.48629e-09
1.25667e-09
1.68809e-09
3.54155e-09
1.16207e-08
-1.08228e-08
8.54638e-09
4.9909e-09
1.84461e-09
-3.4271e-10
3.71929e-09
-5.22118e-09
5.32738e-09
1.3547e-09
-4.83747e-09
3.98913e-09
6.56021e-09
-4.16537e-09
-6.38396e-09
4.07851e-09
1.70444e-11
-1.06418e-10
-7.18882e-09
3.9326e-09
7.33473e-09
-1.21239e-09
5.8378e-10
1.95079e-09
-6.45887e-09
-1.30506e-09
4.84949e-09
1.78295e-09
2.42619e-09
-1.19647e-11
-7.36925e-09
4.27663e-09
-4.30108e-09
7.39368e-09
-8.04933e-09
-5.32305e-10
7.46755e-10
-6.84529e-09
7.29051e-09
-5.18905e-09
2.51244e-09
-6.92039e-11
-2.095e-09
1.03042e-08
6.36925e-10
2.35249e-09
-3.30752e-09
3.72496e-09
2.1789e-09
-5.66156e-09
8.38743e-09
1.32519e-09
-4.05108e-09
5.11097e-09
7.00624e-12
-1.07795e-08
5.26891e-09
-4.82221e-09
-3.61185e-09
3.16515e-09
-3.08734e-09
-2.96849e-09
1.13247e-08
1.23234e-08
2.97776e-09
-6.91373e-09
-5.89324e-09
1.01197e-08
-2.90131e-09
4.97098e-09
-5.75325e-09
-4.90716e-09
5.39609e-09
9.63078e-09
9.63476e-10
6.45274e-09
-6.36246e-09
6.29526e-09
5.2367e-09
-5.16951e-09
5.65714e-09
-1.20126e-08
3.76935e-09
-7.61748e-09
6.07809e-09
-5.16712e-09
-5.62891e-09
7.82753e-09
-8.03761e-09
-7.41368e-10
1.25899e-08
-3.31686e-09
7.92444e-09
5.36068e-09
4.78827e-09
-4.49182e-09
9.79424e-09
8.03144e-10
1.83401e-09
2.86104e-09
9.32165e-11
3.59064e-09
5.10885e-10
3.41334e-09
-3.32536e-09
-5.98834e-10
3.5347e-09
-3.0669e-09
4.31041e-11
-2.59336e-09
3.41232e-09
2.5944e-09
9.95603e-10
-5.4267e-11
-2.59467e-09
-9.78481e-10
6.98543e-09
-2.45966e-10
-3.30857e-09
9.59854e-10
-2.24928e-09
4.6198e-10
-1.53807e-09
5.38628e-09
-9.49242e-10
4.15643e-09
-8.59346e-09
4.14835e-11
5.07017e-09
2.74637e-10
-3.63905e-09
3.39179e-09
2.8874e-10
1.66339e-09
-6.25168e-09
3.45925e-09
-4.04514e-09
4.94501e-10
-1.02148e-10
-3.59278e-09
-4.49266e-09
7.10697e-09
-4.67842e-09
8.39678e-10
-3.45102e-09
1.13804e-09
-2.59877e-09
-1.43191e-09
-5.13712e-09
5.52887e-09
-3.57945e-09
4.35273e-10
-1.06128e-08
7.06242e-09
1.41069e-09
2.13979e-09
-1.28095e-09
3.43821e-09
-1.27701e-08
-5.38507e-09
1.24684e-08
-2.09104e-11
-9.17015e-09
1.07454e-08
-6.96026e-09
1.91297e-09
-1.23641e-08
8.86334e-09
-7.09654e-09
1.67141e-09
7.05443e-09
3.21959e-09
-2.521e-09
-2.77291e-09
3.9332e-09
1.36073e-09
2.35048e-09
4.58721e-09
-9.45866e-09
1.02578e-08
1.27078e-09
-7.83182e-10
1.45658e-08
8.16042e-09
8.10591e-09
-8.66634e-09
2.47341e-09
-7.82749e-09
9.41512e-09
-3.16833e-10
-2.49448e-09
3.75967e-09
5.38575e-09
-6.79494e-09
8.98415e-09
4.36415e-09
7.64749e-09
3.16659e-09
-1.73999e-09
7.51112e-09
1.01748e-08
4.43689e-09
7.26667e-09
-5.80865e-09
1.90066e-09
-1.24418e-08
1.63498e-08
-1.35476e-08
1.21758e-08
-4.38678e-09
-1.3787e-08
2.00744e-08
2.07189e-08
-2.70606e-09
-2.4196e-09
1.02908e-08
-4.18907e-09
-1.02679e-09
-1.12422e-09
-2.39805e-09
-9.73649e-09
3.9257e-09
1.49612e-08
-9.15039e-09
9.7094e-09
-1.04586e-08
-8.98731e-09
-4.1678e-09
-4.99333e-09
1.30868e-08
-1.32149e-08
-4.71683e-09
1.37639e-08
-7.9163e-09
-1.97447e-08
1.38039e-08
1.38572e-08
-1.21824e-08
2.7398e-09
-3.77228e-09
-5.12243e-09
-8.26355e-09
8.39264e-09
-1.94245e-08
9.58524e-09
-1.78565e-08
-1.02276e-08
8.65957e-09
-1.37097e-08
-1.63293e-08
-1.2106e-08
6.63794e-09
-4.75953e-09
-4.64569e-10
-2.53511e-08
-7.17298e-09
1.43601e-08
-5.49181e-10
-1.55539e-08
-5.10452e-10
6.60701e-09
7.21579e-09
1.49946e-09
1.20036e-08
2.01395e-08
7.15061e-09
1.42455e-09
1.43733e-08
1.99778e-09
-1.77536e-08
1.14918e-08
7.76123e-09
1.29418e-08
2.7143e-09
1.42423e-08
-3.89449e-09
1.29798e-08
1.56358e-08
1.32833e-09
-3.83026e-09
-2.15702e-09
1.64271e-08
-1.25448e-08
-9.64894e-09
5.9983e-09
1.61954e-08
-2.01725e-10
-3.95044e-09
-1.52244e-08
2.12253e-10
5.36317e-09
-1.02989e-08
-5.12721e-09
8.42041e-09
-8.98456e-09
-9.73472e-09
1.21285e-08
-2.52831e-09
-1.17978e-09
1.12034e-08
1.68445e-08
-6.33653e-09
2.35383e-08
8.14405e-09
4.1967e-09
7.49487e-09
-1.69899e-08
-3.36454e-09
8.33109e-09
1.52224e-08
-1.34149e-08
-1.17289e-09
1.87785e-08
-1.64479e-09
1.21369e-09
-1.94246e-08
2.58529e-09
1.56255e-08
-1.88192e-08
2.66204e-09
1.73709e-08
5.17857e-10
-1.82173e-09
4.2393e-11
1.64251e-08
1.2293e-08
3.8601e-09
7.40548e-09
-3.12398e-09
-7.65415e-09
3.37266e-09
-6.56021e-09
-2.40727e-10
-1.12016e-08
9.58347e-09
-1.07591e-08
1.23773e-08
-1.50283e-08
7.02779e-10
-6.93302e-09
-6.47598e-09
-9.55604e-09
2.27982e-09
3.43208e-10
-4.98009e-09
-1.12303e-09
-3.45291e-09
-7.14619e-09
1.77185e-09
-8.49996e-09
-3.53815e-09
-1.0541e-08
-9.4915e-10
3.33415e-09
-1.14221e-09
-8.66791e-09
6.03471e-09
4.26497e-09
-1.63454e-08
6.04577e-09
7.5839e-09
-6.52928e-09
-3.10044e-09
1.20325e-08
-1.83085e-08
6.35048e-09
-5.07711e-09
1.18468e-09
-3.21507e-09
-3.31807e-09
1.11472e-08
-4.61406e-09
-2.86381e-09
1.18936e-08
-1.22448e-08
-1.66932e-08
-4.38529e-09
1.60898e-08
4.98871e-09
-2.5796e-09
8.48446e-09
-9.22293e-09
9.32592e-09
-1.47693e-08
1.7573e-08
-1.01625e-08
-5.12255e-09
-2.28801e-09
-4.26712e-09
1.71788e-08
4.66129e-09
-1.57085e-08
1.3067e-08
1.64186e-11
-1.18982e-09
1.06369e-08
-1.95522e-09
-3.96527e-09
1.20605e-08
2.5416e-09
1.05347e-08
1.00328e-08
-1.12416e-08
1.14466e-08
-8.95467e-10
7.74463e-09
-4.38271e-09
-1.27451e-09
4.75202e-09
2.54549e-09
6.21282e-09
1.00268e-08
-1.13585e-08
1.01473e-08
8.49232e-09
2.42978e-09
-3.57032e-09
-8.94287e-09
1.46058e-08
-3.23316e-09
8.48353e-09
-9.93094e-09
8.57482e-09
-1.21552e-09
-6.03345e-09
3.98162e-09
1.06266e-08
1.44349e-09
7.12886e-09
-6.97288e-09
3.87828e-09
7.25753e-09
-8.80915e-09
6.20743e-10
3.0523e-09
-2.00231e-09
9.86221e-09
4.79862e-09
6.79219e-09
6.3905e-09
1.3938e-08
-5.18185e-09
-4.90478e-09
-3.85138e-09
8.29752e-09
-1.31976e-09
-4.53493e-09
1.07258e-08
-8.00718e-09
1.81626e-09
-1.15008e-08
8.74886e-09
-1.78305e-09
-1.35146e-08
6.57434e-09
-1.94276e-09
8.88304e-09
-7.97067e-09
2.74533e-09
1.21265e-08
1.67706e-08
-1.21754e-08
-9.49992e-09
8.34441e-09
7.1064e-09
1.19671e-09
3.29726e-09
-1.25012e-08
6.58223e-09
-1.68863e-08
1.43799e-08
-1.48922e-08
5.76046e-09
-6.48354e-10
1.17381e-08
4.95254e-09
-1.32625e-08
-1.1556e-08
7.10531e-09
-7.7247e-09
-1.52787e-08
7.01989e-09
-1.64933e-08
2.16054e-08
1.98958e-08
-1.36339e-08
-1.30934e-09
2.05787e-08
-1.71761e-08
-6.24848e-09
-2.63567e-09
5.02845e-09
3.85571e-09
-6.85939e-10
-1.39231e-09
-4.17022e-09
-7.12344e-09
2.37576e-09
2.11203e-09
-2.41859e-09
-5.39078e-09
2.70835e-09
-4.25008e-09
6.57018e-09
8.11426e-09
-1.85483e-09
-8.67801e-09
-5.8699e-09
3.74716e-09
4.4985e-09
-9.67224e-10
3.21158e-09
-2.89539e-09
9.35091e-09
8.85428e-09
-2.05705e-09
-9.49516e-09
2.69795e-09
-9.27293e-09
1.52318e-08
-7.82829e-09
1.52118e-09
-2.38666e-09
-6.83394e-09
-1.47806e-08
4.54048e-09
-7.89075e-09
-1.6385e-08
-1.21322e-08
-1.04426e-08
-9.51038e-09
4.92384e-09
9.84772e-09
-1.4785e-08
-5.50531e-09
-4.49261e-09
-4.9801e-09
-1.37857e-08
-5.16949e-09
-1.28874e-08
2.51684e-09
-1.2784e-08
2.345e-09
9.28652e-10
-1.28133e-08
-1.47557e-08
1.79514e-08
-2.10982e-08
-9.74056e-09
1.21174e-09
-1.31146e-08
-1.71137e-08
-8.24823e-09
-1.02947e-08
-1.74218e-08
-3.94107e-09
-1.39825e-08
9.56709e-09
3.14718e-09
1.26827e-09
-9.79272e-09
-6.63404e-09
2.44421e-09
-9.51212e-09
-7.4721e-09
1.10909e-08
5.89328e-09
6.14029e-09
-1.12243e-08
-4.42809e-09
-1.35183e-09
2.00182e-11
5.25192e-09
-2.46522e-09
-3.96861e-09
-3.41386e-09
-3.84187e-09
-2.44203e-09
-5.86585e-09
4.33925e-09
4.59425e-09
4.7271e-09
-3.14976e-09
-6.1716e-09
-1.30405e-09
1.49557e-09
4.40274e-09
2.70668e-09
7.08019e-09
1.21022e-08
-1.68562e-10
-1.17173e-09
-1.07619e-08
1.17272e-08
1.90365e-08
-1.86615e-08
5.56063e-09
-9.63815e-09
1.63551e-09
9.05977e-09
-6.91301e-09
-2.87826e-09
-2.14573e-09
6.51955e-09
-9.68833e-09
9.51675e-09
1.48334e-08
-7.97118e-10
6.3212e-09
-3.55047e-09
-6.09234e-09
3.32161e-09
-2.82981e-09
-1.73351e-11
9.16833e-09
9.97254e-10
8.51885e-09
-7.42283e-09
8.26459e-09
-6.8765e-09
-3.90822e-10
-4.44762e-09
-3.3202e-09
4.93798e-09
5.20753e-10
4.16676e-09
-1.99451e-09
-8.05147e-09
-3.65059e-09
1.16847e-08
-4.25771e-09
3.72987e-10
-7.65359e-10
4.81206e-09
-1.14695e-08
4.05924e-09
-1.17011e-08
1.35708e-08
3.67397e-09
-1.24327e-08
4.44914e-10
9.80571e-09
-1.63784e-08
4.31321e-09
1.25102e-08
-3.12434e-09
-9.58014e-09
1.15907e-08
-1.1028e-08
-4.82037e-09
1.22533e-08
-1.00931e-08
-1.90332e-08
2.53079e-09
1.66493e-08
-1.4685e-10
1.7044e-09
-1.87943e-08
-1.94327e-09
1.99758e-08
-1.89063e-08
6.3488e-10
1.24627e-09
1.62409e-09
1.43274e-08
-1.57508e-08
-2.00719e-10
1.41217e-08
-1.35723e-08
1.07466e-09
-4.33312e-10
1.44777e-08
2.82991e-10
-3.83869e-11
4.82449e-09
-6.63406e-09
-1.21587e-08
-3.35536e-09
-1.34239e-08
-7.66689e-10
-6.89132e-09
7.95782e-10
6.86222e-09
-9.79838e-09
9.78014e-09
7.47646e-09
-7.4582e-09
-1.0581e-08
1.59629e-11
-8.97546e-09
-9.84306e-09
1.81751e-08
6.43398e-10
3.06146e-09
-9.22511e-09
-2.81182e-09
-9.92011e-09
3.13852e-09
8.24237e-10
-9.13778e-09
1.42223e-09
-3.12561e-09
-9.2661e-09
1.8107e-09
2.09333e-08
-2.02342e-08
3.68717e-09
-4.38632e-09
1.47106e-08
-3.6974e-09
3.43982e-09
-1.18407e-08
-1.20056e-08
-2.57776e-10
3.97149e-09
-6.31536e-09
-5.88594e-09
8.22982e-09
-3.85985e-09
-3.36305e-09
9.78963e-09
-2.56672e-09
7.38724e-09
-2.7575e-09
-6.58238e-10
1.1202e-08
-7.67461e-09
-9.83406e-09
-3.13131e-09
4.59701e-09
8.36836e-09
-7.13812e-09
2.10707e-09
-4.803e-09
-5.59009e-09
-4.91108e-09
-2.4694e-11
6.68301e-09
3.5415e-09
7.63579e-09
-7.44516e-09
2.97551e-09
9.06666e-09
-2.88075e-09
-2.45734e-09
-7.18244e-10
-5.65612e-09
-3.96769e-09
7.75121e-09
-4.50177e-09
-1.25538e-08
-5.70023e-09
1.53733e-08
-7.90516e-09
-4.42435e-10
1.21992e-08
-1.5472e-08
-9.28095e-09
-5.56402e-09
1.38572e-09
1.63775e-08
1.26471e-08
-8.49284e-09
-4.8125e-09
-8.77288e-09
8.34669e-09
-1.68978e-09
5.72284e-10
9.33754e-10
1.10041e-08
2.12323e-09
1.44384e-08
-1.59893e-08
-1.83894e-10
1.21976e-08
-9.89047e-09
-1.53954e-09
9.07693e-09
-7.72128e-09
1.16475e-08
-3.75981e-09
1.17869e-08
2.97702e-09
1.11654e-08
-4.86796e-10
9.73111e-09
7.72126e-09
-5.25477e-09
6.92054e-09
4.74955e-09
-2.59316e-09
9.41481e-09
1.14817e-08
2.17967e-09
1.30192e-08
-3.55135e-09
9.91026e-09
-8.10065e-10
1.08616e-08
1.60917e-09
-1.1818e-09
7.58191e-09
5.38682e-09
4.85859e-09
6.97877e-09
5.04522e-09
9.72363e-09
1.6222e-08
-3.15185e-10
5.13816e-10
-1.58573e-09
8.03591e-09
-6.964e-09
-6.17139e-09
-1.51587e-09
8.20108e-09
-6.24596e-09
-5.46356e-09
5.53814e-09
-6.46071e-09
1.5169e-10
6.30633e-11
4.53833e-09
-4.76676e-09
-6.23227e-09
-8.69947e-10
-5.52714e-11
4.39761e-09
9.67349e-10
-3.87861e-09
-1.48633e-09
5.50776e-09
-1.30538e-09
1.95233e-10
-4.80945e-09
-1.68012e-09
4.97371e-09
-1.71622e-10
1.82788e-10
-8.37972e-09
6.61119e-09
-7.88916e-09
6.39183e-09
-5.68633e-09
5.4154e-09
-1.03443e-09
-5.88265e-10
-4.13072e-09
5.70071e-09
1.84273e-09
-7.82244e-09
2.78994e-10
8.0179e-09
-1.94166e-09
-3.75528e-10
1.16038e-09
-6.83254e-09
-2.70755e-09
-1.31338e-09
7.98778e-09
-6.73331e-09
9.42154e-09
-1.24784e-08
1.10748e-08
-2.59639e-09
2.27318e-10
1.17906e-08
-1.44116e-09
-1.45719e-08
1.91564e-09
-3.01755e-08
1.32831e-08
9.22059e-09
-3.68875e-09
-1.46396e-08
-1.18471e-08
-7.03742e-09
8.94696e-09
-1.06382e-08
3.54398e-09
-2.13755e-08
1.07942e-08
-1.07813e-08
-1.14135e-08
1.8506e-08
5.06132e-09
-1.49756e-08
-1.38041e-09
-8.13018e-09
8.43162e-09
-1.56689e-08
-1.17431e-08
2.38201e-09
-4.09628e-09
-1.08469e-10
1.82273e-09
-4.08569e-09
2.22318e-09
4.24452e-09
2.25905e-09
-4.13524e-09
-2.22009e-09
-1.88725e-09
6.06135e-11
-1.26824e-09
3.57539e-09
1.1014e-09
-3.40855e-09
-3.12391e-09
-3.15764e-11
5.82425e-09
-4.64782e-09
-6.35384e-10
-5.41049e-10
7.5016e-11
9.73908e-09
-3.98985e-09
6.34148e-09
-5.55572e-09
-9.12524e-09
8.33947e-09
3.52546e-09
5.87358e-09
-1.06667e-09
-2.67926e-09
6.22016e-10
-7.91126e-09
4.12397e-09
-8.60536e-10
-1.38152e-09
-7.44454e-09
9.14787e-10
-4.6039e-10
-4.74152e-09
-7.39763e-09
3.87756e-09
-2.43938e-10
-8.86515e-09
5.23152e-09
-6.36298e-09
-2.60709e-10
1.05012e-08
1.63244e-09
-9.81602e-09
5.82672e-09
2.35684e-09
-8.64424e-09
3.91371e-09
-3.58263e-09
8.94898e-09
-5.62705e-09
-7.73542e-09
3.90886e-09
-5.25496e-10
-6.36255e-09
-2.92797e-09
8.29181e-09
-5.71406e-09
-3.10323e-09
-9.82994e-09
6.79151e-09
1.10184e-11
-3.63454e-10
4.27085e-09
-5.15517e-09
1.03812e-09
-1.53796e-10
-7.26337e-09
3.7988e-09
3.39773e-09
8.29266e-10
-9.94106e-09
5.12482e-09
-8.08964e-09
-5.03042e-09
5.19313e-09
-5.3177e-09
-5.43021e-09
5.71749e-09
2.54491e-09
-3.60562e-09
-4.09446e-09
-1.28055e-09
-3.43791e-09
-5.98566e-09
-8.09405e-09
8.74902e-09
-2.14114e-09
1.22767e-08
-1.88846e-08
1.4416e-08
-7.88001e-10
-4.87898e-09
-9.04431e-09
7.79281e-09
4.22852e-09
-2.97701e-09
1.17448e-08
-2.29302e-08
2.38042e-09
8.69985e-09
1.19645e-09
1.06113e-08
6.18513e-09
-9.81368e-09
-7.01776e-09
1.69882e-08
-1.56789e-10
-2.54519e-09
3.34279e-09
1.21658e-08
-5.16099e-09
-1.73132e-08
1.42985e-08
7.24326e-09
3.23143e-09
-8.79988e-09
1.26882e-08
-7.56948e-10
2.38954e-09
3.28091e-09
-7.54364e-10
1.03749e-08
9.12404e-09
7.56395e-09
1.34746e-08
1.41191e-09
-8.18893e-09
-6.69755e-09
7.30393e-10
4.9006e-09
7.84365e-09
-1.00514e-08
4.37052e-09
6.41125e-09
-3.34039e-09
-8.15116e-09
-1.1762e-08
2.64959e-09
1.4013e-08
2.8852e-09
-1.39353e-08
-8.80585e-09
1.09792e-08
-5.47086e-09
-7.05247e-09
-6.65455e-09
1.21893e-08
3.82529e-09
-9.99427e-09
3.49061e-09
-6.5027e-09
3.39223e-10
-2.64238e-09
-8.14827e-09
7.8361e-09
-2.31072e-09
5.92385e-09
-2.22232e-09
-2.06492e-09
-5.69333e-09
9.98057e-09
-6.10368e-09
-2.35677e-09
6.23812e-09
6.10042e-09
1.59392e-09
-8.9395e-09
1.24516e-09
-5.09506e-09
5.09181e-09
-2.08171e-09