/*--------------------------------*- C++ -*----------------------------------*\
| =========                 |                                                 |
| \\      /  F ield         | OpenFOAM: The Open Source CFD Toolbox           |
|  \\    /   O peration     | Version:  v1612+                                |
|   \\  /    A nd           | Web:      www.OpenFOAM.com                      |
|    \\/     M anipulation  |                                                 |
\*---------------------------------------------------------------------------*/
FoamFile
{
    version     2.0;
    format      ascii;
    class       surfaceScalarField;
    location    "50";
    object      phi;
}
// * * * * * * * * * * * * * * * * * * * * * * * * * * * * * * * * * * * * * //

dimensions      [0 3 -1 0 0 0 0];

internalField   nonuniform List<scalar> 
46036
(
4.40613e-10
-9.4835e-09
2.33445e-10
8.80943e-09
2.72794e-09
-3.23606e-09
8.89916e-09
-8.39103e-09
1.20657e-08
-1.61203e-08
1.50792e-08
-1.10246e-08
-3.83856e-09
6.24853e-09
-1.18178e-09
-1.22819e-09
3.30473e-10
3.61813e-09
-3.92612e-09
-2.24718e-11
1.13806e-08
-1.3341e-08
3.8073e-09
-1.84681e-09
-7.56822e-09
-3.51274e-09
9.62811e-09
1.45284e-09
-1.31913e-09
3.00404e-09
7.31486e-09
-8.99978e-09
-4.3575e-09
-8.06428e-10
2.95474e-09
2.20918e-09
-7.46923e-11
-6.23161e-10
1.10613e-08
-1.03635e-08
1.94498e-09
-3.16616e-09
1.37173e-09
-1.50611e-10
-4.13754e-09
4.00542e-10
3.82366e-09
-8.67532e-11
1.02839e-09
-3.34686e-09
2.38878e-09
-7.03078e-11
3.13715e-09
-1.94649e-09
-1.21456e-09
2.38911e-11
2.3726e-09
-6.46211e-09
-3.74993e-09
-4.36349e-10
-3.63519e-09
4.02488e-09
4.66424e-11
-4.26196e-09
6.16837e-09
-6.14863e-09
4.24223e-09
-3.05566e-09
4.83562e-09
-3.32016e-09
1.54019e-09
-3.34413e-09
-1.37255e-10
2.09211e-09
1.3893e-09
8.90824e-09
-1.23142e-08
-5.07603e-09
8.48197e-09
3.24393e-09
3.65254e-10
-8.65997e-09
5.05081e-09
-7.17988e-09
9.45287e-09
-6.13925e-09
3.86627e-09
1.45248e-09
4.27589e-09
-6.18398e-09
4.5557e-10
3.48699e-09
-3.6168e-09
4.56671e-09
-4.43691e-09
-3.10012e-09
-3.68223e-10
-2.88096e-09
6.34934e-09
7.872e-10
5.07962e-10
-7.64409e-09
6.34892e-09
-2.26361e-09
-1.91508e-09
-2.29372e-09
6.47241e-09
1.74367e-09
3.39134e-09
-5.96639e-09
8.31371e-10
-5.11214e-09
3.0029e-09
-5.41417e-09
7.52341e-09
4.36881e-09
2.71165e-09
-2.9194e-09
-4.16106e-09
1.7596e-09
-1.34282e-09
-3.36986e-09
2.95308e-09
1.47754e-09
2.40844e-09
-3.77392e-09
-1.12197e-10
-6.74355e-09
3.13591e-09
3.02571e-10
3.30505e-09
3.81013e-09
-3.89266e-09
-5.90163e-09
5.98414e-09
2.00759e-09
7.69959e-09
-4.45638e-09
-5.25079e-09
-6.74927e-09
2.28192e-09
3.06652e-09
1.40086e-09
-7.73332e-09
2.2114e-09
-1.22735e-09
-3.64895e-09
2.93316e-10
3.38691e-09
-3.12653e-11
-1.75574e-09
7.49356e-09
-1.31639e-09
-4.42142e-09
3.54317e-09
2.12033e-09
5.75144e-10
-6.23864e-09
-2.22582e-09
3.97631e-09
-1.79744e-09
4.69594e-11
-3.35637e-11
-3.44815e-09
-2.03131e-09
5.51304e-09
-7.53391e-10
3.75549e-09
-5.15845e-09
2.15635e-09
-2.53943e-09
2.13746e-09
-4.09113e-09
4.49308e-09
-5.39269e-09
-8.28285e-09
4.79811e-09
8.87743e-09
4.84123e-09
7.38556e-09
-8.10694e-09
-4.11986e-09
8.55909e-09
-4.8525e-09
1.13464e-09
5.42988e-09
-2.04982e-10
-5.24664e-09
2.17385e-11
2.40159e-10
-6.64319e-09
3.68528e-09
2.71774e-09
-4.85865e-09
5.06852e-09
-2.8455e-10
3.53141e-09
-3.41875e-09
6.47181e-09
-6.58448e-09
-2.8912e-09
-5.70665e-10
2.85292e-09
6.08888e-10
-1.31664e-09
5.50923e-09
6.06488e-09
-1.02575e-08
-2.70487e-09
-5.33459e-09
3.09627e-09
4.9432e-09
5.96788e-12
-5.6319e-09
-8.24873e-11
5.70842e-09
8.22029e-09
3.28989e-09
-1.41545e-08
2.6443e-09
6.20802e-10
8.44803e-09
-2.33824e-09
-6.73059e-09
2.96233e-09
-3.47597e-09
2.22288e-09
-1.70922e-09
3.82333e-09
-9.23341e-09
-4.88385e-09
1.02939e-08
4.22436e-10
-5.74933e-09
5.30942e-09
1.74685e-11
-3.79e-09
4.58973e-09
-3.16588e-09
2.36615e-09
-6.20194e-09
1.38966e-08
-2.29641e-09
-5.39821e-09
-4.52899e-09
2.91894e-09
1.77207e-09
-1.6203e-10
-1.57941e-09
1.42516e-09
-4.44991e-09
4.60417e-09
-7.52238e-09
-3.46506e-10
5.20875e-09
2.66013e-09
6.54491e-09
-2.84047e-09
-1.14272e-11
-3.693e-09
-3.67538e-09
1.33356e-09
8.88311e-09
-6.54129e-09
4.03322e-09
-6.06062e-09
1.52076e-10
1.87533e-09
-1.36465e-09
-3.23453e-10
-1.16867e-09
4.83842e-09
1.16359e-09
-4.331e-09
-1.67099e-09
1.5655e-09
-2.95473e-09
1.40625e-09
-1.70614e-11
-2.74395e-10
-2.65503e-09
-1.12805e-09
4.05749e-09
-8.17573e-09
-5.26409e-09
-7.46054e-10
7.22001e-09
-8.29469e-09
-3.13795e-09
4.21263e-09
-1.63871e-09
1.63985e-09
-2.33316e-09
2.33199e-09
9.30806e-10
8.8624e-09
-5.84511e-09
-3.9481e-09
-8.29136e-09
5.12375e-09
4.5894e-09
-1.42181e-09
-2.15339e-09
-4.82133e-09
7.53021e-09
-5.55489e-10
-6.69814e-09
-1.06972e-09
2.50308e-09
5.26476e-09
2.80339e-09
-7.44226e-09
4.76624e-09
-1.27381e-10
-5.26523e-10
2.92284e-09
2.74953e-09
-5.14589e-09
1.50886e-09
1.24611e-09
-2.6185e-09
-1.3654e-10
-2.02397e-09
-2.66658e-09
3.32728e-09
-2.29776e-09
-1.75886e-09
7.29347e-10
5.84212e-09
3.14294e-09
-4.76402e-09
-4.22102e-09
-1.77946e-09
-2.60433e-10
5.57041e-09
-3.5305e-09
-2.1169e-09
1.23881e-10
2.00342e-09
-1.04093e-11
-5.46993e-09
7.87522e-09
-2.4604e-09
5.50091e-11
3.42274e-09
-5.96414e-10
5.6215e-09
-8.44788e-09
2.1061e-09
-3.90956e-09
1.82998e-09
-2.65464e-11
-9.14236e-10
3.01691e-09
3.26124e-09
-5.36391e-09
-5.4468e-09
-3.63132e-09
8.78144e-09
2.96706e-10
-5.20317e-09
6.2456e-09
1.3378e-09
-2.38025e-09
1.74235e-09
2.63419e-09
-2.69887e-09
-1.67768e-09
-4.47677e-09
3.80699e-09
-8.31707e-09
8.98685e-09
-2.28368e-09
-2.21376e-09
5.16625e-10
3.98084e-09
6.06637e-09
-1.75841e-09
-4.34828e-09
4.03191e-11
-3.60623e-09
-4.28421e-09
6.63129e-09
1.25916e-09
-6.42556e-10
3.94387e-09
-3.37888e-09
7.75922e-11
-2.74763e-09
1.11438e-09
1.77407e-09
-1.40784e-10
-6.89643e-09
3.31786e-09
8.19718e-11
-5.37943e-09
-4.79154e-09
5.69636e-09
4.47461e-09
2.41314e-09
-3.61791e-09
1.26689e-09
-6.21152e-11
2.54672e-09
-3.02576e-09
-1.92093e-10
6.71134e-10
-6.02051e-11
3.58732e-09
-3.50236e-09
-2.47429e-11
-6.33707e-09
4.25835e-09
6.90748e-10
1.388e-09
1.79482e-09
1.96716e-09
-5.18115e-09
1.41916e-09
-1.39967e-09
5.24292e-09
-4.16195e-09
3.18708e-10
-7.8549e-09
2.20186e-10
6.23509e-09
7.21786e-09
-1.07515e-09
-3.31536e-09
-2.82735e-09
-4.31298e-09
8.496e-09
4.64097e-09
-8.82398e-09
5.18784e-09
-8.49519e-09
3.45867e-09
-1.51316e-10
-5.1613e-09
4.35064e-09
-1.4512e-09
2.26185e-09
-1.55865e-09
-3.80714e-09
4.72119e-09
6.44597e-10
-1.17116e-09
-8.8894e-09
1.06452e-08
-5.84667e-10
-3.32109e-09
2.92654e-09
4.00985e-10
-6.415e-12
-5.25328e-09
-2.91334e-09
4.76451e-09
3.40211e-09
-4.92441e-09
2.80473e-09
2.2118e-09
-9.20934e-11
7.31165e-10
-5.62039e-09
-3.69676e-09
8.58601e-09
6.34884e-09
-1.33648e-09
-7.43187e-09
2.41953e-09
-6.11346e-09
1.07228e-08
6.80286e-09
-4.43577e-09
1.09299e-09
3.45426e-09
-1.11464e-10
-5.21372e-09
2.15131e-09
-1.25066e-09
4.31306e-09
-7.91351e-09
1.96111e-09
8.29648e-09
-2.34409e-09
-4.06488e-09
3.34751e-09
5.47336e-09
-4.75599e-09
-3.11646e-09
5.7e-10
2.65312e-09
-1.06656e-10
-3.95537e-09
-1.12286e-09
1.7062e-09
3.37205e-09
2.16544e-09
-7.12464e-09
1.45587e-09
3.50332e-09
-3.8892e-09
2.8397e-09
-4.16422e-09
4.05221e-09
-2.37427e-09
-1.78727e-09
1.09344e-10
2.0535e-09
-1.94164e-09
-7.59846e-11
-3.5852e-11
-2.83222e-09
-5.64483e-09
6.25999e-10
7.85109e-09
-4.93948e-11
-1.32872e-09
3.96604e-09
3.50127e-09
-3.73721e-09
4.10231e-10
-1.74283e-10
-2.96769e-09
-1.18224e-09
2.45041e-09
1.69952e-09
-3.79091e-09
-3.69719e-10
1.61092e-09
2.54974e-09
1.60109e-10
6.43022e-09
-6.54064e-09
-4.96594e-11
2.95036e-09
3.37409e-11
3.39728e-09
-6.38136e-09
4.14727e-10
2.2868e-09
-2.94787e-09
2.46315e-10
1.08586e-09
8.80786e-09
-9.47901e-09
2.15091e-09
-6.48952e-09
1.32468e-08
-7.21322e-09
6.22765e-09
-1.92407e-09
2.90963e-09
-3.43939e-09
2.48366e-09
2.40818e-09
-1.98295e-09
5.16176e-09
-3.28694e-09
1.08122e-10
-3.52676e-09
-2.34567e-10
-2.89511e-09
6.65628e-09
7.6272e-09
-4.08962e-09
-3.75592e-09
2.18372e-10
-6.29001e-09
4.43287e-09
-1.55825e-09
3.41542e-09
2.89285e-09
4.54306e-09
-2.53215e-09
-4.90376e-09
-8.838e-10
-2.35455e-09
-1.67954e-09
4.91786e-09
2.52792e-09
1.76613e-09
-4.8682e-09
5.74064e-10
1.33092e-09
-2.76738e-09
2.97664e-09
-1.54019e-09
3.68275e-09
-3.31075e-09
9.58929e-10
-1.84638e-09
8.94358e-10
1.15363e-09
-2.01676e-10
-6.07557e-09
-6.41278e-09
4.54936e-09
7.93901e-09
4.2363e-09
1.43721e-09
-1.39297e-09
-4.28055e-09
3.91696e-09
2.16793e-09
-6.54754e-09
4.62644e-10
-2.76616e-09
1.22922e-09
1.62652e-09
-8.96062e-11
2.83971e-09
-1.93882e-09
-3.66706e-09
-1.62948e-09
-2.36312e-09
6.85332e-09
-2.86077e-09
8.47716e-10
1.19117e-09
-1.99039e-09
-4.8542e-11
1.61545e-09
-8.52352e-10
8.45523e-11
-3.98457e-09
6.71445e-09
-1.11444e-09
-3.18182e-09
5.04772e-09
-1.97427e-09
1.08385e-10
-3.36549e-09
2.91176e-09
2.30117e-09
-1.8474e-09
-3.97461e-10
3.54264e-09
-5.86297e-09
2.71779e-09
5.87636e-09
1.87827e-09
-5.37417e-09
-2.38045e-09
1.16616e-09
-5.35128e-09
2.48881e-09
1.69629e-09
-3.42036e-09
2.50911e-09
9.40334e-10
-2.90902e-11
-1.17787e-10
3.28256e-09
5.07874e-11
-3.21552e-09
6.96437e-10
3.40997e-09
-4.05339e-09
-5.29859e-11
6.56634e-09
-6.55351e-09
-1.10015e-10
9.71918e-11
4.37184e-11
-1.74006e-09
-3.2455e-09
4.94185e-09
4.56442e-09
3.18257e-09
-3.74721e-09
-3.99978e-09
-4.69559e-09
3.42591e-09
1.34935e-09
-7.96398e-11
3.24557e-09
-2.45717e-09
-3.9813e-09
3.19289e-09
-3.28679e-09
3.03187e-09
2.94203e-10
-3.92809e-11
3.50464e-09
-2.66794e-09
-7.03492e-09
6.19822e-09
2.20226e-09
-1.97317e-09
1.1999e-09
-1.42904e-09
-2.98469e-09
-3.99672e-09
6.86058e-09
1.20797e-10
1.163e-09
3.3036e-09
-1.86484e-09
-2.60177e-09
-2.21132e-09
3.79914e-09
-1.67255e-09
8.47356e-11
-1.60252e-09
-2.42125e-09
3.83064e-09
1.9317e-10
6.02731e-09
-5.99217e-09
3.37828e-09
-3.41341e-09
-2.29207e-09
6.37295e-09
4.04058e-09
-8.12146e-09
-6.72676e-09
2.92523e-09
-3.72143e-09
7.52298e-09
1.02858e-08
-1.22777e-08
5.30807e-09
-3.31619e-09
-3.62131e-09
-1.94227e-09
4.40256e-09
1.16103e-09
1.04907e-09
4.56719e-09
1.7759e-09
-7.39215e-09
-3.7455e-09
2.14914e-10
3.51288e-09
1.77009e-11
5.34487e-09
-5.83829e-09
-3.87019e-09
4.36363e-09
5.5948e-09
-1.17808e-09
-4.60271e-09
1.85996e-10
1.89743e-09
-2.30322e-09
-5.37165e-09
5.77743e-09
-4.8e-09
3.03317e-09
-5.96648e-09
4.0932e-09
8.80858e-10
9.32852e-10
-5.90691e-09
-2.63112e-09
2.03511e-09
6.64874e-10
-6.8855e-11
-1.74068e-09
3.12695e-09
-1.3935e-09
7.25924e-12
-2.6234e-10
4.25614e-09
-3.90825e-09
-8.55512e-11
-6.31956e-09
-6.82286e-09
1.06377e-08
2.50471e-09
1.42236e-10
3.21147e-09
-3.35081e-09
-2.88924e-12
6.44273e-09
-3.86725e-09
-6.41371e-09
3.83824e-09
3.29318e-09
2.90834e-10
-3.61029e-09
2.62825e-11
5.06122e-09
4.77947e-09
-6.10956e-09
-3.73114e-09
4.46975e-09
-3.16386e-09
-1.41598e-09
1.10093e-10
4.27356e-09
3.76527e-10
-1.80353e-10
2.21967e-09
-5.20405e-09
3.04231e-09
-5.79131e-11
-2.41224e-09
1.72444e-09
-1.85161e-09
-4.00289e-10
-3.72578e-09
-1.14632e-11
-2.163e-10
-1.70441e-09
1.84572e-09
7.49081e-11
1.84958e-09
-3.90223e-09
-3.20629e-09
5.25894e-09
-8.05512e-09
9.64531e-09
-5.68629e-09
4.09612e-09
-3.5283e-10
3.07402e-09
-2.64387e-09
-7.73099e-11
-3.99541e-09
3.94622e-09
4.62277e-11
2.96566e-12
5.33581e-09
1.51573e-09
-3.71438e-09
2.46792e-09
2.98656e-09
-1.18643e-10
4.83896e-09
-3.0041e-09
-1.84594e-09
1.11157e-11
-2.97158e-09
-7.13658e-09
7.43675e-09
2.67143e-09
-5.37469e-09
6.31682e-09
-2.7172e-09
1.77507e-09
-6.92332e-09
-4.40531e-09
4.02553e-09
7.3031e-09
3.67426e-10
3.92035e-09
-1.69321e-09
-2.59458e-09
2.22313e-09
3.28343e-09
-3.95619e-09
-1.55035e-09
-3.87726e-09
-7.17286e-09
8.4513e-09
2.59883e-09
-3.67173e-09
-2.97479e-09
1.61514e-10
2.98028e-09
-4.13884e-09
-2.51319e-09
-2.49845e-09
6.1642e-09
-3.84683e-09
1.81064e-10
-3.27633e-09
-2.38936e-09
1.76972e-09
3.89598e-09
-5.86958e-09
2.6944e-09
-1.01133e-10
-4.38148e-09
-4.48131e-09
3.34392e-09
5.51887e-09
8.54039e-10
2.32766e-09
-4.8537e-09
1.67198e-09
-3.72829e-09
1.64235e-09
-1.8716e-09
-1.74644e-09
2.80645e-09
-3.24241e-09
2.18238e-09
2.26032e-09
-4.64612e-09
2.55042e-09
-1.64631e-10
-2.34469e-09
5.47788e-09
1.56251e-09
-4.69571e-09
-8.92288e-09
3.30435e-09
1.42967e-09
4.18886e-09
4.94828e-09
-2.99886e-09
6.08012e-09
-8.02952e-09
4.38855e-09
-2.86904e-09
-3.07992e-09
1.5604e-09
1.20482e-09
-1.96094e-09
4.36745e-10
3.19366e-10
4.20868e-10
-5.926e-09
-1.58022e-09
7.08536e-09
2.39012e-09
-1.37998e-09
1.94691e-10
-2.88242e-09
-5.05369e-10
6.6728e-11
4.95128e-09
-3.43066e-09
3.8812e-10
-1.90874e-09
-4.91298e-09
8.95469e-09
-6.84677e-09
2.80506e-09
-1.84289e-09
4.64499e-09
-2.93226e-09
1.3018e-10
2.58752e-09
-3.7436e-09
-1.63911e-09
2.79522e-09
1.36897e-09
3.86735e-09
-5.03489e-09
-2.01425e-10
-7.89854e-09
-2.98945e-10
3.84831e-09
4.34919e-09
-1.87172e-09
3.88623e-09
-6.24009e-09
4.22559e-09
5.59022e-09
-1.4111e-09
-4.99053e-09
1.08758e-08
-5.06208e-09
-8.23182e-10
-3.34241e-09
-2.84783e-09
7.41989e-09
-1.22965e-09
5.59173e-11
-6.2104e-09
6.04127e-09
1.13211e-10
9.47413e-09
-7.73043e-09
6.23142e-09
-7.97512e-09
-4.04939e-09
-2.24854e-09
7.72861e-09
-1.43067e-09
3.37071e-09
-4.10913e-09
-4.09243e-09
4.83086e-09
1.15097e-10
2.3048e-09
-2.42635e-09
6.5396e-12
7.38078e-10
4.85675e-09
-6.8314e-09
1.23659e-09
4.40492e-10
2.59486e-09
3.24884e-09
-6.28424e-09
-3.23918e-09
1.03489e-09
2.32943e-09
-1.25134e-10
-2.92861e-09
1.64557e-09
1.40481e-09
-1.21752e-10
-2.92594e-09
8.13807e-10
3.20423e-09
-1.09207e-09
-5.45508e-09
3.22108e-09
2.32462e-09
-9.06461e-11
3.45711e-09
1.56287e-09
2.54487e-09
-7.56491e-09
-4.43116e-09
-5.21912e-09
6.23029e-09
3.42e-09
4.21079e-09
-2.2682e-09
-1.99524e-09
5.26535e-11
2.54621e-09
2.25922e-09
-4.63644e-09
-1.68999e-10
2.46942e-09
4.91226e-09
-5.78688e-09
-1.5948e-09
-3.49655e-09
-3.41808e-09
2.16782e-09
4.74681e-09
2.94238e-09
-1.3377e-09
4.10081e-09
-5.70547e-09
-1.66779e-09
3.40184e-09
4.33933e-09
-6.07335e-09
-3.13598e-09
2.17068e-09
3.34076e-09
-2.37546e-09
-2.04997e-10
4.16176e-09
-3.92704e-09
-2.96989e-11
4.04517e-10
-4.08303e-09
3.64375e-09
3.47644e-11
6.65937e-09
-3.21117e-09
-3.5926e-09
1.44372e-10
7.14887e-09
4.32336e-09
3.26089e-09
-1.47331e-08
3.67003e-09
2.2853e-09
-5.7148e-09
-2.40618e-10
9.42269e-09
-6.77503e-09
-2.02685e-09
6.83143e-09
-2.02358e-09
-1.47475e-09
-3.3331e-09
1.78705e-09
-5.40729e-09
-1.4919e-09
2.43637e-09
5.08299e-11
4.34424e-09
2.71266e-09
-1.8581e-09
3.75504e-09
-4.60958e-09
-1.8361e-09
1.20463e-09
-1.63189e-09
1.46615e-10
-2.8955e-10
1.77481e-09
-1.31121e-09
1.98393e-09
-2.08727e-09
1.41456e-09
-1.07376e-09
-1.0304e-09
7.92962e-10
-1.89653e-09
4.33407e-10
2.53177e-09
-1.06866e-09
-7.3196e-09
1.064e-08
3.8285e-09
-5.49714e-09
2.56529e-09
-5.3331e-09
2.27233e-09
-5.6479e-09
1.93973e-09
3.84747e-09
-1.39329e-10
4.54758e-09
-4.83877e-09
3.47106e-10
-5.59266e-11
-8.65952e-09
-4.62903e-09
6.08018e-09
7.20836e-09
-9.37896e-09
-1.74222e-09
2.46167e-09
2.49387e-09
-3.88934e-09
-3.85108e-09
5.24656e-09
-3.01148e-09
5.45432e-09
1.57088e-09
-4.01373e-09
6.1781e-10
-8.27021e-09
4.50177e-09
3.15062e-09
-3.55895e-09
3.41092e-09
-3.69077e-09
3.83879e-09
8.21332e-09
-7.22046e-10
9.48558e-10
-8.43985e-09
-5.74986e-09
5.41612e-09
-3.06295e-09
3.39669e-09
-8.01281e-10
2.97388e-09
-2.46213e-09
2.89564e-10
1.89611e-09
-2.78105e-09
-3.69383e-09
4.57876e-09
-5.79602e-09
3.56658e-10
4.20478e-09
1.23455e-09
4.60656e-10
-3.84012e-09
3.38365e-09
-4.18811e-12
-2.31845e-10
3.65068e-09
8.58064e-11
-3.9927e-09
3.89383e-09
-1.32968e-10
-2.07575e-09
4.20128e-09
-2.10877e-09
-1.67575e-11
-8.95995e-10
-9.57823e-10
7.4172e-12
-4.25665e-09
-3.05948e-09
-3.82476e-10
7.69861e-09
-2.30989e-09
-7.68187e-10
-3.66868e-10
3.44494e-09
3.05263e-09
3.01649e-09
-2.10896e-09
-3.96015e-09
1.88576e-10
-3.11622e-09
2.90595e-09
2.16806e-11
3.69592e-09
-3.49961e-09
-2.78033e-10
8.17259e-11
5.11698e-09
-7.92232e-09
5.74481e-09
-2.93947e-09
-1.32674e-09
6.50091e-10
5.89342e-09
-5.21676e-09
-3.23815e-09
1.93917e-09
1.3957e-09
-9.67234e-11
-2.83388e-10
5.73048e-09
-8.68523e-09
2.6883e-09
-3.29196e-10
4.20683e-09
-6.56595e-09
-2.83906e-09
7.23908e-09
-4.00661e-10
-3.99935e-09
-6.86385e-09
5.34885e-09
-4.49805e-09
6.01306e-09
1.93935e-10
3.66903e-09
-3.88025e-09
1.72688e-11
-9.77835e-09
3.74642e-09
1.84671e-09
4.18522e-09
-5.58408e-09
3.19018e-09
5.77419e-09
-3.38027e-09
-2.18072e-09
2.13719e-09
-3.13433e-09
3.17786e-09
3.11363e-09
-1.34808e-09
8.83429e-10
-2.64897e-09
2.87423e-09
-1.46811e-09
-6.06405e-09
4.65794e-09
4.04635e-09
-3.78045e-09
-2.09791e-10
-5.60869e-11
-3.1368e-09
2.81212e-09
2.74269e-10
5.04044e-11
-1.62787e-09
-4.85732e-09
1.01101e-10
6.38409e-09
7.34507e-11
5.01512e-09
-1.76129e-09
-1.47952e-09
-4.39979e-09
4.08419e-09
1.79513e-09
3.79702e-10
-4.47072e-09
1.79325e-09
3.25226e-09
2.32122e-10
-3.36913e-09
-3.06307e-09
-2.42476e-10
5.61035e-09
2.66318e-09
1.35204e-09
-4.40307e-09
3.87854e-10
-4.97658e-09
2.6596e-09
2.42434e-09
-1.07314e-10
1.56829e-09
-4.36762e-09
5.13159e-10
2.28623e-09
-2.01114e-09
-7.8023e-10
-1.25709e-09
4.04847e-09
-5.35797e-09
5.56692e-10
4.79489e-09
6.39382e-12
2.7391e-09
-8.26841e-11
-2.66678e-09
1.03693e-11
3.21695e-09
6.55172e-11
-3.29513e-09
1.26643e-11
-3.96075e-09
-2.34581e-09
5.12342e-09
1.18316e-09
2.88518e-09
-1.74866e-11
6.53038e-12
3.11432e-09
-3.43019e-09
3.58077e-10
-4.2181e-11
-1.74486e-09
-1.04557e-09
1.90728e-09
8.83172e-10
-3.19048e-09
-4.12004e-12
8.53949e-09
1.76324e-09
2.60531e-09
8.70789e-10
-5.23935e-09
4.19661e-09
-7.15192e-09
6.35381e-09
-3.39851e-09
-2.84548e-09
3.99965e-09
-1.27841e-09
1.24235e-10
2.02293e-09
-3.66068e-09
-1.02928e-10
6.48073e-09
-5.2968e-09
4.38245e-09
-5.56638e-09
-4.06053e-10
-3.44918e-09
6.10525e-10
3.2447e-09
1.39232e-09
-9.91708e-10
-4.61245e-10
6.06269e-11
6.15814e-09
-6.54796e-09
4.01061e-10
-1.125e-11
1.27606e-08
-4.98961e-09
-5.62005e-09
-1.64434e-09
4.87151e-09
-3.32598e-09
9.88258e-11
-1.26281e-10
-5.93807e-09
-1.12258e-11
2.84897e-10
2.17913e-09
-2.46835e-09
4.3081e-12
-2.56914e-09
-2.85866e-09
5.36135e-09
6.64467e-11
1.6016e-09
-3.6891e-09
1.56089e-09
-1.10641e-09
-1.41557e-09
2.34085e-09
1.81112e-10
-1.48766e-09
3.64165e-09
-3.26039e-09
1.09911e-08
-8.94689e-09
-4.10841e-09
2.06423e-09
5.56367e-10
2.63084e-09
-5.58514e-09
2.39793e-09
1.8127e-09
5.54062e-09
-3.54245e-09
-3.81088e-09
1.92637e-09
3.49757e-09
-5.3271e-09
-9.68461e-11
-2.24965e-09
-3.33957e-09
5.5751e-09
1.41087e-11
2.74189e-09
-4.03083e-09
1.4453e-09
-1.56388e-10
-2.28235e-09
-3.74031e-09
-3.04026e-09
9.06293e-09
4.19139e-09
-1.73206e-09
1.68281e-09
-4.14216e-09
1.38357e-09
5.95622e-09
-2.95126e-09
-8.49033e-09
8.13339e-09
3.29431e-10
2.75106e-11
6.07897e-09
-1.15623e-08
4.62219e-09
8.61146e-10
3.29586e-09
-4.77563e-09
1.57923e-09
-9.94513e-11
-4.06361e-10
-2.60577e-11
-3.90322e-09
3.81897e-09
1.30547e-10
-4.62968e-11
-3.55376e-09
-5.31019e-09
4.57654e-09
4.2874e-09
-7.2485e-09
1.6805e-09
2.01423e-09
4.70486e-09
2.83124e-09
2.87361e-09
-3.38955e-09
3.39811e-09
-1.54933e-11
6.93844e-12
1.82223e-09
1.78864e-09
-1.27139e-09
-2.33944e-09
2.63197e-09
-8.71557e-10
6.18205e-11
-1.23198e-09
-4.53021e-09
1.38072e-09
-1.09733e-09
1.95764e-09
-4.09949e-09
5.38982e-09
-6.30253e-09
1.02221e-09
-1.09505e-10
1.16611e-10
-5.4198e-09
2.91382e-09
-9.86062e-10
3.81362e-09
-1.32264e-09
-1.50487e-09
-1.54674e-09
1.35198e-09
1.95446e-09
-2.13463e-09
8.09822e-09
-4.82055e-09
-1.14304e-09
-1.67062e-09
4.18228e-09
3.64648e-09
-6.55897e-09
3.64063e-09
-1.3731e-10
4.73541e-09
-2.14803e-09
-2.66324e-09
7.58617e-11
3.09887e-09
-3.96538e-09
4.96085e-09
-4.09436e-09
5.22428e-09
-3.0085e-09
9.66296e-10
-3.18207e-09
-5.13387e-09
8.10369e-09
2.39536e-09
-5.3652e-09
-4.52539e-09
-5.82115e-11
4.79212e-09
-2.08519e-10
-4.73863e-09
2.04003e-09
2.77599e-09
-7.73824e-11
-6.20985e-09
1.92398e-10
-3.43799e-10
6.36127e-09
-5.45786e-09
7.91971e-09
-8.6717e-09
-1.79699e-09
-1.79129e-09
3.48185e-09
1.06381e-10
-5.32005e-09
5.11033e-09
1.91113e-10
1.86208e-11
5.33819e-09
-1.85566e-09
-2.55172e-09
3.42689e-09
1.5317e-09
-9.04907e-09
4.09049e-09
3.8476e-09
-2.22732e-09
2.21283e-09
-3.83312e-09
-1.54937e-09
-9.35338e-10
2.40863e-09
7.61021e-11
3.7326e-09
4.91745e-09
-3.56731e-09
-5.08278e-09
1.19348e-09
5.17485e-09
-7.73397e-09
1.36563e-09
4.21272e-10
-2.90568e-09
2.4672e-09
1.72109e-11
-6.00973e-09
6.60017e-09
-4.34626e-10
-1.55835e-10
-5.52837e-09
-3.49909e-09
3.01775e-09
-4.46397e-09
-2.89271e-09
3.27925e-09
-3.66107e-09
1.13426e-09
-7.52415e-10
4.64884e-11
3.04637e-09
2.07766e-11
8.48921e-10
-5.11652e-09
2.08688e-09
-6.74181e-09
6.93576e-09
3.78143e-09
-3.97539e-09
-3.87413e-09
1.22174e-09
-1.14986e-10
2.93786e-09
-9.82923e-10
-1.99834e-09
4.34102e-11
-1.46143e-09
2.43085e-09
-3.3305e-09
2.36107e-09
4.57821e-09
-1.95348e-09
-2.70822e-09
8.35181e-11
-1.54301e-09
-2.36305e-09
3.88097e-09
2.50876e-11
3.27678e-09
-2.45331e-09
-8.88973e-10
6.55164e-11
4.13153e-09
-2.77978e-09
2.15067e-09
-3.50244e-09
3.52702e-09
-4.40669e-09
-3.40864e-11
-3.72398e-09
-1.03352e-12
-3.11097e-09
-9.59493e-11
3.23871e-09
-3.18196e-11
2.3204e-09
2.63575e-10
-3.72569e-11
-2.95518e-09
-2.8389e-12
-6.77447e-11
-3.14144e-09
7.12824e-09
-8.24291e-10
-3.16251e-09
-5.6032e-09
3.77635e-10
2.17284e-09
3.05272e-09
-1.36847e-09
3.381e-09
1.03645e-11
-2.38657e-10
2.20338e-09
-1.99999e-09
3.52523e-11
-3.89102e-09
2.47078e-09
1.50524e-09
-8.50419e-11
5.40971e-09
-4.01291e-09
1.73015e-09
4.64866e-09
-2.93877e-09
-7.87561e-09
6.16573e-09
2.85341e-09
1.95949e-09
-1.40562e-10
2.4538e-09
-5.92268e-09
-2.76594e-11
9.28811e-10
-1.56375e-09
-5.20333e-09
5.18208e-09
-5.22042e-09
4.53706e-11
-7.03911e-12
-4.74913e-09
4.45964e-09
-2.68532e-09
4.59227e-10
-4.10226e-09
-3.64178e-09
7.28483e-09
-4.04945e-09
-8.3081e-11
-3.11155e-10
4.66018e-09
1.46158e-11
-3.23578e-09
2.80765e-09
-8.20758e-12
-7.6721e-09
3.99434e-09
3.06334e-10
3.37141e-09
-3.17842e-09
-1.53668e-09
9.25105e-10
-1.08864e-09
2.5447e-09
-4.87642e-09
5.01886e-09
2.90625e-09
-9.01374e-09
-1.73639e-09
1.70221e-09
-3.78605e-09
2.24276e-09
-1.93086e-10
1.96039e-10
1.98887e-09
-2.03181e-09
-1.5308e-10
6.01658e-10
-4.26394e-09
3.66933e-09
-7.05005e-12
1.99422e-09
-3.30391e-09
1.39023e-09
-8.05532e-11
-4.47982e-09
5.30049e-09
-6.46616e-09
5.6455e-09
-8.1103e-11
-4.29042e-09
-1.08312e-10
5.38722e-09
-1.09251e-09
-2.24119e-09
-5.5895e-09
4.20082e-09
2.35081e-09
-9.62148e-10
-1.83411e-09
-3.8241e-09
6.87039e-11
-2.73616e-09
-1.18185e-09
2.69848e-11
-3.34576e-09
-4.87071e-09
2.73008e-09
5.48638e-09
-3.4686e-10
-2.9856e-09
-1.33058e-11
-2.6526e-10
1.03375e-09
2.96048e-09
-3.72897e-09
-4.38073e-09
1.29812e-10
2.46619e-09
1.78474e-09
2.79254e-09
-2.46453e-09
-2.23122e-09
1.90321e-09
1.78088e-09
-9.6436e-10
-1.05368e-09
2.37176e-10
-2.14826e-09
-1.22016e-09
-1.01229e-09
-4.12784e-09
4.76386e-11
1.46176e-11
-2.6162e-09
3.24622e-10
2.40708e-09
-1.15484e-10
-2.85113e-09
-3.72351e-09
5.02909e-09
1.54556e-09
1.56621e-10
1.63859e-09
-1.76806e-09
-2.71742e-11
-6.31349e-09
-1.565e-09
4.53104e-09
3.34746e-09
-1.31258e-09
-1.66538e-09
3.02099e-09
-4.30131e-11
-1.76062e-09
2.89551e-09
-1.12104e-09
-1.38491e-11
-7.19335e-12
-2.82615e-09
2.86466e-09
-3.13001e-11
2.97845e-10
-3.78435e-09
-1.17577e-09
4.66228e-09
-8.00529e-09
6.55675e-09
4.2819e-10
1.02033e-09
-3.46129e-09
2.29925e-09
1.37334e-09
-2.1129e-10
-1.106e-08
3.42745e-09
5.34054e-09
-3.42697e-09
-6.04607e-09
1.07053e-09
8.40251e-09
-3.25031e-09
1.34443e-09
-4.0627e-11
-2.5406e-09
1.33495e-09
3.7932e-09
6.17952e-10
3.32943e-09
4.58142e-09
-8.5288e-09
2.11256e-09
-2.9184e-09
-9.86964e-10
1.79281e-09
-3.5995e-09
3.31959e-09
2.50351e-10
2.95739e-11
-3.66661e-09
4.18316e-09
8.51086e-11
1.52179e-10
-4.46961e-09
4.25482e-09
6.26153e-11
1.98073e-09
-1.90117e-09
-1.16802e-11
-6.79159e-11
-2.15651e-09
1.15967e-10
2.01752e-09
2.30052e-11
-3.29557e-09
-5.04145e-09
1.94185e-10
8.14287e-09
1.7057e-09
4.94191e-10
1.44039e-09
-3.64029e-09
2.47566e-11
-3.82637e-09
3.84992e-09
-4.83193e-11
2.90092e-09
-3.70429e-10
-2.58789e-09
5.73882e-11
-4.35766e-09
-2.57251e-10
4.60479e-09
1.01396e-11
3.95808e-09
-2.69262e-09
-1.43234e-09
1.66881e-10
3.98847e-09
-3.78702e-09
-7.52986e-12
-2.327e-09
-1.94487e-09
2.6221e-09
1.64976e-09
-1.06e-09
-1.59086e-09
2.56012e-09
9.07542e-11
-3.57267e-09
-4.81398e-09
3.31005e-09
5.07659e-09
3.2381e-10
-2.25906e-09
-1.50815e-09
3.44341e-09
7.37526e-09
-6.85778e-09
-5.56735e-10
3.92863e-11
-1.71173e-09
-3.19426e-10
-2.92831e-09
4.95944e-09
-1.73336e-09
1.37361e-09
-1.4752e-09
1.8349e-09
-5.71742e-09
2.41081e-09
-2.70934e-09
6.01596e-09
3.46795e-09
-6.25634e-09
4.07352e-10
2.38106e-09
1.84041e-09
-3.81358e-09
5.75532e-10
1.39765e-09
1.80148e-09
-2.76552e-09
1.16326e-09
-1.99272e-10
9.75476e-10
-1.34681e-09
2.21175e-09
3.2709e-09
-6.67158e-09
-2.18339e-09
-6.5772e-09
4.35803e-09
4.16414e-09
2.16123e-09
5.32842e-10
-2.03717e-09
-6.56901e-10
4.5648e-09
-4.91433e-09
-5.98752e-09
-8.32765e-09
4.91391e-09
3.27688e-09
-1.46742e-11
-5.07301e-11
-5.84303e-10
2.73105e-10
-2.92457e-09
1.41133e-09
-2.70093e-09
1.4706e-09
-1.80989e-10
2.8774e-09
3.45288e-09
-3.40374e-09
6.78423e-09
-2.99345e-09
-1.09841e-09
-2.69238e-09
-4.03198e-09
-3.33446e-10
1.48302e-09
2.79136e-10
-1.81515e-09
-2.27757e-09
-2.11092e-09
1.57807e-10
3.70335e-10
-1.92024e-09
4.43054e-09
-2.88064e-09
2.34731e-09
-1.38048e-09
-1.10631e-09
1.39537e-10
-2.12531e-09
4.87863e-09
-2.88061e-09
1.27286e-10
-8.20502e-10
-8.28657e-10
1.64626e-09
2.90063e-12
-2.04093e-09
3.44011e-09
3.98222e-09
-3.67326e-09
2.1527e-11
-5.25369e-09
1.02624e-09
1.98227e-09
2.24519e-09
-1.00109e-09
1.67994e-09
-7.36142e-10
5.72951e-11
-1.4826e-11
-4.28364e-09
7.54982e-10
1.16077e-09
2.3679e-09
2.70089e-10
1.52524e-09
-1.75392e-09
-4.14129e-11
-1.54177e-09
3.31744e-09
-1.92673e-09
-1.5037e-09
1.16625e-11
3.72561e-09
-1.87769e-09
-7.57791e-09
5.73e-09
-1.64923e-09
4.60243e-09
4.5613e-09
9.03182e-10
1.33577e-09
-1.45947e-09
-7.79554e-10
-2.01693e-09
2.10201e-10
1.80479e-09
1.91774e-12
-6.36558e-09
-2.36398e-09
9.58409e-09
-8.54518e-10
-4.82136e-09
7.50497e-09
-1.86942e-09
-8.14177e-10
5.38781e-09
-5.73889e-09
-1.95769e-09
2.30879e-09
1.58726e-09
-2.13182e-09
-1.23492e-09
-4.86577e-10
2.71438e-09
-1.29581e-09
-9.31993e-10
-2.83417e-09
2.75869e-09
1.11417e-11
6.43582e-11
3.06785e-09
7.07499e-11
-3.12722e-09
-1.14122e-11
2.22349e-09
-1.86466e-09
-3.98032e-10
3.92007e-11
1.61154e-09
1.95235e-09
1.591e-09
-5.15488e-09
2.25825e-09
2.61076e-09
-2.41849e-10
-4.62717e-09
-2.38898e-09
2.285e-09
1.71505e-10
-6.75232e-11
-2.94714e-09
4.61147e-09
-4.05331e-09
-4.02908e-10
-4.82534e-09
3.53684e-11
-3.45694e-10
-5.81711e-09
-4.87936e-09
9.72244e-10
6.69413e-09
-2.78701e-09
2.31475e-09
2.49724e-09
-1.56876e-09
-3.24323e-09
-8.63444e-09
2.05268e-10
4.88993e-09
3.53926e-09
-4.33314e-09
3.16406e-09
-1.32938e-09
-1.48021e-09
-4.64242e-09
3.65867e-09
2.46397e-09
2.05139e-09
-2.14499e-09
6.62867e-11
2.7309e-11
1.55658e-10
-2.07793e-09
-1.93561e-11
-6.76476e-09
-4.62317e-09
8.28589e-09
3.10205e-09
7.85841e-10
-2.20882e-09
-2.48397e-09
3.90694e-09
-2.22704e-09
-1.21807e-09
1.2228e-09
2.22228e-09
1.67212e-09
2.47022e-09
-1.50505e-09
-2.6373e-09
-3.61905e-09
3.70645e-09
2.23383e-09
-1.45433e-09
1.23679e-10
-3.24544e-09
-8.66965e-10
1.30623e-09
2.80615e-09
-1.86027e-09
-7.66915e-10
-2.43636e-10
2.87081e-09
8.71922e-10
-2.33259e-09
-1.95335e-11
-3.95544e-09
7.76709e-10
3.94567e-09
-7.66926e-10
1.63425e-09
3.99895e-10
-1.85592e-09
-1.78247e-10
-2.20475e-09
-2.34747e-09
4.4133e-09
1.38918e-10
1.0081e-09
-3.63486e-09
-4.62437e-09
2.39516e-09
-3.03956e-10
2.53318e-09
1.48605e-09
1.07198e-09
-2.58025e-09
2.22324e-11
-3.1906e-09
4.05341e-09
4.25417e-09
-1.37954e-09
-3.44398e-09
1.05114e-09
3.77237e-09
-4.18024e-09
3.98637e-09
2.07394e-10
-1.35567e-11
-2.94707e-09
1.48723e-09
-1.72053e-10
-2.43589e-09
5.29373e-09
-2.9876e-09
1.29757e-10
4.46328e-09
-4.50973e-09
1.60516e-10
-1.14037e-10
9.55859e-10
3.45455e-11
9.84779e-09
-6.48962e-09
-3.53349e-09
1.75314e-10
-2.60214e-09
2.91869e-09
1.04724e-10
4.88714e-09
2.7248e-10
-5.22989e-09
7.02749e-11
6.29387e-09
4.28418e-10
-6.69185e-09
-3.04522e-11
-5.23966e-11
-2.95965e-09
3.06782e-09
-5.57642e-11
6.93236e-09
-2.32422e-09
2.1736e-09
-3.83218e-09
-2.90504e-09
4.5636e-09
7.13381e-11
1.69665e-09
-4.76123e-12
-3.51523e-09
2.68069e-09
-2.71063e-09
4.39939e-09
2.69942e-09
-4.38814e-09
4.3021e-09
-3.62825e-09
2.25876e-11
1.31606e-10
1.61542e-09
-1.73496e-09
-1.20541e-11
-1.56936e-09
3.47708e-10
-3.09133e-09
-2.56093e-09
-6.91929e-09
1.16394e-08
-2.15913e-09
-6.72314e-09
4.5161e-09
2.213e-09
-5.94743e-12
3.16633e-09
2.12063e-10
2.12816e-09
-5.50656e-09
-3.2178e-09
-5.72155e-09
2.78791e-11
8.91147e-09
4.70788e-09
1.26533e-09
-4.34805e-10
-5.5384e-09
4.7637e-09
-3.47009e-09
-3.81553e-09
2.52192e-09
4.43973e-10
-3.87773e-09
-6.33359e-09
9.76733e-09
9.16203e-09
-9.03058e-09
5.54112e-09
-5.67258e-09
3.98695e-09
8.11379e-09
-7.56642e-10
-1.13441e-08
-8.24992e-09
5.29407e-09
3.37433e-09
-4.18494e-10
-6.15606e-09
1.07194e-08
-4.08642e-09
-4.7696e-10
1.03351e-08
-9.97173e-09
6.01331e-09
-6.37664e-09
-3.92129e-09
-6.19608e-09
5.04533e-09
5.07206e-09
-6.12086e-09
1.01196e-08
-1.04849e-08
6.48617e-09
5.66187e-09
-1.82703e-09
-3.98837e-09
1.53543e-10
-3.5387e-10
-3.66606e-09
8.82467e-09
-4.80474e-09
4.15366e-10
6.21916e-09
4.02262e-09
-1.06571e-08
-3.20841e-09
-4.62176e-09
7.35247e-09
4.77705e-10
2.02576e-09
4.79082e-09
-9.4453e-09
2.62874e-09
-1.01473e-08
1.05602e-08
-6.55929e-09
6.14641e-09
-1.07442e-09
4.62736e-09
-8.42527e-09
4.87233e-09
-5.17996e-10
6.30114e-09
-5.56863e-09
-2.14485e-10
4.35371e-10
-6.60493e-09
-4.08348e-09
1.0253e-08
-1.55073e-09
1.82572e-09
1.29048e-09
-1.17325e-09
-2.7982e-09
1.85399e-10
-2.58513e-09
4.86963e-09
-1.49864e-09
3.78932e-09
-4.98719e-09
-5.21585e-09
3.74929e-09
-2.12597e-09
-1.03072e-09
-1.59812e-09
2.52672e-09
1.02111e-10
-4.40959e-09
2.75644e-09
2.50207e-09
4.31882e-09
-1.80682e-09
-6.83372e-10
-1.82863e-09
-5.45222e-09
-3.52877e-10
5.88519e-09
-8.01091e-11
8.39473e-09
-3.4118e-09
-5.24682e-09
2.63892e-10
-4.52589e-09
6.71836e-09
-4.09067e-09
1.89821e-09
5.06605e-09
-1.04134e-08
-3.25943e-09
8.60679e-09
5.65988e-09
-4.61966e-09
4.00091e-09
-5.04113e-09
-5.74981e-09
9.98314e-09
-3.83474e-09
-3.98571e-10
-3.83173e-09
3.77563e-09
-3.40176e-09
-2.43451e-09
-2.00911e-10
-4.30958e-09
4.58182e-09
-2.37759e-09
-3.80335e-10
2.67704e-09
8.08791e-11
-2.68359e-09
-1.68551e-09
6.20583e-09
-1.83673e-09