/*--------------------------------*- C++ -*----------------------------------*\
| =========                 |                                                 |
| \\      /  F ield         | OpenFOAM: The Open Source CFD Toolbox           |
|  \\    /   O peration     | Version:  v1612+                                |
|   \\  /    A nd           | Web:      www.OpenFOAM.com                      |
|    \\/     M anipulation  |                                                 |
\*---------------------------------------------------------------------------*/
FoamFile
{
    version     2.0;
    format      ascii;
    class       volVectorField;
    location    "50";
    object      wallShearStress;
}
// * * * * * * * * * * * * * * * * * * * * * * * * * * * * * * * * * * * * * //

dimensions      [0 2 -2 0 0 0 0];

internalField   uniform (0 0 0);

boundaryField
{
    WALL
    {
        type            calculated;
        value           nonuniform List<vector> 
1490
(
(-0.00309811 -0.0136876 0.00373852)
(-0.00308588 -0.0140237 0.00390853)
(-0.00307417 -0.0135435 0.003718)
(-0.00301632 -0.0146178 0.00407174)
(-0.00352458 -0.01512 0.00409194)
(-0.00307978 -0.0146309 0.00414635)
(-0.00323653 -0.014739 0.00401062)
(-0.00357893 -0.0151595 0.00396988)
(-0.00297945 -0.014805 0.00429018)
(-0.00342627 -0.0146094 0.00385921)
(-0.00332164 -0.0146624 0.00398937)
(-0.0033624 -0.0146089 0.00396252)
(-0.0030728 -0.0136815 0.0037997)
(-0.00295431 -0.0135564 0.0037157)
(-0.00333122 -0.0149283 0.00409874)
(-0.00340253 -0.0146922 0.00397466)
(-0.00317161 -0.0147403 0.00406254)
(-0.00327587 -0.0138044 0.00400829)
(-0.00345649 -0.0139275 0.00417947)
(-0.00314781 -0.0140228 0.00382108)
(-0.00281649 -0.0135304 0.00384)
(-0.00334077 -0.0145037 0.00428322)
(-0.00345481 -0.0141 0.00434143)
(-0.00348541 -0.0143374 0.00387889)
(-0.00353609 -0.0146095 0.00399255)
(-0.00318512 -0.0143613 0.00382145)
(-0.00382056 -0.0148241 0.00407661)
(-0.00339984 -0.0145108 0.0039817)
(-0.00317954 -0.0141336 0.00384026)
(-0.00344786 -0.014406 0.00411679)
(-0.00340944 -0.0150074 0.00397166)
(-0.00317002 -0.0146291 0.00408876)
(-0.00327767 -0.0149376 0.00439073)
(-0.00337096 -0.0145348 0.00424937)
(-0.00341474 -0.0148456 0.00401627)
(-0.0033359 -0.0147065 0.00426822)
(-0.00317026 -0.0142338 0.0037762)
(-0.00310256 -0.0138455 0.00395844)
(-0.00328331 -0.0147906 0.00413632)
(-0.00331301 -0.0139473 0.00414057)
(-0.00282154 -0.0130956 0.0035793)
(-0.00311027 -0.0132941 0.00415098)
(-0.00302993 -0.014564 0.00399438)
(-0.00314637 -0.0142185 0.00433487)
(-0.00345409 -0.0145817 0.00396212)
(-0.00336978 -0.0145578 0.00397604)
(-0.00325691 -0.0145723 0.00403391)
(-0.00308216 -0.0146608 0.00418326)
(-0.00310051 -0.0146007 0.00409178)
(-0.00357292 -0.014748 0.00394417)
(-0.00298624 -0.0138953 0.00388152)
(-0.00291746 -0.0133452 0.00389263)
(-0.00269112 -0.0136157 0.00412621)
(-0.00290377 -0.0134772 0.00384054)
(-0.00273721 -0.0135694 0.00424823)
(-0.00307043 -0.0138183 0.00387463)
(-0.00355955 -0.0146496 0.00391274)
(-0.00299639 -0.0133888 0.00368694)
(-0.00331889 -0.0139267 0.00399499)
(-0.00344768 -0.0136529 0.00399581)
(-0.00357749 -0.0137749 0.00394616)
(-0.00309357 -0.0141393 0.00377956)
(-0.00316162 -0.0135884 0.00361394)
(-0.00312565 -0.0135656 0.00367792)
(-0.00294803 -0.0135887 0.00371809)
(-0.00323729 -0.0136018 0.00373846)
(-0.00298882 -0.0136014 0.00378708)
(-0.00302274 -0.0135693 0.00366055)
(-0.00316826 -0.0137466 0.00383445)
(-0.00313679 -0.0140612 0.00379187)
(-0.00311015 -0.0139759 0.00377846)
(-0.00317148 -0.0136585 0.00363766)
(-0.00299211 -0.0138768 0.0038431)
(-0.00328474 -0.0136987 0.00373936)
(-0.00317814 -0.0138459 0.00382762)
(-0.00324854 -0.0143079 0.00396362)
(-0.00338483 -0.0141649 0.00452351)
(-0.00316756 -0.014799 0.00425633)
(-0.00326702 -0.014091 0.004042)
(-0.00367118 -0.0148973 0.0047727)
(-0.00332903 -0.0135848 0.00407241)
(-0.00322623 -0.0136846 0.00396352)
(-0.00343451 -0.0139673 0.00402588)
(-0.00317497 -0.0137176 0.00383442)
(-0.00347227 -0.0141292 0.00406235)
(-0.00330564 -0.0140518 0.0040542)
(-0.00344505 -0.0135719 0.00394987)
(-0.00290938 -0.0137525 0.00372506)
(-0.0035164 -0.0141195 0.00401276)
(-0.00303794 -0.0143243 0.00397681)
(-0.00280694 -0.0138298 0.00375535)
(-0.0028478 -0.0138797 0.00388617)
(-0.00349534 -0.0146339 0.00396757)
(-0.00345778 -0.0147079 0.0040957)
(-0.00358266 -0.0139818 0.00380627)
(-0.0032558 -0.0139702 0.00376391)
(-0.00338388 -0.0143151 0.00391066)
(-0.00307148 -0.0138812 0.00407124)
(-0.00316673 -0.0144251 0.00432054)
(-0.00287348 -0.0136831 0.00399152)
(-0.00301837 -0.0142829 0.00372572)
(-0.00309985 -0.0140036 0.00394117)
(-0.00301574 -0.0144339 0.00410569)
(-0.00310788 -0.0138226 0.00391606)
(-0.00302278 -0.0143501 0.00422835)
(-0.00309312 -0.0135651 0.00361269)
(-0.00298178 -0.0133724 0.00368762)
(-0.00296797 -0.0135416 0.0037236)
(-0.00299288 -0.013737 0.00380748)
(-0.00298611 -0.0135736 0.00406184)
(-0.00306036 -0.0144805 0.00387411)
(-0.00292859 -0.0139262 0.00391284)
(-0.00285078 -0.0141011 0.00409644)
(-0.00280719 -0.0134176 0.00366295)
(-0.00280129 -0.0132767 0.0038536)
(-0.00279713 -0.0134602 0.00384021)
(-0.0030532 -0.0139395 0.0038286)
(-0.00317039 -0.0140818 0.00412351)
(-0.00303458 -0.0136413 0.00401384)
(-0.00314484 -0.0142474 0.00412446)
(-0.00313876 -0.0142879 0.00389518)
(-0.00328261 -0.0133922 0.00391884)
(-0.00321832 -0.013594 0.00390433)
(-0.0031626 -0.0143934 0.00389451)
(-0.0034039 -0.0143711 0.00409632)
(-0.00315522 -0.014875 0.00419049)
(-0.00316922 -0.0142639 0.00375856)
(-0.0030103 -0.0136538 0.00374269)
(-0.00322707 -0.0139977 0.0039427)
(-0.00322422 -0.0135188 0.00379099)
(-0.00303121 -0.0134137 0.00381258)
(-0.00315291 -0.0133878 0.00384846)
(-0.0031628 -0.0135848 0.0040521)
(-0.00342694 -0.0137902 0.00417344)
(-0.00306255 -0.0133398 0.00369445)
(-0.00349062 -0.0137878 0.00401892)
(-0.00311218 -0.0142159 0.00394845)
(-0.00333648 -0.0136305 0.00388147)
(-0.00326916 -0.0135439 0.00396561)
(-0.00307761 -0.0131747 0.00375026)
(-0.00313279 -0.0130166 0.003695)
(-0.00288455 -0.0131324 0.00363931)
(-0.00270809 -0.0128774 0.00347348)
(-0.00301574 -0.0126344 0.00367958)
(-0.00328577 -0.0132281 0.00402393)
(-0.00367709 -0.0136904 0.00448907)
(-0.00319442 -0.01355 0.00388038)
(-0.00289303 -0.0131476 0.00376133)
(-0.00327846 -0.0149659 0.00400116)
(-0.00329688 -0.0134581 0.00420016)
(-0.00299408 -0.0136095 0.0036958)
(-0.00300614 -0.013624 0.0037206)
(-0.00297596 -0.0137211 0.00388972)
(-0.00298299 -0.0138264 0.00380948)
(-0.00293719 -0.0135673 0.00386392)
(-0.00310158 -0.0140153 0.00388372)
(-0.00309281 -0.0139023 0.00407042)
(-0.00306157 -0.014216 0.00407629)
(-0.00312683 -0.0142696 0.00418431)
(-0.00288417 -0.0135478 0.00391349)
(-0.00294355 -0.01367 0.00410743)
(-0.00330243 -0.0150283 0.00422364)
(-0.00301613 -0.0143416 0.00411671)
(-0.0029391 -0.0143572 0.00434373)
(-0.00326308 -0.0147461 0.00412509)
(-0.00323089 -0.0145736 0.00457679)
(-0.00323933 -0.0146573 0.00431048)
(-0.00317415 -0.0148183 0.00425594)
(-0.00298491 -0.0143352 0.00436655)
(-0.00300932 -0.0134661 0.00368916)
(-0.00308576 -0.0134724 0.00374475)
(-0.00293366 -0.0134369 0.00369001)
(-0.00309342 -0.0137436 0.00385394)
(-0.00327941 -0.0132792 0.00383409)
(-0.00362651 -0.0138242 0.00403723)
(-0.00285342 -0.0132646 0.00377182)
(-0.00307954 -0.013618 0.00375504)
(-0.00321667 -0.013737 0.00394591)
(-0.00321665 -0.0138784 0.00384396)
(-0.00349952 -0.0142821 0.00401019)
(-0.00306907 -0.0138832 0.00376122)
(-0.00310245 -0.0141919 0.00380223)
(-0.00300264 -0.0136852 0.00363113)
(-0.00313934 -0.0135355 0.00372634)
(-0.00338239 -0.0138215 0.00409682)
(-0.0031852 -0.0137803 0.00388225)
(-0.00308524 -0.0133346 0.00381803)
(-0.00331263 -0.0142133 0.00395038)
(-0.00336033 -0.0135429 0.00396027)
(-0.00298 -0.0140972 0.0039235)
(-0.00304628 -0.0135588 0.00373267)
(-0.003335 -0.0140464 0.0038944)
(-0.00330258 -0.013461 0.00372952)
(-0.00288252 -0.0139698 0.00379464)
(-0.0031445 -0.0141483 0.00391683)
(-0.00309235 -0.0137999 0.00375977)
(-0.00355174 -0.0148778 0.00395138)
(-0.00318721 -0.0143647 0.0038467)
(-0.00327528 -0.0145001 0.00389476)
(-0.00351854 -0.0150034 0.00403586)
(-0.00302869 -0.0150842 0.00426599)
(-0.00331959 -0.015107 0.00432314)
(-0.00332852 -0.0144524 0.00389527)
(-0.00339558 -0.0147711 0.0039883)
(-0.0034914 -0.0149694 0.00406008)
(-0.00334107 -0.0147208 0.00402099)
(-0.0034048 -0.0146206 0.0039809)
(-0.00348479 -0.0147999 0.00399166)
(-0.00324774 -0.0140066 0.00414391)
(-0.00334807 -0.014063 0.00418935)
(-0.00316432 -0.0137261 0.00396277)
(-0.00330296 -0.0137444 0.00425409)
(-0.00304726 -0.0135836 0.00380255)
(-0.00335732 -0.0141366 0.00440448)
(-0.00319151 -0.0140374 0.00392024)
(-0.00347361 -0.0138628 0.00450443)
(-0.00326359 -0.0143865 0.00392793)
(-0.00394408 -0.0148169 0.00469274)
(-0.00300549 -0.0137431 0.00405707)
(-0.00320642 -0.0144541 0.00410057)
(-0.00350214 -0.0152973 0.00445544)
(-0.00312831 -0.014187 0.00420925)
(-0.00347063 -0.0151439 0.00390593)
(-0.00348616 -0.014887 0.00404417)
(-0.00326067 -0.0146393 0.00440098)
(-0.00326961 -0.0150876 0.00430976)
(-0.0032179 -0.0145721 0.00391411)
(-0.00310049 -0.014773 0.00426809)
(-0.00302657 -0.0145842 0.00424547)
(-0.00339753 -0.0145437 0.00387073)
(-0.00309438 -0.0143823 0.0039401)
(-0.00328001 -0.0146708 0.00407716)
(-0.00313452 -0.0143719 0.00437108)
(-0.00320727 -0.0145027 0.00442795)
(-0.00314067 -0.0140014 0.0040236)
(-0.00330355 -0.0145954 0.00397064)
(-0.00293396 -0.0139399 0.00413957)
(-0.00333501 -0.0147558 0.00428615)
(-0.00356583 -0.0150366 0.00438843)
(-0.00363263 -0.0153435 0.00449644)
(-0.00320642 -0.0146075 0.00404095)
(-0.00309393 -0.014212 0.00404229)
(-0.00336674 -0.014287 0.00453451)
(-0.00360884 -0.014973 0.00460358)
(-0.00344187 -0.0146726 0.00459214)
(-0.00335121 -0.0144931 0.00444743)
(-0.0033498 -0.0147914 0.00385499)
(-0.00339384 -0.0142906 0.00438723)
(-0.00340133 -0.013717 0.00433929)
(-0.00397542 -0.0150788 0.00473578)
(-0.00332967 -0.0142167 0.00428588)
(-0.00317363 -0.0141242 0.00433475)
(-0.00327167 -0.0141346 0.00379815)
(-0.00305152 -0.0137241 0.00378705)
(-0.00305271 -0.0137054 0.00368927)
(-0.00314528 -0.0138822 0.00375802)
(-0.00306628 -0.0143025 0.00402597)
(-0.00300764 -0.0136636 0.00378355)
(-0.00289436 -0.0137297 0.00372704)
(-0.00286107 -0.0135257 0.00386629)
(-0.00293055 -0.0136073 0.0039337)
(-0.00278148 -0.0132943 0.00374937)
(-0.00285936 -0.0133289 0.0038305)
(-0.00285205 -0.01344 0.00396619)
(-0.003083 -0.0135456 0.00368161)
(-0.0030951 -0.0135713 0.00371396)
(-0.00295214 -0.0136333 0.00381356)
(-0.00313086 -0.0137455 0.00371562)
(-0.00303172 -0.0135708 0.00366708)
(-0.00314123 -0.0139162 0.00357484)
(-0.00320657 -0.0139605 0.0037126)
(-0.0031304 -0.0142357 0.00381036)
(-0.00313882 -0.0135866 0.00352545)
(-0.0030782 -0.0135761 0.00362164)
(-0.00324674 -0.0136714 0.00343789)
(-0.00314861 -0.013634 0.00363439)
(-0.00304748 -0.0133663 0.00361321)
(-0.00303953 -0.0138487 0.00378682)
(-0.00305898 -0.0133534 0.00363263)
(-0.00324308 -0.0137565 0.00369991)
(-0.00302305 -0.0136244 0.00373238)
(-0.00317939 -0.0136911 0.00377362)
(-0.00324051 -0.0135915 0.00360618)
(-0.00323199 -0.0136248 0.00367229)
(-0.00319463 -0.013836 0.00371953)
(-0.00319247 -0.0139255 0.00372474)
(-0.0032885 -0.0138854 0.00378416)
(-0.00298808 -0.0138488 0.00380803)
(-0.00317291 -0.0141386 0.00395881)
(-0.00317758 -0.0137119 0.00379058)
(-0.00300363 -0.0135498 0.00370978)
(-0.00313335 -0.0139375 0.00381817)
(-0.00319603 -0.0136823 0.00347061)
(-0.00310428 -0.0141795 0.00387965)
(-0.00300284 -0.0138463 0.00381467)
(-0.0031379 -0.0140523 0.00383921)
(-0.00289417 -0.0135756 0.00382439)
(-0.00290553 -0.0136951 0.00393412)
(-0.00323579 -0.0139429 0.00375469)
(-0.00316984 -0.0139713 0.00391117)
(-0.00310425 -0.0137876 0.0037029)
(-0.00351521 -0.0145117 0.00410467)
(-0.00329325 -0.0140063 0.00391433)
(-0.00340275 -0.0140548 0.00378278)
(-0.00286472 -0.0136744 0.00392632)
(-0.0033694 -0.0137926 0.00377454)
(-0.0033336 -0.0140659 0.0039745)
(-0.00299175 -0.0133366 0.00374552)
(-0.00340003 -0.0135592 0.00400937)
(-0.00298068 -0.0136336 0.00381626)
(-0.00325001 -0.0136097 0.00386861)
(-0.00324341 -0.0135194 0.00378127)
(-0.00326389 -0.0132887 0.003925)
(-0.0036786 -0.0142572 0.00394657)
(-0.00336118 -0.0137981 0.00406394)
(-0.00302811 -0.0141875 0.00381808)
(-0.00303185 -0.0134516 0.00377442)
(-0.00332394 -0.0138511 0.00388289)
(-0.00355661 -0.0138356 0.00396688)
(-0.00330528 -0.0140427 0.00391039)
(-0.00345084 -0.0136983 0.00408387)
(-0.00298115 -0.0136182 0.00386358)
(-0.00335072 -0.0137044 0.00390697)
(-0.00325607 -0.0141961 0.00393757)
(-0.00337978 -0.0136794 0.00396087)
(-0.00382493 -0.0142235 0.00419853)
(-0.00329389 -0.0144471 0.0038912)
(-0.00313232 -0.0134598 0.00382591)
(-0.00358898 -0.0134937 0.00410995)
(-0.00330119 -0.0142513 0.00396338)
(-0.00338834 -0.0134059 0.00384325)
(-0.00310659 -0.0139635 0.00382128)
(-0.00335612 -0.0134748 0.0039517)
(-0.00335271 -0.0138633 0.00389676)
(-0.00345206 -0.0136613 0.00387089)
(-0.00313032 -0.0136459 0.00373534)
(-0.00316162 -0.0144411 0.00385341)
(-0.00369529 -0.0150084 0.00462014)
(-0.00348825 -0.0142322 0.0044272)
(-0.00320587 -0.0143673 0.00401418)
(-0.00345642 -0.0146067 0.00455509)
(-0.00342413 -0.0143539 0.0041548)
(-0.00295669 -0.0138127 0.00407638)
(-0.00306338 -0.0147538 0.00419588)
(-0.00330523 -0.0149049 0.00406278)
(-0.00303205 -0.0145222 0.00383266)
(-0.00303511 -0.0143054 0.00398632)
(-0.00299244 -0.0137288 0.00398617)
(-0.00316838 -0.0139922 0.00367388)
(-0.00297796 -0.013664 0.00368453)
(-0.00289658 -0.0134456 0.00368776)
(-0.0029268 -0.0139741 0.00382019)
(-0.00296094 -0.0135194 0.00366368)
(-0.00293402 -0.0135093 0.00367397)
(-0.00290682 -0.0135556 0.00412288)
(-0.0030371 -0.0139772 0.00403958)
(-0.00296019 -0.0135986 0.00405674)
(-0.0029932 -0.0140978 0.00397598)
(-0.00288238 -0.0136149 0.00379517)
(-0.00297183 -0.0135171 0.00396248)
(-0.00278335 -0.0134363 0.00378204)
(-0.00306151 -0.0135345 0.00367352)
(-0.00294319 -0.0133126 0.00375422)
(-0.00303378 -0.0133038 0.00358528)
(-0.0030165 -0.013326 0.00365936)
(-0.00295246 -0.0135329 0.00374507)
(-0.00268958 -0.013555 0.00389604)
(-0.00290757 -0.0137194 0.00372409)
(-0.00333104 -0.0148318 0.0040087)
(-0.00342838 -0.0148965 0.00402121)
(-0.00361049 -0.0153508 0.00404222)
(-0.00328193 -0.0148366 0.00406101)
(-0.00332243 -0.0147786 0.00391103)
(-0.00325214 -0.0146655 0.00407826)
(-0.00337441 -0.0145475 0.00394336)
(-0.00346879 -0.0150116 0.00406284)
(-0.003465 -0.0147052 0.00401392)
(-0.00351625 -0.0145471 0.00391186)
(-0.00334671 -0.0151028 0.00410505)
(-0.00330251 -0.0143576 0.00392295)
(-0.00329775 -0.0152921 0.00444414)
(-0.00308099 -0.0146505 0.00404268)
(-0.00319702 -0.0148911 0.00422809)
(-0.00328446 -0.0147421 0.00401475)
(-0.00304921 -0.0151469 0.00434317)
(-0.00329962 -0.0152141 0.00439271)
(-0.00314419 -0.0142379 0.00427641)
(-0.00320838 -0.0142823 0.00415645)
(-0.00339493 -0.0148465 0.00423839)
(-0.00308966 -0.0142252 0.00414684)
(-0.00310019 -0.0138889 0.00436397)
(-0.00304593 -0.014001 0.00415265)
(-0.00323908 -0.014509 0.00401003)
(-0.00321267 -0.0146405 0.00410392)
(-0.00327843 -0.0145132 0.00381807)
(-0.0032244 -0.0146236 0.00405002)
(-0.00320947 -0.0145456 0.00401971)
(-0.00329686 -0.0146846 0.00400753)
(-0.00345283 -0.014167 0.00372163)
(-0.00361982 -0.0149656 0.00401754)
(-0.00350573 -0.0147402 0.0038413)
(-0.0036201 -0.0152679 0.00414259)
(-0.0035748 -0.0148832 0.00393636)
(-0.00361888 -0.015026 0.00395372)
(-0.00340877 -0.0149392 0.00415542)
(-0.00327833 -0.01477 0.00396186)
(-0.00302601 -0.0146893 0.00443768)
(-0.00344979 -0.0149788 0.00394875)
(-0.00319987 -0.0143969 0.00389165)
(-0.00317513 -0.0147667 0.00395761)
(-0.00352547 -0.0151402 0.00399658)
(-0.00318865 -0.0151235 0.00415242)
(-0.00340077 -0.0146606 0.00398254)
(-0.00330097 -0.0147885 0.00403861)
(-0.0033357 -0.015169 0.00428367)
(-0.0032122 -0.0141963 0.00402598)
(-0.00304694 -0.0143056 0.00439906)
(-0.00312084 -0.0141967 0.00421586)
(-0.00289078 -0.0136709 0.00409971)
(-0.00301568 -0.0134639 0.00387701)
(-0.00305756 -0.0140768 0.00424266)
(-0.00340481 -0.0143154 0.0039914)
(-0.00315786 -0.0140981 0.0039425)
(-0.00306931 -0.0137655 0.00395945)
(-0.00291194 -0.013479 0.00365484)
(-0.00297739 -0.013026 0.0039057)
(-0.00313886 -0.0141193 0.00385814)
(-0.00342991 -0.0148263 0.00404537)
(-0.00361172 -0.0146273 0.00397998)
(-0.00297732 -0.0147502 0.00428467)
(-0.00330817 -0.0149064 0.00399345)
(-0.00334062 -0.0136929 0.00390132)
(-0.00318923 -0.0135773 0.00377954)
(-0.00299219 -0.0139246 0.00370098)
(-0.00311655 -0.014268 0.00370838)
(-0.00287765 -0.0140753 0.00377568)
(-0.00333044 -0.0143504 0.00415634)
(-0.00326872 -0.0140898 0.00394224)
(-0.00302405 -0.0146741 0.00394603)
(-0.00337603 -0.0141469 0.00384615)
(-0.00295973 -0.0136239 0.00358313)
(-0.00349629 -0.0148539 0.00388466)
(-0.00331772 -0.0133345 0.00371129)
(-0.00308687 -0.0140481 0.00393498)
(-0.00306988 -0.0139565 0.00379315)
(-0.00338811 -0.0140884 0.00419499)
(-0.00324146 -0.0137905 0.00395976)
(-0.00324222 -0.01436 0.00420772)
(-0.00330012 -0.0139358 0.00410691)
(-0.00332498 -0.0139512 0.00424726)
(-0.00342957 -0.0142262 0.00411866)
(-0.00309886 -0.014538 0.00396239)
(-0.00346138 -0.0144737 0.00430541)
(-0.00341053 -0.014712 0.0041205)
(-0.00355621 -0.0150272 0.00442131)
(-0.00322614 -0.0144522 0.00393225)
(-0.00330304 -0.0147379 0.00399034)
(-0.00346235 -0.0153251 0.004344)
(-0.00376538 -0.0149797 0.00445667)
(-0.00352505 -0.014705 0.00424873)
(-0.00361662 -0.014697 0.0040402)
(-0.00320613 -0.0142674 0.00393473)
(-0.0030123 -0.0135035 0.00406442)
(-0.00308502 -0.0135086 0.00386035)
(-0.0030671 -0.0135168 0.00400488)
(-0.00340237 -0.0143095 0.00396005)
(-0.0032912 -0.013541 0.00393179)
(-0.0033553 -0.0143425 0.00428465)
(-0.00336853 -0.0143412 0.00431791)
(-0.00332287 -0.0145078 0.00410636)
(-0.00341898 -0.0140568 0.00426512)
(-0.00328602 -0.014129 0.00410258)
(-0.00325645 -0.0142579 0.00403081)
(-0.00293745 -0.0140755 0.00464313)
(-0.00301135 -0.0146252 0.00474948)
(-0.00304747 -0.0134611 0.00387706)
(-0.00309855 -0.0136835 0.00398091)
(-0.00294216 -0.0136485 0.00407215)
(-0.0029016 -0.0132864 0.00407593)
(-0.00355562 -0.0146658 0.0041112)
(-0.00368536 -0.0148796 0.00442948)
(-0.00349314 -0.0145112 0.00422654)
(-0.00346222 -0.0140526 0.00413219)
(-0.0036299 -0.0144673 0.00412474)
(-0.0034926 -0.0146751 0.00424166)
(-0.00345506 -0.014797 0.0039837)
(-0.00322365 -0.014237 0.00385903)
(-0.00347142 -0.0144216 0.00388529)
(-0.00329805 -0.0145638 0.00404563)
(-0.00332443 -0.0141087 0.0038589)
(-0.00327849 -0.0137833 0.00393077)
(-0.00325244 -0.014032 0.00399252)
(-0.00328266 -0.0138478 0.00394375)
(-0.00348968 -0.0143899 0.00425757)
(-0.00343604 -0.0138213 0.00396647)
(-0.0033286 -0.0139542 0.00408578)
(-0.00357834 -0.0141846 0.00392262)
(-0.00347435 -0.01373 0.00380893)
(-0.00353334 -0.014556 0.00397723)
(-0.00330889 -0.0137408 0.00378302)
(-0.00356687 -0.0146826 0.00412417)
(-0.00330253 -0.0139803 0.00397831)
(-0.00339446 -0.0140299 0.00402488)
(-0.00360042 -0.014081 0.00425271)
(-0.00357961 -0.0141492 0.00414611)
(-0.00351472 -0.0138277 0.00393887)
(-0.00343726 -0.0134781 0.0039198)
(-0.00355555 -0.0148458 0.00397773)
(-0.00341793 -0.0146833 0.0040689)
(-0.00337582 -0.0144962 0.00387345)
(-0.0033746 -0.0145062 0.00397962)
(-0.00326707 -0.0142294 0.00389978)
(-0.00362215 -0.0148286 0.00398272)
(-0.0032115 -0.0137203 0.00382957)
(-0.00312555 -0.014159 0.00388632)
(-0.00290465 -0.0148303 0.00399073)
(-0.00342426 -0.0140204 0.00386309)
(-0.00349559 -0.0141752 0.00407232)
(-0.00317124 -0.014017 0.00387884)
(-0.00333197 -0.014665 0.00425918)
(-0.00292923 -0.0145986 0.00398619)
(-0.00349183 -0.014059 0.0040032)
(-0.00290294 -0.0136753 0.00366856)
(-0.00331222 -0.0140941 0.00394981)
(-0.00334902 -0.0142811 0.00395842)
(-0.00306299 -0.0143977 0.00381938)
(-0.00302109 -0.0137843 0.00371105)
(-0.00306486 -0.0141418 0.00388214)
(-0.00336243 -0.013843 0.00398356)
(-0.00302801 -0.0141333 0.00386572)
(-0.00341389 -0.0143713 0.00422201)
(-0.00341685 -0.0140362 0.00421979)
(-0.00330239 -0.0140243 0.00424787)
(-0.00309346 -0.0135748 0.0039993)
(-0.00336673 -0.0141709 0.00434459)
(-0.00306078 -0.0137501 0.00420933)
(-0.00300715 -0.014063 0.00376542)
(-0.00311614 -0.0144714 0.00406742)
(-0.00337848 -0.0140737 0.00434616)
(-0.00332519 -0.0138171 0.00405716)
(-0.00312895 -0.0141523 0.00399759)
(-0.00304881 -0.013604 0.0039538)
(-0.00317507 -0.0141863 0.00403874)
(-0.00334633 -0.0141548 0.00399273)
(-0.00331179 -0.0142331 0.00418884)
(-0.00322778 -0.0141626 0.00428269)
(-0.00319857 -0.0138467 0.00395413)
(-0.00315475 -0.0140849 0.00402211)
(-0.00310628 -0.0142644 0.003961)
(-0.00328938 -0.0143367 0.00422557)
(-0.00323838 -0.0138136 0.0040098)
(-0.00338431 -0.0142237 0.00411259)
(-0.0032963 -0.0143656 0.004219)
(-0.00325739 -0.0144422 0.00423241)
(-0.00311326 -0.0141932 0.00412675)
(-0.00325979 -0.0145872 0.00431602)
(-0.00298476 -0.014068 0.00385768)
(-0.0034282 -0.0146992 0.00441724)
(-0.00307224 -0.0144635 0.00400806)
(-0.00308947 -0.0150472 0.00416473)
(-0.00296973 -0.0139157 0.00388287)
(-0.00357588 -0.0145847 0.00389156)
(-0.00340441 -0.014102 0.00380408)
(-0.00323656 -0.0138352 0.00372822)
(-0.00339344 -0.0137298 0.0037347)
(-0.0032212 -0.0138886 0.00377629)
(-0.00308242 -0.0137503 0.00383005)
(-0.00317002 -0.0136137 0.00366325)
(-0.00309219 -0.0138418 0.00379083)
(-0.00293041 -0.0135843 0.00376889)
(-0.00320013 -0.0138181 0.00380899)
(-0.00326996 -0.0139828 0.00371942)
(-0.00302339 -0.0136475 0.00376334)
(-0.00306314 -0.0136959 0.00360441)
(-0.00298612 -0.0135096 0.00370535)
(-0.00290223 -0.013613 0.00365531)
(-0.00308548 -0.0143419 0.00429762)
(-0.00310403 -0.0141013 0.00394863)
(-0.00318936 -0.0149654 0.00447277)
(-0.00296033 -0.0140812 0.00384915)
(-0.00309889 -0.0138191 0.00419974)
(-0.00303047 -0.0149277 0.0042373)
(-0.00277185 -0.0138897 0.00367803)
(-0.00297599 -0.013733 0.00363746)
(-0.0027161 -0.0132086 0.00344192)
(-0.00321773 -0.0131767 0.00391904)
(-0.00294313 -0.0133995 0.00358207)
(-0.00301621 -0.0133243 0.0036151)
(-0.00277853 -0.012641 0.00344191)
(-0.00284015 -0.0132558 0.00344817)
(-0.00268766 -0.0133454 0.00342852)
(-0.00295801 -0.0138739 0.00359756)
(-0.00289623 -0.013361 0.00374061)
(-0.00310243 -0.0141142 0.00401164)
(-0.00311865 -0.0137484 0.00427291)
(-0.00308703 -0.0141545 0.0037299)
(-0.00314924 -0.0144408 0.00400728)
(-0.0030382 -0.0134136 0.00403121)
(-0.0030072 -0.0137425 0.00387957)
(-0.00324354 -0.0138381 0.00399867)
(-0.00304952 -0.0140698 0.00391539)
(-0.00302128 -0.0139798 0.00435484)
(-0.00328179 -0.0138965 0.00373771)
(-0.00305918 -0.0135649 0.00366943)
(-0.00314157 -0.0135632 0.00354018)
(-0.00303961 -0.0133906 0.00350505)
(-0.00309773 -0.0143297 0.00424115)
(-0.00303955 -0.0139857 0.00373742)
(-0.00306253 -0.0132988 0.00355714)
(-0.00304751 -0.0137771 0.00374701)
(-0.00300313 -0.0138576 0.00355057)
(-0.00305315 -0.0132603 0.00346627)
(-0.00279639 -0.0131868 0.00335473)
(-0.00303023 -0.0135357 0.00371281)
(-0.00297293 -0.0140767 0.0039076)
(-0.00289231 -0.0138549 0.00372494)
(-0.00304542 -0.0138667 0.00399035)
(-0.00312798 -0.0140698 0.00421388)
(-0.00314557 -0.0139726 0.0039468)
(-0.00320206 -0.0145601 0.00455541)
(-0.00313469 -0.0133553 0.00388377)
(-0.00321984 -0.0141573 0.00423477)
(-0.00326432 -0.0138102 0.00397655)
(-0.00313107 -0.0146689 0.00397337)
(-0.00306865 -0.0134491 0.00341387)
(-0.00299768 -0.0139501 0.00389018)
(-0.00306773 -0.0136303 0.00377628)
(-0.00278222 -0.0135245 0.00377711)
(-0.00324313 -0.0135613 0.00346647)
(-0.00289455 -0.0136399 0.00372799)
(-0.00313764 -0.0138626 0.00369122)
(-0.00274137 -0.0126859 0.00385395)
(-0.00303208 -0.0130924 0.00351278)
(-0.00310666 -0.0138896 0.00389478)
(-0.00266532 -0.0130057 0.00407757)
(-0.00332819 -0.0139071 0.00414146)
(-0.00312261 -0.0142075 0.00409733)
(-0.00297408 -0.0136813 0.00422287)
(-0.00332425 -0.0148061 0.00477545)
(-0.00316861 -0.0141213 0.00416514)
(-0.00323721 -0.01402 0.00413368)
(-0.0030501 -0.0133461 0.00383038)
(-0.00306031 -0.0140323 0.00424526)
(-0.00311005 -0.0138566 0.00427375)
(-0.00315852 -0.0138523 0.00373867)
(-0.00303017 -0.0136202 0.00409249)
(-0.00311228 -0.01425 0.00404258)
(-0.00300485 -0.0142131 0.00407896)
(-0.00316395 -0.0145582 0.00420001)
(-0.00324993 -0.0136564 0.00408209)
(-0.00330105 -0.0143149 0.00432155)
(-0.0031731 -0.0145889 0.0040129)
(-0.00325988 -0.0145541 0.00413225)
(-0.00336304 -0.0144485 0.0044465)
(-0.00312355 -0.0146187 0.00402561)
(-0.00312576 -0.0143036 0.00384197)
(-0.00314776 -0.0144729 0.00405657)
(-0.00311714 -0.0137145 0.00401204)
(-0.00293874 -0.0138575 0.00370803)
(-0.00351424 -0.0141289 0.00391)
(-0.00351111 -0.0142038 0.00413307)
(-0.00303577 -0.0139795 0.00378852)
(-0.00346355 -0.0137566 0.00384361)
(-0.00325701 -0.0140617 0.00397529)
(-0.00337456 -0.0136951 0.00382689)
(-0.00340821 -0.0140235 0.00383235)
(-0.00338645 -0.0141315 0.00398433)
(-0.00320985 -0.0136073 0.00373027)
(-0.00325479 -0.0140394 0.00408601)
(-0.00325855 -0.0138921 0.00395011)
(-0.00309872 -0.0144162 0.00398477)
(-0.00317911 -0.0143424 0.00385195)
(-0.00336736 -0.0143242 0.00408404)
(-0.00340118 -0.0149406 0.00429041)
(-0.00315685 -0.0139283 0.00381841)
(-0.00326727 -0.0143714 0.00402663)
(-0.00337165 -0.0147485 0.00419682)
(-0.00333761 -0.0147715 0.00409837)
(-0.00325642 -0.014327 0.00394594)
(-0.0033567 -0.0141335 0.00386831)
(-0.00311917 -0.014265 0.00413578)
(-0.00321369 -0.0149565 0.00458083)
(-0.00291018 -0.0134408 0.00387533)
(-0.0032103 -0.0140131 0.00415487)
(-0.00319558 -0.0144511 0.00403421)
(-0.00302943 -0.0137927 0.00403079)
(-0.00297331 -0.0146008 0.00418807)
(-0.00284394 -0.0134953 0.0038139)
(-0.00308298 -0.0143841 0.0041131)
(-0.00320771 -0.0136856 0.00416184)
(-0.00347709 -0.0145151 0.00434588)
(-0.00301047 -0.0135279 0.0039971)
(-0.00339937 -0.0147689 0.0044204)
(-0.00360666 -0.0145152 0.00413905)
(-0.00333899 -0.014596 0.00414789)
(-0.00326666 -0.0145933 0.00411734)
(-0.00338492 -0.0139492 0.00395458)
(-0.00326641 -0.0142724 0.00409554)
(-0.00312743 -0.0147034 0.00429481)
(-0.00347969 -0.0140727 0.00427114)
(-0.0031715 -0.0140589 0.00394773)
(-0.00325085 -0.0143546 0.00394025)
(-0.00380495 -0.0145785 0.0042327)
(-0.00310536 -0.0141453 0.00393764)
(-0.00326393 -0.0137104 0.00387589)
(-0.0030788 -0.0146432 0.00406067)
(-0.00306301 -0.0144458 0.00400745)
(-0.00307666 -0.0134682 0.00364739)
(-0.00285171 -0.013638 0.00364062)
(-0.00348605 -0.014126 0.00399248)
(-0.00299617 -0.0145625 0.00393035)
(-0.00330551 -0.0147889 0.00410587)
(-0.00339459 -0.014311 0.00385922)
(-0.00333264 -0.0146286 0.00427334)
(-0.00319622 -0.0143638 0.00412059)
(-0.00326576 -0.0145781 0.00408604)
(-0.00324561 -0.0140336 0.004236)
(-0.00308807 -0.0141871 0.00425841)
(-0.00358993 -0.0147128 0.00392002)
(-0.00368569 -0.0148832 0.00404249)
(-0.0035277 -0.0151647 0.00412872)
(-0.00344138 -0.0150313 0.00412772)
(-0.00320682 -0.0146158 0.00394826)
(-0.00323596 -0.0146321 0.00418381)
(-0.00337456 -0.0145139 0.00397713)
(-0.00348969 -0.014939 0.00409085)
(-0.00363398 -0.0144925 0.00387101)
(-0.00338687 -0.0148973 0.00396372)
(-0.00331668 -0.0147976 0.00391752)
(-0.00329402 -0.0147167 0.0040004)
(-0.00327438 -0.0146846 0.00391185)
(-0.00343194 -0.0151914 0.00416596)
(-0.00323813 -0.0149968 0.0040854)
(-0.00317818 -0.0146156 0.00399697)
(-0.00312398 -0.0151593 0.00425584)
(-0.0032339 -0.0151035 0.004064)
(-0.00334054 -0.0152494 0.00424647)
(-0.00350149 -0.0152483 0.00410878)
(-0.00325612 -0.0146784 0.00399145)
(-0.00339533 -0.0146692 0.0039633)
(-0.0030993 -0.0147162 0.00415436)
(-0.00304885 -0.0145959 0.00428924)
(-0.00289196 -0.013864 0.0041681)
(-0.0032299 -0.0148329 0.00409432)
(-0.00307657 -0.0143141 0.00411952)
(-0.0033079 -0.0145617 0.0038706)
(-0.00339441 -0.0150772 0.00442983)
(-0.0030756 -0.0142825 0.00396411)
(-0.00320103 -0.014423 0.0041071)
(-0.00309233 -0.0143627 0.00401699)
(-0.00301623 -0.0142774 0.00407527)
(-0.00305017 -0.0143926 0.00406637)
(-0.00307624 -0.014495 0.0042415)
(-0.00323946 -0.0149642 0.00438639)
(-0.00305076 -0.0145119 0.00446313)
(-0.00295931 -0.0141612 0.00416304)
(-0.0033497 -0.0147113 0.00396761)
(-0.00335916 -0.0150524 0.00418074)
(-0.00348699 -0.0151991 0.00413107)
(-0.00309619 -0.0140603 0.00416946)
(-0.00348597 -0.0150212 0.00431829)
(-0.00336196 -0.015144 0.00430092)
(-0.00338234 -0.0143649 0.00415319)
(-0.0029541 -0.0141644 0.00385892)
(-0.00297998 -0.013571 0.00374796)
(-0.00344466 -0.0146831 0.00402188)
(-0.00322951 -0.0138299 0.0040411)
(-0.00316486 -0.0136828 0.00396741)
(-0.00334987 -0.0147533 0.00369509)
(-0.00338824 -0.0145696 0.0038989)
(-0.00301059 -0.0136736 0.00430345)
(-0.00314783 -0.0145326 0.00394791)
(-0.0034656 -0.0152046 0.00420514)
(-0.00309972 -0.0138425 0.00381462)
(-0.00326237 -0.0144278 0.00400508)
(-0.00298822 -0.0137251 0.00393813)
(-0.00315294 -0.0139788 0.00371768)
(-0.00310056 -0.0141793 0.00386078)
(-0.00295219 -0.0137523 0.00407018)
(-0.00318815 -0.0146706 0.00443716)
(-0.00318478 -0.0144203 0.00424542)
(-0.00338999 -0.0149107 0.00413919)
(-0.00338695 -0.0144118 0.00378386)
(-0.00331664 -0.015079 0.00432493)
(-0.00300404 -0.0143524 0.00416292)
(-0.00327058 -0.0148121 0.00413924)
(-0.00324484 -0.014339 0.00388847)
(-0.00318472 -0.0145909 0.00408522)
(-0.00329201 -0.0146824 0.00408973)
(-0.00337228 -0.0147397 0.00404239)
(-0.00353238 -0.0146681 0.00394304)
(-0.00339176 -0.0150944 0.00427478)
(-0.00346033 -0.0144821 0.00382168)
(-0.00333563 -0.0142468 0.00392067)
(-0.00345613 -0.0148821 0.00401139)
(-0.0035684 -0.0152801 0.00414869)
(-0.00346418 -0.0148905 0.003967)
(-0.00338831 -0.015081 0.00412775)
(-0.00331979 -0.014605 0.00392557)
(-0.00327984 -0.0145891 0.00396554)
(-0.0033662 -0.0145592 0.00399987)
(-0.00336847 -0.0147061 0.00383985)
(-0.00322949 -0.014682 0.00396779)
(-0.00321358 -0.0145605 0.0039012)
(-0.0034431 -0.0151416 0.0041272)
(-0.00289043 -0.0140221 0.00399409)
(-0.00295197 -0.0138634 0.00389644)
(-0.00291635 -0.0138058 0.00387235)
(-0.00284153 -0.0135488 0.00376823)
(-0.00296924 -0.0135114 0.00363265)
(-0.00302262 -0.014029 0.00390225)
(-0.00292481 -0.0136884 0.00393279)
(-0.0029521 -0.0139242 0.00378979)