/*--------------------------------*- C++ -*----------------------------------*\
| =========                 |                                                 |
| \\      /  F ield         | OpenFOAM: The Open Source CFD Toolbox           |
|  \\    /   O peration     | Version:  v1612+                                |
|   \\  /    A nd           | Web:      www.OpenFOAM.com                      |
|    \\/     M anipulation  |                                                 |
\*---------------------------------------------------------------------------*/
FoamFile
{
    version     2.0;
    format      ascii;
    class       volScalarField;
    location    "100";
    object      p;
}
// * * * * * * * * * * * * * * * * * * * * * * * * * * * * * * * * * * * * * //

dimensions      [0 2 -2 0 0 0 0];

internalField   nonuniform List<scalar> 
16860
(
0.991951
0.949459
0.952109
0.964731
0.958302
0.970042
0.995433
0.999918
0.989974
0.981208
0.968646
0.981175
0.99285
1.00529
1.0277
1.04077
1.00432
1.02079
1.02839
0.851833
0.840241
0.827378
0.841429
0.841388
0.849625
0.896803
0.89653
0.847048
0.866072
0.881314
0.872485
0.885058
0.850918
0.884539
0.857247
0.884987
0.875535
1.15482
1.15651
1.15532
1.17416
1.1752
1.16722
1.18598
1.13868
1.13529
1.17198
1.17783
1.18164
1.13311
1.13262
1.16242
1.0705
1.12035
1.05448
1.03816
1.11928
1.13926
1.13499
1.07462
1.06024
1.09051
1.14058
1.14783
1.10838
1.12627
1.13208
1.12432
1.02527
1.04713
1.00422
1.01143
1.05248
1.01831
1.01343
1.03271
1.02865
0.994618
0.855749
0.858789
0.856822
0.859927
0.856995
0.862012
0.863595
0.856045
0.863079
0.856356
0.852237
0.857825
0.861818
0.854675
0.857737
0.85634
0.838703
0.841125
0.839945
0.841397
0.844782
0.844696
0.845661
0.842705
0.845484
0.845811
0.838308
0.840741
0.841986
0.840777
0.84143
0.837531
0.847368
0.842554
0.845088
0.724148
0.712171
0.705554
0.720039
0.716488
0.72153
0.71626
0.695762
0.71568
0.670457
0.694464
0.665422
0.674682
0.696001
0.676962
0.746465
0.755151
0.759383
0.800761
0.793635
0.757744
0.76131
0.782575
0.787025
0.787256
0.801158
0.811212
0.784101
0.779318
0.877073
0.885009
0.868713
0.87972
0.858992
0.850824
0.840789
0.836998
0.865612
0.850429
0.868129
0.867348
0.859193
0.85795
0.88765
0.875809
0.881851
0.886619
0.594656
0.640635
0.642529
0.626052
0.65657
0.611835
0.613611
0.592718
0.612925
0.63831
0.676666
0.684775
0.675507
0.864831
0.857737
0.852792
0.866692
0.856374
0.861188
0.850944
0.854091
0.873807
0.871926
0.878204
0.86979
0.871602
0.853959
0.856438
0.871333
0.864762
0.85893
0.863499
0.879628
0.901529
0.893412
0.888582
0.886287
0.902046
0.892934
0.911604
0.8853
0.881931
0.878228
0.888365
0.902316
0.839697
0.842456
0.838119
0.842315
0.839734
0.832843
0.828775
0.826124
0.834333
0.840173
0.841618
0.835809
0.829962
0.836472
0.838399
0.835346
0.889435
0.905189
0.883299
0.880815
0.93192
0.922081
0.886183
0.870634
0.903456
0.886982
0.904224
0.902095
0.931916
0.906807
0.904788
0.870199
1.00311
1.00292
1.00924
0.999375
0.996441
0.940767
0.959193
0.991309
1.00205
0.985616
0.982304
0.97596
0.96729
0.966365
0.989957
0.9946
0.637683
0.621997
0.597863
0.698928
0.598901
0.633602
0.636973
0.619352
0.592016
0.652245
0.691181
0.57176
0.670407
0.661876
0.799642
0.78718
0.771182
0.786969
0.776743
0.775099
0.792867
0.765145
0.75126
0.737809
0.746829
0.750694
0.790504
0.759229
0.859733
0.86051
0.861589
0.860092
0.862304
0.862082
0.861362
0.859763
0.860435
0.857784
0.861049
0.857207
0.862476
0.861237
0.855241
0.859017
0.860879
0.861407
0.858138
0.841762
0.850928
0.844286
0.849252
0.855417
0.850969
0.860178
0.856402
1.00052
0.994811
0.988786
0.99182
0.961838
0.956936
0.948172
0.945214
0.992579
0.97909
0.965067
0.96575
0.977659
0.976108
0.983217
0.938382
0.946992
0.977805
0.955794
0.967977
0.811189
0.801394
0.829533
0.82849
0.825962
0.824193
0.792586
0.79631
0.80997
0.801789
0.811082
0.808087
0.797543
0.805598
0.806705
0.787886
0.792856
0.818886
0.805143
0.992873
0.963608
0.944506
0.948382
0.994029
1.02924
1.01665
1.04544
0.978998
1.04525
1.049
1.02933
1.06644
1.06379
1.06381
0.829618
0.835738
0.835083
0.827478
0.834511
0.824841
0.834096
0.813942
0.814915
0.82978
0.820096
0.819934
0.817588
0.819908
0.814959
0.808417
0.828013
0.829164
0.895551
0.897241
0.881996
0.878176
0.903519
0.903026
0.889459
0.883242
0.878504
0.881429
0.796588
0.803158
0.78941
0.807765
0.803836
0.800441
0.792284
0.806533
0.81435
0.80599
0.81002
0.826435
0.817089
0.824886
0.825156
0.829324
0.814812
0.819019
0.783379
0.873056
0.878624
0.855493
0.834958
0.899545
0.904934
0.898884
0.797674
0.899333
0.811091
0.816274
0.847656
0.850928
0.8712
0.823619
0.830979
0.797239
0.786131
0.794672
0.786014
0.797193
0.790725
0.806667
0.80838
0.78058
0.786291
0.782938
0.798717
0.801274
0.809899
0.799836
0.803873
0.817718
0.784519
0.778245
0.782325
0.793421
0.887255
0.895767
0.884174
0.894788
0.889297
0.892196
0.885646
0.881356
0.883548
0.879055
0.882422
0.8842
0.889707
0.887025
0.877946
0.873764
0.884101
0.871226
0.86396
0.882353
0.843909
0.833744
0.851675
0.861265
0.836021
0.867674
0.859716
0.869976
0.864983
0.836555
0.854365
0.846085
0.831375
0.842332
0.844535
0.840654
0.852711
0.821682
0.809405
0.802804
0.802944
0.827778
0.811663
0.793687
0.79948
0.812765
0.81838
0.789485
0.790762
0.811545
0.774448
0.859568
0.86312
0.857224
0.854341
0.849393
0.864287
0.851861
0.841101
0.856992
0.868779
0.872523
0.868851
0.853312
0.866531
0.857238
0.860755
0.857104
0.860599
0.849507
0.861312
0.85892
0.857346
0.857176
0.863635
0.86472
0.859467
0.862681
0.858706
0.986898
1.00814
0.96583
0.989447
1.00654
1.01428
0.998008
0.98252
0.948366
0.955832
1.00327
1.01498
0.955016
1.01347
0.960318
0.970806
0.99704
0.743842
0.760112
0.772811
0.752945
0.757826
0.724503
0.723314
0.780915
0.748303
0.76097
0.764682
0.749084
0.695363
0.703463
0.774402
0.716368
0.757135
0.718454
0.711837
0.745276
0.738839
0.76834
0.729919
0.848517
0.853043
0.844601
0.847569
0.845107
0.84788
0.851323
0.849395
0.852427
0.85221
0.849887
0.852035
0.846733
0.85754
0.899968
0.902767
0.891882
0.912452
0.88154
0.890777
0.888131
0.895821
0.884519
0.895522
0.900175
0.892627
0.888966
0.898226
0.852357
0.846675
0.84744
0.856181
0.855207
0.859187
0.850519
0.84696
0.876513
0.868891
0.867392
0.876032
0.845327
0.85863
0.915483
0.911107
0.918696
0.913851
0.860504
0.854779
0.856368
0.85949
0.856203
0.8496
0.854846
0.862425
0.860484
0.858834
0.855209
0.859175
0.860276
0.858748
0.858462
0.863246
0.863101
0.860611
0.856047
0.860048
0.860893
0.853728
0.852027
0.863035
0.86062
0.859233
0.861001
0.864722
0.855314
0.844587
0.848912
0.859906
0.860819
0.856872
0.842444
0.844202
0.855979
0.855789
0.853422
0.857579
0.849697
0.851809
0.850733
0.851396
0.84855
0.849084
0.852906
0.848276
0.852042
0.848723
0.853866
0.854948
0.851986
0.855816
0.849563
0.850824
0.850216
0.85182
0.854913
0.792934
0.783449
0.824084
0.814377
0.81801
0.783653
0.82758
0.741678
0.713933
0.779259
0.819434
0.888538
0.887403
0.88951
0.895853
0.921293
0.934667
0.913335
0.906655
0.916005
0.925596
0.933012
0.797978
0.796727
0.790326
0.782688
0.790839
0.770965
0.792783
0.774312
0.772722
0.787693
0.751241
0.755455
0.760179
0.767571
0.779339
0.759881
0.821825
0.813006
0.85138
0.855244
0.843062
0.811916
0.843035
0.836593
0.841634
0.798013
0.862157
0.809451
0.851095
0.817914
0.826671
0.803493
0.865687
0.867627
0.802101
0.855919
0.854206
0.827233
0.788585
0.798153
0.789223
0.80437
0.797577
0.810335
0.794994
0.794379
0.802547
0.788866
0.800614
0.808998
0.804819
0.804811
0.812331
0.812333
0.795766
0.783892
0.746711
0.732353
0.781836
0.779314
0.777998
0.752492
0.772057
0.744101
0.727847
0.781354
0.711838
0.702413
0.745007
0.702987
0.706185
0.676234
0.711892
0.719234
0.873465
0.86644
0.907112
0.908706
0.896445
0.887264
0.883271
0.887706
0.903204
0.856515
0.858807
0.873267
0.870751
0.853385
0.858914
0.863974
0.871869
0.872403
0.865149
0.861583
0.849225
0.868873
0.87468
0.858291
0.864857
0.837565
0.833649
0.828712
0.824859
0.833015
0.832735
0.822683
0.822984
0.836169
0.832418
0.822447
0.823039
0.836858
0.832557
0.750359
0.732894
0.740747
0.719343
0.708714
0.728058
0.711826
0.750021
0.68421
0.698625
0.701352
0.811588
0.818891
0.803842
0.802557
0.792343
0.801428
0.825697
0.802085
0.815575
0.807503
0.809082
0.809708
0.819288
0.822837
0.824307
0.796255
0.814533
0.806487
0.822846
0.818919
0.812154
0.813426
0.868841
0.871924
0.857921
0.855298
0.870366
0.866005
0.86494
0.866338
0.864606
0.867356
0.869477
0.875997
0.859101
0.721038
0.709621
0.719345
0.710156
0.724888
0.740191
0.753064
0.71994
0.708166
0.759257
0.755595
0.732974
0.725881
0.754975
0.745599
0.875967
0.88466
0.913279
0.904033
0.890236
0.897414
0.880397
0.879082
0.897618
0.908057
0.908742
0.911324
0.909833
0.918877
0.914034
0.902718
0.894075
0.897573
0.895223
0.995495
0.992402
0.986104
0.98924
0.989759
0.986767
0.98612
0.970743
0.99207
0.977858
0.970793
0.980569
0.976286
0.966639
0.939049
0.955532
0.941039
0.92638
0.982419
0.948103
0.940977
0.954713
0.860798
0.86595
0.867757
0.862362
0.871177
0.860565
0.849485
0.852744
1.06517
1.06519
1.07407
1.07473
1.08702
1.08336
1.09249
1.09553
1.09353
1.10427
1.07252
1.09397
1.10228
1.08566
0.827889
0.8609
0.897277
0.870869
0.811271
0.805121
0.83819
0.852282
0.816459
0.831832
0.813584
0.864113
0.888889
0.809107
0.833767
0.850227
0.880679
0.87509
0.915002
0.903003
0.906986
0.898911
0.887722
0.889727
0.901727
0.896179
0.898667
0.901838
0.888149
0.88222
0.8759
0.873687
0.89243
0.892397
0.888742
0.897433
0.890064
0.878425
0.879267
0.876285
0.887737
0.894836
0.854861
0.853021
0.85934
0.872445
0.874202
0.866032
0.913747
0.861589
0.86391
0.861095
0.863959
0.856449
0.854837
0.931966
0.932384
0.858047
0.85877
0.860713
0.901638
0.900466
0.902491
0.842593
0.842754
0.862031
0.858544
0.852028
0.853532
0.90664
0.906283
0.825421
0.825375
0.818546
0.901808
0.909145
0.907614
0.917661
0.856009
0.855466
0.832469
0.835885
0.842057
0.838263
0.88961
0.887974
0.848186
0.848387
0.843936
0.878742
0.867983
0.872258
0.794641
0.792156
0.907309
0.91109
0.855122
0.854983
0.793513
0.802127
0.889175
0.894037
0.834094
0.841072
0.749263
0.755952
0.890821
0.892312
0.762933
0.76919
0.715155
0.712396
0.831491
0.828436
0.916952
0.913174
0.918487
0.855817
0.854985
0.876558
0.883278
0.875621
0.901595
0.892685
0.790678
0.785126
0.703164
0.698463
0.799589
0.804832
0.817532
0.905968
0.91433
0.909318
0.652431
0.654833
0.633439
0.653306
0.861388
0.852505
0.856129
0.944948
0.944933
0.941863
0.937061
0.861449
0.842054
0.851233
0.909715
0.914082
0.734699
0.743413
0.694728
0.685715
0.675048
0.566422
0.576647
0.604158
0.904609
0.89608
0.625695
0.582983
0.586301
0.819307
0.817195
0.830185
0.96109
0.96488
0.956098
0.962613
0.864565
0.868089
0.856181
0.97523
0.976443
0.982209
0.976694
0.641485
0.597953
0.968106
0.972081
0.866246
0.87685
0.887953
0.735519
0.711348
0.756588
0.659768
0.659457
0.879615
0.965898
0.969054
0.800862
0.790542
0.767293
0.882382
0.889751
0.682096
0.669786
0.697073
0.842185
0.856531
0.878797
0.980435
0.992451
1
0.974812
0.798835
0.773779
0.765884
1.04728
1.03843
1.0323
0.8594
0.874586
1.07103
1.03875
1.05649
1.12047
1.13736
1.09388
1.10024
1.14428
1.14134
1.06012
1.05711
1.05215
1.06029
0.919445
0.910544
0.931199
0.887533
0.867845
1.02864
1.02554
1.02495
1.02296
1.01425
1.02031
0.988946
1.11734
1.12172
1.11427
1.10301
1.11395
1.12549
1.11415
1.11817
1.11223
1.11873
1.03789
1.08257
1.07268
1.08084
1.08751
1.08951
1.08497
1.08644
1.11257
1.09524
1.10466
1.09083
1.09502
1.09087
1.07985
1.10276
1.10049
1.08356
1.10083
1.08684
1.09859
1.09413
1.09681
1.09354
1.13525
1.11543
1.13451
1.10825
1.1052
1.1256
1.11305
0.946337
0.958996
0.94408
0.977397
0.953497
0.920664
0.945046
0.919317
0.897073
0.947386
1.03718
1.06953
1.07178
1.05476
1.03618
1.02113
0.991031
1.01136
1.02632
0.995789
0.998621
1.01811
0.999521
0.975419
0.985773
0.969167
1.01961
1.02497
1.02086
0.978986
0.981375
1.01529
1.01005
1.01137
1.01518
1.04423
1.04661
1.03482
1.04182
1.02865
0.996928
1.003
1.00687
1.0095
1.00189
0.988639
0.985998
1.02219
1.01905
1.02608
1.02238
1.04851
1.04208
1.02597
1.0221
1.04947
1.0259
1.04449
1.03474
1.03392
1.03087
1.03556
1.05346
0.799007
0.798634
0.996061
0.978129
1.0089
1.0094
0.967325
0.887394
0.893219
0.853203
0.886257
0.822518
0.815227
0.964779
0.98701
0.938125
0.929318
0.974347
1.04139
1.04133
1.04367
1.04462
1.07331
1.07085
1.07191
1.07274
1.07049
1.04863
1.04234
1.04609
1.06592
1.05707
1.06901
1.06157
1.04055
1.05979
1.06251
1.05049
1.17322
1.1788
1.17515
1.14441
1.14434
1.15417
1.16276
1.15696
1.12897
1.1307
1.00401
1.0156
1.01946
1.0219
0.995491
0.972874
1.0158
1.08634
1.10693
1.0821
1.10881
1.09541
1.10164
1.10788
1.09798
1.11278
1.08682
1.08432
1.09322
1.07384
1.08236
1.06239
1.04077
1.14291
1.15321
1.11124
1.1
1.14705
1.14674
1.11957
1.12678
1.08285
1.14659
1.13557
1.14503
1.13863
1.15077
1.16756
1.06849
1.08897
1.08497
1.10633
1.17371
1.18824
1.16233
1.16575
1.18302
1.15531
1.15677
1.13094
0.918659
0.90071
0.943938
0.987195
0.988978
0.951217
0.965785
0.956077
1.01141
1.00457
0.976591
0.947125
1.00645
1.01001
0.975658
0.942973
0.954193
0.994453
1.02415
1.04958
1.05033
1.00492
0.999691
1.01495
1.05349
1.04519
1.08664
1.04254
1.01638
1.09498
0.979885
0.969699
0.955932
0.950145
0.990689
1.00025
0.722401
0.719353
0.772973
0.795085
0.806806
0.946831
0.96033
0.994276
0.937272
0.94366
0.927032
0.899695
1.00923
1.02247
1.01702
1.02432
1.0212
1.07867
1.0725
1.0729
1.0772
1.06634
1.05679
1.0495
1.06258
1.08372
1.08607
1.08525
1.07256
1.06587
0.897031
0.713073
0.716286
0.73536
0.72234
0.726942
0.75916
0.727794
0.710505
0.771605
0.76451
0.787588
0.776403
0.749527
0.71018
0.718659
0.865055
0.840184
0.807481
0.769592
0.806655
0.802327
0.958888
0.958473
0.943272
0.962051
0.965253
0.99581
0.887777
0.890832
0.906092
0.902972
0.808483
0.808918
0.828096
0.827921
0.773066
0.790273
0.765907
0.799776
0.803484
0.792388
0.879849
0.905798
0.911307
0.852939
0.837954
0.891053
0.861119
0.660563
0.606321
0.604158
0.595807
0.648037
0.667832
0.641752
0.673043
0.640064
0.618394
0.65941
0.82094
0.826772
0.843101
0.871401
0.795199
0.774969
0.93302
0.94034
0.911178
0.904929
0.9499
0.918854
0.893849
0.922902
0.934174
0.927223
0.937881
0.89863
0.745156
0.743574
0.758332
0.754814
0.766253
0.814686
0.811618
0.799299
0.805351
0.8445
0.830063
0.798632
0.826962
0.809599
0.770713
0.754053
0.782924
0.768527
0.762135
0.78027
0.790164
0.788865
0.785426
0.785696
0.938772
0.939529
0.931442
0.937504
0.928673
0.932751
0.929422
0.943251
0.978933
0.96465
0.978734
0.968045
0.960458
0.965835
0.966484
0.985812
0.979588
0.979821
0.988861
0.972546
0.97768
0.972873
0.902265
0.89958
0.890223
0.894875
0.8543
0.837008
0.828946
0.834991
0.832595
0.861157
0.86816
0.90681
0.898115
0.697223
0.684642
0.614928
0.620834
0.607858
0.614448
0.650952
0.777055
0.761967
0.754531
0.785647
0.793453
0.796665
0.775556
0.765295
0.911689
0.90183
0.902909
0.892872
0.864615
0.872829
0.876984
0.886185
0.816779
0.832703
0.817643
0.860452
0.848916
0.836522
0.851404
0.824755
0.812384
0.841238
0.857934
0.835524
0.837342
0.818765
0.822923
0.961935
0.975583
0.965873
0.973232
0.98171
0.98332
0.978988
0.946282
0.93815
0.947273
0.954563
0.989811
0.980655
0.988935
0.975557
0.97653
0.966662
0.975112
0.992403
0.990361
0.985841
0.9771
0.932454
0.943385
0.93544
0.953338
0.939957
0.944174
0.947493
0.96413
0.952492
0.956452
0.958859
0.959151
0.96915
0.975693
0.96973
0.973404
0.973052
0.950098
0.938317
0.947811
0.9439
0.951903
0.956714
0.959908
0.943092
0.960089
0.958794
0.962591
0.961796
0.958301
0.955618
0.835624
0.831947
0.845605
0.846845
0.89559
0.894674
0.88672
0.89307
0.841347
0.841569
0.836357
0.856124
0.84758
0.857838
0.853748
0.838425
0.941694
0.943476
0.935976
0.942082
0.93485
0.932751
0.932904
0.93233
0.941948
0.928903
0.939852
0.94898
0.928908
0.932068
0.828282
0.829288
0.830525
0.793768
0.79891
0.874264
0.871867
0.874269
0.89889
0.900891
0.891733
0.89578
0.894238
0.664834
0.659355
0.668123
0.654928
0.65405
0.645904
0.632655
0.640442
0.514912
0.522183
0.574674
0.759274
0.747313
0.727993
0.81077
0.78833
0.821131
0.82421
0.781036
0.770255
0.680211
0.688728
0.700737
0.727809
0.68922
0.689351
0.883505
0.870439
0.885952
0.890716
0.894581
0.864709
0.859741
0.857399
0.878483
0.870988
0.915859
0.925932
0.926321
0.92903
0.916151
0.826537
0.822473
0.801028
0.811147
0.832362
0.831647
0.794726
0.795544
0.802119
0.842135
0.864468
0.855196
0.846778
0.844375
0.840867
0.913406
0.916427
0.908798
0.907569
0.905777
0.904885
0.927043
0.917627
0.932684
0.925202
0.926001
0.919214
0.92549
0.922618
0.926302
0.929985
0.920221
0.92386
0.916506
0.906095
0.918848
0.91333
0.929068
0.93949
0.931286
0.937261
0.936352
0.937178
0.933973
0.93268
0.929847
0.843605
0.838523
0.844049
0.84831
0.856774
0.842237
0.848869
0.856074
0.857386
0.850235
0.8506
0.8451
0.844014
0.848476
0.840264
0.839792
0.832069
0.839017
0.840248
0.845239
0.845811
0.840254
0.839064
0.698414
0.67712
0.711386
0.90782
0.901997
0.908601
0.898604
0.899314
0.906382
0.904638
0.912441
0.908503
0.912573
0.898824
0.894508
0.908511
0.905142
0.81017
0.81402
0.812989
0.808646
0.806158
0.806673
0.824237
0.814703
0.828919
0.744818
0.735379
0.723453
0.744819
0.754756
0.77183
0.779062
0.762754
0.753104
0.772372
0.762868
0.779168
0.78983
0.787729
0.802041
0.910861
0.905628
0.906885
0.904386
0.911345
0.913155
0.881934
0.885644
0.866333
0.863129
0.889598
0.886184
0.867266
0.866051
0.861191
0.865041
0.860873
0.861958
0.859726
0.868353
0.873262
0.873213
0.872432
0.874296
0.878517
0.869982
0.866691
0.869469
0.8631
0.860616
0.867501
0.881866
0.888049
0.878529
0.878924
0.87516
0.870308
0.875907
0.886758
0.88512
0.853149
0.853932
0.853573
0.854102
0.849087
0.854536
0.854663
0.849473
0.909737
0.907431
0.897415
0.904796
0.910811
0.911804
0.93023
0.925667
0.929893
0.922959
0.922751
0.917678
0.921335
0.917514
0.921369
0.916515
0.926816
0.91713
0.834987
0.836826
0.840664
0.838042
0.836604
0.837043
0.835534
0.757729
0.749525
0.732509
0.732056
0.737388
0.727026
0.808859
0.790409
0.779142
0.804149
0.809231
0.795724
0.799188
0.881795
0.869457
0.87953
0.883344
0.86886
0.877302
0.880047
0.875623
0.875835
0.883634
0.893623
0.893439
0.8815
0.885464
0.888215
0.889818
0.804252
0.785858
0.78956
0.792422
0.781285
0.769864
0.781376
0.782904
0.789426
0.869227
0.857549
0.855075
0.827504
0.807359
0.820387
0.845174
0.84353
0.839295
0.835554
0.803596
0.800602
0.837268
0.834863
0.83983
0.897847
0.901209
0.905809
0.892389
0.889097
0.894758
0.909745
0.897261
0.909347
0.897398
0.89367
0.897836
0.888145
0.886323
0.894835
0.895037
0.806921
0.81705
0.819002
0.821631
0.83454
0.83467
0.816791
0.825283
0.835747
0.804987
0.811302
0.820031
0.812514
0.854076
0.850872
0.854405
0.855468
0.856027
0.85063
0.849393
0.853714
0.853606
0.86515
0.858536
0.858341
0.863268
0.858678
0.863122
0.85915
0.852986
0.855866
0.855601
0.856477
0.855306
0.855787
0.852791
0.85363
0.857272
0.855692
0.857718
0.861423
0.8621
0.903719
0.90615
0.833169
0.820817
0.820045
0.808196
0.806527
0.813085
0.810107
0.804321
0.792081
0.761808
0.752393
0.76881
0.774161
0.770015
0.781382
0.767818
0.763576
0.792432
0.795148
0.784979
0.773327
0.758616
0.785993
0.782134
0.781033
0.869659
0.856549
0.858206
0.860757
0.866638
0.861243
0.858785
0.860653
0.86228
0.862351
0.849996
0.852652
0.850472
0.850142
0.854528
0.855991
0.889633
0.887955
0.881007
0.873058
0.879052
0.890875
0.894063
0.897042
0.896909
0.893416
0.905818
0.897709
0.902233
0.902
0.901726
0.903571
0.894974
0.891205
0.898294
0.889601
0.907229
0.892828
0.902056
0.901162
0.895474
0.900325
0.900036
0.887558
0.904963
0.891646
0.890305
0.901278
0.896381
0.89618
0.878337
0.89396
0.868055
0.876256
0.840359
0.827943
0.835314
0.846104
0.839565
0.844613
0.836132
0.838553
0.841822
0.840557
0.847539
0.818447
0.818301
0.832498
0.820139
0.819483
0.830529
0.828028
0.852962
0.85286
0.857416
0.85242
0.853432
0.854023
0.856772
0.85665
0.861221
0.860758
0.858094
0.857343
0.854584
0.854506
0.856817
0.854794
0.855504
0.856542
0.854911
0.854211
0.853964
0.856767
0.86139
0.857701
0.860473
0.85794
0.922363
0.909435
0.928177
0.920153
0.911061
0.902117
0.919195
0.90655
0.905933
0.900885
0.90788
0.902331
0.903635
0.900114
0.896481
0.914189
0.907094
0.824122
0.925979
0.913139
0.912691
0.920209
0.905153
0.856603
0.856534
0.857299
0.855917
0.8578
0.855386
0.854686
0.856084
0.856688
0.856764
0.855323
0.854871
0.874448
0.874531
0.867277
0.853611
0.858016
0.860791
0.851807
0.858041
0.8564
0.854875
0.857678
0.862823
0.858876
0.853742
0.856787
0.859117
0.83507
0.848761
0.841379
0.858105
0.87551
0.853334
0.845681
0.856805
0.855911
0.851501
0.85151
0.857902
0.851839
0.846199
0.838791
0.841309
0.849015
0.851131
0.850141
0.844482
0.837413
0.850146
0.852288
0.838872
0.838399
0.834381
0.832752
0.899346
0.89112
0.903911
0.904779
0.896827
0.884727
0.892067
0.889981
0.897256
0.880779
0.880682
0.895494
0.894898
0.860423
0.86326
0.859868
0.860074
0.862185
0.858473
0.862259
0.859021
0.859168
0.85876
0.860335
0.859869
0.859455
0.858473
0.854269
0.858845
0.85559
0.855115
0.856425
0.85791
0.856928
0.857901
0.857899
0.856593
0.860964
0.860038
0.822977
0.827519
0.919243
0.904506
0.921284
0.910039
0.908299
0.90628
0.899926
0.861929
0.856661
0.857528
0.859086
0.860543
0.85646
0.856896
0.859357
0.854207
0.856097
0.924762
0.925387
0.920746
0.907045
0.894462
0.911717
0.908451
0.903153
0.924312
0.928404
0.923204
0.920068
0.843336
0.843321
0.845879
0.845323
0.83322
0.864233
0.861859
0.863383
0.861714
0.861621
0.860092
0.860368
0.859656
0.860926
0.860458
0.908891
0.903531
0.90832
0.902487
0.932089
0.92901
0.930511
0.931804
0.846772
0.864297
0.857361
0.885885
0.879091
0.886708
0.88991
0.880888
0.87803
0.895396
0.898967
0.857763
0.858475
0.863525
0.860269
0.850611
0.855644
0.853376
0.852453
0.853523
0.85636
0.846157
0.863792
0.865419
0.860767
0.86597
0.862402
0.863239
0.863176
0.86262
0.871833
0.864409
0.878838
0.863912
0.86342
0.882242
0.883195
0.85164
0.847502
0.89155
0.867719
0.875746
0.882395
0.88336
0.889078
0.896917
0.89777
0.880815
0.906841
0.85636
0.85747
0.86651
0.857941
0.858702
0.86271
0.85214
0.855007
0.854476
0.859484
0.855579
0.856891
0.854161
0.857079
0.860545
0.857312
0.890067
0.865057
0.891012
0.881148
0.892778
0.893859
0.879723
0.868664
0.901455
0.89043
0.900394
0.89806
0.89678
0.904174
0.899696
0.910926
0.898782
0.899535
0.909321
0.895259
0.907943
0.911102
0.898026
0.904158
0.8938
0.898111
0.90433
0.905407
0.891245
0.899804
0.895141
0.897109
0.90038
0.899872
0.883833
0.889264
0.893563
0.891642
0.855937
0.859608
0.861303
0.862189
0.863032
0.856091
0.859976
0.856229
0.858296
0.855136
0.850426
0.859358
0.862583
0.784943
0.789978
0.804619
0.79767
0.80235
0.810969
0.798168
0.801844
0.88988
0.887116
0.876775
0.883165
0.878208
0.884983
0.893597
0.887061
0.877912
0.882241
0.890621
0.892401
0.887485
0.898844
0.889985
0.895472
0.897956
0.848276
0.84666
0.846341
0.851967
0.853211
0.850981
0.852007
0.853418
0.852973
0.851518
0.857557
0.853285
0.864194
0.864769
0.841551
0.824135
0.84053
0.848577
0.840205
0.921869
0.917365
0.938314
0.940613
0.934901
0.917645
0.893173
0.898347
0.895594
0.890256
0.898847
0.904335
0.895293
0.886843
0.906502
0.896385
0.899091
0.909967
0.700051
0.727313
0.724049
0.724127
0.700139
0.733289
0.744623
0.741072
0.735059
0.712421
0.717777
0.881463
0.878646
0.879612
0.889814
0.877621
0.889951
0.892182
0.890327
0.88693
0.758521
0.771573
0.7583
0.76877
0.782369
0.955126
0.933033
0.956299
0.954982
0.957602
0.951979
0.933878
0.934178
0.959501
0.943697
0.951184
0.950939
0.937011
0.951434
0.94483
0.981656
0.963903
0.98689
0.968872
0.967629
0.982077
0.971943
0.981699
0.972399
0.861626
0.88668
0.850718
0.843543
0.871008
0.879757
0.900834
0.870434
0.860557
0.589554
0.579154
0.616059
0.632832
0.603482
0.635318
0.606805
0.612494
0.551258
0.92129
0.907307
0.897342
0.940229
0.918445
0.9125
0.930127
0.922239
0.843277
0.857554
0.855596
0.867853
0.862862
0.853026
0.87528
0.881786
0.918441
0.920632
0.914438
0.898036
0.929657
0.929543
0.918332
0.917121
0.924898
0.894301
0.902116
0.90708
0.918529
0.90553
0.908808
0.903631
0.894494
0.889004
0.897008
0.917363
0.87833
0.864768
0.880422
0.886803
0.887886
0.87803
0.87466
0.840455
0.844246
0.893819
0.892217
0.857155
0.847149
0.801319
0.808815
0.812475
0.802294
0.825046
0.818723
0.830898
0.711465
0.751302
0.722831
0.729425
0.716992
0.726132
0.9289
0.940209
0.923777
0.944292
0.956008
0.948543
0.917392
0.909179
0.926427
0.924384
0.778079
0.791302
0.839653
0.804236
0.832473
0.825178
0.846456
0.798493
0.822529
0.82797
0.80843
0.940746
0.946622
0.964138
0.975789
0.957893
0.960681
0.953814
0.961512
0.949842
0.977955
0.975982
0.96908
0.969285
1.0023
0.979823
0.77903
0.877414
0.853109
0.829807
0.80846
0.860657
0.804804
0.869624
0.853252
0.656037
0.717107
0.641004
0.615111
0.685868
0.640405
0.657806
0.635427
1.0137
1.04015
1.04236
1.02693
1.00467
1.02582
1.03384
1.04508
1.05663
0.890357
0.882451
0.91179
0.892286
0.936262
0.940808
0.908762
0.89491
0.934633
0.91371
0.934895
0.764598
0.767899
0.761591
0.733683
0.766734
0.708995
0.702553
0.742016
0.717015
0.702842
1.0106
0.983289
1.03727
0.963771
1.0016
1.0237
1.01979
1.01012
0.985084
1.13548
1.11902
1.08809
1.05939
1.09936
1.07471
1.19306
1.1881
1.19031
1.18088
1.1609
1.06567
1.08586
1.07407
1.07167
1.04619
1.04948
1.02747
1.04649
1.18055
1.17418
1.15445
1.17796
1.14447
1.16093
1.15925
1.15416
1.14752
1.16149
1.16406
1.1491
1.13453
1.13347
1.1116
1.13068
1.12871
1.10573
1.11133
1.10121
1.12445
1.10438
1.07083
1.05843
1.05628
1.06753
1.03376
1.07903
1.04091
1.01136
1.00774
0.992926
0.965971
0.99369
0.983165
1.00763
1.00189
1.13669
1.14588
1.18996
1.17258
1.13896
1.16167
1.17167
1.14721
1.17889
1.16317
1.01826
1.04185
1.0389
1.03816
1.03562
1.03616
1.04122
1.03258
1.0458
1.02795
1.05486
1.04443
1.04288
1.05621
1.05487
1.0461
1.04557
1.02393
1.05468
1.04688
1.03144
1.03493
1.02568
1.02313
1.01151
1.00652
1.03335
1.03376
1.02747
1.0227
1.02733
1.03051
1.01437
0.969312
0.978123
0.996377
0.973734
1.00114
0.997973
0.997469
0.999481
0.992434
0.972023
0.992544
1.01194
1.00401
1.01651
1.01084
1.01248
1.01134
0.997056
1.0181
1.0161
1.07007
1.07133
1.07815
1.0856
1.06232
1.10551
1.09642
1.06733
0.911902
0.883669
0.872098
0.936037
0.939924
0.941424
0.936479
0.892737
0.886339
0.923542
0.904265
0.893276
1.12189
1.15033
1.14587
1.13263
1.15208
1.1398
1.1513
1.14393
1.15162
1.14453
1.15252
1.13152
1.13335
1.14897
1.10219
1.12103
1.12515
1.10651
1.11598
1.11213
1.1289
1.12769
1.1116
1.08986
1.08834
1.08945
1.1013
1.09726
1.07574
1.1021
1.08675
1.07619
1.07907
1.08363
1.09089
1.07571
1.16866
1.15793
1.15382
1.14375
1.16405
1.13932
1.16247
1.12338
1.11466
1.12696
1.12459
1.12672
1.14548
1.11038
1.10011
1.15288
1.1404
1.03657
1.02389
1.01512
1.03684
1.01573
0.981798
1.00311
1.02992
1.04149
1.05094
1.05277
0.520617
0.527261
0.591847
0.542469
0.597289
0.54795
0.569523
0.614087
0.631219
0.805523
0.8167
0.795583
0.809084
0.816748
0.802073
0.799096
0.784131
0.78207
0.78784
0.811114
0.822556
0.700467
0.697236
0.694274
0.710081
0.690523
0.730718
0.743152
0.715503
0.684653
0.653945
0.696595
0.709598
0.659308
0.654967
0.701105
0.698321
0.6289
0.612079
0.667309
0.651991
0.652062
0.595315
0.65194
0.681722
0.694518
0.646745
0.664024
0.659057
0.613253
0.707548
0.666093
1.08398
1.11462
1.09986
1.12032
1.11059
1.11561
1.09942
1.1253
1.11675
1.12372
1.10278
1.11553
1.11628
1.12425
1.1227
1.05117
1.0664
1.04881
1.03534
1.03244
1.00892
1.02408
1.07162
1.06506
1.06113
1.05366
1.04614
1.04644
1.02371
1.06981
1.07012
1.00678
1.00507
0.990978
1.02231
1.00451
1.01141
0.995055
1.00616
0.99773
0.920225
0.899582
0.876581
0.91745
0.923453
0.944783
0.960169
0.941385
0.953246
0.967892
0.953732
0.957051
1.04917
1.04201
1.03676
1.04396
1.04298
1.08275
1.0754
1.06338
1.07721
1.08099
1.07687
1.05942
1.0544
1.06203
1.07564
1.0441
1.01752
1.03639
1.03739
1.02884
0.942333
0.930752
1.00289
1.04017
1.00594
1.05411
0.980749
0.990354
0.751218
0.962463
0.993357
0.9853
0.989926
1.01003
1.08366
1.07248
1.07167
1.08019
1.05138
1.07741
1.0833
1.08157
0.954846
0.933064
0.949372
0.883605
0.925588
0.911578
0.889609
0.911264
0.951495
0.968391
0.924645
0.881292
0.694039
0.712375
0.697696
0.726054
0.943972
0.935648
0.958595
0.951184
0.955857
0.962012
0.929654
0.91286
0.942121
0.933512
1.01977
1.00737
0.996272
0.868682
0.901195
0.944847
0.870708
0.9253
0.949999
0.967492
0.900971
0.883427
0.883683
0.920022
0.907118
0.921111
0.910433
0.900463
0.708565
0.682528
0.674733
0.713624
0.693733
0.696793
0.678299
0.699464
0.709095
0.742571
0.674546
0.641878
0.691138
0.71156
0.67028
0.669061
0.704009
0.6691
0.604024
0.550116
0.874189
0.88756
0.891401
0.859821
0.857352
0.819222
0.862834
0.866898
0.873521
0.840313
0.864438
0.856667
0.829609
0.856871
0.832206
0.765677
0.774441
0.992306
0.997065
0.979765
1.01488
1.00715
1.00512
1.00038
1.01966
1.01293
1.01373
0.903617
0.925449
0.93125
0.927657
0.92712
0.914439
0.9205
0.694563
0.727688
0.728574
0.724719
0.743273
0.746671
0.744798
0.751474
0.675455
0.67465
0.624777
0.619086
0.6488
0.654862
0.680262
0.617557
0.785246
0.797533
0.807917
0.921891
0.901142
0.909802
0.901913
0.887285
0.914264
0.88676
0.876424
0.884884
0.878581
0.872933
0.872452
0.888684
0.860834
0.869442
0.893884
0.893548
0.828429
0.819967
0.810214
0.822258
0.823115
0.824232
0.81398
0.827388
0.831332
0.835454
0.83477
0.825149
0.830759
0.81309
0.817971
0.778182
0.787886
0.783868
0.785125
0.773085
0.806955
0.80476
0.797364
0.805709
0.799677
0.802273
0.808732
0.866743
0.849188
0.865435
0.862644
0.865419
0.871514
0.856808
0.85491
0.869017
0.872899
0.869785
0.871919
0.65073
0.686961
0.670235
0.657163
0.67456
0.781328
0.777277
0.786837
0.793412
0.77957
0.770654
0.804665
0.791689
0.784935
0.76561
0.770303
0.807519
0.801771
0.836271
0.86573
0.844683
0.847326
0.854056
0.82258
0.817756
0.837795
0.854325
0.834735
0.831277
0.69999
0.767656
0.715261
0.745218
0.699711
0.717149
0.721001
0.710824
0.756514
0.732689
0.811719
0.798711
0.77991
0.772545
0.749871
0.758383
0.758665
0.773794
0.79285
0.799866
0.740047
0.747596
0.840284
0.907282
0.922118
0.922128
0.820836
0.82978
0.834069
0.860569
0.870473
0.853209
0.863571
0.861239
0.862556
0.861852
0.735883
0.772054
0.779845
0.7418
0.748899
0.728213
0.754179
0.931127
0.910582
0.931936
0.93154
0.932208
0.929081
0.93772
0.92666
0.923383
0.913301
0.929234
0.918586
0.925249
0.935621