/*--------------------------------*- C++ -*----------------------------------*\
| =========                 |                                                 |
| \\      /  F ield         | OpenFOAM: The Open Source CFD Toolbox           |
|  \\    /   O peration     | Version:  v1612+                                |
|   \\  /    A nd           | Web:      www.OpenFOAM.com                      |
|    \\/     M anipulation  |                                                 |
\*---------------------------------------------------------------------------*/
FoamFile
{
    version     2.0;
    format      ascii;
    class       volVectorField;
    location    "100";
    object      U;
}
// * * * * * * * * * * * * * * * * * * * * * * * * * * * * * * * * * * * * * //

dimensions      [0 1 -1 0 0 0 0];

internalField   nonuniform List<vector> 
16860
(
(0.514249 0.437234 0.42256)
(0.725257 0.525853 0.184644)
(0.739544 0.568208 0.243918)
(0.735295 0.567404 0.220151)
(0.760691 0.510743 0.165357)
(0.757505 0.480968 0.158824)
(0.748355 0.474502 0.154561)
(0.762014 0.484368 0.215982)
(0.725657 0.470189 0.246692)
(0.73106 0.430424 0.197841)
(0.749193 0.527928 0.236644)
(0.726893 0.530962 0.273339)
(0.758799 0.524683 0.270391)
(0.739833 0.488376 0.297711)
(0.739133 0.413126 0.201491)
(0.681228 0.36808 0.178148)
(0.752292 0.439572 0.161508)
(0.733209 0.489727 0.259589)
(0.734321 0.471167 0.237032)
(0.592452 0.724588 0.498003)
(0.624402 0.711106 0.50818)
(0.591597 0.697056 0.47787)
(0.680908 0.756171 0.563213)
(0.678732 0.766775 0.542329)
(0.694741 0.750894 0.544242)
(0.676206 0.702573 0.549742)
(0.674485 0.71521 0.540185)
(0.663506 0.760248 0.58727)
(0.673486 0.741663 0.54645)
(0.650955 0.701429 0.551389)
(0.689194 0.73103 0.546673)
(0.670607 0.707724 0.541206)
(0.634141 0.73325 0.594168)
(0.663942 0.723012 0.59229)
(0.667971 0.7595 0.588489)
(0.681265 0.733848 0.572585)
(0.668791 0.718007 0.581965)
(0.541851 0.319067 0.0532731)
(0.473009 0.291699 0.0224651)
(0.544851 0.336686 0.0423939)
(0.522902 0.310326 0.0161501)
(0.498577 0.285761 -0.0149432)
(0.532073 0.307745 0.0626058)
(0.477298 0.286987 0.0204335)
(0.639001 0.401142 0.0699378)
(0.658766 0.380633 0.079776)
(0.584008 0.270709 0.00605749)
(0.516721 0.221495 -0.0153769)
(0.478269 0.272598 -0.00744797)
(0.685595 0.396793 0.0667612)
(0.695437 0.375468 0.0620756)
(0.597285 0.3239 0.0337761)
(0.76212 0.258955 -0.191526)
(0.740219 0.271581 -0.158874)
(0.766203 0.329015 -0.100748)
(0.756731 0.300833 -0.153628)
(0.690746 0.159058 -0.230634)
(0.683684 0.217894 -0.124974)
(0.698791 0.24264 -0.117845)
(0.754101 0.309568 -0.124592)
(0.750944 0.292021 -0.18452)
(0.711368 0.226265 -0.210498)
(0.667522 0.177525 -0.115305)
(0.656823 0.175071 -0.135596)
(0.672174 0.148631 -0.145676)
(0.64983 0.126361 -0.174621)
(0.651332 0.12336 -0.188867)
(0.704709 0.197959 -0.133154)
(0.723992 0.36782 0.116783)
(0.653665 0.272671 0.0849485)
(0.698453 0.377431 0.100117)
(0.66522 0.300619 0.0983218)
(0.630646 0.280024 0.141569)
(0.660795 0.341797 0.13015)
(0.626225 0.281642 0.0895902)
(0.606016 0.244702 0.119521)
(0.668197 0.358928 0.178921)
(0.724809 0.44456 0.222905)
(0.225461 0.261496 0.125889)
(0.223935 0.240322 0.125341)
(0.211049 0.228198 0.0973489)
(0.203061 0.204732 0.0831767)
(0.264674 0.285986 0.167203)
(0.290125 0.252816 0.116006)
(0.308145 0.283685 0.133976)
(0.235555 0.218144 0.0849589)
(0.212582 0.218723 0.0938377)
(0.327267 0.378333 0.234323)
(0.290565 0.349163 0.20296)
(0.257852 0.246719 0.135478)
(0.272325 0.28161 0.131553)
(0.326764 0.382721 0.207826)
(0.333071 0.383402 0.231764)
(0.279641 0.307485 0.172291)
(0.144753 0.213491 0.14705)
(0.12546 0.18538 0.100093)
(0.143844 0.225904 0.170983)
(0.133721 0.200755 0.140767)
(0.126194 0.189042 0.128817)
(0.133784 0.202758 0.153008)
(0.142201 0.211764 0.142964)
(0.138305 0.227262 0.165129)
(0.129547 0.182449 0.095993)
(0.156023 0.232145 0.140775)
(0.154135 0.262308 0.184833)
(0.149151 0.252975 0.202925)
(0.146457 0.257401 0.197717)
(0.152301 0.260274 0.183553)
(0.126224 0.173735 0.0778196)
(0.146655 0.221735 0.129193)
(0.148617 0.210252 0.108106)
(0.141761 0.21342 0.0978425)
(0.151445 0.231836 0.117909)
(0.756271 0.562647 0.603847)
(0.76426 0.504874 0.629444)
(0.783768 0.528385 0.619991)
(0.778745 0.54981 0.61937)
(0.694489 0.592147 0.584233)
(0.632975 0.554628 0.579157)
(0.742815 0.502826 0.622656)
(0.779977 0.597265 0.604748)
(0.700907 0.598278 0.582515)
(0.755293 0.513186 0.642303)
(0.719735 0.51238 0.641445)
(0.794282 0.583529 0.620785)
(0.802403 0.516801 0.617439)
(0.75186 0.486196 0.651121)
(0.782703 0.506159 0.628633)
(0.714269 0.789282 0.551448)
(0.679654 0.762468 0.55837)
(0.612465 0.697262 0.48025)
(0.557784 0.694324 0.49093)
(0.647706 0.777406 0.538322)
(0.702484 0.784934 0.534962)
(0.710632 0.792977 0.557597)
(0.527517 0.699008 0.442694)
(0.670862 0.767074 0.571059)
(0.577457 0.701355 0.473044)
(0.554489 0.692675 0.506424)
(0.677364 0.774499 0.579971)
(0.486632 0.673057 0.454247)
(0.66976 0.765373 0.550985)
(0.49232 0.357103 0.00112504)
(0.499404 0.333224 0.00868097)
(0.538206 0.408547 0.049411)
(0.569679 0.41064 0.105633)
(0.518092 0.452909 0.0796007)
(0.538933 0.497897 0.117206)
(0.489541 0.443037 0.0926483)
(0.507049 0.475914 0.121007)
(0.470952 0.407447 0.0953461)
(0.486149 0.422988 0.071868)
(0.441995 0.348097 -0.00666002)
(0.449625 0.321998 -0.000276213)
(0.517208 0.431841 0.112208)
(0.577639 0.456644 0.158242)
(0.486759 0.324193 0.0325315)
(0.521965 0.399448 0.115541)
(0.524395 0.383629 0.124395)
(0.494746 0.37625 0.0945346)
(0.53762 0.669411 0.131424)
(0.537611 0.65363 0.249079)
(0.375778 0.584942 -0.0426057)
(0.382023 0.582454 -0.10755)
(0.442103 0.615681 0.189358)
(0.429415 0.605322 0.00334235)
(0.555099 0.655577 0.320221)
(0.449925 0.622572 -0.0197789)
(0.403443 0.598609 -0.106213)
(0.399274 0.576998 -0.0802729)
(0.429375 0.592203 0.122603)
(0.505791 0.630548 0.25596)
(0.393764 0.594874 0.154561)
(0.246032 0.517392 0.583529)
(0.264182 0.532198 0.574985)
(0.325815 0.550365 0.628253)
(0.314665 0.528601 0.611194)
(0.251062 0.529786 0.576609)
(0.233124 0.521835 0.583107)
(0.370665 0.5875 0.654314)
(0.342712 0.561228 0.631012)
(0.29065 0.530637 0.654428)
(0.32534 0.5685 0.689644)
(0.393737 0.593593 0.732303)
(0.323287 0.553086 0.675186)
(0.391014 0.583915 0.714979)
(0.364921 0.573843 0.663712)
(0.398374 0.581691 0.677459)
(0.368938 0.585074 0.711883)
(0.383369 0.589129 0.722405)
(0.315606 0.542431 0.651699)
(0.401097 0.588399 0.718368)
(0.410134 0.672772 0.730357)
(0.464914 0.714699 0.779827)
(0.500794 0.692044 0.810736)
(0.451759 0.66357 0.785652)
(0.489842 0.685443 0.816237)
(0.52415 0.706948 0.839615)
(0.480392 0.718979 0.791179)
(0.559546 0.765656 0.86657)
(0.403807 0.644863 0.738494)
(0.381703 0.627443 0.733189)
(0.436008 0.672226 0.758574)
(0.457177 0.67808 0.79176)
(0.53871 0.699791 0.84938)
(0.168553 0.236694 0.324063)
(0.174772 0.24003 0.341826)
(0.191711 0.248601 0.390761)
(0.15281 0.213457 0.271984)
(0.15185 0.199259 0.276214)
(0.181167 0.255997 0.346467)
(0.198787 0.268138 0.396494)
(0.2077 0.235967 0.37941)
(0.20703 0.207301 0.367792)
(0.196484 0.211946 0.362111)
(0.164538 0.196738 0.290242)
(0.187612 0.202448 0.309887)
(0.196008 0.227206 0.342158)
(0.16557 0.209608 0.274519)
(0.170925 0.190715 0.269129)
(0.181621 0.236581 0.322831)
(0.638825 0.612996 0.144608)
(0.603929 0.608745 0.186601)
(0.637223 0.663113 0.175931)
(0.723162 0.744858 0.309435)
(0.61614 0.585422 0.112367)
(0.585041 0.602295 0.170709)
(0.697157 0.693795 0.322126)
(0.774417 0.728697 0.310877)
(0.719085 0.699393 0.2558)
(0.707634 0.721226 0.419108)
(0.736804 0.710278 0.397037)
(0.723834 0.750881 0.408095)
(0.751157 0.721552 0.381587)
(0.673401 0.633062 0.193296)
(0.738814 0.711202 0.370631)
(0.72226 0.719015 0.353475)
(0.459974 0.474454 0.145849)
(0.432077 0.471474 0.105076)
(0.506848 0.513642 0.178473)
(0.451172 0.483787 0.0707903)
(0.399214 0.442268 0.0420937)
(0.589636 0.588696 0.186961)
(0.52561 0.564414 0.173725)
(0.496616 0.521558 0.208003)
(0.614713 0.597384 0.289502)
(0.457354 0.48682 0.0636839)
(0.477953 0.489205 0.0877009)
(0.497248 0.521095 0.11518)
(0.417725 0.478774 0.0623697)
(0.577022 0.574593 0.245865)
(0.645266 0.609403 0.309295)
(0.621492 0.613201 0.248482)
(0.764956 0.58926 0.591854)
(0.735982 0.56221 0.646824)
(0.827636 0.608822 0.590564)
(0.616976 0.599391 0.540816)
(0.783409 0.691015 0.455686)
(0.700893 0.637228 0.482251)
(0.748691 0.639581 0.554066)
(0.702273 0.598438 0.607506)
(0.740627 0.610225 0.603915)
(0.719504 0.577994 0.581832)
(0.638137 0.645438 0.553171)
(0.842661 0.664901 0.539388)
(0.632888 0.654478 0.498644)
(0.740406 0.719521 0.41935)
(0.642336 0.763421 0.583262)
(0.675182 0.744435 0.599895)
(0.649145 0.727532 0.569704)
(0.670564 0.766473 0.584858)
(0.70902 0.756965 0.580016)
(0.5505 0.65029 0.496264)
(0.534313 0.669804 0.496691)
(0.709194 0.748529 0.589905)
(0.68422 0.759274 0.598076)
(0.691366 0.759689 0.547888)
(0.5911 0.677566 0.472447)
(0.70794 0.780259 0.574944)
(0.510737 0.65378 0.463428)
(0.563933 0.656367 0.478338)
(0.146173 0.240114 0.301875)
(0.138229 0.248186 0.302361)
(0.141786 0.246299 0.260591)
(0.1435 0.234427 0.268928)
(0.143159 0.222748 0.26085)
(0.137039 0.240778 0.281342)
(0.126662 0.190246 0.252719)
(0.12375 0.174336 0.229551)
(0.11918 0.151975 0.218584)
(0.143571 0.230901 0.305532)
(0.139877 0.247375 0.328233)
(0.122433 0.151481 0.23192)
(0.128188 0.166659 0.249395)
(0.122695 0.15631 0.230703)
(0.130335 0.179866 0.269549)
(0.125952 0.168309 0.247008)
(0.14045 0.233342 0.303649)
(0.131948 0.179213 0.279013)
(0.127405 0.184161 0.240427)
(0.50756 0.588737 0.594298)
(0.490943 0.597654 0.64574)
(0.517427 0.597853 0.594258)
(0.51977 0.591212 0.623411)
(0.523689 0.577709 0.649407)
(0.577947 0.560762 0.560684)
(0.590766 0.537065 0.652552)
(0.580419 0.566 0.618321)
(0.503344 0.181446 0.145382)
(0.540248 0.235731 0.167828)
(0.477268 0.16571 0.13357)
(0.460099 0.135066 0.110571)
(0.470373 0.165348 0.0947918)
(0.49273 0.205799 0.0911763)
(0.591894 0.312841 0.21731)
(0.576137 0.303947 0.157216)
(0.573025 0.235272 0.149553)
(0.425855 0.0921904 0.0521068)
(0.504845 0.206411 0.129763)
(0.45694 0.156793 0.0544311)
(0.42941 0.113922 0.0291564)
(0.630324 0.337359 0.205536)
(0.62892 0.344659 0.219958)
(0.610295 0.328882 0.203599)
(0.650147 0.360675 0.256461)
(0.48458 0.142451 0.0778209)
(0.606855 0.314728 0.170667)
(0.51089 0.203288 0.0775233)
(0.204473 0.403327 0.3609)
(0.202544 0.407267 0.388333)
(0.151348 0.389792 0.321673)
(0.147769 0.388447 0.300302)
(0.184359 0.371573 0.329249)
(0.163578 0.382077 0.303299)
(0.280494 0.491189 0.476947)
(0.302074 0.466262 0.456764)
(0.209084 0.410663 0.417387)
(0.217507 0.432557 0.433745)
(0.194401 0.412719 0.365772)
(0.215887 0.417658 0.405724)
(0.17437 0.476557 0.369652)
(0.150307 0.465266 0.314261)
(0.198787 0.47199 0.381578)
(0.273514 0.4655 0.463387)
(0.303098 0.461272 0.491482)
(0.167728 0.458817 0.343712)
(0.166569 0.460667 0.392258)
(0.760083 0.273642 -0.265514)
(0.755544 0.263392 -0.323671)
(0.741148 0.288743 -0.351118)
(0.750732 0.350704 -0.2502)
(0.696148 0.161744 -0.366423)
(0.691393 0.127497 -0.321691)
(0.683284 0.126238 -0.371481)
(0.650338 0.0601102 -0.359178)
(0.800535 0.275868 -0.227281)
(0.673682 0.0829789 -0.341956)
(0.66818 0.0920774 -0.316555)
(0.767373 0.277976 -0.21315)
(0.680251 0.120305 -0.322779)
(0.740174 0.197474 -0.245219)
(0.700357 0.13226 -0.283361)
(0.133579 0.361847 0.286936)
(0.155351 0.394635 0.287819)
(0.173151 0.410561 0.294081)
(0.214656 0.495307 0.341564)
(0.22042 0.48336 0.343866)
(0.271762 0.561422 0.401518)
(0.27707 0.571804 0.388845)
(0.176547 0.472139 0.382946)
(0.175572 0.478135 0.36705)
(0.136274 0.395917 0.318873)
(0.150942 0.454642 0.357692)
(0.166576 0.461806 0.367744)
(0.191542 0.491034 0.359653)
(0.244128 0.531341 0.386352)
(0.172596 0.480213 0.360594)
(0.158702 0.486405 0.363878)
(0.144336 0.43836 0.323239)
(0.179137 0.487205 0.346919)
(0.364028 0.584406 0.696083)
(0.409498 0.655533 0.750954)
(0.270191 0.510474 0.577093)
(0.267938 0.525984 0.593741)
(0.408564 0.6785 0.758628)
(0.378383 0.662581 0.741056)
(0.326062 0.564173 0.681824)
(0.275807 0.504796 0.646806)
(0.23438 0.519094 0.599947)
(0.284374 0.556822 0.658498)
(0.352666 0.490577 0.474224)
(0.271565 0.496233 0.455179)
(0.278377 0.497007 0.475922)
(0.361574 0.510284 0.442544)
(0.290272 0.48621 0.431882)
(0.365463 0.50844 0.465723)
(0.298932 0.477444 0.464127)
(0.265752 0.510435 0.399517)
(0.273531 0.508979 0.401937)
(0.204867 0.46933 0.441875)
(0.259385 0.47269 0.427857)
(0.29472 0.504777 0.427176)
(0.254061 0.50382 0.409893)
(0.146726 0.430828 0.347226)
(0.168964 0.452987 0.377116)
(0.182354 0.470195 0.376175)
(0.211798 0.462524 0.391308)
(0.184519 0.443087 0.39939)
(0.558301 0.595048 0.0776391)
(0.709831 0.558153 0.0427632)
(0.721627 0.557609 0.0178907)
(0.700876 0.489465 -0.097704)
(0.714141 0.532857 -0.0372363)
(0.731857 0.577327 0.100433)
(0.680353 0.575186 0.0864325)
(0.743502 0.580291 0.148894)
(0.644413 0.591636 -0.00153481)
(0.727514 0.498653 0.028443)
(0.552382 0.608678 0.140377)
(0.609243 0.623182 0.174396)
(0.67471 0.614583 0.189607)
(0.668707 0.63558 0.127047)
(0.677831 0.548887 0.0131023)
(0.638563 0.617251 0.128857)
(0.644346 0.580579 0.0732704)
(0.254032 0.551563 0.299696)
(0.209414 0.50526 0.302436)
(0.193289 0.438685 0.271936)
(0.194718 0.479478 0.280395)
(0.182405 0.457555 0.304908)
(0.202773 0.485847 0.321597)
(0.352106 0.594005 0.334098)
(0.33742 0.595276 0.319676)
(0.211795 0.452742 0.20483)
(0.216393 0.482757 0.280427)
(0.221325 0.535406 0.322968)
(0.193792 0.449789 0.219827)
(0.177295 0.437765 0.261561)
(0.213175 0.438872 0.22075)
(0.205441 0.415224 0.150777)
(0.313091 0.51276 0.230071)
(0.341683 0.528232 0.273717)
(0.217038 0.462449 0.211819)
(0.195469 0.493577 0.250238)
(0.250637 0.554922 0.287535)
(0.305546 0.516316 0.232503)
(0.563021 0.771911 0.768562)
(0.576813 0.778642 0.775771)
(0.439662 0.668563 0.704397)
(0.509827 0.739198 0.761348)
(0.53827 0.771901 0.754729)
(0.571774 0.772571 0.789681)
(0.557431 0.76704 0.784965)
(0.44582 0.676095 0.70897)
(0.416304 0.630327 0.667318)
(0.440928 0.654639 0.706587)
(0.49466 0.714847 0.71885)
(0.52996 0.741031 0.735568)
(0.523096 0.734083 0.781842)
(0.516891 0.744141 0.778246)
(0.407095 0.625632 0.675839)
(0.368019 0.598589 0.619663)
(0.550555 0.7521 0.773598)
(0.409476 0.620731 0.658552)
(0.368136 0.590451 0.600704)
(0.472125 0.683629 0.71752)
(0.337427 0.557889 0.50669)
(0.320675 0.573641 0.495696)
(0.428382 0.615054 0.598091)
(0.475878 0.616218 0.580919)
(0.380477 0.584804 0.504784)
(0.563958 0.632922 0.659618)
(0.534737 0.633013 0.654599)
(0.562044 0.632347 0.669072)
(0.542997 0.603499 0.622952)
(0.352819 0.56842 0.549272)
(0.450342 0.602599 0.625021)
(0.507191 0.583105 0.573696)
(0.323044 0.598843 0.511219)
(0.334562 0.565908 0.536745)
(0.405515 0.603142 0.618974)
(0.448263 0.626643 0.569267)
(0.409342 0.584593 0.62293)
(0.383747 0.581556 0.405995)
(0.348776 0.567163 0.366582)
(0.339062 0.560283 0.307896)
(0.369703 0.56414 0.395654)
(0.39972 0.557064 0.35921)
(0.431802 0.58669 0.360564)
(0.410907 0.586425 0.407)
(0.460994 0.665996 0.447924)
(0.366291 0.570608 0.39447)
(0.397596 0.573488 0.435539)
(0.365464 0.560725 0.34864)
(0.468634 0.636972 0.370374)
(0.516742 0.656833 0.513771)
(0.455806 0.646259 0.401317)
(0.429692 0.601207 0.693999)
(0.374288 0.58343 0.688796)
(0.379301 0.58302 0.647023)
(0.221035 0.511686 0.560667)
(0.258525 0.526517 0.579808)
(0.372849 0.578828 0.698327)
(0.385719 0.590186 0.654827)
(0.347938 0.562174 0.615406)
(0.241034 0.508517 0.559984)
(0.242457 0.488471 0.566739)
(0.31121 0.534814 0.641139)
(0.349509 0.572344 0.678591)
(0.137642 0.462575 0.41331)
(0.15673 0.480662 0.468747)
(0.129799 0.446479 0.393132)
(0.146486 0.478547 0.417735)
(0.122514 0.422962 0.386441)
(0.149962 0.465593 0.454028)
(0.322468 0.555392 0.423301)
(0.315442 0.539323 0.414335)
(0.362535 0.447792 0.322281)
(0.33746 0.438501 0.303652)
(0.318677 0.494659 0.364438)
(0.219706 0.414027 0.294166)
(0.262909 0.339556 0.251841)
(0.281316 0.347074 0.266685)
(0.229433 0.367034 0.261033)
(0.237775 0.35823 0.249201)
(0.646742 0.450951 0.400945)
(0.613848 0.403168 0.372897)
(0.681733 0.432162 0.381891)
(0.683257 0.464233 0.325069)
(0.604614 0.417911 0.414195)
(0.596671 0.398122 0.39475)
(0.648889 0.436234 0.372124)
(0.641766 0.46757 0.420534)
(0.706099 0.536393 0.428875)
(0.709823 0.514213 0.410135)
(0.610515 0.455172 0.420279)
(0.587457 0.410452 0.383219)
(0.69811 0.546966 0.477681)
(0.629186 0.44095 0.392885)
(0.718625 0.53896 0.459401)
(0.697112 0.57009 0.497204)
(0.656507 0.509584 0.455233)
(0.403845 0.561466 0.432925)
(0.321358 0.534679 0.411624)
(0.28042 0.486284 0.387917)
(0.349651 0.542131 0.349103)
(0.299427 0.500652 0.329522)
(0.408048 0.555304 0.454863)
(0.396944 0.578397 0.380911)
(0.260615 0.456928 0.316577)
(0.287965 0.482769 0.237791)
(0.26175 0.478899 0.242778)
(0.316795 0.449064 0.356596)
(0.385964 0.48979 0.433802)
(0.421923 0.541384 0.396268)
(0.45871 0.563349 0.42286)
(0.276726 0.440815 0.275931)
(0.405738 0.549196 0.341817)
(0.305774 0.436259 0.319464)
(0.408213 0.502743 0.418882)
(0.350363 0.498578 0.272697)
(0.289506 0.465226 0.17737)
(0.312318 0.470685 0.172984)
(0.296438 0.433954 0.242173)
(0.324419 0.482377 0.262558)
(0.132104 0.311558 0.301896)
(0.161001 0.361457 0.298973)
(0.122406 0.355769 0.311539)
(0.123936 0.355613 0.334184)
(0.123926 0.344742 0.308017)
(0.142704 0.389241 0.320717)
(0.135445 0.335025 0.328101)
(0.135242 0.349537 0.311229)
(0.133089 0.305096 0.300395)
(0.182774 0.375944 0.303354)
(0.164198 0.322982 0.2742)
(0.144036 0.302845 0.270047)
(0.172208 0.434639 0.348903)
(0.188981 0.392019 0.313748)
(0.435127 0.702997 0.745102)
(0.4684 0.742347 0.756839)
(0.465931 0.705252 0.764283)
(0.520087 0.763919 0.794219)
(0.370065 0.605235 0.627958)
(0.499632 0.752843 0.747883)
(0.403116 0.639196 0.67556)
(0.494147 0.759009 0.749601)
(0.349378 0.581192 0.63414)
(0.495659 0.726495 0.790112)
(0.506907 0.74473 0.783094)
(0.509096 0.766262 0.765481)
(0.415028 0.656557 0.705473)
(0.529041 0.761733 0.796478)
(0.513021 0.658695 0.591359)
(0.563364 0.685268 0.612871)
(0.610029 0.671815 0.606183)
(0.63146 0.69742 0.633165)
(0.406477 0.616833 0.568649)
(0.509727 0.696903 0.624372)
(0.417787 0.604608 0.555551)
(0.558942 0.639599 0.593284)
(0.597572 0.748542 0.6665)
(0.432529 0.632952 0.575673)
(0.515725 0.689577 0.612332)
(0.569943 0.717141 0.62269)
(0.443134 0.613404 0.551819)
(0.427897 0.619892 0.568211)
(0.448244 0.738225 0.779922)
(0.457867 0.71038 0.784803)
(0.482442 0.742996 0.815409)
(0.463703 0.732389 0.834514)
(0.263291 0.318202 0.246005)
(0.292614 0.374001 0.273258)
(0.215509 0.377806 0.292482)
(0.195738 0.336465 0.269629)
(0.226256 0.366448 0.278768)
(0.267783 0.388769 0.291421)
(0.25642 0.329667 0.24571)
(0.233065 0.290536 0.225737)
(0.229421 0.315563 0.227803)
(0.224364 0.369036 0.293542)
(0.186042 0.298608 0.245992)
(0.260321 0.422192 0.304603)
(0.214367 0.335488 0.26357)
(0.171783 0.237179 0.198201)
(0.181371 0.222899 0.188075)
(0.19535 0.266414 0.208201)
(0.199036 0.255061 0.204133)
(0.314083 0.445081 0.333122)
(0.192404 0.262787 0.211152)
(0.203382 0.255824 0.202959)
(0.182388 0.262397 0.206599)
(0.221904 0.269206 0.2178)
(0.332741 0.418838 0.308812)
(0.281834 0.320021 0.251307)
(0.263816 0.319353 0.243608)
(0.230105 0.313617 0.235071)
(0.30853 0.358254 0.284702)
(0.340887 0.420036 0.311699)
(0.386954 0.545743 0.403368)
(0.406447 0.504947 0.395449)
(0.207937 0.35369 0.26492)
(0.2319 0.399384 0.300096)
(0.25533 0.456921 0.35025)
(0.237817 0.432838 0.328879)
(0.356193 0.547269 0.410667)
(0.429451 0.548242 0.435961)
(0.250215 0.377606 0.271034)
(0.319825 0.532592 0.390975)
(0.360043 0.503215 0.362461)
(0.334689 0.488859 0.36658)
(0.170008 0.335315 0.281113)
(0.179576 0.358567 0.283682)
(0.170722 0.305553 0.243869)
(0.135971 0.225959 0.218957)
(0.17896 0.367957 0.286559)
(0.216312 0.387163 0.299306)
(0.213662 0.358869 0.251197)
(0.225691 0.383506 0.263072)
(0.187588 0.319183 0.230753)
(0.173176 0.317267 0.234787)
(0.251841 0.370953 0.259695)
(0.226397 0.330507 0.236468)
(0.198734 0.304581 0.249983)
(0.166091 0.270545 0.22149)
(0.14951 0.263271 0.223565)
(0.163015 0.264016 0.208862)
(0.200609 0.392482 0.302184)
(0.152757 0.275253 0.231493)
(0.171612 0.271216 0.21515)
(0.706593 0.522888 -0.151885)
(0.632273 0.574044 -0.0322394)
(0.674565 0.544343 -0.077087)
(0.736491 0.52354 -0.162981)
(0.692619 0.55802 -0.0327167)
(0.628946 0.550139 -0.0584577)
(0.671214 0.543385 -0.195937)
(0.595673 0.569698 -0.057349)
(0.613597 0.573247 -0.123047)
(0.71112 0.443468 -0.304757)
(0.738331 0.450889 -0.184948)
(0.560325 0.63328 0.560866)
(0.573591 0.641072 0.581943)
(0.57911 0.632413 0.59801)
(0.572156 0.632176 0.577468)
(0.67001 0.615434 0.577525)
(0.679528 0.61064 0.591551)
(0.616855 0.628217 0.575592)
(0.652869 0.621612 0.58545)
(0.668765 0.614164 0.598427)
(0.6656 0.63187 0.617131)
(0.649397 0.611743 0.604076)
(0.276106 0.330446 0.423007)
(0.308529 0.3273 0.465965)
(0.299043 0.340132 0.425662)
(0.320657 0.352324 0.40769)
(0.359289 0.345108 0.529973)
(0.329358 0.431924 0.536234)
(0.298038 0.404101 0.492275)
(0.367937 0.349934 0.530525)
(0.324444 0.363222 0.44725)
(0.312675 0.431564 0.465312)
(0.393174 0.393235 0.541541)
(0.422139 0.409604 0.56591)
(0.381814 0.455121 0.558166)
(0.361609 0.448305 0.520552)
(0.292974 0.384064 0.430078)
(0.370825 0.426794 0.487561)
(0.41611 0.439506 -0.112965)
(0.517868 0.508143 -0.0326726)
(0.385821 0.276633 -0.239933)
(0.454549 0.290443 -0.205583)
(0.566437 0.438408 -0.0646942)
(0.524867 0.478979 -0.0346793)
(0.387485 0.346638 -0.210398)
(0.374438 0.310074 -0.274533)
(0.346882 0.253225 -0.338469)
(0.473885 0.488968 -0.0854388)
(0.366868 0.239558 -0.287472)
(0.557746 0.49692 -0.117542)
(0.5251 0.422957 -0.2088)
(0.385175 0.352309 -0.306569)
(0.357265 0.299756 -0.326446)
(0.438713 0.465241 -0.161936)
(0.42347 0.236076 -0.256348)
(0.381608 0.227379 -0.284141)
(0.486536 0.472646 -0.177759)
(0.480068 0.292459 -0.264004)
(0.447498 0.257362 -0.304717)
(0.440046 0.316499 -0.311735)
(0.584433 0.303064 0.641987)
(0.587708 0.275276 0.64292)
(0.569404 0.296156 0.650809)
(0.551894 0.262929 0.630191)
(0.553878 0.293991 0.644123)
(0.518978 0.248389 0.623274)
(0.540299 0.370548 0.63058)
(0.513804 0.361867 0.640251)
(0.487636 0.253053 0.622497)
(0.535179 0.272632 0.636567)
(0.484178 0.236181 0.604321)
(0.453261 0.256324 0.625349)
(0.449307 0.231216 0.585463)
(0.470283 0.326781 0.64132)
(0.450657 0.233563 0.613697)
(0.444996 0.258348 0.622657)
(0.498388 0.345705 0.646659)
(0.743824 0.818297 0.433074)
(0.742703 0.725204 0.327689)
(0.7397 0.748464 0.257699)
(0.745048 0.750141 0.33653)
(0.720645 0.730144 0.247105)
(0.763174 0.810189 0.399965)
(0.784379 0.824004 0.424899)
(0.766041 0.841188 0.394219)
(0.771783 0.78818 0.375686)
(0.781427 0.847311 0.407629)
(0.757809 0.780281 0.300509)
(0.788092 0.762237 0.349954)
(0.749799 0.691884 0.235057)
(0.784782 0.817265 0.281556)
(0.691476 0.628229 0.13986)
(0.81865 0.819009 0.344868)
(0.797636 0.77057 0.308514)
(0.821053 0.831588 0.29275)
(0.755021 0.742861 0.218279)
(0.418969 0.288593 -0.0500613)
(0.405683 0.255354 -0.085867)
(0.451249 0.220605 -0.0399589)
(0.405413 0.185248 -0.0735528)
(0.47555 0.264415 -0.0401518)
(0.408391 0.214804 -0.0840062)
(0.401557 0.235602 -0.118912)
(0.37941 0.186147 -0.15573)
(0.388245 0.186137 -0.107174)
(0.595016 0.603818 0.724332)
(0.567917 0.615162 0.722418)
(0.609018 0.530369 0.694385)
(0.62982 0.552698 0.698558)
(0.574504 0.589366 0.674452)
(0.599634 0.598027 0.681673)
(0.61579 0.557862 0.691374)
(0.6074 0.487275 0.653987)
(0.57749 0.470635 0.632678)
(0.606479 0.529379 0.661032)
(0.614233 0.541254 0.599539)
(0.60248 0.559272 0.604814)
(0.591348 0.498453 0.622637)
(0.583535 0.487373 0.589697)
(0.585973 0.478001 0.58627)
(0.558464 0.430941 0.564805)
(0.146719 0.24473 0.153626)
(0.144349 0.282239 0.200339)
(0.170066 0.244199 0.132686)
(0.162443 0.233879 0.123241)
(0.150463 0.235419 0.131478)
(0.142806 0.205908 0.116311)
(0.187774 0.286277 0.25296)
(0.180256 0.312772 0.287687)
(0.15151 0.259717 0.222796)
(0.143715 0.221845 0.137543)
(0.186368 0.265651 0.25715)
(0.194665 0.314441 0.318189)
(0.156228 0.233219 0.202115)
(0.162385 0.239589 0.185314)
(0.741499 0.759097 0.570218)
(0.769038 0.765467 0.554228)
(0.760444 0.732031 0.576178)
(0.774526 0.732505 0.527717)
(0.801397 0.727502 0.564689)
(0.766866 0.735779 0.550951)
(0.797944 0.732477 0.567322)
(0.733238 0.77727 0.577915)
(0.808206 0.758145 0.549881)
(0.793626 0.754996 0.534295)
(0.801152 0.722695 0.537812)
(0.745865 0.506816 0.592129)
(0.752179 0.483803 0.59377)
(0.727888 0.485547 0.606282)
(0.733809 0.484601 0.602362)
(0.658041 0.540637 0.607511)
(0.660418 0.545394 0.609063)
(0.732629 0.533913 0.595147)
(0.755223 0.496782 0.597502)
(0.627457 0.611526 0.581083)
(0.643805 0.601827 0.600351)
(0.632058 0.615205 0.585044)
(0.613688 0.623284 0.583565)
(0.660936 0.560566 0.594853)
(0.748037 0.529255 0.58771)
(0.740002 0.518067 0.594953)
(0.761614 0.544093 0.599398)
(0.750092 0.519203 0.586313)
(0.742347 0.607376 0.591181)
(0.752004 0.575717 0.595621)
(0.757969 0.565508 0.58702)
(0.63958 0.552213 0.573155)
(0.717596 0.567273 0.592832)
(0.49713 0.386637 0.385227)
(0.561281 0.443003 0.446099)
(0.580019 0.516034 0.519101)
(0.566434 0.517736 0.49684)
(0.576653 0.474288 0.483859)
(0.526592 0.419473 0.456761)
(0.556899 0.514788 0.454607)
(0.419666 0.315912 0.323619)
(0.478642 0.419333 0.380659)
(0.484803 0.378146 0.381531)
(0.471166 0.392435 0.359327)
(0.462179 0.362434 0.3485)
(0.47439 0.421169 0.365357)
(0.529685 0.516938 0.618218)
(0.595942 0.530926 0.603696)
(0.536048 0.515729 0.604084)
(0.548434 0.559263 0.565664)
(0.528341 0.564581 0.553539)
(0.465338 0.488023 0.57088)
(0.456643 0.490821 0.59217)
(0.521105 0.573022 0.554951)
(0.566741 0.543153 0.570818)
(0.404281 0.488893 0.561817)
(0.436053 0.487401 0.567716)
(0.461876 0.567029 0.502687)
(0.472569 0.555122 0.52573)
(0.410571 0.527408 0.525551)
(0.405976 0.518538 0.547512)
(0.656504 0.730979 0.641781)
(0.653078 0.731982 0.659208)
(0.642507 0.691757 0.652333)
(0.644554 0.700445 0.671846)
(0.651392 0.716 0.631227)
(0.65115 0.737366 0.642603)
(0.642298 0.724251 0.651026)
(0.62455 0.733332 0.658282)
(0.633052 0.697893 0.603077)
(0.611527 0.66439 0.593574)
(0.593806 0.651399 0.562233)
(0.56643 0.628105 0.539533)
(0.609036 0.673501 0.626651)
(0.611698 0.659403 0.583498)
(0.607981 0.658166 0.572594)
(0.64533 0.69152 0.636171)
(0.637288 0.69217 0.620762)
(0.59779 0.67369 0.607777)
(0.633427 0.690677 0.586737)
(0.519741 0.508532 0.367052)
(0.489608 0.47913 0.333931)
(0.479473 0.489544 0.324812)
(0.417991 0.441871 0.257983)
(0.578818 0.551118 0.407912)
(0.508804 0.504377 0.385328)
(0.502119 0.540886 0.299804)
(0.450795 0.500801 0.247358)
(0.457484 0.484177 0.305681)
(0.60772 0.577234 0.418259)
(0.513986 0.521794 0.397663)
(0.479718 0.508966 0.295905)
(0.563698 0.566584 0.374308)
(0.525099 0.563024 0.321921)
(0.585235 0.589057 0.414128)
(0.53545 0.580582 0.382344)
(0.640852 0.637558 0.500557)
(0.623345 0.633762 0.475412)
(0.498841 0.509878 0.365453)
(0.6554 0.653786 0.476602)
(0.660824 0.639243 0.476273)
(0.576349 0.59245 0.43749)
(0.467964 0.577227 0.674878)
(0.467344 0.594638 0.691902)
(0.517711 0.613341 0.749274)
(0.417433 0.581323 0.726304)
(0.342736 0.568273 0.698396)
(0.307647 0.551587 0.639687)
(0.369061 0.579589 0.645594)
(0.375945 0.582047 0.644877)
(0.643082 0.279095 0.162813)
(0.624738 0.320887 0.175277)
(0.54524 0.179116 0.105375)
(0.499238 0.163568 0.111797)
(0.655963 0.327464 0.201378)
(0.652266 0.362791 0.213677)
(0.493834 0.146662 0.09945)
(0.466076 0.123784 0.0903247)
(0.564325 0.229369 0.160698)
(0.521291 0.218598 0.172213)
(0.517073 0.217302 0.143987)
(0.545346 0.26321 0.195725)
(0.459952 0.16236 0.128505)
(0.473285 0.179792 0.139261)
(0.673306 0.33112 -0.311605)
(0.686437 0.313246 -0.307756)
(0.719448 0.329484 -0.266516)
(0.723599 0.382302 -0.199476)
(0.643082 0.421717 -0.267837)
(0.678151 0.373555 -0.340676)
(0.684289 0.337735 -0.370719)
(0.743144 0.458446 -0.133634)
(0.695379 0.497872 -0.170193)
(0.678569 0.308844 -0.383807)
(0.711356 0.391754 -0.324832)
(0.722129 0.464136 -0.144681)
(0.696768 0.352908 -0.280921)
(0.724844 0.502199 -0.202359)
(0.7685 0.460943 -0.209095)
(0.775819 0.487138 -0.097684)
(0.721843 0.487594 -0.175084)
(0.715974 0.389099 -0.250707)
(0.633096 0.508821 0.661784)
(0.611552 0.452216 0.612553)
(0.618536 0.492963 0.643032)
(0.619743 0.509569 0.681462)
(0.641117 0.565198 0.687574)
(0.634577 0.589805 0.710764)
(0.604143 0.440999 0.607366)
(0.540954 0.363961 0.524855)
(0.569208 0.399402 0.519196)
(0.542466 0.374909 0.512655)
(0.581219 0.435936 0.595106)
(0.644747 0.558197 0.665394)
(0.635215 0.582974 0.633064)
(0.624035 0.568106 0.640542)
(0.594183 0.436133 0.566823)
(0.620484 0.436118 0.592035)
(0.620103 0.438897 0.555496)
(0.589072 0.431165 0.559417)
(0.612638 0.476957 0.596589)
(0.650121 0.575723 0.676638)
(0.623057 0.554896 0.603276)
(0.622667 0.526459 0.60345)
(0.640512 0.548514 0.64572)
(0.634798 0.548217 0.634487)
(0.379322 0.403983 0.305316)
(0.43071 0.416409 0.339741)
(0.599797 0.526844 0.700498)
(0.601861 0.5673 0.760489)
(0.574059 0.542023 0.752605)
(0.587947 0.525185 0.670416)
(0.55212 0.663879 0.832254)
(0.120243 0.168341 0.190833)
(0.120855 0.177524 0.199546)
(0.118822 0.169004 0.198527)
(0.128357 0.198193 0.203767)
(0.389574 0.382824 0.317814)
(0.325467 0.324086 0.259494)
(0.550249 0.770876 0.790474)
(0.558426 0.778192 0.76959)
(0.122285 0.166497 0.172458)
(0.117891 0.168397 0.180711)
(0.132949 0.19565 0.185952)
(0.561515 0.622024 0.805779)
(0.568906 0.599953 0.800142)
(0.560469 0.637159 0.817709)
(0.285453 0.166739 0.466198)
(0.260204 0.155276 0.446879)
(0.528795 0.449307 0.496385)
(0.495323 0.413028 0.431179)
(0.124103 0.158572 0.209899)
(0.120165 0.157632 0.196855)
(0.558731 0.662482 0.810196)
(0.568304 0.68393 0.820541)
(0.584634 0.249666 0.611503)
(0.619093 0.276452 0.600664)
(0.560708 0.228148 0.606954)
(0.624015 0.760729 0.688166)
(0.601716 0.775267 0.72268)
(0.614969 0.777704 0.705368)
(0.594117 0.783695 0.73224)
(0.123469 0.170373 0.164805)
(0.127472 0.175061 0.159798)