/*--------------------------------*- C++ -*----------------------------------*\
| =========                 |                                                 |
| \\      /  F ield         | OpenFOAM: The Open Source CFD Toolbox           |
|  \\    /   O peration     | Version:  v1612+                                |
|   \\  /    A nd           | Web:      www.OpenFOAM.com                      |
|    \\/     M anipulation  |                                                 |
\*---------------------------------------------------------------------------*/
FoamFile
{
    version     2.0;
    format      ascii;
    class       volVectorField;
    location    "100";
    object      wallShearStress;
}
// * * * * * * * * * * * * * * * * * * * * * * * * * * * * * * * * * * * * * //

dimensions      [0 2 -2 0 0 0 0];

internalField   uniform (0 0 0);

boundaryField
{
    WALL
    {
        type            calculated;
        value           nonuniform List<vector> 
1499
(
(-0.00795048 -0.000673337 0.00471201)
(-0.00928762 0.00102576 0.00538144)
(-0.0154037 -0.039258 0.0210746)
(-0.0117824 -0.0312098 0.013219)
(-0.00240413 -0.00741169 0.000394962)
(-0.00277148 -0.00606724 -0.00172563)
(-1.57087e-05 -0.00843713 0.0110447)
(-0.000809674 -0.00913671 0.0148211)
(-0.0129097 -0.00455559 -0.0109605)
(-0.0116037 -0.00473839 -0.0114455)
(0.00541192 -0.0114551 0.0179692)
(-0.0232764 -0.00222847 0.0353599)
(-0.0281215 -0.00911688 0.0275409)
(-0.013249 0.0095563 0.0254027)
(-0.0130049 0.0155899 0.0244913)
(-0.00567952 0.0092946 0.000634993)
(-0.00626374 0.00889177 0.00119078)
(-0.0034673 -0.00346739 -0.00242731)
(-0.00417963 -0.00352659 -0.00184101)
(-0.00809737 -0.0046039 -0.00918056)
(-0.0100102 -0.0033978 -0.00988674)
(0.00111825 -0.00626011 0.0046944)
(0.00128271 -0.0074888 0.00788614)
(-0.0381675 -0.0155132 0.0131076)
(-0.0423198 -0.0152765 0.0115071)
(-0.0243885 -0.0198895 -0.0277886)
(-0.0220346 -0.0221532 -0.027035)
(-0.0304478 -0.0185577 -0.0281097)
(-0.036038 -0.0247885 -0.0321189)
(-0.0125242 0.00644543 0.0356234)
(-0.0118388 0.00180689 0.0366604)
(-0.0105107 0.0110966 0.0121239)
(-0.0101561 0.0111483 0.0162749)
(-0.0108099 0.00461377 0.0174794)
(-0.0103196 0.00723612 0.0128472)
(-0.00456888 -0.00456701 0.00262751)
(-0.00408129 -0.00509637 0.000390027)
(-0.00587694 0.00385405 -0.00138359)
(-0.00878769 0.00611596 -2.60211e-06)
(-0.018705 -0.043901 0.0166784)
(0.00136672 -0.00823938 0.00882024)
(0.00158881 -0.0087209 0.0129492)
(0.00113013 -0.00885169 0.0194983)
(0.00151289 -0.00854396 0.0154924)
(-0.00904025 -0.0127497 0.00973455)
(-0.00941759 -0.0138112 0.00650015)
(-0.00596753 -0.0121397 0.00762832)
(-0.00605362 -0.0122825 0.00600811)
(-0.00804544 -0.0136888 0.0060351)
(-0.00830017 -0.0131323 0.00907082)
(-0.00652496 0.00702746 0.000986733)
(-0.00561873 0.00683564 0.000199582)
(-0.00621395 0.00814064 0.0012599)
(-0.00680118 0.00879113 0.00223779)
(-0.00526652 0.00732664 0.000293847)
(-0.00490853 0.00627706 -0.000315133)
(-0.00388342 -0.00349874 -0.00263186)
(-0.00331941 -0.00347756 -0.00281238)
(-0.00336442 -0.00355121 -0.00216352)
(-0.00375694 -0.00344106 -0.00225662)
(-0.00334254 -0.00345308 -0.00298959)
(-0.00339992 -0.00339721 -0.00293356)
(-0.0207264 -0.00977857 -0.021576)
(-0.0202833 -0.00828602 -0.0190355)
(-0.021452 -0.00939597 -0.0223987)
(-0.0207706 -0.00821987 -0.0185085)
(-0.015689 -0.00653236 -0.0143161)
(-0.0138076 -0.00508695 -0.0121814)
(-0.0143408 -0.00558555 -0.013863)
(-0.0158492 -0.00682232 -0.0156675)
(-0.0148679 -0.00564017 -0.0128678)
(-0.0149901 -0.00686853 -0.0156249)
(-0.00383763 -0.00443113 -0.0047753)
(-0.00379055 -0.00439441 -0.00468719)
(-0.00326416 -0.0040034 -0.00458631)
(-0.00339819 -0.00420157 -0.00487065)
(-0.00308055 -0.00395633 -0.00474395)
(-0.00419104 -0.00465598 -0.00462613)
(-0.00330005 -0.00372789 -0.00552441)
(-0.00328297 -0.00396517 -0.00493262)
(-0.00297245 -0.00348325 -0.00482661)
(-0.00334961 -0.00396005 -0.00481723)
(-0.00293305 -0.00365217 -0.00454884)
(-0.00329794 -0.00365934 -0.00507341)
(-0.0104456 0.0140039 0.0110585)
(-0.0105789 0.0132026 0.00896907)
(-0.0105 0.0128077 0.0121999)
(-0.0105588 0.0123138 0.00840401)
(-0.0105862 0.0130895 0.00999538)
(-0.0108334 0.0126457 0.0124949)
(-0.0196905 -0.0111379 0.0216893)
(-0.0170001 -0.00665006 0.0299407)
(-0.0158803 -0.0102132 0.023805)
(-0.0213285 -0.00875899 0.0263145)
(-0.0239829 -0.0109565 0.025071)
(-0.0153988 -0.00900807 0.0274653)
(-0.00304846 -0.00753484 0.0304353)
(-0.00284097 -0.00459205 0.0339438)
(0.000101969 -0.00806074 0.0290834)
(0.000816694 -0.000660499 3.6519e-05)
(0.000503793 0.000736523 -0.000462952)
(0.00202703 -0.000687097 0.000554094)
(0.000203743 0.00132397 -0.000596293)
(0.00249081 -0.00295326 0.00193355)
(0.00215157 -0.00190091 0.00153144)
(-0.0312248 -0.0193805 -0.0276302)
(-0.0298946 -0.0231004 -0.0298138)
(-0.0270832 -0.027738 -0.0310208)
(-0.0255716 -0.0171386 -0.0259583)
(-0.0273303 -0.0218288 -0.0293663)
(-0.0245136 -0.0137461 -0.0249045)
(-0.00637923 -0.0152876 0.000255787)
(-0.00707851 -0.014777 -0.0044965)
(-0.00658172 -0.0182296 -0.0025941)
(-0.00603772 -0.0125556 -0.000815905)
(-0.0058632 -0.0126228 -0.00180763)
(-0.00818412 -0.019987 -0.00171159)
(-0.00935199 -0.0237843 0.00275356)
(-0.00837249 -0.0217857 0.00898986)
(-0.00703666 -0.0193557 0.0043423)
(-0.0118014 -0.0279538 0.00756705)
(-0.00832625 -0.0194264 0.00575579)
(-0.00887293 -0.0278924 0.00660566)
(-0.0037319 -0.00439429 -0.00184569)
(-0.00385864 -0.00480047 -0.00114028)
(-0.00357201 -0.00390915 -0.0014283)
(-0.00389493 -0.00411746 -0.000563915)
(-0.00399644 -0.00468725 -0.000828033)
(-0.0100847 0.00431764 0.00595725)
(-0.0100115 0.00398512 0.0039405)
(-0.00970587 0.00416507 0.00353741)
(-0.0102456 0.00366033 0.00507921)
(-0.00990725 0.00456361 0.00461856)
(-0.0103307 0.00383244 0.00599944)
(-0.00946584 0.00134975 0.00120462)
(-0.00989317 0.00214601 0.00151092)
(-0.00962642 0.00182904 0.00350344)
(-0.00905932 0.000968255 0.00208416)
(-0.00925613 0.0013675 0.00343864)
(-0.00955002 0.00284608 0.00305427)
(-0.00837924 -0.000416872 0.0019779)
(-0.00721296 -0.00146666 0.00169721)
(-0.00878971 0.000220005 0.00563518)
(-0.00808532 -0.000982122 0.0033331)
(-0.00785246 -0.00086257 0.00168435)
(-0.00726792 -0.0011607 0.00302392)
(-0.00915052 0.000758317 0.00402386)
(-0.00826345 -2.76001e-05 0.00350462)
(-0.00942442 0.00593956 0.00560452)
(-0.0100607 0.00606214 0.00784473)
(-0.00902528 0.00678663 0.0054143)
(-0.0098619 0.0053202 0.00645183)
(-0.00972186 0.00689152 0.00723119)
(-0.00978921 0.00649252 0.00568421)
(-0.0114959 0.0106643 0.0245774)
(-0.0110157 0.00923198 0.0317592)
(-0.0119437 0.0059548 0.0299579)
(-0.0136782 0.0126398 0.0326729)
(-0.0114629 0.00749748 0.0276643)
(-0.0115849 0.0106003 0.0295534)
(-0.0108193 0.00639481 0.0152993)
(-0.0101815 0.00277766 0.0173013)
(-0.0101417 0.0038175 0.0145618)
(-0.00988891 0.00413123 0.0194284)
(-0.0112963 0.00561711 0.019471)
(-0.0106503 0.0063695 0.0157176)
(-0.0101232 -0.0257353 0.0246346)
(-0.00994378 -0.0227976 0.01831)
(-0.0132081 -0.0305329 0.0169215)
(-0.0151828 -0.0346694 0.0243024)
(-0.00851248 -0.0245134 0.0168224)
(-0.0153471 -0.0372738 0.0138281)
(-0.0131008 -0.0310791 0.0215563)
(-0.0123959 -0.0290651 0.0263894)
(-0.00911839 0.00306207 -0.000442137)
(-0.00957301 0.00374555 0.0012107)
(-0.00982324 0.00372678 0.00166617)
(-0.00878813 0.00312977 -0.00083258)
(-0.00885673 0.00369957 0.000310329)
(-0.00941639 0.00307739 0.000635974)
(-0.00888759 -0.000918541 -0.00151051)
(-0.0094496 -0.000386156 -0.00153421)
(-0.00927162 0.000307224 3.44123e-05)
(-0.00812501 -0.000817927 5.99554e-05)
(-0.00845185 -0.00136268 -0.00115675)
(-0.0087471 -0.000125578 0.000531402)
(-0.0246141 0.0121963 0.0181765)
(-0.0241973 0.0114282 0.0155616)
(-0.0237593 0.00668026 0.0123602)
(-0.0216389 0.00938527 0.0115811)
(-0.0127791 0.0140739 0.0364429)
(-0.0128514 0.0108071 0.0347576)
(-0.011937 0.00834307 0.0438621)
(-0.00897317 0.00694911 0.0393554)
(-0.0105029 0.0125788 0.0374263)
(-0.0364293 -0.0330753 -0.0350722)
(-0.0328271 -0.0370379 -0.0274998)
(-0.0348714 -0.0308034 -0.0353404)
(-0.0392573 -0.0371711 -0.028802)
(-0.0409694 -0.0370073 -0.0343733)
(-0.0356467 -0.0380187 -0.0329486)
(0.00647314 -0.00891224 0.01546)
(0.00514016 -0.0108587 0.0138734)
(0.00320179 -0.0115891 0.0137087)
(-0.0023685 0.00369146 -0.00151871)
(-0.00510229 0.00798082 -0.000973666)
(-0.00205614 0.00462406 -0.00136399)
(-0.00379627 0.00645021 -0.00132765)
(-0.00374736 0.00797491 -0.000687079)
(-0.00348596 0.00626379 -0.00145479)
(0.00283539 -0.00714871 0.00820828)
(0.00262079 -0.0054581 0.00479414)
(0.00319921 -0.00613806 0.00681754)
(0.00227916 -0.00578853 0.00534403)
(0.00226593 -0.0045826 0.00384227)
(0.00127525 -0.00757247 0.0240861)
(0.00125728 -0.00931602 0.0202021)
(-0.000477663 -0.00704454 0.0252453)
(-0.00183276 -0.00799455 0.0241278)
(-0.00125807 -0.0089878 0.0217846)
(-0.00153526 -0.0085277 0.0191343)
(0.00104745 -0.00613384 0.00300511)
(0.00284385 -0.0055327 0.00330847)
(-0.00180061 -0.00323805 0.00064453)
(-0.000315446 -0.00470567 0.00193135)
(0.00120816 -0.00389446 0.0014144)
(-0.000347564 -0.0025884 0.000291316)
(-0.0140941 -0.003949 0.00574958)
(-0.0109185 -0.00302699 0.00371899)
(-0.00907163 -0.00572743 0.00399324)
(-0.00202484 -0.00695326 0.00382894)
(0.000750401 -0.00807884 0.00553662)
(-0.00170551 -0.00967996 0.0068785)
(-5.19259e-05 -0.00652152 0.00388915)
(0.00208928 -0.00898265 0.00794571)
(0.00217554 -0.00997695 0.0088747)
(-0.00392575 -0.00397309 0.00127746)
(-0.00438893 -0.0014192 -2.27619e-05)
(-0.0082462 0.000202913 0.000776568)
(-0.00614354 0.000329944 -1.55616e-05)
(-0.00828178 -0.00202616 0.00166501)
(-0.00609025 -0.00311081 0.00154977)
(-0.00553833 -0.00629647 0.0307392)
(-0.0101001 -0.00761743 0.0297844)
(-0.0122608 -0.00486828 0.0325035)
(-0.00717608 -0.00498828 0.0347927)
(-0.0118485 -0.00521875 0.0357463)
(-0.00557115 -0.00566019 0.0282596)
(-0.00873739 -0.00935967 0.0219895)
(-0.00581782 -0.00884776 0.0228568)
(-0.00748126 -0.0110604 0.0187724)
(-0.00377842 -0.0093871 0.0183826)
(-0.00851901 -0.00882367 0.0243978)
(-0.00368554 -0.00905432 0.0199524)
(-0.037861 -0.0218657 0.00120613)
(-0.0344442 -0.0195635 0.00329946)
(-0.0388874 -0.0202311 0.00464619)
(-0.0335258 -0.020114 0.00558527)
(-0.0351714 -0.0173622 0.0121202)
(-0.0376518 -0.0181272 0.0110041)
(-0.0344647 -0.0246232 -0.00844901)
(-0.0363598 -0.0235298 -0.00585718)
(-0.0369023 -0.0248417 -0.0130516)
(-0.0324051 -0.0218153 -0.00967577)
(-0.0386242 -0.0233265 -0.0110098)
(-0.0396867 -0.0258102 -0.00921703)
(-0.0180926 -0.0155129 0.00822137)
(-0.0167975 -0.0157937 0.00935844)
(-0.0168393 -0.0168088 0.00540777)
(-0.0146408 -0.0156616 0.00630574)
(-0.0137351 -0.0144237 0.00959842)
(-0.0131108 -0.0154427 0.00645211)
(-0.00281172 -0.000879219 -0.00245272)
(-0.00161759 -0.000961 -0.00144494)
(-0.00255584 0.000288402 -0.00222978)
(-0.00226661 -0.00206438 -0.00202237)
(-0.00221289 8.26066e-05 -0.00195613)
(-0.00160869 -0.00253551 -0.00143408)
(-0.00793293 -0.00957151 -0.0101249)
(-0.00661321 -0.00869711 -0.00766689)
(-0.00708353 -0.0103068 -0.00786576)
(-0.00716142 -0.00834263 -0.00884305)
(-0.00798366 -0.0112176 -0.0085016)
(-0.00876909 -0.0111082 -0.0110579)
(-0.00589739 -0.00278371 -0.00635538)
(-0.00646886 -0.00413649 -0.00737975)
(-0.00572056 -0.00611672 -0.00677183)
(-0.00526529 -0.00457163 -0.00600083)
(-0.00491143 -0.00310919 -0.00533788)
(-0.00655442 -0.00544487 -0.00800686)
(-0.00304697 -0.00296236 -0.00303031)
(-0.00340625 -0.00422772 -0.00337267)
(-0.00449705 -0.00286149 -0.00460742)
(-0.00324813 -0.00139227 -0.00316553)
(-0.0042021 -0.00388691 -0.00443819)
(-0.00422823 -0.00107196 -0.00403024)
(-0.00512984 -0.00776417 -0.00515518)
(-0.00452741 -0.00632124 -0.00472978)
(-0.00504891 -0.00946273 -0.00314148)
(-0.00578213 -0.00915074 -0.00534662)
(-0.00459188 -0.00863213 -0.00297352)
(-0.00434633 -0.00697917 -0.00375094)
(-0.00302015 -0.00717404 -0.00102158)
(-0.00246324 -0.00472636 -0.00184179)
(-0.00174063 -0.00514628 -0.000570032)
(-0.00106882 -0.0065357 0.00201115)
(-0.000519846 -0.00523206 0.00153257)
(-0.00173773 -0.0060156 0.000300589)
(-0.000571554 -0.00384458 0.000264272)
(-0.00114586 -0.00339994 -0.000462642)
(-0.0228344 -0.0210537 -0.0167075)
(-0.0254027 -0.0196123 -0.0159606)
(-0.0236215 -0.0210844 -0.0166544)
(-0.0250503 -0.0197522 -0.0156011)
(-0.0236552 -0.0203679 -0.0162074)
(-0.0248581 -0.0209239 -0.0172219)
(-0.0298061 -0.0224992 -0.0139545)
(-0.029986 -0.0211197 -0.0167772)
(-0.0277586 -0.0220525 -0.0133358)
(-0.0340038 -0.0246554 -0.0168377)
(-0.0276246 -0.0217053 -0.0148226)
(-0.0287096 -0.0220582 -0.0168951)
(-0.0259102 -0.0218603 -0.0180279)
(-0.0270684 -0.019763 -0.0161828)
(-0.0265599 -0.0214524 -0.0177182)
(-0.0247254 -0.0213263 -0.0164738)
(-0.0286532 -0.0212185 -0.0167186)
(-0.0269888 -0.0225631 -0.0172334)
(-0.00783137 -0.00469345 -0.00939849)
(-0.00774444 -0.00618583 -0.00999296)
(-0.00848303 -0.00774517 -0.0111853)
(-0.00899714 -0.00596314 -0.0110249)
(-0.0100141 -0.00753061 -0.0131907)
(-0.00765052 -0.00496504 -0.00914076)
(-0.0150041 -0.0186044 -0.0179522)
(-0.0143721 -0.0178158 -0.0194589)
(-0.0132047 -0.0156187 -0.0179377)
(-0.0138628 -0.0177306 -0.0174931)
(-0.0126232 -0.016125 -0.0160683)
(-0.013635 -0.0163647 -0.0186469)
(-0.0189086 0.017554 0.0207861)
(-0.0192967 0.0177717 0.024245)
(-0.0221158 0.0157287 0.020954)
(-0.0187262 0.0164949 0.0172619)
(-0.0216698 0.0153218 0.0180328)
(-0.0214514 0.0163754 0.0243644)
(-0.018576 0.0119417 0.00892904)
(-0.0170154 0.0124394 0.00870456)
(-0.0178346 0.0109316 0.00745202)
(-0.0181563 0.0145627 0.0116076)
(-0.0194563 0.0130151 0.0115347)
(-0.0086413 0.00598154 0.00302566)
(-0.0087535 0.00542739 0.00330323)
(-0.00821173 0.00528925 0.00110711)
(-0.00818395 0.00587848 0.00200373)
(-0.00856988 0.00484108 0.00124107)
(-0.00903366 0.0048226 0.00213224)
(-0.00394207 0.00187143 -0.00237909)
(-0.00466771 0.00253446 -0.00214702)
(-0.00509309 0.00279947 -0.002136)
(-0.00384466 0.00103293 -0.00277758)
(-0.00478992 0.00192707 -0.00266641)
(-0.0041527 0.00102934 -0.00278774)
(-0.00975328 0.0122325 0.00146652)
(-0.00863209 0.012492 0.00159029)
(-0.0080364 0.0108879 0.000580627)
(-0.00917976 0.0100987 5.58686e-05)
(-0.00673715 0.00996426 -0.000511102)
(-0.00577076 -0.000732894 -0.00495519)
(-0.00620035 0.000237393 -0.00450885)
(-0.00550795 -0.00027622 -0.00434497)
(-0.00593013 0.000628704 -0.00380859)
(-0.00643566 0.000912759 -0.00389229)
(-0.00555865 -0.000878596 -0.004793)
(-0.00793861 -0.00343815 -0.00358846)
(-0.00851956 -0.00213279 -0.002229)
(-0.00952542 -0.00250101 -0.00393521)
(-0.0077184 -0.00253935 -0.00250404)
(-0.00877936 -0.00294885 -0.00395723)
(-0.00901318 -0.00209708 -0.00303376)
(-0.00265715 -0.00331469 -0.00438397)
(-0.00297228 -0.00356968 -0.00454819)
(-0.00270529 -0.00347004 -0.00428601)
(-0.00270038 -0.00328455 -0.0045633)
(-0.0026359 -0.00343298 -0.00447734)
(-0.00285963 -0.00345913 -0.00499311)
(-0.00732913 -0.00540798 -0.0113292)
(-0.00512552 -0.00422328 -0.00828346)
(-0.00716919 -0.00638746 -0.0106498)
(-0.00584236 -0.00631802 -0.00837615)
(-0.0053976 -0.00460217 -0.00829516)
(-0.00515644 -0.00556747 -0.00788669)
(-0.0122251 -0.00830734 -0.0162439)
(-0.00955288 -0.00684875 -0.0139052)
(-0.0091272 -0.00794886 -0.0130119)
(-0.00988283 -0.00684052 -0.0136999)
(-0.00987749 -0.00842996 -0.0134403)
(-0.0118543 -0.00799396 -0.0156183)
(-0.0172359 -0.0149256 -0.02658)
(-0.0183497 -0.015563 -0.0276566)
(-0.0172113 -0.0124489 -0.0257162)
(-0.0187151 -0.014231 -0.0269888)
(-0.0211062 -0.0155551 -0.029214)
(-0.0186377 -0.0140279 -0.0271054)
(-0.0183209 -0.0172974 -0.0279578)
(-0.0158325 -0.0172755 -0.0239699)
(-0.0168357 -0.0170905 -0.0262407)
(-0.017591 -0.017265 -0.0272259)
(-0.0165717 -0.0184782 -0.0251023)
(-0.0168916 -0.0194165 -0.0249736)
(-0.0175818 -0.0211428 -0.0254495)
(-0.0179452 -0.00767841 -0.0178903)
(-0.0179665 -0.00768864 -0.0181934)
(-0.0189356 -0.00804956 -0.0176785)
(-0.0167869 -0.00636261 -0.0152532)
(-0.0182843 -0.00788417 -0.0189524)
(-0.0174524 -0.00662399 -0.0154712)
(-0.00323929 -0.00357016 -0.00370627)
(-0.00331598 -0.00365497 -0.00401726)
(-0.0033155 -0.00355116 -0.00365982)
(-0.00291396 -0.00349574 -0.00419137)
(-0.00274637 -0.00334522 -0.00395914)
(-0.00353774 -0.00363677 -0.00376385)
(-0.00323563 -0.00358546 -0.00255758)
(-0.00313456 -0.00381414 -0.00280012)
(-0.00346616 -0.0041788 -0.00248061)
(-0.00335309 -0.00365856 -0.00217156)
(-0.00313783 -0.00360564 -0.00291448)
(-0.00348648 -0.00391776 -0.0022748)
(-0.00294053 -0.00350808 -0.00398905)
(-0.00301465 -0.00353753 -0.00400273)
(-0.00315855 -0.00370994 -0.00373938)
(-0.00298601 -0.00339365 -0.00334659)
(-0.00306688 -0.00363831 -0.00438395)
(-0.00308307 -0.0034449 -0.00361808)
(-0.00929127 0.0100619 0.00719244)
(-0.0089543 0.0101524 0.00516627)
(-0.00828245 0.0102631 0.00415642)
(-0.0092002 0.0116955 0.00635694)
(-0.00804992 0.00953872 0.00382208)
(-0.00983574 0.010486 0.00759885)
(-0.0162433 -0.0175735 -0.0245245)
(-0.0170395 -0.0198473 -0.0236769)
(-0.0147891 -0.0172436 -0.0220818)
(-0.0136196 -0.0164769 -0.0195483)
(-0.0173416 -0.0182061 -0.0252223)
(-0.0176274 -0.0216807 -0.0235491)
(-0.0123517 -0.0137353 0.0130736)
(-0.00943049 -0.0123233 0.0139026)
(-0.0151449 -0.0114007 0.0188546)
(-0.0128047 -0.0119172 0.0183837)
(-0.01503 -0.013829 0.0134947)
(-0.00948483 -0.0110823 0.0170209)
(-0.00375788 -0.0104152 0.0103104)
(-0.00516223 -0.0112773 0.0123276)
(0.000616736 -0.00836588 0.0124706)
(-0.00283983 -0.00946335 0.0159139)
(-0.00262147 -0.00981993 0.00908828)
(-0.00232866 -0.0100731 0.0111314)
(-0.0052553 -0.0110231 0.0137939)
(-0.00336017 -0.00982011 0.0131484)
(-0.0274289 -0.0042731 0.0353364)
(-0.0190946 -0.00364936 0.0334811)
(-0.019639 0.00106641 0.0383908)
(-0.0194454 -0.00438942 0.0369992)
(-0.0243257 -0.00223074 0.0320785)
(-0.0202479 0.00275452 0.0392383)
(-0.0254782 0.000554126 0.0323498)
(-0.0280654 0.00182907 0.0314182)
(0.0060653 -0.00919396 0.0110102)
(0.00360917 -0.00905054 0.00810896)
(0.00471563 -0.00719203 0.00724062)
(0.00550473 -0.00938398 0.012611)
(0.00592196 -0.00880163 0.0125003)
(0.00528319 -0.0084161 0.0101131)
(-0.00942517 0.00057985 0.0146952)
(-0.0100971 0.00235234 0.013548)
(-0.0101732 0.00229522 0.0117863)
(-0.00932294 0.000960029 0.011837)
(-0.00835043 -0.000254176 0.0141015)
(-0.00917422 -0.000649197 0.0121587)
(-0.00920009 0.00278567 0.0120632)
(-0.0124489 -0.0033509 -0.00934268)
(-0.0134646 -0.00534142 -0.0127957)
(-0.011583 -0.00294722 -0.00875101)
(-0.011285 -0.00295549 -0.00967977)
(-0.0109681 -0.00350476 -0.00947436)
(-0.0103892 -0.00168909 -0.0079085)
(-0.0100516 -0.00205671 -0.00722006)
(-0.0112406 -0.00247073 -0.00764546)
(-0.010889 -0.0041742 -0.0117062)
(-0.00659672 -0.00215677 0.00771014)
(-0.00750365 -0.00181111 0.00856673)
(-0.0077828 -6.56467e-05 0.00889977)
(0.00437729 -0.00571184 0.00629692)
(0.00596818 -0.00810989 0.0187207)
(0.00463889 -0.00886141 0.0205015)
(0.00434776 -0.00808878 0.0133711)
(0.00505724 -0.00789361 0.0110819)
(0.00469281 -0.00989074 0.0153924)
(0.0042545 -0.00707903 0.00677079)
(0.00344816 -0.00609085 0.00463585)
(0.0050489 -0.00772134 0.00948958)
(0.00315102 -0.00656413 0.00493389)
(-0.0126771 -0.001427 0.0391081)
(-0.00767212 -0.0112541 0.0161625)
(-0.0194548 -0.0226237 -0.0194088)
(-0.0192609 -0.0226969 -0.0210487)
(-0.0168647 -0.0204058 -0.0202193)
(-0.0175624 -0.0208127 -0.0182215)
(-0.0112225 0.0151978 0.0266909)
(-0.00847788 0.00698056 0.00485099)
(-0.00857842 0.00704741 0.00382276)
(-0.00802185 0.00771806 0.00322822)
(-0.0051306 0.00831164 -0.000166758)
(-0.00446399 0.00751845 -0.000419574)
(-0.0077706 0.00731998 0.0032748)
(-0.00751651 0.00740152 0.00262729)
(-0.00809019 0.00604476 0.00159954)
(-0.00718624 0.00579729 0.000730911)
(-0.00652435 0.00743904 0.00151699)
(-0.00590904 0.00623609 0.000869694)
(-0.00829703 0.00856662 0.00317948)
(-0.0052993 0.00723517 -0.000173727)
(-0.00671921 0.0093139 0.00143622)
(-0.00725874 0.00855746 0.001767)
(-0.00756238 0.010525 0.00289644)
(-0.00503649 0.00600415 -0.000351833)
(-0.00397693 0.00467785 -0.00107962)
(-0.00510591 0.00438411 -0.000702967)
(-0.00531444 0.00614819 0.000247528)
(-0.00354385 0.00251911 -0.00197936)
(-0.00350027 0.00369713 -0.00129743)
(-0.00481362 0.00422143 -0.00135582)
(-0.00364707 0.00419511 -0.00133745)
(-0.00398515 0.00543403 -0.000912201)
(-0.00432819 0.00655879 -0.000256475)
(-0.00409289 0.00496025 -0.000880644)
(-0.00321731 0.00544038 -0.000859488)
(-0.00316524 -0.00370603 -0.00362839)
(-0.00435663 -0.0033627 -0.00105136)
(-0.00391963 -0.00367026 -0.00121448)
(-0.0036298 -0.00378861 -0.00181069)
(-0.00415771 -0.00334537 -0.000389086)
(-0.0040407 -0.00352561 -0.000489815)
(-0.00432165 -0.004026 -0.00388324)
(-0.00294636 -0.00362807 -0.00425668)
(-0.00482418 -0.00314352 -0.000765429)
(-0.0059837 -0.00354872 -0.0021358)
(-0.00506608 -0.0034231 -0.00154852)
(-0.00566984 -0.00329813 -0.0014769)
(-0.0050833 -0.00406053 -0.00382552)
(-0.00460229 -0.00400851 -0.00367372)
(-0.00587793 -0.00427248 -0.00367153)
(-0.00533257 -0.00391401 -0.00335562)
(-0.00534621 -0.00358022 -0.00301383)
(-0.00501928 -0.00336595 -0.00227571)
(-0.0055574 -0.00907058 -0.00623617)
(-0.0062741 -0.00887159 -0.0085185)
(-0.0053364 -0.0079534 -0.00683886)
(-0.00620085 -0.00745475 -0.00882823)
(-0.00685704 -0.0081156 -0.00976084)
(-0.00728264 -0.010847 -0.00957953)
(-0.00606054 -0.0107668 -0.00623657)
(-0.00741633 -0.0120906 -0.00865051)
(-0.0078108 -0.015085 -0.00914)
(-0.00838306 -0.0170263 -0.00835589)
(-0.0166378 -0.011995 -0.0230136)
(-0.0203372 -0.0120047 -0.0264044)
(-0.0200411 -0.011507 -0.0245649)
(-0.0163351 -0.0104883 -0.0210337)
(-0.0197217 -0.00785352 -0.0174296)
(-0.0154877 -0.00642702 -0.0131536)
(-0.0178033 -0.00885278 -0.0209564)
(-0.0187669 -0.00917063 -0.0205228)
(-0.0192819 -0.00898933 -0.0221451)
(-0.0167507 -0.00748027 -0.0173026)
(-0.0180587 -0.00959302 -0.0204898)
(-0.0151992 -0.00669499 -0.0114678)
(-0.0182626 -0.00690704 -0.0147953)
(-0.0164054 -0.0070921 -0.0134768)
(-0.0188542 -0.00690433 -0.0146787)
(-0.0149735 -0.00709428 -0.0112717)
(-0.0175705 -0.00854365 -0.0146036)
(-0.0164732 -0.00800052 -0.0126748)
(-0.0160495 -0.0154156 -0.0242289)
(-0.0142775 -0.0158687 -0.0211126)
(-0.0148422 -0.0137803 -0.0217878)
(-0.0145164 -0.0124541 -0.0208785)
(-0.0139781 -0.0050706 -0.0134548)
(-0.0126353 -0.00509454 -0.0133526)
(-0.0139942 -0.00657163 -0.0149653)
(-0.0133948 -0.00676516 -0.0149899)
(-0.0162231 -0.0103009 -0.0227164)
(-0.0157269 -0.0125469 -0.0229391)
(-0.0158635 -0.0102917 -0.0225947)
(-0.0160931 -0.0125439 -0.0237634)
(-0.0162002 -0.0129482 -0.0243163)
(-0.0145972 -0.0108405 -0.0200279)
(-0.0147965 -0.0104742 -0.0194249)
(-0.0138422 -0.00759758 -0.0161235)
(-0.0155782 -0.00709715 -0.0171174)
(-0.0153087 -0.00888809 -0.0189687)
(-0.0160909 -0.00901861 -0.0198004)
(-0.0169628 -0.00958124 -0.0201943)
(-0.0164543 -0.00794711 -0.0182548)
(-0.0163127 -0.00796163 -0.0186161)
(-0.015526 -0.0083854 -0.0189449)
(-0.0161845 -0.0108831 -0.0223109)
(-0.0170134 -0.00904024 -0.0211023)
(-0.0170248 -0.0106293 -0.0224094)
(-0.0158192 -0.0119884 -0.0220498)
(-0.0153822 -0.0104058 -0.0208051)
(-0.0156981 -0.00947709 -0.0202351)
(-0.0167548 -0.0212559 -0.0212757)
(-0.0163893 -0.0205466 -0.021057)
(-0.0173201 -0.021432 -0.0224538)
(-0.0164649 -0.0193728 -0.0232432)
(-0.0181838 -0.0222627 -0.022292)
(-0.0169046 -0.0165095 -0.0266706)
(-0.0204466 -0.011984 -0.0265067)
(-0.00540412 -0.006397 -0.00762434)
(-0.00759723 -0.00587773 -0.0112311)
(-0.00743569 -0.00738405 -0.0106748)
(-0.00462154 -0.00643196 -0.00538875)
(-0.00490657 -0.0066895 -0.0061917)
(-0.0048827 -0.00601209 -0.00663418)
(-0.0047617 -0.00542084 -0.00669542)
(-0.00464109 -0.00539826 -0.00708623)
(-0.00385347 -0.00456321 -0.00602947)
(-0.00451182 -0.00401966 -0.00711655)
(-0.00395918 -0.00396459 -0.00624982)
(-0.00370704 -0.00393114 -0.00551357)
(-0.00373566 -0.00390564 -0.00614154)
(-0.0040331 -0.00396079 -0.00637574)
(-0.0056729 -0.00283712 -0.00088949)
(-0.00599227 -0.00242854 -0.000603062)
(-0.00694876 -0.00214635 9.47282e-05)
(-0.00739317 -0.00181961 -0.000108127)
(-0.00297229 -0.00370205 -0.00452803)
(-0.00292979 -0.00368289 -0.00464802)
(-0.0031263 -0.00397817 -0.00484063)
(-0.00290885 -0.00346874 -0.00486296)
(-0.00372295 -0.00417483 -0.00451899)
(-0.00329174 -0.0038096 -0.00504784)
(-0.00370185 -0.00446527 -0.00609799)
(-0.00408258 -0.00563112 -0.0048376)
(-0.00409918 -0.00486806 -0.00523135)
(-0.0039988 -0.00474933 -0.0055467)
(-0.00331675 -0.00404489 -0.00404815)
(-0.00345314 -0.00444849 -0.00416722)
(-0.00331492 -0.00424085 -0.0033066)
(-0.00323919 -0.00394581 -0.00381161)
(-0.00374783 -0.0049731 -0.00458618)
(-0.00321417 -0.00401243 -0.00467784)
(-0.00315206 -0.00375332 -0.00451562)
(-0.00323055 -0.00391509 -0.00454613)
(-0.0127048 -0.00682447 -0.00950772)
(-0.0114997 -0.00642084 -0.00857227)
(-0.0118365 -0.0062713 -0.00865077)
(-0.013438 -0.00626943 -0.00992704)
(-0.0166499 -0.00853523 -0.0119363)
(-0.0151397 -0.00722318 -0.010641)
(-0.0123601 -0.00711783 -0.00929744)
(-0.0161709 -0.00649374 -0.0142131)
(-0.0144054 -0.00596876 -0.0114995)
(-0.0154467 -0.00605705 -0.0122651)
(-0.0140373 -0.00587235 -0.0101016)
(-0.0124394 -0.00577231 -0.00894833)
(-0.0101864 -0.00440763 -0.00627628)
(-0.0107211 -0.00585198 -0.00751259)
(-0.0112146 -0.00577215 -0.00786881)
(-0.0100499 -0.00483431 -0.00646559)
(-0.0073626 -0.00192102 -0.000924243)
(-0.00792352 -0.00165294 -0.00112195)
(-0.00906992 -0.00420431 -0.00539013)
(-0.011384 -0.00184722 -0.00631633)
(-0.0109607 -0.00118667 -0.0051523)
(-0.0107828 -0.00090202 -0.00389788)
(-0.0101703 -0.00131261 -0.00357243)
(-0.00951305 -0.00164056 -0.00284613)
(-0.0107605 -0.00222632 -0.00525335)
(-0.011371 -0.0020489 -0.00617957)
(-0.0131665 -0.00463558 -0.0108487)
(-0.0119964 -0.00294805 -0.00784068)
(-0.0131241 -0.00439963 -0.00950261)
(-0.0122572 -0.00350784 -0.00781431)
(-0.0128507 -0.00442993 -0.00915687)
(-0.0143686 -0.0055299 -0.0108852)
(-0.0136428 -0.00510124 -0.0106782)
(-0.0126159 -0.00524629 -0.00905609)
(-0.0113363 -0.00460256 -0.00744567)
(-0.0121624 -0.00431927 -0.00774922)
(-0.0101997 -0.00259693 -0.00513278)
(-0.0109676 -0.00311895 -0.00626624)
(-0.00960319 -0.00385471 -0.00541941)
(-0.0109096 -0.00363377 -0.00641953)
(-0.00654309 -0.00281443 -0.00177928)
(-0.00631199 -0.00344087 -0.00244615)
(-0.0070889 -0.0022568 -0.00138385)
(-0.00674719 -0.00346753 -0.00280021)
(-0.00631217 -0.00356186 -0.0031228)
(-0.00767733 -0.00362346 -0.00349929)
(-0.00810733 -0.00393883 -0.00441731)
(-0.0058671 -0.00468067 -0.00463494)
(-0.0095409 -0.00535535 -0.00626749)
(-0.00703968 -0.00469706 -0.00473409)
(-0.00746139 -0.00472557 -0.0048035)
(-0.0069016 -0.00438181 -0.00434894)
(-0.00684279 -0.00462153 -0.00433639)
(-0.00847205 -0.00532391 -0.00590126)
(-0.00860554 -0.005003 -0.00586885)
(-0.00766496 -0.0040593 -0.00437631)
(-0.00431974 -0.00430335 -0.0043118)
(-0.0048311 -0.00438094 -0.0041263)
(-0.00599149 -0.00504723 -0.00481362)
(-0.0110579 -0.00691688 -0.00834287)
(-0.00809847 -0.00582717 -0.00626177)
(-0.00959711 -0.00568019 -0.00654045)
(-0.010683 -0.00669312 -0.00788008)
(-0.0099703 -0.00669666 -0.0074417)
(-0.00904929 -0.00619693 -0.00639275)
(-0.00812143 -0.00619812 -0.00625525)
(-0.00687257 -0.0053116 -0.00497795)
(-0.00864247 -0.00613258 -0.00640909)
(-0.00483814 -0.00523564 -0.0052286)
(-0.00520174 -0.00503467 -0.00523317)
(-0.00749113 -0.00605442 -0.00606989)
(-0.00634587 -0.00509782 -0.0050679)
(-0.00557134 -0.0053989 -0.0051148)
(-0.00704391 -0.00625985 -0.00590416)
(-0.0100613 -0.00714613 -0.00763434)
(-0.013069 -0.00813749 -0.00975094)
(-0.0111895 -0.00699624 -0.00834804)
(-0.00827665 -0.0067888 -0.00652117)
(-0.0100775 -0.00745018 -0.00755473)
(-0.00791268 0.011048 0.00306668)
(-0.00836927 0.00592528 0.00344152)
(-0.00705825 6.30173e-05 -0.00499433)
(-0.00721591 0.00153141 -0.00345251)
(-0.00900136 0.00226853 -0.00175957)
(-0.00824077 0.0128317 0.00356559)
(-0.00906961 0.0134256 0.00349294)
(-0.00995689 0.0144316 0.0054579)
(-0.0108816 0.0148056 0.00567116)
(-0.0123504 0.0168875 0.00833872)
(-0.0126117 0.0159416 0.0191474)
(-0.0134742 0.0145957 0.0152455)
(-0.0128704 0.0169692 0.0109224)
(-0.0126504 0.0162352 0.0129428)
(-0.017997 -0.00172015 0.00711689)
(-0.0185724 0.0146233 0.0138952)
(-0.0087908 0.000878517 -0.00403787)
(-0.00829979 0.0022667 -0.00263286)
(-0.00870871 0.00205455 -0.00259234)
(-0.0088909 0.000595542 -0.00517267)
(-0.0074365 0.00155568 -0.00336434)
(-0.00732186 0.000653971 -0.00445363)
(-0.013698 0.0172527 0.0356207)
(-0.0157685 0.0158568 0.0315573)
(-0.0151001 0.0183187 0.0266971)
(-0.0175357 0.0178394 0.0273954)
(-0.0208396 0.0167273 0.0270888)
(-0.0101799 -0.010803 -0.0134121)
(-0.0101184 -0.0123703 -0.0130199)
(-0.0102216 -0.0116611 -0.0139276)
(-0.0110142 -0.0133324 -0.0143156)
(-0.0135375 -0.0142298 -0.0198617)
(-0.0138815 -0.0130373 -0.0199077)
(-0.0116213 -0.00699477 -0.0143448)
(-0.0123224 -0.00918661 -0.0162363)
(-0.014212 -0.0121398 -0.0194954)
(-0.0158874 -0.0112368 -0.0208882)
(-0.0143713 -0.00966286 -0.0195671)
(-0.0135481 -0.0147546 -0.0192039)
(-0.0127342 -0.0155761 -0.0177115)
(-0.00915005 -0.00430483 -0.00977127)
(-0.00729725 -0.00166017 -0.00646624)
(-0.0113686 -0.00700717 -0.0139333)
(-0.0119017 -0.00611936 -0.0138162)
(-0.00934324 -0.00566966 -0.0113313)
(-0.00838508 -0.00321488 -0.00851614)
(-0.030443 -0.0225313 -0.0182785)
(-0.0216088 -0.023088 -0.0186809)
(-0.0198912 -0.0215756 -0.0161762)
(-0.0188847 -0.0216919 -0.0181769)
(-0.0188939 -0.0212998 -0.0185276)
(-0.0242788 -0.0229722 -0.0189781)
(-0.0259507 -0.0221464 -0.016863)
(-0.019046 -0.0223682 -0.0210143)
(-0.0180516 -0.0218122 -0.0214879)
(-0.0200868 -0.0213484 -0.0184782)
(-0.0190966 -0.0214491 -0.0185436)
(-0.0217331 -0.0212734 -0.0166029)
(-0.0202243 -0.0243696 -0.0212237)
(-0.0277447 -0.0192738 -0.0172016)
(-0.0261456 -0.0200535 -0.0172684)
(-0.0253633 -0.0183682 -0.0160544)
(-0.0273006 -0.0138947 -0.0180177)
(-0.0267624 -0.0122491 -0.0181778)
(-0.0281114 -0.0154088 -0.020062)
(-0.0296395 -0.0167645 -0.0200908)
(-0.028894 -0.0172908 -0.0186618)
(-0.0281239 -0.0145801 -0.0177166)
(-0.0285273 -0.0132969 -0.0196112)
(-0.0260672 -0.0120518 -0.0185)