/*--------------------------------*- C++ -*----------------------------------*\
| =========                 |                                                 |
| \\      /  F ield         | OpenFOAM: The Open Source CFD Toolbox           |
|  \\    /   O peration     | Version:  v1612+                                |
|   \\  /    A nd           | Web:      www.OpenFOAM.com                      |
|    \\/     M anipulation  |                                                 |
\*---------------------------------------------------------------------------*/
FoamFile
{
    version     2.0;
    format      ascii;
    class       surfaceScalarField;
    location    "150";
    object      phi;
}
// * * * * * * * * * * * * * * * * * * * * * * * * * * * * * * * * * * * * * //

dimensions      [0 3 -1 0 0 0 0];

internalField   nonuniform List<scalar> 
36848
(
-6.51038e-10
1.9871e-09
1.16081e-09
-2.49691e-09
-2.04495e-08
1.72528e-08
6.11065e-09
-2.91397e-09
-6.92973e-09
-1.56841e-08
2.16429e-09
-6.38236e-09
2.05901e-08
-2.11374e-08
1.49539e-08
3.49589e-09
-2.48321e-08
1.65302e-08
8.09883e-09
-9.67517e-09
1.81651e-09
-3.36328e-09
1.80769e-08
2.45933e-08
-2.18674e-09
1.36532e-08
-1.6913e-08
6.75569e-09
7.97933e-09
2.13775e-08
-1.57036e-08
2.31957e-08
-7.11755e-09
3.01856e-09
1.01174e-08
1.14573e-08
1.23169e-08
4.65851e-09
6.22028e-09
1.52792e-08
1.84152e-08
1.11274e-08
2.21609e-09
1.93566e-09
2.17295e-08
-6.17863e-09
-4.42346e-09
9.4118e-09
1.08596e-08
6.86083e-09
-1.83862e-08
1.37414e-08
-4.02071e-09
-2.3872e-09
-7.13135e-10
7.12106e-09
-3.24314e-09
-5.69403e-09
4.91643e-09
-6.25492e-09
-4.97788e-09
4.75501e-09
6.47779e-09
-8.34523e-09
-1.59081e-09
3.68113e-09
2.43232e-09
-8.03731e-09
-2.74024e-09
-2.54765e-09
2.0962e-12
-2.93047e-09
-1.29118e-09
1.83449e-09
-5.2089e-09
-9.64709e-10
-6.46392e-10
2.32774e-09
-4.72267e-09
3.04136e-09
-3.71929e-09
1.78182e-09
6.36961e-09
2.57913e-09
-4.01812e-09
-2.28029e-09
-2.21465e-09
7.11142e-11
4.6265e-09
6.84925e-10
-6.76257e-10
-4.63517e-09
-1.35787e-10
-9.18457e-09
1.89972e-09
1.07613e-10
-7.46001e-09
1.0777e-10
-4.80214e-09
-7.64035e-10
-8.31291e-09
-5.86518e-09
4.90311e-09
-9.1881e-09
6.594e-09
-2.30902e-09
9.24339e-09
-5.29119e-09
9.50906e-10
-6.26766e-09
3.96377e-09
-6.88425e-09
7.11657e-09
-3.26775e-09
2.74515e-09
6.14121e-09
1.02187e-08
9.31575e-09
-2.94519e-09
-1.26382e-08
4.42614e-09
-4.01582e-10
1.06884e-09
-3.72845e-10
8.15004e-09
3.17141e-09
-1.42667e-08
8.20318e-09
-6.12715e-09
-1.00723e-09
-2.63077e-09
-6.17941e-09
-1.49991e-12
8.8116e-09
-4.11388e-09
-3.69651e-09
5.17948e-09
-2.09013e-09
-6.83114e-09
1.06856e-08
5.71716e-10
6.46012e-09
-5.14123e-09
1.14559e-10
-2.33806e-09
8.68363e-09
9.96183e-09
-1.54597e-09
2.26969e-09
3.06295e-09
8.79269e-09
-1.89383e-09
1.0938e-08
-1.38937e-08
9.20265e-09
1.4329e-08
-3.27643e-09
1.18539e-08
-1.22146e-09
1.60036e-08
-6.40534e-09
-2.95054e-08
1.1607e-09
-1.52329e-08
5.57675e-09
-2.05959e-08
1.21807e-08
-1.86419e-08
-1.19031e-08
5.82618e-09
1.12347e-08
-2.12329e-09
-1.49376e-08
5.59482e-09
6.70654e-10
-4.39277e-10
-1.28198e-08
7.51028e-09
1.09044e-08
-9.23374e-09
7.64863e-09
4.62965e-09
-3.67182e-09
6.67895e-09
-7.63679e-09
5.57032e-09
-2.70006e-10
-1.30635e-08
7.26839e-09
1.9814e-08
-9.43476e-09
-2.86892e-09
5.31261e-10
7.00065e-09
-8.52966e-10
-1.0452e-08
-2.55012e-09
8.00186e-09
5.00028e-09
-6.4672e-09
-9.03239e-09
5.04757e-09
4.0814e-09
4.70724e-09
-1.13388e-08
5.58871e-09
8.11334e-09
-9.62065e-09
9.22145e-09
-4.85419e-09
-6.37207e-09
2.00483e-09
8.81643e-09
-3.33935e-09
3.74437e-09
9.98973e-09
-5.35549e-09
3.36763e-09
5.97833e-09
-1.2485e-09
4.08661e-09
-2.0021e-09
-9.02122e-09
4.55613e-09
4.07123e-09
-3.45116e-09
-5.47425e-09
8.36018e-10
-1.04145e-10
3.06094e-09
-8.51422e-09
5.23637e-09
-5.62761e-09
3.45218e-09
-3.34636e-09
4.86033e-09
4.07474e-09
-6.07629e-09
3.40281e-09
-6.72876e-10
-3.90775e-12
4.3557e-09
3.04288e-09
-2.19971e-09
-5.19881e-09
-1.4416e-09
3.37722e-09
2.42012e-09
1.46639e-09
1.34911e-10
7.30933e-09
-7.00163e-09
-3.56918e-10
4.92445e-11
-8.06935e-09
1.13599e-08
3.81235e-09
-2.15235e-09
-8.66158e-09
-3.29532e-10
-3.92743e-09
-1.4335e-09
2.48698e-10
2.68383e-09
2.22691e-09
-1.19194e-09
-3.71869e-09
1.37066e-09
-1.20245e-10
-4.83154e-09
2.16848e-09
-2.93413e-09
8.60974e-11
-5.544e-09
8.57869e-09
1.49908e-09
-2.97671e-09
-7.10103e-09
1.18447e-08
8.30544e-09
-1.15715e-08
9.66041e-09
-5.8529e-09
-2.30841e-09
-3.62761e-09
3.18106e-09
1.01069e-08
2.66709e-09
5.55004e-09
5.49113e-09
2.59668e-09
8.4531e-09
-1.65409e-08
7.94674e-09
1.46361e-08
-1.70918e-08
7.93524e-10
-4.92107e-09
-1.7253e-09
1.14218e-08
-2.68155e-09
-7.93123e-09
5.60685e-09
3.71024e-09
6.98108e-09
3.94481e-09
-2.1838e-09
-5.97998e-09
1.13448e-08
-7.60851e-09
8.09181e-09
-1.01267e-08
6.22844e-09
-3.93272e-09
2.25918e-09
1.24229e-08
-4.97941e-09
6.72227e-10
-2.67882e-09
1.19562e-10
2.0782e-09
-5.95066e-09
-1.67151e-09
-3.22855e-09
1.07962e-10
2.63608e-09
-1.95848e-09
-3.35632e-09
6.07434e-09
1.68576e-09
-4.3444e-09
-3.41566e-09
-3.69891e-09
6.86452e-09
2.90875e-09
-6.86609e-09
9.32646e-10
-2.54425e-09
3.18629e-09
-7.49392e-09
-1.643e-09
3.78607e-09
-6.41836e-09
-1.71209e-09
1.99983e-09
-1.91266e-09
5.183e-10
7.27888e-09
-1.58399e-09
8.24853e-09
-4.66468e-09
-7.05928e-09
8.81607e-09
2.31067e-09
-1.13026e-09
5.94065e-09
-5.11496e-09
4.94079e-10
8.97068e-09
-4.34978e-09
-3.91065e-09
1.10638e-09
-1.7354e-09
-4.29204e-09
1.09439e-08
3.82166e-09
3.48884e-09
-8.27523e-09
4.61647e-09
-8.97869e-09
7.40328e-09
-3.04108e-09
-5.77676e-09
1.08873e-08
-1.89965e-09
4.52856e-09
-7.944e-10
-2.28389e-09
4.2059e-09
7.2078e-11
5.45823e-10
6.21305e-09
9.45401e-09
-1.21782e-08
8.69226e-09
-4.21462e-09
8.1226e-10
-6.51695e-09
7.92088e-09
3.01521e-09
-1.48208e-09
7.63445e-09
-1.67986e-08
1.45558e-08
1.62534e-08
-2.97618e-09
-1.32513e-09
1.64724e-08
-2.44203e-08
3.1934e-09
4.75452e-09
-3.84891e-09
3.25721e-09
1.70641e-08
-1.8612e-08
2.07741e-10
1.45553e-08
-1.30289e-08
-1.13416e-08
5.75854e-09
3.27395e-09
1.14896e-08
-8.71691e-09
-6.28158e-09
-9.42182e-09
1.48811e-08
-1.87182e-08
7.03053e-09
-1.52418e-10
1.82906e-08
-1.22438e-09
-6.43483e-09
1.67431e-08
-9.34196e-09
-8.74288e-09
-1.11711e-08
2.92559e-08
-8.88774e-09
-1.60815e-08
1.56273e-08
-1.59468e-08
-2.52057e-09
1.49372e-08
3.5301e-09
1.35283e-08
-7.57766e-09
-2.18974e-08
1.15281e-08
-5.20382e-10
-3.24652e-09
-1.47409e-08
9.24451e-09
-1.63577e-08
4.22342e-09
3.39776e-09
-4.54208e-09
1.95665e-08
9.92038e-09
-6.93104e-09
-2.25559e-08
5.0002e-09
1.93058e-08
-4.7395e-09
1.70809e-08
-2.99689e-10
1.95787e-08
2.50242e-09
2.52551e-08
-2.55156e-09
3.36626e-08
-2.17858e-09
-2.65106e-09
1.46768e-08
1.12644e-08
-6.816e-09
-1.91253e-08
1.63267e-08
-3.82845e-09
-1.73208e-08
1.89066e-08
-6.35606e-09
-2.13247e-08
-6.72009e-09
1.51837e-08
-6.13271e-09
-2.33094e-09
2.12761e-08
-1.39391e-08
-1.40571e-08
1.28918e-08
5.50308e-09
2.8812e-09
1.15779e-08
1.64976e-08
-1.73429e-08
6.41466e-09
-1.3307e-08
2.42353e-08
-1.78998e-08
6.05994e-09
-8.54531e-09
2.65379e-08
-9.92211e-09
-1.36674e-08
5.68971e-09
2.10437e-08
-2.8384e-08
-2.58176e-09
6.5303e-09
2.39048e-08
1.9814e-09
-3.24165e-08
6.34922e-09
-1.34863e-08
2.28331e-09
-1.23533e-08
3.93729e-09
1.47952e-08
-2.32256e-08
1.07137e-08
-3.6476e-09
1.13843e-08
-1.325e-08
1.94999e-08
-1.95745e-10
-4.28344e-09
5.34596e-09
1.58202e-08
-1.91848e-08
1.16162e-08
-1.148e-08
-1.24895e-08
-5.16194e-09
-6.44745e-09
1.43684e-10
-7.73357e-09
-5.99038e-09
-2.6598e-08
9.70035e-09
1.91742e-08
-3.54975e-09
-1.25857e-08
1.58573e-08
3.59033e-09
1.51535e-09
1.082e-08
7.8776e-09
-2.84029e-09
1.30409e-09
1.65411e-08
-6.98496e-10
-1.71467e-08
3.84053e-09
2.19311e-08
-2.21812e-08
-1.68453e-08
1.76424e-08
5.06997e-10
2.37108e-08
6.63799e-09
-1.95287e-08
-1.61404e-08
-6.25939e-09
8.27983e-09
1.41199e-08
8.77279e-09
-7.48245e-09
-1.74307e-08
1.20079e-08
4.48711e-09
-1.49796e-08
-6.38447e-10
-1.23664e-08
6.44779e-09
1.72219e-08
-1.16618e-08
1.94888e-08
-5.16344e-09
5.32153e-09
6.06141e-09
-9.26756e-09
-3.47867e-09
2.1026e-08
-1.03005e-08
9.80575e-09
1.53888e-08
-1.15401e-08
6.28126e-09
4.27808e-09
6.66249e-09
1.54695e-08
-1.01504e-08
1.19931e-08
9.51646e-09
1.69309e-08
7.40847e-09
-2.29914e-08
-1.348e-09
-2.07536e-08
1.89225e-08
1.8495e-08
-1.6664e-08
-7.9239e-09
-1.14192e-08
-1.4105e-09
2.62692e-09
-1.11924e-08
2.54963e-08
1.92808e-08
-5.32186e-09
3.77874e-09
-1.10867e-08
3.26361e-08
-1.39362e-08
2.10188e-08
-5.02945e-09
-2.05314e-09
-1.16362e-08
2.07035e-08
-1.26152e-08
-8.14763e-09
1.80796e-08
2.29754e-08
-7.45251e-09
1.12555e-08
3.57232e-09
-2.24188e-09
-4.9534e-09
5.15621e-09
2.03907e-09
-3.66635e-09
1.61143e-09
-1.86953e-10
4.20614e-09
-4.35875e-09
-3.51375e-09
-4.77001e-10
-2.70265e-10
-2.09112e-09
-4.98463e-09
5.11194e-09
1.96379e-09
2.23672e-09
-4.16031e-09
-1.67538e-10
3.85019e-09
-2.04557e-12
-1.90304e-09
5.18711e-10
-3.60032e-09
-1.41892e-09
-4.64442e-09
9.07026e-10
-6.6847e-09
-7.37705e-09
7.82128e-09
-9.21236e-10
3.64868e-09
-1.01187e-08
2.60422e-10
2.21466e-10
3.36829e-09
6.62956e-10
4.75368e-09
1.9666e-09
1.24221e-08
-1.074e-08
5.95422e-10
4.73798e-09
7.15729e-09
-4.67199e-09
-4.08789e-09
5.3004e-09
6.60876e-09
3.71673e-09
4.61747e-09
5.88499e-11
5.9045e-09
-5.21092e-09
5.86518e-09
5.66308e-09
6.83356e-09
3.63293e-09
-6.03039e-09
-4.43608e-09
5.35396e-09
5.80114e-10
8.99501e-10
-1.77024e-09
5.19415e-09
2.09024e-10
2.38332e-09
1.87445e-09
-1.02881e-08
5.50388e-09
3.18198e-09
-6.30252e-09
3.71156e-09
2.20731e-11
-2.29254e-09
5.2211e-09
2.42539e-09
2.9533e-09
-5.16931e-11
-8.46586e-09
7.21916e-09
1.82681e-09
3.33343e-09
-9.92484e-09
1.12451e-09
8.85917e-09
-6.80169e-09
-1.19494e-11
-2.38791e-09
7.40003e-09
-5.00017e-09
-2.41125e-09
7.62041e-09
1.18918e-08
-7.43386e-09
8.83319e-09
3.73755e-09
2.1232e-10
5.33359e-09
3.28729e-09
-1.9137e-10
4.99928e-09
7.06828e-09
5.03583e-09
4.489e-09
7.88197e-09
5.31493e-09
-5.79688e-09
4.23922e-09
-7.25944e-09
-5.31306e-09
8.33325e-09
-4.14397e-09
7.25873e-10
7.6573e-09
-4.96725e-09
-7.25122e-10
1.54836e-09
-1.15571e-09
-8.3005e-09
2.19675e-09
-7.25454e-09
1.13157e-09
-3.3328e-09
2.51335e-09
-6.64387e-09
7.4633e-09
-1.07181e-08
5.01025e-10
-8.52231e-09
2.83638e-09
-2.82422e-09
6.29522e-09
-3.84643e-09
2.97068e-10
-8.58531e-09
-8.2375e-09
-2.51732e-09
-5.94266e-10
-7.60652e-09
3.94723e-09
-1.20315e-08
-5.59552e-09
4.58767e-09
-2.83859e-09
-5.13893e-10
-2.56829e-09
-3.82121e-09
-3.60526e-09
-5.85341e-09
7.1503e-09
-1.21755e-09
-8.74083e-09
6.35314e-09
-9.03656e-09
4.84232e-09
-1.68625e-09
-2.6301e-09
-4.7202e-09
-3.59601e-09
-6.83106e-09
-6.70234e-09
-8.76397e-10
-4.49705e-09
-5.88198e-09
7.74893e-09
-8.26159e-10
-9.47218e-09
-1.32544e-08
6.69176e-09
-3.24948e-09
-2.25513e-09
-1.18722e-09
4.6554e-09
5.93295e-09
-3.89663e-09
-5.04856e-09
-5.26424e-09
7.06328e-09
-5.83665e-09
-1.33012e-09
1.18221e-08
-7.35516e-09
-1.20978e-09
1.08088e-08
-2.24389e-09
-1.90805e-09
-9.42035e-09
3.9732e-09
6.06433e-09
-6.39208e-09
-1.92744e-09
6.69519e-09
-6.46755e-09
4.7078e-09
2.72671e-10
-6.88856e-09
5.6087e-09
-2.11071e-09
5.15544e-09
2.29174e-09
-1.83854e-09
-6.35225e-09
1.01776e-08
7.64651e-09
-3.18998e-09
-2.20489e-09
-4.99088e-09
8.03654e-10
-6.98079e-09
-3.31473e-09
3.46219e-10
5.39825e-09
-2.42974e-09
2.19689e-09
2.10879e-09
3.44034e-09
-2.95173e-09
-3.77071e-09
3.28208e-09
-2.41785e-09
-2.65601e-09
6.88752e-09
-1.81998e-09
-8.17001e-09
3.10246e-09
-4.53777e-09
9.00744e-09
-1.14593e-08
7.05664e-10
6.21588e-09
-3.72018e-09
-3.44318e-09
-4.29595e-09
-2.29976e-09
-3.77628e-09
3.42002e-09
-4.7475e-09
-5.03977e-10
-5.93595e-09
3.45265e-10
-4.07006e-09
6.61908e-09
-2.20279e-09
3.89107e-09
-5.76424e-09
9.45628e-09
-6.01757e-09
-7.15889e-09
8.22995e-09
-2.47403e-09
3.70036e-09
5.15933e-09
-6.21494e-09
-1.42029e-09
2.10342e-09
2.76405e-09
-2.9325e-10
3.9732e-09
1.8392e-09
-3.4002e-10
-1.44253e-10
-6.65857e-09
7.96809e-09
-5.97418e-09
-9.14769e-09
2.20058e-09
2.88582e-10
-3.95117e-09
-3.21249e-09
7.45317e-10
-1.17959e-08
-3.52643e-09
6.17467e-09
3.06485e-09
-5.07539e-09
-1.9406e-09
4.68985e-10
-4.59827e-09
-3.3646e-09
-3.79193e-09
7.3258e-09
6.57104e-10
-5.51579e-09
1.11906e-08
-9.37911e-09
2.86638e-09
-4.67792e-09
3.33213e-09
5.53032e-09
2.3282e-09
-4.8894e-09
4.8756e-09
1.21189e-09
-2.99882e-09
2.46685e-09
-2.4847e-09
-9.36126e-09
9.53346e-09
-5.85473e-09
5.6174e-09
7.2482e-09
-5.5588e-09
5.38623e-09
5.70289e-09
-2.66333e-09
-2.90955e-11
4.63064e-09
-6.77007e-09
2.30401e-09
-3.36702e-10
-4.15223e-11
7.88128e-09
1.61223e-09
-4.96479e-09
-4.52873e-09
1.33898e-08
1.24923e-09
-1.18945e-08
-2.74451e-09
8.4464e-10
5.19634e-09
1.84027e-09
9.91949e-09
4.31493e-09
-6.48952e-09
2.61963e-09
3.78557e-09
8.43134e-11
-1.91264e-09
-2.96465e-09
6.06492e-09
1.75104e-09
9.21275e-09
-4.5468e-09
-6.57859e-09
1.72516e-08
-1.18363e-08
-2.0149e-09
-3.40038e-09
4.70092e-09
-1.3395e-10
1.26846e-08
-1.41107e-09
-9.17598e-09
2.58678e-09
1.20336e-08
-1.09659e-09
9.74829e-09
6.53379e-09
8.09136e-09
-5.41241e-09
9.13263e-09
1.18672e-09
1.06639e-08
-1.37607e-08
-1.44992e-09
1.35388e-08
-4.88982e-09
3.61277e-09
9.79206e-09
5.17576e-09
6.52837e-09
1.32118e-08
1.54263e-08
-1.51569e-08
-2.28253e-08
-5.08708e-09
-1.4652e-09
-1.80162e-08
2.45684e-08
-1.84467e-08
1.94702e-08
2.09885e-08
-6.91438e-10
-1.08853e-08
-2.9723e-08
4.38717e-10
2.45447e-08
-1.84195e-08
4.12284e-09
-5.14089e-09
2.35202e-08
2.60913e-09
2.6367e-08
-3.10692e-08
-1.42974e-08
-5.58731e-09
5.33263e-10
2.63373e-09
-6.89052e-09
3.72351e-09
3.09562e-09
-4.91241e-09
2.35005e-09
2.79825e-09
-2.40374e-09
2.7011e-09
-4.20937e-10
3.48911e-09
-2.69923e-10
-5.73906e-10
-2.82584e-09
2.97879e-09
3.47821e-09
5.10025e-11
-4.10313e-09
-8.63115e-10
-5.49556e-09
1.44627e-09
1.11935e-09
-3.17055e-09
-3.52555e-10
1.95154e-09
6.07633e-09
-3.87307e-09
-4.15484e-09
-1.70179e-09
-4.70942e-12
6.29802e-09
4.90764e-10
-5.5568e-09
-1.23199e-09
5.73576e-09
1.06126e-09
-4.99011e-10
2.40875e-10
-4.27455e-09
-4.082e-09
3.77302e-09
6.04476e-09
-3.20657e-09
-3.84692e-10
-4.0644e-09
1.21024e-09
3.09501e-09
-2.12705e-08
1.94512e-09
7.93239e-10
1.85322e-08
-1.18043e-08
-4.85593e-09
-4.61037e-09
-1.78082e-08
2.09534e-08
-2.12879e-08
1.81426e-08
-2.0774e-08
-8.83846e-09
-1.00545e-09
-2.62009e-09
2.15976e-08
-1.79721e-08
-2.97573e-09
-1.63619e-08
1.83322e-08
2.07711e-08
-1.61954e-08
-9.43163e-09
1.97405e-08
1.91265e-08
1.38429e-08
-6.52496e-09
-2.80919e-08
1.87405e-10
-7.63243e-09
-9.29118e-09
1.2813e-08
1.25505e-08
-1.60723e-08
1.19452e-08
-2.77614e-08
-2.25643e-08
-1.71243e-09
7.91479e-09
-6.67428e-09
1.96747e-08
9.12064e-09
-1.33709e-08
-8.9318e-10
-9.3537e-09
-2.4572e-09
4.375e-09
7.43589e-09
-6.23276e-09
-3.28275e-09
1.61836e-10
-1.365e-08
2.9367e-09
8.25604e-09
-7.92744e-09
-8.28459e-10
-4.89406e-09
-3.06768e-09
-1.5411e-08
1.82705e-08
2.08178e-10
-1.31667e-08
1.1892e-08
-1.79293e-09
-8.47573e-09
-5.68448e-09
4.39332e-09
-6.94174e-09
-7.34317e-10
1.865e-08
-1.1283e-08
-8.19549e-09
7.11752e-09
1.44692e-08
3.54604e-09
-2.93605e-09
-1.6021e-08
1.72421e-09
-5.10326e-09
5.15137e-09
1.82224e-08
-1.6828e-09
8.47153e-09
3.96326e-09
-3.13381e-09
3.56388e-09
7.42365e-10
7.59589e-09
1.30112e-08
-1.94868e-09
1.11254e-09
-6.1056e-09
-3.73944e-10
-1.00505e-08
1.15028e-08
-8.66603e-09
6.68616e-09
-1.4593e-08
-4.11682e-09
-5.68094e-09
5.33035e-09
4.46739e-09
-6.62298e-09
7.0043e-10
2.39651e-09
3.52601e-09
2.14859e-09
-6.20131e-09
-2.57027e-09
2.41985e-09
-5.01147e-09
3.47695e-09
-8.85361e-10
-6.60412e-09
8.1852e-10
1.66878e-09
3.84916e-10
-3.36443e-09
5.12809e-09
-5.11632e-09
1.20902e-09
-1.77364e-09
-5.10263e-09
1.03338e-08
1.44776e-09
-6.67896e-09
3.47675e-09
-7.87897e-09
1.61711e-09
-5.80138e-09
-3.11429e-09
-2.00974e-09
-2.27169e-09
-4.75748e-09
9.03889e-09
-5.82847e-09
-9.43197e-09
1.32507e-08
-4.3633e-09
6.03625e-09
-3.94464e-09
-2.7724e-09
5.32933e-09
-8.38542e-09
-4.15867e-09
4.74157e-09
4.78343e-10
7.26223e-10
1.9126e-08
-5.39867e-09
-8.03758e-09
4.33154e-09
-1.84938e-08
1.25519e-08
1.61041e-09
1.83188e-08
1.0248e-08
-8.87448e-10
2.60085e-08
-4.49421e-10
-2.46716e-08
-1.42571e-09
2.4164e-08
-2.36257e-08
-1.15215e-08
1.43632e-08
-1.92542e-10
-2.64919e-09
1.33452e-08
-5.74068e-09
9.11308e-10
-1.08617e-08
-4.18043e-10
2.56429e-08
-1.65595e-08
3.10254e-08
-2.53276e-08
-9.89253e-09
2.20263e-08
-6.10735e-09
1.45336e-08
-2.74306e-08
4.76371e-09
9.96219e-09
-1.41385e-08
-2.72082e-09
7.93334e-09
-6.95626e-09
1.33467e-08
-1.43238e-08
-1.09231e-09
-4.73509e-09
7.82052e-09
-5.88725e-09
1.1782e-08
-1.37153e-08
1.03651e-08
-3.63693e-09
1.53731e-08
-1.21541e-08
2.19184e-09
-5.41083e-09
1.87338e-08
-6.7611e-09
-1.13207e-08
-2.24449e-09
4.976e-09
-1.78195e-08
1.01625e-08
-7.93797e-09
9.55753e-09
1.67512e-08
3.77635e-09
1.1785e-08
-1.81297e-08
-1.67442e-08
2.4977e-08
3.55223e-09
1.62989e-08
-4.43752e-09
1.31744e-08
7.78225e-09
2.44471e-09
-2.34014e-08
8.14429e-09
1.95894e-08
-1.45592e-08
-1.7258e-08
3.83e-09
1.02966e-08
3.13135e-09
5.64323e-09
-1.5119e-08
1.26239e-08
8.02148e-09
-1.82006e-08
2.04648e-08
3.03414e-10
1.61748e-08
7.2447e-09
2.26642e-08
-6.01973e-09
-1.10013e-08
1.17388e-08
1.39387e-08
-3.01318e-09
8.85924e-09
1.31762e-08
-1.69302e-08
-1.55486e-08
3.18476e-08
6.31252e-10
-4.65484e-10
-1.78797e-08
1.41501e-09
1.60709e-10
1.54336e-08
-1.34318e-08
-1.53866e-08
1.46505e-08
1.46747e-08
2.72047e-09
-1.35326e-10
2.76751e-09
-1.28713e-08
-4.0432e-09
-1.32867e-09
-6.21086e-09
6.34154e-09
-1.30019e-08
5.14872e-09
-1.4521e-08
3.16143e-09
-6.56084e-09
-1.20218e-08
1.20562e-08
-1.34683e-08
2.96717e-09
-7.92608e-09
1.44522e-08
-3.20606e-09
-1.5148e-08
3.90182e-09
-1.20208e-08
1.12622e-09
-1.32871e-08
3.97169e-09
-1.07226e-08
-8.397e-09
-5.08198e-09
5.30364e-10
1.8385e-09
5.88656e-09
-8.25548e-09
2.66606e-09
9.7501e-09
-1.18858e-08
-1.3376e-09
1.38582e-08
-9.85462e-09
8.29632e-09
-7.79545e-09
7.35026e-09
1.14661e-08
-9.06628e-09
1.97539e-09
4.01359e-09
7.86918e-09
2.2041e-09
-3.68179e-09
9.77395e-09
6.19295e-09
-8.24106e-09
-4.84672e-09
6.89477e-09
-5.40268e-09
1.6506e-08
-4.91047e-09
4.40047e-09
5.67693e-09
-4.19089e-09
1.11932e-08
5.57499e-10
8.22666e-09
5.21474e-09
-3.60063e-10
-5.9992e-09
8.82312e-09
3.47265e-10
1.02454e-08
2.15993e-09
-2.17776e-09
-1.02276e-08
1.35581e-08
-2.25375e-10
-3.08733e-09
-1.66263e-09
1.30033e-08
2.21737e-09
1.11146e-08
-5.78808e-10
-8.37583e-09
9.57014e-09
-1.18197e-10
8.97113e-09
1.10877e-09
-1.22576e-08
1.16629e-08
-2.91719e-09
9.31119e-09
-7.20738e-10
9.79677e-10
-2.53451e-09
-8.68239e-09
1.06381e-08
-1.90402e-09
5.83459e-09
-1.21316e-08
8.20105e-09
6.3601e-09
4.7392e-09
-2.62985e-09
-4.92485e-09
1.33893e-08
-5.45821e-09
9.18848e-09
-1.37566e-08
1.60792e-08
-7.24744e-09
5.67866e-09
-1.82568e-09
9.10852e-09
-1.05343e-08
-4.67324e-10
-1.38219e-12
1.36687e-08
-5.18747e-09
6.2727e-10
-5.5526e-10
3.17327e-09
-6.81841e-09
-4.59772e-11
3.69112e-09
-9.06871e-09
4.73e-09
7.51198e-09
4.27331e-09
-8.88234e-09
-2.20938e-09
-4.93091e-09
1.35508e-10
-1.45882e-08
9.7852e-09
-6.60224e-09
1.14053e-08
1.09801e-08
-1.94885e-08
-6.0798e-09
6.86596e-09
-3.84716e-09
7.96129e-09
1.43999e-09
1.52112e-08
-6.44752e-09
2.99667e-09
8.18085e-09
-2.73031e-09
-8.6481e-09
-3.78526e-09
4.24995e-09
7.62932e-09
-8.09399e-09
1.56382e-09
-1.01092e-08
4.76011e-09
4.79947e-11
-4.88593e-09
1.63555e-08
-1.20575e-08
3.27359e-09
6.47965e-09
-6.81788e-09
1.12545e-08
-8.54823e-09
4.6551e-09
-2.23713e-09
-2.68351e-09
-3.96169e-09
8.50997e-09
-7.58834e-10
-1.21812e-10
6.38084e-09
-9.70295e-09
4.96569e-09
-4.40452e-09
2.36819e-09
1.89311e-08
-8.30663e-09
1.26904e-08
-2.92201e-09
-3.51604e-09
8.80759e-09
7.39877e-09
1.02677e-08
5.14725e-09
9.85507e-09
-3.73748e-09
4.15004e-09
-8.48693e-10
-2.08822e-09
1.27919e-08
7.84554e-09
-1.23946e-08
8.11466e-10
-2.63704e-09
9.63388e-09
-1.74081e-09
8.46016e-09
2.68414e-09
-2.98557e-09
-1.16664e-08
-1.71069e-09
-9.97565e-09
9.93364e-10
-4.5957e-10
-7.29118e-09
6.0099e-09
-9.56116e-09
7.39089e-09
3.04e-09
-2.47009e-09
-6.75796e-09
2.36788e-10
2.65071e-09
3.45699e-10
2.74415e-09
-1.00434e-08
-3.47079e-10
2.03408e-09
8.35649e-09
-6.99264e-09
6.5051e-09
-9.55588e-09
-9.59491e-09
7.6536e-09
1.59424e-09
-2.05599e-09
-1.45315e-08
-3.1034e-09
-1.34999e-09
1.09585e-08
5.49335e-09
-1.53357e-08
7.78634e-09
4.35489e-09
2.82574e-09
6.46459e-09
-1.36452e-08
1.60782e-08
-1.86509e-08
6.92759e-09
5.33168e-09
-2.94172e-09
-5.17856e-09
9.65348e-09
-5.43269e-09
9.57782e-10
5.30078e-09
-1.8211e-09
1.03809e-09
6.11469e-09
-2.42065e-09
8.07637e-09
1.12175e-09
-6.77745e-09
-1.54205e-09
7.42797e-09
-8.30658e-09
-1.18068e-08
7.23605e-10
9.54117e-09
-9.77814e-09
6.76649e-09
-9.70358e-09
1.27152e-08
1.49088e-09
-3.06164e-09
-3.21902e-09
7.93582e-09
2.71118e-09
4.96147e-09
-1.04109e-10
8.88161e-09
-6.26898e-09
3.58902e-09
-5.46744e-10
5.58491e-09
-8.62718e-09
1.40035e-08
-1.41772e-08
3.76268e-09
3.46253e-09
8.76324e-09
-3.34415e-09
8.31551e-09
1.08506e-10
3.61768e-09
-2.85461e-09
7.55245e-09
1.15614e-08
8.19518e-10
4.53447e-09
-2.04043e-10
-1.40587e-08
1.2185e-08
2.07777e-09
-1.49982e-08
1.26563e-08
2.13792e-09
1.88231e-09
7.50548e-09
-7.87509e-09
-1.51271e-09
8.9821e-09
-7.27629e-09
1.76499e-10
-8.1354e-09
-3.47387e-09
3.99983e-09
7.60944e-09
8.67159e-10
-2.04655e-11
5.39439e-09
-4.2761e-09
-1.5177e-08
1.61684e-11
-9.61999e-09
4.37537e-09
-4.16932e-09
1.1979e-08
-7.23882e-11
1.7104e-08
2.61071e-11
4.00553e-09
3.78035e-09
8.24437e-12
-1.16637e-08
4.11772e-09
-7.61365e-09
-8.61397e-09
4.47076e-09
-1.28818e-08
1.16182e-08
-1.17743e-08
1.02327e-09
1.55456e-08
-7.6404e-09
1.28893e-08
-8.59374e-09
7.91649e-10
-5.08727e-09
1.95109e-09
1.22919e-09
9.70905e-09
2.03402e-08
-1.28116e-08
-1.61223e-08
-8.96293e-09
1.7269e-08
1.20341e-08
1.24564e-08
-7.11352e-09
-4.5512e-09
3.78346e-09
1.0624e-08
9.13581e-09
7.73776e-10
-2.27212e-08
5.60276e-09
-5.42989e-09
3.99259e-09
1.45056e-08
1.41822e-08
4.96475e-10
-9.07592e-09
1.04382e-08
3.14831e-09
5.95641e-10
-5.64864e-09
3.01527e-09
6.41681e-09
-8.56562e-09
3.05764e-09
-1.40653e-10
-7.72619e-09
-7.95295e-09
1.59499e-09
1.28358e-08
-5.33242e-09
-8.05363e-09
1.38825e-08
1.55905e-08
-1.09803e-08
-1.22848e-08
-2.4009e-09
3.38833e-09
-1.76541e-09
3.20378e-09
-3.83925e-09
-6.04503e-09
1.99574e-09
-2.23718e-09
3.76563e-09
1.8599e-09
1.23309e-09
-2.66477e-10
1.90332e-09
4.29787e-09
-2.36749e-09
-3.83367e-09
3.24514e-09
-1.08724e-10
3.08953e-10
4.0025e-09
6.82473e-10
6.64528e-09
-6.5155e-09
-2.75269e-10
3.82938e-09
4.70507e-09
5.1514e-09
-6.15296e-09
2.84183e-09
2.79011e-09
5.97976e-09
-3.61847e-09
6.29992e-09
-1.75878e-09
3.52007e-09
-1.02732e-08
2.22443e-09
-6.80527e-09
4.17237e-09
-5.28031e-09
4.20391e-09
7.37631e-09
5.88431e-10
1.11009e-10
2.04877e-09
-4.81784e-09
2.85339e-09
-3.10459e-09
3.39458e-09
4.76673e-09
-1.06678e-08
-4.37218e-09
-2.84243e-09
8.03892e-10
2.07538e-09
-4.19424e-09
-2.69898e-09
-9.24077e-10
-1.05126e-10
-3.70175e-10
-4.93446e-09
-6.53278e-09
-2.83154e-09
1.86511e-09
7.49923e-09
6.23417e-10
-6.92966e-09
-2.26509e-10
-1.4896e-09
-5.91088e-09
4.56895e-09
-6.26184e-09
3.58061e-09
1.19165e-09
6.56834e-09
-6.70375e-09
1.03641e-08
-1.93066e-09
2.77185e-09
-6.80597e-09
-2.22774e-09
-3.19447e-09
5.54493e-11
-2.8868e-09
-6.90996e-09
2.86711e-09
-6.08275e-09
1.47772e-12
-2.56973e-09
-6.48653e-10
1.06082e-08
-7.38983e-09
-1.74704e-09
-3.6193e-10
-3.97378e-09
-2.4484e-09
-6.20859e-09
-7.72439e-09
-1.54909e-09
-2.34494e-09
2.26214e-09
-2.41767e-09
2.50042e-09
4.12249e-11
7.36212e-09
-4.90576e-09
-1.01316e-08
-1.88895e-09
4.66723e-09
-1.30752e-10
-2.64754e-09
4.65502e-09
-2.33261e-10
-6.31076e-09
2.89801e-09
4.00545e-09
-4.13536e-09
-2.76815e-09
3.55857e-09
-6.21863e-10
-3.87111e-11
4.06855e-09
5.07006e-09
-4.48361e-09
-2.68587e-09
6.70219e-09
5.22069e-11
-2.87887e-09
3.65106e-09
2.78633e-09
7.08223e-10
4.18337e-10
4.33386e-09
-2.35251e-09
-1.92341e-09
-2.34271e-09
3.9579e-09
-6.11461e-09
-4.15295e-09
3.6544e-09
-1.23357e-10
1.94468e-09
-4.61684e-11
-4.30987e-09
2.41123e-09
-2.8056e-09
-2.71077e-10
5.02134e-09
3.59601e-09
-2.5161e-10
1.72564e-09
7.49262e-09
-1.38497e-09
-2.8925e-09
4.00633e-09
2.21989e-09
7.32207e-10
3.88361e-09
-4.07869e-09
-2.51798e-09
3.27989e-09
1.11404e-09
4.37269e-09
7.95997e-09
-8.15262e-09
-4.18002e-09
-6.80992e-10
5.21051e-09
-1.56821e-10
-1.13241e-08
9.23734e-09
6.61362e-09
-4.52686e-09
-8.76265e-10
6.63117e-09
-1.7079e-08
5.68958e-09
-4.28031e-09
5.08836e-09
-6.49763e-09
5.191e-09
-1.82408e-10
3.39829e-09
3.33736e-10
4.22796e-09
3.76783e-09
4.84098e-09
-1.33092e-08
4.82926e-09
4.74183e-09
-5.22259e-09
1.09467e-08
8.89532e-10
6.29188e-09
-4.88329e-09
-7.18113e-09
6.54561e-09
5.82654e-09
2.59662e-10
-2.35243e-09
5.54839e-09
-9.20161e-11
1.04055e-08
8.73897e-09
-2.18742e-09
1.41954e-08
-3.33967e-09
5.06295e-09
-5.14045e-09
3.41717e-09
1.17146e-09
-4.43582e-09
-7.53709e-11
-4.87343e-09
-6.69068e-10
-1.9775e-09
-2.89085e-09
-4.51387e-09
2.53139e-09
8.33702e-09
6.41022e-09
-6.81346e-09
-7.93371e-09
1.59901e-09
3.84724e-09
1.18477e-08
-2.74919e-09
-2.68823e-09
5.94792e-09
7.49878e-09
-3.55383e-09
2.07228e-09
-1.43182e-09
-2.45192e-09
6.95407e-11
7.63358e-10
-1.75542e-09
-3.44372e-09
-1.16458e-09
-3.2125e-09
-3.0198e-09
-2.65863e-09
-3.13678e-09
1.05536e-09
3.00179e-09
-5.48894e-09
-2.49664e-09
-4.23247e-09
4.97369e-09
-9.04608e-10
-6.6211e-09
5.02912e-09
-2.06099e-09
-7.77224e-09
5.73394e-09
-6.13976e-09
-2.34335e-09
3.65253e-09
-9.10536e-09
2.9832e-09
-6.64349e-09
-1.96843e-09
5.62872e-09
-5.55614e-09
1.11152e-09
7.42783e-09
-6.58948e-09
2.56231e-10
7.77085e-10
4.67499e-09
-6.70377e-09
-4.5607e-09
-1.9316e-09
-3.68886e-11
-4.77786e-09
9.2189e-09
-8.97647e-09
4.53544e-09
-6.54311e-09
-1.66343e-10
1.61921e-08
-2.1529e-09
3.99381e-09
-1.8033e-08
3.96268e-09
1.05381e-08
1.69126e-09
1.56059e-09
5.68987e-09
-8.20601e-09
-2.52572e-09
1.18432e-08
-8.96818e-09
1.01839e-09
-2.7221e-10
-1.79273e-09
-6.91152e-09
-1.53372e-09
-5.2816e-09
1.02038e-08
9.21448e-10
-1.32781e-08
5.19823e-09
1.27879e-08
-1.05869e-08
1.22309e-08
1.10952e-08
1.12657e-08
-7.31604e-09
7.52023e-10
9.20579e-09
-3.32447e-09
-6.63342e-09
-3.67127e-09
4.28374e-09
-4.3956e-09
3.78309e-09
4.34607e-10
-5.82001e-09
1.71412e-09
-1.88982e-09
6.92555e-09
-6.14789e-10
1.79872e-09
8.02182e-09
-6.46063e-09
8.19831e-10
5.02595e-09
-7.37388e-09
-8.9745e-09
2.77566e-09
5.89942e-09
1.00679e-09
-5.52018e-09
-1.38604e-09
3.09056e-10
6.38686e-09
-7.96528e-10
-2.10643e-09
-4.1529e-10
-7.85386e-09
1.03755e-08
8.3564e-09
-9.643e-09
-6.0529e-09
7.43631e-09
-6.33261e-09
-1.12491e-10
-5.21332e-09
2.69796e-10
-2.85743e-09
8.78407e-09
-1.00818e-08
-6.55615e-09
2.1923e-09
-1.58443e-08
1.55469e-08
-1.89487e-09
-8.63667e-09
1.07165e-08
-5.96388e-09
2.68664e-09
2.42537e-09
-6.02634e-09
-2.36292e-09
-7.01728e-09
-1.15414e-08
3.60267e-09
1.49561e-08
6.11651e-10
-1.92314e-08
1.16024e-08
3.94798e-09
-1.00592e-08
6.72289e-09
5.89181e-09
1.05804e-08
-9.41825e-09
-7.05397e-09
-6.87364e-09
1.22403e-09
-2.3243e-09
-6.32673e-09
-6.7904e-09
-2.38147e-09
-2.72465e-09
1.18966e-08
-3.46091e-09
5.96856e-09
-9.29805e-09
-1.81324e-09
-6.87714e-09
1.22931e-08
-7.62658e-09
9.76134e-09
-1.25518e-08
1.7455e-09
7.47137e-10
-7.12517e-09
1.76168e-09
-1.51015e-09
-3.92976e-09
-1.26136e-08
4.90367e-09
-1.22943e-08
8.29852e-09
-5.77631e-09
-6.57761e-09
7.68312e-09
3.15252e-09
-4.86705e-09
6.97965e-09
2.16053e-09
-1.45706e-09
2.79955e-09
-8.68062e-09
-7.21413e-09
7.31664e-09
-2.29996e-09
-1.81577e-09
-1.19208e-08
3.20229e-09
-1.52268e-08
1.15337e-09
-8.25644e-09
-6.08081e-09
1.00008e-08
-3.45021e-09
-1.4807e-08
1.06725e-09
-2.98723e-09
-2.42958e-09
-9.34708e-09
3.09428e-09
-1.05725e-08
-2.32861e-10
6.63684e-09
-1.46139e-08
-6.8667e-09
-1.41312e-09
7.40646e-09
-7.63631e-09
1.57576e-09
5.43957e-09
6.01698e-09
-3.20769e-09
-3.21123e-09
5.99253e-09
2.65823e-09
6.93859e-09
-2.68565e-09
3.82814e-09
9.55063e-09
-3.76666e-09
1.35873e-08
9.42703e-09
4.6402e-10
6.47265e-09
-6.616e-09
-3.20649e-10
-8.07908e-09
-2.86357e-10
6.95406e-09
-3.67661e-10
-1.13726e-10
1.48191e-09
-6.62395e-09
5.07629e-09
6.57139e-11
-5.80429e-09
1.87557e-10
1.33031e-09
-7.31337e-09
6.29013e-09
-3.07043e-10
7.27388e-09
-5.90853e-09
-3.50166e-11
1.80311e-09
-4.7444e-09
-8.88712e-11
9.8571e-11
-1.98408e-09
6.09049e-09
-4.00345e-09
-1.02934e-10
4.38377e-09
-6.03856e-09
-3.2929e-10
2.45887e-09
3.60282e-09
-6.11976e-09
5.80903e-11
-4.12494e-09
3.05405e-10
-2.63364e-09
1.95886e-10
1.23611e-10
8.38562e-09
-8.32625e-09
-1.82952e-10
7.66838e-09
-7.44035e-09
-1.04403e-10
7.26084e-10
-4.482e-09
3.6921e-09
6.38124e-11
3.65443e-09
-3.00083e-09
7.24701e-11
2.61657e-09
-5.80117e-09
3.35017e-09
-1.65559e-10
2.28132e-09
2.73012e-09
-1.70459e-10
4.91738e-09
-1.94948e-11
-4.53385e-09
7.27649e-09
-1.25126e-11
1.33934e-10
3.50503e-09
-3.61934e-09
-1.96712e-11
3.85857e-09
-3.71269e-09
-1.19428e-11
4.5032e-09
-1.32507e-09
3.26853e-10
3.59584e-10
7.38764e-09
-7.3982e-09
-3.49033e-10
-5.88299e-09
-2.55059e-10
8.16326e-09
-2.91983e-09
-3.83119e-10
2.4097e-09
2.28741e-09
-4.65949e-09
-3.75728e-11
-2.23884e-09
4.49875e-09
1.49807e-10
-1.29048e-09
1.00243e-08
-8.70883e-09
-2.5018e-11
9.76392e-09
-1.50015e-10
-1.30577e-09
3.96779e-09
-2.57234e-09
-8.96652e-11
3.3976e-09
-4.41673e-09
-2.86624e-10
2.99064e-09
3.95826e-09
-6.75988e-09
-1.89006e-10
6.72136e-09
-3.03585e-11
-3.82925e-09
7.72558e-09
6.19337e-11
-1.10497e-09
-2.39101e-09
3.45928e-09
3.67112e-11
1.8855e-09
-2.95911e-09
-3.13315e-11
-1.90037e-09
3.70602e-09
7.98622e-11
9.24846e-10
4.8166e-09
-5.62193e-09
-1.19497e-10
-6.69409e-09
-1.78497e-11
7.6099e-09
-2.77537e-09
-1.79217e-11
-1.15474e-09
-2.07373e-09
3.19605e-09
3.24133e-11
2.24384e-09
-3.2813e-09
-1.17273e-10
-1.37367e-09
3.64017e-09
-2.2651e-11
-8.57442e-10
-5.61769e-09
6.39232e-09
8.28124e-11
-7.99637e-09
7.12796e-09
1.09449e-11
1.99799e-09
-7.55179e-09
-6.3889e-11
2.41086e-09
3.72873e-09
-5.92928e-09
-2.10327e-10
-3.37481e-09
5.70059e-09
8.50855e-11
2.39275e-09
-1.38838e-10
-4.68641e-10
-5.97886e-09
6.54255e-09
-9.50522e-11
7.28684e-09
-7.5881e-09
-1.6737e-10
-3.08321e-09
-7.9252e-10
3.82201e-09
5.37038e-11
1.95389e-09
-4.88606e-09
-1.51074e-10
4.83594e-09
-5.61366e-09
-1.47993e-11
5.59773e-09
3.65366e-09
-9.14846e-09
-1.02936e-10
-2.6809e-09
8.2005e-09
7.8109e-11
-8.22956e-09
5.75042e-09
-2.01771e-10
4.20635e-09
-5.95475e-09
1.71214e-09
3.62658e-11
4.44983e-09
-7.05124e-09
2.56678e-09
3.4605e-11
-6.48803e-11
4.16922e-09
3.45477e-10
3.88041e-09