# vtk DataFile Version 2.0
Vessel Segment
ASCII
DATASET POLYDATA
POINTS 180 float
-2.498830080654581 29.65040869418832 4.146200195868181
-2.49534685827301 29.121635761618062 3.7523489944167303
-2.4918636358914394 28.5928628290478 3.358497792965278
-2.488380413509868 28.064089896477533 2.9646465915138274
-2.4848971911282973 27.53531696390727 2.5707953900623766
-2.4814139687467263 27.006544031337008 2.1769441886109258
-2.477930746365155 26.477771098766745 1.783092987159475
-2.474447523983584 25.948998166196482 1.3892417857080237
-2.470964301602013 25.42022523362622 0.9953905842565725
-2.4674810792204425 24.891452301055956 0.6015393828051211
-2.463997856838871 24.362679368485693 0.20768818135366987
-2.4605146344573003 23.83390643591543 -0.18616302009778143
-2.4570314120757297 23.305133503345168 -0.5800142215492318
-2.4535481896941587 22.776360570774905 -0.9738654230006829
-2.4500649673125876 22.247587638204642 -1.3677166244521346
-2.4465817449310165 21.71881470563438 -1.7615678259035858
-2.4430985225494455 21.190041773064117 -2.1554190273550375
-2.4396153001678744 20.661268840493854 -2.549270228806489
-2.4361320777863034 20.13249590792359 -2.94312143025794
-2.4326488554047323 19.603722975353328 -3.3369726317093913
-2.477194501459545 19.06077663656231 -3.7037738670634104
-2.602292424788656 18.499210309699897 -4.020770932383538
-2.8151514355151743 17.93012366582959 -4.272416167254146
-3.1103252968044743 17.368745248576317 -4.449493999029883
-3.471710749372936 16.82726847302897 -4.553237016348242
-3.8811991507421446 16.311787333400883 -4.589708371871291
-4.315723354115038 15.816287443952973 -4.578127148741367
-4.758493237252296 15.329705232490962 -4.536425657571941
-5.196249627197178 14.839901786265855 -4.480461565487502
-5.616096643931349 14.334683320801268 -4.426818906595706
-6.00366543392953 13.803264188448345 -4.395115827255791
-6.3428310094011024 13.239941846278299 -4.409479056465443
-6.6191464822736545 12.650144513099963 -4.495838444266462
-6.827054039407134 12.05281756695597 -4.672970958434662
-6.974186500259346 11.47234257474706 -4.943719517031767
-7.076417740613191 10.926322573039636 -5.296184654796885
-7.148881288192163 10.42126953635935 -5.712610944973262
-7.2009688684210555 9.956011915780865 -6.176567196907609
-7.233942471872213 9.527695291225081 -6.676756487623091
-7.239660196315808 9.130262402702192 -7.202703411543044
-7.206287515056763 8.755583527861639 -7.743808278194881
-7.114746992729142 8.40151302662961 -8.291518510913122
-6.944891362907652 8.068252460570463 -8.832897625832171
-6.687288315128814 7.756013892231803 -9.351457893092276
-6.353700988170591 7.460535044303029 -9.835941837325969
-5.971297436072619 7.1712457190472865 -10.287821420193625
-5.567900760787185 6.875075900795164 -10.716897706617559
-5.164538321316851 6.560710726485343 -11.132771289821841
-4.775963499683767 6.2190662163716 -11.54081037977198
-4.413684305958281 5.841455926288229 -11.941274955987533
-4.0888699152009265 5.4167721946732135 -12.327113076966201
-3.8181288839287335 4.925026061105785 -12.672952504642275
-3.616372917482275 4.355530315542025 -12.933575917730463
-3.5339503187155086 3.712319678167408 -12.98939241156034
-3.5951193107914543 3.1122658223447965 -12.760439419078264
-3.7634612770901152 2.6729308184734295 -12.31144916363688
-3.984910430833975 2.402159301813548 -11.757556799173914
-4.2301286269302825 2.2662897064618193 -11.163754154498683
-4.485837859448194 2.2426281076257144 -10.559100123622363
-4.743726034064372 2.32246786313847 -9.960306574534709
-4.995836215023901 2.504130817780715 -9.381688145200318
-5.233175927224098 2.785381959804924 -8.837396787709519
-5.446952795393568 3.155873743013781 -8.337759667718853
-5.631347461093593 3.594778942393929 -7.882687066373005
-5.784356238176894 4.076722753565295 -7.459891277475397
-5.905629386956441 4.578725887575377 -7.050112063383451
-5.991885365807067 5.08103137866083 -6.631804980393234
-6.036513919339551 5.563507864905303 -6.184796878256623
-6.035932750641926 6.010513546774816 -5.7010079215806595
-5.983957593647143 6.405272811141236 -5.177323560531616
-5.875894946119398 6.727780000146499 -4.61525838154051
-5.710440297960035 6.951868293461893 -4.02133056774119
-5.49327545449769 7.041338216621642 -3.4102211883927134
-5.244149425748031 6.950452486883005 -2.8134673860528574
-5.004200951104728 6.646603072919143 -2.2879502844339417
-4.8232005074058115 6.155932332975617 -1.8921444798193405
-4.725287435739341 5.557488274401045 -1.634597913117328
-4.691106449279675 4.922442593937293 -1.4605985013557512
-4.706306416277652 4.276660356521666 -1.328439586470695
-4.752011089161871 3.631757736051116 -1.1994102783991267
-4.815588910767832 2.9926213100041066 -1.0510079222707385
-4.886197667776441 2.362585725571205 -0.8709453541952782
-4.953772284206668 1.7429738106106378 -0.6568203400023613
-5.009581650665931 1.1316938121682965 -0.4164925202789809
-5.047329367205338 0.5227897674779299 -0.1666610270939884
-5.063965884474934 -0.09180971031169273 0.07076406325790535
-5.059985629827576 -0.7185937598058991 0.2738236964851455
-5.0390738868849665 -1.3591337550528306 0.426791524948768
-5.006606439586057 -2.010034696621373 0.5253763799029164
-4.967466758244932 -2.6662033991637886 0.5767203578873816
-4.923586537646045 -3.323868756614945 0.5935286829287987
-4.873806018457243 -3.9812769344125303 0.6004941186487512
-4.813108795902961 -4.637605419938047 0.6149491131868714
-4.733742804936014 -5.29075907835321 0.6519414693165253
-4.6251004305180246 -5.93612321450955 0.7249972656917616
-4.473681387234649 -6.56508293923825 0.8455319748461242
-4.264521099400159 -7.163804141694981 1.020370513755789
-3.985216586014806 -7.714271170017119 1.2481687490157776
-3.630695816202621 -8.198891082306881 1.5181284119137521
-3.2056376008909755 -8.606984251317153 1.8129906870477583
-2.7206430795845984 -8.936000750963347 2.1150836747274404
-2.1888943869490283 -9.190669490141595 2.409940599080497
-1.627203859232995 -9.389321155501522 2.691391206249353
-1.0456548959288634 -9.545552700076042 2.9589707617738337
-0.4515087986644842 -9.671046685870651 3.2152328473281493
0.15003569455968496 -9.774869835055103 3.4641856862519664
0.755208950445973 -9.863452026798257 3.7103731955607016
1.3613136932106993 -9.940375915916508 3.9582052194700506
1.9665919805868115 -10.005891423321001 4.211296547330409
2.5699869693900577 -10.056284604681599 4.472269210077602
3.17103703632462 -10.084195607888994 4.7418342307421275
3.769424471463004 -10.08444959805597 5.018478389017236
4.364065257563255 -10.051731903972495 5.300949430717471
4.953302532058917 -9.983343002741822 5.588136948098731
5.535314086814579 -9.87982308275917 5.87950717126759
6.1086958813700925 -9.744821928255982 6.175232129405188
6.672848506651097 -9.583991649949372 6.475948230916062
7.22812035992618 -9.403756642092672 6.782296770402045
7.775784237122359 -9.210460690688876 7.094408450719694
8.317842770506733 -9.009427096955003 7.411408053414215
8.856941430778177 -8.805136165909616 7.731360496642896
9.397077574256652 -8.602463756740317 8.050591125239501
9.941982660638375 -8.406557517638213 8.365886440201558
10.495007695302963 -8.224763685462223 8.675304353791207
11.058538727164766 -8.066695821801915 8.97840733713862
11.63312781606746 -7.9439496404517 9.276554755797648
12.21648013085612 -7.86951118554442 9.573111379467948
12.80234165136272 -7.856677922874704 9.873517681486733
13.379426159174773 -7.917234989913798 10.185119082579854
13.930804027981791 -8.059559569310006 10.516720948690908
14.433278866536558 -8.287356260555562 10.877774158091963
14.858706653111298 -8.596506004366459 11.275299778655592
15.1868543385999 -8.969314754928032 11.708090631928902
15.404857333647639 -9.384825972876332 12.169983682345698
15.516074026507662 -9.820112178185163 12.651079967008132
15.536365910674672 -10.25687079636333 13.143171631751168
15.487449337437393 -10.684136723298748 13.64187778839484
15.389179648973997 -11.096892995273752 14.145913619372102
15.258166321611423 -11.493969168569066 14.655428486271077
15.108213306097547 -11.876988411670695 15.170660440871728
14.951517964654492 -12.250345036803903 15.691020859574682
14.800358747381193 -12.62183431925294 16.21430712085186
14.668179081372752 -13.003517883038137 16.73536869743281
14.573417409599582 -13.412207188479 17.244018865154096
14.536592393766979 -13.864178396521714 17.72251389476255
14.574979647844854 -14.366000343240476 18.147636643931964
14.696409708846272 -14.910707607587884 18.49626851244849
14.828270413796112 -15.460706890502312 18.83515678197935
14.960131118745952 -16.01070617341674 19.17404505151021
15.091991823695793 -16.560705456331167 19.512933321041068
15.223852528645633 -17.110704739245605 19.851821590571937
15.355713233595473 -17.66070402216003 20.190709860102793
15.48757393854531 -18.210703305074446 20.529598129633644
15.61943464349515 -18.760702587988874 20.868486399164503
15.751295348444987 -19.310701870903298 21.20737466869536
15.883156053394824 -19.860701153817722 21.546262938226214
16.015016758344665 -20.410700436732146 21.885151207757072
16.146877463294505 -20.96069971964657 22.224039477287928
16.27873816824434 -21.510699002561005 22.56292774681879
16.410598873194186 -22.06069828547543 22.90181601634965
16.54245957814402 -22.610697568389853 23.240704285880504
16.674320283093863 -23.16069685130428 23.579592555411367
16.8061809880437 -23.7106961342187 23.918480824942215
16.938041692993536 -24.26069541713312 24.25736909447307
17.069902397943373 -24.81069470004755 24.59625736400393
17.201763102893214 -25.36069398296197 24.935145633534784
17.333623807843054 -25.910693265876393 25.274033903065643
17.465484512792894 -26.460692548790824 25.612922172596505
17.59734521774273 -27.01069183170525 25.95181044212736
17.72920592269257 -27.560691114619665 26.290698711658212
17.861066627642405 -28.110690397534082 26.629586981189064
17.992927332592245 -28.660689680448506 26.96847525071992
18.124788037542082 -29.210688963362927 27.307363520250775
18.25664874249192 -29.76068824627735 27.646251789781633
18.38850944744176 -30.310687529191775 27.985140059312485
18.5203701523916 -30.86068681210621 28.324028328843347
18.652230857341436 -31.410686095020626 28.662916598374203
18.784091562291273 -31.960685377935043 29.00180486790506
18.915952267241114 -32.51068466084946 29.340693137435913
19.04781297219095 -33.06068394376389 29.67958140696677
LINES 1 181
180 0 1 2 3 4 5 6 7 8 9 10 11 12 13 14 15 16 17 18 19 20 21 22 23 24 25 26 27 28 29 30 31 32 33 34 35 36 37 38 39 40 41 42 43 44 45 46 47 48 49 50 51 52 53 54 55 56 57 58 59 60 61 62 63 64 65 66 67 68 69 70 71 72 73 74 75 76 77 78 79 80 81 82 83 84 85 86 87 88 89 90 91 92 93 94 95 96 97 98 99 100 101 102 103 104 105 106 107 108 109 110 111 112 113 114 115 116 117 118 119 120 121 122 123 124 125 126 127 128 129 130 131 132 133 134 135 136 137 138 139 140 141 142 143 144 145 146 147 148 149 150 151 152 153 154 155 156 157 158 159 160 161 162 163 164 165 166 167 168 169 170 171 172 173 174 175 176 177 178 179

POINT_DATA 180
SCALARS MaximumInscribedSphereRadius float
LOOKUP_TABLE default
1.5
1.5
1.5
1.5
1.5
1.5
1.5
1.5
1.5
1.5
1.5
1.5
1.5
1.5
1.5
1.5
1.5
1.5
1.5
1.5
1.5
1.5
1.5
1.5
1.5
1.5
1.5
1.5
1.5
1.5
1.5
1.5
1.5
1.5
1.5
1.5
1.5
1.5
1.5
1.5
1.5
1.5
1.5
1.5
1.5
1.5
1.5
1.5
1.5
1.5
1.5
1.5
1.5
1.5
1.5
1.5
1.5
1.5
1.5
1.5
1.5
1.5
1.5
1.5
1.5
1.5
1.5
1.5
1.5
1.5
1.5
1.5
1.5
1.5
1.5
1.5
1.5
1.5
1.5
1.5
1.5
1.5
1.5
1.5
1.5
1.5
1.5
1.5
1.5
1.5
1.5
1.5
1.5
1.5
1.5
1.5
1.5
1.5
1.5
1.5
1.5
1.5
1.5
1.5
1.5
1.5
1.5
1.5
1.5
1.5
1.5
1.5
1.5
1.5
1.5
1.5
1.5
1.5
1.5
1.5
1.5
1.5
1.5
1.5
1.5
1.5
1.5
1.5
1.5
1.5
1.5
1.5
1.5
1.5
1.5
1.5
1.5
1.5
1.5
1.5
1.5
1.5
1.5
1.5
1.5
1.5
1.5
1.5
1.5
1.5
1.5
1.5
1.5
1.5
1.5
1.5
1.5
1.5
1.5
1.5
1.5
1.5
1.5
1.5
1.5
1.5
1.5
1.5
1.5
1.5
1.5
1.5
1.5
1.5
1.5
1.5
1.5
1.5
1.5
1.5
