# vtk DataFile Version 2.0
Vessel Segment
ASCII
DATASET POLYDATA
POINTS 180 float
3.1912033666793227 30.52075122434181 -5.005315747364843
3.0396756025585847 29.899884123553957 -4.89399202832004
2.888147838437847 29.279017022766098 -4.782668309275237
2.73662007431711 28.658149921978243 -4.671344590230435
2.585092310196373 28.037282821190388 -4.560020871185632
2.4335645460756354 27.416415720402533 -4.448697152140828
2.282036781954897 26.795548619614678 -4.337373433096025
2.13050901783416 26.17468151882682 -4.226049714051223
1.9789812537134222 25.553814418038964 -4.114725995006419
1.8274534895926844 24.932947317251106 -4.003402275961616
1.6759257254719473 24.31208021646325 -3.892078556916813
1.524397961351209 23.691213115675396 -3.7807548378720095
1.372870197230472 23.070346014887537 -3.669431118827206
1.2213424331097347 22.449478914099682 -3.5581073997824033
1.0698146689889971 21.828611813311827 -3.4467836807376004
0.9182869048682599 21.207744712523972 -3.3354599616927976
0.7667591407475226 20.586877611736114 -3.2241362426479947
0.6152313766267852 19.96601051094826 -3.1128125236031914
0.4637036125060474 19.345143410160404 -3.001488804558388
0.3121758483853105 18.724276309372552 -2.8901650855135856
0.1427325752281087 18.107266351430447 -2.838580674712555
-0.07364611361691809 17.507857702108044 -2.945518817377505
-0.32139040586706463 16.950375368783455 -3.1655496100803395
-0.5935459104371085 16.435562178979563 -3.4514313190060393
-0.885447123909662 15.939704285862714 -3.7507564188990887
-1.1971668593159923 15.445962326538936 -4.032837724025289
-1.5293734016386549 14.942081758280127 -4.267532452252414
-1.879543421378547 14.420733631332864 -4.4204329849115185
-2.2387282906934245 13.885458762213716 -4.46390241456574
-2.595697076230289 13.349383130019113 -4.400251352508775
-2.949199713252887 12.820913792530108 -4.272385523547536
-3.31343460963367 12.296258970919325 -4.162003657858167
-3.7002946884736714 11.786861218454813 -4.21732560322251
-4.063748494619351 11.362243188533498 -4.536216314741529
-4.381588908781028 11.01629112066513 -4.981240259107539
-4.6739411261119965 10.70551848965492 -5.46963263454369
-4.957148553133641 10.40104152955408 -5.967530952389055
-5.238374944390767 10.087599712934486 -6.460854573486895
-5.519369411922136 9.755342261749984 -6.941944961125133
-5.793418645583696 9.390059802103426 -7.402700137727836
-6.048205641718661 8.99287057245077 -7.847501272569121
-6.268508590708105 8.566218568922022 -8.282956591399358
-6.437007298228356 8.11888343165561 -8.7203169579257
-6.538487227947734 7.66876421523632 -9.174545118559362
-6.565123619793917 7.240466802206479 -9.658796462362496
-6.518810900483059 6.856088254773901 -10.177035762308918
-6.408085657271549 6.524178952514577 -10.721592775865439
-6.241951200334399 6.236867721539029 -11.27802628316704
-6.0255344050341515 5.97622283571534 -11.830667692487841
-5.758847975570318 5.720758354942258 -12.3636725660309
-5.430962962146754 5.443085729626338 -12.849696147438742
-5.041702841175663 5.1224854764121694 -13.256320669085003
-4.600335715943394 4.754483532677888 -13.550917560716385
-4.125520968820682 4.346285314972128 -13.701073554669875
-3.6474101888054937 3.9168439967013065 -13.686577452238737
-3.2030760727465766 3.4921842294644163 -13.500745568582818
-2.8358579281908014 3.104233706746517 -13.146358617749232
-2.5952465254061226 2.7942695347261326 -12.641112909553861
-2.5180961155519634 2.604210656588506 -12.034938412397306
-2.5935936065899003 2.5469240419379724 -11.399412571513725
-2.7694527470857224 2.5976424181653957 -10.780389013521377
-2.99293652677059 2.7225027220166966 -10.185667156910668
-3.226376036000585 2.897166162836755 -9.60663482042154
-3.4408478272859675 3.106939331441555 -9.032010002609569
-3.6089008927548303 3.3433100864250465 -8.452503303630063
-3.7044423978045824 3.6018533013318823 -7.865882213396768
-3.712596096080874 3.880882300942873 -7.2805592294653705
-3.6393772730222813 4.179471792670136 -6.7093211793128225
-3.509118257043939 4.495189164455123 -6.157831313631005
-3.356344083827528 4.819938345074561 -5.6174908533274195
-3.2067981141153865 5.140665399309617 -5.073812884694602
-3.078963022897462 5.437769554605061 -4.511878759509438
-2.9851212321432894 5.684779082037255 -3.92076630008022
-2.93112631535824 5.850520652735341 -3.2984291378155977
-2.915159481797514 5.907899383682291 -2.655771359228739
-2.9285269009597714 5.845685075081187 -2.013562752166517
-2.9600660306413604 5.670892107022944 -1.3924713398852502
-3.0006692606645835 5.399560530881611 -0.806646773732447
-3.0447962605846115 5.047130230445125 -0.2648836475719958
-3.0901457196798794 4.622798589029629 0.22370173413269276
-3.1384831327922944 4.127481989410957 0.6395566496191187
-3.1946013237288993 3.57746711886968 0.9766097860066811
-3.2654828675105763 2.982839804532422 1.2208990511938025
-3.3581890352817467 2.3595816188816077 1.3655469988712186
-3.476500156221743 1.7256717225605518 1.4165572965055389
-3.6187138957230296 1.0944097536438278 1.3912776749508087
-3.7783341917895044 0.47128208287076134 1.3110954857073542
-3.9462531120626045 -0.1443941994762994 1.1953094138802736
-4.1128223635409125 -0.7562807390885684 1.0588047093757535
-4.26965658791129 -1.368333243216139 0.9118419393470234
-4.409704191067185 -1.9833798768306863 0.7604025194729145
-4.530705258714368 -2.602075357506518 0.6075113377535348
-4.635112841461688 -3.2236524133770335 0.454225969546865
-4.722296000302836 -3.8480763930703192 0.3018982003505878
-4.788328166845102 -4.475859221527141 0.15320827358175115
-4.824107186535627 -5.1078437321690995 0.01310078245490701
-4.810482594698603 -5.744325983734486 -0.10855208667889554
-4.711077059945839 -6.379115071696843 -0.19157439397019463
-4.479502959588637 -6.982539813149435 -0.2035791196327446
-4.104985583953991 -7.501462983602944 -0.12009795571479354
-3.6345488831719632 -7.910917536585339 0.05064196502436433
-3.1233453049896487 -8.23379713661794 0.2838597663648488
-2.6037833518460607 -8.506088707011472 0.5606607494296323
-2.0936616283786584 -8.75696954251209 0.8731735078688403
-1.6024776307748345 -9.009205985127714 1.2135339831960124
-1.1301481760092928 -9.269376965930821 1.5738761849348046
-0.6718262573654368 -9.533990842221172 1.9489103135328831
-0.2173227151256639 -9.791926523564431 2.3331671923775934
0.24685429612317503 -10.025842540844303 2.7207148298474078
0.7322867433837492 -10.216009604900137 3.1054379226687248
1.2424115180422106 -10.346220192427255 3.4828109585787956
1.7706255342752726 -10.408274816623125 3.85281245650302
2.3037943267108507 -10.401696921709089 4.221198814216858
2.826625777309073 -10.330119003358456 4.5977452818346425
3.3244708607527067 -10.200307255450923 4.992543878694498
3.7860454732566713 -10.023528630759252 5.412695976756677
4.207091266322195 -9.817482917458335 5.86109205703603
4.599173971454407 -9.606189303986213 6.33261004851859
4.977850200984376 -9.408754391933941 6.820819246589113
5.359941839401438 -9.23816544203252 7.3163272327756435
5.760122117004586 -9.099447298349919 7.807249065495727
6.188850699976839 -8.989826635043586 8.28088740839387
6.651285737899267 -8.901497183763592 8.726278742950555
7.147278278992495 -8.825718369802754 9.13657994345563
7.6721946467991335 -8.756217934901217 9.510850215920282
8.218069652311359 -8.690764127526316 9.855092018065687
8.774741571138792 -8.631140299609758 10.182791048213083
9.327401360422371 -8.583332413942294 10.519111065368113
9.855855466175996 -8.553246973929097 10.893959935571356
10.333898466387874 -8.547148211172049 11.331732968265124
10.734497067796342 -8.570614504501245 11.84070184294215
11.050236174403162 -8.62888004282416 12.40411342106386
11.303185662265083 -8.728686258718911 12.993025458232351
11.525237914828102 -8.879901309546769 13.583426686479516
11.736203962808206 -9.096019766458786 14.157459985793167
11.938272566561142 -9.388968097004458 14.699708145075611
12.117328198529277 -9.764439368433155 15.197256202193806
12.252042401485873 -10.218178157874403 15.64058704680974
12.329049328363322 -10.734224630838373 16.02597769183538
12.350712603239263 -11.291529853897394 16.357295034325748
12.338760195183964 -11.868796081778447 16.65283141441813
12.323869369241699 -12.45087142557381 16.938812571042607
12.340589123071426 -13.022538095827436 17.244360874727906
12.429462166038732 -13.556138503497284 17.598610144316062
12.627658402831582 -14.001956804439185 18.017428007225956
12.93593309449831 -14.315563398860103 18.48300500949803
13.29491609831822 -14.558220929632222 18.965786654022892
13.653899102138128 -14.800878460404341 19.44856829854776
14.012882105958035 -15.043535991176462 19.931349943072618
14.371865109777946 -15.286193521948581 20.414131587597485
14.730848113597851 -15.528851052720698 20.896913232122344
15.089831117417761 -15.771508583492821 21.37969487664721
15.448814121237664 -16.01416611426494 21.862476521172063
15.807797125057574 -16.256823645037056 22.34525816569693
16.166780128877484 -16.49948117580918 22.8280398102218
16.5257631326974 -16.742138706581304 23.310821454746666
16.884746136517307 -16.98479623735342 23.793603099271532
17.243729140337212 -17.22745376812554 24.276384743796388
17.602712144157124 -17.47011129889766 24.759166388321255
17.961695147977025 -17.712768829669777 25.24194803284611
18.320678151796926 -17.95542636044189 25.72472967737097
18.67966115561684 -18.19808389121401 26.207511321895836
19.038644159436746 -18.440741421986132 26.6902929664207
19.397627163256654 -18.683398952758253 27.173074610945562
19.756610167076566 -18.926056483530374 27.65585625547043
20.115593170896474 -19.16871401430249 28.138637899995285
20.474576174716372 -19.411371545074605 28.62141954452014
20.833559178536287 -19.654029075846726 29.104201189045007
21.192542182356192 -19.896686606618847 29.586982833569877
21.551525186176107 -20.13934413739097 30.069764478094744
21.910508189996015 -20.382001668163092 30.55254612261961
22.269491193815924 -20.62465919893521 31.035327767144466
22.628474197635825 -20.867316729707326 31.51810941166932
22.987457201455737 -21.109974260479447 32.00089105619419
23.34644020527565 -21.352631791251568 32.483672700719055
23.705423209095553 -21.595289322023685 32.96645434524392
24.064406212915458 -21.837946852795802 33.44923598976877
24.423389216735366 -22.080604383567923 33.932017634293636
24.78237222055527 -22.32326191434004 34.41479927881849
25.14135522437518 -22.565919445112158 34.897580923343355
LINES 1 181
180 0 1 2 3 4 5 6 7 8 9 10 11 12 13 14 15 16 17 18 19 20 21 22 23 24 25 26 27 28 29 30 31 32 33 34 35 36 37 38 39 40 41 42 43 44 45 46 47 48 49 50 51 52 53 54 55 56 57 58 59 60 61 62 63 64 65 66 67 68 69 70 71 72 73 74 75 76 77 78 79 80 81 82 83 84 85 86 87 88 89 90 91 92 93 94 95 96 97 98 99 100 101 102 103 104 105 106 107 108 109 110 111 112 113 114 115 116 117 118 119 120 121 122 123 124 125 126 127 128 129 130 131 132 133 134 135 136 137 138 139 140 141 142 143 144 145 146 147 148 149 150 151 152 153 154 155 156 157 158 159 160 161 162 163 164 165 166 167 168 169 170 171 172 173 174 175 176 177 178 179

POINT_DATA 180
SCALARS MaximumInscribedSphereRadius float
LOOKUP_TABLE default
1.5
1.5
1.5
1.5
1.5
1.5
1.5
1.5
1.5
1.5
1.5
1.5
1.5
1.5
1.5
1.5
1.5
1.5
1.5
1.5
1.5
1.5
1.5
1.5
1.5
1.5
1.5
1.5
1.5
1.5
1.5
1.5
1.5
1.5
1.5
1.5
1.5
1.5
1.5
1.5
1.5
1.5
1.5
1.5
1.5
1.5
1.5
1.5
1.5
1.5
1.5
1.5
1.5
1.5
1.5
1.5
1.5
1.5
1.5
1.5
1.5
1.5
1.5
1.5
1.5
1.5
1.5
1.5
1.5
1.5
1.5
1.5
1.5
1.5
1.5
1.5
1.5
1.5
1.5
1.5
1.5
1.5
1.5
1.5
1.5
1.5
1.5
1.5
1.5
1.5
1.5
1.5
1.5
1.5
1.5
1.5
1.5
1.5
1.5
1.5
1.5
1.5
1.5
1.5
1.5
1.5
1.5
1.5
1.5
1.5
1.5
1.5
1.5
1.5
1.5
1.5
1.5
1.5
1.5
1.5
1.5
1.5
1.5
1.5
1.5
1.5
1.5
1.5
1.5
1.5
1.5
1.5
1.5
1.5
1.5
1.5
1.5
1.5
1.5
1.5
1.5
1.5
1.5
1.5
1.5
1.5
1.5
1.5
1.5
1.5
1.5
1.5
1.5
1.5
1.5
1.5
1.5
1.5
1.5
1.5
1.5
1.5
1.5
1.5
1.5
1.5
1.5
1.5
1.5
1.5
1.5
1.5
1.5
1.5
1.5
1.5
1.5
1.5
1.5
1.5
