# vtk DataFile Version 2.0
Vessel Segment
ASCII
DATASET POLYDATA
POINTS 180 float
10.700049887286665 21.816561448853513 1.7404802215827688
10.248905305398745 21.45701663654882 1.503755101923731
9.797760723510823 21.097471824244124 1.2670299822646935
9.346616141622901 20.737927011939433 1.030304862605655
8.895471559734979 20.378382199634743 0.7935797429466177
8.444326977847057 20.018837387330045 0.5568546232875802
7.993182395959135 19.659292575025354 0.320129503628542
7.542037814071214 19.299747762720656 0.08340438396950367
7.090893232183292 18.940202950415966 -0.15332073568953378
6.63974865029537 18.580658138111275 -0.3900458553485714
6.188604068407448 18.221113325806577 -0.6267709750076094
5.737459486519527 17.861568513501886 -0.8634960946666473
5.286314904631605 17.502023701197192 -1.1002212143256849
4.835170322743684 17.142478888892498 -1.3369463339847223
4.384025740855762 16.782934076587804 -1.5736714536437606
3.9328811589678403 16.423389264283113 -1.8103965733027982
3.4817365770799187 16.06384445197842 -2.047121692961836
3.030591995191997 15.704299639673726 -2.283846812620874
2.5794474133040763 15.344754827369034 -2.5205719322799114
2.128302831416154 14.98521001506434 -2.7572970519389495
1.6771582495282327 14.625665202759645 -2.9940221715979867
1.219723840378692 14.242644099197259 -3.1604847094970623
0.7593999074687722 13.830157876444462 -3.2130565737818113
0.3088788767295846 13.405119242178401 -3.157407961674938
-0.12560703914209936 12.982026373248393 -3.014564251848029
-0.5450314848975696 12.568931333392488 -2.8089473497003845
-0.95563015690327 12.170324285147883 -2.561252808919622
-1.369165876211546 11.782851422814781 -2.3011634549744824
-1.7958129423773512 11.404185120907107 -2.049559684055045
-2.246402073021987 11.032298404772877 -1.8333572522622654
-2.729359409881902 10.667309056393744 -1.6914173781499944
-3.240018779235959 10.315509652327933 -1.674019500759854
-3.747989461429277 9.99104260141168 -1.8203243108458007
-4.209039000460855 9.705242070349437 -2.1246626016976746
-4.595380495847776 9.454997856075014 -2.544896621322288
-4.907309204126187 9.226156124165906 -3.033951455454651
-5.145165606749179 9.007295795918631 -3.567142043283433
-5.313622736119601 8.789331493389817 -4.126178258030188
-5.414615948779076 8.566691488718902 -4.699177694930592
-5.450265944074664 8.336026767619876 -5.276617190351127
-5.424349542915242 8.095722565714695 -5.850631304299436
-5.34279997402648 7.845743001145928 -6.41535485525933
-5.212942429244892 7.587573139505349 -6.967379518102824
-5.041903163379507 7.324181874984609 -7.50568965444812
-4.835148303266617 7.05977005071159 -8.030894310023047
-4.596186497461371 6.798920287619842 -8.54411249993109
-4.327690486863362 6.544995103266983 -9.046107475097113
-4.032921419822268 6.298474369497625 -9.536999673825896
-3.7161881438126363 6.05641902969982 -10.016395262726697
-3.382416547574958 5.813033763847045 -10.483464414532234
-3.036414305397101 5.557778394726595 -10.93509460953995
-2.685777633140439 5.274299178193404 -11.365728754105744
-2.338894361573824 4.946952628980193 -11.766676680311418
-2.007500616668027 4.552414960894328 -12.115369243523519
-1.7156236290079403 4.062613488287688 -12.361056477029784
-1.5430659517470338 3.4750645284684896 -12.34404769412999
-1.5163902071969937 2.942028692107459 -12.045144502707604
-1.5918226189142393 2.560830728047287 -11.563358140851921
-1.712802653825527 2.3336484676191227 -10.996413157139251
-1.8460941827158266 2.22825376638378 -10.396612142228328
-1.9772860373812475 2.2257263676712262 -9.787001612771341
-2.0990430186653954 2.3132605103464976 -9.181844249632167
-2.2094863315354996 2.4729249134164277 -8.589531699479133
-2.311167462770224 2.687085515902688 -8.012998083097553
-2.411273506142102 2.9366125651996127 -7.45044408778304
-2.5221486495729732 3.2021457508533975 -6.897262957409542
-2.6576304159023025 3.4658073842179333 -6.3487495404840475
-2.8227387043172927 3.7187025191723135 -5.803326270856959
-3.0120296147152743 3.9609492919438942 -5.2608663057846625
-3.212628104493506 4.197014697804624 -4.719688961029796
-3.4098299421981446 4.430442503556597 -4.176162897057945
-3.5905121930702233 4.661250902800807 -3.6259401631141412
-3.7437835192102544 4.885086356665636 -3.0647775728741253
-3.860587525456693 5.093116468271149 -2.489036665445814
-3.933375803956465 5.271840170315477 -1.8963474064652606
-3.955432278380889 5.401725317736279 -1.286850853140244
-3.923705724112942 5.45853890545672 -0.6668322305047171
-3.845177664697907 5.428406617831177 -0.04972695905219663
-3.7281076961049147 5.301470625294737 0.5480043873305898
-3.5831351874864774 5.076328745932677 1.1090089356602526
-3.4208635256366673 4.757751852080336 1.6170300615175006
-3.2507158343033007 4.353421905558704 2.0563623152133594
-3.0812385209539785 3.872646154299839 2.410013982306194
-2.921121835598936 3.3279456639130176 2.6591379527597088
-2.7797700811102786 2.738137985238319 2.786380294540061
-2.6660397069572124 2.128743038667433 2.7843692205465955
-2.5854283782394294 1.5253400692569177 2.66300504085744
-2.5384514288350895 0.9441283268884508 2.4468186337526014
-2.521925706279804 0.3889495309593377 2.1648756527142567
-2.5314616477261067 -0.1449685295517856 1.8431541228703008
-2.5630290551827035 -0.6667108998493309 1.5031207810693616
-2.61540724942207 -1.1895755338254517 1.1673950188692097
-2.683250225918065 -1.7265175498629846 0.8578948197507285
-2.763879641024058 -2.2854870083936425 0.5947705637736502
-2.8540745931641966 -2.869411944135032 0.3990050573727803
-2.948798259999251 -3.4738425859830913 0.28690272857994714
-3.041157356467692 -4.088455218665411 0.2628828827803285
-3.123429324810988 -4.702859695061824 0.31780050569474083
-3.1881032780724503 -5.311045872426972 0.434987300560457
-3.22809570575265 -5.911240393993471 0.5973096972350231
-3.236372455601972 -6.503680732136919 0.7905221676829921
-3.2053672430154907 -7.088788308318808 1.0035346433472814
-3.118502947524499 -7.664037516970248 1.2280020802159277
-2.969934095795093 -8.224867515735916 1.455428584397743
-2.755730062307852 -8.763671826431404 1.682056655209332
-2.4710952565757016 -9.268954990258958 1.9069221225312636
-2.1141626837835017 -9.72542598743242 2.131945670865509
-1.687824847927888 -10.11404532937621 2.3625948009750792
-1.2023324192463742 -10.413819627621088 2.607629910512123
-0.6775654017948292 -10.607420558018223 2.877028863869993
-0.1407558123433488 -10.690569834498879 3.178235088080722
0.3828668714562091 -10.6782155116856 3.5134589721830993
0.8794990342140747 -10.599332364843228 3.880640521799484
1.3477360103796194 -10.485738674399043 4.275873942387248
1.7933971239309336 -10.3646305039371 4.69460530918391
2.224629028202582 -10.256337731656856 5.131555401093992
2.6493703086364193 -10.174276390348052 5.580382046194796
3.074346263220011 -10.124927825046191 6.033840250863566
3.504830315781036 -10.107947868105695 6.484609712107071
3.945973803595699 -10.118526259479589 6.925203866510293
4.4011211457284265 -10.143308962320061 7.350671438080545
4.871814677644682 -10.168206146171801 7.758792887562324
5.358855581812906 -10.180373072043661 8.147696404235885
5.861764017091358 -10.167608328521304 8.515513192035508
6.378350857938409 -10.119695490627663 8.86045707057918
6.904809026097689 -10.029996517276626 9.181178766246337
7.436378156798227 -9.896532113857576 9.477543527459156
7.968398923034704 -9.722070314195886 9.751469550342042
8.497418951166246 -9.513186999664535 10.00699683891582
9.020847036607538 -9.276527574932745 10.249603607486911
9.538810930670264 -9.02602367722565 10.489974830473507
10.052529375790769 -8.774055425048155 10.737809036082716
10.562865238422948 -8.532884170183502 11.0023952667054
11.069730309186557 -8.318135951303708 11.294003958171158
11.570557929673765 -8.151562181598951 11.623561689111646
12.056950185698543 -8.062812378507822 11.9997001385761
12.510586837559735 -8.08457010929629 12.421912682685775
12.905927507547064 -8.236095648763676 12.874203570825257
13.223882872022717 -8.50849403788424 13.331549434501301
13.461696302238702 -8.872186426177327 13.775353831940237
13.627971283440347 -9.296106691191007 14.199244850613695
13.733411506502886 -9.757354812967282 14.60437056336034
13.78609246955183 -10.240938403882126 14.994414208653104
13.780415207857546 -10.736579409205323 15.37276649243304
13.72596175672162 -11.232020056198271 15.74680288982345
13.661075840168525 -11.727417849672431 16.119916186495704
13.596189923615432 -12.222815643146593 16.493029483167952
13.531304007062339 -12.718213436620756 16.866142779840203
13.466418090509244 -13.213611230094918 17.239256076512454
13.40153217395615 -13.70900902356908 17.61236937318471
13.336646257403055 -14.204406817043242 17.985482669856964
13.27176034084996 -14.699804610517404 18.35859596652921
13.206874424296867 -15.195202403991567 18.731709263201463
13.141988507743774 -15.690600197465729 19.104822559873714
13.077102591190677 -16.18599799093989 19.47793585654597
13.012216674637587 -16.68139578441404 19.85104915321821
12.94733075808449 -17.1767935778882 20.224162449890464
12.882444841531397 -17.672191371362366 20.597275746562715
12.817558924978304 -18.167589164836528 20.97038904323497
12.752673008425209 -18.66298695831069 21.343502339907218
12.687787091872115 -19.15838475178485 21.71661563657947
12.62290117531902 -19.653782545259013 22.089728933251724
12.558015258765925 -20.149180338733174 22.46284222992397
12.493129342212832 -20.64457813220734 22.83595552659623
12.428243425659739 -21.1399759256815 23.209068823268478
12.363357509106642 -21.63537371915566 23.582182119940732
12.29847159255355 -22.130771512629813 23.955295416612977
12.233585676000457 -22.626169306103975 24.328408713285224
12.168699759447362 -23.121567099578137 24.70152200995748
12.103813842894269 -23.616964893052298 25.07463530662973
12.038927926341174 -24.11236268652646 25.44774860330198
11.974042009788079 -24.60776048000062 25.820861899974233
11.909156093234985 -25.103158273474786 26.193975196646488
11.844270176681892 -25.598556066948944 26.56708849331874
11.779384260128797 -26.09395386042311 26.940201789990986
11.714498343575704 -26.58935165389727 27.31331508666324
11.649612427022609 -27.084749447371426 27.686428383335485
11.584726510469517 -27.580147240845573 28.059541680007726
11.519840593916426 -28.075545034319727 28.43265497667997
11.45495467736333 -28.570942827793885 28.80576827335222
LINES 1 181
180 0 1 2 3 4 5 6 7 8 9 10 11 12 13 14 15 16 17 18 19 20 21 22 23 24 25 26 27 28 29 30 31 32 33 34 35 36 37 38 39 40 41 42 43 44 45 46 47 48 49 50 51 52 53 54 55 56 57 58 59 60 61 62 63 64 65 66 67 68 69 70 71 72 73 74 75 76 77 78 79 80 81 82 83 84 85 86 87 88 89 90 91 92 93 94 95 96 97 98 99 100 101 102 103 104 105 106 107 108 109 110 111 112 113 114 115 116 117 118 119 120 121 122 123 124 125 126 127 128 129 130 131 132 133 134 135 136 137 138 139 140 141 142 143 144 145 146 147 148 149 150 151 152 153 154 155 156 157 158 159 160 161 162 163 164 165 166 167 168 169 170 171 172 173 174 175 176 177 178 179

POINT_DATA 180
SCALARS MaximumInscribedSphereRadius float
LOOKUP_TABLE default
1.5
1.5
1.5
1.5
1.5
1.5
1.5
1.5
1.5
1.5
1.5
1.5
1.5
1.5
1.5
1.5
1.5
1.5
1.5
1.5
1.5
1.5
1.5
1.5
1.5
1.5
1.5
1.5
1.5
1.5
1.5
1.5
1.5
1.5
1.5
1.5
1.5
1.5
1.5
1.5
1.5
1.5
1.5
1.5
1.5
1.5
1.5
1.5
1.5
1.5
1.5
1.5
1.5
1.5
1.5
1.5
1.5
1.5
1.5
1.5
1.5
1.5
1.5
1.5
1.5
1.5
1.5
1.5
1.5
1.5
1.5
1.5
1.5
1.5
1.5
1.5
1.5
1.5
1.5
1.5
1.5
1.5
1.5
1.5
1.5
1.5
1.5
1.5
1.5
1.5
1.5
1.5
1.5
1.5
1.5
1.5
1.5
1.5
1.5
1.5
1.5
1.5
1.5
1.5
1.5
1.5
1.5
1.5
1.5
1.5
1.5
1.5
1.5
1.5
1.5
1.5
1.5
1.5
1.5
1.5
1.5
1.5
1.5
1.5
1.5
1.5
1.5
1.5
1.5
1.5
1.5
1.5
1.5
1.5
1.5
1.5
1.5
1.5
1.5
1.5
1.5
1.5
1.5
1.5
1.5
1.5
1.5
1.5
1.5
1.5
1.5
1.5
1.5
1.5
1.5
1.5
1.5
1.5
1.5
1.5
1.5
1.5
1.5
1.5
1.5
1.5
1.5
1.5
1.5
1.5
1.5
1.5
1.5
1.5
1.5
1.5
1.5
1.5
1.5
1.5
