# vtk DataFile Version 2.0
Vessel Segment
ASCII
DATASET POLYDATA
POINTS 180 float
-5.218991868939397 29.557277992277204 -8.309003027405012
-5.415352955461815 29.00705712568098 -8.354179807704545
-5.611714041984234 28.456836259084756 -8.399356588004077
-5.808075128506651 27.906615392488533 -8.44453336830361
-6.004436215029069 27.35639452589231 -8.489710148603143
-6.2007973015514875 26.80617365929609 -8.534886928902674
-6.397158388073905 26.255952792699865 -8.580063709202207
-6.593519474596323 25.705731926103642 -8.625240489501738
-6.789880561118742 25.15551105950742 -8.670417269801272
-6.986241647641159 24.605290192911195 -8.715594050100805
-7.182602734163577 24.05506932631497 -8.760770830400338
-7.378963820685996 23.50484845971875 -8.80594761069987
-7.5753249072084134 22.954627593122524 -8.851124390999404
-7.771685993730831 22.404406726526304 -8.896301171298935
-7.96804708025325 21.854185859930077 -8.941477951598468
-8.164408166775669 21.303964993333857 -8.986654731898
-8.360769253298086 20.753744126737633 -9.031831512197535
-8.557130339820503 20.20352326014141 -9.077008292497066
-8.753491426342922 19.653302393545182 -9.122185072796599
-8.949852512865341 19.103081526948962 -9.167361853096132
-9.146213599387758 18.552860660352735 -9.212538633395663
-9.34257468591018 18.002639793756515 -9.257715413695198
-9.542232487956142 17.453530261756868 -9.287274680557033
-9.755840942715293 16.909123544693564 -9.250745592310041
-9.98028220714808 16.37762171178796 -9.150026770444274
-10.211085525938172 15.859686090647475 -9.004562209520191
-10.447133916591898 15.356333310056067 -8.820684875325428
-10.688132915744507 14.866417171145471 -8.608388278584098
-10.935759871032554 14.38454868249377 -8.385210014089356
-11.1960571849413 13.896548168176125 -8.194176412482221
-11.471049366577352 13.385964291451943 -8.17322336360955
-11.690629657426255 12.933125806467693 -8.463254309492175
-11.84513138712217 12.536892380364627 -8.865204235413472
-11.957057826867858 12.144688906166824 -9.285657067683646
-12.03728450114493 11.733363567699342 -9.694671681274599
-12.082213271213167 11.298267976827862 -10.083781047801025
-12.084042206363879 10.842827441190899 -10.45142607729294
-12.032894431397636 10.375888022277694 -10.800416621243315
-11.919072026335135 9.910404537478875 -11.136071472157226
-11.736277751206197 9.461725194148281 -11.464050821584307
-11.484870083639258 9.044083153803193 -11.788088153962173
-11.172410547754986 8.666284593934279 -12.10884182175963
-10.805285885475552 8.334678688724903 -12.422846002930642
-10.400839230514364 8.038220955265976 -12.725326465656003
-9.96801651490812 7.765848632543483 -13.010541560937657
-9.511193584511016 7.507784979801879 -13.270415713391493
-9.032444290025097 7.254113131264221 -13.49158273829799
-8.533522736945056 6.993506834417332 -13.64841134308158
-8.024023691947477 6.715519597112415 -13.689534092287671
-7.548992380649519 6.427545388930176 -13.53063232015263
-7.248009264622324 6.2040662345451665 -13.096478168530771
-7.141864706567175 6.091374423897012 -12.536878240817757
-7.155727486765722 6.065914396316264 -11.95412700582456
-7.23848703322846 6.103106447436893 -11.37644492410138
-7.360953470937904 6.18654942878584 -10.810210026249663
-7.5061162633385745 6.306216333334598 -10.25566401671095
-7.662278760219461 6.455118553034488 -9.711087861474955
-7.819565734766554 6.626792911880717 -9.173473969122181
-7.9684430348297 6.81305123835899 -8.638291088204097
-8.099767566784593 7.001482099520109 -8.099354690587816
-8.206030353210103 7.174088641004473 -7.54991199241592
-8.282997034964396 7.308600639041668 -6.985480582363331
-8.330387558784247 7.382825175192223 -6.407125149933872
-8.350604374796937 7.380391308497547 -5.822581048670669
-8.34620356845245 7.293562851440858 -5.24413087919265
-8.317802566987943 7.122397454099881 -4.6853888298674375
-8.263641372318649 6.871860084776685 -4.159379706803152
-8.180848515120198 6.549440055708353 -3.6781417204801627
-8.067699306013072 6.164999869847125 -3.2517876457548005
-7.925858524276395 5.730406372684523 -2.8865690860164257
-7.7612898515575335 5.258021557464733 -2.5828862729264777
-7.583289191792526 4.758530087325794 -2.33499620064645
-7.402566129212179 4.239492508842011 -2.1330580008241062
-7.229643383533834 3.7055073957505926 -1.9658294360753747
-7.073845705522915 3.1593543355403813 -1.8225910043421085
-6.94249585189673 2.6031756378324897 -1.6942345389178584
-6.840076907894352 2.0391928123130914 -1.5738609520468745
-6.767556709710235 1.4698213726255493 -1.4569577007373413
-6.722381988058482 0.8973245188835477 -1.3411343690645956
-6.6992311803324585 0.32339208769324523 -1.2255298631171656
-6.691027203490746 -0.2510146369527105 -1.1100806316824539
-6.689417925773757 -0.8255396921028344 -0.9949285971959916
-6.68328120817875 -1.4000657233184783 -0.8799393519349006
-6.6620958155059045 -1.9741239348103412 -0.7645962375709354
-6.614440714695302 -2.5462272586721526 -0.6481578009162514
-6.527171019110435 -3.1129868084379666 -0.52993832057997
-6.386049344889139 -3.667945683557598 -0.4096807643393404
-6.1785653612037175 -4.200926978079538 -0.2880658159449509
-5.898971433519987 -4.699785889909358 -0.16698068330260413
-5.5521665666543045 -5.1554591617335 -0.048867113095247786
-5.151702583311511 -5.5665812021758025 0.06468141104313131
-4.713434974917412 -5.939089763485848 0.17373118361402506
-4.2505421523682525 -6.281928345667993 0.2797697827414001
-3.772038899016242 -6.60311748317203 0.38508459227812575
-3.283334354760253 -6.907980404896018 0.4923523080646487
-2.787101302983559 -7.198618863658323 0.6045488785425643
-2.2832571956546897 -7.472114656227259 0.7257214281297468
-1.7698331617865222 -7.720217325668558 0.8603813949187605
-1.2453851025710696 -7.932790329324394 1.011478786718929
-0.709171353194375 -8.094181292886486 1.1819990475381987
-0.16417162410800026 -8.18634590155829 1.3733494575589342
0.3810588791827839 -8.194350863454035 1.5841209351367387
0.9143396665654997 -8.11375366967566 1.8096653241905591
1.4255018611964738 -7.953199711775974 2.044125420885685
1.9105628685150253 -7.729689863688694 2.283246798935296
2.371587767936679 -7.461742020271348 2.5250327555610377
2.8139756668724836 -7.165346406866138 2.7690662227687337
3.24411131368225 -6.853143707418083 3.015646590424317
3.6683934168813916 -6.535228607156812 3.2651522886309965
4.092922285803546 -6.220029227354278 3.5176272082427427
4.523079875015441 -5.914538001690026 3.77248913653681
4.963129791539707 -5.624263734915403 4.028298715778551
5.41549185605714 -5.352185500233529 4.282608419605068
5.87831143267625 -5.094865958952877 4.5333854790305255
6.348630034135443 -4.846594407492825 4.779309516196116
6.822047622211708 -4.598973709546991 5.019921101993498
7.293337832866897 -4.342863317555129 5.255708075782122
7.757381788255559 -4.0705297413957675 5.487477268872734
8.21027343498963 -3.777442718742794 5.7158191709116855
8.650475870298239 -3.463302310733032 5.941004308418085
9.079752982252792 -3.1320491567746656 6.1629555484512935
9.503360789012977 -2.7911430952519787 6.381304000618229
9.92953466522574 -2.45091954489182 6.595572940655284
10.368739224490264 -2.124815676601535 6.8051870178173495
10.832413323297278 -1.8306168785041448 7.009157977783224
11.329610049078505 -1.5913163539103061 7.205894013630084
11.861264450231275 -1.432409229648632 7.39346148548514
12.41638367602394 -1.3741376784008534 7.570557407483978
12.975389437898862 -1.4231308100940734 7.737914038844142
13.518649452254827 -1.571909383599662 7.898711669708214
14.031154664632677 -1.8074336057106342 8.057483102595063
14.503016011057616 -2.114856565965848 8.21875526654843
14.93130009885163 -2.47745823484352 8.385752692898624
15.314322053704583 -2.8841283362293035 8.560229229686108
15.6510039644404 -3.3265372478759105 8.74272284389059
15.94023794564393 -3.798126065272061 8.933250978023086
16.180710267714147 -4.293427568736513 9.131398686679074
16.37089720903841 -4.807552237612136 9.33646263263017
16.509199266521378 -5.335733236280682 9.54773001606437
16.594130603499664 -5.873021004139452 9.764719650699313
16.624618019034152 -6.414226171542506 9.98703317269026
16.59684496530981 -6.9534657501965365 10.2146094326917
16.513615199913577 -7.484635744850733 10.447150705787482
16.426926520444063 -8.015302428060348 10.680001653819769
16.340237840974545 -8.545969111269965 10.912852601852057
16.25354916150503 -9.076635794479582 11.145703549884345
16.166860482035517 -9.607302477689197 11.378554497916632
16.080171802566 -10.13796916089882 11.611405445948922
15.993483123096485 -10.668635844108433 11.844256393981208
15.906794443626971 -11.199302527318048 12.077107342013495
15.820105764157457 -11.729969210527665 12.30995829004578
15.733417084687943 -12.260635893737282 12.542809238078068
15.646728405218427 -12.791302576946897 12.775660186110354
15.560039725748911 -13.321969260156528 13.008511134142648
15.473351046279396 -13.852635943366144 13.241362082174936
15.386662366809881 -14.383302626575759 13.474213030207224
15.299973687340366 -14.913969309785378 13.70706397823951
15.213285007870851 -15.444635992994993 13.939914926271797
15.126596328401334 -15.975302676204624 14.17276587430409
15.03990764893182 -16.50596935941424 14.405616822336379
14.953218969462302 -17.036636042623858 14.638467770368667
14.866530289992788 -17.567302725833475 14.871318718400953
14.779841610523274 -18.097969409043092 15.104169666433243
14.693152931053756 -18.62863609225272 15.337020614465533
14.60646425158424 -19.159302775462336 15.56987156249782
14.519775572114726 -19.689969458671953 15.802722510530106
14.43308689264521 -20.220636141881563 16.035573458562396
14.3463982131757 -20.751302825091173 16.26842440659468
14.259709533706184 -21.28196950830079 16.50127535462697
14.173020854236666 -21.812636191510407 16.734126302659252
14.086332174767152 -22.34330287472002 16.966977250691535
13.99964349529764 -22.873969557929627 17.19982819872382
13.912954815828126 -23.40463624113924 17.432679146756108
13.82626613635861 -23.935302924348846 17.66553009478839
13.739577456889094 -24.465969607558474 17.898381042820684
13.65288877741958 -24.99663629076809 18.131231990852967
13.566200097950066 -25.527302973977697 18.36408293888525
13.479511418480552 -26.0579696571873 18.596933886917537
13.392822739011038 -26.58863634039692 18.82978483494982
13.306134059541522 -27.119303023606548 19.062635782982113
LINES 1 181
180 0 1 2 3 4 5 6 7 8 9 10 11 12 13 14 15 16 17 18 19 20 21 22 23 24 25 26 27 28 29 30 31 32 33 34 35 36 37 38 39 40 41 42 43 44 45 46 47 48 49 50 51 52 53 54 55 56 57 58 59 60 61 62 63 64 65 66 67 68 69 70 71 72 73 74 75 76 77 78 79 80 81 82 83 84 85 86 87 88 89 90 91 92 93 94 95 96 97 98 99 100 101 102 103 104 105 106 107 108 109 110 111 112 113 114 115 116 117 118 119 120 121 122 123 124 125 126 127 128 129 130 131 132 133 134 135 136 137 138 139 140 141 142 143 144 145 146 147 148 149 150 151 152 153 154 155 156 157 158 159 160 161 162 163 164 165 166 167 168 169 170 171 172 173 174 175 176 177 178 179

POINT_DATA 180
SCALARS MaximumInscribedSphereRadius float
LOOKUP_TABLE default
1.5
1.5
1.5
1.5
1.5
1.5
1.5
1.5
1.5
1.5
1.5
1.5
1.5
1.5
1.5
1.5
1.5
1.5
1.5
1.5
1.5
1.5
1.5
1.5
1.5
1.5
1.5
1.5
1.5
1.5
1.5
1.5
1.5
1.5
1.5
1.5
1.5
1.5
1.5
1.5
1.5
1.5
1.5
1.5
1.5
1.5
1.5
1.5
1.5
1.5
1.5
1.5
1.5
1.5
1.5
1.5
1.5
1.5
1.5
1.5
1.5
1.5
1.5
1.5
1.5
1.5
1.5
1.5
1.5
1.5
1.5
1.5
1.5
1.5
1.5
1.5
1.5
1.5
1.5
1.5
1.5
1.5
1.5
1.5
1.5
1.5
1.5
1.5
1.5
1.5
1.5
1.5
1.5
1.5
1.5
1.5
1.5
1.5
1.5
1.5
1.5
1.5
1.5
1.5
1.5
1.5
1.5
1.5
1.5
1.5
1.5
1.5
1.5
1.5
1.5
1.5
1.5
1.5
1.5
1.5
1.5
1.5
1.5
1.5
1.5
1.5
1.5
1.5
1.5
1.5
1.5
1.5
1.5
1.5
1.5
1.5
1.5
1.5
1.5
1.5
1.5
1.5
1.5
1.5
1.5
1.5
1.5
1.5
1.5
1.5
1.5
1.5
1.5
1.5
1.5
1.5
1.5
1.5
1.5
1.5
1.5
1.5
1.5
1.5
1.5
1.5
1.5
1.5
1.5
1.5
1.5
1.5
1.5
1.5
1.5
1.5
1.5
1.5
1.5
1.5
