# vtk DataFile Version 2.0
Vessel Segment
ASCII
DATASET POLYDATA
POINTS 180 float
10.851739980686146 27.614554977905414 -10.198892707576805
10.331761032446762 27.2880104552605 -9.998788084654262
9.811782084207376 26.96146593261559 -9.79868346173172
9.291803135967994 26.634921409970673 -9.598578838809177
8.77182418772861 26.308376887325757 -9.398474215886635
8.251845239489224 25.98183236468084 -9.198369592964093
7.731866291249842 25.655287842035932 -8.99826497004155
7.211887343010458 25.328743319391016 -8.798160347119008
6.691908394771074 25.002198796746104 -8.598055724196467
6.17192944653169 24.675654274101188 -8.397951101273923
5.651950498292307 24.349109751456275 -8.19784647835138
5.131971550052923 24.022565228811363 -7.997741855428838
4.61199260181354 23.696020706166447 -7.797637232506296
4.0920136535741545 23.36947618352153 -7.597532609583753
3.5720347053347727 23.04293166087662 -7.397427986661213
3.052055757095388 22.716387138231706 -7.197323363738669
2.532076808856005 22.38984261558679 -6.997218740816127
2.0120978606166204 22.063298092941878 -6.797114117893584
1.4921189123772374 21.736753570296962 -6.597009494971044
0.9721399641378545 21.410209047652053 -6.3969048720485
0.46226075359749613 21.055110249468353 -6.225609814059551
-0.024601311125489023 20.651589404536033 -6.097684119544526
-0.4860229620846246 20.213378866717644 -5.989973066461864
-0.9214816286226474 19.747966454230323 -5.887864160534812
-1.3307035051897829 19.260033156068303 -5.781822055352952
-1.7131166652566283 18.752887558591794 -5.665139537534775
-2.0625679789865643 18.227185254179968 -5.528896602185596
-2.3869133942865655 17.690681698103752 -5.37476934457435
-2.6891871692443754 17.146464253100845 -5.2037609768926565
-2.974001882553817 16.59717998866845 -5.019079485189421
-3.249030267675203 16.044881919309184 -4.828361164846891
-3.527728666963605 15.490607112168796 -4.649690733644361
-3.8318933798687262 14.9360448536744 -4.52571940567087
-4.184263980585575 14.40369541311518 -4.559478206204775
-4.5468910526544875 13.973394143201297 -4.863917203943974
-4.858720655629065 13.635081313308929 -5.314395890261824
-5.118327236962382 13.330483599679612 -5.820977209325895
-5.339224791829252 13.016359617017892 -6.340147894119388
-5.527970808027136 12.673426243643696 -6.853784862018043
-5.684100609920319 12.292318758139611 -7.3511371873907105
-5.806793791456324 11.87331950576626 -7.826668012598239
-5.8938370410488705 11.420587680913213 -8.27834391351307
-5.94340064687233 10.941281526701573 -8.70766637648715
-5.954444307279603 10.443665842289168 -9.118530594627238
-5.926952616305471 9.935765459029412 -9.515886337457061
-5.862218823712338 9.423629358102893 -9.903417366279761
-5.763294388088384 8.910167907985352 -10.281950723750615
-5.635094144566473 8.395028566724164 -10.6493637748727
-5.483968370251293 7.875163021868496 -11.00113054396165
-5.3170886327593685 7.345769915263077 -11.330914996414524
-5.142025216076569 6.800515816280401 -11.629414677617765
-4.969573150932636 6.2303328282830925 -11.878614762004823
-4.809898486566384 5.63532226716675 -12.069960172144809
-4.672726918649567 5.016922587507706 -12.186998573806356
-4.569070822893375 4.382674133342021 -12.208836326525418
-4.511641148128019 3.7512601641011734 -12.109738125284622
-4.514119768252036 3.1608422953341684 -11.862462265805316
-4.58765330038796 2.677331075566888 -11.451393898981078
-4.731910286782575 2.3859729949701145 -10.899845311225084
-4.9274448877337615 2.36516281391667 -10.288485231867343
-5.134643552721271 2.5389889928384015 -9.705463402308874
-5.335125414853391 2.844298951872485 -9.174817625496024
-5.51971966229558 3.2321508230088294 -8.6932499596553
-5.682401428076757 3.671863702287429 -8.249134525477048
-5.812126113686023 4.142879522350641 -7.82683946397282
-5.905494284626965 4.621509887925733 -7.403767617061798
-5.954891716920428 5.090001058752189 -6.9628593257441125
-5.953086992469721 5.524966754579385 -6.487289751142651
-5.897558858261391 5.896333285476241 -5.964558221359944
-5.795805075509921 6.173280732060126 -5.393185683504415
-5.66534666938092 6.334958237535107 -4.784709045844902
-5.526680820980936 6.375876792153232 -4.158009885037879
-5.396060645523114 6.301119232297797 -3.5325176290067475
-5.283049648414374 6.119108947688014 -2.9258153420606723
-5.191312095229221 5.83857493724376 -2.3540665237048257
-5.119982637314621 5.468986298680765 -1.832143825835416
-5.06494567520607 5.022369177109935 -1.3718099703435829
-5.020416755119816 4.5137121480180245 -0.9790176265833763
-4.98075757118438 3.9590111886521804 -0.6526874135713165
-4.941819348815416 3.372721727514081 -0.3858160575545578
-4.901335627516873 2.7662122095551402 -0.16798607759211756
-4.858542783916844 2.1467555726427383 0.00947811462227286
-4.81407212142344 1.5205324040160437 0.16063211036272593
-4.768473472390486 0.8908166117984705 0.2961799497263135
-4.72134190059866 0.2592337008917019 0.42232802353611554
-4.671308663765598 -0.37310271340559625 0.5435329274622598
-4.615902528389914 -1.0053487650357837 0.662816090415143
-4.551563146585368 -1.636755900594249 0.7819937080068018
-4.4739894937190865 -2.266543055868415 0.9018857092505177
-4.377905563599437 -2.8936185395037106 1.0226975803263023
-4.258932153730034 -3.516581899668694 1.144318234211834
-4.117634193751852 -4.134631889036362 1.2668602060155023
-3.955075540256642 -4.747081755124064 1.3910106558110196
-3.7735744628505685 -5.353577394687596 1.518114898827083
-3.5758254696235277 -5.9539534662207 1.6500093672980645
-3.3639678592154287 -6.547912919136563 1.7888903223096535
-3.1389031766003086 -7.134700643649826 1.9371928281029223
-2.8998838522943244 -7.712814319434043 2.097522589769562
-2.6396881878198357 -8.276340303951066 2.275811648964859
-2.355158230444729 -8.821869931807548 2.471374514137546
-2.039095546623696 -9.34230564420893 2.6850039646950994
-1.6832201804277767 -9.827707506323943 2.9164022842082398
-1.2793741454741556 -10.264843117533388 3.163426481723431
-0.822111453778236 -10.637922566253177 3.4212971767938893
-0.312147224959413 -10.931886494021805 3.682609073206389
0.24199785604876256 -11.13775244854353 3.9390709601627822
0.8266367566456385 -11.256079065850857 4.184491126958048
1.4278023625970317 -11.296185714289967 4.416482980027121
2.034573934383724 -11.267913231389715 4.635754999169251
2.6393869702695 -11.191567122936055 4.848399696707886
3.2396303240160855 -11.085889506265126 5.061489448724624
3.834266663986961 -10.964527704830795 5.282052939903712
4.422683259108636 -10.840336485631834 5.517149353650709
5.003851160398525 -10.725203587718784 5.773579214136385
5.575918588991024 -10.628638378947759 6.05658291895117
6.136589211544554 -10.555492528492866 6.368090270247434
6.684192404060782 -10.504273083726225 6.706313739422957
7.218917327847565 -10.468144948522847 7.066542403665234
7.742687531412985 -10.438198967779298 7.443124222063558
8.257541644509795 -10.406756793802181 7.831695867863137
8.76647051275305 -10.37159820074062 8.227672628670156
9.27111724198669 -10.336630169457434 8.629108609550672
9.772338152817731 -10.310439170902534 9.035429399108043
10.269921735223324 -10.305080261953268 9.446750105718301
10.762272590847136 -10.335398484872455 9.862749654905116
11.245602854793853 -10.418105877987799 10.281616656806586
11.712968152577684 -10.569257959857971 10.699213187612258
12.154288525703215 -10.799728025719066 11.109078388025829
12.557982401113819 -11.111696609904685 11.504335998526242
12.91165854353121 -11.500566154373358 11.879495905320635
13.204739425184517 -11.953502266554716 12.233999415504389
13.435807088828444 -12.450770255235327 12.573720743335787
13.601594549803714 -12.97820480228799 12.905437755832754
13.698500730871993 -13.522814553137131 13.236278286894382
13.722756083108262 -14.071742601010529 13.572951050048463
13.67147722898364 -14.611807951699925 13.920703472080914
13.54435462517822 -15.1303600105583 14.281836213936362
13.345272913421415 -15.617679962932977 14.654462814266234
13.082472726618306 -16.06996292508067 15.032466623997035
12.766672576279726 -16.49099497272348 15.406493417187276
12.408279987212335 -16.891435319844106 15.764618496588279
12.017826147153913 -17.28843373750795 16.09165143102788
11.609277149917164 -17.700923111787183 16.374006970062396
11.19662291387679 -18.144546437188918 16.595650118331765
10.79768959713146 -18.629141456518255 16.741082979192775
10.431301944468299 -19.15442656392431 16.801553421229034
10.081088796718422 -19.696493520517745 16.825332775912393
9.730875648968535 -20.238560477111193 16.84911213059575
9.380662501218655 -20.78062743370463 16.872891485279105
9.030449353468779 -21.322694390298064 16.896670839962464
8.68023620571889 -21.864761346891513 16.92045019464582
8.330023057969012 -22.406828303484943 16.944229549329176
7.979809910219141 -22.948895260078373 16.968008904012535
7.629596762469254 -23.490962216671814 16.99178825869589
7.279383614719376 -24.033029173265255 17.015567613379247
6.929170466969497 -24.575096129858693 17.039346968062606
6.57895731921961 -25.117163086452134 17.063126322745962
6.228744171469732 -25.659230043045568 17.086905677429318
5.878531023719853 -26.20129699963901 17.110685032112677
5.528317875969966 -26.743363956232457 17.134464386796033
5.178104728220088 -27.285430912825895 17.158243741479392
4.827891580470209 -27.82749786941933 17.182023096162748
4.477678432720323 -28.369564826012777 17.205802450846107
4.127465284970444 -28.91163178260621 17.229581805529463
3.7772521372205645 -29.453698739199645 17.253361160212823
3.4270389894706788 -29.995765695793096 17.27714051489618
3.0768258417208 -30.537832652386534 17.30091986957953
2.7266126939709214 -31.079899608979968 17.324699224262893
2.376399546221036 -31.62196656557341 17.348478578946246
2.0261863984711637 -32.16403352216684 17.372257933629605
1.675973250721285 -32.70610047876028 17.39603728831296
1.3257601029713981 -33.24816743535372 17.41981664299632
0.9755469552215199 -33.79023439194716 17.443595997679676
0.6253338074716408 -34.3323013485406 17.46737535236303
0.27512065972175526 -34.87436830513404 17.49115470704639
-0.07509248802811812 -35.41643526172747 17.514934061729747
-0.4253056357779958 -35.9585022183209 17.538713416413103
-0.7755187835278821 -36.500569174914354 17.562492771096462
-1.12573193127776 -37.04263613150779 17.586272125779818
-1.475945079027646 -37.58470308810123 17.610051480463174
LINES 1 181
180 0 1 2 3 4 5 6 7 8 9 10 11 12 13 14 15 16 17 18 19 20 21 22 23 24 25 26 27 28 29 30 31 32 33 34 35 36 37 38 39 40 41 42 43 44 45 46 47 48 49 50 51 52 53 54 55 56 57 58 59 60 61 62 63 64 65 66 67 68 69 70 71 72 73 74 75 76 77 78 79 80 81 82 83 84 85 86 87 88 89 90 91 92 93 94 95 96 97 98 99 100 101 102 103 104 105 106 107 108 109 110 111 112 113 114 115 116 117 118 119 120 121 122 123 124 125 126 127 128 129 130 131 132 133 134 135 136 137 138 139 140 141 142 143 144 145 146 147 148 149 150 151 152 153 154 155 156 157 158 159 160 161 162 163 164 165 166 167 168 169 170 171 172 173 174 175 176 177 178 179

POINT_DATA 180
SCALARS MaximumInscribedSphereRadius float
LOOKUP_TABLE default
1.5
1.5
1.5
1.5
1.5
1.5
1.5
1.5
1.5
1.5
1.5
1.5
1.5
1.5
1.5
1.5
1.5
1.5
1.5
1.5
1.5
1.5
1.5
1.5
1.5
1.5
1.5
1.5
1.5
1.5
1.5
1.5
1.5
1.5
1.5
1.5
1.5
1.5
1.5
1.5
1.5
1.5
1.5
1.5
1.5
1.5
1.5
1.5
1.5
1.5
1.5
1.5
1.5
1.5
1.5
1.5
1.5
1.5
1.5
1.5
1.5
1.5
1.5
1.5
1.5
1.5
1.5
1.5
1.5
1.5
1.5
1.5
1.5
1.5
1.5
1.5
1.5
1.5
1.5
1.5
1.5
1.5
1.5
1.5
1.5
1.5
1.5
1.5
1.5
1.5
1.5
1.5
1.5
1.5
1.5
1.5
1.5
1.5
1.5
1.5
1.5
1.5
1.5
1.5
1.5
1.5
1.5
1.5
1.5
1.5
1.5
1.5
1.5
1.5
1.5
1.5
1.5
1.5
1.5
1.5
1.5
1.5
1.5
1.5
1.5
1.5
1.5
1.5
1.5
1.5
1.5
1.5
1.5
1.5
1.5
1.5
1.5
1.5
1.5
1.5
1.5
1.5
1.5
1.5
1.5
1.5
1.5
1.5
1.5
1.5
1.5
1.5
1.5
1.5
1.5
1.5
1.5
1.5
1.5
1.5
1.5
1.5
1.5
1.5
1.5
1.5
1.5
1.5
1.5
1.5
1.5
1.5
1.5
1.5
1.5
1.5
1.5
1.5
1.5
1.5
