# vtk DataFile Version 2.0
Vessel Segment
ASCII
DATASET POLYDATA
POINTS 180 float
4.0641255418428495 28.32681953424125 -7.943620179885606
3.574005117780028 27.871049792372382 -7.759960569310234
3.0838846937172057 27.415280050503515 -7.576300958734863
2.5937642696543843 26.959510308634645 -7.39264134815949
2.103643845591563 26.503740566765778 -7.208981737584118
1.6135234215287415 26.04797082489691 -7.025322127008746
1.1234029974659197 25.592201083028044 -6.841662516433373
0.6332825734030985 25.136431341159177 -6.658002905858002
0.1431621493402766 24.680661599290307 -6.474343295282629
-0.34695827472254476 24.22489185742144 -6.290683684707257
-0.8370786987853674 23.76912211555257 -6.107024074131884
-1.3271991228481879 23.313352373683706 -5.923364463556512
-1.8173195469110097 22.857582631814836 -5.7397048529811405
-2.3074399709738302 22.40181288994597 -5.556045242405767
-2.7975603950366525 21.946043148077102 -5.3723856318303955
-3.2876808190994744 21.49027340620823 -5.1887260212550235
-3.777801243162296 21.034503664339365 -5.005066410679651
-4.267921667225117 20.578733922470498 -4.8214068001042785
-4.75804209128794 20.12296418060163 -4.637747189528906
-5.230176196474298 19.661521548694214 -4.426688407464679
-5.674217526156193 19.19187200917394 -4.17473788621786
-6.093797229802014 18.71674031833225 -3.8921370114558473
-6.492664150834821 18.23650032124279 -3.5889049802573663
-6.883459052210508 17.75122518169027 -3.283218753749898
-7.274412184588437 17.25862039688189 -2.989804303551381
-7.675165878080852 16.754822741213772 -2.7314352606457355
-8.095089916309117 16.235686735509177 -2.545962647769435
-8.53397356398697 15.703559611547773 -2.5010659150040575
-8.956247869112362 15.18524032335798 -2.6709672919942467
-9.317126695513329 14.707620424078568 -3.0147675069339406
-9.600488030403644 14.269973870074885 -3.4699473851616234
-9.811628435130281 13.855323849450329 -3.983623663023095
-9.960854728555379 13.44684563590287 -4.523717013551559
-10.0567068229509 13.033075688377215 -5.071893636422827
-10.10511915965311 12.607225150100303 -5.61702236694906
-10.109950038924515 12.165516900462936 -6.151626822275361
-10.073556276036086 11.70605922526548 -6.670123997053119
-9.99474957153939 11.227481580225945 -7.166539026275863
-9.870577917824043 10.731219516430533 -7.635376705646041
-9.707091569460312 10.224863397907598 -8.080323150078925
-9.503234568701918 9.714521025455733 -8.503363876250717
-9.257953670457564 9.207792284472932 -8.908393473871218
-8.970965551145326 8.713406630806292 -9.301176843381162
-8.64366221277285 8.240262953853334 -9.688743213317064
-8.2797422766694 7.795978489752275 -10.078183218718795
-7.882699298016307 7.389382736202183 -10.476569597176624
-7.461952587158796 7.02166151223706 -10.88790895594822
-7.026493060125152 6.686476138922152 -11.3113082941877
-6.580915406261755 6.3785287230820265 -11.744859727825684
-6.128006246710141 6.092652783025759 -12.186122236624856
-5.668652656595321 5.8255191854060975 -12.632562445964059
-5.200889678569876 5.5706019154011175 -13.077388545860517
-4.723627459866293 5.318281607391503 -13.513444916820488
-4.232399977132314 5.062780943372395 -13.931442222349611
-3.718664219367433 4.794331096856679 -14.311583978222309
-3.1679961544607944 4.494871889134853 -14.602007093997216
-2.5963519256584773 4.145984083382353 -14.622499347077781
-2.3165860133134335 3.890092642037248 -14.072100229067122
-2.3577983328105594 3.8058335262831617 -13.387908604519623
-2.517242747035974 3.792523272563956 -12.713481146820643
-2.743606795105553 3.821635243521878 -12.058181176331182
-3.029339144805366 3.892260932516019 -11.429655936875708
-3.357565650330615 3.9982175662072197 -10.828162456336571
-3.7216502127414883 4.140504121538113 -10.256095533695609
-4.1180471856346275 4.323701513567673 -9.718157864792873
-4.542661798263117 4.554799903813103 -9.220811703363403
-4.9878696209408995 4.850024440291346 -8.777745785094858
-5.433300695977426 5.210798307400601 -8.387525998533262
-5.860290277746993 5.6310537074003 -8.039284589906943
-6.25130099005508 6.105038828386434 -7.718902665710576
-6.589628871564058 6.622084274702344 -7.405295930994562
-6.85928035416025 7.166021002528235 -7.072131888688327
-7.044033385203852 7.712479596483736 -6.6905987014680335
-7.128204318939492 8.22471519064918 -6.235608806621913
-7.101648838456213 8.653843168890464 -5.697266008326697
-6.966898101728724 8.950557477621329 -5.090967658373443
-6.740058970447074 9.081051377764549 -4.4540679207112515
-6.443877388996243 9.030900165887607 -3.8336697172195877
-6.102823154480761 8.798670167876063 -3.280170241320421
-5.7458350856233515 8.391007467331077 -2.8512762980120363
-5.410254992955025 7.845724423764136 -2.590284570310436
-5.120709409468876 7.226927450916222 -2.4819152033032528
-4.884444673236123 6.575751400650185 -2.491650142843949
-4.69751602717043 5.913756610172929 -2.580811708836702
-4.55366365334722 5.249085373046007 -2.7193526101078294
-4.449859065183554 4.582944451449833 -2.883964827388448
-4.373736615955355 3.9139843240455914 -3.05184627545007
-4.3201082333579075 3.24070664670782 -3.2107531825892917
-4.284750205514807 2.5620515868599414 -3.350330319939434
-4.263843003567893 1.8774663628047317 -3.460914874881732
-4.253883325596908 1.1869789548729202 -3.5302177214736856
-4.249852398745987 0.4931570373458097 -3.540254825071994
-4.245390363321931 -0.19856834141854518 -3.4930044972624414
-4.23569777339023 -0.8829034312903501 -3.384500615989081
-4.215383682267172 -1.5538779364926452 -3.212883965967751
-4.178321664980545 -2.2050683410369896 -2.978309020077847
-4.117333947822589 -2.8296753516189397 -2.6826577263287668
-4.018737307773463 -3.415620212987779 -2.324018266355484
-3.8714767729970547 -3.9546258466505524 -1.913248593989156
-3.666435161318539 -4.438863039753594 -1.4623004800209645
-3.393079834811201 -4.856687051658066 -0.9831044850810311
-3.0451573286378295 -5.197356903248194 -0.49201405623723693
-2.6243048180626003 -5.4554148067949635 -0.007763342257797248
-2.1403872355051403 -5.63411528679328 0.4534169329898793
-1.6075699063590765 -5.744354577870384 0.882050346264575
-1.0395962611760516 -5.800264137378091 1.2758091464188248
-0.44738074004886064 -5.815389382999721 1.6371124478751717
0.16247760246156412 -5.79861943301902 1.967969684597453
0.782428162800893 -5.761894961523017 2.2775936575167615
1.4075938963706114 -5.712813580630009 2.574812113372496
2.0352311843748803 -5.654560766423348 2.865196442681056
2.6629531845576446 -5.588987036457481 3.1538554873023674
3.2885707709062544 -5.5167451345803755 3.445476390256961
3.909483782875623 -5.4364989495840765 3.74498018256033
4.5234898400829335 -5.3457455920562875 4.0554833810675905
5.130322080173938 -5.24363639357702 4.3763049836697
5.72990833133294 -5.129358797111409 4.706478060102153
6.3230008440895435 -5.003675055789609 5.044198219937872
6.911037960226711 -4.869121549702816 5.387369750821766
7.495900991220975 -4.729881204824362 5.734098928062505
8.080012569742026 -4.593443963053079 6.083202756656393
8.666031240976169 -4.471115202102584 6.434295344211241
9.254515539270297 -4.372079813084077 6.788331713874534
9.844448901197314 -4.306546528614135 7.147193341355596
10.432786304676153 -4.285817734086667 7.513471911625109
11.0135087514759 -4.322218455820098 7.890431745835704
11.576395713676034 -4.4281086263219125 8.28165489678301
12.10458178726364 -4.616620260390817 8.69050422811695
12.576298740547497 -4.893436105865965 9.11730284102908
12.976795689137926 -5.249354592311072 9.556917638565128
13.294600205736616 -5.673862137645765 10.002366976689872
13.52690625191274 -6.152548137675109 10.445319417133312
13.67882575783058 -6.67114776958284 10.878219412399627
13.759990619782528 -7.218190816957673 11.29541874266545
13.781150599252529 -7.785596605131856 11.69310450867751
13.752270190650838 -8.36808398280158 12.068739675211335
13.679791497747024 -8.962974757064897 12.418777881718519
13.570203430635276 -9.569150233316256 12.738266134411774
13.43645489867934 -10.183857701824364 13.030688046709638
13.283477916391082 -10.806530586866087 13.295482395376403
13.11570080424012 -11.436647555434437 13.53244083072654
12.937187982239152 -12.073627877343661 13.741981494582033
12.75161417864331 -12.716795611139506 13.925209685279615
12.562554831339991 -13.366065096826192 14.081328751373821
12.373916114521512 -14.019467041083676 14.219469184957457
12.187917134918163 -14.67638216475068 14.343898361829014
12.006485716386319 -15.336337154882912 14.458713997899057
11.831157519716307 -15.998946866656244 14.567630433141378
11.661843839133347 -16.66357392019568 14.673831645537376
11.49253015855039 -17.328200973735107 14.780032857933374
11.323216477967433 -17.992828027274527 14.886234070329365
11.153902797384475 -18.657455080813953 14.992435282725362
10.984589116801512 -19.322082134353398 15.098636495121362
10.815275436218554 -19.98670918789282 15.204837707517356
10.6459617556356 -20.65133624143224 15.31103891991335
10.47664807505264 -21.315963294971674 15.417240132309347
10.307334394469677 -21.98059034851111 15.523441344705343
10.138020713886723 -22.64521740205053 15.629642557101338
9.968707033303765 -23.309844455589957 15.735843769497333
9.799393352720804 -23.974471509129387 15.84204498189333
9.630079672137846 -24.63909856266882 15.948246194289327
9.460765991554888 -25.303725616208244 16.05444740668532
9.291452310971929 -25.968352669747674 16.160648619081318
9.122138630388969 -26.632979723287107 16.266849831477316
8.952824949806011 -27.29760677682653 16.373051043873307
8.783511269223048 -27.962233830365975 16.479252256269305
8.614197588640089 -28.626860883905405 16.585453468665307
8.44488390805713 -29.291487937444835 16.691654681061298
8.275570227474175 -29.95611499098426 16.797855893457296
8.106256546891212 -30.620742044523706 16.904057105853294
7.936942866308252 -31.285369098063136 17.010258318249292
7.767629185725295 -31.949996151602562 17.116459530645287
7.598315505142336 -32.61462320514199 17.22266074304128
7.429001824559373 -33.27925025868144 17.328861955437276
7.259688143976416 -33.943877312220856 17.435063167833274
7.090374463393458 -34.60850436576028 17.54126438022927
6.9210607828105015 -35.27313141929971 17.647465592625267
6.751747102227541 -35.937758472839135 17.75366680502126
6.582433421644581 -36.602385526378576 17.85986801741726
6.413119741061623 -37.267012579918 17.966069229813254
LINES 1 181
180 0 1 2 3 4 5 6 7 8 9 10 11 12 13 14 15 16 17 18 19 20 21 22 23 24 25 26 27 28 29 30 31 32 33 34 35 36 37 38 39 40 41 42 43 44 45 46 47 48 49 50 51 52 53 54 55 56 57 58 59 60 61 62 63 64 65 66 67 68 69 70 71 72 73 74 75 76 77 78 79 80 81 82 83 84 85 86 87 88 89 90 91 92 93 94 95 96 97 98 99 100 101 102 103 104 105 106 107 108 109 110 111 112 113 114 115 116 117 118 119 120 121 122 123 124 125 126 127 128 129 130 131 132 133 134 135 136 137 138 139 140 141 142 143 144 145 146 147 148 149 150 151 152 153 154 155 156 157 158 159 160 161 162 163 164 165 166 167 168 169 170 171 172 173 174 175 176 177 178 179

POINT_DATA 180
SCALARS MaximumInscribedSphereRadius float
LOOKUP_TABLE default
1.5
1.5
1.5
1.5
1.5
1.5
1.5
1.5
1.5
1.5
1.5
1.5
1.5
1.5
1.5
1.5
1.5
1.5
1.5
1.5
1.5
1.5
1.5
1.5
1.5
1.5
1.5
1.5
1.5
1.5
1.5
1.5
1.5
1.5
1.5
1.5
1.5
1.5
1.5
1.5
1.5
1.5
1.5
1.5
1.5
1.5
1.5
1.5
1.5
1.5
1.5
1.5
1.5
1.5
1.5
1.5
1.5
1.5
1.5
1.5
1.5
1.5
1.5
1.5
1.5
1.5
1.5
1.5
1.5
1.5
1.5
1.5
1.5
1.5
1.5
1.5
1.5
1.5
1.5
1.5
1.5
1.5
1.5
1.5
1.5
1.5
1.5
1.5
1.5
1.5
1.5
1.5
1.5
1.5
1.5
1.5
1.5
1.5
1.5
1.5
1.5
1.5
1.5
1.5
1.5
1.5
1.5
1.5
1.5
1.5
1.5
1.5
1.5
1.5
1.5
1.5
1.5
1.5
1.5
1.5
1.5
1.5
1.5
1.5
1.5
1.5
1.5
1.5
1.5
1.5
1.5
1.5
1.5
1.5
1.5
1.5
1.5
1.5
1.5
1.5
1.5
1.5
1.5
1.5
1.5
1.5
1.5
1.5
1.5
1.5
1.5
1.5
1.5
1.5
1.5
1.5
1.5
1.5
1.5
1.5
1.5
1.5
1.5
1.5
1.5
1.5
1.5
1.5
1.5
1.5
1.5
1.5
1.5
1.5
1.5
1.5
1.5
1.5
1.5
1.5
