# vtk DataFile Version 2.0
Vessel Segment
ASCII
DATASET POLYDATA
POINTS 180 float
3.011625369359047 30.51425381181623 -0.5834904573301816
2.841141936954676 29.909818118041358 -0.726629141657388
2.6706585045503055 29.305382424266483 -0.8697678259845945
2.5001750721459346 28.700946730491612 -1.0129065103118011
2.3296916397415632 28.09651103671674 -1.1560451946390078
2.1592082073371923 27.492075342941874 -1.2991838789662147
1.9887247749328214 26.887639649166996 -1.4423225632934216
1.8182413425284505 26.283203955392125 -1.585461247620628
1.6477579101240796 25.678768261617254 -1.7285999319478347
1.4772744777197087 25.07433256784238 -1.8717386162750413
1.3067910453153375 24.46989687406751 -2.0148773006022482
1.1363076129109664 23.865461180292634 -2.1580159849294547
0.9658241805065954 23.261025486517767 -2.3011546692566616
0.7953407481022247 22.656589792742892 -2.444293353583868
0.6248573156978533 22.05215409896802 -2.587432037911075
0.45437388329348355 21.44771840519315 -2.7305707222382813
0.2838904508891123 20.843282711418276 -2.873709406565488
0.11340701848474105 20.2388470176434 -3.0168480908926947
-0.057076413919629705 19.634411323868534 -3.1599867752199007
-0.22755984632400095 19.02997563009366 -3.3031254595471076
-0.4124637870749337 18.42886963200875 -3.4378293888340017
-0.6613889886648604 17.842979327703244 -3.5346892521480697
-0.9712353339753852 17.28071698980224 -3.5871496873370137
-1.3274725757309986 16.74456395352546 -3.5969986252155333
-1.718667170805547 16.234408641972458 -3.5670658100328647
-2.1369364241606914 15.74993228386245 -3.4998225219044627
-2.5759939462888437 15.28994011097899 -3.399908750504487
-3.0317259787743573 14.852584381752337 -3.275011551767683
-3.5025703764952354 14.43538291727629 -3.1372259536693323
-3.989394190581116 14.035136447016644 -3.0050187306850296
-4.493825857392645 13.64808998298836 -2.9054206770475335
-5.013331101136401 13.270934920204724 -2.874162215827689
-5.533574597737201 12.902714756565585 -2.9487707139638766
-6.02564345490331 12.545661262844785 -3.1527186872758475
-6.456041966775176 12.202940212819222 -3.482923902833389
-6.800758648791029 11.875943591646067 -3.9152360019016665
-7.049668283651403 11.564369908349118 -4.419432284483399
-7.202791594383434 11.267491744083195 -4.968820267787127
-7.2657680180495845 10.984781847560448 -5.542805240277794
-7.246981663696921 10.715852337360063 -6.12645410942129
-7.155947977231706 10.46015909174003 -6.7093855033843575
-7.002566553715642 10.216655482412076 -7.284695987867757
-6.796908140401676 9.983367156699346 -7.848139721578605
-6.5491169645041305 9.756906390007662 -8.397520826575569
-6.269054296197703 9.532100671926445 -8.932046675548943
-5.96559041207439 9.302062097925383 -9.45141897916011
-5.645885227478718 9.059034444301627 -9.954879494649463
-5.315232027641154 8.79603081126553 -10.440900393316953
-4.977626719444887 8.508101619553276 -10.907637725464216
-4.636549219979692 8.192379037975355 -11.35351610639132
-4.295464787562236 7.844745561313598 -11.775070571971904
-3.958260674025029 7.464001598553646 -12.170109576194804
-3.627614808797324 7.050439114296781 -12.536192865073623
-3.3057574584844422 6.602036660133005 -12.866737667813382
-2.994951155357688 6.115715500516441 -13.149939407409414
-2.698195271982607 5.588062720565533 -13.364075847467948
-2.420728019617879 5.02048313585183 -13.469596969107311
-2.173666695428115 4.4364282967837365 -13.405284218757146
-1.97637643589876 3.905241149347935 -13.118083175873833
-1.8438834225708933 3.5148021018651803 -12.630415512733826
-1.7724628139283898 3.2994432246876912 -12.029240505421075
-1.7422111736126786 3.2124794518068955 -11.392190861628851
-1.7437403448783262 3.2151981879623035 -10.748129204261083
-1.7773092853009629 3.2850885237887253 -10.108688621578551
-1.844081798695436 3.3961477047331647 -9.477883217191176
-1.9482564350750533 3.5273702281477175 -8.856121912870256
-2.095326979626867 3.6564266587941603 -8.242673132105157
-2.2886880380780723 3.7568652377670153 -7.636877756540372
-2.5251106802179204 3.8016936470533476 -7.039810712323218
-2.7924320587022233 3.773091841296456 -6.454738441182449
-3.0743431856901258 3.669884131705388 -5.884915487157433
-3.358635671857511 3.5061215321265538 -5.3306092677512655
-3.6408995841543 3.2941567073436606 -4.791866134057002
-3.92220685641903 3.044847147678405 -4.268950659168989
-4.205890431114305 2.7630748008875647 -3.764237367370104
-4.49555275817708 2.450122533073684 -3.281967229830461
-4.794073198191487 2.105329984325503 -2.8278700101355816
-5.102828202510233 1.727374534615305 -2.408510088082229
-5.4209200276839535 1.3157901099258102 -2.0296582640999694
-5.744715280192249 0.8722388379547708 -1.693791582181916
-6.068130190889471 0.40050078655185034 -1.3978887512679725
-6.383868976110648 -0.0943034067933586 -1.1326742116479893
-6.683162188302718 -0.6075495337834304 -0.8838815713833231
-6.957266210131057 -1.1336445613409472 -0.6329834888681594
-7.19869184876251 -1.667261650901212 -0.36525240025899686
-7.399379776401133 -2.20380020040642 -0.07149545365219838
-7.552412645814158 -2.73945107559613 0.25072406786451035
-7.65285654780225 -3.272180953151267 0.5972898637869919
-7.697514747810635 -3.8018940877011147 0.9596739058868049
-7.683870298523752 -4.329381572197043 1.32762805703413
-7.60909310732657 -4.854809047452942 1.6909921957096468
-7.469777730845783 -5.376243833620048 2.0407448895490927
-7.26254104024404 -5.888634184995659 2.369715520788277
-6.985526236322821 -6.383818827865714 2.6731001931574916
-6.639865138449911 -6.851461983390491 2.949228097908879
-6.230142220845169 -7.280941818228287 3.1993680464208465
-5.76116960434843 -7.659818199259332 3.426039050489082
-5.24800070131286 -7.986920571853331 3.6360315432461947
-4.700783621311242 -8.262173996989372 3.833495694847739
-4.128638283068245 -8.489326029941836 4.0212128597799754
-3.5389255106612802 -8.674935234710066 4.200459356530714
-2.9371127620660484 -8.827333974661805 4.371241750943997
-2.326992479865676 -8.955525047215907 4.532717304734479
-1.7110532242880219 -9.0681391593401 4.683646168923622
-1.0908868889076888 -9.172533296210997 4.822842816765862
-0.4674525798552211 -9.274189800595165 4.948903948749781
0.1583574303801471 -9.375145246023791 5.063165607124388
0.7859281704603317 -9.473031560425477 5.170197258146848
1.4151558843814342 -9.561924572450128 5.275231311072764
2.0457068037218775 -9.633197819243918 5.385017542850014
2.676304878647348 -9.675650049787299 5.507357703091083
3.3037527247278775 -9.676806361336322 5.650067704610644
3.9223447373351115 -9.625776723963064 5.819111646236492
4.524885778215307 -9.51681101746647 6.016583234701979
5.1054417723387 -9.35171980462571 6.240149969724994
5.6618851414285425 -9.13883268471995 6.484562568260882
6.1960359090762624 -8.889500839916181 6.744201510202396
6.712720438072325 -8.616076107833443 7.014669829388152
7.2217731374104135 -8.335054478305725 7.291731372951686
7.730133993312441 -8.058240980558143 7.574255894319901
8.24364028356344 -7.797362734772896 7.862330377871269
8.766511831298654 -7.564241559017756 8.156823874256142
9.300623782441967 -7.3703763355491 8.459090574322191
9.844807025110951 -7.225682121433047 8.770665710094555
10.394814869562262 -7.1369296774490305 9.09296741715361
10.944286461617596 -7.107372362016923 9.427174667329501
11.485909448782946 -7.138098767212009 9.774244887374648
12.010922332329173 -7.232465117720677 10.135288175065408
12.50979513934522 -7.393522360153063 10.509341492842362
12.971530138403207 -7.625979259039674 10.89298677619387
13.381700110811657 -7.936576717786511 11.279553199921263
13.725547226190846 -8.326519582842675 11.658684025756656
13.993551874047188 -8.78706469063265 12.019467594398845
14.187165900360979 -9.3010415516061 12.35493906594316
14.31756636884156 -9.849860487627016 12.664860919721463
14.399898654462476 -10.419175043345579 12.953768986343157
14.448759787380855 -10.99973721603008 13.22787568250723
14.476378952408858 -11.585734992607117 13.493639175033344
14.492782518004358 -12.173210989125808 13.757244751214477
14.506687518890304 -12.758909189508955 14.024871990636255
14.5263215542259 -13.339396763788235 14.303223306676808
14.561326184842331 -13.909045006177653 14.60183902522233
14.621907067742221 -14.459264081773933 14.9310319428066
14.714664896774284 -14.980841900499636 15.296627578913741
14.846855286440913 -15.46019238872235 15.704451192024568
15.023054353252984 -15.882153724819144 16.155704382324174
15.21695093454553 -16.27971624858141 16.62393930952126
15.410847515838075 -16.67727877234367 17.092174236718343
15.60474409713062 -17.074841296105934 17.56040916391543
15.798640678423165 -17.472403819868195 18.02864409111252
15.992537259715718 -17.869966343630466 18.496879018309613
16.18643384100826 -18.267528867392734 18.965113945506697
16.380330422300812 -18.665091391154995 19.433348872703785
16.574227003593354 -19.06265391491726 19.901583799900866
16.7681235848859 -19.46021643867952 20.36981872709795
16.96202016617844 -19.857778962441778 20.838053654295027
17.155916747470986 -20.255341486204042 21.306288581492115
17.34981332876353 -20.6529040099663 21.774523508689196
17.543709910056073 -21.05046653372856 22.242758435886273
17.737606491348618 -21.44802905749082 22.710993363083357
17.93150307264116 -21.84559158125308 23.179228290280438
18.125399653933705 -22.243154105015343 23.64746321747752
18.31929623522625 -22.640716628777604 24.115698144674603
18.513192816518796 -23.03827915253986 24.583933071871684
18.707089397811338 -23.435841676302125 25.05216799906877
18.900985979103883 -23.833404200064383 25.520402926265852
19.094882560396428 -24.230966723826647 25.98863785346294
19.28877914168897 -24.6285292475889 26.456872780660014
19.482675722981515 -25.026091771351165 26.925107707857098
19.67657230427406 -25.423654295113426 27.393342635054182
19.870468885566602 -25.821216818875683 27.861577562251263
20.06436546685915 -26.218779342637948 28.329812489448344
20.258262048151693 -26.616341866400205 28.798047416645428
20.452158629444238 -27.013904390162466 29.266282343842512
20.646055210736783 -27.411466913924727 29.73451727103959
20.839951792029325 -27.809029437686988 30.202752198236674
21.033848373321867 -28.20659196144925 30.670987125433758
21.227744954614412 -28.60415448521151 31.139222052630835
21.421641535906964 -29.00171700897378 31.607456979827933
21.615538117199506 -29.399279532736035 32.075691907025
LINES 1 181
180 0 1 2 3 4 5 6 7 8 9 10 11 12 13 14 15 16 17 18 19 20 21 22 23 24 25 26 27 28 29 30 31 32 33 34 35 36 37 38 39 40 41 42 43 44 45 46 47 48 49 50 51 52 53 54 55 56 57 58 59 60 61 62 63 64 65 66 67 68 69 70 71 72 73 74 75 76 77 78 79 80 81 82 83 84 85 86 87 88 89 90 91 92 93 94 95 96 97 98 99 100 101 102 103 104 105 106 107 108 109 110 111 112 113 114 115 116 117 118 119 120 121 122 123 124 125 126 127 128 129 130 131 132 133 134 135 136 137 138 139 140 141 142 143 144 145 146 147 148 149 150 151 152 153 154 155 156 157 158 159 160 161 162 163 164 165 166 167 168 169 170 171 172 173 174 175 176 177 178 179

POINT_DATA 180
SCALARS MaximumInscribedSphereRadius float
LOOKUP_TABLE default
1.5
1.5
1.5
1.5
1.5
1.5
1.5
1.5
1.5
1.5
1.5
1.5
1.5
1.5
1.5
1.5
1.5
1.5
1.5
1.5
1.5
1.5
1.5
1.5
1.5
1.5
1.5
1.5
1.5
1.5
1.5
1.5
1.5
1.5
1.5
1.5
1.5
1.5
1.5
1.5
1.5
1.5
1.5
1.5
1.5
1.5
1.5
1.5
1.5
1.5
1.5
1.5
1.5
1.5
1.5
1.5
1.5
1.5
1.5
1.5
1.5
1.5
1.5
1.5
1.5
1.5
1.5
1.5
1.5
1.5
1.5
1.5
1.5
1.5
1.5
1.5
1.5
1.5
1.5
1.5
1.5
1.5
1.5
1.5
1.5
1.5
1.5
1.5
1.5
1.5
1.5
1.5
1.5
1.5
1.5
1.5
1.5
1.5
1.5
1.5
1.5
1.5
1.5
1.5
1.5
1.5
1.5
1.5
1.5
1.5
1.5
1.5
1.5
1.5
1.5
1.5
1.5
1.5
1.5
1.5
1.5
1.5
1.5
1.5
1.5
1.5
1.5
1.5
1.5
1.5
1.5
1.5
1.5
1.5
1.5
1.5
1.5
1.5
1.5
1.5
1.5
1.5
1.5
1.5
1.5
1.5
1.5
1.5
1.5
1.5
1.5
1.5
1.5
1.5
1.5
1.5
1.5
1.5
1.5
1.5
1.5
1.5
1.5
1.5
1.5
1.5
1.5
1.5
1.5
1.5
1.5
1.5
1.5
1.5
1.5
1.5
1.5
1.5
1.5
1.5
