# vtk DataFile Version 2.0
Vessel Segment
ASCII
DATASET POLYDATA
POINTS 180 float
5.408347952345554 22.018792428627815 -13.263693315462751
5.078983730663389 21.69621497325944 -12.92437931059076
4.749619508981224 21.37363751789106 -12.585065305718771
4.420255287299059 21.051060062522684 -12.24575130084678
4.090891065616894 20.728482607154305 -11.90643729597479
3.7615268439347287 20.40590515178593 -11.5671232911028
3.432162622252564 20.083327696417552 -11.227809286230809
3.1027984005703986 19.760750241049173 -10.888495281358818
2.773434178888233 19.4381727856808 -10.549181276486827
2.444069957206068 19.11559533031242 -10.209867271614836
2.114705735523903 18.79301787494404 -9.870553266742846
1.7853415138417386 18.470440419575667 -9.531239261870855
1.4559772921595733 18.147862964207288 -9.191925256998864
1.126613070477408 17.82528550883891 -8.852611252126874
0.7972488487952432 17.502708053470535 -8.513297247254885
0.46788462711307777 17.180130598102156 -8.173983242382894
0.1385204054309134 16.857553142733778 -7.834669237510903
-0.19084381625125202 16.534975687365403 -7.4953552326389135
-0.5202080379334175 16.212398231997025 -7.156041227766923
-0.8495722596155828 15.889820776628648 -6.816727222894931
-1.178936481297748 15.567243321260273 -6.4774132180229405
-1.5083007029799123 15.244665865891896 -6.138099213150951
-1.8376649246620775 14.922088410523518 -5.79878520827896
-2.1513606324358916 14.553091644193104 -5.493838038387481
-2.45322446004601 14.152793065767046 -5.218121213731838
-2.7462871385313923 13.729282000669713 -4.968923985650363
-3.033334631587731 13.287987615017588 -4.74476865819735
-3.317153857155716 12.832859342823976 -4.545431376266221
-3.6008964020252696 12.367139197024919 -4.372080398526494
-3.888537978103054 11.893979203113641 -4.227817696305054
-4.185407491863414 11.417089124252133 -4.119423277317477
-4.498608370698728 10.941982427660811 -4.062870876464095
-4.838596675816756 10.493843377601037 -4.1421703409191055
-5.142853411417199 10.174690734911707 -4.488540664441315
-5.357741795323587 9.977093224423427 -4.979407119353807
-5.538035084014912 9.790983641144729 -5.489726419188587
-5.7117040241682915 9.57520028131107 -5.990286043651551
-5.885505513706137 9.315945889297186 -6.469370426436759
-6.0587853317393705 9.008529629501357 -6.918976693588105
-6.2262586322509215 8.653085349677756 -7.333971828155081
-6.37861023786685 8.252977908737597 -7.712715861848109
-6.501715172912254 7.814826244543822 -8.058760315461935
-6.575228170799923 7.350200136799802 -8.383448217673399
-6.573361109965791 6.879967021770966 -8.707195559895101
-6.474960856497711 6.4382830368503745 -9.053813269695485
-6.283617984528122 6.061401705049276 -9.436367332654031
-6.030947679025706 5.760179626022561 -9.850636454251383
-5.750929457341294 5.51548060827131 -10.285164646232634
-5.462126803311398 5.300508952750518 -10.730019074862115
-5.170283655978768 5.095095787768682 -11.177566827844434
-4.875146032460943 4.886656882046916 -11.62146961426587
-4.574062890889646 4.666746602595467 -12.055620703896594
-4.260971846528952 4.42607156823251 -12.470012456847863
-3.9250978188217696 4.154462033739235 -12.845377005028503
-3.5615791417563 3.850853379661875 -13.164947750534473
-3.1645096130534043 3.512038171123181 -13.39373023211349
-2.7389141777698245 3.1443444600282784 -13.475103263933217
-2.3280290793430853 2.784975950528703 -13.327989115341609
-2.0185438368233637 2.504217041826731 -12.947003922547704
-1.8439170964553186 2.3259313801698465 -12.438579321625323
-1.7965546368064453 2.2396762907590944 -11.878902217641162
-1.8536857094165118 2.2237200556076915 -11.312325905233395
-1.9918397815788358 2.257008769925 -10.759619801599378
-2.1907047450552204 2.3216859631219506 -10.22775413066179
-2.433306816877304 2.4023749188057755 -9.71598042339026
-2.7047602444108745 2.484624587505185 -9.21887136189006
-2.990560703301597 2.5531547800537373 -8.727782258686648
-3.2751771797450018 2.591036504381161 -8.232877211242096
-3.5422338600448837 2.581467307753873 -7.727174038900512
-3.7781580179098038 2.5134706450920277 -7.210720982828539
-3.9776276858462065 2.3866560622504758 -6.689945669941861
-4.144725242455728 2.2084604656379105 -6.172652470442085
-4.288985151106893 1.9876876137214565 -5.664852067758659
-4.4207300378905785 1.7296499974735255 -5.171374199519402
-4.548261174806282 1.4343550199463229 -4.698096855641156
-4.676133741474413 1.0973298097900004 -4.253686477264849
-4.8036639994833195 0.7122326324363689 -3.8501234612761612
-4.924274812773577 0.2758885130943217 -3.5001004277292806
-5.027521514392427 -0.20718988692903545 -3.2110045706825616
-5.101643393513537 -0.72682971651698 -2.982637774322249
-5.138195458982716 -1.2689166216372232 -2.802873875414003
-5.133434257563954 -1.8212487186593391 -2.653740913154981
-5.08577177180436 -2.3747903269813335 -2.5175556556061953
-4.994638617086505 -2.921726803928542 -2.3775376541719018
-4.860037259820816 -3.453590977020979 -2.21720185797537
-4.6833020643537955 -3.9595538155721677 -2.0197188641384036
-4.4690605475885805 -4.425591809919226 -1.7692905395382001
-4.227214237171438 -4.836440064154097 -1.4556794170420464
-3.971983505812357 -5.1816517668137765 -1.0793851210299825
-3.7167603525311277 -5.4619398431920345 -0.6517952985887034
-3.468581159506858 -5.689445413502156 -0.18937183121297638
-3.226698565748323 -5.882779663158437 0.291975471299089
-2.984328877005768 -6.061508309029858 0.7787683757474826
-2.731440154888874 -6.242482479915277 1.2592282163961506
-2.457637849904967 -6.436560680072812 1.7227138399163946
-2.155167811811416 -6.6467422646962415 2.160682714009962
-1.8206021977007854 -6.8682034618479095 2.5688753115071177
-1.453334465881951 -7.0903199242591155 2.947622838798165
-1.0565119725737164 -7.299195596624908 3.303313404375215
-0.6364755516477189 -7.4830219779731735 3.6457716461262093
-0.19937211244754488 -7.631689803149168 3.983672644037125
0.2476514218048454 -7.73720648089598 4.324473736494033
0.6968456836770863 -7.794499244499205 4.673536984538863
1.1408023126552465 -7.802327722299809 5.033671729715609
1.5738140642815028 -7.763353623200754 5.405139061229832
1.9928640999432585 -7.683351211407594 5.78629882258062
2.397688055016828 -7.569862560714222 6.174596991318992
2.790037705384119 -7.4303052186323635 6.5673520030835935
3.172277043570754 -7.270496895441644 6.962347181360262
3.5493691073925784 -7.100412225938773 7.357973686497722
3.923253975444295 -6.9256421754313475 7.754623021767403
4.29465662273912 -6.751785446797515 8.153993040203506
4.662911955140133 -6.584797170084543 8.559116088424691
5.025943566111225 -6.431249095591692 8.974057913851846
5.380921080418747 -6.297849664817713 9.402618706731895
5.726913493453858 -6.189697237084635 9.845401769418999
6.069066164496422 -6.107888418851337 10.296822037914636
6.420543969409912 -6.048041217867844 10.744548722088366
6.798295031377607 -6.002047787001079 11.172010742585192
7.215395207905182 -5.961758450175761 11.56170596283602
7.666400987014351 -5.923240222667711 11.911779326023964
8.14359912678317 -5.887176464563866 12.225692088502493
8.639096555662064 -5.8565427117423985 12.510674316546607
9.14723614345661 -5.8377670301810785 12.7735543478889
9.660825841840447 -5.8355769325326134 13.02618331775934
10.175201048927184 -5.854892144010009 13.276292049191554
10.685463148124239 -5.900751767389583 13.530952540209467
11.185603272611186 -5.9783855759505 13.797317728574683
11.667550035520273 -6.092884633762109 14.083047230830875
12.120429678777366 -6.248016826360712 14.396012300531309
12.531133339904812 -6.443857993540321 14.742828905570372
12.886945415786412 -6.675422791223917 15.126614730718584
13.179837328313766 -6.932579963585693 15.545841353957563
13.40820592590237 -7.203000178021693 15.995720993859535
13.580425614121477 -7.4756681965508385 16.468557158801065
13.708343904883977 -7.744324343187834 16.95744198910414
13.805663992231338 -8.008148532689564 17.455941838819182
13.886176284345487 -8.271514830432436 17.957732805602152
13.963365040355283 -8.542953705379336 18.45574324788772
14.050888364306202 -8.833904206735594 18.94071020035893
14.162921626920363 -9.156844915776322 19.39926009797649
14.31300819211563 -9.521858986526457 19.81242380762636
14.47377644885512 -9.898325167573086 20.21254601557243
14.634544705594607 -10.274791348619704 20.61266822351849
14.795312962334092 -10.651257529666324 21.012790431464552
14.956081219073578 -11.02772371071294 21.412912639410614
15.116849475813062 -11.404189891759561 21.813034847356672
15.27761773255255 -11.780656072806178 22.21315705530273
15.438385989292033 -12.157122253852798 22.613279263248792
15.59915424603152 -12.533588434899418 23.01340147119485
15.759922502771005 -12.910054615946034 23.413523679140912
15.920690759510496 -13.286520796992665 23.813645887086984
16.08145901624998 -13.662986978039285 24.213768095033043
16.242227272989467 -14.039453159085904 24.613890302979105
16.402995529728955 -14.415919340132522 25.014012510925163
16.563763786468435 -14.792385521179138 25.41413471887122
16.724532043207923 -15.168851702225751 25.814256926817276
16.88530029994741 -15.545317883272372 26.214379134763337
17.04606855668689 -15.921784064318988 26.614501342709396
17.206836813426378 -16.298250245365608 27.014623550655454
17.36760507016587 -16.674716426412235 27.414745758601523
17.528373326905353 -17.051182607458856 27.814867966547588
17.68914158364484 -17.427648788505472 28.214990174493646
17.849909840384328 -17.804114969552092 28.61511238243971
18.01067809712381 -18.180581150598712 29.015234590385766
18.171446353863296 -18.55704733164533 29.41535679833183
18.332214610602783 -18.933513512691945 29.815479006277883
18.492982867342263 -19.30997969373856 30.215601214223938
18.65375112408175 -19.68644587478518 30.61572342217
18.81451938082124 -20.062912055831795 31.015845630116058
18.97528763756073 -20.439378236878426 31.415967838062127
19.136055894300213 -20.815844417925046 31.816090046008192
19.296824151039697 -21.192310598971662 32.216212253954254
19.457592407779185 -21.568776780018283 32.61633446190031
19.61836066451867 -21.9452429610649 33.01645666984637
19.779128921258152 -22.321709142111516 33.41657887779243
19.939897177997636 -22.69817532315813 33.81670108573849
20.100665434737124 -23.074641504204745 34.21682329368454
20.2614336914766 -23.45110768525136 34.61694550163059
20.422201948216095 -23.827573866297985 35.017067709576665
LINES 1 181
180 0 1 2 3 4 5 6 7 8 9 10 11 12 13 14 15 16 17 18 19 20 21 22 23 24 25 26 27 28 29 30 31 32 33 34 35 36 37 38 39 40 41 42 43 44 45 46 47 48 49 50 51 52 53 54 55 56 57 58 59 60 61 62 63 64 65 66 67 68 69 70 71 72 73 74 75 76 77 78 79 80 81 82 83 84 85 86 87 88 89 90 91 92 93 94 95 96 97 98 99 100 101 102 103 104 105 106 107 108 109 110 111 112 113 114 115 116 117 118 119 120 121 122 123 124 125 126 127 128 129 130 131 132 133 134 135 136 137 138 139 140 141 142 143 144 145 146 147 148 149 150 151 152 153 154 155 156 157 158 159 160 161 162 163 164 165 166 167 168 169 170 171 172 173 174 175 176 177 178 179

POINT_DATA 180
SCALARS MaximumInscribedSphereRadius float
LOOKUP_TABLE default
1.5
1.5
1.5
1.5
1.5
1.5
1.5
1.5
1.5
1.5
1.5
1.5
1.5
1.5
1.5
1.5
1.5
1.5
1.5
1.5
1.5
1.5
1.5
1.5
1.5
1.5
1.5
1.5
1.5
1.5
1.5
1.5
1.5
1.5
1.5
1.5
1.5
1.5
1.5
1.5
1.5
1.5
1.5
1.5
1.5
1.5
1.5
1.5
1.5
1.5
1.5
1.5
1.5
1.5
1.5
1.5
1.5
1.5
1.5
1.5
1.5
1.5
1.5
1.5
1.5
1.5
1.5
1.5
1.5
1.5
1.5
1.5
1.5
1.5
1.5
1.5
1.5
1.5
1.5
1.5
1.5
1.5
1.5
1.5
1.5
1.5
1.5
1.5
1.5
1.5
1.5
1.5
1.5
1.5
1.5
1.5
1.5
1.5
1.5
1.5
1.5
1.5
1.5
1.5
1.5
1.5
1.5
1.5
1.5
1.5
1.5
1.5
1.5
1.5
1.5
1.5
1.5
1.5
1.5
1.5
1.5
1.5
1.5
1.5
1.5
1.5
1.5
1.5
1.5
1.5
1.5
1.5
1.5
1.5
1.5
1.5
1.5
1.5
1.5
1.5
1.5
1.5
1.5
1.5
1.5
1.5
1.5
1.5
1.5
1.5
1.5
1.5
1.5
1.5
1.5
1.5
1.5
1.5
1.5
1.5
1.5
1.5
1.5
1.5
1.5
1.5
1.5
1.5
1.5
1.5
1.5
1.5
1.5
1.5
1.5
1.5
1.5
1.5
1.5
1.5
