# vtk DataFile Version 2.0
Vessel Segment
ASCII
DATASET POLYDATA
POINTS 180 float
6.910389351121728 24.1568477437229 -5.678893463420607
6.4595585220123395 23.800411503709732 -5.7649334730919275
6.00872769290295 23.443975263696572 -5.850973482763247
5.557896863793561 23.08753902368341 -5.937013492434566
5.1070660346841725 22.731102783670245 -6.023053502105887
4.656235205574782 22.37466654365708 -6.109093511777206
4.205404376465394 22.018230303643918 -6.1951335214485255
3.7545735473560047 21.661794063630754 -6.281173531119845
3.3037427182466157 21.30535782361759 -6.367213540791164
2.852911889137227 20.948921583604427 -6.453253550462485
2.4020810600278373 20.592485343591264 -6.539293560133803
1.9512502309184483 20.2360491035781 -6.6253335698051234
1.5004194018090593 19.879612863564933 -6.711373579476444
1.0495885726996708 19.52317662355177 -6.797413589147764
0.5987577435902818 19.16674038353861 -6.883453598819083
0.14792691448089118 18.810304143525443 -6.969493608490403
-0.3029039146284974 18.453867903512275 -7.055533618161721
-0.7537347437378855 18.097431663499115 -7.141573627833042
-1.2045655728472755 17.740995423485952 -7.227613637504362
-1.6553964019566645 17.38455918347279 -7.313653647175681
-2.106227231066054 17.028122943459625 -7.399693656847001
-2.557058060175442 16.671686703446458 -7.485733666518319
-3.002420759742954 16.307478251720507 -7.549400308189135
-3.4207190904715232 15.907218735581242 -7.50651955533076
-3.8021964943787463 15.489523815575815 -7.373462961941758
-4.151137268292381 15.067593677989427 -7.179365346482933
-4.4808324814356215 14.64611048778482 -6.953262473013557
-4.803442347247002 14.225388714524929 -6.715365365053004
-5.132568160962917 13.804364610741487 -6.487343522068347
-5.48346971706769 13.382462763102762 -6.298323451682943
-5.868927290356985 12.963745365137381 -6.190672862678098
-6.285380689413639 12.562863296264347 -6.213727063821725
-6.6995083146858665 12.202670710017427 -6.398260789190636
-7.071377479675151 11.884905248052972 -6.710132555621258
-7.387736662035619 11.59019919603563 -7.097348563480269
-7.644905403124898 11.300797120509971 -7.530100667922197
-7.840751624673856 11.002635050187289 -7.988592153621881
-7.968602000500546 10.684315761698631 -8.457660618679453
-8.02361327212018 10.339497467059987 -8.921901454892712
-8.00636288734921 9.969215508787428 -9.36859762105419
-7.917727916692911 9.578487063324093 -9.788237032773123
-7.762994498324192 9.17619478644987 -10.17657810458164
-7.550955537158937 8.772821031091546 -10.535908491151652
-7.291774204486775 8.37820080788651 -10.873771700255165
-6.995249830973231 8.000082342018956 -11.199869908055428
-6.669970976660704 7.643434552381142 -11.522884889229427
-6.32303822460149 7.3101079434034695 -11.848427522183291
-5.959907786723214 6.9989313722415325 -12.17841504932173
-5.584244070301949 6.7062590196593534 -12.511441148651008
-5.1962685307715635 6.426618201305295 -12.841553411935486
-4.796591486247042 6.148907374722967 -13.159030741697514
-4.38352373549605 5.863722846489446 -13.451435260725534
-3.954441573268289 5.56020929828511 -13.697675953827442
-3.509681161877571 5.225269435146375 -13.858109300841056
-3.079104653420133 4.849745247055313 -13.821977316239334
-2.7707505076005137 4.49164490274585 -13.504183951211173
-2.6762149841480345 4.241827930726107 -12.994928873618875
-2.713214006578052 4.0733178209699945 -12.441835157226606
-2.822115842901455 3.949870116353789 -11.885318690011427
-2.9746589408711674 3.853008395265906 -11.33335028909825
-3.1538997026094435 3.773703699880654 -10.786435299841358
-3.348222131377728 3.7090845665739662 -10.242670171386662
-3.548649724846094 3.659282493284355 -9.699543272324805
-3.7482133982945003 3.6247577932237918 -9.15492145040021
-3.942191800915454 3.6040661463905925 -8.607582186572099
-4.128314307446256 3.5924746597257644 -8.057227072259716
-4.306548298864936 3.5815369908121086 -7.504247751158149
-4.478738026195085 3.5586544251370933 -6.949814028597714
-4.648285176615486 3.506040744431024 -6.396870861203817
-4.819355071694327 3.400391400814734 -5.852610275677961
-4.994629255476161 3.2173368438950485 -5.331444218319447
-5.171794514415723 2.9442198008807585 -4.852311371292357
-5.3427697693509675 2.5913850678991732 -4.425092573643858
-5.497398867143463 2.1853996882923115 -4.039873092555945
-5.626575548678145 1.7534047602484415 -3.6734954251360703
-5.722691315731705 1.3160050413967836 -3.3033107014554233
-5.78021705059328 0.8873021300534012 -2.915396708781269
-5.797329526558716 0.4747184547287004 -2.5066764420189305
-5.776811519631913 0.07905213238494838 -2.0817088824312258
-5.724690042773185 -0.30435616150506023 -1.6482799458002118
-5.647898595611872 -0.6825146128132406 -1.2138779828520445
-5.552386779299793 -1.0622326834185019 -0.7845619411316298
-5.442211968772337 -1.4493260967285169 -0.36550092154443664
-5.319157408517453 -1.84822537123044 0.038553109710516634
-5.182401755072503 -2.261886681101048 0.42275355113884905
-5.028340945619465 -2.691296391675804 0.7821937477427665
-4.851054379944549 -3.1347107391653846 1.1126199781928854
-4.6438198440854865 -3.587066322716306 1.4119511442787174
-4.401286859484529 -4.040168480681417 1.6822352442073345
-4.1211460115024545 -4.48418693326472 1.9304045790344646
-3.804459248454231 -4.909739988553396 2.1667472101135736
-3.454696616349218 -5.309173121505328 2.4019922345915887
-3.076476262671518 -5.676929830020979 2.644687188242619
-2.674626520425692 -6.009616587220913 2.89974289540731
-2.2532768364828093 -6.305651392370826 3.1683116795456847
-1.8155572564588742 -6.564782981839728 3.4488121375583365
-1.363467323816204 -6.787444073649091 3.7379727189415677
-0.8979684005380404 -6.973346057887512 4.031995367078585
-0.4197823702247491 -7.121509402817854 4.327025685643715
0.06846408977658859 -7.235422055799468 4.62056664177338
0.5645317146537601 -7.3155073057351885 4.9120225281371335
1.0655647933043246 -7.36231690830687 5.2021595779165635
1.5683188048817418 -7.376683326372165 5.49273100533638
2.0692664850439835 -7.360143600122436 5.786330942251954
2.5650135739326236 -7.31546366535969 6.085849343985409
3.0527551603049172 -7.246888822493647 6.393973325118773
3.5305863388392322 -7.160144932946123 6.712952526827164
3.997773447044011 -7.062100339958542 7.044254208357868
4.4549110377831385 -6.95972651896766 7.388071169972589
4.903979591324467 -6.859052988266975 7.742874877570843
5.348002840508405 -6.763635341065036 8.105412205477094
5.790980263768956 -6.674119165213961 8.470726806418268
6.237331420532597 -6.58815938913306 8.832776077493747
6.691300519420581 -6.501749139893022 9.185114160800495
7.1554248300471315 -6.412033512244173 9.523079565136015
7.630303768333919 -6.318859297022413 9.844743437931516
8.11510794266678 -6.225607166462558 10.151206481033503
8.607951835536984 -6.138594936596511 10.446481887050583
9.106322341496018 -6.065935017121226 10.736253039641698
9.607055662311128 -6.016578137692306 11.026630750050838
10.10628081130743 -5.999383741651159 11.322843753329435
10.599318742471603 -6.0225660282991775 11.628458428711081
11.08064583595501 -6.093526953404277 11.944943012838788
11.543734240303005 -6.219002388786691 12.27152444596199
11.98047876883485 -6.4054186644545315 12.605326980117383
12.380234439222201 -6.659348862142756 12.941041309436853
12.728208850287817 -6.986522132814622 13.270897297341524
13.00642586666589 -7.3874614542841215 13.58482372134448
13.199955174377767 -7.851829451591336 13.873685718647724
13.30528852427222 -8.359247372224322 14.134716310234037
13.332920462435927 -8.887232784223434 14.374640747662554
13.30100063760249 -9.418469632545717 14.607379809720683
13.228877789404978 -9.941485282007944 14.849731249106911
13.133724480930209 -10.447951080591345 15.117775624490015
13.029305093450809 -10.931289609952401 15.422407381158763
12.923924037303804 -11.388138006838156 15.76528284461239
12.818477294672288 -11.822178731309744 16.13685600129811
12.706885131914026 -12.24538520951075 16.519097099566952
12.578400322291985 -12.67464594358228 16.888658837762264
12.422158762119121 -13.12480950871889 17.219630129028374
12.232230978144353 -13.601975413335932 17.487924332912343
12.010621714920013 -14.101325043002863 17.680200126538317
11.76898630969532 -14.612224265541176 17.815449630367578
11.52735090447062 -15.123123488079502 17.950699134196842
11.285715499245919 -15.634022710617828 18.085948638026107
11.044080094021226 -16.14492193315614 18.221198141855368
10.802444688796523 -16.65582115569447 18.356447645684632
10.560809283571821 -17.166720378232792 18.491697149513893
10.319173878347128 -17.67761960077111 18.626946653343158
10.077538473122429 -18.188518823309437 18.76219615717242
9.835903067897728 -18.699418045847757 18.897445661001683
9.594267662673033 -19.21031726838607 19.032695164830944
9.352632257448336 -19.721216490924387 19.167944668660205
9.110996852223638 -20.232115713462715 19.30319417248947
8.869361446998942 -20.743014936001025 19.43844367631873
8.627726041774245 -21.253914158539345 19.573693180147995
8.386090636549547 -21.764813381077666 19.70894268397726
8.144455231324853 -22.27571260361598 19.84419218780652
7.902819826100153 -22.786611826154306 19.979441691635785
7.661184420875452 -23.297511048692634 20.11469119546505
7.419549015650752 -23.808410271230958 20.249940699294314
7.177913610426057 -24.319309493769268 20.385190203123575
6.936278205201356 -24.830208716307595 20.520439706952835
6.694642799976656 -25.341107938845923 20.6556892107821
6.453007394751961 -25.852007161384236 20.790938714611364
6.21137198952726 -26.362906383922564 20.926188218440625
5.96973658430256 -26.87380560646089 21.061437722269893
5.728101179077865 -27.3847048289992 21.19668722609915
5.486465773853165 -27.89560405153753 21.331936729928415
5.244830368628464 -28.406503274075853 21.46718623375768
5.003194963403772 -28.91740249661416 21.60243573758694
4.761559558179075 -29.42830171915248 21.7376852414162
4.519924152954375 -29.939200941690807 21.87293474524547
4.27828874772968 -30.45010016422912 22.008184249074727
4.036653342504981 -30.960999386767444 22.143433752903995
3.7950179372802855 -31.47189860930576 22.27868325673326
3.5533825320555943 -31.982797831844064 22.413932760562517
3.311747126830895 -32.49369705438239 22.549182264391778
3.070111721606194 -33.00459627692071 22.684431768221042
2.8284763163815008 -33.51549549945902 22.819681272050303
LINES 1 181
180 0 1 2 3 4 5 6 7 8 9 10 11 12 13 14 15 16 17 18 19 20 21 22 23 24 25 26 27 28 29 30 31 32 33 34 35 36 37 38 39 40 41 42 43 44 45 46 47 48 49 50 51 52 53 54 55 56 57 58 59 60 61 62 63 64 65 66 67 68 69 70 71 72 73 74 75 76 77 78 79 80 81 82 83 84 85 86 87 88 89 90 91 92 93 94 95 96 97 98 99 100 101 102 103 104 105 106 107 108 109 110 111 112 113 114 115 116 117 118 119 120 121 122 123 124 125 126 127 128 129 130 131 132 133 134 135 136 137 138 139 140 141 142 143 144 145 146 147 148 149 150 151 152 153 154 155 156 157 158 159 160 161 162 163 164 165 166 167 168 169 170 171 172 173 174 175 176 177 178 179

POINT_DATA 180
SCALARS MaximumInscribedSphereRadius float
LOOKUP_TABLE default
1.5
1.5
1.5
1.5
1.5
1.5
1.5
1.5
1.5
1.5
1.5
1.5
1.5
1.5
1.5
1.5
1.5
1.5
1.5
1.5
1.5
1.5
1.5
1.5
1.5
1.5
1.5
1.5
1.5
1.5
1.5
1.5
1.5
1.5
1.5
1.5
1.5
1.5
1.5
1.5
1.5
1.5
1.5
1.5
1.5
1.5
1.5
1.5
1.5
1.5
1.5
1.5
1.5
1.5
1.5
1.5
1.5
1.5
1.5
1.5
1.5
1.5
1.5
1.5
1.5
1.5
1.5
1.5
1.5
1.5
1.5
1.5
1.5
1.5
1.5
1.5
1.5
1.5
1.5
1.5
1.5
1.5
1.5
1.5
1.5
1.5
1.5
1.5
1.5
1.5
1.5
1.5
1.5
1.5
1.5
1.5
1.5
1.5
1.5
1.5
1.5
1.5
1.5
1.5
1.5
1.5
1.5
1.5
1.5
1.5
1.5
1.5
1.5
1.5
1.5
1.5
1.5
1.5
1.5
1.5
1.5
1.5
1.5
1.5
1.5
1.5
1.5
1.5
1.5
1.5
1.5
1.5
1.5
1.5
1.5
1.5
1.5
1.5
1.5
1.5
1.5
1.5
1.5
1.5
1.5
1.5
1.5
1.5
1.5
1.5
1.5
1.5
1.5
1.5
1.5
1.5
1.5
1.5
1.5
1.5
1.5
1.5
1.5
1.5
1.5
1.5
1.5
1.5
1.5
1.5
1.5
1.5
1.5
1.5
1.5
1.5
1.5
1.5
1.5
1.5
