# vtk DataFile Version 2.0
Vessel Segment
ASCII
DATASET POLYDATA
POINTS 180 float
2.370274981935628 24.089680219216376 -9.469658641693325
2.2689103633791543 23.704081617509928 -9.067603126047777
2.1675457448226805 23.318483015803473 -8.665547610402227
2.0661811262662066 22.932884414097025 -8.263492094756677
1.9648165077097328 22.547285812390577 -7.861436579111127
1.8634518891532592 22.16168721068412 -7.459381063465578
1.7620872705967856 21.776088608977673 -7.057325547820029
1.6607226520403116 21.39049000727122 -6.65527003217448
1.5593580334838375 21.00489140556477 -6.25321451652893
1.457993414927364 20.619292803858322 -5.851159000883381
1.35662879637089 20.233694202151867 -5.449103485237831
1.255264177814416 19.84809560044542 -5.047047969592282
1.1538995592579422 19.462496998738967 -4.644992453946733
1.0525349407014686 19.07689839703252 -4.242936938301184
0.9511703221449951 18.691299795326067 -3.8408814226556345
0.8498057035885211 18.305701193619615 -3.4388259070100853
0.7484410850320472 17.920102591913167 -3.0367703913645347
0.6470764664755729 17.534503990206716 -2.634714875718984
0.5457118479190994 17.148905388500264 -2.2326593600734355
0.44434722936262533 16.763306786793812 -1.8306038444278852
0.34298261080615167 16.377708185087364 -1.4285483287823366
0.24161799224967792 15.99210958338091 -1.0264928131367874
0.14025337369320412 15.606510981674461 -0.624437297491238
-0.0395732678408077 15.205383279476003 -0.2775372642373928
-0.33314131914901585 14.796855776803117 -0.031855767380519526
-0.7188282745002991 14.40881209981153 0.09384460196201866
-1.1602746084065472 14.059591130126286 0.1069868393126885
-1.6275689577827945 13.754030624588252 0.025884545127732275
-2.1009529656801718 13.490477210020913 -0.13387333392160755
-2.5662250162428615 13.265977404661111 -0.36320276956888775
-3.009848702464739 13.077713974487502 -0.6587317423319278
-3.415433436583241 12.921734274105859 -1.0201109277925153
-3.762879496047053 12.789790754809637 -1.4454896458652708
-4.032296750919665 12.666186258810377 -1.9261069884293698
-4.213054905795693 12.529076393470621 -2.4435429209428148
-4.3049617477438575 12.3538053893621 -2.97317902507269
-4.343019160606565 12.139273527344356 -3.495488176843848
-4.356497047609446 11.901655735670396 -4.009177143665145
-4.353935512252831 11.657075884483433 -4.519814124168388
-4.332629776453578 11.414926092055849 -5.031124117432889
-4.286461799932605 11.17352764126721 -5.541065528964451
-4.209613349652561 10.926958882337814 -6.044695070136122
-4.098423504830256 10.669424590985896 -6.5361760577523285
-3.9514725944598164 10.397192200091336 -7.009935038895824
-3.7698865809441116 10.10847777973289 -7.461350359555494
-3.5577667792959584 9.802408607966104 -7.887321761266239
-3.3224220543824865 9.478005252495343 -8.286808254596146
-3.0742432838199614 9.133636575933243 -8.661156071599367
-2.8263399093088624 8.767100096352465 -9.01406380425004
-2.5938469995267432 8.376424745732098 -9.351073515132756
-2.3924003526246933 7.961287438429715 -9.678435810446043
-2.2355708773262215 7.524177698526419 -10.001358647871967
-2.1322347423580417 7.069922674641717 -10.322068406812619
-2.0861665977671286 6.60313440229084 -10.63805041969432
-2.099653524660476 6.125004675281664 -10.939562842093068
-2.1806743613135398 5.632229764930935 -11.203604581044635
-2.3596882694966843 5.125782990989921 -11.366619613454763
-2.671543867847215 4.667612577693308 -11.307820027965487
-3.0491464210787327 4.350515423613387 -11.042104493495907
-3.4313069300925907 4.1697904471307705 -10.667319183636636
-3.8021687431132216 4.065504827613798 -10.253327150098398
-4.159971257845132 4.01312730912451 -9.818049253777282
-4.503832550344622 3.9980877847133907 -9.368553416777903
-4.830239912183685 4.013699741306032 -8.906142121346349
-5.1365347736015785 4.050856780792767 -8.431475483954165
-5.421206020441026 4.101291212583604 -7.944830205461399
-5.6806555543030495 4.158651752191833 -7.445102710896777
-5.909858697883121 4.2155412126462934 -6.930854939480673
-6.1015060139846895 4.262888137824197 -6.400716591150513
-6.244856916866985 4.290527584537055 -5.85448163229683
-6.32561016130876 4.2887053180337364 -5.295256920002946
-6.329481428543964 4.250131165296812 -4.731827185440528
-6.2500512634739795 4.171316374126069 -4.178161870509669
-6.094845474331395 4.051260160656147 -3.6480317166300678
-5.8828652860226445 3.8889201556198527 -3.149318814289532
-5.636757324407892 3.681231702108182 -2.683985321554548
-5.377218785950728 3.4239530998809635 -2.251872942404545
-5.121380302241919 3.1139052313620246 -1.8536407031067208
-4.882979161844088 2.750296548884896 -1.4918075146658594
-4.671696881253952 2.336662988938177 -1.1692689671190966
-4.49244365801237 1.8804017558537347 -0.8875714097095438
-4.34479801632693 1.391303097871993 -0.6452209032708748
-4.223877982063363 0.8791650300972539 -0.4376040768156796
-4.12197884596233 0.35223193700576866 -0.2579396710979395
-4.03015438059316 -0.1831657120887279 -0.09840856150144504
-3.939299850319267 -0.7222074675791426 0.04914831913627578
-3.8409976345675183 -1.260963467515906 0.1928655770313725
-3.7287115378693345 -1.7959542112926152 0.3403814433733398
-3.598097486883745 -2.323468663735203 0.49937256684697806
-3.450700894356389 -2.8410558400313355 0.6753124861928629
-3.2926267781150464 -3.3486838450294045 0.8698853911434412
-3.1306156704646178 -3.847510324551631 1.0830702346166812
-2.9709032973839364 -4.339798055160827 1.3125934364342438
-2.817538105534551 -4.8284850990303045 1.553899672263364
-2.670961662624161 -5.316550307262697 1.8006874088186842
-2.527512660724016 -5.806561066176409 2.0454456698946757
-2.37972345024141 -6.300093512682716 2.280177054867776
-2.217425747843036 -6.79691097420101 2.4974258088546417
-2.0297740355847567 -7.29420380921742 2.6916206244921503
-1.8076743874063794 -7.786387576399611 2.860737160510834
-1.545586492254231 -8.266008509686895 3.0073586548562474
-1.242013498560161 -8.725388589015779 3.1383047532650514
-0.8985051245784833 -9.1577015745861 3.263136598028391
-0.5176086242437332 -9.55615756845849 3.392598492707805
-0.10371614755343062 -9.91433559951409 3.537320890728304
0.33505337753098885 -10.230981059787089 3.703246750461554
0.7920736790440103 -10.505146836473426 3.8932233142973502
1.2610310695958207 -10.738352335338151 4.1070970886088265
1.7367397648700247 -10.933958075758035 4.342744803570264
2.2153891594848023 -11.096307041864929 4.597197379812936
2.6944994895866285 -11.229554325370955 4.867433660385629
3.1726124761407606 -11.337212686023125 5.150727119179711
3.6489692152886066 -11.42199656948042 5.444672985107308
4.123463268726348 -11.48494883722263 5.747093201028454
4.596405606196288 -11.52588544734161 6.055734488892719
5.068522300866928 -11.54295790270259 6.367848629253352
5.540715232457968 -11.538847684896162 6.680224357579055
6.013594148191247 -11.515957417622051 6.9907245936134945
6.487439135275425 -11.4795012102971 7.298481303235171
6.962089560494336 -11.43678604173203 7.6042381550195515
7.4367615591627585 -11.395737932897617 7.910184050391774
7.909933573711063 -11.363795195477916 8.219435292168708
8.379316073338341 -11.346670612830753 8.5354690608096
8.841975763884205 -11.34714727932683 8.86169465574015
9.294679554171722 -11.364255790394804 9.20121180244636
9.734424183709812 -11.392734151670393 9.556666344595738
10.15907274244593 -11.42314067708482 9.929876151196174
10.567845251049665 -11.443852942213613 10.321021097137876
10.962207049026865 -11.445855445543407 10.727222287565592
11.34793277080662 -11.429418743877914 11.141389515732676
11.735411609797627 -11.409779614783371 11.553732306240562
12.136627183123881 -11.418057541507853 11.952493963094742
12.556332944684492 -11.494859461755745 12.322899055029225
12.981513466447296 -11.675284680247275 12.648179957448793
13.379901191189411 -11.9747470539318 12.914660851387524
13.730514860064044 -12.359198150466472 13.13506420359441
14.023954846909922 -12.805298844418775 13.321033235312068
14.25824877732057 -13.294361021898196 13.483483107405005
14.420851108742628 -13.816993354689805 13.628485285771326
14.519380523187321 -14.356684956698754 13.765031250531385
14.560138732682407 -14.904186972822707 13.897249637190743
14.562148468662546 -15.455273418899889 14.027285767190772
14.564158204642682 -16.006359864977085 14.157321897190805
14.566167940622822 -16.55744631105427 14.287358027190836
14.568177676602957 -17.108532757131467 14.417394157190868
14.570187412583095 -17.65961920320866 14.5474302871909
14.57219714856323 -18.210705649285842 14.677466417190931
14.57420688454337 -18.76179209536304 14.807502547190964
14.576216620523507 -19.312878541440224 14.937538677190993
14.578226356503643 -19.86396498751742 15.067574807191026
14.580236092483782 -20.415051433594613 15.19761093719106
14.582245828463918 -20.9661378796718 15.327647067191089
14.584255564444057 -21.517224325748995 15.457683197191121
14.586265300424193 -22.06831077182619 15.587719327191156
14.588275036404331 -22.619397217903373 15.717755457191185
14.590284772384468 -23.17048366398057 15.847791587191217
14.592294508364606 -23.721570110057765 15.977827717191252
14.594304244344745 -24.272656556134947 16.10786384719128
14.59631398032488 -24.823743002212144 16.23789997719131
14.598323716305016 -25.374829448289322 16.367936107191344
14.600333452285154 -25.925915894366522 16.497972237191373
14.602343188265293 -26.47700234044372 16.628008367191406
14.604352924245429 -27.028088786520897 16.758044497191438
14.606362660225566 -27.579175232598097 16.88808062719147
14.608372396205706 -28.130261678675282 17.0181167571915
14.610382132185842 -28.681348124752475 17.148152887191536
14.612391868165979 -29.23243457082967 17.27818901719157
14.614401604146117 -29.783521016906853 17.408225147191597
14.616411340126255 -30.334607462984053 17.53826127719163
14.61842107610639 -30.885693909061253 17.668297407191666
14.620430812086529 -31.43678035513843 17.798333537191695
14.622440548066667 -31.98786680121563 17.928369667191728
14.624450284046802 -32.53895324729282 18.058405797191757
14.62646002002694 -33.09003969336999 18.188441927191786
14.628469756007078 -33.64112613944719 18.318478057191818
14.630479491987215 -34.192212585524366 18.448514187191847
14.632489227967351 -34.74329903160155 18.578550317191876
14.63449896394749 -35.294385477678745 18.708586447191912
14.636508699927628 -35.84547192375592 18.838622577191938
14.638518435907764 -36.396558369833116 18.96865870719197
LINES 1 181
180 0 1 2 3 4 5 6 7 8 9 10 11 12 13 14 15 16 17 18 19 20 21 22 23 24 25 26 27 28 29 30 31 32 33 34 35 36 37 38 39 40 41 42 43 44 45 46 47 48 49 50 51 52 53 54 55 56 57 58 59 60 61 62 63 64 65 66 67 68 69 70 71 72 73 74 75 76 77 78 79 80 81 82 83 84 85 86 87 88 89 90 91 92 93 94 95 96 97 98 99 100 101 102 103 104 105 106 107 108 109 110 111 112 113 114 115 116 117 118 119 120 121 122 123 124 125 126 127 128 129 130 131 132 133 134 135 136 137 138 139 140 141 142 143 144 145 146 147 148 149 150 151 152 153 154 155 156 157 158 159 160 161 162 163 164 165 166 167 168 169 170 171 172 173 174 175 176 177 178 179

POINT_DATA 180
SCALARS MaximumInscribedSphereRadius float
LOOKUP_TABLE default
1.5
1.5
1.5
1.5
1.5
1.5
1.5
1.5
1.5
1.5
1.5
1.5
1.5
1.5
1.5
1.5
1.5
1.5
1.5
1.5
1.5
1.5
1.5
1.5
1.5
1.5
1.5
1.5
1.5
1.5
1.5
1.5
1.5
1.5
1.5
1.5
1.5
1.5
1.5
1.5
1.5
1.5
1.5
1.5
1.5
1.5
1.5
1.5
1.5
1.5
1.5
1.5
1.5
1.5
1.5
1.5
1.5
1.5
1.5
1.5
1.5
1.5
1.5
1.5
1.5
1.5
1.5
1.5
1.5
1.5
1.5
1.5
1.5
1.5
1.5
1.5
1.5
1.5
1.5
1.5
1.5
1.5
1.5
1.5
1.5
1.5
1.5
1.5
1.5
1.5
1.5
1.5
1.5
1.5
1.5
1.5
1.5
1.5
1.5
1.5
1.5
1.5
1.5
1.5
1.5
1.5
1.5
1.5
1.5
1.5
1.5
1.5
1.5
1.5
1.5
1.5
1.5
1.5
1.5
1.5
1.5
1.5
1.5
1.5
1.5
1.5
1.5
1.5
1.5
1.5
1.5
1.5
1.5
1.5
1.5
1.5
1.5
1.5
1.5
1.5
1.5
1.5
1.5
1.5
1.5
1.5
1.5
1.5
1.5
1.5
1.5
1.5
1.5
1.5
1.5
1.5
1.5
1.5
1.5
1.5
1.5
1.5
1.5
1.5
1.5
1.5
1.5
1.5
1.5
1.5
1.5
1.5
1.5
1.5
1.5
1.5
1.5
1.5
1.5
1.5
