/*--------------------------------*- C++ -*----------------------------------*\
| =========                 |                                                 |
| \\      /  F ield         | OpenFOAM: The Open Source CFD Toolbox           |
|  \\    /   O peration     | Version:  v1612+                                |
|   \\  /    A nd           | Web:      www.OpenFOAM.com                      |
|    \\/     M anipulation  |                                                 |
\*---------------------------------------------------------------------------*/
FoamFile
{
    version     2.0;
    format      ascii;
    class       volVectorField;
    location    "200";
    object      U;
}
// * * * * * * * * * * * * * * * * * * * * * * * * * * * * * * * * * * * * * //

dimensions      [0 1 -1 0 0 0 0];

internalField   nonuniform List<vector> 
18732
(
(-0.351488 0.748831 0.608163)
(-0.178643 0.61269 0.51301)
(0.00734392 0.430219 0.415662)
(-0.589396 0.666289 0.846654)
(-0.585602 0.660171 0.852819)
(-0.227669 0.513446 0.535671)
(-0.534788 0.581999 0.836208)
(-0.323877 0.520169 0.589879)
(-0.330669 0.532226 0.594986)
(-0.317141 0.52213 0.58724)
(-0.348466 0.548849 0.576197)
(-0.294678 0.499373 0.565013)
(-0.281588 0.495233 0.560991)
(-0.346428 0.554251 0.595313)
(-0.366737 0.573577 0.604491)
(-0.325987 0.545907 0.602369)
(-0.307531 0.521123 0.589054)
(-0.277306 0.490916 0.542558)
(-0.248752 0.487323 0.504506)
(-0.233785 0.476905 0.527875)
(-0.299756 0.499509 0.524095)
(-0.286967 0.491823 0.50587)
(-0.30942 0.529395 0.538006)
(-0.23648 0.374917 0.527041)
(-0.213749 0.332952 0.491685)
(-0.251667 0.376128 0.54636)
(-0.199523 0.31126 0.471507)
(-0.154026 0.283817 0.408582)
(-0.154479 0.278702 0.413216)
(-0.182598 0.314853 0.449213)
(-0.154189 0.289802 0.410018)
(-0.157628 0.293453 0.411114)
(-0.196345 0.348512 0.443183)
(-0.207164 0.35411 0.458782)
(-0.266855 0.409889 0.52152)
(-0.268866 0.406009 0.528987)
(-0.174179 0.314903 0.431883)
(-0.274042 0.407574 0.556213)
(-0.293313 0.420908 0.569605)
(-0.247909 0.371681 0.54837)
(-0.186598 0.31361 0.45294)
(-0.254545 0.383581 0.565007)
(-0.211585 0.318736 0.467483)
(-0.191778 0.297566 0.437008)
(-0.284959 0.207829 0.293966)
(-0.315799 0.232649 0.3236)
(-0.317983 0.262014 0.313834)
(-0.278807 0.222932 0.292706)
(-0.272415 0.198941 0.281716)
(-0.222921 0.172152 0.232784)
(-0.249254 0.207886 0.24493)
(-0.186699 0.160993 0.201096)
(-0.185414 0.142243 0.193199)
(-0.280106 0.201001 0.283312)
(-0.219255 0.190738 0.222017)
(-0.28859 0.235283 0.276666)
(-0.211127 0.176499 0.203954)
(-0.184876 0.146554 0.180009)
(-0.178041 0.428944 0.408172)
(-0.230129 0.457986 0.447626)
(-0.207989 0.450803 0.494188)
(-0.204345 0.443439 0.49674)
(-0.188251 0.421809 0.399169)
(-0.199586 0.439454 0.429588)
(-0.169921 0.443029 0.451554)
(-0.149552 0.411875 0.400937)
(-0.182398 0.445233 0.482804)
(-0.212136 0.466381 0.497366)
(-0.211584 0.467138 0.472857)
(-0.175349 0.413447 0.413661)
(-0.19679 0.438113 0.454305)
(-0.154019 0.404174 0.414325)
(-0.481813 0.588275 0.715866)
(-0.473031 0.572736 0.690765)
(-0.456439 0.553275 0.679459)
(-0.530938 0.639349 0.779014)
(-0.531924 0.65227 0.781194)
(-0.47051 0.579606 0.685536)
(-0.489487 0.581634 0.713559)
(-0.462655 0.56169 0.676103)
(-0.516386 0.616972 0.752065)
(-0.462534 0.55511 0.67487)
(-0.434504 0.517047 0.642342)
(-0.479384 0.56038 0.703015)
(-0.503372 0.58888 0.730986)
(-0.508609 0.5908 0.735488)
(-0.52022 0.626661 0.764419)
(-0.472963 0.552146 0.693858)
(-0.517523 0.608157 0.752963)
(-0.464663 0.541239 0.683328)
(-0.457268 0.544235 0.684521)
(-0.563208 0.634391 0.811882)
(-0.552288 0.619269 0.796722)
(-0.566848 0.649527 0.822726)
(-0.538728 0.635138 0.796876)
(-0.543545 0.613837 0.788104)
(-0.555418 0.640174 0.813608)
(-0.0734842 0.158188 0.12775)
(-0.0570746 0.102494 0.0950936)
(-0.052544 0.0948575 0.0734116)
(-0.108002 0.203873 0.172974)
(-0.087141 0.164785 0.133038)
(-0.0585364 0.125044 0.129202)
(-0.0457471 0.108743 0.119867)
(-0.0535814 0.0900439 0.0715313)
(-0.0781777 0.173313 0.18489)
(-0.0914121 0.185426 0.172586)
(-0.0436917 0.0979785 0.0824853)
(-0.0344979 0.0635013 0.0556486)
(-0.0346358 0.0786623 0.0827562)
(-0.0374579 0.0645616 0.0514036)
(-0.0397992 0.0661905 0.0443728)
(-0.0368813 0.0897339 0.100326)
(-0.083793 0.167934 0.174513)
(-0.575963 0.680058 0.86103)
(-0.586736 0.680978 0.861976)
(-0.581305 0.679469 0.870285)
(-0.592335 0.687603 0.875029)
(-0.603099 0.716467 0.889128)
(-0.596785 0.701961 0.879737)
(-0.576556 0.671128 0.854513)
(-0.584076 0.684392 0.861561)
(-0.601644 0.698767 0.88191)
(-0.595693 0.702303 0.875221)
(-0.591476 0.686972 0.86324)
(-0.580059 0.682486 0.854229)
(-0.578918 0.679558 0.860094)
(-0.585015 0.691698 0.86003)
(-0.576696 0.689355 0.855785)
(-0.576078 0.688555 0.859198)
(-0.570938 0.682202 0.852761)
(-0.579684 0.682025 0.856536)
(-0.376873 0.455258 0.54582)
(-0.38286 0.452819 0.556638)
(-0.384563 0.460763 0.543621)
(-0.384416 0.478509 0.581987)
(-0.385241 0.466992 0.568945)
(-0.36472 0.48838 0.539586)
(-0.36638 0.497399 0.548193)
(-0.367354 0.482466 0.550289)
(-0.344744 0.473799 0.540772)
(-0.401554 0.526045 0.629931)
(-0.398286 0.519554 0.604808)
(-0.355565 0.505739 0.563123)
(-0.397202 0.53247 0.614779)
(-0.397197 0.527094 0.60142)
(-0.384133 0.547755 0.61517)
(-0.380197 0.554373 0.613564)
(-0.385703 0.533941 0.599726)
(-0.372511 0.544387 0.595745)
(-0.377069 0.538118 0.599049)
(-0.36291 0.513824 0.560188)
(-0.261931 0.632417 0.564183)
(-0.236898 0.617651 0.537682)
(-0.277015 0.663216 0.566198)
(-0.295082 0.709447 0.625193)
(-0.303401 0.718515 0.62891)
(-0.251753 0.638243 0.515656)
(-0.234412 0.62638 0.507198)
(-0.236061 0.646553 0.521651)
(-0.262279 0.731463 0.583242)
(-0.275162 0.731674 0.61559)
(-0.312146 0.742674 0.610911)
(-0.327735 0.74205 0.633342)
(-0.247423 0.666128 0.502495)
(-0.219324 0.642284 0.48325)
(-0.282433 0.736829 0.578317)
(-0.299528 0.749405 0.603448)
(-0.377504 0.700724 0.624485)
(-0.438144 0.77231 0.691381)
(-0.475871 0.812297 0.739666)
(-0.330796 0.624749 0.56598)
(-0.364845 0.659699 0.61246)
(-0.316994 0.604813 0.54165)
(-0.470251 0.773574 0.730143)
(-0.468689 0.776851 0.721118)
(-0.495266 0.82449 0.769875)
(-0.488453 0.78716 0.755605)
(-0.439486 0.765793 0.705184)
(-0.343529 0.666486 0.607496)
(-0.361473 0.685304 0.615716)
(-0.296251 0.590917 0.522532)
(-0.431222 0.731573 0.671548)
(-0.388958 0.687818 0.635848)
(-0.437855 0.757768 0.702623)
(-0.475069 0.801664 0.753391)
(-0.445276 0.741955 0.705297)
(-0.278902 0.69763 0.554071)
(-0.277954 0.689507 0.553092)
(-0.296039 0.679212 0.55649)
(-0.266483 0.637503 0.491876)
(-0.315548 0.684817 0.566948)
(-0.31817 0.718569 0.588325)
(-0.291429 0.69424 0.570851)
(-0.275633 0.681928 0.555467)
(-0.274979 0.706517 0.556491)
(-0.279264 0.680187 0.54373)
(-0.262085 0.633506 0.49894)
(-0.325986 0.67396 0.59693)
(-0.308233 0.671495 0.574959)
(-0.283074 0.650518 0.534881)
(-0.312033 0.647826 0.562378)
(-0.298097 0.652198 0.552564)
(-0.0577624 0.199895 0.149624)
(-0.0447162 0.153826 0.128312)
(-0.0970901 0.222497 0.161361)
(-0.0787206 0.221432 0.157824)
(-0.0431603 0.185855 0.144313)
(-0.0418905 0.162538 0.130412)
(-0.090276 0.192592 0.147436)
(-0.0769043 0.182321 0.14258)
(-0.0592658 0.163459 0.131)
(-0.053562 0.199435 0.153972)
(-0.113701 0.225539 0.166314)
(-0.0931943 0.183521 0.147008)
(-0.0675929 0.165775 0.136285)
(-0.0531965 0.192609 0.149385)
(-0.0542605 0.173668 0.139486)
(-0.0803655 0.223512 0.163949)
(-0.0461988 0.185979 0.154762)
(-0.0446486 0.163273 0.135319)
(-0.0859688 0.22118 0.16082)
(-0.463559 0.642801 0.70509)
(-0.438047 0.622252 0.662937)
(-0.434427 0.609093 0.654815)
(-0.404805 0.601124 0.637173)
(-0.430219 0.599141 0.650203)
(-0.409233 0.577739 0.60396)
(-0.440492 0.60932 0.659729)
(-0.448887 0.63935 0.69829)
(-0.446924 0.655818 0.697243)
(-0.378678 0.56342 0.563518)
(-0.480327 0.66528 0.720203)
(-0.489066 0.6658 0.730674)
(-0.457418 0.643119 0.682587)
(-0.477442 0.651652 0.712175)
(-0.409767 0.597014 0.604106)
(-0.407892 0.607143 0.630826)
(-0.472741 0.677046 0.726095)
(-0.471232 0.676712 0.717329)
(-0.42843 0.625909 0.648511)
(-0.149608 0.16399 0.14414)
(-0.127014 0.129687 0.13064)
(-0.114361 0.125431 0.121022)
(-0.156876 0.18413 0.155871)
(-0.19418 0.211893 0.195271)
(-0.198489 0.199374 0.195783)
(-0.187257 0.173606 0.204698)
(-0.221538 0.202363 0.229782)
(-0.103938 0.110994 0.115671)
(-0.114206 0.109624 0.12695)
(-0.225715 0.220189 0.223813)
(-0.196193 0.187878 0.210941)
(-0.185581 0.172259 0.202865)
(-0.144736 0.143443 0.162014)
(-0.120653 0.142846 0.130797)
(-0.127325 0.136696 0.147798)
(-0.10245 0.112716 0.132105)
(-0.363583 0.197051 0.31637)
(-0.4294 0.238637 0.412102)
(-0.391613 0.231074 0.350111)
(-0.426859 0.242197 0.398587)
(-0.304643 0.532118 0.473685)
(-0.246438 0.459279 0.378702)
(-0.237186 0.450332 0.368372)
(-0.203483 0.417907 0.327212)
(-0.181803 0.407895 0.25548)
(-0.337722 0.575514 0.538184)
(-0.354881 0.604092 0.552873)
(-0.164162 0.428615 0.278186)
(-0.252483 0.475217 0.383985)
(-0.226323 0.48507 0.386781)
(-0.306229 0.602199 0.546274)
(-0.335025 0.575662 0.548924)
(-0.30973 0.579676 0.51294)
(-0.360829 0.669335 0.587028)
(-0.268548 0.534441 0.451356)
(-0.393422 0.527628 0.589775)
(-0.448697 0.58514 0.665279)
(-0.486593 0.588004 0.748076)
(-0.473138 0.587337 0.732063)
(-0.454483 0.545414 0.705048)
(-0.469132 0.563959 0.725584)
(-0.395651 0.490178 0.613992)
(-0.442695 0.525521 0.673161)
(-0.427497 0.563129 0.635192)
(-0.342725 0.492197 0.532906)
(-0.391495 0.517358 0.603564)
(-0.438599 0.551586 0.679183)
(-0.482998 0.607288 0.73399)
(-0.313535 0.477777 0.51345)
(-0.351202 0.476954 0.537443)
(-0.362522 0.497374 0.558608)
(-0.388799 0.542802 0.619859)
(-0.396748 0.551855 0.622748)
(-0.470071 0.632341 0.722293)
(-0.44532 0.594907 0.687401)
(-0.458661 0.563972 0.710843)
(-0.365798 0.503206 0.559929)
(-0.4379 0.580229 0.69271)
(-0.378506 0.526998 0.594946)
(-0.472317 0.604422 0.724776)
(-0.459674 0.588677 0.733989)
(-0.307052 0.787338 0.648939)
(-0.252746 0.683065 0.622541)
(-0.319426 0.7509 0.654694)
(-0.219782 0.658515 0.588808)
(-0.265369 0.725031 0.620956)
(-0.212061 0.656031 0.542287)
(-0.248123 0.694231 0.579762)
(-0.130207 0.403638 0.284033)
(-0.118218 0.378946 0.265188)
(-0.106942 0.371947 0.261123)
(-0.128708 0.396826 0.294338)
(-0.105707 0.382945 0.327485)
(-0.0964095 0.360849 0.2854)
(-0.112522 0.396058 0.281414)
(-0.138094 0.398918 0.325467)
(-0.0900613 0.373074 0.314484)
(-0.0935413 0.400416 0.324993)
(-0.0962006 0.39705 0.362906)
(-0.109667 0.400498 0.369566)
(-0.140222 0.437545 0.367901)
(-0.121623 0.432278 0.387095)
(-0.14874 0.442564 0.417578)
(-0.133986 0.427619 0.403933)
(-0.165798 0.427797 0.381693)
(-0.164861 0.305279 0.251698)
(-0.154569 0.304498 0.247496)
(-0.333329 0.448059 0.493414)
(-0.358747 0.477904 0.529611)
(-0.302474 0.419181 0.452659)
(-0.173782 0.291962 0.258051)
(-0.209981 0.35979 0.311554)
(-0.193074 0.326512 0.301859)
(-0.294264 0.438268 0.443204)
(-0.340706 0.466847 0.50389)
(-0.243265 0.380357 0.379176)
(-0.317445 0.431202 0.463535)
(-0.26744 0.396548 0.392425)
(-0.25387 0.38875 0.386367)
(-0.226946 0.431641 0.376679)
(-0.197851 0.432228 0.329657)
(-0.178666 0.417897 0.309274)
(-0.209321 0.426877 0.345875)
(-0.246646 0.487754 0.410898)
(-0.238804 0.445371 0.379408)
(-0.303519 0.510859 0.465907)
(-0.214317 0.481925 0.341627)
(-0.249224 0.499825 0.405032)
(-0.278111 0.543027 0.455467)
(-0.338639 0.602252 0.524254)
(-0.293104 0.507557 0.44987)
(-0.371916 0.602484 0.586901)
(-0.317449 0.578916 0.515528)
(-0.359646 0.580815 0.557854)
(-0.1272 0.189661 0.155069)
(-0.11382 0.182357 0.142607)
(-0.215658 0.309369 0.321801)
(-0.182121 0.280379 0.282872)
(-0.0911724 0.154692 0.119077)
(-0.0966336 0.172869 0.137751)
(-0.216767 0.330664 0.343961)
(-0.166273 0.257499 0.256472)
(-0.14433 0.215948 0.188865)
(-0.148329 0.204134 0.190072)
(-0.142528 0.222529 0.206089)
(-0.115328 0.186699 0.155875)
(-0.111337 0.179475 0.175697)
(-0.145313 0.214711 0.203897)
(-0.144731 0.241629 0.232539)
(-0.133779 0.190454 0.180903)
(-0.107775 0.162593 0.146847)
(-0.0996981 0.177748 0.149587)
(-0.0953611 0.156792 0.126386)
(-0.122087 0.207251 0.190378)
(-0.31518 0.442763 0.491793)
(-0.313408 0.447375 0.486157)
(-0.286725 0.414836 0.44293)
(-0.255393 0.371242 0.384729)
(-0.402271 0.546534 0.599934)
(-0.372438 0.535495 0.586208)
(-0.191102 0.326038 0.308335)
(-0.267658 0.382574 0.401156)
(-0.270357 0.406155 0.417581)
(-0.336975 0.491103 0.519159)
(-0.221928 0.387451 0.383542)
(-0.311073 0.474477 0.49893)
(-0.390472 0.548479 0.598639)
(-0.291136 0.443881 0.477115)
(-0.245529 0.392477 0.380794)
(-0.29702 0.458238 0.466963)
(-0.269391 0.431748 0.408273)
(-0.267152 0.43509 0.42841)
(-0.344327 0.471399 0.499758)
(-0.330023 0.46542 0.495623)
(-0.26539 0.426073 0.403618)
(-0.436452 0.576174 0.641344)
(-0.445118 0.594268 0.655837)
(-0.32359 0.459879 0.47376)
(-0.411852 0.54656 0.58846)
(-0.287255 0.451752 0.436204)
(-0.340713 0.498985 0.518611)
(-0.420689 0.558074 0.61645)
(-0.375864 0.510498 0.563045)
(-0.432573 0.58472 0.619827)
(-0.391667 0.545516 0.57966)
(-0.322676 0.467245 0.475498)
(-0.3666 0.50711 0.547614)
(-0.232308 0.347851 0.358851)
(-0.149738 0.236455 0.256805)
(-0.110648 0.184557 0.168091)
(-0.159383 0.305029 0.292468)
(-0.182639 0.312962 0.313333)
(-0.106851 0.213367 0.19523)
(-0.0864814 0.170671 0.137679)
(-0.159274 0.253109 0.218763)
(-0.117805 0.192293 0.180852)
(-0.131573 0.204626 0.195243)
(-0.149526 0.234318 0.241846)
(-0.17507 0.261873 0.271684)
(-0.158762 0.258819 0.256226)
(-0.183004 0.298843 0.297268)
(-0.224466 0.350804 0.355553)
(-0.540931 0.5829 0.782275)
(-0.543139 0.583899 0.779324)
(-0.55185 0.601324 0.785006)
(-0.548935 0.594316 0.782837)
(-0.545978 0.590597 0.786744)
(-0.500175 0.552151 0.709874)
(-0.520821 0.569513 0.749131)
(-0.52841 0.581718 0.75441)
(-0.538858 0.592521 0.771731)
(-0.542319 0.607568 0.783269)
(-0.54014 0.600802 0.77715)
(-0.54833 0.592563 0.78196)
(-0.545077 0.58908 0.777679)
(-0.537696 0.593264 0.769969)
(-0.556151 0.606002 0.793636)
(-0.547872 0.603907 0.79527)
(-0.549689 0.605318 0.789707)
(-0.548164 0.599781 0.791315)
(-0.569532 0.628646 0.818356)
(-0.556999 0.619479 0.804176)
(-0.555942 0.61823 0.802878)
(-0.541313 0.602666 0.7903)
(-0.142494 0.309208 0.214042)
(-0.145404 0.323839 0.23473)
(-0.179181 0.361064 0.303189)
(-0.189935 0.369276 0.318557)
(-0.191939 0.365301 0.304465)
(-0.165054 0.356788 0.287546)
(-0.150179 0.355045 0.250405)
(-0.146775 0.334812 0.237142)
(-0.144461 0.350161 0.254559)
(-0.221932 0.410854 0.331954)
(-0.170898 0.370937 0.287493)
(-0.212915 0.411802 0.362508)
(-0.313419 0.490654 0.461147)
(-0.260409 0.434505 0.412525)
(-0.296009 0.465175 0.461948)
(-0.307433 0.484961 0.476309)
(-0.231676 0.452145 0.370684)
(-0.259505 0.451366 0.409177)
(-0.238552 0.424913 0.395617)
(0.00336601 0.475123 0.467741)
(0.000946361 0.485971 0.478583)
(0.0405722 0.456699 0.444808)
(-0.0637607 0.510175 0.489561)
(-0.040568 0.537599 0.52138)
(-0.0301377 0.480167 0.449898)
(0.0503115 0.463827 0.412242)
(-0.0982944 0.522304 0.470166)
(-0.063192 0.532902 0.48413)
(0.0169027 0.476539 0.438694)
(0.0469669 0.453415 0.387059)
(-0.0233627 0.475508 0.408993)
(-0.0129927 0.469473 0.358438)
(-0.0520034 0.487657 0.389815)
(-0.028011 0.481129 0.384366)
(-0.149399 0.291435 0.233824)
(-0.190704 0.345508 0.29433)
(-0.144281 0.284739 0.22001)
(-0.133473 0.28867 0.19639)
(-0.1467 0.29901 0.211877)
(-0.163749 0.305247 0.2467)
(-0.155791 0.289376 0.195263)
(-0.15898 0.309457 0.197059)
(-0.147699 0.258608 0.176985)
(-0.162282 0.306977 0.210922)
(-0.118337 0.247072 0.165701)
(-0.168719 0.366954 0.331487)
(-0.156606 0.35771 0.317413)
(-0.123935 0.289969 0.240452)
(-0.116986 0.291056 0.253743)
(-0.111962 0.280472 0.220851)
(-0.109676 0.280481 0.243127)
(-0.124838 0.283622 0.191291)
(-0.124875 0.295942 0.192735)
(-0.123822 0.288609 0.210463)
(-0.182227 0.379567 0.336754)
(-0.119345 0.291672 0.178068)
(-0.530149 0.696015 0.766193)
(-0.581819 0.740626 0.810707)
(-0.540311 0.686502 0.77139)
(-0.567122 0.750224 0.807511)
(-0.518608 0.66874 0.748202)
(-0.523676 0.672565 0.744315)
(-0.56237 0.751276 0.801284)
(-0.529046 0.706477 0.765441)
(-0.521107 0.689925 0.745218)
(-0.531364 0.716631 0.761263)
(-0.59795 0.748572 0.834184)
(-0.557404 0.710222 0.796424)
(-0.55216 0.699937 0.782564)
(-0.555569 0.711779 0.782837)
(-0.514142 0.690784 0.750393)
(-0.50975 0.67949 0.741574)
(-0.55899 0.749514 0.795704)
(-0.487581 0.650202 0.699707)
(-0.587628 0.752561 0.824885)
(-0.586674 0.763055 0.828197)
(-0.588445 0.765479 0.834293)
(-0.332134 0.750906 0.620178)
(-0.318985 0.771118 0.650839)
(-0.266277 0.704182 0.529402)
(-0.296574 0.747571 0.56528)
(-0.299731 0.720496 0.595334)
(-0.272839 0.732018 0.539271)
(-0.257249 0.721402 0.533533)
(-0.285437 0.7137 0.576232)
(-0.268234 0.708036 0.560105)
(-0.273729 0.744673 0.580664)
(-0.278058 0.768456 0.589016)
(-0.311544 0.798254 0.625126)
(-0.29009 0.760245 0.594055)
(-0.383771 0.681216 0.599597)
(-0.38508 0.712886 0.608842)
(-0.374302 0.689639 0.587022)
(-0.373637 0.694646 0.580694)
(-0.363768 0.689906 0.568355)
(-0.307506 0.596593 0.488426)
(-0.370216 0.654966 0.56839)
(-0.312262 0.586543 0.50345)
(-0.335808 0.641326 0.539541)
(-0.374641 0.710138 0.595319)
(-0.401342 0.753022 0.646054)
(-0.418649 0.737411 0.653496)
(-0.605281 0.661076 0.865292)
(-0.620069 0.671171 0.877939)
(-0.634535 0.683363 0.88613)
(-0.580326 0.636683 0.825658)
(-0.622264 0.665338 0.874598)
(-0.644103 0.688293 0.896161)
(-0.587241 0.63916 0.83311)
(-0.559795 0.624612 0.786993)
(-0.622287 0.663506 0.85777)
(-0.644725 0.687782 0.893554)
(-0.440581 0.811754 0.734714)
(-0.392311 0.77461 0.687952)
(-0.248746 0.696081 0.504153)
(-0.381975 0.773203 0.665554)
(-0.432142 0.800372 0.714963)
(-0.429069 0.794862 0.712235)
(-0.409331 0.773633 0.686768)
(-0.22444 0.458792 0.342014)
(-0.241044 0.461632 0.369044)
(-0.257717 0.538019 0.439755)
(-0.248285 0.497815 0.401986)
(-0.260526 0.513039 0.433714)
(-0.271694 0.538246 0.465688)
(-0.274041 0.562524 0.475964)
(-0.284487 0.471851 0.408583)
(-0.261722 0.442032 0.378107)
(-0.249424 0.453821 0.371024)
(-0.229667 0.49752 0.37797)
(-0.231978 0.46307 0.365037)
(-0.242045 0.456125 0.378824)
(-0.280605 0.520304 0.454867)
(-0.286333 0.501525 0.439142)
(-0.270058 0.469883 0.41502)
(-0.291047 0.518883 0.460417)
(-0.257359 0.474387 0.41082)
(-0.484782 0.756512 0.75383)
(-0.46586 0.717282 0.706384)
(-0.406783 0.635575 0.624566)
(-0.552011 0.790988 0.822945)
(-0.540268 0.787747 0.801335)
(-0.468929 0.71751 0.724375)
(-0.423804 0.652814 0.660616)
(-0.483556 0.711397 0.738508)
(-0.499647 0.736396 0.757374)
(-0.441246 0.665631 0.676704)
(-0.45131 0.657401 0.670839)
(-0.458682 0.678005 0.684338)
(-0.553429 0.798988 0.823469)
(-0.426448 0.67619 0.659299)
(-0.500426 0.721834 0.744778)
(-0.503675 0.715029 0.741597)
(-0.488098 0.700781 0.726482)
(-0.5221 0.780214 0.776016)
(-0.46326 0.806199 0.763628)
(-0.528222 0.851037 0.844219)
(-0.493495 0.8331 0.798764)
(-0.494738 0.849854 0.807812)
(-0.482582 0.827144 0.786335)
(-0.432533 0.81037 0.750708)
(-0.443587 0.818097 0.764388)
(-0.48428 0.831984 0.801377)
(-0.505615 0.860376 0.810637)
(-0.502896 0.844402 0.819599)
(-0.474644 0.83041 0.792286)
(-0.502839 0.849563 0.817453)
(-0.462253 0.844504 0.780555)
(-0.448491 0.830741 0.775044)
(-0.473514 0.822674 0.791014)
(-0.472433 0.845446 0.793435)
(-0.456722 0.83092 0.775956)
(-0.501781 0.825809 0.800929)
(-0.489303 0.859484 0.80437)
(-0.231505 0.37863 0.498011)
(-0.205895 0.355365 0.468795)
(-0.148451 0.316605 0.418366)
(-0.148269 0.310274 0.42093)
(-0.182917 0.348135 0.445273)
(-0.176437 0.31603 0.412007)
(-0.239929 0.403732 0.519616)
(-0.171938 0.339341 0.440132)
(-0.231277 0.375092 0.497647)
(-0.259412 0.409402 0.53322)
(-0.176843 0.329394 0.431868)
(-0.261069 0.436201 0.531085)
(-0.19129 0.333949 0.44458)
(-0.251677 0.432298 0.519758)
(-0.247861 0.427285 0.489051)
(-0.272263 0.440149 0.537196)
(-0.21748 0.389494 0.503846)
(-0.255689 0.429309 0.53782)
(-0.239236 0.416059 0.499071)
(-0.22567 0.409373 0.478784)
(-0.196756 0.370884 0.451284)
(-0.447735 0.589507 0.66655)
(-0.436224 0.576119 0.650225)
(-0.473335 0.600228 0.70706)
(-0.514879 0.656276 0.760293)
(-0.429669 0.549789 0.640567)
(-0.405853 0.538777 0.60364)
(-0.477506 0.630616 0.718395)
(-0.461214 0.599623 0.680584)
(-0.464974 0.593371 0.676846)
(-0.503453 0.656121 0.758133)
(-0.493674 0.621846 0.725759)
(-0.465538 0.599976 0.697689)
(-0.511674 0.668018 0.762516)
(-0.500129 0.630923 0.729259)
(-0.516528 0.669126 0.766629)
(-0.473383 0.591656 0.695992)
(-0.450798 0.566144 0.665981)
(-0.431488 0.564168 0.640692)
(-0.460205 0.597812 0.677782)
(-0.382269 0.512591 0.56208)
(-0.103265 0.471169 0.254671)
(-0.116298 0.471436 0.258924)
(-0.0655119 0.443271 0.258285)
(-0.0763125 0.473093 0.281568)
(-0.115224 0.522377 0.322314)
(-0.0785239 0.430873 0.237305)
(-0.121495 0.465855 0.267381)
(-0.137878 0.507326 0.298245)
(-0.0660585 0.414216 0.250087)
(-0.0970813 0.450485 0.288951)
(-0.0676857 0.391752 0.231784)
(-0.0824807 0.409578 0.242191)
(-0.149235 0.531855 0.328289)
(-0.0867731 0.402196 0.241246)
(-0.0985583 0.417423 0.244789)
(-0.135658 0.489985 0.308227)
(-0.115579 0.462196 0.29669)
(-0.418752 0.599563 0.680818)
(-0.412365 0.612591 0.689555)
(-0.404364 0.618495 0.675219)
(-0.389639 0.597551 0.636433)
(-0.430181 0.649243 0.68433)
(-0.406389 0.617113 0.650519)
(-0.436103 0.626909 0.686737)
(-0.445232 0.638094 0.696041)
(-0.426834 0.632608 0.704704)
(-0.408725 0.642776 0.677527)
(-0.451629 0.644979 0.716685)
(-0.414053 0.64472 0.676506)
(-0.451269 0.667577 0.707624)
(-0.434516 0.66371 0.706104)
(-0.452587 0.691035 0.704868)
(-0.357675 0.45545 0.535717)
(-0.375263 0.476384 0.584278)
(-0.352608 0.457142 0.533892)
(-0.350464 0.448997 0.527835)
(-0.394877 0.48347 0.623822)
(-0.41511 0.509341 0.649422)
(-0.44141 0.543857 0.636523)
(-0.41157 0.523232 0.599506)
(-0.469998 0.561295 0.687444)
(-0.461616 0.549561 0.6669)
(-0.420854 0.503804 0.633892)
(-0.415733 0.509401 0.625485)
(-0.412218 0.512697 0.594447)
(-0.457739 0.55421 0.664654)
(-0.469404 0.555571 0.673495)
(-0.402695 0.491277 0.584157)
(-0.418941 0.512209 0.626023)
(-0.368302 0.297696 0.394523)
(-0.411305 0.344734 0.458153)
(-0.442796 0.368359 0.54795)
(-0.438619 0.363987 0.560413)
(-0.375572 0.330929 0.423631)
(-0.430254 0.312042 0.48721)
(-0.395252 0.284146 0.419876)
(-0.419355 0.327874 0.513104)
(-0.403535 0.298165 0.469673)
(-0.389895 0.288707 0.442)
(-0.365648 0.287394 0.438227)
(-0.388855 0.385681 0.491048)
(-0.41154 0.383323 0.518333)
(-0.37834 0.333807 0.422605)
(-0.389224 0.272964 0.412527)
(-0.382173 0.296323 0.433424)
(-0.405473 0.330721 0.474594)
(-0.3933 0.293833 0.40839)
(-0.264083 0.453185 0.44313)
(-0.331553 0.516293 0.517244)
(-0.22717 0.422773 0.39337)
(-0.322194 0.510753 0.511086)
(-0.216946 0.378328 0.360657)
(-0.204737 0.40086 0.349183)
(-0.209726 0.366578 0.343912)
(-0.241167 0.427721 0.386861)
(-0.420262 0.607315 0.635088)
(-0.441996 0.621504 0.666716)
(-0.458257 0.624604 0.686589)
(-0.271045 0.439903 0.437688)
(-0.251574 0.423254 0.384639)
(-0.192871 0.394065 0.337332)
(-0.307973 0.508626 0.499305)
(-0.366792 0.52873 0.556929)
(-0.386457 0.553746 0.5806)
(-0.266347 0.481186 0.441102)
(-0.552479 0.747737 0.846358)
(-0.561917 0.749286 0.85153)
(-0.555629 0.739866 0.843415)
(-0.538692 0.730369 0.825001)
(-0.541865 0.739556 0.830662)
(-0.539958 0.736413 0.822021)
(-0.552192 0.742058 0.843362)
(-0.521112 0.716414 0.790685)
(-0.522118 0.71163 0.795805)
(-0.543362 0.726067 0.824278)
(-0.515187 0.718939 0.784783)
(-0.529735 0.709168 0.802248)
(-0.542026 0.722034 0.817278)
(-0.53044 0.730868 0.815968)
(-0.554495 0.717328 0.826767)
(-0.385182 0.231417 0.367679)
(-0.416111 0.245449 0.387267)
(-0.260079 0.164946 0.232901)
(-0.23881 0.155157 0.212076)
(-0.255456 0.142906 0.217074)
(-0.221463 0.105583 0.185334)
(-0.212695 0.110181 0.180968)
(-0.204434 0.111746 0.174934)
(-0.176244 0.0821932 0.14282)
(-0.201499 0.101441 0.169575)
(-0.374863 0.214233 0.348558)
(-0.396108 0.218955 0.376618)
(-0.372414 0.210843 0.351198)
(-0.343179 0.21989 0.320604)
(-0.347592 0.245484 0.344271)
(-0.236289 0.137019 0.202814)
(-0.267075 0.175691 0.237002)
(-0.203469 0.0993471 0.175495)
(-0.268856 0.160963 0.232935)
(-0.304807 0.175674 0.272594)
(-0.33202 0.178847 0.310766)
(-0.353617 0.20939 0.331491)
(-0.27182 0.148495 0.247402)
(-0.273206 0.146742 0.244997)
(-0.225738 0.119011 0.205989)
(-0.63796 0.702985 0.877785)
(-0.616141 0.688172 0.855652)
(-0.629978 0.697236 0.881345)
(-0.621617 0.688959 0.874003)
(-0.619116 0.697933 0.864152)
(-0.620919 0.698762 0.86514)
(-0.64697 0.726007 0.894871)
(-0.624977 0.700672 0.869528)
(-0.61962 0.690629 0.866207)
(-0.634889 0.695281 0.883224)
(-0.633723 0.693996 0.875562)
(-0.636626 0.714155 0.896115)
(-0.632754 0.696835 0.886351)
(-0.615799 0.702173 0.874212)
(-0.594925 0.67001 0.826901)
(-0.63115 0.709583 0.893492)
(-0.616898 0.676948 0.849336)
(-0.625856 0.690088 0.870964)
(-0.669313 0.729253 0.9115)
(-0.54904 0.63418 0.792084)
(-0.564387 0.649223 0.816761)
(-0.564473 0.660741 0.832109)
(-0.567292 0.664295 0.835263)
(-0.563841 0.666628 0.830701)
(-0.557261 0.66552 0.822926)
(-0.551881 0.657023 0.813297)
(-0.563056 0.658728 0.82053)
(-0.557207 0.668037 0.81815)
(-0.547598 0.646131 0.804427)
(-0.568769 0.690155 0.847128)
(-0.569823 0.663344 0.823889)
(-0.560011 0.665744 0.804528)
(-0.567138 0.673828 0.799092)
(-0.55707 0.669702 0.819815)
(-0.580245 0.674617 0.841164)
(-0.565249 0.670839 0.807967)
(-0.565276 0.675025 0.804068)
(-0.567918 0.657673 0.806629)
(-0.580736 0.687228 0.823522)
(-0.527549 0.637199 0.778343)
(-0.510017 0.603889 0.751111)
(-0.564328 0.669702 0.811274)
(-0.52658 0.622689 0.759541)
(-0.560047 0.672143 0.804667)
(-0.40439 0.399614 0.528629)
(-0.413121 0.400245 0.552374)
(-0.437941 0.377271 0.558547)
(-0.40654 0.363729 0.540623)
(-0.393496 0.431217 0.548341)
(-0.394633 0.447612 0.570796)
(-0.453413 0.38065 0.58158)
(-0.412874 0.474805 0.613293)
(-0.411704 0.451545 0.601919)
(-0.458712 0.463216 0.651687)
(-0.439968 0.445183 0.635628)
(-0.430013 0.386678 0.583073)
(-0.441946 0.389115 0.597937)
(-0.451874 0.445349 0.660304)
(-0.411939 0.40472 0.596315)
(-0.46221 0.433626 0.666451)
(-0.0202792 0.0284245 0.0280318)
(-0.0211856 0.015268 0.0171586)
(-0.0440847 0.0222011 0.0259346)
(-0.0352347 0.0149932 0.019411)
(-0.0230106 0.0377904 0.0375002)
(-0.0387492 0.0305987 0.0358407)
(-0.0507081 0.0229727 0.0303044)
(-0.0406376 0.0117896 0.0205189)
(-0.0225992 0.00292083 0.00844254)
(-0.0635023 0.0599647 0.066222)
(-0.0570535 0.0621889 0.0561475)
(-0.058722 0.054717 0.0568267)
(-0.0701131 0.0445534 0.0541784)
(-0.0605121 0.0251294 0.0417537)
(-0.0370079 0.0540413 0.0522801)
(-0.0612988 0.0336076 0.0400713)
(-0.0707206 0.0455833 0.0573847)
(-0.0362873 0.0369231 0.0400262)
(-0.59784 0.71086 0.88716)
(-0.587316 0.700768 0.870301)
(-0.601594 0.713337 0.882684)
(-0.60385 0.713341 0.881567)
(-0.599853 0.728375 0.892992)
(-0.553296 0.668408 0.812313)
(-0.540693 0.654243 0.796582)
(-0.561777 0.663961 0.820733)
(-0.593735 0.693776 0.861232)
(-0.606672 0.717614 0.880801)
(-0.539746 0.665528 0.804139)
(-0.511433 0.615332 0.746249)
(-0.552284 0.645969 0.800703)
(-0.576631 0.679831 0.836389)
(-0.575617 0.686517 0.836972)
(-0.582892 0.697402 0.847983)
(-0.541917 0.646977 0.800593)
(-0.52114 0.631286 0.762653)
(-0.580402 0.708706 0.855895)
(-0.550115 0.679863 0.806414)
(-0.549803 0.681277 0.815152)
(-0.571367 0.707892 0.842204)
(-0.576957 0.710991 0.843672)
(-0.611228 0.736188 0.884786)
(-0.611275 0.739871 0.89487)
(-0.623874 0.72228 0.893353)
(-0.610871 0.7253 0.890644)
(-0.550961 0.664356 0.797344)
(-0.589253 0.709387 0.857467)
(-0.619154 0.736445 0.901282)
(-0.618218 0.726915 0.899699)
(-0.552948 0.671241 0.797548)
(-0.598231 0.726257 0.871351)
(-0.611271 0.729865 0.884487)
(-0.598642 0.710889 0.860157)
(-0.55667 0.628057 0.80445)
(-0.552797 0.623753 0.806731)
(-0.544507 0.612184 0.789296)
(-0.553165 0.604875 0.771081)
(-0.471864 0.55949 0.693392)
(-0.548641 0.613612 0.794484)
(-0.359279 0.459385 0.52852)
(-0.433615 0.524838 0.648082)
(-0.529269 0.58581 0.756589)
(-0.541546 0.59708 0.772898)
(-0.518906 0.577393 0.753828)
(-0.503082 0.573798 0.734233)
(-0.454138 0.534715 0.672458)
(-0.495966 0.55773 0.712468)
(-0.533585 0.587862 0.76556)
(-0.53753 0.598631 0.776209)
(-0.416986 0.490595 0.647284)
(-0.409683 0.494184 0.66694)
(-0.368274 0.469449 0.584965)
(-0.412705 0.489411 0.653133)
(-0.427889 0.504318 0.700393)
(-0.337618 0.451696 0.518273)
(-0.343216 0.458819 0.556394)
(-0.33394 0.467208 0.59855)
(-0.391594 0.485633 0.671818)
(-0.400812 0.484619 0.629823)
(-0.385077 0.48413 0.631362)
(-0.335373 0.462484 0.604217)
(-0.409739 0.482229 0.663936)
(-0.396055 0.47405 0.682322)
(-0.379684 0.47987 0.669721)
(-0.199504 0.0743043 0.158526)
(-0.452159 0.463347 0.759728)
(-0.416544 0.442138 0.734353)
(0.00384386 -0.00991109 0.00027287)
(0.00907458 0.000125425 0.00368919)
(-0.525824 0.3532 0.70618)
(-0.519712 0.316076 0.666112)
(-0.5173 0.531302 0.752941)
(-0.541324 0.561571 0.778065)
(-0.538104 0.552901 0.784846)
(-0.508123 0.501437 0.805814)
(-0.517295 0.506073 0.820803)
(-0.507772 0.47011 0.78931)
(-0.212419 0.331619 0.524422)
(-0.181837 0.295103 0.485881)
(-0.220983 0.35813 0.559789)
(-0.16127 0.288466 0.443638)
(-0.409843 0.219927 0.409394)
(-0.442022 0.241165 0.448919)
(-0.551559 0.617554 0.817459)
(-0.55543 0.623653 0.819669)
(-0.565496 0.626693 0.838885)
(-0.613089 0.663913 0.848529)
(-0.604623 0.650961 0.840581)
(-0.432862 0.439382 0.692975)
(-0.4661 0.47267 0.714112)
(-0.444312 0.464967 0.722201)
(-0.0157473 0.0431302 0.0477258)
(-0.0157149 0.0278979 0.0314427)
(-0.522655 0.589767 0.798382)
(-0.51854 0.583712 0.792625)
(-0.487212 0.436453 0.733185)
(-0.499607 0.453977 0.74927)
(-0.499177 0.474472 0.759205)
(-0.485567 0.483075 0.748854)
(-0.560829 0.614304 0.80513)
(-0.551487 0.614867 0.790778)
(-0.141194 0.0696823 0.114454)
(-0.167307 0.0935726 0.144405)
(-0.120514 0.0665145 0.0968924)
(-0.575875 0.650642 0.790591)
(-0.556465 0.629666 0.786214)
(-0.622178 0.68077 0.860572)
(-0.506987 0.540035 0.73409)
(-0.518041 0.577671 0.756336)
(-0.523764 0.56998 0.761815)
(-0.356648 0.223069 0.372682)