/*--------------------------------*- C++ -*----------------------------------*\
| =========                 |                                                 |
| \\      /  F ield         | OpenFOAM: The Open Source CFD Toolbox           |
|  \\    /   O peration     | Version:  v1612+                                |
|   \\  /    A nd           | Web:      www.OpenFOAM.com                      |
|    \\/     M anipulation  |                                                 |
\*---------------------------------------------------------------------------*/
FoamFile
{
    version     2.0;
    format      ascii;
    class       volVectorField;
    location    "150";
    object      U;
}
// * * * * * * * * * * * * * * * * * * * * * * * * * * * * * * * * * * * * * //

dimensions      [0 1 -1 0 0 0 0];

internalField   nonuniform List<vector> 
17140
(
(-0.09856 0.613155 -0.21483)
(-0.105779 0.633999 -0.239557)
(-0.179074 1.04322 -0.380877)
(-0.125117 0.730705 -0.270931)
(-0.195227 1.15088 -0.430804)
(-0.106157 0.603665 -0.222482)
(-0.0962647 0.549551 -0.20503)
(-0.100434 0.629157 -0.233309)
(-0.102793 0.584746 -0.214653)
(-0.10979 0.672839 -0.250112)
(-0.101302 0.629912 -0.23281)
(-0.102315 0.620075 -0.229786)
(-0.0994637 0.572231 -0.211388)
(-0.101377 0.592525 -0.222241)
(-0.103497 0.666163 -0.250133)
(-0.124032 0.772073 -0.288881)
(-0.128756 0.774693 -0.291187)
(-0.105916 0.615773 -0.231062)
(-0.111297 0.636369 -0.236572)
(-0.126422 0.789037 -0.294996)
(-0.129912 0.817513 -0.305708)
(-0.122244 0.793471 -0.293478)
(-0.118083 0.680087 -0.260775)
(-0.170396 0.965457 -0.356868)
(-0.165975 0.966988 -0.352336)
(-0.163359 0.968352 -0.353583)
(-0.164939 0.982441 -0.356797)
(-0.153375 0.887013 -0.329083)
(-0.157433 0.899934 -0.335001)
(-0.137115 0.837589 -0.308486)
(-0.127562 0.769739 -0.289151)
(-0.142386 0.832861 -0.308641)
(-0.125214 0.762581 -0.283528)
(-0.135653 0.801555 -0.298302)
(-0.141708 0.862826 -0.317518)
(-0.1622 0.969902 -0.35125)
(-0.141011 0.836644 -0.311794)
(-0.153601 0.878422 -0.325816)
(-0.1683 0.996321 -0.366549)
(-0.160043 0.964701 -0.352855)
(-0.142482 0.868712 -0.326262)
(-0.167185 0.95085 -0.349485)
(-0.182112 1.05617 -0.385675)
(-0.145067 0.872389 -0.317744)
(-0.16376 0.937106 -0.345732)
(-0.188629 1.08721 -0.394561)
(-0.153925 0.95068 -0.34452)
(-0.150572 0.877494 -0.321784)
(-0.157299 0.903797 -0.32378)
(-0.129435 0.768084 -0.275096)
(-0.144305 0.795302 -0.28862)
(-0.141625 0.816436 -0.284991)
(-0.111965 0.640603 -0.232611)
(-0.129117 0.730446 -0.267947)
(-0.128257 0.749162 -0.275382)
(-0.126444 0.741943 -0.267441)
(-0.108188 0.651143 -0.234961)
(-0.10689 0.68183 -0.244659)
(-0.10972 0.657942 -0.236244)
(-0.108831 0.606952 -0.21916)
(-0.117203 0.668973 -0.244432)
(-0.108419 0.632597 -0.229727)
(-0.0979799 0.606093 -0.224009)
(-0.0903205 0.52677 -0.197988)
(-0.108983 0.657026 -0.242275)
(-0.104044 0.614092 -0.217327)
(-0.0888054 0.523725 -0.190883)
(-0.162245 0.936165 -0.340578)
(-0.150947 0.83429 -0.302352)
(-0.133125 0.747782 -0.26252)
(-0.128782 0.717066 -0.265204)
(-0.136051 0.760098 -0.280719)
(-0.146667 0.826455 -0.295204)
(-0.142473 0.83013 -0.306925)
(-0.142127 0.806184 -0.292118)
(-0.149308 0.801618 -0.290725)
(-0.159983 0.967805 -0.350514)
(-0.160751 0.920709 -0.326239)
(-0.135669 0.779719 -0.2727)
(-0.116006 0.667003 -0.243098)
(-0.13974 0.762811 -0.273249)
(-0.132956 0.738377 -0.265439)
(-0.118362 0.696758 -0.248809)
(-0.13082 0.784318 -0.278677)
(-0.14117 0.829898 -0.302291)
(-0.118035 0.73706 -0.267964)
(-0.123737 0.793875 -0.286363)
(-0.11708 0.735108 -0.268185)
(-0.138086 0.858026 -0.309675)
(-0.150017 0.908481 -0.330795)
(-0.137603 0.821102 -0.290905)
(-0.146288 0.895439 -0.329012)
(-0.150558 0.933909 -0.342256)
(-0.136767 0.843858 -0.3131)
(-0.126953 0.798748 -0.288805)
(-0.144517 0.887857 -0.32644)
(-0.140262 0.872322 -0.316397)
(-0.116022 0.745687 -0.264591)
(-0.121875 0.763354 -0.276455)
(-0.118493 0.71597 -0.25642)
(-0.132134 0.823449 -0.29974)
(-0.160234 0.923982 -0.33772)
(-0.140803 0.802655 -0.295869)
(-0.137726 0.7645 -0.283229)
(-0.13864 0.760666 -0.276535)
(-0.131623 0.73914 -0.269597)
(-0.15967 0.923859 -0.342005)
(-0.144081 0.823007 -0.303109)
(-0.13608 0.764364 -0.281203)
(-0.129623 0.733213 -0.270006)
(-0.138615 0.80293 -0.295259)
(-0.140345 0.788105 -0.294618)
(-0.16225 0.925775 -0.341016)
(-0.140778 0.792988 -0.291279)
(-0.147306 0.819485 -0.306492)
(-0.103458 0.60442 -0.219922)
(-0.111236 0.641134 -0.232296)
(-0.123086 0.752653 -0.273348)
(-0.113283 0.65514 -0.233951)
(-0.102948 0.625856 -0.230151)
(-0.0980499 0.583972 -0.208164)
(-0.0910232 0.573364 -0.215664)
(-0.0767407 0.516155 -0.192435)
(-0.101196 0.612918 -0.225968)
(-0.10351 0.578915 -0.210206)
(-0.0971199 0.58328 -0.211677)
(-0.0927925 0.552728 -0.198219)
(-0.109837 0.625104 -0.237359)
(-0.120093 0.688671 -0.257137)
(-0.131162 0.7381 -0.280503)
(-0.094002 0.546896 -0.207018)
(-0.0948701 0.566244 -0.21201)
(-0.0836261 0.518833 -0.192755)
(-0.13078 0.788417 -0.287611)
(-0.121298 0.686474 -0.253126)
(-0.133363 0.777033 -0.293524)
(-0.195865 1.11411 -0.415073)
(-0.192265 1.12315 -0.418135)
(-0.184761 1.10552 -0.408507)
(-0.195822 1.14947 -0.42703)
(-0.176531 0.995206 -0.373433)
(-0.180311 1.04619 -0.388101)
(-0.175239 1.01115 -0.376376)
(-0.1802 1.05223 -0.394294)
(-0.177811 1.018 -0.380151)
(-0.196104 1.13769 -0.429141)
(-0.179331 1.00617 -0.36917)
(-0.1782 1.05085 -0.388896)
(-0.181795 1.06333 -0.391414)
(-0.19272 1.10653 -0.410682)
(-0.18852 1.10228 -0.411493)
(-0.17004 0.966302 -0.359269)
(-0.177286 1.01263 -0.372859)
(-0.171371 1.01391 -0.376677)
(-0.181176 1.0384 -0.388292)
(-0.163891 0.971707 -0.355626)
(-0.179304 1.0657 -0.394219)
(-0.169502 1.01902 -0.382411)
(-0.161829 0.953851 -0.356067)
(-0.15187 0.904992 -0.345536)
(-0.152611 0.930568 -0.352794)
(-0.147107 0.861052 -0.329144)
(-0.154856 0.945476 -0.360408)
(-0.158011 0.987919 -0.375406)
(-0.158822 0.934444 -0.346791)
(-0.169222 0.974695 -0.362426)
(-0.185863 1.07442 -0.401493)
(-0.178816 1.05534 -0.390536)
(-0.162243 0.997424 -0.367355)
(-0.15519 0.962266 -0.36201)
(-0.156885 0.941795 -0.35509)
(-0.15203 0.917307 -0.341479)
(-0.162069 0.972103 -0.363435)
(-0.15889 0.989714 -0.374331)
(-0.158994 0.996155 -0.373537)
(-0.171664 1.0418 -0.383648)
(-0.167858 1.05238 -0.39333)
(-0.165939 1.03007 -0.381539)
(-0.169088 1.06885 -0.391345)
(-0.150188 0.916707 -0.344857)
(-0.138673 0.878928 -0.333354)
(-0.161311 0.98717 -0.373509)
(-0.151324 0.93987 -0.352395)
(-0.151333 0.926328 -0.350913)
(-0.151895 0.944677 -0.357529)
(-0.16864 1.035 -0.383088)
(-0.158034 0.982995 -0.370988)
(-0.113714 0.646507 -0.2418)
(-0.115324 0.686656 -0.252667)
(-0.140898 0.846978 -0.322449)
(-0.148088 0.882064 -0.328519)
(-0.120649 0.711171 -0.266341)
(-0.129196 0.797116 -0.297616)
(-0.141595 0.799141 -0.296603)
(-0.143531 0.884284 -0.333625)
(-0.158684 0.936013 -0.350583)
(-0.152587 0.912015 -0.343276)
(-0.105155 0.61119 -0.222752)
(-0.0943805 0.559913 -0.200594)
(-0.105032 0.641951 -0.244094)
(-0.130978 0.823857 -0.305336)
(-0.124543 0.767725 -0.280509)
(-0.129448 0.780722 -0.294752)
(-0.0982935 0.609804 -0.239369)
(-0.108401 0.627202 -0.243874)
(-0.118218 0.730535 -0.272129)
(-0.139024 0.804459 -0.304832)
(-0.115757 0.669968 -0.248962)
(-0.101154 0.601941 -0.228697)
(-0.0964948 0.56824 -0.217919)
(-0.0978403 0.591856 -0.225267)
(-0.0920341 0.566874 -0.217686)
(-0.0965523 0.596955 -0.220425)
(-0.101283 0.642937 -0.23995)
(-0.113332 0.65642 -0.250547)
(-0.0859707 0.53248 -0.202414)
(-0.109578 0.645289 -0.243566)
(-0.0937917 0.610429 -0.225422)
(-0.0915743 0.576981 -0.216244)
(-0.131279 0.791436 -0.295899)
(-0.104901 0.632788 -0.239757)
(-0.0936335 0.554561 -0.209882)
(-0.128072 0.793276 -0.295085)
(-0.105385 0.662339 -0.246467)
(-0.121661 0.754264 -0.290213)
(-0.121167 0.78199 -0.284825)
(-0.132366 0.813533 -0.295031)
(-0.125734 0.763941 -0.285589)
(-0.10196 0.672592 -0.245026)
(-0.120771 0.778873 -0.292455)
(-0.159049 0.9178 -0.348837)
(-0.157531 0.888625 -0.326219)
(-0.180231 1.08064 -0.403149)
(-0.186042 1.0967 -0.41493)
(-0.160535 0.972215 -0.366007)
(-0.163805 0.966468 -0.361661)
(-0.157717 0.906171 -0.330586)
(-0.166147 0.960153 -0.354777)
(-0.177382 1.05217 -0.393577)
(-0.184685 1.09153 -0.408598)
(-0.149877 0.903116 -0.328766)
(-0.176001 1.03916 -0.380613)
(-0.18181 1.07483 -0.404126)
(-0.1851 1.09739 -0.411817)
(-0.1724 1.0124 -0.371067)
(-0.096702 0.598406 -0.221353)
(-0.0924788 0.542827 -0.204714)
(-0.101741 0.596391 -0.227034)
(-0.0885617 0.522175 -0.194853)
(-0.10844 0.648823 -0.244136)
(-0.0915987 0.597111 -0.227825)
(-0.107552 0.669804 -0.255838)
(-0.101786 0.652096 -0.246027)
(-0.0998052 0.585804 -0.217184)
(-0.136789 0.826688 -0.319231)
(-0.132215 0.786447 -0.305551)
(-0.137775 0.819165 -0.296067)
(-0.113679 0.721699 -0.271621)
(-0.128637 0.778337 -0.290359)
(-0.118781 0.688534 -0.25816)
(-0.122001 0.765913 -0.283092)
(-0.139637 0.769515 -0.29673)
(-0.137623 0.836745 -0.314878)
(-0.123093 0.724315 -0.273332)
(-0.125174 0.798506 -0.292441)
(-0.13482 0.772123 -0.292226)
(-0.138379 0.807966 -0.30748)
(-0.136526 0.780559 -0.285537)
(-0.145993 0.839898 -0.302685)
(-0.135687 0.772867 -0.280906)
(-0.133159 0.737922 -0.265157)
(-0.140916 0.774737 -0.283339)
(-0.138782 0.818343 -0.298287)
(-0.13829 0.774394 -0.281138)
(-0.136015 0.781024 -0.281459)
(-0.140999 0.819607 -0.295178)
(-0.162534 0.94788 -0.345782)
(-0.160155 0.950037 -0.345579)
(-0.147488 0.816353 -0.294422)
(-0.155764 0.924848 -0.332819)
(-0.101254 0.583359 -0.208131)
(-0.108028 0.647449 -0.237282)
(-0.10786 0.615049 -0.228243)
(-0.112909 0.664639 -0.247052)
(-0.0971585 0.585117 -0.207227)
(-0.0857304 0.493616 -0.177007)
(-0.0873406 0.568718 -0.209044)
(-0.0916497 0.542937 -0.192415)
(-0.105324 0.556059 -0.196145)
(-0.101336 0.516091 -0.179001)
(-0.121112 0.764665 -0.281762)
(-0.11377 0.704501 -0.275362)
(-0.0803391 0.489387 -0.180399)
(-0.0976034 0.604854 -0.226567)
(-0.0953167 0.554263 -0.19917)
(-0.100555 0.604663 -0.216806)
(-0.114154 0.696715 -0.262675)
(-0.12317 0.7133 -0.267906)
(-0.143735 0.792498 -0.30047)
(-0.129375 0.717714 -0.275009)
(-0.139855 0.759765 -0.289854)
(-0.12989 0.766909 -0.287598)
(-0.129108 0.719489 -0.270352)
(-0.11849 0.654945 -0.243999)
(-0.135017 0.749598 -0.276612)
(-0.0927821 0.53792 -0.206179)
(-0.111246 0.601633 -0.228798)
(-0.120834 0.687383 -0.261516)
(-0.103265 0.601661 -0.225661)
(-0.101422 0.584574 -0.230658)
(-0.0960516 0.59157 -0.224575)
(-0.101284 0.576446 -0.222425)
(-0.0911916 0.527886 -0.206195)
(-0.0985304 0.565277 -0.222205)
(-0.0926633 0.524708 -0.201852)
(-0.0932763 0.551234 -0.214147)
(-0.100818 0.575699 -0.232843)
(-0.100439 0.584342 -0.223843)
(-0.0899468 0.51979 -0.19608)
(-0.0884006 0.495621 -0.187133)
(-0.106396 0.63771 -0.235617)
(-0.0924101 0.571916 -0.214991)
(-0.100678 0.59117 -0.218866)
(-0.0905056 0.509302 -0.188099)
(-0.115866 0.672101 -0.257648)
(-0.106721 0.621141 -0.23684)
(-0.081061 0.475689 -0.173552)
(-0.139745 0.789708 -0.301718)
(-0.125399 0.728606 -0.2781)
(-0.0959421 0.565898 -0.214993)
(-0.0895492 0.537716 -0.202347)
(-0.109398 0.630862 -0.235911)
(-0.094731 0.556726 -0.20706)
(-0.132072 0.750974 -0.285303)
(-0.130348 0.760703 -0.289747)
(-0.121597 0.728994 -0.267924)
(-0.12706 0.761618 -0.28628)
(-0.104872 0.612484 -0.230902)
(-0.0906369 0.556654 -0.211611)
(-0.106489 0.625561 -0.230788)
(-0.131561 0.784982 -0.286319)
(-0.135167 0.818819 -0.295303)
(-0.111933 0.668544 -0.245256)
(-0.115213 0.676939 -0.24714)
(-0.14371 0.837301 -0.305195)
(-0.142194 0.888246 -0.326304)
(-0.132254 0.778751 -0.279084)
(-0.0977513 0.61866 -0.219352)
(-0.0923778 0.585957 -0.211993)
(-0.106277 0.634157 -0.23224)
(-0.0944495 0.572675 -0.209643)
(-0.0927051 0.56175 -0.196464)
(-0.0913811 0.558278 -0.200709)
(-0.09247 0.592552 -0.210627)
(-0.0865147 0.541649 -0.191589)
(-0.115412 0.700336 -0.260908)
(-0.110238 0.656764 -0.24416)
(-0.110233 0.655745 -0.236235)
(-0.0947149 0.586118 -0.216914)
(-0.0824022 0.511399 -0.184571)
(-0.114489 0.633318 -0.233034)
(-0.1177 0.628947 -0.224934)
(-0.104801 0.611053 -0.218088)
(-0.103763 0.609257 -0.227914)
(-0.130485 0.738826 -0.268347)
(-0.138152 0.76124 -0.280203)
(-0.121053 0.701763 -0.26612)
(-0.134787 0.759393 -0.288286)
(-0.150414 0.814913 -0.29865)
(-0.143234 0.788616 -0.286215)
(-0.143745 0.841662 -0.315134)
(-0.146611 0.807476 -0.300133)
(-0.116275 0.71619 -0.262996)
(-0.130222 0.771273 -0.287268)
(-0.13458 0.786062 -0.298956)
(-0.142423 0.823115 -0.305261)
(-0.153068 0.8455 -0.322735)
(-0.162206 0.885492 -0.332163)
(-0.168491 0.960721 -0.354103)
(-0.163581 0.966516 -0.362356)
(-0.147371 0.829682 -0.301807)
(-0.143686 0.817409 -0.308008)
(-0.141454 0.826071 -0.295334)
(-0.124379 0.746321 -0.280312)
(-0.159895 0.919908 -0.341799)
(-0.162602 0.90411 -0.334186)
(-0.13799 0.77662 -0.28769)
(-0.195655 1.13678 -0.426526)
(-0.189391 1.14265 -0.431964)
(-0.191711 1.11777 -0.419407)
(-0.184198 1.09514 -0.408918)
(-0.199466 1.14741 -0.43033)
(-0.193518 1.13187 -0.425729)
(-0.187543 1.09856 -0.409033)
(-0.194247 1.14056 -0.428512)
(-0.192023 1.12922 -0.420378)
(-0.179455 1.05803 -0.398608)
(-0.199585 1.15864 -0.434204)
(-0.194062 1.1222 -0.422355)
(-0.183873 1.10593 -0.412274)
(-0.188979 1.10899 -0.414808)
(-0.176281 1.0609 -0.398647)
(-0.182137 1.07766 -0.400013)
(-0.193971 1.14927 -0.429531)
(-0.19307 1.14546 -0.427514)
(-0.183217 1.07718 -0.407103)
(-0.186388 1.09918 -0.417822)
(-0.19011 1.14205 -0.423763)
(-0.189111 1.14521 -0.431255)
(-0.191018 1.13914 -0.428652)
(-0.190442 1.15415 -0.438403)
(-0.189622 1.14262 -0.429277)
(-0.188737 1.14435 -0.430372)
(-0.170565 1.02473 -0.385236)
(-0.163955 1.03365 -0.388556)
(-0.162214 0.979119 -0.371786)
(-0.172596 0.989948 -0.377506)
(-0.177906 1.08903 -0.406546)
(-0.16737 1.06496 -0.402922)
(-0.166829 1.01209 -0.378393)
(-0.145927 0.890798 -0.340113)
(-0.133948 0.815672 -0.303918)
(-0.170833 1.03125 -0.388811)
(-0.158119 0.991662 -0.372151)
(-0.163351 1.02809 -0.387997)
(-0.155172 0.935636 -0.349144)
(-0.159805 0.958912 -0.358622)
(-0.155641 0.917875 -0.345832)
(-0.161877 0.989248 -0.36808)
(-0.158133 0.934598 -0.354024)
(-0.161273 0.922566 -0.345143)
(-0.151453 0.907114 -0.342249)
(-0.178004 1.07189 -0.399683)
(-0.180745 1.06971 -0.397654)
(-0.189919 1.12585 -0.419708)
(-0.189269 1.12083 -0.416533)
(-0.168024 1.00984 -0.370949)
(-0.171163 1.02907 -0.380342)
(-0.16255 0.987861 -0.366097)
(-0.154082 0.936681 -0.342048)
(-0.175784 1.04619 -0.391154)
(-0.169662 1.02681 -0.371613)
(-0.170559 1.00692 -0.371677)
(-0.16751 1.02173 -0.379874)
(-0.16698 0.998742 -0.369159)
(-0.16255 0.96633 -0.358674)
(-0.166583 1.0071 -0.373015)
(-0.164802 0.964707 -0.359178)
(-0.179725 1.02014 -0.385199)
(-0.153924 0.941252 -0.35191)
(-0.146417 0.92716 -0.341997)
(-0.163725 1.00213 -0.373864)
(-0.136577 0.762169 -0.284054)
(-0.135076 0.773088 -0.291511)
(-0.136003 0.782139 -0.28828)
(-0.13363 0.761248 -0.278517)
(-0.136698 0.77681 -0.29319)
(-0.13066 0.754702 -0.276072)
(-0.133354 0.801397 -0.297065)
(-0.132535 0.776375 -0.297828)
(-0.154835 0.895289 -0.334237)
(-0.15895 0.908101 -0.345762)
(-0.142665 0.806255 -0.30214)
(-0.139713 0.786561 -0.293356)
(-0.137029 0.807936 -0.302471)
(-0.149556 0.87063 -0.329751)
(-0.159724 0.915654 -0.34513)
(-0.161702 0.93548 -0.351649)
(-0.134053 0.804992 -0.303982)
(-0.154355 0.877535 -0.325961)
(-0.151359 0.894243 -0.336004)
(-0.14299 0.873713 -0.330773)
(-0.134195 0.810443 -0.306153)
(-0.141391 0.846079 -0.318528)
(-0.126953 0.742074 -0.280492)
(-0.101838 0.632905 -0.227425)
(-0.0997911 0.638755 -0.2391)
(-0.114479 0.660844 -0.24048)
(-0.108653 0.644119 -0.242342)
(-0.141087 0.877822 -0.332195)
(-0.154446 0.913203 -0.341948)
(-0.135275 0.809026 -0.303709)
(-0.125967 0.738612 -0.277555)
(-0.132526 0.771576 -0.289566)
(-0.130812 0.798474 -0.307519)
(-0.103421 0.684841 -0.249993)
(-0.131281 0.785515 -0.287444)
(-0.122784 0.766478 -0.289198)
(-0.135824 0.827939 -0.314149)
(-0.14157 0.788645 -0.300435)
(-0.144015 0.824599 -0.298924)
(-0.112287 0.65786 -0.244461)
(-0.145256 0.85681 -0.313475)
(-0.122734 0.693943 -0.256286)
(-0.16093 0.912984 -0.335047)
(-0.139661 0.753194 -0.278049)
(-0.163101 0.951934 -0.356806)
(-0.12722 0.701261 -0.256421)
(-0.136205 0.779243 -0.294454)
(-0.167288 0.96375 -0.341105)
(-0.175771 0.999622 -0.362331)
(-0.173612 1.00247 -0.358364)
(-0.175484 1.03335 -0.378365)
(-0.151023 0.903707 -0.324638)
(-0.158197 0.923539 -0.331001)
(-0.187194 1.06262 -0.383195)
(-0.185783 1.07887 -0.399088)
(-0.179967 1.02615 -0.372885)
(-0.177399 1.0351 -0.381082)
(-0.172265 1.00582 -0.367776)
(-0.162526 0.949582 -0.338537)
(-0.153695 0.862033 -0.306443)
(-0.16001 0.89666 -0.321753)
(-0.173495 0.993854 -0.365687)
(-0.15626 0.926586 -0.336391)
(-0.166271 0.956715 -0.342998)
(-0.165389 0.96177 -0.3466)
(-0.164187 0.935197 -0.337954)
(-0.14202 0.809589 -0.28897)
(-0.150512 0.809259 -0.295025)
(-0.152452 0.913178 -0.325356)
(-0.141712 0.821403 -0.300785)
(-0.137447 0.818496 -0.291895)
(-0.119831 0.740243 -0.266377)
(-0.148858 0.873115 -0.316421)
(-0.159184 0.923765 -0.331926)
(-0.126073 0.761249 -0.267823)
(-0.113378 0.663849 -0.242788)
(-0.156859 0.925126 -0.337776)
(-0.13913 0.780866 -0.284807)
(-0.139033 0.817283 -0.294799)
(-0.108489 0.674969 -0.236614)
(-0.113507 0.68037 -0.24267)
(-0.109866 0.671192 -0.237644)
(-0.131384 0.769162 -0.279445)
(-0.170735 1.05466 -0.396161)
(-0.17179 1.05271 -0.392684)
(-0.166751 1.02125 -0.382754)
(-0.156981 0.980673 -0.367867)
(-0.165744 1.03945 -0.388635)
(-0.149364 0.954273 -0.355753)
(-0.165149 1.02964 -0.388732)
(-0.164692 1.02561 -0.385737)
(-0.149972 0.950951 -0.35915)
(-0.155961 0.957253 -0.355809)
(-0.145401 0.902672 -0.341698)
(-0.152995 0.96947 -0.358672)
(-0.12805 0.717319 -0.26736)
(-0.137817 0.776221 -0.289477)
(-0.105348 0.598469 -0.225259)
(-0.092885 0.538163 -0.204155)
(-0.104968 0.590212 -0.219671)
(-0.107867 0.615707 -0.224917)
(-0.133421 0.768197 -0.287906)
(-0.133161 0.764566 -0.286236)
(-0.128827 0.742468 -0.273271)
(-0.118959 0.6276 -0.236744)
(-0.11036 0.604729 -0.224111)
(-0.129075 0.747399 -0.280218)
(-0.133306 0.777179 -0.286826)
(-0.133727 0.752117 -0.289199)
(-0.101634 0.550038 -0.203597)
(-0.103298 0.532891 -0.203029)
(-0.0962463 0.5679 -0.213349)
(-0.0949935 0.510741 -0.191206)
(-0.126371 0.718322 -0.266878)
(-0.0953573 0.587251 -0.216597)
(-0.100482 0.558628 -0.217932)
(-0.107923 0.553808 -0.21154)
(-0.152425 0.953648 -0.356591)
(-0.142809 0.920996 -0.34958)
(-0.160348 0.96125 -0.364067)
(-0.169938 1.02615 -0.384325)
(-0.159059 0.980082 -0.367202)
(-0.151669 0.92686 -0.350484)
(-0.146581 0.864684 -0.317362)
(-0.168367 1.03536 -0.390667)
(-0.121392 0.777351 -0.288908)
(-0.131683 0.80993 -0.298416)
(-0.154697 0.979903 -0.37067)
(-0.166924 1.02571 -0.386905)
(-0.149461 0.90712 -0.345327)
(-0.147201 0.878986 -0.341764)
(-0.130435 0.802849 -0.298117)
(-0.133146 0.809099 -0.31033)
(-0.129795 0.787933 -0.293269)
(-0.163131 0.950392 -0.360063)
(-0.159172 0.973917 -0.367302)
(-0.134046 0.855455 -0.320559)
(-0.150305 0.875102 -0.33571)
(-0.128342 0.826231 -0.307655)
(-0.128107 0.825723 -0.315887)
(-0.143125 0.855571 -0.320175)
(-0.157457 0.947572 -0.356858)
(-0.134705 0.849872 -0.31781)
(-0.126899 0.822007 -0.308971)
(-0.140127 0.876775 -0.326579)
(-0.145954 0.896042 -0.334154)
(-0.166912 1.00131 -0.377473)
(-0.169624 1.00299 -0.3799)
(-0.137536 0.847917 -0.318135)
(-0.136264 0.834104 -0.314317)
(-0.144046 0.872755 -0.328008)
(-0.159567 0.965821 -0.36202)
(-0.158797 0.966236 -0.362024)
(-0.123308 0.792205 -0.2975)
(-0.145258 0.914867 -0.348521)
(-0.125664 0.867339 -0.328696)
(-0.126839 0.80302 -0.305926)
(-0.126383 0.7689 -0.280932)
(-0.133092 0.835887 -0.309671)
(-0.124265 0.789528 -0.295959)
(-0.123808 0.732147 -0.270425)
(-0.132604 0.811019 -0.295319)
(-0.143633 0.854744 -0.312944)
(-0.134862 0.857464 -0.319099)
(-0.142633 0.829111 -0.299022)
(-0.138636 0.795901 -0.293416)
(-0.150762 0.93857 -0.346554)
(-0.136133 0.824792 -0.295722)
(-0.136659 0.828156 -0.303887)
(-0.151459 0.938007 -0.342781)
(-0.141528 0.843592 -0.305605)
(-0.152251 0.911563 -0.335235)
(-0.139583 0.833064 -0.313891)
(-0.129544 0.785993 -0.28751)
(-0.159868 0.955156 -0.356041)
(-0.160184 0.958209 -0.350607)
(-0.142232 0.85041 -0.317117)
(-0.135454 0.780561 -0.284469)
(-0.148173 0.879204 -0.326461)
(-0.134197 0.805115 -0.288746)
(-0.134074 0.774626 -0.286338)
(-0.139028 0.813145 -0.304285)
(-0.139297 0.821002 -0.302049)
(-0.128 0.770562 -0.276598)
(-0.131936 0.771666 -0.287736)
(-0.14359 0.860099 -0.315489)
(-0.154226 0.902839 -0.335235)
(-0.139311 0.815316 -0.300787)
(-0.13724 0.816023 -0.299402)
(-0.130836 0.796008 -0.28927)
(-0.161673 0.948976 -0.350636)
(-0.163554 0.968402 -0.355377)
(-0.163056 0.964934 -0.359046)
(-0.131538 0.800751 -0.295929)
(-0.142511 0.852337 -0.313287)
(-0.139368 0.797291 -0.294953)
(-0.106666 0.613447 -0.221066)
(-0.10094 0.576164 -0.208401)
(-0.113315 0.619371 -0.226166)
(-0.0874632 0.530225 -0.198947)
(-0.130413 0.745251 -0.269969)
(-0.139583 0.81591 -0.294879)
(-0.148818 0.844565 -0.309769)
(-0.0965935 0.597382 -0.214166)
(-0.109575 0.628746 -0.22417)
(-0.105287 0.606312 -0.221301)
(-0.119744 0.692589 -0.254345)
(-0.145907 0.811543 -0.297337)
(-0.13813 0.808761 -0.286816)
(-0.134368 0.781945 -0.276019)
(-0.111808 0.641635 -0.232946)
(-0.11015 0.655759 -0.23747)
(-0.130456 0.755942 -0.271248)
(-0.125168 0.755164 -0.274792)
(-0.129234 0.764765 -0.283051)
(-0.135365 0.807839 -0.305244)
(-0.136313 0.823909 -0.311617)
(-0.139567 0.836849 -0.315276)
(-0.129627 0.798102 -0.303706)
(-0.124863 0.758501 -0.283444)
(-0.129982 0.75357 -0.284035)
(-0.117257 0.690743 -0.261074)
(-0.144508 0.87027 -0.32765)
(-0.133192 0.796325 -0.294066)
(-0.127972 0.739095 -0.281447)
(-0.111475 0.69388 -0.260515)
(-0.139026 0.779363 -0.290494)
(-0.12901 0.752084 -0.278729)
(-0.140556 0.779921 -0.293)
(-0.135945 0.746757 -0.277138)
(-0.145865 0.82024 -0.30545)
(-0.149043 0.813149 -0.301733)
(-0.130191 0.737471 -0.271542)
(-0.145834 0.829748 -0.309237)
(-0.134309 0.720292 -0.266944)
(-0.152052 0.864957 -0.323352)
(-0.112297 0.656892 -0.241301)
(-0.106428 0.632746 -0.240896)
(-0.106729 0.590608 -0.213691)
(-0.109902 0.631058 -0.236427)
(-0.110312 0.630907 -0.229702)
(-0.148553 0.811009 -0.300348)
(-0.116446 0.626577 -0.227455)
(-0.134455 0.751312 -0.277098)
(-0.107636 0.607256 -0.222146)
(-0.113107 0.640025 -0.241247)
(-0.107005 0.631179 -0.226462)
(-0.0927736 0.562296 -0.199153)
(-0.0955181 0.577619 -0.205783)
(-0.0963942 0.549296 -0.197116)
(-0.130052 0.793469 -0.290134)
(-0.095892 0.563364 -0.186064)
(-0.0898659 0.602963 -0.219876)
(-0.103932 0.613656 -0.226491)
(-0.136203 0.820062 -0.298)
(-0.131098 0.738994 -0.270434)
(-0.140049 0.843312 -0.311528)
(-0.137711 0.789232 -0.290284)
(-0.139326 0.731513 -0.270887)
(-0.105549 0.614784 -0.227989)
(-0.163913 0.898487 -0.33745)
(-0.167756 1.00874 -0.376713)
(-0.15165 0.883004 -0.327325)
(-0.149476 0.866473 -0.323584)
(-0.14019 0.819477 -0.295707)
(-0.128704 0.738023 -0.276541)
(-0.165877 0.966641 -0.361838)
(-0.144285 0.898044 -0.335908)
(-0.137695 0.829083 -0.30225)
(-0.110793 0.702779 -0.262082)
(-0.0981211 0.596347 -0.226621)
(-0.104569 0.70479 -0.257022)
(-0.0976918 0.647355 -0.239637)
(-0.0857863 0.558484 -0.209715)
(-0.116196 0.722379 -0.276952)
(-0.0943256 0.592965 -0.227527)
(-0.114407 0.705195 -0.269939)
(-0.0993487 0.661145 -0.242432)
(-0.0869149 0.547721 -0.210494)
(-0.114905 0.740629 -0.2783)
(-0.0876225 0.572225 -0.207277)
(-0.0798444 0.501238 -0.188951)
(-0.0885506 0.56283 -0.215184)
(-0.090305 0.586614 -0.21628)
(-0.0839905 0.501778 -0.201448)
(-0.0978988 0.65771 -0.239949)
(-0.0829844 0.5262 -0.203308)
(-0.102363 0.643223 -0.231686)
(-0.100062 0.581027 -0.218711)
(-0.109939 0.640728 -0.243291)
(-0.0965502 0.59731 -0.218814)
(-0.089896 0.537188 -0.199321)
(-0.136043 0.782371 -0.281224)
(-0.130712 0.788442 -0.28374)
(-0.128813 0.753925 -0.276118)
(-0.088109 0.535615 -0.192231)
(-0.103119 0.629557 -0.230969)
(-0.14503 0.802976 -0.290797)
(-0.12896 0.782234 -0.28591)
(-0.144031 0.791445 -0.287933)
(-0.112641 0.616932 -0.222156)
(-0.110776 0.639898 -0.237774)
(-0.101214 0.577741 -0.20564)
(-0.105363 0.623465 -0.221453)
(-0.110768 0.653487 -0.239453)
(-0.0973712 0.613641 -0.223316)
(-0.100138 0.596799 -0.218855)
(-0.08372 0.55743 -0.197433)
(-0.105005 0.646536 -0.236906)
(-0.0951378 0.597095 -0.219149)
(-0.0887829 0.569916 -0.201353)
(-0.107872 0.657289 -0.239084)
(-0.105651 0.684713 -0.249724)
(-0.110007 0.642375 -0.238753)
(-0.0960472 0.583929 -0.215204)
(-0.129846 0.777026 -0.289674)
(-0.132182 0.803602 -0.294594)
(-0.141872 0.855489 -0.315713)
(-0.107549 0.663601 -0.245337)
(-0.101254 0.618794 -0.229564)
(-0.11416 0.665888 -0.245113)
(-0.123686 0.766197 -0.283931)
(-0.135994 0.796615 -0.298971)
(-0.141648 0.812889 -0.297567)
(-0.105934 0.644372 -0.232251)
(-0.103926 0.623063 -0.223621)
(-0.109852 0.650698 -0.241231)
(-0.102084 0.583797 -0.216508)
(-0.123934 0.762962 -0.281507)
(-0.123904 0.765589 -0.276995)
(-0.103624 0.600081 -0.220017)
(-0.112971 0.660041 -0.239299)
(-0.144616 0.87513 -0.334091)
(-0.107932 0.666454 -0.24427)
(-0.126347 0.801107 -0.289153)
(-0.135609 0.794334 -0.29849)
(-0.0947793 0.536377 -0.202049)
(-0.113848 0.674426 -0.241997)
(-0.103959 0.605859 -0.214958)
(-0.0971371 0.580938 -0.21142)
(-0.100053 0.596488 -0.224325)
(-0.122781 0.793898 -0.290985)
(-0.12692 0.756723 -0.276228)
(-0.108938 0.671979 -0.249813)
(-0.169367 1.02249 -0.377723)
(-0.157919 0.964786 -0.354141)
(-0.17695 1.02566 -0.374122)
(-0.172205 1.04176 -0.384452)
(-0.183388 1.10042 -0.407283)
(-0.187275 1.11292 -0.413339)
(-0.166107 0.990965 -0.362543)
(-0.154392 0.929322 -0.336796)
(-0.180538 1.07976 -0.395917)
(-0.176981 1.07146 -0.393259)
(-0.175833 1.04705 -0.388363)
(-0.173558 1.02501 -0.381677)
(-0.159274 0.96176 -0.350742)
(-0.177873 1.04061 -0.386056)
(-0.17663 1.06421 -0.395689)
(-0.157214 0.934983 -0.337972)
(-0.167221 1.0174 -0.373095)
(-0.165509 0.98199 -0.358987)
(-0.128757 0.750831 -0.282823)
(-0.127312 0.759484 -0.286887)
(-0.0986915 0.61082 -0.225318)
(-0.0897497 0.576237 -0.20984)
(-0.123958 0.747824 -0.283208)
(-0.126347 0.746504 -0.280048)
(-0.11 0.678005 -0.267315)
(-0.111678 0.626339 -0.235534)
(-0.0930914 0.568541 -0.214902)
(-0.0834883 0.52536 -0.194454)
(-0.121714 0.721698 -0.274504)
(-0.101183 0.602614 -0.23032)
(-0.106009 0.636604 -0.243408)
(-0.101989 0.604768 -0.222432)
(-0.116842 0.674279 -0.249412)
(-0.0950473 0.580916 -0.220144)
(-0.110209 0.689516 -0.266706)
(-0.0878185 0.538287 -0.190906)
(-0.190417 1.12817 -0.421615)
(-0.186824 1.10488 -0.412125)
(-0.170982 1.03165 -0.377579)
(-0.190329 1.12675 -0.419585)
(-0.184966 1.0962 -0.410077)
(-0.18523 1.10089 -0.411741)
(-0.171444 1.0376 -0.386128)
(-0.189498 1.11304 -0.415203)
(-0.187041 1.09757 -0.408812)
(-0.187034 1.10451 -0.413184)
(-0.171933 1.03939 -0.376933)
(-0.114404 0.649852 -0.24823)
(-0.103211 0.581033 -0.220746)
(-0.110668 0.625444 -0.231279)
(-0.130764 0.723557 -0.262875)
(-0.123577 0.724109 -0.269949)
(-0.108434 0.663292 -0.2505)
(-0.129922 0.779359 -0.291569)
(-0.115921 0.683363 -0.251119)
(-0.146993 0.919332 -0.343706)
(-0.157059 0.929922 -0.344767)
(-0.138786 0.78976 -0.292075)
(-0.134356 0.833717 -0.306594)
(-0.141797 0.841305 -0.310162)
(-0.124078 0.790134 -0.281902)
(-0.181616 1.04399 -0.37746)
(-0.167357 1.01336 -0.36869)
(-0.152682 0.887289 -0.324792)
(-0.132436 0.784079 -0.289909)
(-0.139431 0.801451 -0.287533)
(-0.158359 0.9022 -0.324415)
(-0.172903 0.982963 -0.350957)
(-0.177391 1.00087 -0.360169)
(-0.123123 0.734572 -0.266696)
(-0.146523 0.825225 -0.299797)
(-0.172862 0.996844 -0.359602)
(-0.174798 1.02531 -0.36927)
(-0.140779 0.839226 -0.296674)
(-0.136966 0.798234 -0.278224)
(-0.126194 0.731779 -0.260546)
(-0.16755 0.961254 -0.346456)
(-0.151216 0.863647 -0.307471)
(-0.149015 0.873218 -0.315518)
(-0.142629 0.830079 -0.293709)
(-0.177327 1.03445 -0.382158)
(-0.181315 1.01978 -0.377486)
(-0.179372 1.04582 -0.383909)
(-0.17654 0.989332 -0.362916)
(-0.161694 0.932031 -0.345048)
(-0.171184 1.00694 -0.371806)
(-0.152313 0.863683 -0.321956)
(-0.158958 0.898328 -0.330389)
(-0.169224 0.984874 -0.36489)
(-0.139922 0.802146 -0.299959)
(-0.144284 0.810989 -0.2994)
(-0.165378 0.926767 -0.347068)
(-0.158453 0.916297 -0.346714)
(-0.162203 0.93762 -0.350287)
(-0.16399 0.933283 -0.346141)
(-0.150719 0.839676 -0.312184)
(-0.152782 0.856345 -0.31559)
(-0.130077 0.768414 -0.279212)
(-0.124089 0.737191 -0.282972)
(-0.0994779 0.683976 -0.242705)
(-0.106035 0.663793 -0.228779)
(-0.120324 0.688243 -0.253112)
(-0.109637 0.628148 -0.224863)
(-0.135626 0.820868 -0.298818)
(-0.0952916 0.641229 -0.237314)
(-0.0898679 0.607762 -0.222697)
(-0.11593 0.752444 -0.275296)
(-0.105064 0.653821 -0.246393)
(-0.0974978 0.592728 -0.216196)
(-0.0825141 0.52671 -0.19637)
(-0.140572 0.860913 -0.317484)
(-0.118466 0.744386 -0.278385)
(-0.106854 0.627681 -0.232599)
(-0.110292 0.66617 -0.241137)
(-0.0972175 0.605968 -0.223393)
(-0.0831254 0.511008 -0.189607)
(-0.0814155 0.619876 -0.22074)
(-0.122486 0.778882 -0.284009)
(-0.0871931 0.624842 -0.215196)
(-0.0871592 0.602218 -0.210546)
(-0.100727 0.581609 -0.201678)
(-0.117154 0.672584 -0.249702)
(-0.0942913 0.574586 -0.210426)
(-0.104999 0.593665 -0.218023)
(-0.0842741 0.502814 -0.182666)
(-0.101852 0.621282 -0.227988)
(-0.0933278 0.575606 -0.212489)
(-0.0958427 0.554513 -0.202688)
(-0.0947441 0.528773 -0.19015)
(-0.0996425 0.592336 -0.219074)
(-0.0821492 0.512803 -0.182657)
(-0.121709 0.723436 -0.262214)
(-0.108138 0.626746 -0.226844)
(-0.104648 0.626275 -0.231916)
(-0.114116 0.65577 -0.2436)
(-0.100185 0.589046 -0.209417)
(-0.107004 0.635246 -0.233299)
(-0.121373 0.736741 -0.273018)
(-0.121051 0.757946 -0.282738)
(-0.0994839 0.602522 -0.218415)
(-0.093894 0.558453 -0.20799)
(-0.090253 0.54331 -0.19435)
(-0.100218 0.593435 -0.210897)
(-0.128024 0.746182 -0.269809)
(-0.120876 0.771907 -0.282389)
(-0.0982551 0.633448 -0.228888)
(-0.0999542 0.625056 -0.225515)
(-0.106696 0.619948 -0.229366)
(-0.101449 0.641133 -0.233152)
(-0.093383 0.542492 -0.199759)
(-0.134707 0.798965 -0.28648)
(-0.0956053 0.582862 -0.213871)
(-0.0929973 0.569379 -0.208841)
(-0.111224 0.653982 -0.242464)
(-0.123216 0.787249 -0.291218)