/*--------------------------------*- C++ -*----------------------------------*\
| =========                 |                                                 |
| \\      /  F ield         | OpenFOAM: The Open Source CFD Toolbox           |
|  \\    /   O peration     | Version:  v1612+                                |
|   \\  /    A nd           | Web:      www.OpenFOAM.com                      |
|    \\/     M anipulation  |                                                 |
\*---------------------------------------------------------------------------*/
FoamFile
{
    version     2.0;
    format      ascii;
    class       volVectorField;
    location    "150";
    object      wallShearStress;
}
// * * * * * * * * * * * * * * * * * * * * * * * * * * * * * * * * * * * * * //

dimensions      [0 2 -2 0 0 0 0];

internalField   uniform (0 0 0);

boundaryField
{
    WALL
    {
        type            calculated;
        value           nonuniform List<vector> 
1510
(
(0.00189845 -0.0117384 0.0044104)
(0.00187302 -0.0120456 0.00461051)
(0.00220726 -0.0119909 0.00437013)
(0.00212426 -0.0116622 0.00421094)
(0.00208945 -0.0118523 0.00416453)
(0.00184611 -0.0110701 0.0041433)
(0.00144241 -0.0111612 0.00413704)
(0.00206234 -0.0116345 0.00429555)
(0.00192228 -0.0110981 0.00417259)
(0.00185732 -0.0115177 0.00432215)
(0.00193962 -0.0118484 0.00453446)
(0.00205275 -0.0117322 0.00427282)
(0.00191896 -0.0116094 0.00436886)
(0.00186661 -0.0115331 0.00404414)
(0.00193746 -0.0113751 0.00411214)
(0.0021492 -0.0118844 0.00461302)
(0.00151333 -0.0110435 0.00353562)
(0.00194418 -0.0113701 0.00416863)
(0.00209182 -0.0119879 0.00438507)
(0.00197471 -0.0116678 0.00424619)
(0.00194381 -0.0119581 0.00436949)
(0.00195701 -0.0110973 0.00426418)
(0.00189683 -0.0119068 0.004273)
(0.00184807 -0.0115112 0.00426636)
(0.00207281 -0.0116909 0.00430012)
(0.002088 -0.0120272 0.00437437)
(0.00206449 -0.0119765 0.0043684)
(0.00212349 -0.0118152 0.00420769)
(0.00200929 -0.0120231 0.00436911)
(0.00184129 -0.0113926 0.00429086)
(0.00192158 -0.0113101 0.00421809)
(0.00182766 -0.0111104 0.00404806)
(0.00187314 -0.0112266 0.00399754)
(0.00177094 -0.0114637 0.00413138)
(0.00183351 -0.0113965 0.00426699)
(0.00215957 -0.0119919 0.0043349)
(0.0022773 -0.0118656 0.00405977)
(0.0019448 -0.0119885 0.00442067)
(0.00202688 -0.0116481 0.00428902)
(0.0022479 -0.0121194 0.00444063)
(0.00233876 -0.0118527 0.00414474)
(0.00189443 -0.0111639 0.0036082)
(0.00186614 -0.0110628 0.00386359)
(0.00207303 -0.0114956 0.00364322)
(0.00167344 -0.0104926 0.00359137)
(0.00187373 -0.0109881 0.00353611)
(0.00204149 -0.0114004 0.00405264)
(0.00176998 -0.0110439 0.00422016)
(0.00163911 -0.0111859 0.00402591)
(0.00171743 -0.0110328 0.00417469)
(0.00185384 -0.0116655 0.00442334)
(0.00157167 -0.0112627 0.00402625)
(0.00164765 -0.0108795 0.00390495)
(0.00206044 -0.0115447 0.00389533)
(0.00207997 -0.0116704 0.00408208)
(0.00205894 -0.0115558 0.00409205)
(0.00198427 -0.0115697 0.00410598)
(0.00198264 -0.0116269 0.00400558)
(0.00200249 -0.0117119 0.00409801)
(0.00180816 -0.0115274 0.00453216)
(0.00203289 -0.0113857 0.00407746)
(0.00192358 -0.0116329 0.00445573)
(0.00202611 -0.0118878 0.00453588)
(0.00199768 -0.011888 0.00455152)
(0.00200254 -0.0113733 0.00428979)
(0.00188744 -0.0116893 0.00398602)
(0.00216411 -0.0117602 0.00421629)
(0.00193859 -0.0109099 0.00390393)
(0.00183924 -0.011263 0.00386765)
(0.00213165 -0.0120688 0.00396347)
(0.00176454 -0.0116543 0.00403284)
(0.00179241 -0.0114589 0.00397935)
(0.00193948 -0.0122004 0.00426204)
(0.00190991 -0.0119095 0.00400874)
(0.00189834 -0.0119454 0.00408064)
(0.001676 -0.0118668 0.00394649)
(0.00200173 -0.012181 0.0044734)
(0.00211255 -0.0121585 0.00447694)
(0.00184029 -0.0117687 0.00432195)
(0.00180778 -0.0118879 0.00424638)
(0.00192315 -0.0120159 0.00446222)
(0.00194098 -0.0118267 0.00435575)
(0.00186548 -0.0111515 0.00418392)
(0.00188816 -0.0112748 0.0042763)
(0.00191986 -0.0109258 0.00407626)
(0.001954 -0.0111153 0.00407208)
(0.00200613 -0.011175 0.00405666)
(0.00225345 -0.012871 0.00474371)
(0.00215135 -0.0121005 0.00442071)
(0.00224544 -0.0119811 0.00431236)
(0.00220911 -0.0117534 0.00434431)
(0.00209146 -0.0119848 0.00454074)
(0.00202738 -0.0118979 0.00440355)
(0.00177837 -0.0113755 0.0043399)
(0.00198951 -0.0111361 0.00417854)
(0.00184534 -0.0114524 0.00436743)
(0.00189299 -0.0113935 0.004353)
(0.00187355 -0.0111456 0.00416408)
(0.00182321 -0.011167 0.00417552)
(0.00179769 -0.011431 0.00424452)
(0.00173003 -0.0119209 0.00443534)
(0.00165227 -0.0120032 0.00437781)
(0.00199746 -0.0117147 0.00432726)
(0.00143084 -0.0114063 0.00413722)
(0.00203836 -0.0119495 0.00442269)
(0.00214448 -0.0121023 0.00442986)
(0.00200342 -0.0122523 0.0045239)
(0.0018924 -0.0118969 0.00452185)
(0.001882 -0.0120261 0.00453113)
(0.00206976 -0.0121503 0.00451899)
(0.00217847 -0.0120605 0.00440062)
(0.00211833 -0.012317 0.00452166)
(0.00205849 -0.0120761 0.00444411)
(0.00213213 -0.0124116 0.00469014)
(0.00215773 -0.0125107 0.00456158)
(0.00200314 -0.0120865 0.00464581)
(0.00214337 -0.0114614 0.00460028)
(0.00200483 -0.0118983 0.00437131)
(0.00214394 -0.0121744 0.00462399)
(0.00200433 -0.0120742 0.00456883)
(0.00202725 -0.0124245 0.00428783)
(0.00194259 -0.0121806 0.00455613)
(0.00190542 -0.0112701 0.00415132)
(0.0021646 -0.0115175 0.004292)
(0.00205666 -0.0116857 0.00433604)
(0.00196019 -0.0117606 0.00450103)
(0.00209876 -0.0113912 0.00426515)
(0.00204585 -0.0117882 0.00435253)
(0.00192435 -0.0118484 0.00444891)
(0.00190271 -0.0119078 0.00441312)
(0.00196263 -0.0121048 0.00441245)
(0.00189732 -0.0122603 0.00461885)
(0.00220242 -0.0120199 0.00446376)
(0.001658 -0.0124268 0.0044952)
(0.00205323 -0.0116286 0.0044779)
(0.00198876 -0.0121574 0.00450891)
(0.00179916 -0.0113724 0.00406605)
(0.00220591 -0.0122855 0.00460733)
(0.00191385 -0.0118282 0.00435276)
(0.00192081 -0.0115796 0.00442195)
(0.00187022 -0.0114312 0.00426445)
(0.00168571 -0.0114309 0.00419263)
(0.00170327 -0.0114665 0.00427831)
(0.00167778 -0.0115783 0.00422179)
(0.00169786 -0.011756 0.00438055)
(0.00203401 -0.0110743 0.00402462)
(0.00186454 -0.0115341 0.0043113)
(0.00192344 -0.0114768 0.00425426)
(0.00192766 -0.0115182 0.00418081)
(0.00188244 -0.0113886 0.00419111)
(0.00197158 -0.0115947 0.00430724)
(0.00197661 -0.0114079 0.00424667)
(0.00207677 -0.0114912 0.0044921)
(0.00198823 -0.0109461 0.00411062)
(0.00193839 -0.0112432 0.00430656)
(0.00203558 -0.0111443 0.00406984)
(0.00171136 -0.0115662 0.00429116)
(0.0019177 -0.0114428 0.00423682)
(0.00192288 -0.0113799 0.00420004)
(0.00191572 -0.0113507 0.00428123)
(0.0020357 -0.0115979 0.00433611)
(0.00192852 -0.0112952 0.00425153)
(0.00205392 -0.011509 0.00438508)
(0.00196631 -0.0116189 0.00436929)
(0.00193261 -0.0114038 0.00433412)
(0.00215335 -0.0114828 0.00420095)
(0.0022264 -0.0113406 0.00422499)
(0.00196116 -0.0112801 0.0041551)
(0.00190781 -0.0112005 0.00416383)
(0.00186281 -0.0112 0.00420718)
(0.00174355 -0.0116882 0.00432292)
(0.00173823 -0.0115262 0.00418332)
(0.00213092 -0.0117036 0.00439645)
(0.00186127 -0.0116518 0.00435791)
(0.0018506 -0.0116732 0.00425144)
(0.0019401 -0.0116593 0.00443743)
(0.0017822 -0.0121487 0.00447547)
(0.00150939 -0.0120891 0.00424473)
(0.00176716 -0.0116686 0.00419062)
(0.00190284 -0.0120208 0.00429421)
(0.00173998 -0.0119537 0.00426726)
(0.00178235 -0.0121712 0.00444909)
(0.00171418 -0.0116757 0.00418701)
(0.00197542 -0.0121616 0.00458759)
(0.00198773 -0.0117908 0.00435961)
(0.00184206 -0.0120141 0.00441059)
(0.00178614 -0.0116604 0.00415612)
(0.00176187 -0.0111938 0.00388013)
(0.00191943 -0.0118807 0.00437137)
(0.00193742 -0.0119271 0.00451671)
(0.00200289 -0.0116076 0.00439143)
(0.0020489 -0.0115838 0.00440922)
(0.00189908 -0.0114805 0.00428946)
(0.00198672 -0.0118117 0.00451671)
(0.00191678 -0.0121232 0.00437226)
(0.00188114 -0.0118649 0.00428304)
(0.00195896 -0.0119775 0.00441599)
(0.0020896 -0.0115862 0.0045318)
(0.00196075 -0.0121713 0.00432755)
(0.00173099 -0.0113333 0.00434176)
(0.00186963 -0.0114386 0.00424816)
(0.00194014 -0.0116015 0.00427528)
(0.00187364 -0.0114678 0.00431053)
(0.0018898 -0.0111645 0.00417917)
(0.00197588 -0.0116067 0.00431452)
(0.0017066 -0.0113252 0.00424972)
(0.00167058 -0.0113691 0.00431399)
(0.00172131 -0.0112345 0.0042349)
(0.0017597 -0.0117107 0.00438181)
(0.00160415 -0.0112381 0.00430835)
(0.00180315 -0.0115865 0.00433908)
(0.00183651 -0.0110409 0.00414083)
(0.00172626 -0.0109017 0.00405639)
(0.00160061 -0.0110038 0.00423711)
(0.0020159 -0.0113757 0.00418999)
(0.00176256 -0.0110466 0.00418896)
(0.00177923 -0.0112488 0.00418081)
(0.00178263 -0.0115781 0.00460085)
(0.00196802 -0.0113026 0.00412951)
(0.00180526 -0.0112306 0.00432626)
(0.00194673 -0.011402 0.00420652)
(0.00186519 -0.0111379 0.00411159)
(0.00190534 -0.0110259 0.00402901)
(0.00216112 -0.0115817 0.00436241)
(0.00215657 -0.0113232 0.00424631)
(0.00196492 -0.0109888 0.00401463)
(0.00166952 -0.0111302 0.00413704)
(0.00176533 -0.0112752 0.0041875)
(0.00154645 -0.0110311 0.00401892)
(0.00192331 -0.0116952 0.00424237)
(0.00188025 -0.0115689 0.00420095)
(0.00177652 -0.0112311 0.00390927)
(0.00191548 -0.0117313 0.00434971)
(0.00170725 -0.0118527 0.00416807)
(0.00180606 -0.0117746 0.00423162)
(0.00202235 -0.0115983 0.00420667)
(0.00179412 -0.0113131 0.00420557)
(0.00202515 -0.011754 0.00436854)
(0.00184915 -0.0114871 0.00436583)
(0.00178784 -0.0113597 0.00420859)
(0.00188663 -0.0113797 0.00428329)
(0.00205038 -0.011154 0.00400823)
(0.00200197 -0.0111402 0.00413433)
(0.00201058 -0.0111493 0.00403841)
(0.00207437 -0.0113241 0.00409343)
(0.00191288 -0.01116 0.00416279)
(0.00181896 -0.011085 0.00405596)
(0.0017547 -0.0112208 0.0041612)
(0.00195844 -0.0111656 0.00415101)
(0.00175094 -0.0109771 0.00423425)
(0.00173983 -0.0111278 0.00425348)
(0.00184356 -0.0111517 0.00418962)
(0.00164142 -0.0108117 0.00411998)
(0.00192684 -0.0112145 0.00407208)
(0.00214438 -0.0118012 0.00406989)
(0.00180578 -0.0111273 0.00422402)
(0.00194895 -0.0113926 0.00452584)
(0.00201108 -0.0115985 0.00451702)
(0.00214089 -0.0115426 0.0039999)
(0.00246036 -0.0131029 0.00472306)
(0.00196933 -0.01235 0.00466544)
(0.00209491 -0.0126015 0.00464997)
(0.00193636 -0.0116918 0.00433153)
(0.00194251 -0.0114069 0.00398694)
(0.0019777 -0.0121386 0.00447487)
(0.00194714 -0.011511 0.00409324)
(0.00214048 -0.0122045 0.00432898)
(0.0021936 -0.0119789 0.00422034)
(0.00195251 -0.0117984 0.00451158)
(0.00198391 -0.0121028 0.00440271)
(0.00186651 -0.0116212 0.00439789)
(0.00191864 -0.0119914 0.00457957)
(0.00205883 -0.0122939 0.00449773)
(0.00204132 -0.0117981 0.00428593)
(0.00193228 -0.0116043 0.00469457)
(0.00186427 -0.0122391 0.004768)
(0.00175565 -0.0117602 0.00420458)
(0.00213947 -0.0117452 0.00417218)
(0.00196259 -0.011733 0.00424732)
(0.00215021 -0.0117701 0.00455138)
(0.00199374 -0.0118187 0.00472982)
(0.00211274 -0.0118357 0.0042661)
(0.00182489 -0.0118829 0.00427122)
(0.00187247 -0.0123297 0.00419209)
(0.00210395 -0.0118684 0.00431434)
(0.00194318 -0.01123 0.00419493)
(0.0019208 -0.0116291 0.00453294)
(0.0020777 -0.0123299 0.00436883)
(0.00194576 -0.0117694 0.00429947)
(0.00206702 -0.012942 0.0045001)
(0.0023055 -0.0122692 0.00411485)
(0.0020045 -0.0119611 0.00445751)
(0.00185081 -0.0112671 0.00419205)
(0.00200268 -0.0119414 0.00402102)
(0.00183852 -0.0117576 0.00428731)
(0.00196797 -0.0120959 0.00446394)
(0.00199394 -0.0118492 0.00420596)
(0.00194887 -0.0114291 0.00406292)
(0.00199872 -0.0116104 0.00414464)
(0.00196337 -0.0114341 0.00423363)
(0.0019828 -0.0116555 0.00432484)
(0.00195287 -0.011434 0.00422565)
(0.00198917 -0.0113952 0.00401561)
(0.00190698 -0.0115537 0.004397)
(0.00197162 -0.0117232 0.00436343)
(0.00199102 -0.0117647 0.00436404)
(0.0019218 -0.0119022 0.00440989)
(0.00198245 -0.0116441 0.00436395)
(0.00179084 -0.0124823 0.00447686)
(0.00207049 -0.0118962 0.00451143)
(0.00206198 -0.0119855 0.00437864)
(0.00194095 -0.0120014 0.00444428)
(0.00227338 -0.0119866 0.00445272)
(0.00195183 -0.0118496 0.0044822)
(0.00176894 -0.011945 0.00451739)
(0.00184845 -0.011756 0.00424199)
(0.00184607 -0.0114231 0.00421645)
(0.0019626 -0.011673 0.00432949)
(0.00177795 -0.0125406 0.00441999)
(0.00167126 -0.011758 0.00420786)
(0.00202343 -0.0121941 0.00457242)
(0.00200102 -0.011456 0.00433385)
(0.00166974 -0.012007 0.00435199)
(0.0017158 -0.0113373 0.00409432)
(0.00206063 -0.0120576 0.00445529)
(0.00204528 -0.0121721 0.00448457)
(0.00190934 -0.0117192 0.00421792)
(0.00204577 -0.0118525 0.00447861)
(0.00184411 -0.0117892 0.00428285)
(0.00196549 -0.0118315 0.00430024)
(0.00193468 -0.0115233 0.00426642)
(0.00184291 -0.0114883 0.00404512)
(0.00181833 -0.0117963 0.00433601)
(0.0017837 -0.0120964 0.00399566)
(0.00189598 -0.0114711 0.00417559)
(0.0017712 -0.0111501 0.00368606)
(0.00182474 -0.0119732 0.00428499)
(0.00184616 -0.011722 0.00418593)
(0.0015992 -0.010829 0.00384744)
(0.00182617 -0.0111985 0.00411853)
(0.00189954 -0.0118201 0.00411998)
(0.00188786 -0.0113097 0.00403432)
(0.0018586 -0.0115236 0.00414682)
(0.00195867 -0.0116993 0.0042453)
(0.00178218 -0.0116521 0.0041212)
(0.00196735 -0.0118083 0.0045153)
(0.00182751 -0.0111277 0.00378055)
(0.00218201 -0.0118502 0.00455576)
(0.00222206 -0.0120983 0.00466406)
(0.00192486 -0.0115418 0.00407065)
(0.00224988 -0.0119317 0.00413302)
(0.00207603 -0.0116264 0.00432779)
(0.00188359 -0.0114432 0.00426781)
(0.0019516 -0.0112628 0.0044453)
(0.00218444 -0.0123961 0.00473611)
(0.00191175 -0.0116867 0.00442392)
(0.00190146 -0.0114615 0.00382113)
(0.00191336 -0.0112834 0.00401437)
(0.00182778 -0.0117283 0.00427281)
(0.00199187 -0.0117231 0.00421452)
(0.00170596 -0.0107459 0.00376183)
(0.00193295 -0.0120406 0.00418071)
(0.00203753 -0.0115278 0.00408768)
(0.00168876 -0.0110165 0.0042047)
(0.00177768 -0.0120051 0.00468243)
(0.00208731 -0.0122703 0.00463842)
(0.00174924 -0.0110448 0.00429569)
(0.0019387 -0.0116236 0.00413076)
(0.00187164 -0.0116209 0.00429899)
(0.00215973 -0.0119272 0.00446842)
(0.00198618 -0.0117348 0.00436688)
(0.00195193 -0.0116523 0.00443191)
(0.00189597 -0.0118301 0.00447154)
(0.00179981 -0.0121262 0.00443611)
(0.00190717 -0.0119997 0.00441586)
(0.00178909 -0.0119746 0.00427323)
(0.00174871 -0.0117854 0.00429971)
(0.00216661 -0.0120714 0.00455513)
(0.00196402 -0.011683 0.0043668)
(0.00183217 -0.012036 0.00446554)
(0.00184719 -0.011709 0.00411851)
(0.00200958 -0.0117404 0.00436585)
(0.00180913 -0.0118262 0.00412897)
(0.00205345 -0.0121935 0.00442462)
(0.00170004 -0.0114578 0.00420365)
(0.00194886 -0.0116579 0.00434878)
(0.00205798 -0.0117216 0.00440479)
(0.00185444 -0.0117979 0.00414854)
(0.00203112 -0.0117331 0.00443378)
(0.00197604 -0.0118799 0.00443612)
(0.00202787 -0.011558 0.0044801)
(0.00193421 -0.0121556 0.00433946)
(0.00213601 -0.0121708 0.00447207)
(0.00202353 -0.0116017 0.00439807)
(0.00202525 -0.0117178 0.0045608)
(0.00196057 -0.0115448 0.00415228)
(0.00213748 -0.0119255 0.00442794)
(0.00193726 -0.0117962 0.00452426)
(0.00199414 -0.0115715 0.00444355)
(0.00205945 -0.0113291 0.00405684)
(0.00190974 -0.0111386 0.00418853)
(0.00184647 -0.0112019 0.00428743)
(0.00226164 -0.0124382 0.00432997)
(0.00242108 -0.0119686 0.00434392)
(0.00182628 -0.0116209 0.00420768)
(0.0020847 -0.0114511 0.00434243)
(0.00215687 -0.0115605 0.00429352)
(0.00198886 -0.0108669 0.00397789)
(0.00212916 -0.0117446 0.00431393)
(0.00215632 -0.012026 0.00440708)
(0.00211359 -0.0117397 0.00431545)
(0.00200683 -0.0119521 0.00447255)
(0.00194996 -0.0114627 0.00424287)
(0.00195981 -0.0118343 0.00454452)
(0.00218502 -0.0118007 0.00433372)
(0.0022658 -0.011716 0.0042425)
(0.00205656 -0.011585 0.00424683)
(0.00214305 -0.011789 0.00433911)
(0.00203771 -0.0114491 0.0041934)
(0.00213903 -0.011551 0.00423181)
(0.00203425 -0.0116663 0.00429329)
(0.00209622 -0.0112272 0.00407199)
(0.00212054 -0.0116862 0.00430363)
(0.00192965 -0.0112411 0.00411491)
(0.00202272 -0.0113012 0.004134)
(0.00213358 -0.0114522 0.00420563)
(0.00189224 -0.0115674 0.00385019)
(0.00183824 -0.0110984 0.00404998)
(0.00176849 -0.0115245 0.00410025)
(0.001869 -0.0118079 0.00464037)
(0.00190253 -0.0116032 0.00428794)
(0.00186396 -0.01136 0.00418437)
(0.00194057 -0.011014 0.00422382)
(0.00179223 -0.0110732 0.00408624)
(0.00194985 -0.011781 0.00463362)
(0.00199479 -0.0112925 0.00420642)
(0.00194194 -0.0113681 0.00424534)
(0.00185403 -0.0112385 0.00405814)
(0.0020026 -0.0113084 0.00433473)
(0.00181518 -0.0111347 0.00401291)
(0.00197878 -0.0113508 0.004287)
(0.00195425 -0.0112608 0.00415464)
(0.00193219 -0.0116248 0.00434414)
(0.00174796 -0.0114749 0.00409268)
(0.00187839 -0.0114631 0.00425728)
(0.00173524 -0.0114481 0.00406831)
(0.00177002 -0.0110631 0.00395843)
(0.0017054 -0.0105283 0.0039978)
(0.00187557 -0.0110944 0.00399545)
(0.00195924 -0.0109224 0.00406126)
(0.00181153 -0.0109945 0.00370457)
(0.00208197 -0.0114397 0.00397072)
(0.00198808 -0.0116893 0.00414641)
(0.00211086 -0.011608 0.00401821)
(0.00189102 -0.011084 0.00420115)
(0.00204744 -0.011498 0.00412298)
(0.00195047 -0.0110366 0.00390268)
(0.00216327 -0.0121361 0.00444006)
(0.00230161 -0.0120912 0.00436044)
(0.00217017 -0.0120463 0.00437149)
(0.00217258 -0.0122041 0.00449464)
(0.00218742 -0.0119329 0.00443391)
(0.00210508 -0.0120939 0.00450762)
(0.00184082 -0.0108854 0.00391606)
(0.00192682 -0.0113137 0.00431724)
(0.0018476 -0.0111261 0.00401169)
(0.00188398 -0.0112547 0.00426131)
(0.00196804 -0.0112937 0.00412573)
(0.001728 -0.0112884 0.00421358)
(0.0019717 -0.0111988 0.00418066)
(0.00200611 -0.0109597 0.003984)
(0.00193348 -0.0114914 0.00421494)
(0.0019699 -0.0112142 0.00408304)
(0.00185501 -0.0113969 0.00425655)
(0.00189433 -0.0113956 0.00430385)
(0.00203382 -0.0119691 0.00458691)
(0.0020768 -0.01231 0.00445722)
(0.00208972 -0.0119769 0.00428897)
(0.00212896 -0.0119809 0.00444077)
(0.00211545 -0.0120414 0.00439799)
(0.00210367 -0.0119973 0.00445389)
(0.00210676 -0.0117935 0.00421275)
(0.00194136 -0.0113313 0.0043697)
(0.00200891 -0.0121115 0.00436202)
(0.00207968 -0.0123043 0.00431085)
(0.00224466 -0.0120383 0.00423442)
(0.00217536 -0.0120056 0.00425757)
(0.00217987 -0.0120667 0.00442278)
(0.00209589 -0.0122629 0.00423469)
(0.00210043 -0.0121052 0.0043679)
(0.00212286 -0.0122037 0.00421174)
(0.00192066 -0.0116835 0.00421081)
(0.00204219 -0.0119378 0.00412256)
(0.00223715 -0.0118506 0.00420729)
(0.00203916 -0.0115123 0.00409589)
(0.00207261 -0.0114689 0.00399362)
(0.00212978 -0.0116177 0.0040268)
(0.00196597 -0.0119383 0.00432673)
(0.00220074 -0.0115657 0.00405986)
(0.00217861 -0.0119037 0.00445365)
(0.00231285 -0.0120006 0.00425358)
(0.00228847 -0.0117835 0.00417774)
(0.00223021 -0.0115385 0.00418637)
(0.00214187 -0.0116975 0.00427836)
(0.00189817 -0.0119312 0.00444118)
(0.00183429 -0.0113546 0.00403746)
(0.00187191 -0.0115185 0.00398791)
(0.0018866 -0.0115955 0.00410544)
(0.00193584 -0.0119115 0.0043931)
(0.00210289 -0.0121952 0.00444783)
(0.0019042 -0.011859 0.00437625)
(0.0019855 -0.0118884 0.00428733)
(0.00192217 -0.012208 0.00428008)
(0.00192555 -0.0119169 0.00444755)
(0.00204554 -0.0117733 0.00430295)
(0.00187313 -0.0112712 0.00415369)
(0.00184935 -0.011575 0.00417364)
(0.00180164 -0.0115431 0.00397647)
(0.0019199 -0.0119359 0.00409445)
(0.0018175 -0.0116228 0.00413501)
(0.00189947 -0.0117845 0.00458685)
(0.00197316 -0.0123107 0.00455241)
(0.002081 -0.0116368 0.00437512)
(0.00215811 -0.0115449 0.00437789)
(0.00222305 -0.0124729 0.0047936)
(0.00239577 -0.0123121 0.00457445)
(0.00221125 -0.0121814 0.00453357)
(0.00188573 -0.0122904 0.00442503)
(0.00178383 -0.0121132 0.00433619)
(0.00199725 -0.0122649 0.00438951)
(0.00207796 -0.0120344 0.00439061)
(0.00201269 -0.0118603 0.00438417)
(0.00181571 -0.0119315 0.00429321)
(0.00188267 -0.0118401 0.0041043)
(0.00205538 -0.0119103 0.0044498)
(0.00203615 -0.0122835 0.00426376)
(0.00197626 -0.0117336 0.00442753)
(0.00183048 -0.0113102 0.00397932)
(0.00200206 -0.0120095 0.00447341)
(0.00208954 -0.0123791 0.00457395)
(0.00202187 -0.0121743 0.00461716)
(0.00190868 -0.0121227 0.00459456)
(0.00182751 -0.0118939 0.00445914)
(0.00194434 -0.0124744 0.0048043)
(0.00213991 -0.0126942 0.00473943)
(0.00170507 -0.0116148 0.00428734)
(0.00168853 -0.0123183 0.00450539)
(0.00185181 -0.0118726 0.00429589)
(0.00211309 -0.0118545 0.0043852)
(0.00170281 -0.0120218 0.00433003)
(0.00196768 -0.011966 0.00450152)
(0.0020615 -0.0119303 0.00436687)
(0.00207997 -0.011973 0.00450291)
(0.00194182 -0.0118213 0.00451311)
(0.00191263 -0.0119538 0.00447808)
(0.0020843 -0.0120598 0.00442727)
(0.00212289 -0.0120694 0.00459002)
(0.00183648 -0.0116156 0.00432917)
(0.00195827 -0.0120331 0.00440262)
(0.00206552 -0.0119636 0.00438886)
(0.00215263 -0.0121886 0.00450847)
(0.00199611 -0.0118034 0.00443568)
(0.00200646 -0.0121898 0.00452784)
(0.00215882 -0.012493 0.00452611)
(0.00220003 -0.0121902 0.00446243)
(0.00225549 -0.0122405 0.00453139)
(0.00203573 -0.0117858 0.00441405)
(0.00182924 -0.0120104 0.00440206)
(0.00180462 -0.0121921 0.00451521)
(0.00191842 -0.0118813 0.00453959)
(0.00182234 -0.0120002 0.00446711)
(0.00180011 -0.0114755 0.00426825)
(0.00189603 -0.0122723 0.0046346)
(0.00186597 -0.0115482 0.00418908)
(0.0019109 -0.0116682 0.00442571)
(0.00209758 -0.0114816 0.00437084)
(0.00187008 -0.0115909 0.00433704)
(0.00195043 -0.0116486 0.00428498)
(0.00186963 -0.0111781 0.00415618)
(0.00177918 -0.0108572 0.0039434)
(0.00178054 -0.0115121 0.00420339)
(0.00210436 -0.0114357 0.00431671)
(0.00191678 -0.0114667 0.00419476)
(0.00185106 -0.0112952 0.0040078)
(0.00179852 -0.0112301 0.0039649)
(0.00160257 -0.0114073 0.00393604)
(0.00180716 -0.0110605 0.00424147)
(0.00190492 -0.0117986 0.0046788)
(0.00201919 -0.011042 0.00395749)
(0.00189462 -0.0113316 0.00432806)
(0.00190248 -0.0115315 0.00438071)
(0.00212804 -0.0116802 0.00396813)
(0.00185354 -0.0107445 0.00387717)
(0.00184403 -0.0114147 0.00434533)
(0.00200051 -0.0105508 0.00360005)
(0.00194558 -0.0113664 0.00428842)
(0.00203303 -0.0118048 0.00446079)
(0.00195676 -0.0115682 0.00428632)
(0.00193173 -0.0113243 0.00417441)
(0.00196273 -0.0117391 0.00444958)
(0.00200485 -0.0116644 0.00434855)
(0.00218469 -0.0118456 0.00415028)
(0.00192714 -0.0115386 0.00426033)
(0.00206937 -0.0119846 0.00422701)
(0.0021053 -0.0115334 0.00405467)
(0.00208806 -0.0121985 0.00427593)
(0.00186786 -0.0115225 0.00435767)
(0.00204381 -0.011835 0.00431885)
(0.00191646 -0.0114432 0.00445688)
(0.00202411 -0.0119295 0.00462966)
(0.00190452 -0.0116233 0.0043033)
(0.0019632 -0.0115693 0.00432918)
(0.00190187 -0.0113666 0.00411644)
(0.00191212 -0.0116679 0.0044916)
(0.00199389 -0.011934 0.00437008)
(0.00196806 -0.0116466 0.00424671)
(0.00208146 -0.0121806 0.00445895)
(0.001929 -0.0120369 0.00454959)
(0.00193236 -0.0120224 0.00453308)
(0.00217249 -0.0119027 0.00424379)
(0.00232683 -0.0121459 0.00437222)
(0.00201617 -0.012196 0.00441982)
(0.00220899 -0.0122071 0.00444103)
(0.0018996 -0.0119117 0.00438354)
(0.00215767 -0.0120335 0.00442314)
(0.00217008 -0.0123624 0.00447242)
(0.00213701 -0.0120478 0.0043324)
(0.00201827 -0.0119746 0.0043262)
(0.00213601 -0.0116407 0.00408731)
(0.00208409 -0.0114993 0.00411854)
(0.00219051 -0.0118499 0.00433652)
(0.00181392 -0.0116835 0.00421696)
(0.00173387 -0.0115948 0.00422579)
(0.00183547 -0.0112591 0.00433877)
(0.00205413 -0.0115016 0.00437049)
(0.00199376 -0.0119831 0.00446)
(0.00197957 -0.0118656 0.00431859)
(0.00188498 -0.0113893 0.00420248)
(0.00194929 -0.0115463 0.00423162)
(0.00206271 -0.0120399 0.00426846)
(0.00171785 -0.0112221 0.00410615)
(0.0021605 -0.0115176 0.00440255)
(0.00195004 -0.0114623 0.00428538)
(0.00211601 -0.0117633 0.00433949)
(0.00218131 -0.0116928 0.00383786)
(0.00212101 -0.0117191 0.0043597)
(0.00203618 -0.0117939 0.00448523)
(0.00199597 -0.0113186 0.00411646)
(0.002124 -0.0113431 0.00399719)
(0.00206296 -0.0116249 0.00428877)
(0.00195023 -0.0116041 0.00430877)
(0.00195309 -0.0116323 0.0043145)
(0.00188442 -0.0115435 0.00431357)
(0.0018993 -0.0114489 0.00422814)
(0.00210017 -0.0117266 0.00427558)
(0.00199343 -0.0114893 0.0043086)
(0.00208166 -0.0114139 0.00426837)
(0.00177887 -0.0116601 0.00408319)
(0.0020083 -0.0117843 0.00439143)
(0.00182415 -0.0113118 0.00403251)
(0.00179537 -0.011966 0.00425528)
(0.00179787 -0.0114527 0.00405513)
(0.00188229 -0.0126131 0.0044481)
(0.00203712 -0.0112849 0.0043945)
(0.00191554 -0.0114718 0.0041239)
(0.00201934 -0.0117005 0.00452036)
(0.00177765 -0.0114711 0.00375644)
(0.00195485 -0.012293 0.00425211)
(0.0017012 -0.0119429 0.00382682)
(0.00215153 -0.0115417 0.00452125)
(0.00186889 -0.011518 0.00436201)
(0.00185813 -0.0117137 0.00393749)
(0.00171518 -0.0114353 0.00409274)
(0.00188501 -0.0113354 0.00425964)
(0.00175322 -0.0112339 0.00394068)
(0.00190225 -0.0114606 0.00413323)
(0.0020105 -0.0114441 0.00440391)
(0.00221958 -0.0122933 0.00437292)
(0.0022064 -0.0118924 0.00429729)
(0.00207975 -0.0117258 0.00429497)
(0.00201727 -0.012002 0.00439231)
(0.00200339 -0.0117322 0.00442041)
(0.00205836 -0.0122033 0.00462411)
(0.00212308 -0.0120456 0.00438583)
(0.00223139 -0.0124237 0.00458417)
(0.00195126 -0.0118744 0.00440581)
(0.00190132 -0.0116701 0.0044376)
(0.00182568 -0.0121061 0.00433646)
(0.00204168 -0.0120206 0.00438302)
(0.001873 -0.0118965 0.00445112)
(0.00222338 -0.0121705 0.00446212)
(0.00200491 -0.0120678 0.00446129)
(0.00191229 -0.0119304 0.00436568)
(0.00193965 -0.0118436 0.0045637)
(0.00193491 -0.0119341 0.00435597)
(0.00202565 -0.0122407 0.00444684)
(0.0021374 -0.0120177 0.00443637)
(0.00191432 -0.0119386 0.00443223)
(0.00173501 -0.0119563 0.00459591)
(0.0017999 -0.0116106 0.00436401)
(0.00217477 -0.012705 0.00476475)
(0.00188779 -0.0119571 0.00458184)
(0.00209654 -0.0125245 0.00471112)
(0.00195857 -0.0119374 0.00450516)
(0.00193799 -0.0122036 0.00450712)
(0.00188364 -0.0115401 0.00423906)
(0.00194792 -0.0127893 0.00466301)
(0.00205364 -0.0126621 0.00462173)
(0.00181512 -0.0117117 0.00428794)
(0.00184883 -0.0119075 0.00449304)
(0.00207869 -0.0122419 0.00458438)
(0.00174976 -0.0115926 0.00418313)
(0.0018599 -0.0115902 0.00437123)
(0.00184654 -0.0114971 0.00430806)
(0.00195612 -0.0115958 0.00433467)
(0.00182607 -0.0122056 0.00429574)
(0.00190278 -0.0114274 0.00427647)
(0.00185499 -0.0117984 0.00444345)
(0.00189728 -0.0116789 0.0043582)
(0.00171657 -0.0117341 0.00410236)
(0.00182554 -0.0117052 0.00431353)
(0.00206193 -0.0120066 0.00452526)
(0.00241533 -0.0124549 0.00453132)
(0.0018929 -0.0118794 0.0045394)
(0.00214581 -0.011371 0.00410099)
(0.00215527 -0.0115725 0.00423747)
(0.00207938 -0.0114836 0.00427451)
(0.00195819 -0.0116452 0.00422871)
(0.00207634 -0.012263 0.00428785)
(0.00222792 -0.0123848 0.00437461)
(0.00214958 -0.0122111 0.0043324)
(0.00209141 -0.011564 0.00425519)
(0.00212103 -0.0118834 0.00407127)
(0.00201401 -0.0116579 0.00405848)
(0.00189429 -0.0118325 0.00444925)
(0.00183457 -0.0116119 0.00440233)
(0.0021465 -0.0115954 0.00410047)
(0.00223539 -0.0117794 0.00390859)
(0.00191771 -0.0119775 0.00428923)
(0.00235351 -0.0122209 0.00393041)
(0.00227722 -0.0122265 0.00419899)
(0.00199496 -0.0117812 0.00420913)
(0.00198722 -0.0114694 0.00399246)
(0.00212067 -0.0115932 0.00387678)
(0.00204822 -0.0114322 0.00387363)
(0.00210058 -0.0120006 0.00426395)
(0.00203706 -0.0117584 0.00429454)
(0.00198412 -0.0113041 0.00397176)
(0.00192014 -0.0113921 0.00414746)
(0.00189621 -0.0112165 0.0039306)
(0.00203501 -0.0116378 0.00424093)
(0.00201797 -0.0116656 0.0040495)
(0.00182335 -0.012087 0.00456795)
(0.00212143 -0.0120294 0.00455369)
(0.00222256 -0.0117653 0.00410009)
(0.00207193 -0.0119821 0.00435303)
(0.00195995 -0.0123278 0.00453867)
(0.00205921 -0.0121989 0.00442657)
(0.00203631 -0.0119941 0.0044031)
(0.00201333 -0.0122868 0.00450969)
(0.00215144 -0.0121406 0.00435255)
(0.00205887 -0.0120887 0.00441114)
(0.00209634 -0.0116937 0.00414741)
(0.00210105 -0.0115881 0.00409198)
(0.00179156 -0.011335 0.00405041)
(0.00212488 -0.0118644 0.00412005)
(0.00211963 -0.0117478 0.00410332)
(0.00196468 -0.0113781 0.00390901)
(0.00204975 -0.0113517 0.00411413)
(0.00185107 -0.0112086 0.0040664)
(0.00195694 -0.0112265 0.00405038)
(0.00181069 -0.0112307 0.00425191)
(0.00196061 -0.0111489 0.00428092)
(0.00210937 -0.0116701 0.00394072)
(0.00210655 -0.0116628 0.00409776)
(0.00191341 -0.0114337 0.00419194)
(0.00202051 -0.0114734 0.00425214)
(0.0020107 -0.0113454 0.00419993)
(0.00202267 -0.011986 0.00441033)
(0.00159591 -0.0110359 0.00402624)
(0.00194036 -0.0113533 0.00425013)
(0.00201786 -0.011191 0.00419335)
(0.00182697 -0.0116836 0.00455297)
(0.00205819 -0.0120955 0.00458368)
(0.00203914 -0.0122503 0.00458467)
(0.00204578 -0.0116756 0.00393692)
(0.00205344 -0.0123762 0.00441582)
(0.00202476 -0.0122318 0.0043546)
(0.00199039 -0.0117873 0.00423601)
(0.00200282 -0.0123533 0.00408026)
(0.0021083 -0.0118532 0.00395638)
(0.00208974 -0.0118381 0.00400122)
(0.00188802 -0.011525 0.00407594)
(0.00192958 -0.0105611 0.00393888)
(0.00194589 -0.0106786 0.00402907)
(0.00185437 -0.0107657 0.00400845)
(0.00216549 -0.0110667 0.00412084)
(0.00217849 -0.0117829 0.00432912)
(0.00211286 -0.0116439 0.00423543)
(0.00213593 -0.0115974 0.00436799)
(0.00203007 -0.0116029 0.00431113)
(0.00210481 -0.011561 0.00421736)
(0.00196888 -0.0117454 0.00434042)
(0.00209917 -0.011903 0.00435568)
(0.0018796 -0.0112537 0.00415313)
(0.00181846 -0.0114101 0.0042869)
(0.00193752 -0.0112927 0.0039868)
(0.00194699 -0.0113888 0.00416674)
(0.00196511 -0.0117913 0.00440317)
(0.00189743 -0.0117602 0.00458747)
(0.00185469 -0.0117478 0.00434722)
(0.00226561 -0.0118159 0.00413992)
(0.00205288 -0.0110193 0.00393057)
(0.00205532 -0.0112032 0.00418914)
(0.00202667 -0.0111408 0.00393754)
(0.00186947 -0.0113784 0.00420767)
(0.00210033 -0.0119217 0.0046023)
(0.00206739 -0.0119658 0.00442564)
(0.00200758 -0.0117444 0.00419264)
(0.00193816 -0.0116073 0.00408492)
(0.00190916 -0.0112105 0.0042438)
(0.00185327 -0.0117443 0.00420825)
(0.00201809 -0.0117282 0.00431204)
(0.0022243 -0.012072 0.00448957)
(0.00227638 -0.0121018 0.00457781)
(0.00186623 -0.0117487 0.00419183)
(0.00185421 -0.0116164 0.00421211)
(0.00191842 -0.0120626 0.0042857)
(0.00190157 -0.0120159 0.00410202)
(0.00179603 -0.0115651 0.00425247)
(0.001847 -0.0121358 0.00434969)
(0.00214089 -0.0122778 0.00447918)
(0.00191283 -0.011847 0.00427882)
(0.00193487 -0.012326 0.00439383)
(0.00187863 -0.0124956 0.0045205)
(0.0019716 -0.0120587 0.00450699)