/*--------------------------------*- C++ -*----------------------------------*\
| =========                 |                                                 |
| \\      /  F ield         | OpenFOAM: The Open Source CFD Toolbox           |
|  \\    /   O peration     | Version:  v1612+                                |
|   \\  /    A nd           | Web:      www.OpenFOAM.com                      |
|    \\/     M anipulation  |                                                 |
\*---------------------------------------------------------------------------*/
FoamFile
{
    version     2.0;
    format      ascii;
    class       surfaceScalarField;
    location    "50";
    object      phi;
}
// * * * * * * * * * * * * * * * * * * * * * * * * * * * * * * * * * * * * * //

dimensions      [0 3 -1 0 0 0 0];

internalField   nonuniform List<scalar> 
37455
(
-1.00251e-08
-5.85122e-09
6.73159e-09
9.14471e-09
4.04243e-10
-5.85623e-09
-1.77497e-10
5.6295e-09
2.69268e-10
-3.39242e-09
4.32426e-09
-1.20117e-09
-8.81354e-09
2.27271e-09
1.11942e-09
5.4214e-09
-3.49397e-09
-1.45385e-09
3.08396e-09
1.86386e-09
3.91058e-09
-1.971e-09
2.59561e-09
-1.38881e-10
-3.9954e-09
9.6456e-10
1.47941e-09
1.55143e-09
3.04737e-09
-1.89257e-09
6.16784e-09
-1.11733e-11
-3.1093e-09
3.11947e-09
4.01293e-09
2.181e-09
1.83756e-09
2.72581e-09
5.24372e-09
-2.61012e-09
-2.64477e-09
5.04085e-10
7.8591e-09
3.68909e-09
-6.49956e-10
-4.43523e-10
6.03074e-09
3.61581e-09
-8.68094e-09
7.80394e-10
4.28474e-09
3.66667e-09
-5.31101e-09
5.26015e-09
4.35184e-09
5.77964e-09
-2.64191e-09
-7.48957e-09
2.94956e-09
-7.27866e-09
2.07829e-09
-7.24936e-09
2.7881e-09
2.38296e-09
1.06345e-09
-3.63629e-09
4.65114e-09
7.34165e-09
-2.61152e-09
3.20717e-09
3.35287e-09
-2.22889e-09
-1.3256e-10
3.56468e-09
-1.62605e-09
-6.02988e-09
4.09125e-09
-2.18887e-09
-1.49581e-09
-5.87128e-09
5.44216e-09
4.58604e-09
-8.854e-09
-3.47411e-09
-1.01768e-08
-1.18489e-09
5.51531e-09
5.84638e-09
-1.92879e-09
-4.20728e-09
-4.04073e-09
-1.36337e-08
6.54215e-09
5.90668e-09
4.39267e-11
5.66302e-09
-1.91634e-10
5.55513e-09
-4.92819e-09
-2.55573e-09
-5.25982e-09
6.68471e-09
4.13025e-09
5.49323e-09
-3.85389e-09
-6.56754e-09
4.24345e-10
-1.90934e-10
-4.78333e-10
6.12031e-09
-5.43297e-09
-2.09002e-10
-4.3303e-09
-1.91574e-12
5.34056e-09
5.9025e-09
-5.12275e-09
5.92595e-09
-1.61037e-10
-6.07473e-09
5.60988e-09
6.3908e-09
-8.46959e-10
6.74735e-10
-2.23415e-10
6.95205e-09
-1.64159e-11
5.40288e-09
5.74917e-09
4.50402e-10
-7.04653e-09
-7.42422e-09
-5.55178e-09
4.16246e-09
-6.10446e-10
-6.85604e-09
2.7818e-09
4.68468e-09
-8.18943e-09
1.36337e-09
-5.98159e-10
-5.81533e-09
6.36631e-10
5.33435e-09
-1.55643e-10
7.62086e-09
8.58525e-10
-3.95882e-09
-4.52057e-09
5.39314e-09
-8.41125e-09
-5.17131e-09
-1.461e-10
-1.25431e-11
3.89274e-09
-4.44186e-09
-5.26622e-09
-5.04774e-12
3.75169e-09
-6.59751e-09
1.95709e-09
4.02997e-09
-5.12577e-10
-1.05268e-08
-6.80635e-09
-2.02577e-09
3.66529e-10
8.4656e-09
-6.83031e-09
1.03874e-09
-1.01478e-09
-6.74809e-09
-1.2362e-09
5.95852e-09
1.08028e-09
-4.63956e-09
-3.18881e-09
-3.9693e-09
-1.78074e-09
-5.15006e-09
-1.36095e-09
6.87754e-09
-4.79874e-09
6.87419e-10
-6.17925e-09
6.87925e-10
4.25512e-09
-1.84108e-09
-2.9635e-09
-1.37466e-09
-4.71986e-11
-3.74026e-09
3.5996e-09
1.8786e-10
-4.09622e-09
7.97259e-11
-1.37142e-09
5.9843e-09
-6.05293e-09
-1.77246e-09
4.93163e-09
-5.32201e-09
6.37468e-09
-2.94236e-09
-4.6607e-09
4.2586e-09
4.97774e-11
-1.24891e-09
-3.97221e-09
-1.30002e-09
-2.5688e-09
-1.01585e-09
-5.74693e-09
6.24818e-09
5.14604e-10
-6.15267e-09
6.18973e-09
-1.05292e-09
-3.73824e-09
-1.228e-09
-7.80685e-10
-2.85651e-09
-7.03439e-09
-2.67811e-09
1.32418e-09
7.60211e-09
-9.80559e-12
3.52143e-09
4.27887e-09
-9.21143e-09
2.07605e-09
2.24572e-09
-5.24675e-09
2.99123e-09
-2.89903e-09
4.22445e-09
3.68707e-09
-5.01249e-09
1.66186e-09
-4.33002e-09
-2.30874e-10
1.59027e-09
-4.57988e-09
5.23533e-09
7.1389e-09
2.95945e-09
-3.92732e-09
4.14268e-11
1.43082e-09
-7.34213e-09
1.82535e-09
4.08596e-09
-8.12619e-09
3.38071e-09
6.1763e-09
2.67621e-10
-4.37015e-09
-4.02366e-09
-3.71023e-09
-3.36428e-09
6.25479e-10
-3.42775e-09
4.62763e-09
-4.08251e-09
8.0887e-09
-9.36244e-09
5.41253e-09
-4.02797e-09
7.97789e-09
5.024e-10
-5.72614e-09
-4.1387e-09
-1.92872e-09
6.7414e-09
-4.50247e-09
-3.10219e-10
-4.65648e-09
-1.64239e-09
-5.61258e-09
8.27148e-09
-6.32407e-09
8.30885e-09
-3.27641e-09
-2.54526e-09
-4.25503e-09
-1.80018e-09
2.02724e-09
-5.84944e-09
-4.13173e-09
-3.82952e-09
3.64043e-09
-4.31338e-09
-1.41153e-09
-3.35256e-09
-3.63408e-09
-3.79161e-09
1.29811e-09
6.93333e-10
-2.39583e-09
-6.74046e-10
-7.31451e-09
3.17293e-09
8.61053e-10
3.28053e-09
4.22276e-09
-3.48477e-09
-8.0525e-09
-4.48896e-09
-2.63598e-09
3.00335e-09
4.12158e-09
1.18647e-09
-3.43689e-09
-2.23853e-09
-8.20061e-09
8.32795e-09
3.04559e-09
-2.79139e-09
5.02083e-09
-2.67435e-09
2.14837e-09
-4.49484e-09
2.86379e-09
3.01809e-09
-2.47019e-09
3.36872e-09
1.96526e-09
-3.40239e-09
1.62251e-09
-6.90318e-10
2.75646e-09
-1.5731e-09
-4.62026e-09
7.56654e-10
-6.36166e-10
-7.73222e-09
-4.97364e-10
3.19866e-09
4.24112e-09
-1.88937e-09
-5.55041e-09
6.61896e-10
6.58785e-09
-4.05109e-09
2.97196e-09
5.47343e-09
-2.11541e-09
-6.32998e-09
7.31718e-09
-3.68333e-09
-3.08367e-09
5.97058e-09
3.70094e-09
1.58671e-09
-4.29262e-10
-3.08609e-09
-8.49747e-10
3.8499e-09
8.59455e-11
-3.77043e-09
1.42739e-09
-7.43055e-10
-1.63327e-09
7.92966e-09
-8.22957e-10
9.41633e-09
-3.73242e-09
3.78126e-09
-7.78604e-09
-2.23387e-09
5.01562e-11
-1.09618e-09
6.21702e-09
-6.33392e-10
1.75374e-09
-9.40978e-09
8.28943e-09
4.37875e-09
-4.29158e-09
-3.13006e-09
3.04289e-09
7.68676e-09
1.08973e-08
-1.95237e-09
-4.56622e-09
-2.74419e-09
-3.14916e-09
-9.16066e-09
1.19406e-08
3.69259e-10
-1.13482e-08
1.19745e-08
-3.77555e-09
9.6536e-10
1.40808e-09
-1.37216e-08
1.8681e-09
-1.00634e-08
-9.23083e-09
-1.78027e-09
1.4039e-09
9.6072e-09
-7.86166e-09
2.08703e-10
-1.57787e-09
-8.54887e-10
1.10492e-08
1.23802e-09
9.84765e-09
-8.2169e-09
1.76332e-09
-8.85873e-09
-9.90167e-10
1.12528e-08
-7.50592e-09
-1.1441e-09
8.72691e-09
-8.15557e-09
1.29676e-09
-7.0942e-09
8.51606e-09
-8.92778e-09
4.50388e-09
1.75454e-09
-1.33526e-08
-7.96978e-09
8.21764e-09
5.26101e-09
-1.48728e-08
5.38806e-09
4.89843e-09
4.58634e-09
-2.63677e-09
9.75699e-10
-1.32117e-08
1.3946e-08
-3.72205e-10
-1.62106e-08
7.89117e-09
-6.58838e-10
-6.25663e-09
6.62957e-09
6.64966e-09
-7.61032e-09
5.79299e-09
-8.4495e-09
1.02668e-08
-4.10728e-11
-7.91257e-09
3.43324e-10
-1.59563e-08
1.00822e-08
1.07725e-08
3.93036e-09
-5.94062e-09
-9.77498e-09
1.4088e-08
-3.82708e-10
-8.39626e-09
6.35352e-09
-7.73223e-09
1.59644e-09
-1.03649e-08
-6.36031e-09
-3.12007e-10
1.24653e-08
2.28191e-10
6.62445e-09
-5.68684e-09
-5.20673e-09
-3.07413e-09
-1.68638e-10
-6.49485e-09
-1.65687e-09
9.29763e-09
6.4473e-09
1.62253e-09
1.90678e-08
5.97278e-09
6.20614e-09
-2.97554e-09
-9.20338e-09
1.00088e-11
6.06023e-09
-9.74485e-11
4.14899e-09
-3.46039e-09
3.42707e-09
-4.11567e-09
4.19968e-09
-4.06652e-11
6.32295e-09
3.92704e-09
-4.04382e-09
5.40374e-09
6.97945e-09
-9.07397e-09
2.63804e-09
-2.66476e-09
3.80635e-09
3.0581e-09
8.70391e-10
-1.08079e-10
-1.28335e-09
3.94711e-10
4.8157e-09
-2.61387e-09
7.86052e-09
-1.44028e-09
4.02958e-09
-3.17807e-09
1.8892e-11
-3.16417e-09
4.57988e-09
1.48268e-10
-4.59578e-09
7.63327e-09
-5.43028e-09
-2.8407e-09
6.37708e-10
-4.41129e-09
6.99848e-09
5.04609e-09
8.87144e-10
5.98978e-09
-5.02239e-10
-7.85957e-11
-4.08768e-09
5.05342e-09
2.94618e-09
-4.30302e-09
-4.07343e-09
-9.97762e-10
-4.67353e-10
-2.68679e-09
1.09465e-08
-1.26123e-09
5.68523e-09
4.56315e-09
-3.03446e-09
6.38028e-09
3.88498e-09
-7.23081e-09
6.29035e-11
5.74908e-09
-5.39843e-10
-5.27214e-09
5.02664e-09
-4.43422e-09
-5.2952e-10
-3.59315e-09
-7.88468e-10
4.83782e-09
-8.08937e-10
-2.71128e-09
4.86231e-09
-2.39786e-10
2.89056e-09
2.79802e-09
2.83501e-09
2.77341e-11
-5.91181e-09
3.04907e-09
2.81875e-09
-5.89702e-09
5.91328e-09
7.69253e-10
-2.97538e-09
-4.02632e-09
6.23244e-09
-4.39735e-09
7.98535e-09
-6.18897e-09
3.24132e-09
3.535e-09
-3.68008e-09
-5.76674e-09
-2.2281e-09
-1.33917e-10
-3.56004e-09
6.86151e-09
-2.29995e-09
-1.00152e-09
5.17706e-09
-1.26663e-09
-7.47047e-09
1.42713e-09
-8.78001e-09
3.32656e-09
-8.82051e-09
5.85029e-09
-6.48363e-09
7.15617e-09
3.78786e-09
-5.09443e-09
3.53185e-09
-8.76178e-09
3.9633e-09
-4.49815e-09
-8.49698e-09
4.17462e-09
-6.30061e-09
-4.25647e-10
-5.2804e-10
-4.46411e-09
-4.115e-09
-4.91002e-09
-6.88376e-09
-4.70911e-09
-4.27721e-09
-1.13762e-09
1.01239e-08
-7.73082e-09
-2.33504e-09
5.35675e-09
3.96695e-09
-8.29826e-09
3.43748e-09
8.9382e-10
-6.5513e-09
6.24104e-09
-5.16482e-09
-6.49963e-09
3.93364e-09
1.99641e-09
-6.50635e-09
-6.54884e-10
-4.21022e-09
-3.4467e-10
-2.63602e-09
-7.56067e-09
1.89844e-09
-6.19188e-09
-6.54363e-10
-4.06537e-09
7.71747e-09
-4.78972e-09
-8.92823e-09
2.52782e-09
1.3058e-08
7.9627e-10
-1.33316e-08
-5.22654e-10
8.55289e-09
3.85251e-09
6.52608e-10
6.31731e-10
-6.91941e-09
-2.11952e-10
5.0558e-10
-6.3802e-09
-2.95582e-10
-2.83891e-10
-6.9812e-09
-5.98188e-09
9.24558e-09
-8.7332e-09
9.24678e-09
8.55169e-09
4.14722e-09
-9.22295e-09
-2.28889e-09
-8.3316e-09
2.03422e-09
4.05098e-09
-6.31579e-09
-2.41695e-11
-1.79517e-09
9.92688e-11
-2.56862e-09
-8.45967e-10
-4.91705e-09
-3.3677e-09
-5.51674e-09
-5.81068e-09
-4.30897e-11
1.80238e-10
4.01615e-09
-9.7894e-09
-4.54393e-09
-5.56125e-09
-7.73139e-09
3.52815e-09
4.1629e-09
3.27241e-09
-1.09635e-08
-5.07033e-09
-7.5391e-09
2.61211e-09
9.99732e-09
-3.60033e-09
2.05814e-09
-4.00224e-09
-7.13719e-09
3.00934e-09
9.22869e-09
-8.07513e-09
1.41652e-09
7.35825e-09
-5.70801e-09
-3.06676e-09
7.32285e-09
-3.87409e-09
-2.03224e-09
5.29916e-09
9.38195e-09
1.09206e-08
6.0801e-09
8.15981e-09
7.05202e-10
-1.49451e-08
2.8008e-09
1.21429e-08
-8.86364e-09
-1.35509e-08
1.73762e-09
5.71639e-09
6.09687e-09
-1.35676e-08
8.17656e-09
6.99577e-09
9.43077e-09
-1.57213e-08
1.52584e-09
2.093e-08
-1.546e-08
1.1483e-08
-7.15639e-09
7.88059e-09
8.90217e-09
-1.50451e-08
8.27186e-09
9.58748e-09
1.36483e-08
-6.15095e-09
1.93339e-09
-1.00124e-08
8.81267e-09
1.26828e-08
3.83769e-09
7.07985e-09
8.46974e-09
9.01629e-09
1.89038e-09
1.446e-08
1.89749e-08
-4.79443e-09
-1.08933e-08
-3.64478e-09
1.94923e-09
-4.23367e-09
1.65794e-09
-1.00972e-08
4.44899e-09
-8.35562e-09
7.01525e-09
-6.17034e-10
-9.57368e-09
-5.51496e-09
2.45186e-09
-4.94746e-09
8.01057e-09
2.33898e-09
-7.39853e-09
-4.5541e-10
6.82312e-09
-3.54761e-09
-8.23648e-10
1.58816e-09
9.63588e-09
-4.40092e-09
1.30004e-09
-2.50867e-09
1.07974e-09
-3.83983e-09
7.04483e-09
6.02077e-09
-6.50684e-09
5.50607e-09
-2.83905e-09
3.08732e-09
-7.23586e-09
-2.3583e-09
2.52936e-09
-6.7207e-09
-3.66017e-09
-1.35566e-08
-4.99855e-09
1.91677e-09
1.66386e-08
-1.54265e-09
-1.72087e-08
5.19472e-09
-1.02223e-08
-1.5754e-08
2.35566e-08
2.41964e-09
1.5743e-08
-1.63006e-08
-9.66464e-09
-1.68642e-08
-4.79228e-09
1.66581e-08
3.12995e-09
-4.25119e-09
1.72759e-08
-8.15123e-09
1.10862e-08
-2.02109e-08
7.3166e-09
1.44835e-08
-4.52422e-09
-1.13021e-08
6.5589e-09
-1.10107e-08
-2.82104e-09
-2.47817e-08
-1.62575e-08
-3.52086e-09
2.16951e-08
-2.26075e-08
4.80744e-09
-1.10972e-08
-2.98151e-09
1.34122e-08
-1.27783e-08
-1.1731e-08
-1.87873e-09
1.52227e-09
1.72422e-08
-2.37506e-08
1.34651e-08
3.92411e-09
-6.30296e-09
1.911e-08
8.83861e-09
1.73876e-08
-6.90453e-09
4.7818e-09
1.41281e-08
2.03709e-08
7.66571e-09
-1.66003e-09
-7.23668e-09
1.23101e-09
3.65773e-09
-7.10873e-09
1.11167e-08
-1.5623e-08
7.69874e-09
1.35067e-08
-5.5824e-09
-8.51267e-09
-1.42526e-09
1.35957e-08
6.78296e-10
-1.0851e-08
9.00763e-09
-8.75353e-09
-7.49078e-09
4.29425e-09
-2.39536e-09
5.60719e-09
-4.38049e-09
-9.29592e-09
8.06921e-09
-4.27417e-09
1.12783e-09
6.18027e-09
8.05848e-09
-1.86192e-08
8.81355e-09
-6.90745e-09
-4.01462e-09
-7.68141e-09
-3.92701e-09
-7.66372e-09
1.24626e-08
-1.4869e-08
2.11425e-08
1.02296e-08
-9.85258e-09
-3.06734e-09
-1.57205e-09
2.22731e-08
-6.37632e-09
-5.863e-09
-1.00338e-08
5.40328e-09
6.5308e-09
1.03389e-08
-1.09682e-08
1.2542e-08
-7.9502e-09
1.61749e-08
-7.52822e-09
-1.45097e-08
-5.6317e-09
1.18367e-08
-1.71733e-08
-1.7887e-08
1.00061e-08
1.32842e-08
-1.03019e-08
4.95688e-09
2.51441e-08
1.02369e-08
-1.92062e-08
1.51814e-08
1.64935e-08
6.1764e-09
-1.93364e-08
5.89242e-09
-4.35756e-09
-3.19255e-09
6.06263e-09
7.13616e-09
6.55679e-09
-1.30847e-08
3.33536e-09
1.86629e-08
-2.02024e-09
-6.4058e-09
-5.20742e-09
-7.84097e-09
1.91111e-08
1.3594e-08
-1.22446e-08
1.22195e-08
4.81202e-09
1.63126e-09
1.95599e-08
1.2814e-08
9.45303e-09
-1.60907e-08
-4.8616e-09
-2.33078e-09
1.81928e-08
-7.39909e-09
6.50618e-09
-1.91478e-09
8.2436e-09
1.64553e-08
8.33022e-09
-1.02007e-09
4.55272e-09
-1.18629e-08
6.61823e-09
-6.07392e-09
7.7859e-09
1.72756e-09
-7.19047e-09
-7.93706e-10
-6.60674e-10
9.00647e-09
-1.10448e-08
2.83431e-09
-5.5631e-09
7.76934e-10
-1.28775e-09
1.55242e-09
-5.51104e-09
3.16493e-09
-5.05026e-09
5.942e-09
-4.68862e-09
-2.43602e-11
-6.33187e-09
-7.15742e-09
1.17399e-09
4.20337e-10
-8.76956e-09
7.45852e-09
-1.21409e-09
-6.35503e-09
2.05808e-09
-5.76142e-09
-5.0292e-10
1.07558e-09
-6.55409e-09
4.25875e-09
-4.05969e-09
2.03573e-10
5.52918e-09
-3.33872e-10
3.14977e-09
-1.16922e-08
8.87634e-09
-1.22413e-08
8.85828e-09
3.04919e-09
-7.20882e-09
1.77902e-09
8.57958e-09
-5.97805e-09
6.37505e-10
-1.86828e-09
-1.7699e-09
-1.15833e-08
1.66091e-09
-1.34751e-08
-5.36161e-10
-1.25836e-08
-9.73021e-10
1.97341e-09
3.84406e-09
-1.27755e-08
-3.65222e-09
1.12408e-08
-2.20037e-09
-7.26144e-09
-9.07806e-09
-5.52948e-10
3.87561e-10
-7.33863e-09
-1.15174e-08
4.62639e-09
3.87902e-09
3.012e-09
-3.17761e-09
-1.35256e-08
5.18577e-09
-9.2229e-09
-2.68771e-10
6.31406e-09
4.50026e-10
-3.39161e-09
7.56798e-09
9.64538e-09
1.00855e-08
-1.58518e-08
-2.19696e-09
1.21999e-09
7.65089e-09
-6.67391e-09
-1.07064e-09
-8.22162e-09
7.0953e-09
7.41663e-09
1.46602e-09
-6.11985e-09
-2.76281e-09
8.82767e-09
5.67972e-09
-7.09075e-09
9.25543e-10
-7.44697e-09
8.57325e-09
-2.05182e-09
-8.38582e-09
1.07774e-08
1.9089e-09
8.32129e-09
-1.13008e-08
-4.41317e-09
-3.52562e-09
-2.82829e-10
5.56855e-09
-7.77944e-09
1.70825e-09
5.02653e-10
6.02186e-09
2.58359e-10
-7.11671e-10
1.58264e-09
9.15394e-09
-6.15712e-09
8.95975e-09
-6.81023e-09
1.5716e-09
1.27284e-10
5.11135e-09
-8.37344e-09
8.15365e-09
-6.59044e-09
1.43634e-09
-8.35345e-09
-6.1736e-09
8.03126e-09
6.49576e-09
-9.05528e-09
1.76763e-09
-1.06579e-09
8.17687e-09
2.47844e-09
-7.17099e-09
-3.48435e-09
-1.89652e-10
2.1929e-09
-5.70417e-09
-8.7266e-10
2.43026e-09
-1.47968e-09
-8.12158e-09
1.24666e-09
-4.52057e-09
-2.8118e-09
-8.70952e-09
1.2768e-08
1.29341e-08
-3.1363e-09
-1.26096e-08
-6.1394e-10
-9.49686e-09
5.13604e-09
4.97473e-09
4.01501e-09
4.7886e-09
-9.4176e-09
2.82758e-09
3.02203e-09
7.08447e-09
7.95637e-09
-1.25724e-08
-1.13885e-08
4.71915e-09
-1.16746e-08
8.24253e-09
4.46068e-09
-1.10869e-08
4.40966e-09
2.21652e-09
-1.65361e-08
1.17008e-08
1.0248e-08
-8.60149e-09
-1.27334e-08
8.60304e-10
-7.14836e-09
-9.76119e-09
-4.0595e-10
2.48889e-09
7.67826e-09
5.39713e-09
-1.4259e-08
2.54568e-09
6.31619e-09
1.27603e-08
-2.94163e-10
-8.05649e-09
-7.586e-09
1.37225e-08
6.62386e-09
8.16315e-09
-7.16043e-09
4.39441e-09
-2.5539e-09
2.86904e-09
-1.00763e-08
3.89302e-09
2.44787e-09
1.07451e-08
-1.7086e-08
1.13459e-08
-1.50388e-08
6.85983e-09
-1.25058e-09
-1.40172e-08
1.12749e-08
5.19021e-09
-2.3656e-09
-4.79183e-09
4.66418e-09
1.06906e-08
-7.20104e-09
-8.15373e-09
1.36936e-08
-5.94073e-09
-3.08873e-09
-1.04504e-08
7.85059e-09
1.62935e-08
4.03905e-10
-1.63713e-10
5.48784e-09
-5.34249e-10
-1.21546e-08
-5.71174e-09
5.25885e-09
-2.48278e-10
-7.75906e-09
9.69101e-09
-4.77057e-10
8.18118e-09
-1.38651e-08
-1.12368e-08
-2.2e-09
4.15757e-09
9.27929e-09
7.26985e-10
-7.90032e-10
-9.23167e-10
-1.21519e-08
5.96406e-09
-1.44291e-08
7.93079e-09
-3.7432e-09
-2.69e-09
1.3922e-08
-7.48877e-09
-9.05969e-09
-1.03894e-09
9.30861e-09
-6.83883e-09
-5.57798e-09
7.43109e-09
-1.28293e-09
-5.70183e-10
4.65924e-09
-3.36024e-09
-6.87698e-09
-1.11503e-08
1.16417e-09
2.31447e-09
7.67166e-09
-6.60011e-10
-5.83105e-09
2.0362e-09
-6.83138e-09
1.48075e-09
3.31444e-09
-7.90519e-09
3.57903e-09
6.36236e-09
5.83e-09
2.76527e-09
3.02299e-09
1.16384e-09
-7.54707e-09
3.52505e-09
-1.78499e-09
1.02013e-09
-6.9569e-09
-8.9461e-10
-7.12359e-09
2.38528e-10
-3.99712e-09
-5.24984e-09
8.58696e-09
-3.84778e-09
-7.56013e-10
1.09617e-08
-6.35792e-09
-6.83479e-09
4.46776e-09
8.65302e-09
1.67852e-09
-5.27706e-09
-1.96553e-09
-3.31286e-09
3.67077e-09
-6.50406e-09
-5.74972e-09
5.91053e-10
-1.67612e-09
-4.04448e-09
-6.23261e-09
-5.56682e-09
6.31979e-09
5.47963e-09
2.24287e-09
-5.1493e-09
-3.32617e-09
2.32921e-09
5.82775e-09
-3.13708e-09
-5.01989e-09
8.35268e-09
-3.78059e-09
-1.00079e-09
2.91044e-09
3.9181e-09
3.2372e-09
4.11469e-09
-3.63712e-09
2.57195e-09
-4.50164e-09
2.88993e-10
-9.07541e-09
-4.61665e-10
-2.73827e-09
-3.30261e-09
6.50254e-09
-3.92154e-09
-3.78388e-09
7.24376e-09
6.81873e-09
2.48268e-09
-5.33076e-09
2.20076e-09
-7.17205e-09
1.66868e-09
-6.20041e-09
4.47963e-09
-2.3394e-09
1.46596e-09
-7.89232e-10
-3.81087e-09
6.50221e-09
-4.80876e-09
-2.0376e-09
5.13697e-09
1.11408e-08
-8.96007e-09
-7.31775e-09
-5.34298e-09
1.50903e-08
-4.61031e-09
8.24092e-09
-7.57117e-09
-6.01273e-09
-2.39293e-09
7.88789e-09
5.64589e-09
8.53118e-09
4.16615e-09
-5.63762e-09
5.26529e-09
8.90351e-09
3.28006e-09
-1.27134e-08
3.79573e-09
6.16951e-09
-9.04239e-09
6.15294e-09
-2.80417e-09
-1.66832e-09
-3.30802e-09
9.65134e-09
-5.53393e-09
-8.09392e-10
1.17221e-08
-1.40138e-08
-1.01634e-09
9.90423e-09
-5.85812e-09
3.84178e-09
-2.68841e-09
1.78579e-08
-1.07982e-08
1.42793e-08
1.0892e-08
-5.02795e-09
1.27947e-08
-5.9475e-09
4.11707e-09
-3.64793e-10
4.21085e-09
1.79845e-09
8.42092e-09
1.59285e-09
-1.18122e-08
6.69786e-09
1.91376e-09
-6.81317e-09
-8.13285e-10
8.79561e-09
4.38605e-10
6.72452e-09
-8.39941e-10
1.18957e-08
4.10719e-09
-1.44101e-08
-5.46145e-09
-2.74694e-09
-1.59591e-09
9.80426e-09
-4.75843e-09
-1.61071e-09
9.07666e-10
2.0183e-09
-1.15257e-08
4.76288e-09
4.74453e-09
-8.29815e-09
5.55803e-09
-7.92107e-09
-2.20199e-09
-1.40264e-09
-9.4947e-09
1.33303e-09
9.47654e-09
1.08618e-09
7.88151e-09
2.24713e-09
7.39872e-09
-1.12793e-09
-4.52562e-09
9.17739e-09
2.27727e-09
9.93803e-09
-8.10811e-09
8.21882e-09
-4.02779e-09
-4.5302e-09
7.69716e-09
9.04183e-09
-3.02499e-09
-2.13509e-09
7.08598e-09
-2.66219e-09
7.17383e-09
5.14076e-09
-1.86633e-09
1.0862e-08
-8.3033e-09
-6.92416e-10
-1.10289e-08
1.19279e-08
-9.7572e-09
-4.9386e-09
9.85065e-09
4.84515e-09
-4.30133e-09
-1.01665e-09
-4.43923e-09
4.71207e-09
-4.43501e-09
-4.57838e-09
1.89118e-10
-4.15648e-10
-7.95935e-09
-6.17562e-09
6.52097e-09
7.614e-09
4.66714e-09
-1.76445e-09
-2.54818e-09
5.01014e-10
-8.98176e-09
-2.1758e-09
-8.67567e-09
-3.63816e-10
6.11605e-09
9.14262e-10
3.7799e-09
5.15649e-09
-8.84848e-09
4.01171e-09
5.75104e-09
-5.05343e-09
-4.8117e-09
5.17152e-09
-4.56451e-09
-4.17891e-10
-6.08925e-09
-4.38559e-09
4.88203e-09
5.59281e-09
-5.02402e-10
-5.28882e-09
-2.98023e-10
-4.96541e-09
3.66423e-09
5.08108e-09
-2.9629e-10
-9.34037e-09
4.59096e-09
-9.39728e-09
-5.23191e-09
-5.04617e-09
2.13083e-10
1.13541e-08
3.63268e-09
2.85832e-11
-7.25782e-09
1.96843e-09
-6.37486e-09
1.88679e-09
-4.48288e-09
8.75934e-09
-7.00948e-09
4.71725e-09
4.61364e-09
-3.95822e-09
-5.37267e-09
3.71625e-09
-2.34653e-09
3.34753e-09
-5.35221e-09
1.64689e-09
7.42157e-09
8.12879e-10
-1.55144e-09
-4.29696e-09
1.83029e-09
1.20149e-10
-1.28893e-09
3.37931e-09
-1.57811e-09
-9.88318e-10
1.42032e-09
1.33574e-09
-5.30047e-09
-2.19859e-09
9.14595e-09
-5.51786e-09
3.59671e-09
1.84116e-09
-1.99895e-09
5.11909e-09
-2.26787e-09
-5.04981e-09
-3.14387e-09
-5.32833e-10
2.7631e-09
1.03891e-09
5.04374e-09
-8.84574e-09
2.2394e-09
8.41744e-09
-7.89374e-09
-1.34406e-09
-4.914e-09
8.49747e-09
-4.77547e-09
4.47032e-09
-4.72634e-09
-4.00425e-09
3.95513e-09
-3.71446e-09
-5.23244e-09
4.22056e-09
4.3957e-09
1.26678e-09
-9.37694e-09
1.55234e-09
-1.16089e-09
4.12651e-09
5.42981e-09
-8.28954e-09
1.77927e-09
2.90111e-09
-5.53871e-10
5.81381e-09
-4.90767e-09
4.52367e-09
6.15538e-09
1.4377e-09
4.83038e-09
-3.76939e-10
6.07176e-09
-8.13553e-09
2.33237e-09
5.81248e-09
-9.3315e-12
-4.91354e-09
-5.10614e-09
1.88414e-09
3.79267e-09
-2.96125e-09
9.43542e-09
-5.932e-10
7.40219e-09
-3.01633e-09
-5.01817e-09
5.15026e-09
2.20028e-09
-3.36707e-09
-6.56464e-09
-1.89848e-09
-2.06179e-09
3.5338e-09
-8.39353e-09
-9.48943e-09
4.90165e-09
-1.29981e-09
4.59197e-09
4.11003e-09
3.61505e-09
-4.26444e-09
-1.20837e-08
1.75807e-09
1.45902e-08
-7.70175e-09
-2.57065e-09
6.00795e-09
-1.03997e-08
-9.38575e-09
1.04234e-08
6.57897e-09
-1.29981e-08
-4.00421e-09
-1.92262e-09
8.85636e-09
3.4896e-09
-9.60059e-09
1.33389e-08
-1.98027e-09
-6.89595e-09
1.59945e-09
1.18755e-08
-1.4114e-08
9.62067e-09
-3.8832e-09
-7.96122e-09
2.24385e-09
-9.56326e-09
-4.71965e-09
-9.80358e-09
-5.74968e-10
2.41734e-09
5.00604e-10
1.23616e-09
-1.15403e-08
-1.21809e-09
-1.36871e-09
-1.15272e-08
-1.73345e-09
-1.24828e-08
-1.04314e-08
9.23207e-09
-9.72936e-09
1.76115e-09
-4.24536e-09
1.14185e-08
-9.72e-09
2.54688e-09
-6.08142e-09
-4.09907e-09
5.93513e-09
2.8128e-09
-2.62515e-09
1.12308e-08
-5.37113e-09
1.81122e-09
-6.16009e-09
-3.60863e-10
-1.10917e-08
-9.47954e-10
1.35706e-08
-9.80987e-09
8.7069e-09
-3.56418e-09
-3.33149e-09
1.18518e-09
4.89656e-09
5.88931e-09
-5.31268e-09
-4.14081e-09
9.59414e-09
-7.4956e-09
3.79077e-09
-9.21927e-09
-3.59185e-09
1.18632e-08
-5.11044e-09
-4.23386e-10
-3.68544e-09
7.18747e-09
-5.93003e-09
-6.67601e-09
-1.16036e-08
9.34563e-09
-1.82451e-09
3.12932e-09
-1.06505e-08
4.20323e-09
6.14448e-09
-1.00208e-09
3.66543e-09
-2.28912e-09
1.23336e-08
-1.371e-08
1.14717e-08
4.403e-10
-8.24666e-09
1.02153e-08
-1.4329e-08
3.8735e-09
8.22801e-09
2.32069e-10
5.0498e-09
6.97654e-09
3.01337e-09
-6.86074e-09
1.05366e-08
6.43203e-10
7.1869e-09
6.76431e-09
-3.73592e-09
3.23419e-09
4.09905e-09
1.12701e-08
-7.81642e-09
5.03292e-09
-7.36116e-09
-1.05828e-09
-1.50144e-09
4.28658e-09
7.95998e-09
-3.80173e-09
-8.86614e-09
9.38365e-09
3.28422e-09
9.04829e-09
-1.20527e-08
-7.97346e-10
-1.34135e-08
-4.11656e-09
2.00131e-09
1.55288e-08
-5.60635e-09
1.24112e-09
-1.3119e-08
3.07458e-09
8.54297e-09
2.71382e-10
-1.57134e-08
2.32306e-09
-8.02566e-09
6.98368e-09
-1.13019e-08
-2.33016e-09
-2.44177e-09
-6.52293e-09
9.85551e-11
-2.22955e-09
-1.22649e-08
1.82702e-09
1.38054e-08
1.3212e-08
-1.326e-08
4.48129e-09
3.39654e-09
-7.7977e-09
-8.01257e-11
4.47948e-09
-6.7415e-09
6.74331e-09
-4.63908e-09
-4.19781e-09
1.33164e-08
-5.95826e-09
4.71573e-09
-2.71275e-09
-4.62008e-09
5.91327e-10
4.47554e-09
-3.31222e-09
-3.87607e-09
-2.5987e-09
-6.39719e-09
4.37581e-09
-4.12904e-09
1.58341e-09
-5.30549e-11
-3.48285e-09
4.17863e-09
3.01046e-09
-7.86973e-09
6.80648e-10
-5.64518e-09
5.626e-09
1.1268e-09
-4.44896e-09
-7.39414e-09
4.44633e-09
-5.2106e-09
-4.61395e-09
1.95483e-09
2.7361e-09
-4.30425e-09
-3.64245e-09
6.86317e-10
-1.32567e-09
-3.18878e-09
-3.07856e-09
-4.1536e-09
-3.64914e-09
-3.3408e-09
-6.65576e-09
3.7157e-09
6.28087e-09
-9.62271e-09
2.79026e-09
3.49165e-09
5.60353e-10
-1.03711e-09
-6.06706e-09
-2.83509e-11
7.28847e-09
-4.64753e-09
-1.96371e-09
-6.77234e-10
1.1726e-09
1.13971e-08
-5.28121e-09
7.47817e-09
3.74053e-09
-3.84905e-09
-7.36966e-09
-2.28399e-09
5.11462e-09
1.13678e-09
3.19739e-10
-2.5564e-09
7.4447e-09
-4.41647e-09
4.65033e-09
-1.33357e-09
-4.01935e-09
-8.18012e-10
3.24618e-09
-2.41075e-10
1.27737e-08
3.15556e-11
-9.02e-09
-3.78524e-09
3.26166e-09
5.18205e-09
4.32998e-09
-4.35973e-10
3.32566e-09
-5.52364e-09
2.63395e-09
3.95806e-09
-6.7506e-09
2.35657e-09
-2.47235e-09
9.6073e-09
-3.80928e-09
6.81525e-09
-5.32954e-09
7.84408e-09
1.78905e-09
-2.36964e-09
-7.26349e-09
6.46834e-09
4.63741e-09
-9.20008e-09
4.91146e-09
9.47067e-09
-6.45877e-09
-2.70975e-09
-2.56393e-09
5.21667e-09
6.95456e-09
2.03378e-09
2.21754e-09
-6.69453e-09
7.56502e-10
1.24064e-08
3.11198e-10
4.93872e-09
2.63871e-09
-5.54365e-09
1.06067e-08
-5.69029e-09
-4.45087e-09
-6.171e-09
1.63122e-08
-8.07089e-09
-8.53087e-09
1.09115e-08
-3.06342e-09
-6.13944e-09
1.13197e-09
-5.15584e-09
-4.30575e-09
9.30723e-10
-6.4416e-09
1.02622e-08
-9.53445e-09
2.9431e-11
-7.69388e-09
-3.6014e-09
5.84638e-09
-9.47148e-09
-7.14479e-09
6.82018e-09
-7.3586e-09
-2.8499e-09
-1.7311e-10
-4.46185e-09
-3.05892e-09
-3.8818e-09
-3.63486e-09
-6.62494e-09
-6.17245e-09
5.65261e-09
-7.68796e-09
-2.81878e-09
-4.39244e-09
-3.13927e-09
-3.31102e-09
-4.78569e-09
4.8242e-09
-3.25149e-09
-1.65847e-09
-1.24272e-09
2.80722e-09
3.00681e-10
-7.15899e-09
-6.27632e-09
2.98415e-09
6.09939e-09
-1.42365e-08
3.69767e-09
1.01467e-08
3.92099e-10
5.26464e-09
-6.94522e-09
-1.25559e-08
-3.71819e-09
7.46058e-10
-6.71638e-09
9.68851e-09
-8.54833e-09
5.13082e-09
8.45096e-09
-4.05731e-09
1.07898e-10
-4.50156e-09
3.6003e-09
3.16675e-09
-6.85373e-09
-3.47201e-09
-2.94474e-09
-1.64821e-10
-5.47249e-09
9.20271e-09
5.19919e-09
2.2745e-10
-1.61998e-10
8.62951e-09
-7.75969e-10
-1.02266e-08
-4.13741e-09
-6.12247e-09
4.78738e-09
-6.62869e-09
-4.5347e-10
-2.79034e-09
3.21578e-09
-4.20955e-09
3.78411e-09
-8.23406e-09
4.66775e-09
-3.53005e-09
-3.36477e-10
-5.55854e-09
7.76744e-09
5.84497e-09
-5.99154e-09
5.56032e-09
2.11282e-09
-5.71605e-09
4.73189e-09
1.07395e-09
-2.45516e-10
1.32926e-09
-6.919e-09
7.48938e-09
-1.89964e-09
6.17817e-09
-1.17013e-10
-2.99105e-10
-4.50708e-09
-1.53014e-09
-2.21709e-10
9.24123e-09
-1.44156e-09
6.0896e-09
8.35059e-09
-5.86789e-09
1.00512e-08
-1.92229e-09
5.82117e-09
5.04713e-10
-2.59274e-09
4.52475e-09
-1.94495e-09
1.2965e-11
-1.78466e-09
-7.11818e-09
7.08966e-09
1.8132e-09
-4.24956e-09
-1.27837e-10
-3.04751e-09
-2.99412e-09
-5.15109e-10
6.55677e-09
-1.03563e-11
2.66748e-09
-5.70463e-09
-3.10333e-09
4.63396e-09
9.03718e-09
1.01393e-09
-3.72953e-10
-9.67813e-09
2.6672e-10
2.71059e-09
6.05988e-09
1.94678e-10
-6.48525e-10
-3.7957e-09
-7.2687e-10
-6.19663e-09
-4.64907e-09
5.01449e-09
4.2892e-09
-8.16179e-09
3.86226e-09
-4.49836e-09
8.27244e-09
8.49222e-10
3.1371e-09
-1.03734e-08
7.26478e-09
3.37536e-09
8.67387e-10
-1.16137e-08
-8.34657e-09
4.69743e-09
1.05558e-08
-1.04153e-08
-7.47473e-09
6.57771e-09
-5.26548e-09
-1.25932e-09
-5.53068e-09
1.5059e-09
5.28412e-09
-5.37547e-09
1.76186e-09
2.35431e-09
9.20297e-09
6.48647e-10
-7.60076e-09
-2.25085e-09
6.80847e-09
-1.94692e-09
4.34142e-09
-3.93809e-09
5.37109e-09
5.77425e-09
-2.33685e-09
-7.37551e-09
8.61515e-09
-1.68446e-09
-6.28206e-09
5.04544e-09
1.62279e-09
-6.85322e-11
5.24208e-09
-1.28111e-10
-5.35685e-09
5.43832e-09
-1.50011e-10
-1.52367e-09
1.76723e-09
6.03443e-10
-5.85076e-09
7.00919e-09
-5.4468e-09
7.55613e-09
-2.03865e-09
-5.00267e-09
-4.30944e-09
-5.75522e-09
4.61788e-09
-6.6331e-09
7.99971e-10
-4.53497e-09
3.9263e-09
9.9238e-10
-8.90354e-11
6.36869e-09
-8.43276e-09
2.53766e-11
4.73669e-09
-5.00111e-09
-2.61495e-11
2.13872e-08
1.29146e-08
-2.2016e-08
-1.22859e-08
-3.96542e-13
1.66508e-09
-3.67734e-09
1.0426e-09
4.56782e-09
-3.25869e-09
-2.33252e-08
2.13926e-08
1.04644e-09
-1.78712e-08
1.62032e-08
1.51215e-09
2.70064e-09
-1.85727e-08
-2.69557e-09
-3.19954e-10
2.01702e-08
1.33175e-10
-2.35621e-08
1.6621e-09
-2.93393e-09
-1.45923e-08
3.67111e-09
-2.49136e-08
1.0854e-09
3.49405e-09
1.26649e-09
-5.84593e-09
6.11853e-09
2.21288e-09
-7.246e-09
4.70669e-09
5.82916e-09
-4.41731e-09
-1.19836e-10
5.11568e-09
-2.89156e-10
4.53272e-09
-4.35496e-09
3.31629e-09
4.7153e-09
-3.02415e-10
9.93949e-10
5.02803e-09
-4.75548e-09
-5.56273e-09
-5.39673e-09
3.43307e-10
5.83036e-09
-6.10502e-09
1.12864e-09
-5.95186e-10
3.19321e-10
4.65632e-09
-1.35821e-10
1.15267e-08
-9.14599e-09
2.64735e-09
9.96315e-09
-4.03467e-09
5.5982e-09
1.0474e-08
3.97129e-09
-4.48218e-09
1.42159e-11
6.97838e-09
-3.80574e-10
-6.61202e-09
4.91433e-09
-1.84809e-10
-3.29842e-10
5.32947e-09
9.65757e-10
9.39003e-09
1.18256e-10
-1.03627e-09
5.62076e-09
6.90787e-09
1.20698e-08
2.85797e-09
-9.18446e-09
-5.74331e-09
3.56134e-09
1.08229e-08
-1.16101e-08
1.44791e-08
-2.21062e-09
-6.54155e-09
-6.90108e-09
-8.11443e-09
7.41209e-09
-2.71613e-09
-7.84765e-09
3.15169e-09
5.77997e-10
-5.32875e-09
-2.12623e-09
-4.21719e-09
-2.10589e-09
-2.13985e-09
7.35102e-10
-7.25532e-09
1.5347e-09
4.98552e-09
-8.56997e-09
2.50234e-09
6.80273e-09
7.88883e-09
-6.62038e-09
-8.52376e-09
-4.04078e-10
-2.77054e-10
-6.02467e-09
7.47657e-09
1.05044e-09
-6.25154e-09
5.62975e-09
-2.64815e-10
-5.58226e-09
3.43509e-09
3.68187e-09
-8.16278e-09
-1.36713e-09
1.38242e-08
-6.46673e-09
-7.2783e-09
-1.0176e-09
-4.92805e-09
-7.03393e-09
1.53599e-09
2.22449e-09
-1.85548e-10
2.56682e-09
1.68517e-09
-6.30739e-10
-8.39116e-10
-2.07995e-09
3.35764e-09
-4.38575e-10
2.95306e-09
1.47412e-09
-5.9738e-10
1.8289e-09
-2.62372e-10
2.41078e-09
2.65848e-09
-3.78382e-10
9.4921e-10
-3.82012e-10
1.89617e-09
3.75383e-09
-7.50898e-10
-5.27409e-09
6.3854e-09
-5.36628e-10
-5.74681e-10
-7.60182e-11
-7.81655e-11
6.92673e-09
-5.58185e-10
-3.71976e-09
4.90753e-09
-6.2958e-10
3.74283e-09
-4.34335e-10
7.2188e-11
3.77286e-09
-1.62376e-10
-1.06383e-10
4.70282e-09
4.25536e-09
-1.58043e-10
-1.84741e-09
4.971e-09
4.40039e-09
-1.31201e-10
-1.26128e-10
3.31392e-09
3.16865e-09
-5.91541e-10
-2.11367e-09
-1.28013e-09
3.3004e-09
9.34043e-11
4.01991e-10
-2.26295e-09
4.28515e-09
-1.70412e-09
-3.18082e-10
-2.54908e-09
-1.5675e-09
4.4029e-09
-2.86322e-10
3.07416e-09
-2.969e-10
3.42436e-09
-1.30485e-11
4.98738e-09
-2.39807e-10
4.32471e-09
-3.16567e-10
-1.6591e-09
3.42609e-09
-2.30996e-10
1.32844e-09
2.47024e-09
-2.10857e-10
1.4669e-09
-7.91615e-11
-1.43624e-12
2.63307e-11
4.96478e-09
3.34074e-09
-3.88182e-13
1.95479e-09
7.10421e-10
-1.73251e-10
1.62914e-09
2.31403e-09
-3.60322e-10
4.53952e-09
1.1999e-11
2.17113e-09
1.81845e-09
-2.57101e-10
3.47876e-09
-1.06678e-09
-2.40853e-10
-2.64838e-09
3.72545e-09
-5.28438e-10
-5.48631e-10
7.05338e-10
-1.05232e-10
4.15882e-09
1.8863e-09
-6.11422e-09
6.88803e-11
2.06127e-09
-6.35812e-09
4.42837e-09
-1.31679e-10
-2.03106e-09
-2.71214e-12
3.8908e-09
-5.71567e-09
-2.06245e-10
7.99403e-11
-6.99887e-10
-4.27811e-09
-1.86284e-10
3.8722e-09
-4.40873e-09
-1.63531e-10
-2.35359e-09
1.15928e-10
4.91828e-09
-4.56876e-09
-2.72073e-10
-7.74524e-11
4.42253e-09
5.2737e-10
-4.92082e-09
-2.91611e-11
2.01829e-10
4.69826e-09
1.81362e-11
4.58445e-09
3.9863e-11
-2.1901e-09