/*--------------------------------*- C++ -*----------------------------------*\
| =========                 |                                                 |
| \\      /  F ield         | OpenFOAM: The Open Source CFD Toolbox           |
|  \\    /   O peration     | Version:  v1612+                                |
|   \\  /    A nd           | Web:      www.OpenFOAM.com                      |
|    \\/     M anipulation  |                                                 |
\*---------------------------------------------------------------------------*/
FoamFile
{
    version     2.0;
    format      ascii;
    class       volVectorField;
    location    "50";
    object      U;
}
// * * * * * * * * * * * * * * * * * * * * * * * * * * * * * * * * * * * * * //

dimensions      [0 1 -1 0 0 0 0];

internalField   nonuniform List<vector> 
17056
(
(-0.2634 0.342741 -0.692156)
(-0.270914 0.32224 -0.619228)
(-0.287912 0.34366 -0.618624)
(-0.328697 0.410176 -0.713721)
(-0.224334 0.299297 -0.561434)
(-0.254964 0.272912 -0.545881)
(-0.220678 0.301069 -0.543406)
(-0.241983 0.290672 -0.551785)
(-0.250933 0.278424 -0.552335)
(-0.242091 0.288185 -0.553161)
(-0.237101 0.298617 -0.554971)
(-0.248345 0.280125 -0.547591)
(-0.230528 0.314525 -0.55953)
(-0.219797 0.322278 -0.564416)
(-0.229104 0.327448 -0.571855)
(-0.214968 0.359024 -0.553538)
(-0.224077 0.361494 -0.57044)
(-0.239999 0.321055 -0.568583)
(-0.237048 0.345972 -0.58314)
(-0.231877 0.316219 -0.572217)
(-0.242981 0.311218 -0.561015)
(-0.24019 0.364446 -0.606703)
(-0.241525 0.355799 -0.598764)
(-0.243622 0.355049 -0.604319)
(-0.236576 0.329193 -0.576452)
(-0.236597 0.349101 -0.580949)
(-0.230609 0.358591 -0.59326)
(-0.235006 0.36043 -0.599571)
(-0.240971 0.334602 -0.586464)
(-0.236304 0.323481 -0.576766)
(-0.236535 0.329809 -0.588397)
(-0.295647 0.34818 -0.693366)
(-0.290678 0.344182 -0.690701)
(-0.299802 0.351285 -0.698789)
(-0.29763 0.347499 -0.689263)
(-0.288973 0.335645 -0.674283)
(-0.283482 0.332608 -0.661428)
(-0.290281 0.333377 -0.666244)
(-0.273775 0.318764 -0.627889)
(-0.297559 0.337837 -0.684137)
(-0.291785 0.337303 -0.679298)
(-0.288734 0.332836 -0.667475)
(-0.270778 0.315577 -0.626073)
(-0.290988 0.333912 -0.665109)
(-0.296432 0.342154 -0.684577)
(-0.289386 0.337907 -0.671853)
(-0.295433 0.339353 -0.675052)
(-0.298502 0.346326 -0.694955)
(-0.324241 0.414214 -0.712534)
(-0.326649 0.412535 -0.713749)
(-0.32522 0.414275 -0.715871)
(-0.292865 0.364278 -0.63552)
(-0.314036 0.390899 -0.677321)
(-0.325893 0.40917 -0.706825)
(-0.322685 0.404788 -0.698961)
(-0.306875 0.386203 -0.668725)
(-0.311465 0.391906 -0.681192)
(-0.316577 0.40385 -0.698909)
(-0.306644 0.395615 -0.685277)
(-0.276562 0.290992 -0.5475)
(-0.268839 0.286233 -0.547731)
(-0.264919 0.279181 -0.548986)
(-0.260878 0.278107 -0.545441)
(-0.267209 0.280655 -0.546463)
(-0.283738 0.294067 -0.548495)
(-0.290526 0.291881 -0.549656)
(-0.26906 0.281949 -0.547967)
(-0.265862 0.278227 -0.547562)
(-0.266111 0.2729 -0.539774)
(-0.265328 0.271855 -0.546413)
(-0.250665 0.275154 -0.547863)
(-0.261526 0.274151 -0.545205)
(-0.268649 0.283785 -0.54453)
(-0.259545 0.275708 -0.548269)
(-0.275059 0.286737 -0.54866)
(-0.273652 0.278082 -0.54214)
(-0.268667 0.285718 -0.542268)
(-0.252227 0.271955 -0.54905)
(-0.25633 0.274471 -0.546383)
(-0.232062 0.313224 -0.650703)
(-0.231351 0.317167 -0.637457)
(-0.228893 0.31792 -0.638305)
(-0.227675 0.320334 -0.632082)
(-0.240305 0.331922 -0.652575)
(-0.239208 0.327947 -0.644093)
(-0.227553 0.326546 -0.653396)
(-0.237413 0.340706 -0.669307)
(-0.24214 0.333066 -0.67543)
(-0.234266 0.333452 -0.674689)
(-0.23925 0.3425 -0.679308)
(-0.2389 0.339013 -0.67832)
(-0.233023 0.337219 -0.671608)
(-0.233593 0.33678 -0.678623)
(-0.245193 0.271463 -0.560613)
(-0.246405 0.274331 -0.558343)
(-0.249968 0.270693 -0.552801)
(-0.247346 0.271452 -0.558233)
(-0.240566 0.273551 -0.566301)
(-0.244706 0.271284 -0.562653)
(-0.243178 0.276573 -0.563401)
(-0.238788 0.274365 -0.564579)
(-0.250096 0.272974 -0.551609)
(-0.250615 0.273092 -0.551775)
(-0.249743 0.274885 -0.554646)
(-0.243211 0.274582 -0.56579)
(-0.24149 0.267553 -0.564412)
(-0.246621 0.27067 -0.552281)
(-0.248208 0.272979 -0.552767)
(-0.25266 0.273458 -0.549616)
(-0.250898 0.272928 -0.550982)
(-0.248752 0.273016 -0.551937)
(-0.245319 0.271556 -0.554183)
(-0.25185 0.273035 -0.547835)
(-0.244814 0.275473 -0.556489)
(-0.250052 0.272941 -0.549895)
(-0.265012 0.266294 -0.608992)
(-0.264698 0.262838 -0.602492)
(-0.271961 0.273868 -0.649804)
(-0.263534 0.270804 -0.636218)
(-0.264921 0.272357 -0.623212)
(-0.258996 0.269532 -0.620664)
(-0.277444 0.258644 -0.63405)
(-0.275509 0.264947 -0.628707)
(-0.282658 0.275445 -0.656176)
(-0.28337 0.273502 -0.668861)
(-0.268373 0.258919 -0.638511)
(-0.275005 0.263569 -0.65907)
(-0.265837 0.25487 -0.621758)
(-0.280096 0.264059 -0.657143)
(-0.251332 0.392018 -0.673311)
(-0.251207 0.377169 -0.671586)
(-0.251864 0.376966 -0.641984)
(-0.24714 0.373193 -0.651084)
(-0.260891 0.391096 -0.681783)
(-0.257893 0.386498 -0.673375)
(-0.262958 0.396773 -0.680834)
(-0.256441 0.388919 -0.675942)
(-0.249889 0.380785 -0.652239)
(-0.246677 0.36954 -0.649931)
(-0.254208 0.388692 -0.6629)
(-0.25966 0.390955 -0.674745)
(-0.264262 0.389351 -0.679467)
(-0.26163 0.379224 -0.653933)
(-0.264688 0.402275 -0.678079)
(-0.256212 0.379785 -0.659609)
(-0.267153 0.39657 -0.66574)
(-0.257285 0.391399 -0.666808)
(-0.260526 0.325668 -0.648697)
(-0.269408 0.314261 -0.649642)
(-0.266633 0.313216 -0.647185)
(-0.258304 0.325504 -0.64586)
(-0.278318 0.326517 -0.675024)
(-0.281099 0.323987 -0.673509)
(-0.27054 0.326507 -0.654286)
(-0.26967 0.329795 -0.658218)
(-0.277174 0.319613 -0.664121)
(-0.281 0.335911 -0.686042)
(-0.280611 0.335327 -0.689886)
(-0.268669 0.333647 -0.660484)
(-0.277112 0.333906 -0.69417)
(-0.276442 0.338694 -0.696698)
(-0.275001 0.332677 -0.674926)
(-0.273655 0.334765 -0.677741)
(-0.303978 0.366215 -0.699179)
(-0.300172 0.362521 -0.696553)
(-0.298614 0.35817 -0.687566)
(-0.300882 0.359713 -0.709092)
(-0.306727 0.366143 -0.706225)
(-0.310509 0.364266 -0.708928)
(-0.308573 0.364626 -0.710692)
(-0.30292 0.361934 -0.691599)
(-0.302409 0.359003 -0.68489)
(-0.306822 0.359944 -0.694868)
(-0.306912 0.357343 -0.699461)
(-0.300593 0.358177 -0.688846)
(-0.306912 0.36643 -0.711746)
(-0.305532 0.369209 -0.708153)
(-0.305063 0.362361 -0.704243)
(-0.310839 0.362766 -0.703593)
(-0.308427 0.363888 -0.708387)
(-0.30951 0.363183 -0.700054)
(-0.310889 0.363162 -0.70072)
(-0.308926 0.365423 -0.701089)
(-0.323117 0.37869 -0.689443)
(-0.320386 0.377084 -0.679821)
(-0.297734 0.347762 -0.631187)
(-0.305889 0.354891 -0.645461)
(-0.331622 0.387013 -0.708938)
(-0.328397 0.382446 -0.694987)
(-0.310836 0.359268 -0.653007)
(-0.29354 0.350035 -0.629294)
(-0.273474 0.32527 -0.589175)
(-0.32544 0.379286 -0.689281)
(-0.30205 0.354761 -0.643333)
(-0.268744 0.325041 -0.583784)
(-0.297583 0.342807 -0.630213)
(-0.309883 0.364821 -0.654659)
(-0.323228 0.288418 -0.580476)
(-0.332365 0.299781 -0.588452)
(-0.297601 0.284763 -0.544789)
(-0.29259 0.284082 -0.543797)
(-0.316381 0.293601 -0.571834)
(-0.331957 0.314134 -0.585069)
(-0.324658 0.310189 -0.585493)
(-0.294082 0.291238 -0.555718)
(-0.296934 0.296369 -0.56334)
(-0.306589 0.296442 -0.566318)
(-0.315771 0.2979 -0.56898)
(-0.301153 0.281988 -0.550362)
(-0.336441 0.318905 -0.587136)
(-0.330334 0.316264 -0.587248)
(-0.302977 0.296814 -0.560379)
(-0.312329 0.302365 -0.573935)
(-0.298602 0.410945 -0.700345)
(-0.296153 0.405772 -0.691019)
(-0.292925 0.401727 -0.696398)
(-0.297021 0.404847 -0.700596)
(-0.296823 0.409643 -0.693356)
(-0.296251 0.406105 -0.696193)
(-0.281657 0.387261 -0.666335)
(-0.296168 0.416551 -0.694762)
(-0.288158 0.403433 -0.679695)
(-0.292068 0.396705 -0.695943)
(-0.293665 0.403644 -0.697711)
(-0.291752 0.407725 -0.689872)
(-0.289716 0.391884 -0.67239)
(-0.294342 0.412801 -0.699875)
(-0.290249 0.402854 -0.693329)
(-0.282722 0.392714 -0.671553)
(-0.29002 0.395624 -0.688076)
(-0.288032 0.401519 -0.692627)
(-0.291104 0.40693 -0.687413)
(-0.315962 0.323644 -0.66751)
(-0.313741 0.317728 -0.664746)
(-0.322568 0.322014 -0.661897)
(-0.319977 0.318254 -0.65181)
(-0.312676 0.315555 -0.666935)
(-0.308896 0.306696 -0.650733)
(-0.303834 0.305804 -0.633864)
(-0.319464 0.318083 -0.654603)
(-0.31886 0.311698 -0.647513)
(-0.311492 0.315762 -0.656407)
(-0.309132 0.316787 -0.65419)
(-0.300841 0.300255 -0.625209)
(-0.297434 0.299766 -0.622089)
(-0.310579 0.31315 -0.663449)
(-0.317823 0.305689 -0.660344)
(-0.322165 0.316716 -0.651648)
(-0.319929 0.305875 -0.651834)
(-0.312442 0.30899 -0.63229)
(-0.306501 0.304327 -0.633957)
(-0.309391 0.303908 -0.643669)
(-0.279251 0.358783 -0.635659)
(-0.267162 0.345417 -0.618675)
(-0.260357 0.330525 -0.59046)
(-0.28865 0.367981 -0.655125)
(-0.275981 0.351701 -0.633635)
(-0.266319 0.336328 -0.599592)
(-0.306529 0.409281 -0.720109)
(-0.278334 0.349852 -0.623313)
(-0.300245 0.385235 -0.680983)
(-0.305811 0.318761 -0.635578)
(-0.315935 0.333197 -0.648343)
(-0.307862 0.324668 -0.644159)
(-0.325037 0.319689 -0.640983)
(-0.307933 0.32331 -0.64172)
(-0.322729 0.327036 -0.647234)
(-0.315735 0.319836 -0.65174)
(-0.322674 0.324361 -0.65503)
(-0.316276 0.328206 -0.654511)
(-0.32242 0.388404 -0.683741)
(-0.313756 0.388924 -0.68435)
(-0.331243 0.401651 -0.70064)
(-0.325701 0.400938 -0.700536)
(-0.317807 0.381984 -0.677725)
(-0.309425 0.376457 -0.670221)
(-0.306592 0.385866 -0.677626)
(-0.331284 0.402107 -0.703298)
(-0.321308 0.395643 -0.697154)
(-0.325121 0.389013 -0.686169)
(-0.309568 0.38588 -0.679166)
(-0.314273 0.3753 -0.673287)
(-0.317978 0.3838 -0.683747)
(-0.326274 0.395995 -0.698418)
(-0.320135 0.391077 -0.692711)
(-0.33072 0.440396 -0.752293)
(-0.321114 0.424604 -0.725611)
(-0.325507 0.429798 -0.740744)
(-0.31118 0.410761 -0.709966)
(-0.32291 0.434475 -0.745804)
(-0.304657 0.385547 -0.679366)
(-0.243517 0.292581 -0.555921)
(-0.246589 0.287482 -0.550745)
(-0.234376 0.308508 -0.562951)
(-0.242641 0.305402 -0.564755)
(-0.234319 0.3041 -0.552395)
(-0.241312 0.31898 -0.569153)
(-0.240838 0.327808 -0.569674)
(-0.241833 0.311791 -0.559866)
(-0.240927 0.312261 -0.551814)
(-0.245333 0.310846 -0.556191)
(-0.236846 0.308663 -0.557027)
(-0.310332 0.392166 -0.720424)
(-0.312307 0.391948 -0.718881)
(-0.310788 0.382067 -0.702011)
(-0.309448 0.38126 -0.701235)
(-0.311021 0.39199 -0.710954)
(-0.312917 0.389017 -0.708687)
(-0.307514 0.37478 -0.705151)
(-0.309079 0.374846 -0.710705)
(-0.309684 0.379525 -0.698778)
(-0.306351 0.378828 -0.701925)
(-0.310347 0.384275 -0.71855)
(-0.31143 0.382022 -0.718802)
(-0.309718 0.39073 -0.717496)
(-0.309024 0.382409 -0.71119)
(-0.308442 0.382069 -0.714599)
(-0.312031 0.382193 -0.706697)
(-0.306247 0.3815 -0.704093)
(-0.311671 0.374762 -0.700245)
(-0.309944 0.377863 -0.711635)
(-0.314524 0.375649 -0.701682)
(-0.315657 0.380707 -0.707626)
(-0.313917 0.378451 -0.711352)
(-0.300194 0.34785 -0.676831)
(-0.299241 0.350471 -0.679975)
(-0.295746 0.35247 -0.684673)
(-0.301283 0.350157 -0.672368)
(-0.298691 0.350673 -0.667273)
(-0.298083 0.347286 -0.677298)
(-0.297239 0.347983 -0.682777)
(-0.293477 0.341272 -0.662252)
(-0.287896 0.346614 -0.666024)
(-0.28811 0.341885 -0.665081)
(-0.290627 0.339197 -0.671794)
(-0.28794 0.351008 -0.677563)
(-0.295529 0.343914 -0.683578)
(-0.293285 0.35055 -0.676778)
(-0.288119 0.344415 -0.669218)
(-0.288521 0.346198 -0.666907)
(-0.329798 0.392723 -0.719495)
(-0.335327 0.395292 -0.725716)
(-0.332255 0.393799 -0.723043)
(-0.327168 0.385641 -0.710553)
(-0.331281 0.385311 -0.720337)
(-0.337516 0.393648 -0.73323)
(-0.336383 0.389411 -0.724653)
(-0.320683 0.386635 -0.715671)
(-0.33087 0.391708 -0.720786)
(-0.327795 0.382485 -0.713974)
(-0.333546 0.388081 -0.720511)
(-0.342885 0.393201 -0.733197)
(-0.343588 0.386989 -0.728087)
(-0.320262 0.382772 -0.719977)
(-0.338553 0.388972 -0.735669)
(-0.337817 0.390559 -0.734534)
(-0.323515 0.385663 -0.725566)
(-0.327838 0.390194 -0.725847)
(-0.331695 0.386461 -0.720646)
(-0.334287 0.387088 -0.72514)
(-0.328576 0.382664 -0.726044)
(-0.328948 0.383468 -0.715985)
(-0.335264 0.387097 -0.726321)
(-0.29999 0.365357 -0.709417)
(-0.298563 0.359477 -0.705395)
(-0.301238 0.361377 -0.702621)
(-0.300113 0.363389 -0.707221)
(-0.303048 0.359903 -0.700161)
(-0.295076 0.351863 -0.6972)
(-0.303038 0.356424 -0.701637)
(-0.300943 0.352295 -0.698142)
(-0.301016 0.355137 -0.695372)
(-0.294334 0.350924 -0.694774)
(-0.293227 0.351044 -0.701051)
(-0.302724 0.355306 -0.700501)
(-0.294482 0.346684 -0.691143)
(-0.29973 0.351506 -0.693462)
(-0.300893 0.355234 -0.700005)
(-0.30044 0.344528 -0.694049)
(-0.326745 0.391582 -0.676755)
(-0.319974 0.382713 -0.669905)
(-0.33314 0.392467 -0.682147)
(-0.333668 0.391059 -0.677908)
(-0.327455 0.390186 -0.673088)
(-0.315987 0.37658 -0.66384)
(-0.327845 0.389322 -0.673802)
(-0.324624 0.389186 -0.666971)
(-0.331468 0.384789 -0.677112)
(-0.318545 0.377845 -0.661033)
(-0.332485 0.392994 -0.677731)
(-0.331026 0.376298 -0.668938)
(-0.331876 0.371243 -0.662243)
(-0.327496 0.377134 -0.662381)
(-0.331038 0.377029 -0.671525)
(-0.321772 0.371221 -0.6584)
(-0.276227 0.383622 -0.698515)
(-0.275892 0.381311 -0.68432)
(-0.270097 0.382979 -0.675111)
(-0.267694 0.379278 -0.679602)
(-0.267465 0.387589 -0.694529)
(-0.276486 0.394651 -0.691886)
(-0.28076 0.400553 -0.7106)
(-0.265984 0.371978 -0.669692)
(-0.261949 0.374469 -0.679266)
(-0.262408 0.378195 -0.673157)
(-0.275435 0.389306 -0.692462)
(-0.275379 0.38198 -0.696121)
(-0.272391 0.380874 -0.697928)
(-0.268446 0.385776 -0.694448)
(-0.271162 0.377323 -0.683998)
(-0.313147 0.371391 -0.714643)
(-0.316002 0.373161 -0.715396)
(-0.311853 0.366829 -0.705421)
(-0.306539 0.362729 -0.698353)
(-0.311966 0.369041 -0.711895)
(-0.318111 0.36984 -0.717414)
(-0.31672 0.371628 -0.720055)
(-0.313211 0.370291 -0.712668)
(-0.31393 0.371021 -0.707845)
(-0.321245 0.376113 -0.718757)
(-0.320605 0.370992 -0.713977)
(-0.313906 0.371836 -0.711356)
(-0.313814 0.367422 -0.707144)
(-0.319859 0.374187 -0.71551)
(-0.320761 0.370783 -0.714031)
(-0.293621 0.336108 -0.660183)
(-0.294807 0.339877 -0.65704)
(-0.295898 0.331916 -0.655253)
(-0.289474 0.341188 -0.649771)
(-0.289995 0.347726 -0.652893)
(-0.286317 0.331554 -0.631877)
(-0.299554 0.337942 -0.663441)
(-0.30274 0.339107 -0.668797)
(-0.289104 0.33257 -0.634013)
(-0.291174 0.335914 -0.647147)
(-0.301765 0.340609 -0.655211)
(-0.304889 0.340579 -0.665507)
(-0.288772 0.336069 -0.64058)
(-0.295789 0.345314 -0.651142)
(-0.291619 0.342546 -0.644443)
(-0.311729 0.393245 -0.676217)
(-0.303548 0.391597 -0.679144)
(-0.312051 0.395893 -0.68398)
(-0.317704 0.396925 -0.685441)
(-0.312335 0.398701 -0.683841)
(-0.30979 0.395489 -0.681178)
(-0.32435 0.40505 -0.702628)
(-0.318178 0.403631 -0.69865)
(-0.3213 0.411815 -0.704603)
(-0.309725 0.394555 -0.69152)
(-0.325268 0.410833 -0.711357)
(-0.323222 0.41144 -0.704538)
(-0.319908 0.40748 -0.700577)
(-0.312909 0.406393 -0.699606)
(-0.320074 0.413192 -0.71054)
(-0.31853 0.414046 -0.707014)
(-0.325742 0.342515 -0.622573)
(-0.315702 0.339929 -0.610093)
(-0.31462 0.341679 -0.613238)
(-0.312504 0.335593 -0.607815)
(-0.33733 0.349362 -0.647482)
(-0.338825 0.351243 -0.649088)
(-0.32408 0.347686 -0.623984)
(-0.325149 0.333987 -0.61594)
(-0.323293 0.341877 -0.626308)
(-0.335302 0.341958 -0.643954)
(-0.335831 0.354898 -0.6471)
(-0.313361 0.328674 -0.610628)
(-0.322292 0.342242 -0.635164)
(-0.325041 0.343774 -0.639013)
(-0.328655 0.349118 -0.640498)
(-0.334269 0.354744 -0.640514)
(-0.333764 0.341446 -0.638578)
(-0.320029 0.332178 -0.617541)
(-0.321638 0.33519 -0.630223)
(-0.323967 0.335603 -0.62928)
(-0.22815 0.311466 -0.577684)
(-0.218589 0.315356 -0.58786)
(-0.220799 0.33285 -0.593499)
(-0.216234 0.328911 -0.603835)
(-0.223264 0.331549 -0.608757)
(-0.225293 0.347176 -0.614702)
(-0.227472 0.296828 -0.566599)
(-0.230452 0.295002 -0.562507)
(-0.229546 0.327491 -0.589263)
(-0.226602 0.33331 -0.598288)
(-0.225146 0.331825 -0.599162)
(-0.229626 0.310063 -0.575614)
(-0.232534 0.313115 -0.577036)
(-0.237206 0.325701 -0.582247)
(-0.223517 0.335303 -0.60231)
(-0.230639 0.306279 -0.571529)
(-0.229931 0.313836 -0.576185)
(-0.236328 0.32657 -0.579821)
(-0.28967 0.384062 -0.666629)
(-0.297524 0.398991 -0.676118)
(-0.299133 0.396086 -0.674375)
(-0.293618 0.392498 -0.673315)
(-0.298715 0.399903 -0.682178)
(-0.30332 0.40072 -0.685233)
(-0.304441 0.400166 -0.682492)
(-0.302298 0.391236 -0.673955)
(-0.301535 0.397042 -0.679224)
(-0.292406 0.377524 -0.651108)
(-0.287989 0.372122 -0.647181)
(-0.292289 0.38417 -0.665104)
(-0.296026 0.387729 -0.676204)
(-0.301967 0.381348 -0.664059)
(-0.290652 0.370388 -0.648871)
(-0.297138 0.382111 -0.658746)
(-0.301938 0.383055 -0.656105)
(-0.290605 0.370868 -0.65113)
(-0.330202 0.374556 -0.705303)
(-0.31516 0.357756 -0.670268)
(-0.327744 0.371892 -0.700197)
(-0.321992 0.363595 -0.685736)
(-0.326211 0.377455 -0.702088)
(-0.326914 0.369909 -0.696012)
(-0.324343 0.366173 -0.685968)
(-0.313277 0.360903 -0.667011)
(-0.321323 0.364323 -0.681932)
(-0.309365 0.359157 -0.666779)
(-0.312401 0.356659 -0.671062)
(-0.329129 0.377274 -0.702898)
(-0.330428 0.378915 -0.703947)
(-0.328236 0.374975 -0.703867)
(-0.329324 0.377758 -0.707808)
(-0.327353 0.382692 -0.703597)
(-0.32193 0.371017 -0.69067)
(-0.322009 0.370535 -0.686794)
(-0.325716 0.375319 -0.694475)
(-0.330435 0.381451 -0.707515)
(-0.326205 0.38166 -0.702603)
(-0.331124 0.385415 -0.708867)
(-0.321828 0.357984 -0.623145)
(-0.327947 0.354856 -0.628661)
(-0.340068 0.382601 -0.648066)
(-0.334579 0.386387 -0.645826)
(-0.343155 0.380354 -0.645519)
(-0.334099 0.373657 -0.639748)
(-0.323705 0.359026 -0.636078)
(-0.315007 0.34996 -0.6257)
(-0.332876 0.359642 -0.631116)
(-0.314927 0.354501 -0.618688)
(-0.334983 0.367422 -0.642827)
(-0.340182 0.382642 -0.653863)
(-0.330846 0.372979 -0.639319)
(-0.325034 0.367969 -0.631776)
(-0.339831 0.376422 -0.64099)
(-0.334499 0.366258 -0.643667)
(-0.329249 0.361518 -0.631237)
(-0.335087 0.380531 -0.649235)
(-0.325259 0.366652 -0.628429)
(-0.34337 0.372659 -0.649807)
(-0.34229 0.368042 -0.645126)
(-0.318862 0.365397 -0.641809)
(-0.319994 0.369277 -0.635835)
(-0.32508 0.363596 -0.630218)
(-0.340556 0.375504 -0.640123)
(-0.337588 0.371574 -0.634874)
(-0.332986 0.37162 -0.645708)
(-0.33842 0.370668 -0.643618)
(-0.255989 0.275474 -0.547139)
(-0.268511 0.283633 -0.546042)
(-0.264601 0.294709 -0.545786)
(-0.256617 0.283906 -0.539818)
(-0.270793 0.289922 -0.538837)
(-0.253728 0.277555 -0.549084)
(-0.26655 0.301323 -0.52946)
(-0.25472 0.277655 -0.544749)
(-0.281003 0.317296 -0.545907)
(-0.278266 0.314668 -0.545565)
(-0.25892 0.294832 -0.546196)
(-0.29677 0.32302 -0.548957)
(-0.274998 0.315567 -0.544488)
(-0.289569 0.386662 -0.638956)
(-0.294771 0.386658 -0.639608)
(-0.295573 0.407407 -0.649681)
(-0.290882 0.402505 -0.644382)
(-0.288935 0.405101 -0.639831)
(-0.281919 0.393867 -0.632441)
(-0.287318 0.400932 -0.634691)
(-0.289507 0.406077 -0.642115)
(-0.287242 0.414658 -0.631186)
(-0.297434 0.412112 -0.632697)
(-0.295192 0.407387 -0.631231)
(-0.302717 0.401587 -0.637922)
(-0.292149 0.411137 -0.641352)
(-0.304791 0.419961 -0.649825)
(-0.275906 0.327945 -0.631903)
(-0.278075 0.331954 -0.630903)
(-0.313225 0.367174 -0.711706)
(-0.302701 0.359413 -0.695619)
(-0.285048 0.333485 -0.648973)
(-0.289712 0.338216 -0.655191)
(-0.294861 0.347396 -0.668172)
(-0.30739 0.357551 -0.698614)
(-0.312853 0.365013 -0.710873)
(-0.308818 0.365915 -0.706023)
(-0.311764 0.365998 -0.711641)
(-0.325217 0.39205 -0.709326)
(-0.327022 0.390358 -0.70767)
(-0.323558 0.395357 -0.70531)
(-0.335277 0.391111 -0.712003)
(-0.335714 0.391244 -0.71324)
(-0.333731 0.396554 -0.712445)
(-0.334182 0.398305 -0.714041)
(-0.331182 0.388603 -0.707244)
(-0.335012 0.399758 -0.713426)
(-0.328017 0.386736 -0.705658)
(-0.333257 0.398833 -0.712386)
(-0.330679 0.400364 -0.708406)
(-0.326293 0.386231 -0.704746)
(-0.333514 0.392661 -0.707746)
(-0.325973 0.388611 -0.702335)
(-0.335983 0.393535 -0.709188)
(-0.335963 0.397242 -0.714776)
(-0.248204 0.292425 -0.55579)
(-0.24401 0.291755 -0.552673)
(-0.251915 0.295906 -0.557773)
(-0.249879 0.283551 -0.552916)
(-0.249389 0.284217 -0.551854)
(-0.247166 0.306495 -0.562662)
(-0.251145 0.287533 -0.552847)
(-0.249151 0.29438 -0.556304)
(-0.251924 0.288259 -0.549143)
(-0.250615 0.294933 -0.553924)
(-0.249477 0.309913 -0.561137)
(-0.248024 0.311754 -0.553429)
(-0.251067 0.296307 -0.556939)
(-0.249733 0.293131 -0.552421)
(-0.249704 0.284032 -0.550607)
(-0.324736 0.422606 -0.738544)
(-0.313492 0.410813 -0.720915)
(-0.326697 0.428177 -0.746079)
(-0.321809 0.425844 -0.752037)
(-0.327718 0.429739 -0.748719)
(-0.322456 0.42552 -0.743632)
(-0.323803 0.430185 -0.747911)
(-0.314497 0.410517 -0.721301)
(-0.31714 0.419883 -0.730064)
(-0.333538 0.439582 -0.750568)
(-0.325021 0.426481 -0.739838)
(-0.328436 0.437257 -0.755164)
(-0.318315 0.41765 -0.733575)
(-0.312708 0.419893 -0.731149)
(-0.316437 0.412071 -0.721236)
(-0.309105 0.406895 -0.71761)
(-0.307955 0.344421 -0.662667)
(-0.312237 0.345777 -0.677531)
(-0.317077 0.343448 -0.676026)
(-0.321702 0.350334 -0.681251)
(-0.317675 0.343598 -0.677432)
(-0.316029 0.345688 -0.670476)
(-0.316423 0.344523 -0.664543)
(-0.323882 0.35024 -0.677862)
(-0.325627 0.348676 -0.678654)
(-0.30748 0.339999 -0.672216)
(-0.318609 0.339924 -0.67361)
(-0.306341 0.348554 -0.663951)
(-0.314874 0.347151 -0.677662)
(-0.323406 0.344434 -0.674001)
(-0.258641 0.28372 -0.549026)
(-0.258306 0.280752 -0.551702)
(-0.254623 0.286346 -0.552863)
(-0.255432 0.282318 -0.551803)
(-0.253999 0.273684 -0.549469)
(-0.253999 0.275682 -0.548778)
(-0.253462 0.274037 -0.54826)
(-0.255 0.274936 -0.547713)
(-0.251941 0.27293 -0.549764)
(-0.252663 0.277524 -0.55159)
(-0.255859 0.27762 -0.553084)
(-0.254609 0.276988 -0.54951)
(-0.251987 0.278117 -0.551403)
(-0.253926 0.274851 -0.549944)
(-0.252187 0.274242 -0.549826)
(-0.252768 0.273177 -0.548914)
(-0.256579 0.273488 -0.549872)
(-0.253523 0.278101 -0.549861)
(-0.2521 0.274985 -0.549664)
(-0.253275 0.273297 -0.548998)
(-0.303245 0.34928 -0.570144)
(-0.302258 0.348561 -0.566777)
(-0.294215 0.32668 -0.555435)
(-0.282464 0.340974 -0.55822)
(-0.274756 0.32602 -0.553329)
(-0.269761 0.318596 -0.555339)
(-0.258811 0.296064 -0.550356)
(-0.276965 0.306657 -0.544306)
(-0.280423 0.315859 -0.540802)
(-0.297321 0.334074 -0.561806)
(-0.281279 0.323534 -0.557413)
(-0.282032 0.325773 -0.54998)
(-0.258567 0.288028 -0.54009)
(-0.267349 0.301561 -0.55297)
(-0.276605 0.274177 -0.557499)
(-0.280748 0.278589 -0.561445)
(-0.275309 0.277297 -0.549938)
(-0.278227 0.279002 -0.551664)
(-0.311423 0.278692 -0.572001)
(-0.3061 0.278719 -0.566255)
(-0.294558 0.27662 -0.574032)
(-0.291211 0.281389 -0.571721)
(-0.280419 0.283933 -0.558691)
(-0.281683 0.287026 -0.55036)
(-0.314003 0.29878 -0.572281)
(-0.31386 0.283132 -0.575319)
(-0.308738 0.287656 -0.581484)
(-0.313831 0.291859 -0.579811)
(-0.300521 0.290081 -0.56449)
(-0.301474 0.29112 -0.570999)
(-0.248555 0.283137 -0.558148)
(-0.245276 0.289277 -0.558373)
(-0.241654 0.286979 -0.557003)
(-0.253882 0.279724 -0.551959)
(-0.246606 0.281522 -0.558905)
(-0.242555 0.279923 -0.558189)
(-0.249951 0.280064 -0.552203)
(-0.253196 0.277053 -0.552498)
(-0.253542 0.276979 -0.55412)
(-0.249574 0.274103 -0.55273)
(-0.249563 0.274558 -0.550595)
(-0.251459 0.275498 -0.551976)
(-0.250181 0.273428 -0.553643)
(-0.253378 0.273625 -0.549888)
(-0.24955 0.274099 -0.55013)
(-0.250793 0.275467 -0.550271)
(-0.252152 0.273941 -0.549728)
(-0.248423 0.273056 -0.552486)
(-0.251593 0.272531 -0.549498)
(-0.251244 0.273044 -0.550084)
(-0.242536 0.37827 -0.664053)
(-0.243183 0.379362 -0.67606)
(-0.237758 0.336144 -0.608739)
(-0.232743 0.335746 -0.61256)
(-0.242203 0.355678 -0.639011)
(-0.242034 0.359056 -0.636637)
(-0.233234 0.354691 -0.623654)
(-0.234521 0.34885 -0.624037)
(-0.242017 0.377893 -0.664849)
(-0.238037 0.372913 -0.671774)
(-0.243813 0.370258 -0.666717)
(-0.232114 0.338832 -0.62629)
(-0.233846 0.339234 -0.624907)
(-0.225405 0.343344 -0.616672)
(-0.240243 0.363441 -0.671674)
(-0.237808 0.368857 -0.673158)
(-0.225307 0.362878 -0.648147)
(-0.231132 0.349478 -0.637687)
(-0.234076 0.364409 -0.657286)
(-0.233386 0.35556 -0.652714)
(-0.30543 0.383345 -0.669542)
(-0.299416 0.378391 -0.662691)
(-0.296232 0.373921 -0.645274)
(-0.299736 0.386412 -0.674143)
(-0.28455 0.356932 -0.628066)
(-0.30823 0.391106 -0.681071)
(-0.303217 0.394269 -0.68251)
(-0.296423 0.376889 -0.658789)
(-0.325386 0.417238 -0.720267)
(-0.322442 0.411174 -0.71724)
(-0.310919 0.391262 -0.680434)
(-0.248663 0.290142 -0.553044)
(-0.287656 0.328081 -0.625764)
(-0.27262 0.308956 -0.5854)
(-0.293895 0.338881 -0.643068)
(-0.293328 0.338181 -0.653464)
(-0.279475 0.318097 -0.600603)
(-0.285663 0.329988 -0.634698)
(-0.300201 0.342893 -0.658654)
(-0.27326 0.313288 -0.604637)
(-0.302843 0.342191 -0.657168)
(-0.283503 0.318842 -0.611346)
(-0.316444 0.358359 -0.691497)
(-0.315814 0.356906 -0.684977)
(-0.304502 0.34727 -0.661989)
(-0.313352 0.361442 -0.690582)
(-0.313526 0.363791 -0.693163)
(-0.320321 0.360167 -0.693322)
(-0.314542 0.355767 -0.688836)
(-0.318831 0.36319 -0.694301)
(-0.31914 0.362528 -0.695558)
(-0.304674 0.378738 -0.712086)
(-0.303799 0.385431 -0.722471)
(-0.309651 0.389794 -0.733939)
(-0.298911 0.378824 -0.715313)
(-0.303467 0.385002 -0.720666)
(-0.31334 0.389708 -0.731779)
(-0.288687 0.35687 -0.672405)
(-0.281102 0.347879 -0.658625)
(-0.285005 0.359561 -0.672389)
(-0.272448 0.342294 -0.644987)
(-0.306369 0.383141 -0.714527)
(-0.288662 0.354967 -0.673474)
(-0.28839 0.360595 -0.668828)
(-0.269938 0.343663 -0.632462)
(-0.276224 0.345299 -0.637569)
(-0.2825 0.353 -0.664392)
(-0.279366 0.339948 -0.648703)
(-0.268366 0.321226 -0.603714)
(-0.291723 0.364682 -0.677007)
(-0.281072 0.350219 -0.654628)
(-0.26963 0.331502 -0.616154)
(-0.344409 0.413224 -0.734844)
(-0.338872 0.418575 -0.747523)
(-0.352314 0.408364 -0.726518)
(-0.338335 0.407304 -0.730062)
(-0.345189 0.405974 -0.731772)
(-0.349455 0.410703 -0.744989)
(-0.351254 0.401147 -0.745057)
(-0.352717 0.411706 -0.735681)
(-0.332242 0.398649 -0.732275)
(-0.337553 0.400864 -0.737076)
(-0.347118 0.400264 -0.737132)
(-0.336549 0.39459 -0.736356)
(-0.342142 0.393978 -0.740202)
(-0.289475 0.352469 -0.698224)
(-0.289988 0.349223 -0.69462)
(-0.283296 0.339083 -0.667515)
(-0.276553 0.335345 -0.662536)
(-0.278439 0.337961 -0.665634)
(-0.276563 0.332538 -0.661529)
(-0.292338 0.354495 -0.701816)
(-0.289951 0.35175 -0.698412)
(-0.284431 0.349697 -0.679529)
(-0.276087 0.336996 -0.658997)
(-0.27865 0.338138 -0.661577)
(-0.264989 0.326691 -0.632537)
(-0.294189 0.359156 -0.707441)
(-0.298341 0.363645 -0.710269)
(-0.294901 0.362078 -0.706962)
(-0.275587 0.342663 -0.659086)
(-0.270524 0.31852 -0.629411)
(-0.279482 0.342399 -0.662429)
(-0.297963 0.363037 -0.71021)
(-0.281561 0.341115 -0.662976)
(-0.284665 0.357444 -0.683845)
(-0.29556 0.322718 -0.600745)
(-0.300495 0.336291 -0.608854)
(-0.300296 0.340035 -0.611017)
(-0.301439 0.341208 -0.60112)
(-0.304561 0.330251 -0.59596)
(-0.324841 0.348282 -0.613044)
(-0.309976 0.333671 -0.596211)
(-0.305468 0.333075 -0.591102)
(-0.332291 0.354485 -0.62397)
(-0.290138 0.333105 -0.665013)
(-0.28695 0.328722 -0.648269)
(-0.292199 0.33478 -0.666452)
(-0.280322 0.32525 -0.643117)
(-0.292778 0.336534 -0.667749)
(-0.289947 0.33563 -0.664356)
(-0.277303 0.318701 -0.627034)
(-0.301663 0.347033 -0.685801)
(-0.305033 0.352314 -0.693828)
(-0.307802 0.34813 -0.695586)
(-0.300164 0.342263 -0.681959)
(-0.30173 0.343433 -0.691597)
(-0.231746 0.293355 -0.552051)
(-0.269062 0.252289 -0.555609)
(-0.316203 0.252206 -0.552231)
(-0.2722 0.254192 -0.55313)
(-0.269965 0.263668 -0.548329)
(-0.256337 0.259838 -0.556299)
(-0.272647 0.263849 -0.546559)
(-0.276381 0.265116 -0.546498)
(-0.299418 0.285517 -0.53395)
(-0.260071 0.272371 -0.54545)
(-0.310714 0.276611 -0.54007)
(-0.28092 0.274281 -0.541041)
(-0.245067 0.266355 -0.558039)
(-0.250962 0.268812 -0.555193)
(-0.248761 0.264139 -0.556158)
(-0.237255 0.27337 -0.562228)
(-0.261714 0.279209 -0.542193)
(-0.266642 0.270916 -0.543337)
(-0.219564 0.288431 -0.562799)
(-0.199171 0.287143 -0.58664)
(-0.229271 0.274243 -0.559775)
(-0.303572 0.309383 -0.526501)
(-0.223467 0.252585 -0.589209)
(-0.242076 0.266533 -0.55765)
(-0.234774 0.271708 -0.561259)
(-0.238137 0.267433 -0.563717)
(-0.268988 0.287297 -0.539154)
(-0.201366 0.323258 -0.566906)
(-0.263594 0.288517 -0.539242)
(-0.235383 0.288482 -0.552123)
(-0.251633 0.279808 -0.547539)
(-0.245712 0.286587 -0.546099)
(-0.267647 0.292363 -0.536966)
(-0.266303 0.300891 -0.532336)
(-0.252359 0.281223 -0.543696)
(-0.256813 0.29805 -0.537064)
(-0.27005 0.339212 -0.529789)
(-0.250521 0.360656 -0.52326)
(-0.247239 0.294427 -0.538994)
(-0.286899 0.327146 -0.6108)
(-0.271682 0.31118 -0.585636)
(-0.262039 0.313153 -0.575351)
(-0.267427 0.312832 -0.574361)
(-0.256436 0.301299 -0.557202)
(-0.262912 0.319943 -0.557691)
(-0.270229 0.316706 -0.570878)
(-0.261194 0.312159 -0.561873)
(-0.256973 0.317045 -0.604723)
(-0.254882 0.302783 -0.588926)
(-0.243508 0.305682 -0.563126)
(-0.248985 0.295296 -0.555405)
(-0.271166 0.318748 -0.588906)
(-0.276234 0.318584 -0.595762)
(-0.266379 0.311677 -0.586135)
(-0.26374 0.308389 -0.589958)
(-0.262426 0.311568 -0.584945)
(-0.260477 0.333514 -0.615336)
(-0.253619 0.314983 -0.589243)
(-0.249787 0.311717 -0.570648)
(-0.275374 0.333613 -0.599748)
(-0.270655 0.333674 -0.590121)
(-0.261424 0.334181 -0.595103)
(-0.271343 0.343313 -0.607181)
(-0.263752 0.338003 -0.592943)
(-0.273798 0.354444 -0.63686)
(-0.26367 0.331577 -0.60481)
(-0.268099 0.348306 -0.625571)
(-0.268788 0.324519 -0.588551)
(-0.263945 0.323426 -0.573376)
(-0.254737 0.314046 -0.582018)
(-0.252716 0.310648 -0.57816)
(-0.262161 0.31462 -0.59181)
(-0.25557 0.304568 -0.578127)
(-0.261834 0.315869 -0.57662)
(-0.277971 0.335904 -0.598231)
(-0.2631 0.329023 -0.609114)
(-0.262358 0.326746 -0.601201)
(-0.263716 0.309377 -0.589773)
(-0.272645 0.313737 -0.597598)
(-0.281693 0.343269 -0.612423)
(-0.277486 0.343849 -0.617419)
(-0.272894 0.351454 -0.630854)
(-0.26394 0.341569 -0.62016)
(-0.258623 0.330054 -0.602675)
(-0.269874 0.357467 -0.648561)
(-0.261811 0.327165 -0.613402)
(-0.265816 0.330489 -0.614614)
(-0.258458 0.314193 -0.596189)
(-0.264924 0.315342 -0.610596)
(-0.259174 0.308699 -0.595606)
(-0.293451 0.337655 -0.620312)