/*--------------------------------*- C++ -*----------------------------------*\
| =========                 |                                                 |
| \\      /  F ield         | OpenFOAM: The Open Source CFD Toolbox           |
|  \\    /   O peration     | Version:  v1612+                                |
|   \\  /    A nd           | Web:      www.OpenFOAM.com                      |
|    \\/     M anipulation  |                                                 |
\*---------------------------------------------------------------------------*/
FoamFile
{
    version     2.0;
    format      ascii;
    class       surfaceScalarField;
    location    "50";
    object      phi;
}
// * * * * * * * * * * * * * * * * * * * * * * * * * * * * * * * * * * * * * //

dimensions      [0 3 -1 0 0 0 0];

internalField   nonuniform List<scalar> 
45468
(
5.34695e-09
1.08734e-08
-5.85473e-09
-1.03656e-08
-2.187e-09
4.59822e-09
2.89143e-09
-5.30263e-09
1.99858e-09
-2.87746e-09
6.6284e-10
2.16041e-10
5.21635e-09
-8.24958e-09
5.66116e-09
-2.62788e-09
-1.1653e-09
4.25847e-09
-9.16941e-09
6.07619e-09
5.76595e-09
-6.32278e-09
-1.11972e-09
1.67656e-09
-1.39633e-09
5.96797e-09
-3.20408e-09
-1.36754e-09
-4.24197e-10
-3.00796e-09
3.31018e-09
1.2206e-10
-3.50841e-09
1.089e-09
2.22914e-09
1.90214e-10
-5.69242e-09
2.08636e-09
4.54346e-09
-9.3735e-10
1.22718e-09
4.32438e-09
4.31651e-09
-9.86809e-09
-3.9276e-09
5.00863e-09
-1.08904e-09
8.06926e-12
-2.00987e-09
1.08211e-09
3.74771e-10
5.53231e-10
3.89301e-10
7.24562e-09
3.11809e-09
-1.0753e-08
1.34377e-09
3.09041e-09
7.14164e-10
-5.14833e-09
4.42544e-09
-5.93716e-09
-2.65526e-09
4.16694e-09
1.05971e-08
-5.56524e-09
-1.12832e-08
6.25134e-09
9.88364e-10
-6.9979e-10
-2.78755e-09
-5.31924e-09
1.32905e-08
-8.20277e-09
2.31439e-10
3.17024e-09
-2.00675e-09
-1.28341e-09
1.2004e-10
6.4422e-09
3.96059e-09
9.23039e-10
5.91519e-09
-3.40875e-09
-8.46337e-09
5.95698e-09
1.67418e-09
-6.43994e-09
5.68517e-10
4.19718e-09
-2.72915e-09
3.51751e-09
7.37451e-09
-8.16293e-09
-5.03746e-09
5.88889e-09
3.52737e-09
-4.37881e-09
4.56679e-09
-1.17134e-09
-8.90841e-09
5.51299e-09
-4.03166e-09
2.32199e-09
2.4482e-09
-7.38257e-10
8.72003e-09
-7.32116e-09
-5.37843e-10
-8.60976e-10
-3.25083e-09
3.12968e-09
-3.87767e-09
3.99878e-09
-1.35968e-09
-4.22788e-09
1.8286e-09
3.75896e-09
1.4405e-08
-9.66866e-09
5.85532e-09
-1.05916e-08
6.69631e-10
1.99053e-09
-2.9911e-09
3.30849e-10
1.84533e-09
-1.21935e-08
6.83263e-09
3.51558e-09
-7.53413e-09
8.3628e-09
7.4016e-09
-8.23026e-09
-6.86831e-09
4.19714e-09
9.77313e-10
1.69384e-09
6.48051e-10
-3.98585e-09
3.18441e-09
1.53409e-10
-8.35411e-10
-4.06273e-09
4.65719e-09
2.40788e-10
-3.6152e-09
1.69956e-09
5.73896e-09
-3.82329e-09
4.48434e-09
1.24537e-09
7.39143e-09
-1.31211e-08
5.12358e-09
-6.41167e-09
1.24381e-09
4.42857e-11
-3.40843e-09
5.81086e-09
-8.72776e-09
6.32534e-09
-2.8844e-09
-1.20306e-09
9.78012e-09
-5.69265e-09
-1.26058e-09
5.42608e-09
-2.13501e-09
-2.03045e-09
1.96596e-09
2.32681e-09
-4.4846e-09
1.91733e-10
5.91812e-09
-2.00144e-10
8.30695e-10
-6.54867e-09
4.98922e-09
-6.4795e-09
-6.9849e-09
8.4752e-09
-4.73131e-09
6.33809e-09
1.81247e-09
-3.41925e-09
2.07856e-09
-4.3694e-09
1.50611e-09
7.84754e-10
2.20198e-09
-7.45952e-09
2.94862e-09
2.30891e-09
4.64144e-09
-7.06238e-09
2.89581e-09
-4.74867e-10
8.08732e-09
6.64701e-09
-1.27482e-08
-1.98616e-09
3.12759e-09
-3.76838e-09
3.24835e-10
3.15989e-10
1.06137e-09
1.06238e-08
-8.04609e-09
-3.63909e-09
-2.88459e-10
-3.54135e-09
-2.68284e-09
6.51271e-09
-4.68315e-09
6.19522e-09
-3.49366e-09
1.98163e-09
3.11023e-09
-6.85743e-09
-4.38795e-10
4.186e-09
7.13251e-09
-6.94805e-09
-1.43974e-09
1.25534e-09
-1.10642e-08
2.74079e-09
2.90138e-09
5.42193e-09
-3.66796e-09
-3.06095e-09
2.49952e-09
4.22941e-09
-1.0296e-09
8.95831e-09
2.3562e-10
-8.16431e-09
-2.69388e-09
3.65038e-09
4.73676e-09
-5.69322e-09
-9.81431e-09
1.80439e-09
6.3487e-09
1.6612e-09
2.50555e-09
-1.24786e-08
3.9552e-09
6.01779e-09
-2.58424e-09
-4.80509e-09
4.37812e-09
3.0113e-09
-5.53878e-09
-3.05068e-09
3.8735e-09
4.71594e-09
-4.92919e-09
-4.60131e-09
2.02707e-09
7.50344e-09
-4.57157e-09
-2.90213e-09
4.36384e-09
3.10983e-09
4.64514e-09
-4.53699e-09
-1.61822e-09
1.51011e-09
3.4659e-09
1.60496e-09
-5.22041e-09
1.49626e-10
1.89278e-09
-1.9312e-09
1.85905e-09
-1.82062e-09
-2.87344e-10
2.08493e-09
9.51945e-11
3.22854e-09
2.54716e-09
-1.14724e-09
-4.62845e-09
-1.86964e-09
-3.84077e-09
5.4993e-09
2.11037e-10
1.24878e-09
2.88322e-09
-2.35824e-09
-1.77376e-09
-5.59723e-10
3.10779e-09
7.95379e-10
-3.34346e-09
-2.24533e-09
1.29163e-09
7.68385e-10
1.85256e-10
2.07046e-09
-5.94814e-09
3.0633e-09
8.14399e-10
-5.42836e-09
-3.51641e-09
6.24101e-09
2.70375e-09
4.47372e-09
-9.45725e-09
-2.10994e-09
7.09381e-09
2.92702e-09
6.46504e-09
-9.00276e-09
5.45223e-09
-3.47889e-09
-2.27425e-09
3.00895e-10
4.73204e-09
-7.1963e-09
4.53472e-09
2.2801e-09
-2.02405e-10
-2.11307e-09
3.54292e-11
-1.23361e-09
2.55517e-11
1.285e-09
-7.68945e-11
-7.31267e-09
9.84582e-09
9.83647e-09
-1.23696e-08
-5.24185e-09
-1.08348e-08
1.29346e-08
3.14205e-09
-5.63896e-09
3.83333e-09
3.80422e-09
1.44979e-09
-5.15421e-09
8.20104e-10
7.94073e-09
-7.6988e-09
-8.17912e-09
7.93721e-09
3.48499e-09
4.95955e-09
-4.23151e-09
-4.21302e-09
2.93656e-09
8.34772e-09
-2.73459e-09
-8.54975e-09
2.297e-09
1.42648e-10
-2.54061e-09
1.00951e-10
-1.41003e-09
2.12309e-09
-7.06194e-10
-6.8168e-12
4.15036e-09
-4.69977e-09
4.95204e-09
-4.40261e-09
-4.67372e-09
-4.83284e-09
4.04095e-09
5.46571e-09
2.23842e-09
-4.55965e-09
7.1642e-09
-4.84305e-09
-1.22196e-09
-2.08375e-09
-1.02736e-10
1.80696e-09
-3.08294e-09
4.23965e-09
-2.9637e-09
-4.07526e-09
3.85271e-10
9.47874e-10
2.74196e-09
-2.28016e-09
3.83723e-10
1.77561e-09
1.20304e-10
1.26172e-09
-1.74673e-09
4.77868e-10
7.1025e-12
2.29461e-10
1.41122e-09
5.46296e-10
-2.18694e-09
2.35015e-09
1.09009e-09
-3.50598e-09
6.58307e-11
-5.45891e-09
-5.36632e-09
2.48616e-09
8.33903e-09
3.00105e-09
-1.92179e-09
1.12272e-09
-2.0146e-09
2.28757e-09
-8.35008e-12
-2.64611e-10
-1.74676e-09
-2.89909e-09
-1.35042e-09
5.99639e-09
2.39555e-09
-2.02399e-09
-3.14745e-09
2.77588e-09
-2.27401e-09
-5.52327e-09
3.07782e-09
4.71937e-09
3.46429e-09
-1.04607e-09
-2.4205e-09
2.33872e-12
4.7433e-09
-4.95142e-09
-3.72424e-09
3.93238e-09
1.37426e-09
-4.51807e-09
3.98718e-09
-8.43449e-10
-3.82724e-09
1.54135e-10
2.71079e-10
-1.34332e-09
2.61541e-09
-4.09298e-09
2.82087e-09
1.89947e-10
-2.18689e-09
-4.7474e-09
-3.20934e-09
5.2915e-09
-2.08328e-09
1.11166e-12
5.08808e-09
-4.0753e-09
-8.72206e-10
-1.40562e-10
5.76798e-10
-2.08524e-09
-1.57171e-09
3.08016e-09
6.5423e-09
-3.8163e-09
-8.76731e-09
6.04132e-09
4.93473e-09
-3.11932e-09
-2.89133e-09
1.07593e-09
-5.32209e-09
9.22622e-09
5.69013e-09
-9.59424e-09
1.2014e-09
1.2691e-09
-2.61522e-09
1.44709e-10
-2.76962e-09
2.7397e-09
1.23134e-09
-3.79675e-09
5.69672e-09
5.25072e-09
-7.1507e-09
1.56011e-09
3.93158e-09
-8.58631e-09
3.09461e-09
9.12437e-09
-1.38796e-09
-3.48367e-09
-4.25263e-09
4.67463e-09
1.60052e-09
-6.95622e-09
6.81067e-10
-3.49517e-09
-1.85701e-09
5.44375e-09
-9.15806e-11
-4.60807e-09
3.00637e-09
1.52289e-09
7.88701e-11
2.15808e-10
4.57525e-09
-3.66666e-09
-1.1244e-09
-1.10027e-08
5.31599e-09
4.52134e-09
-1.61727e-09
4.72832e-09
-3.10707e-09
-3.987e-12
1.26806e-09
2.9079e-09
3.54723e-09
-7.72322e-09
-5.84502e-10
5.13305e-09
-4.62919e-09
8.06602e-11
-3.1677e-10
2.05674e-09
-1.98774e-09
2.47781e-10
3.24329e-09
-1.68656e-10
-5.71728e-09
2.64277e-09
7.15632e-09
-5.87873e-09
-1.12481e-09
-1.5276e-10
-5.23827e-09
9.29487e-09
-4.39091e-09
3.34289e-10
9.31963e-09
-8.55889e-09
1.39649e-09
-2.15719e-09
-7.9242e-10
-4.8848e-09
-6.85031e-09
1.25275e-08
-6.54619e-09
3.13081e-09
-4.53845e-09
7.95383e-09
3.08111e-09
-7.98819e-09
6.873e-09
-9.77812e-09
-3.72319e-09
1.14475e-08
2.05389e-09
-4.36246e-09
6.77799e-09
-2.36556e-09
-4.99888e-11
-2.83622e-09
-1.3211e-08
1.0728e-08
1.94524e-09
-2.34936e-09
2.90766e-10
1.13361e-10
2.3084e-09
-1.05653e-09
-1.39792e-09
1.46082e-10
-1.8453e-09
3.88474e-09
8.56428e-10
-2.8959e-09
3.32255e-09
-3.53292e-09
-1.63497e-09
-2.83447e-09
6.2575e-10
3.28447e-09
-1.07577e-09
-1.06924e-09
4.05327e-09
2.63916e-09
-5.62314e-09
-6.70697e-09
5.87878e-09
-1.53642e-09
2.36458e-09
-3.30605e-09
-1.75043e-09
4.02233e-10
4.65421e-09
4.44246e-09
-1.47763e-09
-3.15016e-09
1.85274e-10
-1.53605e-09
5.95146e-09
-3.19923e-09
-1.21619e-09
-8.72329e-10
4.28436e-09
7.29706e-11
7.34391e-09
-7.72675e-09
-6.79192e-09
7.17475e-09
-5.03067e-09
1.27477e-09
-7.87927e-10
4.54383e-09
4.03929e-09
-4.38537e-09
-3.07362e-09
3.4197e-09
-5.17402e-09
2.50532e-09
-2.28634e-09
4.95505e-09
2.11356e-09
3.12704e-09
-4.10125e-09
-1.13936e-09
2.85454e-09
-4.32993e-09
2.09538e-09
-6.19944e-10
-8.4099e-10
-1.83712e-09
-3.15811e-09
5.83633e-09
-3.52597e-09
2.26653e-09
2.32063e-09
-1.06095e-09
1.67989e-09
2.86933e-09
-4.39982e-09
-1.49387e-10
-3.76287e-09
2.57298e-09
1.04965e-09
1.40265e-10
-2.15835e-09
2.28199e-09
3.36999e-09
-3.49358e-09
-2.7434e-09
3.19838e-09
-2.83633e-09
2.38132e-09
-9.08202e-10
1.96131e-09
-3.29846e-09
-1.27325e-09
5.91189e-09
-5.01922e-09
3.80645e-10
6.78476e-09
-3.87098e-09
-2.93565e-09
2.18401e-11
2.06252e-09
4.0081e-10
1.52961e-09
-3.99256e-09
9.1638e-09
-3.10851e-09
-6.23365e-10
-5.43197e-09
2.88023e-09
2.51173e-09
-5.51391e-09
1.21923e-10
4.71402e-09
-5.51367e-09
-5.81587e-09
6.61551e-09
2.0954e-09
1.06387e-09
1.6606e-09
-4.81996e-09
1.03957e-09
-4.39086e-09
1.00575e-10
-2.00034e-09
3.50941e-09
1.95526e-09
6.07652e-09
-1.99814e-09
-8.19159e-09
4.11319e-09
4.34736e-09
1.21448e-09
-1.05425e-09
-4.50764e-09
6.27807e-09
-4.79101e-10
-3.28436e-09
-2.51453e-09
-2.41504e-09
2.135e-09
-7.74671e-09
8.02675e-09
-7.7965e-09
6.16005e-09
1.44933e-09
1.87104e-10
-7.56495e-09
8.23591e-09
2.0901e-09
-2.76107e-09
1.97185e-09
-3.81007e-09
-3.14618e-09
4.98442e-09
-8.16939e-09
4.18572e-09
-2.69101e-09
6.67469e-09
-6.80323e-09
-1.90264e-09
3.89762e-09
4.80826e-09
4.39009e-09
-6.63789e-09
-2.15947e-09
4.40717e-09
-7.19389e-10
8.54939e-10
2.2713e-09
-2.40691e-09
-1.57694e-09
4.1093e-09
-2.82089e-09
2.88531e-10
3.91642e-10
-1.4619e-09
-6.51431e-09
7.58455e-09
1.20309e-09
2.52083e-09
-3.69675e-09
-2.70164e-11
4.31531e-09
-5.30993e-10
-3.81821e-09
3.39194e-11
-3.71572e-09
-1.0979e-09
4.31941e-09
4.9423e-10
5.58886e-09
-4.85574e-09
-8.10187e-09
7.36876e-09
3.06266e-09
-9.26515e-10
2.14053e-10
1.81585e-10
2.27736e-09
-2.51101e-09
5.20317e-11
-1.93269e-09
-6.56497e-10
-1.13503e-09
3.72424e-09
2.44596e-09
-1.1922e-09
-1.56519e-09
3.11546e-10
-2.38142e-09
2.42319e-10
2.04628e-09
9.2908e-11
1.01191e-09
-2.44109e-09
2.80342e-09
2.79564e-09
5.20483e-09
-8.06237e-09
6.20131e-11
-2.11404e-09
1.14805e-08
-1.23528e-08
2.98642e-09
5.06352e-09
-7.12606e-09
-5.13752e-11
-2.75924e-09
1.92748e-09
8.36401e-10
-4.27582e-12
-2.61592e-09
-4.97002e-09
2.4473e-09
5.13896e-09
5.58913e-10
-9.95811e-10
-2.14729e-09
-1.31011e-09
2.41408e-09
1.5779e-10
5.85096e-09
-1.74256e-09
3.72475e-09
-7.83298e-09
-4.73066e-09
3.57622e-09
9.55654e-10
1.98713e-10
-9.43772e-09
2.21233e-09
4.38175e-09
2.84367e-09
-5.77462e-09
4.3495e-09
-5.81351e-09
7.23861e-09
-4.52087e-09
-4.57549e-09
7.5986e-09
1.49776e-09
-2.24214e-09
-3.23848e-09
-5.26723e-10
7.852e-09
5.59697e-10
-4.88108e-09
-3.53053e-09
1.32422e-09
-4.37308e-09
3.10997e-09
-6.11324e-11
5.77436e-09
1.32984e-09
-3.2504e-09
-3.8538e-09
4.37073e-09
-5.22221e-09
1.7354e-09
-8.83642e-10
-2.95733e-09
1.69482e-10
2.82387e-09
-3.59376e-11
-2.99061e-09
-6.28718e-10
3.54476e-09
7.46396e-11
2.49587e-09
-4.79087e-09
4.30919e-09
-2.01418e-09
4.17096e-09
-1.97215e-09
-2.26616e-09
6.7382e-11
2.47484e-10
-3.36293e-09
7.28641e-09
-8.52848e-09
5.12423e-09
5.90981e-09
1.87525e-09
-3.75022e-09
2.08778e-09
-2.12763e-10
2.82249e-09
3.50619e-09
-6.04742e-09
-2.8137e-10
4.26505e-09
3.48502e-09
-4.86986e-09
5.1439e-09
2.23087e-09
-1.03566e-08
2.9819e-09
-2.19804e-09
3.76629e-09
6.5104e-09
-8.07862e-09
4.68265e-09
-4.51965e-09
1.03012e-09
-1.19311e-09
-1.0936e-09
-4.99288e-09
3.58208e-09
2.50442e-09
4.87617e-09
-2.1254e-10
-1.41767e-09
-3.24583e-09
1.28828e-09
8.04752e-10
5.13545e-09
-7.22832e-09
3.93882e-10
-5.59584e-09
5.31828e-09
-1.16318e-10
3.17918e-10
1.70847e-09
2.96297e-09
-3.48903e-09
-2.33392e-09
2.55406e-09
3.26884e-09
-2.67507e-09
-1.47771e-09
4.20136e-09
-4.85676e-11
7.06494e-09
-8.5147e-09
-5.49015e-09
6.93993e-09
4.41523e-09
-1.83524e-09
-2.69219e-09
1.122e-10
-4.49002e-09
-2.27442e-09
4.72557e-09
2.0392e-09
5.72815e-09
-2.49312e-09
-6.00395e-09
2.76893e-09
-3.78249e-10
3.88875e-10
-5.24464e-09
-3.5096e-09
-6.89288e-09
8.18758e-09
2.21488e-09
-3.49676e-09
-3.00358e-09
6.55709e-09
-5.67396e-11
1.56798e-09
-1.20605e-09
5.33257e-09
-5.69451e-09
-3.52488e-09
5.35639e-09
-1.77563e-09
-5.58867e-11
-3.35752e-09
-6.59672e-09
7.901e-09
2.05323e-09
-5.5801e-09
4.66971e-10
-6.08847e-11
-2.96902e-09
3.77902e-09
-5.46823e-09
4.65822e-09
-3.25181e-09
-3.50107e-10
3.6375e-09
-3.55919e-11
9.19626e-09
-4.55173e-09
1.09306e-09
-5.73758e-09
6.06017e-10
-2.33851e-09
3.64484e-09
-1.91226e-09
-2.92226e-10
-9.18028e-10
3.01241e-09
-1.80179e-09
-1.28434e-09
2.37021e-09
-3.75974e-09
2.6739e-09
-4.49377e-09
4.80082e-09
5.5135e-10
-8.5813e-10
-2.57874e-09
-5.10849e-10
-2.7657e-09
-5.77224e-09
2.19369e-09
3.00602e-09
5.72489e-10
-1.75613e-09
4.48871e-10
-5.69137e-09
6.99864e-09
-5.96308e-10
-4.31164e-09
4.83344e-09
7.45095e-11
1.06557e-08
-8.27808e-09
7.77379e-09
-1.01515e-08
-9.12103e-09
2.76459e-09
-5.11866e-10
-8.21158e-11
-6.43282e-09
-1.2116e-10
6.63607e-09
3.96881e-09
3.56105e-09
-3.33275e-09
-1.76265e-09
7.4153e-10
-2.68455e-09
3.7057e-09
-1.4364e-09
-1.12515e-08
7.95621e-09
4.73166e-09
-7.28695e-09
2.53606e-09
-4.29457e-09
9.04547e-09
1.04579e-08
-5.92809e-09
-6.45933e-09
1.92951e-09
3.11124e-09
4.35431e-09
6.36751e-10
5.99936e-09
1.11377e-10
-7.63846e-10
-6.41937e-09
5.3744e-09
1.18059e-09
-1.35617e-10
2.28023e-09
-6.35405e-09
-2.72941e-09
8.24218e-09
2.81701e-10
-2.56174e-09
-5.96212e-09
-2.64892e-09
-1.52099e-09
3.94042e-09
2.29497e-10
4.77998e-09
-8.8715e-10
-4.07229e-09
1.79478e-10
-3.27568e-09
4.00346e-09
-9.44823e-10
2.17106e-10
-2.71981e-09
3.63664e-09
1.2487e-09
-2.16552e-09
-9.41315e-09
6.75782e-09
4.21548e-09
-3.47997e-09
-4.00753e-09
2.14196e-09
5.34551e-09
-3.17998e-09
1.23422e-09
1.92021e-09
2.57188e-11
-4.0186e-09
3.14937e-09
-1.76749e-10
2.57524e-11
4.40857e-09
-4.37695e-09
-5.73153e-11
3.13291e-09
6.30821e-09
-3.48734e-09
-5.95377e-09
7.66989e-09
-8.5578e-10
-6.68491e-09
-1.29189e-10
1.15409e-08
-3.02143e-09
-1.7363e-09
-6.78314e-09
7.02118e-09
-3.97108e-09
-2.94402e-09
-1.06089e-10
7.49685e-09
-1.09271e-09
-6.36478e-09
-3.93639e-11
3.11035e-09
4.71216e-09
-4.69489e-09
2.15959e-09
-2.66791e-09
5.4966e-10
-4.12709e-11
2.52686e-09
-7.67199e-09
4.93842e-09
2.06767e-10
1.8337e-09
2.65966e-11
6.66613e-10
4.62033e-09
-6.12877e-09
-4.22742e-10
2.73412e-10
1.94181e-09
-2.05644e-09
-1.58822e-10
-3.88553e-09
-2.40333e-09
4.93466e-09
1.35435e-09
-4.9719e-10
-9.25776e-10
-2.46237e-09
2.36849e-11
-2.05778e-09
9.01276e-11
1.94421e-09
-1.90502e-09
-2.9149e-09
4.6025e-09
2.17455e-10
-1.6989e-09
-7.98245e-09
6.6353e-09
3.04613e-09
3.05365e-09
6.3607e-10
-3.87114e-09
1.81365e-10
-2.37541e-09
-4.28752e-09
1.92467e-09
4.73821e-09
-6.22907e-09
2.73654e-09
-8.19967e-10
4.31254e-09
1.8746e-09
-6.5126e-10
-5.87504e-09
4.65175e-09
-5.20608e-09
1.79238e-09
3.68622e-09
-2.72529e-10
2.09792e-09
4.35551e-09
-1.83302e-09
-3.8639e-09
-3.31174e-09
7.27099e-09
-9.53297e-11
-5.51898e-09
1.50627e-09
1.2028e-09
2.80988e-09
4.70605e-09
-8.49576e-09
-6.47963e-09
1.02694e-08
3.52701e-09
7.40381e-09
-4.25388e-09
-6.67694e-09
-3.45259e-09
4.58236e-09
4.19648e-09
-5.32625e-09
-3.16661e-09
-4.65403e-11
-2.94215e-09
6.15532e-09
2.78064e-09
-8.92905e-10
-4.85269e-09
2.96509e-09
-2.6204e-09
-4.23052e-10
8.6057e-11
1.57188e-09
3.59185e-09
-4.65564e-09
-5.08063e-10
-2.44265e-09
4.16127e-09
-1.46735e-10
4.21364e-10
-3.53077e-09
3.21648e-09
-1.07007e-10
2.44489e-09
-7.08466e-10
-1.8037e-09
6.7337e-11
-3.23172e-09
3.85536e-09
-2.20567e-09
1.58203e-09
3.33438e-09
-9.01372e-10
6.6604e-09
-9.09339e-09
-2.94885e-11
1.91681e-09
-1.77943e-09
-1.07749e-10
-3.82952e-09
-1.03514e-09
7.36997e-09
-1.85763e-09
4.65507e-09
-1.54972e-09
-1.24772e-09
-4.9829e-09
-4.84571e-09
4.56682e-09
5.26178e-09
-4.61534e-09
3.82051e-10
4.24371e-09
-1.04093e-11
3.99787e-09
3.06921e-09
-5.24174e-09
-1.82528e-09
-6.79109e-10
-1.22317e-09
1.55588e-10
-2.15211e-09
5.44247e-09
7.58311e-09
-1.92869e-09
-8.82773e-10
2.74176e-09
6.98728e-11
6.19037e-09
-6.58007e-09
3.65232e-09
-3.2626e-09
-7.20931e-09
3.6361e-09
-2.97297e-09
4.87427e-09
-1.85755e-09
3.67323e-09
-6.68995e-09
9.14053e-09
2.94352e-09
-5.15297e-09
-6.93107e-09
-1.06143e-08
4.11407e-09
6.74983e-09
-2.4957e-10
3.17376e-09
-2.05554e-09
-7.19627e-09
6.07798e-09
-2.19352e-09
-6.70697e-09
1.22318e-09
7.67732e-09
6.96299e-09
-1.92664e-09
-4.99929e-09
-3.70499e-11
-1.77291e-09
-9.39513e-09
8.85481e-09
2.31329e-09
-2.97865e-09
5.64925e-09
2.65954e-10
-4.82193e-09
-2.28995e-09
4.34224e-09
-2.35716e-09
5.56265e-09
3.10451e-09
-6.30992e-09
6.96216e-10
-4.2729e-10
2.16027e-09
-2.42914e-09
-2.28177e-09
1.81301e-09
1.51983e-10
-2.89861e-09
-3.01986e-09
6.06358e-09
-1.45085e-10
-6.37298e-09
3.71408e-09
-2.39723e-10
7.0145e-09
-3.29637e-09
-3.94414e-09
2.26078e-10
2.67395e-09
-2.6447e-09
6.32629e-09
-6.35555e-09
1.59968e-09
3.0925e-09
1.09717e-09
-5.78937e-09
-2.86012e-10
3.69034e-09
-3.27017e-09
-1.34219e-10
3.95231e-09
-5.60201e-09
-3.17514e-10
1.96722e-09
-3.29402e-09
3.21121e-09
-2.03235e-10
-2.48113e-09
1.19048e-09
4.98088e-09
4.26709e-09
-3.63721e-09
-7.05015e-10
7.51438e-11
5.24889e-09
-4.48243e-09
-8.56877e-10
9.03921e-11
-1.11972e-09
3.61773e-09
-2.21575e-09
-2.8224e-10
1.69113e-09
-4.94918e-09
3.33079e-09
-7.27395e-11
8.86152e-10
1.34259e-09
-2.47191e-09
2.43316e-10
-4.47871e-09
4.46603e-09
2.94406e-09
-2.93131e-09
5.92469e-10
-2.15565e-09
-2.91545e-09
-1.70649e-09
3.10859e-09
-1.51307e-09
1.11012e-10
-3.17079e-09
5.34029e-09
-2.2594e-09
8.98703e-11
1.05266e-09
-3.70896e-09
2.69025e-09
-3.38815e-11
9.54456e-10
1.24014e-09
-8.10234e-11
3.84535e-09
-1.77038e-09
1.05209e-09
-1.98756e-09
-7.03003e-10
2.53843e-09
1.52147e-10
1.50289e-09
-5.8182e-09
1.47904e-09
-8.77112e-09
-3.81387e-09
8.34443e-09
4.24056e-09
-7.60034e-09
-3.75346e-09
3.22643e-09
8.12742e-09
-2.6979e-09
5.47536e-09
-2.68753e-09
-8.98796e-11
-4.3961e-09
-2.59167e-09
1.01007e-09
5.97771e-09
5.64098e-09
-5.03508e-09
-6.24764e-10
1.88635e-11
-6.08879e-09
2.6514e-09
-4.26501e-10
3.36119e-09
-6.55301e-09
-3.33045e-10
-1.38975e-09
-1.54729e-09
4.66477e-09
-1.72785e-09
2.11638e-09
-2.08645e-09
-3.29873e-09
3.26878e-09
-1.071e-09
4.35222e-09
-3.56256e-09
2.81348e-10
1.64683e-09
-8.54667e-10
1.93747e-09
-2.72966e-09
2.87376e-09
-1.83093e-09
-4.74304e-09
3.70019e-09
7.19422e-09
-5.39218e-10
-4.28224e-09
-2.37277e-09
-1.0912e-09
3.10683e-09
2.48846e-09
-4.50422e-09
2.12319e-09
1.60608e-09
-3.94135e-09
2.12064e-10
-7.39456e-09
2.12817e-09
1.06324e-08
-5.36601e-09
-4.88011e-09
4.69857e-09
-7.75887e-10
9.57437e-10
-5.174e-09
6.86701e-09
-1.80094e-09
1.07939e-10
-7.16802e-09
3.07569e-09
-1.14546e-10
4.20688e-09
7.52359e-09
-6.35142e-09
-5.53462e-09
-1.15606e-09
-2.60724e-09
3.93055e-09
-1.6735e-10
-6.87782e-09
2.19536e-09
5.02603e-09
-3.43593e-10
-2.40678e-09
-2.54837e-09
2.78173e-09
2.17347e-09
-7.78419e-10
-1.63467e-09
2.33683e-09
7.64635e-11
-4.19698e-09
7.71992e-10
1.56076e-09
1.86419e-09
-5.67617e-10
-1.74985e-09
2.35472e-09
-3.72278e-11
-1.88118e-10
2.31372e-09
-1.42937e-09
-1.96451e-09
3.39974e-10
1.79166e-09
-1.66934e-10
-1.79366e-09
1.45924e-09
-1.7972e-09
2.13151e-09
6.93917e-10
2.28673e-09
-3.03529e-09
5.46845e-11
-2.69634e-09
2.92251e-09
-3.19759e-10
9.36631e-11
2.33747e-09
-5.76808e-09
3.07565e-09
3.54894e-10
-3.84409e-09
3.24752e-10
7.1761e-09
-3.65669e-09
1.57301e-09
-7.54847e-10
-4.37276e-09
3.55458e-09
3.16316e-10
-2.0345e-09
-2.12583e-09
-2.16189e-09
-3.1084e-09
4.20692e-09
1.06332e-09
3.61131e-09
1.527e-09
-7.42465e-09
-2.25683e-09
-1.97601e-09
1.2731e-09
2.95971e-09
-1.43782e-09
4.31786e-09
-3.06813e-09
-1.45547e-09
-2.58708e-09
6.43809e-09
6.79452e-09
-5.08889e-09
-8.64511e-09
6.93948e-09
-7.32964e-09
2.13956e-09
5.73216e-09
-5.42052e-10
2.88569e-10
3.78514e-09
-1.902e-09
-2.1716e-09
6.37513e-09
-2.42295e-09
-9.84585e-10
-2.96752e-09
4.85878e-09
7.88502e-09
-6.36875e-09
-2.91814e-09
7.73578e-10
-3.23306e-09
5.37764e-09
-2.85172e-09
4.12793e-09
-4.58227e-09
-8.01768e-09
3.29967e-09
5.03466e-09
-3.16603e-10
3.00144e-09
-6.53158e-09
4.06729e-09
-5.37147e-10
-1.41824e-09
-1.3341e-09
3.04095e-09
-6.5267e-10
1.24865e-09
2.64751e-09
5.04777e-09
-4.80243e-09
-9.69049e-11
-1.48427e-10
2.48863e-09
-3.48206e-09
2.45071e-09
-1.45716e-09
-3.15163e-09
-3.65149e-09
6.44127e-09
3.61886e-10
-5.75035e-09
2.24185e-09
3.42258e-09
8.60551e-11
-3.14464e-09
-1.91237e-09
5.37218e-09
-3.15122e-10
-6.68003e-09
-3.26346e-10
2.05867e-09
1.23623e-09
-3.06109e-09
-2.33783e-10
3.21885e-09
-5.66309e-09
4.28955e-09
-2.99591e-09
-1.66944e-09
4.44086e-09
2.24488e-10
5.92586e-09
-2.86466e-09
-4.39626e-09
1.33499e-09
-6.54477e-09
2.00223e-09
3.90081e-09
6.41538e-10
4.63438e-09
-8.95802e-09
6.07909e-10
7.99744e-09
-4.18914e-09
-1.28614e-09
-2.52215e-09
4.62436e-09
5.34999e-09
-5.03643e-09
-4.9379e-09
6.43735e-09
-3.57837e-09
-8.11865e-09
5.25968e-09
3.96333e-09
-2.57084e-09
-1.31724e-09
-7.50765e-11
5.95168e-09
1.08056e-09
-4.3141e-09
-2.71801e-09
1.15754e-09
-1.10786e-09
-1.17856e-09
1.12893e-09
4.28859e-09
-1.81335e-09
-2.56155e-09
8.63413e-11
7.12124e-09
-3.85241e-09
2.77918e-09
-6.048e-09
4.95229e-09
5.68203e-10
-2.036e-09
-3.48444e-09
-1.66714e-09
-9.25617e-10
2.53529e-10
2.33928e-09
-1.35929e-10
4.09289e-09
2.64212e-09
-2.14499e-09
3.81913e-09
-4.31629e-09
-2.49745e-09
3.27291e-10
2.36153e-09
-1.91151e-10
-3.02714e-09
-1.24331e-09
4.22781e-09
4.29211e-11
-8.48959e-10
2.59806e-09
-4.43611e-09
2.68722e-09
-4.42911e-09
3.22491e-09
-5.72585e-10
1.77679e-09
-3.18811e-09
-1.10123e-09
3.86373e-09
4.25685e-10
-1.49605e-09
9.08958e-09
-2.63254e-09
-4.96098e-09
2.23782e-09
-2.2723e-09
4.10503e-09
-4.07052e-09
5.85456e-09
-5.02411e-09
-8.90718e-10
6.02918e-11
4.23411e-09
5.95944e-09
-2.94519e-09
-7.24837e-09
9.37141e-10
1.21815e-09
9.73965e-10
2.13483e-09
-2.17541e-09
-1.89741e-10
2.30335e-10
7.40736e-09
1.64723e-09
-4.4878e-09
3.89656e-09
9.15328e-10
-3.18778e-11
-3.25384e-09
-3.09714e-09
6.66731e-09
2.96386e-09
-5.52687e-09
2.52768e-09
3.52674e-11
3.09613e-09
-3.96113e-09
9.48296e-10
-8.32977e-11
-3.97509e-10
-2.79805e-09
3.11395e-09
8.16017e-11
-4.14602e-09
3.80063e-09
-5.21286e-11
1.83357e-09
-4.23695e-09
5.29356e-09
-2.89017e-09
-1.55143e-09
3.0929e-09
-1.7237e-09
1.8221e-10
-3.14351e-09
-8.99215e-10
-1.56761e-09
2.55277e-09
-8.59356e-11
4.45476e-09
-1.35455e-09
-3.01298e-09
-8.7236e-11
-3.7345e-09
7.95237e-09
-9.29677e-10
-3.28818e-09
-1.42432e-09
-2.40789e-09
9.77109e-11
-4.94221e-09
6.42669e-09
-4.49431e-09
3.00986e-09
3.2798e-09
-4.05282e-09
3.8267e-09
-2.34232e-09
-1.75554e-09
3.78076e-09
3.17122e-10
-1.95558e-09
-7.51002e-10
9.5011e-09
-3.16408e-09
3.0065e-09
1.18496e-10
3.90989e-11
-1.39173e-09
-3.9521e-10
-1.50697e-09
4.94031e-09
-6.10934e-09
-3.00774e-09
4.17679e-09
2.28756e-10
1.06792e-09
-1.39085e-10
-2.39204e-10
-6.92075e-10
-1.76791e-10
-2.9802e-09
3.55884e-09
3.20669e-09
-2.28521e-09
4.52046e-10
-1.81452e-10
-1.43807e-09
-2.23327e-09
-1.14104e-09
4.81239e-09
-3.04805e-09
9.86408e-10
2.10744e-09
-4.56507e-11
4.23984e-09
-7.14105e-10
-4.04143e-09
1.23162e-09
2.70302e-09
1.06794e-10
3.69139e-09
-2.27228e-09
3.15273e-09
-4.57187e-09
-4.03026e-09
3.67046e-09
6.80015e-10
-3.20165e-10
-3.02718e-10
-4.61033e-09
8.8278e-10
-2.43162e-09
2.39131e-09
4.92595e-09
-4.88563e-09
2.42272e-09
3.83547e-09
-5.88569e-09
-3.72492e-10
-2.17036e-09
-2.64072e-09
5.14369e-09
-3.32568e-10
-4.47654e-09
2.94647e-09
-6.40255e-10
3.72976e-09
-5.803e-09
8.94695e-09
-6.87369e-09
-5.60296e-09
8.98827e-09
-2.22776e-10
-3.16249e-09
-5.19143e-09
5.64043e-09
-5.50853e-11
2.35235e-10
-3.38631e-09
3.35983e-09
-2.08697e-10
6.5428e-10
-1.90637e-09
-3.22378e-11
-1.07823e-09
-3.75158e-09
2.96016e-09
-1.02884e-09
5.14026e-09
6.23997e-09
-1.03514e-08
-3.23757e-09
3.12178e-09
2.08409e-10
-9.25909e-11
4.17241e-09
5.47113e-09
-7.38798e-09
-2.25553e-09
6.11298e-09
2.94e-09
-1.25954e-09
-7.79344e-09
-2.71437e-09
1.64817e-09
9.64579e-10
1.01441e-10
1.78184e-09
-2.79264e-09
9.47914e-10
6.29861e-11
1.40511e-09
-4.65967e-09
3.41175e-09
-1.57156e-10
4.27356e-09
-1.95571e-09
-2.718e-09
4.00188e-10
2.22797e-09
-2.73595e-09
6.56312e-10
-1.48315e-10
-5.25636e-09
4.32338e-09
4.58339e-11
1.06945e-10
6.00004e-09
-1.63366e-09
-4.47333e-09
-3.65121e-09
6.98604e-09
-1.23625e-09
-2.09848e-09
3.89877e-09
-5.86117e-09
1.91661e-09
4.58324e-11
-1.71619e-09
8.96111e-09
-1.03615e-08
3.1166e-09
-2.17604e-09
-4.82904e-09
3.5209e-09
3.48415e-09
5.64974e-09
1.5362e-09
-2.83861e-09
-3.11554e-09
2.26751e-09
7.13926e-10
1.34395e-10
9.75944e-10
3.1454e-12
6.70006e-10
-1.64902e-09
5.68363e-09
3.60257e-10
-4.7001e-09
-3.96945e-09
7.01435e-09
-2.81e-09
-2.34794e-10
-2.13891e-09
-1.15033e-09
6.59135e-09
-3.3021e-09
1.30888e-09
-5.90256e-09
3.52449e-09
-1.62818e-09
1.72289e-10
-2.21111e-09
1.40424e-09
7.59044e-10
4.81315e-11
-5.27547e-09
1.21227e-09
8.83336e-10
-1.69976e-09
2.77222e-09
-3.47982e-09
2.40737e-09
5.5938e-09
2.26e-09
-1.80903e-09
-6.04472e-09
7.43001e-10
-6.09543e-09
2.78957e-09
2.56293e-09
2.27488e-09
2.27962e-09
-5.3042e-09
7.49634e-10
-4.21093e-09
3.75863e-09
-2.68995e-09
3.14227e-09
7.82529e-09
-2.54705e-09
-1.75761e-09
-3.52064e-09
-2.33425e-09
-2.09278e-09
4.15384e-09
2.73199e-10
-1.88821e-09
-1.56775e-09
4.34657e-09
-8.90755e-10
2.15495e-09
-6.41551e-09
6.21471e-09
-1.95414e-09
-5.27889e-10
-1.55845e-09
2.07707e-09
9.27634e-12
2.18385e-09
-6.95436e-09
2.03694e-09
2.73366e-09
-3.8211e-09
-2.11235e-10
-1.06192e-09
5.09427e-09
-6.53653e-09
5.54121e-10
4.22629e-09
-9.15955e-10
2.27851e-09
-1.62407e-09
2.61527e-10
1.82716e-09
-7.36537e-09
1.49684e-09
-4.25652e-09
1.80903e-09
-2.8169e-10
8.11464e-09
2.56696e-09
-2.75833e-09
-7.92328e-09
-2.38527e-09
-4.09951e-09
1.60944e-09
4.87536e-09
-2.00773e-09
-3.65231e-09
4.66138e-09
9.98684e-10
-6.53764e-10
-1.65587e-09
9.85969e-11
1.07572e-09
-1.06341e-09
1.30896e-10
-1.43226e-10
4.36335e-10
-2.03273e-09
1.46372e-09
1.32663e-10
-2.89821e-09
1.60861e-10
-2.64513e-09
5.38249e-09
-2.4654e-09
4.55535e-09
-3.12712e-11
-4.94633e-09
-6.67383e-09
6.18433e-09
5.43583e-09
-5.40748e-10
5.99699e-10
-4.6743e-09
-1.47354e-09
3.45754e-09
-1.08726e-10
-4.37979e-09
6.62054e-09
-2.36297e-09
1.22192e-10
2.18271e-09
1.15917e-09
-3.34391e-09
1.99522e-12
-7.30482e-10
-2.17233e-09
1.43627e-10
7.74328e-10
-3.27114e-09
2.84378e-09
-3.46886e-10
1.87238e-09
7.77092e-10
-2.62949e-09
-1.97556e-11
2.83253e-09
-2.93841e-09
-3.18127e-09
3.28711e-09
6.31304e-10
-1.94249e-09
1.26862e-09
4.26565e-11
2.43109e-09
-1.31546e-09
-4.86549e-09
3.7499e-09
-2.6194e-09
1.5914e-09
1.05115e-09
-2.30552e-11
-1.31824e-09
2.56201e-09
-2.47339e-09
1.22969e-09
4.03272e-09
-2.41981e-09
-1.86146e-09
2.48576e-10
-4.82574e-09
2.87325e-09
2.09815e-09
-1.45726e-10
-1.12792e-09
3.27255e-09
-2.03648e-09
-1.08109e-10
-2.87189e-09
-2.21078e-09
7.62548e-09
-2.54283e-09
1.96233e-09
-3.83635e-09
2.04366e-09
-1.69645e-10
1.02137e-09
1.74714e-09
-2.44701e-09
-3.21498e-10
9.65019e-10
-7.978e-09
2.39361e-09
4.61937e-09
-9.42374e-11
-7.4322e-09
2.85276e-09
4.44455e-09
-7.23619e-09
7.34373e-09
-4.5521e-09
3.35588e-09
-6.72642e-09
-2.44652e-10
3.86639e-09
9.3051e-12
-1.45893e-10
-6.84635e-09
4.49087e-09
-1.63527e-09
3.99078e-09
-1.47552e-09
-1.06475e-09
-3.26263e-09
4.01107e-09
5.35558e-09
-7.35047e-09
-2.01615e-09
-5.56657e-09
-5.30054e-09
3.19511e-09
1.19428e-09
5.69895e-09
-5.03909e-09
-1.85408e-09
-8.49616e-12
-1.14779e-09
1.11252e-09
4.38631e-11
7.22231e-09
-5.89449e-09
1.73379e-10
-1.5012e-09
6.73963e-09
-4.25617e-09
-4.94887e-09
-2.12126e-09
3.40703e-09
-1.98807e-09
7.02254e-10
-8.4763e-10
1.82044e-09
2.56918e-09
7.59646e-09
-4.6198e-09
-1.15193e-08
8.54262e-09
6.64882e-10
-3.19897e-09
-8.62948e-11
4.37534e-09
-6.66001e-09
-8.19171e-10
3.10411e-09
-1.64384e-09
7.32966e-09
-5.85885e-09
1.73017e-10
-5.38991e-09
1.06713e-09
2.29876e-09
5.08615e-09
-4.36602e-09
-9.38113e-10
2.1801e-10
3.60471e-09
-3.25463e-09
4.52218e-09
-4.87228e-09
4.45131e-09
2.74382e-09
-5.52096e-09
-2.6756e-10
2.81879e-09
1.22725e-10
-2.29941e-09
-8.36789e-10
2.99588e-09
1.40244e-10
-5.62526e-09
3.3869e-09
2.92796e-09
-6.89597e-10
-2.23229e-09
-2.29053e-09
4.53528e-09
-1.24521e-11
-6.50838e-09
2.75084e-09
-3.0237e-09
6.78124e-09
-8.70528e-10
-3.43137e-09
-2.20648e-09
7.16862e-11
-1.82419e-09
-2.21167e-09
3.9642e-09
-1.78778e-09
-2.06808e-09
3.84176e-09
1.41331e-11
2.99277e-09
5.1563e-09
-1.96708e-10
1.72784e-09
-2.84082e-09
8.97552e-09
-7.86253e-09
4.69848e-09
7.34734e-10
-5.06312e-09
-3.70047e-10
7.36294e-10
-3.88663e-09
4.35686e-09
-1.20651e-09
-1.35151e-09
3.17713e-09
-2.05826e-09
2.32678e-10
-4.98186e-09
7.07266e-09
-2.0505e-09
-4.02772e-11
-4.62351e-10
1.54864e-09
-9.52553e-10
-1.3371e-10
-4.04644e-09
1.30558e-09
2.95904e-09
-2.17904e-10
1.86879e-09
3.41204e-09
-4.06555e-10
-7.74189e-11
-3.15815e-09
3.33263e-09
-9.72337e-11
-2.29973e-09
9.72973e-10
4.02808e-09
-2.70132e-09
-1.84561e-09
-1.73492e-09
2.16232e-09
3.41242e-09
-2.52366e-09
-4.63327e-09
3.74453e-09
-3.67056e-09
1.59143e-10
5.88223e-11
-2.38599e-09
-9.4244e-10
5.35169e-09
-2.02325e-09
-3.93441e-09
5.84849e-09
-6.31018e-09
1.12118e-09
1.76641e-09
-2.67724e-09
-2.10334e-10
2.36714e-11
3.40179e-09
-3.4604e-09
3.49242e-11
-9.03078e-10
2.45602e-09
2.54014e-10
-9.228e-10
-2.50162e-09
1.48735e-10
-2.91465e-09
-3.07134e-09
5.716e-09
2.69941e-10
-5.66386e-09
8.04182e-09
3.54785e-09
-8.30535e-10
-1.1402e-09
1.72956e-09
2.41255e-10
-2.57558e-09
5.44909e-09
3.00268e-10
6.25528e-09
-2.73828e-09
-3.73747e-09
2.20477e-10
2.7457e-09
-6.54089e-09
3.97835e-09
-1.831e-10
1.81185e-09
-1.4772e-09
-1.95785e-10
-1.38927e-10
-9.35814e-09
6.78136e-09
-1.81353e-09
4.39031e-09
1.013e-08
-7.20112e-09
6.38795e-11
-1.58611e-09
1.97086e-09
-3.09189e-09
2.70772e-09
3.37505e-09
1.40832e-09
-1.92084e-09
-2.86249e-09
3.93891e-09
8.60604e-09
-6.694e-09
2.97382e-09
-2.26362e-09
-8.81799e-10
1.71681e-10