/*--------------------------------*- C++ -*----------------------------------*\
| =========                 |                                                 |
| \\      /  F ield         | OpenFOAM: The Open Source CFD Toolbox           |
|  \\    /   O peration     | Version:  v1612+                                |
|   \\  /    A nd           | Web:      www.OpenFOAM.com                      |
|    \\/     M anipulation  |                                                 |
\*---------------------------------------------------------------------------*/
FoamFile
{
    version     2.0;
    format      ascii;
    class       volVectorField;
    location    "50";
    object      U;
}
// * * * * * * * * * * * * * * * * * * * * * * * * * * * * * * * * * * * * * //

dimensions      [0 1 -1 0 0 0 0];

internalField   nonuniform List<vector> 
21110
(
(0.263149 0.0106561 -0.794219)
(0.299543 -0.192198 -0.784909)
(0.210262 0.00920804 -0.486429)
(0.234584 0.0130294 -0.728233)
(0.232544 0.117038 -0.870001)
(0.321497 -0.0701171 -0.816127)
(0.274394 -0.0127327 -0.728292)
(0.149876 0.117593 -0.589559)
(0.176942 0.0438544 -0.584201)
(0.241704 0.182705 -0.64646)
(0.208114 0.0394746 -0.709069)
(0.197213 -0.0647016 -0.441902)
(0.195159 0.20095 -0.611533)
(0.315818 -0.210657 -0.884923)
(0.280224 -0.0889238 -0.756198)
(0.29959 -0.149245 -0.862775)
(0.289267 -0.100075 -0.819536)
(0.182785 0.0698019 -0.53499)
(0.25609 -0.066521 -0.697092)
(0.247495 -0.11565 -0.517634)
(0.293615 -0.259522 -0.806703)
(0.199383 0.0389573 -0.785422)
(0.198733 0.0672143 -0.697932)
(0.252379 -0.16975 -0.710643)
(0.326598 -0.0256545 -0.950787)
(0.315886 -0.15253 -0.852715)
(0.204934 -0.0232133 -0.637601)
(0.241792 -0.043208 -0.639206)
(0.224017 -0.0311708 -0.574435)
(0.258078 -0.0219818 -0.720589)
(0.238101 -0.0173342 -0.79519)
(0.180971 0.0572232 -0.560065)
(0.32709 -0.0486137 -0.87161)
(0.252027 0.0239337 -0.791777)
(0.249573 0.0728312 -0.77532)
(0.188215 0.0736705 -0.660977)
(0.176395 0.054962 -0.584249)
(0.260924 -0.170203 -0.715562)
(0.264589 -0.228407 -0.813848)
(0.244376 -0.218145 -0.749319)
(0.315085 -0.0319696 -0.831212)
(0.27952 -0.0568745 -0.702867)
(0.234884 -0.043569 -0.553314)
(0.233169 0.0762891 -0.542153)
(0.185246 0.0628469 -0.679171)
(0.231302 0.131009 -0.705175)
(0.242287 -0.123852 -0.71429)
(0.270843 -0.131224 -0.643462)
(0.315575 -0.171394 -0.82487)
(0.320897 -0.157098 -0.824457)
(0.301657 -0.136106 -0.809801)
(0.220259 0.0718253 -0.645975)
(0.253159 -0.0476255 -0.682957)
(0.283408 -0.0501017 -0.712255)
(0.267277 -0.0456441 -0.603947)
(0.252739 -0.213687 -0.758466)
(0.308301 -0.21692 -0.814849)
(0.2786 0.02236 -0.775342)
(0.268384 -0.115211 -0.528623)
(0.185774 -0.212235 -0.682763)
(0.217568 0.151603 -0.709989)
(0.296021 -0.102896 -0.802327)
(0.272719 -0.0975429 -0.753479)
(0.270804 -0.08163 -0.577298)
(0.250511 -0.0506081 -0.731457)
(0.228953 -0.0436796 -0.666659)
(0.249281 -0.0741803 -0.643288)
(0.27978 -0.0408168 -0.619711)
(0.243841 -0.000314921 -0.532808)
(0.195659 0.0119769 -0.554585)
(0.188249 0.0251072 -0.530995)
(0.260153 0.0403805 -0.601029)
(0.251812 -0.00371852 -0.560169)
(0.252955 -0.0644205 -0.637678)
(0.236356 0.0370835 -0.531877)
(0.2263 0.0360441 -0.486131)
(0.274327 -0.228084 -0.783434)
(0.252184 0.0759672 -0.642801)
(0.251239 0.0407692 -0.616672)
(0.303032 -0.197842 -0.842654)
(0.258953 -0.205829 -0.717149)
(0.249394 -0.20507 -0.712616)
(0.170572 0.188841 -0.47827)
(0.115115 -0.0973852 -0.392018)
(0.298359 -0.0799147 -0.875387)
(0.292087 -0.0468112 -0.881254)
(0.232438 -0.00165777 -0.542098)
(0.258547 -0.0449717 -0.640973)
(0.314874 -0.149048 -0.852648)
(0.311557 -0.115967 -0.796899)
(0.266597 0.0775091 -0.639578)
(0.149796 0.236176 -0.582879)
(0.147559 -0.0258644 -0.420961)
(0.204575 -0.0679443 -0.63877)
(0.180541 0.184144 -0.790301)
(0.195678 0.0502988 -0.661076)
(0.306714 -0.0219252 -0.750509)
(0.250192 0.0208439 -0.559752)
(0.206721 0.00952578 -0.640557)
(0.151353 0.032365 -0.533457)
(0.239758 -0.0460824 -0.423261)
(0.235508 -0.0567455 -0.495565)
(0.236692 -0.0798067 -0.51462)
(0.263272 -0.0448313 -0.786276)
(0.300549 -0.158407 -0.792266)
(0.294881 -0.130904 -0.728714)
(0.291953 -0.187701 -0.601897)
(0.229383 -0.0473847 -0.669042)
(0.184434 -0.0477181 -0.520757)
(0.176057 -0.0164473 -0.422881)
(0.242387 -0.0465921 -0.594313)
(0.195171 -0.162473 -0.606121)
(0.168327 0.0874213 -0.585441)
(0.206991 0.0698469 -0.606533)
(0.23105 0.0789555 -0.700087)
(0.296 -0.155201 -0.736869)
(0.292992 -0.114798 -0.728661)
(0.31816 -0.146802 -0.811014)
(0.173679 0.100327 -0.704486)
(0.296622 -0.204672 -0.758019)
(0.272832 -0.0374435 -0.788612)
(0.24214 0.106674 -0.521105)
(0.248477 0.110108 -0.566002)
(0.303422 -0.103903 -0.880571)
(0.234519 0.0976442 -0.869332)
(0.228289 -0.0320065 -0.722621)
(0.215732 -0.0289662 -0.733564)
(0.207929 -0.0753651 -0.64921)
(0.247336 0.0145649 -0.519615)
(0.252406 -0.0351738 -0.546187)
(0.212847 0.108522 -0.842499)
(0.228731 0.119215 -0.710535)
(0.270165 0.0255326 -0.793651)
(0.273745 -0.158486 -0.768727)
(0.181472 -0.0306504 -0.559968)
(0.274187 -0.106279 -0.549385)
(0.173982 0.0538013 -0.722312)
(0.283437 0.037928 -0.780117)
(0.304857 -0.0742038 -0.822841)
(0.317781 -0.0975146 -0.85259)
(0.271449 -0.101632 -0.772699)
(0.243456 0.0713988 -0.600047)
(0.337339 -0.119379 -0.929629)
(0.298152 -0.0422567 -0.734434)
(0.269546 -0.0718846 -0.711215)
(0.202427 -0.0592128 -0.557168)
(0.206137 -0.0749629 -0.541374)
(0.241885 -0.0748743 -0.653993)
(0.219093 -0.0681488 -0.59979)
(0.197805 -0.0365271 -0.57393)
(0.302575 -0.145414 -0.853625)
(0.279588 0.0412181 -0.870902)
(0.277319 0.0500139 -0.855112)
(0.187017 -0.104321 -0.562543)
(0.188633 -0.105628 -0.555285)
(0.307755 -0.0862846 -0.747111)
(0.270485 -0.0172453 -0.780609)
(0.277841 -0.172634 -0.779522)
(0.262194 -0.198672 -0.761229)
(0.251765 -0.208712 -0.758415)
(0.214561 -0.20065 -0.605835)
(0.164933 -0.19139 -0.5153)
(0.190435 -0.215213 -0.634378)
(0.319823 -0.183975 -0.533813)
(0.188103 -0.0597572 -0.44737)
(0.224568 0.00920604 -0.502621)
(0.261288 0.00446939 -0.649397)
(0.273845 0.0123661 -0.657722)
(0.242706 0.0244178 -0.534651)
(0.186973 0.0199222 -0.656668)
(0.175638 0.178538 -0.622628)
(0.194903 0.194185 -0.746497)
(0.215575 -0.115896 -0.650943)
(0.208258 -0.140883 -0.621002)
(0.233491 -0.110034 -0.645957)
(0.23825 -0.0240934 -0.654185)
(0.186141 -0.0274599 -0.478608)
(0.210968 -0.0334165 -0.49606)
(0.264009 0.0174787 -0.614897)
(0.267106 -0.00534599 -0.650969)
(0.247177 -0.0120653 -0.623381)
(0.195609 0.0695673 -0.711152)
(0.17489 0.040837 -0.648673)
(0.237318 0.0849354 -0.679795)
(0.303201 -0.210842 -0.758876)
(0.291315 -0.180198 -0.812076)
(0.301635 -0.165889 -0.79982)
(0.213833 0.0279558 -0.626304)
(0.26441 -0.00490668 -0.72495)
(0.247246 0.0886813 -0.700244)
(0.279657 -0.00251587 -0.812925)
(0.284534 -0.184442 -0.542196)
(0.201109 -0.011087 -0.555431)
(0.205688 -0.00715409 -0.587287)
(0.29767 -0.0632015 -0.8267)
(0.22309 -0.0707964 -0.47915)
(0.194354 -0.0489674 -0.478119)
(0.244558 -0.0907416 -0.562311)
(0.233207 -0.0621891 -0.490819)
(0.211032 -0.0527451 -0.460241)
(0.191707 -0.162635 -0.621669)
(0.285516 -0.173749 -0.595131)
(0.291906 -0.167366 -0.609767)
(0.287814 -0.155327 -0.560865)
(0.268457 -0.0892455 -0.421802)
(0.301032 -0.206452 -0.541811)
(0.26133 -0.0472146 -0.481952)
(0.268436 -0.067575 -0.519808)
(0.267463 -0.0954487 -0.563936)
(0.168299 0.05392 -0.622602)
(0.215307 0.107352 -0.70685)
(0.218006 -0.106519 -0.668232)
(0.231519 -0.135517 -0.683178)
(0.159373 0.105752 -0.652363)
(0.21505 0.108669 -0.738718)
(0.238169 -0.0545932 -0.674264)
(0.295367 -0.0522992 -0.78613)
(0.308732 -0.1274 -0.543676)
(0.286785 -0.122403 -0.436044)
(0.184831 0.0815646 -0.619857)
(0.217449 -0.138449 -0.638434)
(0.236248 -0.220875 -0.714321)
(0.239945 -0.221901 -0.742994)
(0.25975 -0.0876363 -0.682073)
(0.192239 -0.102272 -0.580185)
(0.190611 -0.077388 -0.594118)
(0.188863 -0.130114 -0.595849)
(0.22543 -0.0777472 -0.67142)
(0.308857 -0.119064 -0.820979)
(0.29341 -0.131967 -0.798477)
(0.248025 0.0890042 -0.624571)
(0.188821 0.0484549 -0.623345)
(0.206317 -0.00863497 -0.676769)
(0.156667 0.0825701 -0.639112)
(0.224311 0.164773 -0.725858)
(0.224758 -0.166082 -0.634369)
(0.218677 -0.0797277 -0.630477)
(0.268468 -0.125476 -0.775496)
(0.241304 -0.120071 -0.667743)
(0.284953 -0.11398 -0.573346)
(0.256961 0.103604 -0.636526)
(0.246802 0.154476 -0.589999)
(0.28591 -0.168764 -0.749153)
(0.271121 -0.144511 -0.706791)
(0.303001 -0.174382 -0.784535)
(0.280928 -0.139253 -0.743579)
(0.309172 -0.161394 -0.791677)
(0.242384 -0.201064 -0.734261)
(0.267298 -0.137496 -0.752951)
(0.233808 -0.122525 -0.665971)
(0.268296 -0.143992 -0.779035)
(0.229623 0.149151 -0.570849)
(0.221984 0.216936 -0.592551)
(0.217552 0.206609 -0.599927)
(0.18987 0.236526 -0.632183)
(0.199356 0.248171 -0.604344)
(0.248777 0.0932555 -0.766956)
(0.282498 -0.206715 -0.840071)
(0.294024 -0.190897 -0.764319)
(0.296425 -0.211717 -0.834011)
(0.235962 0.0797508 -0.749276)
(0.198107 0.144067 -0.730339)
(0.224251 0.0979228 -0.741446)
(0.177092 -0.159757 -0.562168)
(0.316437 -0.190119 -0.816023)
(0.310545 -0.205687 -0.788695)
(0.310868 -0.197903 -0.811461)
(0.273988 -0.25746 -0.675371)
(0.227533 0.030671 -0.715297)
(0.280347 -0.159932 -0.756211)
(0.307096 -0.181132 -0.820239)
(0.292425 -0.158736 -0.776932)
(0.243005 0.051186 -0.520964)
(0.305102 -0.149557 -0.797129)
(0.255394 -0.138067 -0.552954)
(0.256354 -0.126259 -0.582509)
(0.207943 0.0726692 -0.825477)
(0.286104 -0.135592 -0.570427)
(0.267343 -0.123841 -0.49439)
(0.188865 -0.019316 -0.445123)
(0.166057 0.0949086 -0.58485)
(0.221879 0.0278884 -0.789669)
(0.194548 0.067046 -0.71679)
(0.280089 -0.0759579 -0.817261)
(0.275426 -0.165894 -0.707867)
(0.287426 -0.100152 -0.747592)
(0.210597 0.083931 -0.617425)
(0.182123 0.083848 -0.521979)
(0.206211 -0.0166238 -0.638108)
(0.211297 -0.0143252 -0.672189)
(0.218577 -0.00964549 -0.631464)
(0.174536 0.0206724 -0.552118)
(0.195621 0.026644 -0.622614)
(0.207867 0.0325113 -0.638109)
(0.204206 0.0363892 -0.575074)
(0.26102 -0.248641 -0.628645)
(0.283636 -0.261002 -0.714841)
(0.171101 0.0673012 -0.649869)
(0.285225 -0.111475 -0.60897)
(0.247055 -0.0367533 -0.544677)
(0.240657 -0.00655046 -0.670492)
(0.196592 -0.0269339 -0.559358)
(0.21655 -0.00761331 -0.628243)
(0.268735 -0.133292 -0.725245)
(0.268261 0.0508504 -0.623985)
(0.308697 -0.212812 -0.826039)
(0.286892 -0.174522 -0.80557)
(0.282002 -0.18179 -0.776148)
(0.323719 -0.00727533 -0.855576)
(0.296921 -0.124145 -0.50814)
(0.297862 -0.137869 -0.45426)
(0.260429 -0.107799 -0.71442)
(0.223402 -0.0860885 -0.644441)
(0.134351 0.177883 -0.585016)
(0.170018 0.12745 -0.537656)
(0.235552 0.0264791 -0.78891)
(0.27478 -0.197401 -0.809427)
(0.300178 -0.154154 -0.454874)
(0.26169 -0.218984 -0.795522)
(0.239939 -0.242494 -0.782652)
(0.287246 -0.167307 -0.792809)
(0.280451 -0.175727 -0.750503)
(0.272965 -0.0630976 -0.5316)
(0.250111 -0.0558193 -0.452556)
(0.255212 0.0114485 -0.806028)
(0.236954 -0.0277478 -0.460141)
(0.266832 -0.044338 -0.558493)
(0.296203 -0.111016 -0.807493)
(0.29838 -0.107625 -0.799069)
(0.27805 -0.0883904 -0.779473)
(0.297141 -0.193284 -0.763202)
(0.258882 0.0987163 -0.586862)
(0.292779 -0.0179778 -0.803678)
(0.281648 0.0270913 -0.751583)
(0.252883 0.0695979 -0.596954)
(0.249314 0.0892465 -0.564513)
(0.258665 0.0879172 -0.605863)
(0.224052 -0.249617 -0.629135)
(0.168795 -0.141383 -0.531112)
(0.169195 -0.0206637 -0.552274)
(0.252223 -0.218031 -0.64041)
(0.259084 -0.224695 -0.667125)
(0.305187 -0.242177 -0.65881)
(0.256487 -0.202625 -0.778871)
(0.122379 -0.111802 -0.465371)
(0.124843 -0.101905 -0.438402)
(0.250539 -0.00654201 -0.550119)
(0.118651 -0.0956895 -0.401393)
(0.137924 -0.131689 -0.514022)
(0.281134 -0.117184 -0.744766)
(0.285936 -0.151698 -0.756212)
(0.228106 -0.0347691 -0.688543)
(0.224202 -0.0860613 -0.627626)
(0.264868 -0.0388758 -0.50253)
(0.251076 -0.057392 -0.513968)
(0.255007 -0.0682852 -0.55934)
(0.209089 -0.103578 -0.507542)
(0.211465 -0.0971576 -0.551171)
(0.169971 -0.168964 -0.515207)
(0.194483 -0.176816 -0.552071)
(0.192728 -0.194895 -0.564607)
(0.1842 -0.0403648 -0.498808)
(0.248724 -0.0597431 -0.637067)
(0.305402 -0.219608 -0.767147)
(0.306122 -0.241223 -0.75608)
(0.27814 -0.225933 -0.658262)
(0.285703 -0.20764 -0.831204)
(0.29166 -0.200099 -0.771933)
(0.288961 -0.146419 -0.764882)
(0.300437 -0.161828 -0.786026)
(0.217145 0.0104157 -0.660151)
(0.209794 0.0320755 -0.554172)
(0.218216 0.0220032 -0.522865)
(0.24693 0.0398752 -0.597449)
(0.227915 0.0310743 -0.628513)
(0.229355 0.0482522 -0.599307)
(0.221919 0.0743055 -0.5877)
(0.22031 0.0788625 -0.510885)
(0.317835 -0.123825 -0.862996)
(0.305179 -0.182806 -0.799379)
(0.296728 -0.189952 -0.773134)
(0.303949 -0.187218 -0.8162)
(0.307432 -0.071161 -0.810156)
(0.255583 -0.0530699 -0.702687)
(0.196571 -0.125046 -0.614131)
(0.21456 -0.0397111 -0.464617)
(0.240635 -0.0459151 -0.442533)
(0.133799 -0.130228 -0.473604)
(0.201668 -0.0363985 -0.449656)
(0.149367 -0.105826 -0.468005)
(0.142567 -0.043149 -0.372183)
(0.141657 -0.0861617 -0.447701)
(0.210419 -0.0451525 -0.425429)
(0.189157 -0.0601444 -0.452263)
(0.178735 -0.159655 -0.572216)
(0.194656 -0.118204 -0.584399)
(0.174626 -0.0583988 -0.452988)
(0.188189 -0.117725 -0.576486)
(0.149172 -0.102085 -0.466031)
(0.26417 -0.222998 -0.808052)
(0.153368 -0.122838 -0.51502)
(0.165997 -0.11997 -0.525448)
(0.238704 -0.053974 -0.705429)
(0.246398 -0.0402935 -0.748238)
(0.192773 0.106044 -0.725394)
(0.146654 -0.0860971 -0.464162)
(0.306664 0.104949 -0.80319)
(0.304968 0.0889438 -0.821607)
(0.306315 0.0764686 -0.775842)
(0.268854 0.0431212 -0.794735)
(0.309696 0.0167144 -0.78737)
(0.316847 0.0340874 -0.784175)
(0.130336 -0.0782986 -0.412267)
(0.266407 -0.0892503 -0.488084)
(0.145906 0.177423 -0.687986)
(0.299603 -0.2121 -0.602096)
(0.277468 -0.220766 -0.663661)
(0.269343 -0.214156 -0.612203)
(0.296464 0.0251133 -0.744262)
(0.290164 -0.162589 -0.754434)
(0.187059 -0.0401867 -0.67336)
(0.313587 -0.0454759 -0.793532)
(0.212641 -0.0576357 -0.648484)
(0.245397 0.120048 -0.559093)
(0.209941 -0.0715906 -0.618177)
(0.218645 -0.0432377 -0.640476)
(0.314981 -0.185428 -0.832008)
(0.218645 0.0730238 -0.687155)
(0.321938 -0.04298 -0.83517)
(0.214372 -0.0331946 -0.399156)
(0.216402 -0.085341 -0.526024)
(0.117045 -0.0484619 -0.332932)
(0.16213 -0.143092 -0.478537)
(0.169853 0.0948992 -0.674047)
(0.206374 -0.106278 -0.618904)
(0.213905 -0.00637418 -0.639326)
(0.212291 0.000395432 -0.602746)
(0.189716 0.0081695 -0.612002)
(0.29333 -0.197053 -0.684333)
(0.231052 -0.0631509 -0.459293)
(0.233456 -0.089175 -0.534485)
(0.311824 -0.187115 -0.811916)
(0.195281 0.0138411 -0.488868)
(0.239028 -0.0835953 -0.742131)
(0.204884 0.102646 -0.586911)
(0.17238 0.0436258 -0.63164)
(0.331716 -0.0997483 -0.920707)
(0.22894 -0.0178753 -0.574759)
(0.170029 0.203387 -0.566279)
(0.308518 -0.14228 -0.809313)
(0.300338 -0.133222 -0.773825)
(0.193518 -0.132699 -0.607048)
(0.228036 0.13675 -0.564894)
(0.242749 -0.152752 -0.697569)
(0.243235 -0.148445 -0.697304)
(0.238805 -0.150301 -0.687085)
(0.268315 -0.192074 -0.768336)
(0.254389 -0.127532 -0.688434)
(0.215053 0.113245 -0.778757)
(0.167003 -0.0618594 -0.544532)
(0.208292 -0.0940843 -0.638042)
(0.31197 -0.202665 -0.781818)
(0.298864 -0.186544 -0.700267)
(0.206872 -0.101661 -0.61739)
(0.196751 0.0768929 -0.684093)
(0.231524 -0.168057 -0.626222)
(0.230617 -0.0276849 -0.70827)
(0.259292 -0.1753 -0.722385)
(0.112767 -0.0998599 -0.423107)
(0.255306 -0.0706784 -0.579151)
(0.11668 -0.0310643 -0.302435)
(0.111101 -0.0231009 -0.284127)
(0.146899 -0.0658986 -0.414504)
(0.294398 -0.12331 -0.69575)
(0.299914 -0.120595 -0.761482)
(0.195109 -0.029307 -0.453729)
(0.272956 0.0856242 -0.637194)
(0.231344 0.0513429 -0.533238)
(0.268507 -0.0241941 -0.574571)
(0.136477 0.132764 -0.72248)
(0.144197 0.132533 -0.724169)
(0.230616 -0.0568201 -0.719823)
(0.297196 -0.159959 -0.729338)
(0.288364 0.0633643 -0.712157)
(0.311051 0.0521015 -0.759265)
(0.180315 0.125873 -0.709295)
(0.215692 0.0416065 -0.764546)
(0.179879 0.0918503 -0.669074)
(0.141686 0.121396 -0.568877)
(0.204185 0.210091 -0.511645)
(0.24447 -0.013411 -0.576587)
(0.293871 -0.195455 -0.765539)
(0.290889 -0.203566 -0.659765)
(0.311633 -0.220705 -0.787103)
(0.26118 -0.1618 -0.757977)
(0.245615 -0.00093469 -0.49445)
(0.254147 -0.0117469 -0.524247)
(0.200834 0.16193 -0.556001)
(0.230532 0.166399 -0.649834)
(0.294456 -0.120001 -0.759827)
(0.288459 -0.14022 -0.769437)
(0.288615 -0.157111 -0.786744)
(0.262548 -0.0488044 -0.620174)
(0.236072 -0.00716491 -0.540167)
(0.304196 -0.095916 -0.844237)
(0.222599 0.0402433 -0.641339)
(0.26703 0.00690141 -0.614294)
(0.251991 -0.0613458 -0.504054)
(0.243857 -0.0389337 -0.442762)
(0.300037 -0.0976067 -0.822067)
(0.269826 0.00405715 -0.717749)
(0.277037 -0.10732 -0.765539)
(0.292413 -0.137154 -0.804531)
(0.269252 -0.148635 -0.736042)
(0.241125 -0.00918697 -0.435762)
(0.286675 -0.141434 -0.545076)
(0.253332 -0.175307 -0.647122)
(0.27079 -0.208955 -0.652818)
(0.286564 -0.195736 -0.638163)
(0.274673 -0.182886 -0.640804)
(0.221558 0.0309166 -0.595055)
(0.242116 0.122421 -0.672123)
(0.222558 0.132145 -0.637409)
(0.239663 0.0269989 -0.538358)
(0.257698 -0.236744 -0.797181)
(0.289212 -0.147845 -0.726428)
(0.326921 0.137278 -0.801174)
(0.313511 0.10272 -0.818937)
(0.278062 -0.200769 -0.80494)
(0.271678 -0.161655 -0.573997)
(0.24873 0.0255669 -0.585194)
(0.221355 -0.152219 -0.640573)
(0.243303 0.0474897 -0.598583)
(0.235801 0.0347785 -0.569815)
(0.195452 -0.0884975 -0.573259)
(0.241498 -0.020747 -0.468404)
(0.104159 -0.0782113 -0.359535)
(0.192901 -0.0173184 -0.603242)
(0.299338 -0.178865 -0.779216)
(0.182409 -0.0230701 -0.658048)
(0.288623 -0.180284 -0.793298)
(0.286952 -0.18469 -0.783286)
(0.177647 -0.0922976 -0.560056)
(0.20141 -0.0658789 -0.608916)
(0.169186 -0.060046 -0.480139)
(0.270475 -0.112269 -0.466474)
(0.111301 0.180457 -0.704624)
(0.242341 -0.0218863 -0.453136)
(0.167189 0.0664644 -0.633575)
(0.187824 0.0231344 -0.492388)
(0.246987 -0.150649 -0.631957)
(0.221917 -0.12037 -0.547137)
(0.236438 -0.0945303 -0.535717)
(0.262492 -0.110832 -0.569139)
(0.195982 -0.230878 -0.576518)
(0.220137 -0.224945 -0.551449)
(0.236303 -0.22993 -0.676222)
(0.202961 -0.226683 -0.582804)
(0.152906 -0.0990639 -0.461831)
(0.257687 0.0747226 -0.627406)
(0.14598 0.18934 -0.746454)
(0.165472 0.153906 -0.763917)
(0.247954 -0.162037 -0.669355)
(0.151848 0.154529 -0.654264)
(0.155836 0.150187 -0.691683)
(0.160089 0.150684 -0.629236)
(0.291693 -0.185959 -0.570992)
(0.221299 -0.0308425 -0.657182)
(0.292604 -0.15474 -0.522792)
(0.276236 -0.0934515 -0.422473)
(0.319817 -0.0611325 -0.800586)
(0.248217 -0.062045 -0.758195)
(0.131723 -0.159364 -0.506401)
(0.117704 -0.164262 -0.477247)
(0.276895 -0.138887 -0.779692)
(0.300962 -0.140587 -0.477217)
(0.304606 -0.115403 -0.508623)
(0.197378 -0.0312055 -0.622252)
(0.232821 -0.052426 -0.683225)
(0.157393 0.0400311 -0.59079)
(0.20169 0.0388068 -0.690469)
(0.227246 0.0448352 -0.735188)
(0.25172 -0.182873 -0.723773)
(0.182414 -0.0384455 -0.564063)
(0.267597 -0.207268 -0.760509)
(0.223362 -0.185708 -0.643332)
(0.264393 -0.221354 -0.711536)
(0.269692 -0.228623 -0.74967)
(0.305474 -0.195859 -0.806998)
(0.241516 -0.184925 -0.633695)
(0.298711 -0.196885 -0.750494)
(0.279148 0.0474723 -0.78897)
(0.214741 -0.0279464 -0.707684)
(0.262078 0.0175063 -0.598814)
(0.234107 0.0561415 -0.490403)
(0.204378 -0.00197797 -0.661087)
(0.211886 -0.0206512 -0.380911)
(0.201668 -0.0351397 -0.389849)
(0.283038 -0.100676 -0.766551)
(0.126786 -0.119776 -0.427355)
(0.1549 -0.102603 -0.497623)
(0.13686 -0.0970989 -0.47035)
(0.264638 -0.193271 -0.686847)
(0.267812 -0.168082 -0.731693)
(0.264706 -0.161123 -0.705968)
(0.281378 -0.20428 -0.797825)
(0.27814 -0.0229863 -0.705449)
(0.258075 -0.0341954 -0.726753)
(0.23505 0.0409454 -0.497307)
(0.26734 -0.136152 -0.566906)
(0.252788 0.135619 -0.556127)
(0.263398 0.109361 -0.635074)
(0.209253 0.0938466 -0.4776)
(0.246381 0.107639 -0.534391)
(0.269442 -0.151745 -0.737809)
(0.299792 -0.223926 -0.741325)
(0.110349 -0.0815835 -0.384592)
(0.324144 -0.237681 -0.870975)
(0.302385 -0.195435 -0.749431)
(0.170016 -0.0744429 -0.465201)
(0.167279 -0.0508588 -0.460446)
(0.28559 -0.110826 -0.603084)
(0.250574 -0.0501705 -0.485233)
(0.288729 -0.117865 -0.767755)
(0.219039 -0.108109 -0.589636)
(0.231295 -0.11511 -0.635631)
(0.262686 -0.156852 -0.734562)
(0.317533 0.0772178 -1.00804)
(0.221566 -0.028158 -0.774287)
(0.19583 0.000511264 -0.563733)
(0.277923 -0.113037 -0.738274)
(0.304949 -0.102959 -0.923264)
(0.29008 0.0175985 -0.813663)
(0.301184 0.0392633 -0.909762)
(0.317534 -0.127965 -0.947213)
(0.115668 0.186892 -0.652648)
(0.307239 0.0938156 -0.949114)
(0.281892 -0.179009 -0.789205)
(0.330988 -0.135748 -0.967103)
(0.246108 -0.165072 -0.762281)
(0.305994 -0.147761 -0.786665)
(0.281853 -0.243953 -0.941827)
(0.29473 -0.146322 -0.629988)
(0.290086 -0.0509682 -0.693072)
(0.310801 -0.195279 -0.619487)
(0.174384 -0.0828493 -0.45886)
(0.306415 -0.213875 -0.957638)
(0.118374 -0.156956 -0.446548)
(0.166493 -0.151164 -0.635559)
(0.278475 -0.0497373 -0.772596)
(0.306286 0.100066 -0.951521)
(0.307201 -0.0163883 -0.95045)
(0.182501 0.0269379 -0.711348)
(0.319859 -0.0590588 -0.89871)
(0.231311 0.00413934 -0.789737)
(0.331205 -0.0342808 -0.97506)
(0.326546 0.0333125 -0.984096)
(0.296242 -0.0144542 -0.938134)
(0.24044 -0.0597417 -0.703255)
(0.156761 -0.219465 -0.522793)
(0.246196 -0.244682 -0.734274)
(0.238805 -0.233187 -0.684647)
(0.314934 0.0967458 -1.00589)
(0.315288 0.121654 -0.970146)
(0.309552 0.0797193 -0.783541)
(0.312177 0.133021 -0.860852)
(0.292165 -0.219307 -0.845776)
(0.258769 -0.203162 -0.775018)
(0.243256 0.0636097 -0.540168)
(0.278104 0.00095492 -0.807827)
(0.178631 0.0180082 -0.568526)
(0.237707 0.0910453 -0.738887)
(0.326501 -0.118526 -0.972433)
(0.312506 -0.128422 -0.913134)
(0.22661 -0.105987 -0.654395)
(0.304806 -0.108871 -0.876019)
(0.31768 -0.155296 -0.949433)
(0.313833 -0.147747 -0.904957)
(0.272475 -0.095442 -0.785922)
(0.310351 0.00532228 -0.95858)
(0.26156 -0.00623239 -0.835996)
(0.329982 -0.100864 -0.994558)
(0.31273 -0.0730414 -0.934609)
(0.316995 -0.0431302 -0.962768)
(0.296871 -0.0723496 -0.916501)
(0.319988 -0.0729824 -0.962478)
(0.293881 -0.0444915 -0.768915)
(0.247474 0.0437322 -0.553697)
(0.243022 -0.0325657 -0.694588)
(0.299311 -0.0295768 -0.868972)
(0.229903 0.00285266 -0.550228)
(0.30192 -0.0436566 -0.897264)
(0.29841 -0.0636083 -0.885697)
(0.244757 0.0134222 -0.816378)
(0.306881 -0.0211735 -0.921395)
(0.18767 0.129718 -0.51738)
(0.297371 -0.0186292 -0.867299)
(0.317535 -0.030478 -0.972701)
(0.331024 -0.0998562 -0.993917)
(0.301001 -0.109256 -0.857455)
(0.316958 -0.0938507 -0.947086)
(0.315584 -0.060389 -0.940063)
(0.324195 -0.096456 -0.957262)
(0.305737 -0.0763395 -0.910009)
(0.315472 0.0838933 -1.0092)
(0.30108 0.0570588 -0.960789)
(0.21601 0.166616 -0.847745)
(0.204386 0.0891718 -0.796191)
(0.26531 0.0692728 -0.707288)
(0.289135 0.0728374 -0.883316)
(0.208881 0.157508 -0.696203)
(0.208952 0.203619 -0.585944)
(0.22779 0.111521 -0.665836)
(0.188965 0.134238 -0.693622)
(0.262073 0.162252 -0.802443)
(0.116432 0.249178 -0.645086)
(0.181365 0.184047 -0.748146)
(0.273738 0.0977235 -0.738752)
(0.28082 -0.17986 -0.82354)
(0.293053 -0.151281 -0.787424)
(0.316728 -0.190819 -0.939514)
(0.308437 -0.170733 -0.795444)
(0.315846 -0.200562 -0.969872)
(0.321804 -0.159429 -0.968053)
(0.295733 -0.151845 -0.863049)
(0.327961 -0.169944 -0.972222)
(0.311661 -0.187323 -0.946486)
(0.318387 -0.168544 -0.953724)
(0.319496 -0.160258 -0.903304)
(0.266039 -0.11054 -0.801206)
(0.197021 -0.0413724 -0.695477)
(0.25718 -0.117277 -0.749145)
(0.297713 -0.0853803 -0.900925)
(0.287133 -0.136988 -0.811047)
(0.298264 -0.216172 -0.929312)
(0.237868 -0.152052 -0.695878)
(0.220997 -0.176552 -0.629747)
(0.215743 -0.164842 -0.598312)
(0.302922 -0.193815 -0.894428)
(0.20093 -0.0145398 -0.696826)
(0.224565 -0.144467 -0.66672)
(0.324447 -0.146654 -0.976661)
(0.31235 -0.114001 -0.828827)
(0.31662 -0.194048 -0.873641)
(0.326949 -0.169588 -0.97786)
(0.312988 -0.152501 -0.84954)
(0.293949 -0.179026 -0.786616)
(0.270108 -0.227309 -0.664329)
(0.270049 -0.221504 -0.799861)
(0.276355 -0.24738 -0.890785)
(0.265332 -0.260152 -0.788852)
(0.305165 -0.136822 -0.782605)
(0.276432 -0.179115 -0.709634)
(0.263532 -0.121965 -0.562723)
(0.309419 -0.157358 -0.864067)
(0.310425 -0.175674 -0.863535)
(0.287561 -0.159263 -0.650558)
(0.241867 -0.0406802 -0.523765)
(0.255992 -0.0739083 -0.60693)
(0.267625 -0.0451529 -0.578609)
(0.247494 -0.0472712 -0.490155)
(0.287367 -0.1057 -0.599012)
(0.281176 -0.242164 -0.939394)
(0.303823 -0.251549 -0.722614)
(0.299994 -0.22232 -0.79737)
(0.278695 -0.254058 -0.813831)
(0.289933 -0.243393 -0.686352)
(0.298744 -0.219933 -0.835392)
(0.284575 -0.0699634 -0.423)
(0.323693 -0.207819 -0.640136)
(0.285827 -0.11421 -0.560276)
(0.267263 -0.227092 -0.919898)
(0.252603 -0.123465 -0.621446)
(0.293246 -0.228455 -0.811718)
(0.287964 -0.193329 -0.781796)
(0.307609 -0.167548 -0.732758)
(0.301666 -0.19316 -0.917342)
(0.300264 -0.208032 -0.906741)
(0.295982 -0.215546 -0.935861)
(0.31067 -0.180002 -0.876357)
(0.311471 -0.184699 -0.935957)
(0.298103 -0.223567 -0.918396)
(0.267105 -0.231679 -0.862709)
(0.214172 -0.179498 -0.718859)
(0.17604 -0.0361718 -0.421671)
(0.130898 -0.0536786 -0.390777)
(0.282744 -0.197205 -0.895634)
(0.27894 -0.22476 -0.930988)
(0.276356 -0.108578 -0.518983)
(0.194829 -0.14929 -0.636777)
(0.290754 -0.21339 -0.914217)
(0.279719 -0.221522 -0.910752)
(0.209754 -0.0516476 -0.46009)
(0.205078 0.0709517 -0.724635)
(0.170859 0.0505096 -0.613167)
(0.263791 -0.0527394 -0.773415)
(0.281607 -0.0672396 -0.809777)
(0.324225 0.0218741 -0.912526)
(0.232923 0.148233 -0.708232)
(0.2818 0.0794671 -0.850343)
(0.188221 0.0899134 -0.718554)
(0.163483 0.0795595 -0.629741)
(0.275929 0.135659 -0.874248)
(0.310464 -0.0140981 -0.907179)
(0.275742 -0.0542443 -0.820047)
(0.281134 0.0446115 -0.862541)
(0.259686 0.0230485 -0.733911)
(0.304526 -0.0501891 -0.913065)
(0.233249 0.0496182 -0.752028)
(0.313652 0.0882248 -1.00806)
(0.289738 -0.132528 -0.78689)
(0.308505 0.0447626 -0.965196)
(0.318156 0.0210828 -0.988039)
(0.317004 0.022455 -0.986055)
(0.31849 0.0304576 -1.00337)
(0.313998 0.0679971 -0.984323)
(0.31216 0.0784482 -0.9909)
(0.320031 0.0164923 -0.999323)
(0.272103 -0.0673614 -0.724487)
(0.250923 -0.0253654 -0.727984)
(0.264929 -0.021321 -0.625125)
(0.207556 -0.00135033 -0.506356)
(0.237447 -0.00946994 -0.621778)
(0.227456 -0.0890016 -0.635145)
(0.266256 -0.0794729 -0.758894)
(0.252989 -0.0881768 -0.716214)
(0.236649 -0.103335 -0.652182)
(0.271526 -0.108772 -0.7572)
(0.318553 -0.131032 -0.960772)
(0.310697 -0.0926972 -0.924643)
(0.31221 -0.134801 -0.934223)
(0.309656 -0.109961 -0.917718)
(0.31999 -0.110807 -0.958135)
(0.3173 -0.114077 -0.949148)
(0.310657 -0.113867 -0.915328)
(0.289771 0.00746452 -0.87854)
(0.305286 -0.00860759 -0.917989)
(0.292809 0.0310072 -0.899563)
(0.298492 0.0005936 -0.90822)
(0.288276 0.00480045 -0.855852)
(0.292468 -0.0035601 -0.85122)
(0.298109 0.00266824 -0.910202)
(0.290656 0.0442677 -0.852661)
(0.304731 -0.00161771 -0.926219)
(0.293101 0.051769 -0.896822)
(0.30702 0.0139541 -0.930256)
(0.295115 0.0301588 -0.890142)
(0.299247 0.0114739 -0.89279)
(0.302352 0.0176632 -0.921571)
(0.30701 -0.125161 -0.880284)
(0.310912 -0.101524 -0.920074)
(0.305857 -0.13193 -0.887366)
(0.316012 -0.110216 -0.927881)
(0.312073 -0.117928 -0.926141)
(0.314513 -0.115061 -0.930627)
(0.311987 -0.121247 -0.912644)
(0.123665 0.152711 -0.659029)
(0.117928 0.158294 -0.654616)
(0.282397 0.105317 -0.882634)
(0.289957 0.116699 -0.867383)
(0.294155 0.0935609 -0.903161)
(0.299613 0.106413 -0.94054)
(0.292684 0.106365 -0.912489)
(0.307118 -0.221243 -0.950356)
(0.315171 -0.198202 -0.925766)
(0.305795 -0.226975 -0.956602)
(0.310003 -0.199083 -0.888098)
(0.304451 -0.207838 -0.900616)
(0.302925 -0.207649 -0.907722)
(0.311533 -0.214838 -0.938983)
(0.125854 0.0948669 -0.550925)
(0.297814 -0.0822359 -0.788003)
(0.323392 -0.134037 -0.882155)
(0.309491 -0.0767612 -0.808412)
(0.33186 -0.129735 -0.921102)
(0.322502 -0.127357 -0.920638)
(0.330778 -0.144156 -0.958267)
(0.326209 -0.0978287 -0.840301)
(0.272966 -0.13358 -0.749003)
(0.300193 -0.184343 -0.9233)
(0.287715 -0.165678 -0.865745)
(0.29595 -0.1677 -0.893537)
(0.28475 -0.154098 -0.859163)
(0.277345 -0.186479 -0.865662)
(0.277844 -0.176302 -0.846218)
(0.294102 -0.165383 -0.891302)
(0.213507 -0.0844043 -0.592588)
(0.281475 -0.160269 -0.85655)
(0.259558 -0.128715 -0.765919)
(0.276661 -0.141035 -0.845305)
(0.274989 -0.136516 -0.844525)
(0.297749 -0.227758 -0.947405)
(0.280783 -0.234872 -0.906344)
(0.296555 -0.232618 -0.958783)
(0.285365 -0.237968 -0.935006)
(0.288575 -0.237516 -0.934968)
(0.287927 -0.237117 -0.92329)
(0.292787 -0.237489 -0.941446)
(0.248325 -0.0987486 -0.474787)
(0.29336 -0.154004 -0.609381)
(0.276833 -0.153743 -0.573423)
(0.304325 -0.115276 -0.816588)
(0.301382 -0.118844 -0.825482)
(0.287235 -0.0789169 -0.720658)
(0.283474 -0.0550467 -0.675553)
(0.276636 -0.0654014 -0.6687)
(0.258422 -0.0282933 -0.584599)
(0.267493 -0.0711814 -0.694881)
(0.241236 -0.0191436 -0.494058)
(0.244443 -0.00682594 -0.533049)
(0.311571 -0.185619 -0.700183)
(0.278474 -0.134914 -0.50739)
(0.308499 -0.178075 -0.573228)
(0.306519 -0.19553 -0.576721)
(0.161285 -0.0473687 -0.393152)
(0.129921 -0.0270433 -0.291577)
(0.203643 -0.0404898 -0.419272)
(0.144593 -0.156193 -0.561046)
(0.0848491 -0.117219 -0.37715)
(0.15578 -0.113914 -0.568975)
(0.162711 -0.114839 -0.562597)
(0.107616 -0.0487127 -0.329471)
(0.302223 -0.225596 -0.951778)
(0.292573 -0.229728 -0.945843)
(0.300669 -0.230073 -0.960379)
(0.298199 -0.223371 -0.954781)
(0.304443 -0.21885 -0.954611)
(0.30565 -0.213973 -0.951565)
(0.296123 -0.226388 -0.958563)
(0.159334 -0.185359 -0.578405)
(0.290394 -0.124994 -0.74266)
(0.229763 -0.118289 -0.659828)
(0.286417 -0.126932 -0.78156)
(0.219578 -0.0898206 -0.602317)
(0.244649 -0.0424461 -0.508832)
(0.253953 -0.107107 -0.670535)
(0.198805 -0.0287009 -0.477593)
(0.167195 -0.0596153 -0.488347)
(0.251983 -0.0892303 -0.690217)
(0.210439 -0.106163 -0.620832)
(0.198857 -0.0357248 -0.498453)
(0.182778 -0.0276997 -0.482569)