/*--------------------------------*- C++ -*----------------------------------*\
| =========                 |                                                 |
| \\      /  F ield         | OpenFOAM: The Open Source CFD Toolbox           |
|  \\    /   O peration     | Version:  v1612+                                |
|   \\  /    A nd           | Web:      www.OpenFOAM.com                      |
|    \\/     M anipulation  |                                                 |
\*---------------------------------------------------------------------------*/
FoamFile
{
    version     2.0;
    format      ascii;
    class       volScalarField;
    location    "200";
    object      p;
}
// * * * * * * * * * * * * * * * * * * * * * * * * * * * * * * * * * * * * * //

dimensions      [0 2 -2 0 0 0 0];

internalField   nonuniform List<scalar> 
16834
(
3.17118
3.23422
3.22593
3.20365
3.21335
3.2138
3.23312
3.22441
3.21611
3.20016
3.248
3.21079
3.20539
3.23505
3.22262
3.22638
3.21937
3.22932
3.07392
3.07387
3.07274
3.06939
3.07751
3.07216
3.07178
3.0758
3.07284
3.07659
3.07165
3.06788
3.07583
3.07508
3.07627
3.23315
3.25069
3.24934
3.24617
3.23658
3.2493
3.25765
3.2343
3.24637
3.25041
3.25239
3.25528
3.25898
3.27284
3.24537
3.25941
3.18858
3.1849
3.17056
3.19246
3.19948
3.10812
3.10991
3.11799
3.11418
3.11166
3.12906
3.12679
3.13103
3.13957
3.12722
3.12837
3.14089
3.12395
3.16695
3.15023
3.14886
3.16564
3.16678
3.12995
3.12969
3.14217
3.13589
3.14947
3.15357
3.12798
3.12675
3.13809
3.12938
3.12705
3.13473
3.1383
3.09892
3.11085
3.10469
3.10612
3.09822
3.10352
3.1167
3.10644
3.10059
3.10322
3.11704
3.12722
3.12451
3.19426
3.18389
3.20967
3.21315
3.20776
3.20472
3.2203
3.21714
3.21412
3.20216
3.2059
3.19211
3.19031
3.21195
3.17687
3.18103
3.1849
3.21095
3.19251
3.19142
3.18268
3.20812
3.19737
3.19758
3.14848
3.14801
3.15266
3.12596
3.11638
3.12528
3.11716
3.13523
3.12772
3.12029
3.12245
3.10158
3.1043
3.13569
3.12108
3.11791
3.10836
3.11849
3.10259
3.09811
3.10585
3.05696
3.05611
3.05452
3.04462
3.04145
3.0529
3.04637
3.07768
3.07657
3.07077
3.04188
3.05608
3.06083
3.0661
3.0679
3.07348
3.06054
3.0461
3.04939
3.06226
3.04504
3.26134
3.26034
3.25546
3.23693
3.22165
3.21942
3.25072
3.22746
3.22549
3.24238
3.26926
3.26085
3.23717
3.23362
3.25166
3.07554
3.05816
3.05268
3.06174
3.0661
3.06593
3.0573
3.06098
3.09625
3.09158
3.085
3.08052
3.0824
3.09086
3.09838
3.09738
3.08536
3.09481
3.10056
3.09389
3.1055
3.07847
3.10143
3.08814
3.0883
3.07363
3.07607
3.07497
3.0736
3.07471
3.073
3.07774
3.07954
3.0797
3.08095
3.0748
3.0748
3.08058
3.0774
3.07974
3.08104
3.07593
3.07776
3.0805
3.07862
3.12018
3.13923
3.09461
3.10239
3.11988
3.1249
3.10372
3.13093
3.11985
3.11176
3.11557
3.11482
3.11532
3.11493
3.11391
3.09851
3.10421
3.10764
3.10308
3.10993
3.10308
3.09245
3.10198
3.10414
3.09219
3.10513
3.09159
3.09326
3.10072
3.09404
3.10884
3.1524
3.15898
3.14852
3.16104
3.14932
3.15572
3.15325
3.16048
3.15455
3.16632
3.16852
3.1722
3.17585
3.17218
3.17069
3.13831
3.1525
3.14994
3.09221
3.0926
3.09935
3.09489
3.09384
3.09452
3.09249
3.09527
3.09574
3.09786
3.09684
3.08857
3.09049
3.09314
3.09501
3.09131
3.09822
3.10355
3.10619
3.09305
3.09911
3.09488
3.09824
3.09484
3.09676
3.09325
3.09469
3.09979
3.09036
3.09025
3.0907
3.09435
3.09708
3.08408
3.09429
3.0953
3.08607
3.08873
3.09496
3.09348
3.1073
3.11173
3.09893
3.13687
3.10659
3.12403
3.11584
3.12221
3.11845
3.10571
3.10727
3.07388
3.07858
3.08101
3.10563
3.09396
3.09116
3.07954
3.08857
3.08428
3.0942
3.09197
3.07697
3.07896
3.08917
3.068
3.0818
3.08567
3.08974
3.07415
3.07777
3.08687
3.08433
3.05814
3.06578
3.0529
3.06615
3.05775
3.04729
3.05027
3.05201
3.04451
3.0684
3.06702
3.05903
3.06868
3.05568
3.06147
3.06509
3.18239
3.1771
3.17772
3.20171
3.21478
3.21352
3.19307
3.2062
3.22203
3.21294
3.17466
3.20399
3.19536
3.19281
3.18587
3.03707
3.03781
3.04204
3.03946
3.03534
3.03457
3.037
3.03504
3.0376
3.03645
3.0394
3.03513
3.04024
3.04001
3.0394
3.0319
3.03135
3.03322
3.03518
3.06774
3.06739
3.06661
3.07198
3.06985
3.07453
3.07406
3.06858
3.07501
3.07561
3.06702
3.0698
3.07154
3.07544
3.07155
3.08056
3.07263
3.16248
3.17301
3.15754
3.16869
3.17438
3.17804
3.18124
3.16226
3.18574
3.18346
3.18983
3.20201
3.1852
3.19674
3.17839
3.166
3.17248
3.1579
3.18101
3.19259
3.16033
3.18363
3.08823
3.0908
3.09043
3.09241
3.08611
3.08957
3.08987
3.09242
3.0911
3.0891
3.09036
3.08966
3.09215
3.09276
3.08918
3.09308
3.09112
3.06758
3.07362
3.06803
3.07181
3.0734
3.07581
3.07083
3.0639
3.07463
3.07632
3.06763
3.07302
3.07254
3.07533
3.07259
3.04455
3.03177
3.03822
3.02874
3.03786
3.03806
3.0323
3.03445
3.03592
3.03342
3.02681
3.03127
3.02258
3.02357
3.03529
3.03742
3.03567
3.029
3.19596
3.19792
3.22398
3.21889
3.18651
3.18562
3.20399
3.18749
3.17433
3.2281
3.23077
3.19559
3.20409
3.17733
3.19172
3.19138
3.2201
3.20285
3.20243
3.20684
3.06039
3.05526
3.06896
3.07203
3.05798
3.06613
3.06837
3.07095
3.06216
3.0634
3.07437
3.07375
3.05039
3.07401
3.07702
3.07099
3.07289
3.07419
3.08246
3.0844
3.08239
3.07351
3.0617
3.0636
3.06505
3.0609
3.05921
3.05933
3.05851
3.05956
3.05882
3.0597
3.06224
3.06471
3.06278
3.05725
3.05721
3.05951
3.26945
3.28309
3.28295
3.28341
3.29581
3.29587
3.28677
3.28711
3.28174
3.28531
3.30126
3.30583
3.27415
3.26836
3.28894
3.29288
3.29713
3.07626
3.06672
3.07518
3.07812
3.07934
3.07515
3.07698
3.06398
3.07106
3.07351
3.07773
3.07162
3.0941
3.08813
3.09037
3.08381
3.10713
3.09707
3.08089
3.08512
3.09471
3.08655
3.10928
3.09415
3.09644
3.08458
3.0807
3.08797
3.09169
3.0931
3.08848
3.10352
3.08486
3.15018
3.12957
3.14772
3.1349
3.14947
3.13935
3.12727
3.11079
3.14406
3.13533
3.12169
3.11562
3.13022
3.1285
3.12458
3.11686
3.1135
3.0821
3.09701
3.07795
3.07408
3.0813
3.097
3.0666
3.08062
3.06443
3.09956
3.08272
3.07118
3.0904
3.08751
3.07507
3.07695
3.07917
3.07609
3.08088
3.06139
3.07128
3.09437
3.06565
3.06611
3.05586
3.05748
3.07893
3.05875
3.06063
3.12153
3.12246
3.1329
3.1277
3.11639
3.12221
3.11024
3.11631
3.10938
3.13304
3.12337
3.11851
3.11931
3.1252
3.10698
3.11254
3.11765
3.11205
3.10287
3.09917
3.08345
3.08056
3.07843
3.07646
3.07902
3.07408
3.07635
3.0723
3.07581
3.07343
3.07734
3.06165
3.06138
3.07116
3.07299
3.06301
3.06164
3.08713
3.09181
3.08152
3.08701
3.08029
3.07308
3.08633
3.09342
3.08981
3.0822
3.07963
3.08578
3.08896
3.10132
3.1039
3.09979
3.09395
3.105
3.22987
3.21983
3.18566
3.20479
3.20327
3.2358
3.19303
3.20001
3.21857
3.21536
3.20637
3.23916
3.23107
3.21124
3.2585
3.26633
3.28164
3.28939
3.2429
3.2437
3.27352
3.26589
3.27483
3.28051
3.28908
3.28723
3.27472
3.25758
3.26001
3.25719
3.27004
3.27488
3.27458
3.27856
3.27971
3.08539
3.09407
3.09952
3.07963
3.07325
3.07501
3.09912
3.09344
3.09912
3.1024
3.09008
3.07819
3.09184
3.08821
3.07652
3.18557
3.16902
3.16072
3.17502
3.18132
3.14616
3.17616
3.18735
3.18305
3.18673
3.17314
3.16549
3.17635
3.20355
3.20674
3.19576
3.20305
3.2023
3.19261
3.18972
3.19462
3.2026
3.20621
3.20235
3.22122
3.24949
3.25833
3.19935
3.19682
3.20172
3.21055
3.21538
3.25425
3.23754
3.24082
3.20858
3.21894
3.23732
3.24244
3.22906
3.23894
3.23796
3.23708
3.08298
3.08306
3.08425
3.08647
3.08987
3.08689
3.14837
3.14271
3.15596
3.15012
3.15618
3.1601
3.17066
3.16658
3.17286
3.18668
3.18372
3.16514
3.17114
3.18097
3.17907
3.17131
3.17582
3.163
3.04344
3.03997
3.04373
3.04615
3.03812
3.04408
3.0393
3.04962
3.03895
3.04536
3.05129
3.05067
3.04309
3.04465
3.0475
3.04765
3.03438
3.03256
3.03683
3.03136
3.03057
3.03291
3.02636
3.03733
3.0312
3.02518
3.02603
3.03457
3.03094
3.05836
3.06362
3.06784
3.07163
3.08964
3.08878
3.04767
3.05416
3.0622
3.06339
3.086
3.08442
3.07097
3.07261
3.05047
3.07238
3.06958
3.07574
3.13323
3.13708
3.1778
3.1698
3.14692
3.1486
3.14652
3.1372
3.16152
3.16692
3.18205
3.16639
3.14795
3.13704
3.14731
3.16761
3.17803
3.19323
3.19205
3.19906
3.19073
3.1774
3.21122
3.21794
3.20382
3.20856
3.23035
3.22151
3.2122
3.20727
3.22687
3.21631
3.26634
3.27248
3.27907
3.28112
3.26184
3.26951
3.26243
3.27468
3.27351
3.28146
3.26686
3.27398
3.08283
3.07994
3.0768
3.08191
3.08043
3.08261
3.08557
3.08345
3.08687
3.08874
3.08101
3.05542
3.05831
3.05554
3.04963
3.05634
3.05743
3.06428
3.05296
3.05582
3.06768
3.06787
3.05714
3.09578
3.09859
3.10213
3.10869
3.10493
3.10075
3.10875
3.10285
3.10937
3.11372
3.10595
3.09533
3.10421
3.10362
3.10567
3.10886
3.11123
3.10479
3.09347
3.09524
3.09322
3.09849
3.09776
3.08881
3.0856
3.09399
3.09809
3.08732
3.09175
3.09503
3.09614
3.10265
3.09527
3.0965
3.04276
3.0473
3.03862
3.0509
3.04811
3.04714
3.03977
3.04989
3.03648
3.04506
3.04353
3.04063
3.0434
3.04913
3.05341
3.09922
3.105
3.09921
3.09896
3.10279
3.09771
3.11015
3.10843
3.11345
3.11671
3.10628
3.11515
3.10305
3.12299
3.11407
3.04595
3.04501
3.0433
3.04088
3.05009
3.04264
3.05427
3.0496
3.05892
3.04928
3.05995
3.03717
3.03589
3.03603
3.03698
3.11755
3.11957
3.10775
3.08816
3.08674
3.04106
3.0396
3.04445
3.0568
3.0538
3.06194
3.04935
3.04868
3.15765
3.15983
3.15558
3.14968
3.05607
3.05211
3.05334
3.14192
3.14935
3.14557
3.15693
3.15664
3.16414
3.08247
3.08582
3.06221
3.06384
3.06823
3.06017
3.08802
3.07949
3.05088
3.05117
3.05701
3.05573
3.18918
3.20146
3.1932
3.18555
3.15385
3.15399
3.1631
3.16129
3.06623
3.06636
3.0646
3.15258
3.14631
3.13496
3.18702
3.18296
3.07903
3.08407
3.18374
3.19175
3.17123
3.22379
3.22243
3.2184
3.21751
3.0712
3.06799
3.09948
3.11361
3.10994
3.11812
3.11459
3.12417
3.07897
3.0768
3.20417
3.21576
3.07681
3.07787
3.14108
3.1448
3.13741
3.11364
3.11407
3.12307
3.09543
3.18793
3.1992
3.08777
3.08791
3.08458
3.25794
3.25185
3.25986
3.07944
3.08266
3.07423
3.15124
3.13841
3.14363
3.24606
3.24967
3.24416
3.22922
3.2225
3.12188
3.12956
3.09229
3.09542
3.27432
3.27571
3.2687
3.08981
3.08763
3.24603
3.24809
3.13782
3.13659
3.15126
3.15785
3.09036
3.08595
3.08972
3.26589
3.2654
3.27708
3.15559
3.1674
3.10107
3.10301
3.09968
3.11052
3.10764
3.29061
3.28647
3.15994
3.15263
3.14813
3.26653
3.26672
3.21431
3.18967
3.20891
3.28654
3.29954
3.30235
3.28761
3.29844
3.30167
3.29464
3.29951
3.10745
3.10663
3.11134
3.1056
3.112
3.11202
3.24424
3.24854
3.25037
3.22873
3.22259
3.23686
3.2481
3.21416
3.22741
3.24718
3.23199
3.23402
3.24995
3.25238
3.2792
3.28068
3.27415
3.26989
3.27957
3.29518
3.28906
3.28005
3.27903
3.29024
3.11901
3.12602
3.12183
3.11665
3.11918
3.12345
3.13616
3.12744
3.11897
3.11778
3.27848
3.2836
3.28039
3.28653
3.26963
3.2609
3.26921
3.26764
3.25864
3.25222
3.28848
3.29356
3.27781
3.28034
3.28511
3.27753
3.29133
3.28696
3.28227
3.27134
3.27618
3.2675
3.26753
3.28186
3.28165
3.27742
3.26635
3.11499
3.12128
3.11396
3.1035
3.09757
3.10813
3.0937
3.09877
3.09464
3.09676
3.09825
3.1003
3.10045
3.09866
3.09786
3.18981
3.19529
3.15531
3.14426
3.15187
3.15232
3.16369
3.18023
3.13546
3.1338
3.14596
3.12531
3.12291
3.13272
3.16839
3.15761
3.14836
3.1627
3.15406
3.16899
3.17635
3.18433
3.18831
3.19843
3.21154
3.21337
3.26225
3.2754
3.27517
3.28071
3.25678
3.27004
3.24878
3.27032
3.27127
3.25576
3.23963
3.24287
3.2478
3.2465
3.24244
3.282
3.27405
3.26719
3.27185
3.23324
3.23563
3.25589
3.26028
3.24974
3.0822
3.08201
3.08705
3.08202
3.09359
3.08906
3.0951
3.08863
3.09237
3.08819
3.08996
3.08311
3.0833
3.07682
3.08207
3.08477
3.08249
3.08967
3.08795
3.09973
3.09386
3.09461
3.09008
3.18303
3.20372
3.18401
3.16019
3.14753
3.14932
3.16392
3.14828
3.1672
3.15989
3.17303
3.25616
3.25419
3.25322
3.20642
3.21668
3.26064
3.26926
3.25889
3.24182
3.24744
3.25355
3.25071
3.26083
3.25382
3.22189
3.22569
3.23322
3.23455
3.08552
3.08402
3.08607
3.09134
3.09118
3.08614
3.08442
3.08641
3.08692
3.08974
3.09473
3.09443
3.08941
3.09042
3.08798
3.08916
3.08414
3.0886
3.08922
3.08607
3.08489
3.08383
3.08446
3.0874
3.26867
3.26597
3.27321
3.26165
3.26576
3.25803
3.26873
3.27281
3.26707
3.2736
3.27337
3.10089
3.1052
3.10164
3.09
3.09098
3.09449
3.09547
3.09336
3.09687
3.098
3.09361
3.10064
3.16008
3.15619
3.14494
3.09913
3.09496
3.10873
3.09942
3.21986
3.22483
3.20313
3.22543
3.20433
3.23955
3.22766
3.23272
3.24586
3.24039
3.23561
3.24609
3.23589
3.22492
3.27092
3.25996
3.24141
3.22357
3.24811
3.24106
3.24926
3.23335
3.22174
3.23777
3.19453
3.20575
3.21494
3.21254
3.21633
3.19492
3.18068
3.1679
3.17758
3.19958
3.19708
3.19737
3.21496
3.19944
3.20627
3.20393
3.22207
3.21832
3.2148
3.25073
3.24349
3.24476
3.24413
3.24799
3.2305
3.24161
3.25181
3.24212
3.26226
3.24653
3.24168
3.24977
3.24902
3.23905
3.25178
3.24486
3.24208
3.2547
3.24997
3.25276
3.25086
3.10142
3.11123
3.10368
3.10868
3.12023
3.10395
3.11078
3.1074
3.1227
3.15884
3.15657
3.14303
3.13549
3.13294
3.14101
3.12959
3.07608
3.06846
3.07397
3.07377
3.07713
3.07241
3.07031
3.07859
3.07179
3.08426
3.07957
3.07871
3.07977
3.0777
3.24167
3.25715
3.24219
3.23618
3.24283
3.24973
3.24346
3.25064
3.23945
3.25704
3.23912
3.25638
3.26649
3.26169
3.2487
3.23433
3.23992
3.24501
3.25205
3.23363
3.2376
3.23769
3.25174
3.24509
3.24813
3.25675
3.24391
3.2445
3.2382
3.26363
3.24812
3.25731
3.2553
3.07805
3.07881
3.08458
3.08007
3.08517
3.07969
3.08311
3.08651
3.08119
3.09607
3.08763
3.09168
3.09842
3.09326
3.08819
3.16862
3.14892
3.15664
3.17166
3.14679
3.15065
3.12945
3.13006
3.22976
3.22595
3.23951
3.23187
3.2109
3.20415
3.08553
3.09183
3.08706
3.08987
3.11828
3.1249
3.11841
3.11958
3.09441
3.11699
3.10189
3.10823
3.10231
3.12298
3.10932
3.11739
3.09395
3.10631
3.1138
3.09147
3.10079
3.10414
3.16216
3.1498
3.16084
3.17257
3.11276
3.10512
3.17802
3.17218
3.15872
3.1521
3.16452
3.15663
3.07027
3.06625
3.07148
3.06968
3.07607
3.07589
3.0763
3.07587
3.07113
3.07178
3.07673
3.08155
3.07397
3.07366
3.07246
3.07324
3.07579
3.07363
3.07309
3.07864
3.07846
3.08162
3.079
3.08154
3.08105
3.18378
3.18533
3.17705
3.19471
3.19077
3.22948
3.2242
3.22859
3.22461
3.21608
3.24474
3.23111
3.24021
3.20321
3.21466
3.23427
3.22951
3.21751
3.22957
3.21436
3.07425
3.07976
3.07997
3.06819
3.07612
3.07335
3.07869
3.07093
3.08288
3.08888
3.08188
3.08104
3.08417
3.09005
3.11612
3.11832
3.12746
3.07963
3.08173
3.09442
3.11307
3.11174
3.10566
3.1072
3.10788
3.14084
3.11918
3.11834
3.16426
3.15141
3.15724
3.12763
3.11433
3.14008
3.13688
3.12113
3.13073
3.11474
3.13216
3.14322
3.13586
3.18789
3.18539
3.19591
3.17462
3.17117
3.11678
3.1141
3.10346
3.12832
3.11638
3.13686
3.14109
3.13073
3.09847
3.09705
3.10754
3.10484
3.10875
3.10764
3.05662
3.06454
3.05784
3.06763
3.06197
3.0659
3.05831
3.06802
3.06667
3.06223
3.06823
3.07046
3.0667
3.06919
3.06747
3.0671
3.06233
3.0719
3.20311
3.21379
3.21275
3.20522
3.21167
3.20239
3.2068
3.21113
3.20762
3.22921
3.22726
3.23483
3.20938
3.21483
3.21997
3.22768
3.21506
3.23182
3.24605
3.21771
3.21876
3.22707
3.22645
3.21276
3.20901
3.19322
3.21241
3.2123
3.14766
3.164
3.14422
3.13872
3.16595
3.16327
3.15453
3.2008
3.21376
3.1998
3.07725
3.08757
3.0919
3.07792
3.07269
3.07898
3.07744
3.06494
3.06334
3.16488
3.15831
3.1676
3.16647
3.18201
3.14098
3.16223
3.16502
3.1724
3.16612
3.15039
3.1449
3.15534
3.16682
3.1558
3.17011
3.20213
3.19353
3.19609
3.19627
3.18939
3.1956
3.17596
3.20687
3.1999
3.19872
3.18609
3.19828
3.18596
3.10489
3.12097
3.12703
3.12699
3.1478
3.15099
3.13805
3.15168
3.14953
3.13682
3.12973
3.12676
3.13605
3.12663
3.05823
3.06425
3.05917
3.06108
3.05981
3.06425
3.05741
3.05997
3.06164
3.05661
3.07057
3.06662
3.06877
3.0688
3.1817
3.18733
3.18062
3.16603
3.164
3.15718
3.1654
3.16046
3.16487
3.15806
3.1496
3.16422
3.15689
3.12145
3.12593
3.16958
3.17547
3.17139
3.17379
3.16265
3.04727
3.054
3.05474
3.05297
3.05067
3.05731
3.04679
3.0494
3.0498
3.06098
3.06166
3.05634
3.09833
3.09338
3.09245
3.05871
3.06797
3.06747
3.07213
3.07536
3.06819
3.07193
3.07113
3.06893
3.07054
3.07796
3.06413
3.06741
3.0736
3.07262
3.06499
3.07024
3.06801
3.06643
3.08587
3.08337
3.09206
3.09201
3.07548
3.07511
3.08893
3.0796
3.05607
3.0581
3.05402
3.06194
3.05919
3.0569
3.05927
3.05568
3.0563
3.05595
3.07356
3.07287
3.07341
3.06671
3.0688
3.06943
3.0727
3.06319
3.06888
3.06632
3.0684
3.06318
3.0669
3.06609
3.12017
3.11598
3.10468
3.12553
3.09671
3.09417
3.08527
3.10441
3.10113
3.08193
3.07465
3.0976
3.08171
3.09059
3.10275
3.11148
3.10292
3.09983
3.09165
3.08629
3.0678
3.08312
3.06924
3.07136
3.0721
3.07577
3.0672
3.07258
3.08155
3.13129
3.13259
3.12921
3.13445
3.15691
3.15984
3.15035
3.14188
3.15342
3.12836
3.13349
3.1273
3.14171
3.12924
3.14296
3.14175
3.15515
3.16293
3.17755
3.15672
3.15947
3.14497
3.12789
3.13293
3.13288
3.14277
3.15011
3.14162
3.14339
3.12495
3.14528
3.13553
3.13987
3.12703
3.12698
3.12103
3.12457
3.11049
3.12748
3.1253
3.12914
3.13265
3.12786
3.12656
3.12566
3.11617
3.13105
3.13574
3.11436
3.10938
3.04318
3.04579
3.04737
3.05042
3.0463
3.04729
3.05033
3.04826
3.05638
3.05482
3.0598
3.06012
3.06008
3.05568
3.14359
3.14466
3.14756
3.1381
3.1506
3.14921
3.14711
3.14181
3.16497
3.16029
3.15032
3.16551
3.15284
3.0446
3.05116
3.05389
3.04977
3.04231
3.037
3.04308
3.04514
3.0459
3.05182
3.05472
3.05791
3.04616
3.04461
3.04297
3.0446
3.04408
3.0478
3.04261
3.04674
3.04301
3.06827
3.06656
3.06465
3.05496
3.05902
3.06068
3.06224
3.06697
3.05376
3.05878
3.05223
3.05058
3.04673
3.03907
3.03634
3.04696
3.03611
3.03885
3.04247
3.03676
3.04476
3.04749
3.03971
3.04131
3.04509
3.04381
3.04046
3.03533
3.03958
3.10128
3.10471
3.10573
3.09873
3.09157
3.07089
3.0813
3.07876
3.06996
3.10515
3.09756
3.10698
3.10006
3.09065
3.09733
3.09587
3.1044
3.09232
3.09632
3.07527
3.0701
3.05827
3.06323
3.07137
3.06546
3.07187
3.07569
3.05854
3.0555
3.09722
3.09794
3.10253
3.09566
3.09879
3.11611
3.10158
3.0904
3.11705
3.1105
3.10489
3.09993
3.11043
3.106
3.12921
3.12292
3.11877
3.10719
3.12613
3.11562
3.06168
3.05791
3.06984
3.06124
3.05329
3.0635
3.08896
3.08506
3.03411
3.03476
3.03294
3.03319
3.03752
3.03539
3.04086
3.03519
3.03187
3.03388
3.03589
3.03596
3.03517
3.03581
3.03897
3.0432
3.03909
3.03673
3.03508
3.04081
3.04279
3.03301
3.04022
3.03863
3.0329
3.0364
3.03943
3.03535
3.03355
3.04716
3.03816
3.03871
3.04422
3.04389
3.04934
3.05044
3.04921
3.04718
3.03919
3.03916
3.04025
3.03631
3.03262
3.0357
3.03433
3.03247
3.03526
3.03493
3.13217
3.13686
3.13405
3.14738
3.14167
3.13801
3.13722
3.12966
3.12683
3.1323
3.13717
3.13487
3.12896
3.0626
3.05531
3.04954
3.05477
3.055
3.06807
3.06747
3.04057
3.04471
3.04415
3.04012
3.04141
3.03848
3.04153
3.05555
3.0473
3.06054
3.05139
3.04533
3.05384
3.11081
3.11555
3.12009
3.12839
3.12524
3.1157
3.04115
3.04632
3.03952
3.04711
3.04537
3.03292
3.03787
3.0556
3.05094
3.05011
3.04408
3.03981
3.04492
3.0473
3.04388
3.04455
3.05425
3.05035
3.04924
3.04579
3.04871
3.04977
3.04758
3.04307
3.04794
3.03776
3.04376
3.05412
3.04578
3.05043
3.04917
3.05153
3.03572
3.03486
3.03701
3.04007
3.03889
3.04129
3.03697
3.03911
3.04156
3.04771
3.04966
3.05123
3.05611
3.05156
3.05455
3.05197
3.05396
3.0547
3.05497
3.15588
3.17575
3.17673
3.17076
3.17093
3.15701
3.17812
3.17425
3.16059
3.13041
3.14511
3.14179
3.13604
3.14031
3.13886
3.1366
3.13264
3.14045
3.13776
3.12658
3.13477
3.13101
3.04637
3.04799
3.04531
3.04874
3.0448
3.04022
3.10729
3.10801
3.1085
3.09691
3.09497
3.10948
3.1097
3.09782
3.10818
3.10962
3.09843
3.09965
3.11658
3.12058
3.10479
3.12351
3.119
3.16425
3.15796
3.14992
3.15624
3.15
3.16213
3.16791
3.05589
3.05448
3.09829
3.08488
3.11129
3.11142
3.09553
3.09293
3.09861
3.09126
3.11629
3.11785
3.12907
3.11601
3.12356
3.11056
3.12477
3.11547
3.11009
3.10948
3.11399
3.0672
3.06544
3.06514
3.05921
3.05818
3.06411
3.06334
3.05423
3.05408
3.05486
3.05504
3.05504
3.05738
3.06152
3.05948
3.05005
3.0519
3.06143
3.06041
3.05713
3.05452
3.05062
3.05363
3.05624
3.0475
3.04983
3.05354
3.05382
3.05166
3.05206
3.09676
3.09012
3.09174
3.09766
3.09081
3.07796
3.09452
3.08452
3.08475
3.07095
3.07057
3.07302
3.0737
3.07301
3.07655
3.06995
3.07055
3.07583
3.07899
3.07352
3.07642
3.05919
3.07428
3.08218
3.07376
3.05897
3.06117
3.0698
3.06114
3.10017
3.08949
3.08473
3.08881
3.08583
3.07441
3.08128
3.07372
3.07478
3.07974
3.07731
3.0913
3.09199
3.08003
3.08914
3.08267
3.08159
3.0821
3.07708
3.06425
3.0742
3.06017
3.14652
3.14995
3.15494
3.1464
3.15317
3.16322
3.16024
3.16173
3.16525
3.16003
3.14556
3.13645
3.14098
3.14707
3.13146
3.13845
3.18172
3.17295
3.16837
3.1873
3.18662
3.17541
3.17873
3.1683
3.15546
3.16993
3.17464
3.15947
3.18319
3.18369
3.17874
3.16836
3.16358
3.16251
3.1255
3.14039
3.1357
3.12925
3.12348
3.14218
3.14115
3.14989
3.14493
3.14417
3.14633
3.20099
3.20038
3.20398
3.19764
3.19671
3.18297
3.18135
3.20266
3.18882
3.07099
3.07044
3.074
3.07048
3.07132
3.06199
3.06068
3.13169
3.12816
3.14587
3.12569
3.1388
3.15381
3.15011
3.14584
3.14718
3.15491
3.14246
3.13
3.12693
3.13759
3.1321
3.16037
3.17728
3.18052
3.17582
3.16778
3.15883
3.16911
3.16272
3.19123
3.18569
3.15622
3.15212
3.19584
3.18458
3.19249
3.19844
3.06484
3.0557
3.06322
3.06997
3.06452
3.06913
3.06497
3.07476
3.07049
3.07356
3.08088
3.07179
3.08567
3.08319
3.19486
3.22069
3.21456
3.19671
3.22023
3.2044
3.21634
3.22586
3.23156
3.22496
3.23273
3.21815
3.24568
3.22868
3.22281
3.21019
3.1974
3.19818
3.21997
3.20662
3.21037
3.20142
3.20881
3.19578
3.05336
3.04891
3.06188
3.05726
3.05831
3.05461
3.05676
3.0727
3.06314
3.0593
3.06031
3.06004
3.05318
3.04686
3.05453
3.13595
3.12682
3.14319
3.12371
3.11283
3.11654
3.12196
3.12442
3.13744
3.11436
3.11368
3.12085
3.1143
3.14602
3.1585
3.14489
3.13713
3.12416
3.19145
3.189
3.17786
3.16489
3.18488
3.1692
3.0911
3.10568
3.10315
3.09646
3.10785
3.11859
3.11525
3.0969
3.09171
3.10291
3.10249
3.12037
3.11927
3.08678
3.08357
3.07524
3.10469
3.09101
3.10081
3.09162
3.10089
3.08959
3.09888
3.0933
3.10129
3.10955
3.10846
3.10734
3.08645
3.10186
3.11282
3.10179
3.09135
3.08713
3.0798
3.07798
3.08827
3.08191
3.11247
3.12242
3.12103
3.12697
3.09748
3.11191
3.11393
3.11817
3.1314
3.12121
3.10567
3.14233
3.14035
3.13932
3.13424
3.13526
3.13522
3.08859
3.08002
3.08648
3.08903
3.15196
3.1535
3.17009
3.16403
3.15496
3.16408
3.16156
3.17524
3.16555
3.17307
3.17026
3.08729
3.08447
3.08345
3.07983
3.08425
3.0826
3.07917
3.07972
3.08079
3.07278
3.07118
3.07012
3.06717
3.06987
3.07201
3.07041
3.07258
3.0747
3.06375
3.06594
3.06561
3.0677
3.15224
3.1888
3.19195
3.18879
3.17747
3.15934
3.15967
3.16169
3.17061
3.16092
3.20464
3.17767
3.18565
3.21744
3.19843
3.18579
3.09759
3.08436
3.09137
3.08607
3.09465
3.09562
3.09809
3.09967
3.10236
3.10673
3.10665
3.10723
3.09497
3.11311
3.11197
3.10497
3.10799
3.10833
3.09276
3.09061
3.09701
3.09271
3.13033
3.16384
3.1402
3.16734
3.1274
3.11508
3.14245
3.1411
3.12851
3.09108
3.08406
3.09015
3.09474
3.08136
3.08107
3.08017
3.06939
3.08541
3.07829
3.06317
3.06513
3.06617
3.06961
3.15966
3.1468
3.17676
3.17725
3.15602
3.17278
3.1586
3.14767
3.08915
3.08289
3.08963
3.09199
3.09168
3.10135
3.09689
3.0983
3.09826
3.09498
3.10955
3.10893
3.10062
3.10162
3.10325
3.09804
3.09201
3.10174
3.09838
3.10062
3.07987
3.08037
3.07749
3.07693
3.07667
3.07949
3.079
3.07469
3.07682
3.07487
3.2535
3.26768
3.2576
3.25582
3.26
3.24915
3.26628
3.26793
3.25649
3.24509
3.25488
3.23017
3.22802
3.23387
3.26015
3.26969
3.25811
3.26847
3.26126
3.25321
3.25787
3.26422
3.2537
3.25175
3.24553
3.23332
3.25212
3.24419
3.22454
3.22991
3.08666
3.06371
3.0782
3.08854
3.08231
3.08745
3.0784
3.07492
3.07649
3.076
3.0823
3.07871
3.07998
3.07733
3.07059
3.07256
3.06643
3.07131
3.07175
3.07547
3.07965
3.07574
3.1189
3.12086
3.11242
3.10746
3.10535
3.0984
3.12417
3.1195
3.10836
3.10501
3.10282
3.219
3.23814
3.22301
3.239
3.22952
3.22752
3.2225
3.22377
3.23487
3.23492
3.16335
3.1833
3.18053
3.18452
3.20053
3.18394
3.17058
3.19303
3.19618
3.0905
3.08649
3.08708
3.09103
3.09114
3.08942
3.12874
3.12116
3.11932
3.11266
3.11063
3.10396
3.11118
3.10692
3.11312
3.10088
3.10233
3.09846
3.09882
3.1031
3.11316
3.10406
3.09486
3.25918
3.26749
3.2619
3.25262
3.25512
3.25551
3.2666
3.26306
3.28521
3.27999
3.26098
3.26157
3.27468
3.2709
3.269
3.26636
3.26571
3.26322
3.26437
3.26335
3.26143
3.26825
3.26024
3.26261
3.25095
3.27519
3.2693
3.08251
3.0834
3.08472
3.08548
3.08041
3.08045
3.08269
3.081
3.08086
3.08827
3.08602
3.08669
3.08427
3.08722
3.08911
3.08847
3.08513
3.08646
3.09651
3.09323
3.09753
3.09617
3.09999
3.09423
3.10208
3.24787
3.23892
3.23627
3.24104
3.23424
3.2202
3.14956
3.17171
3.15656
3.17175
3.1675
3.1488
3.13803
3.1401
3.14351
3.12603
3.12779
3.12852
3.13145
3.1141
3.10786
3.13726
3.14187
3.08853
3.0885
3.09435
3.23994
3.21855
3.21355
3.24561
3.24064
3.22455
3.2209
3.17658
3.16796
3.19876
3.19734
3.18579
3.1755
3.19974
3.21208
3.18937
3.18956
3.19698
3.1571
3.18008
3.18226
3.18019
3.17548
3.17548
3.15939
3.13525
3.15128
3.14178
3.14473
3.14008
3.13972
3.15403
3.15517
3.14409
3.14061
3.18387
3.19609
3.19197
3.18356
3.17741
3.17818
3.16429
3.16698
3.22346
3.22136
3.22826
3.23299
3.21165
3.21872
3.20483
3.19878
3.21536
3.20799
3.22052
3.21965
3.08772
3.09281
3.09363
3.09414
3.09228
3.09358
3.09364
3.1002
3.09914
3.10135
3.10047
3.10008
3.09948
3.10032
3.10723
3.09962
3.10741
3.10917
3.1087
3.10108
3.10447
3.1052
3.10251
3.27801
3.28303
3.28703
3.27656
3.28338
3.27854
3.24474
3.23268
3.23378
3.24179
3.23641
3.25333
3.25454
3.25266
3.24
3.25455
3.23008
3.23181
3.24908
3.24295
3.13712
3.14785
3.14937
3.15386
3.13738
3.12926
3.13956
3.14946
3.09655
3.08355
3.08271
3.10335
3.09527
3.08788
3.09717
3.08882
3.08157
3.07893
3.09019
3.27239
3.29251
3.28416
3.29128
3.28614
3.27249
3.29116
3.09627
3.09482
3.09789
3.09492
3.0933
3.09341
3.09408
3.09083
3.09555
3.24745
3.25346
3.25995
3.2596
3.24772
3.26612
3.26629
3.26632
3.26761
3.26246
3.2542
3.23677
3.23948
3.24139
3.23026
3.27149
3.26997
3.2479
3.25985
3.16161
3.14883
3.15705
3.18786
3.18109
3.17235
3.16777
3.15888
3.10693
3.08883
3.08568
3.10967
3.10695
3.1167
3.09694
3.09764
3.27435
3.27451
3.27641
3.27233
3.26441
3.27926
3.27194
3.27693
3.26866
3.26722
3.06332
3.06421
3.06698
3.0683
3.06989
3.06665
3.07418
3.0787
3.07259
3.076
3.08054
3.22407
3.22749
3.23387
3.23735
3.22717
3.21
3.22979
3.21686
3.23819
3.22791
3.22152
3.22706
3.24347
3.23479
3.23806
3.21102
3.2374
3.22475
3.23147
3.22706
3.21746
3.14672
3.15239
3.14618
3.13806
3.16043
3.15293
3.15132
3.13556
3.14847
3.14297
3.15516
3.14322
3.14229
3.14183
3.1776
3.18319
3.17178
3.17804
3.16549
3.16851
3.17873
3.18074
3.17659
3.16971
3.18249
3.17664
3.06436
3.05281
3.05229
3.04839
3.0676
3.05632
3.0507
3.04725
3.09925
3.10682
3.10933
3.10658
3.10882
3.10574
3.12375
3.12366
3.1169
3.12508
3.11347
3.12476
3.11722
3.10336
3.0317
3.03524
3.03488
3.03718
3.03679
3.03324
3.0309
3.03724
3.03987
3.04015
3.03856
3.06996
3.0646
3.06325
3.0714
3.0659
3.06781
3.06837
3.06656
3.0729
3.09087
3.07741
3.0847
3.08358
3.07577
3.07479
3.08074
3.0739
3.19609
3.18573
3.1802
3.2107
3.1986
3.20516
3.20159
3.19332
3.1849
3.17589
3.18322
3.16448
3.16692
3.10021
3.10288
3.10336
3.10331
3.10279
3.08925
3.08103
3.08754
3.10047
3.10081
3.10124
3.10008
3.09956
3.0994
3.09812
3.09748
3.09583
3.09722
3.099
3.09912
3.09463
3.15757
3.13542
3.14748
3.13112
3.13213
3.12921
3.12801
3.11859
3.11713
3.12936
3.11893
3.12869
3.12622
3.11981
3.11991
3.12416
3.11602
3.11694
3.10698
3.10396
3.10804
3.11157
3.10726
3.1015
3.10443
3.10198
3.10095
3.11397
3.11614
3.11692
3.15878
3.14592
3.12854
3.13397
3.12871
3.23917
3.23343
3.25932
3.2611
3.26927
3.26286
3.2739
3.27941
3.28211
3.25919
3.27396
3.25535
3.25904
3.25139
3.26717
3.26606
3.26948
3.26198
3.27331
3.26974
3.11045
3.10622
3.10291
3.09189
3.10409
3.11823
3.11854
3.11469
3.1123
3.08941
3.09752
3.09841
3.09576
3.14301
3.17337
3.19138
3.18816
3.15575
3.21822
3.23844
3.23324
3.22217
3.23
3.21635
3.23664
3.23643
3.22626
3.23792
3.23382
3.08281
3.07363
3.08314
3.08688
3.08487
3.08714
3.08438
3.08502
3.08845
3.0812
3.06944
3.07399
3.2703
3.25448
3.24938
3.25322
3.25358
3.26452
3.25515
3.26271
3.2642
3.23529
3.25499
3.26236
3.26252
3.24872
3.26255
3.25348
3.26071
3.25382
3.2432
3.24497
3.24279
3.18042
3.11755
3.10773
3.12174
3.12357
3.11936
3.11589
3.12762
3.12292
3.11139
3.12279
3.2266
3.23296
3.08768
3.08773
3.08818
3.0912
3.08985
3.08429
3.08424
3.08571
3.08548
3.08163
3.08412
3.08575
3.19218
3.17112
3.17323
3.18478
3.18927
3.19105
3.19227
3.17853
3.17116
3.16952
3.16041
3.16627
3.19767
3.21506
3.22763
3.22828
3.19765
3.18756
3.22789
3.21871
3.20634
3.22325
3.20887
3.12945
3.13218
3.10514
3.11595
3.12477
3.11148
3.16803
3.17694
3.18649
3.18858
3.18545
3.16398
3.1819
3.19784
3.19871
3.16341
3.17423
3.19807
3.20715
3.19364
3.06768
3.06425
3.0669
3.0673
3.06876
3.06659
3.06916
3.06753
3.07091
3.07232
3.06794
3.07012
3.07502
3.07384
3.0703
3.06841
3.18766
3.17983
3.17779
3.20256
3.19218
3.18847
3.19925
3.21213
3.21153
3.18962
3.2221
3.23576
3.22412
3.22879
3.22772
3.22719
3.23192
3.22711
3.22848
3.24769
3.24637
3.24185
3.23509
3.2327
3.24238
3.07018
3.07678
3.07542
3.06974
3.07188
3.07017
3.06746
3.07949
3.07548
3.07738
3.07696
3.10616
3.09004
3.09167
3.09511
3.11461
3.12379
3.13041
3.13625
3.12964
3.118
3.14099
3.13243
3.12764
3.12391
3.12187
3.12164
3.20664
3.18209
3.17095
3.12073
3.12897
3.11545
3.06561
3.06521
3.0616
3.06195
3.06632
3.06403
3.06614
3.07003
3.06619
3.06807
3.05359
3.05738
3.05202
3.05313
3.04614
3.05522
3.05437
3.05662
3.05604
3.05576
3.07247
3.0706
3.13121
3.12299
3.12075
3.13853
3.06317
3.06128
3.06299
3.05865
3.0599
3.05909
3.05431
3.06092
3.05787
3.06144
3.06368
3.05458
3.05578
3.06048
3.06017
3.05384
3.05008
3.05086
3.05016
3.06039
3.05246
3.0548
3.04916
3.04845
3.04966
3.04497
3.04919
3.05699
3.05033
3.05077
3.05096
3.05343
3.04216
3.04731
3.03314
3.04472
3.03933
3.04461
3.04692
3.04493
3.03771
3.05071
3.04698
3.05344
3.04574
3.04731
3.05014
3.04537
3.04398
3.08993
3.07924
3.07812
3.09946
3.09631
3.08776
3.10086
3.09845
3.09026
3.09687
3.10148
3.04592
3.03715
3.03857
3.03714
3.04263
3.04141
3.03816
3.04061
3.04169
3.03773
3.03466
3.03454
3.03384
3.03318
3.03252
3.04671
3.04855
3.04764
3.04789
3.02955
3.03722
3.03504
3.03624
3.0352
3.03168
3.03677
3.03674
3.03745
3.12728
3.12462
3.12028
3.13174
3.12626
3.12892
3.12666
3.11043
3.0395
3.04116
3.0407
3.0374
3.04485
3.03893
3.04108
3.04706
3.04622
3.03895
3.0429
3.03669
3.03879
3.04281
3.04267
3.04035
3.0387
3.03374
3.03717
3.03633
3.02965
3.03646
3.03747
3.03573
3.03507
3.03814
3.03922
3.03695
3.04145
3.03699
3.03809
3.0415
3.04485
3.04
3.04423
3.05997
3.05973
3.05624
3.06305
3.0665
3.06286
3.05727
3.06117
3.05662
3.05419
3.06403
3.06273
3.14253
3.15126
3.16323
3.15234
3.16124
3.1605
3.1473