/*--------------------------------*- C++ -*----------------------------------*\
| =========                 |                                                 |
| \\      /  F ield         | OpenFOAM: The Open Source CFD Toolbox           |
|  \\    /   O peration     | Version:  v1612+                                |
|   \\  /    A nd           | Web:      www.OpenFOAM.com                      |
|    \\/     M anipulation  |                                                 |
\*---------------------------------------------------------------------------*/
FoamFile
{
    version     2.0;
    format      ascii;
    class       volScalarField;
    location    "50";
    object      p;
}
// * * * * * * * * * * * * * * * * * * * * * * * * * * * * * * * * * * * * * //

dimensions      [0 2 -2 0 0 0 0];

internalField   nonuniform List<scalar> 
18946
(
0.372397
0.265273
0.336163
0.321042
0.370288
0.3729
0.374953
0.375558
0.366889
0.375967
0.371638
0.369661
0.367191
0.364451
0.365176
0.36627
0.371785
0.371339
0.367982
0.367029
0.359612
0.362692
0.351983
0.356649
0.36534
0.360079
0.360989
0.362156
0.366204
0.36458
0.362298
0.352693
0.360715
0.365689
0.358068
0.365015
0.361116
0.365227
0.366758
0.353242
0.348898
0.354648
0.34475
0.342388
0.350434
0.351989
0.345718
0.345655
0.346076
0.358421
0.353509
0.381871
0.379496
0.374179
0.377843
0.371902
0.374665
0.374539
0.381198
0.358301
0.356299
0.365064
0.362231
0.369369
0.364546
0.360205
0.365795
0.363989
0.367103
0.367453
0.373873
0.370545
0.367254
0.370612
0.373335
0.371613
0.367632
0.364141
0.365129
0.363074
0.358255
0.367235
0.362531
0.342703
0.350707
0.371638
0.343026
0.359341
0.341492
0.355566
0.344081
0.361314
0.337323
0.348072
0.383359
0.363018
0.373975
0.36784
0.353266
0.348713
0.353144
0.355317
0.34408
0.347205
0.374341
0.362838
0.375793
0.372134
0.351519
0.367981
0.362676
0.364552
0.374131
0.358397
0.364105
0.362161
0.319816
0.318693
0.323851
0.323286
0.314421
0.314967
0.316371
0.31633
0.314983
0.314852
0.3223
0.317494
0.316826
0.318692
0.317151
0.313929
0.318019
0.312084
0.31594
0.319288
0.317936
0.318303
0.317724
0.336979
0.323982
0.329171
0.323476
0.323295
0.322322
0.325233
0.33798
0.324008
0.322167
0.334039
0.330366
0.331576
0.313724
0.321701
0.332521
0.335042
0.334563
0.329951
0.335203
0.396995
0.400695
0.397145
0.389064
0.398757
0.39208
0.386116
0.380997
0.386434
0.385666
0.373695
0.380177
0.373338
0.370519
0.386911
0.389138
0.41969
0.387136
0.440656
0.44586
0.432805
0.423129
0.411595
0.440989
0.444073
0.453151
0.394007
0.400189
0.411963
0.409118
0.409472
0.460408
0.428177
0.423959
0.438876
0.434491
0.445139
0.389955
0.391304
0.391867
0.351169
0.376438
0.398655
0.392708
0.359137
0.356002
0.352367
0.343445
0.368322
0.346017
0.35333
0.367575
0.353625
0.349287
0.363302
0.33303
0.332112
0.335512
0.337017
0.340378
0.332485
0.333608
0.335213
0.342732
0.343911
0.333117
0.343311
0.339
0.341802
0.478654
0.474281
0.49333
0.505659
0.480336
0.500453
0.495252
0.496629
0.504754
0.506838
0.401547
0.382877
0.367501
0.390255
0.396427
0.391498
0.397614
0.39915
0.357191
0.38835
0.385291
0.379303
0.362721
0.382613
0.361127
0.358625
0.364154
0.33864
0.353206
0.376533
0.331967
0.325795
0.333003
0.331386
0.336288
0.33284
0.326893
0.332991
0.334184
0.335747
0.335695
0.334583
0.332218
0.328523
0.329586
0.333049
0.327146
0.33184
0.331323
0.292167
0.290625
0.294983
0.295298
0.291972
0.29871
0.293213
0.29126
0.290887
0.290562
0.294534
0.286519
0.287647
0.293907
0.29222
0.293477
0.286085
0.287232
0.290654
0.288338
0.286208
0.288465
0.289931
0.287348
0.290766
0.291855
0.291079
0.29482
0.291657
0.293871
0.29777
0.300193
0.303137
0.290194
0.294004
0.295547
0.294321
0.293675
0.292913
0.300668
0.296672
0.317884
0.315012
0.315971
0.315896
0.317175
0.317643
0.312899
0.316903
0.317378
0.288139
0.289771
0.293899
0.29635
0.291284
0.286628
0.292425
0.289953
0.29117
0.288669
0.282208
0.289816
0.290558
0.286035
0.281617
0.290315
0.286618
0.287173
0.287903
0.282947
0.292627
0.298863
0.29606
0.294452
0.290776
0.297955
0.293098
0.302912
0.302996
0.307333
0.29922
0.322787
0.313358
0.31564
0.314683
0.312189
0.313071
0.311804
0.318689
0.321614
0.324026
0.312444
0.306503
0.319296
0.305125
0.318714
0.318215
0.322284
0.32585
0.322066
0.317038
0.318583
0.327159
0.322967
0.323394
0.311177
0.311388
0.316828
0.313997
0.315441
0.312037
0.311578
0.314303
0.308352
0.305843
0.314549
0.306923
0.306413
0.303257
0.315227
0.301998
0.302208
0.30104
0.318653
0.318183
0.316261
0.315946
0.320035
0.327648
0.324788
0.328838
0.333277
0.322786
0.319143
0.321155
0.324416
0.32885
0.328872
0.32506
0.322122
0.327159
0.321621
0.31714
0.357723
0.368006
0.369662
0.353476
0.360742
0.359491
0.361734
0.366109
0.36833
0.375081
0.363567
0.357111
0.371121
0.366846
0.361799
0.365682
0.335961
0.33384
0.326545
0.335212
0.33925
0.341871
0.339744
0.338326
0.33433
0.330959
0.338101
0.340002
0.337075
0.336844
0.364168
0.362835
0.351041
0.355952
0.36406
0.361644
0.359665
0.35985
0.358828
0.364005
0.363062
0.365619
0.365837
0.365504
0.34192
0.346545
0.354953
0.352819
0.346865
0.348896
0.349577
0.359585
0.358231
0.351151
0.352649
0.35035
0.350401
0.353526
0.351705
0.352559
0.340109
0.32645
0.327866
0.331821
0.325973
0.339728
0.343796
0.338229
0.328391
0.337116
0.335552
0.340494
0.31735
0.310427
0.322287
0.317469
0.319533
0.323414
0.320645
0.319397
0.315998
0.323231
0.311171
0.319885
0.320986
0.316946
0.357215
0.351563
0.34161
0.34471
0.339829
0.341405
0.335377
0.344668
0.355166
0.336356
0.329484
0.338076
0.345667
0.353124
0.357674
0.347073
0.3423
0.352041
0.345939
0.34882
0.349445
0.353723
0.349695
0.284282
0.282678
0.286705
0.274983
0.280325
0.283014
0.290468
0.281935
0.272961
0.284211
0.282052
0.28471
0.284635
0.3232
0.333401
0.330857
0.322244
0.33156
0.333109
0.333868
0.335362
0.332999
0.331064
0.336854
0.325416
0.335104
0.332753
0.306289
0.304328
0.305447
0.304567
0.312004
0.311837
0.306155
0.309381
0.308707
0.306023
0.31228
0.307904
0.301646
0.305509
0.301064
0.312295
0.308479
0.304528
0.297808
0.306298
0.326879
0.331174
0.323165
0.32963
0.31959
0.318341
0.327715
0.326193
0.33249
0.324578
0.328441
0.330138
0.315173
0.317454
0.332319
0.319765
0.318093
0.319777
0.324531
0.321244
0.317377
0.32579
0.320317
0.342461
0.341588
0.362252
0.350952
0.334806
0.329249
0.351441
0.340593
0.343734
0.343121
0.338754
0.338373
0.337945
0.335309
0.329329
0.344679
0.345292
0.326623
0.338843
0.347321
0.340324
0.343693
0.349414
0.340221
0.330567
0.346222
0.349522
0.335867
0.332981
0.327117
0.328147
0.328888
0.325295
0.326294
0.336011
0.329755
0.35991
0.353648
0.354254
0.339599
0.338918
0.332188
0.331551
0.34097
0.354642
0.350429
0.354928
0.350843
0.360663
0.350028
0.363246
0.35474
0.361206
0.364604
0.366786
0.311274
0.312395
0.312634
0.313321
0.312374
0.31399
0.316562
0.316509
0.312627
0.311445
0.309439
0.307723
0.313367
0.318283
0.319136
0.407778
0.424071
0.412047
0.409304
0.42379
0.413164
0.418178
0.393549
0.38361
0.401408
0.400589
0.437443
0.422042
0.407309
0.38448
0.386504
0.401025
0.420208
0.394312
0.422609
0.43655
0.399686
0.434302
0.441596
0.402719
0.438211
0.363996
0.351363
0.375831
0.369422
0.373735
0.373749
0.352535
0.346047
0.373835
0.378376
0.364969
0.364131
0.375847
0.378587
0.362948
0.368332
0.377218
0.376527
0.371853
0.363567
0.367444
0.368061
0.367418
0.381786
0.377381
0.376351
0.376722
0.373331
0.372596
0.3776
0.37708
0.370304
0.372522
0.286095
0.290614
0.286327
0.286744
0.281865
0.28214
0.28554
0.284684
0.280727
0.279419
0.278839
0.287839
0.285342
0.281994
0.280706
0.29033
0.281816
0.290462
0.321334
0.322896
0.330845
0.328251
0.325648
0.323491
0.326672
0.331447
0.327073
0.322638
0.325569
0.327248
0.327951
0.326309
0.323079
0.325513
0.325059
0.325561
0.353918
0.353113
0.356295
0.3491
0.331378
0.326304
0.344785
0.340753
0.345041
0.338823
0.352798
0.336385
0.337736
0.328762
0.32874
0.321794
0.336704
0.336133
0.351997
0.345913
0.311073
0.305906
0.311688
0.307233
0.317543
0.317016
0.316356
0.315848
0.309133
0.312548
0.320365
0.309892
0.319763
0.435284
0.437467
0.444653
0.430125
0.428365
0.441005
0.432308
0.446404
0.44837
0.439222
0.438634
0.427921
0.417807
0.443996
0.44395
0.411419
0.437214
0.428552
0.418304
0.352488
0.353619
0.350219
0.349221
0.346812
0.349594
0.346885
0.349094
0.349865
0.350432
0.289597
0.285943
0.285845
0.290959
0.283754
0.275267
0.285549
0.296169
0.290577
0.291494
0.29272
0.28311
0.292194
0.292902
0.313257
0.312134
0.312221
0.305306
0.309318
0.309697
0.306575
0.315444
0.308453
0.30685
0.305872
0.30696
0.311913
0.312362
0.306205
0.301809
0.305384
0.307258
0.302251
0.308647
0.306812
0.306734
0.308293
0.3051
0.304929
0.311298
0.303378
0.307578
0.309107
0.309767
0.313719
0.311068
0.315353
0.312108
0.315614
0.318496
0.311374
0.312284
0.311813
0.315818
0.305332
0.309233
0.313792
0.305131
0.309036
0.312952
0.308849
0.306991
0.343956
0.341023
0.344346
0.340993
0.342106
0.351912
0.338793
0.349008
0.342863
0.351063
0.345921
0.353623
0.355672
0.354124
0.348708
0.35001
0.351856
0.352496
0.346572
0.299039
0.29542
0.294261
0.295454
0.299927
0.298181
0.29803
0.297622
0.303371
0.298896
0.301171
0.299636
0.304105
0.333543
0.33428
0.34786
0.338036
0.33566
0.335177
0.33826
0.335498
0.335735
0.353256
0.339882
0.330773
0.330865
0.34258
0.331551
0.340562
0.335423
0.359852
0.358125
0.356308
0.355005
0.355397
0.35424
0.355572
0.354606
0.365173
0.360484
0.356011
0.35268
0.358055
0.36055
0.354573
0.350942
0.329182
0.325186
0.330949
0.329896
0.329847
0.331275
0.329835
0.32903
0.324389
0.329749
0.319955
0.324415
0.318973
0.324967
0.324823
0.322848
0.324598
0.31817
0.321993
0.32235
0.351163
0.362725
0.349539
0.35906
0.358884
0.337521
0.359591
0.355614
0.343168
0.354932
0.414532
0.4122
0.421643
0.424077
0.398433
0.39922
0.41484
0.418945
0.401754
0.402211
0.407106
0.413154
0.399014
0.39203
0.411807
0.390279
0.392725
0.390684
0.397904
0.397714
0.391828
0.363171
0.387187
0.393266
0.39202
0.397696
0.356929
0.36386
0.391346
0.390193
0.390093
0.360763
0.378842
0.384627
0.366993
0.381499
0.362809
0.367368
0.353078
0.363989
0.373344
0.349388
0.347174
0.370014
0.364304
0.365628
0.346287
0.353359
0.349933
0.370153
0.362917
0.368498
0.350561
0.36888
0.346107
0.35528
0.345206
0.375871
0.37072
0.35726
0.349495
0.364094
0.371324
0.368239
0.378489
0.37657
0.369039
0.366612
0.357011
0.365699
0.359209
0.346099
0.358137
0.354088
0.356445
0.356464
0.346308
0.344148
0.343028
0.342003
0.347976
0.345187
0.340963
0.337844
0.346188
0.343222
0.349363
0.344505
0.331996
0.335063
0.345967
0.349614
0.341799
0.342869
0.347731
0.348389
0.343788
0.343714
0.342324
0.337558
0.345323
0.334795
0.340001
0.338373
0.332694
0.330852
0.332072
0.331055
0.33454
0.32945
0.339708
0.334275
0.343649
0.338713
0.34457
0.344185
0.345486
0.342522
0.340173
0.341201
0.340756
0.346424
0.345751
0.336113
0.337741
0.343726
0.345323
0.340668
0.342637
0.335328
0.338872
0.33639
0.341687
0.336124
0.43584
0.447613
0.450594
0.378254
0.37913
0.381032
0.372024
0.374383
0.366141
0.501724
0.363716
0.366329
0.364712
0.428599
0.440551
0.450981
0.381208
0.381286
0.44459
0.446297
0.375489
0.374693
0.364163
0.364003
0.364039
0.376861
0.375169
0.375011
0.462338
0.460907
0.357968
0.360665
0.390356
0.392608
0.40254
0.414212
0.410802
0.368677
0.36823
0.370244
0.428659
0.426983
0.441613
0.363323
0.368553
0.372281
0.374979
0.368378
0.368458
0.424808
0.431844
0.428441
0.360159
0.358553
0.355067
0.35807
0.354698
0.349238
0.364541
0.363318
0.385092
0.386499
0.365064
0.364439
0.360509
0.375623
0.38464
0.375344
0.382149
0.366395
0.413263
0.402647
0.40365
0.390244
0.351804
0.351762
0.38753
0.386698
0.350529
0.352059
0.379066
0.381376
0.376053
0.388623
0.356661
0.357013
0.359118
0.356086
0.354188
0.350818
0.365524
0.366325
0.356761
0.35322
0.359171
0.34008
0.34199
0.347954
0.342869
0.346949
0.347434
0.35156
0.357594
0.353801
0.356598
0.35937
0.355
0.343396
0.354212
0.3535
0.35663
0.341998
0.34063
0.342751
0.341462
0.340897
0.348705
0.350253
0.34644
0.343712
0.341679
0.343881
0.339736
0.342462
0.342113
0.340882
0.337831
0.349758
0.345314
0.34578
0.335989
0.340888
0.333587
0.343652
0.344103
0.337214
0.338403
0.32679
0.32564
0.332747
0.325626
0.330134
0.336363
0.328189
0.328213
0.318859
0.33148
0.328627
0.327256
0.328361
0.337315
0.335186
0.324861
0.32221
0.331314
0.336035
0.338246
0.312161
0.319858
0.313763
0.318462
0.317686
0.326954
0.322076
0.327249
0.323077
0.331725
0.330622
0.312545
0.320931
0.318074
0.32178
0.329058
0.326882
0.328079
0.32857
0.308663
0.30401
0.30362
0.302251
0.299243
0.296577
0.298799
0.300732
0.303857
0.322688
0.320705
0.325804
0.325536
0.322226
0.324257
0.314128
0.310661
0.312082
0.309953
0.311531
0.304717
0.319788
0.317686
0.323752
0.297787
0.297732
0.283134
0.284442
0.313673
0.319666
0.315785
0.313833
0.320231
0.317902
0.316269
0.315589
0.287323
0.293352
0.287623
0.281042
0.284351
0.288786
0.292813
0.318217
0.319357
0.312341
0.275653
0.271956
0.303029
0.302314
0.270998
0.268045
0.317949
0.31692
0.314247
0.308818
0.271489
0.267549
0.320402
0.319667
0.317782
0.320211
0.316783
0.313931
0.313252
0.284818
0.279725
0.274892
0.267985
0.311314
0.312398
0.319421
0.316117
0.314574
0.313626
0.317637
0.315647
0.316708
0.311382
0.317421
0.321564
0.316895
0.314704
0.294378
0.294702
0.290301
0.289411
0.290717
0.286017
0.285838
0.289648
0.288851
0.292333
0.286747
0.289169
0.291008
0.303045
0.297712
0.30038
0.294883
0.291936
0.295337
0.296575
0.27675
0.270291
0.268878
0.270675
0.271002
0.272896
0.264389
0.267797
0.271461
0.270045
0.265418
0.271635
0.267408
0.30344
0.303501
0.315762
0.309029
0.304481
0.305798
0.306729
0.282312
0.279079
0.293088
0.287171
0.284331
0.284615
0.282764
0.283672
0.279281
0.272227
0.280771
0.279835
0.279285
0.280632
0.278896
0.274589
0.271965
0.281743
0.277216
0.279717
0.31303
0.313332
0.316104
0.318688
0.31298
0.313835
0.313402
0.322268
0.319442
0.319637
0.313271
0.312862
0.315121
0.314905
0.313969
0.313078
0.309324
0.30904
0.310229
0.309719
0.309179
0.313872
0.312453
0.314595
0.313604
0.313502
0.308928
0.311989
0.315722
0.30289
0.312376
0.310571
0.296375
0.289901
0.294938
0.29123
0.291404
0.293125
0.31951
0.319378
0.320388
0.314195
0.314958
0.312072
0.316697
0.3155
0.309612
0.307664
0.310611
0.314387
0.3159
0.323311
0.316843
0.316891
0.317044
0.293106
0.285394
0.289161
0.275319
0.277212
0.282816
0.286563
0.286264
0.278388
0.310833
0.301886
0.303599
0.304569
0.307379
0.299651
0.316
0.30635
0.303006
0.299751
0.304711
0.29446
0.302207
0.299628
0.304401
0.301536
0.297969
0.298798
0.322031
0.318223
0.322745
0.317104
0.320249
0.329141
0.323556
0.317446
0.316565
0.322238
0.317612
0.314209
0.32335
0.323966
0.318691
0.321045
0.318013
0.321176
0.301949
0.308745
0.301536
0.305064
0.310584
0.316116
0.316441
0.311161
0.309258
0.314081
0.312314
0.306988
0.305696
0.311388
0.306841
0.306136
0.320182
0.314972
0.313445
0.312888
0.308878
0.321084
0.314251
0.318831
0.318156
0.315119
0.316327
0.31883
0.30798
0.309254
0.299382
0.311972
0.309187
0.304579
0.312047
0.308001
0.310236
0.310958
0.311351
0.316973
0.312408
0.313246
0.315164
0.3157
0.313132
0.315364
0.313148
0.324763
0.320328
0.317777
0.319356
0.321154
0.327492
0.324382
0.328144
0.322974
0.326702
0.324225
0.322361
0.307293
0.309305
0.301206
0.298815
0.292005
0.287809
0.284343
0.299813
0.305661
0.309646
0.293981
0.295782
0.313129
0.309977
0.302201
0.305635
0.304805
0.306545
0.315772
0.307646
0.299597
0.313675
0.310169
0.3149
0.309407
0.314496
0.310284
0.314863
0.314714
0.309087
0.312587
0.315237
0.302789
0.306515
0.31089
0.311634
0.310306
0.309884
0.336056
0.335476
0.332408
0.329152
0.326407
0.328135
0.326259
0.32084
0.319782
0.332349
0.329599
0.32776
0.326105
0.324436
0.315963
0.324451
0.325599
0.321008
0.319936
0.322967
0.322801
0.323671
0.332512
0.324429
0.330117
0.320225
0.310384
0.311628
0.300532
0.30413
0.305391
0.312315
0.314314
0.312759
0.307092
0.302596
0.315004
0.309594
0.328364
0.334285
0.330676
0.324681
0.325561
0.327448
0.326979
0.333487
0.33366
0.329954
0.332117
0.326153
0.329106
0.330648
0.321364
0.322666
0.322589
0.323969
0.326438
0.32712
0.328532
0.329195
0.328395
0.329493
0.329854
0.326711
0.319205
0.325969
0.321815
0.327211
0.326139
0.325848
0.326107
0.326834
0.321896
0.317849
0.328649
0.329256
0.327735
0.325652
0.323881
0.322519
0.32551
0.322044
0.313121
0.316142
0.312903
0.319048
0.313015
0.312297
0.340744
0.343724
0.340695
0.333918
0.336157
0.340531
0.339272
0.339397
0.336672
0.335644
0.341172
0.343987
0.336339
0.33823
0.337744
0.340303
0.340069
0.336215
0.336868
0.339677
0.334221
0.331962
0.336363
0.335378
0.325596
0.330813
0.328229
0.331662
0.327167
0.328981
0.328114
0.332488
0.325119
0.319865
0.316686
0.315279
0.331049
0.327705
0.322361
0.323211
0.318732
0.319566
0.343895
0.340038
0.338201
0.337404
0.336062
0.337368
0.335335
0.337715
0.333596
0.33406
0.321068
0.331601
0.333916
0.329166
0.330866
0.32883
0.334999
0.336488
0.328027
0.332445
0.325761
0.325444
0.327603
0.327889
0.338272
0.328138
0.333687
0.32858
0.323885
0.331478
0.330447
0.327372
0.318349
0.321717
0.332407
0.329518
0.324493
0.326557
0.325428
0.338066
0.331262
0.330874
0.327845
0.32873
0.329245
0.331925
0.334175
0.329516
0.332771
0.326674
0.327509
0.327026
0.343541
0.337564
0.337109
0.327497
0.325893
0.331889
0.335096
0.335955
0.321078
0.325663
0.32135
0.325619
0.325557
0.333142
0.331993
0.329831
0.328629
0.331931
0.335069
0.333515
0.321137
0.324066
0.328009
0.33148
0.337418
0.331351
0.329275
0.345003
0.343979
0.342306
0.337581
0.335971
0.340115
0.340502
0.337779
0.337868
0.339085
0.333401
0.332294
0.334468
0.337879
0.335622
0.332651
0.327679
0.332421
0.330904
0.337611
0.331455
0.329504
0.334289
0.3345
0.335221
0.333206
0.327741
0.337489
0.336985
0.328975
0.327658
0.331662
0.332499
0.322831
0.334051
0.325026
0.327619
0.330315
0.334846
0.330175
0.353153
0.350477
0.347874
0.348208
0.351354
0.350356
0.336798
0.336595
0.343509
0.33729
0.33757
0.341527
0.334308
0.338953
0.348083
0.33529
0.341421
0.340903
0.339905
0.34226
0.339451
0.345442
0.34563
0.346278
0.352352
0.350291
0.349142
0.345078
0.346512
0.345949
0.346005
0.34552
0.340506
0.341325
0.340149
0.339563
0.342307
0.342523
0.341406
0.335392
0.349063
0.340952
0.33638
0.34892
0.341103
0.336505
0.32836
0.338311
0.339043
0.338398
0.340452
0.343941
0.342152
0.339431
0.356863
0.344556
0.351579
0.349721
0.337162
0.347626
0.344652
0.330426
0.331921
0.339274
0.339167
0.339477
0.335617
0.328331
0.330224
0.328793
0.331281
0.331646
0.34404
0.342141
0.344727
0.347411
0.350607
0.34311
0.345804
0.341328
0.347289
0.346685
0.333709
0.336312
0.340463
0.341402
0.336743
0.337465
0.341959
0.350242
0.347774
0.342623
0.355063
0.347266
0.348462
0.352401
0.35151
0.344034
0.347083
0.344432
0.343978
0.344988
0.355964
0.34849
0.350553
0.336649
0.32803
0.328404
0.340484
0.332953
0.335192
0.343231
0.338542
0.335774
0.338318
0.337667
0.348631
0.350602
0.347141
0.348873
0.350263
0.351135
0.340562
0.340258
0.336758
0.357739
0.352065
0.35333
0.350458
0.344489
0.334475
0.338948
0.336979
0.345779
0.35087
0.345117
0.34428
0.331516
0.33648
0.335381
0.334481
0.342622
0.335991
0.336563
0.343693
0.344853
0.34192
0.338699
0.349874
0.340436
0.342049
0.334096
0.337074
0.34468
0.339207
0.345571
0.346034
0.344149
0.340095
0.353375
0.344873
0.343477
0.343736
0.344717
0.345074
0.357913
0.348612
0.343221
0.353283
0.355103
0.353304
0.370971
0.364109
0.359352
0.351099
0.36551
0.359409
0.361332
0.374586
0.379836
0.373263
0.372253
0.361353
0.355623
0.362871
0.357937
0.356319
0.362716
0.345879
0.352549
0.357813
0.354152
0.349612
0.346959
0.345241
0.337906
0.335089
0.344339
0.346598
0.349447
0.346083
0.342243
0.343506
0.339233
0.337437
0.341438
0.342357
0.341121
0.343193
0.339453
0.341692
0.336114
0.339134
0.335913
0.338304
0.351425
0.347432
0.346647
0.346014
0.367712
0.35504
0.364078
0.363179
0.356177
0.350653
0.350238
0.375224
0.374997
0.370681
0.35209
0.363833
0.360079
0.355834
0.371015
0.365762
0.363104
0.361881
0.37294
0.370662
0.371532
0.355536
0.359627
0.35767
0.356272
0.357718
0.356919
0.355707
0.351133
0.351782
0.35657
0.36198
0.360515
0.356434
0.361331
0.35822
0.357747
0.364101
0.360127
0.355639
0.351991
0.351298
0.350321
0.351907
0.357779
0.352627
0.354089
0.352929
0.355293
0.400331
0.397196
0.391534
0.387824
0.385057
0.381008
0.383676
0.379139
0.395149
0.39115
0.377463
0.393237
0.387011
0.392569
0.375824
0.366423
0.380799
0.377283
0.379718
0.371713
0.358718
0.357079
0.371805
0.364858
0.378921
0.380939
0.366029
0.367011
0.360514
0.365881
0.353825
0.353977
0.368868
0.359545
0.361098
0.356871
0.355926
0.353601
0.341732
0.353892
0.354729
0.358581
0.361185
0.354484
0.347184
0.34323
0.329004
0.346937
0.349632
0.350927
0.347368
0.343189
0.354136
0.351854
0.41194
0.41046
0.403621
0.40894
0.380476
0.394123
0.39659
0.398865
0.38143
0.377893
0.393497
0.391682
0.395465
0.398699
0.403157
0.399198
0.397548
0.397097
0.395537
0.381399
0.374514
0.380492
0.368253
0.362967
0.365305
0.368659
0.380855
0.381611
0.378088
0.378371
0.360831
0.357726
0.349821
0.356146
0.356433
0.347135
0.357135
0.348241
0.352693
0.352305
0.352468
0.356455
0.348904
0.344294
0.353427
0.344833
0.356347
0.347447
0.344074
0.351994
0.350105
0.342575
0.346197
0.356907
0.342853
0.349172
0.347965
0.352693
0.346658
0.353086
0.352823
0.341499
0.346096
0.345998
0.403579
0.394323
0.38301
0.381634
0.39564
0.416372
0.415325
0.411752
0.412167
0.38239
0.394681
0.374782
0.377535
0.38022
0.385363
0.384232
0.362843
0.363762
0.378753
0.380778
0.375163
0.365152
0.370948
0.365508
0.366179
0.367821
0.363272
0.367546
0.364105
0.365156
0.36729
0.356907
0.361983
0.360271
0.35818
0.355321
0.357428
0.359031
0.364044
0.359267
0.359546
0.361688
0.362489
0.36044
0.358028
0.365237
0.364748
0.364267
0.368468
0.362511
0.361167
0.361767
0.367016
0.361327
0.364594
0.364308
0.364492
0.390606
0.396851
0.409576
0.40373
0.398524
0.378419
0.36362
0.363666
0.357944
0.361756
0.355788
0.373464
0.366071
0.362443
0.37627
0.372091
0.379568
0.379352
0.368212
0.369184
0.367252
0.36505
0.369904
0.364276
0.363481
0.363822
0.363351
0.365182
0.364933
0.356335
0.355228
0.345041
0.352527
0.363155
0.355348
0.356454
0.359357
0.355779
0.348776
0.348867
0.353135
0.349408
0.365719
0.359493
0.355113
0.357818
0.364067
0.365154
0.353955
0.348076
0.377357
0.371109
0.37516
0.35401
0.361339
0.364873
0.36023
0.364922
0.359545
0.433079
0.433488
0.424444
0.409068
0.438662
0.440306
0.452993
0.447494
0.428095
0.437947
0.424711
0.440312
0.438697
0.411385
0.400574
0.402073
0.395169
0.392535
0.398911
0.397481
0.396131
0.414951
0.409064
0.414128
0.415635
0.412596
0.411585
0.397982
0.387644
0.403084
0.407441
0.417667
0.427896
0.425993
0.42902
0.42549
0.421305
0.373604
0.374589
0.373063
0.371091
0.369876
0.372983
0.369202
0.368371
0.362777
0.360494
0.370109
0.36881
0.360958
0.367032
0.365224
0.362745
0.363167
0.363075
0.362945
0.365064
0.367959
0.36644
0.364424
0.402577
0.394459
0.40235
0.392196
0.368799
0.367861
0.388786
0.391589
0.382289
0.372216
0.351016
0.363925
0.356302
0.36612
0.360303
0.355467
0.350844
0.364223
0.358418
0.370329
0.370936
0.368211
0.428001
0.416667
0.403137
0.419878
0.400293
0.414194
0.406085
0.4048
0.399231
0.416414
0.416678
0.422876
0.415412
0.451643
0.435526
0.451821
0.374689
0.371726
0.370902
0.371506
0.371026
0.368546
0.364489
0.362774
0.36422
0.368135
0.365672
0.365445
0.367458
0.360973
0.447472
0.429252
0.423966
0.38032
0.367056
0.379793
0.363326
0.361823
0.368985
0.358138
0.361113
0.386221
0.383287
0.373986
0.368003
0.364564
0.382333
0.385238
0.410013
0.402945
0.415697
0.404073
0.386538
0.382973
0.398371
0.391178
0.390296
0.38641
0.391623
0.384315
0.407081
0.402651
0.39586
0.393085
0.365373
0.36699
0.358679
0.364581
0.36207
0.357571
0.357738
0.360427
0.357068
0.361008
0.365171
0.362263
0.362279
0.357053
0.356872
0.349333
0.354142
0.355624
0.353954
0.362851
0.356168
0.353263
0.34954
0.352442
0.492751
0.477951
0.477319
0.477016
0.476401
0.458936
0.441538
0.449068
0.440064
0.455109
0.455989
0.450605
0.446951
0.371785
0.373212
0.377176
0.379878
0.377933
0.376648
0.375408
0.359294
0.362954
0.371874
0.361593
0.362987
0.370144
0.374304
0.372394
0.36785
0.359259
0.362776
0.357977
0.358808
0.375852
0.375992
0.36664
0.362421
0.373314
0.373102
0.372764
0.373539
0.364054
0.367714
0.3705
0.371941
0.376545
0.378575
0.37576
0.376152
0.375664
0.374622
0.374859
0.426268
0.410456
0.412468
0.430839
0.431856
0.425273
0.446661
0.436721
0.420645
0.415439
0.448349
0.445897
0.444466
0.472548
0.485804
0.471071
0.450746
0.437183
0.439642
0.429237
0.416997
0.427291
0.41766
0.423862
0.426223
0.434782
0.428714
0.382292
0.37505
0.375377
0.369862
0.367206
0.357215
0.364141
0.358248
0.351539
0.372228
0.353719
0.374017
0.368541
0.393865
0.416809
0.39103
0.387533
0.419796
0.384252
0.395306
0.382596
0.378998
0.377757
0.383902
0.379659
0.389112
0.377083
0.401348
0.39734
0.386423
0.488572
0.471156
0.453968
0.466564
0.456012
0.439374
0.443297
0.434674
0.424225
0.421382
0.429027
0.413272
0.417979
0.428131
0.410358
0.417195
0.355231
0.356872
0.364144
0.367068
0.359909
0.368721
0.362856
0.357031
0.372039
0.366646
0.363758
0.363421
0.362523
0.350447
0.352769
0.355772
0.359852
0.355238
0.358913
0.356256
0.359079
0.362344
0.36804
0.356437
0.356718
0.36187
0.482894
0.482018
0.508094
0.49971
0.495397
0.499747
0.493279
0.375398
0.376288
0.36554
0.373103
0.36747
0.368822
0.367847
0.363897
0.368013
0.356847
0.361161
0.366106
0.368373
0.368381
0.366542
0.379211
0.420155
0.423628
0.417334
0.408781
0.422662
0.428707
0.414872
0.423099
0.427339
0.355992
0.357532
0.357284
0.365426
0.358036
0.364803
0.363463
0.363523
0.365421
0.48716
0.469884
0.379931
0.380214
0.378845
0.379811
0.37754
0.380743
0.38328
0.382791
0.385225
0.381788
0.396733
0.398303
0.406312
0.406126
0.351602
0.372521
0.374081
0.36195
0.359678
0.492506
0.477532
0.504976
0.489275
0.481108
0.475468
0.474271
0.502803
0.502638
0.473879
0.469136
0.468239
0.458877
0.46152
0.453926
0.466862
0.47442
0.469812
0.46601
0.350408
0.35242
0.36085
0.357086
0.365911
0.359742
0.355593
0.356784
0.365534
0.364099
0.362898
0.361568
0.363496
0.35671
0.358325
0.360637
0.350987
0.347273
0.361763
0.36014
0.357932
0.375767
0.376508
0.372974
0.373812
0.377102
0.449072
0.452227
0.460394
0.462738
0.464529
0.472311
0.452621
0.46233
0.465377
0.493097
0.4896
0.489685
0.487746
0.48233
0.482303
0.475769
0.485704
0.491314
0.352023
0.355229
0.360645
0.365603
0.342823
0.352831
0.375605
0.358819
0.353188
0.361842
0.377773
0.369786
0.372546
0.375064
0.370071
0.372504
0.370907
0.371398
0.374526
0.373448
0.368662
0.365796
0.37034
0.37238
0.373538
0.371612
0.372099
0.441961
0.442728
0.434734
0.43547
0.454731
0.450442
0.443021
0.444427
0.400122
0.396489
0.41925
0.414346
0.420102
0.410058
0.398174
0.399036
0.408704
0.405198
0.403328
0.417802
0.418401
0.402358
0.401238
0.359201
0.362327
0.358365
0.361326
0.397409
0.413296
0.411032
0.413645
0.400047
0.396933
0.389497
0.388658
0.419596
0.393803
0.389745
0.351966
0.3475
0.344739
0.350895
0.351188
0.358791
0.356422
0.354006
0.356979
0.358897
0.353257
0.350734
0.348288
0.347209
0.35268
0.356767
0.357651
0.360129
0.360877
0.358856
0.358704
0.358386
0.355059
0.34749
0.372257
0.365782
0.373474
0.384407
0.385128
0.387238
0.38994
0.381918
0.388538
0.389768
0.367704
0.369093
0.370672
0.371976
0.370052
0.36898
0.369087
0.366055
0.372296
0.370426
0.370915
0.405085
0.392759
0.396887
0.391227
0.389945
0.403821
0.401124
0.402606
0.34356
0.336342
0.351536
0.341976
0.341797
0.344127
0.342121
0.358937
0.352959
0.350666
0.360046
0.357693
0.361324
0.346208
0.353369
0.349642
0.373491
0.37187
0.379516
0.386257
0.386885
0.38759
0.385145
0.380031
0.384723
0.37856
0.373306
0.371003
0.38558
0.376952
0.376804
0.386169
0.377295
0.37097
0.380624
0.398322
0.398527
0.397047
0.394506
0.388378
0.358361
0.359318
0.356171
0.357109
0.356736
0.355923
0.360182
0.358727
0.358771
0.355758
0.354267
0.356864
0.355445
0.355778
0.357549
0.357859
0.35745
0.357102
0.359082
0.35963
0.364023
0.365141
0.361243
0.3586
0.363753
0.359938
0.358867
0.363883
0.36518
0.359712
0.359727
0.361433
0.360672
0.3498
0.349033
0.346458
0.347327
0.353699
0.354502
0.351757
0.352093
0.354122
0.337253
0.338673
0.333771
0.346985
0.33875
0.343193
0.348984
0.349489
0.333593
0.338323
0.345528
0.348784
0.338488
0.341472
0.339392
0.344222
0.341797
0.349887
0.34384
0.346588
0.346171
0.352101
0.348369
0.346674
0.357341
0.355177
0.341977
0.344123
0.344896
0.350739
0.348779
0.350318
0.350131
0.336689
0.33069
0.333338
0.334822
0.341589
0.336583
0.334264
0.334484
0.337696
0.338058
0.334945
0.336909
0.340576
0.329503
0.330863
0.331896
0.336809
0.33136
0.33162
0.332814
0.334224
0.335332
0.342286
0.343017
0.343553
0.347003
0.348673
0.345075
0.343092
0.345892
0.345712
0.331448
0.334856
0.334597
0.33755
0.333926
0.326699
0.338366
0.333661
0.336478
0.310173
0.310835
0.310822
0.32207
0.321517
0.321934
0.319172
0.320917
0.325929
0.317737
0.321023
0.343299
0.334649
0.327577
0.333475
0.328169
0.330248
0.335031
0.337813
0.332314
0.33941
0.336439
0.333315
0.342239
0.345858
0.337212
0.338424
0.340174
0.337477
0.3369
0.335175
0.332809
0.324573
0.327486
0.327972
0.33412
0.33506
0.328312
0.331172
0.335344
0.334925
0.327884
0.327928
0.32887
0.331785
0.325058
0.331321
0.334247
0.333896
0.338785
0.334954
0.335143
0.324931
0.320997
0.328905
0.328752
0.326483
0.320126
0.327103
0.322289
0.322214
0.323912
0.322703
0.334224
0.329816
0.330682
0.33626
0.332227
0.330667
0.334063
0.327734
0.329423
0.330444
0.32814
0.321794
0.339268
0.329057
0.32869
0.326975
0.324962
0.329208
0.332049
0.316054
0.322801
0.319135
0.32005
0.326049
0.321305
0.323087
0.3215
0.314464
0.320149
0.316355
0.316939
0.319331
0.322076
0.318088
0.316912
0.324335
0.332916
0.332395
0.332896
0.331888
0.329938
0.332001
0.328556
0.335614
0.331097
0.306553
0.303646
0.304385
0.30861
0.304429
0.308332
0.291562
0.289496
0.301441
0.291441
0.295234
0.297982
0.304877
0.296259
0.301198
0.28799
0.295474
0.291656
0.290776
0.295098
0.295108
0.297794
0.305287
0.302084
0.312641
0.310107
0.309268
0.303148
0.30522
0.307016
0.307912
0.310618
0.308211
0.314311
0.302057
0.301372
0.314311
0.318572
0.324309
0.325657
0.32416
0.33343
0.320604
0.321333
0.316599
0.325149
0.321063
0.318553
0.331415
0.327255
0.31415
0.316784
0.320579
0.32011
0.320356
0.315552
0.319957
0.315599
0.321779
0.320198
0.318959
0.315746
0.31415
0.303397