/*--------------------------------*- C++ -*----------------------------------*\
| =========                 |                                                 |
| \\      /  F ield         | OpenFOAM: The Open Source CFD Toolbox           |
|  \\    /   O peration     | Version:  v1612+                                |
|   \\  /    A nd           | Web:      www.OpenFOAM.com                      |
|    \\/     M anipulation  |                                                 |
\*---------------------------------------------------------------------------*/
FoamFile
{
    version     2.0;
    format      ascii;
    class       volVectorField;
    location    "50";
    object      U;
}
// * * * * * * * * * * * * * * * * * * * * * * * * * * * * * * * * * * * * * //

dimensions      [0 1 -1 0 0 0 0];

internalField   nonuniform List<vector> 
18946
(
(0.648392 0.583352 -0.434522)
(0.379785 0.484186 -0.220028)
(0.498019 0.46131 -0.404595)
(0.573787 0.783864 -0.374874)
(0.247305 0.271945 -0.0568696)
(0.193824 0.292041 -0.0658279)
(0.200355 0.278836 -0.0551381)
(0.20293 0.33913 -0.0321875)
(0.234969 0.340794 -0.00925947)
(0.234019 0.274028 -0.0376709)
(0.266212 0.296884 -0.0372177)
(0.283842 0.248569 -0.0631467)
(0.293069 0.262028 -0.0627045)
(0.291841 0.326273 -0.0374009)
(0.27199 0.354494 -0.00490085)
(0.248506 0.36261 -0.00777277)
(0.322999 0.296968 -0.0570219)
(0.291476 0.274214 -0.0587518)
(0.348676 0.322439 -0.0604291)
(0.340937 0.337266 -0.0507744)
(0.542103 0.64095 -0.317724)
(0.510874 0.5975 -0.302921)
(0.518046 0.636097 -0.31555)
(0.486996 0.601072 -0.301147)
(0.544575 0.639534 -0.318602)
(0.568401 0.672055 -0.331955)
(0.511458 0.673575 -0.330543)
(0.504764 0.646953 -0.315257)
(0.510655 0.622679 -0.312255)
(0.553327 0.658685 -0.329944)
(0.521529 0.68065 -0.328353)
(0.518731 0.678524 -0.335304)
(0.599647 0.774723 -0.365867)
(0.612589 0.75804 -0.358031)
(0.617129 0.737812 -0.358033)
(0.522005 0.646399 -0.31535)
(0.592807 0.786762 -0.37199)
(0.54423 0.690383 -0.329817)
(0.616497 0.79019 -0.372057)
(0.576756 0.775585 -0.390524)
(0.504401 0.679315 -0.353086)
(0.499465 0.684579 -0.355994)
(0.543304 0.738436 -0.386077)
(0.482119 0.649498 -0.358755)
(0.519715 0.703555 -0.357182)
(0.461554 0.615476 -0.329291)
(0.483223 0.63727 -0.32986)
(0.469842 0.645074 -0.357537)
(0.485591 0.669143 -0.353394)
(0.470067 0.643799 -0.361638)
(0.471187 0.63979 -0.354623)
(0.624459 0.51113 -0.460864)
(0.582937 0.471618 -0.45988)
(0.615875 0.54088 -0.44693)
(0.614639 0.534931 -0.457659)
(0.643368 0.63394 -0.432745)
(0.631984 0.596292 -0.451776)
(0.575619 0.480265 -0.481723)
(0.56561 0.463466 -0.472932)
(0.658125 0.626097 -0.465404)
(0.598674 0.604682 -0.464149)
(0.574699 0.610256 -0.458854)
(0.553301 0.46607 -0.476369)
(0.534623 0.435728 -0.48358)
(0.559237 0.513687 -0.486063)
(0.552736 0.51269 -0.482373)
(0.203252 0.5248 -0.280408)
(0.160269 0.477778 -0.257948)
(0.221334 0.574245 -0.224755)
(0.170465 0.514201 -0.209178)
(0.165511 0.47314 -0.179691)
(0.152233 0.43726 -0.19227)
(0.142878 0.437882 -0.229974)
(0.159476 0.457148 -0.179529)
(0.171806 0.47744 -0.171796)
(0.232293 0.58756 -0.192617)
(0.238977 0.618304 -0.226248)
(0.215326 0.554337 -0.290834)
(0.174979 0.493153 -0.256966)
(0.246199 0.604312 -0.217916)
(0.250112 0.618625 -0.22122)
(0.188764 0.51119 -0.202208)
(0.600325 0.86511 -0.407517)
(0.56289 0.777402 -0.371544)
(0.577549 0.920169 -0.330352)
(0.563054 0.901481 -0.281656)
(0.509301 0.832583 -0.263286)
(0.55064 0.682878 -0.435257)
(0.493326 0.790588 -0.236642)
(0.55332 0.712908 -0.331362)
(0.570579 0.689981 -0.417449)
(0.565105 0.732524 -0.46305)
(0.542038 0.697541 -0.257121)
(0.560664 0.747843 -0.432304)
(0.555855 0.782415 -0.476262)
(0.55021 0.846885 -0.424266)
(0.635922 0.847461 -0.283957)
(0.590682 0.875167 -0.245724)
(0.650249 0.77455 -0.380165)
(0.616171 0.774617 -0.357954)
(0.618216 0.714684 -0.421686)
(0.609964 0.733195 -0.410913)
(0.558916 0.817091 -0.298856)
(0.617551 0.850589 -0.272838)
(0.634249 0.685294 -0.434688)
(0.61262 0.697503 -0.418341)
(0.649576 0.845791 -0.312132)
(0.650072 0.856465 -0.297991)
(0.581324 0.771383 -0.373486)
(0.622463 0.773741 -0.359331)
(0.607159 0.738595 -0.390344)
(0.594647 0.748737 -0.373418)
(0.642246 0.724122 -0.404041)
(0.625043 0.724299 -0.408235)
(0.681902 0.830943 -0.352487)
(0.613714 0.835588 -0.297383)
(0.238953 0.361341 -0.249918)
(0.235499 0.375869 -0.248228)
(0.226455 0.346309 -0.233905)
(0.23567 0.371977 -0.239585)
(0.329499 0.467128 -0.300342)
(0.311193 0.456519 -0.280891)
(0.261397 0.394512 -0.272208)
(0.235089 0.379361 -0.240656)
(0.329927 0.477715 -0.285718)
(0.360169 0.50966 -0.314661)
(0.364556 0.498914 -0.322182)
(0.363165 0.489582 -0.315733)
(0.227626 0.34604 -0.226154)
(0.223197 0.321803 -0.220538)
(0.297677 0.443316 -0.268442)
(0.344013 0.481909 -0.306803)
(0.296138 0.402386 -0.272222)
(0.280011 0.387281 -0.270271)
(0.255712 0.371246 -0.256036)
(0.230464 0.33774 -0.227877)
(0.30745 0.445643 -0.275883)
(0.253018 0.362214 -0.243735)
(0.253925 0.370356 -0.243722)
(0.582048 0.840052 -0.312816)
(0.528026 0.776697 -0.311815)
(0.470507 0.741211 -0.321945)
(0.405302 0.706878 -0.274865)
(0.428209 0.718021 -0.292473)
(0.3543 0.651724 -0.205718)
(0.527738 0.743239 -0.331937)
(0.597389 0.822046 -0.347354)
(0.41966 0.692433 -0.168683)
(0.417627 0.702038 -0.226274)
(0.4282 0.720181 -0.225241)
(0.405508 0.686184 -0.200063)
(0.605562 0.843117 -0.331364)
(0.447758 0.720858 -0.202441)
(0.4924 0.756697 -0.284806)
(0.408163 0.714298 -0.172197)
(0.397409 0.69497 -0.143648)
(0.565432 0.87256 -0.274522)
(0.564125 0.851997 -0.285832)
(0.534717 0.862373 -0.235122)
(0.608372 0.881541 -0.404112)
(0.596678 0.896423 -0.425783)
(0.606797 0.887026 -0.418767)
(0.593791 0.895033 -0.424907)
(0.639799 0.958332 -0.41602)
(0.657915 0.955058 -0.413618)
(0.589598 0.888305 -0.434674)
(0.607523 0.896914 -0.438119)
(0.601757 0.8712 -0.424832)
(0.600409 0.861484 -0.426061)
(0.648727 0.956502 -0.416153)
(0.666258 0.951142 -0.419312)
(0.638328 0.909156 -0.427623)
(0.685595 0.969458 -0.404957)
(0.626252 1.01693 -0.203259)
(0.628199 1.05215 -0.220823)
(0.61544 1.02065 -0.204743)
(0.623185 0.994454 -0.210433)
(0.666557 1.01935 -0.254067)
(0.697635 1.01601 -0.263853)
(0.731817 1.05339 -0.273539)
(0.711512 0.990145 -0.250178)
(0.741979 0.992058 -0.280786)
(0.722307 0.963075 -0.288541)
(0.656852 1.02921 -0.261581)
(0.676088 0.981318 -0.293611)
(0.700632 0.998354 -0.248894)
(0.657037 1.04053 -0.234821)
(0.655317 1.02109 -0.241519)
(0.714009 0.972699 -0.270915)
(0.691615 1.00568 -0.267782)
(0.70318 0.996919 -0.281779)
(0.724671 0.999295 -0.302452)
(0.690435 1.01273 -0.29414)
(0.664941 1.01729 -0.287975)
(0.661002 1.04145 -0.27862)
(0.7073 0.997887 -0.288474)
(0.703227 0.99271 -0.307303)
(0.71314 0.979397 -0.312672)
(0.648038 0.989474 -0.25872)
(0.647806 0.960386 -0.265436)
(0.716389 0.961954 -0.311631)
(0.705216 0.941584 -0.297052)
(0.685541 0.905714 -0.301297)
(0.524933 0.894232 -0.170305)
(0.509809 0.888291 -0.161048)
(0.681727 0.932012 -0.298189)
(0.661533 0.946497 -0.277009)
(0.63627 0.92614 -0.260379)
(0.645249 0.923139 -0.264093)
(0.664757 0.875314 -0.303856)
(0.568341 0.890435 -0.189165)
(0.528564 0.880466 -0.191852)
(0.579122 0.92831 -0.225112)
(0.592902 1.00027 -0.183801)
(0.616848 0.764571 -0.4347)
(0.603709 0.743684 -0.427779)
(0.616056 0.782548 -0.452605)
(0.615263 0.762056 -0.442141)
(0.530966 0.631068 -0.45171)
(0.552654 0.66133 -0.446091)
(0.597066 0.715787 -0.442279)
(0.555357 0.660846 -0.436368)
(0.525389 0.66064 -0.457391)
(0.51046 0.620207 -0.447792)
(0.554943 0.626463 -0.44258)
(0.552446 0.677878 -0.467079)
(0.524485 0.582086 -0.436433)
(0.506257 0.563384 -0.450783)
(0.618206 0.989067 -0.291772)
(0.593567 0.960392 -0.326798)
(0.513415 0.801937 -0.310369)
(0.494271 0.808165 -0.324081)
(0.617499 0.952002 -0.288859)
(0.602655 0.934261 -0.312044)
(0.590096 0.962637 -0.318178)
(0.511584 0.82552 -0.321957)
(0.507244 0.847995 -0.330818)
(0.520396 0.851921 -0.323126)
(0.721123 0.728384 -0.41284)
(0.698712 0.74059 -0.411246)
(0.690906 0.78023 -0.415014)
(0.701748 0.66912 -0.416979)
(0.736009 0.791653 -0.363698)
(0.704006 0.855561 -0.354045)
(0.731547 0.750361 -0.380094)
(0.697952 0.705247 -0.408619)
(0.620101 0.723346 -0.428998)
(0.680197 0.704399 -0.411435)
(0.671644 0.633044 -0.439225)
(0.666188 0.597808 -0.426757)
(0.690707 0.677921 -0.424733)
(0.713404 0.699928 -0.409136)
(0.639369 0.613104 -0.436877)
(0.674999 0.762983 -0.412319)
(0.693266 0.769953 -0.404422)
(0.604672 0.627948 -0.469184)
(0.623895 0.662355 -0.443414)
(0.691964 0.70792 -0.441916)
(0.203264 0.362898 -0.151269)
(0.206345 0.367255 -0.141062)
(0.179731 0.332145 -0.131983)
(0.168549 0.309341 -0.131975)
(0.167596 0.268135 -0.116939)
(0.158234 0.233877 -0.105761)
(0.226599 0.383607 -0.12504)
(0.229859 0.366562 -0.125715)
(0.171654 0.287133 -0.121305)
(0.168074 0.24669 -0.101469)
(0.15706 0.23273 -0.1004)
(0.219991 0.323568 -0.111444)
(0.188832 0.265519 -0.0916268)
(0.195367 0.278194 -0.0948135)
(0.222585 0.317941 -0.102886)
(0.199143 0.272046 -0.0900413)
(0.223307 0.338095 -0.108262)
(0.188801 0.247002 -0.0840181)
(0.164375 0.223873 -0.0891198)
(0.518782 0.623643 -0.322685)
(0.45557 0.535543 -0.281656)
(0.610483 0.780431 -0.391535)
(0.611351 0.783069 -0.382834)
(0.485688 0.580327 -0.311764)
(0.525265 0.628583 -0.334331)
(0.514557 0.620981 -0.327042)
(0.528963 0.652849 -0.348114)
(0.444803 0.52061 -0.273548)
(0.473723 0.563877 -0.288302)
(0.514073 0.614873 -0.320324)
(0.525959 0.660791 -0.333151)
(0.495804 0.618618 -0.322264)
(0.620328 0.789382 -0.38836)
(0.604742 0.777276 -0.378194)
(0.579384 0.710202 -0.360355)
(0.520714 0.634158 -0.323376)
(0.498144 0.601811 -0.314002)
(0.546658 0.665437 -0.340747)
(0.562716 0.693335 -0.343091)
(0.657833 0.836854 -0.394252)
(0.644986 0.800177 -0.377273)
(0.586067 0.720218 -0.349345)
(0.602573 0.737618 -0.35587)
(0.618561 0.761803 -0.366636)
(0.629054 0.789921 -0.373033)
(0.612971 0.755012 -0.373095)
(0.631072 0.76741 -0.378572)
(0.637062 0.795404 -0.37734)
(0.655154 0.80696 -0.40865)
(0.667753 0.844263 -0.40769)
(0.712939 0.911905 -0.433859)
(0.710773 0.903608 -0.433659)
(0.661692 0.823873 -0.401473)
(0.700513 0.900124 -0.419695)
(0.724205 0.930876 -0.442792)
(0.670671 0.849613 -0.404213)
(0.63712 0.780376 -0.384872)
(0.720438 0.922663 -0.436813)
(0.735273 0.934239 -0.438222)
(0.682513 0.849481 -0.399171)
(0.200171 0.31377 -0.201686)
(0.306943 0.444055 -0.272781)
(0.292282 0.440556 -0.261157)
(0.234257 0.348924 -0.229488)
(0.22345 0.355307 -0.226009)
(0.196205 0.309248 -0.197312)
(0.251298 0.384807 -0.237987)
(0.240937 0.382663 -0.239448)
(0.225021 0.349907 -0.216415)
(0.520389 0.626295 -0.325113)
(0.549719 0.638237 -0.321948)
(0.480141 0.562333 -0.292448)
(0.464781 0.549314 -0.280553)
(0.507726 0.577285 -0.318204)
(0.558086 0.674674 -0.33978)
(0.566603 0.681441 -0.34587)
(0.566816 0.678446 -0.337919)
(0.596798 0.716187 -0.356473)
(0.471648 0.54526 -0.286908)
(0.420322 0.484265 -0.244558)
(0.541404 0.649501 -0.327517)
(0.556293 0.670477 -0.339419)
(0.476 0.570863 -0.289422)
(0.435082 0.518341 -0.25975)
(0.568687 0.680074 -0.328555)
(0.443943 0.511152 -0.254447)
(0.491552 0.586473 -0.290198)
(0.483586 0.586859 -0.297917)
(0.452558 0.538639 -0.269524)
(0.430074 0.495902 -0.271964)
(0.438507 0.500171 -0.286356)
(0.411051 0.458205 -0.25783)
(0.471048 0.542913 -0.285435)
(0.417957 0.482202 -0.25109)
(0.461338 0.511122 -0.2989)
(0.494378 0.568717 -0.308803)
(0.465229 0.504305 -0.302932)
(0.470924 0.52711 -0.290364)
(0.456131 0.500582 -0.292895)
(0.439699 0.483724 -0.266706)
(0.628611 0.825744 -0.401846)
(0.621342 0.812023 -0.413768)
(0.612537 0.80102 -0.414796)
(0.623922 0.82311 -0.411903)
(0.578795 0.722487 -0.394762)
(0.517416 0.677819 -0.400044)
(0.4892 0.621933 -0.392807)
(0.571109 0.735675 -0.415457)
(0.51729 0.676236 -0.400403)
(0.596145 0.762239 -0.417174)
(0.50254 0.602898 -0.401542)
(0.477407 0.588477 -0.383732)
(0.503362 0.609958 -0.387276)
(0.551036 0.679834 -0.393111)
(0.538864 0.561816 -0.301866)
(0.502168 0.523257 -0.287141)
(0.603498 0.665836 -0.345178)
(0.549205 0.586142 -0.318241)
(0.570886 0.620383 -0.330604)
(0.564678 0.603827 -0.328837)
(0.508253 0.521085 -0.292167)
(0.579875 0.619146 -0.337464)
(0.593866 0.611031 -0.350726)
(0.571661 0.583065 -0.331569)
(0.531794 0.638406 -0.385458)
(0.523953 0.625754 -0.371339)
(0.479956 0.576434 -0.3682)
(0.431839 0.506472 -0.329059)
(0.453731 0.577591 -0.351655)
(0.412043 0.524595 -0.320863)
(0.44466 0.524688 -0.34158)
(0.419713 0.494401 -0.324666)
(0.428514 0.4959 -0.320566)
(0.397446 0.459434 -0.304875)
(0.493815 0.626384 -0.372063)
(0.486078 0.599994 -0.353275)
(0.444478 0.564122 -0.336686)
(0.526055 0.642551 -0.371723)
(0.529874 0.632126 -0.366301)
(0.426678 0.506832 -0.323733)
(0.440657 0.520852 -0.324643)
(0.496847 0.614103 -0.365235)
(0.555314 0.706473 -0.347046)
(0.48062 0.618333 -0.301487)
(0.450307 0.566191 -0.281886)
(0.550564 0.700175 -0.331499)
(0.513283 0.648481 -0.312517)
(0.551865 0.717466 -0.344212)
(0.505639 0.648648 -0.322411)
(0.487691 0.612416 -0.308296)
(0.483909 0.602488 -0.296608)
(0.572307 0.717646 -0.332438)
(0.495432 0.603503 -0.292727)
(0.512848 0.626008 -0.310971)
(0.563123 0.721993 -0.350752)
(0.502285 0.624857 -0.302071)
(0.505135 0.645347 -0.317717)
(0.473747 0.58911 -0.284895)
(0.585796 0.722878 -0.348756)
(0.511008 0.610682 -0.299841)
(0.470761 0.571143 -0.279718)
(0.510665 0.615025 -0.303522)
(0.489161 0.639392 -0.461814)
(0.463561 0.581321 -0.46176)
(0.439769 0.570854 -0.456506)
(0.490137 0.636105 -0.459752)
(0.517622 0.698683 -0.463227)
(0.459826 0.60325 -0.44416)
(0.443298 0.583194 -0.429991)
(0.453705 0.57772 -0.441594)
(0.449487 0.576873 -0.456684)
(0.422681 0.541768 -0.445822)
(0.475759 0.618636 -0.460539)
(0.462868 0.560409 -0.457906)
(0.442664 0.59807 -0.438252)
(0.417109 0.559677 -0.426815)
(0.429297 0.534709 -0.440344)
(0.395846 0.521957 -0.418145)
(0.459637 0.338794 -0.245798)
(0.432075 0.307229 -0.228549)
(0.482935 0.403297 -0.227015)
(0.497735 0.428877 -0.258783)
(0.444041 0.327131 -0.195547)
(0.416144 0.300921 -0.176821)
(0.431355 0.299543 -0.21775)
(0.385463 0.264852 -0.18573)
(0.452354 0.339937 -0.223379)
(0.474336 0.396155 -0.199887)
(0.409151 0.313701 -0.157378)
(0.372391 0.260484 -0.17242)
(0.429524 0.334036 -0.177102)
(0.387347 0.28466 -0.160337)
(0.150476 0.363374 -0.24949)
(0.134326 0.305494 -0.204772)
(0.206371 0.492726 -0.259967)
(0.202494 0.487836 -0.286044)
(0.148174 0.349527 -0.231893)
(0.150396 0.364311 -0.220482)
(0.178564 0.431654 -0.214188)
(0.181126 0.44857 -0.210461)
(0.174047 0.436154 -0.220315)
(0.1391 0.314563 -0.17926)
(0.12804 0.292916 -0.178645)
(0.172506 0.422805 -0.189175)
(0.132172 0.326923 -0.182921)
(0.144146 0.339501 -0.181921)
(0.228281 0.476541 -0.306737)
(0.217826 0.464337 -0.28319)
(0.190384 0.403876 -0.300852)
(0.172 0.400943 -0.295941)
(0.229897 0.48271 -0.314898)
(0.192175 0.398056 -0.290582)
(0.201805 0.42862 -0.313502)
(0.167599 0.3795 -0.272732)
(0.172963 0.361512 -0.265449)
(0.172761 0.36454 -0.257316)
(0.175981 0.401094 -0.265887)
(0.187722 0.379133 -0.307183)
(0.20395 0.405741 -0.317412)
(0.183755 0.377063 -0.309076)
(0.166776 0.332187 -0.27155)
(0.165001 0.314202 -0.249388)
(0.334438 0.632361 -0.222026)
(0.387997 0.664613 -0.323588)
(0.332863 0.634116 -0.323663)
(0.405968 0.691834 -0.2911)
(0.390558 0.647014 -0.319045)
(0.293346 0.556933 -0.33403)
(0.282365 0.548773 -0.319235)
(0.331948 0.607975 -0.268908)
(0.321872 0.592388 -0.312934)
(0.290937 0.569548 -0.332781)
(0.298144 0.55735 -0.340786)
(0.276585 0.581635 -0.248258)
(0.504953 0.571045 -0.2884)
(0.505259 0.581481 -0.289162)
(0.637214 0.762671 -0.374774)
(0.634383 0.72741 -0.369088)
(0.539304 0.629105 -0.308096)
(0.554959 0.631272 -0.313379)
(0.626931 0.749517 -0.361971)
(0.550955 0.664451 -0.322201)
(0.525272 0.616683 -0.302898)
(0.621397 0.735865 -0.358222)
(0.596169 0.685973 -0.348449)
(0.615517 0.752066 -0.357684)
(0.641765 0.784305 -0.375957)
(0.588978 0.704813 -0.338293)
(0.586649 0.817945 -0.456492)
(0.614111 0.842107 -0.450854)
(0.596195 0.81267 -0.456002)
(0.640068 0.884263 -0.452812)
(0.678671 0.936151 -0.446475)
(0.662049 0.9108 -0.461317)
(0.683644 0.921991 -0.434507)
(0.674945 0.930293 -0.436337)
(0.647535 0.900941 -0.451751)
(0.680707 0.930266 -0.428559)
(0.647487 0.864691 -0.457237)
(0.657491 0.876279 -0.426743)
(0.672656 0.908559 -0.440736)
(0.588483 0.818948 -0.459315)
(0.635281 0.882827 -0.445786)
(0.6579 0.90468 -0.435417)
(0.69938 0.97068 -0.416867)
(0.584714 0.800871 -0.461229)
(0.643987 0.85388 -0.455586)
(0.673262 0.921447 -0.447133)
(0.565383 0.76699 -0.463133)
(0.613414 0.817274 -0.475352)
(0.581462 0.793664 -0.459846)
(0.543397 0.687085 -0.332455)
(0.561849 0.711819 -0.335892)
(0.536178 0.670252 -0.314251)
(0.534521 0.665611 -0.307624)
(0.521974 0.650629 -0.307272)
(0.522632 0.65208 -0.30869)
(0.571347 0.713014 -0.338188)
(0.57059 0.717372 -0.338601)
(0.55946 0.7065 -0.336665)
(0.627739 0.790752 -0.374678)
(0.636601 0.807908 -0.371311)
(0.58474 0.723857 -0.338492)
(0.571446 0.70809 -0.337298)
(0.428201 0.639508 -0.394853)
(0.341366 0.543994 -0.390937)
(0.332499 0.500397 -0.405941)
(0.442565 0.643196 -0.392317)
(0.397935 0.565092 -0.413607)
(0.394863 0.550293 -0.424404)
(0.373122 0.524333 -0.423381)
(0.337657 0.518406 -0.407314)
(0.330882 0.478966 -0.418519)
(0.427867 0.54087 -0.431476)
(0.387669 0.501951 -0.429482)
(0.426151 0.576162 -0.422798)
(0.409456 0.544052 -0.428049)
(0.400412 0.587837 -0.422266)
(0.660792 0.856872 -0.430818)
(0.604478 0.795583 -0.40794)
(0.622783 0.816758 -0.417559)
(0.638958 0.825559 -0.418285)
(0.623634 0.823717 -0.412128)
(0.534469 0.687415 -0.387961)
(0.54659 0.696487 -0.38138)
(0.55405 0.693866 -0.395843)
(0.549494 0.696996 -0.389808)
(0.618284 0.74652 -0.411046)
(0.617633 0.756727 -0.411147)
(0.617025 0.771571 -0.412808)
(0.547086 0.677097 -0.379603)
(0.64463 0.806991 -0.41798)
(0.587737 0.742996 -0.390372)
(0.561241 0.670142 -0.38956)
(0.525462 0.644233 -0.385303)
(0.623962 0.775985 -0.405296)
(0.575539 0.701178 -0.386771)
(0.553213 0.670197 -0.38484)
(0.643747 0.827035 -0.407595)
(0.650477 0.847924 -0.406308)
(0.574616 0.765804 -0.416174)
(0.58696 0.769142 -0.404166)
(0.60682 0.704022 -0.419102)
(0.602308 0.723904 -0.418642)
(0.600145 0.732623 -0.421459)
(0.578317 0.676442 -0.420539)
(0.69385 0.855292 -0.424729)
(0.643528 0.744836 -0.422012)
(0.686424 0.803388 -0.42495)
(0.630773 0.756294 -0.414699)
(0.540441 0.723543 -0.386064)
(0.472112 0.667753 -0.379103)
(0.588332 0.707418 -0.427219)
(0.676199 0.82759 -0.433612)
(0.682046 0.814246 -0.431439)
(0.634352 0.719385 -0.42792)
(0.66921 0.775987 -0.427342)
(0.670142 0.765141 -0.438009)
(0.578187 0.675034 -0.413812)
(0.68744 0.883104 -0.413683)
(0.633559 0.819476 -0.424412)
(0.473571 0.797415 -0.208835)
(0.450206 0.764744 -0.167876)
(0.43711 0.785203 -0.120867)
(0.345384 0.692731 -0.0524067)
(0.44266 0.789956 -0.176186)
(0.369306 0.720163 -0.0740771)
(0.473036 0.794443 -0.186989)
(0.328581 0.665894 -0.0458726)
(0.26224 0.605817 -0.0446097)
(0.320876 0.675253 -0.0766816)
(0.421948 0.771154 -0.126948)
(0.394152 0.746292 -0.145666)
(0.503991 0.825887 -0.217513)
(0.322393 0.664059 -0.0264121)
(0.332698 0.709222 -0.131424)
(0.288615 0.644313 -0.0675509)
(0.347648 0.691572 -0.175088)
(0.445578 0.820917 -0.187246)
(0.398736 0.770853 -0.166599)
(0.423808 0.743259 -0.251252)
(0.457241 0.803081 -0.259551)
(0.469868 0.785252 -0.263764)
(0.331111 0.678473 -0.0962578)
(0.407896 0.724708 -0.219916)
(0.366409 0.705649 -0.228317)
(0.348511 0.714138 -0.135445)
(0.350713 0.632169 -0.0749118)
(0.393252 0.714124 -0.0986508)
(0.445415 0.734203 -0.25204)
(0.354849 0.672333 -0.238148)
(0.44878 0.728613 -0.264083)
(0.397585 0.691184 -0.267273)
(0.362118 0.617989 -0.0814055)
(0.214222 0.465895 -0.0190845)
(0.416112 0.76869 -0.153208)
(0.420676 0.781444 -0.13456)
(0.278224 0.566369 -0.0595614)
(0.291275 0.614675 -0.0716765)
(0.400347 0.727895 -0.1262)
(0.3317 0.643019 -0.177463)
(0.353771 0.667208 -0.22329)
(0.287351 0.56974 -0.0665036)
(0.221913 0.563314 -0.0916791)
(0.331776 0.653465 -0.173611)
(0.552476 0.751881 -0.458804)
(0.510944 0.686403 -0.454596)
(0.533647 0.733127 -0.452543)
(0.550941 0.722206 -0.462239)
(0.569927 0.773902 -0.455219)
(0.556191 0.742065 -0.465253)
(0.488766 0.677724 -0.440352)
(0.460718 0.620926 -0.433849)
(0.53634 0.732443 -0.455695)
(0.508234 0.691075 -0.454776)
(0.499969 0.708308 -0.43521)
(0.660107 0.805988 -0.433808)
(0.644561 0.779109 -0.418626)
(0.586888 0.64493 -0.38209)
(0.606555 0.666616 -0.390931)
(0.581673 0.629209 -0.361999)
(0.611597 0.669055 -0.390119)
(0.603953 0.663721 -0.380925)
(0.656622 0.779592 -0.423047)
(0.660072 0.789949 -0.425486)
(0.64272 0.779317 -0.419519)
(0.653268 0.788456 -0.421365)
(0.596136 0.666455 -0.382235)
(0.627787 0.700069 -0.378568)
(0.646943 0.733293 -0.398142)
(0.674468 0.78618 -0.414809)
(0.729629 0.807457 -0.343593)
(0.736539 0.809861 -0.344543)
(0.721695 0.760986 -0.354837)
(0.731484 0.746588 -0.360181)
(0.744382 0.796361 -0.359905)
(0.74666 0.815629 -0.363964)
(0.743669 0.840582 -0.341208)
(0.708966 0.904786 -0.306815)
(0.702562 0.89476 -0.308881)
(0.747714 0.848533 -0.360105)
(0.737676 0.892893 -0.346114)
(0.721568 0.958657 -0.314744)
(0.718444 0.972908 -0.276139)
(0.733863 0.973587 -0.307448)
(0.708128 0.912807 -0.305922)
(0.744831 1.00134 -0.30501)
(0.735543 0.976664 -0.300209)
(0.761474 0.877131 -0.330089)
(0.729256 0.947287 -0.306663)
(0.746836 0.865132 -0.32798)
(0.729957 0.902771 -0.308499)
(0.727499 0.989508 -0.316914)
(0.695178 0.989618 -0.307911)
(0.705102 0.976865 -0.320225)
(0.681924 1.01861 -0.282462)
(0.712474 0.9756 -0.319243)
(0.660967 0.940119 -0.402737)
(0.643306 0.931416 -0.379908)
(0.596716 0.879529 -0.437862)
(0.599812 0.891159 -0.438541)
(0.642456 0.956474 -0.404133)
(0.613992 0.915206 -0.389244)
(0.634153 0.885685 -0.44462)
(0.619595 0.851321 -0.436317)
(0.57066 0.817622 -0.468774)
(0.562898 0.822036 -0.451632)
(0.610861 0.868911 -0.459114)
(0.602251 0.85933 -0.456062)
(0.565031 0.81329 -0.45992)
(0.566187 0.831442 -0.45375)
(0.295513 0.403134 -0.0092314)
(0.363279 0.406391 -0.0268521)
(0.284573 0.329374 -0.0273764)
(0.245309 0.31437 -0.0121931)
(0.208335 0.364131 0.00581132)
(0.323176 0.403328 -0.00580613)
(0.377665 0.391106 -0.0298002)
(0.355579 0.340637 -0.0376588)
(0.294466 0.276927 -0.0492205)
(0.241017 0.28694 -0.0267738)
(0.27536 0.287514 -0.0401319)
(0.206443 0.2693 -0.0379342)
(0.228163 0.248206 -0.0442157)
(0.312904 0.299456 -0.0445375)
(0.272245 0.258783 -0.0492421)
(0.189907 0.285967 -0.0332363)
(0.207988 0.254823 -0.034544)
(0.240375 0.34768 -0.000325218)
(0.256019 0.296584 -0.0363941)
(0.510563 0.662885 -0.324388)
(0.560254 0.731749 -0.355017)
(0.550802 0.715219 -0.341761)
(0.520632 0.662666 -0.316545)
(0.51644 0.658501 -0.310287)
(0.438934 0.565688 -0.269592)
(0.460662 0.590905 -0.282085)
(0.524434 0.671359 -0.317171)
(0.466734 0.597051 -0.28255)
(0.443419 0.564683 -0.275454)
(0.428177 0.560723 -0.274378)
(0.44599 0.576941 -0.279181)
(0.418568 0.542059 -0.257489)
(0.429258 0.548625 -0.27386)
(0.398899 0.526533 -0.259633)
(0.474721 0.621307 -0.301186)
(0.43931 0.568289 -0.287208)
(0.424367 0.562029 -0.279099)
(0.23196 0.338041 -0.109053)
(0.247962 0.393656 -0.148973)
(0.261461 0.429603 -0.153755)
(0.165946 0.278786 -0.120462)
(0.179755 0.28772 -0.103883)
(0.177164 0.31128 -0.151992)
(0.199865 0.346643 -0.16635)
(0.253861 0.427425 -0.182654)
(0.269738 0.442313 -0.189365)
(0.254079 0.416805 -0.173401)
(0.170534 0.270174 -0.0974401)
(0.154829 0.25475 -0.110608)
(0.186725 0.316324 -0.13027)
(0.167144 0.295743 -0.133399)
(0.149086 0.256114 -0.109464)
(0.196205 0.333257 -0.149213)
(0.239592 0.390587 -0.144772)
(0.184937 0.303753 -0.108989)
(0.512234 0.478608 -0.162033)
(0.538124 0.460106 -0.216664)
(0.482358 0.424416 -0.163087)
(0.491046 0.558998 -0.129866)
(0.453771 0.56175 -0.133957)
(0.521367 0.552637 -0.194366)
(0.538914 0.49279 -0.213351)
(0.531487 0.489703 -0.230788)
(0.322116 0.481343 -0.0208715)
(0.373197 0.476448 -0.0635699)
(0.432589 0.61677 -0.109533)
(0.459076 0.701362 -0.157389)
(0.41906 0.650611 -0.105618)
(0.555422 0.602331 -0.285386)
(0.559157 0.581868 -0.280271)
(0.493228 0.589937 -0.17984)
(0.485947 0.62083 -0.175863)
(0.503976 0.56808 -0.214659)
(0.515955 0.688345 -0.225151)
(0.512126 0.727327 -0.226163)
(0.600025 0.730735 -0.399943)
(0.617655 0.754201 -0.41019)
(0.552522 0.647572 -0.391806)
(0.506453 0.603049 -0.375251)
(0.482044 0.580724 -0.373505)
(0.470529 0.545793 -0.365543)
(0.478921 0.589966 -0.381127)
(0.483177 0.593959 -0.382635)
(0.536329 0.63336 -0.371825)
(0.503446 0.59933 -0.383324)
(0.553319 0.694138 -0.396944)
(0.51385 0.647649 -0.390306)
(0.490612 0.574738 -0.375496)
(0.639886 0.894468 -0.344444)
(0.637004 0.842291 -0.339875)
(0.639636 0.832065 -0.327546)
(0.652849 0.900111 -0.348821)
(0.659408 0.862686 -0.345749)
(0.673461 0.84567 -0.333071)
(0.685037 0.863618 -0.339022)
(0.639454 0.89655 -0.340768)
(0.635152 0.849789 -0.328643)
(0.684667 0.875273 -0.331254)
(0.658591 0.870666 -0.329602)
(0.710322 0.901874 -0.33095)
(0.720148 0.921198 -0.336779)
(0.645196 0.921699 -0.34407)
(0.645328 0.920049 -0.332612)
(0.723836 0.968714 -0.343781)
(0.69132 0.971446 -0.322593)
(0.683792 0.972013 -0.347917)
(0.692838 0.963233 -0.344024)
(0.557996 0.768525 -0.433495)
(0.587395 0.817573 -0.435352)
(0.637834 0.871502 -0.455431)
(0.589977 0.819105 -0.438929)
(0.54345 0.748032 -0.428941)
(0.624597 0.845452 -0.456476)
(0.570826 0.77232 -0.446936)
(0.540133 0.736543 -0.428453)
(0.517397 0.70933 -0.435862)
(0.537848 0.739424 -0.449991)
(0.49032 0.578172 -0.280666)
(0.444006 0.548628 -0.255611)
(0.538191 0.669184 -0.323876)
(0.538034 0.667313 -0.323464)
(0.490756 0.599259 -0.288431)
(0.464284 0.556951 -0.273103)
(0.467297 0.566783 -0.271663)
(0.506074 0.601286 -0.290531)
(0.472523 0.571534 -0.277295)
(0.587218 0.733922 -0.349452)
(0.567781 0.698022 -0.335773)
(0.538971 0.670288 -0.322948)
(0.584726 0.723889 -0.354121)
(0.547875 0.66842 -0.321743)
(0.398779 0.453663 -0.316231)
(0.388264 0.445047 -0.295721)
(0.388216 0.433212 -0.294)
(0.470732 0.571177 -0.354151)
(0.445392 0.547733 -0.346776)
(0.404047 0.454354 -0.311377)
(0.388304 0.450355 -0.294476)
(0.414019 0.475911 -0.329252)
(0.515905 0.586759 -0.361296)
(0.537439 0.62819 -0.371514)
(0.458909 0.527248 -0.326134)
(0.457288 0.564291 -0.355261)
(0.447729 0.540945 -0.350752)
(0.417385 0.472157 -0.333418)
(0.491852 0.558834 -0.341182)
(0.423509 0.481193 -0.312355)
(0.377044 0.418904 -0.229584)
(0.405889 0.459048 -0.250161)
(0.366675 0.399997 -0.21897)
(0.35674 0.386049 -0.21011)
(0.457297 0.512141 -0.27325)
(0.501011 0.566476 -0.297345)
(0.493913 0.559119 -0.285958)
(0.429287 0.481301 -0.246673)
(0.471533 0.526964 -0.276541)
(0.350665 0.377189 -0.202564)
(0.323101 0.355693 -0.189937)
(0.404147 0.440612 -0.227573)
(0.37405 0.398497 -0.220362)
(0.396202 0.423406 -0.225163)
(0.480404 0.491624 -0.32758)
(0.48659 0.500392 -0.331809)
(0.474134 0.495812 -0.322198)
(0.448899 0.463211 -0.29896)
(0.550396 0.60243 -0.374172)
(0.549513 0.608657 -0.375977)
(0.507723 0.534217 -0.32822)
(0.507634 0.529567 -0.318944)
(0.580304 0.651807 -0.373268)
(0.47468 0.491211 -0.310327)
(0.464238 0.482709 -0.298494)
(0.44458 0.463131 -0.288294)
(0.499487 0.518838 -0.331501)
(0.469384 0.497498 -0.319295)
(0.536639 0.591698 -0.360584)
(0.484723 0.502865 -0.315763)
(0.565992 0.618682 -0.354058)
(0.504303 0.535732 -0.325229)
(0.472846 0.435844 -0.155871)
(0.494631 0.407283 -0.182924)
(0.516879 0.424233 -0.243162)
(0.511705 0.416474 -0.228675)
(0.461374 0.361267 -0.165488)
(0.434345 0.390127 -0.144359)
(0.473891 0.407888 -0.168153)
(0.484218 0.3359 -0.218373)
(0.470075 0.298539 -0.216279)
(0.398698 0.35398 -0.125124)
(0.432949 0.369983 -0.140871)
(0.472256 0.295652 -0.171026)
(0.395096 0.257038 -0.148031)
(0.391386 0.273988 -0.14039)
(0.425283 0.2871 -0.180305)
(0.385007 0.246824 -0.155739)
(0.380953 0.260828 -0.139583)
(0.363815 0.237973 -0.144394)
(0.405748 0.289812 -0.152811)
(0.398304 0.475495 -0.265861)
(0.498982 0.622079 -0.321565)
(0.466355 0.570803 -0.307388)
(0.405728 0.469089 -0.272739)
(0.421948 0.499746 -0.282241)
(0.467827 0.571694 -0.321485)
(0.502852 0.621604 -0.339066)
(0.420969 0.495802 -0.283685)
(0.540528 0.681015 -0.3654)
(0.511465 0.617633 -0.347815)
(0.491553 0.585111 -0.337789)
(0.530981 0.650674 -0.356385)
(0.53914 0.646885 -0.363438)
(0.61011 0.687957 -0.437477)
(0.5735 0.670485 -0.429567)
(0.590532 0.55859 -0.446276)
(0.572088 0.520445 -0.435102)
(0.588565 0.701628 -0.42728)
(0.608783 0.704837 -0.42465)
(0.549962 0.606503 -0.455091)
(0.533652 0.623355 -0.454312)
(0.562245 0.595444 -0.445709)
(0.616315 0.638401 -0.43787)
(0.606404 0.632743 -0.448086)
(0.496739 0.478277 -0.434483)
(0.526239 0.590943 -0.454223)
(0.520301 0.560892 -0.446377)
(0.554565 0.627157 -0.448591)
(0.594739 0.659555 -0.441382)
(0.576833 0.630597 -0.44531)
(0.174192 0.404498 -0.305086)
(0.154108 0.366607 -0.278256)
(0.176239 0.388768 -0.304853)
(0.145094 0.332052 -0.266469)
(0.217354 0.432782 -0.381962)
(0.187768 0.370771 -0.338612)
(0.167242 0.408272 -0.307537)
(0.189991 0.453531 -0.327698)
(0.159751 0.357365 -0.297652)
(0.214492 0.443859 -0.361113)
(0.226796 0.502084 -0.37431)
(0.184104 0.379535 -0.341648)
(0.158357 0.343042 -0.295736)
(0.181724 0.406778 -0.329228)
(0.199017 0.441196 -0.347099)
(0.222015 0.47722 -0.361675)
(0.280382 0.389626 -0.318963)
(0.294477 0.405146 -0.325722)
(0.253404 0.36432 -0.292797)
(0.249779 0.379465 -0.304456)
(0.238009 0.343083 -0.287395)
(0.292406 0.425243 -0.340053)
(0.242429 0.371237 -0.293688)
(0.241002 0.39131 -0.298856)
(0.325086 0.475626 -0.353359)
(0.327939 0.485918 -0.356524)
(0.365608 0.542152 -0.355711)
(0.365541 0.527602 -0.35625)
(0.279338 0.398623 -0.314128)
(0.27371 0.381906 -0.306533)
(0.372363 0.50616 -0.366541)
(0.351501 0.480941 -0.352351)
(0.294397 0.465261 -0.341338)
(0.315186 0.504171 -0.325302)
(0.308465 0.488674 -0.325175)
(0.248852 0.385714 -0.29538)
(0.238653 0.437979 -0.0457395)
(0.203109 0.423721 -0.0445429)
(0.339573 0.387013 -0.061112)
(0.22684 0.409151 -0.0471834)
(0.228169 0.362649 -0.0580951)
(0.255729 0.476693 -0.0167297)
(0.242823 0.376639 -0.0393252)