/*--------------------------------*- C++ -*----------------------------------*\
| =========                 |                                                 |
| \\      /  F ield         | OpenFOAM: The Open Source CFD Toolbox           |
|  \\    /   O peration     | Version:  v1612+                                |
|   \\  /    A nd           | Web:      www.OpenFOAM.com                      |
|    \\/     M anipulation  |                                                 |
\*---------------------------------------------------------------------------*/
FoamFile
{
    version     2.0;
    format      ascii;
    class       volScalarField;
    location    "50";
    object      p;
}
// * * * * * * * * * * * * * * * * * * * * * * * * * * * * * * * * * * * * * //

dimensions      [0 2 -2 0 0 0 0];

internalField   nonuniform List<scalar> 
17216
(
2.71695
2.53993
2.52663
2.53267
2.53392
2.52622
2.5301
2.5438
2.54113
2.53672
2.53146
2.54197
2.53176
2.52784
2.52568
2.53076
2.53095
2.53644
2.52839
2.52454
2.5228
2.52901
2.52699
2.52806
2.52461
2.52923
2.52596
2.53558
2.52442
2.52842
2.5252
2.53011
2.65401
2.64704
2.66179
2.66654
2.63995
2.67264
2.66676
2.64808
2.65758
2.57211
2.57285
2.56988
2.56631
2.56944
2.57003
2.57268
2.57091
2.57127
2.5704
2.56321
2.57432
2.57311
2.57403
2.56602
2.56881
2.5673
2.5655
2.5684
2.56759
2.56968
2.56685
2.54752
2.5436
2.56584
2.56009
2.53546
2.54139
2.54537
2.56014
2.55517
2.55234
2.54471
2.54428
2.54166
2.56103
2.55037
2.55279
2.61982
2.61226
2.6044
2.62043
2.58368
2.58386
2.58878
2.59519
2.60209
2.58658
2.58162
2.59054
2.59255
2.61078
2.58919
2.61588
2.62887
2.60418
2.62272
2.61194
2.67747
2.68495
2.68895
2.67611
2.69432
2.68774
2.69038
2.69754
2.69495
2.69415
2.69709
2.69087
2.68782
2.68128
2.67157
2.67549
2.68287
2.51801
2.51786
2.52078
2.52239
2.52522
2.51867
2.51516
2.51725
2.52613
2.52651
2.51627
2.52142
2.51821
2.51534
2.5185
2.52267
2.52243
2.52476
2.52564
2.51972
2.52151
2.5198
2.63411
2.62944
2.62353
2.63118
2.61557
2.61674
2.62878
2.62039
2.61054
2.61032
2.5993
2.60149
2.5861
2.59705
2.6258
2.59558
2.60451
2.59133
2.60665
2.60656
2.58678
2.60726
2.58529
2.61899
2.61771
2.62555
2.60148
2.60624
2.59312
2.58279
2.60982
2.60705
2.58845
2.53321
2.52535
2.54245
2.53655
2.52785
2.52624
2.52822
2.54988
2.53661
2.53939
2.54374
2.52839
2.54351
2.5134
2.51383
2.51462
2.51481
2.51904
2.5156
2.51778
2.52309
2.52328
2.51746
2.52484
2.52404
2.51534
2.52306
2.52135
2.52426
2.53051
2.53118
2.51419
2.533
2.53083
2.60678
2.62129
2.61147
2.62548
2.62
2.61557
2.62068
2.60856
2.59605
2.60578
2.59619
2.60141
2.61468
2.60471
2.60339
2.60046
2.60239
2.60429
2.55982
2.56279
2.56134
2.5619
2.56238
2.56014
2.56536
2.56338
2.56382
2.56066
2.56905
2.56642
2.56513
2.56258
2.56088
2.56557
2.56711
2.55542
2.5657
2.56655
2.55828
2.55256
2.55587
2.54863
2.5446
2.54482
2.55039
2.54178
2.54368
2.54629
2.52197
2.53527
2.52994
2.5351
2.52612
2.52643
2.5263
2.51986
2.52349
2.52156
2.52323
2.52653
2.52676
2.52582
2.52164
2.57989
2.58329
2.58817
2.58197
2.52622
2.52626
2.5307
2.5308
2.52728
2.52775
2.52465
2.52824
2.53007
2.53138
2.52808
2.5279
2.52851
2.53314
2.52984
2.61609
2.61672
2.61001
2.62467
2.62943
2.625
2.63083
2.60678
2.61321
2.6278
2.6266
2.6173
2.64056
2.63244
2.63285
2.63886
2.60897
2.63606
2.6242
2.56855
2.56744
2.56459
2.56144
2.56256
2.56395
2.56264
2.55939
2.5629
2.56019
2.56417
2.56342
2.55706
2.56248
2.56287
2.55928
2.55595
2.56001
2.56536
2.5677
2.57842
2.57735
2.57537
2.57279
2.57275
2.57234
2.56571
2.56807
2.56864
2.58484
2.57654
2.5703
2.58096
2.56772
2.56813
2.54047
2.53775
2.54135
2.54515
2.54425
2.54178
2.54036
2.54051
2.53969
2.54246
2.53367
2.53532
2.53631
2.5332
2.53802
2.53664
2.52896
2.53546
2.53537
2.53726
2.53813
2.53576
2.57873
2.57824
2.59031
2.57623
2.57687
2.58309
2.58085
2.56903
2.57352
2.58278
2.574
2.58246
2.58202
2.57614
2.57635
2.5741
2.57406
2.58275
2.58112
2.58129
2.5836
2.57617
2.58885
2.58803
2.58863
2.58222
2.58127
2.58727
2.58851
2.59092
2.58827
2.58411
2.57867
2.52574
2.53017
2.52274
2.51724
2.51771
2.52481
2.53021
2.52538
2.52065
2.51667
2.52004
2.51972
2.52088
2.52127
2.5223
2.52255
2.52162
2.56602
2.58098
2.56371
2.57429
2.58768
2.59533
2.5985
2.60622
2.59082
2.56754
2.57344
2.58796
2.58266
2.57205
2.5987
2.59474
2.5896
2.58372
2.59714
2.59866
2.60258
2.5969
2.60253
2.60164
2.60362
2.59435
2.57796
2.56985
2.56839
2.56763
2.57398
2.54985
2.54608
2.5689
2.57346
2.56688
2.54604
2.55556
2.54802
2.55554
2.55211
2.55305
2.56619
2.65487
2.65735
2.67216
2.62704
2.62479
2.62699
2.62216
2.64222
2.6547
2.64381
2.64378
2.62405
2.64084
2.63297
2.60028
2.61283
2.61188
2.65654
2.66079
2.67969
2.68479
2.67081
2.69516
2.66767
2.65844
2.67454
2.68399
2.6937
2.70989
2.70393
2.69988
2.70089
2.68718
2.6713
2.68314
2.70546
2.51008
2.51468
2.51308
2.51187
2.51533
2.51568
2.50942
2.51123
2.53564
2.53393
2.52856
2.54172
2.53478
2.53857
2.54638
2.53637
2.53806
2.53287
2.52765
2.54621
2.54447
2.53659
2.60149
2.60059
2.57891
2.58555
2.57149
2.5798
2.58989
2.58763
2.58608
2.59913
2.59563
2.59963
2.57222
2.61131
2.59606
2.58001
2.58018
2.57605
2.64901
2.66156
2.6387
2.65363
2.67919
2.65472
2.65081
2.67529
2.67577
2.69353
2.57468
2.58554
2.57742
2.58651
2.59616
2.60272
2.57678
2.58362
2.57003
2.56992
2.58829
2.60935
2.58118
2.57646
2.5729
2.57973
2.59759
2.56524
2.55391
2.56034
2.56111
2.55914
2.56256
2.57474
2.57186
2.57288
2.57287
2.56496
2.56678
2.56827
2.57561
2.58021
2.57097
2.56959
2.51381
2.51058
2.52114
2.5154
2.51006
2.51046
2.51488
2.51919
2.52247
2.51959
2.52014
2.52451
2.52043
2.52342
2.52352
2.52323
2.52674
2.51946
2.52105
2.52696
2.52518
2.5362
2.53005
2.52444
2.52484
2.53226
2.61274
2.61439
2.60892
2.61572
2.62803
2.62237
2.59507
2.59313
2.59462
2.61473
2.60128
2.63216
2.62913
2.59427
2.59792
2.59966
2.59588
2.6156
2.61326
2.61393
2.60253
2.51317
2.52199
2.51822
2.51209
2.51368
2.51776
2.51846
2.51764
2.5252
2.52124
2.51453
2.50982
2.51929
2.53643
2.52921
2.53479
2.53814
2.52897
2.53404
2.53418
2.5344
2.54224
2.54445
2.54363
2.54565
2.52937
2.54253
2.52684
2.53879
2.53532
2.53141
2.53152
2.53316
2.53346
2.54009
2.53754
2.65052
2.65552
2.64011
2.64115
2.67144
2.64641
2.62982
2.65476
2.65968
2.61953
2.63103
2.62521
2.62292
2.66593
2.64297
2.66394
2.55306
2.548
2.55563
2.55711
2.55377
2.55495
2.55876
2.55716
2.55037
2.55316
2.55018
2.55787
2.55942
2.55916
2.55188
2.55467
2.55394
2.55322
2.55924
2.56372
2.55279
2.55196
2.55974
2.5604
2.55479
2.55623
2.55604
2.55529
2.56268
2.71085
2.712
2.70149
2.71077
2.70668
2.71009
2.71739
2.71525
2.71028
2.71637
2.69866
2.70656
2.70575
2.69836
2.70026
2.70337
2.6991
2.71142
2.69494
2.70698
2.70106
2.70626
2.69688
2.69991
2.70178
2.70876
2.70267
2.68572
2.6713
2.68902
2.69612
2.68785
2.68138
2.67351
2.6932
2.68503
2.56147
2.56734
2.56138
2.56269
2.56097
2.56197
2.57215
2.56642
2.56868
2.55748
2.55987
2.5541
2.56482
2.55175
2.54496
2.54568
2.53911
2.54583
2.54177
2.55342
2.54149
2.54624
2.53533
2.53525
2.54029
2.54048
2.53335
2.54181
2.53655
2.53779
2.5421
2.54719
2.54774
2.54106
2.59293
2.59143
2.59969
2.58834
2.59576
2.60278
2.5464
2.56063
2.57073
2.57002
2.56323
2.5648
2.5553
2.57023
2.57673
2.55337
2.55582
2.55783
2.5707
2.54859
2.55873
2.55118
2.56725
2.55114
2.55174
2.70781
2.70054
2.68534
2.68184
2.69992
2.70459
2.71052
2.66849
2.66736
2.70482
2.70624
2.68868
2.70207
2.68497
2.67477
2.67949
2.68725
2.67518
2.69151
2.66844
2.65835
2.68083
2.67017
2.66965
2.6744
2.67594
2.67778
2.67677
2.66897
2.66906
2.55211
2.55193
2.55367
2.55567
2.55655
2.55432
2.55345
2.5539
2.55629
2.55545
2.56013
2.55798
2.55226
2.55535
2.55395
2.55929
2.55876
2.55882
2.55587
2.73159
2.73571
2.71981
2.7177
2.71419
2.72975
2.7271
2.71436
2.7157
2.73399
2.7452
2.74303
2.74302
2.73079
2.74181
2.73556
2.7346
2.73234
2.55453
2.55818
2.55919
2.55807
2.5591
2.55198
2.55312
2.55705
2.55752
2.55783
2.65889
2.62925
2.64499
2.64912
2.62399
2.64486
2.63819
2.61465
2.62203
2.59893
2.62496
2.60775
2.55219
2.55306
2.53459
2.5414
2.54518
2.54628
2.54244
2.53938
2.54304
2.5357
2.52921
2.52905
2.52642
2.53457
2.53311
2.52874
2.52769
2.52593
2.5288
2.68559
2.68118
2.63735
2.65193
2.65189
2.60509
2.59591
2.59756
2.51633
2.51905
2.51166
2.5352
2.53214
2.53096
2.57202
2.57832
2.56994
2.59846
2.61418
2.61366
2.62309
2.60812
2.52674
2.52447
2.54583
2.54857
2.55048
2.59986
2.60611
2.60302
2.55666
2.55608
2.56011
2.55024
2.75181
2.75427
2.74969
2.75308
2.6431
2.64452
2.59521
2.59732
2.59187
2.66788
2.67996
2.68264
2.74124
2.74252
2.5941
2.59479
2.56949
2.5639
2.57297
2.5477
2.54599
2.54151
2.5378
2.7163
2.71683
2.55379
2.56456
2.56316
2.57912
2.57979
2.58681
2.59351
2.59411
2.59791
2.566
2.57243
2.57588
2.533
2.53262
2.61731
2.606
2.59711
2.60732
2.58317
2.5864
2.6657
2.67133
2.67091
2.60581
2.61325
2.56408
2.56755
2.56879
2.51893
2.52303
2.51789
2.56635
2.5665
2.70378
2.6972
2.60103
2.60535
2.55644
2.54849
2.54837
2.57985
2.5826
2.55835
2.56458
2.56743
2.6462
2.64105
2.55327
2.55063
2.55305
2.61394
2.60522
2.60532
2.52775
2.52879
2.53067
2.64442
2.63482
2.63356
2.57193
2.57771
2.57762
2.57071
2.59095
2.59347
2.58471
2.52537
2.52144
2.54257
2.53911
2.63888
2.64374
2.70312
2.71094
2.70817
2.70776
2.53582
2.5296
2.53287
2.66807
2.6695
2.53573
2.53983
2.54014
2.58185
2.58467
2.55534
2.55693
2.55227
2.55194
2.5199
2.5227
2.52432
2.53247
2.53341
2.5387
2.53676
2.53522
2.57451
2.57308
2.55925
2.56139
2.55748
2.55709
2.55605
2.55958
2.56054
2.56456
2.56145
2.55889
2.55564
2.5557
2.55723
2.55257
2.55225
2.55536
2.56042
2.56347
2.56071
2.56209
2.56605
2.56016
2.56311
2.55757
2.55655
2.55878
2.55685
2.55281
2.55006
2.55514
2.56524
2.56553
2.56241
2.56623
2.56225
2.55833
2.56165
2.56252
2.57519
2.57747
2.57426
2.58187
2.57478
2.58099
2.57914
2.57776
2.57474
2.57916
2.57699
2.57697
2.5755
2.57756
2.57792
2.57676
2.57601
2.57006
2.5699
2.57162
2.57326
2.54067
2.53878
2.53677
2.53641
2.53078
2.53557
2.53993
2.54339
2.53525
2.53886
2.54036
2.53843
2.53949
2.53959
2.5393
2.53853
2.53665
2.53524
2.53545
2.53761
2.53786
2.5284
2.53499
2.53509
2.53578
2.53439
2.53529
2.53358
2.53448
2.53653
2.53604
2.54708
2.54967
2.54611
2.54696
2.55279
2.55934
2.52992
2.52619
2.53707
2.52882
2.53429
2.53913
2.53192
2.52633
2.53223
2.5333
2.53035
2.52782
2.53
2.52155
2.5334
2.53323
2.52418
2.52217
2.52676
2.52332
2.51872
2.52401
2.52166
2.52141
2.52029
2.52071
2.52065
2.67799
2.68236
2.68986
2.70047
2.72544
2.72191
2.57762
2.56093
2.57139
2.57724
2.56673
2.542
2.53999
2.54582
2.5424
2.5543
2.55367
2.55324
2.53873
2.54367
2.54206
2.54218
2.56732
2.56361
2.57191
2.56665
2.57771
2.57107
2.58778
2.58947
2.57262
2.58624
2.56618
2.56521
2.57234
2.5686
2.55133
2.5488
2.55189
2.55541
2.56625
2.56464
2.56246
2.55656
2.57635
2.56936
2.57183
2.55083
2.54556
2.5587
2.54138
2.5468
2.55771
2.55469
2.58503
2.5822
2.58804
2.58037
2.55441
2.56046
2.56903
2.5459
2.58444
2.58314
2.5813
2.60705
2.60067
2.60558
2.59503
2.58977
2.59363
2.56021
2.57595
2.57558
2.5899
2.5859
2.58735
2.58193
2.59
2.57912
2.57801
2.59688
2.58745
2.58549
2.58316
2.58616
2.57317
2.57911
2.58308
2.57597
2.57929
2.57388
2.56763
2.57211
2.56444
2.56638
2.56588
2.56727
2.58583
2.57878
2.57657
2.57882
2.57952
2.52251
2.52288
2.53241
2.52812
2.53865
2.53747
2.53503
2.54862
2.54249
2.5442
2.54613
2.52687
2.52568
2.54226
2.53017
2.51717
2.53057
2.52974
2.54629
2.54014
2.54657
2.54758
2.54461
2.53717
2.53727
2.54392
2.54113
2.5358
2.53462
2.53812
2.54601
2.53584
2.5404
2.67157
2.67099
2.6403
2.6304
2.64489
2.62919
2.62194
2.63141
2.63365
2.64356
2.66514
2.65767
2.66003
2.64888
2.66829
2.68856
2.6857
2.66946
2.65083
2.64571
2.64792
2.52454
2.53485
2.52819
2.52781
2.51594
2.52868
2.52165
2.5227
2.52293
2.53282
2.54959
2.53038
2.53308
2.5381
2.5524
2.55198
2.53857
2.51523
2.5119
2.51849
2.51935
2.51914
2.51597
2.51628
2.71726
2.71644
2.70881
2.65803
2.67018
2.66214
2.68119
2.68984
2.68383
2.63813
2.65005
2.64606
2.67228
2.6652
2.64334
2.6596
2.66017
2.67446
2.70167
2.69015
2.67357
2.68714
2.74489
2.74164
2.72873
2.73706
2.70269
2.7062
2.68081
2.68435
2.70863
2.67676
2.6651
2.65979
2.65495
2.65614
2.69092
2.68386
2.68299
2.68369
2.6972
2.70542
2.71986
2.70885
2.72393
2.73201
2.72453
2.724
2.7365
2.73798
2.62734
2.61786
2.62463
2.64911
2.62937
2.63065
2.64314
2.64259
2.64085
2.61186
2.60087
2.60865
2.62495
2.62032
2.61208
2.62139
2.62159
2.62722
2.62759
2.6411
2.63915
2.64169
2.62896
2.62193
2.63822
2.63417
2.63739
2.61606
2.54663
2.5495
2.54248
2.54216
2.54356
2.54417
2.5405
2.54042
2.54186
2.53942
2.54023
2.5422
2.54138
2.53705
2.53793
2.5388
2.52126
2.52748
2.52549
2.5252
2.52481
2.51864
2.51995
2.52083
2.52183
2.52015
2.52131
2.51383
2.51867
2.51659
2.52017
2.57651
2.58421
2.58874
2.58325
2.58579
2.58598
2.60834
2.61181
2.58511
2.57916
2.57758
2.57438
2.58549
2.58096
2.58303
2.59386
2.58631
2.58221
2.59469
2.59116
2.59787
2.60571
2.59871
2.59321
2.57103
2.57486
2.57196
2.57379
2.57318
2.56751
2.56837
2.5724
2.56795
2.56681
2.57849
2.56912
2.57971
2.57647
2.57274
2.57001
2.57651
2.57552
2.57908
2.58298
2.58043
2.58098
2.61506
2.6046
2.61669
2.60773
2.60115
2.61909
2.61287
2.61851
2.62308
2.64296
2.62952
2.62954
2.61202
2.62359
2.6294
2.6196
2.63341
2.644
2.63725
2.63183
2.66203
2.66653
2.63965
2.63949
2.6469
2.64699
2.52728
2.52685
2.53205
2.53106
2.52651
2.5276
2.52925
2.62227
2.61111
2.61206
2.59822
2.60037
2.6216
2.62403
2.61611
2.60934
2.59276
2.60183
2.59403
2.59775
2.59257
2.58293
2.60004
2.58862
2.5778
2.58902
2.60125
2.60031
2.59386
2.59611
2.60147
2.60502
2.60305
2.60547
2.59921
2.5998
2.61436
2.60307
2.60986
2.60365
2.6183
2.61727
2.61307
2.6083
2.56335
2.55979
2.55276
2.56085
2.54959
2.5466
2.54817
2.5446
2.54456
2.54085
2.53822
2.55143
2.5555
2.55702
2.55102
2.55096
2.55014
2.55255
2.55243
2.54224
2.54603
2.55069
2.54721
2.54881
2.54646
2.5451
2.54802
2.55147
2.63618
2.62545
2.6385
2.6563
2.65934
2.63399
2.64043
2.64
2.63856
2.63464
2.62837
2.61992
2.63085
2.63348
2.63047
2.6503
2.65231
2.64925
2.63295
2.63763
2.63242
2.63338
2.63672
2.63429
2.59383
2.58787
2.58692
2.59659
2.57598
2.54971
2.54946
2.55877
2.55171
2.54625
2.56408
2.56231
2.54528
2.54706
2.54718
2.54528
2.56861
2.55693
2.58774
2.58543
2.58592
2.58466
2.58609
2.58761
2.58178
2.58308
2.57564
2.57639
2.58537
2.58196
2.58693
2.58819
2.5799
2.58097
2.57926
2.58271
2.53531
2.54218
2.53734
2.53855
2.53956
2.54138
2.53919
2.54433
2.55302
2.54758
2.55166
2.54794
2.53916
2.53318
2.53697
2.54698
2.54608
2.54288
2.53789
2.54055
2.53359
2.56331
2.55356
2.55472
2.55516
2.54699
2.54573
2.55097
2.63537
2.63036
2.62152
2.63951
2.62335
2.61091
2.5904
2.5904
2.57447
2.57614
2.60761
2.61108
2.60379
2.59272
2.5871
2.58606
2.70536
2.70308
2.69101
2.684
2.68266
2.70327
2.69449
2.70638
2.69885
2.65617
2.64737
2.66154
2.67484
2.66887
2.67354
2.67483
2.67843
2.73603
2.70183
2.70914
2.72053
2.70206
2.70617
2.71057
2.70464
2.71726
2.70981
2.56634
2.57051
2.56344
2.5652
2.56962
2.56665
2.56822
2.57136
2.56515
2.56876
2.56942
2.56609
2.56704
2.57111
2.56475
2.56482
2.56247
2.56347
2.55913
2.56014
2.56192
2.56039
2.56329
2.52392
2.52406
2.5165
2.52249
2.52592
2.52279
2.52197
2.5248
2.52627
2.56283
2.56554
2.66559
2.66554
2.64939
2.63648
2.6503
2.61647
2.62708
2.63426
2.60666
2.59938
2.62054
2.61188
2.6156
2.63131
2.62263
2.60851
2.6463
2.64849
2.64455
2.62722
2.63399
2.62786
2.62044
2.61387
2.61912
2.58799
2.57137
2.5852
2.6034
2.60944
2.60446
2.6097
2.61414
2.58541
2.58522
2.60223
2.60172
2.57366
2.58112
2.57787
2.57869
2.58133
2.57712
2.57374
2.57599
2.62642
2.6327
2.64374
2.64392
2.66032
2.70136
2.68956
2.67953
2.69126
2.57416
2.57497
2.56524
2.56035
2.57644
2.5731
2.58755
2.57966
2.58855
2.58793
2.57078
2.57451
2.55846
2.55799
2.57169
2.57066
2.57237
2.57418
2.60069
2.59411
2.6158
2.60411
2.61236
2.59996
2.59944
2.59875
2.59308
2.58478
2.57922
2.63624
2.63012
2.61933
2.6097
2.59651
2.59307
2.57637
2.58286
2.58201
2.59724
2.59833
2.59346
2.60265
2.60036
2.57755
2.57693
2.57959
2.58052
2.58398
2.59256
2.53323
2.5351
2.54149
2.5344
2.53893
2.59121
2.58978
2.58044
2.59505
2.5973
2.57256
2.57839
2.57449
2.57392
2.57018
2.56695
2.56817
2.5705
2.56941
2.56543
2.56113
2.56741
2.59408
2.5892
2.57128
2.57459
2.57856
2.57904
2.57524
2.58642
2.57769
2.59522
2.58418
2.60633
2.5954
2.59394
2.5659
2.56429
2.572
2.56508
2.58294
2.58377
2.58281
2.58695
2.60423
2.59805
2.59833
2.59196
2.62201
2.61996
2.62431
2.6265
2.61825
2.56662
2.55744
2.57365
2.5655
2.56094
2.57439
2.57052
2.57049
2.57421
2.57643
2.51613
2.51323
2.51432
2.61265
2.60539
2.60486
2.5952
2.5933
2.58283
2.59116
2.58108
2.60046
2.59396
2.58507
2.5751
2.58625
2.57464
2.58121
2.57435
2.58018
2.57956
2.57094
2.5752
2.58028
2.57752
2.58128
2.57724
2.5818
2.58776
2.57539
2.5774
2.55378
2.55422
2.56245
2.55816
2.5654
2.55181
2.5484
2.5567
2.56674
2.5609
2.55219
2.71729
2.71784
2.73557
2.7308
2.73327
2.7229
2.70357
2.70841
2.70932
2.72412
2.71526
2.72399
2.71833
2.72029
2.71055
2.7048
2.71445
2.71746
2.72795
2.72008
2.53994
2.5487
2.53844
2.52392
2.53136
2.5487
2.54649
2.54288
2.55207
2.54735
2.54266
2.5451
2.544
2.53906
2.53926
2.53576
2.54029
2.53854
2.5495
2.53848
2.53538
2.53759
2.53652
2.58915
2.56959
2.58757
2.57431
2.57306
2.56977
2.59709
2.58385
2.5689
2.57724
2.58094
2.576
2.59485
2.59411
2.59299
2.5867
2.58553
2.59009
2.592
2.5935
2.59217
2.59168
2.59502
2.59724
2.5977
2.59641
2.58958
2.59122
2.59183
2.59402
2.71656
2.71429
2.69996
2.72493
2.74233
2.73157
2.73108
2.71484
2.72516
2.71687
2.75298
2.74954
2.73713
2.73362
2.75314
2.73508
2.7301
2.75047
2.75118
2.66264
2.65603
2.67374
2.64287
2.65375
2.64258
2.63942
2.69865
2.70826
2.70045
2.6867
2.65963
2.66635
2.65572
2.66494
2.66633
2.65235
2.60138
2.60569
2.60261
2.60015
2.65042
2.64181
2.65301
2.6455
2.75588
2.75095
2.74684
2.7456
2.75097
2.73641
2.75866
2.75673
2.74269
2.55799
2.55389
2.5591
2.54773
2.5445
2.5559
2.5524
2.55555
2.56273
2.55971
2.55719
2.58319
2.58877
2.58275
2.59174
2.59734
2.59506
2.57896
2.59894
2.58763
2.57513
2.58887
2.61526
2.60379
2.62141
2.54178
2.53976
2.54429
2.54336
2.543
2.54529
2.54581
2.545
2.55108
2.54715
2.54841
2.52765
2.52487
2.52188
2.52264
2.52302
2.5255
2.53178
2.5267
2.51792
2.52113
2.52309
2.5247
2.52526
2.52604
2.52607
2.52576
2.60375
2.60489
2.59362
2.59392
2.598
2.60088
2.63965
2.64534
2.64831
2.62641
2.6152
2.5991
2.60207
2.62071
2.6122
2.63157
2.64266
2.62395
2.63173
2.61717
2.63348
2.61857
2.6066
2.63878
2.63684
2.64858
2.64257
2.56801
2.5664
2.56981
2.57859
2.56817
2.56552
2.57074
2.5733
2.57939
2.57278
2.57057
2.52828
2.53159
2.53133
2.53101
2.52593
2.53538
2.53423
2.53481
2.52932
2.57427
2.58606
2.58531
2.58115
2.58599
2.58154
2.57517
2.56429
2.56013
2.58209
2.56585
2.5859
2.58389
2.58883
2.58896
2.6811
2.66518
2.66428
2.67408
2.66181
2.65177
2.65431
2.67259
2.66324
2.65806
2.65822
2.64903
2.65707
2.65161
2.65159
2.64694
2.63412
2.63948
2.69043
2.69607
2.68743
2.6994
2.69466
2.68677
2.67823
2.68229
2.67112
2.67235
2.67564
2.66946
2.65432
2.65288
2.67508
2.66899
2.67425
2.66704
2.68113
2.6933
2.69388
2.68557
2.69739
2.70182
2.70209
2.6568
2.64873
2.63615
2.6356
2.64722
2.64085
2.66777
2.66382
2.66396
2.65798
2.67495
2.66958
2.56303
2.56286
2.5514
2.56152
2.57614
2.57409
2.56871
2.57581
2.57253
2.58171
2.57513
2.59058
2.60533
2.60795
2.59657
2.58718
2.60378
2.60978
2.61032
2.60994
2.61232
2.59978
2.55348
2.55085
2.55406
2.56467
2.56743
2.56728
2.56444
2.56724
2.75217
2.74242
2.7513
2.74463
2.65049
2.68642
2.67276
2.67895
2.68645
2.66566
2.66787
2.65675
2.67125
2.65117
2.68218
2.67634
2.66358
2.68697
2.6929
2.6878
2.6832
2.66833
2.67159
2.67627
2.66568
2.66247
2.67714
2.67163
2.69841
2.70767
2.70799
2.69484
2.69535
2.70589
2.70135
2.69087
2.68743
2.69727
2.69426
2.63726
2.63467
2.61185
2.64299
2.63302
2.62705
2.61464
2.64065
2.63971
2.68042
2.66018
2.67134
2.66488
2.68587
2.67654
2.66282
2.65839
2.67129
2.66087
2.73382
2.71862
2.73688
2.72606
2.68423
2.69257
2.69775
2.67722
2.68359
2.67881
2.69819
2.71036
2.707
2.68775
2.67272
2.67639
2.59599
2.59405
2.59443
2.59257
2.58975
2.58406
2.58704
2.58357
2.59077
2.58927
2.58466
2.58304
2.58458
2.61247
2.61148
2.60216
2.60224
2.6197
2.60088
2.59964
2.60265
2.59085
2.58601
2.58118
2.58228
2.58246
2.61085
2.59216
2.53254
2.53793
2.53454
2.52898
2.54225
2.53676
2.53408
2.53083
2.5358
2.52678
2.54764
2.5457
2.54922
2.54378
2.54336
2.54616
2.53708
2.54411
2.54288
2.5519
2.55038
2.54241
2.54177
2.54932
2.54849
2.54707
2.54725
2.55059
2.54967
2.55417
2.55296
2.55201
2.54609
2.55
2.54901
2.54436
2.54094
2.52821
2.52607
2.52465
2.52832
2.52411
2.71099
2.71657
2.71314
2.70885
2.71433
2.71413
2.72325
2.72097
2.71429
2.71126
2.70829
2.71168
2.7522
2.74798
2.73003
2.7348
2.74203
2.7377
2.73672
2.73472
2.72907
2.73851
2.73398
2.7331
2.7297
2.56902
2.59023
2.59478
2.58554
2.58205
2.58117
2.57553
2.56972
2.60818
2.59902
2.59174
2.60207
2.59729
2.58819
2.57545
2.59158
2.59233
2.59129
2.59502
2.58369
2.60359
2.59424
2.58087
2.58159
2.63538
2.61665
2.60688
2.61645
2.60524
2.59752
2.60719
2.59743
2.59693
2.60841
2.59878
2.60808
2.59639
2.61586
2.60891
2.63163
2.62598
2.5761
2.57674
2.5621
2.56253
2.57112
2.57937
2.56941
2.57054
2.56732
2.56834
2.56582
2.5598
2.56533
2.55948
2.55913
2.65085
2.63777
2.65345
2.65475
2.65683
2.64484
2.64559
2.65562
2.65993
2.65945
2.64131
2.65747
2.64506
2.65763
2.65681
2.64117
2.63262
2.62988
2.5922
2.59504
2.58924
2.58407
2.59368
2.58886
2.58657
2.58455
2.55841
2.56372
2.5607
2.55868
2.56781
2.57269
2.57652
2.56464
2.56603
2.56418
2.56867
2.56489
2.56639
2.56284
2.56614
2.71069
2.71455
2.72407
2.7223
2.72428
2.71318
2.72878
2.72917
2.7276
2.73319
2.72024
2.72532
2.72426
2.60692
2.60315
2.61195
2.60672
2.59809
2.58818
2.58768
2.61445
2.59391
2.58904
2.60421
2.61439
2.6065
2.61419
2.61366
2.62546
2.61983
2.61102
2.64082
2.62835
2.63848
2.62884
2.6294
2.64108
2.58551
2.58496
2.58981
2.58786
2.58358
2.58542
2.59096
2.58719
2.58738
2.59067
2.59087
2.59002
2.62509
2.63657
2.62705
2.62047
2.63405
2.63402
2.62338
2.55063
2.55159
2.55271
2.56119
2.55703
2.55559
2.55225
2.55977
2.55706
2.54923
2.55507
2.55807
2.55677
2.55446
2.55305
2.55546
2.55877
2.56243
2.61604
2.60293
2.61663
2.60655
2.61718
2.60931
2.6012
2.6103
2.60465
2.6112
2.60219
2.58568
2.59195
2.58381
2.59934
2.59814
2.59709
2.59109
2.58489
2.59817
2.59685
2.59122
2.58659
2.64544
2.65105
2.6477
2.66649
2.65994
2.66757
2.6764
2.67973
2.67815
2.61907
2.58707
2.60035
2.59497
2.59277
2.59548
2.59488
2.59767
2.6032
2.60536
2.6157
2.61103
2.61539
2.61242
2.60657
2.60695
2.5899
2.57829
2.58065
2.58
2.57725
2.57699
2.57711
2.59747
2.59543
2.59273
2.60086
2.59981
2.58583
2.59733
2.59175
2.58584
2.59437
2.5893
2.59512
2.59036
2.58185
2.5907
2.58672
2.58824
2.58547
2.51959
2.5162
2.51652
2.51467
2.51366
2.51822
2.5195
2.52038
2.51576
2.51577
2.51567
2.51781
2.51558
2.52324
2.52767
2.52584
2.51569
2.51643
2.51431
2.51784
2.51445
2.51192
2.51282
2.51069
2.51275
2.51418
2.51448
2.52404
2.5286
2.52832
2.52779
2.52697
2.52561
2.53125
2.52483
2.52799
2.52597
2.52531
2.52831
2.52776
2.55226
2.55086
2.5455
2.54826
2.54638
2.55038
2.55018
2.63173
2.63314
2.6325
2.6286
2.63115
2.62762
2.63037
2.74499
2.73019
2.74539
2.74021
2.72613
2.71212
2.66292
2.67504
2.67191
2.67335
2.68382
2.66938
2.68728
2.67991
2.69745
2.68309
2.69186
2.69341
2.69868
2.67227
2.65991
2.67645
2.67768
2.66174
2.67073
2.68752
2.67346
2.65916
2.65482
2.63109
2.6416
2.63032
2.64847
2.64468
2.62307
2.62513
2.63201
2.62982
2.63213
2.62281
2.6318
2.62392
2.64366
2.62637
2.61228
2.63779
2.63001
2.64778
2.62957
2.64856
2.66111
2.64876
2.66441
2.62525
2.6204
2.69408
2.68798
2.67152
2.68929
2.67358
2.69428
2.69956
2.70088
2.68223
2.67039
2.67467
2.65749
2.55856
2.55482
2.5503
2.54751
2.55634
2.54552
2.54003
2.69443
2.68759
2.693
2.68624
2.68225
2.67529
2.67774
2.66553
2.67546
2.66995
2.66787
2.6724
2.67273
2.65707
2.65794
2.53728
2.53181
2.5346
2.53623
2.53123
2.52355
2.52717
2.55903
2.54895
2.56231
2.55856
2.56086
2.61152
2.61415
2.60381
2.61361
2.61218
2.60373
2.60759
2.6076
2.59417
2.60121
2.59848
2.53938
2.5475
2.54205
2.5464
2.547
2.53669
2.53927
2.54233
2.53831
2.53841
2.53676
2.52908
2.53367
2.53161
2.5352
2.53598
2.53696
2.54723
2.5412
2.54466
2.54291
2.54034
2.53951
2.54722
2.5439
2.54538
2.54855
2.54733
2.54345
2.54642
2.54123
2.54188
2.54461
2.54129
2.54193
2.54363
2.54614
2.54353
2.5408
2.53805
2.54432
2.55024
2.5559
2.55362
2.55513
2.56067
2.55324
2.5502
2.55113
2.54755
2.69376
2.694
2.68582
2.72578
2.69349
2.68433
2.67261
2.67844
2.68342
2.67764
2.7015
2.68521
2.66709
2.67485
2.68416
2.67464
2.75063
2.75244
2.74847
2.52859
2.52507
2.52477
2.52197
2.51997
2.52576
2.52031
2.52159
2.52214
2.5234
2.52114
2.51988
2.54191
2.5443
2.54127
2.54158
2.5323
2.52954
2.52972
2.53456
2.53466
2.53636
2.5402
2.53389
2.55091
2.54339
2.54076
2.53761
2.53644
2.53635
2.54153
2.54136
2.53159
2.53345
2.53443
2.52977
2.5328
2.53042
2.52877
2.53067
2.52929
2.53082
2.53453
2.52774
2.53106
2.53103
2.53029
2.52789
2.53322
2.5299
2.52858
2.53093
2.52782
2.57535
2.56957
2.57092
2.57231
2.57348
2.57366
2.57379
2.57584
2.57426
2.57427
2.56889
2.57053
2.56758
2.57184
2.57166
2.56485
2.56654
2.56922
2.57257
2.54988
2.55904
2.55576
2.54655
2.54836
2.55519
2.55693
2.55674
2.5541
2.55093
2.55004
2.55073
2.55055
2.54887
2.55098
2.5503
2.54894
2.54982
2.55057
2.55169
2.55394
2.69992
2.68466
2.70249
2.6932
2.6979
2.6859
2.69144
2.70113
2.69242
2.70618
2.69644
2.71117
2.70895
2.72106
2.70562
2.72147
2.71671
2.71613
2.70695
2.6895
2.69927
2.64276
2.64458
2.64642
2.64165
2.63228
2.63564
2.64596
2.65448
2.64369
2.63101
2.63441
2.66371
2.66572
2.66688
2.6508
2.64793
2.64924
2.65946
2.6592
2.64288
2.63959
2.61369
2.627
2.62188
2.62117
2.60858
2.62293
2.61487
2.61187
2.63241
2.62129
2.62332
2.62492
2.62279
2.62512
2.62818
2.62547
2.61862
2.61077
2.60952
2.62062
2.62153
2.61501
2.61602
2.62124
2.61751
2.62969
2.62744
2.63008
2.62774
2.62751
2.55158
2.562
2.5612
2.56257
2.55581
2.5625
2.56237
2.56068
2.56097
2.55525
2.55293
2.55576
2.58899
2.58345
2.58467
2.58119
2.55699
2.55691
2.55322
2.55874
2.54992
2.56221
2.56741
2.56889
2.56778
2.56425
2.55743
2.55364
2.56358
2.55962
2.57214
2.57149
2.57665
2.56757
2.56312
2.56353
2.55519
2.55969
2.57329
2.56567
2.55561
2.56593
2.57483
2.56137
2.57197
2.57464
2.558
2.55939
2.56053
2.56378
2.56182
2.56113
2.55982
2.55525
2.55899
2.55323
2.55756
2.55905
2.55496
2.55684
2.55166
2.55502
2.5555
2.55562
2.56119
2.56211
2.55919
2.55952
2.56023
2.55938
2.56125
2.55769
2.55204
2.5583
2.58131
2.57091
2.57311
2.57001
2.57754
2.57833
2.58405
2.581
2.57702
2.58507
2.53622
2.53633
2.52893
2.53761
2.53553
2.53237
2.53574
2.53289
2.53349
2.53231
2.52661
2.53098
2.53276
2.52199
2.56248
2.57094
2.57203
2.54361
2.53646
2.55211
2.55268
2.54915
2.55673
2.5504
2.57347
2.57438
2.57224
2.57097
2.56953
2.57661
2.56938
2.55639
2.56871
2.57389
2.56967
2.56241
2.55888
2.57067
2.57503
2.5238
2.52029
2.52746
2.52754
2.5217
2.52374
2.5255
2.52323
2.63913
2.63777
2.64824
2.62143
2.62252
2.6172
2.65098
2.6338
2.6253
2.63116
2.62599
2.65276
2.65538
2.63908
2.64829
2.6404
2.51416
2.52606
2.52205
2.52139
2.52653
2.52357
2.52012
2.5166
2.67874
2.65939
2.63953
2.64581
2.64567
2.65304
2.64259
2.66404
2.65924
2.65214
2.65229
2.65645
2.66564
2.63901
2.63437
2.63319
2.53394
2.54104
2.53855
2.53949
2.5355
2.53955
2.54082
2.5402
2.5354
2.53148
2.53895
2.53865
2.53926
2.54414
2.54717
2.54418
2.54665
2.54262
2.54142
2.54581
2.545
2.54465
2.54408
2.54386
2.63168
2.62077
2.62592
2.63048
2.60776
2.61447
2.61063
2.61136
2.61032
2.60226
2.61281
2.61108
2.61027
2.61371
2.52236
2.52689
2.52989
2.52441
2.52848
2.52414
2.52922
2.52976
2.52621
2.53236
2.53385
2.53301
2.52495
2.53023
2.52954
2.53093
2.53252
2.52915
2.52924
2.53045
2.53142
2.57852
2.57806
2.60258
2.59775
2.59764
2.6076
2.59642
2.59961
2.60155
2.59501
2.59361
2.59496
2.54917
2.54362
2.56139
2.54941
2.56118
2.58803
2.58159
2.58136
2.58461
2.57793
2.57876
2.57632
2.57285
2.57828
2.5736
2.57783
2.571
2.57947
2.57677
2.5757
2.57363
2.58375
2.57834
2.58386
2.58827
2.58109
2.57803
2.58253
2.58299
2.58687
2.63265
2.62197
2.60365
2.61401
2.62016
2.61778
2.63658
2.63939
2.6252
2.62021
2.61286
2.62892
2.63722
2.56602
2.57498
2.58427
2.56365
2.57209
2.57811
2.57361
2.57753
2.57761
2.58382
2.58907
2.5571
2.56742
2.56673
2.56537
2.57346
2.57184
2.56755
2.57348
2.57042
2.52651
2.52745
2.52753
2.52716
2.52472
2.52444
2.52455
2.52264
2.52463
2.52599
2.57077
2.57138
2.57021
2.56323
2.56916
2.5702
2.56625
2.56542
2.60849
2.62715
2.57138
2.57261
2.56708
2.63342
2.63368
2.62045
2.63363
2.60859
2.63571
2.62352
2.62353
2.61288
2.61519
2.61024
2.57977
2.57655
2.55971
2.58533
2.56627
2.57137
2.5934
2.59003
2.57778
2.57612
2.5697
2.56348
2.57069
2.5855
2.57686
2.52962
2.53281
2.53665
2.53289
2.5342
2.53238
2.53251
2.53077
2.53278
2.52666
2.57357
2.59007
2.58851
2.60124
2.59123
2.58166
2.58252
2.59259
2.59561
2.58482
2.60061
2.60598
2.59539
2.60035
2.60671
2.55084
2.56024
2.56316
2.56465
2.56557
2.56015
2.56013
2.56287
2.56477
2.60527
2.60205
2.60497
2.62272
2.61029
2.60883
2.54438
2.54805
2.5454
2.54742
2.69408
2.70299
2.70055
2.7014
2.71222
2.6999
2.71672
2.70932
2.54792
2.55198
2.55095
2.54996
2.54051
2.53644
2.5351
2.54636
2.54326
2.54717
2.54273
2.54228
2.53936
2.54167
2.54419
2.53324
2.53896
2.53865
2.5374
2.54209
2.54123
2.5425
2.53957
2.56843
2.56805
2.5647
2.55994
2.55393
2.55352
2.54725
2.56121
2.56095
2.55336
2.55518
2.55828
2.54422
2.54294
2.59092
2.5929
2.59396
2.58961
2.59116
2.58979
2.59132
2.58622
2.58746
2.58479
2.58711
2.58658
2.58357
2.7066
2.70245
2.71071
2.7097
2.70471
2.73274
2.73256
2.74105
2.737
2.72833
2.74271
2.74802
2.75673
2.74769
2.74074
2.73863
2.73853
2.74651
2.74665
2.74673
2.7487
2.74633
2.51776
2.52139
2.52187
2.53124
2.52342
2.51823
2.52077
2.51294
2.52417
2.52884
2.52578
2.52059
2.52649
2.52496
2.52048
2.51634
2.51826
2.52661
2.5243
2.52268
2.52649
2.52392
2.52357
2.52502
2.5283
2.52691
2.61393
2.64747
2.63905
2.65233
2.6606
2.65669
2.64883
2.65693
2.65172
2.64536
2.61182
2.6156
2.61608
2.6366
2.61802
2.62424
2.64952
2.63749
2.62314
2.634
2.64826
2.65554
2.63863
2.63872
2.62986
2.64204
2.64723
2.52744
2.53157
2.52692
2.52795
2.53226
2.53287
2.53393
2.53233
2.52735
2.52896
2.53032
2.5782
2.56545
2.5681
2.56539
2.57252
2.56499
2.57024
2.57297
2.55692
2.55962
2.56144
2.65499
2.66389
2.6682
2.663
2.64975
2.66235
2.65759
2.66329