/*--------------------------------*- C++ -*----------------------------------*\
| =========                 |                                                 |
| \\      /  F ield         | OpenFOAM: The Open Source CFD Toolbox           |
|  \\    /   O peration     | Version:  v1612+                                |
|   \\  /    A nd           | Web:      www.OpenFOAM.com                      |
|    \\/     M anipulation  |                                                 |
\*---------------------------------------------------------------------------*/
FoamFile
{
    version     2.0;
    format      ascii;
    class       volVectorField;
    location    "50";
    object      wallShearStress;
}
// * * * * * * * * * * * * * * * * * * * * * * * * * * * * * * * * * * * * * //

dimensions      [0 2 -2 0 0 0 0];

internalField   uniform (0 0 0);

boundaryField
{
    WALL
    {
        type            calculated;
        value           nonuniform List<vector> 
1529
(
(0.00750185 0.00710833 0.00862663)
(0.00630709 0.00589873 0.00827431)
(0.0146569 0.00820707 0.00304679)
(0.0151424 0.0090867 0.00321721)
(0.00577452 0.00303007 0.00730501)
(0.00640067 0.00407882 0.00779569)
(0.0113832 0.00327389 0.0140426)
(0.0135598 0.00918663 0.0136477)
(0.0135919 0.00943064 0.0136821)
(0.0224624 0.00915744 0.00404043)
(0.0215561 0.0105788 0.00282902)
(0.0166563 0.014032 0.00273663)
(0.0141953 0.013727 0.00357987)
(0.0144807 0.00976242 0.0147955)
(0.0126693 0.0109552 0.014097)
(0.0126794 0.00760561 0.00257971)
(0.0121142 0.00691051 0.0024489)
(0.0130891 0.0121655 0.00469175)
(0.01263 0.011279 0.00316708)
(0.0174155 0.00651718 0.0129275)
(0.0164941 0.0115607 0.00503219)
(0.0145012 0.0121825 0.0050065)
(0.0149743 0.0110599 0.00504718)
(0.015937 0.01113 0.00464491)
(0.00516346 0.00331737 0.00537784)
(0.00552065 0.00559442 0.00637148)
(0.00631736 0.00589993 0.00662156)
(0.00634253 0.00686368 0.00654299)
(0.0110779 0.0114073 0.00532928)
(0.0108541 0.0108374 0.00537557)
(0.00647953 0.000993812 0.00644817)
(0.00612452 0.00136345 0.00632609)
(0.00579858 0.00338393 0.00708251)
(0.00632561 0.00420972 0.00762504)
(0.0126116 0.00664323 0.0159897)
(0.012551 0.00747175 0.015885)
(0.0103152 0.0090543 0.0143399)
(0.0104254 0.011073 0.0149533)
(0.0107491 0.00476458 0.0143898)
(0.0100077 0.00536041 0.0142864)
(0.0117514 0.0102404 0.0145546)
(0.0128841 0.0103148 0.0158662)
(0.0139424 0.0106705 0.00322474)
(0.0145666 0.0128574 0.00469465)
(0.00621119 0.00415779 0.00899481)
(0.0182099 0.0118086 0.00191753)
(0.0175187 0.0120944 0.00392416)
(0.0177168 0.0107463 0.00379262)
(0.0170249 0.0110234 0.00455395)
(0.00980141 0.0105063 0.00734559)
(0.0128859 0.0126233 0.0068148)
(0.0192917 0.00802066 0.00455083)
(0.0199251 0.00753277 0.00392587)
(0.0105654 0.00548085 0.0024644)
(0.0113029 0.00596387 0.0022492)
(0.0161865 0.0127557 0.00537157)
(0.0155724 0.0134961 0.0059051)
(0.0138896 0.00904881 0.00313883)
(0.0145483 0.00998845 0.00364506)
(0.0131752 0.00547647 0.015822)
(0.0130932 0.00690612 0.0165289)
(0.0141078 0.0128477 0.00537027)
(0.0166775 0.0126849 0.00508755)
(0.0129563 0.00979024 0.00299171)
(0.0121857 0.00957259 0.00278584)
(0.0131144 0.0114671 0.00441546)
(0.0135746 0.0118453 0.0039646)
(0.0130414 0.0106137 0.00298796)
(0.0123817 0.0107306 0.00307022)
(0.017492 0.00194142 0.0115924)
(0.0194587 0.00222545 0.00885443)
(0.0201033 0.00233011 0.0104837)
(0.0188327 0.00223971 0.0122575)
(0.0189909 0.00170689 0.00915503)
(0.0180471 0.00148388 0.0100546)
(0.0172558 0.00920458 0.00549429)
(0.0172324 0.00992265 0.00518326)
(0.00596053 0.00486995 0.00675188)
(0.00621522 0.00523101 0.0073704)
(0.00589776 0.00371108 0.00698094)
(0.00576732 0.00422297 0.00673664)
(0.00567361 0.00388591 0.00682876)
(0.00524553 0.00246626 0.00511113)
(0.005259 0.00278009 0.00526057)
(0.00542423 0.0031596 0.00555923)
(0.00536712 0.00245328 0.00524919)
(0.00527129 0.00267452 0.00544557)
(0.0054263 0.00310757 0.00569812)
(0.0135716 0.0060235 0.0162722)
(0.0123486 0.00853483 0.0161405)
(0.0127684 0.0078126 0.016515)
(0.0125011 0.00843477 0.0165854)
(0.0100381 0.00175403 0.00425228)
(0.0112732 0.00226 0.00394108)
(0.0101578 0.0020443 0.00393278)
(0.0111963 0.0027331 0.00354711)
(0.012397 0.0033057 0.00330896)
(0.0120997 0.00293339 0.00347302)
(0.0153307 0.0124072 0.00531484)
(0.0143437 0.012191 0.00634072)
(0.0146308 0.0130041 0.00595161)
(0.0159139 0.011488 0.00484516)
(0.0148091 0.0114631 0.00541217)
(0.0157297 0.0115945 0.00430594)
(0.0211597 0.0059514 0.00301813)
(0.0206902 0.00725848 0.00284832)
(0.0205012 0.00708661 0.00179599)
(0.0221562 0.00593401 0.00287959)
(0.0210141 0.00478042 0.00354479)
(0.0206081 0.00424059 0.00310687)
(0.0083786 6.42852e-05 0.00652306)
(0.00705415 0.000308784 0.00639846)
(0.00953079 0.00342015 0.00287815)
(0.00908924 0.00312777 0.00312151)
(0.0101468 0.00447109 0.00268059)
(0.0101724 0.00432931 0.00284862)
(0.00928065 0.00354624 0.00276857)
(0.0097042 0.00392276 0.00265929)
(0.011923 0.00730276 0.00250724)
(0.0117988 0.00691923 0.00235018)
(0.0112847 0.00571499 0.00252125)
(0.0116053 0.00634274 0.00239809)
(0.0118119 0.00762817 0.00242958)
(0.00864884 0.00277597 0.00346366)
(0.00730863 0.00215141 0.00348727)
(0.00823802 0.00268597 0.00305692)
(0.00796156 0.00237713 0.00337926)
(0.00890172 0.00298498 0.00349128)
(0.00813236 0.00236916 0.00338863)
(0.00569017 0.00227021 0.0043229)
(0.00578083 0.00212511 0.00416988)
(0.00573032 0.00211854 0.00417265)
(0.00578949 0.00202049 0.00400133)
(0.00569185 0.00217598 0.00430022)
(0.00567136 0.00229042 0.00442943)
(0.0228149 0.00728346 0.00827693)
(0.0216626 0.00770721 0.0070216)
(0.0219857 0.00798337 0.00663737)
(0.0221083 0.00712342 0.00828585)
(0.0221758 0.00673723 0.00780878)
(0.0211497 0.00584799 0.00857756)
(0.0214946 0.00598185 0.00970059)
(0.0207135 0.00533938 0.010646)
(0.020687 0.00505226 0.0112483)
(0.0216258 0.00553798 0.00980869)
(0.0217818 0.00504497 0.0109163)
(0.00604311 0.00591011 0.00802329)
(0.00717104 0.00683872 0.00802566)
(0.00672348 0.00609694 0.0081569)
(0.00629422 0.00600134 0.00773154)
(0.00674178 0.0066508 0.0081388)
(0.00607449 0.00476107 0.00733161)
(0.00628832 0.00538656 0.00802592)
(0.0069972 0.00642992 0.00873923)
(0.00599659 0.000896356 0.00688953)
(0.00640674 0.000574235 0.00676844)
(0.00660876 0.000698917 0.0071999)
(0.00667141 0.000304067 0.00669889)
(0.00676181 0.000575087 0.00748062)
(0.00597065 0.00525387 0.00891865)
(0.00663756 0.00562955 0.0090551)
(0.00635414 0.0054376 0.00878588)
(0.006812 0.00585275 0.00896877)
(0.00629325 0.00481393 0.00901796)
(0.00591669 0.00402048 0.00817141)
(0.0191844 0.0092838 0.00490883)
(0.0175026 0.00984064 0.00465638)
(0.0191159 0.00910524 0.00279156)
(0.0192517 0.00932823 0.00216926)
(0.0185417 0.00975966 0.0035164)
(0.0193631 0.0106849 0.00295929)
(0.0125273 0.0123823 0.00498409)
(0.0136407 0.0127838 0.00458663)
(0.0127712 0.0134632 0.00444587)
(0.0112707 0.0120126 0.00507663)
(0.0119156 0.011908 0.00586814)
(0.0139008 0.0134626 0.00392193)
(0.0118802 0.011391 0.00693046)
(0.0126541 0.0116584 0.00622428)
(0.0130688 0.0119005 0.0067303)
(0.011538 0.0115878 0.00668913)
(0.0135551 0.0116081 0.00573891)
(0.0141731 0.0119232 0.00621525)
(0.0158867 0.0119525 0.00671888)
(0.015657 0.0110936 0.00510699)
(0.0147532 0.0126094 0.00690364)
(0.0092367 0.000506088 0.00581454)
(0.00798322 0.000808615 0.00499992)
(0.00861846 0.000985187 0.00471161)
(0.0100849 0.00107443 0.00452768)
(0.00936186 0.000690036 0.00515315)
(0.00761753 0.000763237 0.00586679)
(0.00830388 0.000400847 0.00602676)
(0.0130342 0.0143841 0.0105744)
(0.0133875 0.0156035 0.0109733)
(0.0132961 0.0140319 0.00848309)
(0.0133161 0.0153236 0.00894004)
(0.013844 0.0157141 0.00971408)
(0.014428 0.0149849 0.00898415)
(0.015046 0.0144431 0.00612365)
(0.0158421 0.0149157 0.00663348)
(0.0148415 0.0141419 0.00766829)
(0.0141889 0.0140239 0.00938261)
(0.0149322 0.0147508 0.00925664)
(0.0157599 0.0149927 0.00803282)
(0.0160123 0.0108577 0.0039264)
(0.0152513 0.0123704 0.00539305)
(0.015811 0.0115805 0.00435183)
(0.0150409 0.0105121 0.0037646)
(0.0150615 0.00954158 0.00348899)
(0.0156931 0.012199 0.00536571)
(0.0151582 0.0115094 0.00437948)
(0.0150512 0.00806694 0.00303975)
(0.0127808 0.00601318 0.0028537)
(0.0132432 0.00740764 0.00242599)
(0.0135411 0.00739645 0.00277002)
(0.0119035 0.00536943 0.00270642)
(0.0121148 0.00524707 0.00286738)
(0.012559 0.00629529 0.00262997)
(0.0141861 0.00599515 0.00279206)
(0.0121781 0.00419752 0.0026273)
(0.0135797 0.00605292 0.00257623)
(0.0124456 0.00410562 0.00299105)
(0.0133718 0.00472051 0.00288469)
(0.0131928 0.00518591 0.00295422)
(0.0134008 0.0120659 0.00388997)
(0.0148689 0.0145013 0.0050829)
(0.0127497 0.0118294 0.00412278)
(0.0131164 0.01278 0.00498595)
(0.0135142 0.0108598 0.00349827)
(0.0131121 0.0111201 0.00338316)
(0.0141024 0.0115572 0.00356474)
(0.0139852 0.011838 0.0036806)
(0.0137116 0.00802066 0.00279545)
(0.0137156 0.00992825 0.00316062)
(0.0133004 0.008997 0.00280616)
(0.0132684 0.0100394 0.0166757)
(0.0148107 0.00855731 0.0165809)
(0.0146266 0.00701994 0.0160533)
(0.0137007 0.00823666 0.0167182)
(0.0131943 0.00962306 0.0162237)
(0.0146571 0.007509 0.0168104)
(0.0130269 0.0105102 0.0160011)
(0.0127333 0.0112897 0.0156133)
(0.012534 0.0102082 0.0149576)
(0.0136589 0.00970505 0.0161566)
(0.0136508 0.00960246 0.0161627)
(0.0123535 0.0124311 0.0152572)
(0.010507 0.00818218 0.0152177)
(0.012343 0.0117477 0.0157747)
(0.0100704 0.0100671 0.0140232)
(0.0107406 0.0121669 0.0154869)
(0.0103893 0.0108717 0.0150669)
(0.0120481 0.013473 0.0137678)
(0.0113506 0.0144994 0.0123728)
(0.0124078 0.0160212 0.0135282)
(0.0118402 0.015077 0.013935)
(0.0128169 0.0122684 0.0152419)
(0.0127626 0.012642 0.0160926)
(0.0111664 0.0141379 0.0119736)
(0.0135251 0.0160497 0.0106362)
(0.0129427 0.0143336 0.0104158)
(0.0136812 0.0148968 0.0124738)
(0.0119111 0.0154349 0.0131172)
(0.012926 0.013893 0.0125702)
(0.0117192 0.0132246 0.014498)
(0.0116519 0.0115419 0.0146709)
(0.0117347 0.011233 0.0158823)
(0.0115941 0.0130061 0.0135889)
(0.0109905 0.0135094 0.0119685)
(0.0117687 0.0145362 0.0132505)
(0.0138893 0.00323367 0.01432)
(0.0119056 0.00427009 0.0145243)
(0.0118532 0.00654243 0.0158219)
(0.0130851 0.00393683 0.0150001)
(0.0121214 0.00591141 0.0155444)
(0.0146261 0.0047156 0.0158286)
(0.015843 0.00284797 0.0138873)
(0.0146723 0.00461824 0.0162283)
(0.0163989 0.00296686 0.0143176)
(0.0157765 0.00394254 0.0153247)
(0.0153321 0.00288786 0.0145275)
(0.00649704 0.00409346 0.00827023)
(0.00607408 0.00409523 0.0079572)
(0.00583699 0.00323275 0.00764648)
(0.00651776 0.00548063 0.00889253)
(0.0062139 0.0047355 0.00804978)
(0.00575948 0.00349663 0.00772918)
(0.00588857 0.00287594 0.00736728)
(0.00590712 0.00347622 0.00737496)
(0.0061237 0.00152665 0.00662134)
(0.00601892 0.00194558 0.00672575)
(0.00570166 0.00222111 0.00679392)
(0.00591299 0.00145842 0.00614478)
(0.00586106 0.00207901 0.00693322)
(0.00629552 0.00114383 0.0054401)
(0.00660273 0.000837233 0.00575895)
(0.00683189 0.000929657 0.00545238)
(0.0065777 0.000934436 0.00514262)
(0.00608414 0.00116144 0.0057344)
(0.00631393 0.0010703 0.0058927)
(0.00609773 0.00173969 0.00456401)
(0.00565512 0.00194763 0.00480525)
(0.00582364 0.00176222 0.00466916)
(0.0055264 0.00203653 0.00474649)
(0.00591818 0.00188002 0.00455714)
(0.00567032 0.00196807 0.00460289)
(0.00535791 0.00321397 0.00602173)
(0.00560962 0.00290203 0.00577312)
(0.00533888 0.0036022 0.0059942)
(0.00566718 0.0029232 0.00608528)
(0.00540633 0.00384913 0.00632347)
(0.00511912 0.00407311 0.00619344)
(0.010962 0.00340137 0.00344834)
(0.0110573 0.00400931 0.00295605)
(0.0109034 0.00312935 0.00347963)
(0.0096448 0.00275337 0.0032619)
(0.011025 0.00389575 0.00303708)
(0.00865233 0.00872312 0.00625584)
(0.00844304 0.00875137 0.00637613)
(0.00975559 0.0100717 0.00638921)
(0.00901209 0.00971543 0.00592351)
(0.0100619 0.0102457 0.00633995)
(0.00875762 0.00969257 0.00629028)
(0.0071958 0.00604738 0.00661275)
(0.00708502 0.00567853 0.00659881)
(0.00800388 0.00737785 0.00708217)
(0.0068621 0.00622784 0.00617325)
(0.00718532 0.00733825 0.00627654)
(0.00727109 0.00724405 0.00635205)
(0.0060399 0.00351607 0.0055478)
(0.00560266 0.002786 0.00495252)
(0.0058152 0.00312793 0.00521066)
(0.00559425 0.00276468 0.00487922)
(0.00587998 0.00355893 0.00563402)
(0.00551806 0.00301348 0.00517288)
(0.00929347 0.010576 0.0065624)
(0.0103623 0.0103621 0.00644664)
(0.0112624 0.0105414 0.00693368)
(0.0102955 0.0123991 0.00501282)
(0.00807339 0.0094431 0.00599032)
(0.0071829 0.00850251 0.00611023)
(0.00765431 0.00995795 0.00675043)
(0.00929622 0.0107267 0.00731972)
(0.00801261 0.011061 0.00722026)
(0.00962988 0.0108658 0.0073279)
(0.00834954 0.00983463 0.00671374)
(0.00695182 0.00764587 0.00662779)
(0.00691875 0.0070248 0.0065995)
(0.00778866 0.00773911 0.0067625)
(0.00827592 0.00775013 0.00723503)
(0.00792389 0.00872934 0.00646295)
(0.00772488 0.00838851 0.00608184)
(0.00539538 0.00321676 0.00532678)
(0.00555955 0.004109 0.00579796)
(0.00566272 0.00444556 0.00601338)
(0.00521067 0.00353503 0.00543402)
(0.00549065 0.00320929 0.00524115)
(0.005678 0.00404842 0.0058167)
(0.0078996 0.0110182 0.00547152)
(0.00944614 0.0119039 0.0063437)
(0.00956516 0.0128621 0.00579186)
(0.0082397 0.0102237 0.00678686)
(0.00853914 0.0102991 0.00677544)
(0.00965658 0.0130399 0.00600734)
(0.0142029 0.0152166 0.00417449)
(0.0142583 0.0153003 0.0029972)
(0.0169504 0.0154732 0.00297797)
(0.015749 0.0152131 0.00313767)
(0.015494 0.0143431 0.00330761)
(0.0132324 0.0135126 0.00366864)
(0.0213194 0.0106563 0.00541945)
(0.021732 0.00997587 0.00571073)
(0.0218077 0.00973241 0.00586948)
(0.0210503 0.0111093 0.00465968)
(0.0207855 0.0117864 0.00463221)
(0.0199227 0.0110657 0.00484226)
(0.0112746 0.0130181 0.00665511)
(0.0132064 0.0125533 0.00675662)
(0.0106798 0.0117389 0.00626895)
(0.013399 0.0120018 0.00655458)
(0.0114455 0.0132326 0.00614386)
(0.0117192 0.0121534 0.00617494)
(0.0179182 0.0128194 0.00401795)
(0.0167574 0.0130274 0.00438034)
(0.0153099 0.0128517 0.00422419)
(0.0173486 0.0129085 0.00483422)
(0.0177806 0.0123401 0.00412593)
(0.0156233 0.0132082 0.00433671)
(0.0168809 0.010551 0.00514545)
(0.0152933 0.0116392 0.00492751)
(0.0171599 0.0109801 0.00521821)
(0.0160391 0.0106927 0.0049124)
(0.0161836 0.0114885 0.00496274)
(0.0169073 0.0111907 0.00438762)
(0.0184766 0.0106176 0.00489399)
(0.0187809 0.0112407 0.00485383)
(0.0177129 0.0109372 0.00477006)
(0.0158669 0.0116987 0.00502472)
(0.016664 0.0111228 0.00507682)
(0.0206356 0.00836916 0.00619837)
(0.0197107 0.00970555 0.00505819)
(0.0192073 0.0094967 0.00542433)
(0.0198403 0.00783239 0.00622875)
(0.019986 0.00874508 0.0060768)
(0.019537 0.00873101 0.00535197)
(0.0179566 0.00654995 0.0131096)
(0.0187293 0.00584318 0.012057)
(0.0177949 0.00622307 0.012982)
(0.0183596 0.00619292 0.012423)
(0.017271 0.0067773 0.0136328)
(0.0177389 0.00672517 0.0135105)
(0.0189326 0.00955978 0.00528449)
(0.0183014 0.00951873 0.00539004)
(0.018315 0.0100289 0.00515953)
(0.0193367 0.00868975 0.00563682)
(0.0206192 0.00950163 0.00588602)
(0.0180894 0.00896083 0.00470185)
(0.021128 0.00784381 0.00730186)
(0.0202402 0.00639514 0.00688836)
(0.018935 0.00739912 0.0056365)
(0.0196386 0.00665536 0.00739539)
(0.020208 0.00688278 0.00737382)
(0.0138219 0.000330971 0.0106688)
(0.0144263 -4.1936e-05 0.00999219)
(0.012872 0.000434506 0.0113822)
(0.0103379 0.00434071 0.0143938)
(0.0103616 0.00535686 0.0146556)
(0.0103205 0.00612135 0.0149144)
(0.0112753 0.00194646 0.0127782)
(0.0208984 0.00302677 0.00638374)
(0.0202985 0.00337667 0.00350869)
(0.0202433 0.00239532 0.00582106)
(0.0204024 0.00179689 0.00691643)
(0.0191095 0.00171665 0.00764543)
(0.0181214 0.00436451 0.0146604)
(0.0180833 0.00467744 0.0149952)
(0.0169256 0.00474939 0.0155156)
(0.0173373 0.005458 0.0154701)
(0.0162783 0.00573809 0.0158423)
(0.01612 0.00581288 0.0162421)
(0.0199491 0.00489383 0.0144439)
(0.0195415 0.00523972 0.0136932)
(0.0186798 0.00514936 0.0145024)
(0.0183673 0.00533485 0.0144142)
(0.0194813 0.00470063 0.0125015)
(0.0152239 0.000330996 0.00994584)
(0.0173873 0.000988477 0.00906038)
(0.0157667 8.30838e-05 0.00856247)
(0.0154221 0.000502935 0.00942733)
(0.017056 0.000407479 0.00787593)
(0.0188467 0.000644 0.00648621)
(0.0130528 0.0134311 0.0123269)
(0.0131842 0.0128658 0.0135279)
(0.0120862 0.0111783 0.011425)
(0.0119535 0.0128796 0.0123598)
(0.0128115 0.0120807 0.0127709)
(0.0121227 0.012956 0.0119112)
(0.0141608 0.00964498 0.0127774)
(0.0131796 0.0113443 0.012553)
(0.0140193 0.00980649 0.0139485)
(0.0139422 0.00870646 0.0131899)
(0.0138824 0.0101614 0.0146737)
(0.0140628 0.0106624 0.0136809)
(0.013433 0.0113358 0.0128387)
(0.0141173 0.0104576 0.0137154)
(0.0169628 0.00644715 0.0135622)
(0.0167728 0.00669422 0.0138399)
(0.0153233 0.00779809 0.0145689)
(0.015256 0.00714677 0.0136611)
(0.0166146 0.00722043 0.014124)
(0.0159817 0.00710837 0.0143922)
(0.0151497 0.00874711 0.0141819)
(0.0156667 0.00758533 0.0134641)
(0.0166392 0.00797611 0.014685)
(0.0147542 0.00862451 0.0139654)
(0.0161813 0.00815288 0.0146691)
(0.0164537 0.00684685 0.0136637)
(0.0127122 0.0103999 0.0136516)
(0.0127955 0.0126638 0.0124432)
(0.0128268 0.0124419 0.0146691)
(0.0126587 0.0118464 0.0135466)
(0.0141446 0.0120266 0.0141825)
(0.0131802 0.0139588 0.01328)
(0.0071275 0.00214685 0.00387514)
(0.00664985 0.00193776 0.00393678)
(0.00685173 0.00206974 0.00366732)
(0.00640793 0.00191633 0.00403888)
(0.00635875 0.00209759 0.00416111)
(0.00637388 0.00208318 0.00405588)
(0.0120205 0.0136511 0.00520528)
(0.0119234 0.0118862 0.00480965)
(0.0131379 0.0129233 0.00586505)
(0.0123898 0.0110701 0.00421605)
(0.0126952 0.0141206 0.00546451)
(0.0125025 0.0116924 0.00369293)
(0.0118553 0.0115386 0.00494486)
(0.0119724 0.0113588 0.00407682)
(0.0111049 0.00450412 0.0029937)
(0.0115472 0.00450437 0.00295438)
(0.0116017 0.00529762 0.00266875)
(0.0122462 0.0061086 0.00284733)
(0.0117155 0.00494502 0.00271849)
(0.0122305 0.00576775 0.00304236)
(0.0114918 0.0129806 0.00925413)
(0.0123613 0.0124578 0.0102999)
(0.0161926 0.00631274 0.0158031)
(0.0165087 0.00601209 0.015159)
(0.0156927 0.00645452 0.0157987)
(0.0153657 0.00754295 0.0162438)
(0.015937 0.00680013 0.0156975)
(0.0152141 0.00710738 0.015656)
(0.0122749 0.0119035 0.0138601)
(0.0138159 0.010155 0.0153336)
(0.0123409 0.0129754 0.0143129)
(0.0137685 0.0105669 0.0152321)
(0.0127325 0.0119398 0.0148)
(0.0214393 0.0105873 0.00298347)
(0.0219202 0.00988651 0.0020195)
(0.0191638 0.0121525 0.00131468)
(0.0201502 0.0121914 0.00178527)
(0.0212276 0.00923354 0.00235097)
(0.0200105 0.0109177 0.00157813)
(0.0198795 0.00656438 0.00906928)
(0.0192302 0.00682349 0.00791194)
(0.0193852 0.0079259 0.00648006)
(0.0186026 0.00835105 0.00606617)
(0.018001 0.00846939 0.00559548)
(0.019046 0.00798384 0.00661829)
(0.0192945 0.0082395 0.00676469)
(0.0194577 0.00611812 0.0100708)
(0.0186645 0.00604118 0.0114142)
(0.0188127 0.00646328 0.0121682)
(0.0192706 0.00626856 0.0107485)
(0.0194177 0.00608749 0.0112551)
(0.0197563 0.00606579 0.0100038)
(0.0111054 0.00979174 0.00598929)
(0.0130513 0.0111623 0.00584488)
(0.0117025 0.0114916 0.0052539)
(0.0108754 0.00997114 0.00651778)
(0.0127095 0.0111746 0.00588816)
(0.00564714 0.00206252 0.00510819)
(0.00550494 0.00227483 0.00536002)
(0.00558723 0.0022543 0.0055402)
(0.00561541 0.00183496 0.00485358)
(0.0055365 0.00196461 0.00510734)
(0.00560555 0.00202757 0.00538615)
(0.00604697 0.00163509 0.00469897)
(0.00658332 0.00164412 0.00478262)
(0.00643847 0.00163486 0.00467208)
(0.00590735 0.00159785 0.00460111)
(0.00627413 0.00151548 0.00439641)
(0.00731187 0.00152951 0.00454496)
(0.00763167 0.00136458 0.00425015)
(0.00761263 0.00153218 0.00392904)
(0.00895716 0.00185871 0.00380218)
(0.00780454 0.00162095 0.00415747)
(0.00850041 0.00195564 0.00388587)
(0.0129812 0.0169481 0.0100645)
(0.012716 0.0158646 0.00948334)
(0.0144542 0.0162106 0.00989317)
(0.0132227 0.0155698 0.0108784)
(0.013991 0.0153939 0.0103205)
(0.0137202 0.0170076 0.0114)
(0.0115637 0.0141797 0.012506)
(0.0132796 0.0169034 0.0108429)
(0.0122719 0.0163369 0.0137054)
(0.0136379 0.0150561 0.0132928)
(0.0128797 0.0156264 0.0105309)
(0.0136579 0.0151547 0.0127186)
(0.0139099 0.0153331 0.00714492)
(0.0143655 0.0154603 0.00966009)
(0.0144364 0.015143 0.00657305)
(0.0150739 0.0152418 0.00670409)
(0.0145151 0.0152204 0.00930209)
(0.0144565 0.0156991 0.00720331)
(0.0131718 0.014967 0.0104165)
(0.0135865 0.0168465 0.0108501)
(0.0136179 0.0169024 0.00982176)
(0.0150325 0.0148621 0.00938359)
(0.0127973 0.0150886 0.00876934)
(0.0141736 0.0145175 0.00940491)
(0.0164553 0.00881992 0.00316352)
(0.0159332 0.00990815 0.00359468)
(0.0147944 0.00360315 0.00423531)
(0.0130178 0.00301015 0.00424548)
(0.0136435 0.00404459 0.00304669)
(0.0155914 0.00658096 0.0032998)
(0.0160206 0.00630347 0.0036257)
(0.0144092 0.00474573 0.00302637)
(0.0142986 0.00549343 0.00297929)
(0.0212975 0.00543988 0.004845)
(0.0208213 0.00651547 0.00434589)
(0.00821725 0.00256016 0.00321349)
(0.00577295 0.00194545 0.00364637)
(0.00647579 0.00202652 0.0034618)
(0.00694921 0.00206938 0.00343237)
(0.0074227 0.00227846 0.00300228)
(0.0200294 0.00472874 0.00412511)
(0.0210428 0.00561503 0.00456654)
(0.0202396 0.00323053 0.00549512)
(0.0151337 0.0150357 0.00773695)
(0.0153621 0.0147648 0.00670451)
(0.013809 0.0140611 0.0070206)
(0.0145529 0.0142291 0.00635325)
(0.0145644 0.0127658 0.0055538)
(0.0143827 0.0117741 0.00433648)
(0.0146386 0.0108952 0.00386529)
(0.015067 0.0125955 0.00548016)
(0.0145737 0.0135122 0.00591794)
(0.01503 0.0135018 0.00604521)
(0.0151484 0.0108432 0.00403826)
(0.0145458 0.00950301 0.00336979)
(0.0149257 0.011653 0.00444463)
(0.0135544 0.0137486 0.00594311)
(0.0146562 0.0142535 0.00629949)
(0.0138996 0.0155195 0.0128749)
(0.012279 0.0152064 0.00888736)
(0.0134735 0.015037 0.0130098)
(0.0148258 0.0162128 0.00716101)
(0.0137414 0.0159151 0.00843627)
(0.0139261 0.0158816 0.00696605)
(0.0133779 0.0172348 0.00993474)
(0.0147923 0.0168331 0.00800098)
(0.0195708 0.00580046 0.0090436)
(0.0229475 0.00798718 0.00508853)
(0.0214968 0.0119089 0.00261681)
(0.0223713 0.0104628 0.00366985)
(0.0181104 0.0117983 0.00141549)
(0.0179264 0.0129836 0.00241124)
(0.022452 0.00963941 0.00289846)
(0.0195639 0.0124499 0.00212546)
(0.0205815 0.0117021 0.00241862)
(0.018734 0.0134792 0.00192641)
(0.019973 0.0133895 0.00187688)
(0.0230254 0.00734178 0.00473321)
(0.0229458 0.00590511 0.00674162)
(0.0230271 0.00777042 0.00455718)
(0.0241059 0.00861864 0.00343613)
(0.0234909 0.00698192 0.00405784)
(0.0219785 0.00473408 0.00448771)
(0.0238744 0.00591975 0.00589739)
(0.0230925 0.00512542 0.00756644)
(0.023018 0.0046489 0.00643566)
(0.0226493 0.00574675 0.0039419)
(0.0232883 0.00752193 0.00297437)
(0.0225033 0.0062237 0.00301363)
(0.0220608 0.00770862 0.00169431)
(0.0197591 0.0110377 0.00180568)
(0.020005 0.00974609 0.00120315)
(0.0216473 0.00855407 0.00186821)
(0.0219497 0.00904201 0.00165722)
(0.0163585 0.00663133 0.0142455)
(0.0138585 0.00831372 0.0144368)
(0.0127623 0.011564 0.0145034)
(0.0149126 0.00826846 0.0150762)
(0.0137461 0.00975242 0.0154982)
(0.0161383 0.00655383 0.0140239)
(0.0169155 0.00576399 0.0138885)
(0.015284 0.00779845 0.0150049)
(0.0168461 0.00610649 0.0144055)
(0.0168361 0.00682011 0.0153065)
(0.0167674 0.00572051 0.0141561)
(0.0133723 0.00908382 0.00289936)
(0.0123159 0.00666842 0.00264783)
(0.0099162 0.00333058 0.00329522)
(0.0111767 0.00622644 0.00230267)
(0.010852 0.00637738 0.00225559)
(0.0118264 0.00777821 0.00252516)
(0.0120623 0.0085264 0.00260881)
(0.0120535 0.0137044 0.00988747)
(0.0122366 0.0119459 0.0105756)
(0.0121507 0.0135334 0.0098893)
(0.011846 0.00998852 0.00331789)
(0.0118181 0.00894871 0.00330633)
(0.0128339 0.0104836 0.00339776)
(0.0116237 0.013177 0.00916134)
(0.0123041 0.0120549 0.00901489)
(0.0126626 0.0150133 0.00948266)
(0.0128028 0.0129554 0.013728)
(0.0123519 0.0144685 0.00922627)
(0.0130677 0.0125058 0.00491963)
(0.0123211 0.0144784 0.00745176)
(0.0133597 0.0137973 0.00724616)
(0.0130723 0.0133551 0.00522473)
(0.0123554 0.0133421 0.00571521)
(0.0131791 0.0140774 0.00788009)
(0.0131785 0.0147111 0.00624155)
(0.0127038 0.0138345 0.00742615)
(0.0117681 0.0141736 0.00787227)
(0.0126489 0.0154377 0.00829551)
(0.014611 0.00767596 0.0143164)
(0.0158783 0.00759788 0.0148011)
(0.012358 0.012383 0.0122967)
(0.0121535 0.0124542 0.0112978)
(0.0135674 0.0135394 0.0117674)
(0.0134767 0.0132286 0.0111537)
(0.0128185 0.0139613 0.0126462)
(0.0206139 0.00426801 0.0114192)
(0.0179005 0.00583537 0.0150681)
(0.0183108 0.00561262 0.0147918)
(0.0201626 0.0051203 0.0129332)
(0.0217539 0.00521565 0.0128693)
(0.0220978 0.0050953 0.0115598)
(0.0230481 0.00578782 0.00979025)
(0.0173822 0.00545849 0.0154584)
(0.0227909 0.0101876 0.00459446)
(0.0222671 0.0113878 0.00384414)
(0.0206369 0.00356277 0.0114785)
(0.0207157 0.00384487 0.00958268)
(0.022999 0.0042078 0.00962529)
(0.0215888 0.00363463 0.00951608)
(0.0206312 0.00343035 0.0108839)
(0.0197923 0.00284118 0.0126454)
(0.0185532 0.00320197 0.0131402)
(0.0149106 0.00109766 0.0111212)
(0.0192841 0.00169926 0.00550257)
(0.0164691 0.00120749 0.0102895)
(0.018807 0.000712734 0.00903171)
(0.0155675 -0.000145614 0.0087703)
(0.0123643 0.00130334 0.0123321)
(0.0151994 0.000901872 0.0108521)
(0.0136472 0.00038553 0.010314)
(0.0209543 0.0069544 0.00874046)
(0.0205771 0.00630586 0.0100806)
(0.0201548 0.00607967 0.010245)
(0.0206085 0.00788865 0.00658613)
(0.0196018 0.00832162 0.00543479)
(0.0193546 0.00852357 0.00609337)
(0.0190059 0.0093458 0.00557438)
(0.0184892 0.00948838 0.00546179)
(0.0185556 0.00890091 0.00533644)
(0.0191204 0.00805743 0.00594895)
(0.0200512 0.00874465 0.0064702)
(0.0142242 0.0088525 0.0137059)
(0.0168355 0.00706025 0.0139378)
(0.0191463 0.00605784 0.0121763)
(0.0189591 0.00555164 0.010352)
(0.0196068 0.00578504 0.0120594)
(0.0193604 0.00627961 0.0119316)
(0.0179518 0.0052452 0.0131614)
(0.0192055 0.00533542 0.0131151)
(0.0186693 0.005856 0.014208)
(0.0172021 0.00578943 0.0137831)
(0.0187047 0.00562006 0.0136662)
(0.0188484 0.00530715 0.0104764)
(0.0201523 0.00591277 0.00925928)
(0.0187068 0.00517729 0.0125989)
(0.0189127 0.00493054 0.0117118)
(0.0198518 0.00536072 0.0116132)
(0.0198749 0.00519683 0.00990889)
(0.0201203 0.00578738 0.00906868)
(0.0190705 0.00536328 0.0106913)
(0.0195081 0.0052662 0.010206)
(0.0197721 0.00539949 0.0109812)
(0.0187428 0.00502647 0.0116415)
(0.0199734 0.00584138 0.00799794)
(0.0202188 0.00582185 0.00835736)
(0.0204281 0.00595895 0.00967649)
(0.0202859 0.00668919 0.00752786)
(0.0215335 0.00761098 0.007645)
(0.0200757 0.00852845 0.00609947)
(0.0196737 0.0103485 0.00534073)
(0.0193489 0.0105726 0.00522259)
(0.0176993 0.0101288 0.00457666)
(0.0172654 0.010031 0.00453874)
(0.0173867 0.0105354 0.00481092)
(0.0186466 0.0104717 0.00512431)
(0.0194519 0.0112283 0.00529761)
(0.0194448 0.0117293 0.00511086)
(0.0218792 0.0105531 0.00451629)
(0.0192007 0.01363 0.00231372)
(0.0132144 0.0138823 0.00499739)
(0.0144963 0.0143495 0.00493547)
(0.0144218 0.0132799 0.0048671)
(0.0173308 0.0137453 0.00144177)
(0.0165682 0.0137442 0.00236397)
(0.0151541 0.0142904 0.00335224)
(0.0116371 0.014295 0.00444798)
(0.0130432 0.0151558 0.00483756)
(0.0105742 0.0125869 0.00595793)
(0.0120564 0.014846 0.00472518)
(0.00607938 0.00873498 0.00658152)
(0.00875785 0.0121724 0.00733075)
(0.00669453 0.00891339 0.00638986)
(0.00808866 0.0100279 0.00644693)
(0.0120977 0.0132678 0.00609979)
(0.0119239 0.0124217 0.00556778)
(0.0104781 0.0123186 0.00575828)
(0.00930359 0.0128878 0.00571836)
(0.00807132 0.0120882 0.00555449)
(0.0102845 0.0135124 0.00584498)
(0.010106 0.012564 0.00656113)
(0.00816116 0.0121506 0.00614052)
(0.00754995 0.0111746 0.00605949)
(0.00668149 0.00963847 0.00610105)
(0.00623673 0.00853945 0.0068232)
(0.00731265 0.00889635 0.00760347)
(0.007607 0.00968164 0.00735978)
(0.0131945 0.0143894 0.0045952)
(0.0100779 0.0136121 0.00479021)
(0.0117476 0.0146971 0.004676)
(0.0122839 0.013858 0.00451718)
(0.00939143 0.0118732 0.00620441)
(0.0091354 0.0114239 0.00675086)
(0.0104461 0.0140154 0.0052359)
(0.0110537 0.0148901 0.00459975)
(0.0102216 0.0139379 0.00543306)
(0.00886698 0.0122817 0.00495255)
(0.00995432 0.0129998 0.00597232)
(0.0103231 0.0138585 0.00487745)
(0.00747082 0.0105939 0.00682362)
(0.00764106 0.0115061 0.00655389)
(0.00682232 0.00799088 0.00689929)
(0.00924409 0.0105116 0.00698301)
(0.00713319 0.0100506 0.00639845)
(0.00640341 0.0087089 0.00640062)
(0.00620679 0.00705676 0.00734009)
(0.006842 0.00748487 0.007327)
(0.00748848 0.0094372 0.00734016)
(0.00718983 0.0101667 0.00675905)
(0.00685018 0.00959441 0.00699112)
(0.00620627 0.00774382 0.00667218)
(0.00620288 0.00786152 0.00683448)
(0.00603629 0.00696367 0.00687183)
(0.00568807 0.00447622 0.00609973)
(0.00653205 0.00760568 0.00727152)
(0.00596171 0.00694608 0.00689602)
(0.00594959 0.00468429 0.00613196)
(0.00595934 0.00668059 0.00668613)
(0.00635405 0.00554285 0.00625563)
(0.00607866 0.00479337 0.00619214)
(0.00632119 0.00516318 0.0064853)
(0.00696497 0.00567367 0.00677881)
(0.00655544 0.00639729 0.00649673)
(0.00678728 0.00743503 0.00694696)
(0.00674369 0.00806054 0.0071123)
(0.00794157 0.00784526 0.00736505)
(0.00927572 0.0110855 0.00619667)
(0.00667784 0.00917953 0.00672786)
(0.00747776 0.00838028 0.00764587)
(0.00756507 0.00767646 0.00689345)
(0.00748114 0.00962161 0.00682567)
(0.00822464 0.00969248 0.00654887)
(0.0110023 0.0114052 0.00728043)
(0.00548589 0.00280823 0.00501274)
(0.00613022 0.00465569 0.00626834)
(0.00575687 0.00389604 0.00575535)
(0.00576865 0.00258114 0.00469968)
(0.00598383 0.00329005 0.00530452)
(0.00588961 0.00310324 0.00518917)
(0.00702871 0.0056241 0.0064692)
(0.00711465 0.00704743 0.00664342)
(0.00624343 0.00441212 0.00577234)
(0.00685156 0.00532902 0.00640145)
(0.00635753 0.00190043 0.00411198)
(0.00571468 0.00204279 0.00437879)
(0.00600774 0.00217367 0.00454235)
(0.0062562 0.00192682 0.00419117)
(0.00605722 0.00202667 0.00430551)
(0.00560137 0.00225045 0.00461146)
(0.0054212 0.00230487 0.00475606)
(0.00533565 0.00270962 0.00497514)
(0.00545623 0.00249849 0.00490914)
(0.00520272 0.00301738 0.00532819)
(0.00535056 0.00277723 0.00515693)
(0.00514003 0.00390016 0.00574208)
(0.00523374 0.00346677 0.00551152)
(0.00524682 0.0027629 0.00503899)
(0.00546937 0.00676473 0.00626219)