/*--------------------------------*- C++ -*----------------------------------*\
| =========                 |                                                 |
| \\      /  F ield         | OpenFOAM: The Open Source CFD Toolbox           |
|  \\    /   O peration     | Version:  v1612+                                |
|   \\  /    A nd           | Web:      www.OpenFOAM.com                      |
|    \\/     M anipulation  |                                                 |
\*---------------------------------------------------------------------------*/
FoamFile
{
    version     2.0;
    format      ascii;
    class       volVectorField;
    location    "206";
    object      wallShearStress;
}
// * * * * * * * * * * * * * * * * * * * * * * * * * * * * * * * * * * * * * //

dimensions      [0 2 -2 0 0 0 0];

internalField   uniform (0 0 0);

boundaryField
{
    WALL
    {
        type            calculated;
        value           nonuniform List<vector> 
1665
(
(-0.0119289 -0.0251176 0.0139688)
(-0.0123011 -0.0250548 0.0135603)
(-0.00397653 -0.00762098 0.00348071)
(-0.00327106 -0.00665053 0.00287643)
(-0.018491 -0.0271411 0.00909074)
(-0.0174878 -0.0278832 0.00972234)
(-0.00714354 -0.0203353 0.010088)
(-0.00852581 -0.0231489 0.0114392)
(-0.0178497 -0.0344078 0.0148708)
(-0.0190809 -0.0355511 0.0140702)
(0.00274166 -0.018783 0.0172662)
(0.00463001 -0.0187943 0.0177382)
(-0.00182874 -0.0045429 0.00266416)
(-0.00176725 -0.0040616 0.00247793)
(-0.00232118 -0.0119425 0.00700082)
(-0.00283741 -0.011516 0.00657569)
(-0.00262542 -0.00647513 0.00335671)
(-0.00206325 -0.00552882 0.00335059)
(0.00160005 -0.00926906 0.00779969)
(0.00267184 -0.0130337 0.00896185)
(0.00279691 -0.0120784 0.00879928)
(-0.000458321 -0.00543551 0.0041388)
(-0.000548658 -0.00433269 0.0033386)
(-0.00100931 -0.00608011 0.00448577)
(-0.000984313 -0.00716203 0.00483409)
(-0.00114335 -0.0047764 0.003052)
(-0.00102001 -0.00416167 0.00291356)
(-0.000235105 -0.0181823 0.0155012)
(-0.00042888 -0.0189923 0.0160666)
(0.00349809 -0.0220343 0.00768508)
(-0.00280623 -0.0238201 0.016815)
(-0.00334493 -0.0236879 0.0188889)
(0.00241656 -0.0189255 0.0152105)
(0.00132835 -0.0202815 0.0156292)
(-0.00685452 -0.0127322 0.00829847)
(-0.00646355 -0.010442 0.00799201)
(-0.00199612 -0.0228847 0.015757)
(-0.00388063 -0.0220639 0.0142724)
(-0.0221171 -0.0212772 0.00651384)
(-0.0205822 -0.0183656 0.00692356)
(-0.00923588 -0.0291543 0.0179494)
(-0.011074 -0.0303431 0.017598)
(-0.00817492 -0.00875327 0.00219824)
(-0.00602389 -0.00862566 0.0025306)
(-0.00308846 -0.00536856 0.00204432)
(-0.00405564 -0.00669432 0.00232322)
(-0.00639545 -0.00942719 0.00363566)
(-0.00596999 -0.00952239 0.00379874)
(-0.0154513 -0.0323981 0.0152973)
(-0.0173057 -0.0311895 0.0123277)
(-0.0104109 -0.0247222 0.012412)
(-0.0106445 -0.024364 0.0121878)
(0.000514828 -0.00831745 0.00661618)
(-0.000187302 -0.00675056 0.00498184)
(-0.00237413 -0.0067482 0.00385419)
(-0.00293401 -0.0082872 0.00452782)
(-0.00183159 -0.00387152 0.00220538)
(-0.00197033 -0.00443649 0.00251736)
(-0.00185801 -0.0036653 0.00186197)
(-0.00189846 -0.00364003 0.00183777)
(-0.00175876 -0.00348938 0.00188443)
(-0.00173929 -0.00334127 0.00192166)
(-0.00191918 -0.00372149 0.00192867)
(-0.00174246 -0.00331123 0.00180914)
(-0.00263087 -0.0143827 0.00813647)
(-0.00298737 -0.0155562 0.00853507)
(-0.00367822 -0.0159842 0.00873263)
(-0.00321945 -0.0140717 0.00768961)
(-0.00323062 -0.016305 0.00864358)
(-0.00349229 -0.0143508 0.00796971)
(-0.000321252 -0.0049267 0.00389597)
(-0.000555611 -0.00641445 0.00465473)
(-0.000338562 -0.00519633 0.00392991)
(-0.000361169 -0.00428 0.00346462)
(-0.000360822 -0.0063521 0.0046107)
(-0.00112739 -0.00381788 0.00262422)
(-0.00118471 -0.00366867 0.00241226)
(-0.00110911 -0.00347275 0.00250197)
(-0.0011787 -0.00392625 0.00257987)
(-0.00124096 -0.00384947 0.00245532)
(0.0031224 -0.0207562 0.0147626)
(0.0029659 -0.0191669 0.0124919)
(0.00319598 -0.018252 0.0138)
(0.00273586 -0.0192527 0.0129457)
(0.00306818 -0.018814 0.0125192)
(0.00257196 -0.0192993 0.0135352)
(-0.00249437 -0.0257731 0.00983302)
(-0.0037474 -0.0255119 0.0105422)
(-0.00406531 -0.0257301 0.0108359)
(-0.00301054 -0.0241679 0.00956844)
(-0.00273233 -0.0243741 0.00996576)
(-0.00319073 -0.0275389 0.0110557)
(-0.00932682 -0.02877 0.013224)
(-0.0092936 -0.027511 0.0138521)
(-0.009021 -0.026035 0.0134435)
(-0.0104456 -0.0288607 0.0147607)
(-0.00943251 -0.027087 0.0131025)
(-0.00938353 -0.0273014 0.0138644)
(-0.0126694 -0.0235589 0.014158)
(-0.0168374 -0.0250932 0.0170895)
(-0.0181437 -0.0271068 0.0178342)
(-0.0150538 -0.0271549 0.0165588)
(-0.0177405 -0.0282178 0.0184047)
(-0.0143002 -0.0258093 0.0158818)
(-0.0134378 -0.0268045 0.0151)
(-0.0133601 -0.0253329 0.0141492)
(-0.000380586 -0.015773 0.00843367)
(-0.00114253 -0.016801 0.00909479)
(-0.00152499 -0.0159054 0.00839339)
(2.66788e-05 -0.016973 0.00887016)
(-0.00151348 -0.0147359 0.00792742)
(-0.00183101 -0.0151223 0.00825687)
(-0.00459026 -0.0132777 0.00817833)
(-0.0048545 -0.0110968 0.00763841)
(-0.0050493 -0.01052 0.00788808)
(-0.00455733 -0.0133725 0.00810379)
(-0.00401926 -0.0115938 0.00748846)
(-0.00387276 -0.0108517 0.00710346)
(-0.0038272 -0.00796328 0.00660993)
(-0.00335684 -0.00709956 0.00650311)
(-0.00388664 -0.00777098 0.00712373)
(-0.00399912 -0.00849669 0.00781029)
(-0.00404833 -0.00803876 0.00673814)
(-0.00365437 -0.00710061 0.00711051)
(-0.00463936 -0.0084405 0.00700058)
(-0.00540582 -0.010524 0.00758266)
(-0.00444214 -0.00827697 0.00704044)
(-0.00493762 -0.0104706 0.00730393)
(-0.00459075 -0.00981542 0.00733243)
(-0.0052554 -0.0093289 0.00731808)
(-0.00573336 -0.0123725 0.00798212)
(-0.00533211 -0.0137742 0.00808165)
(-0.00566953 -0.0133308 0.00784573)
(-0.00553091 -0.012514 0.00782544)
(-0.00610642 -0.0140522 0.00893493)
(-0.00503978 -0.0138587 0.00783934)
(-0.0014109 -0.0165912 0.00882484)
(-0.00126184 -0.0186434 0.0101428)
(-0.000748573 -0.0174968 0.0093326)
(-0.00149403 -0.0169546 0.00902131)
(-0.000307451 -0.0185112 0.00984025)
(-0.00227095 -0.0172643 0.00937908)
(-0.00165715 -0.0137057 0.00800983)
(-0.00211246 -0.0131996 0.00830509)
(0.00123466 -0.0185196 0.0103537)
(0.00266848 -0.0193307 0.0116338)
(0.00224273 -0.0198192 0.0117773)
(0.000647128 -0.0193738 0.010675)
(0.00241303 -0.0193245 0.0110923)
(0.0016467 -0.0190527 0.0104795)
(-0.0058529 -0.0255346 0.0117515)
(-0.00440454 -0.0244704 0.0110089)
(-0.00626676 -0.026093 0.0122638)
(-0.00485575 -0.0244465 0.0113882)
(-0.00474134 -0.02421 0.0108159)
(-0.00330063 -0.0229552 0.0102576)
(-0.00997026 -0.0285283 0.0145313)
(-0.00954787 -0.0262053 0.0138251)
(-0.00803609 -0.0277235 0.0129206)
(-0.00641318 -0.0245283 0.0111257)
(-0.00969764 -0.0275931 0.013783)
(-0.00726405 -0.0274199 0.0123753)
(-0.00606366 -0.0200881 0.0103383)
(-0.00513343 -0.0179939 0.00930802)
(-0.00476162 -0.0200187 0.00987765)
(-0.00468481 -0.0203083 0.0102177)
(-0.00543664 -0.0181157 0.00952112)
(-0.00445226 -0.0177827 0.0093024)
(-0.0235999 -0.0190768 0.00641793)
(-0.0212253 -0.0145888 0.00706667)
(-0.0218605 -0.0174537 0.00798288)
(-0.0217357 -0.0183407 0.00668572)
(-0.00824442 -0.00997216 0.00295232)
(-0.0115608 -0.0110027 0.00296277)
(-0.0100431 -0.00971745 0.00260069)
(-0.00718294 -0.00861732 0.00228752)
(-0.00990486 -0.0113895 0.0037997)
(-0.0026042 -0.00498613 0.00214379)
(-0.00333138 -0.00553725 0.00168986)
(-0.00220182 -0.00426992 0.00195045)
(-0.00258118 -0.00494069 0.00203143)
(-0.00236861 -0.00440156 0.001952)
(-0.00308438 -0.00538123 0.00201322)
(-0.00236673 -0.00445168 0.00187794)
(-0.00292063 -0.00506024 0.00164409)
(-0.00165151 -0.00312314 0.00196003)
(-0.00179118 -0.00334702 0.00213559)
(-0.0115882 -0.00842229 0.00717009)
(-0.0155889 -0.0105845 0.00787158)
(-0.0142517 -0.0115685 0.00854919)
(-0.0133434 -0.0097044 0.0076958)
(-0.0116846 -0.00860774 0.00735823)
(-0.0151439 -0.0114731 0.00802471)
(-0.019928 -0.0132755 0.0086023)
(-0.0161008 -0.0112311 0.00771423)
(-0.0181418 -0.0132754 0.00808322)
(-0.0161486 -0.00838929 0.00694558)
(-0.0150807 -0.00999136 0.00832989)
(-0.0147664 -0.0104757 0.00814376)
(-0.0108164 -0.028038 0.0141534)
(-0.0112097 -0.0280407 0.0143029)
(-0.0110455 -0.0276502 0.0147836)
(-0.0127416 -0.0299034 0.0152707)
(-0.0133547 -0.0297553 0.0159021)
(-0.00230198 -0.00525606 0.00271248)
(-0.00219407 -0.00456698 0.00252828)
(-0.00215637 -0.00490215 0.00260644)
(-0.00270872 -0.00526968 0.00249558)
(-0.00259115 -0.00534534 0.00257127)
(-0.00520978 -0.00925264 0.00406537)
(-0.00710687 -0.0104553 0.0041571)
(-0.00796092 -0.0115937 0.00476689)
(-0.00529918 -0.0089195 0.00378311)
(-0.00690649 -0.0109074 0.00474781)
(-0.00363968 -0.00651918 0.00259251)
(-0.00472746 -0.0079395 0.00314397)
(-0.00437127 -0.00748538 0.00285776)
(-0.00351722 -0.00717135 0.00319784)
(-0.00412539 -0.00733298 0.00315118)
(-0.00311725 -0.00626442 0.00286974)
(-0.00290746 -0.00586217 0.00273507)
(-0.00324567 -0.00647131 0.00313804)
(-0.0100813 -0.0142528 0.00638374)
(-0.00846851 -0.013909 0.0064791)
(-0.0105206 -0.0162293 0.00821459)
(-0.00912825 -0.0137044 0.00631066)
(-0.0117988 -0.0162685 0.00785017)
(-0.00932968 -0.0145063 0.00720284)
(-0.0185295 -0.0356967 0.0191271)
(-0.01718 -0.0331074 0.0184263)
(-0.0177388 -0.0347009 0.0201961)
(-0.0179026 -0.0342936 0.0205128)
(-0.01966 -0.0342538 0.0218235)
(-0.0170881 -0.0313694 0.0185587)
(-0.0177746 -0.0345657 0.01907)
(-0.0166808 -0.0321234 0.018343)
(-0.0172685 -0.0329175 0.0187297)
(-0.0174094 -0.0344296 0.0176587)
(-0.0171768 -0.0336731 0.0183973)
(-0.0180425 -0.0334682 0.0197796)
(-0.0156674 -0.0333273 0.0183405)
(-0.0140607 -0.030905 0.0168564)
(-0.0135624 -0.0313943 0.017013)
(-0.0149177 -0.0330404 0.0177756)
(-0.0148998 -0.0339511 0.0184952)
(-0.0144366 -0.0320508 0.018369)
(-0.0093202 -0.0282376 0.0174744)
(-0.00767314 -0.0263496 0.0171196)
(-0.00883013 -0.0274642 0.0171764)
(-0.00956166 -0.028373 0.0176172)
(-0.00900846 -0.0284896 0.0165993)
(-0.00978599 -0.0285659 0.0175623)
(-0.0197346 -0.0269084 0.00879245)
(-0.0193646 -0.0279733 0.00894447)
(-0.0197293 -0.0304864 0.00982233)
(-0.0200817 -0.0282226 0.00791381)
(-0.0232689 -0.0281527 0.00742847)
(-0.0217475 -0.0326977 0.0108712)
(-0.0209717 -0.0271324 0.00740991)
(-0.0174318 -0.0280358 0.00876633)
(-0.0232572 -0.0222989 0.00634111)
(-0.0223112 -0.0253216 0.00706204)
(-0.0211296 -0.0236153 0.0069458)
(-0.0232428 -0.0250149 0.00671836)
(-0.0211869 -0.0221943 0.00700893)
(-0.0204319 -0.0325807 0.0097165)
(-0.0198561 -0.0322382 0.0101164)
(-0.0194957 -0.0332338 0.0113207)
(-0.019131 -0.0342302 0.0121151)
(-0.0199882 -0.0343798 0.0111576)
(-0.0167835 -0.0230168 0.0092183)
(-0.0169586 -0.0260048 0.0106157)
(-0.0163924 -0.0269378 0.0115582)
(-0.0158248 -0.0218593 0.00905774)
(-0.016673 -0.0234283 0.00901495)
(-0.0157638 -0.0235657 0.0100866)
(-0.0121021 -0.0232128 0.0110168)
(-0.0125955 -0.0222485 0.0100535)
(-0.0128101 -0.023901 0.0107226)
(-0.0126975 -0.0255389 0.0118954)
(-0.011948 -0.0216783 0.01004)
(-0.0126598 -0.0230109 0.00982267)
(-0.0104026 -0.0267211 0.0144922)
(-0.0116634 -0.0268536 0.0130246)
(-0.0107925 -0.0261728 0.0135883)
(-0.011028 -0.024992 0.0119074)
(-0.0102971 -0.0264581 0.0136743)
(-0.0114854 -0.0267416 0.0135077)
(-0.0126797 -0.0299064 0.0151871)
(-0.0124209 -0.0282189 0.0145048)
(-0.0124672 -0.0280423 0.0135889)
(-0.0115419 -0.0283004 0.0155106)
(-0.0113927 -0.0285381 0.0162695)
(-0.0121159 -0.027607 0.0134259)
(-0.00654677 -0.0249176 0.0150707)
(-0.0063823 -0.0246402 0.0162784)
(-0.00589129 -0.0250892 0.0169017)
(-0.00608721 -0.0239598 0.0151887)
(-0.00791826 -0.0268249 0.0165273)
(-0.00759365 -0.0263964 0.016231)
(-0.0149674 -0.0197427 0.00889666)
(-0.0146465 -0.0181321 0.00877128)
(-0.0137828 -0.019869 0.00901878)
(-0.0134414 -0.0185085 0.00915089)
(-0.0142233 -0.0209038 0.00946689)
(-0.0142487 -0.017584 0.00867851)
(-0.00651188 -0.0215885 0.0118189)
(-0.00667739 -0.0202713 0.0107817)
(-0.00602659 -0.024253 0.013603)
(-0.00741309 -0.0229592 0.011919)
(-0.00618184 -0.0233666 0.0130975)
(-0.00665363 -0.023841 0.0134364)
(-0.00648309 -0.0239715 0.0138983)
(-0.00522587 -0.0233049 0.0133226)
(-0.00893171 -0.0116562 0.00802074)
(-0.0102879 -0.0143094 0.00874096)
(-0.0104168 -0.0138238 0.00893325)
(-0.0101526 -0.0123826 0.00841269)
(-0.00954407 -0.0117039 0.00828579)
(-0.0106771 -0.0138183 0.00855056)
(-0.00126918 -0.0220045 0.0146781)
(-0.00280778 -0.0230301 0.0142339)
(-0.00241825 -0.0225456 0.0152979)
(-0.00313563 -0.0217855 0.013728)
(-0.0016466 -0.0221399 0.0144213)
(-0.0035062 -0.0241442 0.0157156)
(-0.00340178 -0.021392 0.0121801)
(-0.00382873 -0.0197827 0.0109199)
(-0.00507053 -0.0221597 0.0120378)
(-0.00508953 -0.0205417 0.0107616)
(-0.00513768 -0.022108 0.0121589)
(-0.00363279 -0.0213027 0.0123345)
(-0.00396412 -0.0247971 0.0180934)
(-0.00372512 -0.0239416 0.0179007)
(-0.00404573 -0.0235162 0.018006)
(-0.00403943 -0.0233455 0.0180851)
(-0.00364625 -0.0226749 0.0166748)
(-0.003917 -0.0227419 0.0172574)
(-0.0077184 -0.0260542 0.0135487)
(-0.00640645 -0.0257575 0.0115243)
(-0.00628157 -0.0272412 0.0119412)
(-0.00548664 -0.0245072 0.0106954)
(-0.00630617 -0.0255311 0.0116848)
(-0.0057471 -0.0247794 0.0106665)
(-0.00542077 -0.0246478 0.0115789)
(-0.00674029 -0.027663 0.0133603)
(-0.00479678 -0.027319 0.0109744)
(-0.00555084 -0.0252443 0.0114121)
(-0.00509032 -0.0251998 0.0120678)
(-0.00438546 -0.0263147 0.0114143)
(-0.00454086 -0.0262012 0.0112455)
(-0.00397013 -0.023632 0.0175896)
(-0.00544184 -0.0245208 0.0166649)
(-0.00331388 -0.020998 0.0167743)
(-0.00470179 -0.0232802 0.0170199)
(-0.00383307 -0.0220011 0.0161571)
(-0.00478806 -0.0234336 0.0162449)
(-0.00167867 -0.00346572 0.00215821)
(-0.00183107 -0.00355568 0.00240628)
(-0.00173798 -0.00336249 0.00227519)
(-0.0016898 -0.00343744 0.0020985)
(-0.00154973 -0.00337142 0.00216378)
(-0.00170104 -0.00373441 0.00233907)
(-0.00175546 -0.00404294 0.00230269)
(-0.00180982 -0.00414336 0.00249596)
(-0.00161255 -0.00367084 0.00231523)
(-0.00172829 -0.00407702 0.00244163)
(-0.00167456 -0.0036841 0.00226241)
(-0.00191885 -0.00421606 0.00233681)
(-0.00182539 -0.00382717 0.00270097)
(-0.00179107 -0.00400458 0.00310265)
(-0.00204667 -0.00405558 0.00330121)
(-0.00209564 -0.00399469 0.00323347)
(-0.00156666 -0.0037064 0.00255972)
(-0.00163994 -0.00378682 0.00296854)
(-0.00599459 -0.0160307 0.00856757)
(-0.00728085 -0.0158678 0.00873693)
(-0.00710935 -0.014426 0.00858259)
(-0.00717213 -0.0162564 0.00944019)
(-0.00701199 -0.0141469 0.00842361)
(-0.00746203 -0.0161452 0.0089515)
(-0.00648365 -0.0193285 0.0102227)
(-0.00677545 -0.0209436 0.0111522)
(-0.0066411 -0.0185907 0.00933712)
(-0.00678571 -0.0179327 0.00962733)
(-0.00703061 -0.0181289 0.0093815)
(-0.00733624 -0.0173818 0.00921032)
(-0.0120368 -0.0149255 0.00899387)
(-0.0120733 -0.0155061 0.00860408)
(-0.0126924 -0.013033 0.00828732)
(-0.0117903 -0.0120877 0.008114)
(-0.0108698 -0.0119853 0.00791491)
(-0.0137815 -0.0152134 0.0088084)
(-0.00046298 -0.0207231 0.018292)
(-0.00176158 -0.0214897 0.0173507)
(5.35312e-05 -0.0197274 0.0173317)
(-0.00213066 -0.0219731 0.016571)
(-0.00120423 -0.0196064 0.0148784)
(-0.00168627 -0.0204543 0.0138737)
(-0.00239285 -0.0227768 0.0134533)
(-0.00206973 -0.0198931 0.0131977)
(-0.000711645 -0.0191809 0.0147056)
(-0.0007591 -0.0202578 0.0124086)
(-0.000640202 -0.0218862 0.0103349)
(0.000132802 -0.0214434 0.00914539)
(-0.000149645 -0.0190291 0.00903954)
(-0.004289 -0.0224755 0.0136901)
(-0.00403698 -0.023416 0.0120819)
(-0.00280443 -0.0226137 0.0113878)
(-0.00300105 -0.0230564 0.0126431)
(-0.00393815 -0.0234241 0.0150865)
(-0.00278786 -0.020754 0.0125042)
(-0.00423685 -0.0254574 0.0125725)
(0.00276838 -0.0226773 0.00730025)
(0.0014266 -0.0239219 0.00847339)
(0.00137597 -0.0225332 0.00800258)
(0.00314279 -0.0223076 0.00706632)
(-0.00230682 -0.00450185 0.00464792)
(-0.00167453 -0.00397771 0.00388135)
(-0.00169165 -0.00401381 0.00406922)
(-0.00209522 -0.0044855 0.00474142)
(-0.00242875 -0.00464224 0.00505989)
(-0.00197325 -0.00413605 0.00413537)
(-0.00129991 -0.00354377 0.00236642)
(-0.00161225 -0.00399043 0.00274018)
(-0.00136274 -0.00340913 0.00238596)
(-0.00125485 -0.00351322 0.0024376)
(-0.00167615 -0.0042117 0.00250383)
(-0.00145811 -0.0038217 0.00258858)
(-0.0013261 -0.00327799 0.00253623)
(-0.00143043 -0.00327013 0.00327091)
(-0.00117361 -0.00327184 0.00243104)
(-0.00140551 -0.00318642 0.002766)
(-0.0013792 -0.00362831 0.00320944)
(-0.0011846 -0.00328263 0.00284131)
(-0.0015019 -0.00770602 0.00492367)
(-0.00141033 -0.00633996 0.00390483)
(-0.00132766 -0.00620454 0.00406182)
(-0.00150326 -0.00808903 0.00541851)
(-0.000831539 -0.00528547 0.00381405)
(-0.00133225 -0.00685767 0.00466712)
(-0.000993866 -0.0041894 0.00294995)
(-0.00123232 -0.00518161 0.00338588)
(-0.000811613 -0.00384801 0.00286185)
(-0.000869468 -0.00478888 0.00327358)
(-0.00086115 -0.00384895 0.00286319)
(-0.000878862 -0.00458729 0.00324717)
(-0.00449073 -0.0120076 0.00893883)
(-0.00424949 -0.00938196 0.00810835)
(-0.00459671 -0.010624 0.00844382)
(-0.00375692 -0.00935306 0.00774912)
(-0.00389199 -0.0124448 0.00854156)
(-0.00378229 -0.0110829 0.00839838)
(-0.000256608 -0.00414884 0.00338193)
(-0.000359362 -0.00407713 0.00328219)
(-0.000335765 -0.00365263 0.00376265)
(-0.000275852 -0.00377221 0.00359858)
(-0.000364664 -0.00375597 0.00333496)
(-0.00022728 -0.00394705 0.00343129)
(-0.000636441 -0.00386932 0.00445296)
(-0.000923746 -0.00401123 0.00435735)
(-0.000446655 -0.00322888 0.00356488)
(-0.000577901 -0.00343265 0.00363342)
(-0.000827015 -0.00371925 0.00469394)
(0.00553803 -0.0198327 0.00898018)
(0.00458607 -0.0203924 0.00886972)
(0.00577053 -0.0192583 0.00935088)
(0.00531401 -0.0178296 0.00947538)
(0.00440597 -0.0176538 0.0091071)
(0.00444188 -0.017843 0.00863104)
(-0.000399795 -0.0082775 0.00587137)
(0.0001278 -0.00862191 0.00634653)
(0.000861806 -0.01048 0.00757198)
(-0.000222924 -0.00891617 0.00650227)
(0.000644606 -0.0103791 0.00754619)
(0.000139671 -0.0101337 0.00716875)
(0.00201798 -0.0112846 0.00817493)
(0.00199307 -0.0130541 0.00867126)
(0.00277537 -0.0130874 0.00874019)
(0.00166566 -0.0121016 0.00845497)
(0.00129751 -0.0111092 0.00807002)
(0.00469359 -0.0161712 0.00939239)
(0.00368612 -0.0146571 0.00953666)
(0.00494618 -0.0143476 0.00955485)
(0.00559116 -0.0160438 0.00898978)
(0.00490311 -0.0164462 0.00991701)
(0.0041096 -0.0148271 0.009231)
(0.000993265 -0.00700449 0.00620597)
(0.000938404 -0.00612612 0.00559895)
(0.0012038 -0.00770863 0.00662708)
(-0.00185868 -0.00741436 0.00822283)
(-0.00165537 -0.00569937 0.00741062)
(-0.00224041 -0.00784332 0.00786501)
(-0.0024072 -0.00775114 0.0078813)
(-0.00235019 -0.00678738 0.0075677)
(-0.00160151 -0.00622266 0.00687617)
(8.60132e-06 -0.00432921 0.00377491)
(4.93598e-05 -0.00417132 0.0038097)
(0.000205809 -0.00522715 0.00434577)
(-0.00562413 -0.0116655 0.00543833)
(-0.00494292 -0.0101009 0.00448079)
(-0.00615644 -0.0110223 0.00500143)
(-0.00506659 -0.0102317 0.00473942)
(-0.00466147 -0.00923827 0.0042328)
(-0.00613254 -0.0117467 0.00544138)
(-0.00163381 -0.00491361 0.00299037)
(-0.00164911 -0.00513965 0.00320309)
(-0.00133605 -0.0040955 0.00259805)
(-0.00136141 -0.00449761 0.00271955)
(-0.00144109 -0.00492255 0.00294688)
(-0.00148767 -0.00425001 0.00266425)
(-0.00296862 -0.00698633 0.00347995)
(-0.00321217 -0.00757912 0.00384356)
(-0.00233803 -0.00631124 0.00346919)
(-0.00327465 -0.00803647 0.00419244)
(-0.00345327 -0.00845418 0.00430645)
(-0.00267285 -0.00630393 0.00315262)
(-0.00300958 -0.0102856 0.00587891)
(-0.00246271 -0.0100423 0.00586027)
(-0.00384162 -0.0113581 0.00618249)
(-0.00316337 -0.0117801 0.00650615)
(-0.00272698 -0.0094898 0.00546781)
(-0.00253417 -0.0259256 0.0106256)
(-0.00201086 -0.0239041 0.0105756)
(-0.000564974 -0.023331 0.0100054)
(-0.00159533 -0.0251118 0.010204)
(-0.00191865 -0.0224031 0.00945554)
(-0.00122476 -0.024677 0.0105072)
(0.00261066 -0.0207477 0.00832878)
(0.002838 -0.0190129 0.00918155)
(0.00199921 -0.0220444 0.00911237)
(0.00302605 -0.0207072 0.00888404)
(0.00220435 -0.0211653 0.00968571)
(0.00173091 -0.0212832 0.00930707)
(-0.0017759 -0.0162458 0.00880223)
(-0.00290071 -0.0178259 0.00937993)
(-0.00150308 -0.018582 0.0094296)
(-0.00249504 -0.0182019 0.00939658)
(-0.00121789 -0.0169102 0.00875318)
(0.00329995 -0.0155424 0.00915328)
(0.00210336 -0.0156892 0.00944063)
(0.00193032 -0.0182745 0.00992335)
(0.00382203 -0.0164949 0.00926292)
(0.00235081 -0.0164595 0.00933887)
(0.00344121 -0.0176029 0.00937156)
(-0.00161039 -0.00400259 0.00502239)
(-0.00269546 -0.0057929 0.00618456)
(-0.00235109 -0.00497828 0.00572506)
(-0.00264373 -0.00570958 0.0061559)
(-0.00211633 -0.00517543 0.00593588)
(-0.00174691 -0.00454714 0.0056899)
(-0.0037821 -0.00738917 0.00673632)
(-0.00323807 -0.00611807 0.00630488)
(-0.00403922 -0.00712491 0.00691903)
(-0.00310315 -0.00570904 0.00580263)
(-0.00282868 -0.00531747 0.00580943)
(-0.00273888 -0.00527377 0.00562663)
(-0.00349019 -0.0059682 0.00615777)
(0.00480043 -0.0196536 0.0167044)
(0.00407403 -0.0184514 0.0163038)
(0.00459055 -0.0192304 0.0150599)
(0.00381222 -0.0197305 0.0161067)
(0.00525921 -0.0177823 0.0147937)
(0.00354675 -0.0197718 0.0164675)
(0.00133158 -0.0192737 0.0177324)
(0.00205338 -0.0204371 0.0173439)
(0.00120599 -0.0204634 0.0176092)
(0.000680538 -0.0212809 0.018447)
(0.00267541 -0.0200348 0.0190694)
(-0.00969959 -0.0280414 0.016794)
(-0.0078876 -0.025232 0.0149096)
(-0.00921293 -0.0277708 0.0162537)
(-0.00857054 -0.027132 0.0161908)
(-0.00813539 -0.0257663 0.0159242)
(-0.00938805 -0.0274197 0.0174235)
(-0.0163063 -0.0334543 0.0155294)
(-0.0150894 -0.0315812 0.0154293)
(-0.0131026 -0.0287216 0.0135122)
(-0.0179002 -0.0345329 0.0151891)
(-0.0162492 -0.0333164 0.0142886)
(-0.0162519 -0.0313672 0.0139657)
(-0.0140323 -0.0315435 0.0159056)
(-0.0152482 -0.0333202 0.0169271)
(-0.0141307 -0.0325144 0.0170718)
(-0.0134522 -0.0308698 0.0154891)
(-0.0144156 -0.0320951 0.016626)
(-0.0137531 -0.0309087 0.0154583)
(-0.014867 -0.019855 0.0116945)
(-0.014762 -0.0179625 0.00960372)
(-0.0135985 -0.0180538 0.0106572)
(-0.0137462 -0.0190635 0.00981252)
(-0.0153608 -0.0206842 0.0117631)
(-0.0130295 -0.0186787 0.0100728)
(-0.0208137 -0.0196938 0.0137666)
(-0.0175032 -0.0200707 0.0128106)
(-0.017433 -0.0171959 0.0102163)
(-0.0184096 -0.0214544 0.0130096)
(-0.0165358 -0.0175836 0.0102058)
(-0.0178437 -0.0166089 0.010931)
(-0.000785652 -0.0203897 0.0112543)
(-0.000457392 -0.0193213 0.0109197)
(0.000956564 -0.0198952 0.0116967)
(0.00108583 -0.0204492 0.012573)
(0.000978796 -0.0197362 0.0111642)
(0.000256172 -0.021131 0.0127252)
(-0.00332293 -0.0184152 0.00967062)
(-0.00301604 -0.0181898 0.00956327)
(-0.00418032 -0.0181643 0.00991511)
(-0.0045909 -0.0163079 0.00825258)
(-0.00520683 -0.0185294 0.00974504)
(-0.00366159 -0.016405 0.00878183)
(-0.00507956 -0.0183302 0.00944694)
(-0.00401881 -0.0192972 0.0104262)
(-0.00290943 -0.01959 0.0105839)
(-0.00388072 -0.0180669 0.00961)
(-0.00320479 -0.0208361 0.0112956)
(-0.00138999 -0.0215039 0.012973)
(-0.00288854 -0.0224232 0.0129119)
(-0.00360929 -0.020374 0.0111773)
(-0.00300187 -0.0208202 0.011788)
(-0.00130668 -0.0200898 0.0111969)
(-0.00120972 -0.0208292 0.0120057)
(0.000170226 -0.0194988 0.0121555)
(-0.00220746 -0.0180431 0.00964383)
(-0.00124705 -0.0190094 0.0103268)
(-0.00275657 -0.016051 0.00827696)
(-0.00347948 -0.0166029 0.00871965)
(-0.00318422 -0.015221 0.00824443)
(-0.00180346 -0.00374805 0.00200668)
(-0.0153597 -0.0140706 0.0066844)
(-0.0164182 -0.0152588 0.00844454)
(-0.0160378 -0.0154228 0.00841259)
(-0.0193916 -0.0238162 0.0158659)
(-0.0191482 -0.023827 0.0153578)
(-0.0199582 -0.024549 0.0178946)
(-0.0199652 -0.0237234 0.0172236)
(-0.0156825 -0.0209358 0.0125698)
(-0.0163016 -0.0179955 0.00982941)
(-0.0134507 -0.0149826 0.00704712)
(-0.0156447 -0.0157567 0.00821937)
(-0.014037 -0.0156338 0.00800246)
(-0.0128068 -0.013564 0.00613564)
(-0.0142031 -0.0139527 0.00631583)
(-0.0143609 -0.0144093 0.00671716)
(-0.0169595 -0.0219664 0.0141954)
(-0.0176726 -0.022856 0.0149723)
(-0.0143693 -0.0233039 0.0138534)
(-0.0144337 -0.0208758 0.0129442)
(-0.0152043 -0.0252166 0.0153895)
(-0.0202686 -0.0259836 0.0178574)
(-0.0184126 -0.0241276 0.0164137)
(-0.0172193 -0.0343143 0.0166466)
(-0.017856 -0.0352017 0.0167952)
(-0.01827 -0.0348486 0.0151546)
(-0.0167851 -0.0334129 0.0175861)
(-0.0144501 -0.0313874 0.016938)
(-0.016327 -0.0335942 0.0181349)
(-0.0176241 -0.0348043 0.0199562)
(-0.0164812 -0.033551 0.020183)
(-0.0148763 -0.0321091 0.0167775)
(-0.0140773 -0.0312371 0.0173688)
(-0.0186783 -0.0321141 0.0109677)
(-0.0180939 -0.0321508 0.0125346)
(-0.0189296 -0.0349665 0.0144009)
(-0.0179733 -0.0333441 0.0135043)
(-0.0179894 -0.0331481 0.0130283)
(-0.0176206 -0.0344869 0.0148347)
(-0.0170481 -0.0323823 0.01415)
(-0.0166825 -0.0320766 0.0134893)
(-0.0147633 -0.0312401 0.0151356)
(-0.0135056 -0.0301732 0.0148162)
(-0.00660139 -0.00777778 0.00630907)
(-0.00742771 -0.00790505 0.00700093)
(-0.00656652 -0.00749444 0.00665326)
(-0.00644486 -0.00784196 0.00666673)
(-0.00611736 -0.0083132 0.00691663)
(-0.00527298 -0.00668922 0.00623434)
(-0.0051971 -0.00661773 0.00559481)
(-0.00456135 -0.00646099 0.00545347)
(-0.00522425 -0.00649101 0.00560563)
(-0.00602955 -0.00684862 0.00599689)
(-0.00366176 -0.00562501 0.00488518)
(-0.00394255 -0.00553688 0.0049631)
(0.00167945 -0.0194324 0.0171729)
(0.00354778 -0.0207839 0.0183311)
(0.00280886 -0.0204112 0.0176693)
(0.00208231 -0.0140591 0.00895026)
(0.00108305 -0.0161375 0.00893121)
(0.00128888 -0.0162716 0.00932886)
(0.000267555 -0.014467 0.00862449)
(-0.00123378 -0.0149809 0.00876157)
(0.000292948 -0.0157716 0.0090373)
(0.00185377 -0.0176091 0.0091593)
(-0.000547293 -0.0177529 0.00959823)
(-0.0013095 -0.0157122 0.00880661)
(-0.00174894 -0.0182413 0.00990613)
(0.0023159 -0.0179993 0.0090271)
(0.00167115 -0.0196953 0.00964292)
(0.00365999 -0.017758 0.00884856)
(0.00099735 -0.0230732 0.00886384)
(-0.000446645 -0.0246732 0.00970733)
(0.00104101 -0.0230919 0.00939518)
(-0.00257981 -0.0264419 0.0111644)
(-0.00203436 -0.00805747 0.00483662)
(-0.00207571 -0.00831825 0.00486418)
(-0.00216739 -0.00555431 0.00303437)
(-0.00183264 -0.00485069 0.00291175)
(-0.00191851 -0.0048265 0.00267653)
(-0.00167584 -0.0044917 0.00280256)
(-0.00442378 -0.0101516 0.00504014)
(-0.00394145 -0.0102062 0.00561866)
(-0.00365679 -0.0113425 0.00602755)
(-0.00422125 -0.0125161 0.00667322)
(-0.00457777 -0.0113212 0.00582608)
(-0.00569245 -0.0115692 0.00584663)
(-0.00638614 -0.0129272 0.00617428)
(0.000324138 -0.00514305 0.00435572)
(-8.53459e-05 -0.00520478 0.00406253)
(2.57135e-05 -0.00480693 0.00414904)
(7.20077e-05 -0.00399138 0.00377182)
(-8.02384e-05 -0.00384944 0.00361395)
(-0.000113449 -0.00395247 0.00369642)
(-0.000143627 -0.00370369 0.0038617)
(4.9453e-05 -0.0036035 0.00387521)
(-0.00038177 -0.00379214 0.00438875)
(-0.00039059 -0.00384063 0.00509289)
(-0.00102768 -0.00499321 0.00597086)
(-0.000843471 -0.00497413 0.00594869)
(-0.00151828 -0.00570551 0.00681904)
(0.00354778 -0.0146329 0.0092247)
(0.00320269 -0.0130785 0.00900574)
(0.000312573 -0.00736873 0.00577223)
(8.55351e-06 -0.00635252 0.00504453)
(0.00229995 -0.00982576 0.00808544)
(-0.00122088 -0.0112106 0.00721435)
(-0.00115828 -0.0137967 0.00822417)
(-0.000581001 -0.0140891 0.00871975)
(-0.00143998 -0.0111043 0.00669446)
(0.00104417 -0.0120317 0.00831025)
(0.000975474 -0.0104564 0.00792885)
(0.00363641 -0.0165383 0.00911338)
(-0.000124097 -0.00394979 0.00345359)
(-0.000247363 -0.00513732 0.00385376)
(-0.00032366 -0.00910775 0.00657128)
(-0.000424109 -0.00832081 0.0060418)
(-0.000682588 -0.00737275 0.00528156)
(-0.000480183 -0.0040875 0.00325965)
(-0.000475546 -0.00350454 0.0030997)
(-0.000385986 -0.00363475 0.0034515)
(-0.000419575 -0.00359779 0.00314932)
(-0.00059693 -0.00350398 0.00324901)
(0.00141674 -0.00906594 0.00724506)
(0.000688102 -0.00893518 0.00693485)
(0.00111703 -0.00906146 0.00722944)
(0.000559297 -0.00718714 0.00583208)
(-0.00179332 -0.00606801 0.00699277)
(-0.00156556 -0.00508963 0.00628679)
(-0.0019926 -0.00584153 0.0069434)
(-0.00153851 -0.00504164 0.0060209)
(-0.00205742 -0.00590767 0.00700116)
(-0.00133264 -0.00477422 0.00576419)
(-0.00251095 -0.00674342 0.00700077)
(-0.00262647 -0.00652316 0.0073605)
(-0.00259849 -0.00956126 0.00771249)
(-0.00280442 -0.00879657 0.00788816)
(-0.00231333 -0.00977263 0.00569612)
(-0.00143758 -0.0104567 0.00652541)
(-0.00102984 -0.00570476 0.0038366)
(-0.00108529 -0.00608411 0.00404892)
(-0.0005416 -0.00358063 0.00294861)
(-0.000580196 -0.00411349 0.00316829)
(-0.00073195 -0.00458124 0.00356892)
(-0.000727561 -0.00360025 0.00290459)
(-0.0010076 -0.0092122 0.00622627)
(-0.00105165 -0.00886923 0.00599735)
(-0.000863452 -0.00698395 0.00473042)
(-0.00135707 -0.00981034 0.00639248)
(-0.00154371 -0.0081991 0.00537755)
(-0.00204928 -0.00976034 0.00606697)
(-0.00129393 -0.00877848 0.00581323)
(-0.0018774 -0.00707552 0.00433231)
(-0.00157867 -0.00556598 0.00318805)
(-0.00153092 -0.00632944 0.00395529)
(-0.00156532 -0.00553361 0.00331077)
(-0.001126 -0.00476633 0.0032767)
(-0.00131723 -0.00535812 0.0036354)
(-0.00171666 -0.00617663 0.00371079)
(-0.000963473 -0.00348536 0.00289)
(-0.00111286 -0.00447381 0.00305786)
(-0.00091533 -0.00373673 0.00304768)
(-0.000913889 -0.00377101 0.00290455)
(-0.000879872 -0.00366284 0.00296089)
(-0.00177337 -0.00482422 0.00294615)
(-0.00160757 -0.00452002 0.00285231)
(-0.00168443 -0.00429118 0.00254706)
(-0.00163993 -0.00442976 0.00265836)
(-0.00144247 -0.00355013 0.00265596)
(-0.000993554 -0.00335178 0.00311176)
(-0.00218319 -0.00483896 0.00530824)
(-0.00126364 -0.00363888 0.0033776)
(-0.00126455 -0.00366226 0.00322647)
(-0.00143559 -0.00378231 0.00342486)
(-0.00149118 -0.00384452 0.0038516)
(-0.00275323 -0.00516508 0.00534662)
(-0.00217691 -0.00459279 0.00482959)
(-0.00172401 -0.0039118 0.00364678)
(0.00247942 -0.0226981 0.00863252)
(0.00216773 -0.0220724 0.00785363)
(-0.000398372 -0.0194911 0.0105207)
(-0.00258135 -0.0245611 0.0106372)
(-0.000638171 -0.0243767 0.00941524)
(0.00161538 -0.0233886 0.00843998)
(0.00101219 -0.0239467 0.00784559)
(0.00123981 -0.0235849 0.00748025)
(0.00090004 -0.021706 0.0076349)
(-8.79513e-05 -0.0247412 0.0094048)
(-0.00159683 -0.0238419 0.0086184)
(-0.00146721 -0.026355 0.00970144)
(-0.000469607 -0.0239964 0.00942928)
(0.000678735 -0.0222347 0.00832071)