/*--------------------------------*- C++ -*----------------------------------*\
| =========                 |                                                 |
| \\      /  F ield         | OpenFOAM: The Open Source CFD Toolbox           |
|  \\    /   O peration     | Version:  v1612+                                |
|   \\  /    A nd           | Web:      www.OpenFOAM.com                      |
|    \\/     M anipulation  |                                                 |
\*---------------------------------------------------------------------------*/
FoamFile
{
    version     2.0;
    format      ascii;
    class       volScalarField;
    location    "100";
    object      p;
}
// * * * * * * * * * * * * * * * * * * * * * * * * * * * * * * * * * * * * * //

dimensions      [0 2 -2 0 0 0 0];

internalField   nonuniform List<scalar> 
16928
(
3.40836
3.37911
3.43549
3.43523
3.43326
3.43515
3.43719
3.43164
3.4341
3.4402
3.39206
3.39231
3.38781
3.38652
3.38605
3.39452
3.38404
3.38028
3.38314
3.38645
3.39219
3.38914
3.38999
3.38819
3.38808
3.38447
3.38809
3.39397
3.39134
3.38502
3.38885
3.38995
3.38949
3.39052
3.39255
3.39384
3.38971
3.38631
3.38849
3.39181
3.38909
3.38328
3.37289
3.37373
3.37545
3.37237
3.37443
3.37475
3.37582
3.37567
3.37644
3.37842
3.38333
3.37513
3.37783
3.37379
3.3819
3.42569
3.42321
3.42187
3.4296
3.4301
3.42671
3.42868
3.42597
3.42057
3.42659
3.426
3.42719
3.42191
3.42325
3.42487
3.42715
3.42656
3.42541
3.41783
3.42149
3.40064
3.41374
3.4218
3.41494
3.41448
3.42123
3.42319
3.41853
3.411
3.38562
3.41648
3.41404
3.41825
3.41415
3.41728
3.41945
3.41809
3.41675
3.41606
3.41135
3.41393
3.41361
3.41082
3.40254
3.39675
3.3999
3.39809
3.40586
3.4091
3.41181
3.41303
3.40651
3.41358
3.40281
3.4019
3.41103
3.41022
3.39666
3.40115
3.38327
3.37907
3.37675
3.37749
3.37852
3.38041
3.37935
3.37651
3.37251
3.37943
3.37604
3.38065
3.37853
3.38105
3.37903
3.37814
3.39329
3.39236
3.39674
3.38464
3.39743
3.38277
3.3937
3.38979
3.39576
3.38774
3.38782
3.39419
3.38684
3.36761
3.36189
3.36064
3.3666
3.36505
3.36963
3.43118
3.43257
3.43086
3.43724
3.43003
3.43464
3.42678
3.42969
3.43051
3.43012
3.43379
3.42919
3.43451
3.43207
3.39912
3.4007
3.39718
3.38037
3.39386
3.40175
3.39522
3.39395
3.39444
3.3947
3.39436
3.39243
3.39172
3.39343
3.38963
3.39812
3.39419
3.38603
3.38324
3.3846
3.38768
3.38487
3.39174
3.38815
3.38392
3.38833
3.38788
3.39026
3.38526
3.38769
3.38629
3.37825
3.37802
3.38469
3.39188
3.38313
3.38778
3.40198
3.40289
3.4068
3.41012
3.40902
3.40471
3.4134
3.40379
3.40523
3.40936
3.406
3.40564
3.39838
3.40002
3.40347
3.40618
3.40869
3.40268
3.40602
3.4003
3.40145
3.39492
3.3933
3.39813
3.39616
3.395
3.39304
3.39542
3.40519
3.39879
3.40224
3.40456
3.39282
3.40198
3.40365
3.40295
3.40355
3.36881
3.36904
3.37441
3.37254
3.37059
3.36752
3.36913
3.37025
3.37361
3.37206
3.36902
3.36874
3.36795
3.37528
3.3699
3.36849
3.37003
3.36612
3.37582
3.37731
3.43856
3.44052
3.44275
3.43895
3.44322
3.44079
3.44229
3.43704
3.43541
3.43851
3.43664
3.43356
3.43817
3.43727
3.43671
3.4403
3.43648
3.43263
3.43437
3.43128
3.43781
3.43169
3.42828
3.42637
3.43657
3.43481
3.43488
3.42498
3.43413
3.43625
3.43597
3.43036
3.43233
3.43399
3.36951
3.3673
3.36511
3.36975
3.3658
3.36641
3.36872
3.4095
3.40498
3.39969
3.40163
3.40033
3.40955
3.40539
3.40574
3.40599
3.3728
3.37415
3.37247
3.37622
3.37371
3.37636
3.37188
3.38067
3.37426
3.37565
3.378
3.37753
3.37616
3.37556
3.37261
3.37322
3.38063
3.38143
3.37628
3.37205
3.39711
3.40546
3.4
3.39698
3.39808
3.39905
3.39921
3.4017
3.40187
3.40441
3.39812
3.39572
3.39899
3.39844
3.40172
3.40307
3.40053
3.39628
3.39906
3.39122
3.39613
3.39259
3.39271
3.392
3.38907
3.39112
3.38749
3.39565
3.39612
3.39681
3.39081
3.392
3.39177
3.39245
3.38825
3.38962
3.39214
3.3879
3.41372
3.41303
3.41985
3.41545
3.40984
3.41514
3.40939
3.41955
3.41359
3.41713
3.42279
3.41184
3.43048
3.41835
3.41934
3.41967
3.36783
3.37374
3.36619
3.36979
3.3675
3.37096
3.43172
3.43144
3.41797
3.42751
3.42683
3.42597
3.43123
3.42915
3.42555
3.42488
3.41832
3.4209
3.42877
3.42415
3.42583
3.42618
3.43025
3.42935
3.42733
3.43086
3.42182
3.42304
3.43209
3.42757
3.37368
3.37453
3.37108
3.37404
3.37647
3.38112
3.37399
3.37899
3.37171
3.3697
3.37919
3.37331
3.3721
3.37558
3.37436
3.37494
3.37178
3.37471
3.43209
3.42963
3.42784
3.43173
3.42948
3.42484
3.42841
3.4337
3.42642
3.4291
3.42778
3.42757
3.43002
3.42343
3.43146
3.42613
3.42368
3.42648
3.42628
3.42309
3.42408
3.42565
3.43936
3.43556
3.43836
3.44138
3.44107
3.43871
3.43555
3.43829
3.43327
3.43707
3.43762
3.44222
3.43974
3.438
3.43444
3.43803
3.4327
3.42961
3.43235
3.43239
3.42865
3.44035
3.43398
3.43615
3.42983
3.43444
3.44348
3.43942
3.40652
3.41294
3.40504
3.40753
3.40349
3.40856
3.40383
3.39666
3.40517
3.40452
3.40848
3.41016
3.40549
3.40549
3.41203
3.4122
3.36822
3.36973
3.3721
3.37229
3.37444
3.37325
3.37048
3.37
3.37514
3.37547
3.3699
3.37325
3.37348
3.37264
3.37435
3.37583
3.41053
3.40583
3.41003
3.40733
3.40636
3.40921
3.40853
3.40874
3.40995
3.41222
3.41221
3.40979
3.41491
3.4085
3.425
3.42088
3.42441
3.42569
3.42676
3.42315
3.42323
3.42216
3.42876
3.42397
3.42485
3.42827
3.42322
3.42849
3.42698
3.4243
3.42895
3.4278
3.42907
3.4158
3.42191
3.41895
3.42022
3.4206
3.42175
3.41769
3.41726
3.41943
3.41643
3.42109
3.41864
3.4212
3.41989
3.42091
3.3763
3.37756
3.38293
3.37315
3.3796
3.37896
3.37328
3.37092
3.37601
3.36922
3.3737
3.37273
3.37277
3.36836
3.37021
3.36965
3.37375
3.41621
3.41711
3.42062
3.42019
3.4198
3.42067
3.41337
3.41362
3.42223
3.41687
3.41464
3.41357
3.41643
3.41844
3.41366
3.42057
3.42365
3.42331
3.42302
3.42291
3.42808
3.4243
3.41622
3.41885
3.42432
3.42528
3.42328
3.42294
3.42109
3.42418
3.42614
3.41416
3.41361
3.42214
3.41898
3.41742
3.4217
3.41762
3.41615
3.41944
3.4217
3.42123
3.42137
3.41999
3.41465
3.4105
3.41782
3.42258
3.4218
3.42118
3.41563
3.4214
3.4201
3.42185
3.4229
3.42637
3.42544
3.42476
3.42334
3.42122
3.42188
3.41888
3.42278
3.42136
3.42834
3.42843
3.42431
3.42527
3.42752
3.43157
3.4277
3.41088
3.41074
3.40794
3.41003
3.4018
3.40255
3.41157
3.4094
3.40818
3.41413
3.40375
3.40999
3.40214
3.39992
3.40853
3.40744
3.40537
3.40776
3.39701
3.39682
3.38953
3.39246
3.39552
3.39813
3.39827
3.38805
3.38919
3.3917
3.39143
3.38981
3.3936
3.40195
3.40329
3.39415
3.38746
3.39234
3.43643
3.43864
3.43609
3.43544
3.43749
3.43966
3.44207
3.43766
3.4364
3.44024
3.44067
3.43872
3.37959
3.38196
3.38086
3.37609
3.37625
3.37741
3.38148
3.38001
3.38198
3.3812
3.37346
3.37774
3.37883
3.37625
3.40927
3.41127
3.40719
3.41203
3.40858
3.40673
3.40104
3.41295
3.41082
3.40875
3.41534
3.41215
3.40812
3.41112
3.41097
3.4089
3.4102
3.44263
3.44357
3.43108
3.44049
3.43951
3.4398
3.43625
3.43832
3.43015
3.44121
3.44116
3.44157
3.40311
3.40322
3.40759
3.40589
3.40127
3.40685
3.40528
3.40524
3.40188
3.40032
3.39958
3.39857
3.40192
3.40886
3.40422
3.40239
3.42929
3.42938
3.43427
3.43346
3.43728
3.42866
3.42845
3.42625
3.43488
3.43498
3.43311
3.43241
3.43132
3.44175
3.43293
3.44041
3.43764
3.43671
3.43632
3.37335
3.37229
3.37394
3.37743
3.37456
3.37875
3.37331
3.37714
3.36688
3.36217
3.37343
3.3749
3.36901
3.36891
3.37524
3.37441
3.37269
3.36814
3.37185
3.36874
3.36836
3.37017
3.37291
3.37263
3.36267
3.41209
3.40489
3.39851
3.4059
3.39842
3.39553
3.41441
3.37236
3.36517
3.3736
3.37787
3.377
3.37585
3.37797
3.37243
3.37438
3.37734
3.37924
3.42171
3.42425
3.4216
3.41899
3.42126
3.42142
3.42524
3.4199
3.41712
3.41785
3.42435
3.42599
3.41631
3.41777
3.4204
3.42128
3.41744
3.41991
3.4199
3.42072
3.42107
3.38122
3.3824
3.38681
3.38359
3.38197
3.38076
3.38373
3.38326
3.37873
3.38142
3.3809
3.37876
3.37972
3.38157
3.38147
3.38001
3.38373
3.38038
3.38116
3.40275
3.39928
3.39479
3.39639
3.39662
3.4001
3.39949
3.39262
3.3986
3.40352
3.40331
3.4043
3.40224
3.40556
3.39604
3.40654
3.40427
3.41483
3.41149
3.40968
3.40878
3.41252
3.41767
3.40857
3.40761
3.41162
3.41592
3.41592
3.41557
3.41578
3.41171
3.41427
3.41466
3.41502
3.40815
3.38787
3.39088
3.38324
3.37631
3.38621
3.38679
3.37989
3.37722
3.3801
3.3883
3.38251
3.37417
3.37908
3.38264
3.38232
3.37987
3.423
3.42939
3.43513
3.43182
3.43108
3.42505
3.42919
3.43174
3.43268
3.43049
3.42769
3.4268
3.42999
3.42746
3.43503
3.43847
3.43104
3.43147
3.43007
3.43261
3.43001
3.42967
3.43248
3.42969
3.43176
3.43298
3.43362
3.43276
3.43093
3.42976
3.43218
3.4304
3.42949
3.43261
3.43777
3.4363
3.40367
3.40021
3.40155
3.40138
3.40515
3.40979
3.40564
3.40953
3.40347
3.40551
3.40412
3.4059
3.40538
3.40556
3.40498
3.43145
3.43262
3.43402
3.44372
3.43095
3.44069
3.438
3.43495
3.43233
3.4289
3.43526
3.43282
3.43643
3.44178
3.43857
3.43415
3.43399
3.43538
3.4366
3.43111
3.43575
3.4376
3.37678
3.38029
3.37644
3.37364
3.37742
3.37452
3.37878
3.37926
3.37912
3.37017
3.3719
3.38129
3.37561
3.37814
3.43321
3.4333
3.4305
3.43354
3.43205
3.42918
3.43433
3.43688
3.43071
3.42973
3.43402
3.43493
3.43916
3.4332
3.4413
3.44021
3.43581
3.40744
3.41877
3.41356
3.41922
3.41654
3.41434
3.41349
3.41832
3.41347
3.41934
3.41791
3.42012
3.42546
3.42211
3.42488
3.42718
3.42565
3.42178
3.42677
3.42113
3.42162
3.42265
3.4214
3.42084
3.42182
3.42143
3.4216
3.42223
3.42078
3.42689
3.42531
3.42279
3.42372
3.4243
3.42552
3.42318
3.42755
3.42702
3.42576
3.43133
3.4328
3.43662
3.43226
3.43366
3.42414
3.43105
3.43492
3.435
3.43569
3.42758
3.43425
3.43143
3.43154
3.43459
3.42401
3.42765
3.42928
3.42503
3.42384
3.42573
3.43095
3.42703
3.42655
3.4258
3.42834
3.42495
3.42226
3.42254
3.42909
3.4038
3.4047
3.40544
3.40168
3.40385
3.40386
3.40413
3.40517
3.40796
3.40492
3.40483
3.39895
3.40524
3.39718
3.40099
3.40383
3.40379
3.40315
3.39564
3.40036
3.44111
3.4386
3.43656
3.43408
3.43441
3.43734
3.43831
3.43825
3.43493
3.43941
3.43044
3.43852
3.4337
3.42916
3.4346
3.43577
3.43577
3.43432
3.43582
3.43316
3.43895
3.43742
3.43654
3.43305
3.4326
3.4371
3.4388
3.43505
3.43563
3.43416
3.43552
3.43069
3.43302
3.43716
3.43916
3.43708
3.43389
3.43092
3.43812
3.42218
3.42438
3.42674
3.42348
3.42392
3.4197
3.42186
3.42176
3.42162
3.41949
3.42105
3.41925
3.41938
3.42539
3.41774
3.42211
3.42306
3.42481
3.42787
3.42517
3.42629
3.42747
3.42352
3.41831
3.42129
3.42057
3.42616
3.42409
3.42513
3.42003
3.41831
3.42791
3.43037
3.42666
3.4264
3.42826
3.42612
3.40651
3.40759
3.4046
3.40489
3.40054
3.40396
3.39883
3.39971
3.39575
3.39902
3.40449
3.40106
3.40215
3.40212
3.40316
3.39893
3.40637
3.4051
3.3803
3.38505
3.38907
3.38397
3.38402
3.38617
3.37759
3.38188
3.38223
3.38293
3.38489
3.38309
3.37932
3.38259
3.37954
3.38309
3.44256
3.40977
3.40684
3.40954
3.40727
3.39997
3.40236
3.40161
3.40444
3.40886
3.40861
3.40745
3.40703
3.40453
3.40115
3.40166
3.40358
3.43752
3.43476
3.40519
3.41211
3.41088
3.37898
3.39152
3.43461
3.434
3.41129
3.41341
3.37372
3.37651
3.38158
3.42672
3.42417
3.37929
3.37356
3.37431
3.39829
3.39646
3.41964
3.41556
3.41824
3.41541
3.41434
3.41321
3.42144
3.42976
3.43135
3.43464
3.40175
3.39549
3.39746
3.38723
3.39327
3.39337
3.38737
3.39569
3.39974
3.43294
3.43126
3.38554
3.38792
3.38246
3.38625
3.37575
3.36973
3.37332
3.41835
3.415
3.40427
3.40044
3.39922
3.42677
3.43055
3.42549
3.43892
3.44321
3.38456
3.39436
3.39396
3.39672
3.43304
3.43638
3.41875
3.42236
3.42447
3.41058
3.40927
3.40225
3.40185
3.36917
3.37007
3.42371
3.42274
3.39911
3.39634
3.40184
3.42831
3.42542
3.41982
3.38131
3.37781
3.38241
3.38729
3.38427
3.39353
3.38915
3.41828
3.41715
3.38291
3.38347
3.37561
3.37593
3.44123
3.44334
3.41658
3.40983
3.4091
3.39542
3.39216
3.39121
3.39805
3.4391
3.43919
3.37086
3.3737
3.38101
3.38206
3.37523
3.38073
3.37518
3.37981
3.38696
3.38608
3.38266
3.3828
3.40299
3.40609
3.40114
3.39968
3.43577
3.44007
3.44051
3.42354
3.42869
3.42545
3.4303
3.41584
3.41518
3.43414
3.43
3.42926
3.43892
3.44306
3.44706
3.37287
3.37729
3.40922
3.40698
3.40402
3.3669
3.37472
3.37498
3.37812
3.38323
3.37568
3.37536
3.38268
3.39127
3.39147
3.38239
3.37721
3.37899
3.39732
3.39841
3.3911
3.3909
3.40168
3.40226
3.3932
3.39804
3.39452
3.39366
3.39247
3.39796
3.39318
3.39206
3.39208
3.395
3.39652
3.39329
3.39442
3.40085
3.40135
3.40336
3.40046
3.39823
3.39251
3.40025
3.39994
3.39579
3.37561
3.38101
3.374
3.37965
3.37575
3.38059
3.38875
3.38564
3.38771
3.38028
3.36966
3.38079
3.37982
3.37858
3.3768
3.39027
3.3832
3.37809
3.38495
3.38004
3.37908
3.38418
3.37861
3.37786
3.38526
3.38069
3.38277
3.38147
3.38092
3.37911
3.39041
3.38652
3.39898
3.39706
3.39192
3.39469
3.38809
3.39265
3.39146
3.38952
3.39087
3.37318
3.37499
3.39117
3.3861
3.37934
3.38733
3.38033
3.37197
3.37557
3.37661
3.37522
3.38222
3.38217
3.38044
3.37685
3.3819
3.37378
3.37095
3.38183
3.37992
3.3744
3.37723
3.38019
3.37773
3.37174
3.36546
3.37147
3.36646
3.3754
3.37539
3.37369
3.37803
3.37581
3.37306
3.37402
3.36061
3.37106
3.36733
3.36699
3.37247
3.37063
3.37156
3.37039
3.37828
3.376
3.37345
3.39832
3.40254
3.40643
3.4159
3.41253
3.4146
3.39794
3.40289
3.40351
3.40012
3.40458
3.40507
3.40109
3.40228
3.39909
3.40235
3.36791
3.36922
3.36349
3.37265
3.37328
3.37228
3.37278
3.3719
3.37701
3.37363
3.37262
3.37608
3.44333
3.44143
3.43463
3.43282
3.44136
3.4417
3.4404
3.43903
3.44185
3.4329
3.44099
3.43995
3.44357
3.43992
3.43894
3.43929
3.43718
3.43853
3.43736
3.43925
3.42013
3.4315
3.43626
3.43758
3.43018
3.43036
3.43593
3.43939
3.44161
3.42845
3.42321
3.42855
3.42631
3.43881
3.43044
3.4288
3.42925
3.42937
3.43345
3.43048
3.42927
3.4223
3.42703
3.42802
3.43135
3.42484
3.43476
3.43518
3.43672
3.43263
3.42696
3.42758
3.41208
3.41787
3.41424
3.42263
3.41794
3.41957
3.41468
3.41376
3.42642
3.42096
3.42245
3.4166
3.41522
3.41559
3.41552
3.41287
3.41148
3.41442
3.41623
3.41484
3.42064
3.41754
3.41379
3.4159
3.43087
3.42901
3.43105
3.43193
3.43169
3.41297
3.42508
3.42391
3.41856
3.42209
3.42062
3.41878
3.42467
3.41911
3.4302
3.42511
3.42655
3.42945
3.42508
3.43204
3.43002
3.42964
3.42536
3.42221
3.42791
3.42754
3.43227
3.43565
3.43336
3.43865
3.43704
3.44137
3.43665
3.4414
3.44607
3.44079
3.44175
3.44388
3.44008
3.43808
3.44397
3.43838
3.43847
3.43883
3.43597
3.4424
3.43586
3.43818
3.44169
3.43518
3.43437
3.43438
3.43812
3.41022
3.40452
3.40554
3.39864
3.40204
3.39868
3.40261
3.40524
3.4045
3.40679
3.39573
3.39729
3.40443
3.40676
3.40283
3.40369
3.40206
3.40426
3.39944
3.39662
3.39969
3.39794
3.393
3.39496
3.40197
3.39803
3.39116
3.39149
3.39472
3.4002
3.39672
3.40132
3.40253
3.40732
3.40793
3.40028
3.40425
3.41419
3.4033
3.40022
3.4082
3.40126
3.40109
3.39444
3.38806
3.39134
3.38932
3.37946
3.38546
3.38274
3.38203
3.3802
3.38087
3.38183
3.38186
3.3771
3.37996
3.38188
3.38943
3.3929
3.39183
3.38437
3.38323
3.38411
3.38302
3.38308
3.38854
3.38019
3.38777
3.38989
3.38915
3.38755
3.38515
3.3811
3.38295
3.38473
3.38621
3.39222
3.38818
3.38816
3.38897
3.38864
3.38425
3.37594
3.38539
3.38784
3.3842
3.38704
3.37655
3.38285
3.38196
3.37123
3.37353
3.36937
3.37926
3.37792
3.3893
3.38342
3.37665
3.37621
3.38495
3.38153
3.37598
3.38379
3.37759
3.37606
3.38019
3.37807
3.37799
3.37204
3.37583
3.37642
3.37273
3.3736
3.36989
3.375
3.37634
3.38063
3.38952
3.38377
3.38226
3.38168
3.38022
3.38876
3.38906
3.36998
3.37932
3.3738
3.44024
3.43501
3.43687
3.43998
3.43718
3.43868
3.43617
3.44019
3.39134
3.39005
3.39717
3.39654
3.38719
3.38952
3.3942
3.39033
3.38562
3.44387
3.44529
3.44046
3.43664
3.43555
3.43535
3.43952
3.44178
3.44117
3.44032
3.43811
3.43977
3.40229
3.40398
3.41901
3.41918
3.41434
3.41864
3.40594
3.40515
3.40514
3.41619
3.4151
3.42091
3.41274
3.41488
3.41518
3.41496
3.41338
3.41206
3.41724
3.41679
3.41302
3.41529
3.41243
3.41399
3.43343
3.43662
3.44476
3.44604
3.44309
3.44362
3.37106
3.37858
3.37385
3.37466
3.417
3.40826
3.41499
3.41658
3.40792
3.4085
3.41385
3.42026
3.41559
3.42154
3.41781
3.41797
3.42416
3.4262
3.41367
3.42025
3.41818
3.39198
3.39726
3.39566
3.39357
3.38304
3.38938
3.38687
3.38751
3.38855
3.38219
3.39578
3.39117
3.38717
3.39521
3.39679
3.38066
3.37945
3.38368
3.38823
3.38675
3.38398
3.38535
3.38057
3.38335
3.37893
3.43899
3.43341
3.4383
3.43513
3.43594
3.43726
3.43447
3.43042
3.43006
3.42555
3.43201
3.43423
3.43084
3.42716
3.42496
3.42241
3.43221
3.42099
3.42603
3.42468
3.42642
3.42592
3.4229
3.42899
3.42388
3.41899
3.42145
3.42135
3.42163
3.40642
3.40023
3.39977
3.40311
3.39327
3.39458
3.39699
3.39317
3.39833
3.39497
3.39533
3.40078
3.39326
3.39778
3.39865
3.40602
3.40912
3.39783
3.39623
3.40104
3.40389
3.39964
3.39981
3.3982
3.40582
3.40347
3.40398
3.40247
3.43434
3.44085
3.44563
3.44449
3.43759
3.43744
3.4406
3.44363
3.43513
3.42786
3.42542
3.41727
3.42508
3.42328
3.41775
3.41687
3.41976
3.42045
3.41794
3.42481
3.42732
3.42487
3.42178
3.41946
3.42929
3.42129
3.41932
3.42974
3.42426
3.36689
3.37259
3.37213
3.37341
3.37136
3.37348
3.37137
3.37088
3.37083
3.37635
3.37673
3.38093
3.37261
3.375
3.37642
3.37682
3.40159
3.40634
3.40665
3.41679
3.41245
3.4128
3.41053
3.41378
3.41353
3.40819
3.40699
3.4114
3.40873
3.41077
3.40671
3.40456
3.40271
3.41258
3.40907
3.42209
3.41161
3.41452
3.42575
3.41679
3.41667
3.42224
3.42068
3.42791
3.42251
3.43217
3.42857
3.41808
3.41991
3.41245
3.41431
3.41661
3.41518
3.42366
3.42034
3.36833
3.36856
3.37182
3.3653
3.4283
3.43504
3.42555
3.42417
3.43069
3.42521
3.42615
3.43284
3.42951
3.4262
3.43248
3.43178
3.43296
3.43365
3.39955
3.39516
3.39454
3.39155
3.39703
3.38956
3.39124
3.39596
3.43399
3.43687
3.43528
3.43418
3.4417
3.42568
3.4278
3.42993
3.43178
3.43597
3.42666
3.43096
3.43153
3.43134
3.42484
3.42569
3.42377
3.42961
3.42967
3.42104
3.42704
3.42446
3.43046
3.42757
3.43349
3.42896
3.43742
3.43507
3.43467
3.42808
3.43579
3.4015
3.40047
3.3989
3.40556
3.40495
3.39354
3.39673
3.40513
3.40983
3.40725
3.40503
3.40254
3.39915
3.40405
3.39729
3.40089
3.3994
3.39702
3.39733
3.39941
3.41014
3.40241
3.40452
3.40385
3.40252
3.39742
3.39866
3.40122
3.40187
3.36936
3.36309
3.36495
3.37071
3.3656
3.36613
3.41536
3.4132
3.41831
3.40952
3.42085
3.42006
3.40708
3.41861
3.42105
3.42954
3.41476
3.42117
3.42058
3.4209
3.37255
3.37444
3.37677
3.37597
3.37185
3.37314
3.3762
3.37086
3.3758
3.37405
3.37006
3.37065
3.37029
3.39223
3.38684
3.38557
3.38924
3.39051
3.38169
3.38763
3.38556
3.38155
3.39211
3.38931
3.37728
3.38443
3.38242
3.3832
3.37458
3.37617
3.38188
3.38009
3.38305
3.387
3.38404
3.38601
3.3862
3.3876
3.38112
3.43356
3.43316
3.42516
3.43439
3.43337
3.43269
3.43892
3.43676
3.44173
3.43656
3.43096
3.42832
3.42611
3.42837
3.43275
3.42694
3.42942
3.42641
3.42962
3.42717
3.40587
3.40367
3.39279
3.39698
3.39419
3.39076
3.40055
3.39283
3.39388
3.39541
3.3963
3.40641
3.39767
3.3975
3.40123
3.39746
3.40469
3.40099
3.39963
3.39928
3.40036
3.38359
3.39291
3.38975
3.37971
3.3826
3.38954
3.38638
3.38059
3.3819
3.38672
3.38982
3.38635
3.38601
3.39411
3.39257
3.39823
3.39918
3.39559
3.39404
3.39496
3.39119
3.38992
3.39394
3.39732
3.39498
3.39165
3.39081
3.39838
3.39657
3.40006
3.40653
3.39783
3.39154
3.39574
3.39605
3.43033
3.43847
3.42902
3.43038
3.42401
3.43006
3.42352
3.42852
3.41997
3.42238
3.42989
3.43023
3.42576
3.42523
3.42549
3.43211
3.42921
3.43463
3.43334
3.43395
3.42956
3.4106
3.40801
3.41471
3.41724
3.42433
3.41892
3.41372
3.42287
3.41859
3.41765
3.41821
3.42187
3.4194
3.42099
3.41074
3.40997
3.41411
3.41406
3.41141
3.40911
3.41262
3.40981
3.4157
3.41479
3.41668
3.41198
3.42055
3.41329
3.41697
3.41883
3.4115
3.41424
3.41142
3.41296
3.41629
3.41907
3.42192
3.41716
3.42396
3.4144
3.4157
3.41698
3.40365
3.3951
3.40649
3.40361
3.39728
3.3968
3.39909
3.4002
3.40313
3.40387
3.39694
3.39546
3.39118
3.39878
3.39644
3.39284
3.39028
3.37506
3.37438
3.3719
3.37205
3.37645
3.36906
3.37602
3.37479
3.37534
3.37844
3.37733
3.37042
3.37234
3.37919
3.38039
3.37879
3.37857
3.37544
3.38555
3.41807
3.42161
3.42504
3.42094
3.4243
3.42257
3.42203
3.42063
3.41869
3.42311
3.42031
3.42634
3.43061
3.42772
3.42734
3.43291
3.42921
3.42233
3.42081
3.42665
3.42105
3.42122
3.43023
3.42529
3.42778
3.43157
3.37127
3.37037
3.36777
3.37241
3.37143
3.37157
3.37047
3.37926
3.37573
3.38498
3.38348
3.38252
3.38253
3.37815
3.37893
3.37901
3.38162
3.38501
3.38022
3.37735
3.37758
3.37991
3.37962
3.38394
3.37584
3.36848
3.36919
3.37434
3.37405
3.37748
3.37966
3.38088
3.37638
3.37815
3.376
3.37678
3.37592
3.41372
3.41712
3.41393
3.41168
3.41048
3.40979
3.40796
3.40367
3.41467
3.41114
3.4114
3.41074
3.41256
3.41208
3.40888
3.40712
3.40581
3.40782
3.40344
3.40581
3.40499
3.40181
3.39988
3.40843
3.40695
3.42888
3.43085
3.4376
3.43408
3.43392
3.4361
3.43758
3.43322
3.43377
3.43817
3.43928
3.44133
3.43546
3.43658
3.44104
3.43789
3.43309
3.43882
3.43486
3.43582
3.38916
3.39697
3.39177
3.39086
3.39369
3.39278
3.38983
3.38955
3.38187
3.37988
3.38315
3.37294
3.38827
3.38922
3.38492
3.38688
3.38683
3.38413
3.37817
3.3885
3.38757
3.38827
3.38823
3.38733
3.39905
3.38496
3.41026
3.41133
3.41433
3.40868
3.40869
3.40328
3.40743
3.43422
3.42911
3.432
3.43577
3.42663
3.42645
3.43513
3.4349
3.43589
3.4377
3.43968
3.43584
3.44266
3.44153
3.43828
3.43343
3.43401
3.43924
3.43355
3.43531
3.43052
3.43219
3.43368
3.43508
3.43276
3.42518
3.42777
3.42828
3.43474
3.43396
3.43519
3.43628
3.42348
3.42594
3.4445
3.43651
3.43577
3.42897
3.43077
3.42995
3.43206
3.43393
3.43047
3.43629
3.43623
3.43389
3.43317
3.43837
3.41897
3.42243
3.42802
3.42462
3.42174
3.42964
3.42755
3.42479
3.43455
3.43321
3.42314
3.42385
3.43147
3.43175
3.43257
3.43126
3.42086
3.41623
3.41888
3.42298
3.42041
3.41756
3.41799
3.42044
3.4165
3.41742
3.41315
3.41216
3.42384
3.4171
3.41414
3.41831
3.41941
3.4166
3.40363
3.40213
3.40331
3.404
3.40073
3.39936
3.40557
3.40777
3.40765
3.40592
3.39778
3.4105
3.40695
3.41668
3.41394
3.41888
3.41656
3.41529
3.41735
3.4183
3.41209
3.40967
3.40791
3.41328
3.4102
3.40741
3.40711
3.40428
3.40932
3.4181
3.42296
3.41139
3.41827
3.4168
3.4136
3.42009
3.42026
3.41897
3.41764
3.40508
3.41363
3.41231
3.40729
3.4145
3.40775
3.41155
3.41109
3.41135
3.41148
3.40585
3.41153
3.40725
3.41082
3.41048
3.40734
3.40476
3.40953
3.4066
3.41396
3.40942
3.40961
3.41946
3.42943
3.42571
3.42809
3.4255
3.42892
3.42381
3.43129
3.43182
3.42914
3.42981
3.42977
3.43375
3.43092
3.40703
3.40641
3.4023
3.38205
3.38627
3.39086
3.40347
3.3976
3.40148
3.40565
3.39926
3.40947
3.3982
3.39466
3.40592
3.40344
3.3981
3.38552
3.38917
3.39453
3.38811
3.38901
3.39086
3.39188
3.39214
3.40894
3.41478
3.41029
3.40996
3.40514
3.41157
3.42474
3.42781
3.42701
3.42487
3.42665
3.38108
3.38073
3.38364
3.38152
3.379
3.37843
3.38064
3.38529
3.39484
3.39209
3.3923
3.39676
3.39023
3.38758
3.36593
3.42021
3.41704
3.42364
3.42555
3.42065
3.42043
3.41976
3.41726
3.41751
3.4186
3.42152
3.41857
3.41955
3.42057
3.4236
3.41375
3.41495
3.41846
3.41491
3.41333
3.41369
3.4087
3.40943
3.40894
3.40656
3.40994
3.36828
3.36114
3.37068
3.36441
3.36687
3.43015
3.42221
3.42017
3.42867
3.42668
3.42649
3.42422
3.42655
3.42356
3.42788
3.42211
3.42186
3.42574
3.41817
3.4254
3.42688
3.43197
3.43407
3.43183
3.43521
3.43173
3.43146
3.42315
3.42447
3.42677
3.43053
3.4294
3.43255
3.43012
3.4233
3.42616
3.42969
3.43598
3.43194
3.43233
3.4374
3.43652
3.4344
3.43264
3.43461
3.43129
3.43086
3.42857
3.4283
3.42413
3.42515
3.43821
3.43684
3.39466
3.39111
3.40121
3.39711
3.39672
3.39679
3.39748
3.38784
3.39275
3.39295
3.39714
3.3891
3.39003
3.39639
3.39382
3.39468
3.38698
3.38554
3.38625
3.36598
3.36754
3.36578
3.42126
3.42119
3.42303
3.4224
3.41817
3.42343
3.42274
3.42337
3.41837
3.42307
3.40134
3.40368
3.40977
3.4122
3.40652
3.4071
3.40891
3.41448
3.40886
3.408
3.40727
3.41161
3.4082
3.41815
3.4125
3.41011
3.4051
3.41285
3.40943
3.40601
3.41045
3.40437
3.40858
3.4104
3.40903
3.40883
3.40676
3.40953
3.41454
3.41286
3.41393
3.41239
3.413
3.41402
3.41492
3.41626
3.41704
3.41873
3.41933
3.42501
3.42186
3.41961
3.42219
3.37482
3.36981
3.40889
3.3976
3.40385
3.40023
3.40979
3.4069
3.4013
3.4075
3.40437
3.40157
3.39656
3.3999
3.39678
3.3968
3.39616
3.39605
3.40273
3.40056
3.39859
3.40042
3.39891
3.43399
3.42874
3.44018
3.43122
3.4372
3.4366
3.37725
3.3795
3.38413
3.38428
3.38516
3.38701
3.39232
3.39048
3.39315
3.38866
3.39109
3.38731
3.3861
3.38912
3.38655
3.37665
3.37684
3.37162
3.37963
3.37655
3.37527
3.37634
3.37445
3.37255
3.397
3.4017
3.39721
3.39549
3.39395
3.39935
3.397
3.39043
3.38945
3.39188
3.39243
3.38637
3.39199
3.3933
3.38979
3.38991
3.3891
3.38549
3.39062
3.39536
3.38828
3.38755
3.42399
3.42684
3.42091
3.42543
3.41748
3.41818
3.41774
3.41491
3.41565
3.41426
3.41263
3.41757
3.41485
3.41499
3.41051
3.41105
3.41568
3.41256
3.41376
3.41342
3.37399
3.37559
3.37142
3.36943
3.36756
3.37513
3.37209
3.37114
3.37243
3.38129
3.37589
3.3817
3.37473
3.37648
3.37427
3.3729
3.3802
3.37614
3.37953
3.3774
3.37821
3.37706
3.37688
3.37952
3.43473
3.43635
3.43509
3.43409
3.43869
3.4384
3.44313
3.44348
3.44853
3.44692
3.4439
3.4401
3.44445
3.44178
3.43963
3.40803
3.40839
3.41137
3.40826
3.40869
3.41262
3.40858
3.39779
3.40041
3.40257
3.3991
3.39786
3.39903
3.40436
3.40422
3.40364
3.40335
3.40757
3.40592
3.39541
3.39926
3.39859
3.43548
3.43798
3.43081
3.43324
3.43425
3.42911
3.44092
3.43869
3.3848
3.37955
3.38127
3.37496
3.37775
3.38086
3.38032
3.37995
3.38045
3.38148
3.37873
3.38142
3.38754
3.38994
3.39311
3.38798
3.38376
3.39446
3.39061
3.3867
3.38738
3.38713
3.39316
3.39351
3.38907
3.39136
3.39185
3.39205
3.39717
3.39566
3.39015
3.38814
3.38946
3.39013
3.38901
3.38835
3.39272
3.39082
3.39103
3.39336
3.39704
3.39561
3.39592
3.3943
3.39354
3.39339
3.39521
3.39885
3.38861
3.38787
3.3959
3.39552
3.39358
3.39261
3.39222
3.3947
3.39374
3.40436
3.4125
3.41233
3.40871
3.41385
3.40961
3.40695
3.4032
3.40766
3.40912
3.40671
3.40719
3.40784
3.44523
3.44234
3.44124
3.43988
3.4401
3.44498
3.42803
3.42839
3.42795
3.43034
3.43329
3.43126
3.43374
3.43598
3.43787
3.43277
3.42817
3.43232
3.42652
3.41886
3.41607
3.41846
3.41402
3.40622
3.40498
3.41142
3.40924
3.41706
3.42271
3.42293
3.41865
3.41947
3.42096
3.41378
3.41532
3.41841
3.41663
3.41871
3.41714
3.41329
3.4194
3.41494
3.41293
3.41506
3.41371
3.42578
3.42394
3.43149
3.4261
3.43868
3.43185
3.42509
3.42735
3.41963
3.42717
3.42219
3.41966
3.42536
3.42147
3.44195
3.43776
3.43671
3.43434
3.4434
3.43862
3.43459
3.43161
3.43263
3.43684
3.43577
3.43567
3.43076
3.44347
3.44099
3.44137
3.44451
3.43935
3.44099
3.37439
3.37597
3.36953
3.37205
3.37793
3.36909
3.37548
3.37394
3.37118
3.3654
3.36948
3.37042
3.36602
3.36861
3.36632
3.36926
3.36855
3.36623
3.36806
3.37196
3.37334
3.37211
3.36354
3.36556
3.36643
3.36479
3.36689
3.36427
3.40609
3.40643
3.40903
3.40435
3.4061
3.41453
3.41046
3.41087
3.41455
3.40821
3.38023
3.38307
3.38031
3.37116
3.3726
3.3783
3.3782
3.37912
3.37975
3.37184
3.37118
3.37382
3.37686
3.3819
3.38356
3.37987
3.37942
3.38004
3.38126
3.38621
3.38626
3.38901
3.38469
3.37921
3.37965
3.37822
3.37875
3.38446
3.38217
3.37831
3.37617
3.37738
3.38996
3.39064
3.38511
3.38012
3.38194
3.38489
3.38091
3.38741
3.38481
3.38534
3.38514
3.38577
3.38973
3.38384
3.38974
3.38479
3.38759
3.38172
3.38329
3.38701
3.3887
3.38413
3.385
3.37455
3.37448
3.38672
3.38166
3.37462
3.37497
3.36595
3.37225
3.37049
3.3754
3.37189
3.3774
3.37172
3.36775
3.38948
3.39323
3.39108
3.39732
3.39577
3.39161
3.39339
3.39688
3.39364
3.39499
3.38664
3.38654
3.39518
3.39239
3.37698
3.3824
3.37683
3.38245
3.37961
3.37947
3.38181
3.37996
3.37654
3.37716
3.383
3.3847
3.38501
3.38404
3.38344
3.38888
3.38601
3.39327
3.39244
3.39
3.38493
3.3823
3.38952
3.38712
3.38371
3.38376
3.38516
3.3841
3.38495
3.385
3.384
3.38351
3.37966
3.3874
3.38473
3.38919
3.38329
3.39869
3.39842
3.39678
3.39927
3.39898
3.40066
3.40646
3.39805
3.40051
3.39991
3.43272
3.4375
3.43633
3.42998
3.43306
3.43604
3.43509
3.42873
3.43187
3.42977
3.43225
3.43197
3.43052
3.42833
3.42502
3.43274
3.43043
3.43219
3.42919
3.41055
3.41596
3.4112
3.40417
3.41092
3.39346
3.39944
3.39536
3.39442
3.39087
3.39086
3.39451
3.39195
3.39682
3.36852
3.36888
3.37165
3.43875
3.43862
3.43578
3.44097
3.43996
3.43725
3.43347
3.44174
3.36696
3.36885
3.37212
3.36579
3.3662
3.37014
3.36702
3.37208
3.36849
3.36557
3.37036
3.36704
3.3673
3.37291
3.37308
3.36475
3.39863
3.39596
3.39898
3.40153
3.39766
3.39743
3.39433
3.39932
3.39613
3.39252
3.38948
3.38751
3.38697
3.38392
3.3835
3.38559
3.40143
3.40111
3.40087
3.40132
3.40475
3.40193
3.40519
3.40516
3.40846
3.40531
3.40384
3.40726
3.4044
3.4109
3.40824
3.41186
3.40907
3.4057
3.40606
3.40497
3.40678
3.41157
3.41262
3.41025
3.40866
3.40736
3.41058
3.40935
3.40967
3.41327
3.41637
3.41195
3.41676
3.4167
3.41432
3.41465
3.43167
3.43016
3.433
3.42981
3.4295
3.43633
3.44409
3.44097
3.43385
3.44273
3.44089
3.44089
3.43555
3.4375
3.44279
3.43813
3.43579
3.43243
3.43414
3.4318
3.43423
3.4309
3.43243
3.43372
3.43565
3.40126
3.38174
3.37482
3.37837
3.37417
3.38195
3.38005
3.37795
3.37515
3.38155
3.37518
3.37176
3.37548
3.37822
3.37872
3.37492
3.37707
3.37635
3.37634
3.38242
3.37762
3.3676
3.37521
3.37708
3.38052
3.37884
3.37964
3.37426
3.37074
3.40438
3.40657
3.40658
3.40205
3.36987
3.37638
3.36882
3.37345
3.36809
3.36745
3.43379
3.43671
3.44165
3.43739
3.44016
3.43873
3.44323
3.43928
3.43392
3.43672
3.4333
3.43376
3.43918
3.4369
3.4305
3.43254
3.43742
3.43689
3.42813
3.42973
3.42095
3.41128
3.41774
3.41642
3.415
3.41334
3.41306
3.42
3.41552
3.42413
3.42238
3.43644
3.38663
3.39277
3.39315
3.39105
3.39606
3.4023
3.40064
3.4
3.39856
3.39948
3.40104
3.39635
3.39951
3.39965
3.40424
3.38331
3.37918
3.3766
3.38636
3.38365
3.37551
3.37752
3.38723
3.38154
3.3832
3.37995
3.38334
3.37486
3.38167
3.38107
3.39248
3.38877
3.38031
3.38034
3.38943
3.3892
3.38799
3.39376
3.38035
3.384
3.38516
3.37775
3.38066
3.38099
3.38238
3.37736
3.38185
3.38776
3.38548
3.3918
3.38804
3.38918
3.38694
3.38868
3.3829
3.38402
3.38311
3.44311
3.43531
3.44408
3.44594
3.43548
3.43392
3.43776
3.43628
3.44319
3.43503
3.44085
3.44263
3.43887
3.43652
3.44376
3.4463
3.43906
3.43954
3.44227
3.43755
3.43512
3.44529
3.44277
3.43737
3.43849
3.41493
3.41294
3.41027
3.41438
3.41457
3.40568
3.41505
3.41082
3.41298
3.40875
3.40982
3.41104
3.41136
3.41211
3.40932
3.40932
3.41692
3.41763
3.4169
3.40748
3.41843
3.41574
3.4163
3.42005
3.41579
3.41304
3.41589
3.41487
3.41492
3.41501
3.41563
3.41746
3.41892
3.41668
3.41683
3.41669
3.41654
3.42706
3.42505
3.42997
3.42394
3.42512
3.42221
3.42864
3.42227
3.42203
3.41636
3.41815
3.42344
3.42602
3.42251
3.42143
3.42255
3.41627
3.4239
3.42068
3.42721
3.4355
3.41782
3.41417
3.4226
3.41927
3.4188
3.42357
3.42213
3.42123
3.42259
3.41716
3.41766
3.37056