/*--------------------------------*- C++ -*----------------------------------*\
| =========                 |                                                 |
| \\      /  F ield         | OpenFOAM: The Open Source CFD Toolbox           |
|  \\    /   O peration     | Version:  v1612+                                |
|   \\  /    A nd           | Web:      www.OpenFOAM.com                      |
|    \\/     M anipulation  |                                                 |
\*---------------------------------------------------------------------------*/
FoamFile
{
    version     2.0;
    format      ascii;
    class       volVectorField;
    location    "100";
    object      wallShearStress;
}
// * * * * * * * * * * * * * * * * * * * * * * * * * * * * * * * * * * * * * //

dimensions      [0 2 -2 0 0 0 0];

internalField   uniform (0 0 0);

boundaryField
{
    WALL
    {
        type            calculated;
        value           nonuniform List<vector> 
1511
(
(0.0019906 -0.0113762 0.00446962)
(0.0019135 -0.0114551 0.00433138)
(0.00211284 -0.0111908 0.00395268)
(0.00189203 -0.010642 0.00381685)
(0.00209458 -0.0110402 0.00398036)
(0.00158555 -0.0108004 0.00424014)
(0.0019001 -0.0112735 0.00426725)
(0.00206237 -0.0115313 0.00421631)
(0.00204925 -0.0117111 0.00435513)
(0.00221148 -0.0118446 0.00427614)
(0.00211347 -0.0114778 0.00439752)
(0.00173034 -0.0112184 0.00398651)
(0.00177668 -0.0116981 0.00429912)
(0.00169916 -0.0115136 0.00410036)
(0.00211666 -0.0122845 0.00452387)
(0.00210358 -0.0126802 0.0045778)
(0.0019637 -0.0120938 0.00453339)
(0.00196343 -0.0120179 0.00459235)
(0.00193257 -0.0118677 0.00441749)
(0.00191567 -0.0115932 0.00382732)
(0.00199646 -0.011761 0.00435061)
(0.00189432 -0.0115528 0.00429763)
(0.00206918 -0.01165 0.00434342)
(0.0017314 -0.0110537 0.00400681)
(0.00203674 -0.0120736 0.00427562)
(0.00196664 -0.0120096 0.00467118)
(0.00187571 -0.0112344 0.00412727)
(0.00215397 -0.0119086 0.00430227)
(0.00212444 -0.0121695 0.0043298)
(0.00206901 -0.0119715 0.00442026)
(0.00217043 -0.0117975 0.00431076)
(0.00197367 -0.0119646 0.00442276)
(0.00187534 -0.0112813 0.00414597)
(0.00193397 -0.0118075 0.00437908)
(0.00197784 -0.0117329 0.00428131)
(0.00206702 -0.011475 0.00422003)
(0.00208159 -0.0118482 0.00445117)
(0.00192008 -0.011747 0.00443255)
(0.00195612 -0.0117597 0.00443318)
(0.00210093 -0.0114349 0.00423605)
(0.00187569 -0.0107049 0.00368027)
(0.00199553 -0.0111986 0.0038449)
(0.00191455 -0.0110317 0.00394528)
(0.00198264 -0.0108652 0.00395391)
(0.00194706 -0.0108643 0.00417112)
(0.00179045 -0.011069 0.00412846)
(0.00181457 -0.0107698 0.00398947)
(0.00194919 -0.0111626 0.00417144)
(0.00197682 -0.0112131 0.00418649)
(0.00186665 -0.0110138 0.00408574)
(0.00188967 -0.0113857 0.00423468)
(0.00211459 -0.0112156 0.00418571)
(0.00186876 -0.0118474 0.0042748)
(0.00155082 -0.0111424 0.00420384)
(0.00191219 -0.0119745 0.00443829)
(0.0019521 -0.0117363 0.00435834)
(0.00214391 -0.0115715 0.00408369)
(0.00206708 -0.0115405 0.00399711)
(0.00201516 -0.0112615 0.00396617)
(0.00205688 -0.0115486 0.00417448)
(0.00221577 -0.0115419 0.00397227)
(0.00208849 -0.0114746 0.00398678)
(0.00155422 -0.0111847 0.00378721)
(0.00200072 -0.011001 0.00430125)
(0.00188089 -0.0114855 0.00417173)
(0.00193568 -0.0119308 0.00444839)
(0.0020997 -0.0122866 0.00472457)
(0.0019205 -0.0115817 0.00435696)
(0.00207605 -0.0118032 0.00439167)
(0.00191122 -0.0118055 0.00444853)
(0.00171089 -0.0118983 0.00444766)
(0.00201681 -0.0119682 0.00448088)
(0.00190818 -0.0121268 0.00451275)
(0.00174634 -0.0114718 0.00427523)
(0.0018127 -0.0119046 0.00450882)
(0.00175222 -0.0118215 0.00443116)
(0.0020899 -0.0123989 0.00460046)
(0.0019583 -0.0116925 0.00417083)
(0.00196318 -0.011613 0.00410302)
(0.00185635 -0.0120463 0.00426269)
(0.00187275 -0.0116222 0.00419469)
(0.00196171 -0.0118264 0.00439878)
(0.00190165 -0.0115784 0.00416046)
(0.00203139 -0.0114458 0.00445067)
(0.00205438 -0.011279 0.00428433)
(0.00183255 -0.0116518 0.00432517)
(0.00212164 -0.0117665 0.0045082)
(0.00181973 -0.0113319 0.00415272)
(0.00190245 -0.0113744 0.00428788)
(0.00198382 -0.0117737 0.00441659)
(0.00203567 -0.0112802 0.00413737)
(0.00192067 -0.0115878 0.0042136)
(0.0019729 -0.011717 0.00431977)
(0.00198897 -0.01159 0.0042357)
(0.00195903 -0.0115244 0.00425829)
(0.00192115 -0.0116869 0.00440043)
(0.00152202 -0.0118523 0.00435159)
(0.0015826 -0.0121149 0.00437639)
(0.00170616 -0.0117343 0.00427759)
(0.00159049 -0.0118414 0.00444669)
(0.00170744 -0.0112263 0.00414172)
(0.00187975 -0.0106937 0.00398131)
(0.00222965 -0.0108736 0.00406424)
(0.00177908 -0.0102359 0.00382053)
(0.00194353 -0.0105822 0.00379761)
(0.001687 -0.0105216 0.00383618)
(0.00198225 -0.0111006 0.00410276)
(0.00208042 -0.0115059 0.00503907)
(0.00199382 -0.012237 0.00449283)
(0.00167728 -0.010995 0.00402573)
(0.00178886 -0.0119449 0.00460563)
(0.0018549 -0.0118553 0.00441561)
(0.00200341 -0.011783 0.004283)
(0.00214589 -0.0120447 0.00435831)
(0.0019362 -0.0116092 0.00432758)
(0.00200524 -0.0120406 0.00442892)
(0.00200386 -0.0116454 0.00422313)
(0.00200018 -0.0117619 0.00448505)
(0.00211318 -0.0114396 0.00414859)
(0.00198939 -0.0118583 0.00437771)
(0.00190698 -0.0114854 0.00437506)
(0.00218382 -0.0117018 0.00427773)
(0.00217863 -0.0117645 0.00430319)
(0.00204608 -0.0114506 0.00416409)
(0.00213052 -0.0119844 0.00433807)
(0.00197695 -0.0118885 0.00434519)
(0.00194058 -0.0117133 0.00432608)
(0.00174009 -0.0114694 0.00425538)
(0.00173451 -0.0118292 0.00437912)
(0.00194793 -0.0114055 0.00428726)
(0.00203279 -0.0115766 0.00433004)
(0.00183645 -0.0115801 0.00442637)
(0.00157702 -0.0112818 0.00386789)
(0.0016992 -0.0114862 0.00405477)
(0.00151522 -0.0114385 0.00377192)
(0.0018232 -0.0118081 0.00405761)
(0.00162401 -0.0113305 0.00398184)
(0.00193607 -0.0119828 0.00412617)
(0.00217396 -0.0116367 0.0043812)
(0.00187795 -0.011516 0.00412474)
(0.00179492 -0.0120956 0.00428134)
(0.00194373 -0.0109081 0.00383781)
(0.00166217 -0.0103353 0.0040577)
(0.00185232 -0.0109387 0.00413421)
(0.00182195 -0.0108573 0.00386217)
(0.00175443 -0.0109113 0.00409804)
(0.00195774 -0.0117505 0.0044848)
(0.0019095 -0.0106669 0.00422024)
(0.00200975 -0.0111612 0.00380773)
(0.00185368 -0.0109526 0.00421753)
(0.00179446 -0.0113886 0.00390355)
(0.00198681 -0.011956 0.00452429)
(0.00212428 -0.0121804 0.00451617)
(0.00204913 -0.0119741 0.00454403)
(0.00204841 -0.0121993 0.00452063)
(0.00199588 -0.0121226 0.00462061)
(0.0019419 -0.0119505 0.00462468)
(0.00198041 -0.0118238 0.00440952)
(0.00195573 -0.0118541 0.00442759)
(0.00215906 -0.0121858 0.00441946)
(0.00212136 -0.0120644 0.00444147)
(0.00212817 -0.011928 0.0043835)
(0.00188116 -0.0118806 0.00448744)
(0.00201211 -0.0119261 0.00439163)
(0.00204972 -0.0119113 0.00425729)
(0.00201031 -0.0120144 0.00442598)
(0.00204817 -0.0120951 0.00446081)
(0.00200842 -0.0119285 0.00441507)
(0.00190687 -0.0115294 0.00426808)
(0.00194705 -0.0112324 0.00398055)
(0.00201469 -0.0114271 0.00426758)
(0.00202491 -0.012039 0.00419442)
(0.00202965 -0.0117826 0.00434268)
(0.00193975 -0.011439 0.00441775)
(0.00187239 -0.0115204 0.00433084)
(0.00226342 -0.0116679 0.00406102)
(0.00207197 -0.0119539 0.00440799)
(0.00217721 -0.0123545 0.00438165)
(0.00201032 -0.0119799 0.00460829)
(0.00189057 -0.0112605 0.00420335)
(0.00202245 -0.0118301 0.00453641)
(0.0022455 -0.0116377 0.00413888)
(0.00200829 -0.0116119 0.0042973)
(0.00202681 -0.0121665 0.00444488)
(0.00205547 -0.0117891 0.00441447)
(0.00208841 -0.0116581 0.00431153)
(0.00185091 -0.0113663 0.00411136)
(0.00212348 -0.0115334 0.00388538)
(0.00193288 -0.0116327 0.00422693)
(0.00183258 -0.0109936 0.00402466)
(0.00202668 -0.0116139 0.00428843)
(0.00208446 -0.0114118 0.00388748)
(0.00172999 -0.010683 0.00396173)
(0.0019273 -0.010864 0.00409068)
(0.00183587 -0.010831 0.00392452)
(0.00176361 -0.0118041 0.00442701)
(0.00192063 -0.011177 0.00426747)
(0.00225432 -0.0108693 0.00413838)
(0.0018718 -0.0114269 0.0042573)
(0.00211415 -0.0110253 0.00404954)
(0.00216468 -0.0111936 0.00435294)
(0.00223129 -0.011493 0.00431628)
(0.00172202 -0.0112078 0.00425445)
(0.00150925 -0.0103979 0.00380436)
(0.00156665 -0.0109352 0.00402975)
(0.00152949 -0.0102784 0.00382182)
(0.00193905 -0.0107683 0.00406894)
(0.00195188 -0.0106689 0.00393993)
(0.00179201 -0.0106701 0.00392612)
(0.00173707 -0.0105638 0.00391854)
(0.00198128 -0.0108377 0.00398795)
(0.00192286 -0.0108748 0.00401177)
(0.00187901 -0.0105405 0.00390641)
(0.0017267 -0.0108464 0.00409665)
(0.00206329 -0.0100907 0.00382102)
(0.00198849 -0.010582 0.00407366)
(0.00181832 -0.0107973 0.00400507)
(0.00189896 -0.0105436 0.003963)
(0.00206335 -0.0115473 0.0041953)
(0.00216267 -0.0111886 0.00398384)
(0.00205056 -0.0112944 0.00419792)
(0.00202194 -0.0114628 0.00418002)
(0.00211016 -0.0109414 0.00372111)
(0.00198065 -0.0110917 0.00405974)
(0.00177493 -0.0106754 0.00398242)
(0.00209683 -0.0108732 0.00383455)
(0.00198647 -0.0114442 0.00429378)
(0.00192872 -0.0113538 0.00422979)
(0.00202503 -0.0112612 0.00428069)
(0.00199336 -0.0113303 0.00419501)
(0.00199023 -0.0112559 0.00413451)
(0.00214736 -0.0115558 0.00431872)
(0.00229708 -0.0121074 0.00462039)
(0.00205643 -0.0119919 0.00438384)
(0.00220146 -0.0120268 0.00477481)
(0.00186254 -0.0117287 0.004443)
(0.00205469 -0.0121917 0.00435167)
(0.00187802 -0.011692 0.00440463)
(0.00184211 -0.0114108 0.00412321)
(0.0019484 -0.0116694 0.00436371)
(0.00204099 -0.0117218 0.00432224)
(0.00197031 -0.0117959 0.00422267)
(0.00198845 -0.0119435 0.0044189)
(0.00187357 -0.0116637 0.00435835)
(0.00184143 -0.0114021 0.00412888)
(0.00169892 -0.0113802 0.00393878)
(0.00191674 -0.0115571 0.00411106)
(0.001793 -0.0111805 0.00384422)
(0.00166945 -0.0109283 0.00399209)
(0.00204348 -0.0117748 0.00426589)
(0.00173213 -0.0113652 0.00402487)
(0.00180386 -0.0114492 0.00460548)
(0.00211059 -0.011655 0.00464026)
(0.00186784 -0.0113351 0.00436109)
(0.00182129 -0.0111988 0.00420405)
(0.00186034 -0.0113931 0.00414698)
(0.00192364 -0.0115298 0.00435781)
(0.00190805 -0.0111096 0.00426174)
(0.00202898 -0.0114901 0.00408497)
(0.00203583 -0.0113707 0.00415785)
(0.00211612 -0.0119047 0.00454735)
(0.00216548 -0.0122811 0.00418579)
(0.00181959 -0.0114191 0.00404075)
(0.00179874 -0.0120297 0.00408951)
(0.00187151 -0.0118145 0.0041753)
(0.00183533 -0.0116161 0.00417062)
(0.00192954 -0.011839 0.00417415)
(0.00189167 -0.0117673 0.00428884)
(0.00157979 -0.0106639 0.00373951)
(0.00191518 -0.0116662 0.00449045)
(0.00152611 -0.0107133 0.0037051)
(0.00152802 -0.011074 0.00391767)
(0.00172478 -0.011391 0.00394335)
(0.00187624 -0.0116471 0.0043716)
(0.00177227 -0.0115928 0.00409738)
(0.00161114 -0.0116721 0.00435702)
(0.00178722 -0.0114615 0.00413866)
(0.00164752 -0.0120084 0.00436023)
(0.00168501 -0.0115852 0.00426418)
(0.00185313 -0.0113673 0.00406867)
(0.00193615 -0.0118412 0.00445781)
(0.00176458 -0.011712 0.00431843)
(0.00197556 -0.0116692 0.00430399)
(0.00173716 -0.0116661 0.00431834)
(0.00209053 -0.0114552 0.00421198)
(0.00201773 -0.0113393 0.00427392)
(0.00179505 -0.0111051 0.00405559)
(0.00191944 -0.0118779 0.00453156)
(0.00175797 -0.0115698 0.00437726)
(0.00215008 -0.0114617 0.00435913)
(0.00162948 -0.0115838 0.00425551)
(0.00180682 -0.0116305 0.00420231)
(0.00201001 -0.0114817 0.00429141)
(0.00181852 -0.0121437 0.00446742)
(0.00187326 -0.011931 0.00435639)
(0.00206824 -0.011973 0.00467059)
(0.00195613 -0.0117051 0.00432501)
(0.00176841 -0.0112188 0.00404805)
(0.00170765 -0.0116676 0.0042898)
(0.00197826 -0.0111906 0.00419763)
(0.0017787 -0.0110124 0.00403609)
(0.00207606 -0.0116064 0.00419262)
(0.00185104 -0.0112318 0.00404302)
(0.00188568 -0.0108284 0.00401283)
(0.0020172 -0.0113636 0.00407364)
(0.00206459 -0.0115006 0.00423398)
(0.00201338 -0.0116197 0.00427934)
(0.00205012 -0.0109163 0.0038993)
(0.00212341 -0.0114128 0.00410782)
(0.00210231 -0.0113576 0.00418008)
(0.00213543 -0.0114735 0.00418208)
(0.00203982 -0.0114069 0.00423757)
(0.00206302 -0.0113694 0.00417648)
(0.00205615 -0.0112588 0.00414093)
(0.00208843 -0.0116873 0.00433346)
(0.00204985 -0.0115199 0.00407418)
(0.00192356 -0.0114197 0.00429919)
(0.00180452 -0.0115305 0.00436233)
(0.00191361 -0.0111517 0.00411713)
(0.00201051 -0.0113572 0.004223)
(0.00207558 -0.0116908 0.00425346)
(0.001945 -0.0110859 0.00402427)
(0.00187678 -0.0111625 0.00425006)
(0.00173682 -0.0106332 0.00386475)
(0.00163839 -0.0107185 0.00403782)
(0.00197613 -0.0110371 0.00401179)
(0.00205178 -0.011195 0.00416556)
(0.00211973 -0.0113852 0.00423436)
(0.0019155 -0.0113276 0.00429267)
(0.00199501 -0.0110676 0.00418893)
(0.00199644 -0.011135 0.00416688)
(0.0016195 -0.0110026 0.00407896)
(0.00201891 -0.0118339 0.00440613)
(0.00193266 -0.0121018 0.00445863)
(0.00189849 -0.012015 0.00456588)
(0.00205182 -0.0116886 0.00427151)
(0.0021012 -0.0120054 0.0043974)
(0.00203316 -0.011864 0.00444981)
(0.00200243 -0.0114895 0.00414828)
(0.00192959 -0.011714 0.00432703)
(0.00199874 -0.0115012 0.0040991)
(0.00191699 -0.0112512 0.00421781)
(0.00200152 -0.0118115 0.00442566)
(0.00209884 -0.0117253 0.00409062)
(0.00205079 -0.011389 0.00399992)
(0.00189765 -0.0112352 0.0039436)
(0.00192056 -0.0117127 0.00429265)
(0.00212243 -0.0116959 0.00400587)
(0.00195954 -0.0112266 0.00386784)
(0.00206891 -0.0116992 0.00393343)
(0.00173641 -0.0111595 0.00421477)
(0.00194901 -0.0113419 0.00416277)
(0.00183348 -0.0123402 0.00448824)
(0.00167435 -0.0108393 0.00414258)
(0.00169867 -0.0122795 0.0043273)
(0.00215122 -0.0113908 0.00437627)
(0.00171263 -0.0116128 0.00370668)
(0.00176876 -0.010975 0.00361576)
(0.00190427 -0.0111324 0.00413357)
(0.00180974 -0.0113522 0.00391066)
(0.00185211 -0.011021 0.00389054)
(0.00172805 -0.0111738 0.00364796)
(0.00199799 -0.0116244 0.004487)
(0.00183027 -0.0110439 0.0040081)
(0.00232908 -0.011693 0.00449385)
(0.00186101 -0.0115307 0.00433819)
(0.00199351 -0.0113768 0.0041802)
(0.00192873 -0.011351 0.00424656)
(0.00194218 -0.0118724 0.00441516)
(0.00211029 -0.0116721 0.00452294)
(0.00180906 -0.0119106 0.00442843)
(0.00213199 -0.012018 0.0047729)
(0.00202412 -0.0116411 0.00448433)
(0.00215359 -0.0118057 0.00481884)
(0.00213877 -0.011366 0.00425383)
(0.00200674 -0.0118305 0.0043902)
(0.00198276 -0.0116207 0.00430233)
(0.00202304 -0.0119705 0.00446383)
(0.00213196 -0.0115357 0.0044268)
(0.00225761 -0.0120237 0.00460821)
(0.00181575 -0.0113754 0.00411501)
(0.0018988 -0.0112776 0.00436728)
(0.00182923 -0.011097 0.00397365)
(0.0019027 -0.0117596 0.0044588)
(0.00182324 -0.011089 0.00422165)
(0.00177844 -0.011528 0.00416637)
(0.00188564 -0.0120573 0.0044387)
(0.0019218 -0.0119049 0.00441371)
(0.00200704 -0.0120796 0.00447511)
(0.0019498 -0.0125209 0.00464139)
(0.00209479 -0.0120925 0.00446132)
(0.00192833 -0.0118214 0.00446144)
(0.00177815 -0.012223 0.00445693)
(0.00160296 -0.0122875 0.0043359)
(0.00192689 -0.0124798 0.00442197)
(0.00192011 -0.0127049 0.00434179)
(0.00174333 -0.0123708 0.00444618)
(0.0017394 -0.0118934 0.00417086)
(0.00211151 -0.0123015 0.004429)
(0.00193214 -0.0117262 0.0043241)
(0.00187381 -0.011942 0.00439119)
(0.00216847 -0.0119866 0.004533)
(0.00176041 -0.0119432 0.00438531)
(0.00205918 -0.0125508 0.0045144)
(0.00199631 -0.0119103 0.00441611)
(0.00198143 -0.0122633 0.00452512)
(0.00192649 -0.0119237 0.00439607)
(0.00208786 -0.0119421 0.00431018)
(0.00200696 -0.0119438 0.00434792)
(0.00190432 -0.0118526 0.00447974)
(0.00217692 -0.0122461 0.00454058)
(0.00178712 -0.0121639 0.00446695)
(0.00192991 -0.0123198 0.00447344)
(0.00194057 -0.0117745 0.00435278)
(0.00199992 -0.0121575 0.00444022)
(0.0019561 -0.0125278 0.00458296)
(0.00187523 -0.0120271 0.00442713)
(0.00210577 -0.0120208 0.00450343)
(0.00190462 -0.0118113 0.00439961)
(0.00209108 -0.0119421 0.00443128)
(0.00192586 -0.0118242 0.00442617)
(0.00188403 -0.0124537 0.00448377)
(0.00189568 -0.0125165 0.00456415)
(0.00174092 -0.0118772 0.004384)
(0.00175537 -0.0122122 0.0044553)
(0.00181858 -0.0122916 0.00440609)
(0.0018526 -0.0121494 0.00443148)
(0.00180716 -0.0117041 0.00428082)
(0.00195073 -0.0118483 0.00430777)
(0.00169937 -0.0115816 0.00423771)
(0.00181044 -0.0115318 0.00423313)
(0.00200847 -0.011854 0.00435979)
(0.00187932 -0.011678 0.00437166)
(0.00199062 -0.0120063 0.00451079)
(0.0019467 -0.0118528 0.00458951)
(0.00199764 -0.0116953 0.00427702)
(0.00198717 -0.0119366 0.00450914)
(0.00201449 -0.0118059 0.0043622)
(0.00175919 -0.0119244 0.00447916)
(0.00175143 -0.0122465 0.0045097)
(0.00204189 -0.011777 0.00454407)
(0.00198603 -0.0116273 0.00430032)
(0.00178717 -0.0112766 0.00410878)
(0.00166874 -0.0113386 0.0039877)
(0.00175157 -0.0113334 0.00404453)
(0.00159353 -0.0111227 0.0038952)
(0.00161238 -0.011558 0.00410132)
(0.00178261 -0.0115167 0.00417203)
(0.00209603 -0.0121458 0.00419571)
(0.00163412 -0.0112382 0.00394306)
(0.00204316 -0.0109359 0.00413209)
(0.00171545 -0.0112901 0.0040351)
(0.00192461 -0.0121264 0.00437826)
(0.00206874 -0.0112233 0.00422837)
(0.00185854 -0.011167 0.00419558)
(0.00240314 -0.0114865 0.00430611)
(0.00183699 -0.0116527 0.00436773)
(0.00183754 -0.0117155 0.00426012)
(0.00214233 -0.011797 0.00435127)
(0.00200427 -0.0113013 0.00428202)
(0.00171945 -0.0109814 0.00360009)
(0.00201827 -0.0113121 0.00404745)
(0.00183326 -0.0106891 0.0038045)
(0.00204698 -0.0113119 0.00382859)
(0.00195541 -0.0111106 0.0037101)
(0.00213787 -0.0114946 0.00385782)
(0.00204619 -0.0114696 0.00398035)
(0.00182546 -0.0117773 0.00443283)
(0.00191259 -0.0119047 0.00410198)
(0.00190065 -0.0116182 0.00409564)
(0.00199064 -0.011852 0.00432994)
(0.00188797 -0.0116112 0.00418403)
(0.0017925 -0.0113755 0.00416567)
(0.00202544 -0.0112102 0.00396206)
(0.00194054 -0.0110854 0.00382875)
(0.00188722 -0.0106763 0.00392444)
(0.00198916 -0.0109534 0.00408424)
(0.00203817 -0.0111997 0.00398383)
(0.00201178 -0.01141 0.00397527)
(0.00198966 -0.0113677 0.00422071)
(0.00189782 -0.0114933 0.00386608)
(0.00171312 -0.0108017 0.0038595)
(0.00195782 -0.0116807 0.00379416)
(0.0017271 -0.0107104 0.00414214)
(0.00186678 -0.0109705 0.00406097)
(0.00180753 -0.0107614 0.00411741)
(0.00167875 -0.0110047 0.00440099)
(0.00169378 -0.0104217 0.00391918)
(0.00175895 -0.0108297 0.00391805)
(0.00175271 -0.0106466 0.00402529)
(0.00181137 -0.0107541 0.00395443)
(0.00175204 -0.0107963 0.00405036)
(0.0017477 -0.0105785 0.00394577)
(0.00180414 -0.0105737 0.00401405)
(0.00175906 -0.0105966 0.00398834)
(0.00154399 -0.0108464 0.00411685)
(0.0015129 -0.0113488 0.00438415)
(0.00149031 -0.0109807 0.00412898)
(0.00160695 -0.0113031 0.00426918)
(0.00156927 -0.0112373 0.00417017)
(0.00182209 -0.0107169 0.00384629)
(0.00180074 -0.0108297 0.00390563)
(0.00180802 -0.0114412 0.00426946)
(0.00178966 -0.0106421 0.00388457)
(0.00172264 -0.0108328 0.00399513)
(0.00181283 -0.0108162 0.0041181)
(0.00209581 -0.0113334 0.00368245)
(0.00213356 -0.0118593 0.00392746)
(0.00177923 -0.0112123 0.00395585)
(0.00202321 -0.0111785 0.00405744)
(0.00185763 -0.01083 0.00406791)
(0.00187223 -0.0107533 0.00390614)
(0.00179285 -0.0106939 0.00415338)
(0.0018992 -0.0109002 0.00396178)
(0.00180551 -0.0106003 0.00392075)
(0.00161611 -0.0107953 0.00417142)
(0.00198226 -0.0117451 0.00419054)
(0.00178272 -0.0110066 0.00421452)
(0.00174439 -0.0109516 0.00387092)
(0.00195868 -0.0115254 0.00395768)
(0.0017741 -0.0115107 0.00453415)
(0.00190067 -0.0115667 0.0043719)
(0.00173463 -0.0109204 0.00400163)
(0.00188058 -0.0116813 0.00411099)
(0.00197823 -0.0112723 0.00417425)
(0.00200435 -0.0109595 0.00387707)
(0.00185811 -0.011559 0.00442551)
(0.00189596 -0.0117341 0.00440876)
(0.00184509 -0.0115668 0.0045422)
(0.00189087 -0.0116035 0.00437884)
(0.00194516 -0.0115961 0.00437682)
(0.00181822 -0.0115432 0.00445741)
(0.00180024 -0.0117515 0.00386324)
(0.00182756 -0.0111744 0.00387148)
(0.00165152 -0.0112667 0.0035195)
(0.00175062 -0.0118062 0.00380391)
(0.00168907 -0.0107078 0.00394658)
(0.00186948 -0.011628 0.00407299)
(0.00210394 -0.0113671 0.00403356)
(0.00186993 -0.0111955 0.00418383)
(0.00187103 -0.0107804 0.00405026)
(0.00187618 -0.0111677 0.003782)
(0.00182447 -0.0109444 0.00373319)
(0.0019084 -0.0106967 0.00401472)
(0.00152128 -0.0108594 0.00424977)
(0.00178871 -0.0108671 0.00403115)
(0.00168069 -0.0111337 0.00412334)
(0.00173464 -0.0111307 0.00416422)
(0.00155666 -0.0106757 0.0040659)
(0.00159509 -0.0107483 0.00409939)
(0.00178106 -0.0111999 0.0042995)
(0.0018833 -0.010643 0.00397628)
(0.00183335 -0.0111196 0.00428526)
(0.00177414 -0.0112955 0.00431957)
(0.00169031 -0.0110587 0.004263)
(0.00178367 -0.0112655 0.00417979)
(0.00181408 -0.0111026 0.0040275)
(0.00183334 -0.0111927 0.00394889)
(0.00201521 -0.0114335 0.00393857)
(0.00192505 -0.0110954 0.00396415)
(0.00208308 -0.011569 0.00423234)
(0.00185954 -0.0109955 0.00392377)
(0.0020079 -0.0112942 0.00423964)
(0.00187399 -0.0107383 0.00397944)
(0.00191606 -0.0108306 0.00390683)
(0.00203603 -0.0111838 0.00388901)
(0.00198502 -0.0111016 0.00391465)
(0.00191699 -0.0107935 0.00385276)
(0.00180782 -0.011068 0.00413505)
(0.0019955 -0.0110941 0.00413938)
(0.00201315 -0.0111389 0.00407131)
(0.00193636 -0.0111145 0.00413298)
(0.00185729 -0.0105672 0.00392597)
(0.0019367 -0.0109586 0.00412224)
(0.00184056 -0.0109613 0.0041255)
(0.00191477 -0.0113936 0.00438249)
(0.00199738 -0.0115334 0.00437585)
(0.00195749 -0.0116941 0.00435028)
(0.00201154 -0.0116384 0.00435355)
(0.00200142 -0.0113738 0.00420166)
(0.00201231 -0.0115401 0.00421869)
(0.00194273 -0.0118066 0.00437473)
(0.00198458 -0.0114853 0.00423248)
(0.00201789 -0.0116256 0.00426739)
(0.00197488 -0.0114415 0.00415498)
(0.00199179 -0.0116504 0.00423994)
(0.00204146 -0.0115575 0.00420198)
(0.00200982 -0.0115274 0.00422251)
(0.00204734 -0.0113734 0.00413547)
(0.00216538 -0.0119051 0.0043475)
(0.00199669 -0.0117601 0.00440197)
(0.00198247 -0.0118543 0.00446367)
(0.00188475 -0.0114604 0.0042779)
(0.00204998 -0.0117218 0.00428968)
(0.00217435 -0.0119702 0.00438323)
(0.00172846 -0.0108373 0.00403646)
(0.00176023 -0.0113948 0.0044302)
(0.00213004 -0.0115943 0.00424043)
(0.00206958 -0.0122444 0.00449669)
(0.00195075 -0.0116053 0.00423908)
(0.0019873 -0.011689 0.00446854)
(0.00194205 -0.0115618 0.00433004)
(0.00188109 -0.0114066 0.00439037)
(0.00187101 -0.0116823 0.00450777)
(0.00184719 -0.0113193 0.00414396)
(0.00187308 -0.0107724 0.00390099)
(0.00193931 -0.0113929 0.00408369)
(0.00181714 -0.0108379 0.00367625)
(0.00195998 -0.0112039 0.00413541)
(0.00164162 -0.0108804 0.00384833)
(0.0019786 -0.0113808 0.00413832)
(0.0019123 -0.0113565 0.00432241)
(0.00193665 -0.011176 0.00434884)
(0.00172673 -0.0112493 0.00441433)
(0.00199586 -0.0115898 0.00417804)
(0.00181215 -0.0110786 0.00412579)
(0.00205895 -0.0116299 0.00419193)
(0.0015044 -0.0110093 0.00403912)
(0.00161005 -0.0114209 0.00426596)
(0.00146067 -0.0112718 0.00418)
(0.00174613 -0.0109882 0.00412008)
(0.00175153 -0.0105176 0.00398646)
(0.00151226 -0.0106368 0.00412909)
(0.00159605 -0.0110531 0.00423254)
(0.00170716 -0.0107243 0.00406408)
(0.00173143 -0.0107946 0.00409914)
(0.00176409 -0.0108061 0.0041921)
(0.00180997 -0.0105939 0.00396919)
(0.00173894 -0.0108 0.00402362)
(0.00184872 -0.0110046 0.0040661)
(0.00186988 -0.0109866 0.00405898)
(0.00177628 -0.0112655 0.00414895)
(0.00173883 -0.0111059 0.00417937)
(0.00179653 -0.0109629 0.00422702)
(0.00174525 -0.010637 0.00397173)
(0.002023 -0.0115741 0.00421918)
(0.00189618 -0.0110938 0.0040045)
(0.00194127 -0.0109308 0.00381683)
(0.00165198 -0.0103326 0.00404825)
(0.00179563 -0.0109847 0.00418984)
(0.00178218 -0.0106539 0.00398277)
(0.00173725 -0.0109323 0.00427718)
(0.00172068 -0.0109237 0.00416622)
(0.00179549 -0.0108282 0.00414365)
(0.00156416 -0.0108375 0.00414758)
(0.00187531 -0.0113658 0.00429587)
(0.00180489 -0.0108675 0.00412296)
(0.00167008 -0.0106464 0.0040577)
(0.00160696 -0.0106676 0.00412997)
(0.00152147 -0.0103953 0.00400559)
(0.00167948 -0.0107533 0.00402208)
(0.00183601 -0.0113364 0.00427852)
(0.00157941 -0.0107434 0.00407888)
(0.0019403 -0.0119263 0.00450677)
(0.00169075 -0.0110371 0.00411598)
(0.00153574 -0.0113742 0.00427829)
(0.00173483 -0.0115229 0.00444226)
(0.00153008 -0.0111983 0.00434619)
(0.00151182 -0.0112874 0.0043887)
(0.00157815 -0.0107153 0.00410151)
(0.00189419 -0.0111788 0.00422601)
(0.00190546 -0.0112733 0.00407785)
(0.00176929 -0.0112158 0.0042676)
(0.00190859 -0.0114185 0.00419272)
(0.00188664 -0.0107737 0.00391005)
(0.001918 -0.0112894 0.00411861)
(0.00199561 -0.0112401 0.00396747)
(0.00199494 -0.0110817 0.0038766)
(0.00170727 -0.0109139 0.00421565)
(0.00185162 -0.0111859 0.00434636)
(0.00196978 -0.0111472 0.00395114)
(0.00195412 -0.0114504 0.00415988)
(0.00194399 -0.0115523 0.0044462)
(0.00182159 -0.0107264 0.00415275)
(0.00149429 -0.0106346 0.00411457)
(0.00164455 -0.0107096 0.00410859)
(0.0021073 -0.0112487 0.00392551)
(0.00178047 -0.0121644 0.00480655)
(0.00180298 -0.0112383 0.00415774)
(0.00203928 -0.0116477 0.00446681)
(0.00184195 -0.0104489 0.00385284)
(0.00175689 -0.0110632 0.0041458)
(0.00175336 -0.0107813 0.00401545)
(0.00166993 -0.0112017 0.00406958)
(0.00170919 -0.0111041 0.00416297)
(0.00212436 -0.0113759 0.0041733)
(0.00181815 -0.0108568 0.0040193)
(0.00210894 -0.0116414 0.00402256)
(0.00194886 -0.0116316 0.00402609)
(0.00201091 -0.0111885 0.00376347)
(0.00212481 -0.0115294 0.00414297)
(0.00208131 -0.0115008 0.00400514)
(0.00192072 -0.0116769 0.0042913)
(0.00216106 -0.0119784 0.00436195)
(0.0020552 -0.0118543 0.00437089)
(0.00227561 -0.012249 0.00458218)
(0.00200938 -0.0113937 0.00434539)
(0.00202227 -0.0115492 0.00442351)
(0.00192677 -0.0107394 0.00410122)
(0.00184949 -0.0109579 0.00368401)
(0.00172526 -0.0109752 0.00381002)
(0.00167203 -0.010959 0.00376081)
(0.00179878 -0.0111673 0.00357268)
(0.00152914 -0.0113523 0.00383729)
(0.0017201 -0.0112615 0.00409034)
(0.00153612 -0.0110078 0.00354816)
(0.00237715 -0.0123391 0.00447779)
(0.00185953 -0.0108207 0.00427521)
(0.0020255 -0.0122789 0.00472576)
(0.00174681 -0.0120547 0.00429774)
(0.00211325 -0.0119405 0.00433265)
(0.00194134 -0.010886 0.00391678)
(0.0018237 -0.0116832 0.00418228)
(0.00171929 -0.0115638 0.00419458)
(0.00172698 -0.0117455 0.00423763)
(0.00192981 -0.0117645 0.0043055)
(0.00156659 -0.0113815 0.00411715)
(0.00177993 -0.0120761 0.00432565)
(0.00225699 -0.0104396 0.00412395)
(0.0017861 -0.0112423 0.00393583)
(0.00194648 -0.0112768 0.00418386)
(0.00201062 -0.0108426 0.00412594)
(0.00188734 -0.0110487 0.00409901)
(0.00173538 -0.0110645 0.00408176)
(0.00206371 -0.0112666 0.00435219)
(0.00189913 -0.0111704 0.0042069)
(0.00172321 -0.0112186 0.00416634)
(0.00171443 -0.0111696 0.00390566)
(0.00163615 -0.0110048 0.00380163)
(0.00209764 -0.0120853 0.00437476)
(0.00162231 -0.0118341 0.00442644)
(0.00187477 -0.0115125 0.00434752)
(0.00190897 -0.0118878 0.0044393)
(0.00184117 -0.0118861 0.00440958)
(0.00196134 -0.0117499 0.00443966)
(0.00183229 -0.0120908 0.00442941)
(0.00201847 -0.0124392 0.00451374)
(0.00182982 -0.0122434 0.00435431)
(0.00181076 -0.0120378 0.00440315)
(0.00211504 -0.0123734 0.00458936)
(0.00191062 -0.0116902 0.00440667)
(0.00198005 -0.012025 0.00442236)
(0.00210566 -0.0120962 0.00451201)
(0.0020679 -0.0118696 0.00439651)
(0.0019602 -0.0116087 0.00434333)
(0.00172058 -0.011839 0.00441539)
(0.00182381 -0.0119415 0.00452886)
(0.00203168 -0.0114286 0.00435665)
(0.00203579 -0.0116824 0.00432217)
(0.00210262 -0.0120327 0.00447595)
(0.0017366 -0.0117751 0.00425229)
(0.00184718 -0.0110162 0.00415466)
(0.00187541 -0.0116672 0.00440937)
(0.00207211 -0.0120457 0.00439332)
(0.00166917 -0.0117501 0.00425676)
(0.00179857 -0.0117765 0.00427419)
(0.00183835 -0.0116854 0.00435597)
(0.00212094 -0.0118739 0.00431325)
(0.00195081 -0.0117147 0.00432564)
(0.00180321 -0.0120478 0.00449016)
(0.00197486 -0.0119055 0.00446826)
(0.0016624 -0.0113815 0.00410176)
(0.00188089 -0.0118237 0.00426532)
(0.00173926 -0.0118288 0.00407488)
(0.00174929 -0.0117469 0.00429606)
(0.0017883 -0.0122315 0.00440222)
(0.00186464 -0.011855 0.00428493)
(0.00175936 -0.012511 0.00442526)
(0.00214991 -0.0121205 0.00444648)
(0.00191524 -0.0122952 0.00456306)
(0.002149 -0.0117414 0.00448769)
(0.0021174 -0.0123334 0.00445722)
(0.00204852 -0.0117289 0.00439451)
(0.00193131 -0.011422 0.00437463)
(0.00188404 -0.0122629 0.00466825)
(0.00197636 -0.0118849 0.00454447)
(0.00187336 -0.0118534 0.00453923)
(0.00175735 -0.0120564 0.00454672)
(0.00217184 -0.0121562 0.00452036)
(0.00193484 -0.01219 0.00451039)
(0.00193243 -0.0120166 0.00463203)
(0.00202865 -0.0128426 0.00474303)
(0.00197221 -0.0124219 0.00461596)
(0.0019354 -0.0122355 0.00458455)
(0.00187179 -0.0114179 0.00404387)
(0.00180239 -0.011631 0.00422595)
(0.00203985 -0.0123896 0.00475292)
(0.00194873 -0.0123015 0.0046592)
(0.00185441 -0.0115985 0.0041982)
(0.00186632 -0.0111165 0.00366654)
(0.00196839 -0.011425 0.00370812)
(0.00184048 -0.0110664 0.00401474)
(0.00193342 -0.0111524 0.00379643)
(0.00191965 -0.0109532 0.00382371)
(0.00190497 -0.0110801 0.00350649)
(0.0018852 -0.0112313 0.00373986)
(0.00206776 -0.0113407 0.00387994)
(0.00193691 -0.010838 0.00388516)
(0.00176879 -0.0108339 0.00380563)
(0.00178267 -0.0113498 0.00396541)
(0.0018592 -0.0106418 0.00343927)
(0.00185012 -0.0110557 0.00386679)
(0.00190411 -0.0114051 0.00359329)
(0.00200772 -0.0112557 0.00388872)
(0.00192625 -0.0113832 0.00388501)
(0.00192756 -0.0114104 0.00383221)
(0.0019704 -0.0112763 0.00392636)
(0.00198444 -0.0114597 0.00426856)
(0.00201394 -0.0117952 0.00457197)
(0.00196302 -0.0117112 0.00428337)
(0.00203213 -0.0117096 0.00405957)
(0.00195847 -0.0115376 0.00410304)
(0.00194043 -0.0117426 0.00415779)
(0.00188517 -0.0110344 0.00406939)
(0.00207981 -0.0114989 0.00434165)
(0.00199056 -0.0118618 0.00439437)
(0.00189531 -0.0111673 0.00428373)
(0.00188129 -0.0116635 0.00431769)
(0.00204394 -0.012015 0.00466685)
(0.00200021 -0.0113603 0.00440167)
(0.00192079 -0.0114904 0.00426156)
(0.0018666 -0.0112926 0.00433572)
(0.00173961 -0.0118289 0.00442064)
(0.00202291 -0.0117593 0.00431577)
(0.00171453 -0.0111934 0.00393424)
(0.00168441 -0.0114349 0.00401501)
(0.00197462 -0.0115097 0.00450145)
(0.00200913 -0.0116826 0.00411347)
(0.00186893 -0.0117785 0.00438356)
(0.00194761 -0.0114591 0.00421524)
(0.00177525 -0.0115948 0.00454197)
(0.00174001 -0.0112367 0.00389892)
(0.00198111 -0.0117438 0.00408629)
(0.00153272 -0.0109572 0.00390169)
(0.00180329 -0.0117918 0.00438842)
(0.00193175 -0.011754 0.00433334)