/*--------------------------------*- C++ -*----------------------------------*\
| =========                 |                                                 |
| \\      /  F ield         | OpenFOAM: The Open Source CFD Toolbox           |
|  \\    /   O peration     | Version:  v1612+                                |
|   \\  /    A nd           | Web:      www.OpenFOAM.com                      |
|    \\/     M anipulation  |                                                 |
\*---------------------------------------------------------------------------*/
FoamFile
{
    version     2.0;
    format      ascii;
    class       surfaceScalarField;
    location    "118";
    object      phi;
}
// * * * * * * * * * * * * * * * * * * * * * * * * * * * * * * * * * * * * * //

dimensions      [0 3 -1 0 0 0 0];

internalField   nonuniform List<scalar> 
45887
(
-2.72082e-10
-9.42665e-09
4.69528e-09
5.00345e-09
6.26909e-09
-2.69252e-09
-8.77202e-10
-2.69937e-09
3.24378e-09
-2.62127e-09
-7.05576e-10
8.30601e-11
-6.70114e-09
-6.95062e-09
9.84941e-09
3.80235e-09
-6.38036e-10
6.55827e-09
2.80455e-09
-8.72478e-09
-6.48535e-09
3.03756e-09
1.18403e-08
-8.39252e-09
2.45923e-10
-3.91794e-09
3.57651e-09
9.54968e-11
-2.72123e-09
1.65688e-09
3.59284e-09
-2.5285e-09
-4.73032e-09
7.57668e-09
-2.94189e-09
9.55321e-11
-1.39061e-09
-4.60813e-09
-2.49236e-09
8.4911e-09
2.16027e-09
2.77037e-09
-3.86677e-10
-4.54396e-09
1.93996e-09
-1.98592e-09
3.79452e-09
-3.74855e-09
-5.13806e-10
2.18747e-09
-1.11756e-08
9.5019e-09
-1.57297e-09
-3.21395e-10
2.89602e-09
-1.00166e-09
-4.71031e-12
3.96802e-09
-8.13394e-09
4.17064e-09
-6.82241e-09
6.64887e-10
6.1614e-09
-3.87602e-12
2.88575e-09
3.72337e-09
-4.12059e-09
-2.48853e-09
2.77942e-09
-2.02656e-09
-7.36127e-10
-1.67298e-11
1.30702e-08
-9.36963e-09
-3.11962e-09
-5.80981e-10
5.32692e-09
2.96256e-09
-8.25083e-09
-3.86478e-11
3.81323e-10
-5.62296e-09
-2.40729e-09
7.64892e-09
1.40306e-09
-5.54473e-09
4.1894e-09
-4.77353e-11
-5.73872e-09
6.07927e-09
4.69813e-09
-5.03868e-09
2.33279e-09
5.72919e-09
-2.82119e-09
3.34487e-09
7.70325e-10
-1.29401e-09
1.04008e-08
-7.79859e-09
-5.42339e-09
9.06711e-09
-3.8858e-09
1.45618e-10
-3.33504e-09
4.62258e-09
1.15519e-10
-3.86988e-09
4.34858e-09
-2.95747e-09
2.47877e-09
-1.82918e-09
1.95129e-09
-1.38012e-10
1.59006e-11
2.3517e-09
-9.55719e-10
-1.36869e-09
-2.72925e-11
4.43782e-09
-3.28096e-09
2.37646e-09
-3.53332e-09
9.49872e-10
-1.13125e-09
-2.75843e-09
2.93982e-09
1.60923e-09
-9.96609e-10
1.03332e-09
-1.64595e-09
2.79998e-09
4.62696e-09
-7.09543e-09
-3.31515e-10
4.88754e-11
4.61541e-09
-6.23007e-09
1.56578e-09
-9.8076e-09
1.23905e-08
-5.59976e-09
3.0169e-09
-6.17371e-09
3.87263e-10
3.32668e-09
2.45976e-09
3.32129e-09
-6.37564e-09
9.09058e-09
-6.03623e-09
1.24243e-09
8.01644e-09
-6.51615e-09
-2.74272e-09
-1.90374e-09
-1.91109e-09
1.09359e-09
-1.41573e-09
-3.05067e-09
4.32119e-09
1.45219e-10
-5.19032e-09
2.99594e-09
2.28607e-09
-9.16871e-11
-1.12502e-09
1.3678e-09
-4.33708e-09
4.09429e-09
-3.09044e-09
2.70679e-09
3.90306e-09
-3.5194e-09
3.78649e-09
1.26874e-10
-3.93974e-09
2.63784e-11
-8.15933e-09
6.21297e-09
7.16625e-09
-5.21989e-09
-5.06561e-09
7.38119e-09
-7.2818e-09
4.96621e-09
-6.98347e-09
3.53998e-09
1.62483e-09
1.81866e-09
-2.0845e-09
-2.67523e-09
3.35702e-09
1.40271e-09
-9.95612e-10
-4.21487e-09
3.88352e-09
1.32696e-09
2.46441e-09
3.72502e-10
-2.82597e-09
-1.09418e-11
-7.30978e-10
-4.58569e-09
1.49033e-09
3.82634e-09
4.43588e-09
7.32057e-09
-6.87554e-09
-4.88091e-09
7.00999e-10
5.83848e-09
-1.63035e-08
9.76405e-09
3.62545e-09
-1.84811e-09
-1.85414e-09
7.68118e-11
-8.92048e-10
-9.18026e-10
1.82896e-09
-1.88839e-11
2.90986e-09
4.1515e-09
-6.98211e-09
-7.92432e-11
-1.4476e-09
7.48073e-09
-3.14737e-09
-8.51365e-10
2.23827e-09
4.09938e-09
-5.48628e-09
2.61653e-10
-1.98442e-09
1.83202e-09
-1.09252e-10
-2.18623e-09
-6.75953e-10
3.2435e-09
-2.10068e-09
8.76549e-10
-9.62097e-10
-1.46096e-09
4.64937e-09
-5.81898e-09
2.63057e-09
1.30726e-09
-2.98857e-09
7.35912e-09
-8.82446e-09
1.92904e-09
3.80498e-09
2.19132e-09
-7.92822e-09
3.79169e-09
1.94521e-09
-3.20759e-09
-5.14011e-09
8.67831e-09
-3.30638e-10
9.87393e-10
2.13895e-10
5.6245e-09
-6.8258e-09
-2.45242e-09
1.51915e-09
-1.47677e-09
2.41003e-09
-2.87586e-10
-5.96567e-09
-2.76167e-09
9.01492e-09
5.15691e-09
4.35734e-09
-2.23451e-09
-7.27973e-09
-4.79506e-09
3.07834e-09
1.78198e-09
-6.52662e-11
2.95949e-09
-2.14759e-09
3.42153e-09
-4.23343e-09
-2.43118e-09
5.22297e-09
-6.98467e-09
4.19288e-09
-2.62467e-09
5.74782e-09
-4.32993e-10
-2.69016e-09
1.43394e-10
-5.95552e-09
1.62057e-09
4.19156e-09
-8.18131e-10
-2.16548e-09
2.93982e-09
4.37867e-11
-2.63311e-09
4.82334e-09
-2.22007e-09
2.98492e-11
1.72139e-10
5.45066e-09
-3.28878e-09
-2.33401e-09
3.11047e-09
-5.89552e-10
-3.26063e-09
7.3971e-10
-5.34413e-09
5.37248e-09
2.32248e-09
-2.35083e-09
7.04763e-09
5.79536e-10
-3.85426e-09
-3.77291e-09
-6.75311e-09
3.02101e-09
3.85445e-09
-1.22352e-10
1.41099e-09
6.80321e-10
-2.07982e-09
-1.15134e-11
1.12804e-09
9.62706e-10
-2.03396e-09
-5.6778e-11
-1.9134e-09
-1.49e-09
3.89673e-09
-4.93324e-10
2.05203e-09
6.52393e-09
-2.08296e-09
-6.493e-09
-2.72293e-10
3.81145e-09
-3.85962e-09
3.20465e-10
-4.57887e-09
4.87833e-09
3.15541e-09
-3.45488e-09
-3.27552e-09
6.79634e-09
-4.84558e-09
1.32476e-09
-5.88238e-09
9.7094e-09
-7.4315e-09
3.60448e-09
-4.08493e-09
-1.43552e-10
4.1118e-09
1.16681e-10
-7.50471e-09
6.71576e-09
-3.29597e-09
3.53605e-09
-8.95753e-10
-2.71713e-09
7.68347e-11
6.68635e-10
-5.7857e-10
-3.23999e-09
3.14992e-09
-3.29552e-09
-4.3487e-10
3.70839e-09
2.20088e-11
2.89567e-09
-7.36107e-09
4.45048e-09
1.49163e-11
5.37516e-09
-4.05383e-09
1.96505e-09
-3.28639e-09
-1.1513e-09
-5.53645e-09
3.36545e-09
3.3223e-09
7.09053e-10
-3.15744e-09
2.43647e-09
1.19057e-11
2.1403e-09
-5.25519e-09
3.15444e-09
-3.95416e-11
-5.6143e-11
7.69159e-09
-5.51362e-09
-2.12183e-09
-2.2646e-09
7.04277e-09
3.31522e-09
-1.95043e-10
3.63515e-09
9.07982e-11
-3.37881e-09
1.23298e-10
4.49708e-10
2.8058e-09
-2.0832e-10
-3.19182e-09
2.13287e-11
-5.13337e-10
-6.04794e-09
-1.2445e-11
1.47324e-09
-5.60315e-11
-1.32915e-09
-8.80498e-11
-2.14954e-09
1.89409e-09
-8.69578e-10
-2.44319e-09
2.64287e-10
6.50008e-09
-4.32118e-09
-4.11262e-09
4.36451e-09
-1.50975e-09
1.25784e-09
3.40219e-09
1.77512e-11
-3.46049e-09
4.05469e-11
1.03361e-09
5.02432e-09
-5.41159e-09
-6.46329e-10
-3.16382e-09
3.22425e-09
4.31332e-09
-4.37374e-09
1.7212e-09
-2.04611e-09
3.80211e-10
-5.52948e-11
-1.46105e-09
5.30563e-09
-4.96556e-09
1.12098e-09
4.54224e-09
-1.07284e-08
6.1452e-09
4.09586e-11
1.43189e-10
4.58473e-09
-7.83392e-09
5.6952e-09
-5.37876e-09
7.51748e-09
3.59825e-09
2.72112e-09
-8.69944e-10
-5.44942e-09
-4.66869e-10
-2.59005e-09
3.02196e-09
3.49538e-11
3.4356e-09
-1.2067e-09
-4.60891e-09
2.38002e-09
1.7712e-09
-3.78523e-09
-1.56343e-10
2.17037e-09
-4.02986e-09
1.77474e-09
4.26378e-10
1.82874e-09
4.2593e-09
-1.46972e-09
1.48555e-09
-4.27512e-09
5.93452e-09
-4.18789e-09
-4.00087e-09
2.25424e-09
8.88784e-10
2.69771e-09
-5.97903e-09
2.39254e-09
2.77477e-10
5.15238e-09
1.73467e-09
-7.16453e-09
3.50166e-09
2.17109e-09
1.25259e-09
-6.92533e-09
2.24702e-09
3.66488e-09
-3.78361e-09
-2.12828e-09
-3.3172e-10
-3.65992e-09
2.05892e-09
1.93272e-09
-5.26173e-09
7.42018e-10
1.15076e-10
4.40463e-09
-2.74967e-09
2.95438e-09
-2.84735e-10
8.00279e-11
-8.86792e-10
2.9901e-09
-3.79274e-09
1.68944e-09
6.68005e-09
-4.52309e-09
-3.03221e-09
8.75257e-10
-6.39466e-10
4.83086e-09
-7.49475e-09
3.30336e-09
-6.2612e-09
5.80781e-09
-5.09133e-09
-1.51434e-09
3.64594e-09
8.67273e-11
-3.27944e-09
4.30193e-09
5.34827e-09
-6.37077e-09
-3.95908e-09
-1.7457e-09
5.75835e-09
-5.35714e-11
5.24095e-10
-6.38504e-10
4.2489e-09
-4.13449e-09
-7.66203e-10
1.44054e-09
2.49941e-09
-3.17374e-09
-7.31942e-09
4.14361e-09
2.40961e-09
-8.78473e-10
2.7307e-09
-2.31755e-10
-1.62047e-09
1.45124e-09
2.01379e-09
-3.37306e-09
-9.19668e-11
-3.29417e-09
3.80603e-09
-4.88229e-09
4.37043e-09
2.09601e-09
-5.0833e-09
4.13555e-10
2.57374e-09
-3.20162e-09
-4.51046e-09
4.10906e-09
3.60302e-09
-1.44938e-09
-1.13749e-08
5.1298e-09
7.69452e-09
-3.02487e-09
4.9862e-09
1.56414e-09
-3.52548e-09
7.05338e-09
4.20559e-09
-4.42451e-09
-6.83446e-09
-2.56948e-09
-1.18965e-09
-2.50431e-09
6.17138e-09
-3.77404e-09
-6.01326e-09
3.61592e-09
9.08765e-10
-5.11499e-09
-3.37794e-09
7.58417e-09
-1.47418e-09
2.71063e-09
-1.44023e-09
2.03775e-10
-3.17359e-09
-2.77052e-10
4.11927e-09
-2.02068e-09
-5.0276e-09
2.5575e-09
-2.03921e-09
3.07627e-09
-1.06044e-09
2.33826e-11
-3.43046e-09
-2.26556e-11
-2.06402e-09
5.51713e-09
2.72531e-09
-4.02495e-09
6.39337e-09
-5.09373e-09
3.21512e-09
-4.80482e-09
3.28202e-09
-1.69232e-09
-3.07697e-09
8.30922e-09
1.5518e-09
-6.78405e-09
3.73922e-09
-1.36155e-10
6.68806e-09
5.72178e-09
-4.10062e-09
2.54592e-09
2.73506e-09
-5.23569e-09
-4.5284e-11
-2.2184e-09
2.36476e-09
-5.21197e-09
1.03469e-08
-5.5172e-09
-3.35427e-09
-1.47545e-09
-7.13708e-09
-3.73145e-09
1.05809e-08
5.17161e-09
-1.66822e-09
-4.03782e-09
5.34438e-10
-1.29282e-09
-1.45423e-09
1.15861e-09
1.58844e-09
-2.96629e-09
1.12637e-09
1.95815e-09
-1.18247e-10
-1.30129e-09
-7.62295e-10
-2.1154e-09
4.17899e-09
-1.65991e-09
-2.71048e-09
4.35355e-09
1.68397e-11
-8.67669e-09
-2.32474e-09
3.93993e-09
7.06151e-09
-7.28118e-10
-1.46841e-09
-2.70649e-09
4.90302e-09
5.57115e-09
-5.22087e-09
-3.54328e-10
4.04862e-12
5.45055e-09
4.43824e-09
-8.37626e-09
-1.51252e-09
-5.75266e-10
5.72327e-09
1.91199e-09
3.63889e-09
-2.35695e-09
-1.35744e-09
7.55013e-11
-1.57504e-09
2.40407e-09
2.80986e-09
2.27565e-09
-3.00382e-09
-1.04585e-09
1.77402e-09
3.19552e-09
-6.66965e-09
2.80913e-09
6.64994e-10
-9.37796e-10
-1.0801e-09
2.02612e-09
-8.23397e-12
1.80631e-10
-2.60762e-09
2.52743e-09
-1.00395e-10
4.08704e-09
-6.6526e-09
-5.70657e-10
3.13622e-09
2.50323e-09
3.40807e-11
4.28447e-09
4.18434e-09
-8.31621e-09
-1.52604e-10
-6.36343e-09
2.78912e-10
6.91359e-09
-8.29074e-10
2.6416e-09
6.02661e-09
-2.19305e-09
-6.47516e-09
-4.58715e-09
-1.5871e-09
5.62236e-09
5.51891e-10
7.26967e-09
6.84144e-10
-7.48056e-09
-4.73269e-10
2.52029e-10
-2.99741e-09
4.35451e-09
-1.60914e-09
-5.25842e-09
-3.60819e-10
2.47455e-09
3.14468e-09
7.43009e-09
-7.85406e-09
5.71347e-09
-5.2895e-09
7.52546e-09
-4.65011e-09
-2.70984e-10
-2.60436e-09
1.5076e-09
3.13796e-09
3.42432e-10
-4.98798e-09
8.53334e-10
-1.25914e-09
-3.40761e-09
5.55992e-09
3.99164e-09
-6.14395e-09
8.16625e-10
-6.96699e-09
6.28453e-09
-1.3417e-10
6.77489e-09
-3.61189e-09
-5.71689e-09
2.55389e-09
-3.25261e-09
-2.40283e-09
5.55961e-09
9.58302e-11
-5.82001e-09
1.71601e-09
1.29735e-09
2.80665e-09
-2.1722e-09
3.57703e-09
-3.17934e-09
1.77451e-09
5.04071e-09
-2.97653e-09
-2.19777e-09
1.33593e-10
1.47989e-09
2.30852e-09
-2.42522e-09
-1.36319e-09
2.89935e-09
7.65421e-09
-9.31736e-10
3.40193e-09
-8.87015e-09
6.39995e-09
9.78608e-09
-9.67874e-09
4.20057e-10
-5.274e-10
5.09348e-09
-2.61457e-09
1.98952e-09
-4.46843e-09
1.50936e-09
-3.75098e-09
-1.01488e-09
3.2565e-09
1.63695e-09
2.60165e-09
6.45174e-10
-4.88378e-09
-7.72501e-09
2.96646e-09
6.3955e-09
2.37509e-09
-1.06244e-09
-1.35425e-09
4.15992e-11
4.44784e-09
-1.07299e-09
3.33682e-09
-6.71168e-09
5.94615e-10
1.70368e-09
-2.14803e-09
2.15424e-09
5.76023e-11
-6.3822e-11
-1.61539e-10
7.13086e-09
-7.02437e-09
5.50467e-11
2.05942e-09
2.06379e-09
-3.89324e-09
-2.29972e-10
-6.25349e-09
1.13484e-08
-5.9103e-11
-5.03584e-09
2.52144e-09
1.75588e-09
-5.6917e-09
1.41439e-09
-1.08194e-09
2.8107e-09
1.65221e-09
-3.38096e-09
2.41811e-09
-3.21143e-09
5.75003e-09
-4.95671e-09
5.09338e-09
2.96857e-09
-1.70578e-09
-6.35617e-09
3.61378e-09
7.97642e-09
-6.49681e-09
-7.73496e-09
-1.1576e-09
5.06051e-09
3.83205e-09
-4.02276e-09
3.9868e-09
-8.46929e-11
1.20648e-10
2.8394e-09
-3.88484e-09
-2.56925e-09
3.61469e-09
2.13318e-10
-3.51462e-09
3.36712e-09
-6.58161e-11
4.00201e-10
-2.70109e-09
3.25084e-09
-9.49954e-10
2.23579e-09
-5.6106e-09
3.50334e-09
-1.28539e-10
-2.89412e-09
5.53379e-09
-2.70973e-09
7.00614e-11
-1.9381e-09
3.57918e-09
-1.62899e-09
-1.20887e-11
3.38942e-09
-5.77246e-09
3.79403e-09
-2.67281e-10
-1.11699e-09
-3.79685e-09
5.18112e-09
-1.29333e-09
2.13984e-09
1.50542e-09
-2.35193e-09
1.66844e-09
1.50923e-09
-2.8757e-09
-3.01979e-10
4.58139e-09
-8.9896e-09
1.83791e-10
4.22442e-09
4.90079e-09
-4.13395e-09
5.35169e-09
-6.11852e-09
5.58498e-09
-4.06364e-10
1.96539e-10
-3.2704e-11
-2.30574e-09
2.23588e-09
1.02567e-10
3.20478e-09
-1.71549e-09
-4.69062e-09
3.20134e-09
4.8849e-09
-2.53435e-09
2.98355e-09
-5.3341e-09
-6.36495e-09
1.36315e-09
2.32525e-09
2.67655e-09
-2.08678e-09
-1.56689e-09
4.46858e-09
-8.14913e-10
3.29115e-09
-8.56896e-11
3.06548e-09
-6.27093e-09
-1.10546e-09
-8.67885e-10
2.00667e-09
-3.32872e-11
-2.31315e-09
-2.91109e-09
5.19916e-11
1.57615e-09
-1.49706e-09
2.54239e-09
-2.62148e-09
1.86546e-09
1.81167e-09
-2.01552e-09
-1.66161e-09
-5.14582e-09
1.36038e-09
3.98893e-09
-2.03477e-10
-1.54433e-09
-7.95102e-10
2.32792e-09
1.15636e-11
-3.24147e-09
-9.6389e-10
3.96096e-09
2.44403e-10
-1.90867e-09
1.92733e-09
-3.69276e-11
1.82638e-11
1.18609e-09
3.44103e-09
-1.89302e-10
-2.05655e-09
4.25287e-09
-4.85933e-09
2.66301e-09
-1.5938e-09
-1.73093e-09
-2.86647e-09
6.1912e-09
-5.17454e-09
5.31116e-10
-2.34005e-09
1.93962e-09
-3.84345e-09
-5.51563e-09
7.41947e-09
3.31826e-09
-2.86283e-09
1.13185e-09
-1.58727e-09
-3.42824e-09
1.99127e-09
1.5398e-09
-1.02811e-10
-1.35166e-09
-1.65595e-09
2.75634e-09
2.51267e-10
2.96737e-09
4.04332e-09
-7.03633e-09
2.5653e-11
-4.60409e-09
8.46753e-09
-1.46331e-09
-2.40013e-09
2.90811e-10
-2.02178e-09
4.2085e-09
-2.47753e-09
2.28126e-09
-2.60322e-09
-3.39633e-09
3.71828e-09
-2.62083e-09
4.3377e-09
2.37017e-09
2.94593e-09
4.62172e-09
-2.05227e-09
5.27307e-09
-3.32901e-09
2.0236e-09
-3.96765e-09
-1.73898e-10
-8.22511e-09
2.26073e-10
8.17294e-09
4.47643e-09
-2.49023e-10
2.86874e-09
-7.09615e-09
2.12457e-09
-4.27177e-09
2.03441e-09
1.12793e-10
-2.7406e-11
-7.31046e-11
6.01824e-09
-5.91773e-09
2.01121e-09
-4.40571e-10
-4.30551e-09
2.73487e-09
4.5749e-09
1.44129e-09
-3.46601e-09
-2.55018e-09
4.03657e-09
-5.38622e-09
4.53205e-09
-3.1824e-09
2.09312e-09
-1.20528e-09
-9.14311e-10
2.64674e-11
-2.45674e-09
3.69617e-09
-5.33465e-11
-5.53981e-09
8.20527e-10
-3.44004e-09
2.55025e-09
3.00492e-09
-5.49458e-09
-6.05872e-11
1.68339e-09
4.56644e-09
-9.42357e-10
-2.88115e-09
7.33741e-09
-3.51392e-09
-6.50069e-10
4.91347e-09
-7.61742e-10
1.17473e-09
1.12258e-09
-1.26228e-10
4.16518e-09
5.83395e-09
-2.62893e-09
-7.37021e-09
-1.88142e-09
2.15159e-09
-2.34658e-10
-3.55091e-11
-4.53313e-09
5.7197e-09
1.66342e-09
-2.84999e-09
7.13208e-10
2.9222e-09
3.05264e-09
-3.04418e-09
-2.06173e-09
5.05295e-09
5.29634e-11
2.77596e-09
-4.92056e-09
2.2328e-09
-8.81955e-11
1.45566e-09
1.05853e-09
-2.41883e-09
-9.53657e-11
-2.73033e-09
-4.54266e-09
3.57213e-09
-9.89935e-10
-4.08209e-10
-2.17399e-09
-3.006e-09
5.55701e-09
6.82034e-10
-3.23305e-09
-6.08752e-09
6.12027e-09
-2.38463e-09
2.35188e-09
7.11773e-10
-3.83402e-09
3.1945e-09
-7.22475e-11
2.45041e-09
1.14107e-10
-2.50349e-09
-6.10377e-11
-9.25697e-11
-1.74978e-09
1.78187e-09
6.04732e-11
3.07612e-09
3.38904e-09
-4.13518e-09
-2.32999e-09
-5.47932e-09
-2.63124e-09
6.40433e-09
1.70623e-09
-4.07745e-09
7.22486e-11
3.87296e-09
1.32237e-10
7.07387e-09
-5.63078e-09
-5.52054e-09
-3.89443e-09
-5.17019e-11
3.94919e-09
-3.07039e-12
6.53121e-10
1.2247e-09
3.22065e-09
7.40014e-10
2.01057e-09
-5.97124e-09
-3.43967e-09
-2.56902e-09
4.94497e-09
1.06372e-09
-9.82367e-11
-3.49465e-09
1.53217e-10
-4.90487e-09
5.12159e-09
-2.71168e-09
2.49495e-09
-3.44729e-09
3.18035e-09
2.12713e-10
5.42263e-11
-3.60998e-10
-1.06584e-10
3.91967e-09
-3.45209e-09
-3.59069e-09
-1.63112e-10
3.7729e-09
-1.90997e-11
1.04205e-09
-1.76435e-09
-1.6449e-10
-7.22982e-09
8.23656e-11
3.47377e-09
3.67368e-09
-4.11354e-09
1.79169e-09
2.42647e-09
-1.04609e-10
2.34519e-09
1.84406e-09
-4.15416e-09
-3.50979e-11
2.79508e-09
7.94663e-10
-5.97802e-09
2.38828e-09
4.71491e-09
-2.42847e-09
-1.06351e-09
-1.22292e-09
-8.22259e-10
1.91077e-09
-1.09292e-09
4.4075e-12
-2.48394e-09
1.28796e-09
-1.32153e-09
2.51751e-09
1.34614e-09
3.33254e-09
-4.60378e-09
-7.48936e-11
3.18823e-09
-1.95939e-09
-1.37741e-09
1.48564e-10
7.61403e-09
2.53183e-09
-7.03432e-09
-3.11154e-09
2.4706e-09
-2.93404e-09
-8.68145e-09
9.14488e-09
-2.72174e-09
4.10172e-09
2.26806e-09
-3.64804e-09
4.42607e-09
-8.51826e-09
3.0046e-10
3.79172e-09
5.76984e-09
4.48195e-09
-4.792e-09
-5.45978e-09
2.65356e-09
-6.65796e-09
-3.11921e-09
7.1236e-09
1.59913e-09
-2.58097e-09
-4.62372e-09
5.60555e-09
5.00261e-09
-2.44301e-09
9.39715e-11
-3.76522e-09
1.95758e-09
-2.31579e-10
-3.04305e-09
-2.06452e-09
5.08339e-09
2.41829e-11
3.31932e-09
-3.81633e-09
2.31274e-09
-1.81574e-09
-7.10327e-09
6.30712e-09
-2.80993e-09
3.60608e-09
3.61756e-09
3.23188e-09
3.27898e-09
-1.01284e-08
-5.01811e-09
4.56302e-09
4.38916e-10
1.61831e-11
-1.81621e-09
2.61941e-09
-8.96635e-10
9.34373e-11
2.31701e-09
1.57976e-09
-3.82598e-09
-7.07887e-11
4.66117e-09
-7.10739e-09
3.40707e-09
-9.60855e-10
1.18511e-09
-5.57906e-09
9.75729e-09
-5.36335e-09
3.35866e-11
-2.69386e-09
2.83641e-09
-1.7613e-10
-2.3419e-09
-3.11905e-09
-1.26112e-09
6.72207e-09
-9.13246e-10
1.47944e-09
-6.00241e-10
3.40643e-11
2.37407e-09
1.33981e-09
-3.66472e-09
-4.91398e-11
-3.3762e-09
5.47462e-09
-2.17626e-09
7.78365e-11
-2.88765e-09
-1.19089e-09
4.86859e-11
-8.01448e-09
7.7038e-09
2.13362e-09
-1.82293e-09
5.45815e-09
-1.93789e-09
3.52737e-09
2.94313e-09
-3.57329e-09
-6.01632e-09
6.64647e-09
4.50448e-09
-3.96984e-09
6.90762e-09
-7.44226e-09
-3.30473e-09
-4.13021e-09
-4.53492e-10
-3.36198e-09
-4.79014e-09
8.60561e-09
-4.07735e-09
3.98351e-09
9.72506e-11
-3.41498e-12
2.40185e-10
-4.7564e-09
4.54053e-09
-2.43216e-11
1.27106e-09
4.06538e-09
2.15282e-09
-7.48926e-09
-2.91012e-09
2.66469e-11
-3.31258e-09
6.19605e-09
3.53094e-09
-3.62876e-09
1.13154e-10
-1.53264e-11
8.63832e-10
4.89749e-09
-2.67638e-10
-5.49368e-09
-5.06119e-09
2.10707e-09
-8.89398e-11
2.84625e-09
-4.54406e-09
1.78867e-09
-9.08547e-11
4.65232e-09
7.90646e-09
1.49538e-09
-2.37675e-09
8.60086e-10
2.12912e-11
-1.52445e-09
2.84269e-09
1.77137e-10
-1.11643e-09
-8.51819e-10
1.91853e-09
4.97092e-11
4.1183e-09
-6.72448e-09
6.3008e-09
-3.69463e-09
-4.56908e-09
-6.42885e-10
6.15356e-09
-9.41597e-10
-3.05466e-10
1.91031e-09
-3.71691e-09
2.11206e-09
5.29406e-09
-3.71365e-09
-1.65044e-09
7.00263e-11
-2.03027e-09
6.03302e-10
1.49121e-09
-6.42424e-11
-2.82776e-09
4.67931e-09
-2.60152e-10
-1.5914e-09
5.71426e-09
-4.21987e-09
-5.0476e-09
-1.96593e-09
-5.59706e-09
8.58144e-09
-1.01845e-09
-1.88196e-09
2.04002e-09
-1.86989e-10
2.89273e-11
1.72108e-09
-1.75375e-09
3.3115e-11
2.94021e-09
-1.27538e-09
4.15468e-10
-2.0803e-09
3.76418e-09
-3.88822e-09
2.41713e-10
-1.17671e-10
2.51672e-09
1.81033e-09
-2.095e-09
-2.23204e-09
5.68333e-09
-2.58422e-09
-2.60571e-09
-4.93395e-10
-1.9688e-09
4.61294e-09
1.31812e-10
-2.6779e-09
-4.25698e-09
4.73478e-09
2.2001e-09
1.67342e-09
-1.48643e-09
-1.4578e-10
-4.12096e-11
-2.91483e-10
-4.72974e-09
5.01515e-09
6.0727e-12
2.61896e-09
4.32768e-09
-8.29112e-10
-6.11753e-09
-1.73206e-09
9.92009e-10
-2.32184e-09
3.06188e-09
-1.64346e-10
4.43629e-09
-4.38772e-09
1.15782e-10
-4.4753e-09
-2.11954e-10
4.66648e-09
2.07855e-11
-1.93095e-09
-2.0624e-09
2.1535e-09
1.83985e-09
-1.89034e-09
8.4079e-10
-6.68854e-11
3.68917e-09
-3.51922e-09
-2.37547e-10
6.76035e-11
-3.83102e-09
3.65298e-11
3.87307e-09
-7.85835e-11
4.16086e-09
-1.5035e-09
-4.6233e-09
2.22313e-09
4.53253e-09
-2.99148e-09
-4.25194e-09
6.35209e-09
-5.27374e-09
-1.50569e-09
-1.65686e-09
3.09359e-09
6.89734e-11
-5.78809e-09
4.83246e-09
4.35782e-09
-3.00167e-09
3.2821e-10
8.87696e-10
1.78576e-09
2.54408e-10
-3.77585e-09
3.53702e-09
-1.55793e-11
-2.39758e-11
2.54736e-09
-2.52104e-09
-2.33777e-12
-2.69832e-09
4.62212e-09
-2.94353e-09
1.01972e-09
-3.16643e-09
1.77854e-09
-2.13277e-09
3.52066e-09
-1.46625e-09
-1.40786e-09
2.78407e-09
9.00508e-11
2.86502e-09
2.63276e-09
-5.25535e-09
-2.42429e-10
-3.37561e-09
-9.42738e-10
6.64178e-11
-4.93521e-09
3.74928e-10
2.65977e-09
1.90051e-09
7.43482e-09
8.34884e-10
-3.11837e-09
-5.15134e-09
-1.83003e-09
-3.84181e-10
3.98541e-09
-1.16216e-09
-4.10281e-09
5.22286e-09
4.21081e-11
-3.15773e-09
5.32037e-09
2.42212e-09
-4.58476e-09
-5.9302e-09
-1.15174e-10
-4.14076e-10
3.51294e-09
-4.26102e-09
3.12326e-09
-5.49213e-09
-7.85541e-10
3.15441e-09
-1.52025e-09
4.46757e-09
-6.37947e-09
3.43215e-09
2.11559e-09
-4.71541e-09
1.07957e-09
4.09121e-09
3.11776e-09
-1.53335e-09
-5.67562e-09
-1.70184e-09
-2.09471e-09
3.65139e-09
1.45161e-10
-3.05717e-09
3.11383e-09
-6.52995e-11
8.62985e-12
-4.03944e-09
-1.52855e-09
2.13975e-09
1.56605e-09
2.75826e-09
-4.22972e-09
-9.45888e-11
-1.85031e-09
-3.84683e-09
5.55683e-09
1.40311e-10
6.8551e-10
2.93649e-09
-7.80891e-09
4.18691e-09
1.23037e-11
-1.81665e-09
1.80344e-09
9.08086e-13
1.48252e-09
5.19495e-09
-3.31245e-09
-3.36502e-09
-2.54765e-09
2.63244e-09
-6.35222e-11
-2.12791e-11
2.28176e-09
1.40866e-09
7.8921e-10
-4.47963e-09
1.8877e-09
-1.14204e-09
-9.24695e-10
1.79023e-10
4.33684e-09
-1.78257e-09
-4.51626e-09
1.96199e-09
-4.2241e-09
1.66357e-09
2.65607e-09
-9.55407e-11
-2.94172e-09
-2.17034e-09
5.40519e-09
-2.93132e-10
-3.19394e-09
2.00243e-09
1.30694e-09
-1.15416e-10
-4.14187e-09
1.60606e-09
2.61364e-09
-7.78282e-11
-2.19383e-09
2.30959e-09
-1.06412e-10
-9.33871e-12
5.02536e-10
3.5647e-09
-4.6898e-10
1.18549e-09
5.52815e-09
-2.36013e-09
-4.35351e-09
-3.97688e-10
2.3135e-09
-1.96129e-09
4.54636e-11
-2.20935e-09
-1.80351e-09
5.94667e-10
3.41819e-09
-4.78695e-09
-1.43788e-10
2.78316e-09
2.14757e-09
-1.97787e-10
-5.50773e-09
2.26199e-10
-1.94481e-10
2.68924e-09
1.46837e-10
-2.27368e-10
-4.07222e-09
4.25239e-09
4.7198e-11
9.63857e-10
-2.92622e-09
1.95482e-09
7.55134e-12
-8.16793e-11
3.50999e-09
2.42642e-09
-5.85473e-09
-2.68126e-09
3.13423e-09
3.57149e-09
-4.02446e-09
3.09857e-09
-6.29671e-09
-1.50221e-09
4.70035e-09
3.43279e-09
-1.62053e-10
-3.29011e-09
1.93756e-11
-1.39755e-10
3.07671e-09
7.0326e-12
-2.94398e-09
-4.29018e-09
9.81446e-09
-2.84098e-09
-2.6833e-09
-3.66923e-09
1.91883e-09
2.55455e-09
-8.0415e-10
-3.06241e-09
2.86783e-10
2.65131e-09
1.24318e-10
-5.00068e-09
4.45755e-09
-1.7781e-09
2.32123e-09
2.42123e-09
-2.11964e-09
-2.27639e-10
-7.39496e-11
2.03749e-09
1.66422e-09
-2.76524e-09
-9.36476e-10
-2.94996e-09
-1.20524e-09
1.60462e-09
2.55058e-09
2.65077e-09
-2.98587e-09
-1.46989e-09
1.805e-09
1.88911e-09
-5.07408e-09
5.53205e-09
-2.34708e-09
1.97057e-09
-7.74794e-10
-4.59926e-09
3.40348e-09
1.46324e-09
6.24245e-09
-7.79088e-11
-7.28076e-09
-3.47162e-09
5.21257e-09
5.81048e-09
-8.06318e-09
5.49455e-09
-3.24184e-09
3.92087e-09
5.98245e-11
-2.9395e-09
-1.0412e-09
3.2681e-09
1.11826e-10
-3.20961e-09
-1.70323e-10
-3.71203e-09
-3.65577e-09
7.66044e-09
-2.92641e-10
4.57688e-09
-2.93871e-11
-4.27606e-09
-3.51954e-09
3.00866e-09
6.30696e-09
-7.80427e-10
8.07315e-09
-3.99004e-09
1.63866e-09
1.82259e-09
1.47e-09
-1.04365e-10
-1.70863e-09
7.28965e-11
2.96379e-09
-5.42596e-11
4.79035e-09
3.61482e-09
-3.79222e-09
4.69044e-10
1.56264e-09
2.28259e-09
-4.31427e-09
-2.28267e-09
-1.93365e-09
4.09768e-09
1.18635e-10
3.45058e-09
-5.09574e-09
-5.22759e-09
6.87275e-09
5.5346e-09
-2.39895e-09
-1.31338e-09
-1.82227e-09
2.70707e-09
-1.27516e-09
4.79884e-11
2.00418e-09
5.28437e-10
-2.45077e-09
-8.18391e-11
-4.60854e-09
-2.0855e-10
2.2034e-11
-1.47002e-09
-2.38563e-09
3.76447e-09
9.11791e-11
-3.36636e-09
-2.46892e-09
-2.41947e-10
6.07723e-09
1.20903e-09
-2.49385e-09
-1.76143e-10
-1.24223e-09
2.20908e-09
2.42168e-10
1.43973e-09
-1.30644e-09
-1.37552e-09
1.29614e-09
-1.56876e-09
-2.23128e-09
2.5039e-09
-4.73648e-09
4.98442e-09
2.12815e-09
-2.37608e-09
1.60846e-09
-3.44794e-09
1.98037e-09
-1.40882e-10
1.84841e-09
2.42605e-09
-4.23662e-09
-3.78441e-11
1.54972e-09
-1.48905e-09
-1.59001e-09
1.52936e-09
3.18101e-09
-5.66623e-09
2.87709e-10
2.19751e-09
-3.65104e-09
2.79261e-09
-1.35054e-09
-2.336e-09
3.55036e-11
3.90719e-09
-9.76752e-10
-5.96465e-09
3.03421e-09
-2.01472e-09
6.15546e-10
4.90877e-09
-3.50959e-09
-3.33075e-09
-1.73021e-09
2.03214e-09
3.02882e-09
1.31401e-09
8.37464e-10
-2.04727e-09
-1.04214e-10
1.04533e-09
2.42044e-09
-3.40437e-09
-6.13985e-11
2.55814e-10
2.35719e-09
1.96971e-09
-4.58271e-09
1.0461e-09
-1.6659e-10
-3.36168e-09
-3.02516e-09
1.2123e-09
2.97744e-09
-1.91771e-09
-1.20449e-09
1.44769e-10
2.32566e-09
-3.55512e-09
4.67049e-09
1.60165e-09
-5.90579e-10
3.09848e-11
4.3061e-10
3.66638e-09
-1.86684e-09
-1.12175e-09
-7.38214e-11
-8.0331e-11
3.49071e-09
-3.51399e-09
1.03618e-10
-5.76218e-09
4.72984e-09
-4.00203e-09
5.03438e-09
2.17892e-09
-6.78436e-11
8.99355e-10
-2.94958e-09
2.06278e-09
-1.25557e-11
9.22321e-10
3.03724e-09
-2.58369e-09
-1.37587e-09
-2.02988e-09
1.15943e-09
1.0175e-09
-1.47061e-10
-2.38725e-09
1.45449e-09
9.48338e-10
-1.55784e-11
-1.21777e-09
1.45279e-09
1.27418e-09
-2.03517e-09
4.74095e-09
-2.79644e-09
9.06516e-11
4.52849e-09
4.11203e-09
-2.47719e-09
-6.16333e-09
4.21919e-09
-2.8809e-09
-6.01341e-09
4.67512e-09
-4.18876e-09
-7.47816e-10
4.82211e-09
1.1448e-10
-1.40575e-09
-1.68904e-09
2.10485e-09
-3.87158e-09
-9.15957e-10
1.75884e-09
3.02871e-09
1.00059e-09
5.21004e-09
-6.52938e-09
3.18752e-10
2.00722e-09
2.8276e-09
-5.89296e-09
1.05815e-09
7.82916e-10
1.51038e-09
-3.14542e-09
8.52123e-10
-5.55197e-11
-1.50855e-09
1.58805e-09
-2.39787e-11
1.66884e-09
4.74947e-09
-2.89808e-09
-1.85164e-10
2.96965e-09
1.13596e-10
1.19792e-09
-2.33862e-11
-1.20175e-09
2.72239e-11
-2.30026e-10
1.62815e-09
2.27801e-09
-3.67614e-09
1.7688e-09
-3.07232e-09
-2.05612e-09
3.35964e-09
5.60633e-10
6.93865e-09
-1.9143e-09
3.63604e-09
-3.68204e-09
-3.52391e-11
8.1242e-11
-4.83192e-09
-2.13584e-09
1.06973e-08
-3.72954e-09
3.19576e-09
-3.86548e-09
-6.46736e-09
4.28771e-09
-3.30471e-10
-6.75496e-09
2.79771e-09
-2.00277e-09
1.02338e-09
-2.26209e-09
-4.50058e-09
5.71514e-09
1.21994e-09
-2.4345e-09
1.43837e-09
9.94678e-10
-2.3406e-09
-9.24386e-11
-1.02197e-09
2.37426e-09
-1.37779e-09
2.54849e-11
1.20288e-09
-1.57729e-11
5.94749e-09
-4.79235e-09
-1.68068e-09
5.25548e-10
-2.75284e-09
2.65142e-09
-3.57899e-09
3.68042e-09
2.52388e-09
-2.22853e-10
-2.36127e-09
6.02535e-11
2.50354e-09
-4.19055e-09
-3.34783e-09
5.03484e-09
-4.73234e-09
4.80289e-09
7.12631e-09
-7.19686e-09
-1.84186e-09
-1.82131e-11
-1.08013e-09
2.94022e-09
6.63072e-09
3.88376e-09
-6.82531e-09
-3.87162e-09
2.64486e-09
1.37384e-09
-1.47079e-10
-1.6507e-09
2.64566e-09
2.66841e-09
-3.66337e-09
1.62019e-09
-1.76246e-09
1.40898e-10
1.37502e-12
-3.99895e-09
-1.07441e-10
3.97266e-09
1.33726e-10
1.16892e-09
-1.7877e-09
7.92923e-10
-1.74153e-10
1.54351e-10
-1.39592e-09
7.29782e-09
-6.05624e-09
-6.23421e-09
-1.97981e-09
-2.15344e-09
1.03675e-08
-3.63755e-09
-1.76682e-09
-3.40087e-10
5.74446e-09
-4.273e-09
1.82757e-09
2.52141e-09
-7.59847e-11
1.08976e-11
-2.66336e-09
2.59807e-09
5.43883e-11
3.02078e-09
-9.67361e-10
-2.07499e-09
2.15705e-11
3.17652e-09
-3.1471e-09
-2.52396e-09
2.49453e-09
5.43487e-09
-5.2403e-09
-2.24367e-10
2.9796e-11
-2.73124e-09
3.47053e-09
-4.63422e-09
2.62757e-09
1.12863e-10
-2.68333e-09
-5.71014e-11
-1.72705e-09
3.66054e-09
1.91079e-10
-4.97336e-09
3.4841e-09
6.09349e-09
-1.12086e-09
1.41708e-09
2.22522e-09
-3.76635e-09
1.15484e-10
-2.16914e-09
3.57558e-09
1.76978e-09
-4.89339e-09
-4.51963e-10
4.55156e-09
4.12313e-10
-4.90648e-09
-5.73912e-11
5.25505e-09
4.54098e-09
-5.24446e-09
-4.2969e-09
3.48609e-10
3.53811e-09
4.1017e-10
9.57449e-10
1.98365e-09
2.74735e-11
7.83531e-09
-1.39389e-08
4.39784e-09
-1.98085e-09
1.92755e-09
1.29251e-10
-7.59466e-11
2.00244e-09
-7.85108e-09
4.69213e-09
1.15652e-09
2.68048e-09
1.06715e-09
-1.46587e-09
-4.19184e-09
-3.87951e-09
5.52559e-09
2.54577e-09
-3.87188e-09
7.545e-10
4.58062e-09
-2.58339e-11
-1.99681e-09
4.17944e-11
-3.06797e-09
8.95534e-11
-2.22153e-10
-3.77605e-09
3.91248e-09
8.57242e-11
-5.52763e-09
6.50655e-09
-1.3094e-09
3.30472e-10
4.03812e-10
4.67757e-09
-5.02878e-09
-5.25941e-11
-1.87219e-10
2.81875e-09
-2.58931e-09
-4.22265e-11
-1.54421e-09
1.65015e-09
9.33667e-12
-1.15278e-10
-1.70343e-09
1.29686e-10
2.95358e-11
-2.7936e-11
2.84912e-09
-2.77573e-09
-4.54618e-11
2.5211e-09
-2.49994e-09
-8.83031e-11
6.71488e-11
4.21195e-10
-7.20106e-09
7.02006e-09
9.98054e-10
-3.92697e-09
-1.82748e-09
-4.00834e-09
2.42281e-10
3.71148e-09
5.45745e-11
-3.1796e-09
2.86215e-09
4.51561e-11
4.07412e-09
-4.53866e-09
4.15954e-09
-3.69501e-09
4.22341e-09
3.01504e-09
-9.23823e-09
1.99978e-09
-9.97924e-09
-6.26e-09
1.02238e-08
6.01547e-09
6.46893e-09
1.04442e-08
-9.45564e-09
-7.45746e-09
1.08835e-08
-4.42011e-09
-6.94549e-09
4.82089e-10
-3.57575e-10
-3.48349e-09
-5.40016e-09
-5.218e-09
8.34938e-09
-8.87496e-09
5.74359e-09
8.42948e-11
2.63926e-09
-2.69716e-09
-2.63945e-11
3.04086e-09
-8.1867e-09
-2.02795e-11
5.16612e-09
4.41604e-09
4.66563e-10
-1.1585e-08
6.70239e-09
-4.68873e-10
4.2973e-09
-1.05747e-08
6.74623e-09
-5.58635e-09
9.92046e-09
-3.94542e-09
-3.88688e-10
4.94941e-10
-7.18961e-09
-4.44569e-09
1.11404e-08
-1.79003e-10
8.23042e-09
1.14557e-10
-8.16597e-09
7.1483e-09
4.43033e-09
-1.10918e-08
-4.86803e-10
-4.87624e-10
3.82721e-09
-9.12764e-09
5.78805e-09
-2.70661e-09
7.44963e-09
3.47159e-09
-8.21461e-09
4.3067e-09
-6.09393e-09
2.57014e-09
2.40718e-09
6.36561e-11
-4.23521e-09
3.97848e-09
3.4573e-11
2.71719e-09
3.38462e-09
-7.94043e-09
1.83861e-09
-1.75201e-09
-2.50485e-09
4.05545e-09
2.01402e-10
9.32591e-09
-3.72048e-09
-3.80545e-10
-5.22488e-09
-4.27961e-10
1.11242e-08
-4.26192e-09
-6.43429e-09
9.70113e-09
6.38791e-09
-5.89432e-09
-1.01947e-08
-6.91091e-09
1.08237e-08
4.80462e-10
-4.39328e-09
2.87205e-09
5.47819e-09
-4.90453e-09
-3.44571e-09
2.13884e-09
-2.14073e-09
1.82524e-10
-3.86891e-09
1.3656e-09
5.04923e-09
-5.53234e-09
-2.53907e-09
2.49367e-10
7.82205e-09
-7.16419e-09
-1.11892e-08
6.71758e-09
1.16359e-08
-5.01201e-09
3.2737e-09
2.2593e-09
-5.20976e-10
4.30895e-10
-6.8359e-09
-4.33611e-09
1.07411e-08
-4.08912e-10
4.35826e-09
6.80097e-09
-1.07503e-08
-4.06815e-10
-4.38691e-09
-6.56925e-09
4.88159e-09
3.47595e-10
-1.23357e-08
7.10652e-09
-1.69904e-09
2.76649e-09
-1.09584e-09
2.83945e-11
-1.11027e-08
-4.71129e-10
4.40966e-09
1.10668e-08
-1.0664e-08
6.26861e-09
-6.67148e-09
6.11839e-09
1.44668e-09
-4.17566e-09
4.71452e-09
-1.6818e-09
-5.92685e-09
-5.75524e-09
1.00748e-08
-3.91326e-09
-4.063e-10
-8.93545e-11