/*--------------------------------*- C++ -*----------------------------------*\
| =========                 |                                                 |
| \\      /  F ield         | OpenFOAM: The Open Source CFD Toolbox           |
|  \\    /   O peration     | Version:  v1612+                                |
|   \\  /    A nd           | Web:      www.OpenFOAM.com                      |
|    \\/     M anipulation  |                                                 |
\*---------------------------------------------------------------------------*/
FoamFile
{
    version     2.0;
    format      ascii;
    class       volScalarField;
    location    "100";
    object      p;
}
// * * * * * * * * * * * * * * * * * * * * * * * * * * * * * * * * * * * * * //

dimensions      [0 2 -2 0 0 0 0];

internalField   nonuniform List<scalar> 
19034
(
0.724903
0.7218
0.721887
0.718575
0.715442
0.714587
0.718942
0.723919
0.730846
0.718746
0.721535
0.720623
0.729065
0.732037
0.648204
0.660272
0.656365
0.65338
0.654058
0.664363
0.653222
0.664393
0.665159
0.6718
0.672766
0.665319
0.657728
0.664959
0.670682
0.664616
0.659962
0.65667
0.6617
0.612712
0.611014
0.613651
0.613746
0.615078
0.612298
0.617519
0.615328
0.612812
0.62161
0.617181
0.6151
0.619988
0.618437
0.68328
0.68319
0.685069
0.682999
0.684163
0.681161
0.673248
0.673127
0.669133
0.68104
0.675249
0.678222
0.680128
0.692207
0.67601
0.671466
0.665228
0.674267
0.625901
0.620657
0.622995
0.622211
0.620176
0.623804
0.61881
0.629339
0.61744
0.622773
0.62342
0.628136
0.62351
0.632318
0.610922
0.613807
0.606822
0.612941
0.621435
0.617398
0.613703
0.618607
0.608607
0.611913
0.615706
0.617122
0.624953
0.627256
0.607667
0.612365
0.608672
0.610924
0.613256
0.609755
0.617829
0.605835
0.615747
0.621585
0.605445
0.6496
0.651403
0.65105
0.651831
0.648766
0.649292
0.64846
0.652143
0.650523
0.648778
0.64975
0.653238
0.651741
0.663291
0.666339
0.660385
0.666856
0.656314
0.660812
0.652933
0.64824
0.650434
0.658098
0.660164
0.656231
0.661772
0.654513
0.651497
0.649323
0.648021
0.653343
0.641527
0.635851
0.650679
0.641989
0.643255
0.645765
0.635885
0.639184
0.643573
0.643495
0.642435
0.645693
0.637571
0.637371
0.643276
0.641215
0.633296
0.631956
0.644143
0.633283
0.627464
0.635764
0.633048
0.631008
0.641597
0.595641
0.604377
0.602542
0.598591
0.604413
0.609612
0.597746
0.604394
0.604292
0.599655
0.590361
0.612508
0.609342
0.600129
0.666175
0.673475
0.667566
0.675425
0.665287
0.666745
0.663892
0.662127
0.663491
0.658849
0.665322
0.665341
0.66082
0.654889
0.649873
0.668627
0.666578
0.663224
0.66944
0.660618
0.677775
0.664599
0.660419
0.66809
0.680469
0.666865
0.66187
0.671465
0.675004
0.682934
0.681916
0.674853
0.693543
0.688956
0.704556
0.707166
0.68144
0.681823
0.704517
0.663523
0.666316
0.665358
0.660314
0.661712
0.656232
0.663192
0.66186
0.664395
0.66133
0.653279
0.661976
0.662442
0.667196
0.665843
0.662991
0.660154
0.652471
0.656337
0.657211
0.685803
0.676591
0.682449
0.668472
0.681973
0.668026
0.680458
0.660482
0.668497
0.66974
0.658068
0.657998
0.677262
0.667826
0.578556
0.580321
0.598514
0.590412
0.58955
0.606899
0.610728
0.572345
0.576677
0.588924
0.594579
0.602738
0.595174
0.579964
0.580991
0.585257
0.593682
0.588415
0.587951
0.585608
0.600742
0.599723
0.599432
0.602983
0.585183
0.584453
0.593392
0.592404
0.595483
0.601004
0.590916
0.599144
0.597885
0.595247
0.591612
0.589383
0.584227
0.587701
0.64928
0.646659
0.644239
0.647664
0.645561
0.644794
0.64404
0.649012
0.649133
0.64545
0.650187
0.650593
0.645944
0.696309
0.694987
0.684956
0.674169
0.689579
0.699017
0.680583
0.671831
0.682136
0.686362
0.674675
0.68086
0.673588
0.675995
0.679077
0.689573
0.673916
0.67638
0.676289
0.675355
0.679566
0.671501
0.67336
0.675168
0.675637
0.673245
0.682645
0.678006
0.677726
0.681347
0.677038
0.678645
0.667281
0.669383
0.672593
0.670899
0.675109
0.673578
0.682059
0.673472
0.673868
0.67429
0.670606
0.666729
0.672537
0.661284
0.666212
0.662608
0.680072
0.67264
0.679228
0.684431
0.672271
0.674197
0.695049
0.69365
0.668214
0.675339
0.681416
0.688127
0.6696
0.680373
0.656944
0.647868
0.665323
0.652854
0.642007
0.659923
0.663265
0.651622
0.656282
0.662412
0.654682
0.670858
0.670768
0.661241
0.673061
0.663297
0.6507
0.660184
0.662864
0.66721
0.651155
0.663392
0.656976
0.669349
0.65714
0.663619
0.654036
0.661097
0.654178
0.658435
0.663528
0.663235
0.663517
0.672603
0.655443
0.661168
0.651116
0.656172
0.654469
0.660239
0.662651
0.662375
0.663733
0.659229
0.658157
0.667605
0.654457
0.656085
0.658219
0.659256
0.661164
0.665488
0.663304
0.663415
0.660972
0.662993
0.668783
0.66242
0.662626
0.671243
0.676347
0.674461
0.671445
0.668441
0.664015
0.640386
0.637803
0.636203
0.639197
0.635923
0.635601
0.640935
0.641033
0.640515
0.634921
0.636713
0.634088
0.642552
0.637562
0.639419
0.640398
0.640704
0.640571
0.635189
0.630271
0.618069
0.609716
0.639429
0.639202
0.613659
0.624361
0.626793
0.629098
0.636157
0.637899
0.614314
0.609082
0.624555
0.621843
0.622143
0.62055
0.618511
0.633592
0.639379
0.628955
0.660187
0.658953
0.653926
0.655139
0.653077
0.662494
0.658591
0.656395
0.656444
0.669561
0.652929
0.656876
0.658828
0.658359
0.598573
0.607878
0.596711
0.592774
0.591546
0.613284
0.589889
0.635527
0.63688
0.630192
0.642926
0.619511
0.61808
0.628782
0.635428
0.618918
0.617411
0.642126
0.647059
0.642971
0.635823
0.619951
0.641828
0.629775
0.638744
0.601605
0.606915
0.599945
0.606575
0.596085
0.591626
0.587779
0.601748
0.594415
0.599503
0.59683
0.590425
0.58815
0.588232
0.668632
0.661615
0.659359
0.661445
0.65329
0.652907
0.657627
0.659724
0.65838
0.659621
0.659508
0.658436
0.647805
0.654835
0.653691
0.659745
0.659399
0.63669
0.649894
0.650854
0.649147
0.65313
0.648854
0.652812
0.643275
0.647702
0.653558
0.650987
0.642916
0.653153
0.648378
0.651182
0.647827
0.65049
0.649867
0.650967
0.649717
0.649774
0.647798
0.628546
0.630425
0.611669
0.615831
0.626165
0.628415
0.634834
0.628479
0.631765
0.610262
0.615355
0.619132
0.631402
0.627539
0.623646
0.622642
0.617064
0.623434
0.624119
0.624355
0.612102
0.656379
0.658268
0.65898
0.661567
0.661327
0.660515
0.66024
0.657124
0.656182
0.657205
0.662943
0.66636
0.661326
0.658724
0.657032
0.657201
0.661331
0.656831
0.663281
0.662478
0.65271
0.655471
0.657761
0.668236
0.675707
0.642779
0.655767
0.669269
0.660821
0.659644
0.673644
0.667071
0.653223
0.654151
0.653221
0.652547
0.662759
0.653159
0.666643
0.66101
0.663963
0.665853
0.663235
0.665194
0.667703
0.66014
0.668391
0.669339
0.67171
0.668272
0.670325
0.67017
0.667127
0.67101
0.665938
0.671123
0.665638
0.668225
0.664893
0.668063
0.663366
0.661761
0.659694
0.663733
0.662536
0.665797
0.67044
0.584805
0.588147
0.593807
0.591194
0.585183
0.6045
0.599522
0.586677
0.599131
0.602273
0.595495
0.587517
0.5882
0.590043
0.597267
0.595731
0.596488
0.649528
0.655479
0.648901
0.655288
0.654641
0.652284
0.648727
0.651529
0.654188
0.652373
0.654002
0.653421
0.659578
0.650911
0.66342
0.65879
0.648638
0.665916
0.660572
0.655059
0.66096
0.657015
0.627344
0.622341
0.62283
0.622337
0.621502
0.635968
0.632479
0.625267
0.623445
0.630768
0.625465
0.62154
0.634131
0.631138
0.6268
0.628137
0.636372
0.631597
0.636443
0.611295
0.616956
0.623629
0.619069
0.616752
0.606582
0.62613
0.625791
0.611863
0.614199
0.624204
0.61588
0.62867
0.626313
0.614075
0.607297
0.619184
0.62346
0.625525
0.61816
0.627423
0.631464
0.627607
0.620967
0.618531
0.619844
0.626671
0.62095
0.621144
0.623237
0.623661
0.615432
0.618888
0.619502
0.623001
0.625823
0.620744
0.655031
0.663473
0.658714
0.662201
0.657696
0.660751
0.663735
0.650679
0.651027
0.654845
0.658093
0.644801
0.678049
0.667662
0.654738
0.653996
0.673902
0.67187
0.660839
0.578157
0.574725
0.571385
0.575554
0.576794
0.578892
0.567344
0.583331
0.645301
0.647754
0.64893
0.65042
0.63874
0.641482
0.640792
0.64649
0.64342
0.64469
0.637771
0.646412
0.646538
0.642615
0.643764
0.6454
0.645243
0.641188
0.617643
0.613434
0.616516
0.621646
0.61699
0.621939
0.629939
0.629112
0.612591
0.612791
0.626167
0.623013
0.622095
0.62841
0.62167
0.616587
0.62311
0.613892
0.610234
0.603036
0.605005
0.601607
0.602706
0.605005
0.600651
0.609456
0.604752
0.615887
0.615612
0.613884
0.600671
0.592434
0.609088
0.592541
0.599728
0.59947
0.609413
0.608219
0.630362
0.630083
0.628729
0.627114
0.631536
0.623778
0.626488
0.627245
0.632203
0.629845
0.627518
0.623659
0.625752
0.628397
0.630047
0.622583
0.625999
0.616671
0.618396
0.621043
0.670309
0.672325
0.667107
0.661001
0.664472
0.662803
0.659857
0.666034
0.646958
0.657218
0.643529
0.642309
0.662217
0.657049
0.631003
0.632784
0.647616
0.661409
0.649145
0.648948
0.664125
0.65398
0.683832
0.689362
0.694616
0.687164
0.681182
0.689988
0.684177
0.684274
0.684381
0.669673
0.675582
0.682766
0.676734
0.676921
0.670882
0.680731
0.676503
0.67665
0.631513
0.638656
0.625356
0.622845
0.632024
0.637976
0.622798
0.620257
0.624141
0.62121
0.640542
0.626343
0.621238
0.631234
0.623634
0.639824
0.646841
0.643717
0.630114
0.639748
0.62953
0.626122
0.630683
0.625065
0.621673
0.626655
0.636875
0.636426
0.628461
0.633389
0.634424
0.632341
0.641808
0.643656
0.673381
0.690502
0.686122
0.688158
0.691355
0.69925
0.696781
0.695966
0.688473
0.694415
0.695467
0.683409
0.681475
0.696643
0.692798
0.695635
0.691758
0.654671
0.666385
0.669707
0.672074
0.670969
0.665075
0.677231
0.657536
0.660701
0.666026
0.667905
0.674674
0.66037
0.665682
0.665809
0.657864
0.657909
0.66627
0.664314
0.664161
0.660625
0.656712
0.657246
0.659542
0.665449
0.664579
0.664345
0.659132
0.662141
0.663908
0.669713
0.656814
0.673088
0.67537
0.663808
0.666737
0.665345
0.653646
0.650788
0.643465
0.647481
0.645741
0.658796
0.641475
0.644105
0.654859
0.645102
0.644807
0.636017
0.638882
0.650883
0.63927
0.652459
0.649696
0.654918
0.659535
0.654528
0.652571
0.662748
0.651147
0.655582
0.665269
0.657042
0.658385
0.658001
0.663377
0.664144
0.675131
0.641125
0.644817
0.638078
0.645625
0.645464
0.641844
0.636045
0.642696
0.647861
0.642594
0.646361
0.662012
0.667388
0.649143
0.646344
0.650895
0.659855
0.654475
0.645697
0.655912
0.664658
0.659104
0.659688
0.646083
0.645244
0.656823
0.660967
0.653852
0.652935
0.648479
0.645822
0.649175
0.654078
0.665085
0.673518
0.66836
0.657544
0.656797
0.667659
0.662982
0.658162
0.673516
0.671771
0.666135
0.662388
0.683221
0.670025
0.668394
0.664276
0.667885
0.638064
0.637667
0.639188
0.638109
0.638845
0.641123
0.644757
0.634975
0.643653
0.627851
0.636572
0.633398
0.629674
0.630351
0.636411
0.634351
0.645821
0.647419
0.650477
0.641062
0.716289
0.720505
0.713859
0.725694
0.735716
0.730212
0.730391
0.724581
0.714094
0.71986
0.721803
0.718837
0.72972
0.735802
0.729844
0.692909
0.716997
0.717901
0.719731
0.722261
0.7135
0.710307
0.717456
0.716215
0.720423
0.709962
0.714416
0.700605
0.706444
0.710989
0.700506
0.702119
0.701353
0.687265
0.716874
0.662604
0.661527
0.660693
0.661659
0.665616
0.659459
0.6558
0.662646
0.661169
0.670573
0.664652
0.67594
0.671226
0.675836
0.676686
0.673673
0.678838
0.676385
0.67026
0.674783
0.664552
0.670056
0.675536
0.676402
0.670833
0.672928
0.673911
0.743231
0.743181
0.668861
0.674528
0.660744
0.672382
0.671215
0.670172
0.673568
0.681546
0.684593
0.726968
0.7284
0.690213
0.704598
0.69954
0.695255
0.716326
0.71585
0.697991
0.701487
0.705726
0.663621
0.668265
0.666664
0.66884
0.667423
0.663246
0.664335
0.708038
0.708124
0.7076
0.656117
0.670534
0.673862
0.700467
0.695393
0.694578
0.661637
0.662978
0.660075
0.660739
0.665878
0.670235
0.674508
0.665743
0.663464
0.664625
0.660371
0.651677
0.654276
0.672373
0.676284
0.678006
0.676753
0.677982
0.677329
0.679918
0.689573
0.696105
0.699456
0.653212
0.652976
0.655781
0.669842
0.665707
0.662123
0.64165
0.643223
0.648801
0.65106
0.640151
0.651044
0.674096
0.674577
0.666798
0.659225
0.659636
0.661094
0.639886
0.640294
0.67566
0.676659
0.644531
0.642676
0.617965
0.615289
0.665526
0.658104
0.655696
0.663007
0.63073
0.635195
0.632412
0.623621
0.622405
0.616813
0.634806
0.650048
0.649569
0.653991
0.66983
0.669661
0.598753
0.597539
0.603262
0.590728
0.58639
0.614883
0.617486
0.655781
0.650081
0.648761
0.648098
0.626299
0.634276
0.635203
0.550965
0.54601
0.543892
0.68281
0.682939
0.672032
0.681507
0.574292
0.575663
0.567485
0.601183
0.587609
0.591394
0.665292
0.663431
0.608679
0.611012
0.63305
0.63179
0.6241
0.64506
0.642814
0.516999
0.519725
0.54541
0.546503
0.557235
0.681322
0.682334
0.682473
0.568577
0.57095
0.661171
0.661914
0.580995
0.579768
0.627705
0.61997
0.621571
0.496173
0.500111
0.664181
0.667227
0.596162
0.597767
0.597476
0.609344
0.608876
0.613454
0.604408
0.59436
0.59187
0.676834
0.66827
0.673054
0.669569
0.663332
0.671543
0.66512
0.675819
0.665544
0.655405
0.656737
0.675424
0.675388
0.681755
0.677127
0.610249
0.615594
0.618266
0.613292
0.674509
0.671721
0.665672
0.664069
0.675282
0.681991
0.675217
0.652808
0.662433
0.663386
0.662031
0.664618
0.67138
0.674937
0.671535
0.667069
0.67342
0.668214
0.666853
0.66396
0.660263
0.669748
0.662833
0.661387
0.664349
0.661393
0.613909
0.618842
0.587536
0.590208
0.58587
0.617576
0.623437
0.633791
0.628268
0.63253
0.61509
0.610011
0.612412
0.6088
0.603182
0.607151
0.599015
0.603054
0.604776
0.607203
0.60509
0.600687
0.594971
0.674643
0.679705
0.684799
0.674147
0.678112
0.675247
0.673009
0.672095
0.666969
0.671619
0.67313
0.67039
0.677355
0.678185
0.676427
0.685081
0.658091
0.657581
0.65101
0.651091
0.656588
0.666981
0.660603
0.659086
0.655403
0.663029
0.656721
0.659771
0.663208
0.663998
0.662006
0.658061
0.659553
0.680033
0.671785
0.664368
0.669301
0.664244
0.670524
0.657042
0.661297
0.66804
0.670558
0.666151
0.674325
0.66944
0.677127
0.670085
0.663418
0.658492
0.662139
0.663794
0.660656
0.66554
0.665849
0.667429
0.658779
0.712315
0.712793
0.707909
0.705046
0.705113
0.494909
0.504457
0.507271
0.547545
0.543544
0.54335
0.533729
0.547703
0.536961
0.560025
0.551995
0.533896
0.530728
0.63021
0.643621
0.646065
0.641858
0.632475
0.632352
0.658643
0.645934
0.664997
0.648912
0.487232
0.485109
0.487395
0.507266
0.49572
0.562943
0.569595
0.566729
0.573346
0.643269
0.650448
0.651665
0.656462
0.656254
0.661734
0.665076
0.648279
0.661751
0.661667
0.701142
0.69428
0.604773
0.609849
0.610868
0.605154
0.607755
0.61081
0.608038
0.610099
0.614197
0.608529
0.614594
0.695462
0.697435
0.69087
0.650326
0.650869
0.671581
0.673988
0.670472
0.66443
0.693935
0.693384
0.68624
0.680044
0.664372
0.663722
0.685359
0.675806
0.676137
0.669233
0.667661
0.510448
0.5148
0.506943
0.495489
0.508462
0.504019
0.507102
0.528302
0.51471
0.526294
0.534372
0.514055
0.510795
0.627592
0.608882
0.618025
0.61766
0.62157
0.633579
0.629431
0.631109
0.625813
0.637289
0.635883
0.629078
0.6295
0.633053
0.629732
0.640715
0.642173
0.641502
0.636713
0.638618
0.588497
0.57758
0.567617
0.571454
0.581053
0.580288
0.567261
0.570086
0.56987
0.612924
0.626067
0.63496
0.623978
0.669643
0.668969
0.666002
0.656457
0.657624
0.65064
0.636044
0.638827
0.644913
0.626948
0.655183
0.659264
0.700459
0.69807
0.699879
0.684217
0.664281
0.674702
0.669817
0.677726
0.66532
0.669185
0.666821
0.659566
0.66706
0.658925
0.653253
0.658512
0.562305
0.55537
0.550576
0.54227
0.545975
0.581913
0.579589
0.593627
0.604328
0.585991
0.58938
0.592787
0.585007
0.666626
0.669693
0.689087
0.682701
0.675135
0.681077
0.674535
0.675404
0.667404
0.676806
0.675158
0.684931
0.67458
0.679976
0.674542
0.665911
0.684772
0.685658
0.674652
0.69967
0.689631
0.697428
0.683931
0.68432
0.684214
0.532974
0.526351
0.538817
0.532545
0.54794
0.544031
0.546573
0.535929
0.532361
0.528343
0.530762
0.528297
0.512331
0.531692
0.533184
0.517728
0.509756
0.532645
0.509764
0.515945
0.51669
0.5157
0.510935
0.650074
0.650025
0.649103
0.639902
0.640971
0.661569
0.665252
0.654898
0.656635
0.660329
0.60898
0.609824
0.624622
0.598438
0.626261
0.619543
0.624998
0.613359
0.617535
0.630157
0.641424
0.643007
0.621463
0.627385
0.628351
0.625527
0.585964
0.585817
0.595166
0.602982
0.591975
0.600906
0.606313
0.609578
0.604788
0.592738
0.596595
0.593777
0.596575
0.608706
0.608957
0.618439
0.616457
0.614016
0.613708
0.610051
0.611049
0.601642
0.686533
0.687183
0.680845
0.655163
0.664218
0.655567
0.659805
0.661551
0.655265
0.651771
0.673672
0.680505
0.680115
0.683676
0.64997
0.646745
0.648642
0.653331
0.652984
0.650925
0.65087
0.652043
0.652034
0.660949
0.66099
0.661195
0.558993
0.558792
0.613545
0.617386
0.597236
0.597096
0.595734
0.596354
0.588904
0.570511
0.574719
0.6013
0.598461
0.589918
0.589633
0.563278
0.554099
0.563002
0.579858
0.579889
0.576884
0.570159
0.57525
0.569709
0.676621
0.679045
0.669288
0.673261
0.672916
0.667315
0.675553
0.67735
0.668873
0.674831
0.679922
0.671902
0.673038
0.682104
0.678285
0.677081
0.684517
0.678556
0.68475
0.688246
0.681511
0.565801
0.56617
0.561759
0.570127
0.563995
0.570155
0.532099
0.529758
0.531342
0.53049
0.542071
0.543005
0.537813
0.54665
0.541812
0.539321
0.543956
0.639853
0.633124
0.623731
0.625644
0.633189
0.626241
0.631235
0.630357
0.633311
0.632088
0.646209
0.639228
0.646643
0.644064
0.636746
0.636605
0.635119
0.630517
0.631629
0.633566
0.63435
0.639961
0.638591
0.638624
0.639311
0.63981
0.640183
0.640417
0.651851
0.648088
0.651762
0.65362
0.653228
0.648388
0.651666
0.648382
0.651486
0.651569
0.657177
0.658242
0.665067
0.65172
0.653267
0.6504
0.647754
0.649909
0.661886
0.656393
0.643642
0.650331
0.653186
0.636916
0.635177
0.652633
0.648089
0.655183
0.655834
0.615127
0.609904
0.6073
0.613054
0.613737
0.614483
0.627248
0.616945
0.622424
0.626303
0.621142
0.616646
0.622194
0.621788
0.611919
0.611665
0.603422
0.614474
0.598585
0.59511
0.59981
0.595832
0.598763
0.584525
0.595512
0.594859
0.609975
0.603851
0.600062
0.606521
0.604745
0.609057
0.612486
0.602817
0.585267
0.589936
0.587576
0.59503
0.580228
0.585471
0.578867
0.590347
0.591087
0.59654
0.587234
0.58254
0.669715
0.665829
0.672827
0.679284
0.671064
0.669777
0.668537
0.644356
0.645221
0.650361
0.655192
0.653059
0.651706
0.653463
0.653016
0.648171
0.645919
0.64668
0.648753
0.647006
0.64073
0.64232
0.647242
0.642533
0.648374
0.644796
0.653339
0.647807
0.642005
0.638794
0.633908
0.627943
0.622027
0.625712
0.630316
0.636645
0.640232
0.629067
0.632576
0.62328
0.646239
0.631619
0.635169
0.642967
0.634534
0.617506
0.619813
0.62463
0.608485
0.613791
0.6268
0.627553
0.636071
0.639418
0.640606
0.636087
0.635644
0.633459
0.626575
0.634466
0.63306
0.631863
0.629129
0.627722
0.624426
0.621203
0.619412
0.617692
0.623862
0.626384
0.625586
0.622042
0.667138
0.664085
0.660812
0.661975
0.665429
0.668864
0.678609
0.663689
0.659945
0.6675
0.658429
0.66461
0.640833
0.640585
0.651574
0.65194
0.642363
0.637577
0.659961
0.65532
0.637823
0.63041
0.624382
0.621901
0.620012
0.647137
0.640432
0.642143
0.642481
0.643361
0.64422
0.68144
0.677983
0.66557
0.673576
0.678542
0.671555
0.671176
0.675634
0.6693
0.668846
0.644715
0.642399
0.631872
0.635537
0.634331
0.639805
0.63544
0.639101
0.640567
0.63838
0.63862
0.664169
0.661215
0.653266
0.659995
0.666888
0.663656
0.654491
0.654901
0.659044
0.657761
0.658968
0.656224
0.657415
0.659036
0.663165
0.664236
0.660764
0.651954
0.655472
0.653898
0.657243
0.656494
0.66063
0.659537
0.663615
0.669977
0.669293
0.676553
0.660945
0.677571
0.672928
0.672688
0.661424
0.692287
0.684652
0.680363
0.675515
0.678511
0.680876
0.664571
0.667823
0.664425
0.659433
0.643515
0.64761
0.639758
0.639234
0.648317
0.654205
0.651716
0.653511
0.636139
0.642461
0.639016
0.661194
0.651083
0.652237
0.659138
0.651431
0.642958
0.645999
0.645649
0.643716
0.647176
0.642455
0.64227
0.654988
0.650708
0.636539
0.635708
0.668504
0.667279
0.669782
0.669563
0.656279
0.660905
0.658387
0.66373
0.66188
0.655287
0.663513
0.663676
0.658467
0.665911
0.668133
0.662166
0.6644
0.65989
0.669123
0.654737
0.654916
0.649772
0.649401
0.649601
0.654307
0.653196
0.660392
0.657897
0.656024
0.655554
0.651367
0.650698
0.654424
0.652857
0.653034
0.649792
0.650712
0.707436
0.696277
0.698177
0.701826
0.700005
0.69543
0.684618
0.677403
0.685254
0.686004
0.683792
0.683876
0.688772
0.69221
0.680821
0.698828
0.695048
0.692581
0.687899
0.693752
0.694265
0.692713
0.690464
0.689725
0.69213
0.685239
0.676201
0.677712
0.671134
0.682095
0.682435
0.677989
0.684173
0.682178
0.678855
0.675966
0.67844
0.670902
0.672022
0.671831
0.665801
0.672039
0.6779
0.670285
0.668017
0.676467
0.675154
0.674708
0.676814
0.665516
0.659453
0.650207
0.669055
0.681381
0.66818
0.674263
0.664007
0.678379
0.675889
0.660208
0.659051
0.660052
0.66111
0.656951
0.655655
0.655467
0.657575
0.658553
0.655742
0.65364
0.6454
0.64898
0.671269
0.66651
0.667364
0.663281
0.661841
0.655678
0.661187
0.665613
0.663997
0.665592
0.658317
0.663983
0.667828
0.667816
0.665457
0.662113
0.658676
0.662646
0.666278
0.666807
0.667864
0.664739
0.6632
0.66327
0.661151
0.660123
0.662584
0.663374
0.667279
0.673015
0.664843
0.664325
0.672615
0.665943
0.671213
0.67011
0.664097
0.66241
0.666516
0.665588
0.663141
0.666018
0.66324
0.66518
0.663091
0.661813
0.661446
0.662154
0.661505
0.664577
0.661886
0.717095
0.708911
0.71085
0.707622
0.706316
0.705846
0.704225
0.709413
0.70225
0.698621
0.688112
0.702223
0.699184
0.708024
0.706059
0.711314
0.708412
0.697913
0.688221
0.68847
0.684751
0.692345
0.685451
0.690243
0.697109
0.685544
0.669034
0.67601
0.673502
0.681711
0.685075
0.678842
0.668862
0.663614
0.657702
0.659972
0.662101
0.65488
0.668531
0.661906
0.660278
0.679273
0.668439
0.667299
0.643411
0.657959
0.650641
0.653109
0.727176
0.723746
0.708345
0.712239
0.701017
0.715381
0.716353
0.704006
0.705663
0.670909
0.664082
0.66732
0.669349
0.666985
0.655951
0.657761
0.665885
0.669161
0.661636
0.669286
0.667474
0.659182
0.66406
0.658927
0.672712
0.666078
0.668755
0.669939
0.672662
0.672348
0.668764
0.668658
0.668905
0.671797
0.666255
0.663826
0.662719
0.663663
0.664356
0.66761
0.667577
0.670402
0.669597
0.720409
0.711463
0.712558
0.702548
0.695391
0.696233
0.701008
0.684778
0.689019
0.682038
0.696412
0.695725
0.673356
0.68466
0.67232
0.686524
0.678381
0.677162
0.689265
0.689215
0.712522
0.724245
0.704774
0.720291
0.717654
0.699998
0.70591
0.704426
0.698862
0.686905
0.692014
0.693839
0.683233
0.71181
0.703775
0.693239
0.704551
0.702685
0.694452
0.693944
0.697036
0.699364
0.688232
0.679151
0.685359
0.687956
0.699486
0.684207
0.67999
0.684543
0.692946
0.693236
0.688491
0.687994
0.747899
0.743751
0.743895
0.721326
0.721875
0.733777
0.74085
0.724306
0.731012
0.72629
0.737046
0.73347
0.697561
0.685833
0.689141
0.709931
0.706191
0.687977
0.672461
0.677266
0.673335
0.672877
0.674991
0.673726
0.673729
0.672475
0.677641
0.674379
0.670746
0.675396
0.674532
0.675027
0.67249
0.668611
0.670106
0.674816
0.672414
0.697031
0.696396
0.687998
0.682734
0.676707
0.683734
0.688742
0.673812
0.682382
0.682673
0.68805
0.680714
0.677268
0.677773
0.676323
0.66705
0.67141
0.676482
0.674492
0.661134
0.671212
0.664282
0.662874
0.659877
0.752815
0.749952
0.748906
0.747313
0.737109
0.732343
0.729976
0.732388
0.743403
0.733195
0.737147
0.736754
0.737877
0.75361
0.744544
0.730896
0.738414
0.677201
0.677731
0.671468
0.673389
0.678604
0.67507
0.676071
0.67541
0.675663
0.677194
0.674237
0.672701
0.670394
0.671753
0.66707
0.671868
0.67078
0.672671
0.672205
0.671133
0.670244
0.709423
0.714428
0.708751
0.706896
0.712633
0.675981
0.67457
0.672991
0.672688
0.674238
0.665441
0.672212
0.674326
0.66958
0.671753
0.67257
0.679395
0.676161
0.671509
0.674284
0.680378
0.677066
0.676517
0.676762
0.675862
0.753479
0.747972
0.737929
0.754426
0.729297
0.735413
0.737901
0.666692
0.668511
0.664117
0.669716
0.674747
0.671764
0.664911
0.659361
0.674221
0.666998
0.673436
0.675472
0.674753
0.664646
0.671195
0.661262
0.671256
0.66432
0.664003
0.706368
0.700937
0.699119
0.700281
0.690315
0.69686
0.710054
0.703946
0.703448
0.699915
0.668932
0.666895
0.669673
0.669354
0.668058
0.665956
0.666054
0.663507
0.665468
0.675979
0.674235
0.67482
0.675638
0.67822
0.677997
0.685405
0.697795
0.697469
0.704799
0.704463
0.694449
0.688709
0.700503
0.693066
0.6943
0.666918
0.669246
0.667124
0.667158
0.666822
0.665757
0.670918
0.674942
0.672958
0.670569
0.669954
0.671515
0.67745
0.677231
0.748877
0.750025
0.741459
0.758363
0.71655
0.712916
0.712345
0.712482
0.69919
0.701053
0.726046
0.727822
0.726488
0.723039
0.716736
0.720218
0.721969
0.722709
0.715751
0.711293
0.714341
0.659008
0.665865
0.663168
0.659408
0.66198
0.659254
0.65923
0.656912
0.667953
0.665473
0.668206
0.657519
0.663316
0.656676
0.667266
0.65962
0.656162
0.657092
0.652462
0.655403
0.659592
0.652104
0.658553
0.65395
0.665873
0.665631
0.660188
0.663968
0.666615
0.656895
0.659889
0.6692
0.664577
0.658497
0.678181
0.668522
0.677452
0.681924
0.681907
0.683472
0.687801
0.677096
0.679934
0.676017
0.68997
0.688644
0.681588
0.683738
0.674367
0.671848
0.668366
0.675204
0.672301
0.666532
0.671487
0.67517
0.67196
0.666165
0.663454
0.666981
0.670209
0.665873
0.666794
0.665678
0.663684
0.664472
0.666559
0.665
0.665923
0.664662
0.668827
0.667499
0.667604
0.664967
0.662045
0.66316
0.661055
0.664687
0.672685
0.660509
0.665133
0.662799
0.665933
0.644715
0.645721
0.661539
0.659175
0.656224
0.649303
0.646992
0.649557
0.646266
0.651741
0.654415
0.648592
0.662962
0.660448
0.659267
0.663763
0.662002
0.661016
0.661536
0.660511
0.664557
0.678288
0.671522
0.668641
0.669671
0.671946
0.672006
0.68056
0.696803
0.698235
0.699591
0.703897
0.672352
0.665589
0.666676
0.674755
0.676359
0.669225
0.670009
0.671705
0.668693
0.66681
0.674786
0.666318
0.668001
0.662891
0.677319
0.6678
0.670716
0.679538
0.674027
0.665412
0.683056
0.670663
0.679228
0.673334
0.682704
0.678065
0.675198
0.675063
0.672507
0.663511
0.678963
0.670317
0.668978
0.669318
0.667339
0.672172
0.674772
0.67115
0.676051
0.681597
0.67488
0.671655
0.672559
0.681266
0.669223
0.681608
0.685999
0.686268
0.692564
0.688943
0.686417
0.688644
0.685157
0.692571
0.692218
0.694121
0.677393
0.691991
0.684284
0.680476
0.679636
0.673102
0.687157
0.689009
0.685101
0.686302
0.690432
0.691052
0.704943
0.687348
0.654699
0.654865
0.654383
0.648374
0.652807
0.652206
0.658199
0.656887
0.655746
0.653712
0.65372
0.657646
0.65358
0.651299
0.652384
0.648867
0.651304
0.654934
0.656944
0.657984
0.659229
0.657344
0.660832
0.659847
0.658781
0.660326
0.65917
0.668321
0.664538
0.668722
0.66433
0.657125
0.658801
0.655956
0.659794
0.658708
0.663961
0.658939
0.660995
0.660082
0.658098
0.662195
0.666519
0.662714
0.658096
0.663653
0.665499
0.670386
0.667147
0.662067
0.663905
0.662425
0.667366
0.658868
0.669298
0.670421
0.665817
0.66424
0.663515
0.661472
0.659355
0.669142
0.671265
0.669781
0.666453
0.661432
0.660687
0.66904
0.662426
0.666623
0.667693
0.671889
0.658561
0.629689
0.640451
0.638277
0.636458
0.633865
0.642642
0.635738
0.627054
0.625464
0.619986
0.637125
0.630188
0.627977
0.632048
0.630352
0.628024
0.642796
0.646138
0.64832
0.643144
0.647218
0.645211
0.646474
0.649049
0.690137
0.681992
0.676421
0.687471
0.684678
0.659958
0.681882
0.671873
0.650548
0.650761
0.651233
0.661875
0.660191
0.668697
0.659822
0.660232
0.648382
0.672015
0.665844
0.65796
0.66109
0.655234
0.649371
0.667807
0.644383
0.667725
0.658933
0.685008
0.682561
0.676834
0.679134
0.671968
0.67905
0.680548
0.647603
0.650701
0.655078
0.657455
0.651704
0.650203
0.645257
0.64434
0.640244
0.658414
0.661264
0.65327
0.654417
0.654213
0.659375
0.661266
0.660235
0.656847
0.659753
0.670538
0.667076
0.666915
0.661103
0.661325
0.661867
0.666372
0.659474
0.660649
0.656586
0.659461
0.657299
0.656111
0.658223
0.658243
0.661837
0.663234
0.656269
0.654185
0.622182
0.625814
0.626688
0.63044
0.6332
0.626851
0.626134
0.622899
0.629988
0.629556
0.632341
0.651266
0.647912
0.650838
0.648322
0.648642
0.646816
0.647176
0.646524
0.642593
0.672038
0.671275
0.67816
0.66927
0.676866
0.67218
0.676
0.675763
0.66504
0.674824
0.667437
0.641377
0.642495
0.641053
0.64441
0.644279
0.639841
0.639032
0.641702
0.646074
0.643003
0.641597
0.645587
0.643962
0.642138
0.641734
0.642588
0.643786
0.641545
0.642531
0.640558
0.643075
0.644672
0.649943
0.647853
0.650228
0.644523
0.649696
0.646722
0.644687
0.648937
0.639971
0.644806
0.64521
0.64379
0.649381
0.651359
0.64743
0.646644
0.631819
0.631047
0.630718
0.622144
0.63813
0.639026
0.633529
0.6201
0.617172
0.621136
0.626185
0.633379
0.621486
0.620914
0.635964
0.617953
0.623583
0.618389
0.618984
0.617983
0.627816
0.62608
0.624339
0.627409
0.630535
0.623727
0.634831
0.634805
0.626802
0.614794
0.611303
0.614616
0.636716
0.639685
0.63657
0.635636
0.632422
0.635965
0.643756
0.644725
0.643323
0.640701
0.643273
0.644731
0.644595
0.643099
0.641808
0.644499
0.644154
0.650528
0.650861
0.650538
0.647056
0.648
0.650216
0.580255
0.57951
0.56749
0.573454
0.580014
0.583271
0.593775
0.596424
0.602642
0.596247
0.616014
0.611976
0.607211
0.604097
0.601394
0.615012
0.612389
0.607375
0.606598
0.604467
0.607176
0.602599
0.602804
0.604465
0.602314
0.598378
0.597953
0.590759
0.63675
0.622828
0.639098
0.640649
0.642129
0.625683
0.622177
0.642934
0.637831
0.624509
0.614122
0.649145
0.648781
0.651615
0.652149
0.663601
0.643021
0.643782
0.6406
0.649331
0.64128
0.646575
0.653967
0.650423
0.659203
0.654977
0.654559
0.643604
0.646678
0.651395
0.652867
0.652435
0.649852
0.657537
0.65693
0.62468
0.621076
0.628939
0.625529
0.628347
0.626541
0.625336
0.626594
0.626647
0.631991
0.631671
0.630419
0.635682
0.634391
0.632059
0.632752
0.633562
0.578497
0.570305
0.57488
0.572391
0.685377
0.67476
0.680376
0.689746
0.671091
0.67611
0.674569
0.662799
0.67292
0.66738
0.664949
0.673498
0.674952
0.623335
0.623566
0.61696
0.619724
0.614957
0.597845
0.608008
0.602811
0.607004
0.601119
0.56547
0.557858
0.551342
0.565714
0.552833
0.555222
0.550908
0.553389
0.547688
0.563743
0.561089
0.56086
0.552134
0.559702
0.559068
0.546712
0.543326
0.545726
0.549145
0.677432
0.681808
0.688308
0.678672
0.677999
0.661157
0.663899
0.661356
0.655025
0.661533
0.668281
0.667817
0.665132
0.660404
0.676372
0.674011
0.673132
0.681288
0.671
0.679637
0.685859
0.692757
0.683378
0.692853
0.691801
0.679644
0.683132
0.678521
0.679279
0.656323
0.652694
0.655408
0.640078
0.646371
0.64426
0.636046
0.628257
0.639607
0.637653
0.648216
0.647033
0.649146
0.649708
0.655026
0.653166
0.559296
0.571065
0.560841
0.567962
0.550617
0.549454
0.556156
0.572881
0.570492
0.547892
0.545547
0.521897
0.518794
0.514884
0.509896
0.519597
0.522394
0.51944
0.526799
0.53143
0.531983
0.537229
0.536063
0.553248
0.558016
0.542939
0.533891
0.527976
0.540819
0.549439