/*--------------------------------*- C++ -*----------------------------------*\
| =========                 |                                                 |
| \\      /  F ield         | OpenFOAM: The Open Source CFD Toolbox           |
|  \\    /   O peration     | Version:  v1612+                                |
|   \\  /    A nd           | Web:      www.OpenFOAM.com                      |
|    \\/     M anipulation  |                                                 |
\*---------------------------------------------------------------------------*/
FoamFile
{
    version     2.0;
    format      ascii;
    class       volVectorField;
    location    "100";
    object      U;
}
// * * * * * * * * * * * * * * * * * * * * * * * * * * * * * * * * * * * * * //

dimensions      [0 1 -1 0 0 0 0];

internalField   nonuniform List<vector> 
19034
(
(0.226184 0.93018 0.717063)
(0.226728 0.900251 0.694808)
(0.211636 0.971639 0.727784)
(0.220403 0.940798 0.714807)
(0.213814 0.964072 0.722827)
(0.18212 0.992533 0.735052)
(0.180344 1.00167 0.736257)
(0.199262 0.978506 0.727436)
(0.210584 0.960233 0.716785)
(0.146808 1.02324 0.729235)
(0.161541 1.02557 0.727559)
(0.200668 0.971172 0.713515)
(0.20739 0.945509 0.694221)
(0.185647 1.01797 0.735762)
(0.289239 0.642468 0.347552)
(0.289653 0.66973 0.369724)
(0.275991 0.601384 0.325382)
(0.281768 0.602892 0.315484)
(0.268322 0.485626 0.253681)
(0.255578 0.480609 0.245531)
(0.259894 0.472485 0.250495)
(0.284453 0.478021 0.269354)
(0.25853 0.421272 0.23763)
(0.281274 0.507961 0.30988)
(0.274263 0.463747 0.271567)
(0.300436 0.621576 0.334134)
(0.309202 0.652018 0.336455)
(0.292808 0.528477 0.316823)
(0.282363 0.543092 0.326694)
(0.26229 0.466803 0.274979)
(0.307841 0.617183 0.352685)
(0.313616 0.658607 0.386044)
(0.306297 0.621852 0.365235)
(0.147118 0.50864 0.182551)
(0.140729 0.489346 0.170104)
(0.120339 0.409164 0.123787)
(0.117457 0.378892 0.0927473)
(0.150564 0.514551 0.18423)
(0.133504 0.485206 0.181741)
(0.15088 0.405324 0.0932974)
(0.131574 0.368386 0.076614)
(0.12836 0.423701 0.138302)
(0.138657 0.438064 0.125057)
(0.136982 0.433991 0.136911)
(0.140908 0.446856 0.134324)
(0.122124 0.375582 0.0943649)
(0.13931 0.413313 0.129234)
(0.343469 0.939483 0.498013)
(0.33748 0.963989 0.521087)
(0.337952 0.958192 0.506839)
(0.339717 0.88604 0.467313)
(0.368869 0.909439 0.479892)
(0.372589 0.930098 0.494446)
(0.342803 0.917678 0.509697)
(0.300967 0.930232 0.532826)
(0.300467 0.937683 0.532442)
(0.366307 0.856592 0.458816)
(0.320796 0.952904 0.535049)
(0.34578 0.946954 0.500189)
(0.391871 0.898188 0.479975)
(0.382927 0.897235 0.482552)
(0.377697 0.89606 0.482894)
(0.307658 0.930352 0.532698)
(0.271624 0.928413 0.526876)
(0.380517 0.928476 0.504739)
(0.0969656 0.764792 0.417984)
(0.0824604 0.74891 0.394459)
(0.0465796 0.712118 0.384991)
(0.0318733 0.694295 0.387711)
(-0.000200187 0.606888 0.364146)
(0.00284174 0.647888 0.37267)
(0.00944275 0.632908 0.361405)
(0.0651311 0.745733 0.4056)
(0.0373608 0.708801 0.386814)
(0.0623078 0.769396 0.436595)
(0.0541243 0.74911 0.431467)
(0.0744704 0.781932 0.467684)
(0.0577279 0.704173 0.400885)
(0.0689953 0.794046 0.471863)
(0.0336332 0.61372 0.326687)
(0.0308414 0.563328 0.324771)
(0.0301564 0.633681 0.354586)
(0.0518076 0.601821 0.353459)
(0.0300425 0.601121 0.352389)
(0.0656121 0.662062 0.333961)
(0.047533 0.666301 0.339073)
(0.0201275 0.570118 0.318689)
(0.0325149 0.692647 0.381673)
(0.0580967 0.722035 0.382263)
(0.0722087 0.731163 0.381286)
(0.0361717 0.673728 0.368778)
(0.00686554 0.54441 0.322119)
(0.0439522 0.649043 0.352807)
(0.0447349 0.597956 0.382204)
(0.0837639 0.590485 0.398026)
(0.0649771 0.566136 0.377763)
(0.0603225 0.583285 0.387)
(0.0247894 0.569433 0.352466)
(0.0035316 0.47833 0.28695)
(0.0242451 0.575206 0.322679)
(0.0182633 0.572593 0.367608)
(0.0488108 0.577906 0.379932)
(-0.00167605 0.540457 0.336532)
(0.0145505 0.627634 0.359108)
(0.0726117 0.302792 0.183574)
(0.0731299 0.291424 0.170651)
(0.0726288 0.320604 0.194918)
(0.0760868 0.315067 0.187735)
(0.0866987 0.343382 0.189722)
(0.0941036 0.385858 0.210911)
(0.100652 0.441899 0.236071)
(0.0921314 0.352699 0.194982)
(0.0805742 0.302075 0.173315)
(0.0860853 0.360004 0.199715)
(0.0927949 0.421869 0.232969)
(0.112473 0.468962 0.255575)
(0.0893582 0.369448 0.215413)
(0.248349 0.943732 0.660232)
(0.252059 0.958227 0.668484)
(0.241603 0.947334 0.657742)
(0.244767 0.93652 0.653578)
(0.231605 0.933587 0.628084)
(0.236528 0.918891 0.614767)
(0.239687 0.957214 0.61971)
(0.235432 0.989558 0.640218)
(0.241473 0.93138 0.62837)
(0.247621 0.950987 0.653025)
(0.23842 0.926427 0.625775)
(0.226391 0.946551 0.6337)
(0.245444 1.01932 0.680967)
(0.239907 0.948893 0.625914)
(0.245599 0.975018 0.638144)
(0.247528 1.01233 0.653522)
(0.226505 0.974482 0.647407)
(0.234869 0.966084 0.660092)
(0.203768 0.955167 0.624376)
(0.190771 0.939859 0.61484)
(0.246149 0.977868 0.641305)
(0.239134 1.0082 0.642656)
(0.233251 0.987786 0.641987)
(0.215836 0.977987 0.654022)
(0.0109498 0.576043 0.375459)
(0.00319792 0.589616 0.386878)
(0.0279086 0.573085 0.362875)
(0.00321238 0.586801 0.386245)
(0.0126272 0.539866 0.365594)
(0.0073012 0.567762 0.386086)
(0.0312176 0.575248 0.362021)
(-0.0036919 0.500115 0.328923)
(-0.00498525 0.516939 0.352577)
(0.0309621 0.566519 0.362665)
(0.118047 0.60366 0.419031)
(0.141086 0.617493 0.425824)
(0.0222614 0.54575 0.365027)
(-0.00122371 0.484203 0.336512)
(0.0594596 0.540885 0.366614)
(0.0822662 0.591755 0.373464)
(0.124161 0.635374 0.405443)
(0.0789616 0.576705 0.400923)
(0.10375 0.639923 0.402809)
(0.159784 0.658778 0.459691)
(0.155687 0.625755 0.455037)
(0.195056 0.678147 0.484305)
(0.208868 0.706524 0.505313)
(0.121099 0.649438 0.433348)
(0.0662869 0.600658 0.390138)
(0.150512 0.673774 0.454248)
(0.0410133 0.671504 0.357153)
(0.0537533 0.617708 0.373534)
(0.134027 0.679858 0.417542)
(0.158403 0.692249 0.455337)
(0.0300383 0.651245 0.364321)
(0.0714822 0.679 0.383547)
(0.105958 0.689685 0.410269)
(0.227945 0.841988 0.582754)
(0.228881 0.834673 0.584403)
(0.233218 0.900757 0.609114)
(0.2252 0.833545 0.59925)
(0.235851 0.865412 0.623358)
(0.231705 0.896062 0.616446)
(0.222814 0.831955 0.574917)
(0.238928 0.927419 0.654861)
(0.230933 0.91734 0.630557)
(0.239161 0.933288 0.63746)
(0.233588 0.834881 0.60446)
(0.226177 0.811858 0.597331)
(0.305795 0.950436 0.471551)
(0.332454 0.98146 0.512677)
(0.309409 0.958311 0.513034)
(0.279929 0.857759 0.40301)
(0.260518 0.81566 0.365196)
(0.252809 0.766755 0.335222)
(0.278435 0.769353 0.333851)
(0.326036 1.01031 0.555307)
(0.246637 0.774358 0.361229)
(0.233048 0.774156 0.360116)
(0.291574 0.898961 0.453915)
(0.273368 0.821796 0.381693)
(0.332904 0.915646 0.490356)
(0.313288 0.890382 0.495992)
(0.302852 0.928203 0.510148)
(0.273638 0.832126 0.408249)
(0.300927 0.877121 0.482898)
(0.259103 0.795844 0.403078)
(0.259171 0.756014 0.384021)
(0.297243 0.861045 0.443727)
(0.322237 0.7731 0.417032)
(0.317328 0.770309 0.423878)
(0.279626 0.673502 0.362013)
(0.275601 0.652348 0.370145)
(0.319601 0.804061 0.442725)
(0.346644 0.852617 0.470765)
(0.316656 0.772131 0.43747)
(0.299762 0.677744 0.478522)
(0.282009 0.610474 0.433809)
(0.295303 0.626325 0.452657)
(0.261109 0.528087 0.375411)
(0.298366 0.777126 0.529509)
(0.298381 0.730627 0.496211)
(0.291396 0.618028 0.422821)
(0.299323 0.656963 0.465195)
(0.297036 0.812409 0.533519)
(0.298788 0.775115 0.499414)
(0.289221 0.731398 0.449502)
(0.298599 0.770589 0.519391)
(0.275529 0.573448 0.39211)
(0.267568 0.543972 0.366299)
(0.278041 0.611541 0.393588)
(0.255019 0.533267 0.359733)
(0.263018 0.559585 0.367536)
(0.268114 0.590386 0.368901)
(0.292022 0.728409 0.471459)
(0.279307 0.615613 0.400255)
(0.259123 0.684967 0.504424)
(0.225001 0.619001 0.450723)
(0.273944 0.721333 0.535416)
(0.241676 0.686001 0.505289)
(0.242339 0.699362 0.505156)
(0.285414 0.822401 0.565627)
(0.253851 0.788789 0.553042)
(0.306681 0.821878 0.56768)
(0.288504 0.919429 0.624329)
(0.280944 0.859678 0.60395)
(0.278562 0.936802 0.6283)
(0.277205 0.93226 0.621812)
(0.293051 0.824012 0.595729)
(0.287671 0.876633 0.611962)
(0.322161 0.922369 0.428566)
(0.317337 0.916393 0.44031)
(0.307992 0.923183 0.44396)
(0.310105 0.931152 0.459346)
(0.317211 0.912388 0.429667)
(0.288143 0.816978 0.370644)
(0.306433 0.84447 0.385308)
(0.321367 0.811701 0.368898)
(0.323374 0.830244 0.380177)
(0.294871 0.827159 0.3936)
(0.316436 0.857808 0.363183)
(0.289088 0.810547 0.346535)
(0.272687 0.741924 0.290134)
(0.308441 0.784214 0.322314)
(0.311486 0.792016 0.343796)
(0.295009 0.805364 0.356706)
(0.30896 0.781855 0.346589)
(0.286702 0.72601 0.290155)
(0.113418 0.454984 0.159041)
(0.111591 0.444778 0.137068)
(0.145487 0.511808 0.137834)
(0.131274 0.505535 0.160788)
(0.126428 0.427354 0.110465)
(0.142697 0.454199 0.105721)
(0.126515 0.512934 0.166471)
(0.119231 0.471096 0.140335)
(0.115508 0.433224 0.119995)
(0.108444 0.412596 0.102957)
(0.130065 0.522556 0.16774)
(0.123198 0.544221 0.188532)
(0.123991 0.529578 0.198491)
(0.124187 0.454017 0.127109)
(0.143093 0.440622 0.0847506)
(0.12596 0.398187 0.0752445)
(0.133653 0.533551 0.172554)
(0.11162 0.383851 0.0670655)
(0.112403 0.433867 0.106999)
(0.13438 0.471115 0.107745)
(0.0763383 0.417502 0.256888)
(0.0787698 0.413515 0.250141)
(0.0838722 0.436472 0.25325)
(0.0796595 0.444215 0.266621)
(0.0774931 0.344125 0.209604)
(0.0635507 0.316097 0.211167)
(0.0786751 0.397142 0.231029)
(0.0625217 0.284737 0.19993)
(0.0609771 0.264667 0.180307)
(0.0819984 0.322822 0.185563)
(0.0612442 0.287874 0.189711)
(0.0595408 0.310361 0.212246)
(0.0653243 0.263439 0.172173)
(0.393763 0.90906 0.469707)
(0.383091 0.912957 0.47211)
(0.418265 0.852022 0.467798)
(0.379801 0.868401 0.481749)
(0.414671 0.85933 0.445751)
(0.406135 0.865969 0.451584)
(0.353562 0.910314 0.482428)
(0.384323 0.85316 0.478827)
(0.430723 0.82909 0.459536)
(0.425929 0.794191 0.435834)
(0.355788 0.913071 0.491745)
(0.387231 0.920675 0.486006)
(0.389438 0.880446 0.49455)
(0.402073 0.869851 0.483084)
(0.407669 0.871097 0.464795)
(0.414165 0.839295 0.437662)
(0.24348 0.673203 0.508171)
(0.276311 0.772471 0.56736)
(0.246496 0.584255 0.455018)
(0.264471 0.61954 0.468442)
(0.256957 0.671474 0.506304)
(0.279006 0.741103 0.549752)
(0.279675 0.757276 0.558131)
(0.27184 0.709293 0.534702)
(0.257717 0.640128 0.48694)
(0.237546 0.597351 0.461638)
(0.231965 0.57635 0.437507)
(0.284454 0.731013 0.543005)
(0.248312 0.56503 0.439988)
(0.235072 0.54243 0.416502)
(0.236846 0.573116 0.437824)
(0.217994 0.516484 0.40071)
(0.265477 0.790997 0.610314)
(0.259369 0.726228 0.572419)
(0.242739 0.721323 0.567598)
(0.257927 0.771464 0.598678)
(0.257296 0.702423 0.560247)
(0.238805 0.650969 0.531643)
(0.252087 0.707296 0.563003)
(0.255147 0.742151 0.595403)
(0.245146 0.741731 0.584718)
(0.231321 0.677159 0.539368)
(0.277469 0.799517 0.617321)
(0.254898 0.810931 0.620563)
(0.268324 0.753134 0.602051)
(0.257251 0.830957 0.634034)
(0.27148 0.811842 0.628365)
(0.251555 0.761867 0.596261)
(0.204997 0.796855 0.457221)
(0.270703 0.848859 0.478925)
(0.256145 0.856091 0.476653)
(0.360491 0.901459 0.490003)
(0.366453 0.856824 0.472567)
(0.327963 0.825548 0.470578)
(0.378155 0.899694 0.455621)
(0.391558 0.921518 0.469483)
(0.209232 0.784811 0.454651)
(0.352603 0.802546 0.467937)
(0.407402 0.859934 0.46891)
(0.388817 0.870269 0.454275)
(0.323211 0.806149 0.470396)
(0.347241 0.827841 0.457813)
(0.356166 0.688245 0.498683)
(0.275773 0.665685 0.497995)
(0.346913 0.741428 0.476998)
(0.257254 0.704189 0.469758)
(0.263515 0.633267 0.504591)
(0.341684 0.621544 0.512235)
(0.397781 0.602524 0.49299)
(0.222167 0.67913 0.470361)
(0.216635 0.60606 0.496361)
(0.333487 0.624505 0.491888)
(0.280096 0.60582 0.491053)
(0.437488 0.680133 0.467032)
(0.424547 0.631763 0.46192)
(0.340263 0.622445 0.480963)
(0.386512 0.618303 0.490384)
(0.415054 0.677638 0.460436)
(0.404132 0.598095 0.468481)
(0.338544 0.717782 0.482815)
(0.319347 0.709695 0.473646)
(0.315238 0.743902 0.475639)
(0.219148 0.846643 0.545116)
(0.24147 0.901641 0.569317)
(0.214372 0.808735 0.51781)
(0.236441 0.88097 0.59781)
(0.22378 0.847706 0.576193)
(0.224131 0.844356 0.548787)
(0.229935 0.881051 0.569132)
(0.206524 0.793995 0.528154)
(0.238711 0.906937 0.59921)
(0.221352 0.861472 0.573732)
(0.146229 0.809107 0.602982)
(0.135722 0.809259 0.585151)
(0.182988 0.89211 0.654573)
(0.202018 0.898685 0.662299)
(0.175583 0.844293 0.580673)
(0.231502 0.854324 0.575511)
(0.181239 0.853122 0.558235)
(0.223171 0.857823 0.555781)
(0.0844016 0.766808 0.570688)
(0.106988 0.785968 0.574241)
(0.227143 0.886662 0.646071)
(0.24173 0.900451 0.643424)
(0.256628 0.895316 0.638298)
(0.193876 0.859854 0.574351)
(0.192663 0.862096 0.576036)
(0.168991 0.892769 0.653977)
(0.0955653 0.784249 0.574915)
(0.109823 0.781095 0.568366)
(0.232217 0.900515 0.650547)
(0.203628 0.889799 0.631522)
(0.250809 0.925258 0.670449)
(0.240265 0.916108 0.661317)
(0.24135 0.918792 0.675215)
(0.219254 0.93053 0.692654)
(0.228663 0.948724 0.686716)
(0.280891 0.924394 0.682824)
(0.270576 0.923899 0.703548)
(0.279113 0.9041 0.663717)
(0.209305 0.9287 0.6828)
(0.264777 0.920194 0.692446)
(0.262965 0.966786 0.718269)
(0.278454 0.958383 0.709993)
(0.264634 0.921424 0.69723)
(0.280768 0.886934 0.678482)
(0.288082 0.905389 0.67756)
(0.107514 0.434567 0.237622)
(0.0870912 0.399354 0.229997)
(0.101333 0.439536 0.23785)
(0.112573 0.471886 0.250911)
(0.09186 0.421561 0.229947)
(0.113117 0.443576 0.229808)
(0.120948 0.476575 0.240363)
(0.0829326 0.330076 0.181642)
(0.0804044 0.350709 0.202197)
(0.082512 0.356401 0.196274)
(0.103782 0.370203 0.176338)
(0.0872532 0.321426 0.159772)
(0.0975251 0.372602 0.193855)
(0.104675 0.393763 0.200996)
(0.0809057 0.332024 0.187641)
(0.0803819 0.307999 0.168399)
(0.0958472 0.354692 0.180974)
(0.0847694 0.321753 0.170631)
(0.258648 0.771631 0.308805)
(0.247548 0.713467 0.270897)
(0.263538 0.799481 0.341253)
(0.292769 0.837676 0.346628)
(0.254922 0.758857 0.323992)
(0.259066 0.762805 0.309607)
(0.27742 0.793425 0.309262)
(0.258898 0.754476 0.285854)
(0.267334 0.789823 0.318048)
(0.269922 0.805463 0.341255)
(0.25425 0.798177 0.371558)
(0.276244 0.844877 0.39244)
(0.322026 1.00617 0.496789)
(0.312368 0.933251 0.422108)
(0.302996 0.916633 0.461782)
(0.323081 1.00426 0.505441)
(0.281613 0.836179 0.345802)
(0.315021 0.982534 0.481047)
(0.316523 0.98051 0.450092)
(0.307323 0.937492 0.449606)
(0.299492 0.913023 0.44669)
(0.303719 0.942762 0.472807)
(0.295309 0.857501 0.582568)
(0.306999 0.784491 0.557662)
(0.288484 0.824918 0.539707)
(0.298421 0.786528 0.525315)
(0.306425 0.811193 0.551895)
(0.312083 0.766661 0.531087)
(0.290515 0.722202 0.487485)
(0.298276 0.779509 0.509843)
(0.291561 0.78597 0.511034)
(0.294646 0.744643 0.500876)
(0.29439 0.81464 0.526888)
(0.290191 0.844087 0.525937)
(0.298497 0.824624 0.552323)
(0.304929 0.707539 0.471418)
(0.174331 0.857428 0.407692)
(0.215542 0.840763 0.400858)
(0.212115 0.872243 0.422192)
(0.138568 0.817098 0.388522)
(0.151692 0.805528 0.401344)
(0.23812 0.899656 0.44195)
(0.197879 0.846056 0.39271)
(0.28106 0.650091 0.282745)
(0.287733 0.625499 0.273346)
(0.294874 0.660958 0.279174)
(0.304973 0.637549 0.274186)
(0.266033 0.730474 0.308499)
(0.250919 0.69354 0.270442)
(0.282227 0.805039 0.375595)
(0.304436 0.791615 0.361318)
(0.247092 0.712455 0.296239)
(0.261827 0.762539 0.323122)
(0.299387 0.693053 0.308313)
(0.307902 0.700111 0.32734)
(0.321924 0.776903 0.39116)
(0.325468 0.801313 0.412325)
(0.270488 0.785837 0.367963)
(0.311346 0.702583 0.339288)
(0.263883 0.772407 0.367599)
(0.30196 0.767412 0.374285)
(0.147475 0.491367 0.40884)
(0.156656 0.513038 0.416173)
(0.132098 0.567748 0.422167)
(0.100423 0.479147 0.359138)
(0.173266 0.57542 0.452315)
(0.152018 0.478089 0.379218)
(0.154931 0.482544 0.37249)
(0.0981255 0.524318 0.36092)
(0.125284 0.565272 0.402795)
(0.103986 0.478837 0.350531)
(0.106444 0.502981 0.357793)
(0.190754 0.570918 0.448107)
(0.145789 0.527836 0.390441)
(0.165024 0.570159 0.424188)
(0.289066 0.858872 0.606309)
(0.309963 0.834444 0.609492)
(0.298452 0.890367 0.646947)
(0.28812 0.908513 0.666288)
(0.293671 0.885798 0.633021)
(0.280839 0.863768 0.583342)
(0.300557 0.864338 0.602734)
(0.283393 0.916806 0.67221)
(0.223447 0.908776 0.62588)
(0.27368 0.897811 0.611445)
(0.2384 0.95978 0.701702)
(0.2774 0.934313 0.673698)
(0.146766 0.867478 0.583771)
(0.153039 0.86294 0.599142)
(0.23389 0.908268 0.606817)
(0.222786 0.936557 0.68151)
(0.15753 0.874771 0.60745)
(0.21572 0.891661 0.603155)
(0.281676 0.894648 0.613156)
(0.0571134 0.345438 0.244742)
(0.0531354 0.291684 0.241052)
(0.0484753 0.34269 0.259192)
(0.0423076 0.375696 0.259314)
(0.0448733 0.300988 0.248898)
(0.0474175 0.343143 0.335314)
(0.0598046 0.329336 0.324375)
(0.0468549 0.37188 0.259514)
(0.0404789 0.31502 0.250046)
(0.0248093 0.368456 0.309584)
(0.0400732 0.352678 0.305224)
(0.0666209 0.327111 0.334251)
(0.0646013 0.309529 0.308064)
(0.0170109 0.431877 0.285442)
(0.0248979 0.413206 0.288101)
(0.0144566 0.356048 0.274812)
(0.0222085 0.352494 0.313737)
(0.0394045 0.318108 0.297586)
(0.0368853 0.330844 0.27281)
(0.02354 0.375484 0.302442)
(0.178794 0.911567 0.541181)
(0.166336 0.909831 0.541942)
(0.132541 0.872744 0.492663)
(0.123019 0.837463 0.493263)
(0.201406 0.941935 0.561584)
(0.238166 1.00059 0.619584)
(0.219498 0.977573 0.59789)
(0.233113 0.991823 0.597124)
(0.257865 0.991688 0.607513)
(0.158558 0.866756 0.507334)
(0.171595 0.892448 0.512963)
(0.207372 0.93581 0.563661)
(0.245039 0.984535 0.596913)
(0.248013 1.00072 0.608751)
(0.278193 1.00415 0.601453)
(0.280597 0.992785 0.590594)
(0.25788 1.00672 0.584185)
(0.210906 0.977814 0.594026)
(0.236177 0.963537 0.582901)
(0.268677 0.991842 0.588636)
(0.238635 0.953053 0.564214)
(0.13677 0.644491 0.328041)
(0.151525 0.644261 0.331644)
(0.0855052 0.550162 0.2997)
(0.126263 0.562079 0.297643)
(0.0457267 0.479647 0.290555)
(0.0565675 0.469329 0.279138)
(0.0962528 0.47823 0.27139)
(0.114507 0.620288 0.322662)
(0.126895 0.68257 0.38236)
(0.1144 0.659599 0.36938)
(0.0489784 0.503727 0.296421)
(0.0848293 0.528557 0.290252)
(0.0940491 0.571082 0.31787)
(0.0783162 0.642803 0.366195)
(0.245465 0.853624 0.488008)
(0.263641 0.821591 0.485839)
(0.257348 0.819882 0.472947)
(0.265926 0.785657 0.459107)
(0.297382 0.794993 0.495521)
(0.288532 0.766677 0.462326)
(0.25495 0.844631 0.524896)
(0.261797 0.832886 0.499293)
(0.304474 0.825998 0.524493)
(0.230511 1.02506 0.634629)
(0.249528 1.03985 0.632092)
(0.120944 0.838291 0.534096)
(0.129345 0.854657 0.547512)
(0.206609 1.03813 0.659359)
(0.241381 1.01905 0.626686)
(0.231859 0.975412 0.605821)
(0.230402 1.0274 0.666692)
(0.221042 1.03389 0.686901)
(0.176692 0.915761 0.598882)
(0.173965 0.939662 0.624781)
(0.182464 0.907675 0.572613)
(0.178417 0.895117 0.55293)
(0.164445 0.880354 0.575683)
(0.127331 0.841033 0.538459)
(0.231982 1.032 0.653959)
(0.235273 1.00879 0.61869)
(0.184627 0.593023 0.308491)
(0.168947 0.530939 0.273064)
(0.133787 0.521457 0.26726)
(0.168302 0.634655 0.328641)
(0.205901 0.60444 0.318032)
(0.172663 0.488421 0.25151)
(0.207897 0.626348 0.323194)
(0.200356 0.560462 0.290202)
(0.158552 0.645686 0.327878)
(0.208316 0.646806 0.340086)
(0.179703 0.677536 0.346486)
(0.141552 0.549764 0.275169)
(0.152801 0.508114 0.254373)
(0.144711 0.500072 0.259031)
(0.144507 0.430856 0.221036)
(0.174346 0.499674 0.259904)
(0.271753 0.820961 0.620872)
(0.26378 0.908215 0.668192)
(0.263263 0.896557 0.673527)
(0.286534 0.886375 0.656122)
(0.280687 0.915523 0.671277)
(0.265307 0.940646 0.669118)
(0.237166 0.949128 0.678923)
(0.25896 0.966339 0.703817)
(0.256104 0.928102 0.689897)
(0.280704 0.941205 0.688829)
(0.283354 0.879768 0.671735)
(0.101961 0.61106 0.380617)
(0.0502712 0.636732 0.331308)
(0.0491656 0.621033 0.318581)
(0.0629318 0.580113 0.328811)
(0.063342 0.666637 0.335729)
(0.0754499 0.589485 0.296242)
(0.0716917 0.548993 0.313051)
(0.0925329 0.60817 0.314861)
(0.062539 0.64669 0.311505)
(0.0886372 0.594356 0.297735)
(0.0869329 0.566334 0.301343)
(0.0878208 0.592082 0.295735)
(0.0890025 0.575001 0.297613)
(0.0568841 0.649404 0.300769)
(0.067095 0.688282 0.3271)
(0.0863688 0.602229 0.289202)
(0.0883756 0.684253 0.310889)
(0.282936 1.00626 0.594194)
(0.291695 0.952403 0.55316)
(0.290564 0.978888 0.587233)
(0.28979 0.940608 0.55204)
(0.278107 0.98229 0.58665)
(0.290851 0.939045 0.549923)
(0.280042 1.01098 0.596933)
(0.27391 1.00661 0.604841)
(0.25997 1.02279 0.614136)
(0.260624 1.01162 0.621491)
(0.274873 0.899939 0.528468)
(0.272574 0.928235 0.545415)
(0.265123 0.894239 0.517168)
(0.263031 1.01002 0.606061)
(0.248358 0.918413 0.561492)
(0.241181 0.863547 0.515719)
(0.256604 0.915268 0.552945)
(0.260032 0.954707 0.58158)
(0.255582 1.01822 0.620765)
(0.262298 1.00262 0.622573)
(0.257484 0.952047 0.595689)
(0.248349 0.903355 0.548033)
(0.079207 0.534633 0.405785)
(0.101174 0.572261 0.430458)
(0.0544219 0.565743 0.382528)
(0.111953 0.59528 0.417358)
(0.103849 0.58553 0.427464)
(0.05808 0.498774 0.392321)
(0.115909 0.558046 0.449376)
(0.0506037 0.587418 0.377366)
(0.106773 0.601832 0.398175)
(0.0302833 0.522873 0.364501)
(0.112851 0.583865 0.432791)
(0.0893692 0.582686 0.412661)
(-0.00845082 0.531173 0.354717)
(0.000794339 0.562079 0.35824)
(-0.0101797 0.590006 0.360456)
(0.0861759 0.583803 0.39057)
(-0.0152054 0.498077 0.316136)
(-0.0227887 0.493046 0.3212)
(-0.0107865 0.498456 0.32484)
(0.0794658 0.582886 0.395448)
(0.053242 0.560036 0.381214)
(0.0157717 0.496419 0.340847)
(0.0104975 0.55118 0.348973)
(0.155185 0.555215 0.488593)
(0.150893 0.552858 0.488075)
(0.161926 0.558882 0.484305)
(0.0967255 0.495014 0.427289)
(0.154046 0.59187 0.451941)
(0.124982 0.55832 0.451367)
(0.0621519 0.482281 0.391958)
(0.112378 0.537738 0.452023)
(0.0109499 0.529984 0.345327)
(0.011742 0.570693 0.359464)
(0.164633 0.612361 0.455637)
(0.154654 0.586058 0.467052)
(0.0811381 0.514824 0.412133)
(0.0343337 0.565155 0.370475)
(0.036342 0.517695 0.374557)
(0.0737464 0.552425 0.390549)
(0.12217 0.433868 0.415753)
(0.109456 0.395707 0.366397)
(0.107031 0.391753 0.356719)
(0.116522 0.42573 0.399526)
(0.156096 0.45422 0.439085)
(0.138327 0.436273 0.4174)
(0.127196 0.429756 0.421205)
(0.124588 0.384817 0.365789)
(0.141942 0.361994 0.37444)
(0.169334 0.404609 0.420935)
(0.152297 0.454015 0.446624)
(0.157031 0.413547 0.405498)
(0.138716 0.3772 0.372172)
(0.16229 0.391005 0.399745)
(0.139268 0.357595 0.369063)
(0.108766 0.358236 0.332758)
(0.126498 0.338186 0.331005)
(0.281093 0.704855 0.528325)
(0.288964 0.702608 0.527849)
(0.29123 0.89583 0.64471)
(0.302145 0.883965 0.623808)
(0.29009 0.902295 0.64394)
(0.300235 0.844682 0.617234)
(0.29759 0.869641 0.629773)
(0.296252 0.67605 0.506044)
(0.294939 0.756941 0.555369)
(0.292902 0.817715 0.593581)
(0.296664 0.851734 0.58775)
(0.28627 0.851436 0.567811)
(0.318365 0.877655 0.623505)
(0.294865 0.692803 0.519695)
(0.305556 0.817167 0.556658)
(0.304671 0.827464 0.576072)
(0.296991 0.732331 0.555924)
(0.303045 0.725245 0.543771)
(0.312019 0.796654 0.530437)
(0.123052 0.647554 0.258101)
(0.11402 0.6229 0.273049)
(0.125912 0.642736 0.250526)
(0.117915 0.705243 0.280881)
(0.115773 0.691342 0.261649)
(0.118637 0.628439 0.237628)
(0.12636 0.606746 0.25973)
(0.140469 0.635491 0.216383)
(0.0444605 0.46845 0.29009)
(0.0726399 0.526548 0.299639)
(0.0773637 0.472166 0.281355)
(0.0471805 0.426388 0.274067)
(0.026402 0.555444 0.321836)
(0.0179723 0.474537 0.296606)
(0.0296202 0.436243 0.290896)
(0.0773066 0.617267 0.337205)
(0.060812 0.396632 0.266395)
(0.0810296 0.389081 0.242916)
(0.071341 0.645572 0.340789)
(0.103213 0.521085 0.280086)
(0.085967 0.458622 0.265467)
(0.0581733 0.518484 0.297182)
(0.078902 0.591564 0.316014)
(0.113042 0.669918 0.344102)
(0.101723 0.551586 0.299222)
(0.0708171 0.430703 0.260271)
(0.345623 0.887117 0.501225)
(0.345611 0.877685 0.503851)
(0.337012 0.904077 0.511216)
(0.327501 0.882345 0.489964)
(0.300563 0.996387 0.575095)
(0.283205 0.97817 0.566733)
(0.302883 0.973984 0.562345)
(0.29167 1.0009 0.583534)
(0.321562 0.95951 0.554114)
(0.330535 0.90297 0.513826)
(0.329056 0.951101 0.541647)
(0.316662 0.93548 0.53588)
(0.329693 0.963173 0.559589)
(0.323218 0.992669 0.580204)
(0.30737 0.98314 0.575742)
(0.340245 0.922959 0.539266)
(0.314117 0.883917 0.497626)
(0.374376 0.833769 0.533307)
(0.386056 0.838818 0.539696)
(0.40606 0.707038 0.521084)
(0.40352 0.684298 0.512687)
(0.374859 0.764172 0.544687)
(0.375183 0.756653 0.551698)
(0.399745 0.701525 0.514329)
(0.383122 0.653917 0.479395)
(0.374432 0.814742 0.535559)
(0.35406 0.79294 0.525113)
(0.398173 0.812831 0.517786)
(0.397623 0.786321 0.506115)
(0.411055 0.732304 0.529551)
(0.388933 0.773879 0.541692)
(0.395863 0.714216 0.505672)
(0.395961 0.780792 0.501036)
(0.395994 0.725971 0.484708)
(0.388151 0.687356 0.471863)
(0.410766 0.818058 0.520468)
(0.402346 0.725561 0.489626)
(0.401712 0.731744 0.483473)
(0.083104 0.56709 0.299237)
(0.0917497 0.606047 0.304874)
(0.0840458 0.647458 0.336399)
(0.0847239 0.565826 0.300649)
(0.0789037 0.519435 0.284641)
(0.0663275 0.557968 0.308671)
(0.0711593 0.624969 0.329941)
(0.0536389 0.604491 0.325533)
(0.0468875 0.567635 0.313499)
(0.0623253 0.53039 0.308197)
(0.015825 0.49804 0.311704)
(0.0713867 0.624639 0.320803)
(0.0791091 0.581749 0.306771)
(0.0700606 0.465486 0.29148)
(0.0570031 0.471993 0.309464)
(0.0677698 0.520846 0.299214)
(0.0576085 0.479823 0.307419)
(0.0362985 0.487237 0.332632)
(0.0307064 0.509047 0.309357)
(0.0333398 0.483473 0.328835)
(0.275278 0.910636 0.689893)
(0.276158 0.916999 0.686178)
(0.280667 0.914517 0.681637)
(0.232788 0.934838 0.681927)
(0.28497 0.907161 0.67419)
(0.306082 0.893512 0.666862)
(0.224097 0.933916 0.675122)
(0.222248 0.932022 0.66771)
(0.313846 1.00669 0.582087)
(0.308067 0.950736 0.552916)
(0.307149 1.01814 0.598001)
(0.293842 1.00417 0.59409)
(0.319918 0.9639 0.560381)
(0.298725 0.945728 0.557051)
(0.282145 1.02202 0.570959)
(0.256796 0.946715 0.538399)
(0.303594 0.984535 0.590658)
(0.319303 0.944597 0.564521)
(0.331353 0.9745 0.564956)
(0.317827 0.971815 0.580415)
(0.320805 0.983308 0.58257)
(0.327551 0.974283 0.573352)
(0.306588 0.50998 0.307412)
(0.316315 0.543848 0.301452)
(0.305882 0.500744 0.308873)
(0.297771 0.538225 0.332344)
(0.285129 0.454646 0.271237)
(0.283779 0.428793 0.254391)
(0.298824 0.442872 0.245902)
(0.289146 0.392063 0.221618)
(0.321228 0.505258 0.265166)
(0.303496 0.462674 0.242438)
(0.342117 0.63776 0.356534)
(0.335328 0.65305 0.381004)
(0.301228 0.472856 0.250799)
(0.344217 0.630925 0.344015)
(0.348403 0.622923 0.33178)
(0.332467 0.657616 0.371192)
(0.292157 0.497965 0.275088)
(0.337216 0.628776 0.348352)
(0.328249 0.693699 0.513727)
(0.353809 0.673947 0.517173)
(0.272175 0.674056 0.521514)
(0.281859 0.694884 0.513557)
(0.341154 0.693614 0.542832)
(0.323997 0.672717 0.536368)
(0.253292 0.656884 0.50732)
(0.293004 0.720385 0.499555)
(0.393198 0.760971 0.556697)
(0.362156 0.772551 0.544633)
(0.367128 0.715109 0.52959)
(0.359466 0.668991 0.548171)
(0.396342 0.682904 0.545939)
(0.416203 0.752149 0.530561)
(0.395874 0.803078 0.539127)
(0.420945 0.658044 0.51578)
(0.436532 0.673021 0.514365)
(0.378955 0.818696 0.530818)
(0.362695 0.663244 0.536588)
(0.427367 0.655238 0.521864)
(0.395022 0.773002 0.538549)
(0.428362 0.725663 0.501626)
(0.422704 0.70434 0.499135)
(0.419958 0.69901 0.521481)
(0.400517 0.621988 0.497715)
(0.406667 0.60122 0.482238)
(0.421108 0.70957 0.500083)
(0.40897 0.656367 0.480142)
(0.398566 0.680726 0.543378)
(0.427575 0.640183 0.484526)
(0.410498 0.625632 0.481928)
(0.426722 0.702124 0.501329)
(0.425745 0.647937 0.529371)
(0.417193 0.62545 0.496192)
(0.322907 0.731936 0.483697)
(0.256128 0.523479 0.373187)
(0.263773 0.563167 0.396484)
(0.315262 0.686865 0.446552)
(0.282222 0.586268 0.381925)
(0.257848 0.54344 0.37075)
(0.237834 0.479803 0.334139)
(0.285634 0.593959 0.391594)
(0.302974 0.698902 0.457837)
(0.247206 0.556023 0.380722)
(0.263725 0.633677 0.427607)
(0.299801 0.744389 0.507157)
(0.274699 0.684431 0.462805)
(0.24229 0.565069 0.391257)
(0.227833 0.490478 0.334192)
(0.295574 0.748277 0.491654)
(0.25735 0.598017 0.409647)
(0.277348 0.590097 0.3589)
(0.28913 0.5746 0.385916)
(0.272432 0.509193 0.347161)
(0.291656 0.584631 0.388508)
(0.23953 0.426303 0.275034)
(0.282303 0.553504 0.373946)
(0.313218 0.672336 0.435135)
(0.278541 0.607268 0.374945)
(0.308047 0.67643 0.42498)
(0.253449 0.470348 0.279779)
(0.244982 0.421598 0.257286)
(0.250723 0.437687 0.276106)
(0.27428 0.550883 0.349611)
(0.30394 0.634777 0.397855)
(0.303154 0.616806 0.370981)
(0.269039 0.583122 0.346474)
(0.293849 0.627325 0.387463)
(0.251066 0.474103 0.287992)
(0.261097 0.513216 0.297466)
(0.261664 0.48422 0.319356)
(0.255978 0.505959 0.307044)
(0.267248 0.977218 0.682378)
(0.252074 0.964657 0.677116)
(0.284764 0.870284 0.645206)
(0.281268 0.832379 0.62352)
(0.265995 0.900727 0.644452)
(0.261779 0.974963 0.682644)
(0.263658 1.00643 0.701757)
(0.276345 0.947825 0.701932)
(0.27207 0.861617 0.641652)
(0.264027 0.809569 0.609425)
(0.260625 0.865005 0.625814)
(0.244704 0.766546 0.582018)
(0.244728 0.800251 0.601813)
(0.256304 0.912388 0.642497)
(0.261176 0.929161 0.679602)
(0.273797 0.921352 0.672641)
(0.117236 0.756525 0.450372)
(0.151625 0.796642 0.487354)
(0.178603 0.864722 0.522227)
(0.196749 0.834455 0.485795)
(0.13398 0.740809 0.444484)
(0.173088 0.844868 0.520958)
(0.139136 0.720757 0.421202)
(0.307786 0.894554 0.522665)
(0.321312 0.930133 0.552474)
(0.296233 0.912787 0.529717)
(0.304199 0.946507 0.558666)
(0.186458 0.733653 0.44127)
(0.172829 0.738003 0.434474)
(0.298838 0.916254 0.535238)
(0.269246 0.828276 0.490254)
(0.269001 0.958704 0.561411)
(0.309493 0.934351 0.548746)
(0.253528 0.889912 0.523968)
(0.261782 0.963147 0.560975)
(0.291687 0.939437 0.548196)
(0.249363 0.970005 0.637191)
(0.249086 0.937958 0.625716)
(0.241035 0.955834 0.6314)
(0.230062 0.887231 0.573734)
(0.22974 0.836637 0.577884)
(0.227032 0.830226 0.564672)
(0.227 0.845308 0.566374)
(0.21345 0.768584 0.520561)
(0.233651 0.844086 0.592569)
(0.217213 0.804804 0.562828)
(0.238799 0.846013 0.571954)
(0.261527 1.00003 0.625419)
(0.259903 0.951148 0.609325)
(0.22557 0.997198 0.629147)
(0.25575 0.968899 0.608372)
(0.25498 1.01796 0.639028)
(0.242879 1.01124 0.642209)
(0.231263 1.00174 0.627002)