/*--------------------------------*- C++ -*----------------------------------*\
| =========                 |                                                 |
| \\      /  F ield         | OpenFOAM: The Open Source CFD Toolbox           |
|  \\    /   O peration     | Version:  v1612+                                |
|   \\  /    A nd           | Web:      www.OpenFOAM.com                      |
|    \\/     M anipulation  |                                                 |
\*---------------------------------------------------------------------------*/
FoamFile
{
    version     2.0;
    format      ascii;
    class       volScalarField;
    location    "50";
    object      p;
}
// * * * * * * * * * * * * * * * * * * * * * * * * * * * * * * * * * * * * * //

dimensions      [0 2 -2 0 0 0 0];

internalField   nonuniform List<scalar> 
21297
(
2.55471
2.54643
2.54026
2.54885
2.65018
2.61391
2.62447
2.53742
2.59445
2.59148
2.6174
2.61357
2.60166
2.55065
2.57204
2.57465
2.51018
2.52393
2.62465
2.57657
2.53527
2.58973
2.58279
2.62036
2.51248
2.62768
2.60678
2.61005
2.59021
2.51168
2.54761
2.64881
2.55868
2.54548
2.65611
2.56949
2.63602
2.62316
2.6093
2.54106
2.65774
2.65745
2.55268
2.64777
2.64131
2.65459
2.64539
2.60987
2.60233
2.65037
2.60843
2.59631
2.63612
2.60201
2.62943
2.52766
2.55123
2.62461
2.57151
2.5716
2.5911
2.64726
2.64954
2.64302
2.54161
2.55047
2.64268
2.60615
2.65057
2.59102
2.52609
2.61878
2.50854
2.59316
2.60095
2.5943
2.59866
2.58117
2.61985
2.6179
2.65202
2.65109
2.58608
2.57453
2.64831
2.62347
2.61881
2.50473
2.55616
2.61056
2.63052
2.65381
2.65089
2.64555
2.65543
2.55169
2.53111
2.60391
2.60762
2.61015
2.62119
2.6521
2.64774
2.63651
2.63442
2.63223
2.62612
2.53402
2.54006
2.5433
2.5299
2.61871
2.61755
2.62273
2.54844
2.6268
2.59986
2.65674
2.65738
2.52675
2.63839
2.57042
2.55497
2.62866
2.62249
2.6208
2.62008
2.61386
2.61565
2.61054
2.6363
2.58144
2.55728
2.63599
2.5097
2.64308
2.63812
2.59415
2.59687
2.58977
2.64537
2.65047
2.64342
2.64362
2.57879
2.60585
2.62888
2.6139
2.60527
2.60758
2.59717
2.58961
2.49855
2.49457
2.63938
2.63513
2.58448
2.60254
2.58898
2.58214
2.5877
2.60178
2.52638
2.52416
2.51051
2.49672
2.59555
2.58462
2.55225
2.63609
2.63704
2.61598
2.61596
2.53512
2.58545
2.64508
2.60665
2.60922
2.59896
2.56703
2.57499
2.58412
2.52992
2.63068
2.54699
2.55582
2.55575
2.5396
2.54757
2.55819
2.54238
2.63626
2.57996
2.58657
2.59188
2.50534
2.5104
2.50329
2.50492
2.60748
2.62733
2.53778
2.61222
2.61506
2.64867
2.64785
2.64034
2.64562
2.64678
2.63968
2.64521
2.58084
2.55338
2.5558
2.55882
2.56561
2.57502
2.56571
2.56184
2.63264
2.63878
2.63872
2.59483
2.59312
2.58737
2.5827
2.60936
2.61633
2.62737
2.53099
2.5678
2.56462
2.55933
2.53446
2.54288
2.60571
2.60562
2.63768
2.61577
2.60404
2.59882
2.60064
2.59731
2.60044
2.60308
2.53866
2.53432
2.54445
2.54891
2.56266
2.57461
2.57252
2.55342
2.57089
2.54814
2.52904
2.51858
2.5203
2.52544
2.62757
2.63043
2.5334
2.52627
2.60152
2.6069
2.60147
2.58275
2.50834
2.5519
2.61586
2.60986
2.62137
2.49393
2.56783
2.63307
2.61614
2.60783
2.61205
2.60679
2.61936
2.60497
2.60882
2.61016
2.61023
2.60757
2.52634
2.53288
2.61712
2.59258
2.57078
2.56225
2.49384
2.49721
2.61443
2.6111
2.64856
2.60414
2.60647
2.63388
2.63609
2.64009
2.54088
2.54482
2.65091
2.65176
2.62055
2.60948
2.53431
2.53813
2.60952
2.498
2.5128
2.52208
2.51509
2.51117
2.63442
2.50708
2.50886
2.54332
2.58715
2.50981
2.50403
2.5012
2.64203
2.64004
2.60645
2.60982
2.62371
2.63026
2.64145
2.64167
2.54468
2.63691
2.63167
2.61423
2.61193
2.62287
2.58089
2.58561
2.61915
2.62198
2.61999
2.62045
2.62288
2.61575
2.53302
2.56549
2.58086
2.59544
2.5115
2.50884
2.62577
2.63111
2.6374
2.57593
2.58123
2.61113
2.61353
2.64169
2.6408
2.57246
2.54044
2.53299
2.5179
2.65819
2.64622
2.60658
2.61307
2.59901
2.62827
2.50378
2.56111
2.61412
2.5944
2.62575
2.59067
2.58609
2.61485
2.57749
2.50889
2.49534
2.60558
2.59647
2.65144
2.59074
2.62678
2.57291
2.60948
2.59271
2.52901
2.52537
2.63559
2.62328
2.6142
2.57027
2.52261
2.54258
2.60694
2.59836
2.60867
2.60863
2.60132
2.60618
2.60809
2.6537
2.63991
2.62707
2.60717
2.49652
2.63296
2.64156
2.58126
2.65747
2.51484
2.63322
2.65149
2.61696
2.61697
2.58826
2.56959
2.57001
2.60777
2.61738
2.63469
2.6448
2.64815
2.60952
2.59126
2.60335
2.59714
2.59042
2.60462
2.61073
2.56807
2.65019
2.53067
2.54578
2.65454
2.65508
2.63719
2.62826
2.5066
2.50396
2.5023
2.53099
2.54871
2.60172
2.55339
2.55445
2.54672
2.54444
2.54376
2.59741
2.59988
2.60763
2.59989
2.5086
2.52986
2.64843
2.64626
2.56072
2.5935
2.613
2.54785
2.54227
2.53358
2.63651
2.63728
2.52486
2.54144
2.53762
2.53987
2.56615
2.56374
2.53066
2.52349
2.55258
2.65405
2.64486
2.64072
2.62381
2.6241
2.6244
2.66009
2.66616
2.65668
2.64331
2.62884
2.58062
2.63832
2.63327
2.61688
2.59532
2.65439
2.54703
2.6027
2.64275
2.60727
2.59818
2.65139
2.59275
2.61592
2.58402
2.63962
2.54002
2.59322
2.62126
2.56816
2.56235
2.56005
2.54322
2.55477
2.55209
2.54903
2.61304
2.62675
2.61679
2.57921
2.55947
2.5676
2.57468
2.56379
2.63133
2.62082
2.57492
2.51811
2.63683
2.49481
2.61406
2.55797
2.54757
2.62524
2.60087
2.60774
2.61605
2.57641
2.57664
2.57588
2.57761
2.59593
2.60326
2.59745
2.58702
2.57692
2.58286
2.5113
2.51387
2.50717
2.61069
2.61856
2.55748
2.61286
2.62596
2.63692
2.55765
2.59237
2.64247
2.51866
2.56774
2.57356
2.53421
2.62783
2.6347
2.5234
2.6394
2.60342
2.62929
2.62187
2.62108
2.63572
2.62167
2.62263
2.55978
2.57073
2.58031
2.64185
2.63785
2.56388
2.64161
2.59092
2.61805
2.60635
2.53927
2.54569
2.6372
2.62247
2.58151
2.54666
2.51248
2.62199
2.64424
2.6449
2.65147
2.5254
2.6173
2.62561
2.64612
2.61434
2.61923
2.62799
2.61191
2.64716
2.65323
2.55342
2.49836
2.51377
2.52029
2.61159
2.55883
2.58075
2.53969
2.61556
2.63746
2.64256
2.63632
2.66038
2.65179
2.64034
2.56739
2.61711
2.63076
2.63259
2.62083
2.62703
2.58196
2.62605
2.59894
2.58097
2.5618
2.53297
2.54684
2.59255
2.60127
2.58906
2.54924
2.62729
2.5479
2.59449
2.63377
2.5278
2.51509
2.52258
2.53443
2.52501
2.51539
2.51478
2.51813
2.54678
2.55431
2.66001
2.61139
2.64034
2.63058
2.64477
2.65
2.63571
2.63886
2.63125
2.6364
2.64281
2.64923
2.64997
2.65414
2.64541
2.63747
2.63192
2.62417
2.64125
2.64998
2.6332
2.63328
2.64758
2.63188
2.63938
2.64108
2.63968
2.61656
2.6382
2.62897
2.6332
2.62294
2.63955
2.59129
2.6102
2.60785
2.57796
2.58906
2.61233
2.64351
2.6215
2.627
2.61132
2.60246
2.60267
2.59801
2.61713
2.60969
2.61721
2.64002
2.61823
2.62763
2.62754
2.62834
2.62731
2.59731
2.58107
2.60552
2.57778
2.57685
2.58628
2.62582
2.60987
2.58285
2.54802
2.5515
2.60854
2.59586
2.60263
2.62123
2.61508
2.61865
2.55174
2.53819
2.54527
2.55391
2.59731
2.56515
2.56436
2.57215
2.57646
2.52352
2.55242
2.54826
2.57836
2.56886
2.59256
2.55976
2.59521
2.58626
2.56989
2.50005
2.51225
2.50116
2.53148
2.50043
2.52043
2.54707
2.5485
2.53499
2.55571
2.55788
2.52474
2.50576
2.57087
2.56165
2.56273
2.5912
2.63125
2.63749
2.61907
2.61206
2.63196
2.6116
2.58675
2.61075
2.60105
2.5815
2.60482
2.575
2.54922
2.57274
2.5818
2.56397
2.57229
2.57828
2.61193
2.60771
2.60604
2.5906
2.6124
2.60019
2.56601
2.59013
2.62
2.59939
2.58918
2.60365
2.60298
2.59878
2.56012
2.57042
2.57131
2.5852
2.56545
2.5821
2.61773
2.61721
2.61052
2.62776
2.63606
2.62898
2.63711
2.63253
2.63744
2.63586
2.56779
2.53439
2.56096
2.54579
2.56375
2.56717
2.55179
2.61189
2.6115
2.61309
2.58215
2.59408
2.58392
2.56295
2.65117
2.6379
2.63398
2.63314
2.64254
2.64219
2.60577
2.62826
2.62414
2.6295
2.61677
2.61932
2.62415
2.61455
2.61975
2.61118
2.62893
2.63114
2.61996
2.60661
2.62465
2.61756
2.63142
2.64608
2.63063
2.63309
2.63903
2.62625
2.63692
2.63616
2.63625
2.63331
2.62983
2.62545
2.62583
2.62816
2.62642
2.62821
2.61402
2.61992
2.61569
2.60716
2.60537
2.61749
2.62437
2.61253
2.61448
2.61205
2.6252
2.62524
2.61253
2.61041
2.60826
2.60527
2.6019
2.60788
2.60869
2.6035
2.63239
2.62266
2.63149
2.6214
2.63135
2.62735
2.62004
2.54645
2.54908
2.56299
2.56831
2.59545
2.62056
2.62311
2.62028
2.61828
2.60552
2.59838
2.59421
2.60521
2.60656
2.59914
2.54403
2.54444
2.53727
2.53408
2.53246
2.53241
2.53527
2.59674
2.57135
2.59441
2.57598
2.58712
2.58093
2.58133
2.57719
2.56743
2.58152
2.56747
2.57058
2.56011
2.54759
2.54697
2.54631
2.56433
2.56359
2.54667
2.57696
2.54567
2.51801
2.53643
2.52376
2.52362
2.53311
2.51855
2.53022
2.52615
2.54093
2.53992
2.53146
2.51141
2.50398
2.61533
2.60766
2.59421
2.59685
2.60888
2.62324
2.60052
2.59805
2.59867
2.60349
2.56933
2.57053
2.58293
2.5822
2.53846
2.5647
2.53645
2.55698
2.54817
2.55371
2.55118
2.60829
2.61697
2.61768
2.62012
2.61258
2.62319
2.6103
2.61534
2.61792
2.61258
2.62052
2.55056
2.56532
2.54238
2.55554
2.5541
2.55523
2.55384
2.62494
2.62103
2.6199
2.62403
2.6039
2.5943
2.60264
2.60427
2.59853
2.6129
2.60952
2.61103
2.60546
2.59796
2.59524
2.59478
2.60693
2.60435
2.60667
2.60049
2.62487
2.63505
2.63478
2.63791
2.63371
2.63838
2.63667
2.5474
2.5605
2.52062
2.53303
2.5169
2.52506
2.5189
2.52041
2.51951
2.51268
2.51258
2.51736
2.54212
2.53215
2.53733
2.53611
2.5269
2.53843
2.51963
2.52599
2.51715
2.52796
2.52212
2.54599
2.53847
2.53994
2.54977
2.54919
2.54151
2.53182
2.53608
2.53186
2.54462
2.5408
2.54841
2.54621
2.53671
2.54031
2.54308
2.53564
2.52557
2.52172
2.53874
2.52089
2.5084
2.52208
2.51297
2.55186
2.5355
2.53169
2.52879
2.54482
2.54195
2.53355
2.51649
2.5411
2.53293
2.52059
2.526
2.52868
2.5245
2.55301
2.54426
2.53771
2.5379
2.54322
2.53215
2.54972
2.52421
2.51626
2.52327
2.64872
2.65613
2.65608
2.65397
2.65318
2.6618
2.59821
2.59372
2.61506
2.59681
2.61782
2.60331
2.61312
2.61053
2.62856
2.64048
2.63477
2.61401
2.62729
2.61371
2.61904
2.62252
2.61158
2.59881
2.54869
2.5645
2.58148
2.57682
2.55675
2.56106
2.57727
2.56839
2.56628
2.60144
2.59584
2.64785
2.6522
2.65703
2.64033
2.64663
2.63853
2.6248
2.60456
2.62339
2.60523
2.62951
2.63594
2.63711
2.63911
2.64278
2.64301
2.65248
2.651
2.6519
2.65295
2.64937
2.63472
2.64314
2.64186
2.62969
2.6351
2.6396
2.63385
2.64452
2.64604
2.61471
2.63396
2.63477
2.64411
2.65382
2.6414
2.64384
2.61452
2.63762
2.63703
2.63682
2.64266
2.64518
2.62797
2.63667
2.6156
2.62068
2.63675
2.61454
2.63188
2.62671
2.64775
2.65919
2.65167
2.65669
2.65209
2.65527
2.65719
2.65267
2.64816
2.6394
2.64194
2.63053
2.63077
2.63867
2.64934
2.65172
2.6525
2.6541
2.62265
2.64692
2.64523
2.6543
2.64919
2.64577
2.64874
2.64269
2.63874
2.64209
2.63519
2.6457
2.6497
2.64734
2.64713
2.64775
2.6441
2.64291
2.64819
2.64554
2.65048
2.63131
2.62693
2.62979
2.62144
2.62984
2.62052
2.62454
2.63357
2.6309
2.63386
2.63751
2.63361
2.62928
2.63906
2.64441
2.6364
2.6225
2.63021
2.62844
2.62211
2.63138
2.62169
2.63099
2.62845
2.63236
2.63157
2.64143
2.64364
2.65195
2.64968
2.646
2.64572
2.64581
2.64057
2.6452
2.64152
2.63985
2.63612
2.6272
2.63721
2.63437
2.63123
2.62973
2.63599
2.62976
2.63426
2.63196
2.63298
2.63511
2.64193
2.63841
2.63648
2.64564
2.64878
2.63942
2.58554
2.59759
2.57791
2.59576
2.65177
2.6396
2.651
2.64441
2.64775
2.64439
2.64735
2.6248
2.61977
2.6148
2.61245
2.62114
2.62166
2.61312
2.63852
2.64114
2.6421
2.63717
2.64083
2.62303
2.62115
2.63531
2.63237
2.62637
2.62515
2.6337
2.63724
2.63512
2.64187
2.63808
2.64348
2.64281
2.63808
2.62854
2.61724
2.63163
2.63058
2.6255
2.6224
2.63211
2.63468
2.64306
2.64763
2.6397
2.64508
2.64195
2.63812
2.60497
2.60139
2.58924
2.58919
2.60399
2.60375
2.59035
2.57286
2.5777
2.58727
2.60051
2.59796
2.61858
2.61119
2.60238
2.60352
2.61155
2.58938
2.59698
2.61356
2.60114
2.60508
2.60233
2.59948
2.5775
2.59591
2.5939
2.59197
2.58635
2.59779
2.60473
2.59179
2.57385
2.59283
2.59317
2.59245
2.61233
2.60674
2.60436
2.60671
2.6089
2.6002
2.63304
2.62706
2.62325
2.65035
2.64402
2.64436
2.62463
2.631
2.63146
2.63416
2.63046
2.6353
2.62205
2.63211
2.63566
2.63407
2.64067
2.63865
2.60955
2.6231
2.6194
2.59944
2.59378
2.6174
2.60811
2.5968
2.60897
2.60531
2.60182
2.59087
2.58956
2.61567
2.62698
2.6125
2.60376
2.61528
2.613
2.61252
2.61667
2.61363
2.62953
2.61749
2.62488
2.6166
2.61951
2.62299
2.63887
2.63865
2.64207
2.64471
2.64299
2.64308
2.62894
2.61822
2.63282
2.62604
2.63015
2.62956
2.62838
2.61455
2.6195
2.6333
2.62705
2.62067
2.62049
2.62678
2.61595
2.62296
2.61856
2.62446
2.61472
2.61738
2.62274
2.6367
2.63474
2.63094
2.62891
2.63751
2.63713
2.62949
2.56013
2.55113
2.52824
2.55563
2.542
2.53325
2.56723
2.5489
2.53147
2.61215
2.58993
2.59781
2.60703
2.61326
2.61627
2.61291
2.56914
2.58766
2.58183
2.61592
2.60047
2.598
2.57712
2.5736
2.57165
2.56504
2.57579
2.55939
2.56102
2.57401
2.582
2.59697
2.59803
2.60099
2.57819
2.58887
2.58814
2.58434
2.57593
2.57134
2.57918
2.58383
2.60713
2.58946
2.57624
2.57859
2.58059
2.6256
2.6352
2.62792
2.63721
2.63253
2.63193
2.62269
2.62485
2.61043
2.62304
2.61494
2.62423
2.62972
2.6201
2.62388
2.62259
2.59312
2.58231
2.60451
2.58848
2.59886
2.59598
2.59117
2.55973
2.54694
2.55088
2.55175
2.55375
2.54389
2.55273
2.57718
2.56917
2.58932
2.58701
2.58499
2.57162
2.56564
2.56458
2.55899
2.55056
2.57084
2.5731
2.57454
2.58345
2.55632
2.56648
2.58926
2.62816
2.60886
2.61602
2.62002
2.61949
2.61646
2.62268
2.60243
2.61502
2.60013
2.60952
2.60114
2.60221
2.60785
2.63479
2.63699
2.63832
2.64014
2.61772
2.59769
2.61136
2.60774
2.61681
2.60897
2.61531
2.6333
2.62024
2.62105
2.61986
2.62235
2.60107
2.6029
2.61286
2.61232
2.59946
2.59991
2.61379
2.62815
2.62893
2.61988
2.63335
2.62829
2.62379
2.57518
2.57355
2.56949
2.55888
2.564
2.56769
2.5178
2.54847
2.54096
2.53309
2.54528
2.55052
2.57203
2.54383
2.5495
2.5424
2.52912
2.55081
2.53716
2.5447
2.53208
2.55455
2.56983
2.55452
2.56184
2.56076
2.54713
2.56642
2.54845
2.53541
2.54922
2.54866
2.54624
2.55134
2.57456
2.56618
2.56308
2.58442
2.59149
2.6116
2.59579
2.59929
2.59458
2.59808
2.57762
2.5666
2.58754
2.5694
2.58429
2.58221
2.57448
2.55207
2.57623
2.56657
2.55407
2.55592
2.56678
2.55839
2.55451
2.56788
2.54764
2.56203
2.58781
2.589
2.57523
2.57361
2.58791
2.58841
2.57349
2.54552
2.52353
2.52203
2.53605
2.53678
2.5268
2.56441
2.53518
2.54163
2.54254
2.53901
2.53403
2.54712
2.54979
2.54117
2.58915
2.5709
2.59162
2.58931
2.58294
2.57791
2.59217
2.59456
2.58638
2.57624
2.57841
2.58499
2.60407
2.59889
2.60738
2.59634
2.61078
2.60812
2.59927
2.58653
2.56003
2.57265
2.57546
2.57483
2.57099
2.57924
2.57032
2.58892
2.60105
2.58742
2.59022
2.59184
2.58603
2.55928
2.57335
2.58612
2.58208
2.56813
2.56929
2.57982
2.59552
2.57638
2.59023
2.58073
2.59339
2.58825
2.58592
2.52814
2.50941
2.52619
2.50845
2.51112
2.50745
2.51471
2.50179
2.49639
2.52063
2.51849
2.5179
2.50167
2.50049
2.57347
2.55363
2.58281
2.51172
2.5487
2.51567
2.5381
2.53335
2.54278
2.50992
2.53468
2.54667
2.53436
2.52438
2.50156
2.5128
2.50514
2.52074
2.51799
2.51018
2.50112
2.50652
2.50136
2.52641
2.51139
2.51885
2.51141
2.51284
2.51112
2.50145
2.5075
2.56046
2.55805
2.54003
2.55601
2.56692
2.54876
2.5344
2.54109
2.55062
2.5504
2.54213
2.53157
2.5401
2.54604
2.53701
2.55063
2.55019
2.54351
2.54592
2.55637
2.53086
2.5333
2.53898
2.53445
2.54224
2.49542
2.51136
2.50916
2.50733
2.50079
2.51243
2.49742
2.50652
2.49365
2.513
2.53034
2.52927
2.57548
2.55392
2.54485
2.55287
2.56165
2.56296
2.54767
2.57342
2.58888
2.5858
2.58972
2.55519
2.57081
2.56708
2.58916
2.57187
2.55968
2.57771
2.57138
2.58151
2.58549
2.58045
2.62311
2.62198
2.62812
2.63135
2.61891
2.61933
2.62983
2.6259
2.62511
2.638
2.634
2.6345
2.61293
2.61665
2.62961
2.63468
2.62236
2.63049
2.62569
2.63673
2.6345
2.62996
2.61202
2.62152
2.62232
2.62768
2.62358
2.61548
2.6306
2.62604
2.62248
2.63007
2.59455
2.61207
2.59125
2.59753
2.59745
2.58976
2.59923
2.58875
2.58984
2.6124
2.59293
2.60611
2.6089
2.59612
2.59353
2.59392
2.58612
2.59806
2.59983
2.62371
2.60688
2.6118
2.60989
2.60794
2.59431
2.56692
2.57026
2.58551
2.57825
2.5762
2.57915
2.55491
2.54823
2.56044
2.56193
2.55846
2.56416
2.55916
2.56438
2.55582
2.5704
2.55103
2.5544
2.56736
2.59561
2.59483
2.58737
2.58099
2.59752
2.5965
2.582
2.5782
2.56264
2.59092
2.5762
2.58306
2.57867
2.5808
2.55795
2.55952
2.58926
2.57511
2.56872
2.56715
2.57687
2.56834
2.58058
2.55096
2.56777
2.56208
2.56676
2.5618
2.59851
2.60414
2.60787
2.61406
2.60469
2.60921
2.61258
2.57936
2.5989
2.5993
2.61642
2.61052
2.60332
2.61641
2.61959
2.60222
2.58498
2.58555
2.57622
2.59041
2.57655
2.58083
2.59025
2.60319
2.61671
2.59174
2.60164
2.60262
2.60721
2.59857
2.59285
2.60405
2.58019
2.5916
2.59907
2.59433
2.59413
2.57876
2.5742
2.54464
2.56544
2.5629
2.56453
2.56361
2.56935
2.5947
2.57428
2.59535
2.58373
2.58807
2.58984
2.59521
2.61301
2.62224
2.61124
2.61033
2.61188
2.60977
2.60767
2.60483
2.61572
2.60199
2.61464
2.61281
2.60477
2.57955
2.57662
2.58859
2.59101
2.57495
2.57425
2.59165
2.59508
2.60428
2.57831
2.59474
2.58581
2.591
2.58963
2.61055
2.61383
2.58762
2.59835
2.60494
2.60777
2.59546
2.61105
2.59713
2.60975
2.61174
2.61013
2.61505
2.57726
2.56596
2.5647
2.5603
2.56991
2.56802
2.56201
2.57416
2.5678
2.5905
2.56384
2.55867
2.57093
2.57574
2.55648
2.55664
2.57436
2.59255
2.59242
2.58789
2.60238
2.5996
2.58821
2.57319
2.5568
2.58596
2.57821
2.57277
2.56745
2.58244
2.57378
2.57557
2.60202
2.5847
2.58796
2.58125
2.58795
2.61554
2.58419
2.58698
2.57808
2.58052
2.63985
2.63518
2.56252
2.55758
2.55212
2.55349
2.55652
2.55977
2.55688
2.58603
2.59
2.58944
2.59394
2.5843
2.60011
2.56723
2.56468
2.56873
2.62678
2.62747
2.62414
2.62682
2.62437
2.62658
2.63474
2.62613
2.63643
2.63097
2.63353
2.62824
2.63425
2.62452
2.61415
2.63097
2.63653
2.63763
2.63742
2.63472
2.6378
2.63465
2.63643
2.6248
2.62977
2.62661
2.64601
2.64514
2.64357
2.61195
2.61497
2.62082
2.61947
2.61433
2.61546
2.6181
2.61224
2.60511
2.60705
2.62138
2.61565
2.62001
2.6224
2.62192
2.62234
2.62239
2.57302
2.58893
2.59363
2.59116
2.58361
2.58682
2.58694
2.62068
2.62298
2.62012
2.62504
2.62085
2.62127
2.62147
2.55451
2.61004
2.60698
2.61183
2.6073
2.60789
2.60258
2.61133
2.60671
2.62072
2.63139
2.63407
2.55151
2.58862
2.5925
2.59618
2.58831
2.59258
2.59189
2.51618
2.529
2.57432
2.58118
2.57009
2.57831
2.57102
2.57933
2.56516
2.57984
2.55525
2.54841
2.55477
2.55772
2.55316
2.554
2.55661
2.49627
2.48707
2.55021
2.56142
2.52272
2.51978
2.52213
2.52411
2.55136
2.54241
2.53725
2.54764
2.54618
2.55247
2.54628
2.53007
2.53614
2.53727
2.5872
2.59831
2.59338
2.58983
2.59133
2.59536
2.59004
2.60654
2.60908
2.61016
2.60597
2.60856
2.60482
2.60652
2.592
2.58034
2.58609
2.58655
2.58743
2.58535
2.58625
2.55418
2.54765
2.56266
2.55266
2.55516
2.54966
2.55832
2.62575
2.61522
2.62086
2.61972
2.61122
2.60735
2.61679
2.61375
2.61932
2.61337
2.54195
2.53918
2.55503
2.54759
2.54502
2.54313
2.5494
2.60855
2.59727
2.59174
2.58436
2.59503
2.59371
2.59581
2.59727
2.59385
2.63119
2.642
2.63087
2.63054
2.53614
2.5495
2.54025
2.50707
2.51895
2.51312
2.50885
2.50925
2.51292
2.51628
2.50302
2.50691
2.50828
2.53289
2.53207
2.54016
2.52647
2.514
2.52189
2.51646
2.51714
2.55458
2.54653
2.55351
2.55497
2.55789
2.54234
2.54677
2.55084
2.54842
2.54813
2.50971
2.52
2.51711
2.51957
2.51317
2.51415
2.51485
2.50641
2.52059
2.51364
2.52339
2.5225
2.52296
2.51684
2.53937
2.53715
2.55249
2.54494
2.54328
2.54004
2.54798
2.55014
2.54084
2.55583
2.55099
2.54775
2.54617
2.55358
2.50892
2.52004
2.51211
2.51063
2.5064
2.51015
2.51395
2.59789
2.5918
2.59903
2.58993
2.62473
2.62027
2.62338
2.61241
2.62176
2.61926
2.6209
2.61451
2.62029
2.61498
2.62268
2.61776
2.6239
2.54214
2.573
2.58349
2.58815
2.65534
2.65177
2.65333
2.64629
2.64623
2.64083
2.64893
2.60805
2.61557
2.62316
2.65046
2.64414
2.64787
2.64359
2.64457
2.64665
2.6468
2.65087
2.6468
2.64926
2.64378
2.64926
2.64884
2.62768
2.63171
2.63201
2.64127
2.62982
2.628
2.64716
2.64186
2.64755
2.6456
2.64811
2.64355
2.64761
2.64542
2.62431
2.63802
2.64516
2.64391
2.64727
2.6302
2.62675
2.63268
2.63491
2.63367
2.63
2.63197
2.63444
2.64597
2.64851
2.6441
2.64884
2.64696
2.6422
2.63693
2.65747
2.65042
2.64746
2.65286
2.64769
2.64716
2.64881
2.64391
2.64778
2.64457
2.64535
2.64129
2.64343
2.6432
2.64761
2.64409
2.64191
2.64879
2.63911
2.6398
2.64292
2.64322
2.64193
2.63598
2.64676
2.64485
2.61252
2.62078
2.62226
2.63094
2.63628
2.63399
2.6304
2.63837
2.65227
2.65343
2.64806
2.65301
2.63862
2.62421
2.62757
2.62334
2.62321
2.62407
2.62775
2.6231
2.63703
2.63643
2.64749
2.64674
2.64947
2.64938
2.63658
2.63763
2.63965
2.63461
2.63852
2.63607
2.63418
2.63648
2.63292
2.63691
2.63213
2.63549
2.63448
2.63969
2.63741
2.63664
2.63543
2.63648
2.63412
2.6394
2.63951
2.64353
2.63865
2.63487
2.6076
2.64686
2.64517
2.64054
2.63953
2.64341
2.64338
2.64057
2.60882
2.60634
2.61507
2.61302
2.60916
2.60883
2.61394
2.64543
2.63769
2.64291
2.64182
2.64661
2.63578
2.63381
2.63598
2.63248
2.63549
2.63367
2.63407
2.64096
2.63456
2.63195
2.63422
2.63671
2.63556
2.63684
2.62959
2.63107
2.62857
2.62674
2.62893
2.63026
2.62762
2.64412
2.63852
2.63855
2.63802
2.64013
2.63944
2.63982
2.5831
2.58407
2.57285
2.58637
2.58235
2.5864
2.57883
2.60257
2.59402
2.62018
2.615
2.6186
2.61216
2.61673
2.61053
2.61685
2.61295
2.60322
2.61288
2.60612
2.61098
2.60784
2.61061
2.58772
2.58746
2.58064
2.58117
2.5894
2.58805
2.58598
2.5759
2.58854
2.58257
2.58482
2.58003
2.58815
2.58083
2.60903
2.60223
2.61235
2.6097
2.609
2.60709
2.61255
2.64586
2.6414
2.64001
2.64277
2.64339
2.64327
2.64317
2.62584
2.63033
2.62
2.62302
2.6256
2.62651
2.62136
2.6295
2.63121
2.62134
2.62674
2.62839
2.62958
2.6248
2.61675
2.61384
2.61744
2.61277
2.57432
2.57529
2.57294
2.61459
2.61126
2.61284
2.60637
2.61269
2.6092
2.61074
2.61392
2.61218
2.60453
2.60938
2.60373
2.61445
2.6158
2.61472
2.61913
2.61729
2.61699
2.60543
2.61572
2.60773
2.61063
2.60794
2.6111
2.60689
2.61725
2.62066
2.62466
2.62029
2.61717
2.61819
2.62328
2.64591
2.64162
2.64194
2.64002
2.64391
2.64227
2.64199
2.62654
2.62451
2.6188
2.62077
2.62396
2.62437
2.62042
2.6335
2.62864
2.63437
2.62955
2.63211
2.62928
2.63279
2.62639
2.62705
2.63279
2.6296
2.6286
2.62764
2.6304
2.62582
2.62553
2.62065
2.62584
2.62492
2.62625
2.62441
2.51136
2.55182
2.55345
2.5566
2.5575
2.54856
2.55773
2.55479
2.54108
2.55513
2.54303
2.5407
2.54868
2.62005
2.61099
2.61891
2.62569
2.58067
2.58658
2.59219
2.59351
2.5871
2.58835
2.59216
2.6029
2.6043
2.59832
2.5946
2.59435
2.60213
2.6049
2.59639
2.57752
2.58195
2.59002
2.58229
2.58251
2.58029
2.58456
2.56818
2.5648
2.56679
2.56844
2.57447
2.58096
2.5673
2.57844
2.57499
2.59475
2.5841
2.59101
2.59984
2.59303
2.58734
2.57905
2.59925
2.59002
2.63392
2.62739
2.62927
2.62417
2.61831
2.61514
2.61466
2.63125
2.62361
2.61214
2.60758
2.61419
2.61433
2.61272
2.59476
2.58726
2.58373
2.58575
2.58963
2.58948
2.58579
2.55065
2.54786
2.54757
2.54157
2.53663
2.5383
2.57574
2.56968
2.5726
2.56932
2.56403
2.56191
2.56403
2.58158
2.57664
2.61227
2.6182
2.60868
2.61162
2.61295
2.61424
2.61019
2.59185
2.59201
2.59994
2.59652
2.59241
2.59433
2.59999
2.6383
2.63524
2.61841
2.61502
2.61403
2.60772
2.60596
2.61273
2.61084
2.60651
2.62925
2.62037
2.6273
2.62216
2.62768
2.62195
2.62576
2.61894
2.61789
2.62594
2.61639
2.62048
2.61617
2.61864
2.6204
2.61644
2.61089
2.61643
2.61813
2.61737
2.615
2.56112
2.56362
2.55135
2.56597
2.56494
2.55761
2.55432
2.56151
2.55902
2.5546
2.54886
2.54222
2.54719
2.53957
2.54908
2.54421
2.54785
2.55548
2.54599
2.53744
2.54811
2.54597
2.5383
2.53459
2.53826
2.5288
2.56179
2.55268
2.55484
2.55394
2.55338
2.55273
2.55894
2.53338
2.53822
2.5379
2.57159
2.57048
2.60714
2.59674
2.60318
2.59811
2.60407
2.59967
2.60244
2.57463
2.5672
2.56073
2.56437
2.56926
2.56825
2.56525
2.57701
2.57233
2.57731
2.56632
2.5731
2.56647
2.57461
2.56209
2.56989
2.57358
2.57671
2.56983
2.57244
2.56686
2.56874
2.56941
2.56248
2.57061
2.56695
2.57011
2.56721
2.51844
2.51601
2.52018
2.55565
2.57493
2.556
2.54853
2.5435
2.55035
2.55395
2.54769
2.54616
2.54718
2.58702
2.59123
2.58592
2.58287
2.58558
2.58796
2.58361
2.56189
2.5698
2.57516
2.56912
2.56707
2.56655
2.57107
2.59734
2.59165
2.58588
2.59103
2.59358
2.59426
2.59059
2.56631
2.57327
2.55969
2.56397
2.56633
2.56794
2.56196
2.60086
2.58912
2.60108
2.59598
2.59795
2.5945
2.59936
2.59239
2.58587
2.59832
2.58933
2.59233
2.58739
2.59477
2.57775
2.57702
2.5645
2.56969
2.57363
2.57547
2.56825
2.53617
2.52599
2.53343
2.52575
2.53224
2.52767
2.53021
2.50205
2.49846
2.50018
2.5005
2.50667
2.50398
2.50851
2.50362
2.50465
2.50366
2.50958
2.50306
2.50165
2.50384
2.49804
2.50349
2.56382
2.57175
2.57141
2.57469
2.57246
2.57241
2.57945
2.57942
2.57235
2.57063
2.55962
2.53727
2.52157
2.54211
2.5323
2.52375
2.49822
2.49914
2.50135
2.51091
2.51961
2.51203
2.51729
2.51378
2.52121
2.49903
2.49806
2.50885
2.5071
2.56568
2.55979
2.54181
2.53564
2.53911
2.54406
2.53991
2.54127
2.54312
2.52902
2.53852
2.52448
2.5293
2.52418
2.52736
2.52439
2.54879
2.56505
2.56086
2.55181
2.5543
2.55732
2.55392
2.54876
2.56424
2.56222
2.56205
2.55318
2.56753
2.53421
2.51694
2.52379
2.52679
2.52883
2.51737
2.51191
2.50855
2.51168
2.51787
2.51272
2.50186
2.5119
2.4979
2.51493
2.52628
2.52253
2.531
2.53315
2.52177
2.57646
2.58615
2.56748
2.5676
2.54661
2.57519
2.56318
2.56984
2.56628
2.57188
2.56762
2.56752
2.60156
2.56494
2.57251
2.57457
2.56934
2.60568
2.63444
2.63459
2.63747
2.63319
2.63491
2.63203
2.63513
2.63285
2.63379
2.63848
2.63584
2.64125
2.63879
2.63792
2.63356
2.63166
2.62863
2.62683
2.63141
2.62568
2.62308
2.62316
2.61365
2.61777
2.62037
2.62288
2.61668
2.61658
2.62174
2.61045
2.61447
2.61629
2.61868
2.61283
2.62887
2.62589
2.63585
2.63115
2.63563
2.60118
2.60116
2.59667
2.60024
2.60108
2.59706
2.60525
2.60933
2.61615
2.60037
2.60625
2.60876
2.58059
2.58059
2.58697
2.58673
2.59131
2.58116
2.60658
2.60103
2.59959
2.60169
2.58399
2.5807
2.58724
2.57972
2.58642
2.58157
2.61491
2.60609
2.6077
2.60707
2.61294
2.60672
2.61101
2.56048
2.56672
2.56147
2.57063
2.56288
2.56766
2.56437
2.54577
2.55866
2.54324
2.55069
2.54908
2.55431
2.54513
2.56871
2.57471
2.58122
2.57616
2.57416
2.57299
2.57701
2.57813
2.57654
2.56888
2.57527
2.57506
2.57789
2.57325
2.57826
2.57303
2.56561
2.56723
2.57405
2.57195
2.56896
2.58694
2.57814
2.58475
2.57749
2.58352
2.57917
2.58169
2.56408
2.57065
2.57612
2.57698
2.568
2.57324
2.57337
2.62158
2.6208
2.61434
2.61631
2.62369
2.61959
2.62093
2.60321
2.60963
2.60335
2.60044
2.59531
2.60245
2.59966
2.59994
2.59962
2.59503
2.59217
2.59773
2.60046
2.59252
2.59977
2.59866
2.60091
2.59928
2.60211
2.60211
2.60047
2.60539
2.5855
2.59732
2.59118
2.59524
2.58929
2.59385
2.59018
2.5511
2.56461
2.55756
2.56292
2.55702
2.56121
2.55873
2.6012
2.59378
2.6022
2.59652
2.60218
2.59794
2.601
2.62485
2.61452
2.62542
2.61875
2.62102
2.61768
2.62326
2.6049
2.59729
2.59326
2.59749
2.60062
2.60022
2.59798
2.59481
2.59617
2.60113
2.59289
2.59648
2.59338
2.59585
2.5908
2.59771
2.60261
2.60192
2.59448
2.59678
2.59934
2.58943
2.59557
2.59155
2.59886
2.59124
2.59603
2.59447
2.61296
2.60568
2.60256
2.60149
2.60234
2.6029
2.60085
2.54472
2.54734
2.55401
2.55467
2.54841
2.55026
2.55273
2.58698
2.56748
2.56865
2.5721
2.58434
2.56765
2.57763
2.58008
2.58358
2.57569
2.57878
2.5763
2.57892
2.58926
2.58313
2.57869
2.58415
2.58274
2.58791
2.58391
2.57949
2.57715
2.57243
2.57067
2.579
2.57548
2.57523
2.59678
2.585
2.588
2.58361
2.59173
2.58846
2.58825
2.58976
2.58702
2.57657
2.59518
2.61924
2.61687
2.61672
2.62269
2.61415
2.61978
2.61756
2.59718
2.63002
2.61392
2.61685
2.61733
2.61648
2.61002
2.61732
2.60764
2.61825
2.62137
2.62067
2.62045
2.61846
2.5661
2.57342
2.56155
2.63015
2.63285
2.62514
2.62968
2.62913
2.6329
2.6268
2.63626
2.63671
2.6395
2.63711
2.63799
2.63784
2.63646
2.63023
2.63137
2.63484
2.6346
2.63517
2.63149
2.62758
2.63127
2.63133
2.63432
2.63037
2.63498
2.63423
2.63701
2.63789
2.63824
2.63105
2.63687
2.56027
2.56506
2.56614
2.53814
2.53632
2.55599
2.54656
2.55553
2.55495
2.55371
2.55308
2.55867
2.54902
2.55495
2.54553
2.55821
2.55039
2.55339
2.54447
2.55813
2.55823
2.54682
2.55363
2.56125
2.55895
2.56609
2.55589
2.56316
2.55447
2.55939
2.6113
2.61198
2.60551
2.59135
2.59968
2.59782
2.596
2.59475
2.61238
2.61416
2.60231
2.60469
2.59017
2.59412
2.59311
2.59616
2.58005
2.5802
2.56988
2.59259
2.58618
2.57314
2.5751
2.57708
2.57641
2.57483
2.57179
2.58122
2.58487
2.57916
2.5742
2.58058
2.5714
2.65333
2.6582
2.65207
2.65711
2.65471
2.64571
2.65146
2.65063
2.65456
2.6492
2.64888
2.65408
2.65753
2.65507
2.64833
2.65864
2.6557
2.65604
2.65697
2.65872
2.6443
2.64291
2.64332
2.64336
2.63788
2.6388
2.64063
2.63293
2.63622
2.6298
2.62746
2.6288
2.63272
2.63297
2.63086
2.63853
2.63335
2.64604
2.63311
2.64006
2.63651
2.64476
2.63549
2.63263
2.63655
2.6413
2.63588
2.63913
2.63803
2.61175
2.61044
2.60186
2.61023
2.61
2.61181
2.60652
2.63287
2.6243
2.62986
2.63115
2.63099
2.62979
2.63134
2.62294
2.62613
2.62667
2.62008
2.62852
2.61439
2.62682
2.62444
2.62814
2.62823
2.62598
2.62009
2.61344
2.61573
2.61774
2.62202
2.61695
2.62643
2.62791
2.62211
2.62099
2.62629
2.62637
2.62266
2.61199
2.6277
2.61716
2.62337
2.61563
2.62389
2.6168
2.6305
2.62816
2.62711
2.63107
2.62975
2.63116
2.63478
2.61528
2.61886
2.60714
2.61262
2.61386
2.61658
2.60774
2.62871
2.63492
2.62469
2.62788
2.62897
2.62704
2.62647
2.62239
2.61649
2.62573
2.61445
2.61765
2.63101
2.63652
2.63345
2.63395
2.63394
2.62897
2.62307
2.61817
2.61294
2.62084
2.62091
2.62233
2.6185
2.6479
2.64387
2.63839
2.63749
2.61733
2.64085
2.62612
2.62937
2.6205
2.61962
2.60867
2.61313
2.62277
2.6223
2.61367
2.62061
2.60967
2.61012
2.6066
2.62957
2.62937
2.62329
2.62798
2.62803
2.63269
2.62655
2.6347
2.63775
2.63762
2.63712
2.63735
2.63783
2.63982
2.64258
2.63476
2.63358
2.63686
2.63986
2.6422
2.63675
2.63754
2.63761
2.63442
2.63184
2.63139
2.6342
2.63394
2.63078
2.63222
2.63842
2.63531
2.63495
2.6342
2.63761
2.63506
2.63589
2.62541
2.63929
2.63862
2.63255
2.63252
2.63335
2.64565
2.63544
2.62701
2.62882
2.61888
2.6243
2.627
2.63838
2.62921
2.61798
2.62702
2.61978
2.63033
2.64001
2.64435
2.64446
2.64512
2.64254
2.64338
2.64404
2.64539
2.64158
2.6386
2.63282
2.63778
2.64001
2.63303
2.63768
2.63295
2.63504
2.57201
2.63599
2.62941
2.63416
2.6332
2.63415
2.63227
2.63525
2.63502
2.63439
2.62827
2.63154
2.63268
2.63449
2.63021
2.61822
2.62475
2.61985
2.62544
2.62139
2.62365
2.62371
2.62317
2.62302
2.61763
2.62321
2.62195
2.6242
2.621
2.63107
2.63443
2.63282
2.63056
2.63121
2.63164
2.62985
2.62847
2.62625
2.63349
2.62888
2.62985
2.62776
2.63115
2.62443
2.61953
2.62899
2.62553
2.62396
2.62286
2.62692
2.61899
2.61385
2.61814
2.62071
2.61053
2.61473
2.61423
2.61627
2.61638
2.61132
2.61625
2.61178
2.61478