# vtk DataFile Version 2.0
Vessel Segment
ASCII
DATASET POLYDATA
POINTS 600 float
2.4714487450731975 32.57258331195206 -5.233484197124108
2.349310907413687 32.401330195078934 -5.258960064964548
2.2271730697541763 32.23007707820582 -5.284435932804988
2.1050352320946657 32.05882396133269 -5.309911800645429
1.9828973944351533 31.88757084445957 -5.335387668485868
1.8607595567756414 31.716317727586446 -5.360863536326309
1.7386217191161295 31.545064610713325 -5.3863394041667485
1.6164838814566176 31.373811493840208 -5.411815272007189
1.494346043797106 31.202558376967083 -5.43729113984763
1.3722082061375942 31.031305260093962 -5.462767007688069
1.2500703684780823 30.860052143220837 -5.48824287552851
1.1279325308185704 30.688799026347716 -5.51371874336895
1.0057946931590587 30.5175459094746 -5.53919461120939
0.883656855499547 30.346292792601474 -5.5646704790498305
0.7615190178400348 30.17503967572835 -5.59014634689027
0.6393811801805231 30.00378655885523 -5.61562221473071
0.5172433425210115 29.832533441982108 -5.64109808257115
0.39510550486149965 29.661280325108983 -5.66657395041159
0.2729676672019877 29.490027208235865 -5.6920498182520305
0.15082982954247567 29.31877409136274 -5.717525686092471
0.028691991882963726 29.14752097448962 -5.743001553932911
-0.09344584577654867 28.9762678576165 -5.768477421773351
-0.21558368343606055 28.805014740743374 -5.793953289613791
-0.33772152109557235 28.633761623870257 -5.819429157454231
-0.45985935875508394 28.462508506997132 -5.844905025294672
-0.5819971964145956 28.29125539012401 -5.870380893135112
-0.7041350340741072 28.12000227325089 -5.895856760975552
-0.826272871733619 27.948749156377765 -5.921332628815993
-0.9484107093931311 27.777496039504644 -5.946808496656432
-1.070548547052643 27.606242922631527 -5.972284364496873
-1.192686384712155 27.4349898057584 -5.997760232337313
-1.3148242223716669 27.26373668888528 -6.023236100177753
-1.4369620600311785 27.092483572012156 -6.048711968018194
-1.5590998976906905 26.921230455139035 -6.074187835858633
-1.6812377353502022 26.749977338265914 -6.099663703699073
-1.8033755730097139 26.57872422139279 -6.125139571539513
-1.9255134106692258 26.40747110451967 -6.150615439379953
-2.0476512483287377 26.236217987646548 -6.176091307220394
-2.169789085988249 26.064964870773423 -6.201567175060834
-2.2919269236477615 25.893711753900302 -6.227043042901275
-2.414064761307274 25.72245863702718 -6.252518910741715
-2.5362025989667867 25.55120552015406 -6.277994778582155
-2.658340436626298 25.379952403280935 -6.3034706464225945
-2.7804782742858096 25.208699286407814 -6.328946514263035
-2.9026161119453215 25.037446169534693 -6.354422382103475
-3.024753949604834 24.866193052661572 -6.379898249943915
-3.1468917872643454 24.694939935788454 -6.405374117784356
-3.2690296249238573 24.52368681891533 -6.430849985624796
-3.3911674625833688 24.352433702042205 -6.456325853465236
-3.513305300242881 24.181180585169084 -6.4818017213056764
-3.635443137902393 24.009927468295963 -6.507277589146117
-3.7575809755619045 23.838674351422842 -6.532753456986557
-3.879718813221417 23.66742123454972 -6.558229324826997
-4.001856650880928 23.496168117676596 -6.583705192667436
-4.123994488540441 23.32491500080348 -6.609181060507877
-4.246132326199953 23.153661883930354 -6.634656928348317
-4.3682701638594645 22.98240876705723 -6.6601327961887575
-4.490408001518977 22.81115565018411 -6.685608664029197
-4.612545839178488 22.639902533310988 -6.711084531869638
-4.734683676838 22.468649416437863 -6.736560399710078
-4.856821514497512 22.297396299564745 -6.762036267550518
-4.978959352157024 22.12614318269162 -6.7875121353909575
-5.09913573229051 21.953024136718255 -6.787428752841243
-5.217881772318052 21.778544412172185 -6.768706974901406
-5.336627812345593 21.604064687626114 -6.749985196961566
-5.455373852373134 21.42958496308004 -6.731263419021728
-5.571728619305037 21.256117518271346 -6.700862527960589
-5.682391875724109 21.0850594179987 -6.642663977472074
-5.7930551321431825 20.914001317726054 -6.584465426983557
-5.903718388562257 20.742943217453412 -6.526266876495042
-6.011222961408302 20.57401496629586 -6.458615362684826
-6.111928403135634 20.409671259003442 -6.37061615161444
-6.212633844862966 20.24532755171102 -6.282616940544054
-6.313339286590297 20.0809838444186 -6.194617729473667
-6.409141578708965 19.919865738349273 -6.096427250062293
-6.500838356727474 19.761448498531205 -5.989703399407566
-6.592535134745983 19.603031258713138 -5.88297954875284
-6.684231912764494 19.444614018895063 -5.7762556980981135
-6.7698311729152465 19.288052960084933 -5.662006977633691
-6.8552465542785335 19.131547876889865 -5.547531334679416
-6.940661935641819 18.975042793694804 -5.433055691725142
-7.024291220560328 18.815701457248654 -5.3212481798963465
-7.10696069073067 18.65483597147233 -5.210874471718958
-7.189630160901009 18.49397048569601 -5.100500763541572
-7.272662533721963 18.32553248095032 -5.002973795766116
-7.355885815119347 18.153110876707593 -4.912204984531533
-7.439138473983089 17.98033246993791 -4.822386427904946
-7.523631726997964 17.792486489855953 -4.772696597646262
-7.608124980012841 17.604640509773997 -4.723006767387578
-7.689825230006642 17.411334134530822 -4.715953605103811
-7.77031786159249 17.215666833194252 -4.727335376370732
-7.844679606306034 17.023998054587384 -4.76828770248116
-7.912760990955391 16.836425284109588 -4.8395315240282555
-7.978298534789819 16.651219207917354 -4.917132372637319
-8.030461167764269 16.478456648204794 -5.028156959787475
-8.082623800738718 16.305694088492242 -5.13918154693763
-8.126861755592941 16.13864290012379 -5.2609863337939675
-8.163805388203189 15.976848781179092 -5.392713826572022
-8.200749020813436 15.815054662234393 -5.524441319350073
-8.230130213217782 15.655777043218247 -5.6607738875587135
-8.25280689279679 15.498730437682756 -5.801189104548088
-8.275483572375798 15.34168383214726 -5.941604321537466
-8.294876074741554 15.184642642715042 -6.082386976222075
-8.303279754427791 15.027619575507867 -6.224399073600102
-8.311683434114025 14.870596508300688 -6.366411170978125
-8.32008711380026 14.713573441093509 -6.508423268356151
-8.318069753960657 14.554829662392313 -6.648569242163516
-8.311545756291716 14.39534175221622 -6.78790820021618
-8.305021758622777 14.235853842040127 -6.927247158268842
-8.298336613960407 14.076335781060244 -7.066533781866255
-8.276226784334284 13.913931742253919 -7.200811050539776
-8.254116954708163 13.751527703447593 -7.3350883192133
-8.23200712508204 13.589123664641265 -7.4693655878868235
-8.206345525234243 13.42630867863764 -7.602321329349889
-8.16850245552283 13.262084271250584 -7.730744642507245
-8.130659385811418 13.097859863863533 -7.859167955664598
-8.092816316100004 12.933635456476477 -7.987591268821953
-8.049144590956361 12.7694990527878 -8.114024654941673
-7.996113787232679 12.605503956736538 -8.23726281298001
-7.943082983508997 12.441508860685278 -8.360500971018345
-7.8900521797853145 12.277513764634017 -8.483739129056683
-7.829876931578379 12.114881617135278 -8.605271355815582
-7.762796324341384 11.953566807760831 -8.725154739477897
-7.695715717104392 11.792251998386387 -8.845038123140212
-7.628635109867396 11.63093718901194 -8.96492150680253
-7.553854950173928 11.472747974594135 -9.084230113155984
-7.474207792824869 11.31653449362477 -9.203175394520033
-7.394560635475812 11.160321012655409 -9.322120675884081
-7.314913478126752 11.004107531686044 -9.44106595724813
-7.227606576931333 10.852882394463919 -9.56092614592952
-7.137005021679174 10.70380287298207 -9.681179859925209
-7.046403466427014 10.554723351500224 -9.801433573920901
-6.9558019111748575 10.405643830018377 -9.921687287916592
-6.858071223510986 10.262973076170848 -10.04398910595543
-6.75808993159834 10.122325513762933 -10.16693749238369
-6.658108639685691 9.981677951355016 -10.289885878811953
-6.558127347773045 9.8410303889471 -10.412834265240212
-6.451921219831907 9.707071534191721 -10.537912087494707
-6.343938394837561 9.57502177505295 -10.663597694812154
-6.235955569843213 9.442972015914174 -10.789283302129604
-6.127972744848868 9.3109222567754 -10.914968909447051
-6.014903564386432 9.184295487156547 -11.041675806826081
-5.899966374673271 9.0596603586358 -11.168757782056957
-5.785029184960107 8.935025230115052 -11.295839757287837
-5.670091995246946 8.810390101594304 -11.422921732518711
-5.551351106136385 8.68878407791353 -11.54937799736221
-5.4301270855843535 8.569155514773616 -11.67542578588468
-5.308903065032325 8.449526951633704 -11.801473574407147
-5.187679044480294 8.329898388493792 -11.927521362929616
-5.064115963632115 8.210937500569743 -12.051866108304036
-4.9370624006550194 8.092972956524784 -12.173669473414428
-4.810008837677927 7.975008412479827 -12.295472838524816
-4.682955274700834 7.85704386843487 -12.417276203635204
-4.555125683724651 7.738756848298652 -12.537899070067041
-4.422786580600144 7.618595914008851 -12.651662038224195
-4.290447477475636 7.498434979719047 -12.76542500638135
-4.158108374351128 7.378274045429245 -12.879187974538501
-4.025769271226616 7.258113111139438 -12.99295094269566
-3.8895812512388273 7.132417157384084 -13.095555707143522
-3.7529422481030705 7.006072657403568 -13.19685304874666
-3.616303244967314 6.879728157423052 -13.2981503903498
-3.4796642418315518 6.753383657442532 -13.399447731952943
-3.341313620903224 6.619748198474406 -13.487817584652525
-3.2023055206108557 6.483312082081929 -13.571221634110383
-3.0632974203184826 6.346875965689448 -13.654625683568241
-2.9242893200261144 6.2104398492969715 -13.738029733026098
-2.7860787304011225 6.0644056817414995 -13.803636067498584
-2.6481835579755133 5.914575464125244 -13.862203367076932
-2.5102883855499 5.764745246508983 -13.920770666655283
-2.3723932131242913 5.614915028892727 -13.97933796623363
-2.241539269083592 5.4504683141583445 -14.00533947855788
-2.11096588860765 5.285439193015367 -14.030043380172504
-1.9803925081317046 5.120410071872383 -14.05474728178713
-1.8588454845756703 4.948641760757695 -14.056661587243642
[...]
POINT_DATA 600
SCALARS MaximumInscribedSphereRadius float
LOOKUP_TABLE default
1.5
1.5
1.5
1.5
1.5
1.5
1.5
1.5
1.5
1.5
1.5
1.5
1.5
1.5
1.5
1.5
1.5
1.5
1.5
1.5
1.5
1.5
1.5
1.5
1.5
1.5
1.5
1.5
1.5
1.5
1.5
1.5
1.5
1.5
1.5
1.5
1.5
1.5
1.5
1.5
1.5
1.5
1.5
1.5
1.5
1.5
1.5
1.5
1.5
1.5
1.5
1.5
1.5
1.5
1.5
1.5
1.5
1.5
1.5
1.5
1.5
1.5
1.5
1.5
1.5
1.5
1.5
1.5
1.5
1.5
1.5
1.5
1.5
1.5
1.5
1.5
1.5
1.5
1.5
1.5
1.5
1.5
1.5
1.5
1.5
1.5
1.5
1.5
1.5
1.5
1.5
1.5
1.5
1.5
1.5
1.5
1.5
1.5
1.5
1.5
1.5
1.5
1.5
1.5
1.5
1.5
1.5
1.5
1.5
1.5
1.5
1.5
1.5
1.5
1.5
1.5
1.5
1.5
1.5
1.5
1.5
1.5
1.5
1.5
1.5
1.5
1.5
1.5
1.5
1.5
1.5
1.5
1.5
1.5
1.5
1.5
1.5
1.5
1.5
1.5
1.5
1.5
1.5
1.5
1.5
1.5
1.5
1.5
1.5
1.5
1.5
1.5
1.5
1.5
1.5
1.5
1.5
1.5
1.5
1.5
1.5
1.5
1.5
1.5
1.5
1.5
1.5
1.5
1.5
1.5
1.5
1.5
1.5
1.5
1.5
1.5
1.5
1.5
1.5
1.5
1.5
1.5
1.5
1.5
1.5
1.5
1.5
1.5
1.5
1.5
1.5
1.5
1.5
1.5
1.5
1.5
1.5
1.5
1.5
1.5
1.5
1.5
1.5
1.5
1.5
1.5
1.5
1.5
1.5
1.5
1.5
1.5
1.5
1.5
1.5
1.5
1.5
1.5
1.5
1.5
1.5
1.5
1.5
1.5
1.5
1.5
1.5
1.5
1.5
1.5
1.5
1.5
1.5
1.5
1.5
1.5
1.5
1.5
1.5
1.5
1.5
1.5
1.5
1.5
1.5
1.5
1.5
1.5
1.5
1.5
1.5
1.5
1.5
1.5
1.5
1.5
1.5
1.5
1.5
1.5
1.5
1.5
1.5
1.5
1.5
1.5
1.5
1.5
1.5
1.5
1.5
1.5
1.5
1.5
1.5
1.5
1.5
1.5
1.5
1.5
1.5
1.5
1.5
1.5
1.5
1.5
1.5
1.5
1.5
1.5
1.5
1.5
1.5
1.5
1.5
1.5
1.5
1.5
1.5
1.5
1.5
1.5
1.5
1.5
1.5
1.5
1.5
1.5
1.5
1.5
1.5
1.5
1.5
1.5
1.5
1.5
1.5
1.5
1.5
1.5
1.5
1.5
1.5
1.5
1.5
1.5
1.5
1.5
1.5
1.5
1.5
1.5
1.5
1.5
1.5
1.5
1.5
1.5
1.5
1.5
1.5
1.5
1.5
1.5
1.5
1.5
1.5
1.5
1.5
1.5
1.5
1.5
1.5
1.5
1.5
1.5
1.5
1.5
1.5
1.5
1.5
1.5
1.5
1.5
1.5
1.5
1.5
1.5
1.5
1.5
1.5
1.5
1.5
1.5
1.5
1.5
1.5
1.5
1.5
1.5
1.5
1.5
1.5
1.5
1.5
1.5
1.5
1.5
1.5
1.5
1.5
1.5
1.5
1.5
1.5
1.5
1.5
1.5
1.5
1.5
1.5
1.5
1.5
1.5
1.5
1.5
1.5
1.5
1.5
1.5
1.5
1.5
1.5
1.5
1.5
1.5
1.5
1.5
1.5
1.5
1.5
1.5
1.5
1.5
1.5
1.5
1.5
1.5
1.5
1.5
1.5
1.5
1.5
1.5
1.5
1.5
1.5
1.5
1.5
1.5
1.5
1.5
1.5
1.5
1.5
1.5
1.5
1.5
1.5
1.5
1.5
1.5
1.5
1.5
1.5
1.5
1.5
1.5
1.5
1.5
1.5
1.5
1.5
1.5
1.5
1.5
1.5
1.5
1.5
1.5
1.5
1.5
1.5
1.5
1.5
1.5
1.5
1.5
1.5
1.5
1.5
1.5
1.5
1.5
1.5
1.5
1.5
1.5
1.5
1.5
1.5
1.5
1.5
1.5
1.5
1.5
1.5
1.5
1.5
1.5
1.5
1.5
1.5
1.5
1.5
1.5
1.5
1.5
1.5
1.5
1.5
1.5
1.5
1.5
1.5
1.5
1.5
1.5
1.5
1.5
1.5
1.5
1.5
1.5
1.5
1.5
1.5
1.5
1.5
1.5
1.5
1.5
1.5
1.5
1.5
1.5
1.5
1.5
1.5
1.5
1.5
1.5
1.5
1.5
1.5
1.5
1.5
1.5
1.5
1.5
1.5
1.5
1.5
1.5
1.5
1.5
1.5
1.5
1.5
1.5
1.5
1.5
1.5
1.5
1.5
1.5
1.5
1.5
1.5
1.5
1.5
1.5
1.5
1.5
1.5
1.5
1.5
1.5
1.5
1.5
1.5
1.5
1.5
1.5
1.5
1.5
1.5
1.5
1.5
1.5
1.5
1.5
1.5
1.5
1.5
1.5
1.5
1.5
1.5
1.5
