# vtk DataFile Version 2.0
Vessel Segment
ASCII
DATASET POLYDATA
POINTS 600 float
10.851739980686146 27.614554977905414 -10.198892707576805
10.696353951078716 27.516973225729387 -10.139095165835343
10.540967921471289 27.41939147355336 -10.079297624093883
10.38558189186386 27.321809721377335 -10.01950008235242
10.23019586225643 27.22422796920131 -9.95970254061096
10.074809832649002 27.126646217025286 -9.899904998869498
9.919423803041573 27.02906446484926 -9.840107457128038
9.764037773434143 26.93148271267323 -9.780309915386576
9.608651743826716 26.833900960497207 -9.720512373645116
9.453265714219288 26.73631920832118 -9.660714831903656
9.29787968461186 26.638737456145154 -9.600917290162196
9.142493655004433 26.541155703969125 -9.541119748420735
8.987107625397003 26.443573951793102 -9.481322206679275
8.831721595789574 26.345992199617072 -9.421524664937813
8.676335566182146 26.24841044744105 -9.361727123196353
8.520949536574717 26.150828695265023 -9.30192958145489
8.365563506967288 26.053246943088997 -9.24213203971343
8.210177477359858 25.95566519091297 -9.182334497971969
8.05479144775243 25.858083438736948 -9.122536956230507
7.899405418145002 25.76050168656092 -9.062739414489048
7.7440193885375725 25.66291993438489 -9.002941872747584
7.588633358930145 25.565338182208865 -8.943144331006124
7.4332473293227155 25.46775643003284 -8.883346789264664
7.277861299715287 25.370174677856816 -8.823549247523204
7.122475270107858 25.27259292568079 -8.763751705781742
6.96708924050043 25.175011173504764 -8.70395416404028
6.811703210893002 25.077429421328738 -8.644156622298821
6.656317181285573 24.97984766915271 -8.58435908055736
6.500931151678145 24.882265916976685 -8.5245615388159
6.345545122070716 24.78468416480066 -8.464763997074439
6.190159092463286 24.687102412624633 -8.404966455332978
6.034773062855858 24.589520660448606 -8.345168913591516
5.87938703324843 24.491938908272584 -8.285371371850056
5.724001003641002 24.394357156096554 -8.225573830108594
5.568614974033574 24.296775403920527 -8.165776288367134
5.413228944426145 24.199193651744505 -8.105978746625674
5.257842914818716 24.101611899568475 -8.046181204884212
5.102456885211288 24.004030147392452 -7.9863836631427505
4.94707085560386 23.906448395216426 -7.926586121401289
4.79168482599643 23.808866643040396 -7.866788579659829
4.636298796389003 23.71128489086437 -7.806991037918368
4.480912766781574 23.613703138688344 -7.747193496176907
4.325526737174146 23.516121386512317 -7.687395954435447
4.170140707566716 23.418539634336295 -7.627598412693985
4.014754677959288 23.320957882160265 -7.567800870952524
3.8593686483518583 23.22337612998424 -7.508003329211063
3.7039826187444302 23.125794377808216 -7.448205787469603
3.5485965891370017 23.028212625632186 -7.388408245728142
3.3932105595295736 22.930630873456167 -7.328610703986682
3.2378245299221446 22.833049121280137 -7.26881316224522
3.082438500314716 22.73546736910411 -7.2090156205037585
2.927052470707288 22.637885616928088 -7.149218078762298
2.77166644109986 22.54030386475206 -7.089420537020838
2.616280411492432 22.442722112576035 -7.029622995279377
2.4608943818850033 22.34514036040001 -6.969825453537916
2.305508352277575 22.247558608223983 -6.910027911796455
2.150122322670146 22.149976856047957 -6.8502303700549945
1.9947362930627182 22.05239510387193 -6.7904328283135325
1.8393502634552887 21.954813351695904 -6.730635286572072
1.6839642338478604 21.857231599519874 -6.670837744830612
1.5285782042404321 21.75964984734385 -6.611040203089151
1.3731921746330034 21.662068095167825 -6.55124266134769
1.2178061450255748 21.5644863429918 -6.491445119606229
1.0624201154181465 21.466904590815773 -6.4316475778647675
0.9070340858107182 21.369322838639746 -6.371850036123307
0.7516480562032899 21.27174108646372 -6.312052494381846
0.6009401340404976 21.160933251298726 -6.265599283375388
0.4514003201893083 21.046822905951515 -6.2224781086312015
0.3018605063381191 20.93271256060431 -6.179356933887015
0.15610857102176443 20.812547117829133 -6.140811874504629
0.01423546179212229 20.686181193796386 -6.106952803724548
-0.1276376474375211 20.559815269763643 -6.073093732944468
-0.2695107566671632 20.433449345730896 -6.039234662164386
-0.4033592592625278 20.29785225596531 -6.008741045209581
-0.5366637890387052 20.161629403034382 -5.978475565967765
-0.6699683188148825 20.025406550103455 -5.948210086725949
-0.801584499256434 19.887664846545448 -5.917812834799323
-0.9256399105659858 19.74312142328298 -5.886825478190379
-1.0496953218755376 19.59857800002051 -5.855838121581434
-1.1737507331850892 19.454034576758037 -5.824850764972489
-1.2949520244489765 19.30744576618297 -5.792730604598057
-1.4092290789597706 19.15589474456645 -5.757862206118167
-1.5235061334705642 19.004343722949926 -5.722993807638279
-1.6377831879813587 18.852792701333406 -5.688125409158389
-1.7488671238540716 18.699444032638176 -5.651362130969746
-1.8532397132011285 18.542317041292414 -5.610616165073161
-1.9576123025481835 18.385190049946655 -5.5698701991765756
-2.0619848918952406 18.228063058600892 -5.52912423327999
-2.163283021897045 18.06961633248644 -5.486185487503245
-2.2583657693025665 17.908501606703776 -5.438813778276945
-2.353448516708088 17.747386880921113 -5.391442069050645
-2.4485312641136074 17.586272155138452 -5.344070359824346
-2.540708797203765 17.42423185939387 -5.294418557888139
-2.6281352070566255 17.260677907004226 -5.2410379427625085
-2.715561616909487 17.097123954614577 -5.187657327636878
-2.802988026762347 16.933570002224933 -5.134276712511248
-2.887767326667444 16.76934201717469 -5.07882856127851
-2.970312703692368 16.604545209139307 -5.02163559539644
-3.0528580807172947 16.43974840110392 -4.96444262951437
-3.1354034577422185 16.27495159306854 -4.907249663632301
-3.217110438141928 16.109576320778768 -4.85052554069658
-3.2987340022341627 15.944143494163686 -4.793848065309517
-3.380357566326399 15.778710667548605 -4.737170589922452
-3.4644235113869177 15.612980856474438 -4.685325819936338
-3.5502691390250023 15.44703464260542 -4.637002483222217
-3.6361147666630886 15.281088428736398 -4.5886791465080945
-3.7281770082767474 15.115420029986302 -4.554242287911256
-3.8238740727868743 14.949914068337689 -4.527924783163682
-3.920686243425345 14.784980614693586 -4.505420977885373
-4.028618025004802 14.625756094135685 -4.5209466060986685
-4.136549806584256 14.466531573577786 -4.5364722343119634
-4.248248199946044 14.323883738373572 -4.599841248596526
-4.3605342319609806 14.183822073876048 -4.670674430833026
-4.466535649268098 14.062148069300644 -4.773786978501585
-4.570014909744096 13.947853445043211 -4.889853959466964
-4.668486754067587 13.839977459641352 -5.014943808621909
-4.758096934013652 13.743460590711077 -5.156001499710186
-4.847707113959718 13.646943721780804 -5.297059190798462
-4.9290095026926934 13.554329079731968 -5.445328698629033
-5.005960647678697 13.463758246907704 -5.597375428551406
-5.082911792664702 13.373187414083437 -5.7494221584737835
-5.153478128376066 13.280769157806084 -5.903336613356377
-5.219709807987112 13.187096683118074 -6.058519069371707
-5.285941487598157 13.093424208430065 -6.213701525387036
-5.349623153322626 12.997466793443019 -6.368445089345861
-5.406026386877585 12.89498753829447 -6.521935936180348
-5.462429620432546 12.792508283145919 -6.67542678301484
-5.518832853987506 12.69002902799737 -6.828917629849328
-5.567704810680983 12.578735144495397 -6.978648256374136
-5.614107590333191 12.464551328999438 -7.127146070743775
-5.660510369985397 12.350367513503478 -7.27564388511341
-5.705094851412442 12.234124887326661 -7.422947772610465
-5.740719333345622 12.107737092220376 -7.564368365482894
-5.776343815278802 11.981349297114088 -7.705788958355327
-5.8119682972119815 11.854961502007804 -7.847209551227756
-5.840992501815988 11.7224612766648 -7.9842046658366685
-5.865000553904023 11.585315658290348 -8.117836456024678
-5.88900860599206 11.448170039915894 -8.25146824621269
-5.913016658080096 11.31102442154144 -8.3851000364007
-5.925074525748056 11.165970689154864 -8.511797384315807
-5.9369170372326945 11.020774443381798 -8.638369765538444
-5.9487595487173355 10.87557819760873 -8.764942146761085
-5.955421462972506 10.728255124600537 -8.889214059046635
-5.954905501706932 10.57798526756887 -9.010298601432854
-5.954389540441358 10.427715410537198 -9.131383143819074
-5.9538735791757835 10.277445553505531 -9.252467686205291
-5.9427525924986275 10.12510037289028 -9.37032616339944
-5.930012972054596 9.9724384378403 -9.487692249689145
-5.917273351610564 9.819776502790315 -9.605058335978852
-5.900954667889619 9.666908432551864 -9.721579274013942
-5.876540174552529 9.513574086332262 -9.836188494139233
-5.8521256812154405 9.360239740112666 -9.95079771426452
-5.827711187878352 9.206905393893063 -10.065406934389808
-5.795875982898244 9.053421039311926 -10.177865770214764
-5.760953195646955 8.899874269806194 -10.289429882088523
-5.726030408395667 8.746327500300463 -10.400993993962285
-5.690793788923222 8.592744318176589 -10.512394164811086
-5.6472556389675095 8.438197944770543 -10.61945774647497
-5.603717489011798 8.283651571364501 -10.726521328138851
-5.560179339056084 8.129105197958454 -10.833584909802735
-5.5149499825619674 7.9737191813254125 -10.938622106047664
-5.465434727172583 7.816205319336229 -11.038523984499484
-5.415919471783198 7.658691457347049 -11.138425862951308
-5.366404216393813 7.501177595357867 -11.23832774140313
-5.315627335458175 7.341218545488594 -11.33340664650804
-5.263312892075502 7.178279507562218 -11.422607719855923
-5.210998448692829 7.01534046963584 -11.511808793203803
-5.158684005310155 6.852401431709462 -11.601009866551685
-5.106831904189945 6.6850487103796405 -11.68148239960494
-5.05532390244349 6.514411094246971 -11.755458694929006
-5.003815900697036 6.343773478114302 -11.829434990253072
-4.952307898950582 6.173135861981633 -11.903411285577139
-4.9040922440026335 5.996273144646315 -11.962805234246769
-4.85725701461072 5.8168003472328635 -12.016085050590515
-4.810421785218807 5.637327549819412 -12.069364866934263
[...]
POINT_DATA 600
SCALARS MaximumInscribedSphereRadius float
LOOKUP_TABLE default
1.5
1.5
1.5
1.5
1.5
1.5
1.5
1.5
1.5
1.5
1.5
1.5
1.5
1.5
1.5
1.5
1.5
1.5
1.5
1.5
1.5
1.5
1.5
1.5
1.5
1.5
1.5
1.5
1.5
1.5
1.5
1.5
1.5
1.5
1.5
1.5
1.5
1.5
1.5
1.5
1.5
1.5
1.5
1.5
1.5
1.5
1.5
1.5
1.5
1.5
1.5
1.5
1.5
1.5
1.5
1.5
1.5
1.5
1.5
1.5
1.5
1.5
1.5
1.5
1.5
1.5
1.5
1.5
1.5
1.5
1.5
1.5
1.5
1.5
1.5
1.5
1.5
1.5
1.5
1.5
1.5
1.5
1.5
1.5
1.5
1.5
1.5
1.5
1.5
1.5
1.5
1.5
1.5
1.5
1.5
1.5
1.5
1.5
1.5
1.5
1.5
1.5
1.5
1.5
1.5
1.5
1.5
1.5
1.5
1.5
1.5
1.5
1.5
1.5
1.5
1.5
1.5
1.5
1.5
1.5
1.5
1.5
1.5
1.5
1.5
1.5
1.5
1.5
1.5
1.5
1.5
1.5
1.5
1.5
1.5
1.5
1.5
1.5
1.5
1.5
1.5
1.5
1.5
1.5
1.5
1.5
1.5
1.5
1.5
1.5
1.5
1.5
1.5
1.5
1.5
1.5
1.5
1.5
1.5
1.5
1.5
1.5
1.5
1.5
1.5
1.5
1.5
1.5
1.5
1.5
1.5
1.5
1.5
1.5
1.5
1.5
1.5
1.5
1.5
1.5
1.5
1.5
1.5
1.5
1.5
1.5
1.5
1.5
1.5
1.5
1.5
1.5
1.5
1.5
1.5
1.5
1.5
1.5
1.5
1.5
1.5
1.5
1.5
1.5
1.5
1.5
1.5
1.5
1.5
1.5
1.5
1.5
1.5
1.5
1.5
1.5
1.5
1.5
1.5
1.5
1.5
1.5
1.5
1.5
1.5
1.5
1.5
1.5
1.5
1.5
1.5
1.5
1.5
1.5
1.5
1.5
1.5
1.5
1.5
1.5
1.5
1.5
1.5
1.5
1.5
1.5
1.5
1.5
1.5
1.5
1.5
1.5
1.5
1.5
1.5
1.5
1.5
1.5
1.5
1.5
1.5
1.5
1.5
1.5
1.5
1.5
1.5
1.5
1.5
1.5
1.5
1.5
1.5
1.5
1.5
1.5
1.5
1.5
1.5
1.5
1.5
1.5
1.5
1.5
1.5
1.5
1.5
1.5
1.5
1.5
1.5
1.5
1.5
1.5
1.5
1.5
1.5
1.5
1.5
1.5
1.5
1.5
1.5
1.5
1.5
1.5
1.5
1.5
1.5
1.5
1.5
1.5
1.5
1.5
1.5
1.5
1.5
1.5
1.5
1.5
1.5
1.5
1.5
1.5
1.5
1.5
1.5
1.5
1.5
1.5
1.5
1.5
1.5
1.5
1.5
1.5
1.5
1.5
1.5
1.5
1.5
1.5
1.5
1.5
1.5
1.5
1.5
1.5
1.5
1.5
1.5
1.5
1.5
1.5
1.5
1.5
1.5
1.5
1.5
1.5
1.5
1.5
1.5
1.5
1.5
1.5
1.5
1.5
1.5
1.5
1.5
1.5
1.5
1.5
1.5
1.5
1.5
1.5
1.5
1.5
1.5
1.5
1.5
1.5
1.5
1.5
1.5
1.5
1.5
1.5
1.5
1.5
1.5
1.5
1.5
1.5
1.5
1.5
1.5
1.5
1.5
1.5
1.5
1.5
1.5
1.5
1.5
1.5
1.5
1.5
1.5
1.5
1.5
1.5
1.5
1.5
1.5
1.5
1.5
1.5
1.5
1.5
1.5
1.5
1.5
1.5
1.5
1.5
1.5
1.5
1.5
1.5
1.5
1.5
1.5
1.5
1.5
1.5
1.5
1.5
1.5
1.5
1.5
1.5
1.5
1.5
1.5
1.5
1.5
1.5
1.5
1.5
1.5
1.5
1.5
1.5
1.5
1.5
1.5
1.5
1.5
1.5
1.5
1.5
1.5
1.5
1.5
1.5
1.5
1.5
1.5
1.5
1.5
1.5
1.5
1.5
1.5
1.5
1.5
1.5
1.5
1.5
1.5
1.5
1.5
1.5
1.5
1.5
1.5
1.5
1.5
1.5
1.5
1.5
1.5
1.5
1.5
1.5
1.5
1.5
1.5
1.5
1.5
1.5
1.5
1.5
1.5
1.5
1.5
1.5
1.5
1.5
1.5
1.5
1.5
1.5
1.5
1.5
1.5
1.5
1.5
1.5
1.5
1.5
1.5
1.5
1.5
1.5
1.5
1.5
1.5
1.5
1.5
1.5
1.5
1.5
1.5
1.5
1.5
1.5
1.5
1.5
1.5
1.5
1.5
1.5
1.5
1.5
1.5
1.5
1.5
1.5
1.5
1.5
1.5
1.5
1.5
1.5
1.5
1.5
1.5
1.5
1.5
1.5
1.5
1.5
1.5
1.5
1.5
1.5
1.5
1.5
1.5
1.5
1.5
1.5
1.5
1.5
1.5
1.5
1.5
1.5
1.5
1.5
1.5
1.5
1.5
1.5
1.5
1.5
1.5
1.5
1.5
1.5
1.5
1.5
1.5
1.5
1.5
1.5
