# vtk DataFile Version 2.0
Vessel Segment
ASCII
DATASET POLYDATA
POINTS 600 float
1.265928208813107 30.69013733003669 -10.702355832252485
1.1589346126289515 30.551463934665833 -10.644741008114021
1.0519410164447958 30.412790539294974 -10.587126183975556
0.9449474202606403 30.274117143924116 -10.529511359837093
0.837953824076485 30.135443748553254 -10.47189653569863
0.7309602278923302 29.996770353182395 -10.414281711560168
0.6239666317081752 29.858096957811536 -10.356666887421705
0.5169730355240199 29.719423562440678 -10.299052063283241
0.4099794393398644 29.580750167069816 -10.241437239144778
0.30298584315570887 29.44207677169896 -10.183822415006315
0.19599224697155324 29.3034033763281 -10.12620759086785
0.08899865078739774 29.164729980957244 -10.068592766729386
-0.017994945396757597 29.02605658558638 -10.010977942590923
-0.12498854158091292 28.887383190215523 -9.953363118452458
-0.23198213776506882 28.748709794844665 -9.895748294313996
-0.3389757339492245 28.610036399473806 -9.838133470175531
-0.44596933013338014 28.471363004102948 -9.78051864603707
-0.5529629263175357 28.33268960873209 -9.722903821898607
-0.6599565225016915 28.19401621336123 -9.665288997760143
-0.7669501186858474 28.055342817990372 -9.60767417362168
-0.8739437148700029 27.91666942261951 -9.550059349483217
-0.9809373110541586 27.77799602724865 -9.492444525344752
-1.0879309072383143 27.639322631877796 -9.434829701206288
-1.1949245034224696 27.500649236506934 -9.377214877067825
-1.301918099606625 27.361975841136072 -9.319600052929362
-1.4089116957907808 27.223302445765217 -9.261985228790898
-1.5159052919749358 27.08462905039436 -9.204370404652433
-1.6228988881590918 26.9459556550235 -9.146755580513972
-1.7298924843432473 26.807282259652638 -9.089140756375508
-1.8368860805274025 26.668608864281783 -9.031525932237045
-1.9438796767115585 26.529935468910924 -8.973911108098582
-2.0508732728957133 26.391262073540062 -8.916296283960119
-2.1578668690798692 26.252588678169207 -8.858681459821653
-2.2648604652640247 26.113915282798345 -8.80106663568319
-2.37185406144818 25.975241887427487 -8.743451811544727
-2.4788476576323353 25.836568492056625 -8.685836987406264
-2.58584125381649 25.69789509668577 -8.6282221632678
-2.6928348500006463 25.55922170131491 -8.570607339129335
-2.7998284461848018 25.420548305944052 -8.512992514990874
-2.906822042368957 25.281874910573194 -8.45537769085241
-3.0138156385531127 25.143201515202332 -8.397762866713947
-3.1208092347372682 25.004528119831473 -8.340148042575482
-3.2278028309214237 24.865854724460615 -8.282533218437019
-3.3347964271055797 24.727181329089756 -8.224918394298555
-3.4417900232897356 24.588507933718898 -8.167303570160092
-3.5487836194738906 24.44983453834804 -8.109688746021627
-3.655777215658046 24.31116114297718 -8.052073921883165
-3.762770811842202 24.17248774760632 -7.994459097744701
-3.8697644080263567 24.03381435223546 -7.936844273606238
-3.976758004210512 23.8951409568646 -7.8792294494677755
-4.083751600394669 23.756467561493743 -7.821614625329312
-4.190745196578823 23.617794166122884 -7.763999801190848
-4.297738792762979 23.479120770752026 -7.706384977052385
-4.404732388947135 23.340447375381167 -7.6487701529139205
-4.5117259851312905 23.20177398001031 -7.591155328775458
-4.618719581315445 23.06310058463945 -7.533540504636995
-4.7257131774996015 22.92442718926859 -7.47592568049853
-4.832706773683757 22.785753793897733 -7.418310856360067
-4.939700369867912 22.647080398526874 -7.360696032221604
-5.046693966052067 22.508407003156016 -7.303081208083141
-5.1536875622362235 22.369733607785157 -7.245466383944677
-5.260681158420378 22.231060212414295 -7.187851559806213
-5.367674754604533 22.092386817043437 -7.13023673566775
-5.474668350788689 21.953713421672575 -7.072621911529286
-5.581661946972845 21.81504002630172 -7.015007087390822
-5.688655543156999 21.67636663093086 -6.95739226325236
-5.7956491393411556 21.53769323556 -6.899777439113896
-5.902642735525311 21.39901984018914 -6.842162614975432
-6.0096363317094665 21.260346444818286 -6.784547790836969
-6.113577518459405 21.12121933647803 -6.723007630257676
-6.2113855338166335 20.981180587853487 -6.65358033602725
-6.309193549173862 20.84114183922894 -6.584153041796824
-6.407001564531091 20.7011030906044 -6.5147257475663976
-6.501496823229669 20.560520165478128 -6.442039947576656
-6.592772926370988 20.41940843941955 -6.366187710083558
-6.684049029512307 20.278296713360966 -6.29033547259046
-6.775325132653628 20.13718498730238 -6.214483235097361
-6.86434894147053 19.995328729105726 -6.137395289891642
-6.95135146918931 19.85280430391096 -6.059198380988218
-7.038353996908091 19.710279878716193 -5.9810014720847935
-7.125356524626871 19.56775545352142 -5.902804563181369
-7.211212841342002 19.424211381527275 -5.82522646958212
-7.295879624649946 19.279609123974332 -5.748290580144975
-7.3805464079578895 19.135006866421385 -5.6713546907078305
-7.465213191265834 18.99040460886844 -5.594418801270686
-7.549563115604384 18.844324302546518 -5.52002554619184
-7.633598494252928 18.69677673818614 -5.448156362564063
-7.717633872901471 18.549229173825765 -5.3762871789362885
-7.801669251550015 18.40168160946539 -5.304417995308512
-7.886254349756089 18.25156690132898 -5.238969441672069
-7.971123128770154 18.10012742784516 -5.176834231137207
-8.05599190778422 17.94868795436134 -5.114699020602345
-8.14094853246672 17.797028502924796 -5.053327145514803
-8.227649427829407 17.641001151510284 -5.007112120658299
-8.314350323192096 17.48497380009577 -4.960897095801795
-8.401051218554782 17.328946448681258 -4.9146820709452905
-8.4890145281793 17.16988725926984 -4.885687698945686
-8.57746814078438 17.00965054893568 -4.863381573172573
-8.665921753389455 16.849413838601528 -4.841075447399458
-8.754163874092296 16.688224485219465 -4.840833114433298
-8.842306844555509 16.52658852000271 -4.850934583384711
-8.930449815018719 16.36495255478596 -4.861036052336123
-9.014622850609932 16.20699014289873 -4.903434596318285
-9.098194122144605 16.049584569454638 -4.950728741742667
-9.180337948138094 15.893716541461405 -5.003429379782323
-9.25494381472602 15.745967881148662 -5.084680264177885
-9.32954968131395 15.598219220835922 -5.165931148573451
-9.399762670185925 15.454861022207536 -5.257118275666259
-9.463548699140876 15.317926248743063 -5.362842532556523
-9.527334728095825 15.180991475278589 -5.468566789446786
-9.586123191716858 15.047844482709705 -5.581358107532143
-9.63979902138108 14.91857248444982 -5.7013792054456385
-9.6934748510453 14.789300486189934 -5.821400303359135
-9.74396867689746 14.661092558209848 -5.943801415444202
-9.78910771867648 14.53467528383154 -6.070207696200496
-9.8342467604555 14.40825800945324 -6.1966139769567885
-9.87904408567878 14.281769658784896 -6.323060652945086
-9.916802189625486 14.153817165614003 -6.450339454189873
-9.95456029357219 14.025864672443113 -6.577618255434656
-9.992318397518895 13.89791217927222 -6.7048970566794415
-10.026144914360327 13.76743194443397 -6.83062899203772
-10.05679827097004 13.634911584546941 -6.955112461271899
-10.087451627579753 13.502391224659913 -7.07959593050608
-10.118104984189465 13.369870864772885 -7.2040793997402615
-10.141470504899996 13.23167737221932 -7.323861073184094
-10.164403796966287 13.09314741621144 -7.443363891444021
-10.187337089032578 12.954617460203565 -7.562866709703949
-10.207860919633175 12.814505106489019 -7.68083032100123
-10.2217747470733 12.670051677396778 -7.794571344374796
-10.235688574513423 12.525598248304533 -7.90831236774836
-10.249602401953545 12.381144819212293 -8.022053391121924
-10.257418508218219 12.234130563048128 -8.132882534097995
-10.260560679262095 12.085153419519742 -8.24147970549698
-10.263702850305974 11.936176275991356 -8.350076876895963
-10.26684502134985 11.787199132462971 -8.45867404829495
-10.258784408724862 11.636421762989396 -8.564407711539136
-10.24916849500411 11.485394465152666 -8.66974382918193
-10.239552581283359 11.334367167315932 -8.775079946824727
-10.226503169586362 11.183644501562355 -8.880297342286195
-10.202168647929724 11.033923090674637 -8.98512452552671
-10.177834126273087 10.88420167978692 -9.089951708767225
-10.15349960461645 10.734480268899201 -9.194778892007742
-10.11862039208861 10.588223949405041 -9.30118442927214
-10.07805312687173 10.443836781188962 -9.408441367583709
-10.03748586165485 10.299449612972884 -9.515698305895278
-9.994828928877878 10.156252196336407 -9.62353857450099
-9.937573970926763 10.021366160821842 -9.735453879003042
-9.880319012975649 9.88648012530728 -9.84736918350509
-9.823064055024533 9.751594089792716 -9.95928448800714
-9.755956724774279 9.624720106822181 -10.074598197050925
-9.683162113849427 9.502471080178314 -10.19187363469041
-9.61036750292457 9.380222053534446 -10.309149072329895
-9.535897569421873 9.259707443560757 -10.426991650110013
-9.45023630876591 9.150778915355927 -10.548622782368847
-9.364575048109941 9.041850387151094 -10.670253914627683
-9.278913787453977 8.93292185894626 -10.791885046886518
-9.187847573725174 8.830217906929695 -10.914779622799632
-9.092649318440786 8.732272591506124 -11.03864009085136
-8.997451063156397 8.634327276082551 -11.162500558903085
-8.90225280787201 8.53638196065898 -11.28636102695481
-8.80112957469426 8.444105641934733 -11.409854904103574
-8.699492506995153 8.35232095815968 -11.533316989224666
-8.597855439296048 8.260536274384627 -11.656779074345753
-8.495409983963752 8.168744451009477 -11.779548185485103
-8.389867632345254 8.076925276150824 -11.899662544792058
-8.28432528072676 7.98510610129217 -12.019776904099011
-8.178782929108264 7.893286926433515 -12.139891263405968
-8.072427466869469 7.7982749206251425 -12.25666069304013
-7.965203601767582 7.699852968532833 -12.369857734819309
-7.857979736665691 7.601431016440523 -12.48305477659849
-7.750755871563802 7.503009064348212 -12.596251818377672
-7.644244729000995 7.39386380012342 -12.69968240803574
-7.53787624214665 7.282572200395723 -12.80115818348473
-7.431507755292305 7.171280600668027 -12.902633958933725
[...]
POINT_DATA 600
SCALARS MaximumInscribedSphereRadius float
LOOKUP_TABLE default
1.5
1.5
1.5
1.5
1.5
1.5
1.5
1.5
1.5
1.5
1.5
1.5
1.5
1.5
1.5
1.5
1.5
1.5
1.5
1.5
1.5
1.5
1.5
1.5
1.5
1.5
1.5
1.5
1.5
1.5
1.5
1.5
1.5
1.5
1.5
1.5
1.5
1.5
1.5
1.5
1.5
1.5
1.5
1.5
1.5
1.5
1.5
1.5
1.5
1.5
1.5
1.5
1.5
1.5
1.5
1.5
1.5
1.5
1.5
1.5
1.5
1.5
1.5
1.5
1.5
1.5
1.5
1.5
1.5
1.5
1.5
1.5
1.5
1.5
1.5
1.5
1.5
1.5
1.5
1.5
1.5
1.5
1.5
1.5
1.5
1.5
1.5
1.5
1.5
1.5
1.5
1.5
1.5
1.5
1.5
1.5
1.5
1.5
1.5
1.5
1.5
1.5
1.5
1.5
1.5
1.5
1.5
1.5
1.5
1.5
1.5
1.5
1.5
1.5
1.5
1.5
1.5
1.5
1.5
1.5
1.5
1.5
1.5
1.5
1.5
1.5
1.5
1.5
1.5
1.5
1.5
1.5
1.5
1.5
1.5
1.5
1.5
1.5
1.5
1.5
1.5
1.5
1.5
1.5
1.5
1.5
1.5
1.5
1.5
1.5
1.5
1.5
1.5
1.5
1.5
1.5
1.5
1.5
1.5
1.5
1.5
1.5
1.5
1.5
1.5
1.5
1.5
1.5
1.5
1.5
1.5
1.5
1.5
1.5
1.5
1.5
1.5
1.5
1.5
1.5
1.5
1.5
1.5
1.5
1.5
1.5
1.5
1.5
1.5
1.5
1.5
1.5
1.5
1.5
1.5
1.5
1.5
1.5
1.5
1.5
1.5
1.5
1.5
1.5
1.5
1.5
1.5
1.5
1.5
1.5
1.5
1.5
1.5
1.5
1.5
1.5
1.5
1.5
1.5
1.5
1.5
1.5
1.5
1.5
1.5
1.5
1.5
1.5
1.5
1.5
1.5
1.5
1.5
1.5
1.5
1.5
1.5
1.5
1.5
1.5
1.5
1.5
1.5
1.5
1.5
1.5
1.5
1.5
1.5
1.5
1.5
1.5
1.5
1.5
1.5
1.5
1.5
1.5
1.5
1.5
1.5
1.5
1.5
1.5
1.5
1.5
1.5
1.5
1.5
1.5
1.5
1.5
1.5
1.5
1.5
1.5
1.5
1.5
1.5
1.5
1.5
1.5
1.5
1.5
1.5
1.5
1.5
1.5
1.5
1.5
1.5
1.5
1.5
1.5
1.5
1.5
1.5
1.5
1.5
1.5
1.5
1.5
1.5
1.5
1.5
1.5
1.5
1.5
1.5
1.5
1.5
1.5
1.5
1.5
1.5
1.5
1.5
1.5
1.5
1.5
1.5
1.5
1.5
1.5
1.5
1.5
1.5
1.5
1.5
1.5
1.5
1.5
1.5
1.5
1.5
1.5
1.5
1.5
1.5
1.5
1.5
1.5
1.5
1.5
1.5
1.5
1.5
1.5
1.5
1.5
1.5
1.5
1.5
1.5
1.5
1.5
1.5
1.5
1.5
1.5
1.5
1.5
1.5
1.5
1.5
1.5
1.5
1.5
1.5
1.5
1.5
1.5
1.5
1.5
1.5
1.5
1.5
1.5
1.5
1.5
1.5
1.5
1.5
1.5
1.5
1.5
1.5
1.5
1.5
1.5
1.5
1.5
1.5
1.5
1.5
1.5
1.5
1.5
1.5
1.5
1.5
1.5
1.5
1.5
1.5
1.5
1.5
1.5
1.5
1.5
1.5
1.5
1.5
1.5
1.5
1.5
1.5
1.5
1.5
1.5
1.5
1.5
1.5
1.5
1.5
1.5
1.5
1.5
1.5
1.5
1.5
1.5
1.5
1.5
1.5
1.5
1.5
1.5
1.5
1.5
1.5
1.5
1.5
1.5
1.5
1.5
1.5
1.5
1.5
1.5
1.5
1.5
1.5
1.5
1.5
1.5
1.5
1.5
1.5
1.5
1.5
1.5
1.5
1.5
1.5
1.5
1.5
1.5
1.5
1.5
1.5
1.5
1.5
1.5
1.5
1.5
1.5
1.5
1.5
1.5
1.5
1.5
1.5
1.5
1.5
1.5
1.5
1.5
1.5
1.5
1.5
1.5
1.5
1.5
1.5
1.5
1.5
1.5
1.5
1.5
1.5
1.5
1.5
1.5
1.5
1.5
1.5
1.5
1.5
1.5
1.5
1.5
1.5
1.5
1.5
1.5
1.5
1.5
1.5
1.5
1.5
1.5
1.5
1.5
1.5
1.5
1.5
1.5
1.5
1.5
1.5
1.5
1.5
1.5
1.5
1.5
1.5
1.5
1.5
1.5
1.5
1.5
1.5
1.5
1.5
1.5
1.5
1.5
1.5
1.5
1.5
1.5
1.5
1.5
1.5
1.5
1.5
1.5
1.5
1.5
1.5
1.5
1.5
1.5
1.5
1.5
1.5
1.5
1.5
1.5
1.5
1.5
1.5
1.5
1.5
1.5
1.5
1.5
1.5
1.5
1.5
1.5
1.5
1.5
1.5
1.5
1.5
1.5
1.5
1.5
1.5
1.5
1.5
1.5
1.5
1.5
1.5
1.5
1.5
1.5
