# vtk DataFile Version 2.0
Vessel Segment
ASCII
DATASET POLYDATA
POINTS 600 float
4.033832737004029 28.270074704640805 -9.36217359843415
3.9290441569778465 28.115151457405247 -9.313873305336134
3.8242555769516646 27.960228210169696 -9.265573012238118
3.7194669969254828 27.805304962934137 -9.2172727191401
3.6146784168993005 27.650381715698586 -9.168972426042084
3.5098898368731177 27.49545846846303 -9.120672132944067
3.4051012568469354 27.340535221227476 -9.07237183984605
3.300312676820753 27.185611973991918 -9.024071546748033
3.1955240967945713 27.030688726756367 -8.975771253650015
3.0907355167683894 26.875765479520812 -8.927470960551998
2.9859469367422076 26.720842232285257 -8.87917066745398
2.8811583567160257 26.565918985049702 -8.830870374355964
2.7763697766898434 26.410995737814147 -8.782570081257948
2.6715811966636616 26.256072490578596 -8.734269788159931
2.5667926166374793 26.101149243343038 -8.685969495061915
2.4620040366112974 25.946225996107483 -8.637669201963897
2.3572154565851156 25.791302748871928 -8.58936890886588
2.252426876558933 25.636379501636373 -8.541068615767863
2.14763829653275 25.48145625440082 -8.492768322669846
2.0428497165065678 25.326533007165267 -8.444468029571828
1.9380611364803855 25.17160975992971 -8.396167736473812
1.8332725564542034 25.016686512694157 -8.347867443375794
1.728483976428021 24.8617632654586 -8.299567150277777
1.623695396401839 24.706840018223048 -8.25126685717976
1.5189068163756567 24.55191677098749 -8.202966564081743
1.4141182363494749 24.396993523751938 -8.154666270983727
1.3093296563232928 24.242070276516383 -8.10636597788571
1.204541076297111 24.08714702928083 -8.058065684787694
1.0997524962709286 23.932223782045273 -8.009765391689676
0.9949639162447466 23.77730053480972 -7.96146509859166
0.8901753362185646 23.62237728757416 -7.913164805493643
0.7853867561923822 23.46745404033861 -7.864864512395626
0.6805981761662002 23.31253079310305 -7.816564219297609
0.5758095961400181 23.1576075458675 -7.768263926199593
0.4710210161138356 23.002684298631944 -7.7199636331015755
0.36623243608765366 22.84776105139639 -7.671663340003558
0.26144385606147175 22.692837804160835 -7.623363046905541
0.15665527603528934 22.53791455692528 -7.575062753807524
0.051866696009107524 22.382991309689725 -7.526762460709508
-0.052921884017074254 22.22806806245417 -7.4784621676114895
-0.15771046404325603 22.073144815218615 -7.430161874513473
-0.2624990440694386 21.91822156798306 -7.381861581415457
-0.3672876240956212 21.763298320747502 -7.333561288317439
-0.4720762041218034 21.60837507351195 -7.2852609952194225
-0.5768647841479857 21.453451826276396 -7.236960702121406
-0.681653364174168 21.29852857904084 -7.188660409023388
-0.7864419442003503 21.143605331805286 -7.140360115925372
-0.8912305242265326 20.98868208456973 -7.092059822827354
-0.9960191042527157 20.83375883733418 -7.043759529729337
-1.1008076842788976 20.678835590098622 -6.99545923663132
-1.2055962643050797 20.523912342863067 -6.947158943533304
-1.3103848443312618 20.368989095627512 -6.898858650435287
-1.4151734243574436 20.214065848391957 -6.850558357337269
-1.5199620043836257 20.059142601156402 -6.802258064239251
-1.624750584409808 19.90421935392085 -6.753957771141236
-1.7295391644359908 19.749296106685293 -6.705657478043219
-1.8343277444621726 19.594372859449734 -6.657357184945202
-1.9391163244883551 19.439449612214183 -6.609056891847185
-2.043904904514537 19.28452636497863 -6.560756598749167
-2.148693484540719 19.12960311774307 -6.51245630565115
-2.253482064566901 18.97467987050752 -6.464156012553133
-2.358270644593084 18.81975662327196 -6.4158557194551165
-2.463059224619266 18.66483337603641 -6.3675554263571
-2.567847804645448 18.50991012880085 -6.319255133259082
-2.6726363846716303 18.354986881565296 -6.270954840161066
-2.7774249646978117 18.200063634329744 -6.222654547063049
-2.882835813384128 18.04613956993786 -6.172814714541866
-2.9926710465249546 17.899319782723918 -6.112028622426814
-3.102506279665781 17.75249999550997 -6.05124253031176
-3.2123415128066077 17.60568020829603 -5.990456438196708
-3.3225819659361426 17.45973036327692 -5.9284204779508825
-3.4347810178334717 17.31798531505541 -5.8603433789432895
-3.5469800697308003 17.1762402668339 -5.792266279935698
-3.6591791216281284 17.034495218612395 -5.724189180928105
-3.77143480346454 16.8929626555003 -5.655774332821361
-3.8841720900687307 16.753237154932076 -5.584487124632576
-3.9969093766729227 16.613511654363855 -5.513199916443792
-4.109646663277114 16.473786153795636 -5.441912708255008
-4.22236184776123 16.33403541956898 -5.370640408327396
-4.334157121132643 16.19323443664548 -5.299988604310414
-4.445952394504055 16.05243345372198 -5.229336800293432
-4.557747667875469 15.911632470798478 -5.158684996276451
-4.669471001886225 15.770703943012656 -5.088184154293929
-4.778827408245199 15.625578971739998 -5.0226502206974475
-4.888183814604174 15.48045400046734 -4.957116287100966
-4.997540220963148 15.335329029194686 -4.891582353504486
-5.105960334241614 15.188542897693562 -4.828500990642062
-5.211040320339048 15.03583075162857 -4.77416891616249
-5.316120306436483 14.883118605563574 -4.719836841682918
-5.421200292533915 14.730406459498582 -4.6655047672033465
-5.521713089086678 14.571090454350697 -4.624131858124999
-5.61989428427313 14.408403105248286 -4.589374747988256
-5.718075479459579 14.245715756145879 -4.554617637851513
-5.812279969810179 14.079485991696103 -4.530972663799951
-5.89996658393618 13.907450157718081 -4.525540640063712
-5.987653198062185 13.735414323740061 -4.520108616327474
-6.070964733563674 13.562171592729065 -4.526050073560558
-6.144775915145136 13.386308120482925 -4.556688708555375
-6.218587096726599 13.21044464823678 -4.587327343550192
-6.287516919234608 13.035956887797626 -4.629741975202277
-6.346990196714836 12.864134262303931 -4.694969975213627
-6.406463474195062 12.692311636810238 -4.760197975224974
-6.462693732813081 12.52299769227849 -4.8330434659201975
-6.511155927052157 12.359692838673016 -4.9241352760333825
-6.559618121291233 12.196387985067545 -5.015227086146566
-6.607695305129164 12.033566427669395 -5.107274055852845
-6.649864798605467 11.87816068121384 -5.213977219535135
-6.69203429208177 11.722754934758282 -5.320680383217426
-6.734203785558072 11.567349188302725 -5.427383546899716
-6.774744126008912 11.414668333485752 -5.5384723713222
-6.814223614466087 11.263761840366007 -5.652416996806368
-6.853703102923262 11.112855347246263 -5.7663616222905345
-6.893182591380438 10.96194885412652 -5.880306247774703
-6.931452394076717 10.811572473964706 -5.995358563092151
-6.9696779908841915 10.661215465870601 -6.110451357032385
-7.007903587691665 10.5108584577765 -6.225544150972618
-7.045670259686904 10.359893840885357 -6.339975249562602
-7.081784598583483 10.20674156253069 -6.452023951081651
-7.117898937480062 10.053589284176025 -6.564072652600698
-7.154013276376641 9.900437005821358 -6.676121354119748
-7.187809154707863 9.745049724347144 -6.785701178065407
-7.218835288949963 9.586992401047743 -6.892331562556352
-7.249861423192064 9.42893507774834 -6.998961947047299
-7.280887557434163 9.270877754448943 -7.105592331538242
-7.304382213074214 9.108798182117892 -7.207888522789484
-7.325537423180752 8.94546920936643 -7.308838416779354
-7.346692633287292 8.782140236614964 -7.409788310769226
-7.3647005060210775 8.618143940880604 -7.510048062969911
-7.370008118135004 8.451454836973262 -7.607522927645293
-7.375315730248931 8.284765733065925 -7.7049977923206745
-7.380623342362857 8.118076629158589 -7.802472656996055
-7.368890315688704 7.952399605148891 -7.900700614487504
-7.352517077906214 7.786998173177849 -7.999133641148845
-7.336143840123723 7.621596741206803 -8.097566667810188
-7.307187392068393 7.460365221740252 -8.199046076837377
-7.265809450492595 7.303250023946179 -8.303532716769695
-7.2244315089167985 7.146134826152105 -8.408019356702015
-7.17659717324823 6.993160742873999 -8.515047086606032
-7.111888008297324 6.851010131566688 -8.62871636577847
-7.04717884334642 6.708859520259379 -8.742385644950906
-6.982469678395514 6.566708908952068 -8.856054924123343
-6.900781171054353 6.4417522062270915 -8.978629787406007
-6.8190161060372905 6.316873028629446 -9.10124480482458
-6.737251041020226 6.191993851031797 -9.223859822243153
-6.650021770510086 6.074920286445458 -9.35002987272555
-6.558527233610816 5.963939651355613 -9.478974921889563
-6.467032696711547 5.852959016265769 -9.607919971053576
-6.375538159812277 5.741978381175924 -9.736865020217591
-6.280081098655202 5.6375320627589405 -9.86835734144946
-6.184412569334752 5.533434461436377 -9.999985603034183
-6.088744040014298 5.429336860113811 -10.131613864618911
-5.992873752080581 5.324918576461192 -10.26283685768114
-5.896339182231997 5.219444459459869 -10.392725520843893
-5.799804612383414 5.113970342458546 -10.522614184006645
-5.703270042534831 5.008496225457222 -10.652502847169398
-5.6073592883862675 4.897147383452939 -10.777704507862657
-5.511907971468121 4.781471835043694 -10.899454214022786
-5.416456654549972 4.665796286634447 -11.021203920182918
-5.321591119928896 4.546473507741235 -11.139358153326539
-5.229303881581518 4.411097596458804 -11.24168706240864
-5.137016643234141 4.275721685176376 -11.34401597149074
-5.046790807784217 4.133532341626978 -11.43610521382208
-4.962872037666351 3.9704966305400244 -11.496865186530627
-4.878953267548486 3.8074609194530744 -11.557625159239173
-4.814191591506997 3.6281533757226674 -11.552696487119242
-4.75309040572603 3.4457366503661406 -11.535216190850955
-4.72529836846167 3.2839090308289682 -11.441535081281284
-4.704667601819039 3.1265079476999067 -11.331471245945599
-4.712312626852387 3.0129725900443143 -11.179196048724828
-4.727352549527153 2.9109093267357253 -11.015881418761667
-4.750376467746336 2.826637981544107 -10.84577462007285
-4.787380640590998 2.773520905435821 -10.663774497080983
-4.8243848134356595 2.720403829327534 -10.481774374089106
-4.8674861859797245 2.6830850490105416 -10.298305969256486
-4.91910711645105 2.6678410739781993 -10.11278594846694
[...]
POINT_DATA 600
SCALARS MaximumInscribedSphereRadius float
LOOKUP_TABLE default
1.5
1.5
1.5
1.5
1.5
1.5
1.5
1.5
1.5
1.5
1.5
1.5
1.5
1.5
1.5
1.5
1.5
1.5
1.5
1.5
1.5
1.5
1.5
1.5
1.5
1.5
1.5
1.5
1.5
1.5
1.5
1.5
1.5
1.5
1.5
1.5
1.5
1.5
1.5
1.5
1.5
1.5
1.5
1.5
1.5
1.5
1.5
1.5
1.5
1.5
1.5
1.5
1.5
1.5
1.5
1.5
1.5
1.5
1.5
1.5
1.5
1.5
1.5
1.5
1.5
1.5
1.5
1.5
1.5
1.5
1.5
1.5
1.5
1.5
1.5
1.5
1.5
1.5
1.5
1.5
1.5
1.5
1.5
1.5
1.5
1.5
1.5
1.5
1.5
1.5
1.5
1.5
1.5
1.5
1.5
1.5
1.5
1.5
1.5
1.5
1.5
1.5
1.5
1.5
1.5
1.5
1.5
1.5
1.5
1.5
1.5
1.5
1.5
1.5
1.5
1.5
1.5
1.5
1.5
1.5
1.5
1.5
1.5
1.5
1.5
1.5
1.5
1.5
1.5
1.5
1.5
1.5
1.5
1.5
1.5
1.5
1.5
1.5
1.5
1.5
1.5
1.5
1.5
1.5
1.5
1.5
1.5
1.5
1.5
1.5
1.5
1.5
1.5
1.5
1.5
1.5
1.5
1.5
1.5
1.5
1.5
1.5
1.5
1.5
1.5
1.5
1.5
1.5
1.5
1.5
1.5
1.5
1.5
1.5
1.5
1.5
1.5
1.5
1.5
1.5
1.5
1.5
1.5
1.5
1.5
1.5
1.5
1.5
1.5
1.5
1.5
1.5
1.5
1.5
1.5
1.5
1.5
1.5
1.5
1.5
1.5
1.5
1.5
1.5
1.5
1.5
1.5
1.5
1.5
1.5
1.5
1.5
1.5
1.5
1.5
1.5
1.5
1.5
1.5
1.5
1.5
1.5
1.5
1.5
1.5
1.5
1.5
1.5
1.5
1.5
1.5
1.5
1.5
1.5
1.5
1.5
1.5
1.5
1.5
1.5
1.5
1.5
1.5
1.5
1.5
1.5
1.5
1.5
1.5
1.5
1.5
1.5
1.5
1.5
1.5
1.5
1.5
1.5
1.5
1.5
1.5
1.5
1.5
1.5
1.5
1.5
1.5
1.5
1.5
1.5
1.5
1.5
1.5
1.5
1.5
1.5
1.5
1.5
1.5
1.5
1.5
1.5
1.5
1.5
1.5
1.5
1.5
1.5
1.5
1.5
1.5
1.5
1.5
1.5
1.5
1.5
1.5
1.5
1.5
1.5
1.5
1.5
1.5
1.5
1.5
1.5
1.5
1.5
1.5
1.5
1.5
1.5
1.5
1.5
1.5
1.5
1.5
1.5
1.5
1.5
1.5
1.5
1.5
1.5
1.5
1.5
1.5
1.5
1.5
1.5
1.5
1.5
1.5
1.5
1.5
1.5
1.5
1.5
1.5
1.5
1.5
1.5
1.5
1.5
1.5
1.5
1.5
1.5
1.5
1.5
1.5
1.5
1.5
1.5
1.5
1.5
1.5
1.5
1.5
1.5
1.5
1.5
1.5
1.5
1.5
1.5
1.5
1.5
1.5
1.5
1.5
1.5
1.5
1.5
1.5
1.5
1.5
1.5
1.5
1.5
1.5
1.5
1.5
1.5
1.5
1.5
1.5
1.5
1.5
1.5
1.5
1.5
1.5
1.5
1.5
1.5
1.5
1.5
1.5
1.5
1.5
1.5
1.5
1.5
1.5
1.5
1.5
1.5
1.5
1.5
1.5
1.5
1.5
1.5
1.5
1.5
1.5
1.5
1.5
1.5
1.5
1.5
1.5
1.5
1.5
1.5
1.5
1.5
1.5
1.5
1.5
1.5
1.5
1.5
1.5
1.5
1.5
1.5
1.5
1.5
1.5
1.5
1.5
1.5
1.5
1.5
1.5
1.5
1.5
1.5
1.5
1.5
1.5
1.5
1.5
1.5
1.5
1.5
1.5
1.5
1.5
1.5
1.5
1.5
1.5
1.5
1.5
1.5
1.5
1.5
1.5
1.5
1.5
1.5
1.5
1.5
1.5
1.5
1.5
1.5
1.5
1.5
1.5
1.5
1.5
1.5
1.5
1.5
1.5
1.5
1.5
1.5
1.5
1.5
1.5
1.5
1.5
1.5
1.5
1.5
1.5
1.5
1.5
1.5
1.5
1.5
1.5
1.5
1.5
1.5
1.5
1.5
1.5
1.5
1.5
1.5
1.5
1.5
1.5
1.5
1.5
1.5
1.5
1.5
1.5
1.5
1.5
1.5
1.5
1.5
1.5
1.5
1.5
1.5
1.5
1.5
1.5
1.5
1.5
1.5
1.5
1.5
1.5
1.5
1.5
1.5
1.5
1.5
1.5
1.5
1.5
1.5
1.5
1.5
1.5
1.5
1.5
1.5
1.5
1.5
1.5
1.5
1.5
1.5
1.5
1.5
1.5
1.5
1.5
1.5
1.5
1.5
1.5
1.5
1.5
1.5
1.5
1.5
1.5
1.5
1.5
1.5
1.5
1.5
1.5
1.5
1.5
1.5
1.5
1.5
1.5
1.5
1.5
1.5
1.5
1.5
1.5
1.5
1.5
1.5
