# vtk DataFile Version 2.0
Vessel Segment
ASCII
DATASET POLYDATA
POINTS 600 float
1.4956108301525086 26.814662143732846 -17.743697223867844
1.4127267749218786 26.6809028520631 -17.648646332289953
1.3298427196912483 26.54714356039335 -17.553595440712062
1.246958664460618 26.4133842687236 -17.458544549134167
1.164074609229988 26.279624977053857 -17.36349365755628
1.0811905539993578 26.14586568538411 -17.268442765978385
0.9983064987687278 26.01210639371436 -17.173391874400494
0.9154224435380979 25.878347102044614 -17.078340982822603
0.8325383883074677 25.744587810374863 -16.98329009124471
0.7496543330768379 25.610828518705116 -16.888239199666817
0.666770277846208 25.47706922703537 -16.79318830808893
0.5838862226155777 25.34330993536562 -16.698137416511035
0.5010021673849476 25.20955064369587 -16.603086524933143
0.4181181121543174 25.075791352026126 -16.508035633355252
0.33523405692368724 24.94203206035638 -16.41298474177736
0.2523500016930572 24.808272768686628 -16.31793385019947
0.16946594646242705 24.67451347701688 -16.222882958621575
0.08658189123179696 24.540754185347133 -16.127832067043684
0.0036978360011668404 24.406994893677386 -16.032781175465793
-0.07918621922946327 24.273235602007638 -15.937730283887904
-0.16207027446009337 24.139476310337887 -15.842679392310012
-0.24495432969072348 24.00571701866814 -15.74762850073212
-0.32783838492135375 23.871957726998396 -15.652577609154228
-0.4107224401519839 23.738198435328645 -15.557526717576337
-0.49360649538261403 23.6044391436589 -15.462475825998446
-0.5764905506132442 23.47067985198915 -15.367424934420553
-0.6593746058438743 23.336920560319403 -15.272374042842662
-0.7422586610745041 23.203161268649655 -15.177323151264769
-0.825142716305134 23.069401976979908 -15.082272259686878
-0.9080267715357638 22.93564268531016 -14.987221368108987
-0.9909108267663939 22.801883393640413 -14.892170476531096
-1.0737948819970238 22.668124101970662 -14.797119584953203
-1.156678937227654 22.534364810300914 -14.702068693375312
-1.2395629924582843 22.400605518631167 -14.60701780179742
-1.3224470476889145 22.26684622696142 -14.51196691021953
-1.4053311029195448 22.133086935291672 -14.416916018641636
-1.488215158150175 21.999327643621925 -14.321865127063745
-1.571099213380805 21.865568351952177 -14.226814235485854
-1.653983268611435 21.73180906028243 -14.131763343907963
-1.7368673238420653 21.598049768612682 -14.036712452330072
-1.8197513790726951 21.46429047694293 -13.941661560752179
-1.9026354343033254 21.330531185273184 -13.84661066917429
-1.9855194895339556 21.196771893603437 -13.751559777596396
-2.0684035447645854 21.06301260193369 -13.656508886018505
-2.1512875999952152 20.929253310263938 -13.561457994440612
-2.2341716552258446 20.795494018594194 -13.466407102862723
-2.317055710456475 20.661734726924443 -13.37135621128483
-2.3999397656871047 20.527975435254696 -13.276305319706939
-2.482823820917735 20.39421614358495 -13.181254428129048
-2.5657078761483647 20.2604568519152 -13.086203536551157
-2.648591931378995 20.126697560245454 -12.991152644973264
-2.7314759866096248 19.992938268575706 -12.896101753395374
-2.8143600418402555 19.85917897690596 -12.80105086181748
-2.8972440970708853 19.72541968523621 -12.70599997023959
-2.980128152301516 19.591660393566464 -12.610949078661697
-3.0630122075321453 19.457901101896717 -12.515898187083806
-3.1458962627627756 19.324141810226966 -12.420847295505913
-3.228780317993406 19.19038251855722 -12.325796403928024
-3.311664373224036 19.05662322688747 -12.230745512350131
-3.394548428454666 18.922863935217723 -12.135694620772242
-3.4774324836852966 18.789104643547976 -12.040643729194349
-3.5603165389159264 18.65534535187823 -11.945592837616456
-3.643200594146556 18.521586060208477 -11.850541946038565
-3.726084649377186 18.38782676853873 -11.755491054460673
-3.8089687046078167 18.254067476868983 -11.66044016288278
-3.8918527598384474 18.120308185199235 -11.56538927130489
-3.9747368150690767 17.986548893529488 -11.470338379726996
-4.057620870299707 17.85278960185974 -11.375287488149105
-4.140561567731523 17.721372360835268 -11.27767102063523
-4.2240529931052135 17.612726705388553 -11.155109647638508
-4.307544418478902 17.504081049941835 -11.032548274641783
-4.3911227753862345 17.397023364472243 -10.908810428625099
-4.475550664938568 17.305484010249586 -10.773575578074453
-4.559978554490904 17.213944656026925 -10.638340727523804
-4.644406444043238 17.122405301804264 -10.503105876973157
-4.730863272848019 17.03849998262134 -10.364342405878409
-4.818019489563002 16.95722616253649 -10.224362597456034
-4.905175706277987 16.87595234245164 -10.084382789033658
-4.992973241168729 16.795351175234376 -9.944435397686858
-5.0850415806988964 16.719229483410466 -9.804703885137819
-5.177109920229063 16.64310779158655 -9.664972372588782
-5.269178259759231 16.566986099762637 -9.525240860039743
-5.363864019066843 16.491300806995945 -9.387090476058251
-5.463158871465982 16.416383982434883 -9.251724348855248
-5.562453723865119 16.341467157873822 -9.116358221652249
-5.661748576264258 16.266550333312757 -8.980992094449245
-5.766233528699028 16.190497441113365 -8.850405358122893
-5.874981030690561 16.113511513986907 -8.723743862220232
-5.983728532682095 16.036525586860446 -8.59708236631757
-6.092476034673626 15.959539659733988 -8.47042087041491
-6.209979989873736 15.878654901542316 -8.354707792219523
-6.329838912274526 15.796721588752009 -8.24193918982796
-6.449697834675316 15.714788275961702 -8.129170587436395
-6.5712517220413975 15.631740512699004 -8.019402595256086
-6.702456605616613 15.542347156751747 -7.926719839860484
-6.833661489191828 15.452953800804494 -7.834037084464883
-6.964866372767043 15.363560444857239 -7.7413543290692814
-7.102142874747942 15.267901865161967 -7.666491921141933
-7.242445370071167 15.169120802450974 -7.600510877159726
-7.382747865394393 15.070339739739982 -7.534529833177519
-7.524307219491081 14.96805518958854 -7.47944247100776
-7.668334166151464 14.85889223771241 -7.445742689367572
-7.812361112811846 14.749729285836287 -7.412042907727386
-7.9558665404384605 14.639309256355059 -7.3826439536412005
-8.09564823954385 14.519913493624596 -7.38395358963653
-8.235429938649242 14.400517730894133 -7.385263225631858
-8.37521163775463 14.281121968163674 -7.386572861627187
-8.50228859497203 14.152934210481453 -7.420843511050387
-8.628973855255314 14.024475388853363 -7.456130373791339
-8.755659115538595 13.896016567225272 -7.491417236532291
-8.864974369935165 13.761678246160983 -7.551426851875814
-8.970655701745835 13.626109894091844 -7.61660863409447
-9.076337033556506 13.490541542022706 -7.6817904163131265
-9.164400569837634 13.352074967187157 -7.762819150512113
-9.243123624766065 13.212071832589626 -7.8522495124414835
-9.321846679694499 13.072068697992089 -7.941679874370857
-9.387646991122121 12.931654837975092 -8.038838292918223
-9.435762644887175 12.79067890393441 -8.14657248708766
-9.483878298652227 12.64970296989373 -8.254306681257097
-9.528436785918553 12.509077455222064 -8.363472837512838
-9.544746923920911 12.371234708443993 -8.484010563010871
-9.561057061923272 12.23339196166592 -8.604548288508905
-9.57736719992563 12.095549214887848 -8.725086014006937
-9.572289103999216 11.962849430092845 -8.85134253986439
-9.558092166709272 11.832342339403322 -8.98003726765291
-9.54389522941933 11.701835248713799 -9.108731995441433
-9.525215509375023 11.573122681582044 -9.23819355074732
-9.48406240323551 11.45340653988075 -9.371499417011504
-9.442909297095998 11.333690398179456 -9.50480528327569
-9.401756190956483 11.213974256478162 -9.638111149539874
-9.3500096025326 11.100426930677413 -9.772515608276425
-9.287023326452553 10.993424720266418 -9.908085673932334
-9.224037050372507 10.88642250985542 -10.043655739588246
-9.161050774292459 10.779420299444423 -10.179225805244156
-9.087647906650629 10.680641070097485 -10.315438464628121
-9.008534420386479 10.58636987089811 -10.452003408892239
-8.929420934122327 10.492098671698736 -10.588568353156361
-8.850307447858174 10.397827472499362 -10.725133297420484
-8.764107077177075 10.31078739251933 -10.862012996438596
-8.674214827831628 10.227514329636604 -10.999056665445824
-8.58432257848618 10.144241266753873 -11.136100334453058
-8.49443032914073 10.060968203871145 -11.273144003460292
-8.40099885924757 9.982135790034683 -11.410353721779806
-8.304771933084794 9.906810826511144 -11.547694594285622
-8.208545006922016 9.831485862987602 -11.68503546679144
-8.112318080759238 9.756160899464062 -11.82237633929726
-8.014843518691201 9.682513276243974 -11.959725238527321
-7.915654883552985 9.611170078402763 -12.097085165327046
-7.816466248414766 9.53982688056155 -12.234445092126771
-7.717277613276549 9.468483682720338 -12.371805018926498
-7.617887190520525 9.39689494458093 -12.508889847312897
-7.518116494386662 9.324843480137478 -12.64545624645169
-7.4183457982527985 9.252792015694023 -12.782022645590486
-7.318575102118935 9.180740551250569 -12.91858904472928
-7.2192747538878415 9.105845671550298 -13.053920161949037
-7.12053282747169 9.027574939424667 -13.18778468738189
-7.021790901055536 8.949304207299033 -13.321649212814744
-6.923048974639381 8.8710334751734 -13.4555137382476
-6.826317838250828 8.781328289633684 -13.583455685200832
-6.729857919669206 8.690080811096774 -13.710598787558375
-6.63339800108758 8.598833332559861 -13.837741889915922
-6.539946602651399 8.491849212011893 -13.953841583581767
-6.447592318364302 8.379126425350758 -14.065914088017003
-6.355987678986468 8.26387646476772 -14.175303925572504
-6.272644435217607 8.120776006857735 -14.255129669372705
-6.189301191448745 7.977675548947749 -14.334955413172906
-6.125295094532628 7.808215516026625 -14.359503265834505
-6.065332246192497 7.636267572172676 -14.37403258373222
-6.037941460555318 7.463457425652615 -14.31761995366491
-6.017635595554285 7.296343017237367 -14.249423868523245
-6.023103266300527 7.149948574110454 -14.138361911456972
-6.030373087087171 7.0059071718791 -14.025068113909697
-6.058553695181679 6.889168678168473 -13.885877725869374
[...]
POINT_DATA 600
SCALARS MaximumInscribedSphereRadius float
LOOKUP_TABLE default
1.5
1.5
1.5
1.5
1.5
1.5
1.5
1.5
1.5
1.5
1.5
1.5
1.5
1.5
1.5
1.5
1.5
1.5
1.5
1.5
1.5
1.5
1.5
1.5
1.5
1.5
1.5
1.5
1.5
1.5
1.5
1.5
1.5
1.5
1.5
1.5
1.5
1.5
1.5
1.5
1.5
1.5
1.5
1.5
1.5
1.5
1.5
1.5
1.5
1.5
1.5
1.5
1.5
1.5
1.5
1.5
1.5
1.5
1.5
1.5
1.5
1.5
1.5
1.5
1.5
1.5
1.5
1.5
1.5
1.5
1.5
1.5
1.5
1.5
1.5
1.5
1.5
1.5
1.5
1.5
1.5
1.5
1.5
1.5
1.5
1.5
1.5
1.5
1.5
1.5
1.5
1.5
1.5
1.5
1.5
1.5
1.5
1.5
1.5
1.5
1.5
1.5
1.5
1.5
1.5
1.5
1.5
1.5
1.5
1.5
1.5
1.5
1.5
1.5
1.5
1.5
1.5
1.5
1.5
1.5
1.5
1.5
1.5
1.5
1.5
1.5
1.5
1.5
1.5
1.5
1.5
1.5
1.5
1.5
1.5
1.5
1.5
1.5
1.5
1.5
1.5
1.5
1.5
1.5
1.5
1.5
1.5
1.5
1.5
1.5
1.5
1.5
1.5
1.5
1.5
1.5
1.5
1.5
1.5
1.5
1.5
1.5
1.5
1.5
1.5
1.5
1.5
1.5
1.5
1.5
1.5
1.5
1.5
1.5
1.5
1.5
1.5
1.5
1.5
1.5
1.5
1.5
1.5
1.5
1.5
1.5
1.5
1.5
1.5
1.5
1.5
1.5
1.5
1.5
1.5
1.5
1.5
1.5
1.5
1.5
1.5
1.5
1.5
1.5
1.5
1.5
1.5
1.5
1.5
1.5
1.5
1.5
1.5
1.5
1.5
1.5
1.5
1.5
1.5
1.5
1.5
1.5
1.5
1.5
1.5
1.5
1.5
1.5
1.5
1.5
1.5
1.5
1.5
1.5
1.5
1.5
1.5
1.5
1.5
1.5
1.5
1.5
1.5
1.5
1.5
1.5
1.5
1.5
1.5
1.5
1.5
1.5
1.5
1.5
1.5
1.5
1.5
1.5
1.5
1.5
1.5
1.5
1.5
1.5
1.5
1.5
1.5
1.5
1.5
1.5
1.5
1.5
1.5
1.5
1.5
1.5
1.5
1.5
1.5
1.5
1.5
1.5
1.5
1.5
1.5
1.5
1.5
1.5
1.5
1.5
1.5
1.5
1.5
1.5
1.5
1.5
1.5
1.5
1.5
1.5
1.5
1.5
1.5
1.5
1.5
1.5
1.5
1.5
1.5
1.5
1.5
1.5
1.5
1.5
1.5
1.5
1.5
1.5
1.5
1.5
1.5
1.5
1.5
1.5
1.5
1.5
1.5
1.5
1.5
1.5
1.5
1.5
1.5
1.5
1.5
1.5
1.5
1.5
1.5
1.5
1.5
1.5
1.5
1.5
1.5
1.5
1.5
1.5
1.5
1.5
1.5
1.5
1.5
1.5
1.5
1.5
1.5
1.5
1.5
1.5
1.5
1.5
1.5
1.5
1.5
1.5
1.5
1.5
1.5
1.5
1.5
1.5
1.5
1.5
1.5
1.5
1.5
1.5
1.5
1.5
1.5
1.5
1.5
1.5
1.5
1.5
1.5
1.5
1.5
1.5
1.5
1.5
1.5
1.5
1.5
1.5
1.5
1.5
1.5
1.5
1.5
1.5
1.5
1.5
1.5
1.5
1.5
1.5
1.5
1.5
1.5
1.5
1.5
1.5
1.5
1.5
1.5
1.5
1.5
1.5
1.5
1.5
1.5
1.5
1.5
1.5
1.5
1.5
1.5
1.5
1.5
1.5
1.5
1.5
1.5
1.5
1.5
1.5
1.5
1.5
1.5
1.5
1.5
1.5
1.5
1.5
1.5
1.5
1.5
1.5
1.5
1.5
1.5
1.5
1.5
1.5
1.5
1.5
1.5
1.5
1.5
1.5
1.5
1.5
1.5
1.5
1.5
1.5
1.5
1.5
1.5
1.5
1.5
1.5
1.5
1.5
1.5
1.5
1.5
1.5
1.5
1.5
1.5
1.5
1.5
1.5
1.5
1.5
1.5
1.5
1.5
1.5
1.5
1.5
1.5
1.5
1.5
1.5
1.5
1.5
1.5
1.5
1.5
1.5
1.5
1.5
1.5
1.5
1.5
1.5
1.5
1.5
1.5
1.5
1.5
1.5
1.5
1.5
1.5
1.5
1.5
1.5
1.5
1.5
1.5
1.5
1.5
1.5
1.5
1.5
1.5
1.5
1.5
1.5
1.5
1.5
1.5
1.5
1.5
1.5
1.5
1.5
1.5
1.5
1.5
1.5
1.5
1.5
1.5
1.5
1.5
1.5
1.5
1.5
1.5
1.5
1.5
1.5
1.5
1.5
1.5
1.5
1.5
1.5
1.5
1.5
1.5
1.5
1.5
1.5
1.5
1.5
1.5
1.5
1.5
1.5
1.5
1.5
1.5
1.5
1.5
1.5
1.5
1.5
1.5
1.5
1.5
1.5
1.5
1.5
1.5
1.5
1.5
1.5
1.5
1.5
1.5
1.5
1.5
1.5
