# vtk DataFile Version 2.0
Vessel Segment
ASCII
DATASET POLYDATA
POINTS 600 float
4.622009554923489 21.16464034905757 8.958358101473742
4.53909088882535 21.072503342763056 8.84416459260652
4.456172222727211 20.980366336468542 8.729971083739297
4.373253556629072 20.888229330174024 8.615777574872075
4.290334890530932 20.79609232387951 8.501584066004853
4.2074162244327935 20.70395531758499 8.38739055713763
4.124497558334654 20.611818311290477 8.273197048270408
4.041578892236514 20.519681304995963 8.159003539403185
3.9586602261383756 20.42754429870145 8.044810030535963
3.875741560040237 20.335407292406934 7.930616521668741
3.7928228939420974 20.243270286112416 7.816423012801518
3.7099042278439582 20.151133279817905 7.702229503934296
3.6269855617458187 20.058996273523388 7.588035995067074
3.5440668956476795 19.966859267228877 7.473842486199851
3.46114822954954 19.87472226093436 7.359648977332628
3.3782295634514004 19.782585254639844 7.245455468465407
3.2953108973532617 19.690448248345334 7.131261959598184
3.212392231255122 19.598311242050816 7.017068450730961
3.1294735651569825 19.5061742357563 6.902874941863738
3.046554899058843 19.414037229461787 6.7886814329965155
2.963636232960704 19.32190022316727 6.674487924129293
2.8807175668625646 19.229763216872755 6.560294415262072
2.7977989007644255 19.13762621057824 6.446100906394849
2.7148802346662864 19.045489204283726 6.331907397527627
2.6319615685681472 18.95335219798921 6.2177138886604055
2.549042902470008 18.861215191694697 6.103520379793183
2.4661242363718685 18.76907818540018 5.98932687092596
2.383205570273729 18.676941179105665 5.875133362058737
2.3002869041755893 18.58480417281115 5.760939853191515
2.21736823807745 18.492667166516636 5.646746344324293
2.1344495719793106 18.40053016022212 5.53255283545707
2.0515309058811715 18.308393153927604 5.418359326589847
1.9686122397830326 18.21625614763309 5.304165817722626
1.8856935736848932 18.124119141338575 5.189972308855403
1.802774907586754 18.03198213504406 5.07577879998818
1.7198562414886143 17.939845128749546 4.961585291120958
1.6369375753904751 17.847708122455032 4.847391782253736
1.554018909292336 17.755571116160517 4.733198273386513
1.471100243194197 17.663434109866003 4.619004764519292
1.3881815770960575 17.571297103571485 4.5048112556520685
1.3052629109979186 17.47916009727697 4.390617746784846
1.2223442448997797 17.387023090982456 4.276424237917625
1.1394255788016407 17.29488608468794 4.162230729050402
1.0565069127035016 17.202749078393428 4.04803722018318
0.9735882466053618 17.11061207209891 3.933843711315957
0.8906695805072223 17.018475065804395 3.8196502024487344
0.8077509144090831 16.92633805950988 3.705456693581512
0.7248322483109438 16.834201053215367 3.5912631847142897
0.6419135822128048 16.742064046920852 3.4770696758470683
0.5589949161146652 16.649927040626338 3.362876166979845
0.47607625001652665 16.557790034331823 3.2486826581126236
0.3931575839183868 16.46565302803731 3.1344891492454003
0.31023891782024693 16.37351602174279 3.0202956403781775
0.22732025172210796 16.281379015448277 2.9061021315109556
0.14440158562396835 16.189242009153762 2.791908622643733
0.06148291952582892 16.097105002859248 2.67771511377651
-0.02143574657230963 16.004967996564734 2.563521604909288
-0.10435441267044906 15.912830990270216 2.449328096042066
-0.18727307876858784 15.820693983975701 2.335134587174844
-0.27019174486672753 15.728556977681187 2.2209410783076207
-0.35311041096486717 15.636419971386673 2.106747569440398
-0.43602907706300587 15.544282965092158 1.9925540605731766
-0.5189477431611453 15.452145958797644 1.878360551705954
-0.6018664092592838 15.360008952503128 1.7641670428387326
-0.6847850753574232 15.267871946208611 1.64997353397151
-0.7677037414555627 15.175734939914097 1.5357800251042872
-0.8506224075537014 15.083597933619583 1.4215865162370656
-0.9335410736518412 14.991460927325067 1.3073930073698425
-1.01645973974998 14.899323921030552 1.1931994985026209
-1.0993784058481197 14.807186914736036 1.079005989635398
-1.1822970719462593 14.715049908441522 0.964812480768175
-1.2652157380443982 14.622912902147007 0.8506189719009534
-1.3481344041425376 14.530775895852493 0.7364254630337306
-1.4310530702406763 14.438638889557978 0.6222319541665091
-1.5139717363388159 14.346501883263462 0.5080384452992865
-1.5967715758671401 14.24949362848966 0.39853953871413206
-1.6791860801311584 14.136688706159255 0.30426446476154523
-1.761600584395178 14.02388378382885 0.20998939080895734
-1.8440150886591973 13.911078861498444 0.11571431685636949
-1.9254340012106685 13.790049315815287 0.03209266678549557
-2.006114301045849 13.662918060647723 -0.043625387612666884
-2.0867946008810283 13.535786805480154 -0.11934344201082855
-2.167474900716209 13.408655550312588 -0.19506149640899098
-2.246435824423747 13.27355618614559 -0.2572034259512246
-2.325008620596112 13.13665812159174 -0.3162807160624361
-2.4035814167684775 12.99976005703789 -0.37535800617364823
-2.4821542129408423 12.862861992484039 -0.4344352962848598
-2.5587311354600026 12.719426747062922 -0.47878796335617163
-2.635307779152349 12.575990588386945 -0.5231385733735572
-2.711884422844694 12.432554429710969 -0.5674891833909422
-2.7881561130976076 12.28832190190728 -0.6093956314268577
-2.863137776854245 12.14072054088933 -0.6409626856092345
-2.9381194406108833 11.993119179871375 -0.6725297397916115
-3.0131011043675215 11.845517818853423 -0.7040967939739886
-3.0876322951585164 11.696811483168892 -0.7306932694127025
-3.161662762827391 11.546876913145983 -0.751764699183645
-3.235693230496265 11.396942343123074 -0.7728361289545872
-3.3097236981651403 11.247007773100163 -0.7939075587255298
-3.3837158993311256 11.096259756594915 -0.8081315575076163
-3.457705880877775 10.945464556746403 -0.8219583762737843
-3.531695862424425 10.794669356897893 -0.8357851950399524
-3.6064748888025924 10.644145608839224 -0.8482156961901148
-3.681573504309278 10.493731807690402 -0.8600806427453885
-3.7566721198159643 10.343318006541576 -0.8719455893006621
-3.8337987077455793 10.194592555357513 -0.8901198607324994
-3.911220838195978 10.046113152491918 -0.9092136090553393
-3.9898724793475746 9.900700863278892 -0.9397177012133497
-4.069775078777926 9.758409190431236 -0.9818311791783433
-4.148286876959927 9.626884479092933 -1.04821886442557
-4.225746940467097 9.503501827430942 -1.1329628932071836
-4.29119043918996 9.412724561250634 -1.258226234577586
-4.351677133872837 9.332708533041053 -1.3925002145181835
-4.402169386774274 9.273341136734063 -1.541935602684724
-4.450237676441285 9.21822711161092 -1.6936124459658022
-4.49404935582768 9.170582235875571 -1.8492254054175346
-4.537853361861061 9.12291501374397 -2.004833618051653
-4.58139663244163 9.074488475869178 -2.160280536967491
-4.6249399030222005 9.026061937994383 -2.315727455883332
-4.669291018558988 8.975655664924226 -2.4702704810225544
-4.7156703928383115 8.92027886479068 -2.62254409735922
-4.762049767117635 8.864902064657134 -2.7748177136958896
-4.808971513705983 8.807949998245878 -2.9262890536458395
-4.858452716604134 8.743564246251829 -3.0739744492803815
-4.907933919502285 8.679178494257782 -3.2216598449149245
-4.957415122400437 8.614792742263733 -3.3693452405494697
-5.007853405735734 8.543646575359011 -3.513502633327268
-5.058579127473916 8.470470064097277 -3.6566004667752985
-5.109304849212099 8.397293552835544 -3.7996983002233318
-5.159677649418795 8.322907493244424 -3.942261885149953
-5.2082019797677495 8.242186275753074 -4.082027277843273
-5.256726310116705 8.161465058261722 -4.221792670536596
-5.30525064046566 8.08074384077037 -4.361558063229916
-5.3505922770242 7.997341636678441 -4.5007424869719515
-5.392185093620354 7.910781561691916 -4.639242601086509
-5.433777910216507 7.824221486705392 -4.777742715201063
-5.47537072681266 7.73766141171887 -4.916242829315617
-5.507036147919141 7.648275657536538 -5.055461663368357
-5.535873704550867 7.558084995579231 -5.194885228116336
-5.564711261182592 7.467894333621924 -5.334308792864313
-5.589601317375205 7.377590061341907 -5.474201660506235
-5.599391232657697 7.2868512021864085 -5.615889724865022
-5.609181147940189 7.196112343030913 -5.757577789223807
-5.6189710632226815 7.105373483875418 -5.89926585358259
-5.609777596223789 7.017431265590769 -6.042393008467891
-5.595397908920275 6.930253083738311 -6.1859133198728316
-5.581018221616762 6.843074901885853 -6.329433631277771
-5.554062496794332 6.759698541359593 -6.472774324953269
-5.513986974149811 6.68028838458236 -6.61592763462232
-5.473911451505291 6.600878227805129 -6.7590809442913695
-5.428305816894872 6.523957111098213 -6.901538864201047
-5.365795731326425 6.454644494193948 -7.041871116103194
-5.3032856457579785 6.385331877289683 -7.182203368005338
-5.240775560189533 6.316019260385421 -7.322535619907482
-5.162559998636005 6.2558135119449725 -7.4591118459321635
-5.083914045633469 6.195857327307483 -7.595585142162072
-5.005268092630933 6.135901142669993 -7.732058438391982
-4.920752053495242 6.079664450188742 -7.8664697279363756
-4.832552785502917 6.02576158050517 -7.999587196171435
-4.744353517510591 5.971858710821599 -8.132704664406496
-4.655486559726259 5.918181774980468 -8.265456054980673
-4.563011360458445 5.8657258011378115 -8.396229136738413
-4.4705361611906325 5.813269827295157 -8.527002218496147
-4.37806096192282 5.760813853452501 -8.657775300253881
-4.2851538338211865 5.706276435617124 -8.787371395808272
-4.191977625352383 5.650442332610583 -8.91623425973986
-4.098801416883578 5.594608229604041 -9.045097123671447
-4.005655779679887 5.538581413277917 -9.17389204197634
-3.9136886930638033 5.475125319976314 -9.30006759343567
-3.8217216064477193 5.411669226674712 -9.426243144895002
-3.7297545198316353 5.348213133373109 -9.552418696354334
-3.638489807743929 5.280265741805625 -9.676613797121835
-3.5482069816924504 5.20603972982466 -9.79804032243397
-3.4579241556409723 5.131813717843694 -9.919466847746103
-3.367641329589492 5.057587705862727 -10.040893373058239
-3.278253073303806 4.972785031674855 -10.155742076565815
[...]
POINT_DATA 600
SCALARS MaximumInscribedSphereRadius float
LOOKUP_TABLE default
1.5
1.5
1.5
1.5
1.5
1.5
1.5
1.5
1.5
1.5
1.5
1.5
1.5
1.5
1.5
1.5
1.5
1.5
1.5
1.5
1.5
1.5
1.5
1.5
1.5
1.5
1.5
1.5
1.5
1.5
1.5
1.5
1.5
1.5
1.5
1.5
1.5
1.5
1.5
1.5
1.5
1.5
1.5
1.5
1.5
1.5
1.5
1.5
1.5
1.5
1.5
1.5
1.5
1.5
1.5
1.5
1.5
1.5
1.5
1.5
1.5
1.5
1.5
1.5
1.5
1.5
1.5
1.5
1.5
1.5
1.5
1.5
1.5
1.5
1.5
1.5
1.5
1.5
1.5
1.5
1.5
1.5
1.5
1.5
1.5
1.5
1.5
1.5
1.5
1.5
1.5
1.5
1.5
1.5
1.5
1.5
1.5
1.5
1.5
1.5
1.5
1.5
1.5
1.5
1.5
1.5
1.5
1.5
1.5
1.5
1.5
1.5
1.5
1.5
1.5
1.5
1.5
1.5
1.5
1.5
1.5
1.5
1.5
1.5
1.5
1.5
1.5
1.5
1.5
1.5
1.5
1.5
1.5
1.5
1.5
1.5
1.5
1.5
1.5
1.5
1.5
1.5
1.5
1.5
1.5
1.5
1.5
1.5
1.5
1.5
1.5
1.5
1.5
1.5
1.5
1.5
1.5
1.5
1.5
1.5
1.5
1.5
1.5
1.5
1.5
1.5
1.5
1.5
1.5
1.5
1.5
1.5
1.5
1.5
1.5
1.5
1.5
1.5
1.5
1.5
1.5
1.5
1.5
1.5
1.5
1.5
1.5
1.5
1.5
1.5
1.5
1.5
1.5
1.5
1.5
1.5
1.5
1.5
1.5
1.5
1.5
1.5
1.5
1.5
1.5
1.5
1.5
1.5
1.5
1.5
1.5
1.5
1.5
1.5
1.5
1.5
1.5
1.5
1.5
1.5
1.5
1.5
1.5
1.5
1.5
1.5
1.5
1.5
1.5
1.5
1.5
1.5
1.5
1.5
1.5
1.5
1.5
1.5
1.5
1.5
1.5
1.5
1.5
1.5
1.5
1.5
1.5
1.5
1.5
1.5
1.5
1.5
1.5
1.5
1.5
1.5
1.5
1.5
1.5
1.5
1.5
1.5
1.5
1.5
1.5
1.5
1.5
1.5
1.5
1.5
1.5
1.5
1.5
1.5
1.5
1.5
1.5
1.5
1.5
1.5
1.5
1.5
1.5
1.5
1.5
1.5
1.5
1.5
1.5
1.5
1.5
1.5
1.5
1.5
1.5
1.5
1.5
1.5
1.5
1.5
1.5
1.5
1.5
1.5
1.5
1.5
1.5
1.5
1.5
1.5
1.5
1.5
1.5
1.5
1.5
1.5
1.5
1.5
1.5
1.5
1.5
1.5
1.5
1.5
1.5
1.5
1.5
1.5
1.5
1.5
1.5
1.5
1.5
1.5
1.5
1.5
1.5
1.5
1.5
1.5
1.5
1.5
1.5
1.5
1.5
1.5
1.5
1.5
1.5
1.5
1.5
1.5
1.5
1.5
1.5
1.5
1.5
1.5
1.5
1.5
1.5
1.5
1.5
1.5
1.5
1.5
1.5
1.5
1.5
1.5
1.5
1.5
1.5
1.5
1.5
1.5
1.5
1.5
1.5
1.5
1.5
1.5
1.5
1.5
1.5
1.5
1.5
1.5
1.5
1.5
1.5
1.5
1.5
1.5
1.5
1.5
1.5
1.5
1.5
1.5
1.5
1.5
1.5
1.5
1.5
1.5
1.5
1.5
1.5
1.5
1.5
1.5
1.5
1.5
1.5
1.5
1.5
1.5
1.5
1.5
1.5
1.5
1.5
1.5
1.5
1.5
1.5
1.5
1.5
1.5
1.5
1.5
1.5
1.5
1.5
1.5
1.5
1.5
1.5
1.5
1.5
1.5
1.5
1.5
1.5
1.5
1.5
1.5
1.5
1.5
1.5
1.5
1.5
1.5
1.5
1.5
1.5
1.5
1.5
1.5
1.5
1.5
1.5
1.5
1.5
1.5
1.5
1.5
1.5
1.5
1.5
1.5
1.5
1.5
1.5
1.5
1.5
1.5
1.5
1.5
1.5
1.5
1.5
1.5
1.5
1.5
1.5
1.5
1.5
1.5
1.5
1.5
1.5
1.5
1.5
1.5
1.5
1.5
1.5
1.5
1.5
1.5
1.5
1.5
1.5
1.5
1.5
1.5
1.5
1.5
1.5
1.5
1.5
1.5
1.5
1.5
1.5
1.5
1.5
1.5
1.5
1.5
1.5
1.5
1.5
1.5
1.5
1.5
1.5
1.5
1.5
1.5
1.5
1.5
1.5
1.5
1.5
1.5
1.5
1.5
1.5
1.5
1.5
1.5
1.5
1.5
1.5
1.5
1.5
1.5
1.5
1.5
1.5
1.5
1.5
1.5
1.5
1.5
1.5
1.5
1.5
1.5
1.5
1.5
1.5
1.5
1.5
1.5
1.5
1.5
1.5
1.5
1.5
1.5
1.5
1.5
1.5
1.5
1.5
1.5
1.5
1.5
1.5
1.5
1.5
1.5
1.5
1.5
1.5
1.5
1.5
1.5
1.5
1.5
1.5
1.5
1.5
1.5
1.5
1.5
