# vtk DataFile Version 2.0
Vessel Segment
ASCII
DATASET POLYDATA
POINTS 600 float
6.910389351121728 24.1568477437229 -5.678893463420607
6.775666949768505 24.05033340822648 -5.704604918731403
6.640944548415282 23.943819072730058 -5.730316374042197
6.50622214706206 23.837304737233637 -5.756027829352993
6.371499745708835 23.730790401737213 -5.781739284663788
6.2367773443556125 23.624276066240792 -5.807450739974582
6.10205494300239 23.51776173074437 -5.833162195285377
5.967332541649166 23.41124739524795 -5.8588736505961725
5.832610140295943 23.30473305975153 -5.884585105906967
5.69788773894272 23.198218724255106 -5.910296561217763
5.5631653375894965 23.09170438875869 -5.936008016528557
5.428442936236274 22.985190053262265 -5.961719471839353
5.29372053488305 22.878675717765844 -5.987430927150148
5.158998133529828 22.772161382269424 -6.013142382460943
5.024275732176605 22.665647046773003 -6.038853837771738
4.8895533308233805 22.559132711276582 -6.0645652930825324
4.754830929470158 22.452618375780162 -6.090276748393328
4.620108528116934 22.34610404028374 -6.115988203704123
4.485386126763711 22.239589704787317 -6.141699659014918
4.350663725410488 22.1330753692909 -6.167411114325714
4.215941324057265 22.026561033794476 -6.1931225696365075
4.081218922704043 21.920046698298055 -6.218834024947303
3.94649652135082 21.813532362801634 -6.244545480258099
3.8117741199975965 21.70701802730521 -6.270256935568893
3.677051718644373 21.60050369180879 -6.295968390879688
3.54232931729115 21.49398935631237 -6.321679846190483
3.4076069159379276 21.38747502081595 -6.347391301501277
3.272884514584704 21.280960685319528 -6.373102756812074
3.1381621132314814 21.174446349823107 -6.398814212122868
3.0034397118782583 21.067932014326686 -6.424525667433663
2.868717310525036 20.961417678830266 -6.450237122744458
2.7339949091718125 20.85490334333384 -6.475948578055253
2.5992725078185894 20.74838900783742 -6.501660033366048
2.4645501064653654 20.641874672341 -6.5273714886768435
2.329827705112142 20.535360336844576 -6.553082943987638
2.195105303758919 20.42884600134816 -6.578794399298434
2.0603829024056957 20.322331665851735 -6.6045058546092275
1.9256605010524728 20.215817330355314 -6.630217309920023
1.7909380996992494 20.109302994858893 -6.655928765230818
1.6562156983460268 20.002788659362473 -6.681640220541613
1.521493296992804 19.896274323866052 -6.707351675852408
1.3867708956395806 19.789759988369628 -6.733063131163203
1.2520484942863574 19.683245652873207 -6.758774586473998
1.1173260929331348 19.57673131737679 -6.784486041784794
0.9826036915799123 19.470216981880366 -6.810197497095588
0.8478812902266892 19.363702646383942 -6.835908952406383
0.7131588888734656 19.257188310887525 -6.8616204077171785
0.5784364875202419 19.1506739753911 -6.887331863027974
0.44371408616701813 19.044159639894684 -6.913043318338769
0.30899168481379474 18.93764530439826 -6.938754773649563
0.1742692834605715 18.83113096890184 -6.964466228960359
0.03954688210734966 18.724616633405418 -6.9901776842711545
-0.09517551924587361 18.618102297908997 -7.015889139581949
-0.2298979205990969 18.511587962412577 -7.041600594892744
-0.3646203219523202 18.405073626916153 -7.067312050203539
-0.49934272330554347 18.29855929141973 -7.093023505514334
-0.6340651246587666 18.19204495592331 -7.11873496082513
-0.7687875260119895 18.085530620426887 -7.144446416135923
-0.9035099273652125 17.979016284930466 -7.170157871446719
-1.0382323287184356 17.872501949434046 -7.195869326757514
-1.1729547300716578 17.765987613937625 -7.221580782068308
-1.3076771314248816 17.659473278441205 -7.247292237379103
-1.4423995327781054 17.552958942944784 -7.273003692689899
-1.5771219341313285 17.446444607448363 -7.298715148000694
-1.7118443354845514 17.339930271951943 -7.324426603311489
-1.8465667368377743 17.233415936455522 -7.350138058622283
-1.9812891381909974 17.1269016009591 -7.375849513933079
-2.1160115395442207 17.020387265462677 -7.401560969243874
-2.250733940897444 16.913872929966253 -7.427272424554669
-2.385456342250666 16.807358594469836 -7.452983879865464
-2.520178743603889 16.700844258973415 -7.478695335176259
-2.6549011449571123 16.59432992347699 -7.504406790487053
-2.7896235463103354 16.48781558798057 -7.530118245797849
-2.924345947663559 16.38130125248415 -7.555829701108644
-3.0501965650852703 16.262176867708945 -7.545241415310423
-3.175959346795188 16.14292763626674 -7.534293741409105
-3.3017221285051055 16.023678404824537 -7.523346067507787
-3.4245402330816126 15.90303481317718 -7.505186768084793
-3.5385376542826013 15.778214461456027 -7.465425281913456
-3.6525350754835917 15.653394109734874 -7.425663795742118
-3.7665324966845817 15.528573758013719 -7.38590230957078
-3.8751382912898085 15.403051590777164 -7.336025750077802
-3.9789278225575826 15.276902501724631 -7.277113539482253
-4.082717353825357 15.1507534126721 -7.218201328886702
-4.186506885093132 15.024604323619569 -7.159289118291152
-4.285335448092469 14.898640516101985 -7.092224181739221
-4.382811684773317 14.772727215074765 -7.022936867360686
-4.480287921454163 14.646813914047545 -6.953649552982153
-4.577670187915796 14.520917157105272 -6.884203865384808
-4.673663576325026 14.395264921423841 -6.812417424626154
-4.769656964734256 14.269612685742414 -6.7406309838675025
-4.8656503531434865 14.143960450060984 -6.6688445431088486
-4.963277245493778 14.018195392571194 -6.599582258838505
-5.062958409536462 13.892288451954359 -6.533494318437655
-5.162639573579146 13.766381511337524 -6.467406378036805
-5.262418950060622 13.64047133618807 -6.401500533180999
-5.37052847818703 13.514286815471483 -6.351039610808999
-5.478638006313438 13.388102294754898 -6.300578688437
-5.586747534439846 13.261917774038311 -6.250117766064999
-5.703664412864775 13.13705065561189 -6.222419795150964
-5.82246784688528 13.01246572792138 -6.1995977031323175
-5.941271280905782 12.887880800230871 -6.176775611113671
-6.066330743456153 12.768602148156408 -6.186875644898172
-6.192407721997601 12.65018653886805 -6.202330320098545
-6.318463742933295 12.531897294191038 -6.218256663775323
-6.44273054853447 12.42439618547883 -6.274450797616391
-6.566997354135646 12.31689507676662 -6.330644931457458
-6.690007401993643 12.210717901270073 -6.390728061129805
-6.80338496012085 12.114688085655184 -6.480618615989059
-6.916762518248056 12.018658270040296 -6.570509170848313
-7.029487598084625 11.922938995052677 -6.661357995949163
-7.126867972171691 11.83452288189752 -6.774743011290784
-7.224248346258758 11.746106768742365 -6.8881280266324065
-7.321628720345824 11.657690655587208 -7.001513041974029
-7.405417283389834 11.570941982468977 -7.126026975680112
-7.484538063949942 11.484765951758192 -7.254362870274397
-7.56365884451005 11.398589921047408 -7.382698764868682
-7.637601980679984 11.31171525158661 -7.513278421759666
-7.697025281481781 11.222881366917584 -7.650150333718444
-7.756448582283575 11.134047482248562 -7.787022245677221
-7.815871883085371 11.045213597579536 -7.923894157635999
-7.861028395464398 10.95215035501797 -8.062985315859725
-7.899234100427633 10.857026560962092 -8.203157695234193
-7.937439805390868 10.761902766906218 -8.34333007460866
-7.9745160594901074 10.666368076454551 -8.483427596258988
-7.990043269844849 10.562993802458745 -8.622096890773893
-8.005570480199587 10.459619528462937 -8.7607661852888
-8.021097690554328 10.35624525446713 -8.899435479803705
-8.026178607494682 10.249195161048668 -9.03548718106806
-8.018278799240697 10.137577437764122 -9.168286220617096
-8.01037899098671 10.025959714479573 -9.301085260166133
-8.002479182732726 9.914341991195027 -9.43388429971517
-7.974618234508241 9.797199787479826 -9.558738863823859
-7.943945442674072 9.679279372950079 -9.682474322383854
-7.913272650839903 9.561358958420332 -9.806209780943849
-7.875825097590043 9.442438788483365 -9.926599747106101
-7.824564495385507 9.321480219031598 -10.04016859479169
-7.7733038931809695 9.20052164957983 -10.15373744247728
-7.722043290976433 9.079563080128066 -10.267306290162866
-7.6572284132137245 8.95907243280817 -10.373943452634197
-7.588553883199982 8.838715028810785 -10.478606780773635
-7.519879353186239 8.718357624813398 -10.583270108913073
-7.448386344599702 8.598781347385197 -10.686745545542227
-7.365691438758365 8.482309617089431 -10.78549976882723
-7.282996532917025 8.365837886793663 -10.884253992112232
-7.200301627075687 8.249366156497896 -10.983008215397236
-7.111293444105762 8.136606126953406 -11.080368875927016
-7.017726747030432 8.026526138199953 -11.176723311742268
-6.924160049955102 7.9164461494465 -11.273077747557519
-6.830593352879773 7.806366160693047 -11.369432183372771
-6.729642943067642 7.703397021803489 -11.466136998353736
-6.62791644795486 7.60117528821682 -11.562878640894201
-6.526189952842079 7.498953554630152 -11.65962028343467
-6.423496132584493 7.398029573847976 -11.756630443783099
-6.315819692291334 7.303790221455362 -11.855023719433607
-6.208143251998175 7.209550869062747 -11.953416995084112
-6.100466811705019 7.115311516670134 -12.051810270734617
-5.9912298566898965 7.023399029469491 -12.150608141201165
-5.8790968462091735 6.935804816593398 -12.250156872272784
-5.76696383572845 6.8482106037173045 -12.349705603344406
-5.654830825247727 6.760616390841211 -12.449254334416025
-5.54084780795047 6.674980330461153 -12.548365224844765
-5.424908539877117 6.591414877230141 -12.647013129899724
-5.308969271803763 6.507849423999129 -12.745661034954686
-5.193030003730408 6.4242839707681165 -12.844308940009649
-5.074608972958066 6.341127847925872 -12.940277112266482
-4.954692996762226 6.258218294423895 -13.03463108737047
-4.834777020566386 6.175308740921919 -13.128985062474458
-4.714861044370545 6.092399187419942 -13.223339037578445
-4.590935769379617 6.006856865818552 -13.309752898012508
-4.466349346342172 5.920880391120867 -13.39485740447436
-4.341762923304726 5.8349039164231815 -13.479961910936211
-4.215549358970999 5.746814365028273 -13.559912217476114
-4.085720765524373 5.654030179064311 -13.628411408606357
-3.95589217207775 5.561245993100351 -13.6969105997366
[...]
POINT_DATA 600
SCALARS MaximumInscribedSphereRadius float
LOOKUP_TABLE default
1.5
1.5
1.5
1.5
1.5
1.5
1.5
1.5
1.5
1.5
1.5
1.5
1.5
1.5
1.5
1.5
1.5
1.5
1.5
1.5
1.5
1.5
1.5
1.5
1.5
1.5
1.5
1.5
1.5
1.5
1.5
1.5
1.5
1.5
1.5
1.5
1.5
1.5
1.5
1.5
1.5
1.5
1.5
1.5
1.5
1.5
1.5
1.5
1.5
1.5
1.5
1.5
1.5
1.5
1.5
1.5
1.5
1.5
1.5
1.5
1.5
1.5
1.5
1.5
1.5
1.5
1.5
1.5
1.5
1.5
1.5
1.5
1.5
1.5
1.5
1.5
1.5
1.5
1.5
1.5
1.5
1.5
1.5
1.5
1.5
1.5
1.5
1.5
1.5
1.5
1.5
1.5
1.5
1.5
1.5
1.5
1.5
1.5
1.5
1.5
1.5
1.5
1.5
1.5
1.5
1.5
1.5
1.5
1.5
1.5
1.5
1.5
1.5
1.5
1.5
1.5
1.5
1.5
1.5
1.5
1.5
1.5
1.5
1.5
1.5
1.5
1.5
1.5
1.5
1.5
1.5
1.5
1.5
1.5
1.5
1.5
1.5
1.5
1.5
1.5
1.5
1.5
1.5
1.5
1.5
1.5
1.5
1.5
1.5
1.5
1.5
1.5
1.5
1.5
1.5
1.5
1.5
1.5
1.5
1.5
1.5
1.5
1.5
1.5
1.5
1.5
1.5
1.5
1.5
1.5
1.5
1.5
1.5
1.5
1.5
1.5
1.5
1.5
1.5
1.5
1.5
1.5
1.5
1.5
1.5
1.5
1.5
1.5
1.5
1.5
1.5
1.5
1.5
1.5
1.5
1.5
1.5
1.5
1.5
1.5
1.5
1.5
1.5
1.5
1.5
1.5
1.5
1.5
1.5
1.5
1.5
1.5
1.5
1.5
1.5
1.5
1.5
1.5
1.5
1.5
1.5
1.5
1.5
1.5
1.5
1.5
1.5
1.5
1.5
1.5
1.5
1.5
1.5
1.5
1.5
1.5
1.5
1.5
1.5
1.5
1.5
1.5
1.5
1.5
1.5
1.5
1.5
1.5
1.5
1.5
1.5
1.5
1.5
1.5
1.5
1.5
1.5
1.5
1.5
1.5
1.5
1.5
1.5
1.5
1.5
1.5
1.5
1.5
1.5
1.5
1.5
1.5
1.5
1.5
1.5
1.5
1.5
1.5
1.5
1.5
1.5
1.5
1.5
1.5
1.5
1.5
1.5
1.5
1.5
1.5
1.5
1.5
1.5
1.5
1.5
1.5
1.5
1.5
1.5
1.5
1.5
1.5
1.5
1.5
1.5
1.5
1.5
1.5
1.5
1.5
1.5
1.5
1.5
1.5
1.5
1.5
1.5
1.5
1.5
1.5
1.5
1.5
1.5
1.5
1.5
1.5
1.5
1.5
1.5
1.5
1.5
1.5
1.5
1.5
1.5
1.5
1.5
1.5
1.5
1.5
1.5
1.5
1.5
1.5
1.5
1.5
1.5
1.5
1.5
1.5
1.5
1.5
1.5
1.5
1.5
1.5
1.5
1.5
1.5
1.5
1.5
1.5
1.5
1.5
1.5
1.5
1.5
1.5
1.5
1.5
1.5
1.5
1.5
1.5
1.5
1.5
1.5
1.5
1.5
1.5
1.5
1.5
1.5
1.5
1.5
1.5
1.5
1.5
1.5
1.5
1.5
1.5
1.5
1.5
1.5
1.5
1.5
1.5
1.5
1.5
1.5
1.5
1.5
1.5
1.5
1.5
1.5
1.5
1.5
1.5
1.5
1.5
1.5
1.5
1.5
1.5
1.5
1.5
1.5
1.5
1.5
1.5
1.5
1.5
1.5
1.5
1.5
1.5
1.5
1.5
1.5
1.5
1.5
1.5
1.5
1.5
1.5
1.5
1.5
1.5
1.5
1.5
1.5
1.5
1.5
1.5
1.5
1.5
1.5
1.5
1.5
1.5
1.5
1.5
1.5
1.5
1.5
1.5
1.5
1.5
1.5
1.5
1.5
1.5
1.5
1.5
1.5
1.5
1.5
1.5
1.5
1.5
1.5
1.5
1.5
1.5
1.5
1.5
1.5
1.5
1.5
1.5
1.5
1.5
1.5
1.5
1.5
1.5
1.5
1.5
1.5
1.5
1.5
1.5
1.5
1.5
1.5
1.5
1.5
1.5
1.5
1.5
1.5
1.5
1.5
1.5
1.5
1.5
1.5
1.5
1.5
1.5
1.5
1.5
1.5
1.5
1.5
1.5
1.5
1.5
1.5
1.5
1.5
1.5
1.5
1.5
1.5
1.5
1.5
1.5
1.5
1.5
1.5
1.5
1.5
1.5
1.5
1.5
1.5
1.5
1.5
1.5
1.5
1.5
1.5
1.5
1.5
1.5
1.5
1.5
1.5
1.5
1.5
1.5
1.5
1.5
1.5
1.5
1.5
1.5
1.5
1.5
1.5
1.5
1.5
1.5
1.5
1.5
1.5
1.5
1.5
1.5
1.5
1.5
1.5
1.5
1.5
1.5
1.5
1.5
1.5
1.5
1.5
1.5
1.5
1.5
1.5
1.5
1.5
1.5
1.5
1.5
1.5
1.5
1.5
1.5
1.5
1.5
1.5
1.5
