# vtk DataFile Version 2.0
Vessel Segment
ASCII
DATASET POLYDATA
POINTS 600 float
0.8505130864288155 17.982438506128126 3.154533978808378
0.7454001457682989 17.973092270574718 2.9971628591678803
0.6402872051077824 17.96374603502131 2.839791739527383
0.5351742644472658 17.9543997994679 2.6824206198868854
0.43006132378674905 17.94505356391449 2.5250495002463875
0.3249483831262322 17.935707328361083 2.36767838060589
0.2198354424657155 17.92636109280767 2.2103072609653927
0.11472250180519872 17.91701485725426 2.052936141324895
0.009609561144681866 17.90766862170085 1.8955650216843978
-0.09550337951583499 17.89832238614744 1.7381939020439001
-0.20061632017635178 17.88897615059403 1.580822782403403
-0.3057292608368684 17.87962991504062 1.4234516627629052
-0.41084220149738504 17.870283679487212 1.2660805431224078
-0.5159551421579021 17.8609374439338 1.1087094234819102
-0.6210680828184187 17.851591208380395 0.9513383038414127
-0.7261810234789359 17.842244972826983 0.7939671842009148
-0.8312939641394526 17.832898737273574 0.6365960645604174
-0.9364069047999692 17.823552501720165 0.47922494491992
-1.0415198454604861 17.814206266166753 0.3218538252794222
-1.1466327861210028 17.804860030613344 0.16448270563892475
-1.25174572678152 17.795513795059936 0.007111585998427178
-1.3568586674420366 17.786167559506524 -0.15025953364207006
-1.4619716081025533 17.776821323953115 -0.3076306532825673
-1.5670845487630702 17.767475088399706 -0.4650017729230647
-1.6721974894235867 17.758128852846294 -0.6223728925635622
-1.7773104300841038 17.748782617292886 -0.7797440122040605
-1.8824233707446205 17.739436381739477 -0.9371151318445579
-1.987536311405137 17.730090146186065 -1.0944862514850553
-2.0926492520656534 17.72074391063266 -1.251857371125553
-2.1977621927261706 17.711397675079247 -1.4092284907660502
-2.3028751333866877 17.70205143952584 -1.566599610406548
-2.4079880740472044 17.69270520397243 -1.723970730047045
-2.513101014707721 17.683358968419018 -1.8813418496875425
-2.6182139553682378 17.67401273286561 -2.03871296932804
-2.7233268960287544 17.664666497312197 -2.1960840889685374
-2.828439836689271 17.65532026175879 -2.3534552086090357
-2.9335527773497883 17.64597402620538 -2.510826328249533
-3.0386657180103045 17.63662779065197 -2.66819744789003
-3.143778658670821 17.62728155509856 -2.8255685675305275
-3.248891599331338 17.617935319545147 -2.982939687171025
-3.354004539991855 17.60858908399174 -3.140310806811523
-3.4591174806523717 17.59924284843833 -3.2976819264520203
-3.564230421312889 17.58989661288492 -3.4550530460925177
-3.6693433619734064 17.580550377331512 -3.612424165733016
-3.774456302633922 17.571204141778104 -3.769795285373513
-3.8795692432944398 17.561857906224695 -3.9271664050140114
-3.984682183954956 17.552511670671286 -4.0845375246545075
-4.089795124615473 17.543165435117874 -4.241908644295005
-4.19490806527599 17.533819199564462 -4.399279763935502
-4.300021005936507 17.524472964011053 -4.556650883576001
-4.405133946597024 17.515126728457645 -4.714022003216499
-4.51024688725754 17.505780492904233 -4.871393122856996
-4.615359827918057 17.496434257350824 -5.028764242497494
-4.720472768578573 17.487088021797415 -5.186135362137991
-4.825585709239091 17.477741786244003 -5.343506481778489
-4.9306986498996075 17.468395550690595 -5.500877601418987
-5.035811590560124 17.459049315137186 -5.658248721059484
-5.140924531220642 17.44970307958378 -5.815619840699982
-5.2460374718811575 17.44035684403037 -5.9729909603404785
-5.351150412541674 17.431010608476956 -6.130362079980976
-5.456263353202193 17.421664372923548 -6.287733199621474
-5.5613762938627085 17.412318137370136 -6.445104319261971
-5.666489234523226 17.402971901816727 -6.60247543890247
-5.771602175183742 17.39362566626332 -6.759846558542966
-5.8767151158442585 17.38427943070991 -6.917217678183465
-5.981828056504776 17.3749331951565 -7.074588797823963
-6.086940997165293 17.36558695960309 -7.23195991746446
-6.1920539378258095 17.35624072404968 -7.389331037104958
-6.297341294374737 17.31580906978765 -7.536839002493789
-6.402862001051803 17.2337883922724 -7.671151104080118
-6.5083827077288685 17.151767714757142 -7.805463205666445
-6.6129064730953795 17.065706643873536 -7.936479136742125
-6.703109269442198 16.92160569878373 -8.020145885607276
-6.793312065789016 16.777504753693925 -8.103812634472426
-6.8835148621358355 16.63340380860412 -8.187479383337578
-6.956994124561371 16.464424958827713 -8.226745205357034
-7.028102437759456 16.291919088436234 -8.259716165076552
-7.099210750957542 16.119413218044755 -8.292687124796071
-7.165035728435693 15.943581093217166 -8.309807499776312
-7.224329220471908 15.763636910481983 -8.307332704402315
-7.283622712508123 15.583692727746799 -8.304857909028318
-7.342916204544338 15.403748545011616 -8.30238311365432
-7.399473904271672 15.22415520474144 -8.283948512459022
-7.45489091200969 15.04470814867129 -8.258859450472857
-7.510307919747709 14.865261092601138 -8.233770388486692
-7.565724927485727 14.685814036530989 -8.208681326500527
-7.622818367406777 14.508757172890636 -8.173246019935267
-7.680452836230238 14.332471687418721 -8.134471707232219
-7.7380873050537 14.15618620194681 -8.095697394529173
-7.79572177387716 13.979900716474896 -8.056923081826127
-7.858517002809917 13.806575065557745 -8.013352348863906
-7.922931242329992 13.634177960703468 -7.968276904383154
-7.987345481850066 13.461780855849188 -7.9232014599024
-8.051759721370141 13.289383750994903 -7.878126015421647
-8.125184058661489 13.120272773332204 -7.8345387538142335
-8.199779793739163 12.951589023233012 -7.791144970032224
-8.274375528816835 12.782905273133819 -7.747751186250216
-8.35215921472014 12.615053772006195 -7.707517523472021
-8.438902534060961 12.449541279891523 -7.676165279310673
-8.525645853401784 12.284028787776855 -7.644813035149328
-8.612389172742606 12.118516295662184 -7.613460790987981
-8.71012597312511 11.956359779918175 -7.607341326616224
-8.808107093094673 11.794277847534792 -7.601782636608399
-8.906274199160082 11.632466314282128 -7.5978739847582695
-9.00882566832317 11.477029063821952 -7.632862683678023
-9.111377137486262 11.321591813361776 -7.667851382597776
-9.21086432042838 11.170809523532936 -7.719773323714404
-9.304827712810859 11.028418430131795 -7.802219725226111
-9.398791105193336 10.886027336730656 -7.884666126737818
-9.476940276474384 10.756486824983451 -7.996775246083326
-9.54965247940985 10.631364375006505 -8.1190824812179
-9.622194073224598 10.506341479298712 -8.241551575464362
-9.668404366789627 10.396683491053647 -8.389001519828215
-9.714614660354652 10.287025502808577 -8.53645146419207
-9.760304510548947 10.177578102605878 -8.684156394693739
-9.780385470932236 10.078492878724042 -8.844408150217962
-9.800466431315527 9.979407654842204 -9.004659905742185
-9.82054739169882 9.880322430960366 -9.164911661266412
-9.822627286310649 9.78566412489687 -9.328678178482543
-9.818752562492786 9.692470210262336 -9.49360735267756
-9.814877838674922 9.599276295627796 -9.658536526872584
-9.806199572816427 9.506586907541363 -9.823322034866074
-9.78088770799524 9.415644582808639 -9.987610058719628
-9.75557584317405 9.324702258075913 -10.151898082573185
-9.730263978352863 9.233759933343189 -10.316186106426741
-9.69597573943446 9.142501126185522 -10.478377184795384
-9.651985192422945 9.050900242153652 -10.6383017342818
-9.60799464541143 8.959299358121783 -10.798226283768216
-9.564004098399916 8.867698474089913 -10.958150833254631
-9.511260078113276 8.774305886223573 -11.114108988714413
-9.45167396767101 8.679512825792528 -11.266966840481029
-9.392087857228747 8.58471976536149 -11.419824692247644
-9.33250174678648 8.489926704930449 -11.572682544014256
-9.266780287958943 8.392404161931616 -11.721026700220156
-9.194891573131699 8.29213794136384 -11.864833686850732
-9.123002858304453 8.191871720796065 -12.008640673481306
-9.051114143477207 8.091605500228292 -12.15244766011188
-8.97629468145805 7.988958167596055 -12.292849490811859
-8.895280144867272 7.8812775905941095 -12.426053431848654
-8.814265608276497 7.773597013592166 -12.559257372885453
-8.733251071685718 7.66591643659022 -12.692461313922252
-8.651831815967798 7.557675326051092 -12.824902860560135
-8.564392738631103 7.4410967990695935 -12.946004497673579
-8.47695366129441 7.324518272088094 -13.067106134787021
-8.389514583957713 7.207939745106593 -13.188207771900466
-8.302075506621017 7.091361218125095 -13.30930940901391
-8.21120848531578 6.967069943744479 -13.419499322596879
-8.119354379206719 6.8405577649899225 -13.526547178847746
-8.027500273097662 6.7140455862353665 -13.633595035098612
-7.9356461669886045 6.587533407480812 -13.740642891349479
-7.842059010789594 6.4553354806835745 -13.838439939702653
-7.74700063907032 6.3183108262497765 -13.92838382083752
-7.651942267351046 6.181286171815979 -14.018327701972385
-7.556883895631773 6.044261517382182 -14.108271583107253
-7.46062567561517 5.902278289253985 -14.187792256512576
-7.36300133895601 5.754649355695901 -14.255445331672437
-7.265377002296849 5.607020422137815 -14.323098406832298
-7.167752665637686 5.459391488579726 -14.39075148199216
-7.068673271386432 5.305398746444546 -14.43705135243621
-6.968929691776023 5.148501137513486 -14.473604195669573
-6.869186112165613 4.991603528582424 -14.510157038902936
-6.7692497669564355 4.833555180231447 -14.532080562790107
-6.668906588783372 4.673078189364084 -14.523128819579448
-6.568563410610308 4.512601198496721 -14.514177076368792
-6.470520959428237 4.358143988114679 -14.477134467100932
-6.375415242981147 4.211370652663215 -14.404235616562929
-6.280309526534057 4.064597317211749 -14.331336766024926
-6.203091982051164 3.9634416324177857 -14.191512288716961
-6.126279640019059 3.863319277574059 -14.050171813684809
-6.068673628014539 3.810485642872395 -13.881996136306991
-6.0197826189844825 3.779109586797406 -13.701643803215825
-5.976140132855026 3.7609831600710613 -13.520091466121405
-5.950646229350047 3.7886719079246385 -13.334389700280024
-5.9251523258450725 3.816360655778214 -13.148687934438652
[...]
POINT_DATA 600
SCALARS MaximumInscribedSphereRadius float
LOOKUP_TABLE default
1.5
1.5
1.5
1.5
1.5
1.5
1.5
1.5
1.5
1.5
1.5
1.5
1.5
1.5
1.5
1.5
1.5
1.5
1.5
1.5
1.5
1.5
1.5
1.5
1.5
1.5
1.5
1.5
1.5
1.5
1.5
1.5
1.5
1.5
1.5
1.5
1.5
1.5
1.5
1.5
1.5
1.5
1.5
1.5
1.5
1.5
1.5
1.5
1.5
1.5
1.5
1.5
1.5
1.5
1.5
1.5
1.5
1.5
1.5
1.5
1.5
1.5
1.5
1.5
1.5
1.5
1.5
1.5
1.5
1.5
1.5
1.5
1.5
1.5
1.5
1.5
1.5
1.5
1.5
1.5
1.5
1.5
1.5
1.5
1.5
1.5
1.5
1.5
1.5
1.5
1.5
1.5
1.5
1.5
1.5
1.5
1.5
1.5
1.5
1.5
1.5
1.5
1.5
1.5
1.5
1.5
1.5
1.5
1.5
1.5
1.5
1.5
1.5
1.5
1.5
1.5
1.5
1.5
1.5
1.5
1.5
1.5
1.5
1.5
1.5
1.5
1.5
1.5
1.5
1.5
1.5
1.5
1.5
1.5
1.5
1.5
1.5
1.5
1.5
1.5
1.5
1.5
1.5
1.5
1.5
1.5
1.5
1.5
1.5
1.5
1.5
1.5
1.5
1.5
1.5
1.5
1.5
1.5
1.5
1.5
1.5
1.5
1.5
1.5
1.5
1.5
1.5
1.5
1.5
1.5
1.5
1.5
1.5
1.5
1.5
1.5
1.5
1.5
1.5
1.5
1.5
1.5
1.5
1.5
1.5
1.5
1.5
1.5
1.5
1.5
1.5
1.5
1.5
1.5
1.5
1.5
1.5
1.5
1.5
1.5
1.5
1.5
1.5
1.5
1.5
1.5
1.5
1.5
1.5
1.5
1.5
1.5
1.5
1.5
1.5
1.5
1.5
1.5
1.5
1.5
1.5
1.5
1.5
1.5
1.5
1.5
1.5
1.5
1.5
1.5
1.5
1.5
1.5
1.5
1.5
1.5
1.5
1.5
1.5
1.5
1.5
1.5
1.5
1.5
1.5
1.5
1.5
1.5
1.5
1.5
1.5
1.5
1.5
1.5
1.5
1.5
1.5
1.5
1.5
1.5
1.5
1.5
1.5
1.5
1.5
1.5
1.5
1.5
1.5
1.5
1.5
1.5
1.5
1.5
1.5
1.5
1.5
1.5
1.5
1.5
1.5
1.5
1.5
1.5
1.5
1.5
1.5
1.5
1.5
1.5
1.5
1.5
1.5
1.5
1.5
1.5
1.5
1.5
1.5
1.5
1.5
1.5
1.5
1.5
1.5
1.5
1.5
1.5
1.5
1.5
1.5
1.5
1.5
1.5
1.5
1.5
1.5
1.5
1.5
1.5
1.5
1.5
1.5
1.5
1.5
1.5
1.5
1.5
1.5
1.5
1.5
1.5
1.5
1.5
1.5
1.5
1.5
1.5
1.5
1.5
1.5
1.5
1.5
1.5
1.5
1.5
1.5
1.5
1.5
1.5
1.5
1.5
1.5
1.5
1.5
1.5
1.5
1.5
1.5
1.5
1.5
1.5
1.5
1.5
1.5
1.5
1.5
1.5
1.5
1.5
1.5
1.5
1.5
1.5
1.5
1.5
1.5
1.5
1.5
1.5
1.5
1.5
1.5
1.5
1.5
1.5
1.5
1.5
1.5
1.5
1.5
1.5
1.5
1.5
1.5
1.5
1.5
1.5
1.5
1.5
1.5
1.5
1.5
1.5
1.5
1.5
1.5
1.5
1.5
1.5
1.5
1.5
1.5
1.5
1.5
1.5
1.5
1.5
1.5
1.5
1.5
1.5
1.5
1.5
1.5
1.5
1.5
1.5
1.5
1.5
1.5
1.5
1.5
1.5
1.5
1.5
1.5
1.5
1.5
1.5
1.5
1.5
1.5
1.5
1.5
1.5
1.5
1.5
1.5
1.5
1.5
1.5
1.5
1.5
1.5
1.5
1.5
1.5
1.5
1.5
1.5
1.5
1.5
1.5
1.5
1.5
1.5
1.5
1.5
1.5
1.5
1.5
1.5
1.5
1.5
1.5
1.5
1.5
1.5
1.5
1.5
1.5
1.5
1.5
1.5
1.5
1.5
1.5
1.5
1.5
1.5
1.5
1.5
1.5
1.5
1.5
1.5
1.5
1.5
1.5
1.5
1.5
1.5
1.5
1.5
1.5
1.5
1.5
1.5
1.5
1.5
1.5
1.5
1.5
1.5
1.5
1.5
1.5
1.5
1.5
1.5
1.5
1.5
1.5
1.5
1.5
1.5
1.5
1.5
1.5
1.5
1.5
1.5
1.5
1.5
1.5
1.5
1.5
1.5
1.5
1.5
1.5
1.5
1.5
1.5
1.5
1.5
1.5
1.5
1.5
1.5
1.5
1.5
1.5
1.5
1.5
1.5
1.5
1.5
1.5
1.5
1.5
1.5
1.5
1.5
1.5
1.5
1.5
1.5
1.5
1.5
1.5
1.5
1.5
1.5
1.5
1.5
1.5
1.5
1.5
1.5
1.5
1.5
1.5
1.5
1.5
1.5
1.5
1.5
1.5
1.5
1.5
1.5
1.5
1.5
1.5
1.5
1.5
1.5
1.5
