# vtk DataFile Version 2.0
Vessel Segment
ASCII
DATASET POLYDATA
POINTS 600 float
5.398520819467885 25.379143032541037 -2.7184738422218
5.289344198393817 25.24287980294676 -2.7396936149786195
5.180167577319748 25.106616573352476 -2.7609133877354393
5.07099095624568 24.970353343758195 -2.782133160492259
4.961814335171612 24.834090114163917 -2.803352933249078
4.852637714097545 24.697826884569636 -2.824572706005897
4.743461093023477 24.56156365497535 -2.845792478762716
4.634284471949409 24.425300425381074 -2.8670122515195353
4.525107850875341 24.28903719578679 -2.8882320242763546
4.415931229801274 24.152773966192512 -2.9094517970331744
4.306754608727204 24.01651073659823 -2.930671569789994
4.197577987653137 23.88024750700395 -2.951891342546813
4.088401366579069 23.74398427740967 -2.9731111153036323
3.979224745505001 23.60772104781539 -2.9943308880604516
3.870048124430933 23.471457818221108 -3.0155506608172704
3.760871503356865 23.335194588626827 -3.0367704335740897
3.651694882282797 23.19893135903255 -3.057990206330909
3.542518261208729 23.06266812943827 -3.0792099790877283
3.4333416401346604 22.926404899843988 -3.1004297518445476
3.324165019060592 22.790141670249703 -3.1216495246013674
3.214988397986524 22.653878440655426 -3.1428692973581867
3.1058117769124562 22.517615211061145 -3.164089070115006
2.996635155838389 22.381351981466864 -3.185308842871825
2.8874585347643213 22.245088751872583 -3.206528615628644
2.778281913690254 22.1088255222783 -3.2277483883854634
2.6691052926161856 21.97256229268402 -3.2489681611422827
2.559928671542117 21.83629906308974 -3.270187933899102
2.4507520504680484 21.70003583349546 -3.2914077066559213
2.3415754293939806 21.563772603901178 -3.3126274794127406
2.232398808319913 21.4275093743069 -3.3338472521695595
2.123222187245846 21.291246144712616 -3.355067024926379
2.014045566171778 21.154982915118335 -3.376286797683198
1.9048689450977099 21.018719685524054 -3.397506570440017
1.7956923240236413 20.882456455929777 -3.4187263431968367
1.686515702949573 20.746193226335496 -3.439946115953656
1.5773390818755053 20.609929996741215 -3.4611658887104753
1.4681624608014374 20.47366676714693 -3.4823856614672946
1.3589858397273695 20.337403537552653 -3.503605434224114
1.2498092186533016 20.201140307958372 -3.5248252069809327
1.1406325975792337 20.06487707836409 -3.5460449797377525
1.0314559765051659 19.92861384876981 -3.5672647524945718
0.9222793554310983 19.792350619175533 -3.5884845252513915
0.8131027343570303 19.65608738958125 -3.60970429800821
0.7039261132829626 19.519824159986968 -3.6309240707650297
0.5947494922088948 19.383560930392687 -3.652143843521849
0.4855728711348267 19.247297700798406 -3.673363616278668
0.3763962500607586 19.11103447120413 -3.6945833890354876
0.2672196289866905 18.974771241609844 -3.715803161792307
0.15804300791262244 18.838508012015563 -3.7370229345491257
0.048866386838554474 18.702244782421285 -3.7582427073059455
-0.06031023423551354 18.565981552827 -3.7794624800627643
-0.1694868553095815 18.429718323232724 -3.8006822528195836
-0.2786634763836495 18.29345509363844 -3.8219020255764034
-0.3878400974577174 18.157191864044158 -3.843121798333222
-0.4970167185317855 18.020928634449877 -3.8643415710900415
-0.6061933396058536 17.884665404855596 -3.8855613438468604
-0.715369960679922 17.74840217526132 -3.90678111660368
-0.8245465817539903 17.612138945667038 -3.928000889360499
-0.9337232028280588 17.475875716072757 -3.9492206621173187
-1.0428998239021268 17.339612486478476 -3.9704404348741384
-1.1520764449761947 17.203349256884195 -3.9916602076309573
-1.2612530660502626 17.067086027289914 -4.012879980387777
-1.3704296871243307 16.930822797695633 -4.034099753144596
-1.4796063081983988 16.794559568101352 -4.055319525901416
-1.588782929272467 16.65829633850707 -4.0765392986582345
-1.6979595503465348 16.52203310891279 -4.097759071415054
-1.807136171420603 16.38576987931851 -4.118978844171874
-1.9163127924946708 16.24950664972423 -4.140198616928693
-2.0254894135687387 16.113243420129947 -4.161418389685512
-2.1346660346428066 15.976980190535667 -4.182638162442331
-2.2438426557168745 15.840716960941386 -4.20385793519915
-2.3530192767909424 15.704453731347105 -4.22507770795597
-2.4621958978650107 15.568190501752825 -4.246297480712789
-2.573965583270171 15.43410970888757 -4.2678374207964405
-2.686493860850409 15.300667380485152 -4.289471024745635
-2.799022138430647 15.16722505208273 -4.311104628694828
-2.9115504160108845 15.033782723680309 -4.332738232644021
-3.026757452826508 14.90328510330462 -4.357835496894872
-3.1424761280582807 14.773349917107755 -4.383594314318328
-3.258194803290054 14.64341473091089 -4.409353131741785
-3.3739457646463196 14.513530659197242 -4.435203899968805
-3.492527357171895 14.3881279630487 -4.469116298840605
-3.61110894969747 14.262725266900157 -4.503028697712406
-3.7296905422230457 14.137322570751614 -4.536941096584206
-3.8489198570504874 14.013854360000787 -4.574820985864935
-3.9695344706527855 13.894523478231395 -4.621186239300813
-4.090149084255083 13.775192596462002 -4.667551492736689
-4.210763697857381 13.655861714692609 -4.713916746172567
-4.331564879780432 13.542820248395008 -4.773136865843314
-4.452419944738578 13.431595236215847 -4.836069615856108
-4.573275009696725 13.320370224036683 -4.899002365868899
-4.693078438123486 13.212944070209748 -4.969211444814865
-4.811117018477788 13.111893130290248 -5.051631601171131
-4.92915559883209 13.010842190370745 -5.134051757527397
-5.046698782662412 12.910613905394817 -5.217935249564439
-5.157946413724256 12.820840008685273 -5.320414970178705
-5.269194044786097 12.73106611197573 -5.422894690792969
-5.380441675847938 12.641292215266187 -5.525374411407233
-5.483040776898362 12.559969198038587 -5.642488716240349
-5.583678953104351 12.480562291353658 -5.762921194190151
-5.6843171293103385 12.40115538466873 -5.8833536721399495
-5.777831490450153 12.325655242563691 -6.011362518742632
-5.865226645292623 12.253510928508291 -6.1458793055909755
-5.952621800135091 12.181366614452893 -6.28039609243932
-6.037155288624451 12.10978825359734 -6.416844238367761
-6.109995729483471 12.04052243267683 -6.561184105736885
-6.182836170342493 11.97125661175632 -6.705523973106012
-6.2556766112015145 11.90199079083581 -6.849863840475139
-6.316860173119479 11.831541187660228 -6.998808842904003
-6.374638970246294 11.760745822967966 -7.149098922500535
-6.43241776737311 11.6899504582757 -7.299389002097071
-6.485983957243536 11.617787357352777 -7.450410254639985
-6.528426167299546 11.542012557238529 -7.603362271814237
-6.570868377355557 11.466237757124283 -7.756314288988486
-6.613310587411569 11.390462957010035 -7.90926630616274
-6.644580118294089 11.309734916973463 -8.062181221103227
-6.6713832722575965 11.227026775645179 -8.21508130409893
-6.698186426221104 11.14431863431689 -8.367981387094638
-6.723227286136046 11.060814003335029 -8.52064641235299
-6.733965273391846 10.970845019767578 -8.671403696455616
-6.744703260647645 10.88087603620013 -8.822160980558241
-6.755441247903446 10.790907052632683 -8.972918264660864
-6.758324146220886 10.69805212877144 -9.12200286895341
-6.7524799418578425 10.601990888919216 -9.26922910492337
-6.746635737494801 10.505929649066994 -9.416455340893329
-6.740791533131757 10.409868409214772 -9.563681576863285
-6.720985327209456 10.31064816385144 -9.707387483513546
-6.698021226123483 10.210713421488286 -9.850297169730364
-6.675057125037511 10.110778679125138 -9.993206855947182
-6.649626629263294 10.010686672342102 -10.13544761750278
-6.609173851250267 9.90963680163204 -10.273614102096456
-6.56872107323724 9.80858693092198 -10.411780586690133
-6.528268295224214 9.70753706021192 -10.549947071283807
-6.4799811962395 9.607178329531271 -10.685785571414218
-6.422160656198246 9.507660634436995 -10.818791190080972
-6.364340116156992 9.408142939342714 -10.951796808747725
-6.30651957611574 9.308625244248436 -11.084802427414475
-6.236499384514425 9.211620559315314 -11.213505473912994
-6.162245130090435 9.115488050349182 -11.340715251462834
-6.087990875666443 9.019355541383048 -11.467925029012672
-6.013579491076918 8.923264152047329 -11.595062622239636
-5.924723007581838 8.830952922467892 -11.715564254257156
-5.8358665240867555 8.738641692888455 -11.836065886274678
-5.747010040591673 8.646330463309017 -11.956567518292202
-5.655012458253025 8.554666806375131 -12.075018403110194
-5.5541088535824175 8.464839225518455 -12.187654762099553
-5.453205248911809 8.375011644661779 -12.300291121088916
-5.352301644241201 8.2851840638051 -12.41292748007828
-5.246691935039133 8.19505462857692 -12.520713930789661
-5.136676812349763 8.10464262560921 -12.623960352439394
-5.026661689660391 8.014230622641499 -12.727206774089131
-4.916646566971019 7.9238186196737885 -12.830453195738867
-4.80168308747008 7.829298673168083 -12.92404312808023
-4.685698252448887 7.733930834934033 -13.015639932392036
-4.569713417427691 7.6385629966999815 -13.107236736703845
-4.4530618229719865 7.540514319938696 -13.194697623613171
-4.334606037521889 7.4352115355069 -13.270967090431657
-4.216150252071792 7.329908751075103 -13.34723655725014
-4.097694466621692 7.2246059666433045 -13.423506024068626
-3.9809568139715354 7.106194591977894 -13.480406745198547
-3.864378047352445 6.9865709874574184 -13.535516322402199
-3.747799280733354 6.866947382936944 -13.59062589960585
-3.6374179688800137 6.734215350804824 -13.621650357119044
-3.528394330782537 6.5986116610613745 -13.647398497797905
-3.419370692685062 6.463007971317926 -13.673146638476766
-3.3246118928834916 6.315386582932788 -13.66062055085644
-3.2299260668061036 6.167703716372586 -13.647898666205586
-3.143366988174016 6.019577274978097 -13.617472509355501
-3.0691754764751495 5.870775785972029 -13.560103375268625
-2.9949839647762824 5.72197429696596 -13.502734241181749
-2.9426559719720693 5.586415308989354 -13.404394331479402
-2.891755730555084 5.451721094853879 -13.303378910940827
-2.8521154095638384 5.331056379371956 -13.184234295902188
-2.823017460414013 5.223527120088849 -13.048115785633506
[...]
POINT_DATA 600
SCALARS MaximumInscribedSphereRadius float
LOOKUP_TABLE default
1.5
1.5
1.5
1.5
1.5
1.5
1.5
1.5
1.5
1.5
1.5
1.5
1.5
1.5
1.5
1.5
1.5
1.5
1.5
1.5
1.5
1.5
1.5
1.5
1.5
1.5
1.5
1.5
1.5
1.5
1.5
1.5
1.5
1.5
1.5
1.5
1.5
1.5
1.5
1.5
1.5
1.5
1.5
1.5
1.5
1.5
1.5
1.5
1.5
1.5
1.5
1.5
1.5
1.5
1.5
1.5
1.5
1.5
1.5
1.5
1.5
1.5
1.5
1.5
1.5
1.5
1.5
1.5
1.5
1.5
1.5
1.5
1.5
1.5
1.5
1.5
1.5
1.5
1.5
1.5
1.5
1.5
1.5
1.5
1.5
1.5
1.5
1.5
1.5
1.5
1.5
1.5
1.5
1.5
1.5
1.5
1.5
1.5
1.5
1.5
1.5
1.5
1.5
1.5
1.5
1.5
1.5
1.5
1.5
1.5
1.5
1.5
1.5
1.5
1.5
1.5
1.5
1.5
1.5
1.5
1.5
1.5
1.5
1.5
1.5
1.5
1.5
1.5
1.5
1.5
1.5
1.5
1.5
1.5
1.5
1.5
1.5
1.5
1.5
1.5
1.5
1.5
1.5
1.5
1.5
1.5
1.5
1.5
1.5
1.5
1.5
1.5
1.5
1.5
1.5
1.5
1.5
1.5
1.5
1.5
1.5
1.5
1.5
1.5
1.5
1.5
1.5
1.5
1.5
1.5
1.5
1.5
1.5
1.5
1.5
1.5
1.5
1.5
1.5
1.5
1.5
1.5
1.5
1.5
1.5
1.5
1.5
1.5
1.5
1.5
1.5
1.5
1.5
1.5
1.5
1.5
1.5
1.5
1.5
1.5
1.5
1.5
1.5
1.5
1.5
1.5
1.5
1.5
1.5
1.5
1.5
1.5
1.5
1.5
1.5
1.5
1.5
1.5
1.5
1.5
1.5
1.5
1.5
1.5
1.5
1.5
1.5
1.5
1.5
1.5
1.5
1.5
1.5
1.5
1.5
1.5
1.5
1.5
1.5
1.5
1.5
1.5
1.5
1.5
1.5
1.5
1.5
1.5
1.5
1.5
1.5
1.5
1.5
1.5
1.5
1.5
1.5
1.5
1.5
1.5
1.5
1.5
1.5
1.5
1.5
1.5
1.5
1.5
1.5
1.5
1.5
1.5
1.5
1.5
1.5
1.5
1.5
1.5
1.5
1.5
1.5
1.5
1.5
1.5
1.5
1.5
1.5
1.5
1.5
1.5
1.5
1.5
1.5
1.5
1.5
1.5
1.5
1.5
1.5
1.5
1.5
1.5
1.5
1.5
1.5
1.5
1.5
1.5
1.5
1.5
1.5
1.5
1.5
1.5
1.5
1.5
1.5
1.5
1.5
1.5
1.5
1.5
1.5
1.5
1.5
1.5
1.5
1.5
1.5
1.5
1.5
1.5
1.5
1.5
1.5
1.5
1.5
1.5
1.5
1.5
1.5
1.5
1.5
1.5
1.5
1.5
1.5
1.5
1.5
1.5
1.5
1.5
1.5
1.5
1.5
1.5
1.5
1.5
1.5
1.5
1.5
1.5
1.5
1.5
1.5
1.5
1.5
1.5
1.5
1.5
1.5
1.5
1.5
1.5
1.5
1.5
1.5
1.5
1.5
1.5
1.5
1.5
1.5
1.5
1.5
1.5
1.5
1.5
1.5
1.5
1.5
1.5
1.5
1.5
1.5
1.5
1.5
1.5
1.5
1.5
1.5
1.5
1.5
1.5
1.5
1.5
1.5
1.5
1.5
1.5
1.5
1.5
1.5
1.5
1.5
1.5
1.5
1.5
1.5
1.5
1.5
1.5
1.5
1.5
1.5
1.5
1.5
1.5
1.5
1.5
1.5
1.5
1.5
1.5
1.5
1.5
1.5
1.5
1.5
1.5
1.5
1.5
1.5
1.5
1.5
1.5
1.5
1.5
1.5
1.5
1.5
1.5
1.5
1.5
1.5
1.5
1.5
1.5
1.5
1.5
1.5
1.5
1.5
1.5
1.5
1.5
1.5
1.5
1.5
1.5
1.5
1.5
1.5
1.5
1.5
1.5
1.5
1.5
1.5
1.5
1.5
1.5
1.5
1.5
1.5
1.5
1.5
1.5
1.5
1.5
1.5
1.5
1.5
1.5
1.5
1.5
1.5
1.5
1.5
1.5
1.5
1.5
1.5
1.5
1.5
1.5
1.5
1.5
1.5
1.5
1.5
1.5
1.5
1.5
1.5
1.5
1.5
1.5
1.5
1.5
1.5
1.5
1.5
1.5
1.5
1.5
1.5
1.5
1.5
1.5
1.5
1.5
1.5
1.5
1.5
1.5
1.5
1.5
1.5
1.5
1.5
1.5
1.5
1.5
1.5
1.5
1.5
1.5
1.5
1.5
1.5
1.5
1.5
1.5
1.5
1.5
1.5
1.5
1.5
1.5
1.5
1.5
1.5
1.5
1.5
1.5
1.5
1.5
1.5
1.5
1.5
1.5
1.5
1.5
1.5
1.5
1.5
1.5
1.5
1.5
1.5
1.5
1.5
1.5
1.5
1.5
1.5
1.5
1.5
1.5
1.5
1.5
1.5
1.5
1.5
1.5
1.5
1.5
1.5
1.5
