# vtk DataFile Version 2.0
Vessel Segment
ASCII
DATASET POLYDATA
POINTS 600 float
-0.1532519307800615 26.369885867208268 -7.0461350912329594
-0.19741944549045076 26.20818751397206 -7.041840824383991
-0.24158696020084003 26.046489160735856 -7.037546557535022
-0.28575447491122924 25.884790807499652 -7.033252290686052
-0.32992198962161856 25.723092454263448 -7.028958023837083
-0.37408950433200805 25.56139410102724 -7.024663756988114
-0.41825701904239737 25.399695747791036 -7.020369490139146
-0.46242453375278675 25.237997394554828 -7.0160752232901755
-0.5065920484631761 25.076299041318627 -7.011780956441207
-0.5507595631735653 24.91460068808242 -7.007486689592238
-0.5949270778839546 24.752902334846212 -7.003192422743269
-0.6390945925943439 24.591203981610008 -6.9988981558943
-0.6832621073047331 24.429505628373803 -6.994603889045331
-0.7274296220151224 24.2678072751376 -6.990309622196362
-0.7715971367255116 24.10610892190139 -6.9860153553473925
-0.8157646514359009 23.944410568665187 -6.981721088498424
-0.8599321661462902 23.78271221542898 -6.9774268216494555
-0.9040996808566792 23.621013862192775 -6.973132554800486
-0.9482671955670686 23.45931550895657 -6.968838287951517
-0.9924347102774578 23.297617155720364 -6.964544021102547
-1.036602224987847 23.13591880248416 -6.960249754253579
-1.0807697396982363 22.974220449247955 -6.95595548740461
-1.1249372544086254 22.812522096011744 -6.95166122055564
-1.1691047691190146 22.650823742775543 -6.947366953706672
-1.2132722838294037 22.48912538953934 -6.943072686857702
-1.2574397985397927 22.32742703630313 -6.938778420008734
-1.3016073132501822 22.165728683066924 -6.934484153159765
-1.3457748279605712 22.00403032983072 -6.930189886310796
-1.3899423426709607 21.842331976594515 -6.925895619461826
-1.4341098573813502 21.68063362335831 -6.921601352612857
-1.4782773720917395 21.518935270122107 -6.9173070857638885
-1.5224448868021283 21.3572369168859 -6.913012818914919
-1.5666124015125178 21.195538563649695 -6.90871855206595
-1.6107799162229073 21.033840210413487 -6.904424285216981
-1.654947430933296 20.872141857177283 -6.900130018368012
-1.6991149456436858 20.71044350394108 -6.895835751519043
-1.7432824603540749 20.548745150704875 -6.891541484670073
-1.7874499750644641 20.387046797468667 -6.887247217821105
-1.831617489774853 20.22534844423246 -6.882952950972136
-1.875785004485242 20.063650090996255 -6.878658684123167
-1.9199525191956313 19.90195173776005 -6.874364417274198
-1.9641200339060205 19.740253384523847 -6.87007015042523
-2.0082875486164093 19.578555031287642 -6.8657758835762595
-2.0524550633267986 19.416856678051435 -6.861481616727291
-2.0966225780371883 19.255158324815227 -6.857187349878322
-2.1407900927475776 19.093459971579023 -6.852893083029352
-2.184957607457967 18.93176161834282 -6.848598816180384
-2.229125122168356 18.77006326510661 -6.844304549331414
-2.2732926368787454 18.608364911870407 -6.840010282482445
-2.3174601515891347 18.4466665586342 -6.8357160156334755
-2.3616276662995244 18.284968205398 -6.831421748784507
-2.405795181009913 18.123269852161787 -6.827127481935538
-2.449962695720303 17.961571498925586 -6.822833215086568
-2.494130210430692 17.79987314568938 -6.8185389482376
-2.538297725141081 17.638174792453174 -6.814244681388631
-2.5824652398514703 17.476476439216967 -6.809950414539662
-2.62663275456186 17.314778085980763 -6.8056561476906925
-2.6708002692722492 17.15307973274456 -6.801361880841723
-2.7149677839826385 16.991381379508354 -6.797067613992755
-2.7591352986930278 16.829683026272143 -6.792773347143784
-2.803302813403417 16.667984673035942 -6.788479080294817
-2.847470328113806 16.506286319799738 -6.784184813445847
-2.8916378428241956 16.34458796656353 -6.779890546596878
-2.9358053575345844 16.182889613327326 -6.7755962797479095
-2.9799728722449736 16.021191260091122 -6.77130201289894
-3.024140386955363 15.859492906854916 -6.767007746049972
-3.068307901665752 15.69779455361871 -6.762713479201002
-3.1124754163761414 15.536096200382502 -6.758419212352033
-3.1566429310865303 15.3743978471463 -6.754124945503063
-3.2008104457969195 15.212699493910094 -6.749830678654095
-3.244977960507309 15.051001140673888 -6.7455364118051255
-3.289145475217698 14.889302787437682 -6.741242144956157
-3.3333129899280878 14.727604434201476 -6.736947878107188
-3.3774805046384766 14.56590608096527 -6.732653611258218
-3.421648019348866 14.404207727729066 -6.728359344409249
-3.4769178286478883 14.246929055318969 -6.716777890914122
-3.5429616332714633 14.093939372016152 -6.698124735778578
-3.6090054378950382 13.940949688713339 -6.679471580643032
-3.680554601394284 13.791061044562868 -6.658079780116408
-3.7604699416189185 13.645884870964599 -6.632526217959458
-3.840385281843553 13.500708697366328 -6.606972655802508
-3.9214171340424135 13.356214390384897 -6.581297399282707
-4.009940194424068 13.216295049814537 -6.554805637586208
-4.098463254805724 13.076375709244175 -6.52831387588971
-4.186986315187379 12.936456368673813 -6.501822114193211
-4.2794042887902375 12.798470427815266 -6.478897246294718
-4.372907853936372 12.66102336478473 -6.456966544253838
-4.4664114190825055 12.523576301754195 -6.435035842212957
-4.560774591099032 12.386142478223164 -6.417881288018642
-4.656189873316324 12.248724859090864 -6.406572468709449
-4.751605155533617 12.111307239958563 -6.395263649400255
-4.846642576457356 11.9735613760608 -6.387952956178067
-4.94037464688054 11.834681565722335 -6.39445409279394
-5.0341067173037235 11.695801755383867 -6.4009552294098135
-5.126670911080404 11.556760986065896 -6.411767194956885
-5.21349290450738 11.416928815780043 -6.443774586810614
-5.300314897934356 11.277096645494195 -6.475781978664345
-5.383141768703694 11.137994850046635 -6.5166664050891905
-5.456140531240583 11.000689796170258 -6.579388573186696
-5.529139293777471 10.863384742293881 -6.642110741284202
-5.591874402718483 10.729998475023894 -6.719970289766885
-5.645049144012675 10.600262471311275 -6.811929975236872
-5.698223885306867 10.470526467598656 -6.903889660706857
-5.735680188696776 10.34829615664723 -7.011481180325288
-5.767500362732125 10.228757147182327 -7.124677775959933
-5.799320536767474 10.109218137717424 -7.237874371594578
-5.815975824202299 9.996748285654618 -7.36080725669572
-5.829547200267802 9.88571600813214 -7.485720100801611
-5.843118576333306 9.774683730609663 -7.610632944907506
-5.846934462233795 9.666806230409865 -7.738790091036242
-5.847443843254343 9.559998003658773 -7.868046853923245
-5.84795322427489 9.453189776907683 -7.997303616810247
-5.844643461656926 9.346259129826302 -8.126359165634934
-5.837390993730384 9.239202101720329 -8.25520699047049
-5.830138525803844 9.132145073614353 -8.38405481530605
-5.822530640859956 9.024694617428706 -8.51254159425731
-5.812128637520443 8.914151218077372 -8.63819000335643
-5.801726634180931 8.80360781872604 -8.76383841245555
-5.7913246308414195 8.693064419374705 -8.88948682155467
-5.781146980593467 8.579330784470894 -9.012234962621942
-5.771084123232194 8.463964828186043 -9.133499147585898
-5.761021265870922 8.348598871901196 -9.25476333254985
-5.751355969570011 8.232493681258484 -9.375329323438411
-5.743550448620416 8.112930380718534 -9.49262918929282
-5.735744927670824 7.9933670801785865 -9.60992905514723
-5.727939406721229 7.873803779638638 -9.72722892100164
-5.721664792679906 7.752821975967306 -9.843145353786184
-5.71611794986171 7.631165836218869 -9.958404122298703
-5.710571107043512 7.509509696470433 -10.073662890811223
-5.705073446359844 7.387985854785057 -10.189062697410778
-5.699802822664585 7.267072733925412 -10.305113570964608
-5.694532198969329 7.146159613065767 -10.421164444518437
-5.68926157527407 7.025246492206121 -10.537215318072267
-5.681675757421248 6.906814833934709 -10.655638654240192
-5.673026120267845 6.789523394416182 -10.775152124257383
-5.664376483114442 6.672231954897657 -10.894665594274572
-5.654065777709877 6.5561626047917 -11.015151436641682
-5.637260348770614 6.4448715850546225 -11.139439223679718
-5.62045491983135 6.333580565317544 -11.263727010717753
-5.603649490892086 6.222289545580467 -11.388014797755787
-5.577223298302423 6.116378444346674 -11.515106076930126
-5.5472370324927605 6.012458131420887 -11.643234762036005
-5.517250766683098 5.908537818495101 -11.771363447141889
-5.482914498116523 5.80646100255959 -11.899621488075411
-5.435572318913259 5.709895989364075 -12.028266285162582
-5.388230139709995 5.613330976168559 -12.156911082249753
-5.3408879605067305 5.516765962973044 -12.285555879336924
-5.278779070440956 5.424593424305805 -12.410768686288963
-5.211689459650802 5.333902440273042 -12.53482390408313
-5.144599848860647 5.24321145624028 -12.658879121877295
-5.0733416534029265 5.153202857716031 -12.780742760921306
-4.986336924950283 5.06577192206346 -12.89432786663751
-4.899332196497641 4.978340986410888 -13.007912972353715
-4.812327468044997 4.890910050758317 -13.12149807806992
-4.713735152144692 4.803584282216059 -13.224614629140115
-4.6086661201995724 4.716317295323894 -13.321879931523037
-4.503597088254452 4.629050308431728 -13.419145233905958
-4.3973881403850905 4.541570382328586 -13.514706415461676
-4.2776169963407025 4.451557003282817 -13.589992750010678
-4.157845852296314 4.361543624237047 -13.665279084559682
-4.038074708251926 4.271530245191278 -13.740565419108687
-3.912433890132036 4.178751451008196 -13.79975158136431
-3.782526032135899 4.083962300455493 -13.8472335030937
-3.652618174139762 3.98917314990279 -13.894715424823087
-3.5217562902067696 3.893239948238895 -13.934353308870556
-3.387655943954168 3.793423239563121 -13.947364432066934
-3.2535555977015655 3.693606530887347 -13.960375555263315
-3.1199153853519284 3.593552967915215 -13.968872409759756
-2.9901295786687454 3.4915153465285105 -13.939554570001306
-2.8603437719855624 3.3894777251418056 -13.910236730242854
-2.7352749531956455 3.2890546932590694 -13.867410120910764
-2.622819750354507 3.192949207314296 -13.788459943912603
-2.51036454751337 3.096843721369522 -13.709509766914442
[...]
POINT_DATA 600
SCALARS MaximumInscribedSphereRadius float
LOOKUP_TABLE default
1.5
1.5
1.5
1.5
1.5
1.5
1.5
1.5
1.5
1.5
1.5
1.5
1.5
1.5
1.5
1.5
1.5
1.5
1.5
1.5
1.5
1.5
1.5
1.5
1.5
1.5
1.5
1.5
1.5
1.5
1.5
1.5
1.5
1.5
1.5
1.5
1.5
1.5
1.5
1.5
1.5
1.5
1.5
1.5
1.5
1.5
1.5
1.5
1.5
1.5
1.5
1.5
1.5
1.5
1.5
1.5
1.5
1.5
1.5
1.5
1.5
1.5
1.5
1.5
1.5
1.5
1.5
1.5
1.5
1.5
1.5
1.5
1.5
1.5
1.5
1.5
1.5
1.5
1.5
1.5
1.5
1.5
1.5
1.5
1.5
1.5
1.5
1.5
1.5
1.5
1.5
1.5
1.5
1.5
1.5
1.5
1.5
1.5
1.5
1.5
1.5
1.5
1.5
1.5
1.5
1.5
1.5
1.5
1.5
1.5
1.5
1.5
1.5
1.5
1.5
1.5
1.5
1.5
1.5
1.5
1.5
1.5
1.5
1.5
1.5
1.5
1.5
1.5
1.5
1.5
1.5
1.5
1.5
1.5
1.5
1.5
1.5
1.5
1.5
1.5
1.5
1.5
1.5
1.5
1.5
1.5
1.5
1.5
1.5
1.5
1.5
1.5
1.5
1.5
1.5
1.5
1.5
1.5
1.5
1.5
1.5
1.5
1.5
1.5
1.5
1.5
1.5
1.5
1.5
1.5
1.5
1.5
1.5
1.5
1.5
1.5
1.5
1.5
1.5
1.5
1.5
1.5
1.5
1.5
1.5
1.5
1.5
1.5
1.5
1.5
1.5
1.5
1.5
1.5
1.5
1.5
1.5
1.5
1.5
1.5
1.5
1.5
1.5
1.5
1.5
1.5
1.5
1.5
1.5
1.5
1.5
1.5
1.5
1.5
1.5
1.5
1.5
1.5
1.5
1.5
1.5
1.5
1.5
1.5
1.5
1.5
1.5
1.5
1.5
1.5
1.5
1.5
1.5
1.5
1.5
1.5
1.5
1.5
1.5
1.5
1.5
1.5
1.5
1.5
1.5
1.5
1.5
1.5
1.5
1.5
1.5
1.5
1.5
1.5
1.5
1.5
1.5
1.5
1.5
1.5
1.5
1.5
1.5
1.5
1.5
1.5
1.5
1.5
1.5
1.5
1.5
1.5
1.5
1.5
1.5
1.5
1.5
1.5
1.5
1.5
1.5
1.5
1.5
1.5
1.5
1.5
1.5
1.5
1.5
1.5
1.5
1.5
1.5
1.5
1.5
1.5
1.5
1.5
1.5
1.5
1.5
1.5
1.5
1.5
1.5
1.5
1.5
1.5
1.5
1.5
1.5
1.5
1.5
1.5
1.5
1.5
1.5
1.5
1.5
1.5
1.5
1.5
1.5
1.5
1.5
1.5
1.5
1.5
1.5
1.5
1.5
1.5
1.5
1.5
1.5
1.5
1.5
1.5
1.5
1.5
1.5
1.5
1.5
1.5
1.5
1.5
1.5
1.5
1.5
1.5
1.5
1.5
1.5
1.5
1.5
1.5
1.5
1.5
1.5
1.5
1.5
1.5
1.5
1.5
1.5
1.5
1.5
1.5
1.5
1.5
1.5
1.5
1.5
1.5
1.5
1.5
1.5
1.5
1.5
1.5
1.5
1.5
1.5
1.5
1.5
1.5
1.5
1.5
1.5
1.5
1.5
1.5
1.5
1.5
1.5
1.5
1.5
1.5
1.5
1.5
1.5
1.5
1.5
1.5
1.5
1.5
1.5
1.5
1.5
1.5
1.5
1.5
1.5
1.5
1.5
1.5
1.5
1.5
1.5
1.5
1.5
1.5
1.5
1.5
1.5
1.5
1.5
1.5
1.5
1.5
1.5
1.5
1.5
1.5
1.5
1.5
1.5
1.5
1.5
1.5
1.5
1.5
1.5
1.5
1.5
1.5
1.5
1.5
1.5
1.5
1.5
1.5
1.5
1.5
1.5
1.5
1.5
1.5
1.5
1.5
1.5
1.5
1.5
1.5
1.5
1.5
1.5
1.5
1.5
1.5
1.5
1.5
1.5
1.5
1.5
1.5
1.5
1.5
1.5
1.5
1.5
1.5
1.5
1.5
1.5
1.5
1.5
1.5
1.5
1.5
1.5
1.5
1.5
1.5
1.5
1.5
1.5
1.5
1.5
1.5
1.5
1.5
1.5
1.5
1.5
1.5
1.5
1.5
1.5
1.5
1.5
1.5
1.5
1.5
1.5
1.5
1.5
1.5
1.5
1.5
1.5
1.5
1.5
1.5
1.5
1.5
1.5
1.5
1.5
1.5
1.5
1.5
1.5
1.5
1.5
1.5
1.5
1.5
1.5
1.5
1.5
1.5
1.5
1.5
1.5
1.5
1.5
1.5
1.5
1.5
1.5
1.5
1.5
1.5
1.5
1.5
1.5
1.5
1.5
1.5
1.5
1.5
1.5
1.5
1.5
1.5
1.5
1.5
1.5
1.5
1.5
1.5
1.5
1.5
1.5
1.5
1.5
1.5
1.5
1.5
1.5
1.5
1.5
1.5
1.5
1.5
1.5
1.5
1.5
1.5
1.5
1.5
1.5
1.5
1.5
1.5
1.5
1.5
1.5
1.5
