# vtk DataFile Version 2.0
Vessel Segment
ASCII
DATASET POLYDATA
POINTS 600 float
6.6421856824963115 25.435643538631936 -3.5192494682417106
6.537670302524822 25.306528974903678 -3.572340051167623
6.433154922553333 25.17741441117542 -3.625430634093535
6.328639542581843 25.04829984744716 -3.6785212170194477
6.224124162610355 24.919185283718903 -3.7316117999453597
6.119608782638866 24.790070719990645 -3.784702382871272
6.015093402667377 24.660956156262387 -3.8377929657971834
5.910578022695889 24.53184159253413 -3.8908835487230955
5.806062642724399 24.40272702880587 -3.943974131649007
5.70154726275291 24.273612465077612 -3.99706471457492
5.597031882781421 24.144497901349354 -4.050155297500832
5.492516502809932 24.015383337621095 -4.103245880426744
5.388001122838443 23.886268773892837 -4.156336463352657
5.283485742866954 23.75715421016458 -4.209427046278569
5.178970362895465 23.628039646436317 -4.262517629204481
5.074454982923976 23.498925082708062 -4.315608212130393
4.969939602952487 23.369810518979804 -4.368698795056305
4.865424222980998 23.240695955251542 -4.4217893779822175
4.760908843009509 23.111581391523284 -4.47487996090813
4.65639346303802 22.982466827795026 -4.527970543834042
4.55187808306653 22.85335226406677 -4.581061126759954
4.447362703095042 22.724237700338513 -4.634151709685867
4.342847323123553 22.595123136610255 -4.687242292611778
4.238331943152064 22.466008572881993 -4.74033287553769
4.1338165631805746 22.336894009153735 -4.793423458463602
4.029301183209085 22.207779445425473 -4.846514041389514
3.924785803237596 22.078664881697218 -4.899604624315426
3.820270423266107 21.94955031796896 -4.952695207241338
3.7157550432946187 21.8204357542407 -5.00578579016725
3.611239663323129 21.691321190512447 -5.058876373093163
3.506724283351639 21.562206626784185 -5.111966956019074
3.40220890338015 21.43309206305593 -5.165057538944987
3.297693523408661 21.303977499327665 -5.218148121870899
3.193178143437172 21.17486293559941 -5.2712387047968114
3.0886627634656834 21.045748371871152 -5.3243292877227235
2.984147383494194 20.91663380814289 -5.377419870648636
2.879632003522705 20.787519244414632 -5.430510453574548
2.7751166235512166 20.658404680686377 -5.48360103650046
2.6706012435797275 20.52929011695812 -5.536691619426372
2.566085863608238 20.400175553229857 -5.589782202352284
2.4615704836367485 20.2710609895016 -5.642872785278197
2.3570551036652594 20.14194642577334 -5.695963368204109
2.2525397236937703 20.012831862045086 -5.749053951130022
2.1480243437222812 19.883717298316824 -5.802144534055934
2.0435089637507926 19.754602734588566 -5.855235116981845
1.9389935837793038 19.625488170860308 -5.908325699907758
1.834478203807815 19.49637360713205 -5.961416282833669
1.7299628238363254 19.36725904340379 -6.014506865759582
1.6254474438648372 19.238144479675533 -6.067597448685493
1.5209320638933475 19.109029915947275 -6.120688031611406
1.4164166839218575 18.979915352219017 -6.173778614537319
1.3119013039503689 18.85080078849076 -6.22686919746323
1.207385923978879 18.7216862247625 -6.279959780389143
1.102870544007391 18.592571661034242 -6.3330503633150546
0.9983551640359016 18.463457097305984 -6.3861409462409675
0.8938397840644124 18.334342533577725 -6.439231529166879
0.7893244040929243 18.205227969849467 -6.49232211209279
0.684809024121435 18.07611340612121 -6.545412695018703
0.5802936441499467 17.94699884239295 -6.598503277944615
0.4757782641784574 17.817884278664692 -6.651593860870527
0.3712628842069682 17.688769714936434 -6.70468444379644
0.26674750423548005 17.559655151208176 -6.757775026722351
0.16223212426399078 17.430540587479918 -6.810865609648263
0.05771674429250197 17.30142602375166 -6.863956192574175
-0.04679863567898794 17.1723114600234 -6.917046775500088
-0.1513140156504778 17.043196896295143 -6.970137358426
-0.25582939562196627 16.914082332566885 -7.023227941351912
-0.3603447755934555 16.784967768838627 -7.076318524277825
-0.46486015556494376 16.65585320511037 -7.1294091072037356
-0.569375535536433 16.52673864138211 -7.1824996901296485
-0.6738909155079227 16.39762407765385 -7.235590273055561
-0.7784062954794112 16.26850951392559 -7.288680855981473
-0.8829216754509008 16.13939495019733 -7.341771438907385
-0.9883654757690505 16.00803039704821 -7.383275568839014
-1.0958957603358452 15.87160933312449 -7.398740898827109
-1.2034260449026397 15.735188269200766 -7.414206228815202
-1.3109563294694335 15.598767205277046 -7.429671558803296
-1.4179903401824017 15.462429078891176 -7.419368460668456
-1.5248285150799488 15.326123680685985 -7.398896821324689
-1.631666689977497 15.18981828248079 -7.378425181980922
-1.7379497093600413 15.054706271209897 -7.351720033342188
-1.8422064853756561 14.923949962610518 -7.302263409629796
-1.9464632613912718 14.793193654011134 -7.252806785917402
-2.050720037406887 14.662437345411753 -7.20335016220501
-2.1534866246715847 14.536886944591371 -7.140244093005961
-2.255517931774791 14.41390521214276 -7.070403194762271
-2.3575492388779975 14.290923479694149 -7.000562296518578
-2.459571327498192 14.168103228677891 -6.93045625676471
-2.5611664454805805 14.052762280934525 -6.848069710602468
-2.6627615634629693 13.93742133319116 -6.765683164440224
-2.7643566814453573 13.822080385447796 -6.683296618277982
-2.866457214846074 13.708429539411044 -6.599296047724384
-2.969929427616587 13.599365568961694 -6.510915072696198
-3.073401640387101 13.49030159851234 -6.42253409766801
-3.1768738531576135 13.38123762806299 -6.334153122639823
-3.282239649738686 13.27416312819155 -6.245628109630842
-3.3898753419606225 13.169473466301529 -6.156930433979256
-3.497511034182561 13.064783804411507 -6.068232758327668
-3.605146726404497 12.960094142521486 -5.979535082676082
-3.7166824764730344 12.856817630118826 -5.894148873582954
-3.830374839877972 12.75432254638995 -5.8105938047507895
-3.9440672032829065 12.651827462661076 -5.727038735918626
-4.057759566687841 12.549332378932203 -5.643483667086463
-4.178030321915303 12.446660774210724 -5.570051568238092
-4.298926471330913 12.343972388001333 -5.497581839337496
-4.4198226207465225 12.241284001791941 -5.425112110436901
-4.5430631691137835 12.137706219544636 -5.358699200520612
-4.670961761918757 12.0323613121822 -5.3043204761511955
-4.798860354723727 11.927016404819767 -5.24994175178178
-4.926758947528699 11.821671497457336 -5.195563027412364
-5.058926274045001 11.711853351526564 -5.166313102713009
-5.1912775585602775 11.601842434607574 -5.1381460855025285
-5.3236288430755545 11.491831517688585 -5.109979068292047
-5.454812955785352 11.377781215688927 -5.108654218390926
-5.585690093450198 11.262668524749722 -5.114389062253478
-5.716567231115046 11.147555833810518 -5.120123906116031
-5.839567692408475 11.030077248294884 -5.155108847602248
-5.960363798637113 10.911936547002693 -5.198279678390254
-6.08115990486575 10.793795845710507 -5.241450509178258
-6.187600129909192 10.676176869397667 -5.312394711606534
-6.2908714740038345 10.55867305733885 -5.389469537933097
-6.394142818098474 10.441169245280037 -5.46654436425966
-6.481578236173698 10.326456770211216 -5.563618803851618
-6.564557967982328 10.21252968160331 -5.66632044844912
-6.647537699790956 10.098602592995405 -5.769022093046621
-6.719575571598061 9.987506125947743 -5.881776122430404
-6.783612519347598 9.87847947044364 -6.001880672407701
-6.847649467097135 9.769452814939537 -6.1219852223850015
-6.908596230454325 9.66144365306501 -6.244320670516287
-6.956397753053744 9.557762776183246 -6.37614606798939
-7.004199275653162 9.454081899301482 -6.507971465462497
-7.05200079825258 9.350401022419717 -6.639796862935601
-7.090463177857169 9.250515851714203 -6.7772272949479095
-7.1240736229799015 9.152602651851169 -6.917569692262369
-7.157684068102634 9.054689451988134 -7.05791208957683
-7.190561547006594 8.957121602398887 -7.198618638643789
-7.2105295461130385 8.865636287404476 -7.345738866229237
-7.230497545219487 8.774150972410062 -7.492859093814689
-7.250465544325932 8.682665657415653 -7.639979321400138
-7.263791746585636 8.594404889855095 -7.78955158079824
-7.269081365870441 8.510045828957153 -7.942090801934892
-7.274370985155247 8.425686768059215 -8.094630023071542
-7.2796606044400525 8.341327707161273 -8.247169244208193
-7.269734493885238 8.263589296197958 -8.402867001983488
-7.258258416429972 8.186525304954648 -8.558886507535291
-7.246782338974706 8.109461313711337 -8.714906013087091
-7.227131482715759 8.035125191149133 -8.871124058276363
-7.196858661779849 7.96433354672755 -9.027600077542601
-7.166585840843941 7.893541902305969 -9.184076096808836
-7.136090446092219 7.822792231432531 -9.340513334610547
-7.086413273095047 7.7556599101098085 -9.493608321888278
-7.036736100097876 7.688527588787087 -9.646703309166007
-6.987058927100703 7.621395267464366 -9.799798296443736
-6.92697430830057 7.554122987295103 -9.948756006107125
-6.859545680369807 7.48675194523302 -10.094794247809705
-6.792117052439044 7.4193809031709375 -10.240832489512279
-6.723257496719125 7.35155930350608 -10.385893738544478
-6.641686652409788 7.279735288234775 -10.522276117911119
-6.560115808100454 7.207911272963472 -10.65865849727776
-6.478544963791119 7.136087257692168 -10.795040876644398
-6.392007432500649 7.060141285010387 -10.925754395527294
-6.300752804577856 6.98028049516912 -11.0510839305194
-6.209498176655064 6.900419705327854 -11.176413465511509
-6.118243548732272 6.820558915486588 -11.301743000503619
-6.022562623437384 6.732121254767835 -11.417471841556607
-5.925844643469585 6.641674085135708 -11.53095129815216
-5.8291266635017855 6.551226915503582 -11.644430754747713
-5.732360686212776 6.460504292607777 -11.757617853522875
-5.633519030841598 6.357869498622094 -11.858161731704183
-5.5346773754704195 6.2552347046364085 -11.958705609885488
-5.435835720099241 6.152599910650724 -12.059249488066794
-5.337048620347514 6.047022959607264 -12.156391200216248
-5.238452277365401 5.9311585921316725 -12.241637048870425
-5.139855934383288 5.815294224656082 -12.326882897524602
-5.0412595914011735 5.699429857180489 -12.412128746178778
[...]
POINT_DATA 600
SCALARS MaximumInscribedSphereRadius float
LOOKUP_TABLE default
1.5
1.5
1.5
1.5
1.5
1.5
1.5
1.5
1.5
1.5
1.5
1.5
1.5
1.5
1.5
1.5
1.5
1.5
1.5
1.5
1.5
1.5
1.5
1.5
1.5
1.5
1.5
1.5
1.5
1.5
1.5
1.5
1.5
1.5
1.5
1.5
1.5
1.5
1.5
1.5
1.5
1.5
1.5
1.5
1.5
1.5
1.5
1.5
1.5
1.5
1.5
1.5
1.5
1.5
1.5
1.5
1.5
1.5
1.5
1.5
1.5
1.5
1.5
1.5
1.5
1.5
1.5
1.5
1.5
1.5
1.5
1.5
1.5
1.5
1.5
1.5
1.5
1.5
1.5
1.5
1.5
1.5
1.5
1.5
1.5
1.5
1.5
1.5
1.5
1.5
1.5
1.5
1.5
1.5
1.5
1.5
1.5
1.5
1.5
1.5
1.5
1.5
1.5
1.5
1.5
1.5
1.5
1.5
1.5
1.5
1.5
1.5
1.5
1.5
1.5
1.5
1.5
1.5
1.5
1.5
1.5
1.5
1.5
1.5
1.5
1.5
1.5
1.5
1.5
1.5
1.5
1.5
1.5
1.5
1.5
1.5
1.5
1.5
1.5
1.5
1.5
1.5
1.5
1.5
1.5
1.5
1.5
1.5
1.5
1.5
1.5
1.5
1.5
1.5
1.5
1.5
1.5
1.5
1.5
1.5
1.5
1.5
1.5
1.5
1.5
1.5
1.5
1.5
1.5
1.5
1.5
1.5
1.5
1.5
1.5
1.5
1.5
1.5
1.5
1.5
1.5
1.5
1.5
1.5
1.5
1.5
1.5
1.5
1.5
1.5
1.5
1.5
1.5
1.5
1.5
1.5
1.5
1.5
1.5
1.5
1.5
1.5
1.5
1.5
1.5
1.5
1.5
1.5
1.5
1.5
1.5
1.5
1.5
1.5
1.5
1.5
1.5
1.5
1.5
1.5
1.5
1.5
1.5
1.5
1.5
1.5
1.5
1.5
1.5
1.5
1.5
1.5
1.5
1.5
1.5
1.5
1.5
1.5
1.5
1.5
1.5
1.5
1.5
1.5
1.5
1.5
1.5
1.5
1.5
1.5
1.5
1.5
1.5
1.5
1.5
1.5
1.5
1.5
1.5
1.5
1.5
1.5
1.5
1.5
1.5
1.5
1.5
1.5
1.5
1.5
1.5
1.5
1.5
1.5
1.5
1.5
1.5
1.5
1.5
1.5
1.5
1.5
1.5
1.5
1.5
1.5
1.5
1.5
1.5
1.5
1.5
1.5
1.5
1.5
1.5
1.5
1.5
1.5
1.5
1.5
1.5
1.5
1.5
1.5
1.5
1.5
1.5
1.5
1.5
1.5
1.5
1.5
1.5
1.5
1.5
1.5
1.5
1.5
1.5
1.5
1.5
1.5
1.5
1.5
1.5
1.5
1.5
1.5
1.5
1.5
1.5
1.5
1.5
1.5
1.5
1.5
1.5
1.5
1.5
1.5
1.5
1.5
1.5
1.5
1.5
1.5
1.5
1.5
1.5
1.5
1.5
1.5
1.5
1.5
1.5
1.5
1.5
1.5
1.5
1.5
1.5
1.5
1.5
1.5
1.5
1.5
1.5
1.5
1.5
1.5
1.5
1.5
1.5
1.5
1.5
1.5
1.5
1.5
1.5
1.5
1.5
1.5
1.5
1.5
1.5
1.5
1.5
1.5
1.5
1.5
1.5
1.5
1.5
1.5
1.5
1.5
1.5
1.5
1.5
1.5
1.5
1.5
1.5
1.5
1.5
1.5
1.5
1.5
1.5
1.5
1.5
1.5
1.5
1.5
1.5
1.5
1.5
1.5
1.5
1.5
1.5
1.5
1.5
1.5
1.5
1.5
1.5
1.5
1.5
1.5
1.5
1.5
1.5
1.5
1.5
1.5
1.5
1.5
1.5
1.5
1.5
1.5
1.5
1.5
1.5
1.5
1.5
1.5
1.5
1.5
1.5
1.5
1.5
1.5
1.5
1.5
1.5
1.5
1.5
1.5
1.5
1.5
1.5
1.5
1.5
1.5
1.5
1.5
1.5
1.5
1.5
1.5
1.5
1.5
1.5
1.5
1.5
1.5
1.5
1.5
1.5
1.5
1.5
1.5
1.5
1.5
1.5
1.5
1.5
1.5
1.5
1.5
1.5
1.5
1.5
1.5
1.5
1.5
1.5
1.5
1.5
1.5
1.5
1.5
1.5
1.5
1.5
1.5
1.5
1.5
1.5
1.5
1.5
1.5
1.5
1.5
1.5
1.5
1.5
1.5
1.5
1.5
1.5
1.5
1.5
1.5
1.5
1.5
1.5
1.5
1.5
1.5
1.5
1.5
1.5
1.5
1.5
1.5
1.5
1.5
1.5
1.5
1.5
1.5
1.5
1.5
1.5
1.5
1.5
1.5
1.5
1.5
1.5
1.5
1.5
1.5
1.5
1.5
1.5
1.5
1.5
1.5
1.5
1.5
1.5
1.5
1.5
1.5
1.5
1.5
1.5
1.5
1.5
1.5
1.5
1.5
1.5
1.5
1.5
1.5
1.5
1.5
1.5
1.5
1.5
1.5
1.5
1.5
1.5
1.5
1.5
1.5
1.5
1.5
1.5
1.5
1.5
1.5
1.5
1.5
