# vtk DataFile Version 2.0
Vessel Segment
ASCII
DATASET POLYDATA
POINTS 600 float
5.908960881481386 25.22164653804301 -12.074057946357499
5.791037183428548 25.152780796300572 -11.965646564850589
5.67311348537571 25.083915054558133 -11.85723518334368
5.555189787322871 25.015049312815698 -11.748823801836771
5.437266089270033 24.94618357107326 -11.640412420329861
5.319342391217194 24.87731782933082 -11.532001038822951
5.2014186931643565 24.808452087588385 -11.423589657316043
5.083494995111518 24.739586345845943 -11.315178275809135
4.965571297058679 24.670720604103508 -11.206766894302225
4.84764759900584 24.60185486236107 -11.098355512795315
4.729723900953002 24.53298912061863 -10.989944131288407
4.611800202900163 24.464123378876195 -10.881532749781499
4.493876504847323 24.395257637133756 -10.77312136827459
4.375952806794485 24.326391895391318 -10.664709986767681
4.258029108741646 24.25752615364888 -10.556298605260771
4.1401054106888076 24.18866041190644 -10.447887223753863
4.022181712635969 24.119794670164005 -10.339475842246955
3.9042580145831303 24.05092892842157 -10.231064460740047
3.786334316530292 23.982063186679127 -10.122653079233137
3.668410618477453 23.913197444936692 -10.014241697726227
3.5504869204246146 23.844331703194253 -9.905830316219319
3.4325632223717757 23.775465961451815 -9.79741893471241
3.3146395243189373 23.706600219709376 -9.689007553205501
3.1967158262660993 23.63773447796694 -9.580596171698591
3.07879212821326 23.568868736224502 -9.472184790191683
2.960868430160422 23.500002994482067 -9.363773408684773
2.8429447321075836 23.431137252739624 -9.255362027177865
2.7250210340547447 23.36227151099719 -9.146950645670955
2.607097336001906 23.29340576925475 -9.038539264164047
2.4891736379490674 23.22454002751231 -8.930127882657137
2.371249939896229 23.155674285769877 -8.82171650115023
2.2533262418433906 23.086808544027438 -8.71330511964332
2.1354025437905513 23.017942802285 -8.60489373813641
2.017478845737713 22.94907706054256 -8.496482356629501
1.899555147684874 22.880211318800125 -8.388070975122593
1.7816314496320356 22.811345577057686 -8.279659593615685
1.6637077515791971 22.742479835315248 -8.171248212108775
1.5457840535263585 22.67361409357281 -8.062836830601867
1.42786035547352 22.604748351830374 -7.954425449094957
1.3099366574206814 22.535882610087935 -7.846014067588048
1.1920129593678426 22.467016868345496 -7.73760268608114
1.0740892613150042 22.398151126603057 -7.629191304574231
0.9561655632621656 22.32928538486062 -7.520779923067321
0.8382418652093271 22.260419643118183 -7.412368541560413
0.7203181671564887 22.191553901375745 -7.303957160053504
0.60239446910365 22.12268815963331 -7.195545778546594
0.4844707710508121 22.05382241789087 -7.087134397039686
0.3665470729979735 21.984956676148432 -6.978723015532777
0.24862337494513492 21.916090934405993 -6.870311634025868
0.13069967689229628 21.847225192663558 -6.761900252518959
0.012775978839457636 21.77835945092112 -6.653488871012051
-0.105147719213381 21.70949370917868 -6.545077489505143
-0.22307141726621965 21.64062796743624 -6.436666107998233
-0.34099511531905835 21.571762225693803 -6.328254726491324
-0.45891881337189694 21.502896483951368 -6.219843344984415
-0.5768425114247355 21.43403074220893 -6.111431963477505
-0.6947662094775743 21.36516500046649 -6.003020581970597
-0.812689907530413 21.296299258724055 -5.894609200463687
-0.9306136055832518 21.227433516981613 -5.786197818956779
-1.0485373036360905 21.158567775239177 -5.677786437449869
-1.1664610016889292 21.08970203349674 -5.569375055942961
-1.2843846997417676 21.0208362917543 -5.460963674436052
-1.4023083977946063 20.95197055001186 -5.352552292929143
-1.5202320958474451 20.883104808269426 -5.244140911422234
-1.6381557939002838 20.814239066526987 -5.1357295299153245
-1.7560794919531224 20.74537332478455 -5.0273181484084155
-1.874003190005961 20.67650758304211 -4.9189067669015065
-1.9919268880588 20.607641841299674 -4.8104953853945975
-2.1098505861116386 20.538776099557236 -4.7020840038876885
-2.227774284164477 20.469910357814797 -4.59367262238078
-2.345697982217316 20.40104461607236 -4.485261240873871
-2.4636216802701543 20.33217887432992 -4.376849859366962
-2.581545378322993 20.263313132587484 -4.2684384778600535
-2.6956338201631382 20.157583902159836 -4.191975002471183
-2.8091455854443663 20.04631180611234 -4.120315276178335
-2.922657350725595 19.935039710064842 -4.0486555498854875
-3.025803023968375 19.80119716864372 -4.009140037131929
-3.1271446065476782 19.663426519154676 -3.975218828896986
-3.228486189126981 19.525655869665627 -3.9412976206620423
-3.3203375049015413 19.378399031413743 -3.930318532603138
-3.410042803329926 19.228997097976126 -3.9245273058413677
-3.4997481017583114 19.079595164538507 -3.918736079079598
-3.585181898778628 18.927972280533695 -3.9240543534291943
-3.6681448598256 18.775064694960925 -3.935798882242863
-3.7511078208725706 18.622157109388155 -3.94754341105653
-3.833667735747513 18.469369845058246 -3.9623836173779976
-3.915352310759494 18.316843895653374 -3.9839470482665282
-3.997036885771476 18.164317946248502 -4.005510479155059
-4.078721460783457 18.01179199684363 -4.02707391004359
-4.163656661559755 17.86183495107979 -4.0534871800688945
-4.248811718405624 17.712051653110546 -4.08022846895825
-4.3339667752514925 17.562268355141303 -4.106969757847605
-4.4232824358106315 17.415368536008454 -4.135674222754762
-4.515523335214532 17.270496034275084 -4.165758958204881
-4.607764234618431 17.12562353254171 -4.195843693655002
-4.7030848324972725 16.983187401670985 -4.227359530095768
-4.804435051552838 16.84552134600967 -4.261677263186304
-4.905785270608403 16.70785529034835 -4.295994996276838
-5.009165911791393 16.572297129084788 -4.332031687198833
-5.119473117012797 16.443929820075606 -4.373932415622252
-5.2297803222342 16.315562511066418 -4.4158331440456715
-5.3416396833331445 16.189835348813695 -4.4608364919842005
-5.458103394952085 16.071939977985323 -4.515043521063564
-5.574567106571026 15.954044607156952 -4.569250550142928
-5.691406627793399 15.839930158993113 -4.629598265664973
-5.808866596411386 15.732057870685766 -4.7000840215027875
-5.926326565029374 15.62418558237842 -4.770569777340603
-6.041134646489985 15.520464199452853 -4.850361052287471
-6.153649839948212 15.42033179320091 -4.938198111935909
-6.266165033406438 15.320199386948968 -5.026035171584347
-6.372540052738108 15.222854252136916 -5.123675780744486
-6.475614352792025 15.127007446262178 -5.226586397594428
-6.578688652845941 15.03116064038744 -5.329497014444368
-6.674368381713306 14.935804742379084 -5.439485001023114
-6.766048262001554 14.840714384735715 -5.553301256549373
-6.857728142289802 14.745624027092349 -5.667117512075632
-6.943884271999832 14.649586258968707 -5.784212936522766
-7.024269797649172 14.552558741093115 -5.904734074209942
-7.10465532329851 14.455531223217525 -6.025255211897116
-7.183333793695096 14.357927456336418 -6.146360038469868
-7.253283480487806 14.257377122340404 -6.270449474923264
-7.3232331672805175 14.156826788344393 -6.39453891137666
-7.3931828540732285 14.056276454348378 -6.518628347830056
-7.45624724366345 13.95281520182428 -6.643909638749842
-7.5163356742002385 13.848095793828787 -6.769706072296781
-7.576424104737027 13.7433763858333 -6.89550250584372
-7.635065228966682 13.638064959452805 -7.021428432953865
-7.68494738952604 13.529170692659862 -7.148138043110269
-7.734829550085398 13.420276425866922 -7.27484765326667
-7.784711710644755 13.311382159073977 -7.401557263423074
-7.828090175292712 13.200381839900562 -7.528683041082864
-7.866228826677174 13.087684743794895 -7.656144111172341
-7.904367478061636 12.974987647689229 -7.783605181261817
-7.942506129446098 12.86229055158356 -7.911066251351294
-7.966328760592137 12.746483175743721 -8.0392096808126
-7.990024129682701 12.630648151117036 -8.167359176097703
-8.013719498773266 12.51481312649035 -8.295508671382807
-8.028556388306301 12.397970526749841 -8.423758505824221
-8.034348463023653 12.280099157878213 -8.552110790023713
-8.040140537741003 12.162227789006586 -8.680463074223205
-8.044303863361872 12.044330922044088 -8.808731000604348
-8.028968694369645 11.926128805863907 -8.935989041257727
-8.013633525377417 11.807926689683729 -9.063247081911108
-7.998298356385189 11.68972457350355 -9.190505122564486
-7.966663752293228 11.572804476162403 -9.31549424800035
-7.928557679683194 11.456393386925253 -9.439582531578168
-7.8904516070731585 11.339982297688104 -9.563670815155985
-7.844509122705426 11.224875402232433 -9.685824615055456
-7.784540570627749 11.112102829021628 -9.80451596301962
-7.724572018550073 10.999330255810822 -9.923207310983784
-7.664603466472396 10.886557682600015 -10.041898658947947
-7.587028761816289 10.777936437277722 -10.153975808288784
-7.508323554297284 10.669581751502827 -10.265628255500854
-7.42961834677828 10.561227065727934 -10.377280702712925
-7.344917608664081 10.454465084516462 -10.485713529669537
-7.251440892870449 10.350034429861765 -10.589433626860284
-7.157964177076817 10.245603775207067 -10.69315372405103
-7.064487461283185 10.141173120552368 -10.796873821241775
-6.962773036505139 10.038573202570747 -10.89428503540362
-6.858090088806428 9.936633004881017 -10.989422794177502
-6.753407141107715 9.834692807191288 -11.084560552951382
-6.648724193409003 9.732752609501558 -11.179698311725264
-6.5358219031591425 9.631548115665378 -11.265740776326691
-6.422432732332072 9.530387201947029 -11.351244472523101
-6.309043561505002 9.429226288228678 -11.436748168719511
-6.195020821084743 9.32798180211843 -11.521214422623148
-6.074453101263483 9.22587398609249 -11.594963561139775
-5.953885381442223 9.123766170066549 -11.6687126996564
-5.8333176616209625 9.021658354040609 -11.742461838173027
-5.711185830994566 8.918973040793375 -11.812379456856078
-5.584343383990317 8.814548485121723 -11.870757726778905
-5.457500936986069 8.71012392945007 -11.929135996701728
-5.33065848998182 8.605699373778418 -11.987514266624553
-5.201075937315799 8.49969691687674 -12.035007029304941
[...]
POINT_DATA 600
SCALARS MaximumInscribedSphereRadius float
LOOKUP_TABLE default
1.5
1.5
1.5
1.5
1.5
1.5
1.5
1.5
1.5
1.5
1.5
1.5
1.5
1.5
1.5
1.5
1.5
1.5
1.5
1.5
1.5
1.5
1.5
1.5
1.5
1.5
1.5
1.5
1.5
1.5
1.5
1.5
1.5
1.5
1.5
1.5
1.5
1.5
1.5
1.5
1.5
1.5
1.5
1.5
1.5
1.5
1.5
1.5
1.5
1.5
1.5
1.5
1.5
1.5
1.5
1.5
1.5
1.5
1.5
1.5
1.5
1.5
1.5
1.5
1.5
1.5
1.5
1.5
1.5
1.5
1.5
1.5
1.5
1.5
1.5
1.5
1.5
1.5
1.5
1.5
1.5
1.5
1.5
1.5
1.5
1.5
1.5
1.5
1.5
1.5
1.5
1.5
1.5
1.5
1.5
1.5
1.5
1.5
1.5
1.5
1.5
1.5
1.5
1.5
1.5
1.5
1.5
1.5
1.5
1.5
1.5
1.5
1.5
1.5
1.5
1.5
1.5
1.5
1.5
1.5
1.5
1.5
1.5
1.5
1.5
1.5
1.5
1.5
1.5
1.5
1.5
1.5
1.5
1.5
1.5
1.5
1.5
1.5
1.5
1.5
1.5
1.5
1.5
1.5
1.5
1.5
1.5
1.5
1.5
1.5
1.5
1.5
1.5
1.5
1.5
1.5
1.5
1.5
1.5
1.5
1.5
1.5
1.5
1.5
1.5
1.5
1.5
1.5
1.5
1.5
1.5
1.5
1.5
1.5
1.5
1.5
1.5
1.5
1.5
1.5
1.5
1.5
1.5
1.5
1.5
1.5
1.5
1.5
1.5
1.5
1.5
1.5
1.5
1.5
1.5
1.5
1.5
1.5
1.5
1.5
1.5
1.5
1.5
1.5
1.5
1.5
1.5
1.5
1.5
1.5
1.5
1.5
1.5
1.5
1.5
1.5
1.5
1.5
1.5
1.5
1.5
1.5
1.5
1.5
1.5
1.5
1.5
1.5
1.5
1.5
1.5
1.5
1.5
1.5
1.5
1.5
1.5
1.5
1.5
1.5
1.5
1.5
1.5
1.5
1.5
1.5
1.5
1.5
1.5
1.5
1.5
1.5
1.5
1.5
1.5
1.5
1.5
1.5
1.5
1.5
1.5
1.5
1.5
1.5
1.5
1.5
1.5
1.5
1.5
1.5
1.5
1.5
1.5
1.5
1.5
1.5
1.5
1.5
1.5
1.5
1.5
1.5
1.5
1.5
1.5
1.5
1.5
1.5
1.5
1.5
1.5
1.5
1.5
1.5
1.5
1.5
1.5
1.5
1.5
1.5
1.5
1.5
1.5
1.5
1.5
1.5
1.5
1.5
1.5
1.5
1.5
1.5
1.5
1.5
1.5
1.5
1.5
1.5
1.5
1.5
1.5
1.5
1.5
1.5
1.5
1.5
1.5
1.5
1.5
1.5
1.5
1.5
1.5
1.5
1.5
1.5
1.5
1.5
1.5
1.5
1.5
1.5
1.5
1.5
1.5
1.5
1.5
1.5
1.5
1.5
1.5
1.5
1.5
1.5
1.5
1.5
1.5
1.5
1.5
1.5
1.5
1.5
1.5
1.5
1.5
1.5
1.5
1.5
1.5
1.5
1.5
1.5
1.5
1.5
1.5
1.5
1.5
1.5
1.5
1.5
1.5
1.5
1.5
1.5
1.5
1.5
1.5
1.5
1.5
1.5
1.5
1.5
1.5
1.5
1.5
1.5
1.5
1.5
1.5
1.5
1.5
1.5
1.5
1.5
1.5
1.5
1.5
1.5
1.5
1.5
1.5
1.5
1.5
1.5
1.5
1.5
1.5
1.5
1.5
1.5
1.5
1.5
1.5
1.5
1.5
1.5
1.5
1.5
1.5
1.5
1.5
1.5
1.5
1.5
1.5
1.5
1.5
1.5
1.5
1.5
1.5
1.5
1.5
1.5
1.5
1.5
1.5
1.5
1.5
1.5
1.5
1.5
1.5
1.5
1.5
1.5
1.5
1.5
1.5
1.5
1.5
1.5
1.5
1.5
1.5
1.5
1.5
1.5
1.5
1.5
1.5
1.5
1.5
1.5
1.5
1.5
1.5
1.5
1.5
1.5
1.5
1.5
1.5
1.5
1.5
1.5
1.5
1.5
1.5
1.5
1.5
1.5
1.5
1.5
1.5
1.5
1.5
1.5
1.5
1.5
1.5
1.5
1.5
1.5
1.5
1.5
1.5
1.5
1.5
1.5
1.5
1.5
1.5
1.5
1.5
1.5
1.5
1.5
1.5
1.5
1.5
1.5
1.5
1.5
1.5
1.5
1.5
1.5
1.5
1.5
1.5
1.5
1.5
1.5
1.5
1.5
1.5
1.5
1.5
1.5
1.5
1.5
1.5
1.5
1.5
1.5
1.5
1.5
1.5
1.5
1.5
1.5
1.5
1.5
1.5
1.5
1.5
1.5
1.5
1.5
1.5
1.5
1.5
1.5
1.5
1.5
1.5
1.5
1.5
1.5
1.5
1.5
1.5
1.5
1.5
1.5
1.5
1.5
1.5
1.5
1.5
1.5
1.5
1.5
1.5
1.5
1.5
1.5
1.5
1.5
1.5
1.5
1.5
1.5
1.5
1.5
1.5
1.5
1.5
1.5
