# vtk DataFile Version 2.0
Vessel Segment
ASCII
DATASET POLYDATA
POINTS 600 float
1.905196945496297 26.525803025037288 -11.92631221177747
1.8410636332216352 26.411349663536495 -11.807185366724125
1.7769303209469736 26.2968963020357 -11.688058521670783
1.7127970086723123 26.18244294053491 -11.568931676617439
1.6486636963976502 26.067989579034116 -11.449804831564094
1.5845303841229883 25.953536217533326 -11.330677986510752
1.5203970718483264 25.83908285603253 -11.211551141457408
1.4562637595736643 25.724629494531737 -11.092424296404065
1.3921304472990024 25.610176133030947 -10.97329745135072
1.3279971350243405 25.495722771530147 -10.854170606297377
1.2638638227496788 25.38126941002936 -10.735043761244034
1.1997305104750169 25.266816048528565 -10.61591691619069
1.135597198200355 25.15236268702777 -10.496790071137347
1.0714638859256929 25.03790932552698 -10.377663226084003
1.007330573651031 24.923455964026186 -10.25853638103066
0.9431972613763688 24.809002602525396 -10.139409535977316
0.8790639491017067 24.694549241024603 -10.020282690923972
0.8149306368270447 24.580095879523807 -9.90115584587063
0.7507973245523829 24.465642518023017 -9.782029000817285
0.6866640122777211 24.351189156522224 -9.662902155763941
0.6225307000030593 24.23673579502143 -9.543775310710599
0.5583973877283974 24.12228243352064 -9.424648465657254
0.4942640754537355 24.00782907201984 -9.30552162060391
0.4301307631790734 23.893375710519052 -9.186394775550566
0.36599745090441155 23.77892234901826 -9.067267930497223
0.3018641386297496 23.664468987517466 -8.94814108544388
0.23773082635508766 23.550015626016673 -8.829014240390537
0.17359751408042576 23.43556226451588 -8.709887395337192
0.10946420180576377 23.321108903015087 -8.59076055028385
0.045330889531101794 23.206655541514294 -8.471633705230506
-0.018802422743560178 23.0922021800135 -8.352506860177163
-0.08293573501822207 22.97774881851271 -8.233380015123819
-0.14706904729288384 22.863295457011915 -8.114253170070477
-0.21120235956754566 22.74884209551112 -7.995126325017132
-0.2753356718422074 22.63438873401033 -7.875999479963789
-0.3394689841168692 22.519935372509536 -7.7568726349104455
-0.40360229639153106 22.405482011008743 -7.637745789857102
-0.4677356086661928 22.29102864950795 -7.518618944803759
-0.5318689209408547 22.176575288007157 -7.3994920997504146
-0.5960022332155166 22.062121926506364 -7.280365254697072
-0.6601355454901785 21.94766856500557 -7.161238409643728
-0.7242688577648404 21.83321520350478 -7.0421115645903845
-0.7884021700395022 21.718761842003985 -6.922984719537041
-0.8525354823141641 21.604308480503192 -6.803857874483698
-0.916668794588826 21.489855119002396 -6.684731029430355
-0.9808021068634878 21.375401757501606 -6.565604184377012
-1.04493541913815 21.260948396000813 -6.446477339323668
-1.1090687314128118 21.14649503450002 -6.327350494270324
-1.1732020436874737 21.032041672999227 -6.208223649216981
-1.2373353559621356 20.917588311498434 -6.089096804163637
-1.3014686682367973 20.80313494999764 -5.969969959110293
-1.3656019805114592 20.688681588496845 -5.850843114056949
-1.4297352927861215 20.574228226996055 -5.731716269003606
-1.4938686050607837 20.459774865495262 -5.612589423950261
-1.5580019173354456 20.34532150399447 -5.493462578896918
-1.6221352296101073 20.230868142493676 -5.374335733843575
-1.6862685418847692 20.116414780992883 -5.255208888790231
-1.750401854159431 20.00196141949209 -5.136082043736888
-1.8145351664340927 19.887508057991298 -5.016955198683545
-1.8786684787087546 19.773054696490505 -4.897828353630201
-1.9428017909834163 19.65860133498971 -4.778701508576858
-2.0069351032580784 19.54414797348892 -4.6595746635235145
-2.07106841553274 19.42969461198813 -4.540447818470171
-2.135201727807402 19.315241250487336 -4.421320973416828
-2.1993350400820635 19.200787888986543 -4.302194128363484
-2.2634683523567256 19.08633452748575 -4.183067283310141
-2.3276016646313877 18.971881165984954 -4.063940438256798
-2.3917349769060494 18.857427804484164 -3.944813593203454
-2.4558682891807115 18.742974442983375 -3.8256867481501104
-2.520001601455373 18.628521081482578 -3.7065599030967666
-2.584134913730035 18.514067719981785 -3.5874330580434233
-2.6482682260046966 18.399614358480992 -3.4683062129900795
-2.7401828620695996 18.26829723710159 -3.3930169770762673
-2.8324977457558536 18.136737158265245 -3.3183593128944677
-2.924812629442108 18.005177079428904 -3.2437016487126686
-3.0316210971850945 17.87006862835865 -3.204964386107798
-3.1407377346539795 17.734395082737972 -3.1719476121782924
-3.2498543721228645 17.598721537117296 -3.1389308382487875
-3.364298184657221 17.464869511506894 -3.125821612770152
-3.48145851363703 17.331946343875217 -3.1228639558228357
-3.59861884261684 17.199023176243543 -3.1199062988755197
-3.7169107512049844 17.06740362452116 -3.12249731403244
-3.837899053632362 16.938890404762216 -3.1383100284561154
-3.95888735605974 16.810377185003272 -3.15412274287979
-4.0798756584871185 16.68186396524433 -3.169935457303465
-4.202649419557255 16.55645897556267 -3.1940580259841105
-4.325906105503677 16.431894689546496 -3.2204282162242146
-4.449162791450098 16.30733040353032 -3.246798406464319
-4.572802618921637 16.18342269595387 -3.2743132794084997
-4.697835200827112 16.061901710967394 -3.3059891785193596
-4.822867782732588 15.94038072598092 -3.337665077630219
-4.9479003646380635 15.818859740994444 -3.369340976741078
-5.0740003744485875 15.698946159354005 -3.4028077646770702
-5.200616889261398 15.579810365014236 -3.437141124521432
-5.327233404074211 15.460674570674463 -3.4714744843657943
-5.4541987080123135 15.342101256943765 -3.5064241431012486
-5.582256244603076 15.225289350445017 -3.5433037409427066
-5.710313781193835 15.10847744394627 -3.5801833387841633
-5.838371317784596 14.991665537447522 -3.617062936625621
-5.967750792807497 14.877983760820918 -3.6587799689858054
-6.0971663266914655 14.764387365567181 -3.7006289533151513
-6.226581860575431 14.650790970313443 -3.742477937644497
-6.357140623557398 14.542032979194168 -3.7926565124410105
-6.4878461283685445 14.433896032688143 -3.8439042511904358
-6.6185516331796945 14.325759086182115 -3.895151989939863
-6.75007676058903 14.226294688934654 -3.9599609485889697
-6.8816385871227475 14.127218610609358 -4.025377119504935
-7.013168770588543 14.029682635308875 -4.092781184074275
-7.144463329334952 13.943614775046399 -4.1749877603801835
-7.275757888081358 13.857546914783924 -4.257194336686089
-7.406561180052951 13.775538545205507 -4.34364457721475
-7.536015824556582 13.704674470566072 -4.441744714097673
-7.665470469060217 13.633810395926636 -4.5398448509805975
-7.793982969380394 13.567197067759006 -4.641685496789456
-7.92022092360048 13.510845989233967 -4.752556565053032
-8.046458877820564 13.454494910708933 -4.863427633316607
-8.17219318935662 13.399514808235581 -4.975436532147962
-8.294116746655146 13.354908037817204 -5.096054694640303
-8.416040303953672 13.31030126739883 -5.216672857132647
-8.537963861252198 13.265694496980455 -5.337291019624987
-8.655868534531066 13.226992780061298 -5.463668013338957
-8.772179717428353 13.1906324210683 -5.592328387741675
-8.88849090032564 13.1542720620753 -5.720988762144396
-9.003811450596096 13.118531915781945 -5.850649222834534
-9.112501876348395 13.086942740610501 -5.987003079678725
-9.221192302100693 13.05535356543906 -6.123356936522913
-9.329882727852992 13.023764390267615 -6.259710793367105
-9.433764103506677 12.99278578858406 -6.399735445440241
-9.531670112213483 12.962565839974054 -6.544321153861322
-9.629576120920287 12.93234589136405 -6.688906862282405
-9.72748212962709 12.902125942754047 -6.833492570703483
-9.813328963018368 12.870178348048459 -6.9850080287576946
-9.895701190696462 12.837732967313809 -7.138520153004755
-9.978073418374558 12.805287586579158 -7.292032277251819
-10.05536507212342 12.7713990263019 -7.447512939248929
-10.115515516805193 12.732641362138786 -7.609635196782305
-10.175665961486963 12.693883697975668 -7.771757454315679
-10.235816406168738 12.655126033812554 -7.933879711849055
-10.269532714244642 12.607128964488506 -8.100750380866582
-10.299397643453897 12.557785739989889 -8.26831287999428
-10.32926257266315 12.508442515491272 -8.435875379121974
-10.332970841290752 12.449418035123214 -8.601973364233448
-10.326026627269082 12.38645079570721 -8.767474915786483
-10.319082413247411 12.323483556291206 -8.932976467339522
-10.287571236151773 12.251444968698644 -9.090582760575806
-10.243529555253279 12.174779494075676 -9.244162037364651
-10.199487874354785 12.098114019452709 -9.397741314153492
-10.137633626396603 12.014908978370206 -9.540298946742707
-10.063492492395193 11.927193026109592 -9.675253986969118
-9.989351358393783 11.839477073848979 -9.810209027195532
-9.907698318452805 11.748873131311308 -9.937990299614011
-9.813151124898559 11.653311966123947 -10.053457831039793
-9.718603931344314 11.557750800936585 -10.168925362465574
-9.624056737790067 11.462189635749223 -10.284392893891356
-9.518086144919556 11.361674213976578 -10.384568998320745
-9.411072979298917 11.26070663494584 -10.483349508964473
-9.30405981367828 11.159739055915104 -10.5821300196082
-9.19532913016105 11.057924705759786 -10.677903203334859
-9.080810815294294 10.953256936076095 -10.76354240267741
-8.966292500427537 10.8485891663924 -10.849181602019964
-8.851774185560782 10.743921396708707 -10.934820801362516
-8.735503028528326 10.638419232748289 -11.016810238203616
-8.615959661199692 10.531359419390345 -11.091986288951224
-8.496416293871059 10.424299606032399 -11.167162339698834
-8.376872926542426 10.317239792674455 -11.242338390446442
-8.255857559133347 10.209714812731642 -11.314265754805422
-8.132114551353308 10.101327871452714 -11.380173249828832
-8.008371543573269 9.992940930173786 -11.446080744852246
-7.884628535793231 9.88455398889486 -11.51198823987566
-7.7595044433430616 9.775974804929033 -11.574703110147277
-7.631509871236307 9.666996059130538 -11.630782352206252
-7.5035152991295515 9.558017313332044 -11.686861594265228
[...]
POINT_DATA 600
SCALARS MaximumInscribedSphereRadius float
LOOKUP_TABLE default
1.5
1.5
1.5
1.5
1.5
1.5
1.5
1.5
1.5
1.5
1.5
1.5
1.5
1.5
1.5
1.5
1.5
1.5
1.5
1.5
1.5
1.5
1.5
1.5
1.5
1.5
1.5
1.5
1.5
1.5
1.5
1.5
1.5
1.5
1.5
1.5
1.5
1.5
1.5
1.5
1.5
1.5
1.5
1.5
1.5
1.5
1.5
1.5
1.5
1.5
1.5
1.5
1.5
1.5
1.5
1.5
1.5
1.5
1.5
1.5
1.5
1.5
1.5
1.5
1.5
1.5
1.5
1.5
1.5
1.5
1.5
1.5
1.5
1.5
1.5
1.5
1.5
1.5
1.5
1.5
1.5
1.5
1.5
1.5
1.5
1.5
1.5
1.5
1.5
1.5
1.5
1.5
1.5
1.5
1.5
1.5
1.5
1.5
1.5
1.5
1.5
1.5
1.5
1.5
1.5
1.5
1.5
1.5
1.5
1.5
1.5
1.5
1.5
1.5
1.5
1.5
1.5
1.5
1.5
1.5
1.5
1.5
1.5
1.5
1.5
1.5
1.5
1.5
1.5
1.5
1.5
1.5
1.5
1.5
1.5
1.5
1.5
1.5
1.5
1.5
1.5
1.5
1.5
1.5
1.5
1.5
1.5
1.5
1.5
1.5
1.5
1.5
1.5
1.5
1.5
1.5
1.5
1.5
1.5
1.5
1.5
1.5
1.5
1.5
1.5
1.5
1.5
1.5
1.5
1.5
1.5
1.5
1.5
1.5
1.5
1.5
1.5
1.5
1.5
1.5
1.5
1.5
1.5
1.5
1.5
1.5
1.5
1.5
1.5
1.5
1.5
1.5
1.5
1.5
1.5
1.5
1.5
1.5
1.5
1.5
1.5
1.5
1.5
1.5
1.5
1.5
1.5
1.5
1.5
1.5
1.5
1.5
1.5
1.5
1.5
1.5
1.5
1.5
1.5
1.5
1.5
1.5
1.5
1.5
1.5
1.5
1.5
1.5
1.5
1.5
1.5
1.5
1.5
1.5
1.5
1.5
1.5
1.5
1.5
1.5
1.5
1.5
1.5
1.5
1.5
1.5
1.5
1.5
1.5
1.5
1.5
1.5
1.5
1.5
1.5
1.5
1.5
1.5
1.5
1.5
1.5
1.5
1.5
1.5
1.5
1.5
1.5
1.5
1.5
1.5
1.5
1.5
1.5
1.5
1.5
1.5
1.5
1.5
1.5
1.5
1.5
1.5
1.5
1.5
1.5
1.5
1.5
1.5
1.5
1.5
1.5
1.5
1.5
1.5
1.5
1.5
1.5
1.5
1.5
1.5
1.5
1.5
1.5
1.5
1.5
1.5
1.5
1.5
1.5
1.5
1.5
1.5
1.5
1.5
1.5
1.5
1.5
1.5
1.5
1.5
1.5
1.5
1.5
1.5
1.5
1.5
1.5
1.5
1.5
1.5
1.5
1.5
1.5
1.5
1.5
1.5
1.5
1.5
1.5
1.5
1.5
1.5
1.5
1.5
1.5
1.5
1.5
1.5
1.5
1.5
1.5
1.5
1.5
1.5
1.5
1.5
1.5
1.5
1.5
1.5
1.5
1.5
1.5
1.5
1.5
1.5
1.5
1.5
1.5
1.5
1.5
1.5
1.5
1.5
1.5
1.5
1.5
1.5
1.5
1.5
1.5
1.5
1.5
1.5
1.5
1.5
1.5
1.5
1.5
1.5
1.5
1.5
1.5
1.5
1.5
1.5
1.5
1.5
1.5
1.5
1.5
1.5
1.5
1.5
1.5
1.5
1.5
1.5
1.5
1.5
1.5
1.5
1.5
1.5
1.5
1.5
1.5
1.5
1.5
1.5
1.5
1.5
1.5
1.5
1.5
1.5
1.5
1.5
1.5
1.5
1.5
1.5
1.5
1.5
1.5
1.5
1.5
1.5
1.5
1.5
1.5
1.5
1.5
1.5
1.5
1.5
1.5
1.5
1.5
1.5
1.5
1.5
1.5
1.5
1.5
1.5
1.5
1.5
1.5
1.5
1.5
1.5
1.5
1.5
1.5
1.5
1.5
1.5
1.5
1.5
1.5
1.5
1.5
1.5
1.5
1.5
1.5
1.5
1.5
1.5
1.5
1.5
1.5
1.5
1.5
1.5
1.5
1.5
1.5
1.5
1.5
1.5
1.5
1.5
1.5
1.5
1.5
1.5
1.5
1.5
1.5
1.5
1.5
1.5
1.5
1.5
1.5
1.5
1.5
1.5
1.5
1.5
1.5
1.5
1.5
1.5
1.5
1.5
1.5
1.5
1.5
1.5
1.5
1.5
1.5
1.5
1.5
1.5
1.5
1.5
1.5
1.5
1.5
1.5
1.5
1.5
1.5
1.5
1.5
1.5
1.5
1.5
1.5
1.5
1.5
1.5
1.5
1.5
1.5
1.5
1.5
1.5
1.5
1.5
1.5
1.5
1.5
1.5
1.5
1.5
1.5
1.5
1.5
1.5
1.5
1.5
1.5
1.5
1.5
1.5
1.5
1.5
1.5
1.5
1.5
1.5
1.5
1.5
1.5
1.5
1.5
1.5
1.5
1.5
1.5
1.5
1.5
1.5
1.5
1.5
1.5
1.5
1.5
1.5
1.5
1.5
1.5
1.5
1.5
1.5
