/*--------------------------------*- C++ -*----------------------------------*\
| =========                 |                                                 |
| \\      /  F ield         | OpenFOAM: The Open Source CFD Toolbox           |
|  \\    /   O peration     | Version:  v1612+                                |
|   \\  /    A nd           | Web:      www.OpenFOAM.com                      |
|    \\/     M anipulation  |                                                 |
\*---------------------------------------------------------------------------*/
FoamFile
{
    version     2.0;
    format      ascii;
    class       volScalarField;
    location    "50";
    object      p;
}
// * * * * * * * * * * * * * * * * * * * * * * * * * * * * * * * * * * * * * //

dimensions      [0 2 -2 0 0 0 0];

internalField   nonuniform List<scalar> 
18963
(
1.44506
1.48454
1.44663
1.43854
1.46181
1.4758
1.48463
1.46
1.41933
1.46383
1.45703
1.43075
1.37793
1.43833
1.43974
1.41704
1.50468
1.49672
1.54535
1.5923
1.56258
1.54356
1.48289
1.49512
1.55239
1.57059
1.50397
1.57125
1.51364
1.51418
1.83646
1.82153
1.89164
1.86527
1.87
1.88762
1.88758
1.9203
1.85765
1.87932
1.88755
1.88447
1.89737
1.91955
1.91674
1.60048
1.5891
1.72161
1.71331
1.64943
1.65188
1.61413
1.59823
1.69398
1.72196
1.57843
1.6066
1.60731
1.60461
1.6316
1.62535
1.69547
1.63252
1.64501
1.64551
1.66908
1.65627
1.43932
1.44373
1.46016
1.45858
1.45526
1.45037
1.4721
1.47704
1.46248
1.47649
1.47334
1.46629
1.47745
1.48503
1.47015
1.48032
1.4727
1.48351
1.48592
1.41418
1.41917
1.40601
1.41764
1.41205
1.40731
1.42386
1.41816
1.41528
1.40518
1.41386
1.41902
1.40539
1.4393
1.44931
1.44082
1.44404
1.44133
1.45435
1.45168
1.42552
1.43865
1.4281
1.44906
1.44689
1.42147
1.42879
1.42526
1.44366
1.45108
1.44622
1.44908
1.45741
1.4327
1.45614
1.43005
1.41865
1.46884
1.45444
1.39948
1.45691
1.4206
1.47473
1.47603
1.48669
1.48064
1.47228
1.4077
1.40807
1.39856
1.40069
1.40334
1.38822
1.40117
1.39279
1.42917
1.42148
1.41298
1.37612
1.38807
1.43152
1.42112
1.40768
1.41386
1.40934
1.40937
1.40893
1.41357
1.39701
1.39702
1.39357
1.38174
1.38247
1.39456
1.4027
1.39069
1.38966
1.37257
1.37874
1.38366
1.38775
1.37915
1.36852
1.36361
1.39227
1.37647
1.39727
1.39866
1.39142
1.39426
1.40478
1.42029
1.40821
1.43436
1.4293
1.41528
1.39623
1.41056
1.44692
1.38707
1.43342
1.44526
1.44872
1.44375
1.42225
1.45697
1.42125
1.4536
1.45525
1.44924
1.44775
1.44778
1.44648
1.44817
1.45442
1.45586
1.45851
1.45352
1.44459
1.45406
1.44911
1.45609
1.45146
1.4524
1.5412
1.53073
1.52295
1.48868
1.52447
1.54226
1.50976
1.50177
1.45368
1.50414
1.4782
1.46918
1.51824
1.48342
1.52021
1.43813
1.43939
1.43894
1.4418
1.43797
1.44088
1.42957
1.43323
1.44449
1.43865
1.43927
1.44038
1.43978
1.43587
1.41803
1.42313
1.41883
1.42853
1.41662
1.42188
1.41132
1.41521
1.4149
1.41583
1.41806
1.43153
1.39753
1.413
1.40247
1.42881
1.40628
1.40032
1.41978
1.43517
1.47792
1.47397
1.51271
1.50462
1.4322
1.43083
1.42552
1.42042
1.43762
1.43086
1.4342
1.42627
1.41595
1.42373
1.408
1.39944
1.42458
1.3945
1.39854
1.40128
1.41694
1.3937
1.42165
1.4105
1.39697
1.40208
1.41488
1.39978
1.39366
1.3835
1.39796
1.40261
1.40363
1.38818
1.3916
1.39306
1.4029
1.40102
1.40945
1.39272
1.39312
1.39305
1.38863
1.39165
1.39374
1.38776
1.43861
1.45309
1.43072
1.43396
1.44287
1.42991
1.42674
1.44106
1.40432
1.45114
1.43801
1.41656
1.42706
1.4373
1.44125
1.43713
1.44635
1.44388
1.39082
1.37598
1.39923
1.41485
1.37339
1.40014
1.43538
1.42704
1.41586
1.41143
1.45484
1.4466
1.38701
1.39709
1.44317
1.42783
1.41229
1.45279
1.43166
1.42377
1.4583
1.4833
1.42265
1.41938
1.41709
1.47137
1.47573
1.50761
1.50286
1.46845
1.48593
1.43113
1.48364
1.43729
1.43454
1.43776
1.43118
1.43804
1.43711
1.44037
1.43739
1.43331
1.43908
1.43669
1.43677
1.44335
1.43249
1.43487
1.43828
1.43168
1.43798
1.44372
1.43769
1.49042
1.50579
1.49302
1.49856
1.50974
1.52084
1.50938
1.50267
1.50602
1.5021
1.50953
1.52488
1.49852
1.50623
1.52882
1.49423
1.52683
1.51826
1.45433
1.45674
1.44622
1.44063
1.446
1.45237
1.45403
1.45399
1.45256
1.44415
1.45436
1.45128
1.44595
1.45277
1.45543
1.45017
1.45099
1.45134
1.43018
1.42545
1.42133
1.45753
1.45404
1.44274
1.43851
1.42723
1.4101
1.43702
1.44674
1.44074
1.40312
1.40651
1.40601
1.42142
1.42621
1.40931
1.45231
1.45414
1.45514
1.45452
1.45476
1.45406
1.45487
1.45601
1.45147
1.45394
1.45242
1.44775
1.45734
1.45403
1.45403
1.45435
1.45702
1.45945
1.45881
1.45683
1.40726
1.40492
1.41005
1.38937
1.40537
1.39939
1.37795
1.39189
1.39769
1.3851
1.39504
1.38048
1.37792
1.38611
1.40137
1.39272
1.38961
1.40447
1.48096
1.4806
1.47684
1.47725
1.48687
1.45477
1.45743
1.45867
1.46509
1.43064
1.42212
1.44557
1.47132
1.43594
1.434
1.41891
1.41032
1.45309
1.44035
1.44746
1.45799
1.41687
1.41702
1.41452
1.41277
1.41905
1.41157
1.41107
1.45164
1.44898
1.45852
1.44138
1.44816
1.45888
1.45186
1.4369
1.45346
1.4513
1.43644
1.42657
1.42694
1.43655
1.4151
1.4254
1.44422
1.44465
1.4389
1.44478
1.4448
1.43995
1.42295
1.43941
1.4382
1.42379
1.44127
1.45248
1.45209
1.44899
1.45261
1.4309
1.43356
1.45805
1.44369
1.44604
1.43343
1.44144
1.45046
1.4364
1.43496
1.44199
1.38273
1.38666
1.39265
1.40473
1.40242
1.40373
1.38616
1.39703
1.39882
1.40093
1.40742
1.3918
1.39737
1.41122
1.40297
1.40206
1.40252
1.41739
1.41204
1.41437
1.43195
1.41552
1.41895
1.43039
1.44497
1.44518
1.4353
1.43328
1.43549
1.43297
1.43468
1.41733
1.40875
1.42191
1.39835
1.4468
1.43063
1.41963
1.41163
1.3976
1.39882
1.42321
1.41333
1.40064
1.40452
1.40059
1.42346
1.49239
1.47994
1.46916
1.45672
1.49592
1.49203
1.49656
1.47673
1.49075
1.47125
1.45044
1.44944
1.48178
1.48205
1.46621
1.45119
1.44018
1.42509
1.45889
1.45568
1.46165
1.43624
1.40992
1.46948
1.48871
1.47876
1.51086
1.421
1.46448
1.49514
1.46878
1.43816
1.47552
1.49748
1.49789
1.50309
1.46766
1.49729
1.47629
1.46607
1.47833
1.47556
1.50988
1.47402
1.48347
1.45805
1.45329
1.4504
1.45711
1.48978
1.46895
1.47981
1.47336
1.34394
1.36633
1.47256
1.45949
1.46252
1.43983
1.44101
1.42938
1.43591
1.41849
1.42393
1.43895
1.40585
1.40524
1.42042
1.84928
1.76165
1.79708
1.84441
1.75236
1.73897
1.85404
1.77154
1.84323
1.74673
1.77011
1.44848
1.45065
1.45343
1.4543
1.45242
1.44618
1.45306
1.44679
1.44859
1.44445
1.44654
1.44928
1.44938
1.45229
1.4226
1.41924
1.42455
1.40939
1.38695
1.39191
1.39344
1.39813
1.38235
1.3764
1.41523
1.39766
1.3951
1.39379
1.42292
1.42633
1.41802
1.43113
1.43494
1.4234
1.43138
1.43453
1.441
1.41
1.41959
1.43291
1.42998
1.4149
1.45055
1.43262
1.39976
1.40365
1.42069
1.43444
1.4067
1.42779
1.44051
1.40877
1.43911
1.43862
1.43804
1.40677
1.39902
1.4179
1.42055
1.41399
1.41882
1.43867
1.4372
1.42016
1.40735
1.44511
1.44302
1.40601
1.43886
1.44137
1.40051
1.42937
1.45165
1.45717
1.42321
1.39943
1.41845
1.45644
1.46642
1.44358
1.4381
1.46724
1.43671
1.4479
1.46
1.45222
1.42674
1.44956
1.4398
1.40956
1.45436
1.43137
1.40959
1.45059
1.43088
1.42236
1.45623
1.45248
1.4417
1.4497
1.43436
1.43454
1.45267
1.45653
1.43582
1.43581
1.44697
1.43801
1.42323
1.42606
1.40613
1.41419
1.46555
1.46183
1.44451
1.4308
1.5731
1.5869
1.55244
1.54516
1.59258
1.60233
1.58559
1.64778
1.62852
1.53004
1.54629
1.61334
1.62778
1.57105
1.61013
1.58111
1.37607
1.38811
1.39544
1.39615
1.40943
1.38787
1.37482
1.39864
1.39648
1.39209
1.40242
1.40693
1.39312
1.39814
1.38903
1.41212
1.39005
1.36855
1.43313
1.43476
1.43395
1.41371
1.41919
1.42763
1.42389
1.42015
1.42589
1.43105
1.43606
1.43696
1.42735
1.41208
1.41937
1.43441
1.44047
1.4394
1.44231
1.63686
1.64418
1.63208
1.65968
1.64896
1.64209
1.68001
1.6757
1.67427
1.71078
1.70741
1.67356
1.61298
1.64579
1.67133
1.6984
1.66955
1.69435
1.69886
1.69752
1.40308
1.40376
1.40091
1.40141
1.3926
1.41774
1.4233
1.4149
1.4123
1.41919
1.42249
1.41644
1.41605
1.40074
1.41188
1.42503
1.4224
1.41975
1.4111
1.41141
1.40829
1.41034
1.40383
1.42496
1.4141
1.40649
1.45403
1.45343
1.45214
1.44305
1.45055
1.45604
1.45925
1.42882
1.43408
1.43697
1.43925
1.46037
1.4582
1.47189
1.45125
1.44709
1.43378
1.44997
1.46682
1.4592
1.46012
1.4516
1.48955
1.46279
1.45647
1.44281
1.45774
1.48249
1.48085
1.44749
1.48529
1.46597
1.42085
1.43613
1.44894
1.45146
1.46383
1.46154
1.47063
1.45985
1.44297
1.46588
1.44453
1.44755
1.43733
1.43296
1.42735
1.42849
1.43935
1.45473
1.45252
1.45382
1.44596
1.4377
1.44393
1.44997
1.44303
1.45836
1.47069
1.49295
1.45696
1.45954
1.4809
1.44894
1.44416
1.47452
1.4562
1.44767
1.44484
1.43835
1.38269
1.39557
1.3791
1.37878
1.38429
1.37458
1.37455
1.39486
1.40218
1.40041
1.39679
1.38328
1.37299
1.37566
1.36955
1.36634
1.36621
1.36701
1.36767
1.35417
1.34828
1.34016
1.35892
1.35354
1.34148
1.33655
1.34927
1.35264
1.34005
1.34857
1.33662
1.453
1.45576
1.44863
1.46615
1.4348
1.43562
1.46156
1.46358
1.44681
1.45018
1.42059
1.45504
1.41574
1.40165
1.43751
1.42696
1.43645
1.41352
1.38923
1.38226
1.38421
1.37869
1.38314
1.37668
1.38879
1.37861
1.37777
1.37235
1.37771
1.37632
1.38269
1.38418
1.38359
1.37375
1.37744
1.37561
1.45133
1.45589
1.45388
1.4552
1.45839
1.46099
1.45556
1.44757
1.44729
1.45857
1.46246
1.45559
1.44912
1.44333
1.45405
1.45364
1.46528
1.44225
1.44314
1.43565
1.43585
1.39851
1.39683
1.40977
1.4151
1.43663
1.4325
1.43515
1.42545
1.44106
1.43178
1.43945
1.43574
1.32913
1.33381
1.45716
1.45433
1.45706
1.45989
1.44975
1.38086
1.37787
1.36738
1.40669
1.40403
1.43516
1.43366
1.35058
1.354
1.44716
1.44806
1.44376
1.44203
1.47523
1.47693
1.46968
1.47581
1.44568
1.44418
1.45069
1.4552
1.44637
1.4511
1.45892
1.45798
1.47198
1.38727
1.38908
1.44762
1.44715
1.44447
1.45532
1.45231
1.45236
1.38342
1.38351
1.39166
1.45167
1.44769
1.43062
1.42966
1.43157
1.46983
1.46786
1.38333
1.37674
1.37515
1.45881
1.4522
1.4557
1.43206
1.41939
1.42561
1.43566
1.43242
1.43091
1.4541
1.49775
1.50575
1.45896
1.45798
1.45075
1.45239
1.39468
1.39463
1.39209
1.45352
1.45515
1.42572
1.42112
1.54727
1.55045
1.54095
1.54492
1.53001
1.42836
1.42244
1.48026
1.47787
1.4833
1.45157
1.45014
1.45133
1.46023
1.45804
1.45188
1.44475
1.44428
1.40164
1.41767
1.42776
1.56651
1.56241
1.44927
1.44548
1.44873
1.54148
1.56101
1.39847
1.40289
1.41
1.48196
1.47031
1.45902
1.43796
1.44332
1.43642
1.48498
1.47697
1.43989
1.44195
1.45103
1.45518
1.65014
1.65103
1.63838
1.54014
1.51687
1.50934
1.49352
1.54363
1.58134
1.56631
1.40472
1.41362
1.47257
1.46392
1.50014
1.43824
1.43066
1.4291
1.42533
1.41362
1.4143
1.41033
1.40084
1.39627
1.42878
1.43164
1.42458
1.72941
1.72603
1.73603
1.57948
1.57134
1.43295
1.43126
1.42962
1.43154
1.43206
1.42287
1.4345
1.59952
1.59219
1.54346
1.76894
1.70881
1.7341
1.46965
1.44325
1.44549
1.42493
1.43608
1.43565
1.40282
1.43586
1.42264
1.4205
1.42547
1.43355
1.42524
1.42901
1.5348
1.51405
1.47811
1.42812
1.42557
1.47975
1.45705
1.45972
1.43314
1.43358
1.4377
1.91299
1.88914
1.8574
1.88188
1.85291
1.79044
1.74534
1.76762
1.65881
1.5982
1.64213
1.75688
1.72784
1.57858
1.60165
1.6337
1.8272
1.79612
1.70025
1.67995
1.42278
1.44999
1.44976
1.50539
1.4979
1.47862
1.44339
1.4563
1.46676
1.51557
1.45505
1.44681
1.49147
1.50257
1.82031
1.80156
1.81851
1.78279
1.83626
1.83371
1.83325
1.85526
1.85317
1.82765
1.85964
1.87134
1.85958
1.88015
1.82781
1.83735
1.82326
1.80511
1.85529
1.92093
1.91921
1.89138
1.36536
1.39673
1.39628
1.39333
1.3981
1.39373
1.4416
1.42754
1.43941
1.43181
1.42641
1.43253
1.43221
1.42385
1.44773
1.44679
1.45343
1.45493
1.4194
1.43424
1.42977
1.45043
1.43904
1.51996
1.54292
1.48755
1.49256
1.48986
1.41825
1.43443
1.41501
1.4211
1.43426
1.41951
1.39723
1.41751
1.42339
1.44211
1.47085
1.4891
1.46237
1.47638
1.46743
1.45438
1.68364
1.67516
1.66789
1.55735
1.60452
1.55118
1.5002
1.51757
1.54884
1.53344
1.52505
1.62017
1.63389
1.44825
1.43773
1.47984
1.43817
1.44265
1.50798
1.49425
1.43657
1.43341
1.44104
1.44002
1.43334
1.43506
1.43179
1.4309
1.4273
1.43427
1.43096
1.42724
1.43156
1.43008
1.42776
1.43376
1.43361
1.42927
1.41082
1.41584
1.42459
1.4135
1.42509
1.40626
1.44683
1.43331
1.43754
1.44333
1.41038
1.44607
1.41489
1.43421
1.42381
1.4108
1.42308
1.4158
1.43322
1.42899
1.419
1.4233
1.55412
1.53722
1.53995
1.48149
1.46923
1.48572
1.46999
1.46078
1.79794
1.79547
1.61341
1.61468
1.63603
1.72256
1.6963
1.72627
1.70814
1.66944
1.657
1.6549
1.61939
1.61614
1.49966
1.4956
1.52157
1.53119
1.55521
1.69429
1.71846
1.68273
1.66185
1.42598
1.42389
1.43454
1.43502
1.43641
1.43729
1.43658
1.43573
1.4377
1.57373
1.59407
1.56951
1.49854
1.49531
1.51026
1.64042
1.64283
1.65119
1.61631
1.57975
1.5419
1.55145
1.52597
1.55147
1.54913
1.55671
1.55242
1.54433
1.48965
1.50893
1.50104
1.52359
1.51276
1.67298
1.68523
1.69575
1.70409
1.67051
1.75149
1.73249
1.75521
1.70981
1.7241
1.71253
1.43915
1.44235
1.43806
1.42763
1.43134
1.42717
1.3758
1.39942
1.38482
1.38989
1.38122
1.38825
1.39129
1.37829
1.38283
1.3751
1.37818
1.387
1.39338
1.41614
1.42957
1.44052
1.40253
1.4116
1.49496
1.46621
1.47918
1.44724
1.41675
1.42267
1.44471
1.42667
1.42498
1.43199
1.45281
1.48504
1.46861
1.4793
1.46456
1.45798
1.45018
1.44983
1.43519
1.43269
1.43219
1.41631
1.43396
1.43058
1.41633
1.43872
1.44826
1.44816
1.4181
1.44012
1.43064
1.44841
1.4224
1.42017
1.41647
1.42488
1.42734
1.43003
1.42735
1.41317
1.39984
1.40706
1.43462
1.46221
1.47691
1.46279
1.43219
1.42623
1.43153
1.434
1.44001
1.43325
1.42756
1.52276
1.48743
1.47766
1.47537
1.47654
1.5329
1.54283
1.48424
1.47398
1.42411
1.41876
1.41922
1.41909
1.4335
1.4367
1.43486
1.4408
1.39981
1.40585
1.39566
1.39542
1.4019
1.39986
1.40779
1.62515
1.6436
1.62365
1.64835
1.61389
1.63786
1.60974
1.5864
1.55348
1.56003
1.55155
1.53878
1.57152
1.5858
1.58391
1.58074
1.59505
1.59264
1.55956
1.53659
1.57364
1.582
1.56663
1.60203
1.59155
1.5021
1.4898
1.51105
1.5219
1.49886
1.47715
1.48012
1.46614
1.48634
1.6263
1.63317
1.63532
1.59858
1.60113
1.60034
1.61299
1.60618
1.69021
1.67732
1.6536
1.69089
1.68051
1.65714
1.64135
1.65003
1.62059
1.65623
1.62601
1.63109
1.65653
1.64288
1.44271
1.45012
1.45152
1.45538
1.46361
1.45525
1.47111
1.47707
1.46289
1.44027
1.4504
1.47348
1.45725
1.45064
1.44085
1.43245
1.44859
1.43645
1.43476
1.43287
1.4358
1.42952
1.4147
1.41255
1.44667
1.44451
1.448
1.44748
1.446
1.44698
1.44952
1.45042
1.50964
1.49314
1.49983
1.48981
1.50364
1.4993
1.48302
1.48249
1.50718
1.48309
1.457
1.45243
1.4538
1.47538
1.46712
1.46948
1.48151
1.47045
1.46958
1.49133
1.47397
1.47115
1.44915
1.46788
1.45412
1.45918
1.46066
1.45553
1.47116
1.46519
1.44082
1.45341
1.44335
1.4465
1.43269
1.44252
1.43865
1.4357
1.43821
1.43945
1.43274
1.43647
1.43893
1.43493
1.42666
1.4269
1.42864
1.44138
1.42393
1.44305
1.44093
1.45863
1.44407
1.48011
1.46661
1.42266
1.44184
1.42701
1.45006
1.45545
1.47751
1.44719
1.46434
1.47922
1.46637
1.51079
1.4789
1.45901
1.51832
1.40892
1.40181
1.39815
1.40137
1.40488
1.39867
1.40366
1.40574
1.40379
1.58095
1.57554
1.54
1.55465
1.56046
1.53726
1.56274
1.56054
1.5395
1.57601
1.52452
1.51926
1.5067
1.53675
1.5246
1.44819
1.44458
1.52899
1.52503
1.48903
1.513
1.48581
1.53137
1.51559
1.55719
1.53146
1.53633
1.54486
1.57955
1.58413
1.55706
1.58928
1.55287
1.5901
1.57136
1.53839
1.56146
1.60242
1.59601
1.39403
1.39538
1.39764
1.39821
1.40999
1.40621
1.40971
1.41219
1.40651
1.39929
1.39996
1.40025
1.39897
1.40758
1.41343
1.42907
1.42816
1.42201
1.42717
1.44031
1.40071
1.41501
1.41503
1.41364
1.43501
1.43797
1.43774
1.42598
1.44545
1.44656
1.43845
1.43267
1.43484
1.43582
1.40101
1.38477
1.38954
1.40284
1.42723
1.42735
1.41741
1.39241
1.39976
1.41505
1.40431
1.39793
1.42812
1.39948
1.40657
1.42899
1.43432
1.41753
1.42415
1.4144
1.40303
1.40966
1.3995
1.4484
1.44549
1.44831
1.45685
1.43962
1.45205
1.44605
1.44979
1.44492
1.44802
1.43144
1.42751
1.42695
1.46279
1.46726
1.45012
1.45612
1.4542
1.47471
1.46661
1.44133
1.47449
1.47363
1.45822
1.4428
1.44668
1.45507
1.44821
1.45672
1.44636
1.43222
1.45617
1.44672
1.44956
1.45137
1.44661
1.4397
1.45348
1.45137
1.4556
1.45621
1.4542
1.45682
1.45705
1.45462
1.45447
1.45571
1.45083
1.44838
1.45237
1.45488
1.45303
1.45108
1.44876
1.44837
1.44881
1.44729
1.44976
1.50841
1.50286
1.50507
1.5068
1.47508
1.46688
1.47432
1.47259
1.47833
1.4532
1.47386
1.45674
1.46369
1.46314
1.45386
1.46808
1.46085
1.39375
1.40304
1.41333
1.40829
1.41052
1.42682
1.4595
1.43917
1.4193
1.42813
1.44613
1.42941
1.43192
1.43002
1.5562
1.56449
1.56081
1.57001
1.54487
1.53226
1.53191
1.54205
1.52562
1.54129
1.53825
1.51044
1.53714
1.55967
1.53371
1.57886
1.56346
1.58075
1.53266
1.55084
1.56626
1.55549
1.40498
1.41444
1.40914
1.41611
1.41104
1.44826
1.44748
1.45512
1.45447
1.45652
1.45028
1.44572
1.44718
1.45278
1.44675
1.44907
1.44045
1.45088
1.44979
1.45374
1.44662
1.45006
1.44986
1.43754
1.44554
1.43899
1.45003
1.45519
1.44779
1.44347
1.44501
1.44762
1.44704
1.39208
1.39861
1.39144
1.39046
1.39838
1.40463
1.38358
1.37948
1.40031
1.39344
1.39068
1.38786
1.38215
1.38142
1.38996
1.39267
1.46377
1.45874
1.44757
1.4602
1.45337
1.45277
1.45449
1.45505
1.4561
1.45633
1.44715
1.45313
1.45312
1.46026
1.45434
1.45163
1.45278
1.45416
1.45514
1.45908
1.45847
1.45646
1.45768
1.45779
1.45905
1.48288
1.48962
1.48419
1.49175
1.48901
1.49662
1.49197
1.48693
1.47179
1.47424
1.48915
1.49423
1.48836
1.50336
1.48599
1.48369
1.50417
1.49342
1.492
1.50747
1.49803
1.50471
1.50271
1.51058
1.5074
1.51726
1.51913
1.49856
1.48304
1.49656
1.48409
1.49265
1.49218
1.49604
1.48712
1.48956
1.47968
1.49015
1.50215
1.48917
1.497
1.48491
1.50482
1.49761
1.49193
1.49041
1.45029
1.44297
1.45617
1.4385
1.44123
1.44681
1.45714
1.45788
1.44229
1.44723
1.44987
1.41208
1.40307
1.40374
1.4188
1.43826
1.42983
1.43336
1.43525
1.4014
1.39256
1.40513
1.40781
1.40056
1.39042
1.41068
1.44353
1.43391
1.40908
1.41187
1.40887
1.42729
1.41875
1.47991
1.46385
1.43185
1.44332
1.46305
1.44505
1.44088
1.45275
1.45239
1.44714
1.45529
1.4477
1.45861
1.43751
1.45382
1.45717
1.45071
1.36352
1.37325
1.37085
1.37656
1.37413
1.36899
1.36873
1.37009
1.37503
1.36954
1.37938
1.37323
1.37245
1.37867
1.37792
1.3804
1.47276
1.46778
1.47248
1.46227
1.45819
1.45602
1.44877
1.48299
1.45602
1.46207
1.47559
1.46294
1.47352
1.46665
1.46643
1.46088
1.47116
1.47506
1.46597
1.46093
1.47344
1.48546
1.48377
1.48535
1.47819
1.46776
1.46156
1.4721
1.46572
1.47983
1.4739
1.42876
1.43308
1.4275
1.4267
1.43412
1.44599
1.44405
1.44959
1.44744
1.43529
1.43865
1.43451
1.43814
1.40567
1.40664
1.41339
1.45129
1.4445
1.44079
1.4444
1.44428
1.45655
1.45272
1.44234
1.43565
1.45088
1.43404
1.44011
1.44351
1.44192
1.44643
1.43778
1.38528
1.38747
1.38303
1.36226
1.37362
1.37386
1.37526
1.44381
1.45205
1.45064
1.44621
1.45046
1.44911
1.44582
1.44095
1.44244
1.44819
1.4524
1.44412
1.44615
1.44999
1.43155
1.44094
1.44351
1.44102
1.45521
1.44793
1.45053
1.44908
1.44893
1.44773
1.45355
1.45052
1.45228
1.45001
1.44983
1.44926
1.44792
1.44492
1.44952
1.45535
1.36242
1.36815
1.38002
1.39422
1.38727
1.39174
1.39031
1.39904
1.47441
1.47292
1.45245
1.45847
1.4532
1.46415
1.46894
1.47015
1.45957
1.47113
1.4529
1.46948
1.48643
1.47773
1.48511
1.49088
1.4485
1.44702
1.4523
1.46204
1.46171
1.45446
1.44643
1.44215
1.45356
1.44051
1.44316
1.44123
1.44797
1.43874
1.43381
1.45112
1.43892
1.43884
1.45102
1.43795
1.45324
1.43595
1.4391
1.44546
1.44331
1.4403
1.43928
1.44008
1.44758
1.44408
1.43778
1.43798
1.44405
1.44181
1.44281
1.44334
1.44548
1.43663
1.44171
1.44087
1.4425
1.44164
1.46201
1.47065
1.47232
1.46611
1.46792
1.45416
1.47151
1.46194
1.4438
1.43436
1.43188
1.44579
1.43817
1.3436
1.35117
1.35132
1.35026
1.34627
1.3538
1.34621
1.34907
1.35083
1.35925
1.36064
1.36222
1.42216
1.42746
1.42691
1.42842
1.42782
1.42726
1.42641
1.42639
1.43837
1.44262
1.4412
1.43907
1.43679
1.43907
1.43922
1.39675
1.39252
1.3983
1.40224
1.40612
1.41516
1.4249
1.4053
1.4036
1.40568
1.39854
1.36217
1.36154
1.36228
1.37539
1.36626
1.44196
1.44642
1.44381
1.45605
1.46757
1.46044
1.46795
1.46524
1.46346
1.45234
1.46072
1.46494
1.45944
1.46089
1.46407
1.46516
1.45974
1.46983
1.46184
1.46395
1.45583
1.47272
1.47152
1.45474
1.45434
1.45106
1.45417
1.45391
1.45275
1.44831
1.44955
1.45875
1.45078
1.45442
1.45377
1.45704
1.45084
1.45092
1.45878
1.45727
1.45276
1.32808
1.33213
1.43742
1.43134
1.42886
1.43108
1.43964
1.4418
1.43588
1.43203
1.43198
1.42818
1.42146
1.42273
1.43836
1.42484
1.43751
1.44379
1.44583
1.44525
1.43452
1.43287
1.44819
1.42684
1.42537
1.42897
1.42441
1.43167
1.4211
1.42306
1.43401
1.42905
1.42195
1.4318
1.43801
1.43805
1.43967
1.43913
1.4344
1.433
1.43534
1.43562
1.39668
1.41354
1.40766
1.39982
1.39499
1.37621
1.35976
1.36165
1.36287
1.38085
1.39005
1.3602
1.35761
1.38785
1.38493
1.39873
1.39899
1.39552
1.38654
1.38254
1.38665
1.38208
1.44071
1.437
1.43221
1.41832
1.43283
1.4437
1.43428
1.43089
1.4161
1.40409
1.41158
1.43219
1.43644
1.45308
1.45684
1.44532
1.43484
1.43578
1.44594
1.44318
1.4487
1.45296
1.35818
1.35574
1.38549
1.39168
1.40316
1.3953
1.40315
1.44387
1.4449
1.44641
1.44032
1.42129
1.41458
1.43576
1.41159
1.41383
1.43893
1.42948
1.43746
1.43727
1.43351
1.4329
1.42887
1.42715
1.4273
1.4364
1.43499
1.4271
1.43373
1.43412
1.42556
1.42494
1.42473
1.42496
1.4231
1.42298
1.42288
1.4296
1.42762
1.43669
1.43289
1.42862
1.44061
1.43118
1.43917
1.4382
1.43064
1.42597
1.45078
1.44505
1.44476
1.43361
1.45807
1.44478
1.44427
1.44755
1.43984
1.43665
1.45289
1.4531
1.4431
1.43233
1.4388
1.44453
1.43771
1.44908
1.44147
1.44284
1.43523
1.44141
1.43479
1.46602
1.47152
1.47972
1.46623
1.48316
1.47704
1.42018
1.42174
1.41881
1.41885
1.40883
1.42298
1.42496
1.40814
1.40822
1.43359
1.43246
1.4494
1.43661
1.44406
1.4356
1.44114
1.43315
1.44733
1.43966
1.4269
1.44486
1.44092
1.46199
1.44428
1.4413
1.45455
1.44464
1.4565
1.45349
1.45447
1.44731
1.44026
1.44349
1.45619
1.46392
1.45652
1.44268
1.45669
1.46541
1.46318
1.46323
1.45235
1.4422
1.44913
1.44768
1.45619
1.45682
1.38107
1.39601
1.38879
1.38777
1.37962
1.37059
1.37465
1.37132
1.37004
1.37053
1.37061
1.43488
1.44157
1.44342
1.44848
1.4486
1.44386
1.45397
1.44509
1.44784
1.44424
1.42046
1.41786
1.40259
1.42924
1.36953
1.36568
1.37544
1.38126
1.38073
1.37197
1.3618
1.44074
1.43465
1.44081
1.44943
1.45266
1.45683
1.44451
1.45087
1.4455
1.50593
1.48735
1.50464
1.51736
1.49827
1.49294
1.48715
1.50357
1.49245
1.49629
1.46276
1.52068
1.47852
1.4719
1.46334
1.46483
1.46332
1.38837
1.41583
1.40413
1.40995
1.39715
1.39496
1.39549
1.41609
1.41858
1.47367
1.48649
1.48482
1.4849
1.48503
1.47593
1.45263
1.44526
1.44956
1.43553
1.45417
1.45717
1.45226
1.45472
1.44968
1.44594
1.43706
1.46723
1.46371
1.46243
1.45784
1.45029
1.44078
1.44653
1.4572
1.45183
1.45281
1.44275
1.43907
1.44543
1.44918
1.449
1.45543
1.45785
1.45465
1.45287
1.44812
1.42437
1.42751
1.41971
1.4226
1.41713
1.53374
1.53455
1.51382
1.53473
1.5081
1.50632
1.51855
1.53041
1.52923
1.5432
1.5187
1.5283
1.53776
1.37471
1.37196
1.39711
1.39111
1.39452
1.38662
1.37803
1.47415
1.49662
1.4926
1.48321
1.46615
1.45939
1.45802
1.4942
1.48945
1.47475
1.47352
1.44706
1.44688
1.44514
1.44616
1.45045
1.44827
1.44817
1.44392
1.43553
1.44681
1.43973
1.43496
1.44324
1.43895
1.43607
1.44175
1.43793
1.44768
1.43488
1.43996
1.43567
1.44216
1.44519
1.43495
1.43771
1.44539
1.4366
1.43245
1.44658
1.44174
1.44457
1.44413
1.44607
1.44267
1.43923
1.44384
1.44249
1.43809
1.46072
1.44923
1.44377
1.45684
1.44533
1.44436
1.45189
1.439
1.45562
1.43573
1.44297
1.45593
1.45286
1.4501
1.44357
1.44101
1.40098
1.40433
1.42151
1.41074
1.42935
1.42204
1.4144
1.43944
1.44389
1.40582
1.40533
1.39912
1.401
1.39797
1.39491
1.39177
1.39676
1.3922
1.39148
1.39924
1.42521
1.42136
1.43105
1.43285
1.42329
1.42663
1.43794
1.44574
1.44707
1.43164
1.43235
1.44625
1.42185
1.44732
1.44675
1.44457
1.44655
1.4133
1.41922
1.41061
1.41032
1.42034
1.41815
1.40796
1.40624
1.39675
1.38961
1.41174
1.41243
1.41404
1.42126
1.41492
1.41065
1.39245
1.40229
1.42599
1.4183
1.41533
1.40698
1.5064
1.50022
1.49773
1.53286
1.4751
1.47333
1.48825
1.4886
1.47889
1.50346
1.48524
1.50504
1.49843
1.4806
1.47638
1.45952
1.50257
1.49396
1.50644
1.49378
1.49312
1.47688
1.51267
1.53134
1.52475
1.52518
1.53892
1.53237
1.5084
1.49023
1.53085
1.51769
1.45504
1.44936
1.45203
1.45357
1.44938
1.45603
1.45109
1.44773
1.44919
1.44896
1.44492
1.44194
1.42371
1.42953
1.44581
1.43837
1.43261
1.44581
1.4253
1.4163
1.427
1.63906
1.67043
1.64462
1.65919
1.68469
1.64753
1.6646
1.66986
1.63239
1.64114
1.60453
1.61466
1.62043
1.6132
1.61058
1.612
1.62126
1.61925
1.62236
1.48775
1.47403
1.48302
1.46592
1.4954
1.47957
1.49823
1.4758
1.62248
1.65957
1.63541
1.66293
1.65716
1.65556
1.65031
1.64237
1.431
1.44054
1.43779
1.44189
1.43929
1.43597
1.42134
1.43819
1.44354
1.44299
1.41018
1.42821
1.42256
1.41897
1.41302
1.41289
1.40968
1.41474
1.42464
1.41631
1.4262
1.40472
1.40228
1.40106
1.42233
1.41613
1.43777
1.4322
1.43673
1.43303
1.43235
1.42378
1.42647
1.41928
1.41802
1.42744
1.44787
1.45028
1.44376
1.43988
1.441
1.4407
1.43144
1.45025
1.44702
1.43211
1.43603
1.44072
1.36919
1.3857
1.38987
1.38445
1.65854
1.68252
1.7051
1.71796
1.73918
1.73494
1.64391
1.67758
1.80459
1.79157
1.80215
1.84304
1.82185
1.78985
1.77068
1.79702
1.76405
1.51322
1.50942
1.51199
1.53074
1.49666
1.55003
1.51601
1.49035
1.48808
1.48035
1.48997
1.47526
1.47306
1.50607
1.48574
1.47297
1.45856
1.47934
1.47771
1.49214
1.47025
1.57778
1.54109
1.56573
1.56931
1.55555
1.58434
1.56804
1.55074
1.52303
1.53137
1.43684
1.43389
1.43648
1.4349
1.43278
1.43429
1.43441
1.43612
1.44039
1.44037
1.44557
1.44751
1.42534
1.43545
1.43542
1.43841
1.43932
1.43156
1.43865
1.73115
1.69546
1.73174
1.69244
1.77074
1.77739
1.71996
1.69745
1.55189
1.56494
1.64076
1.60384
1.65634
1.63002
1.63126
1.6493
1.59648
1.58391
1.66294
1.64849
1.66301
1.68215
1.52989
1.58583
1.56146
1.58043
1.59274
1.55508
1.59093
1.56887
1.55207
1.51095
1.50368
1.51659
1.52434
1.51651
1.73835
1.73874
1.70454
1.72782
1.72159
1.57968
1.56118
1.5896
1.57435
1.63299
1.66246
1.65398
1.721
1.75115
1.71452
1.71173
1.75745
1.73518
1.76417
1.73444
1.76573
1.76491
1.74824
1.74866
1.76142
1.49915
1.49504
1.46208
1.44369
1.45621
1.50488
1.50928
1.43674
1.43467
1.43449
1.4316
1.43569
1.43668
1.43164
1.43646
1.43257
1.43987
1.44061
1.42899
1.43326
1.42141
1.41561
1.41663
1.4046
1.43999
1.63009
1.62311
1.60189
1.64137
1.64962
1.62233
1.60323
1.56627
1.62194
1.63626
1.6826
1.68656
1.74075
1.72888
1.72708
1.6972
1.67517
1.77563
1.71569
1.74347
1.77136
1.71048
1.73653
1.74655
1.71526
1.49066
1.54269
1.53159
1.51148
1.48811
1.54796
1.55168
1.54391
1.48044
1.51283
1.56457
1.56015
1.49834
1.52249
1.42069
1.41804
1.42308
1.88268
1.89264
1.87582
1.84421
1.84556
1.82958
1.83338
1.81579
1.79952
1.77146
1.7757
1.82628
1.80642
1.79212
1.80805
1.82564
1.81547
1.79255
1.80465
1.78128
1.75414
1.75096
1.73174
1.72818
1.70099
1.71393
1.71077
1.763
1.76644
1.76215
1.75629
1.74503
1.72703
1.45773
1.44632
1.47945
1.46394
1.47987
1.50325
1.48573
1.49227
1.49986
1.45697
1.47818
1.48118
1.51679
1.56235
1.60159
1.53616
1.58101
1.5484
1.61617
1.55867
1.59122
1.5792
1.92297
1.89979
1.84145
1.84311
1.81451
1.832
1.74539
1.76727
1.80262
1.86313
1.84979
1.41839
1.85714
1.90282
1.90679
1.87628
1.87539
1.85993
1.9005
1.89418
1.87842
1.94059
1.93636
1.816
1.78587
1.77322
1.83716
1.79635
1.84039
1.41885
1.42695
1.4301
1.42793
1.42614
1.42826
1.41593
1.43047
1.43657
1.5862
1.5595
1.61086
1.55692
1.53298
1.62638
1.59548
1.57828
1.54363
1.52996
1.56872
1.41988
1.42816
1.42405
1.43312
1.43242
1.43412
1.43404
1.43657
1.4273
1.43254
1.43044
1.45404
1.42903
1.4664
1.46445
1.47462
1.45727
1.44928
1.44764
1.44202
1.61788
1.56717
1.63031
1.63296
1.62986
1.61686
1.55225
1.5728
1.60269
1.58683
1.61259
1.58844
1.52404
1.52297
1.52391
1.51969
1.51188
1.51792
1.49048
1.47838
1.50145
1.49747
1.48863
1.50048
1.51522
1.49534
1.45074
1.45688
1.45495
1.45318
1.45626
1.4544
1.45181
1.45144
1.45124
1.45402
1.45602
1.45181
1.4488
1.40501
1.42046
1.40613
1.39695
1.40608
1.42602
1.43509
1.41996
1.42976
1.43586
1.43748
1.43354
1.439
1.43833
1.43749
1.43247
1.43495
1.42828
1.43353
1.51753
1.52432
1.51812
1.51624
1.52735
1.50684
1.52037
1.50358
1.47973
1.49074
1.50646
1.52316
1.51079
1.66662
1.68209
1.68014
1.6551
1.58903
1.57592
1.61372
1.42239
1.44022
1.39328
1.40495
1.4042
1.41699
1.41963
1.44146
1.41997
1.45017
1.44833
1.44446
1.43854
1.43926
1.44841
1.44418
1.44631
1.44291
1.43792
1.43588
1.439
1.43852
1.44136
1.43113
1.43362
1.42994
1.41787
1.41213
1.41928
1.43205
1.41624
1.44708
1.37851
1.39769
1.38772
1.61691
1.53772
1.58421
1.59517
1.58313
1.58117
1.55125
1.42826
1.42935
1.39923
1.41401
1.4282
1.43269
1.42587
1.4264
1.42074
1.43046
1.39463
1.3989
1.39851
1.38301
1.39012
1.41196
1.4142
1.41794
1.41416
1.39855
1.40999
1.42065
1.4286
1.41262
1.39226
1.41021
1.41393
1.41429
1.78199
1.7605
1.75847
1.76597
1.73139
1.71223
1.77788
1.6811
1.66527
1.62987
1.63291
1.60564
1.67731
1.66318
1.65609
1.61361
1.58908
1.55598
1.5347
1.59259
1.58986
1.54722
1.55714
1.54594
1.58794
1.58622
1.5743
1.58064
1.54655
1.53841
1.5463
1.67972
1.71291
1.71417
1.67648
1.70055
1.68257
1.69951
1.711
1.71788
1.70932
1.69675
1.69403
1.6259
1.65103
1.67101
1.39973
1.42265
1.42642
1.40967
1.4221
1.41429
1.41606
1.42729
1.40925
1.42049
1.37685
1.39443
1.39401
1.40782
1.39016
1.3982
1.38524
1.39064
1.40114
1.38676
1.40296
1.40205
1.40256
1.40549
1.55178
1.57445
1.56557
1.53433
1.53583
1.52569
1.51874
1.49467
1.53268
1.49236
1.52505
1.50486
1.50292
1.4949
1.4059
1.4032
1.53978
1.5269
1.59105
1.59609
1.59228
1.60576
1.68519
1.68049
1.65075
1.67143
1.67924
1.64893
1.65685
1.66084
1.64899
1.6675
1.65806
1.6896
1.66368
1.41607
1.40994
1.4261
1.43182
1.42736
1.42007
1.43226
1.43939
1.43482
1.43624
1.44523
1.44911
1.51564
1.52216
1.52557
1.51947
1.51014
1.52179
1.50519
1.52851
1.48612
1.61099
1.60261
1.5931
1.58027
1.60039
1.56387
1.56369
1.57389
1.55027
1.58023
1.55349
1.51607
1.50569
1.50565
1.5216
1.52331
1.53354
1.52097
1.53935
1.54301
1.5214
1.4697
1.52444
1.52132
1.49248
1.47697
1.51582
1.52359
1.48654
1.51219
1.51072
1.4937
1.51379
1.49715
1.42941
1.43611
1.44384
1.45185
1.44508
1.44352
1.43574
1.42088
1.43007
1.41394
1.42332
1.4191
1.40598
1.44858
1.4366
1.44101
1.4598
1.45241
1.45173
1.45744
1.44695
1.44899
1.44844
1.45115
1.44834
1.45115
1.45728
1.46954
1.49833
1.49506
1.48903
1.47725
1.49831
1.47497
1.46108
1.54159
1.53329
1.54303
1.53321
1.53377
1.53725
1.44627
1.43884
1.437
1.44374
1.44604
1.43346
1.44984
1.44123
1.43874
1.44374
1.44826
1.44287
1.43842
1.44703
1.44002
1.45215
1.45349
1.45039
1.45249
1.44386
1.45099