/*--------------------------------*- C++ -*----------------------------------*\
| =========                 |                                                 |
| \\      /  F ield         | OpenFOAM: The Open Source CFD Toolbox           |
|  \\    /   O peration     | Version:  v1612+                                |
|   \\  /    A nd           | Web:      www.OpenFOAM.com                      |
|    \\/     M anipulation  |                                                 |
\*---------------------------------------------------------------------------*/
FoamFile
{
    version     2.0;
    format      ascii;
    class       surfaceScalarField;
    location    "50";
    object      phi;
}
// * * * * * * * * * * * * * * * * * * * * * * * * * * * * * * * * * * * * * //

dimensions      [0 3 -1 0 0 0 0];

internalField   nonuniform List<scalar> 
41736
(
5.11572e-09
2.44296e-09
-1.42025e-09
-6.13975e-09
2.44136e-10
-4.69076e-10
-8.04983e-09
8.27491e-09
-3.63436e-10
-6.00994e-09
6.04809e-09
3.25511e-10
2.66308e-08
-2.24459e-09
-6.53457e-09
-1.78519e-08
7.97158e-09
5.75435e-09
1.29044e-08
1.22188e-08
-1.32471e-08
9.03144e-09
-8.00377e-09
1.53805e-08
4.80995e-09
-1.24706e-08
-3.02122e-09
-2.06664e-08
-4.3711e-09
1.85026e-08
-3.32886e-09
5.5016e-09
1.32074e-08
4.07091e-09
1.63128e-09
2.88271e-09
1.20392e-08
-9.4204e-09
-1.69445e-09
1.28586e-08
-8.28171e-09
-1.39532e-08
2.28248e-09
6.67703e-09
4.99367e-09
-1.08676e-08
-9.51937e-09
6.4337e-09
1.6449e-08
-1.13365e-08
-6.80698e-09
9.05453e-09
1.76017e-09
-8.59895e-09
-2.21871e-09
1.10586e-08
-1.7108e-08
1.51026e-08
-3.94148e-09
-7.17843e-09
1.28779e-08
7.56469e-09
-8.89999e-09
4.8422e-09
-3.50977e-09
-2.98414e-09
1.65607e-08
-6.01416e-09
-1.17506e-08
1.98237e-08
-1.86961e-08
5.37135e-09
-3.78456e-09
-4.81783e-09
-2.24775e-08
1.32576e-08
-1.05053e-09
-1.842e-08
6.21253e-09
1.08731e-08
-5.13965e-09
7.52341e-09
-1.00057e-08
3.62527e-09
-8.77221e-10
2.84954e-09
1.26102e-08
-1.84796e-08
1.72681e-09
1.17233e-08
-5.79657e-09
-1.44023e-08
8.47664e-09
6.94557e-09
7.1986e-09
-2.41937e-09
7.63458e-09
-1.01159e-09
-6.26587e-09
-3.55589e-10
-6.78938e-09
3.04787e-09
1.25938e-08
-8.85107e-09
1.23542e-08
-6.31572e-09
-7.34236e-09
1.3046e-09
-1.6991e-09
7.26471e-09
-1.21754e-09
5.17398e-09
3.6787e-09
2.77482e-09
-4.8111e-09
8.19391e-10
2.60033e-09
9.51998e-09
3.08427e-11
-6.83827e-09
3.37395e-09
-3.84553e-09
5.02946e-10
-3.33975e-09
8.9884e-09
5.04293e-09
-7.98441e-09
1.88344e-09
1.46112e-09
1.31893e-09
-2.57929e-09
-5.16281e-09
-8.09043e-10
8.55122e-09
-1.05921e-08
1.31229e-09
6.70015e-09
-9.19727e-09
7.80411e-10
7.59285e-09
8.23666e-10
6.94558e-10
8.60644e-10
-1.07526e-08
1.07829e-08
3.54412e-10
-1.04429e-08
5.23501e-09
3.11431e-09
2.43332e-09
-6.56897e-09
-5.68872e-09
7.09486e-09
4.22988e-10
-6.90964e-09
-8.25566e-11
8.33168e-09
2.51225e-09
-9.98356e-09
8.15271e-09
9.59156e-10
-8.52521e-09
-1.64405e-09
4.35703e-09
-9.59418e-09
-3.28823e-09
6.8945e-09
2.69749e-09
2.68961e-09
5.51725e-09
-4.46846e-09
6.34919e-09
-9.77292e-10
-8.26272e-09
7.08016e-09
3.62697e-09
1.46737e-09
-6.90571e-09
-1.4716e-09
-4.61265e-09
3.91187e-10
-5.37109e-09
3.18408e-09
3.55859e-10
5.79573e-09
5.1275e-09
1.70485e-08
-1.5125e-08
-7.05103e-09
1.22171e-08
-8.6364e-09
1.54693e-09
8.85225e-09
2.35172e-09
5.84439e-09
5.13098e-09
1.59385e-08
1.31735e-09
9.46662e-09
-1.94203e-08
-2.1411e-09
-1.23562e-08
-6.27692e-10
-9.01585e-09
7.1843e-09
4.1834e-09
1.34101e-08
-1.33527e-09
-1.52007e-08
3.12592e-09
8.65052e-09
-1.26151e-09
-9.53009e-09
3.29585e-09
-3.66109e-09
4.16201e-09
-6.0208e-09
9.04321e-09
-3.56001e-09
1.28531e-08
-1.49324e-08
6.75235e-09
9.49749e-09
3.07794e-09
-4.60017e-09
6.46739e-09
-9.06407e-09
-3.02836e-09
3.03482e-10
-6.00234e-09
9.19472e-09
-3.35397e-09
4.2962e-10
8.5162e-11
-1.07586e-09
-4.25155e-09
-1.30413e-09
6.63151e-09
-2.65329e-09
-5.51676e-09
7.09414e-09
1.8221e-09
-1.19749e-08
2.31064e-09
7.84199e-09
-9.29589e-09
8.46453e-09
-1.53259e-10
-6.20232e-09
-2.94051e-09
-3.84588e-09
-8.28236e-09
2.17396e-09
-3.27142e-09
-4.4194e-09
-2.26326e-09
1.85613e-10
2.48993e-09
4.0448e-09
-7.43751e-09
9.02598e-10
-5.57874e-09
6.58519e-09
6.5516e-09
-7.90763e-09
1.88981e-09
-1.08327e-10
2.86266e-09
-5.67189e-09
7.56991e-09
-3.20113e-09
1.30313e-09
2.84053e-09
-3.58095e-09
-4.93138e-09
-2.74035e-09
-1.24563e-09
-2.29421e-09
6.28002e-09
-1.44943e-09
-3.10753e-09
1.81677e-09
2.68095e-09
2.8771e-09
2.01197e-09
-3.04383e-09
2.38693e-09
3.33782e-09
2.05067e-10
-4.08371e-10
-3.6916e-09
3.3304e-09
-2.83988e-09
-9.84822e-11
-7.17406e-09
-4.80675e-09
-3.21491e-09
6.7764e-09
-1.48318e-09
1.57592e-09
-2.70234e-09
-2.30323e-10
-6.50443e-09
4.57479e-09
-1.87676e-10
-2.98625e-09
5.43383e-10
-5.65068e-09
1.89251e-09
-4.10495e-09
1.54084e-09
-3.82626e-09
-1.44118e-09
1.16264e-09
-3.04621e-09
2.88553e-09
-3.66543e-09
3.3339e-09
-6.47851e-09
2.34832e-09
-4.55535e-10
-2.9528e-09
-1.48906e-10
1.05566e-08
1.20528e-08
-6.55958e-09
-1.60497e-08
1.10903e-08
2.55538e-10
-7.89346e-10
5.523e-09
9.73121e-10
5.55675e-09
4.08593e-09
1.25273e-08
5.54723e-09
2.7015e-09
-7.99325e-09
3.8887e-09
-1.52399e-08
4.79148e-09
1.05827e-08
-9.4964e-10
-7.08395e-09
2.03839e-09
6.01859e-09
7.3726e-09
-3.8225e-09
-1.88934e-09
-1.66094e-09
-8.80773e-09
9.79219e-09
6.38807e-09
-4.97858e-09
-7.65164e-09
-8.17388e-09
-1.55727e-08
1.48634e-08
-5.88566e-09
6.59407e-09
-1.04365e-08
4.2792e-09
-9.41536e-09
9.23651e-09
-1.39018e-08
8.24299e-09
-3.58015e-09
1.32086e-08
1.08909e-08
1.48423e-08
-3.63336e-09
-2.16457e-08
1.05098e-08
-1.55346e-09
1.66758e-08
2.04716e-09
-8.21402e-09
3.68506e-09
-5.37497e-09
1.83644e-08
1.04858e-08
-2.03871e-09
5.78543e-09
-1.42337e-08
2.39392e-09
1.16135e-08
-3.52243e-09
-4.01068e-09
-5.6125e-09
-3.92331e-09
2.08146e-08
-3.73346e-09
8.05208e-09
7.54226e-09
-1.32149e-08
1.07573e-08
-8.21478e-10
-1.75024e-08
-1.64757e-09
1.37746e-08
-4.69819e-09
-4.22007e-09
-5.73965e-09
1.13608e-08
-1.40182e-09
1.29302e-08
-5.53715e-09
-3.96535e-09
2.18003e-09
9.10232e-09
9.80691e-09
-9.91453e-09
-2.20964e-09
5.75977e-09
3.6569e-09
-1.99019e-09
-1.15814e-08
4.44618e-09
6.19024e-09
-1.28458e-08
-7.45006e-09
4.42069e-09
-1.21626e-08
-2.75881e-09
-5.92064e-09
-2.58509e-09
2.6614e-09
-1.22049e-08
7.49464e-09
2.04814e-09
9.57375e-09
-1.20453e-08
-1.84393e-09
-8.99497e-09
-5.83439e-09
2.63209e-09
3.74774e-09
-1.67073e-08
1.03273e-08
4.43242e-09
-5.78614e-09
3.98555e-09
-1.09092e-08
9.52123e-09
1.64529e-08
4.17862e-09
-1.68843e-08
2.50336e-09
3.04047e-09
1.41658e-08
-1.32767e-08
-1.30941e-08
4.62345e-09
-1.06451e-08
3.90088e-09
3.98524e-09
-8.23449e-09
-8.33137e-09
2.40025e-09
-3.13916e-09
-5.95919e-09
-6.94138e-09
1.48791e-08
-9.87117e-09
1.43155e-09
-6.43933e-09
-1.17569e-08
1.88029e-08
7.83304e-09
1.6717e-08
-2.29503e-08
-3.63799e-09
1.36636e-08
-8.70348e-09
-1.76082e-08
6.42999e-09
-2.23184e-09
1.34099e-08
-1.11655e-08
-5.01127e-09
7.05327e-09
1.81795e-08
-2.42172e-09
1.58276e-08
2.56778e-10
1.44579e-08
-1.2765e-08
2.97445e-09
9.25139e-09
1.55752e-08
3.37561e-09
-6.91202e-09
6.58987e-09
1.19596e-08
-1.60585e-08
1.34739e-09
2.13004e-08
-1.12454e-08
-1.43759e-09
-3.60101e-09
-1.00666e-08
2.42282e-08
-9.16338e-10
-1.41187e-09
1.7023e-09
6.30723e-10
-7.51366e-10
-1.45311e-09
1.28945e-09
-3.30734e-09
1.23907e-09
1.316e-09
-1.69249e-09
-2.52171e-09
9.06549e-10
-1.67406e-09
1.98433e-10
-2.16261e-10
-2.43654e-09
-1.84693e-09
1.76105e-09
-2.48962e-09
-1.6206e-09
-1.05144e-09
2.5921e-09
2.99977e-09
-4.53994e-09
-1.2784e-09
3.32985e-09
-4.11752e-09
2.06649e-09
-5.56928e-10
1.24513e-09
-1.20437e-09
5.19884e-10
-2.60627e-09
7.72565e-10
-1.30152e-09
4.8315e-11
3.2241e-10
1.9553e-09
-1.27952e-09
-7.88359e-10
2.03434e-09
3.51511e-11
1.27476e-11
1.45362e-09
-2.19992e-10
-1.18631e-09
-1.01026e-10
1.4175e-10
-9.94534e-11
5.25756e-09
-5.91934e-09
1.07934e-08
-1.0131e-08
1.49024e-08
-5.02351e-09
-4.62136e-09
-1.37166e-09
9.2163e-09
-1.37635e-08
9.76854e-09
-1.69307e-08
5.78998e-09
1.53273e-10
8.08828e-09
6.6612e-09
6.41348e-09
4.53345e-09
1.1019e-09
-6.03086e-09
1.30171e-08
-7.7703e-09
-3.20315e-09
1.20756e-08
-4.25945e-09
1.25906e-08
1.05702e-08
-5.61327e-09
-1.87846e-09
6.64557e-09
-1.07982e-08
5.19399e-09
5.51807e-09
-3.09234e-09
1.73557e-09
-7.74548e-09
9.73638e-09
-2.67673e-10
-4.02157e-09
4.18548e-09
-3.77805e-10
2.14614e-10
-2.09009e-09
-5.16283e-09
3.2313e-09
5.44976e-09
3.93135e-09
-5.19553e-09
-5.99894e-10
-4.65989e-09
3.16996e-09
2.91577e-09
-2.93008e-09
5.46453e-09
-1.14975e-09
-1.51384e-09
7.18032e-09
-4.51716e-09
2.75716e-09
-3.71024e-09
1.33519e-09
-3.80929e-10
7.5718e-09
-1.89865e-09
-7.52517e-09
1.79658e-09
-9.4985e-10
6.67845e-09
-1.56064e-09
-1.12795e-08
5.31499e-09
2.29764e-10
3.49492e-10
-3.50894e-09
3.47224e-09
-5.63287e-09
3.62891e-09
1.63987e-09
1.48438e-10
-8.23877e-09
3.7919e-09
-8.47063e-09
1.29178e-08
1.49057e-09
-1.23881e-08
2.65891e-09
-5.33784e-09
-1.8858e-09
1.10157e-08
2.92913e-09
-5.21432e-09
-2.59883e-09
4.20179e-09
-7.12092e-10
-6.47594e-09
1.33629e-08
6.04749e-09
-1.52084e-08
1.50011e-08
-6.85246e-09
-7.97572e-09
1.45063e-08
-4.14123e-09
4.14819e-09
-7.10894e-09
-7.06016e-09
1.00279e-08
-2.9286e-09
-4.5531e-09
3.72884e-10
-3.29504e-10
-1.59842e-09
8.63987e-09
-9.98729e-09
-1.58104e-09
-4.78908e-09
6.3689e-09
-4.17679e-09
-3.329e-09
3.55595e-09
-3.95064e-09
-9.59249e-09
-1.5624e-09
-8.83947e-09
1.83441e-08
9.65386e-09
-7.8664e-09
4.80204e-09
1.45607e-08
-1.14972e-08
9.37233e-10
9.53981e-09
-7.67406e-09
1.93502e-08
1.19462e-08
-9.53027e-09
4.92261e-09
-9.60672e-10
5.56838e-09
-1.8922e-09
-1.3052e-09
-6.33258e-09
9.75927e-09
-1.29836e-08
8.50512e-09
-5.28059e-09
9.11789e-09
5.56417e-09
-1.19142e-08
6.79015e-09
4.16361e-09
-5.16239e-09
-8.64391e-09
-3.61052e-09
-1.06781e-08
9.53599e-09
-1.32656e-08
9.46517e-09
-5.73486e-09
2.25255e-09
1.64016e-08
-2.41907e-09
-2.34123e-09
1.52752e-08
-8.31103e-09
-5.67131e-09
-1.29241e-09
3.42411e-09
6.2944e-09
5.55716e-09
-3.85623e-09
-1.06934e-08
9.38746e-09
-1.60368e-08
1.28435e-08
-8.51754e-09
1.1711e-08
-1.49773e-08
-9.37046e-09
-9.21721e-09
-3.67468e-09
1.04732e-08
-1.06486e-09
-1.17627e-08
6.115e-09
1.01528e-08
5.10052e-09
9.57658e-09
-8.38244e-09
7.11785e-09
-1.20388e-08
5.57864e-09
-1.3438e-08
-1.07487e-09
-1.86383e-09
1.34682e-08
5.74098e-09
-4.70332e-09
6.19001e-09
-7.22778e-09
-1.23762e-09
-3.02145e-09
1e-08
-9.25573e-09
1.21382e-08
-4.12016e-09
-2.62934e-09
-1.59333e-08
9.30684e-09
5.96567e-09
-1.32983e-08
1.95538e-09
4.97887e-09
-7.44295e-10
1.81268e-09
-1.20481e-08
6.85445e-09
3.38105e-09
-7.07052e-09
5.43737e-09
6.51027e-09
-4.87714e-09
-4.41442e-09
-2.10915e-09
-5.46939e-10
-6.62361e-09
2.82336e-09
-6.14226e-10
4.14233e-09
6.78072e-09
-4.95736e-09
-5.25925e-10
-6.97319e-09
1.18736e-09
2.26327e-09
3.52262e-09
-4.32442e-09
4.13195e-09
5.60756e-10
1.09761e-08
6.01304e-10
1.53225e-11
1.31551e-08
-7.73302e-09
-7.65227e-09
1.60329e-08
-8.36521e-09
-9.37996e-09
1.42227e-08
-1.24951e-08
-3.15797e-10
-7.87681e-09
5.35089e-10
3.67185e-09
-1.42353e-10
-4.06346e-09
5.59179e-09
-5.01534e-09
-4.1193e-11
2.84365e-09
3.04331e-09
-2.21508e-09
-7.37655e-09
-3.25815e-10
4.83237e-09
2.86999e-09
1.0589e-09
1.16712e-08
4.38459e-09
-6.64483e-09
-9.4107e-09
-2.26033e-11
5.95307e-09
5.74111e-09
3.02163e-09
-4.71117e-09
1.54872e-09
3.67158e-09
3.0814e-09
-6.77561e-09
1.8266e-09
8.91285e-10
-9.81646e-09
3.62843e-09
1.21411e-08
-5.3665e-09
-6.53099e-11
3.46173e-09
5.0424e-09
1.98959e-09
-4.33343e-09
1.24607e-09
3.10421e-09
-8.88155e-10
8.3006e-09
-3.426e-09
3.10833e-10
-2.34581e-09
4.02498e-09
-7.9789e-10
2.93621e-09
-7.16694e-09
-1.42788e-08
5.15872e-09
1.62873e-08
-1.75915e-08
8.4795e-10
9.57684e-09
5.21073e-09
-1.06275e-08
-1.21743e-08
-4.45496e-09
-4.61286e-09
2.85264e-09
-9.90613e-09
7.9015e-09
-3.85251e-09
1.18638e-08
-1.28797e-08
6.95455e-09
-4.66522e-09
1.05904e-08
-1.65485e-09
-4.9921e-09
-6.23267e-09
1.06152e-08
-5.50073e-09
-6.76918e-09
1.37173e-08
6.00057e-09
-6.28209e-09
-4.71055e-09
-2.04841e-09
3.38397e-09
9.74897e-09
-3.68549e-09
-1.66909e-08
-2.86112e-09
2.70397e-09
8.72777e-09
-4.54577e-09
-1.04641e-08
3.81833e-09
-1.26772e-08
4.44591e-09
-3.42539e-09
5.08869e-09
-8.46376e-09
6.80064e-09
-6.06852e-09
1.02939e-09
1.614e-09
1.12441e-09
-8.05069e-09
1.20151e-08
5.49227e-09
-5.95731e-09
-5.60341e-09
-2.5494e-09
-4.21986e-10
6.47325e-09
3.50404e-09
-7.27572e-09
6.59403e-09
9.08993e-10
-7.22455e-09
1.49431e-08
1.75199e-09
-8.75049e-09
1.04116e-09
5.50735e-09
-5.64459e-09
2.34422e-09
9.73858e-09
-2.29064e-09
8.07732e-09
-2.25738e-10
-5.96417e-09
-7.23644e-09
5.14997e-09
-4.36144e-10
1.1317e-08
-7.95885e-09
1.91338e-09
5.88649e-10
2.13821e-09
3.33283e-09
-1.94183e-09
-3.52923e-09
2.46303e-09
1.82948e-10
-5.07589e-10
-1.08388e-09
1.85908e-09
1.68782e-09
1.51385e-09
7.35434e-10
-1.34613e-09
1.93186e-09
-4.02696e-10
9.47813e-10
1.72891e-09
-4.61854e-09
1.56379e-09
-1.962e-09
-1.72686e-09
2.14044e-09
1.44589e-09
4.47353e-10
-2.41892e-10
4.8719e-09
3.15538e-09
-6.2986e-09
8.22583e-10
3.19959e-09
8.4964e-10
-5.12375e-09
3.48855e-09
2.45758e-09
1.51262e-09
-3.48103e-09
4.38837e-10
3.66592e-09
-1.96409e-09
-1.95745e-09
6.63918e-10
-2.1108e-10
1.50588e-09
-2.08827e-09
1.69518e-09
2.65789e-09
2.05555e-09
4.03757e-09
-1.86132e-09
2.89899e-09
4.62708e-09
5.99575e-09
2.50978e-09
1.10285e-08
-1.56488e-08
2.11076e-09
1.03834e-08
-1.21249e-08
4.25134e-09
3.82548e-09
-3.49412e-09
1.06971e-08
1.09599e-09
1.31131e-08
9.40189e-10
-6.42293e-09
-1.01659e-08
-1.45737e-08
-3.65432e-09
6.1034e-09
-5.32734e-09
-8.30621e-09
4.04961e-09
-9.74329e-10
-9.5597e-09
6.48474e-09
-8.69175e-09
1.44508e-09
1.12965e-08
-9.63754e-09
5.16933e-09
5.82222e-09
-7.25551e-09
-8.12621e-09
-3.92281e-09
1.0534e-09
-1.25658e-08
-3.49477e-09
7.85458e-09
-8.22859e-09
-4.95321e-09
3.46163e-09
7.38747e-10
-7.11658e-09
9.65766e-09
4.10523e-09
-7.75421e-09
-2.73632e-10
4.5031e-10
2.70923e-09
2.44851e-09
-1.97862e-09
-3.17885e-09
3.8834e-09
-3.60261e-10
-8.13865e-10
-4.63111e-09
2.47673e-09
-3.59525e-09
5.75021e-09
-1.33215e-09
-4.34453e-09
1.04623e-09
3.57197e-09
-4.54344e-09
-3.60089e-10
2.73359e-09
-1.95799e-09
2.79655e-09
-1.94624e-09
3.024e-09
2.80586e-09
7.05112e-10
-2.02801e-10
2.81935e-09
1.24084e-09
-6.03855e-09
3.9582e-09
-1.49893e-09
-9.94854e-11
5.30999e-09
-6.2095e-09
1.42683e-09
1.18798e-09
-6.59574e-09
3.14396e-09
-6.4464e-09
1.34405e-09
-1.57904e-10
-2.36968e-09
-2.09772e-09
4.36824e-09
2.08136e-09
-4.85739e-11
-8.71973e-09
1.39544e-08
3.78664e-09
-9.02084e-09
-1.3043e-08
6.91081e-09
-2.58739e-09
5.04049e-09
1.23833e-08
-1.41694e-08
-3.2543e-09
-1.38029e-09
-6.62219e-09
3.89283e-09
1.47034e-09
-1.25791e-08
7.21599e-09
7.99109e-09
-6.12174e-09
-3.24968e-09
6.60602e-09
5.278e-09
2.75018e-09
1.07668e-08
-5.51111e-09
8.85356e-09
1.0612e-08
1.76295e-08
3.28772e-09
-1.2875e-09
-1.96293e-08
7.20182e-09
1.18977e-08
-8.27804e-09
7.02268e-09
-1.1324e-08
6.39413e-09
3.97176e-09
-1.58768e-08
-6.778e-09
1.26834e-08
4.88507e-10
-1.85279e-08
1.8952e-08
-1.68196e-08
1.5797e-09
-1.33394e-08
9.79716e-09
1.59256e-08
4.55007e-09
-8.90623e-09
-1.24635e-08
5.25517e-09
-6.06674e-10
-3.16707e-09
-1.4812e-09
8.81589e-10
3.50591e-09
8.68363e-10
-3.63227e-09
-1.82464e-09
4.85044e-09
-2.12336e-09
9.73968e-10
2.03127e-09
-7.16261e-10
1.18641e-10
-3.03492e-09
2.55602e-09
4.12737e-10
-3.68454e-09
2.72937e-09
-3.3403e-09
5.36142e-10
7.0191e-11
-3.19774e-09
1.17959e-11
4.05411e-09
-8.67665e-10
-3.33327e-09
-7.63304e-10
8.99509e-10
9.11766e-10
-1.94344e-09
2.00574e-09
-2.62169e-09
3.54553e-09
-7.56228e-10
3.26602e-09
-2.39166e-09
2.63051e-09
-2.97403e-09
-2.79515e-10
-2.96032e-09
6.18454e-10
-2.53153e-09
3.08848e-10
2.4077e-09
2.07491e-09
-1.85181e-09
-9.12119e-10
3.59055e-10
-9.79993e-10
7.96899e-11
-3.45683e-09
-6.33038e-09
6.14827e-09
3.63884e-09
-4.48215e-09
1.56352e-09
-5.38333e-10
1.15876e-08
-2.57447e-09
-7.40177e-09
-1.61136e-09
-7.46717e-09
4.72461e-09
1.43301e-08
-7.15913e-09
-1.74575e-09
-3.68883e-09
-7.95246e-09
-1.7843e-08
-2.30157e-09
1.26774e-08
-1.35726e-08
-1.16721e-08
2.97613e-09
-1.96481e-09
-3.53506e-09
2.52383e-09
-4.62212e-09
-6.669e-10
8.26509e-09
-5.32809e-09
-1.25884e-09
1.0206e-08
1.10596e-08
-7.47097e-09
-1.71613e-08
2.8042e-09
5.95394e-09
-3.17237e-09
-5.92194e-10
3.76269e-09
-1.49225e-08
-7.13391e-09
6.4031e-09
-6.54361e-09
-2.43496e-09
9.37875e-09
-2.79514e-09
-4.14842e-09
-7.27901e-09
1.29718e-08
-8.1276e-09
-8.02115e-09
-1.44584e-08
-8.13786e-09
5.79038e-09
1.17265e-08
2.33916e-10
9.51752e-09
1.981e-10
-4.64635e-09
-5.06856e-09
8.19408e-09
1.07901e-08
4.28132e-10
-1.63268e-08
7.87792e-09
3.96129e-09
-6.32805e-09
-1.03593e-08
6.91823e-09
-6.91576e-09
1.03575e-08
-5.17426e-09
-4.98681e-09
-3.96602e-09
-1.25267e-09
1.34129e-08
1.07698e-08
-5.23816e-09
-3.631e-09
9.29667e-09
-1.92983e-08
5.78354e-09
6.59919e-09
-2.18975e-08
-1.1673e-08
1.42723e-08
-9.6416e-09
-1.74294e-08
-4.34903e-09
6.50175e-09
1.32378e-08
-1.8918e-08
3.18753e-09
-1.62258e-09
1.18593e-09
-2.34703e-09
-1.09139e-09
-3.29771e-09
4.80675e-09
-4.17824e-10
-6.25825e-09
-2.47751e-09
-2.88689e-09
3.16719e-09
-3.57831e-09
-1.11354e-08
1.07906e-09
6.57696e-10
6.14003e-09
-5.55797e-09
6.87713e-10
-1.57099e-09
5.81732e-09
9.81684e-10
-5.22763e-09
5.05998e-09
-1.97221e-10
-6.43338e-09
2.57804e-09
3.00167e-09
2.37908e-10
7.3861e-09
-1.22508e-09
-5.17903e-09
3.55479e-09
5.08117e-09
-3.5759e-09
5.69445e-09
4.38437e-10
8.44266e-09
-2.0031e-09
9.4689e-10
-2.73338e-09
9.54493e-09
-8.0365e-09
2.79262e-09
8.5604e-09
-2.91021e-09
5.53995e-09
2.54451e-10
1.35964e-10
8.29776e-09
-3.35239e-09
-6.35703e-09
1.15195e-08
-5.02631e-09
-6.45509e-09
1.17917e-08
-1.16934e-08
-9.38567e-09
9.43563e-10
8.53748e-09
2.31094e-09
9.10603e-09
3.35716e-09
-2.55452e-09
8.03048e-09
2.82217e-09
3.23906e-09
-9.89814e-11
8.45402e-09
-9.12204e-10
1.88828e-09
1.03343e-10
1.63802e-09
-1.94114e-09
6.01505e-10
1.04459e-08
-1.86931e-09
8.46555e-09
-1.52917e-09
1.01615e-08
6.68808e-09
-2.71548e-09
-4.95403e-09
1.08507e-08
-3.18103e-09
2.78714e-09
-5.23153e-09
-3.67186e-09
6.11625e-09
-1.83848e-09
4.4592e-09
1.6664e-10
-4.65407e-09
-5.09016e-09
7.02877e-09
-2.14896e-09
-2.64769e-09
1.4248e-10
-4.73742e-09
-6.86654e-09
6.65e-09
-8.15558e-09
3.81895e-10
3.03625e-09
-3.95948e-09
-2.7907e-11
-4.88119e-09
2.1094e-10
-4.19847e-10
-3.69158e-09
-3.83722e-09
-1.56906e-09
-3.36682e-09
-3.22001e-09
-3.88913e-09
-2.91157e-09
6.6561e-09
-3.38103e-09
-5.67131e-09
2.39609e-09
5.57953e-09
-2.52069e-09
-6.42583e-09
-1.07609e-09
4.43808e-10
-7.56716e-09
1.66712e-10
1.04825e-08
-3.08213e-09
-1.32784e-09
-1.17115e-08
5.47196e-09
1.79593e-09
-7.36948e-09
-3.2189e-10
5.89559e-09
-8.01385e-09
6.04252e-10
9.20535e-09
-7.3351e-09
8.92144e-09
-1.41969e-09
-4.88027e-09
9.45646e-09
-1.19116e-08
2.92906e-09
-9.13723e-09
-3.78481e-09
-9.24039e-09
-6.71789e-10
-1.03782e-08
5.09934e-09
-9.23753e-09
1.45162e-08
-6.78916e-09
-3.00942e-09
-5.79648e-10
4.86828e-10
-7.82399e-09
7.0152e-09
6.19034e-09
1.83243e-09
8.34834e-10
2.92981e-09
8.03611e-09
-6.04281e-09
9.3576e-10
3.22284e-09
6.33349e-10
-1.30967e-08
8.42669e-09
-3.40012e-09
2.41214e-09
1.35844e-09
-1.1735e-08
2.05525e-09
8.32138e-09
-1.12569e-08
2.13748e-09
1.0478e-08
-3.59514e-10
-5.44413e-09
-5.93115e-09
-6.59401e-09
-5.02226e-09
3.28062e-09
-9.68923e-09
-1.85169e-10
-8.6739e-09
-3.52759e-10
1.11641e-08
-7.9226e-09
-1.16742e-09
4.16062e-10
1.55372e-09
-6.19561e-09
3.87166e-09
9.75736e-09
-1.15738e-08
9.80539e-09
-1.0991e-08
1.79264e-11
1.33241e-08
-4.9737e-09
-4.46374e-09
-5.39345e-09
-3.1735e-09
4.76193e-09
3.80551e-09
-3.35491e-09
-8.32614e-09
6.28717e-09
-1.23056e-08
9.93836e-09
-8.06337e-10
-1.1292e-08
3.30824e-09
4.62854e-09
-7.74532e-09
1.45266e-09
-6.01321e-09
-1.11269e-08
-4.94456e-09
2.89014e-09
-1.08448e-08
-3.1726e-09
-1.76142e-09
-6.64057e-09
-5.47058e-09
3.62342e-10
-1.18029e-08
1.69116e-08
-1.0395e-08
8.23255e-09
8.59381e-09
-9.60928e-09
1.09544e-08
1.37182e-08
1.04564e-08
-6.25e-09
-5.9681e-09
-1.17104e-08
-2.77059e-09
2.67813e-09
-1.16489e-08
-8.75468e-10
-1.15044e-08
7.08872e-09
-5.36347e-09
-6.65554e-09
4.92982e-09
-1.89972e-09
-2.43535e-09
1.14235e-08
8.0889e-09
-1.05735e-08
-2.87899e-09
-3.47691e-09
9.66578e-09
-1.17035e-08
4.80216e-09
2.45185e-10
7.443e-09
4.98297e-09
-8.10761e-09
-4.31988e-09
-4.67552e-09
4.14164e-10
-1.02796e-08
-2.35102e-09
1.01945e-08
-8.70831e-09
3.23073e-09
-5.97772e-09
3.86607e-10
-8.47872e-09
3.44117e-09
-9.40907e-10
-8.55528e-10
1.02842e-08
-1.79078e-08
7.08878e-09
-1.60528e-08
9.61688e-09
-7.20431e-09
1.64467e-09
-1.39508e-08
9.95471e-09
-1.22217e-08
1.03891e-08
1.725e-08
2.3544e-09
-9.32055e-09
8.46924e-09
7.55016e-09
-6.64189e-09
-4.04635e-09
-1.7479e-08
-1.06419e-08
1.02685e-08
-1.1339e-08
6.35114e-09
-1.24914e-08
7.48314e-09
-1.42999e-08
-3.31203e-09
1.01281e-08
1.5027e-08
-5.69768e-09
-2.06686e-08
4.47593e-09
-9.09729e-11
-5.29275e-09
1.18282e-08
-2.06e-09
1.46932e-08
-9.40568e-09
-1.05808e-08
-6.83226e-09
-1.23104e-08
1.16679e-08
3.18421e-09
-8.01684e-10
6.47964e-09
-2.15832e-08
1.2039e-08
-1.98595e-08
-3.05871e-10
1.55289e-08
-1.0156e-08
8.59849e-09
2.03328e-09
-4.75712e-10
-3.83718e-09
-6.02844e-09
-2.90269e-10
-6.17844e-09
-5.39818e-09
7.73951e-09
5.95444e-10
5.59765e-09
3.92822e-09
-1.01215e-08
5.79355e-09
-1.13765e-08
6.45047e-09
-6.88146e-09
-1.40065e-09
7.57142e-09
-2.24264e-09
8.57136e-09
-4.17844e-09
2.28413e-09
1.02757e-08
-3.98852e-09
9.86306e-09
-9.16117e-10
-6.66279e-09
9.03441e-09
7.38376e-09
-6.14249e-09
7.41784e-09
-2.13029e-09
3.74673e-09
-3.83698e-09
8.25845e-09
2.02874e-09
-1.1789e-08
1.48524e-08
4.3543e-09
-6.09195e-09
1.6866e-09
-2.35756e-09
4.35331e-09
3.37935e-09
2.13169e-09
-1.68396e-10
6.2948e-09
7.0688e-09
3.6613e-09
9.19196e-09
2.23022e-09
-5.96442e-09
4.25534e-09
-1.30166e-08
-6.30843e-09
-8.76149e-09
-1.4048e-08
4.8687e-09
-9.42424e-10
1.10352e-08
-2.59943e-09
-6.28573e-09
-2.15041e-09
8.14285e-09
6.37591e-09
-3.48362e-09
-6.75019e-09
-9.19644e-09
1.37037e-08
1.51447e-08
-4.97348e-09
-8.78414e-09
-4.76144e-09
1.09457e-08
-1.96359e-09
7.23553e-09
-3.9687e-09
-1.92702e-09
5.61556e-09
-5.65202e-09
-8.88767e-09
4.12084e-09
4.37055e-09
4.87702e-09
-2.21063e-09
-3.01832e-09
-1.62341e-09
4.4997e-09
-1.09467e-09
6.27149e-09
-1.65709e-09
2.52556e-09
5.98108e-09
-6.8461e-09
-5.29519e-09
-7.65798e-09
1.08206e-08
2.13233e-09
-1.86147e-09
9.09676e-09
-1.25288e-08
3.32343e-09
-6.8409e-09
-2.15738e-09
-8.05955e-09
3.22887e-09
6.98858e-09
-9.14023e-09
-6.75855e-10
-1.01131e-08
-6.45858e-10
8.00393e-09
2.75492e-09
-2.17004e-09
-3.26889e-09
9.74709e-09
1.46704e-09
3.45288e-09
-4.48748e-09
3.52694e-09
-1.34145e-09
-3.87827e-09
3.2757e-09
1.94462e-09
-3.04393e-09
-2.76971e-10
1.97958e-09
-1.0337e-09
6.61378e-10
-4.19511e-09
1.17612e-10
3.17285e-09
1.28029e-09
-8.46971e-11
-6.04701e-09
2.22829e-09
3.54188e-09
2.43577e-09
-4.80708e-09
-7.87273e-10
4.05785e-09
1.53756e-09
6.9547e-09
-6.07884e-09
-5.68262e-09
4.06927e-09
8.94025e-10
4.99842e-09
1.29919e-09
-8.35069e-09
8.0204e-09
4.38841e-09
-6.15443e-10
-7.80199e-10
-6.71536e-09
1.24418e-08
5.35513e-09
-5.11391e-09
1.33627e-08
7.89369e-09
-8.81472e-09
4.9955e-09
1.81245e-08
-1.12125e-08
-9.86021e-09
7.21904e-09
1.38535e-08
-2.37333e-10
-5.61975e-09
1.00613e-08
-1.15335e-08
1.96329e-08
1.17507e-08
-2.13222e-08
5.74151e-09
1.91289e-08
-5.23778e-09
-2.16366e-08
-2.60461e-09
1.43809e-08
-1.01231e-08
-3.55002e-09
1.57644e-08
1.12725e-08
2.79033e-09
4.40553e-09
1.21187e-08
1.21281e-08
3.47144e-09
-4.23279e-09
1.41896e-09
-2.52626e-09
-1.15502e-09
-9.17538e-09
1.83733e-09
-3.70726e-09
-2.36301e-09
-1.04214e-09
3.53138e-10
-1.60355e-09
-2.52159e-09
7.91273e-10
-6.2748e-09
3.33238e-09
-4.14468e-09
7.79283e-10
4.0935e-09
-6.30799e-10
-1.12803e-08
7.81858e-09
1.94891e-09
-1.01811e-08
1.23258e-08
-3.27719e-09
1.2988e-08
-7.76144e-09
-4.54477e-09
-1.09152e-08
1.21832e-08
-1.35674e-08
8.39227e-09
7.3394e-09
-1.23869e-08
-1.78055e-10
5.22595e-09
-1.29233e-08
9.34746e-09
3.63144e-09
-1.03917e-08
-4.51959e-09
7.30738e-10
-7.28023e-09
4.23157e-09
-6.28959e-09
-5.98608e-09
8.04455e-09
8.57998e-09
-2.98186e-09
-1.36619e-09
1.28471e-09
-9.02515e-09
-5.82673e-09
-6.53312e-09
-5.10531e-09
-5.79766e-09
-1.31222e-08
-5.4345e-09
-1.39824e-08
6.80064e-10
5.63104e-09
2.26927e-09
-3.20978e-09
-5.56941e-09
-1.49337e-08
-1.5745e-09
-1.73643e-09
-9.37891e-09
1.26907e-08
-2.96021e-09
-7.55859e-09
8.9465e-09
-2.75344e-09
-1.02055e-08
1.12247e-08
-1.0282e-08
4.56888e-09
-1.36094e-10
-1.07117e-08
3.29021e-09
1.02861e-09
-1.05432e-08
4.77696e-10
-8.24144e-09
-2.51784e-09
-2.62453e-10
1.66628e-08
-4.10718e-09
-1.60088e-09
1.96692e-08
6.8315e-09
-9.06828e-09
-1.86961e-09
-6.6445e-09
5.23472e-09
-1.28856e-08
1.30165e-08
2.95998e-09
-1.28346e-08
-6.02574e-09
8.81297e-09
-1.44807e-08
2.46345e-09
3.20431e-09
4.29915e-09
1.07098e-08
-6.19599e-09
-7.02726e-09
-4.9389e-09
4.91874e-09
7.04746e-09
-2.66451e-09
-4.11371e-09
-2.48961e-10
-1.24038e-08
8.08051e-09
-1.01575e-08
5.79894e-09
-7.64598e-09
4.3105e-09
4.39139e-11
1.00542e-08
-6.55546e-09
4.80815e-09
-4.30186e-09
6.04914e-09
-2.93601e-09
-3.23898e-09
-3.80424e-10
3.62589e-09
-3.70785e-09
-2.5825e-09
-3.11757e-10
-1.00122e-09
-6.54471e-09
-5.04944e-10
9.77085e-09
-6.997e-09
1.3233e-09
1.37186e-09
-6.06517e-09
-4.17079e-09
-4.09644e-09
-6.15608e-09
-2.82756e-09
-5.13021e-09
-1.08399e-08
6.78263e-10
-3.78184e-10
4.80158e-09
-7.13697e-09
2.71361e-09
6.27679e-09
-9.41475e-09
2.76002e-09
-5.59838e-09
3.01984e-09
-1.94387e-09
4.52197e-09
1.6448e-09
1.82845e-10
-7.42693e-09
-1.37474e-09
-3.96865e-09
1.16204e-08
6.44673e-09
-3.76771e-10
-1.71707e-09
-8.0749e-09
1.28033e-08
-5.93199e-09
-4.44961e-09
5.43972e-09
5.41978e-09
1.71177e-09
-7.46153e-09
1.37276e-08
-6.94211e-09
1.51984e-08
1.79284e-08
-5.44842e-09
-2.49329e-09
-9.98669e-09
1.03105e-08
3.93551e-09
3.68265e-09
7.87184e-09
9.54009e-09
-7.1014e-09
-1.29629e-08
9.34619e-09
7.5523e-09
-1.20291e-08
-6.38228e-09
-5.52739e-09
-9.98964e-09
1.30237e-08
-2.45432e-09
1.27384e-08
-9.28763e-09
4.31749e-09
1.12094e-08
4.23016e-09
1.52715e-08
8.82444e-11
1.93945e-08
-1.52529e-08
-1.38305e-08
2.13334e-08
1.54658e-08
4.69529e-09
1.07065e-08
-1.07217e-08
-4.68052e-09
1.18709e-08
-9.30484e-09
2.1286e-09
-1.02323e-08
-2.73965e-09
9.46286e-10
1.20252e-08
1.9465e-09
-1.4727e-09
-8.6104e-10
9.992e-09
-2.03317e-10
-1.19007e-08
2.79865e-09
3.10259e-09
-1.40279e-08
8.82889e-09
9.25714e-09
-7.96965e-09
-1.01168e-08
2.59661e-09
7.39579e-09
-7.27192e-09
1.82228e-09
-1.88331e-09
1.02253e-08
-8.45508e-09
3.82551e-09
7.22596e-09
7.76321e-10
2.54932e-11
-4.76732e-09
5.97752e-10
6.87669e-09
5.00248e-10
-6.60094e-09
8.81884e-09
-1.01222e-08
-1.64972e-09
3.13673e-09
8.63525e-09
-7.54418e-09
-1.31098e-09
-1.26687e-09
-1.18054e-08
1.43999e-09
8.71581e-09
-1.03337e-08
-2.73465e-09
1.263e-09
-2.0484e-09
-8.35236e-09
6.72418e-11
-7.90599e-09
-1.68646e-09
-1.35978e-08
2.30529e-09
1.44292e-08
-9.85044e-09
-5.05848e-09
-1.16371e-08
6.57392e-10
1.24196e-08
-1.3698e-08
-6.73707e-10
8.21695e-09
4.84462e-09
4.53922e-09
5.50613e-09
6.83899e-09
-1.51074e-08
1.80702e-08
-8.84101e-09
6.48801e-10
6.79959e-09
1.23803e-09
-4.24951e-09
-7.07004e-09
-1.44655e-08
-5.04232e-09
4.13436e-09
1.53734e-08
-2.57714e-09
-8.606e-09
-3.28301e-09
6.04744e-09
-5.9241e-09
-2.70118e-09
3.80049e-09
-4.87715e-09
9.47992e-09
-8.40322e-09
-2.44837e-10
6.2566e-09
-2.21127e-09
1.54058e-09
3.48544e-09
1.68853e-09
-6.7146e-09
9.41702e-09
-1.27537e-08
-1.11971e-08
-4.38583e-10
6.59316e-09
-1.03861e-08
-7.46976e-09
1.23952e-08
-7.91353e-10
-4.16363e-09
2.74111e-09
1.83957e-09
-4.27834e-09
3.49173e-09
-2.04807e-09
5.05106e-09
3.99027e-09
7.18761e-09
4.12e-09
-9.3262e-10
-1.39174e-09
3.30207e-09
-3.96359e-09
-2.72052e-10
-5.3955e-09
4.32918e-09
4.36824e-09
-5.86737e-09
-9.65436e-09
-2.70272e-09
-1.95806e-09
1.43153e-08
-4.74614e-09
7.10636e-09
-1.20146e-08
-9.33486e-09
1.02894e-08
-3.65668e-09
1.64937e-09
-1.57302e-08
4.90792e-09
-1.93113e-10
7.4768e-09
-1.21914e-08
-8.55662e-09
4.19483e-10
1.30454e-08
-2.9504e-09
3.59722e-09
-7.08424e-09
6.43769e-09
5.12789e-09
-8.27118e-09
-1.56485e-09
7.15303e-09
2.69271e-09
-8.28023e-09
6.25889e-09
-1.50407e-08
1.04312e-08
4.83806e-09
-4.45813e-09
5.87904e-09
2.01515e-09
-3.37966e-09
8.47132e-09
-6.83377e-09
3.33578e-09
-5.05832e-09
1.89102e-09
-6.00742e-09
5.99681e-09
7.16372e-09
2.2786e-09
-8.81409e-09
5.28311e-10
1.00137e-08
-5.22043e-09
4.14991e-10
-3.76784e-09
-3.84507e-09
9.62834e-09
-7.12845e-09
8.19878e-09
5.18051e-09
-7.55863e-09
-6.56722e-09
8.94528e-09
4.95919e-10
5.09878e-09
-4.14307e-10
7.45522e-10
-3.41512e-11
8.97963e-09
-9.69104e-09
-8.36017e-09
8.11343e-10
8.29426e-09
-3.96785e-09
-3.71532e-10
-4.02096e-09
-1.02187e-08
1.00232e-08
6.51328e-10
-4.55607e-10
-7.09523e-09
-5.9648e-09
2.84123e-09
1.93443e-09
-6.89455e-09
-2.13537e-09
-3.21612e-09
5.43072e-09
-2.80132e-10
5.73172e-09
-1.60898e-09
-4.84424e-09
7.21175e-10
8.73006e-11
-2.29275e-09
-4.6893e-09
4.13895e-10
8.47768e-10
4.46973e-09
5.75967e-10
-3.19754e-09
-5.94515e-10
5.79194e-09
-8.13231e-09
-1.62764e-09
1.84314e-10
6.41894e-09
-8.45444e-09
5.29644e-09
-2.80685e-09
-5.74021e-09
-2.62709e-09
1.18047e-09
-6.50685e-09
2.91995e-09
8.32254e-10
-2.90445e-09
3.99953e-09
-5.03609e-10
-2.5673e-10
-6.4697e-09
-4.818e-09
4.6316e-09
1.52256e-10
-3.22614e-10
9.79688e-09
2.2027e-09
-1.97631e-09
6.13201e-09
-7.20869e-09
5.93063e-09
-5.95069e-09
1.40764e-09
-1.38684e-09
-2.54277e-09
2.45156e-09
6.02235e-09
-7.64238e-09
-1.24025e-09
6.34022e-09
-3.79215e-09
1.40788e-09
-5.25807e-09
-3.08555e-09
-6.65728e-09
-4.27346e-09
3.38512e-10
6.38665e-09
-3.04216e-09
1.76384e-10
1.49653e-08
-5.05275e-09
-8.50428e-09
2.79246e-09
1.09328e-08
-8.52419e-09
2.61668e-09
8.70037e-09
1.50729e-09
-9.54716e-09
-4.8415e-10
1.33722e-09
2.98624e-09
1.29594e-09
-5.61845e-09
2.00914e-09
-3.75737e-09
4.97209e-09
2.33603e-11
-7.39414e-09
5.09074e-09
-4.61869e-09
6.92247e-09
-6.16817e-09
2.81426e-10
-4.65099e-09
-9.94874e-09
8.04604e-09
1.72351e-09
2.06807e-10
3.08188e-09
-5.83273e-09
-3.41713e-09
1.86766e-10
-9.18766e-09
-1.15023e-08
1.38459e-08
-3.51064e-09
1.16676e-09
4.75097e-09
8.45905e-09
-1.66801e-08
3.46995e-09
1.16065e-08
-1.83579e-08
4.75713e-09
1.19272e-08
-8.22547e-09
2.22649e-08
-5.90152e-09
8.8595e-09
9.40383e-09
-6.28321e-09
-1.19802e-08
2.9103e-09
8.67238e-09
2.26321e-09
1.66056e-08
1.5055e-08
-9.3958e-09
1.02285e-08
1.54132e-09
-8.58715e-10
9.78353e-09
4.78953e-10