/*--------------------------------*- C++ -*----------------------------------*\
| =========                 |                                                 |
| \\      /  F ield         | OpenFOAM: The Open Source CFD Toolbox           |
|  \\    /   O peration     | Version:  v1612+                                |
|   \\  /    A nd           | Web:      www.OpenFOAM.com                      |
|    \\/     M anipulation  |                                                 |
\*---------------------------------------------------------------------------*/
FoamFile
{
    version     2.0;
    format      ascii;
    class       volVectorField;
    location    "50";
    object      wallShearStress;
}
// * * * * * * * * * * * * * * * * * * * * * * * * * * * * * * * * * * * * * //

dimensions      [0 2 -2 0 0 0 0];

internalField   uniform (0 0 0);

boundaryField
{
    WALL
    {
        type            calculated;
        value           nonuniform List<vector> 
1686
(
(-0.0156195 0.0119824 -0.0018096)
(-0.0151454 0.0101596 -0.00103479)
(-0.0338235 0.0338083 0.0105818)
(-0.0317482 0.0296896 0.00552144)
(-0.0204615 0.00916771 0.00129519)
(-0.0217604 0.00993628 0.00137418)
(-0.00810546 0.00591671 0.00691682)
(-0.00649351 0.00637352 0.00913499)
(-0.012185 0.0145563 0.0036335)
(-0.0121041 0.0126582 0.00215455)
(-0.0141097 0.010107 -1.69919e-05)
(-0.0144527 0.0128113 0.000332987)
(-0.0192562 0.0350206 0.0191453)
(-0.0187979 0.0416568 0.0184768)
(-0.0269387 0.0250102 0.00422871)
(-0.020911 0.0217881 0.00268377)
(-0.019089 0.0202729 0.00438025)
(-0.0229812 0.0219601 0.00567714)
(-0.0181633 0.0257119 0.0131436)
(-0.0189823 0.0247214 0.0155709)
(-0.0174886 0.0154576 -0.00509358)
(-0.0163928 0.0123746 -0.00357779)
(-0.0216271 0.035907 -0.0106837)
(-0.0166735 0.0361646 -0.0113377)
(-0.0243064 0.0290032 -0.0105442)
(-0.0256268 0.0243247 -0.00831102)
(-0.0215022 0.018354 -0.00718324)
(-0.0219229 0.0184633 -0.00696398)
(-0.0242214 0.0330549 -0.00657368)
(-0.0202102 0.0137311 -0.00454163)
(-0.0208486 0.0144695 -0.00495871)
(-0.0242708 0.0145055 -0.000912875)
(-0.0265973 0.0179979 -0.000217101)
(-0.0274864 0.025159 -0.00553672)
(-0.0272288 0.0305159 -0.00933607)
(-0.0106954 0.0154074 0.00719043)
(-0.0253078 0.028468 0.000339071)
(-0.022279 0.0274919 -0.00200183)
(-0.0293404 0.0380515 -0.00353196)
(-0.0336925 0.0400605 0.00130267)
(-0.00297723 0.0149112 0.00270275)
(-0.000974651 0.0137524 0.00279902)
(-0.0162977 0.0180423 0.00538255)
(-0.0132222 0.0161697 0.00538617)
(-0.00638505 0.012008 0.00764033)
(-0.00870046 0.0141098 0.00706253)
(-0.00817261 0.0138887 0.00526722)
(-0.00828647 0.0135537 0.0056223)
(-0.00995937 0.0155929 0.00658246)
(-0.00946193 0.0148013 0.0054111)
(-0.005412 0.0107426 0.00554801)
(-0.0061594 0.012195 0.00441007)
(-0.014523 0.0198459 -0.00133024)
(-0.0148682 0.0175239 -0.00276396)
(-0.0177761 0.0124577 -0.00433705)
(-0.0159751 0.0100908 -0.00228581)
(-0.0155265 0.0210659 -0.00429889)
(-0.0151504 0.0234846 -0.00250957)
(-0.0131892 0.0102839 0.00131386)
(-0.0162994 0.036938 -0.0115608)
(-0.000642012 -0.00227212 0.00191035)
(-0.000549654 -0.00198358 0.00128328)
(-0.00109036 -0.000953373 0.00174039)
(-0.000808298 -0.00162695 0.00195983)
(-0.000892732 -0.000911363 0.00142903)
(-0.000510682 -0.00149705 0.000938718)
(-0.0106906 0.00474699 0.00329816)
(-0.00912995 0.00432086 0.00402525)
(-0.0104399 0.00503826 0.00382143)
(-0.00973014 0.00406558 0.00400554)
(-0.0103331 0.00486875 0.00391504)
(-0.0107875 0.00473278 0.00339301)
(-0.0140544 0.0193195 0.0106588)
(-0.0122255 0.016486 0.0104405)
(-0.0128221 0.0171242 0.01133)
(-0.0117217 0.0164652 0.00904848)
(-0.0124225 0.0178787 0.00812187)
(-0.0131193 0.0192715 0.00918616)
(-0.0132945 0.0171422 0.0124265)
(-0.0246695 0.0307054 -0.0100315)
(-0.02212 0.0328674 -0.0109993)
(-0.0254173 0.0318808 -0.0110386)
(-0.0234729 0.034056 -0.0123837)
(-0.0202548 0.0344594 -0.0133586)
(-0.0205338 0.0219871 -0.0083075)
(-0.0204483 0.0179626 -0.00679228)
(-0.0207954 0.0171695 -0.00640509)
(-0.0210661 0.0210415 -0.00846588)
(-0.0201984 0.0202017 -0.00766167)
(-0.0218978 0.0188467 -0.00804977)
(-0.0198962 0.0080739 -0.000156136)
(-0.0219353 0.0109004 -0.00179614)
(-0.0188278 0.00709263 0.000801441)
(-0.0203746 0.00990557 -0.000883764)
(-0.0205803 0.00908491 -0.00100098)
(-0.0198395 0.00790005 0.000583424)
(-0.0264126 0.0284785 -0.000335285)
(-0.0271107 0.0280504 0.00132381)
(-0.0226438 0.0252954 -0.000638783)
(-0.0294731 0.0301386 0.00139076)
(-0.0298433 0.0285352 0.00137776)
(-0.0239121 0.027825 -0.000515538)
(-0.0313045 0.0278723 0.0101318)
(-0.0321593 0.030075 0.0142089)
(-0.0326339 0.0317876 0.0128417)
(-0.0351684 0.0335562 0.0157252)
(-0.0328708 0.0309533 0.0132167)
(-0.00914485 0.000981095 0.00371596)
(-0.00498505 0.000423773 0.00308364)
(-0.00815738 0.0015153 0.00374678)
(-0.00637549 0.000638259 0.00371475)
(-0.00801069 0.000826037 0.00393823)
(-0.00625749 0.00138876 0.0033951)
(-0.00638206 0.00311931 0.00447856)
(-0.00653987 0.00264733 0.00397313)
(-0.00703493 0.00235053 0.00460206)
(-0.004966 0.00191888 0.00405578)
(-0.00535782 0.00238673 0.0042731)
(-0.00523151 0.00168172 0.0038728)
(-0.00535877 0.0102272 0.00694733)
(-0.00619829 0.0117813 0.00555853)
(-0.00531053 0.010321 0.00688268)
(-0.00574889 0.0114315 0.00609439)
(-0.00678491 0.0122087 0.00636538)
(-0.00386286 0.00218122 0.00663945)
(-0.00359447 0.0022885 0.00737469)
(-0.00295179 0.000855944 0.00506361)
(-0.00283358 0.00117207 0.00553003)
(-0.00350297 0.00147003 0.00562506)
(-0.0028567 0.00183794 0.00627226)
(-0.0139335 0.0273517 0.00256885)
(-0.0143702 0.0251677 0.00275215)
(-0.0143029 0.0268429 0.0013763)
(-0.0146614 0.0282143 0.00446301)
(-0.0147427 0.0267617 0.00546052)
(-0.0157642 0.0277312 0.00416776)
(-0.0126209 0.00537386 0.00199331)
(-0.0137923 0.0061559 0.00233948)
(-0.013665 0.00517984 0.0025825)
(-0.0137913 0.00519201 0.00123989)
(-0.0140201 0.00561083 0.00129628)
(-0.0117929 0.00433368 0.00231323)
(-0.0148829 0.0080527 -0.000399866)
(-0.0148174 0.00749813 0.000503795)
(-0.0136138 0.0065623 0.000750252)
(-0.0147103 0.00844758 -7.08606e-05)
(-0.0142784 0.00716019 0.000505374)
(-0.0150529 0.00869792 -0.000565345)
(-0.0167651 0.0156973 -0.00313367)
(-0.0172018 0.0192122 -0.00391617)
(-0.0148227 0.0162697 -0.00188673)
(-0.0170511 0.0180214 -0.00180297)
(-0.015754 0.0139796 -0.00339738)
(-0.0150224 0.0107306 -0.00106905)
(-0.0146781 0.00964387 -0.00103297)
(-0.0162015 0.0131547 -0.00221444)
(-0.0152499 0.0123877 -0.00129594)
(-0.0164049 0.0125413 -0.00324719)
(-0.0151607 0.0115145 -0.00228939)
(-0.0151588 0.0107119 -0.00127553)
(-0.0154645 0.0107847 -0.00132149)
(-0.0159767 0.0146577 -0.0040876)
(-0.0166253 0.0180628 -0.00465666)
(-0.0159395 0.0180738 -0.00491852)
(-0.0158443 0.0168867 -0.00436493)
(-0.0182186 0.0173175 -0.00318074)
(-0.0167464 0.0140947 -0.00428991)
(-0.0130244 0.00886902 0.00115366)
(-0.0141848 0.00917381 0.00111531)
(-0.0138713 0.00822106 0.00161222)
(-0.0033931 0.00125456 0.00431402)
(-0.00468262 0.00222564 0.00456496)
(-0.00471819 0.00238111 0.00480323)
(-0.00310584 0.000847593 0.00382987)
(-0.0037197 0.00162931 0.00399433)
(-0.00390066 0.00195511 0.00440261)
(-0.00531408 0.00314124 0.00696239)
(-0.00585964 0.00421275 0.00617356)
(-0.00578222 0.00393666 0.00703878)
(-0.00624123 0.00424899 0.00689519)
(-0.00474236 0.0028285 0.00606732)
(-0.00488 0.00336638 0.00539952)
(-0.00447461 0.00773935 0.00729226)
(-0.00354722 0.00482696 0.0076305)
(-0.00343596 0.00626376 0.00639567)
(-0.0037422 0.00577939 0.00741994)
(-0.00343625 0.00535653 0.00663499)
(-0.0042542 0.00825119 0.00622764)
(-0.00459519 0.00916944 0.00641812)
(-0.0202056 0.0330803 0.0158115)
(-0.02224 0.0323393 0.0166981)
(-0.0198678 0.0342744 0.0148247)
(-0.0200833 0.0365933 0.0151778)
(-0.0216837 0.031456 0.016097)
(-0.0186414 0.0346874 0.0146369)
(-0.0202251 0.0200115 0.00562591)
(-0.0200677 0.0194359 0.00585173)
(-0.0242462 0.0229572 0.00773428)
(-0.0218984 0.0215227 0.00619379)
(-0.0202063 0.0191511 0.0069302)
(-0.022129 0.0209159 0.00798368)
(-0.0314136 0.0238203 0.00937692)
(-0.0264495 0.0249144 0.0107611)
(-0.0296718 0.0288921 0.0138688)
(-0.0286692 0.0239798 0.0119816)
(-0.0310978 0.0299563 0.0131199)
(-0.0295637 0.0272271 0.0104595)
(-0.0302336 0.031538 0.0180834)
(-0.0260061 0.0297516 0.0171144)
(-0.031017 0.0299891 0.0167611)
(-0.028709 0.0304992 0.0158942)
(-0.0268522 0.0292256 0.0168848)
(-0.0257665 0.0309225 0.0172283)
(-0.022447 0.0351093 0.0185001)
(-0.0230396 0.0351222 0.0189895)
(-0.0245374 0.0322947 0.0174649)
(-0.0275341 0.0318629 0.0185272)
(-0.0253084 0.0356391 0.0180086)
(-0.0192609 0.0325629 0.0160228)
(-0.0222277 0.0182069 0.0111908)
(-0.0238872 0.0206372 0.0132001)
(-0.0267661 0.023085 0.0115471)
(-0.0228025 0.0193912 0.00846952)
(-0.024023 0.0215474 0.00995262)
(-0.0245522 0.0203388 0.0095262)
(-0.0235001 0.0205002 0.0103316)
(-0.0187223 0.0244581 0.014522)
(-0.0223014 0.025505 0.0172204)
(-0.0218062 0.0293012 0.0166641)
(-0.0206427 0.0295899 0.0154789)
(-0.0189922 0.0276353 0.0151756)
(-0.0200531 0.0244205 0.0158847)
(-0.0233553 0.0251714 0.0162139)
(-0.0224448 0.0235233 0.0159838)
(-0.0217496 0.0211465 0.0155384)
(-0.0233355 0.0233398 0.0148066)
(-0.0244984 0.0217496 0.015589)
(-0.0234597 0.0228564 0.0159478)
(-0.0252764 0.0260359 0.016962)
(-0.0252288 0.0303084 0.0174754)
(-0.0219116 0.0278905 0.0163835)
(-0.0251071 0.0273354 0.0168522)
(-0.0251061 0.0318941 0.0182551)
(-0.0231161 0.0289465 0.0171711)
(-0.0201546 0.0321018 0.014311)
(-0.0158815 0.0328576 0.00989808)
(-0.0168125 0.0311711 0.0126621)
(-0.0175176 0.0320783 0.0118564)
(-0.0200738 0.03111 0.0151239)
(-0.0203331 0.0319909 0.01517)
(-0.0179207 0.0177091 0.00659838)
(-0.0207828 0.0195292 0.00734518)
(-0.0167607 0.0179606 0.00672877)
(-0.0216482 0.0199647 0.00799395)
(-0.0197499 0.0195045 0.00807189)
(-0.0196107 0.0202085 0.00688134)
(-0.00563088 0.00242008 0.00373739)
(-0.00306473 0.00170534 0.00270982)
(-0.00342371 0.00151538 0.00274726)
(-0.0053687 0.00266282 0.00403089)
(-0.0036524 0.00226046 0.00305376)
(-0.00455905 0.00216954 0.00337787)
(-0.000685394 -0.000278221 0.00205351)
(-0.00104609 -0.00220292 0.00118346)
(-0.000778009 -0.000944337 0.00176969)
(-0.000893777 -0.00172713 0.00157964)
(-0.000573544 -0.00170284 0.000670882)
(-0.00109537 -0.000567862 0.00205074)
(-0.0099653 0.0337768 -0.00237178)
(-0.00347417 0.0277898 0.000222895)
(-0.00684471 0.031549 -0.00133448)
(-0.00438554 0.00997583 0.00356873)
(-0.00494945 0.0112937 0.00253825)
(-0.00316597 0.00759616 0.0032364)
(-0.00416372 0.00954628 0.0023269)
(-0.00298449 0.00641108 0.00423335)
(-0.00832507 0.00308178 0.00437952)
(-0.00943305 0.0044171 0.00469411)
(-0.00902687 0.00344253 0.00418622)
(-0.00755903 0.00380866 0.00443614)
(-0.00817823 0.00390507 0.00465511)
(-0.00960798 0.00389067 0.00437334)
(-0.0027983 0.00742246 0.00317483)
(-0.00267323 0.0087369 0.00269454)
(-0.00213681 0.0059422 0.0033007)
(-0.00239641 0.00741788 0.00283209)
(-0.00524585 0.0145016 0.000673359)
(-0.00423232 0.0106268 0.00249156)
(-0.0040707 0.012745 0.00156403)
(-0.00191153 0.000403101 0.001783)
(-0.00314767 0.000814491 0.0024487)
(-0.0019895 0.000388707 0.00168844)
(-0.00408559 0.00119899 0.00286318)
(-0.00286496 0.00117682 0.0025015)
(-0.00367367 0.00135417 0.00291988)
(-0.00733158 0.00168687 0.00442652)
(-0.00563782 0.000754656 0.00358099)
(-0.00748985 0.00109442 0.00404143)
(-0.00583128 0.00121898 0.00409417)
(-0.00467587 0.00102032 0.00354042)
(-0.00751479 0.00181123 0.00412329)
(-0.00928675 0.0416272 0.0193231)
(-0.00694476 0.0433425 0.0148509)
(-0.00627134 0.0413413 0.0167267)
(-0.0108506 0.0417937 0.0194016)
(-0.00535061 0.0443583 0.0144684)
(-0.00913437 0.0445706 0.0171816)
(-0.00411721 0.048445 0.00854959)
(-0.00270741 0.0460435 0.00799546)
(-0.00446613 0.0432087 0.00859203)
(-0.00367834 0.0465757 0.00227698)
(-0.00557315 0.0473019 0.00659573)
(-0.0035939 0.0468309 0.00514591)
(-0.00429057 0.0473865 -0.0112521)
(-0.00194403 0.0477487 -0.0128653)
(-0.00522023 0.0461846 -0.0133621)
(-0.00721653 0.0484442 -0.0140788)
(-0.00813459 0.0446551 -0.015099)
(-0.012422 0.0393804 0.024267)
(-0.0125511 0.0394732 0.0235689)
(-0.00743161 0.0452017 0.0213749)
(-0.0101467 0.0407161 0.0213682)
(-0.00777837 0.0426054 0.0215455)
(-0.00783623 0.0361956 0.0212464)
(0.00613893 0.0448881 -0.00687448)
(-0.000230463 0.0457424 -0.00887325)
(-0.000912662 0.0437722 -0.0111299)
(0.0059735 0.043175 -0.00716449)
(0.00319634 0.0429144 -0.00984047)
(0.00398317 0.0424364 -0.0076513)
(-0.0317441 0.0318219 0.0150329)
(-0.0323573 0.0346421 0.0147463)
(-0.0280823 0.0320337 0.0187115)
(-0.029551 0.0340311 0.0183114)
(-0.0337518 0.0349495 0.0145761)
(-0.0281652 0.0314201 0.0187666)
(-0.0162818 0.0397701 0.0221572)
(-0.021936 0.0422413 0.0244766)
(-0.021825 0.0378755 0.0241151)
(-0.0172082 0.0385127 0.0236336)
(-0.0147334 0.0385712 0.0216375)
(-0.0218972 0.0378624 0.0229222)
(-0.0176276 0.0257682 0.0215787)
(-0.0257966 0.0288974 0.0200324)
(-0.0207158 0.0300398 0.0236397)
(-0.0262095 0.029794 0.0217396)
(-0.0215089 0.026671 0.0215171)
(-0.0237873 0.0294054 0.0219156)
(-0.0149209 0.0367394 0.0103497)
(-0.0172591 0.036843 0.0132756)
(-0.0178796 0.0391774 0.0147817)
(-0.0182482 0.0354448 0.0155988)
(-0.0142365 0.039052 0.0116097)
(-0.0134701 0.0384941 0.00867073)
(-0.0164366 0.0350459 0.0198088)
(-0.0174517 0.0362342 0.0209807)
(-0.0161702 0.0422848 0.0226948)
(-0.0141502 0.0411382 0.0201875)
(-0.0138147 0.0367162 0.0177508)
(-0.0122914 0.0395547 0.0182137)
(-0.00919024 0.0469285 -0.00218045)
(-0.00721652 0.0463929 0.0030528)
(-0.0061824 0.0467433 -0.000500765)
(-0.00706602 0.0461221 0.0021736)
(-0.0099699 0.0499226 -0.00338535)
(-0.00596742 0.0419275 -0.00419295)
(-0.00921215 0.0444497 0.01514)
(-0.0104554 0.0403695 0.0162534)
(-0.00678005 0.0439705 0.00700372)
(-0.00700016 0.0438175 0.0122821)
(-0.00881133 0.0397592 0.011297)
(-0.00677633 0.0453125 0.00877184)
(-0.00994918 0.041731 0.00650275)
(-0.00884567 0.0421802 0.00529306)
(-0.0105949 0.0449136 0.00167122)
(-0.00976021 0.0435803 0.00239405)
(-0.00995025 0.0427985 0.00742874)
(-0.0121436 0.0475952 0.00402891)
(-0.00741587 0.0156856 0.000654619)
(-0.00865605 0.0185272 -0.000421081)
(-0.0122864 0.0211683 -0.00126742)
(-0.0103817 0.0187372 0.000161203)
(-0.00773792 0.0157476 0.000518438)
(-0.0113051 0.0206374 -0.0012149)
(-0.0186535 0.035976 -0.00459672)
(-0.015663 0.0366241 -0.00559997)
(-0.0193246 0.039002 -0.00445923)
(-0.0122675 0.0292682 -0.00253586)
(-0.0127223 0.0343157 -0.00353631)
(-0.0215146 0.0397813 -0.00537633)
(-0.0348335 0.0386531 0.00509376)
(-0.0360471 0.0393802 0.00630411)
(-0.0350536 0.0388202 0.00352242)
(-0.0349645 0.0403515 0.00354929)
(-0.0328017 0.0377884 0.00180991)
(-0.0306844 0.0415364 -0.00156274)
(-0.0337036 0.0458276 0.000746633)
(-0.0327899 0.0422391 0.00105551)
(-0.0305236 0.0458642 -0.00104229)
(-0.027666 0.0434404 -0.00355938)
(-0.0274116 0.0397053 -0.00402733)
(-0.02361 0.0290061 -0.00203127)
(-0.0206824 0.0273436 -0.00164856)
(-0.0233005 0.0302863 -0.00252574)
(-0.0197012 0.0283659 -0.00310152)
(-0.0179607 0.0254211 -0.00285288)
(-0.0167819 0.0254789 -0.00250805)
(-0.0350027 0.0365678 0.0140535)
(-0.0330091 0.0308105 0.0151298)
(-0.0328015 0.0345485 0.0144499)
(-0.0339935 0.0356979 0.0163904)
(-0.0317593 0.034956 0.0183104)
(-0.0329595 0.0370923 0.0190575)
(-0.0354642 0.0370787 0.00956516)
(-0.0365018 0.035812 0.00776459)
(-0.035893 0.0362084 0.0112648)
(-0.0367401 0.0363671 0.0130388)
(-0.0358834 0.033945 0.00977873)
(-0.0354526 0.0360962 0.00698989)
(-0.0364934 0.0343737 0.00593943)
(-0.0343961 0.0340185 0.00532303)
(-0.0313814 0.0324323 0.00339012)
(-0.031214 0.0329262 0.00201193)
(-0.0334003 0.0332147 0.00305769)
(-0.0347561 0.034055 0.00523877)
(-0.0359967 0.0363081 0.00995355)
(-0.0332148 0.0289311 0.00666388)
(-0.0279079 0.0215197 0.00117416)
(-0.0265855 0.0203643 0.00542154)
(-0.0261809 0.0198344 0.0042486)
(-0.0278253 0.0245182 0.000419901)
(-0.00795613 0.00232201 0.00427562)
(-0.00900218 0.00283074 0.0043787)
(-0.00997362 0.00354797 0.00420795)
(-0.00887493 0.00217532 0.00386716)
(-0.00991449 0.00240729 0.00349578)
(-0.0104406 0.00308349 0.00368998)
(-0.0169424 0.0108075 -0.00269857)
(-0.0179708 0.0126664 -0.00342614)
(-0.0186101 0.0115624 -0.00279758)
(-0.0173713 0.0122638 -0.00358914)
(-0.0172914 0.0108098 -0.00201792)
(-0.0179842 0.0136609 -0.00379151)
(-0.017241 0.00840759 -0.000888289)
(-0.0178211 0.0092555 -0.00130113)
(-0.017122 0.00731586 0.000446261)
(-0.0163651 0.00660671 0.000563509)
(-0.0160861 0.00712886 0.000211637)
(-0.0164467 0.00823072 -0.000825184)
(-0.0142255 0.00493246 0.00179135)
(-0.0121933 0.00392827 0.00273888)
(-0.0139563 0.00483701 0.00159789)
(-0.0131202 0.00469642 0.00219798)
(-0.0134797 0.00438884 0.00257997)
(-0.012791 0.00375144 0.00285211)
(-0.0148821 0.0051041 0.00415308)
(-0.0163352 0.00527852 0.00288485)
(-0.017734 0.00617372 0.00232112)
(-0.0140114 0.00481592 0.00367077)
(-0.0162929 0.00618542 0.00340231)
(-0.0238174 0.0128856 -0.00107173)
(-0.0218222 0.0110583 -0.00133076)
(-0.0228955 0.0133211 -0.00316912)
(-0.0244517 0.0158043 -0.00361361)
(-0.0245121 0.0151395 -0.00277558)
(-0.0219064 0.0109211 -0.000158971)
(-0.0196248 0.00845237 0.00207307)
(-0.0231141 0.0120375 -0.000195905)
(-0.0215808 0.035925 -0.0144823)
(-0.0198483 0.0408318 -0.0147982)
(-0.0227279 0.0323853 -0.0126469)
(-0.0198264 0.0421548 -0.0159053)
(-0.0229373 0.0335798 -0.0131683)
(-0.0197135 0.039999 -0.0124519)
(-0.0181316 0.0496647 -0.0140021)
(-0.0129732 0.0428752 -0.0112002)
(-0.0144813 0.0484851 -0.00977986)
(-0.0136657 0.0497425 -0.00978452)
(-0.0136809 0.0385004 -0.0114295)
(-0.0183213 0.0464305 -0.0131266)
(-0.0219673 0.0132407 -0.00395509)
(-0.0230337 0.0159438 -0.00540259)
(-0.0209266 0.0113614 -0.00327816)
(-0.0214116 0.012694 -0.00390095)
(-0.01867 0.0254027 -0.00901911)
(-0.0191011 0.032283 -0.0100179)
(-0.0211247 0.0271958 -0.00964331)
(-0.021638 0.0292928 -0.0113598)
(-0.0187423 0.0297595 -0.0105806)
(-0.0188959 0.0291409 -0.0100804)
(-0.0277657 0.0226838 -0.00253433)
(-0.0273323 0.0270352 -0.00630402)
(-0.0267232 0.0247591 -0.00666378)
(-0.0278787 0.0275671 -0.00779379)
(-0.026974 0.02285 -0.00314659)
(-0.0267828 0.0249744 -0.00353304)
(-0.00851925 0.0459778 -0.0145471)
(-0.0133519 0.0383208 -0.0132692)
(-0.00823519 0.0410481 -0.0175998)
(-0.0130611 0.0367096 -0.0129902)
(-0.010458 0.040731 -0.0137818)
(-0.0119641 0.0414116 -0.0152082)
(-0.0243563 0.0250123 -0.00834564)
(-0.0251998 0.0314186 -0.0128667)
(-0.0224935 0.0246958 -0.0096169)
(-0.0226799 0.0273247 -0.0115684)
(-0.0255612 0.0239948 -0.00926509)
(-0.0248142 0.0223781 -0.00835307)
(-0.0124483 0.0379811 0.00522537)
(-0.0131778 0.039299 0.00597446)
(-0.0121622 0.0371187 0.00175284)
(-0.0144476 0.0406818 0.00216386)
(-0.0134557 0.0390006 0.000939455)
(-0.0126477 0.0386934 0.00284016)
(-0.0123709 0.0386042 -0.00103661)
(-0.0103322 0.0388924 -0.00166078)
(-0.0116684 0.040413 0.00201281)
(-0.0124591 0.0383518 -0.00326992)
(-0.0123268 0.0402882 -0.00393705)
(-0.0114388 0.038971 0.00101129)
(-0.0148019 0.0351463 -0.010313)
(-0.0146961 0.0368553 -0.00691242)
(-0.0158295 0.0358484 -0.00904119)
(-0.0149763 0.0394971 -0.00822914)
(-0.0167582 0.0346872 -0.0101848)
(-0.0163232 0.0311992 -0.0103722)
(-0.0175096 0.0334539 -0.00986137)
(-0.0161019 0.026912 -0.00684158)
(-0.0155867 0.0319933 -0.00549263)
(-0.0167072 0.0298847 -0.00514626)
(-0.0162685 0.0295099 -0.0059774)
(-0.0151137 0.0297601 -0.00361113)
(-0.013058 0.00627892 0.00177234)
(-0.0122884 0.00565014 0.00188799)
(-0.0127552 0.00597014 0.00198049)
(-0.0121705 0.00529589 0.00278574)
(-0.0121382 0.00533774 0.00245764)
(-0.0120173 0.00529825 0.00289936)
(-0.0172264 0.0207613 -0.00630168)
(-0.0164217 0.0253735 -0.00544844)
(-0.016993 0.0217704 -0.00656743)
(-0.0181121 0.0234383 -0.00530268)
(-0.0163268 0.0239208 -0.00489294)
(-0.0169222 0.0245035 -0.00640715)
(-0.017308 0.0360501 0.0108291)
(-0.0152475 0.0361074 0.0067274)
(-0.0153912 0.0365693 0.0101102)
(-0.0158026 0.0367959 0.0105182)
(-0.016075 0.0336969 0.0121598)
(-0.0150068 0.0362075 0.00687804)
(-0.015167 0.0308565 0.000113156)
(-0.015383 0.0268904 -0.00240683)
(-0.0143937 0.0286489 0.000377128)
(-0.0149983 0.0270315 -0.000788288)
(-0.0156089 0.0283418 -0.0030264)
(-0.0151985 0.0300915 -0.0017048)
(-0.0125547 0.00385866 0.00351038)
(-0.0116459 0.00427154 0.00427732)
(-0.0103221 0.00436172 0.00432874)
(-0.00983323 0.0043425 0.003788)
(-0.00993933 0.0045304 0.00485833)
(-0.0105438 0.00439652 0.00396603)
(-0.00890566 0.00458661 0.00466239)
(-0.00933494 0.00465554 0.00424669)
(-0.017341 0.0284179 0.011861)
(-0.0159876 0.0287017 0.00888661)
(-0.0170516 0.0312205 0.0111066)
(-0.0172269 0.0276576 0.0131464)
(-0.0160703 0.0296327 0.00869616)
(-0.0177021 0.03001 0.0122987)
(-0.0224812 0.0213116 0.0166307)
(-0.0188533 0.0240235 0.0156743)
(-0.0207439 0.0240009 0.0158023)
(-0.02375 0.0253786 0.0186409)
(-0.0214438 0.0208903 0.0156635)
(-0.0223816 0.0232566 0.017256)
(-0.00923506 0.0144775 0.00417002)
(-0.0131334 0.0175453 0.00319643)
(-0.00887584 0.014329 0.0041488)
(-0.0115349 0.0162399 0.00405667)
(-0.0117485 0.01636 0.00311312)
(-0.0102518 0.0156742 0.0034164)
(-0.015074 0.0206587 0.0012008)
(-0.013047 0.0191232 0.000682708)
(-0.0106921 0.0163496 0.00286457)
(-0.0161378 0.0210969 0.00159621)
(-0.0137099 0.0185731 0.00221478)
(-0.0110402 0.0173907 0.00266544)
(-0.0250049 0.0263079 0.001308)
(-0.0202409 0.023275 0.00207428)
(-0.0274793 0.0283036 0.00268882)
(-0.0244938 0.0255036 0.00244724)
(-0.0236974 0.0250737 -0.000497445)
(-0.0203068 0.0243387 0.00135036)
(-0.0171309 0.0199685 0.00516115)
(-0.0189633 0.020667 0.00434368)
(-0.0141883 0.0179557 0.00419944)
(-0.015359 0.0186618 0.00429725)
(-0.0162116 0.0190624 0.00370352)
(-0.0323059 0.0302206 0.00733663)
(-0.0297816 0.0281478 0.00509066)
(-0.0313031 0.0273414 0.00778476)
(-0.0286948 0.026303 0.00697581)
(-0.0283208 0.0244294 0.0042323)
(-0.0304931 0.0335398 0.0184776)
(-0.0290716 0.0327945 0.0188171)
(-0.0275192 0.0361757 0.0204142)
(-0.029664 0.0363749 0.0199217)
(-0.0326761 0.0358716 0.0189857)
(-0.0280138 0.0379712 0.0205658)
(-0.0239626 0.0339593 0.0190846)
(-0.0197666 0.0360646 0.0185096)
(-0.0256536 0.0398724 0.0208418)
(-0.0210354 0.0350143 0.0203046)
(-0.0163039 0.0354123 0.018578)
(-0.0273536 0.035324 0.0202381)
(-0.00526548 0.0450657 0.0171389)
(-0.000722438 0.045434 0.011417)
(-0.000462736 0.0481009 0.00782818)
(-0.00465485 0.046575 0.0137169)
(-0.00222507 0.046275 0.00865534)
(-0.00204442 0.047464 0.0142542)
(-0.000783789 -0.0016352 0.00098625)
(-0.000469296 -0.00165918 0.000958134)
(-0.00055583 -0.00128388 0.000885631)
(-0.000673881 -0.00201145 0.00121546)
(-0.000837633 -0.000771573 0.000965865)
(-0.00092223 -0.000583961 0.00103828)
(-0.00343682 0.000102477 0.00264435)
(-0.00186142 -0.000447872 0.00203507)
(-0.00102859 -0.000594836 0.00119677)
(-0.00257062 0.000171528 0.00218312)
(-0.00285303 0.000255398 0.00265503)
(-0.00147309 -6.76565e-05 0.00151309)
(-0.00051754 -0.00125577 0.00221042)
(-0.000520388 -0.00098499 0.00149845)
(-0.000959073 -0.000334225 0.00220123)
(-0.000854818 0.000849513 0.0024055)
(-0.00107654 0.00160549 0.00285205)
(-0.000488715 -0.00181781 0.00183236)
(-0.00312223 0.000866845 0.00313023)
(-0.00241366 0.000384069 0.00291813)
(-0.00326456 0.000521694 0.00303117)
(-0.00352133 0.000625635 0.00305462)
(-0.00164389 0.000113237 0.00211261)
(-0.00202239 0.000329743 0.0021641)
(-0.00151683 -0.000642324 0.00261438)
(-0.00124705 -0.000615408 0.00296428)
(-0.0021218 0.000158412 0.00366284)
(-0.00162636 -0.000230618 0.00392443)
(-0.00185424 7.60811e-05 0.00274951)
(-0.00129189 -0.000458283 0.00339963)
(-0.00585758 0.00510756 0.00610405)
(-0.00821115 0.00727489 0.00894166)
(-0.00527361 0.00481331 0.00687798)
(-0.00539988 0.00376375 0.00497592)
(-0.00350406 0.00369312 0.00593261)
(-0.00348692 0.00456868 0.00637173)
(-0.00301389 0.00328964 0.00433316)
(-0.00410838 0.00255446 0.00386268)
(-0.004152 0.0076178 0.00819683)
(-0.0043226 0.00632103 0.00917621)
(-0.00484956 0.00911704 0.00815378)
(-0.00430741 0.00687736 0.00940851)
(-0.00476817 0.00839207 0.00855982)
(-0.0041534 0.00685246 0.0085196)
(-0.00657064 0.00507795 0.00705476)
(-0.00598854 0.00415676 0.00886061)
(-0.00643731 0.00478283 0.00906742)
(-0.00656692 0.00465447 0.00740172)
(-0.00637933 0.00453616 0.0079772)
(-0.00676124 0.00541892 0.00812505)
(-0.00725038 0.00512497 0.00931005)
(-0.00727479 0.00533303 0.00913899)
(-0.00651272 0.0052718 0.010344)
(-0.00695551 0.00565536 0.0101886)
(-0.00761861 0.00591729 0.00980815)
(-0.00719379 0.00584366 0.00973183)
(-0.0151676 0.0130348 -0.000566113)
(-0.0148637 0.010517 -0.000920234)
(-0.0143041 0.0100487 -0.000157123)
(-0.0142552 0.0114358 -0.00110744)
(-0.014083 0.0110086 0.000363723)
(-0.012781 0.0121165 0.000730929)
(-0.0121857 0.0147803 0.00291286)
(-0.0134946 0.0147731 0.00333861)
(-0.0120062 0.0172788 0.00478339)
(-0.012134 0.0162112 0.00543402)
(-0.0115256 0.016169 0.00668822)
(-0.0115545 0.0152808 0.00401948)
(-0.0116201 0.016683 0.00621224)
(-0.0118326 0.0163584 0.0042029)
(-0.0067787 0.00553372 0.010136)
(-0.00525324 0.00488187 0.00967151)
(-0.00589705 0.00531937 0.010376)
(-0.00555467 0.00429543 0.00922647)
(-0.00531837 0.00399785 0.00941108)
(-0.0046251 0.00504614 0.00978395)
(-0.00454459 0.00448052 0.00912461)
(-0.00438218 0.00512587 0.00930641)
(-0.00458784 0.00625403 0.00984172)
(-0.00390165 0.00612038 0.00929877)
(-0.00568734 0.00587417 0.010946)
(-0.00490892 0.00633596 0.0103592)
(-0.00488896 0.00704201 0.0101459)
(-0.0051672 0.00674523 0.0107718)
(-0.00599974 0.00581178 0.0107924)
(-0.00545622 0.00588247 0.0108299)
(-0.00587728 0.00584328 0.0113233)
(-0.00659995 0.00554856 0.0110178)
(-0.0261789 0.0250632 0.016018)
(-0.0277089 0.0251477 0.0138207)
(-0.0255534 0.0235584 0.0137261)
(-0.0260048 0.0238852 0.014773)
(-0.00125806 0.00032173 0.00339962)
(-0.00146523 0.000386365 0.00373293)
(0.00599588 0.042354 -0.000780278)
(0.00476056 0.0344045 0.00309357)
(0.00501045 0.0457558 -0.00461096)
(0.00458731 0.0426289 0.00240719)
(0.000637372 0.0411463 0.0104331)
(-0.00399851 0.0535229 0.00568224)
(0.0033197 0.0422949 -0.00204208)
(-0.00170642 0.0485498 0.00237896)
(-0.00109612 0.0494311 -0.00484181)
(0.000745219 0.0440325 0.00344972)
(0.0034167 0.0468797 8.51094e-05)
(0.000632769 0.0454035 -0.00496655)
(-0.0261164 0.0398335 0.0211577)
(-0.0239718 0.0228239 0.00235298)
(-0.0289626 0.0282889 0.00419155)
(-0.0173846 0.0205831 0.00161722)
(-0.0139571 0.017959 0.00225966)
(-0.0150339 0.0185316 0.00357549)
(-0.0173377 0.0180692 0.0158034)
(-0.017336 0.0216967 0.0145942)
(-0.0183156 0.0194271 0.0162019)
(-0.0219665 0.0221739 0.0172284)
(-0.0202527 0.018985 0.0169659)
(-0.0178637 0.017507 0.0154649)
(-0.0164584 0.0161315 0.0156442)
(-0.0160667 0.0170824 0.0149192)
(-0.0165096 0.0172638 0.0157042)
(-0.0163836 0.0183526 0.0154623)
(-0.0141859 0.0173135 0.0138671)
(-0.015199 0.0183027 0.0142952)
(-0.0157735 0.0183218 0.0151264)
(-0.0149563 0.0174911 0.0144811)
(-0.014037 0.0183538 0.0129532)
(-0.0188541 0.0203163 0.0161717)
(-0.016847 0.023807 0.0139918)
(-0.0153614 0.0210842 0.0131185)
(-0.0207592 0.0252273 0.0169698)
(-0.01599 0.0230465 0.0122659)
(-0.00765758 0.00433555 0.00617177)
(-0.00766623 0.00489337 0.00541564)
(-0.00765232 0.00441973 0.0051705)
(-0.00811357 0.00484041 0.00607741)
(-0.00756511 0.00470542 0.00539417)
(-0.00742441 0.00508015 0.00577957)
(-0.00832534 0.00501616 0.00520603)
(-0.00864248 0.00463162 0.00498317)
(-0.0170516 0.015587 -0.00458702)
(-0.0115499 0.00436306 0.00291097)
(-0.0112317 0.00484181 0.00366733)
(-0.0164498 0.028269 -0.00458018)
(-0.0121013 0.0385537 -0.00620499)
(-0.0119957 0.0318004 -0.000891152)
(-0.0127888 0.0346941 0.00318489)
(-0.0140222 0.0360091 0.00170997)
(-0.0162461 0.0384175 0.00460986)
(-0.014387 0.0344264 0.00250056)
(-0.0142526 0.0336299 -0.00209221)
(-0.0144978 0.0323877 -0.00125271)
(-0.0149126 0.0323795 0.00180765)
(-0.0154791 0.0348157 0.000654675)
(-0.0157319 0.0322033 -0.00257018)
(-0.0165847 0.0283956 -0.00999516)
(-0.0171542 0.0279038 -0.0102408)
(-0.0180352 0.0278264 -0.00914696)
(-0.01793 0.0257847 -0.00850975)
(-0.0186801 0.0234711 -0.00802574)
(-0.0173867 0.018323 -0.00685328)
(-0.0188985 0.0196607 -0.00720283)
(-0.0173188 0.0174625 -0.00579537)
(-0.0182208 0.0210201 -0.00771144)
(-0.017703 0.0270201 -0.00803869)
(-0.0181258 0.0217479 -0.00728761)
(-0.0186343 0.0232666 -0.00805753)
(-0.0175595 0.0256942 -0.00737465)
(-0.0174137 0.026476 -0.00650464)
(-0.0176416 0.0257959 -0.00949164)
(-0.0184602 0.0285787 -0.00939278)
(-0.01848 0.026111 -0.00942866)
(-0.0176417 0.0209887 -0.00729816)
(-0.0183632 0.0234571 -0.00828868)
(-0.0214597 0.0301711 -0.0113436)
(-0.0232607 0.0241095 -0.0105238)
(-0.0228192 0.0271404 -0.0097518)
(-0.0240556 0.0138153 -0.00475784)
(-0.0238261 0.0160467 -0.00576949)
(-0.0229158 0.0206615 -0.00899736)
(-0.0237485 0.0181044 -0.00619471)
(-0.0237784 0.0176184 -0.00613855)
(-0.0244223 0.0224032 -0.00752477)
(-0.0253629 0.033483 -0.0114642)
(-0.0242441 0.0339181 -0.0114154)
(-0.0229624 0.0247578 -0.0110393)
(-0.0188446 0.018842 -0.00635842)
(-0.0195066 0.0206783 -0.00663468)
(-0.0126398 0.0415006 -0.00699829)
(-0.0206564 0.0265168 -0.0106245)
(-0.0199136 0.0290514 -0.0111686)
(-0.0214155 0.0320819 -0.0135697)
(-0.0148625 0.0346171 -0.0159799)
(-0.0175087 0.0326189 -0.0121628)
(-0.0227935 0.0366579 -0.0134516)
(-0.0215311 0.039162 -0.0140755)
(-0.0158565 0.0393521 -0.0147457)
(-0.0160882 0.0410549 -0.0147535)
(-0.0182082 0.0429826 -0.0139822)
(-0.0186354 0.0396249 -0.015022)
(-0.0204322 0.0114817 -0.00316193)
(-0.0194583 0.00946718 -0.00189476)
(-0.0115684 0.00233876 0.00326739)
(-0.014309 0.00395998 0.00298669)
(-0.0173737 0.00671913 0.00050217)
(-0.0135738 0.00349775 0.0030828)
(-0.016661 0.00520359 0.00188721)
(-0.0159637 0.00572863 0.00162178)
(-0.0147092 0.00400569 0.00260945)
(-0.0111416 0.0025334 0.0038503)
(-0.0137521 0.00348957 0.00277303)
(-0.0150502 0.00397022 0.00207198)
(-0.0189312 0.0106317 -0.00266651)
(-0.0170624 0.00618204 -0.000401531)
(-0.0184352 0.00810132 -0.00150185)
(-0.0187316 0.00895088 -0.0017758)
(-0.0166233 0.00532027 0.00210518)
(-0.0143337 0.00498905 0.00208412)
(-0.0162165 0.0055637 0.000360698)