/*--------------------------------*- C++ -*----------------------------------*\
| =========                 |                                                 |
| \\      /  F ield         | OpenFOAM: The Open Source CFD Toolbox           |
|  \\    /   O peration     | Version:  v1612+                                |
|   \\  /    A nd           | Web:      www.OpenFOAM.com                      |
|    \\/     M anipulation  |                                                 |
\*---------------------------------------------------------------------------*/
FoamFile
{
    version     2.0;
    format      ascii;
    class       volVectorField;
    location    "100";
    object      U;
}
// * * * * * * * * * * * * * * * * * * * * * * * * * * * * * * * * * * * * * //

dimensions      [0 1 -1 0 0 0 0];

internalField   nonuniform List<vector> 
21110
(
(0.258585 -0.0063969 -0.799146)
(0.339038 -0.241648 -0.946997)
(0.331413 0.0521683 -0.454197)
(0.143082 0.0599896 -0.523568)
(0.205028 0.0873652 -0.843988)
(0.338807 -0.0962785 -0.891965)
(0.389453 -0.0227006 -0.720778)
(0.104709 0.139165 -0.459455)
(0.262601 0.0249384 -0.591507)
(0.21008 0.264425 -0.468245)
(0.272576 -0.00598417 -0.759633)
(0.161997 0.00307195 -0.301579)
(0.110304 0.245811 -0.417613)
(0.350965 -0.253185 -1.03276)
(0.302822 -0.148081 -0.857679)
(0.334153 -0.231732 -0.963036)
(0.322362 -0.171418 -0.91916)
(0.277399 0.0614609 -0.550329)
(0.375114 -0.104009 -0.71756)
(0.388118 -0.173803 -0.600858)
(0.382269 -0.337444 -0.824096)
(0.183933 0.0294142 -0.782419)
(0.249162 0.0214023 -0.772905)
(0.268788 -0.21024 -0.757777)
(0.342886 -0.0551828 -0.997993)
(0.346243 -0.19312 -0.968434)
(0.31138 -0.0578456 -0.650791)
(0.372792 -0.0654042 -0.657662)
(0.357508 -0.0432541 -0.599849)
(0.376326 -0.0448656 -0.719358)
(0.239042 -0.0353624 -0.808652)
(0.274777 0.044286 -0.579135)
(0.344618 -0.0727186 -0.930262)
(0.287713 -0.0232915 -0.876658)
(0.283713 0.0307354 -0.854542)
(0.22755 0.0287802 -0.744115)
(0.254909 0.0322452 -0.589368)
(0.290599 -0.211707 -0.778975)
(0.293764 -0.324159 -0.954909)
(0.279611 -0.315785 -0.898513)
(0.324866 -0.0513031 -0.879331)
(0.40484 -0.0576278 -0.693927)
(0.377954 -0.0391627 -0.574965)
(0.336272 0.124097 -0.486383)
(0.241496 0.0183505 -0.737445)
(0.149364 0.15966 -0.527303)
(0.122107 -0.0279877 -0.42589)
(0.397898 -0.224501 -0.726743)
(0.357306 -0.208142 -0.948131)
(0.363039 -0.189237 -0.928274)
(0.337129 -0.163391 -0.891178)
(0.15 0.113437 -0.460396)
(0.378972 -0.0746181 -0.694358)
(0.35178 0.0351391 -0.611128)
(0.349756 0.0328265 -0.538436)
(0.298234 -0.31864 -0.883169)
(0.35621 -0.259928 -0.964919)
(0.362956 0.0173847 -0.731379)
(0.415435 -0.151763 -0.599513)
(0.105729 -0.16317 -0.53833)
(0.124241 0.186116 -0.527177)
(0.39228 -0.151627 -0.812515)
(0.378812 -0.142585 -0.772923)
(0.327314 -0.00345414 -0.503803)
(0.298135 -0.119076 -0.821178)
(0.320599 -0.0989798 -0.720139)
(0.372234 -0.109641 -0.673728)
(0.283138 0.057373 -0.475997)
(0.276037 0.0967445 -0.411594)
(0.13108 0.0589455 -0.354405)
(0.127236 0.0677596 -0.33742)
(0.29954 0.13722 -0.474669)
(0.33413 0.0715203 -0.488216)
(0.388873 -0.101839 -0.682326)
(0.330827 0.112611 -0.464325)
(0.291809 0.118843 -0.396086)
(0.331044 -0.344104 -0.878672)
(0.167469 0.149802 -0.392887)
(0.187115 0.13277 -0.389413)
(0.338542 -0.243729 -0.990839)
(0.320306 -0.314866 -0.816662)
(0.30358 -0.317275 -0.812335)
(0.108514 0.214642 -0.322422)
(0.0911838 -0.0356414 -0.284319)
(0.338888 -0.146297 -0.948751)
(0.326256 -0.104518 -0.959918)
(0.356388 0.0253412 -0.518074)
(0.406368 -0.0409372 -0.647517)
(0.338899 -0.193199 -0.965353)
(0.3345 -0.14874 -0.893231)
(0.326108 0.150594 -0.519336)
(0.0786263 0.257453 -0.419547)
(0.107539 0.0215358 -0.271376)
(0.175993 -0.0622723 -0.583757)
(0.130792 0.178523 -0.739586)
(0.274293 0.0196608 -0.684416)
(0.312028 -0.0397885 -0.791938)
(0.268096 0.123249 -0.419802)
(0.304958 -0.020426 -0.655786)
(0.237281 0.00313661 -0.563643)
(0.299335 0.00507103 -0.388625)
(0.235909 0.0248472 -0.395792)
(0.385842 -0.101521 -0.568628)
(0.271087 -0.0617365 -0.818762)
(0.339408 -0.192646 -0.910315)
(0.326985 -0.165109 -0.841684)
(0.430791 -0.254068 -0.683606)
(0.301637 -0.116352 -0.757828)
(0.122508 0.0149678 -0.328965)
(0.126145 0.0353231 -0.256261)
(0.155471 0.0485203 -0.348193)
(0.156047 -0.150653 -0.556832)
(0.239344 0.0697319 -0.590311)
(0.310993 0.0631531 -0.617163)
(0.320654 0.0645722 -0.703428)
(0.335736 -0.185728 -0.840738)
(0.319037 -0.137061 -0.809282)
(0.35648 -0.179001 -0.919592)
(0.137592 0.109067 -0.640405)
(0.341506 -0.251811 -0.921172)
(0.310111 -0.0997261 -0.879294)
(0.304599 0.181403 -0.431658)
(0.321116 0.183871 -0.473244)
(0.327942 -0.166644 -0.96852)
(0.216339 0.0824488 -0.860373)
(0.209931 -0.0422992 -0.692171)
(0.205181 -0.0387741 -0.724577)
(0.214534 -0.0896657 -0.673508)
(0.229122 0.107187 -0.370289)
(0.358155 0.0192917 -0.512119)
(0.188836 0.0797934 -0.822059)
(0.256257 0.0871279 -0.785182)
(0.303584 -0.0246836 -0.880999)
(0.302469 -0.238121 -0.894778)
(0.270846 -0.0879545 -0.632077)
(0.325179 -0.0395767 -0.505109)
(0.158418 0.0495332 -0.715443)
(0.277044 0.0186963 -0.786205)
(0.323893 -0.0952895 -0.880927)
(0.340143 -0.121733 -0.927349)
(0.293113 -0.121934 -0.825902)
(0.350901 0.113892 -0.555412)
(0.360023 -0.155778 -1.02709)
(0.309214 -0.0560198 -0.784914)
(0.398975 -0.102319 -0.729457)
(0.308795 -0.123764 -0.636975)
(0.32584 -0.133836 -0.613773)
(0.359069 -0.134025 -0.70843)
(0.338348 -0.122462 -0.659905)
(0.310658 -0.0785001 -0.615378)
(0.325004 -0.209193 -0.971605)
(0.27566 0.0142325 -0.871674)
(0.268023 0.0273018 -0.848718)
(0.136238 -0.0518096 -0.435025)
(0.124366 -0.0312639 -0.348533)
(0.3274 -0.117292 -0.839517)
(0.306724 -0.0740768 -0.871805)
(0.313028 -0.261944 -0.90588)
(0.298601 -0.297273 -0.888137)
(0.289701 -0.310374 -0.891067)
(0.192031 -0.215246 -0.601416)
(0.130021 -0.165105 -0.476185)
(0.132538 -0.187078 -0.564389)
(0.444358 -0.219476 -0.605899)
(0.142607 0.0159046 -0.282371)
(0.311913 0.0801228 -0.440189)
(0.352415 0.0698625 -0.570295)
(0.34142 0.0889903 -0.563963)
(0.313274 0.11022 -0.44278)
(0.154872 0.0323176 -0.584826)
(0.196533 0.158728 -0.67792)
(0.112736 0.211044 -0.624797)
(0.154361 -0.0743687 -0.513074)
(0.169463 -0.133982 -0.566188)
(0.3315 -0.191737 -0.728479)
(0.358452 -0.0521179 -0.671808)
(0.328533 -0.0265696 -0.509004)
(0.14984 0.040563 -0.303417)
(0.319957 0.113781 -0.501881)
(0.326987 0.0860971 -0.542503)
(0.373368 0.0142048 -0.606447)
(0.249105 0.0281093 -0.759467)
(0.242081 -0.00267864 -0.706217)
(0.1436 0.136766 -0.450892)
(0.354247 -0.252264 -0.886983)
(0.324011 -0.237244 -0.963176)
(0.331349 -0.219872 -0.942377)
(0.315288 0.00747699 -0.638297)
(0.293148 -0.0583424 -0.807449)
(0.269085 0.0537775 -0.772408)
(0.304722 -0.0499416 -0.896128)
(0.411646 -0.258743 -0.622677)
(0.130375 0.0434432 -0.338555)
(0.144826 0.0385984 -0.40731)
(0.311345 -0.0826168 -0.868543)
(0.363988 -0.0801527 -0.519539)
(0.335216 -0.0780878 -0.534377)
(0.38842 -0.133034 -0.617848)
(0.356983 -0.0398532 -0.494864)
(0.357253 -0.0695582 -0.503352)
(0.146038 -0.133609 -0.538124)
(0.429682 -0.242446 -0.678788)
(0.436237 -0.205216 -0.671811)
(0.427393 -0.180921 -0.625498)
(0.358473 -0.073253 -0.444244)
(0.430485 -0.287587 -0.648069)
(0.326836 0.0154906 -0.440618)
(0.350068 -0.00827795 -0.484864)
(0.372625 -0.0454211 -0.536558)
(0.241746 0.0186711 -0.659516)
(0.145353 0.138469 -0.560696)
(0.20043 -0.121865 -0.6468)
(0.233254 -0.166782 -0.70142)
(0.214127 0.0746039 -0.692212)
(0.186216 0.0867635 -0.704063)
(0.273625 -0.121982 -0.771401)
(0.314011 -0.0966473 -0.874862)
(0.395287 -0.0893797 -0.554277)
(0.39283 -0.125584 -0.48602)
(0.13054 0.114919 -0.477756)
(0.212186 -0.161627 -0.646724)
(0.276674 -0.325372 -0.863269)
(0.277519 -0.326886 -0.881204)
(0.374492 -0.149003 -0.727223)
(0.181183 -0.107105 -0.566844)
(0.143132 -0.0448925 -0.481728)
(0.150604 -0.118843 -0.531976)
(0.180754 -0.0582135 -0.579202)
(0.329812 -0.168761 -0.930956)
(0.319731 -0.201041 -0.91397)
(0.350215 0.129964 -0.578523)
(0.150052 0.0664652 -0.526947)
(0.164125 0.00632743 -0.589892)
(0.132315 0.0919597 -0.598257)
(0.137932 0.188964 -0.54836)
(0.224218 -0.195086 -0.658282)
(0.27279 -0.159187 -0.718747)
(0.314159 -0.209381 -0.856025)
(0.303671 -0.2068 -0.760491)
(0.407146 -0.0950676 -0.57316)
(0.341181 0.15234 -0.55163)
(0.283332 0.234205 -0.46827)
(0.323028 -0.201798 -0.828116)
(0.3043 -0.170489 -0.784616)
(0.346354 -0.208454 -0.904331)
(0.315528 -0.165885 -0.834354)
(0.347535 -0.197547 -0.911393)
(0.283741 -0.303726 -0.86389)
(0.30971 -0.224234 -0.846056)
(0.279974 -0.202269 -0.770157)
(0.311475 -0.232906 -0.870781)
(0.176013 0.231551 -0.372993)
(0.182568 0.288249 -0.419266)
(0.145299 0.271563 -0.383061)
(0.106585 0.261002 -0.464441)
(0.123012 0.289294 -0.430945)
(0.274948 0.0561501 -0.845144)
(0.308191 -0.280179 -0.987167)
(0.335576 -0.240505 -0.927404)
(0.332259 -0.261935 -0.999365)
(0.270538 0.0406372 -0.830772)
(0.229937 0.112919 -0.808033)
(0.259517 0.0581995 -0.824741)
(0.124998 -0.102507 -0.429641)
(0.364756 -0.229536 -0.939172)
(0.358484 -0.247426 -0.889245)
(0.357838 -0.236002 -0.927789)
(0.381941 -0.369277 -0.762614)
(0.212604 0.0185024 -0.711467)
(0.308364 -0.218457 -0.896737)
(0.338405 -0.23971 -0.968031)
(0.319393 -0.212446 -0.914082)
(0.191116 0.13015 -0.332889)
(0.333021 -0.200926 -0.926492)
(0.389698 -0.21217 -0.638674)
(0.389735 -0.206556 -0.67669)
(0.190624 0.0593576 -0.818354)
(0.441206 -0.190801 -0.652783)
(0.411385 -0.152099 -0.573557)
(0.1431 0.0446114 -0.285373)
(0.133369 0.109085 -0.49232)
(0.205642 0.017353 -0.776156)
(0.17445 0.0678949 -0.689898)
(0.31156 -0.141276 -0.911395)
(0.311898 -0.197159 -0.788294)
(0.308883 -0.153494 -0.855059)
(0.140752 0.125534 -0.420425)
(0.132195 0.112444 -0.360642)
(0.156972 0.00810989 -0.531026)
(0.147941 0.0121464 -0.53944)
(0.142695 0.0434938 -0.41963)
(0.145047 0.049517 -0.447718)
(0.128914 0.0574739 -0.464248)
(0.131257 0.0761327 -0.445599)
(0.144749 0.0720432 -0.419536)
(0.357221 -0.352815 -0.724377)
(0.380034 -0.378161 -0.808016)
(0.222496 0.0243074 -0.730971)
(0.429987 -0.123875 -0.646259)
(0.199481 0.0513934 -0.359822)
(0.361261 -0.0276895 -0.671467)
(0.160451 0.00728269 -0.445675)
(0.131623 0.0521825 -0.399214)
(0.299559 -0.157249 -0.799333)
(0.23173 0.153691 -0.430259)
(0.355213 -0.255413 -0.973375)
(0.311805 -0.24584 -0.945844)
(0.31193 -0.247833 -0.935173)
(0.331625 -0.0301945 -0.894379)
(0.393609 -0.101773 -0.529837)
(0.409045 -0.136635 -0.506231)
(0.283748 -0.128323 -0.772911)
(0.236674 -0.0998612 -0.688819)
(0.09085 0.198411 -0.472968)
(0.115129 0.154496 -0.374357)
(0.179374 0.0294047 -0.701119)
(0.302759 -0.282989 -0.948374)
(0.423837 -0.196697 -0.53365)
(0.300079 -0.323359 -0.922448)
(0.282194 -0.352426 -0.914017)
(0.313515 -0.236995 -0.929493)
(0.313093 -0.235069 -0.912974)
(0.335404 0.0043288 -0.480662)
(0.321882 -0.00875627 -0.421536)
(0.250964 -0.00803319 -0.810095)
(0.311781 0.0302898 -0.419799)
(0.300771 0.045352 -0.455418)
(0.323167 -0.135079 -0.86858)
(0.325794 -0.129464 -0.866367)
(0.29868 -0.107843 -0.830221)
(0.342017 -0.238203 -0.911459)
(0.279859 0.197458 -0.437726)
(0.312787 -0.0617471 -0.887973)
(0.298928 -0.00816802 -0.825096)
(0.311506 0.161366 -0.479559)
(0.309297 0.168688 -0.461868)
(0.336494 0.153568 -0.511757)
(0.215651 -0.284663 -0.664514)
(0.117267 -0.0738932 -0.385943)
(0.25232 -0.0782929 -0.631285)
(0.271196 -0.261513 -0.704442)
(0.285364 -0.276659 -0.745364)
(0.412494 -0.319107 -0.721009)
(0.283653 -0.290271 -0.929341)
(0.0991705 -0.028942 -0.29304)
(0.100594 -0.0264383 -0.271541)
(0.193744 0.0814769 -0.354662)
(0.0991503 -0.024213 -0.252655)
(0.0975136 -0.0457028 -0.312844)
(0.302687 -0.169186 -0.861163)
(0.312154 -0.213182 -0.894924)
(0.223434 -0.0466238 -0.71)
(0.293999 -0.168497 -0.721529)
(0.312373 0.0305575 -0.440504)
(0.248706 0.0281981 -0.40263)
(0.248995 0.0277091 -0.425371)
(0.330593 -0.179161 -0.597116)
(0.326575 -0.174532 -0.643444)
(0.13461 -0.127005 -0.451146)
(0.172941 -0.171404 -0.537821)
(0.171854 -0.197646 -0.556065)
(0.318772 -0.0674919 -0.538256)
(0.393104 -0.0780553 -0.663843)
(0.353386 -0.265698 -0.86815)
(0.350003 -0.292307 -0.858045)
(0.318802 -0.272035 -0.762507)
(0.316054 -0.270966 -1.00178)
(0.329048 -0.257322 -0.946536)
(0.326045 -0.175101 -0.852126)
(0.342509 -0.193893 -0.887544)
(0.32275 -0.016717 -0.664285)
(0.334903 0.0338365 -0.564691)
(0.341204 0.0381151 -0.520271)
(0.372249 0.0564154 -0.573961)
(0.341558 0.0231904 -0.632946)
(0.342931 0.0575108 -0.585379)
(0.332307 0.0867928 -0.579714)
(0.323171 0.123414 -0.464563)
(0.34655 -0.153849 -0.957002)
(0.344943 -0.231061 -0.956381)
(0.339642 -0.232005 -0.917952)
(0.34667 -0.229078 -0.956429)
(0.325604 -0.0895732 -0.872712)
(0.261115 -0.0675509 -0.743043)
(0.133021 -0.0658501 -0.454319)
(0.198837 0.0256358 -0.35513)
(0.246023 0.0133338 -0.377068)
(0.0983464 -0.0518102 -0.331364)
(0.160184 0.0313285 -0.298289)
(0.104921 -0.0371433 -0.323358)
(0.117386 0.00953189 -0.246934)
(0.103103 -0.0159982 -0.289393)
(0.181003 0.0165582 -0.312374)
(0.150405 0.0120982 -0.292025)
(0.123667 -0.109727 -0.456945)
(0.121469 -0.0187411 -0.337916)
(0.131652 0.0119421 -0.277608)
(0.114178 -0.0280142 -0.33684)
(0.10899 -0.0300729 -0.305827)
(0.29647 -0.322646 -0.949148)
(0.105494 -0.0396002 -0.32286)
(0.108024 -0.0438002 -0.344944)
(0.303616 -0.122656 -0.792703)
(0.29788 -0.105313 -0.833182)
(0.163051 0.0861931 -0.693003)
(0.120833 -0.0108807 -0.288802)
(0.299103 0.077841 -0.79833)
(0.297769 0.0604201 -0.813072)
(0.302948 0.0540251 -0.783186)
(0.258851 0.0248408 -0.793278)
(0.315787 -0.00650029 -0.831354)
(0.320506 0.0131004 -0.815901)
(0.107053 -0.0120139 -0.257562)
(0.3045 -0.0345587 -0.445069)
(0.100519 0.188335 -0.617963)
(0.428892 -0.28245 -0.683352)
(0.394012 -0.322283 -0.748093)
(0.383664 -0.319379 -0.706802)
(0.294436 0.00813124 -0.765787)
(0.329319 -0.194689 -0.837204)
(0.189349 -0.0497565 -0.694176)
(0.325972 -0.0662962 -0.842872)
(0.262321 -0.129117 -0.737408)
(0.287494 0.213831 -0.431256)
(0.148403 -0.0212501 -0.46252)
(0.155341 -0.0014024 -0.479882)
(0.362977 -0.222905 -0.948713)
(0.166295 0.0968437 -0.561124)
(0.336138 -0.0682333 -0.899771)
(0.202566 0.00846426 -0.327309)
(0.189904 0.00330938 -0.376332)
(0.113666 -0.00638286 -0.243601)
(0.126792 -0.0863976 -0.37099)
(0.222401 0.0575416 -0.722659)
(0.116046 -0.0128935 -0.36445)
(0.146841 0.0350888 -0.460898)
(0.136652 0.0601729 -0.373667)
(0.276939 -0.0335069 -0.651795)
(0.33963 -0.235419 -0.795348)
(0.228051 -0.00156483 -0.381089)
(0.237071 -0.00918729 -0.446945)
(0.359871 -0.224814 -0.921773)
(0.320986 0.0154463 -0.511619)
(0.244653 -0.108612 -0.763899)
(0.130632 0.14046 -0.391178)
(0.145013 0.055141 -0.575357)
(0.35757 -0.127977 -0.998154)
(0.367011 -0.0289845 -0.603267)
(0.102739 0.225376 -0.400101)
(0.336308 -0.179863 -0.920716)
(0.325666 -0.179748 -0.896309)
(0.115768 -0.0493668 -0.372049)
(0.147678 0.197915 -0.350669)
(0.284046 -0.244091 -0.816165)
(0.280417 -0.234499 -0.823062)
(0.277822 -0.237399 -0.800545)
(0.310557 -0.292762 -0.889903)
(0.311423 -0.215697 -0.784971)
(0.187764 0.08953 -0.740117)
(0.16159 -0.0638205 -0.548471)
(0.218485 -0.111892 -0.670294)
(0.362875 -0.243317 -0.913335)
(0.345488 -0.22625 -0.831646)
(0.163938 -0.0817287 -0.530823)
(0.24485 0.0337465 -0.75771)
(0.296397 -0.266686 -0.721266)
(0.28396 -0.0898253 -0.792062)
(0.287423 -0.248835 -0.878033)
(0.0991239 -0.0301047 -0.269241)
(0.398801 -0.063595 -0.587756)
(0.11146 0.000423208 -0.224461)
(0.106715 0.000419191 -0.220695)
(0.12648 -0.0033527 -0.280615)
(0.325813 -0.15794 -0.813753)
(0.326667 -0.149647 -0.856261)
(0.143965 0.0347155 -0.28016)
(0.324513 0.159154 -0.512027)
(0.314115 0.131055 -0.451191)
(0.269225 0.07723 -0.449918)
(0.102518 0.13036 -0.691533)
(0.113562 0.128118 -0.696248)
(0.201553 -0.0597134 -0.67477)
(0.33893 -0.192186 -0.829003)
(0.281189 0.0448903 -0.718357)
(0.30885 0.0317079 -0.775447)
(0.135214 0.143884 -0.619996)
(0.181741 0.0414975 -0.709343)
(0.153875 0.100083 -0.621636)
(0.108035 0.137961 -0.470056)
(0.138854 0.280766 -0.311731)
(0.335029 0.0616257 -0.498019)
(0.334562 -0.240374 -0.84438)
(0.33691 -0.242721 -0.774134)
(0.363281 -0.263412 -0.917847)
(0.306348 -0.254256 -0.866485)
(0.263496 0.0848279 -0.380968)
(0.251329 0.0764495 -0.392647)
(0.121832 0.209688 -0.35569)
(0.138047 0.21685 -0.437013)
(0.317883 -0.170296 -0.877945)
(0.313834 -0.192937 -0.892826)
(0.313644 -0.222402 -0.917868)
(0.207605 0.0592836 -0.412166)
(0.172107 0.0754728 -0.33024)
(0.327096 -0.1554 -0.93872)
(0.319517 0.0172246 -0.649783)
(0.334203 0.0962696 -0.515593)
(0.268837 0.00950827 -0.437109)
(0.260674 0.0184576 -0.386637)
(0.321649 -0.157832 -0.922238)
(0.267065 -0.0108098 -0.736256)
(0.306138 -0.176529 -0.87377)
(0.317245 -0.206013 -0.918857)
(0.293684 -0.218014 -0.871212)
(0.252243 0.0572476 -0.353448)
(0.427728 -0.164604 -0.602429)
(0.33976 -0.278812 -0.742985)
(0.375862 -0.320351 -0.754575)
(0.411506 -0.290883 -0.723301)
(0.394818 -0.287352 -0.739489)
(0.144844 0.0897569 -0.365441)
(0.153262 0.180972 -0.436626)
(0.243592 0.103938 -0.703114)
(0.364732 0.0671737 -0.513229)
(0.29818 -0.345673 -0.928195)
(0.323141 -0.198059 -0.871295)
(0.328028 0.111565 -0.806519)
(0.317227 0.0776278 -0.833563)
(0.305119 -0.276312 -0.961725)
(0.402711 -0.237023 -0.651473)
(0.341211 0.0992035 -0.511655)
(0.229533 -0.182558 -0.675046)
(0.35166 0.086079 -0.546824)
(0.347995 0.0897429 -0.516253)
(0.12128 -0.0174921 -0.358761)
(0.255739 0.0540018 -0.376766)
(0.0885961 -0.0165975 -0.238551)
(0.255747 -0.0806077 -0.697285)
(0.340242 -0.224423 -0.932152)
(0.180852 -0.028373 -0.674826)
(0.316399 -0.244847 -0.944628)
(0.320624 -0.244458 -0.947894)
(0.174921 -0.0954395 -0.563725)
(0.18151 -0.0640659 -0.570216)
(0.12121 -0.00345379 -0.320034)
(0.364437 -0.0883528 -0.483078)
(0.0710535 0.175518 -0.661653)
(0.240699 0.047379 -0.35897)
(0.231186 0.0299754 -0.665113)
(0.12136 0.073606 -0.284485)
(0.33739 -0.246316 -0.726375)
(0.330872 -0.211783 -0.652406)
(0.384061 -0.153272 -0.619585)
(0.408798 -0.163307 -0.642192)
(0.168327 -0.234644 -0.575423)
(0.22264 -0.253961 -0.602085)
(0.22683 -0.268226 -0.708138)
(0.187069 -0.239697 -0.599655)
(0.120037 -0.0519016 -0.37703)
(0.199072 0.172198 -0.418646)
(0.100709 0.190068 -0.699438)
(0.129074 0.150334 -0.724874)
(0.274876 -0.198671 -0.728412)
(0.11356 0.168261 -0.573222)
(0.1029 0.170994 -0.608374)
(0.115432 0.170737 -0.537883)
(0.42876 -0.220044 -0.625182)
(0.171932 -0.011171 -0.551364)
(0.425415 -0.163993 -0.568223)
(0.373739 -0.085354 -0.46039)
(0.333723 -0.0830345 -0.858163)
(0.25996 -0.0782449 -0.791778)
(0.0939379 -0.0704996 -0.344789)
(0.0926943 -0.0781297 -0.341785)
(0.303288 -0.21056 -0.897317)
(0.416112 -0.148376 -0.535763)
(0.385308 -0.0866332 -0.533922)
(0.269717 -0.0877268 -0.695266)
(0.293547 -0.122232 -0.774292)
(0.219402 -0.0030735 -0.646353)
(0.251795 -0.0115598 -0.76961)
(0.2789 -0.0053403 -0.809889)
(0.281778 -0.266313 -0.872715)
(0.134133 0.00498083 -0.431736)
(0.320238 -0.316723 -0.869931)
(0.284882 -0.29015 -0.742874)
(0.337139 -0.335682 -0.810993)
(0.333575 -0.344293 -0.846417)
(0.347059 -0.240283 -0.963141)
(0.31607 -0.288941 -0.730828)
(0.346649 -0.236853 -0.876245)
(0.301019 0.00877306 -0.866129)
(0.214379 -0.038398 -0.727998)
(0.209948 0.115372 -0.38823)
(0.242446 0.150959 -0.352953)
(0.189208 -0.000913874 -0.638446)
(0.206709 0.00536721 -0.332851)
(0.184583 -0.00544862 -0.32443)
(0.307349 -0.121008 -0.831428)
(0.0973698 -0.0392963 -0.281828)
(0.107527 -0.0252441 -0.294181)
(0.105831 -0.0180666 -0.276846)
(0.294942 -0.235635 -0.750949)
(0.297324 -0.235247 -0.892534)
(0.296555 -0.196006 -0.768936)
(0.314634 -0.265255 -0.97262)
(0.300929 -0.070081 -0.796354)
(0.290563 -0.0930682 -0.817072)
(0.272105 0.134731 -0.382934)
(0.403908 -0.200804 -0.635898)
(0.261631 0.229258 -0.406826)
(0.309145 0.184316 -0.51117)
(0.308277 0.145751 -0.430573)
(0.28479 0.202467 -0.416055)
(0.295794 -0.215528 -0.882235)
(0.347548 -0.270461 -0.854138)
(0.0917773 -0.019453 -0.245504)
(0.37793 -0.281771 -1.00542)
(0.350543 -0.234565 -0.868647)
(0.158035 -0.0027787 -0.345097)
(0.117849 0.0121656 -0.284709)
(0.397848 -0.0715849 -0.590671)
(0.31624 0.0143752 -0.42639)
(0.31774 -0.142768 -0.839987)
(0.296364 -0.193872 -0.682918)
(0.308578 -0.203663 -0.72879)
(0.290864 -0.23165 -0.866361)
(0.332539 0.027349 -1.07511)
(0.219714 -0.0450912 -0.786589)
(0.127626 0.0563828 -0.344942)
(0.382362 -0.188821 -0.798981)
(0.262354 -0.137574 -0.926752)
(0.351823 0.00533709 -0.75546)
(0.236097 -0.00422546 -0.871098)
(0.209758 -0.137009 -0.89629)
(0.0751532 0.200977 -0.594577)
(0.28925 0.0330752 -0.978103)
(0.310632 -0.241734 -0.934777)
(0.339243 -0.182307 -1.05986)
(0.2078 -0.188554 -0.7225)
(0.344942 -0.176414 -0.881733)
(0.236812 -0.284972 -0.958707)
(0.442645 -0.15936 -0.670659)
(0.313679 0.0580247 -0.553932)
(0.444502 -0.215904 -0.66638)
(0.155804 -0.0120481 -0.334306)
(0.188709 -0.165847 -0.873604)
(0.0897879 -0.0855629 -0.350059)
(0.097425 -0.0382446 -0.365319)
(0.303662 -0.10233 -0.867098)
(0.324337 0.0662362 -1.02014)
(0.325293 -0.0672772 -1.03601)
(0.164844 0.0204646 -0.711466)
(0.339476 -0.0833614 -0.953504)
(0.226489 -0.00932365 -0.803374)
(0.348321 -0.0671553 -1.02884)
(0.340646 -0.00108588 -1.02053)
(0.302499 -0.0476918 -0.97112)
(0.245496 -0.0732331 -0.73837)
(0.120882 -0.177113 -0.476472)
(0.240591 -0.306454 -0.784089)
(0.205783 -0.25879 -0.676256)
(0.332245 0.0493166 -1.07485)
(0.327156 0.0823745 -0.988827)
(0.314712 0.0575069 -0.812954)
(0.322169 0.108075 -0.890793)
(0.323419 -0.276133 -1.02414)
(0.285005 -0.285445 -0.937453)
(0.315756 0.145579 -0.449311)
(0.359359 -0.0342185 -0.803551)
(0.275964 -0.00714194 -0.576314)
(0.159336 0.124299 -0.569118)
(0.324763 -0.167046 -1.0578)
(0.217959 -0.136627 -0.779524)
(0.287915 -0.19185 -0.747597)
(0.349504 -0.188528 -0.948159)
(0.289708 -0.208089 -0.993789)
(0.310276 -0.20607 -0.903632)
(0.321532 -0.17417 -0.875182)
(0.274854 -0.0436483 -0.994842)
(0.225966 -0.0209457 -0.797612)
(0.34334 -0.13234 -1.07603)
(0.228413 -0.0984312 -0.906904)
(0.326351 -0.0826024 -1.0047)
(0.303897 -0.108886 -0.948549)
(0.272789 -0.10905 -1.0122)
(0.23483 0.0731897 -0.542551)
(0.291524 0.136732 -0.439317)
(0.357611 -0.0656383 -0.709603)
(0.239642 -0.014209 -0.713808)
(0.353736 0.0439666 -0.514028)
(0.294974 -0.080814 -0.866123)
(0.209322 -0.0742349 -0.798656)
(0.207132 -0.00124613 -0.774859)
(0.214311 -0.0526902 -0.867669)
(0.120419 0.165384 -0.328208)
(0.186097 0.018359 -0.645021)
(0.318958 -0.0801951 -1.05956)
(0.335182 -0.138892 -1.08378)
(0.36493 -0.182421 -0.888825)
(0.237846 -0.118311 -0.942018)
(0.332335 -0.116187 -1.0246)
(0.331574 -0.156961 -1.04072)
(0.23454 -0.0912199 -0.807569)
(0.331182 0.0321277 -1.0775)
(0.300574 0.0148461 -0.974143)
(0.166123 0.153647 -0.796165)
(0.180372 0.0724464 -0.776125)
(0.349814 0.0885237 -0.650653)
(0.228916 0.0437981 -0.821511)
(0.138292 0.179934 -0.560753)
(0.132326 0.263123 -0.397995)
(0.136875 0.158691 -0.444846)
(0.143247 0.14859 -0.608159)
(0.195944 0.162045 -0.684322)
(0.0551973 0.27087 -0.546445)
(0.123068 0.19496 -0.668656)
(0.299513 0.156371 -0.598589)
(0.307472 -0.26081 -0.953254)
(0.3221 -0.197772 -0.917356)
(0.333073 -0.249549 -1.06381)
(0.349245 -0.209814 -0.924549)
(0.288247 -0.204836 -1.02931)
(0.262661 -0.163879 -0.999534)
(0.326711 -0.232176 -0.964351)
(0.338326 -0.209158 -1.07206)
(0.201869 -0.188569 -0.860173)
(0.261892 -0.206748 -0.964866)
(0.335289 -0.215723 -1.0153)
(0.255866 -0.144474 -0.801174)
(0.196775 -0.0512453 -0.710133)
(0.274352 -0.147271 -0.790648)
(0.312764 -0.12072 -0.941063)
(0.321618 -0.165647 -0.880613)
(0.285216 -0.249769 -0.959243)
(0.248219 -0.189658 -0.728373)
(0.216373 -0.205864 -0.655788)
(0.205658 -0.181558 -0.60766)
(0.334382 -0.24175 -0.95572)
(0.19071 -0.0192301 -0.687952)
(0.228182 -0.175908 -0.691395)
(0.319662 -0.172634 -1.04456)
(0.341224 -0.140182 -0.911698)
(0.35951 -0.231809 -0.993385)
(0.343419 -0.203374 -1.07746)
(0.351109 -0.185184 -0.955638)
(0.333506 -0.218619 -0.863362)
(0.370198 -0.34243 -0.758043)
(0.315942 -0.329798 -0.90567)
(0.292985 -0.341535 -1.00952)
(0.32066 -0.379943 -0.878766)
(0.376708 -0.0785798 -0.710399)
(0.378964 -0.289214 -0.802465)
(0.410007 -0.179225 -0.633134)
(0.353895 -0.22622 -0.867476)
(0.325184 -0.203927 -0.784542)
(0.423912 -0.242391 -0.723498)
(0.18591 0.043272 -0.337826)
(0.39975 -0.0782624 -0.618305)
(0.333532 0.0433415 -0.505587)
(0.338021 0.00480184 -0.45103)
(0.388201 -0.050575 -0.566887)
(0.15426 -0.194951 -0.75068)
(0.41335 -0.332954 -0.770125)
(0.386062 -0.24779 -0.775056)
(0.335761 -0.371474 -0.899116)
(0.400926 -0.346399 -0.767358)
(0.348283 -0.276579 -0.812787)
(0.33178 -0.0413462 -0.422034)
(0.454815 -0.22358 -0.691165)
(0.331658 -0.0441896 -0.513033)
(0.0447995 -0.0628556 -0.564412)
(0.269483 -0.0315828 -0.534574)
(0.350118 -0.217002 -0.742182)
(0.328468 -0.0940389 -0.679794)
(0.396342 -0.115348 -0.692448)
(0.0562914 -0.0471045 -0.576801)
(0.318601 -0.2976 -0.975327)
(0.0739743 -0.0780061 -0.582512)
(0.311789 -0.207829 -0.799987)
(0.167849 -0.150258 -0.77853)
(0.228404 -0.249851 -0.79646)
(0.202835 -0.2635 -0.84701)
(0.111411 -0.115337 -0.507532)
(0.12896 0.025675 -0.261703)
(0.100001 -0.000224633 -0.271161)
(0.0856463 -0.113451 -0.667234)
(0.102879 -0.143413 -0.764037)
(0.333359 -0.0445538 -0.489831)
(0.103531 -0.0381395 -0.362856)
(0.0831838 -0.0540987 -0.565818)
(0.0729924 -0.0440513 -0.536589)
(0.19871 0.0149216 -0.356318)
(0.266868 0.0315527 -0.770389)
(0.248175 0.022243 -0.628539)
(0.298346 -0.114936 -0.861818)
(0.312394 -0.131298 -0.903045)
(0.338203 -0.00801925 -0.971901)
(0.255255 0.121527 -0.772897)
(0.303514 0.0412123 -0.921288)
(0.238935 0.0517374 -0.766527)
(0.203611 0.0388094 -0.707572)
(0.300127 0.106869 -0.94444)
(0.326777 -0.0518895 -0.98101)
(0.341047 -0.116632 -0.881509)
(0.307887 0.00335192 -0.942583)
(0.28621 -0.0226233 -0.815541)
(0.326337 -0.105043 -1.00572)
(0.26974 0.00330555 -0.83187)
(0.330682 0.0380269 -1.07553)
(0.318322 -0.206969 -0.900976)
(0.318256 -0.00790452 -1.0532)
(0.315709 -0.0293544 -1.05347)
(0.32727 -0.0245928 -1.07445)
(0.328274 -0.016593 -1.07874)
(0.324164 0.0162376 -1.07163)
(0.323552 0.0266199 -1.07269)
(0.327891 -0.0293875 -1.08207)
(0.15168 0.0343518 -0.43451)
(0.147112 0.0238615 -0.499094)
(0.184646 0.077585 -0.376268)
(0.133166 0.0589166 -0.302308)
(0.141335 0.0694977 -0.362799)
(0.319213 -0.167585 -0.719561)
(0.33629 -0.153006 -0.841258)
(0.332034 -0.164268 -0.800236)
(0.324506 -0.185891 -0.739133)
(0.356747 -0.190762 -0.835895)
(0.23479 -0.133277 -0.961325)
(0.147399 -0.0738556 -0.780697)
(0.156928 -0.110257 -0.820416)
(0.145875 -0.087361 -0.770584)
(0.262957 -0.136463 -0.979932)
(0.256736 -0.140465 -0.958597)
(0.152609 -0.0933639 -0.770608)
(0.337958 -0.0479083 -0.912841)
(0.264986 -0.0618934 -0.909751)
(0.323598 -0.0271805 -0.941547)
(0.265656 -0.0518831 -0.88144)
(0.340705 -0.033485 -0.852808)
(0.325702 -0.0340696 -0.798499)
(0.289878 -0.0506482 -0.913464)
(0.292386 0.0282723 -0.781247)
(0.26016 -0.0520196 -0.932722)
(0.295993 -0.000514855 -0.902372)
(0.267661 -0.0418375 -0.950499)
(0.216453 0.00673958 -0.77978)
(0.213518 -0.0115988 -0.792234)
(0.264498 -0.0370392 -0.924273)
(0.212056 -0.0678336 -0.667091)
(0.118741 -0.0635201 -0.715819)
(0.11438 -0.0261897 -0.585004)
(0.141257 -0.0793993 -0.775635)
(0.167901 -0.0951285 -0.76363)
(0.185162 -0.115973 -0.811975)
(0.113499 -0.059127 -0.679169)
(0.0882586 0.165124 -0.608904)
(0.0880019 0.167639 -0.617688)
(0.315381 0.0531405 -0.909287)
(0.271496 0.0727601 -0.823173)
(0.26744 0.0365016 -0.892754)
(0.281953 0.0455836 -0.961425)
(0.289891 0.0455981 -0.943821)
(0.30265 -0.277805 -1.05131)
(0.336698 -0.238778 -1.05092)
(0.296789 -0.260831 -1.05926)
(0.337367 -0.241613 -1.02226)
(0.323607 -0.269586 -1.03835)
(0.322697 -0.266685 -1.04304)
(0.325424 -0.255811 -1.06336)
(0.102522 0.112377 -0.507289)
(0.316503 -0.13054 -0.882746)
(0.344532 -0.172877 -0.982977)
(0.325848 -0.116674 -0.897915)
(0.353347 -0.16815 -1.01676)
(0.338708 -0.177296 -1.02204)
(0.343149 -0.191129 -1.05567)
(0.347706 -0.129607 -0.930698)
(0.302226 -0.15858 -0.810818)
(0.178153 -0.170175 -0.8437)
(0.280148 -0.214881 -0.88604)
(0.147959 -0.139527 -0.751626)
(0.244568 -0.193269 -0.846339)
(0.216702 -0.218715 -0.842465)
(0.249467 -0.219334 -0.844611)
(0.227673 -0.189314 -0.862139)
(0.156852 -0.0403399 -0.449288)
(0.270496 -0.207794 -0.87316)
(0.167967 -0.10053 -0.612294)
(0.242937 -0.179265 -0.827967)
(0.220334 -0.164654 -0.807252)
(0.283336 -0.283209 -1.03886)
(0.289374 -0.307219 -1.0424)
(0.273237 -0.261551 -1.04609)
(0.276093 -0.291955 -1.03728)
(0.27354 -0.30124 -1.00032)
(0.280892 -0.310218 -1.00705)
(0.284868 -0.289143 -1.04776)
(0.389746 -0.123354 -0.539772)
(0.440093 -0.225205 -0.687553)
(0.428943 -0.210155 -0.652066)
(0.298997 -0.0324767 -0.667203)
(0.200299 0.00756034 -0.579343)
(0.333023 0.0127406 -0.611984)
(0.332123 0.0436765 -0.568708)
(0.282952 0.0553113 -0.534717)
(0.244665 0.0781211 -0.435449)
(0.175666 0.0512664 -0.433364)
(0.22601 0.062768 -0.366523)
(0.179 0.0746437 -0.327844)
(0.436513 -0.193101 -0.716242)
(0.41739 -0.160021 -0.579213)
(0.445799 -0.219533 -0.635587)
(0.442599 -0.26657 -0.661741)
(0.161163 -0.000287917 -0.314787)
(0.122852 -0.00458244 -0.236135)
(0.196644 -0.000977238 -0.354862)
(0.0933181 -0.0704182 -0.357544)
(0.0827722 -0.0390081 -0.258651)
(0.120644 -0.0168696 -0.34942)
(0.139377 -0.0150305 -0.377839)
(0.110822 -0.0115205 -0.245725)
(0.268718 -0.264646 -1.00403)
(0.0858737 -0.0993284 -0.635151)
(0.256738 -0.236729 -1.00435)
(0.136946 -0.138254 -0.792469)
(0.212855 -0.21418 -0.919223)
(0.19521 -0.194053 -0.880807)
(0.160146 -0.150406 -0.837688)
(0.0991636 -0.100131 -0.419334)
(0.266657 0.00463122 -0.561382)
(0.129393 -0.00744733 -0.368036)
(0.179434 0.0105482 -0.505682)
(0.139633 0.011705 -0.348209)
(0.216632 0.0411882 -0.364392)
(0.155245 0.0157328 -0.38734)
(0.131944 0.03373 -0.276103)
(0.112912 0.00748617 -0.305269)
(0.145353 0.0202624 -0.380153)
(0.11821 -0.0239426 -0.385475)
(0.134655 0.0326723 -0.291595)
(0.121972 0.0296758 -0.294627)
(0.130303 -0.00762004 -0.388936)
(0.129467 0.0031442 -0.242193)
(0.0966057 -0.00825928 -0.233861)