/*--------------------------------*- C++ -*----------------------------------*\
| =========                 |                                                 |
| \\      /  F ield         | OpenFOAM: The Open Source CFD Toolbox           |
|  \\    /   O peration     | Version:  v1612+                                |
|   \\  /    A nd           | Web:      www.OpenFOAM.com                      |
|    \\/     M anipulation  |                                                 |
\*---------------------------------------------------------------------------*/
FoamFile
{
    version     2.0;
    format      ascii;
    class       volScalarField;
    location    "100";
    object      p;
}
// * * * * * * * * * * * * * * * * * * * * * * * * * * * * * * * * * * * * * //

dimensions      [0 2 -2 0 0 0 0];

internalField   nonuniform List<scalar> 
21521
(
3.40925
3.42708
3.40345
3.39843
3.37116
3.39443
3.39114
3.41484
3.38949
3.38212
3.38218
3.38161
3.37316
3.36425
3.34491
3.42255
3.35714
3.41238
3.41984
3.41944
3.39302
3.35477
3.40819
3.40101
3.39079
3.41789
3.39291
3.35139
3.36867
3.43068
3.43514
3.35376
3.42531
3.38413
3.38138
3.38738
3.41337
3.41607
3.40709
3.39971
3.38282
3.42375
3.41681
3.40775
3.34245
3.39008
3.38874
3.41137
3.35096
3.38534
3.38135
3.39458
3.41895
3.42295
3.42829
3.43663
3.40248
3.36772
3.38636
3.41767
3.34933
3.38599
3.36116
3.36315
3.39015
3.39253
3.41896
3.38457
3.35515
3.36568
3.36941
3.43167
3.36246
3.37206
3.41811
3.37639
3.34488
3.413
3.4104
3.34908
3.37855
3.40229
3.39253
3.409
3.41074
3.36588
3.34976
3.35005
3.39119
3.38772
3.38794
3.39384
3.39924
3.40206
3.39898
3.40831
3.41976
3.42889
3.40742
3.42888
3.41911
3.34676
3.34882
3.34104
3.34723
3.35365
3.35161
3.35256
3.36805
3.37719
3.41022
3.38796
3.38187
3.35642
3.35755
3.40994
3.40771
3.3997
3.40003
3.39612
3.3556
3.36144
3.36428
3.35619
3.38406
3.34984
3.34906
3.34829
3.3813
3.37781
3.38498
3.35033
3.35005
3.34596
3.36598
3.37413
3.37701
3.37334
3.36292
3.38802
3.39797
3.39249
3.36871
3.35379
3.35645
3.3637
3.3604
3.42314
3.38708
3.38762
3.37354
3.42101
3.37141
3.36889
3.36602
3.39656
3.41177
3.40863
3.38223
3.36278
3.39347
3.37126
3.39769
3.3885
3.43019
3.38268
3.41564
3.35878
3.36443
3.38743
3.38825
3.42341
3.40005
3.34941
3.34931
3.38961
3.36722
3.36588
3.37528
3.40987
3.34651
3.39228
3.38597
3.38711
3.38878
3.3818
3.3798
3.38129
3.41476
3.4075
3.416
3.40044
3.37
3.41715
3.42302
3.37657
3.37794
3.42989
3.41192
3.40206
3.35711
3.3521
3.38644
3.42429
3.4232
3.43361
3.39214
3.40259
3.39192
3.35254
3.38534
3.38894
3.39303
3.39151
3.42285
3.40322
3.40562
3.39945
3.42424
3.42755
3.42958
3.42897
3.36563
3.40291
3.40488
3.43606
3.38198
3.38473
3.37932
3.38316
3.37959
3.39462
3.4232
3.42808
3.4265
3.43756
3.35794
3.36389
3.43286
3.42868
3.41381
3.4161
3.42368
3.38764
3.43538
3.42656
3.42877
3.37964
3.37859
3.38333
3.42521
3.41479
3.43116
3.40626
3.43661
3.43242
3.40711
3.40811
3.40424
3.42017
3.41386
3.40087
3.40153
3.40497
3.39919
3.39483
3.39538
3.40422
3.43455
3.43644
3.40827
3.40781
3.36003
3.42956
3.3603
3.35722
3.36147
3.36148
3.36466
3.4333
3.42788
3.42887
3.3828
3.38806
3.39799
3.3891
3.3444
3.44076
3.34826
3.41333
3.41746
3.366
3.38222
3.37029
3.38544
3.3974
3.43588
3.39281
3.41064
3.35389
3.39964
3.39815
3.36325
3.40016
3.40216
3.40878
3.40887
3.36244
3.36307
3.36762
3.37288
3.37318
3.3688
3.37415
3.44193
3.405
3.37351
3.37535
3.41065
3.36801
3.4333
3.42227
3.41926
3.43341
3.43059
3.40596
3.40488
3.4104
3.3968
3.41068
3.37574
3.37853
3.37251
3.35125
3.35653
3.35488
3.40014
3.40349
3.43176
3.40266
3.41935
3.41606
3.41054
3.38756
3.42175
3.35812
3.35519
3.39539
3.39469
3.40905
3.386
3.40162
3.36032
3.3929
3.38557
3.38021
3.40649
3.43348
3.37439
3.36845
3.3727
3.38825
3.40058
3.35839
3.35639
3.43718
3.43083
3.37707
3.40797
3.39437
3.41847
3.40787
3.39666
3.37884
3.41447
3.39289
3.39315
3.42854
3.39239
3.38615
3.37881
3.38926
3.37542
3.35338
3.39079
3.39766
3.429
3.43046
3.40914
3.39623
3.42269
3.38715
3.36817
3.35496
3.35547
3.39286
3.34961
3.38739
3.39626
3.38698
3.42283
3.42163
3.35467
3.35727
3.35608
3.35532
3.38814
3.40247
3.40697
3.40754
3.35794
3.38769
3.38452
3.38691
3.35087
3.41744
3.42268
3.36264
3.35474
3.36853
3.42059
3.43587
3.3906
3.35992
3.35992
3.41812
3.38746
3.43725
3.36142
3.42421
3.41262
3.40681
3.37105
3.41385
3.41905
3.41307
3.40445
3.40165
3.37615
3.37719
3.37107
3.37646
3.38
3.37427
3.40912
3.40889
3.37631
3.37817
3.38114
3.42178
3.34794
3.346
3.35279
3.36084
3.35709
3.34281
3.37942
3.42666
3.39337
3.36977
3.42442
3.40541
3.37882
3.39964
3.40593
3.40932
3.36184
3.3883
3.39468
3.42025
3.38898
3.38325
3.34458
3.36706
3.4034
3.39823
3.43265
3.39281
3.34557
3.39305
3.40011
3.42814
3.37777
3.428
3.40128
3.36256
3.38337
3.42866
3.36514
3.35769
3.41912
3.36649
3.39124
3.38446
3.39147
3.37842
3.36947
3.40912
3.36834
3.38157
3.38961
3.37599
3.38892
3.38616
3.41288
3.41177
3.37704
3.41494
3.42589
3.42775
3.4298
3.42438
3.37829
3.42766
3.43059
3.39716
3.34926
3.35134
3.41671
3.36875
3.41093
3.41355
3.42205
3.36647
3.38309
3.37634
3.42753
3.42773
3.35007
3.3435
3.35253
3.41221
3.35977
3.40025
3.41107
3.42528
3.42105
3.35306
3.39859
3.40012
3.36107
3.37672
3.37368
3.38501
3.40794
3.36477
3.42956
3.43999
3.41701
3.43143
3.40127
3.37637
3.40662
3.35411
3.35238
3.39722
3.36894
3.38006
3.37125
3.38206
3.35925
3.36193
3.40886
3.386
3.38485
3.3474
3.37447
3.41438
3.42479
3.42329
3.4207
3.42917
3.42052
3.42591
3.42456
3.43919
3.42625
3.37232
3.36746
3.36146
3.37288
3.36871
3.36234
3.3648
3.36007
3.35042
3.34904
3.38746
3.37894
3.39106
3.41143
3.43421
3.43141
3.43435
3.4376
3.42826
3.42986
3.43722
3.43006
3.42179
3.42187
3.43593
3.42721
3.42241
3.42214
3.41376
3.41932
3.42879
3.42512
3.41546
3.42289
3.42689
3.40316
3.41487
3.4187
3.42435
3.39293
3.41239
3.40565
3.40781
3.40164
3.41383
3.38887
3.38124
3.38908
3.40121
3.40071
3.38686
3.37153
3.41567
3.40942
3.41897
3.41231
3.41041
3.36592
3.38382
3.37289
3.37438
3.38042
3.35797
3.3607
3.39544
3.38733
3.40874
3.3966
3.39805
3.40039
3.40243
3.37169
3.36224
3.38203
3.37173
3.37045
3.36667
3.37873
3.37014
3.36792
3.38638
3.37513
3.3768
3.3728
3.38293
3.36623
3.36388
3.36784
3.37229
3.35889
3.35773
3.37318
3.38357
3.38477
3.39193
3.38053
3.39331
3.39145
3.38245
3.36486
3.37875
3.36768
3.35116
3.35177
3.35385
3.35026
3.3479
3.3519
3.36009
3.34583
3.34793
3.34127
3.34877
3.35383
3.34622
3.34695
3.35263
3.36064
3.35398
3.35536
3.35433
3.3788
3.37569
3.39804
3.40653
3.41645
3.40362
3.41252
3.41403
3.40521
3.39236
3.38929
3.3933
3.39789
3.39899
3.40326
3.39519
3.38887
3.38871
3.40091
3.39493
3.38925
3.34956
3.37067
3.40116
3.36025
3.38343
3.37301
3.37056
3.37969
3.37075
3.40745
3.41596
3.41701
3.40836
3.40725
3.41518
3.43424
3.43442
3.43514
3.4351
3.36122
3.37062
3.36344
3.35393
3.35777
3.35796
3.35638
3.364
3.35973
3.34221
3.34592
3.39733
3.40104
3.43032
3.40295
3.41786
3.42355
3.43405
3.41166
3.41729
3.4085
3.41097
3.41522
3.41866
3.41232
3.43776
3.43108
3.43401
3.4338
3.43144
3.43427
3.41006
3.41273
3.3992
3.40888
3.40273
3.40763
3.4052
3.40583
3.40077
3.40388
3.37477
3.38405
3.38385
3.40365
3.40482
3.40209
3.40789
3.40356
3.37248
3.3669
3.38224
3.36523
3.35515
3.35218
3.35788
3.35001
3.35234
3.35301
3.35614
3.40432
3.3968
3.39888
3.39467
3.39781
3.39941
3.39606
3.37687
3.37414
3.37355
3.37148
3.37243
3.37249
3.37273
3.38727
3.37755
3.38671
3.37977
3.38076
3.38049
3.38034
3.3773
3.37944
3.37601
3.36934
3.36666
3.37817
3.38127
3.3757
3.37666
3.37617
3.38218
3.38224
3.37628
3.35127
3.34644
3.34862
3.34948
3.36309
3.35757
3.36564
3.35991
3.35927
3.35591
3.35964
3.36588
3.35815
3.36688
3.36051
3.3624
3.3604
3.36206
3.40906
3.40109
3.40558
3.40316
3.40856
3.40799
3.40407
3.3816
3.38214
3.37729
3.38482
3.37496
3.37877
3.40562
3.41197
3.40379
3.40241
3.40609
3.37981
3.37531
3.37721
3.38781
3.38339
3.38473
3.37756
3.35501
3.36286
3.35295
3.3588
3.37632
3.37863
3.37888
3.37748
3.37298
3.38798
3.4044
3.40772
3.42841
3.43022
3.42358
3.42954
3.43361
3.42932
3.41245
3.4206
3.42786
3.42668
3.42103
3.42331
3.42663
3.41807
3.4213
3.41776
3.42297
3.4162
3.41497
3.42159
3.42886
3.41626
3.41621
3.41758
3.4112
3.41758
3.42044
3.41816
3.41693
3.43007
3.43401
3.42831
3.42416
3.42379
3.42928
3.42353
3.42658
3.43051
3.42539
3.42455
3.43058
3.43581
3.42631
3.43029
3.42828
3.43224
3.43188
3.4314
3.42472
3.43509
3.42831
3.42785
3.43239
3.42948
3.42533
3.43207
3.4303
3.42286
3.43358
3.42812
3.43032
3.42735
3.42836
3.43292
3.43291
3.43015
3.37692
3.36644
3.36682
3.36299
3.36855
3.36198
3.36995
3.38282
3.38026
3.37631
3.36818
3.37413
3.36584
3.37046
3.3696
3.36772
3.36796
3.36606
3.36072
3.3682
3.36102
3.3609
3.37294
3.37403
3.37256
3.3779
3.36687
3.36573
3.37796
3.3732
3.37023
3.36797
3.37109
3.35969
3.36999
3.35335
3.34433
3.35001
3.35334
3.35113
3.35112
3.35581
3.36219
3.35884
3.3581
3.35983
3.368
3.36772
3.35991
3.35549
3.35407
3.35575
3.36264
3.3551
3.35509
3.35748
3.35916
3.35716
3.35144
3.35521
3.35079
3.35784
3.35859
3.35331
3.36179
3.35245
3.38991
3.38502
3.39935
3.37738
3.3852
3.38179
3.37423
3.37987
3.39143
3.39408
3.38809
3.38737
3.39101
3.38189
3.38552
3.41297
3.40573
3.42588
3.41227
3.41356
3.42506
3.41789
3.41862
3.42477
3.41996
3.40197
3.41376
3.41618
3.42919
3.41901
3.41681
3.41708
3.42847
3.42806
3.42809
3.4306
3.42703
3.43146
3.42588
3.43175
3.42167
3.43482
3.43847
3.43003
3.42735
3.42983
3.43439
3.43257
3.43204
3.43764
3.44233
3.44182
3.43372
3.43137
3.43491
3.43152
3.43137
3.43539
3.43607
3.4376
3.43794
3.43817
3.4322
3.43257
3.43312
3.43151
3.40755
3.40639
3.40489
3.41643
3.43202
3.42893
3.43587
3.43377
3.43125
3.42938
3.43529
3.4329
3.43259
3.43722
3.43581
3.43327
3.43962
3.43264
3.43084
3.4312
3.43213
3.42572
3.42395
3.4247
3.4284
3.42627
3.42528
3.42579
3.42204
3.41887
3.42267
3.41741
3.41607
3.42308
3.43196
3.43843
3.43391
3.43094
3.43412
3.43608
3.42853
3.42278
3.42417
3.43589
3.42536
3.43119
3.42975
3.4255
3.42001
3.43052
3.42666
3.42569
3.42437
3.42805
3.41094
3.41583
3.43839
3.43607
3.4413
3.43361
3.43328
3.41638
3.41281
3.41778
3.4149
3.43522
3.43577
3.43477
3.42675
3.42638
3.4314
3.42984
3.42889
3.4149
3.4274
3.43473
3.43266
3.42831
3.40274
3.40043
3.41606
3.41715
3.40507
3.41161
3.41242
3.4129
3.41093
3.41461
3.42073
3.4118
3.41444
3.416
3.42093
3.41649
3.41807
3.42475
3.42719
3.42573
3.42158
3.42283
3.42455
3.42304
3.42471
3.43024
3.42455
3.42964
3.42989
3.42477
3.41862
3.41283
3.41602
3.4189
3.41429
3.41369
3.41936
3.42538
3.42533
3.41449
3.42057
3.42107
3.41969
3.4188
3.42464
3.42971
3.41891
3.42284
3.42379
3.42543
3.42088
3.42041
3.44177
3.39682
3.39995
3.40894
3.40106
3.40488
3.4055
3.39955
3.41432
3.40789
3.40814
3.41553
3.42049
3.41588
3.41243
3.41727
3.43638
3.43206
3.43441
3.43446
3.43584
3.43538
3.41898
3.41793
3.41356
3.41179
3.41586
3.40204
3.42441
3.42376
3.42565
3.41705
3.42022
3.42206
3.41491
3.4221
3.41798
3.41554
3.42751
3.42637
3.42184
3.42322
3.40838
3.4168
3.42093
3.41577
3.41891
3.38894
3.38843
3.39095
3.41197
3.42252
3.41744
3.41507
3.42002
3.4022
3.3992
3.41155
3.40849
3.40473
3.40373
3.40754
3.40599
3.40255
3.40519
3.39972
3.40186
3.40179
3.39729
3.40531
3.41016
3.41474
3.40953
3.41153
3.40724
3.39621
3.3897
3.39847
3.38864
3.39084
3.39238
3.3841
3.39282
3.38121
3.39761
3.39964
3.39146
3.39319
3.40144
3.39674
3.39348
3.38721
3.3814
3.38282
3.36416
3.39063
3.3968
3.3884
3.39036
3.37802
3.38676
3.38542
3.38038
3.37938
3.37087
3.38263
3.38908
3.41827
3.4217
3.43171
3.41831
3.41422
3.41794
3.41642
3.41742
3.42714
3.41736
3.42075
3.41806
3.42336
3.42107
3.42118
3.41223
3.41148
3.41546
3.41025
3.41085
3.41712
3.42305
3.42386
3.42446
3.42204
3.41025
3.41175
3.42709
3.41825
3.41678
3.41662
3.41791
3.41986
3.41879
3.4144
3.39655
3.40921
3.41177
3.4147
3.41352
3.40139
3.39577
3.40342
3.36733
3.36318
3.3679
3.37051
3.3683
3.35724
3.35202
3.3586
3.36967
3.36904
3.36887
3.36303
3.35473
3.37822
3.39176
3.38442
3.39019
3.38415
3.38103
3.37625
3.37178
3.37786
3.37365
3.37535
3.36977
3.38203
3.38413
3.37769
3.37362
3.38284
3.37123
3.37883
3.37767
3.37845
3.38142
3.36514
3.35103
3.35805
3.35624
3.3813
3.36679
3.3691
3.37262
3.35179
3.35823
3.35088
3.35914
3.34719
3.35471
3.36629
3.35927
3.36329
3.36667
3.36035
3.36607
3.36168
3.35477
3.35239
3.40694
3.39754
3.39704
3.40176
3.40273
3.40102
3.40208
3.38532
3.40191
3.39056
3.39379
3.39141
3.39098
3.39231
3.41044
3.40172
3.41684
3.41241
3.41266
3.41519
3.4134
3.39776
3.39359
3.40364
3.40059
3.39707
3.3966
3.40269
3.39755
3.39612
3.40805
3.40277
3.40268
3.4016
3.40412
3.39527
3.39447
3.39805
3.39965
3.39198
3.39187
3.39877
3.40538
3.4046
3.40806
3.40215
3.41073
3.40975
3.40331
3.38362
3.37517
3.37587
3.37726
3.38106
3.38065
3.37626
3.35836
3.36169
3.35758
3.36136
3.3625
3.3647
3.35823
3.38527
3.37755
3.38819
3.38439
3.38408
3.37771
3.38581
3.36949
3.36748
3.37833
3.374
3.37161
3.36994
3.37403
3.37378
3.36611
3.38074
3.37472
3.3761
3.37768
3.37547
3.37036
3.36427
3.36781
3.37145
3.36651
3.36539
3.37183
3.3753
3.37964
3.3839
3.37705
3.38274
3.38227
3.37735
3.3815
3.37305
3.37068
3.37518
3.37514
3.37492
3.37565
3.36488
3.36977
3.37154
3.38638
3.38946
3.39732
3.38961
3.39241
3.39249
3.39155
3.37293
3.38335
3.38074
3.38011
3.3811
3.38272
3.37412
3.3743
3.38433
3.37762
3.37697
3.37564
3.38068
3.37496
3.37645
3.37248
3.37666
3.36923
3.37379
3.37354
3.38582
3.38745
3.38366
3.38098
3.38815
3.38795
3.38102
3.36867
3.37052
3.36659
3.3654
3.37142
3.37136
3.36551
3.35716
3.35556
3.35526
3.35598
3.3598
3.36075
3.35471
3.36195
3.36313
3.36119
3.36562
3.35665
3.35778
3.36803
3.36024
3.36981
3.37213
3.36823
3.36806
3.36967
3.36582
3.36969
3.36023
3.36189
3.36419
3.36511
3.36333
3.36505
3.37104
3.363
3.36035
3.36367
3.36605
3.36388
3.36523
3.36247
3.37308
3.3696
3.36826
3.3684
3.36696
3.36676
3.38725
3.38104
3.38398
3.38728
3.38348
3.38038
3.38832
3.38831
3.39441
3.38883
3.39319
3.38755
3.38751
3.39425
3.39453
3.39441
3.39737
3.39172
3.39777
3.39676
3.39318
3.3914
3.38201
3.38456
3.38526
3.38627
3.38494
3.38705
3.38304
3.39035
3.3936
3.38917
3.38933
3.3902
3.38853
3.38058
3.38738
3.38953
3.3881
3.38368
3.38514
3.38703
3.39292
3.38522
3.38806
3.38656
3.39042
3.38903
3.38858
3.35824
3.36794
3.37292
3.36859
3.36637
3.36512
3.36024
3.36652
3.36
3.37086
3.37267
3.36352
3.35326
3.35846
3.35242
3.35156
3.34774
3.34524
3.34485
3.34981
3.35249
3.34997
3.34949
3.34649
3.34975
3.35492
3.34944
3.35547
3.3561
3.34986
3.3507
3.3457
3.34523
3.34979
3.35485
3.34774
3.34846
3.34979
3.36007
3.35369
3.3656
3.36023
3.36167
3.35918
3.3606
3.35615
3.35552
3.35676
3.34739
3.34588
3.3494
3.35188
3.35751
3.35975
3.36137
3.35869
3.34695
3.34755
3.34633
3.34965
3.34609
3.35765
3.35223
3.3556
3.3538
3.35469
3.35526
3.36288
3.35672
3.36132
3.35602
3.35495
3.34414
3.35006
3.3524
3.34533
3.3532
3.34887
3.34407
3.35331
3.35275
3.35087
3.35183
3.3507
3.35877
3.3601
3.35896
3.35726
3.35695
3.35596
3.35701
3.35667
3.36023
3.35467
3.36049
3.35993
3.35542
3.34988
3.35011
3.35233
3.3566
3.35201
3.34977
3.35145
3.35023
3.35654
3.35798
3.34626
3.35243
3.35306
3.35549
3.35233
3.38209
3.39083
3.38582
3.39318
3.37544
3.37263
3.37757
3.37093
3.37283
3.376
3.3719
3.37003
3.37661
3.38001
3.40369
3.39947
3.40445
3.39821
3.399
3.40477
3.40794
3.41237
3.40557
3.41229
3.41133
3.4099
3.41287
3.41397
3.41748
3.42161
3.41469
3.42033
3.41989
3.41479
3.41433
3.40616
3.40921
3.40782
3.41172
3.41028
3.40998
3.40221
3.41362
3.4126
3.40906
3.40512
3.40704
3.40903
3.40332
3.41141
3.41052
3.40899
3.40405
3.40766
3.40815
3.41597
3.40935
3.40674
3.40803
3.41204
3.41166
3.40942
3.40375
3.40182
3.40651
3.39668
3.39678
3.40201
3.40149
3.39832
3.38891
3.38548
3.38889
3.39953
3.41135
3.40008
3.4025
3.40369
3.38779
3.39657
3.39005
3.40089
3.39973
3.39662
3.39571
3.39686
3.38394
3.37544
3.38412
3.37801
3.3943
3.39089
3.38978
3.39432
3.38427
3.38789
3.37914
3.3953
3.38823
3.3916
3.38917
3.37913
3.39121
3.39926
3.40079
3.40831
3.40569
3.39711
3.40759
3.40499
3.39951
3.40427
3.39756
3.39984
3.39757
3.39931
3.40077
3.39324
3.39163
3.38879
3.39429
3.39497
3.3905
3.39284
3.38759
3.38488
3.39281
3.38759
3.38756
3.39275
3.39772
3.4037
3.40069
3.39853
3.40425
3.40303
3.39812
3.39413
3.39225
3.40338
3.39669
3.39782
3.39538
3.39621
3.39313
3.38809
3.3952
3.39396
3.39465
3.39079
3.39455
3.35415
3.37753
3.38144
3.38513
3.36487
3.37536
3.37424
3.34801
3.34984
3.35515
3.36176
3.34646
3.40202
3.39032
3.39548
3.39947
3.39388
3.38765
3.39235
3.40945
3.41152
3.41977
3.41053
3.40953
3.41396
3.39457
3.40594
3.39991
3.39551
3.40065
3.39637
3.39096
3.39168
3.40727
3.4013
3.36014
3.37604
3.35878
3.37831
3.36835
3.37804
3.37318
3.37511
3.37121
3.36605
3.36527
3.37746
3.38489
3.39041
3.3729
3.35831
3.35429
3.37732
3.37699
3.38567
3.38841
3.40317
3.39515
3.39148
3.36094
3.35025
3.35408
3.35545
3.3538
3.41781
3.41647
3.4197
3.41083
3.41629
3.41807
3.42578
3.43232
3.42355
3.41062
3.41481
3.40988
3.37215
3.3655
3.35657
3.36098
3.36265
3.36258
3.35756
3.34699
3.34364
3.41674
3.40937
3.40321
3.43309
3.43396
3.43314
3.43646
3.4413
3.42905
3.42814
3.41306
3.43121
3.41946
3.41873
3.41716
3.43368
3.43641
3.42775
3.43151
3.43483
3.43215
3.42938
3.39688
3.3981
3.39915
3.40151
3.39848
3.39875
3.39647
3.38331
3.37897
3.38405
3.37819
3.37965
3.37783
3.37517
3.40201
3.41498
3.4067
3.39751
3.34889
3.35616
3.36497
3.37072
3.36097
3.3788
3.36877
3.36218
3.37199
3.36477
3.36749
3.36724
3.36973
3.35363
3.35568
3.35007
3.35491
3.35414
3.35624
3.35483
3.38774
3.39257
3.39184
3.39183
3.39185
3.39267
3.39231
3.36332
3.36613
3.36745
3.36725
3.36464
3.36607
3.36703
3.3769
3.3748
3.37328
3.37938
3.37613
3.3769
3.37565
3.37076
3.37253
3.37126
3.37296
3.36831
3.37209
3.36551
3.38044
3.37772
3.37954
3.38083
3.38063
3.38074
3.38089
3.36049
3.354
3.35824
3.36068
3.3484
3.36058
3.36338
3.35782
3.36138
3.36054
3.36197
3.35915
3.40603
3.40507
3.40457
3.40817
3.40712
3.4078
3.40734
3.38083
3.3829
3.38297
3.38677
3.38252
3.38737
3.38482
3.38538
3.38233
3.38645
3.35447
3.37032
3.3741
3.36854
3.37797
3.42514
3.43487
3.43435
3.42624
3.44103
3.42204
3.43005
3.41443
3.42345
3.42749
3.42936
3.42699
3.41938
3.4221
3.41882
3.41652
3.42091
3.42476
3.42355
3.42547
3.42422
3.42375
3.42601
3.42228
3.4159
3.41652
3.41468
3.42
3.41125
3.41536
3.4127
3.41467
3.41207
3.41582
3.41268
3.4228
3.42687
3.42437
3.42305
3.42679
3.42319
3.4267
3.43186
3.42956
3.43248
3.41993
3.42115
3.41984
3.41962
3.42167
3.42211
3.42026
3.42593
3.43035
3.42945
3.43029
3.42856
3.43033
3.42902
3.42624
3.42764
3.42298
3.42466
3.42602
3.42548
3.42349
3.43258
3.43251
3.43276
3.43229
3.43672
3.4303
3.42824
3.43342
3.42563
3.42747
3.42274
3.42612
3.42546
3.42607
3.42345
3.39343
3.36725
3.3753
3.37302
3.37485
3.38593
3.37818
3.37956
3.3665
3.37418
3.37087
3.36598
3.36241
3.367
3.3658
3.36074
3.36537
3.36163
3.36201
3.37081
3.37665
3.37473
3.37532
3.36778
3.37233
3.37456
3.3716
3.36736
3.37252
3.37266
3.37074
3.36788
3.36716
3.36325
3.37275
3.36374
3.36313
3.35488
3.35257
3.35513
3.3568
3.35918
3.36076
3.3619
3.36272
3.36617
3.36453
3.3506
3.36167
3.36528
3.35655
3.35744
3.35102
3.35237
3.3526
3.34808
3.34856
3.34675
3.35062
3.34996
3.35266
3.35035
3.34841
3.34754
3.35898
3.3586
3.35727
3.36489
3.39671
3.36865
3.3752
3.39345
3.4002
3.39111
3.39204
3.39155
3.3917
3.38809
3.39378
3.40066
3.39769
3.39881
3.42221
3.40862
3.41697
3.40557
3.40229
3.40488
3.40745
3.40532
3.40047
3.40098
3.34618
3.42972
3.42886
3.42776
3.42492
3.43441
3.43145
3.42505
3.42408
3.43022
3.42331
3.42029
3.43751
3.43553
3.43146
3.42932
3.43103
3.43258
3.42988
3.43357
3.42627
3.42294
3.41601
3.42531
3.43299
3.43394
3.43557
3.43395
3.43463
3.43578
3.44175
3.44251
3.4386
3.43923
3.43963
3.43197
3.44074
3.43283
3.43755
3.43508
3.43484
3.43379
3.43484
3.43373
3.43814
3.43871
3.43406
3.43726
3.437
3.43962
3.43872
3.43719
3.43445
3.43717
3.436
3.43907
3.43627
3.44373
3.4437
3.41566
3.41623
3.41258
3.40463
3.41195
3.41409
3.41305
3.40157
3.43032
3.43353
3.43188
3.43655
3.42843
3.43348
3.43318
3.426
3.43234
3.43114
3.43025
3.42334
3.4258
3.42029
3.44187
3.43946
3.4426
3.43625
3.44227
3.43935
3.43761
3.42687
3.42362
3.42083
3.4229
3.41758
3.41978
3.42049
3.4216
3.41979
3.4206
3.42497
3.42316
3.42356
3.4221
3.42407
3.42218
3.43287
3.43015
3.43216
3.43055
3.42908
3.42898
3.43118
3.4358
3.42614
3.42785
3.42949
3.43151
3.42979
3.42722
3.42786
3.42655
3.42513
3.42499
3.42614
3.42503
3.42545
3.41063
3.44499
3.44302
3.44769
3.424
3.43795
3.42688
3.42736
3.42365
3.42513
3.42871
3.42543
3.42516
3.42298
3.42329
3.41634
3.42539
3.42338
3.42232
3.41466
3.40581
3.41064
3.41001
3.41134
3.40894
3.41094
3.41056
3.42676
3.42533
3.42158
3.41956
3.42262
3.42393
3.43008
3.42721
3.43276
3.42924
3.43
3.42817
3.43094
3.42705
3.42259
3.42381
3.42511
3.42588
3.4249
3.42578
3.41727
3.41968
3.41822
3.41797
3.41831
3.41819
3.41801
3.41666
3.42081
3.41959
3.42063
3.41766
3.42029
3.41941
3.4212
3.42289
3.42384
3.4255
3.42196
3.42367
3.42386
3.43283
3.43173
3.43139
3.40318
3.41899
3.41217
3.40818
3.40976
3.40486
3.41122
3.41414
3.41914
3.41482
3.4254
3.40913
3.41899
3.41338
3.41602
3.41564
3.41122
3.42249
3.42388
3.41673
3.41889
3.42466
3.42567
3.41887
3.42702
3.42003
3.42444
3.42479
3.42751
3.41426
3.39307
3.39094
3.39903
3.39152
3.39282
3.39306
3.39608
3.41784
3.41708
3.41452
3.41331
3.41786
3.41468
3.4148
3.40895
3.40308
3.4093
3.41012
3.40835
3.40575
3.40635
3.39875
3.40599
3.40619
3.40849
3.40768
3.40134
3.40628
3.40024
3.40175
3.4042
3.40549
3.40537
3.41031
3.40848
3.41195
3.39182
3.39283
3.38489
3.38464
3.38743
3.38795
3.38229
3.372
3.37253
3.39336
3.39351
3.39483
3.39178
3.39565
3.39091
3.39757
3.39562
3.40839
3.39774
3.39942
3.40692
3.40637
3.4058
3.37967
3.38126
3.39482
3.4014
3.39271
3.39616
3.38659
3.38335
3.37604
3.38253
3.38482
3.37612
3.37563
3.38178
3.39171
3.38909
3.41183
3.40579
3.41849
3.41267
3.41501
3.41701
3.41628
3.41473
3.41396
3.41724
3.41588
3.41512
3.41036
3.42174
3.41643
3.41959
3.42048
3.42108
3.42214
3.42169
3.42331
3.41833
3.41891
3.41389
3.41971
3.4139
3.41968
3.41678
3.40912
3.4082
3.40979
3.40787
3.41629
3.36528
3.36452
3.35847
3.37565
3.36421
3.36438
3.36095
3.36798
3.3575
3.36196
3.36359
3.36334
3.36365
3.38911
3.38841
3.38624
3.39061
3.38785
3.38854
3.36834
3.36902
3.37283
3.37355
3.36761
3.36942
3.36982
3.37356
3.38219
3.39112
3.37888
3.37755
3.37686
3.37786
3.36081
3.3555
3.35679
3.36034
3.36063
3.35659
3.34905
3.34861
3.35366
3.35393
3.3537
3.35766
3.35487
3.3608
3.35718
3.35597
3.35684
3.36238
3.35936
3.35752
3.35764
3.36159
3.36
3.35784
3.35482
3.39564
3.39842
3.39297
3.39726
3.39581
3.3986
3.39662
3.38664
3.38522
3.39061
3.3874
3.39033
3.38994
3.38985
3.41274
3.41149
3.41019
3.41097
3.41169
3.41217
3.4116
3.40087
3.40048
3.39854
3.39733
3.4003
3.3992
3.39883
3.40528
3.40253
3.3975
3.40088
3.40572
3.4041
3.39853
3.40083
3.40086
3.40379
3.3986
3.40161
3.39815
3.40143
3.40409
3.40123
3.39998
3.40234
3.40275
3.40297
3.40222
3.37262
3.37571
3.37012
3.36914
3.37267
3.37461
3.37007
3.36074
3.35836
3.36353
3.36152
3.36071
3.35917
3.36231
3.3866
3.38474
3.38333
3.38148
3.38303
3.38433
3.38228
3.37694
3.37449
3.37584
3.37332
3.37572
3.37425
3.37516
3.37665
3.3738
3.37087
3.37214
3.37311
3.37462
3.37193
3.36849
3.37112
3.3701
3.36912
3.37065
3.37056
3.37028
3.38056
3.37648
3.37759
3.37802
3.37891
3.37833
3.37851
3.3687
3.37284
3.36776
3.37016
3.36985
3.37063
3.36964
3.37427
3.37284
3.37326
3.37235
3.37432
3.369
3.3722
3.39397
3.38973
3.38895
3.39092
3.39309
3.39183
3.38941
3.38048
3.37788
3.37746
3.37835
3.38015
3.37792
3.37911
3.38027
3.38081
3.3786
3.37847
3.38604
3.37903
3.37976
3.37511
3.37897
3.37999
3.3717
3.37364
3.37536
3.3711
3.38114
3.38006
3.37882
3.3815
3.38012
3.38131
3.38022
3.3645
3.36338
3.36196
3.36469
3.36426
3.36466
3.36421
3.36732
3.36207
3.36341
3.36112
3.36202
3.36321
3.36298
3.37083
3.36981
3.36825
3.36717
3.3689
3.36798
3.37257
3.37379
3.36954
3.37488
3.37206
3.37185
3.37207
3.37311
3.35964
3.36263
3.35601
3.3599
3.35938
3.36136
3.35882
3.35892
3.36243
3.35647
3.35809
3.36015
3.36156
3.35803
3.37185
3.36907
3.37473
3.37166
3.37176
3.37053
3.37388
3.38859
3.38792
3.38715
3.38465
3.38744
3.38781
3.38587
3.3833
3.38444
3.38754
3.38687
3.38681
3.38656
3.38695
3.39234
3.39107
3.38979
3.39047
3.3914
3.39138
3.39102
3.38177
3.38463
3.37892
3.38093
3.3817
3.38251
3.3799
3.3945
3.39042
3.3958
3.3932
3.39376
3.39238
3.3945
3.3926
3.38983
3.39532
3.39179
3.39258
3.39056
3.39322
3.38349
3.38511
3.37949
3.38245
3.3828
3.38406
3.38125
3.36627
3.36314
3.36861
3.36845
3.37438
3.37423
3.37335
3.36379
3.37041
3.37274
3.36788
3.34919
3.34799
3.34691
3.3496
3.3461
3.34895
3.35111
3.34812
3.35208
3.34935
3.35296
3.35049
3.34762
3.35083
3.35165
3.34705
3.34246
3.34902
3.35019
3.35512
3.35216
3.35762
3.35402
3.35496
3.35252
3.35518
3.35168
3.3475
3.34833
3.35034
3.35062
3.35005
3.35032
3.34546
3.34793
3.34909
3.34952
3.34814
3.34888
3.35539
3.34988
3.34404
3.35066
3.34674
3.34759
3.34999
3.34862
3.34786
3.34875
3.34862
3.34594
3.35808
3.34974
3.35394
3.35155
3.35723
3.34951
3.35433
3.35057
3.35081
3.34892
3.3535
3.34938
3.35149
3.35725
3.35504
3.35627
3.34167
3.34459
3.34531
3.34496
3.34481
3.34666
3.34592
3.34964
3.35473
3.35149
3.34766
3.34737
3.34672
3.34931
3.34841
3.35807
3.35546
3.35676
3.35434
3.35668
3.35542
3.35627
3.36304
3.35958
3.36439
3.36078
3.36013
3.36087
3.36436
3.35584
3.35279
3.35148
3.35301
3.3537
3.35357
3.35325
3.35065
3.35153
3.35363
3.35
3.3515
3.34981
3.35177
3.35275
3.35409
3.35441
3.35153
3.3527
3.35264
3.34765
3.35112
3.35029
3.35202
3.35034
3.35136
3.35145
3.38405
3.37414
3.38098
3.38598
3.38421
3.37862
3.38433
3.36717
3.37881
3.3733
3.38065
3.37495
3.36409
3.36784
3.37275
3.36327
3.37163
3.36991
3.37589
3.36478
3.40332
3.40439
3.40543
3.40149
3.40652
3.40078
3.40412
3.4075
3.40871
3.41059
3.41077
3.40976
3.41073
3.41048
3.41836
3.41428
3.4153
3.41545
3.41644
3.41577
3.4161
3.40504
3.40649
3.40097
3.40372
3.40466
3.40522
3.40252
3.41469
3.41166
3.41705
3.41328
3.41444
3.41156
3.4142
3.41262
3.41158
3.41707
3.41405
3.413
3.41112
3.41411
3.40393
3.40651
3.40108
3.40472
3.40383
3.4052
3.40282
3.38874
3.39447
3.38872
3.39469
3.39172
3.39272
3.39274
3.39136
3.39121
3.3967
3.40432
3.39738
3.39704
3.39091
3.38703
3.39649
3.39287
3.39477
3.38087
3.37817
3.37422
3.40312
3.39955
3.39983
3.40212
3.39179
3.39658
3.39043
3.38881
3.39803
3.39447
3.39505
3.39838
3.38873
3.38997
3.386
3.38308
3.37877
3.38107
3.39464
3.40023
3.38282
3.38152
3.40888
3.40626
3.40784
3.40311
3.40637
3.40575
3.40704
3.38964
3.39248
3.3929
3.39427
3.39026
3.39183
3.39288
3.38663
3.39033
3.38462
3.38905
3.38884
3.38907
3.3854
3.38769
3.3917
3.38825
3.39218
3.39351
3.39151
3.39288
3.39937
3.39686
3.39831
3.39966
3.39929
3.39938
3.39973
3.40033
3.39657
3.39775
3.39567
3.39812
3.39701
3.39784
3.39781
3.39389
3.39218
3.39215
3.39181
3.39401
3.39498
3.34349
3.37262
3.36307
3.37435
3.36145
3.3488
3.36909
3.39407
3.39281
3.38884
3.39106
3.39142
3.39204
3.38773
3.42238
3.41306
3.41883
3.40342
3.39951
3.40417
3.40063
3.40202
3.39879
3.39597
3.40363
3.40677
3.39637
3.40381
3.40261
3.40374
3.36233
3.36032
3.36775
3.36647
3.36386
3.36333
3.36577
3.38861
3.38579
3.38557
3.38617
3.38978
3.38543
3.38175
3.3697
3.37682
3.38474
3.3781
3.36883
3.37839
3.37047
3.37205
3.37361
3.37374
3.37427
3.36703
3.37506
3.38253
3.37737
3.36209
3.36331
3.36282
3.36116
3.38584
3.39541
3.38211
3.35229
3.41387
3.4094
3.41555
3.4169
3.41647
3.41307
3.42696
3.40863
3.40452
3.40332
3.4009
3.40022
3.40252
3.39971
3.41401
3.41118
3.41312
3.41291
3.41116
3.41079
3.41317
3.41858
3.41324
3.41162
3.40727
3.4122
3.41053
3.41343
3.40714
3.41495
3.41537
3.41257
3.40721
3.41248
3.40823
3.41454
3.4099
3.40661
3.41386
3.40805
3.40881
3.40992
3.41213
3.4086
3.41086
3.40355
3.41544
3.41769
3.41515
3.41249
3.43602
3.43646
3.43695
3.43688
3.43648
3.435
3.43231
3.43243
3.43493
3.43312
3.43507
3.43269
3.43485
3.43528
3.43668
3.43556
3.43428
3.36441
3.36765
3.3697
3.36718
3.36834
3.36617
3.36118
3.35927
3.3617
3.36949
3.37167
3.35247
3.35658
3.35234
3.35574
3.35395
3.35527
3.35152
3.35744
3.35865
3.35476
3.35487
3.36263
3.35947
3.36031
3.35763
3.35999
3.35946
3.36027
3.36539
3.3606
3.36113
3.36217
3.35876
3.36714
3.36259
3.35687
3.35505
3.35543
3.35654
3.35734
3.35929
3.35758
3.35808
3.3533
3.3617
3.36228
3.36297
3.3582
3.35944
3.36108
3.36105
3.35755
3.35497
3.34808
3.34345
3.34661
3.34433
3.34603
3.34586
3.34242
3.34579
3.39829
3.40197
3.40343
3.41306
3.40346
3.4147
3.41158
3.41154
3.4122
3.40082
3.40612
3.39897
3.40606
3.41595
3.40349
3.40201
3.41309
3.39753
3.39929
3.43938
3.43706
3.43099
3.43608
3.44136
3.44185
3.43595
3.44136
3.4008
3.4038
3.4021
3.38905
3.40274
3.42725
3.42505
3.40892
3.42431
3.42358
3.42249
3.42444
3.42044
3.42363
3.41997
3.4294
3.42446
3.41817
3.42115
3.42249
3.42647
3.42888
3.41733
3.41529
3.41516
3.41317
3.41636
3.41278
3.41478
3.42295
3.4193
3.42203
3.41727
3.42226
3.41912
3.41772
3.41199
3.41164
3.40426
3.407
3.4104
3.4118
3.40762
3.41431
3.41507
3.40764
3.41612
3.41642
3.41699
3.41478
3.41477
3.41738
3.41096
3.41268
3.41486
3.41561
3.41365
3.41712
3.42194
3.41941
3.41914
3.41549
3.41922
3.4156
3.4155
3.41411
3.40989
3.40846
3.41309
3.41081
3.41001
3.44358
3.44736
3.44094
3.43757
3.43214
3.43365
3.43533
3.43566
3.43325
3.43416
3.43532
3.42621
3.42895
3.42753
3.42907
3.42835
3.42919
3.42904
3.43685
3.43823
3.43246
3.42866
3.4365
3.4322
3.43154
3.42922
3.43378
3.43506
3.43223
3.43787
3.43415
3.43467
3.43242
3.43587
3.4333
3.42871
3.43061
3.43077
3.43141
3.43106
3.4314
3.43328
3.43574
3.4376
3.43629
3.43597
3.43644
3.43668
3.41378
3.41005
3.41169
3.41128
3.40688
3.4176
3.41389
3.41345
3.42
3.40868
3.41487
3.40722
3.40967
3.4132
3.41526
3.41686
3.41361
3.4111
3.40645
3.41209
3.40901
3.40859
3.40825
3.41129
3.4062
3.40139
3.40502
3.40675
3.41145
3.40795
3.39794
3.40312
3.40456
3.40463
3.40312
3.40164
3.40414
3.40284
3.40274
3.4009
3.40201
3.40017
3.40257
3.39905
3.40605
3.41016
3.40846
3.4053
3.40848
3.40855
3.4059
3.40186
3.40001
3.40257
3.40431
3.40504
3.40561
3.40697
3.40435
3.40036
3.40632
3.40018
3.40407
3.40223
3.40571
3.36966
3.38223
3.37614
3.382
3.37425
3.40582
3.4074
3.40461
3.40175
3.40335
3.41083
3.40292
3.40742
3.41203
3.41034
3.40364
3.40339
3.4069
3.40748
3.4076
3.40345
3.40314
3.40775
3.39902
3.40284
3.41525
3.40133
3.39759
3.40096
3.3694
3.37158
3.36098
3.37418
3.36966
3.37686
3.37815
3.3676
3.36919