/*--------------------------------*- C++ -*----------------------------------*\
| =========                 |                                                 |
| \\      /  F ield         | OpenFOAM: The Open Source CFD Toolbox           |
|  \\    /   O peration     | Version:  v1612+                                |
|   \\  /    A nd           | Web:      www.OpenFOAM.com                      |
|    \\/     M anipulation  |                                                 |
\*---------------------------------------------------------------------------*/
FoamFile
{
    version     2.0;
    format      ascii;
    class       volVectorField;
    location    "100";
    object      U;
}
// * * * * * * * * * * * * * * * * * * * * * * * * * * * * * * * * * * * * * //

dimensions      [0 1 -1 0 0 0 0];

internalField   nonuniform List<vector> 
21521
(
(0.154267 0.680975 -0.191596)
(0.157596 0.690901 -0.18784)
(0.164195 0.732363 -0.203807)
(0.184726 0.831007 -0.232468)
(0.142265 0.661129 -0.193477)
(0.176318 0.783997 -0.217908)
(0.149561 0.652436 -0.178913)
(0.127787 0.577145 -0.154962)
(0.132053 0.622486 -0.170407)
(0.168694 0.787567 -0.219983)
(0.178519 0.812075 -0.226075)
(0.181138 0.80404 -0.221093)
(0.140011 0.639926 -0.17816)
(0.150564 0.694053 -0.199257)
(0.158162 0.691187 -0.195313)
(0.144978 0.659726 -0.177581)
(0.134724 0.619487 -0.181397)
(0.147449 0.660623 -0.184161)
(0.15141 0.673294 -0.179758)
(0.128239 0.60218 -0.167574)
(0.160719 0.700904 -0.186865)
(0.115908 0.560796 -0.161479)
(0.141636 0.606294 -0.169367)
(0.153242 0.701099 -0.201141)
(0.149943 0.681444 -0.193602)
(0.148032 0.663857 -0.178633)
(0.18553 0.826145 -0.225438)
(0.149705 0.692032 -0.185223)
(0.156811 0.664492 -0.187923)
(0.123717 0.536344 -0.144611)
(0.182484 0.815793 -0.219779)
(0.13352 0.614688 -0.167442)
(0.180236 0.821158 -0.231781)
(0.134699 0.572953 -0.157141)
(0.12973 0.567185 -0.151596)
(0.144492 0.63613 -0.179952)
(0.168587 0.709626 -0.20699)
(0.123502 0.54719 -0.159677)
(0.14375 0.638016 -0.184002)
(0.172478 0.751295 -0.214408)
(0.171305 0.777438 -0.214609)
(0.130624 0.592458 -0.166172)
(0.124404 0.601155 -0.16766)
(0.129744 0.588251 -0.161655)
(0.145972 0.679395 -0.178405)
(0.147524 0.680419 -0.186794)
(0.151923 0.65195 -0.181124)
(0.133731 0.57911 -0.164191)
(0.142347 0.600838 -0.164838)
(0.138531 0.621399 -0.177413)
(0.152321 0.694459 -0.177027)
(0.156405 0.659812 -0.185305)
(0.130343 0.569175 -0.162052)
(0.152167 0.640178 -0.175057)
(0.131514 0.577097 -0.160896)
(0.160758 0.712695 -0.195116)
(0.132023 0.626953 -0.174461)
(0.151925 0.703279 -0.191454)
(0.136583 0.625297 -0.184073)
(0.12665 0.562434 -0.160739)
(0.127442 0.575844 -0.147372)
(0.145943 0.65096 -0.17006)
(0.141917 0.601227 -0.162043)
(0.13382 0.563092 -0.159804)
(0.15363 0.647245 -0.18447)
(0.140909 0.655161 -0.189739)
(0.14161 0.65132 -0.176767)
(0.140624 0.645355 -0.175693)
(0.137252 0.616671 -0.164525)
(0.163488 0.695094 -0.184758)
(0.163318 0.705418 -0.192979)
(0.142336 0.650426 -0.175557)
(0.127256 0.579456 -0.153086)
(0.140642 0.638441 -0.177955)
(0.134456 0.652307 -0.185614)
(0.148092 0.694676 -0.188647)
(0.13361 0.639422 -0.183618)
(0.153898 0.701729 -0.190474)
(0.156576 0.671527 -0.174131)
(0.137432 0.615861 -0.163015)
(0.149623 0.686891 -0.195789)
(0.136779 0.642495 -0.180918)
(0.158333 0.725088 -0.201842)
(0.14073 0.616707 -0.168546)
(0.144656 0.67604 -0.193057)
(0.151909 0.63476 -0.184229)
(0.137597 0.59351 -0.16885)
(0.145582 0.679659 -0.190815)
(0.1497 0.671751 -0.185209)
(0.150475 0.641828 -0.171909)
(0.166096 0.736976 -0.197532)
(0.146475 0.673483 -0.185251)
(0.164823 0.747195 -0.19849)
(0.138648 0.614384 -0.169784)
(0.14187 0.65179 -0.174406)
(0.134159 0.640579 -0.165716)
(0.13164 0.612638 -0.176936)
(0.139531 0.648942 -0.173614)
(0.144627 0.630472 -0.184982)
(0.176522 0.810191 -0.223636)
(0.134177 0.631373 -0.155748)
(0.15066 0.638696 -0.175157)
(0.137747 0.61162 -0.164319)
(0.165628 0.72527 -0.20726)
(0.156098 0.664571 -0.184535)
(0.179699 0.781821 -0.212612)
(0.150821 0.695933 -0.192976)
(0.134384 0.632565 -0.186606)
(0.144881 0.648168 -0.184853)
(0.166911 0.738452 -0.203444)
(0.145985 0.669859 -0.190876)
(0.141632 0.575837 -0.155039)
(0.147512 0.615383 -0.172081)
(0.144267 0.626106 -0.171231)
(0.149873 0.701503 -0.188429)
(0.14657 0.621463 -0.177674)
(0.142775 0.668612 -0.194543)
(0.136477 0.616914 -0.171256)
(0.146373 0.660671 -0.180119)
(0.142808 0.661538 -0.182508)
(0.146733 0.658095 -0.182434)
(0.134582 0.589336 -0.162365)
(0.138768 0.646519 -0.16884)
(0.163551 0.748162 -0.213573)
(0.179987 0.81643 -0.22158)
(0.157803 0.698038 -0.190957)
(0.154814 0.674974 -0.184653)
(0.145123 0.66646 -0.182562)
(0.150157 0.681053 -0.190163)
(0.127682 0.58088 -0.166229)
(0.126973 0.56531 -0.165324)
(0.137938 0.649711 -0.182046)
(0.137478 0.611455 -0.170682)
(0.137475 0.623358 -0.167272)
(0.153171 0.690317 -0.186115)
(0.142105 0.637954 -0.177163)
(0.157423 0.724623 -0.20225)
(0.139601 0.655477 -0.175773)
(0.126695 0.605372 -0.166426)
(0.12132 0.573432 -0.155525)
(0.128575 0.626223 -0.180074)
(0.142935 0.623216 -0.1751)
(0.152823 0.657414 -0.187109)
(0.145123 0.616259 -0.168215)
(0.156228 0.743103 -0.201009)
(0.14503 0.65269 -0.185206)
(0.141377 0.676738 -0.187632)
(0.16077 0.693711 -0.199945)
(0.175816 0.809629 -0.217589)
(0.135841 0.613265 -0.176565)
(0.149975 0.64031 -0.181522)
(0.136621 0.655357 -0.178055)
(0.154758 0.690966 -0.186325)
(0.136417 0.620691 -0.173162)
(0.151677 0.660506 -0.181407)
(0.162009 0.74037 -0.214571)
(0.151769 0.652524 -0.1794)
(0.138495 0.617741 -0.176667)
(0.14823 0.692624 -0.192331)
(0.125289 0.550471 -0.146742)
(0.131983 0.626825 -0.171377)
(0.128747 0.586685 -0.157247)
(0.136259 0.597823 -0.162359)
(0.127577 0.547616 -0.148732)
(0.134466 0.58033 -0.156023)
(0.145292 0.652139 -0.184605)
(0.143835 0.629895 -0.168981)
(0.16764 0.727979 -0.20066)
(0.146164 0.682882 -0.185836)
(0.129102 0.581965 -0.160885)
(0.137968 0.634341 -0.172297)
(0.152135 0.69802 -0.190108)
(0.144091 0.680303 -0.18641)
(0.135321 0.616353 -0.166933)
(0.182232 0.820898 -0.226467)
(0.143428 0.646846 -0.176586)
(0.146251 0.647218 -0.173259)
(0.151435 0.653843 -0.189527)
(0.137169 0.60283 -0.165544)
(0.14339 0.619919 -0.164278)
(0.163273 0.736988 -0.202477)
(0.127163 0.593314 -0.156904)
(0.127397 0.597405 -0.164289)
(0.140707 0.63254 -0.173381)
(0.164522 0.750093 -0.205285)
(0.154905 0.704274 -0.198936)
(0.159922 0.722364 -0.201933)
(0.130975 0.654109 -0.175973)
(0.147385 0.646697 -0.181116)
(0.137973 0.647321 -0.180965)
(0.141314 0.622921 -0.180724)
(0.150693 0.699524 -0.196139)
(0.133711 0.573473 -0.155979)
(0.156187 0.657395 -0.187557)
(0.14284 0.586925 -0.15507)
(0.136355 0.577851 -0.165182)
(0.15191 0.670693 -0.190248)
(0.125152 0.566774 -0.162699)
(0.145411 0.694002 -0.196099)
(0.152558 0.664149 -0.194301)
(0.135868 0.643866 -0.184733)
(0.152393 0.695668 -0.193407)
(0.144972 0.677391 -0.193154)
(0.146306 0.634467 -0.178807)
(0.153763 0.713698 -0.195432)
(0.151373 0.684272 -0.185431)
(0.156472 0.665479 -0.177674)
(0.168151 0.712456 -0.195032)
(0.150868 0.676203 -0.181364)
(0.142637 0.666478 -0.185304)
(0.150266 0.66104 -0.178686)
(0.139364 0.604073 -0.171253)
(0.151516 0.652217 -0.171322)
(0.134421 0.581925 -0.159084)
(0.152962 0.735528 -0.205869)
(0.143743 0.668376 -0.192863)
(0.137283 0.607664 -0.165013)
(0.129033 0.560433 -0.139363)
(0.149068 0.682288 -0.196204)
(0.144245 0.655079 -0.184893)
(0.13811 0.637846 -0.176014)
(0.141015 0.6548 -0.17868)
(0.135979 0.628782 -0.177885)
(0.16004 0.716475 -0.19414)
(0.167608 0.771707 -0.222445)
(0.13667 0.609218 -0.161654)
(0.162144 0.700582 -0.19741)
(0.149221 0.689231 -0.187123)
(0.152542 0.658367 -0.186883)
(0.175534 0.764925 -0.209361)
(0.157802 0.698318 -0.193148)
(0.147977 0.654788 -0.177831)
(0.140572 0.633697 -0.172651)
(0.155794 0.687628 -0.189323)
(0.151114 0.611296 -0.174961)
(0.129554 0.594782 -0.158231)
(0.153088 0.679478 -0.189622)
(0.151681 0.690082 -0.195019)
(0.155017 0.696931 -0.200245)
(0.156484 0.679169 -0.196125)
(0.152514 0.664659 -0.186639)
(0.135562 0.590586 -0.165445)
(0.144078 0.604447 -0.174066)
(0.154809 0.693132 -0.191188)
(0.154086 0.639082 -0.164676)
(0.170358 0.718758 -0.200138)
(0.158155 0.677097 -0.186711)
(0.144674 0.644655 -0.180911)
(0.141634 0.670053 -0.189244)
(0.1396 0.614245 -0.169123)
(0.152587 0.655233 -0.176905)
(0.164008 0.737836 -0.196221)
(0.172556 0.767511 -0.216906)
(0.153956 0.700094 -0.194477)
(0.11714 0.601997 -0.168847)
(0.162534 0.752721 -0.204926)
(0.142307 0.677324 -0.186498)
(0.14752 0.674101 -0.176898)
(0.118741 0.62842 -0.17074)
(0.143701 0.634197 -0.17963)
(0.14672 0.645704 -0.17328)
(0.159597 0.70085 -0.197826)
(0.158098 0.73167 -0.205268)
(0.119925 0.542018 -0.150861)
(0.170408 0.735299 -0.196919)
(0.120428 0.536612 -0.151667)
(0.158969 0.68427 -0.192802)
(0.155429 0.680933 -0.187673)
(0.139684 0.620286 -0.16125)
(0.167759 0.736656 -0.200597)
(0.153937 0.668688 -0.175719)
(0.152723 0.683989 -0.185933)
(0.15308 0.643619 -0.181655)
(0.126941 0.595404 -0.165952)
(0.144114 0.662278 -0.184197)
(0.131808 0.58946 -0.163642)
(0.150503 0.650747 -0.187715)
(0.137874 0.63355 -0.169259)
(0.154604 0.723962 -0.190823)
(0.124744 0.57802 -0.164194)
(0.129973 0.593488 -0.161776)
(0.141801 0.624611 -0.162902)
(0.129449 0.591514 -0.157806)
(0.127422 0.589869 -0.156039)
(0.134386 0.634315 -0.175783)
(0.131574 0.609081 -0.165953)
(0.118592 0.530732 -0.142688)
(0.147182 0.669444 -0.180094)
(0.167617 0.710017 -0.194245)
(0.13552 0.618009 -0.169127)
(0.156737 0.691856 -0.193916)
(0.145665 0.641981 -0.173882)
(0.163728 0.722014 -0.195208)
(0.145088 0.624231 -0.170945)
(0.144725 0.650295 -0.178461)
(0.160144 0.705782 -0.200007)
(0.132238 0.644958 -0.183788)
(0.146329 0.658901 -0.191979)
(0.144315 0.582752 -0.162594)
(0.13004 0.575714 -0.161397)
(0.147562 0.697956 -0.202458)
(0.152084 0.666131 -0.187115)
(0.150055 0.680733 -0.190907)
(0.130496 0.592677 -0.16048)
(0.153246 0.698489 -0.19267)
(0.144668 0.634916 -0.172683)
(0.141511 0.631708 -0.170618)
(0.140165 0.633406 -0.166341)
(0.126037 0.578614 -0.147629)
(0.129788 0.604905 -0.165781)
(0.146471 0.637259 -0.173524)
(0.155681 0.709308 -0.200543)
(0.127726 0.594975 -0.159726)
(0.141761 0.646612 -0.179514)
(0.129355 0.582957 -0.159229)
(0.143747 0.636924 -0.18042)
(0.139158 0.631344 -0.169715)
(0.14118 0.632152 -0.174429)
(0.156576 0.70571 -0.203001)
(0.147148 0.657202 -0.17165)
(0.139926 0.633037 -0.177463)
(0.155508 0.706074 -0.196092)
(0.124614 0.565433 -0.155968)
(0.142369 0.639975 -0.179447)
(0.140022 0.594658 -0.166792)
(0.142783 0.639151 -0.177201)
(0.12723 0.568501 -0.157051)
(0.161347 0.718865 -0.205133)
(0.146751 0.667036 -0.177198)
(0.15306 0.660959 -0.182351)
(0.129785 0.603942 -0.162076)
(0.121873 0.57709 -0.162938)
(0.127965 0.615234 -0.16735)
(0.140776 0.64509 -0.177609)
(0.143773 0.649733 -0.181778)
(0.114438 0.551849 -0.149182)
(0.133487 0.596685 -0.163211)
(0.133716 0.603515 -0.163944)
(0.143049 0.642708 -0.170875)
(0.153035 0.651481 -0.168647)
(0.149305 0.651531 -0.177702)
(0.151944 0.671862 -0.182949)
(0.138686 0.607664 -0.160624)
(0.136942 0.642853 -0.173822)
(0.150291 0.671803 -0.183499)
(0.152297 0.683614 -0.1869)
(0.152514 0.674053 -0.183675)
(0.150796 0.708217 -0.192722)
(0.153347 0.704392 -0.199403)
(0.146115 0.64002 -0.16971)
(0.144051 0.675221 -0.184027)
(0.132458 0.597895 -0.176255)
(0.159483 0.725309 -0.202349)
(0.141741 0.649441 -0.179571)
(0.175896 0.824278 -0.215998)
(0.142586 0.66533 -0.189071)
(0.157889 0.680771 -0.1835)
(0.176178 0.793958 -0.218433)
(0.134704 0.620258 -0.174244)
(0.152601 0.681734 -0.191507)
(0.141284 0.660544 -0.18973)
(0.148314 0.652432 -0.186058)
(0.150237 0.668695 -0.177149)
(0.152006 0.679222 -0.184228)
(0.15559 0.685251 -0.189738)
(0.153115 0.672404 -0.179003)
(0.141722 0.615006 -0.178277)
(0.126645 0.593507 -0.158996)
(0.147305 0.685001 -0.191533)
(0.139717 0.629548 -0.191119)
(0.129932 0.60698 -0.162905)
(0.145683 0.635058 -0.169844)
(0.142226 0.622581 -0.174189)
(0.138464 0.645531 -0.174269)
(0.145862 0.672121 -0.190647)
(0.150311 0.681375 -0.179307)
(0.151462 0.668095 -0.179153)
(0.144064 0.639676 -0.174087)
(0.148489 0.681679 -0.190762)
(0.153008 0.685371 -0.18534)
(0.140956 0.647024 -0.182331)
(0.154109 0.6598 -0.185787)
(0.128248 0.598769 -0.158441)
(0.137466 0.648834 -0.182754)
(0.152051 0.656432 -0.177014)
(0.159483 0.674211 -0.201995)
(0.151161 0.646176 -0.18072)
(0.151735 0.664292 -0.187004)
(0.160286 0.705477 -0.193029)
(0.123817 0.560251 -0.153797)
(0.141143 0.609039 -0.164413)
(0.154725 0.725316 -0.198997)
(0.146424 0.631183 -0.175983)
(0.13313 0.632927 -0.176086)
(0.151338 0.686263 -0.191798)
(0.140222 0.644217 -0.172198)
(0.126893 0.574934 -0.160124)
(0.126681 0.610048 -0.165806)
(0.141958 0.613844 -0.167965)
(0.130631 0.605358 -0.162704)
(0.144209 0.635453 -0.174087)
(0.130746 0.570578 -0.162635)
(0.119343 0.587558 -0.169998)
(0.137597 0.584065 -0.154864)
(0.132803 0.602305 -0.163701)
(0.137051 0.617708 -0.173274)
(0.121754 0.583318 -0.162442)
(0.136328 0.596877 -0.16937)
(0.153092 0.685323 -0.187414)
(0.150027 0.646099 -0.176535)
(0.140327 0.657146 -0.182736)
(0.147343 0.625738 -0.176041)
(0.13268 0.56987 -0.153039)
(0.14911 0.648991 -0.177296)
(0.146304 0.639692 -0.173182)
(0.128703 0.552374 -0.150287)
(0.150458 0.606367 -0.17512)
(0.134698 0.62085 -0.170456)
(0.150567 0.664457 -0.181136)
(0.16541 0.723868 -0.197816)
(0.143467 0.640325 -0.179111)
(0.162187 0.693445 -0.1968)
(0.129378 0.58249 -0.163036)
(0.148697 0.661773 -0.179908)
(0.126671 0.589368 -0.159702)
(0.15727 0.682751 -0.19422)
(0.127235 0.582994 -0.160802)
(0.125625 0.59926 -0.163216)
(0.152232 0.665611 -0.185194)
(0.139541 0.619647 -0.170632)
(0.158158 0.722411 -0.198411)
(0.116685 0.589495 -0.162069)
(0.140252 0.6215 -0.154523)
(0.136101 0.639301 -0.174433)
(0.132975 0.572875 -0.149267)
(0.145951 0.650891 -0.18007)
(0.165291 0.748347 -0.204988)
(0.143406 0.641119 -0.177815)
(0.119081 0.559937 -0.149037)
(0.139284 0.667214 -0.18308)
(0.143805 0.655548 -0.175367)
(0.129249 0.596941 -0.157316)
(0.140733 0.626379 -0.168512)
(0.134785 0.623339 -0.165761)
(0.150858 0.62939 -0.168665)
(0.135348 0.617303 -0.173071)
(0.133023 0.620617 -0.175748)
(0.132856 0.621571 -0.169596)
(0.146081 0.653467 -0.176061)
(0.158159 0.710836 -0.192005)
(0.128637 0.610818 -0.166576)
(0.120954 0.562525 -0.165787)
(0.152775 0.675333 -0.190364)
(0.151896 0.688484 -0.191942)
(0.145373 0.624147 -0.169887)
(0.154281 0.695081 -0.200172)
(0.144944 0.63762 -0.174862)
(0.145778 0.647724 -0.181772)
(0.140883 0.667161 -0.190483)
(0.1229 0.576224 -0.164516)
(0.1471 0.620734 -0.161775)
(0.132779 0.610025 -0.162638)
(0.130307 0.613207 -0.17213)
(0.15021 0.615732 -0.173657)
(0.152845 0.644253 -0.189239)
(0.121545 0.552614 -0.156825)
(0.139326 0.637721 -0.185446)
(0.134089 0.611386 -0.160657)
(0.132067 0.603406 -0.169162)
(0.144847 0.663366 -0.183827)
(0.139719 0.627704 -0.181403)
(0.145905 0.691688 -0.188512)
(0.137501 0.594968 -0.165534)
(0.16273 0.723258 -0.198023)
(0.152575 0.676743 -0.194135)
(0.141942 0.622089 -0.178407)
(0.154062 0.674348 -0.175927)
(0.122229 0.554145 -0.15507)
(0.123833 0.55666 -0.157304)
(0.14028 0.603779 -0.160647)
(0.14283 0.614135 -0.167942)
(0.159184 0.695367 -0.20105)
(0.107496 0.529316 -0.146616)
(0.131879 0.568772 -0.160545)
(0.115313 0.560278 -0.161859)
(0.155677 0.627131 -0.168093)
(0.148931 0.64675 -0.179398)
(0.149025 0.66788 -0.186628)
(0.170034 0.763958 -0.205709)
(0.141616 0.648793 -0.184872)
(0.165434 0.755766 -0.208544)
(0.136611 0.614443 -0.168559)
(0.153036 0.678523 -0.188752)
(0.145547 0.677416 -0.189482)
(0.153534 0.700161 -0.192768)
(0.128027 0.566431 -0.168092)
(0.119816 0.543273 -0.154659)
(0.14562 0.655041 -0.173882)
(0.159984 0.743214 -0.199708)
(0.143479 0.618214 -0.162542)
(0.13784 0.604826 -0.167724)
(0.143293 0.603588 -0.167831)
(0.132401 0.557786 -0.158847)
(0.119021 0.551856 -0.153432)
(0.140129 0.590459 -0.171132)
(0.12791 0.577393 -0.163432)
(0.139292 0.657541 -0.1907)
(0.161512 0.729533 -0.2022)
(0.134493 0.612473 -0.163585)
(0.121895 0.558533 -0.156121)
(0.136308 0.645315 -0.169386)
(0.12725 0.56093 -0.161271)
(0.143889 0.653521 -0.186631)
(0.134245 0.570446 -0.167466)
(0.113887 0.535921 -0.150808)
(0.154251 0.729615 -0.204843)
(0.143643 0.661467 -0.18331)
(0.128135 0.594587 -0.159135)
(0.135259 0.59573 -0.161392)
(0.13203 0.582145 -0.163095)
(0.141018 0.617589 -0.161766)
(0.156926 0.704632 -0.19524)
(0.166428 0.739275 -0.198704)
(0.132482 0.592578 -0.163748)
(0.113046 0.53228 -0.147387)
(0.122458 0.535515 -0.143054)
(0.150179 0.676949 -0.190331)
(0.143726 0.649844 -0.178793)
(0.142065 0.623884 -0.170233)
(0.164075 0.719221 -0.189149)
(0.158452 0.699286 -0.189427)
(0.156912 0.669733 -0.1905)
(0.149865 0.687722 -0.18234)
(0.138746 0.591904 -0.160217)
(0.129285 0.640304 -0.172423)
(0.14235 0.616891 -0.169448)
(0.160568 0.710418 -0.194123)
(0.13807 0.622752 -0.173383)
(0.146237 0.642607 -0.184381)
(0.147589 0.64237 -0.174821)
(0.150804 0.682394 -0.190281)
(0.140097 0.616074 -0.171616)
(0.112494 0.53057 -0.148814)
(0.122046 0.570399 -0.156726)
(0.159002 0.675419 -0.184141)
(0.173674 0.778161 -0.218628)
(0.132525 0.59203 -0.167743)
(0.205487 0.946902 -0.262329)
(0.177684 0.790985 -0.215658)
(0.209417 0.942177 -0.257697)
(0.209558 0.946921 -0.253804)
(0.157187 0.709455 -0.197684)
(0.157335 0.737734 -0.208603)
(0.16044 0.702199 -0.190535)
(0.216721 0.954877 -0.260829)
(0.198611 0.864729 -0.240242)
(0.211007 0.982002 -0.264514)
(0.17829 0.800793 -0.219901)
(0.174627 0.827709 -0.228839)
(0.212217 0.97538 -0.262717)
(0.18924 0.847007 -0.227691)
(0.220225 1.01634 -0.272049)
(0.217357 0.99459 -0.269592)
(0.153372 0.645513 -0.18177)
(0.214508 0.972907 -0.260514)
(0.157057 0.702527 -0.190814)
(0.186329 0.821751 -0.228245)
(0.14613 0.629155 -0.173046)
(0.148873 0.697534 -0.20405)
(0.163623 0.73629 -0.200117)
(0.187733 0.845059 -0.234537)
(0.149817 0.731373 -0.20499)
(0.181988 0.83183 -0.225971)
(0.193311 0.879768 -0.241766)
(0.203698 0.938772 -0.254352)
(0.183271 0.862905 -0.228936)
(0.214585 0.990909 -0.266379)
(0.129117 0.553765 -0.15493)
(0.163921 0.775575 -0.20711)
(0.163804 0.734713 -0.201318)
(0.166443 0.762107 -0.218097)
(0.189492 0.877343 -0.241993)
(0.139937 0.672714 -0.181591)
(0.157788 0.7379 -0.204203)
(0.128747 0.616591 -0.173526)
(0.183256 0.855496 -0.2275)
(0.165305 0.775931 -0.210332)
(0.118533 0.556227 -0.14802)
(0.152436 0.663512 -0.183573)
(0.136771 0.613707 -0.168185)
(0.129749 0.570141 -0.162679)
(0.167225 0.725126 -0.201606)
(0.157053 0.706664 -0.194121)
(0.222506 1.01414 -0.272933)
(0.182178 0.806096 -0.222421)
(0.118907 0.531147 -0.151521)
(0.139578 0.622792 -0.166861)
(0.185889 0.84599 -0.238458)
(0.144904 0.655293 -0.175634)
(0.214624 0.989633 -0.269505)
(0.185135 0.853186 -0.235929)
(0.188916 0.860894 -0.234479)
(0.169398 0.748553 -0.201749)
(0.218358 0.997733 -0.272606)
(0.168816 0.73687 -0.202127)
(0.211611 0.93499 -0.258491)
(0.171247 0.767332 -0.212469)
(0.222011 1.01901 -0.274555)
(0.206945 0.931626 -0.257636)
(0.213852 0.979979 -0.264789)
(0.208264 0.944718 -0.253457)
(0.219612 1.00272 -0.274483)
(0.157642 0.699273 -0.196379)
(0.130012 0.568581 -0.156449)
(0.128929 0.536808 -0.152788)
(0.194877 0.857386 -0.238288)
(0.152511 0.693374 -0.196136)
(0.215949 0.967268 -0.259401)
(0.143182 0.656987 -0.175382)
(0.143942 0.682753 -0.191706)
(0.180684 0.817059 -0.224025)
(0.168341 0.764221 -0.206601)
(0.121412 0.585287 -0.163486)
(0.132696 0.597343 -0.163447)
(0.145485 0.665639 -0.181606)
(0.14908 0.670941 -0.183135)
(0.149726 0.671582 -0.18601)
(0.154674 0.712191 -0.18895)
(0.165279 0.696029 -0.194392)
(0.19805 0.91479 -0.253023)
(0.132751 0.637936 -0.172151)
(0.176611 0.805344 -0.219853)
(0.188713 0.863356 -0.230722)
(0.148188 0.673 -0.184124)
(0.130792 0.577316 -0.144818)
(0.18523 0.819657 -0.223349)
(0.196674 0.884172 -0.244501)
(0.138943 0.657423 -0.18339)
(0.15157 0.668987 -0.188062)
(0.185556 0.816769 -0.225041)
(0.202837 0.90876 -0.244684)
(0.217251 0.997236 -0.271067)
(0.20407 0.895211 -0.245935)
(0.201388 0.877431 -0.243251)
(0.217151 1.00044 -0.271049)
(0.196718 0.885018 -0.243026)
(0.189473 0.851941 -0.240018)
(0.2163 0.998016 -0.270434)
(0.209062 0.922153 -0.254033)
(0.215478 0.986536 -0.267921)
(0.183704 0.869636 -0.239867)
(0.219994 1.02063 -0.274595)
(0.185485 0.807733 -0.227975)
(0.196331 0.898872 -0.249022)
(0.218507 1.01136 -0.27256)
(0.216595 0.992948 -0.272911)
(0.173095 0.773162 -0.213024)
(0.188035 0.867655 -0.241223)
(0.21061 0.960909 -0.263268)
(0.185654 0.842034 -0.2288)
(0.164482 0.75982 -0.211285)
(0.218021 1.01399 -0.274255)
(0.219783 1.01626 -0.272452)
(0.212806 0.95175 -0.260218)
(0.184859 0.840987 -0.228977)
(0.21908 0.997132 -0.270993)
(0.223356 1.02238 -0.275991)
(0.212514 0.953642 -0.260362)
(0.217007 0.99403 -0.267855)
(0.211523 0.950845 -0.258161)
(0.203016 0.935721 -0.257438)
(0.218625 1.00486 -0.271877)
(0.219984 1.01843 -0.274478)
(0.219235 1.01455 -0.274102)
(0.216557 1.00163 -0.270619)
(0.221512 1.02616 -0.275372)
(0.130402 0.591925 -0.163731)
(0.147293 0.608334 -0.167961)
(0.126958 0.517656 -0.133652)
(0.191443 0.867265 -0.232934)
(0.198666 0.880726 -0.244726)
(0.210351 0.969452 -0.261458)
(0.19876 0.886946 -0.238934)
(0.170006 0.776475 -0.208374)
(0.21807 1.00048 -0.26859)
(0.135355 0.56512 -0.159287)
(0.15885 0.694468 -0.195185)
(0.181635 0.799741 -0.223201)
(0.146131 0.622675 -0.165515)
(0.198015 0.905168 -0.252524)
(0.187344 0.825783 -0.224698)
(0.120767 0.521957 -0.143706)
(0.174819 0.762631 -0.219946)
(0.219389 1.01511 -0.272148)
(0.204308 0.95397 -0.263376)
(0.218515 1.00295 -0.27002)
(0.223466 1.02803 -0.275648)
(0.213339 0.962728 -0.267169)
(0.145307 0.671012 -0.175204)
(0.124695 0.598662 -0.162146)
(0.190446 0.865707 -0.235344)
(0.19149 0.864854 -0.233923)
(0.221953 1.02142 -0.273693)
(0.217887 1.0074 -0.269888)
(0.198727 0.920506 -0.248418)
(0.211567 0.970207 -0.261485)
(0.220715 1.02139 -0.274207)
(0.171888 0.766218 -0.212775)
(0.153144 0.667167 -0.18881)
(0.17936 0.796658 -0.215635)
(0.141313 0.627456 -0.163303)
(0.145285 0.641066 -0.177665)
(0.179769 0.795918 -0.21165)
(0.209177 0.944969 -0.259059)
(0.204377 0.9413 -0.253215)
(0.188231 0.83861 -0.227213)
(0.214899 0.988554 -0.265746)
(0.219407 1.0079 -0.270837)
(0.16962 0.79817 -0.210965)
(0.168713 0.759255 -0.210986)
(0.133191 0.656878 -0.188381)
(0.187674 0.814989 -0.220121)
(0.144498 0.627952 -0.182191)
(0.167944 0.773292 -0.214594)
(0.144881 0.634056 -0.18632)
(0.153432 0.702315 -0.20085)
(0.124578 0.590568 -0.1708)
(0.133276 0.563818 -0.157837)
(0.160185 0.737706 -0.198709)
(0.201001 0.920361 -0.249247)
(0.186556 0.847148 -0.234851)
(0.182652 0.834314 -0.22425)
(0.166702 0.772304 -0.209876)
(0.180355 0.78206 -0.21616)
(0.217061 0.993666 -0.26936)
(0.186319 0.829447 -0.231176)
(0.213849 0.968379 -0.263304)
(0.209534 0.950497 -0.258484)
(0.141305 0.677841 -0.183293)
(0.144553 0.636804 -0.170061)
(0.175613 0.77906 -0.211698)
(0.201354 0.898293 -0.250085)
(0.209055 0.955309 -0.262263)
(0.16951 0.789364 -0.219721)
(0.173205 0.769704 -0.215844)
(0.1556 0.690789 -0.193965)
(0.184443 0.853203 -0.236237)
(0.117326 0.533683 -0.141092)
(0.122963 0.567899 -0.157957)
(0.13062 0.605616 -0.165117)
(0.137239 0.629061 -0.178668)
(0.154291 0.673192 -0.186037)
(0.138598 0.603019 -0.161795)
(0.152548 0.662988 -0.180795)
(0.123674 0.55784 -0.15344)
(0.130332 0.614596 -0.169277)
(0.210137 0.982693 -0.269451)
(0.195218 0.893815 -0.250468)
(0.200638 0.930278 -0.257963)
(0.180487 0.813677 -0.232492)
(0.203614 0.913565 -0.249537)
(0.194489 0.893289 -0.241995)
(0.190496 0.880744 -0.244571)
(0.221238 1.01025 -0.274886)
(0.207073 0.921599 -0.259882)
(0.205386 0.918502 -0.253937)
(0.217279 0.98982 -0.269315)
(0.214847 0.97474 -0.266201)
(0.206534 0.930433 -0.256657)
(0.156825 0.673887 -0.191308)
(0.126996 0.562607 -0.14807)
(0.147967 0.665118 -0.17803)
(0.214323 0.980315 -0.264799)
(0.171891 0.754425 -0.209594)
(0.208313 0.95326 -0.260879)
(0.181694 0.832968 -0.224992)
(0.205585 0.962847 -0.262302)
(0.200438 0.897851 -0.246035)
(0.188919 0.867689 -0.239695)
(0.134475 0.62576 -0.176439)
(0.146691 0.677605 -0.182308)
(0.147005 0.679081 -0.191063)
(0.14492 0.659817 -0.180683)
(0.119612 0.55432 -0.14935)
(0.172199 0.795743 -0.21881)
(0.160192 0.721637 -0.201489)
(0.151053 0.693712 -0.191867)
(0.138982 0.625891 -0.167256)
(0.164529 0.715868 -0.191019)
(0.153254 0.717922 -0.191089)
(0.156522 0.693452 -0.19376)
(0.178698 0.786872 -0.211402)
(0.15438 0.695403 -0.192074)
(0.181023 0.762469 -0.213594)
(0.165156 0.742859 -0.200633)
(0.208288 0.912197 -0.246472)
(0.209705 0.927599 -0.25262)
(0.178895 0.788265 -0.214484)
(0.174286 0.766417 -0.219595)
(0.208795 0.958495 -0.262555)
(0.162441 0.717991 -0.198446)
(0.200027 0.907894 -0.250804)
(0.184193 0.836518 -0.232116)
(0.199192 0.893295 -0.24716)
(0.189169 0.87398 -0.241915)
(0.203536 0.9448 -0.253891)
(0.219976 1.01778 -0.273002)
(0.204186 0.937887 -0.251513)
(0.21789 1.0046 -0.270033)
(0.211328 0.972064 -0.261641)
(0.21502 0.992686 -0.268113)
(0.216961 0.997384 -0.266688)
(0.183816 0.836756 -0.225802)
(0.208589 0.93992 -0.256176)
(0.161712 0.757419 -0.207939)
(0.196764 0.89592 -0.241754)
(0.189589 0.865669 -0.239381)
(0.189786 0.875713 -0.244472)
(0.188371 0.848645 -0.234313)
(0.163251 0.725162 -0.200464)
(0.209765 0.957392 -0.259338)
(0.191327 0.866942 -0.236059)
(0.186281 0.80708 -0.222291)
(0.185371 0.809589 -0.22331)
(0.185217 0.845955 -0.233808)
(0.211869 0.951521 -0.260588)
(0.219885 1.01549 -0.272971)
(0.208258 0.930992 -0.253979)
(0.219024 1.00306 -0.269721)
(0.216558 0.992566 -0.266523)
(0.217637 1.00127 -0.26789)
(0.217851 0.995333 -0.268262)
(0.218636 0.981753 -0.263333)
(0.187899 0.821589 -0.221768)
(0.219748 0.975939 -0.265542)
(0.213979 0.9476 -0.257572)
(0.214604 0.979065 -0.263024)
(0.208027 0.927554 -0.25243)
(0.209915 0.944341 -0.254309)
(0.1972 0.882895 -0.235868)
(0.205943 0.93576 -0.251184)
(0.19945 0.902849 -0.244146)
(0.200492 0.895029 -0.24252)
(0.212712 0.962342 -0.263775)
(0.209592 0.94225 -0.254153)
(0.210174 0.942697 -0.255828)
(0.211605 0.958145 -0.258775)
(0.219969 1.00282 -0.2723)
(0.219251 1.00587 -0.271021)
(0.210695 0.946548 -0.257546)
(0.215772 1.00628 -0.272997)
(0.220084 1.01841 -0.27386)
(0.207905 0.972753 -0.265601)
(0.219261 1.00884 -0.27371)
(0.219752 1.01695 -0.274611)
(0.220415 1.01442 -0.273972)
(0.219751 1.01172 -0.274224)
(0.198243 0.881944 -0.240465)
(0.158792 0.697631 -0.188949)
(0.192837 0.861568 -0.234622)
(0.171758 0.779655 -0.210187)
(0.154077 0.660824 -0.173845)
(0.158241 0.696932 -0.192054)
(0.136376 0.563038 -0.144322)
(0.136143 0.602892 -0.155021)
(0.144573 0.65392 -0.175183)
(0.136481 0.681398 -0.188589)
(0.13018 0.602953 -0.164083)
(0.20215 0.921885 -0.244888)
(0.131872 0.558198 -0.13882)
(0.19922 0.904789 -0.240547)
(0.193492 0.855073 -0.232332)
(0.205498 0.946289 -0.254377)
(0.206844 0.939982 -0.254173)
(0.186576 0.826647 -0.224664)
(0.143254 0.668347 -0.186069)
(0.161158 0.701305 -0.195373)
(0.146384 0.652428 -0.179512)
(0.141638 0.649397 -0.180968)
(0.146915 0.682202 -0.19128)
(0.141191 0.651692 -0.180742)
(0.155321 0.68398 -0.192355)
(0.150231 0.651419 -0.18242)
(0.148337 0.6434 -0.185571)
(0.144232 0.621888 -0.183119)
(0.132691 0.599378 -0.174297)
(0.128323 0.575112 -0.151751)
(0.187742 0.81705 -0.225584)
(0.133496 0.593964 -0.168042)
(0.153352 0.658762 -0.189095)
(0.129345 0.575826 -0.159519)
(0.149729 0.654997 -0.187438)
(0.14011 0.650909 -0.183546)
(0.151394 0.722438 -0.200237)
(0.212982 0.966393 -0.259032)
(0.175096 0.793418 -0.211402)
(0.192482 0.830894 -0.225015)
(0.179469 0.81708 -0.227366)
(0.209462 0.922287 -0.252215)
(0.205787 0.909844 -0.245028)
(0.190399 0.855357 -0.235547)
(0.157246 0.726683 -0.197408)
(0.204285 0.915697 -0.251987)
(0.177959 0.789351 -0.221226)
(0.184039 0.850613 -0.236276)
(0.181569 0.815251 -0.227143)
(0.188095 0.843722 -0.231273)
(0.152976 0.68497 -0.195691)
(0.146282 0.718187 -0.202099)
(0.158722 0.714913 -0.195226)
(0.1536 0.684281 -0.188888)
(0.167644 0.742879 -0.202823)
(0.203239 0.922384 -0.254864)
(0.18224 0.767958 -0.218922)
(0.177788 0.802217 -0.210971)
(0.183218 0.848951 -0.237767)
(0.143214 0.64757 -0.179484)
(0.122921 0.587608 -0.16053)
(0.15811 0.701291 -0.192905)
(0.162928 0.700187 -0.195115)
(0.146935 0.648665 -0.175861)
(0.219566 1.01092 -0.27253)
(0.204674 0.940516 -0.256203)
(0.203192 0.902352 -0.247804)
(0.211942 0.963807 -0.262603)
(0.21834 1.0002 -0.270263)
(0.217256 0.990468 -0.26888)
(0.214318 0.977265 -0.264889)
(0.186171 0.860953 -0.231794)
(0.191942 0.88406 -0.241694)
(0.218813 1.00881 -0.27174)
(0.203932 0.936165 -0.255269)
(0.210726 0.957299 -0.259594)
(0.210154 0.954672 -0.257149)
(0.208465 0.957864 -0.259642)
(0.18627 0.852916 -0.231659)
(0.168601 0.798412 -0.219297)
(0.183585 0.834319 -0.226524)
(0.160702 0.755272 -0.209733)
(0.13758 0.64454 -0.170743)
(0.192761 0.882655 -0.239823)
(0.202892 0.922329 -0.250609)
(0.186866 0.849846 -0.233023)
(0.183367 0.833565 -0.22936)
(0.170398 0.777973 -0.210275)
(0.172042 0.753449 -0.204093)
(0.177171 0.829262 -0.22245)
(0.218936 1.00904 -0.271419)
(0.191732 0.879019 -0.238731)
(0.204122 0.932975 -0.253159)
(0.207788 0.955794 -0.260857)
(0.214645 0.984663 -0.266723)
(0.195676 0.913726 -0.248967)
(0.151637 0.711565 -0.198527)
(0.139215 0.621999 -0.172759)
(0.130339 0.57352 -0.167681)
(0.13649 0.615272 -0.175386)
(0.1362 0.596622 -0.161147)
(0.16332 0.69883 -0.187336)
(0.154176 0.694068 -0.188194)
(0.148713 0.726725 -0.197668)
(0.140274 0.653466 -0.184006)
(0.127458 0.603592 -0.171737)
(0.206866 0.944657 -0.255016)
(0.203909 0.940412 -0.254877)
(0.212341 0.975785 -0.262339)
(0.194921 0.915078 -0.247426)
(0.190034 0.868179 -0.234075)
(0.177586 0.816965 -0.223229)
(0.2034 0.933415 -0.251511)
(0.18459 0.834991 -0.231976)
(0.192885 0.878808 -0.238291)
(0.155949 0.72248 -0.202698)
(0.171166 0.796178 -0.217806)
(0.172519 0.813832 -0.227113)
(0.146745 0.671848 -0.18579)
(0.175416 0.802987 -0.223982)
(0.144671 0.665517 -0.182493)
(0.15685 0.698475 -0.194664)
(0.174671 0.801923 -0.220863)
(0.20561 0.946175 -0.258371)
(0.196145 0.895828 -0.243686)
(0.174436 0.805265 -0.227247)
(0.194823 0.907025 -0.243346)