/*--------------------------------*- C++ -*----------------------------------*\
| =========                 |                                                 |
| \\      /  F ield         | OpenFOAM: The Open Source CFD Toolbox           |
|  \\    /   O peration     | Version:  v1612+                                |
|   \\  /    A nd           | Web:      www.OpenFOAM.com                      |
|    \\/     M anipulation  |                                                 |
\*---------------------------------------------------------------------------*/
FoamFile
{
    version     2.0;
    format      ascii;
    class       volVectorField;
    location    "50";
    object      wallShearStress;
}
// * * * * * * * * * * * * * * * * * * * * * * * * * * * * * * * * * * * * * //

dimensions      [0 2 -2 0 0 0 0];

internalField   uniform (0 0 0);

boundaryField
{
    WALL
    {
        type            calculated;
        value           nonuniform List<vector> 
1697
(
(0.0105273 -0.0156438 -0.00309702)
(0.0108035 -0.015254 -0.0029333)
(0.00605588 -0.00879812 -0.0027185)
(0.0056844 -0.00777594 -0.00132749)
(-0.00281302 -0.0197749 -0.0063121)
(-0.00349876 -0.0203742 -0.00882779)
(0.0111362 -0.0192759 -0.00234924)
(0.0112243 -0.0183832 -0.00444123)
(-0.00160007 -0.018902 0.000467959)
(0.000725152 -0.0175101 0.00178798)
(-0.00453419 -0.0186762 0.00286669)
(-0.00293793 -0.0219055 0.00272883)
(0.012298 -0.0173685 0.00295748)
(0.0122488 -0.0177657 0.00425127)
(-0.00131175 -0.0174539 -0.00742198)
(-0.00198053 -0.0183165 -0.00696812)
(-0.00395291 -0.019678 0.00117292)
(-0.00357203 -0.0197355 0.000880125)
(0.00611457 -0.0237319 -0.00592745)
(0.00728112 -0.0225974 -0.00655504)
(0.010478 -0.0173664 -0.00610413)
(0.0105368 -0.0168504 -0.00627979)
(0.00542977 -0.00845803 0.00313787)
(0.00512362 -0.00810644 0.00277068)
(0.00617438 -0.00781852 0.00120913)
(0.00576353 -0.00739822 0.00208751)
(0.00440763 -0.00781577 -0.000719014)
(0.00422059 -0.00875591 -0.000126676)
(0.00250699 -0.0197753 -8.73112e-05)
(0.000709076 -0.0178952 -0.000696769)
(-0.00264753 -0.0182496 -0.00265058)
(-0.00203204 -0.0219903 -0.00417035)
(0.0056068 -0.00780122 0.00048785)
(0.00526166 -0.00739564 1.50055e-05)
(0.0100808 -0.0170105 0.00288135)
(0.0103742 -0.017204 0.00342064)
(-0.00536268 -0.0186017 -0.00608308)
(-0.00484771 -0.0200402 -0.00473565)
(0.00595444 -0.0164636 0.00173259)
(0.00799131 -0.0168663 0.000193168)
(0.00748076 -0.0165063 0.00146686)
(0.00450974 -0.0161523 0.0022059)
(0.00383368 -0.0166772 0.00271047)
(0.00484471 -0.0165842 0.00282964)
(0.0064921 -0.0169189 0.00216771)
(0.00802837 -0.0163501 0.000790153)
(-0.00255565 -0.0178472 -0.00413075)
(-0.00288288 -0.0179212 -0.00466165)
(0.000321496 -0.0161685 -0.00476599)
(-0.000501305 -0.0173741 -0.00579723)
(-0.00118655 -0.0165222 -0.00415681)
(-0.00161343 -0.018725 -0.00521802)
(0.000903813 -0.0179754 0.0088819)
(0.00138976 -0.0180764 0.00959339)
(0.00309698 -0.0222284 -0.00743653)
(0.00228663 -0.0230363 -0.00521469)
(0.00354639 -0.0218504 -0.00642642)
(0.00227012 -0.0221535 -0.00563651)
(0.00227844 -0.0223372 -0.00716344)
(0.00269223 -0.0220679 -0.00610032)
(0.0133614 -0.0203667 -0.000880043)
(0.0117179 -0.0180427 -0.00175304)
(0.0116493 -0.0182794 -0.00315577)
(0.0126006 -0.021375 -0.00296445)
(0.0132057 -0.0200302 -0.00202768)
(0.0128996 -0.0220502 -0.00257171)
(0.000492505 -0.0188278 0.00532997)
(0.000938013 -0.0169775 0.00508377)
(-0.00081622 -0.0182622 0.00440025)
(-0.00143776 -0.0184095 0.00374182)
(-0.000221404 -0.0167333 0.00405857)
(-0.00158743 -0.0174644 0.0036597)
(0.00405658 -0.0205333 -0.00990207)
(0.00585913 -0.0189806 -0.0104676)
(0.00588319 -0.0192991 -0.00976568)
(0.00408206 -0.0195308 -0.00988177)
(0.00480661 -0.0191879 -0.0106682)
(0.00477673 -0.019119 -0.00988917)
(0.0111258 -0.0166647 -0.00436588)
(0.010497 -0.0146719 -0.00425837)
(0.0102716 -0.0146695 -0.00483752)
(0.0108986 -0.0164026 -0.00652296)
(0.0107618 -0.0156839 -0.00508159)
(0.0104204 -0.0158713 -0.00222159)
(0.0100175 -0.0151708 -0.00729447)
(0.0101572 -0.0154891 -0.00595026)
(-0.000145775 -0.0187352 -0.000264403)
(-8.05158e-05 -0.0173021 0.00138995)
(-0.00073036 -0.0171545 0.000643103)
(-0.000284965 -0.0183539 0.000312501)
(-0.000715199 -0.0198987 -0.000156308)
(0.000164908 -0.0161835 0.000893006)
(0.00500007 -0.0079465 -0.00428274)
(0.00491703 -0.00821335 -0.00540236)
(0.00522311 -0.00917869 -0.00707467)
(0.00494442 -0.00849455 -0.00646476)
(0.00544452 -0.00869802 -0.00548817)
(0.00493077 -0.00745053 -0.00414601)
(-0.00450446 -0.0204858 -0.00557863)
(-0.00435362 -0.0196461 -0.00697461)
(-0.00413428 -0.0198258 -0.00788451)
(-0.00377327 -0.0210475 -0.0065174)
(-0.00450397 -0.0194005 -0.00845887)
(0.00469084 -0.00741154 -0.00280588)
(0.00436074 -0.00722384 -0.00198444)
(0.00467771 -0.00705545 -0.00305832)
(0.00410949 -0.00726958 -0.00194598)
(0.00436871 -0.00708944 -0.00245692)
(0.00430086 -0.00709427 -0.00211161)
(0.00436285 -0.00930797 0.0025153)
(0.00336789 -0.0105203 0.00282615)
(0.00368558 -0.0106664 0.0032108)
(0.00430282 -0.00903102 0.00223993)
(0.00386676 -0.00948928 0.0028562)
(0.00353602 -0.0104449 0.00268523)
(0.00517711 -0.018197 0.00989874)
(0.00588684 -0.0173001 0.00877496)
(0.00496887 -0.018073 0.00962809)
(0.00412348 -0.0183511 0.0100255)
(0.00770253 -0.0183938 0.00970764)
(0.00796873 -0.0177293 0.00903548)
(0.0134283 -0.0192659 0.00138174)
(0.0117368 -0.0160759 0.000296921)
(0.012461 -0.0174115 0.00286556)
(0.0131747 -0.0183766 -0.000307957)
(0.0122797 -0.0165417 0.000815171)
(0.00221117 -0.019369 0.00642075)
(0.00229126 -0.0197932 0.00664937)
(0.000555151 -0.0210122 0.00616122)
(0.000100998 -0.0189051 0.00622304)
(-0.000157818 -0.020259 0.00609629)
(0.0018786 -0.0178821 0.00869788)
(0.000890286 -0.0192814 0.00846101)
(0.00187469 -0.0183085 0.00854844)
(-0.000209567 -0.019474 0.00783593)
(0.00075911 -0.018886 0.00794271)
(0.0029465 -0.0183466 0.00885885)
(0.0107486 -0.0190732 -0.00483344)
(0.0110622 -0.0178027 -0.00295439)
(0.0115345 -0.0199981 -0.00307822)
(0.0117849 -0.018791 -0.00286823)
(0.0112302 -0.0191649 -0.0049314)
(0.0114758 -0.0179076 -0.00195842)
(0.0109951 -0.0167884 -0.00148144)
(0.00991453 -0.0158123 6.57079e-05)
(0.00973673 -0.0159162 0.000470103)
(0.00999946 -0.0150922 -0.000933376)
(0.0100737 -0.0149314 -0.00189578)
(0.0108267 -0.0161687 -0.00233477)
(0.00373174 -0.0164671 0.00532571)
(0.00382719 -0.0158238 0.00393017)
(0.00190392 -0.0169514 0.00438733)
(0.00269275 -0.0154774 0.00496607)
(0.00440671 -0.0147007 0.00411084)
(0.00133921 -0.0159114 0.00440668)
(0.00929467 -0.0168408 0.00301233)
(0.00798975 -0.0155081 0.00296455)
(0.00788439 -0.0162137 0.00375041)
(0.00789401 -0.017047 0.00422321)
(0.00681405 -0.0171795 0.00465542)
(0.00932077 -0.016471 0.00244609)
(0.0119308 -0.0181316 -0.00073508)
(0.011301 -0.0176185 0.00143694)
(0.0119465 -0.0182324 0.000586398)
(0.0112119 -0.0169611 0.00171731)
(0.0121851 -0.0186827 -3.47138e-06)
(0.00661301 -0.0175805 0.00659791)
(0.00532231 -0.0181046 0.00697367)
(0.00357504 -0.0181824 0.0070006)
(0.00439298 -0.0176013 0.00725124)
(0.00586972 -0.0172058 0.00683035)
(0.00408 -0.0179588 0.00696275)
(0.0101626 -0.0160642 0.00345158)
(0.0097502 -0.0168219 0.00504085)
(0.00785477 -0.0163233 0.00600161)
(0.00858732 -0.0165046 0.00524699)
(0.00996463 -0.0167997 0.00393112)
(0.00884773 -0.015861 0.00573428)
(0.00465953 -0.017387 -0.0123273)
(0.00401267 -0.018527 -0.0121884)
(0.00410554 -0.0184634 -0.0124412)
(0.0023751 -0.0176941 -0.0123811)
(0.0046988 -0.0173172 -0.0125636)
(0.002767 -0.0181012 -0.0128408)
(0.00214257 -0.0188101 -0.0119318)
(0.000663825 -0.0180866 -0.01095)
(0.00193565 -0.0192092 -0.0117014)
(0.000176745 -0.0187584 -0.0102763)
(0.00138868 -0.018741 -0.0112823)
(0.000484183 -0.0180104 -0.0101923)
(-0.00025452 -0.0183739 -0.00745218)
(0.00035429 -0.0197354 -0.00869863)
(-0.000209974 -0.0191081 -0.00630562)
(-0.000480837 -0.0186517 -0.00701035)
(-0.000677171 -0.0182401 -0.00853192)
(0.000432358 -0.0189605 -0.00919123)
(0.00565915 -0.00788196 -0.00164379)
(0.00584512 -0.00872394 -0.00251297)
(0.00572089 -0.00789382 -0.00195486)
(0.00558327 -0.00763814 -0.000515192)
(0.0059905 -0.00815403 -0.00116906)
(0.00544171 -0.00769136 -0.000941642)
(0.00550484 -0.00778943 -0.000240377)
(0.00556844 -0.00804635 -0.00167916)
(0.00580507 -0.00861903 -0.00314681)
(0.00626259 -0.0098212 -0.00394978)
(0.00595177 -0.00954085 -0.00385668)
(0.00595296 -0.00862057 -0.00231191)
(0.00628146 -0.00886035 -0.00244803)
(0.00582533 -0.00888032 -0.00300352)
(0.00172169 -0.0147967 -0.00858021)
(2.6497e-05 -0.0166535 -0.0088009)
(0.00228412 -0.0148658 -0.00807197)
(0.00110224 -0.015025 -0.00833578)
(0.000263832 -0.0156728 -0.00812032)
(0.000633366 -0.0158825 -0.00927989)
(0.00592133 -0.0100415 -0.0041989)
(0.00517935 -0.00988944 -0.00481565)
(0.00514303 -0.0107706 -0.00532697)
(0.0053337 -0.00974836 -0.00463067)
(0.0057407 -0.00960343 -0.00394494)
(0.00533803 -0.011292 -0.00560068)
(0.00467685 -0.00979565 0.00359052)
(0.00485982 -0.00953583 0.00402685)
(0.0055012 -0.00900945 0.00281842)
(0.00461856 -0.0103329 0.00438816)
(0.00483224 -0.0087598 0.00372376)
(0.00569226 -0.0078348 0.00130001)
(0.00553141 -0.00796646 0.00179001)
(0.00551212 -0.00795759 0.00177403)
(0.00527834 -0.00731545 0.00109224)
(0.00515972 -0.00754351 0.00130228)
(0.00549023 -0.00845594 0.00242019)
(0.00115889 -0.0156841 0.00275411)
(0.00209672 -0.0132242 0.00247362)
(0.000125971 -0.0155169 0.00217882)
(0.00207224 -0.0128344 0.00291903)
(0.00101597 -0.013549 0.00198951)
(0.0022472 -0.0112664 0.00238938)
(0.00504637 -0.00771336 0.000885385)
(0.0046235 -0.00812288 0.0017333)
(0.0050284 -0.00793097 0.00128009)
(0.00467117 -0.00821573 0.00171752)
(0.00490747 -0.00771588 0.0009348)
(0.00505733 -0.00852682 0.00139773)
(0.00319749 -0.0105032 0.00191175)
(0.00325375 -0.00993164 0.00171529)
(0.00282202 -0.0105887 0.00177103)
(0.00227951 -0.0110478 0.00183714)
(0.00341684 -0.00923762 0.00156949)
(0.00526785 -0.00787837 -0.00146668)
(0.0052392 -0.00798381 -0.000749749)
(0.00560087 -0.00805 -0.00171367)
(0.00540627 -0.00794342 -0.00209952)
(0.00541076 -0.00808896 -0.00226601)
(0.00520872 -0.00755932 -0.00108142)
(0.00573018 -0.00991035 -0.00455662)
(0.00529513 -0.0105785 -0.00583155)
(0.00499943 -0.0101574 -0.00620461)
(0.0053955 -0.00977874 -0.00534463)
(0.00544465 -0.0094787 -0.00433027)
(0.00525593 -0.00974727 -0.00516583)
(0.00449883 -0.00796306 0.000530128)
(0.00443846 -0.00840487 0.000882165)
(0.00367424 -0.00909259 0.0014664)
(0.00384901 -0.00866159 0.00121514)
(0.00446147 -0.00943496 0.000993238)
(0.0043642 -0.00825154 0.000562244)
(0.00485949 -0.00770369 -0.000863662)
(0.00479138 -0.0075868 -0.000507399)
(0.00502456 -0.00772032 -0.000851492)
(0.00480837 -0.00776422 -0.000142884)
(0.00474998 -0.00770161 -0.000128773)
(0.00521195 -0.00810374 -0.000524946)
(-0.00327288 -0.0193674 -0.00797439)
(-0.00374206 -0.019479 -0.00989795)
(-0.00342461 -0.0201788 -0.00707496)
(-0.00284714 -0.0192164 -0.0107214)
(-0.00292309 -0.0191626 -0.0102257)
(-0.00270725 -0.0183868 -0.0114623)
(-0.00260511 -0.0181126 -0.0116088)
(-0.00367169 -0.0191657 -0.00945778)
(-0.00239763 -0.0209985 -0.00802179)
(-0.00257689 -0.0200175 -0.0082769)
(-0.00214975 -0.0202898 -0.00686784)
(-0.00200909 -0.0199694 -0.00547046)
(-0.00224438 -0.0205211 -0.0057166)
(-0.00202764 -0.0202155 -0.00626085)
(-0.00127884 -0.0205644 -0.00364916)
(-0.000498992 -0.0191978 -0.0027116)
(-0.000455915 -0.0219451 -0.00285065)
(-0.00112157 -0.022214 -0.00330681)
(-0.00177652 -0.0223386 -0.00450743)
(-0.000768005 -0.018196 -0.0013189)
(0.00126861 -0.0191453 -0.000280141)
(0.000982059 -0.020223 -0.000461796)
(-0.000375638 -0.022077 -0.00197579)
(0.000402986 -0.0201832 -0.000658227)
(0.000986674 -0.0201295 -0.00165549)
(0.00163797 -0.0201369 -0.00131707)
(0.0037486 -0.0217884 -0.00100912)
(0.00154177 -0.0217481 -0.00179544)
(0.0015716 -0.019045 -0.00111834)
(0.00034524 -0.0226074 -0.00205216)
(0.00388258 -0.0209968 -0.00134024)
(0.00462606 -0.0169912 0.000190007)
(0.00352935 -0.0204245 -7.06933e-05)
(0.00387777 -0.0186801 0.000547593)
(0.00291487 -0.0192667 -0.000147996)
(0.00437586 -0.0181771 -6.81263e-05)
(0.00386218 -0.00734771 -0.00131376)
(0.00366433 -0.00765229 -0.000828248)
(0.0036324 -0.00748476 -0.000802484)
(0.00366679 -0.00703741 -0.00123607)
(0.00345176 -0.00752551 -0.000921457)
(0.0039615 -0.00776168 -0.00103422)
(-0.00096678 -0.0148546 -0.00269418)
(-0.000849078 -0.0151577 -0.00320731)
(-0.000832889 -0.0151566 -0.00357783)
(-0.000975098 -0.0143298 -0.00221124)
(-0.00064982 -0.0134474 -0.00223314)
(-0.00137088 -0.0154259 -0.00416212)
(0.00254585 -0.0118939 -0.0118444)
(0.00215351 -0.01357 -0.0121803)
(0.00363725 -0.0121029 -0.0112765)
(0.00248424 -0.0136276 -0.0121582)
(0.00173079 -0.014218 -0.0127397)
(0.00346996 -0.0125953 -0.0113757)
(0.00449496 -0.010586 -0.00958951)
(0.00492641 -0.00935554 -0.00833663)
(0.00413415 -0.0105513 -0.00975334)
(0.00501597 -0.0109351 -0.00917817)
(0.00478608 -0.0094096 -0.00896175)
(0.00886529 -0.0172924 -0.0117347)
(0.00804629 -0.018661 -0.0127207)
(0.00958448 -0.017995 -0.0107175)
(0.00946446 -0.0168504 -0.0114984)
(0.00814469 -0.0160898 -0.0124467)
(0.00777276 -0.0175372 -0.012904)
(0.0107737 -0.018064 -0.0101227)
(0.0109884 -0.0173148 -0.00882073)
(0.010682 -0.0177776 -0.0075937)
(0.0103081 -0.0179959 -0.00970662)
(0.00996403 -0.0163378 -0.00795423)
(0.0100611 -0.0178711 -0.010271)
(0.0107123 -0.0183888 -0.003842)
(0.0106622 -0.0169514 -0.00527614)
(0.0105906 -0.0190585 -0.00315208)
(0.0113909 -0.0176694 -0.00614918)
(0.0116436 -0.0193125 -0.00438974)
(0.0116617 -0.0187767 -0.00564973)
(0.00639985 -0.0180462 0.000237535)
(0.00899985 -0.017778 -0.00185035)
(0.00832 -0.0188422 -0.000813294)
(0.00672871 -0.0162592 -0.000488297)
(0.00763669 -0.017229 -0.00117484)
(0.00821349 -0.0198066 -0.000182643)
(-0.00513368 -0.0198124 -0.00397677)
(-0.00423899 -0.0217002 -0.00392554)
(-0.00160014 -0.0223207 -0.00238615)
(-0.0031007 -0.0198925 -0.00158108)
(-0.00351209 -0.0207136 -0.00218748)
(0.00415634 -0.00751131 -0.000780269)
(0.00379801 -0.00832089 -0.000375283)
(0.00406858 -0.00824688 -0.000372983)
(0.00419801 -0.0079693 -0.000660585)
(0.00423898 -0.0079842 -0.000668621)
(0.0037169 -0.00933478 0.000113017)
(0.0043143 -0.0078307 -0.00102341)
(0.00455197 -0.00773807 -0.00162724)
(0.0041795 -0.00758966 -0.00129837)
(0.0042704 -0.00747529 -0.00122539)
(0.00432401 -0.00776986 -0.00101587)
(0.00431177 -0.00742469 -0.0017227)
(-0.00346909 -0.0195316 -0.010651)
(-0.00269325 -0.0172527 -0.0125201)
(-0.00238093 -0.0169112 -0.0127914)
(-0.00379242 -0.0187766 -0.0112284)
(-0.00302448 -0.0195421 -0.0119631)
(-0.00343758 -0.0173403 -0.0127555)
(0.00192114 -0.0121676 -0.0120773)
(0.00266245 -0.0119556 -0.0116388)
(0.00118922 -0.0140804 -0.0127187)
(0.00145835 -0.0133758 -0.0121957)
(0.000484321 -0.0140999 -0.0126836)
(0.00294958 -0.0112927 -0.0111963)
(0.00428557 -0.0113948 -0.00773195)
(0.00329092 -0.0120142 -0.00820303)
(0.00398326 -0.0111329 -0.0084788)
(0.00333466 -0.0125665 -0.00959036)
(0.00243925 -0.0127276 -0.00917059)
(0.00203271 -0.0126801 -0.009921)
(-0.000861879 -0.0154692 -0.011786)
(0.00152995 -0.0135955 -0.0112115)
(0.000595794 -0.0142278 -0.0114445)
(-0.000486101 -0.0147369 -0.0123024)
(-0.00146405 -0.0159399 -0.0120977)
(0.000924802 -0.0136161 -0.0114606)
(-0.00101608 -0.0170422 -0.00827592)
(-0.000766472 -0.0169793 -0.00981759)
(-0.00187022 -0.0172842 -0.00936624)
(-0.00247179 -0.0184207 -0.00871728)
(1.92485e-05 -0.0160326 -0.00868894)
(-0.00302136 -0.0175073 -0.00859375)
(0.00529268 -0.00804981 -0.00471623)
(0.00462503 -0.00723401 -0.00280781)
(0.00497856 -0.00754916 -0.00354165)
(0.00504169 -0.00767735 -0.00439445)
(0.00505846 -0.00787217 -0.00355097)
(0.00474249 -0.00765191 -0.00257202)
(0.00375485 -0.0110172 -0.0107617)
(0.00435982 -0.0106107 -0.00938229)
(0.00438731 -0.0108022 -0.0101144)
(0.00217317 -0.013676 0.0045952)
(0.00089761 -0.0152664 0.00380371)
(0.00172686 -0.0151551 0.00462035)
(0.00174289 -0.0141235 0.00478782)
(0.00174803 -0.0141832 0.00425501)
(0.000800245 -0.0168031 0.00412636)
(-0.000245995 -0.0207422 0.00259799)
(-0.000299689 -0.0187096 0.00312772)
(0.000433567 -0.0193764 0.00250961)
(0.00109535 -0.017636 0.0035086)
(0.00100853 -0.0161463 0.00379832)
(-0.000547772 -0.0177587 0.00357585)
(0.00399863 -0.0114259 0.00494109)
(0.00250472 -0.0130664 0.00515243)
(0.00316317 -0.0134232 0.00566004)
(0.00299455 -0.0112882 0.00444703)
(0.0039737 -0.0108168 0.00432452)
(0.00331515 -0.011502 0.00523889)
(0.000995603 -0.0225312 -0.00352326)
(-0.000371043 -0.0215161 -0.00191112)
(0.000131735 -0.0206886 -0.00202816)
(0.00100421 -0.0212687 -0.00380584)
(0.000262984 -0.0204112 -0.00301926)
(-0.000338461 -0.0207102 -0.00298242)
(-0.00111012 -0.0200323 -0.000519467)
(-0.000570359 -0.021768 -0.000300479)
(-0.000305818 -0.0212211 -0.00187596)
(-0.000626369 -0.0201682 -0.00102271)
(-0.000113665 -0.0221821 -0.00157998)
(0.00638086 -0.00808951 0.00078447)
(0.00665108 -0.00876022 0.000154731)
(0.00572765 -0.00752523 0.00127671)
(0.00583733 -0.00772145 0.000678709)
(0.00578291 -0.00763479 9.42112e-05)
(0.00586065 -0.007801 8.10982e-05)
(0.00578342 -0.00765243 0.00123796)
(0.00599054 -0.00795355 0.000677434)
(0.00600854 -0.0082835 -0.000437918)
(0.00593332 -0.00882736 -0.00141575)
(0.00615265 -0.00810101 8.62833e-05)
(0.00583759 -0.00870603 -0.00103959)
(0.0062521 -0.00830427 0.000235507)
(0.0059767 -0.00847528 -0.000415727)
(0.00620987 -0.0109534 -0.00176416)
(0.00575452 -0.00952007 -0.00154672)
(0.00638002 -0.00969636 -0.000954123)
(0.00562166 -0.0104309 -0.00212684)
(0.00620081 -0.0100436 -0.00145227)
(0.0067915 -0.0100548 -0.00108232)
(0.00501576 -0.0109388 -0.00402622)
(0.00447764 -0.0114673 -0.00423821)
(0.00549494 -0.00978606 -0.00233307)
(0.00431289 -0.0111359 -0.00442069)
(0.00518673 -0.0095596 -0.00292773)
(0.00464293 -0.0100443 -0.0033003)
(0.00389882 -0.0126288 -0.0071589)
(0.0023948 -0.0141382 -0.00774056)
(0.00292984 -0.0136856 -0.00786961)
(0.00228833 -0.014196 -0.00783733)
(0.00285941 -0.012456 -0.00738218)
(0.00399991 -0.0121159 -0.00667361)
(0.00255264 -0.0136985 -0.00697234)
(0.00106919 -0.0162247 -0.00694955)
(0.00136575 -0.0162538 -0.00721637)
(0.00329646 -0.0144268 -0.00681172)
(0.00132342 -0.0147892 -0.0077959)
(0.00203894 -0.0147791 -0.00753046)
(-0.000422374 -0.017454 -0.00793773)
(0.000420235 -0.0156707 -0.0078763)
(0.000705103 -0.0156259 -0.0076886)
(-0.000649989 -0.0158683 -0.00764486)
(-0.00203707 -0.0180879 -0.00662903)
(-0.00144614 -0.0173574 -0.00751493)
(-0.000301688 -0.0177737 -0.00963568)
(0.000747898 -0.0180729 -0.0108074)
(8.22262e-05 -0.0185762 -0.00997457)
(0.000218166 -0.0182739 -0.0108331)
(0.000848626 -0.0183669 -0.0117163)
(-0.000531935 -0.0182197 -0.00940171)
(-0.00152608 -0.0162429 -0.00570072)
(-0.0012644 -0.0176057 -0.00855036)
(-0.0012454 -0.0167524 -0.00689907)
(-0.00165506 -0.0166721 -0.00643968)
(-0.00134645 -0.017314 -0.00886817)
(-0.00102406 -0.0181139 -0.00766677)
(0.00984378 -0.0184721 -0.00635719)
(0.00895345 -0.0186423 -0.00658696)
(0.00966097 -0.0194417 -0.00598909)
(0.00826904 -0.018493 -0.0069402)
(0.00825566 -0.0188557 -0.00727529)
(0.00868079 -0.0176774 -0.0105794)
(0.00933253 -0.0172509 -0.00873815)
(0.00765986 -0.0175746 -0.0100458)
(0.00818569 -0.0179704 -0.00854708)
(0.00902366 -0.0161791 -0.00882813)
(0.0095755 -0.0161878 -0.00803634)
(0.00830993 -0.0231936 -0.00655117)
(0.00804916 -0.0223554 -0.00662039)
(0.00991568 -0.021313 -0.00553332)
(0.00865905 -0.0213544 -0.00680817)
(0.00842099 -0.0202458 -0.00629025)
(0.00986799 -0.0214619 -0.00512913)
(0.00260507 -0.0198992 0.000995879)
(0.00207325 -0.020395 0.000419668)
(0.00201699 -0.0198054 0.00115823)
(0.000607933 -0.0208217 7.25968e-05)
(0.00120807 -0.019002 0.000954747)
(0.000523615 -0.0211108 7.64838e-05)
(-0.00374582 -0.0177043 0.000627871)
(-0.00486799 -0.0181875 -0.000839168)
(-0.00121689 -0.018323 0.00147808)
(-0.00216677 -0.0179365 0.00133946)
(-0.0032849 -0.0169775 -0.000457918)
(0.0101606 -0.0189516 -0.0108964)
(0.0112225 -0.0190085 -0.00923732)
(0.00987108 -0.0192013 -0.011441)
(0.010608 -0.0195838 -0.0108386)
(0.0111396 -0.0189281 -0.00853775)
(0.00996004 -0.0165271 -0.00911865)
(0.0114206 -0.017359 -0.00412837)
(0.0113708 -0.0168901 -0.00726712)
(0.0111842 -0.016702 -0.00630438)
(0.0111873 -0.0161744 -0.00502222)
(0.011647 -0.0173661 -0.00475736)
(0.0113336 -0.0170267 -0.00682266)
(0.00810668 -0.0203574 0.000144602)
(0.00867809 -0.0194275 -0.000485464)
(0.0108556 -0.0185065 -0.00329318)
(0.0099095 -0.019128 -0.00142029)
(0.00934808 -0.0198354 -0.000609811)
(0.00938355 -0.0198478 -0.00111815)
(0.0111609 -0.0199082 -0.00349884)
(0.0100627 -0.0193591 -0.00171628)
(0.00850782 -0.0224358 -0.00515009)
(0.00897383 -0.0210016 -0.00517569)
(0.00881471 -0.0236782 -0.00582367)
(0.0110426 -0.0224414 -0.00432976)
(0.00305139 -0.0197741 -0.00865067)
(0.00463595 -0.0209449 -0.0087884)
(0.00329364 -0.0222013 -0.00745079)
(0.00397067 -0.0219638 -0.00774702)
(0.00304097 -0.0203465 -0.00735315)
(0.00493763 -0.0218247 -0.00799222)
(0.00157663 -0.0218644 -0.00448121)
(0.00148126 -0.0217697 -0.00573824)
(0.000879183 -0.0222652 -0.00341138)
(0.00107284 -0.0219638 -0.00471274)
(0.00181042 -0.022971 -0.00559038)
(0.000750959 -0.022056 -0.00376586)
(-0.00235787 -0.019882 0.00386895)
(-0.00175991 -0.0208411 0.00467698)
(-0.00252075 -0.02094 0.00260172)
(-0.00134825 -0.0215567 0.00486825)
(-0.002822 -0.0191774 0.00302036)
(-0.00344157 -0.0219095 0.00258254)
(-0.0038056 -0.0196669 -0.00399723)
(-0.0044442 -0.020208 -0.00315144)
(-0.00441753 -0.0194134 -0.00103616)
(-0.00454081 -0.0201393 -0.00443115)
(-0.00417545 -0.0194178 -0.00207275)
(-0.00463026 -0.0189041 -0.00146651)
(0.00103658 -0.0150678 -0.00389883)
(-0.000107886 -0.0159649 -0.00436914)
(0.0018067 -0.0148818 -0.00421158)
(0.000690832 -0.014999 -0.00477758)
(0.00163179 -0.0144856 -0.00446399)
(0.000406539 -0.0156983 -0.00366694)
(-0.0028025 -0.0193425 -0.00322598)
(-0.00407987 -0.0186703 -0.00194843)
(-0.00193419 -0.0170723 -0.00330152)
(-0.00312298 -0.018955 -0.00202922)
(-0.00226831 -0.0176826 -0.00403449)
(-0.00268298 -0.0181237 -0.00222222)
(-0.00405147 -0.0200847 -0.00108443)
(-0.00373381 -0.020174 0.000505277)
(-0.0045536 -0.0190759 -0.00162981)
(-0.00332161 -0.0185384 0.00227054)
(-0.00410621 -0.0193058 0.000124986)
(-0.004251 -0.0216119 0.00179239)
(-0.00201236 -0.0194214 0.00493739)
(-0.00350616 -0.0189196 0.00411399)
(-0.00399004 -0.0196696 0.00385717)
(-0.00494006 -0.0200553 0.00216226)
(-0.00264329 -0.0193752 0.00665326)
(-0.00404549 -0.0194456 0.00501696)
(-0.000622544 -0.0209419 0.00749211)
(-0.00425719 -0.0228782 0.00537873)
(-0.00247107 -0.0211135 0.00703109)
(0.0102758 -0.0153724 -0.00242036)
(0.00974945 -0.0161345 -0.00131537)
(0.0100449 -0.0150708 -0.0019036)
(0.00868569 -0.0160489 0.000456634)
(0.00913476 -0.0163241 0.00012757)
(0.0097704 -0.0158927 -0.000486442)
(0.00495516 -0.0170156 0.00333582)
(0.00732652 -0.0161268 0.00200774)
(0.00758513 -0.0161977 0.00188529)
(0.00596945 -0.0163979 0.00285562)
(0.00649435 -0.0168668 0.00286921)
(0.00662637 -0.016201 0.00233659)
(-0.00046429 -0.0176928 0.00189224)
(0.00197367 -0.0179849 0.00242455)
(0.0013582 -0.0166288 0.00258052)
(0.000268611 -0.0170685 0.00246987)
(0.00182352 -0.0189288 0.00212365)
(-0.00102418 -0.0182854 -0.00465233)
(-0.00092678 -0.0159251 -0.00402539)
(-0.000249942 -0.0170682 -0.00286161)
(-0.000957108 -0.0171565 -0.00487225)
(-0.000506611 -0.0148126 -0.00258466)
(-0.000277881 -0.0156502 -0.00215618)
(0.00345582 -0.0182387 -0.0123322)
(0.00238383 -0.018204 -0.0121739)
(0.0022828 -0.0179776 -0.0116145)
(0.00413859 -0.0183506 -0.0126485)
(0.00153722 -0.0182357 -0.0118873)
(0.00324445 -0.0176477 -0.0124438)
(0.0056154 -0.0177424 -0.0134775)
(0.00893602 -0.0177977 -0.0115439)
(0.00847816 -0.0189255 -0.0119463)
(0.0069462 -0.0174566 -0.0123508)
(0.00662172 -0.0169405 -0.0121767)
(0.00811563 -0.0174297 -0.0115372)
(0.00359005 -0.0128943 -0.00646609)
(0.00384039 -0.0111121 -0.00544153)
(0.00354325 -0.0122514 -0.00566408)
(0.00263562 -0.0129406 -0.00629696)
(0.00412082 -0.0114718 -0.00519256)
(0.00260537 -0.0131571 -0.006687)
(-0.00386369 -0.0186962 -0.00686333)
(-0.00519372 -0.0200785 -0.00505303)
(-0.00473824 -0.0189049 -0.00583621)
(-0.00462506 -0.0210836 -0.0057765)
(-0.00517624 -0.0184434 -0.00529583)
(-0.00443658 -0.0194803 -0.00709516)
(-0.00311481 -0.0199046 -0.00615455)
(-0.00224692 -0.0181276 -0.00706092)
(-0.00310749 -0.0183351 -0.00556196)
(-0.00256785 -0.0171845 -0.00859589)
(-0.00202155 -0.0175087 -0.00803798)
(-0.00232909 -0.0190825 -0.00726904)
(0.000975972 -0.0148417 0.00341317)
(0.000873218 -0.0154431 0.00339512)
(-0.000869418 -0.0191034 0.00202167)
(0.000331589 -0.015836 0.00286254)
(-0.00113004 -0.0181531 0.000933655)
(-0.00113919 -0.0192085 0.00123165)
(0.000555198 -0.0169818 0.00334822)
(2.61373e-05 -0.0175916 0.00227125)
(0.00974539 -0.017099 -0.00981995)
(0.0091317 -0.0178325 -0.00816296)
(0.00936525 -0.0180471 -0.00789675)
(0.00838614 -0.0181995 -0.00965095)
(0.000681027 -0.0176783 0.00294702)
(0.000363998 -0.017727 0.00332454)
(0.000877657 -0.0161335 0.00287807)
(0.000380952 -0.016308 0.00240413)
(0.00679083 -0.0207786 0.000857349)
(0.00348234 -0.0191778 0.00226688)
(0.00426154 -0.0188126 0.0014044)
(0.00328298 -0.0186303 0.00190709)
(0.00313714 -0.0167902 0.00353273)
(0.00244021 -0.0172642 0.00327447)
(0.00713207 -0.0190751 0.000787453)
(0.00865605 -0.0198932 -0.00014929)
(0.00858954 -0.0178791 -0.00040005)
(0.0106498 -0.0171361 -0.00259142)
(0.0106345 -0.0188657 -0.0020163)
(0.00908988 -0.0161779 0.000339624)
(0.0102478 -0.0207373 -0.00500253)
(0.00863245 -0.0218885 -0.00595578)
(0.00878584 -0.0202175 -0.00601811)
(0.00889859 -0.0223607 -0.00567082)
(0.00812062 -0.0221905 -0.0055784)
(0.00780168 -0.0221213 -0.00626032)
(0.00710458 -0.0214274 -0.00661685)
(0.00655936 -0.0212008 -0.00681794)
(0.00673247 -0.0235883 -0.00666384)
(0.00668177 -0.0228033 -0.00657931)
(0.00570984 -0.0234744 -0.00611896)
(-0.00484485 -0.0200839 0.000103771)
(-0.00495996 -0.0194323 0.00101449)
(-0.00353617 -0.0210038 0.00276797)
(-0.00482298 -0.022113 0.00252528)
(-0.00511244 -0.0188765 0.00341389)
(-0.00361312 -0.0189395 -0.002078)
(-0.00438195 -0.0177858 -5.19345e-05)
(-0.00387849 -0.0188042 -0.000413553)
(-0.00317665 -0.0198064 -0.00215346)
(-0.00328995 -0.0199615 -0.00132094)
(-0.00480328 -0.0199518 -0.000594006)
(-0.00103116 -0.0177888 0.00620172)
(-0.00391791 -0.0222925 0.00499339)
(-0.00184738 -0.0195419 0.00702944)
(-0.00166723 -0.0192943 0.00625801)
(-0.00444631 -0.0186494 0.00104273)
(-0.0043268 -0.0207028 -4.83425e-05)
(-0.00405841 -0.0190671 -0.00100322)
(-0.00550384 -0.0203853 -0.000567698)
(-0.00418989 -0.0215465 -0.000910912)
(0.0105276 -0.0169673 0.00697975)
(-0.00473731 -0.0183884 -0.0023513)
(-0.00410542 -0.0194568 -0.000352545)
(-0.00258879 -0.0195862 -0.00300877)
(-0.00110512 -0.017643 -0.00434227)
(-0.00269875 -0.0172435 -0.00499004)
(-0.00332273 -0.0194559 -0.00227052)
(-0.00330077 -0.0184351 -0.00223395)
(-0.00264884 -0.0180105 -0.0039185)
(-0.000682447 -0.0160602 -0.00327274)
(-0.00401842 -0.0198323 -0.00370127)
(-0.00359286 -0.0196276 -0.00492224)
(-0.00377535 -0.0209006 -0.00229065)
(-0.0039421 -0.0191461 -0.00500776)
(-0.00475227 -0.0191239 -0.00581089)
(-0.00236869 -0.0183313 0.00255796)
(-0.00302177 -0.0189477 0.00216831)
(-0.00388721 -0.0198886 0.000577152)
(-0.00327519 -0.019009 0.00215067)
(-0.0039325 -0.0192864 0.00126259)
(-0.00369942 -0.0184948 0.00110759)
(-0.00405764 -0.0190084 -0.000474023)
(-0.00436138 -0.0188923 -0.000637954)
(-0.005565 -0.0195664 -0.00252601)
(-0.00459962 -0.0200683 -0.00336754)
(-0.00569269 -0.0199583 -0.000240744)
(-0.00474577 -0.0198447 0.00131198)
(-0.00337913 -0.0204494 0.000591686)
(-0.00260498 -0.0194679 0.00457002)
(-0.00221941 -0.0177535 0.00551957)
(-0.00292016 -0.018765 0.00281681)
(0.00281843 -0.0230194 -0.00618509)
(0.00267319 -0.0195538 -0.00956202)
(0.00417787 -0.0220575 -0.0073734)
(0.00475695 -0.0218161 -0.00676347)
(0.00693875 -0.0220181 -0.00687319)
(0.00411006 -0.0228886 -0.00627767)
(0.00507869 -0.0227305 -0.00650588)
(0.00632194 -0.0237999 -0.0068158)
(0.0063485 -0.022892 -0.0065179)
(0.00597701 -0.0209955 -0.00813875)
(0.0053051 -0.0210034 -0.00713662)
(0.00473445 -0.0206025 -0.00775)
(0.00642456 -0.0208208 -0.00724035)
(0.00692753 -0.0199518 -0.00753132)
(0.00622577 -0.0217788 -0.00797733)
(0.00666092 -0.0199987 -0.00792495)
(0.0067109 -0.022074 -0.00604194)
(0.00408873 -0.022276 -0.00666589)
(0.000694033 -0.0229535 -0.00340629)
(0.00103691 -0.0233681 -0.00293675)
(0.000689779 -0.0224872 -0.00477718)
(0.00206274 -0.0230104 -0.00563243)
(0.00314207 -0.0240378 -0.00643163)
(-0.000114376 -0.0229629 -0.00496435)
(0.00110095 -0.0247497 -0.00521755)
(0.00456495 -0.0219364 -0.00699197)
(0.00384482 -0.0238068 -0.00688459)
(0.0029371 -0.0237955 -0.00614567)
(0.00500709 -0.0220213 -0.00666922)
(0.00241048 -0.0256239 -0.0052019)
(0.00254843 -0.024596 -0.00436741)
(0.00351406 -0.023567 -0.00508259)
(0.00367244 -0.0226757 -0.00517379)
(0.00496581 -0.0242344 -0.00576063)
(0.00455383 -0.0224806 -0.00570311)
(-0.000671864 -0.0198042 0.000119456)
(-0.000229653 -0.0208597 -0.00267063)
(0.00050226 -0.0250263 -0.00356707)
(-0.000283787 -0.0211272 -0.00120568)
(0.00123122 -0.0233371 -0.00328166)
(-5.51743e-05 -0.0218561 -0.00260326)
(0.00206936 -0.0228131 -0.00396849)
(0.00292387 -0.0232673 -0.00470027)
(0.00258608 -0.0236736 -0.0054098)
(0.00168938 -0.0242528 -0.00471628)
(0.004811 -0.0252639 -0.00513159)
(0.00452407 -0.0241859 -0.00537348)
(0.00415351 -0.0226275 -0.00581878)
(0.00565582 -0.0232535 -0.00550396)
(0.00583552 -0.0236657 -0.0059901)
(0.00724928 -0.0225489 -0.00568618)
(0.00443336 -0.0226463 -0.0067718)
(0.00624026 -0.0230091 -0.00652066)
(0.00704607 -0.0227189 -0.00483146)
(0.0101064 -0.0190301 -0.00439843)
(0.00787665 -0.0204838 -0.00604807)
(0.0105236 -0.021006 -0.00464069)
(0.00926663 -0.0202476 -0.00523116)
(0.0097767 -0.0189711 -0.00497939)
(0.00958866 -0.0214893 -0.00499617)
(0.0093438 -0.0207082 -0.00475225)
(0.0112951 -0.0199092 -0.00362045)
(0.00989441 -0.020258 -0.00455592)
(0.00892268 -0.0180104 -0.0109131)