/*--------------------------------*- C++ -*----------------------------------*\
| =========                 |                                                 |
| \\      /  F ield         | OpenFOAM: The Open Source CFD Toolbox           |
|  \\    /   O peration     | Version:  v1612+                                |
|   \\  /    A nd           | Web:      www.OpenFOAM.com                      |
|    \\/     M anipulation  |                                                 |
\*---------------------------------------------------------------------------*/
FoamFile
{
    version     2.0;
    format      ascii;
    class       volScalarField;
    location    "200";
    object      p;
}
// * * * * * * * * * * * * * * * * * * * * * * * * * * * * * * * * * * * * * //

dimensions      [0 2 -2 0 0 0 0];

internalField   nonuniform List<scalar> 
16762
(
2.2293
2.2122
2.21741
2.21415
2.21724
2.21728
2.21323
2.21223
2.21781
2.21679
2.21719
2.20984
2.21486
2.21437
2.21339
2.21094
2.20662
2.21107
2.12978
2.13276
2.12544
2.12746
2.13043
2.12277
2.1364
2.1407
2.13179
2.13484
2.12562
2.13914
2.13594
2.13464
2.13386
2.12966
2.13521
2.13841
2.13668
2.14038
2.21208
2.21354
2.21544
2.21748
2.21108
2.2181
2.21896
2.21455
2.21753
2.21356
2.20976
2.2097
2.20944
2.2217
2.218
2.21482
2.21121
2.21404
2.21533
2.20562
2.21657
2.21026
2.11651
2.11892
2.10912
2.1075
2.11496
2.1663
2.16
2.16373
2.16613
2.15663
2.15283
2.16331
2.15334
2.15022
2.11584
2.12256
2.11608
2.11488
2.1218
2.11687
2.11508
2.11829
2.12115
2.12079
2.11842
2.12197
2.11615
2.10767
2.10108
2.11914
2.18205
2.1762
2.18548
2.17359
2.17416
2.17912
2.18358
2.18712
2.18274
2.18567
2.18605
2.18724
2.17144
2.18141
2.22033
2.22361
2.22674
2.22534
2.22361
2.22995
2.22516
2.22738
2.22372
2.22905
2.22642
2.2233
2.22068
2.22636
2.22606
2.22314
2.17298
2.17368
2.18677
2.18503
2.17039
2.16937
2.16819
2.16925
2.1678
2.18318
2.16963
2.16791
2.16458
2.17714
2.17874
2.17223
2.12393
2.12579
2.1252
2.13257
2.14458
2.13385
2.12754
2.13717
2.13947
2.13247
2.14523
2.14203
2.13606
2.14301
2.13762
2.23272
2.23196
2.24259
2.24065
2.2387
2.24033
2.23427
2.24563
2.2376
2.23456
2.23489
2.24498
2.23549
2.24059
2.20806
2.20699
2.20744
2.21202
2.21315
2.20667
2.208
2.20907
2.20917
2.20538
2.21138
2.2075
2.20872
2.20601
2.20953
2.21572
2.21581
2.20997
2.21149
2.21645
2.13204
2.13201
2.13508
2.12927
2.14327
2.14601
2.13824
2.15592
2.15625
2.15663
2.14577
2.13126
2.1313
2.14802
2.13665
2.16264
2.15468
2.13429
2.13326
2.13633
2.1461
2.14583
2.15448
2.1435
2.23066
2.2295
2.22153
2.22977
2.22214
2.22844
2.22011
2.22214
2.23065
2.23096
2.22774
2.22915
2.22194
2.22041
2.22334
2.2285
2.22744
2.2243
2.21974
2.22611
2.23595
2.23854
2.24751
2.23309
2.23892
2.23952
2.24679
2.24518
2.23584
2.24075
2.24677
2.24219
2.22115
2.22238
2.22314
2.22423
2.222
2.22102
2.21918
2.22168
2.22019
2.22319
2.22345
2.2241
2.21522
2.21476
2.22444
2.21276
2.22349
2.2207
2.22216
2.21877
2.21735
2.2215
2.15137
2.14735
2.15435
2.15171
2.1537
2.15217
2.14175
2.14093
2.15136
2.15638
2.15741
2.15166
2.14038
2.15771
2.15181
2.15182
2.14676
2.15153
2.14847
2.13757
2.21445
2.21143
2.21065
2.21278
2.21294
2.21779
2.21826
2.21276
2.2104
2.20753
2.21309
2.21904
2.21616
2.21611
2.21293
2.21328
2.22829
2.22953
2.23105
2.22996
2.22976
2.22648
2.229
2.23238
2.23124
2.2037
2.20337
2.20466
2.19738
2.20632
2.20783
2.20211
2.20013
2.20487
2.20796
2.20383
2.20285
2.20372
2.20581
2.20886
2.13354
2.13804
2.12044
2.12203
2.12885
2.12751
2.13131
2.13568
2.12431
2.11763
2.12442
2.13656
2.13675
2.14128
2.13663
2.13385
2.13578
2.13331
2.13346
2.14116
2.13633
2.13433
2.17327
2.17707
2.17124
2.17577
2.18182
2.18468
2.18186
2.17958
2.12239
2.11764
2.12747
2.13099
2.12085
2.12681
2.1235
2.11767
2.11348
2.12296
2.121
2.1191
2.18731
2.18176
2.18655
2.18312
2.19304
2.19254
2.19033
2.19775
2.18347
2.18331
2.18489
2.18488
2.18619
2.197
2.19311
2.19261
2.18622
2.1909
2.19613
2.19271
2.20892
2.21302
2.21332
2.20626
2.20558
2.20887
2.20589
2.20535
2.21307
2.20583
2.20728
2.20654
2.20393
2.20349
2.20234
2.20105
2.20612
2.19848
2.20448
2.20893
2.20488
2.20578
2.20414
2.20846
2.20668
2.18092
2.18302
2.18388
2.184
2.18884
2.18362
2.18548
2.18327
2.18392
2.18847
2.18805
2.19126
2.18993
2.19008
2.19042
2.18643
2.19078
2.22051
2.22081
2.21984
2.21867
2.21671
2.21877
2.22003
2.21876
2.22261
2.21523
2.22021
2.22153
2.21659
2.22017
2.21828
2.21744
2.2128
2.21839
2.21942
2.21751
2.22028
2.22018
2.22378
2.22614
2.22309
2.22628
2.22407
2.2236
2.22097
2.22072
2.22753
2.22736
2.2261
2.20609
2.20729
2.20639
2.205
2.20901
2.20893
2.15828
2.14246
2.14257
2.16551
2.16806
2.15743
2.15525
2.14661
2.14326
2.15405
2.14808
2.14485
2.15424
2.15662
2.19056
2.19166
2.19146
2.19153
2.19374
2.1788
2.17869
2.18178
2.19002
2.1906
2.19284
2.18447
2.18272
2.18961
2.18919
2.186
2.19403
2.19136
2.18663
2.18357
2.18487
2.19468
2.19422
2.19674
2.18137
2.18024
2.17848
2.18988
2.1874
2.1785
2.18427
2.13269
2.12894
2.12769
2.11774
2.11831
2.11163
2.12294
2.11423
2.13062
2.11559
2.10885
2.22841
2.23516
2.23145
2.23332
2.23084
2.2251
2.2258
2.22056
2.21866
2.22274
2.22964
2.2233
2.22286
2.2217
2.22385
2.1245
2.12677
2.12145
2.11347
2.11285
2.13138
2.13161
2.10842
2.11443
2.11976
2.12017
2.11758
2.11222
2.11406
2.10844
2.12217
2.12466
2.11768
2.12124
2.20665
2.20521
2.2066
2.20708
2.18857
2.19113
2.19626
2.19536
2.19347
2.20563
2.19875
2.20244
2.19137
2.19133
2.18691
2.19941
2.20227
2.21097
2.19663
2.20003
2.19473
2.20679
2.23043
2.23079
2.23154
2.23139
2.2288
2.22717
2.22613
2.22476
2.22492
2.23087
2.22665
2.22709
2.22014
2.22496
2.23107
2.22768
2.23032
2.23043
2.19283
2.19108
2.18324
2.18878
2.19426
2.18271
2.17682
2.17322
2.1824
2.18405
2.17919
2.17429
2.24587
2.25237
2.24784
2.24151
2.24507
2.25314
2.2505
2.24391
2.24751
2.24381
2.24709
2.24566
2.23954
2.23772
2.24843
2.22207
2.22074
2.2251
2.2307
2.21717
2.2192
2.22444
2.22239
2.21734
2.22303
2.21962
2.23026
2.22754
2.22106
2.22831
2.22094
2.21618
2.21931
2.1841
2.17792
2.18111
2.18516
2.17495
2.18421
2.18878
2.18892
2.17881
2.19379
2.19289
2.18226
2.18602
2.18325
2.1876
2.18697
2.1805
2.19382
2.13776
2.13705
2.13978
2.13279
2.13724
2.14076
2.13566
2.13233
2.14275
2.13472
2.13847
2.1825
2.18727
2.19298
2.18633
2.18913
2.19115
2.18304
2.19489
2.19252
2.18986
2.19498
2.19644
2.19204
2.19042
2.1928
2.19323
2.19231
2.18712
2.18595
2.19373
2.19391
2.19143
2.18998
2.20214
2.19271
2.18685
2.18745
2.19991
2.18939
2.18526
2.18436
2.19059
2.19382
2.1692
2.17046
2.16751
2.16639
2.17073
2.16887
2.1626
2.16302
2.16568
2.17063
2.17182
2.16696
2.16318
2.16288
2.1711
2.16617
2.16486
2.16225
2.16536
2.17181
2.16772
2.17096
2.12667
2.12043
2.12737
2.13126
2.1329
2.12261
2.12343
2.1208
2.13563
2.1232
2.13306
2.13363
2.1291
2.13598
2.12876
2.12422
2.13719
2.13228
2.15869
2.15623
2.15612
2.16132
2.15761
2.16153
2.15502
2.15587
2.15132
2.15488
2.14865
2.15853
2.16199
2.16145
2.15077
2.1499
2.16028
2.15934
2.15964
2.1484
2.14661
2.15634
2.14947
2.14972
2.15519
2.15736
2.15223
2.15257
2.15295
2.16745
2.16376
2.14834
2.14974
2.15913
2.16445
2.15946
2.1622
2.16318
2.16437
2.16203
2.14803
2.15986
2.15166
2.15093
2.15073
2.15415
2.15105
2.15084
2.15633
2.1517
2.15936
2.15763
2.14656
2.1529
2.1446
2.16397
2.1623
2.1576
2.1481
2.16213
2.16201
2.14768
2.14796
2.19351
2.18794
2.1875
2.19259
2.19341
2.1883
2.19849
2.19882
2.1883
2.18811
2.18795
2.19696
2.19496
2.1951
2.19258
2.18862
2.19919
2.19908
2.18688
2.19602
2.19917
2.12794
2.13166
2.13288
2.12785
2.12712
2.11375
2.11747
2.12762
2.12022
2.11889
2.12231
2.2409
2.23715
2.23889
2.23706
2.23542
2.23817
2.10973
2.11266
2.1005
2.15414
2.15868
2.11562
2.11701
2.1639
2.16163
2.08203
2.08285
2.2157
2.2163
2.21168
2.1526
2.14499
2.21645
2.21169
2.11669
2.11996
2.11118
2.11821
2.16029
2.16066
2.154
2.13775
2.13308
2.10246
2.18922
2.18402
2.16644
2.16663
2.11016
2.11224
2.13646
2.13048
2.13653
2.21238
2.21611
2.21443
2.15748
2.15624
2.14781
2.19573
2.20035
2.19876
2.1941
2.19713
2.20263
2.14629
2.14048
2.14995
2.17328
2.17414
2.19267
2.19508
2.19819
2.21149
2.20358
2.20492
2.22156
2.22257
2.21493
2.21351
2.17773
2.17768
2.16773
2.16506
2.19261
2.18848
2.18964
2.21245
2.20854
2.20685
2.21502
2.21204
2.20931
2.20588
2.20208
2.20626
2.20676
2.22036
2.20744
2.21366
2.21306
2.20971
2.20846
2.20949
2.20152
2.19293
2.19111
2.22379
2.21919
2.22438
2.22176
2.21894
2.21698
2.2122
2.21987
2.21552
2.2129
2.20281
2.19842
2.19861
2.23041
2.23772
2.23492
2.22208
2.22045
2.2303
2.217
2.2124
2.21413
2.23523
2.22718
2.23262
2.22068
2.21523
2.21957
2.21595
2.23696
2.22814
2.22868
2.24763
2.24389
2.22386
2.22525
2.21621
2.21993
2.22546
2.22168
2.22337
2.22247
2.24523
2.25294
2.25229
2.23448
2.23067
2.22837
2.23318
2.22568
2.22697
2.26605
2.26283
2.25841
2.23965
2.24012
2.25787
2.26102
2.16701
2.1709
2.17086
2.16428
2.18255
2.21341
2.21827
2.21859
2.15355
2.14909
2.15523
2.20796
2.20358
2.20652
2.20059
2.20665
2.20881
2.17624
2.18253
2.17191
2.17371
2.17576
2.20558
2.20192
2.20243
2.22053
2.2221
2.21901
2.21573
2.21269
2.18009
2.17705
2.18498
2.21773
2.21278
2.20883
2.19884
2.19472
2.18514
2.20039
2.19106
2.19599
2.20605
2.203
2.19768
2.2023
2.20069
2.18282
2.17914
2.18094
2.18476
2.19385
2.19201
2.18937
2.16109
2.16215
2.15864
2.15961
2.16695
2.16959
2.16933
2.16968
2.16785
2.17221
2.17306
2.16793
2.16711
2.1688
2.1587
2.16064
2.17094
2.17315
2.17899
2.18717
2.18212
2.17845
2.18624
2.18597
2.18247
2.1728
2.17267
2.17095
2.17682
2.18076
2.17934
2.19803
2.19131
2.19747
2.21164
2.21235
2.20672
2.20328
2.21253
2.20729
2.20672
2.20661
2.21798
2.21447
2.2112
2.2121
2.1866
2.19461
2.19412
2.19577
2.20579
2.20906
2.20499
2.21357
2.20675
2.20333
2.20398
2.20259
2.19848
2.19412
2.20448
2.20455
2.20275
2.20591
2.20407
2.20314
2.20715
2.20195
2.20948
2.20528
2.20848
2.2052
2.20592
2.1347
2.13321
2.1592
2.15058
2.15378
2.14728
2.15733
2.16255
2.16005
2.16175
2.14558
2.15264
2.1435
2.15114
2.14211
2.13948
2.14719
2.14714
2.1449
2.14827
2.21304
2.21662
2.21605
2.2152
2.22029
2.21825
2.20949
2.21374
2.2085
2.2139
2.21332
2.2198
2.21083
2.22247
2.21202
2.21089
2.21497
2.2119
2.21778
2.2054
2.21429
2.21564
2.21072
2.16288
2.16464
2.17046
2.17763
2.18169
2.17932
2.17472
2.18976
2.18918
2.18689
2.18395
2.18293
2.17971
2.17796
2.18298
2.17882
2.18387
2.1833
2.17508
2.17495
2.16522
2.17055
2.1664
2.17126
2.176
2.17381
2.17362
2.18108
2.18005
2.17863
2.17842
2.17411
2.17682
2.17564
2.17467
2.22779
2.22986
2.262
2.25973
2.24652
2.23618
2.24892
2.23969
2.24815
2.24656
2.24281
2.23377
2.24407
2.23143
2.24548
2.24139
2.25541
2.26243
2.25707
2.2572
2.25219
2.25676
2.24865
2.23175
2.23849
2.23852
2.23498
2.23707
2.2357
2.24055
2.24288
2.24333
2.24584
2.24398
2.24098
2.24151
2.23441
2.23275
2.2361
2.22907
2.23807
2.26177
2.2647
2.25826
2.26064
2.24729
2.25616
2.25472
2.25151
2.26221
2.26187
2.25721
2.25688
2.26272
2.25608
2.25912
2.26008
2.21784
2.22572
2.22335
2.22887
2.22065
2.22719
2.23283
2.22896
2.22448
2.22256
2.2251
2.22599
2.22544
2.22548
2.22672
2.22627
2.22571
2.22428
2.23154
2.23105
2.23646
2.23699
2.23824
2.23702
2.22779
2.23031
2.22661
2.22827
2.23151
2.23595
2.22783
2.23092
2.2348
2.22866
2.23126
2.23046
2.23253
2.23131
2.23669
2.23338
2.23272
2.24643
2.25154
2.246
2.25074
2.24941
2.23973
2.23219
2.24247
2.24053
2.25981
2.2537
2.24668
2.25908
2.26145
2.24614
2.24111
2.23822
2.24899
2.23916
2.2409
2.24537
2.24731
2.22519
2.2292
2.22838
2.21838
2.22205
2.21718
2.2181
2.21725
2.22603
2.22446
2.23139
2.22413
2.21991
2.22235
2.21296
2.21393
2.22389
2.21866
2.22074
2.22092
2.21934
2.22167
2.22231
2.22553
2.22037
2.21975
2.22361
2.22792
2.22065
2.22035
2.21684
2.22316
2.22115
2.21695
2.21557
2.20644
2.21403
2.21844
2.219
2.20756
2.21298
2.21419
2.21615
2.21396
2.2139
2.2138
2.21839
2.21377
2.22183
2.22152
2.21815
2.21707
2.22676
2.22812
2.23033
2.22515
2.22213
2.23042
2.23012
2.22396
2.23658
2.23859
2.23472
2.24247
2.24118
2.23943
2.23592
2.24212
2.24716
2.25585
2.25023
2.25353
2.25183
2.23605
2.23728
2.25359
2.24942
2.24794
2.24807
2.22124
2.22197
2.23104
2.23045
2.22855
2.22951
2.2269
2.22836
2.23414
2.23296
2.22756
2.24126
2.23594
2.23708
2.24129
2.23981
2.23762
2.23425
2.23449
2.21307
2.21062
2.21607
2.21264
2.21729
2.21814
2.22196
2.21541
2.21816
2.22167
2.22306
2.22212
2.2209
2.21871
2.22076
2.22081
2.21483
2.21566
2.21517
2.21094
2.21044
2.21382
2.2121
2.21003
2.2134
2.21808
2.21458
2.22635
2.2211
2.21149
2.21362
2.20432
2.20497
2.2073
2.20803
2.20691
2.22882
2.22406
2.20676
2.21617
2.20778
2.21788
2.21834
2.22215
2.21303
2.21277
2.2142
2.20589
2.20541
2.21947
2.21875
2.23722
2.23444
2.23042
2.23482
2.23887
2.23014
2.23507
2.23128
2.22609
2.23204
2.22889
2.22803
2.222
2.22259
2.23684
2.23987
2.23027
2.24437
2.24244
2.24718
2.22608
2.22576
2.22786
2.22646
2.2237
2.21737
2.22044
2.20791
2.21253
2.21212
2.21095
2.21387
2.21599
2.21657
2.21327
2.21237
2.2121
2.2169
2.21905
2.21647
2.22219
2.21785
2.21929
2.21942
2.22072
2.2226
2.22724
2.22531
2.22139
2.22686
2.21787
2.21946
2.22309
2.2293
2.22701
2.22406
2.2263
2.22478
2.2212
2.22529
2.22621
2.22621
2.21971
2.22356
2.22187
2.22292
2.22656
2.22253
2.22256
2.22756
2.22546
2.22313
2.235
2.23008
2.23706
2.24387
2.2406
2.24143
2.24295
2.23695
2.24089
2.23215
2.23269
2.22793
2.23404
2.22814
2.23155
2.22516
2.22748
2.22269
2.22257
2.22352
2.23206
2.22571
2.22901
2.23014
2.22886
2.23641
2.22694
2.22956
2.23382
2.23285
2.19316
2.20034
2.19457
2.20044
2.20159
2.19889
2.19971
2.19914
2.19094
2.19708
2.1907
2.19669
2.19716
2.1918
2.19163
2.19496
2.19595
2.19012
2.19859
2.19555
2.19713
2.1959
2.19277
2.20586
2.19908
2.20115
2.1998
2.19781
2.2051
2.20116
2.20727
2.21454
2.21433
2.21328
2.21327
2.21405
2.21633
2.21798
2.21268
2.20876
2.21962
2.21932
2.22023
2.21801
2.21163
2.21244
2.21531
2.21784
2.21484
2.21884
2.21793
2.21761
2.21352
2.21327
2.21467
2.21726
2.20619
2.21306
2.21014
2.20943
2.21471
2.20928
2.21258
2.20937
2.22239
2.21924
2.22243
2.22113
2.21003
2.21194
2.22102
2.22008
2.22189
2.22042
2.21878
2.22255
2.22033
2.22229
2.22312
2.22769
2.22159
2.18263
2.18013
2.19295
2.18712
2.1849
2.18813
2.19036
2.17512
2.17816
2.17255
2.18575
2.18689
2.187
2.18573
2.20827
2.21119
2.21125
2.21057
2.20665
2.19921
2.19605
2.18303
2.18564
2.19045
2.19785
2.19502
2.19248
2.1926
2.1905
2.19254
2.20082
2.19755
2.20619
2.20419
2.19818
2.19881
2.20102
2.20334
2.20214
2.21163
2.21084
2.20962
2.21101
2.20771
2.20901
2.21572
2.2142
2.21366
2.21531
2.21037
2.20829
2.21623
2.21521
2.21257
2.21309
2.20993
2.20859
2.20469
2.21225
2.20941
2.20747
2.21322
2.21011
2.20713
2.20606
2.217
2.21331
2.21716
2.21383
2.2106
2.21436
2.21747
2.2203
2.21213
2.21418
2.19688
2.19739
2.20646
2.20665
2.20466
2.20792
2.20791
2.20799
2.20522
2.20519
2.20964
2.21294
2.20711
2.20868
2.20874
2.20531
2.20394
2.20685
2.20523
2.20747
2.21135
2.21107
2.21169
2.22265
2.21515
2.20329
2.20403
2.20252
2.21057
2.21077
2.21148
2.21482
2.21682
2.21276
2.2272
2.2167
2.21416
2.21221
2.20372
2.20192
2.21084
2.20952
2.19884
2.20642
2.20637
2.20268
2.20694
2.20563
2.18426
2.18638
2.18039
2.17301
2.18529
2.18187
2.18238
2.18107
2.18208
2.18579
2.18728
2.19258
2.19106
2.19334
2.19287
2.18616
2.18192
2.17982
2.15683
2.15859
2.16856
2.16275
2.16214
2.15758
2.17513
2.16285
2.15986
2.1675
2.17541
2.17318
2.16327
2.16598
2.17677
2.1653
2.18534
2.17377
2.17583
2.16774
2.17399
2.16997
2.17014
2.16461
2.17222
2.16752
2.18397
2.18341
2.17971
2.19013
2.18661
2.189
2.18802
2.18669
2.18582
2.21779
2.21328
2.21694
2.21596
2.21509
2.21114
2.22036
2.21339
2.21374
2.21064
2.20738
2.21019
2.20873
2.20595
2.20428
2.21081
2.21036
2.21623
2.21268
2.19091
2.19814
2.19381
2.1901
2.1987
2.19376
2.19601
2.19649
2.20116
2.20159
2.18173
2.18327
2.18261
2.18003
2.17992
2.18963
2.18817
2.18862
2.18701
2.18383
2.19003
2.19173
2.18366
2.1875
2.18926
2.19069
2.18557
2.18631
2.18493
2.18804
2.18697
2.16056
2.16531
2.1585
2.16545
2.17472
2.17644
2.17992
2.15994
2.17627
2.17609
2.1707
2.16473
2.17075
2.16317
2.16213
2.16458
2.16263
2.16829
2.17032
2.13053
2.13216
2.13557
2.14228
2.13728
2.1367
2.1373
2.14324
2.14088
2.14389
2.14261
2.13964
2.13485
2.13438
2.14933
2.15389
2.13444
2.13123
2.15531
2.16072
2.16003
2.15618
2.14516
2.15178
2.14756
2.15545
2.14948
2.14311
2.20639
2.19842
2.19235
2.20329
2.19801
2.19161
2.17715
2.18719
2.18158
2.17902
2.18133
2.19219
2.18605
2.1846
2.19244
2.19859
2.19749
2.19545
2.19497
2.19279
2.19233
2.18888
2.19529
2.19292
2.19645
2.19698
2.19371
2.20077
2.19674
2.19739
2.19572
2.19912
2.19915
2.19762
2.20445
2.20499
2.14396
2.14148
2.14764
2.14518
2.14452
2.13195
2.13602
2.21909
2.20881
2.21211
2.21377
2.21659
2.2202
2.21681
2.2164
2.21
2.21275
2.21035
2.21671
2.21324
2.21932
2.2107
2.22056
2.21307
2.21355
2.21931
2.21129
2.20913
2.21264
2.12366
2.12503
2.13248
2.14457
2.14153
2.14882
2.14926
2.14298
2.13928
2.09568
2.09674
2.097
2.10729
2.10865
2.10676
2.11195
2.1102
2.1038
2.104
2.11216
2.10813
2.10806
2.10281
2.11366
2.10688
2.1106
2.1727
2.16695
2.1762
2.175
2.17516
2.17764
2.19356
2.18692
2.1804
2.17632
2.17867
2.17672
2.18219
2.17443
2.18155
2.18228
2.19237
2.20314
2.20029
2.20329
2.17794
2.17007
2.17963
2.17944
2.17518
2.16862
2.168
2.18
2.17862
2.18388
2.18733
2.19518
2.18757
2.18467
2.18094
2.19148
2.18788
2.19043
2.19025
2.18484
2.188
2.19708
2.19284
2.1936
2.19142
2.18946
2.10644
2.10129
2.136
2.12347
2.13313
2.13778
2.14765
2.14851
2.15081
2.14295
2.14235
2.14784
2.14706
2.15095
2.17433
2.16556
2.15387
2.17225
2.16107
2.16121
2.16044
2.16568
2.16632
2.16049
2.16034
2.15899
2.15949
2.15327
2.15447
2.1192
2.13545
2.12608
2.12359
2.13104
2.12482
2.13569
2.14074
2.14402
2.13875
2.14008
2.21834
2.21679
2.20105
2.21099
2.20091
2.20702
2.21334
2.20875
2.2071
2.21814
2.21561
2.21128
2.21098
2.21351
2.20937
2.21805
2.21103
2.222
2.21118
2.20653
2.20219
2.20551
2.20839
2.20711
2.20997
2.21272
2.21702
2.20996
2.21188
2.2105
2.21004
2.209
2.21155
2.20541
2.16236
2.149
2.15094
2.1628
2.15518
2.19818
2.19668
2.2044
2.20856
2.20048
2.20964
2.21252
2.19745
2.20643
2.2034
2.19832
2.20489
2.2066
2.07907
2.06937
2.08737
2.07848
2.08141
2.0716
2.07409
2.07965
2.07296
2.07948
2.07687
2.07941
2.08696
2.07424
2.08186
2.08166
2.08528
2.081
2.07598
2.09774
2.10498
2.09134
2.09624
2.09941
2.09067
2.08665
2.09181
2.09076
2.0946
2.09129
2.08642
2.08779
2.08524
2.07981
2.08306
2.11469
2.11271
2.12051
2.12621
2.10408
2.09783
2.09735
2.10913
2.10783
2.1015
2.10481
2.21058
2.20727
2.2153
2.2205
2.21244
2.21465
2.2062
2.20027
2.22291
2.22141
2.22088
2.21673
2.17226
2.15868
2.16283
2.16881
2.16702
2.09936
2.0933
2.10626
2.22603
2.21766
2.2101
2.20683
2.2219
2.21338
2.21485
2.21169
2.21301
2.20749
2.19969
2.19657
2.19518
2.19846
2.12781
2.13324
2.12705
2.12569
2.12236
2.09686
2.09658
2.09412
2.09341
2.09572
2.10419
2.10058
2.10773
2.10424
2.10931
2.11356
2.1185
2.12067
2.12182
2.10851
2.10919
2.11725
2.11448
2.09507
2.08807
2.08819
2.08715
2.09405
2.09912
2.2156
2.21652
2.20384
2.21248
2.20075
2.19558
2.19539
2.17873
2.19026
2.18953
2.18172
2.17563
2.21507
2.21003
2.22025
2.21422
2.21341
2.21387
2.15586
2.16376
2.16344
2.15555
2.15405
2.1606
2.16112
2.15392
2.15177
2.13796
2.14195
2.12232
2.1131
2.11234
2.11291
2.12036
2.11091
2.10832
2.19086
2.19513
2.20258
2.20328
2.19592
2.19256
2.192
2.1923
2.2067
2.2037
2.20295
2.1985
2.20634
2.20296
2.19863
2.20134
2.20133
2.19745
2.17571
2.18132
2.18666
2.18338
2.18078
2.17764
2.18302
2.18326
2.18675
2.18844
2.1892
2.18733
2.1257
2.11886
2.11417
2.12359
2.11519
2.11919
2.1183
2.16385
2.15687
2.16042
2.15278
2.15176
2.14553
2.15669
2.16225
2.1643
2.16547
2.16138
2.15644
2.15852
2.20642
2.21179
2.20747
2.21079
2.21458
2.20856
2.20866
2.20671
2.21096
2.2108
2.21453
2.2124
2.20716
2.20551
2.20737
2.20682
2.19912
2.21251
2.20941
2.20572
2.20863
2.20863
2.2079
2.20839
2.20619
2.21235
2.22243
2.21527
2.2182
2.20699
2.21679
2.2122
2.21005
2.21198
2.2126
2.21086
2.20977
2.17587
2.18486
2.17704
2.18076
2.21159
2.20408
2.19786
2.20078
2.20892
2.19942
2.20379
2.20165
2.20062
2.20204
2.20821
2.21662
2.21336
2.21041
2.21636
2.21294
2.21106
2.22479
2.22493
2.22069
2.2176
2.20949
2.20907
2.21385
2.20926
2.21237
2.21343
2.20782
2.20515
2.20998
2.21675
2.20957
2.21298
2.21112
2.21516
2.22187
2.15774
2.16128
2.1567
2.15517
2.16398
2.16286
2.2154
2.22395
2.22702
2.21226
2.21193
2.22512
2.22148
2.22393
2.21625
2.21859
2.20973
2.22323
2.21888
2.21177
2.21703
2.2178
2.20385
2.20509
2.20684
2.20787
2.20837
2.20901
2.19757
2.20278
2.20924
2.20517
2.20786
2.20651
2.20193
2.1978
2.20168
2.20435
2.20185
2.20325
2.20926
2.21208
2.21122
2.20875
2.20613
2.20659
2.21332
2.21187
2.19688
2.19175
2.19267
2.19817
2.19851
2.19491
2.19114
2.19081
2.19452
2.19418
2.19695
2.19642
2.19318
2.1916
2.19444
2.18966
2.19521
2.19609
2.19901
2.19823
2.19357
2.19306
2.2018
2.20526
2.20609
2.1972
2.19633
2.19404
2.20271
2.20397
2.19619
2.19543
2.16401
2.1725
2.16933
2.15709
2.15917
2.17495
2.17405
2.16898
2.1822
2.16086
2.16135
2.21946
2.22017
2.2167
2.21739
2.21992
2.21727
2.21627
2.21533
2.21228
2.22245
2.21501
2.21541
2.22418
2.22271
2.22188
2.21841
2.21841
2.21155
2.20703
2.20957
2.21009
2.20555
2.19986
2.18412
2.1892
2.19473
2.18634
2.18846
2.1884
2.19125
2.19311
2.19388
2.19086
2.20909
2.20146
2.19955
2.20172
2.20895
2.20616
2.23028
2.23032
2.22268
2.22639
2.22948
2.22848
2.22629
2.22932
2.22696
2.22335
2.22121
2.21968
2.21933
2.22592
2.21461
2.21681
2.21929
2.21761
2.22367
2.21885
2.21966
2.22357
2.22199
2.22109
2.22463
2.22776
2.22469
2.22303
2.22712
2.22551
2.22896
2.22579
2.22445
2.22358
2.22622
2.20623
2.21534
2.2151
2.2055
2.20891
2.21073
2.21102
2.21269
2.21409
2.20063
2.20007
2.19692
2.20317
2.20298
2.20392
2.20293
2.2059
2.2063
2.20644
2.20234
2.19877
2.20658
2.20533
2.20782
2.2058
2.19879
2.19348
2.19471
2.19833
2.20293
2.20474
2.20242
2.20138
2.19727
2.20465
2.20831
2.20115
2.20418
2.19395
2.20781
2.20399
2.20568
2.1965
2.19273
2.19482
2.19682
2.2
2.1984
2.22473
2.21717
2.21604
2.21681
2.21787
2.21067
2.21397
2.20971
2.20892
2.20972
2.21081
2.2127
2.2171
2.21569
2.21419
2.2138
2.21475
2.21435
2.21614
2.2165
2.232
2.22218
2.23724
2.23304
2.2308
2.22178
2.22802
2.22352
2.22875
2.22518
2.22775
2.23403
2.23071
2.23021
2.22703
2.22524
2.21939
2.22684
2.22749
2.21006
2.20515
2.20453
2.2089
2.20921
2.21262
2.21077
2.20811
2.20439
2.20133
2.20628
2.20453
2.20025
2.20719
2.23621
2.23319
2.22851
2.22311
2.22319
2.22335
2.22258
2.22302
2.22123
2.22674
2.22653
2.23643
2.23181
2.23301
2.23214
2.23651
2.2354
2.21002
2.20967
2.21254
2.20681
2.2163
2.21427
2.20893
2.20773
2.21203
2.21031
2.21249
2.20761
2.23171
2.2358
2.23049
2.22758
2.21631
2.21645
2.2168
2.21933
2.22231
2.22167
2.23114
2.2321
2.22726
2.22675
2.2278
2.23002
2.23154
2.23099
2.23203
2.2317
2.22997
2.26171
2.26056
2.2548
2.26609
2.25567
2.25607
2.26471
2.25991
2.25698
2.26031
2.2617
2.25297
2.25094
2.25478
2.24558
2.25113
2.24723
2.25041
2.25375
2.24935
2.25136
2.24
2.23374
2.23465
2.23907
2.23779
2.23213
2.23045
2.23524
2.23702
2.24495
2.23649
2.24112
2.24204
2.25356
2.25454
2.25513
2.25511
2.25268
2.25182
2.24475
2.25855
2.25337
2.25153
2.25503
2.24691
2.25538
2.24336
2.24097
2.24128
2.24149
2.24507
2.24387
2.24188
2.24401
2.23404
2.23396
2.23329
2.23494
2.24072
2.24457
2.2271
2.23128
2.22998
2.23059
2.22987
2.23064
2.2299
2.22028
2.22181
2.22291
2.22401
2.22966
2.22841
2.22894
2.22905
2.22313
2.22868
2.23308
2.2349
2.23245
2.23088
2.23021
2.23151
2.23417
2.22687
2.22733
2.23588
2.2327
2.23533
2.24078
2.23522
2.22977
2.2252
2.225
2.22098
2.22871
2.22321
2.22829
2.22427
2.22777
2.25369
2.24841
2.2421
2.24942
2.2524
2.25309
2.25376
2.25235
2.25551
2.24879
2.25522
2.25307
2.24611
2.24347
2.25498
2.25598
2.2508
2.25135
2.23302
2.25941
2.26201
2.26058
2.26186
2.21618
2.2153
2.21404
2.21811
2.21217
2.20845
2.21052
2.20976
2.21462
2.21554
2.21676
2.21606
2.21299
2.21177
2.21051
2.21861
2.21256
2.22273
2.14091
2.14549
2.13996
2.1433
2.14584
2.1462
2.13287
2.12857
2.1264
2.134
2.13073
2.13556
2.1284
2.13061
2.12634
2.13146
2.1326
2.12772
2.13189
2.12822
2.12292
2.13572
2.12947
2.1298
2.11174
2.11397
2.12433
2.11995
2.12615
2.11504
2.11822
2.12888
2.1305
2.12632
2.12845
2.12907
2.20693
2.19872
2.20602
2.20416
2.20017
2.21158
2.21111
2.20681
2.20457
2.20108
2.19803
2.20124
2.20025
2.20114
2.20246
2.20166
2.20194
2.20626
2.21584
2.20719
2.20954
2.21095
2.21193
2.20859
2.20459
2.20682
2.20898
2.21216
2.20623
2.20272
2.20653
2.21031
2.2046
2.20758
2.21199
2.18719
2.185
2.18343
2.18187
2.18104
2.17544
2.18607
2.18757
2.20553
2.19914
2.19657
2.19145
2.20035
2.20632
2.20427
2.21102
2.21037
2.22026
2.21706
2.21994
2.20989
2.21582
2.21413
2.19402
2.19145
2.19396
2.18178
2.18574
2.1768
2.20942
2.21356
2.20671
2.21826
2.20949
2.20839
2.21188
2.2087
2.20882
2.12602
2.1234
2.12217
2.1318
2.12912
2.12697
2.21918
2.21984
2.2231
2.22249
2.22372
2.22382
2.22682
2.21799
2.22267
2.22413
2.2238
2.22685
2.23123
2.22441
2.22417
2.22036
2.22493
2.22339
2.22256
2.21774
2.21845
2.22381
2.21951
2.21945
2.21768
2.19951
2.20328
2.20367
2.20452
2.1964
2.19747
2.20482
2.201
2.19604
2.19534
2.21378
2.21149
2.21956
2.21309
2.21044
2.21032
2.21197
2.21666
2.21177
2.21108
2.20706
2.20413
2.20707
2.2115
2.21657
2.21594
2.21192
2.21007
2.21049
2.21958
2.20596
2.20543
2.21737
2.21108
2.21287
2.22053
2.2153
2.21512
2.21483
2.20796
2.21843
2.21386
2.21886
2.21153
2.21743
2.21513
2.21658
2.21729
2.22203
2.22079
2.21851
2.21422
2.21345
2.22477
2.21341
2.21638
2.22108
2.21741
2.22304
2.22599
2.22491
2.22554
2.13428
2.12635
2.13655
2.12183
2.14894
2.11906
2.12356
2.12589
2.12105
2.14539
2.15347
2.15325
2.13204
2.13994
2.13381
2.17061
2.173
2.16075
2.16891
2.16057
2.15902
2.17154
2.18408
2.17532
2.17025
2.19093
2.1888
2.18148
2.18045
2.1926
2.19088
2.1867
2.18388
2.18415
2.18735
2.18911
2.21234
2.2144
2.20714
2.20736
2.21423
2.21492
2.21229
2.20938
2.21437
2.21401
2.20826
2.20297
2.19576
2.19739
2.20318
2.19961
2.20842
2.20537
2.19572
2.20529
2.20682
2.20621
2.20831
2.20519
2.19541
2.19611
2.20136
2.19929
2.20099
2.20145
2.19797
2.20182
2.15899
2.15365
2.16354
2.16699
2.15899
2.16021
2.15301
2.16319
2.16598
2.14553
2.14007
2.15049
2.14549
2.13416
2.14782
2.1384
2.14731
2.14048
2.13339
2.1358
2.21279
2.21159
2.21321
2.20831
2.21126
2.20775
2.21052
2.21065
2.21704
2.21007
2.21193
2.21368
2.21156
2.21174
2.21206
2.20743
2.21024
2.20664
2.20881
2.20986
2.20719
2.2091
2.20726
2.21171
2.20868
2.214
2.20994
2.17766
2.19158
2.18493
2.18633
2.18073
2.1838
2.16589
2.1713
2.17146
2.17564
2.17013
2.16732
2.17808
2.17704
2.17423
2.1744
2.17852
2.17614
2.17327
2.24082
2.24467
2.24435
2.23668
2.24313
2.22782
2.2242
2.2405
2.24148
2.24121
2.23966
2.24901
2.245
2.24702
2.23044
2.23687
2.24162
2.24445
2.21944
2.21865
2.22025
2.22362
2.22405
2.23061
2.22009
2.22838
2.22377
2.21911
2.21875
2.23099
2.22892
2.21806
2.23456
2.23695
2.23439
2.23882
2.23379
2.24303
2.24232
2.25231
2.24754
2.24747
2.24525
2.23968
2.24009
2.22361
2.22237
2.22458
2.22987
2.23147
2.24045
2.2357
2.22832
2.22146
2.23078
2.22528
2.22979
2.22427
2.22688
2.22475
2.22818
2.20108
2.20169
2.19606
2.21851
2.21256
2.21313
2.20883
2.2125
2.2142
2.20998
2.21378
2.21506
2.21788
2.21301
2.21552
2.1933
2.19929
2.19316
2.19986
2.19619
2.1916
2.20106
2.19636
2.19241
2.21168
2.21316
2.21723
2.21594
2.21369
2.20803
2.20931
2.21783
2.21616
2.21689
2.18264
2.18175
2.18643
2.17865
2.18388
2.18577
2.18595
2.17624
2.17489
2.1743
2.18771
2.20746
2.21318
2.20269
2.21683
2.19296
2.186
2.19183
2.19123
2.18747
2.18925
2.19154
2.18984
2.18405
2.21378
2.20779
2.21095
2.20325
2.20851
2.2124
2.20967
2.20735
2.21453
2.18862
2.19413
2.19451
2.20168
2.19252
2.20039
2.19694
2.19736
2.19763
2.20843
2.19601
2.18059
2.18416
2.18943
2.18999
2.15582
2.14841
2.15279
2.15045
2.15821
2.15875
2.15409
2.15213
2.16242
2.16169
2.16722
2.17345
2.16471
2.16902
2.17086
2.17504
2.17306
2.17261
2.17923
2.17585
2.17387
2.17749
2.21141
2.21206
2.20721
2.20825
2.21261
2.20681
2.20641
2.20654
2.212
2.20586
2.20633
2.20594
2.20942
2.2028
2.19735
2.20256
2.20045
2.20679
2.19748
2.20018
2.19972
2.19704
2.20027
2.17649
2.17733
2.18059
2.1776
2.19349
2.18345
2.18835
2.186
2.18492
2.19458
2.19715
2.19821
2.20442
2.20137
2.19947
2.20464
2.20071
2.20491
2.20203
2.20196
2.20515
2.16611
2.17918
2.17143
2.16485
2.16408
2.17213
2.17703
2.17173
2.14825
2.20487
2.20481
2.20343
2.20641
2.19959
2.20523
2.20707
2.20241
2.20294
2.19348
2.19283
2.19414
2.19508
2.19117
2.19251
2.1936
2.19456
2.18996
2.19143
2.19251
2.19266
2.19241
2.19065
2.1934
2.19236
2.18937
2.18414
2.18341
2.18325
2.18875
2.19084
2.20191
2.19955
2.20338
2.19958
2.13705
2.12863
2.12033
2.12126
2.13435
2.13539
2.13056
2.12915
2.12934
2.12454
2.13448
2.13492
2.13741
2.14424
2.13819
2.11231
2.11301
2.11373
2.16133
2.15875
2.15976
2.15836
2.15755
2.1526
2.14955
2.14506
2.1502
2.14791
2.14961
2.16048
2.16498
2.15767
2.16329
2.16054
2.18335
2.17629
2.18247
2.17371
2.1777
2.17927
2.17137
2.17058
2.17029
2.16803
2.16481
2.16159
2.17338
2.17015
2.19072
2.19388
2.18864
2.1914
2.19368
2.19921
2.19152
2.20109
2.19599
2.18687
2.19568
2.19542
2.19323
2.18964
2.18815
2.19097
2.18893
2.14253
2.14571
2.13752
2.14191
2.14836
2.15386
2.14021
2.135
2.13162
2.14336
2.14314
2.13675
2.13896
2.18839
2.1984
2.19245
2.19319
2.19279
2.19828
2.19572
2.20012
2.19862
2.20501
2.2056
2.20664
2.20271
2.20638
2.20348
2.20222
2.20818
2.20753
2.20787
2.20714
2.20063
2.08472
2.08951
2.09258
2.08928
2.09073
2.07254
2.07895
2.07612
2.07616
2.07528
2.09551
2.09554
2.09726
2.10902
2.10808
2.09525
2.09554
2.10681
2.10654
2.10518
2.10712
2.10301
2.11013
2.10594
2.09167
2.09676
2.09949
2.14719
2.14557
2.11214
2.12995
2.11282
2.09113
2.09248
2.09667
2.09376
2.09141
2.09035
2.10712
2.07861
2.08739
2.09838
2.10211
2.0973
2.11147
2.10845
2.10796
2.09782
2.10218
2.11811
2.11266
2.10604
2.1888
2.19021
2.18325
2.08811
2.08122
2.08248
2.07765
2.19313
2.19648
2.1923
2.21061
2.20841
2.20166
2.20197
2.20413
2.20576
2.20036
2.10831
2.11622
2.11407
2.10242
2.10667
2.105
2.11066
2.10787
2.09931
2.08711
2.19218
2.19678
2.19568
2.18991
2.19933
2.19093
2.1965
2.19706
2.19742
2.19462
2.17014
2.17176
2.16364
2.16572
2.21183
2.2089
2.20234
2.20779
2.18481
2.17824
2.17444
2.20518
2.21332
2.20916
2.21382
2.20872
2.20518
2.20375
2.20981
2.20186
2.20789
2.21394
2.20778
2.20747
2.22588
2.22414
2.22678
2.22215
2.2296
2.22583
2.22773
2.23055
2.22839
2.23042