/*--------------------------------*- C++ -*----------------------------------*\
| =========                 |                                                 |
| \\      /  F ield         | OpenFOAM: The Open Source CFD Toolbox           |
|  \\    /   O peration     | Version:  v1612+                                |
|   \\  /    A nd           | Web:      www.OpenFOAM.com                      |
|    \\/     M anipulation  |                                                 |
\*---------------------------------------------------------------------------*/
FoamFile
{
    version     2.0;
    format      ascii;
    class       volVectorField;
    location    "100";
    object      wallShearStress;
}
// * * * * * * * * * * * * * * * * * * * * * * * * * * * * * * * * * * * * * //

dimensions      [0 2 -2 0 0 0 0];

internalField   uniform (0 0 0);

boundaryField
{
    WALL
    {
        type            calculated;
        value           nonuniform List<vector> 
1567
(
(0.0203825 -0.00535131 0.0094968)
(0.0201727 -0.00321592 0.0108121)
(0.0164663 -0.0113952 0.00739837)
(0.0137351 -0.012388 0.0072767)
(0.00414449 -0.012697 0.00878431)
(0.00390204 -0.0119765 0.0107973)
(0.00636182 -0.0131762 0.00493538)
(0.0072555 -0.0128607 0.00432327)
(0.0192686 -0.00249859 0.0121414)
(0.0190723 -0.00347494 0.009838)
(0.00377155 -0.00764223 0.0127817)
(0.00359204 -0.00700622 0.0129229)
(0.0133579 -0.00939333 0.0127785)
(0.0115142 -0.00910549 0.0126383)
(0.00942071 -0.0134599 0.00672245)
(0.011858 -0.0128195 0.00572628)
(0.00549995 -0.0128291 0.00656138)
(0.00652167 -0.0129663 0.00561923)
(0.00769837 -0.0130212 0.00700982)
(0.00841101 -0.0129941 0.0061967)
(0.0119757 -0.0128173 0.0116885)
(0.0138828 -0.0123894 0.0102965)
(0.0122076 -0.0131711 0.00496928)
(0.0102074 -0.013673 0.00470301)
(0.0138581 -0.00450468 0.0145899)
(0.0159125 -0.00310574 0.0139628)
(0.00547327 -0.0118196 0.00374319)
(0.0065798 -0.0126069 0.00399164)
(0.00451809 -0.00965687 0.00638213)
(0.00439511 -0.0099837 0.00554734)
(0.00850351 -0.0102867 0.00519682)
(0.00699357 -0.010658 0.00511541)
(0.00432368 -0.0133884 0.00553784)
(0.00421753 -0.0121702 0.00557995)
(0.00430729 -0.0132476 0.00467459)
(0.00460915 -0.0145583 0.00459078)
(0.00815183 -0.0145431 0.0102342)
(0.0116751 -0.0124021 0.0043792)
(0.0112836 -0.0117603 0.00363775)
(0.0108469 -0.0127096 0.00451284)
(0.00912009 -0.0133309 0.00549107)
(0.0203282 -0.00107842 0.0131696)
(0.0193513 0.000170592 0.0147335)
(0.0183943 -0.00575684 0.0096988)
(0.0183032 -0.00673664 0.00850463)
(0.00825583 -0.012295 0.0120381)
(0.00760703 -0.0121797 0.0112233)
(0.00885833 -0.0128112 0.0121494)
(0.00934226 -0.0130932 0.0111931)
(0.0097848 -0.0133325 0.0100518)
(0.00874649 -0.0129685 0.0106767)
(0.012318 -0.011397 0.0142454)
(0.0132101 -0.0116477 0.0130642)
(0.0100654 -0.00594312 0.0193444)
(0.00973533 -0.00733406 0.0178004)
(0.0103734 -0.007223 0.0193074)
(0.00956023 -0.00800502 0.0176184)
(0.00985497 -0.00619253 0.0184536)
(0.00960009 -0.00776749 0.0180661)
(0.00862701 -0.00769063 0.0134808)
(0.00970807 -0.00787298 0.0136376)
(0.00798725 -0.00866741 0.0133964)
(0.00889727 -0.007752 0.0128396)
(0.00772216 -0.00665014 0.0132443)
(0.0195224 -0.00436096 0.0108122)
(0.0194211 -0.00494834 0.0100989)
(0.0199686 -0.00500299 0.0114599)
(0.0205815 -0.00313276 0.0132743)
(0.0201924 -0.00369737 0.0125628)
(0.0196363 -0.00377404 0.0123749)
(0.00238962 -0.0108549 0.0100085)
(0.00219537 -0.0110003 0.00919655)
(0.0022665 -0.0115461 0.00820033)
(0.00277164 -0.0116877 0.00733746)
(0.00271344 -0.011435 0.00975624)
(0.00254231 -0.0114247 0.00822305)
(0.0147751 -0.00725263 0.0147656)
(0.0134361 -0.00687341 0.0149418)
(0.0141622 -0.00699127 0.0141962)
(0.0134971 -0.00718315 0.0149325)
(0.0156817 -0.00744578 0.0139746)
(0.0156009 -0.00710868 0.0139581)
(0.0181297 -0.00542154 0.0138382)
(0.0174719 -0.00515637 0.0141525)
(0.0182787 -0.00624272 0.0126398)
(0.0185121 -0.00487811 0.0129789)
(0.0194551 -0.00543468 0.0121389)
(0.0189032 -0.00621349 0.011507)
(0.0104831 -0.0120234 0.0133919)
(0.0105901 -0.0127236 0.0133081)
(0.0110553 -0.0130277 0.0126097)
(0.00974701 -0.0118499 0.0138439)
(0.0116098 -0.0126347 0.0125008)
(0.0125288 -0.0124837 0.0119292)
(0.00842925 -0.00915267 0.017705)
(0.00833756 -0.00845796 0.0173252)
(0.00849433 -0.0077441 0.017954)
(0.00836921 -0.00967117 0.0167055)
(0.00939594 -0.00810748 0.0188379)
(0.00927659 -0.00709235 0.0184402)
(0.0159853 -0.00880244 0.00718207)
(0.0166192 -0.00762207 0.00684945)
(0.016335 -0.00779292 0.00795349)
(0.0165793 -0.00829005 0.00845436)
(0.0157205 -0.00922565 0.00605698)
(0.0159064 -0.00953824 0.00646907)
(0.0153759 -0.0102024 0.00617665)
(0.00408581 -0.00811998 0.00592093)
(0.00406367 -0.00851993 0.00618104)
(0.00527396 -0.00928558 0.00571385)
(0.00530867 -0.00988393 0.00570557)
(0.00569706 -0.0104626 0.00540547)
(0.00472537 -0.00859226 0.00571277)
(0.00632053 -0.0147524 0.00426669)
(0.00476473 -0.0130647 0.00453606)
(0.00561781 -0.0136601 0.00461227)
(0.00642835 -0.0138478 0.00423698)
(0.00346388 -0.0126249 0.0049109)
(0.00488894 -0.0140458 0.00457127)
(0.00270167 -0.0123356 0.00597314)
(0.00338292 -0.0121962 0.00604024)
(0.00276656 -0.0121192 0.00656957)
(0.00298632 -0.0124833 0.0057543)
(0.00267622 -0.0112896 0.00646225)
(0.00473404 -0.0111198 0.00552188)
(0.00521412 -0.0106012 0.00547228)
(0.00544667 -0.0115022 0.00526705)
(0.0057066 -0.0110525 0.0051094)
(0.00427297 -0.0103783 0.00580761)
(0.00230645 -0.00958482 0.00876423)
(0.00219884 -0.010533 0.00908165)
(0.00218225 -0.0104289 0.00775518)
(0.0024529 -0.0108583 0.00869386)
(0.00230976 -0.0103011 0.00751602)
(0.00334287 -0.0087571 0.00784304)
(0.00307736 -0.00934776 0.0070245)
(0.00379888 -0.00904106 0.00679389)
(0.00379582 -0.00983973 0.00667674)
(0.00300596 -0.00960719 0.00854747)
(0.00290996 -0.00910926 0.00713657)
(0.0059249 -0.00349623 0.012498)
(0.00667905 -0.0028955 0.0130069)
(0.00506536 -0.00402881 0.0106293)
(0.00520973 -0.00378896 0.0115825)
(0.00530393 -0.00307036 0.0110461)
(0.00587377 -0.00223384 0.0121021)
(0.00779828 -0.0040053 0.0148648)
(0.00923168 -0.00284762 0.0154064)
(0.00820798 -0.00372882 0.0154236)
(0.00711895 -0.00388548 0.0144805)
(0.00875973 -0.00377433 0.0141486)
(0.0098843 -0.00378119 0.0153627)
(0.00534826 -0.00707398 0.0130009)
(0.00637266 -0.00702505 0.0141632)
(0.0046586 -0.00721436 0.0125114)
(0.00580503 -0.00781022 0.0138198)
(0.00445764 -0.00643106 0.0124908)
(0.00442704 -0.00892601 0.0129446)
(0.0040594 -0.00939518 0.0134026)
(0.017164 -0.00376327 0.0135558)
(0.0177134 -0.00470539 0.0117587)
(0.0177051 -0.00315799 0.01302)
(0.0169057 -0.00207848 0.0139199)
(0.0175984 -0.00439367 0.0121341)
(0.0133727 -0.00215757 0.0151303)
(0.0135524 -0.00359995 0.0151657)
(0.0128516 -0.0039246 0.0160948)
(0.0146621 -0.00320148 0.0154515)
(0.0119082 -0.00364983 0.0154645)
(0.0115183 -0.00248223 0.0139744)
(0.011504 -0.00230474 0.0153878)
(0.0104723 -0.00289814 0.0159291)
(0.0129878 -0.00247793 0.0157899)
(0.0134922 -0.00193827 0.0153391)
(0.01137 -0.00209727 0.0169116)
(0.0120884 -0.0013927 0.0156306)
(0.0159921 -0.00232645 0.013598)
(0.018856 -0.00249258 0.0140417)
(0.014764 -0.001784 0.0143166)
(0.0170414 -0.00183956 0.0157064)
(0.0182292 -0.00191279 0.0128256)
(0.0177172 -0.00259431 0.0142917)
(0.00494252 -0.0122854 0.00350491)
(0.00402699 -0.0122098 0.00419621)
(0.00474839 -0.0124048 0.00401972)
(0.00613262 -0.0125022 0.00339651)
(0.00425715 -0.0122195 0.00389016)
(0.00565291 -0.0126286 0.00368023)
(0.00282128 -0.0118889 0.00459262)
(0.00224294 -0.0117677 0.00589348)
(0.00163646 -0.0114442 0.00644695)
(0.00296871 -0.0122647 0.00501457)
(0.0125106 -0.00779782 0.011577)
(0.0131751 -0.00667004 0.0116485)
(0.0138979 -0.00777529 0.00992509)
(0.0132161 -0.00837863 0.0109261)
(0.0141552 -0.00745442 0.00977343)
(0.0142592 -0.00730107 0.0112076)
(0.0122628 -0.00925605 0.00827806)
(0.013169 -0.00894061 0.00893961)
(0.0132216 -0.00940804 0.00771383)
(0.0124339 -0.00905276 0.00941406)
(0.0126445 -0.00957019 0.00765093)
(0.0124387 -0.00852755 0.00924708)
(0.0144488 -0.0100504 0.00548602)
(0.0146679 -0.00987708 0.00548845)
(0.0136573 -0.0107541 0.00510495)
(0.0148431 -0.00957943 0.00632146)
(0.0147782 -0.00965745 0.00637378)
(0.0138143 -0.0111238 0.00500858)
(0.0159289 -0.00822189 0.00821539)
(0.0152507 -0.00716315 0.0103988)
(0.0165196 -0.00734086 0.00931443)
(0.0157009 -0.00829391 0.00833976)
(0.0154086 -0.00772667 0.0091567)
(0.0160237 -0.00666578 0.0101626)
(0.0164108 -0.0053169 0.0111555)
(0.0161281 -0.00557861 0.0126315)
(0.0176023 -0.00541179 0.0112195)
(0.0174215 -0.00681975 0.0105282)
(0.0163854 -0.00527221 0.0120522)
(0.0168503 -0.0065331 0.010572)
(0.0196927 -0.00766627 0.00839068)
(0.0179315 -0.00879384 0.00706688)
(0.0175695 -0.00923829 0.00707851)
(0.0183766 -0.00809818 0.00766607)
(0.0186816 -0.00893003 0.00814882)
(0.0189343 -0.00697673 0.00796719)
(0.0182733 -0.00907225 0.00782535)
(0.0178417 -0.0086846 0.00678287)
(0.0165987 -0.0103363 0.0068255)
(0.0166316 -0.0100286 0.00710652)
(0.0184477 -0.00852836 0.00781076)
(0.0172066 -0.00941602 0.00698901)
(0.019116 -0.00715847 0.00861006)
(0.0199589 -0.00441875 0.0100545)
(0.0202807 -0.00479001 0.0100175)
(0.0199481 -0.00680368 0.00868992)
(0.0196349 -0.00570443 0.00917496)
(0.0197203 -0.00597888 0.00918567)
(0.0126023 -0.00624021 0.0136495)
(0.0143935 -0.00537235 0.0129137)
(0.0147756 -0.0060654 0.0119223)
(0.0132951 -0.00633191 0.0127782)
(0.013256 -0.00548336 0.0136501)
(0.0144811 -0.00658957 0.0122373)
(0.0117904 -0.00472863 0.0144781)
(0.0127677 -0.00432869 0.0138374)
(0.0154565 -0.0044481 0.0130005)
(0.014507 -0.00416086 0.013542)
(0.0124972 -0.00396267 0.0147654)
(0.0143535 -0.00488029 0.0138729)
(0.00977306 -0.0050071 0.0156703)
(0.00796347 -0.00489685 0.0137016)
(0.0101068 -0.00400627 0.0156864)
(0.00842743 -0.00494369 0.0154221)
(0.00787793 -0.00580138 0.0149229)
(0.0111281 -0.00465973 0.0167547)
(0.0182263 -0.0082843 0.0086058)
(0.0183922 -0.00944579 0.00935294)
(0.0193613 -0.00869514 0.00890911)
(0.0176232 -0.0102433 0.00920491)
(0.0183461 -0.00890632 0.00852655)
(0.0176105 -0.00975564 0.00872596)
(0.0205069 -0.00612752 0.00844174)
(0.0199993 -0.00783516 0.00945018)
(0.0211482 -0.00579189 0.00948693)
(0.0203706 -0.00742536 0.00950757)
(0.0215639 -0.0048129 0.00961122)
(0.0216119 -0.00591264 0.00987623)
(0.0205119 -0.00377324 0.010565)
(0.0207113 -0.00257299 0.0111958)
(0.0201817 -0.00565161 0.00903232)
(0.0201475 -0.00514674 0.00929521)
(0.0203696 -0.00401437 0.00987144)
(0.0212047 -0.00315119 0.0111792)
(0.0202366 -0.0046916 0.010492)
(0.0203717 -0.00477643 0.00961001)
(0.0190676 -0.00820622 0.00794622)
(0.0189793 -0.00863623 0.00803968)
(0.0198426 -0.00673527 0.0085468)
(0.0197921 -0.00611507 0.00848579)
(0.0194248 -0.00792633 0.00839914)
(0.0193926 -0.00739322 0.00831972)
(0.0204311 -0.00672355 0.00946128)
(0.0208601 -0.0051839 0.00916942)
(0.0198879 -0.00705645 0.00887221)
(0.0198199 -0.00761343 0.00869206)
(0.0192925 -0.00789857 0.00856109)
(0.0205761 -0.00586366 0.00912202)
(0.00604499 -0.00227023 0.0125457)
(0.00538359 -0.00273245 0.0117052)
(0.00536407 -0.00332401 0.0111019)
(0.0071224 -0.00169659 0.0140349)
(0.00755791 -0.013888 0.00455036)
(0.00952577 -0.0140051 0.00447909)
(0.00948309 -0.0132145 0.00449322)
(0.00807855 -0.0132398 0.00445555)
(0.00829639 -0.0136956 0.00401275)
(0.00814299 -0.0106253 0.015934)
(0.00750215 -0.0105347 0.0151689)
(0.00828436 -0.0111945 0.0154368)
(0.00783197 -0.0112418 0.0145131)
(0.00820858 -0.011881 0.0142756)
(0.00865957 -0.0124 0.0136325)
(0.00980822 -0.0124453 0.0130765)
(0.00890997 -0.0123693 0.0122309)
(0.00993272 -0.0130284 0.0118072)
(0.0107711 -0.0129395 0.0119985)
(0.0089124 -0.0120277 0.0131043)
(0.0107942 -0.0128581 0.0110204)
(0.00871168 -0.00998965 0.0163389)
(0.00939269 -0.011321 0.0154079)
(0.00941444 -0.0118521 0.0147023)
(0.00817552 -0.010178 0.015713)
(0.00860488 -0.0111292 0.0148679)
(0.00915218 -0.0105174 0.0160266)
(0.0128682 -0.0122084 0.0132165)
(0.0118192 -0.0121514 0.0125894)
(0.0115738 -0.0115552 0.0139467)
(0.0113523 -0.0121176 0.0137237)
(0.0106773 -0.0113288 0.0143776)
(0.0128904 -0.0119853 0.0122857)
(0.0145299 -0.0116762 0.00802122)
(0.0157983 -0.0110879 0.0082861)
(0.0174067 -0.0099963 0.00737878)
(0.017566 -0.0105217 0.00775804)
(0.0158766 -0.0120355 0.00789088)
(0.0166567 -0.0113141 0.00788647)
(0.0180122 -0.00970867 0.00852642)
(0.0182927 -0.0095037 0.00852124)
(0.0160664 -0.0112589 0.00859263)
(0.0172757 -0.0112881 0.00859674)
(0.0168526 -0.0103502 0.0085043)
(0.0174129 -0.0105912 0.00855684)
(0.00613519 -0.0101333 0.0141252)
(0.00653267 -0.0107804 0.0131012)
(0.00636179 -0.0112827 0.012816)
(0.00634231 -0.0102699 0.0141052)
(0.00708512 -0.0125056 0.0144557)
(0.00811295 -0.00820657 0.0178283)
(0.00827334 -0.0105111 0.0169354)
(0.00744709 -0.00875802 0.0163641)
(0.00674763 -0.00900533 0.015742)
(0.00673799 -0.0090947 0.0157738)
(0.00780241 -0.00755876 0.0172374)
(0.00915913 -0.0135383 0.00840845)
(0.0120563 -0.0143595 0.00728449)
(0.0104958 -0.0135045 0.00823329)
(0.0111966 -0.0140165 0.00815899)
(0.00993542 -0.0133761 0.0072812)
(0.00912919 -0.0138729 0.00801375)
(0.0143865 -0.0120906 0.00697386)
(0.0165343 -0.0107753 0.00683123)
(0.0154185 -0.0117484 0.00694412)
(0.0141488 -0.0133037 0.00763782)
(0.0132525 -0.0131145 0.00785586)
(0.0151897 -0.0118521 0.00667391)
(0.0161381 -0.0111722 0.00670256)
(0.0149363 -0.0119919 0.00764936)
(0.0155253 -0.0115912 0.00794726)
(0.0165903 -0.0102522 0.00999414)
(0.0159802 -0.010739 0.00966692)
(0.0168829 -0.010413 0.00897512)
(0.0146878 -0.0123338 0.00778875)
(0.0151056 -0.0106423 0.0081709)
(0.0173202 -0.00653902 0.0130413)
(0.0172575 -0.00530619 0.0138606)
(0.0167639 -0.0072131 0.0137513)
(0.015949 -0.00631497 0.014143)
(0.0162334 -0.00599083 0.0149298)
(0.0173079 -0.00751012 0.0129304)
(0.0100625 -0.00747971 0.013973)
(0.0117898 -0.00673226 0.0144574)
(0.0123868 -0.00778213 0.0142309)
(0.0108764 -0.0076238 0.013738)
(0.0123958 -0.00819314 0.014072)
(0.0106482 -0.00688371 0.0147246)
(0.0163212 -0.0105766 0.00815626)
(0.0169655 -0.00982023 0.0084864)
(0.0156802 -0.0107731 0.00681914)
(0.015161 -0.0115629 0.00666908)
(0.0156372 -0.0107142 0.00690606)
(0.0168034 -0.0100663 0.00772224)
(0.0129288 -0.0121908 0.00568241)
(0.0111645 -0.0127873 0.00498565)
(0.0134768 -0.013641 0.00623773)
(0.0120481 -0.012888 0.00523919)
(0.0117228 -0.012338 0.00512831)
(0.0136419 -0.0116812 0.00591218)
(0.0128555 -0.0118515 0.00558517)
(0.0107115 -0.0117743 0.00497025)
(0.013272 -0.0113711 0.00595794)
(0.0113902 -0.0113947 0.00507242)
(0.0115657 -0.0118802 0.00499042)
(0.0126168 -0.0110056 0.00528056)
(0.00676331 -0.00630093 0.0152037)
(0.00794029 -0.00665359 0.0139088)
(0.00808716 -0.00751104 0.0159721)
(0.00870657 -0.00638569 0.0151531)
(0.00707373 -0.00673112 0.0142707)
(0.00650133 -0.00655022 0.0146422)
(0.00906286 -0.00724974 0.0156437)
(0.00996995 -0.00661038 0.0172379)
(0.0117148 -0.00732229 0.015766)
(0.0117513 -0.00668353 0.0162816)
(0.0115572 -0.00653446 0.017801)
(0.0101213 -0.00628887 0.01549)
(0.00864156 -0.00678878 0.0182731)
(0.00735415 -0.00908189 0.0177394)
(0.00847675 -0.00891841 0.017764)
(0.00862004 -0.00678896 0.0180538)
(0.00838846 -0.00891992 0.0182078)
(0.00692315 -0.00902549 0.0164552)
(0.00703387 -0.00780932 0.0170255)
(0.00905127 -0.00619019 0.0175652)
(0.00759371 -0.00728662 0.0163471)
(0.00824936 -0.00930958 0.0174961)
(0.00937995 -0.00662743 0.0174322)
(0.00634931 -0.0075236 0.0157576)
(0.00536025 -0.0129362 0.010171)
(0.00616765 -0.0132269 0.00864564)
(0.00529192 -0.0124222 0.00848322)
(0.00621819 -0.0128231 0.00916776)
(0.00590409 -0.0130782 0.0106137)
(0.0048781 -0.0123341 0.0113879)
(0.00460965 -0.0128152 0.00914007)
(0.00413378 -0.0126829 0.0102302)
(0.00416819 -0.0116629 0.00955192)
(0.00483804 -0.0128435 0.00842333)
(0.00625403 -0.0133469 0.00709431)
(0.00540917 -0.012883 0.00726901)
(0.00586329 -0.0130453 0.00747426)
(0.00529383 -0.0127302 0.00807759)
(0.00341975 -0.0111543 0.0130627)
(0.00333839 -0.0100907 0.0121832)
(0.00404432 -0.00944005 0.0134323)
(0.00377593 -0.0123959 0.0124713)
(0.00652347 -0.0115424 0.0152302)
(0.00556974 -0.0110268 0.0141646)
(0.00496401 -0.0112574 0.0128941)
(0.00583662 -0.0100484 0.0151192)
(0.00561452 -0.0121238 0.0126026)
(0.00580416 -0.0116338 0.0133959)
(0.00716625 -0.00830673 0.0167787)
(0.00595983 -0.0100353 0.0155048)
(0.00708613 -0.00786239 0.0170474)
(0.00576511 -0.00797424 0.0156039)
(0.0054915 -0.00916648 0.0143859)
(0.00658259 -0.00876364 0.0161887)
(0.00456464 -0.00998986 0.0133884)
(0.00388682 -0.0101666 0.0120275)
(0.00476008 -0.00996198 0.0135433)
(0.00434348 -0.00962495 0.0135207)
(0.00427497 -0.0111969 0.0124329)
(0.00460505 -0.0111717 0.0130145)
(0.0117273 -0.0117128 0.00407179)
(0.0127634 -0.0120206 0.00462141)
(0.0129756 -0.0115343 0.00446071)
(0.0141637 -0.0108334 0.00483704)
(0.0106022 -0.0127846 0.00434278)
(0.0139211 -0.0115942 0.00499987)
(0.00884169 -0.0122082 0.00364104)
(0.0106463 -0.0118532 0.00360738)
(0.0118008 -0.0123744 0.00452964)
(0.00885841 -0.0133255 0.0042885)
(0.00941965 -0.0124965 0.00401241)
(0.00977934 -0.0126436 0.00394621)
(0.0103035 -0.0119944 0.00300924)
(0.0111423 -0.0116586 0.00395139)
(0.00385422 -0.0123352 0.00589483)
(0.00369809 -0.0120468 0.00628458)
(0.00439368 -0.0128022 0.00552403)
(0.00453005 -0.0127757 0.00644277)
(0.00542638 -0.0128886 0.00527919)
(0.00681864 -0.0128353 0.00461954)
(0.00629899 -0.0126534 0.00440835)
(0.00536495 -0.0123895 0.0048785)
(0.00766785 -0.0135471 0.00789867)
(0.00902199 -0.0142681 0.00763277)
(0.0100545 -0.0126282 0.00620393)
(0.00933134 -0.0133854 0.00689482)
(0.00679209 -0.0129738 0.0072845)
(0.0083499 -0.0130254 0.00646015)
(0.0119656 -0.0126406 0.00479786)
(0.00896195 -0.0125011 0.00482499)
(0.00779325 -0.0125718 0.00491811)
(0.00905925 -0.0134381 0.00475282)
(0.0111086 -0.0123856 0.00424196)
(0.00968349 -0.0130225 0.00474527)
(0.0190467 -0.00480824 0.0112342)
(0.019468 -0.00437905 0.012927)
(0.0193151 -0.00540886 0.0121311)
(0.0199754 -0.00446337 0.013443)
(0.0196794 -0.00364815 0.0138155)
(0.0192483 -0.00534807 0.0107433)
(0.0193087 -0.00323024 0.0114842)
(0.020024 -0.000907591 0.0113694)
(0.0182634 -0.00393972 0.00937943)
(0.0185923 -0.00186481 0.0102185)
(0.0190677 -0.00174012 0.0106)
(0.0186972 -0.00286036 0.00969204)
(0.0180796 -0.00313331 0.00960631)
(0.0175224 -0.00338005 0.00858161)
(0.00669597 -0.00651806 0.00524171)
(0.00580638 -0.00700209 0.0060997)
(0.00604632 -0.00628841 0.00559861)
(0.00555308 -0.00609777 0.005559)
(0.00527722 -0.00621366 0.00575655)
(0.00691797 -0.00708513 0.00553946)
(0.00620218 -0.00605265 0.00534633)
(0.0073235 -0.00831371 0.0052623)
(0.00739486 -0.00770259 0.00490928)
(0.0058948 -0.00744538 0.00529258)
(0.00527668 -0.0072397 0.00548026)
(0.00598587 -0.00791757 0.00553128)
(0.00662214 -0.00782426 0.00561025)
(0.0162757 -0.000185281 0.0198404)
(0.0140142 -0.0020128 0.0207201)
(0.0136299 -0.00193809 0.02074)
(0.0155354 -0.00336376 0.0204603)
(0.0156207 -0.0012335 0.0200965)
(0.0136809 -0.00257805 0.0199764)
(0.0157331 -0.00250689 0.0210305)
(0.0155167 -0.00134352 0.0203522)
(0.012221 -0.00393806 0.0193811)
(0.0123826 -0.00190168 0.0180999)
(0.0136826 -0.00124019 0.0185193)
(0.0143765 -0.00440378 0.0214491)
(0.016767 -0.000323121 0.0179488)
(0.0177958 0.00030442 0.0171334)
(0.0167061 0.00112273 0.0176079)
(0.0181441 -0.000188962 0.0164594)
(0.016506 0.000279789 0.0188728)
(0.0184874 1.2656e-05 0.0179281)
(0.0187712 -0.00116929 0.0201608)
(0.0180542 0.000347366 0.0200087)
(0.017268 -0.000632287 0.0182624)
(0.0188849 0.000377451 0.0178439)
(0.0183989 0.000291588 0.0165222)
(0.0191383 -0.000486116 0.0185345)
(0.0173674 -0.00145337 0.0195411)
(0.0190185 -0.00233448 0.0174688)
(0.0177398 -0.00297188 0.0179707)
(0.0185766 -0.00109353 0.0172758)
(0.0165524 -0.0034247 0.0199461)
(0.016173 -0.00326626 0.0196288)
(0.017406 -0.00130841 0.0183083)
(0.0153955 -0.0100609 0.00616673)
(0.0146371 -0.0101428 0.00570561)
(0.0163072 -0.00922602 0.00699955)
(0.0169489 -0.0104433 0.00776001)
(0.0161185 -0.0106958 0.00702428)
(0.00102798 -0.00984944 0.00888095)
(0.00129755 -0.0106751 0.00786782)
(0.0019511 -0.00893994 0.0108613)
(0.00261054 -0.00789675 0.01114)
(0.00153821 -0.00914251 0.00976744)
(0.00186965 -0.00918803 0.0109757)
(0.00143564 -0.00843437 0.0098228)
(0.00251343 -0.00828059 0.01165)
(0.0144642 0.000401367 0.0191128)
(0.0146262 -0.000747814 0.0217747)
(0.0122872 0.000247818 0.0179884)
(0.00988365 -0.00935797 0.0162362)
(0.0106373 -0.010425 0.0153942)
(0.00988869 -0.00868347 0.0167884)
(0.0105377 -0.00980088 0.0158843)
(0.0100096 -0.00995984 0.0155245)
(0.010402 -0.00922291 0.01666)
(0.0103966 -0.00773828 0.0192251)
(0.00969725 -0.00841488 0.0182041)
(0.00909646 -0.00683016 0.0185755)
(0.00909602 -0.00840999 0.0179202)
(0.0101261 -0.00672398 0.0193)
(0.00944045 -0.00915117 0.0176608)
(0.00974345 -0.0109516 0.0152215)
(0.00986568 -0.0104522 0.0156603)
(0.00946642 -0.0102904 0.0160061)
(0.00965953 -0.00976822 0.016249)
(0.0091089 -0.010423 0.0151487)
(0.00917562 -0.00931935 0.0166374)
(0.00281762 -0.00739496 0.0108424)
(0.00249679 -0.00857547 0.010582)
(0.00314694 -0.00995215 0.0119427)
(0.00243216 -0.00964018 0.0101732)
(0.00232641 -0.00955985 0.00982623)
(0.00366994 -0.0080475 0.0113643)
(0.0202927 0.000859857 0.0130559)
(0.0200052 0.00197198 0.0140112)
(0.0214252 0.00040879 0.0131127)
(0.00503097 -0.00411755 0.0120852)
(0.00594031 -0.00388108 0.0129448)
(0.00491845 -0.00462156 0.0114786)
(0.00439408 -0.00446946 0.0106452)
(0.00530863 -0.00338632 0.0116326)
(0.00603802 -0.00287642 0.0133061)
(0.00309614 -0.006437 0.00950504)
(0.00298194 -0.00763621 0.0100535)
(0.00339223 -0.0066836 0.0100261)
(0.00359415 -0.00657391 0.0104926)
(0.00310136 -0.00722095 0.00906677)
(0.00379802 -0.00649705 0.0108165)
(0.00314992 -0.00682761 0.00807962)
(0.00331177 -0.00737809 0.00850119)
(0.00348746 -0.00782039 0.00674085)
(0.00321583 -0.00750995 0.00705586)
(0.00320096 -0.00750568 0.00744845)
(0.00357087 -0.00760903 0.00754413)
(0.0213915 -0.00283132 0.0102941)
(0.0215623 -0.00156135 0.0111931)
(0.0206965 -0.000852352 0.0111478)
(0.0202565 -0.00098554 0.0127486)
(0.0203072 0.00122312 0.015289)
(0.0157359 0.00149786 0.0157454)
(0.00715944 -0.0123656 0.0047067)
(0.00786811 -0.012222 0.00420896)
(0.00907865 -0.012775 0.00466088)
(0.00969436 -0.0124459 0.00465424)
(0.0073749 -0.0116818 0.00478803)
(0.00873617 -0.0118059 0.00460514)
(0.00933704 -0.0100419 0.0166929)
(0.010298 -0.0107787 0.0151447)
(0.0110954 -0.0014248 0.019893)
(0.0130687 -0.00432799 0.0208781)
(0.0131948 -0.00350661 0.0203315)
(0.00688554 -0.00813532 0.013445)
(0.00599427 -0.00829802 0.0127266)
(0.00460087 -0.0078888 0.0120681)
(0.00596902 -0.00743955 0.0132199)
(0.00513065 -0.00684898 0.0131569)
(0.00409156 -0.00762974 0.0129506)
(0.00414234 -0.00730251 0.0124972)
(0.00295787 -0.00823355 0.0121856)
(0.00325478 -0.00906966 0.0119834)
(0.0211536 -0.00069096 0.0115832)
(0.0211801 -0.00185707 0.0113973)
(0.0218032 -0.00383843 0.0103185)
(0.0216866 -0.00316354 0.0104706)
(0.0218451 -0.00349069 0.0099978)
(0.0135965 -0.011218 0.00974629)
(0.0133174 -0.00989897 0.0117432)
(0.0123544 -0.00908514 0.0130088)
(0.0112703 -0.00858027 0.0130981)
(0.0119033 -0.0083346 0.0137442)
(0.0179184 -0.00652252 0.00851639)
(0.01626 -0.0079072 0.00719584)
(0.0174299 -0.00729695 0.00758139)
(0.0157755 -0.00870075 0.00637643)
(0.0151577 -0.00988553 0.00640712)
(0.0170393 -0.00871554 0.0079515)
(0.0168976 -0.00882563 0.00768972)
(0.0173509 -0.00781697 0.00796105)
(0.0178635 -0.00838664 0.00848082)
(0.0184002 -0.00602446 0.00938403)
(0.0183831 -0.00716787 0.00931085)
(0.0195912 -0.00275899 0.0162926)
(0.0173567 -0.00306145 0.0166031)
(0.0163687 -0.00216117 0.0170038)
(0.015908 -0.00402919 0.0190752)
(0.0152417 -0.00402858 0.0193215)
(0.0173438 -0.00281101 0.0172156)
(0.017295 -0.00418355 0.0183959)
(0.017648 -0.00459025 0.016025)
(0.0181623 -0.00306614 0.0141063)
(0.0164139 -0.00477453 0.00736112)
(0.0166687 -0.00530649 0.00758496)
(0.0171476 -0.00466358 0.0079845)
(0.0157207 -0.00604682 0.00692264)
(0.015326 -0.00503657 0.00633755)
(0.0144441 -0.00578569 0.00619689)
(0.0161349 -0.0077115 0.00709128)
(0.0167955 -0.00719099 0.00757296)
(0.0145001 -0.00789054 0.00626144)
(0.0152465 -0.00685451 0.00686547)
(0.0164705 -0.00694854 0.00765161)
(0.015875 -0.00770782 0.00734378)
(0.013384 -0.00823812 0.00650548)
(0.0139963 -0.00768806 0.00674621)
(0.0202717 -0.00159572 0.0175533)
(0.0190323 -0.000912894 0.0164944)
(0.0170437 -0.00288115 0.0195421)
(0.0189848 -0.000333909 0.0158647)
(0.0192227 8.31558e-05 0.0177472)
(0.0197378 -0.000159247 0.0133736)
(0.0184163 -0.000169218 0.0146108)
(0.0191697 -0.000220134 0.0147446)
(0.0189856 0.000389982 0.0156675)
(0.0195621 -0.00167047 0.0142413)
(0.0193502 -0.000535205 0.0123563)
(0.0101374 -0.007523 0.0190787)
(0.0114468 -0.00615494 0.0199396)
(0.0139022 -0.00542477 0.0197395)
(0.0124763 -0.00556795 0.0194106)
(0.0110148 -0.00564036 0.0186625)
(0.0142193 -0.00410699 0.0213697)
(0.011121 -0.00284743 0.0196537)
(0.0136786 -0.00229311 0.0211444)
(0.0152362 -0.00241241 0.0186616)
(0.0170589 -0.000874934 0.0194591)
(0.0157283 0.000211764 0.0197695)
(0.012075 -0.00232885 0.0194232)
(0.0118506 -0.00149942 0.0209363)
(0.0139251 -0.011096 0.00573451)
(0.0107029 -0.0107079 0.0053375)
(0.0126012 -0.0107998 0.00569605)
(0.0129383 -0.00969468 0.00552843)
(0.00998075 -0.0100786 0.00511291)
(0.00808482 -0.00918864 0.00540771)
(0.0141189 -0.00573144 0.00640845)
(0.00873338 -0.00801956 0.00506785)
(0.0108153 -0.00811458 0.00537369)
(0.0121367 -0.00826789 0.00588997)
(0.00982689 -0.00804582 0.00498673)
(0.00749842 -0.0078325 0.00563243)
(0.00880509 -0.00811321 0.00574277)
(0.00831103 -0.00674814 0.00591929)
(0.00537776 -0.00597212 0.00583099)
(0.0150983 -0.00534386 0.00681914)
(0.0193058 0.000637745 0.0144768)
(0.0206452 0.000237228 0.0165334)
(0.0163061 -0.010279 0.00650879)
(0.0166073 -0.00987571 0.00659679)
(0.0154697 -0.010205 0.00563028)
(0.0155667 -0.00979059 0.00560148)
(0.0147162 -0.0105056 0.00517446)
(0.0126047 -0.0133616 0.00697364)
(0.014081 -0.0127638 0.00634384)
(0.0153683 -0.0110384 0.0058739)
(0.0152324 -0.0105077 0.00566241)
(0.0139838 -0.0116134 0.00573126)
(0.00749977 -0.0130203 0.00529032)
(0.00685227 -0.0126695 0.00570538)
(0.012941 -0.0114368 0.00467777)
(0.0122356 -0.012059 0.00459764)
(0.00678973 -0.00987041 0.0165881)
(0.00515633 -0.00991213 0.0141716)
(0.00641884 -0.0110621 0.0156412)
(0.00667564 -0.0136184 0.00617524)
(0.00484863 -0.0128146 0.00492034)
(0.00392684 -0.0121024 0.00485409)
(0.00466678 -0.0132203 0.0069792)
(0.00422171 -0.0131365 0.00815878)
(0.00132775 -0.00990915 0.00957506)
(0.00155454 -0.0107319 0.00877671)
(0.00159747 -0.0102486 0.0094313)
(0.00200154 -0.0103532 0.0106358)
(0.00196597 -0.0092527 0.0116497)
(0.00200519 -0.00953466 0.0105352)
(0.0024706 -0.00917341 0.0114522)
(0.00320419 -0.0117791 0.0111457)
(0.00301147 -0.0101563 0.0119916)
(0.00364558 -0.0104219 0.0121775)
(0.00442416 -0.0102466 0.0139286)
(0.004817 -0.0103194 0.0142929)
(0.00441442 -0.0110322 0.0137315)
(0.00414163 -0.00904684 0.0144439)
(0.00478528 -0.0126374 0.00673234)
(0.0034804 -0.0118762 0.0103015)
(0.00387988 -0.0129406 0.00890536)
(0.00446827 -0.0130877 0.00806029)
(0.00552549 -0.0126509 0.011635)
(0.00424853 -0.0116512 0.010526)
(0.00483943 -0.0116614 0.0122695)
(0.0134975 -0.00591457 0.016213)
(0.0126179 -0.00572268 0.0166294)
(0.013762 -0.00549684 0.0167938)
(0.012924 -0.00606181 0.0173424)
(0.0154492 -0.00410893 0.0188764)
(0.0128499 -0.00490816 0.0180487)
(0.0145801 -0.00392141 0.0164583)
(0.0139018 -0.00545692 0.0177392)
(0.0149751 -0.00364292 0.017155)
(0.0161646 -0.00516433 0.0180328)
(0.016622 -0.0040662 0.0165377)
(0.0164427 -0.005069 0.0173709)
(0.00514684 -0.0101453 0.0148041)
(0.00529513 -0.00954683 0.0152512)
(0.00556521 -0.00811851 0.0152596)
(0.0119834 -0.00558595 0.0183307)
(0.0106794 -0.0065974 0.0184647)
(0.0116731 -0.00550107 0.0170539)
(0.0107737 -0.00584823 0.0173176)
(0.01095 -0.00702911 0.0166279)
(0.00598909 -0.00888952 0.0161854)
(0.00705542 -0.00761843 0.0136265)
(0.00592924 -0.00724433 0.0148781)
(0.002574 -0.00870226 0.0117735)
(0.00292735 -0.00781835 0.012429)
(0.00441515 -0.006588 0.013624)
(0.00281979 -0.00801712 0.0120757)
(0.00446818 -0.00756268 0.0144302)
(0.00380184 -0.00847677 0.0132897)
(0.0109719 -0.0122047 0.00483619)
(0.014511 -0.0106787 0.00606376)
(0.0135086 -0.011543 0.00570876)
(0.00990314 -0.00650969 0.0151164)
(0.00877349 -0.00728924 0.0139235)
(0.0107784 -0.00810277 0.0137039)
(0.0141969 -0.00550731 0.015461)
(0.0143649 -0.00499642 0.0158241)
(0.0147048 -0.00494514 0.0155476)
(0.0152562 -0.00551887 0.0156172)
(0.0176071 -0.00841425 0.01032)
(0.0178699 -0.00835677 0.0117596)
(0.0174308 -0.00799419 0.0118826)
(0.0184152 -0.00851532 0.0110452)
(0.0177768 -0.00840514 0.00930317)
(0.0167408 -0.00917118 0.00749611)
(0.0182144 -0.0094895 0.00942581)
(0.0177721 -0.00894205 0.00952995)
(0.0183365 -0.00843414 0.00971402)
(0.0130839 -0.00827286 0.0132186)
(0.01335 -0.0079676 0.0135915)
(0.0131954 -0.00869584 0.012339)
(0.0147288 -0.0082416 0.0132869)
(0.0137351 -0.0120218 0.0080697)
(0.014031 -0.010491 0.00995913)
(0.0151117 -0.010665 0.00908596)
(0.0138868 -0.0100266 0.0107605)
(0.0144642 -0.0113396 0.00907609)
(0.0150129 -0.00931678 0.0124633)
(0.0157018 -0.0105779 0.0105077)
(0.0146197 -0.00972912 0.0110664)
(0.0141818 -0.00998226 0.0120379)
(0.0136139 -0.0126146 0.00744589)
(0.0129316 -0.012827 0.00643691)
(0.0128064 -0.0121272 0.00582024)
(0.0125953 -0.0128794 0.00584344)
(0.0126765 -0.0121761 0.00516207)
(0.0167931 -0.00908922 0.00987518)
(0.0167284 -0.0089306 0.0112337)
(0.0165175 -0.00977349 0.0089009)
(0.0137698 -0.0116189 0.00729884)
(0.0140052 -0.0124877 0.00694774)
(0.0150476 -0.0114735 0.00848688)
(0.0153738 -0.00945685 0.0113083)
(0.0155403 -0.0101898 0.0106748)
(0.0170776 -0.00988334 0.0112328)
(0.0164804 -0.00849252 0.0115638)
(0.0140404 -0.013554 0.00647628)
(0.0146103 -0.0112073 0.00668349)
(0.0139759 -0.0116986 0.00634505)
(0.0124864 -0.0133222 0.006762)
(0.00635211 -0.0125927 0.0129163)
(0.0059295 -0.0116413 0.0139588)
(0.00588613 -0.0105335 0.0147935)
(0.00783119 -0.0130793 0.0102002)