/*--------------------------------*- C++ -*----------------------------------*\
| =========                 |                                                 |
| \\      /  F ield         | OpenFOAM: The Open Source CFD Toolbox           |
|  \\    /   O peration     | Version:  v1612+                                |
|   \\  /    A nd           | Web:      www.OpenFOAM.com                      |
|    \\/     M anipulation  |                                                 |
\*---------------------------------------------------------------------------*/
FoamFile
{
    version     2.0;
    format      ascii;
    class       volScalarField;
    location    "100";
    object      p;
}
// * * * * * * * * * * * * * * * * * * * * * * * * * * * * * * * * * * * * * //

dimensions      [0 2 -2 0 0 0 0];

internalField   nonuniform List<scalar> 
18793
(
3.17512
3.08508
3.20805
3.06607
3.06604
3.07406
3.07435
3.06005
3.06418
3.07365
3.07757
3.07423
3.06359
3.07815
3.07128
3.09485
3.10472
3.08516
3.0879
3.10595
3.09578
3.08967
3.0823
3.10166
3.08002
3.08763
3.10836
3.10127
3.1028
3.10965
3.1109
3.09896
3.09356
3.11165
3.10143
3.10877
3.11258
3.34592
3.33729
3.34566
3.35349
3.33889
3.29385
3.31769
3.31912
3.33131
3.339
3.35231
3.33981
3.34915
3.10538
3.10665
3.10664
3.10471
3.10558
3.10677
3.10659
3.09936
3.10259
3.10004
3.10315
3.10434
3.10161
3.10233
3.10101
3.10281
3.25668
3.25815
3.2611
3.2561
3.26877
3.2291
3.2727
3.27945
3.28704
3.26423
3.28216
3.27646
3.26576
3.28341
3.27342
3.29014
3.28628
3.2962
3.11106
3.11447
3.10237
3.11375
3.11306
3.12251
3.12834
3.1238
3.12466
3.10482
3.09987
3.09208
3.11673
3.09984
3.11877
3.12722
3.12665
3.13778
3.12656
3.1368
3.11579
3.12036
3.13925
3.12358
3.12818
3.12833
3.13604
3.10828
3.10281
3.13743
3.13391
3.11807
3.11798
3.10179
3.09988
3.13269
3.11689
3.12877
3.1243
3.16071
3.15931
3.16776
3.17499
3.16446
3.16179
3.15885
3.21238
3.20614
3.20341
3.17838
3.19595
3.19667
3.19999
3.19274
3.1855
3.18973
3.18107
3.19126
3.19737
3.21021
3.19283
3.17253
3.17871
3.19724
3.19099
3.19869
3.1925
3.16236
3.16573
3.15893
3.18921
3.17429
3.16233
3.16158
3.18564
3.11006
3.11803
3.10132
3.10858
3.1148
3.11028
3.10405
3.09191
3.10036
3.09862
3.09467
3.12011
3.11359
3.13816
3.13184
3.13064
3.12613
3.11762
3.12481
3.11645
3.11871
3.12943
3.13495
3.13664
3.12949
3.13613
3.13063
3.13074
3.11716
3.12926
3.13143
3.07642
3.07291
3.07242
3.07018
3.07006
3.0655
3.07418
3.07646
3.07467
3.06731
3.0723
3.07659
3.07273
3.07406
3.07832
3.07595
3.07653
3.07137
3.08317
3.08579
3.0819
3.0799
3.0819
3.08375
3.08163
3.08246
3.07454
3.08329
3.07903
3.08159
3.08797
3.0843
3.08232
3.0815
3.08567
3.08537
3.08761
3.15691
3.15601
3.14486
3.15487
3.16775
3.14382
3.13799
3.15266
3.15484
3.14045
3.14638
3.14186
3.13726
3.13327
3.15652
3.14916
3.14327
3.14674
3.06371
3.0578
3.04938
3.06058
3.0569
3.0538
3.04961
3.04792
3.0523
3.05823
3.05501
3.05073
3.05547
3.0539
3.04183
3.05051
3.05064
3.05487
3.06029
3.08838
3.08213
3.09275
3.10164
3.08117
3.0826
3.08827
3.07872
3.09744
3.09236
3.08884
3.08349
3.08854
3.07821
3.09565
3.08512
3.09817
3.08946
3.09771
3.09331
3.10587
3.1059
3.10404
3.11567
3.12414
3.10049
3.09205
3.09331
3.09395
3.09764
3.11861
3.10787
3.11636
3.10541
3.11729
3.10323
3.04049
3.04628
3.03641
3.04149
3.03859
3.03914
3.04294
3.04425
3.04175
3.0461
3.04282
3.22964
3.23625
3.26512
3.25382
3.27654
3.27364
3.23178
3.23245
3.26604
3.24854
3.25044
3.25757
3.24286
3.25149
3.26405
3.2554
3.26773
3.26982
3.26219
3.27265
3.17179
3.1715
3.18385
3.18435
3.17934
3.16671
3.17226
3.21206
3.19299
3.18988
3.21602
3.20144
3.17602
3.17734
3.19995
3.18844
3.20216
3.20657
3.19367
3.08732
3.08516
3.10219
3.09253
3.09027
3.08729
3.10255
3.11417
3.11399
3.1124
3.11028
3.09567
3.10033
3.09566
3.09103
3.11058
3.09605
3.10937
3.03657
3.03641
3.03634
3.03627
3.03533
3.03326
3.0324
3.03336
3.02369
3.02562
3.02062
3.03186
3.03159
3.03457
3.03116
3.03059
3.10562
3.10473
3.1079
3.10407
3.11345
3.11344
3.11062
3.10818
3.11397
3.10534
3.10667
3.10619
3.10906
3.10405
3.07301
3.06777
3.08083
3.07505
3.0623
3.05932
3.05786
3.05868
3.06309
3.07041
3.06488
3.07254
3.07244
3.06561
3.06776
3.07154
3.07128
3.0646
3.06952
3.03595
3.03887
3.04182
3.04367
3.04435
3.03931
3.0465
3.03502
3.04066
3.04308
3.19025
3.21271
3.17153
3.17634
3.19404
3.19996
3.19839
3.2004
3.21387
3.19969
3.20862
3.17663
3.17474
3.21279
3.18562
3.1898
3.19072
3.19627
3.19213
3.17546
3.17709
3.15907
3.16694
3.15801
3.17068
3.17303
3.16416
3.1702
3.15073
3.15018
3.15669
3.1463
3.15681
3.14946
3.15793
3.17312
3.18371
3.16365
3.17211
3.15664
3.14953
3.09949
3.10669
3.11656
3.11652
3.11969
3.12138
3.10377
3.11923
3.09825
3.10484
3.10482
3.10215
3.08951
3.09847
3.10756
3.10519
3.10054
3.11873
3.09384
3.09437
3.08649
3.09053
3.08508
3.08987
3.09731
3.09631
3.09538
3.08766
3.08563
3.09204
3.08743
3.0878
3.0963
3.09793
3.08664
3.08323
3.08647
3.08895
3.09068
3.09542
3.0916
3.12965
3.13051
3.13334
3.1317
3.13623
3.13803
3.133
3.13679
3.1345
3.13073
3.06193
3.05219
3.05536
3.05232
3.0567
3.05806
3.05155
3.06258
3.06638
3.06656
3.06822
3.07049
3.07202
3.05906
3.07392
3.06193
3.0794
3.06464
3.06754
3.16998
3.1841
3.17668
3.18943
3.16403
3.16993
3.16594
3.15692
3.16657
3.1628
3.14586
3.16695
3.18687
3.16945
3.18601
3.18459
3.10778
3.11044
3.1
3.11078
3.10067
3.10362
3.10702
3.09867
3.09862
3.10322
3.10563
3.10689
3.10063
3.10365
3.10011
3.09845
3.1057
3.09935
3.10222
3.09813
3.19683
3.19334
3.18219
3.19216
3.18281
3.19064
3.18691
3.18077
3.2024
3.20261
3.2113
3.1835
3.192
3.17466
3.18411
3.18068
3.25424
3.2379
3.21801
3.22397
3.20716
3.20782
3.26362
3.24818
3.27199
3.25208
3.24739
3.21961
3.26197
3.24311
3.23657
3.35458
3.29149
3.34028
3.33137
3.34845
3.29363
3.30045
3.31798
3.32773
3.31992
3.31981
3.33275
3.32317
3.33269
3.31133
3.31398
3.30929
3.06852
3.07307
3.06665
3.07582
3.08245
3.08379
3.06373
3.06941
3.06649
3.06358
3.07745
3.07567
3.06805
3.06455
3.05674
3.05639
3.05587
3.07129
3.07581
3.0774
3.07281
3.06815
3.06855
3.07004
3.06283
3.06915
3.06501
3.0727
3.0653
3.04601
3.04388
3.0499
3.04562
3.04403
3.03738
3.04072
3.04704
3.04189
3.05057
3.04608
3.04794
3.04425
3.04961
3.046
3.03897
3.04168
3.05341
3.0424
3.04702
3.05032
3.04585
3.04607
3.04537
3.04086
3.04057
3.27997
3.2905
3.27364
3.28086
3.31198
3.32153
3.30535
3.31384
3.31435
3.29633
3.33179
3.34084
3.32173
3.31937
3.33849
3.32994
3.31932
3.33787
3.32606
3.31138
3.19246
3.21025
3.22141
3.22256
3.21328
3.18959
3.21708
3.20468
3.19285
3.1972
3.17359
3.11989
3.11579
3.11831
3.11262
3.11789
3.12094
3.11467
3.11339
3.11432
3.11835
3.11503
3.11681
3.1195
3.11329
3.11824
3.1197
3.12039
3.11997
3.12189
3.12367
3.12431
3.12284
3.12993
3.12887
3.12051
3.12335
3.12412
3.12337
3.11984
3.1191
3.12208
3.11738
3.12121
3.12469
3.1273
3.10859
3.11512
3.11904
3.12094
3.11749
3.10839
3.12999
3.12399
3.10963
3.11863
3.11972
3.11652
3.10026
3.09808
3.10204
3.09922
3.10043
3.09983
3.0966
3.0974
3.09805
3.10014
3.10301
3.19747
3.2
3.20612
3.21451
3.22125
3.22671
3.22901
3.20772
3.23279
3.21637
3.21818
3.21352
3.2278
3.22374
3.23064
3.23984
3.23213
3.23277
3.23981
3.20581
3.20533
3.20054
3.1888
3.20535
3.16771
3.16227
3.15896
3.17952
3.15188
3.15696
3.18951
3.16241
3.16563
3.1802
3.12261
3.11578
3.12083
3.11919
3.11767
3.11412
3.12153
3.11955
3.11438
3.11205
3.11697
3.11882
3.12497
3.12019
3.11969
3.11497
3.11287
3.11575
3.11623
3.11737
3.11765
3.12587
3.12161
3.12331
3.11549
3.11191
3.11618
3.11879
3.11308
3.10721
3.10844
3.12193
3.12091
3.1061
3.10351
3.11849
3.10984
3.12274
3.12046
3.11787
3.08449
3.08547
3.09419
3.09264
3.09726
3.09794
3.09357
3.08871
3.0876
3.09322
3.09384
3.08981
3.09006
3.08817
3.09727
3.09022
3.08862
3.08704
3.09454
3.08549
3.08242
3.20594
3.20654
3.21075
3.2218
3.2279
3.22087
3.21908
3.19828
3.20847
3.18741
3.22098
3.18212
3.18263
3.19338
3.21185
3.17254
3.17247
3.19997
3.18133
3.19874
3.08543
3.08337
3.07931
3.09108
3.08471
3.08079
3.07745
3.07632
3.07429
3.08562
3.09325
3.09218
3.09225
3.09122
3.09606
3.09441
3.09935
3.10062
3.09138
3.0977
3.15282
3.16692
3.16594
3.16892
3.16531
3.16623
3.16581
3.15962
3.15583
3.15175
3.17191
3.1586
3.152
3.16571
3.17208
3.15686
3.14827
3.16847
3.13371
3.13311
3.16661
3.16123
3.16828
3.15563
3.16462
3.14059
3.15172
3.13719
3.14085
3.14868
3.15079
3.10757
3.10716
3.11588
3.11972
3.11545
3.10733
3.10874
3.12006
3.10142
3.10848
3.11609
3.10857
3.11407
3.1012
3.11603
3.11799
3.10294
3.12244
3.11479
3.26609
3.26364
3.2454
3.24484
3.2645
3.27028
3.27999
3.23266
3.25142
3.27413
3.26265
3.25398
3.22367
3.23781
3.25858
3.24792
3.15128
3.16414
3.14597
3.16162
3.16552
3.13771
3.14026
3.13934
3.13617
3.13349
3.15181
3.16722
3.16766
3.16591
3.1601
3.14229
3.1451
3.1672
3.14425
3.18348
3.19337
3.15372
3.15159
3.18533
3.18246
3.16147
3.15532
3.17721
3.17117
3.16232
3.17947
3.19606
3.17357
3.16718
3.14583
3.14501
3.16876
3.16383
3.17089
3.15923
3.14793
3.07511
3.07494
3.05091
3.05668
3.07264
3.07095
3.06023
3.05289
3.06692
3.06506
3.06225
3.0517
3.04844
3.07384
3.05826
3.0573
3.06089
3.13686
3.15483
3.14091
3.14177
3.14059
3.13203
3.13329
3.14326
3.119
3.12917
3.097
3.09657
3.09675
3.09795
3.09658
3.09874
3.0984
3.09426
3.09294
3.09492
3.10521
3.10293
3.09802
3.09608
3.0965
3.09643
3.10033
3.09849
3.02254
3.01655
3.02556
3.08018
3.08935
3.08594
3.04362
3.04651
3.07213
3.07005
3.077
3.03883
3.03872
3.0427
3.06664
3.06235
3.06114
3.0432
3.04095
3.04256
3.1261
3.12895
3.07924
3.0804
3.0546
3.0544
3.03684
3.03593
3.03514
3.15242
3.14902
3.15631
3.04979
3.05135
3.07593
3.07118
3.08834
3.08893
3.13611
3.14025
3.056
3.05597
3.04857
3.05891
3.05931
3.16593
3.16712
3.0473
3.05366
3.05419
3.13623
3.12584
3.12917
3.07194
3.07369
3.06901
3.06903
3.1371
3.14154
3.14194
3.10737
3.11756
3.19079
3.18417
3.18365
3.05526
3.05305
3.09496
3.08379
3.09544
3.08822
3.06519
3.0663
3.06878
3.07805
3.08027
3.19094
3.18421
3.19095
3.14145
3.12528
3.13422
3.13298
3.15846
3.1522
3.19285
3.19285
3.11477
3.10664
3.11635
3.07665
3.07535
3.07937
3.07285
3.07206
3.16206
3.15595
3.17197
3.17336
3.08709
3.08517
3.07825
3.17661
3.18099
3.18171
3.22326
3.22257
3.06887
3.07696
3.07446
3.13921
3.14066
3.08208
3.08468
3.08231
3.08428
3.07899
3.08336
3.07835
3.08224
3.12378
3.12602
3.09815
3.0963
3.20433
3.21081
3.08749
3.09689
3.09538
3.25008
3.24249
3.24129
3.18377
3.18884
3.10233
3.09954
3.09259
3.09043
3.09187
3.08693
3.08236
3.08133
3.08968
3.08955
3.17589
3.17746
3.16799
3.10627
3.09949
3.10041
3.24778
3.24936
3.25718
3.12661
3.13082
3.22332
3.22985
3.09581
3.08662
3.08973
3.09783
3.09744
3.18545
3.12946
3.12968
3.10059
3.10136
3.27811
3.28061
3.27971
3.2583
3.26303
3.24627
3.10048
3.10088
3.22943
3.23027
3.23706
3.11549
3.10942
3.1035
3.19141
3.17105
3.17308
3.15608
3.15883
3.10042
3.10431
3.109
3.10822
3.10536
3.29392
3.29258
3.30341
3.11186
3.10787
3.17181
3.16344
3.22489
3.23165
3.10944
3.1086
3.29548
3.29129
3.33299
3.31273
3.31744
3.32339
3.11083
3.11341
3.10145
3.1323
3.1406
3.13235
3.136
3.12063
3.12322
3.11441
3.11549
3.11612
3.12334
3.11919
3.11852
3.13122
3.12903
3.21648
3.23181
3.33706
3.3341
3.34553
3.11866
3.1186
3.12162
3.22157
3.23276
3.12894
3.12543
3.11919
3.1209
3.18993
3.17527
3.19302
3.16535
3.17316
3.12485
3.12408
3.33804
3.32099
3.32581
3.33505
3.33245
3.3124
3.35952
3.33794
3.33004
3.27001
3.271
3.25723
3.20677
3.20418
3.28399
3.2821
3.34527
3.33905
3.32809
3.34749
3.34067
3.32746
3.28006
3.26139
3.28532
3.29916
3.30297
3.29927
3.32449
3.32072
3.30833
3.34706
3.35079
3.32598
3.33931
3.29127
3.31571
3.30185
3.27947
3.30122
3.28603
3.32415
3.31395
3.30226
3.28392
3.31477
3.32283
3.31613
3.3033
3.2761
3.2911
3.27986
3.28535
3.28386
3.29803
3.30474
3.30414
3.15269
3.15616
3.14858
3.15592
3.14777
3.13628
3.13672
3.14932
3.15555
3.13649
3.14293
3.14307
3.12039
3.14261
3.14592
3.15843
3.16969
3.18222
3.19002
3.12424
3.12161
3.12408
3.12119
3.12201
3.12084
3.12328
3.21646
3.2254
3.25173
3.24227
3.22421
3.21322
3.18681
3.17202
3.16752
3.18919
3.1832
3.17432
3.19464
3.20782
3.20496
3.20339
3.20487
3.11491
3.11297
3.1117
3.11654
3.11626
3.11209
3.12157
3.11199
3.11366
3.12119
3.11595
3.1174
3.12266
3.11927
3.12073
3.11444
3.11737
3.11997
3.11986
3.11981
3.3244
3.31938
3.34149
3.34709
3.31432
3.32647
3.32693
3.34088
3.34156
3.32738
3.30302
3.32387
3.30678
3.31899
3.32996
3.32047
3.29926
3.30926
3.32767
3.32577
3.32865
3.31089
3.31267
3.30124
3.32755
3.33365
3.32858
3.29476
3.31774
3.30827
3.2956
3.30822
3.16501
3.16625
3.19576
3.19052
3.17514
3.17966
3.16553
3.20398
3.20627
3.20937
3.22215
3.21526
3.20566
3.18496
3.22704
3.19288
3.22599
3.2005
3.20146
3.23033
3.25305
3.27727
3.27021
3.21492
3.22344
3.25138
3.24068
3.23873
3.13514
3.13382
3.15223
3.15546
3.15822
3.11267
3.11232
3.11727
3.11434
3.11865
3.11689
3.11432
3.1137
3.11446
3.11629
3.11331
3.11447
3.12601
3.12419
3.12344
3.12427
3.11433
3.11413
3.10808
3.12083
3.11402
3.11154
3.1101
3.28298
3.29461
3.29878
3.2831
3.27804
3.26697
3.30071
3.2912
3.28037
3.28731
3.28705
3.30339
3.29851
3.28741
3.26686
3.31136
3.29515
3.28675
3.2786
3.28678
3.29607
3.29449
3.29217
3.28542
3.30966
3.2784
3.27772
3.28745
3.28251
3.24824
3.2674
3.25821
3.2658
3.256
3.26776
3.2722
3.26846
3.26114
3.25966
3.27393
3.28105
3.24892
3.27995
3.28454
3.10332
3.10533
3.10757
3.11056
3.10309
3.10609
3.10774
3.10885
3.11106
3.16244
3.18515
3.19996
3.20471
3.19881
3.17525
3.16782
3.17785
3.18356
3.20919
3.21117
3.20834
3.22199
3.23076
3.20258
3.19876
3.1995
3.19954
3.23156
3.22025
3.13683
3.14486
3.14801
3.10349
3.10748
3.10941
3.11376
3.11093
3.11041
3.11282
3.11169
3.1038
3.10828
3.26866
3.27322
3.29204
3.31394
3.32319
3.31146
3.31427
3.29596
3.30418
3.2966
3.29764
3.28863
3.28731
3.29531
3.10202
3.10522
3.10431
3.10922
3.10987
3.10237
3.10705
3.11077
3.11326
3.11135
3.11046
3.11432
3.11585
3.09406
3.10159
3.09199
3.08974
3.09621
3.10866
3.10492
3.10236
3.1032
3.09699
3.10839
3.1121
3.1141
3.12328
3.11698
3.18372
3.16564
3.16146
3.1971
3.17548
3.20081
3.11
3.1162
3.11648
3.10045
3.10876
3.11325
3.11583
3.22655
3.23545
3.23015
3.22012
3.25697
3.2481
3.23836
3.26689
3.24184
3.22635
3.25092
3.23745
3.24817
3.24586
3.10618
3.10806
3.10515
3.10311
3.10482
3.10601
3.09657
3.09927
3.09956
3.09234
3.09632
3.10229
3.09888
3.09863
3.10121
3.10023
3.22945
3.24094
3.23207
3.2565
3.24254
3.22962
3.26472
3.24331
3.25846
3.25662
3.24932
3.26965
3.26819
3.25065
3.23001
3.26062
3.26565
3.26899
3.26372
3.27868
3.28535
3.27803
3.26894
3.25943
3.2661
3.28268
3.2953
3.28321
3.2722
3.0931
3.0995
3.09816
3.09232
3.09745
3.09786
3.09664
3.10266
3.10174
3.10794
3.1024
3.10961
3.10255
3.09472
3.09564
3.09977
3.09795
3.1023
3.10206
3.10786
3.10287
3.09989
3.10155
3.10263
3.11119
3.10339
3.10084
3.09651
3.10216
3.10049
3.10912
3.11035
3.14837
3.15061
3.13741
3.13349
3.17025
3.16242
3.14001
3.13752
3.13789
3.14659
3.16219
3.15069
3.1649
3.15411
3.17245
3.1806
3.09462
3.09307
3.09584
3.09519
3.09339
3.09727
3.09375
3.09744
3.09366
3.0965
3.10545
3.10316
3.09982
3.10214
3.10063
3.09855
3.10189
3.0767
3.08223
3.0874
3.08657
3.08827
3.08873
3.09156
3.09223
3.0922
3.09388
3.09178
3.10046
3.09514
3.09254
3.21882
3.22908
3.16428
3.15693
3.15298
3.13256
3.11882
3.2256
3.23981
3.24317
3.22319
3.21588
3.22961
3.22093
3.23341
3.22367
3.25973
3.26946
3.25589
3.24939
3.23384
3.24319
3.25448
3.24509
3.27182
3.26786
3.25704
3.25579
3.27237
3.26275
3.24838
3.25523
3.27924
3.26609
3.28094
3.26567
3.26406
3.25894
3.08539
3.08479
3.09779
3.09714
3.09462
3.09652
3.11793
3.11761
3.12322
3.11325
3.11052
3.09557
3.09939
3.09406
3.09774
3.09739
3.10487
3.10041
3.09796
3.10046
3.10137
3.09936
3.09496
3.08706
3.09241
3.08917
3.09222
3.17148
3.16335
3.15706
3.16302
3.15584
3.20295
3.1937
3.18292
3.21164
3.20423
3.20482
3.2114
3.20521
3.08006
3.0865
3.08548
3.08779
3.0968
3.09634
3.08674
3.0845
3.09208
3.08691
3.08694
3.08781
3.08853
3.09011
3.09021
3.0981
3.08554
3.09452
3.09584
3.08604
3.08653
3.08941
3.08672
3.08849
3.07619
3.08116
3.08339
3.08522
3.07726
3.08221
3.08512
3.08435
3.08895
3.08937
3.08727
3.08604
3.0858
3.09033
3.09708
3.09354
3.09446
3.09394
3.09606
3.0951
3.09418
3.09744
3.09148
3.09347
3.08728
3.0887
3.08849
3.08679
3.08839
3.09182
3.09663
3.0937
3.09434
3.08884
3.08881
3.08921
3.08856
3.12907
3.12616
3.13144
3.08038
3.08943
3.09478
3.08783
3.09338
3.09628
3.18348
3.19824
3.19585
3.20561
3.21115
3.2087
3.21289
3.22921
3.22686
3.22127
3.22722
3.21531
3.20432
3.19101
3.19984
3.22691
3.22285
3.22745
3.23986
3.23742
3.23356
3.23728
3.22914
3.22718
3.21716
3.22412
3.20641
3.23898
3.20157
3.23128
3.22606
3.25446
3.26564
3.23947
3.25302
3.24103
3.26286
3.25414
3.08115
3.08808
3.08901
3.0871
3.09089
3.08962
3.09264
3.08835
3.1899
3.18885
3.19796
3.19406
3.17847
3.17792
3.2086
3.18991
3.20904
3.20403
3.19316
3.22826
3.22735
3.24598
3.20985
3.22304
3.22147
3.21028
3.1981
3.206
3.22622
3.21973
3.2179
3.21768
3.20609
3.20115
3.21557
3.09759
3.09523
3.10151
3.11031
3.1005
3.10902
3.10818
3.10621
3.10735
3.10746
3.10311
3.09559
3.09787
3.09925
3.09412
3.09423
3.12763
3.1391
3.13512
3.14714
3.14075
3.14649
3.12331
3.13982
3.15045
3.10609
3.11671
3.13273
3.12451
3.15325
3.10496
3.10307
3.09931
3.06431
3.07697
3.08196
3.07853
3.07386
3.07748
3.08115
3.11973
3.09817
3.09689
3.10803
3.0956
3.09236
3.09287
3.08647
3.08813
3.09366
3.07716
3.07898
3.08082
3.08435
3.07978
3.07879
3.07846
3.08078
3.08399
3.08016
3.07976
3.08324
3.08995
3.11277
3.12337
3.11379
3.12393
3.13301
3.11813
3.10947
3.16284
3.16343
3.16608
3.17769
3.18122
3.12972
3.15684
3.13789
3.06573
3.07105
3.07217
3.06613
3.06508
3.07447
3.07058
3.07257
3.06514
3.06829
3.21289
3.21225
3.20202
3.21357
3.20757
3.20951
3.21912
3.2191
3.20513
3.22294
3.21102
3.21987
3.21022
3.21124
3.21913
3.22706
3.22554
3.2188
3.20554
3.20777
3.21371
3.22801
3.21955
3.22274
3.2055
3.22578
3.21842
3.20845
3.21704
3.19177
3.20675
3.18974
3.1804
3.17531
3.17721
3.17417
3.19146
3.18454
3.18011
3.1733
3.15802
3.0702
3.07925
3.07197
3.08285
3.10489
3.10538
3.08624
3.08183
3.08162
3.09343
3.08629
3.08219
3.08221
3.08543
3.08617
3.08649
3.18878
3.19279
3.1886
3.20183
3.16627
3.15622
3.13636
3.16387
3.1586
3.06424
3.06693
3.06785
3.06979
3.06877
3.06952
3.07036
3.07243
3.07654
3.06929
3.06993
3.06996
3.07142
3.08065
3.07779
3.08114
3.07627
3.07832
3.0766
3.07722
3.0763
3.07749
3.07107
3.07377
3.07453
3.07622
3.07883
3.08243
3.08551
3.14027
3.13731
3.12838
3.12776
3.14429
3.16394
3.16617
3.16924
3.19004
3.17954
3.18756
3.17573
3.17275
3.18662
3.18656
3.17914
3.17433
3.17788
3.15952
3.18552
3.15432
3.16217
3.20176
3.18886
3.20888
3.16213
3.16478
3.14542
3.1465
3.1398
3.13445
3.15017
3.14614
3.13701
3.12694
3.14334
3.14872
3.09337
3.1111
3.10497
3.10579
3.0992
3.11285
3.11837
3.10987
3.12637
3.12082
3.12059
3.10547
3.08982
3.12833
3.11668
3.17837
3.17192
3.16064
3.17109
3.17083
3.19153
3.19519
3.20061
3.18957
3.21809
3.2056
3.21656
3.20658
3.209
3.2105
3.19993
3.19975
3.18303
3.1887
3.1916
3.19879
3.17704
3.17897
3.195
3.18774
3.06478
3.06206
3.07843
3.07431
3.07526
3.07273
3.06617
3.08272
3.07285
3.07125
3.07183
3.07073
3.07952
3.07786
3.07961
3.07891
3.07713
3.07366
3.06083
3.06184
3.06512
3.07004
3.06403
3.06295
3.06446
3.06591
3.07079
3.07138
3.06973
3.06895
3.07496
3.07029
3.07481
3.07463
3.06883
3.06986
3.06201
3.06472
3.0746
3.0792
3.07731
3.07532
3.05068
3.05587
3.05454
3.055
3.06169
3.05992
3.05556
3.05708
3.05662
3.05494
3.06115
3.05951
3.05616
3.05751
3.06517
3.06686
3.0652
3.0622
3.06702
3.06607
3.04887
3.05791
3.06078
3.05257
3.05809
3.06217
3.16925
3.17509
3.17296
3.17976
3.18461
3.18245
3.17118
3.18302
3.19272
3.17335
3.18123
3.1865
3.18077
3.18831
3.18564
3.17278
3.18541
3.19163
3.17848
3.176
3.18
3.19198
3.18101
3.17419
3.1939
3.17736
3.20375
3.18982
3.19428
3.18723
3.11863
3.11858
3.10774
3.10091
3.12066
3.11106
3.10532
3.10381
3.12888
3.13337
3.12382
3.14415
3.1536
3.14566
3.15611
3.13756
3.13516
3.12729
3.16087
3.1505
3.15804
3.1606
3.07971
3.09834
3.07983
3.08948
3.094
3.08232
3.09486
3.0764
3.09525
3.09342
3.07995
3.1046
3.10492
3.16416
3.15673
3.16321
3.15171
3.14049
3.14659
3.13
3.13515
3.1299
3.12345
3.12402
3.11518
3.1313
3.13216
3.15427
3.14138
3.15376
3.13268
3.15946
3.15635
3.05954
3.06598
3.06419
3.06715
3.0671
3.06947
3.06747
3.06339
3.06907
3.06343
3.06106
3.06652
3.06417
3.06621
3.06699
3.06696
3.07577
3.0657
3.06535
3.06725
3.06645
3.07141
3.0703
3.06783
3.07393
3.0764
3.08441
3.07701
3.07385
3.07218
3.06838
3.07191
3.07944
3.08662
3.07273
3.06736
3.07158
3.07638
3.07271
3.09226
3.08307
3.14189
3.13251
3.14733
3.16133
3.14941
3.13947
3.1321
3.05042
3.05387
3.05104
3.05119
3.04517
3.04611
3.05602
3.05754
3.05752
3.16697
3.15669
3.16953
3.05508
3.05412
3.05265
3.05821
3.05293
3.04998
3.04077
3.04544
3.0477
3.04258
3.03581
3.03908
3.11098
3.11499
3.11908
3.10475
3.11035
3.1263
3.12389
3.12693
3.12208
3.12995
3.1295
3.12717
3.14092
3.14771
3.11895
3.1227
3.13973
3.13368
3.09517
3.10217
3.09735
3.08504
3.08714
3.11807
3.11042
3.09253
3.11254
3.10291
3.09313
3.06155
3.06398
3.06521
3.04981
3.05552
3.06457
3.04548
3.0586
3.06344
3.0647
3.06935
3.06942
3.07358
3.06673
3.0859
3.07603
3.08839
3.09442
3.0453
3.04717
3.04801
3.04819
3.0492
3.05245
3.04886
3.04733
3.04866
3.05017
3.04634
3.0521
3.0565
3.05046
3.0531
3.04615
3.04479
3.04879
3.04641
3.04647
3.04778
3.14436
3.14776
3.14219
3.12919
3.14668
3.1429
3.13922
3.1446
3.14835
3.14109
3.15803
3.14893
3.16313
3.15564
3.1364
3.14149
3.14325
3.03079
3.03513
3.02938
3.03873
3.02681
3.03437
3.03453
3.0315
3.04488
3.0492
3.05168
3.04186
3.04679
3.04353
3.044
3.03964
3.04374
3.05293
3.10067
3.10952
3.11187
3.1071
3.09921
3.09294
3.08434
3.0904
3.0938
3.09175
3.08645
3.10915
3.11076
3.11581
3.11564
3.1152
3.10512
3.11686
3.12397
3.13312
3.1192
3.11125
3.11753
3.11305
3.03667
3.04028
3.03821
3.03598
3.03787
3.03596
3.03906
3.03958
3.03825
3.06616
3.05925
3.06167
3.05333
3.02028
3.02085
3.02907
3.02553
3.03153
3.02813
3.03282
3.03938
3.03442
3.03871
3.02352
3.03506
3.03074
3.03351
3.05061
3.04051
3.03935
3.03588
3.04445
3.04423
3.04301
3.04129
3.04058
3.04599
3.04612
3.05588
3.06274
3.06078
3.072
3.07015
3.06458
3.07101
3.08046
3.08001
3.06651
3.08132
3.0769
3.1335
3.07698
3.0713
3.0747
3.02272
3.02317
3.01724
3.0236
3.01847
3.02084
3.02307
3.02434
3.02742
3.03074
3.02744
3.02935
3.02594
3.02757
3.02828
3.02669
3.10308
3.08199
3.10166
3.09399
3.09889
3.08828
3.09181
3.10564
3.10705
3.02561
3.02131
3.02663
3.03017
3.02686
3.03196
3.03514
3.02956
3.03932
3.0467
3.03356
3.05026
3.04571
3.03661
3.04041
3.03385
3.03231
3.03006
3.0321
3.12391
3.1068
3.12801
3.12122
3.12621
3.04369
3.04889
3.05057
3.04888
3.10475
3.10893
3.10606
3.0544
3.05173
3.05638
3.04942
3.04632
3.05008
3.04405
3.04465
3.04062
3.04711
3.02954
3.02767
3.02515
3.01874
3.02497
3.02253
3.02587
3.02843
3.0292
3.03498
3.03175
3.02853
3.03385
3.0345
3.0283
3.0302
3.15454
3.14883
3.13731
3.13276
3.11733
3.13855
3.14026
3.13266
3.13804
3.12952
3.11989
3.12569
3.13944
3.13088
3.04381
3.04441
3.04472
3.04434
3.04588
3.0496
3.04788
3.04853
3.04978
3.04561
3.04653
3.06207
3.06354
3.06312
3.0603
3.06266
3.06306
3.0588
3.05596
3.05848
3.05411
3.05574
3.04957
3.04139
3.05317
3.04755
3.04599
3.04333
3.05286
3.04417
3.03784
3.04328
3.04545
3.09964
3.10187
3.09183
3.11066
3.10978
3.10351
3.10017
3.11024
3.10404
3.11733
3.12116
3.11062
3.12066
3.12508
3.11546
3.10986
3.10134
3.10539
3.15354
3.13888
3.16385
3.15872
3.13698
3.15123
3.14551
3.13923
3.14596
3.15304
3.14494
3.14309
3.13816
3.09361
3.08338
3.11032
3.10384
3.09744
3.09562
3.09144
3.08118
3.11046
3.11339
3.10878
3.06231
3.0635
3.06514
3.06009
3.0615
3.06003
3.05958
3.06548
3.06686
3.03245
3.03748
3.03823
3.03919
3.03381
3.03592
3.0403
3.03715
3.0405
3.04356
3.06825
3.06319
3.06892
3.0794
3.07115
3.08149
3.07681
3.07571
3.06912
3.0731
3.07124
3.07276
3.07076
3.07092
3.07364
3.07158
3.17084
3.16794
3.16746
3.15261
3.1536
3.17026
3.1834
3.15682
3.15417
3.14513
3.16371
3.15844
3.1794
3.1665
3.1032
3.10069
3.11109
3.10174
3.1093
3.10701
3.09945
3.08977
3.15731
3.14362
3.14394
3.1363
3.15562
3.1471
3.15415
3.07933
3.06623
3.09166
3.08806
3.08769
3.07051
3.05832
3.09195
3.09089
3.07585
3.07857
3.18362
3.20899
3.19526
3.20696
3.1922
3.05525
3.05468
3.06947
3.06596
3.06903
3.07282
3.06402
3.06561
3.0709
3.10676
3.11921
3.12674
3.10648
3.12039
3.11062
3.12183
3.12538
3.10465
3.09847
3.11865
3.11818
3.1189
3.11421
3.11879
3.11658
3.10449
3.10316
3.21953
3.19915
3.22049
3.2164
3.22821
3.22412
3.21705
3.20344
3.22419
3.21086
3.08291
3.08012
3.07769
3.08384
3.08453
3.08072
3.07906
3.06639
3.07244
3.06938
3.0712
3.06858
3.07761
3.07858
3.07839
3.07718
3.07959
3.06811
3.06789
3.07457
3.07511
3.16831
3.16576
3.175
3.18304
3.19037
3.18219
3.17548
3.16834
3.17704
3.18382
3.17633
3.19352
3.19703
3.24922
3.25371
3.23336
3.2617
3.2422
3.25476
3.258
3.244
3.2683
3.08008
3.08511
3.08469
3.08493
3.08044
3.08179
3.08053
3.07943
3.0872
3.08719
3.08848
3.08437
3.08565
3.13675
3.15104
3.14949
3.15417
3.14079
3.13057
3.15476
3.14491
3.23882
3.23871
3.23573
3.239
3.23502
3.23433
3.23353
3.24583
3.23695
3.21918
3.21597
3.22474
3.20238
3.19952
3.18825
3.17273
3.20292
3.18629
3.18755
3.18772
3.18898
3.18443
3.19548
3.20177
3.19122
3.19897
3.20319
3.20484
3.22236
3.22185
3.21784
3.20395
3.21217
3.19708
3.2236
3.22676
3.17116
3.18973
3.18061
3.19874
3.19708
3.19822
3.16766
3.17159
3.20482
3.20029
3.19755
3.19057
3.18732
3.18459
3.18306
3.18847
3.09684
3.09687
3.09374
3.09941
3.09445
3.09443
3.09281
3.25432
3.24852
3.27301
3.26629
3.26396
3.257
3.25496
3.25017
3.26965
3.2606
3.25791
3.27193
3.25995
3.25627
3.27149
3.26189
3.25046
3.2644
3.11096
3.11232
3.12396
3.12362
3.1163
3.11526
3.11891
3.11566
3.1139
3.11993
3.12017
3.12352
3.21593
3.20791
3.21114
3.19367
3.20968
3.19069
3.15954
3.13919
3.17048
3.16753
3.17013
3.17812
3.18625
3.1683
3.15685
3.32498
3.33931
3.32363
3.30433
3.29515
3.31042
3.31234
3.32331
3.3126
3.27277
3.25403
3.2761
3.28402
3.27532
3.26971
3.26055
3.26126
3.2644
3.28728
3.27668
3.25703
3.26486
3.26285
3.24401
3.22385
3.25169
3.2517
3.15602
3.16575
3.18684
3.1896
3.17009
3.15791
3.19959
3.19283
3.24196
3.24834
3.23963
3.22158
3.24487
3.23763
3.23059
3.22309
3.20894
3.21739
3.15075
3.15812
3.14188
3.14215
3.13848
3.13023
3.156
3.14941
3.14853
3.12907
3.31095
3.32394
3.32751
3.3364
3.32208
3.34366
3.33219
3.12684
3.12281
3.12545
3.12642
3.27045
3.21984
3.21724
3.19571
3.18307
3.1927
3.20409
3.19824
3.14626
3.14527
3.14407
3.15113
3.15242
3.14014
3.12152
3.1408
3.12226
3.14889
3.13306
3.12553
3.06129
3.05649
3.05565
3.05608
3.05601
3.06755
3.06458
3.06402
3.06919
3.0663
3.12705
3.13103
3.13112
3.1354
3.13969
3.12871
3.11865
3.14626
3.14032
3.14793
3.14932
3.14211
3.15056
3.14785
3.10476
3.11044
3.10526
3.1067
3.10895
3.11032
3.11035
3.11077
3.10712
3.10697
3.1092
3.09447
3.09284
3.1132
3.10978
3.11223
3.14656
3.16665
3.16565
3.137
3.14
3.13775
3.1487
3.153
3.1431
3.14384
3.13839
3.13175
3.12237
3.1076
3.10765
3.12078
3.11647
3.10802
3.1251
3.12318
3.12576
3.13178
3.12755
3.12884
3.12086
3.28432
3.24516
3.2325
3.27701
3.27584
3.27698
3.25871
3.2529
3.25679
3.24793
3.24288
3.25303
3.24685
3.28572
3.29996
3.13926
3.13324
3.1399
3.11946
3.12636
3.13374
3.12131
3.13043
3.12084
3.10989
3.11453
3.1087
3.11478
3.11428
3.11611
3.11532
3.11181
3.12289
3.12261
3.12314
3.23428
3.23835
3.23167
3.2256
3.2548
3.26326
3.25862
3.26023
3.2688
3.2474
3.23401
3.26128
3.28406
3.26691
3.26573
3.29812
3.29152
3.26275
3.27524
3.27179
3.11753
3.12072
3.1239
3.11919
3.12137
3.12357
3.12466
3.11883
3.11925
3.12288
3.11742
3.11995
3.12381
3.12062
3.12083
3.11818
3.11865
3.12224
3.11569
3.11607
3.11994
3.22471
3.21199
3.22056
3.23647
3.25146
3.241
3.23558
3.23635
3.22784
3.24768
3.11339
3.11224
3.10423
3.11001
3.10801
3.11131
3.11077
3.10645
3.10584
3.17247
3.22376
3.21335
3.19825
3.19973
3.21948
3.23675
3.22201
3.23514
3.22083
3.21099
3.20776
3.1988
3.14656
3.14563
3.15889
3.14681
3.13728
3.13055
3.16404
3.16248
3.1697
3.16872
3.17749
3.16926
3.16573
3.10245
3.10384
3.10404
3.10373
3.09753
3.10315
3.29516
3.11003
3.11302
3.11405
3.1099
3.11218
3.1148
3.11481
3.10989
3.11201
3.11146
3.11065
3.1122
3.12578
3.1212
3.13041
3.1327
3.12452
3.12057
3.12891
3.12767
3.11321
3.11758
3.10544
3.11085
3.11478
3.09773
3.11031
3.10492
3.11254
3.15008
3.12825
3.13877
3.13445
3.14
3.13311
3.1584
3.15697
3.13002
3.14669
3.14994
3.10604
3.10641
3.11255
3.11033
3.10948
3.11086
3.10927
3.11376
3.11213
3.11329
3.24992
3.23631
3.24339
3.24501
3.2361
3.23671
3.23215
3.2255
3.25013
3.24523
3.23453
3.2287
3.23477
3.10143
3.10179
3.09988
3.09986
3.10339
3.10526
3.10509
3.10468
3.10427
3.10328
3.10524
3.24443
3.22238
3.23257
3.25532
3.2622
3.25341
3.25287
3.24435
3.24505
3.24178
3.23482
3.28447
3.28354
3.26966
3.27831
3.27448
3.27009
3.2715
3.28068
3.0938
3.09851
3.09395
3.13613
3.09366
3.10794
3.1199
3.10553
3.1098
3.10043
3.09789
3.11756
3.12008
3.09996
3.10237
3.09391
3.10125
3.10517
3.10381
3.09902
3.10145
3.09786
3.09547
3.09398
3.09421
3.09624
3.22012
3.23003
3.22882
3.21423
3.22474
3.22709
3.23036
3.24175
3.23583
3.22152
3.23389
3.23964
3.13195
3.10943
3.12193
3.12109
3.1265
3.12409
3.127
3.13688
3.166
3.17793
3.17593
3.16907
3.17704
3.18062
3.18723
3.16776
3.08768
3.08237
3.08347
3.08571
3.08861
3.09021
3.08658
3.08741
3.08538
3.08526
3.08545
3.08482
3.08644
3.09284
3.08986
3.09011
3.09064
3.09001
3.08789
3.08985
3.07319
3.07675
3.07739
3.07291
3.08452
3.08484
3.07918
3.0801
3.08992
3.09145
3.08708
3.08862
3.08381
3.09437
3.09224
3.0963
3.09356
3.09476
3.0912
3.09868
3.0982
3.09468
3.09448
3.09526
3.0942
3.09338
3.08948
3.09288
3.15921
3.16609
3.16154
3.1503
3.13536
3.15111
3.14356
3.15167
3.15525
3.14421
3.12992
3.14122
3.13285
3.13354
3.20925
3.23924
3.23433
3.24054
3.24839
3.25404
3.24936
3.24932
3.25258
3.24095
3.21944
3.21994
3.10173
3.09539
3.10309
3.11007
3.11325
3.12477
3.13771
3.13742
3.142
3.15561
3.1386
3.15128
3.12521
3.13071
3.13372
3.11484
3.11235
3.11612
3.10691
3.13005
3.13318
3.10773
3.10566
3.10467
3.10813
3.10683
3.08706
3.08475
3.08549
3.08341
3.08684
3.08042
3.08608
3.08586
3.0816
3.08556
3.0811
3.08011
3.07948
3.078
3.08601
3.08638
3.07673
3.08538
3.08413
3.08469
3.0857
3.08694
3.08045
3.08482
3.0882
3.08887
3.08808
3.08968
3.08843
3.08951
3.08848
3.08932
3.13411
3.12788
3.13659
3.14289
3.13223
3.14381
3.1384
3.04725