/*--------------------------------*- C++ -*----------------------------------*\
| =========                 |                                                 |
| \\      /  F ield         | OpenFOAM: The Open Source CFD Toolbox           |
|  \\    /   O peration     | Version:  v1612+                                |
|   \\  /    A nd           | Web:      www.OpenFOAM.com                      |
|    \\/     M anipulation  |                                                 |
\*---------------------------------------------------------------------------*/
FoamFile
{
    version     2.0;
    format      ascii;
    class       surfaceScalarField;
    location    "100";
    object      phi;
}
// * * * * * * * * * * * * * * * * * * * * * * * * * * * * * * * * * * * * * //

dimensions      [0 3 -1 0 0 0 0];

internalField   nonuniform List<scalar> 
41343
(
-8.79225e-09
1.98569e-09
6.46807e-09
3.38411e-10
-5.43239e-09
-2.27009e-09
-2.12887e-10
7.91539e-09
-1.36335e-08
7.56737e-09
1.29348e-08
-6.86874e-09
5.38959e-09
-1.55549e-08
9.92763e-09
2.37387e-10
-8.45256e-09
1.4418e-08
-5.76107e-10
5.29488e-09
2.33084e-09
-1.11569e-08
3.53101e-09
9.20457e-09
-2.11395e-09
-1.79589e-09
-4.10239e-09
1.89679e-10
1.38706e-08
-9.95822e-09
-1.27167e-08
-6.94059e-09
-3.05842e-10
-9.85818e-09
1.47575e-08
-4.5937e-09
-3.81798e-09
8.15248e-09
-1.56799e-08
-3.72121e-09
-6.18974e-10
9.845e-09
-5.50514e-09
-7.29268e-09
1.35975e-08
-2.86141e-09
6.55802e-09
1.56837e-08
-7.69809e-09
-1.45437e-08
-4.34106e-09
1.59432e-08
-5.04414e-09
1.64526e-08
5.30128e-09
-6.07027e-09
1.76901e-08
-3.14369e-09
1.90627e-09
-1.29591e-09
4.1621e-09
-7.20735e-09
4.99328e-09
-1.39873e-08
-5.79989e-09
-4.72086e-10
2.3962e-08
-1.9134e-08
-5.75867e-09
1.90925e-08
1.44022e-08
-1.60262e-09
-1.2764e-08
-1.06872e-09
4.84347e-09
-1.26142e-08
-5.0372e-09
8.65888e-09
1.63529e-09
-5.25696e-09
1.29985e-08
-1.38736e-08
-5.59804e-09
-1.55257e-08
2.06516e-08
-5.32707e-09
1.48963e-08
-9.10414e-10
1.55569e-08
-7.88555e-09
1.35902e-08
-7.11155e-09
2.77133e-10
7.55446e-09
-1.23914e-08
7.07047e-09
-3.00305e-09
1.87963e-09
-1.26019e-08
1.51068e-08
-4.80628e-11
4.47989e-09
6.43422e-09
-5.05488e-09
-5.85923e-09
8.85877e-09
-7.68754e-10
-3.61012e-09
-4.26678e-09
5.73503e-09
7.39051e-09
3.00792e-09
-8.4047e-10
2.60388e-09
-1.09235e-08
3.26469e-09
1.31255e-08
7.30109e-09
-1.19265e-08
-8.50002e-09
4.14884e-09
-4.1791e-09
1.31557e-08
1.09738e-08
-5.52823e-09
-8.03983e-09
2.59431e-09
4.19751e-09
8.72237e-09
-1.9461e-09
4.90179e-09
-7.82612e-09
4.14577e-09
1.54904e-09
-7.92993e-10
5.26801e-09
3.07528e-09
5.07745e-09
-5.20474e-10
-1.53668e-10
2.07805e-09
2.66865e-09
-4.59304e-09
1.08788e-09
1.12785e-09
-2.36938e-09
4.70458e-10
1.60072e-09
-9.83255e-10
1.72823e-10
3.07872e-09
-1.17347e-09
1.60621e-09
-3.05523e-10
3.14046e-09
5.61378e-09
-6.08537e-09
4.93501e-09
-1.32407e-09
-2.61728e-09
3.73622e-10
1.32324e-09
9.20796e-10
7.50409e-10
-1.76688e-09
-1.16734e-09
2.23335e-09
-3.15547e-10
3.94841e-09
-2.04439e-11
1.68595e-09
2.41704e-09
6.46645e-09
9.17288e-10
-4.78276e-10
2.45346e-09
6.04913e-10
5.38584e-10
2.25271e-09
8.23893e-10
2.54691e-09
-1.17181e-08
7.94211e-09
-7.76457e-09
1.15406e-08
-3.75803e-09
-1.41222e-09
-6.5478e-09
1.42067e-08
-4.95505e-09
-1.30096e-08
2.07748e-09
1.69614e-08
-4.83223e-09
-8.02551e-09
1.30116e-09
1.46664e-08
1.71186e-08
-9.50734e-09
-1.70497e-09
-5.90619e-09
7.96429e-09
-3.61426e-09
-5.76224e-09
5.89615e-09
6.58427e-10
-1.15096e-08
8.11728e-09
4.10291e-09
-6.32401e-09
1.1143e-08
-9.48231e-10
3.78195e-10
-4.39396e-10
-3.00598e-09
-3.69042e-09
7.99759e-09
-6.34821e-09
5.73063e-09
-2.38838e-09
3.75357e-09
-6.70939e-09
-3.80118e-09
8.59598e-09
-3.61017e-11
3.37861e-10
-3.38767e-09
7.54531e-11
3.29807e-10
-4.51494e-09
-2.10926e-09
1.16642e-09
5.45778e-09
-1.8143e-09
-2.81657e-09
1.15899e-10
-9.0862e-09
-4.23647e-10
7.40059e-09
-8.04165e-09
-2.85889e-09
-2.57957e-10
-5.2184e-09
6.64278e-09
-9.17387e-09
-2.70662e-09
1.16225e-08
3.12157e-09
-7.79321e-09
-4.50228e-09
-2.30452e-09
2.07641e-10
-5.1772e-09
5.6063e-11
1.66883e-09
-2.00849e-09
-7.70202e-09
1.26407e-08
-1.04998e-08
-4.72106e-10
3.16642e-09
9.05066e-09
-2.9924e-10
-6.88647e-09
1.51601e-08
-1.47003e-08
8.15964e-09
-1.07716e-08
2.31266e-09
1.83818e-10
1.826e-10
-1.59656e-09
1.95076e-08
-6.55436e-09
-1.13568e-08
-9.0634e-09
1.33766e-08
-5.90974e-09
7.7158e-09
7.59796e-09
-1.94173e-08
4.10372e-09
8.91588e-09
-1.02635e-08
1.11578e-08
7.40251e-09
9.47293e-10
3.26268e-09
9.96124e-09
-5.626e-09
1.33041e-08
-1.12545e-09
1.37335e-08
1.00046e-08
-1.37766e-08
4.12906e-09
8.74829e-09
8.56427e-10
-7.93597e-09
1.17876e-08
7.30603e-09
4.08447e-09
1.35616e-09
-1.13676e-08
1.54441e-08
3.3261e-09
1.0207e-08
-1.02615e-08
-1.13131e-08
8.01156e-09
8.25285e-09
-2.96033e-09
1.27548e-09
1.08652e-08
7.63407e-09
-9.90558e-10
3.36126e-09
1.00692e-08
6.3131e-09
-5.39744e-09
6.17796e-09
1.46636e-08
3.81905e-09
1.01399e-08
2.1974e-09
9.61867e-10
1.70036e-08
7.30626e-09
2.79711e-09
3.65069e-11
-3.07108e-09
1.13392e-08
-8.87773e-09
1.06912e-08
-1.60097e-08
1.41964e-08
4.73705e-09
-2.21715e-08
8.55684e-09
4.83082e-09
-7.39365e-09
1.32539e-08
-7.20243e-09
1.65207e-08
-4.48741e-09
-1.18992e-08
9.43386e-09
-7.0314e-09
-7.58936e-09
-1.38903e-09
-1.95589e-08
-9.64409e-09
2.46266e-09
-1.80084e-08
1.31534e-08
2.39243e-09
-1.41229e-08
3.96847e-09
1.26171e-08
-1.39574e-08
7.36804e-09
-1.1419e-08
3.56687e-09
2.25266e-09
-1.32132e-08
-5.15948e-09
-5.08773e-09
-3.87574e-09
-8.06696e-09
-1.105e-08
-6.97721e-09
9.05968e-09
1.1071e-08
1.07787e-10
2.83045e-10
-6.19841e-09
-6.6641e-09
7.77476e-09
-1.61589e-08
1.89346e-09
-1.27148e-08
9.2337e-10
6.23011e-09
3.40756e-09
-1.62443e-08
6.60646e-09
-8.26716e-09
6.23189e-09
8.2654e-09
3.65311e-09
-1.2682e-08
7.61661e-10
3.25582e-09
-6.61732e-09
9.59339e-09
6.09164e-09
-1.28511e-08
1.0167e-08
-7.91078e-09
1.72582e-08
8.69064e-09
-7.05144e-09
2.01392e-09
-6.56496e-10
-4.44321e-10
-1.51436e-08
-1.5714e-10
-1.31813e-08
4.04078e-10
1.66924e-09
-4.59465e-09
-7.66777e-09
4.35159e-09
-8.03876e-09
-1.48448e-08
1.00323e-08
-1.23295e-08
-3.03983e-10
3.8289e-10
-7.59148e-09
-9.78029e-09
2.51659e-09
-9.60279e-10
-1.43289e-08
-5.65444e-10
-1.27243e-08
-9.96286e-09
-2.11188e-09
5.46043e-09
4.14203e-09
-7.49076e-09
7.20336e-09
-1.0862e-08
1.54673e-09
-3.33748e-09
-5.41776e-09
1.42157e-08
-8.51872e-09
1.23846e-08
4.09495e-09
-6.5905e-09
-8.36651e-09
-4.1935e-09
-2.30308e-10
1.26279e-09
-1.57555e-08
7.90208e-09
-5.047e-09
-9.02799e-09
8.6572e-09
-8.28417e-09
-9.56342e-10
9.2754e-09
-1.62968e-08
-5.43476e-11
3.0168e-10
-5.90023e-09
-4.75697e-09
1.12994e-08
-6.42279e-10
-4.19724e-09
-7.75211e-09
6.04914e-09
2.18272e-09
-1.31403e-08
1.0529e-08
4.2854e-10
9.39447e-09
-9.34887e-09
2.1372e-09
-1.06917e-08
-3.8463e-09
9.78104e-09
-8.47442e-10
-4.49732e-10
-3.82533e-09
1.03972e-08
-8.78611e-09
2.21426e-09
7.58217e-09
-9.56452e-09
-1.843e-09
2.36717e-09
3.83274e-09
-1.01735e-09
4.97287e-09
-1.26525e-08
2.20197e-10
7.45933e-09
-5.16935e-09
5.95857e-09
4.1834e-09
-2.42314e-09
1.36019e-09
-1.20774e-08
-2.11011e-10
-1.1561e-08
-1.58388e-08
-8.52845e-10
1.15223e-08
-3.32613e-09
-1.11525e-08
5.82982e-09
-2.62845e-09
2.88891e-09
-9.0465e-09
-1.2404e-08
-1.30897e-08
-3.23831e-09
2.28385e-09
-1.86162e-09
2.81564e-09
4.05723e-09
-5.58395e-09
-1.71172e-09
-6.67813e-09
1.09418e-09
7.86776e-09
-2.22388e-09
-3.97016e-10
7.07444e-09
-4.52096e-09
-5.30338e-09
2.7499e-09
-1.54751e-09
9.71615e-09
-4.12137e-09
-1.15323e-08
1.41061e-08
-6.70153e-10
6.7914e-09
-1.02427e-08
-7.55527e-09
5.02339e-09
-5.72526e-09
-1.01955e-09
-4.94143e-09
4.47599e-10
-3.06156e-09
-3.08131e-09
-7.44399e-09
-2.58387e-09
1.47811e-09
-1.04267e-08
-8.84877e-10
2.19312e-09
-4.38963e-09
4.53866e-09
-9.78498e-09
4.36143e-09
-6.79831e-09
-1.08896e-09
2.15717e-09
-4.41681e-09
-1.37494e-09
7.11236e-10
-5.20579e-09
-3.21192e-10
4.81569e-09
-7.3022e-09
4.03464e-09
-1.29699e-10
3.39728e-09
1.19877e-09
-4.2321e-09
-4.26888e-09
-3.75534e-09
-3.53772e-09
5.87303e-09
1.41997e-09
-3.63635e-09
5.92241e-10
-4.80304e-09
5.29995e-09
-1.85458e-09
-1.74969e-09
6.12167e-09
-5.43305e-09
1.17587e-09
-1.86439e-09
-4.4254e-09
5.3413e-09
3.84204e-09
-2.47632e-09
-6.7987e-09
5.9967e-10
-1.18298e-09
-3.94346e-09
-5.96464e-09
6.83471e-09
3.07359e-09
7.52944e-09
-3.90932e-09
-7.85213e-09
3.45624e-09
-3.56038e-09
-1.93051e-09
-4.53927e-09
-2.4952e-10
2.43373e-09
5.37465e-10
-5.4474e-09
-5.26959e-10
-7.91111e-09
-2.69998e-10
1.7831e-09
6.37679e-09
-7.8899e-09
7.31315e-09
1.65081e-09
-9.23398e-09
2.75828e-10
7.4762e-09
-5.96889e-09
1.71538e-10
7.16583e-09
-2.42182e-11
6.36754e-09
1.80788e-10
2.36985e-09
8.75023e-09
-9.46919e-09
1.20822e-08
-9.43652e-09
4.04708e-09
9.50493e-09
-6.07579e-09
5.87961e-09
-2.15419e-09
3.21693e-10
6.77615e-09
2.58175e-10
1.71596e-09
-5.68098e-09
2.16014e-09
9.40055e-09
-2.04997e-09
5.87393e-09
-5.48401e-09
3.84547e-09
8.41475e-09
4.54815e-09
4.19606e-09
1.72882e-11
5.85341e-09
1.5706e-09
-3.68206e-09
9.68768e-09
6.36741e-09
1.04392e-08
3.98034e-10
-5.09541e-09
-5.74192e-09
-3.22544e-09
3.31988e-09
1.03447e-08
-1.25209e-08
-5.86459e-09
1.28047e-08
5.58069e-09
-6.12279e-09
-6.00006e-09
5.43659e-09
-4.05253e-09
-6.47949e-09
2.70757e-09
-4.96428e-10
-1.27727e-08
-2.81874e-09
9.72679e-09
-9.46488e-09
-9.43067e-09
2.8805e-09
9.42098e-09
-1.51202e-08
2.74512e-09
-9.26139e-09
2.46371e-09
2.15278e-09
-8.20456e-09
9.26794e-09
-3.21617e-09
5.66146e-09
-3.21908e-09
-2.89632e-10
4.30757e-09
5.22808e-09
-6.79053e-09
-5.33105e-09
1.43405e-09
-5.41557e-09
-1.93929e-09
8.31254e-09
-9.57695e-10
-2.48685e-09
-2.21159e-10
-4.29527e-09
8.01743e-09
7.85317e-09
-4.7786e-10
-1.64146e-08
1.12713e-09
4.75218e-09
1.05348e-08
-5.49162e-09
-9.81666e-09
-1.1064e-09
-1.56291e-08
-7.15299e-10
-4.00566e-09
2.03498e-08
1.00392e-09
6.72246e-10
-1.73056e-08
-1.05701e-08
3.46011e-09
8.23695e-09
-1.08236e-08
-5.23818e-09
4.49506e-09
-1.15483e-08
1.18053e-08
1.30009e-08
-1.37408e-08
3.53895e-09
-2.79924e-09
1.12062e-08
-1.29041e-08
2.70151e-09
1.49859e-08
1.24552e-08
2.74592e-09
-2.66212e-09
-9.90054e-09
1.1125e-10
-8.91385e-09
2.03006e-09
-1.10908e-08
-4.68013e-09
-1.53089e-08
-3.64726e-09
2.09862e-08
-8.58344e-10
-1.26275e-08
-1.73679e-09
2.55982e-09
-1.6132e-08
-1.3686e-08
-1.02331e-08
3.21348e-09
-1.02893e-08
1.58214e-08
-8.74549e-09
1.4694e-08
-6.89025e-09
-4.5903e-09
1.92451e-08
-2.71573e-09
-1.46828e-08
-1.84643e-09
6.65055e-10
1.07594e-08
7.82072e-09
9.47315e-09
5.68462e-09
-1.44928e-08
1.28478e-08
4.56376e-10
-6.01955e-09
-7.28475e-09
3.48991e-09
-1.20276e-09
-1.25764e-08
-1.52835e-08
1.60578e-08
3.76694e-09
7.66705e-09
4.3874e-09
7.53425e-09
1.09266e-08
3.55072e-09
1.80858e-08
-1.08771e-08
9.83775e-09
1.24832e-08
-1.12506e-08
8.73109e-09
-4.3708e-09
-1.44504e-08
1.99701e-09
-5.5468e-09
1.89352e-08
1.13e-08
2.92639e-09
-5.49542e-09
1.32875e-08
-5.76438e-09
2.3453e-09
-1.99982e-09
-6.40846e-09
-1.44481e-09
-1.0423e-09
8.89553e-09
-6.59996e-09
8.25423e-09
-6.67407e-09
3.96868e-09
3.02261e-09
-2.9261e-09
-4.06524e-09
-2.09541e-09
-9.75901e-10
-6.08575e-09
-2.60963e-09
-2.30694e-09
-1.01873e-08
-2.91332e-09
-9.71624e-10
-5.18919e-09
-2.02003e-09
3.22204e-09
-8.45513e-09
-4.88049e-09
9.44156e-09
-2.47175e-09
-6.58741e-09
-3.82277e-10
-1.98351e-09
1.11912e-09
1.03059e-08
1.57012e-09
-1.05809e-08
1.47903e-08
-5.77953e-09
1.45749e-08
-9.83766e-09
-3.16707e-09
-1.08017e-08
-1.71164e-09
1.93246e-09
2.35633e-09
-1.62226e-08
3.06467e-09
1.38943e-08
-1.09286e-08
-5.43742e-09
7.1977e-10
1.1191e-08
-1.46497e-09
7.25184e-09
9.00344e-09
6.52254e-09
-1.13862e-09
-5.27764e-09
7.53539e-09
3.65415e-09
-1.11354e-08
-8.81353e-09
8.39469e-09
-7.59531e-10
-6.51489e-09
9.69162e-09
-6.69661e-09
-3.75452e-09
-9.40413e-09
-7.65138e-09
8.242e-09
6.1624e-09
-5.87491e-09
-1.87838e-09
3.89436e-10
-5.43128e-09
7.40549e-09
-7.5258e-09
2.16156e-10
2.47084e-09
7.1655e-10
7.93267e-09
-1.112e-08
-2.3774e-09
-2.31845e-09
-6.91736e-09
1.16132e-08
-1.6992e-09
-8.44444e-09
-3.62122e-09
1.37647e-08
-7.40117e-09
1.00891e-08
-4.38721e-09
-7.30768e-09
-1.06247e-08
9.02283e-09
-9.16564e-09
8.65388e-09
-1.1855e-08
-1.06867e-08
7.83444e-09
1.47074e-08
-3.91839e-09
-1.92591e-09
-6.01067e-09
1.16983e-08
-1.1493e-08
-3.82653e-09
-1.34386e-08
2.53469e-09
2.17204e-10
-8.30558e-09
-9.05138e-09
-7.47567e-09
2.59999e-09
-4.28996e-09
-1.42744e-08
-4.32127e-09
-6.20383e-09
-6.65604e-09
1.0934e-08
-6.977e-09
-4.93274e-09
1.45097e-08
-1.13094e-08
-3.97316e-09
2.0922e-09
1.38693e-08
-1.27275e-08
-3.23396e-09
-7.90489e-09
-5.60656e-09
1.70795e-09
-1.67995e-09
-1.37143e-08
-5.35347e-09
2.38109e-09
-1.43346e-09
-1.01532e-09
-1.36833e-08
-3.86781e-09
-1.59242e-08
1.44385e-08
-8.56895e-09
-8.34556e-10
5.53564e-09
-7.01178e-09
-1.57691e-08
6.85673e-09
-1.55304e-08
-5.0326e-11
-7.25461e-09
1.48805e-08
-3.00117e-09
-4.6248e-09
1.12689e-08
-1.2148e-08
-6.3756e-09
1.3178e-08
-1.19518e-08
-2.65968e-09
-4.61034e-09
1.41411e-08
-1.58471e-08
1.04022e-08
-1.03902e-08
9.42352e-09
6.3296e-09
-5.45087e-09
7.37277e-10
-6.87322e-09
-9.63326e-09
-8.46354e-09
-9.88924e-09
6.8631e-09
-3.84724e-09
-3.49898e-09
-1.1454e-08
3.58917e-09
8.66969e-11
2.82511e-09
-6.50093e-09
4.92095e-09
4.51543e-09
-5.84719e-09
4.42385e-09
3.28198e-09
-7.61913e-09
3.85837e-09
2.57853e-09
-2.01303e-09
-6.13959e-10
3.43379e-09
1.03851e-09
-4.43026e-09
2.85412e-09
9.62176e-10
1.13932e-09
-5.31223e-09
7.60675e-09
-4.36488e-09
-2.39086e-09
7.89508e-09
-5.9954e-10
-6.1631e-09
1.45041e-09
-4.68825e-09
-2.76155e-10
1.33641e-09
-1.90684e-09
1.73401e-09
1.3093e-09
-3.91039e-10
2.19857e-09
-3.34686e-09
-3.80288e-09
4.26614e-09
-2.95008e-10
8.35383e-09
7.74151e-09
-3.42618e-09
-1.26692e-08
6.03101e-09
2.0587e-09
2.64173e-10
7.14126e-09
-8.20394e-10
1.42057e-09
3.22126e-09
9.95098e-09
5.5932e-09
-4.16857e-09
2.26822e-09
-3.69289e-09
3.37865e-09
1.39409e-09
2.28325e-09
-9.87799e-09
-4.71635e-09
3.13339e-09
4.96159e-09
-1.96325e-09
-4.84917e-10
-4.12508e-09
5.29431e-09
8.89477e-10
4.2898e-09
-6.13166e-09
-2.9397e-09
9.29433e-09
3.07061e-09
-7.44063e-10
5.42523e-09
6.29816e-09
4.89753e-09
-9.46232e-09
-1.73331e-09
4.08054e-09
9.67509e-09
-7.38434e-09
-6.37121e-09
-5.12359e-09
1.16532e-08
-2.44899e-09
8.82854e-09
-7.65396e-09
4.2668e-09
-1.29149e-08
4.62481e-09
4.02328e-09
-8.26205e-09
5.37137e-09
7.15747e-09
-8.76203e-09
-5.41361e-09
1.26078e-09
-7.80933e-09
-9.21475e-09
3.31769e-10
6.4433e-09
-1.87755e-09
-1.93959e-09
-5.53795e-09
6.2056e-09
-1.94406e-09
-1.42609e-09
5.14027e-09
7.9391e-09
2.70386e-09
4.69858e-09
6.09271e-09
-1.90918e-09
1.18779e-09
3.33174e-11
-4.33997e-09
1.03994e-08
-3.74259e-09
8.40073e-09
7.60331e-09
6.071e-09
-1.53688e-09
4.43487e-09
-5.21727e-09
8.09052e-10
2.89085e-09
-7.24274e-09
-8.65442e-10
-7.13785e-09
2.66854e-09
7.36012e-09
-2.69844e-09
-3.16633e-09
-1.37799e-09
-3.61338e-09
-9.17667e-09
1.17477e-08
-4.70764e-09
-5.12866e-09
-8.66116e-10
-4.32027e-09
9.3947e-09
-2.24107e-09
-1.07671e-08
9.87122e-09
-2.26562e-09
1.78896e-09
-7.81485e-09
-9.81295e-09
7.94405e-09
5.25473e-09
-3.38587e-09
-1.96855e-09
-1.19367e-08
4.09223e-09
-1.94743e-09
-2.79868e-09
9.1458e-09
-4.3996e-09
-5.05114e-09
1.12053e-08
-8.10154e-09
8.83534e-09
-3.83693e-09
-1.00495e-08
-3.15162e-09
8.97639e-09
3.01061e-09
1.08056e-08
-5.66029e-09
-4.83843e-09
7.3148e-09
8.32928e-09
2.19387e-09
-7.35706e-09
3.24703e-10
7.48006e-09
-1.25355e-08
1.21849e-09
4.95032e-09
-6.21872e-10
4.8396e-09
-1.1555e-09
5.46172e-09
2.64296e-09
1.3402e-08
6.57623e-09
5.67965e-10
-7.11778e-09
-2.46768e-09
1.22284e-08
-2.06441e-09
3.92299e-09
-4.06141e-09
-3.51365e-09
5.10737e-09
4.50441e-10
2.64566e-09
1.02482e-09
-7.02434e-10
7.78062e-09
-8.10297e-09
5.38902e-10
3.31955e-09
-2.83362e-09
-1.05482e-08
1.01423e-08
-1.34521e-09
1.75115e-09
4.33409e-10
-1.53772e-09
-9.44389e-09
8.09859e-09
1.89352e-10
1.85451e-09
6.05672e-09
-5.08439e-09
5.00078e-09
-2.8925e-10
-4.61968e-09
4.27019e-09
8.44812e-09
-3.4828e-10
7.29413e-10
-1.28222e-08
1.0753e-08
2.25857e-09
-9.67503e-09
-4.62311e-10
-2.68478e-09
-6.31365e-10
-1.05814e-08
7.18837e-09
-1.08081e-08
1.43728e-08
-5.46242e-09
1.6921e-08
-7.97055e-09
1.01122e-08
-2.6039e-09
-9.30432e-09
3.4002e-09
8.1864e-09
-3.80595e-09
6.21872e-09
5.01028e-10
-5.00545e-09
-9.16348e-09
8.70655e-09
8.6502e-10
-5.2366e-10
-4.5337e-10
-1.21953e-09
2.6452e-09
1.07248e-08
3.77698e-09
-1.71473e-08
-1.47804e-08
8.98703e-09
8.43854e-09
2.43484e-08
-1.14033e-08
-1.13304e-08
-1.61514e-09
-8.35251e-09
1.79205e-08
1.53399e-08
-8.5423e-09
-1.8201e-08
3.91389e-09
3.07337e-09
-9.66749e-10
1.49445e-08
-1.49933e-08
-1.51747e-08
1.45193e-08
-3.1146e-10
1.81661e-09
-4.91933e-09
1.38274e-08
-4.10888e-09
1.49124e-08
-3.52444e-09
-1.56356e-08
1.50509e-08
1.18681e-09
-1.02105e-08
3.60051e-09
-5.28425e-09
1.18938e-08
-3.94835e-09
-1.77464e-08
1.14841e-08
5.8466e-09
-1.83374e-08
1.25543e-08
-2.18825e-08
5.41407e-09
-7.85309e-09
2.79759e-09
-1.26464e-08
-3.63187e-09
1.50946e-08
1.30447e-09
-7.93501e-09
-8.46435e-09
-1.58157e-10
3.82982e-09
1.14229e-08
-1.11143e-08
1.96796e-09
8.98807e-09
-4.48834e-09
-5.32156e-09
1.39421e-08
-6.95377e-09
-1.49235e-08
3.98838e-09
1.37833e-08
9.75806e-09
-2.70653e-09
2.49916e-09
-9.5508e-09
-1.18305e-10
1.06339e-08
-7.57673e-10
-1.18835e-08
3.04953e-09
1.08018e-08
-8.25251e-09
-8.11932e-09
-7.22807e-09
-1.14267e-09
-3.13782e-11
-9.90321e-09
-1.11102e-08
4.12495e-09
1.09389e-08
1.1323e-09
-9.57211e-09
1.99244e-08
1.64833e-09
1.25757e-09
-1.17657e-08
1.35577e-08
-1.03601e-08
-1.2654e-09
1.28829e-08
-1.33919e-08
-8.73403e-09
1.43219e-08
-1.1599e-08
1.07227e-08
-8.54817e-09
-1.04233e-09
1.72553e-08
-5.95279e-09
7.2538e-09
-4.32811e-09
3.02644e-09
1.07648e-08
-1.13662e-08
-5.35139e-09
-7.10996e-09
2.1414e-09
1.22224e-08
-3.03073e-09
6.6853e-09
-8.44972e-09
1.9524e-09
-6.89145e-09
1.01079e-08
8.64458e-09
-4.53996e-09
4.04045e-09
1.09043e-09
5.18894e-09
-4.35116e-09
9.30144e-09
-2.80923e-09
1.82727e-09
-9.20903e-09
-7.73274e-09
-1.19034e-08
2.01463e-10
1.94346e-08
-5.18657e-09
5.31815e-09
-7.86436e-09
1.43551e-08
2.50007e-09
-7.12846e-09
5.10051e-10
8.65842e-09
8.99522e-09
8.16789e-09
-7.11387e-09
-1.00494e-08
-7.42734e-09
1.82446e-08
-1.82216e-09
2.37663e-08
-1.30984e-08
9.31883e-09
1.49574e-08
-1.11482e-08
1.26185e-08
7.19426e-09
-8.66474e-09
1.15319e-09
8.73001e-09
-2.10314e-08
9.50481e-09
-1.54655e-08
9.08493e-09
-7.00756e-09
-9.0838e-09
7.56791e-09
1.41344e-08
-7.48228e-09
-4.30028e-09
7.70622e-09
-1.53093e-08
7.98403e-09
1.95793e-08
1.76744e-08
-1.39528e-09
-1.00142e-08
1.81996e-08
3.35987e-09
1.73663e-08
-8.46718e-09
4.4449e-09
-1.3344e-08
-1.60912e-10
1.41262e-08
3.40089e-09
1.1487e-08
-2.03047e-08
3.50543e-10
9.54325e-09
1.78272e-09
7.35827e-09
-1.51326e-08
7.12097e-09
6.53297e-10
1.60783e-09
-5.64116e-09
1.13915e-08
-5.07366e-09
-5.614e-09
7.38071e-09
-9.65861e-09
9.39887e-09
-5.00637e-09
1.39949e-08
1.09592e-09
-1.6223e-08
1.00485e-08
5.07871e-09
5.27702e-09
-1.38397e-08
-8.32548e-10
-3.71579e-09
-1.16747e-08
-4.35581e-09
1.28408e-08
-2.98341e-09
8.02545e-09
1.26602e-08
-3.94947e-09
5.3209e-09
-1.02761e-08
-6.87924e-10
-1.19856e-10
1.10844e-08
-3.17469e-09
-4.96167e-09
-2.13955e-09
-1.00181e-08
-4.32534e-10
9.76284e-09
-4.47361e-09
-8.71921e-09
-1.75854e-10
5.40913e-09
-5.35293e-09
7.60605e-09
-4.10342e-09
-7.34155e-09
3.83906e-09
1.63979e-09
2.37988e-09
3.58651e-09
-3.61713e-10
-3.11411e-09
3.30015e-09
-5.37838e-09
4.58416e-09
3.23202e-09
-3.18253e-09
9.65959e-10
-1.01537e-09
2.95261e-09
1.91923e-09
-9.05841e-10
-6.38012e-09
2.12725e-10
-2.60221e-09
-2.08414e-09
5.87376e-09
-2.88947e-09
-2.77152e-09
-3.18908e-09
3.02761e-09
-2.83978e-09
3.33519e-09
2.00706e-09
-5.51504e-09
3.6842e-09
-4.56657e-09
-1.57748e-09
-6.45582e-10
-7.33011e-10
-4.65561e-09
7.17667e-10
5.58983e-09
-1.65185e-09
3.18386e-09
-9.71254e-09
1.87311e-09
-5.65948e-09
-2.25314e-09
-1.53765e-09
9.45031e-09
-4.04424e-09
-1.98779e-09
3.72574e-10
-9.25765e-09
-5.2524e-09
1.22569e-08
-7.87393e-09
-5.42794e-09
-3.97677e-09
-3.27539e-09
-6.21699e-10
7.26134e-09
-1.0697e-09
-5.4739e-09
4.039e-09
-4.83188e-09
2.82957e-09
5.3799e-09
-2.61965e-09
6.2371e-09
6.31459e-10
-4.06281e-09
-4.24833e-09
6.77354e-09
1.86535e-10
-1.3993e-09
6.78647e-09
-1.06394e-08
-2.90542e-09
4.0371e-09
2.95664e-09
5.7266e-09
1.27829e-08
-8.55471e-09
-5.32306e-09
1.32382e-08
-2.18872e-09
-1.18372e-08
9.54351e-09
-3.02956e-09
1.353e-08
1.4885e-09
-1.47915e-08
8.46151e-09
1.58735e-08
1.35865e-08
1.13016e-08
1.00008e-09
4.81256e-10
8.24862e-09
1.62911e-08
9.63042e-09
-8.6487e-09
1.8372e-11
-1.21803e-08
8.22332e-09
1.35874e-08
1.10688e-08
1.86764e-09
2.05916e-09
9.65981e-09
1.33541e-08
3.04142e-09
2.2775e-08
-6.30315e-09
2.34857e-10
6.12147e-09
-7.03704e-09
6.80709e-10
5.14061e-09
1.93833e-10
-7.15168e-09
1.81728e-09
6.78556e-09
1.05158e-09
-7.60228e-09
1.48359e-09
4.03744e-09
1.39388e-10
-5.6604e-09
5.68732e-09
1.91776e-09
-4.70719e-09
6.00017e-09
1.15064e-08
-1.27994e-08
1.25099e-09
3.34472e-09
-9.3029e-09
-6.54815e-09
5.12847e-09
2.67069e-09
5.38484e-09
-5.14744e-09
5.36268e-09
-9.57149e-10
-3.68092e-10
-3.90154e-09
4.19925e-09
5.06498e-09
9.56677e-10
8.2914e-10
-5.24245e-09
3.25717e-09
7.11377e-09
1.09909e-09
4.90398e-09
-7.20509e-10
-3.01207e-09
1.04685e-08
7.89208e-09
-5.32317e-09
8.08827e-09
1.16527e-08
8.52127e-09
1.18226e-08
-2.56671e-08
-6.72642e-09
9.15955e-09
-3.06077e-10
-2.12716e-09
1.5322e-08
-1.35272e-08
1.46311e-08
-1.53608e-08
1.25523e-08
8.61225e-09
1.21864e-08
-5.47672e-09
3.99658e-09
1.37752e-08
-1.39121e-09
1.24165e-08
9.02553e-09
-2.0051e-08
9.25226e-09
5.96736e-09
-1.6611e-08
1.2069e-08
-4.28687e-09
5.39413e-10
1.41266e-08
-3.50582e-11
-1.23516e-09
1.3961e-08
1.02418e-08
1.63012e-08
-1.27167e-08
3.53936e-09
1.4297e-08
-5.11996e-09
-4.76544e-09
1.30084e-09
1.87535e-08
-4.97235e-09
-3.67772e-09
1.09811e-08
1.70234e-08
-6.17708e-09
-1.74943e-09
-9.09691e-09
2.99677e-10
6.69453e-09
1.00291e-08
1.70256e-08
-1.50064e-08
-8.19625e-09
1.03177e-08
-9.97883e-09
1.35274e-09
-6.8394e-09
-1.34498e-08
7.41515e-09
1.27292e-08
-7.59588e-09
-7.69825e-09
6.1733e-09
-8.4539e-09
-1.63096e-08
6.66729e-09
-1.7523e-08
1.1497e-08
-1.0089e-08
1.39937e-08
-4.68205e-09
4.63205e-09
4.01381e-09
-3.9638e-09
-5.10993e-09
9.20396e-10
-4.92472e-10
-1.6325e-10
-4.46159e-09
-4.85048e-10
1.0555e-10
-3.36068e-09
2.75739e-09
4.97769e-10
-2.50501e-09
3.67446e-09
-2.49027e-10
7.45478e-09
-4.20072e-09
-7.85449e-09
-1.34629e-09
-3.46114e-10
4.11435e-09
-3.93148e-09
-5.37925e-09
3.56108e-10
-7.92001e-11
6.57559e-09
-7.19696e-09
7.00527e-10
4.46752e-09
-4.89285e-09
4.84289e-11
-9.60185e-10
-1.19079e-09
-5.67798e-09
6.43939e-09
1.61358e-10
-9.22769e-10
2.94285e-09
-1.01454e-08
1.52455e-09
-4.15548e-09
-5.59926e-10
-5.47189e-09
-8.56481e-09
-4.04582e-09
1.54557e-10
-6.03122e-09
1.2316e-08
8.0891e-09
-3.69922e-09
-4.23535e-09
9.56737e-09
5.49753e-09
-1.21221e-08
1.08624e-08
-1.13372e-09
1.25863e-08
-7.64875e-09
2.80211e-09
1.22172e-09
2.11482e-09
7.86194e-09
-4.56101e-09
-7.05556e-09
8.41619e-09
-6.66408e-09
-1.62904e-08
5.70917e-09
1.72454e-08
-1.10161e-08
8.70728e-11
4.26503e-09
-1.02102e-08
-2.43144e-09
-3.64877e-09
-7.59715e-09
-1.36292e-08
-8.92099e-09
1.0057e-09
1.36245e-08
-3.52747e-09
3.79304e-09
-7.44718e-09
7.18165e-09
-6.39639e-09
2.95604e-09
-3.47294e-09
-4.9029e-10
9.19598e-09
-5.23271e-09
3.49976e-10
-7.86885e-09
-3.48358e-09
-6.99307e-09
7.14644e-09
-8.38932e-09
8.23596e-09
1.81848e-09
-9.0609e-09
2.49351e-10
1.19452e-08
6.11814e-09
-7.17767e-09
-5.33685e-09
4.89465e-10
-2.97442e-09
8.55266e-09
-6.06851e-09
-9.80211e-09
5.37214e-09
-5.88036e-09
-3.78593e-09
-2.4588e-09
-6.59086e-10
2.40668e-09
-1.13885e-08
9.64092e-09
7.26882e-09
-9.53774e-09
1.60983e-09
8.85911e-10
-3.28307e-09
1.23589e-08
-9.96171e-09
8.75039e-09
-6.10574e-09
-1.75877e-09
3.47234e-09
5.1447e-09
1.3331e-10
7.36211e-10
-8.90678e-09
1.05773e-08
-1.72327e-09
2.88635e-09
-6.91038e-09
8.37672e-09
-7.30129e-10
-9.3529e-10
8.04608e-09
-3.63851e-09
1.14515e-08
-4.29321e-09
-8.09368e-09
5.64481e-09
-1.0894e-08
8.23325e-09
-2.9841e-09
7.28084e-09
7.9509e-10
-7.87876e-10
-7.28803e-09
2.1276e-10
3.40956e-10
6.72713e-09
9.40262e-09
-2.97334e-09
-9.09524e-09
2.66594e-09
2.94821e-09
8.21868e-09
-1.76427e-09
6.99781e-09
5.52527e-10
-6.75521e-09
6.87698e-09
3.33631e-10
3.64325e-10
-1.11882e-08
1.00359e-08
-7.1951e-09
2.96834e-09
5.44326e-09
-1.21657e-09
2.31526e-09
-2.63329e-09
1.05671e-08
-1.85342e-10
-1.00172e-08
9.57271e-09
2.53862e-09
-1.54415e-09
9.11563e-10
-8.28451e-09
1.03211e-08
-2.55169e-09
-8.3804e-09
1.18438e-08
-9.16265e-09
9.5792e-09
-5.05096e-09
-1.79628e-09
7.64223e-09
-7.27488e-09
-2.75313e-09
-7.48607e-09
1.85915e-09
-1.46476e-09
-4.8947e-09
-9.20681e-11
2.98932e-09
1.28215e-09
7.53118e-10
2.58711e-09
-1.15393e-09
-3.97423e-09
5.91212e-09
-7.83986e-10
-2.45285e-09
4.59756e-09
3.74623e-09
3.12605e-09
2.55185e-09
-4.00172e-09
3.60085e-09
2.32271e-09
2.93232e-09
-1.53232e-08
9.368e-09
1.07638e-08
-4.80849e-09
7.43067e-09
-5.15899e-09
-1.08261e-08
8.55445e-09
-3.57508e-09
-4.31748e-09
3.82722e-09
2.56705e-09
-9.99467e-09
3.60034e-09
-4.14384e-09
5.10589e-09
-4.53726e-09
7.32418e-11
-9.37614e-09
1.87035e-09
-4.38409e-09
-2.41525e-09
4.92878e-09
6.60729e-09
-4.17648e-09
-5.6049e-10
-4.50643e-09
4.79281e-09
3.54075e-09
2.62612e-09
-5.25307e-10
-6.78098e-09
6.29897e-09
-4.24961e-09
4.73155e-09
-3.79632e-09
-3.58557e-10
-5.56625e-09
-1.88162e-09
1.00033e-08
-2.55559e-09
-8.48654e-09
1.76072e-09
1.15948e-09
4.58897e-09
-8.89986e-09
4.84429e-09
-4.43181e-09
9.21018e-09
-4.59298e-09
8.08255e-10
-4.64993e-10
-3.54499e-09
-2.57241e-09
2.19092e-09
1.4406e-09
-6.68664e-10
-2.96279e-09
7.73357e-11
2.24915e-09
-1.35498e-10
2.70954e-09
-1.91444e-09
8.47638e-10
2.24186e-09
-3.79866e-10
-1.87036e-09
2.03962e-09
-9.18312e-11
-3.55441e-09
3.07409e-09
4.52554e-10
-1.48694e-09
9.13441e-10
2.40066e-09
-2.39889e-10
-3.75834e-10
4.25114e-09
-3.23363e-09
3.77129e-09
-8.61822e-10
1.00915e-08
-7.88482e-09
3.00074e-09
-5.20735e-09
5.39982e-11
8.23147e-10
1.53687e-08
-1.62459e-08
2.90715e-10
9.8548e-09
-1.14182e-08
-1.07162e-09
4.60506e-09
2.96056e-09
-1.04102e-08
-1.19954e-08
6.95191e-09
3.97196e-09
-8.34609e-10
-8.20022e-09
2.68967e-10
-9.36944e-09
9.9236e-09
7.88136e-09
-2.68528e-09
-6.03065e-09
1.09095e-10
-8.0664e-09
8.24798e-09
-8.0188e-09
8.39687e-09
-1.09298e-09
7.83226e-10
-6.14453e-09
-7.85866e-09
5.98438e-09
-8.09032e-09
8.52831e-10
-8.19337e-09
7.07888e-09
-6.37577e-10
3.2558e-10
9.55331e-09
-9.84615e-09
8.8112e-09
-7.34821e-09
3.14963e-10
3.19686e-09
7.64303e-09
-9.0627e-09
-1.77716e-09
1.10084e-08
5.17708e-10
5.91591e-09
7.73823e-09
3.8464e-09
-2.57528e-09
-1.23269e-09
-6.10703e-09
1.12489e-08
3.19926e-10
3.48247e-09
1.38825e-09
-9.16638e-09
4.29553e-09
-1.48142e-08
1.21896e-08
-7.14101e-09
3.80549e-09
4.72377e-09
1.19945e-08
-1.2081e-08
-9.07985e-09
-6.37511e-09
3.55544e-09
-7.58314e-09
-2.13317e-09
7.69714e-09
-3.40594e-09
-1.63723e-08
-3.07754e-09
-1.4375e-08
-2.11964e-09
-5.9753e-10
4.09401e-09
-1.37676e-09
-1.19486e-09
1.93897e-09
-1.40651e-09
-1.46862e-09
2.27757e-09
7.97365e-10
-1.80277e-09
2.74113e-09
3.15579e-09
5.22225e-10
-3.85954e-10
8.66185e-09
-1.29635e-09
-1.45318e-09
1.36022e-09
1.73467e-09
-2.29751e-09
3.1566e-09
-7.27836e-10
-2.54886e-09
1.20307e-10
-1.08956e-11
-7.80441e-10
3.948e-09
-5.08184e-09
-1.05376e-09
6.12477e-09
-6.91937e-09
-1.3175e-09
3.15529e-09
-3.43173e-09
5.17425e-09
3.58024e-09
7.34466e-10
-7.7465e-09
2.10932e-09
-2.26795e-10
-1.72937e-09
-8.3338e-10
1.78247e-09
-3.47821e-10
4.35638e-09
-3.91803e-09
4.90112e-10
-8.22058e-10
3.34867e-09
1.08587e-09
-3.13098e-09
1.29907e-10
-8.61618e-09
1.16171e-08
-1.09795e-08
-2.10656e-09
6.34921e-09
6.73663e-09
-3.35221e-09
-1.07584e-08
-6.05431e-09
-3.35665e-09
6.65285e-09
2.75791e-09
8.48684e-09
-8.80239e-09
-5.73887e-09
8.96296e-09
-6.73658e-10
-1.16417e-08
3.4996e-09
-9.806e-09
3.58164e-09
1.28771e-08
-1.78459e-09
4.65428e-10
-6.9581e-09
2.54176e-09
9.27598e-09
-4.85978e-09
6.83266e-10
-8.94396e-09
1.30256e-09
1.30158e-09
-1.07777e-08
-1.08927e-08
1.70161e-08
4.93412e-09
-7.06395e-09
3.45172e-10
8.83955e-09
-9.90611e-09
1.74976e-09
2.8809e-09
-1.58694e-09
-7.22713e-09
1.6873e-09
-7.44972e-09
-9.80576e-09
-1.10982e-09
5.56347e-09
-5.59613e-09
8.41444e-09
-7.58727e-09
-1.93704e-09
-9.31224e-09
-3.68101e-09
1.00853e-08
2.90803e-09
-5.98005e-09
-7.98228e-09
4.65012e-09
-9.5273e-09
3.54083e-09
2.30573e-09
7.84474e-09
-2.23097e-09
-1.15937e-08
4.16403e-09
-5.8465e-09
1.70088e-09
-9.85413e-10
7.69913e-09
-8.54995e-10
4.57808e-09
8.63554e-09
-3.12828e-09
-6.27932e-09
6.03892e-09
3.78133e-09
-8.33723e-10
-1.28153e-09
-1.39582e-09
5.11899e-09
-6.65854e-09
4.27732e-09
4.87914e-09
-8.94391e-09
1.8338e-09
5.52022e-09
-1.4747e-09
-5.39318e-09
4.77364e-09
-9.89966e-09
-5.59968e-09
-9.27661e-09
4.17598e-09
-4.79907e-09
1.43175e-09
-1.30473e-09
-4.13114e-10
-5.74235e-09
1.05116e-08
-4.91898e-09
-1.554e-09
-4.03884e-09
6.54635e-09
-9.66813e-09
-1.10949e-08
-5.28803e-09
1.14639e-08
1.09802e-08
-1.89855e-09
-2.87921e-09
-6.20248e-09
-1.3403e-09
6.37915e-09
5.94139e-09
1.61787e-08
-7.97973e-09
-1.00975e-08
6.01313e-09
8.82534e-09
1.15691e-08
-1.12218e-08
-6.40985e-11
9.60914e-09
7.97309e-09
-6.75254e-09
1.51641e-08
-1.86519e-09
-5.97141e-09
-8.00272e-09
-6.46354e-09
-2.26244e-09
-7.79047e-09
1.65164e-08
-6.51578e-09
1.33802e-08
-1.3617e-08
-7.01368e-09
-7.47391e-09
8.02403e-09
-7.9296e-09
-1.12719e-08
1.98146e-08
-1.0161e-08
-1.1916e-08
1.09018e-08
2.39716e-09
-3.2194e-09
-9.76566e-09
-6.91696e-09
-1.96786e-08
1.64346e-08
-1.8066e-08
-1.19292e-08
-4.52009e-09
3.00052e-10
1.61492e-08
-1.04154e-08
5.72984e-10
-2.08688e-09
2.03305e-09
-1.0937e-08
-1.51149e-09
-1.42191e-08
-1.00874e-09
1.07077e-08
-1.20035e-08
-1.64262e-09
-8.82199e-09
-4.30093e-09
1.34229e-08
-8.80577e-09
2.0168e-09
7.16042e-09
-3.13734e-09
7.69352e-09
-1.17167e-08
-4.07263e-09
2.96053e-10
-8.03171e-09
-3.69081e-09
7.42153e-09
4.26295e-09
-8.41228e-09
-4.65646e-09
-3.6479e-09
-1.20891e-10
7.1113e-09
5.01068e-09
-1.52593e-08
-5.37363e-09
8.65185e-09
5.08076e-09
-8.72198e-09
5.45398e-09
-4.50082e-10
-9.5594e-09
9.65979e-09
5.35353e-09
-2.8694e-10
-4.19172e-09
-4.59694e-09
4.96021e-09
-1.71226e-09
-7.83914e-09
9.60983e-09
-5.83375e-11
4.3218e-09
-1.10361e-08
1.19293e-08
-5.21494e-09
7.0909e-09
-3.043e-09
2.73937e-10
1.34359e-09
7.98266e-10
7.04731e-09
-9.18913e-09
-1.21902e-08