/*--------------------------------*- C++ -*----------------------------------*\
| =========                 |                                                 |
| \\      /  F ield         | OpenFOAM: The Open Source CFD Toolbox           |
|  \\    /   O peration     | Version:  v1612+                                |
|   \\  /    A nd           | Web:      www.OpenFOAM.com                      |
|    \\/     M anipulation  |                                                 |
\*---------------------------------------------------------------------------*/
FoamFile
{
    version     2.0;
    format      ascii;
    class       volVectorField;
    location    "100";
    object      U;
}
// * * * * * * * * * * * * * * * * * * * * * * * * * * * * * * * * * * * * * //

dimensions      [0 1 -1 0 0 0 0];

internalField   nonuniform List<vector> 
18793
(
(-0.805039 0.408657 -0.538589)
(-0.89781 0.299119 -0.587307)
(-0.814797 0.528427 -0.603677)
(-0.558182 0.359167 -0.412811)
(-0.610476 0.333414 -0.424616)
(-0.606539 0.364402 -0.452755)
(-0.573227 0.353568 -0.431016)
(-0.578293 0.320146 -0.445419)
(-0.538627 0.358679 -0.403496)
(-0.627634 0.389024 -0.428087)
(-0.589832 0.364779 -0.43853)
(-0.663213 0.374294 -0.450818)
(-0.690174 0.292199 -0.472142)
(-0.668149 0.372328 -0.444298)
(-0.724096 0.346238 -0.454627)
(-0.51796 0.346462 -0.36704)
(-0.611142 0.371047 -0.399873)
(-0.518888 0.337343 -0.359644)
(-0.506362 0.329304 -0.361544)
(-0.629633 0.377568 -0.417829)
(-0.533305 0.355098 -0.383699)
(-0.570976 0.330847 -0.384899)
(-0.600498 0.370161 -0.418957)
(-0.610853 0.361949 -0.400615)
(-0.555237 0.364517 -0.399403)
(-0.594666 0.383139 -0.423695)
(-0.766546 0.410301 -0.514127)
(-0.703759 0.395293 -0.477062)
(-0.658865 0.364407 -0.434852)
(-0.80129 0.413507 -0.514262)
(-0.746596 0.407021 -0.493406)
(-0.711782 0.404121 -0.488101)
(-0.743392 0.391635 -0.499861)
(-0.791123 0.417788 -0.52801)
(-0.660818 0.367036 -0.424789)
(-0.776758 0.41322 -0.507171)
(-0.784435 0.386319 -0.512164)
(-0.61161 0.782385 -0.551664)
(-0.620307 0.783574 -0.556622)
(-0.623015 0.782614 -0.537553)
(-0.600372 0.757267 -0.528654)
(-0.607243 0.801915 -0.578732)
(-0.585765 0.805245 -0.580946)
(-0.586729 0.784573 -0.583637)
(-0.613276 0.764609 -0.608829)
(-0.610152 0.761407 -0.598023)
(-0.603421 0.779094 -0.579556)
(-0.594256 0.716028 -0.551035)
(-0.614783 0.744818 -0.579087)
(-0.592904 0.713245 -0.51473)
(-0.239418 0.192017 -0.291093)
(-0.212901 0.179342 -0.246723)
(-0.217613 0.191171 -0.243899)
(-0.237203 0.17248 -0.281369)
(-0.212925 0.16604 -0.242417)
(-0.275115 0.242145 -0.334508)
(-0.25211 0.243234 -0.29751)
(-0.220991 0.1889 -0.230189)
(-0.2088 0.176063 -0.214872)
(-0.192826 0.147775 -0.201783)
(-0.276947 0.245631 -0.326712)
(-0.272966 0.245848 -0.319415)
(-0.204637 0.144922 -0.221099)
(-0.25664 0.199738 -0.302268)
(-0.255518 0.213252 -0.282233)
(-0.238711 0.174167 -0.275481)
(-0.743829 0.677353 -0.58558)
(-0.717058 0.690475 -0.572363)
(-0.712044 0.68603 -0.588876)
(-0.707623 0.679106 -0.593564)
(-0.734163 0.653084 -0.575509)
(-0.697246 0.673393 -0.561684)
(-0.721405 0.672032 -0.565128)
(-0.717828 0.662734 -0.601371)
(-0.713428 0.635133 -0.595075)
(-0.726724 0.636669 -0.602047)
(-0.727046 0.646788 -0.561428)
(-0.72983 0.626813 -0.56922)
(-0.730562 0.637697 -0.593677)
(-0.709622 0.646718 -0.570268)
(-0.724412 0.62117 -0.595666)
(-0.703403 0.593351 -0.575641)
(-0.700222 0.596764 -0.53628)
(-0.704528 0.614781 -0.56028)
(-0.891275 0.195198 -0.346392)
(-0.865241 0.173092 -0.323351)
(-0.918127 0.227074 -0.390892)
(-0.891988 0.199306 -0.356706)
(-0.909584 0.23026 -0.351784)
(-0.936093 0.274641 -0.376583)
(-0.931453 0.272426 -0.358989)
(-0.890288 0.223687 -0.332559)
(-0.889301 0.213683 -0.334885)
(-0.910071 0.239147 -0.373984)
(-0.896315 0.303644 -0.419287)
(-0.91124 0.294862 -0.418069)
(-0.91298 0.246142 -0.346273)
(-0.924642 0.312373 -0.419052)
(-0.940077 0.291375 -0.366581)
(-0.937316 0.285436 -0.382844)
(-0.688444 0.437384 -0.414234)
(-0.761442 0.462451 -0.453137)
(-0.659896 0.426695 -0.442111)
(-0.763119 0.467811 -0.469767)
(-0.644016 0.394077 -0.365985)
(-0.616891 0.391924 -0.416511)
(-0.710317 0.427222 -0.453818)
(-0.663906 0.432299 -0.458995)
(-0.672064 0.423269 -0.450742)
(-0.768748 0.45487 -0.444471)
(-0.783927 0.46005 -0.465798)
(-0.627093 0.3902 -0.384153)
(-0.52671 0.375868 -0.366649)
(-0.755708 0.435199 -0.464643)
(-0.732176 0.439564 -0.472495)
(-0.653235 0.40754 -0.429062)
(-0.68909 0.415767 -0.456265)
(-0.575931 0.372375 -0.364703)
(-0.524858 0.363473 -0.358248)
(-0.769724 0.446095 -0.465114)
(-0.68091 0.411646 -0.408174)
(-0.776277 0.4273 -0.469892)
(-0.7635 0.424532 -0.46741)
(-0.521739 0.469976 -0.404366)
(-0.538782 0.489823 -0.411236)
(-0.668309 0.533076 -0.454747)
(-0.673616 0.540499 -0.481353)
(-0.636634 0.534802 -0.473289)
(-0.534152 0.470916 -0.396808)
(-0.528657 0.485463 -0.409371)
(-0.797757 0.619483 -0.526911)
(-0.76437 0.60129 -0.516673)
(-0.785517 0.629501 -0.54376)
(-0.706792 0.578687 -0.480943)
(-0.745408 0.600068 -0.50396)
(-0.738812 0.613224 -0.522585)
(-0.797107 0.619033 -0.553442)
(-0.764246 0.591411 -0.550071)
(-0.700589 0.587735 -0.48759)
(-0.679541 0.587762 -0.497625)
(-0.684501 0.563831 -0.511751)
(-0.730453 0.622763 -0.466643)
(-0.800253 0.621492 -0.463329)
(-0.815839 0.617752 -0.454626)
(-0.81144 0.592237 -0.447325)
(-0.680751 0.578807 -0.437874)
(-0.791158 0.580376 -0.430433)
(-0.809059 0.595274 -0.4438)
(-0.72452 0.625191 -0.464217)
(-0.790063 0.633328 -0.46006)
(-0.838998 0.571932 -0.438208)
(-0.798631 0.578091 -0.429606)
(-0.66398 0.581983 -0.41668)
(-0.696927 0.569689 -0.425617)
(-0.813602 0.584603 -0.438136)
(-0.838239 0.590288 -0.447987)
(-0.638045 0.576369 -0.424903)
(-0.694552 0.587204 -0.433976)
(-0.790783 0.59486 -0.440281)
(-0.495375 0.372064 -0.373321)
(-0.550053 0.392263 -0.406845)
(-0.52919 0.385854 -0.401816)
(-0.554832 0.399788 -0.415516)
(-0.539987 0.401427 -0.401804)
(-0.596137 0.413199 -0.447675)
(-0.489019 0.38243 -0.37841)
(-0.532979 0.400446 -0.417093)
(-0.544915 0.406878 -0.423428)
(-0.517326 0.414285 -0.416626)
(-0.510001 0.40827 -0.404438)
(-0.6021 0.588 -0.394214)
(-0.599988 0.570119 -0.34528)
(-0.595669 0.567991 -0.456569)
(-0.608441 0.587876 -0.440768)
(-0.62711 0.568293 -0.427139)
(-0.630775 0.552201 -0.386869)
(-0.526082 0.587997 -0.349165)
(-0.584233 0.572841 -0.359659)
(-0.534348 0.595575 -0.347112)
(-0.611862 0.55223 -0.345208)
(-0.377022 0.560447 -0.402478)
(-0.440768 0.560331 -0.42336)
(-0.57167 0.589564 -0.463442)
(-0.613839 0.572181 -0.394755)
(-0.442177 0.597957 -0.430468)
(-0.412396 0.585604 -0.427832)
(-0.600098 0.593109 -0.470352)
(-0.475871 0.587914 -0.354187)
(-0.561344 0.582889 -0.377976)
(-0.395375 0.578026 -0.392885)
(-0.422974 0.223765 -0.397744)
(-0.423259 0.203958 -0.403953)
(-0.45609 0.212186 -0.412844)
(-0.451035 0.182882 -0.408817)
(-0.562773 0.225982 -0.477502)
(-0.545811 0.242554 -0.469709)
(-0.520129 0.320242 -0.445612)
(-0.461233 0.324466 -0.419237)
(-0.414792 0.241521 -0.39629)
(-0.513644 0.194226 -0.454653)
(-0.409556 0.239362 -0.394405)
(-0.435714 0.221749 -0.415238)
(-0.546743 0.31879 -0.465893)
(-0.459226 0.233139 -0.42697)
(-0.527025 0.268724 -0.468294)
(-0.590552 0.25587 -0.482033)
(-0.548917 0.248583 -0.471053)
(-0.53306 0.234129 -0.463296)
(-0.381792 0.223873 -0.367995)
(-0.304727 0.23336 -0.27665)
(-0.302919 0.227936 -0.274196)
(-0.319637 0.206744 -0.305576)
(-0.338753 0.194731 -0.327416)
(-0.297579 0.207468 -0.262971)
(-0.293194 0.183968 -0.267815)
(-0.422458 0.250808 -0.408418)
(-0.381798 0.230321 -0.369535)
(-0.367465 0.229345 -0.362905)
(-0.349023 0.203466 -0.345837)
(-0.354209 0.27043 -0.33939)
(-0.316661 0.254405 -0.30442)
(-0.306895 0.252689 -0.294642)
(-0.311899 0.192468 -0.301021)
(-0.381492 0.280627 -0.372752)
(-0.335821 0.238575 -0.327057)
(-0.331996 0.221451 -0.326316)
(-0.333692 0.259325 -0.327389)
(-0.901969 0.399448 -0.440366)
(-0.910797 0.411943 -0.46416)
(-0.917674 0.39129 -0.436767)
(-0.905831 0.400211 -0.464195)
(-0.900389 0.385239 -0.448169)
(-0.902876 0.417295 -0.475219)
(-0.904822 0.417057 -0.471724)
(-0.916569 0.381245 -0.42654)
(-0.875776 0.347806 -0.406652)
(-0.894457 0.412034 -0.476408)
(-0.911236 0.366991 -0.427123)
(-0.936619 0.391469 -0.443506)
(-0.931516 0.414485 -0.479445)
(-0.914228 0.410919 -0.469088)
(-0.879204 0.371349 -0.426107)
(-0.914374 0.399955 -0.474915)
(-0.927738 0.391312 -0.459844)
(-0.910631 0.394296 -0.458365)
(-0.865985 0.278284 -0.382171)
(-0.854168 0.248364 -0.357851)
(-0.855928 0.377188 -0.41632)
(-0.869774 0.335628 -0.413532)
(-0.827191 0.256714 -0.328206)
(-0.800949 0.230298 -0.313266)
(-0.80095 0.36505 -0.367094)
(-0.831513 0.386067 -0.413178)
(-0.777623 0.36336 -0.328253)
(-0.874856 0.31613 -0.337048)
(-0.734692 0.267124 -0.249148)
(-0.728029 0.229589 -0.240422)
(-0.809013 0.271005 -0.307465)
(-0.78708 0.29616 -0.289749)
(-0.791196 0.261171 -0.302585)
(-0.764695 0.214763 -0.279056)
(-0.75238 0.26396 -0.264011)
(-0.770496 0.291383 -0.281543)
(-0.785607 0.257989 -0.286309)
(-0.505666 0.384687 -0.40262)
(-0.490114 0.383304 -0.396)
(-0.657958 0.41056 -0.40713)
(-0.688389 0.406729 -0.411062)
(-0.568934 0.389029 -0.438261)
(-0.591322 0.373696 -0.455428)
(-0.473821 0.396671 -0.366586)
(-0.682066 0.397324 -0.437264)
(-0.546126 0.414486 -0.36008)
(-0.542895 0.409235 -0.37269)
(-0.642958 0.400275 -0.426971)
(-0.460678 0.405053 -0.37337)
(-0.461923 0.395901 -0.340625)
(-0.665274 0.39829 -0.456162)
(-0.649711 0.423502 -0.418873)
(-0.554695 0.396882 -0.424059)
(-0.604967 0.432769 -0.399072)
(-0.603911 0.417755 -0.424129)
(-0.503787 0.419273 -0.354768)
(-0.763236 0.348843 -0.40019)
(-0.912832 0.362131 -0.438022)
(-0.732598 0.3748 -0.414262)
(-0.750575 0.37365 -0.423591)
(-0.885252 0.408073 -0.474267)
(-0.889697 0.361331 -0.424642)
(-0.76233 0.364783 -0.408393)
(-0.685175 0.366452 -0.386592)
(-0.785988 0.339227 -0.409661)
(-0.872658 0.351795 -0.434919)
(-0.743415 0.352212 -0.409964)
(-0.91097 0.391971 -0.46117)
(-0.903372 0.374354 -0.435722)
(-0.880246 0.390537 -0.429393)
(-0.863941 0.373435 -0.43917)
(-0.928653 0.368342 -0.431112)
(-0.901456 0.366692 -0.445913)
(-0.53268 0.155432 -0.438959)
(-0.572466 0.171919 -0.453025)
(-0.61467 0.186865 -0.476331)
(-0.588999 0.094595 -0.452748)
(-0.653206 0.129193 -0.477528)
(-0.646758 0.183976 -0.486639)
(-0.591592 0.176974 -0.46765)
(-0.559814 0.106333 -0.451158)
(-0.518138 0.135829 -0.427258)
(-0.596381 0.159384 -0.479294)
(-0.538161 0.145178 -0.44288)
(-0.757212 0.688397 -0.524963)
(-0.753015 0.68402 -0.514245)
(-0.744165 0.685977 -0.513292)
(-0.720446 0.694871 -0.529593)
(-0.744757 0.686919 -0.506923)
(-0.73911 0.702192 -0.501886)
(-0.75619 0.683478 -0.50557)
(-0.76561 0.67966 -0.492552)
(-0.751946 0.679579 -0.51876)
(-0.751566 0.689422 -0.528922)
(-0.780663 0.670419 -0.477357)
(-0.74297 0.714568 -0.524666)
(-0.787922 0.662003 -0.468113)
(-0.770534 0.693286 -0.501942)
(-0.782518 0.682645 -0.48254)
(-0.784255 0.668467 -0.455099)
(-0.774935 0.674265 -0.453642)
(-0.773166 0.63711 -0.442208)
(-0.757239 0.68137 -0.495674)
(-0.753027 0.65812 -0.465757)
(-0.718881 0.5609 -0.528755)
(-0.783321 0.546824 -0.562778)
(-0.766573 0.553095 -0.533907)
(-0.805545 0.554904 -0.573476)
(-0.794349 0.560496 -0.570206)
(-0.692643 0.512721 -0.497522)
(-0.733107 0.556477 -0.527143)
(-0.810725 0.556039 -0.570852)
(-0.808261 0.525274 -0.565798)
(-0.8189 0.559911 -0.554775)
(-0.82487 0.585434 -0.568637)
(-0.816911 0.583955 -0.576567)
(-0.715891 0.543371 -0.512602)
(-0.726314 0.57076 -0.533726)
(-0.814432 0.545562 -0.582629)
(-0.802156 0.582835 -0.552055)
(-0.819878 0.605975 -0.573327)
(-0.80551 0.57703 -0.544342)
(-0.803396 0.57533 -0.586061)
(-0.629398 0.402223 -0.446554)
(-0.770361 0.359104 -0.492023)
(-0.615022 0.427233 -0.402141)
(-0.816247 0.354732 -0.482821)
(-0.838192 0.342099 -0.480681)
(-0.769195 0.340451 -0.468561)
(-0.841204 0.333073 -0.466668)
(-0.824607 0.437337 -0.423908)
(-0.789793 0.400718 -0.437973)
(-0.676511 0.469019 -0.419227)
(-0.724919 0.44876 -0.421068)
(-0.830444 0.402048 -0.436538)
(-0.816627 0.419211 -0.442869)
(-0.837344 0.39316 -0.454739)
(-0.733729 0.368406 -0.474781)
(-0.808485 0.352416 -0.460909)
(-0.683407 0.419159 -0.453872)
(-0.700454 0.465388 -0.429735)
(-0.631652 0.238283 -0.236291)
(-0.707953 0.240579 -0.245754)
(-0.652695 0.253723 -0.227622)
(-0.668356 0.303983 -0.269234)
(-0.637531 0.280392 -0.252419)
(-0.592191 0.230388 -0.212988)
(-0.653448 0.273244 -0.250419)
(-0.645959 0.238544 -0.238481)
(-0.698224 0.275924 -0.262131)
(-0.668102 0.224057 -0.235775)
(-0.696117 0.288113 -0.261432)
(-0.658283 0.222991 -0.231168)
(-0.581229 0.204406 -0.211044)
(-0.592104 0.222566 -0.203656)
(-0.569081 0.211948 -0.205347)
(-0.549799 0.192098 -0.190545)
(-0.501771 0.339601 -0.490891)
(-0.507432 0.364136 -0.485689)
(-0.473068 0.318244 -0.479353)
(-0.503588 0.339432 -0.49914)
(-0.470446 0.225865 -0.446995)
(-0.470653 0.243636 -0.457759)
(-0.51545 0.27701 -0.486977)
(-0.481397 0.203686 -0.445203)
(-0.473867 0.174792 -0.415139)
(-0.577586 0.294487 -0.478037)
(-0.56839 0.232888 -0.466756)
(-0.507545 0.267594 -0.467657)
(-0.526672 0.189747 -0.439129)
(-0.553137 0.25275 -0.468327)
(-0.520759 0.390395 -0.249603)
(-0.549415 0.431055 -0.271867)
(-0.462232 0.383153 -0.265756)
(-0.458576 0.341352 -0.228887)
(-0.609078 0.407203 -0.275057)
(-0.639109 0.40661 -0.26398)
(-0.622744 0.420566 -0.285401)
(-0.636301 0.397916 -0.258547)
(-0.534303 0.375757 -0.235097)
(-0.57822 0.410885 -0.268134)
(-0.558469 0.455979 -0.320874)
(-0.468296 0.366621 -0.251476)
(-0.473439 0.352342 -0.241716)
(-0.603078 0.390003 -0.276756)
(-0.569689 0.378052 -0.267926)
(-0.576223 0.410632 -0.285109)
(-0.514768 0.428576 -0.302488)
(-0.519026 0.345912 -0.220933)
(-0.492178 0.337914 -0.226943)
(-0.458979 0.134905 -0.385132)
(-0.427421 0.119681 -0.370016)
(-0.411608 0.14608 -0.361815)
(-0.441402 0.133157 -0.383414)
(-0.513226 0.22864 -0.413291)
(-0.410422 0.159121 -0.358215)
(-0.496793 0.143161 -0.411143)
(-0.437696 0.204428 -0.36872)
(-0.454616 0.207587 -0.380924)
(-0.460395 0.170394 -0.407853)
(-0.861761 0.554929 -0.474508)
(-0.868544 0.556936 -0.466655)
(-0.813061 0.508113 -0.463589)
(-0.842123 0.507012 -0.448826)
(-0.894875 0.515836 -0.429252)
(-0.886785 0.507083 -0.426737)
(-0.889452 0.557181 -0.476356)
(-0.875599 0.53513 -0.462235)
(-0.851822 0.498597 -0.433186)
(-0.873085 0.532195 -0.43566)
(-0.854692 0.484757 -0.402595)
(-0.861663 0.517203 -0.465036)
(-0.847113 0.510258 -0.453877)
(-0.85605 0.498366 -0.412085)
(-0.884683 0.497866 -0.429037)
(-0.893663 0.497394 -0.418185)
(-0.885744 0.501717 -0.42661)
(-0.861007 0.462552 -0.39979)
(-0.897547 0.542577 -0.458826)
(-0.888689 0.46325 -0.49865)
(-0.873129 0.445293 -0.491976)
(-0.892154 0.448953 -0.532056)
(-0.898339 0.464839 -0.533231)
(-0.903262 0.456434 -0.545316)
(-0.86936 0.433266 -0.504346)
(-0.859966 0.419082 -0.503931)
(-0.881821 0.43153 -0.521101)
(-0.852044 0.403133 -0.488804)
(-0.8929 0.461111 -0.530318)
(-0.870726 0.473753 -0.514465)
(-0.891081 0.475732 -0.522906)
(-0.878143 0.468672 -0.51362)
(-0.890143 0.442228 -0.501757)
(-0.877623 0.47149 -0.509582)
(-0.890353 0.467765 -0.507581)
(-0.890093 0.45208 -0.484932)
(-0.880254 0.440692 -0.482177)
(-0.901874 0.441078 -0.482626)
(-0.877632 0.425807 -0.481407)
(-0.90273 0.447154 -0.483331)
(-0.890994 0.457462 -0.494452)
(-0.387933 0.369479 -0.329536)
(-0.430597 0.390516 -0.35566)
(-0.439748 0.401445 -0.36179)
(-0.431155 0.397741 -0.361811)
(-0.42179 0.398788 -0.338916)
(-0.421699 0.370615 -0.330712)
(-0.48723 0.420133 -0.347985)
(-0.463044 0.395039 -0.334986)
(-0.413115 0.384531 -0.334925)
(-0.432173 0.386303 -0.339473)
(-0.479412 0.384235 -0.339791)
(-0.495157 0.41898 -0.343007)
(-0.360669 0.382017 -0.309024)
(-0.366354 0.39604 -0.316588)
(-0.379577 0.381157 -0.318958)
(-0.434326 0.419532 -0.344722)
(-0.474608 0.434909 -0.354944)
(-0.474408 0.386841 -0.341328)
(-0.44487 0.401941 -0.347736)
(-0.422948 0.396588 -0.346835)
(-0.355576 0.365447 -0.355798)
(-0.367283 0.35878 -0.35556)
(-0.402857 0.347892 -0.389908)
(-0.407947 0.337311 -0.3999)
(-0.386238 0.39037 -0.375213)
(-0.372981 0.377293 -0.363267)
(-0.523337 0.37246 -0.452022)
(-0.520848 0.362121 -0.455624)
(-0.460101 0.349175 -0.432629)
(-0.465338 0.343042 -0.437752)
(-0.476387 0.369167 -0.44999)
(-0.456097 0.36666 -0.438875)
(-0.411158 0.41588 -0.405314)
(-0.595846 0.429329 -0.450702)
(-0.58296 0.366893 -0.460183)
(-0.559723 0.397422 -0.450759)
(-0.59197 0.404551 -0.453207)
(-0.593598 0.401214 -0.452956)
(-0.460355 0.425851 -0.393273)
(-0.584976 0.439506 -0.4305)
(-0.560411 0.41875 -0.438217)
(-0.229405 0.487779 -0.305777)
(-0.221162 0.475933 -0.286128)
(-0.221506 0.475681 -0.298457)
(-0.222039 0.45511 -0.290419)
(-0.201043 0.460091 -0.283392)
(-0.181824 0.467338 -0.319732)
(-0.186478 0.429629 -0.324894)
(-0.215461 0.508778 -0.334996)
(-0.216224 0.434293 -0.303169)
(-0.205921 0.419604 -0.286567)
(-0.714383 0.416469 -0.455164)
(-0.752467 0.415681 -0.461577)
(-0.803203 0.395564 -0.426366)
(-0.777658 0.40772 -0.412011)
(-0.69329 0.449942 -0.368323)
(-0.592802 0.436966 -0.374192)
(-0.725973 0.4165 -0.345415)
(-0.74651 0.416474 -0.368184)
(-0.631599 0.431238 -0.450939)
(-0.677851 0.438857 -0.434957)
(-0.609711 0.46105 -0.404319)
(-0.545624 0.435728 -0.38656)
(-0.676899 0.435737 -0.444103)
(-0.76702 0.464733 -0.495704)
(-0.691071 0.427016 -0.464406)
(-0.647567 0.435854 -0.36724)
(-0.593436 0.426629 -0.419679)
(-0.637903 0.426008 -0.419726)
(-0.562105 0.423447 -0.430204)
(-0.424269 0.614707 -0.478426)
(-0.419409 0.586212 -0.448885)
(-0.41014 0.583468 -0.487327)
(-0.416019 0.564179 -0.442093)
(-0.363219 0.542569 -0.408591)
(-0.408127 0.529741 -0.439719)
(-0.372454 0.539735 -0.433693)
(-0.391615 0.517242 -0.422635)
(-0.449202 0.549282 -0.47033)
(-0.477297 0.590092 -0.500758)
(-0.405646 0.539564 -0.434886)
(-0.469442 0.584913 -0.504675)
(-0.43575 0.585222 -0.47142)
(-0.479491 0.562885 -0.481789)
(-0.460822 0.592756 -0.477868)
(-0.469343 0.568663 -0.464002)
(-0.305261 0.392858 -0.250321)
(-0.290514 0.38657 -0.250046)
(-0.334298 0.406982 -0.246648)
(-0.350415 0.435959 -0.250021)
(-0.265091 0.330012 -0.229524)
(-0.263016 0.317936 -0.218289)
(-0.258035 0.314367 -0.222706)
(-0.285531 0.316117 -0.204228)
(-0.31767 0.3515 -0.197454)
(-0.267479 0.284816 -0.192675)
(-0.269648 0.297196 -0.214697)
(-0.276162 0.325313 -0.209293)
(-0.315703 0.369641 -0.20923)
(-0.348965 0.381808 -0.19949)
(-0.275101 0.296117 -0.198602)
(-0.327616 0.35665 -0.187029)
(-0.280138 0.361446 -0.218831)
(-0.302699 0.343625 -0.180606)
(-0.274217 0.283012 -0.170818)
(-0.285798 0.309829 -0.173746)
(-0.888674 0.521298 -0.474352)
(-0.887568 0.531255 -0.477588)
(-0.882101 0.465603 -0.437899)
(-0.882439 0.457604 -0.427021)
(-0.88748 0.491376 -0.446166)
(-0.892268 0.490322 -0.434535)
(-0.890556 0.505773 -0.457117)
(-0.885057 0.521771 -0.495033)
(-0.886748 0.515724 -0.458143)
(-0.871815 0.487647 -0.468374)
(-0.878746 0.49587 -0.459485)
(-0.886107 0.488985 -0.469426)
(-0.873274 0.473149 -0.449027)
(-0.866657 0.501653 -0.473921)
(-0.887067 0.500234 -0.482072)
(-0.888982 0.523986 -0.488026)
(-0.43214 0.763228 -0.533722)
(-0.413056 0.687574 -0.488472)
(-0.376541 0.707875 -0.487698)
(-0.360053 0.736577 -0.492295)
(-0.375429 0.744566 -0.484952)
(-0.33307 0.699576 -0.441039)
(-0.491008 0.778078 -0.559765)
(-0.444413 0.720798 -0.541322)
(-0.51246 0.806228 -0.548148)
(-0.475442 0.803454 -0.521311)
(-0.415111 0.766809 -0.513603)
(-0.345075 0.655652 -0.427662)
(-0.437204 0.819774 -0.52677)
(-0.427001 0.757753 -0.489227)
(-0.453178 0.756626 -0.519477)
(-0.61597 0.720385 -0.517121)
(-0.617994 0.792396 -0.578757)
(-0.65082 0.743316 -0.538293)
(-0.614984 0.717263 -0.561456)
(-0.617737 0.718929 -0.548136)
(-0.637336 0.780866 -0.568138)
(-0.630745 0.762111 -0.562354)
(-0.666008 0.751178 -0.527526)
(-0.653472 0.748568 -0.527462)
(-0.633903 0.721987 -0.566402)
(-0.641323 0.719857 -0.562679)
(-0.642155 0.709126 -0.536128)
(-0.668333 0.734149 -0.524152)
(-0.662076 0.721153 -0.523259)
(-0.633428 0.759558 -0.566791)
(-0.652835 0.734855 -0.552902)
(-0.649003 0.765701 -0.572568)
(-0.667543 0.349881 -0.437444)
(-0.728468 0.367465 -0.451633)
(-0.79239 0.270699 -0.454676)
(-0.832993 0.315837 -0.451016)
(-0.66216 0.376214 -0.408562)
(-0.85376 0.294218 -0.460715)
(-0.832265 0.279201 -0.458512)
(-0.618667 0.373902 -0.408195)
(-0.628197 0.358993 -0.415376)
(-0.722269 0.313539 -0.430482)
(-0.789713 0.359108 -0.434396)
(-0.883335 0.30169 -0.458388)
(-0.689042 0.36852 -0.415161)
(-0.686013 0.321906 -0.438296)
(-0.622237 0.336723 -0.411949)
(-0.774964 0.317938 -0.465629)
(-0.69665 0.299017 -0.449318)
(-0.435308 0.388782 -0.313467)
(-0.453179 0.393857 -0.323495)
(-0.489935 0.437417 -0.358559)
(-0.492934 0.431144 -0.35534)
(-0.594821 0.460312 -0.374092)
(-0.464421 0.393646 -0.304224)
(-0.479725 0.395323 -0.27273)
(-0.655442 0.466858 -0.392311)
(-0.584366 0.466236 -0.367318)
(-0.699776 0.424866 -0.320853)
(-0.709891 0.43095 -0.352277)
(-0.536641 0.413718 -0.299193)
(-0.396854 0.0639814 -0.352136)
(-0.33229 0.0556959 -0.288298)
(-0.379286 0.0712867 -0.32851)
(-0.339969 0.0920091 -0.30501)
(-0.316779 0.0630185 -0.281071)
(-0.362631 0.0731305 -0.328809)
(-0.492227 0.127997 -0.407626)
(-0.348796 0.0917848 -0.313271)
(-0.373084 0.131426 -0.316129)
(-0.467065 0.160056 -0.40749)
(-0.378827 0.13322 -0.336087)
(-0.392282 0.146352 -0.339687)
(-0.436199 0.165162 -0.376094)
(-0.704997 0.117485 -0.481008)
(-0.694668 0.114721 -0.473643)
(-0.607371 0.180016 -0.468967)
(-0.58586 0.141099 -0.467935)
(-0.673363 0.0631477 -0.449998)
(-0.59274 0.071627 -0.434098)
(-0.734471 0.152777 -0.493047)
(-0.746194 0.129781 -0.486289)
(-0.705839 0.20107 -0.492338)
(-0.602041 0.0549643 -0.436636)
(-0.70789 0.198288 -0.496939)
(-0.695034 0.0979213 -0.487758)
(-0.741187 0.146537 -0.495607)
(-0.619253 0.804661 -0.507633)
(-0.623112 0.796152 -0.517288)
(-0.579502 0.803758 -0.530763)
(-0.605851 0.816564 -0.506399)
(-0.621521 0.805372 -0.534512)
(-0.654642 0.783298 -0.46018)
(-0.660432 0.793695 -0.466169)
(-0.600846 0.8411 -0.543056)
(-0.621324 0.838467 -0.53184)
(-0.596907 0.840971 -0.568748)
(-0.621935 0.792034 -0.51393)
(-0.630614 0.765145 -0.477736)
(-0.646 0.788175 -0.494342)
(-0.622526 0.806874 -0.475277)
(-0.630652 0.772173 -0.463646)
(-0.619923 0.80706 -0.501892)
(-0.616006 0.818663 -0.509976)
(-0.622248 0.796884 -0.499079)
(-0.626161 0.802295 -0.53205)
(-0.602282 0.830459 -0.554788)
(-0.682068 0.620113 -0.602081)
(-0.672424 0.633547 -0.619168)
(-0.654992 0.664021 -0.623157)
(-0.697495 0.595921 -0.606307)
(-0.707191 0.60744 -0.607923)
(-0.589247 0.623679 -0.555874)
(-0.69469 0.609784 -0.603902)
(-0.546534 0.60847 -0.548197)
(-0.713709 0.594858 -0.614443)
(-0.672078 0.636434 -0.60347)
(-0.670126 0.606804 -0.577441)
(-0.280231 0.304409 -0.376495)
(-0.267513 0.310278 -0.359792)
(-0.356944 0.36329 -0.457537)
(-0.347516 0.348533 -0.450116)
(-0.239001 0.31995 -0.342551)
(-0.247472 0.320232 -0.354901)
(-0.33855 0.368392 -0.451837)
(-0.259515 0.321085 -0.354576)
(-0.230763 0.309528 -0.326601)
(-0.296895 0.424305 -0.405309)
(-0.299507 0.398085 -0.411489)
(-0.31479 0.399837 -0.404748)
(-0.27695 0.406427 -0.371019)
(-0.24461 0.358854 -0.327755)
(-0.235601 0.38294 -0.317881)
(-0.244805 0.39834 -0.356929)
(-0.26022 0.416631 -0.350524)
(-0.310168 0.431039 -0.401908)
(-0.234134 0.394285 -0.342096)
(-0.181058 0.284564 -0.178654)
(-0.180084 0.272222 -0.173311)
(-0.201277 0.360418 -0.20713)
(-0.190902 0.380185 -0.226116)
(-0.196919 0.399544 -0.226947)
(-0.200352 0.299499 -0.165082)
(-0.204777 0.302285 -0.15411)
(-0.214 0.382043 -0.200318)
(-0.514265 0.461359 -0.495018)
(-0.537479 0.463551 -0.50012)
(-0.453215 0.476318 -0.472301)
(-0.572703 0.365616 -0.487926)
(-0.449134 0.4112 -0.492897)
(-0.489976 0.389034 -0.48768)
(-0.546962 0.287627 -0.467263)
(-0.529626 0.282275 -0.473143)
(-0.545165 0.29898 -0.475944)
(-0.498722 0.249753 -0.453835)
(-0.453301 0.253564 -0.458435)
(-0.467728 0.231097 -0.438797)
(-0.476285 0.364052 -0.487268)
(-0.416065 0.391831 -0.488261)
(-0.515154 0.333156 -0.489648)
(-0.499654 0.306861 -0.473652)
(-0.498429 0.276938 -0.467046)
(-0.440886 0.268029 -0.454592)
(-0.463193 0.263677 -0.457275)
(-0.441774 0.375314 -0.481095)
(-0.216704 0.212548 -0.15394)
(-0.20474 0.190353 -0.149237)
(-0.257438 0.259258 -0.158832)
(-0.254872 0.247901 -0.162182)
(-0.214608 0.207463 -0.165273)
(-0.224455 0.227942 -0.170492)
(-0.217986 0.211221 -0.181025)
(-0.227761 0.211708 -0.173247)
(-0.267381 0.270144 -0.1917)
(-0.260276 0.252633 -0.201602)
(-0.262952 0.269144 -0.215289)
(-0.803788 0.603597 -0.513563)
(-0.813432 0.608839 -0.538131)
(-0.80722 0.587083 -0.515985)
(-0.821362 0.612864 -0.521661)
(-0.794873 0.613449 -0.517225)
(-0.820123 0.602258 -0.500675)
(-0.80878 0.598015 -0.500281)
(-0.822452 0.597037 -0.555377)
(-0.810032 0.592049 -0.506712)
(-0.827429 0.576991 -0.510938)
(-0.8207 0.573016 -0.530754)
(-0.795806 0.598355 -0.541912)
(-0.808637 0.566958 -0.529835)
(-0.815083 0.575041 -0.549555)
(-0.814797 0.588285 -0.498911)
(-0.800766 0.557094 -0.492644)
(-0.816392 0.598515 -0.534559)
(-0.804016 0.583579 -0.526242)
(-0.799709 0.558324 -0.514464)
(-0.865246 0.536715 -0.479246)
(-0.862715 0.52023 -0.461513)
(-0.883888 0.527437 -0.460264)
(-0.886695 0.538681 -0.47497)
(-0.866953 0.541799 -0.484673)
(-0.806149 0.493453 -0.461307)
(-0.691063 0.459126 -0.405265)
(-0.726336 0.485721 -0.451145)
(-0.841832 0.53955 -0.505342)
(-0.684451 0.483165 -0.439715)
(-0.751074 0.503504 -0.472712)
(-0.885474 0.570399 -0.525524)
(-0.780656 0.519141 -0.450612)
(-0.797759 0.516243 -0.468553)
(-0.858754 0.567252 -0.499529)
(-0.314667 0.379055 -0.153626)
(-0.255019 0.315628 -0.127711)
(-0.286688 0.381932 -0.158931)
(-0.244439 0.340904 -0.144826)
(-0.292473 0.339232 -0.134846)
(-0.230218 0.272161 -0.109937)
(-0.219848 0.343874 -0.187621)
(-0.228377 0.299677 -0.131914)
(-0.208362 0.278085 -0.147065)
(-0.226283 0.300009 -0.150055)
(-0.257905 0.364309 -0.186045)
(-0.244452 0.347327 -0.18776)
(-0.242274 0.379468 -0.191743)
(-0.266739 0.429381 -0.194748)
(-0.222729 0.27663 -0.115782)
(-0.243777 0.296056 -0.129904)
(-0.208644 0.25474 -0.118281)
(-0.214271 0.300505 -0.148402)
(-0.214968 0.300397 -0.157144)
(-0.265809 0.400617 -0.186731)
(-0.2944 0.345441 -0.144069)
(-0.608389 0.595173 -0.49875)
(-0.464443 0.568493 -0.422921)
(-0.483822 0.579502 -0.446481)
(-0.55887 0.565146 -0.365806)
(-0.614566 0.5551 -0.346066)
(-0.486366 0.569496 -0.388295)
(-0.474671 0.565696 -0.397648)
(-0.602862 0.548017 -0.359715)
(-0.644084 0.541909 -0.360459)
(-0.644289 0.585158 -0.469926)
(-0.699529 0.568914 -0.478708)
(-0.611748 0.577082 -0.391216)
(-0.657868 0.570948 -0.412632)
(-0.647318 0.553041 -0.385327)
(-0.688777 0.565354 -0.43559)
(-0.704248 0.553635 -0.404385)
(-0.65602 0.576074 -0.487258)
(-0.641706 0.561345 -0.391149)
(-0.68028 0.561607 -0.412444)
(-0.481013 0.354932 -0.45192)
(-0.47087 0.268726 -0.446912)
(-0.330757 0.307034 -0.359415)
(-0.343428 0.329436 -0.376547)
(-0.341127 0.267073 -0.357394)
(-0.363614 0.285826 -0.394245)
(-0.334521 0.263755 -0.359218)
(-0.433363 0.283433 -0.428778)
(-0.429158 0.316402 -0.415228)
(-0.347088 0.330626 -0.369465)
(-0.334883 0.252979 -0.348779)
(-0.32631 0.226859 -0.344851)
(-0.373005 0.299502 -0.378566)
(-0.375408 0.256104 -0.381868)
(-0.386173 0.277947 -0.409571)
(-0.37136 0.246682 -0.383939)
(-0.358629 0.252098 -0.366214)
(-0.469391 0.368419 -0.447009)
(-0.487877 0.35534 -0.458722)
(-0.378906 0.226746 -0.383488)
(-0.424017 0.274995 -0.438532)
(-0.806154 0.538601 -0.606404)
(-0.820311 0.535437 -0.604747)
(-0.795289 0.538858 -0.596243)
(-0.784554 0.533053 -0.575238)
(-0.787736 0.549482 -0.565904)
(-0.797643 0.585804 -0.577073)
(-0.797384 0.588976 -0.581631)
(-0.777365 0.606631 -0.553187)
(-0.815114 0.609977 -0.571973)
(-0.796238 0.568086 -0.581576)
(-0.797737 0.571951 -0.600995)
(-0.748408 0.551246 -0.572232)
(-0.778407 0.556333 -0.574655)
(-0.803047 0.584759 -0.601486)
(-0.790687 0.626271 -0.58685)
(-0.684215 0.547446 -0.535477)
(-0.691068 0.558013 -0.534295)
(-0.801075 0.600988 -0.587151)
(-0.707579 0.586707 -0.545461)
(-0.754831 0.597053 -0.566415)
(-0.826136 0.409464 -0.497461)
(-0.817748 0.413322 -0.486524)
(-0.837671 0.403241 -0.497077)
(-0.846825 0.391171 -0.523592)
(-0.82049 0.44007 -0.548299)
(-0.873675 0.329662 -0.454926)
(-0.889041 0.326604 -0.44761)
(-0.804931 0.440003 -0.550757)
(-0.84085 0.411042 -0.502195)
(-0.86841 0.287462 -0.451107)
(-0.878897 0.309117 -0.439917)
(-0.831109 0.269093 -0.404794)
(-0.881694 0.363878 -0.501018)
(-0.89321 0.342975 -0.45352)
(-0.863405 0.319729 -0.480237)
(-0.843759 0.278411 -0.453305)
(-0.865865 0.318754 -0.49503)
(-0.891205 0.36263 -0.539264)
(-0.845947 0.410143 -0.53573)
(-0.884351 0.33259 -0.511795)
(-0.881727 0.457166 -0.469194)
(-0.918412 0.408654 -0.406416)
(-0.89755 0.378292 -0.388972)
(-0.907575 0.426759 -0.428399)
(-0.910537 0.431842 -0.437664)
(-0.916816 0.447116 -0.455058)
(-0.901568 0.438977 -0.452551)
(-0.907131 0.433262 -0.462987)
(-0.920208 0.407877 -0.415855)
(-0.927407 0.428616 -0.438586)
(-0.905332 0.412967 -0.420763)
(-0.918786 0.434351 -0.46006)
(-0.914838 0.431492 -0.477924)
(-0.90065 0.428436 -0.456278)
(-0.886551 0.417818 -0.443181)
(-0.909405 0.410139 -0.431043)
(-0.919477 0.417946 -0.444007)
(-0.883329 0.396955 -0.414483)
(-0.883611 0.426867 -0.483321)
(-0.900338 0.42014 -0.472906)
(-0.895679 0.389592 -0.418934)
(-0.90604 0.421747 -0.455812)
(-0.890787 0.398704 -0.444632)
(-0.914953 0.404564 -0.426111)
(-0.891249 0.370152 -0.401673)
(-0.896468 0.431132 -0.475373)
(-0.906044 0.416694 -0.468077)
(-0.899767 0.424914 -0.47145)
(-0.88571 0.434807 -0.473556)
(-0.931792 0.407047 -0.441636)
(-0.918811 0.39039 -0.423517)
(-0.801819 0.209691 -0.417566)
(-0.827967 0.229205 -0.429377)
(-0.847218 0.396777 -0.446038)
(-0.866382 0.390444 -0.437912)
(-0.843983 0.383053 -0.450411)
(-0.791509 0.387762 -0.469721)
(-0.841482 0.247936 -0.420379)
(-0.800503 0.230199 -0.391111)
(-0.816216 0.309968 -0.45979)
(-0.838028 0.307266 -0.457163)
(-0.809583 0.21973 -0.374956)
(-0.848359 0.252719 -0.397605)
(-0.876849 0.305275 -0.393823)
(-0.828289 0.345719 -0.457185)
(-0.836762 0.274112 -0.43821)
(-0.819971 0.257446 -0.391925)
(-0.858367 0.378962 -0.467641)