/*--------------------------------*- C++ -*----------------------------------*\
| =========                 |                                                 |
| \\      /  F ield         | OpenFOAM: The Open Source CFD Toolbox           |
|  \\    /   O peration     | Version:  v1612+                                |
|   \\  /    A nd           | Web:      www.OpenFOAM.com                      |
|    \\/     M anipulation  |                                                 |
\*---------------------------------------------------------------------------*/
FoamFile
{
    version     2.0;
    format      ascii;
    class       volScalarField;
    location    "100";
    object      p;
}
// * * * * * * * * * * * * * * * * * * * * * * * * * * * * * * * * * * * * * //

dimensions      [0 2 -2 0 0 0 0];

internalField   nonuniform List<scalar> 
16726
(
0.42174
0.431687
0.421816
0.416063
0.458161
0.442034
0.432084
0.430337
0.44901
0.456837
0.427381
0.441881
0.430571
0.432932
0.468566
0.44391
0.434646
0.455957
0.455105
0.445345
0.462408
0.464647
0.462029
0.451932
0.559059
0.556856
0.542075
0.55346
0.547604
0.551586
0.530108
0.541128
0.544387
0.535915
0.540571
0.54442
0.570097
0.570114
0.561361
0.562877
0.571481
0.570345
0.574799
0.560367
0.556005
0.57144
0.573578
0.565211
0.564374
0.564569
0.567541
0.571412
0.471019
0.446019
0.468276
0.453558
0.475448
0.468269
0.494802
0.495481
0.473945
0.461837
0.442967
0.446287
0.47307
0.480123
0.475609
0.458896
0.439197
0.437601
0.43071
0.454078
0.446228
0.472867
0.478536
0.451579
0.455188
0.480753
0.486081
0.446494
0.467525
0.465976
0.463358
0.467237
0.465955
0.44878
0.562971
0.437764
0.435111
0.425346
0.414113
0.417494
0.428158
0.430421
0.418384
0.413741
0.41999
0.437558
0.442873
0.448124
0.431478
0.41961
0.43133
0.445333
0.443566
0.451081
0.443661
0.448914
0.42119
0.4141
0.430406
0.483604
0.489091
0.481797
0.481998
0.485828
0.482581
0.482721
0.482888
0.485335
0.48105
0.486004
0.482529
0.481767
0.480624
0.483996
0.483275
0.495383
0.497503
0.51371
0.520825
0.508864
0.510227
0.49705
0.494069
0.515308
0.528909
0.510792
0.509844
0.518997
0.515549
0.520282
0.50665
0.50941
0.51142
0.474194
0.47256
0.451874
0.458684
0.452928
0.438959
0.466051
0.444385
0.441308
0.390002
0.417263
0.446017
0.403072
0.431517
0.451188
0.423748
0.425894
0.418879
0.410191
0.454985
0.450038
0.445574
0.431334
0.446063
0.576315
0.579572
0.579778
0.578694
0.583609
0.578306
0.580902
0.57432
0.573518
0.574496
0.577521
0.577181
0.58061
0.576321
0.581257
0.489627
0.487737
0.486769
0.483522
0.486506
0.478945
0.482721
0.475304
0.480209
0.474375
0.48229
0.482124
0.475425
0.473812
0.481092
0.478046
0.473171
0.516822
0.500024
0.477772
0.47066
0.490987
0.455712
0.473562
0.514989
0.512925
0.474295
0.465988
0.511865
0.514817
0.512565
0.514958
0.520356
0.518088
0.520889
0.522755
0.527572
0.524824
0.525036
0.525573
0.519414
0.5249
0.526054
0.521962
0.523653
0.524201
0.52286
0.520589
0.51851
0.82599
0.817973
0.872769
0.918221
0.868398
0.845142
0.845918
0.83723
0.894789
0.925902
0.880291
0.893252
0.916488
0.902913
0.912884
0.941774
0.933167
0.841888
0.876577
0.85623
0.839101
0.939441
0.921807
0.833378
0.807235
0.836072
0.920993
0.967749
0.882686
0.882075
0.933069
0.906553
0.881309
0.901898
0.897508
0.830543
0.851717
0.877708
0.878303
0.858963
0.880856
0.806684
0.846099
0.817637
0.84355
0.833627
0.834959
0.861275
0.814389
0.856207
0.865996
0.442096
0.423254
0.407277
0.399222
0.433647
0.417093
0.428869
0.445113
0.416783
0.394482
0.421143
0.410623
0.414551
0.430122
0.441652
0.384273
0.411254
0.399323
0.413433
0.426031
0.428213
0.438519
1.00531
1.0171
1.01914
0.973262
0.985948
0.959843
0.945174
1.00772
1.04951
1.05732
0.992627
0.59878
0.592007
0.606981
0.622398
0.584769
0.638354
0.62394
0.566527
0.542939
0.6618
0.638453
0.644741
0.627712
0.545099
0.517853
0.633981
0.63308
0.585396
0.64291
0.674417
0.594264
0.595965
0.625668
0.693056
0.679448
0.700108
0.68307
0.615741
0.694207
0.710851
0.632426
0.483384
0.470957
0.469104
0.463085
0.458446
0.453449
0.464813
0.486356
0.486109
0.471949
0.4734
0.462731
0.463038
0.496878
0.487573
0.964795
0.940349
0.968048
0.949344
1.01848
1.04494
1.05005
1.08073
0.929911
0.988518
0.969474
1.005
1.02438
0.993684
0.964894
1.04629
1.00979
1.05003
1.06742
0.937814
1.00525
0.979777
0.606183
0.564015
0.616722
0.584584
0.522696
0.556551
0.599112
0.558012
0.651471
0.602781
0.594368
0.627661
0.519102
0.491921
0.536112
0.630005
0.587511
0.535827
0.614597
0.744195
0.719336
0.756336
0.858547
0.832439
0.782116
0.816237
0.741353
0.667699
0.632236
0.652125
0.783477
0.804671
0.705203
0.6474
0.656357
0.676082
0.763134
0.794767
0.672458
0.718216
0.749762
0.743699
0.73407
0.732895
0.700315
0.910508
0.863874
0.905592
0.861709
0.960052
0.952972
0.947834
0.942468
0.9012
0.920993
0.948597
0.919179
0.894124
0.750419
0.745809
0.722118
0.74153
0.434458
0.428662
0.429548
0.442339
0.457287
0.472293
0.487065
0.456822
0.457235
0.476293
0.480315
0.470104
0.484106
0.479723
0.487946
0.465023
0.453281
0.462956
0.460244
0.449525
0.461819
0.452942
0.469309
0.489338
0.480976
0.45552
0.477903
0.477156
0.488595
0.484851
0.497296
0.493842
0.476044
0.491563
0.491542
0.498362
0.479453
0.489614
0.483025
0.469308
0.459768
0.450537
0.44247
0.444402
0.44473
0.426865
0.409661
0.444962
0.439499
0.448658
0.464557
0.442776
0.435158
0.418697
0.447963
0.435711
0.449138
0.452918
0.453106
0.451915
0.453179
0.476453
0.464928
0.476471
0.46536
0.478312
0.464323
0.469923
0.445477
0.391123
0.399329
0.463407
0.45058
0.434749
0.471038
0.446342
0.396114
0.401935
0.418344
0.407252
0.437824
0.438084
0.415673
0.582982
0.58563
0.580813
0.562281
0.585007
0.561413
0.582388
0.594138
0.608607
0.565222
0.593717
0.561025
0.581694
0.607493
0.608777
0.616154
0.620111
0.584151
0.568741
0.624677
0.581026
0.566796
0.572161
0.558252
0.565938
0.569988
0.572424
0.568508
0.57063
0.570233
0.566082
0.572622
0.572943
0.844009
0.863888
0.831549
0.866457
0.812531
0.820562
0.890716
0.822699
0.865473
0.796206
0.818951
0.880138
0.871591
0.581669
0.537851
0.56456
0.574919
0.558496
0.552896
0.518972
0.525859
0.54778
0.556224
0.524284
0.578609
0.563445
0.517991
0.529688
0.514303
0.503931
0.496513
0.463156
0.444039
0.447878
0.467172
0.46166
0.4542
0.461432
0.445582
0.458188
0.448938
0.450772
0.459794
0.591463
0.591759
0.554511
0.615598
0.608749
0.549676
0.516459
0.565867
0.526224
0.521926
0.550633
0.506458
0.527185
0.494649
0.541024
0.572721
0.462992
0.50182
0.538366
0.546262
0.520493
0.502606
0.491194
0.499581
0.496871
0.495024
0.493547
0.514027
0.538154
0.520155
0.535875
0.536808
0.525516
0.538186
0.516581
0.552852
0.531473
0.53995
0.536587
0.5553
0.556956
0.573254
0.573089
0.560641
0.570258
0.559757
0.573106
0.568221
0.574738
0.586113
0.580436
0.582085
0.583632
0.580509
0.584732
0.583936
0.592104
0.572249
0.571027
0.589565
0.587016
0.582755
0.586244
0.577873
0.579209
0.579214
0.571961
0.498356
0.48869
0.488592
0.484388
0.502293
0.488762
0.47754
0.463555
0.448927
0.494352
0.484592
0.497091
0.505186
0.45856
0.440469
0.515105
0.478748
0.508736
0.514151
0.509167
0.451845
0.481785
0.488833
0.497328
0.529018
0.552773
0.549244
0.548925
0.537181
0.531849
0.540791
0.57188
0.538907
0.559072
0.569069
0.529561
0.541778
0.57733
0.530146
0.561174
0.550276
0.570483
0.555554
0.545896
0.48557
0.480796
0.478855
0.482606
0.489378
0.483342
0.48583
0.48008
0.478252
0.483783
0.489124
0.48809
0.490084
0.489875
0.470492
0.494303
0.490249
0.484934
0.486169
0.486491
0.48727
0.483186
0.518905
0.515532
0.509227
0.506436
0.504308
0.513109
0.505997
0.503508
0.504475
0.511693
0.505357
0.508137
0.499441
0.501112
0.518872
0.511111
0.50266
0.501311
0.506714
0.490434
0.473382
0.489537
0.524079
0.495647
0.496558
0.505594
0.489678
0.457395
0.458287
0.485608
0.493048
0.498486
0.508442
0.487335
0.589544
0.618795
0.665204
0.690186
0.684553
0.710824
0.61238
0.62671
0.50037
0.54429
0.706362
0.676629
0.632296
0.6197
0.640861
0.562064
0.569684
0.524479
0.561764
0.625158
0.948202
0.961111
1.01221
0.991356
0.960516
1.00628
0.980831
0.931532
0.944421
1.01176
0.979507
1.01647
0.981567
1.0105
0.944313
0.942484
0.881673
0.894007
0.894904
0.98078
0.90766
0.952844
0.507728
0.501849
0.482274
0.484855
0.479157
0.495915
0.488086
0.481712
0.486416
0.483955
0.482692
0.487643
0.481711
0.482385
0.488704
0.48578
0.474336
0.453755
0.434591
0.453361
0.471766
0.464547
0.447344
0.469411
0.459333
0.474659
0.470944
0.479201
0.458346
0.472814
0.425673
0.476009
0.473167
0.491597
0.487535
0.501493
0.495906
0.492082
0.485094
0.489218
0.469378
0.469711
0.482095
0.452269
0.477027
0.493048
0.501845
0.466405
0.429968
0.451974
0.500226
0.499238
0.498733
0.506984
0.492225
0.49893
0.503995
0.425031
0.496401
0.501551
0.87197
0.920971
0.88786
0.964872
0.844615
0.837841
0.904018
0.853692
0.962312
0.942292
0.901976
0.487713
0.486427
0.472399
0.478589
0.488543
0.49064
0.493321
0.771403
0.794882
0.838941
0.830867
0.784712
0.831186
0.876437
0.891269
0.867022
0.507883
0.486863
0.510006
0.523326
0.521007
0.518246
0.513388
0.4608
0.474721
0.467323
0.485469
0.469125
0.500632
0.581551
0.562672
0.563045
0.536935
0.539337
0.489086
0.509283
0.460234
0.454758
0.537705
0.530087
0.495853
0.510428
0.5402
0.477029
0.455772
0.629253
0.628284
0.599962
0.61209
0.461636
0.474388
0.473976
0.499023
0.470517
0.478016
0.478629
0.554759
0.555294
0.471495
0.477939
0.501602
0.510588
0.502894
0.543699
0.540773
0.736069
0.701804
0.664866
0.689883
0.690262
0.657398
0.652755
0.513363
0.537422
0.546817
0.812023
0.773431
0.800394
0.466136
0.456146
0.452717
0.471945
0.47573
0.47945
0.487664
0.485454
0.9468
0.947449
0.939098
0.489059
0.485623
0.483288
0.479804
0.46633
0.473468
0.649426
0.673065
0.423069
0.426447
0.893047
0.865159
0.862768
1.14687
1.1572
1.12202
0.636796
0.640288
0.432881
0.470893
0.459751
0.47214
0.470836
0.490069
0.491618
0.490896
0.490023
1.10434
1.08972
1.08308
1.08501
0.937622
0.926778
0.969828
0.958829
0.709548
0.734835
0.75593
0.561171
0.507147
0.550662
0.509223
0.497087
0.496866
0.493814
0.493755
0.808643
0.786182
0.807327
0.482536
0.488733
0.474462
0.478728
0.450223
0.560382
0.546465
0.740883
0.729522
0.744444
0.748419
0.517362
0.520533
0.439688
0.454539
0.464442
0.648273
0.631051
0.461797
0.453966
0.52541
0.522447
0.51641
0.630663
0.646319
0.65078
0.455281
0.448544
0.441744
0.458103
0.609933
0.625526
0.520182
0.520582
0.514696
0.541341
0.539457
0.540375
0.562764
0.480735
0.483825
0.488231
0.541675
0.539309
0.468991
0.468481
0.46055
0.561375
0.566632
0.553439
0.47637
0.479658
0.481784
0.487175
0.51365
0.520693
0.480694
0.488219
0.485814
0.559911
0.556043
0.563053
0.554552
0.540995
0.543693
0.44544
0.442311
0.458611
0.497073
0.500606
0.567252
0.566539
0.563979
0.467496
0.45714
0.399277
0.405616
0.407742
0.404415
0.403289
0.416002
0.436233
0.449147
0.499984
0.500341
0.547457
0.546463
0.542438
0.582878
0.585994
0.586837
0.588604
0.468641
0.458779
0.457575
0.551473
0.551608
0.5475
0.382754
0.497653
0.491922
0.496398
0.490737
0.528404
0.526157
0.521596
0.519796
0.447814
0.455036
0.46586
0.470031
0.494098
0.483662
0.483331
0.475977
0.46517
0.365915
0.38084
0.369894
0.359504
0.396494
0.351067
0.590358
0.383959
0.394628
0.539663
0.495771
0.529052
0.520816
0.536699
0.511879
0.562005
0.548675
0.575022
0.546046
0.461757
0.475098
0.461943
0.443913
0.443933
0.44954
0.4801
0.493581
0.482637
0.491474
0.4731
0.397211
0.404409
0.462642
0.441546
0.454183
0.448654
0.427587
0.438331
0.446941
0.459885
0.488352
0.477189
0.486473
0.477328
0.4793
0.475466
0.390181
0.386102
0.386896
0.361715
0.394068
0.351356
0.372749
0.393252
0.406837
0.368825
0.382247
0.375891
0.351186
0.380547
0.358948
0.572844
0.569273
0.575129
0.57388
0.581185
0.575164
0.589208
0.590062
0.591558
0.579763
0.578769
0.535555
0.533759
0.55169
0.547313
0.548373
0.56818
0.559142
0.566798
0.566886
0.57208
0.566307
0.507694
0.520645
0.510694
0.521366
0.53506
0.530382
0.536109
0.537315
0.522908
0.543062
0.536645
0.525875
0.522552
0.526931
0.52303
0.536974
0.524652
0.54046
0.552163
0.522449
0.549595
0.529208
0.555089
0.543555
0.515558
0.526697
0.497577
0.491136
0.479625
0.496813
0.495784
0.499028
0.493055
0.492322
0.484046
0.481906
0.49513
0.492034
0.478144
0.491617
0.490479
0.506263
0.500186
0.489637
0.489109
0.472004
0.481201
0.472981
0.492881
0.498026
0.490723
0.501402
0.490038
0.491132
0.483745
0.466897
0.469321
0.414892
0.409892
0.425552
0.409751
0.405625
0.421815
0.386052
0.37823
0.392046
0.375146
0.41111
0.450921
0.387312
0.41998
0.41205
0.435903
0.380969
0.391964
0.427522
0.412679
0.437277
0.433907
0.444684
0.428869
0.428251
0.413822
0.409877
0.421357
0.41097
0.457496
0.463519
0.466261
0.447254
0.456253
0.405902
0.412632
0.415051
0.399948
0.412883
0.437485
0.433757
0.41158
0.419453
0.413123
0.406782
0.457829
0.474051
0.471947
0.462985
0.431744
0.440399
0.500154
0.505703
0.506576
0.498215
0.459503
0.469636
0.4862
0.468103
0.566483
0.566295
0.56731
0.565547
0.561945
0.556764
0.553622
0.554746
0.563241
0.559066
0.559399
0.564105
0.561313
0.56398
0.517839
0.528452
0.510158
0.50538
0.506844
0.508695
0.503791
0.4942
0.493152
0.486789
0.508639
0.494861
0.499638
0.487533
0.501632
0.465591
0.4608
0.473534
0.461573
0.449729
0.455495
0.455896
0.452042
0.447207
0.474009
0.473657
0.463077
0.446442
0.464837
0.438283
0.43251
0.433685
0.440281
0.445806
0.541184
0.539467
0.535652
0.552663
0.556113
0.561532
0.512701
0.512684
0.537033
0.543243
0.52494
0.527226
0.52836
0.53054
0.512955
0.499259
0.520386
0.538232
0.546516
0.54771
0.53929
0.551657
0.494991
0.488747
0.480484
0.493655
0.494782
0.540739
0.566358
0.525297
0.517792
0.509103
0.512362
0.523199
0.507622
0.530836
0.540176
0.530953
0.536297
0.532018
0.553474
0.5295
0.542769
0.537656
0.495236
0.501125
0.498381
0.509503
0.505447
0.504373
0.497277
0.557113
0.546335
0.555628
0.535521
0.516271
0.567958
0.430991
0.476106
0.460157
0.4591
0.490331
0.492286
0.479898
0.495263
0.489114
0.499958
0.481551
0.480539
0.475838
0.587182
0.574584
0.557753
0.588501
0.576336
0.610366
0.606395
0.581476
0.605726
0.621956
0.507917
0.514822
0.506892
0.518094
0.4752
0.455201
0.500132
0.509843
0.480043
0.4884
0.497806
0.488308
0.481741
0.483352
0.45148
0.449377
0.483876
0.474152
0.468444
0.471967
0.463963
0.489283
0.483773
0.48153
0.466288
0.470693
0.46702
0.483545
0.474123
0.544498
0.542849
0.541832
0.542427
0.542019
0.53959
0.537194
0.53105
0.535468
0.538429
0.503408
0.502372
0.520487
0.452349
0.470044
0.470734
0.457074
0.480816
0.478433
0.525285
0.512695
0.515908
0.5148
0.49579
0.493181
0.499661
0.496088
0.49265
0.48726
0.487898
0.489616
0.485241
0.479975
0.550463
0.537076
0.567977
0.55958
0.537069
0.535697
0.525138
0.541545
0.529631
0.543443
0.548666
0.547221
0.53019
0.531802
0.532828
0.53356
0.532151
0.536328
0.532271
0.533192
0.5355
0.525549
0.531047
0.526895
0.524037
0.520453
0.530136
0.52735
0.526548
0.509172
0.5
0.502252
0.504245
0.507803
0.528229
0.520063
0.528801
0.52462
0.722035
0.71564
0.7071
0.604703
0.607132
0.579957
0.596093
0.621676
0.610932
0.666361
0.658476
0.632085
0.707408
0.699184
0.650244
0.639281
0.454035
0.446677
0.437374
0.420281
0.454271
0.415261
0.460303
0.454991
0.467602
0.47406
0.464919
0.451243
0.58405
0.604822
0.596543
0.587716
0.57838
0.738681
0.706854
0.702516
0.704061
0.694874
0.65042
0.681504
0.630876
0.674184
0.68656
0.684075
0.642946
0.502647
0.506762
0.508113
0.511209
0.499893
0.518024
0.525332
0.515962
0.510678
0.519706
0.517153
0.521565
0.455362
0.445526
0.442046
0.440145
0.434058
0.458892
0.447854
0.481124
0.474644
0.443062
0.415817
0.449413
0.436963
0.447851
0.41968
0.419309
0.460903
0.438916
0.450729
0.461187
0.504193
0.527358
0.493008
0.48233
0.461616
0.473679
0.532342
0.554168
0.465738
0.489801
0.484696
0.483341
0.505574
0.483208
0.672688
0.656864
0.675183
0.60944
0.622399
0.621905
0.623034
0.621638
0.685063
0.678283
0.650397
0.620487
0.676556
0.678037
0.636264
0.632189
0.599914
0.579862
0.557667
0.589238
0.58218
0.596063
0.604876
0.59973
0.597682
0.424453
0.444953
0.432938
0.414425
0.474052
0.475321
0.421739
0.462407
0.452213
0.468717
0.459362
0.437277
0.438178
0.507966
0.507077
0.508288
0.505988
0.506509
0.507241
0.659649
0.58838
0.646931
0.660954
0.841398
0.879743
0.843686
0.820544
0.776195
0.723596
0.773834
0.707719
0.771689
0.825823
0.799219
0.793308
0.817291
0.794247
0.797456
0.754039
0.779082
0.79555
0.520043
0.498343
0.526435
0.491037
0.516155
0.495372
0.490104
0.478839
0.512839
0.52579
0.534236
0.608211
0.586043
0.558536
0.584734
0.548244
0.492401
0.507698
0.526102
0.483846
0.51018
0.516429
0.611823
0.593426
0.595082
0.599825
0.577322
0.562394
0.565091
0.504945
0.505899
0.506193
0.486043
0.479712
0.500329
0.512575
0.509116
0.509452
0.502764
0.512278
0.504291
0.463032
0.46453
0.471958
0.468213
0.462422
0.445136
0.445818
0.472626
0.477192
0.479373
0.447829
0.427553
0.484721
0.479938
0.469683
0.455323
0.488405
0.481362
0.845197
0.839125
0.854909
0.867651
0.840604
0.831843
0.878031
0.919082
0.859714
0.863876
0.718875
0.753739
0.740974
0.755456
0.756092
0.494906
0.492575
0.49674
0.492351
0.490856
0.493731
0.487676
0.491355
0.492227
0.492241
0.495762
0.495571
0.495475
0.626592
0.61123
0.599575
0.474191
0.500565
0.495892
0.490559
0.623828
0.589801
0.511082
0.580499
0.558083
0.50738
0.559703
0.577728
0.497498
0.486418
0.482934
0.465093
0.86239
0.844081
0.852062
0.769215
0.778975
0.7924
0.809731
0.676523
0.701785
0.66475
0.707496
0.731023
0.737958
0.730616
0.724164
0.777532
0.760293
0.752699
0.682543
0.707901
0.698165
0.709772
0.684786
0.721522
0.730338
0.738767
0.974633
0.97928
0.959272
0.971543
1.05756
1.03922
1.03605
1.00138
1.01718
0.908833
0.897966
0.86063
0.917473
0.921282
0.844969
0.863523
0.868013
0.84846
0.898862
0.873455
0.913403
1.00044
1.02742
0.984174
0.923111
0.979765
0.9427
0.836571
0.797824
0.757084
0.856782
0.859766
0.941287
0.931279
0.909602
0.898582
0.862572
0.477699
0.476834
0.468346
0.476314
0.4749
0.465479
0.553531
0.54652
0.531848
0.528312
0.922289
0.933048
1.12805
1.10578
1.11295
1.10413
1.04575
1.06058
1.04327
1.06409
1.04977
1.01972
0.971092
1.11603
1.11327
1.0784
1.09072
1.10877
1.08662
1.17172
1.16132
1.13358
1.05287
1.07565
1.10236
1.07332
1.11148
1.11484
1.12978
1.10879
1.09015
0.996833
1.02007
0.959362
1.05687
1.05063
1.07052
1.06974
1.0628
1.05611
0.481971
0.484531
0.489034
0.47804
0.477412
0.482671
0.467233
0.485143
0.483749
1.08233
1.09931
1.09664
1.09259
1.06863
1.06221
1.05066
1.11018
1.11402
1.17924
1.17848
1.16822
1.17345
0.692171
0.653704
0.695831
0.638495
0.732336
0.758446
0.680716
0.654564
0.792053
0.811992
1.1582
1.17082
1.18095
1.17931
1.14766
1.13999
1.15662
1.1325
1.16611
1.14755
1.16006
1.13878
1.14445
1.13342
1.16009
0.732185
0.762579
0.893103
0.896659
0.8628
0.926023
0.79573
0.833283
0.868189
0.839122
0.834323
1.02492
1.02427
0.962847
1.0021
0.896633
0.923404
0.941904
0.9179
0.86306
0.883786
0.932717
0.920285
0.934709
0.914389
0.895302
0.919168
0.973693
0.944836
0.437331
0.404379
0.402141
0.436675
0.430419
0.464109
0.434982
0.411952
0.462024
0.40594
0.432078
0.443189
0.461469
0.465248
0.468046
0.428749
0.418204
0.518651
0.557618
0.483036
0.565727
0.665058
0.603709
0.565306
0.650505
0.611906
0.804363
0.736059
0.788164
0.746017
0.765797
0.818905
0.702395
0.688982
0.694846
0.728147
0.733476
0.744517
0.781596
0.755552
0.763391
0.728896
0.700686
0.684492
0.681722
0.651522
0.671189
0.727392
0.708578
1.05102
1.0371
1.08995
1.06013
1.06934
1.09775
1.07863
1.11937
1.13972
1.16036
1.15417
1.14784
1.12703
0.481322
0.472861
0.484586
0.479962
0.489954
0.483723
0.490719
0.484162
0.478361
0.488336
0.464716
0.484469
0.47963
0.478952
0.485513
0.934929
0.92864
0.919792
0.949441
0.914681
0.856615
0.820464
0.872162
0.483031
0.48424
0.487055
0.488102
0.48595
0.488416
0.490856
0.489249
0.477646
0.485512
0.4842
0.492367
0.486925
0.489621
0.485024
0.489981
0.484363
0.479015
0.463921
0.424539
0.436376
0.442146
0.453671
0.426121
0.467623
0.449815
0.441376
0.474877
0.445752
0.453235
0.706797
0.71906
0.74189
0.723147
0.705866
0.747659
0.72631
0.686601
0.732763
0.693562
0.710367
0.760161
0.776296
0.495213
0.500765
0.487219
0.493457
0.511711
0.525264
0.493591
0.531921
0.53558
0.540022
0.529579
0.507685
0.488664
0.696683
0.660397
0.660432
0.604663
0.544998
0.563158
0.613688
0.628255
0.657363
0.572245
0.563113
0.592818
0.596249
0.584444
0.587418
0.617913
0.606931
0.591796
0.577289
0.542724
0.543482
0.545237
0.584211
0.613162
0.54816
0.525687
0.650607
0.662963
0.651232
0.604079
0.631093
0.553437
0.622039
0.6319
0.599524
0.610746
0.574443
0.850982
0.818204
0.848525
0.752194
0.722562
0.794325
0.827833
0.788731
0.753514
0.800211
0.762912
0.658337
0.746592
0.689997
0.736125
0.781567
0.795942
0.718662
0.669103
0.681367
0.65687
0.679202
0.647697
0.652972
0.637618
0.626697
0.637221
0.614716
0.619845
0.487171
0.568547
0.568162
0.571732
0.590567
0.5869
0.61007
0.597987
0.61939
0.556967
0.577062
0.563208
0.534088
0.554773
0.570808
0.51824
0.541468
0.508775
0.632571
0.625479
0.632128
0.68283
0.64837
0.696432
0.713255
0.680476
0.697938
0.98412
0.976043
0.965527
0.828967
0.824956
0.838013
0.838181
0.797364
0.795101
0.79488
0.749141
0.797308
0.78129
0.755251
0.73155
0.490335
0.479626
0.481571
0.497917
0.469453
0.494036
0.481951
0.473738
0.471906
0.469962
0.477445
0.461032
0.489511
0.490405
0.502179
0.500145
0.49981
0.497289
0.502256
0.497194
0.910275
0.820802
0.808617
0.793896
0.93025
0.891608
0.837596
0.776619
0.867719
0.848314
0.818472
0.82329
1.17787
1.16954
0.598225
0.615534
0.581646
0.636781
0.643087
0.624817
0.641804
0.595524
0.563357
0.560736
0.476474
0.510676
0.483212
0.521394
0.549471
0.557523
0.506078
0.537718
0.448138
0.514281
0.471324
0.877482
0.881858
0.868015
0.922149
0.903354
0.898991
0.894254
0.862168
0.939211
0.970933
0.942452
0.984975
0.963214
0.991118
1.00656
0.563309
0.60518
0.602021
0.655139
0.561736
0.66333
0.691505
0.687951
0.684269
0.688364
0.595642
0.642058
0.631304
1.15494
1.16434
1.14845
1.14283
1.13641
1.15824
1.15441
1.00498
1.01392
0.990683
0.46829
0.461487
0.473312
0.473488
0.467533
0.871586
0.917779
0.927691
0.897728
0.968599
0.944315
0.93469
0.957758
1.04211
1.02931
1.01359
1.01729
1.06972
1.05071
1.02805
1.01502
1.09249
1.06893
1.0599
1.04596
1.0551
1.04251
1.04072
1.0412
1.01115
1.01095
1.03947
1.03637
1.03231
1.00619
1.00734
0.998401
0.967814
1.10023
1.11589
1.11988
1.13718
1.11696
1.09845
1.08956
1.13732
1.11993
1.14679
1.13065
0.748325
0.789847
0.798065
0.747792
0.790456
0.752595
0.822826
0.778604
0.738519
0.879164
0.869851
0.913492
0.860157
0.877772
0.861224
0.926743
0.905997
0.920548
0.895724
0.903946
0.926713
1.0271
0.963377
1.02416
1.01407
1.00127
0.967858
0.998591
1.03736
0.961689
0.990269
1.08534
1.06614
1.07478
1.08293
1.09395
1.08863
0.755932
0.801855
0.765073
0.80405
0.82397
0.824195
0.818754
0.780365
0.765327
0.793018
0.818235
0.79425
0.42699
0.462694
0.446999
0.443768
0.470944
0.469521
0.472879
0.464796
0.460601
0.457819
0.523567
0.492607
0.536879
0.583259
0.497805
0.566134
0.629588
0.656452
0.576801
0.611246
0.569694
0.548447
0.54675
0.63741
0.604272
0.590112
0.586647
0.587768
0.555377
0.773686
0.84024
0.833291
0.773659
0.834189
0.834854
0.735965
0.691671
0.475253
0.488006
0.490058
0.487151
0.491948
0.487766
0.485292
0.484737
0.489946
0.485468
0.485843
0.490053
0.497581
0.495967
0.486881
0.471468
0.490834
0.493695
0.494128
0.492883
0.492535
0.49977
0.812001
0.800635
0.802312
0.824722
0.821267
0.819404
0.814362
0.829096
0.83371
0.819245
0.944058
0.957628
0.934362
0.906875
0.919669
0.938971
0.942081
0.879232
0.906074
0.905659
0.875233
0.911065
0.901432
0.909873
0.927636
0.924906
0.479058
0.470209
0.473414
0.471699
0.483271
0.48328
0.452095
0.471561
0.461366
0.445363
0.43789
0.441253
0.426722
0.480571
0.469291
0.475256
0.475843
0.427436
0.419796
0.450412
0.462109
0.421403
0.44569
0.445501
0.415048
0.458003
0.463534
0.442498
0.440018
0.409874
0.751827
0.765909
0.728786
0.698004
0.748395
0.753765
0.721453
0.696944
0.7295
0.754596
0.5175
0.504388
0.496436
0.470209
0.451006
0.458968
0.451389
0.444838
0.432307
0.458998
0.463197
0.461417
0.456836
0.466693
0.442386
0.444525
0.424617
0.428941
0.559888
0.552148
0.55119
0.539901
0.510246
0.49454
0.575502
0.524184
0.51799
0.477329
0.5047
0.496808
0.503098
0.486754
0.474676
0.492078
0.492085
0.4666
0.456916
0.505263
0.493174
0.499193
0.503686
0.502159
0.508369
0.504305
0.714379
0.676735
0.663803
0.657393
0.714915
0.652846
0.647692
0.620602
0.465901
0.439451
0.464384
0.434197
0.448319
0.461933
0.456218
0.544375
0.530179
0.565002
0.569625
0.574373
0.586295
0.581077
0.591464
0.622803
0.626187
0.616408
0.648091
0.6463
0.664355
0.625178
0.660443
0.647389
0.676212
0.681281
0.681125
0.656633
0.49694
0.502268
0.503113
0.517803
0.517456
0.514148
0.516971
0.511183
0.52214
0.521097
0.517515
0.520716
0.519037
0.524262
0.517512
0.519906
0.510894
0.516923
0.513151
0.504698
0.515302
0.517788
0.526817
0.52618
0.52929
0.53014
0.524321
0.525412
0.527971
0.529837
0.49092
0.476943
0.47958
0.502441
0.509153
0.47039
0.500559
0.462649
0.465698
0.472939
0.472224
0.457387
0.467856
0.448863
0.442374
0.453013
0.482364
0.463203
0.476739
0.471862
0.582934
0.572651
0.547398
0.529826
0.564581
0.505556
0.558469
0.524165
0.548612
0.546126
0.524901
0.538771
0.531905
0.536682
0.538365
0.538365
0.540943
0.536692
0.533057
0.536857
0.534893
0.540442
0.537391
0.456101
0.489043
0.489043
0.472744
0.490351
0.45133
0.459936
0.475389
0.513897
0.476164
0.466444
0.512637
0.487764
0.502977
0.477061
0.477556
0.496469
0.496829
0.494202
0.519385
0.489163
0.508549
0.516673
0.49876
0.647414
0.6252
0.648552
0.698515
0.67155
0.637514
0.651102
0.658836
0.506546
0.494786
0.496819
0.49478
0.491616
0.495525
0.479912
0.54975
0.570538
0.545014
0.562448
0.586287
0.571499
0.584892
0.585663
0.577609
0.547407
0.576586
0.459563
0.458964
0.447573
0.452482
0.470721
0.448017
0.453486
0.445632
0.451889
0.477526
0.492356
0.528054
0.547955
0.557935
0.556907
0.541674
0.523608
0.524033
0.527576
0.521364
0.5281
0.510106
0.508935
0.512668
0.524893
0.529345
0.509125
0.532786
0.532966
0.549729
0.548305
0.550489
0.539484
0.540388
0.535623
0.538251
0.538662
0.445344
0.430836
0.447134
0.428719
0.445503
0.446954
0.427919
0.443556
0.520658
0.524184
0.531066
0.524625
0.521246
0.508581
0.507711
0.566008
0.560298
0.56051
0.559386
0.553271
0.560973
0.560121
0.557687
0.561012
0.561965
0.539952
0.543229
0.541787
0.542367
0.541655
0.543193
0.535805
0.543094
0.54252
0.539045
0.539826
0.550179
0.538557
0.541058
0.426037
0.418607
0.426809
0.443275
0.422097
0.425394
0.421756
0.43124
0.432691
0.437829
0.434304
0.430214
0.436652
0.554599
0.518153
0.519998
0.498261
0.460615
0.471298
0.497113
0.485522
0.48392
0.480192
0.573458
0.546985
0.569812
0.546508
0.572445
0.570414
0.573464
0.586718
0.588147
0.57429
0.557124
0.558055
0.576677
0.566333
0.577113
0.574733
0.509849
0.504444
0.54256
0.536426
0.402634
0.410664
0.422306
0.422211
0.425794
0.503576
0.530743
0.512603
0.542027
0.521735
0.535159
0.528672
0.503414
0.541969
0.532145
0.501726
0.455891
0.458198
0.482614
0.483941
0.47573
0.485519
0.481369
0.468012
0.418486
0.399133
0.443005
0.423832
0.433575
0.427218
0.444083
0.435905
0.436963
0.426819
0.44545
0.437946
0.436988
1.0797
1.03327
1.05666
1.07421
1.06686
1.08755
1.05456
1.09953
1.07237
1.11922
1.0937
1.09773
1.10176
0.90601
0.908136
0.94786
0.941148
0.950233
0.962872
0.960941
1.0532
0.975959
1.02564
0.985412
1.02836
1.00252
1.03936
1.05397
1.01084
1.0263
0.955848
0.576986
0.500472
0.531254
0.50916
0.523981
0.566089
0.558607
0.54248
0.500176
0.527759
0.510504
0.556843
0.601102
0.561571
0.542757
0.554492
0.716034
0.757426
0.783479
0.737438
0.723462
0.781403
0.791142
0.790679
0.797084
0.801765
0.785976
0.791602
0.801745
0.466786
0.515808
0.505014
0.482907
0.560596
0.552996
0.568266
0.542392
0.582386
0.553735
0.505185
0.517512
0.522375
0.525843
0.495126
0.533309
0.507235
0.511962
0.566185
0.60392
0.603641
0.553908
0.54821
0.604726
0.594335
0.611367
0.576758
0.59198
0.571091
0.555103
0.569565
0.554098
0.604729
0.604417
0.601181
0.454083
0.489353
0.50598
0.479851
0.49051
0.514099
0.515808
0.500607
0.404149
0.371863
0.367999
0.369327
0.364541
0.3711
0.458677
0.442343
0.437602
0.439043
0.438084
0.373901
0.405525
0.392531
0.401384
0.390359
0.361518
0.381105
0.389461
0.483743
0.471419
0.480578
0.460177
0.459237
0.47197
0.48713
0.475499
0.470923
0.499671
0.499557
0.453068
0.455022
0.454035
0.387979
0.40423
0.592214
0.596281
0.594619
0.541927
0.571606
0.565751
0.524985
0.524792
0.561911
0.54607
0.478108
0.496377
0.504336
0.513851
0.52051
0.518401
0.51527
0.511438
0.527497
0.518015
0.504836
0.498366
0.52706
0.470081
0.493876
0.488149
0.461503
0.479671
0.498307
0.483003
0.469144
0.464857
0.461057
0.474971
0.473991
0.465243
0.4727
0.483771
0.482334
0.445288
0.453875
0.458305
0.43486
0.539472
0.528539
0.516191
0.539002
0.541528
0.530415
0.533191
0.512364
0.39398
0.403623
0.410802
0.406875
0.412824
0.418826
0.423077
0.434988
0.413429
0.418746
0.447954
0.45855
0.436555
0.43919
0.45302
0.465214
0.463613
0.47339
0.491123
0.482529
0.475702
0.452919
0.45937
0.453296
0.467587
0.454137
0.46641
0.464869
0.450421
0.450544
0.543975
0.554834
0.543958
0.554379
0.550204
0.554559
0.557717
0.553476
0.554875
0.54248
0.553373
0.549964
0.50146
0.482359
0.495429
0.49868
0.496421
0.505085
0.489835
0.501407
0.50522
0.496378
0.512129
0.501561
0.513936
0.491817
0.493123
0.494814
0.494618
0.500585
0.493024
0.395997
0.545355
0.543802
0.540416
0.525101
0.518775
0.496379
0.51158
0.505578
0.541188
0.531534
0.525678
0.521659
0.518479
0.509722
0.548843
0.531288
0.618381
0.641973
0.442645
0.461081
0.460703
0.46226
0.464123
0.457669
0.455402
0.450274
0.62495
0.63134
0.623434
0.631759
0.621604
0.584444
0.599146
0.589606
0.629536
0.607178
0.478645
0.455529
0.452526
0.44699
0.460116
0.494915
0.440369
0.461496
0.464342
0.449109
0.459748
0.438024
0.453713
0.45451
0.431291
0.41287
0.475246
0.454588
0.479474
0.47285
0.448341
0.476376
0.471338
0.476647
0.488757
0.625819
0.614583
0.410454
0.430545
0.405691
0.396481
0.535591
0.581175
0.59737
0.563211
0.579633
0.501695
0.4863
0.662598
0.62239
0.639883
0.626782
0.537168
0.503105
0.491692
0.721072
0.703314
0.722697
0.472779
0.440719
0.68559
0.664531
0.640422
0.612018
0.694172
0.684162
0.632981
0.618613
0.673995
0.655062
0.617224
0.612287
0.639001
0.631073
0.610747
0.499572
0.461057
0.479983
0.467007
0.464149