/*--------------------------------*- C++ -*----------------------------------*\
| =========                 |                                                 |
| \\      /  F ield         | OpenFOAM: The Open Source CFD Toolbox           |
|  \\    /   O peration     | Version:  v1612+                                |
|   \\  /    A nd           | Web:      www.OpenFOAM.com                      |
|    \\/     M anipulation  |                                                 |
\*---------------------------------------------------------------------------*/
FoamFile
{
    version     2.0;
    format      ascii;
    class       volVectorField;
    location    "50";
    object      U;
}
// * * * * * * * * * * * * * * * * * * * * * * * * * * * * * * * * * * * * * //

dimensions      [0 1 -1 0 0 0 0];

internalField   nonuniform List<vector> 
17061
(
(0.0540597 0.467667 0.561819)
(-0.434899 0.541029 0.605362)
(-0.206795 0.834125 0.709478)
(-0.188062 0.793947 0.649405)
(-0.187211 0.766734 0.635929)
(-0.205417 0.783022 0.649982)
(-0.224352 0.793759 0.662424)
(-0.236259 0.838886 0.721509)
(-0.224095 0.805582 0.674284)
(-0.308832 0.89638 0.802648)
(-0.277417 0.8707 0.770927)
(-0.270372 0.871673 0.762622)
(-0.278042 0.883 0.762527)
(-0.275302 0.824269 0.726218)
(-0.277942 0.831718 0.730572)
(-0.247767 0.792585 0.699015)
(-0.289523 0.85529 0.768109)
(-0.319577 0.877982 0.769371)
(-0.293253 0.863834 0.759303)
(-0.249472 0.79436 0.693958)
(-0.431864 0.851711 0.813051)
(-0.443658 0.819268 0.732363)
(-0.434868 0.790009 0.705332)
(-0.400443 0.71497 0.57596)
(-0.461257 0.83703 0.750579)
(-0.449876 0.794922 0.667124)
(-0.483598 0.875874 0.803727)
(-0.458504 0.856083 0.784844)
(-0.483334 0.87421 0.764436)
(-0.47147 0.809159 0.704269)
(-0.499061 0.841145 0.706354)
(-0.43383 0.776094 0.652253)
(-0.488231 0.844052 0.734685)
(-0.481837 0.878133 0.787112)
(-0.514124 0.86474 0.762465)
(-0.488892 0.834559 0.768241)
(-0.4925 0.869835 0.789804)
(-0.492538 0.893865 0.77568)
(-0.406406 0.649956 0.716929)
(-0.428736 0.662343 0.715709)
(-0.38211 0.613101 0.664835)
(-0.365443 0.581325 0.625812)
(-0.393241 0.642194 0.6586)
(-0.349109 0.544009 0.614098)
(-0.392867 0.589675 0.6381)
(-0.357139 0.55212 0.642282)
(-0.408238 0.618698 0.714659)
(-0.424173 0.6603 0.722825)
(-0.385889 0.56316 0.641677)
(-0.413581 0.617808 0.668936)
(-0.368221 0.547973 0.631895)
(-0.391996 0.55436 0.64684)
(-0.360953 0.540597 0.646988)
(-0.350102 0.518712 0.627974)
(0.0764171 0.582208 0.398331)
(0.123761 0.54711 0.363737)
(0.0616239 0.595774 0.354165)
(0.0956312 0.533172 0.312604)
(0.00347029 0.660605 0.48056)
(0.0462533 0.619935 0.445206)
(0.107531 0.563981 0.394434)
(0.108637 0.549268 0.346867)
(0.135125 0.532048 0.346321)
(0.0981845 0.558086 0.302842)
(0.10994 0.528612 0.29475)
(0.0192627 0.677902 0.465844)
(0.0798214 0.615246 0.371865)
(0.0125048 0.677585 0.466317)
(0.021287 0.659355 0.474891)
(0.118056 0.58812 0.369413)
(0.124649 0.569838 0.32841)
(0.0365935 0.665177 0.469067)
(0.157902 0.494292 0.270455)
(0.0247807 0.635671 0.383924)
(-0.00944941 0.625328 0.401828)
(0.0979198 0.599694 0.300342)
(0.0951107 0.616519 0.319569)
(-0.000723853 0.61829 0.37472)
(-0.027333 0.602569 0.364389)
(-0.043804 0.596607 0.370445)
(0.0632837 0.602948 0.323804)
(0.107905 0.583911 0.283119)
(0.112298 0.540422 0.232935)
(0.0121351 0.558602 0.283777)
(0.0240993 0.546339 0.254271)
(0.0269925 0.537911 0.256024)
(0.079516 0.502268 0.200544)
(0.0651095 0.545954 0.256377)
(0.0860603 0.537173 0.226254)
(0.15929 0.60716 0.345924)
(0.144972 0.600453 0.331232)
(-0.188481 0.401881 0.60985)
(-0.228637 0.436693 0.623294)
(-0.106875 0.288381 0.507284)
(-0.111762 0.320083 0.528346)
(-0.171431 0.391125 0.585955)
(-0.161291 0.386363 0.56552)
(-0.202962 0.401863 0.602138)
(-0.217322 0.398398 0.599194)
(-0.100117 0.281054 0.49246)
(-0.0919419 0.255869 0.47191)
(-0.153923 0.326362 0.545597)
(-0.165109 0.32598 0.546683)
(-0.149452 0.304864 0.522925)
(-0.153603 0.304678 0.530081)
(-0.176737 0.334509 0.554783)
(-0.127828 0.267566 0.491825)
(-0.163907 0.316657 0.280369)
(-0.146519 0.309191 0.272014)
(-0.134763 0.306303 0.273679)
(-0.128248 0.294978 0.263605)
(-0.175467 0.372177 0.303095)
(-0.16397 0.359378 0.30215)
(-0.154627 0.330444 0.279755)
(-0.124854 0.386189 0.331454)
(-0.138206 0.408894 0.340685)
(-0.112999 0.283824 0.264755)
(-0.124354 0.304989 0.278349)
(-0.111371 0.279818 0.262258)
(-0.116078 0.345411 0.309396)
(-0.106113 0.349614 0.310129)
(-0.159035 0.434161 0.316963)
(-0.146565 0.420553 0.32532)
(-0.1526 0.385303 0.307417)
(-0.14083 0.385819 0.315465)
(-0.15056 0.414507 0.33442)
(-0.100641 0.329773 0.296992)
(-0.112828 0.344316 0.292202)
(-0.128262 0.341004 0.285416)
(-0.133922 0.311708 0.26805)
(-0.108564 0.286179 0.253518)
(-0.173696 0.388073 0.299874)
(-0.0979806 0.3213 0.284137)
(-0.0627652 0.58054 0.627105)
(-0.0605916 0.524009 0.579182)
(-0.127776 0.553406 0.600936)
(-0.140112 0.603779 0.641631)
(-0.0363225 0.493245 0.557595)
(-0.069634 0.59119 0.618291)
(-0.124438 0.666667 0.664437)
(-0.168729 0.69859 0.683773)
(-0.140952 0.618091 0.636924)
(-0.146484 0.651749 0.665912)
(-0.123799 0.545393 0.600312)
(-0.0737999 0.517826 0.576495)
(-0.0374029 0.570897 0.607801)
(-0.0210377 0.478644 0.545545)
(-0.127145 0.681541 0.673117)
(-0.131335 0.544578 0.59496)
(-0.0867198 0.516501 0.573126)
(-0.0825354 0.523105 0.580904)
(-0.037545 0.58509 0.619507)
(-0.0287932 0.523433 0.573704)
(-0.0401785 0.498295 0.564706)
(-0.046254 0.485096 0.550183)
(-0.250677 0.575326 0.548878)
(-0.239251 0.590454 0.53295)
(-0.218663 0.549563 0.503377)
(-0.201645 0.50507 0.460881)
(-0.257022 0.586171 0.550625)
(-0.238972 0.590791 0.523452)
(-0.179359 0.505349 0.419909)
(-0.188733 0.542418 0.446702)
(-0.151062 0.475653 0.37578)
(-0.201244 0.504951 0.447187)
(-0.159168 0.457975 0.382801)
(-0.20793 0.552111 0.487712)
(-0.182522 0.507712 0.415837)
(-0.17045 0.513601 0.411478)
(-0.228829 0.529953 0.475844)
(-0.210832 0.53441 0.458434)
(-0.206815 0.513907 0.439101)
(-0.164617 0.483855 0.393232)
(-0.289594 0.610947 0.614691)
(-0.301962 0.618213 0.616947)
(-0.331657 0.699325 0.714701)
(-0.333842 0.673621 0.674239)
(-0.292832 0.580785 0.601258)
(-0.311415 0.611373 0.610905)
(-0.298132 0.63515 0.652668)
(-0.326748 0.689414 0.70545)
(-0.396967 0.757913 0.728587)
(-0.387891 0.710125 0.689982)
(-0.301921 0.589231 0.621818)
(-0.317882 0.597689 0.633172)
(-0.328308 0.632354 0.624399)
(-0.297914 0.611761 0.638224)
(-0.334315 0.673985 0.701593)
(-0.390995 0.69761 0.66671)
(-0.231173 0.470702 0.276311)
(-0.216654 0.495102 0.31164)
(-0.159807 0.435742 0.334659)
(-0.167911 0.42896 0.339147)
(-0.202035 0.4049 0.291077)
(-0.202932 0.463447 0.295759)
(-0.222923 0.725504 0.750822)
(-0.19188 0.671208 0.708582)
(-0.276066 0.752876 0.756055)
(-0.294328 0.783868 0.804544)
(-0.19679 0.705524 0.749566)
(-0.307249 0.783175 0.734348)
(-0.200831 0.753286 0.747036)
(-0.217051 0.760539 0.776392)
(-0.265041 0.749283 0.716667)
(-0.282769 0.79069 0.781827)
(-0.229547 0.73181 0.681125)
(-0.21311 0.737131 0.697163)
(-0.310535 0.603595 0.581888)
(-0.294801 0.559953 0.548874)
(-0.333077 0.603982 0.578181)
(-0.32883 0.620496 0.591577)
(-0.352727 0.600985 0.591373)
(-0.316227 0.55714 0.536608)
(-0.363161 0.667917 0.642524)
(-0.352296 0.626768 0.60556)
(-0.336543 0.627049 0.595948)
(-0.370205 0.68249 0.642829)
(-0.317982 0.567446 0.548656)
(-0.389923 0.661338 0.652207)
(-0.410694 0.700897 0.686497)
(-0.379139 0.642215 0.636663)
(-0.344011 0.596675 0.610141)
(-0.539847 0.705344 0.755543)
(-0.513044 0.693962 0.738847)
(-0.56305 0.761312 0.740525)
(-0.508998 0.717891 0.704086)
(-0.556449 0.737941 0.7252)
(-0.504755 0.638466 0.726961)
(-0.557146 0.725176 0.749176)
(-0.554213 0.744313 0.681632)
(-0.48102 0.688215 0.660476)
(-0.535572 0.705074 0.720629)
(-0.444749 0.606782 0.727479)
(-0.470078 0.571821 0.713974)
(-0.481782 0.575205 0.715071)
(-0.451661 0.567954 0.713659)
(-0.513329 0.647545 0.736617)
(-0.409108 0.662725 0.323229)
(-0.444837 0.69308 0.399061)
(-0.412189 0.618238 0.316667)
(-0.30993 0.580285 0.16743)
(-0.347188 0.563617 0.213534)
(-0.325909 0.638138 0.221565)
(-0.464499 0.613602 0.419085)
(-0.324708 0.576155 0.205104)
(-0.325295 0.607723 0.111728)
(-0.390905 0.601371 0.627898)
(-0.402874 0.62861 0.643672)
(-0.329595 0.547674 0.541781)
(-0.334782 0.568833 0.540494)
(-0.412243 0.692386 0.678129)
(-0.407701 0.667345 0.637766)
(-0.378675 0.660699 0.630889)
(-0.392216 0.662671 0.652177)
(-0.26818 0.52795 0.567159)
(-0.214218 0.45843 0.491721)
(-0.202281 0.427458 0.471424)
(-0.266771 0.54263 0.557135)
(-0.226729 0.472233 0.492285)
(-0.205339 0.453618 0.456513)
(-0.172276 0.399306 0.388811)
(-0.243556 0.512455 0.562922)
(-0.211037 0.455867 0.511154)
(-0.179849 0.405734 0.427685)
(-0.179474 0.439281 0.457083)
(-0.162461 0.396937 0.406805)
(-0.199122 0.466916 0.445716)
(-0.211173 0.527633 0.503232)
(-0.189058 0.455284 0.467469)
(-0.183716 0.432448 0.437413)
(-0.265255 0.568362 0.568728)
(-0.246231 0.532455 0.558178)
(0.125328 0.649673 0.306049)
(0.1411 0.614212 0.268956)
(0.0815569 0.688103 0.359821)
(0.0835243 0.641981 0.311097)
(0.103086 0.61892 0.288733)
(0.124696 0.687962 0.354307)
(0.134032 0.642855 0.292408)
(0.0495456 0.738979 0.465182)
(0.0460031 0.684426 0.386917)
(0.0594266 0.656682 0.338871)
(0.0889062 0.619591 0.300087)
(0.0525491 0.760036 0.480535)
(0.0378974 0.722018 0.429366)
(0.0287793 0.79795 0.501465)
(0.0279143 0.816983 0.493148)
(-0.0378963 0.801166 0.529352)
(0.0574671 0.694696 0.371988)
(0.0831551 0.652508 0.320509)
(-0.237567 0.600094 0.443556)
(-0.224293 0.548472 0.408252)
(-0.244996 0.55719 0.446789)
(-0.269311 0.594738 0.513506)
(-0.280202 0.611864 0.524841)
(-0.258119 0.588611 0.461261)
(-0.300228 0.615558 0.485423)
(-0.274298 0.612048 0.449348)
(-0.263435 0.560741 0.443735)
(-0.215989 0.59443 0.433855)
(-0.196841 0.537432 0.388427)
(-0.271506 0.565669 0.454758)
(-0.297739 0.603001 0.526863)
(-0.296387 0.634206 0.506523)
(-0.267337 0.62738 0.478447)
(-0.34439 0.669599 0.574017)
(-0.333651 0.672279 0.544772)
(-0.175816 0.656382 0.526118)
(-0.156397 0.653518 0.508528)
(-0.111111 0.553752 0.40382)
(-0.0840179 0.524289 0.363681)
(-0.0990563 0.586427 0.414581)
(-0.17203 0.666544 0.527514)
(-0.0823954 0.527798 0.3762)
(-0.0628698 0.513427 0.345168)
(-0.15579 0.670994 0.522448)
(-0.141631 0.646656 0.520888)
(-0.048505 0.553256 0.40412)
(-0.0391165 0.525238 0.376417)
(-0.0431153 0.550972 0.378827)
(-0.0645025 0.5754 0.418804)
(-0.104551 0.576401 0.431517)
(-0.0801432 0.555793 0.400113)
(-0.0755176 0.571947 0.419191)
(-0.0225429 0.495396 0.328313)
(-0.274394 0.557483 0.577054)
(-0.227236 0.515169 0.561157)
(-0.239208 0.521747 0.561833)
(-0.23428 0.507875 0.547975)
(-0.254175 0.577999 0.604792)
(-0.268176 0.588347 0.621095)
(-0.264562 0.546524 0.610129)
(-0.238479 0.553415 0.606071)
(-0.230268 0.523863 0.569302)
(-0.267302 0.563487 0.61276)
(-0.542909 0.831041 0.75233)
(-0.547957 0.836932 0.763713)
(-0.433623 0.769908 0.724457)
(-0.431788 0.765293 0.730709)
(-0.507267 0.818169 0.750139)
(-0.500547 0.809464 0.748827)
(-0.406577 0.72301 0.687021)
(-0.39545 0.709837 0.681931)
(-0.406751 0.738241 0.691176)
(-0.413584 0.731771 0.691302)
(-0.529467 0.809014 0.747866)
(-0.473531 0.801344 0.748058)
(-0.4581 0.746818 0.70775)
(-0.436558 0.747336 0.706895)
(-0.415779 0.724133 0.680871)
(-0.459639 0.753875 0.70031)
(-0.491534 0.819677 0.762436)
(-0.463581 0.771904 0.718071)
(-0.451323 0.741743 0.689785)
(-0.364559 0.51539 0.620042)
(-0.395852 0.622964 0.692329)
(-0.379233 0.564776 0.658183)
(-0.435473 0.607662 0.594865)
(-0.403995 0.54836 0.597772)
(-0.424679 0.557492 0.585408)
(-0.44553 0.624954 0.595165)
(-0.394457 0.594362 0.676764)
(-0.402141 0.576751 0.676313)
(-0.425476 0.679506 0.701283)
(-0.481524 0.723664 0.687459)
(-0.419499 0.64013 0.648606)
(-0.498945 0.723254 0.682658)
(-0.499632 0.716689 0.647918)
(-0.416483 0.555106 0.600879)
(-0.44265 0.623618 0.585771)
(-0.442115 0.630829 0.617806)
(-0.449533 0.607945 0.625902)
(-0.430854 0.570555 0.661707)
(-0.426403 0.557883 0.649414)
(-0.285248 0.923527 0.836204)
(-0.285803 0.914523 0.84998)
(-0.292262 0.898237 0.840882)
(-0.241603 0.879633 0.81871)
(-0.241902 0.888201 0.835038)
(-0.224462 0.877355 0.843369)
(-0.198094 0.824301 0.766499)
(-0.206878 0.817455 0.7494)
(-0.230279 0.81774 0.744756)
(-0.22327 0.777339 0.727023)
(-0.257669 0.814434 0.786962)
(-0.210385 0.816636 0.79402)
(-0.207051 0.782767 0.770875)
(-0.220967 0.785378 0.786635)
(-0.219553 0.78699 0.757509)
(-0.202182 0.812052 0.758449)
(-0.206213 0.832229 0.784366)
(-0.271416 0.871609 0.854117)
(-0.253896 0.82919 0.810984)
(-0.219532 0.857423 0.823659)
(-0.321469 0.59685 0.308354)
(-0.214007 0.551106 0.288437)
(-0.172387 0.533009 0.311967)
(-0.319213 0.658987 0.440115)
(-0.207115 0.58029 0.403532)
(-0.175674 0.517594 0.27115)
(-0.168545 0.520692 0.291076)
(-0.315269 0.66944 0.482642)
(-0.211412 0.573658 0.388996)
(-0.156762 0.555317 0.390702)
(-0.12093 0.501651 0.29896)
(-0.192617 0.552399 0.337154)
(-0.308318 0.625705 0.400519)
(-0.179989 0.559332 0.400474)
(-0.149318 0.516718 0.308289)
(-0.541769 0.79515 0.620723)
(-0.506331 0.761264 0.503967)
(-0.555476 0.771923 0.646766)
(-0.578944 0.830686 0.671073)
(-0.60013 0.812385 0.672303)
(-0.552251 0.797157 0.618708)
(-0.54963 0.764976 0.605326)
(-0.60558 0.812091 0.726083)
(-0.57179 0.764224 0.70132)
(-0.561925 0.781237 0.692889)
(-0.565211 0.697412 0.686878)
(-0.598585 0.752936 0.691242)
(-0.571106 0.740195 0.701243)
(-0.588156 0.752021 0.717095)
(-0.578316 0.834431 0.699524)
(-0.56727 0.747272 0.696457)
(-0.578639 0.822005 0.691275)
(-0.598121 0.789568 0.709313)
(-0.493769 0.591984 0.702629)
(-0.480878 0.600104 0.691452)
(-0.523393 0.641345 0.72283)
(-0.501602 0.616716 0.714899)
(-0.492217 0.61257 0.705576)
(-0.512871 0.642575 0.697883)
(-0.492589 0.629915 0.687174)
(-0.538542 0.697972 0.723572)
(-0.534461 0.709968 0.7212)
(-0.534756 0.685461 0.742883)
(-0.501963 0.659956 0.704936)
(-0.554363 0.739676 0.739399)
(-0.550388 0.740447 0.738156)
(-0.524789 0.703077 0.734783)
(-0.544617 0.736041 0.75113)
(-0.497071 0.652926 0.710251)
(-0.30598 0.489993 0.361532)
(-0.290473 0.487153 0.33647)
(-0.243331 0.463883 0.327624)
(-0.200154 0.43967 0.306161)
(-0.279426 0.49025 0.339171)
(-0.362515 0.562381 0.366923)
(-0.269855 0.54285 0.256579)
(-0.279161 0.486876 0.293549)
(-0.317085 0.500265 0.31708)
(-0.209105 0.459692 0.296545)
(-0.211192 0.448961 0.300299)
(-0.356052 0.569625 0.395362)
(-0.401866 0.613035 0.410418)
(-0.360694 0.588015 0.341617)
(-0.270173 0.5361 0.278576)
(-0.293713 0.534378 0.337162)
(-0.175015 0.783569 0.675453)
(-0.190533 0.830276 0.731824)
(-0.178721 0.804892 0.688439)
(-0.129687 0.771947 0.635054)
(-0.223896 0.840609 0.738172)
(-0.163154 0.82194 0.699498)
(-0.291093 0.908936 0.797971)
(-0.282098 0.913251 0.816623)
(-0.224049 0.866675 0.763314)
(-0.247638 0.864914 0.771375)
(-0.193399 0.849163 0.76271)
(-0.257144 0.881645 0.80983)
(-0.258616 0.829106 0.772626)
(-0.232745 0.82803 0.74504)
(-0.228686 0.869705 0.771485)
(-0.256258 0.903246 0.798962)
(-0.240767 0.875828 0.788065)
(-0.195035 0.87037 0.766658)
(-0.163769 0.862852 0.769395)
(-0.140837 0.7905 0.71813)
(-0.180302 0.84839 0.764478)
(-0.202807 0.80764 0.758765)
(-0.196806 0.838092 0.768086)
(-0.267862 0.816503 0.751061)
(-0.232647 0.849495 0.754145)
(-0.205705 0.831135 0.767126)
(-0.254983 0.838242 0.770302)
(-0.348806 0.58574 0.717087)
(-0.368384 0.63213 0.725377)
(-0.42977 0.694907 0.740476)
(-0.45843 0.729287 0.752944)
(-0.382238 0.610482 0.72219)
(-0.460973 0.765512 0.783586)
(-0.433534 0.704119 0.75605)
(-0.481617 0.766963 0.759814)
(-0.500316 0.773617 0.774722)
(-0.480816 0.75364 0.73857)
(-0.487121 0.74736 0.737127)
(-0.456519 0.713111 0.745421)
(-0.472636 0.706876 0.75409)
(-0.419124 0.663345 0.749696)
(-0.454068 0.683267 0.754283)
(-0.0340236 0.652136 0.672557)
(-0.0373755 0.620311 0.642844)
(-0.0126235 0.567039 0.610437)
(-0.00370084 0.502311 0.570158)
(0.00584938 0.496112 0.56907)
(-0.00111071 0.510807 0.574443)
(-0.072354 0.649459 0.682392)
(-0.08116 0.599756 0.652587)
(-0.0954752 0.660838 0.686849)
(-0.0665116 0.5758 0.607997)
(-0.112238 0.639792 0.666388)
(-0.0818783 0.605385 0.647153)
(-0.0613723 0.571937 0.59897)
(-0.0909239 0.653212 0.677166)
(-0.0492777 0.774798 0.719543)
(-0.0444524 0.786475 0.723395)
(0.0305664 0.600368 0.60886)
(0.0411258 0.551838 0.567427)
(-0.0817549 0.790434 0.703189)
(-0.0403581 0.759824 0.709175)
(-0.0213436 0.748388 0.712425)
(-0.0280638 0.768024 0.709951)
(0.0212296 0.638807 0.637867)
(0.0150758 0.580711 0.586273)
(-0.0450521 0.73044 0.669734)
(0.0299283 0.586147 0.57652)
(0.030896 0.563663 0.551058)
(0.0318732 0.664888 0.654768)
(-0.0159812 0.624535 0.593647)
(-0.00147804 0.598201 0.567182)
(0.00506397 0.628137 0.592625)
(-0.187803 0.320325 0.278338)
(-0.226198 0.317463 0.283421)
(-0.211804 0.316339 0.286597)
(-0.203864 0.324574 0.286256)
(-0.276462 0.35744 0.300701)
(-0.232934 0.372299 0.296178)
(-0.197347 0.340772 0.282352)
(-0.218478 0.392857 0.285479)
(-0.195984 0.390913 0.285467)
(-0.324144 0.378466 0.31797)
(-0.252707 0.395438 0.270579)
(-0.296553 0.393013 0.310139)
(-0.231372 0.412358 0.283955)
(-0.207819 0.408433 0.28665)
(-0.301933 0.421626 0.289382)
(-0.309387 0.424334 0.289883)
(-0.546574 0.687561 0.710778)
(-0.555982 0.749282 0.697996)
(-0.566116 0.771119 0.730971)
(-0.532338 0.646676 0.694389)
(-0.520543 0.618097 0.720876)
(-0.544471 0.651474 0.729819)
(-0.55751 0.65529 0.721061)
(-0.56657 0.736679 0.738996)
(-0.514588 0.642605 0.69278)
(-0.552936 0.727363 0.731601)
(-0.38191 0.671504 0.726529)
(-0.377001 0.655841 0.732177)
(-0.370042 0.657342 0.731361)
(-0.385091 0.678921 0.736779)
(-0.322259 0.627401 0.686193)
(-0.32882 0.616741 0.693315)
(-0.318744 0.62531 0.685765)
(-0.318642 0.617261 0.687027)
(-0.450853 0.776033 0.749557)
(-0.443497 0.77508 0.745231)
(-0.384938 0.696833 0.728337)
(-0.358831 0.667151 0.726625)
(-0.399652 0.7306 0.732284)
(-0.425042 0.725324 0.730428)
(-0.381828 0.693963 0.725448)
(-0.380369 0.669034 0.734249)
(-0.308464 0.602204 0.555674)
(-0.324474 0.61206 0.565057)
(-0.407929 0.726158 0.675162)
(-0.413066 0.714186 0.659866)
(-0.293044 0.603436 0.561343)
(-0.316566 0.592023 0.552724)
(-0.288812 0.576739 0.532751)
(-0.442855 0.754889 0.695237)
(-0.42817 0.73581 0.682564)
(-0.40319 0.739346 0.689721)
(-0.300076 0.629076 0.60988)
(-0.309352 0.644338 0.617693)
(-0.28054 0.607511 0.584478)
(-0.288746 0.6004 0.567028)
(-0.268541 0.5753 0.538596)
(-0.408086 0.704491 0.65624)
(-0.295672 0.602967 0.570871)
(-0.368909 0.703687 0.672265)
(-0.388016 0.722157 0.687493)
(-0.339743 0.642024 0.587158)
(-0.335982 0.644271 0.615334)
(-0.31939 0.489927 0.511262)
(-0.298352 0.474633 0.497934)
(-0.394676 0.565499 0.65177)
(-0.427777 0.631158 0.67161)
(-0.354123 0.519769 0.559723)
(-0.330574 0.478541 0.555381)
(-0.306764 0.500468 0.516019)
(-0.327235 0.510496 0.562332)
(-0.308206 0.478431 0.545239)
(-0.392858 0.587306 0.623292)
(0.044218 0.364294 0.495654)
(0.00572819 0.419354 0.532098)
(-0.0428365 0.487358 0.587295)
(-0.0494957 0.498798 0.605325)
(0.0293665 0.384227 0.507443)
(0.0593717 0.343865 0.473456)
(-0.0491433 0.559852 0.610092)
(-0.0771898 0.533414 0.611464)
(0.0645411 0.415127 0.51907)
(0.0806379 0.354442 0.47817)
(0.0373799 0.386173 0.520313)
(-0.0167122 0.513251 0.592229)
(0.0403196 0.426797 0.539994)
(-0.0403311 0.527746 0.607266)
(-0.0450688 0.517067 0.59802)
(0.0646501 0.420638 0.527768)
(0.0599598 0.398057 0.519604)
(0.023693 0.427438 0.536308)
(-0.0061107 0.628052 0.614286)
(0.0258654 0.565984 0.575208)
(0.00507499 0.608482 0.60679)
(0.0137935 0.586739 0.590241)
(-0.00120534 0.529987 0.56054)
(-0.122634 0.737805 0.684054)
(-0.0839514 0.699073 0.668094)
(-0.00826432 0.561588 0.580553)
(-0.0283677 0.55717 0.571642)
(-0.15465 0.733746 0.687938)
(-0.12049 0.737207 0.700627)
(0.0158686 0.560046 0.579639)
(-0.0419245 0.629727 0.63403)
(-0.125152 0.691644 0.667938)
(-0.168408 0.706997 0.700569)
(-0.109993 0.663291 0.654902)
(-0.0207428 0.581817 0.609592)
(-0.132406 0.457408 0.602978)
(-0.103152 0.435525 0.587918)
(-0.0260753 0.313259 0.500708)
(-0.0624089 0.353354 0.523293)
(-0.000498336 0.3771 0.499806)
(0.00840463 0.352964 0.482502)
(-0.0316613 0.315778 0.488918)
(-0.0153865 0.293901 0.457709)
(-0.0636166 0.422977 0.569261)
(-0.0492874 0.367056 0.54211)
(-0.049524 0.443538 0.563919)
(-0.0356425 0.437925 0.550281)
(-0.0315846 0.455058 0.5558)
(-0.0624059 0.467417 0.569273)
(0.0123805 0.328167 0.487187)
(-0.0140353 0.347412 0.500272)
(0.0258496 0.317856 0.460535)
(0.0302916 0.276967 0.454046)
(-0.245627 0.538576 0.495748)
(-0.201489 0.505723 0.429162)
(-0.218428 0.54479 0.465166)
(-0.22427 0.53076 0.468536)
(-0.214468 0.510464 0.451845)
(-0.238437 0.622833 0.528872)
(-0.273968 0.64699 0.583598)
(-0.278369 0.632308 0.562323)
(-0.261314 0.623663 0.543059)
(-0.305501 0.664205 0.624672)
(-0.261423 0.647241 0.555571)
(-0.322731 0.624381 0.610206)
(-0.30244 0.596402 0.593374)
(-0.313895 0.653161 0.624272)
(-0.317484 0.638766 0.632164)
(-0.241501 0.702014 0.701706)
(-0.219478 0.685618 0.681997)
(-0.372256 0.825601 0.753776)
(-0.402006 0.822853 0.78061)
(-0.301843 0.721118 0.727126)
(-0.253662 0.721929 0.718971)
(-0.252616 0.751381 0.710809)
(-0.254578 0.699652 0.697012)
(-0.243459 0.700199 0.678907)
(-0.25686 0.755625 0.699018)
(-0.28183 0.72938 0.696491)
(-0.41524 0.853294 0.784861)
(-0.390362 0.838658 0.788946)
(-0.359774 0.803948 0.751025)
(-0.37813 0.830887 0.768641)
(-0.269496 0.704218 0.709116)
(-0.341285 0.795588 0.752385)
(-0.338416 0.823212 0.760472)
(-0.355068 0.798222 0.760925)
(-0.346294 0.79431 0.75581)
(-0.320508 0.762766 0.759096)
(-0.13556 0.685381 0.566169)
(-0.139512 0.711562 0.587507)
(-0.102595 0.725495 0.549499)
(-0.113702 0.717573 0.548664)
(-0.0780833 0.553222 0.42326)
(-0.054601 0.519594 0.378602)
(-0.101334 0.635884 0.512991)
(-0.0887179 0.5754 0.458134)
(-0.117938 0.688827 0.527905)
(-0.119184 0.695082 0.540779)
(-0.139313 0.709988 0.589754)
(-0.0850165 0.65437 0.472547)
(-0.0936579 0.619331 0.447111)
(-0.0760866 0.59224 0.415962)
(-0.0895132 0.578927 0.442024)
(-0.0803581 0.650856 0.473844)
(-0.226609 0.524268 0.36946)
(-0.171111 0.49232 0.33914)
(-0.139921 0.489618 0.324296)
(-0.156656 0.471765 0.327014)
(-0.169833 0.517168 0.34403)
(-0.283991 0.558325 0.466848)
(-0.267677 0.562794 0.465172)
(-0.229523 0.506828 0.41553)
(-0.210406 0.491678 0.386197)
(-0.122297 0.460777 0.299902)
(-0.240245 0.518241 0.401742)
(-0.190884 0.491421 0.356923)
(-0.302573 0.566383 0.492988)
(-0.148953 0.483272 0.321731)
(-0.205964 0.509327 0.391124)
(-0.23345 0.494697 0.398686)
(-0.189208 0.475418 0.353127)
(-0.124077 0.452026 0.292836)
(-0.24838 0.524686 0.422249)
(-0.16584 0.473384 0.330204)
(-0.377942 0.830593 0.812625)
(-0.388485 0.800987 0.800322)
(-0.359125 0.814971 0.803361)
(-0.38507 0.768151 0.777778)
(-0.338754 0.796004 0.758939)
(-0.435785 0.828201 0.798193)
(-0.467227 0.861697 0.799698)
(-0.451722 0.863219 0.810023)
(-0.36784 0.75624 0.664411)
(-0.35806 0.73875 0.645335)
(-0.44504 0.862707 0.770714)
(-0.396715 0.828934 0.770852)
(-0.360237 0.698819 0.614847)
(-0.395071 0.755024 0.671942)
(-0.36869 0.6975 0.611125)
(-0.33981 0.701237 0.59008)
(-0.399652 0.937597 0.851823)
(-0.447895 0.825784 0.754657)
(-0.147186 0.565821 0.398913)
(-0.127189 0.581375 0.381963)
(-0.10963 0.582812 0.360172)
(-0.0766929 0.596113 0.418093)
(-0.0576912 0.552008 0.35204)
(-0.171252 0.610071 0.475724)
(-0.200701 0.638622 0.478189)
(-0.257357 0.645228 0.491069)
(-0.237834 0.624101 0.456308)
(-0.18046 0.629093 0.450734)
(-0.0898636 0.569427 0.391126)
(-0.119705 0.571676 0.422815)
(-0.0760412 0.589684 0.439766)
(-0.0485305 0.54797 0.365818)
(-0.171112 0.63972 0.48123)
(-0.237053 0.66534 0.520787)
(-0.17387 0.618583 0.452364)
(-0.0959732 0.558749 0.360266)
(-0.31735 0.286256 0.333733)
(-0.259844 0.272464 0.2908)
(-0.338365 0.300555 0.319998)
(-0.296577 0.290093 0.29931)
(-0.24563 0.272878 0.281185)
(-0.355602 0.315953 0.364042)
(-0.320648 0.297267 0.343918)
(-0.344841 0.37153 0.324223)
(-0.390606 0.395481 0.3428)
(-0.312145 0.343809 0.312335)
(-0.286282 0.302206 0.299825)
(-0.260716 0.295743 0.290388)
(-0.314897 0.31625 0.334778)
(-0.384399 0.365636 0.376449)
(-0.329197 0.370203 0.323837)
(-0.386627 0.371016 0.360091)
(-0.27461 0.314997 0.295653)
(-0.254657 0.346936 0.611487)
(-0.213263 0.298526 0.541184)
(-0.32281 0.458823 0.662662)
(-0.321077 0.478973 0.666318)
(-0.265024 0.359455 0.607148)
(-0.321882 0.476409 0.67287)
(-0.318481 0.505946 0.678868)
(-0.261203 0.400851 0.634298)
(-0.249707 0.389137 0.62746)
(-0.2107 0.333819 0.574147)
(-0.219653 0.439199 0.636931)
(-0.266291 0.460813 0.650159)
(-0.209504 0.360415 0.588814)
(-0.222683 0.332321 0.587766)
(-0.210272 0.298309 0.545217)
(-0.212275 0.405957 0.638254)
(-0.211322 0.379474 0.609969)
(-0.189298 0.356475 0.584709)
(-0.176522 0.293098 0.524832)
(-0.536605 0.638636 0.664785)
(-0.544118 0.654157 0.660709)
(-0.541747 0.630666 0.656231)
(-0.488732 0.595536 0.621814)
(-0.477027 0.576826 0.605154)
(-0.45804 0.504758 0.580815)
(-0.484063 0.521437 0.615701)
(-0.47012 0.50392 0.599386)
(-0.45056 0.497427 0.558826)
(-0.483439 0.553367 0.627039)
(-0.457363 0.524697 0.581518)
(-0.253271 0.267994 0.277235)
(-0.238661 0.259328 0.272545)
(-0.334424 0.395506 0.623142)
(-0.332606 0.377921 0.596034)
(-0.341404 0.340944 0.607148)
(-0.225224 0.313165 0.581665)
(-0.240467 0.302222 0.58391)
(-0.224195 0.289256 0.560012)
(-0.316777 0.618856 0.662944)
(-0.302835 0.575829 0.649074)
(-0.319914 0.594087 0.682229)
(-0.359785 0.347243 0.47478)
(-0.0806036 0.315433 0.322484)
(-0.0844619 0.304273 0.304933)
(-0.342644 0.350291 0.583404)
(-0.363262 0.380093 0.579429)
(-0.311087 0.332943 0.56988)
(-0.17561 0.3083 0.271329)
(-0.204103 0.302746 0.282987)
(-0.199174 0.304855 0.27815)
(-0.255866 0.318644 0.301204)
(-0.409906 0.514238 0.549733)
(-0.404395 0.481773 0.552977)
(-0.436574 0.506225 0.588853)
(-0.406779 0.488173 0.558055)
(-0.339772 0.615858 0.583909)
(-0.315016 0.595326 0.574582)
(-0.292273 0.346074 0.597856)
(-0.260578 0.301427 0.569204)
(-0.301936 0.367077 0.606415)
(-0.314479 0.380396 0.623615)
(-0.0991228 0.296313 0.473707)
(-0.0771409 0.284191 0.438121)
(-0.31156 0.407389 0.548297)
(-0.318012 0.432366 0.578897)
(-0.0913043 0.303102 0.266435)
(-0.0953951 0.300286 0.263022)
(-0.120063 0.312872 0.262803)
(-0.280846 0.522726 0.653054)
(-0.274178 0.497268 0.628244)
(-0.299792 0.514692 0.659209)
(-0.273212 0.375576 0.407846)
(-0.294684 0.385791 0.428088)
(-0.285668 0.379548 0.422051)
(-0.0284219 0.304349 0.335572)
(-0.0253012 0.295426 0.312478)
(-0.312197 0.57664 0.535415)
(-0.283515 0.548243 0.513285)
(-0.0973763 0.324114 0.250411)
(-0.0998676 0.328379 0.254816)
(-0.133549 0.346281 0.264569)
(-0.353716 0.457738 0.559067)
(-0.324436 0.405646 0.528094)
(-0.332671 0.420774 0.525815)
(-0.186969 0.305315 0.531665)
(-0.244779 0.574832 0.586951)
(-0.265569 0.592285 0.594747)
(-0.252292 0.581791 0.571743)
(-0.264349 0.555628 0.644023)
(-0.229471 0.507489 0.606115)
(-0.23375 0.525668 0.602191)
(-0.247075 0.424165 0.43163)
(-0.25296 0.427765 0.433398)
(0.0273074 0.327534 0.278406)
(0.0210458 0.326652 0.292853)
(0.0110434 0.325462 0.304578)
(0.0111202 0.336991 0.282358)
(-0.0762051 0.380891 0.250002)
(-0.100626 0.385884 0.258278)
(-0.180726 0.433902 0.315348)
(-0.22807 0.467803 0.551468)
(-0.226679 0.460917 0.547909)
(-0.251036 0.481108 0.572224)
(-0.205884 0.571962 0.513324)
(-0.190197 0.55003 0.51447)
(-0.243862 0.348494 0.482209)
(-0.229045 0.337683 0.498584)
(-0.0261796 0.270732 0.450555)
(-0.0646287 0.278904 0.458199)
(-0.0427202 0.277951 0.464764)
(-0.170198 0.449706 0.327151)
(-0.161521 0.451876 0.330009)
(-0.217705 0.401076 0.448212)
(-0.216941 0.376871 0.445021)
(0.0856952 0.353596 0.291883)
(0.0795496 0.364477 0.27021)
(0.075274 0.360952 0.274513)
(-0.1851 0.540985 0.584388)
(-0.138281 0.54591 0.563674)
(-0.121365 0.512678 0.537069)
(-0.21883 0.465151 0.511585)
(-0.228597 0.47423 0.50283)
(-0.174573 0.485451 0.562262)
(-0.168338 0.47092 0.545844)
(-0.0223704 0.283816 0.466197)
(-0.0391966 0.276767 0.45961)
(-0.188301 0.451973 0.413652)
(-0.195902 0.452075 0.428964)
(-0.205802 0.466188 0.441744)
(-0.0785381 0.531099 0.449135)
(-0.0990096 0.548486 0.456524)
(-0.124849 0.559757 0.504601)
(-0.167056 0.476237 0.347633)
(-0.177999 0.472694 0.387291)
(-0.127817 0.456825 0.528417)
(-0.111781 0.429795 0.505224)
(0.0939573 0.31484 0.412116)
(0.129239 0.316055 0.376337)
(0.0994507 0.319812 0.400131)
(-0.047468 0.490908 0.510793)
(-0.0655837 0.524522 0.534643)
(-0.0890333 0.506714 0.541536)
(-0.150789 0.45044 0.471875)
(-0.144948 0.439546 0.4441)
(0.0317591 0.295398 0.461368)
(0.0711315 0.275671 0.438106)
(0.112607 0.443043 0.279463)
(0.114512 0.448644 0.254612)
(-0.126535 0.421661 0.362861)
(-0.14458 0.490236 0.403062)
(-0.0844309 0.446115 0.325538)
(-0.112641 0.481461 0.34445)
(-0.074872 0.456151 0.304868)
(0.0161951 0.425613 0.484608)
(-0.0118732 0.429191 0.504943)
(-0.00651068 0.388363 0.469566)
(-0.0235432 0.398971 0.473154)
(-0.0580109 0.515084 0.337878)
(-0.045805 0.515214 0.329974)
(0.0302855 0.336169 0.463186)
(0.0529077 0.340858 0.465641)
(-0.111446 0.482778 0.448854)
(-0.1027 0.489384 0.400567)
(-0.104543 0.507913 0.407642)
(0.00044762 0.321276 0.402665)
(0.164048 0.458054 0.393288)
(0.150212 0.452609 0.410762)
(0.165307 0.431176 0.399467)
(0.13871 0.586413 0.292929)
(0.183612 0.573676 0.314478)
(0.144146 0.570722 0.255372)
(0.0149997 0.574817 0.298779)
(-0.00329232 0.574569 0.304667)
(-0.026764 0.573967 0.327866)
(0.137184 0.458077 0.507106)
(0.0733133 0.453103 0.53102)
(0.132545 0.4196 0.485996)
(-0.0314881 0.426367 0.287139)
(-0.0368725 0.443276 0.273103)
(-0.010961 0.450729 0.257127)
(-0.0331091 0.606388 0.386917)
(-0.0427395 0.591834 0.403872)
(0.266432 0.550554 0.504904)
(0.318171 0.555763 0.449256)
(0.267889 0.545378 0.491222)
(0.28825 0.554271 0.478439)
(0.287436 0.588854 0.328828)
(0.267818 0.594904 0.31112)
(0.139824 0.527533 0.573451)
(0.140463 0.534555 0.58207)
(0.198582 0.529062 0.585263)
(0.0133657 0.613329 0.531906)
(0.0328858 0.638822 0.352808)
(0.0452625 0.640903 0.324094)
(0.135994 0.583574 0.265675)
(0.173482 0.581644 0.269407)