/*--------------------------------*- C++ -*----------------------------------*\
| =========                 |                                                 |
| \\      /  F ield         | OpenFOAM: The Open Source CFD Toolbox           |
|  \\    /   O peration     | Version:  v1612+                                |
|   \\  /    A nd           | Web:      www.OpenFOAM.com                      |
|    \\/     M anipulation  |                                                 |
\*---------------------------------------------------------------------------*/
FoamFile
{
    version     2.0;
    format      ascii;
    class       volScalarField;
    location    "100";
    object      p;
}
// * * * * * * * * * * * * * * * * * * * * * * * * * * * * * * * * * * * * * //

dimensions      [0 2 -2 0 0 0 0];

internalField   nonuniform List<scalar> 
18732
(
1.02076
0.858786
1.38606
0.891813
0.879898
0.95788
0.874685
1.64909
1.644
1.6319
1.65233
1.66382
1.62365
1.61045
1.63955
1.65757
1.62478
1.63872
1.63312
1.62612
1.61193
1.65992
1.63226
1.65282
1.64184
1.64612
1.63456
1.34986
1.3707
1.38801
1.34947
1.36528
1.42256
1.40541
1.36389
1.39491
1.38002
1.39258
1.46145
1.42425
1.41251
1.38348
1.43705
1.61687
1.61824
1.62648
1.62715
1.65244
1.66107
1.6463
1.66256
1.67275
1.65982
1.67302
0.935873
0.933206
0.92386
0.930879
0.929804
0.916066
0.922703
0.919131
0.920089
0.922825
0.916454
0.928595
0.935843
0.91367
0.916252
0.927362
0.921211
1.51567
1.51969
1.47904
1.49388
1.51643
1.51715
1.48569
1.46456
1.44639
1.49567
1.46464
1.43247
1.48448
1.4603
1.42807
0.855386
0.857124
0.856075
0.86289
0.858042
0.862019
0.86888
0.877059
0.885389
0.851338
0.850518
0.892117
0.84254
0.857467
0.874534
1.47051
1.45876
1.45425
1.43375
1.45189
1.49235
1.47998
1.49397
1.45996
1.47144
1.51048
1.51544
1.48524
1.50003
1.51068
1.52264
1.47709
1.4833
1.47943
1.50358
1.40574
1.39824
1.41225
1.40439
1.40427
1.42184
1.42837
1.43072
1.48045
1.45292
1.44493
1.44739
1.42676
1.4492
1.48036
1.48388
1.47113
1.45826
1.47411
0.885518
0.903199
0.893793
0.90045
0.903652
0.876596
0.894803
0.901677
0.896931
0.911495
0.932612
0.929141
0.934172
0.945714
0.94758
0.94597
0.904015
0.924264
1.615
1.60532
1.59506
1.62069
1.63911
1.64009
1.65483
1.59657
1.61111
1.62483
1.64399
1.6388
1.62817
1.62778
1.62191
1.61156
1.60613
0.852878
0.853682
0.875374
0.870157
0.84517
0.853379
0.864184
0.873661
0.83675
0.844622
0.842737
0.849733
0.8631
0.856661
0.845152
0.868279
0.860516
0.849664
1.00177
1.00008
1.01972
1.02243
1.03131
1.04065
1.03216
1.0466
1.03247
0.999466
1.01413
0.999981
1.04767
1.0273
1.01922
1.02818
1.0169
1.28786
1.27863
1.31187
1.33343
1.32318
1.29349
1.2953
1.29358
1.37181
1.35613
1.37141
1.39151
1.39212
1.32175
1.31893
1.3223
1.3335
1.33426
1.38987
1.38706
1.34001
1.35303
1.22233
1.22566
1.16248
1.1778
1.21257
1.25198
1.26651
1.2519
1.1563
1.20075
1.22535
1.27053
1.24533
1.24185
1.25284
1.24703
1.21435
1.18902
1.24248
0.870093
0.883608
0.863141
0.866827
0.86827
0.885557
0.86862
0.882172
0.85183
0.857358
0.874847
0.861212
0.85803
1.48808
1.50472
1.48057
1.45772
1.51547
1.46897
1.48174
1.44562
1.45956
1.49974
1.51397
1.52269
1.47039
1.51033
1.52717
1.49916
1.52058
0.860428
0.863629
0.853749
0.863716
0.871732
0.866057
0.8688
0.862913
0.869372
0.852498
0.857185
0.875854
0.869275
0.856338
0.849711
0.945036
0.916297
0.943003
0.985482
0.956941
0.991761
0.960694
1.03158
1.03342
1.03357
0.99435
0.990288
1.22811
1.26064
1.29533
1.17423
1.16731
1.2885
1.25155
1.28508
1.24002
1.22112
1.27641
1.18244
1.21793
0.866058
0.863012
0.863256
0.862375
0.8675
0.86742
0.866067
0.864266
0.86636
0.867108
0.864077
0.864736
0.863815
0.864638
0.942255
0.945221
0.962383
0.957969
0.952913
0.96518
0.983147
0.99169
1.00579
1.00493
1.00622
0.991519
1.0237
1.01312
1.0139
1.01157
1.03255
1.02189
1.0381
1.03394
1.01022
1.00469
1.02327
1.03246
1.01326
1.03688
1.03884
1.05049
1.04131
1.0003
1.02575
1.00462
1.0029
0.942834
0.947675
0.994134
1.02244
0.971663
0.973447
1.00163
0.935797
0.934844
0.959622
1.43485
1.43775
1.42673
1.43538
1.45813
1.50768
1.52248
1.46303
1.47876
1.49747
1.51232
1.49158
1.45945
1.47691
1.46967
1.48328
1.51781
1.50597
1.51673
1.5173
0.903268
0.895005
0.906451
0.909287
0.883446
0.894638
0.887869
0.894087
0.882657
0.907355
0.885624
0.90413
1.16526
1.19132
1.21095
1.18422
1.14991
1.13789
1.22033
1.20823
1.16398
1.19261
1.20256
1.21212
1.18458
1.20498
1.22504
1.22425
1.18057
1.19137
1.15849
1.19089
1.1499
1.17206
0.90995
0.925286
0.952601
0.961496
0.94789
0.924387
0.967419
0.967781
0.911833
0.922645
0.963088
0.97163
0.979914
0.975328
0.983528
0.975665
0.982382
0.973517
0.956791
0.971796
0.946595
0.955657
0.911474
0.923886
0.945824
0.940748
0.95485
0.957736
0.954359
0.953635
0.921581
0.931282
0.948787
0.958679
0.958344
0.937109
0.941164
0.965951
0.961835
0.933971
0.944192
0.948448
0.954254
0.95115
0.964702
0.983491
0.944198
0.942431
0.967582
0.978774
0.962527
0.941807
0.949401
0.959631
0.98928
0.968225
0.979665
0.970971
0.958593
0.982459
0.990342
0.971482
0.992708
0.95825
0.918554
0.921331
0.914154
0.911092
0.856261
0.897288
0.876363
0.855251
0.894499
0.900158
0.846632
0.857539
0.901138
0.895122
0.875408
0.896523
0.90113
1.14507
1.15277
1.13523
1.12361
1.12304
1.14393
1.10304
1.12059
1.11846
1.15134
1.15375
1.12101
1.13807
1.1247
1.13462
1.1118
1.11258
0.891775
0.89035
0.901762
0.895149
0.899136
0.893648
0.895305
0.894324
0.896209
0.896396
0.896913
0.894657
0.907509
0.903582
0.899088
0.896918
1.25076
1.23591
1.23155
1.1862
1.19231
1.20396
1.20774
1.13907
1.15243
1.18801
1.17877
1.22244
1.22788
1.15355
1.18221
1.20822
1.15561
1.22052
1.16949
1.18363
1.17908
0.95
0.952044
0.941673
1.01084
0.976918
1.02061
0.997877
0.973447
0.989557
0.998114
0.988735
0.938544
0.912703
0.920391
0.945333
0.97851
1.00621
0.935728
0.921616
0.944392
0.931238
0.865997
0.869871
0.891851
0.899403
0.872006
0.868919
0.88033
0.87178
0.87559
0.891473
0.887378
0.885472
0.884164
0.85751
0.854921
0.882288
0.85052
0.866187
0.887391
0.878642
0.875521
0.891009
0.89606
0.886469
0.883987
0.90211
0.899978
0.882359
0.89281
0.887645
0.875824
0.878278
0.88155
0.882597
0.872026
0.889147
0.885276
0.881393
0.878229
0.878025
0.879698
1.41198
1.34289
1.36704
1.33365
1.33343
1.29331
1.32222
1.32538
1.29483
1.29852
1.34137
1.3069
1.3602
1.31656
0.888696
0.906099
0.899794
0.89258
0.882285
0.922428
0.940805
0.922159
0.893766
0.925265
0.903016
0.911933
0.902292
0.909644
0.931878
0.911602
0.899491
0.921408
0.911846
0.893355
0.893178
0.920419
0.910314
0.89165
0.898165
0.902865
0.89416
0.89612
0.903981
0.913939
0.890022
0.914293
0.910977
1.37384
1.38173
1.35395
1.41696
1.39804
1.36674
1.39439
1.37589
1.37735
1.35205
1.34481
1.37088
1.35606
1.40731
1.4023
1.3545
1.32524
1.33845
1.33988
0.935102
0.953584
0.944658
0.950071
0.912168
0.92853
0.890516
0.906189
0.910481
0.932936
0.933214
0.935296
0.931507
0.92412
0.924464
0.930243
0.935358
0.898886
0.915594
0.918214
0.856365
0.846404
0.86284
0.864622
0.86278
0.865217
0.862917
0.856435
0.847437
0.86212
0.868506
0.861453
0.853865
0.865235
0.865575
0.864153
0.867563
0.865545
0.866233
0.844649
0.85511
0.853628
0.86211
0.862949
0.872511
0.866517
1.08456
1.1272
1.1581
1.17674
1.08679
1.10279
1.04779
1.06976
1.15484
1.12766
1.14664
1.08771
1.10253
1.05129
1.02985
1.08739
1.08416
1.05628
0.908447
0.90514
0.942548
0.926596
0.928768
0.91725
0.913297
0.892426
0.889181
0.914899
0.923144
0.931358
0.895335
0.90297
0.920817
0.928222
0.946285
0.911166
0.952084
0.964228
0.959202
0.944821
0.949904
0.955046
0.966399
0.954549
0.97488
0.971875
0.98916
0.97706
0.963175
0.977327
0.979844
0.956765
0.957807
0.95277
0.961202
0.977828
0.946525
0.942698
1.59738
1.57841
1.60015
1.55661
1.57582
1.56133
1.57499
1.57011
1.56007
1.54784
1.53524
0.868441
0.869393
0.877481
0.896465
0.882349
0.878096
0.883111
0.873895
0.896617
0.881782
0.894187
0.884949
0.90226
0.87508
0.905769
0.899589
0.901356
0.889424
1.00636
0.984244
1.00968
0.984298
0.985185
1.01211
1.03052
1.01802
1.00459
1.02907
0.97121
1.32629
1.29474
1.30071
1.33085
1.38715
1.34134
1.3306
1.29154
1.37746
1.16109
1.12381
1.1124
1.13758
1.17137
1.14077
1.08889
1.15672
1.14808
1.10616
1.11842
1.19291
1.20361
1.13758
1.20352
1.207
1.1227
1.12522
1.13115
1.1305
1.1639
1.1679
1.17637
1.18412
1.19491
1.20256
1.19831
1.13608
1.14149
1.13927
1.16214
1.18103
1.15833
1.17526
1.17301
1.15984
1.18416
1.14958
1.40482
1.41365
1.41701
1.41047
1.50809
1.49351
1.43318
1.42067
1.41946
1.43364
1.43527
1.5214
1.51007
1.50151
1.48261
1.48553
1.39987
1.44852
1.45153
1.49023
1.4606
1.48388
1.47246
1.44913
1.46704
0.907694
0.891749
0.904987
0.904176
0.90451
0.898632
0.88064
0.905215
0.860846
0.877697
0.887678
0.85449
0.880698
0.881514
0.873596
0.874338
1.36006
1.3539
1.36194
1.43097
1.42116
1.42369
1.4
1.406
1.44794
1.44125
1.39716
1.37982
1.42259
1.43993
1.44407
0.925272
0.921137
0.921621
0.922669
0.927478
0.915352
0.920165
0.922118
0.924501
0.92639
0.8806
0.881431
0.880844
0.883364
0.881034
0.880959
0.882869
0.883969
0.875625
0.876198
0.880543
0.882355
0.888172
0.888687
0.890315
1.0824
1.10558
1.09295
1.10252
1.0871
1.11703
1.11222
1.11854
1.08369
1.09535
1.06588
1.06641
1.07847
1.09448
1.05719
1.06607
1.06342
1.05007
1.05235
0.864229
0.857822
0.872323
0.856247
0.820556
0.871543
0.866386
0.876036
0.863946
0.867365
0.87006
0.874565
0.871479
1.04481
1.03642
1.09626
1.09745
0.994931
1.0136
1.06363
1.07097
1.0571
1.06785
1.03696
1.0272
0.999645
0.972638
0.983095
0.917654
0.914767
0.914398
0.911388
0.911428
0.912469
0.90132
0.894601
0.90263
0.905017
0.897699
0.930687
0.934131
0.90843
0.908072
0.917886
0.917845
0.920909
0.928315
0.928873
0.907615
0.913385
0.931237
0.93184
0.934746
0.914077
0.913773
0.919092
0.921926
0.926798
0.918343
1.06795
1.06727
1.05894
1.05682
1.06098
1.06737
1.05363
1.06341
1.04049
1.06421
1.04867
1.0519
1.03246
1.0464
1.02688
1.03743
1.04613
1.03605
1.0137
1.03177
1.03849
0.884642
0.88861
0.888603
0.890371
0.881851
0.885467
0.877582
0.891536
0.883278
0.879306
0.878125
0.879709
0.878056
0.8822
0.884432
0.878844
0.886508
0.874297
1.42537
1.43226
1.37562
1.38211
1.47189
1.39753
1.40039
1.37753
1.36754
1.43345
1.40625
1.41927
1.01216
1.01653
0.96371
1.01617
1.01658
0.965515
0.978814
0.989035
0.977649
0.982586
0.940333
0.962954
0.979654
0.870998
0.853575
0.870661
0.866778
0.884856
0.877417
0.87349
0.873011
0.856108
0.901488
0.881827
0.886209
0.88562
0.875726
0.86404
0.867187
0.8584
0.864459
0.859222
0.874522
0.889942
0.868445
1.64577
1.65791
1.65278
1.64033
1.64672
1.62991
1.64668
1.63478
1.58642
1.59297
1.60424
1.61808
1.6245
1.60308
1.5644
1.56521
1.57786
1.57693
1.573
1.60283
1.05196
1.05337
1.02757
1.06938
1.07091
1.05351
1.06908
1.05608
1.08559
1.071
0.982557
1.00255
0.994295
1.00627
0.9777
1.00322
0.992174
0.984518
1.02063
1.0161
0.991073
0.981528
1.01302
1.02919
1.02301
0.97564
1.00224
0.995924
1.0066
1.02623
1.02564
0.995777
1.0055
0.985147
0.977394
0.985106
0.981286
0.973606
0.972749
0.994687
0.992287
0.991212
0.99399
0.979557
0.967569
0.975363
0.98369
0.99433
0.98736
0.970262
0.974743
0.967066
0.995098
0.981347
0.979088
0.985216
1.02234
1.05346
1.01712
1.00032
0.98217
1.09578
1.06798
1.00073
0.961074
1.01935
1.00199
1.08528
1.05863
1.07261
0.957651
0.97858
1.00373
1.01071
1.04146
1.05109
0.995488
1.03188
0.974054
1.32609
1.3519
1.35491
1.36663
1.3513
1.39079
1.32665
1.31288
1.37374
1.38962
1.36303
1.38303
1.35716
1.37736
1.35956
1.33383
1.38929
1.40347
1.40087
1.40982
1.38267
1.32177
1.39087
1.36766
1.35515
1.36166
1.34175
1.27973
1.3113
1.28887
1.28314
1.52264
1.52497
1.60176
1.58423
1.6006
1.61504
1.55156
1.52577
1.52239
1.60543
1.61174
1.58336
1.58267
1.58248
1.58432
1.60102
1.56249
1.58258
1.43054
1.41125
1.44488
1.43037
1.38472
1.36427
1.43543
1.42873
1.4398
1.36445
1.42276
1.40182
1.44289
1.41836
1.08254
1.0646
1.06566
1.08541
1.04697
1.11765
1.10182
1.08081
1.00338
1.03276
1.12963
1.11468
1.04476
1.07362
1.1366
1.09897
0.951098
0.959721
0.938579
0.977361
0.915229
0.902415
0.898245
0.953629
0.931722
0.902602
0.889007
0.951585
0.903448
0.907841
1.1313
1.17457
1.10013
1.0919
1.17972
1.16006
1.11319
1.13684
1.10122
1.1097
1.13096
1.09201
1.08236
1.1078
1.12231
1.18123
1.11822
1.16012
1.44129
1.43613
1.42883
1.43459
1.43437
1.39762
1.39764
1.38762
1.38688
1.35932
1.37737
1.37131
1.34632
0.910634
0.921426
0.96488
0.865645
0.996614
0.981762
0.93224
0.939392
0.927344
0.89231
0.897371
1.02811
1.04729
0.91922
0.911374
1.08878
1.08383
0.861881
0.862846
0.860323
0.863024
0.850555
0.853432
1.04391
1.01082
0.995662
1.09149
1.07036
1.09068
1.24512
1.21197
0.882916
0.893039
0.853125
0.853341
0.864786
1.29103
1.01058
0.952187
1.15993
1.12605
1.089
1.04168
0.924091
0.909269
0.90054
0.885424
1.43594
1.41989
1.23808
1.23526
1.21307
0.86511
0.864647
1.47519
1.48263
1.49883
1.38045
1.38922
1.60666
1.60588
0.904271
0.922906
0.888136
1.40836
1.43131
1.39719
1.60497
1.60344
1.5854
1.61357
0.857253
0.860828
0.857051
1.15015
1.13046
1.15082
1.3496
1.35156
1.45981
1.45864
1.57796
1.58343
1.59342
0.862327
0.861732
0.860481
1.31429
1.31792
1.56332
1.54553
1.56872
1.56381
0.889847
0.896195
0.911943
1.24251
1.24727
1.67154
1.66719
1.27063
1.26929
1.28778
0.93159
0.920583
0.908467
1.63117
1.64687
1.64691
1.64507
0.863886
0.860391
0.840929
0.848087
0.843227
0.871259
1.14796
1.13688
1.15675
0.855151
0.866455
0.863714
0.864291
0.861653
0.85021
1.17711
1.17434
0.932471
0.948086
0.920997
0.909991
1.13472
1.13468
1.08298
1.07802
0.866465
0.866176
0.866094
0.938069
0.892328
0.931981
0.901495
1.08153
1.10864
1.10522
0.855396
0.855218
0.894048
0.874092
0.88545
1.04333
1.04553
1.09208
1.09311
0.958918
0.953529
0.852519
0.868235
0.85751
0.869315
0.867249
0.870162
0.985376
0.994983
0.844255
0.852232
0.84929
1.02848
1.02997
1.0468
1.04674
0.877797
0.876947
1.03743
1.03664
1.0159
1.01328
1.00424
0.93902
0.925192
0.925828
1.02501
1.02513
0.868796
0.852943
0.86382
0.923231
0.865424
0.862144
0.889698
0.887303
0.987428
0.985727
0.875786
0.891115
0.888405
0.994548
1.00693
1.00619
1.01742
1.0178
1.0105
1.00386
0.886264
0.887357
0.904757
0.901248
0.925834
0.92097
0.904785
0.973442
0.972447
0.907133
0.907618
0.966707
0.976038
0.976919
0.96239
0.961956
0.897796
0.889082
0.946722
0.951201
0.952928
0.892465
0.889347
0.898002
0.889506
0.913839
0.92198
0.921165
0.922564
0.921028
0.917099
0.888599
0.879766
0.925357
0.9272
0.942571
0.940987
0.935532
1.64751
1.66056
1.64064
1.65068
1.63863
1.64439
1.62713
1.63175
1.62248
1.61787
0.934725
0.925097
0.933513
0.934983
0.925282
0.928093
0.921827
0.920079
0.913573
0.919079
0.923894
0.919439
0.915137
0.919326
0.91601
0.902407
0.937059
0.951162
0.941831
0.935544
0.942597
0.951029
0.944528
0.954332
0.944884
0.946848
0.952489
0.943174
0.940806
0.938212
0.933715
0.926439
0.939595
0.938278
0.93841
0.939198
0.939342
0.938919
0.920393
0.916781
0.916053
0.948907
0.949548
0.942437
0.951174
0.933819
0.934704
0.945301
0.942703
0.942516
0.912785
0.905334
0.9087
0.894061
0.894681
0.914743
0.913039
0.913335
0.907824
0.887261
0.897669
0.884991
0.894302
0.896328
0.891545
0.912487
0.907635
0.919486
0.918089
0.914266
0.913812
0.915723
0.891167
0.891874
0.889609
0.889012
0.89318
0.892277
0.898037
0.901617
0.882831
0.908552
0.90001
0.907748
0.895347
0.903824
0.884391
0.889946
0.951471
0.946045
0.937584
0.934251
0.935666
0.940035
0.923289
0.92601
0.950431
0.937901
0.953709
0.952554
0.937587
0.929591
0.886296
0.888615
0.888948
0.885457
0.880886
0.950074
0.961225
0.94916
0.96257
0.973283
0.961761
0.955568
0.954286
0.961904
0.963119
0.956147
0.874988
0.883148
0.876318
0.880247
0.877598
0.882896
0.912418
0.913198
0.907634
0.896402
0.912179
0.899288
0.887742
0.873436
0.880634
0.898545
0.895427
0.900606
0.890792
0.894112
0.896324
0.883965
0.893833
0.893946
0.970085
0.961236
0.965737
0.964384
0.977155
0.965234
0.966481
0.97531
0.966866
0.951403
0.957475
0.955609
0.95184
0.946119
0.945965
0.944734
0.958919
0.959467
0.94993
0.954781
0.964817
0.957173
0.951709
0.963458
0.964226
1.00058
0.986765
0.998803
0.898059
0.892582
0.899307
0.898621
0.902224
0.907207
0.916276
0.91018
0.911003
0.906025
0.914366
0.909343
0.915693
0.916423
0.996188
0.994515
0.9805
0.968228
0.986173
0.987285
0.980137
0.984506
0.980515
0.976275
0.973855
0.965894
0.94662
0.956832
0.951642
0.944513
0.960099
0.946862
0.942942
0.935931
0.943414
0.946845
0.949523
0.95005
0.937226
0.938997
0.946838
0.884097
0.886306
0.884594
0.880695
0.880968
0.874779
0.877561
0.877416
0.876416
0.901763
0.900096
0.900608
0.901248
0.896731
0.903345
0.890913
0.890685
0.891654
0.891355
0.889623
0.884246
0.881433
0.883733
0.881929
0.88187
0.883057
0.880919
0.881993
0.881801
0.876995
0.870756
0.887502
0.976912
0.983581
0.995181
0.995057
0.981284
0.9691
0.973122
0.981124
0.98063
0.894055
0.897129
0.902858
0.892053
0.894911
0.891346
0.894251
0.892861
0.879916
0.874862
0.867851
0.862012
0.887986
0.881414
0.886745
0.903532
0.893196
0.890949
0.853414
0.872945
0.890943
0.880384
0.888032
0.874826
0.878375
0.869665
0.873242
0.859398
0.860633
0.853427
0.857926
0.852766
0.866921
0.858005
0.860642
0.935849
0.915072
0.90417
0.932357
0.913208
0.94198
0.886146
0.875237
0.879222
0.876338
0.875502
0.87476
0.860558
0.871238
0.852332
0.851964
0.871501
0.862415
0.849685
0.854427
0.862504
0.858544
0.848901
0.848586
0.856222
0.849327
1.07943
1.0673
1.06742
1.05204
1.04765
1.03052
1.03474
1.02733
1.03791
1.03627
1.03993
1.0534
1.05058
1.03394
1.03239
1.03927
1.03173
0.987997
0.985726
0.998336
1.00606
1.00982
1.00415
1.01497
1.0129
1.01565
1.01115
1.00834
1.00133
1.00651
0.998179
0.985448
0.966154
0.995503
0.961211
0.948512
0.962792
0.933731
0.920702
0.939347
0.948748
0.952396
1.05271
1.03817
1.03592
1.01651
1.02201
1.02549
1.00732
1.01945
1.01143
1.00141
1.01808
1.02255
1.00458
1.0406
1.02875
1.01449
1.00901
1.0155
1.01086
0.986056
1.0132
1.01673
1.07841
1.0614
1.07772
1.07416
1.06241
1.0669
1.05638
1.04064
1.052
1.0724
1.07094
1.05574
1.04307
1.07204
0.87368
0.87437
0.873997
0.873847
0.869616
0.871815
0.873952
0.87085
0.87202
0.872361
1.03468
1.04802
1.0814
1.07927
1.06773
1.07578
1.06738
1.04969
0.86985
0.870109
0.858138
0.859714
0.861053
0.855468
0.857457
0.845565
0.840984
0.842802
0.848467
0.851313
0.850384
0.852912
0.941099
0.95699
0.917155
0.896002
0.916373
0.90809
0.976532
0.964265
0.914414
1.01944
1.03525
1.00605
0.976033
0.995299
0.97837
0.928524
0.867785
0.86501
0.859648
0.874613
0.863795
0.869032
0.878587
0.875336
0.875535
0.875936
0.879966
0.867407
0.874483
0.869851
0.87326
0.853906
0.868486
0.862428
0.872993
0.864412
0.87353
0.846652
0.859135
0.855778
0.863201
0.874615
0.874557
0.863176
0.873671
0.872519
0.85919
0.852935
0.859952
0.869069
1.12751
1.131
1.11059
1.10053
1.08393
1.11852
1.10013
1.08786
1.09783
1.0863
1.09895
1.11584
1.11734
1.0983
1.08467
1.08461
1.04451
1.05277
1.02724
1.01125
1.03927
1.03467
1.0019
0.985169
1.14091
1.15123
1.13555
1.14626
1.10363
1.08368
1.11921
1.12025
1.10645
1.08796
1.07988
1.08051
1.10313
1.11174
1.11303
1.10311
1.14929
1.13194
1.11135
1.11066
1.12912
1.1316
1.1141
1.11517
1.10793
0.999852
0.959472
0.945923
0.862263
0.885102
0.893891
0.899827
0.866373
0.850149
0.898555
0.897134
1.00921
0.948209
0.953023
0.994927
0.96974
0.863894
0.864092
0.866397
0.864018
0.863656
0.866277
0.865997
0.866388
0.867067
0.861739
0.864956
1.1216
1.15171
1.12994
1.16195
1.10241
1.0794
1.04861
1.06443
1.05317
1.11196
1.10919
1.0761
1.07128
1.06092
1.05632
1.06723
1.10319
1.08569
1.09807
1.11972
1.10756
1.11354
1.14283
1.12969
1.14989
1.12408
1.11886
1.09724
1.06203
1.03428
1.0409
0.934047
1.0888
1.08903
1.06013
1.05826
0.992824
0.944914
0.995335
0.988352
1.00615
1.23329
1.20644
1.20717
1.14081
1.13122
1.14761
1.1736
1.17408
1.18395
1.16125
1.1438
1.16292
1.18242
1.17949
1.15847
1.14187
1.14298
1.15453
1.12915
1.12924
1.09964
1.12091
1.11354
1.11772
1.0973
1.08754
1.10211
1.09052
1.08573
1.21017
1.19178
1.15423
1.19027
1.173
1.16566
1.15134
1.16629
1.15149
1.19909
1.21299
1.19932
1.17694
1.17918
1.20928
1.16297
1.18429
0.847263
0.872657
0.852651
0.86214
0.864868
0.865448
0.858166
0.868019
0.853117
0.867212
0.908375
0.872909
0.885341
0.85287
0.859614
0.859323
0.846611
0.84854
0.853802
0.857684
0.866618
0.859994
0.865916
0.866029
0.858621
0.86643
0.868987
0.86652
0.87116
0.860767
0.866063
0.861127
0.875831
1.23923
1.23239
1.24533
1.2091
1.18464
1.14612
1.19029
1.14775
1.19784
1.18979
1.1508
1.19208
1.06916
1.11165
1.09964
1.07644
0.862089
0.858024
0.859242
0.861898
0.859563
0.864024
0.865732
0.851813
0.854538
0.866481
0.850887
0.864265
0.86288
0.858486
0.85237
0.851381
0.868478
0.853778
0.875634
0.846221
0.848296
0.846619
0.858729
0.860559
0.850233
0.86185
0.862099
0.859023
0.862199
1.6588
1.6475
1.66475
1.57055
1.56338
1.58697
1.63564
1.63728
1.6245
1.62257
1.59916
1.64289
1.62587
1.61595
1.60496
1.6224
1.62437
1.09389
1.07083
1.32218
1.30309
1.27981
1.30329
1.28395
1.27874
1.28236
1.31651
1.31357
1.28898
1.33285
1.2587
1.28612
1.27812
1.29375
1.30373
1.30253
1.29806
1.28882
1.26776
1.2034
1.25109
1.23776
1.23195
1.19751
1.25782
1.25779
1.24117
1.235
1.22547
1.2049
1.25453
1.21067
1.24662
1.24772
1.24007
1.24376
1.24222
1.64326
1.65413
1.65526
1.62964
1.64298
1.66957
1.66516
1.66218
1.65206
1.65713
1.65024
1.67624
1.674
1.66799
1.66105
1.66369
1.65488
1.66881
1.64406
1.31831
1.29889
1.29754
1.31374
1.31691
1.31745
1.29603
1.27601
1.26371
1.26224
1.29731
1.28724
1.30089
1.29772
1.26604
1.26481
1.21484
1.21757
1.24907
1.19853
1.2314
1.24213
1.26052
1.26472
0.995235
0.957186
0.943272
1.02808
0.88564
0.88565
0.874837
0.889341
0.934229
0.864943
0.865696
0.956647
0.975851
0.969448
0.960111
0.946795
1.0066
1.01886
0.998407
0.886442
0.906607
0.886758
0.926014
0.929373
0.932145
0.878414
0.870907
0.945436
0.943314
0.872963
0.878095
0.869036
0.865511
1.50253
1.41604
1.44908
1.58192
1.56772
1.59474
1.60255
1.57454
1.55676
1.59843
1.60103
1.57371
1.60053
1.6149
1.56639
1.56844
1.5821
1.57928
1.36594
1.36626
1.35594
1.40805
1.3875
1.36025
1.38235
1.36624
1.27522
1.21129
1.28884
1.24547
1.22299
0.852294
0.856039
0.856516
0.85901
0.861653
0.858891
0.858366
0.861131
0.859087
0.858747
0.857394
0.857966
0.857582
0.861986
0.862374
1.52803
1.53724
1.56878
1.56038
1.53124
1.56241
1.55746
1.60751
1.62487
1.55763
1.56984
1.59822
1.60593
1.59157
1.59391
1.58038
1.5243
1.53609
1.55153
1.55614
1.5448
1.52202
1.52472
1.53414
1.4454
1.44604
1.5295
1.5264
1.53181
1.54374
1.36197
1.3792
1.38157
1.42222
1.41101
1.44913
1.41965
1.4156
1.3828
1.50021
1.49957
1.50786
1.50567
1.4615
1.44353
1.46084
1.47964
1.45825
1.47416
1.477
1.45652
1.37648
1.39463
1.37651
1.35279
1.39349
1.3909
1.16381
1.18846
1.18642
1.16129
1.12858
1.1062
1.10856
1.07863
1.06921
1.04089
1.00015
1.08763
1.10045
1.05249
1.02467
0.856303
0.851452
0.860225
0.851421
0.853543
0.858784
0.852634
0.849164
0.862357
0.856419
0.858933
0.859568
0.858693
0.860959
0.85792
0.858978
0.861833
0.858708
0.856387
0.863299
0.860436
0.860228
1.57795
1.58223
1.56126
1.58866
1.60609
1.60762
1.62516
1.60663
1.5789
1.56798
1.58966
1.57584
1.51635
1.54322
1.53651
1.5425
1.6253
1.60036
1.60021
1.64443
1.63423
1.62794
1.58285
1.57301
1.56549
1.58271
1.56654
1.56726
1.59194
1.58349
1.60697
1.61635
1.60474
1.61996
1.59227
1.59187
1.60595
1.60369
1.54485
1.57043
1.55
1.5765
1.57767
1.56529
1.55247
1.58401
1.56716
1.56875
1.58251
1.58037
1.21761
1.23566
1.26696
1.29177
1.39891
1.42241
1.4981
1.51026
1.50899
1.4821
1.46955
1.50578
1.46449
1.45842
0.890341
0.875823
0.854442
0.891763
0.950879
0.9689
0.930344
0.986598
1.01822
0.925753
0.930937
1.57972
1.59055
1.58225
1.59948
1.58725
1.63267
1.64205
1.61272
1.59784
1.27467
1.2854
1.31551
1.36225
1.34884
1.38754
1.38681
1.37485
1.40892
1.43726
1.44481
1.248
1.30318
1.32289
1.29473
1.27817
1.28372
1.32821
1.3382
1.52862
1.54592
1.53086
1.44438
1.43332
1.41439
1.431
1.4546
1.42779
1.45498
1.46757
1.45559
1.48308
1.4493
1.46678
1.45727
0.868626
0.870942
0.872656
0.862874
0.857948
0.867892
1.32824
1.33001
1.35153
1.35206
1.31379
1.30335
1.26973
1.09533
1.1273
1.09985
1.16929
1.18346
1.12587
1.15911
1.10765
1.07876
1.27866
1.30176
1.25518
1.2448
1.2837
1.31924
1.25962
1.32308
1.30244
1.3399
1.29639
1.26974
1.31971
1.36349
1.38186
1.45105
1.437
1.4275
1.47937
1.46662
1.49626
1.46121
1.44569
1.50534
1.47673
1.49124
1.50726
1.52389
1.48445
1.49005
1.45994
1.43975
1.45915
0.87816
0.865481
0.892777
0.85935
0.893451
0.933872
0.931489
0.965051
1.02617
0.939439
0.916024
0.920944
0.924801
1.0195
0.950181
1.0123
0.992001
1.03714
0.97926
0.973997
1.03879
1.00465
1.04974
1.05944
1.0177
1.02674
1.01827
1.09188
1.07512
1.30363
1.28009
1.28787
1.24227
1.21048
1.19329
1.24903
1.15848
1.21255
1.23332
1.0798
1.08768
1.13613
1.10643
0.965463
0.965898
0.937525
0.931028
0.989951
1.1954
1.21615
1.22278
1.26244
1.36408
1.36492
1.33683
1.34856
1.33844
1.30484
1.30301
1.29354
1.27944
0.905479
0.902168
0.875611
0.898747
0.950887
1.22982
1.22619
1.18452
1.07781
1.12333
1.0992
1.13805
1.07911
1.24272
1.20986
1.14191
1.18496
0.970024
0.993102
1.00044
0.992604
1.05439
1.26163
1.21997
1.26494
1.16292
1.14654
1.12897
1.12479
1.18815
1.17272
1.11062
1.13234
1.02251
1.05127
1.06547
1.05593
1.05254
0.954243
1.05763
1.11151
1.11978
1.12981
1.20789
1.15264
1.09386
1.08225
1.17987
1.20445
1.24657
1.12094
1.1254
0.859493
0.863378
0.874582
0.907592
0.886122
0.856588
0.877449
1.0043
1.01057
1.07059
1.13202
1.03578
1.07008
1.03829
1.03024
1.1192
1.07246
1.02272
1.07051
0.924174
0.942897
0.917158
0.955859
1.0278
1.02775
1.02062
1.01396
1.04227
0.979659
0.96497
1.07109
1.02696
0.889605
0.873834
0.913745
0.884937
0.888916
0.885971
1.29294
1.26795
1.22693
1.22655
1.15775
1.16283
1.14931
1.16652
1.19858
1.21405
1.03079
1.11689
1.14467
1.16997
1.03946
1.02734
1.04039
1.0689
0.989686
0.956288
0.956982
0.955535
0.949692
0.999539
0.941486
0.952516
1.00889
0.991077
0.986579
0.968321
0.8821
0.925616
0.942963
0.952113
0.919795
0.957275
1.40365
1.42932
1.43068
1.40993
1.41508
1.37743
1.36572
1.43679
1.43309
1.35349
1.33602
1.11541
1.10202
1.14913
1.14659
1.05322
1.06588
1.17588
1.14753
1.4461
1.43013
1.42371
1.4112
1.17631
1.13206
1.14695
1.19459
1.22937
1.26914
1.25256
1.18271
1.19725
1.36873
1.3239
1.31809
1.33675
1.25875
1.26692
1.31807
1.29679
1.32011
1.3569
1.36653
1.31891
1.37937
1.39162
1.15885
1.27215
1.26885
1.19814
1.26475
1.16615
1.19034
1.15334
1.20633
1.17536
0.869687
0.865535
0.870898
0.869958
0.869247
0.887893
0.884775
0.867228
0.87608
1.49454
1.50224
1.50353
1.46828
1.52219
1.52642
1.49604
1.4417
1.45436
1.43425
1.42504
1.46008
1.49833
1.43312
1.48461
1.43821
1.38834
1.40529
1.38105
1.37111
1.3704
1.3377
1.40843
1.40455
1.29779
1.33427
1.34332
1.31714
1.33323
1.34785
1.35981
1.33257
1.31405
1.32537
1.271
1.28938
1.26716
1.30945
1.30395
1.31291
1.28719
1.32988
1.24501
1.2812
1.29489
1.28761
1.25726
1.33256
1.3405
1.41732
1.40673
1.4386
1.42402
1.45519
1.44313
1.44062
1.4556
1.40486
1.40088
1.40614
1.38855
1.43137
1.41696
1.43362
1.42768
1.47166
1.44864
1.47294
1.4781
1.49054
1.3657
1.40741
1.37544
1.34933
1.39869
1.39381
1.39863
1.42597
1.42201
1.54129
1.54242
1.54478
1.53271
1.55674
1.53623
1.53499
1.56367
1.55298
1.55155
1.53169
1.54645
1.52656
1.54283
1.5378
1.54176
1.55975
1.55303
1.60999
1.63887
1.62314
1.6375
1.64866
1.63452
1.61885
1.60603
1.55651
1.55391
1.55652
1.55027
1.52963
1.56129
1.26721
1.26311
1.24519
1.22126
1.35404
1.33852
1.37665
1.38046
1.37349
1.37042
1.42847
1.43651
1.44134
1.41909
1.43817
1.44377
1.4364
1.42041
1.52451
1.49746
1.5193
1.37018
1.39535
1.40023
1.35491
1.3846
1.38878
1.4087
1.41913
1.41469
1.40082
1.39545
1.33761
1.3193
1.36832
1.34606
1.36724
1.36765
1.36225
1.34279
1.32944
1.32241
1.30448
1.35036
1.3697
1.369
1.41929
1.42995
1.40945
1.38666
1.43254
1.43248
1.38548
1.41824
1.41062
1.51338
1.52369
1.52016
1.5042
1.4874
1.46919
1.50714
1.485
1.45969
1.46538
1.437
1.41638
1.43073
1.43153
1.4099
1.39069
1.4092
1.50331
1.50448
1.52134
1.52306
1.49568
1.50057
1.45061
1.48019
1.46149
1.50484
1.5001
1.44499
1.26147
1.33426
1.28116
1.32447
1.28966
1.32805
1.3144
1.30858
1.34998
1.34865
1.34962
1.32328
1.3389
1.35247
1.27357
1.26964
1.23649
1.29747
1.18305
1.30152
1.30731
1.30584
1.23192
1.19874
1.18838
1.57236
1.60743
1.59232
1.58291
1.61538
1.63442
1.6257
1.60997
1.58228
1.45087
1.46563
1.43377
1.41267
1.45857
1.48365
1.48291
1.4311
1.57572
1.54758
1.55783
1.5523
1.52584
1.65254
1.63702
1.65383
1.63327
1.63917
1.64816
1.64977
1.6632
1.64867
1.65098
1.6414
1.6398
1.17399
1.18031
1.21985
1.19774
1.19256
1.22171
1.22231
1.2248
1.22244
1.19313
1.20068
1.22393
0.864661
0.848206
0.855954
0.857995
0.847246
0.854007
0.854295
0.849041
0.849047
0.866266
0.884599
0.909594
0.857672
0.863791
0.860216
0.855789
0.886548
0.865609
1.02826
1.05981
1.06435
1.09945
1.06488
1.06519
1.07346
1.19155
1.18857
1.19532
1.27538
1.29633
1.28558
1.27353
1.23933
1.27273
1.27195
1.2505
1.24746
1.23065
1.29232
1.2724
0.868229
0.873386
0.863788
0.864805
0.882366
0.873222
0.874777
0.86255
0.860724
0.852021
0.861048
0.863288
0.860984
0.866078
0.873122
0.868479
0.862934
0.861076
0.865542
0.865417
0.868158
0.864556
0.864974
0.8621
0.864418
0.86525
0.867969
0.868613
1.04822
1.07532
1.0703
1.06447
1.05544
1.047
1.07009
1.07141
1.07268
1.0757
1.04158
1.05292
0.841623
0.8651
0.85949
0.837798
0.85085
0.856399
0.860526
0.85844
0.857273
0.859712
0.857387
1.01542
1.01493
1.04694
1.03484
1.03328
1.04058
1.04548
1.04406
1.04536
1.04505
0.880633
0.892922
0.875344
0.857791
0.860417
0.871115
0.90624
0.895463
0.895409
0.890129
0.886139
0.876838
0.875638
0.879432
0.877636
0.856532
0.877916
0.873395
0.990792
0.999738
0.980662
0.97397
0.970078
0.969239
0.991332
0.992958
0.982061
0.973202
0.87954
0.879263
0.873827
0.869194
0.874042
0.858779
0.86996
0.86796
0.877892
0.87993
0.865784
0.87477
0.878129
0.876421
0.896589
0.908764
0.880535
0.902794
0.899829
0.896674
0.902195
0.903183
0.926584
0.931403
0.933288
0.931966
0.942103
0.943891
0.944214
0.934987
0.937031
0.959743
0.961782
0.95182
0.960128
0.957748
0.951094
0.944508
0.941952
0.956571
0.950559
0.954786
0.963756
0.959802
0.899163
0.893814
0.892185
0.877663
0.891897
0.891778
0.931544
0.922435
0.927461
0.930444
0.928591
0.934481
0.92872
0.933196
0.939366
0.934968
0.942873
0.933221
0.941926
0.935526
0.93042
0.937557
0.922695
0.920404
0.919467
0.919386
1.6566
1.63406
1.64034
1.64529
1.63892
1.66027
1.63414
1.65149
1.6382
1.6569
1.65212
1.66723
1.64383
1.59438