/*--------------------------------*- C++ -*----------------------------------*\
| =========                 |                                                 |
| \\      /  F ield         | OpenFOAM: The Open Source CFD Toolbox           |
|  \\    /   O peration     | Version:  v1612+                                |
|   \\  /    A nd           | Web:      www.OpenFOAM.com                      |
|    \\/     M anipulation  |                                                 |
\*---------------------------------------------------------------------------*/
FoamFile
{
    version     2.0;
    format      ascii;
    class       volVectorField;
    location    "118";
    object      wallShearStress;
}
// * * * * * * * * * * * * * * * * * * * * * * * * * * * * * * * * * * * * * //

dimensions      [0 2 -2 0 0 0 0];

internalField   uniform (0 0 0);

boundaryField
{
    WALL
    {
        type            calculated;
        value           nonuniform List<vector> 
1513
(
(-0.00326245 -0.0147885 0.0041404)
(-0.002955 -0.0139664 0.00402025)
(-0.00310807 -0.0146766 0.00402157)
(-0.00312356 -0.0143582 0.00396903)
(-0.00327237 -0.0156192 0.00442742)
(-0.00358193 -0.0156509 0.00417675)
(-0.00347858 -0.0153211 0.00419817)
(-0.00333071 -0.0150452 0.00420943)
(-0.00331041 -0.014538 0.00416348)
(-0.00326622 -0.0146857 0.00408663)
(-0.00329052 -0.0146195 0.00393904)
(-0.00321967 -0.0146208 0.00416327)
(-0.00310575 -0.0141417 0.00390599)
(-0.00316678 -0.0144969 0.00400293)
(-0.00336011 -0.0154404 0.0044615)
(-0.00337723 -0.0151329 0.00416175)
(-0.00355957 -0.0147908 0.00393965)
(-0.00314641 -0.0145448 0.00397367)
(-0.00318878 -0.0146146 0.00388491)
(-0.00333215 -0.0148127 0.00402932)
(-0.00326329 -0.0147071 0.0041659)
(-0.00300702 -0.014032 0.00370984)
(-0.00332248 -0.0144846 0.00393364)
(-0.00307195 -0.0144034 0.0039856)
(-0.0032133 -0.0143509 0.00390629)
(-0.00317827 -0.0143843 0.00392837)
(-0.00327216 -0.0144613 0.00392216)
(-0.00300333 -0.0140522 0.00359836)
(-0.0032982 -0.0148648 0.00389989)
(-0.00317652 -0.014481 0.00400999)
(-0.00329133 -0.0147039 0.00423257)
(-0.00324072 -0.0143277 0.00401953)
(-0.00339069 -0.015165 0.00428661)
(-0.00332872 -0.0148398 0.00396855)
(-0.00320382 -0.0149152 0.00404174)
(-0.00357056 -0.0146269 0.00401473)
(-0.0032328 -0.0149046 0.00406786)
(-0.00308949 -0.013858 0.00395675)
(-0.00321442 -0.0139949 0.00423042)
(-0.00299703 -0.0135328 0.00390724)
(-0.00297217 -0.0138484 0.00389011)
(-0.00330199 -0.0139206 0.00368028)
(-0.00308271 -0.0136903 0.0035352)
(-0.00269964 -0.0142308 0.00396987)
(-0.00293758 -0.0143974 0.00395441)
(-0.00310531 -0.0144184 0.00402261)
(-0.00327704 -0.0142365 0.00388117)
(-0.00331083 -0.0148862 0.00391766)
(-0.00341342 -0.0145261 0.00374286)
(-0.00343859 -0.0149371 0.00393436)
(-0.003331 -0.0153048 0.00410986)
(-0.00324178 -0.0147972 0.00402772)
(-0.00320228 -0.0140477 0.00374477)
(-0.00309815 -0.0141094 0.00382597)
(-0.00336682 -0.0153543 0.00423135)
(-0.00334156 -0.0149097 0.00408516)
(-0.00332502 -0.0153313 0.00432911)
(-0.00339532 -0.0148109 0.00397243)
(-0.00308083 -0.0149066 0.00403545)
(-0.00359045 -0.0151601 0.00426562)
(-0.00324098 -0.015103 0.00435777)
(-0.00350463 -0.015152 0.00411002)
(-0.00335583 -0.0152369 0.00422603)
(-0.00372938 -0.015322 0.00403368)
(-0.00332057 -0.0153312 0.00423834)
(-0.00344591 -0.0152164 0.00436777)
(-0.00333802 -0.0146826 0.00401547)
(-0.00331849 -0.014422 0.0039683)
(-0.00315296 -0.0144815 0.0041796)
(-0.0032508 -0.014472 0.00397617)
(-0.00332355 -0.0147296 0.00412887)
(-0.00306672 -0.0143979 0.00427716)
(-0.00305859 -0.0140876 0.00401766)
(-0.00296814 -0.0141701 0.00411479)
(-0.00319612 -0.0138842 0.00389316)
(-0.00302405 -0.0147826 0.00409301)
(-0.00316764 -0.0144112 0.00390931)
(-0.00295266 -0.0148305 0.00407368)
(-0.00353813 -0.0150966 0.00450455)
(-0.00303002 -0.0143202 0.00396025)
(-0.00338416 -0.0144893 0.0040867)
(-0.00331039 -0.014394 0.00393821)
(-0.00322303 -0.0144182 0.00388838)
(-0.00311088 -0.013905 0.00387561)
(-0.00337754 -0.0147404 0.00411226)
(-0.00345692 -0.0143318 0.00390802)
(-0.00335583 -0.0145201 0.00397694)
(-0.00325854 -0.0140962 0.00394301)
(-0.00314632 -0.0146327 0.00401333)
(-0.00302011 -0.0152423 0.00424272)
(-0.00338914 -0.0149667 0.00422654)
(-0.00312721 -0.014762 0.00411008)
(-0.00323168 -0.0137049 0.00376851)
(-0.00348892 -0.0152301 0.00419196)
(-0.00311376 -0.013939 0.0038604)
(-0.00391017 -0.0143548 0.00415706)
(-0.00320417 -0.0141332 0.00381496)
(-0.00306445 -0.0140666 0.00393124)
(-0.00328083 -0.0137846 0.0037452)
(-0.00312125 -0.0138322 0.00378465)
(-0.00343945 -0.0142951 0.00377454)
(-0.003206 -0.0141332 0.00385853)
(-0.00305073 -0.0137807 0.00382036)
(-0.00310793 -0.0142005 0.00397237)
(-0.00312722 -0.0142854 0.004038)
(-0.00300031 -0.0140285 0.0040024)
(-0.00302982 -0.0141083 0.00399554)
(-0.0032013 -0.0145859 0.00416154)
(-0.00306255 -0.0140971 0.00387357)
(-0.00318662 -0.0144191 0.00395009)
(-0.00320606 -0.014718 0.0042064)
(-0.00331771 -0.014342 0.00374432)
(-0.00329154 -0.0142474 0.00379063)
(-0.0034218 -0.0150137 0.00417063)
(-0.00324284 -0.0140821 0.00375059)
(-0.00300766 -0.0142256 0.00398272)
(-0.0032219 -0.0144981 0.00397012)
(-0.00306671 -0.0140514 0.00389949)
(-0.00326995 -0.0140661 0.00372666)
(-0.00313723 -0.0143831 0.00397982)
(-0.00334281 -0.014526 0.00383512)
(-0.00322276 -0.0139228 0.00406138)
(-0.00325289 -0.0143279 0.00367998)
(-0.00298416 -0.0135799 0.00379717)
(-0.0032056 -0.0140143 0.00396176)
(-0.00336768 -0.0143964 0.00403115)
(-0.00298538 -0.0143059 0.00408501)
(-0.00329144 -0.0142089 0.00379057)
(-0.00327312 -0.0140967 0.00382515)
(-0.00306495 -0.0141824 0.00411179)
(-0.00329561 -0.0142885 0.00390138)
(-0.00309976 -0.0142745 0.0041134)
(-0.00295753 -0.013848 0.00388009)
(-0.00295594 -0.014047 0.00397872)
(-0.00304186 -0.0138276 0.00366484)
(-0.00292186 -0.0137616 0.00394243)
(-0.00315224 -0.0137835 0.00356489)
(-0.00304614 -0.0142977 0.00398338)
(-0.00292568 -0.0143355 0.00376285)
(-0.00311416 -0.0142049 0.00390458)
(-0.00311745 -0.0137646 0.00379944)
(-0.00322268 -0.0143445 0.00408993)
(-0.00285258 -0.0139773 0.00379542)
(-0.00308752 -0.0140609 0.00377968)
(-0.00329298 -0.0142384 0.00405686)
(-0.0033826 -0.014763 0.00419625)
(-0.00285256 -0.0142525 0.00380663)
(-0.00320093 -0.0140603 0.0039472)
(-0.00311731 -0.0142952 0.00388536)
(-0.00283828 -0.0141906 0.00367545)
(-0.0029951 -0.01375 0.00367111)
(-0.00305444 -0.0140836 0.00382309)
(-0.00336205 -0.0138986 0.00383397)
(-0.00317292 -0.0143082 0.00396118)
(-0.00344558 -0.0142726 0.0039704)
(-0.00349857 -0.0142594 0.00386382)
(-0.00286455 -0.014081 0.00405237)
(-0.00308872 -0.0141568 0.00390762)
(-0.00292738 -0.013911 0.00383802)
(-0.00284659 -0.0139545 0.0038671)
(-0.00306725 -0.0145225 0.00403747)
(-0.00299915 -0.0141617 0.00394338)
(-0.00294847 -0.013853 0.00377442)
(-0.00309665 -0.0138232 0.0036818)
(-0.00314109 -0.014202 0.00388042)
(-0.00313849 -0.0140448 0.00386329)
(-0.00294113 -0.0139162 0.00388152)
(-0.00319582 -0.0137852 0.00365757)
(-0.00313755 -0.014309 0.00390934)
(-0.00305194 -0.0136916 0.00387489)
(-0.0031439 -0.0140752 0.00400922)
(-0.00304123 -0.0145505 0.00395856)
(-0.00324713 -0.013978 0.0039019)
(-0.00304994 -0.0137547 0.00385734)
(-0.00307604 -0.014393 0.00418292)
(-0.00316126 -0.0142225 0.00408315)
(-0.00304103 -0.0137593 0.00384081)
(-0.0032635 -0.0146706 0.00399526)
(-0.00315226 -0.0144275 0.00387629)
(-0.00313034 -0.0145626 0.00404851)
(-0.00358738 -0.0152443 0.00417474)
(-0.0032497 -0.0145526 0.00385312)
(-0.0034118 -0.0148141 0.00391863)
(-0.00356479 -0.0154156 0.00418539)
(-0.0036616 -0.0156205 0.00399099)
(-0.00341169 -0.0152039 0.00394015)
(-0.00350683 -0.0145951 0.00380235)
(-0.00334198 -0.0147653 0.00394459)
(-0.00342977 -0.014877 0.00426781)
(-0.00343752 -0.0151541 0.00419544)
(-0.00322067 -0.0149658 0.00426111)
(-0.00342788 -0.0151507 0.00415169)
(-0.00351973 -0.0155563 0.0042093)
(-0.00328713 -0.0150752 0.00414807)
(-0.00345274 -0.0159656 0.00435568)
(-0.00339095 -0.01543 0.00397672)
(-0.00339054 -0.0152395 0.00428229)
(-0.00366811 -0.0159606 0.0047717)
(-0.00323306 -0.015215 0.00442547)
(-0.0036033 -0.0154068 0.00464245)
(-0.00368959 -0.0159354 0.00441982)
(-0.00360432 -0.0161969 0.00453022)
(-0.00337484 -0.0153416 0.0043683)
(-0.00336049 -0.0150318 0.0041914)
(-0.0033776 -0.0152641 0.00430921)
(-0.0034266 -0.0148982 0.0041907)
(-0.00345179 -0.0150903 0.00423389)
(-0.00345626 -0.0150445 0.00433775)
(-0.00333924 -0.015363 0.00425211)
(-0.00391212 -0.015898 0.00442977)
(-0.00345547 -0.0155305 0.00416874)
(-0.00369771 -0.0155659 0.00425411)
(-0.0035424 -0.0158155 0.0043144)
(-0.00332994 -0.0154932 0.00425022)
(-0.00334577 -0.015158 0.00412413)
(-0.00367956 -0.0160503 0.00435588)
(-0.00340899 -0.0155999 0.00445436)
(-0.00330907 -0.0154723 0.00429105)
(-0.0034636 -0.0155847 0.0043052)
(-0.00325879 -0.0150375 0.0041436)
(-0.00371641 -0.0159264 0.00436233)
(-0.00317443 -0.0147582 0.00406509)
(-0.00310456 -0.0145473 0.00402972)
(-0.00359093 -0.0154525 0.00410691)
(-0.00322785 -0.0147043 0.00398632)
(-0.00319284 -0.0149225 0.00413128)
(-0.00311518 -0.0145253 0.00403538)
(-0.00357108 -0.0156685 0.00428757)
(-0.0034246 -0.0156548 0.00446545)
(-0.0034947 -0.0154662 0.0042879)
(-0.00322657 -0.0156913 0.00454736)
(-0.00360595 -0.0156272 0.00419049)
(-0.00346238 -0.0155774 0.00423159)
(-0.00342107 -0.0155188 0.00437911)
(-0.00315108 -0.0151876 0.00428715)
(-0.00330622 -0.015501 0.00437716)
(-0.00330409 -0.0152639 0.00417585)
(-0.00340956 -0.015048 0.00416979)
(-0.00321827 -0.0150989 0.00428682)
(-0.0033135 -0.014957 0.00408988)
(-0.00339365 -0.0152497 0.00420226)
(-0.00325958 -0.0149971 0.00414587)
(-0.00326656 -0.0147614 0.00405555)
(-0.00351455 -0.0148885 0.00415942)
(-0.00323769 -0.0142941 0.00399756)
(-0.00322085 -0.0147867 0.00415627)
(-0.00340806 -0.014643 0.00396134)
(-0.00343571 -0.0147712 0.00398493)
(-0.00339488 -0.0149406 0.00408286)
(-0.00327706 -0.0151451 0.00420768)
(-0.00324197 -0.0146371 0.00403315)
(-0.00343311 -0.0149638 0.00404664)
(-0.00314703 -0.0149699 0.004314)
(-0.00342259 -0.0148342 0.00399349)
(-0.00301045 -0.015002 0.00434942)
(-0.00339907 -0.0149326 0.00405794)
(-0.00319722 -0.0145697 0.00400424)
(-0.00330244 -0.0150249 0.0041208)
(-0.00338828 -0.0146193 0.0039692)
(-0.00342048 -0.0149255 0.00411989)
(-0.00337425 -0.0147059 0.00399647)
(-0.00335237 -0.0147145 0.00405134)
(-0.00333711 -0.0163046 0.0045096)
(-0.0032879 -0.0162101 0.00437954)
(-0.00364379 -0.015735 0.00438364)
(-0.00316042 -0.0155842 0.00417903)
(-0.00354436 -0.0153439 0.00430655)
(-0.00354881 -0.0154742 0.00433406)
(-0.00301279 -0.0146336 0.00377344)
(-0.002961 -0.0142441 0.00385806)
(-0.00310365 -0.0138269 0.00364387)
(-0.00308159 -0.0146083 0.00407695)
(-0.00299979 -0.0147636 0.00394238)
(-0.00316755 -0.0143784 0.00409876)
(-0.00292517 -0.0138459 0.00414034)
(-0.00314973 -0.0144039 0.00432206)
(-0.00313689 -0.0139575 0.00367249)
(-0.00305597 -0.0144607 0.00437217)
(-0.00304532 -0.0144707 0.00408976)
(-0.00325844 -0.0149501 0.00415483)
(-0.00314083 -0.0146104 0.00415701)
(-0.00322447 -0.0144275 0.00377764)
(-0.00310427 -0.0138946 0.0039431)
(-0.0032668 -0.0143396 0.00391971)
(-0.00322535 -0.0151496 0.00423966)
(-0.0030749 -0.0140936 0.00390345)
(-0.00308403 -0.0138343 0.00364233)
(-0.00316108 -0.0139016 0.00368509)
(-0.00319849 -0.0143939 0.00375953)
(-0.00316086 -0.0139612 0.0037493)
(-0.00327105 -0.0139916 0.00365721)
(-0.00302975 -0.0146678 0.00399057)
(-0.00295863 -0.0133891 0.00360651)
(-0.00329193 -0.0141342 0.00361147)
(-0.00315153 -0.014759 0.00414423)
(-0.00324802 -0.0145787 0.00414485)
(-0.00332304 -0.0145031 0.00397851)
(-0.00330336 -0.0144898 0.00413153)
(-0.00321899 -0.0150844 0.00408538)
(-0.00310198 -0.0146849 0.00412486)
(-0.00327947 -0.0148144 0.00400634)
(-0.00320769 -0.0144358 0.00422772)
(-0.0029751 -0.0141281 0.00398581)
(-0.00281683 -0.0137834 0.00392453)
(-0.00309379 -0.0137617 0.00377565)
(-0.0031334 -0.0143127 0.0038407)
(-0.00290083 -0.0137952 0.00401226)
(-0.00328009 -0.0142333 0.00383914)
(-0.00309704 -0.0142968 0.00393609)
(-0.00304761 -0.0142209 0.00393317)
(-0.00320024 -0.0143851 0.00390712)
(-0.00319825 -0.0145085 0.00400168)
(-0.00323864 -0.0142223 0.0039342)
(-0.00309241 -0.0145422 0.00401545)
(-0.0033033 -0.0147496 0.00400616)
(-0.00317559 -0.0144539 0.00400016)
(-0.00324776 -0.0145645 0.00395658)
(-0.00301145 -0.014577 0.00408226)
(-0.00292663 -0.0146851 0.00411015)
(-0.00322224 -0.0148217 0.00398284)
(-0.00322041 -0.0145282 0.0039634)
(-0.00313191 -0.0143428 0.00393357)
(-0.00329978 -0.0144782 0.00388951)
(-0.00333556 -0.0145165 0.00371119)
(-0.00325266 -0.0146672 0.00407654)
(-0.00313071 -0.0144047 0.00410122)
(-0.0030481 -0.0145326 0.00401707)
(-0.00318313 -0.014776 0.00419568)
(-0.00306688 -0.0142646 0.0039266)
(-0.00319067 -0.0142851 0.00393686)
(-0.00310453 -0.014483 0.00396157)
(-0.00323494 -0.0143532 0.0039392)
(-0.00321617 -0.0143807 0.00382967)
(-0.00313637 -0.0142511 0.00394667)
(-0.00333127 -0.015297 0.00390463)
(-0.00327832 -0.015604 0.00420695)
(-0.00341484 -0.0157877 0.00423765)
(-0.00347347 -0.0152431 0.00401481)
(-0.0034477 -0.0155974 0.0043062)
(-0.00335214 -0.0156664 0.00423289)
(-0.00344956 -0.0159405 0.00441884)
(-0.00316917 -0.0152558 0.00440991)
(-0.00332024 -0.0156027 0.00426406)
(-0.00346891 -0.0155029 0.00405128)
(-0.00348147 -0.0157413 0.0042046)
(-0.00367946 -0.0152916 0.00403618)
(-0.00345946 -0.0157008 0.00424351)
(-0.00361487 -0.0154799 0.00407997)
(-0.00357449 -0.0152067 0.00414963)
(-0.00356143 -0.0154534 0.00422978)
(-0.00340795 -0.0155522 0.00426779)
(-0.00330059 -0.0151638 0.00418873)
(-0.00309424 -0.0153264 0.00392513)
(-0.00288232 -0.0152216 0.00369687)
(-0.0031699 -0.0147208 0.0039098)
(-0.00331572 -0.0145335 0.00408898)
(-0.00331533 -0.0149413 0.00419772)
(-0.00357202 -0.0155471 0.00465647)
(-0.00379147 -0.0156996 0.00459085)
(-0.0037895 -0.0162409 0.00464786)
(-0.00363736 -0.0155388 0.00432889)
(-0.00361643 -0.0160135 0.0045153)
(-0.00344689 -0.0153683 0.00413773)
(-0.00339014 -0.0152396 0.00385619)
(-0.00311149 -0.0146551 0.00380918)
(-0.00340103 -0.0146255 0.00416773)
(-0.00281458 -0.0150444 0.00384101)
(-0.00317695 -0.0156646 0.00420673)
(-0.00327288 -0.0148186 0.00406287)
(-0.00337516 -0.0155199 0.00449155)
(-0.00348623 -0.0150916 0.00412626)
(-0.00324602 -0.0151408 0.0044085)
(-0.00308539 -0.0141672 0.00398698)
(-0.00319979 -0.0155028 0.00419895)
(-0.0032995 -0.0151843 0.00455458)
(-0.00354122 -0.0152936 0.00417723)
(-0.00326925 -0.0147242 0.00426727)
(-0.00322396 -0.0145304 0.00423412)
(-0.00332601 -0.0146207 0.00427206)
(-0.00322099 -0.0145603 0.00399647)
(-0.00328273 -0.0144755 0.00405446)
(-0.00355349 -0.0157645 0.00435362)
(-0.00346749 -0.0156114 0.00431345)
(-0.00332503 -0.0155806 0.00425917)
(-0.00368956 -0.016223 0.00444057)
(-0.00352107 -0.0158837 0.00439144)
(-0.00349925 -0.015794 0.00430427)
(-0.00361729 -0.0161492 0.00435311)
(-0.00352904 -0.0152442 0.00427518)
(-0.00337414 -0.0160956 0.00427167)
(-0.00330296 -0.0155577 0.0041504)
(-0.00331307 -0.0160829 0.00413756)
(-0.0035373 -0.015688 0.00434404)
(-0.00295471 -0.0142486 0.00370063)
(-0.00343756 -0.0143216 0.00384897)
(-0.0029546 -0.0134676 0.00353965)
(-0.00336989 -0.0147175 0.003987)
(-0.00305927 -0.0141894 0.00376347)
(-0.00281301 -0.0143144 0.00369831)
(-0.0032925 -0.0150896 0.00401166)
(-0.00337417 -0.0153051 0.00425363)
(-0.0033323 -0.015392 0.00431461)
(-0.00317097 -0.014849 0.00416424)
(-0.00324557 -0.0151479 0.00422521)
(-0.00344188 -0.014909 0.00405311)
(-0.00330558 -0.0153115 0.00426803)
(-0.00330027 -0.0146498 0.00415499)
(-0.00336485 -0.0144706 0.00379491)
(-0.00352619 -0.01511 0.00377443)
(-0.00366156 -0.0154187 0.00407393)
(-0.00334545 -0.0150195 0.00423181)
(-0.00331987 -0.0149753 0.00417905)
(-0.00262341 -0.0140876 0.00408823)
(-0.00311252 -0.0144889 0.00392152)
(-0.0032785 -0.0145621 0.00385353)
(-0.00352183 -0.0155375 0.00445313)
(-0.0033675 -0.0141678 0.00377511)
(-0.0032442 -0.014565 0.00397573)
(-0.00329338 -0.0142562 0.0039394)
(-0.0031187 -0.0144428 0.00388304)
(-0.00341834 -0.0147792 0.0042336)
(-0.00328449 -0.0147171 0.00400647)
(-0.00308268 -0.0140997 0.0039138)
(-0.00333198 -0.0145265 0.00399053)
(-0.00330752 -0.014163 0.00382142)
(-0.00343581 -0.0145133 0.00402938)
(-0.00305508 -0.0146807 0.0040387)
(-0.00321651 -0.0141557 0.00390678)
(-0.00339253 -0.0142844 0.00424864)
(-0.0032788 -0.0147109 0.00391277)
(-0.00343682 -0.01527 0.00409075)
(-0.00387551 -0.0142869 0.00448536)
(-0.00348949 -0.0143985 0.00406841)
(-0.00325375 -0.0147578 0.00372653)
(-0.00332667 -0.0138044 0.00430367)
(-0.00272707 -0.0133299 0.00337466)
(-0.00291743 -0.0137477 0.00319881)
(-0.00319417 -0.0138883 0.00411404)
(-0.00272892 -0.01373 0.00347557)
(-0.00301032 -0.0139656 0.00375378)
(-0.00302236 -0.0140658 0.00379014)
(-0.00299162 -0.0137344 0.00369249)
(-0.00296388 -0.013626 0.00358341)
(-0.00289877 -0.0135847 0.00356051)
(-0.00298992 -0.0140891 0.00380837)
(-0.00286637 -0.0131278 0.00348469)
(-0.00280708 -0.0145513 0.00383174)
(-0.00304712 -0.0143567 0.00391581)
(-0.00357186 -0.0147396 0.00417869)
(-0.0033469 -0.0148231 0.00411869)
(-0.00319176 -0.0143085 0.00388898)
(-0.00314986 -0.0142619 0.00401435)
(-0.00329547 -0.0143468 0.00406312)
(-0.00310068 -0.014009 0.00388272)
(-0.00361428 -0.014216 0.00388333)
(-0.00336739 -0.0150395 0.00410686)
(-0.0030284 -0.0139341 0.00373695)
(-0.00295113 -0.0142 0.00387483)
(-0.00279215 -0.0144301 0.00386736)
(-0.00272728 -0.013811 0.00357553)
(-0.00282216 -0.01347 0.00365384)
(-0.00315178 -0.0140121 0.00386285)
(-0.00269178 -0.0138152 0.00359179)
(-0.00321281 -0.0142087 0.00399352)
(-0.00291244 -0.0147401 0.00379971)
(-0.00284887 -0.0143726 0.00385177)
(-0.00277928 -0.0136809 0.00382129)
(-0.0031733 -0.013959 0.00359221)
(-0.00309299 -0.0144753 0.00420648)
(-0.00300625 -0.0132928 0.00392736)
(-0.00300403 -0.0139325 0.00386416)
(-0.00281372 -0.0131363 0.00340848)
(-0.00318037 -0.0157511 0.00386131)
(-0.00287984 -0.0140628 0.00371964)
(-0.00304532 -0.014234 0.00368715)
(-0.00317403 -0.0144575 0.00465653)
(-0.00345402 -0.014428 0.00436059)
(-0.00302942 -0.0145602 0.00373793)
(-0.00275526 -0.0136013 0.00346703)
(-0.00299641 -0.0133261 0.00365336)
(-0.00327303 -0.0139313 0.00382367)
(-0.00279643 -0.0138234 0.00348009)
(-0.00295562 -0.0144645 0.00369408)
(-0.00310256 -0.0138598 0.00381044)
(-0.00290834 -0.0141535 0.0036648)
(-0.00303784 -0.0135645 0.00376894)
(-0.003054 -0.0142616 0.00376595)
(-0.0029675 -0.0145712 0.003653)
(-0.00332027 -0.0139122 0.00387265)
(-0.00296529 -0.0140841 0.00371879)
(-0.00322165 -0.0139908 0.00401559)
(-0.00333402 -0.0146964 0.00418067)
(-0.00304721 -0.0136211 0.00385433)
(-0.00286125 -0.0136419 0.00367791)
(-0.00301489 -0.0143028 0.00376627)
(-0.00320135 -0.0144762 0.00406129)
(-0.00307707 -0.0149258 0.00417651)
(-0.00336953 -0.0148595 0.00409624)
(-0.00329379 -0.0146458 0.0040268)
(-0.00323865 -0.0148522 0.00420389)
(-0.00338468 -0.0151618 0.00414621)
(-0.00330508 -0.0152747 0.0042752)
(-0.0032295 -0.015055 0.00443474)
(-0.00354903 -0.0154522 0.00409598)
(-0.00331555 -0.0154759 0.00440592)
(-0.003126 -0.0151389 0.00448125)
(-0.00348827 -0.0150623 0.00404598)
(-0.00299918 -0.0134362 0.00332339)
(-0.00310225 -0.0134472 0.00353116)
(-0.00296113 -0.0137146 0.00358151)
(-0.0028675 -0.0138803 0.00372677)
(-0.00299773 -0.0137362 0.00369553)
(-0.00303616 -0.0147925 0.00432193)
(-0.00325575 -0.0145041 0.00406739)
(-0.00327778 -0.0148277 0.00418882)
(-0.00320421 -0.0144234 0.00436227)
(-0.00324342 -0.0144686 0.00440803)
(-0.00322839 -0.0146152 0.00409211)
(-0.00313522 -0.014496 0.004112)
(-0.00325852 -0.0145909 0.00389687)
(-0.00352775 -0.0148986 0.00412509)
(-0.00348198 -0.0149898 0.00403774)
(-0.00331767 -0.0146912 0.00378179)
(-0.0037639 -0.0158173 0.00444012)
(-0.00361673 -0.0152755 0.00410751)
(-0.00336446 -0.0154536 0.00430965)
(-0.00342361 -0.0151845 0.00425162)
(-0.00336636 -0.0150054 0.00420903)
(-0.00320747 -0.0151255 0.00401291)
(-0.0031465 -0.0152905 0.00402692)
(-0.00355916 -0.0161261 0.00442279)
(-0.00319722 -0.0151651 0.00415409)
(-0.00347385 -0.0152091 0.00435707)
(-0.00315639 -0.0149642 0.00399025)
(-0.00329982 -0.0150773 0.00380108)
(-0.00340515 -0.0152811 0.00415472)
(-0.00338989 -0.0155919 0.00416373)
(-0.00333479 -0.0148772 0.00428525)
(-0.00334648 -0.0148184 0.00413246)
(-0.00293822 -0.0145146 0.00385838)
(-0.00352435 -0.0153021 0.004206)
(-0.00322842 -0.0152122 0.00439718)
(-0.003315 -0.0154749 0.00418941)
(-0.00309672 -0.0146831 0.00396274)
(-0.00313263 -0.01412 0.00399097)
(-0.00343488 -0.0148528 0.00428427)
(-0.00340344 -0.0147238 0.00413384)
(-0.00317283 -0.0153719 0.00403874)
(-0.00301323 -0.0143652 0.00404102)
(-0.00324249 -0.0146567 0.00408176)
(-0.00322946 -0.0149281 0.00409898)
(-0.00330686 -0.0154841 0.00418172)
(-0.00361678 -0.0157817 0.00434733)
(-0.00295715 -0.0145241 0.00383661)
(-0.00287839 -0.0143954 0.0035685)
(-0.00293979 -0.0141608 0.00363993)
(-0.0026546 -0.0139464 0.00350748)
(-0.00315929 -0.0140725 0.00400095)
(-0.00306028 -0.0140172 0.00376973)
(-0.00305196 -0.0142315 0.00402825)
(-0.00308828 -0.0138444 0.00389148)
(-0.00321487 -0.014646 0.00393415)
(-0.00305144 -0.0136965 0.0037947)
(-0.00323796 -0.0149431 0.00387187)
(-0.00330673 -0.0143475 0.00386414)
(-0.00316084 -0.0138206 0.00384118)
(-0.00324837 -0.0141191 0.00385904)
(-0.00340017 -0.0146182 0.00396636)
(-0.00312973 -0.0142798 0.00408427)
(-0.00336312 -0.0142989 0.00396589)
(-0.00284737 -0.0142381 0.00377868)
(-0.00276874 -0.0142708 0.0038733)
(-0.00338288 -0.0150368 0.0041258)
(-0.0032492 -0.0145701 0.00450236)
(-0.00300576 -0.0156431 0.00434221)
(-0.00295813 -0.0139678 0.00397867)
(-0.00309113 -0.0145671 0.00376437)
(-0.00298898 -0.0140619 0.00347787)
(-0.00343366 -0.0156437 0.00451035)
(-0.00322701 -0.0149242 0.00376947)
(-0.00322416 -0.0144859 0.00426958)
(-0.0028958 -0.0144338 0.00358619)
(-0.00309315 -0.0137032 0.0039693)
(-0.00320711 -0.0137439 0.00395523)
(-0.00320056 -0.0150849 0.00390517)
(-0.00316785 -0.0152906 0.00387489)
(-0.00332557 -0.0143559 0.00417879)
(-0.00312993 -0.0140243 0.00379457)
(-0.00309088 -0.0142042 0.00390307)
(-0.00319636 -0.014591 0.00396317)
(-0.00336313 -0.0144722 0.00397412)
(-0.00334646 -0.01429 0.00407076)
(-0.00325579 -0.0144435 0.00439283)
(-0.00313313 -0.0136807 0.00409167)
(-0.00310429 -0.0139754 0.00388392)
(-0.00311895 -0.0142565 0.00399552)
(-0.00318765 -0.013999 0.00405847)
(-0.00304022 -0.0139031 0.00377535)
(-0.00315977 -0.0139043 0.00378156)
(-0.00316256 -0.0140117 0.00395433)
(-0.00291469 -0.0141691 0.00379051)
(-0.00296011 -0.0150801 0.00406534)
(-0.00308629 -0.0143811 0.0039379)
(-0.00284818 -0.0145471 0.00383433)
(-0.00300828 -0.0142231 0.00392076)
(-0.00310833 -0.0141644 0.0038346)
(-0.00300405 -0.0146635 0.00401431)
(-0.00318014 -0.013973 0.00381936)
(-0.00338235 -0.0141093 0.00409002)
(-0.0029976 -0.0141223 0.00381299)
(-0.00325271 -0.0140833 0.00419169)
(-0.00294207 -0.0138648 0.00369605)
(-0.00294126 -0.0138968 0.00382078)
(-0.00289305 -0.0144878 0.00383058)
(-0.00306068 -0.014607 0.00383055)
(-0.00294145 -0.0146526 0.00389184)
(-0.00319574 -0.0142916 0.00384419)
(-0.00313068 -0.0145819 0.00393132)
(-0.00323246 -0.0147813 0.00411779)
(-0.00283263 -0.0145852 0.00371521)
(-0.00269295 -0.0145478 0.00374441)
(-0.0032294 -0.0144238 0.00402853)
(-0.00308136 -0.0148514 0.00397398)
(-0.00308634 -0.0141628 0.00401544)
(-0.0033193 -0.0142731 0.00382449)
(-0.00287873 -0.0140439 0.00391945)
(-0.0033429 -0.0144322 0.00401943)
(-0.00315094 -0.0138434 0.00366801)
(-0.00332973 -0.0145537 0.0039617)
(-0.00319307 -0.0142831 0.00383611)
(-0.00346017 -0.015189 0.00400349)
(-0.00288363 -0.0135721 0.00365468)
(-0.00290135 -0.0136832 0.00356159)
(-0.00338393 -0.0142712 0.00401351)
(-0.00327425 -0.0147309 0.0036605)
(-0.00313938 -0.0148189 0.00391333)
(-0.00319054 -0.0140812 0.00374988)
(-0.0036975 -0.0147364 0.00408831)
(-0.00330964 -0.0148379 0.00411773)
(-0.00316274 -0.013911 0.00395589)
(-0.00322105 -0.0143727 0.00369121)
(-0.00360485 -0.0152547 0.00398731)
(-0.00330551 -0.0145853 0.00381371)
(-0.00328851 -0.0149542 0.00411681)
(-0.0035075 -0.0145501 0.00388153)
(-0.00319303 -0.0135537 0.00367787)
(-0.00316937 -0.0140703 0.00346895)
(-0.00289068 -0.0132522 0.00365543)
(-0.00334241 -0.0151315 0.00402465)
(-0.00331955 -0.0137936 0.00421506)
(-0.00318544 -0.0137585 0.00374098)
(-0.00303394 -0.0138147 0.00391834)
(-0.00329567 -0.0142551 0.00400805)
(-0.00315484 -0.0141205 0.00397357)
(-0.00358536 -0.0146565 0.00424645)
(-0.00363458 -0.0148223 0.00418334)
(-0.00311133 -0.0137568 0.00365041)
(-0.00317296 -0.0147898 0.00403203)
(-0.00322262 -0.0140863 0.00420182)
(-0.00322486 -0.0146666 0.00380974)
(-0.00312859 -0.0141895 0.00377249)
(-0.00302366 -0.0139409 0.00376294)
(-0.00310971 -0.0144177 0.00394311)
(-0.00338499 -0.0150075 0.00407372)
(-0.00334853 -0.0141679 0.00358204)
(-0.00320011 -0.0142399 0.00396332)
(-0.00320217 -0.0142241 0.00381413)
(-0.00350296 -0.0150274 0.00411995)
(-0.00289329 -0.0149457 0.00398018)
(-0.00307201 -0.0147948 0.00406878)
(-0.00338126 -0.0147042 0.00417328)
(-0.00329429 -0.0151542 0.00407631)
(-0.00305163 -0.0141281 0.00385491)
(-0.00371055 -0.0153191 0.00429068)
(-0.00344621 -0.0154226 0.00421303)
(-0.00336004 -0.0149127 0.00415507)
(-0.00322075 -0.0143061 0.00397876)
(-0.00312327 -0.0139521 0.003784)
(-0.0031615 -0.0150211 0.00400164)
(-0.00354223 -0.0152717 0.00399712)
(-0.00343401 -0.0151014 0.00416826)
(-0.00346544 -0.015312 0.0041652)
(-0.00343948 -0.0153237 0.0042742)
(-0.00353684 -0.0155684 0.00396725)
(-0.00326938 -0.0148559 0.00406912)
(-0.00314546 -0.0139322 0.00375158)
(-0.00317089 -0.0144968 0.00395924)
(-0.00328549 -0.0147952 0.00401151)
(-0.0031111 -0.0141479 0.00385789)
(-0.00316943 -0.0142818 0.00389869)
(-0.003099 -0.0144309 0.00392388)
(-0.0031955 -0.0144116 0.00406442)
(-0.00334222 -0.015708 0.00413659)
(-0.00329995 -0.0152837 0.00416092)
(-0.00335218 -0.0147235 0.00408737)
(-0.0031854 -0.0145857 0.00399637)
(-0.00318684 -0.0146423 0.00394417)
(-0.0031666 -0.0147629 0.00405304)
(-0.0032627 -0.0151541 0.00406108)
(-0.00349182 -0.0151273 0.00420445)
(-0.00334259 -0.0148635 0.00417679)
(-0.00331005 -0.0148311 0.00409051)
(-0.00366544 -0.0152378 0.00435229)
(-0.00351301 -0.0153709 0.00421867)
(-0.00342212 -0.0152851 0.00430007)
(-0.00315167 -0.0150005 0.00414565)
(-0.00347523 -0.0152735 0.0042332)
(-0.0033717 -0.0156232 0.0039705)
(-0.00325977 -0.0149513 0.00405804)
(-0.00325915 -0.0149883 0.00384699)
(-0.00322511 -0.0150983 0.00397123)
(-0.00340619 -0.0147286 0.00396727)
(-0.00324389 -0.0141262 0.00376958)
(-0.00361127 -0.0152379 0.00447335)
(-0.00327132 -0.0160485 0.00423383)
(-0.00324456 -0.0149401 0.00369709)
(-0.00324356 -0.0147211 0.0039435)
(-0.00332624 -0.015308 0.00425666)
(-0.00343285 -0.0162659 0.00463387)
(-0.00328967 -0.0147928 0.00369268)
(-0.00372524 -0.0158233 0.00417214)
(-0.00345189 -0.0150236 0.00375209)
(-0.00340217 -0.0153482 0.0045976)
(-0.00309626 -0.0151732 0.00372103)
(-0.0032291 -0.0141084 0.00400134)
(-0.00310118 -0.0148019 0.00398561)
(-0.00345708 -0.015257 0.00420452)
(-0.00312549 -0.0148519 0.00402505)
(-0.00318762 -0.0149886 0.00391719)
(-0.00337655 -0.0153105 0.00423558)
(-0.00341757 -0.0152923 0.00462461)
(-0.00334572 -0.0155691 0.00443726)
(-0.00337414 -0.0149503 0.00432043)
(-0.00334952 -0.0148332 0.00409809)
(-0.0036216 -0.0151956 0.00433794)
(-0.00333439 -0.0146158 0.00403686)
(-0.00321274 -0.0156805 0.0040486)
(-0.00346037 -0.0150539 0.00406227)
(-0.00362632 -0.0159901 0.00431366)
(-0.0036884 -0.0155958 0.00416743)
(-0.00353726 -0.0158 0.00439929)
(-0.00347741 -0.0157514 0.00436565)
(-0.0032448 -0.0151144 0.00416775)
(-0.00341326 -0.0155076 0.00435614)
(-0.00359148 -0.0159012 0.00417155)
(-0.00330814 -0.0154969 0.00438702)
(-0.00354196 -0.0154346 0.00413099)
(-0.00347524 -0.0162275 0.00423929)
(-0.00341441 -0.0160101 0.00418228)
(-0.00327261 -0.0153557 0.00429233)
(-0.00346396 -0.0152005 0.00417888)
(-0.0034452 -0.0150723 0.00398537)
(-0.0033733 -0.0151529 0.00405805)
(-0.00316782 -0.0150077 0.00419477)
(-0.00342897 -0.0148642 0.00407312)
(-0.00365524 -0.0168345 0.00445683)
(-0.00337194 -0.0153572 0.00420236)
(-0.00327724 -0.015378 0.00432665)
(-0.00352711 -0.0153048 0.00445177)
(-0.00346917 -0.0159712 0.00434954)
(-0.00345487 -0.0155821 0.00414201)
(-0.00347483 -0.0151632 0.00353329)
(-0.0033876 -0.0160936 0.00358323)
(-0.00319857 -0.0146794 0.00426474)
(-0.00348013 -0.0156394 0.00426083)
(-0.00319635 -0.0159362 0.00460991)
(-0.00341927 -0.0155861 0.00454899)
(-0.00331939 -0.0152004 0.00400756)
(-0.00335803 -0.0148638 0.00432661)
(-0.00334662 -0.0155159 0.00434327)
(-0.00364222 -0.0157283 0.0044161)
(-0.00337252 -0.0152704 0.00412819)
(-0.00368359 -0.0162231 0.00436781)
(-0.0034182 -0.0153184 0.00410238)
(-0.00317254 -0.0152802 0.00441094)
(-0.00322286 -0.0153471 0.003987)
(-0.00332933 -0.0161568 0.00448724)
(-0.00325033 -0.0153529 0.00385475)
(-0.00338797 -0.0155367 0.00406162)
(-0.00332024 -0.0150718 0.00388418)
(-0.00336264 -0.015066 0.00412569)
(-0.00327992 -0.0155874 0.0042294)
(-0.00332786 -0.0152393 0.00408874)
(-0.00363563 -0.0159665 0.00445538)
(-0.00367651 -0.0156847 0.00422769)
(-0.00353485 -0.0156569 0.00413636)
(-0.00358519 -0.0154848 0.00420391)
(-0.00306927 -0.014434 0.00411144)
(-0.00329917 -0.0148232 0.00405137)
(-0.00326159 -0.0147412 0.00390619)
(-0.00308793 -0.0147971 0.00414268)
(-0.00310922 -0.0147947 0.00423403)
(-0.00317876 -0.0146032 0.0040529)
(-0.0031368 -0.0147263 0.00396089)
(-0.0033415 -0.0148469 0.00403245)
(-0.0033571 -0.0146778 0.00396553)
(-0.00321568 -0.0149469 0.00411489)
(-0.00337879 -0.0150598 0.00411875)
(-0.00323668 -0.0149033 0.00412198)
(-0.00298487 -0.0138737 0.00380663)
(-0.00305284 -0.0139294 0.00382104)
(-0.00314039 -0.0136367 0.0037082)
(-0.00314251 -0.014132 0.00380297)
(-0.00298599 -0.0142322 0.00384768)
(-0.0029499 -0.0140101 0.00386103)
(-0.00298718 -0.0140969 0.00374691)
(-0.00305661 -0.013694 0.00375573)
(-0.00330411 -0.0147092 0.00402809)
(-0.00301929 -0.0137871 0.00391992)
(-0.00319399 -0.0141178 0.00389558)
(-0.00307736 -0.0138469 0.00369622)
(-0.00308866 -0.0141857 0.00385036)
(-0.00312569 -0.0142521 0.00389602)