/*--------------------------------*- C++ -*----------------------------------*\
| =========                 |                                                 |
| \\      /  F ield         | OpenFOAM: The Open Source CFD Toolbox           |
|  \\    /   O peration     | Version:  v1612+                                |
|   \\  /    A nd           | Web:      www.OpenFOAM.com                      |
|    \\/     M anipulation  |                                                 |
\*---------------------------------------------------------------------------*/
FoamFile
{
    version     2.0;
    format      ascii;
    class       surfaceScalarField;
    location    "166";
    object      phi;
}
// * * * * * * * * * * * * * * * * * * * * * * * * * * * * * * * * * * * * * //

dimensions      [0 3 -1 0 0 0 0];

internalField   nonuniform List<scalar> 
37395
(
-4.94029e-09
4.1794e-09
6.75166e-09
-5.99076e-09
3.80255e-10
-2.17972e-09
-5.54654e-09
7.34601e-09
3.29762e-09
-4.5731e-09
-6.82591e-09
8.10139e-09
3.69786e-09
9.71401e-09
-3.10597e-09
-1.03059e-08
1.41909e-09
-4.41234e-09
1.76129e-09
1.23197e-09
-5.70313e-09
2.55673e-09
5.43745e-09
-2.29105e-09
-3.11836e-09
-3.13813e-09
5.53358e-10
-2.72051e-09
4.98517e-09
4.32837e-09
-6.59303e-09
4.06964e-10
-2.98558e-09
-1.41893e-10
3.12608e-09
-4.82535e-09
1.47763e-10
8.53527e-09
2.02449e-09
-8.23619e-10
1.35588e-09
-2.82166e-09
4.99392e-09
-3.44236e-09
-2.02922e-10
9.06839e-11
1.35187e-08
-5.36424e-09
-1.07751e-08
2.62068e-09
8.05381e-10
-1.85437e-09
1.45677e-08
1.42796e-08
-1.12129e-08
1.68259e-09
-4.7493e-09
-9.38375e-10
1.60234e-08
-1.41062e-08
-2.47099e-09
-1.94699e-09
-7.16053e-09
-1.66761e-09
-1.28376e-08
-1.89286e-09
1.28761e-08
-2.63687e-09
-1.21477e-08
-1.98766e-08
-2.5939e-09
2.15321e-08
-1.28353e-08
-5.3587e-09
-1.01995e-08
-1.10672e-08
-2.76238e-10
8.65006e-09
-1.02667e-08
-1.73144e-08
-1.98641e-09
1.67069e-08
-1.53556e-08
-1.47941e-08
-4.95625e-09
1.24825e-08
-2.38833e-09
-5.13795e-09
-1.33814e-08
1.11187e-08
9.27673e-09
-4.43137e-09
-1.2372e-08
7.52666e-09
7.72364e-09
7.62739e-10
7.90352e-10
-5.16053e-09
8.71879e-09
-6.25676e-09
2.6985e-09
-1.42641e-08
4.67217e-09
-6.68578e-10
-5.96821e-09
-6.32629e-09
2.50254e-09
-8.00712e-09
7.95081e-09
-2.44623e-09
-3.08707e-09
5.47744e-09
1.12165e-10
4.9618e-09
-7.24611e-10
7.87778e-11
-4.31596e-09
2.01319e-09
-1.38454e-10
-6.07013e-10
-5.52791e-09
-1.8722e-09
7.7497e-10
2.26329e-10
4.47614e-09
1.36464e-09
7.36114e-09
8.45526e-09
-2.53026e-09
-6.53202e-09
8.97204e-09
5.5613e-09
-6.07808e-09
7.8528e-09
-2.18574e-09
3.30498e-09
8.43024e-09
7.87194e-10
-5.53929e-09
-7.1323e-10
3.30545e-09
-5.48647e-09
5.55016e-09
-3.36915e-09
5.28241e-09
3.62257e-11
-7.5133e-10
-4.65636e-09
6.97256e-09
-1.78226e-09
3.59863e-10
-1.11847e-09
7.24558e-09
8.45451e-10
4.39028e-09
6.56708e-09
-6.86682e-09
-4.51589e-10
-1.36603e-09
6.15085e-09
2.08125e-09
4.5711e-09
-2.88586e-09
-3.76648e-09
2.59623e-09
-5.33864e-10
1.88823e-11
-1.5411e-09
1.74374e-10
3.96296e-09
-1.1591e-09
4.1891e-09
9.76822e-09
3.36047e-09
1.61347e-09
-1.47422e-08
-1.25526e-09
1.99941e-09
9.02408e-09
2.1575e-09
-2.56152e-09
-1.29846e-10
-1.0735e-09
3.40538e-09
-1.01047e-08
7.69036e-09
6.54114e-09
-6.35302e-09
3.17235e-09
7.46705e-09
2.53737e-09
-5.86971e-09
4.46484e-10
-1.03146e-08
2.74729e-09
-5.87811e-09
-2.31932e-09
1.8444e-09
-5.49511e-09
6.55727e-09
-2.77758e-10
-7.84398e-10
6.85059e-09
-3.75133e-09
-8.59437e-09
2.69735e-09
3.87929e-09
2.73949e-10
1.88225e-09
7.37237e-09
2.51688e-09
2.82247e-09
-9.09068e-09
3.57698e-09
2.84973e-09
-3.90982e-09
3.87155e-09
-5.7233e-10
-3.38616e-09
2.87377e-09
4.38393e-09
-4.93746e-10
-4.26822e-11
3.64015e-09
-6.85671e-09
6.03903e-09
-1.36162e-09
6.11764e-09
-3.32116e-09
4.59227e-09
-2.63273e-09
-1.74756e-10
-3.45654e-09
1.94282e-09
6.74576e-09
-2.40986e-09
5.57284e-09
3.04688e-09
9.9255e-09
3.54852e-09
8.14472e-09
5.46428e-09
-2.55643e-09
-9.65029e-10
4.28884e-09
1.1556e-09
1.98338e-11
-6.23131e-10
-2.66193e-11
6.73801e-09
-4.15452e-09
3.35022e-09
4.58691e-09
-3.80546e-09
-4.13167e-09
-6.687e-10
4.0764e-09
-5.74785e-11
4.10644e-09
-2.54023e-09
2.53109e-09
-4.0973e-09
3.56376e-09
-1.2602e-10
-5.18818e-09
3.56853e-09
5.69605e-09
-6.86702e-10
8.54327e-11
-7.20563e-09
8.59946e-10
-1.35657e-09
-3.99559e-09
7.88325e-09
-4.97422e-09
1.47864e-08
-6.24365e-09
5.55907e-09
-7.29384e-10
-5.51639e-09
7.8366e-09
-5.57538e-09
-3.61779e-09
8.42145e-09
-2.42367e-09
5.86867e-09
-5.94468e-09
2.49969e-09
-3.08206e-09
6.55086e-10
3.3027e-12
-1.91874e-09
9.07245e-10
6.88016e-09
-2.06597e-09
6.67351e-10
-4.54606e-09
-1.7077e-09
-3.44033e-09
9.19831e-09
-2.61833e-09
-5.91263e-09
6.56911e-10
6.62266e-09
-3.11069e-09
4.39819e-09
-2.68762e-09
2.32026e-10
-6.83749e-09
8.58819e-09
-2.49404e-09
7.43339e-10
-2.33952e-09
-7.1163e-09
7.06538e-09
4.75307e-09
-3.97933e-09
-9.09374e-10
1.35626e-10
6.06868e-09
8.41111e-10
-9.24932e-09
6.05199e-09
-2.47735e-09
3.337e-09
-4.20359e-09
4.03928e-10
2.45444e-10
-2.20437e-10
-9.68459e-09
9.88909e-10
8.91612e-09
8.37918e-10
8.20187e-09
-9.26023e-09
5.36875e-09
-4.30663e-09
3.65171e-09
-4.71383e-09
5.74711e-09
-8.84819e-10
5.06456e-10
-2.16114e-09
-3.50312e-09
-4.02032e-09
-5.10855e-09
5.5534e-10
5.39113e-09
2.97071e-10
-8.39503e-09
3.79133e-09
-3.25515e-09
3.89372e-09
4.31238e-10
-3.46808e-11
2.97239e-09
4.94494e-09
-3.01253e-09
-4.9048e-09
3.49023e-09
-5.70394e-10
5.25555e-11
6.57659e-09
-3.79279e-09
4.98266e-09
5.08415e-09
-1.62193e-10
-3.14132e-09
3.85886e-09
5.80938e-09
3.46394e-09
-6.1794e-09
2.81538e-09
7.81684e-11
1.05293e-10
1.56365e-08
-2.01922e-08
-1.7046e-08
2.16018e-08
2.12779e-08
-2.62933e-08
-1.01304e-08
1.51458e-08
-3.15012e-10
1.61212e-08
5.47171e-09
1.13975e-08
3.92399e-09
1.83601e-08
1.04809e-08
-1.07601e-09
-2.7765e-08
2.46188e-08
-2.4409e-08
1.59114e-08
2.66678e-08
-1.11764e-08
-3.71067e-09
-1.17808e-08
2.33927e-08
2.16352e-08
1.13043e-08
1.08555e-08
-1.07623e-08
1.37646e-08
5.91997e-09
-9.20363e-09
1.86783e-08
6.39057e-09
-9.51038e-10
-5.26659e-09
3.82309e-11
8.48964e-09
4.51964e-09
-8.8958e-09
-4.11348e-09
-8.56423e-10
-1.31946e-08
8.58937e-09
7.76339e-09
-3.15819e-09
-2.50877e-09
-3.28832e-09
-8.41558e-09
1.42127e-08
-1.11837e-08
-4.8216e-09
7.48976e-09
-6.17129e-09
1.80499e-09
-3.46034e-09
-3.24945e-09
-8.73992e-09
8.5683e-10
4.0903e-09
-2.46281e-09
-4.47212e-09
9.28068e-09
-4.34581e-09
-7.39768e-09
5.31591e-09
-6.26929e-09
-1.36484e-09
-2.86314e-09
-4.35359e-09
5.95395e-09
1.26278e-09
-7.84333e-09
1.72693e-09
3.25326e-09
-6.41653e-10
-3.99697e-09
-3.2047e-09
-7.8463e-09
1.42885e-09
6.95249e-10
5.7222e-09
-4.20948e-09
-4.27848e-09
1.45466e-08
-1.00161e-08
-5.66209e-09
1.13158e-09
-4.21932e-09
1.44124e-08
-1.00106e-08
3.18773e-09
8.25177e-09
-1.22593e-08
-1.96084e-09
-1.04384e-08
-3.57472e-09
1.35035e-08
-6.54589e-09
-1.26197e-08
7.77465e-09
1.5095e-09
-1.77349e-08
4.03963e-09
1.24957e-08
1.19962e-09
-2.767e-10
9.00655e-09
-2.64647e-08
1.07886e-08
5.39217e-09
-1.64575e-08
-1.85685e-08
6.65271e-09
1.59554e-08
5.93666e-09
-1.54986e-08
-4.59382e-09
2.03694e-08
-3.27991e-09
1.42916e-08
-8.09677e-09
5.5394e-09
1.48856e-08
-1.50328e-08
-1.04267e-08
2.19028e-08
1.16679e-08
-1.24131e-08
1.56309e-08
-2.86165e-09
1.47123e-08
-1.8284e-10
-1.04021e-08
1.03699e-08
2.04016e-08
1.02779e-09
4.22418e-09
2.35015e-08
-1.30133e-08
2.3184e-08
-8.58988e-09
-1.21905e-08
6.20896e-09
-3.43598e-09
9.41754e-09
-1.53005e-09
-1.16935e-08
1.033e-09
1.60086e-10
6.65432e-09
-6.05455e-10
6.08993e-09
5.87665e-09
-1.54026e-08
-4.95491e-10
6.7455e-09
-5.85543e-09
6.29788e-09
6.21188e-09
5.41957e-09
-1.85746e-09
1.08435e-08
9.04019e-09
-1.4007e-08
1.18999e-08
2.85281e-09
-3.90925e-09
-1.50235e-09
1.22043e-08
-4.40408e-09
4.14462e-09
2.89626e-09
1.99931e-09
6.57937e-09
9.46515e-09
8.13523e-09
1.3714e-10
1.32123e-08
-1.13868e-08
1.80196e-08
2.30984e-09
-8.94257e-09
-1.12015e-08
-7.67691e-09
7.49161e-09
-1.03499e-08
7.78534e-09
-1.12323e-08
1.3797e-08
7.86985e-09
-4.60535e-09
-1.36145e-08
1.0349e-09
-7.36763e-11
6.90862e-09
-6.72338e-09
6.57799e-09
-1.15704e-08
1.17158e-08
-1.64511e-08
1.64823e-08
-1.01956e-08
1.01643e-08
1.35409e-08
-2.14345e-08
-8.55741e-09
-9.43168e-09
9.97407e-09
1.29985e-08
-2.5512e-09
-8.64987e-10
5.14553e-09
-1.64743e-08
-9.22666e-09
-5.62989e-09
-1.06653e-08
-1.31754e-09
-1.47465e-08
-6.27855e-10
-5.04327e-10
-4.6418e-09
5.77398e-09
-1.72774e-10
3.51121e-09
-3.96629e-09
-6.07163e-10
6.62809e-09
-6.52526e-09
3.76116e-09
-4.54109e-09
6.26598e-09
7.52645e-09
-7.16433e-09
6.36514e-09
1.91553e-09
-2.0147e-09
-8.33035e-09
6.32642e-09
8.36908e-09
2.15287e-09
-2.95677e-09
-1.27336e-09
7.40646e-09
-1.88434e-09
-4.24877e-09
6.88522e-09
-4.56291e-09
-3.59567e-09
-1.82833e-09
4.17624e-09
5.05856e-09
1.97009e-09
3.0868e-09
-4.40732e-09
1.25048e-09
9.48326e-09
-2.29381e-09
3.93672e-11
2.44817e-09
-3.49988e-09
8.84234e-09
-3.41563e-09
1.57044e-09
-1.0309e-10
3.91206e-09
1.0655e-10
4.47012e-09
1.11683e-08
-7.59185e-09
-8.04653e-09
1.51308e-08
-4.74075e-09
2.05392e-08
-3.94876e-09
-5.73493e-09
-2.75807e-09
3.99481e-09
1.38941e-08
7.49035e-10
7.66115e-09
4.22404e-09
9.00328e-09
-1.24783e-08
2.03369e-09
2.27296e-08
2.47068e-08
-1.63463e-08
1.69322e-08
4.72992e-09
-5.3158e-09
1.37471e-09
1.47254e-09
-6.23067e-09
-1.51326e-08
1.47665e-09
1.98866e-08
-5.7714e-09
-3.84446e-09
3.3852e-09
-1.74648e-08
-1.16621e-08
1.39943e-08
-1.6881e-08
-6.35523e-09
3.51489e-09
1.75517e-09
1.33981e-08
2.07136e-09
1.2471e-09
-8.31968e-09
5.13184e-09
2.40263e-08
-2.08384e-08
-3.32278e-09
1.41262e-08
-1.91231e-08
-1.35653e-08
2.01737e-08
1.38835e-08
2.49615e-09
-1.49071e-08
3.83311e-09
-1.65572e-08
9.38998e-09
1.29461e-09
-2.06944e-08
2.18959e-08
-7.17997e-10
1.69725e-08
1.73282e-09
7.14313e-09
-6.98605e-09
-1.8899e-09
4.47433e-09
-2.83358e-09
9.20718e-11
1.76325e-09
-9.01311e-10
6.2812e-09
1.0397e-09
5.19788e-09
-1.69916e-09
-5.46703e-09
1.80139e-10
4.15898e-09
-1.34837e-09
-4.50978e-09
1.44155e-09
-1.16154e-10
1.60203e-09
7.63948e-09
-1.01428e-08
2.68661e-09
-6.01409e-09
6.6364e-09
-3.30892e-09
4.14933e-09
-2.11625e-11
2.65258e-09
-7.23357e-09
6.18302e-09
1.08262e-09
-8.47237e-09
1.00423e-08
1.1253e-09
-8.48776e-09
-4.81385e-09
6.93617e-09
-4.90722e-09
4.24269e-09
9.85805e-10
7.43376e-10
9.1873e-09
-9.74031e-09
-6.68056e-09
1.70073e-09
-1.09914e-08
2.37636e-09
-1.43414e-10
3.05581e-09
1.90594e-10
-3.10299e-09
2.54726e-09
-2.70957e-09
1.8897e-11
1.62221e-09
-2.42014e-09
3.85374e-09
-1.28059e-08
-8.00227e-09
6.1365e-09
1.46717e-08
3.57866e-09
-5.23655e-09
-1.1148e-08
-2.80139e-09
3.56687e-09
2.67195e-09
-3.48941e-09
-2.74941e-09
-1.02403e-09
6.70165e-09
-2.11074e-09
-2.14385e-10
2.64127e-09
1.20374e-10
-4.47017e-09
1.16139e-08
-1.00724e-09
-2.96518e-09
-3.29539e-09
-2.43844e-09
4.66992e-09
1.91289e-11
2.59949e-09
-1.27986e-08
1.35289e-08
-3.32976e-09
5.8224e-12
-4.33756e-09
6.93123e-09
-4.75408e-09
5.69212e-09
1.3475e-09
-2.28554e-09
2.14401e-09
-6.4756e-09
-4.22498e-10
2.07622e-09
4.7927e-09
-4.7249e-09
5.78752e-09
-3.70548e-09
4.60117e-09
-6.20023e-09
8.66328e-10
7.32741e-10
-5.6719e-09
4.70609e-09
8.95088e-09
4.27772e-09
-6.63761e-09
-6.59099e-09
3.82254e-09
-4.33064e-09
-1.91672e-09
6.73573e-11
8.98415e-10
5.77441e-09
-8.85305e-10
5.65738e-09
3.37319e-11
-5.51906e-09
-7.46198e-10
-6.45421e-09
1.80148e-09
-8.46376e-10
7.38154e-09
3.57172e-09
-1.01069e-08
1.65029e-09
3.85364e-09
-1.12973e-10
-6.07342e-09
3.55463e-09
6.65092e-10
-4.06741e-09
-1.63742e-10
3.56606e-09
6.97453e-09
-5.68505e-09
-6.24386e-10
-3.67889e-09
-4.80339e-09
4.41488e-09
-5.01096e-09
1.56118e-09
-2.29118e-10
5.87744e-09
1.09807e-09
-7.13925e-09
1.39489e-09
-3.32654e-09
5.92199e-09
-3.99034e-09
3.66225e-09
-5.41911e-09
-3.2541e-09
-5.25822e-10
-6.15321e-10
-5.49085e-09
-2.5711e-09
9.45685e-09
-1.00357e-08
-1.67308e-09
6.21798e-09
1.74568e-10
3.62342e-09
-3.05566e-09
-7.42331e-10
-3.57671e-09
4.344e-09
-5.92725e-10
7.36e-09
2.02209e-10
-3.93879e-09
1.42494e-11
6.41633e-10
6.70412e-09
-3.65305e-09
-4.86376e-09
7.06053e-09
1.45628e-09
-4.58056e-09
4.6636e-09
-3.73609e-09
-5.68134e-09
3.0826e-09
-2.26502e-09
-3.82361e-10
-9.87954e-09
2.26781e-09
-5.70583e-09
2.45001e-09
-3.7589e-09
-6.52344e-09
6.03052e-10
5.93464e-09
-3.23863e-09
9.87145e-09
3.07089e-10
-5.51494e-09
-3.91923e-09
5.53464e-10
4.0074e-09
4.69346e-10
-4.45804e-11
1.02728e-09
6.6363e-09
1.86002e-10
1.07127e-08
-2.8553e-09
5.61239e-09
6.41347e-09
-5.67401e-09
-2.12391e-08
2.87566e-09
-3.50464e-09
2.1868e-08
1.2537e-08
-1.14596e-08
-2.23164e-08
-5.40214e-09
-8.11663e-09
2.60557e-08
8.55935e-09
-1.89003e-08
1.83024e-08
-7.96142e-09
-3.05233e-09
2.3921e-08
-1.23093e-08
-1.16538e-08
1.60388e-08
-7.43726e-09
1.90856e-08
-1.47945e-08
-1.41544e-09
2.78168e-09
8.17968e-09
-2.2421e-08
-1.39422e-08
1.85269e-08
-9.98687e-09
9.47587e-09
-2.06364e-08
-1.01913e-09
6.45768e-10
-1.64861e-08
2.28364e-08
3.12556e-09
1.34146e-08
-5.98288e-09
-1.49962e-08
8.38144e-09
1.94115e-08
1.7542e-09
-2.59047e-09
-1.85752e-08
3.34867e-09
1.81304e-08
-2.06766e-09
2.06319e-08
-7.81911e-11
-1.87995e-08
2.4356e-08
-3.75441e-10
-2.56319e-09
-1.40357e-08
9.26643e-09
7.33248e-09
8.36094e-09
7.20631e-09
-1.26038e-09
-1.53658e-08
-3.49899e-09
1.90365e-08
8.81845e-09
2.91056e-08
-2.68038e-09
-2.65034e-08
1.87417e-08
6.86496e-09
-6.30069e-10
1.91774e-09
1.37e-08
-1.49877e-08
-1.48277e-08
1.29373e-08
1.22397e-08
1.51577e-08
1.37848e-08
-1.45475e-08
1.32274e-08
3.06477e-09
-7.0257e-09
-3.20579e-09
5.42547e-09
1.14804e-08
-6.03451e-09
1.34965e-08
7.53324e-09
-1.49952e-08
8.09192e-09
-8.99067e-10
4.899e-09
3.82094e-09
5.06489e-09
1.23985e-08
1.12421e-08
6.35722e-09
2.04852e-08
-1.33459e-08
-3.45557e-09
1.79047e-08
2.11827e-08
3.33041e-09
6.81468e-09
1.66363e-09
-1.18087e-08
7.7315e-09
3.58058e-09
-7.98167e-09
-1.01815e-10
6.13613e-09
7.80363e-10
6.88749e-09
7.42202e-10
2.51963e-09
2.15374e-09
-1.09278e-09
6.31597e-09
-1.02549e-09
-7.53218e-09
2.2417e-09
1.32148e-09
-8.93051e-09
1.3925e-08
3.77441e-09
1.33622e-09
-3.1447e-09
8.24059e-09
6.2607e-09
3.14641e-09
2.99424e-09
7.16023e-09
-8.49085e-09
7.16884e-09
-2.02086e-09
1.32598e-08
-1.36318e-08
-2.69942e-09
7.02874e-09
-3.65895e-09
6.77495e-09
8.10472e-10
1.47902e-08
3.65784e-10
-1.50528e-09
-1.36507e-08
1.11571e-08
3.92511e-10
3.24064e-09
-1.16849e-08
2.88253e-09
7.72276e-09
1.07958e-09
9.76036e-09
-1.06743e-08
-1.07709e-08
1.15431e-08
2.49644e-09
-2.15942e-08
1.67145e-08
5.27223e-09
-2.01316e-09
-1.92153e-08
-1.43661e-08
-2.25855e-09
1.49189e-09
1.51327e-08
4.00005e-09
-1.65162e-09
-8.84876e-09
8.96753e-09
7.60399e-09
7.13377e-10
1.98224e-10
8.25965e-09
1.05022e-08
-9.62251e-09
-9.13939e-09
8.0764e-10
6.42048e-09
1.03153e-09
-6.06251e-10
-1.15734e-08
-4.8241e-10
9.767e-09
-1.16199e-08
-9.11173e-10
1.4023e-08
-1.10961e-08
3.47626e-09
-1.17333e-08
1.44484e-09
-1.37314e-09
-1.23733e-08
1.42454e-09
7.06058e-09
-1.09817e-08
8.3112e-09
9.09093e-09
2.33968e-10
-1.16019e-08
8.82457e-09
-1.85937e-09
1.55603e-08
-7.4723e-09
-6.2286e-09
-9.42742e-09
-1.70452e-09
3.92274e-09
7.2092e-09
-1.07151e-08
-6.59009e-09
7.87773e-09
-1.00952e-08
-1.1292e-08
1.95278e-08
-6.58207e-09
-1.67858e-08
1.32727e-08
-8.51629e-10
-7.72337e-09
-2.48738e-09
1.10624e-08
-1.66296e-08
5.32771e-09
4.25215e-09
7.04974e-09
-1.21874e-08
-5.29379e-09
-1.26997e-08
6.7355e-09
6.70054e-09
-1.08025e-08
-8.59776e-09
-1.44726e-09
-9.23487e-09
-3.2934e-11
-7.55092e-09
-1.61972e-09
-1.29118e-08
4.62523e-09
-3.82932e-09
-6.25596e-09
-4.40609e-09
3.9416e-09
8.61668e-09
-1.39099e-08
-8.12446e-09
-1.1881e-08
3.22855e-09
-1.59574e-09
1.02482e-08
-4.3363e-09
-6.9628e-09
-5.81858e-10
1.49666e-08
-1.71493e-08
9.98627e-09
-7.8036e-09
6.38019e-09
-1.9962e-08
2.05879e-08
-7.00609e-09
1.15885e-09
-4.17745e-09
1.79852e-08
-1.53165e-09
1.08594e-08
-8.16893e-09
8.00702e-09
-8.16059e-09
-4.18273e-09
9.70391e-09
2.01865e-09
-1.54854e-08
1.1871e-08
1.50583e-09
-1.22749e-08
-1.8492e-08
1.63332e-08
4.8451e-09
-1.10465e-08
-7.61446e-10
-1.3926e-08
3.28564e-09
-4.53828e-09
-1.24479e-08
-8.45553e-09
1.05116e-09
-7.56216e-10
3.0071e-09
-1.31876e-08
1.72499e-09
6.10158e-09
-1.41409e-08
-1.23627e-08
2.89913e-08
-1.55372e-08
1.12174e-08
-2.46715e-08
2.11694e-08
-7.5228e-09
1.53447e-08
6.28001e-09
5.10876e-09
4.82117e-09
-3.87185e-09
-1.64865e-08
6.52582e-10
-3.35421e-09
-1.04422e-08
8.76884e-09
-5.0453e-09
6.71867e-09
-4.747e-09
-5.04262e-09
3.80088e-09
1.98053e-08
-3.13026e-09
-5.45765e-09
8.00597e-09
-3.65973e-09
-6.43825e-09
-8.22146e-09
1.09914e-08
-3.52216e-09
-1.22162e-08
-6.59828e-10
-9.20717e-09
3.42875e-09
-1.24195e-08
3.53821e-09
-1.73132e-08
6.82834e-09
5.43955e-09
6.62078e-09
-1.29426e-08
7.73873e-09
-1.03543e-08
-5.19544e-09
1.38243e-08
-3.4883e-09
-3.71516e-09
1.14454e-08
-6.10388e-09
-3.18199e-09
-8.87545e-09
-3.03485e-09
1.50923e-08
-1.04099e-08
-6.85823e-09
1.40862e-08
-1.63869e-09
-1.49577e-08
6.1865e-09
-1.40847e-08
3.57053e-09
1.58642e-08
7.02798e-09
-1.10009e-08
-1.18913e-08
1.78401e-09
-8.77543e-10
-1.33866e-08
2.07296e-09
4.45538e-09
-1.34849e-08
1.88235e-09
-7.00761e-09
-4.90748e-11
-7.46436e-09
-1.28489e-08
1.72785e-08
-1.29293e-08
7.5379e-09
-1.73702e-09
-1.01586e-08
-1.58931e-09
2.78569e-09
-6.17143e-10
1.11742e-08
-1.33427e-08
1.47507e-08
-1.3702e-08
8.69724e-09
-1.56662e-08
-5.96038e-09
-9.44395e-09
5.29225e-09
8.87503e-09
-1.08791e-08
1.38691e-09
-9.02983e-09
8.11432e-09
5.5429e-09
-3.39859e-09
-1.40064e-08
-2.44513e-09
4.11486e-10
1.5886e-08
-1.96695e-09
1.33472e-09
-1.52537e-08
1.42232e-08
-5.56635e-09
7.22909e-09
-5.57863e-09
-4.64296e-09
2.44448e-08
-1.21428e-08
-8.79555e-09
1.53597e-08
-1.83775e-08
6.68359e-10
-2.67802e-08
2.39428e-08
5.79712e-09
-2.95973e-09
8.65868e-09
-8.15035e-09
-2.72885e-08
-1.71112e-08
-1.11476e-08
2.36158e-08
-1.91106e-08
3.24977e-11
-1.77085e-09
8.45194e-09
-1.54766e-08
2.05889e-09
-1.73614e-08
-3.07497e-09
-1.66176e-08
2.03358e-08
2.02246e-08
9.71231e-10
-8.93012e-09
-1.6432e-08
3.11852e-09
-9.16759e-10
-2.36656e-08
7.4173e-09
6.15911e-09
-2.14981e-08
1.44223e-08
7.48979e-09
-1.40557e-08
1.27251e-08
6.5196e-09
-1.43441e-08
1.53143e-08
-8.97374e-09
1.64646e-08
3.95808e-09
7.84501e-09
-2.31248e-09
-9.49061e-09
8.80011e-09
-4.95237e-09
1.10352e-10
4.42222e-10
3.15947e-09
4.24332e-09
4.07587e-09
5.16646e-09
1.19785e-08
8.2575e-09
-4.93513e-09
-1.53008e-08
1.30664e-08
-6.37795e-10
-4.50198e-10
-2.35476e-08
1.36743e-08
3.11152e-09
6.76185e-09
2.19471e-09
-1.74849e-08
-1.49922e-08
1.74485e-08
1.1218e-08
-1.85315e-08
1.115e-08
-7.6108e-09
1.98878e-09
-1.1558e-08
4.63411e-09
7.27593e-09
2.9305e-09
2.69807e-09
-1.29045e-08
-5.18977e-09
1.95588e-11
8.67449e-09
-3.50428e-09
4.567e-09
6.78479e-09
-5.18174e-09
-1.1155e-08
9.94824e-09
6.22972e-09
1.78342e-09
-5.70202e-09
8.4856e-09
-7.74168e-09
-5.49503e-09
1.50201e-08
6.52962e-09
7.18565e-10
3.90185e-09
1.62365e-08
5.55931e-09
-8.75227e-09
9.49348e-09
4.48734e-09
-8.42151e-09
8.20538e-09
4.2186e-09
7.61268e-09
3.22193e-09
1.05967e-08
2.01494e-08
-9.09527e-09
-2.16508e-08
-4.32843e-09
2.47908e-08
-9.86572e-09
2.12017e-08
5.84839e-09
-6.90063e-09
1.92644e-08
-7.31359e-09
9.25087e-09
1.22304e-08
-1.12422e-09
1.65246e-08
-2.76308e-08
-8.64475e-09
1.65467e-08
1.21291e-08
-2.23486e-08
-6.07274e-09
1.38884e-08
1.14487e-08
-2.00858e-08
8.03086e-09
5.98216e-09
-1.31058e-08
1.52308e-08
2.24641e-09
1.17358e-08
-1.7284e-08
2.20729e-08
5.33727e-09
-6.31397e-09
1.19077e-08
-1.25964e-08
8.71948e-09
-1.26829e-08
2.18958e-08
2.69486e-09
1.93267e-08
-2.25365e-09
1.03179e-08
-3.58759e-09
7.59528e-09
-9.9603e-09
1.48586e-08
1.20751e-08
-1.17029e-08
-1.24339e-08
7.45005e-09
8.81197e-09
-3.82813e-09
8.21438e-09
-5.55143e-09
-1.04334e-08
7.77043e-09
-2.76322e-09
-1.2959e-09
5.13441e-09
2.7978e-09
2.80688e-09
3.34727e-09
6.15397e-11
-6.96224e-09
5.26778e-10
6.37392e-09
4.98959e-10
5.49722e-09
-7.08192e-09
2.56773e-09
-2.44804e-09
5.00464e-09
-1.28211e-08
-4.1054e-09
1.00833e-08
5.4728e-09
-1.14507e-08
3.95165e-09
-1.02506e-09
-7.032e-09
-8.25744e-11
-4.86158e-09
-4.67021e-09
-5.50802e-09
1.00956e-08
2.81371e-09
-1.06849e-08
4.05418e-09
3.81703e-09
1.11245e-09
-2.21286e-09
2.30102e-10
-1.77247e-08
6.58753e-09
1.02381e-08
-4.34341e-09
-1.03165e-08
5.70475e-09
-7.56124e-09
9.21346e-09
-7.85213e-09
9.53171e-09
-1.72197e-09
8.19119e-10
1.38551e-08
-1.29522e-08
-9.29552e-12
-1.59569e-08
1.42442e-08
1.28085e-09
1.96111e-08
-1.81789e-09
-1.9074e-08
1.7136e-08
-1.50361e-08
1.16321e-09
2.40666e-08
-5.61871e-09
2.17074e-08
-3.40814e-09
1.22162e-08
-1.10849e-09
2.74734e-09
1.48797e-08
2.49908e-08
-1.85968e-10
-3.09744e-09
1.44446e-08
8.07013e-09
1.55181e-09
1.59247e-08
2.35107e-08
-7.04524e-09
4.94021e-10
-8.48863e-09
1.50399e-08
-3.1592e-09
-1.43179e-08
2.21048e-08
-4.62771e-09
-4.98548e-09
1.7751e-08
1.38705e-08
-1.84024e-09
-1.15446e-08
5.29683e-09
-3.71014e-09
7.451e-09
1.43401e-09
9.13127e-09
1.16957e-08
-1.22833e-08
-8.54372e-09
4.82821e-09
-3.91293e-09
8.21599e-09
1.56982e-09
1.49541e-08
-7.54596e-09
2.72928e-09
-3.67279e-09
8.48947e-09
-8.73855e-09
1.35853e-09
-1.65945e-10
-8.36292e-11
-8.13923e-09
1.14114e-08
-3.18858e-09
-6.32573e-09
-2.49645e-09
-2.06711e-09
-2.58183e-10
-5.81393e-09
1.0807e-09
4.14465e-09
-7.29246e-09
3.09476e-09
9.6636e-09
-1.16777e-08
1.11667e-08
-8.33015e-09
-4.30467e-10
-2.18921e-09
9.29521e-09
-9.31979e-09
1.38312e-09
1.35943e-08
3.02853e-10
7.43579e-09
7.41976e-09
-9.60084e-09
7.55665e-09
-2.3305e-09
1.41687e-08
-4.35954e-09
-1.86485e-08
8.83928e-09
7.62629e-09
-1.10732e-08
1.76157e-08
6.36174e-09
-7.48441e-09
8.35285e-09
-7.23018e-09
-4.44539e-09
1.84334e-08
-1.52868e-08
3.44282e-09
1.1757e-08
-1.52267e-08
-1.51787e-08
-4.71981e-10
1.15571e-09
-8.51941e-09
1.10995e-08
-7.02547e-09
8.02134e-10
-3.32878e-09
-1.27601e-08
7.92269e-09
7.78444e-09
-7.93786e-09
-7.76927e-09
-7.36795e-09
1.46709e-08
6.19724e-10
-1.68395e-09
1.02705e-08
-8.82544e-09
1.04424e-08
-8.98491e-09
-1.95658e-08
2.8025e-09
2.98299e-09
-2.97718e-10
1.19856e-08
8.89895e-09
1.07147e-09
3.36253e-09
-5.56892e-09
-4.98613e-09
4.84314e-09
-5.24342e-09
-6.00512e-09
2.97565e-09
4.59914e-09
-1.41448e-09
-8.48275e-09
5.29809e-09
-1.23436e-09
5.90084e-10
-1.34325e-08
4.56411e-09
-4.98341e-09
6.69416e-09
-6.27487e-09
-6.26963e-09
1.24501e-08
-1.61637e-09
6.86058e-09
-2.49511e-09
-9.34888e-09
-2.35267e-09
2.94362e-09
-8.18901e-09
-3.37339e-10
6.17368e-09
-1.20015e-08
9.40786e-09
5.59315e-09
-2.99951e-09
-6.21711e-09
-9.15739e-10
-1.05616e-09
2.25709e-09
-4.16542e-09
-1.00932e-08
-4.78428e-09
-7.1531e-09
1.41945e-08
-5.28303e-10
-9.85423e-09
-1.23266e-08
7.01403e-09
2.29133e-10
-2.09681e-09
8.40692e-09
-6.53925e-09
-2.52112e-09
1.04512e-08
-7.70093e-09
-2.93074e-10
4.40709e-09
-6.63514e-09
3.17352e-09
-5.5634e-09
8.4588e-10
9.2193e-09
3.86009e-10
6.52117e-09
3.94731e-09
-6.06139e-09
6.57545e-09
7.91602e-10
-6.75627e-09
5.95757e-09
1.0018e-08
1.68275e-09
-3.20971e-11
4.76232e-09
3.22636e-09
-4.81516e-09
-3.48082e-09
4.61154e-09
5.44473e-09
5.24014e-10
-5.75242e-11
5.50168e-09
2.64285e-10
-5.30435e-09
-4.61609e-10
-4.01228e-09
1.96771e-09
7.54625e-09
-3.65989e-09
-8.8098e-11
1.14072e-09
3.53259e-09
5.15717e-10
1.90926e-09
-2.67579e-09
8.17609e-09
2.45147e-09
9.0483e-11
-2.66839e-09
6.2541e-09
-6.29143e-09
2.70572e-09
-4.59518e-09
2.06942e-09
-1.42633e-10
1.2152e-09
-4.69646e-11
5.08587e-09
-6.7259e-10
-6.96354e-09
1.3447e-09
3.46555e-10
-5.61433e-09
-4.02874e-09
8.73986e-10
4.36995e-09
-2.0156e-09
5.62902e-11
6.54416e-09
-8.12118e-09
-4.33397e-09
2.42445e-09
-1.06089e-10
-1.38608e-09
-9.59545e-09
-7.11925e-10
1.23043e-09
-5.21784e-09
1.02991e-08
-8.39208e-09
-9.10976e-09
8.9541e-09
-8.88425e-09
5.88856e-09
2.33724e-09
6.58455e-10
-3.55442e-10
-4.46007e-09
-4.06875e-09
7.59907e-09
-4.19648e-09
-3.75804e-09
8.62709e-09
-3.65365e-09
2.62563e-09
9.59284e-09
4.92281e-09
-2.09081e-09
4.15993e-09
-6.52919e-09
3.12822e-09
3.54658e-09
-8.76561e-09
6.28294e-09
-7.3512e-09
1.47955e-09
1.33534e-08
-1.12864e-08
-3.14389e-09
1.54972e-08
-1.08738e-08
6.81608e-09
-6.29373e-09
5.76058e-09
5.78679e-09
9.67328e-09
-5.86723e-09
-1.10881e-08
8.80412e-09
4.58216e-09
-2.29819e-09
3.7789e-10
-4.64989e-09
8.87476e-09
-7.85872e-09
-1.69985e-08
7.2981e-09
-6.9082e-09
1.66086e-08
-1.00189e-08
-6.60173e-09
8.20676e-09
-4.87228e-09
1.71777e-08
6.52633e-09
7.10996e-10
1.53912e-08
9.88592e-09
1.32608e-09
1.50274e-09
8.76671e-09
-4.83297e-09
1.13308e-08
6.5557e-09
2.74776e-09
8.08289e-09
-8.13457e-09
-2.69607e-09
-7.68824e-09
9.57101e-09
1.23033e-08
-1.71233e-09
-2.50811e-09
-1.11738e-09
1.49959e-08
-1.57522e-09
-1.65205e-09
9.11504e-09
-8.58036e-09
-1.16127e-09
2.08238e-09
-8.60936e-09
-1.06619e-08
-8.54847e-09
4.52529e-10
1.55771e-09
6.53823e-09
-8.13204e-09
-2.84802e-09
2.43158e-09
-1.59572e-09
-5.70075e-09
5.64443e-09
-6.64701e-09
5.50381e-09
-1.35549e-09
6.82981e-09
-5.11446e-09
-7.40514e-09
2.91466e-09
-1.36983e-09
-4.11537e-09
3.83018e-10
-1.33578e-10
7.97497e-09
6.21821e-09
-9.07626e-09
-5.11691e-09
8.20879e-09
3.16855e-10
-7.39751e-09
-1.12814e-09
7.918e-09
7.03318e-09
-6.74238e-09
-2.62608e-10
5.19141e-09
-4.61195e-09
-5.85802e-10
4.97294e-09
-4.64974e-09
8.07159e-10
6.42819e-09
-2.60827e-10
5.30769e-09
-5.08633e-09
-3.26492e-09
6.77957e-09
2.91354e-09
2.18457e-09
-1.41802e-10
-2.08018e-09
1.7323e-09
3.0383e-09
-1.45538e-10
5.19265e-09
3.02229e-11
2.00708e-10
5.24401e-09
2.27175e-09
4.70854e-09
5.5922e-09
-2.26479e-08
-5.11058e-09
1.23322e-08
1.54262e-08
-7.25667e-09
1.38695e-09
-1.67782e-08
2.14577e-08
-6.0089e-09
-2.27054e-08
6.37449e-09
9.97258e-09
5.34779e-10
9.69985e-09
4.11342e-09
-1.4348e-08
1.20615e-08
-1.75357e-08
-1.36579e-08
2.10771e-08
4.91309e-09
-2.17234e-08
9.20448e-10
7.14499e-09
-5.52887e-09
-1.48076e-08
-4.09144e-10
1.41047e-08
-1.63405e-09
1.07786e-08
-1.48792e-09
5.57667e-09
-1.45914e-08
9.93518e-09
-1.61133e-08
1.46978e-08
8.85772e-09
1.16215e-08
-1.31081e-08
1.8931e-08
3.03486e-09
3.95087e-10
-2.72462e-09
1.0074e-08
8.08421e-09
-6.82569e-09
-1.13325e-08
2.37066e-09
3.34392e-09
4.35941e-09
7.05222e-09
-8.23784e-09
3.55629e-09
-9.89633e-09
5.03397e-09
1.19146e-08
4.53982e-09
-1.235e-08
-4.27632e-10
-9.67545e-09
4.31894e-09
-9.73029e-09
5.77289e-09
7.30132e-09
1.98845e-09
-3.63454e-09
6.56636e-09
8.12101e-09
-3.95739e-09
-1.073e-08
-3.49802e-09
-3.21771e-09
6.25885e-09
4.5688e-10
-9.11387e-09
9.90422e-09
4.98254e-09
-7.08275e-09
1.26281e-08
-5.11408e-10
-3.65298e-09
-9.39179e-09
3.9309e-09
-7.54573e-09
3.94738e-10
-3.23951e-09
-7.08265e-09
3.23941e-09
-6.81716e-09
3.59937e-10
8.06784e-09
-5.36758e-09
-1.50503e-08
1.64862e-09
-3.25623e-09
3.89084e-09
-5.65374e-09
-5.78283e-09
-3.51249e-09
2.87751e-09
-4.8717e-09
-4.82297e-09
-2.55652e-09
2.05435e-09
-1.42476e-08
-8.47109e-09
3.10938e-09
3.01561e-09
-5.91719e-09
-2.07788e-10
7.72569e-09
-7.93326e-09
3.31694e-09
-4.55897e-09
-2.28702e-09
5.6054e-10
6.28545e-09
-1.48289e-09
-6.04754e-11
-2.05295e-09
7.49163e-09
-2.63304e-09
-3.31212e-11
-5.26709e-09
-2.7073e-09
9.92853e-09
-6.66069e-09
1.5789e-09
6.18405e-09
-9.8159e-09
9.34493e-09
-7.57477e-09
5.9591e-09
-7.72925e-09
-2.28213e-09
1.08667e-08
7.60335e-10
-7.34661e-09
-1.49986e-09
6.56434e-09
-2.07815e-09
-1.28432e-08
4.60033e-09
-1.13188e-08
4.64029e-09
4.76249e-09
-1.66287e-09
1.50072e-09
-9.93999e-09
8.81159e-09
8.14894e-09
-9.31719e-11
-2.09667e-09
9.07568e-09
-5.07142e-09
-1.71809e-09
6.69634e-09
-5.33969e-09
5.03076e-09
-1.47354e-10
-1.31988e-09
9.56873e-09
-8.10149e-09
7.99482e-09
-2.92282e-10
-5.86339e-09
-1.83915e-09
-1.45749e-09
9.30495e-09
2.89991e-10
-7.21005e-09
1.29903e-09
5.62103e-09
1.21477e-09
-5.42397e-09
4.49919e-09
6.72074e-09
-6.96345e-09
2.0976e-09
-2.10348e-09
-7.20417e-09
-3.46189e-09
1.35527e-10
-2.23275e-09
-6.71306e-09
2.08647e-09
6.85933e-09
-5.60999e-09
-8.46465e-11
-2.3227e-09
-4.98927e-09
1.70198e-09
-8.34051e-09
8.59722e-09
-8.61808e-09
-6.11672e-09
8.27846e-09
1.02599e-09
-8.04849e-09
1.89983e-09
-1.64152e-09
8.60086e-10
-6.88653e-09
-2.02204e-09
-5.97229e-09
1.14549e-09
4.73692e-11
4.77943e-09
2.35245e-09
-5.60834e-09
-2.7164e-09
3.69996e-09
6.13838e-09
-5.87026e-09
-3.96807e-09
-1.09999e-09
4.69146e-09
1.08491e-10
3.80098e-09
-9.16723e-10
1.96283e-10
-3.08054e-09
2.70316e-09
-2.17059e-12
-4.9739e-09
9.89085e-10
8.17067e-11
6.52811e-09
4.31594e-11
-4.32886e-10
6.01897e-09
9.72806e-09
-7.06995e-09
-1.79802e-09
5.82263e-10
-7.54207e-09
5.94793e-09
-6.79655e-09
-7.63205e-09
-7.48363e-10
-5.7767e-09
-1.13599e-09
-4.53799e-09
-6.48661e-09
-5.40179e-10
8.77547e-10
-8.42246e-09
-6.74505e-09
-1.34648e-08
1.81385e-09
-3.78846e-09
1.54394e-08
-1.02451e-08
3.96101e-09
-7.18078e-09
-2.85397e-09
1.75638e-08
-1.2896e-08
-6.90862e-09
-1.17091e-09
-1.20842e-08
2.01637e-08
-5.41774e-09
-1.83401e-08
1.68492e-08
1.37733e-10
-8.76647e-09
-1.61632e-09
1.22026e-08
-1.02774e-08
-1.78742e-09
-1.53827e-09
9.95241e-09
-9.61182e-09
-7.933e-10
1.27669e-10
2.78576e-09
1.18888e-09
-1.35865e-08
-1.13985e-08
-6.16416e-09
-1.04597e-08
1.5453e-08
-1.56057e-08
1.57986e-08
-9.86193e-10
-2.05809e-08
1.10887e-08
3.17162e-09
-3.49448e-09
1.34932e-09
-5.15217e-09
7.29733e-09
5.57185e-09
-6.84166e-09
-2.22467e-09
-6.31561e-09
7.61591e-09
-6.34809e-09
5.04779e-09
1.60051e-09
-1.66747e-10
4.13809e-09
-3.48343e-09
4.13911e-09
5.79439e-09
-6.45007e-09
-8.12039e-09
-1.24046e-10
4.761e-09
1.46661e-09
2.93658e-09
8.47287e-09
2.55075e-09
-7.92579e-09
-1.41505e-08
6.91098e-09
9.23959e-10
3.3537e-09
-6.09902e-09
5.29384e-10
-7.30103e-09
-2.74355e-09
5.84141e-09
4.20317e-09
-3.45757e-09
4.33263e-09
3.99077e-09
9.79122e-11
1.32589e-09
-7.86774e-11
5.14014e-09
1.72428e-10
-9.79939e-10
1.54477e-09
9.43678e-09
-2.72456e-09
-1.49787e-09
5.76719e-09
9.76626e-10
-3.6187e-09
-8.24776e-11
-4.52118e-09
7.77803e-09
-4.75471e-09
-4.55759e-09
1.01303e-09
-2.42819e-09
1.35374e-10
-3.63701e-09
-1.02842e-09
1.07847e-10
2.90898e-09
3.35956e-09
-6.17064e-09
-5.84236e-10
3.66565e-09
-2.70564e-09
-1.59568e-08
-3.72915e-09
1.85258e-08
1.16009e-09
2.25054e-08
-3.35119e-09
-2.37194e-08
4.56515e-09
9.93153e-09
1.58916e-08
-3.31774e-09
1.44373e-08
-1.81442e-08
3.55721e-10
-9.6464e-09
-4.36449e-09
2.1064e-08
-7.05316e-09
1.15333e-08
-8.01801e-09
-1.31617e-08
1.35788e-08
2.09433e-09
-1.23579e-09
1.91458e-08
5.29031e-09
6.26184e-09
-6.43669e-09
-5.11546e-09
4.95578e-09
4.08291e-10
-7.37619e-11
-3.24333e-10
6.66692e-10
5.91948e-09
1.8871e-10
4.44274e-09
4.46895e-09
5.36547e-09
-5.60058e-09
-4.23383e-09
4.90092e-09
-2.36835e-11