/*--------------------------------*- C++ -*----------------------------------*\
| =========                 |                                                 |
| \\      /  F ield         | OpenFOAM: The Open Source CFD Toolbox           |
|  \\    /   O peration     | Version:  v1612+                                |
|   \\  /    A nd           | Web:      www.OpenFOAM.com                      |
|    \\/     M anipulation  |                                                 |
\*---------------------------------------------------------------------------*/
FoamFile
{
    version     2.0;
    format      ascii;
    class       surfaceScalarField;
    location    "239";
    object      phi;
}
// * * * * * * * * * * * * * * * * * * * * * * * * * * * * * * * * * * * * * //

dimensions      [0 3 -1 0 0 0 0];

internalField   nonuniform List<scalar> 
36955
(
-1.14888e-09
5.26216e-10
-6.82001e-09
7.44265e-09
-2.75392e-09
3.10614e-09
1.83314e-09
-2.1857e-09
4.03583e-09
-5.36131e-10
3.68339e-09
4.1928e-09
-3.84039e-09
6.68483e-09
1.04568e-10
1.12103e-09
3.79562e-09
2.34308e-09
4.65278e-10
3.87652e-09
-8.6362e-10
4.00199e-09
-2.01706e-09
3.06701e-09
-2.09764e-09
-4.2498e-09
-1.48674e-09
3.61867e-09
2.11768e-09
1.3133e-09
-2.49608e-09
4.46499e-09
4.84086e-09
8.13498e-10
3.02224e-09
6.30278e-10
-7.53e-10
5.75957e-09
-4.53129e-09
4.22371e-09
3.33002e-09
2.034e-09
2.57515e-09
-5.97008e-11
-4.88048e-09
2.55014e-09
5.94893e-09
-1.22403e-09
-4.18026e-09
1.29151e-09
7.1124e-09
4.28971e-10
8.00644e-09
-4.1647e-09
1.41775e-09
9.45659e-10
8.12046e-09
-1.04838e-08
-1.25758e-08
2.07551e-09
1.1918e-08
-9.09657e-09
-7.18176e-10
-2.761e-09
-2.1968e-10
-5.50293e-09
6.66828e-09
1.95539e-09
-8.60346e-09
8.72359e-09
-5.21497e-09
6.9507e-09
6.70531e-09
-3.05376e-09
-6.55576e-09
2.90424e-09
-4.20455e-09
5.40694e-09
4.81619e-09
-6.43056e-09
-6.98903e-09
-8.96053e-10
4.9726e-10
5.03645e-09
-7.45149e-09
-6.38714e-10
-6.41414e-11
-1.54884e-09
2.20029e-09
4.38104e-09
-5.0323e-09
3.48561e-09
-6.14795e-09
1.11356e-09
-1.61639e-09
7.3023e-09
-1.0142e-08
-3.37592e-09
7.37002e-09
-4.96106e-09
1.6323e-09
-6.81331e-09
-3.69107e-09
3.04863e-09
3.79217e-09
-3.14978e-09
1.51315e-09
4.16535e-09
-9.36957e-09
-5.66276e-09
1.5534e-09
7.33496e-10
-9.11072e-09
-5.83389e-09
-4.90413e-09
9.12168e-09
3.28197e-09
-4.12984e-09
-4.98603e-09
-2.27766e-09
6.55484e-10
2.03799e-09
4.12756e-09
-2.00023e-09
4.41119e-09
6.75404e-10
-1.2496e-09
7.0095e-09
1.21572e-09
1.54844e-09
5.85081e-10
3.73627e-09
1.1995e-09
4.38803e-09
-9.324e-09
3.78206e-09
5.69666e-09
-5.74247e-09
-6.09699e-09
-3.92254e-09
5.25362e-09
4.76611e-09
-2.91918e-09
-3.11993e-09
-5.77914e-11
-4.54958e-09
-1.08015e-09
1.70703e-09
-3.94843e-09
-3.52045e-09
4.34592e-09
-7.0949e-09
2.68278e-09
-1.45675e-09
5.86518e-09
-5.92055e-09
4.44339e-09
-1.69181e-10
6.63401e-09
-7.23117e-10
9.07268e-09
-2.48434e-09
8.46816e-09
-3.49464e-09
-3.50761e-09
2.72047e-09
9.85995e-09
5.48541e-09
-5.24837e-10
1.00137e-08
-1.13941e-09
-6.15355e-09
1.33457e-08
-1.51825e-08
5.02163e-09
-3.18442e-09
-9.75234e-09
1.12522e-08
1.18469e-08
-4.04416e-09
-2.86606e-10
-5.42104e-09
-4.98223e-09
-1.42443e-08
1.46485e-08
-9.49937e-09
-1.2723e-10
4.24306e-09
-6.56667e-09
1.69726e-08
-2.05114e-09
1.75466e-08
-5.48048e-09
7.7708e-09
-2.57652e-09
-2.94522e-09
-4.46219e-09
9.11945e-09
-1.71137e-09
-1.88004e-09
-6.04716e-09
3.14301e-09
-9.4847e-09
-6.54963e-09
-5.78346e-10
1.64786e-09
-1.41585e-08
1.0752e-08
1.02878e-08
-1.06675e-08
-2.53464e-10
3.97547e-09
-5.18251e-09
1.09023e-08
-4.5698e-09
1.2114e-08
-1.27258e-08
2.33559e-09
-7.15763e-09
5.53943e-09
1.58276e-08
-2.01707e-08
-1.19578e-09
1.76677e-08
6.80364e-10
-1.28084e-08
1.30105e-08
-4.35198e-09
7.16943e-09
1.40683e-08
1.66102e-08
1.95937e-08
-5.38474e-09
-1.35283e-08
8.26027e-09
7.38694e-10
1.0595e-08
-1.19602e-08
1.09493e-08
9.2715e-09
1.74239e-08
-1.84651e-08
-4.34342e-09
-1.32334e-08
-1.41455e-09
7.88492e-09
6.7636e-09
-8.08062e-09
6.39778e-09
-1.15503e-08
4.04938e-09
6.43536e-10
1.76097e-08
-3.41007e-09
-1.4843e-08
1.66494e-08
-1.99413e-09
-1.40116e-08
1.49334e-08
1.93257e-08
-5.17091e-09
2.56784e-09
1.02194e-08
-7.61618e-09
7.45167e-09
2.31098e-09
6.67087e-09
1.40671e-08
-1.32863e-08
-8.31813e-09
1.7557e-08
-3.71826e-09
-9.20433e-09
9.51259e-09
-1.29735e-08
1.00063e-08
-7.51054e-10
-1.19799e-08
1.34801e-08
-3.49434e-09
-5.36212e-09
3.75932e-09
-6.71519e-09
1.57385e-09
4.19818e-09
-1.11341e-08
-7.06048e-09
-3.70551e-10
-3.22804e-09
1.06595e-08
-1.61264e-09
2.15933e-09
-7.60697e-09
-3.74236e-09
1.06225e-08
-4.60509e-09
-2.27447e-09
9.76481e-09
-4.08218e-09
-9.42431e-09
-5.09996e-09
-4.4377e-09
9.16755e-09
-7.48259e-09
7.70214e-10
-1.35808e-09
-8.24952e-09
6.38046e-09
-5.42164e-09
1.16072e-08
2.98545e-09
-4.83e-09
-9.05318e-10
-2.51405e-09
-6.0622e-09
-2.84973e-09
9.79822e-10
-6.86481e-09
-1.59741e-09
3.99761e-09
-1.03768e-08
7.56292e-09
-1.18365e-09
-1.01261e-08
3.95056e-09
1.01727e-08
-3.32874e-10
-6.49304e-09
-3.55119e-09
9.34114e-09
-2.04285e-09
-7.63139e-09
-3.90953e-10
3.4008e-09
4.55252e-09
-5.74557e-09
4.63791e-09
-9.01867e-09
2.47566e-09
9.99463e-10
-9.22082e-09
6.71925e-09
2.23035e-09
-2.50247e-09
-5.85544e-09
9.8995e-09
-1.54242e-09
-6.8737e-09
3.32706e-09
1.04235e-09
-1.23853e-09
1.00388e-08
-1.17657e-08
2.96528e-09
9.53067e-09
-1.2812e-08
-3.56725e-09
6.61125e-09
-2.71039e-09
-3.33684e-10
1.28257e-08
-6.35424e-09
-1.10789e-08
1.02099e-08
7.48023e-09
5.91868e-09
-4.1719e-09
-6.44144e-09
7.30522e-09
3.78848e-10
-8.59545e-09
1.19316e-08
-2.01216e-10
-1.00501e-08
-9.43104e-09
1.42333e-08
5.2479e-09
-9.13913e-09
-2.45492e-09
1.544e-09
1.42622e-08
-1.37171e-08
-9.68443e-09
-3.49118e-09
8.32249e-09
2.21935e-08
-5.31368e-09
3.23208e-10
-1.7203e-08
9.43405e-09
4.23335e-09
8.52613e-09
-1.05933e-08
-7.58456e-10
8.89693e-09
1.95625e-09
-9.67739e-09
4.23011e-09
-1.149e-08
8.43562e-09
5.01074e-09
-1.37173e-08
1.31632e-08
9.9882e-09
-4.76343e-09
-1.42675e-08
1.69991e-08
-3.04764e-09
-1.36281e-08
9.74242e-09
3.54471e-09
-1.23007e-08
-4.96121e-09
-6.36199e-09
2.29278e-10
3.07637e-09
2.10285e-09
-1.74799e-08
-6.33329e-09
-1.32539e-08
-4.13107e-09
-2.59991e-11
-7.56529e-09
1.17222e-08
-7.60309e-09
-2.71592e-09
6.1879e-09
-4.5356e-09
-9.50915e-09
1.40187e-08
-2.84965e-09
-1.17688e-08
1.00828e-08
-4.7378e-09
-9.29148e-09
9.23343e-09
4.79582e-09
-7.74713e-09
3.30102e-09
-2.91727e-10
1.22799e-09
-8.25978e-10
-8.14915e-09
1.52912e-10
-8.21649e-09
-1.75333e-10
-8.25001e-09
8.60039e-10
-8.44053e-09
6.6211e-10
3.66783e-09
-1.85052e-09
1.24682e-08
-1.04648e-08
-1.12265e-09
1.1028e-08
-1.17559e-08
2.02937e-09
-1.1816e-08
2.77369e-10
2.72876e-09
-6.41382e-09
1.2743e-09
7.34755e-09
-9.2962e-09
7.87564e-10
-1.57566e-09
8.05518e-09
-7.12147e-09
5.92719e-10
-1.48726e-09
5.763e-09
1.86086e-10
-4.4617e-09
1.29623e-09
4.37939e-09
-7.16284e-09
4.82294e-09
5.80184e-09
-4.86168e-09
4.17623e-09
1.05347e-09
-4.06616e-10
-2.2973e-09
5.19456e-09
-2.71112e-09
4.30724e-09
-5.3083e-09
2.06721e-10
-5.37393e-10
4.7101e-09
-4.4328e-09
-2.85117e-09
-7.25837e-10
8.00991e-09
-1.13154e-10
-4.36559e-12
-4.31521e-09
4.59548e-09
-1.09028e-09
2.29689e-09
5.92057e-09
-4.26711e-09
-3.31616e-09
6.85751e-09
-4.1859e-09
-1.94328e-10
4.78515e-09
-2.71164e-10
-6.3662e-10
6.15044e-09
-5.52486e-09
1.11113e-11
-3.73528e-11
-2.82573e-09
5.66012e-09
5.74739e-09
-6.07757e-09
1.83146e-09
-7.26542e-09
6.16943e-09
-2.42755e-09
3.52351e-09
3.95125e-09
-5.4508e-09
-5.76594e-09
-2.51407e-09
3.04683e-09
5.63662e-09
5.75965e-10
8.6118e-10
-5.0609e-09
-7.20873e-10
3.3542e-09
2.2183e-10
-1.07335e-08
3.78095e-09
4.18177e-09
-7.74091e-09
-5.28459e-10
3.18412e-09
1.12527e-09
8.5472e-09
4.27257e-09
-8.63801e-09
6.48217e-09
1.53659e-09
3.08008e-09
6.7996e-10
2.61673e-09
8.65467e-10
7.90447e-10
3.31445e-09
5.78444e-09
-2.46739e-10
6.7385e-09
-3.44499e-09
6.14777e-09
1.94988e-09
1.01624e-08
-2.07502e-09
-1.00374e-08
8.49406e-09
4.63225e-10
-7.00743e-09
3.40353e-09
7.87212e-09
-1.11334e-09
-5.10086e-09
6.94833e-09
1.55602e-09
4.43453e-10
7.80405e-09
-1.03225e-08
2.26018e-09
1.13306e-09
2.92533e-09
7.48738e-09
-9.96929e-09
1.06459e-08
-7.25737e-09
8.99228e-09
5.39126e-09
-3.73757e-09
-1.03274e-09
4.45487e-09
5.57015e-09
-5.04218e-09
4.90717e-09
8.00711e-09
3.44803e-09
3.0066e-09
-6.41269e-09
3.57244e-09
7.29506e-09
1.23876e-09
4.10178e-09
-1.33995e-09
-2.46533e-09
-3.16983e-09
1.03792e-08
-4.74412e-09
3.66022e-09
-2.55312e-09
4.37994e-09
-1.94002e-10
6.19261e-09
4.40489e-09
-1.04036e-08
4.70423e-09
-7.8584e-09
2.96021e-09
1.57102e-09
8.81974e-09
-4.19825e-09
6.62224e-09
-3.46995e-10
7.55946e-09
6.75823e-09
-5.53746e-09
-8.78034e-09
8.17018e-09
-1.07643e-09
4.65749e-10
-4.13216e-09
5.41985e-09
6.88252e-09
7.22638e-11
2.55384e-09
6.19666e-09
-3.69647e-09
1.90468e-09
7.29284e-10
7.66924e-09
4.21157e-10
4.81167e-09
-3.48134e-10
-5.54001e-09
1.58351e-09
-6.88465e-09
1.0721e-08
-3.38461e-09
-4.58198e-09
9.55011e-09
-6.11745e-09
2.80509e-09
8.08454e-10
7.2243e-09
1.73352e-09
-2.3356e-09
1.03116e-08
-3.3947e-10
1.65748e-08
3.77319e-09
-5.79183e-09
-1.45562e-08
-6.45743e-10
1.03066e-08
6.91391e-09
-7.06102e-09
9.26887e-10
-1.85305e-09
7.98711e-09
4.65191e-09
5.45305e-09
-1.07507e-08
-7.09294e-09
-9.54066e-10
7.21273e-09
8.34156e-10
-3.42912e-09
-1.02849e-09
-6.58646e-11
4.52339e-09
-2.1244e-10
3.03815e-09
-3.57715e-09
7.51069e-10
-3.52146e-09
1.08042e-09
-4.59564e-09
-1.20618e-09
3.21548e-09
-3.4107e-09
-4.4625e-10
7.63014e-09
-1.86197e-09
1.19454e-09
-2.74337e-09
1.4764e-09
-7.15841e-09
3.82001e-09
-4.90196e-09
-3.21517e-09
4.29443e-09
-1.29642e-09
-1.80376e-09
3.84325e-10
3.32663e-10
-4.72198e-09
8.00422e-09
-6.16883e-10
6.02244e-09
-1.34098e-08
-3.68539e-10
9.79219e-09
-1.41943e-09
-7.53025e-09
8.31295e-09
-1.15122e-09
4.57284e-09
-1.272e-08
-7.77143e-09
2.2926e-09
5.10337e-09
3.75474e-10
4.70152e-09
-7.90009e-09
-1.06036e-08
9.03056e-09
-1.07397e-08
1.23128e-08
-1.6592e-10
-4.41526e-09
7.67912e-09
2.9264e-09
7.90101e-09
-3.36541e-09
7.39391e-09
-1.515e-09
3.91329e-09
-1.77744e-09
4.99271e-10
1.49096e-08
-1.36314e-08
-7.74596e-10
8.02772e-09
3.10802e-09
7.34669e-09
-2.55369e-09
7.84159e-09
3.69791e-10
-8.23426e-10
8.7166e-09
-1.58632e-10
1.25836e-09
6.74186e-09
6.41346e-09
8.11406e-09
2.38346e-10
-9.09502e-09
8.59375e-09
2.6291e-10
-4.96307e-09
4.92123e-09
2.80217e-10
5.50042e-09
-6.16141e-09
-8.43394e-09
2.38941e-10
2.98376e-10
3.74286e-09
5.1905e-10
4.33186e-09
2.91914e-09
5.74496e-09
-3.68075e-09
-1.88963e-09
7.08523e-09
-1.51483e-09
-1.38396e-09
-8.06377e-09
2.39837e-09
-9.91655e-09
1.35687e-09
-7.6158e-09
3.45126e-09
4.68364e-09
-9.55988e-09
5.20733e-09
2.96867e-09
-4.37263e-09
5.40221e-09
-5.62548e-10
-8.70257e-09
1.20148e-09
-4.93898e-09
3.79843e-12
2.93473e-09
-8.15214e-09
3.90974e-10
-6.79233e-09
-2.3011e-09
-6.23407e-09
-3.70445e-09
4.37256e-09
7.24143e-09
-7.90958e-09
6.02614e-10
-5.0575e-09
7.50379e-10
-4.05392e-09
7.99293e-09
4.33512e-10
3.00595e-10
5.20444e-09
-1.05875e-08
5.08244e-09
-8.3607e-09
4.60735e-09
-4.47177e-09
3.92588e-09
1.14846e-09
5.30764e-09
-9.6063e-11
-5.58213e-09
3.705e-10
-5.25921e-12
8.41116e-10
-8.98049e-09
1.04108e-08
3.77408e-09
-1.76332e-10
1.76759e-10
-1.0588e-08
-7.96583e-09
-5.71232e-10
1.11597e-08
-1.1079e-08
2.17392e-09
8.72067e-11
-7.61755e-09
7.09476e-09
4.35566e-10
-6.73741e-09
6.6397e-09
1.84907e-10
9.528e-09
3.7847e-09
-2.74165e-09
-1.05711e-08
1.66368e-09
1.12692e-09
-2.75082e-10
-3.55777e-09
-8.58009e-09
3.66024e-09
1.13441e-08
-6.42429e-09
-3.5263e-09
-5.3288e-09
8.31231e-10
-3.71415e-09
9.52258e-09
1.15862e-08
-1.74835e-09
-1.27076e-08
4.9697e-09
9.48624e-09
-9.0274e-09
7.62866e-09
3.06239e-09
-1.35174e-08
6.45449e-09
-2.54002e-09
1.28598e-08
2.8029e-09
-5.13356e-09
-1.05294e-08
5.18269e-09
1.57932e-09
6.09771e-09
1.00204e-08
-8.58989e-09
-1.59061e-09
1.60024e-10
6.10641e-09
-1.21734e-08
4.36858e-09
9.38388e-09
2.6422e-09
-1.20129e-08
-4.1949e-09
-9.52849e-09
4.6832e-10
-1.26085e-08
7.94514e-09
8.7152e-09
-1.41531e-09
-8.89056e-09
1.31843e-09
1.35032e-08
-1.87778e-09
-1.27916e-08
1.73113e-08
-6.69117e-09
1.46927e-08
-6.6833e-09
-7.02983e-09
5.78169e-09
-5.44308e-09
9.06492e-09
-1.04745e-08
1.79379e-09
2.41199e-10
-3.38835e-08
2.15865e-09
2.20742e-08
9.65074e-09
7.07324e-09
-2.02213e-08
-2.07356e-08
-1.20532e-08
9.17101e-09
5.0408e-09
-1.38498e-08
1.22729e-08
2.3651e-08
-5.25485e-09
-1.52169e-09
-2.88728e-09
-6.05597e-09
-3.11002e-09
-1.30511e-08
-1.00576e-08
-2.34317e-09
1.27748e-09
-8.17871e-09
9.24431e-09
-3.35259e-09
-1.16463e-09
2.17388e-09
5.16649e-09
-3.03031e-09
7.03477e-09
1.87168e-08
5.71406e-10
4.45825e-09
-1.80808e-08
-5.02194e-09
-5.58641e-09
2.42956e-09
-5.83635e-09
-2.53818e-09
-6.83227e-09
2.6373e-09
-1.04656e-08
-3.75741e-10
9.53365e-09
3.12571e-09
-1.2088e-08
4.73043e-09
-1.2528e-09
2.15751e-09
-8.16488e-09
-5.0652e-09
2.96329e-09
1.3362e-09
-3.27568e-09
-2.34267e-09
-1.04911e-08
-3.29259e-09
1.08315e-08
2.95221e-09
-3.5085e-09
-7.46084e-09
4.7824e-10
1.18687e-09
3.86481e-11
-1.0754e-08
1.0766e-09
-1.24983e-08
5.19942e-10
9.54165e-09
-1.14769e-08
-7.70694e-09
2.29735e-09
-5.31579e-09
1.07253e-08
9.65073e-10
-7.59546e-09
-6.47993e-09
-3.39938e-09
6.58675e-09
-1.03872e-08
3.98805e-10
-1.40101e-10
7.48106e-09
-8.54771e-10
9.83633e-09
6.55467e-09
-6.44439e-09
1.26629e-08
-3.81084e-09
1.15755e-08
-9.29972e-09
8.69612e-09
5.61778e-09
2.23199e-10
-1.78259e-09
-4.05856e-09
-1.7839e-10
8.26424e-10
4.96858e-09
3.48172e-09
-1.00555e-09
-2.25318e-09
3.05382e-10
2.99751e-09
1.32586e-09
-3.44784e-10
1.2348e-09
-2.2163e-09
1.51382e-09
-1.19409e-09
1.4762e-09
-3.60373e-09
3.95886e-09
1.51445e-09
-3.9973e-09
2.36506e-09
2.08469e-09
-4.91013e-10
-1.00961e-09
1.61503e-09
9.08323e-10
4.87222e-10
-2.62439e-10
2.452e-09
7.39456e-10
-1.12449e-09
1.03797e-09
2.17108e-09
5.81888e-10
-1.92115e-10
1.5894e-09
3.3092e-10
1.19412e-09
-1.25039e-10
1.36152e-08
-9.68396e-09
-6.35567e-09
2.42405e-09
-1.03645e-08
1.00019e-08
1.39775e-08
8.91073e-09
-9.20159e-09
-9.39323e-09
7.23743e-10
-2.17777e-09
-1.29045e-08
6.17014e-09
-7.02536e-09
1.37595e-08
-1.03713e-08
-1.80953e-09
-3.18379e-09
1.93558e-08
-2.58535e-08
-3.77219e-09
1.34626e-08
1.61627e-08
-7.56681e-09
-1.0344e-10
-1.81835e-08
8.45619e-09
-6.54092e-09
-9.48236e-09
1.6538e-08
-6.9626e-09
-1.11932e-09
3.51005e-09
-1.82335e-08
7.69796e-09
1.74527e-08
-4.96364e-09
-1.25927e-08
7.32488e-09
-1.00291e-08
1.03553e-08
1.99714e-08
1.14179e-08
-2.55085e-09
-1.54082e-08
8.57852e-09
-4.1233e-09
8.15511e-09
-1.02548e-08
-8.27185e-09
-1.5e-09
2.4931e-09
-1.52987e-08
-1.16721e-08
7.93261e-09
6.08338e-09
-1.15915e-08
-2.4244e-09
9.19313e-09
3.98817e-09
-5.24878e-09
5.37225e-09
1.13015e-08
-1.05904e-08
2.14955e-08
-5.64363e-10
-1.55588e-08
-5.27104e-09
-1.42347e-08
1.02355e-08
9.2701e-09
-1.91441e-08
7.31943e-09
6.55362e-09
1.35053e-09
1.65778e-08
-6.62887e-09
-5.96065e-09
1.11973e-08
1.51803e-08
-9.79987e-09
2.5154e-08
3.32141e-09
-1.72782e-08
1.65899e-09
5.60184e-09
-6.94354e-09
3.93622e-09
1.32428e-08
-6.1726e-09
6.54854e-09
-3.28816e-10
9.17931e-09
1.63035e-08
8.67897e-09
-1.37664e-08
1.58441e-09
-6.38855e-09
1.85703e-08
-7.10476e-09
4.75307e-09
-1.14146e-08
1.81025e-08
-1.25818e-08
-1.12755e-08
-3.81831e-09
1.45294e-08
-2.52052e-09
5.31137e-09
3.49934e-09
-1.31246e-08
2.05769e-10
8.93902e-09
4.71074e-09
-1.38555e-08
5.55602e-09
-1.74798e-08
1.21296e-08
-1.36692e-08
1.64966e-08
1.51768e-09
-4.34509e-09
8.96686e-09
-1.3697e-08
-8.64351e-09
-8.30894e-09
1.07185e-08
6.18721e-09
-1.59049e-08
1.07426e-09
5.07347e-09
9.9489e-09
-5.46697e-10
-2.68869e-09
9.73184e-09
-4.72251e-09
-3.33416e-09
6.64172e-09
1.31892e-08
2.47981e-09
3.15307e-09
2.11434e-09
9.79839e-09
-9.86073e-10
-1.09267e-08
-7.97532e-09
5.35302e-09
8.80955e-09
3.59419e-09
8.38057e-09
3.46564e-09
4.57239e-09
5.40747e-09
-1.59929e-09
-2.37139e-09
-2.69809e-09
-1.90132e-09
-1.40241e-08
-9.26021e-09
1.13323e-08
1.19521e-08
-8.5307e-09
5.68381e-10
-6.06185e-09
-1.06655e-08
-1.13215e-09
2.53763e-09
-4.71695e-09
-1.44792e-08
-4.09739e-09
1.14346e-10
3.11101e-09
8.72997e-10
-4.18679e-09
3.1756e-09
-3.08614e-09
1.04996e-08
-5.64638e-09
-4.28483e-09
2.78403e-09
4.35774e-09
-1.18585e-08
-6.2446e-09
1.28716e-09
5.07215e-09
-7.64736e-09
-2.6591e-09
7.99353e-09
5.16526e-09
3.60495e-09
5.06847e-09
4.94204e-09
6.04987e-10
-2.3714e-09
2.25654e-09
5.79672e-09
4.75964e-09
-6.04831e-09
8.41439e-09
-4.95722e-09
1.48048e-10
-2.21377e-09
7.5784e-09
-1.91112e-08
9.87196e-09
1.65643e-08
-1.7236e-09
-1.03464e-08
-7.04081e-09
1.42644e-08
-8.10286e-09
1.54832e-08
1.06698e-09
-2.2854e-09
5.52193e-09
1.98334e-08
-1.49595e-08
-7.97957e-09
7.06071e-09
-1.26157e-08
-2.54781e-09
1.33439e-08
-1.05059e-08
-1.77097e-09
2.12899e-08
2.77709e-09
6.96446e-09
-2.79748e-09
-6.94395e-09
-8.10661e-10
-8.08428e-09
8.92421e-10
-4.33751e-09
-1.53637e-09
1.27721e-09
-4.18804e-09
1.17797e-08
-8.86893e-09
1.18949e-08
-4.03784e-09
-6.57988e-09
-1.27723e-08
1.17711e-08
-1.42054e-09
2.42165e-09
1.4156e-08
-1.50334e-08
-2.25897e-09
6.54586e-09
-8.47499e-09
6.90146e-09
-1.31983e-08
1.24751e-08
2.21286e-09
-5.32053e-10
9.56715e-09
9.24142e-09
1.11782e-09
4.03808e-09
9.54356e-09
-6.68021e-09
1.00132e-08
5.70737e-10
9.77928e-09
-9.36034e-09
1.7939e-09
5.03792e-10
-5.53585e-09
-6.02454e-09
1.89763e-09
-1.71445e-09
-1.62432e-09
-1.146e-08
4.29554e-10
1.29281e-08
-1.14465e-08
9.99969e-09
-5.37083e-09
4.14995e-09
-2.80582e-09
4.02669e-09
-3.06083e-09
-1.09166e-09
-1.21959e-09
2.90286e-09
1.62894e-09
-3.82116e-10
7.70424e-10
-5.10673e-09
7.15916e-09
-2.82314e-09
-3.57239e-09
7.24495e-09
-6.02349e-09
-3.28618e-09
5.73685e-09
-1.17468e-09
-5.81464e-09
9.653e-10
-5.98235e-10
-4.11006e-09
-7.38058e-10
5.44643e-09
-4.78058e-09
-1.20466e-09
5.38721e-09
3.16535e-09
-7.8077e-09
1.35579e-09
4.38811e-09
-3.76317e-09
-3.68613e-09
4.07222e-10
-4.64137e-09
-1.23075e-09
-4.05988e-09
2.11851e-09
-4.62824e-10
-4.23054e-10
-4.92917e-09
-5.40362e-10
-7.73046e-09
-6.12777e-09
-2.04221e-09
9.59911e-10
-7.62816e-09
7.54484e-10
-4.43615e-09
-3.43186e-09
-6.54122e-09
-4.12559e-10
8.43273e-09
-1.47923e-09
9.17944e-09
-7.50731e-10
-1.497e-08
-1.88315e-08
1.44751e-08
-6.04908e-10
-8.32088e-09
1.07564e-08
-2.20639e-09
-9.31104e-09
-2.7484e-09
1.16468e-08
1.01704e-08
-1.0302e-08
6.23695e-09
1.19183e-08
-1.89061e-08
3.75425e-09
-1.49971e-08
-4.67673e-09
-1.04007e-08
-1.03966e-08
1.41524e-08
-7.76904e-09
1.08768e-08
-1.14287e-08
5.58475e-09
-3.46679e-09
8.05244e-09
3.13137e-09
2.4537e-09
9.4709e-10
-6.87569e-09
1.47808e-08
-9.87893e-09
1.97396e-09
-1.41082e-08
2.3724e-09
-1.01044e-09
1.27464e-08
1.143e-08
-1.00041e-08
-1.55341e-08
-4.61964e-09
2.08979e-09
1.39599e-08
-1.0778e-08
2.2152e-09
2.23588e-09
6.32695e-09
-6.18702e-09
-1.00702e-08
5.47932e-09
-5.74866e-09
1.24547e-09
6.21909e-09
4.37727e-09
-2.06003e-08
-4.84973e-09
6.44921e-09
-6.45639e-09
5.14538e-09
-1.38676e-08
5.05228e-09
3.06706e-09
8.30234e-09
-1.77925e-08
-5.08344e-09
1.02633e-09
1.23595e-08
-1.30397e-08
-1.17856e-08
1.24244e-08
1.24006e-08
-1.76111e-08
4.22295e-09
3.48367e-10
8.69784e-09
-8.94939e-09
-1.73595e-08
1.11614e-09
-4.20389e-09
1.3831e-08
-1.21984e-08
2.59046e-09
3.59433e-09
-7.24641e-09
1.74831e-08
-4.80922e-09
2.0828e-08
-1.38116e-08
-9.09402e-09
1.80964e-08
-7.15436e-09
-5.5411e-09
2.182e-08
-1.70429e-08
-1.19313e-08
-5.23974e-09
1.79656e-08
2.28316e-09
8.87721e-09
-1.64002e-08
1.09135e-08
-3.55245e-09
-1.63103e-08
-1.58528e-09
3.00417e-10
7.27695e-09
-1.57177e-08
4.8883e-09
1.33329e-08
-1.37803e-08
7.72435e-09
-1.42586e-08
9.2953e-09
-2.51097e-09
9.42707e-09
-6.84755e-09
-7.89366e-09
5.3142e-09
-3.13951e-09
-9.55404e-10
1.3522e-08
-6.52394e-09
-2.80425e-09
2.33056e-09
6.99761e-09
-2.94905e-09
-4.75286e-09
1.17797e-09
5.90229e-09
-7.42085e-09
1.18994e-10
1.39953e-09
-3.452e-09
6.55002e-09
9.90838e-09
-1.08869e-08
-6.44239e-09
-4.90857e-10
6.94724e-09
4.03906e-09
-1.16075e-08
5.23602e-09
-4.33646e-09
-4.38863e-09
1.60208e-10
1.30297e-08
-8.80128e-09
-4.24429e-09
8.31794e-09
-8.46226e-09
-5.32685e-09
7.81755e-09
-1.53743e-09
1.00271e-09
-2.59908e-09
-4.76428e-09
-1.17699e-08
7.03481e-09
-9.13297e-09
2.83193e-09
-1.03078e-09
-2.21851e-10
-1.57966e-09
-3.839e-09
-3.66829e-09
3.0799e-10
3.45048e-09
1.39832e-10
2.44825e-09
-2.205e-09
-2.21986e-09
-1.22771e-09
1.64286e-09
1.39718e-09
-4.51505e-10
-4.2906e-09
3.34456e-09
9.77925e-10
-6.11781e-10
-1.52378e-09
1.97115e-09
7.30539e-11
9.045e-10
-6.65399e-10
-3.13535e-10
1.66867e-11
-5.62817e-10
8.07572e-10
-6.11689e-10
-2.41607e-09
1.22754e-09
-4.0384e-10
-3.80657e-09
1.41249e-08
-1.12041e-08
-9.07202e-09
6.1512e-09
8.66083e-09
1.76759e-09
-1.30025e-08
8.13348e-09
-6.33511e-09
1.83563e-09
-1.13713e-09
-1.37011e-08
9.42967e-10
-8.17939e-09
1.23886e-08
-3.46537e-09
-7.89771e-10
8.26504e-09
1.27843e-08
1.1278e-08
-1.45401e-08
-2.03346e-10
1.73399e-09
-4.15313e-09
1.08075e-08
8.10961e-09
-1.02554e-08
-1.23944e-08
1.75875e-08
-9.89058e-09
4.12663e-10
-2.64183e-10
-9.19645e-09
-1.44838e-10
-1.12476e-08
-1.0503e-08
-3.58584e-09
-1.0912e-08
-1.09627e-08
-6.93512e-09
1.04214e-08
7.47635e-09
1.95695e-08
6.49453e-09
-9.79636e-09
-1.62678e-08
1.26954e-09
7.33723e-09
-1.88735e-08
1.49685e-08
5.17449e-09
-1.39765e-08
1.59765e-09
1.84868e-08
-6.09073e-09
-1.54987e-08
3.10268e-09
8.47637e-09
-2.8673e-10
1.02972e-08
1.0733e-08
1.37244e-08
-9.48883e-09
1.00141e-08
-3.2063e-09
-1.28985e-08
-3.32746e-09
-1.287e-09
1.46286e-08
-4.0864e-09
1.4477e-09
-3.84228e-09
6.48114e-09
-6.97956e-09
-5.93519e-09
8.82833e-09
2.50293e-09
4.12393e-09
-1.0724e-08
4.09738e-09
8.57032e-09
-2.94245e-09
-1.54242e-08
3.32948e-09
-1.69423e-09
5.86465e-09
-1.20134e-08
-2.3566e-09
4.61957e-09
8.47011e-09
2.3081e-09
5.75675e-09
-4.44237e-09
2.93391e-09
1.4583e-08
-1.02636e-08
-7.25322e-09
-9.12018e-09
6.61643e-09
5.00672e-09
-4.34297e-09
-3.61719e-09
1.11707e-08
5.3074e-09
-4.93633e-09
-3.81769e-09
-5.47923e-09
-4.10943e-10
-6.24765e-09
-6.44166e-09
-1.29273e-08
1.74337e-09
4.09612e-09
-3.31834e-09
3.19301e-09
-3.9709e-09
3.10321e-09
6.63559e-10
3.29241e-10
2.69611e-09
-2.51064e-10
-5.76352e-09
9.3835e-09
3.3641e-10
-5.18898e-09
-4.53095e-09
-1.13473e-09
1.81158e-09
8.70647e-09
-6.83744e-09
5.83429e-09
4.10625e-09
-3.30804e-09
3.35177e-09
1.93868e-09
-2.59452e-09
3.65688e-09
3.583e-10
1.56677e-09
-2.79095e-09
4.40767e-09
-3.18374e-09
5.3829e-09
-1.87735e-09
4.09166e-09
-7.13371e-09
-6.2603e-09
2.3971e-10
4.88589e-09
-7.35764e-09
4.16879e-10
7.22891e-09
4.79657e-09
-1.04652e-10
6.90695e-10
-9.73664e-10
3.13981e-10
5.4562e-09
3.6737e-09
-3.1759e-09
3.90672e-09
3.76319e-10
7.78227e-09
-1.10052e-08
-4.4088e-09
-2.13286e-10
-3.97494e-09
1.19702e-08
-5.81178e-09
-1.21394e-08
1.13801e-08
6.57126e-09
-1.9422e-08
2.60504e-09
1.05307e-08
-3.99682e-09
2.94904e-09
-9.48332e-09
-7.10928e-10
1.10282e-08
-1.26197e-08
4.21395e-09
-1.0571e-08
-3.22398e-10
7.90918e-09
-6.02244e-09
-1.24576e-08
-5.85227e-10
-1.09276e-08
-4.62622e-09
1.20314e-08
7.85056e-09
-8.35347e-10
-1.30372e-08
1.26873e-08
3.0035e-09
-7.84008e-09
-3.10623e-09
-1.00986e-08
-1.98418e-09
1.85225e-08
-1.72491e-08
1.22343e-08
1.3065e-10
-9.76308e-09
1.15032e-08
1.26369e-09
8.96769e-10
-1.1495e-08
-1.33824e-08
1.1173e-08
1.29655e-08
-1.03359e-08
8.87381e-09
3.46837e-10
1.06347e-08
7.95493e-09
-1.63503e-08
1.84605e-08
2.18772e-09
-4.29772e-09
-1.51509e-09
6.32166e-09
-2.11564e-08
-1.49332e-08
-8.80018e-10
7.18891e-09
8.62421e-09
1.16343e-08
-8.10687e-09
-5.87105e-09
-8.13673e-09
8.46679e-09
1.0505e-08
-1.54061e-08
-9.69714e-10
-1.90267e-08
2.2836e-09
8.60661e-09
-4.69282e-09
-2.62753e-09
-1.17061e-08
-1.08858e-08
1.37708e-08
-6.96966e-10
7.17176e-09
-1.95725e-08
1.13427e-08
1.80186e-08
-1.55902e-08
1.1029e-08
1.61245e-09
-1.29871e-09
-8.80042e-09
8.23794e-09
8.33819e-09
-1.15193e-08
2.54561e-09
1.61628e-08
-9.76634e-09
9.88133e-09
-1.75946e-08
1.01121e-08
-1.59657e-08
-9.79359e-09
5.61916e-09
1.26413e-08
2.32388e-09
-1.08617e-08
1.64027e-08
1.5861e-10
2.15013e-09
-1.77965e-09
-5.28584e-10
1.45964e-09
5.40924e-10
-1.69124e-09
-3.08912e-10
1.77626e-09
-1.58043e-10
-2.19975e-09
-8.95979e-10
1.31633e-09
1.78079e-09
-1.9447e-10
-2.29145e-10
7.46569e-10
5.07944e-10
-2.95218e-09
4.02899e-09
2.39736e-10
-2.48501e-09
-6.61785e-10
3.31189e-09
1.1262e-10
-2.88353e-09
9.04349e-10
-7.74299e-11
-5.32611e-09
1.88566e-09
4.34482e-09
-8.9016e-10
-4.32333e-09
-2.98464e-09
1.86115e-09
1.86979e-09
-3.28646e-09
-5.88288e-10
3.68851e-09
1.03748e-09
-7.5206e-09
2.79441e-09
2.08982e-09
-8.33753e-09
9.93623e-09
-4.49256e-09
-6.16302e-09
1.27455e-08
-7.01986e-09
3.56477e-09
-4.86846e-10
-5.83442e-09
-2.01629e-09
-8.49009e-09
-5.80238e-09
6.77182e-09
-6.49934e-09
-2.47762e-09
1.99791e-09
-1.88425e-08
8.98939e-09
7.85526e-09
-9.68e-09
5.84341e-09
-6.39306e-09
-7.05611e-09
-5.39352e-09
-6.15299e-09
-9.92002e-09
5.96913e-09
-5.94203e-09
-6.52651e-09
-2.90932e-10
4.57674e-10
2.02653e-09
1.15267e-09
-9.33238e-09
7.63683e-09
5.7598e-10
-6.18632e-09
-1.17695e-08
1.45959e-08
9.70852e-09
-9.12773e-09
7.15961e-09
-7.77528e-09
3.24762e-10
-9.23681e-09
9.37661e-09
-1.48977e-09
6.44565e-09
-6.27911e-09
-1.01836e-09
-1.04258e-09
9.04957e-09
-1.20561e-09
-1.63757e-09
5.85506e-09
-2.838e-09
-1.37958e-09
9.32538e-09
-6.1238e-09
-4.83917e-09
-1.03877e-08
6.59948e-09
9.64329e-09
2.82422e-09
-3.88661e-09
-2.45059e-09
4.48383e-09
7.43025e-09
-9.4636e-09
3.99596e-09
3.37132e-09
-9.81797e-09
5.81799e-09
-7.94586e-09
-6.82045e-09
2.1245e-09
1.12954e-08
-3.62363e-09
-3.72619e-10
5.33752e-09
-1.00779e-08
-1.84606e-10
4.92489e-09
-8.33326e-09
3.13463e-09
1.05361e-08
-8.15574e-10
9.94891e-09
-4.64957e-09
7.69569e-09
-5.13997e-09
3.70909e-09
8.83119e-10
-7.37338e-09
2.74914e-09
-7.5024e-09
-4.83181e-09
4.29989e-09
-6.32427e-09
6.85613e-09
-8.72416e-09
3.70769e-09
2.77374e-09
-5.7943e-10
9.55901e-09
3.24833e-09
-4.27682e-09
-3.02214e-10
4.97529e-09
-9.44237e-09
6.8796e-09
-2.41249e-09
-1.12342e-09
-4.91048e-09
1.10093e-08
9.37082e-09
-5.19062e-09
-5.30361e-09
-1.9106e-09
-4.78267e-09
-4.43475e-09
1.1128e-08
1.29916e-09
-1.58631e-08
7.10197e-09
7.46213e-09
-1.13866e-08
8.23712e-09
4.44865e-09
-5.02913e-09
-4.42019e-09
7.53873e-09
9.26184e-09
-5.13321e-09
-8.91127e-09
-2.63085e-10
8.2587e-11
2.91374e-09
2.98145e-09
-1.10283e-08
5.58478e-09
-7.70015e-09
1.91854e-09
-7.72024e-09
-4.35032e-09
-9.59422e-09
-9.41016e-09
1.16017e-08
9.37947e-09
-1.07483e-08
-2.93746e-10
-5.90766e-10
1.76502e-09
2.74375e-09
-3.91813e-09
-6.92938e-09
2.4943e-09
3.84419e-09
8.70025e-10
5.35792e-09
-3.96436e-09
-2.26364e-09
3.037e-09
-1.49509e-09
-6.71987e-10
4.521e-09
-3.67414e-09
1.6696e-09
-2.51675e-09
1.41729e-09
1.59947e-09
1.5044e-09
-1.17191e-10
-5.23619e-09
-1.57595e-09
2.73225e-10
-1.73727e-09
3.95831e-09
-7.70333e-10
2.80845e-09
-2.62474e-10
8.2899e-10
2.47034e-09
1.08426e-09
4.01133e-09
5.73006e-09
-9.55644e-10
-4.89157e-09
5.07713e-09
-4.98544e-10
-4.42143e-09
2.09666e-09
3.65607e-11
-2.63175e-09
1.02692e-09
-4.25351e-10
-5.05708e-09
1.41958e-09
-2.96295e-09
2.09224e-09
2.28772e-09
-2.66516e-10
2.15077e-09
-2.14614e-09
8.99442e-10
6.17702e-09
-4.93046e-09
6.27134e-09
-7.16369e-09
-1.25398e-09
-3.72142e-09
2.73189e-09
-5.93654e-09
6.92602e-09
-4.92313e-09
5.8375e-10
6.17926e-10
1.8667e-09
-5.98301e-09
5.38216e-09
-1.26596e-09
-4.78973e-09
1.73327e-09
-3.39861e-09
-1.68506e-09
-3.2247e-10
4.88764e-09
1.70611e-09
1.06479e-09
-3.65904e-09
1.25422e-08
-5.56978e-09
2.49426e-09
8.58069e-09
-6.01703e-10
-3.09147e-09
-3.59264e-09
6.60355e-09
7.2551e-10
-1.27996e-09
-1.51827e-08
5.2549e-09
-9.09022e-09
-6.69412e-09
5.94036e-09
1.03995e-08
-1.225e-08
-4.08999e-09
-1.51355e-09
-1.23917e-08
5.33024e-09
4.43972e-09
-1.63524e-09
-8.13469e-09
-8.46533e-09
6.53009e-09
7.26552e-09
-2.80762e-09
-7.04402e-09
1.38636e-09
-8.48286e-09
2.211e-09
1.07315e-08
-4.45964e-09
-1.55423e-08
1.89675e-10
6.86978e-09
6.9738e-09
-3.23083e-10
-1.87895e-09
1.46639e-08
-6.25486e-09
6.80704e-09
3.82476e-09
9.97599e-11
1.19019e-08
-1.18753e-08
-6.15662e-09
1.78679e-08
1.64156e-10
1.08853e-08
-3.71406e-09
-1.90465e-08
2.25438e-08
-1.96614e-08
8.00294e-09
-5.75865e-09
1.95131e-08
8.78937e-09
-9.91632e-09
-7.70738e-09
1.14671e-08
6.88718e-09
-2.05175e-08
-1.40858e-08
1.47169e-08
-1.97827e-09
1.34717e-09
1.18096e-08
-1.90083e-08
1.26425e-08
-5.33244e-10
8.46531e-09
1.79282e-08
-6.88037e-09
2.29624e-08
-1.62228e-08
5.07007e-09
2.15899e-08
1.60894e-08
-6.69801e-09
-1.88028e-09
1.70437e-08
-1.30172e-08
-4.35367e-09
1.06729e-08
7.94837e-10
-1.16956e-09
6.95258e-09
2.18316e-08
-7.19419e-09
4.77062e-09
-1.48062e-08
5.682e-09
9.84296e-09
-3.81079e-10
-1.36303e-08
1.05893e-09
6.26637e-10
-2.75428e-09
1.05911e-09
-8.43213e-10
2.69401e-10
1.63207e-09
-5.11034e-10
4.39013e-09
-1.79173e-09
-2.08881e-09
-2.54242e-09
3.26481e-09
-1.23426e-09
1.28425e-09
-3.2006e-09
1.59849e-09
-1.90851e-10
2.98103e-09
7.42432e-10
4.12072e-09
2.71263e-09
-1.48521e-09
5.59331e-11
-2.39337e-09
5.63512e-10
4.64841e-09
-2.82082e-09
-2.09524e-09
-3.60547e-10
6.03948e-11
1.64009e-09
-3.92673e-09
4.01812e-09
-5.7678e-09
8.67185e-09
3.71775e-09
-6.62194e-09
1.04653e-08
-3.82042e-09
-2.7031e-10
9.42338e-09
-4.81292e-10
1.00396e-08
8.88118e-09
-8.45549e-09
1.01742e-08
-4.04947e-10
9.25544e-09
-5.52019e-10
7.19894e-10
-3.14062e-09
3.99967e-09
7.1685e-09
-8.02769e-09
8.68904e-09
-1.11153e-08
3.59921e-09
9.10076e-09
-1.58475e-09
-1.12648e-08
-7.65377e-09
7.80329e-09
-3.5474e-09
4.62578e-09
-4.41091e-09
9.9593e-09
-3.98336e-09
-1.51274e-09
1.32991e-08
-7.80307e-09
9.89789e-09
2.01939e-08
-4.60061e-09
-6.71209e-09
-3.5823e-10
1.61413e-08
8.73232e-10
-2.62046e-09
8.91569e-09
1.05248e-08
-9.62533e-10
-1.64268e-08
3.56373e-09
1.2505e-08
-1.05027e-08
9.37356e-09
-7.3225e-09
1.31141e-08
6.29516e-09
-1.67299e-08
-2.67925e-09
1.45706e-08
-1.02575e-08
8.80102e-09
-8.40023e-09
7.48704e-09
1.54838e-08
-4.66375e-09
2.55869e-09
1.11905e-08
-3.86077e-09
-2.40596e-08
6.49341e-09
-5.56045e-09
-8.07432e-09
5.51403e-10
2.85913e-09
2.41921e-09
-1.43543e-08
7.98856e-09
7.08889e-09
-1.26582e-08
8.51025e-09
-5.03974e-09
4.51807e-09
2.05731e-10
6.72068e-09
1.62521e-10
8.09454e-09
6.21446e-10
-7.80078e-09
9.07907e-09
-7.6527e-09
6.37447e-09
-5.96036e-10
8.89805e-10
5.7496e-10
-8.61342e-10
-6.66452e-09
6.95095e-09
-1.3066e-09
1.09607e-08
4.69524e-10
6.15627e-09
-1.15237e-08
1.06867e-08
1.95243e-09
-2.88443e-09
2.70457e-10
-7.53102e-09
-3.07787e-09
-4.87534e-09
-6.47505e-09
2.91621e-10
1.10588e-08
-4.15601e-09