/*--------------------------------*- C++ -*----------------------------------*\
| =========                 |                                                 |
| \\      /  F ield         | OpenFOAM: The Open Source CFD Toolbox           |
|  \\    /   O peration     | Version:  v1612+                                |
|   \\  /    A nd           | Web:      www.OpenFOAM.com                      |
|    \\/     M anipulation  |                                                 |
\*---------------------------------------------------------------------------*/
FoamFile
{
    version     2.0;
    format      ascii;
    class       volVectorField;
    location    "239";
    object      wallShearStress;
}
// * * * * * * * * * * * * * * * * * * * * * * * * * * * * * * * * * * * * * //

dimensions      [0 2 -2 0 0 0 0];

internalField   uniform (0 0 0);

boundaryField
{
    WALL
    {
        type            calculated;
        value           nonuniform List<vector> 
1504
(
(-0.0139585 -0.0296857 -0.00487859)
(-0.00976305 -0.0292287 -0.0104056)
(-0.00199851 -0.0260685 -0.0178852)
(-0.00370966 -0.0266381 -0.0136699)
(-0.00684454 -0.00730234 0.00282352)
(-0.0091112 -0.00838577 0.00350942)
(-0.00764404 -0.00650055 0.00438333)
(-0.00535232 -0.0050808 0.00295895)
(-0.00565642 -0.0176529 -0.0118099)
(-0.00504415 -0.0177756 -0.0110288)
(-0.00792173 -0.024258 -0.0141298)
(-0.00710387 -0.024503 -0.0139532)
(-0.00959211 -0.0239101 -0.0139558)
(-0.00961497 -0.0229961 -0.015324)
(-0.00910671 -0.00409788 -0.0051217)
(-0.0101359 -0.00400656 -0.00846554)
(-0.0210256 -0.0128675 0.00315108)
(-0.00464755 -0.0035444 0.000361989)
(-0.0167318 -0.0271395 0.00293092)
(-0.0171686 -0.031598 0.00222682)
(0.00341047 -0.0123843 0.00810308)
(0.00339864 -0.0149118 0.00751904)
(-0.00956291 -0.0142848 0.00405907)
(-0.0104478 -0.0206305 0.00621353)
(-0.00647826 -0.0134652 0.00708073)
(-0.00657366 -0.00876022 0.00386243)
(-0.0102651 -0.0118099 0.00273714)
(-0.0119835 -0.0128126 0.00118806)
(-0.0143827 -0.0267411 -0.00408422)
(-0.0143867 -0.0222988 -0.00409475)
(0.00144113 -0.0161315 -0.00982258)
(0.0013763 -0.0131733 -0.00639632)
(-0.00493543 -0.0276963 -0.0289169)
(-0.0101296 -0.0262022 -0.0305319)
(0.000721769 -0.0206266 -0.0160727)
(-0.00031826 -0.0225798 -0.0206462)
(-0.00287261 -0.0275348 -0.0263678)
(-9.34641e-05 -0.0244456 -0.019981)
(-0.00917962 -0.0242552 0.000411237)
(-0.0183311 -0.0222608 0.00697129)
(-0.00137515 -0.00694836 -0.00120321)
(-0.000737 -0.00497676 -0.000234286)
(-0.00296906 -0.00945993 -0.00292819)
(-0.00439393 -0.0113706 -0.00498995)
(0.00218735 0.00114792 -0.00224798)
(0.0015381 0.00146785 -0.00191779)
(-0.013448 -0.014284 -0.00365859)
(-0.0115444 -0.0148796 -0.00619111)
(-0.0073958 -0.015099 -0.0101781)
(-0.00418745 -0.0133381 -0.00817237)
(-0.0245475 -0.0135046 0.0246553)
(-0.0212659 -0.0124511 0.0202087)
(-0.0154063 -0.00966817 0.00922626)
(-0.0172354 -0.0127024 0.00858009)
(-0.00364344 0.00082174 -0.00463198)
(-0.00674529 -0.000530808 -0.00901272)
(-0.0247272 -0.0347167 -0.00176448)
(-0.0253146 -0.0306679 -0.00897684)
(-0.0146149 -0.0203602 0.00229315)
(-0.0159908 -0.0177187 -0.000972667)
(-0.0187443 -0.0429856 -0.000749138)
(-0.0221893 -0.0345377 -0.00103623)
(-0.0198053 -0.0391788 0.000843982)
(-0.0196481 -0.0124923 0.0169492)
(-0.0176678 -0.0105889 0.0142033)
(-0.001656 -0.0043891 0.00634949)
(4.91329e-05 -0.00432354 0.00613741)
(-0.0295784 -0.0150087 -0.012488)
(-0.0197096 -0.0102395 -0.00847138)
(-0.0322937 -0.0183048 -0.00503329)
(-0.0163331 -0.00833578 -0.00531178)
(-0.0212723 -0.0125656 -0.0101882)
(-0.0248002 -0.0125645 -0.00500407)
(-0.00727851 -0.0140357 0.00556635)
(-0.00793585 -0.0178553 0.00639047)
(-0.00568905 -0.0132336 0.00673513)
(-0.00995059 -0.00911106 0.000834333)
(-0.00752577 -0.0114105 0.00556463)
(-0.0111794 -0.0133197 0.00288722)
(0.00212816 -0.0254223 0.00343074)
(0.00227202 -0.0205149 0.00573151)
(0.00467368 -0.0212118 0.00461139)
(0.00158733 -0.0229023 0.00559133)
(0.00490114 -0.0227174 0.00222292)
(0.00408224 -0.0239257 0.00218136)
(-0.0148264 -0.0182342 -0.00750757)
(-0.0143154 -0.0190838 -0.0064458)
(-0.0128137 -0.0200058 -0.0111959)
(-0.0139592 -0.023458 -0.00823066)
(-0.013613 -0.0222239 -0.0104588)
(-0.00572009 -0.0247131 -0.0306791)
(-0.000964783 -0.0275089 -0.024414)
(-0.00602123 -0.0262046 -0.0309938)
(-0.00685451 -0.0276083 -0.0293245)
(-0.00489362 -0.0257309 -0.0272071)
(-0.000432262 -0.0264091 -0.0275479)
(-0.00638992 -0.00797442 0.00264741)
(-0.000434681 -0.000735591 0.000153727)
(-0.000252415 -0.00167293 0.000186318)
(-0.00767131 -0.00500667 0.00206345)
(0.00173355 0.000746745 0.000530636)
(-0.0135026 -0.010819 0.00438415)
(-0.00480998 -0.0208421 -0.0119446)
(-0.00586194 -0.0192023 -0.0118108)
(-0.00651969 -0.0187077 -0.0148429)
(-0.00706019 -0.020133 -0.0139522)
(-0.0073198 -0.0208917 -0.013156)
(-0.00746773 -0.0226287 -0.0136087)
(-0.00694208 -0.0202396 -0.0167511)
(-0.00715014 -0.0194669 -0.0142)
(-0.0103538 -0.00574941 0.000343647)
(-0.00915428 -0.0049947 0.00252008)
(-0.0110034 -0.00634658 0.00147522)
(-0.0118415 -0.00781069 -0.000218728)
(-0.0118572 -0.00737124 0.00026645)
(-0.00968264 -0.00533414 0.00158402)
(0.00319011 -0.0098597 -0.00103463)
(0.00188618 -0.0100142 -0.00162099)
(0.00296734 -0.0131289 -0.00140651)
(0.00172631 -0.00869527 -0.00120682)
(0.00443828 -0.0135515 -0.000711523)
(-0.046441 -0.0155494 0.0411591)
(-0.0530909 -0.0194587 0.0444593)
(-0.0408948 -0.0156516 0.0384007)
(-0.046366 -0.0222438 0.0384826)
(-0.0480474 -0.0183526 0.0379296)
(-0.0440727 -0.0207556 0.0400434)
(-0.0523052 -0.0189059 0.0200705)
(-0.0591324 -0.0207962 0.0349517)
(-0.0556685 -0.0188318 0.0335205)
(-0.0626565 -0.0263865 0.0296626)
(-0.0573836 -0.0225828 0.0288561)
(-0.0555156 -0.0199554 0.0313755)
(-0.00413479 -0.0106433 -0.00369671)
(-0.00238795 -0.00903984 -0.00251085)
(-0.00311571 -0.00842706 -0.00186321)
(-0.00577049 -0.0103429 -0.00236839)
(-0.00430195 -0.00906571 -0.00177715)
(-0.00551572 -0.0109673 -0.0037434)
(-0.0136917 -0.0375069 0.00110884)
(-0.0162832 -0.0358841 0.00219226)
(-0.0135024 -0.0344043 0.0022927)
(-0.015211 -0.0390927 0.00169282)
(-0.0131923 -0.0369239 0.000316114)
(-0.0160701 -0.0369318 0.00187968)
(-0.0157081 -0.0411304 -0.00221941)
(-0.0157656 -0.0384135 -0.000898893)
(-0.0196207 -0.0345827 0.000232361)
(-0.0190128 -0.0303607 0.00156768)
(-0.0242352 -0.0340671 -0.00281079)
(-0.0247058 -0.0350233 -0.00213053)
(-0.0214356 -0.0365325 0.000925249)
(-0.0196445 -0.035261 0.00219371)
(-0.00757364 -0.0261682 -0.0278591)
(-0.0112228 -0.0261256 -0.0282627)
(-0.0148499 -0.0284275 -0.0276578)
(-0.00996657 -0.027505 -0.0298344)
(-0.0142713 -0.027656 -0.0298697)
(-0.0151476 -0.0259104 -0.0268848)
(-0.0243798 -0.0359893 -0.00141093)
(-0.0226631 -0.0321299 -0.00371654)
(-0.0253525 -0.0400241 -0.00153474)
(-0.0263248 -0.0340046 -0.00659243)
(-0.0245417 -0.0382907 -0.00241294)
(0.00225121 0.002689 0.000510748)
(0.00168146 0.00106415 0.000912237)
(0.00382908 0.00371025 0.00112183)
(0.00244922 0.00178166 0.000427207)
(0.00325509 0.00206831 0.00106837)
(0.00319331 0.00300346 0.0014676)
(-0.00619916 -0.00319229 -0.00274367)
(-0.00110877 0.000681264 -0.00127532)
(-0.00397986 -0.000679606 -0.0027686)
(-0.0137163 -0.00751957 -0.00828016)
(-0.00256865 -0.000972047 -0.000868764)
(-0.00621111 -0.00152834 -0.00524624)
(-0.0117296 -0.00779859 -0.0219222)
(-0.011633 -0.00875672 -0.0219993)
(-0.0102262 -0.0115141 -0.0241559)
(-0.0104908 -0.00957229 -0.0238883)
(-0.00991997 -0.0121281 -0.0240389)
(-0.0115955 -0.0116402 -0.0237173)
(-0.0105098 -0.00409934 -0.0172604)
(-0.010817 -0.0041205 -0.0152732)
(-0.0118249 -0.00662252 -0.0204827)
(-0.0107786 -0.00393819 -0.016199)
(-0.0112305 -0.00546904 -0.0200102)
(-0.00930018 -0.002526 -0.0130018)
(-0.0116075 -0.00697135 -0.0211095)
(-0.00986161 -0.00426602 -0.0135084)
(-0.00792235 -0.00172744 -0.010558)
(-0.00900818 -0.00283787 -0.0127415)
(-0.0100472 -0.00386809 -0.0161778)
(-0.00713017 -0.00181549 -0.00960576)
(0.00312919 0.00258273 0.00119425)
(0.00420765 0.00308546 0.00138929)
(0.0039186 0.00321406 0.00150226)
(0.0034237 0.00300088 0.00139403)
(0.003369 0.00151381 0.0010322)
(0.00311191 0.00183027 0.00101666)
(-0.00803385 -0.0235532 -0.0136478)
(-0.00862738 -0.0260748 -0.0138338)
(-0.00853805 -0.0256546 -0.0141981)
(-0.00809264 -0.0264093 -0.014211)
(-0.00919849 -0.0236888 -0.0141831)
(-0.00925041 -0.0228071 -0.014279)
(-0.00779471 -0.0281205 -0.0132234)
(-0.00688651 -0.0304552 -0.0123162)
(-0.00912871 -0.0300381 -0.0128539)
(-0.00828379 -0.0306762 -0.0132232)
(-0.00855776 -0.0294831 -0.0137866)
(-0.0206657 -0.0116768 0.0191022)
(-0.0229887 -0.0116339 0.0225566)
(-0.0200481 -0.0172877 0.0125902)
(-0.0203254 -0.0147642 0.0141412)
(-0.0227798 -0.0165571 0.0191432)
(-0.0223618 -0.01748 0.0161512)
(-0.0209308 -0.0240378 0.00814461)
(-0.0213432 -0.0244309 0.0111546)
(-0.020174 -0.0197467 0.0107725)
(-0.0203816 -0.0202406 0.00806415)
(-0.0175834 -0.0226247 0.00472921)
(-0.0209499 -0.0219345 0.0118109)
(-0.0158315 -0.0165148 0.00163117)
(-0.0151143 -0.0183643 -0.00337653)
(-0.017175 -0.018585 0.00204456)
(-0.0166971 -0.016807 9.18538e-05)
(-0.0170936 -0.0201343 -0.000779249)
(-0.0171704 -0.0211968 0.00112582)
(-0.012701 -0.00682767 0.0092613)
(-0.012743 -0.0069203 0.00714719)
(-0.0151497 -0.0110591 0.00528002)
(-0.0154969 -0.0092736 0.00783123)
(-0.0130881 -0.00789283 0.00565036)
(-0.0139059 -0.00751755 0.00969613)
(-0.014992 -0.0109094 0.00383049)
(-0.0135164 -0.00926318 0.00333451)
(-0.0150603 -0.0124615 0.00188595)
(-0.0134113 -0.00874982 0.00234856)
(-0.0129155 -0.0100454 -0.00033009)
(-0.0146656 -0.0115984 0.000740755)
(-0.0409717 -0.0224198 0.0141698)
(-0.0405115 -0.0231622 0.00246977)
(-0.0393622 -0.0200702 0.00433165)
(-0.0325076 -0.0196228 0.00208199)
(-0.0316196 -0.0199404 0.00564261)
(-0.0373015 -0.0203648 0.00947045)
(-0.0185203 -0.0128197 0.0080401)
(-0.0251269 -0.0148583 0.0134312)
(-0.0268856 -0.0170909 0.00971424)
(-0.0210079 -0.0134977 0.010122)
(-0.0212217 -0.0148702 0.00608747)
(-0.0235995 -0.0143599 0.013123)
(-0.0597254 -0.0194632 0.0392305)
(-0.0507974 -0.0192262 0.0375036)
(-0.0557506 -0.0172242 0.04055)
(-0.0516111 -0.0148709 0.0373967)
(-0.0540836 -0.0178679 0.0321258)
(-0.0575411 -0.0226085 0.0361694)
(-0.00929027 -0.0175342 -0.0214316)
(-0.0095238 -0.0182804 -0.0187376)
(-0.0122185 -0.0183258 -0.0189)
(-0.0140274 -0.0189048 -0.0224099)
(-0.0128855 -0.019216 -0.0220783)
(-0.0104973 -0.0181876 -0.0180763)
(-0.0214812 -0.0194726 -0.0234756)
(-0.0148444 -0.0170265 -0.0246214)
(-0.0178154 -0.01387 -0.0249963)
(-0.0204255 -0.015488 -0.0237127)
(-0.0170692 -0.0160154 -0.026349)
(-0.0167982 -0.0175144 -0.0254212)
(-0.0171148 -0.0200383 -0.0182389)
(-0.018347 -0.019799 -0.0167302)
(-0.0225755 -0.0201036 -0.0194759)
(-0.0214968 -0.0197704 -0.016643)
(-0.0205088 -0.0192803 -0.0196489)
(-0.0185512 -0.0194818 -0.0203258)
(-0.0324139 -0.0239585 -0.012354)
(-0.0336716 -0.022575 -0.00555373)
(-0.0322844 -0.0208097 -0.0110163)
(-0.0262714 -0.020817 -0.00842074)
(-0.0261483 -0.0206371 -0.0108816)
(-0.030461 -0.0211715 -0.00650352)
(-0.0261063 -0.0189087 -0.00102471)
(-0.0247883 -0.0178217 0.00223095)
(-0.0196348 -0.0161336 0.000991799)
(-0.019258 -0.0168717 -0.00308994)
(-0.0203827 -0.0153463 0.00191906)
(-0.0229461 -0.0186003 -0.00151131)
(-0.00244945 0.000867913 0.00186573)
(0.00018859 0.000389098 -0.000244447)
(-0.00290043 0.000537739 0.0022796)
(-0.00194327 0.000260404 0.00159826)
(0.000163556 0.00101661 -0.000569825)
(-0.000949312 0.000340748 0.00059321)
(-0.00107473 0.000809357 0.000437958)
(-0.00606412 -0.00218463 0.00576212)
(-0.00536327 -0.000715266 0.00554864)
(-0.00406564 -0.000914231 0.00380895)
(-0.00470564 -0.000313108 0.00448517)
(-0.00695798 -0.00165684 0.00669571)
(-0.00426293 -0.00180356 0.00387275)
(-0.00219837 -0.00137036 0.0019308)
(-0.00282017 -0.00110749 0.00234572)
(-0.000940161 1.54046e-05 0.000844637)
(-0.000755504 -0.000162717 0.000728498)
(-0.00107653 -0.000852102 0.00100646)
(-0.00229456 -0.000476615 0.00204342)
(-0.00213662 -0.00270441 0.00144186)
(-0.00171231 -0.0018483 0.00139489)
(-0.0014718 -0.00211444 0.000980778)
(-0.000631521 -0.00173055 0.000634196)
(-0.00108765 -0.00138149 0.000875763)
(0.00638573 -0.0187533 -0.000851841)
(0.00648224 -0.0182419 0.00310024)
(0.0054614 -0.017409 -0.000629659)
(0.00611525 -0.019213 0.00318498)
(0.00596873 -0.0206297 0.000969237)
(0.00634351 -0.0171772 0.0014458)
(-0.00161127 -0.00779133 -0.00164963)
(-6.26304e-05 -0.00763761 -0.00173161)
(-0.00219625 -0.00766779 -0.00139101)
(-0.000262168 -0.00631423 -0.000876136)
(-0.00103947 -0.00790081 -0.00168537)
(-0.00077473 -0.00599128 -0.000734638)
(0.000459524 -0.00570305 -0.000459103)
(0.00161206 -0.00672028 -0.000480875)
(0.000849954 -0.00419038 -0.00014029)
(0.00163301 -0.00662363 3.60158e-05)
(-7.6475e-05 -0.00385252 5.35247e-05)
(-0.000134217 -0.00460048 -0.000236737)
(0.00501167 -0.0131196 0.00613588)
(0.00572842 -0.0143202 0.00651229)
(0.00616758 -0.0136786 0.00512118)
(0.00582251 -0.0150154 0.00492292)
(0.00716129 -0.0151558 0.00429489)
(-0.00486152 -0.00446353 0.00409657)
(-0.00473561 -0.00461021 0.00543368)
(-0.00291394 -0.00493448 0.00645977)
(-0.00737371 -0.00475691 0.00319465)
(-0.00642049 -0.00461489 0.00403608)
(-0.00369085 -0.00473185 0.00526119)
(0.00215778 -0.00789214 0.00757238)
(-0.00110368 -0.00704066 0.00781881)
(0.000216587 -0.00588244 0.00694407)
(0.0023458 -0.00821514 0.00770287)
(0.000524904 -0.0083325 0.00873651)
(0.00156706 -0.00740997 0.00792055)
(-0.00705198 -0.00340687 0.00871162)
(-0.0054175 -0.00295615 0.00817237)
(-0.00829608 -0.00390605 0.0118057)
(-0.0079027 -0.00348848 0.0100787)
(-0.00449607 -0.00264123 0.00870532)
(-0.00981112 -0.00513798 0.00323386)
(-0.0104602 -0.00533333 0.00531752)
(-0.0114315 -0.00655715 0.00324868)
(-0.011014 -0.00643193 0.00345534)
(-0.00932295 -0.00477186 0.00427843)
(-0.00815983 -0.00435891 0.00254267)
(-0.00601057 -0.00360929 0.00351448)
(-0.00495993 -0.00354941 0.00513279)
(-0.00705601 -0.0039927 0.00378657)
(-0.00443267 -0.00335617 0.00423096)
(-0.00366493 -0.00367567 0.0058094)
(-0.0153281 -0.0315391 0.00138491)
(-0.0119129 -0.0310813 -0.00368177)
(-0.0107695 -0.0302033 -0.0052154)
(-0.0119814 -0.0301114 -0.000699921)
(-0.0147023 -0.029733 0.000600883)
(-0.0139918 -0.0307582 -0.00328813)
(-0.0124047 -0.0281919 -0.0084665)
(-0.0109829 -0.031904 -0.00878841)
(0.00359847 -0.0207902 -0.00564559)
(0.00509343 -0.0237072 -0.00225399)
(0.00540021 -0.0198169 -0.00318697)
(0.00487792 -0.0228433 -0.00168759)
(0.00373921 -0.0240397 -0.00461276)
(0.00346649 -0.0200205 -0.00494571)
(-0.0106934 -0.0185678 -0.0243069)
(-0.0100384 -0.0148776 -0.0250976)
(-0.0119775 -0.0156282 -0.0275249)
(-0.00998303 -0.0185812 -0.0226651)
(-0.00942327 -0.0156651 -0.0240448)
(-0.0122591 -0.017704 -0.0252552)
(-0.0155291 -0.00947759 -0.0209815)
(-0.0133086 -0.00839271 -0.0207359)
(-0.0137865 -0.00988037 -0.0255431)
(-0.01488 -0.0103025 -0.0231707)
(-0.0133736 -0.0111096 -0.0271056)
(-0.0149567 -0.0121286 -0.0256835)
(-0.00931664 -0.0148197 -0.0268309)
(-0.0107578 -0.0144081 -0.0259388)
(-0.0101441 -0.0102988 -0.0255392)
(-0.00878709 -0.015017 -0.0245655)
(-0.0116309 -0.0107903 -0.026091)
(-0.012162 -0.0150911 -0.026493)
(-0.0088479 -0.0265017 -0.0133907)
(-0.00903322 -0.0280891 -0.0135445)
(-0.00959999 -0.0313392 -0.0134716)
(-0.0394388 -0.0225536 0.0282274)
(-0.045199 -0.0226169 0.0317709)
(-0.024957 -0.0240212 0.0169943)
(-0.0364795 -0.0247539 0.0243763)
(-0.0326686 -0.0190374 0.0167061)
(-0.0425821 -0.0243998 0.0269827)
(-0.0506417 -0.0238224 0.020138)
(-0.0269673 -0.0147242 0.00811745)
(-0.051746 -0.0245771 0.0262429)
(-0.0347524 -0.0167886 0.00972089)
(-0.0533954 -0.0237237 0.0281346)
(-0.0355236 -0.020759 0.0158614)
(0.00251688 -0.0023375 0.000743499)
(0.00178293 -0.000195381 -0.000738065)
(0.001769 -0.000425294 -0.000537056)
(0.00202263 -0.00136606 0.000178042)
(0.00213352 -0.00130393 -9.72175e-05)
(0.00243731 -0.00252581 0.00122348)
(0.00244177 -0.00433885 0.000851789)
(0.00179694 -0.00218703 7.69612e-05)
(0.00212413 -0.00261349 0.000384427)
(0.00311188 -0.00579397 0.00259503)
(0.00337053 -0.00551426 0.00185875)
(0.00261552 -0.00392776 0.00144689)
(-0.00140942 -0.0022293 0.00460823)
(-0.0020258 -0.0028824 0.00569794)
(-0.000120622 -0.00250353 0.00459731)
(-0.00111425 -0.00284882 0.00522034)
(-0.00179242 -0.00242674 0.00572556)
(-0.00291853 -0.00265658 0.00549405)
(-0.000154595 -0.017467 -0.00750411)
(0.000177324 -0.0210235 -0.0104198)
(-0.000912891 -0.019978 -0.00709763)
(-0.00260097 -0.0229565 -0.00886379)
(-0.000839353 -0.0229666 -0.0126685)
(-0.00296009 -0.0283144 -0.0182601)
(-0.0020202 -0.0240579 -0.0117691)
(-0.000735912 -0.0241986 -0.0156042)
(0.00455198 0.00080726 0.000910839)
(0.00408138 0.000164002 0.000502409)
(0.00298938 -0.0036918 -0.001217)
(0.00329213 -0.0033184 -0.000804767)
(0.00467443 -0.000305964 0.000429042)
(0.00273369 -0.00242979 -0.000582009)
(0.00227806 -0.00650684 -0.00259892)
(0.00173276 -0.0101054 -0.00480696)
(0.00237206 -0.00747371 -0.00306377)
(0.00150686 -0.0092895 -0.00422074)
(0.0019994 -0.00573463 -0.00206487)
(0.00195641 -0.0107469 -0.00537141)
(-0.00658695 -0.0273532 -0.0291651)
(-0.00281911 -0.0257865 -0.0268032)
(-0.000368812 -0.0243966 -0.0229618)
(0.00110465 -0.0233582 -0.0245184)
(-0.00294472 -0.02749 -0.0280883)
(-0.00371814 -0.0262492 -0.0297782)
(-0.000724773 -0.0229393 -0.0201329)
(0.00215405 -0.0155927 -0.0102392)
(0.00158365 -0.0186066 -0.0123024)
(0.00104926 -0.0214668 -0.0156809)
(0.000954439 -0.019412 -0.0138868)
(-0.00913774 -0.0264357 -0.0184801)
(-0.00721162 -0.025856 -0.0236685)
(-0.00695116 -0.0278709 -0.0234891)
(-0.00906528 -0.0294952 -0.0180852)
(-0.0088963 -0.0250342 -0.021025)
(-0.00687023 -0.0289369 -0.0200526)
(-0.000663651 -0.0191322 0.00804965)
(-0.0043724 -0.0145648 0.00649379)
(-0.00481951 -0.0170583 0.00715741)
(-0.00214072 -0.0200853 0.00711762)
(-0.0024539 -0.016242 0.00797756)
(-0.00432379 -0.0199751 0.00669624)
(-0.00219667 -0.00740722 0.00705824)
(-0.00452226 -0.00690685 0.00550544)
(-0.00163901 -0.00750178 0.00751968)
(-0.00564738 -0.00647375 0.00574409)
(-0.00684498 -0.00643609 0.00423791)
(-0.0037073 -0.00692063 0.00704643)
(0.00393539 -0.0120551 0.00803972)
(1.74869e-05 -0.0104524 0.00845253)
(0.00176609 -0.0117633 0.00816381)
(0.0024572 -0.01066 0.00818126)
(0.00096886 -0.00914562 0.00779079)
(-0.00855934 -0.0296959 0.0041583)
(-0.0117253 -0.0309213 0.00314999)
(-0.0117094 -0.0355155 0.00144453)
(-0.0118045 -0.0323095 0.00267213)
(-0.00871898 -0.0334277 0.00179499)
(-0.00769123 -0.0329683 0.00301918)
(-0.0106914 -0.0359513 -0.0102837)
(-0.00869768 -0.0332982 -0.0111857)
(-0.00909003 -0.034645 -0.0102085)
(-0.0086329 -0.031595 -0.0112699)
(-0.0103578 -0.032811 -0.0112244)
(-0.0097669 -0.0332354 -0.00954983)
(0.000893794 -0.0302514 -0.00470593)
(-0.00052264 -0.0301621 -0.000332869)
(0.00285503 -0.0299642 -0.00381298)
(0.00120935 -0.0277696 0.00037665)
(0.00299666 -0.0265086 -0.00105197)
(0.00172661 -0.0307927 -0.00389375)
(0.000482983 -0.0312223 -0.0020548)
(-0.0030121 -0.0293993 -0.0128435)
(-0.00471526 -0.0242185 -0.0128209)
(-0.00520379 -0.0244299 -0.0129185)
(-0.00284393 -0.0282198 -0.0123285)
(-0.00249578 -0.0241779 -0.0123452)
(-0.00391944 -0.0283449 -0.0135891)
(-0.0112418 -0.0400806 -0.00323822)
(-0.00963859 -0.0384514 -0.00396167)
(-0.00935419 -0.0367089 -0.00145533)
(-0.0110709 -0.03815 -0.00080767)
(-0.0112159 -0.0379375 -0.00157896)
(-0.0082129 -0.0396167 -0.00288864)
(-0.0119593 -0.0399911 -0.006196)
(-0.00934989 -0.0391902 -0.00877754)
(-0.00854537 -0.0392705 -0.00750385)
(-0.0117474 -0.0390575 -0.00599194)
(-0.00992502 -0.0383325 -0.00613925)
(-0.00947787 -0.0384429 -0.00848259)
(-0.00969356 -0.0375489 -0.00654175)
(0.00215808 0.000546614 -0.00167177)
(0.001751 -0.000264439 -0.000562502)
(0.00224237 0.00079817 -0.00208398)
(0.00151759 -5.52722e-05 -0.000531993)
(0.00196319 0.000628709 -0.00171171)
(0.00125002 -0.000557919 0.000298129)
(0.00166483 -0.000138102 -0.000603333)
(0.00134923 -0.00127786 0.000835439)
(0.00162467 -0.000910771 0.000148313)
(0.00148634 -7.89768e-05 -0.000473138)
(0.00190509 3.33872e-05 -0.000878744)
(0.000233203 -0.00157671 0.00224838)
(0.000323445 -0.00217814 0.00334983)
(-0.000510776 -0.00216218 0.0040606)
(0.000940367 -0.00176733 0.00227828)
(0.00083587 -0.00121552 0.00134567)
(-0.000265523 -0.00177053 0.00306235)
(-0.0530586 -0.0219383 0.0150534)
(-0.0432591 -0.0203442 0.00267221)
(-0.0562989 -0.0219098 0.0121486)
(-0.0395441 -0.0198238 0.00320393)
(-0.0548015 -0.0262683 0.00999101)
(-0.0435499 -0.0207679 0.00968017)
(-0.0100024 -0.0271935 -0.00039894)
(-0.00696153 -0.0189457 -0.000611043)
(-0.00613825 -0.0244026 -0.00484858)
(-0.00903594 -0.0274041 -0.00365881)
(-0.0032582 -0.0151157 -0.000600327)
(-0.00434329 -0.0207257 -0.0035294)
(-0.00877082 -0.0242013 -0.0138352)
(-0.00935007 -0.0229243 -0.0140961)
(-0.00844159 -0.0152988 -0.0244727)
(-0.00845421 -0.0190942 -0.022128)
(-0.00870691 -0.0174692 -0.0237113)
(-0.0088992 -0.0193652 -0.0189588)
(-0.00815009 -0.017278 -0.020538)
(-0.00768174 -0.0149936 -0.0214816)
(-0.0071342 -0.0175522 -0.0207439)
(-0.00862954 -0.0183627 -0.0220865)
(-0.00734503 -0.0194501 -0.0201395)
(-0.00828248 -0.017683 -0.0228701)
(-0.00682624 -0.0183527 -0.0208721)
(-0.00809724 -0.0200843 -0.0184326)
(-0.00185337 -0.0142583 -0.00719491)
(-0.00115909 -0.0171095 -0.00799464)
(-0.000781112 -0.0131756 -0.0057577)
(-0.00213194 -0.0133908 -0.00594012)
(0.000918603 -0.0173907 -0.00756911)
(0.000160326 -0.0153129 -0.00605767)
(-0.00407508 -0.0151995 -0.0100007)
(-0.00403845 -0.0145397 -0.00834263)
(-0.00566245 -0.0151645 -0.0100868)
(-0.00366061 -0.0130435 -0.00711081)
(-0.00556331 -0.0148679 -0.00984646)
(-0.00416027 -0.0127484 -0.00690894)
(0.00477792 -0.0111783 0.00589966)
(0.00418716 -0.0111399 0.00742049)
(0.00470571 -0.0123158 0.00710371)
(0.00539415 -0.0121755 0.00526242)
(0.00550733 -0.0120584 0.00558259)
(0.00433655 -0.00976427 0.00640341)
(0.00419913 -0.0100199 0.002715)
(0.00198594 -0.00600039 0.000806739)
(0.00296015 -0.00688143 0.00142405)
(0.00296893 -0.00843081 0.00121654)
(0.00332844 -0.00781553 0.00258453)
(0.00450335 -0.0102546 0.00371172)
(-0.0125375 -0.00822488 0.00823107)
(-0.0176287 -0.0104472 0.0114461)
(-0.0133913 -0.00976079 0.00711219)
(-0.0161971 -0.0107617 0.00987783)
(-0.015476 -0.00854062 0.0122977)
(-0.0132615 -0.00753538 0.00996273)
(-0.00382694 -0.00258589 0.00308125)
(-0.00372339 -0.00341336 0.00242925)
(-0.00605458 -0.00453664 0.0042098)
(-0.00522442 -0.00340426 0.00420047)
(-0.00449252 -0.00259564 0.00363283)
(-0.0168039 -0.0137388 0.00358047)
(-0.0116894 -0.0115685 0.000824065)
(-0.0137501 -0.0124249 0.00239734)
(-0.0131016 -0.0101555 0.00491758)
(-0.0159955 -0.0122332 0.00544113)
(-0.0124846 -0.0108738 0.00439523)
(0.00147828 0.00248445 0.000501352)
(0.00245551 0.00298122 0.000996313)
(-0.000963963 0.00157725 -0.00123731)
(-0.00467292 0.000369607 -0.0052592)
(-0.00395956 0.000187978 -0.00415765)
(-0.00211795 0.00125842 -0.00250829)
(0.000812904 0.00248736 8.35281e-06)
(-0.00789079 -0.00368541 0.00711218)
(-0.00489049 -0.0157689 -0.0103873)
(-0.00462708 -0.0163781 -0.00984885)
(-0.00466924 -0.0197349 -0.0111567)
(-0.0032832 -0.0194499 -0.0105814)
(-0.00223096 -0.0221566 -0.0110502)
(-0.000766661 -0.0232288 -0.0104792)
(-0.000708812 -0.0224361 -0.00976705)
(-0.00387567 -0.0160045 -0.00897324)
(-0.00109269 -0.0184254 -0.00923158)
(-0.00267053 -0.0181994 -0.00965122)
(-0.00377211 -0.0149664 -0.00784364)
(-0.00307067 -0.0123673 -0.00555844)
(-0.00771301 -0.0203851 -0.0176427)
(-0.00717376 -0.0205977 -0.0164649)
(-0.00848781 -0.0218387 -0.0156042)
(-0.00873785 -0.0163182 -0.0236083)
(-0.0089986 -0.0215073 -0.0145188)
(-0.00870433 -0.0199585 -0.0142487)
(-0.00809399 -0.0207017 -0.0163371)
(-0.00801635 -0.0214688 -0.0178438)
(-0.00955904 -0.0209129 -0.0167212)
(-0.00784333 -0.0195921 -0.0181216)
(-0.00842382 -0.0193591 -0.0165874)
(-0.00750493 -0.0186916 -0.0199154)
(-0.00817849 -0.0204203 -0.0139115)
(-0.00820548 -0.0215995 -0.0153896)
(-0.00888399 -0.0205725 -0.0146187)
(-0.0278779 -0.0179022 -0.0167573)
(-0.0250902 -0.0164596 -0.0223832)
(-0.0259708 -0.0181789 -0.0213935)
(-0.0285727 -0.0209278 -0.0167537)
(-0.023347 -0.0134322 -0.0145992)
(-0.0205881 -0.0145262 -0.0206624)
(-0.018947 -0.0096835 -0.0159795)
(-0.0208675 -0.0124042 -0.0195498)
(-0.0177083 -0.0110173 -0.0198916)
(-0.034511 -0.0211098 -0.0156598)
(-0.0322125 -0.0214644 -0.013625)
(-0.0340056 -0.0181648 -0.0117994)
(-0.0402979 -0.0229407 -0.00725466)
(-0.0439003 -0.0217936 0.00197224)
(-0.0438001 -0.0254851 -0.000480263)
(-0.0386969 -0.0217731 -0.00858662)
(-0.0365118 -0.0230226 -0.0126324)
(-0.0506414 -0.0252159 0.00190326)
(-0.0445048 -0.0229891 -0.00128724)
(-0.0455895 -0.0225456 -0.00334723)
(-0.049847 -0.0219568 0.00623166)
(0.00136895 -0.00242474 0.00260764)
(0.00115624 -0.00165741 0.00159435)
(0.00205601 -0.0023795 0.00182059)
(0.00195485 -0.0016945 0.000870582)
(0.0015667 -0.000493543 -0.000129376)
(0.00032413 -0.00111345 0.00152845)
(-0.00792357 -0.0403811 -0.00479124)
(-0.00373664 -0.0344637 -0.0123109)
(-0.00884236 -0.0378569 -0.00683167)
(-0.00650321 -0.0355424 -0.00951154)
(-0.00469928 -0.0344153 -0.0112836)
(-0.0056516 -0.0326814 -0.0120906)
(-0.0073665 -0.0343451 -0.0123185)
(-0.000388946 -0.0278879 -0.0107597)
(-0.000411999 -0.0270309 -0.0102018)
(0.00154262 -0.026927 -0.00791122)
(-0.00120384 -0.0336917 -0.0101757)
(-0.00243824 -0.0320319 -0.00958356)
(-0.00663722 -0.0372187 -0.00614575)
(-0.00353909 -0.0356825 -0.0083307)
(-0.00254493 -0.03511 -0.00617626)
(-0.00555184 -0.0372727 -0.0085876)
(-0.00685508 -0.0381229 -0.00460988)
(-0.00680453 -0.0369691 -0.00375395)
(-0.00345493 -0.034392 -0.00361181)
(-0.00301464 -0.0341889 -0.00198761)
(0.000502707 -0.0318114 -0.00791153)
(0.00256654 -0.0284906 -0.00689514)
(-0.00138839 -0.0313122 -0.00597802)
(-0.0049103 -0.0282071 -0.0133281)
(-0.00533444 -0.031063 -0.0128287)
(-0.0064552 -0.0317487 -0.0129339)
(-0.0063279 -0.0283217 -0.0139383)
(-0.00685184 -0.0280732 -0.0136724)
(-0.00657273 -0.0331374 -0.0142519)
(-0.00730047 -0.0269122 -0.0137016)
(-0.00861633 -0.021787 -0.0133844)
(-0.0071777 -0.0245746 -0.0138513)
(-0.0108338 -0.0370811 -0.00885136)
(-0.00587677 -0.0340967 -0.000557408)
(-0.00838111 -0.03716 -8.42024e-05)
(-0.000387466 -0.00768335 0.00774237)
(-0.00551667 -0.0270935 -0.00964306)
(-0.00417752 -0.0250976 -0.00819799)
(-0.00536866 -0.0290899 -0.013555)
(-0.00957707 -0.00552829 -0.00240421)
(-0.0110007 -0.00669073 -0.00203582)
(-0.0116539 -0.00685784 -0.00352664)
(-0.0111312 -0.00755637 -0.00495732)
(-0.0114565 -0.00835247 -0.00604048)
(-0.0109379 -0.00799302 -0.00772952)
(-0.00923571 -0.00611494 0.00130094)
(-0.00739068 -0.00608732 0.00292549)
(-0.00820501 -0.00623226 0.000987704)
(-0.00938679 -0.00908285 0.00333509)
(-0.00866804 -0.00853352 0.00340383)
(-0.00942756 -0.00621303 -0.00166471)
(-0.0105549 -0.00667725 -0.00520831)
(-0.01024 -0.00654693 -0.00119652)
(-0.0107389 -0.00672787 -0.00287811)
(-0.00994118 -0.00597031 -0.00341556)
(-0.0121878 -0.00806986 -0.00716806)
(-0.0112478 -0.00770261 -0.0059338)
(-0.00768818 -0.0267797 0.00476)
(-0.00880233 -0.024004 0.00522298)
(-0.0110387 -0.0249509 0.00492531)
(-0.0115251 -0.0263595 0.00390853)
(-0.0112564 -0.0215271 0.00462663)
(-0.00895803 -0.0191793 0.00574425)
(-0.00504873 -0.0221196 0.00667672)
(-0.00821029 -0.0223582 0.00576754)
(-0.00105019 -0.0236744 0.00634205)
(0.00177851 -0.0180139 0.00699027)
(-0.00565482 -0.0103099 0.00617878)
(-0.00178549 -0.00942029 0.00799351)
(-0.00582443 -0.00850487 0.00582734)
(-0.00542594 -0.0128656 0.00710609)
(-0.00467649 -0.010028 0.00754986)
(-0.00274838 -0.0097635 0.00756862)
(-0.00130002 -0.0117008 0.00812708)
(-0.0005056 -0.0155171 0.00868904)
(-0.00303486 -0.0135024 0.00824177)
(-0.0110493 -0.00743857 -0.00615545)
(-0.00932958 -0.00802121 0.00115112)
(-0.011761 -0.00874069 -0.00362956)
(-0.0105495 -0.00771071 -0.00106828)
(-0.0128041 -0.00946577 -0.00481622)
(-0.0140409 -0.0121556 -0.00471484)
(-0.0113679 -0.0101201 -0.00122871)
(0.00403978 -0.0140638 0.00741313)
(0.00150387 -0.0156943 0.00818605)
(0.00207651 -0.017494 0.00732675)
(0.0012029 -0.0130551 0.00877628)
(0.00345001 -0.0180936 0.0063443)
(0.00434208 -0.0166941 0.00610673)
(0.00187793 -0.0150034 0.00826051)
(-0.002795 -0.0246533 0.0051823)
(-0.00449981 -0.0251285 0.00544177)
(-0.00496588 -0.0263269 0.00494426)
(-0.00582885 -0.0334392 0.000256237)
(-0.00354341 -0.0315756 -0.000174666)
(-0.00516773 -0.0298208 0.00335705)
(-0.00569204 -0.0303641 0.00232991)
(0.0011418 -0.0265059 0.0027619)
(-0.00197204 -0.0316163 0.00138978)
(-0.00124376 -0.028031 0.0040785)
(-0.00278502 -0.0279415 0.00287318)
(-0.0119159 -0.0275006 -0.00971763)
(-0.00796754 -0.0307879 -0.0140546)
(-0.00572851 -0.0288667 -0.0151519)
(-0.00586956 -0.0295318 -0.0187088)
(-0.00875265 -0.0306425 -0.0152808)
(-0.0111114 -0.0299091 -0.0130462)
(-0.0120322 -0.00939861 -0.00907445)
(-0.0118339 -0.00968008 -0.00950388)
(-0.0120988 -0.0105042 -0.0108858)
(-0.012688 -0.00960632 -0.00960772)
(-0.0116065 -0.0115993 -0.0145596)
(-0.0120476 -0.0101228 -0.0118924)
(-0.0126431 -0.0166826 -0.0182337)
(-0.0123216 -0.0124396 -0.015396)
(-0.0130799 -0.0099613 -0.00901196)
(-0.011518 -0.00835954 -0.00877576)
(-0.0127023 -0.0116561 -0.0126026)
(-0.0133969 -0.0105742 -0.0100832)
(-0.0131442 -0.0129163 -0.0154244)
(-0.0146663 -0.0130157 -0.0123326)
(-0.0121857 -0.0264183 -0.0124418)
(-0.0111133 -0.0261846 -0.0164725)
(-0.0101653 -0.0269685 -0.0142566)
(-0.0119475 -0.023192 -0.0125999)
(-0.012522 -0.0227174 -0.0145822)
(-0.0104999 -0.0235504 -0.0169831)
(-0.0106914 -0.017673 -0.0198005)
(-0.0106081 -0.0204215 -0.0214214)
(-0.0100092 -0.0227676 -0.0210688)
(-0.0117973 -0.0223856 -0.0179403)
(-0.012876 -0.0137287 -0.0127085)
(-0.0117082 -0.0166157 -0.0168058)
(-0.0122589 -0.018984 -0.017135)
(-0.0126285 -0.0142538 -0.0155348)
(-0.0126881 -0.0108701 -0.00741126)
(-0.0127044 -0.011679 -0.0103166)
(-0.0123268 -0.0199085 -0.0146852)
(-0.012434 -0.0178207 -0.0147727)
(-0.0116331 -0.0146633 -0.0141082)
(-0.0127208 -0.0135324 -0.0109517)
(-0.0136034 -0.0184567 -0.0114261)
(-0.0128224 -0.0149762 -0.0109708)