/*--------------------------------*- C++ -*----------------------------------*\
| =========                 |                                                 |
| \\      /  F ield         | OpenFOAM: The Open Source CFD Toolbox           |
|  \\    /   O peration     | Version:  v1612+                                |
|   \\  /    A nd           | Web:      www.OpenFOAM.com                      |
|    \\/     M anipulation  |                                                 |
\*---------------------------------------------------------------------------*/
FoamFile
{
    version     2.0;
    format      ascii;
    class       volVectorField;
    location    "239";
    object      U;
}
// * * * * * * * * * * * * * * * * * * * * * * * * * * * * * * * * * * * * * //

dimensions      [0 1 -1 0 0 0 0];

internalField   nonuniform List<vector> 
17018
(
(0.578419 0.689882 0.250551)
(0.603331 0.686622 0.21756)
(0.593314 0.672315 0.215209)
(0.563205 0.653954 0.217606)
(0.543857 0.640354 0.211346)
(0.54075 0.616651 0.197239)
(0.512351 0.596731 0.190918)
(0.57677 0.668134 0.210061)
(0.531611 0.617623 0.195636)
(0.562143 0.648556 0.208821)
(0.512158 0.601611 0.190992)
(0.618621 0.705122 0.228657)
(0.548593 0.619636 0.202005)
(0.612287 0.701353 0.225993)
(0.577255 0.663663 0.220499)
(0.564368 0.639152 0.207595)
(0.612565 0.701505 0.2242)
(0.609715 0.682018 0.22235)
(0.603072 0.690591 0.222958)
(0.563665 0.653432 0.212735)
(0.524396 0.595211 0.191687)
(0.51705 0.600469 0.193519)
(0.533821 0.663664 0.211142)
(0.478923 0.600611 0.182886)
(0.527611 0.648221 0.202892)
(0.557872 0.686814 0.225484)
(0.502896 0.619229 0.20196)
(0.484693 0.595828 0.193956)
(0.488316 0.600134 0.187471)
(0.410965 0.508971 0.150826)
(0.492524 0.597672 0.196976)
(0.488124 0.601769 0.195857)
(0.422466 0.526203 0.16695)
(0.520865 0.648858 0.219492)
(0.518821 0.628052 0.206427)
(0.545608 0.667413 0.224364)
(0.527658 0.636587 0.206863)
(0.433383 0.534617 0.174579)
(0.499192 0.609522 0.220683)
(0.557203 0.666078 0.240706)
(0.552633 0.674872 0.244372)
(0.537548 0.656542 0.239307)
(0.564775 0.687001 0.251086)
(0.426034 0.553266 0.203786)
(0.378969 0.501433 0.185584)
(0.379916 0.498737 0.181888)
(0.446154 0.592176 0.218822)
(0.42047 0.555935 0.207704)
(0.459323 0.602696 0.225661)
(0.399921 0.518542 0.196599)
(0.475675 0.609577 0.225376)
(0.50867 0.663275 0.251993)
(0.507454 0.664082 0.251294)
(0.526827 0.67978 0.255252)
(0.443524 0.573364 0.216322)
(0.420706 0.539649 0.200727)
(0.445392 0.577352 0.214382)
(0.509434 0.653172 0.24604)
(0.44823 0.586035 0.223667)
(0.509487 0.647063 0.243648)
(0.513481 0.665527 0.251362)
(0.635573 0.729003 0.237794)
(0.657257 0.764956 0.251904)
(0.657996 0.770247 0.254118)
(0.66756 0.776317 0.25914)
(0.663963 0.781059 0.260368)
(0.668834 0.775387 0.250724)
(0.672813 0.776731 0.256275)
(0.67591 0.790743 0.248948)
(0.632423 0.728067 0.238463)
(0.631333 0.729258 0.242043)
(0.624198 0.726421 0.245276)
(0.623859 0.716246 0.243835)
(0.626548 0.730269 0.245867)
(0.656382 0.765482 0.251793)
(0.669776 0.782592 0.254263)
(0.669462 0.774107 0.255486)
(0.64331 0.738278 0.243329)
(0.631321 0.725503 0.244555)
(0.614047 0.710405 0.242352)
(0.611848 0.696297 0.237901)
(0.645297 0.733367 0.244667)
(0.623787 0.7134 0.241283)
(0.600541 0.732467 0.255885)
(0.595163 0.724342 0.254123)
(0.627865 0.758078 0.263636)
(0.609885 0.736814 0.259523)
(0.483418 0.586607 0.209031)
(0.445917 0.542317 0.190433)
(0.477565 0.587228 0.218856)
(0.545512 0.660516 0.22847)
(0.585579 0.706793 0.24411)
(0.600045 0.730314 0.263178)
(0.522185 0.634217 0.233913)
(0.505829 0.616054 0.221506)
(0.530534 0.638256 0.227826)
(0.489105 0.597816 0.219667)
(0.618439 0.746798 0.260711)
(0.639493 0.7662 0.268248)
(0.522073 0.631315 0.223127)
(0.582447 0.708309 0.258168)
(0.626519 0.755359 0.268998)
(0.634557 0.761645 0.274283)
(0.494594 0.608317 0.218996)
(0.58182 0.712672 0.250674)
(0.580408 0.713438 0.262544)
(0.585741 0.717281 0.26397)
(0.465487 0.585835 0.221154)
(0.436913 0.552642 0.213114)
(0.42967 0.543958 0.205384)
(0.357135 0.472416 0.17851)
(0.423047 0.537478 0.198526)
(0.38984 0.501515 0.183851)
(0.473327 0.602623 0.228234)
(0.520004 0.670671 0.24814)
(0.399194 0.516251 0.192693)
(0.490976 0.628276 0.231467)
(0.431914 0.547749 0.206858)
(0.44149 0.567206 0.21347)
(0.61492 0.715256 0.244845)
(0.630363 0.73023 0.245861)
(0.596141 0.704079 0.246832)
(0.595134 0.702865 0.245939)
(0.605069 0.718262 0.253193)
(0.627153 0.749569 0.263086)
(0.613587 0.730791 0.256992)
(0.66793 0.789676 0.266143)
(0.654994 0.773667 0.261033)
(0.6569 0.767417 0.25195)
(0.65883 0.78007 0.262655)
(0.571593 0.687386 0.218335)
(0.596207 0.725836 0.226976)
(0.603289 0.741738 0.226961)
(0.613699 0.748704 0.228371)
(0.555963 0.668816 0.211436)
(0.584458 0.711488 0.22494)
(0.579042 0.70994 0.22498)
(0.582597 0.706374 0.220638)
(0.562192 0.680569 0.217956)
(0.607081 0.748676 0.233065)
(0.632239 0.771685 0.239307)
(0.39901 0.487364 0.147799)
(0.377614 0.4644 0.137745)
(0.505004 0.619188 0.181777)
(0.479843 0.574764 0.173632)
(0.539558 0.663987 0.200928)
(0.512087 0.6297 0.186961)
(0.421998 0.502575 0.161077)
(0.381159 0.465609 0.142959)
(0.494124 0.600492 0.182851)
(0.366854 0.453261 0.139348)
(0.350884 0.427367 0.13162)
(0.424736 0.524898 0.156004)
(0.516891 0.641409 0.190502)
(0.470963 0.582955 0.182514)
(0.413269 0.501396 0.150308)
(0.392318 0.48316 0.145445)
(0.495723 0.602994 0.188082)
(0.416627 0.508182 0.15726)
(0.343927 0.427303 0.129471)
(0.391501 0.466397 0.157995)
(0.507395 0.621357 0.183941)
(0.434731 0.533501 0.171275)
(0.556146 0.671479 0.220999)
(0.595337 0.711249 0.245701)
(0.58111 0.696703 0.230725)
(0.566896 0.671245 0.239025)
(0.573172 0.683725 0.245529)
(0.580846 0.694554 0.232101)
(0.553812 0.670221 0.232188)
(0.541288 0.648692 0.222129)
(0.600609 0.715646 0.250827)
(0.59212 0.708887 0.247303)
(0.543081 0.639328 0.218293)
(0.575918 0.692313 0.228394)
(0.554102 0.656851 0.222069)
(0.553577 0.658867 0.232344)
(0.531776 0.633758 0.220582)
(0.56939 0.681742 0.243682)
(0.616312 0.737303 0.245965)
(0.613841 0.736377 0.25075)
(0.634548 0.765093 0.263005)
(0.608031 0.735464 0.253328)
(0.630845 0.763463 0.273031)
(0.650549 0.7831 0.279217)
(0.650201 0.782289 0.274364)
(0.650306 0.778965 0.275275)
(0.605391 0.731989 0.265997)
(0.573605 0.705557 0.251326)
(0.58316 0.709005 0.246596)
(0.583526 0.7157 0.251505)
(0.62711 0.765012 0.263851)
(0.629658 0.770053 0.264693)
(0.6115 0.742763 0.261236)
(0.638074 0.775152 0.269169)
(0.556331 0.673434 0.237988)
(0.622109 0.753742 0.265778)
(0.597447 0.72523 0.253937)
(0.554397 0.642132 0.203959)
(0.546639 0.641269 0.196281)
(0.593409 0.692315 0.216839)
(0.576352 0.666256 0.205233)
(0.587908 0.684983 0.21991)
(0.547202 0.629724 0.20084)
(0.65073 0.747258 0.240397)
(0.637644 0.733539 0.235119)
(0.637382 0.747096 0.235714)
(0.635002 0.740886 0.235463)
(0.598416 0.701929 0.216205)
(0.590896 0.689316 0.22202)
(0.636694 0.731088 0.232506)
(0.591104 0.674902 0.20657)
(0.634853 0.736306 0.229683)
(0.35009 0.39927 0.137767)
(0.377418 0.441115 0.151857)
(0.420803 0.493349 0.168726)
(0.339974 0.403894 0.137117)
(0.311372 0.360527 0.12074)
(0.410841 0.489604 0.160417)
(0.360457 0.429754 0.14166)
(0.429144 0.502872 0.172247)
(0.374993 0.440108 0.142558)
(0.336262 0.399414 0.133076)
(0.361274 0.431966 0.137526)
(0.408226 0.49025 0.163293)
(0.427344 0.504127 0.168296)
(0.373727 0.438072 0.145258)
(0.34653 0.42163 0.135677)
(0.313784 0.373974 0.124609)
(0.595198 0.740285 0.273235)
(0.557011 0.70027 0.260737)
(0.534786 0.675818 0.252943)
(0.602317 0.744945 0.276422)
(0.590758 0.726498 0.272141)
(0.562678 0.711137 0.266193)
(0.424352 0.532193 0.209429)
(0.488469 0.614261 0.234736)
(0.487295 0.622343 0.232984)
(0.474819 0.599075 0.232705)
(0.47979 0.592806 0.213517)
(0.467105 0.586136 0.22247)
(0.552707 0.686715 0.257074)
(0.550039 0.685643 0.255002)
(0.458713 0.582419 0.217652)
(0.525623 0.65006 0.246432)
(0.57578 0.726498 0.262427)
(0.58724 0.730719 0.267934)
(0.541303 0.68588 0.247129)
(0.587672 0.738448 0.264389)
(0.548645 0.692611 0.253691)
(0.517337 0.643171 0.240906)
(0.518229 0.645015 0.240008)
(0.526151 0.658366 0.241049)
(0.533436 0.670552 0.248401)
(0.510363 0.640458 0.228251)
(0.575842 0.723445 0.263643)
(0.606846 0.749905 0.268261)
(0.598676 0.730732 0.257935)
(0.593229 0.729329 0.257367)
(0.523445 0.657331 0.249785)
(0.521909 0.652083 0.247091)
(0.592122 0.727854 0.256517)
(0.583581 0.71807 0.258213)
(0.57163 0.705444 0.257807)
(0.559105 0.694881 0.255046)
(0.528492 0.661373 0.208921)
(0.519454 0.647841 0.204703)
(0.488439 0.608326 0.193093)
(0.487763 0.61402 0.196581)
(0.598037 0.742545 0.241737)
(0.59988 0.749932 0.239368)
(0.476809 0.596426 0.188217)
(0.547446 0.679651 0.217083)
(0.510617 0.646234 0.205421)
(0.438452 0.556588 0.176778)
(0.508673 0.640228 0.205625)
(0.495152 0.620724 0.202964)
(0.501577 0.620174 0.206522)
(0.449528 0.565159 0.184039)
(0.602953 0.751616 0.244066)
(0.507712 0.636789 0.209806)
(0.586727 0.739043 0.239734)
(0.508779 0.640637 0.210498)
(0.592662 0.743287 0.237823)
(0.577661 0.73267 0.237619)
(0.455374 0.564826 0.203968)
(0.451829 0.565346 0.203306)
(0.448001 0.560061 0.198905)
(0.510287 0.642475 0.225348)
(0.47951 0.597254 0.213754)
(0.397939 0.498733 0.168978)
(0.413067 0.498608 0.181045)
(0.383895 0.471609 0.174786)
(0.422092 0.515998 0.181807)
(0.490646 0.609275 0.205869)
(0.540753 0.673908 0.238522)
(0.443063 0.558069 0.205769)
(0.39087 0.48385 0.172261)
(0.417053 0.514473 0.184711)
(0.435138 0.529188 0.188014)
(0.548151 0.674908 0.237129)
(0.451822 0.556102 0.202297)
(0.42242 0.50978 0.18194)
(0.388737 0.477483 0.174829)
(0.45534 0.542736 0.200247)
(0.450738 0.544186 0.19292)
(0.39212 0.455906 0.166037)
(0.40925 0.483509 0.178647)
(0.372658 0.435517 0.159438)
(0.396264 0.473731 0.179095)
(0.440478 0.525689 0.185813)
(0.45925 0.545279 0.20115)
(0.353218 0.416845 0.152592)
(0.381486 0.456667 0.162524)
(0.367882 0.439748 0.160163)
(0.341225 0.405118 0.146382)
(0.353034 0.419079 0.153021)
(0.32408 0.378549 0.139459)
(0.342425 0.406826 0.153471)
(0.356371 0.418727 0.161874)
(0.319887 0.36939 0.136884)
(0.408394 0.488487 0.174349)
(0.325542 0.38519 0.141336)
(0.468794 0.569972 0.200162)
(0.404639 0.505687 0.175254)
(0.570532 0.689224 0.237811)
(0.583183 0.703944 0.246015)
(0.490675 0.597954 0.213964)
(0.430323 0.532421 0.182762)
(0.418636 0.511899 0.177914)
(0.492128 0.598808 0.208418)
(0.466775 0.573173 0.199727)
(0.593694 0.732673 0.231382)
(0.573633 0.708201 0.222244)
(0.498757 0.628743 0.203802)
(0.576518 0.709744 0.224472)
(0.594439 0.738094 0.239931)
(0.571659 0.705396 0.230342)
(0.477591 0.594521 0.197209)
(0.483517 0.608528 0.195114)
(0.497826 0.624192 0.196138)
(0.478829 0.599708 0.195045)
(0.500461 0.625282 0.199737)
(0.503277 0.633477 0.203097)
(0.496226 0.61142 0.198007)
(0.469398 0.583445 0.188404)
(0.424071 0.533053 0.177667)
(0.462608 0.5755 0.185163)
(0.470518 0.595316 0.192474)
(0.441773 0.559381 0.17985)
(0.451725 0.561947 0.183829)
(0.603877 0.739852 0.2248)
(0.602077 0.730425 0.228241)
(0.591116 0.712267 0.227101)
(0.602692 0.722136 0.226752)
(0.507283 0.621068 0.188256)
(0.522474 0.642551 0.187666)
(0.582006 0.704041 0.214647)
(0.515061 0.631111 0.195185)
(0.605531 0.738181 0.229253)
(0.569724 0.690139 0.214735)
(0.562448 0.688089 0.21623)
(0.46865 0.566283 0.175357)
(0.568549 0.692804 0.220194)
(0.585543 0.716536 0.213221)
(0.523392 0.634416 0.197225)
(0.459298 0.559063 0.177858)
(0.512011 0.614691 0.193224)
(0.497606 0.609304 0.178856)
(0.443125 0.539426 0.159658)
(0.498656 0.602495 0.184258)
(0.480346 0.576102 0.178241)
(0.422522 0.512979 0.162599)
(0.59197 0.726557 0.219161)
(0.580615 0.713595 0.221321)
(0.457963 0.55858 0.178766)
(0.496279 0.603537 0.193222)
(0.560759 0.68494 0.219184)
(0.590711 0.732228 0.221645)
(0.482601 0.571344 0.189512)
(0.442604 0.52574 0.171187)
(0.457688 0.564486 0.185969)
(0.426407 0.516342 0.169858)
(0.506011 0.607716 0.194146)
(0.54567 0.659636 0.211762)
(0.567716 0.665954 0.213258)
(0.492572 0.585388 0.193114)
(0.514055 0.614016 0.20153)
(0.503148 0.598099 0.198995)
(0.519339 0.61891 0.197534)
(0.550776 0.649799 0.212653)
(0.525944 0.624892 0.204595)
(0.484928 0.585742 0.189803)
(0.573191 0.690222 0.219416)
(0.533866 0.640343 0.204289)
(0.554646 0.665518 0.215658)
(0.54367 0.655906 0.210426)
(0.595603 0.712602 0.224894)
(0.546076 0.648241 0.205637)
(0.513319 0.622548 0.201378)
(0.550787 0.66421 0.209751)
(0.499541 0.604937 0.192672)
(0.514287 0.623822 0.20021)
(0.453888 0.585438 0.183571)
(0.45079 0.578727 0.177971)
(0.311504 0.408653 0.128643)
(0.340133 0.428491 0.137005)
(0.360485 0.45488 0.143362)
(0.436768 0.569143 0.176337)
(0.423223 0.538386 0.165614)
(0.335744 0.42107 0.137797)
(0.323108 0.410639 0.130493)
(0.336835 0.441256 0.136142)
(0.355888 0.464273 0.145388)
(0.381929 0.507288 0.153367)
(0.440386 0.551265 0.20485)
(0.465919 0.58999 0.216649)
(0.522445 0.645021 0.244349)
(0.515944 0.648222 0.241038)
(0.481945 0.605193 0.229409)
(0.442462 0.558264 0.205926)
(0.40099 0.50395 0.186943)
(0.521414 0.657338 0.243039)
(0.412286 0.521052 0.193185)
(0.451195 0.575606 0.211974)
(0.441053 0.558815 0.212483)
(0.416448 0.566156 0.188193)
(0.357977 0.500816 0.165789)
(0.470519 0.64119 0.213624)
(0.371193 0.528397 0.179574)
(0.302182 0.426603 0.143027)
(0.44886 0.585224 0.191925)
(0.467215 0.626259 0.205241)
(0.463139 0.617531 0.19764)
(0.352052 0.476913 0.146244)
(0.294214 0.404024 0.129619)
(0.384468 0.532303 0.179796)
(0.436538 0.585083 0.185005)
(0.406676 0.544817 0.179978)
(0.39903 0.535974 0.170186)
(0.357154 0.476554 0.156292)
(0.57077 0.733676 0.270395)
(0.562476 0.723747 0.269394)
(0.533945 0.698275 0.257189)
(0.52389 0.68678 0.250545)
(0.548371 0.704687 0.262365)
(0.535329 0.6897 0.257501)
(0.464952 0.607416 0.228536)
(0.431063 0.546793 0.206901)
(0.467164 0.596402 0.22486)
(0.469161 0.603391 0.20839)
(0.42904 0.552865 0.196943)
(0.530991 0.670428 0.231049)
(0.480605 0.596348 0.20896)
(0.546627 0.693878 0.235038)
(0.481478 0.621911 0.209931)
(0.458547 0.583202 0.200633)
(0.439821 0.571208 0.197114)
(0.399955 0.512374 0.182403)
(0.537957 0.685978 0.235962)
(0.534189 0.678389 0.228754)
(0.493169 0.629568 0.214756)
(0.470711 0.596291 0.198779)
(0.435042 0.552276 0.191114)
(0.544858 0.684897 0.234754)
(0.453922 0.581348 0.19437)
(0.419056 0.526194 0.175784)
(0.491329 0.633483 0.214685)
(0.440459 0.566357 0.186896)
(0.393201 0.506539 0.169614)
(0.466326 0.596179 0.188322)
(0.435272 0.557273 0.170295)
(0.43317 0.550938 0.178852)
(0.546487 0.694136 0.219327)
(0.489025 0.614836 0.192968)
(0.632976 0.769338 0.266993)
(0.647878 0.781725 0.26799)
(0.613359 0.756977 0.261986)
(0.609951 0.759757 0.266459)
(0.619095 0.753957 0.260807)
(0.616516 0.758808 0.267769)
(0.622696 0.766036 0.26969)
(0.632225 0.761139 0.266186)
(0.636033 0.773417 0.265851)
(0.641219 0.776506 0.272094)
(0.626072 0.763494 0.269713)
(0.629064 0.76564 0.26357)
(0.620419 0.764762 0.274964)
(0.62799 0.771888 0.275101)
(0.642101 0.78321 0.277575)
(0.646345 0.775102 0.264651)
(0.644865 0.774098 0.265592)
(0.644133 0.781526 0.272441)
(0.702161 0.849044 0.277834)
(0.694487 0.821515 0.265787)
(0.689472 0.812238 0.256795)
(0.673982 0.779665 0.253843)
(0.681813 0.791441 0.258618)
(0.675628 0.798727 0.252554)
(0.690115 0.807197 0.263787)
(0.702675 0.838448 0.278421)
(0.674323 0.782615 0.253023)
(0.677099 0.78487 0.253655)
(0.607689 0.716952 0.23228)
(0.570263 0.667934 0.215267)
(0.511672 0.592229 0.199061)
(0.548173 0.63401 0.215102)
(0.596213 0.693092 0.227078)
(0.600563 0.696395 0.221521)
(0.577552 0.678215 0.213572)
(0.544651 0.641437 0.206386)
(0.490547 0.58522 0.192612)
(0.538904 0.626164 0.211854)
(0.501764 0.593174 0.192616)
(0.492923 0.579234 0.194226)
(0.508633 0.58552 0.198072)
(0.569264 0.645595 0.211981)
(0.515282 0.595227 0.196055)
(0.51915 0.613436 0.196207)
(0.488509 0.567589 0.18843)
(0.610935 0.743772 0.240866)
(0.598762 0.739561 0.243693)
(0.562569 0.677235 0.219737)
(0.554194 0.677671 0.22872)
(0.542553 0.656507 0.219555)
(0.618938 0.748306 0.262879)
(0.620025 0.750546 0.267664)
(0.609878 0.733931 0.260349)
(0.603994 0.738778 0.26154)
(0.612325 0.72901 0.254877)
(0.614901 0.735775 0.256221)
(0.607983 0.715798 0.245937)
(0.61261 0.728788 0.254832)
(0.625939 0.725347 0.243925)
(0.619433 0.725643 0.246618)
(0.653817 0.780964 0.270578)
(0.642223 0.772296 0.272339)
(0.625016 0.759611 0.272161)
(0.63453 0.75215 0.258534)
(0.642459 0.748611 0.249969)
(0.64727 0.777159 0.277258)
(0.636566 0.745784 0.25129)
(0.652781 0.764035 0.25508)
(0.65133 0.775036 0.263447)
(0.657946 0.779104 0.257229)
(0.616857 0.750534 0.267676)
(0.61428 0.741431 0.259344)
(0.654277 0.773314 0.259547)
(0.656917 0.776017 0.261507)
(0.641678 0.759739 0.259)
(0.612066 0.721886 0.250497)
(0.656208 0.76791 0.249105)
(0.638851 0.741502 0.239308)
(0.618909 0.715676 0.24728)
(0.668741 0.786078 0.254622)
(0.66697 0.779542 0.251074)
(0.663274 0.779245 0.25736)
(0.653305 0.768445 0.252788)
(0.655704 0.793011 0.269973)
(0.664319 0.795705 0.267294)
(0.659403 0.794419 0.267209)
(0.654735 0.787541 0.271566)
(0.65015 0.78383 0.270009)
(0.651626 0.783996 0.27136)
(0.638258 0.773543 0.273687)
(0.626469 0.765853 0.272647)
(0.635176 0.777271 0.279563)
(0.635673 0.775607 0.273932)
(0.645896 0.789044 0.277692)
(0.656222 0.795056 0.275746)
(0.665032 0.80207 0.274216)
(0.651238 0.783102 0.27192)
(0.626805 0.7627 0.273451)
(0.641875 0.784273 0.281199)
(0.631491 0.768823 0.273133)
(0.652151 0.793684 0.279137)
(0.678785 0.822563 0.259692)
(0.678304 0.825241 0.262223)
(0.677794 0.823461 0.26386)
(0.673803 0.819616 0.26559)
(0.678399 0.826157 0.266741)
(0.662624 0.81188 0.264023)
(0.676191 0.826737 0.260182)
(0.672454 0.82278 0.259503)
(0.676713 0.825258 0.264906)
(0.67924 0.823779 0.266355)
(0.678302 0.826409 0.264903)
(0.670501 0.817438 0.263668)
(0.657427 0.8032 0.261109)
(0.652141 0.800551 0.257605)
(0.672068 0.82363 0.259838)
(0.652708 0.802652 0.254015)
(0.668165 0.810469 0.24639)
(0.672301 0.81544 0.249246)
(0.646749 0.784663 0.24044)
(0.6713 0.815188 0.245799)
(0.674068 0.814864 0.246689)
(0.658323 0.797044 0.240839)
(0.640036 0.767179 0.230928)
(0.652401 0.793882 0.241583)
(0.685015 0.829674 0.256205)
(0.676071 0.821351 0.252455)
(0.682418 0.825871 0.255784)
(0.665045 0.812867 0.248436)
(0.64816 0.787264 0.241487)
(0.660589 0.79911 0.247264)
(0.650401 0.788535 0.242503)
(0.662082 0.801178 0.245807)
(0.634681 0.768798 0.234611)
(0.635554 0.77449 0.237457)
(0.662909 0.803294 0.244217)
(0.679361 0.823787 0.253905)
(0.659671 0.801488 0.242835)
(0.637102 0.775363 0.231915)
(0.624517 0.756919 0.232433)
(0.651877 0.791866 0.241705)
(0.565471 0.670969 0.225463)
(0.548369 0.654866 0.220549)
(0.572031 0.675185 0.223669)
(0.551828 0.65901 0.222803)
(0.519657 0.641954 0.215272)
(0.573365 0.666628 0.224865)
(0.591313 0.685978 0.232708)
(0.576648 0.675892 0.230046)
(0.568253 0.661651 0.220689)
(0.513566 0.621293 0.20947)
(0.541914 0.656536 0.231257)
(0.586501 0.686548 0.237718)
(0.580925 0.682588 0.236364)
(0.529499 0.635055 0.213909)
(0.531141 0.644785 0.219962)
(0.487054 0.621769 0.213219)
(0.454232 0.57847 0.210297)
(0.433813 0.566154 0.198025)
(0.561387 0.707247 0.256163)
(0.589131 0.742975 0.260503)
(0.496251 0.629193 0.221532)
(0.504614 0.63997 0.224617)
(0.546863 0.699881 0.246418)
(0.586993 0.743984 0.248836)
(0.562699 0.714931 0.247431)
(0.453149 0.579403 0.208065)
(0.570128 0.723664 0.258225)
(0.61936 0.774653 0.266505)
(0.614755 0.771398 0.268664)
(0.612901 0.766037 0.264908)
(0.558867 0.709926 0.254749)
(0.62686 0.786574 0.266219)
(0.626075 0.789347 0.266256)
(0.537311 0.676626 0.246557)
(0.561275 0.729829 0.239935)
(0.569834 0.740154 0.243924)
(0.547638 0.717492 0.235357)
(0.566046 0.711832 0.232314)
(0.540441 0.693118 0.223172)
(0.543135 0.68397 0.216611)
(0.546791 0.682354 0.21952)
(0.553412 0.706075 0.220652)
(0.554918 0.727309 0.233322)
(0.572228 0.688694 0.224623)
(0.592273 0.707757 0.231573)
(0.563653 0.691265 0.2192)
(0.583873 0.731702 0.242277)
(0.588679 0.722125 0.2325)
(0.597262 0.729636 0.232472)
(0.576715 0.724254 0.231817)
(0.633021 0.785529 0.257367)
(0.606883 0.75457 0.245937)
(0.611097 0.760595 0.250577)
(0.602426 0.75493 0.248392)
(0.621257 0.77932 0.257123)
(0.623765 0.781203 0.26038)
(0.571242 0.708834 0.227442)
(0.621358 0.767554 0.25195)
(0.622798 0.774161 0.253125)
(0.650491 0.799886 0.263565)
(0.642199 0.793171 0.260996)
(0.60141 0.749289 0.245165)
(0.643488 0.792986 0.259357)
(0.622559 0.765294 0.251019)
(0.571865 0.706024 0.225803)
(0.637371 0.786901 0.26334)
(0.62834 0.771848 0.25875)
(0.61152 0.753759 0.247477)
(0.616534 0.749514 0.270425)
(0.60995 0.748962 0.270898)
(0.602357 0.732076 0.264165)
(0.569771 0.706115 0.258588)
(0.556925 0.684 0.250441)
(0.639943 0.779012 0.28298)
(0.639018 0.779935 0.281491)
(0.599995 0.73021 0.265172)
(0.642461 0.781073 0.280479)
(0.636009 0.773818 0.281414)
(0.559078 0.690257 0.256409)
(0.562232 0.695373 0.260674)
(0.570432 0.704166 0.254783)
(0.620295 0.758913 0.280929)
(0.623053 0.766104 0.280954)
(0.587566 0.719505 0.265934)
(0.612363 0.756174 0.278983)
(0.668959 0.802339 0.262882)
(0.663436 0.80112 0.260185)
(0.66604 0.798861 0.260654)
(0.670259 0.804176 0.267412)
(0.668878 0.801437 0.263075)
(0.664458 0.792315 0.25579)
(0.65845 0.784757 0.255756)
(0.661847 0.790781 0.257635)
(0.661282 0.791578 0.256769)
(0.65155 0.783865 0.259208)
(0.658502 0.793213 0.262546)
(0.662532 0.798635 0.26523)
(0.662665 0.795694 0.267481)
(0.666519 0.796566 0.266705)
(0.656344 0.787755 0.260012)
(0.664011 0.803112 0.269476)
(0.667009 0.802583 0.268044)
(0.661098 0.796811 0.266007)
(0.38095 0.435907 0.146522)
(0.366021 0.433402 0.146362)
(0.516837 0.606349 0.201247)
(0.447668 0.54072 0.173856)
(0.404691 0.488581 0.157908)
(0.402055 0.472657 0.165278)
(0.397725 0.475624 0.158323)
(0.370126 0.433095 0.148597)
(0.39442 0.463343 0.154046)
(0.372924 0.450524 0.148215)
(0.516997 0.603198 0.199224)
(0.508459 0.588033 0.195779)
(0.434147 0.508466 0.171703)
(0.463851 0.54439 0.180215)
(0.472407 0.556212 0.18305)
(0.368914 0.447268 0.143237)
(0.462922 0.539366 0.183916)
(0.471414 0.554189 0.186434)
(0.441969 0.518761 0.169466)
(0.579501 0.716583 0.224446)
(0.630878 0.777258 0.242207)
(0.598368 0.742963 0.234084)
(0.614645 0.757734 0.232535)
(0.616539 0.764078 0.234637)
(0.662066 0.810391 0.251382)
(0.659687 0.807029 0.24994)
(0.654036 0.804905 0.251591)
(0.661347 0.807732 0.250361)
(0.669366 0.82166 0.255441)
(0.667676 0.816953 0.254387)
(0.668176 0.816706 0.252694)
(0.678146 0.826557 0.254428)
(0.513343 0.577175 0.171983)
(0.457673 0.554021 0.170888)
(0.413964 0.488052 0.141283)
(0.520311 0.599692 0.18709)
(0.473138 0.559032 0.168428)
(0.458377 0.517282 0.151659)
(0.436153 0.531986 0.164146)
(0.431737 0.507659 0.152965)
(0.39207 0.457654 0.140784)
(0.452413 0.526447 0.164018)
(0.410702 0.48069 0.139915)
(0.480274 0.606449 0.184252)
(0.45381 0.562287 0.180653)
(0.516063 0.638257 0.195218)
(0.478973 0.594028 0.187758)
(0.611373 0.760879 0.231746)
(0.563576 0.701944 0.216721)
(0.496673 0.626244 0.18874)
(0.471721 0.594299 0.177864)
(0.454744 0.574605 0.172708)
(0.510876 0.66721 0.200811)
(0.52048 0.662851 0.203846)
(0.609036 0.759266 0.235169)
(0.637469 0.796118 0.237468)
(0.505611 0.652974 0.192372)
(0.528692 0.669573 0.206546)
(0.467544 0.620658 0.177655)
(0.474836 0.631827 0.191693)
(0.487216 0.627009 0.1884)
(0.475879 0.619944 0.175959)
(0.571706 0.717576 0.219531)
(0.562327 0.698389 0.217866)
(0.584578 0.724265 0.220639)
(0.49442 0.641146 0.194187)
(0.552236 0.704675 0.21298)
(0.601473 0.718121 0.235444)
(0.593189 0.705629 0.229303)
(0.586421 0.695914 0.225559)
(0.58654 0.701122 0.22736)
(0.580465 0.69017 0.226512)
(0.585445 0.697257 0.227284)
(0.53429 0.655501 0.213583)
(0.525571 0.644392 0.208312)
(0.513252 0.614387 0.202173)
(0.556549 0.669039 0.218019)
(0.540741 0.649187 0.211798)
(0.530078 0.6429 0.209333)
(0.50671 0.614828 0.206008)
(0.577388 0.692788 0.226033)
(0.542283 0.648505 0.21525)
(0.543336 0.647978 0.212589)
(0.524174 0.633941 0.211393)
(0.505498 0.607533 0.195381)
(0.631376 0.76579 0.227833)
(0.610369 0.738514 0.225798)
(0.458245 0.543536 0.178447)
(0.489001 0.575458 0.193225)
(0.561927 0.649978 0.201204)
(0.536871 0.645193 0.212265)
(0.572682 0.700089 0.212642)
(0.550055 0.656441 0.211024)
(0.496755 0.580631 0.191868)
(0.485479 0.570222 0.185115)
(0.538136 0.633 0.194581)
(0.495686 0.5776 0.181984)
(0.497792 0.588163 0.192121)
(0.475297 0.561211 0.184139)
(0.501164 0.590822 0.198759)
(0.523127 0.620573 0.191425)
(0.503817 0.596438 0.188838)
(0.446933 0.530452 0.16791)
(0.43483 0.515879 0.186416)
(0.438416 0.529852 0.178919)
(0.486421 0.586477 0.192884)
(0.448037 0.538781 0.180106)
(0.456869 0.547229 0.182411)
(0.437719 0.550383 0.179279)
(0.423074 0.511444 0.184568)
(0.425163 0.51887 0.183486)
(0.443005 0.542319 0.194425)
(0.451408 0.565042 0.190761)
(0.400199 0.507298 0.184782)
(0.431593 0.53657 0.193172)
(0.449103 0.566019 0.1953)
(0.469245 0.589909 0.196207)
(0.44806 0.556079 0.182923)
(0.337716 0.410624 0.140853)
(0.3733 0.497472 0.178211)
(0.409346 0.510718 0.180116)
(0.390136 0.499171 0.177898)
(0.344593 0.425866 0.162473)
(0.364508 0.434644 0.15944)
(0.392727 0.495643 0.18356)
(0.369431 0.464278 0.168874)
(0.421253 0.525239 0.191956)
(0.351624 0.435713 0.144542)
(0.380899 0.482824 0.179196)
(0.402353 0.542914 0.179642)
(0.331624 0.417345 0.132349)
(0.353892 0.472891 0.148187)
(0.347389 0.475322 0.147086)
(0.404981 0.510869 0.146852)
(0.421469 0.544384 0.161544)
(0.456573 0.574778 0.176509)
(0.416068 0.490536 0.138167)
(0.399113 0.46699 0.124153)
(0.451259 0.539472 0.16827)
(0.445168 0.532486 0.1598)
(0.382457 0.440989 0.13837)
(0.387536 0.440728 0.13124)
(0.348829 0.43387 0.129663)
(0.368004 0.446819 0.135846)
(0.357235 0.3938 0.143223)
(0.36493 0.398699 0.142084)
(0.384407 0.420073 0.147759)
(0.450912 0.522282 0.159916)
(0.425743 0.495168 0.153914)
(0.472496 0.544717 0.173311)
(0.436179 0.553229 0.182529)
(0.392939 0.498972 0.152743)
(0.39749 0.506459 0.157753)
(0.447329 0.572627 0.174017)
(0.443642 0.568725 0.16391)
(0.36056 0.440327 0.140506)
(0.394686 0.476657 0.140937)
(0.392022 0.473886 0.138825)
(0.410455 0.482745 0.155433)
(0.401461 0.472041 0.14735)
(0.332821 0.400626 0.133863)
(0.31181 0.383681 0.12222)
(0.333803 0.39528 0.130733)
(0.462056 0.562948 0.187561)
(0.483889 0.595747 0.19373)
(0.429707 0.533147 0.163833)
(0.439512 0.538023 0.179577)
(0.428713 0.526317 0.164575)
(0.343075 0.391748 0.128437)
(0.358676 0.396095 0.130693)
(0.358208 0.397243 0.12954)
(0.342959 0.408503 0.130322)
(0.34219 0.418767 0.120373)
(0.351446 0.432445 0.12875)
(0.365643 0.442982 0.130527)
(0.442172 0.537702 0.170088)
(0.450833 0.554924 0.178866)
(0.477664 0.589946 0.187214)
(0.388456 0.46835 0.147811)
(0.406375 0.492316 0.158995)
(0.436008 0.530364 0.185867)
(0.451142 0.55305 0.195369)
(0.424616 0.518314 0.189176)
(0.451805 0.555973 0.180442)
(0.433171 0.552035 0.169269)
(0.460223 0.572885 0.18379)
(0.317809 0.383195 0.128882)
(0.350871 0.40751 0.13714)
(0.338609 0.396028 0.133648)
(0.351487 0.423076 0.134546)
(0.315726 0.384648 0.124142)
(0.325777 0.389692 0.122818)
(0.432299 0.534941 0.194748)
(0.457077 0.56314 0.202882)
(0.449731 0.551301 0.194705)
(0.423116 0.539537 0.185135)
(0.417587 0.530101 0.177305)
(0.45095 0.563609 0.187229)
(0.366612 0.437637 0.139898)
(0.34849 0.407945 0.130916)
(0.331999 0.388845 0.12958)
(0.344013 0.406682 0.133122)
(0.406231 0.511744 0.164901)
(0.41787 0.525813 0.169346)
(0.45505 0.567347 0.180634)
(0.471811 0.573997 0.186474)
(0.430167 0.524799 0.189133)
(0.414241 0.509245 0.171544)
(0.446586 0.551973 0.195465)
(0.428687 0.548463 0.209217)
(0.439792 0.559949 0.206758)
(0.439076 0.545239 0.202974)
(0.34952 0.412156 0.133849)
(0.324989 0.392129 0.129034)
(0.344027 0.404661 0.138024)
(0.383836 0.476947 0.169163)
(0.388902 0.474523 0.16623)
(0.422906 0.54721 0.195298)
(0.422578 0.543925 0.185887)
(0.417637 0.529944 0.196376)
(0.330019 0.38719 0.133535)
(0.339809 0.410963 0.134709)
(0.31389 0.387196 0.119625)
(0.455998 0.584746 0.186494)
(0.463101 0.565652 0.184448)
(0.408702 0.511126 0.169802)
(0.450077 0.572834 0.190045)
(0.434316 0.5486 0.183915)
(0.396142 0.49836 0.188068)
(0.412918 0.505383 0.192721)
(0.383921 0.481358 0.188682)
(0.436468 0.533543 0.193153)
(0.425887 0.531212 0.198125)
(0.369198 0.495901 0.181199)
(0.379337 0.50996 0.17794)
(0.389338 0.52614 0.186959)
(0.415692 0.544171 0.209457)
(0.408612 0.521881 0.19786)
(0.41178 0.545535 0.200811)
(0.431011 0.526887 0.18214)
(0.438811 0.547097 0.191028)
(0.430432 0.526912 0.192413)
(0.434026 0.563749 0.192475)
(0.449328 0.569816 0.190242)
(0.438696 0.568423 0.199637)
(0.399526 0.510542 0.190527)
(0.396062 0.504597 0.183065)
(0.434933 0.540258 0.196032)
(0.458626 0.571653 0.191845)
(0.452933 0.55897 0.185717)
(0.457544 0.571508 0.185765)
(0.310321 0.36746 0.134291)
(0.318203 0.383128 0.133493)
(0.327336 0.386805 0.135198)
(0.388827 0.482179 0.18284)
(0.405144 0.495458 0.189317)
(0.38745 0.47799 0.184835)
(0.361974 0.504962 0.172082)
(0.359004 0.49522 0.164747)
(0.369299 0.514692 0.177108)
(0.42709 0.530421 0.201423)
(0.411211 0.523193 0.202088)
(0.464072 0.583955 0.21671)
(0.421188 0.525711 0.194635)
(0.411155 0.504237 0.185369)
(0.434717 0.54152 0.199276)
(0.43225 0.525816 0.170531)
(0.436362 0.541056 0.175482)
(0.449294 0.560471 0.191787)
(0.43641 0.532353 0.184487)
(0.44447 0.540171 0.201952)
(0.424312 0.554791 0.183208)
(0.465366 0.578038 0.196099)
(0.438958 0.565988 0.191495)
(0.450423 0.55562 0.183783)
(0.369757 0.438215 0.164844)
(0.346071 0.417756 0.15804)
(0.391335 0.463619 0.180705)
(0.360931 0.43421 0.159201)
(0.429975 0.521747 0.18397)
(0.450927 0.544218 0.178038)
(0.658277 0.800934 0.261971)
(0.647779 0.793518 0.260402)
(0.660007 0.804215 0.262271)
(0.610529 0.769328 0.253476)
(0.610457 0.754005 0.240361)
(0.637634 0.784322 0.265018)
(0.406838 0.499374 0.18849)
(0.423 0.512953 0.18351)
(0.375771 0.512998 0.185398)
(0.3845 0.515611 0.186327)
(0.384578 0.485033 0.174888)
(0.407518 0.500485 0.191079)
(0.396394 0.496976 0.183202)
(0.41738 0.529908 0.195118)
(0.335128 0.449996 0.138295)
(0.313867 0.422559 0.137026)