/*--------------------------------*- C++ -*----------------------------------*\
| =========                 |                                                 |
| \\      /  F ield         | OpenFOAM: The Open Source CFD Toolbox           |
|  \\    /   O peration     | Version:  v1612+                                |
|   \\  /    A nd           | Web:      www.OpenFOAM.com                      |
|    \\/     M anipulation  |                                                 |
\*---------------------------------------------------------------------------*/
FoamFile
{
    version     2.0;
    format      ascii;
    class       surfaceScalarField;
    location    "100";
    object      phi;
}
// * * * * * * * * * * * * * * * * * * * * * * * * * * * * * * * * * * * * * //

dimensions      [0 3 -1 0 0 0 0];

internalField   nonuniform List<scalar> 
46151
(
-2.60111e-09
-3.90744e-09
2.63207e-09
3.87649e-09
4.82218e-09
-3.47382e-09
-2.96257e-09
1.61423e-09
1.93922e-09
-3.72456e-09
-1.78655e-09
3.57189e-09
6.66843e-09
-8.41609e-09
-3.23885e-09
4.98652e-09
5.20069e-09
-3.49015e-09
8.51657e-09
-1.02271e-08
-1.35884e-09
-2.00195e-09
3.3504e-09
1.0387e-11
-3.26526e-09
-4.67902e-09
4.16151e-09
3.78276e-09
-2.08298e-09
-1.68643e-09
3.70808e-09
6.13371e-11
-2.90349e-09
5.62335e-09
4.07643e-09
-6.79628e-09
-5.0021e-09
2.55687e-09
-1.23191e-09
3.67715e-09
-1.88967e-09
5.22681e-09
-1.51004e-09
-1.8271e-09
-1.91055e-09
9.25303e-10
1.07939e-09
-9.41404e-11
5.32041e-13
6.30857e-09
-9.46246e-10
-5.36285e-09
6.38902e-09
-9.78053e-11
-5.59136e-09
-6.99871e-10
-7.36561e-09
8.8159e-09
-7.57668e-09
6.12638e-09
-4.29482e-09
2.70546e-09
3.9923e-09
-2.40299e-09
1.37273e-09
-2.61035e-09
-3.38354e-09
4.62115e-09
-3.70095e-09
1.95232e-10
3.53011e-09
-2.43937e-11
-3.53835e-09
5.35652e-09
-1.95255e-09
1.34361e-10
4.10591e-09
-5.11836e-09
3.16268e-09
-2.15026e-09
-2.84665e-09
4.48329e-09
-4.95794e-09
3.32131e-09
-1.84008e-09
4.38764e-09
-2.54055e-09
-7.0129e-12
-7.89721e-09
7.33459e-09
4.37595e-09
-3.81332e-09
-8.69936e-09
-4.97641e-09
8.48444e-09
5.19133e-09
7.33783e-09
-1.30879e-09
-2.40481e-09
-3.62423e-09
-6.47186e-09
4.11347e-09
7.66768e-09
-5.30929e-09
1.42374e-09
-3.32074e-09
1.98873e-09
-9.17411e-11
-2.24435e-09
-3.16618e-10
2.61332e-09
-5.23515e-11
1.92737e-09
2.03205e-09
-3.83129e-09
-1.2814e-10
-1.28656e-09
-2.78059e-09
2.24059e-09
1.82655e-09
-4.55978e-09
2.94178e-09
-2.90866e-09
4.52667e-09
-2.49773e-09
6.51952e-09
-3.93076e-09
-9.10241e-11
5.7987e-09
3.70246e-09
-2.86666e-09
-6.63451e-09
-3.3528e-10
-3.71334e-09
4.02677e-09
2.18401e-11
-1.02637e-08
8.27323e-10
7.87062e-09
1.56575e-09
-8.45525e-09
-4.31053e-09
8.37666e-09
4.38912e-09
8.55074e-09
-1.30254e-09
-3.67303e-09
-3.57518e-09
-4.16567e-09
4.64458e-09
2.56398e-09
-3.04288e-09
1.05004e-09
5.43782e-09
-1.18353e-09
-5.30433e-09
2.01163e-09
9.92978e-10
-2.0944e-09
-9.10261e-10
1.66126e-09
-9.78633e-09
3.5292e-09
4.59587e-09
2.43387e-09
4.6825e-10
-2.82757e-09
-7.45543e-11
1.55038e-09
-4.00435e-09
2.62756e-09
-1.73581e-10
3.67567e-10
6.32332e-09
-1.09431e-08
4.25224e-09
4.42915e-09
-2.81879e-09
-1.72302e-09
1.12648e-10
-7.75731e-09
-1.46066e-09
5.72962e-09
3.48835e-09
-2.10379e-09
-1.67073e-09
4.76447e-09
-9.89957e-10
-6.79257e-09
-2.44489e-09
4.10619e-09
-1.45857e-10
-4.56412e-09
9.62102e-11
4.61377e-09
3.79365e-09
4.44534e-11
-3.6466e-09
-1.91498e-10
-8.3807e-09
9.47841e-09
7.97236e-09
-9.07007e-09
8.24207e-10
3.59998e-09
-4.32654e-09
-9.76439e-11
-1.7203e-09
3.4339e-09
-1.83475e-09
1.21146e-10
4.91224e-09
-1.84563e-09
-7.5571e-09
4.49049e-09
-4.36609e-09
4.1933e-09
4.67141e-10
-2.94357e-10
-1.29384e-09
-3.22819e-09
3.08086e-09
1.44116e-09
-8.89841e-10
5.6759e-09
5.27362e-09
-1.00597e-08
-2.56782e-09
6.63403e-09
-4.15147e-09
8.52572e-11
-7.91571e-09
8.94896e-09
-7.29764e-09
6.26439e-09
-1.11212e-09
1.28362e-09
-1.46461e-09
1.29308e-09
-5.14082e-09
5.53222e-09
-3.68854e-10
-2.2543e-11
1.80458e-10
-4.45162e-09
4.27026e-09
8.97255e-13
-2.20958e-09
1.91651e-10
2.15909e-09
-1.41142e-10
-2.53621e-09
3.208e-09
-6.04321e-09
5.37141e-09
4.08298e-09
1.88225e-09
-2.44042e-09
-3.5248e-09
-5.74928e-10
-2.79159e-09
3.39843e-09
-3.19066e-11
-1.6878e-09
3.59991e-09
6.91621e-10
-2.60372e-09
6.47644e-09
5.48426e-09
-7.88822e-09
-4.07249e-09
-8.50391e-09
3.16477e-09
1.18156e-08
-7.4234e-10
-3.2241e-09
2.60513e-09
1.36131e-09
3.33125e-09
-3.05207e-09
2.59158e-09
-2.87076e-09
-4.67461e-09
5.72517e-09
-1.08373e-09
3.317e-11
-1.39902e-09
-5.24346e-09
1.44973e-09
5.19276e-09
-3.16256e-09
1.82928e-09
-3.08571e-09
4.41899e-09
-6.29694e-09
-3.75579e-09
5.4916e-09
4.56115e-09
2.93781e-11
-4.48602e-09
4.42221e-09
3.44265e-11
-5.37957e-09
4.58849e-09
9.74643e-10
-1.83566e-10
1.04989e-09
1.73464e-09
-5.88048e-09
3.09594e-09
7.09932e-10
-7.57719e-09
6.89423e-09
-2.69675e-11
3.89879e-09
9.07148e-10
-4.70918e-09
-9.67609e-11
-9.77024e-10
2.47332e-09
-1.5486e-09
5.23074e-11
8.1628e-10
-8.09955e-09
1.93981e-09
5.34348e-09
4.84622e-09
-2.55664e-10
-4.53731e-09
-5.32569e-11
-3.28486e-09
7.46279e-09
2.03231e-09
-6.21024e-09
1.03981e-09
5.46872e-11
3.33465e-09
-6.04607e-09
-2.28923e-10
7.29017e-09
-1.01519e-09
1.25339e-09
4.5333e-09
-2.08423e-09
-3.70246e-09
2.3011e-09
-3.63938e-09
-6.54278e-09
7.88105e-09
-3.05022e-09
-1.02091e-09
4.81554e-09
-7.44404e-10
2.93029e-09
4.23651e-11
-2.98717e-09
1.45483e-11
-8.88425e-09
5.16613e-09
-6.72056e-09
1.04387e-08
-2.38356e-09
3.64252e-09
-2.33797e-09
1.07898e-09
1.58101e-09
1.73147e-09
-7.08944e-09
3.77696e-09
-1.32058e-08
9.0835e-09
5.70327e-09
4.19105e-09
3.20209e-09
-9.03558e-09
1.64244e-09
8.49186e-09
2.78113e-09
-5.25731e-09
-6.01568e-09
-3.4124e-09
1.61171e-09
1.62612e-09
1.74571e-10
9.19647e-09
-5.30259e-09
3.19486e-09
-7.08874e-09
2.48913e-09
-1.5393e-09
2.28549e-09
-3.23532e-09
1.4625e-09
-1.53723e-09
-2.00825e-09
-5.16983e-09
6.8138e-09
1.18113e-09
-2.82509e-09
6.25514e-10
4.77481e-10
-6.5748e-09
5.47181e-09
3.85295e-09
1.28899e-09
-1.13561e-09
-4.00633e-09
-5.70578e-09
-3.69496e-09
7.0959e-09
2.30484e-09
4.55416e-09
-4.31752e-09
-5.61851e-11
9.99e-09
-1.23847e-08
-3.4505e-09
5.84518e-09
9.74956e-09
3.05446e-09
-8.52665e-09
-4.27736e-09
-3.95674e-09
-6.85908e-09
1.1443e-08
-6.2718e-10
4.58282e-10
3.75576e-09
-9.93131e-09
5.71727e-09
1.0491e-08
-8.94753e-09
-2.5182e-09
9.74739e-10
-3.25396e-09
-4.17785e-09
5.57286e-09
1.85894e-09
-4.65102e-09
1.5288e-09
1.77432e-09
1.34793e-09
-2.4674e-09
6.74949e-09
-5.14783e-09
8.65735e-10
6.10475e-09
-1.54305e-09
-4.69616e-09
1.34453e-10
-1.49449e-09
-2.91286e-09
4.26267e-09
1.44667e-10
-5.32943e-09
4.75506e-09
-6.13662e-09
6.71099e-09
-8.64231e-09
1.0008e-08
6.45101e-09
-7.81668e-09
2.66083e-09
-1.01869e-09
5.91015e-09
-7.5523e-09
-4.55156e-09
1.73543e-09
2.89213e-09
-7.599e-11
-6.98823e-10
-2.44444e-10
-1.60348e-09
2.54674e-09
4.74541e-09
-3.4239e-09
-1.26387e-09
-5.76423e-11
3.54231e-09
1.03772e-09
3.40284e-09
-7.98288e-09
3.51665e-09
-5.64745e-09
3.01657e-09
-8.85768e-10
2.2693e-09
2.67951e-09
-1.43217e-09
2.70691e-09
1.04862e-09
3.13857e-09
-6.8941e-09
-2.46669e-09
-1.54161e-09
5.48339e-09
-1.47509e-09
4.50468e-09
-6.73039e-09
7.55404e-09
-5.32832e-09
-1.51047e-09
-5.07528e-11
3.44311e-09
-1.88189e-09
6.18201e-09
-7.11553e-09
4.81214e-09
-3.87862e-09
3.89615e-10
6.30459e-09
-5.99075e-09
-7.03465e-10
2.79499e-09
4.98609e-10
-3.16352e-09
-1.30089e-10
-4.95141e-09
1.54794e-09
6.19845e-09
-1.31162e-08
1.20213e-08
-1.82918e-09
2.92406e-09
-3.13088e-09
-4.64772e-12
-1.4931e-10
-8.31484e-09
7.60698e-09
-4.17924e-09
4.8871e-09
-5.54808e-09
-3.54806e-09
4.21058e-09
4.88556e-09
-3.35562e-09
4.38236e-10
3.18251e-09
-2.65136e-10
-8.39283e-09
4.69994e-09
-3.43094e-09
7.12383e-09
-1.99417e-10
2.94895e-09
3.62755e-09
-6.37709e-09
4.71892e-09
-1.65522e-09
-4.30025e-11
2.14693e-09
-3.49165e-09
1.53674e-09
-1.9202e-10
1.59232e-09
4.79917e-09
-2.7586e-09
-3.63292e-09
-4.45675e-09
-4.24014e-09
6.40291e-09
2.29398e-09
-4.05492e-09
4.29621e-09
-2.78938e-10
3.76439e-11
1.37855e-09
6.34443e-10
-1.73396e-09
-2.78995e-10
5.96641e-09
3.98826e-09
-5.2147e-09
-4.73998e-09
2.66384e-09
-4.54442e-09
3.44377e-12
1.87712e-09
2.92044e-09
-4.51166e-09
1.58236e-09
8.86719e-12
3.73105e-09
-4.32662e-09
-1.86413e-09
2.45969e-09
-7.11929e-09
-5.32118e-10
8.52924e-09
-8.77831e-10
2.08074e-09
8.83597e-09
-7.12987e-09
-3.78684e-09
3.55533e-09
-4.53227e-09
-2.14731e-09
3.12425e-09
3.94988e-09
-8.40036e-10
-3.12112e-09
1.12751e-11
-3.26558e-09
3.10394e-09
1.49818e-09
-1.33653e-09
1.53233e-09
3.11003e-09
-7.72109e-09
3.07871e-09
-3.27154e-09
3.49847e-09
-2.2779e-10
8.54614e-13
-4.38604e-09
5.36256e-09
-1.0342e-10
-8.73103e-10
-3.18801e-09
-5.72289e-10
3.76786e-09
-7.55776e-12
-2.59092e-09
-4.47901e-09
2.61318e-09
4.47653e-09
-1.40433e-10
-4.39063e-09
5.4528e-11
5.30842e-09
5.30136e-09
-6.9153e-09
-3.69448e-09
-2.96718e-09
6.44797e-09
-4.78004e-09
1.29923e-09
2.40361e-09
3.45394e-09
-1.97787e-09
-3.87969e-09
-6.67258e-09
4.87372e-09
4.91444e-09
-3.11559e-09
2.31487e-09
3.18706e-09
-4.42442e-09
-1.07752e-09
5.24925e-09
-3.99903e-09
7.43866e-09
-8.68886e-09
-2.33277e-11
-1.80684e-10
4.13032e-09
-3.92631e-09
1.25891e-09
-2.90723e-09
3.92232e-09
-2.274e-09
-2.46299e-09
-1.06588e-09
-1.44028e-09
-1.69186e-09
1.63009e-09
1.53119e-09
-1.46946e-09
2.13741e-10
-7.76737e-09
7.56086e-09
-7.22701e-12
2.02745e-11
-7.60508e-09
7.79855e-09
-3.03608e-09
-4.04892e-09
2.35046e-09
4.73454e-09
-6.41076e-09
5.59815e-09
1.43812e-09
-4.09766e-11
-3.5146e-09
1.72138e-11
1.91891e-09
-4.73744e-09
7.53585e-09
-4.71731e-09
-7.13213e-09
3.38827e-09
-3.91558e-10
4.13541e-09
-9.00896e-11
-2.45399e-09
-5.70315e-11
-4.82935e-09
-3.84065e-10
2.47503e-09
2.73839e-09
5.93783e-10
7.2634e-09
-3.03499e-09
-2.21543e-09
-5.25877e-09
4.7187e-09
2.7555e-09
-6.99508e-09
-3.5545e-09
5.51779e-09
5.03177e-09
9.09967e-09
-4.21386e-09
4.79292e-10
-5.3651e-09
3.08497e-09
-2.13853e-09
4.97254e-09
-5.91898e-09
2.96097e-09
-2.19215e-09
-3.08005e-09
2.31123e-09
-5.19491e-09
-7.41374e-09
4.45695e-09
8.15171e-09
-8.13582e-10
3.618e-09
-5.27111e-09
-3.72895e-09
2.73869e-09
4.03831e-09
-3.04805e-09
-4.07297e-09
2.42957e-10
-1.17208e-09
-1.08264e-09
3.8606e-09
-3.75498e-09
3.34266e-09
3.38502e-09
-2.64471e-09
3.52785e-09
-3.13922e-09
3.46433e-09
3.49215e-09
1.01499e-09
-9.79267e-10
-5.13924e-09
-1.09085e-11
3.72719e-09
2.7888e-09
-3.74868e-09
-2.7673e-09
7.11606e-10
3.30944e-09
-7.11543e-11
2.71315e-09
-1.62686e-11
-3.60476e-11
3.28344e-09
-4.44762e-09
3.87733e-09
5.93327e-09
-5.90992e-09
3.07314e-10
-3.30663e-10
-3.24616e-09
7.30685e-09
-1.40155e-09
-2.65914e-09
-1.84513e-09
-5.88248e-09
2.58679e-09
3.91445e-09
-3.29663e-10
-3.54642e-09
-3.83701e-11
4.30553e-11
-1.88059e-09
1.92068e-09
-8.31457e-11
6.10346e-09
3.62363e-10
-6.46891e-09
3.0819e-12
3.47317e-09
2.17317e-09
-3.95363e-09
-1.69271e-09
-3.28242e-09
4.30744e-09
-5.39464e-09
4.36962e-09
8.92109e-09
-1.57052e-08
3.81798e-09
2.96618e-09
3.83781e-09
-5.56637e-10
1.92361e-09
-5.20478e-09
4.11479e-10
-5.1593e-09
4.74184e-09
5.99204e-12
4.32907e-09
-6.63103e-09
1.8264e-09
4.75563e-10
-4.14683e-09
1.83268e-09
2.35409e-09
-3.99417e-11
-2.01542e-09
2.61954e-09
-2.15342e-09
1.54931e-09
5.22891e-09
-3.3295e-09
-1.92581e-09
2.6397e-11
2.35327e-09
-4.33429e-09
2.04932e-09
-6.83006e-11
2.94725e-09
-1.62469e-09
-5.88234e-09
-1.48284e-10
-6.7127e-09
4.60241e-09
2.25857e-09
3.02006e-09
4.66823e-09
-3.41575e-09
-4.27254e-09
-7.96452e-09
5.24984e-09
2.5664e-09
-5.03246e-09
-2.96807e-09
3.02421e-09
4.9763e-09
5.99187e-10
-1.2081e-09
5.36217e-09
-4.75326e-09
-3.92225e-09
2.83546e-10
3.95898e-09
-3.20268e-10
-1.48228e-09
-3.65253e-09
1.21257e-09
-1.59299e-10
7.11442e-09
2.42836e-09
-9.38348e-09
1.80645e-09
-4.93172e-09
3.24758e-09
-1.22302e-10
-3.14462e-09
2.72558e-09
2.53427e-09
-2.11523e-09
-5.28679e-09
-1.18004e-09
3.81819e-09
2.64864e-09
2.51907e-09
-2.81094e-09
-3.32135e-09
-1.88995e-09
-1.25851e-09
-2.56955e-09
5.71801e-09
-3.32394e-09
5.29396e-09
6.71387e-09
-8.68387e-09
-1.82794e-09
-2.91962e-09
4.72163e-09
2.59305e-11
-1.81493e-09
-1.00308e-08
7.03535e-09
4.81037e-09
-2.99362e-09
2.62717e-09
3.36364e-10
3.00901e-11
1.36221e-10
1.26868e-10
-4.75464e-09
4.49155e-09
5.99307e-09
4.44109e-09
-5.91383e-09
-4.52033e-09
3.95336e-09
2.12727e-09
-8.75557e-11
1.06154e-09
-1.00553e-09
-2.64668e-09
2.59068e-09
-3.4993e-09
-2.08465e-09
6.64549e-09
3.60165e-09
-2.71589e-09
1.47594e-09
-2.3617e-09
8.75165e-10
-1.69676e-09
2.32973e-09
-1.50813e-09
-4.59612e-09
3.04241e-09
-4.55279e-09
6.1065e-09
3.53601e-09
-2.19376e-09
2.0813e-10
3.34822e-09
2.116e-09
-5.27246e-09
-1.91754e-10
2.65826e-09
-1.36244e-09
9.26517e-10
-2.22234e-09
-2.19561e-09
1.43625e-09
8.47416e-10
-8.80521e-11
-5.18146e-09
-3.27393e-09
1.85552e-09
-3.72697e-09
-3.0144e-09
5.46202e-09
1.27935e-09
1.98216e-09
3.77372e-09
-2.42464e-09
-2.04654e-09
2.42819e-09
-5.12327e-09
-3.13975e-09
6.36673e-09
-3.28593e-09
5.89398e-11
4.57403e-09
-3.57723e-09
-2.56963e-09
1.57284e-09
-4.20288e-09
2.66989e-09
5.11808e-09
-3.58509e-09
-1.76356e-09
-2.94273e-09
3.27693e-09
1.42937e-09
1.50511e-09
1.82788e-09
-2.96926e-09
-3.63724e-10
-2.79384e-10
3.25333e-09
2.33008e-09
-5.30403e-09
7.12979e-09
-6.51984e-09
-5.71876e-09
5.10881e-09
-4.50067e-09
1.13751e-08
-2.05985e-10
5.26068e-09
-2.18504e-09
-7.57631e-09
2.5692e-09
-4.67393e-09
2.2505e-09
-1.45767e-10
2.43878e-09
-2.56484e-09
9.05623e-09
-8.93018e-09
-9.91807e-10
-1.96973e-09
2.89926e-09
6.22749e-11
4.64289e-09
-1.96525e-09
-1.21515e-09
3.69309e-09
2.20067e-09
-1.13991e-09
1.97547e-09
2.34953e-09
-2.95229e-10
-7.66488e-10
6.29822e-10
4.57757e-09
-4.4409e-09
2.4098e-09
5.66582e-09
-2.72851e-09
-5.34711e-09
1.46728e-09
-4.75347e-09
2.43358e-09
8.52504e-10
1.90268e-09
5.0308e-09
-6.95781e-09
2.43275e-11
-2.77142e-09
3.13037e-09
-3.48153e-10
-1.07902e-11
3.19884e-09
-1.33e-09
-1.91382e-09
4.49715e-11
1.54332e-09
-2.30205e-09
-4.23194e-09
4.99067e-09
6.40646e-09
-6.09426e-09
-2.97834e-10
-1.43661e-11
1.99461e-09
-5.26307e-09
9.99637e-09
-6.72791e-09
3.90466e-10
-2.81699e-09
6.6461e-10
1.76189e-09
4.83241e-09
-6.95666e-09
2.51471e-09
-1.78858e-09
-2.86514e-09
1.02155e-10
-2.77484e-09
4.70993e-09
7.65316e-11
2.30872e-09
3.63755e-09
-1.47572e-10
-1.61519e-09
3.16695e-09
-4.36774e-09
2.81597e-09
2.21287e-09
-4.45284e-09
2.41327e-09
-1.73282e-10
-1.08573e-09
-5.79007e-09
3.70353e-10
6.50544e-09
-1.46955e-09
-4.19969e-09
4.31041e-09
5.0257e-09
8.28303e-11
-4.9723e-09
1.94598e-10
-5.03747e-09
4.96974e-09
-3.02706e-09
2.83731e-09
2.51719e-10
-6.19696e-11
-9.83289e-09
6.69626e-09
2.24411e-10
2.91221e-09
7.78968e-10
-1.82123e-09
-6.98901e-11
-2.96311e-09
6.56296e-09
-3.8237e-09
2.23835e-10
8.23765e-10
2.36051e-09
-2.40538e-09
3.10565e-09
-7.23053e-09
5.65722e-09
3.83333e-09
1.23946e-09
-4.92725e-09
-1.4554e-10
2.14309e-09
-5.78121e-09
1.11049e-09
2.52763e-09
-1.9184e-09
-1.83135e-10
-5.26353e-09
7.36507e-09
-1.32117e-09
-5.79764e-09
6.9777e-09
1.41123e-10
-4.31977e-09
2.59983e-09
5.87077e-09
-4.15084e-09
-6.68706e-09
1.94261e-09
1.26325e-09
3.4812e-09
-4.51956e-09
2.57769e-09
-7.86471e-09
5.03303e-09
1.72987e-09
-9.68282e-10
-2.94306e-09
3.15123e-09
-4.33859e-09
4.13042e-09
4.4426e-09
-4.14523e-09
-3.61012e-10
6.36499e-11
3.11511e-09
-2.769e-09
-3.14741e-10
-3.13853e-11
3.5739e-09
-1.83256e-10
-3.37235e-09
-1.82901e-11
-6.40137e-09
-5.59436e-09
8.23363e-09
3.7621e-09
-2.5885e-10
5.82772e-09
-5.52992e-09
-3.89493e-11
-6.23101e-09
5.99453e-09
-2.23767e-11
4.70008e-09
6.41115e-10
-1.45909e-09
-3.88211e-09
-1.07586e-09
-1.46373e-09
2.54191e-09
-2.32721e-12
1.35004e-09
2.49089e-09
2.06614e-10
-4.04754e-09
-5.64371e-09
-1.44506e-10
5.88555e-09
-9.73362e-11
-1.66823e-09
-7.61866e-10
2.35235e-09
7.77413e-11
6.06582e-09
-4.23526e-09
1.08654e-10
6.70736e-09
2.24666e-09
-4.87093e-09
-4.08309e-09
-7.47971e-09
-2.66453e-09
9.97263e-09
1.7161e-10
-1.53728e-09
4.69183e-09
-1.3151e-10
-3.02304e-09
-4.07582e-09
-5.9886e-09
2.84931e-09
7.2151e-09
-5.84613e-09
-1.56373e-09
4.37378e-09
-2.49366e-09
2.45296e-09
6.09779e-11
1.93355e-09
-6.6243e-09
-1.41325e-09
6.104e-09
1.80089e-09
2.48769e-09
1.39606e-10
-4.42819e-09
4.43649e-11
5.20804e-09
-2.79787e-09
-2.45452e-09
1.33478e-09
1.89425e-09
-2.26985e-10
7.02066e-10
3.21318e-09
-3.86724e-09
-4.802e-11
5.19062e-09
3.37932e-09
-5.87643e-09
-2.6935e-09
-6.46675e-09
6.8127e-09
-3.29353e-10
-1.6603e-11
5.91853e-09
-5.69484e-09
-2.94591e-09
2.72221e-09
1.39223e-09
-4.40873e-09
3.19103e-09
-1.74516e-10
-6.48093e-09
3.97021e-09
-5.71031e-11
-4.91514e-09
4.89389e-09
6.09987e-09
-6.07861e-09
-3.37358e-09
4.5713e-09
1.98601e-09
-3.18373e-09
-5.23508e-09
3.75345e-09
1.5883e-09
-1.0666e-10
-5.53157e-09
1.93394e-09
3.66425e-09
-6.66215e-11
2.47275e-09
3.57949e-09
-1.3371e-10
2.79482e-09
-1.07823e-09
-1.59959e-09
-1.17004e-10
1.9355e-09
-2.08658e-10
-1.58394e-09
-1.42978e-10
3.18483e-09
1.44577e-10
-3.15952e-09
-1.69853e-10
2.75858e-09
-1.43173e-09
9.69034e-11
2.74217e-09
-2.26596e-09
3.13383e-09
-3.61004e-09
5.89527e-09
-1.07175e-09
-2.91267e-09
-1.91087e-09
6.54328e-09
-6.44211e-09
-2.02462e-11
-8.09271e-11
-1.35801e-10
-4.46683e-09
4.61138e-09
-8.74582e-12
-8.74029e-10
-2.39932e-09
-1.44161e-09
4.71495e-09
3.92771e-09
1.92467e-09
-5.7187e-09
-1.33674e-10
-6.25738e-09
-1.49977e-09
4.77767e-09
2.97947e-09
-5.94945e-09
-5.11163e-10
-2.03113e-11
-9.40338e-10
4.13746e-09
2.31546e-09
-5.51257e-09
2.73335e-09
8.03977e-09
-4.66967e-09
-4.57042e-09
1.68911e-10
4.48658e-09
-8.50721e-11
-5.6338e-09
3.51617e-10
-1.35767e-09
6.63983e-09
-4.49544e-09
6.25156e-09
2.7186e-09
-4.47475e-09
5.23413e-10
3.59255e-09
-4.04751e-09
-6.84569e-11
4.33997e-09
1.03179e-09
3.66187e-09
-9.03362e-09
2.40193e-10
-3.60781e-09
3.47794e-09
-1.10303e-10
-6.71045e-10
7.3011e-09
-6.56239e-09
-6.76649e-11
3.14158e-09
4.11561e-09
1.14008e-09
-8.39728e-09
9.4018e-10
1.16225e-09
-5.28379e-10
-1.57404e-09
1.92591e-09
-7.76417e-11
3.39804e-11
-3.39151e-09
8.94451e-09
-8.90141e-10
-4.66286e-09
-3.25398e-09
2.95545e-09
3.18912e-10
-2.03805e-11
-6.18723e-09
-6.73134e-10
3.60638e-09
-2.86207e-09
3.12597e-09
-1.79404e-10
-8.44757e-11
-3.3561e-10
3.74973e-09
-3.28133e-09
-1.32778e-10
-6.26529e-10
-1.21472e-08
2.1716e-09
1.06021e-08
4.55226e-09
-1.03743e-10
-4.35707e-09
-9.14438e-11
-5.113e-09
4.85714e-09
2.98007e-10
-4.21431e-11
-1.44242e-09
-2.9351e-09
1.02959e-08
-5.91843e-09
-6.33545e-09
1.18469e-08
3.1192e-12
-5.51459e-09
-4.48953e-09
-3.06225e-10
-3.07624e-09
7.872e-09
-3.94093e-09
4.01804e-09
-6.13337e-09
6.05626e-09
3.30547e-09
-2.15282e-09
-4.28514e-09
3.1325e-09
3.75108e-10
-8.11682e-09
4.38064e-09
3.36106e-09
2.92506e-09
3.26655e-09
-8.68524e-11
1.7679e-09
-1.8837e-09
1.67938e-10
-5.21881e-11
5.4013e-09
-2.34253e-09
-3.20255e-09
1.43768e-10
-5.01448e-09
1.73052e-09
-8.96165e-11
-2.84024e-09
-7.07553e-10
3.5276e-09
2.01952e-11
-5.06803e-09
7.52937e-09
-2.5095e-09
4.81695e-11
1.32608e-09
-7.29171e-09
2.4926e-10
5.71638e-09
5.31502e-09
-5.97763e-10
-6.33123e-09
1.61396e-09
3.40516e-09
1.85999e-09
4.98787e-11
-1.02816e-08
-5.32469e-10
3.52919e-09
7.28485e-09
-2.42373e-09
-1.93365e-09
-4.52913e-10
4.81029e-09
2.64097e-09
-3.56391e-09
-4.13744e-09
5.06037e-09
-3.43074e-09
5.80466e-09
-2.35644e-09
-1.7478e-11
-4.05816e-11
-3.26794e-09
3.35619e-09
-4.7666e-11
1.88831e-10
6.82744e-09
-6.98849e-09
-2.77901e-11
-4.53308e-10
-5.65266e-09
4.31771e-09
1.78826e-09
-1.83469e-09
3.20298e-09
-1.40664e-09
3.83397e-11
-2.15041e-09
2.2586e-09
-1.10696e-10
2.5292e-12
-7.47591e-11
2.60919e-09
-7.1742e-11
4.75202e-09
-2.86332e-09
-1.93195e-09
4.32549e-11
-5.96479e-09
2.64803e-09
-1.13971e-10
-4.99924e-09
5.1249e-09
1.12204e-11
-1.3688e-10
-1.7961e-09
5.9017e-09
4.98374e-09
-9.08934e-09
-2.17865e-09
2.72747e-09
3.01133e-09
-3.56014e-09
2.46535e-09
1.37374e-09
-2.33385e-09
-1.50524e-09
1.29885e-09
-4.07418e-09
-6.49049e-11
6.66955e-10
1.57911e-09
-3.26719e-09
1.02113e-09
3.49954e-09
2.98704e-09
-1.16546e-09
-5.32113e-09
-3.22539e-09
-1.07441e-09
2.58439e-09
1.71541e-09
-2.83982e-09
-3.97536e-10
2.52391e-09
7.13459e-10
3.66429e-09
9.99132e-11
3.32659e-09
2.87689e-09
-1.37401e-09
-4.82948e-09
-6.03861e-09
6.63327e-09
-1.3022e-09
-3.56512e-09
6.59786e-09
-1.7034e-10
-2.8624e-09
1.05543e-09
4.74522e-09
-3.84807e-09
-1.95258e-09
2.92768e-09
-5.55797e-09
2.86273e-09
-2.32425e-10
2.39025e-10
-4.64387e-09
3.04821e-10
4.10002e-09
-2.64068e-09
-3.83377e-09
-2.61942e-09
-5.20452e-10
3.11584e-09
2.40249e-11
-4.54421e-09
7.43048e-10
4.04018e-09
-5.08323e-09
2.73704e-09
-2.73219e-10
8.72287e-10
-4.3757e-09
4.59897e-09
-1.09555e-09
-2.86979e-09
2.51346e-09
-5.31001e-09
5.66634e-09
5.9397e-09
-4.74232e-09
-1.30213e-09
1.04752e-10
-2.6559e-09
3.23806e-09
-4.39178e-09
3.80961e-09
-3.60713e-12
-2.73124e-09
2.68771e-09
4.7137e-11
4.58514e-09
-1.26359e-09
-3.43393e-09
1.12384e-10
2.59074e-09
-2.53962e-09
-7.44561e-11
-4.6261e-09
-4.31426e-09
4.55431e-09
-3.14121e-09
-5.34308e-09
9.30616e-10
7.55367e-09
9.98621e-09
5.53506e-09
-2.36478e-09
-1.31565e-08
3.22662e-09
-4.18463e-10
5.22818e-10
-3.33098e-09
-1.33254e-09
3.56492e-09
-2.30896e-09
7.65706e-11
-8.15092e-09
-1.53762e-09
5.14153e-09
4.547e-09
-2.09151e-09
-2.41902e-09
1.85244e-09
2.65809e-09
7.12408e-09
7.27873e-09
-8.44381e-09
-5.95901e-09
2.31827e-09
-1.62667e-09
3.15479e-09
-3.84639e-09
2.96444e-09
-5.35774e-09
2.45118e-09
-5.78787e-11
5.18083e-09
1.01876e-10
3.30744e-09
-8.74317e-09
5.56778e-09
-1.3207e-10
1.65981e-09
-3.42678e-09
-6.77353e-11
-2.64115e-09
4.74854e-09
-1.99351e-09
-1.54238e-09
1.8481e-09
4.43257e-09
-1.83106e-09
3.94627e-11
-8.05708e-11
3.17261e-11
-4.64693e-09
3.93113e-09
3.70659e-10
3.4513e-10
-3.55558e-09
2.42266e-09
1.38911e-09
-2.56188e-10
-1.61329e-09
-1.47744e-10
1.77914e-09
-1.81054e-11
-3.67879e-09
-1.54101e-10
-5.26857e-10
4.35977e-09
4.58377e-10
-1.87675e-09
7.45664e-09
-6.03827e-09
-6.67836e-09
6.34325e-09
-4.03097e-09
-6.30493e-09
2.99427e-09
-2.18539e-09
5.49605e-09
3.66353e-09
-3.0887e-09
-5.6077e-10
-1.40582e-11
-3.59694e-09
-4.52952e-10
3.71108e-10
-1.77924e-09
5.72586e-09
-8.96902e-10
-3.0497e-09
3.86499e-09
-2.55825e-10
-3.56683e-09
-4.23485e-11
-1.44215e-09
-1.56404e-11
1.47307e-09
-1.52424e-11
3.14264e-10
-4.92242e-09
4.70542e-09
-9.72316e-11
-7.63153e-10
-1.666e-09
2.4502e-09
-2.10433e-11
-1.73516e-09
4.07744e-09
-2.381e-09
3.87253e-11
1.48921e-09
-4.5383e-10
4.35146e-09
-4.61944e-09
2.905e-09
1.84135e-09
-1.26907e-10
3.1455e-09
-2.84154e-09
-3.00839e-10
-3.12672e-12
6.86191e-09
3.34164e-09
-6.66125e-09
1.07511e-09
1.37369e-10
-5.15934e-09
3.94686e-09
-1.41948e-09
-2.1598e-09
3.50673e-09
7.25331e-11
-2.70259e-09
2.64178e-09
-3.66617e-09
3.42645e-09
2.7678e-10
-3.80297e-09
9.97518e-11
1.15428e-09
-1.79685e-09
-2.18956e-09
2.83212e-09
1.53001e-09
1.09757e-09
3.06789e-11
3.29978e-09
6.5887e-09
-5.98969e-09
-1.14774e-08
1.42863e-09
3.58095e-09
6.46788e-09
-4.36344e-09
5.19263e-09
6.62013e-09
-7.44932e-09
3.66963e-09
-2.8489e-10
-3.65147e-11
1.10445e-09
1.92945e-09
-3.38491e-09
3.51008e-10
-4.25947e-09
-2.97841e-10
4.61155e-09
-5.42435e-11
3.48515e-10
-2.63448e-10
-3.35065e-09
7.09129e-09
-8.53499e-09
-7.42558e-10
2.18625e-09
-3.63876e-09
1.99561e-09
4.56159e-10
1.18694e-09
2.62977e-09
4.19577e-09
-1.31524e-09
-5.5103e-09
-8.173e-09
3.73971e-10
5.08973e-09
2.7093e-09
-3.76979e-09
3.29816e-09
-4.87223e-09
5.34386e-09
5.64838e-09
-5.28386e-09
-3.14839e-10
-4.96753e-11
-8.03329e-09
1.18739e-08
-3.93736e-10
-3.44691e-09
7.33824e-09
-9.72314e-09
5.17768e-09
-3.25236e-09
-1.19734e-09
-7.27978e-10
-3.97042e-09
5.29334e-09
-1.34576e-09
2.28375e-11
3.47328e-10
-6.80957e-09
-4.5078e-12
4.00911e-09
-1.19094e-09
-5.29871e-10
-2.2883e-09
-1.31093e-09
-1.95288e-09
-1.17643e-09
4.56392e-09
-1.69598e-09
5.71298e-11
3.40508e-09
-6.89775e-10
2.91864e-09
-1.66009e-09
-1.34886e-09
9.03191e-11
2.98566e-09
-8.66814e-10
-1.17417e-09
-9.44668e-10
-5.42794e-09
3.67566e-09
1.88523e-09
-1.32951e-10
4.3422e-09
-1.45652e-09
-2.97477e-09
8.90903e-11
-3.8106e-09
3.92339e-11
5.54366e-09
-1.8883e-09
-3.9048e-09
2.4944e-10
1.03992e-09
-3.69356e-09
3.74726e-09
-1.09363e-09
1.12288e-09
1.09885e-09
-4.60485e-09
2.38311e-09
-2.6112e-09
1.11213e-09
-1.16122e-10
3.22596e-10
-1.83956e-09
6.49987e-12
-2.85551e-09
5.17317e-10
2.40893e-09
-7.07419e-11
-9.15032e-11
-3.27039e-09
3.26831e-09
9.35852e-11
6.60217e-09
-4.94235e-09
1.50712e-09
2.41082e-09
3.32622e-09
8.65129e-10
4.83549e-09
3.56246e-10
-2.73144e-09
-2.4603e-09
-4.86775e-09
6.3983e-10
-2.17344e-09
-5.04769e-09
5.44787e-09
2.16903e-09
3.76435e-09
-5.03574e-09
-6.18282e-10
5.06082e-09
5.0732e-09
-9.83587e-09
-2.98153e-10
-4.39589e-09
6.2338e-09
9.56505e-11
1.94926e-09
2.39504e-09
-2.57729e-10
8.07355e-10
-1.72603e-09
-1.20996e-09
2.12864e-09
6.03366e-09
3.38574e-09
-8.29652e-09
-3.56483e-09
1.85859e-10
3.37576e-09
3.209e-12
2.65941e-09
-6.40775e-09
-2.33079e-09
6.07913e-09
-1.57268e-10
-1.92168e-09
2.14314e-09
-6.41898e-11
4.28941e-09
-4.96781e-09
-5.62934e-10
1.24133e-09
-3.12598e-09
1.74544e-09
4.5726e-09
-3.19204e-09
2.39261e-10
-3.09473e-09
8.82463e-12
-2.6697e-09
2.83111e-09
7.78527e-11
4.33994e-09
-1.47704e-09
-1.27466e-09
-1.58826e-09
3.29289e-09
-2.87613e-09
-4.20256e-10
3.48684e-12
1.82794e-09
2.22e-10
-1.99772e-09
-5.22232e-11
-5.82177e-09
-3.68477e-09
4.3367e-09
-2.34344e-09
3.67183e-09
-1.38089e-09
5.25034e-11
-3.13048e-09
1.26636e-09
1.89613e-09
-3.1988e-11
4.94774e-09
3.05255e-09
-4.97438e-10
-7.50286e-09
9.51282e-09
-4.67793e-09
-7.22217e-09
2.38728e-09
1.92975e-09
2.26481e-11
-1.99866e-09
4.62615e-11
4.86394e-09
3.63047e-09
-8.1193e-09
2.7577e-09
2.54965e-09
2.17156e-09
4.51612e-09
5.61624e-09
-3.77529e-09
-6.35708e-09
6.61422e-09
-5.01999e-09
-3.42428e-09
1.83006e-09
3.25578e-09
-2.52395e-09
-3.49593e-09
2.76411e-09
-2.34967e-09
5.508e-09
9.74592e-11
-4.32852e-09
-2.73293e-09
-6.39443e-09
-1.31959e-10
6.58434e-09
-5.79523e-11
-2.60583e-09
2.66801e-09
4.74386e-09
-4.80603e-09
2.95718e-09
1.6057e-09
2.2259e-11
-2.24079e-09
-1.72078e-09
-3.02598e-09
-5.7992e-10
3.13372e-09
4.72169e-10
4.05266e-09
-4.15621e-09
2.7429e-09
-2.63935e-09
4.14096e-09
-1.84151e-09
1.3694e-09
4.72345e-09
-2.15562e-10
-5.87728e-09
9.54496e-10
-2.70084e-09
1.92801e-09
-1.81672e-10
-3.53516e-09
3.19506e-10
-4.96119e-11
-9.7603e-10
-6.61173e-09
7.53932e-09
4.84241e-11
-3.40098e-09
7.24383e-09
-1.28597e-09
4.52444e-09
1.0361e-08
-8.33034e-09
-6.55512e-09
2.82976e-09
-2.98933e-09
1.34374e-10
2.51961e-11
4.54007e-09
-9.29805e-09
2.73042e-09
-2.89602e-09
1.81964e-10
-1.63649e-11
-4.80934e-10
5.86156e-09
-5.37734e-09
-3.28289e-12
8.28357e-09
-1.00443e-08
1.13417e-09
-2.90354e-09
5.13174e-10
-6.72922e-10
3.0633e-09
-4.86368e-09
7.29332e-09
-1.55909e-09
-1.10899e-09
2.65363e-09
1.44535e-11
-1.40838e-09
-8.87259e-10
2.3139e-09
-1.82523e-11
2.82936e-09
-9.53234e-10
-3.37062e-09
-2.24942e-09
9.72211e-10
-1.31174e-10
4.78181e-09
-4.30993e-09
-1.42985e-09
9.57968e-10
4.42648e-10
3.89139e-09
-4.25148e-09
-8.25629e-11
4.49784e-09
-9.05296e-10
-4.88606e-10
8.57009e-09
-4.87129e-09
-9.62849e-10
-2.73597e-09
-2.79903e-09
1.33482e-09
-2.27661e-10
7.81106e-09
9.88555e-11
-3.98601e-10
-7.51132e-09
3.36856e-09
-2.55656e-09
6.02909e-11
5.17256e-09
-5.18208e-09
2.72114e-11
-1.77065e-11
3.54059e-09
8.39322e-11
-3.64526e-09
2.07327e-11
-1.11534e-10
3.67755e-09
-2.54414e-11
7.72787e-11
-3.09424e-09
3.0538e-09
-3.68436e-11
2.63687e-09
3.11487e-11
3.69331e-09
2.14696e-09
-5.75382e-09
-8.64441e-11
1.07491e-09
-6.14852e-09
-9.62308e-12
-5.66448e-09
2.35478e-11
1.53094e-10
4.97656e-09
-3.63147e-09
6.29505e-09
-6.22952e-09
-1.06109e-10
1.74209e-10
-3.4822e-09
4.00489e-11
4.12316e-09
-1.23802e-09
4.71062e-10
-3.35787e-09
-3.84186e-10
-2.65237e-09
-4.34434e-09
-2.06979e-10
-1.91033e-11
-6.21838e-09
3.70143e-09
6.01649e-09
2.36759e-09
-2.37395e-09
9.73876e-11
-9.10295e-11
2.28e-09
-5.82653e-11
5.07709e-09
-5.78993e-09
-2.74638e-09
3.45922e-09
-2.47866e-09
4.66813e-09
2.88763e-09
-3.30244e-09
2.3203e-10
-7.42062e-11
-4.9536e-09
9.82552e-09
-5.55235e-09
6.80432e-10
6.04282e-09
-1.01497e-08
-5.82787e-09
9.93478e-09
1.83364e-10
-3.43013e-09
3.228e-09
1.8764e-11
3.41863e-09
5.47586e-10
-7.35126e-09
3.38505e-09
-5.74129e-10
4.20647e-09
-1.04756e-08
6.84328e-09
-1.12551e-08
4.28801e-09
6.5093e-09
4.57743e-10
-3.73323e-09
4.98932e-10
5.68199e-09
-2.44768e-09
6.413e-10
3.82857e-09
-3.05207e-09
-1.41779e-09
-3.00799e-09
-4.56724e-09
9.07251e-09
-1.49728e-09
2.89316e-09
4.99647e-10
-3.41172e-09
1.8896e-11
9.55298e-09
5.2856e-09
-9.16021e-09
-5.67837e-09
3.94647e-09
5.88985e-09
-3.9584e-10
-9.44048e-09
5.92014e-09
-9.27176e-09
-3.24717e-10
3.67634e-09
-5.55904e-09
-9.69249e-09
9.22523e-09
6.0263e-09
-9.23357e-09
9.73335e-09
-5.67553e-09
5.17574e-09
3.1238e-10
-5.42952e-09
-3.50501e-09
8.62215e-09
1.48587e-10
3.66999e-09
5.44044e-09
-9.25902e-09
-5.5449e-09
9.60834e-09
-3.45288e-10
-3.71817e-09
7.01147e-09
1.06838e-08
-1.11826e-08
-6.51266e-09
3.9518e-09
-4.59274e-09
2.41328e-09
-1.77236e-09
9.99374e-09
6.25164e-09
-1.05923e-08
-5.6531e-09
-1.00435e-08
6.23706e-09
-5.76202e-09
9.56846e-09
-3.60749e-09
7.11733e-09
-2.43457e-09
-1.07526e-09
4.15101e-09
-9.25702e-09
-3.93552e-11
-3.42907e-09
1.28978e-09
-5.80249e-09
9.07206e-09
4.49462e-10
-3.71903e-09
-3.97856e-09
9.60134e-09
4.94202e-10
-6.11698e-09
3.66224e-09
6.58946e-09
-6.1439e-09
-4.1078e-09
-9.44041e-09
5.20146e-09
3.74952e-09
4.89446e-10
-5.8494e-09
-1.02877e-08
6.1565e-09
9.98064e-09
-9.31478e-09
-5.43576e-09
9.23186e-09
5.51867e-09
6.37991e-09
-1.05283e-08
1.00713e-08
-5.9229e-09
-3.98593e-09
-5.79099e-09
-3.61602e-10
1.01385e-08
3.96901e-09
3.67948e-10
5.38226e-09
-9.71923e-09
3.82934e-09
5.6562e-09
-3.63356e-10
-9.12219e-09
3.77116e-10
-4.09884e-09
-6.35422e-09
1.00759e-08
1.02633e-08
-5.73869e-09
-4.73264e-10
-4.05133e-09
-5.37036e-09
-3.66041e-10
-3.57838e-09
-4.01551e-09
-5.80846e-09
-4.71793e-10
1.02958e-08
1.02004e-08
-9.67357e-09
-6.1917e-09
5.66489e-09
7.95763e-09
5.32813e-09
-7.81995e-09
-5.4658e-09
8.21774e-09
-5.25273e-09
1.2684e-10
-3.09185e-09
6.32622e-09
-9.98951e-09
4.1131e-09
-4.49793e-10
3.70621e-09
-5.38705e-09
1.78227e-09
-1.0144e-10
1.82907e-09
-5.52663e-09
3.73621e-10
4.67009e-09
3.83847e-09
6.4834e-10
-9.15689e-09
2.7888e-09
-1.23154e-09
-1.43975e-09
-1.17483e-10
5.15385e-09
4.54976e-09
9.17513e-10
-1.06211e-08
4.89332e-09
7.80951e-09
-7.39578e-09
-5.30705e-09
-6.19874e-09
-9.5925e-09
1.0062e-08
5.72925e-09
-6.10437e-09
4.70732e-10
9.45575e-09
-3.82212e-09
-2.29567e-09