/*--------------------------------*- C++ -*----------------------------------*\
| =========                 |                                                 |
| \\      /  F ield         | OpenFOAM: The Open Source CFD Toolbox           |
|  \\    /   O peration     | Version:  v1612+                                |
|   \\  /    A nd           | Web:      www.OpenFOAM.com                      |
|    \\/     M anipulation  |                                                 |
\*---------------------------------------------------------------------------*/
FoamFile
{
    version     2.0;
    format      ascii;
    class       volVectorField;
    location    "100";
    object      U;
}
// * * * * * * * * * * * * * * * * * * * * * * * * * * * * * * * * * * * * * //

dimensions      [0 1 -1 0 0 0 0];

internalField   nonuniform List<vector> 
21430
(
(0.14341 0.686149 -0.182621)
(0.149204 0.68784 -0.200486)
(0.150238 0.692365 -0.182646)
(0.158119 0.762122 -0.201845)
(0.173824 0.831028 -0.225804)
(0.124658 0.600606 -0.167313)
(0.137359 0.655121 -0.172239)
(0.139975 0.658165 -0.184651)
(0.137872 0.688972 -0.199412)
(0.14408 0.650651 -0.17983)
(0.146256 0.660543 -0.185963)
(0.134981 0.609487 -0.160958)
(0.179868 0.776983 -0.213601)
(0.153328 0.700098 -0.184906)
(0.170619 0.769914 -0.203959)
(0.136347 0.61271 -0.156673)
(0.15491 0.679224 -0.179866)
(0.151006 0.645571 -0.174307)
(0.138754 0.668952 -0.186743)
(0.14833 0.65723 -0.188409)
(0.139833 0.687645 -0.192335)
(0.146501 0.612184 -0.163273)
(0.147889 0.682573 -0.192154)
(0.167804 0.742921 -0.206999)
(0.151535 0.677987 -0.187737)
(0.155493 0.701173 -0.182707)
(0.127687 0.606972 -0.162562)
(0.141147 0.597559 -0.161407)
(0.139199 0.616481 -0.165054)
(0.154506 0.680342 -0.184777)
(0.138115 0.670477 -0.190348)
(0.145427 0.696581 -0.198867)
(0.133878 0.68693 -0.198623)
(0.137501 0.604446 -0.181981)
(0.170468 0.754274 -0.213138)
(0.190629 0.878056 -0.248717)
(0.157474 0.722916 -0.207837)
(0.161731 0.727445 -0.206934)
(0.156816 0.705402 -0.20114)
(0.128365 0.644305 -0.186667)
(0.182403 0.861685 -0.243852)
(0.139303 0.634956 -0.179241)
(0.152644 0.652544 -0.179612)
(0.156014 0.730686 -0.190344)
(0.140161 0.630719 -0.176404)
(0.165521 0.725617 -0.196758)
(0.14938 0.657943 -0.176573)
(0.138664 0.670823 -0.174235)
(0.158564 0.681325 -0.174816)
(0.15512 0.663778 -0.1885)
(0.160293 0.714829 -0.188381)
(0.144082 0.676353 -0.179285)
(0.148729 0.694465 -0.204287)
(0.158452 0.747319 -0.212933)
(0.152101 0.670263 -0.184758)
(0.143153 0.654623 -0.176596)
(0.182541 0.858274 -0.246986)
(0.154143 0.677146 -0.193286)
(0.163287 0.721088 -0.2042)
(0.130847 0.634654 -0.173273)
(0.135724 0.631176 -0.175744)
(0.137556 0.668459 -0.177605)
(0.128531 0.595947 -0.152789)
(0.158382 0.71535 -0.196967)
(0.156669 0.675005 -0.186245)
(0.153926 0.637595 -0.173506)
(0.132033 0.659116 -0.185962)
(0.162883 0.738339 -0.189135)
(0.169152 0.80886 -0.21165)
(0.138088 0.613661 -0.16283)
(0.131702 0.636177 -0.172859)
(0.138049 0.647262 -0.181863)
(0.16246 0.759212 -0.217816)
(0.144559 0.664938 -0.177116)
(0.154129 0.700381 -0.200349)
(0.147625 0.650594 -0.176929)
(0.132564 0.638893 -0.17623)
(0.140868 0.692765 -0.19785)
(0.14409 0.697669 -0.194569)
(0.152631 0.652134 -0.185823)
(0.124478 0.58555 -0.166185)
(0.159817 0.684627 -0.192754)
(0.133044 0.616679 -0.174049)
(0.155937 0.649393 -0.181894)
(0.14549 0.661058 -0.173602)
(0.15471 0.69184 -0.194054)
(0.144942 0.625387 -0.165301)
(0.152458 0.715654 -0.198073)
(0.147025 0.678488 -0.182077)
(0.131284 0.608163 -0.169419)
(0.158096 0.725081 -0.202133)
(0.136253 0.597129 -0.160396)
(0.189382 0.813834 -0.231781)
(0.186888 0.83012 -0.234969)
(0.160479 0.765151 -0.219724)
(0.173131 0.802036 -0.22859)
(0.155767 0.702108 -0.187203)
(0.161319 0.745342 -0.212998)
(0.144848 0.638212 -0.164367)
(0.141418 0.6566 -0.190924)
(0.142443 0.657822 -0.191503)
(0.145641 0.683386 -0.191102)
(0.153109 0.678387 -0.178646)
(0.175036 0.740108 -0.202479)
(0.119188 0.612263 -0.164158)
(0.180012 0.829601 -0.233397)
(0.180341 0.812596 -0.230748)
(0.144998 0.688709 -0.190472)
(0.166325 0.783934 -0.21609)
(0.187728 0.863435 -0.238732)
(0.150871 0.679391 -0.18272)
(0.152475 0.674808 -0.178834)
(0.156834 0.690129 -0.182536)
(0.151016 0.680308 -0.176042)
(0.145782 0.658077 -0.175665)
(0.164788 0.717338 -0.199391)
(0.15043 0.710047 -0.192765)
(0.158514 0.713418 -0.199784)
(0.143478 0.639399 -0.171258)
(0.13517 0.640379 -0.171133)
(0.153552 0.670382 -0.179354)
(0.165713 0.722086 -0.203698)
(0.148575 0.685276 -0.202501)
(0.134137 0.662523 -0.186257)
(0.159911 0.767555 -0.223898)
(0.165533 0.729318 -0.196118)
(0.170648 0.751299 -0.209712)
(0.14811 0.654566 -0.174003)
(0.149334 0.673928 -0.177982)
(0.14767 0.677612 -0.17974)
(0.120105 0.577668 -0.14819)
(0.142152 0.6711 -0.181424)
(0.161217 0.723992 -0.198027)
(0.166109 0.633401 -0.175405)
(0.16463 0.71628 -0.192709)
(0.158945 0.68979 -0.18402)
(0.140763 0.663319 -0.174015)
(0.158464 0.744817 -0.212596)
(0.164946 0.758219 -0.215476)
(0.145383 0.653262 -0.183352)
(0.148189 0.661483 -0.184596)
(0.147079 0.719425 -0.195982)
(0.164196 0.709789 -0.210505)
(0.144403 0.646131 -0.171104)
(0.109846 0.510521 -0.148992)
(0.143046 0.67249 -0.172302)
(0.151633 0.671094 -0.176759)
(0.142851 0.668568 -0.173462)
(0.13522 0.641945 -0.17448)
(0.163125 0.72569 -0.206593)
(0.163163 0.721529 -0.20583)
(0.150667 0.705057 -0.205491)
(0.151518 0.665275 -0.199245)
(0.1468 0.682185 -0.200385)
(0.141096 0.683654 -0.189021)
(0.142738 0.635992 -0.168229)
(0.158198 0.724776 -0.196635)
(0.140671 0.615464 -0.16524)
(0.156919 0.711959 -0.200305)
(0.130482 0.602664 -0.164551)
(0.150636 0.700356 -0.184714)
(0.14876 0.707419 -0.1847)
(0.1412 0.637576 -0.17265)
(0.160156 0.737465 -0.195451)
(0.132477 0.653386 -0.165867)
(0.149642 0.720555 -0.211047)
(0.151999 0.706913 -0.184314)
(0.131094 0.658903 -0.18131)
(0.137193 0.691169 -0.192225)
(0.148891 0.622676 -0.170977)
(0.152626 0.692718 -0.187763)
(0.15993 0.726363 -0.197377)
(0.144399 0.693992 -0.185005)
(0.136826 0.654443 -0.187285)
(0.150729 0.707627 -0.187934)
(0.160389 0.691571 -0.185243)
(0.159116 0.709377 -0.188302)
(0.131646 0.634599 -0.17278)
(0.162865 0.764115 -0.222347)
(0.151819 0.651049 -0.192233)
(0.144828 0.687682 -0.184905)
(0.144941 0.672836 -0.189154)
(0.149714 0.675227 -0.189757)
(0.15825 0.731348 -0.196284)
(0.160467 0.680693 -0.189513)
(0.166827 0.731723 -0.193495)
(0.180986 0.771885 -0.208059)
(0.163379 0.699094 -0.192183)
(0.153738 0.710699 -0.185419)
(0.141396 0.648896 -0.187001)
(0.165418 0.702474 -0.19172)
(0.166802 0.747306 -0.195626)
(0.157504 0.697558 -0.184857)
(0.154616 0.655615 -0.180246)
(0.13892 0.678015 -0.181926)
(0.140367 0.625842 -0.181162)
(0.147935 0.647413 -0.183866)
(0.154035 0.713475 -0.202049)
(0.144697 0.668881 -0.177422)
(0.155494 0.713604 -0.193696)
(0.149812 0.674119 -0.183487)
(0.130994 0.608973 -0.154575)
(0.142736 0.620334 -0.174794)
(0.142358 0.649689 -0.177827)
(0.177855 0.746915 -0.214123)
(0.155134 0.743696 -0.20386)
(0.170515 0.773 -0.205122)
(0.138781 0.675077 -0.185687)
(0.138406 0.608038 -0.172699)
(0.142783 0.689939 -0.191886)
(0.138548 0.641562 -0.169086)
(0.145229 0.671439 -0.17296)
(0.147805 0.705528 -0.203731)
(0.135258 0.643784 -0.17703)
(0.135083 0.663791 -0.189455)
(0.162094 0.711808 -0.190711)
(0.147072 0.658247 -0.161756)
(0.174954 0.778016 -0.199787)
(0.154083 0.700493 -0.182839)
(0.156198 0.734219 -0.192975)
(0.153761 0.669449 -0.186332)
(0.163091 0.688301 -0.178981)
(0.157241 0.690503 -0.183021)
(0.147362 0.650695 -0.181224)
(0.149174 0.653656 -0.174865)
(0.159604 0.726513 -0.209366)
(0.137449 0.607667 -0.174317)
(0.156603 0.722631 -0.202515)
(0.154699 0.72625 -0.197504)
(0.134844 0.626996 -0.169155)
(0.167774 0.77205 -0.209379)
(0.139279 0.632001 -0.167221)
(0.1653 0.771014 -0.199964)
(0.15059 0.698564 -0.193314)
(0.143046 0.657884 -0.184076)
(0.147541 0.654179 -0.171091)
(0.16208 0.736443 -0.196327)
(0.15028 0.694058 -0.174362)
(0.145176 0.640147 -0.172193)
(0.170098 0.704217 -0.1872)
(0.138695 0.631454 -0.175201)
(0.153609 0.666775 -0.178601)
(0.133285 0.620424 -0.178899)
(0.118307 0.576267 -0.16599)
(0.153086 0.668975 -0.176151)
(0.158453 0.685331 -0.177976)
(0.132699 0.648074 -0.162539)
(0.129604 0.618096 -0.162697)
(0.143165 0.628424 -0.169268)
(0.155687 0.737266 -0.208488)
(0.154833 0.694375 -0.173782)
(0.142729 0.677975 -0.175211)
(0.129095 0.608651 -0.162235)
(0.152425 0.761204 -0.217156)
(0.162821 0.761162 -0.215469)
(0.158367 0.765426 -0.21617)
(0.166782 0.760097 -0.219762)
(0.135784 0.643621 -0.174732)
(0.163062 0.738481 -0.20189)
(0.127303 0.58958 -0.166049)
(0.148959 0.683743 -0.193295)
(0.148983 0.704466 -0.20251)
(0.137904 0.648799 -0.174503)
(0.155769 0.660013 -0.177589)
(0.149275 0.703575 -0.191789)
(0.162904 0.725687 -0.198674)
(0.169656 0.706203 -0.190984)
(0.14518 0.611555 -0.165473)
(0.147283 0.611388 -0.163983)
(0.147757 0.665255 -0.179443)
(0.149224 0.647687 -0.178839)
(0.193787 0.833291 -0.22834)
(0.163479 0.710738 -0.197796)
(0.158951 0.678472 -0.189209)
(0.141586 0.671084 -0.175935)
(0.127154 0.650077 -0.182989)
(0.139796 0.647411 -0.18333)
(0.138804 0.662392 -0.18402)
(0.130026 0.60357 -0.167598)
(0.149402 0.703997 -0.19904)
(0.140568 0.658755 -0.187118)
(0.154518 0.719788 -0.188875)
(0.154321 0.727683 -0.195421)
(0.144854 0.624928 -0.170192)
(0.168024 0.743749 -0.209172)
(0.121092 0.5838 -0.157279)
(0.150285 0.646313 -0.179731)
(0.137051 0.66331 -0.18119)
(0.141195 0.672314 -0.181669)
(0.146776 0.657108 -0.18505)
(0.158971 0.725286 -0.213439)
(0.178149 0.836209 -0.240676)
(0.142881 0.653131 -0.175304)
(0.150637 0.690855 -0.188527)
(0.169817 0.786967 -0.223204)
(0.155054 0.691856 -0.186192)
(0.156496 0.726961 -0.199901)
(0.14488 0.679413 -0.184523)
(0.149664 0.662343 -0.179628)
(0.131189 0.600128 -0.17424)
(0.135254 0.590451 -0.164483)
(0.173242 0.767002 -0.206351)
(0.140992 0.662066 -0.190202)
(0.145559 0.667247 -0.188293)
(0.146979 0.639377 -0.168453)
(0.136485 0.608459 -0.166153)
(0.161846 0.701566 -0.196621)
(0.159371 0.672232 -0.182105)
(0.128181 0.56929 -0.150105)
(0.143946 0.64641 -0.177092)
(0.174608 0.756589 -0.217191)
(0.151804 0.716628 -0.188968)
(0.140361 0.647537 -0.171276)
(0.14667 0.688007 -0.188192)
(0.157318 0.749479 -0.194184)
(0.151052 0.687241 -0.185642)
(0.146405 0.698686 -0.185399)
(0.140321 0.636256 -0.181458)
(0.146828 0.661704 -0.187862)
(0.135265 0.637228 -0.170434)
(0.132186 0.644816 -0.171008)
(0.144525 0.689048 -0.195769)
(0.151895 0.671445 -0.184293)
(0.150549 0.692652 -0.196998)
(0.161963 0.710641 -0.21515)
(0.159081 0.691314 -0.195975)
(0.160584 0.697042 -0.199289)
(0.152586 0.683411 -0.195573)
(0.144616 0.661278 -0.184061)
(0.147401 0.676245 -0.192256)
(0.144217 0.656522 -0.18223)
(0.115598 0.563982 -0.159397)
(0.114491 0.553849 -0.149673)
(0.124013 0.609592 -0.16786)
(0.133328 0.609691 -0.170485)
(0.167692 0.719098 -0.196435)
(0.142801 0.658174 -0.174587)
(0.146 0.654573 -0.176259)
(0.149245 0.647634 -0.174584)
(0.147866 0.675085 -0.178311)
(0.144793 0.640118 -0.172401)
(0.14246 0.666349 -0.187156)
(0.15344 0.707926 -0.200902)
(0.176931 0.828305 -0.232675)
(0.156793 0.676754 -0.189119)
(0.133865 0.621592 -0.177152)
(0.15148 0.691307 -0.202188)
(0.150815 0.654005 -0.1844)
(0.148636 0.677432 -0.189438)
(0.164175 0.71192 -0.203407)
(0.145438 0.619117 -0.175561)
(0.144745 0.663856 -0.188893)
(0.167865 0.708692 -0.199113)
(0.134475 0.65425 -0.182994)
(0.139958 0.618389 -0.170717)
(0.162657 0.682462 -0.195583)
(0.139401 0.63658 -0.161524)
(0.145805 0.681638 -0.175705)
(0.125175 0.606797 -0.164585)
(0.131313 0.628352 -0.172373)
(0.159813 0.749242 -0.200737)
(0.139477 0.662162 -0.176801)
(0.150264 0.70815 -0.195343)
(0.165534 0.763465 -0.20332)
(0.168623 0.762828 -0.203205)
(0.156553 0.701534 -0.189888)
(0.169153 0.758455 -0.204946)
(0.154589 0.692579 -0.178366)
(0.142706 0.689674 -0.177422)
(0.1423 0.652484 -0.183536)
(0.127398 0.555212 -0.157814)
(0.146338 0.648802 -0.168563)
(0.149531 0.664928 -0.187223)
(0.132801 0.639763 -0.167361)
(0.152905 0.662793 -0.183487)
(0.152959 0.740274 -0.204906)
(0.149984 0.671082 -0.179724)
(0.155382 0.699263 -0.18931)
(0.172459 0.730488 -0.200015)
(0.161736 0.678841 -0.179484)
(0.152905 0.690906 -0.200296)
(0.136935 0.621899 -0.177723)
(0.14288 0.616412 -0.169212)
(0.149293 0.668936 -0.179656)
(0.143477 0.670307 -0.187366)
(0.124548 0.594152 -0.16609)
(0.138755 0.585952 -0.176847)
(0.139571 0.634551 -0.159111)
(0.141037 0.615108 -0.164304)
(0.139435 0.633796 -0.174859)
(0.162184 0.663149 -0.184405)
(0.169642 0.771603 -0.218593)
(0.140123 0.6646 -0.185933)
(0.150988 0.65895 -0.177004)
(0.146941 0.663715 -0.176323)
(0.142792 0.627285 -0.174403)
(0.147637 0.672978 -0.188254)
(0.150798 0.66539 -0.191076)
(0.13717 0.666595 -0.1759)
(0.15018 0.649973 -0.17743)
(0.142487 0.651391 -0.170048)
(0.153402 0.708577 -0.185624)
(0.165392 0.695134 -0.18401)
(0.161474 0.720268 -0.20521)
(0.141627 0.647938 -0.176531)
(0.139897 0.660203 -0.184131)
(0.166234 0.756494 -0.202686)
(0.138936 0.665504 -0.180235)
(0.137536 0.6488 -0.175837)
(0.148674 0.682816 -0.179585)
(0.145823 0.675032 -0.182872)
(0.156818 0.6806 -0.184164)
(0.152754 0.726031 -0.198695)
(0.156915 0.661334 -0.186639)
(0.141824 0.601414 -0.174308)
(0.139306 0.606927 -0.167766)
(0.144542 0.659674 -0.17172)
(0.154796 0.731485 -0.199363)
(0.163759 0.751367 -0.198624)
(0.16191 0.734517 -0.203434)
(0.125298 0.605541 -0.162066)
(0.139138 0.67067 -0.18917)
(0.152405 0.700793 -0.196898)
(0.158527 0.657618 -0.177157)
(0.160069 0.712571 -0.207507)
(0.147736 0.673081 -0.17491)
(0.143212 0.633976 -0.172215)
(0.130148 0.618075 -0.15527)
(0.137158 0.635866 -0.172151)
(0.133445 0.60661 -0.173687)
(0.134702 0.660203 -0.17942)
(0.136518 0.654875 -0.189064)
(0.147667 0.655042 -0.192523)
(0.167223 0.679537 -0.194409)
(0.152888 0.686319 -0.198974)
(0.138118 0.603291 -0.161347)
(0.128162 0.567803 -0.153024)
(0.149727 0.667541 -0.184613)
(0.14196 0.679906 -0.189462)
(0.16493 0.722552 -0.202565)
(0.155979 0.727524 -0.207272)
(0.124026 0.58247 -0.163563)
(0.143058 0.659983 -0.19283)
(0.146461 0.657181 -0.187666)
(0.128603 0.607433 -0.178362)
(0.136993 0.583263 -0.166074)
(0.147176 0.639063 -0.175989)
(0.116292 0.55094 -0.151553)
(0.148025 0.670354 -0.168656)
(0.156221 0.765268 -0.212944)
(0.142789 0.677734 -0.190756)
(0.136786 0.58805 -0.170115)
(0.160915 0.695602 -0.18285)
(0.162398 0.706977 -0.202105)
(0.117591 0.579362 -0.151834)
(0.153162 0.675315 -0.166932)
(0.142225 0.641354 -0.178664)
(0.130143 0.643248 -0.170007)
(0.129596 0.598285 -0.165916)
(0.15568 0.68356 -0.189848)
(0.181596 0.781997 -0.21686)
(0.17296 0.743712 -0.205734)
(0.144859 0.641061 -0.17635)
(0.153649 0.658999 -0.186557)
(0.145894 0.637604 -0.180969)
(0.153165 0.703323 -0.19874)
(0.154873 0.701329 -0.199441)
(0.157035 0.692825 -0.198389)
(0.152248 0.719242 -0.186345)
(0.170853 0.762968 -0.203824)
(0.153575 0.703637 -0.190457)
(0.135933 0.651148 -0.181622)
(0.168256 0.779103 -0.210815)
(0.157896 0.73488 -0.198516)
(0.169008 0.751755 -0.202272)
(0.14513 0.650702 -0.163097)
(0.148358 0.689376 -0.178075)
(0.158332 0.748398 -0.199484)
(0.152932 0.6747 -0.192955)
(0.130478 0.61611 -0.16078)
(0.156992 0.672664 -0.20221)
(0.145854 0.641173 -0.182918)
(0.147261 0.660088 -0.178153)
(0.143798 0.620119 -0.167979)
(0.131838 0.613486 -0.175792)
(0.154455 0.674685 -0.184016)
(0.1315 0.623712 -0.167288)
(0.13515 0.6387 -0.178813)
(0.142379 0.690321 -0.200077)
(0.126685 0.581458 -0.163197)
(0.128471 0.58577 -0.160512)
(0.135496 0.64639 -0.182066)
(0.141567 0.628452 -0.178691)
(0.160711 0.730647 -0.205037)
(0.154948 0.724892 -0.200137)
(0.138734 0.690134 -0.181421)
(0.167883 0.729309 -0.199227)
(0.147468 0.709325 -0.194493)
(0.149228 0.71135 -0.199407)
(0.168169 0.758244 -0.197503)
(0.148149 0.696507 -0.182037)
(0.133521 0.661278 -0.181841)
(0.138436 0.63753 -0.16278)
(0.161626 0.739511 -0.210269)
(0.153266 0.652032 -0.174852)
(0.16941 0.714618 -0.194148)
(0.135385 0.587027 -0.164326)
(0.155298 0.689601 -0.196726)
(0.145241 0.660072 -0.166549)
(0.135805 0.638375 -0.174437)
(0.126187 0.608758 -0.175855)
(0.147966 0.683997 -0.189378)
(0.124588 0.618128 -0.160688)
(0.122837 0.586203 -0.151145)
(0.154217 0.710524 -0.197219)
(0.13226 0.594549 -0.170159)
(0.13068 0.590203 -0.162713)
(0.165619 0.689686 -0.195917)
(0.167944 0.770546 -0.21861)
(0.148165 0.628612 -0.183399)
(0.140625 0.697531 -0.183794)
(0.165794 0.725213 -0.195922)
(0.160267 0.686419 -0.18847)
(0.158244 0.717064 -0.200309)
(0.141892 0.650913 -0.193162)
(0.135349 0.635791 -0.184344)
(0.161564 0.716814 -0.192877)
(0.143443 0.646666 -0.178311)
(0.153552 0.664549 -0.187507)
(0.145459 0.628887 -0.179245)
(0.1435 0.65545 -0.180469)
(0.131509 0.642842 -0.167877)
(0.155323 0.684017 -0.18501)
(0.141414 0.643707 -0.184108)
(0.146533 0.678743 -0.191427)
(0.134253 0.614086 -0.162842)
(0.127819 0.600395 -0.164008)
(0.143622 0.659615 -0.176616)
(0.148846 0.692761 -0.189072)
(0.180864 0.853334 -0.228128)
(0.146997 0.632831 -0.183479)
(0.16834 0.742208 -0.193999)
(0.141659 0.658548 -0.174462)
(0.141448 0.685573 -0.181252)
(0.158178 0.744793 -0.198416)
(0.154507 0.696338 -0.185936)
(0.149713 0.675288 -0.185452)
(0.122638 0.579084 -0.167546)
(0.120552 0.564694 -0.142324)
(0.145626 0.657189 -0.172756)
(0.131606 0.590432 -0.156558)
(0.150871 0.686779 -0.18552)
(0.140131 0.613013 -0.163447)
(0.153972 0.708233 -0.205474)
(0.14997 0.661389 -0.18108)
(0.130614 0.577997 -0.158949)
(0.157976 0.745204 -0.201438)
(0.135945 0.652038 -0.176883)
(0.145234 0.637855 -0.172622)
(0.134769 0.643462 -0.166161)
(0.130354 0.595713 -0.154729)
(0.142229 0.651092 -0.174307)
(0.141719 0.637402 -0.171227)
(0.146622 0.688387 -0.189103)
(0.14709 0.658099 -0.186723)
(0.146788 0.651257 -0.178062)
(0.163696 0.74374 -0.2113)
(0.158983 0.714549 -0.201844)
(0.152233 0.643185 -0.183016)
(0.144761 0.66563 -0.1873)
(0.156455 0.677119 -0.187002)
(0.146642 0.648906 -0.186507)
(0.162932 0.684353 -0.186172)
(0.143818 0.618839 -0.178656)
(0.129127 0.579435 -0.162608)
(0.156101 0.679472 -0.181331)
(0.16374 0.724868 -0.197019)
(0.140789 0.611717 -0.16859)
(0.172652 0.777044 -0.22576)
(0.206686 0.906003 -0.245792)
(0.140578 0.642808 -0.175859)
(0.147355 0.725566 -0.194198)
(0.20577 0.977996 -0.269672)
(0.215479 1.00514 -0.268958)
(0.159048 0.731295 -0.210058)
(0.157738 0.723205 -0.207181)
(0.16248 0.74945 -0.215013)
(0.131538 0.607408 -0.167612)
(0.177589 0.83605 -0.232121)
(0.201317 0.872306 -0.244115)
(0.191683 0.863796 -0.227647)
(0.183287 0.859798 -0.227943)
(0.178487 0.802675 -0.213257)
(0.178886 0.779482 -0.217726)
(0.192275 0.822376 -0.222052)
(0.189711 0.884444 -0.229647)
(0.20736 0.999559 -0.263155)
(0.172741 0.725837 -0.184787)
(0.192054 0.899375 -0.252995)
(0.193891 0.896004 -0.249704)
(0.161258 0.765762 -0.212991)
(0.163466 0.759348 -0.213174)
(0.146518 0.697762 -0.194995)
(0.186874 0.833207 -0.238688)
(0.197101 0.889015 -0.252605)
(0.160072 0.703039 -0.194035)
(0.182986 0.84412 -0.239389)
(0.208874 0.915973 -0.259221)
(0.193319 0.83778 -0.226019)
(0.207087 0.930078 -0.260765)
(0.205469 0.89968 -0.246232)
(0.195714 0.862239 -0.244874)
(0.198314 0.835879 -0.232087)
(0.210486 0.927884 -0.253288)
(0.203333 0.90081 -0.2563)
(0.188371 0.819843 -0.225646)
(0.200681 0.91058 -0.253684)
(0.20405 0.900239 -0.250563)
(0.193513 0.854236 -0.239561)
(0.168619 0.732567 -0.207238)
(0.207804 0.923932 -0.257277)
(0.146057 0.679181 -0.183846)
(0.146551 0.679751 -0.183405)
(0.183622 0.842107 -0.241547)
(0.126199 0.611136 -0.167288)
(0.189751 0.877233 -0.248326)
(0.17589 0.832937 -0.235753)
(0.188667 0.891741 -0.243731)
(0.189264 0.887972 -0.243186)
(0.142495 0.698258 -0.194069)
(0.184021 0.877085 -0.24309)
(0.187122 0.863042 -0.247564)
(0.162172 0.760279 -0.210885)
(0.166801 0.76869 -0.208851)
(0.157991 0.734067 -0.20231)
(0.175019 0.786727 -0.223379)
(0.201825 0.95018 -0.25475)
(0.198174 0.845099 -0.242702)
(0.212922 0.953222 -0.255351)
(0.211221 0.929425 -0.260957)
(0.206183 0.957547 -0.267653)
(0.207233 0.94997 -0.270761)
(0.215734 0.95883 -0.264856)
(0.205891 0.914708 -0.246377)
(0.206791 0.926902 -0.25352)
(0.195163 0.863237 -0.231936)
(0.18794 0.846917 -0.229498)
(0.182155 0.787024 -0.225299)
(0.153612 0.665844 -0.183386)
(0.141615 0.603255 -0.160203)
(0.215009 0.983621 -0.268035)
(0.169508 0.770674 -0.209693)
(0.156734 0.675571 -0.18368)
(0.214498 0.934087 -0.262594)
(0.184352 0.803426 -0.221783)
(0.142353 0.632348 -0.176872)
(0.179684 0.808084 -0.231919)
(0.151953 0.658135 -0.187929)
(0.179313 0.821158 -0.237102)
(0.20417 0.968439 -0.269778)
(0.205835 0.944957 -0.267148)
(0.186979 0.875959 -0.246161)
(0.152366 0.677575 -0.196434)
(0.188879 0.891259 -0.249017)
(0.14504 0.634956 -0.179616)
(0.145052 0.692861 -0.195633)
(0.13504 0.640083 -0.184409)
(0.132437 0.645973 -0.179762)
(0.138818 0.647469 -0.183158)
(0.150841 0.714756 -0.2001)
(0.145995 0.649472 -0.185306)
(0.148677 0.670645 -0.187711)
(0.137793 0.636951 -0.177791)
(0.142909 0.71658 -0.197757)
(0.203254 0.967101 -0.2682)
(0.155635 0.74417 -0.210874)
(0.190487 0.935958 -0.254321)
(0.185821 0.900236 -0.244382)
(0.12382 0.594853 -0.164044)
(0.137625 0.643302 -0.176219)
(0.194981 0.891351 -0.246287)
(0.160778 0.777064 -0.208006)
(0.193643 0.909543 -0.249341)
(0.182677 0.85237 -0.225515)
(0.193745 0.882489 -0.239837)
(0.19557 0.890721 -0.234857)
(0.18837 0.887814 -0.237181)
(0.169905 0.796675 -0.20479)
(0.189988 0.864293 -0.239707)
(0.185433 0.810955 -0.208111)
(0.169814 0.767472 -0.210934)
(0.190034 0.875621 -0.239288)
(0.191583 0.870458 -0.229151)
(0.199119 0.881902 -0.231291)
(0.195169 0.883582 -0.233156)
(0.189564 0.869379 -0.231701)
(0.160811 0.701409 -0.190488)
(0.170269 0.743208 -0.202152)
(0.195784 0.833356 -0.232258)
(0.133268 0.572601 -0.154778)
(0.204766 0.894771 -0.247687)
(0.182045 0.803726 -0.216751)
(0.200691 0.913965 -0.243483)
(0.202597 0.894886 -0.239366)
(0.206141 0.906916 -0.25062)
(0.20646 0.901215 -0.24455)
(0.200084 0.899706 -0.240901)
(0.190519 0.834202 -0.229604)
(0.166142 0.686566 -0.191584)
(0.135736 0.584093 -0.161368)
(0.158965 0.691995 -0.184222)
(0.203507 0.879518 -0.240805)
(0.202534 0.889329 -0.239233)
(0.19566 0.872075 -0.230683)
(0.166819 0.738301 -0.19542)
(0.17889 0.766937 -0.218182)
(0.163894 0.670219 -0.17203)
(0.168264 0.721527 -0.200806)
(0.162665 0.709631 -0.191535)
(0.164547 0.739881 -0.200976)
(0.141418 0.621369 -0.165794)
(0.205519 0.931423 -0.248545)
(0.158309 0.709985 -0.187972)
(0.204164 0.899453 -0.24294)
(0.204048 0.879357 -0.23952)
(0.183579 0.833668 -0.220617)
(0.1418 0.649773 -0.180014)
(0.189188 0.807282 -0.228197)
(0.140169 0.641611 -0.182111)
(0.139903 0.605419 -0.172453)
(0.163969 0.713588 -0.204214)
(0.189229 0.880431 -0.237291)
(0.161562 0.748775 -0.196777)
(0.156668 0.744573 -0.199342)
(0.205443 0.978316 -0.270657)
(0.184696 0.895633 -0.242981)
(0.206774 0.980679 -0.264499)
(0.174085 0.871199 -0.227923)
(0.19731 0.941748 -0.242815)
(0.199003 0.96113 -0.258267)
(0.21451 1.00621 -0.264593)
(0.175283 0.785044 -0.209553)
(0.199602 0.903664 -0.242138)
(0.171091 0.785781 -0.209377)
(0.142444 0.693455 -0.191389)
(0.203703 0.930335 -0.244536)
(0.167553 0.81981 -0.217431)
(0.207126 0.984862 -0.254709)
(0.162502 0.759558 -0.194141)
(0.193029 0.922031 -0.238229)
(0.187412 0.852385 -0.228363)
(0.138567 0.625969 -0.172524)
(0.162381 0.715176 -0.197314)
(0.167871 0.75581 -0.197954)
(0.192055 0.893588 -0.235047)
(0.148271 0.701822 -0.189255)
(0.184864 0.877124 -0.225413)
(0.176141 0.804503 -0.233037)
(0.193055 0.87382 -0.248195)
(0.184511 0.85064 -0.239308)
(0.185432 0.846775 -0.239192)
(0.189026 0.860114 -0.245885)
(0.179725 0.815069 -0.234204)
(0.142273 0.646568 -0.170946)
(0.165239 0.747133 -0.199085)
(0.206432 0.918383 -0.246535)
(0.149324 0.655059 -0.168809)
(0.205633 0.905413 -0.245079)
(0.195489 0.856497 -0.232058)
(0.207357 0.902862 -0.246849)
(0.198687 0.863597 -0.233197)
(0.19723 0.847121 -0.242791)
(0.187704 0.825705 -0.230606)
(0.174069 0.758469 -0.213826)
(0.146704 0.678835 -0.17037)
(0.137015 0.625051 -0.163673)
(0.153559 0.668611 -0.17988)
(0.15032 0.686477 -0.178205)
(0.14457 0.650505 -0.170806)
(0.152754 0.697793 -0.187858)
(0.165297 0.792615 -0.213069)
(0.142704 0.69517 -0.192255)
(0.179622 0.865675 -0.232281)
(0.165178 0.792823 -0.218784)
(0.170027 0.788077 -0.210875)
(0.146216 0.715804 -0.191101)
(0.173363 0.824379 -0.227798)
(0.142736 0.682919 -0.191726)
(0.123607 0.585126 -0.16478)
(0.207792 0.960136 -0.26547)
(0.214817 0.989169 -0.270489)
(0.203969 0.926711 -0.259488)
(0.212881 0.98228 -0.272435)
(0.208775 0.984248 -0.270569)
(0.209708 0.993023 -0.272435)
(0.212778 0.964675 -0.27148)
(0.204688 0.942448 -0.261764)
(0.212652 0.981973 -0.266173)
(0.214277 1.00315 -0.269027)
(0.215001 0.98804 -0.267949)
(0.214573 0.989013 -0.267702)
(0.148533 0.64474 -0.173253)
(0.154297 0.650988 -0.168307)
(0.175241 0.820281 -0.227026)
(0.199152 0.908814 -0.246926)
(0.198975 0.924017 -0.249084)
(0.205824 0.935536 -0.258508)
(0.203253 0.932058 -0.258928)
(0.141805 0.671206 -0.185781)
(0.161752 0.737626 -0.216443)
(0.142011 0.662112 -0.187059)
(0.183511 0.840883 -0.232881)
(0.154644 0.738166 -0.21017)
(0.154373 0.738006 -0.215613)
(0.186986 0.862263 -0.239081)
(0.123099 0.617318 -0.173676)
(0.19544 0.90626 -0.250411)
(0.135493 0.625975 -0.181238)
(0.169069 0.776157 -0.221454)
(0.13915 0.708615 -0.195423)
(0.161972 0.745792 -0.210876)
(0.161729 0.734969 -0.21114)
(0.177799 0.81007 -0.231923)
(0.162305 0.715265 -0.203325)
(0.14824 0.655057 -0.182171)
(0.164515 0.72879 -0.207869)
(0.14797 0.62265 -0.179498)
(0.147111 0.69479 -0.184241)
(0.145727 0.669617 -0.183192)
(0.136619 0.6535 -0.181906)
(0.123619 0.605394 -0.158729)
(0.148407 0.652188 -0.184378)
(0.165754 0.772318 -0.218307)
(0.190099 0.889746 -0.247369)
(0.16738 0.787412 -0.220529)
(0.157476 0.740959 -0.207149)
(0.183111 0.787964 -0.221448)
(0.193977 0.867667 -0.246351)
(0.192803 0.841032 -0.239004)
(0.196434 0.874164 -0.247084)
(0.197289 0.845107 -0.242736)
(0.197072 0.861516 -0.244101)
(0.196817 0.871956 -0.247171)
(0.177437 0.819705 -0.212233)
(0.165998 0.751287 -0.200197)
(0.181719 0.830889 -0.217253)
(0.162856 0.728221 -0.19392)
(0.178678 0.810843 -0.215934)
(0.176988 0.793959 -0.206055)
(0.184106 0.87685 -0.237443)
(0.175115 0.832021 -0.220366)
(0.187106 0.879963 -0.23349)
(0.187527 0.880109 -0.232019)
(0.149366 0.663137 -0.178042)
(0.131572 0.61239 -0.161127)
(0.176977 0.797026 -0.213142)
(0.192582 0.858817 -0.226706)
(0.18539 0.834296 -0.221068)
(0.192179 0.856581 -0.227533)
(0.19541 0.873075 -0.228472)
(0.163581 0.736823 -0.193206)
(0.192822 0.822045 -0.225347)
(0.158958 0.692846 -0.180804)
(0.168764 0.729923 -0.196931)
(0.154502 0.672843 -0.188926)
(0.183078 0.813368 -0.220413)
(0.183789 0.810273 -0.217021)
(0.166759 0.716102 -0.189614)
(0.164509 0.736576 -0.194153)
(0.146658 0.649391 -0.174162)
(0.199474 0.901768 -0.236531)
(0.179251 0.779639 -0.20761)
(0.18974 0.843136 -0.223273)
(0.185226 0.828553 -0.221776)
(0.140163 0.633282 -0.168738)
(0.168251 0.732544 -0.207926)
(0.180619 0.785979 -0.223101)
(0.162124 0.703702 -0.205482)
(0.173027 0.74659 -0.21129)
(0.155044 0.675447 -0.187146)
(0.16351 0.691566 -0.178906)
(0.149455 0.645605 -0.182202)
(0.136493 0.607572 -0.169616)
(0.152927 0.746821 -0.200219)
(0.134594 0.656382 -0.179601)
(0.150329 0.723837 -0.198637)
(0.196482 0.879646 -0.233011)
(0.208841 0.958663 -0.252227)
(0.210547 0.954015 -0.251976)
(0.206542 0.961102 -0.250132)
(0.196357 0.885345 -0.234384)
(0.193206 0.880284 -0.231377)
(0.209355 0.960805 -0.250062)
(0.199396 0.970336 -0.26152)
(0.206057 0.996448 -0.263787)
(0.206663 0.997605 -0.262918)
(0.162558 0.735634 -0.198949)
(0.131901 0.586783 -0.158016)
(0.140218 0.666068 -0.178604)
(0.144721 0.650326 -0.180695)
(0.195546 0.888457 -0.234256)
(0.176611 0.812688 -0.210716)
(0.177199 0.794803 -0.210566)
(0.163444 0.753992 -0.199831)
(0.170589 0.794666 -0.204033)
(0.169183 0.782821 -0.207098)
(0.173085 0.798466 -0.213374)
(0.121963 0.601173 -0.149606)
(0.151142 0.631967 -0.173925)
(0.145682 0.647554 -0.167048)
(0.129435 0.591937 -0.16145)
(0.123743 0.559673 -0.145145)
(0.158335 0.695383 -0.177938)
(0.134749 0.621618 -0.176163)
(0.184533 0.845891 -0.23966)
(0.196674 0.887989 -0.249129)
(0.190133 0.858188 -0.24544)
(0.18113 0.835453 -0.238252)
(0.182657 0.831233 -0.232834)
(0.188322 0.846461 -0.237278)
(0.180217 0.817972 -0.230242)
(0.194035 0.917301 -0.253674)
(0.186307 0.887685 -0.247963)
(0.178877 0.836826 -0.231594)
(0.179104 0.844321 -0.235441)
(0.185216 0.87182 -0.244707)
(0.148999 0.704957 -0.207762)
(0.192117 0.887273 -0.250342)
(0.156872 0.738699 -0.207926)
(0.169823 0.796311 -0.22587)
(0.148087 0.715695 -0.208719)
(0.155711 0.718826 -0.20396)
(0.14566 0.673255 -0.191089)
(0.14376 0.695107 -0.188801)
(0.193975 0.877058 -0.2486)
(0.161518 0.728352 -0.204666)
(0.177039 0.849329 -0.23432)
(0.167439 0.789993 -0.224886)
(0.162387 0.727969 -0.202321)
(0.167918 0.763929 -0.224046)
(0.197644 0.906909 -0.255472)
(0.179482 0.805883 -0.229221)
(0.199101 0.930325 -0.259493)
(0.200813 0.919251 -0.257416)
(0.194712 0.901329 -0.250561)
(0.192917 0.877945 -0.248172)
(0.201589 0.926774 -0.259643)
(0.152002 0.6909 -0.195838)
(0.197052 0.896194 -0.252092)
(0.16455 0.773764 -0.224879)
(0.187401 0.845335 -0.241774)
(0.175221 0.78356 -0.228344)
(0.179345 0.799668 -0.229266)
(0.145203 0.706351 -0.188766)
(0.189956 0.854348 -0.240315)
(0.149167 0.678489 -0.193309)
(0.16687 0.753071 -0.205707)
(0.127747 0.596499 -0.169517)
(0.193303 0.882058 -0.250529)
(0.199018 0.908752 -0.256695)
(0.194121 0.889013 -0.254426)
(0.18666 0.847285 -0.237822)
(0.203836 0.913832 -0.259971)
(0.200728 0.911094 -0.255967)
(0.178639 0.836418 -0.237785)
(0.139324 0.630747 -0.17464)
(0.180098 0.82904 -0.232191)
(0.133441 0.633267 -0.171904)
(0.141682 0.68858 -0.184159)
(0.173254 0.802411 -0.215456)
(0.157635 0.733431 -0.195529)
(0.152254 0.689155 -0.188325)
(0.165168 0.702716 -0.189193)
(0.20883 0.910029 -0.25488)
(0.15847 0.698894 -0.197144)
(0.19066 0.828506 -0.23751)
(0.18319 0.781879 -0.227622)
(0.183886 0.803392 -0.230908)
(0.182338 0.803241 -0.231772)
(0.181841 0.787933 -0.214476)
(0.166709 0.710307 -0.195287)
(0.181918 0.770497 -0.21274)