/*--------------------------------*- C++ -*----------------------------------*\
| =========                 |                                                 |
| \\      /  F ield         | OpenFOAM: The Open Source CFD Toolbox           |
|  \\    /   O peration     | Version:  v1612+                                |
|   \\  /    A nd           | Web:      www.OpenFOAM.com                      |
|    \\/     M anipulation  |                                                 |
\*---------------------------------------------------------------------------*/
FoamFile
{
    version     2.0;
    format      ascii;
    class       volVectorField;
    location    "100";
    object      wallShearStress;
}
// * * * * * * * * * * * * * * * * * * * * * * * * * * * * * * * * * * * * * //

dimensions      [0 2 -2 0 0 0 0];

internalField   uniform (0 0 0);

boundaryField
{
    WALL
    {
        type            calculated;
        value           nonuniform List<vector> 
1513
(
(-0.00327392 -0.0148338 0.00415062)
(-0.00296519 -0.0139776 0.00401594)
(-0.00309753 -0.0146747 0.00402813)
(-0.00310837 -0.0143683 0.00398497)
(-0.00327077 -0.015615 0.00442687)
(-0.00358029 -0.0156457 0.00417576)
(-0.00347384 -0.0153125 0.00419755)
(-0.00332437 -0.0150343 0.00420838)
(-0.00330948 -0.0145479 0.00416208)
(-0.00326604 -0.0146972 0.00408656)
(-0.00329284 -0.0146254 0.00392677)
(-0.00322011 -0.0146208 0.00415233)
(-0.00311064 -0.0141882 0.00391816)
(-0.00317511 -0.0145472 0.00401628)
(-0.00336033 -0.015446 0.00446357)
(-0.00337756 -0.0151402 0.00416409)
(-0.00356596 -0.014836 0.00395089)
(-0.00315322 -0.0145937 0.00398846)
(-0.00318928 -0.0146221 0.00388928)
(-0.00333329 -0.014823 0.00403517)
(-0.00326689 -0.014728 0.00417077)
(-0.00301106 -0.0140556 0.00371554)
(-0.00333071 -0.0145417 0.00394668)
(-0.00307878 -0.0144489 0.00399652)
(-0.0032177 -0.0144009 0.00392003)
(-0.00318492 -0.0144319 0.00394033)
(-0.00327924 -0.0145143 0.00393586)
(-0.0030071 -0.0140752 0.00360549)
(-0.00330166 -0.0148822 0.00390618)
(-0.00317982 -0.0145011 0.00401788)
(-0.00329455 -0.0147197 0.00423748)
(-0.00324588 -0.0143555 0.00402808)
(-0.00338535 -0.0151646 0.00428597)
(-0.00332121 -0.0148396 0.00396749)
(-0.0031982 -0.0149169 0.00404075)
(-0.00356412 -0.0146289 0.0040139)
(-0.00322601 -0.0149043 0.00406721)
(-0.00309025 -0.013871 0.00395703)
(-0.0032176 -0.0140196 0.00423372)
(-0.00298817 -0.013523 0.00389603)
(-0.00296485 -0.0138241 0.00389606)
(-0.00330599 -0.0139643 0.00367727)
(-0.0030858 -0.0137116 0.0035441)
(-0.00269752 -0.0142565 0.00397717)
(-0.00293391 -0.0144396 0.00397236)
(-0.00309307 -0.0144522 0.00403513)
(-0.00327869 -0.0142228 0.00387067)
(-0.00331318 -0.0148738 0.0039083)
(-0.00341403 -0.0145059 0.00373241)
(-0.00343822 -0.0149187 0.00392641)
(-0.00333042 -0.0152891 0.00409991)
(-0.00324161 -0.0147803 0.00401867)
(-0.00311494 -0.0136699 0.00362432)
(-0.00303276 -0.0137425 0.0037055)
(-0.00336614 -0.0153599 0.00423231)
(-0.00334124 -0.0149158 0.00408578)
(-0.00332494 -0.0153393 0.00433096)
(-0.00339469 -0.0148156 0.00397299)
(-0.00308072 -0.0149127 0.00403615)
(-0.0035904 -0.0151657 0.00426718)
(-0.00324157 -0.0151062 0.00435899)
(-0.00350511 -0.015155 0.00411124)
(-0.00335628 -0.0152396 0.00422702)
(-0.00372991 -0.0153255 0.00403507)
(-0.00332108 -0.0153342 0.00423945)
(-0.00344648 -0.01522 0.00436947)
(-0.00333369 -0.0146485 0.00401347)
(-0.00332306 -0.0144401 0.0039773)
(-0.00315803 -0.0144817 0.00417995)
(-0.00325 -0.0144445 0.00397001)
(-0.00332017 -0.0147214 0.00413352)
(-0.0030735 -0.0144202 0.00428354)
(-0.00306844 -0.0141287 0.00402831)
(-0.00298222 -0.0142098 0.00411732)
(-0.0031965 -0.0139234 0.00389854)
(-0.00302927 -0.0148096 0.00409928)
(-0.00317172 -0.0144319 0.00391232)
(-0.00295776 -0.0148556 0.0040796)
(-0.00354639 -0.0151375 0.00451492)
(-0.00303436 -0.0143513 0.00396572)
(-0.00338699 -0.0145468 0.00410059)
(-0.00331538 -0.0144412 0.00394976)
(-0.00323426 -0.0144603 0.00389626)
(-0.00311592 -0.013953 0.00388634)
(-0.00338573 -0.0147977 0.00412492)
(-0.00346524 -0.014379 0.00391776)
(-0.00335742 -0.0145349 0.00397929)
(-0.00326151 -0.0141118 0.00394586)
(-0.00314819 -0.0146452 0.00401575)
(-0.00302178 -0.0152544 0.00424574)
(-0.0033925 -0.0149854 0.0042321)
(-0.00312845 -0.0147714 0.00411172)
(-0.00323822 -0.0137675 0.00378084)
(-0.00349667 -0.0152862 0.00420606)
(-0.0031175 -0.014005 0.00387123)
(-0.00391538 -0.0144175 0.00416875)
(-0.00320348 -0.0141953 0.00382686)
(-0.00302294 -0.0139251 0.00390818)
(-0.00323358 -0.0136487 0.00372769)
(-0.0030911 -0.0137329 0.00377325)
(-0.0034151 -0.0142259 0.00376773)
(-0.00318037 -0.0140735 0.00385797)
(-0.00300673 -0.013676 0.00381186)
(-0.00308771 -0.0142003 0.00398012)
(-0.00310214 -0.0142623 0.0040408)
(-0.00296903 -0.0139789 0.00400007)
(-0.00300575 -0.0141106 0.00399834)
(-0.00316158 -0.0145525 0.00416189)
(-0.00304659 -0.0141158 0.00388436)
(-0.00319689 -0.0144818 0.00396737)
(-0.00321473 -0.0147739 0.00422502)
(-0.00332851 -0.0143955 0.00375794)
(-0.00330198 -0.0143074 0.00380789)
(-0.00342988 -0.0150683 0.00418864)
(-0.0032465 -0.0141248 0.00376416)
(-0.00301512 -0.014268 0.0039953)
(-0.00322971 -0.0145452 0.00398165)
(-0.00306982 -0.0140856 0.00391396)
(-0.00327553 -0.0140994 0.00373691)
(-0.00314175 -0.0144298 0.00399479)
(-0.0033306 -0.0143542 0.00377275)
(-0.00321872 -0.0138279 0.00399423)
(-0.00322909 -0.014126 0.003581)
(-0.0029651 -0.013364 0.00371689)
(-0.00319386 -0.0138658 0.00388295)
(-0.00336313 -0.0142873 0.00397637)
(-0.00295476 -0.0141239 0.00404636)
(-0.00324456 -0.0140232 0.00375884)
(-0.00323376 -0.0139534 0.00380846)
(-0.00302806 -0.0139605 0.00405853)
(-0.0032426 -0.0140685 0.00386261)
(-0.00308115 -0.0141297 0.0040765)
(-0.00291595 -0.0135678 0.00379926)
(-0.00292692 -0.013825 0.00392344)
(-0.00301678 -0.0136036 0.00359577)
(-0.00288616 -0.013497 0.00386702)
(-0.00311089 -0.0135265 0.00349417)
(-0.00300704 -0.0140161 0.003895)
(-0.00283368 -0.0140411 0.00368814)
(-0.00300981 -0.0139006 0.00381861)
(-0.0030353 -0.0135174 0.00374051)
(-0.00312397 -0.0140675 0.00400687)
(-0.00275142 -0.0136358 0.0037112)
(-0.00299792 -0.0137433 0.00370722)
(-0.00326327 -0.0142535 0.00405388)
(-0.00335174 -0.0147545 0.00419359)
(-0.00280276 -0.014202 0.00378952)
(-0.00317513 -0.014085 0.0039521)
(-0.00307498 -0.014272 0.00388549)
(-0.00280413 -0.0141813 0.00367447)
(-0.00289682 -0.0134651 0.00361302)
(-0.00297298 -0.0137638 0.0037529)
(-0.00328713 -0.0135374 0.00375175)
(-0.00307519 -0.0139899 0.0038945)
(-0.00335206 -0.0139615 0.00389122)
(-0.00339793 -0.0139212 0.00379524)
(-0.00279637 -0.013802 0.00399911)
(-0.00302405 -0.0139377 0.00387285)
(-0.00286224 -0.0136751 0.00379946)
(-0.00277662 -0.0137412 0.00383311)
(-0.00297898 -0.0142507 0.00398745)
(-0.0029359 -0.0139053 0.0038892)
(-0.00288573 -0.013562 0.00371295)
(-0.0030414 -0.0135258 0.00361322)
(-0.00308845 -0.0138908 0.00379432)
(-0.00307848 -0.013729 0.00378944)
(-0.00287816 -0.0136165 0.00381278)
(-0.00313475 -0.0134788 0.00358458)
(-0.00314937 -0.0143731 0.00392598)
(-0.00306581 -0.0137625 0.00389228)
(-0.00315642 -0.0141412 0.00402942)
(-0.00305142 -0.0146077 0.00397416)
(-0.00326251 -0.0140526 0.00391738)
(-0.00306109 -0.0138225 0.00386969)
(-0.00308429 -0.0144447 0.00419634)
(-0.00317251 -0.0142879 0.00410085)
(-0.00305149 -0.0138215 0.00386077)
(-0.00327193 -0.0147262 0.0040147)
(-0.00316271 -0.014488 0.00389204)
(-0.00313961 -0.0146175 0.0040679)
(-0.00358958 -0.0152528 0.00417721)
(-0.00325105 -0.0145608 0.00385644)
(-0.00341328 -0.0148209 0.00392101)
(-0.00356626 -0.0154224 0.00418756)
(-0.00366371 -0.0156303 0.00399467)
(-0.00341313 -0.0152113 0.00394316)
(-0.00350795 -0.0146117 0.00380933)
(-0.00334393 -0.0147914 0.00395665)
(-0.00343134 -0.014894 0.00427702)
(-0.0034405 -0.0151765 0.00420399)
(-0.00322207 -0.0149904 0.00427109)
(-0.00342909 -0.0151703 0.00416048)
(-0.00352053 -0.0155596 0.00421003)
(-0.00328768 -0.0150778 0.00414877)
(-0.00345328 -0.0159682 0.00435621)
(-0.00339152 -0.0154328 0.00397715)
(-0.00339122 -0.0152426 0.0042831)
(-0.0036686 -0.0159633 0.004772)
(-0.0032336 -0.0152185 0.00442565)
(-0.00360413 -0.0154109 0.00464306)
(-0.00369026 -0.0159386 0.00442025)
(-0.00360486 -0.0162003 0.00453038)
(-0.00337556 -0.015345 0.00436885)
(-0.00335972 -0.0150326 0.00419072)
(-0.00337681 -0.015265 0.00430839)
(-0.0034258 -0.0148992 0.0041897)
(-0.00345086 -0.0150917 0.00423326)
(-0.00345532 -0.0150459 0.00433695)
(-0.00333845 -0.0153641 0.00425158)
(-0.00391169 -0.0159001 0.00443029)
(-0.00345494 -0.0155326 0.00416911)
(-0.00369723 -0.0155676 0.00425431)
(-0.00354177 -0.0158174 0.00431471)
(-0.00332919 -0.0154956 0.00425073)
(-0.00334504 -0.01516 0.00412431)
(-0.00367927 -0.0160524 0.00435662)
(-0.00340869 -0.015602 0.0044551)
(-0.00330891 -0.0154743 0.00429182)
(-0.00346346 -0.0155869 0.00430605)
(-0.00325854 -0.0150393 0.0041442)
(-0.00371621 -0.0159283 0.00436303)
(-0.00317527 -0.0147697 0.00406894)
(-0.00310523 -0.0145603 0.0040341)
(-0.00359066 -0.015462 0.00411124)
(-0.00322759 -0.0147159 0.00399179)
(-0.00319361 -0.0149311 0.00413402)
(-0.00311537 -0.0145392 0.0040409)
(-0.00357137 -0.015672 0.00428908)
(-0.00342474 -0.0156581 0.00446689)
(-0.00349511 -0.0154693 0.00428917)
(-0.0032267 -0.0156949 0.00454904)
(-0.00360617 -0.0156302 0.00419177)
(-0.0034628 -0.0155812 0.00423311)
(-0.00342105 -0.0155217 0.00438034)
(-0.00315095 -0.0151901 0.00428814)
(-0.00330615 -0.0155038 0.00437828)
(-0.00330402 -0.0152662 0.0041767)
(-0.00340956 -0.0150504 0.00417073)
(-0.00321828 -0.0151031 0.00428817)
(-0.00331335 -0.0149609 0.00409116)
(-0.00339378 -0.0152554 0.00420396)
(-0.00325993 -0.0150019 0.00414728)
(-0.00326709 -0.0147665 0.00405699)
(-0.00351444 -0.0148935 0.00416089)
(-0.00323936 -0.0143076 0.00400069)
(-0.00322373 -0.0147976 0.00415855)
(-0.00340916 -0.0146502 0.00396327)
(-0.00343648 -0.0147827 0.00398718)
(-0.0033954 -0.0149488 0.00408513)
(-0.00327986 -0.0151583 0.00421112)
(-0.00324266 -0.014668 0.00404454)
(-0.00343407 -0.0149912 0.00405594)
(-0.00314879 -0.014993 0.00432251)
(-0.00342473 -0.0148652 0.0040029)
(-0.00301222 -0.0150287 0.0043584)
(-0.00340121 -0.0149547 0.00406539)
(-0.0031989 -0.014583 0.00400776)
(-0.00330376 -0.0150375 0.00412449)
(-0.00339242 -0.0146403 0.0039738)
(-0.00342388 -0.0149459 0.00412468)
(-0.0033757 -0.0147228 0.00400054)
(-0.00335522 -0.0147316 0.0040557)
(-0.00333606 -0.0163069 0.00450893)
(-0.0032868 -0.0162128 0.00437924)
(-0.00364277 -0.0157376 0.00438283)
(-0.00315942 -0.0155863 0.00417838)
(-0.00354316 -0.0153468 0.00430599)
(-0.00354774 -0.0154771 0.00433359)
(-0.00301807 -0.0146688 0.00376565)
(-0.00297084 -0.0142951 0.00385487)
(-0.00311014 -0.0138572 0.00363959)
(-0.00308754 -0.0146505 0.00407274)
(-0.0030086 -0.0148136 0.00394001)
(-0.00317671 -0.0144132 0.00409582)
(-0.00293084 -0.0138411 0.00412589)
(-0.00315462 -0.0144016 0.00430959)
(-0.00314389 -0.013964 0.0036558)
(-0.00306161 -0.0144646 0.00435813)
(-0.00305208 -0.0144721 0.00407498)
(-0.00326045 -0.0149641 0.0041465)
(-0.0031425 -0.0146197 0.00414854)
(-0.00323024 -0.0144407 0.003768)
(-0.00310956 -0.0139162 0.00393155)
(-0.00327023 -0.014356 0.00390801)
(-0.00322809 -0.015156 0.0042253)
(-0.00295246 -0.013658 0.00379746)
(-0.00297333 -0.0134464 0.00357131)
(-0.0030532 -0.013553 0.00362715)
(-0.00308464 -0.0140027 0.00367137)
(-0.00312185 -0.0138276 0.00371483)
(-0.00324919 -0.0139075 0.00363871)
(-0.00298681 -0.0144876 0.00394849)
(-0.00292783 -0.0132932 0.00359853)
(-0.00327309 -0.0140582 0.00358729)
(-0.00311738 -0.0146346 0.0041179)
(-0.00323189 -0.014508 0.00412487)
(-0.00333071 -0.0145173 0.0039699)
(-0.00331246 -0.0145185 0.00411627)
(-0.00322922 -0.0151075 0.00406929)
(-0.00311084 -0.0146959 0.00411549)
(-0.00328516 -0.0148218 0.00399832)
(-0.00321745 -0.0144557 0.00421724)
(-0.00287919 -0.013728 0.00386274)
(-0.00272821 -0.013443 0.00383389)
(-0.00300823 -0.0134228 0.00367171)
(-0.00302438 -0.0139111 0.00373346)
(-0.00282023 -0.0135052 0.00393183)
(-0.00319663 -0.0139284 0.00374809)
(-0.00307664 -0.0142148 0.00391353)
(-0.00303669 -0.0141771 0.00392439)
(-0.00318137 -0.0143511 0.00390585)
(-0.00317209 -0.0144035 0.00396997)
(-0.00321433 -0.0141753 0.00392643)
(-0.00307104 -0.0144484 0.00398952)
(-0.00329516 -0.0147299 0.00400888)
(-0.00316602 -0.014449 0.00400543)
(-0.00323624 -0.0145481 0.0039572)
(-0.00300795 -0.0145839 0.00409258)
(-0.00291821 -0.0146783 0.00411869)
(-0.00321887 -0.0148053 0.00398284)
(-0.00321302 -0.0145119 0.00396508)
(-0.00311729 -0.0143569 0.00394851)
(-0.00328602 -0.0144131 0.00387087)
(-0.00331339 -0.0144231 0.00368901)
(-0.00323918 -0.0146252 0.00406726)
(-0.0031189 -0.0143505 0.00408595)
(-0.00302728 -0.0144465 0.00399648)
(-0.00317307 -0.0147296 0.00418295)
(-0.0030318 -0.0141138 0.00387559)
(-0.00315941 -0.0142115 0.00391642)
(-0.00308298 -0.0144136 0.00393625)
(-0.00319457 -0.0142105 0.00389631)
(-0.00318057 -0.0142647 0.00379906)
(-0.00311396 -0.0141568 0.00391251)
(-0.00333047 -0.0152895 0.00390108)
(-0.00327696 -0.0155954 0.0042036)
(-0.00341409 -0.0157788 0.00423253)
(-0.00347205 -0.0152323 0.00401051)
(-0.00344676 -0.0155874 0.00430101)
(-0.00335037 -0.0156563 0.00422953)
(-0.00344756 -0.0159322 0.00441647)
(-0.00316664 -0.0152469 0.00440823)
(-0.00331791 -0.015596 0.00426284)
(-0.00346685 -0.015496 0.00405006)
(-0.00347847 -0.0157339 0.00420361)
(-0.00367599 -0.0152832 0.00403491)
(-0.00345689 -0.015697 0.00424315)
(-0.00361223 -0.0154756 0.00407955)
(-0.00357094 -0.0152018 0.00414925)
(-0.00355794 -0.0154492 0.00422944)
(-0.00340523 -0.0155471 0.00426729)
(-0.00329729 -0.0151582 0.00418821)
(-0.00309313 -0.0153285 0.00392365)
(-0.00288094 -0.0152237 0.00369514)
(-0.00316869 -0.0147222 0.00390773)
(-0.0033147 -0.0145346 0.00408759)
(-0.00331419 -0.0149423 0.004196)
(-0.00357093 -0.0155487 0.00465539)
(-0.0037907 -0.0156997 0.00458939)
(-0.00378878 -0.0162411 0.00464662)
(-0.00363644 -0.0155395 0.00432755)
(-0.00361576 -0.0160139 0.00451423)
(-0.00344601 -0.0153687 0.00413607)
(-0.00338924 -0.0152398 0.00385453)
(-0.00311016 -0.0146582 0.00380792)
(-0.00339975 -0.0146305 0.00416677)
(-0.00281289 -0.015048 0.00383935)
(-0.00317579 -0.0156694 0.00420546)
(-0.00327164 -0.0148225 0.00406222)
(-0.00337401 -0.0155195 0.00448517)
(-0.00348567 -0.0150891 0.00411927)
(-0.0032454 -0.015141 0.00440282)
(-0.00308478 -0.0141653 0.00398212)
(-0.00319858 -0.0155022 0.00419389)
(-0.00329866 -0.0151821 0.0045488)
(-0.00354108 -0.0152871 0.00417131)
(-0.00326938 -0.0147199 0.0042607)
(-0.00322441 -0.0145228 0.00422514)
(-0.00332536 -0.0146158 0.00426526)
(-0.00322041 -0.0145555 0.00398793)
(-0.00328237 -0.0144674 0.00404798)
(-0.00355128 -0.0157631 0.00435337)
(-0.00346435 -0.0156089 0.00431303)
(-0.00332231 -0.0155794 0.00425873)
(-0.00368654 -0.0162212 0.00444014)
(-0.00351849 -0.0158813 0.00439123)
(-0.00349689 -0.0157919 0.00430398)
(-0.00361519 -0.0161488 0.00435266)
(-0.00352655 -0.0152449 0.00427462)
(-0.00337137 -0.0160955 0.00427109)
(-0.00330099 -0.0155579 0.00415002)
(-0.00331123 -0.0160836 0.00413708)
(-0.00353486 -0.0156876 0.0043436)
(-0.00294998 -0.0142732 0.00369959)
(-0.00343673 -0.0143667 0.00385186)
(-0.0029522 -0.013507 0.00354116)
(-0.00336495 -0.0147496 0.00398692)
(-0.00305397 -0.0142241 0.00376504)
(-0.00281301 -0.0143466 0.00370138)
(-0.00329061 -0.0151179 0.00401124)
(-0.00336967 -0.0152978 0.0042531)
(-0.00332752 -0.015386 0.00431426)
(-0.00316551 -0.0148404 0.00416393)
(-0.00323913 -0.0151406 0.00422532)
(-0.00343793 -0.0148999 0.00405208)
(-0.00329947 -0.0153048 0.00426774)
(-0.00329546 -0.0146313 0.00415176)
(-0.00335977 -0.0144565 0.00379346)
(-0.00351859 -0.0150957 0.00377466)
(-0.00365424 -0.0154029 0.00407391)
(-0.00334089 -0.0150017 0.0042277)
(-0.00331545 -0.0149601 0.00417615)
(-0.00261383 -0.0140782 0.00409143)
(-0.00309985 -0.0144847 0.00392804)
(-0.00326911 -0.014554 0.00385779)
(-0.00351123 -0.0155269 0.00445703)
(-0.0033529 -0.0141601 0.00377891)
(-0.00322898 -0.0145756 0.00397913)
(-0.00328255 -0.0142768 0.00394381)
(-0.00311052 -0.0144618 0.00388679)
(-0.00340662 -0.0147866 0.00423548)
(-0.00327086 -0.014732 0.00401085)
(-0.00306875 -0.0141054 0.00392258)
(-0.00331302 -0.0145346 0.0039994)
(-0.00329195 -0.0141618 0.00382691)
(-0.0034181 -0.0145153 0.00403333)
(-0.00304114 -0.0146911 0.0040445)
(-0.00320217 -0.01417 0.00391575)
(-0.00339206 -0.0143541 0.0042565)
(-0.00328053 -0.0147671 0.00391965)
(-0.00343875 -0.0153349 0.00409681)
(-0.00388275 -0.0143644 0.0044956)
(-0.00349496 -0.0144725 0.00407782)
(-0.00325993 -0.014829 0.00373506)
(-0.00332441 -0.013847 0.00428368)
(-0.00272103 -0.0133669 0.00335511)
(-0.0029037 -0.0137588 0.00316503)
(-0.00319849 -0.0139586 0.00410428)
(-0.00272521 -0.0137906 0.00346228)
(-0.00300758 -0.0139976 0.0037262)
(-0.00301314 -0.0140495 0.00376428)
(-0.00295891 -0.0136089 0.00364135)
(-0.00294879 -0.0135872 0.00355858)
(-0.00287609 -0.0134794 0.0035138)
(-0.0029644 -0.0140341 0.003757)
(-0.00285637 -0.0130529 0.00345473)
(-0.00279494 -0.0146026 0.00384225)
(-0.0030383 -0.0143971 0.00392702)
(-0.00355819 -0.0147843 0.00418539)
(-0.00333368 -0.0148566 0.00412694)
(-0.00318118 -0.0143446 0.00389811)
(-0.00314281 -0.0143082 0.00402537)
(-0.00327805 -0.0143263 0.00405279)
(-0.00309854 -0.0139959 0.00387333)
(-0.00359433 -0.0141626 0.003863)
(-0.00335302 -0.0150137 0.00409825)
(-0.00302331 -0.0139458 0.00374104)
(-0.00293294 -0.0142178 0.00387724)
(-0.002782 -0.0144382 0.00386711)
(-0.00272139 -0.0137632 0.00356196)
(-0.00281805 -0.013396 0.00363274)
(-0.00314218 -0.0138819 0.00383366)
(-0.00270048 -0.0137957 0.00359012)
(-0.00321714 -0.0140988 0.00396885)
(-0.00291081 -0.0146654 0.00378221)
(-0.00283536 -0.0140252 0.00375131)
(-0.00276204 -0.0134198 0.00373902)
(-0.00313212 -0.0137356 0.00348841)
(-0.00306933 -0.0143062 0.00412068)
(-0.00297665 -0.0131291 0.00383579)
(-0.00297944 -0.0137891 0.0037689)
(-0.00279183 -0.0129464 0.00331464)
(-0.00314787 -0.0156135 0.00384635)
(-0.00285685 -0.0139651 0.00370551)
(-0.00303347 -0.0141803 0.00369385)
(-0.00313695 -0.0142834 0.00461963)
(-0.00340977 -0.0142745 0.0043499)
(-0.00301283 -0.0144858 0.00372348)
(-0.00275812 -0.0136751 0.00347012)
(-0.00299493 -0.0133665 0.00364418)
(-0.00326294 -0.0139509 0.00381255)
(-0.00279668 -0.0138846 0.00347895)
(-0.00295476 -0.0145247 0.00369801)
(-0.00310598 -0.0139021 0.00381467)
(-0.00290824 -0.0142358 0.00367477)
(-0.00303609 -0.0136428 0.00377813)
(-0.00305675 -0.0143491 0.0037751)
(-0.00296915 -0.01466 0.00366122)
(-0.00331778 -0.0139962 0.00388218)
(-0.0029694 -0.0141656 0.00373285)
(-0.00322465 -0.0140719 0.00401793)
(-0.00334491 -0.0147836 0.00419314)
(-0.00304962 -0.0137062 0.0038522)
(-0.00286531 -0.0137237 0.00368436)
(-0.00301766 -0.014392 0.00376971)
(-0.00319329 -0.0144734 0.00406128)
(-0.00306904 -0.01492 0.00417643)
(-0.00336043 -0.0148529 0.00409614)
(-0.00328487 -0.0146424 0.00402696)
(-0.00323147 -0.0148472 0.00420354)
(-0.0033778 -0.0151584 0.0041456)
(-0.00330396 -0.0152682 0.00427295)
(-0.00322892 -0.0150506 0.00443277)
(-0.00354814 -0.0154473 0.00409435)
(-0.00331484 -0.0154699 0.00440319)
(-0.00312535 -0.0151338 0.00447844)
(-0.00348692 -0.0150566 0.00404437)
(-0.00298821 -0.0134034 0.00332453)
(-0.00308672 -0.0133982 0.00352044)
(-0.0029521 -0.0136774 0.00358054)
(-0.00285121 -0.013794 0.00370499)
(-0.0029728 -0.0136562 0.00367679)
(-0.00300223 -0.0146615 0.00429234)
(-0.00325737 -0.0145179 0.00407499)
(-0.00328014 -0.0148439 0.00419671)
(-0.00320719 -0.01444 0.00436948)
(-0.00324598 -0.0144832 0.00441379)
(-0.00323052 -0.0146267 0.0040972)
(-0.00313685 -0.0145068 0.00411692)
(-0.00326001 -0.0145986 0.00389855)
(-0.00352981 -0.0149079 0.00412751)
(-0.00348382 -0.0149991 0.00403876)
(-0.00331974 -0.0147014 0.00378525)
(-0.00376704 -0.0158301 0.00444347)
(-0.00361879 -0.0152866 0.00410917)
(-0.00336423 -0.0154557 0.00430919)
(-0.00342323 -0.0151868 0.00425119)
(-0.00336579 -0.0150071 0.00420852)
(-0.00320677 -0.0151274 0.00401241)
(-0.00314564 -0.015292 0.00402638)
(-0.00355775 -0.0161222 0.00442202)
(-0.00319578 -0.0151665 0.00415051)
(-0.00347259 -0.0152108 0.00435393)
(-0.00315496 -0.0149665 0.00398541)
(-0.00329853 -0.0150775 0.00379675)
(-0.00340143 -0.0152842 0.00415344)
(-0.0033867 -0.0155963 0.00416262)
(-0.00333052 -0.0148824 0.00428379)
(-0.0033431 -0.014825 0.00413095)
(-0.0029338 -0.0145227 0.00385693)
(-0.00352086 -0.015303 0.00420519)
(-0.00322504 -0.0152123 0.00439665)
(-0.00331139 -0.0154743 0.00418899)
(-0.00308562 -0.0146929 0.00396232)
(-0.0031216 -0.0141318 0.00398931)
(-0.00342769 -0.0148622 0.00428261)
(-0.00339482 -0.0147345 0.00413299)
(-0.00316824 -0.0153808 0.00403786)
(-0.00300341 -0.0143715 0.004041)
(-0.00323378 -0.0146539 0.00408233)
(-0.00321808 -0.0149278 0.0040994)
(-0.00330168 -0.0154818 0.00418131)
(-0.0036114 -0.0157788 0.00434661)
(-0.00294857 -0.0145949 0.00384459)
(-0.00288178 -0.014481 0.00357714)
(-0.00294155 -0.0142466 0.0036453)
(-0.00265866 -0.014019 0.00350679)
(-0.00315887 -0.0140821 0.00399977)
(-0.00306633 -0.0140892 0.00378146)
(-0.00305079 -0.0142622 0.00403178)
(-0.00307957 -0.0138908 0.00389802)
(-0.00321758 -0.0146878 0.00394251)
(-0.00304818 -0.0137719 0.00380828)
(-0.00323732 -0.0150124 0.00388406)
(-0.00330548 -0.0144177 0.00387344)
(-0.00316079 -0.0138845 0.00385403)
(-0.00325576 -0.0141733 0.00387027)
(-0.00340143 -0.0146675 0.00397156)
(-0.00313736 -0.0143035 0.00408749)
(-0.00336314 -0.0143238 0.00396852)
(-0.00285142 -0.0142153 0.00377466)
(-0.00278095 -0.0142621 0.00387208)
(-0.00336606 -0.015024 0.00412431)
(-0.00325199 -0.0146058 0.00450585)
(-0.00299249 -0.0156555 0.00433053)
(-0.00295624 -0.0140115 0.00397536)
(-0.00306959 -0.0145047 0.00375055)
(-0.00296191 -0.0139768 0.00345931)
(-0.00342945 -0.0156368 0.00452107)
(-0.00320867 -0.0148946 0.0037559)
(-0.00321016 -0.014474 0.00425043)
(-0.00286312 -0.0143022 0.00355677)
(-0.00309604 -0.01376 0.003963)
(-0.00321917 -0.0138038 0.00396497)
(-0.00321286 -0.0151518 0.00391079)
(-0.00317784 -0.0153584 0.00387768)
(-0.00333953 -0.0144317 0.0041815)
(-0.00313653 -0.0140926 0.00379797)
(-0.00309603 -0.0142786 0.00391142)
(-0.00320249 -0.0146464 0.00396793)
(-0.00336635 -0.0145229 0.00397736)
(-0.0033541 -0.0143627 0.00407875)
(-0.00326308 -0.014523 0.00439419)
(-0.00313715 -0.0137409 0.00409412)
(-0.00311176 -0.0140536 0.00388579)
(-0.00312247 -0.0143323 0.00399878)
(-0.00318954 -0.0140652 0.00406035)
(-0.00304303 -0.0139811 0.00378005)
(-0.00316208 -0.0139798 0.00378643)
(-0.00316835 -0.0140894 0.00396058)
(-0.00288322 -0.0141873 0.0037843)
(-0.0029273 -0.015078 0.00404902)
(-0.00308794 -0.0144536 0.00394569)
(-0.00282763 -0.0145821 0.00382865)
(-0.00300571 -0.0142914 0.00392184)
(-0.00310354 -0.014235 0.00383701)
(-0.00299082 -0.0147142 0.00401242)
(-0.00315055 -0.0139218 0.00379325)
(-0.00335188 -0.0140776 0.00407003)
(-0.00293054 -0.0139276 0.00375166)
(-0.00320196 -0.0139952 0.00414527)
(-0.00289337 -0.0137369 0.00365956)
(-0.0028933 -0.0138291 0.00378939)
(-0.00285313 -0.0144499 0.00380179)
(-0.00301741 -0.0145788 0.00381169)
(-0.00294575 -0.0147176 0.00390137)
(-0.00320221 -0.0143609 0.00385135)
(-0.00313695 -0.0146383 0.00393714)
(-0.00324201 -0.0148417 0.00412874)
(-0.00282098 -0.0146389 0.00371839)
(-0.00267817 -0.0145822 0.00374368)
(-0.00323061 -0.0144728 0.00403956)
(-0.00307611 -0.0147953 0.00395613)
(-0.00307306 -0.014187 0.00402353)
(-0.00331485 -0.0143364 0.00383703)
(-0.00286979 -0.0140672 0.00393333)
(-0.00332457 -0.0144584 0.00402884)
(-0.00313288 -0.0138683 0.00368254)
(-0.0033152 -0.0145746 0.00397498)
(-0.00313047 -0.0140699 0.00378542)
(-0.00339614 -0.014968 0.00394738)
(-0.00287857 -0.0135646 0.00363981)
(-0.00287902 -0.01357 0.00352407)
(-0.00336952 -0.0142751 0.00398971)
(-0.00328256 -0.0148165 0.00366881)
(-0.00312991 -0.0148782 0.00392166)
(-0.00318577 -0.014142 0.0037622)
(-0.00369316 -0.014788 0.00409462)
(-0.00330456 -0.0149058 0.0041252)
(-0.00316112 -0.0139847 0.00396466)
(-0.0032143 -0.0144207 0.0036961)
(-0.00360236 -0.0153174 0.00399272)
(-0.00330185 -0.01464 0.00381678)
(-0.00326891 -0.0148807 0.00406882)
(-0.00348808 -0.0145199 0.00383582)
(-0.00317692 -0.0135384 0.00362198)
(-0.00315141 -0.0140322 0.00341124)
(-0.00289016 -0.0132038 0.00361085)
(-0.00335194 -0.0152182 0.00403807)
(-0.00332695 -0.0138786 0.00422276)
(-0.00319931 -0.0138279 0.00375128)
(-0.00304201 -0.0138018 0.00389619)
(-0.00330428 -0.01427 0.00398555)
(-0.00316495 -0.0141589 0.00396997)
(-0.00359752 -0.0147396 0.0042536)
(-0.00364944 -0.0148931 0.00418999)
(-0.00312257 -0.0138369 0.00365253)
(-0.00318802 -0.0148537 0.00402508)
(-0.00322858 -0.0141194 0.0041859)
(-0.00323335 -0.0147427 0.00381112)
(-0.00313311 -0.014249 0.00375829)
(-0.003025 -0.0139987 0.00373656)
(-0.00312036 -0.0145035 0.00394547)
(-0.00339936 -0.015059 0.00407825)
(-0.0033639 -0.014238 0.00358693)
(-0.00321399 -0.0143124 0.00397659)
(-0.00321796 -0.0142938 0.00383506)
(-0.00348446 -0.0150481 0.00412662)
(-0.00288117 -0.0149535 0.00398171)
(-0.00306165 -0.0147964 0.00406963)
(-0.00336729 -0.0147079 0.00417618)
(-0.00328233 -0.0151516 0.00407633)
(-0.00304127 -0.014125 0.0038553)
(-0.00369551 -0.0153179 0.00429299)
(-0.00343342 -0.0154159 0.00421534)
(-0.00334771 -0.0149077 0.00415766)
(-0.00321032 -0.0143 0.00398049)
(-0.00311197 -0.0139482 0.00378524)
(-0.00314835 -0.0150151 0.00400247)
(-0.00353837 -0.015257 0.00399416)
(-0.00342826 -0.0150971 0.00416795)
(-0.00346084 -0.0153079 0.00416486)
(-0.00343331 -0.0153188 0.00427395)
(-0.00353328 -0.0155537 0.00396407)
(-0.00326575 -0.0148667 0.00406767)
(-0.00313371 -0.0139491 0.003754)
(-0.00316609 -0.01451 0.00395788)
(-0.0032804 -0.0148079 0.0040102)
(-0.00310386 -0.0141639 0.00385744)
(-0.00316281 -0.0142967 0.00389823)
(-0.00309235 -0.0144513 0.00392305)
(-0.00319279 -0.014422 0.00406316)
(-0.00334119 -0.0157094 0.00413608)
(-0.00329824 -0.0152847 0.00416045)
(-0.00335032 -0.014732 0.00408632)
(-0.00318268 -0.0145924 0.00399513)
(-0.00318528 -0.0146478 0.0039432)
(-0.00316387 -0.0147674 0.00405184)
(-0.00326066 -0.01516 0.00406001)
(-0.00349053 -0.0151319 0.00420351)
(-0.00334181 -0.0148679 0.00417584)
(-0.00330956 -0.0148337 0.0040899)
(-0.00366484 -0.0152418 0.00435163)
(-0.00350866 -0.0153673 0.00421826)
(-0.00341872 -0.0152836 0.00429973)
(-0.00314753 -0.0149979 0.00414498)
(-0.00347174 -0.0152702 0.00423279)
(-0.00337231 -0.0156175 0.00396007)
(-0.00326007 -0.0149415 0.00404844)
(-0.00325875 -0.0149831 0.0038369)
(-0.00322548 -0.0150894 0.0039614)
(-0.00340476 -0.0147336 0.00396245)
(-0.00324321 -0.014134 0.00376394)
(-0.00361037 -0.015243 0.00446909)
(-0.00326958 -0.0160528 0.00423022)
(-0.00324304 -0.0149396 0.0036885)
(-0.00324416 -0.0147199 0.00393382)
(-0.00332606 -0.015305 0.00424862)
(-0.00343164 -0.016269 0.00462839)
(-0.00328849 -0.0147964 0.00368538)
(-0.00372438 -0.0158272 0.00416608)
(-0.00345201 -0.0150247 0.00374536)
(-0.00340056 -0.0153512 0.00459516)
(-0.0030951 -0.0151773 0.00371834)
(-0.00322775 -0.0141138 0.00399939)
(-0.00309979 -0.0148082 0.00398355)
(-0.00345641 -0.0152575 0.00420352)
(-0.00312403 -0.0148545 0.00402309)
(-0.00318623 -0.0149913 0.00391605)
(-0.00337566 -0.0153115 0.00423439)
(-0.00341651 -0.0152922 0.00462127)
(-0.00334444 -0.0155703 0.00443478)
(-0.00337323 -0.0149506 0.0043174)
(-0.00334845 -0.0148315 0.00409388)
(-0.00362106 -0.0151948 0.00433461)
(-0.00333345 -0.0146164 0.00403489)
(-0.00321183 -0.0156807 0.00404637)
(-0.00345585 -0.0150487 0.00406197)
(-0.00362439 -0.0159867 0.00431326)
(-0.00368632 -0.015592 0.00416712)
(-0.00353533 -0.0157972 0.00439898)
(-0.00347491 -0.0157483 0.00436534)
(-0.00324132 -0.0151079 0.00416717)
(-0.00341152 -0.0155027 0.00435511)
(-0.00359028 -0.0158967 0.00417044)
(-0.00330597 -0.0154914 0.00438621)
(-0.00354043 -0.0154286 0.00412946)
(-0.00347486 -0.0162244 0.00423663)
(-0.00341371 -0.0160053 0.00417971)
(-0.00327229 -0.015352 0.00428981)
(-0.0034609 -0.0151893 0.00417693)
(-0.00344333 -0.015061 0.00398132)
(-0.00337054 -0.01514 0.0040543)
(-0.00316571 -0.0149975 0.00419184)
(-0.00342849 -0.0148543 0.00406668)
(-0.00365428 -0.016827 0.00445216)
(-0.00337135 -0.0153506 0.00419837)
(-0.00327575 -0.0153706 0.00432436)
(-0.00352697 -0.015301 0.00444638)
(-0.00346858 -0.0159685 0.00434657)
(-0.00345439 -0.0155789 0.00413886)
(-0.00347442 -0.015161 0.00352898)
(-0.00338691 -0.0160895 0.0035787)
(-0.00319765 -0.0146736 0.00426129)
(-0.00347993 -0.0156348 0.00425785)
(-0.00319591 -0.0159299 0.00460511)
(-0.00341884 -0.0155822 0.00454518)
(-0.00331901 -0.015196 0.00400283)
(-0.00335762 -0.0148614 0.00432458)
(-0.00334618 -0.0155131 0.00434083)
(-0.00364186 -0.0157262 0.0044144)
(-0.0033716 -0.0152705 0.00412577)
(-0.00368293 -0.0162228 0.00436634)
(-0.00341746 -0.0153184 0.00410048)
(-0.00317215 -0.0152781 0.00440803)
(-0.00322209 -0.0153462 0.00398436)
(-0.0033287 -0.0161558 0.00448429)
(-0.00324963 -0.0153522 0.00385279)
(-0.00338739 -0.0155363 0.00406006)
(-0.00331983 -0.0150713 0.00388241)
(-0.0033623 -0.0150649 0.00412373)
(-0.00327916 -0.0155856 0.00422706)
(-0.0033276 -0.0152376 0.00408639)
(-0.00363518 -0.0159645 0.00445346)
(-0.00367613 -0.0156839 0.00422614)
(-0.00353437 -0.0156557 0.0041347)
(-0.00358482 -0.0154834 0.00420227)
(-0.00306184 -0.0144207 0.00411296)
(-0.00329582 -0.0148028 0.00404638)
(-0.0032575 -0.0147217 0.00390433)
(-0.00307888 -0.0147788 0.00414366)
(-0.0031051 -0.014784 0.00423707)
(-0.00317439 -0.0145906 0.00405315)
(-0.00313449 -0.014713 0.00396197)
(-0.00333749 -0.0148328 0.00403209)
(-0.00335581 -0.0146656 0.00395937)
(-0.00321554 -0.0149345 0.00410642)
(-0.003377 -0.0150452 0.00411184)
(-0.00323564 -0.0148888 0.00411644)
(-0.0029354 -0.0137238 0.00375826)
(-0.0030172 -0.0138097 0.0037883)
(-0.00310714 -0.0135511 0.00368467)
(-0.00313245 -0.0141069 0.00379447)
(-0.0029682 -0.0142096 0.0038431)
(-0.00293505 -0.0139084 0.00382719)
(-0.00297265 -0.0139741 0.00371017)
(-0.00304025 -0.0136073 0.00372829)
(-0.00328306 -0.0145239 0.00397035)
(-0.00299577 -0.013595 0.00385252)
(-0.00317515 -0.0138473 0.00380454)
(-0.00305271 -0.0135326 0.00359305)
(-0.00306081 -0.0139995 0.00378785)
(-0.00308777 -0.0140554 0.00383036)
(-0.0030825 -0.0138183 0.00379632)