/*--------------------------------*- C++ -*----------------------------------*\
| =========                 |                                                 |
| \\      /  F ield         | OpenFOAM: The Open Source CFD Toolbox           |
|  \\    /   O peration     | Version:  v1612+                                |
|   \\  /    A nd           | Web:      www.OpenFOAM.com                      |
|    \\/     M anipulation  |                                                 |
\*---------------------------------------------------------------------------*/
FoamFile
{
    version     2.0;
    format      ascii;
    class       surfaceScalarField;
    location    "50";
    object      phi;
}
// * * * * * * * * * * * * * * * * * * * * * * * * * * * * * * * * * * * * * //

dimensions      [0 3 -1 0 0 0 0];

internalField   nonuniform List<scalar> 
36920
(
-4.93893e-10
-6.56065e-09
8.90545e-09
-1.85088e-09
-1.77578e-08
1.8412e-08
3.62021e-10
-1.01624e-09
-3.47682e-09
1.26708e-08
-2.03813e-08
1.11872e-08
-3.24717e-10
9.07447e-09
-1.77085e-08
8.95857e-09
5.14884e-09
-1.00166e-08
4.54303e-09
-8.48067e-09
9.58729e-09
-1.88645e-08
3.35421e-09
1.03571e-08
-2.2192e-08
-1.03333e-09
-6.45264e-09
1.26347e-08
-1.41394e-08
2.21805e-08
-9.66874e-09
1.39413e-08
-8.90795e-10
-1.64557e-08
-9.56498e-10
-5.08857e-09
-3.97146e-09
2.52979e-09
-2.61132e-09
1.13757e-08
-2.66176e-09
-6.18428e-09
1.43e-08
-9.37689e-09
-1.61589e-08
9.39096e-09
1.01221e-08
1.19849e-09
-3.44027e-09
-4.36672e-09
6.60851e-09
-2.60969e-09
5.17449e-09
-1.36634e-09
7.28256e-10
2.5098e-09
-9.45467e-09
6.21658e-09
-1.10695e-08
8.35748e-09
1.30706e-09
-3.07675e-09
-2.59707e-09
-1.19244e-09
-1.10235e-10
4.80222e-09
2.61071e-09
-4.90311e-09
5.30436e-09
-1.08857e-08
-3.87336e-09
-7.901e-10
-4.97503e-09
-2.41864e-09
1.737e-09
-5.10807e-10
1.40537e-09
1.58907e-09
-2.5995e-09
-3.94971e-10
-1.27039e-09
2.57124e-10
-2.27775e-09
-1.58287e-08
1.18287e-08
-3.65449e-09
7.65448e-09
-4.06263e-09
-6.18977e-09
-5.57628e-09
1.13078e-09
-5.84713e-10
1.12828e-08
-1.16583e-08
2.0432e-09
1.07459e-08
1.13333e-08
-5.71425e-09
-9.68164e-09
-8.41175e-09
-1.47451e-08
1.69671e-08
1.10051e-08
-1.8924e-08
7.64539e-10
7.15468e-09
-1.86361e-08
2.16276e-08
8.01368e-09
-2.71014e-09
2.38522e-09
1.54712e-08
-1.94393e-08
1.25811e-09
-3.65612e-08
3.31084e-08
-3.45749e-08
-1.35018e-08
1.15156e-08
-2.27798e-08
-3.12344e-08
9.16407e-09
-2.329e-08
-2.15178e-08
-2.17475e-09
1.01908e-08
-3.51336e-08
5.72774e-09
3.39311e-09
-1.27753e-08
1.26423e-09
-6.22361e-09
3.86926e-09
1.08992e-09
-2.06095e-09
5.75814e-10
-2.95619e-09
4.44128e-09
-4.53156e-09
3.73491e-09
-4.09181e-09
7.42375e-09
-2.75623e-09
-1.63942e-09
-1.98871e-09
-5.31303e-09
8.94108e-09
-2.34567e-09
-5.51737e-09
5.65866e-09
-2.2047e-09
-5.44261e-09
-2.34461e-09
3.91156e-09
2.23325e-09
-3.56321e-09
-3.2015e-09
-8.61752e-10
1.38904e-10
3.19241e-09
-1.96037e-10
-5.20102e-09
-1.38627e-11
-6.10491e-09
4.68844e-09
6.69271e-09
-1.18843e-08
5.03396e-10
8.2348e-09
-7.33644e-09
3.79017e-09
-2.05823e-09
8.17952e-09
5.71471e-10
6.43189e-09
-2.2307e-09
-6.25938e-09
6.49448e-09
2.5245e-09
-9.93114e-10
-8.02591e-09
9.50693e-09
8.63376e-09
-5.04222e-09
-1.30985e-08
1.03924e-08
5.60906e-09
8.78483e-09
-1.03011e-08
-1.25608e-09
2.77233e-09
4.69419e-10
-4.74475e-09
1.30601e-08
2.87199e-09
-4.99357e-09
-4.92705e-09
1.01117e-08
-2.31273e-09
8.74037e-09
2.16011e-10
3.21654e-09
2.67132e-10
5.1501e-09
3.38824e-09
1.02207e-08
-6.80319e-09
1.06608e-08
6.8109e-10
8.98613e-09
-5.67835e-09
-3.85725e-09
9.22425e-09
5.396e-09
-1.20368e-08
-4.17094e-09
-8.34478e-09
2.45528e-08
-1.28929e-08
-2.60434e-08
2.68995e-08
4.1142e-09
1.11325e-08
4.71733e-09
-1.99638e-08
6.59186e-09
-1.53705e-08
-1.45133e-08
-1.1012e-10
-1.15977e-09
-1.51588e-08
-1.24395e-08
-6.91042e-09
2.56711e-09
1.17057e-08
-9.55544e-09
-5.99985e-09
-1.78542e-08
8.74505e-10
6.74603e-10
-6.47466e-09
4.92557e-09
-1.04278e-08
4.93686e-09
2.66044e-09
2.83048e-09
2.23327e-09
-1.17865e-08
-5.45148e-09
3.86001e-09
6.52833e-09
5.62435e-10
-3.78063e-09
9.54015e-10
4.44963e-09
-1.61646e-09
-3.78718e-09
4.41203e-09
-2.89559e-09
-4.44588e-09
4.35802e-09
4.49989e-09
1.41873e-11
-1.04396e-11
-9.59075e-10
-3.06719e-10
5.12584e-09
1.72838e-10
3.22613e-09
-1.20304e-09
-5.09966e-09
5.99601e-09
-5.41558e-09
4.38537e-09
-3.94436e-09
-4.44407e-09
2.97286e-09
-3.92086e-09
-9.31638e-12
3.99354e-09
-4.9354e-09
-3.2425e-09
1.19912e-10
-1.32151e-09
-3.16981e-09
-1.22615e-09
-3.75361e-09
-1.04405e-08
1.70176e-09
1.52881e-08
-6.5494e-09
-5.41668e-10
1.2091e-08
-2.19898e-08
2.78541e-10
-1.20539e-08
6.29205e-09
5.48327e-09
-1.16496e-08
6.2519e-09
5.67613e-09
7.93559e-09
-1.75772e-08
9.09996e-09
1.24887e-08
-2.85132e-09
1.10649e-08
-1.50532e-08
-8.06572e-09
-1.01313e-08
9.54664e-09
-2.80775e-09
-1.54411e-10
3.88076e-09
1.16373e-08
-9.22608e-09
-5.84617e-09
1.59788e-08
-5.39778e-09
3.65469e-09
-1.2576e-08
1.43191e-08
2.16378e-09
2.99297e-09
-6.8628e-09
7.60081e-09
-6.58422e-09
8.02217e-09
-9.3128e-10
3.32313e-09
9.61335e-09
-2.65842e-09
-2.09978e-08
3.01803e-09
-2.0366e-08
8.35851e-09
-2.33153e-08
8.82067e-09
-2.44126e-08
-2.06623e-08
-1.33405e-09
6.15287e-09
-1.69099e-08
1.20911e-08
-1.15972e-08
3.3698e-09
6.89335e-09
7.04067e-10
1.16275e-08
-8.40954e-09
-3.92196e-09
-8.04567e-09
-2.84743e-09
-1.00769e-08
1.47776e-08
1.45218e-09
1.25292e-08
1.16169e-09
-9.83948e-09
-3.85141e-09
-6.02525e-09
8.47753e-09
-4.12077e-09
3.7176e-09
-2.90288e-09
9.89771e-09
-6.21539e-10
-5.55854e-09
3.95311e-09
-2.10106e-09
6.20321e-09
-8.23733e-09
-7.80535e-09
-3.8678e-10
5.64732e-10
1.91993e-09
8.48492e-09
-3.40554e-09
-5.7009e-09
8.52123e-09
1.94216e-09
-1.97845e-09
8.14912e-09
4.32522e-09
7.41937e-09
-8.905e-09
-5.95435e-09
6.35894e-10
4.93167e-09
2.00173e-09
9.51719e-09
7.28375e-09
-5.42571e-09
8.41305e-11
1.07402e-08
8.68784e-10
-5.13426e-10
6.30452e-09
5.72401e-09
7.93439e-09
-1.9963e-08
1.33977e-08
1.25878e-08
-1.9681e-08
4.70742e-09
-9.03977e-10
9.59459e-09
-1.33982e-08
3.24102e-09
1.82034e-08
-1.6737e-08
-5.92658e-09
-4.63012e-09
1.38101e-08
-3.25343e-09
2.00635e-08
-1.25923e-08
7.63137e-10
4.69054e-09
1.46098e-08
8.64611e-09
-7.55229e-09
9.34076e-09
3.33502e-09
-4.74144e-09
2.48526e-09
-6.98713e-09
3.59738e-09
-9.30001e-09
1.50263e-08
1.07311e-08
3.84221e-09
8.45277e-10
1.00226e-08
-1.52709e-09
-1.13149e-09
1.45646e-08
1.02297e-08
1.28355e-08
-1.44192e-08
1.55045e-08
-1.93981e-09
-7.57658e-09
9.00764e-09
2.93986e-09
7.27035e-09
5.2943e-09
8.19882e-09
1.03058e-08
-4.36941e-09
5.1976e-09
-4.42706e-09
3.59885e-09
-3.50885e-10
-4.27539e-09
2.56877e-10
-4.68514e-09
1.66122e-09
-2.6852e-09
5.70914e-09
-5.26643e-09
2.30406e-10
2.0353e-09
5.80137e-09
-6.0382e-09
-1.79844e-09
-3.63287e-09
4.0174e-10
-1.14425e-09
8.00309e-09
-5.66779e-09
9.48954e-10
2.91742e-10
-6.1094e-09
-3.83378e-09
-8.82286e-10
3.99846e-09
1.04884e-09
-1.3143e-09
-5.77269e-09
6.33588e-11
-2.64741e-09
-9.97041e-09
6.40675e-09
2.68139e-09
-7.61201e-09
-1.34184e-08
1.106e-08
-7.57957e-09
1.01804e-08
-3.74509e-09
-7.10396e-09
4.7332e-10
9.76458e-10
-9.90277e-09
-7.83989e-09
-3.99652e-09
4.73245e-09
-1.55857e-09
-4.48748e-09
-8.42198e-09
3.83625e-09
-8.13649e-09
-3.0343e-09
7.33458e-09
7.02566e-09
-7.56028e-10
-2.43335e-09
2.41494e-09
1.95687e-09
-3.60689e-09
-7.64877e-10
2.42049e-10
1.35792e-09
1.18371e-09
-3.86912e-09
4.25237e-09
-1.56696e-09
-2.3108e-09
3.62224e-09
-1.27726e-10
3.60095e-09
-1.94203e-09
7.66244e-10
4.03254e-09
-1.72797e-09
-3.07077e-09
3.08876e-09
-3.65635e-10
1.01768e-09
-8.54251e-10
-1.73474e-09
4.41626e-10
1.41079e-09
-1.756e-09
3.94617e-09
-9.15659e-10
1.99556e-09
3.309e-10
4.38367e-10
-6.33797e-09
-7.13466e-10
1.00893e-08
-3.03791e-09
9.55361e-09
-4.75106e-09
-1.11405e-08
4.07143e-09
-1.56955e-09
3.06069e-09
-5.56262e-09
5.29935e-09
-1.9414e-09
-3.23518e-10
3.46095e-09
6.41614e-09
3.4096e-09
6.35616e-09
3.65323e-09
-9.97385e-09
-1.66608e-09
3.95646e-09
3.00894e-09
1.40953e-09
-1.49473e-11
-2.56468e-09
1.83403e-09
4.19157e-09
-5.22825e-09
-1.92822e-09
4.59178e-09
1.25956e-09
6.10647e-09
2.00232e-09
-3.57731e-09
-2.15998e-09
4.64581e-09
-1.22628e-09
-3.05992e-09
9.69698e-10
-6.97795e-11
3.51932e-10
2.14618e-08
-2.93262e-08
-9.46921e-09
1.73336e-08
-8.76456e-09
2.98472e-09
2.72417e-08
1.56901e-08
7.75145e-09
-2.24438e-08
-9.97795e-10
-3.10744e-08
1.74383e-08
4.47014e-09
1.94671e-08
-3.12157e-08
2.27933e-09
-6.40478e-09
2.88567e-08
-1.81409e-08
3.47069e-10
-1.32806e-08
-1.50993e-08
-2.54855e-08
-1.22299e-08
-2.40122e-08
2.98373e-08
-2.21352e-08
1.55814e-08
-1.84608e-08
-1.24079e-08
-1.10364e-10
-1.03183e-08
-1.35835e-08
-1.26989e-08
7.88931e-09
-3.10543e-08
-2.08897e-08
1.06062e-08
6.13672e-09
-5.24388e-09
-1.14989e-08
1.93654e-09
1.06005e-09
7.60966e-09
9.30899e-09
2.81424e-09
-5.98648e-09
2.21282e-09
2.64297e-09
4.45324e-09
5.32324e-09
-2.19867e-11
-2.48707e-09
5.16763e-09
2.36844e-09
-8.81009e-09
7.38468e-09
3.36198e-09
2.72641e-09
-1.67804e-08
-4.92628e-09
9.20976e-09
-4.30557e-09
7.41631e-09
-9.61621e-09
-4.11797e-09
-9.82283e-09
2.91171e-09
1.1029e-08
-5.27652e-09
-1.63808e-09
2.79657e-09
-7.71469e-09
6.98322e-09
2.66015e-09
-4.3374e-10
6.34327e-09
5.80752e-09
2.617e-09
3.1611e-09
-3.05864e-09
1.23757e-09
8.16426e-09
2.21848e-09
1.11196e-08
-6.97027e-09
-1.9851e-09
-1.55824e-08
1.53768e-08
2.19072e-09
1.06995e-08
-1.13512e-08
-1.33342e-09
-3.90189e-09
8.05242e-09
-3.64049e-09
-5.10084e-10
1.21532e-08
-5.3556e-09
-8.17684e-09
7.02094e-09
9.20826e-09
2.04943e-10
3.77139e-09
-1.03044e-09
-8.19719e-10
-1.07425e-08
1.25925e-08
-1.01643e-09
-1.0272e-08
1.0258e-08
2.42903e-10
-7.81232e-09
6.55287e-09
-6.81502e-09
6.23816e-09
-2.10415e-09
4.18721e-09
-1.76655e-08
2.60467e-09
-1.60601e-08
8.09287e-09
3.07192e-09
-8.56017e-09
5.54758e-09
-1.09523e-09
1.05874e-08
4.99427e-09
3.45356e-09
-1.06094e-08
-3.11618e-09
3.29848e-09
8.70052e-10
-7.88169e-09
-8.0071e-10
1.07593e-09
-7.53661e-09
5.20247e-09
1.58836e-10
-4.62354e-09
-6.26339e-09
1.78577e-09
-5.41857e-09
-4.79209e-09
8.42496e-09
4.21977e-09
5.34049e-09
-3.75312e-09
-5.807e-09
-6.26112e-10
-1.61679e-09
4.02893e-09
-1.1816e-09
-2.29663e-09
2.85238e-09
-2.74615e-09
-5.20907e-11
-2.3244e-09
1.1256e-09
1.31349e-09
2.29177e-09
-3.56681e-09
-3.81587e-11
-1.67741e-09
2.44807e-10
3.18156e-09
-1.10417e-09
-4.40175e-09
-1.10399e-09
3.54175e-09
1.68433e-09
-4.12202e-09
-2.82522e-09
4.39304e-11
4.42669e-09
-1.11171e-08
1.03379e-08
5.66521e-09
-4.88588e-09
-2.04958e-08
1.35089e-09
8.02791e-09
6.98928e-09
8.19344e-09
-4.84494e-09
9.45928e-09
-4.00497e-09
-4.77547e-09
-6.78772e-10
5.63653e-09
-7.93873e-10
4.61662e-09
3.5807e-09
9.19903e-09
-7.14323e-09
8.4291e-09
1.19063e-09
-3.95447e-09
-2.51856e-09
1.30885e-08
-4.92189e-09
1.08325e-08
3.22123e-09
-8.9369e-09
9.95044e-09
-4.94857e-09
5.83068e-09
-1.55204e-09
1.03572e-08
1.14544e-09
6.80043e-09
3.79135e-09
2.17084e-09
-1.27625e-08
8.5525e-09
-5.00548e-09
5.78266e-09
-1.45837e-08
6.79209e-09
-9.56974e-09
5.15117e-09
8.89275e-11
4.97571e-09
1.50974e-08
-1.53826e-08
-1.00571e-08
1.05582e-08
9.85613e-09
4.72807e-09
3.77291e-09
-1.85582e-08
2.45384e-09
8.9479e-09
-2.84922e-09
7.66888e-09
-6.38715e-11
-1.71415e-10
1.57053e-08
3.67008e-09
9.12003e-09
1.11675e-08
-7.14313e-09
1.01048e-09
7.26043e-09
3.36839e-09
-1.20941e-08
1.46536e-09
9.111e-09
-1.53328e-09
-3.17259e-10
-6.05984e-09
6.46362e-09
-2.71647e-09
1.57459e-08
-1.84373e-08
-1.29567e-08
1.21036e-08
7.31668e-09
1.01931e-08
-7.40387e-09
2.9318e-09
-6.5482e-10
-9.42008e-09
-7.82704e-09
1.43721e-08
-1.47088e-09
3.83694e-09
-5.20244e-09
2.4377e-09
-2.45801e-09
-2.35862e-09
2.27674e-09
2.53987e-09
-4.13169e-09
1.88421e-09
-2.10551e-10
2.23258e-09
4.57834e-09
-4.48976e-09
-2.32116e-09
-2.0273e-09
1.28171e-10
-9.36458e-11
2.31337e-09
4.00073e-09
-3.89716e-09
1.78064e-09
-3.65736e-10
6.64324e-09
-1.29859e-08
3.95525e-09
7.03272e-09
1.99791e-09
-3.73671e-09
2.44147e-09
-1.16907e-08
3.78996e-09
4.37886e-10
-2.23555e-09
-1.99235e-09
2.20328e-09
-2.31049e-09
8.00284e-10
-7.06617e-09
1.77611e-09
-3.34657e-09
-5.55996e-09
8.5408e-09
-6.31727e-09
2.87703e-09
6.91579e-09
-9.85223e-09
4.55378e-09
6.02706e-09
-3.14773e-09
7.49983e-09
6.87841e-09
-1.24123e-09
-4.61558e-09
-1.0216e-09
3.14002e-11
-5.22625e-10
7.36964e-09
-7.13998e-09
1.15072e-08
-6.78848e-09
2.4213e-09
1.03434e-08
-1.10783e-08
-6.40508e-09
7.04755e-09
-6.42778e-09
-1.86101e-09
-3.90655e-10
7.46962e-09
-6.40252e-09
-3.99051e-10
6.27896e-09
-5.02503e-09
-5.99306e-09
6.77706e-10
-6.95649e-11
9.7352e-09
1.17942e-08
2.68289e-09
-8.53914e-10
-1.29072e-08
1.44324e-09
-5.54883e-09
-4.34376e-09
-6.40766e-10
-1.15306e-09
-6.66981e-09
1.71679e-09
6.10608e-09
-1.04687e-08
8.4617e-09
2.27418e-10
7.55529e-09
-7.85225e-09
6.61117e-09
-6.78282e-09
9.10088e-09
-5.95008e-09
2.40459e-09
-5.55535e-09
-3.55931e-09
7.81458e-09
4.84569e-09
8.09276e-09
-3.15431e-09
-1.08885e-08
3.84699e-09
6.86477e-10
5.01749e-09
3.04857e-09
-1.12203e-08
-2.60102e-10
6.78348e-09
-1.50584e-09
7.49211e-09
6.73475e-09
-1.11783e-08
1.00131e-08
-2.78108e-09
7.85051e-09
-3.62389e-09
-1.82203e-09
2.26224e-09
1.34029e-08
-3.37916e-09
4.30946e-09
2.91674e-09
4.0292e-09
-6.24857e-10
4.49594e-10
2.66126e-09
5.63095e-09
4.83176e-09
-3.82813e-09
1.03998e-08
5.83202e-09
-1.36928e-08
1.39581e-08
-6.38854e-10
3.73553e-10
9.33207e-10
-1.03571e-08
-4.26876e-09
6.39282e-09
9.76271e-09
-2.19749e-09
-1.01665e-09
1.76684e-08
-1.02588e-08
-6.93009e-09
1.044e-08
-4.52653e-09
5.40009e-09
-1.02216e-08
-6.07131e-09
1.08928e-08
-4.97626e-09
4.88193e-10
9.88816e-09
2.54715e-09
-4.76068e-09
-1.4424e-08
1.66376e-08
2.79098e-09
6.73722e-09
-3.1549e-09
-6.37319e-09
6.46291e-09
1.81567e-09
-5.48753e-09
1.1658e-08
1.54216e-09
-1.51232e-08
6.27628e-09
5.15581e-09
3.69115e-09
-1.07603e-08
-6.50638e-09
5.85257e-09
1.75385e-10
-7.92286e-09
-1.36546e-09
3.62164e-10
-1.548e-08
-1.07156e-08
8.33086e-09
-1.264e-08
1.0304e-08
-5.99485e-09
-1.2983e-09
1.71702e-08
-7.54104e-09
6.06876e-10
-4.33704e-09
-6.83039e-09
1.05606e-08
-5.96426e-09
1.90532e-09
1.76259e-09
2.29633e-09
-5.97738e-09
7.69478e-09
-7.68166e-09
-5.08888e-09
9.88306e-09
-6.09247e-09
-9.80046e-09
-3.70351e-09
8.63987e-10
-3.00157e-09
3.43035e-09
6.6685e-09
-7.09726e-09
2.11577e-09
-1.10947e-08
-5.76323e-09
7.99939e-09
1.76709e-09
-2.43127e-09
8.66357e-09
8.11464e-09
4.33002e-09
-4.7499e-09
5.24309e-09
4.77688e-09
2.89366e-09
5.53742e-09
-7.76431e-09
7.91851e-09
-1.66721e-09
1.8411e-08
6.17393e-09
-1.05511e-08
-1.40339e-08
1.83031e-08
9.04302e-10
-7.96228e-10
-2.9357e-08
1.93968e-09
1.43597e-08
1.30577e-08
-9.16995e-09
-1.40131e-08
-3.35432e-09
4.65531e-09
-1.1852e-08
6.46363e-09
-1.28017e-08
2.98371e-09
1.03802e-08
-4.57376e-09
6.57269e-10
9.37165e-09
1.08711e-08
-2.22808e-08
2.3491e-08
-1.33641e-08
9.14911e-09
-9.79739e-09
-1.26405e-08
-8.33667e-10
-3.68553e-09
-3.22679e-09
1.15677e-08
-3.79082e-09
-9.69781e-09
1.03615e-08
-1.20058e-08
-1.09961e-08
-1.13406e-09
1.69829e-09
-8.56538e-09
1.41463e-08
-7.49057e-09
9.73728e-09
-1.0812e-08
1.91221e-09
-1.05367e-08
4.37185e-10
1.62372e-08
1.38999e-09
-1.80643e-08
1.09387e-09
1.41695e-08
-1.48262e-08
3.39501e-09
-1.89088e-08
1.64976e-08
-9.83754e-10
-1.26763e-08
1.36617e-08
2.40951e-09
-3.32082e-10
1.18956e-08
-1.04696e-08
-1.27621e-09
1.07868e-08
-9.8426e-09
4.3361e-10
3.1272e-09
1.21351e-08
-1.20213e-08
-2.23096e-08
1.75703e-08
6.85893e-09
1.8962e-08
-9.32336e-09
-1.83083e-09
2.23515e-08
2.0824e-09
1.27107e-08
-2.89751e-09
1.36668e-08
-7.97553e-10
9.93581e-09
2.6329e-09
-4.81298e-09
5.77464e-09
1.27051e-08
6.61769e-09
1.28008e-09
1.38796e-08
-6.11621e-09
6.65629e-09
-6.64155e-09
6.1016e-09
-1.17691e-08
5.91815e-09
-2.65167e-10
1.32278e-12
2.43182e-09
4.22312e-09
2.21249e-09
-5.9633e-09
3.75219e-09
-4.80025e-10
-5.0706e-09
7.9825e-09
-5.16279e-09
6.8953e-09
-1.25815e-08
-8.42782e-09
9.24036e-09
6.43623e-09
-1.06602e-08
3.62305e-10
-5.67547e-10
6.92792e-09
-6.08034e-09
-6.43705e-09
3.48173e-09
-5.47234e-09
1.46218e-10
-1.72434e-08
7.50013e-09
-6.70266e-09
-4.35037e-10
-1.94624e-10
1.73158e-09
-7.63786e-09
7.36173e-09
-4.88647e-09
4.0691e-09
-1.06256e-08
-7.96232e-10
-3.91921e-09
-1.40333e-08
1.8749e-08
-1.10385e-08
1.37242e-08
-9.86048e-09
2.02804e-09
-9.71064e-09
-1.65025e-09
1.62681e-09
-7.92762e-09
7.72738e-10
-1.75364e-08
1.7966e-09
-1.48447e-08
1.10516e-09
-8.12115e-09
-5.37023e-10
-9.13752e-09
-1.00279e-08
-1.34023e-08
-3.22631e-09
1.84919e-08
-1.86334e-09
7.10491e-10
-1.14271e-08
-4.89392e-09
1.56104e-08
-9.42392e-09
-3.26791e-09
-1.23581e-09
7.10273e-09
-6.37696e-09
5.10016e-10
-9.94874e-09
-7.11005e-10
-3.92388e-09
7.8003e-09
-9.54977e-10
5.58114e-10
-5.98008e-09
-3.67516e-10
-1.05362e-08
1.21891e-09
3.92596e-09
4.85442e-09
-9.99932e-09
-7.3654e-09
4.66041e-09
-1.2632e-09
2.78954e-10
-8.64243e-09
9.62668e-09
-8.55008e-10
-1.11774e-08
1.07692e-08
-1.26496e-08
-5.12158e-09
3.18252e-09
-1.14414e-08
1.33804e-08
-8.74581e-09
-9.20556e-10
4.54503e-09
6.47799e-09
3.07155e-10
-7.52205e-09
7.36536e-10
-8.05757e-10
1.04663e-08
-1.33224e-08
2.35908e-09
-4.78124e-10
-2.53063e-09
-1.38037e-08
3.01205e-09
-1.03872e-08
-8.89249e-10
-4.7982e-09
-2.48737e-09
6.47969e-09
-5.18689e-09
6.95825e-10
1.64246e-09
-5.15595e-09
2.59277e-09
-4.35908e-09
3.51422e-09
-7.00302e-09
1.83995e-09
-3.02713e-09
-2.77381e-10
-7.08277e-09
-2.76442e-09
2.48105e-09
-5.19133e-09
-2.44576e-09
-1.7708e-09
-1.0737e-10
-2.79957e-09
-4.53511e-09
2.14764e-09
-4.31927e-09
-2.51024e-10
3.61284e-09
-4.17672e-09
-1.79257e-10
-7.4313e-10
5.99048e-09
-1.25547e-11
-1.19187e-09
1.82087e-09
-3.64787e-09
2.77064e-10
7.54961e-10
-4.51271e-09
3.48066e-09
-3.97974e-09
9.0084e-10
3.35591e-09
-2.74939e-09
-4.35444e-09
3.12411e-09
4.52029e-10
-3.04441e-09
-1.56961e-10
6.35743e-10
-5.07666e-09
5.19583e-09
-3.63217e-09
5.16879e-09
-3.12303e-09
-4.30794e-09
3.79878e-09
-2.5672e-09
-1.03782e-10
-7.47286e-11
-4.21408e-09
-1.91016e-11
-2.59673e-09
-4.51476e-11
-2.83112e-09
2.55429e-10
-1.77863e-09
-2.17449e-09
-3.70101e-09
-5.58403e-09
-4.79428e-09
5.30166e-09
-3.1245e-10
-1.82169e-09
-3.44991e-09
-1.86363e-09
-2.6629e-09
-1.46442e-09
-2.99585e-09
-2.86381e-09
-1.39349e-09
-4.73883e-09
-2.91921e-09
-7.98305e-10
-5.76218e-09
-4.43721e-09
5.38691e-09
-4.63947e-09
5.87229e-09
-6.61962e-09
-2.8391e-10
1.05105e-08
-4.83957e-09
-4.33572e-09
8.67218e-09
-4.62018e-09
-5.90286e-09
7.62415e-09
8.7893e-09
1.73537e-10
-2.04012e-10
3.16301e-09
-7.39958e-09
1.29088e-08
-1.51239e-08
9.9193e-09
1.31872e-08
-5.033e-09
-3.33914e-09
1.45515e-08
-1.29303e-09
-6.23633e-09
2.74756e-09
1.49641e-10
6.43362e-09
-1.58397e-10
4.42042e-09
-7.9811e-09
1.3194e-08
-3.44149e-10
-4.86875e-09
6.76062e-09
-7.12115e-09
-7.62063e-09
2.33505e-09
1.14429e-08
-5.84007e-10
7.81688e-09
1.27878e-09
-9.52288e-09
-6.46298e-09
1.56417e-08
6.57071e-09
1.29532e-08
-8.08098e-09
3.99502e-09
8.07765e-09
-1.40439e-08
1.9712e-09
5.65458e-09
-7.81959e-09
6.16003e-09
-7.6876e-09
-1.85656e-09
1.61148e-08
-3.59264e-09
3.72184e-09
6.30844e-09
-2.4459e-09
4.21503e-09
1.01064e-08
2.19889e-09
5.95609e-09
-1.76779e-08
4.85672e-09
-9.779e-09
1.35968e-08
9.2707e-09
-1.69114e-08
6.50166e-09
-7.24412e-10
3.53789e-10
-5.12703e-09
-7.5227e-09
1.48408e-09
-2.3122e-09
-7.89379e-10
-6.20036e-09
9.78297e-09
-2.79325e-09
-3.31138e-09
-7.2528e-09
9.77478e-09
1.00191e-08
3.46175e-10
-1.68841e-08
6.51867e-09
-5.77734e-10
9.98071e-09
6.16137e-10
8.13065e-09
5.48867e-09
-1.32732e-08
8.02054e-09
-4.67654e-10
-1.99681e-09
8.28459e-09
-8.82098e-09
2.53313e-09
6.59132e-09
-5.67608e-10
5.01011e-09
-3.69276e-11
1.45166e-09
-6.32993e-09
-1.32209e-09
7.90162e-10
4.76746e-09
-1.1167e-09
-1.29791e-08
1.56842e-08
6.84018e-09
-9.54529e-09
-1.72772e-09
-5.64154e-09
-5.60998e-09
-5.06009e-09
-2.57647e-09
-4.29639e-09
8.48169e-09
-1.60878e-09
-3.30676e-09
4.34951e-09
-3.61921e-09
-2.88191e-09
3.94972e-09
-5.36421e-09
5.82973e-10
-6.77166e-09
1.27373e-09
-4.3351e-09
-8.93944e-10
3.95531e-09
4.64446e-10
-4.71812e-09
5.52742e-09
1.35663e-09
-8.88871e-09
-4.76784e-10
8.00877e-09
-7.77164e-09
9.59272e-09
-7.17363e-09
7.88364e-09
9.61618e-10
-3.78573e-09
4.08817e-10
-5.34776e-09
-1.83008e-09
5.35215e-09
-3.11323e-09
3.04869e-09
-4.29587e-09
4.46886e-09
2.28953e-09
-3.70969e-09
2.41288e-09
2.19428e-09
-1.38235e-10
1.9093e-09
-4.7194e-09
-1.90799e-09
-1.28894e-11
-5.6323e-09
4.26161e-09
1.91413e-09
-1.46825e-09
-1.51369e-08
5.87963e-09
-8.02635e-09
1.72837e-08
1.95941e-09
-1.90394e-08
1.94317e-09
1.01954e-08
-1.03828e-08
2.1468e-09
6.55495e-10
1.54195e-08
-8.25898e-09
4.13152e-09
-3.78104e-09
7.90852e-09
-9.90082e-09
5.52374e-10
1.08945e-09
-1.0857e-08
-1.45637e-09
4.28711e-09
-1.18979e-08
-1.79986e-08
3.55607e-10
8.4279e-09
-7.5675e-09
-1.21595e-09
-8.68765e-09
-8.5754e-10
8.60269e-09
-9.84968e-09
1.79935e-09
1.33897e-08
-7.45702e-09
2.17011e-09
-5.09582e-09
3.1905e-09
-4.79537e-10
-1.88753e-08
4.74143e-09
-1.27885e-08
4.62812e-09
-8.57438e-09
-3.05146e-09
-4.34272e-09
5.67923e-09
-8.03749e-09
6.70104e-09
3.78457e-09
-4.31738e-10
-7.69546e-09
4.22366e-10
-2.86422e-09
-1.94799e-09
9.45772e-10
-1.46234e-08
1.18599e-08
1.81785e-09
-9.50354e-09
1.78637e-09
8.66308e-09
-6.07993e-09
-5.01349e-09
3.056e-09
-9.14356e-09
9.59389e-09
5.94753e-09
-6.39775e-09
-1.03986e-08
-3.93186e-10
-1.10882e-08
3.62777e-09
-2.04297e-09
-9.13857e-09
5.06656e-09
-2.00772e-09
5.38843e-09
-1.23376e-08
-2.1893e-09
-1.08227e-08
5.49074e-09
9.85106e-10
-6.41928e-09
-5.70378e-09
-7.93444e-09
-1.26639e-08
-4.12801e-09
-2.78409e-09
6.37067e-09
-6.91896e-09
3.33239e-09
-5.68107e-09
2.87296e-09
2.40353e-11
-3.06517e-09
-3.77457e-09
1.43666e-10
6.69609e-09
6.28958e-09
-2.98404e-09
6.57189e-09
-1.09952e-08
-1.25773e-09
-4.94073e-09
4.59371e-09
-1.17877e-09
2.77158e-10
3.78726e-09
-5.16382e-09
1.64822e-09
-2.716e-10
8.60476e-09
-4.67382e-09
2.97721e-09
-5.39345e-09
-5.63032e-09
1.67172e-09
6.93582e-09
3.66355e-09
-4.43986e-09
-4.85401e-09
2.37895e-09
1.0584e-10
5.49085e-09
-7.00759e-09
6.04619e-09
-4.52942e-09
1.102e-08
-5.60207e-09
7.30204e-11
6.62146e-10
8.56416e-09
1.79366e-09
6.27396e-09
-7.50574e-09
1.89396e-09
5.18959e-09
1.48771e-09
-2.5877e-09
-4.08959e-09
1.31583e-09
3.96595e-09
-9.21575e-11
-3.35161e-09
4.45084e-09
-6.70128e-09
8.34158e-10
-1.11934e-08
-9.08544e-09
1.45751e-09
-1.47448e-09
9.10241e-09
-6.20365e-10
-2.4189e-09
-4.97477e-11
1.00715e-08
-9.49061e-10
7.17332e-09
7.53632e-09
-5.68415e-09
-2.47254e-09
-1.94918e-10
6.25679e-09
3.69e-09
-5.87162e-09
-3.50253e-09
4.93475e-09
7.10964e-11
6.0317e-09
-1.20603e-09
-3.33794e-09
6.01993e-09
3.97775e-09
-7.62516e-09
-4.26093e-09
7.01598e-10
4.03828e-09
5.77249e-09
-1.76495e-08
-1.59398e-08
7.5725e-09
2.60168e-08
-9.72709e-09
-2.51633e-09
-5.40605e-09
1.96069e-08
-1.6249e-08
-1.3085e-08
-7.70471e-09
1.13718e-08
2.91908e-09
5.07385e-09
-9.93208e-09
1.93914e-09
1.3103e-08
-1.66656e-08
6.48167e-09
8.40386e-09
-1.55349e-08
2.0234e-08
-9.59496e-09
2.55713e-08
7.80728e-09
-6.45271e-09
-1.76035e-08
1.34399e-09
-1.24143e-09
-9.42823e-09
4.90714e-09
1.05409e-08
-9.44081e-09
-1.10321e-08
1.17436e-09
-7.2991e-09
-5.69946e-09
-8.66112e-09
2.94849e-09
8.80218e-09
-6.43105e-09
-1.65316e-09
-1.29234e-08
6.05304e-09
-4.06417e-09
-1.65389e-09
-3.34795e-10
7.38443e-09
1.02383e-08
-1.15696e-08
1.29352e-09
-1.51846e-09
-3.74161e-09
3.96655e-09
-6.42626e-10
-4.74637e-09
6.68258e-09
-1.52384e-09
-4.17108e-09
4.17638e-09
1.51264e-10
-5.37065e-09
3.69545e-09
-2.14429e-09
8.88606e-09
1.27383e-09
-1.52199e-09
-4.49809e-09
-2.51065e-09
4.28826e-11
4.7585e-09
-6.75155e-09
4.86446e-09
1.16562e-09
-7.29956e-09
1.26956e-09
3.05352e-09
-3.55973e-09
-9.8173e-10
-1.35804e-10
3.31267e-09
-3.88583e-09
1.73891e-09
-1.79736e-10
-2.50866e-09
2.51974e-09
9.37801e-09
-9.38903e-09
2.73733e-09
6.47114e-09
-1.17171e-08
2.09066e-09
-1.03854e-08
1.37573e-08
-9.14694e-09
7.99825e-09
-9.35647e-09
7.82936e-09
2.84055e-10
7.61041e-09
1.03789e-10
9.40802e-09
2.54046e-10
1.09624e-08
-4.50418e-09
6.96583e-09
1.64794e-09
-1.00335e-09
5.86706e-09
4.50856e-09
-9.67619e-10
1.76297e-10
5.52578e-09
1.64962e-10
6.69909e-09
4.43014e-10
1.05507e-08
4.92025e-09
-2.51974e-09
-1.41787e-09
9.46331e-09
-4.6899e-09
8.86925e-09
1.56145e-08
3.64682e-09
-6.39759e-09
-1.43847e-09
7.01581e-09
1.75309e-09
-7.3304e-09
4.05782e-09
1.0964e-09
-6.59261e-09
-8.82105e-09
2.47545e-09
1.13357e-08
-4.99017e-09
5.4094e-09
-1.01726e-08
-4.7002e-09
1.04282e-08
-3.25254e-09
7.90925e-09
-5.59364e-09
2.89763e-11
5.34408e-09
-3.61999e-09
-8.71082e-09
1.27497e-08
7.2969e-09
8.68228e-10
-4.16963e-09
8.88417e-09
-5.9781e-09
7.52212e-09
2.62241e-09
4.7632e-10
9.65102e-09
5.64046e-10
1.09426e-08
-1.53665e-09
4.43026e-09
-2.86464e-09
3.38532e-09
-3.82557e-09
2.24201e-10
1.70695e-09
-1.07755e-09
5.5496e-09
8.71998e-10
-1.88215e-09
-4.30038e-09
6.74664e-09
-6.88457e-09
5.47875e-09
-7.32282e-09
-3.414e-09
3.85229e-09
-3.00231e-09
-3.45227e-09
4.44876e-09
-4.06574e-09
1.03766e-09
-2.83333e-12
3.30404e-09
4.86877e-11
4.14658e-09
1.62724e-09
4.23006e-09
1.11664e-10
4.07628e-09
2.9601e-11
-3.68183e-09
3.57309e-09
7.91148e-11
-4.03714e-09
3.8273e-09
2.39463e-10
3.52874e-09
-1.24289e-09
-5.96755e-09
9.42936e-10
-1.45133e-09
-6.95516e-09
2.49532e-09
1.04635e-08
-6.00364e-09
9.1894e-10
-4.30105e-09
-4.67365e-09
-4.93504e-09
1.05276e-08
3.02625e-09
-2.3032e-09
3.10423e-09
2.45527e-09
1.62615e-09
-5.32428e-09
3.41078e-09
-1.25916e-11
4.92465e-09
-7.9722e-09
6.10906e-09
-3.14236e-09
1.95788e-09
3.37953e-09
-7.90394e-11
2.80852e-09
-2.34766e-09
7.86919e-09
1.17558e-09
-6.80805e-11
-4.48353e-09
1.44042e-09
-9.92391e-11
-6.83712e-09
-5.6186e-09
-3.07538e-09
4.10721e-09
5.80464e-11
6.88016e-09
-6.44579e-09
-7.48874e-11
-3.59443e-10
5.07161e-10
8.55918e-09
-2.18612e-09
-7.08095e-09
-7.56193e-09
8.19708e-09
4.41354e-09
-8.89793e-10
3.58478e-09
-7.10851e-09
2.63321e-10
-2.93076e-09
-4.97824e-09
-9.60534e-10
6.44595e-09
-4.37415e-09
-6.78951e-10
-6.98474e-11
-8.201e-09
6.46843e-09
1.80247e-09
-9.64984e-10
-4.48531e-09
4.48979e-09
-5.91079e-09
4.87599e-09
2.36744e-09
3.19494e-09
-6.45214e-09
-8.45912e-10
-3.7703e-09
2.82714e-09
4.53994e-09
-4.99965e-09
4.85842e-09
-1.76794e-09
2.03074e-09
-5.81753e-09
-2.12397e-09
-2.5689e-09
1.14336e-10
-3.46849e-09
-2.00026e-09
2.48453e-09
-2.9247e-11
-1.45913e-09
-4.55795e-09
-3.32773e-10
-1.34227e-08
-1.59934e-09
4.05545e-09
1.09666e-08
-1.34498e-09
-7.91514e-09
-4.16259e-09
8.49995e-09
-5.76474e-09
-4.08021e-09
1.7359e-09
5.1647e-09
5.21541e-09
3.31048e-09
2.41772e-09
-1.09436e-08
2.53206e-09
-3.08142e-09
7.54036e-09
4.02954e-09
-8.25942e-09
3.50353e-09
-6.77967e-10
4.71479e-09
-1.16395e-08
6.14206e-09
5.76578e-09
2.69795e-10
-4.57579e-09
1.04904e-08
-1.88503e-09
1.49254e-09
1.29614e-08
-1.03985e-08
2.43141e-09
5.07023e-09
1.22253e-08
-8.30141e-09
-5.0543e-09
1.26836e-09
1.99746e-10
4.0697e-09
-6.07633e-09
2.19998e-09
-1.93386e-10
-2.08676e-09
-2.81166e-09
4.59711e-09
3.01279e-10
2.11615e-09
-4.20283e-09
-9.17441e-14
4.83897e-09
-2.70324e-09
-1.94797e-11
-2.50881e-09
5.02009e-09
-2.54347e-09
3.21774e-11
-5.0609e-09
2.75378e-09
-2.01604e-10
-8.48395e-10
-5.57073e-09
6.18752e-09
2.3137e-10
-6.23851e-09
5.23676e-09
1.53225e-10
2.4881e-09
2.45344e-09
-4.70706e-09
-2.34554e-10
1.52689e-09
-5.12007e-09
3.68161e-09
-8.84896e-11
4.0471e-09
-3.20592e-11
2.90312e-09
2.34136e-09
-5.31888e-09
7.44146e-11
-2.17366e-09
4.86173e-09
2.14974e-10
2.64557e-09
-4.79302e-09
-2.63204e-11
1.01368e-09
-4.38125e-09
3.90047e-09
-5.32864e-10
5.96984e-09
-4.21228e-09
-7.43899e-10
-1.7872e-09
4.82617e-09
-3.23043e-09
1.91475e-10
3.09826e-09
-4.96691e-09
8.14708e-11
-1.79082e-09
4.71481e-09
1.74207e-10
-1.47262e-09
4.53401e-09
4.29329e-11
3.87849e-09
-5.27382e-09
-7.72068e-11
5.77305e-10
2.88788e-09
-3.59025e-09
1.25127e-10
3.50756e-09
-3.111e-09
1.80779e-10
5.1083e-09
-1.68244e-09
8.16374e-11
-2.09968e-09
4.7619e-09
2.25677e-10
-1.8537e-11
4.95398e-09
-4.66536e-09
-2.70076e-10
-4.8685e-09
5.11596e-09
-2.65989e-10
4.89331e-09
-6.83625e-09
1.90315e-09
3.97633e-11
-1.02435e-09
5.63557e-09
2.82039e-10
7.42316e-09
-8.81739e-09
3.69849e-10
-1.69761e-09
5.21822e-09
-3.74139e-09
2.20808e-10
3.28034e-09
-5.03757e-09
5.96287e-11
2.00828e-09
2.59472e-09
-4.26565e-09
-3.37375e-10
4.33821e-09
-2.24454e-09
-8.54194e-11
1.49171e-09
3.15946e-09
-4.42869e-09
-2.22531e-10
4.31982e-09
-2.69572e-09
-1.32479e-10
7.50861e-09
-7.53508e-09
-2.42222e-10
2.68682e-10
-1.17884e-09
-3.62614e-09
4.22468e-09
5.80302e-10
3.14408e-09
-4.9776e-09
6.54729e-10
6.9067e-09
4.6891e-09
-8.45176e-09
3.72105e-09
-5.65492e-09
2.08999e-09
-1.56083e-10
-8.71558e-11
3.86386e-09
-5.56469e-11
4.02172e-09
-4.02023e-09
-8.86523e-11
-1.6621e-09
-4.74264e-09
6.75937e-09
-3.5477e-10
-5.18914e-09
4.00446e-09
-4.77558e-10
3.27933e-09
-3.76411e-09
1.80482e-10
3.04304e-10
4.04459e-10
2.93086e-09
-3.47883e-09
1.435e-10
3.49865e-09
1.85135e-10
-2.33481e-09
4.94597e-09
3.19687e-10
2.99155e-09
1.39358e-09
-4.6155e-09
2.30419e-10
4.28652e-09
-3.68104e-10
-4.0924e-09
1.73977e-10
1.18744e-09
2.97731e-09
1.21803e-10
3.91978e-09
2.59237e-10
3.9016e-09
2.91987e-12
-3.60796e-09
-2.96572e-10
-8.14173e-11
-3.25847e-09
3.53975e-09
-1.99877e-10
4.02069e-09
-2.00526e-10
2.21991e-09
-5.0201e-09
2.87611e-09
-7.59239e-11
-2.42129e-09
4.63553e-09
5.67679e-12
-4.82915e-09
2.76219e-09
-3.54311e-10
-1.16639e-09
4.39232e-09
-3.14004e-09
-8.59593e-11
-4.13782e-09
3.15143e-09
-1.79994e-10
1.40254e-09
1.59915e-09
-3.07765e-09
7.60319e-11
-1.96499e-09
3.11894e-09
2.48619e-10
2.90697e-09
-1.36686e-09
5.90419e-11
-5.19044e-09
5.56803e-09
-2.34255e-09
6.12999e-10
-4.24805e-09
3.56319e-09
7.1956e-11
5.4517e-09
-5.0669e-09
2.28241e-10
-2.89252e-09
4.99989e-09
-2.12544e-09
1.80846e-11
-2.15468e-09
-3.99864e-09
6.03834e-09
1.14975e-10
-4.87733e-09
-1.69872e-10
8.17967e-10
-4.80248e-09
1.50721e-10
-3.79082e-09
4.36717e-09
2.41614e-10
-4.87319e-09
9.46284e-10
1.36083e-10
2.95167e-09
1.16635e-09
-3.98245e-09
-1.35602e-10
-1.31211e-09
4.35486e-09
-9.10678e-11
-4.53917e-09
3.49551e-09
-2.68469e-10
-1.20101e-09
-3.4098e-09
4.52958e-09
8.12182e-11
2.34846e-09
-3.55842e-09
8.94143e-12
3.97791e-09
-1.80121e-09
1.71749e-10
-1.34924e-09
-1.71218e-09
-1.08417e-10
-3.74178e-09
2.62221e-09
-2.29664e-10
1.13903e-09
3.54073e-09
-4.58215e-09
-9.76271e-11
5.07988e-09
3.69095e-11
-1.33916e-09
3.93635e-09
-2.67492e-09
7.77082e-11
2.75455e-09
-4.01566e-09
-7.80586e-11
1.14163e-09
3.40417e-09
-4.30991e-09
-2.35895e-10
-3.36862e-09
4.56271e-09