/*--------------------------------*- C++ -*----------------------------------*\
| =========                 |                                                 |
| \\      /  F ield         | OpenFOAM: The Open Source CFD Toolbox           |
|  \\    /   O peration     | Version:  v1612+                                |
|   \\  /    A nd           | Web:      www.OpenFOAM.com                      |
|    \\/     M anipulation  |                                                 |
\*---------------------------------------------------------------------------*/
FoamFile
{
    version     2.0;
    format      ascii;
    class       volScalarField;
    location    "166";
    object      p;
}
// * * * * * * * * * * * * * * * * * * * * * * * * * * * * * * * * * * * * * //

dimensions      [0 2 -2 0 0 0 0];

internalField   nonuniform List<scalar> 
17032
(
2.64004
2.72331
2.7024
2.7119
2.71364
2.71043
2.70415
2.71917
2.72197
2.69842
2.70737
2.70793
2.70618
2.70198
2.70648
2.71779
2.70974
2.71137
2.70295
2.7075
2.71716
2.71461
2.72167
2.71185
2.72467
2.72481
2.71382
2.722
2.71317
2.72411
2.72281
2.7174
2.71978
2.71898
2.64677
2.64287
2.63778
2.64594
2.64875
2.63637
2.65023
2.65723
2.65937
2.654
2.65811
2.66009
2.65473
2.65997
2.66063
2.65238
2.68729
2.69349
2.67442
2.66611
2.67256
2.66413
2.66387
2.66245
2.65573
2.64456
2.65175
2.67251
2.63556
2.63823
2.66302
2.66908
2.66306
2.66582
2.64795
2.64041
2.64235
2.65517
2.65788
2.66216
2.652
2.65349
2.65413
2.66383
2.6539
2.64968
2.65492
2.66497
2.66791
2.66001
2.65445
2.66055
2.65652
2.61126
2.60923
2.61568
2.62582
2.6075
2.62141
2.62267
2.62067
2.63007
2.61124
2.61807
2.62794
2.71355
2.70339
2.72113
2.70591
2.71429
2.71997
2.72968
2.70667
2.71981
2.72199
2.70385
2.71233
2.7008
2.72148
2.58399
2.58706
2.5912
2.58573
2.5925
2.58938
2.58769
2.58244
2.58316
2.5874
2.58807
2.58056
2.58703
2.5847
2.58965
2.59208
2.61313
2.61491
2.61103
2.61504
2.61381
2.61825
2.61686
2.61473
2.6081
2.61424
2.61024
2.60964
2.61578
2.61911
2.62409
2.63798
2.60594
2.60604
2.63506
2.63805
2.62819
2.63678
2.61997
2.63513
2.62412
2.63657
2.64578
2.65662
2.64037
2.64518
2.65669
2.60917
2.60822
2.60825
2.61437
2.61566
2.6069
2.61256
2.61751
2.61959
2.61732
2.61558
2.61462
2.61589
2.6077
2.60694
2.5667
2.56724
2.5645
2.56289
2.55875
2.55796
2.55861
2.55553
2.5599
2.55928
2.55633
2.56063
2.56301
2.56524
2.55198
2.5585
2.55921
2.55402
2.55345
2.55899
2.55375
2.6649
2.66988
2.6615
2.65508
2.66044
2.67722
2.68076
2.66401
2.66688
2.66572
2.66798
2.66665
2.68055
2.6756
2.69342
2.67196
2.65627
2.67474
2.66539
2.67201
2.67985
2.69102
2.60586
2.61723
2.61149
2.61475
2.60056
2.62259
2.61872
2.62706
2.62368
2.61394
2.60095
2.59736
2.61256
2.60945
2.59614
2.60126
2.59841
2.59832
2.5869
2.59303
2.60113
2.59866
2.60024
2.58783
2.57935
2.59993
2.60052
2.60282
2.59588
2.64595
2.63878
2.6456
2.6353
2.63902
2.62888
2.62816
2.63048
2.63133
2.63339
2.62229
2.62647
2.62556
2.62232
2.62531
2.62187
2.63423
2.63224
2.63121
2.64791
2.6317
2.63493
2.64096
2.63794
2.65019
2.65715
2.64783
2.65224
2.69265
2.7027
2.70458
2.70359
2.6996
2.69947
2.70493
2.70277
2.70429
2.70758
2.70451
2.71304
2.72138
2.7216
2.70912
2.70627
2.71343
2.59707
2.59601
2.59725
2.59664
2.5976
2.59301
2.59535
2.59164
2.59968
2.59139
2.59441
2.6019
2.60092
2.60211
2.59266
2.59788
2.59883
2.60029
2.56733
2.57571
2.56492
2.5716
2.56334
2.56442
2.56223
2.5612
2.57668
2.57015
2.56796
2.5679
2.5725
2.56734
2.56814
2.56313
2.56636
2.56
2.56156
2.56343
2.56193
2.57464
2.56903
2.56904
2.57188
2.67619
2.68382
2.66805
2.66735
2.68283
2.69448
2.69418
2.69775
2.69014
2.69277
2.67826
2.67417
2.67589
2.68162
2.63937
2.64422
2.62876
2.63541
2.63962
2.63809
2.65039
2.63834
2.63724
2.65465
2.65086
2.64987
2.64845
2.64561
2.64608
2.59811
2.60064
2.59584
2.59783
2.5942
2.59434
2.59164
2.59199
2.59339
2.58992
2.59452
2.58765
2.58942
2.59277
2.59773
2.59554
2.59337
2.58455
2.58848
2.58894
2.59729
2.60559
2.61195
2.59289
2.59017
2.61678
2.60436
2.6022
2.62141
2.61774
2.6144
2.59985
2.606
2.57347
2.57736
2.5845
2.57143
2.57593
2.57828
2.58324
2.58622
2.57829
2.57713
2.57618
2.58849
2.57847
2.58182
2.58385
2.58413
2.60589
2.60939
2.61101
2.61031
2.60242
2.60744
2.60611
2.6025
2.59878
2.59732
2.60296
2.60528
2.59741
2.60151
2.60976
2.6067
2.61467
2.60267
2.61143
2.61706
2.61815
2.62175
2.6031
2.60227
2.61672
2.61582
2.62092
2.61335
2.5999
2.60445
2.643
2.65786
2.64253
2.6509
2.66476
2.65508
2.67012
2.63157
2.63745
2.64148
2.64821
2.62688
2.63739
2.53135
2.54234
2.53868
2.53392
2.55186
2.56041
2.55525
2.55175
2.56417
2.55707
2.55611
2.54489
2.55167
2.56921
2.56342
2.54662
2.54578
2.54868
2.54841
2.55185
2.55484
2.55938
2.60519
2.61261
2.62741
2.62326
2.61773
2.63333
2.61553
2.6107
2.62538
2.61899
2.62294
2.6058
2.61417
2.6158
2.61935
2.6113
2.6149
2.61629
2.62111
2.62053
2.61797
2.61963
2.62106
2.6201
2.61367
2.61074
2.61165
2.61981
2.59936
2.59668
2.59475
2.60071
2.60367
2.60505
2.5999
2.59317
2.6023
2.60405
2.59286
2.59535
2.59253
2.59023
2.59285
2.59783
2.60135
2.58987
2.58971
2.59533
2.59812
2.63324
2.63683
2.63541
2.63297
2.63563
2.63131
2.63383
2.63897
2.64083
2.63776
2.63891
2.63406
2.63452
2.63778
2.53913
2.53454
2.53696
2.5302
2.53917
2.54155
2.54074
2.536
2.54932
2.54148
2.54638
2.54282
2.5419
2.53918
2.54368
2.54206
2.53707
2.56496
2.56033
2.56474
2.56141
2.56589
2.56498
2.55632
2.56527
2.56332
2.56193
2.55664
2.55596
2.56538
2.55861
2.55753
2.61504
2.63381
2.64907
2.62401
2.63048
2.63793
2.63304
2.63811
2.63397
2.60914
2.61182
2.60877
2.61025
2.62409
2.62469
2.61372
2.61549
2.63214
2.61292
2.60914
2.6037
2.60358
2.62339
2.62913
2.62117
2.6226
2.55655
2.55711
2.55256
2.55417
2.55206
2.55583
2.54743
2.55023
2.54097
2.54432
2.54971
2.55456
2.55202
2.55217
2.54349
2.5506
2.54837
2.7112
2.7128
2.70768
2.70736
2.71132
2.71893
2.72217
2.70383
2.70121
2.70072
2.7016
2.70033
2.70352
2.70724
2.71815
2.71266
2.51952
2.52151
2.52388
2.52106
2.52368
2.5257
2.52498
2.52211
2.52556
2.52852
2.53303
2.52671
2.52493
2.52131
2.51796
2.52197
2.53077
2.52954
2.52476
2.52982
2.52841
2.58235
2.59585
2.59958
2.58795
2.59387
2.59244
2.59416
2.58664
2.59162
2.58806
2.58368
2.59146
2.58439
2.5832
2.57704
2.58678
2.58333
2.58368
2.57837
2.58511
2.5872
2.58202
2.56132
2.56397
2.55685
2.55573
2.55993
2.55836
2.54995
2.54961
2.5546
2.56079
2.55896
2.56469
2.55513
2.56058
2.56523
2.55938
2.55552
2.55971
2.55177
2.5517
2.55303
2.56394
2.55801
2.55476
2.54605
2.54605
2.54734
2.57039
2.57019
2.56673
2.56524
2.56312
2.56466
2.56729
2.57037
2.57033
2.57464
2.57142
2.5688
2.56867
2.57594
2.57354
2.57069
2.561
2.55203
2.55618
2.56544
2.56261
2.55991
2.55801
2.56509
2.56347
2.56383
2.56462
2.56004
2.56221
2.57365
2.59105
2.58018
2.59325
2.59032
2.59823
2.57329
2.59184
2.58744
2.5851
2.57378
2.60345
2.59495
2.59942
2.57439
2.58826
2.58804
2.58976
2.5938
2.60037
2.59186
2.60058
2.59031
2.59046
2.58927
2.58491
2.59223
2.5942
2.59818
2.5863
2.59908
2.59759
2.5961
2.59426
2.63539
2.63793
2.63193
2.62615
2.64675
2.6406
2.62493
2.62539
2.63193
2.62228
2.62284
2.63145
2.61127
2.61003
2.64075
2.63182
2.61906
2.62352
2.62078
2.55053
2.54979
2.54728
2.54954
2.55225
2.55005
2.55585
2.55667
2.55397
2.55234
2.55378
2.55433
2.54919
2.54806
2.55788
2.55198
2.55058
2.55346
2.55393
2.55607
2.59896
2.60129
2.59021
2.58596
2.57848
2.60579
2.60382
2.59393
2.59549
2.58529
2.57876
2.58112
2.58567
2.59727
2.58524
2.57913
2.58445
2.55924
2.56353
2.56422
2.56222
2.56075
2.56187
2.57592
2.56715
2.56091
2.56774
2.56774
2.5711
2.56365
2.56949
2.6203
2.62461
2.61999
2.62262
2.62448
2.62032
2.61695
2.6185
2.61914
2.61824
2.62029
2.62267
2.61508
2.62421
2.62029
2.62003
2.61657
2.65797
2.65355
2.65831
2.65491
2.64886
2.65211
2.64953
2.63336
2.62746
2.64494
2.64341
2.63443
2.64076
2.62733
2.63927
2.60452
2.60935
2.61012
2.60769
2.59843
2.60107
2.60673
2.60529
2.61211
2.61296
2.61069
2.60893
2.60958
2.60999
2.60959
2.60966
2.60145
2.59605
2.60329
2.60988
2.59983
2.6062
2.60463
2.60514
2.53228
2.53284
2.53634
2.53679
2.53205
2.52992
2.52633
2.53421
2.53109
2.53526
2.53189
2.53389
2.52304
2.52186
2.53305
2.52712
2.53176
2.52793
2.53117
2.63405
2.63409
2.63575
2.63347
2.63199
2.64016
2.64028
2.63831
2.64014
2.6315
2.63316
2.63226
2.63518
2.6376
2.63871
2.63831
2.63194
2.63237
2.64092
2.64113
2.64252
2.63504
2.63913
2.63536
2.64472
2.72883
2.72538
2.72247
2.71936
2.67887
2.68622
2.68692
2.67064
2.67655
2.70889
2.69813
2.70037
2.66576
2.66257
2.66595
2.66298
2.64848
2.66254
2.73643
2.74528
2.74273
2.63387
2.62365
2.6295
2.63053
2.60399
2.59944
2.58869
2.5368
2.53869
2.5351
2.53126
2.53406
2.53559
2.53259
2.5917
2.58928
2.58636
2.753
2.74757
2.75087
2.71124
2.70565
2.70377
2.57257
2.57019
2.54875
2.55493
2.62724
2.61364
2.60736
2.59335
2.55229
2.54947
2.5472
2.55251
2.6622
2.66126
2.64419
2.64557
2.64059
2.62675
2.62407
2.62187
2.5421
2.54272
2.55137
2.57759
2.57327
2.5771
2.57394
2.5743
2.57787
2.57445
2.57787
2.63479
2.64028
2.64632
2.65913
2.63167
2.62956
2.64584
2.66613
2.66162
2.67484
2.68099
2.5899
2.58778
2.59294
2.65044
2.6548
2.65255
2.65449
2.56568
2.5616
2.56191
2.62219
2.61639
2.70711
2.71133
2.62535
2.62665
2.6932
2.68853
2.69723
2.60634
2.60863
2.61471
2.61405
2.61066
2.69565
2.62101
2.61781
2.61553
2.52261
2.51716
2.51883
2.68646
2.67961
2.6848
2.67589
2.67438
2.64374
2.63732
2.63948
2.62976
2.63703
2.63444
2.7086
2.71313
2.71428
2.72314
2.59983
2.60341
2.60128
2.6023
2.59038
2.55381
2.5542
2.59142
2.59041
2.61203
2.61066
2.72668
2.72348
2.66765
2.67162
2.61744
2.62781
2.62216
2.62581
2.58707
2.58547
2.62781
2.61684
2.62174
2.7308
2.72047
2.72774
2.68506
2.68825
2.61671
2.60903
2.60799
2.5878
2.58882
2.56383
2.5658
2.56801
2.56997
2.56048
2.56552
2.56653
2.58553
2.58593
2.58025
2.58764
2.58477
2.58711
2.5802
2.60638
2.60643
2.61034
2.60811
2.6016
2.60372
2.60117
2.60402
2.68231
2.69819
2.69483
2.64929
2.64814
2.59387
2.5944
2.58566
2.58124
2.58391
2.59833
2.59059
2.5941
2.58675
2.58558
2.58786
2.58174
2.58512
2.57844
2.57994
2.58571
2.57835
2.58413
2.58815
2.58367
2.57059
2.56449
2.57029
2.57674
2.57489
2.57841
2.5759
2.57626
2.60441
2.59993
2.5938
2.59414
2.59738
2.60291
2.59785
2.67852
2.6763
2.67654
2.66291
2.66243
2.65702
2.65181
2.65234
2.64673
2.64959
2.64846
2.63448
2.63617
2.63403
2.64006
2.63311
2.62605
2.62204
2.63645
2.62709
2.63822
2.63998
2.64107
2.63058
2.64127
2.63448
2.63563
2.62317
2.62655
2.67179
2.65989
2.66497
2.66021
2.65085
2.64692
2.64444
2.65373
2.69327
2.69826
2.69456
2.69159
2.70374
2.70797
2.69719
2.70345
2.64961
2.64592
2.65257
2.68577
2.68843
2.68235
2.69448
2.69273
2.69361
2.68694
2.6572
2.66059
2.67746
2.67102
2.67774
2.67145
2.67018
2.67864
2.67902
2.67209
2.59483
2.60116
2.59982
2.59967
2.5978
2.60157
2.59889
2.60114
2.60251
2.61152
2.60816
2.60475
2.60907
2.61155
2.61719
2.61064
2.60815
2.61028
2.608
2.61265
2.61528
2.61027
2.60897
2.60232
2.59445
2.60261
2.60316
2.60272
2.6024
2.6047
2.57084
2.57208
2.57213
2.57264
2.57506
2.59663
2.59353
2.58848
2.58797
2.59757
2.61282
2.61355
2.60697
2.59963
2.59048
2.58805
2.60705
2.58999
2.59599
2.61229
2.59728
2.58664
2.59488
2.5913
2.58924
2.56501
2.57949
2.58214
2.58593
2.58469
2.55633
2.5643
2.56332
2.73495
2.74196
2.74093
2.74805
2.57497
2.56856
2.5715
2.57534
2.5524
2.55569
2.55821
2.56045
2.56073
2.56623
2.57137
2.56991
2.57765
2.56996
2.57151
2.56579
2.56818
2.55713
2.56389
2.56588
2.55971
2.56283
2.56285
2.57726
2.57499
2.57101
2.57406
2.57761
2.57319
2.57459
2.56964
2.57279
2.57266
2.57411
2.56891
2.5706
2.56918
2.57281
2.56837
2.56845
2.5693
2.5695
2.55647
2.5544
2.55536
2.6481
2.64922
2.65943
2.66428
2.64128
2.59573
2.58091
2.58656
2.5965
2.58911
2.63056
2.61577
2.60443
2.61655
2.60642
2.61332
2.6043
2.66235
2.6527
2.67728
2.6808
2.67434
2.69096
2.69896
2.69232
2.69932
2.70537
2.68369
2.73264
2.72898
2.73266
2.70649
2.70149
2.70817
2.72676
2.73012
2.71579
2.72635
2.71956
2.71046
2.69706
2.71266
2.69893
2.71603
2.7107
2.71857
2.72442
2.71545
2.7215
2.7197
2.72594
2.72608
2.73342
2.72085
2.73041
2.73251
2.73095
2.72237
2.73168
2.61006
2.61151
2.60897
2.60854
2.61759
2.61502
2.61442
2.62833
2.61804
2.61529
2.59195
2.58892
2.58801
2.592
2.59833
2.59924
2.60001
2.59735
2.58874
2.58973
2.59118
2.58844
2.58664
2.58855
2.5908
2.55414
2.6538
2.65047
2.63722
2.63342
2.62592
2.64027
2.64914
2.63334
2.63028
2.63386
2.61696
2.61585
2.63292
2.62863
2.62989
2.63513
2.61651
2.61211
2.61511
2.60792
2.61245
2.61859
2.61634
2.60316
2.59901
2.60483
2.63993
2.64484
2.63752
2.65331
2.6435
2.64261
2.65762
2.65393
2.66069
2.6433
2.65724
2.68503
2.68236
2.67224
2.67382
2.67169
2.65736
2.64993
2.66917
2.66284
2.65846
2.652
2.64869
2.6575
2.65759
2.71297
2.71827
2.70248
2.68676
2.69867
2.70082
2.70362
2.74253
2.7342
2.72652
2.72601
2.72118
2.70925
2.71604
2.72698
2.69154
2.69334
2.72595
2.72583
2.71523
2.70647
2.71804
2.63748
2.65076
2.63997
2.59411
2.59224
2.58328
2.56599
2.55828
2.5842
2.58163
2.57111
2.57323
2.59834
2.59228
2.59466
2.58738
2.58558
2.60558
2.62374
2.62364
2.60729
2.601
2.60724
2.60457
2.60243
2.55723
2.54734
2.54385
2.54637
2.55437
2.54987
2.54158
2.53976
2.5457
2.55816
2.55522
2.55186
2.53748
2.54419
2.54374
2.53738
2.53592
2.53792
2.54679
2.54823
2.54201
2.54107
2.54784
2.59606
2.58335
2.57973
2.57253
2.56073
2.55805
2.57226
2.56446
2.56297
2.55806
2.56311
2.55451
2.5854
2.57442
2.56983
2.57898
2.57487
2.58874
2.59046
2.58992
2.59102
2.5951
2.59257
2.59196
2.60403
2.59245
2.587
2.5857
2.59871
2.59977
2.62085
2.62203
2.62747
2.60851
2.60917
2.59784
2.59396
2.59736
2.60804
2.61126
2.60781
2.6032
2.60232
2.72749
2.72088
2.72551
2.71506
2.71943
2.71286
2.72228
2.71556
2.71862
2.70711
2.71091
2.7053
2.72141
2.71807
2.72327
2.71094
2.7243
2.70517
2.71474
2.69738
2.71224
2.7014
2.71071
2.71351
2.67892
2.67869
2.70864
2.70388
2.71434
2.72115
2.707
2.72195
2.71223
2.70047
2.62639
2.62575
2.63261
2.62309
2.62554
2.6284
2.62529
2.63528
2.62636
2.62929
2.65309
2.64628
2.65914
2.64528
2.64821
2.63897
2.63308
2.64193
2.63621
2.62962
2.6353
2.63351
2.6309
2.64413
2.64344
2.64151
2.63517
2.63407
2.6483
2.65234
2.64454
2.6387
2.6468
2.63777
2.63933
2.63901
2.63999
2.63634
2.63225
2.62855
2.62853
2.625
2.62487
2.62765
2.63721
2.63568
2.63058
2.63309
2.6956
2.70759
2.69626
2.70432
2.67065
2.67986
2.68173
2.67987
2.69048
2.68874
2.67947
2.67691
2.67606
2.70931
2.69726
2.69552
2.7173
2.72005
2.7088
2.71432
2.7119
2.69318
2.70473
2.69368
2.7021
2.69045
2.69409
2.68173
2.70506
2.70618
2.69211
2.68367
2.67977
2.67045
2.68247
2.67427
2.68614
2.69936
2.66573
2.69538
2.51222
2.51402
2.51372
2.51839
2.52882
2.52578
2.52495
2.51958
2.52418
2.5283
2.52286
2.52386
2.52739
2.52635
2.5248
2.52546
2.5283
2.52094
2.72275
2.72478
2.732
2.73014
2.71503
2.6163
2.62631
2.61931
2.61408
2.61591
2.61711
2.61364
2.61445
2.61448
2.61866
2.61268
2.61014
2.60561
2.61216
2.61512
2.61331
2.61271
2.61108
2.61018
2.62062
2.60608
2.60364
2.60134
2.70768
2.6966
2.70535
2.71023
2.68813
2.68373
2.69189
2.68769
2.68816
2.70101
2.68667
2.67787
2.67267
2.66503
2.65654
2.67918
2.68117
2.68369
2.68496
2.70772
2.7114
2.70031
2.699
2.72081
2.71107
2.69413
2.69842
2.71055
2.70128
2.72028
2.72445
2.70953
2.71621
2.70476
2.72373
2.72266
2.63185
2.63231
2.63106
2.6333
2.63134
2.62496
2.63231
2.63086
2.62969
2.6295
2.69151
2.70049
2.69747
2.70787
2.70402
2.70384
2.69048
2.7145
2.70556
2.72054
2.72037
2.72003
2.71915
2.7152
2.71612
2.70869
2.71243
2.69911
2.62625
2.63623
2.63704
2.63336
2.60559
2.61134
2.61139
2.61618
2.62391
2.62935
2.6193
2.63471
2.63602
2.62207
2.61089
2.60913
2.61152
2.60784
2.6081
2.6119
2.6104
2.61136
2.6088
2.61077
2.60596
2.60241
2.63996
2.63369
2.64577
2.63891
2.64875
2.62111
2.62965
2.62576
2.62731
2.62569
2.63381
2.6255
2.55013
2.55457
2.55367
2.54819
2.55088
2.55155
2.5468
2.55185
2.56789
2.56638
2.56615
2.56354
2.5617
2.55813
2.55896
2.55654
2.55442
2.5548
2.65162
2.65378
2.66198
2.64557
2.64336
2.65481
2.64672
2.65007
2.64393
2.6461
2.64885
2.67886
2.65563
2.67231
2.6762
2.66672
2.66441
2.65725
2.65793
2.65124
2.66711
2.65573
2.67659
2.66462
2.67225
2.67075
2.6813
2.67973
2.66659
2.6644
2.68926
2.68388
2.58234
2.58469
2.58463
2.58072
2.58155
2.69921
2.7121
2.68517
2.69175
2.69633
2.68488
2.68225
2.67561
2.68453
2.68351
2.69159
2.6649
2.66342
2.67612
2.67281
2.66654
2.66172
2.66159
2.63686
2.63642
2.63318
2.63882
2.63429
2.63416
2.62376
2.62893
2.62998
2.63176
2.63339
2.63364
2.6335
2.63122
2.63283
2.63137
2.61716
2.61683
2.62493
2.61618
2.61661
2.62489
2.62583
2.62618
2.62565
2.62529
2.6255
2.62422
2.62436
2.62884
2.6255
2.62955
2.62609
2.62631
2.63675
2.63525
2.63217
2.63056
2.62953
2.63005
2.63325
2.68637
2.6883
2.69174
2.68567
2.64731
2.64732
2.65532
2.62784
2.63765
2.63646
2.63162
2.68109
2.67161
2.68144
2.67198
2.66902
2.6314
2.63635
2.63936
2.64975
2.63102
2.61283
2.61927
2.63535
2.62684
2.62242
2.65628
2.66028
2.64903
2.64625
2.63757
2.62815
2.63484
2.74503
2.74171
2.75341
2.74858
2.74184
2.73795
2.74572
2.73899
2.73453
2.75204
2.74404
2.7533
2.7547
2.51924
2.51738
2.57111
2.56441
2.56628
2.57108
2.56548
2.56954
2.57167
2.5677
2.56953
2.58068
2.5792
2.58366
2.5852
2.58435
2.58552
2.58665
2.54578
2.54661
2.54728
2.53898
2.55004
2.55046
2.53491
2.54007
2.54036
2.53584
2.54165
2.54019
2.51663
2.51127
2.51316
2.52323
2.62189
2.62215
2.61726
2.62846
2.62321
2.62043
2.62407
2.61999
2.61985
2.61825
2.63626
2.63479
2.63495
2.62561
2.63067
2.63125
2.6289
2.627
2.63064
2.62728
2.63411
2.63442
2.66134
2.66642
2.65289
2.65045
2.64632
2.66111
2.65173
2.64669
2.64879
2.63319
2.58743
2.53994
2.54191
2.58604
2.56268
2.57378
2.59404
2.60039
2.66016
2.65225
2.62734
2.63307
2.65075
2.63534
2.63663
2.5854
2.57455
2.56156
2.57299
2.55715
2.55771
2.55763
2.57228
2.57973
2.58483
2.57909
2.57868
2.57547
2.57118
2.56492
2.57322
2.57141
2.70628
2.71189
2.69708
2.71158
2.69853
2.7009
2.70905
2.7068
2.70049
2.73926
2.73125
2.7438
2.73419
2.73168
2.74285
2.74314
2.73851
2.73665
2.74675
2.73652
2.74085
2.73964
2.74784
2.7396
2.74164
2.74757
2.74952
2.7417
2.74681
2.74137
2.58305
2.58398
2.58746
2.58076
2.57885
2.59457
2.59336
2.59739
2.59146
2.59359
2.59722
2.5968
2.59211
2.59469
2.58656
2.5897
2.58998
2.59055
2.52791
2.53118
2.53209
2.52542
2.52032
2.52899
2.52339
2.54691
2.54372
2.53801
2.53799
2.54112
2.54491
2.54567
2.54396
2.54568
2.54268
2.53384
2.5358
2.53719
2.53734
2.54009
2.6131
2.61999
2.60578
2.61582
2.59854
2.61655
2.62164
2.60556
2.60355
2.60781
2.60531
2.60579
2.63605
2.63139
2.63594
2.6318
2.6379
2.62583
2.62748
2.63431
2.72873
2.7358
2.7446
2.73196
2.73577
2.73025
2.73381
2.73666
2.73541
2.73624
2.72915
2.7455
2.73333
2.73933
2.64115
2.64879
2.64634
2.64806
2.648
2.65491
2.64531
2.64866
2.64834
2.68791
2.69377
2.68032
2.66098
2.68658
2.66104
2.68477
2.67157
2.67706
2.66993
2.6832
2.67308
2.67971
2.67957
2.67816
2.67041
2.68612
2.69114
2.6505
2.64753
2.65263
2.6541
2.64142
2.64362
2.65171
2.63357
2.63792
2.65199
2.65574
2.65226
2.64035
2.63552
2.64562
2.6531
2.65697
2.65911
2.68544
2.66076
2.67796
2.66663
2.67599
2.66309
2.65785
2.7052
2.72857
2.71292
2.72627
2.71198
2.71963
2.70987
2.71694
2.73454
2.72431
2.72956
2.70912
2.72806
2.72042
2.73328
2.73197
2.72476
2.6282
2.6317
2.63252
2.62859
2.63059
2.62042
2.6183
2.61683
2.62001
2.62059
2.62236
2.61781
2.62076
2.63078
2.62783
2.62828
2.62691
2.62927
2.63352
2.63609
2.63234
2.62516
2.62149
2.62616
2.62151
2.61931
2.62462
2.62945
2.62281
2.71244
2.71471
2.71725
2.71924
2.70783
2.70488
2.70733
2.69267
2.68368
2.70511
2.69701
2.6969
2.67851
2.69829
2.67852
2.67724
2.68661
2.68353
2.67254
2.67737
2.66272
2.68517
2.6774
2.66084
2.65338
2.62652
2.62779
2.63978
2.73206
2.72257
2.73325
2.72199
2.72761
2.72716
2.73267
2.73853
2.73332
2.73619
2.72747
2.7267
2.73679
2.71903
2.72399
2.71027
2.72118
2.72132
2.70778
2.71902
2.72682
2.72707
2.72886
2.73046
2.73481
2.72565
2.7266
2.53754
2.53192
2.52858
2.53051
2.52932
2.53379
2.53284
2.5352
2.53838
2.53828
2.53088
2.53162
2.53145
2.551
2.55061
2.55456
2.55318
2.54791
2.55774
2.554
2.55357
2.55573
2.54798
2.5453
2.54943
2.5491
2.55119
2.54931
2.54277
2.54572
2.53965
2.54595
2.54614
2.54503
2.53815
2.53845
2.54313
2.5473
2.54481
2.59505
2.59954
2.59391
2.59387
2.59589
2.59647
2.59465
2.59435
2.7333
2.73479
2.73027
2.73874
2.72982
2.73034
2.7325
2.7229
2.73718
2.73488
2.67237
2.68464
2.6966
2.68251
2.68971
2.69275
2.69388
2.69738
2.69073
2.68776
2.6823
2.6939
2.68809
2.71089
2.71501
2.70862
2.70391
2.71783
2.69933
2.70158
2.71612
2.70198
2.71349
2.70753
2.70388
2.71127
2.69772
2.70932
2.70539
2.70494
2.69443
2.7074
2.69574
2.70625
2.69128
2.69412
2.6897
2.69534
2.69843
2.69482
2.69463
2.70878
2.70758
2.64799
2.63521
2.64987
2.64002
2.66659
2.62988
2.61504
2.6722
2.68277
2.68085
2.69297
2.68715
2.69467
2.54425
2.53741
2.53857
2.53665
2.54426
2.54304
2.54032
2.54075
2.54591
2.53841
2.54014
2.54323
2.54074
2.54304
2.54178
2.54363
2.54775
2.54513
2.53664
2.53764
2.53437
2.53599
2.52991
2.5324
2.53289
2.53463
2.54336
2.54276
2.54447
2.54892
2.54489
2.54744
2.54476
2.54646
2.54489
2.54806
2.54361
2.59097
2.58386
2.59781
2.59084
2.58322
2.58707
2.59213
2.58832
2.51625
2.51478
2.52094
2.51907
2.5148
2.51448
2.51748
2.51791
2.52628
2.53017
2.53458
2.53712
2.53574
2.53435
2.53148
2.58698
2.58941
2.59418
2.59575
2.58835
2.58647
2.58555
2.59491
2.59304
2.55382
2.55759
2.55627
2.55914
2.55715
2.5574
2.52836
2.52449
2.52512
2.74016
2.73853
2.72385
2.71711
2.74418
2.73853
2.73158
2.72527
2.72758
2.73784
2.74145
2.63747
2.63794
2.61609
2.62758
2.6229
2.68849
2.68196
2.67784
2.70253
2.69567
2.70411
2.69282
2.69614
2.6852
2.69687
2.69854
2.69828
2.69638
2.70509
2.70196
2.6907
2.67874
2.69466
2.67492
2.67777
2.68143
2.69055
2.68716
2.66733
2.67259
2.66596
2.65938
2.64434
2.65535
2.64967
2.65506
2.64981
2.659
2.66197
2.66202
2.64848
2.65777
2.65073
2.65295
2.67017
2.669
2.66604
2.66464
2.6531
2.66881
2.66785
2.69799
2.70505
2.71308
2.70975
2.69333
2.68998
2.71095
2.69469
2.68689
2.68663
2.60887
2.62298
2.61017
2.62683
2.62623
2.61245
2.62009
2.62515
2.69343
2.70398
2.69716
2.70068
2.70872
2.7003
2.70027
2.71132
2.71453
2.70553
2.70186
2.66777
2.68042
2.69113
2.66471
2.68063
2.69292
2.68939
2.65963
2.68076
2.66748
2.66551
2.66216
2.65575
2.65707
2.65616
2.66398
2.66568
2.69444
2.71712
2.70676
2.70944
2.70546
2.71668
2.70662
2.72398
2.71834
2.63861
2.63889
2.64221
2.64158
2.64446
2.64578
2.61279
2.61462
2.60816
2.60697
2.60985
2.60676
2.61491
2.61568
2.60846
2.61684
2.6079
2.61023
2.60759
2.60717
2.60622
2.61553
2.61364
2.61507
2.61501
2.71272
2.70648
2.7218
2.71393
2.71747
2.72411
2.72225
2.73292
2.67005
2.68967
2.6803
2.66172
2.68272
2.67603
2.69088
2.68683
2.68833
2.70306
2.71402
2.71324
2.70954
2.70785
2.7242
2.71956
2.69965
2.70277
2.72177
2.71211
2.72788
2.71564
2.7251
2.70337
2.68403
2.68387
2.69002
2.6906
2.68185
2.6733
2.67161
2.67149
2.70012
2.714
2.70789
2.70496
2.70224
2.64954
2.65693
2.65605
2.65023
2.64244
2.64655
2.64124
2.65592
2.64714
2.64508
2.63214
2.62191
2.62939
2.62959
2.64765
2.64665
2.65853
2.64634
2.64794
2.61741
2.62356
2.62117
2.62301
2.62103
2.62624
2.62198
2.6316
2.62739
2.62136
2.6206
2.61598
2.61459
2.5438
2.54347
2.55809
2.5593
2.55654
2.55663
2.55345
2.54487
2.54773
2.55259
2.55754
2.60336
2.60177
2.61363
2.60837
2.62264
2.6276
2.617
2.67397
2.66978
2.67279
2.68027
2.68817
2.66217
2.66658
2.67939
2.68529
2.68546
2.68038
2.69022
2.68306
2.68258
2.67122
2.6824
2.68745
2.68318
2.69929
2.69366
2.6821
2.67994
2.68011
2.67119
2.69325
2.69773
2.66678
2.68199
2.6745
2.67827
2.67212
2.68538
2.68556
2.67898
2.68878
2.69235
2.68946
2.68105
2.61087
2.60385
2.60666
2.60841
2.61029
2.6055
2.61107
2.60809
2.61577
2.61028
2.66159
2.67029
2.66295
2.66171
2.65562
2.672
2.66852
2.6512
2.53469
2.5339
2.53163
2.60574
2.60277
2.60507
2.60408
2.60249
2.61219
2.60868
2.61513
2.60302
2.60684
2.61112
2.61651
2.61276
2.619
2.62057
2.7207
2.73687
2.72203
2.7403
2.73466
2.7222
2.72672
2.72974
2.72846
2.74069
2.73543
2.62272
2.62189
2.6323
2.59609
2.58348
2.61326
2.59786
2.65262
2.65552
2.63945
2.64908
2.63513
2.64095
2.64401
2.65799
2.65314
2.6443
2.63325
2.62333
2.62094
2.65125
2.66073
2.62447
2.62076
2.62162
2.61662
2.55923
2.55074
2.5512
2.55263
2.55743
2.55847
2.55604
2.551
2.55207
2.55435
2.56761
2.57281
2.57781
2.578
2.56773
2.56441
2.56808
2.57945
2.56886
2.57534
2.58911
2.58427
2.58412
2.58044
2.58536
2.58712
2.58393
2.57929
2.57643
2.58175
2.57969
2.57838
2.57552
2.60972
2.61285
2.6125
2.6164
2.61224
2.61117
2.6137
2.61237
2.61381
2.64825
2.64055
2.63584
2.65214
2.65365
2.63889
2.64289
2.6484
2.689
2.68683
2.70082
2.69046
2.7016
2.68679
2.69546
2.68653
2.65412
2.66015
2.66816
2.65387
2.65458
2.64448
2.66767
2.66108
2.66905
2.66742
2.65281
2.6964
2.7068
2.69542
2.70526
2.70616
2.69498
2.69368
2.69452
2.69471
2.69693
2.69643
2.70575
2.69319
2.67902
2.69409
2.68326
2.68452
2.67316
2.67192
2.57634
2.57968
2.57883
2.57303
2.57545
2.57195
2.57726
2.58086
2.57609
2.57508
2.57124
2.5649
2.57456
2.57086
2.57362
2.56512
2.56285
2.57316
2.57586
2.5693
2.569
2.73644
2.73913
2.73
2.74485
2.73613
2.73668
2.72884
2.7263
2.73254
2.73856
2.73466
2.63704
2.63757
2.63815
2.62243
2.60829
2.63621
2.62672
2.6333
2.6434
2.63918
2.64812
2.62651
2.61718
2.59857
2.59797
2.60535
2.60638
2.60274
2.59392
2.5932
2.59843
2.60074
2.54426
2.53364
2.5358
2.53189
2.53723
2.53679
2.5259
2.53343
2.52594
2.53027
2.52814
2.52629
2.529
2.56761
2.56545
2.56317
2.55664
2.55402
2.55219
2.55073
2.55718
2.56236
2.56214
2.55571
2.55981
2.56553
2.56667
2.56287
2.56614
2.55942
2.55323
2.64001
2.62849
2.63824
2.64218
2.62381
2.62051
2.64247
2.57393
2.5683
2.57189
2.57227
2.56635
2.56775
2.5693
2.56644
2.5703
2.56489
2.56498
2.57785
2.5733
2.61026
2.60932
2.61491
2.616
2.60591
2.6078
2.61426
2.61447
2.60967
2.60758
2.60613
2.60415
2.60655
2.57655
2.55887
2.54518
2.54358
2.56665
2.54546
2.63755
2.64468
2.68353
2.68784
2.68389
2.67449
2.67358
2.66715
2.65388
2.66222
2.6522
2.65935
2.64832
2.66957
2.66864
2.61706
2.61326
2.61577
2.6162
2.61507
2.61321
2.60938
2.61109
2.61465
2.60087
2.59862
2.61231
2.60754
2.60773
2.60631
2.6035
2.60475
2.60678
2.60964
2.60116
2.60018
2.60385
2.56864
2.58323
2.57616
2.58637
2.57806
2.57982
2.58031
2.5762
2.58135
2.58423
2.57717
2.57559
2.57685
2.57793
2.57237
2.57088
2.56689
2.56933
2.57192
2.56839
2.56904
2.56474
2.56476
2.56582
2.56047
2.56374
2.56527
2.55786
2.56183
2.72245
2.71451
2.72064
2.72874
2.72384
2.7336
2.72435
2.71836
2.71911
2.7169
2.71318
2.71617
2.71033
2.71553
2.71045
2.69821
2.60277
2.61171
2.60452
2.61241
2.58838
2.58804
2.59721
2.59742
2.59624
2.59477
2.59449
2.59113
2.59213
2.5901
2.59514
2.62627
2.6341
2.63857
2.66364
2.66443
2.6612
2.64839
2.65894
2.65118
2.66144
2.66559
2.65393
2.66072
2.65725
2.66228
2.6826
2.69251
2.69135
2.70915
2.7045
2.69681
2.6938
2.68716
2.68868
2.69311
2.69021
2.70492
2.7107
2.67067
2.65712
2.65639
2.65882
2.66577
2.67138
2.67548
2.64824
2.66175
2.65407
2.6515
2.6464
2.58043
2.57459
2.57838
2.57735
2.57926
2.57781
2.57826
2.57179
2.58294
2.57469
2.56939
2.58843
2.59279
2.57744
2.59203
2.60032
2.57664
2.57649
2.57805
2.58952
2.57751
2.57686
2.57309
2.57917
2.60013
2.59869
2.59772
2.59931
2.58392
2.57529
2.58686
2.57837
2.57493
2.58662
2.58257
2.59697
2.60052
2.59093
2.58994
2.60575
2.59782
2.61764
2.60196
2.62231
2.63549
2.58761
2.59651
2.54603
2.59439
2.59143
2.58703
2.58395
2.58228
2.57988
2.59248
2.5916
2.58729
2.58549
2.58216
2.57763
2.59276
2.59559
2.58932
2.59513
2.595
2.5943
2.59311
2.59651
2.5976
2.60303
2.59774
2.59906
2.60992
2.59945
2.60747
2.60865
2.63034
2.61952
2.62931
2.61843
2.62561
2.63757
2.6289
2.63765
2.61276
2.60796
2.61187
2.6155
2.61436
2.62104
2.61714
2.62341
2.61975
2.62433
2.62619
2.61759
2.61917
2.62022
2.61538
2.61451
2.63406
2.63195
2.63471
2.67479
2.67148
2.6798
2.68115
2.64835
2.64931
2.66268
2.65891
2.65185
2.66491
2.65824
2.64708
2.66243
2.67031
2.65975
2.52259
2.51702
2.52328
2.5194
2.51551
2.62437
2.62683
2.62884
2.6268
2.62692
2.62541
2.626
2.59749
2.59329
2.59704
2.59991
2.60704
2.60913
2.60621
2.60804
2.63345
2.63446
2.62743
2.66909
2.67409
2.66712
2.67274
2.6641
2.66234
2.6778
2.6549
2.66129
2.67708
2.67442
2.71403
2.70928
2.71218
2.71565
2.71854
2.71816
2.71995
2.71281
2.70739
2.70365
2.70378
2.70386
2.58816
2.60022
2.60053
2.60126
2.60479
2.60206
2.59987
2.6042
2.56684
2.55532
2.56234
2.5577
2.56479
2.56117
2.55918
2.5621
2.56097
2.56225
2.56235
2.66211
2.66783
2.65449
2.66376
2.65491
2.67084
2.66645
2.67038
2.67527
2.70402
2.71897
2.72238
2.71066
2.70226
2.71486
2.70965
2.72757
2.72656
2.69242
2.68223
2.68774
2.706
2.69332
2.69388
2.68088
2.6882
2.69396
2.68556
2.70474
2.6341
2.62409
2.63657
2.63131
2.63056
2.64848
2.64203
2.64852
2.65222
2.64805
2.62098
2.62121
2.615
2.64067
2.66267
2.63732
2.64716
2.66783
2.65706
2.65506
2.64784
2.66526
2.6673
2.67415
2.60775
2.63844
2.67286
2.65682
2.67613
2.68275
2.64382
2.67319
2.66503
2.66833
2.65326
2.64781
2.67002
2.66271
2.60013
2.62518
2.61413
2.61272
2.61952
2.61227
2.62109
2.61993
2.62561
2.60111
2.59586
2.58792
2.59653
2.59181
2.61211
2.60969
2.6167
2.61726
2.60829
2.62434
2.63988
2.63727
2.63123
2.64115
2.64279
2.64315
2.6368
2.64511
2.73396
2.73718
2.53714
2.53794
2.54014
2.53179
2.54014
2.5469
2.54397
2.54653
2.54506
2.54111
2.54088
2.54168
2.54367
2.53576
2.54078
2.53592
2.637
2.63342
2.63647
2.55688
2.55692
2.57267
2.56516
2.55923
2.55524
2.56477
2.56199
2.57243
2.57058
2.56427
2.67041
2.6928
2.69228
2.6818
2.69268
2.70645
2.70573
2.70512
2.69318
2.67999
2.69463
2.69237
2.70266
2.688
2.68736
2.69076
2.69054
2.68842
2.69997
2.68708
2.69934
2.69468
2.68476
2.67906
2.69168
2.69419
2.58362
2.58633
2.58052
2.58215
2.58592
2.5812
2.58376
2.58897
2.58781
2.59451
2.58246
2.5902
2.59977
2.60445
2.60223
2.6275
2.62499
2.62906
2.63142
2.62998
2.62457
2.62805
2.63277
2.63174
2.63836
2.6375
2.64014
2.63812
2.62903
2.63498
2.62818
2.63487
2.64435
2.64187
2.62684
2.62585
2.63426
2.63649
2.71683
2.72169
2.72977
2.71944
2.72943
2.7203
2.71915
2.72573
2.73043
2.72784
2.7275
2.73253
2.7215
2.73021
2.72479
2.73013
2.7353
2.73416
2.72079
2.73236
2.6491
2.67632
2.65467
2.67322
2.6776
2.67882
2.66208
2.66013
2.67403
2.70723
2.7044
2.69602
2.70769
2.61866
2.62223
2.6229
2.61879
2.61837
2.61129
2.61847
2.62652
2.61721
2.6189
2.62369
2.62694
2.62479
2.62427
2.61888
2.62575
2.6236
2.61793
2.62121
2.62372
2.61846
2.66483
2.68659
2.69024
2.69387