/*--------------------------------*- C++ -*----------------------------------*\
| =========                 |                                                 |
| \\      /  F ield         | OpenFOAM: The Open Source CFD Toolbox           |
|  \\    /   O peration     | Version:  v1612+                                |
|   \\  /    A nd           | Web:      www.OpenFOAM.com                      |
|    \\/     M anipulation  |                                                 |
\*---------------------------------------------------------------------------*/
FoamFile
{
    version     2.0;
    format      ascii;
    class       volVectorField;
    location    "166";
    object      wallShearStress;
}
// * * * * * * * * * * * * * * * * * * * * * * * * * * * * * * * * * * * * * //

dimensions      [0 2 -2 0 0 0 0];

internalField   uniform (0 0 0);

boundaryField
{
    WALL
    {
        type            calculated;
        value           nonuniform List<vector> 
1529
(
(0.0169749 -0.0118655 0.000828069)
(0.0124026 -0.00856773 0.000259541)
(0.0134064 -0.00788932 -0.00118713)
(0.0182977 -0.00909981 -0.00398184)
(0.018024 -0.00823956 -0.00362612)
(0.0155651 -0.00778809 -0.00221233)
(0.0158161 -0.00868102 -0.00257078)
(0.0128078 -0.0115565 -0.001371)
(0.0156998 -0.0121549 -0.00223316)
(0.0138375 -0.0151646 -0.00270173)
(0.0107703 -0.0147219 -0.00120876)
(0.0112751 -0.00515002 0.00301879)
(0.0171264 -0.00730065 0.000860321)
(0.0164878 -0.00606237 0.000408113)
(0.0162859 -0.00936151 0.000723298)
(0.016335 -0.0118734 0.000115838)
(0.0176589 -0.0220651 0.00788613)
(0.0193142 -0.020184 0.00987739)
(0.00827383 -0.00536457 0.0038223)
(0.00811282 -0.00543779 0.00422839)
(0.00823841 -0.00633232 0.00416498)
(0.00808793 -0.00466752 0.0038615)
(0.00809845 -0.00670259 0.00419083)
(0.00849293 -0.00521292 0.00440306)
(0.0166179 -0.0202508 0.00598902)
(0.0158742 -0.0184839 0.00589522)
(0.0168736 -0.0190386 0.00548605)
(0.0158152 -0.0174645 0.00652878)
(0.0166782 -0.022298 0.00739144)
(0.0224045 -0.00818656 0.00452483)
(0.0228314 -0.0086215 0.00173178)
(0.0226171 -0.0083743 0.00153482)
(0.0221879 -0.00764503 0.00301781)
(0.0221557 -0.00846218 0.00313711)
(0.0219675 -0.00795925 0.00466596)
(0.0135887 -0.0106351 -0.000333735)
(0.0118301 -0.00924939 0.000214148)
(0.0135752 -0.0108624 -0.000896226)
(0.0108607 -0.00919629 0.000840998)
(0.0135626 -0.0111944 -0.00143993)
(0.0124788 -0.0104343 0.000479512)
(0.0115452 -0.0139965 -0.0019963)
(0.010842 -0.0148432 5.17506e-05)
(0.0120915 -0.0133174 -0.00106849)
(0.011119 -0.0133324 -0.000825763)
(0.00972961 -0.0143001 0.000261456)
(0.0111674 -0.0133809 0.000232963)
(0.00690362 -0.00711519 0.00471906)
(0.00594395 -0.00933808 0.00366872)
(0.00660478 -0.0095949 0.00395861)
(0.00746546 -0.00977771 0.00521189)
(0.00660939 -0.00920603 0.0056201)
(0.0067467 -0.00783917 0.00389407)
(0.0112171 -0.0025117 0.00368783)
(0.00999565 -0.00248788 0.0042172)
(0.0108332 -0.00264227 0.00451255)
(0.0106322 -0.00218223 0.00383013)
(0.0117448 -0.00230352 0.00332094)
(0.0106861 -0.0023388 0.00409317)
(0.0209849 -0.00483729 -0.000630354)
(0.0216716 -0.00501474 -0.00075001)
(0.0206853 -0.00374517 0.00216983)
(0.020698 -0.00360691 0.000620928)
(0.0212499 -0.00437057 -0.000333248)
(0.0211106 -0.00380574 0.00212271)
(0.0218618 -0.00448327 0.000816232)
(0.0194053 -0.000971121 0.00737517)
(0.0191403 -0.00181963 0.00813884)
(0.0190773 -0.00173002 0.00779127)
(0.0187746 -0.0021964 0.00866168)
(0.0198532 -0.000763565 0.00662961)
(0.0194554 -0.000965512 0.00715328)
(0.0181876 -0.0159556 0.00638353)
(0.0170476 -0.0139821 0.00651283)
(0.0167189 -0.0144957 0.00580801)
(0.0193039 -0.0154805 0.0076654)
(0.0204754 -0.0149036 0.00885905)
(0.0193668 -0.0138528 0.00914197)
(0.0182437 -0.0120737 0.00591663)
(0.0189647 -0.0121117 0.00505618)
(0.0177158 -0.0116412 0.00399988)
(0.0178203 -0.010883 0.00529296)
(0.0172037 -0.0117984 0.00535879)
(0.017156 -0.00974376 0.00267327)
(0.018034 -0.00952429 0.00278614)
(0.0179016 -0.0113254 0.00305234)
(0.018627 -0.0109137 0.00420132)
(0.0178279 -0.010113 0.00358767)
(0.0176779 -0.0100603 0.00282331)
(0.0173147 -0.0081128 0.00110165)
(0.0164716 -0.00735914 0.000675372)
(0.017442 -0.00916262 0.0010579)
(0.0158346 -0.00581215 0.000570194)
(0.0168468 -0.0068932 0.000737246)
(0.0163854 -0.00839783 0.000476699)
(0.0180899 -0.0146926 0.00277626)
(0.0183538 -0.0156733 0.00334261)
(0.0189621 -0.0142138 0.00437314)
(0.0174293 -0.0135692 0.0026601)
(0.0181435 -0.0161999 0.00376723)
(0.0188083 -0.0111251 0.0015984)
(0.0174106 -0.0107783 0.00106296)
(0.0172257 -0.0115286 0.00171146)
(0.0182441 -0.010355 0.000940238)
(0.0175647 -0.0104719 0.00255601)
(0.0180054 -0.0118827 0.00284471)
(0.0181896 -0.0182887 0.00187718)
(0.0182905 -0.0188109 0.0034453)
(0.0158289 -0.0167716 0.00185473)
(0.0192131 -0.0184687 0.00434958)
(0.017581 -0.0168162 0.00216853)
(0.0162259 -0.0174157 0.00218484)
(0.0158744 -0.0131614 0.000423901)
(0.0168734 -0.015194 0.000722569)
(0.0172273 -0.0157807 0.000433338)
(0.0152302 -0.0103081 0.00136319)
(0.0162656 -0.0126005 9.71595e-05)
(0.0156368 -0.0122113 0.00104221)
(0.0182764 -0.0151851 0.000765752)
(0.0179333 -0.0138983 0.000935631)
(0.0167625 -0.0112982 0.00120602)
(0.0175172 -0.0138722 0.00130104)
(0.0179593 -0.0107548 0.00116798)
(0.0177736 -0.00993873 0.000889564)
(0.0159927 -0.00934472 -0.000415057)
(0.0168778 -0.0151084 0.00131448)
(0.0185 -0.0168069 0.00236395)
(0.0183239 -0.014947 0.00338576)
(0.0171122 -0.0169254 0.00355084)
(0.0163823 -0.0176411 0.00357174)
(0.0175716 -0.0161022 0.00364131)
(0.0180536 -0.0163676 0.0109351)
(0.0187114 -0.0147709 0.0118901)
(0.0177062 -0.0163396 0.0117808)
(0.0167265 -0.0153128 0.0105829)
(0.0185078 -0.0154027 0.0116432)
(0.0187962 -0.0135718 0.011221)
(0.0162039 -0.0170854 0.00447651)
(0.0160879 -0.0154301 0.00689597)
(0.0178797 -0.0168438 0.00589017)
(0.0189928 -0.0155172 0.00701953)
(0.0180889 -0.0174725 0.00787352)
(0.0128131 -0.00334933 0.00195553)
(0.0116717 -0.00277047 0.00275123)
(0.0132678 -0.00322395 0.00220023)
(0.0125251 -0.00307522 0.0025289)
(0.0128372 -0.00276421 0.00280189)
(0.0148531 -0.00670039 0.00121242)
(0.0151779 -0.00775339 0.000673365)
(0.0147831 -0.0077374 0.000567623)
(0.0160659 -0.00977614 0.000239314)
(0.0159435 -0.0110701 -1.65417e-05)
(0.0153367 -0.00986569 0.000181736)
(0.0133613 -0.00578235 0.00152031)
(0.01426 -0.00624084 0.00120397)
(0.0123679 -0.0044641 0.00222281)
(0.01316 -0.0048101 0.00163567)
(0.0140017 -0.00566469 0.0013351)
(0.0125757 -0.00491217 0.00194172)
(0.0139739 -0.00318488 0.00156917)
(0.0135478 -0.00267895 0.00200225)
(0.0128525 -0.00252161 0.00192341)
(0.0135314 -0.00327596 0.00135806)
(0.0140669 -0.00300017 0.00209959)
(0.0147535 -0.00446082 0.000892749)
(0.0152201 -0.00513574 0.00069618)
(0.0150607 -0.00420051 0.000942641)
(0.0155513 -0.0045089 0.000787357)
(0.0158249 -0.00517861 0.000930717)
(0.0158929 -0.00573405 0.000859681)
(0.0174775 -0.00872599 0.00082911)
(0.0168701 -0.00758066 0.000563389)
(0.0163317 -0.00675139 0.000453802)
(0.0169111 -0.00902068 0.000921094)
(0.0161106 -0.00735836 0.000397689)
(0.0165584 -0.00820434 0.000874562)
(0.0124741 -0.000256428 0.00381205)
(0.0130254 -7.47665e-05 0.00420196)
(0.0117978 -0.000266715 0.0038567)
(0.0122406 -0.00018374 0.00337768)
(0.0127501 -4.95486e-05 0.0035838)
(0.0120566 -0.00575024 0.000560016)
(0.012586 -0.00619713 0.000725214)
(0.0129815 -0.00634377 -0.000303129)
(0.0131617 -0.00700652 -0.000524426)
(0.0122304 -0.00592427 0.00119687)
(0.0139068 -0.00699078 -0.00111285)
(0.0177397 -0.00846767 0.00604564)
(0.0176075 -0.00756388 0.0056041)
(0.0178105 -0.00820582 0.00516417)
(0.0173226 -0.00958633 0.00543994)
(0.0183932 -0.00802149 0.00471346)
(0.0175756 -0.00932319 0.0059761)
(0.0173159 -0.00755187 0.00814405)
(0.0179551 -0.00765049 0.00811708)
(0.0170506 -0.00758409 0.00835271)
(0.0192937 -0.00630364 0.00924586)
(0.0171815 -0.00747756 0.00769962)
(0.0185413 -0.00728354 0.00942161)
(0.0184066 -0.00966745 0.00875963)
(0.0179857 -0.0130283 0.008848)
(0.0181839 -0.0115739 0.00814116)
(0.0170562 -0.0139746 0.00849452)
(0.0194968 -0.0126345 0.00811192)
(0.0173107 -0.0111754 0.00807447)
(0.0173156 -0.0126087 0.0082636)
(0.0182841 -0.0126574 0.00912466)
(0.017366 -0.0108748 0.0099968)
(0.0202361 -0.0121186 0.0100536)
(0.0184666 -0.0123546 0.0085183)
(0.0182536 -0.0113882 0.00979684)
(0.0188005 -0.00675619 0.00974444)
(0.018776 -0.00946846 0.00985711)
(0.0184703 -0.00798151 0.00999929)
(0.0183384 -0.00938454 0.0102238)
(0.0170433 -0.00712804 0.0090159)
(0.0195631 -0.00943126 0.0100082)
(0.0174178 -0.00906291 0.00721954)
(0.0176152 -0.00973269 0.00778143)
(0.0179543 -0.0097768 0.00649884)
(0.0165651 -0.00895574 0.00557785)
(0.018155 -0.00862336 0.00734891)
(0.0182032 -0.00297398 0.00894682)
(0.0179376 -0.00358263 0.00884891)
(0.0192062 -0.00488709 0.00960212)
(0.0185899 -0.00646669 0.0103828)
(0.0175207 -0.00300187 0.00863379)
(0.0189767 -0.00539898 0.00999512)
(0.0187034 -0.000687866 0.0072808)
(0.0176004 -0.00222401 0.00843703)
(0.0181283 -0.000607556 0.00762088)
(0.018738 -0.000287882 0.00655209)
(0.0184496 -0.00116942 0.00796855)
(0.0184721 -0.00195226 0.00836264)
(0.019798 0.000862126 0.00116687)
(0.0194829 -0.00045479 -0.00112737)
(0.0196627 0.00022924 -0.000888475)
(0.0197228 0.000677483 0.000104656)
(0.0201048 -0.000396717 -0.00134545)
(0.0207703 3.36247e-05 0.000499986)
(0.0199941 0.000595258 0.00390046)
(0.01881 2.72955e-05 0.00543299)
(0.0204604 7.30073e-05 0.00486439)
(0.0192968 0.000533058 0.00477884)
(0.0198642 0.000789806 0.00303502)
(0.0203634 -0.00594347 -0.00251867)
(0.0195244 -0.00678915 -0.00291639)
(0.0190903 -0.00546301 -0.0028435)
(0.0191016 -0.00710187 -0.00335098)
(0.0203258 -0.00529386 -0.00214341)
(0.0191409 -0.00605393 -0.00293748)
(0.0207229 -0.0061634 0.00812137)
(0.0205028 -0.00816067 0.0101917)
(0.021044 -0.00780976 0.00974672)
(0.0205532 -0.00635175 0.00883245)
(0.0207319 -0.00732528 0.00906566)
(0.0214076 -0.00627401 0.00830834)
(0.020131 -0.00858188 0.0106811)
(0.0203179 -0.00818877 0.010309)
(0.0198097 -0.00659157 0.0093709)
(0.0198259 -0.00717953 0.0100529)
(0.0198698 -0.00908916 0.0110142)
(0.0204504 -0.00650344 0.00942682)
(0.0192752 -0.0123767 0.0114688)
(0.0189811 -0.0106749 0.0111553)
(0.0199414 -0.0104146 0.011335)
(0.0195325 -0.0117708 0.0115594)
(0.0203964 -0.0100516 0.0110754)
(0.0201644 -0.0126308 0.0117112)
(0.0205247 -0.00114598 0.00332328)
(0.0210811 -0.00157108 0.00202542)
(0.0211633 -0.00168031 0.00100593)
(0.0195993 -0.000875466 0.00188902)
(0.0209943 -0.00145599 0.000575358)
(0.020891 -0.00104769 0.00327132)
(0.0189929 -0.000536499 0.0053372)
(0.0195755 -5.82773e-05 0.00240082)
(0.0205253 5.93901e-05 0.00484688)
(0.0202224 -0.000137343 0.00315884)
(0.0198112 -0.000665209 0.00410466)
(0.0204585 -0.00133126 -0.000710412)
(0.0214319 -0.00108944 -8.62388e-05)
(0.0210329 -0.00250506 -0.00205259)
(0.0205161 -0.00191718 -0.00139941)
(0.0202143 -0.000418205 0.00104975)
(0.0200286 -0.00068974 -0.000676023)
(0.0199794 -0.0034364 -0.00246113)
(0.021098 -0.00235812 -0.00141618)
(0.0198585 -0.00365259 -0.00286794)
(0.0202421 -0.00253534 -0.0018413)
(0.0216252 -0.0028487 -0.00128179)
(0.011148 -0.000680053 0.00430358)
(0.0115422 -0.000716115 0.00396633)
(0.011607 -0.00053818 0.00395245)
(0.0106804 -0.000901335 0.00427108)
(0.0107162 -0.000927827 0.00450053)
(0.0106167 -0.000934718 0.00433801)
(0.0131672 -0.00060498 0.00243563)
(0.0140159 -0.00145146 0.00170025)
(0.0139254 -0.000932868 0.00259274)
(0.0138003 -0.00127573 0.00202736)
(0.0137753 -0.000811237 0.00233689)
(0.0144203 -0.0011359 0.00210892)
(0.0149451 -0.00292219 0.00102665)
(0.0155005 -0.00344209 0.000945242)
(0.0143927 -0.0020594 0.00149165)
(0.0140778 -0.00223869 0.0013418)
(0.0154424 -0.00296685 0.00111416)
(0.0145478 -0.00237366 0.00110459)
(0.0175906 -0.00727907 0.00125991)
(0.0178094 -0.00762334 0.00239378)
(0.0181165 -0.00843256 0.00282685)
(0.016813 -0.00734387 0.00109636)
(0.0177682 -0.00778591 0.00123754)
(0.0177024 -0.00812414 0.00163385)
(0.0103128 -0.00122154 0.00425411)
(0.0106811 -0.00148214 0.00453122)
(0.0101197 -0.00161376 0.00452051)
(0.0106608 -0.00114652 0.00408425)
(0.0108342 -0.00110711 0.0042943)
(0.0102503 -0.00161265 0.0046931)
(0.00927938 -0.0030999 0.00498409)
(0.00975597 -0.00210609 0.0048)
(0.00918805 -0.00239555 0.00452441)
(0.00915564 -0.00278849 0.00453359)
(0.00959508 -0.0026285 0.00490043)
(0.00943734 -0.00244553 0.00491444)
(0.00970877 -0.00295758 0.00467749)
(0.00998878 -0.00359356 0.00492363)
(0.0098053 -0.00376676 0.00436923)
(0.00957466 -0.00321256 0.00454571)
(0.00927359 -0.0028156 0.00459195)
(0.0101287 -0.00377791 0.00479407)
(0.0100233 -0.00196526 0.00529869)
(0.010126 -0.00259138 0.0053131)
(0.0102978 -0.0019457 0.0053482)
(0.0102142 -0.00160037 0.00483316)
(0.01009 -0.00210582 0.0049884)
(0.010478 -0.00196013 0.00522982)
(0.00980341 -0.00234478 0.00473704)
(0.00963351 -0.00374293 0.00492407)
(0.00922553 -0.00327063 0.00432676)
(0.00903198 -0.00278736 0.00454258)
(0.0092728 -0.00277546 0.00483663)
(0.00985039 -0.00306857 0.00488061)
(0.00990436 -0.00190985 0.00463119)
(0.0100298 -0.00155823 0.00463334)
(0.0103709 -0.001224 0.0046594)
(0.0102095 -0.00160307 0.00485796)
(0.0101957 -0.00200358 0.00506186)
(0.0100931 -0.00131309 0.00467136)
(0.00984917 -0.0030696 0.00512678)
(0.0099757 -0.00285647 0.00503042)
(0.010708 -0.00212523 0.00509611)
(0.00933763 -0.00481168 0.00294302)
(0.01025 -0.00444837 0.00359053)
(0.00957709 -0.00373381 0.0038751)
(0.0101151 -0.00511935 0.00322236)
(0.00990886 -0.00460927 0.00384935)
(0.00941411 -0.00488016 0.00404586)
(0.0169183 -0.00547347 0.00150297)
(0.0167304 -0.00598379 0.00119493)
(0.0161719 -0.00398496 0.00115211)
(0.0168983 -0.00529385 0.00137866)
(0.0164234 -0.00459319 0.00135911)
(0.0163623 -0.00459804 0.00100214)
(0.0116358 -0.0164821 -0.00137976)
(0.0108127 -0.0161484 -0.000303229)
(0.00971532 -0.0160142 -0.000379751)
(0.0125094 -0.0169796 -0.00215074)
(0.006643 -0.0133192 0.00344338)
(0.00654079 -0.0107138 0.00432967)
(0.00674371 -0.0116569 0.00461553)
(0.00767369 -0.0124822 0.00409785)
(0.00771163 -0.012591 0.00411303)
(0.00782835 -0.00761675 0.00391431)
(0.00798019 -0.00683703 0.00448141)
(0.00820755 -0.00778618 0.00436236)
(0.00752656 -0.00616498 0.00443759)
(0.00727518 -0.00687756 0.00427545)
(0.00711795 -0.00633179 0.00442822)
(0.00698569 -0.00980955 0.00472142)
(0.00813174 -0.00983264 0.00429628)
(0.00736929 -0.0101681 0.00305723)
(0.00741286 -0.00842562 0.0033034)
(0.00706331 -0.00770273 0.00408424)
(0.00723774 -0.00983972 0.00304776)
(0.00958367 -0.0117983 0.00196107)
(0.00986931 -0.0128036 0.00132254)
(0.00947208 -0.0106853 0.00307273)
(0.00972719 -0.0119441 0.00172323)
(0.00880967 -0.0122465 0.00258487)
(0.00861553 -0.011231 0.00308505)
(0.00833768 -0.00726198 0.0036874)
(0.00801836 -0.00779675 0.00384367)
(0.00800143 -0.00834047 0.00353222)
(0.00748218 -0.00676259 0.00376137)
(0.00732201 -0.00639603 0.00367424)
(0.0188248 -0.0109269 0.0108725)
(0.0197445 -0.00972857 0.0106546)
(0.0192563 -0.0108575 0.0110315)
(0.0195462 -0.0113614 0.0115754)
(0.0192993 -0.0098197 0.0106174)
(0.0201462 -0.00916645 0.0100631)
(0.0218562 -0.00636707 -0.000164207)
(0.0221985 -0.00677345 0.000415983)
(0.021717 -0.00559171 0.00322208)
(0.0213335 -0.00555679 0.00355352)
(0.0219548 -0.00613535 0.00246009)
(0.0208477 -0.00601517 -0.000117338)
(0.0213007 -0.00510923 0.00137359)
(0.0144854 -0.015752 -0.00319308)
(0.0154557 -0.0134048 -0.00329951)
(0.0135009 -0.0131863 -0.00323353)
(0.0133638 -0.0154022 -0.00375171)
(0.0141616 -0.0151101 -0.0041274)
(0.0125448 -0.0123993 0.000244244)
(0.0141543 -0.0121608 -0.00084346)
(0.0122472 -0.0121061 -0.000206837)
(0.0110206 -0.0129975 -0.000148477)
(0.00865268 -0.0096249 0.0025578)
(0.00928895 -0.00899262 0.00281784)
(0.01047 -0.0107387 0.00137089)
(0.00898212 -0.00904993 0.00286168)
(0.00967045 -0.00948191 0.00195165)
(0.00949806 -0.0104002 0.00194102)
(0.0177182 -0.0127904 -0.00488911)
(0.0181045 -0.0129213 -0.00492844)
(0.0169959 -0.0138037 -0.00500732)
(0.0191586 -0.0126928 -0.00466494)
(0.0169081 -0.0137022 -0.00464322)
(0.0160963 -0.0140724 -0.00467603)
(0.0189563 -0.00747077 -0.00357454)
(0.0181328 -0.00892158 -0.00363793)
(0.0188302 -0.00828138 -0.00371045)
(0.019253 -0.00701624 -0.0033767)
(0.0196594 -0.00650576 -0.00296635)
(0.0178997 -0.00838052 -0.00375599)
(0.0168272 -0.00993838 -0.00319891)
(0.0160385 -0.0106805 -0.00311833)
(0.014689 -0.0115611 -0.00229824)
(0.0157469 -0.0108798 -0.00223088)
(0.0160648 -0.00993609 -0.00297053)
(0.0150026 -0.0113082 -0.00249492)
(0.0105004 -0.00817952 0.00162121)
(0.00995838 -0.00814261 0.00195593)
(0.00919211 -0.0063911 0.0028917)
(0.009159 -0.0066333 0.00222648)
(0.00981949 -0.00736011 0.00270748)
(0.0102262 -0.00763054 0.00189808)
(0.0159934 -0.00691085 -0.00238412)
(0.0156168 -0.00617401 -0.00250715)
(0.0149516 -0.00676387 -0.00187517)
(0.0163213 -0.00607045 -0.00296726)
(0.0144247 -0.00763257 -0.00194687)
(0.018032 -0.00380566 -0.00378917)
(0.0198235 -0.00350278 -0.00387128)
(0.0196955 -0.0040154 -0.00344716)
(0.0180738 -0.00493511 -0.00378889)
(0.016926 -0.00518641 -0.0038565)
(0.0212213 -0.00659667 -0.000161227)
(0.0201249 -0.00722979 -0.00184799)
(0.0224055 -0.00805043 -0.000245932)
(0.020643 -0.00684702 0.000927526)
(0.0204425 -0.00634253 0.0010901)
(0.0201153 -0.00893047 -0.00333712)
(0.0206514 -0.0109309 -0.003639)
(0.019469 -0.0098397 -0.00400536)
(0.019623 -0.0108568 -0.00398744)
(0.0206968 -0.00867052 -0.00215069)
(0.0220228 -0.00991537 -0.0019507)
(0.0210555 -0.00571609 0.0058121)
(0.0205248 -0.00584141 0.00565106)
(0.0208518 -0.0058122 0.00688117)
(0.0203172 -0.00730865 0.00860184)
(0.0203935 -0.00690005 0.00722443)
(0.0210163 -0.006976 0.00798237)
(0.0208546 -0.0106952 0.0108401)
(0.0213803 -0.00950579 0.00984484)
(0.0198628 -0.0108912 0.0110978)
(0.0196676 -0.00951026 0.0101717)
(0.02124 -0.00900691 0.00899358)
(0.0194657 -0.0105779 0.0106394)
(0.0111591 -0.00368806 0.00355219)
(0.0102544 -0.00370812 0.0035748)
(0.0114394 -0.0041577 0.00296198)
(0.0112102 -0.00378493 0.00306126)
(0.0119513 -0.00419785 0.00277664)
(0.0106312 -0.00387032 0.00344622)
(0.0160301 -0.0197116 0.00762972)
(0.0164026 -0.0209175 0.00757552)
(0.0186482 -0.0162575 0.0117082)
(0.0177349 -0.0186935 0.0111828)
(0.0179712 -0.0177688 0.0118342)
(0.0200404 -0.0147406 0.012123)
(0.0193252 -0.0129972 0.011608)
(0.0203459 -0.0117101 0.0106806)
(0.0161057 -0.0187133 0.00290254)
(0.0168168 -0.0159535 0.00128126)
(0.0165652 -0.0162171 0.00263054)
(0.0139917 -0.00818466 0.00115282)
(0.0149772 -0.00973884 0.00078508)
(0.0142934 -0.0103686 0.000359988)
(0.0154276 -0.00976367 0.00144122)
(0.0131757 -0.00742358 0.00126818)
(0.0140914 -0.00849906 0.00103944)
(0.0185826 -0.0152427 0.011726)
(0.0188787 -0.014855 0.0120342)
(0.0190158 -0.0140669 0.0118762)
(0.0173512 -0.0145899 0.0111408)
(0.0189765 -0.0133803 0.0116503)
(0.0192095 -0.0126052 0.0112426)
(0.00988048 -0.00300669 0.0043791)
(0.00955069 -0.00301212 0.00473306)
(0.00984008 -0.00335366 0.00495875)
(0.00853391 -0.00318095 0.00467481)
(0.00971562 -0.00326775 0.00486165)
(0.00869287 -0.00353661 0.00473804)
(0.0091326 -0.00360442 0.00495387)
(0.00939565 -0.00318786 0.00395643)
(0.0103891 -0.00355233 0.00449286)
(0.0100207 -0.00364659 0.00493845)
(0.00867684 -0.00419172 0.00509379)
(0.00829687 -0.00461405 0.00548847)
(0.00837187 -0.00419696 0.00513244)
(0.00793764 -0.00464764 0.00540951)
(0.00821127 -0.00440216 0.00523868)
(0.00881487 -0.00401603 0.00506764)
(0.00829767 -0.00524281 0.00356969)
(0.0087867 -0.00616993 0.00355181)
(0.00878363 -0.00614793 0.00358742)
(0.0088031 -0.00662501 0.0032638)
(0.00863652 -0.0055444 0.00370552)
(0.0162072 -0.0120766 -0.00338888)
(0.0147377 -0.0124808 -0.00305832)
(0.0141849 -0.0125628 -0.00267686)
(0.0140837 -0.0123307 -0.00241948)
(0.015459 -0.0119526 -0.00288942)
(0.0162431 -0.0119168 -0.00445631)
(0.01654 -0.0127066 -0.00429003)
(0.0175054 -0.0122357 -0.00422728)
(0.0184338 -0.0108071 -0.00431306)
(0.0175234 -0.0112 -0.00450928)
(0.0173358 -0.0106672 -0.0040336)
(0.0186428 -0.00867708 -0.00375812)
(0.0196647 -0.0075867 -0.00278073)
(0.0211088 -0.00682883 -0.00200943)
(0.0198674 -0.00805361 -0.00320512)
(0.0194497 -0.00846342 -0.00341628)
(0.0209335 -0.0072198 -0.00272166)
(0.0186783 -0.00964929 -0.00404469)
(0.0177501 -0.0100833 -0.00412959)
(0.0171348 -0.0105564 -0.00369364)
(0.0174675 -0.0103585 -0.00388796)
(0.0191221 -0.00893412 -0.00401825)
(0.00973852 -0.0158871 0.00138535)
(0.00883432 -0.0159399 0.00148643)
(0.00756881 -0.0138146 0.00207326)
(0.00864829 -0.0138919 0.00263115)
(0.0078904 -0.014618 0.00158429)
(0.0078988 -0.0129017 0.00299385)
(0.0114935 -0.00198796 0.00347949)
(0.0117536 -0.00180406 0.00346902)
(0.0122618 -0.00185828 0.00283734)
(0.012318 -0.00218421 0.00245084)
(0.0126626 -0.00203711 0.00268617)
(0.0117955 -0.00205883 0.00294143)
(0.0131935 -0.00171536 0.00167428)
(0.0147088 -0.00314402 0.00103687)
(0.0145645 -0.00283588 0.00112286)
(0.0141576 -0.00224789 0.00141195)
(0.0147203 -0.00284723 0.00120412)
(0.0145872 -0.00213024 0.00172329)
(0.0113048 -0.00597834 0.00171061)
(0.0110637 -0.00659584 0.00131324)
(0.0107167 -0.00593493 0.00163739)
(0.0104854 -0.00491605 0.00283701)
(0.0107353 -0.00489302 0.00242182)
(0.0104421 -0.0050952 0.0023996)
(0.0175145 -0.0139112 0.00316142)
(0.0178312 -0.0152774 0.00397067)
(0.0184197 -0.0172974 0.00391107)
(0.0184701 -0.0174746 0.00454865)
(0.0172234 -0.0155447 0.00299054)
(0.0172651 -0.0148925 0.00311037)
(0.0179789 -0.014021 0.00307829)
(0.0190895 -0.0145084 0.00179131)
(0.0196297 -0.015159 0.00616315)
(0.0105809 -0.00475951 0.00348053)
(0.0136356 -0.00125444 0.00201626)
(0.0131016 -0.00139202 0.00180842)
(0.0138907 -0.00184371 0.00160781)
(0.0145678 -0.00316754 0.0010683)
(0.0145413 -0.00284527 0.00125509)
(0.0119997 -0.000882187 0.00396543)
(0.0113065 -0.000990535 0.00370976)
(0.0109139 -0.00106408 0.00386822)
(0.0109742 -0.0012076 0.00393126)
(0.00784405 -0.0117427 0.00327076)
(0.00776175 -0.0127263 0.00238077)
(0.00837695 -0.0135899 0.00220599)
(0.00917296 -0.0138223 0.00115396)
(0.00957503 -0.0139121 0.00144983)
(0.00889059 -0.013734 0.001779)
(0.018073 -0.00974503 -0.0039846)
(0.0191205 -0.00927761 -0.00388878)
(0.0200871 -0.00866375 -0.00379376)
(0.0190825 -0.00773699 -0.00353844)
(0.0205558 -0.00777549 -0.00341751)
(0.0204866 -0.00807491 -0.00326955)
(0.0183236 -0.00927516 -0.00386974)
(0.0196155 -0.00858584 -0.00376631)
(0.0188938 -0.0095071 -0.00382167)
(0.0174051 -0.0101103 -0.00396709)
(0.0184422 -0.00986789 -0.00385185)
(0.01576 -0.0110568 -0.00323374)
(0.0169976 -0.0104975 -0.00362653)
(0.0168183 -0.0109619 -0.00360399)
(0.0139706 -0.0134021 -0.00262753)
(0.017505 -0.0115667 -0.00368532)
(0.0167063 -0.012653 -0.00413044)
(0.0148765 -0.0130092 -0.00425574)
(0.0161988 -0.0116498 -0.0039155)
(0.0163365 -0.0133629 -0.0034316)
(0.0149185 -0.0124102 -0.00295069)
(0.00880308 -0.00346263 0.00462603)
(0.00915747 -0.00342036 0.00497769)
(0.00873702 -0.00349209 0.00461621)
(0.008473 -0.00345672 0.00455283)
(0.00923291 -0.00332019 0.00471726)
(0.00897996 -0.00404185 0.00479452)
(0.00877809 -0.00438191 0.00510426)
(0.010777 -0.00315593 0.00440546)
(0.00723828 -0.00601512 0.00572031)
(0.00750724 -0.00511851 0.00480038)
(0.0152008 -0.0120062 0.00117838)
(0.0150972 -0.010827 0.000908629)
(0.0154597 -0.01274 0.00163604)
(0.0173563 -0.00851244 0.00109044)
(0.0173239 -0.00729565 0.00133259)
(0.01705 -0.0179086 0.0010489)
(0.0164402 -0.0180909 0.00109997)
(0.0160628 -0.018712 0.00269893)
(0.0157502 -0.0192438 0.00333107)
(0.0181522 -0.0144973 0.0115111)
(0.0194297 -0.0195104 0.0119877)
(0.0184574 -0.0167544 0.0113264)
(0.0150702 -0.0172877 0.00890023)
(0.0171824 -0.0201263 0.0111707)
(0.0160271 -0.0183093 0.0101578)
(0.00693891 -0.00578901 0.0051292)
(0.00641348 -0.00661506 0.0052103)
(0.00673108 -0.0067292 0.00554147)
(0.00724151 -0.00544189 0.0053991)
(0.00722285 -0.00509853 0.00549853)
(0.00789599 -0.00510428 0.00566064)
(0.0127511 -0.00587243 0.00207663)
(0.0124804 -0.00504046 0.00232254)
(0.0120158 -0.00455004 0.00238184)
(0.0101502 -0.00331129 0.00363543)
(0.0120734 -0.00485585 0.00247372)
(0.0112356 -0.00434631 0.00271077)
(0.0123522 -0.00529595 0.00229283)
(0.0114648 -0.00436582 0.00338921)
(0.0120807 -0.0052202 0.00274087)
(0.0114283 -0.00460997 0.00324798)
(0.00908719 -0.00293949 0.00467028)
(0.00894561 -0.0036393 0.00503039)
(0.00818823 -0.00426188 0.00516495)
(0.00846837 -0.00382964 0.00504339)
(0.00864986 -0.00335727 0.00487104)
(0.0091127 -0.00308297 0.00481161)
(0.00807625 -0.00395098 0.00501474)
(0.00848011 -0.00387238 0.00429181)
(0.00838807 -0.00335087 0.00450004)
(0.00843367 -0.00381787 0.00484319)
(0.00884604 -0.00348569 0.0048572)
(0.00848274 -0.00393848 0.00525293)
(0.00859472 -0.00332836 0.00487101)
(0.00890614 -0.00316357 0.00495759)
(0.00871299 -0.00373017 0.00505501)
(0.00837874 -0.00388525 0.00492898)
(0.00864255 -0.00324242 0.00478635)
(0.00996552 -0.00319915 0.00493098)
(0.00877946 -0.0033114 0.00499492)
(0.00899381 -0.00314498 0.00489746)
(0.00820329 -0.00409717 0.00475159)
(0.00751066 -0.00425073 0.00403713)
(0.00784222 -0.00486636 0.00452647)
(0.00802494 -0.00529288 0.00493039)
(0.00776625 -0.00547298 0.00456996)
(0.0076864 -0.00599716 0.00474579)
(0.0079307 -0.00501065 0.00437943)
(0.00730343 -0.00518427 0.00428721)
(0.0081046 -0.00471236 0.00507538)
(0.00831676 -0.0045143 0.00516972)
(0.00801421 -0.00489339 0.00479264)
(0.00765395 -0.00551961 0.00490445)
(0.00752261 -0.00503203 0.00486898)
(0.00797419 -0.00459201 0.00489652)
(0.0081078 -0.00426361 0.00488748)
(0.00772504 -0.00448887 0.00490256)
(0.00780544 -0.00520297 0.00523189)
(0.00710217 -0.0052852 0.00497298)
(0.00861872 -0.00337067 0.00397302)
(0.00939222 -0.00493896 0.00419401)
(0.00966142 -0.0047093 0.00462891)
(0.00847554 -0.00385815 0.00388304)
(0.0101674 -0.00635297 0.00113296)
(0.0104803 -0.00582387 0.00223052)
(0.00999826 -0.00672941 0.00256099)
(0.00968711 -0.00600607 0.00271996)
(0.0195642 -0.0120657 0.0108799)
(0.0202226 -0.0101056 0.0101057)
(0.0216477 -0.0089376 0.00837183)
(0.0202197 -0.00735666 0.00664665)
(0.0219068 -0.00786468 0.00588616)
(0.0201901 -0.00661089 0.00397322)
(0.02136 -0.0104242 0.01008)
(0.021663 -0.00921085 0.00870505)
(0.0204941 -0.00705917 0.00733061)
(0.0210147 -0.00683369 0.00592508)
(0.0205203 -0.00620195 0.00372657)
(0.0201186 -0.00598332 0.00489831)
(0.0175744 -0.00402543 -0.0032203)
(0.016082 -0.00543921 -0.00305687)
(0.0162649 -0.00491527 -0.00326898)
(0.0158646 -0.00555406 -0.00287465)
(0.00921256 -0.00611028 0.00348733)
(0.0149907 -0.00907467 -0.00235144)
(0.0108279 -0.00663998 0.00159993)
(0.0100461 -0.0067214 0.00200172)
(0.0113449 -0.0075826 0.000642366)
(0.0116963 -0.00823506 0.000477072)
(0.0120517 -0.00912993 -5.37147e-06)
(0.0118533 -0.00834279 0.000726916)
(0.0108288 -0.00753165 0.00163035)
(0.0148417 -0.00891511 -0.00179076)
(0.0143204 -0.00934549 -0.000674899)
(0.0130684 -0.00899834 -0.000315775)
(0.00957086 -0.00674971 0.0030197)
(0.00943609 -0.00742049 0.00252625)
(0.00892539 -0.0073472 0.00302212)
(0.0176827 -0.005618 -0.00357835)
(0.017919 -0.00544588 -0.00370838)
(0.0193568 -0.00444273 -0.00311355)
(0.019555 -0.00422098 -0.00357095)
(0.0166877 -0.00943756 -0.00289799)
(0.0169908 -0.00912067 -0.00302065)
(0.0169398 -0.00903326 -0.0035719)
(0.0168151 -0.00931119 -0.00333992)
(0.0153654 -0.00900842 -0.00263215)
(0.0131619 -0.00806852 -0.000254159)
(0.013134 -0.00736628 -0.000603661)
(0.0148419 -0.00846081 -0.00213136)
(0.0158464 -0.00795998 -0.00273327)
(0.0139057 -0.00827537 -0.000742124)
(0.015222 -0.00880674 -0.00201196)
(0.0167205 -0.00693907 -0.00291605)
(0.0177206 -0.00611578 -0.00348004)
(0.0202425 -0.0116576 -0.00438437)
(0.012838 -0.011725 -0.00176485)
(0.0146455 -0.0117745 -0.0022572)
(0.0102366 -0.010393 0.000721601)
(0.00939765 -0.00819876 0.00272617)
(0.00967432 -0.00910455 0.00176164)
(0.0103354 -0.0102072 0.0015145)
(0.00855445 -0.00801465 0.00294422)
(0.0124408 -0.0111842 -0.000768194)
(0.0136929 -0.0124678 -0.00245205)
(0.0122105 -0.0116938 0.000378689)
(0.0114456 -0.011953 0.000709738)
(0.0147303 -0.0140834 -0.00137949)
(0.0115415 -0.0140819 0.000827631)
(0.0141071 -0.0132539 -0.000478956)
(0.012185 -0.0129975 -0.000488335)
(0.00831805 -0.0103349 0.0020535)
(0.009001 -0.0107598 0.0019658)
(0.00944391 -0.012202 0.00124823)
(0.0114172 -0.0118692 0.00159128)
(0.00877867 -0.00870156 0.00262063)
(0.00987932 -0.00934839 0.00348031)
(0.00766191 -0.00927006 0.00297629)
(0.0198885 -0.00722752 -0.0020861)
(0.020645 -0.0078996 -0.00273675)
(0.0200013 -0.00941105 -0.00384687)
(0.0211495 -0.0090069 -0.00330112)
(0.0199762 -0.00748448 -0.00223005)
(0.0169643 -0.0112515 -0.00463246)
(0.0179832 -0.010863 -0.00467146)
(0.0195678 -0.0100852 -0.00400121)
(0.0196269 -0.00985002 -0.00432897)
(0.0132973 -0.0166792 -0.00325135)
(0.0155129 -0.0149509 -0.00406999)
(0.0153751 -0.0119739 -0.00406211)
(0.0157796 -0.0119058 -0.00436041)
(0.0147558 -0.0126401 -0.00300234)
(0.0147011 -0.0123726 -0.00331687)
(0.0161646 -0.0155856 -0.00434593)
(0.0153101 -0.0127664 -0.00412472)
(0.0143082 -0.0143738 -0.00477916)
(0.0153959 -0.0156891 -0.00435936)
(0.0138489 -0.0142731 -0.00392047)
(0.0139193 -0.0161414 -0.00308704)
(0.0128433 -0.0141703 -0.00316797)
(0.0112102 -0.014822 -0.00291483)
(0.0209844 -0.00631534 -0.00181625)
(0.0208506 -0.0058762 0.00462821)
(0.0205204 -0.0059454 0.00254356)
(0.0200778 -0.00871155 0.00944)
(0.0185183 -0.010594 0.0107077)
(0.0166014 -0.0106018 -0.00347018)
(0.0174759 -0.0102969 -0.00390863)
(0.0172357 -0.0095438 -0.00349688)
(0.0178283 -0.00858686 -0.0034176)
(0.0172436 -0.00903826 -0.00350813)
(0.018693 -0.00775505 -0.00357632)
(0.014814 -0.0115409 -0.00244303)
(0.015519 -0.0111634 -0.00288243)
(0.0165938 -0.0107354 -0.00315744)
(0.0136069 -0.0124014 -0.00144589)
(0.0162544 -0.0110683 -0.00285628)
(0.0149093 -0.0121365 -0.00193423)
(0.00796732 -0.00616383 0.00441009)
(0.0102521 -0.0144576 2.96265e-05)
(0.0129198 -0.0142056 -0.00247571)
(0.00993954 -0.0127894 0.00154001)
(0.0119644 -0.0126671 0.00128013)
(0.00834005 -0.0122581 0.0028317)
(0.00763494 -0.0111004 0.00340433)
(0.00883863 -0.0124611 0.00288041)
(0.00841337 -0.0124374 0.00182054)