/*--------------------------------*- C++ -*----------------------------------*\
| =========                 |                                                 |
| \\      /  F ield         | OpenFOAM: The Open Source CFD Toolbox           |
|  \\    /   O peration     | Version:  v1612+                                |
|   \\  /    A nd           | Web:      www.OpenFOAM.com                      |
|    \\/     M anipulation  |                                                 |
\*---------------------------------------------------------------------------*/
FoamFile
{
    version     2.0;
    format      ascii;
    class       volScalarField;
    location    "206";
    object      p;
}
// * * * * * * * * * * * * * * * * * * * * * * * * * * * * * * * * * * * * * //

dimensions      [0 2 -2 0 0 0 0];

internalField   nonuniform List<scalar> 
18807
(
3.34473
3.33754
3.33225
3.33306
3.34272
3.34971
3.33744
3.33611
3.34077
3.3396
3.33453
3.35004
3.35906
3.34085
3.34003
3.35065
3.2389
3.23213
3.22977
3.23725
3.24064
3.24544
3.23701
3.24795
3.25039
3.24111
3.24496
3.25264
3.25221
3.23949
3.24639
3.25175
3.24333
3.24555
3.24696
3.24442
3.2504
3.24456
3.24585
3.23639
3.23758
3.24621
3.25515
3.25015
3.24543
3.24557
3.24585
3.2366
3.24102
3.24792
3.25831
3.24368
3.24797
3.23985
3.2566
3.17995
3.1828
3.18325
3.1808
3.18341
3.18511
3.18836
3.18553
3.1851
3.18568
3.19014
3.19588
3.19015
3.19654
3.19037
3.19456
3.19237
3.19244
3.1923
3.19104
3.19423
3.18367
3.19023
3.19077
3.18783
3.22583
3.22444
3.22031
3.2187
3.22279
3.22753
3.22438
3.2209
3.22273
3.22312
3.21864
3.22558
3.22602
3.21829
3.2201
3.22356
3.22214
3.22011
3.26195
3.26628
3.26811
3.26137
3.25899
3.26143
3.27009
3.25616
3.25265
3.25277
3.25623
3.26087
3.22565
3.22469
3.22525
3.22423
3.21679
3.22327
3.22471
3.21572
3.21831
3.21588
3.21544
3.22046
3.21709
3.26699
3.26719
3.26484
3.26332
3.26179
3.2623
3.26979
3.26788
3.26931
3.26221
3.26139
3.26826
3.2669
3.26472
3.26905
3.26613
3.26543
3.26852
3.2657
3.2631
3.2666
3.22939
3.22764
3.22283
3.22251
3.21447
3.21267
3.22388
3.22195
3.20936
3.21544
3.21526
3.2119
3.22741
3.2224
3.2206
3.21879
3.22344
3.21934
3.21843
3.21363
3.22222
3.2189
3.21951
3.21407
3.22711
3.22464
3.22363
3.2215
3.22482
3.22029
3.22697
3.2267
3.21925
3.2174
3.2182
3.28166
3.28829
3.28293
3.28385
3.28148
3.27418
3.26886
3.28242
3.28604
3.27666
3.271
3.26391
3.26981
3.27329
3.27743
3.27656
3.27281
3.26583
3.26521
3.26557
3.27209
3.25231
3.25477
3.25933
3.2564
3.25191
3.24938
3.26549
3.25833
3.25983
3.26136
3.25715
3.2622
3.25906
3.25892
3.25669
3.25548
3.26098
3.21161
3.20737
3.20906
3.21144
3.20819
3.21302
3.21255
3.2144
3.2133
3.21303
3.21527
3.26468
3.26661
3.26059
3.25911
3.27396
3.27277
3.26864
3.27513
3.27185
3.26446
3.26328
3.26703
3.2615
3.26228
3.26102
3.26688
3.26219
3.26589
3.25522
3.2543
3.26265
3.26578
3.28938
3.2878
3.28669
3.28806
3.24428
3.24507
3.24645
3.24351
3.25066
3.25225
3.24791
3.24479
3.24616
3.24692
3.25283
3.25171
3.25304
3.24996
3.25236
3.25068
3.24897
3.25316
3.25424
3.25093
3.25124
3.25082
3.2885
3.29466
3.29541
3.29643
3.29713
3.30117
3.3032
3.2999
3.30356
3.30959
3.30592
3.30242
3.30128
3.30784
3.31106
3.30995
3.30851
3.30859
3.33617
3.34021
3.3546
3.36376
3.35284
3.35247
3.35855
3.36263
3.36221
3.36546
3.34823
3.35696
3.34154
3.34599
3.33782
3.3517
3.3533
3.34751
3.36165
3.35072
3.25442
3.26094
3.2647
3.26388
3.2506
3.25588
3.25302
3.26018
3.26696
3.25137
3.26217
3.25344
3.25061
3.26003
3.2546
3.25737
3.25451
3.26278
3.30148
3.2898
3.29684
3.28815
3.29346
3.29988
3.30266
3.30148
3.30421
3.29433
3.29223
3.2875
3.30688
3.28961
3.30047
3.2448
3.25068
3.24934
3.24255
3.25618
3.2656
3.26828
3.24594
3.23944
3.24255
3.25209
3.25863
3.26143
3.24631
3.24345
3.24373
3.23937
3.25454
3.24823
3.25109
3.19358
3.19462
3.19543
3.19272
3.19708
3.19846
3.19185
3.19715
3.19393
3.19621
3.19429
3.25004
3.24807
3.23013
3.22638
3.23679
3.23035
3.22984
3.22597
3.24272
3.24568
3.23653
3.23247
3.2349
3.24187
3.24095
3.24445
3.23302
3.19801
3.21276
3.21227
3.21184
3.21189
3.20303
3.20164
3.20735
3.21337
3.21447
3.28669
3.28333
3.27569
3.28069
3.29382
3.29078
3.28864
3.29025
3.28873
3.28244
3.27209
3.27476
3.28829
3.27983
3.2856
3.29819
3.29897
3.28967
3.2879
3.29825
3.29662
3.301
3.29104
3.28048
3.28001
3.29207
3.27949
3.27816
3.28119
3.28665
3.28827
3.25591
3.25816
3.26069
3.24245
3.25528
3.25671
3.25015
3.25323
3.24671
3.24745
3.24135
3.25697
3.24874
3.24821
3.25264
3.25441
3.17974
3.1823
3.18269
3.18935
3.18357
3.18594
3.18445
3.18104
3.1754
3.17789
3.18059
3.17971
3.18466
3.18003
3.17952
3.17954
3.17499
3.17968
3.17741
3.22875
3.23134
3.21721
3.21577
3.22211
3.21466
3.21813
3.21646
3.22028
3.2193
3.21612
3.21759
3.23608
3.2395
3.24091
3.24249
3.24307
3.2397
3.23798
3.24667
3.24071
3.23954
3.23661
3.24146
3.2401
3.23899
3.24115
3.24218
3.24526
3.24672
3.24038
3.24884
3.23957
3.24226
3.24473
3.24595
3.26852
3.2697
3.27398
3.26606
3.26712
3.27259
3.27591
3.26338
3.27941
3.26357
3.274
3.27323
3.25982
3.26295
3.20371
3.20604
3.21449
3.2127
3.20419
3.20296
3.21332
3.2151
3.20688
3.2077
3.21572
3.21121
3.20679
3.20507
3.21152
3.21166
3.2103
3.20901
3.30808
3.30261
3.29423
3.30126
3.32635
3.31376
3.30454
3.30353
3.31177
3.32118
3.31967
3.31482
3.30422
3.32491
3.32583
3.31138
3.31929
3.28965
3.29121
3.29412
3.28528
3.28929
3.29435
3.29978
3.29429
3.29538
3.29968
3.30372
3.29623
3.2892
3.28947
3.30728
3.30585
3.29955
3.29771
3.31002
3.30516
3.30033
3.30661
3.2986
3.30269
3.26354
3.26204
3.2583
3.25483
3.25676
3.25927
3.27451
3.27386
3.27612
3.27936
3.27007
3.26969
3.26404
3.26051
3.2701
3.26542
3.26624
3.26771
3.26961
3.2636
3.26807
3.23242
3.23552
3.23562
3.23757
3.22894
3.22673
3.22629
3.2163
3.22122
3.2169
3.21499
3.23227
3.23228
3.22228
3.21546
3.21469
3.22259
3.22052
3.22251
3.22168
3.22721
3.22635
3.22402
3.22821
3.22255
3.22534
3.22286
3.22802
3.22483
3.22205
3.22287
3.22989
3.23064
3.22897
3.23918
3.23299
3.23187
3.24006
3.253
3.25569
3.25914
3.25785
3.2628
3.25938
3.26654
3.26697
3.267
3.26289
3.26397
3.26105
3.25871
3.25344
3.25863
3.25931
3.266
3.26142
3.26842
3.26357
3.26204
3.261
3.259
3.2422
3.2456
3.244
3.23901
3.24262
3.24658
3.24722
3.24433
3.24324
3.25196
3.25072
3.24544
3.24536
3.25016
3.25431
3.24637
3.27635
3.27421
3.27666
3.28471
3.27849
3.27364
3.276
3.2645
3.26442
3.28122
3.27168
3.26101
3.2731
3.26899
3.27239
3.2577
3.26381
3.26462
3.27303
3.25612
3.25885
3.2582
3.2571
3.26488
3.26429
3.26399
3.26187
3.26981
3.27435
3.26981
3.2335
3.23133
3.23488
3.23084
3.22701
3.22903
3.22814
3.22553
3.22555
3.22941
3.22628
3.2174
3.22908
3.23147
3.23956
3.24201
3.2296
3.23605
3.23186
3.2375
3.2381
3.22566
3.22652
3.24012
3.23127
3.23688
3.2353
3.2314
3.23558
3.33058
3.33389
3.33929
3.33675
3.33551
3.33716
3.35398
3.33875
3.34593
3.3565
3.34762
3.35069
3.34417
3.33779
3.34626
3.34433
3.25991
3.26771
3.26897
3.26967
3.26666
3.26423
3.27396
3.26413
3.26542
3.26418
3.26783
3.26803
3.26708
3.25855
3.26801
3.2722
3.26982
3.27187
3.27309
3.25933
3.26109
3.25946
3.27032
3.25671
3.26447
3.26201
3.25979
3.25872
3.26044
3.2584
3.18615
3.19356
3.18945
3.19446
3.1937
3.19491
3.19386
3.19393
3.19209
3.19342
3.19948
3.19919
3.19225
3.19426
3.21865
3.20947
3.21091
3.22557
3.22198
3.21752
3.21365
3.17651
3.20953
3.20463
3.20402
3.18083
3.17714
3.181
3.19241
3.18984
3.19617
3.17931
3.18288
3.18035
3.17891
3.22736
3.23119
3.22504
3.25731
3.25243
3.22561
3.22016
3.20232
3.20518
3.25176
3.20135
3.19656
3.19612
3.18821
3.18623
3.19351
3.19536
3.19468
3.27269
3.26393
3.26669
3.2597
3.24205
3.23842
3.24731
3.23074
3.23907
3.23678
3.20586
3.2085
3.21063
3.27694
3.27507
3.26604
3.27673
3.27585
3.20431
3.19582
3.19981
3.19711
3.19976
3.19342
3.19869
3.22482
3.22162
3.21362
3.2152
3.25266
3.24583
3.25434
3.24729
3.24772
3.23672
3.23516
3.23816
3.27546
3.27504
3.28676
3.29161
3.29041
3.21115
3.20271
3.21299
3.2091
3.25417
3.2458
3.2452
3.2361
3.24331
3.23559
3.20683
3.21078
3.24362
3.25096
3.24124
3.24673
3.21574
3.2161
3.28339
3.28997
3.29109
3.29409
3.29291
3.23705
3.23502
3.24269
3.23648
3.22917
3.23146
3.22753
3.22973
3.22728
3.22825
3.22608
3.2206
3.21908
3.2215
3.27759
3.28291
3.27358
3.2669
3.2711
3.2632
3.2585
3.26362
3.26237
3.31178
3.31046
3.30296
3.31163
3.30775
3.30637
3.29694
3.23161
3.23236
3.22604
3.24799
3.24458
3.24134
3.25385
3.2547
3.24267
3.28765
3.28943
3.23458
3.23854
3.22997
3.2488
3.24652
3.25075
3.24772
3.33272
3.33291
3.3273
3.32587
3.3312
3.32993
3.26681
3.26126
3.27054
3.26771
3.26213
3.27234
3.30581
3.30743
3.29774
3.24607
3.24592
3.24133
3.32297
3.33421
3.33219
3.3281
3.34377
3.34601
3.2676
3.26351
3.26334
3.25273
3.24644
3.25283
3.32637
3.32342
3.33132
3.26036
3.25893
3.26148
3.25823
3.2835
3.27599
3.28695
3.35735
3.36211
3.29939
3.30692
3.29884
3.28677
3.31719
3.3213
3.35064
3.34544
3.34542
3.26898
3.27113
3.29257
3.29164
3.28591
3.28578
3.28928
3.28182
3.37872
3.37618
3.38321
3.37192
3.2598
3.26333
3.26485
3.27848
3.27981
3.36072
3.36843
3.36158
3.32886
3.33805
3.32923
3.29554
3.29579
3.27519
3.27211
3.27331
3.39809
3.39221
3.39791
3.28048
3.27758
3.30684
3.30104
3.29592
3.30458
3.35807
3.34276
3.35296
3.33902
3.34622
3.31603
3.31354
3.32403
3.32278
3.33763
3.33471
3.28726
3.29301
3.29644
3.28931
3.28963
3.30188
3.28288
3.28631
3.28303
3.28358
3.28595
3.38995
3.39247
3.38449
3.37508
3.37393
3.384
3.39175
3.38554
3.38137
3.38845
3.40241
3.39236
3.40312
3.40878
3.33578
3.34534
3.35036
3.27056
3.27419
3.27212
3.26761
3.26925
3.26454
3.27194
3.27187
3.26595
3.26653
3.26555
3.27093
3.2709
3.26781
3.26897
3.27132
3.3053
3.31574
3.30279
3.31298
3.31789
3.29707
3.29043
3.29226
3.29218
3.28959
3.29213
3.29066
3.29366
3.293
3.28357
3.32107
3.3159
3.32557
3.32177
3.3205
3.31036
3.32559
3.32195
3.31536
3.33607
3.32794
3.31907
3.3391
3.33728
3.3373
3.33053
3.33358
3.33347
3.36218
3.3705
3.36462
3.34369
3.33645
3.34278
3.32445
3.3343
3.33027
3.26128
3.27041
3.26694
3.2665
3.26965
3.26756
3.26517
3.26426
3.26808
3.26465
3.26948
3.36033
3.35522
3.36152
3.34588
3.34968
3.35097
3.34877
3.34606
3.34744
3.35355
3.38674
3.37429
3.36019
3.3611
3.36995
3.35865
3.37045
3.36529
3.2818
3.27851
3.27751
3.27912
3.27985
3.27984
3.2792
3.27779
3.27198
3.27278
3.27592
3.27403
3.27103
3.27328
3.27559
3.27605
3.27252
3.27308
3.27885
3.28677
3.27967
3.28213
3.27872
3.27972
3.28525
3.28093
3.28748
3.28593
3.28696
3.29006
3.28268
3.28365
3.28495
3.28274
3.2885
3.28497
3.28568
3.28693
3.25113
3.25725
3.25377
3.26647
3.26712
3.26759
3.26598
3.25973
3.2583
3.26384
3.26137
3.26266
3.26563
3.26465
3.26428
3.26067
3.26083
3.25825
3.25791
3.26279
3.2653
3.26747
3.26228
3.26577
3.25953
3.26238
3.26733
3.26677
3.35131
3.3578
3.35489
3.36716
3.35354
3.37301
3.36977
3.37021
3.38087
3.37822
3.37151
3.35998
3.37839
3.36254
3.37758
3.37181
3.36665
3.36151
3.27013
3.27416
3.27681
3.27139
3.28352
3.28771
3.30289
3.30608
3.31006
3.27586
3.27903
3.28329
3.28284
3.28234
3.28882
3.27699
3.28036
3.27878
3.26268
3.26594
3.26578
3.26591
3.26634
3.26515
3.26736
3.27258
3.27029
3.27098
3.26992
3.27003
3.27173
3.27139
3.32215
3.32729
3.31844
3.31763
3.33594
3.33289
3.34671
3.32619
3.33303
3.35082
3.34309
3.33546
3.33622
3.35348
3.34207
3.3459
3.35098
3.34879
3.29411
3.29787
3.28831
3.29687
3.3263
3.32495
3.31452
3.31572
3.33102
3.33368
3.31564
3.31586
3.31274
3.3149
3.31666
3.32129
3.33066
3.3216
3.32205
3.33479
3.33396
3.31955
3.32193
3.32986
3.3238
3.28609
3.28152
3.28403
3.28741
3.28813
3.28491
3.2904
3.28143
3.28005
3.28736
3.28208
3.28005
3.28269
3.29091
3.28785
3.30262
3.29367
3.30499
3.28761
3.28656
3.29877
3.31119
3.31402
3.29961
3.30291
3.29847
3.28787
3.29359
3.2925
3.28705
3.28684
3.35201
3.34772
3.34855
3.35619
3.35354
3.3532
3.35103
3.36546
3.36348
3.36502
3.35712
3.37088
3.36332
3.24681
3.26258
3.25656
3.26026
3.24808
3.25439
3.25804
3.25749
3.26531
3.26616
3.26738
3.26006
3.27179
3.27675
3.27263
3.27084
3.27245
3.26739
3.2744
3.266
3.26563
3.25704
3.25843
3.25176
3.25509
3.24869
3.2482
3.25006
3.2549
3.33406
3.3377
3.33277
3.33116
3.31288
3.29979
3.30028
3.31369
3.31068
3.30604
3.31316
3.31397
3.24254
3.25105
3.2493
3.24732
3.24107
3.24936
3.24553
3.2468
3.25753
3.25385
3.24652
3.26007
3.26499
3.265
3.25623
3.26264
3.25245
3.25458
3.24973
3.24595
3.25511
3.25448
3.24813
3.25044
3.24731
3.2532
3.25863
3.26351
3.26269
3.26228
3.26674
3.26963
3.26421
3.26522
3.26685
3.26245
3.27523
3.27222
3.26283
3.27644
3.27527
3.27428
3.27729
3.27205
3.32976
3.3259
3.34403
3.34204
3.33493
3.32879
3.33382
3.3336
3.31951
3.31952
3.33178
3.32908
3.32081
3.33457
3.30081
3.3012
3.30758
3.31502
3.31947
3.31346
3.3214
3.32178
3.31204
3.31172
3.34377
3.344
3.32675
3.32938
3.34654
3.3348
3.33432
3.33235
3.3128
3.31034
3.30884
3.30299
3.31549
3.3196
3.30493
3.31235
3.32113
3.3162
3.23131
3.24042
3.23896
3.2413
3.24034
3.24382
3.24016
3.24466
3.24743
3.24331
3.24234
3.2446
3.24535
3.24684
3.2415
3.24353
3.24342
3.24904
3.247
3.24373
3.24515
3.24457
3.24386
3.24985
3.25108
3.24959
3.24536
3.24682
3.28504
3.29424
3.29187
3.29939
3.29784
3.29803
3.32719
3.32532
3.32633
3.32232
3.32226
3.31723
3.31591
3.31736
3.31016
3.31538
3.24834
3.25334
3.25443
3.25187
3.27933
3.27353
3.26932
3.27611
3.27065
3.25316
3.26619
3.2642
3.26086
3.26812
3.26281
3.26876
3.2657
3.27254
3.26456
3.26117
3.25525
3.25721
3.25968
3.25719
3.25976
3.25937
3.26076
3.25818
3.28359
3.28525
3.27831
3.32796
3.32462
3.33271
3.32871
3.32429
3.31554
3.31207
3.31969
3.31716
3.31355
3.31812
3.32239
3.31397
3.31623
3.31674
3.31877
3.32233
3.31916
3.3163
3.33021
3.325
3.32364
3.32467
3.32528
3.32134
3.32035
3.33407
3.33781
3.32465
3.32637
3.32461
3.32236
3.32346
3.33879
3.3324
3.33328
3.33029
3.24081
3.24525
3.24688
3.24432
3.24472
3.24195
3.24428
3.24532
3.24232
3.24176
3.24086
3.24209
3.24834
3.24836
3.25244
3.25155
3.25853
3.2575
3.24962
3.23433
3.23108
3.24128
3.23604
3.24389
3.24393
3.22585
3.23237
3.23127
3.23493
3.23362
3.23571
3.23413
3.23519
3.23789
3.2375
3.2777
3.28256
3.27801
3.27777
3.28295
3.26926
3.26933
3.28213
3.28288
3.30628
3.29718
3.313
3.30594
3.29463
3.28978
3.29787
3.30045
3.29347
3.30287
3.31042
3.28721
3.28691
3.30281
3.30342
3.29805
3.2937
3.29154
3.2914
3.29425
3.30259
3.30723
3.2437
3.25192
3.25018
3.24653
3.27076
3.27612
3.27473
3.27763
3.2633
3.26522
3.26003
3.27754
3.24146
3.2393
3.24017
3.23765
3.24108
3.24539
3.25321
3.25045
3.24499
3.24244
3.24842
3.24166
3.25651
3.25395
3.22904
3.23096
3.22303
3.22557
3.22757
3.22937
3.23514
3.2347
3.23357
3.24118
3.24246
3.23403
3.23273
3.23905
3.23994
3.23582
3.23798
3.23832
3.23473
3.23818
3.23739
3.23759
3.23554
3.23461
3.30502
3.30848
3.31439
3.29941
3.29568
3.30466
3.29475
3.30294
3.30283
3.29551
3.2912
3.28673
3.289
3.29263
3.29279
3.30815
3.29973
3.28974
3.28242
3.28757
3.30015
3.29683
3.29162
3.28828
3.30344
3.2931
3.30135
3.30332
3.31129
3.30762
3.31093
3.30441
3.25491
3.25854
3.2498
3.25634
3.2642
3.26253
3.28364
3.28685
3.27054
3.27366
3.28146
3.27186
3.26378
3.26786
3.27065
3.26902
3.27174
3.26751
3.26258
3.26168
3.25793
3.25388
3.2662
3.26259
3.28843
3.27455
3.28652
3.28894
3.28236
3.28447
3.28028
3.28216
3.29342
3.28642
3.28689
3.28503
3.29909
3.30474
3.29142
3.2885
3.21399
3.2184
3.21294
3.21502
3.22057
3.21448
3.21583
3.22124
3.22676
3.21776
3.21756
3.21988
3.2211
3.21096
3.21803
3.2158
3.2133
3.23008
3.23152
3.23057
3.21657
3.2211
3.21968
3.22339
3.22459
3.21932
3.21921
3.22446
3.23419
3.23045
3.23007
3.22925
3.2291
3.23183
3.23187
3.24108
3.24342
3.23698
3.23455
3.23415
3.23473
3.24077
3.24613
3.2414
3.22
3.22392
3.22093
3.22916
3.22916
3.22961
3.22768
3.22024
3.22866
3.23774
3.23744
3.23357
3.24016
3.2339
3.2301
3.29015
3.28357
3.28648
3.29578
3.29261
3.28373
3.28717
3.29971
3.2849
3.28204
3.28145
3.27651
3.28305
3.28454
3.29741
3.30269
3.29968
3.30091
3.2941
3.28563
3.28767
3.283
3.29397
3.29294
3.28909
3.27661
3.27767
3.28272
3.2785
3.27725
3.28116
3.28262
3.28528
3.30451
3.30035
3.29365
3.29423
3.29036
3.29353
3.30525
3.29535
3.29579
3.29465
3.28949
3.30276
3.28869
3.28489
3.28382
3.28744
3.28854
3.21261
3.21489
3.21168
3.20702
3.20767
3.20443
3.22322
3.22387
3.21498
3.21909
3.21931
3.21535
3.21642
3.23854
3.24216
3.24156
3.24078
3.23799
3.20568
3.19866
3.20836
3.20923
3.2102
3.20651
3.20993
3.20816
3.21127
3.21123
3.21069
3.21131
3.2099
3.20451
3.20793
3.2146
3.21233
3.21412
3.21361
3.21376
3.25429
3.26277
3.25631
3.26428
3.26077
3.24348
3.24915
3.2466
3.20093
3.20485
3.20057
3.20612
3.20611
3.2187
3.21886
3.21771
3.21345
3.21782
3.21692
3.21346
3.20709
3.21506
3.21539
3.27559
3.28487
3.27933
3.27732
3.2732
3.28766
3.28891
3.28454
3.2978
3.30428
3.2954
3.28712
3.3001
3.2958
3.29223
3.28426
3.26179
3.25028
3.26146
3.27381
3.27707
3.27496
3.2608
3.2725
3.2683
3.27088
3.26654
3.25714
3.25748
3.26239
3.27062
3.27215
3.2168
3.22736
3.22455
3.2334
3.22738
3.23159
3.22162
3.21809
3.2307
3.2253
3.24769
3.25524
3.24974
3.24302
3.24683
3.24019
3.25651
3.24709
3.2306
3.23181
3.24166
3.24383
3.26095
3.25437
3.25213
3.25136
3.23733
3.23893
3.2402
3.23545
3.23283
3.26083
3.25721
3.24996
3.26134
3.25671
3.25429
3.25045
3.26089
3.25674
3.2103
3.21196
3.20861
3.20584
3.21025
3.20655
3.21036
3.20942
3.20914
3.20788
3.21836
3.22104
3.22071
3.22
3.21877
3.21599
3.21849
3.22064
3.21763
3.21526
3.21353
3.21759
3.21642
3.21344
3.21721
3.21581
3.21812
3.22087
3.21774
3.22145
3.2183
3.21795
3.20946
3.21597
3.2152
3.21115
3.21212
3.19233
3.1941
3.19526
3.19386
3.20114
3.19427
3.1932
3.19594
3.20456
3.20193
3.19682
3.19667
3.1945
3.19608
3.19582
3.19514
3.19167
3.19506
3.20907
3.20519
3.2052
3.20599
3.20261
3.20097
3.19971
3.20364
3.20494
3.20648
3.20134
3.19909
3.20139
3.1933
3.19552
3.20783
3.20148
3.20596
3.1975
3.19678
3.19944
3.19688
3.20959
3.20731
3.20138
3.20769
3.20332
3.20235
3.26662
3.27309
3.27206
3.27905
3.28409
3.2799
3.27817
3.2709
3.28553
3.27479
3.28406
3.27356
3.27047
3.26739
3.26966
3.26486
3.26468
3.26682
3.27275
3.27416
3.26768
3.26485
3.26418
3.26666
3.26894
3.21627
3.21729
3.20804
3.20619
3.20379
3.20348
3.20944
3.20116
3.20968
3.21216
3.24496
3.25141
3.2442
3.22883
3.22444
3.23984
3.23194
3.23765
3.23963
3.23002
3.22573
3.22227
3.2265
3.2248
3.21901
3.22419
3.22592
3.23418
3.24678
3.23909
3.24799
3.24609
3.23946
3.24543
3.24257
3.23803
3.24607
3.24177
3.24588
3.24567
3.24201
3.24381
3.24777
3.2225
3.22002
3.2358
3.23253
3.23393
3.22651
3.23723
3.23544
3.23552
3.2387
3.25561
3.25214
3.26559
3.25572
3.26505
3.18831
3.19041
3.1931
3.1937
3.202
3.20103
3.2073
3.20805
3.20648
3.20678
3.20091
3.20273
3.20354
3.179
3.18655
3.18204
3.18863
3.18621
3.18496
3.18879
3.18295
3.18507
3.17811
3.18714
3.18787
3.18394
3.19625
3.19175
3.1946
3.19696
3.19002
3.19219
3.18988
3.19095
3.18788
3.1904
3.19528
3.1907
3.18679
3.19229
3.24248
3.24775
3.25706
3.25887
3.2516
3.26564
3.20594
3.21025
3.19915
3.19723
3.21092
3.20946
3.20585
3.19732
3.2322
3.2389
3.23586
3.24543
3.24
3.24342
3.25842
3.25964
3.25614
3.2613
3.2564
3.26418
3.25656
3.2578
3.25711
3.25025
3.25945
3.25683
3.21941
3.22944
3.22601
3.221
3.22629
3.22187
3.22712
3.22084
3.23633
3.23614
3.23006
3.22724
3.22971
3.22848
3.24045
3.24614
3.23453
3.23523
3.23791
3.23424
3.23475
3.22569
3.22707
3.1733
3.17714
3.18269
3.18061
3.17396
3.17554
3.17609
3.17339
3.17556
3.17653
3.17432
3.17987
3.18228
3.18005
3.19016
3.18633
3.18626
3.17953
3.18392
3.188
3.18355
3.17145
3.17326
3.17159
3.18096
3.1778
3.17439
3.17934
3.18196
3.18204
3.1815
3.17584
3.17603
3.17773
3.17337
3.18121
3.184
3.18149
3.17847
3.17229
3.18105
3.17717
3.17423
3.20613
3.2075
3.2043
3.19739
3.18693
3.19396
3.1915
3.19636
3.213
3.21349
3.21065
3.221
3.20409
3.20192
3.20401
3.20697
3.21635
3.22033
3.21856
3.21573
3.21502
3.21349
3.23423
3.23817
3.24298
3.23842
3.23468
3.25268
3.23855
3.25196
3.2493
3.19056
3.1806
3.18206
3.17815
3.17511
3.17586
3.17579
3.17025
3.17124
3.17115
3.17282
3.2626
3.25832
3.24331
3.24443
3.25398
3.25357
3.24646
3.24397
3.2095
3.22684
3.22441
3.21724
3.21233
3.19963
3.19219
3.19563
3.19941
3.20178
3.21416
3.22496
3.21507
3.21957
3.21396
3.22235
3.21455
3.20848
3.18347
3.18866
3.18312
3.18303
3.19056
3.18268
3.18344
3.18467
3.1835
3.18489
3.17207
3.17316
3.17358
3.17233
3.23269
3.22268
3.2315
3.23477
3.23137
3.22601
3.22246
3.23143
3.22299
3.23446
3.23577
3.21686
3.23129
3.22804
3.22066
3.23047
3.2299
3.22963
3.22666
3.22989
3.23271
3.22564
3.22493
3.22691
3.23779
3.2385
3.21957
3.21434
3.21447
3.21216
3.21958
3.22098
3.21735
3.21472
3.20956
3.21139
3.21017
3.20115
3.20634
3.19674
3.19983
3.20395
3.20232
3.20272
3.20392
3.25405
3.26363
3.26587
3.25308
3.26225
3.26215
3.26135
3.26686
3.26339
3.25287
3.25149
3.19367
3.20215
3.20102
3.1992
3.19842
3.19249
3.19992
3.20073
3.19047
3.18974
3.19137
3.18734
3.18439
3.18559
3.18927
3.19149
3.18786
3.18763
3.18512
3.18234
3.18446
3.18129
3.18419
3.18024
3.18403
3.18948
3.19052
3.19322
3.19404
3.19526
3.19509
3.19592
3.1987
3.19312
3.19563
3.19893
3.202
3.19759
3.19685
3.1996
3.19222
3.19153
3.19713
3.1954
3.25844
3.26005
3.25996
3.25495
3.26337
3.26064
3.24556
3.25981
3.25173
3.25614
3.24902
3.24873
3.24538
3.23736
3.24239
3.25211
3.25293
3.2577
3.25146
3.25752
3.25413
3.22755
3.22414
3.23626
3.23898
3.23908
3.23663
3.23229
3.24277
3.23788
3.24367
3.2419
3.25195
3.25905
3.26648
3.26147
3.29582
3.28878
3.28457
3.27712
3.2795
3.28553
3.27924
3.26351
3.26792
3.27628
3.27275
3.266
3.25476
3.25729
3.26015
3.27276
3.27375
3.26992
3.26992
3.27902
3.20868
3.20633
3.20356
3.21425
3.2159
3.21648
3.20933
3.27829
3.27651
3.27165
3.26447
3.26088
3.26008
3.25634
3.26122
3.23633
3.2361
3.24222
3.24707
3.24549
3.2439
3.24134
3.2421
3.22213
3.21835
3.22018
3.21845
3.20716
3.21052
3.20617
3.20943
3.21031
3.21684
3.21638
3.21064
3.20582
3.21783
3.21414
3.20783
3.21361
3.22283
3.21347
3.21287
3.21953
3.20943
3.20507
3.20985
3.2048
3.20581
3.21181
3.20458
3.20954
3.20793
3.20644
3.20864
3.20986
3.21199
3.21352
3.21018
3.20772
3.20911
3.20667
3.20811
3.20748
3.20759
3.20944
3.21307
3.2182
3.22166
3.21727
3.21635
3.21727
3.22009
3.20673
3.20552
3.19952
3.19581
3.20422
3.20563
3.20031
3.19822
3.20355
3.20059
3.20094
3.21468
3.21858
3.2161
3.21315
3.21467
3.21712
3.21896
3.21741
3.21951
3.29398
3.30251
3.30501
3.29908
3.28906
3.29337
3.28989
3.30522
3.3034
3.29158
3.29046
3.29743
3.29831
3.27643
3.26943
3.27234
3.27344
3.27455
3.27783
3.27998
3.28257
3.29017
3.28049
3.29348
3.29193
3.2926
3.2972
3.29243
3.28899
3.28936
3.28525
3.28852
3.28945
3.27855
3.27747
3.26879
3.2797
3.27573
3.27748
3.27377
3.27804
3.28011
3.26988
3.27443
3.28379
3.29098
3.28657
3.28871
3.29152
3.28455
3.23631
3.23553
3.23227
3.22747
3.23487
3.23556
3.23838
3.23042
3.23401
3.23481
3.23244
3.22757
3.22452
3.21847
3.22714
3.22267
3.22506
3.22524
3.22534
3.23167
3.21781
3.2271
3.22364
3.23064
3.22757
3.22471
3.22344
3.21867
3.21544
3.21692
3.21804
3.22919
3.23068
3.21344
3.21632
3.21608
3.21254
3.21003
3.20446
3.20566
3.20682
3.21377
3.2178
3.20858
3.21539
3.20542
3.21577
3.3047
3.29985
3.29142
3.24427
3.24562
3.2444
3.24777
3.251
3.25528
3.25707
3.25812
3.25199
3.24168
3.25647
3.2525
3.24738
3.25276
3.24711
3.24391
3.24873
3.23578
3.24663
3.23954
3.23462
3.23153
3.2369
3.23708
3.31228
3.31088
3.30279
3.30216
3.31512
3.30942
3.26826
3.277
3.27458
3.2693
3.27624
3.29729
3.31125
3.29873
3.29655
3.29701
3.29604
3.30072
3.30738
3.30032
3.31386
3.30597
3.30742
3.30659
3.3081
3.23756
3.23656
3.23955
3.23482
3.23298
3.23863
3.23711
3.23453
3.24641
3.23693
3.23787
3.25656
3.24899
3.24811
3.24199
3.23839
3.24882
3.24934
3.24522
3.24604
3.24719
3.31914
3.32209
3.31597
3.31365
3.3086
3.31693
3.3312
3.32893
3.3312
3.33705
3.3287
3.32922
3.32683
3.31917
3.30403
3.31353
3.30726
3.31238
3.31476
3.31437
3.29634
3.30423
3.30322
3.30076
3.28138
3.27617
3.27045
3.26647
3.27284
3.27056
3.26945
3.26415
3.27446
3.27395
3.26736
3.26988
3.26865
3.27852
3.27091
3.27327
3.27829
3.29367
3.28059
3.28132
3.28615
3.28413
3.29255
3.28189
3.28766
3.29756
3.29124
3.25694
3.25551
3.25668
3.25383
3.26014
3.2576
3.25728
3.2475
3.24877
3.25345
3.25068
3.25534
3.25443
3.26736
3.25999
3.26337
3.25015
3.26097
3.26626
3.2713
3.26279
3.25224
3.25469
3.25007
3.25101
3.24969
3.25529
3.25384
3.24375
3.24761
3.25326
3.24567
3.24302
3.27683
3.28869
3.28149
3.28035
3.28739
3.28181
3.28153
3.2939
3.29658
3.28939
3.24649
3.24953
3.24877
3.25016
3.24833
3.24696
3.2471
3.25177
3.30101
3.29111
3.29505
3.29866
3.29036
3.29682
3.29159
3.30065
3.29435
3.3006
3.30184
3.35409
3.34868
3.3526
3.33858
3.3461
3.31655
3.31427
3.3083
3.30603
3.31911
3.31944
3.31963
3.31088
3.3149
3.31871
3.30331
3.29854
3.30999
3.30555
3.26337
3.26708
3.26432
3.26416
3.27094
3.26963
3.26599
3.26634
3.2688
3.26173
3.2617
3.25947
3.25279
3.25556
3.25659
3.26354
3.2656
3.26294
3.26343
3.25923
3.25981
3.23726
3.24032
3.23609
3.24435
3.24182
3.2353
3.23663
3.24466
3.23832
3.23637
3.24292
3.24375
3.24618
3.24285
3.24457
3.24403
3.2411
3.24959
3.25251
3.25011
3.25105
3.26474
3.25908
3.25845
3.26379
3.26438
3.26154
3.26158
3.25834
3.26079
3.2586
3.26049
3.26741
3.26693
3.27223
3.27204
3.26936
3.26733
3.26838
3.26575
3.27924
3.28072
3.28219
3.2774
3.27494
3.31264
3.30405
3.29672
3.29344
3.29957
3.2938
3.31098
3.31574
3.30892
3.29858
3.31208
3.30654
3.31383
3.26221
3.26156
3.26455
3.26506
3.26173
3.25972
3.26319
3.26399
3.2955
3.30493
3.30553
3.27844
3.27627
3.27417
3.27954
3.27769
3.27917
3.29265
3.28755
3.2918
3.29235
3.28444
3.28881
3.29113
3.29374
3.3696
3.38085
3.37175
3.37394
3.37329
3.38533
3.38417
3.38466
3.39172
3.38261
3.36762
3.39489
3.38626
3.38373
3.38029
3.35181
3.3471
3.34858
3.33893
3.36616
3.35379
3.35647
3.36085
3.36205
3.25269
3.25397
3.25616
3.25578
3.25411
3.25765
3.25866
3.25891
3.28751
3.26421
3.28047
3.26725
3.27396
3.27829
3.26998
3.28011
3.2648
3.26085
3.26695
3.26772
3.27516
3.27427
3.31988
3.33523
3.32968
3.32614
3.32829
3.32387
3.33348
3.32918
3.3311
3.32613
3.37565
3.36471
3.35471
3.36415
3.37636
3.36058
3.37781
3.37332
3.3747
3.373
3.37124
3.29786
3.30634
3.298
3.31301
3.31528
3.3124
3.30413
3.31353
3.31883
3.31892
3.32134
3.29794
3.29387
3.29056
3.29001
3.29821
3.29633
3.28952
3.28714
3.2762
3.27419
3.27352
3.27487
3.38375
3.38712
3.39259
3.39105
3.39733
3.38947
3.39969
3.39405
3.36684
3.39507
3.39237
3.39319
3.38636
3.36104
3.35445
3.37173
3.37084
3.37209
3.36548
3.38059
3.37579
3.36652
3.36671
3.36259
3.37382
3.37631
3.2691
3.27213
3.26913
3.27254
3.39035
3.38693
3.38222
3.38614
3.39318
3.35794
3.3491
3.36357
3.35719
3.34884
3.34664
3.28529
3.28096
3.28125
3.29221
3.28784
3.27905
3.27636
3.29319
3.29188
3.29208
3.28756
3.26159
3.26525
3.26651
3.26633
3.25512
3.25113
3.26276
3.29912
3.30086
3.30454
3.30724
3.31267
3.30446
3.30605
3.30364
3.30708
3.30827
3.30485
3.30621
3.30408
3.30759
3.30582
3.30713
3.31688
3.31289
3.32073
3.31478
3.31318
3.31067
3.24949
3.24408
3.25337
3.24184
3.24249
3.24582
3.24245
3.24885
3.24682
3.24795
3.24857
3.24782
3.23778
3.24105
3.24218
3.24065
3.23772
3.23046
3.23534
3.23094
3.23005
3.23663
3.23543
3.23586
3.22782
3.22766
3.20787
3.21181
3.21825
3.21431
3.21593
3.21028
3.21012
3.21359
3.21481
3.21695
3.21577
3.21405
3.21352
3.21469
3.21386
3.21725
3.21844
3.21064
3.20649
3.218
3.21506
3.20714
3.20575
3.20997
3.20981
3.21113
3.23994
3.24509
3.25117
3.25277
3.23851
3.24425
3.25163
3.24759
3.23099
3.24703
3.24231
3.28394
3.27854
3.28237
3.27859
3.27291
3.28547
3.28116
3.27695
3.27754
3.28053
3.27285
3.2001
3.20518
3.19905
3.19596
3.20816
3.2059
3.21196
3.20243
3.19862
3.19935
3.20741
3.20942
3.19983
3.19742
3.23469
3.23114
3.23138
3.23169
3.23375
3.23314
3.23889
3.23783
3.22944
3.22665
3.3538
3.35284
3.35017
3.35416
3.3398
3.35755
3.35548
3.34647
3.34388
3.33619
3.33634
3.3423
3.34843
3.19971
3.20754
3.20494
3.20273
3.20295
3.20211
3.20488
3.20549
3.20209
3.19882
3.20477
3.20551
3.20274
3.20263
3.29141
3.29079
3.29074
3.27462
3.26679
3.27371
3.27309
3.27312
3.30866
3.31672
3.35008
3.34035
3.34569
3.35345
3.33573
3.34677
3.35358
3.34452
3.32931
3.3363
3.34521
3.33859
3.32651
3.33421
3.34507
3.34089
3.34143
3.33065
3.33484
3.3286
3.34568
3.34612
3.34665
3.34639
3.3505
3.35496
3.35633
3.36198
3.27133
3.276
3.27502
3.27177
3.27035
3.26834
3.27407
3.26559
3.26504
3.26537
3.26241
3.26321
3.26255
3.26317
3.33174
3.34365
3.33326
3.34953
3.34916
3.34215
3.33378
3.27729
3.27563
3.2761
3.27745
3.27786
3.27612
3.2707
3.27593
3.27171
3.27464
3.33087
3.3311
3.33135
3.32531
3.31262
3.32296
3.33273
3.32443
3.33536
3.33205
3.3162
3.32928
3.32684
3.35406
3.35561
3.36792
3.36624
3.36244
3.36497
3.33075
3.32801
3.34586
3.3343
3.33349
3.33778
3.33765
3.35444
3.35325
3.34336
3.35045
3.35745
3.28364
3.28892
3.28697
3.34471
3.34653
3.33423
3.33872
3.34519
3.34895
3.34218
3.34912
3.34704
3.26529
3.26853
3.26282
3.26932
3.27627
3.2767
3.25735
3.25771
3.25861
3.2553
3.25696
3.25368
3.25076
3.25692
3.25611
3.25003
3.25079
3.33006
3.32531
3.33687
3.34031
3.34154
3.33536
3.33857
3.32977
3.25186
3.25455
3.25578
3.26092
3.25266
3.25843
3.26235
3.2615
3.25348
3.25329
3.25254
3.2506
3.34187
3.34513
3.33515
3.33938
3.34206
3.33129
3.33248
3.34742
3.33969
3.32998
3.34235
3.33759
3.34029
3.34108
3.33245
3.32719
3.3249
3.33356
3.33187
3.2461
3.24616
3.24198
3.2548
3.24911
3.25032
3.25252
3.25603
3.2564
3.31205
3.31954
3.31108
3.31555
3.2487
3.24442
3.24678
3.2478
3.2525
3.25352
3.25259
3.25201
3.23534
3.23275
3.23723
3.2297
3.23714
3.23853
3.23379
3.23375
3.23419
3.22554
3.22619
3.23547
3.22614
3.23226
3.22937
3.23165
3.22884
3.22834
3.23355
3.23409
3.23117
3.23367
3.22799
3.23466
3.26031
3.27178
3.26457
3.27825
3.27896
3.27051
3.27313
3.27191
3.26086
3.26656
3.26535
3.29909
3.25594
3.25264
3.25431
3.26087
3.25737
3.26505
3.25907
3.26763
3.26619
3.24363
3.24398
3.24992
3.24585
3.24797
3.22784
3.22018
3.21889
3.21922
3.22696
3.22801
3.21997
3.21991
3.22422
3.223
3.22878
3.22535
3.30919
3.30058
3.3041
3.30934
3.31082
3.31604
3.30857
3.31203
3.31503
3.30553
3.29853
3.30434
3.3027
3.30415
3.30716
3.31205
3.30375
3.30177
3.30697
3.30355
3.24439
3.25098
3.24936
3.25765
3.25777
3.25086
3.25522
3.26016
3.2579
3.26376
3.27674
3.27427
3.27015
3.27337
3.27471
3.26933
3.27867
3.27975
3.26747
3.23314
3.23199
3.22911
3.22206
3.22254
3.22074
3.21875
3.22542
3.22662
3.2182
3.22341
3.22591
3.22971
3.22539
3.21901
3.21913
3.2228
3.22294
3.226
3.22655
3.2275
3.22835
3.2212
3.22
3.22071
3.21943
3.27486
3.27773
3.27812
3.23401
3.23111
3.22905
3.23435