/*--------------------------------*- C++ -*----------------------------------*\
| =========                 |                                                 |
| \\      /  F ield         | OpenFOAM: The Open Source CFD Toolbox           |
|  \\    /   O peration     | Version:  v1612+                                |
|   \\  /    A nd           | Web:      www.OpenFOAM.com                      |
|    \\/     M anipulation  |                                                 |
\*---------------------------------------------------------------------------*/
FoamFile
{
    version     2.0;
    format      ascii;
    class       surfaceScalarField;
    location    "206";
    object      phi;
}
// * * * * * * * * * * * * * * * * * * * * * * * * * * * * * * * * * * * * * //

dimensions      [0 3 -1 0 0 0 0];

internalField   nonuniform List<scalar> 
41402
(
6.06723e-09
4.50882e-09
-6.38605e-09
-4.19002e-09
1.11202e-08
9.78024e-10
-6.03096e-09
8.63003e-10
-1.3939e-08
7.31566e-09
5.76027e-09
-9.23221e-09
5.24122e-09
4.85399e-09
-3.2008e-09
5.08873e-09
1.33272e-09
-2.4698e-11
-6.32037e-09
-6.64062e-09
4.46049e-09
-5.69439e-09
8.5495e-09
4.19212e-10
9.28249e-09
7.25473e-09
-8.50464e-09
-5.07049e-09
6.3711e-11
1.49663e-09
8.32069e-10
5.59003e-09
-1.5281e-09
-4.89395e-09
4.2957e-09
-3.73554e-09
2.71927e-10
-4.41087e-09
-5.1081e-09
9.93818e-09
1.24288e-09
5.20324e-10
1.00417e-08
-3.57416e-09
-1.07609e-08
4.29334e-09
5.84819e-09
5.31161e-10
3.66235e-09
-1.39653e-08
8.33986e-09
1.34225e-08
-7.7971e-09
1.49409e-08
-1.95344e-08
-9.37185e-09
-8.19649e-10
-1.00584e-08
7.30386e-09
1.29906e-08
-1.29044e-09
3.24076e-09
2.0223e-09
1.93082e-08
-8.03378e-09
-8.7186e-09
8.69058e-09
8.06182e-09
-1.08724e-08
1.54816e-09
-3.34248e-09
-1.38389e-08
-2.35303e-09
2.09126e-09
7.06028e-09
-9.97119e-09
5.40942e-09
-1.1235e-08
-5.04681e-09
-3.77108e-09
4.61886e-10
-4.19396e-09
1.49068e-08
-1.24862e-08
3.69498e-09
-4.05766e-10
3.834e-09
-4.33297e-09
-1.15702e-08
6.61356e-09
1.47513e-09
3.4815e-09
1.70579e-09
-2.99354e-09
-1.02824e-08
1.38859e-08
-2.18882e-09
-9.99126e-09
1.05569e-09
5.1995e-09
-9.24873e-09
-2.41116e-09
1.18336e-09
-5.10984e-09
6.33764e-09
4.20693e-10
3.36508e-09
-6.19694e-09
-1.27271e-08
1.15623e-08
7.77838e-09
1.14773e-08
-1.03186e-08
6.64372e-09
-7.77685e-09
9.70104e-09
5.55807e-09
-1.00596e-08
4.04151e-09
7.13466e-09
-1.43879e-09
-3.99638e-09
6.61852e-09
-4.16856e-09
3.15045e-09
-2.04923e-09
-3.23839e-09
1.77777e-10
5.7406e-09
8.45536e-10
4.89119e-09
1.31343e-08
7.73468e-09
3.0557e-09
-4.14667e-09
1.0381e-09
4.66844e-09
-1.4847e-10
-1.98382e-09
-4.61104e-09
2.59847e-09
-4.05025e-09
1.71954e-11
3.96918e-09
4.35553e-11
-2.6147e-09
-3.613e-09
3.20465e-09
-5.88539e-09
-7.96763e-09
-8.6921e-09
1.92002e-10
-2.26591e-09
3.21952e-09
-4.56659e-09
5.05771e-10
-2.64171e-09
-1.29986e-10
-6.64231e-09
-2.1127e-09
6.29113e-11
-1.59193e-09
7.80308e-09
-8.66078e-09
2.4496e-09
-2.1384e-09
7.56397e-11
2.84169e-09
-4.72991e-09
2.96286e-10
9.89356e-10
-2.86097e-10
7.33018e-10
7.2468e-10
3.75349e-09
-5.21119e-09
7.81197e-10
-4.98527e-09
4.93708e-09
7.37029e-10
3.84819e-09
-3.86054e-09
-3.84376e-09
5.36198e-09
-5.38267e-09
7.11201e-09
1.59436e-09
-3.32371e-09
-1.04584e-09
-5.83352e-10
-9.13791e-09
3.47048e-09
1.31986e-08
-7.53122e-09
-7.87978e-09
-4.43413e-10
-8.14728e-10
-1.68667e-08
-7.80362e-09
1.67906e-08
-7.12928e-09
-9.42534e-10
7.62839e-09
2.18355e-09
2.07468e-09
-4.10054e-10
-1.66218e-09
4.22022e-09
-3.74509e-10
8.98169e-09
-4.34361e-09
-1.16761e-09
4.0118e-09
1.15537e-10
2.98467e-09
3.49441e-09
1.7464e-10
-2.59846e-10
2.73366e-09
2.93075e-09
-5.4046e-09
2.40149e-09
2.25397e-09
-4.9153e-09
1.78389e-09
-4.01854e-09
4.38339e-09
-2.14874e-09
-2.41718e-09
1.15175e-10
4.0859e-09
2.01034e-09
-3.62738e-09
-8.56788e-13
3.97764e-09
-1.24312e-09
3.22628e-09
-9.73159e-10
1.59133e-09
-7.82242e-10
-1.46518e-10
4.44767e-09
-1.37039e-09
2.80437e-09
-9.40539e-10
2.11019e-09
5.07758e-09
-5.30654e-09
2.95099e-10
7.46867e-09
-2.45724e-09
3.00807e-09
-4.33697e-09
-4.42626e-09
-9.841e-10
4.93059e-09
4.79752e-10
1.73151e-10
6.15879e-09
-1.41602e-09
-2.50418e-10
6.73499e-09
4.87915e-10
5.42046e-09
7.63957e-09
5.10898e-09
8.16354e-09
-2.09121e-08
9.88395e-09
8.81479e-09
-1.10592e-08
-1.2228e-08
6.17193e-09
8.1461e-09
-2.08994e-09
1.2636e-08
-1.9755e-08
2.30161e-09
1.12255e-08
-5.36363e-09
-2.1708e-09
1.43563e-08
1.30188e-08
1.96789e-09
-1.34136e-08
1.19324e-08
9.62729e-09
2.52504e-09
-3.30265e-09
9.73196e-10
1.27773e-08
4.90559e-10
1.14236e-08
1.82001e-11
1.33304e-08
1.78957e-10
-1.64489e-09
7.37065e-09
-7.09614e-09
2.61166e-09
-5.19705e-09
8.56924e-09
-2.61462e-09
3.22069e-09
-4.25268e-09
9.60121e-09
-3.32175e-10
-3.43426e-09
5.87663e-09
-5.57745e-09
8.53811e-09
2.60031e-10
3.34713e-09
-6.31291e-09
-8.80649e-09
4.33317e-09
-4.10959e-10
4.8843e-09
-5.79155e-09
8.60023e-10
-5.10076e-09
-3.5327e-09
7.77347e-09
7.06918e-09
-2.76541e-09
-3.44374e-09
4.68395e-09
2.14898e-09
1.70518e-09
3.91636e-09
2.9577e-09
5.84051e-09
-3.56137e-09
-5.23687e-09
4.59274e-09
-9.28326e-10
-7.06723e-10
2.43689e-11
5.94765e-09
-1.31511e-10
4.50023e-09
1.16869e-10
-7.67079e-09
2.45023e-10
3.29985e-09
4.1259e-09
-3.25122e-10
-1.39802e-09
3.35322e-09
-1.5703e-09
3.20051e-09
-4.98345e-09
3.20442e-09
-7.79504e-10
3.36089e-09
-8.49253e-09
1.92932e-09
2.81593e-09
-1.23395e-10
5.63974e-09
-2.21649e-09
5.44162e-09
1.41324e-09
-3.65433e-09
1.75394e-09
6.09241e-09
-2.40481e-09
5.34163e-09
-3.833e-10
8.2291e-09
3.58319e-09
-8.45137e-09
-2.39457e-09
1.02986e-08
-1.77843e-09
3.58435e-09
8.70841e-09
-3.71197e-09
-2.51881e-09
6.08203e-09
-5.83617e-10
4.15722e-09
5.91028e-09
2.21454e-09
-1.97148e-09
7.79469e-09
-1.16518e-08
5.82855e-09
-3.43874e-10
-3.46549e-09
-9.67163e-09
1.3481e-08
-1.51728e-08
4.45687e-09
8.74445e-09
-4.361e-09
-1.11557e-08
-1.26731e-08
7.84269e-09
9.28724e-09
-1.53587e-08
1.43761e-08
-1.16905e-08
1.00359e-08
-2.63352e-09
-1.08679e-08
-1.80639e-09
-1.79133e-08
1.49922e-08
-4.92551e-10
-1.23593e-10
4.42469e-09
1.84102e-08
-1.06286e-08
1.02153e-08
-8.90226e-09
9.31557e-09
-1.11339e-08
1.27589e-11
1.05817e-09
-1.69411e-10
9.1472e-09
1.05677e-08
-1.50076e-08
1.76812e-08
-3.04122e-09
7.98734e-09
-8.55358e-09
1.43241e-10
5.79701e-10
-1.3066e-09
7.74274e-09
-7.01582e-09
-3.43472e-09
-3.59031e-10
4.37352e-09
-3.22716e-09
4.72041e-10
-6.79587e-10
1.79893e-10
-2.22364e-09
-3.79506e-09
5.83881e-09
4.13487e-09
-1.60193e-09
-2.35306e-09
-1.62222e-09
-6.69664e-10
1.93295e-09
-7.14493e-10
1.5001e-10
2.34065e-09
5.97174e-09
-8.46244e-09
2.16118e-09
4.94475e-09
-6.95593e-09
9.10869e-09
-8.99167e-09
8.94227e-09
2.37522e-09
-2.20879e-09
8.22267e-09
-5.86973e-10
2.86123e-09
-2.302e-09
-8.58808e-10
-1.32179e-09
8.15234e-09
-1.82077e-09
5.9067e-09
2.99227e-09
-2.49899e-11
-1.06033e-10
1.18697e-09
5.49074e-09
-5.99339e-09
-6.84299e-10
3.50958e-09
1.01738e-08
-8.56582e-09
7.62341e-09
-9.23138e-09
-7.72677e-09
1.53135e-08
2.58711e-09
5.32476e-09
-1.47745e-09
-1.24131e-08
3.18607e-09
-5.58812e-09
-5.2424e-10
1.52377e-08
-7.09009e-09
1.5584e-08
-8.68991e-09
-7.41835e-09
-9.25031e-09
1.75528e-08
7.28147e-09
-5.99737e-10
1.45691e-08
1.26839e-09
1.40235e-08
6.90275e-10
6.34907e-09
-1.29424e-08
5.11584e-09
1.72715e-08
-1.96124e-08
1.18939e-08
-3.87272e-09
1.84965e-08
-1.61936e-08
-1.74124e-08
1.51095e-08
2.02039e-08
8.49895e-09
-1.02064e-08
-3.09534e-09
2.49334e-09
1.46255e-08
-1.32829e-10
1.16066e-08
7.54075e-09
1.40337e-08
-1.37051e-09
3.67947e-09
1.37406e-08
9.55932e-09
7.27455e-09
-4.93991e-09
8.61013e-10
1.23778e-08
1.08951e-08
-4.17737e-09
-2.81661e-09
-5.13676e-09
1.21308e-08
-1.94259e-09
1.98528e-09
-4.22e-09
1.02006e-08
-1.29552e-08
4.75139e-09
-1.99681e-09
1.74059e-08
-1.00219e-08
-4.47291e-09
-5.96753e-09
5.30368e-09
-5.68253e-09
-7.32969e-10
-1.03727e-08
4.47188e-09
-7.05443e-09
-3.64364e-09
-9.25289e-09
-1.03468e-08
2.32433e-08
-5.04512e-09
2.20728e-10
7.17405e-09
-2.34967e-09
3.29375e-09
-2.41388e-11
-8.31475e-09
4.49596e-09
-9.8147e-10
-1.03076e-09
-4.55469e-09
-6.17962e-10
6.20341e-09
-2.21732e-09
-1.47172e-08
5.71414e-09
3.03551e-09
-1.11868e-08
-7.57131e-09
-1.20543e-08
-1.21502e-08
-3.38369e-09
9.16092e-09
-4.71292e-09
-1.06427e-09
-3.32328e-09
3.05107e-09
-3.11143e-09
-4.38471e-09
-2.55686e-10
1.31715e-09
6.29965e-10
-4.74455e-09
-1.18595e-09
5.30057e-09
-3.42047e-09
-1.72691e-10
4.22315e-09
-2.79709e-09
2.44878e-09
-4.03639e-09
8.86866e-10
-8.42534e-10
-2.8414e-09
9.1197e-10
-8.44245e-10
7.00147e-09
-1.96937e-09
-5.64226e-10
-3.82685e-09
-5.71556e-12
-3.01873e-09
-2.77745e-09
3.09851e-09
7.24476e-09
-7.61091e-09
-2.73236e-09
6.61437e-09
-4.13624e-09
6.20391e-10
-3.2049e-09
2.00398e-09
7.8153e-09
-9.43463e-10
4.98331e-09
1.96245e-09
-6.21516e-09
1.16478e-10
7.16875e-09
-1.01047e-08
4.51998e-10
2.48393e-09
-6.40586e-09
5.80963e-09
7.76499e-09
4.64058e-09
-8.81991e-09
-5.92536e-09
1.97181e-10
6.27633e-09
1.53747e-09
3.72781e-10
-8.18655e-09
9.32298e-10
-2.26687e-09
1.36132e-09
-6.03901e-09
-2.09938e-09
9.91299e-09
6.06189e-09
2.495e-09
-8.1841e-09
9.16055e-09
-2.16635e-09
8.17825e-09
-1.10991e-08
3.37287e-09
-5.56503e-09
1.16439e-08
-1.06594e-09
-6.39265e-09
3.17027e-09
-1.01586e-08
7.76385e-09
-1.24365e-08
-8.82124e-09
-1.10074e-08
-2.17877e-09
4.08979e-09
3.12567e-09
3.56615e-09
5.12724e-11
-2.69891e-09
1.13284e-08
6.63056e-09
-8.72517e-09
-1.40435e-10
3.82302e-10
8.48325e-09
8.58402e-10
-5.19601e-09
-4.38759e-09
5.79396e-09
-4.11699e-09
-7.25917e-10
-9.51066e-10
-2.04661e-10
5.85816e-09
-1.15383e-08
1.16557e-08
2.64883e-10
-6.1855e-09
-4.49438e-09
-3.98929e-09
-5.32372e-09
-4.49367e-09
-2.58529e-10
4.54753e-09
-3.95226e-09
-1.26737e-09
-4.95549e-09
4.85609e-09
-1.59179e-10
-8.21796e-09
-7.47106e-09
9.50351e-09
1.9245e-09
-1.09598e-09
3.34841e-09
-4.17698e-09
-7.30914e-10
-1.33395e-09
8.19374e-10
2.99796e-09
-4.91349e-09
3.28326e-09
-3.19498e-09
2.86151e-09
-9.20964e-09
-4.92978e-10
6.84105e-09
-3.28706e-09
1.19307e-09
-5.34565e-09
-8.91938e-10
-2.97211e-09
-1.02803e-08
-9.2075e-10
3.16872e-10
4.07385e-09
-1.96787e-09
-1.33992e-10
9.76908e-09
-1.56522e-09
-6.28188e-09
-1.92203e-09
-2.10816e-09
1.4718e-09
1.04054e-08
1.06482e-08
-7.3886e-09
-4.82486e-09
7.83296e-10
7.75674e-09
-1.07575e-10
-5.99139e-09
7.57075e-09
1.96515e-09
-8.62633e-09
7.44448e-09
7.76172e-09
6.13867e-09
-1.38048e-09
-1.252e-08
-1.42506e-09
1.79817e-09
5.57171e-09
-8.58088e-10
-5.08594e-09
7.15274e-09
-7.80907e-09
5.74227e-09
1.09563e-09
-6.24885e-09
6.72837e-11
9.01031e-09
4.96857e-09
-6.01961e-09
-5.23086e-09
7.27829e-11
-5.66204e-09
6.78316e-10
-2.82533e-09
-4.61893e-09
-7.29196e-09
-2.37629e-09
-1.2019e-08
-1.2045e-08
4.60696e-10
1.17555e-08
-1.71202e-10
-1.06088e-08
-3.49822e-09
2.06207e-09
-3.54066e-09
-8.10664e-09
3.50828e-09
8.139e-09
4.5386e-09
-8.30475e-09
2.2548e-10
1.23588e-08
3.98134e-09
-7.73567e-10
-1.55665e-08
-3.73251e-10
2.1622e-10
1.25158e-08
-9.65665e-09
9.49827e-09
-2.14858e-10
8.62262e-09
-9.28597e-09
-8.99331e-09
-5.38756e-09
9.24839e-09
5.63746e-09
3.02017e-09
2.14894e-10
-7.23834e-09
1.88595e-10
7.14706e-09
-9.73311e-11
3.20428e-10
2.79596e-09
-1.66273e-08
1.78127e-08
-6.16967e-10
8.57199e-11
1.11538e-08
-1.06226e-08
1.22442e-08
-1.24005e-08
-3.27442e-09
6.45341e-10
-5.47757e-09
-2.83116e-09
-8.74804e-09
-7.16754e-09
-1.28907e-08
9.52271e-09
1.14613e-10
3.34332e-09
-6.57706e-09
3.11913e-09
-6.70174e-09
3.70186e-09
3.1145e-09
-2.02615e-09
-6.81224e-09
2.13668e-09
-3.88104e-09
2.31403e-09
-4.5911e-10
-2.03824e-09
8.47008e-09
-3.08851e-09
5.62446e-09
-3.96084e-09
-3.29319e-09
6.23663e-09
-9.52049e-09
1.03783e-09
-3.91908e-10
-4.52696e-09
-6.28433e-09
5.09943e-10
-2.52473e-09
4.39965e-09
6.59516e-09
2.65237e-09
4.47378e-10
7.51258e-09
-1.00084e-09
-7.67251e-09
1.16079e-09
6.21271e-10
3.59812e-09
3.7148e-10
3.21105e-09
-3.97442e-09
4.83308e-09
-5.46244e-09
-1.50772e-09
-1.39084e-10
-1.77009e-09
2.27004e-09
4.33316e-09
-6.67557e-11
1.17824e-08
3.30696e-09
-9.18163e-09
-5.90773e-09
-6.93931e-09
4.91885e-09
1.38029e-08
-4.01417e-09
3.81821e-10
-9.84473e-10
1.13538e-08
-5.45049e-09
-5.42068e-09
8.54059e-09
-4.10441e-09
-5.75873e-09
-8.61641e-09
8.95446e-09
-4.67693e-09
-1.34931e-09
2.6751e-10
-9.50735e-09
1.97236e-10
6.93692e-10
-7.15311e-09
-7.03119e-09
1.13515e-08
9.44716e-09
-1.4659e-08
-6.13964e-09
8.67343e-10
1.06814e-08
2.06901e-09
-4.3839e-09
1.1762e-08
-5.46848e-09
1.05007e-10
-6.12817e-09
-9.84438e-10
-8.0349e-09
-3.56176e-09
-2.20332e-09
-5.79952e-09
1.72073e-09
6.28212e-09
-3.84449e-10
4.11543e-09
-5.93429e-09
-1.35615e-09
-4.66338e-09
2.20014e-10
-5.37717e-09
7.66195e-09
-5.64038e-10
-5.71288e-09
1.01122e-09
-9.19764e-10
5.62143e-09
4.18051e-09
-5.68049e-09
-4.2129e-09
-3.05212e-09
6.65841e-09
5.74225e-10
-7.64642e-09
5.2726e-09
1.98939e-09
-1.24141e-08
-9.30773e-11
4.39145e-09
8.11575e-09
-6.98979e-10
-2.00689e-09
-9.70825e-09
-5.98723e-09
-6.47974e-10
-1.58719e-09
1.87231e-09
-3.33725e-09
8.86811e-10
-8.15449e-09
-9.20978e-09
5.68671e-09
3.42999e-09
-2.43442e-09
-7.47434e-09
9.95519e-09
-2.48922e-09
-9.47286e-09
-1.42687e-09
8.71439e-09
2.66771e-09
-7.58965e-09
5.27606e-09
-5.83816e-09
4.13574e-09
-3.82619e-09
2.81343e-09
2.23127e-09
-1.59291e-09
-3.45179e-09
4.52987e-09
1.24752e-09
-2.96397e-09
-2.21868e-09
1.53735e-09
8.22928e-10
-8.10341e-10
2.63879e-09
1.51149e-09
-5.7432e-09
2.58875e-09
-7.93926e-09
7.9893e-09
8.50403e-09
-4.66777e-09
2.35234e-09
3.93905e-09
-4.7799e-09
-6.85273e-10
9.64987e-09
-6.1311e-09
1.15314e-09
-1.05785e-09
-2.05836e-08
1.67533e-08
2.13756e-09
1.69269e-09
-2.41323e-08
-7.85124e-09
1.14e-08
-1.11175e-08
-1.28707e-08
2.42395e-08
-2.51239e-10
-7.02292e-09
1.03614e-08
-1.4456e-08
7.01615e-10
-2.34453e-08
1.42769e-08
8.46673e-09
-1.82809e-08
1.19596e-08
-6.27632e-09
5.87214e-09
-1.07886e-08
1.11928e-08
-1.16921e-08
1.99557e-08
-2.11343e-08
-1.01449e-08
1.35281e-08
1.33701e-08
1.62991e-08
3.53116e-09
-1.76926e-08
1.42966e-08
-2.06336e-08
6.06596e-11
1.59489e-08
-1.64398e-08
1.47876e-08
1.69016e-09
-1.40989e-08
-5.62009e-09
-1.6135e-08
9.43002e-10
5.21111e-09
-2.26108e-08
-7.14153e-09
5.19977e-09
-2.09471e-09
-2.26469e-08
5.83619e-09
1.47954e-08
-1.19797e-08
-7.19306e-09
4.37737e-09
1.73763e-08
2.33485e-08
-1.47283e-08
-2.59965e-08
-9.2863e-09
6.55332e-09
-1.47304e-08
1.74634e-08
-5.27875e-09
2.22877e-08
3.67371e-10
-2.47591e-08
-2.52016e-09
-3.37008e-08
6.84705e-09
-3.67585e-09
4.45157e-09
1.25878e-08
7.08478e-09
1.98978e-08
-1.26399e-08
1.02569e-08
-8.41209e-09
1.07951e-08
-2.66285e-09
-8.01177e-09
-1.96532e-09
-1.19072e-08
-2.22421e-09
1.14686e-08
-6.32846e-09
2.27502e-08
-6.16483e-09
-1.28397e-08
5.28085e-09
-8.53334e-10
-7.59274e-09
-1.35223e-08
-9.67919e-09
1.68731e-08
-8.08719e-09
-1.54295e-10
7.51888e-09
-1.09848e-08
-4.62123e-09
-6.22063e-09
4.06034e-09
1.13897e-08
-9.16342e-09
-1.41335e-08
-6.56281e-09
4.96453e-09
1.2988e-08
1.4708e-08
-6.50561e-09
1.92458e-09
-5.02843e-09
1.18709e-09
1.62106e-08
-1.23692e-08
1.01112e-09
1.05986e-08
-1.66381e-08
3.59616e-09
-1.17909e-08
9.20578e-09
1.33081e-08
-8.52483e-09
6.79096e-09
7.35872e-09
-3.551e-09
7.76611e-09
-9.42821e-09
1.78728e-08
1.26896e-08
1.86751e-09
4.89154e-09
1.6e-08
-8.20196e-09
-1.12164e-08
-7.70338e-09
-9.41771e-10
1.98613e-08
-1.40706e-08
-4.63131e-09
7.48542e-09
1.18402e-08
-2.9298e-09
-1.55173e-09
9.49541e-09
-9.31349e-09
-1.42526e-08
-6.4049e-09
8.19688e-09
6.67608e-09
2.27016e-10
-6.44367e-09
1.03934e-08
7.65178e-10
4.49085e-09
-2.50201e-08
1.2678e-08
-8.26076e-09
1.27732e-08
1.05573e-08
-1.50697e-08
1.34153e-09
-1.25983e-09
-8.34244e-09
-2.5593e-09
-2.13059e-09
-8.30738e-09
1.29973e-08
1.02246e-08
1.11322e-08
-1.6866e-08
1.33693e-08
-1.80311e-09
1.77277e-08
1.00604e-08
-1.66559e-08
3.56791e-09
1.50754e-08
-9.1569e-10
6.34318e-09
9.53118e-09
-3.10112e-09
5.20223e-09
-3.51421e-09
4.65524e-09
-8.90953e-09
1.90486e-08
-4.93678e-09
1.54177e-08
1.51946e-09
6.91004e-09
5.91104e-10
1.18715e-08
1.0114e-08
-1.24011e-08
1.53631e-08
-4.97611e-10
-2.29273e-09
3.67218e-09
-4.88801e-09
3.50856e-09
-7.61192e-09
5.51119e-09
8.02067e-09
-4.29778e-09
-5.06913e-11
-4.61787e-09
4.32725e-10
1.07725e-08
-6.58738e-09
-2.19882e-09
5.75109e-09
-8.17017e-09
-3.04704e-09
7.48454e-09
-4.00477e-09
3.30899e-09
-8.55487e-09
6.04536e-09
-7.62439e-09
-6.32068e-09
7.5432e-10
-5.24146e-09
2.42935e-09
-1.3377e-09
1.0643e-08
1.4672e-09
4.84913e-09
-4.35742e-10
5.51427e-09
-2.32751e-09
9.46748e-09
5.53583e-09
-4.36032e-09
8.11736e-09
6.8644e-09
7.32729e-10
7.11676e-11
7.10115e-09
-5.46044e-09
3.89513e-09
1.21409e-10
1.5255e-10
-4.79752e-09
-7.86763e-09
1.25126e-08
-3.1403e-09
-5.69881e-09
-4.49541e-09
-1.83508e-09
6.82507e-09
-4.94566e-10
-5.12414e-09
6.52787e-10
-2.40499e-11
1.2225e-09
9.4954e-09
-5.15684e-09
-5.56105e-09
-6.50027e-09
1.69784e-09
-3.21688e-10
3.67074e-09
-3.68823e-09
-3.77755e-09
-1.60703e-09
4.88012e-09
7.69885e-09
-3.08356e-09
2.45473e-09
3.89293e-09
-1.46753e-09
7.53535e-09
1.86134e-09
8.15501e-09
7.29557e-09
1.12373e-09
-4.23658e-09
-4.18272e-09
-3.35871e-09
3.54033e-09
7.11396e-09
-1.31568e-08
9.41759e-10
8.85635e-09
-5.84745e-09
-6.18563e-09
-7.23408e-09
1.05621e-08
-6.52055e-09
3.19256e-09
-7.80656e-09
-5.27499e-09
-1.04642e-08
-7.34167e-09
9.26364e-09
8.5422e-09
-7.11583e-09
1.91503e-09
-5.26339e-09
-6.43454e-09
8.57342e-10
9.11755e-09
3.30668e-09
8.19716e-09
-5.75666e-09
-5.98025e-09
5.30238e-09
-6.4399e-09
-3.55333e-09
5.58215e-09
-6.54545e-11
-2.27496e-09
-3.24175e-09
-2.04989e-09
1.65178e-09
-1.16635e-08
2.2719e-09
-5.89206e-09
-1.28873e-08
7.51818e-09
-3.17281e-09
-1.21519e-08
3.46052e-09
-2.46289e-09
-8.87779e-09
5.89712e-09
1.22443e-08
-3.50223e-09
1.00612e-08
-2.79682e-09
-3.70851e-09
-1.69634e-09
-6.47071e-09
-7.66598e-09
3.43755e-10
1.01745e-08
-6.35561e-09
-4.16266e-09
7.3624e-09
-2.75598e-09
-4.26267e-09
6.99391e-09
2.66264e-09
-2.29415e-09
1.69863e-09
-8.57722e-10
6.153e-09
-6.2876e-09
1.13757e-09
6.84866e-09
-3.81174e-09
1.86779e-10
5.32597e-09
-5.13323e-09
-2.94873e-09
1.28605e-09
8.03072e-09
1.55438e-09
-4.01373e-11
-2.27949e-09
1.03596e-08
-6.9425e-09
6.99236e-09
-8.13115e-09
-6.61073e-09
7.74952e-09
8.26083e-09
2.85917e-10
-1.15603e-08
1.05668e-08
-6.83365e-09
-9.04181e-09
4.31519e-09
-6.68867e-09
-1.45418e-09
9.27658e-09
-1.13376e-09
-2.42033e-09
-3.87915e-09
9.35054e-09
-4.02004e-11
2.07456e-10
3.84125e-09
-4.00849e-09
2.85373e-10
3.94208e-09
-4.26764e-09
-8.04241e-09
-6.52958e-09
7.88328e-09
-8.14079e-09
-6.40376e-10
7.3874e-10
-3.38401e-10
5.48825e-09
-4.94241e-09
5.71663e-09
-5.76966e-09
-1.43175e-09
-9.20454e-09
9.18206e-09
-1.03208e-08
7.96308e-09
9.25967e-10
-3.72349e-10
-5.80462e-10
4.79407e-09
5.0717e-09
-1.50196e-09
-5.05714e-09
-2.30737e-10
-1.24169e-09
-8.12624e-09
-1.11206e-09
7.76876e-09
-9.40097e-10
7.21036e-09
-2.83418e-09
-5.53079e-09
-1.66652e-09
1.67267e-08
-6.93884e-09
-5.15724e-10
-9.27218e-09
-8.29783e-09
1.06947e-08
1.43297e-08
-1.80351e-08
3.24847e-09
6.48875e-09
-1.72782e-08
-7.69584e-09
8.06994e-09
-1.50883e-08
1.22286e-08
-5.21025e-09
1.74269e-10
-8.16814e-09
1.60638e-08
-5.70892e-09
-5.57206e-09
1.14552e-08
5.03275e-09
-4.70154e-11
-1.38129e-08
1.06775e-08
8.03357e-09
5.3126e-09
-1.22867e-08
-1.0595e-09
1.01364e-08
8.59429e-10
-2.96228e-09
1.23532e-08
-7.55634e-09
9.13893e-09
9.22667e-09
-1.51171e-08
8.19277e-09
-1.38587e-08
1.58024e-08
-3.56621e-09
-3.32931e-09
7.84997e-09
-4.28309e-09
-5.02596e-09
5.81551e-09
-6.67972e-09
5.72729e-10
2.91524e-10
1.14841e-09
-3.20251e-10
4.98739e-09
3.80859e-10
-7.28052e-09
2.19958e-10
-6.18786e-09
9.375e-10
6.39882e-09
-6.36874e-09
7.53609e-10
-5.06752e-09
5.34079e-10
4.21318e-09
-5.24278e-09
5.5611e-10
1.0312e-09
-2.90909e-11
-8.28262e-09
8.18007e-09
9.14042e-10
-1.09655e-09
-7.99757e-09
-1.17459e-08
9.64024e-09
1.02858e-08
-5.51092e-10
-1.02808e-08
5.54972e-09
1.06675e-08
-6.57698e-09
6.09416e-10
5.8778e-09
-6.4341e-09
6.29814e-09
1.56346e-09
-1.03514e-08
2.48988e-09
-7.11666e-09
7.59272e-09
5.82207e-09
8.04066e-09
4.19031e-09
-8.20198e-10
9.47031e-09
5.03905e-09
-1.0807e-08
-4.58343e-09
-2.08919e-09
1.15977e-11
7.09277e-09
8.2933e-10
-7.95119e-09
-2.39227e-10
7.30661e-09
-1.05288e-08
1.9181e-09
7.86637e-09
-6.26609e-09
-3.51837e-09
4.83555e-09
-2.29514e-09
-6.22304e-10
-9.14323e-09
7.28401e-09
6.69476e-09
-3.5513e-10
-9.21732e-10
1.2301e-08
-1.06337e-08
-2.02247e-09
9.30716e-10
-1.01043e-09
1.23807e-08
1.91834e-09
1.04746e-08
-1.54425e-09
-1.08487e-08
-3.00228e-09
-8.70742e-09
9.64025e-09
2.06948e-09
8.74189e-09
-6.90077e-09
7.72317e-11
5.75352e-09
-1.38894e-11
1.72408e-09
3.71824e-09
5.31357e-09
-1.07559e-08
5.97771e-09
-1.05197e-08
4.16101e-09
-8.81699e-09
-5.13324e-10
8.72805e-09
5.48538e-09
-1.39346e-08
3.43403e-10
1.25808e-08
-4.28823e-09
1.00399e-09
8.97967e-09
3.55379e-09
-5.35361e-10
-5.5215e-09
6.01217e-09
1.01771e-10
8.14648e-09
-1.03816e-08
5.92472e-09
-3.68959e-09
-1.7688e-08
1.72998e-08
8.53464e-09
-1.07794e-08
-3.40556e-09
-3.50306e-09
-7.53906e-09
-1.36219e-08
1.23608e-09
5.01894e-09
1.10448e-08
-1.59406e-08
5.00226e-09
1.21744e-08
-6.02963e-09
-3.98623e-09
-3.81284e-09
-1.73346e-08
-3.35405e-09
-1.43388e-08
1.55282e-08
2.4218e-09
-1.89697e-08
2.20906e-09
-2.09403e-08
6.02746e-09
9.64509e-09
-1.05086e-10
-1.7079e-08
1.16463e-08
-5.40678e-09
-1.41715e-08
1.58364e-08
2.44156e-10
-9.92662e-09
-1.09187e-08
-9.77745e-09
-7.82833e-10
-1.74238e-09
-7.2118e-09
9.15999e-09
-1.64769e-08
-2.5415e-09
1.51531e-08
6.74114e-09
-1.29963e-08
-8.898e-09
-5.68609e-09
4.83386e-10
2.03558e-08
5.69135e-09
-4.63633e-09
-5.47425e-09
-1.47732e-08
2.07308e-08
-8.5287e-09
-5.3096e-09
8.36405e-09
-1.31942e-08
-1.01077e-08
-1.21824e-08
9.02178e-09
-8.14002e-09
-3.78237e-09
1.77973e-09
-7.55484e-09
-7.41908e-09
-6.85948e-09
-4.35704e-09
-1.1333e-08
2.2084e-10
-4.58795e-09
-7.21683e-09
1.74568e-08
-5.65195e-09
-6.38785e-09
1.04284e-08
-8.6285e-09
-1.09635e-08
5.67698e-09
-1.9303e-09
1.32177e-09
7.82805e-09
-1.55376e-08
-6.04414e-09
2.80405e-10
-1.95542e-08
1.2784e-08
7.26171e-10
-5.90903e-09
1.28324e-08
-6.64293e-09
5.13449e-09
-1.02714e-08
2.67406e-09
-5.57464e-09
2.00359e-09
8.70555e-09
4.28351e-11
-5.33623e-09
1.13861e-08
-6.0926e-09
-4.90637e-09
1.00575e-08
-5.10825e-09
3.59257e-09
1.77376e-09
-1.07025e-08
2.98988e-09
-4.30367e-09
-1.46811e-08
7.91427e-10
5.60485e-09
8.28487e-09
1.08163e-08
4.30277e-09
-8.43697e-09
-6.68205e-09
1.01432e-09
-4.87913e-09
1.00841e-08
-3.40456e-09
-2.37667e-09
4.86195e-09
6.01356e-09
-8.66313e-09
7.95043e-09
1.8034e-10
-9.06061e-09
2.17143e-10
-3.35721e-11
-5.71093e-09
1.46244e-08
-6.90982e-09
9.04733e-10
-8.5005e-10
1.13314e-08
5.97995e-09
7.65419e-09
-1.18603e-08
-4.3929e-09
8.14919e-09
-7.66401e-10
-6.8499e-09
-4.31597e-09
8.25576e-09
3.03205e-10
-1.22475e-08
1.21414e-08
-2.97741e-09
2.06344e-09
2.00617e-09
-3.35358e-09
-7.16048e-10
3.41237e-09
-2.92147e-09
1.57263e-09
-1.58911e-09
-2.03831e-09
7.03979e-09
-3.5513e-09
-1.79171e-09
3.75387e-09
-3.16019e-09
1.61504e-09
8.56264e-10
-4.48895e-09
7.11223e-10
-4.22882e-09
3.40873e-09
1.67636e-09
8.18228e-10
-2.58208e-09
-1.39639e-09
-8.81376e-10
-9.2132e-11
-3.165e-09
1.43939e-09
-2.50322e-09
-6.76085e-10
-6.97789e-09
-2.00913e-09
3.37952e-09
-1.35587e-09
-4.57979e-09
1.27474e-09
-3.30668e-09
2.7533e-09
-3.91722e-11
-1.37215e-10
9.2543e-09
6.85353e-09
-1.01037e-09
-1.50974e-08
1.12167e-08
3.83734e-10
-2.34601e-09
1.08278e-08
7.13955e-09
-1.11137e-08
1.54632e-09
5.07409e-09
4.20739e-09
6.08095e-09
5.71115e-09
4.10481e-09
-1.08263e-08
-7.54982e-10
-6.69965e-10
-8.08134e-09
4.43538e-09
-4.87365e-09
1.82713e-09
-1.05177e-08
7.8286e-09
7.76316e-09
2.49334e-09
-5.87145e-09
-5.33562e-09
-3.51212e-09
6.71915e-09
-2.0541e-09
-2.1717e-09
9.67411e-09
-3.28489e-09
-3.89863e-09
9.91109e-09
-9.58365e-09
3.57119e-09
-8.26214e-09
-3.19744e-09
7.56093e-09
7.08089e-09
7.23941e-09
-2.83076e-09
-1.14896e-08
-7.20563e-10
-4.60695e-10
2.72173e-09
3.62721e-09
3.56216e-09
4.75429e-09
-9.58872e-09
7.55615e-09
-5.36749e-09
1.05568e-08
-4.3507e-10
-1.0871e-09
-1.25717e-09
5.72302e-09
5.3817e-09
-1.39355e-08
-7.62115e-10
8.69317e-09
-1.32985e-08
7.69558e-09
-3.05967e-09
-6.13824e-09
4.24511e-09
8.04256e-09
-9.87369e-09
7.21285e-09
8.17364e-09
-8.51638e-10
4.5235e-09
2.88804e-09
-4.11451e-09
1.24979e-08
2.71775e-09
-1.11012e-08
-7.12979e-09
6.2126e-09
-3.19732e-09
2.83305e-10
-1.789e-08
1.04769e-08
-6.0439e-09
1.19413e-08
6.60057e-09
9.84358e-10
-8.15662e-10
1.06173e-08
-1.74168e-08
7.08278e-09
8.64949e-09
4.37576e-09
-2.40795e-09
5.67158e-09
-1.63773e-09
-3.0495e-09
6.77562e-09
9.82048e-09
-1.09245e-08
-3.48697e-09
1.24122e-09
-7.68093e-09
9.92667e-09
8.87702e-09
-3.7145e-09
1.38561e-08
1.79656e-09
-1.71233e-09
-4.01746e-10
1.2591e-08
-1.04769e-08
-1.06571e-09
-1.20006e-08
1.1354e-08
1.19421e-08
-2.36764e-09
-3.69441e-09
-5.88007e-09
1.28411e-08
-1.08902e-08
-1.45681e-09
-9.57094e-09
1.0626e-08
-1.09609e-08
9.83405e-10
-2.02307e-09
1.39738e-08
-6.80214e-09
-9.53925e-09
4.23381e-09
-1.15026e-09
-7.32544e-09
-3.63402e-09
-2.71755e-09
1.3677e-08
-9.95653e-09
-1.52332e-08
1.78643e-08
-7.5939e-09
-7.0614e-09
-1.36115e-08
-9.53694e-09
1.35775e-08
4.25677e-10
-9.80336e-09
-1.22399e-09
-1.63264e-08
-9.20418e-10
-1.22505e-08
-1.68858e-08
8.85963e-09
3.01673e-09
-4.99567e-09
1.42075e-08
-1.74275e-09
1.36601e-08
-8.9006e-09
-1.01998e-08
-9.93919e-10
6.19806e-09
-8.73302e-09
-4.79611e-09
4.0539e-09
-1.71618e-09
-1.61965e-08
7.27232e-10
-6.79276e-09
1.01194e-08
-1.43175e-09
2.87393e-09
-1.02596e-08
8.81746e-09
-1.18809e-08
5.28418e-09
2.041e-09
-4.45127e-09
6.98323e-09
-1.83025e-09
1.31188e-10
1.86748e-09
6.70929e-09
-7.36411e-09
-1.21268e-09
8.53275e-09
3.17946e-10
4.35489e-09
-3.25993e-09
7.43778e-09
9.32143e-09
4.23454e-09
-8.48839e-09
-4.59589e-09
-4.04446e-09
-4.83905e-09
-5.16072e-10
9.39958e-09
-1.18807e-09
-2.8686e-09
1.22134e-11
-7.23737e-09
-6.17677e-09
8.57509e-09
-6.5676e-09
-1.85785e-09
4.02129e-09
-1.26814e-09
-3.16981e-09
4.16661e-10
-5.85023e-09
9.35543e-09
-4.20538e-09
6.86515e-11
-5.18961e-09
5.10507e-10
-1.49768e-09
-4.32019e-09
-7.43702e-09
-6.86729e-09
6.81425e-09
-5.7972e-09
-5.89972e-09
-4.13739e-09
1.03616e-09
-9.56174e-09
-1.14336e-08
6.57004e-09
-1.29582e-08
1.32399e-08
2.38629e-09
-2.66791e-09
7.30122e-09
-6.76396e-09
-1.34955e-08
5.37662e-09
7.93276e-09
-7.20022e-09
-6.10916e-09
6.48495e-09
-9.63508e-10
-1.44812e-10
-3.8968e-09
6.21626e-09
4.16551e-09
3.9903e-09
4.56791e-11
9.79758e-09
-6.27487e-09
-1.14313e-09
-2.37956e-09
1.42095e-10
1.50101e-09
-5.97144e-09
8.55243e-09
1.06589e-08
3.66276e-10
-7.34936e-09
8.66315e-09
1.07253e-09
-1.45898e-08
4.76474e-10
-3.38516e-09
-6.51139e-09
3.6217e-09
-3.38829e-10
8.0099e-09
-1.4548e-09
-1.23646e-08
2.36129e-09
1.01454e-08
-4.84458e-09
1.05749e-08
2.77982e-10
2.58115e-09
9.68537e-09
-1.25445e-08
-1.29297e-09
-1.03339e-08
-2.78653e-09
1.44134e-08
1.9251e-09
8.04919e-09
-9.6963e-09
1.32104e-08
-2.87744e-09
-1.1626e-08
3.63298e-09
-7.8194e-09
1.73969e-08
5.08103e-09
-5.78645e-10
-6.75036e-09
2.248e-09
7.78726e-09
-1.24778e-09
-1.45846e-09
8.35047e-09
-8.28478e-11
-4.80355e-10
-6.66216e-09
4.11647e-10
8.17564e-09
-7.67904e-09
-5.80437e-10
1.18925e-08
-8.06465e-09
1.10039e-08
-4.187e-09
-1.15207e-08
-1.46288e-09
3.15119e-09
1.86194e-09
-1.93283e-10
-6.01625e-09
-5.8935e-09
1.92357e-09
-6.94796e-09
1.09179e-08
-1.65684e-08
-1.30484e-09
5.41349e-09
-7.02389e-09
-1.04441e-08
-7.51119e-09
-1.89353e-09
4.27529e-09
-6.92196e-09
-4.86453e-09
-5.41886e-09
4.1922e-09
-2.90636e-09
8.84638e-09
-1.01322e-08
4.37943e-09
-7.20769e-09
2.37582e-09
4.52451e-10
1.02829e-09
4.83088e-09
-5.84432e-09
-1.48463e-11
1.84768e-10
2.85119e-09
-5.74784e-09
3.57459e-09
-6.77959e-10
-2.22523e-09
5.21621e-09
-1.39786e-10
2.90924e-09
-4.86259e-09
-2.71894e-10
1.50212e-09
-5.0355e-09
3.98821e-09
-4.54822e-10
-2.53147e-09
4.11845e-09
-8.48724e-11
-5.01019e-09
2.55381e-09
-7.50911e-11
-1.92802e-09
-2.06952e-09
4.05679e-09
-5.92987e-11
2.12355e-09
-3.89659e-09
-1.55025e-10
-4.48853e-09
2.69809e-09
-2.79096e-10
4.50221e-09
-2.37544e-09
-3.22976e-12
4.37102e-09
-7.34897e-09
3.04427e-09
-6.63232e-11
2.6405e-09
-7.13098e-09
4.57568e-09
-8.51871e-11
6.68697e-09
3.24554e-10
-7.70134e-10
-5.48223e-09
5.89783e-09
3.54541e-10
-6.37551e-09
5.49086e-09
1.14505e-10
3.67148e-09
-6.65775e-09
3.40333e-09
-4.17078e-10
-2.41527e-09
5.98997e-09
9.67787e-11
-1.62367e-10
4.30031e-09
-3.97854e-09
-1.59392e-10
4.08351e-09
-4.11488e-09
-1.30987e-10
8.60319e-09
-6.353e-09
-2.39259e-09
1.42394e-10
4.65962e-09
1.10272e-09
-5.59496e-09
-1.67382e-10
-2.6648e-09
7.34908e-09
-2.46608e-11
-6.12431e-09
3.95758e-09
-4.98074e-10
-3.16743e-09
5.82063e-09
-2.44322e-09
-2.09976e-10
-3.30208e-09
5.55009e-09
-2.2547e-09
6.67994e-12
-6.17827e-09
-2.9125e-10
1.758e-09
4.0453e-09
-5.5449e-09
-2.58366e-10
-3.06806e-09
4.85165e-09
-2.55818e-11
5.32939e-09
-7.75682e-09
2.47137e-09
-4.39331e-11
-2.21289e-10
-6.58003e-09
6.74562e-09
5.57042e-11
5.10779e-09
3.22963e-13
6.52022e-09
-1.5589e-09
1.46479e-10
-4.70333e-09
6.88041e-09
-2.22287e-09
4.57955e-11
-2.33873e-09
-4.98575e-09
7.2113e-09
1.13166e-10
-6.72191e-09
-3.20154e-10
-2.73516e-09
5.19393e-09
-2.54435e-09
8.5582e-11
2.02446e-09
-4.56963e-09
-1.89992e-10
5.27658e-09
-3.25695e-09
4.82906e-12
-1.965e-09
-3.49863e-09
5.35073e-09
1.12898e-10
-6.72428e-09
4.91636e-09
-1.57077e-10
-6.58613e-09
3.13642e-09
-4.89254e-11
3.85574e-09
-7.90527e-09
4.20113e-09
-1.51569e-10
7.64858e-09
3.72673e-10
1.59443e-09
-1.70266e-09
-1.83178e-09
-6.63626e-09
3.36873e-10
-8.85868e-09
6.7969e-09
2.29994e-10
4.96595e-09
-5.85963e-09
1.22313e-09
-3.29454e-10
7.4506e-10
4.38578e-09
-1.64889e-10
-3.93713e-09
-9.77047e-11
-2.3349e-09
4.72911e-09
-2.2367e-09
-1.57506e-10
2.32604e-09
-4.27106e-09
-3.89883e-10
-2.51275e-09
4.9173e-09
-7.85199e-11
2.78327e-09
-4.96969e-09
-3.26351e-10
1.89818e-09
-4.29342e-09
2.49114e-09
-9.58614e-11
5.75001e-09
-4.05344e-09
2.01615e-10
-1.90237e-09
2.9612e-09
-1.09681e-09
3.79984e-11
-2.91099e-09
1.16282e-09
-1.54138e-10
-2.14568e-09
7.06549e-09
-5.08003e-09
1.60245e-10
-4.32963e-09
-3.23936e-09
6.94959e-09
6.19421e-10
-6.56452e-09
8.91969e-11
3.89396e-09
-7.29458e-09
1.6129e-10
6.78874e-09
-6.20334e-09
-5.74952e-10
-1.04555e-11
4.59295e-09
-7.42685e-09
2.95929e-09
-1.25393e-10
-2.03019e-09
6.41958e-09
2.03573e-10
4.96946e-09
-2.10908e-10
-1.10809e-09
6.16965e-09
-5.14427e-09
8.26901e-11
-6.86732e-09
5.8719e-09
-1.12677e-10
-4.56846e-09
5.61242e-09
-1.18328e-09
1.39324e-10