/*--------------------------------*- C++ -*----------------------------------*\
| =========                 |                                                 |
| \\      /  F ield         | OpenFOAM: The Open Source CFD Toolbox           |
|  \\    /   O peration     | Version:  v1612+                                |
|   \\  /    A nd           | Web:      www.OpenFOAM.com                      |
|    \\/     M anipulation  |                                                 |
\*---------------------------------------------------------------------------*/
FoamFile
{
    version     2.0;
    format      ascii;
    class       volVectorField;
    location    "206";
    object      wallShearStress;
}
// * * * * * * * * * * * * * * * * * * * * * * * * * * * * * * * * * * * * * //

dimensions      [0 2 -2 0 0 0 0];

internalField   uniform (0 0 0);

boundaryField
{
    WALL
    {
        type            calculated;
        value           nonuniform List<vector> 
1670
(
(0.0184409 0.00364101 0.00942893)
(0.018682 0.00257103 0.0101907)
(0.00641258 -0.000838459 0.00668995)
(0.00613833 -0.000980271 0.00651413)
(0.0242033 0.00104836 0.00605276)
(0.0256445 -0.000974443 0.00698128)
(0.016675 0.00334094 0.0149193)
(0.0157244 0.00293864 0.0147029)
(0.00963804 0.00503951 0.0114268)
(0.00968928 0.00337615 0.0120768)
(0.013668 0.00350854 0.0144692)
(0.0154653 0.00193347 0.0158466)
(0.00859656 -0.000980361 0.00693304)
(0.00823357 -0.000924185 0.00690722)
(0.0192422 0.00171551 0.0150919)
(0.019243 0.00189842 0.0163314)
(0.0188012 0.000969797 0.016662)
(0.0198398 -0.000738163 0.0169821)
(0.0189946 0.00152721 0.0164547)
(0.0188965 0.00040461 0.0160403)
(0.0174545 0.000684401 0.0167011)
(0.0183219 -0.000936556 0.0158002)
(0.0150327 0.00307589 0.015619)
(0.0157738 0.00116923 0.0155556)
(0.0105182 0.00525559 0.0116893)
(0.0133767 0.0058677 0.0125641)
(0.0108309 0.00496566 0.0129398)
(0.0109281 0.00536621 0.0124335)
(0.0112026 0.00490246 0.0127783)
(0.0125832 0.00535132 0.011663)
(0.0137139 0.00636043 0.010842)
(0.00669145 -0.000189574 0.0082235)
(0.00668243 -0.000244041 0.00793736)
(0.00667296 0.00111904 0.00803296)
(0.00637337 0.000564006 0.00751956)
(0.016658 0.00460922 0.0102982)
(0.017271 0.00542783 0.0100424)
(0.00756276 -0.0024978 0.00580557)
(0.00770113 -0.00249616 0.00576442)
(0.00715042 -0.00221187 0.00669638)
(0.00703037 -0.00174022 0.00590183)
(0.018714 -0.00477108 0.0156033)
(0.0189438 -0.00367271 0.0151694)
(0.0211665 0.000119886 0.017123)
(0.0222511 -0.00141636 0.018344)
(0.0231534 -0.00302819 0.018675)
(0.0221019 -0.00123669 0.0177975)
(0.0211095 -0.00243915 0.0171911)
(0.0222635 -0.00399468 0.0180984)
(0.0178569 -0.00141263 0.00750591)
(0.0189454 -0.000661751 0.0076284)
(0.0201189 0.000768984 0.00938506)
(0.0207959 0.000973474 0.0101557)
(0.0213787 0.00420717 0.0117898)
(0.0193233 0.00352495 0.00900784)
(0.0187712 0.00570767 0.00731238)
(0.0218254 0.00410017 0.00823526)
(0.00779233 0.0017311 0.00775178)
(0.00698137 0.0012869 0.00768919)
(0.00669533 0.000984932 0.00749913)
(0.00666508 0.000561224 0.00728169)
(0.020323 -0.00377958 0.0157695)
(0.0167718 0.000389075 0.0159802)
(0.0168731 0.00171439 0.0165928)
(0.0181785 0.00121304 0.00922303)
(0.016116 -0.00073322 0.0084495)
(0.00685192 0.00123772 0.0094809)
(0.00705734 0.000880468 0.00923084)
(0.00956662 0.00199797 0.00761734)
(0.00794784 0.0016795 0.00702306)
(0.0099327 0.00157668 0.00805812)
(0.00782955 0.000701994 0.00691489)
(0.00750714 0.00161372 0.00706546)
(0.00772624 0.00196806 0.0070344)
(0.00797269 0.00112639 0.00736239)
(0.0203284 -0.00348907 0.0153572)
(0.0210224 -0.00294646 0.0170072)
(0.0215263 -0.00316298 0.0169719)
(0.0216408 -0.00375143 0.0158024)
(0.0214552 -0.0030334 0.0174864)
(0.0223173 -0.00414858 0.0158193)
(0.0144814 0.00197879 0.0147734)
(0.015053 0.00302893 0.0149757)
(0.0143323 0.00182821 0.0140478)
(0.0217753 0.00231946 0.0136981)
(0.0189206 0.0036586 0.0137569)
(0.0196278 0.00157743 0.013475)
(0.0190074 0.00378155 0.0134274)
(0.0194647 0.00226702 0.0133392)
(0.0196551 0.00147503 0.0141665)
(0.0171305 -0.000232885 0.0155927)
(0.0177226 0.000946662 0.0171133)
(0.0174933 -0.000566393 0.0160413)
(0.0176898 0.0013425 0.0163136)
(0.0170018 -0.000151989 0.0160204)
(0.0168123 0.00020214 0.0155772)
(0.00989817 -0.00185606 0.00737851)
(0.0102958 -0.00139346 0.00722097)
(0.00991737 -0.0015162 0.00728712)
(0.0098292 -0.00189187 0.00747567)
(0.0107229 -0.00148935 0.00745708)
(0.0094536 -0.00166577 0.00756872)
(0.0164133 0.00649387 0.0132411)
(0.0160162 0.00580241 0.0115931)
(0.0157294 0.00736463 0.0115091)
(0.0146747 0.00535993 0.0110096)
(0.0162954 0.00799826 0.0127533)
(0.0160804 0.00636457 0.0136544)
(0.0059543 -0.00151601 0.00605219)
(0.00663015 -0.0011839 0.00669832)
(0.00619831 -0.00116599 0.00656297)
(0.0066454 -0.0011356 0.00669926)
(0.00688235 -0.0014362 0.00680032)
(0.00661843 -0.00141647 0.00662874)
(0.0223028 -0.00364401 0.00918251)
(0.0232369 -0.00468332 0.0094528)
(0.0220195 -0.0029948 0.00812585)
(0.0203479 -0.00389874 0.00903567)
(0.0228345 -0.00340141 0.00942163)
(0.0200334 0.00548808 0.00745918)
(0.0190809 0.00595842 0.00752355)
(0.0207406 0.0058018 0.00735901)
(0.0172368 0.0049705 0.00776736)
(0.0195356 0.00480474 0.00805836)
(0.0184953 0.00519971 0.00875192)
(0.0206259 -0.00603797 0.0154446)
(0.0195505 -0.0048294 0.0153766)
(0.0209521 -0.00507991 0.015367)
(0.0204489 -0.00569079 0.0151871)
(0.0214102 0.000109387 0.0165842)
(0.0211382 0.000303728 0.0180795)
(0.0218665 0.000372528 0.0174128)
(0.0208906 -0.000123825 0.0169145)
(0.0216607 -0.0017462 0.0176416)
(0.0230065 -0.000969802 0.0183997)
(0.0204504 0.002521 0.00748763)
(0.0227247 0.00173573 0.00776019)
(0.0218473 0.0032282 0.00709823)
(0.019639 0.00388683 0.00701514)
(0.0214641 0.00164733 0.00695245)
(0.00693333 0.00186001 0.00834677)
(0.00721353 0.00239415 0.00862926)
(0.00751509 0.00230818 0.00845525)
(0.00659027 0.00165846 0.00761037)
(0.00670207 0.000439337 0.00747814)
(0.00672732 0.00112166 0.00767817)
(0.00797098 0.00200061 0.00783106)
(0.00737432 0.00139804 0.00716195)
(0.00684652 0.00134939 0.00706978)
(0.00690634 0.000830055 0.0067182)
(0.0121518 0.00536791 0.00942174)
(0.0141874 0.00723064 0.0102758)
(0.0160142 0.00644076 0.0105217)
(0.0130471 0.00700252 0.00997488)
(0.0139081 0.0062709 0.0100776)
(0.0158079 0.00665372 0.0100616)
(0.0101078 0.00614469 0.0103503)
(0.00950612 0.0038267 0.00975668)
(0.0107799 0.0044436 0.00962651)
(0.0092561 0.00365942 0.00943734)
(0.010186 0.00508088 0.0104823)
(0.0104393 0.00446779 0.0100334)
(0.0120314 0.00571751 0.0088769)
(0.0115843 0.00478849 0.00948648)
(0.012886 0.00649582 0.00886669)
(0.0140563 0.00507168 0.00982673)
(0.0137172 0.00569031 0.0111469)
(0.0113335 0.00593028 0.0100764)
(0.0170776 0.00711951 0.00838231)
(0.0145749 0.00722434 0.00898269)
(0.0151249 0.00656888 0.0092564)
(0.0169832 0.00580563 0.00944835)
(0.0168916 0.00658763 0.00983256)
(0.0160939 0.00626864 0.00841332)
(0.022492 -0.00175079 0.00789042)
(0.0222216 7.05669e-05 0.00742571)
(0.0233091 -0.00184108 0.00831244)
(0.0233272 0.000213101 0.00743112)
(0.0239402 -0.00118268 0.00824792)
(0.0223557 -0.000710696 0.00784804)
(0.0194489 0.00521116 0.00741928)
(0.0211046 0.00310507 0.0074467)
(0.0211662 0.00484729 0.00707335)
(0.0222328 0.00409978 0.00718921)
(0.0225456 0.00439242 0.00898351)
(0.0195721 0.00645747 0.00740301)
(0.0230636 0.00218838 0.00886574)
(0.0224584 0.00122424 0.00850491)
(0.0223214 0.00141629 0.00885064)
(0.0209157 0.000706024 0.00772405)
(0.0225027 0.000228057 0.00830137)
(0.0223388 0.000188243 0.00848043)
(0.0226316 -0.00163774 0.00912021)
(0.0235192 -0.00153877 0.00941701)
(0.0216407 -0.00197824 0.00799129)
(0.0220215 -0.0011484 0.00825254)
(0.022422 -0.00276155 0.0102148)
(0.0231625 -0.0023722 0.00942876)
(0.0215668 -0.000828973 0.00953048)
(0.020118 -0.0012095 0.00987991)
(0.0210967 -0.0015846 0.0100195)
(0.022328 -0.00233846 0.0113521)
(0.0202645 -0.00172753 0.0105221)
(0.0207917 -0.00258684 0.0113327)
(0.0200449 -0.000913364 0.0102925)
(0.0207764 -0.000914994 0.0104313)
(0.0207536 -2.20857e-05 0.0101354)
(0.0202709 -0.00061283 0.00983289)
(0.0212908 0.000412937 0.0103546)
(0.0108176 -0.00247955 0.00582828)
(0.0129883 -0.00259174 0.00618563)
(0.01182 -0.00275539 0.00600642)
(0.00979843 -0.00253045 0.00585894)
(0.0106197 -0.00285177 0.00589978)
(0.0120952 -0.00241646 0.00604819)
(0.013061 -0.00232394 0.007245)
(0.0145114 -0.0020582 0.00715894)
(0.0138215 -0.00154419 0.00677129)
(0.011644 -0.00255964 0.00648719)
(0.011223 -0.00242116 0.00637535)
(0.0127624 -0.00209437 0.00621601)
(0.00854607 -0.00259309 0.00663536)
(0.00752105 -0.00222659 0.00593784)
(0.00957375 -0.00255379 0.00605695)
(0.00821859 -0.00227858 0.00564647)
(0.00895162 -0.00258375 0.00629415)
(0.00747223 -0.00221472 0.00586374)
(0.00679488 -0.00190749 0.0058517)
(0.00646351 -0.00151561 0.00589573)
(0.00694322 -0.00191841 0.00589698)
(0.00670779 -0.00203858 0.00566878)
(0.0065415 -0.00155628 0.00588471)
(0.00657565 -0.000411537 0.0063271)
(0.00638175 -0.000717143 0.00638028)
(0.00633143 -0.000900197 0.00611858)
(0.00679693 -0.000859402 0.00628789)
(0.00647527 -0.00107276 0.00610001)
(0.00648758 -0.000524501 0.00624411)
(0.0156553 0.00356461 0.00868467)
(0.015853 0.00571328 0.00779535)
(0.0167554 0.0062961 0.00732547)
(0.0147888 0.00391739 0.0081579)
(0.0154858 0.0035358 0.00761438)
(0.0170277 0.0039883 0.00752306)
(0.00994201 0.00235378 0.007428)
(0.0106273 0.00298453 0.00764916)
(0.0129707 0.00300746 0.00853072)
(0.0113766 0.00262413 0.00844995)
(0.0122346 0.00338367 0.00813532)
(0.0183266 -0.0013386 0.0111048)
(0.0192219 -0.00182049 0.0122575)
(0.0192307 -0.0018596 0.0123626)
(0.0185448 -0.00149923 0.0117124)
(0.0188466 -0.00139341 0.0115678)
(0.01844 -0.00194308 0.0113778)
(0.0167292 -0.00232247 0.0131618)
(0.0181636 -0.00277986 0.0131264)
(0.0202636 -0.00243119 0.0131891)
(0.018635 -0.00263139 0.0144308)
(0.0187948 -0.00237493 0.0144957)
(0.0176673 -0.00217185 0.0124262)
(0.0186718 -0.00278013 0.0129812)
(0.0173952 -0.00286496 0.0129033)
(0.01915 -0.00319216 0.0145004)
(0.0196349 -0.00256427 0.0155375)
(0.0171849 -0.00217349 0.0146296)
(0.0189666 -0.0034165 0.0141369)
(0.0197852 0.00177322 0.0105504)
(0.0183025 0.00111531 0.00982454)
(0.0191331 0.00122688 0.00973463)
(0.0182088 0.00151793 0.00937045)
(0.0183717 0.00301347 0.00938989)
(0.0178434 0.0032255 0.00963852)
(0.0186185 0.00217364 0.00971319)
(0.0188681 0.00213596 0.00995494)
(0.0190179 0.00440548 0.0108654)
(0.0180012 0.00454892 0.0113351)
(0.0176255 0.00602499 0.0110208)
(0.0169026 0.00504619 0.0109938)
(0.0173584 0.00556911 0.0102402)
(0.0195251 0.00456763 0.0116169)
(0.0195792 0.00186278 0.0106098)
(0.018966 0.00289929 0.0107166)
(0.0197451 0.00171072 0.0110488)
(0.0180192 -0.000677268 0.00879888)
(0.017262 -0.000750078 0.00771475)
(0.0185986 -0.000377517 0.00822051)
(0.0189254 0.000428397 0.00896098)
(0.0161849 -0.00110033 0.0077456)
(0.0201859 -0.000179912 0.00955448)
(0.021281 -0.00155117 0.0171473)
(0.019915 -0.00185234 0.0170987)
(0.0211857 -0.0028184 0.0172583)
(0.0215268 -0.0016639 0.0175406)
(0.0212368 -0.00189959 0.0173977)
(0.021157 -0.00233753 0.0169868)
(0.0243148 0.00135899 0.0165729)
(0.0253212 0.000384055 0.0173062)
(0.0227145 -1.60505e-05 0.0141787)
(0.0246153 0.000368027 0.0159742)
(0.0244053 0.00126594 0.0158384)
(0.0235357 0.00228315 0.0150507)
(0.0221051 0.00223482 0.0136506)
(0.0227512 0.00253157 0.0141626)
(0.0233877 0.0010408 0.0131259)
(0.0254939 0.00118348 0.0152393)
(0.02412 0.00259532 0.0139352)
(0.0218675 0.00247413 0.0123137)
(0.0232926 -0.00315587 0.0182907)
(0.0235293 -0.00490941 0.0170581)
(0.0238789 -0.00342416 0.018704)
(0.022749 -0.00215091 0.0171813)
(0.0233743 -0.00359438 0.0173547)
(0.0234151 -0.00295222 0.0181042)
(0.0231466 -0.00564368 0.0161958)
(0.0231835 -0.00482901 0.0169659)
(0.0230112 -0.00445008 0.0167418)
(0.0219593 -0.00499418 0.0159845)
(0.0227549 -0.00575775 0.0156984)
(0.0237927 -0.00534765 0.0166284)
(0.0223902 -0.00243758 0.0166311)
(0.0258132 -0.00110455 0.0176789)
(0.0226805 -0.00174413 0.0161615)
(0.0227108 -0.00270098 0.0163458)
(0.0250105 1.22052e-05 0.017975)
(0.0248352 0.000196206 0.0175458)
(0.024175 0.000800327 0.0120724)
(0.0235517 -0.000180682 0.0134506)
(0.0255008 0.000876102 0.0121282)
(0.0248254 0.00251521 0.0126726)
(0.0238978 0.000283351 0.0124959)
(0.0232192 0.00281167 0.0123588)
(0.0204107 -0.00621687 0.0140401)
(0.0211045 -0.00617229 0.0141157)
(0.0223683 -0.00704314 0.0133021)
(0.0219989 -0.00705258 0.0130799)
(0.0212828 -0.00679836 0.0137168)
(0.022242 -0.00669085 0.0140382)
(0.0209998 -0.00726657 0.0123483)
(0.0220886 -0.00752207 0.0121126)
(0.0223033 -0.00719185 0.0124432)
(0.0204599 -0.00702646 0.0121805)
(0.0219576 -0.0072338 0.0112184)
(0.0224791 -0.00609235 0.0114156)
(0.0227235 -0.00590697 0.0120712)
(0.0227267 -0.00507944 0.00997927)
(0.0234704 -0.00551004 0.0107178)
(0.0219118 -0.00543808 0.0118896)
(0.0226233 -0.00504788 0.0109336)
(0.0217505 -0.00497339 0.0155907)
(0.0213609 -0.00545476 0.0133031)
(0.0219044 -0.00586087 0.0151153)
(0.0198086 -0.00474854 0.0151335)
(0.0216708 -0.00588018 0.015095)
(0.0198901 -0.00336598 0.0117822)
(0.018854 -0.00319318 0.0122007)
(0.0216612 -0.00392467 0.0135188)
(0.0213106 -0.00351221 0.012868)
(0.0197043 -0.00376804 0.0134455)
(0.0188775 -0.00296669 0.0113637)
(0.00767636 -0.00230616 0.00694738)
(0.00746815 -0.00198004 0.00663033)
(0.00699824 -0.00179569 0.00671183)
(0.00736373 -0.00200556 0.00674249)
(0.00692942 -0.00168592 0.0068148)
(0.00632541 -0.000677177 0.00643949)
(0.00622648 -0.000947969 0.00655937)
(0.00623059 -0.000231946 0.00651024)
(0.00647231 -0.000249576 0.00683219)
(0.0062094 0.000182972 0.00690582)
(0.0064853 8.06516e-05 0.00673963)
(0.00637832 -0.000863961 0.0063108)
(0.00634461 -0.000529434 0.00647511)
(0.00707841 -0.00217 0.00597016)
(0.00788098 -0.00282749 0.00599664)
(0.00731403 -0.00248037 0.00594687)
(0.00747102 -0.00273179 0.00581365)
(0.00761625 -0.00246356 0.00626114)
(0.00714639 -0.00202648 0.00582423)
(0.0243297 0.00132332 0.00664665)
(0.0255788 -0.000266881 0.00711603)
(0.0256284 0.00135835 0.00709182)
(0.0248167 -0.000534812 0.00647824)
(0.0249602 -0.0038573 0.00687723)
(0.0258159 -0.00237361 0.00719008)
(0.025291 -0.0029069 0.00697013)
(0.021468 0.00356399 0.00977982)
(0.019803 0.00499662 0.00883736)
(0.0203397 0.00274888 0.00893773)
(0.0191641 0.00563609 0.00860369)
(0.0180501 0.00349332 0.00857335)
(0.0173737 0.00444805 0.00842339)
(0.017141 0.00609545 0.00922326)
(0.0191401 0.00504702 0.00893104)
(0.016435 0.00683141 0.00903222)
(0.0185858 0.0061098 0.00894039)
(0.0185321 0.00444132 0.00876425)
(0.0195914 0.0055361 0.0104985)
(0.0199696 0.00178768 0.00929691)
(0.0180014 0.00203888 0.00828762)
(0.019697 0.00196242 0.00918176)
(0.020375 0.0033062 0.0100945)
(0.0197407 0.00262424 0.00915649)
(0.0202048 0.00268951 0.00998709)
(0.0186897 0.000164858 0.0111698)
(0.0198288 2.97328e-05 0.0123966)
(0.0191213 0.000546103 0.0115186)
(0.0177189 0.00548321 0.0121769)
(0.0176245 0.00581475 0.0105739)
(0.0158461 0.00728199 0.0112198)
(0.0173009 0.00562064 0.0108358)
(0.0158125 0.00553227 0.0110401)
(0.0180872 0.00517955 0.0106362)
(0.00624669 0.000221884 0.00799788)
(0.00667003 7.29202e-05 0.00788519)
(0.00646225 -0.000208445 0.0076202)
(0.00612369 3.39566e-05 0.00777044)
(0.00700448 -0.000675351 0.00749086)
(0.00682075 -0.000371044 0.00774733)
(0.00752314 -0.00145631 0.0073388)
(0.00751263 -0.00159887 0.00730003)
(0.0081421 -0.00166378 0.00726477)
(0.00741466 -0.00164146 0.00707122)
(0.00790408 -0.00159636 0.0071059)
(0.00776909 -0.00152922 0.00751633)
(0.00695814 -0.00087243 0.00744957)
(0.00690581 -0.000401548 0.00801098)
(0.00654142 -0.00078531 0.007968)
(0.00708207 -0.000571719 0.00833317)
(0.00749509 -0.00133413 0.00805991)
(0.00681829 -0.00105874 0.00740364)
(0.00713232 -0.000960272 0.0075611)
(0.00774714 -0.00102636 0.0074188)
(0.00680075 -0.000941745 0.00705009)
(0.0078015 -0.00114679 0.00783224)
(0.00763445 -0.00105856 0.0071157)
(0.00768677 -0.00123112 0.0072852)
(0.00680264 0.000207725 0.00882036)
(0.00697688 -0.00036153 0.00823136)
(0.00713847 -0.000507259 0.00836392)
(0.00945996 0.00376765 0.0109458)
(0.0100157 0.00476302 0.0116018)
(0.00955732 0.00364019 0.0111552)
(0.00998319 0.00395052 0.0103885)
(0.0107239 0.00508868 0.011058)
(0.00992392 0.00531949 0.0111312)
(0.012838 0.00572843 0.0111666)
(0.0101854 0.00593819 0.0108296)
(0.0127438 0.00553927 0.0103932)
(0.0123785 0.0062438 0.0118708)
(0.01094 0.00526255 0.0104481)
(0.0129344 0.00701523 0.0107149)
(0.0122806 0.00448676 0.0126677)
(0.0124758 0.00521376 0.0118301)
(0.0115184 0.00596997 0.0131658)
(0.0131289 0.00696636 0.0125438)
(0.0133364 0.00597466 0.0130181)
(0.013028 0.00537995 0.0122578)
(0.0132812 0.00525907 0.0135413)
(0.0106675 0.00368087 0.0129225)
(0.0138017 0.00554348 0.0118541)
(0.0135041 0.00730251 0.0119182)
(0.0161848 0.00634792 0.0129798)
(0.016011 0.00603136 0.0123343)
(0.0132487 0.00657044 0.0120748)
(0.0126042 0.00574093 0.0117765)
(0.0145857 0.0060565 0.0107398)
(0.0154247 0.00675074 0.0109645)
(0.0160051 0.0069266 0.0111015)
(0.0155334 0.00676151 0.0113872)
(0.0165311 0.0070281 0.0114446)
(0.00981258 -0.00169176 0.00736753)
(0.00884614 -0.00179746 0.00729557)
(0.0102542 -0.00209228 0.00760137)
(0.00911998 -0.00185022 0.00699009)
(0.00859262 -0.00190429 0.0074429)
(0.00838261 -0.00176213 0.00716499)
(0.014076 0.00387131 0.013976)
(0.0150815 0.00247397 0.0145172)
(0.0141676 0.00311693 0.0139047)
(0.0152481 0.0033749 0.0143538)
(0.0166936 0.00347072 0.0147286)
(0.0154378 0.00213267 0.0140792)
(0.014624 0.00147548 0.0150141)
(0.0155274 0.000734523 0.0148786)
(0.014395 0.00225522 0.0154429)
(0.0152597 0.00102907 0.0145668)
(0.0146545 -0.000189859 0.0143024)
(0.0144497 0.000663872 0.0148735)
(0.0157576 0.000148322 0.0151178)
(0.016275 -0.000254988 0.0155979)
(0.0151448 0.000160822 0.0147649)
(0.0133537 0.00481339 0.0113355)
(0.0123973 0.00431228 0.00915299)
(0.0128191 0.00353152 0.0107816)
(0.0143571 0.00398925 0.0116715)
(0.0127977 0.00323277 0.00955027)
(0.0138441 0.00373816 0.0107764)
(0.014627 0.00425553 0.0136428)
(0.0136064 0.00478747 0.0119919)
(0.0136396 0.00351777 0.0119043)
(0.0132748 0.00501706 0.0117016)
(0.0155569 0.00399064 0.0136437)
(0.0131221 0.00290664 0.0109702)
(0.0154443 0.0036305 0.0131449)
(0.0157727 0.00317049 0.0137696)
(0.0163949 0.00293287 0.0137861)
(0.0146104 0.00405116 0.0123866)
(0.0142745 0.00257475 0.0114951)
(0.0152414 0.00335111 0.0127946)
(0.0147548 0.00414302 0.0131719)
(0.0170094 0.0030397 0.0153683)
(0.0106498 -0.000511811 0.00746244)
(0.011006 0.000249225 0.00714047)
(0.0113897 0.000838844 0.00702124)
(0.0117476 0.000129829 0.0077946)
(0.0111445 -0.000436607 0.00749082)
(0.0113353 -0.000408388 0.00744947)
(0.00829498 -0.00119297 0.00709574)
(0.0093712 -0.000708262 0.00678374)
(0.00960381 -0.00103945 0.00732579)
(0.00884149 -0.000929467 0.00690685)
(0.00878888 -0.0011802 0.00712686)
(0.00929759 -0.00123993 0.00741562)
(0.00661097 -0.000630195 0.0073755)
(0.00690327 -0.000597431 0.00770423)
(0.00725467 -0.000670039 0.00736313)
(0.00725044 -0.000730085 0.00747802)
(0.00690804 -0.000419988 0.00778453)
(0.00715408 -0.000544433 0.00805333)
(0.0109785 0.00271824 0.00694674)
(0.0116248 0.00283886 0.00742629)
(0.0130092 0.00285871 0.00939091)
(0.0109342 0.00164076 0.00727529)
(0.0131172 0.00230285 0.00880046)
(0.0107966 0.00124327 0.00672649)
(0.0119664 0.00114672 0.00795958)
(0.0114658 0.0012337 0.00757073)
(0.0121879 0.00208364 0.00783858)
(0.0123701 0.00107582 0.00811187)
(0.0109488 0.000293429 0.00733781)
(0.0179603 0.00190979 0.0159176)
(0.0167749 0.00169815 0.0148104)
(0.0163481 0.00224268 0.0153322)
(0.0158818 0.00225065 0.0153865)
(0.01709 0.0017534 0.0156241)
(0.0173525 0.0010511 0.0157718)
(0.0173814 -0.00139522 0.0149046)
(0.0163904 -0.000807793 0.0150907)
(0.0167971 -0.00173241 0.0147852)
(0.0155722 -0.00120594 0.0145924)
(0.0170326 -0.0012985 0.0151052)
(0.0169584 -0.00171509 0.014422)
(0.019198 -0.000934992 0.0163851)
(0.0186553 0.000341072 0.0163682)
(0.0172607 0.000716192 0.0163416)
(0.0190678 -0.00010077 0.0162378)
(0.0199702 0.000595162 0.0173854)
(0.0188803 -0.00104318 0.0168481)
(0.0192539 -0.00157971 0.0160554)
(0.0197815 -0.00253093 0.0155271)
(0.0187308 -0.00213356 0.0155157)
(0.019938 -0.0021709 0.016319)
(0.0186568 -0.00136005 0.0157268)
(0.0201058 0.00162551 0.0155485)
(0.0173109 0.00205576 0.013772)
(0.0176664 0.00282161 0.0133574)
(0.0180546 0.00149486 0.0130065)
(0.0175445 0.00259752 0.0127325)
(0.0172706 0.00325635 0.0143875)
(0.0206585 0.00109254 0.0161543)
(0.0214897 0.00191704 0.0158599)
(0.0197627 0.00254462 0.0144391)
(0.0209455 0.00123686 0.0153262)
(0.0203248 0.00195253 0.0165377)
(0.0202884 0.000623585 0.0156058)
(0.0134374 -0.00109604 0.0083605)
(0.0134188 0.000229582 0.00790255)
(0.0122828 -0.00057102 0.00799043)
(0.0139474 0.00019998 0.00830782)
(0.0138806 -0.000779601 0.00860359)
(0.0130016 9.16997e-05 0.00774131)
(0.0140804 0.000763693 0.00865813)
(0.0124104 0.000486513 0.00747846)
(0.0127759 6.12976e-05 0.00801946)
(0.0134531 0.00106304 0.0082027)
(0.0144564 0.000607166 0.00893262)
(0.0188628 0.00212124 0.0127646)
(0.0165322 0.0019252 0.00998624)
(0.0175053 0.00324012 0.0106717)
(0.0178024 0.00181383 0.0114435)
(0.0198406 0.00199385 0.012683)
(0.0177424 0.00242959 0.0107317)
(0.0140163 0.00259653 0.0093842)
(0.0124821 0.00452554 0.00912192)
(0.013015 0.00288203 0.00939971)
(0.013355 0.00274516 0.0101505)
(0.013426 0.00255841 0.00982487)
(0.0130425 0.00392546 0.00932058)
(0.014231 0.00303388 0.00987818)
(0.0150769 0.00219162 0.00987514)
(0.0123514 0.000845744 0.00826482)
(0.0139274 0.00194041 0.00865148)
(0.0140099 0.00242119 0.00859997)
(0.0131369 0.0021648 0.00874089)
(0.0119014 -0.00161786 0.00751552)
(0.0133406 -0.00141402 0.00829982)
(0.0129951 -0.000465391 0.00737916)
(0.0110891 -0.0016737 0.00736727)
(0.0129898 -0.00151455 0.00778649)
(0.0121825 -0.0011717 0.0076901)
(0.0189423 0.00101206 0.0108252)
(0.0192444 0.00280562 0.0111994)
(0.0164777 0.00142936 0.00895566)
(0.0170781 0.000300138 0.00967348)
(0.0176998 0.00112849 0.0104771)
(0.0194412 0.0014902 0.0114038)
(0.0173846 -9.2167e-05 0.00932405)
(0.0192032 0.000905623 0.0102956)
(0.0191864 -5.04248e-05 0.0100702)
(0.0189974 -0.00051687 0.00969751)
(0.0164395 -0.000208536 0.00904343)
(0.0183138 0.00166348 0.0093196)
(0.0160766 0.000502256 0.0150979)
(0.0149398 0.00117031 0.0147357)
(0.0147904 0.000712008 0.0147523)
(0.0103833 0.00448727 0.0117393)
(0.0109285 0.00516155 0.0123258)
(0.00966229 0.00404178 0.0110362)
(0.00923369 0.00383909 0.0119472)
(0.00739309 0.00236261 0.0100133)
(0.0104278 0.00418772 0.0125053)
(0.00733639 0.0022414 0.0102009)
(0.00844031 0.00259256 0.0113688)
(0.00838586 0.00285022 0.0113578)
(0.00979589 0.00327356 0.0120009)
(0.00907226 0.00347288 0.0116292)
(0.00682711 0.000465722 0.00909199)
(0.00707957 0.000381938 0.00888019)
(0.00772674 0.00134735 0.0100383)
(0.0078806 0.000816601 0.0100902)
(0.00777324 0.00121329 0.00974211)
(0.00681307 9.902e-05 0.00901598)
(0.00699374 5.7107e-05 0.00861775)
(0.00680785 0.000270339 0.00874142)
(0.00661576 -0.000414287 0.00803668)
(0.00664514 -0.000299717 0.008219)
(0.00676215 0.000207131 0.00863402)
(0.00694528 -0.000167793 0.00833909)
(0.00643641 -5.40187e-05 0.00821273)
(0.00704296 0.000938927 0.00881391)
(0.00659526 0.000570014 0.00842855)
(0.00645288 0.000665544 0.00842495)
(0.00690474 0.0010687 0.00904928)
(0.00648345 0.000249993 0.00809181)
(0.00627969 0.000295185 0.00820416)
(0.0194059 0.00365559 0.00937357)
(0.0176001 0.00202686 0.00963137)
(0.0197916 0.00248823 0.0100954)
(0.0198675 0.00181733 0.01014)
(0.0184684 0.00223338 0.00971431)
(0.0195156 0.00189338 0.0100973)
(0.0190889 9.97117e-05 0.0104803)
(0.0183832 -0.000491791 0.0104808)
(0.0187786 0.000118849 0.0105583)
(0.0186018 -0.000965015 0.0113615)
(0.0184043 -0.000593324 0.0106612)
(0.0190154 -0.000343842 0.0113706)
(0.0143205 0.00415184 0.00846755)
(0.0117295 0.0037627 0.00810887)
(0.0150818 0.0051574 0.00890475)
(0.0123684 0.00474896 0.00797406)
(0.0105256 0.00369115 0.00798212)
(0.0112093 0.0037164 0.00800216)
(0.0203217 -0.00176223 0.0119064)
(0.00642638 0.000129765 0.00824634)
(0.00709391 0.00150281 0.00906664)
(0.00624674 -9.05819e-05 0.00810395)
(0.0073016 0.00259392 0.010065)
(0.00797327 0.00319152 0.0107539)
(0.0139387 0.0032424 0.0138236)
(0.0157436 0.000606879 0.0151744)
(0.0156263 0.00265608 0.0153371)
(0.0142472 0.00141827 0.0140233)
(0.0145255 0.00104792 0.0149754)
(0.0147299 0.00156259 0.0149894)
(0.0153408 0.000861942 0.0152001)
(0.0146689 0.00121188 0.0150786)
(0.0127932 0.00435285 0.01219)
(0.0135449 0.00355404 0.013313)
(0.0138369 0.00426283 0.0133912)
(0.0137967 0.00366348 0.0133148)
(0.0133292 0.00471452 0.0121228)
(0.00839056 -0.000974929 0.00690817)
(0.00793441 -0.00111389 0.00716575)
(0.00778328 -0.00118763 0.00743568)
(0.00778715 -0.00084223 0.00711918)
(0.0150796 -0.00184896 0.0074987)
(0.0150261 -0.00173085 0.00753603)
(0.0164496 -0.00153378 0.00850687)
(0.0168587 -0.000442844 0.00815275)
(0.0134652 -0.00211751 0.00793366)
(0.0118766 -0.00230167 0.00748513)
(0.0133286 -0.00170662 0.0079405)
(0.0146476 -0.000613005 0.0086811)
(0.0175067 0.00372841 0.013368)
(0.0146826 0.00336142 0.0120547)
(0.016137 0.00325768 0.0130246)
(0.016551 0.00375225 0.012813)
(0.0142492 0.00374889 0.0120997)
(0.0122055 0.00264172 0.00767025)
(0.0163643 0.000668333 0.00874787)
(0.015453 0.000594475 0.0083201)
(0.00907787 -0.00216952 0.0068078)
(0.0101665 -0.00217144 0.00730079)
(0.0113013 -0.00173575 0.00710048)
(0.01234 -0.00149037 0.00693298)
(0.011851 -0.00187313 0.00715865)
(0.0164616 0.00215917 0.011996)
(0.0154393 0.00416087 0.0113987)
(0.0151249 0.0038032 0.0110342)
(0.0174127 0.000541884 0.00996418)
(0.017612 0.000949096 0.0106735)
(0.0158492 0.00224655 0.0112544)
(0.0178202 0.00337972 0.0120734)
(0.0166157 0.00279585 0.0111365)
(0.0173756 0.00224047 0.0114402)
(0.0163602 0.00202003 0.0113241)
(0.013081 0.000945747 0.00858105)
(0.0141937 0.00301895 0.00934891)
(0.0146798 0.00204628 0.00999529)
(0.0146192 0.001961 0.00937969)
(0.0119456 -0.000597736 0.00767943)
(0.0114985 -0.000980117 0.00718296)
(0.0139395 -0.000519274 0.00824536)
(0.0147227 -0.000710072 0.00836772)
(0.0214009 0.00119373 0.0116644)
(0.0205731 0.00191756 0.0125904)
(0.0198835 0.0012458 0.0116227)
(0.019363 0.00290517 0.0123749)
(0.0197674 0.00145698 0.0125615)
(0.0224103 0.00228989 0.0149843)
(0.0202519 0.00251234 0.0136586)
(0.0200861 0.00306681 0.0141108)
(0.0208089 0.00199852 0.0144147)
(0.0201255 0.0019205 0.0142138)
(0.0167274 0.00334738 0.011824)
(0.017209 0.00315833 0.0121652)
(0.0165878 0.00408945 0.0120929)
(0.0222343 0.00261557 0.0163885)
(0.020831 0.00219042 0.0159061)
(0.0198851 -0.00228583 0.0161525)
(0.0208244 -0.00256351 0.0162786)
(0.0176596 0.00265116 0.014755)
(0.0181992 0.00195019 0.0152939)
(0.0169234 0.00276526 0.0140492)
(0.0184969 0.00236841 0.0155149)
(0.018457 0.00226458 0.0144318)
(0.0195244 0.00086308 0.0158502)
(0.0197651 0.00149711 0.017043)
(0.0217682 -0.000112025 0.0174572)
(0.0201392 0.00123331 0.0161787)
(0.0216851 0.000781287 0.0181319)
(0.0207127 0.000229627 0.0160152)
(0.0188145 -0.000470645 0.0170707)
(0.0210525 -0.00122911 0.0181132)
(0.0201686 -0.000681517 0.0166113)
(0.01941 -0.00100725 0.0176831)
(0.0173096 0.00128596 0.0153001)
(0.0199904 2.82316e-06 0.0179306)
(0.0196715 0.002089 0.0172765)
(0.0182912 -0.000127903 0.0173306)
(0.0160634 0.00164386 0.0155169)
(0.0174012 0.00113688 0.0157579)
(0.0171434 0.0015824 0.0159927)
(0.0176548 0.000159499 0.0158339)
(0.0174437 0.00148084 0.0155698)
(0.0157702 -0.000822964 0.0151786)
(0.0160793 -0.000592532 0.0149556)
(0.0189852 -0.00225565 0.015657)
(0.0180858 -0.00184855 0.0151907)
(0.0187687 0.000848535 0.0171754)
(0.0183645 -0.000973141 0.0160805)
(0.0172412 0.000120566 0.0165844)
(0.0186089 -0.00140968 0.0159067)
(0.0177997 -0.0011596 0.015791)
(0.0177983 -0.00141952 0.0153598)
(0.0174863 -0.00111519 0.0153066)
(0.0176964 -0.000763232 0.0152695)
(0.00982082 0.000603167 0.00660084)
(0.0101321 0.00128668 0.00650223)
(0.0111791 0.00140209 0.00767312)
(0.0120212 0.00194357 0.00804944)
(0.00757876 -0.000846699 0.00738561)
(0.00818175 -0.00126062 0.00739468)
(0.0126186 0.000490069 0.008171)
(0.0120684 0.000309924 0.00743846)
(0.00911171 -0.00093693 0.00707501)
(0.0103684 -0.000862541 0.00750387)
(0.0100005 -0.000311887 0.00701456)
(0.010557 6.27121e-06 0.00706668)
(0.0106106 -2.19629e-06 0.00705866)
(0.00995997 0.000584122 0.00654706)
(0.0102893 0.000744155 0.00670994)
(0.00988359 -0.000106273 0.00698511)
(0.010406 -0.000412008 0.00702755)
(0.0125006 -0.000899643 0.00802804)
(0.0117415 -0.000522406 0.00796018)
(0.0108976 -0.0011703 0.00781702)
(0.0108926 -0.000651128 0.00698403)
(0.011093 -0.00137699 0.00771635)
(0.0206783 -0.0020311 0.017054)
(0.0200464 -0.00212732 0.0171025)
(0.0199908 -0.00215216 0.0174165)
(0.0209004 -0.000620826 0.0175675)
(0.0205598 -0.000534385 0.0173959)
(0.0204597 -0.00106173 0.0170613)
(0.0122252 0.00274291 0.00881567)
(0.0124873 0.00410995 0.00918233)
(0.0137696 0.003925 0.0117886)
(0.0151798 0.00399006 0.0114377)
(0.0134228 0.00453067 0.011843)
(0.0157665 -5.62213e-05 0.0146868)
(0.0149043 8.25589e-05 0.0147478)
(0.0162829 0.000184903 0.0154521)
(0.0147228 0.000418893 0.0148375)
(0.0152379 0.0014865 0.0156568)
(0.0156124 0.000697432 0.0154206)
(0.0155858 0.000396658 0.0154696)
(0.0149527 0.00107644 0.0151573)
(0.015179 0.000471558 0.0149573)
(0.0147899 0.0021669 0.0142402)
(0.0154547 0.00346819 0.0150474)
(0.0153822 0.00271246 0.014659)
(0.0166331 0.00251519 0.0164932)
(0.0167776 0.00145489 0.0153652)
(0.0137172 0.00258337 0.0127709)
(0.0146461 0.00291198 0.0125055)
(0.0105741 -0.00163989 0.00719528)
(0.00944036 -0.00207616 0.0073337)
(0.0119984 -0.00199776 0.00740793)
(0.0111017 -0.00205502 0.00772108)
(0.0100257 -0.00171851 0.00669143)
(0.0104508 -0.00123932 0.00750028)
(0.0100627 -0.0012415 0.00734689)
(0.00961422 -0.00137578 0.00744614)
(0.00946662 -0.00156074 0.00725877)
(0.00935894 -0.00148626 0.00720513)
(0.00885413 -0.00153279 0.00727097)
(0.00854054 -0.00126242 0.00716988)
(0.0116066 0.0061756 0.0121089)
(0.0100316 0.00519385 0.0116701)