/*--------------------------------*- C++ -*----------------------------------*\
| =========                 |                                                 |
| \\      /  F ield         | OpenFOAM: The Open Source CFD Toolbox           |
|  \\    /   O peration     | Version:  v1612+                                |
|   \\  /    A nd           | Web:      www.OpenFOAM.com                      |
|    \\/     M anipulation  |                                                 |
\*---------------------------------------------------------------------------*/
FoamFile
{
    version     2.0;
    format      ascii;
    class       surfaceScalarField;
    location    "200";
    object      phi;
}
// * * * * * * * * * * * * * * * * * * * * * * * * * * * * * * * * * * * * * //

dimensions      [0 3 -1 0 0 0 0];

internalField   nonuniform List<scalar> 
37167
(
-2.68188e-09
1.53932e-09
-2.72984e-09
3.87238e-09
-3.17356e-09
2.94697e-09
-5.74363e-09
5.97023e-09
-1.09969e-08
-5.97896e-09
8.92119e-10
1.60837e-08
-3.0713e-08
8.82059e-09
3.21834e-09
9.19851e-09
-1.25478e-08
-2.73637e-08
1.47146e-08
-1.00541e-09
-4.51067e-09
9.56246e-09
1.96177e-09
-3.43838e-08
-1.11893e-08
-5.68384e-09
-2.54043e-08
-2.75956e-09
2.20414e-08
-2.49657e-08
1.87364e-09
1.58963e-08
-2.05295e-08
-1.38008e-08
1.70595e-08
6.3037e-09
-1.64378e-08
-2.4716e-10
1.35171e-08
2.62638e-09
2.63618e-09
-7.85918e-09
1.66035e-09
-1.2386e-08
-9.91994e-09
1.29357e-08
-4.54229e-09
1.52657e-09
5.38167e-09
-9.26764e-09
-6.03396e-09
-5.50031e-09
8.58949e-09
9.84648e-09
-3.81886e-10
2.6325e-10
6.37041e-09
1.2381e-10
-6.32051e-09
-1.73709e-10
-5.71241e-09
4.06697e-10
1.16761e-08
-5.58578e-09
-2.82493e-12
-7.62291e-09
7.71176e-09
-4.63114e-09
-4.60914e-10
-1.64296e-08
7.81374e-09
-5.09706e-09
-4.65934e-10
-2.25074e-09
-2.01255e-08
9.37832e-09
1.85609e-08
-1.75108e-08
1.83745e-08
-6.36812e-09
4.00457e-10
1.3509e-08
5.18484e-09
-4.99729e-09
-1.36965e-08
-5.52927e-09
1.27178e-08
-8.10367e-10
-1.18263e-08
6.17892e-09
-2.88418e-09
-6.43047e-09
3.13575e-09
3.67137e-09
1.56146e-09
9.46082e-10
1.58833e-09
-5.8337e-09
1.78786e-09
2.45779e-09
2.66193e-09
5.062e-09
-6.13558e-09
-2.86073e-09
-3.52522e-09
5.52269e-10
-2.57609e-09
3.94931e-09
2.29814e-09
-1.86517e-09
-2.4267e-09
6.95379e-09
4.23074e-09
-3.97842e-09
1.53556e-09
-3.20127e-09
5.56684e-09
2.9996e-09
-4.40608e-10
-5.44316e-09
1.35448e-09
-9.30967e-10
-2.10895e-09
3.63157e-09
3.12738e-09
-2.7327e-09
-4.3731e-09
-1.00227e-09
9.28379e-10
-6.02102e-09
2.71968e-09
-3.70283e-09
5.9161e-10
-6.56739e-10
-1.69161e-09
-3.73399e-09
8.70493e-09
-4.55157e-09
-4.19361e-10
6.4495e-09
-7.66125e-09
-2.52225e-09
1.24352e-09
7.24173e-09
2.1968e-10
5.74728e-09
1.94574e-09
-2.25205e-09
4.2071e-09
3.03593e-09
-4.99098e-09
1.35962e-10
-2.22997e-09
-1.5804e-10
1.96347e-09
5.12421e-11
5.22701e-09
-2.93828e-09
6.40235e-10
2.57872e-09
-2.80689e-10
-7.45861e-10
4.65116e-11
3.26028e-09
-2.56094e-09
-5.32142e-09
6.53903e-09
-1.53298e-09
1.95884e-09
-9.79894e-10
2.8437e-09
1.4689e-09
-3.33271e-09
2.01417e-09
-2.69318e-09
-3.00878e-10
-6.89966e-10
-2.20181e-09
3.64886e-09
2.5165e-10
3.56838e-09
-1.25022e-09
-5.16724e-11
1.69427e-09
-6.90332e-10
3.48013e-09
-3.58587e-09
5.15257e-09
1.27569e-10
4.73052e-10
2.74691e-09
5.45793e-09
-8.6779e-09
5.29307e-09
1.26424e-08
3.9126e-09
-4.65604e-09
1.17224e-08
6.40583e-10
-4.59142e-09
-4.67364e-10
8.36684e-09
3.68405e-09
1.33314e-08
6.98587e-09
-2.43269e-09
1.02026e-08
-8.79627e-09
6.79216e-09
2.1428e-10
1.78984e-09
3.51139e-09
-1.55597e-09
-1.07517e-08
7.72507e-09
2.68472e-09
-6.8984e-09
7.58268e-09
6.93455e-09
7.28829e-09
5.69005e-12
-8.84995e-09
2.14871e-09
5.35384e-09
-2.19381e-09
8.73571e-10
8.90292e-09
7.25094e-09
-1.36709e-09
2.32957e-09
-8.21343e-09
4.83337e-09
2.36079e-09
5.67686e-11
5.47022e-09
-6.83162e-09
2.0952e-09
3.27015e-09
1.04859e-10
8.77745e-09
1.676e-10
-6.61549e-09
7.5066e-09
6.10423e-09
-9.76418e-09
3.64907e-10
7.20546e-09
-6.91187e-09
-1.62968e-09
7.39482e-09
-4.89158e-09
4.30877e-09
1.4721e-10
2.17411e-09
5.69739e-09
4.8532e-09
7.18833e-09
-2.22383e-08
-1.28528e-08
2.79027e-08
-1.08152e-08
-1.97072e-09
1.99743e-08
5.20877e-09
1.33262e-08
-8.87863e-09
-9.6564e-09
-9.35075e-09
-7.67875e-09
6.42646e-09
-3.91547e-09
-1.35435e-08
1.5355e-08
-1.68461e-08
1.50347e-08
-2.99518e-08
1.80829e-08
-1.6746e-09
-3.02127e-08
-2.50864e-08
2.53473e-08
2.21176e-09
5.26725e-09
-1.63576e-08
9.96459e-09
-1.71036e-08
-5.74871e-09
-1.08248e-08
1.40182e-08
2.55535e-09
-1.30539e-08
8.21988e-10
6.48319e-09
5.66015e-09
-2.59083e-08
-1.81064e-08
2.18747e-08
-1.45932e-08
-1.81623e-08
-8.37245e-09
8.42829e-09
-9.71947e-09
3.09201e-09
-4.80702e-09
-7.6951e-09
-9.25925e-09
1.78637e-08
-6.298e-09
-1.33757e-08
1.81003e-09
-3.13209e-09
-2.85251e-09
2.38483e-08
-1.4122e-08
-4.91193e-09
1.59018e-08
-1.69089e-09
-8.12284e-09
-4.30827e-09
1.45188e-08
-5.75212e-09
-1.50647e-08
-4.42964e-09
1.6096e-08
1.30664e-08
-1.09456e-08
-3.81169e-09
-4.44278e-09
1.25972e-08
-1.01082e-08
-1.13904e-08
1.64913e-10
1.00742e-08
-1.46687e-08
-1.28453e-08
8.56744e-09
-7.86809e-09
-1.12175e-08
6.24032e-09
-1.23768e-09
-1.7576e-08
-1.91271e-08
7.78128e-09
-9.76118e-09
1.31324e-08
1.62939e-09
-5.00065e-09
-5.98466e-09
4.93863e-09
-8.71516e-09
5.30333e-09
-1.60396e-08
4.75159e-09
6.14037e-09
1.366e-08
-1.44971e-08
1.87268e-08
-7.64778e-09
-6.85111e-09
-5.12176e-09
1.54391e-08
-3.4662e-09
1.90215e-08
-1.22126e-08
6.40113e-09
-2.96883e-09
-8.55407e-09
-1.92885e-08
1.31931e-08
2.15344e-08
-4.19406e-09
3.92708e-09
-1.46785e-09
5.8391e-09
2.02987e-09
4.19884e-09
1.82079e-09
-7.48748e-09
9.2571e-09
1.4002e-08
-1.01266e-08
9.23268e-09
4.22328e-09
8.32045e-09
2.61548e-09
3.06606e-09
5.48725e-09
1.20659e-08
1.49693e-08
-4.36533e-10
1.18897e-08
5.69515e-09
-3.37121e-09
2.07481e-08
1.5661e-08
-1.73122e-08
-2.15099e-08
2.07726e-08
1.80495e-08
-1.56113e-08
3.11364e-09
-4.81452e-09
3.04921e-08
-1.43738e-08
-3.17296e-08
9.64594e-09
-6.63784e-10
1.24254e-08
-7.06884e-09
-2.24293e-09
1.08908e-09
4.22966e-09
-1.96925e-08
-1.00074e-08
-3.6038e-09
-9.44923e-09
1.18672e-08
-1.13049e-08
1.04392e-08
-6.2031e-09
2.99819e-09
-1.3214e-08
1.95647e-08
8.80823e-10
-1.62158e-08
1.98458e-08
9.36484e-09
-3.16732e-09
4.15726e-09
-2.25336e-08
-5.09819e-09
9.81434e-09
1.78174e-08
1.51864e-08
-1.46304e-08
-2.30896e-08
6.92094e-09
-1.07514e-08
2.60563e-08
8.70045e-09
-1.23303e-08
-6.0265e-09
1.24345e-08
-2.05227e-09
-1.68181e-09
-9.78413e-09
1.039e-08
-1.32927e-08
1.26868e-08
-1.78544e-08
6.00204e-09
2.06827e-09
2.82243e-09
5.69656e-09
4.35942e-09
8.85304e-09
-1.07562e-08
1.82077e-08
1.1552e-08
7.61015e-09
-1.70536e-08
-2.10853e-09
1.30276e-08
-3.52786e-09
5.52487e-09
-5.79001e-09
-1.23353e-08
5.7271e-12
-1.14735e-08
6.71926e-09
3.58599e-09
-8.31113e-09
8.59395e-09
-1.67582e-08
-8.19332e-09
-1.93108e-08
-1.42191e-09
-7.13089e-09
-1.04222e-09
4.80555e-10
-6.85444e-09
7.41609e-09
-2.08872e-10
-6.54778e-09
5.71441e-09
5.76749e-09
-4.14133e-09
-1.04516e-08
8.82536e-09
8.89648e-09
-1.22769e-09
-1.90131e-09
1.63127e-09
3.85142e-09
-5.69163e-09
-6.26811e-09
8.37993e-09
-1.61074e-09
-5.73319e-09
4.89478e-10
-6.29998e-09
-1.85856e-09
-1.87979e-09
5.31184e-09
-9.70019e-09
1.2835e-09
5.11082e-09
-1.40751e-08
4.82288e-09
7.33053e-09
-3.44742e-09
5.83519e-10
1.19443e-09
8.82024e-09
-1.05982e-08
1.61407e-09
9.60612e-09
-1.05896e-08
-1.02727e-09
2.01074e-09
7.74866e-09
-1.47619e-08
2.68148e-09
4.33179e-09
4.80514e-09
-1.32916e-08
1.62351e-08
-1.88919e-08
-1.99722e-08
2.58762e-08
1.29879e-08
7.05118e-09
-2.16746e-08
-4.26849e-09
-2.50089e-08
1.57758e-08
7.65482e-10
8.46754e-09
-6.70258e-10
-2.12347e-08
-3.1039e-09
-9.77016e-09
2.0594e-09
6.32273e-09
-1.14671e-08
7.82583e-09
-1.00668e-08
2.11946e-08
-1.30169e-08
1.73256e-08
-1.95668e-09
-2.08304e-08
-2.27374e-08
1.13096e-08
-8.54442e-09
-1.30278e-08
-3.13841e-08
-1.41508e-09
1.39997e-08
2.23705e-08
-3.43096e-09
-1.96098e-08
1.40485e-08
9.08746e-09
4.70481e-09
5.18966e-09
-1.84808e-08
2.02204e-09
8.68655e-09
4.8999e-09
2.79948e-09
-1.26198e-08
4.92039e-09
2.01594e-09
6.59662e-09
-3.71268e-09
1.07179e-08
-1.23551e-09
-7.46651e-09
7.05969e-09
-1.04751e-08
6.21488e-09
-1.00082e-09
8.59218e-09
-5.31682e-10
7.70252e-09
-2.10672e-09
5.64815e-09
3.63105e-09
-6.87018e-10
4.79758e-09
-2.90935e-09
8.82971e-09
4.14864e-10
-8.08897e-09
1.24717e-08
-5.26395e-09
8.11359e-09
2.7985e-09
-4.70772e-10
3.29404e-09
9.97329e-09
-8.40078e-09
-4.86655e-09
6.42615e-09
-2.88492e-09
-2.47189e-10
-8.82645e-10
8.4526e-09
5.31049e-09
-1.28804e-08
5.80863e-09
3.66551e-09
-1.03568e-08
1.98836e-09
-8.22555e-10
8.80749e-09
9.15947e-10
7.49856e-09
-7.39974e-09
-1.13338e-09
9.44907e-09
-4.28219e-09
-3.64309e-09
5.25544e-10
-1.4518e-08
-2.78151e-09
1.61662e-08
-1.08966e-08
-2.19352e-10
-3.40206e-09
-5.62074e-09
-1.54637e-09
-3.17173e-09
5.79578e-10
1.21727e-08
-6.89187e-09
-2.87344e-09
8.82274e-09
-6.38814e-10
-4.82867e-09
-5.71698e-09
-1.625e-08
1.26459e-08
-4.29661e-09
-2.90613e-10
-1.86625e-09
-4.0917e-09
6.24855e-09
-2.67789e-09
-1.01124e-09
3.3985e-09
-3.40337e-09
-7.55722e-10
4.34245e-09
-1.83373e-10
3.44927e-09
-7.79705e-10
-4.53582e-09
-1.3341e-09
-5.33915e-09
2.58155e-09
-3.97216e-09
-3.98368e-11
-4.05182e-09
-4.87837e-10
-7.995e-10
-2.0234e-09
-1.87574e-09
-7.30226e-11
-2.15349e-09
-4.40538e-09
2.40006e-09
4.1588e-09
-3.72087e-09
-4.56025e-10
5.67701e-09
4.8329e-11
-1.49524e-10
-5.57582e-09
-1.02405e-09
2.44826e-09
4.25279e-09
5.42485e-09
-1.83176e-10
-5.19335e-09
9.97426e-10
5.85783e-10
-3.8386e-10
-3.92279e-09
-4.00277e-09
-3.29781e-09
-2.62976e-09
4.55142e-09
-6.88553e-10
-4.87411e-09
-3.83119e-09
-3.97084e-09
-6.47115e-09
7.08372e-09
3.35825e-09
-7.08814e-09
1.66101e-09
1.45627e-09
-4.06469e-09
4.68372e-09
1.03087e-09
-1.64992e-09
1.24421e-09
-2.23841e-10
-5.08507e-09
-1.14982e-09
-6.3552e-10
-4.68582e-09
-6.99375e-09
2.8e-09
3.5447e-09
3.46231e-09
7.93841e-10
-4.48001e-09
4.45977e-09
3.3399e-11
-4.93301e-09
7.81632e-09
-8.33294e-11
4.86212e-09
-4.70382e-09
5.60719e-11
-1.01423e-10
4.90744e-09
-4.17168e-10
-4.19821e-09
-6.73901e-09
6.68073e-09
4.25648e-09
-6.05533e-09
1.68514e-09
1.71963e-10
-9.98543e-10
3.0917e-10
-6.04964e-09
-8.37882e-10
-6.21599e-09
-1.21642e-09
6.21943e-10
7.27519e-09
-1.35251e-10
6.3259e-09
-5.88149e-09
5.89061e-09
9.64293e-11
-5.98731e-09
2.75625e-13
-5.62738e-09
5.28251e-09
6.23547e-09
-5.66621e-09
5.96977e-09
-5.99331e-09
-8.14349e-10
-1.49228e-09
6.22934e-09
1.94477e-09
-6.68185e-09
4.38198e-09
9.55067e-11
-5.70831e-09
-7.01404e-10
5.19329e-09
3.58801e-10
-3.72716e-10
7.32056e-09
4.30186e-10
5.09775e-09
5.33997e-09
-9.04095e-09
9.5841e-09
-4.85435e-09
4.31118e-09
2.85031e-09
-6.52608e-09
-5.36521e-09
7.64551e-10
2.76754e-09
-6.65273e-09
3.12015e-09
1.23945e-09
-5.69056e-09
5.21561e-09
-6.01113e-09
1.00181e-08
1.04226e-08
-3.26451e-09
-4.3078e-09
1.43161e-08
6.21887e-09
-1.24809e-08
1.40768e-09
-1.83025e-08
1.3364e-08
-1.05366e-08
1.54751e-08
5.81412e-09
-1.53902e-08
-8.72644e-09
-8.08269e-09
8.29043e-09
4.96497e-09
-8.57439e-11
9.34865e-10
1.16762e-08
8.71395e-09
-5.69094e-09
-9.54911e-09
-3.9249e-09
1.57934e-10
8.3577e-09
-1.31714e-09
-2.24308e-08
-5.44345e-09
-8.40946e-09
2.41013e-10
-8.10011e-09
-4.23426e-09
-1.51082e-08
2.4234e-09
7.24199e-09
-8.2553e-09
-1.4101e-09
6.62926e-09
-4.68382e-09
4.77958e-10
-6.52397e-09
6.94799e-09
5.20499e-09
-5.62902e-09
3.1644e-09
-4.74463e-10
4.55205e-09
3.19786e-09
6.59581e-09
1.68776e-09
-6.63407e-09
2.62489e-10
7.91461e-09
3.42951e-09
3.95325e-12
-1.13481e-08
2.44004e-09
-2.78074e-09
-5.21667e-09
3.80453e-10
-3.46452e-10
1.04923e-08
-2.68022e-09
7.12844e-09
-4.79467e-09
-6.82254e-09
1.46534e-09
1.40528e-10
2.76545e-09
-5.97001e-09
-4.70978e-09
8.13293e-09
-9.8312e-10
-1.53513e-09
-2.67666e-09
-5.40061e-09
9.61241e-09
-5.59222e-09
6.88236e-09
4.09655e-09
-1.0975e-08
8.72848e-09
-6.55591e-09
3.35845e-09
4.30001e-09
2.08362e-09
-6.63733e-10
7.36468e-09
8.04291e-09
6.21103e-10
8.40636e-09
-1.47796e-08
-6.94447e-09
-2.07192e-08
2.94736e-08
-3.12635e-08
-6.31933e-09
3.06383e-08
-7.34094e-09
-2.18954e-08
-2.02713e-09
-1.60019e-08
1.03037e-08
-2.13776e-08
-6.14547e-09
6.80386e-09
-2.01381e-08
-8.58046e-09
-2.0495e-08
2.95912e-09
-3.29038e-09
1.29659e-09
-1.85012e-08
-1.85693e-09
-2.05606e-08
8.16713e-10
-1.86656e-08
1.5992e-08
-1.78149e-08
-2.00824e-08
-6.76074e-10
-1.81655e-08
-1.76743e-08
2.69875e-09
1.75064e-08
-4.92005e-09
-1.52851e-08
1.75887e-08
-2.59011e-09
-1.22999e-08
4.74444e-09
1.54911e-08
-2.72918e-09
1.90761e-08
3.25701e-09
3.32122e-09
1.86788e-09
-1.31254e-08
7.93628e-09
5.43074e-09
-1.01976e-08
8.08805e-09
1.38533e-08
-1.10127e-08
2.91077e-09
3.19501e-09
9.38528e-09
6.58359e-09
1.54033e-08
4.10288e-09
3.04031e-09
-1.8839e-08
1.16958e-08
1.00614e-08
-1.31136e-08
1.30824e-08
4.87377e-09
1.6572e-08
3.094e-09
-8.40925e-09
1.46747e-08
-1.31371e-08
6.87162e-09
-5.12591e-10
2.1385e-09
-1.00352e-08
-7.89288e-09
8.04901e-09
3.03885e-09
1.65591e-09
8.26719e-09
1.48978e-08
-3.56431e-09
-1.96007e-08
8.20482e-10
1.67554e-08
-9.30868e-09
-5.22368e-09
-1.04028e-08
2.46142e-09
1.31651e-08
1.38303e-08
-1.47974e-08
-4.25658e-09
1.73735e-08
2.26331e-09
-4.73895e-09
5.22556e-09
8.30765e-09
-1.70975e-08
1.02995e-08
-4.2535e-09
-1.02941e-08
1.22844e-08
1.18401e-08
6.85069e-09
-1.13485e-08
6.93549e-10
5.659e-09
1.10303e-08
7.03675e-09
5.18439e-09
-1.36744e-08
1.38487e-08
-5.35872e-09
1.28573e-08
-7.96594e-09
2.93044e-10
-9.44224e-09
-1.96885e-09
1.01076e-08
-1.12422e-08
-3.19351e-09
-2.49945e-10
-1.45914e-08
2.49763e-08
2.47235e-09
1.02877e-08
-1.05189e-09
2.16201e-09
5.15947e-09
-4.3362e-09
-2.98526e-09
3.62815e-09
-1.36561e-09
-1.00517e-10
5.42759e-09
6.96025e-10
-9.64136e-10
4.93547e-09
4.12029e-09
-9.55919e-09
1.13686e-09
1.6241e-09
6.79825e-09
-6.37521e-09
-2.48795e-09
6.9895e-10
1.01974e-09
-6.05488e-09
2.5699e-10
5.81535e-09
3.35536e-09
1.09289e-09
-3.74928e-09
2.09142e-09
-1.01665e-10
2.99403e-09
-8.34949e-09
1.66923e-09
-3.60819e-09
3.81721e-09
-1.87823e-09
3.73603e-09
2.46332e-11
-2.74713e-10
-2.24057e-09
-5.01108e-09
1.23532e-09
5.39988e-09
-2.29177e-09
1.03542e-09
4.01713e-09
5.02844e-09
6.53428e-09
-8.95339e-09
1.51073e-09
9.08397e-10
-7.9574e-09
7.87814e-09
6.61354e-09
5.27464e-09
-7.03406e-09
-7.19396e-09
-1.93009e-09
-7.52675e-10
5.79681e-09
-7.0498e-09
-6.77106e-10
-8.68678e-09
-9.68066e-09
1.88771e-08
-5.09668e-10
-9.47581e-09
2.29976e-09
1.17697e-08
1.37427e-08
-4.46287e-09
-2.10496e-08
2.80207e-09
6.9364e-09
2.03126e-09
7.06898e-09
-5.57294e-09
4.12603e-09
7.24373e-09
3.8329e-09
-1.53298e-08
6.56853e-09
-9.78542e-09
-3.38308e-09
-2.3875e-09
7.3333e-09
1.32646e-09
-5.82014e-09
-2.83961e-09
-6.28806e-09
6.29459e-09
2.71195e-09
2.88403e-09
1.86339e-09
-7.45936e-09
3.87326e-09
2.25503e-09
-3.41634e-09
6.662e-09
5.5166e-09
-9.29457e-09
9.18927e-10
6.37901e-09
-6.35919e-10
-4.91073e-09
-3.06239e-09
-6.25124e-09
-1.14349e-11
-2.53915e-11
-4.24361e-09
-7.82777e-09
4.80401e-09
-1.18143e-11
7.64285e-10
-3.14452e-09
4.28993e-09
-1.27062e-09
-4.19157e-09
9.24312e-10
3.69814e-10
2.36065e-10
4.8845e-10
2.88121e-09
-2.78285e-09
-1.86651e-09
1.87316e-10
9.18811e-11
-6.49083e-09
-1.34945e-09
9.58146e-09
-1.74119e-09
-1.43455e-09
1.76996e-10
-5.23328e-09
7.98289e-09
-2.10513e-09
-7.31232e-09
9.37351e-09
-2.74007e-09
8.77611e-09
-7.29531e-09
2.11046e-10
-1.69185e-09
7.52954e-10
5.36258e-09
2.66058e-09
8.96523e-10
3.62127e-09
5.06367e-09
8.2656e-09
-5.62682e-09
-9.93409e-09
3.45345e-09
5.5651e-09
6.24891e-09
4.02112e-09
3.1102e-09
-1.92257e-09
4.17495e-09
6.16364e-09
-9.28327e-10
-5.05833e-09
-4.10198e-09
3.96898e-09
3.75425e-09
2.08405e-09
-2.23897e-11
6.21925e-10
-8.35388e-09
-1.11924e-09
7.51893e-09
-3.28948e-09
-5.51319e-09
-5.63864e-10
2.28806e-09
3.78898e-09
-3.56243e-09
1.33285e-10
5.86684e-09
-5.33158e-09
-3.24214e-10
3.38041e-09
5.43235e-09
-5.73876e-09
5.1378e-09
-3.46166e-09
4.09339e-09
3.11012e-09
-4.77788e-09
-2.42563e-09
4.19226e-09
-1.67476e-10
6.86016e-11
-4.04706e-09
4.67183e-09
3.56749e-09
-1.07234e-09
1.35391e-10
1.99427e-10
2.80645e-10
-5.25796e-09
5.59544e-09
-1.064e-09
-6.22329e-09
5.28057e-09
2.97545e-09
-4.45557e-09
4.67473e-09
-3.8664e-10
-5.32014e-09
6.25448e-10
-1.33473e-09
5.98985e-09
-6.54999e-10
5.45539e-09
-8.73228e-10
4.21323e-09
4.15108e-09
-4.19466e-09
2.92248e-09
1.5626e-10
2.58522e-10
3.54007e-09
3.92868e-09
2.3742e-09
3.5322e-09
-1.03527e-08
2.10279e-09
4.29638e-09
3.95356e-09
1.84212e-09
-7.04624e-09
-5.14857e-09
-6.80044e-09
4.2837e-09
4.61955e-09
-2.29724e-09
-2.66109e-09
5.30836e-09
6.56053e-09
-7.5725e-09
3.5799e-09
-3.59691e-09
4.30071e-09
-2.18187e-09
1.10701e-08
1.42565e-09
-7.35959e-09
2.96508e-09
1.48427e-08
-5.07106e-09
1.17628e-08
2.83218e-08
-1.04304e-08
1.76241e-09
-4.41542e-09
3.38924e-09
-1.27107e-09
5.11156e-09
-8.10135e-09
-1.00631e-08
3.02192e-09
-8.41771e-09
-2.56864e-09
-9.76303e-09
1.10644e-08
1.26729e-09
-7.62455e-09
6.86797e-09
-1.81206e-09
-1.59226e-09
5.64852e-09
-4.07402e-10
-2.3338e-09
2.64627e-09
-6.08298e-11
2.4602e-09
2.32673e-10
-3.9431e-09
4.54177e-10
-3.2779e-10
2.1029e-09
-2.89374e-09
3.33017e-09
-2.53933e-09
2.80525e-09
-2.48172e-10
-1.23888e-10
-7.6803e-09
-1.65384e-09
-6.0946e-09
1.06556e-09
1.03257e-09
4.76985e-09
2.61721e-09
9.51275e-09
7.56399e-09
-4.3149e-09
2.66126e-09
1.70148e-09
3.677e-09
1.7895e-09
1.43357e-09
-4.02837e-09
2.32387e-09
2.70899e-10
9.07044e-09
4.33602e-09
-1.34195e-08
1.30373e-11
1.45652e-09
-4.18233e-09
1.17963e-08
6.19244e-09
4.30298e-09
-6.72733e-09
-3.76812e-09
9.31685e-09
-3.4152e-09
2.90799e-10
1.34969e-08
-1.34788e-08
4.31792e-09
-4.60477e-09
1.95582e-08
-1.43445e-09
-1.17305e-08
-2.54497e-10
2.10392e-09
8.08192e-10
1.39081e-09
5.09852e-09
6.32226e-09
9.58002e-09
-1.00036e-08
-2.99162e-09
-7.55758e-09
8.47378e-09
5.87999e-10
8.69451e-09
-1.27659e-08
-9.40744e-09
-4.07173e-09
1.07201e-09
-8.73084e-09
-3.36611e-09
-1.07092e-08
1.49673e-09
-1.15902e-08
-1.67288e-08
-4.59933e-09
1.67234e-08
-6.9972e-09
-1.03708e-09
-4.19646e-09
-7.49742e-09
4.98709e-09
-6.63944e-09
-5.34485e-09
1.19594e-09
-9.33918e-09
-9.19924e-09
3.85034e-09
5.33989e-10
4.81492e-09
-8.59752e-10
-7.50168e-09
-8.37808e-10
-8.98372e-09
-7.34035e-09
7.17688e-09
9.14718e-09
1.80627e-09
-8.64081e-09
-2.14919e-09
-7.51214e-09
2.61145e-09
8.75103e-09
-5.17255e-09
-5.33316e-10
-4.92307e-09
-1.10923e-09
5.82177e-10
-5.853e-10
-6.82664e-09
-5.39197e-11
-4.59794e-10
-4.9591e-09
-1.05083e-08
-2.89068e-09
1.2679e-08
8.84485e-09
-9.15661e-11
-8.17111e-09
4.36507e-09
5.01378e-09
-3.54406e-10
-5.15397e-09
6.86127e-09
-7.14266e-09
2.27475e-10
8.33566e-09
-5.54714e-10
-6.67952e-09
-5.86822e-09
-2.65612e-09
-1.42667e-08
1.49008e-08
2.02206e-09
-1.19817e-08
9.66729e-09
-3.41728e-10
-7.2694e-09
4.63386e-09
-1.16312e-08
-2.59961e-09
-1.66515e-08
1.11775e-08
-2.61922e-09
1.10898e-09
5.31894e-09
3.95807e-09
-1.18766e-08
8.75469e-09
2.75588e-09
3.3902e-09
1.24348e-08
-9.57919e-09
7.70313e-09
-7.43194e-10
6.86503e-09
-1.11253e-08
1.25629e-09
6.22239e-09
-3.5206e-09
1.04227e-08
-4.53255e-09
1.17609e-08
-2.02146e-09
6.8328e-10
5.78593e-09
-3.30255e-09
1.6665e-09
5.38881e-09
-1.82634e-09
-6.51518e-09
3.13811e-10
-1.10239e-09
5.30331e-09
-9.41349e-11
9.76333e-09
-4.54477e-09
-5.12443e-09
-3.3465e-09
7.67865e-09
-4.42628e-09
3.45572e-09
-3.96669e-09
-2.83554e-09
5.81554e-09
2.94596e-09
1.00183e-09
5.84795e-09
7.64625e-09
-2.5102e-10
2.10846e-09
3.99051e-09
-4.28167e-09
6.39861e-10
3.3908e-09
-5.05993e-09
5.11926e-09
6.89299e-10
-7.48627e-10
4.52565e-09
-6.40992e-09
-3.17566e-09
1.64051e-09
3.69379e-09
-8.0866e-10
5.39319e-09
1.36658e-09
-1.36649e-10
3.52172e-09
7.13984e-10
-5.41906e-10
6.33294e-09
2.58197e-09
3.09605e-09
3.84811e-09
-3.99819e-09
-5.23338e-09
4.45749e-09
2.59668e-09
3.87808e-09
6.24772e-09
1.09536e-09
-1.12212e-08
-2.42156e-10
-7.81797e-09
1.19382e-08
-2.50537e-09
-4.9592e-09
2.33513e-09
5.12944e-09
-6.28248e-09
-8.15848e-09
4.91827e-11
7.49691e-10
-2.95153e-09
4.35243e-09
4.84681e-09
3.42286e-09
4.70418e-09
-7.03169e-09
-4.97777e-09
-5.77468e-09
8.64658e-10
-1.97717e-09
9.06651e-10
-4.27838e-09
9.65241e-09
-2.63932e-09
-2.73471e-09
1.2454e-08
-5.53181e-09
-1.12005e-08
1.1022e-08
4.05563e-09
-2.6236e-09
-4.94615e-09
4.2304e-09
1.17377e-08
5.68639e-10
4.13762e-09
1.13071e-09
-4.14314e-09
-4.16133e-09
7.17376e-09
-6.31864e-09
1.16797e-08
4.20583e-09
-1.17132e-08
1.97559e-09
7.51063e-09
-4.06985e-09
6.14851e-10
-7.82027e-09
4.24576e-09
-3.35958e-09
-7.11986e-09
-4.01043e-10
4.15051e-09
-4.01452e-09
-6.58113e-09
9.25442e-09
-1.04936e-08
9.14199e-10
-2.37428e-09
-5.12104e-09
-2.05516e-09
1.20188e-08
5.00599e-09
-4.10125e-09
-1.29235e-08
6.37525e-09
2.24903e-09
3.39449e-09
1.89385e-08
-4.29062e-10
-1.35035e-08
1.14451e-08
1.38687e-08
-6.18568e-09
-1.65915e-08
2.23482e-08
9.66007e-09
-1.48605e-09
-1.22753e-08
1.04172e-08
-4.04499e-10
-3.52622e-10
8.93356e-09
3.73266e-09
-1.43922e-09
2.10049e-08
-8.12059e-09
2.22748e-08
-5.0701e-09
-2.33904e-08
1.8492e-09
1.31498e-08
7.27585e-09
-1.61799e-08
1.70147e-08
-1.23935e-09
-2.2736e-08
-6.98418e-09
1.44785e-08
1.18797e-08
-2.82446e-08
1.36391e-08
1.89003e-08
-4.29476e-09
8.36453e-09
-9.54436e-09
-2.70648e-08
2.61767e-08
-1.54573e-08
-2.35481e-09
1.74769e-08
6.08894e-10
8.09089e-09
2.34372e-08
1.85241e-08
-3.57707e-09
-2.03344e-08
5.38739e-09
-6.80932e-09
8.57516e-09
1.62952e-08
-2.29204e-08
3.04819e-09
-1.55097e-08
1.63476e-08
8.37943e-09
-2.48741e-08
-3.96441e-09
1.52583e-08
-2.60361e-09
-6.88622e-09
1.36456e-08
3.87404e-09
1.74604e-09
1.72799e-08
-1.21349e-08
-6.28022e-09
1.13521e-09
1.48345e-08
1.49141e-08
-1.24687e-08
2.33325e-09
2.07318e-09
-1.57855e-08
1.13791e-08
2.51862e-09
1.2582e-08
-1.27673e-08
-1.16135e-08
1.03627e-08
-1.08842e-08
-1.62326e-09
2.06148e-08
-4.15707e-09
-1.50459e-08
1.75915e-09
1.08602e-08
2.42648e-09
-3.40913e-09
1.14923e-08
-5.56451e-09
-1.29494e-08
-1.00294e-08
1.02721e-08
-1.52886e-08
1.40256e-08
-1.707e-08
1.56264e-08
-1.07428e-08
1.08787e-08
1.06286e-08
-1.29865e-08
1.38502e-08
3.78246e-09
2.13705e-10
-1.39317e-08
1.3086e-08
-9.89714e-09
4.79375e-10
1.60581e-09
-2.16019e-08
5.71617e-09
1.428e-08
-2.10758e-08
6.16067e-09
1.6521e-08
2.01491e-08
-2.09052e-08
-2.03198e-08
1.68236e-08
-6.11679e-10
-1.29778e-09
1.58365e-08
9.77731e-10
-1.08663e-08
1.56047e-08
-1.06821e-08
1.78204e-08
1.70304e-08
5.09129e-09
-9.27057e-10
2.13741e-08
-2.00738e-08
-1.91196e-09
-7.13824e-09
1.7646e-08
-1.0686e-08
-5.33584e-09
-4.05198e-09
-1.26344e-08
-6.03e-09
1.23783e-08
2.29189e-08
-1.20196e-08
9.75061e-09
-2.26926e-08
4.42396e-09
1.78321e-08
-1.63222e-08
3.00936e-09
-1.61677e-08
-6.74012e-09
1.98984e-08
-1.76981e-08
2.46345e-08
-3.85339e-09
7.603e-09
-2.14477e-08
-2.38352e-08
3.81416e-09
-2.04132e-09
7.59389e-09
4.80829e-09
-2.13467e-08
2.26168e-08
-2.66473e-08
8.83874e-09
2.47827e-09
7.92599e-09
-2.22928e-08
1.99767e-08
-2.57645e-09
-1.63009e-08
-4.9579e-09
-1.72754e-08
4.40879e-10
2.33111e-09
-4.82393e-09
2.05217e-09
1.67509e-09
-2.94352e-09
1.70939e-09
-1.59826e-09
-5.59227e-10
3.83269e-09
3.44813e-09
-2.7152e-09
-2.14821e-09
-7.06236e-10
-8.89382e-11
-4.56004e-10
1.2663e-09
1.86652e-09
9.30648e-10
2.35397e-09
7.56295e-10
2.49777e-10
3.06107e-09
-1.09612e-08
1.3053e-08
3.03722e-09
-5.12906e-09
7.51529e-10
-9.89211e-09
1.00847e-08
-9.44167e-10
1.66726e-08
-4.07339e-10
-1.55137e-08
1.09178e-08
-5.30672e-09
-1.49861e-08
9.37507e-09
1.56817e-09
-1.61157e-09
1.56043e-09
-1.39919e-08
7.12473e-09
-1.05933e-09
-7.26461e-09
8.52895e-09
8.21519e-09
-3.69109e-09
2.52098e-08
-1.50249e-08
-8.42822e-09
-1.75662e-09
1.54931e-08
1.58882e-08
-6.17153e-09
-1.3301e-08
1.5769e-08
-9.36209e-09
6.89404e-09
-2.2046e-08
1.03055e-08
8.79479e-09
4.57188e-09
3.30594e-09
9.26984e-09
9.6097e-09
-1.05241e-09
8.0668e-10
8.77468e-09
1.14511e-08
2.46474e-08
-2.06054e-08
1.54891e-08
-2.11747e-10
4.91703e-10
7.40019e-10
7.47741e-09
-1.62656e-09
1.38844e-08
1.31921e-08
6.86892e-09
1.23055e-08
2.23823e-09
-4.02487e-09
4.88104e-09
-3.09441e-09
-1.49388e-09
3.7131e-09
1.89999e-11
1.03456e-09
1.71077e-09
-6.7702e-09
1.59877e-09
-2.05809e-09
4.5707e-09
-1.88307e-10
4.98653e-10
-2.06082e-09
-1.9572e-09
9.52204e-11
-1.65719e-09
2.39669e-09
-4.90813e-12
6.76563e-09
1.44703e-09
-6.50189e-09
1.0015e-09
3.24784e-09
8.04614e-10
-2.4537e-09
3.56607e-09
-2.27543e-09
-6.31289e-10
1.94587e-10
5.0362e-09
-2.78456e-09
-7.88444e-10
-1.36745e-08
-2.53369e-09
1.05515e-08
5.65661e-09
3.05007e-09
-8.14984e-09
-1.80792e-09
6.90762e-09
-1.11478e-08
5.23353e-10
-6.88259e-09
2.0007e-09
-6.26593e-09
-3.97642e-09
-2.35614e-09
-1.81736e-09
-4.67944e-09
-6.17954e-09
1.32266e-08
-6.51175e-09
-4.71413e-09
-1.80964e-09
3.62041e-09
-4.16688e-09
2.32171e-09
8.26097e-09
2.43188e-09
5.14539e-09
-9.33543e-09
2.82031e-09
-1.49149e-08
1.724e-08
-6.37605e-09
-6.83788e-09
1.59021e-09
1.16237e-08
-7.82077e-09
-1.70498e-09
3.1497e-09
-3.83662e-09
2.41505e-09
-5.41624e-09
-8.03697e-09
-1.43917e-08
1.75114e-08
-5.62823e-09
2.50859e-09
-9.15638e-09
-2.35583e-08
-2.57199e-09
1.34019e-08
1.27284e-08
8.88861e-09
-1.51415e-08
-1.73054e-08
-2.13283e-08
8.14479e-09
1.06115e-08
-1.60657e-08
-8.77163e-09
3.50908e-09
-1.72569e-08
6.73224e-09
2.39266e-08
-3.17863e-09
-8.07176e-09
-2.31355e-08
7.80999e-09
1.58208e-08
-1.5486e-08
-1.24553e-08
1.44354e-08
4.47205e-09
-3.93942e-09
-6.6801e-09
2.12223e-08
-1.44034e-08
2.21586e-08
-7.76998e-09
-2.16135e-09
1.12655e-08
-2.78817e-08
1.83026e-08
-1.92835e-08
1.22463e-08
4.09448e-09
6.43811e-09
2.75133e-09
-2.48584e-10
-9.18225e-09
3.38771e-09
1.98145e-08
4.78584e-10
-4.73185e-09
-1.55612e-08
7.31137e-09
3.57113e-09
8.932e-09
-1.56131e-08
9.2015e-09
1.3723e-08
1.5418e-08
-1.15517e-08
8.23944e-09
1.07497e-08
1.40963e-08
-3.31965e-09
-1.55085e-08
5.69605e-10
-2.08637e-09
6.63779e-09
6.61543e-09
-8.79035e-09
1.02276e-08
-8.67618e-10
-1.23586e-08
-1.74764e-09
1.67211e-08
-1.01862e-08
1.76401e-08
2.68857e-10
2.98799e-09
-3.46533e-09
-1.03729e-08
1.08502e-08
-3.08469e-09
-6.54711e-09
-5.65623e-09
-1.60145e-09
-3.95989e-09
-9.35529e-10
-1.33709e-08
8.65016e-09
-4.83385e-09
-7.74308e-09
9.49224e-09
-1.28994e-09
-1.15468e-08
8.00287e-09
-1.18373e-08
7.08205e-09
5.90469e-09
7.1304e-09
-1.39706e-08
9.52495e-09
-5.22171e-09
-2.12276e-09
4.14309e-09
-1.43815e-08
1.40828e-08
2.24336e-10
-5.07379e-09
-9.53204e-09
-5.95679e-09
1.11401e-08
4.34164e-09
5.30579e-09
-1.00913e-08
-1.17124e-09
1.27425e-09
5.60068e-09
-1.16238e-08
-5.81417e-09
-6.40325e-10
7.1242e-09
-1.00852e-08
-4.2753e-09
1.81086e-08
-9.58219e-09
2.57039e-09
-1.10968e-08
1.22007e-08
1.01279e-08
-4.21992e-09
-8.83056e-09
-2.48123e-08
2.40607e-08
1.9894e-08
-8.98721e-09
-8.3364e-09
8.61945e-09
2.34752e-08
9.08629e-09
-1.7986e-09
-2.33959e-08
1.61082e-08
-8.53504e-11
2.61115e-08
-1.69398e-08
-7.62796e-09
2.28976e-08
-1.82571e-08
1.95299e-08
2.08522e-08
-1.42706e-08
-7.5828e-09
-7.38395e-09
2.35862e-08
-8.45193e-09
1.14626e-08
-1.05935e-08
-1.00071e-08
2.21531e-08
4.43855e-09
-5.44001e-09
-2.7111e-09
-2.06731e-09
1.25565e-08
-4.28186e-09
-1.37146e-08
-1.06779e-08
-7.58548e-09
-2.88837e-09
-1.17585e-08
4.30801e-09
1.13229e-08
-1.99128e-08
8.58974e-09
-6.99284e-09
1.20261e-08
-8.28859e-09
-1.26731e-08
1.2125e-08
8.20217e-10
-2.4669e-09
-6.41405e-09
6.06143e-10
4.62604e-09
1.18187e-09
1.45228e-09
-4.35918e-09
-3.50715e-09
-5.13694e-10
4.8202e-09
-4.83909e-09
5.32598e-10
-4.82077e-09
4.10548e-09
2.01594e-10
4.12383e-09
-6.44676e-10
-2.02688e-09
-7.15253e-10
1.8314e-11
1.03996e-09
1.0628e-10
2.95925e-09
1.66376e-09
4.19641e-09
8.48528e-09
-1.19273e-08
5.20446e-09
-5.26507e-09
5.92179e-09
7.82855e-09
-6.51621e-09
-2.3892e-09
-3.22444e-09
7.84917e-09
-1.1141e-08
4.05739e-09
1.62094e-09
-5.07219e-09
2.44084e-09
-6.71173e-09
1.04644e-09
4.44989e-09
-5.391e-10
3.32954e-09
1.22663e-09
3.07611e-09
6.18574e-09
3.66345e-09
-1.07935e-09
5.46553e-09
-3.66936e-09
1.5748e-09
-9.48356e-10
-5.91282e-09
5.55258e-09
2.024e-09
-6.74567e-10
4.68519e-09
3.51187e-09
-2.97971e-09
-5.21736e-09
4.40235e-09
1.62483e-10
1.20351e-10
4.84478e-09
5.13272e-09
-2.75216e-09
-7.22535e-09
-1.91443e-10
5.23725e-09
-2.01043e-10
4.20181e-09
-8.81392e-10
-6.68142e-09
4.70285e-09
7.21581e-09
8.73417e-10
-2.42212e-09
3.12937e-09
-8.86125e-09
-1.22359e-09
3.98305e-09
1.44234e-09
3.19377e-09
-1.50195e-11
-3.43737e-09
2.65719e-10
5.14271e-09
-1.97105e-09
-3.21433e-09
3.27622e-10
-5.50674e-10
3.74995e-09
-4.8877e-09
1.41944e-10
9.95795e-10
-1.40619e-09
5.42186e-09
-3.23259e-09
-7.81705e-10
4.46318e-09
-4.56639e-09
4.93613e-09
-3.10465e-10
5.1371e-10
1.88266e-09
1.58668e-09
1.86375e-09
3.81036e-09
1.39682e-08
-8.53621e-09
-1.24171e-09
-4.19029e-09
-1.38222e-08
1.14172e-08
1.63732e-08
-1.31798e-08
-3.36734e-10
-3.05657e-10
-7.53993e-09
-1.4176e-08
2.92803e-09
-9.19572e-09
6.30027e-09
-3.25546e-11
3.22332e-10
1.40229e-08
-4.30458e-10
-1.22323e-08
5.1228e-09
4.58093e-09
6.15646e-09
-1.11678e-08
4.28683e-09
5.99602e-09
-5.70191e-09
-6.22435e-09
-4.21307e-09
7.3995e-09
8.90311e-10
-8.62653e-09
1.08302e-08
-3.1084e-09
6.53731e-09
-1.9074e-09
-3.43085e-10
8.07751e-10
-7.30939e-09
-1.23474e-09
7.73639e-09
-3.55865e-10
7.70094e-09
5.99383e-10
-6.67275e-10
-1.49587e-08
2.18138e-09
1.30437e-08
-2.66437e-10
-2.88789e-09
-1.25599e-08
4.89074e-10
-8.94324e-09
-1.81591e-08
3.88658e-09
2.32157e-08
-4.36485e-09
-1.38286e-08
9.25014e-09
6.87162e-10
-2.04627e-08
8.05316e-10
1.89703e-08
-1.48726e-08
1.53464e-08
2.13381e-10
1.30091e-08
-2.20218e-09
-1.36948e-08
1.45976e-08
-1.86413e-09
2.75569e-10
-2.61019e-09
-2.06936e-08
2.84108e-09
4.49617e-10
-1.79324e-08
1.46823e-08
2.09668e-09
1.22673e-08
4.95898e-09
-4.18258e-09
-3.81419e-09
5.88387e-09
6.50329e-09
2.98557e-09
-5.79822e-09
-8.73228e-09
-2.1107e-09
2.30889e-08
-1.33184e-08
9.81389e-09
-1.15665e-08
-7.82524e-10
8.20349e-10
4.56704e-09
-5.69785e-09
3.10461e-10
4.38443e-09
-4.7233e-09
1.15921e-09
-1.44e-09
8.90054e-09
7.42775e-09
-3.55367e-09
4.51307e-10
-3.12292e-09
2.04462e-09
-5.22346e-09
-1.45313e-09
-1.85939e-09
-6.02515e-09
-6.31352e-09
3.18306e-09
-2.30615e-09
-3.16027e-09
-5.86276e-09
-3.97435e-09
1.01111e-10
-4.2581e-09
-3.62479e-09
-7.6075e-09
-8.84376e-09
-3.99181e-09
-4.97475e-09
-4.96529e-09
7.0472e-09
-2.3689e-09
-8.30308e-09
3.02547e-09
8.12578e-11
4.16709e-09
-8.26928e-09
-4.74156e-09
4.1968e-10
-2.52056e-09
-1.35972e-08
1.1143e-08
-1.31587e-08
3.66369e-10
-1.20308e-10
2.39419e-09
3.26625e-09
-4.06229e-11
-6.65461e-10
1.32124e-10
2.92504e-09