/*--------------------------------*- C++ -*----------------------------------*\
| =========                 |                                                 |
| \\      /  F ield         | OpenFOAM: The Open Source CFD Toolbox           |
|  \\    /   O peration     | Version:  v1612+                                |
|   \\  /    A nd           | Web:      www.OpenFOAM.com                      |
|    \\/     M anipulation  |                                                 |
\*---------------------------------------------------------------------------*/
FoamFile
{
    version     2.0;
    format      ascii;
    class       volVectorField;
    location    "200";
    object      U;
}
// * * * * * * * * * * * * * * * * * * * * * * * * * * * * * * * * * * * * * //

dimensions      [0 1 -1 0 0 0 0];

internalField   nonuniform List<vector> 
16938
(
(0.101885 0.364458 -0.231845)
(-0.151766 0.219893 -0.518854)
(0.0861201 0.558059 -1.01888)
(-0.235929 0.618974 -0.924004)
(-0.229629 0.627474 -0.919112)
(-0.244984 0.598251 -0.923212)
(-0.248014 0.592908 -0.905975)
(-0.208425 0.639228 -0.933724)
(-0.236574 0.648351 -0.975309)
(-0.231961 0.684791 -1.00629)
(-0.246784 0.63565 -0.977968)
(-0.244231 0.540824 -0.861527)
(-0.274593 0.588664 -0.910779)
(-0.255392 0.550537 -0.881395)
(-0.273569 0.571624 -0.891424)
(-0.279121 0.605756 -0.95043)
(-0.258496 0.535798 -0.846309)
(-0.264745 0.546499 -0.86546)
(0.0660893 0.545899 -1.12354)
(0.0732748 0.534186 -1.09412)
(0.0555432 0.54206 -1.09448)
(0.0286329 0.539463 -1.04559)
(0.00131724 0.593834 -1.10772)
(0.00177951 0.582791 -1.08934)
(0.00442816 0.569771 -1.03193)
(0.0510006 0.549862 -1.1177)
(0.0484083 0.547166 -1.12568)
(0.00697379 0.560432 -1.11841)
(0.0271286 0.552352 -1.11702)
(0.0428411 0.549897 -1.12059)
(0.0238637 0.564623 -1.11275)
(0.0255964 0.571661 -1.08148)
(0.0245208 0.582128 -1.10123)
(0.000990019 0.583647 -1.12772)
(-0.00627293 0.568174 -1.11792)
(0.0221805 0.562849 -1.10596)
(-0.0547364 0.282292 -0.335681)
(-0.07131 0.276072 -0.355275)
(-0.0723472 0.27676 -0.354975)
(-0.0768668 0.27015 -0.365045)
(-0.0703219 0.2824 -0.342772)
(-0.067557 0.276928 -0.312168)
(-0.0820635 0.295952 -0.316026)
(-0.0749847 0.331657 -0.310763)
(-0.0851025 0.331308 -0.291225)
(-0.0570058 0.281786 -0.283981)
(-0.0584172 0.281477 -0.232987)
(-0.0736891 0.290501 -0.286418)
(-0.0663221 0.364917 -0.275712)
(-0.0809111 0.340096 -0.257243)
(-0.0652712 0.310855 -0.293286)
(-0.07732 0.305847 -0.227925)
(-0.063602 0.298599 -0.236019)
(-0.0740609 0.4108 -0.625979)
(-0.0858804 0.405105 -0.59772)
(-0.0472885 0.412998 -0.655824)
(-0.0597591 0.415921 -0.650428)
(-0.136708 0.325905 -0.480161)
(-0.167058 0.275917 -0.389122)
(-0.0807407 0.416844 -0.647961)
(-0.196207 0.293252 -0.390002)
(-0.157411 0.353748 -0.471405)
(-0.113561 0.386651 -0.572419)
(-0.113961 0.390125 -0.553001)
(-0.163617 0.346632 -0.446844)
(-0.169327 0.322087 -0.400578)
(-0.176698 0.309011 -0.420954)
(-0.192905 0.323904 -0.423772)
(-0.134477 0.34915 -0.51511)
(-0.175761 0.334002 -0.432779)
(-0.192353 0.278864 -0.349125)
(0.0823591 0.287619 -0.622526)
(0.0958906 0.290472 -0.662157)
(0.0689338 0.305502 -0.707422)
(0.0917342 0.328382 -0.819136)
(0.132184 0.309979 -0.754373)
(0.129532 0.384178 -0.88324)
(0.0981506 0.316573 -0.715973)
(0.121419 0.368967 -0.865385)
(0.132076 0.344907 -0.792086)
(0.12854 0.356145 -0.831513)
(-0.00812086 0.61098 -0.490791)
(0.0252291 0.582112 -0.508097)
(0.00952103 0.551307 -0.541397)
(0.00734531 0.571707 -0.51486)
(0.0714712 0.655895 -0.48693)
(0.0412443 0.660339 -0.475641)
(0.00914958 0.600531 -0.525866)
(0.0830741 0.650351 -0.541354)
(0.073947 0.645168 -0.513074)
(0.0698651 0.647881 -0.483488)
(0.0560827 0.62979 -0.453985)
(0.0522127 0.625819 -0.586748)
(0.0652617 0.640628 -0.561813)
(0.0292514 0.62026 -0.558719)
(0.0329342 0.590887 -0.564032)
(0.0285927 0.64524 -0.494471)
(0.056259 0.626065 -0.458389)
(0.0474839 0.655807 -0.563296)
(0.0479606 0.644813 -0.498193)
(-0.142877 0.477256 -0.824759)
(-0.145587 0.398848 -0.728434)
(-0.127409 0.41759 -0.758036)
(-0.14384 0.462783 -0.809751)
(-0.144711 0.382278 -0.723852)
(-0.15044 0.532601 -0.868562)
(-0.0991691 0.609517 -0.969649)
(-0.10952 0.590568 -0.955496)
(-0.115644 0.448501 -0.820145)
(-0.140156 0.500709 -0.841742)
(-0.135638 0.469352 -0.812847)
(-0.16529 0.40073 -0.72458)
(-0.0856312 0.554632 -0.919782)
(-0.101311 0.542139 -0.889577)
(-0.106298 0.500738 -0.844168)
(-0.133858 0.411406 -0.751311)
(-0.110195 0.529884 -0.86975)
(-0.135881 0.418197 -0.754243)
(0.0502998 0.544059 -1.02339)
(0.0648447 0.545383 -1.02073)
(0.100756 0.523249 -1.00312)
(0.0729024 0.513347 -0.998193)
(0.0535859 0.567233 -1.05425)
(0.0567114 0.570458 -1.0461)
(0.135873 0.541528 -1.02207)
(0.135138 0.558176 -1.0357)
(0.0802498 0.513856 -1.00647)
(0.113146 0.590885 -1.05827)
(0.136328 0.564054 -1.04846)
(0.139305 0.561213 -1.0369)
(0.138139 0.566888 -1.06014)
(0.074899 0.538185 -1.05155)
(-0.14991 0.383923 -0.668747)
(-0.160955 0.381843 -0.712648)
(-0.144916 0.405945 -0.703988)
(-0.126257 0.482809 -0.810708)
(-0.137264 0.465128 -0.801028)
(-0.153456 0.406047 -0.568327)
(-0.117844 0.503462 -0.785256)
(-0.149092 0.410877 -0.616196)
(-0.140623 0.488501 -0.767498)
(-0.152141 0.516848 -0.843605)
(-0.167034 0.385739 -0.552012)
(-0.150676 0.362631 -0.565986)
(-0.152543 0.371112 -0.639832)
(-0.160704 0.371567 -0.614443)
(-0.160882 0.367699 -0.648224)
(-0.169387 0.344518 -0.641202)
(-0.14522 0.475077 -0.813549)
(-0.16821 0.459679 -0.79283)
(-0.163426 0.433655 -0.742512)
(-0.154089 0.43195 -0.686964)
(-0.184904 0.658221 -0.986423)
(-0.19173 0.652239 -0.951407)
(-0.169357 0.642469 -0.986209)
(-0.19041 0.645586 -0.977144)
(-0.190113 0.602137 -0.888303)
(-0.169052 0.616366 -0.949673)
(-0.215795 0.627955 -0.918802)
(-0.202695 0.603304 -0.879706)
(-0.185062 0.608072 -0.883925)
(-0.172917 0.632689 -0.929205)
(-0.203017 0.5995 -0.902129)
(-0.200334 0.625581 -0.966411)
(-0.233963 0.603226 -0.863508)
(-0.219245 0.591778 -0.8148)
(-0.197194 0.586566 -0.8499)
(-0.22475 0.611272 -0.841134)
(-0.188199 0.616261 -0.923265)
(-0.211754 0.622034 -0.900222)
(-0.138176 0.342838 -0.672724)
(-0.140041 0.334899 -0.653625)
(-0.122414 0.321111 -0.603331)
(-0.121774 0.308564 -0.562957)
(-0.154427 0.346967 -0.672456)
(-0.138906 0.325957 -0.610353)
(-0.13606 0.363338 -0.688529)
(-0.116513 0.344161 -0.673373)
(-0.129085 0.340591 -0.66185)
(-0.114774 0.322152 -0.61134)
(-0.127223 0.331602 -0.604423)
(-0.137471 0.390463 -0.7097)
(-0.118058 0.315424 -0.591381)
(-0.114824 0.421832 -0.781432)
(-0.109995 0.413878 -0.758891)
(-0.11078 0.401406 -0.735051)
(0.0891812 0.455711 -0.715199)
(0.0924327 0.453403 -0.695236)
(0.0511751 0.4064 -0.749393)
(0.106648 0.443265 -0.771669)
(0.0409653 0.406098 -0.655146)
(0.0369803 0.417081 -0.688412)
(0.119153 0.474549 -0.767987)
(0.131416 0.479638 -0.713053)
(0.0340656 0.406035 -0.733306)
(0.0802149 0.439242 -0.770454)
(0.0602862 0.399498 -0.676158)
(0.127964 0.45533 -0.721939)
(0.0712451 0.396642 -0.636048)
(0.10352 0.446188 -0.700751)
(-0.011246 0.351168 -0.62286)
(-0.018002 0.585165 -1.13051)
(-0.0190815 0.614207 -1.14355)
(0.0163668 0.626699 -1.17338)
(0.01008 0.626726 -1.18057)
(-0.0434733 0.516564 -0.953006)
(-0.029255 0.496573 -1.00129)
(-0.00345988 0.590644 -1.13615)
(-0.0490605 0.561325 -1.05621)
(-0.030748 0.591308 -1.10254)
(-0.0297877 0.519676 -1.03315)
(-0.0127134 0.536509 -1.10216)
(0.0214964 0.621151 -1.1399)
(0.0150484 0.614147 -1.16237)
(0.00984908 0.625519 -1.16406)
(-0.0154302 0.566241 -1.05575)
(-0.0294933 0.555794 -1.02662)
(-0.0100359 0.620392 -1.15325)
(-0.0228477 0.607402 -1.16382)
(-0.0239317 0.588297 -1.0685)
(0.100205 0.5589 -1.00405)
(0.0770938 0.522548 -0.926563)
(0.0865276 0.551469 -0.993877)
(0.0937916 0.621356 -1.08793)
(0.0800728 0.587532 -1.01735)
(0.0789633 0.544651 -0.945451)
(0.0603432 0.611456 -1.0618)
(0.0819131 0.556528 -0.972661)
(0.068515 0.513276 -0.936547)
(0.0610514 0.557445 -0.965087)
(0.0675212 0.514986 -0.894963)
(-0.12092 0.592723 -0.943182)
(-0.123863 0.498823 -0.809297)
(-0.121634 0.61277 -1.00759)
(-0.109813 0.545802 -0.910849)
(-0.139052 0.612222 -0.97292)
(-0.131172 0.525147 -0.859913)
(-0.124915 0.546174 -0.868226)
(-0.107227 0.475799 -0.778524)
(-0.138798 0.584823 -0.953878)
(-0.138041 0.600507 -0.970896)
(-0.106047 0.458483 -0.76809)
(-0.136398 0.595597 -0.947514)
(-0.131255 0.6525 -1.01645)
(-0.123632 0.564042 -0.933301)
(-0.103149 0.534324 -0.855359)
(-0.121758 0.577989 -0.934138)
(-0.150407 0.646525 -1.01954)
(-0.144972 0.663966 -1.04442)
(-0.105263 0.53989 -0.301447)
(-0.110062 0.520797 -0.259535)
(-0.115934 0.506714 -0.313411)
(-0.112799 0.536363 -0.337051)
(-0.0912575 0.563259 -0.296819)
(-0.0875651 0.525246 -0.23338)
(-0.0750606 0.583124 -0.340294)
(-0.0750503 0.534453 -0.252164)
(-0.0901907 0.529635 -0.253912)
(-0.0777647 0.511207 -0.219873)
(-0.0804435 0.560552 -0.34863)
(-0.0988002 0.546142 -0.353556)
(-0.0921009 0.525675 -0.32639)
(-0.100655 0.532584 -0.346503)
(-0.0748115 0.548638 -0.262517)
(-0.0933625 0.527007 -0.278483)
(-0.0620759 0.583412 -0.294029)
(-0.125853 0.516274 -0.267515)
(-0.0683217 0.57578 -0.304417)
(-0.158805 0.431996 -0.425806)
(-0.161015 0.41449 -0.421079)
(-0.162456 0.495501 -0.319235)
(-0.151236 0.483602 -0.347644)
(-0.140759 0.441407 -0.424353)
(-0.152072 0.427933 -0.409986)
(-0.170953 0.472907 -0.352404)
(-0.136996 0.526102 -0.357722)
(-0.150748 0.513573 -0.334909)
(-0.167397 0.507958 -0.349528)
(-0.137861 0.502636 -0.39034)
(-0.138553 0.533039 -0.378083)
(-0.158072 0.535048 -0.331165)
(0.0763895 0.618606 -0.393251)
(0.0928007 0.612475 -0.384087)
(0.0703537 0.615297 -0.39827)
(0.107559 0.624 -0.412147)
(0.0714536 0.631434 -0.403571)
(0.0418789 0.579527 -0.447946)
(0.0679144 0.575084 -0.502093)
(0.0539294 0.556401 -0.500589)
(0.03664 0.533902 -0.493783)
(0.120242 0.618718 -0.46018)
(0.117531 0.619777 -0.484145)
(0.111214 0.614117 -0.449239)
(0.0833685 0.628981 -0.432279)
(0.0963983 0.613073 -0.411386)
(0.0397723 0.584003 -0.453599)
(0.0933733 0.643187 -0.475728)
(0.0501284 0.586458 -0.488265)
(0.134864 0.572666 -0.772828)
(0.114031 0.501858 -0.686598)
(-0.00408561 0.440644 -0.721077)
(0.047812 0.477074 -0.699009)
(0.0581967 0.483145 -0.748031)
(0.0207732 0.40411 -0.61043)
(0.0739863 0.490655 -0.687348)
(0.111096 0.529167 -0.773281)
(-0.0354601 0.392573 -0.688048)
(-0.042394 0.420855 -0.737184)
(0.07671 0.520507 -0.81713)
(-0.0241537 0.461311 -0.787471)
(-0.0156138 0.427461 -0.731838)
(0.114411 0.509531 -0.780353)
(0.113949 0.519208 -0.789284)
(-0.00334544 0.413886 -0.712701)
(-0.0225937 0.385731 -0.665315)
(0.0420039 0.474757 -0.816856)
(0.0864324 0.496222 -0.807398)
(0.0702865 0.463734 -0.776284)
(0.273071 0.53958 -0.674733)
(0.267291 0.536175 -0.672873)
(0.246527 0.529286 -0.755171)
(0.263896 0.546619 -0.698813)
(0.264139 0.548943 -0.679393)
(0.25963 0.518616 -0.69841)
(0.261433 0.506902 -0.727982)
(0.270367 0.533767 -0.709577)
(0.250859 0.528356 -0.690653)
(0.24735 0.539987 -0.732608)
(0.229998 0.521637 -0.756666)
(0.249082 0.522028 -0.745711)
(0.266878 0.516044 -0.715467)
(0.206198 0.49111 -0.693488)
(0.233066 0.511337 -0.778409)
(0.259814 0.520687 -0.752893)
(0.216316 0.493916 -0.755588)
(0.179767 0.466024 -0.718398)
(0.214264 0.51852 -0.689484)
(0.19234 0.504188 -0.765021)
(0.181731 0.474483 -0.753658)
(0.191753 0.501339 -0.716181)
(0.0510256 0.56199 -1.04155)
(0.00112832 0.47295 -0.895202)
(-0.0266693 0.449056 -0.890512)
(-0.0163797 0.441716 -0.882708)
(-0.0236239 0.485705 -0.93305)
(-0.0111765 0.397086 -0.815676)
(-0.0321653 0.402961 -0.820678)
(0.0698916 0.498161 -0.975711)
(0.0743267 0.480254 -0.954973)
(0.0844381 0.529719 -1.02322)
(0.0510836 0.54393 -1.01806)
(-0.00145695 0.46437 -0.93316)
(-0.00647503 0.416386 -0.860016)
(-0.013168 0.467857 -0.913885)
(-0.180684 0.389092 -0.673069)
(-0.210051 0.453008 -0.774375)
(-0.181353 0.383623 -0.668141)
(-0.20885 0.449569 -0.750812)
(-0.144467 0.474458 -0.76514)
(-0.155382 0.452004 -0.772648)
(-0.207767 0.456451 -0.789417)
(-0.193788 0.366619 -0.662206)
(-0.211778 0.439686 -0.739135)
(-0.119964 0.512705 -0.866815)
(-0.14425 0.408836 -0.683463)
(-0.18003 0.470189 -0.826939)
(-0.199231 0.461639 -0.793191)
(-0.105486 0.53127 -0.818633)
(-0.120016 0.552826 -0.802544)
(-0.157911 0.411544 -0.676051)
(-0.124279 0.451997 -0.702592)
(0.0694006 0.566259 -1.19492)
(0.0522368 0.589064 -1.20439)
(0.0278578 0.609684 -1.20605)
(0.0688445 0.612215 -1.12562)
(0.0676597 0.547539 -1.17305)
(0.0847493 0.565801 -1.16941)
(0.0657772 0.61057 -1.17853)
(0.0683841 0.60534 -1.14117)
(0.0729527 0.60898 -1.17314)
(0.0472294 0.586853 -1.20817)
(0.0486022 0.57094 -1.19171)
(0.0883389 0.555737 -1.14898)
(0.0686238 0.555359 -1.04872)
(0.0745355 0.553156 -1.1628)
(0.0922777 0.559098 -1.15059)
(0.0582122 0.576348 -1.07865)
(0.0637519 0.581423 -1.17694)
(0.0599402 0.561772 -1.16638)
(0.07984 0.57049 -1.12877)
(-0.377897 0.208532 -0.403516)
(-0.385832 0.156027 -0.350427)
(-0.38012 0.221018 -0.448538)
(-0.386416 0.184817 -0.40085)
(-0.357831 0.320199 -0.543615)
(-0.346697 0.339641 -0.55481)
(-0.372269 0.244255 -0.416248)
(-0.383639 0.221518 -0.440164)
(-0.394614 0.203757 -0.345974)
(-0.384285 0.171112 -0.336321)
(-0.347028 0.358107 -0.52525)
(-0.423869 0.237036 -0.352891)
(-0.40416 0.173527 -0.322076)
(-0.396758 0.276678 -0.405751)
(-0.375877 0.343774 -0.517489)
(-0.372527 0.365647 -0.504433)
(-0.407173 0.24324 -0.404127)
(-0.40936 0.209049 -0.376294)
(-0.123771 0.548353 -0.894868)
(-0.121629 0.523188 -0.820624)
(-0.107332 0.546931 -0.86333)
(-0.101776 0.428537 -0.6821)
(-0.1106 0.444557 -0.703137)
(-0.130137 0.610437 -0.969873)
(-0.134485 0.629979 -1.01772)
(-0.11849 0.629843 -1.00722)
(-0.131795 0.66511 -1.08408)
(-0.115607 0.633583 -1.01527)
(-0.099968 0.44245 -0.724862)
(-0.108115 0.559426 -0.894967)
(-0.101888 0.504598 -0.773236)
(-0.113748 0.571252 -0.91914)
(-0.0952387 0.442847 -0.712471)
(-0.368058 0.453225 -0.569086)
(-0.386531 0.399877 -0.510308)
(-0.375529 0.335892 -0.341851)
(-0.37956 0.269223 -0.305709)
(-0.366816 0.34458 -0.34466)
(-0.380889 0.317919 -0.292875)
(-0.376498 0.374045 -0.439152)
(-0.38261 0.352794 -0.481718)
(-0.374699 0.396109 -0.513111)
(-0.388958 0.270646 -0.284298)
(-0.391788 0.327644 -0.407599)
(-0.39305 0.288043 -0.347279)
(-0.421116 0.257319 -0.372997)
(-0.382399 0.32388 -0.364592)
(-0.394016 0.326598 -0.34172)
(-0.404141 0.25044 -0.323733)
(-0.408949 0.206367 -0.272895)
(-0.399712 0.234952 -0.246847)
(-0.177216 0.57664 -0.330479)
(-0.19879 0.578556 -0.328022)
(-0.197544 0.551701 -0.380576)
(-0.189497 0.545465 -0.399801)
(-0.223768 0.491728 -0.366187)
(-0.228058 0.477935 -0.386325)
(-0.207703 0.563132 -0.337145)
(-0.210984 0.502939 -0.392691)
(-0.233029 0.491383 -0.392334)
(-0.20681 0.557658 -0.385117)
(-0.24042 0.493841 -0.351881)
(-0.199027 0.556877 -0.297645)
(-0.207237 0.546788 -0.298692)
(-0.202034 0.519696 -0.271662)
(-0.222192 0.525031 -0.353038)
(-0.233401 0.512557 -0.351337)
(-0.223426 0.513996 -0.257192)
(-0.207376 0.509624 -0.25181)
(-0.229145 0.513351 -0.279786)
(-0.237434 0.518512 -0.271727)
(-0.21087 0.527951 -0.290925)
(-0.226525 0.536415 -0.290148)
(-0.216077 0.528976 -0.271961)
(-0.248235 0.456639 -0.236903)
(-0.258668 0.450602 -0.248115)
(-0.254921 0.453072 -0.234674)
(-0.2461 0.445084 -0.212365)
(-0.249919 0.474663 -0.258688)
(-0.233073 0.450479 -0.350138)
(-0.226653 0.462506 -0.358948)
(-0.261482 0.441037 -0.308865)
(-0.254014 0.452722 -0.311904)
(-0.239345 0.465583 -0.334395)
(-0.250319 0.48568 -0.320746)
(-0.267919 0.452296 -0.297035)
(-0.230645 0.49093 -0.245052)
(-0.232724 0.458446 -0.223562)
(-0.269617 0.457027 -0.246787)
(-0.238979 0.49432 -0.245961)
(-0.258249 0.488815 -0.251047)
(-0.191831 0.386571 -0.376425)
(-0.180439 0.400382 -0.382597)
(-0.18141 0.386901 -0.355769)
(-0.180485 0.403729 -0.378259)
(-0.171049 0.390129 -0.446168)
(-0.190735 0.424669 -0.470136)
(-0.180913 0.398888 -0.458471)
(-0.160907 0.377624 -0.496435)
(-0.169097 0.479988 -0.700623)
(-0.155786 0.459868 -0.686189)
(-0.183036 0.43645 -0.548347)
(-0.18007 0.37995 -0.421122)
(-0.164811 0.38409 -0.494749)
(-0.168075 0.438428 -0.556787)
(-0.159219 0.446183 -0.610415)
(-0.0691025 0.443337 -0.649097)
(-0.0875065 0.408235 -0.531417)
(-0.162363 0.355888 -0.467612)
(-0.210727 0.290592 -0.340835)
(-0.164509 0.332398 -0.40025)
(-0.189719 0.300596 -0.343355)
(-0.187331 0.320507 -0.335136)
(-0.198012 0.287744 -0.304788)
(-0.0736009 0.445599 -0.661231)
(-0.0884302 0.399678 -0.551222)
(-0.109676 0.402174 -0.546001)
(-0.102549 0.44029 -0.619636)
(-0.108194 0.412225 -0.587142)
(-0.165563 0.339406 -0.391204)
(-0.173521 0.359637 -0.385317)
(-0.187899 0.32905 -0.349775)
(-0.218298 0.302687 -0.373205)
(-0.0579248 0.457608 -0.744872)
(-0.0749008 0.438968 -0.662157)
(-0.0949941 0.337939 -0.40196)
(-0.102273 0.367678 -0.428518)
(-0.0752278 0.413697 -0.732785)
(-0.0776594 0.422672 -0.688692)
(-0.0603887 0.434172 -0.6988)
(-0.104842 0.33682 -0.405326)
(-0.107285 0.362679 -0.425738)
(-0.088675 0.398576 -0.524376)
(-0.10856 0.390775 -0.49207)
(-0.0930205 0.417232 -0.551946)
(-0.0663352 0.403453 -0.728702)
(-0.0586123 0.43428 -0.749719)
(-0.0723896 0.389284 -0.551261)
(-0.0802432 0.357516 -0.500775)
(-0.0917744 0.36421 -0.560759)
(-0.079326 0.379708 -0.658362)
(-0.0633606 0.402759 -0.68182)
(-0.086098 0.342075 -0.477095)
(-0.109015 0.324585 -0.430524)
(-0.0778829 0.373708 -0.574725)
(-0.145175 0.511372 -0.832614)
(-0.140787 0.480182 -0.807461)
(-0.168452 0.384585 -0.684148)
(-0.16463 0.342781 -0.657)
(-0.147525 0.397475 -0.695007)
(-0.141559 0.3614 -0.651124)
(-0.123457 0.419189 -0.710699)
(-0.140037 0.527643 -0.849424)
(-0.172536 0.448084 -0.751852)
(-0.154949 0.406799 -0.706376)
(-0.160603 0.442792 -0.755829)
(-0.140034 0.596546 -0.934893)
(-0.140873 0.578879 -0.918984)
(-0.129379 0.395265 -0.700945)
(-0.147748 0.551951 -0.866218)
(-0.145586 0.552489 -0.872293)
(-0.127855 0.559653 -0.884318)
(-0.136864 0.445003 -0.749425)
(-0.0308642 0.431932 -0.824201)
(-0.0394904 0.428701 -0.805103)
(-0.00892885 0.434356 -0.84043)
(-0.0289693 0.38964 -0.748953)
(-0.0670116 0.365666 -0.691798)
(-0.0372594 0.388091 -0.685576)
(-0.0428915 0.450957 -0.849466)
(-0.0521979 0.422967 -0.785414)
(-0.0641602 0.339605 -0.59058)
(-0.050339 0.360171 -0.612483)
(-0.0295983 0.409738 -0.686904)
(0.00614547 0.476606 -0.845218)
(-0.0221375 0.463301 -0.797142)
(-0.0344088 0.47171 -0.822175)
(-0.0538143 0.368314 -0.565203)
(-0.0532481 0.370274 -0.561166)
(-0.0774514 0.35287 -0.470616)
(-0.0573134 0.398719 -0.666719)
(-0.247961 0.473357 -0.574555)
(-0.31245 0.388062 -0.406377)
(-0.296662 0.414615 -0.463964)
(-0.248693 0.507924 -0.620909)
(-0.266633 0.450173 -0.522668)
(-0.297666 0.448739 -0.490317)
(-0.334999 0.382571 -0.426257)
(-0.319873 0.356716 -0.4277)
(-0.294362 0.394826 -0.465305)
(-0.323242 0.373219 -0.458689)
(-0.338364 0.353009 -0.421297)
(-0.31753 0.383798 -0.424602)
(-0.309804 0.40005 -0.526283)
(-0.312929 0.377048 -0.46258)
(-0.276805 0.478606 -0.629222)
(-0.158385 0.373648 -0.473853)
(-0.134374 0.34436 -0.466436)
(-0.128962 0.383396 -0.565159)
(-0.166011 0.385331 -0.389297)
(-0.150307 0.392229 -0.407109)
(-0.150466 0.386926 -0.476734)
(-0.134951 0.34168 -0.452611)
(-0.149056 0.356783 -0.422051)
(-0.137928 0.376825 -0.489606)
(-0.165426 0.371069 -0.393082)
(-0.157363 0.379241 -0.384977)
(0.0554753 0.541473 -0.955683)
(0.0667479 0.483748 -0.85139)
(0.036788 0.483134 -0.873041)
(0.0459522 0.503186 -0.890449)
(0.064589 0.527996 -0.947661)
(-0.00548363 0.438892 -0.746459)
(0.00741152 0.457796 -0.787909)
(0.0658426 0.475386 -0.852569)
(0.0117475 0.466089 -0.778739)
(0.044955 0.52898 -0.918739)
(-0.0230205 0.421711 -0.710845)
(-0.0441647 0.364464 -0.622381)
(-0.00575515 0.392926 -0.673484)
(0.0479902 0.506267 -0.881867)
(0.0054915 0.428327 -0.748181)
(-0.00773342 0.40004 -0.705125)
(-0.205001 0.636042 -1.05807)
(-0.225862 0.644389 -1.06352)
(-0.233173 0.632976 -1.06574)
(-0.235914 0.641012 -1.08327)
(-0.233449 0.641999 -1.05975)
(-0.199229 0.630109 -1.03583)
(-0.195436 0.621391 -1.01667)
(-0.206923 0.612675 -1.01422)
(-0.234748 0.645492 -1.06881)
(-0.207844 0.638945 -1.04887)
(-0.21816 0.653562 -1.05239)
(-0.192276 0.623934 -1.02566)
(-0.206578 0.656788 -1.07583)
(-0.225758 0.64249 -1.0612)
(-0.224716 0.656576 -1.0647)
(-0.147111 0.382989 -0.692222)
(-0.121678 0.456349 -0.80742)
(-0.118714 0.51837 -0.876477)
(-0.138996 0.526167 -0.881386)
(-0.133588 0.498349 -0.848064)
(-0.106185 0.437843 -0.796657)
(-0.0966089 0.44916 -0.820237)
(-0.110056 0.470819 -0.815252)
(-0.112612 0.534856 -0.89059)
(-0.114786 0.514379 -0.871584)
(0.189094 0.370104 -1.01657)
(0.178955 0.35512 -0.983519)
(0.119465 0.371316 -0.943419)
(-0.0148726 0.56694 -1.12741)
(0.00473276 0.56606 -1.16352)
(0.00901074 0.531442 -1.10795)
(0.0198848 0.515296 -1.05164)
(0.00988813 0.554584 -1.15743)
(-0.0149973 0.538317 -1.09348)
(-0.0207498 0.483455 -0.980968)
(0.025432 0.520383 -1.0996)
(0.00111161 0.538412 -1.14277)
(0.000231733 0.452509 -0.964553)
(0.0178446 0.454755 -0.993004)
(0.0260275 0.524283 -1.07928)
(0.0636717 0.522026 -1.14849)
(0.00997426 0.453436 -0.976744)
(0.0381312 0.523676 -1.12485)
(0.0391679 0.484339 -1.05346)
(-0.0312573 0.576817 -1.11)
(-0.0693263 0.534947 -1.01828)
(-0.0406456 0.525399 -1.04039)
(-0.0157179 0.595063 -1.16183)
(-0.014774 0.574416 -1.15036)
(-0.0472732 0.609207 -1.13315)
(-0.0541477 0.587771 -1.07799)
(-0.0416301 0.587212 -1.06939)
(-0.0121733 0.607234 -1.13939)
(-0.0166009 0.610704 -1.14615)
(-0.00489965 0.603247 -1.14817)
(0.00172654 0.580928 -1.14866)
(-0.046783 0.616142 -1.11449)
(-0.0162862 0.63629 -1.15965)
(-0.0294408 0.643773 -1.16679)
(-0.150527 0.501426 -0.855936)
(-0.118151 0.516641 -0.860059)
(-0.127531 0.564638 -0.877558)
(-0.144839 0.550186 -0.830935)
(-0.131636 0.560383 -0.809734)
(-0.114638 0.58842 -0.88128)
(-0.110601 0.547875 -0.878547)
(-0.104543 0.524717 -0.847392)
(-0.106613 0.512689 -0.786163)
(-0.152346 0.508214 -0.7436)
(-0.13459 0.584207 -0.922939)
(-0.108995 0.563317 -0.867123)
(-0.121387 0.594545 -0.939584)
(-0.0241551 0.212411 -0.283223)
(-0.019623 0.209834 -0.268809)
(-0.0287682 0.222309 -0.253283)
(-0.0283717 0.226846 -0.268914)
(-0.0129367 0.211119 -0.264028)
(-0.0169626 0.210606 -0.285332)
(-0.0152113 0.213845 -0.165316)
(-0.0208869 0.217257 -0.179942)
(-0.00796664 0.251547 -0.184073)
(-0.0162629 0.234986 -0.184241)
(-0.00964571 0.598506 -0.981725)
(-0.0184648 0.580748 -0.961685)
(-0.0252807 0.626682 -1.03951)
(-8.54331e-05 0.622859 -1.02046)
(-0.00640825 0.588947 -0.973083)
(0.00135877 0.644313 -1.07178)
(-0.00971291 0.60641 -1.01258)
(-0.0161606 0.627584 -1.01752)
(-0.0116063 0.652709 -1.07129)
(-0.0104383 0.653594 -1.05998)
(-0.0194838 0.662843 -1.11804)
(-0.0205127 0.648732 -1.09057)
(-0.0400905 0.655791 -1.07684)
(-0.022524 0.612077 -1.00189)
(-0.0271312 0.640282 -1.03771)
(-0.0255718 0.65615 -1.07349)
(-0.0461933 0.657647 -1.1063)
(-0.0408148 0.625479 -1.01711)
(-0.0401044 0.636106 -1.06003)
(-0.0527818 0.674127 -1.11135)
(-0.0380457 0.657681 -1.08889)
(-0.0163491 0.584235 -0.306585)
(-0.0321404 0.562265 -0.277612)
(-0.0343103 0.580506 -0.32119)
(-0.0353958 0.559844 -0.28197)
(-0.0380301 0.589365 -0.337278)
(-0.053221 0.525549 -0.23577)
(-0.0404014 0.578489 -0.300846)
(-0.0326475 0.551475 -0.270896)
(-0.0572072 0.544928 -0.35746)
(-0.0575817 0.549803 -0.369693)
(-0.0510254 0.548805 -0.273849)
(-0.0629175 0.538008 -0.254768)
(-0.076759 0.530122 -0.27342)
(-0.0732388 0.52562 -0.335911)
(-0.0805853 0.518958 -0.333341)
(-0.00297682 0.266705 -0.51881)
(0.00943179 0.288736 -0.478056)
(0.0261751 0.285608 -0.524504)
(0.00235996 0.264189 -0.535169)
(-0.0101806 0.25169 -0.462505)
(-0.00506945 0.250892 -0.480504)
(-0.0158169 0.250829 -0.56032)
(-0.0409569 0.22896 -0.449709)
(-0.0479005 0.215641 -0.465043)
(-0.0362145 0.254336 -0.557443)
(-0.0475662 0.229633 -0.528958)
(-0.0592144 0.27228 -0.612754)
(-0.0650158 0.229448 -0.446994)
(-0.0466189 0.23731 -0.439018)
(-0.0637729 0.228368 -0.487033)
(-0.0409738 0.231837 -0.452404)
(-0.067943 0.25818 -0.586836)
(-0.0683199 0.245694 -0.536485)
(0.0349249 0.631739 -1.08703)
(0.0264172 0.625314 -1.08765)
(0.0447271 0.643176 -1.1163)
(0.0616147 0.658175 -1.13272)
(0.0108391 0.638838 -1.09924)
(-0.0102443 0.625954 -1.09931)
(0.0471067 0.63201 -1.12763)
(0.0352137 0.635979 -1.0813)
(-0.0115504 0.6458 -1.18481)
(0.00807817 0.63089 -1.15088)
(0.00734109 0.637814 -1.10189)
(0.0104729 0.649079 -1.15014)
(0.0318427 0.633227 -1.08032)
(0.0395895 0.647504 -1.16857)
(0.0532584 0.628087 -1.07995)
(0.0442404 0.646394 -1.13522)
(-0.134163 0.569103 -0.897346)
(-0.139018 0.598663 -0.940158)
(-0.160081 0.679837 -1.04359)
(-0.184777 0.687428 -1.05861)
(-0.165597 0.671016 -1.01168)
(-0.15226 0.649646 -1.01393)
(-0.176142 0.66588 -1.03603)
(-0.143025 0.644617 -0.991075)
(-0.141075 0.612577 -0.938424)
(-0.167746 0.632498 -0.987664)
(-0.141567 0.595134 -0.912716)
(-0.135048 0.576854 -0.907817)
(-0.163819 0.617769 -0.950179)
(-0.160758 0.603222 -0.925186)
(-0.151592 0.563094 -0.880214)
(0.114235 0.574654 -1.00997)
(0.100455 0.545969 -1.00326)
(0.150125 0.565186 -1.0473)
(0.152705 0.583216 -1.0802)
(0.108958 0.521412 -0.949485)
(0.0984588 0.506759 -0.880843)
(0.116562 0.524966 -0.943455)
(0.150067 0.557797 -0.995183)
(0.16948 0.515206 -0.978838)
(0.119817 0.558267 -1.03052)
(0.121307 0.606117 -1.09611)
(0.114857 0.610956 -1.11274)
(0.128471 0.512583 -0.944474)
(0.101441 0.474383 -0.862341)
(0.127909 0.502648 -0.940781)
(0.115361 0.541908 -0.967412)
(0.0918369 0.492913 -0.87902)
(0.149487 0.532161 -0.958172)
(0.145519 0.552225 -0.97704)
(-0.126548 0.661118 -1.03055)
(-0.131814 0.653676 -1.02302)
(-0.124306 0.63378 -0.99889)
(-0.182394 0.674696 -1.0723)
(-0.149973 0.665989 -1.03928)
(-0.133801 0.62549 -1.01947)
(-0.163998 0.488779 -0.803926)
(-0.149843 0.582023 -0.926631)
(-0.135391 0.640987 -0.993989)
(-0.16709 0.581525 -0.941418)
(-0.176811 0.593622 -0.948511)
(-0.170141 0.617581 -0.974392)
(-0.170168 0.564594 -0.917643)
(-0.173952 0.558266 -0.905165)
(-0.202144 0.524444 -0.876825)
(-0.191193 0.546409 -0.900349)
(-0.249524 0.615229 -1.00615)
(-0.231368 0.606425 -0.978418)
(-0.198198 0.586388 -0.944658)
(-0.242427 0.586511 -0.954801)
(-0.243318 0.647056 -1.04067)
(-0.1903 0.448898 -0.747174)
(-0.22337 0.575744 -0.959824)
(-0.235222 0.349273 -0.245767)
(-0.228426 0.353504 -0.247205)
(-0.274524 0.323737 -0.239991)
(-0.263579 0.313438 -0.206917)
(-0.247613 0.324719 -0.222369)
(-0.250873 0.32041 -0.210876)
(-0.277448 0.316311 -0.222911)
(-0.291782 0.334441 -0.256008)
(-0.194761 0.422811 -0.497391)
(-0.209729 0.440288 -0.499915)
(-0.199956 0.422909 -0.458994)
(-0.198144 0.436743 -0.4892)
(-0.231496 0.361195 -0.277003)
(-0.227034 0.385777 -0.354548)
(-0.255889 0.348293 -0.223365)
(-0.273205 0.349581 -0.231523)
(-0.215773 0.391881 -0.399237)
(-0.219573 0.467626 -0.517678)
(-0.249995 0.358128 -0.287135)
(-0.269238 0.3354 -0.266024)
(-0.266779 0.413667 -0.389084)
(-0.268211 0.426711 -0.465785)
(-0.0362898 0.520462 -0.245158)
(-0.0554461 0.496284 -0.228376)
(-0.0547282 0.489076 -0.363654)
(-0.0550892 0.541868 -0.35239)
(-0.044525 0.545164 -0.292731)
(-0.0684771 0.48635 -0.361304)
(-0.0811152 0.432042 -0.360981)
(-0.0500862 0.517345 -0.282745)
(-0.0475781 0.528448 -0.263381)
(-0.0532212 0.498743 -0.2275)
(-0.107827 0.480336 -0.246913)
(-0.108269 0.471607 -0.244882)
(-0.121439 0.435097 -0.300564)
(-0.115366 0.455428 -0.295894)
(-0.101191 0.446541 -0.30402)
(-0.0919771 0.481862 -0.261836)
(-0.086969 0.483375 -0.235751)
(-0.060004 0.538577 -0.268323)
(-0.104135 0.479048 -0.256044)
(-0.0772553 0.497692 -0.335124)
(-0.203113 0.566743 -0.83249)
(-0.195705 0.556167 -0.812055)
(-0.198952 0.514908 -0.752289)
(-0.180124 0.544521 -0.808423)
(-0.267377 0.471344 -0.666125)
(-0.233136 0.518895 -0.760515)
(-0.234582 0.471179 -0.696788)
(-0.220909 0.475426 -0.695329)
(-0.284399 0.433589 -0.59122)
(-0.233087 0.479064 -0.70275)
(-0.262108 0.383886 -0.643408)
(-0.29422 0.433331 -0.638191)
(-0.311105 0.376855 -0.576358)
(-0.324832 0.41338 -0.565583)
(-0.330296 0.355898 -0.52738)
(-0.243366 0.458954 -0.658967)
(-0.280933 0.448238 -0.614732)
(-0.133135 0.458737 -0.802712)
(-0.147834 0.437866 -0.776936)
(-0.209017 0.548402 -0.94123)
(-0.173525 0.546418 -0.956486)
(-0.206773 0.537115 -0.902382)
(-0.18337 0.523158 -0.921227)
(-0.125657 0.512118 -0.885617)
(-0.133298 0.522429 -0.906751)
(-0.180433 0.501492 -0.856543)
(-0.154084 0.52787 -0.933157)
(-0.135815 0.513836 -0.89727)
(-0.15926 0.439026 -0.759586)
(-0.159425 0.46229 -0.808026)
(-0.146198 0.516286 -0.884427)
(-0.196417 0.560089 -0.947196)
(-0.183861 0.558425 -0.975712)
(-0.189339 0.494744 -0.850288)
(-0.166044 0.526955 -0.928753)
(-0.160194 0.52017 -0.925479)
(-0.210578 0.398111 -0.30346)
(-0.229982 0.381541 -0.275477)
(-0.215322 0.399183 -0.348134)
(-0.203329 0.408184 -0.377572)
(-0.223301 0.379822 -0.284905)
(-0.191478 0.394639 -0.338469)
(-0.210572 0.403773 -0.295886)
(-0.19547 0.40442 -0.330872)
(-0.189068 0.395533 -0.341854)
(-0.136972 0.564765 -0.701925)
(-0.150743 0.61678 -0.851089)
(-0.122717 0.615158 -0.817499)
(-0.0925265 0.622496 -0.719033)
(-0.166048 0.584712 -0.828833)
(-0.0919995 0.620527 -0.780827)
(-0.103277 0.616955 -0.759602)
(-0.0998188 0.612978 -0.736234)
(-0.101713 0.613728 -0.731198)
(-0.12868 0.586631 -0.778236)
(-0.0965471 0.614147 -0.772952)
(0.0222071 0.326293 -0.241288)
(0.0286588 0.3168 -0.220263)
(0.0897142 0.353881 -0.249349)
(0.0814614 0.33279 -0.19299)
(0.0554534 0.359434 -0.281342)
(0.0723937 0.358902 -0.301619)
(0.0830026 0.618301 -1.08743)
(0.0947168 0.633295 -1.09991)
(0.109319 0.613469 -1.08502)
(0.0943612 0.605388 -1.06299)
(0.0511006 0.591827 -1.04416)
(0.0459813 0.605281 -1.0767)
(0.0546187 0.633482 -1.10659)
(0.0352611 0.597028 -1.07423)
(0.0569708 0.575907 -1.05563)
(0.0556739 0.63888 -1.15363)
(0.0801654 0.628807 -1.13844)
(0.0490949 0.623429 -1.12543)
(0.0594299 0.598264 -1.0662)
(0.0888209 0.630173 -1.13143)
(0.0974298 0.63256 -1.13515)
(0.0221292 0.604082 -1.12792)
(0.0157638 0.601161 -1.10263)
(0.0306848 0.606936 -1.14661)
(0.0179671 0.594058 -1.08528)
(0.0124686 0.607469 -1.12229)
(0.0244224 0.584312 -1.08753)
(0.0107097 0.600163 -1.13921)
(0.0422384 0.577943 -1.15621)
(0.0304307 0.590432 -1.17167)
(0.0225013 0.580644 -1.14109)