/*--------------------------------*- C++ -*----------------------------------*\
| =========                 |                                                 |
| \\      /  F ield         | OpenFOAM: The Open Source CFD Toolbox           |
|  \\    /   O peration     | Version:  v1612+                                |
|   \\  /    A nd           | Web:      www.OpenFOAM.com                      |
|    \\/     M anipulation  |                                                 |
\*---------------------------------------------------------------------------*/
FoamFile
{
    version     2.0;
    format      ascii;
    class       volScalarField;
    location    "50";
    object      p;
}
// * * * * * * * * * * * * * * * * * * * * * * * * * * * * * * * * * * * * * //

dimensions      [0 2 -2 0 0 0 0];

internalField   nonuniform List<scalar> 
16726
(
0.45736
0.46117
0.459253
0.461385
0.495433
0.469786
0.473417
0.473715
0.455056
0.46932
0.437543
0.463962
0.470521
0.446327
0.529758
0.479329
0.462267
0.474558
0.454912
0.461347
0.486256
0.460262
0.464565
0.461143
0.617121
0.613134
0.606968
0.611466
0.607822
0.608948
0.597714
0.602004
0.60407
0.598315
0.606237
0.60011
0.624361
0.624607
0.61823
0.618603
0.625206
0.624368
0.627632
0.618037
0.613149
0.626039
0.625786
0.621353
0.621598
0.620031
0.620443
0.625677
0.512129
0.494709
0.518076
0.501815
0.542677
0.52869
0.547759
0.551844
0.514295
0.48901
0.498828
0.512783
0.536066
0.553953
0.524396
0.528832
0.452898
0.46736
0.446556
0.467427
0.462167
0.488604
0.486623
0.467632
0.46105
0.482928
0.504365
0.473875
0.476906
0.481255
0.479252
0.453132
0.464978
0.452601
0.57666
0.505988
0.491226
0.491547
0.477396
0.488444
0.486883
0.482745
0.474074
0.477585
0.483933
0.488653
0.511799
0.508737
0.496503
0.496478
0.491344
0.496896
0.515981
0.511303
0.513524
0.516114
0.487862
0.489889
0.504116
0.542322
0.542476
0.548685
0.543931
0.549076
0.543873
0.543063
0.545489
0.543173
0.53636
0.546419
0.535689
0.543884
0.542542
0.545723
0.545762
0.454655
0.465887
0.480254
0.493874
0.495703
0.479057
0.476331
0.475176
0.493433
0.506401
0.470348
0.471065
0.50075
0.510543
0.499067
0.493297
0.465864
0.47499
0.573141
0.578756
0.560872
0.561703
0.553534
0.551735
0.569417
0.54322
0.542395
0.490326
0.508601
0.563522
0.511767
0.540452
0.550251
0.530059
0.531538
0.516924
0.526976
0.565338
0.558315
0.556883
0.54509
0.53611
0.630449
0.631612
0.629237
0.62928
0.630595
0.627445
0.630975
0.626816
0.624933
0.62636
0.63079
0.630333
0.629408
0.628103
0.630621
0.539919
0.535165
0.535284
0.528259
0.521759
0.523112
0.528538
0.519124
0.530843
0.530163
0.540093
0.5307
0.524918
0.513964
0.532265
0.479015
0.480549
0.525276
0.518967
0.484852
0.478747
0.505483
0.481271
0.500279
0.534192
0.543625
0.515275
0.516064
0.549366
0.563642
0.563544
0.570666
0.570022
0.567453
0.578196
0.576315
0.581934
0.575924
0.576564
0.57789
0.569548
0.570886
0.573957
0.580681
0.576709
0.570647
0.570856
0.580338
0.567943
0.911887
0.889228
0.979647
1.05897
0.977364
0.942155
0.962258
0.932961
1.00776
1.06325
1.01588
1.04469
1.08035
1.04518
1.05661
1.10851
1.08968
0.744011
0.767823
0.723067
0.727189
0.848757
0.83567
0.697593
0.690167
0.729217
0.809994
0.89339
0.746932
0.725807
0.839964
0.7861
0.772709
0.785242
0.796155
0.871228
0.914835
0.958078
0.955299
0.943824
0.969333
0.882138
0.936376
0.897145
0.931358
0.921224
0.918461
0.959254
0.892357
0.955414
0.964621
0.469392
0.454766
0.457365
0.44789
0.474996
0.469208
0.476533
0.485616
0.47861
0.46381
0.488125
0.482329
0.456829
0.479441
0.479706
0.468798
0.486729
0.488349
0.496648
0.467378
0.485195
0.503439
1.16022
1.17692
1.17109
1.10836
1.12283
1.09976
1.07097
1.17289
1.21581
1.24212
1.14299
0.623397
0.607022
0.635977
0.64798
0.596839
0.665927
0.639628
0.584896
0.557781
0.686639
0.671864
0.67409
0.644129
0.548174
0.529101
0.645066
0.643467
0.597414
0.63519
0.67167
0.578662
0.585798
0.619895
0.690298
0.668702
0.697971
0.682566
0.607941
0.699984
0.719448
0.62321
0.481534
0.502163
0.507048
0.498945
0.508628
0.507937
0.477026
0.510948
0.497018
0.482593
0.505098
0.512375
0.505399
0.537243
0.511818
1.09836
1.0736
1.11424
1.09146
1.19457
1.22663
1.22661
1.27637
1.05846
1.14069
1.11288
1.1749
1.20295
1.14892
1.11525
1.24434
1.19048
1.24313
1.26786
1.09398
1.18
1.15198
0.611477
0.581775
0.61683
0.600696
0.567074
0.585455
0.608897
0.5898
0.650807
0.626772
0.621833
0.640823
0.570657
0.551342
0.575672
0.634796
0.609676
0.572375
0.623024
0.641415
0.628046
0.642122
0.711753
0.705467
0.644533
0.688245
0.639017
0.595663
0.54901
0.573464
0.643186
0.664917
0.585277
0.568493
0.583195
0.594303
0.649332
0.648695
0.565409
0.610716
0.625998
0.613545
0.611238
0.605232
0.59561
0.824746
0.772731
0.801358
0.733596
0.850976
0.851374
0.844944
0.837673
0.778958
0.804386
0.873859
0.83895
0.753954
0.804144
0.793395
0.765837
0.791537
0.45947
0.452704
0.472838
0.482504
0.459797
0.468441
0.496535
0.489658
0.503935
0.496179
0.513491
0.506315
0.506199
0.515135
0.516049
0.519228
0.515711
0.510465
0.520413
0.504383
0.512657
0.523465
0.499161
0.52053
0.521934
0.489156
0.534615
0.522749
0.565661
0.524624
0.520366
0.521619
0.527649
0.529049
0.518838
0.537508
0.541909
0.554771
0.537671
0.53451
0.519049
0.50809
0.534449
0.526647
0.483862
0.465455
0.449965
0.485251
0.474721
0.530766
0.534284
0.493296
0.474282
0.49327
0.493348
0.512757
0.523043
0.519563
0.490605
0.502287
0.498756
0.535667
0.527903
0.52032
0.525457
0.549274
0.532026
0.537595
0.521433
0.472597
0.472905
0.514887
0.497393
0.48303
0.523145
0.519343
0.46937
0.469485
0.472462
0.469697
0.501714
0.509612
0.48107
0.613575
0.615149
0.604993
0.584154
0.610231
0.581268
0.606368
0.623865
0.634832
0.578489
0.624645
0.572969
0.600104
0.636232
0.650619
0.65484
0.649279
0.602528
0.577512
0.653633
0.593583
0.625612
0.630735
0.617519
0.622742
0.627921
0.629945
0.623919
0.627164
0.627667
0.623659
0.628057
0.627617
0.96594
0.99801
0.914483
0.978749
0.897419
0.903979
1.03765
0.910607
0.986149
0.866847
0.908081
1.01668
0.986527
0.522816
0.514114
0.52529
0.531981
0.523296
0.519938
0.484009
0.48807
0.523109
0.497069
0.501418
0.542371
0.524992
0.492256
0.506364
0.500129
0.487978
0.481242
0.491786
0.489178
0.483444
0.515602
0.494192
0.501736
0.518976
0.508665
0.497756
0.481499
0.473807
0.503219
0.577733
0.585688
0.550736
0.600163
0.592636
0.543939
0.519413
0.553288
0.517287
0.513041
0.535536
0.501171
0.506764
0.486383
0.529744
0.556412
0.463192
0.498561
0.530971
0.518291
0.516268
0.519571
0.46741
0.480264
0.455252
0.469461
0.501096
0.508152
0.528542
0.498051
0.525769
0.533298
0.527406
0.535961
0.511176
0.531455
0.514626
0.501233
0.515985
0.616524
0.621642
0.616641
0.617594
0.611415
0.620177
0.620891
0.634377
0.62756
0.623648
0.625559
0.623479
0.629484
0.626599
0.629252
0.627529
0.620273
0.634777
0.625624
0.630608
0.63197
0.634148
0.630081
0.630692
0.627882
0.629648
0.627352
0.625085
0.576458
0.568787
0.575331
0.562482
0.577224
0.575127
0.563235
0.549952
0.541138
0.57799
0.568296
0.581124
0.583598
0.5516
0.536522
0.588349
0.553974
0.577117
0.584124
0.581757
0.543768
0.569432
0.57033
0.576845
0.534497
0.561821
0.548432
0.555232
0.549645
0.540924
0.545201
0.603387
0.557237
0.554507
0.575068
0.532054
0.545842
0.585483
0.524086
0.563121
0.541357
0.595304
0.56125
0.545804
0.546579
0.549299
0.542054
0.543591
0.545585
0.537836
0.549469
0.546629
0.544457
0.541627
0.53811
0.534032
0.54804
0.555549
0.542219
0.543706
0.542922
0.547151
0.545072
0.540968
0.544692
0.546212
0.566667
0.565644
0.564719
0.558567
0.553514
0.560647
0.554961
0.557403
0.556955
0.564722
0.554239
0.559506
0.556146
0.56302
0.570504
0.565317
0.564345
0.562952
0.563309
0.578666
0.578841
0.579297
0.593129
0.583545
0.581069
0.582858
0.567711
0.546611
0.548579
0.567577
0.569832
0.574969
0.583984
0.573485
0.536787
0.530597
0.569621
0.593819
0.582279
0.601477
0.533566
0.527517
0.483407
0.511806
0.601196
0.590048
0.535932
0.537399
0.555726
0.509248
0.5094
0.497137
0.509735
0.552861
1.02332
1.04004
1.02847
0.998392
0.977654
1.03199
1.07576
0.976411
0.989436
1.10901
1.06849
1.06716
1.05059
1.09219
0.979848
1.05195
0.981191
0.999819
1.00083
1.13488
1.01795
1.09884
0.560903
0.5589
0.549281
0.549241
0.542216
0.556225
0.553042
0.548393
0.550679
0.548342
0.54879
0.55166
0.546266
0.549122
0.552039
0.549697
0.540945
0.527727
0.509542
0.521795
0.539488
0.535873
0.524657
0.537534
0.52692
0.543462
0.541319
0.547784
0.531342
0.546652
0.502206
0.547156
0.543211
0.556637
0.553011
0.566374
0.562647
0.559069
0.549985
0.525477
0.505391
0.511707
0.522404
0.503389
0.531613
0.534984
0.548586
0.505935
0.479722
0.512432
0.53088
0.535931
0.528994
0.54412
0.541914
0.543694
0.548529
0.464027
0.52005
0.527617
0.754999
0.825596
0.725474
0.876667
0.69685
0.732158
0.806624
0.717792
0.884383
0.858735
0.790373
0.539733
0.548743
0.517211
0.540152
0.544024
0.551778
0.548637
0.690281
0.709989
0.753622
0.753528
0.683574
0.751098
0.767668
0.810223
0.748722
0.552333
0.550229
0.553004
0.567507
0.563117
0.558845
0.549922
0.523068
0.536101
0.531973
0.542822
0.529191
0.555293
0.569846
0.569774
0.564996
0.548723
0.558082
0.570332
0.582201
0.53092
0.52695
0.555917
0.555068
0.535423
0.555385
0.573143
0.542543
0.531645
0.619594
0.624809
0.590981
0.600906
0.532966
0.539636
0.540943
0.557581
0.539367
0.540234
0.543814
0.566714
0.566567
0.530233
0.539835
0.540791
0.540594
0.529907
0.557813
0.559421
0.741049
0.712312
0.681432
0.713492
0.729125
0.717125
0.718173
0.589
0.622328
0.620417
0.72413
0.678468
0.710719
0.516325
0.503068
0.534876
0.545133
0.539446
0.535871
0.548013
0.548058
0.845059
0.857537
0.81465
0.553066
0.552466
0.554022
0.545411
0.532516
0.538489
0.637664
0.660481
0.487885
0.501544
0.97167
0.926691
0.921393
1.23015
1.28127
1.17569
0.595127
0.598847
0.512446
0.542872
0.534483
0.541023
0.538532
0.556028
0.557154
0.553517
0.551738
1.33826
1.32675
1.11218
1.13948
0.90933
0.877876
1.11812
1.11689
0.743766
0.774022
0.80459
0.559751
0.525408
0.556899
0.529325
0.561695
0.561209
0.560008
0.559768
0.871769
0.881641
0.893622
0.540393
0.54578
0.53608
0.549959
0.529666
0.546577
0.544983
0.728545
0.697176
0.724818
0.704251
0.567188
0.570215
0.520859
0.537526
0.545161
0.690309
0.665196
0.522988
0.514401
0.585395
0.5859
0.58259
0.622319
0.620688
0.631211
0.511749
0.517041
0.519601
0.530494
0.643845
0.658185
0.571999
0.575711
0.570764
0.602517
0.601013
0.601705
0.542962
0.493692
0.496222
0.509606
0.606128
0.60576
0.545015
0.539438
0.531995
0.580458
0.581122
0.570752
0.541765
0.555024
0.553989
0.560109
0.506342
0.512252
0.501505
0.507906
0.498854
0.614951
0.610905
0.614035
0.607383
0.602689
0.603398
0.468506
0.467342
0.486835
0.504467
0.502795
0.626716
0.627485
0.625162
0.528928
0.520905
0.396916
0.408327
0.402043
0.429212
0.436477
0.452636
0.42389
0.431423
0.573908
0.569158
0.60792
0.609718
0.606862
0.631124
0.633245
0.634215
0.633604
0.498402
0.488922
0.481583
0.609882
0.610442
0.606301
0.373493
0.567337
0.557628
0.567082
0.553017
0.597342
0.601303
0.592572
0.5919
0.491714
0.496894
0.514442
0.555882
0.556295
0.547235
0.544745
0.533461
0.528179
0.354032
0.361551
0.344961
0.35673
0.386267
0.339825
0.634348
0.409474
0.416138
0.605163
0.58869
0.600339
0.598607
0.596479
0.594678
0.615335
0.610829
0.622652
0.611739
0.464962
0.474803
0.471794
0.443746
0.436058
0.437367
0.5235
0.523913
0.525404
0.513904
0.504434
0.398963
0.395859
0.437989
0.43054
0.447944
0.446097
0.440069
0.450602
0.459364
0.500222
0.543834
0.533832
0.535379
0.516808
0.5233
0.515947
0.397923
0.391005
0.383117
0.357554
0.390351
0.349991
0.375513
0.390383
0.395485
0.358353
0.369304
0.351989
0.332106
0.366873
0.344245
0.630802
0.628268
0.63008
0.626997
0.632249
0.62913
0.631373
0.634454
0.633817
0.628008
0.626793
0.584775
0.584893
0.595993
0.594733
0.598938
0.613182
0.610067
0.612242
0.611423
0.618801
0.61741
0.586969
0.595941
0.589646
0.591787
0.602358
0.601581
0.604054
0.603921
0.594458
0.605128
0.603517
0.595166
0.601179
0.6
0.598363
0.60866
0.598822
0.607621
0.609836
0.598426
0.610225
0.599603
0.612538
0.60829
0.594785
0.600071
0.571088
0.561346
0.561552
0.571591
0.556421
0.532372
0.546419
0.556972
0.551961
0.548282
0.52008
0.54318
0.528697
0.55308
0.557226
0.551758
0.559144
0.559403
0.561178
0.548263
0.550122
0.543812
0.574801
0.576652
0.579922
0.574283
0.562269
0.560751
0.568743
0.549138
0.547705
0.411335
0.412942
0.417108
0.403431
0.394667
0.407861
0.364728
0.347744
0.374949
0.357726
0.397391
0.41535
0.37628
0.401342
0.382068
0.423919
0.367715
0.373542
0.409746
0.396996
0.490074
0.482533
0.481307
0.470649
0.472007
0.437031
0.422524
0.437021
0.432171
0.475416
0.475979
0.473437
0.454836
0.464827
0.410609
0.421061
0.407879
0.395221
0.423129
0.442494
0.434009
0.416644
0.425305
0.419606
0.412794
0.520264
0.536915
0.543572
0.52973
0.488075
0.510985
0.56535
0.567956
0.565399
0.552098
0.533332
0.532743
0.543919
0.535618
0.624395
0.62244
0.626467
0.626038
0.62299
0.616782
0.616212
0.617674
0.62494
0.622681
0.621462
0.625684
0.623808
0.626535
0.507593
0.515902
0.500125
0.530554
0.53566
0.521511
0.508529
0.498571
0.522802
0.531504
0.539011
0.533507
0.520969
0.514266
0.532891
0.47593
0.469837
0.490151
0.510478
0.501169
0.501506
0.491648
0.490668
0.471268
0.500617
0.486664
0.484045
0.467486
0.482511
0.457673
0.449644
0.444216
0.455758
0.461695
0.596725
0.596629
0.595633
0.610927
0.612269
0.618912
0.582712
0.581194
0.592111
0.600806
0.589277
0.591787
0.585328
0.588771
0.579765
0.568361
0.582668
0.602668
0.607499
0.610741
0.602606
0.611615
0.495975
0.493835
0.488128
0.508652
0.510502
0.561703
0.592133
0.54446
0.538145
0.526851
0.529244
0.539119
0.519693
0.547682
0.555844
0.556378
0.56185
0.55494
0.577401
0.549974
0.564233
0.562045
0.514181
0.52646
0.520773
0.52993
0.51693
0.51954
0.520634
0.559535
0.547999
0.548442
0.534294
0.511348
0.554942
0.41912
0.469875
0.450671
0.451838
0.490129
0.482324
0.474014
0.567378
0.567284
0.570986
0.550854
0.559828
0.558099
0.598935
0.573106
0.55346
0.60888
0.590163
0.63837
0.631613
0.601593
0.634393
0.657018
0.535626
0.536716
0.539779
0.528657
0.543991
0.537455
0.5219
0.531585
0.548988
0.549722
0.545675
0.531639
0.553739
0.558878
0.531112
0.533802
0.559041
0.553914
0.543313
0.555555
0.537731
0.562607
0.566046
0.563781
0.55109
0.541827
0.533378
0.558351
0.545774
0.606408
0.606326
0.603668
0.607029
0.606946
0.604081
0.603239
0.597069
0.598953
0.602197
0.513439
0.510095
0.525159
0.496745
0.510145
0.512778
0.5121
0.510544
0.5049
0.541523
0.518626
0.52231
0.51819
0.502415
0.488828
0.50078
0.506395
0.50543
0.499613
0.494383
0.493568
0.495934
0.490245
0.540027
0.525117
0.557569
0.532673
0.523567
0.525068
0.522989
0.525063
0.516924
0.535028
0.533524
0.531381
0.586209
0.587781
0.587012
0.591389
0.59098
0.595925
0.589202
0.590623
0.591501
0.57813
0.58163
0.581306
0.577664
0.573255
0.580835
0.577925
0.57793
0.560049
0.554275
0.565027
0.561477
0.5632
0.587372
0.582763
0.583579
0.582768
0.775259
0.774811
0.762729
0.634439
0.640399
0.598469
0.618308
0.658069
0.651677
0.704045
0.690554
0.658192
0.747497
0.743731
0.694254
0.682014
0.524407
0.520454
0.510741
0.504351
0.517854
0.494666
0.534057
0.539048
0.542166
0.543658
0.524151
0.521534
0.568282
0.576329
0.567629
0.573709
0.559651
0.728992
0.692338
0.68826
0.676183
0.669975
0.6229
0.682521
0.612383
0.662407
0.687494
0.678731
0.640753
0.563775
0.568903
0.569567
0.571754
0.570638
0.585028
0.588374
0.583379
0.579895
0.576532
0.570362
0.579139
0.524948
0.518991
0.505981
0.510496
0.511436
0.51414
0.496306
0.520894
0.520901
0.486069
0.474047
0.509164
0.491652
0.5263
0.488473
0.496986
0.529845
0.503724
0.526438
0.520737
0.531738
0.544069
0.518669
0.510649
0.495211
0.51059
0.548116
0.550899
0.520119
0.528959
0.503166
0.507149
0.529407
0.520578
0.703293
0.684101
0.711152
0.620536
0.64322
0.639573
0.648468
0.651465
0.732302
0.723088
0.689354
0.647939
0.7181
0.724279
0.671486
0.662404
0.626924
0.593753
0.560937
0.607568
0.592988
0.620958
0.632416
0.629594
0.627863
0.494184
0.519396
0.512832
0.50138
0.556086
0.556235
0.499399
0.541554
0.536775
0.548876
0.538368
0.516903
0.518655
0.558528
0.558189
0.564853
0.560441
0.561692
0.557544
0.622842
0.572029
0.605847
0.622409
0.847741
0.877511
0.8361
0.801141
0.732227
0.67371
0.727152
0.66564
0.744252
0.799429
0.762254
0.790233
0.828732
0.792311
0.78654
0.751906
0.761243
0.773873
0.520879
0.504125
0.518383
0.500827
0.515566
0.493539
0.50696
0.487204
0.508676
0.526307
0.521486
0.592354
0.569442
0.540867
0.576213
0.535534
0.498901
0.514266
0.521349
0.498548
0.516452
0.514937
0.630017
0.596548
0.598592
0.61012
0.575863
0.551878
0.553456
0.57047
0.571993
0.573798
0.558261
0.554177
0.565811
0.576565
0.573461
0.571324
0.570697
0.576038
0.567603
0.52749
0.531813
0.533322
0.528266
0.518
0.514655
0.51159
0.528399
0.528698
0.537313
0.49912
0.491176
0.548349
0.534878
0.54137
0.522081
0.542981
0.531163
0.961798
0.949841
0.973476
0.977582
0.959502
0.950883
0.93334
0.979978
0.931754
0.898751
0.769439
0.81575
0.819481
0.829287
0.836238
0.561123
0.558461
0.560928
0.56058
0.559452
0.558602
0.548127
0.555515
0.557401
0.557623
0.558106
0.558879
0.557792
0.592648
0.581895
0.574183
0.524876
0.538015
0.529048
0.5199
0.590015
0.561757
0.511205
0.560892
0.538591
0.532516
0.561263
0.553323
0.533136
0.509692
0.525617
0.508482
0.963532
0.932074
0.950102
0.803872
0.816851
0.846524
0.879425
0.671096
0.704948
0.659362
0.718743
0.759456
0.762158
0.7562
0.75365
0.850919
0.82229
0.807177
0.717448
0.746886
0.725896
0.750319
0.721814
0.76534
0.778956
0.790817
1.02518
1.05046
1.05308
1.08679
1.2047
1.20224
1.23935
1.18412
1.19724
1.05703
1.0389
0.98134
1.0553
1.05557
0.959143
0.796083
0.806683
0.765478
0.847684
0.813256
0.86976
0.989644
1.05033
0.956534
0.879949
0.973596
0.909615
0.787384
0.740606
0.70283
0.809188
0.811105
0.948088
0.929562
0.892149
0.869942
0.845006
0.56122
0.571232
0.559037
0.550835
0.553865
0.536451
0.569129
0.564405
0.553345
0.549594
0.843249
0.862767
1.21316
1.16413
1.18288
1.15011
1.06075
1.0817
1.01799
1.07457
1.06361
0.975206
0.918549
1.25462
1.22923
1.14335
1.17662
1.20386
1.16446
1.38888
1.38979
1.3677
1.24158
1.27728
1.31231
1.28302
1.32034
1.34514
1.33014
1.35234
1.30991
1.17258
1.21453
1.12556
1.26123
1.26834
1.28956
1.28443
1.29026
1.28175
0.549078
0.549253
0.553934
0.535076
0.540807
0.536585
0.535514
0.542988
0.542915
1.0575
1.09047
1.04222
1.04473
1.00748
1.0146
0.974556
1.09283
1.09827
1.32471
1.30026
1.31258
1.28406
0.635661
0.601757
0.63465
0.58393
0.675157
0.682363
0.636428
0.616866
0.723251
0.737931
1.30361
1.33012
1.36496
1.37787
1.34897
1.27972
1.32095
1.30162
1.34936
1.30646
1.31255
1.28523
1.34419
1.31769
1.36678
0.740925
0.773086
0.961472
0.969169
0.924432
1.01715
0.827565
0.879263
0.939938
0.889181
0.886253
1.19283
1.1989
1.08902
1.14605
0.9847
1.02328
1.05479
1.01925
0.939902
0.975679
1.05361
1.04197
1.07749
1.0203
0.986631
1.03712
1.11289
1.06882
0.510384
0.485709
0.477531
0.514871
0.513822
0.499809
0.485149
0.466973
0.488165
0.454949
0.469772
0.486418
0.491369
0.483377
0.484891
0.481799
0.476343
0.530641
0.562055
0.497338
0.557858
0.656068
0.586635
0.543337
0.638409
0.598881
0.838788
0.737108
0.805424
0.755153
0.785147
0.864361
0.696569
0.679231
0.686661
0.732329
0.742526
0.763881
0.811491
0.772844
0.778651
0.73047
0.695548
0.675155
0.678121
0.636749
0.661955
0.745333
0.713973
1.22776
1.21907
1.27441
1.25726
1.26314
1.2969
1.28108
1.33987
1.36136
1.3959
1.3919
1.3822
1.34692
0.545809
0.519616
0.536495
0.539854
0.552654
0.54746
0.553441
0.553191
0.547391
0.554817
0.540881
0.554321
0.548146
0.549675
0.548544
0.834445
0.814295
0.776234
0.881969
0.810678
0.811636
0.76223
0.803151
0.543513
0.544612
0.550536
0.547631
0.548644
0.548873
0.549481
0.54966
0.541154
0.540978
0.539193
0.54828
0.543374
0.522656
0.5157
0.507643
0.502097
0.515732
0.504932
0.473782
0.484156
0.500928
0.50551
0.478124
0.493405
0.492368
0.479986
0.502849
0.475554
0.492558
0.652383
0.658507
0.65343
0.657097
0.631648
0.664837
0.723455
0.705728
0.713286
0.667212
0.660834
0.713495
0.691879
0.568127
0.583208
0.553016
0.573679
0.580585
0.583684
0.539164
0.547191
0.576157
0.559262
0.591423
0.576705
0.55654
0.650422
0.5911
0.618208
0.633702
0.577977
0.592271
0.618609
0.616761
0.6134
0.617345
0.613585
0.665714
0.6588
0.65749
0.672631
0.692881
0.666286
0.659284
0.657538
0.617325
0.618641
0.605365
0.665447
0.682369
0.613003
0.598691
0.659917
0.665604
0.669945
0.613113
0.645268
0.574158
0.622875
0.639666
0.611266
0.626311
0.592054
0.893044
0.84903
0.889396
0.762433
0.729527
0.817478
0.876356
0.812581
0.769007
0.832841
0.789141
0.685982
0.756264
0.710063
0.75042
0.793629
0.820123
0.736127
0.686054
0.689099
0.658454
0.68779
0.625117
0.632362
0.620959
0.605621
0.623979
0.597413
0.602106
0.565533
0.570927
0.572414
0.5783
0.584175
0.586331
0.5958
0.583322
0.604543
0.578891
0.58792
0.588219
0.565607
0.584695
0.592741
0.555881
0.575562
0.561368
0.639963
0.629843
0.638135
0.686345
0.645199
0.700295
0.722463
0.677157
0.701263
1.0959
1.09579
1.06333
0.863134
0.865147
0.872526
0.880858
0.831068
0.827551
0.828752
0.774472
0.826396
0.803731
0.772272
0.746464
0.546364
0.549486
0.558627
0.562614
0.546388
0.555762
0.549568
0.538014
0.548967
0.548318
0.522515
0.516913
0.541039
0.551458
0.553443
0.545894
0.558277
0.552218
0.552182
0.551374
0.770668
0.730298
0.700545
0.685882
0.816475
0.799659
0.752394
0.703583
0.785005
0.759336
0.737345
0.732801
1.34314
1.31726
0.582664
0.600991
0.570435
0.624952
0.629587
0.613885
0.63433
0.578849
0.536381
0.543721
0.486069
0.516484
0.49495
0.515184
0.53582
0.533397
0.511182
0.529141
0.469415
0.52295
0.489373
0.98871
0.975456
0.958089
1.06107
1.00963
1.01505
1.00335
0.961122
1.0604
1.08598
1.05019
1.11124
1.09274
1.14343
1.17135
0.55087
0.592425
0.590574
0.645719
0.563927
0.661332
0.691229
0.683391
0.678122
0.6864
0.596187
0.635606
0.629694
1.24293
1.27773
1.26675
1.24925
1.2548
1.28907
1.28395
0.934448
0.950298
0.913497
0.529852
0.532588
0.538392
0.536809
0.535845
0.986757
1.05999
1.07115
1.0199
1.14311
1.10973
1.08731
1.11952
1.22496
1.20319
1.1909
1.19668
1.27028
1.25313
1.22349
1.20921
1.29594
1.27246
1.27371
1.25334
1.25057
1.23603
1.24882
1.23852
1.19384
1.19204
1.26271
1.23485
1.22135
1.17792
1.18906
1.17345
1.12011
1.3233
1.31426
1.31678
1.3677
1.33405
1.31197
1.32008
1.33735
1.30179
1.3606
1.32716
0.648887
0.702603
0.708196
0.66909
0.690868
0.645943
0.733965
0.684799
0.645893
0.903016
0.896547
0.930673
0.874543
0.888443
0.860568
0.967634
0.948014
0.926794
0.908792
0.947591
0.965639
1.13847
1.06664
1.16508
1.15145
1.15938
1.11183
1.15654
1.14283
1.11911
1.15295
1.15311
1.123
1.16811
1.16999
1.21518
1.1975
0.807773
0.873936
0.818561
0.881223
0.910007
0.910727
0.906988
0.852993
0.828162
0.862985
0.904889
0.876993
0.482215
0.525029
0.512129
0.503375
0.530703
0.527624
0.531618
0.522866
0.52265
0.512595
0.545058
0.517795
0.546112
0.561371
0.507834
0.536489
0.583458
0.603178
0.543283
0.587807
0.560581
0.535028
0.528802
0.600024
0.570886
0.55566
0.548981
0.576335
0.554416
0.706871
0.748249
0.757729
0.706892
0.763168
0.772038
0.678074
0.635571
0.545938
0.554054
0.556173
0.552262
0.5567
0.553619
0.550862
0.5525
0.555734
0.552949
0.553645
0.557378
0.560495
0.558469
0.552405
0.540356
0.557404
0.559895
0.559881
0.559796
0.560699
0.564465
0.83985
0.817204
0.814005
0.862869
0.856043
0.872944
0.864692
0.896662
0.896018
0.877873
1.04853
1.08274
1.06379
1.02698
1.03505
1.04679
1.05844
0.994478
1.0297
1.03333
0.989694
1.00049
0.971977
0.972448
1.00756
1.00522
0.483976
0.502951
0.502758
0.488799
0.503162
0.500016
0.497064
0.507123
0.486233
0.491443
0.485137
0.500029
0.489827
0.500856
0.485932
0.490647
0.493521
0.491518
0.484052
0.497992
0.473741
0.481363
0.468303
0.483288
0.484587
0.493185
0.491202
0.473003
0.486708
0.457176
0.7719
0.77029
0.720545
0.690101
0.758647
0.746839
0.708136
0.696575
0.723531
0.754613
0.585239
0.575927
0.572669
0.555808
0.510333
0.536897
0.524855
0.50912
0.492602
0.536586
0.533599
0.531952
0.525953
0.519267
0.522439
0.52504
0.514298
0.516004
0.555386
0.541848
0.532028
0.542005
0.515838
0.501805
0.549117
0.524334
0.531391
0.556603
0.57621
0.569857
0.575071
0.564413
0.55755
0.568144
0.568643
0.549616
0.543515
0.566365
0.555576
0.557366
0.565317
0.566774
0.568637
0.567141
0.662808
0.637055
0.629789
0.634995
0.668453
0.613824
0.608851
0.576467
0.502102
0.492133
0.514102
0.486254
0.511569
0.515204
0.512039
0.565394
0.548253
0.591962
0.590292
0.604913
0.619642
0.610861
0.628644
0.655784
0.662699
0.652367
0.698384
0.692517
0.715706
0.66561
0.707136
0.695164
0.72703
0.728857
0.724005
0.703627
0.565602
0.557188
0.562022
0.576723
0.573368
0.565372
0.573086
0.569326
0.565184
0.570401
0.568767
0.567177
0.564434
0.571686
0.571231
0.572445
0.554038
0.567001
0.566556
0.556766
0.56032
0.565426
0.586177
0.586221
0.588434
0.589846
0.584431
0.584199
0.586489
0.586786
0.505874
0.487853
0.491862
0.510156
0.516659
0.475279
0.512688
0.496938
0.504889
0.505481
0.491585
0.487806
0.505127
0.498591
0.474536
0.488885
0.502672
0.498427
0.487192
0.485749
0.590621
0.574886
0.547258
0.531559
0.570887
0.511852
0.557547
0.516128
0.539239
0.548288
0.523783
0.60199
0.591779
0.597848
0.598975
0.600113
0.604747
0.59793
0.595077
0.594907
0.5918
0.603471
0.602929
0.534196
0.550366
0.557318
0.539868
0.562019
0.546121
0.504182
0.523287
0.543077
0.516927
0.521713
0.535607
0.513056
0.544221
0.532167
0.528699
0.515729
0.520424
0.524548
0.531884
0.519436
0.529118
0.536647
0.522506
0.673052
0.651871
0.669107
0.717696
0.680829
0.649201
0.663483
0.665145
0.53213
0.506748
0.509366
0.504551
0.506206
0.506543
0.493929
0.572074
0.596862
0.561523
0.587353
0.611294
0.599173
0.615275
0.616513
0.609612
0.574312
0.607426
0.458516
0.457088
0.444797
0.454184
0.473091
0.446554
0.458274
0.449385
0.462092
0.496195
0.510685
0.527657
0.552279
0.566483
0.571508
0.563456
0.529466
0.520446
0.522186
0.54023
0.545825
0.525539
0.51974
0.58637
0.593868
0.595797
0.579279
0.596506
0.596574
0.608806
0.608179
0.607301
0.602245
0.60247
0.595823
0.601725
0.597406
0.492336
0.48338
0.496467
0.456624
0.478953
0.483712
0.472578
0.491764
0.486282
0.508282
0.513867
0.518349
0.511952
0.50316
0.504441
0.626732
0.622984
0.621457
0.619205
0.611808
0.621767
0.620939
0.61963
0.622531
0.62382
0.598779
0.603805
0.602989
0.602516
0.60298
0.604118
0.594091
0.602589
0.603866
0.591205
0.598115
0.609024
0.597653
0.598575
0.444366
0.440724
0.455241
0.461972
0.446418
0.443113
0.446798
0.450452
0.454509
0.463694
0.453844
0.45052
0.46529
0.611143
0.592014
0.590856
0.574202
0.556693
0.563775
0.573293
0.558257
0.555156
0.555655
0.608289
0.600431
0.6055
0.596038
0.616295
0.611657
0.625315
0.631351
0.631686
0.622744
0.613775
0.617938
0.627871
0.624291
0.627302
0.626531
0.571456
0.565028
0.590103
0.589096
0.431219
0.431502
0.465727
0.467391
0.468591
0.512408
0.543313
0.529717
0.564961
0.538639
0.55242
0.536134
0.518539
0.567854
0.555755
0.513475
0.546491
0.547072
0.560614
0.564543
0.558181
0.563592
0.56008
0.546543
0.480871
0.483989
0.51648
0.497102
0.508669
0.50543
0.51319
0.497773
0.483403
0.474075
0.503573
0.507031
0.49246
1.193
1.20725
1.17307
1.19949
1.26704
1.23565
1.19601
1.26882
1.25565
1.29773
1.25126
1.26945
1.2824
1.05495
1.06254
1.1233
1.10094
1.10895
1.1336
1.12732
0.985768
0.880905
0.957285
0.922716
0.946347
0.909698
0.98503
1.01177
0.933555
0.946372
0.868254
0.585172
0.51965
0.547398
0.524405
0.549534
0.580183
0.576041
0.551976
0.515802
0.542738
0.532379
0.556859
0.601465
0.561112
0.611342
0.602624
0.776777
0.834844
0.876521
0.797304
0.780785
0.857419
0.897428
0.882764
0.894242
0.890782
0.874723
0.878596
0.894856
0.534013
0.569248
0.563043
0.544145
0.563315
0.570975
0.570683
0.59488
0.635731
0.613168
0.543335
0.575271
0.587759
0.579228
0.572399
0.605174
0.576308
0.571702
0.576372
0.606296
0.600071
0.557851
0.559383
0.620908
0.605856
0.615111
0.567614
0.586954
0.573066
0.518623
0.542374
0.534739
0.579012
0.578032
0.581498
0.547292
0.562941
0.57106
0.562458
0.56958
0.578538
0.580818
0.584688
0.399449
0.376117
0.387367
0.386071
0.378098
0.394025
0.471463
0.45662
0.47214
0.480575
0.467854
0.401152
0.420627
0.417964
0.420471
0.398746
0.378244
0.394269
0.404293
0.582066
0.462163
0.464324
0.448033
0.462639
0.464093
0.488389
0.472023
0.463012
0.493006
0.494649
0.437369
0.43465
0.439769
0.371401
0.377952
0.628641
0.634219
0.634267
0.608261
0.622086
0.619413
0.603322
0.600487
0.617
0.612216
0.572186
0.585077
0.588271
0.593375
0.597255
0.596068
0.5937
0.595467
0.599165
0.596407
0.588046
0.583861
0.599696
0.570621
0.5811
0.563473
0.557082
0.565959
0.576661
0.568879
0.518294
0.521487
0.528341
0.536771
0.540124
0.522734
0.537915
0.541684
0.550272
0.523874
0.533452
0.518653
0.523069
0.522773
0.513962
0.504571
0.528222
0.51328
0.513002
0.514035
0.493531
0.399703
0.424339
0.41461
0.410274
0.421073
0.43069
0.442003
0.445527
0.42687
0.432601
0.45467
0.465181
0.447083
0.451257
0.480948
0.476261
0.466486
0.485849
0.500163
0.502107
0.491569
0.472608
0.468921
0.465101
0.479778
0.4664
0.476473
0.476423
0.47029
0.471944
0.612201
0.617861
0.610158
0.615983
0.611854
0.617865
0.619025
0.616178
0.616913
0.614161
0.617916
0.618422
0.481252
0.469553
0.480346
0.488304
0.480648
0.498634
0.482861
0.473094
0.488377
0.48505
0.499007
0.501009
0.509761
0.498904
0.485088
0.494831
0.494662
0.495227
0.495223
0.492544
0.608006
0.609335
0.606388
0.520997
0.503859
0.514696
0.513344
0.513644
0.536314
0.525634
0.513745
0.518381
0.523497
0.520032
0.532368
0.518603
0.661851
0.679376
0.495853
0.51858
0.518481
0.527886
0.534439
0.53161
0.526593
0.526381
0.591326
0.599653
0.565496
0.586538
0.579488
0.546287
0.562094
0.53769
0.582277
0.5612
0.498261
0.49643
0.49334
0.503851
0.516509
0.524202
0.507109
0.508199
0.499291
0.496558
0.518628
0.488698
0.51577
0.512055
0.504083
0.48276
0.512202
0.498903
0.535221
0.506263
0.516595
0.50573
0.520985
0.522733
0.523804
0.657928
0.638049
0.509132
0.501375
0.49654
0.476445
0.544995
0.567603
0.581081
0.545789
0.578419
0.50947
0.506395
0.61039
0.576951
0.607035
0.576364
0.543097
0.512803
0.503765
0.681801
0.642452
0.699792
0.474298
0.458278
0.713535
0.683507
0.630741
0.604219
0.723506
0.702066
0.629255
0.615652
0.684413
0.647599
0.616949
0.613962
0.638971
0.636515
0.608255
0.565777
0.542819
0.555808
0.547268
0.545284
0.54497
0.558233
0.563768
0.568324
0.560912
0.540846
0.46477
0.494019
0.483261