/*--------------------------------*- C++ -*----------------------------------*\
| =========                 |                                                 |
| \\      /  F ield         | OpenFOAM: The Open Source CFD Toolbox           |
|  \\    /   O peration     | Version:  v1612+                                |
|   \\  /    A nd           | Web:      www.OpenFOAM.com                      |
|    \\/     M anipulation  |                                                 |
\*---------------------------------------------------------------------------*/
FoamFile
{
    version     2.0;
    format      ascii;
    class       volVectorField;
    location    "100";
    object      wallShearStress;
}
// * * * * * * * * * * * * * * * * * * * * * * * * * * * * * * * * * * * * * //

dimensions      [0 2 -2 0 0 0 0];

internalField   uniform (0 0 0);

boundaryField
{
    WALL
    {
        type            calculated;
        value           nonuniform List<vector> 
1487
(
(0.00108057 -0.00811465 0.00607716)
(0.000961274 -0.00805059 0.00610957)
(0.00135664 -0.00909173 0.00498567)
(0.00102732 -0.0097071 0.00520278)
(0.00178344 -0.00766476 0.00599391)
(0.0031912 -0.00746658 0.00681329)
(0.000706567 -0.00472058 0.00843964)
(0.00143747 -0.00454603 0.00873421)
(-0.00127587 -0.00540654 0.00622184)
(-0.00155309 -0.00524439 0.00616102)
(0.00153139 -0.0145241 0.0136508)
(0.000377638 -0.0137532 0.0140525)
(0.000772548 -0.0078484 0.0058672)
(0.000618212 -0.00748263 0.00604728)
(0.00249389 -0.0144094 0.0081871)
(0.00280377 -0.0150174 0.00866791)
(3.09408e-05 -0.00750012 0.0057464)
(-9.17454e-05 -0.00730774 0.00555652)
(0.0019884 -0.0123478 0.00718313)
(0.00233794 -0.0128141 0.00775533)
(0.0010958 -0.0128295 0.0101625)
(0.00129199 -0.013094 0.010208)
(-0.000618776 -0.00582628 0.00615096)
(-0.000708887 -0.00630087 0.0060311)
(0.0027224 -0.0136914 0.00966863)
(0.00269318 -0.013545 0.0102474)
(0.00130393 -0.0156158 0.0128809)
(0.000912971 -0.0159742 0.0128759)
(0.000961648 -0.0101686 0.00616238)
(0.000439468 -0.0095068 0.00566852)
(-0.00086939 -0.00626604 0.00606117)
(-0.000745765 -0.0063529 0.00611321)
(-0.000410779 -0.00526477 0.00657488)
(5.70537e-06 -0.00499375 0.00668031)
(0.00446021 -0.00738364 0.0091196)
(0.00434707 -0.00709394 0.00884093)
(-9.06026e-05 -0.0133729 0.00907765)
(7.2764e-05 -0.0132113 0.00854599)
(0.0015212 -0.0064101 0.00589478)
(0.00108511 -0.00632616 0.00588026)
(0.00106045 -0.00513284 0.00639066)
(0.00196709 -0.00583464 0.00684402)
(0.00242443 -0.00463421 0.00977439)
(0.00264933 -0.00355396 0.0109303)
(-0.00211837 -0.00414842 0.00808944)
(-0.00179549 -0.00470984 0.00694937)
(-0.00126683 -0.00388392 0.00841762)
(0.00145252 -0.0147201 0.0124241)
(0.00168088 -0.0166368 0.0134421)
(0.00284113 -0.0150659 0.00880448)
(0.00271769 -0.0137138 0.00973357)
(0.00692459 -0.0101616 0.0108459)
(0.0059063 -0.0113317 0.0101838)
(0.00543733 -0.0122003 0.00985791)
(0.00515689 -0.0107257 0.00905412)
(0.00556448 -0.0117232 0.00983686)
(0.00571477 -0.0103105 0.00977714)
(0.00549266 -0.0107993 0.0095781)
(0.000587764 -0.00876769 0.00657922)
(0.000615919 -0.00809653 0.00629936)
(0.000473138 -0.00846472 0.00643211)
(0.00101056 -0.00790139 0.00586885)
(0.000686284 -0.00830382 0.00619308)
(0.000954742 -0.00862818 0.00657915)
(0.00127145 -0.00847868 0.00629681)
(0.000746858 -0.00833577 0.00637117)
(-0.000435131 -0.00827374 0.00577091)
(-0.000345503 -0.00845741 0.00571717)
(-0.000533059 -0.00876351 0.00559067)
(-0.000276452 -0.0081325 0.00551798)
(-0.000204836 -0.00912879 0.00578615)
(-0.000414428 -0.00871876 0.00574434)
(0.00297658 -0.0153665 0.00955713)
(0.00301282 -0.0143937 0.00952772)
(0.00299179 -0.0147309 0.00977683)
(0.0030485 -0.0148656 0.0097571)
(0.00281072 -0.0151803 0.0102045)
(0.00264961 -0.0142749 0.0095756)
(0.00250648 -0.0135406 0.00797311)
(0.00288836 -0.0147306 0.00895487)
(0.00281921 -0.0142341 0.00911216)
(0.00272415 -0.0128625 0.00817421)
(0.00287971 -0.0134666 0.00902078)
(-0.000609433 -0.0124468 0.00837746)
(-0.000607611 -0.0124327 0.00893901)
(0.00399421 -0.00710741 0.0137168)
(0.00367101 -0.00682804 0.0149216)
(0.00400585 -0.00551909 0.0144505)
(0.00376346 -0.00539535 0.0152273)
(0.00457166 -0.00625411 0.0136036)
(0.00429709 -0.00648835 0.0134298)
(0.0045296 -0.00688516 0.00855222)
(0.00393202 -0.00680302 0.00735983)
(0.0038591 -0.00711059 0.00746201)
(0.00489508 -0.00654435 0.00914813)
(0.00421314 -0.00747308 0.00799176)
(0.00376845 -0.00949644 0.00751077)
(0.00314972 -0.00861813 0.00692475)
(0.00327819 -0.00864344 0.0071185)
(0.00347694 -0.00956942 0.00732947)
(0.0038071 -0.00949498 0.00779349)
(0.00349999 -0.00837862 0.00740566)
(0.00203518 -0.0167693 0.0134985)
(0.00212849 -0.0148154 0.0116987)
(0.00327068 -0.0156215 0.0123723)
(0.00323909 -0.0149293 0.0114581)
(0.00268953 -0.0151865 0.0117686)
(0.00240393 -0.0157806 0.0128456)
(0.00180245 -0.0036224 0.0107577)
(0.000949898 -0.00300443 0.0105155)
(-0.00156803 -0.00384944 0.00748413)
(-0.00129431 -0.00423843 0.00845332)
(-0.00208227 -0.00415888 0.0075635)
(-0.00172387 -0.00435909 0.00770161)
(-0.00183538 -0.0036964 0.00839599)
(0.000120642 -0.00382104 0.00926464)
(0.000166402 -0.00336561 0.00954487)
(-0.000291757 -0.00383866 0.00874516)
(-0.000147617 -0.00344348 0.00986562)
(-0.000694344 -0.00363958 0.00877909)
(-0.000736636 -0.0033729 0.00920937)
(0.00233845 -0.0149815 0.0127817)
(0.00280059 -0.0140878 0.0123531)
(0.00171121 -0.0150529 0.013318)
(0.00202359 -0.0143338 0.0125388)
(0.00131858 -0.0133108 0.0130434)
(0.00213849 -0.0135305 0.0126226)
(0.00636242 -0.0116599 0.0106859)
(0.00687078 -0.0121815 0.0113952)
(0.00628622 -0.0126888 0.0112249)
(0.00576327 -0.0122093 0.0103932)
(0.00690125 -0.0111643 0.0107932)
(0.00578151 -0.0133307 0.0110243)
(0.00365231 -0.0144723 0.0117008)
(0.00455464 -0.0141863 0.011783)
(0.00484075 -0.0132522 0.0109599)
(0.00410563 -0.0141989 0.0113186)
(0.00505505 -0.0142193 0.0112729)
(0.00407958 -0.0137159 0.0112685)
(0.0040771 -0.00746464 0.00830567)
(0.00360437 -0.00674372 0.0079213)
(0.00421726 -0.00759669 0.00810382)
(0.00396479 -0.0078083 0.00781028)
(0.00365125 -0.00636066 0.0079375)
(0.00359759 -0.00772444 0.00778361)
(0.00015837 -0.00537014 0.00659367)
(0.00049693 -0.00555597 0.00685425)
(0.000108883 -0.00491155 0.00728432)
(-0.000138464 -0.00520446 0.00662937)
(-0.000131103 -0.00523521 0.00673973)
(0.000235233 -0.0048389 0.00723478)
(0.00261562 -0.00558862 0.00747366)
(0.00332201 -0.00604988 0.00840971)
(0.00315061 -0.00568877 0.0088695)
(0.00248512 -0.00561674 0.00794016)
(0.00252981 -0.00534644 0.00819546)
(0.00330764 -0.00607988 0.00798871)
(0.0026507 -0.00648754 0.00701294)
(0.00335314 -0.00693519 0.00704931)
(0.00248533 -0.00681156 0.00657101)
(0.00253203 -0.00621065 0.00677002)
(0.00274804 -0.00718492 0.00646522)
(0.00314961 -0.00731539 0.00719531)
(0.00153806 -0.00585862 0.00634785)
(0.00147854 -0.00572167 0.00679674)
(0.00165163 -0.00617581 0.00638664)
(0.0014078 -0.00606663 0.00613142)
(0.00151675 -0.00707008 0.00578043)
(0.0010729 -0.00683994 0.00587331)
(0.00138354 -0.00713389 0.00605382)
(0.00144539 -0.00671424 0.00565437)
(0.00133879 -0.00654389 0.00570093)
(0.0011909 -0.00931778 0.00489859)
(0.00154181 -0.00915637 0.00503479)
(0.00157607 -0.00828293 0.00476246)
(0.00159012 -0.00880331 0.00517778)
(0.00123792 -0.00886831 0.00491063)
(0.00156263 -0.00880592 0.004962)
(0.00134067 -0.00941329 0.00499043)
(0.00153206 -0.0105125 0.00592336)
(0.00122831 -0.0104433 0.00572976)
(0.00120674 -0.00923814 0.00494603)
(0.00138095 -0.00985324 0.00539016)
(0.00147213 -0.00970805 0.0054997)
(0.00112382 -0.0106325 0.00576262)
(0.000942351 -0.0101121 0.00539546)
(0.00115099 -0.00984542 0.00536046)
(0.00236191 -0.0117901 0.00745434)
(0.00239127 -0.0128946 0.00816684)
(0.002397 -0.0118872 0.00742199)
(0.00213048 -0.0126015 0.00804911)
(0.00195445 -0.0118471 0.00735509)
(0.00176141 -0.0130189 0.00812517)
(0.000959697 -0.0136683 0.00853003)
(0.000439249 -0.0124653 0.00764137)
(0.00044481 -0.0141754 0.00868508)
(0.000863179 -0.012992 0.00759109)
(0.000650242 -0.0118231 0.00700996)
(0.00127823 -0.0126547 0.00753546)
(0.00112742 -0.0134836 0.00814102)
(0.00122353 -0.0118874 0.00687291)
(0.00203324 -0.0111004 0.00677392)
(0.00156695 -0.0114098 0.00683436)
(0.00139488 -0.0107776 0.00623276)
(0.00135982 -0.0111448 0.00646577)
(0.0019073 -0.0104405 0.00641088)
(0.00167887 -0.00728824 0.00608326)
(0.00157513 -0.0063556 0.00545903)
(0.00144538 -0.00654946 0.00564271)
(0.00174027 -0.00703208 0.00565056)
(0.00172486 -0.00656045 0.00622806)
(0.000490649 -0.014168 0.00975861)
(0.000559539 -0.0143026 0.0095142)
(0.000357749 -0.0145254 0.0098841)
(0.000857884 -0.0148575 0.0095831)
(0.00065997 -0.0144457 0.0100427)
(0.000576422 -0.0144536 0.00970386)
(0.00100888 -0.014152 0.00924863)
(0.00108543 -0.0137055 0.00879498)
(0.00150046 -0.0136945 0.00862459)
(0.00159331 -0.014751 0.00945509)
(0.00175786 -0.0138611 0.00875899)
(-0.000727374 -0.0119121 0.00730634)
(-0.000685405 -0.0122087 0.00761139)
(-0.000863305 -0.0120859 0.0078048)
(-0.000623503 -0.0119956 0.00748567)
(-0.000690308 -0.0116821 0.00693648)
(-0.000645563 -0.0118207 0.0070331)
(-0.000507578 -0.0111732 0.0059463)
(-0.000313163 -0.0112495 0.00583441)
(-0.000274584 -0.0113957 0.0063643)
(-0.000131802 -0.0111976 0.00607912)
(1.8706e-05 -0.0108009 0.00578093)
(-0.000425725 -0.0114623 0.00634191)
(0.00499001 -0.00542109 0.00860346)
(0.00509732 -0.00586755 0.00943091)
(0.00494703 -0.00525308 0.00998976)
(0.00262553 -0.00695047 0.00587803)
(0.00190018 -0.00727656 0.00579132)
(0.00318696 -0.0075382 0.00659179)
(0.0034531 -0.00652275 0.00660555)
(0.0035565 -0.00710581 0.00718029)
(0.00259595 -0.00683718 0.00595095)
(0.00399644 -0.00674212 0.00719598)
(0.00238475 -0.0076482 0.00609134)
(0.00483749 -0.00636147 0.0117598)
(0.00477644 -0.00703329 0.0104935)
(0.00489184 -0.00675512 0.0123059)
(0.00514218 -0.00682237 0.0106685)
(0.0050629 -0.005885 0.0111156)
(0.00475221 -0.00721799 0.0112626)
(0.00142739 -0.00717747 0.0168899)
(0.00318112 -0.00651871 0.0169492)
(0.0020735 -0.00736131 0.016379)
(0.00253997 -0.00561892 0.0160368)
(-0.00103149 -0.0053537 0.0063262)
(-0.00111329 -0.00522886 0.00708052)
(-0.000989543 -0.0058966 0.00654201)
(-0.00113308 -0.00508131 0.00667528)
(-0.00130154 -0.00557691 0.0066098)
(-0.00102309 -0.00523492 0.00690135)
(-0.000398644 -0.00694286 0.00544503)
(-0.000313865 -0.00672955 0.00501995)
(-0.000493407 -0.0067873 0.00537477)
(-0.000316408 -0.0069565 0.00538273)
(-0.000182487 -0.00732794 0.0052147)
(6.20922e-05 -0.00738312 0.00525326)
(-0.000233821 -0.00665214 0.00537298)
(-0.000119741 -0.00685069 0.00519813)
(-0.000511699 -0.00665268 0.00517439)
(0.000247291 -0.00702599 0.00521134)
(-0.000573292 -0.0065497 0.00529442)
(-6.70175e-05 -0.00709179 0.00518439)
(0.00047902 -0.00670305 0.00520687)
(6.38468e-05 -0.00657364 0.00519836)
(-5.20268e-06 -0.00664623 0.00530204)
(0.000924697 -0.00662225 0.00504266)
(0.00056027 -0.0072589 0.00538358)
(-0.0016166 -0.00571061 0.00569259)
(-0.00145023 -0.00569577 0.00572967)
(-0.000868678 -0.00580861 0.00510539)
(-0.000612453 -0.00624971 0.00533862)
(-0.000945459 -0.00602178 0.00544933)
(-0.000287468 -0.00624942 0.00524582)
(-0.00132589 -0.00576463 0.00560076)
(0.00146043 -0.00956223 0.00576362)
(0.00180085 -0.00985754 0.00625532)
(0.00172766 -0.0112826 0.00693727)
(0.00127448 -0.0106963 0.00619567)
(0.00221327 -0.0107793 0.00687702)
(0.000949481 -0.0100742 0.00598323)
(-0.000453781 -0.0083502 0.00564932)
(-0.000194641 -0.00906417 0.00562807)
(0.000204428 -0.00881308 0.00556658)
(-0.000415657 -0.00815805 0.00545894)
(-0.000230114 -0.00833697 0.00555193)
(-5.49252e-05 -0.00918513 0.00578775)
(0.00109797 -0.0104815 0.00608728)
(0.000482158 -0.00974601 0.00580339)
(0.000839323 -0.0101212 0.00572916)
(0.00104135 -0.00974403 0.00584451)
(0.00108101 -0.00986663 0.0058697)
(0.000682287 -0.00993384 0.00604921)
(0.000953528 -0.00820481 0.00560261)
(0.000999124 -0.00785064 0.00539589)
(0.000711769 -0.0077465 0.00541233)
(0.000389824 -0.00793129 0.00518394)
(0.000238188 -0.00761468 0.00518651)
(0.00017816 -0.00742584 0.00517676)
(0.0035628 -0.00908279 0.00809864)
(0.00347187 -0.00955414 0.00805578)
(0.0037932 -0.00938735 0.00858513)
(0.00312478 -0.00961202 0.00756055)
(0.00360152 -0.00884867 0.00795897)
(0.00350134 -0.00907235 0.00757953)
(0.00228673 -0.00949503 0.00658134)
(0.0028157 -0.0100231 0.00745978)
(0.00238507 -0.00990792 0.0066218)
(0.00214919 -0.00972956 0.00662315)
(0.00277068 -0.0105046 0.00760121)
(0.00308676 -0.0100149 0.00767666)
(0.000982312 -0.00737517 0.00529809)
(0.0017501 -0.00794304 0.00582691)
(0.00121315 -0.00793013 0.00551474)
(0.00157979 -0.00775517 0.00587949)
(0.0019758 -0.00799497 0.00594346)
(0.00102435 -0.007354 0.00534146)
(0.00147034 -0.0116924 0.0154709)
(0.00143906 -0.0128994 0.015355)
(0.00175278 -0.01282 0.0149614)
(0.00135658 -0.013534 0.0158533)
(0.00201238 -0.0122987 0.0157952)
(0.00190972 -0.0123732 0.0163545)
(0.00108089 -0.0156651 0.0120992)
(0.00122263 -0.0153633 0.0125442)
(0.00127142 -0.0168303 0.0132809)
(0.000859234 -0.0154814 0.0120231)
(0.00123147 -0.0157373 0.0135488)
(0.00106713 -0.0158337 0.0127729)
(0.00182701 -0.0160078 0.0131185)
(0.00158488 -0.0152828 0.0131325)
(0.00184537 -0.0150362 0.012428)
(0.00131649 -0.0143897 0.0133344)
(0.00129696 -0.0163196 0.0145796)
(0.00141128 -0.015399 0.0131392)
(0.00158227 -0.0156086 0.0141797)
(0.0013772 -0.0155923 0.0127667)
(0.000998612 -0.0143051 0.0140335)
(0.000854682 -0.0142004 0.0138335)
(0.00131848 -0.0150044 0.0148807)
(0.00106635 -0.0141964 0.0141781)
(0.00123248 -0.0137552 0.0142849)
(0.00101369 -0.0138636 0.0147246)
(0.00428798 -0.0100813 0.0103098)
(0.00422877 -0.00899037 0.0109511)
(0.00442042 -0.00998937 0.0112753)
(0.00403376 -0.00893042 0.00975336)
(0.00384184 -0.00952356 0.00927371)
(0.00405619 -0.0107007 0.0115562)
(0.00402234 -0.0114291 0.0129801)
(0.00330954 -0.0116462 0.0116996)
(0.00360322 -0.0114618 0.0107829)
(0.00364136 -0.0115128 0.010728)
(0.00382199 -0.0107486 0.0104773)
(0.00312448 -0.0139796 0.0144819)
(0.00275922 -0.0126043 0.0138021)
(0.00260577 -0.011154 0.0146012)
(0.00358688 -0.0111184 0.0140527)
(0.00327956 -0.0125022 0.0143388)
(0.00290304 -0.0104907 0.0142654)
(0.00387078 -0.0114473 0.0097921)
(0.00342608 -0.0105659 0.00840476)
(0.00335696 -0.0106319 0.0085406)
(0.00385047 -0.0102027 0.00918893)
(0.00366121 -0.0102478 0.00853023)
(0.00396976 -0.0108349 0.009787)
(0.00230281 -0.0142387 0.0136664)
(0.00226909 -0.0129938 0.0133169)
(0.00248098 -0.0136495 0.0145133)
(0.00224828 -0.0141102 0.0144443)
(0.00261945 -0.0145488 0.0151323)
(0.00227603 -0.0152614 0.0140427)
(0.00153765 -0.0146873 0.0144427)
(0.00151571 -0.0146942 0.0131892)
(0.00116714 -0.0151044 0.0137544)
(0.00176874 -0.0155125 0.0144753)
(0.00166084 -0.0154989 0.0133515)
(0.00183004 -0.01532 0.0137873)
(0.00168292 -0.0141521 0.0114887)
(0.00233826 -0.0144669 0.0121947)
(0.00203089 -0.0146083 0.0124669)
(0.0020402 -0.0142337 0.0113851)
(0.00219277 -0.0158113 0.0126903)
(0.00220423 -0.0142273 0.0118688)
(0.00351126 -0.0128151 0.0110771)
(0.00314505 -0.0134655 0.0126275)
(0.0033049 -0.0140165 0.0124641)
(0.00289116 -0.0126992 0.0125268)
(0.00328988 -0.0138922 0.0121921)
(0.00343077 -0.0139889 0.0118204)
(0.00273283 -0.0144029 0.0106508)
(0.00236232 -0.0153959 0.0128438)
(0.0023977 -0.0139688 0.0115783)
(0.00292983 -0.0142651 0.0103274)
(0.00237308 -0.0146731 0.0115136)
(0.00279406 -0.0161448 0.0119316)
(0.000735737 -0.00706165 0.00561243)
(0.000608163 -0.00681123 0.00567721)
(0.000679268 -0.00669568 0.00555415)
(0.000897903 -0.00669176 0.00536298)
(0.000998033 -0.00713373 0.00572646)
(0.000994863 -0.0065704 0.00540917)
(0.000397227 -0.00644236 0.00528487)
(0.000459522 -0.00700482 0.00565709)
(0.000172522 -0.00734798 0.00596355)
(0.000135478 -0.00714349 0.00568297)
(0.000139193 -0.00705151 0.00573448)
(0.000138147 -0.00665282 0.00563395)
(5.91003e-05 -0.0083165 0.00610655)
(0.000117876 -0.00780455 0.00599394)
(0.00043757 -0.00790601 0.00579714)
(0.000166745 -0.00817608 0.00617201)
(2.71557e-05 -0.00832644 0.00610687)
(-0.000145611 -0.00799825 0.00599344)
(-2.45479e-06 -0.00598451 0.00573394)
(4.37965e-05 -0.00591832 0.00596044)
(0.000412798 -0.00625814 0.00591573)
(9.18567e-05 -0.00572225 0.00537749)
(0.000241911 -0.00576441 0.00596259)
(0.000117099 -0.00581131 0.00623652)
(-0.000592127 -0.00675279 0.00585218)
(-0.000538692 -0.0069244 0.00588617)
(-0.000759557 -0.00622604 0.0060777)
(-0.000559948 -0.00585891 0.00582664)
(-0.000820003 -0.00652101 0.00588327)
(-0.000345749 -0.00719373 0.00558382)
(-0.000279394 -0.00762651 0.00562761)
(-0.000469135 -0.00693017 0.005564)
(-0.000315719 -0.00758812 0.00555929)
(-0.000152122 -0.00796033 0.00567979)
(-0.000298772 -0.00729835 0.00530573)
(0.0013582 -0.00633262 0.00519541)
(0.000710029 -0.00604246 0.00505201)
(0.000547548 -0.00634647 0.00512316)
(0.00109649 -0.00653659 0.00518005)
(0.00189735 -0.00655948 0.00559547)
(0.00171487 -0.0137547 0.010799)
(0.0012322 -0.0140218 0.0114249)
(0.00184142 -0.0139673 0.0107477)
(0.00156842 -0.0139954 0.0110443)
(0.00135929 -0.0143246 0.0111207)
(0.000954401 -0.0136142 0.0111606)
(0.00178537 -0.0133238 0.0108195)
(0.00167483 -0.0132995 0.0110273)
(0.00198231 -0.0131045 0.0103902)
(0.00235048 -0.0137278 0.0102909)
(0.000712208 -0.0133268 0.0105651)
(4.97186e-05 -0.0140379 0.0102869)
(-0.000408314 -0.0141627 0.0107496)
(-0.000505573 -0.0131166 0.0092721)
(-0.000132604 -0.0130506 0.00893656)
(0.000198138 -0.0139158 0.00978123)
(-0.000563572 -0.0130298 0.00967863)
(0.000605757 -0.0137944 0.0109676)
(-3.70811e-05 -0.0132751 0.0100943)
(-0.000176471 -0.013569 0.0105089)
(0.000564353 -0.0139809 0.0109799)
(0.000163038 -0.0130442 0.0104458)
(0.000227949 -0.0133646 0.010393)
(-0.000320089 -0.0109006 0.00699065)
(-0.000117094 -0.0111055 0.00734045)
(-0.000544411 -0.0122324 0.00669243)
(-0.000358925 -0.0121936 0.0069994)
(-0.000469664 -0.01182 0.0068519)
(0.00106343 -0.0147826 0.00708913)
(0.000936608 -0.0151813 0.00726559)
(0.00136415 -0.0147291 0.00724296)
(0.00157149 -0.0155046 0.00743162)
(0.00142412 -0.0151089 0.0073103)
(0.001701 -0.0148368 0.00711156)
(-0.000231005 -0.0122855 0.00647338)
(-7.7774e-05 -0.0132292 0.00700396)
(0.00018111 -0.0128436 0.00660053)
(-0.000357122 -0.01275 0.00664382)
(-0.000381767 -0.0117792 0.00630739)
(-0.000412237 -0.0124084 0.00686055)
(-0.000428953 -0.0106099 0.00683482)
(-0.000328847 -0.0112602 0.00674107)
(-0.000201353 -0.0101015 0.00652108)
(-0.000451435 -0.0102462 0.00641876)
(-0.000205473 -0.011109 0.00653713)
(-0.000451011 -0.0109719 0.00669843)
(0.00234053 -0.0129235 0.00757081)
(0.00252562 -0.0124509 0.00762755)
(0.00161259 -0.0124234 0.0068381)
(0.00175816 -0.0121921 0.00698438)
(0.00205504 -0.0129955 0.00724975)
(0.00262447 -0.0143297 0.0101571)
(0.00185358 -0.0133866 0.0108036)
(0.00250794 -0.0153595 0.0111654)
(0.0025941 -0.0148556 0.0112574)
(0.00224136 -0.0140445 0.0106006)
(0.00289455 -0.0141011 0.00912732)
(0.00270176 -0.0148132 0.00874807)
(0.00292489 -0.0145411 0.00947626)
(0.00292429 -0.0133877 0.00937691)
(0.00293796 -0.0141707 0.0095875)
(0.00249779 -0.0150108 0.00795665)
(0.00191202 -0.0146183 0.00705745)
(0.00218715 -0.0151838 0.00759254)
(0.00218926 -0.0148019 0.0075154)
(-0.000354469 -0.0099848 0.00611277)
(-0.000278349 -0.0099768 0.00568354)
(-0.000219038 -0.00965433 0.00568941)
(-0.000559401 -0.00887571 0.00551117)
(-0.000491607 -0.00937794 0.00566927)
(-1.05495e-06 -0.0104112 0.00592798)
(0.000520482 -0.00984266 0.00580414)
(0.000393936 -0.0109363 0.00630182)
(-3.04871e-05 -0.00952102 0.00563699)
(-0.000255638 -0.00980675 0.0058324)
(0.000622811 -0.0104157 0.00591027)
(7.29769e-05 -0.00941998 0.00668604)
(0.000293828 -0.00986702 0.00699399)
(-2.9777e-05 -0.010245 0.00692328)
(-6.52276e-05 -0.00977898 0.00658153)
(0.00018428 -0.00933545 0.00667951)
(-8.78953e-06 -0.0103247 0.00715927)
(0.00204148 -0.0140037 0.00773901)
(0.00225979 -0.0138644 0.00769061)
(0.00216937 -0.013996 0.00745554)
(0.00177698 -0.0140359 0.00741969)
(0.00225548 -0.0135546 0.00758457)
(0.000391282 -0.0118239 0.00615523)
(0.000859968 -0.0124257 0.00630124)
(0.000679622 -0.0130584 0.00660989)
(0.000486611 -0.012638 0.00639571)
(0.000436201 -0.0122371 0.00650683)
(0.000641261 -0.0123674 0.00647702)
(0.00104966 -0.0125165 0.00657244)
(0.000736621 -0.0128739 0.00671047)
(0.00164214 -0.0132368 0.0071122)
(0.00098549 -0.012446 0.00631249)
(0.00137763 -0.0131135 0.00694812)
(0.00145546 -0.0135139 0.0071698)
(0.000586369 -0.00864921 0.00653146)
(0.000779965 -0.00899373 0.00689087)
(0.000324107 -0.00910286 0.00688517)
(-0.000847176 -0.00607845 0.00582208)
(-0.000914202 -0.00643258 0.00566629)
(-0.000877071 -0.00602675 0.00539844)
(-0.00123585 -0.00577501 0.005978)
(-0.000723084 -0.00628968 0.0053514)
(-0.0010505 -0.00606304 0.00602109)
(-0.000875644 -0.00628533 0.00548315)
(-0.00157026 -0.00562923 0.00582823)
(-0.00112021 -0.00633768 0.00573735)
(-0.0010807 -0.00613482 0.0055333)
(-0.00122535 -0.00584956 0.00577884)
(0.00162781 -0.00935349 0.00533978)
(0.00152019 -0.0089098 0.00500749)
(0.00181046 -0.00802 0.00510395)
(0.00207454 -0.00882183 0.00565623)
(0.00179048 -0.00894454 0.00534187)
(0.00136351 -0.0084337 0.00459684)
(0.00152603 -0.00711416 0.00478227)
(0.00162497 -0.00763456 0.00494766)
(0.00195771 -0.00772867 0.00562205)
(0.00165567 -0.00731453 0.00501611)
(0.00171464 -0.00798473 0.00504763)
(0.0018073 -0.00729517 0.00530449)
(0.00169558 -0.00786924 0.00535997)
(0.00130017 -0.00487818 0.00829705)
(0.00156496 -0.00522496 0.00828524)
(0.000741914 -0.00456005 0.00723059)
(0.000705906 -0.00509893 0.00751237)
(0.000655022 -0.00486712 0.00806403)
(0.00119518 -0.00503186 0.00774999)
(0.00164303 -0.00474662 0.00858568)
(0.00240094 -0.0047277 0.00885903)
(0.00223318 -0.00519718 0.00909729)
(0.00196494 -0.00438536 0.00895128)
(0.00241348 -0.0042793 0.00938577)
(0.00475912 -0.0102894 0.00861085)
(0.00430195 -0.00904521 0.00803252)
(0.00504789 -0.00968318 0.0087778)
(0.00400654 -0.0103917 0.00818585)
(0.00388688 -0.0110425 0.00833335)
(0.00469301 -0.0084623 0.00818801)
(0.000814724 -0.0155999 0.0128289)
(0.000680927 -0.0147308 0.0116505)
(0.00140426 -0.0149169 0.0119743)
(0.000904628 -0.0145713 0.0116366)
(0.000946568 -0.0145024 0.0121313)
(0.000936664 -0.0149773 0.0116752)
(-5.15443e-05 -0.014008 0.0101774)
(0.00028208 -0.0146309 0.0112003)
(0.00026942 -0.0136271 0.0101022)
(0.000411642 -0.0144567 0.0110404)
(0.000290103 -0.0148915 0.0108644)
(0.000266629 -0.0141038 0.00983952)
(0.000609815 -0.0144209 0.0113638)
(0.000417276 -0.0152525 0.0118127)
(0.00479742 -0.0144004 0.0110006)
(0.00435369 -0.013467 0.0100581)
(0.00432656 -0.0139488 0.0103855)
(0.00449966 -0.0136736 0.0102087)
(0.00396172 -0.0143743 0.0102663)
(0.003885 -0.0136507 0.00953611)
(0.00383661 -0.0132779 0.00950436)
(0.00379064 -0.012438 0.00874002)
(0.00417704 -0.0126163 0.00907293)
(0.0039843 -0.0114891 0.00847946)
(0.00504012 -0.00860912 0.00908181)
(0.0049506 -0.00872893 0.00883366)
(0.00506108 -0.00788804 0.00933862)
(0.00534634 -0.00718382 0.00972315)
(0.00555407 -0.00764825 0.0097432)
(3.96287e-05 -0.00436718 0.00822047)
(-1.23241e-05 -0.00390062 0.00843017)
(0.000376102 -0.00405974 0.00907038)
(0.00176069 -0.00522904 0.00776529)
(0.00020766 -0.00409576 0.00819054)
(0.000288336 -0.00461988 0.00791555)
(0.00229572 -0.00506982 0.00835303)
(0.00176643 -0.00508575 0.00831501)
(0.00130793 -0.00841504 0.0047706)
(0.00181072 -0.00846224 0.00540324)
(0.00203053 -0.00921948 0.0057976)
(0.00165684 -0.00954397 0.00574531)
(0.0017753 -0.00930325 0.00574983)
(0.00168655 -0.00966061 0.00564548)
(0.00184539 -0.00852266 0.00557895)
(0.00189525 -0.00778655 0.00544411)
(0.0020356 -0.00810543 0.00575267)
(0.00195434 -0.00855777 0.00540908)
(0.00193847 -0.00736348 0.00534174)
(0.00175151 -0.00744904 0.00543937)
(0.00190276 -0.00696678 0.00558203)
(0.00228112 -0.00718092 0.00592085)
(0.00193821 -0.0074637 0.00532609)
(0.00213596 -0.00740936 0.00556854)
(0.00258379 -0.00786845 0.00625569)
(0.00230959 -0.00713038 0.00576182)
(0.00235963 -0.00931923 0.00605072)
(0.0020608 -0.00829012 0.0054804)
(0.00216973 -0.00850714 0.00568802)
(0.00252232 -0.00812781 0.00618502)
(0.00240976 -0.00920758 0.00615234)
(0.00263729 -0.00875757 0.00631924)
(0.00140809 -0.0145268 0.0132967)
(0.000462553 -0.00857954 0.00649715)
(0.000346764 -0.00873051 0.006442)
(0.00031625 -0.00886705 0.00652702)
(0.000297097 -0.00914866 0.00671662)
(0.000994077 -0.00844201 0.00622445)
(0.00029057 -0.00821968 0.00615249)
(0.00135127 -0.00825979 0.00592701)
(0.00151992 -0.00838456 0.00620262)
(0.00134265 -0.00822107 0.00587426)
(0.0012402 -0.00776248 0.00562034)
(0.00152457 -0.0080831 0.00585495)
(0.00133212 -0.0078271 0.00559931)
(0.00129162 -0.00749559 0.0055379)
(0.00128774 -0.00764898 0.00536267)
(0.00132689 -0.00798854 0.00611746)
(0.001183 -0.00749781 0.0057429)
(0.00097601 -0.0124998 0.00632772)
(0.000567447 -0.0120204 0.0062653)
(0.00112879 -0.0128453 0.00622121)
(0.0014106 -0.0135804 0.0065256)
(0.0010649 -0.0137483 0.00648796)
(0.00152026 -0.013026 0.00671065)
(0.00186068 -0.0133983 0.0073704)
(0.00263417 -0.0144896 0.00804118)
(0.00293168 -0.0145971 0.00855699)
(0.00174111 -0.0144297 0.00752781)
(0.0022019 -0.014136 0.00778181)
(0.00279127 -0.0151457 0.00880949)
(0.00111692 -0.0135738 0.00683602)
(0.00119271 -0.013695 0.00696302)
(0.000243905 -0.0133965 0.00683761)
(0.00178207 -0.0141535 0.00706)
(0.00202263 -0.0146758 0.00748682)
(0.00144665 -0.0138166 0.00662618)
(0.00125095 -0.0141147 0.00680023)
(0.00172569 -0.0147717 0.00733587)
(0.002063 -0.0146238 0.00724631)
(0.00218851 -0.0152374 0.00764977)
(0.00194553 -0.0145984 0.00741067)
(0.00180425 -0.0143054 0.00701257)
(0.00240566 -0.0147705 0.00812667)
(0.00136796 -0.0144935 0.00737263)
(0.00113144 -0.0144159 0.00685045)
(0.0015137 -0.0143173 0.00719466)
(0.00147045 -0.0148186 0.00731775)
(0.000412863 -0.0137146 0.00667092)
(0.000672698 -0.0143638 0.00703239)
(0.0010454 -0.0139176 0.00687604)
(0.000927158 -0.014479 0.00690963)
(0.000513498 -0.0140455 0.0070737)
(0.000821824 -0.0141302 0.00678909)
(-0.000461793 -0.00857386 0.00562016)
(-0.000290025 -0.00837187 0.0058208)
(-0.000205879 -0.00817337 0.00581198)
(-0.000233769 -0.00904692 0.00583876)
(-0.000430336 -0.010143 0.0063335)
(-0.000343194 -0.00978186 0.0062022)
(-0.000198196 -0.00932837 0.00627728)
(-4.93828e-05 -0.00863216 0.00596231)
(-0.000343883 -0.00939765 0.00628729)
(-0.000125268 -0.00898849 0.0059431)
(0.000183324 -0.00907144 0.00642901)
(6.58275e-05 -0.00943656 0.00668458)
(0.000304653 -0.00904302 0.00670684)
(-3.57215e-05 -0.00949645 0.00639992)
(-4.52627e-07 -0.00981156 0.00657471)
(-9.15634e-05 -0.00994477 0.00656505)
(-0.000319188 -0.00983195 0.00620096)
(-0.000320406 -0.0078784 0.00550129)
(-9.10885e-05 -0.00806036 0.00589172)
(-0.000300422 -0.00742985 0.00545148)
(-0.000221509 -0.00757048 0.00568103)
(-0.000297178 -0.00715974 0.00542946)
(-7.63017e-05 -0.00714656 0.00551286)
(0.00237474 -0.0148672 0.00781234)
(0.0024359 -0.0148376 0.00845621)
(0.00229457 -0.0147402 0.00767954)
(0.00258015 -0.0144124 0.0079222)
(0.00285405 -0.01566 0.00846518)
(0.00276263 -0.0151085 0.00921799)
(0.00271128 -0.0139087 0.00912262)
(0.00250716 -0.014356 0.00974583)
(0.00264961 -0.0142829 0.00981457)
(0.00230144 -0.0135393 0.00974528)
(0.00223032 -0.0137189 0.010926)
(0.00240039 -0.0128834 0.00754427)
(0.00162821 -0.0124637 0.00670787)
(-0.000363964 -0.0107073 0.0062691)
(-0.000233126 -0.00984729 0.00604104)
(-0.000254503 -0.0101024 0.00626686)
(-0.000339935 -0.010654 0.00698904)
(0.00020104 -0.0104325 0.00607157)
(0.000105739 -0.0118297 0.00644853)
(-0.000240702 -0.0107125 0.00594068)
(-0.000176351 -0.0115648 0.00638796)
(-0.000252241 -0.0111201 0.00634427)
(0.000162532 -0.0115085 0.0061339)
(0.000398614 -0.0121777 0.00648148)
(-0.000211078 -0.0110997 0.00606233)
(0.000286837 -0.0106669 0.00583405)
(0.000268659 -0.0117549 0.00621643)
(7.93204e-05 -0.011832 0.00664079)
(0.00011168 -0.0132613 0.00659979)
(-0.000113893 -0.0110024 0.00616009)
(-0.000309727 -0.0107549 0.00621548)
(-0.000384618 -0.0108435 0.00623554)
(-0.00033778 -0.0109446 0.00661608)
(-0.000560993 -0.00996229 0.00598849)
(0.00139357 -0.0119802 0.00655285)
(0.000991342 -0.0116222 0.00623518)
(0.000763353 -0.0120779 0.00642426)
(0.000597173 -0.01169 0.00618568)
(0.000522217 -0.011231 0.00622331)
(0.00170394 -0.0148065 0.00704178)
(0.00196341 -0.0151987 0.00739902)
(0.000578668 -0.0147516 0.00697137)
(0.000536463 -0.0148834 0.0069269)
(-0.0004955 -0.0114806 0.00706096)
(-0.000353073 -0.0116881 0.00657092)
(-0.000239916 -0.0129694 0.00686174)
(0.000404919 -0.0143717 0.0114191)
(8.15523e-05 -0.0140543 0.0106802)
(0.000229128 -0.0143724 0.0113453)
(0.00038569 -0.014777 0.0113476)
(8.74457e-05 -0.0134624 0.0101785)
(0.000349245 -0.0144157 0.0105737)
(0.000761552 -0.0151209 0.0115666)
(0.000524319 -0.014736 0.0110376)
(-0.000596271 -0.0120397 0.0085697)
(-0.00049867 -0.0130693 0.00949933)
(-0.000232547 -0.0125471 0.00952048)
(-0.000357943 -0.0123869 0.00971602)
(0.00134767 -0.0139493 0.011358)
(0.00101438 -0.0146872 0.0118519)
(0.000752829 -0.0141952 0.0113386)
(-5.58633e-05 -0.0133837 0.00977386)
(-0.000473657 -0.0130262 0.00947086)
(-2.79581e-05 -0.0126844 0.0100083)
(0.000153336 -0.0127732 0.0108914)
(-6.16132e-05 -0.0122112 0.0098431)
(6.98558e-05 -0.0125875 0.0102653)
(0.000885849 -0.0136279 0.010811)
(0.000353952 -0.0130111 0.0104513)
(0.00153027 -0.0141203 0.0109619)
(0.000446795 -0.0131566 0.0111866)
(0.00146834 -0.0130944 0.0102273)
(0.00212036 -0.0140716 0.0105017)
(0.00254656 -0.0144269 0.0102533)
(0.00182649 -0.0134802 0.0104773)
(0.00248625 -0.0137122 0.00940643)
(0.00239653 -0.0141938 0.0106714)
(0.00259408 -0.0140539 0.0102394)
(0.00112208 -0.014589 0.0112413)
(0.000887407 -0.013746 0.0107504)
(0.000821572 -0.0135282 0.0107819)
(0.00194071 -0.0142638 0.0113763)
(0.001728 -0.0144751 0.0113347)
(0.00132379 -0.0141555 0.0112473)
(0.00110528 -0.0133247 0.0105686)
(0.0011351 -0.0134075 0.0112033)
(0.000969531 -0.0130607 0.0102611)
(0.00204939 -0.014221 0.0106869)
(0.0022267 -0.0142392 0.0104567)
(0.00145044 -0.0139242 0.0113095)
(0.00206748 -0.0138031 0.0104073)
(0.00175513 -0.0141597 0.011393)