/*--------------------------------*- C++ -*----------------------------------*\
| =========                 |                                                 |
| \\      /  F ield         | OpenFOAM: The Open Source CFD Toolbox           |
|  \\    /   O peration     | Version:  v1612+                                |
|   \\  /    A nd           | Web:      www.OpenFOAM.com                      |
|    \\/     M anipulation  |                                                 |
\*---------------------------------------------------------------------------*/
FoamFile
{
    version     2.0;
    format      ascii;
    class       volVectorField;
    location    "100";
    object      U;
}
// * * * * * * * * * * * * * * * * * * * * * * * * * * * * * * * * * * * * * //

dimensions      [0 1 -1 0 0 0 0];

internalField   nonuniform List<vector> 
17208
(
(0.0403736 0.849392 -0.340415)
(-0.00825294 0.473051 -0.173866)
(-0.00957814 0.481414 -0.18262)
(-0.00997096 0.664324 -0.212151)
(-0.0212678 0.687571 -0.234996)
(-0.0226333 0.707773 -0.235666)
(0.00600021 0.460408 -0.158016)
(-0.00180725 0.451514 -0.163629)
(-0.00451184 0.473402 -0.153865)
(0.00551618 0.438513 -0.153825)
(-0.00580609 0.540317 -0.181388)
(-0.0248067 0.586498 -0.213221)
(-0.0267261 0.644669 -0.220128)
(-0.00596024 0.503208 -0.173653)
(-0.00330493 0.510877 -0.166991)
(-0.00464564 0.446723 -0.171039)
(-0.00066003 0.577238 -0.180487)
(-0.0176085 0.542193 -0.200139)
(0.001905 0.571862 -0.177368)
(-0.0206494 0.624144 -0.195948)
(-0.0199816 0.546192 -0.195579)
(-0.0234147 0.588299 -0.203436)
(-0.00665433 0.442698 -0.171341)
(-0.00640693 0.446404 -0.162733)
(-0.023097 0.511631 -0.201815)
(-0.0191339 0.504793 -0.198002)
(-0.0145065 0.476317 -0.181086)
(-0.0246143 0.515925 -0.194721)
(-0.0174852 0.489521 -0.164655)
(-0.0259522 0.565196 -0.186332)
(-0.0267134 0.561443 -0.173627)
(-0.033482 0.628724 -0.204599)
(-0.034563 0.610775 -0.199012)
(-0.0298454 0.498898 -0.175218)
(-0.0151389 0.52619 -0.160684)
(-0.0395699 0.61657 -0.196692)
(-0.0259483 0.541407 -0.170838)
(-0.0358655 0.637208 -0.240403)
(-0.0407441 0.685664 -0.265541)
(-0.0208335 0.56941 -0.230402)
(-0.0283616 0.565218 -0.216759)
(-0.0369967 0.619491 -0.258474)
(-0.0324568 0.607169 -0.240058)
(-0.0453956 0.651676 -0.251682)
(-0.0543932 0.692435 -0.260975)
(-0.0197827 0.676668 -0.289247)
(-0.0469252 0.741847 -0.286719)
(-0.017633 0.565355 -0.252681)
(-0.0198795 0.523333 -0.220941)
(-0.0459783 0.670305 -0.248343)
(-0.0464892 0.647833 -0.2509)
(-0.0369746 0.705691 -0.290328)
(-0.0155086 0.572709 -0.238549)
(-0.0145151 0.606004 -0.262372)
(0.0949183 0.70915 -0.224397)
(0.0937869 0.688549 -0.221385)
(0.0841568 0.806559 -0.247844)
(0.082179 0.733746 -0.226058)
(0.0879342 0.760932 -0.239484)
(0.0940564 0.702852 -0.222065)
(0.0845712 0.745103 -0.223352)
(0.0793395 0.655282 -0.196845)
(0.0911527 0.601908 -0.19556)
(0.0974062 0.655968 -0.191511)
(0.0869653 0.589503 -0.173808)
(0.0830629 0.853211 -0.274746)
(0.092643 0.744825 -0.226439)
(0.0808854 0.845797 -0.266313)
(0.00322825 0.660392 -0.201524)
(0.00216715 0.640013 -0.190658)
(0.00893872 0.535185 -0.162544)
(-0.000759565 0.464346 -0.154923)
(0.00161616 0.429608 -0.144442)
(0.00810097 0.538739 -0.167595)
(0.00602446 0.417441 -0.149938)
(-0.000347812 0.507132 -0.17061)
(0.00661405 0.460833 -0.158003)
(0.00518601 0.375893 -0.13877)
(0.0296644 0.571896 -0.213049)
(0.0172913 0.485748 -0.180043)
(0.0354648 0.637009 -0.229771)
(0.0300435 0.561944 -0.198981)
(0.0436582 0.728937 -0.259148)
(0.0400956 0.718966 -0.261017)
(0.0159401 0.545603 -0.216699)
(0.0118766 0.518609 -0.212346)
(0.00857023 0.48876 -0.190411)
(0.0408644 0.737305 -0.265458)
(0.0286492 0.62389 -0.234738)
(0.0248735 0.612078 -0.219851)
(0.0148101 0.493886 -0.181569)
(0.0247716 0.577743 -0.210719)
(0.0196032 0.536062 -0.196482)
(-0.0167553 0.591609 -0.265855)
(-0.00282262 0.57387 -0.266152)
(-0.014293 0.607972 -0.272485)
(-0.0197341 0.653437 -0.293066)
(0.0109556 0.714813 -0.325262)
(0.013219 0.684851 -0.317413)
(0.0215272 0.730747 -0.330356)
(0.0193689 0.684308 -0.32973)
(0.011932 0.574642 -0.295102)
(0.0164553 0.601553 -0.299975)
(0.00482854 0.571436 -0.273688)
(0.0104241 0.54778 -0.270353)
(-0.0196991 0.664579 -0.297971)
(0.00285366 0.59705 -0.289832)
(-0.0037758 0.625542 -0.293006)
(0.0126971 0.549445 -0.280017)
(0.0167062 0.91621 -0.365165)
(0.0179511 0.91024 -0.359284)
(0.0358618 0.850919 -0.353539)
(-0.00267258 0.819541 -0.354362)
(0.00489894 0.893734 -0.363548)
(-0.00348492 0.91735 -0.363179)
(0.0636666 0.830918 -0.348643)
(0.0246691 0.815273 -0.34846)
(0.0522086 0.745721 -0.332468)
(0.0260884 0.800619 -0.3531)
(0.050446 0.957298 -0.356944)
(0.0526172 0.871329 -0.347191)
(0.0594563 0.926299 -0.352098)
(0.0720287 0.870965 -0.345895)
(0.0403673 0.807821 -0.346039)
(0.0523888 0.904624 -0.349188)
(0.0670365 0.845887 -0.340939)
(0.0682391 0.778037 -0.326973)
(0.0572899 0.818535 -0.345125)
(0.0120452 1.13111 -0.363397)
(0.00362027 1.1589 -0.38043)
(0.0164697 1.11341 -0.350677)
(0.01064 1.14569 -0.368496)
(0.0161741 1.10013 -0.339932)
(0.0176596 1.10431 -0.343641)
(-0.0193703 1.21506 -0.413961)
(-0.0124768 1.19857 -0.400359)
(0.0034353 1.09291 -0.36083)
(0.00589051 1.08466 -0.356266)
(-0.00902864 1.18735 -0.393112)
(-0.00196221 1.11644 -0.374187)
(0.00383096 1.10751 -0.361007)
(-0.00860657 1.1885 -0.394746)
(0.0512587 1.05117 -0.388913)
(0.0355243 1.09457 -0.412806)
(0.0623423 1.02664 -0.363164)
(0.0780899 0.915952 -0.339698)
(0.0733599 0.922609 -0.332048)
(0.0378462 1.02046 -0.385635)
(0.0160379 0.947059 -0.371848)
(0.0652921 0.97699 -0.357466)
(0.0878737 0.90389 -0.349948)
(0.0366246 1.00562 -0.38628)
(0.0277835 0.978423 -0.378569)
(0.0454377 0.952705 -0.372104)
(0.0841578 0.931744 -0.348131)
(0.0566588 0.902108 -0.359688)
(0.0366613 0.969081 -0.379428)
(0.0750194 0.912088 -0.361765)
(0.0546537 0.885282 -0.356134)
(0.0531831 0.989324 -0.305245)
(0.0442553 0.98121 -0.291104)
(0.056367 1.00974 -0.317185)
(0.0533488 0.958568 -0.286499)
(0.0596452 0.797754 -0.223267)
(0.0632569 0.818731 -0.235965)
(0.0576992 0.944382 -0.27708)
(0.0545113 0.988064 -0.3039)
(0.0638777 0.776797 -0.220585)
(0.0623447 0.753036 -0.212017)
(0.0837423 0.819472 -0.234106)
(0.067449 0.790486 -0.223156)
(0.0682002 0.831329 -0.23316)
(0.0783658 0.791461 -0.225392)
(0.0647649 0.735376 -0.207721)
(0.082615 0.775542 -0.224285)
(0.0758835 0.781632 -0.22557)
(0.0691174 0.834438 -0.243222)
(0.0672697 0.946072 -0.282749)
(0.0894286 0.818288 -0.240638)
(0.068118 0.935058 -0.283736)
(0.0701421 0.931978 -0.277505)
(0.0209644 0.437852 -0.20289)
(0.0186168 0.523911 -0.238475)
(0.0159209 0.497762 -0.229432)
(0.016083 0.459946 -0.207534)
(0.0220784 0.411855 -0.196598)
(0.00199527 0.473501 -0.209936)
(0.0132593 0.364269 -0.165113)
(0.00815116 0.389014 -0.16756)
(0.00930874 0.356666 -0.152821)
(0.000467749 0.409548 -0.176624)
(0.00706052 0.380439 -0.16445)
(0.0143299 0.336769 -0.146266)
(0.104138 0.681458 -0.304579)
(0.0989831 0.649322 -0.286981)
(0.100603 0.552943 -0.231978)
(0.0983339 0.516428 -0.227986)
(0.0945803 0.736567 -0.31032)
(0.0983702 0.743407 -0.312111)
(0.110115 0.722991 -0.296742)
(0.0904763 0.574507 -0.238804)
(0.0904575 0.504148 -0.213416)
(0.0980411 0.569833 -0.255244)
(0.0987795 0.690487 -0.3084)
(0.104657 0.575967 -0.252192)
(0.0981793 0.555553 -0.247219)
(0.0859379 0.613505 -0.260251)
(0.0928747 0.533768 -0.226317)
(0.0377688 0.786534 -0.375896)
(0.0456316 0.836207 -0.404817)
(0.0458382 0.82644 -0.392551)
(0.043427 0.826459 -0.40781)
(0.0298766 0.782431 -0.39608)
(0.0919615 0.708086 -0.185681)
(0.0907716 0.648227 -0.168748)
(0.0693836 0.628366 -0.15002)
(0.0644777 0.581745 -0.141038)
(0.0893886 0.65644 -0.165525)
(0.0724922 0.557389 -0.142005)
(0.0690568 0.595167 -0.13921)
(0.0664444 0.556924 -0.135358)
(0.0665927 0.76808 -0.200825)
(0.0654591 0.795991 -0.21295)
(0.0786976 0.64645 -0.163301)
(0.0685216 0.69028 -0.167281)
(0.0609313 0.582951 -0.141474)
(0.0561236 0.751871 -0.184044)
(0.0675876 0.770378 -0.200358)
(0.054217 0.763241 -0.188816)
(0.0174548 0.960502 -0.42308)
(0.0211587 0.982201 -0.427409)
(0.0204959 0.879184 -0.403608)
(0.0231632 0.943392 -0.428932)
(0.0330092 0.913378 -0.420752)
(0.00589782 0.918868 -0.414345)
(0.0203511 0.921271 -0.402023)
(0.0266371 0.916343 -0.408776)
(0.0276334 0.913446 -0.406901)
(0.0213789 0.890115 -0.397176)
(0.0253896 0.8821 -0.407848)
(0.0268432 1.02992 -0.452098)
(0.0198069 0.884537 -0.403059)
(0.0139476 0.88895 -0.41805)
(0.0283773 0.963965 -0.432241)
(0.0696207 0.79377 -0.410596)
(0.0729866 0.754562 -0.407891)
(0.0760912 0.821662 -0.421657)
(0.0736505 0.813051 -0.414815)
(0.0711706 0.672066 -0.388658)
(0.068291 0.649626 -0.365054)
(0.0730673 0.836097 -0.435111)
(0.0712747 0.848106 -0.424575)
(0.0829239 0.591356 -0.36493)
(0.0707052 0.60678 -0.341499)
(0.074318 0.556949 -0.329736)
(0.0849114 0.655832 -0.363768)
(0.0798361 0.551304 -0.331584)
(0.0834448 0.619147 -0.354023)
(0.0925902 0.696948 -0.387792)
(0.0846491 0.6533 -0.382512)
(0.082788 0.680251 -0.366425)
(-0.0167269 1.18 -0.433637)
(-0.0246681 1.1702 -0.427654)
(-0.0193535 1.18146 -0.427051)
(-0.0129242 1.18109 -0.42387)
(-0.0109276 1.18278 -0.424637)
(-0.000852694 1.17509 -0.43837)
(-0.000506211 1.1731 -0.437858)
(-0.0123134 1.1816 -0.423036)
(-0.00377407 1.17052 -0.423962)
(-0.00114646 1.16873 -0.425252)
(-0.00578141 1.1818 -0.418246)
(0.00167512 1.15725 -0.410196)
(0.00323102 1.16979 -0.43878)
(-0.0091749 1.18555 -0.422705)
(-0.000862307 1.15837 -0.412564)
(0.0039139 1.1589 -0.426123)
(0.00507427 1.15425 -0.431481)
(0.00374071 1.15809 -0.424686)
(-0.0255724 0.626444 -0.258533)
(-0.0107801 0.806363 -0.308202)
(0.00579444 0.754874 -0.26338)
(0.0173686 0.742967 -0.261868)
(-0.00383834 0.866158 -0.3371)
(-0.0102052 0.777128 -0.309995)
(-0.0283003 0.844849 -0.313313)
(-0.0125771 0.6878 -0.256533)
(-0.00213159 0.880401 -0.321668)
(-0.00362601 0.915542 -0.331722)
(0.00772946 0.712254 -0.254239)
(-0.00811876 0.744164 -0.298585)
(0.00326076 0.882095 -0.330582)
(0.00681816 0.89421 -0.330797)
(-0.0162053 0.711472 -0.275044)
(-0.00191438 0.691956 -0.259466)
(0.0281452 1.02245 -0.34313)
(0.0388656 1.06172 -0.366469)
(0.0490181 1.0481 -0.371104)
(0.03111 1.09884 -0.384533)
(0.0706824 0.997034 -0.341981)
(0.0730754 1.00939 -0.348445)
(0.0194896 1.05065 -0.364298)
(0.0173161 0.967465 -0.301707)
(0.00880626 1.04407 -0.353796)
(0.0294028 1.09366 -0.383164)
(0.0789122 0.951559 -0.308547)
(0.077525 1.00018 -0.321668)
(0.0533304 0.968509 -0.311401)
(0.0868732 0.905776 -0.296284)
(0.0825319 0.908923 -0.287257)
(0.0837204 0.898938 -0.288374)
(0.0561447 0.947959 -0.295456)
(0.00202946 0.450679 -0.138074)
(-0.0132231 0.532157 -0.163711)
(-0.0187511 0.51868 -0.177349)
(-0.0012136 0.399898 -0.146834)
(0.00234259 0.353024 -0.124685)
(0.0028515 0.428411 -0.131548)
(-0.00369836 0.542771 -0.166856)
(-0.00280669 0.377654 -0.128864)
(0.000589809 0.472212 -0.147329)
(-0.00714666 0.511676 -0.170619)
(-0.00303092 0.447467 -0.160682)
(0.00157256 0.437848 -0.139051)
(-0.00416111 0.375859 -0.126503)
(0.0271112 1.05955 -0.418511)
(0.0352898 1.0202 -0.409254)
(0.0424509 1.01119 -0.398696)
(0.0496166 0.97105 -0.389804)
(0.0491972 1.00203 -0.400636)
(0.0306829 1.07174 -0.413411)
(0.0540239 0.928071 -0.370995)
(0.0481687 1.01338 -0.390841)
(0.0393936 1.03124 -0.407432)
(0.0453113 1.05054 -0.411693)
(0.0247527 1.10663 -0.433421)
(0.0218323 1.09659 -0.423158)
(0.00235494 0.350059 -0.15345)
(0.0115705 0.375493 -0.175308)
(0.00358418 0.343928 -0.154926)
(0.00310474 0.347791 -0.157481)
(-0.00011192 0.504465 -0.237367)
(0.00777467 0.406894 -0.190831)
(0.00336658 0.385708 -0.17909)
(-0.0021587 0.493248 -0.223321)
(0.00407565 0.481472 -0.225023)
(0.00628906 0.378266 -0.168667)
(-0.00079692 0.427878 -0.181883)
(0.00327899 0.459279 -0.207731)
(-0.0067114 0.475961 -0.19886)
(0.00129915 0.415692 -0.192282)
(-0.0281058 1.05817 -0.39108)
(-0.0337724 1.07913 -0.409898)
(-0.0454311 0.941385 -0.355201)
(-0.0271028 0.981245 -0.376912)
(-0.0228734 1.09771 -0.405085)
(-0.0192141 1.02502 -0.374952)
(-0.0117542 1.06695 -0.388474)
(-0.00415575 1.04368 -0.369324)
(-0.0105089 0.936755 -0.315454)
(-0.0145303 1.04761 -0.370972)
(-0.0196416 0.987975 -0.344479)
(0.00684807 0.999319 -0.348206)
(-0.0158766 0.980333 -0.343494)
(-0.00714547 1.01974 -0.359048)
(0.015246 1.07367 -0.380877)
(0.0193864 0.603648 -0.276276)
(0.0270504 0.651909 -0.296404)
(0.0324429 0.79127 -0.351453)
(0.0326921 0.758524 -0.339376)
(0.0185576 0.676382 -0.310847)
(0.0157201 0.610714 -0.284822)
(0.0100521 0.551417 -0.262774)
(0.0170422 0.585764 -0.29393)
(0.0179039 0.634235 -0.31101)
(0.0359334 0.744337 -0.351867)
(0.022043 0.642544 -0.328518)
(0.0413612 0.80765 -0.365272)
(0.035344 0.809051 -0.366433)
(0.033765 0.799576 -0.358213)
(0.0191763 0.667858 -0.316589)
(0.00674116 0.549089 -0.274764)
(0.0375968 0.75506 -0.347434)
(0.0383126 0.788202 -0.369547)
(0.014497 0.616075 -0.301711)
(0.058171 0.952182 -0.404885)
(0.0606341 0.96158 -0.408829)
(0.0680824 0.821021 -0.348835)
(0.0692048 0.895505 -0.375327)
(0.0569113 0.900861 -0.39238)
(0.0515917 0.942823 -0.39697)
(0.0514019 0.921116 -0.385088)
(0.0509369 0.936523 -0.389324)
(0.0637317 0.874265 -0.365876)
(0.0654039 0.843127 -0.360575)
(0.062636 0.796161 -0.349005)
(0.0614246 0.700334 -0.304291)
(0.0672809 0.724854 -0.319248)
(0.0561571 0.858788 -0.369531)
(0.0533288 0.866071 -0.351691)
(0.0533294 0.641983 -0.273819)
(0.0561515 0.637633 -0.27495)
(0.0557025 0.802836 -0.332405)
(0.0640976 0.833763 -0.342157)
(0.0698332 0.821162 -0.339538)
(0.0509713 0.720637 -0.309353)
(0.0520651 0.709898 -0.307988)
(0.0893932 0.627726 -0.339402)
(0.0902112 0.667047 -0.346708)
(0.0832594 0.655188 -0.348437)
(0.0871697 0.601192 -0.327667)
(0.0822733 0.750044 -0.373449)
(0.0881831 0.662356 -0.339535)
(0.090487 0.682336 -0.341222)
(0.0877 0.649407 -0.327258)
(0.088652 0.753887 -0.387305)
(0.084864 0.679915 -0.352917)
(0.0947905 0.644461 -0.327027)
(0.0811981 0.786624 -0.393597)
(0.088128 0.740221 -0.365433)
(0.0489932 0.826308 -0.323536)
(0.0442005 0.830636 -0.324375)
(0.0552357 0.788581 -0.311927)
(0.0605196 0.747904 -0.292962)
(0.0568391 0.995668 -0.377766)
(0.060226 0.985006 -0.377447)
(0.0674274 0.8603 -0.33405)
(0.0707252 0.894783 -0.356418)
(0.0440204 0.84625 -0.330232)
(0.0405309 0.861072 -0.332779)
(0.0602955 0.751022 -0.301535)
(0.0431966 1.04259 -0.393323)
(0.061424 0.99017 -0.369825)
(0.0505288 0.999111 -0.375093)
(0.0535527 0.879963 -0.354211)
(0.0719929 0.682073 -0.272899)
(0.054588 0.882164 -0.342236)
(0.0609357 0.794826 -0.312659)
(0.0643922 0.748693 -0.291883)
(0.0521004 0.908639 -0.356842)
(0.037624 0.881319 -0.274273)
(0.0280159 0.774001 -0.234278)
(0.028556 0.874245 -0.285035)
(0.0386928 0.719371 -0.215576)
(0.0252947 0.942365 -0.301711)
(0.0270421 0.960427 -0.318877)
(0.0452586 0.864863 -0.266719)
(0.0334626 0.793248 -0.238332)
(0.0414429 0.756352 -0.227578)
(0.0585877 0.783685 -0.228315)
(0.0523851 0.709593 -0.196225)
(0.031201 0.894859 -0.274665)
(0.043929 0.74503 -0.22925)
(0.0516558 0.969175 -0.315003)
(0.0467942 0.8576 -0.256968)
(0.0554557 0.775206 -0.234437)
(0.026602 1.06038 -0.336693)
(0.0461685 1.01406 -0.31748)
(0.0586816 0.84656 -0.255885)
(0.0505585 0.849165 -0.257826)
(0.0319144 0.996131 -0.315194)
(0.060048 0.942698 -0.296724)
(0.0489535 1.0151 -0.314977)
(0.0343272 0.939306 -0.282337)
(0.0409559 0.977299 -0.40323)
(0.0604886 0.905968 -0.3875)
(0.0415066 0.999749 -0.415753)
(0.0351958 1.11385 -0.453901)
(0.0353177 0.929875 -0.401116)
(0.0252428 1.05735 -0.437846)
(0.0156844 0.953246 -0.399278)
(0.0236731 0.956068 -0.410874)
(0.0208879 0.922785 -0.400936)
(0.020442 0.94815 -0.396878)
(0.033518 0.918173 -0.402174)
(0.046823 1.02616 -0.42874)
(0.0325604 1.05673 -0.449791)
(0.0217727 0.957643 -0.409579)
(0.0241896 0.947651 -0.407894)
(0.0477818 0.915979 -0.397354)
(0.0520018 0.934619 -0.416137)
(0.00920128 1.14001 -0.377352)
(-0.00300282 1.14647 -0.373014)
(0.00791903 1.16753 -0.394317)
(-0.0176207 1.07851 -0.391888)
(-0.0302407 1.09916 -0.388688)
(-0.0310569 1.14758 -0.397958)
(0.0471855 1.06423 -0.358527)
(0.0307387 1.09583 -0.360481)
(0.0228017 1.12212 -0.371455)
(0.0120964 1.13797 -0.367791)
(-0.0319222 1.07707 -0.376483)
(-0.01631 0.984287 -0.362357)
(0.0350865 1.07795 -0.358853)
(0.0347286 1.00393 -0.358813)
(0.0418323 1.03812 -0.355639)
(0.0584618 0.988141 -0.345641)
(0.0411303 1.00327 -0.364141)
(0.0464269 1.03509 -0.354389)
(0.0260906 1.00551 -0.35931)
(0.0438284 1.07259 -0.349143)
(0.0256324 1.00068 -0.367542)
(0.0581636 1.02081 -0.339233)
(0.00941012 1.1685 -0.444223)
(0.0106668 1.17385 -0.44809)
(0.000811186 1.15162 -0.431246)
(-0.00644938 1.17243 -0.448026)
(-0.0383086 1.09454 -0.408383)
(0.0116068 1.13386 -0.425823)
(0.0164016 1.145 -0.442597)
(0.00328722 1.1739 -0.446685)
(-0.027261 1.16633 -0.432975)
(-0.00901904 1.11263 -0.398121)
(-0.0396846 1.0832 -0.394346)
(-0.00162393 1.17731 -0.441847)
(-0.00370051 1.13841 -0.424523)
(-0.0266839 1.15083 -0.4237)
(0.0439165 0.781657 -0.224196)
(0.0213848 0.678016 -0.194465)
(0.0435711 0.838164 -0.256649)
(0.0343819 0.766687 -0.220068)
(0.0185242 0.75187 -0.222716)
(-0.0104955 0.746138 -0.239905)
(0.0140312 0.718555 -0.212035)
(0.0410983 0.830202 -0.246935)
(0.0476351 0.823573 -0.246596)
(0.00191102 0.939481 -0.299637)
(0.0321054 0.909508 -0.284269)
(-0.000772363 0.795963 -0.239143)
(-0.00319917 0.771968 -0.229907)
(-0.0298082 0.797341 -0.267386)
(-0.0238249 0.773413 -0.243748)
(0.0274302 0.93974 -0.301236)
(-0.00558814 0.95612 -0.31154)
(-0.00767307 0.81877 -0.24886)
(-0.0249147 0.852514 -0.284386)
(0.00360613 0.823187 -0.260493)
(0.0125151 0.904002 -0.278979)
(-0.0187101 0.939288 -0.313891)
(-0.00737653 0.969584 -0.317887)
(-0.00294181 0.892462 -0.279615)
(0.0792219 0.878697 -0.257143)
(0.00866023 0.912596 -0.270375)
(-0.0125001 0.916329 -0.289739)
(0.0708895 0.884337 -0.252222)
(0.0808914 0.887737 -0.270505)
(-0.013374 0.9759 -0.31397)
(0.039484 0.90115 -0.2598)
(0.0807682 0.942134 -0.295914)
(0.0561041 0.967721 -0.306758)
(0.0298579 1.04404 -0.356598)
(0.0342353 0.809442 -0.404738)
(0.0306516 0.812665 -0.417216)
(0.0403562 0.792103 -0.411716)
(0.0499008 0.863027 -0.437821)
(0.0292719 0.770535 -0.391769)
(0.0217361 0.637401 -0.360198)
(0.0413789 0.579684 -0.356571)
(0.0381957 0.84962 -0.433676)
(0.0637454 0.798016 -0.412684)
(0.0701434 0.550233 -0.35509)
(0.063766 0.708104 -0.403587)
(0.0538182 0.665917 -0.384932)
(0.0379644 0.986661 -0.289845)
(0.0196636 1.10379 -0.336591)
(0.0252054 1.08528 -0.328817)
(0.020187 1.09396 -0.340833)
(0.0384833 1.00509 -0.300685)
(0.0142236 1.15387 -0.378387)
(0.00296646 1.15782 -0.381294)
(0.0307594 1.06589 -0.342677)
(0.0582114 1.0136 -0.313291)
(0.0560661 1.01464 -0.315583)
(0.0605813 0.870883 -0.344195)
(0.0669818 0.868875 -0.332456)
(0.0878242 0.844973 -0.317344)
(0.0974004 0.810928 -0.304327)
(0.0586762 0.865871 -0.341935)
(0.0805324 0.67458 -0.296497)
(0.075185 0.732943 -0.31512)
(0.0514931 0.835491 -0.342159)
(0.0556672 0.830266 -0.341394)
(0.0922832 0.814464 -0.302106)
(0.0907008 0.725649 -0.274238)
(0.0836272 0.80551 -0.309642)
(0.0934493 0.790153 -0.304906)
(0.0833729 0.725818 -0.297662)
(0.0686749 0.726383 -0.313238)
(0.0833062 0.616929 -0.253331)
(0.0863042 0.619525 -0.252015)
(0.0917774 0.612721 -0.252352)
(0.012578 1.16021 -0.421352)
(0.0336359 1.08086 -0.398362)
(-0.0137426 1.14682 -0.417821)
(0.00047975 1.13668 -0.414726)
(0.0235196 1.13708 -0.41338)
(0.0349809 1.09523 -0.40174)
(0.0132041 1.10814 -0.406551)
(-0.0248348 1.09223 -0.391143)
(-0.0274043 1.06042 -0.384399)
(0.0291343 1.09768 -0.403341)
(-0.00531828 1.1398 -0.415477)
(-0.0195815 1.10947 -0.393542)
(0.0250965 1.15739 -0.419494)
(0.0286267 1.13594 -0.413032)
(0.0822257 0.66213 -0.278765)
(0.0916414 0.67893 -0.279406)
(0.0856466 0.716409 -0.307226)
(0.0884256 0.563689 -0.241174)
(0.0894332 0.7754 -0.341398)
(0.0873712 0.67398 -0.299947)
(0.0930767 0.723134 -0.31367)
(0.0972667 0.674575 -0.299334)
(0.0905273 0.880405 -0.347201)
(0.0880369 0.84313 -0.336954)
(0.0826051 0.89739 -0.347735)
(0.088931 0.880039 -0.349221)
(0.0959342 0.827947 -0.346625)
(0.102334 0.738278 -0.282673)
(0.0988104 0.768527 -0.297056)
(0.107283 0.785256 -0.30566)
(0.10557 0.853532 -0.347807)
(0.0948996 0.893026 -0.354373)
(0.103496 0.734124 -0.315227)
(0.102323 0.741982 -0.28873)
(0.102408 0.691307 -0.270502)
(0.102552 0.700582 -0.279433)
(0.112236 0.743332 -0.30896)
(0.0981888 0.727304 -0.283569)
(0.0986462 0.773809 -0.305175)
(0.117702 0.687547 -0.286216)
(0.109881 0.713045 -0.294338)
(0.0377596 0.826114 -0.319343)
(0.0357925 0.856462 -0.322867)
(0.0421834 1.09393 -0.410501)
(0.0192547 1.10507 -0.4144)
(0.0285295 0.908393 -0.349614)
(0.0301473 0.894792 -0.339816)
(0.0158068 1.07945 -0.396996)
(0.0152174 1.10455 -0.408597)
(0.00815716 1.12188 -0.414076)
(-0.0120896 0.746007 -0.209218)
(0.00732681 0.728313 -0.182381)
(-0.0097204 0.839321 -0.244217)
(-0.0103907 0.903244 -0.276771)
(-0.0247349 0.68492 -0.201631)
(-0.00663868 0.715098 -0.199205)
(-0.0550714 0.807539 -0.262196)
(-0.0199588 0.72333 -0.218264)
(-0.0162538 0.666402 -0.188541)
(-0.00770243 0.86028 -0.267092)
(-0.0459505 0.671073 -0.215719)
(-0.0327516 0.694376 -0.216033)
(-0.00794621 0.761305 -0.218307)
(-0.00385693 0.701561 -0.183753)
(0.0393135 0.699937 -0.313251)
(0.0397066 0.763639 -0.330666)
(0.0345994 0.772191 -0.338192)
(0.0360148 0.877087 -0.372669)
(0.0273098 0.904511 -0.374055)
(0.0269407 0.783839 -0.338504)
(0.0391969 0.743709 -0.327947)
(0.0363574 0.665618 -0.298349)
(0.027938 0.711907 -0.318606)
(0.0402465 0.890527 -0.380771)
(0.0257884 0.765243 -0.333457)
(0.024868 0.743731 -0.323597)
(0.0318891 0.757091 -0.323716)
(0.0306549 0.658924 -0.297283)
(0.0371433 0.906591 -0.37974)
(0.0327603 0.699546 -0.305977)
(0.0391447 0.655581 -0.291656)
(0.0798919 0.678383 -0.328875)
(0.0807755 0.697146 -0.345391)
(0.083217 0.651129 -0.308793)
(0.0826086 0.635405 -0.321929)
(0.0737248 0.561697 -0.287465)
(0.0773271 0.70986 -0.354658)
(0.0723916 0.664119 -0.3341)
(0.075722 0.718335 -0.35134)
(0.0720901 0.617375 -0.299206)
(0.0661871 0.657913 -0.317129)
(0.0760221 0.632913 -0.316554)
(0.0668819 0.619791 -0.307099)
(0.0699246 0.558599 -0.280874)
(0.0704296 0.584721 -0.292352)
(0.0358239 1.07196 -0.416215)
(0.0406239 1.06638 -0.422801)
(0.0152187 1.1307 -0.450368)
(0.0238457 1.12237 -0.444845)
(0.0520058 1.02631 -0.400367)
(0.0663631 0.958035 -0.374308)
(0.0317138 1.08899 -0.433418)
(0.0424747 0.988516 -0.406278)
(0.0447091 1.00787 -0.422575)
(0.0498253 0.978197 -0.397153)
(0.0380419 1.03554 -0.416153)
(0.038539 1.04297 -0.432614)
(0.0431106 1.01453 -0.424522)
(0.0531287 0.976774 -0.387645)
(0.0635326 0.915393 -0.383827)
(0.0431394 0.957196 -0.395802)
(0.0118838 0.550848 -0.217496)
(0.0121617 0.486368 -0.200489)
(0.0321492 0.767437 -0.27641)
(0.0253455 0.757855 -0.274889)
(0.0193286 0.743847 -0.279134)
(0.0125468 0.728025 -0.268777)
(0.0123159 0.527017 -0.208309)
(0.0334264 0.6131 -0.232701)
(0.0163635 0.670991 -0.248606)
(0.0264565 0.723741 -0.268234)
(0.0128669 0.682095 -0.253696)
(0.00539782 0.703831 -0.262105)
(0.00899132 0.554494 -0.218074)
(0.055013 1.02143 -0.458411)
(0.0602358 1.0583 -0.480966)
(0.0630943 0.982862 -0.463282)
(0.0651832 0.958102 -0.444665)
(0.0571307 1.02039 -0.479494)
(0.0733443 0.946111 -0.44956)
(0.0594316 0.932014 -0.442828)
(0.0211577 0.880926 -0.274598)
(0.025225 0.886396 -0.282723)
(0.0290822 0.876453 -0.259683)
(0.0417904 0.815512 -0.240988)
(0.0220749 0.838913 -0.265195)
(0.0238258 0.830251 -0.263178)
(0.0222614 0.924572 -0.292794)
(0.02365 0.838678 -0.27221)
(0.0385957 0.874619 -0.258713)
(0.0481522 0.803378 -0.238425)
(0.0297034 0.760936 -0.224208)
(0.0183937 0.741644 -0.225197)
(0.0231381 0.945116 -0.295972)
(0.021607 0.905315 -0.297875)
(0.0237332 1.06569 -0.342457)
(0.0431014 1.01842 -0.310583)
(0.0229823 0.860184 -0.266607)
(0.0815837 0.672339 -0.301306)
(0.0869063 0.71709 -0.311295)
(0.0798889 0.732796 -0.320787)
(0.0688668 0.745446 -0.327919)
(0.0784414 0.711279 -0.319644)
(0.0802934 0.652973 -0.301891)
(0.0709088 0.78695 -0.3463)
(0.0852317 0.767878 -0.342821)
(0.0819774 0.602907 -0.25605)
(0.0848632 0.64264 -0.291337)
(0.0790531 0.733041 -0.333938)
(0.0786305 0.723005 -0.300411)
(0.0746851 0.566087 -0.256785)
(0.0684679 0.847723 -0.359215)
(0.0954927 0.716572 -0.319378)
(0.0731625 0.643368 -0.275304)
(0.0690238 0.600644 -0.252412)
(-0.0252432 0.577382 -0.173533)
(-0.00843427 0.592288 -0.158048)
(-0.00826121 0.423439 -0.140324)
(-0.00822032 0.425797 -0.142444)
(-0.0129866 0.448101 -0.141034)
(-0.0249769 0.494234 -0.170567)
(-0.0232691 0.585881 -0.168523)
(-0.00708205 0.410237 -0.136624)
(-0.00116064 0.388123 -0.128321)
(-0.00481158 0.411244 -0.126805)
(-0.00308451 0.389795 -0.127157)
(-0.00277484 0.453512 -0.129321)
(-0.00164953 0.435809 -0.129958)
(-0.00210956 0.386048 -0.127152)
(-0.0045712 0.539158 -0.153139)
(-0.00617782 0.439742 -0.134216)
(-0.00323607 0.409442 -0.133441)
(-0.00816536 0.430296 -0.142979)
(0.0470709 0.9762 -0.289055)
(0.0459978 0.832388 -0.237768)
(0.0487975 0.759322 -0.210751)
(0.0546099 0.873313 -0.242221)
(0.059882 0.822877 -0.227197)
(0.054032 0.754318 -0.203621)
(0.0440318 0.985106 -0.296177)
(0.0493167 0.847795 -0.242668)
(0.042158 0.892562 -0.267194)
(0.053582 0.897549 -0.259874)
(0.0234462 0.637231 -0.30157)
(0.0265563 0.601419 -0.285751)
(0.0257256 0.705923 -0.336395)
(0.0359762 0.719338 -0.338054)
(0.0164486 0.596177 -0.295885)
(0.0162277 0.546154 -0.274672)
(0.0396521 0.634109 -0.297812)
(0.0354351 0.601262 -0.287382)
(0.0177009 0.525215 -0.264198)
(0.0410344 0.612179 -0.298078)
(0.0459267 0.668081 -0.31804)
(0.0322885 0.65 -0.318772)
(0.0154824 0.626179 -0.306397)
(0.0453821 0.763773 -0.35516)
(0.0577601 0.735166 -0.264613)
(0.046507 0.747345 -0.280202)
(0.0603628 0.696784 -0.252572)
(0.0470867 0.881392 -0.340694)
(0.0496397 0.825985 -0.312931)
(0.0458437 0.984617 -0.382301)
(0.0490131 0.988572 -0.37463)
(0.0518268 0.850288 -0.314882)
(0.0531132 0.717525 -0.273136)
(0.0583226 0.710765 -0.264751)
(0.0612805 0.978154 -0.365455)
(0.0628973 0.920528 -0.349601)
(0.0548769 0.822183 -0.300278)
(0.0606272 0.87303 -0.323508)
(0.0691107 0.978275 -0.368247)
(0.0621947 0.840175 -0.319312)
(0.0615271 0.843819 -0.32793)
(0.0620634 0.796541 -0.302818)
(0.0364955 0.694579 -0.246936)
(0.0359279 0.740464 -0.266339)
(0.04357 0.726471 -0.252733)
(0.0497246 0.695603 -0.235564)
(0.0407941 0.650232 -0.224401)
(0.0409461 0.715064 -0.250782)
(0.0362255 0.643037 -0.22421)
(0.0576067 0.847097 -0.297677)
(0.0589238 0.871455 -0.312782)
(0.0446219 0.710061 -0.253669)
(0.0634307 0.724756 -0.245658)
(0.0528063 0.750097 -0.257908)
(0.0614683 0.863777 -0.298225)
(0.0592969 0.858723 -0.296856)
(0.0639187 0.863487 -0.297607)
(0.0590546 0.815541 -0.293227)
(0.0641401 0.838915 -0.304791)
(0.0583895 0.572768 -0.267109)
(0.0627457 0.465907 -0.237913)
(0.0606596 0.487279 -0.246225)
(0.0508201 0.446126 -0.22436)
(0.0498287 0.417068 -0.209632)
(0.0495495 0.588446 -0.280157)
(0.0558079 0.585471 -0.276394)
(0.0521909 0.474959 -0.239322)
(0.0537631 0.451815 -0.224248)
(0.0470871 0.567456 -0.279056)
(0.0705097 0.864483 -0.310403)
(0.070606 0.811953 -0.298744)
(0.0745328 0.940834 -0.336196)
(0.0789824 0.915701 -0.334178)
(0.0755383 0.958238 -0.357551)
(0.0774832 0.95561 -0.352995)
(0.0771743 0.994704 -0.358614)
(0.0846231 0.824757 -0.29085)
(0.0845307 0.840601 -0.306192)
(0.0868467 0.723387 -0.258085)
(0.0898261 0.711943 -0.249265)
(0.0904457 0.847445 -0.319181)
(0.0846845 0.915094 -0.339916)
(0.099879 0.807649 -0.302973)
(0.0994221 0.714467 -0.280931)
(0.0918384 0.835699 -0.30634)
(0.0773166 0.739628 -0.254999)
(0.0721606 0.900132 -0.332045)
(0.0861795 0.825439 -0.31031)
(0.0777006 0.813895 -0.296413)
(0.0219364 0.798267 -0.231383)
(0.0353603 0.722735 -0.183628)
(0.0333775 0.756928 -0.211643)
(0.0465113 0.740804 -0.193501)
(0.02571 0.666336 -0.173169)
(0.0508248 0.615136 -0.166045)
(0.0485544 0.576934 -0.160509)
(0.00872267 0.791826 -0.223817)
(0.0191766 0.710221 -0.194256)
(0.0310532 0.597393 -0.16607)
(0.0321079 0.598808 -0.161922)
(0.0202442 0.592916 -0.159549)
(0.0257731 0.577232 -0.156513)
(0.03479 0.561667 -0.14866)
(0.0114619 0.662948 -0.182171)
(0.0297351 0.776696 -0.220811)
(0.0187362 0.812429 -0.230181)
(0.0363129 0.691128 -0.192213)
(0.000894188 1.12431 -0.390674)
(-0.0104867 1.1449 -0.3881)
(0.00580102 1.08173 -0.380002)
(-0.00329397 1.12321 -0.388716)
(0.00333379 1.09417 -0.371714)
(0.00525067 1.08469 -0.370579)
(0.0104424 0.916027 -0.297589)
(0.0078175 0.846211 -0.265245)
(0.00520602 0.895767 -0.311006)
(0.00198659 0.997241 -0.345099)
(0.0096719 0.896896 -0.286096)
(0.0078241 0.939479 -0.300569)
(0.00553164 1.07906 -0.356169)
(0.00816667 1.07501 -0.353298)
(0.00969317 0.892546 -0.301946)
(0.00313636 0.941589 -0.336181)
(0.00537697 0.906707 -0.315128)
(0.0125548 0.83531 -0.284344)
(0.00950859 0.901172 -0.306523)
(0.0106596 0.910562 -0.308733)
(-0.00116747 1.09054 -0.37381)
(0.00471466 0.94393 -0.301666)
(0.078106 0.670987 -0.266438)
(0.074479 0.62992 -0.248884)
(0.0824207 0.709422 -0.296711)
(0.0711813 0.614738 -0.254042)
(0.079475 0.69598 -0.275251)
(0.0834724 0.670533 -0.264404)
(0.0873327 0.760258 -0.3144)
(0.0833429 0.678238 -0.283981)
(0.0815836 0.717675 -0.297089)
(0.079385 0.695081 -0.271703)
(0.0850633 0.727277 -0.292493)
(0.0777715 0.841127 -0.329113)
(0.0768287 0.807314 -0.321523)
(0.0780358 0.843495 -0.332022)
(0.0863978 0.83327 -0.327887)
(0.0841417 0.751219 -0.308867)
(0.0850547 0.849381 -0.347711)
(0.0808705 0.865666 -0.351004)
(0.078356 0.847376 -0.333148)
(0.076672 0.87482 -0.352285)
(0.0335668 0.722748 -0.325058)
(0.033375 0.635975 -0.291957)
(0.0371695 0.799558 -0.354345)
(0.0347929 0.709953 -0.322776)
(0.0341919 0.916598 -0.388773)
(0.0336441 0.943556 -0.392273)
(0.0395197 0.66915 -0.300819)
(0.0406225 0.806794 -0.359503)
(0.036847 0.911525 -0.390909)
(0.0392263 0.943557 -0.398931)
(0.0343045 0.788863 -0.344753)
(-0.00301892 0.440162 -0.210445)
(-0.0025484 0.454159 -0.214541)
(0.0581915 0.742051 -0.204374)
(0.0676852 0.784615 -0.213097)
(0.0635431 0.808344 -0.22695)
(0.0707873 0.66623 -0.202374)
(0.0577569 0.698911 -0.19361)
(0.0698785 0.780816 -0.237317)
(0.0662079 0.695031 -0.268238)
(0.0674643 0.727576 -0.285521)