/*--------------------------------*- C++ -*----------------------------------*\
| =========                 |                                                 |
| \\      /  F ield         | OpenFOAM: The Open Source CFD Toolbox           |
|  \\    /   O peration     | Version:  v1612+                                |
|   \\  /    A nd           | Web:      www.OpenFOAM.com                      |
|    \\/     M anipulation  |                                                 |
\*---------------------------------------------------------------------------*/
FoamFile
{
    version     2.0;
    format      ascii;
    class       surfaceScalarField;
    location    "50";
    object      phi;
}
// * * * * * * * * * * * * * * * * * * * * * * * * * * * * * * * * * * * * * //

dimensions      [0 3 -1 0 0 0 0];

internalField   nonuniform List<scalar> 
46493
(
-3.18886e-09
3.14745e-09
2.22657e-09
-2.18514e-09
4.19548e-09
-7.67326e-09
3.8521e-09
-3.74336e-10
-7.7706e-09
-4.32286e-09
7.82738e-09
4.26611e-09
2.29629e-09
-2.52567e-09
1.15474e-10
1.13837e-10
-2.48456e-09
-3.78618e-09
2.50303e-09
3.76774e-09
-3.17542e-09
-3.39317e-09
3.0843e-09
3.48429e-09
3.07667e-09
-1.40282e-09
-1.79627e-09
1.22424e-10
-3.77542e-09
-3.77562e-09
3.51706e-09
4.03401e-09
-2.81042e-09
5.30636e-11
3.62019e-09
-8.6281e-10
2.40978e-09
6.84959e-09
-1.82311e-09
-7.43626e-09
-9.70177e-10
2.45167e-09
-1.55838e-09
7.6929e-11
-2.13349e-09
3.61767e-09
1.42458e-09
-2.90877e-09
-1.48685e-09
-5.70197e-09
7.79743e-10
6.4091e-09
1.04641e-09
-4.7789e-09
2.49863e-09
1.23393e-09
-6.76518e-09
5.02895e-09
2.99969e-09
-1.26342e-09
-5.36423e-09
1.88406e-09
-4.2859e-09
-7.43169e-10
-6.98708e-09
-3.84933e-09
1.15796e-08
-6.38859e-09
-3.91817e-09
1.10676e-08
-7.6078e-10
1.08036e-08
-9.55829e-09
-7.6339e-09
-3.87505e-09
1.20481e-09
2.66272e-09
7.47342e-12
4.9728e-09
2.81282e-09
1.63335e-09
-9.41898e-09
-5.83313e-09
-3.29879e-09
8.38875e-09
9.09062e-09
-4.05684e-09
-2.38843e-09
-2.64532e-09
-2.01754e-09
-3.32581e-09
3.71501e-09
1.62829e-09
-9.40805e-09
7.28333e-09
3.14335e-09
-1.01862e-09
-1.20504e-08
-3.12232e-09
5.76471e-09
-2.84513e-09
-3.89045e-09
1.0319e-08
-3.5834e-09
-3.6772e-10
2.83812e-09
7.13141e-10
-3.18362e-09
3.2261e-09
-4.27813e-10
-2.86214e-09
6.3862e-11
6.13541e-09
9.06903e-10
-2.99431e-09
-4.04806e-09
-1.35889e-09
-7.2496e-09
7.68165e-09
9.26846e-10
1.39498e-09
4.17373e-09
-1.79282e-09
-3.7759e-09
8.85068e-10
1.34696e-09
4.96827e-09
-7.20031e-09
-6.31539e-09
7.39576e-09
-5.3528e-09
4.27244e-09
-8.44491e-09
3.8236e-09
6.53471e-09
-1.91337e-09
4.66754e-09
6.78923e-09
-1.12655e-08
-1.91278e-10
-2.52732e-09
-2.18253e-09
5.9162e-09
-1.20635e-09
-1.52891e-09
1.60971e-09
2.08022e-09
-2.16108e-09
-8.19414e-09
6.19793e-09
-1.16182e-09
3.158e-09
9.53517e-09
-2.10712e-09
-2.11506e-09
-5.31302e-09
2.00987e-09
-3.59389e-09
1.5312e-09
5.28254e-11
-3.899e-09
3.81988e-09
1.06541e-10
-2.74735e-11
1.92052e-09
-3.25247e-09
3.19993e-09
-1.86801e-09
-6.14488e-09
7.05881e-09
-3.40911e-09
2.49517e-09
1.18099e-09
7.10604e-09
-2.92259e-09
-5.36445e-09
3.15285e-09
2.36074e-09
-3.37137e-09
-2.14224e-09
-3.11271e-09
5.95056e-09
-4.21012e-09
1.37224e-09
3.94275e-10
3.36224e-09
-3.56842e-09
-1.88098e-10
6.318e-09
7.78083e-10
-6.70182e-09
3.10248e-09
-1.07982e-08
1.37815e-09
6.31761e-09
-7.70412e-09
2.90219e-09
1.02654e-09
-3.73375e-09
-2.3606e-09
3.29074e-09
2.80361e-09
-1.33524e-09
3.82918e-09
-2.58069e-09
8.68106e-11
-1.92327e-09
-3.55865e-09
2.54572e-09
2.93625e-09
3.12563e-09
-1.53249e-09
2.3999e-09
5.3349e-09
-2.88589e-09
3.97365e-09
-4.15496e-09
3.8409e-09
4.00721e-09
-3.69313e-09
-3.22498e-11
2.09017e-09
-2.01847e-09
-3.94564e-11
-2.59364e-09
4.5396e-09
-2.34428e-09
3.9848e-10
3.02639e-09
-3.91065e-09
1.64025e-09
-7.55993e-10
-6.08265e-10
-2.28977e-09
7.1386e-09
-4.24057e-09
-5.92874e-09
4.6926e-09
1.31828e-09
-8.21349e-11
-1.00352e-09
-6.45617e-09
3.63114e-09
3.82854e-09
5.75406e-09
-1.44504e-10
-1.58626e-09
-4.02327e-09
2.80918e-09
-2.95806e-09
3.74046e-09
-3.59154e-09
-4.72712e-09
-2.93196e-09
7.53029e-09
1.28765e-10
6.98336e-09
-6.36985e-09
-5.08115e-09
4.46762e-09
-9.74626e-09
3.39772e-09
-2.17063e-09
8.51918e-09
1.32618e-09
4.75611e-09
-2.11711e-09
-3.96516e-09
-2.69528e-09
-1.76903e-09
4.41669e-09
4.76407e-11
-5.5425e-10
-2.00872e-09
2.57358e-09
-1.0638e-11
5.89643e-09
-1.23152e-09
-5.04557e-09
3.80639e-10
-2.53013e-11
-2.23368e-09
2.40473e-09
-1.45765e-10
4.42518e-09
-3.83053e-09
5.54072e-09
-2.80859e-09
1.61964e-09
6.71828e-09
-5.52931e-09
-5.35517e-09
1.35258e-09
-1.53718e-09
5.53975e-09
-2.38966e-09
-1.28659e-09
3.62288e-09
5.3379e-11
-1.8701e-09
7.85845e-10
3.08269e-09
-1.99842e-09
-2.32043e-09
-1.26992e-09
7.64612e-11
4.54313e-09
1.29387e-09
-1.23733e-09
-4.59971e-09
-2.73177e-09
-2.59115e-09
5.1463e-09
1.7659e-10
4.01727e-09
-5.07952e-09
-1.98284e-09
3.04506e-09
4.4347e-09
5.37695e-09
-5.98004e-09
-3.83161e-09
9.62394e-09
-2.54518e-09
-3.06416e-09
-4.01455e-09
-6.07013e-09
4.78881e-09
4.55794e-09
-3.27664e-09
3.9471e-09
-5.55632e-09
7.65665e-09
-6.04744e-09
-1.29273e-09
-5.23501e-09
-6.22803e-10
2.91332e-09
-7.04269e-09
4.19147e-09
-6.20891e-11
-3.32843e-09
3.13689e-09
3.21793e-09
-1.42459e-09
-1.3274e-09
-1.15866e-09
1.11901e-09
1.4826e-09
-2.49306e-09
-1.0861e-10
-3.90105e-09
7.80976e-09
3.4258e-10
-4.25131e-09
-2.42384e-09
-5.30506e-09
8.73746e-09
-1.00857e-09
1.01132e-09
6.88592e-09
-3.45543e-09
-4.44183e-09
2.06004e-09
3.50348e-09
-5.46014e-09
-1.03379e-10
2.91946e-09
1.21411e-09
-8.60772e-10
-3.2728e-09
5.36077e-09
-3.17475e-09
3.16793e-09
-5.35393e-09
9.59265e-10
2.27701e-09
-3.20035e-09
-3.59792e-11
4.10908e-09
-3.85266e-09
-2.79188e-09
2.53546e-09
-3.95826e-09
-4.06991e-09
7.97845e-09
4.97119e-11
5.08882e-09
-2.52665e-09
-2.63325e-09
7.10785e-11
2.72583e-09
1.49638e-09
6.65639e-10
-4.88786e-09
4.3827e-09
-3.6389e-09
-1.48052e-09
7.36718e-10
3.21145e-09
8.19605e-09
-7.02479e-09
7.0552e-09
2.05463e-09
2.36639e-09
1.97534e-09
-1.20677e-09
-3.27591e-09
2.35159e-09
1.89457e-09
8.48823e-11
-4.33108e-09
4.99922e-09
-7.18499e-09
1.36351e-09
8.22216e-10
4.8237e-11
-5.73412e-09
-3.99308e-10
6.08515e-09
-5.53375e-10
1.1026e-09
8.54143e-09
-1.92178e-09
-4.4319e-09
6.12113e-09
2.32552e-10
-2.07929e-10
-2.61937e-09
6.30172e-09
-3.4744e-09
-7.36411e-09
4.58608e-11
7.58391e-09
-2.65657e-10
-3.05387e-09
3.74792e-09
2.88866e-09
-3.58272e-09
3.51346e-09
1.95146e-09
9.7228e-10
-6.43724e-09
4.85679e-10
-2.21443e-09
-4.6166e-09
6.34533e-09
-7.51661e-09
-2.27028e-09
7.55689e-09
6.84244e-09
2.12079e-10
2.70087e-09
1.90592e-09
-1.51362e-09
-4.69703e-10
7.74026e-11
-5.12019e-10
1.2262e-09
-7.64774e-10
5.0593e-11
-5.31325e-09
-3.71498e-09
8.98169e-09
4.65807e-11
5.06948e-09
3.20935e-09
-4.71746e-09
-3.56138e-09
8.1346e-09
-3.58952e-09
-5.98788e-09
1.44282e-09
1.41699e-10
5.69822e-09
-2.05037e-09
-3.78955e-09
-6.61169e-09
-3.28841e-09
5.89903e-09
4.00109e-09
7.75834e-09
4.73791e-09
-3.28416e-09
-9.21208e-09
-2.17322e-09
-1.2015e-09
3.31731e-09
5.73896e-11
-3.50356e-09
-7.25432e-09
8.36216e-09
2.39571e-09
7.3761e-09
4.90685e-09
-4.35342e-09
-7.92952e-09
3.2397e-09
1.07441e-08
-8.07396e-09
-5.90984e-09
-2.78848e-09
-1.42865e-09
-1.85424e-09
6.07136e-09
3.51121e-09
7.5873e-09
-5.66375e-09
-5.43476e-09
3.08847e-09
-1.857e-09
-8.853e-09
7.62157e-09
6.99842e-09
-5.27705e-09
-4.44778e-09
2.72642e-09
-3.70967e-09
2.00214e-09
3.27414e-10
1.38015e-09
9.49525e-10
-6.75215e-10
-2.67248e-09
2.39816e-09
-5.43625e-09
3.68156e-09
1.93408e-09
-1.79396e-10
-3.51123e-09
4.98763e-09
-5.26882e-10
5.06342e-09
-9.00076e-09
8.86819e-09
-4.93083e-09
-4.87714e-10
9.70553e-10
-1.94809e-09
1.46527e-09
6.57879e-09
-2.4003e-09
-4.25989e-09
8.14046e-11
2.75562e-09
-3.05636e-09
3.99534e-10
-9.90114e-11
-6.83593e-10
-8.40214e-10
3.69748e-11
2.59322e-09
-3.82818e-09
-4.46699e-09
4.54122e-09
5.12923e-09
-5.44634e-09
-4.2241e-09
6.58112e-09
-3.43627e-09
-4.01423e-09
8.69383e-10
-5.07112e-09
8.02414e-09
-5.84223e-09
2.8892e-09
-1.73815e-10
-4.5323e-09
4.66399e-09
4.21175e-11
7.14946e-09
-6.37224e-09
6.22619e-09
-7.0034e-09
-4.98123e-09
-1.54719e-09
4.09879e-09
2.42961e-09
-4.23857e-10
-8.94676e-09
5.22277e-09
4.14782e-09
6.86922e-09
-9.17894e-10
-3.14213e-09
2.12376e-09
9.13691e-09
-4.97199e-09
-6.28867e-09
3.8866e-09
-1.24939e-08
7.95651e-09
6.50827e-10
-1.62111e-09
1.84883e-09
-4.87831e-09
4.65064e-09
-1.25457e-09
1.32676e-09
-3.18246e-09
3.11027e-09
8.28573e-10
-2.05797e-09
6.20394e-09
-4.97451e-09
3.09947e-09
4.69861e-09
-2.38395e-09
-5.41418e-09
2.6673e-09
-2.14881e-09
-5.83171e-09
2.34074e-09
-4.17002e-09
-1.4135e-09
3.24291e-09
1.81914e-09
2.22593e-09
-2.9532e-09
-1.09186e-09
-3.54917e-09
-9.02492e-10
6.62275e-09
-2.17108e-09
1.16618e-09
-4.57185e-09
-1.71408e-09
5.11973e-09
5.0471e-09
3.62022e-09
-3.97627e-09
-4.69105e-09
4.66676e-09
-1.85218e-09
-2.86622e-09
5.1648e-11
3.62565e-09
-8.34697e-10
5.12237e-09
-7.91333e-09
-7.8737e-10
-2.91349e-09
-1.16283e-09
4.86369e-09
-4.44214e-09
2.09471e-09
-5.78066e-09
8.12808e-09
5.67446e-10
6.07115e-09
-5.6696e-09
-9.69021e-10
-3.03837e-09
1.07313e-09
4.69108e-09
-9.94557e-10
2.21321e-09
-4.67301e-09
3.45435e-09
3.27625e-09
1.39366e-09
-6.17792e-09
1.50795e-09
5.71548e-09
4.27626e-09
-1.68377e-09
-8.30796e-09
-2.46572e-09
-9.9741e-10
-3.29576e-09
1.45822e-09
7.36307e-10
-7.43184e-09
5.23731e-09
-9.7435e-10
-6.90003e-09
6.5969e-09
1.27747e-09
-6.26896e-09
-3.32306e-09
1.82142e-09
3.37757e-10
4.34876e-09
-8.95095e-10
-3.79139e-09
8.19664e-10
-4.40676e-09
1.20361e-09
2.38351e-09
-1.73487e-09
2.81994e-09
-1.09918e-09
1.40816e-11
-7.64249e-10
5.95116e-09
2.70044e-09
-7.88734e-09
2.11442e-09
-3.88602e-09
1.78399e-09
-1.23446e-11
2.29007e-09
4.38216e-09
-4.17087e-10
-6.25513e-09
3.83147e-09
8.54646e-10
-4.61898e-09
-6.71502e-11
3.35923e-09
-4.4943e-09
3.46824e-09
-2.33325e-09
2.68721e-09
-6.51878e-09
3.96703e-09
-1.35503e-10
-4.21415e-09
3.12474e-10
-2.54856e-09
6.45024e-09
-7.13965e-10
-2.41961e-09
1.53133e-09
1.60246e-09
-3.1073e-09
5.45782e-09
-2.43346e-09
8.29287e-11
3.38956e-09
-6.52717e-09
-2.83645e-09
5.97406e-09
-4.83886e-09
7.31249e-09
4.12052e-09
-6.59417e-09
2.04049e-09
-1.87836e-09
-3.20718e-09
3.04504e-09
6.8097e-10
7.86317e-10
2.90972e-11
-2.15939e-09
7.48711e-09
-1.01031e-09
-4.31743e-09
-1.70631e-09
-1.14092e-09
2.73663e-09
1.10608e-10
-8.13738e-10
1.97301e-09
1.66917e-10
-1.50399e-09
-4.28511e-09
4.49605e-09
1.29305e-09
2.20662e-09
6.81338e-09
-5.85308e-09
-3.16692e-09
2.5287e-09
3.54839e-09
-4.75089e-09
-1.3262e-09
-5.97458e-09
6.8649e-10
-4.80957e-10
5.76903e-09
3.97121e-09
-6.77007e-09
-3.17571e-09
-1.17356e-09
3.39049e-09
8.1624e-11
4.26389e-09
-6.20799e-09
2.03457e-09
-9.04849e-11
9.0015e-09
-3.51524e-09
-6.06422e-09
5.77996e-10
-2.5774e-10
5.42228e-09
2.93887e-09
-8.1034e-09
2.03153e-09
-4.97753e-09
-4.44261e-09
7.38861e-09
6.11451e-09
-6.43131e-09
-2.71102e-09
3.02783e-09
-4.21602e-09
7.89656e-09
2.45253e-10
-3.92578e-09
1.54275e-09
-8.75475e-10
-7.41524e-10
7.42344e-11
-1.39884e-09
6.58598e-09
-7.0122e-09
1.82504e-09
7.34217e-10
-2.16066e-09
-4.44146e-11
-1.0868e-09
-7.6558e-10
-3.89628e-09
-5.85398e-09
3.55089e-09
-5.65171e-09
7.95479e-09
1.16769e-09
2.91754e-09
3.04693e-09
-7.13216e-09
-5.39994e-09
2.22338e-09
-2.67744e-09
2.03718e-09
-3.18605e-09
5.77379e-09
-5.54131e-10
1.84053e-09
-1.35066e-09
6.41931e-11
-1.41886e-09
-3.47369e-09
3.40318e-09
1.48941e-09
3.78757e-09
9.86621e-10
-1.40848e-09
-3.36568e-09
-8.86118e-09
9.40978e-09
-5.51542e-09
4.96683e-09
2.46298e-09
-8.66862e-09
1.05115e-08
-4.30587e-09
-3.39826e-09
6.66189e-09
-9.67326e-10
-3.45012e-09
5.56136e-09
6.63407e-09
-8.74527e-09
-1.81353e-09
-4.67937e-09
-9.99507e-10
7.4924e-09
4.48371e-09
3.24767e-11
2.7007e-09
-7.21687e-09
4.39751e-09
-1.30481e-09
-3.15993e-09
6.72241e-11
-6.78104e-09
4.25173e-09
3.5337e-09
-1.00439e-09
-5.03482e-09
2.69936e-09
3.19363e-09
-8.5817e-10
5.11197e-09
2.86183e-09
-6.11394e-09
-1.85984e-09
6.92665e-09
4.66968e-09
-3.97727e-09
-7.61904e-09
4.60816e-09
2.35615e-09
-3.7656e-11
4.62234e-09
-1.07728e-09
6.69947e-09
-1.02445e-08
-8.01752e-09
5.96639e-09
-1.5335e-09
3.58467e-09
-2.40323e-09
3.4322e-09
-1.13199e-09
1.03011e-10
2.13644e-09
9.78731e-10
-7.0972e-10
-2.40543e-09
2.03161e-09
-5.56588e-09
3.60328e-09
-6.90076e-11
-3.9391e-09
-3.05416e-09
1.39805e-09
5.59522e-09
2.09685e-09
-1.58022e-09
-7.03609e-10
1.86976e-10
1.40325e-09
-6.06651e-09
-2.16781e-10
8.44511e-09
-1.10977e-09
9.51762e-10
-8.28708e-09
1.45966e-09
-3.14222e-09
1.76905e-09
-8.65034e-11
4.68704e-09
-6.99346e-09
2.40056e-09
-9.41442e-11
7.12415e-09
-6.80811e-09
2.59726e-09
-5.6077e-09
2.22301e-09
2.59158e-09
7.93133e-10
-1.21725e-08
1.36939e-09
7.79688e-09
3.00623e-09
3.20808e-09
-2.41301e-09
-3.71221e-09
2.91717e-09
8.81794e-10
-2.18664e-09
-6.13799e-09
7.44286e-09
2.29162e-09
-6.87365e-09
4.75956e-09
-1.77524e-10
2.05673e-09
2.20857e-09
-2.98326e-09
-1.28192e-09
-4.23586e-09
2.94752e-09
1.42179e-09
-1.33462e-10
-7.14219e-09
-1.23056e-09
3.65507e-09
4.71768e-09
4.91462e-09
2.87197e-09
-7.70531e-09
-8.12738e-11
-1.19882e-09
-7.643e-10
9.30338e-11
4.86611e-09
3.24148e-09
-7.96095e-09
-1.46606e-10
2.04293e-09
4.48497e-09
-3.69002e-09
-2.83789e-09
6.94748e-10
-1.15788e-09
4.06444e-09
-3.60133e-09
-4.59102e-09
-2.03766e-12
1.63862e-09
2.95441e-09
1.76792e-09
-1.92426e-09
2.6394e-09
7.11252e-10
-3.79625e-09
4.45598e-10
3.52523e-09
-3.18429e-09
2.29845e-09
-1.6156e-09
5.36707e-09
1.18049e-10
9.20598e-10
-1.61043e-09
4.77564e-09
2.63604e-09
6.68477e-11
-1.64671e-09
1.49203e-10
-2.02978e-09
6.42609e-09
-8.92012e-09
4.52379e-09
3.3233e-09
-7.30623e-09
-2.29001e-09
6.27294e-09
8.68583e-10
-2.36814e-09
1.65908e-09
-1.59584e-10
-2.18884e-09
1.43781e-09
2.22426e-09
-1.47326e-09
1.99103e-09
7.9762e-10
-1.53846e-09
-1.2502e-09
-1.89088e-09
3.39061e-09
4.91285e-10
-3.66821e-09
-2.76854e-09
4.54587e-09
-1.35364e-09
1.99993e-09
1.51315e-10
-3.37028e-09
-5.338e-09
7.9434e-09
7.64872e-10
-5.61511e-09
6.37554e-09
2.53751e-09
-3.29794e-09
3.12657e-09
-2.47477e-09
-4.96952e-09
4.3177e-09
3.62897e-09
2.5114e-09
-3.70625e-09
-2.43413e-09
1.81326e-09
-3.88916e-09
8.26223e-09
-6.18633e-09
-6.02078e-09
1.59039e-09
2.5899e-09
1.84046e-09
1.93815e-09
6.27659e-10
3.14967e-09
5.61766e-09
-9.37751e-09
3.83481e-09
-7.49251e-11
-4.32224e-09
4.08741e-09
2.09522e-09
-1.8604e-09
5.79221e-09
-4.57781e-09
1.81543e-09
-3.02982e-09
4.48268e-09
5.13302e-09
-5.47447e-09
-4.14121e-09
-9.10309e-10
-7.72815e-09
3.87904e-09
4.75942e-09
-2.52611e-09
2.19092e-09
-2.42546e-09
2.76062e-09
-5.8698e-09
-5.13328e-09
6.1793e-09
4.82376e-09
2.97116e-09
-3.5059e-09
4.85952e-10
4.88014e-11
-2.49037e-09
5.13594e-09
-2.76659e-09
1.21022e-10
2.55234e-09
-5.91495e-10
1.26081e-09
-3.22165e-09
2.77164e-09
-5.23807e-09
8.23843e-10
1.64259e-09
6.13901e-09
-4.41529e-09
-1.75533e-09
3.16209e-11
-5.74078e-09
1.89261e-10
-5.69685e-10
6.1212e-09
-5.35103e-09
4.21096e-09
-3.59512e-09
4.73519e-09
-4.94491e-09
3.87246e-09
-2.05449e-09
3.12692e-09
3.84678e-09
-5.73794e-09
2.9944e-09
-1.10325e-09
3.17853e-09
-6.74959e-09
1.78301e-09
1.78807e-09
-1.05136e-09
9.17339e-11
-5.78152e-09
-4.04048e-09
7.99273e-11
-4.31483e-10
9.76525e-10
-4.63672e-09
4.0917e-09
2.40294e-09
-5.17927e-09
2.96655e-09
-1.90193e-10
1.75948e-09
-5.47958e-09
3.81526e-09
-9.51566e-11
4.35352e-09
-2.1e-09
2.41323e-09
-1.03198e-08
6.57118e-09
3.76803e-09
-1.94077e-11
1.3828e-09
-4.32703e-09
-4.49265e-09
7.4369e-09
-1.3391e-09
3.82923e-09
7.86108e-10
6.32879e-09
-8.93561e-10
-5.09745e-09
-1.80588e-09
2.34495e-09
-4.97859e-10
-4.11788e-11
4.32691e-09
-2.70965e-09
-1.58158e-09
-3.56437e-11
4.71947e-09
-2.75084e-09
2.04864e-09
-1.5182e-09
5.61027e-09
-7.06194e-09
2.96983e-09
-3.19434e-09
3.29212e-09
-3.38205e-09
3.28421e-09
5.50259e-09
-1.70792e-09
2.53618e-09
-6.42497e-09
3.97626e-09
-8.74733e-11
-6.10235e-09
3.12414e-09
3.21643e-09
-2.38185e-10
-4.04821e-09
2.60663e-09
1.59901e-09
-1.5743e-10
-3.12342e-09
4.48914e-09
-1.50291e-09
1.3722e-10
5.33432e-09
-8.72916e-09
1.09057e-08
-7.51084e-09
-3.35364e-09
-3.25355e-09
2.11777e-09
4.48943e-09
3.27627e-09
1.66346e-09
-3.05517e-09
-1.88452e-09
4.67063e-09
-1.50683e-09
1.12493e-10
4.01653e-09
-1.47784e-09
-2.65587e-09
1.17156e-10
-3.39289e-09
3.16416e-09
-2.46148e-09
2.69025e-09
5.55648e-09
-3.23939e-09
-2.44915e-09
1.32025e-10
-6.53355e-09
3.10631e-09
-5.1242e-09
8.55145e-09
6.10645e-09
5.18394e-10
1.84852e-09
-8.47335e-09
-5.5938e-09
9.29544e-09
-2.07104e-09
-1.63054e-09
-1.48129e-09
-3.09699e-09
4.3971e-09
1.8117e-10
1.46842e-09
2.94549e-09
-6.03453e-11
-2.84475e-09
4.246e-09
6.71949e-11
4.25076e-09
-3.84847e-09
5.73675e-09
7.58682e-09
-7.08479e-10
-2.45494e-09
-4.42335e-09
1.48089e-09
-3.06037e-09
6.13417e-09
-4.55473e-09
-2.07784e-09
-1.44787e-09
3.54008e-09
-1.43612e-11
-9.57456e-10
5.32549e-09
-4.59765e-09
2.29609e-10
2.33188e-09
1.76314e-09
-4.23348e-09
1.3864e-10
-4.46638e-09
-1.29833e-11
2.49281e-11
4.45441e-09
2.03092e-09
1.11218e-09
4.6658e-09
-7.80892e-09
-4.65178e-09
-3.61411e-09
3.90346e-09
4.36244e-09
3.76866e-09
-8.15221e-09
-3.90339e-09
8.28696e-09
3.88518e-09
-1.7328e-09
-5.34125e-09
-3.70585e-09
-5.66391e-09
6.77466e-09
2.5951e-09
-5.54946e-09
2.85993e-09
2.85417e-09
-1.64592e-10
5.57662e-09
-1.96405e-09
1.58224e-10
9.7081e-10
-4.21642e-09
6.33995e-09
-3.09437e-09
1.91026e-09
-4.35157e-11
4.49791e-09
-6.36462e-09
-5.68065e-09
3.63334e-09
2.17549e-09
-1.28164e-10
2.27613e-09
-6.24713e-09
4.01591e-09
-4.49384e-11
-1.61618e-09
1.02611e-09
-3.44936e-09
4.03946e-09
1.65325e-09
3.77811e-09
-7.95337e-09
2.52198e-09
-1.78729e-09
-2.37347e-09
3.94165e-09
2.19126e-10
3.20901e-09
-1.19799e-09
-2.05579e-09
4.47735e-11
2.56551e-09
7.44322e-10
-3.24855e-09
-6.13282e-11
-3.62509e-09
-2.19954e-09
5.68331e-09
1.41338e-10
1.68004e-09
6.28501e-09
-3.68252e-09
1.30919e-09
3.13088e-09
-4.30693e-09
-1.33137e-10
-1.94543e-09
-5.69118e-09
2.68769e-09
4.94891e-09
-2.78089e-09
4.10331e-09
-1.37965e-09
5.72242e-11
-4.96394e-09
3.27833e-09
1.70482e-09
-1.92345e-11
-9.70611e-09
4.76375e-09
4.8456e-09
9.67279e-11
1.14526e-09
-2.33175e-10
1.6361e-09
-2.54821e-09
-1.69211e-09
2.53962e-09
1.11742e-10
3.01235e-09
6.3708e-09
-5.02376e-09
-4.3594e-09
-1.37432e-09
3.89377e-09
-2.6891e-09
1.69646e-10
-9.02281e-10
-3.7792e-09
1.65715e-09
3.02435e-09
-4.66428e-09
7.87752e-09
-3.40626e-09
1.93039e-10
5.82891e-09
-6.22275e-09
1.85207e-09
-1.43884e-09
-7.67143e-11
2.53106e-09
-1.36642e-09
3.77578e-09
-5.97032e-09
2.37891e-09
-1.84374e-10
-3.08955e-09
3.03972e-09
5.94022e-09
-5.89039e-09
1.43373e-10
2.65964e-09
-5.35611e-11
8.23847e-10
3.29678e-09
-1.73546e-10
-5.43937e-09
2.32695e-10
-2.43895e-09
2.00969e-09
5.62127e-10
-1.32836e-10
1.77066e-09
-9.71109e-11
7.7734e-10
6.74236e-09
-3.37515e-09
-4.14454e-09
-4.81643e-09
4.84946e-09
-2.79921e-09
2.76619e-09
-4.69539e-09
5.302e-09
2.87577e-09
-3.4824e-09
1.7499e-09
1.55894e-09
-3.13731e-09
-1.71492e-10
-2.95914e-09
-6.30183e-10
3.56043e-09
2.88789e-11
-9.80863e-09
3.55512e-09
3.04896e-09
3.20456e-09
2.19526e-09
-3.15754e-09
1.3716e-09
-4.09282e-10
-3.4803e-09
4.29305e-11
-2.99418e-09
6.43154e-09
4.99676e-09
-3.76762e-09
-6.59467e-09
5.36553e-09
3.10975e-09
-9.18689e-10
1.32238e-09
1.1696e-09
-4.15798e-09
-4.99809e-11
-6.01387e-09
3.69835e-09
2.97945e-10
-2.19088e-09
2.89279e-09
-8.70125e-10
1.68186e-10
3.02608e-09
-6.11308e-10
-2.19448e-10
4.40388e-09
-4.81058e-09
-5.24594e-09
5.65265e-09
-4.17102e-09
1.58211e-09
9.32406e-09
-6.73518e-09
1.66109e-09
4.10075e-09
-4.65448e-09
-1.10738e-09
-4.87686e-09
3.22454e-09
5.04976e-09
-3.39746e-09
2.03497e-09
1.12673e-09
1.68213e-11
8.76415e-10
4.05057e-09
-4.19148e-09
-7.35502e-10
2.68905e-10
4.72698e-09
6.75709e-11
-2.9e-09
4.20737e-09
-1.49475e-09
1.87402e-10
-7.71402e-09
8.04674e-10
4.08998e-09
2.81934e-09
-3.73183e-09
-9.35265e-10
-3.04693e-09
3.44974e-09
-5.50459e-09
2.1775e-09
-1.2264e-10
-2.89258e-09
-1.77758e-09
4.63352e-09
3.66341e-11
3.88626e-09
-4.17292e-09
-2.31982e-09
2.60645e-09
4.00073e-09
-2.12405e-09
1.33191e-10
3.68621e-09
-5.2464e-09
-1.39111e-09
2.9513e-09
7.01744e-09
-2.24775e-09
-4.0923e-09
-6.77443e-10
1.89045e-09
-2.92847e-09
-4.03312e-09
6.51984e-09
-2.26236e-09
-5.71232e-10
4.68926e-10
6.60697e-09
-4.69403e-09
-2.38187e-09
1.60272e-09
-3.36305e-09
1.8249e-09
-6.46032e-11
-2.91516e-09
4.86533e-09
2.15096e-09
-4.10112e-09
-4.66646e-09
2.71956e-09
2.00737e-09
-6.04788e-11
-2.09617e-09
4.3936e-09
-5.72202e-09
3.42459e-09
-5.87499e-09
-8.482e-09
4.14647e-09
1.02105e-08
3.0696e-10
2.6811e-09
-2.62032e-09
-3.67773e-10
-6.85552e-10
5.20274e-10
-5.24868e-09
5.41396e-09
5.17856e-09
-5.14095e-09
-7.23159e-10
-1.82273e-09
5.25552e-09
-3.41784e-09
-1.49359e-11
-6.40405e-09
3.08895e-09
3.37862e-09
-6.3534e-11
1.68432e-09
-1.58253e-09
5.27513e-09
-3.26747e-09
-3.59535e-09
1.45362e-09
5.4092e-09
-1.6443e-09
-1.30122e-09
2.81789e-09
1.27652e-10
5.75132e-09
2.42814e-09
-7.49094e-09
-6.88511e-10
-3.78418e-09
1.96982e-09
1.84134e-09
-2.70426e-11
-1.24177e-10
-1.26247e-09
1.46246e-09
-7.58419e-11
-2.10499e-09
-3.58742e-10
2.33953e-09
-1.33448e-09
6.89049e-09
-4.72743e-09
-1.32103e-09
6.62066e-09
-5.23391e-09
-6.57517e-11
-2.20088e-09
1.39301e-09
-4.54732e-09
-4.76533e-10
1.47284e-09
-2.83233e-09
1.83602e-09
1.14407e-09
2.29638e-09
-3.45563e-09
1.51459e-11
-2.85997e-10
-2.91241e-09
6.83592e-09
-3.63747e-09
-5.61504e-09
2.84553e-09
3.76319e-09
-9.93664e-10
-3.11833e-09
-1.91508e-09
2.66428e-09
2.36907e-09
2.74637e-09
-4.63348e-09
1.96899e-09
-8.18649e-11
2.65077e-09
-1.33172e-09
-1.19467e-09
-1.24236e-10
1.30899e-09
8.73662e-10
-2.04449e-09
-1.38159e-10
5.54714e-10
1.75053e-09
-3.64219e-09
1.337e-09
2.34534e-09
-6.79381e-10
-1.75613e-09
9.01803e-11
2.5171e-09
-6.14686e-09
-9.04747e-10
4.5345e-09
1.88112e-09
-5.38708e-09
3.58659e-09
-8.06225e-11
2.32509e-09
-2.75104e-09
-5.69935e-09
6.1253e-09
6.5804e-10
4.84447e-09
-2.43759e-09
-3.06493e-09
-3.75567e-09
4.6561e-09
-9.6539e-10
6.49057e-11
-2.34556e-09
-3.7137e-09
6.03183e-09
2.74331e-11
6.14364e-09
-1.95322e-11
-9.903e-11
6.99753e-10
-5.39211e-09
2.51813e-09
2.17429e-09
-2.079e-09
-2.89633e-09
4.79318e-09
1.82156e-10
4.69459e-09
-2.11281e-09
-4.40896e-09
1.82716e-09
-1.549e-09
6.42688e-09
2.78634e-09
-7.66423e-09
-9.69537e-10
1.60889e-09
-6.51488e-10
1.21322e-11
2.02152e-09
-2.70002e-10
-1.60957e-09
-1.4193e-10
-3.7728e-09
3.03361e-09
7.41595e-10
-2.39101e-12
-6.47205e-09
7.02946e-10
3.69558e-09
2.07353e-09
-2.82098e-09
6.74333e-10
5.52993e-09
-3.02468e-09
-5.6292e-09
3.12397e-09
2.82643e-09
-3.73004e-09
-6.2534e-10
9.43318e-09
-2.34884e-09
-6.19453e-09
-8.8981e-10
1.19487e-09
-2.10866e-09
1.00068e-10
-4.78368e-09
4.09865e-09
2.5953e-09
-2.80005e-09
-8.39682e-09
1.38826e-09
3.41689e-09
-5.01061e-09
-1.87583e-09
3.46957e-09
-5.07449e-10
3.35838e-09
3.45931e-10
-3.19716e-09
-7.88658e-10
-1.0074e-08
6.69166e-09
-2.02984e-09
3.73256e-10
1.91277e-09
-2.56203e-10
1.30113e-09
8.83634e-10
2.88465e-09
4.97532e-09
-6.82477e-09
-1.49131e-09
3.34074e-09
-5.99348e-09
4.67767e-09
-2.41379e-09
-3.6207e-10
2.7176e-09
5.82464e-11
-5.18049e-09
-6.24592e-09
8.58129e-09
-1.09415e-10
-2.67546e-09
2.66409e-09
1.20795e-10
7.44298e-09
2.42037e-09
-5.06587e-09
-4.79747e-09
9.53748e-10
-1.06996e-09
9.92606e-10
-1.25518e-09
1.87266e-09
-6.86701e-10
6.92159e-11
5.78339e-09
-1.2382e-10
-8.79773e-09
3.13819e-09
3.62338e-09
-4.68453e-09
2.36935e-09
-1.30812e-09
-1.51886e-09
-4.17486e-09
3.34509e-09
2.34864e-09
2.36001e-09
-2.97042e-09
7.54212e-10
-1.43809e-10
5.22217e-09
-7.73826e-10
3.43371e-11
1.36712e-09
6.88619e-10
-1.94739e-09
-1.08342e-10
-7.95544e-10
5.76685e-11
1.09365e-09
4.14375e-09
-4.81276e-10
2.40889e-09
3.61498e-09
-1.62762e-09
-4.39624e-09
-1.14075e-09
3.50591e-09
4.37237e-11
2.17831e-09
-3.25213e-09
-6.69221e-11
-4.24051e-09
1.39587e-09
5.18999e-09
-9.18277e-10
-1.88313e-09
-9.01896e-12
-5.57808e-09
4.40988e-09
3.57609e-09
-2.40789e-09
-1.54913e-09
2.44272e-09
-8.80813e-10
-1.27619e-11
-3.07569e-10
-5.7111e-09
5.98647e-09
1.74251e-09
-9.95424e-10
-7.93605e-10
4.65208e-11
-5.29113e-09
5.31845e-09
-1.66923e-09
1.64189e-09
-4.5155e-09
3.83208e-10
-1.64923e-09
-2.53313e-09
2.38405e-09
-4.70955e-09
4.85863e-09
2.7745e-09
-1.01921e-08
2.2881e-09
5.12948e-09
-5.25901e-09
5.08434e-09
5.21029e-09
-3.92722e-09
-1.32243e-09
3.93647e-11
1.50804e-10
8.31263e-09
-5.87985e-09
-2.5836e-09
2.072e-09
-8.0023e-10
-1.4117e-09
1.39921e-10
-5.35534e-09
2.8221e-09
2.46558e-09
6.76519e-11
-4.49606e-09
7.60598e-10
4.74255e-09
-1.00709e-09
-5.85727e-09
2.39851e-09
3.53279e-09
-7.40228e-11
-4.43417e-09
-1.118e-09
8.20437e-09
-2.65216e-09
3.43732e-09
-1.46632e-09
-2.75839e-09
-2.80688e-09
1.6971e-09
1.0491e-09
6.07382e-11
4.52163e-09
1.7222e-09
-3.70972e-09
-2.53409e-09
5.23324e-09
7.34398e-10
1.79071e-09
-1.83227e-09
2.51311e-09
-7.78959e-10
9.80936e-11
-7.70413e-09
5.23521e-09
1.07341e-09
1.39549e-09
-4.99041e-09
1.83175e-09
7.41136e-09
-4.25269e-09
-6.72765e-09
-1.32129e-09
4.14787e-09
-2.9619e-09
-5.33764e-09
4.09219e-09
4.20735e-09
-3.66067e-09
-2.52788e-09
6.97441e-09
-4.01337e-09
-2.68229e-10
4.32984e-09
-3.44318e-09
-1.85762e-09
4.51859e-09
7.82217e-10
4.21807e-10
5.98758e-09
1.69401e-10
2.32183e-09
-1.58813e-09
-7.52468e-10
1.87745e-11
-1.98594e-09
-1.34567e-09
3.19818e-09
1.3343e-10
-4.58215e-09
3.29157e-09
3.24202e-09
2.01224e-09
-5.75509e-09
9.34247e-10
-8.17093e-10
-1.56317e-09
2.29779e-09
8.24077e-11
1.28218e-09
-3.5493e-09
-5.33392e-11
-3.40804e-09
-5.76091e-10
3.26791e-09
7.16198e-10
8.56007e-09
-8.05244e-09
-2.4294e-09
-4.22172e-09
6.27386e-09
1.8953e-09
-3.94744e-09
-4.95582e-09
-3.81983e-09
5.74973e-09
3.02592e-09
-3.75092e-09
9.3346e-09
-5.12724e-09
-4.56409e-10
-5.95772e-09
3.45136e-09
5.74988e-09
-3.24354e-09
-2.43118e-09
-4.21096e-09
5.07188e-11
4.59827e-09
-7.91754e-09
3.97579e-09
-6.56607e-10
2.63878e-09
-6.35753e-09
3.81453e-09
-9.57778e-11
3.31818e-09
-1.42241e-09
-5.61074e-09
5.19443e-09
-2.48958e-09
4.98946e-10
-9.5598e-10
-1.61497e-09
2.51194e-09
5.9004e-11
-4.79503e-09
-1.18381e-09
2.65302e-09
1.03879e-09
-2.76028e-09
1.90232e-09
-1.8085e-10
-5.44855e-09
9.85846e-10
4.57062e-09
-1.07899e-10
1.83614e-09
1.15718e-09
-3.09453e-09
1.01254e-10
-3.88945e-09
4.93782e-09
2.15072e-09
-3.19905e-09
9.57436e-10
2.63875e-09
-3.55684e-09
-3.93246e-11
2.95897e-09
-6.92377e-09
4.00202e-09
-3.72276e-11
7.52456e-10
-2.23409e-09
1.53847e-09
-5.68566e-11
-2.52291e-09
1.42957e-09
1.29998e-09
-2.06634e-10
6.5646e-09
-2.3065e-09
-4.90943e-10
-3.76718e-09
-4.73538e-09
-1.16714e-09
-2.03809e-09
-5.92914e-09
9.13434e-09
7.69088e-10
1.27186e-09
-1.88968e-09
-1.51224e-10
-3.7327e-09
-7.60614e-10
1.17477e-09
3.31855e-09
-6.38392e-10
1.86301e-09
-1.31584e-09
9.12325e-11
-4.27589e-09
5.39699e-09
-2.03839e-09
-6.10053e-10
4.22922e-11
-4.86096e-09
3.13353e-09
-3.72575e-10
3.22915e-09
-4.95761e-09
-1.23738e-10
5.97816e-09
-5.24202e-10
3.10611e-09
6.61542e-09
-4.45939e-09
1.20101e-10
1.96355e-09
-1.3602e-09
8.52992e-11
-7.23532e-09
1.76354e-09
3.52633e-09
-1.21753e-09
-6.45859e-09
3.00968e-09
-3.23555e-09
4.98704e-09
4.04939e-10
-2.15643e-09
-2.31922e-09
-1.49669e-09
3.79058e-09
2.53304e-11
-7.20394e-09
5.606e-09
5.01513e-09
-3.41719e-09
4.17089e-09
1.01415e-10
-4.27572e-09
3.41346e-12
-2.18179e-09
8.62694e-10
1.41877e-09
-9.96221e-11
2.37793e-09
-4.4623e-09
-3.26435e-09
5.3487e-09
4.55106e-09
-2.70131e-09
-1.9197e-09
6.99882e-11
2.23121e-09
3.5158e-09
-3.74636e-09
-2.00074e-09
3.19149e-09
2.8644e-09
-1.97437e-09
-4.08154e-09
-9.0602e-10
-1.41319e-09
2.28779e-09
3.14062e-11
-2.481e-09
1.69592e-09
-1.20925e-10
-6.34949e-09
3.57666e-09
2.85798e-09
-8.51255e-11
-2.01432e-09
1.27374e-09
-1.61687e-10
-3.34686e-09
2.00039e-09
-2.785e-11
9.78314e-10
-3.22729e-09
9.51796e-09
-7.26899e-09
5.67683e-09
-4.17989e-09
-1.55796e-09
6.10234e-11
1.19692e-09
2.91441e-09
-4.03877e-09
-7.25705e-11
1.72126e-09
4.83511e-09
-4.64544e-09
-1.91092e-09
2.1843e-09
3.08839e-09
-5.72125e-09
4.48526e-10
-5.6569e-09
-3.21495e-09
2.6029e-09
3.38955e-09
-1.74013e-09
-1.6701e-09
2.06716e-11
9.85436e-10
1.40637e-09
-2.23141e-09
-1.60404e-10
-2.96183e-09
3.44189e-09
-2.78609e-09
2.30604e-09
-1.05466e-09
-2.77683e-09
3.68402e-09
1.47487e-10
-8.99972e-10
-1.46213e-09
2.23191e-09
1.30136e-10
2.15839e-09
-5.95573e-10
9.82605e-11
-2.2499e-09
5.78931e-09
-3.72031e-09
1.80908e-10
1.67788e-09
-1.4741e-09
1.03116e-10
2.54145e-09
-2.92075e-09
-3.03719e-09
3.41651e-09
-8.19329e-10
7.77851e-09
4.61872e-09
-1.15779e-08
-7.05156e-09
4.05765e-09
6.58427e-09
-3.59041e-09
5.58564e-09
6.41529e-11
-3.6605e-09
4.0043e-09
-9.2768e-10
5.83887e-10
-1.09372e-08
2.74487e-09
1.53611e-10
8.0387e-09
4.82095e-09
8.1896e-09
-8.57759e-10
-1.21528e-08
3.79359e-09
7.03758e-09
7.62695e-10
-1.15939e-08
-4.48379e-09
9.47547e-09
-9.321e-09
4.32931e-09
5.81398e-09
2.20063e-09
-9.66507e-09
1.65048e-09
7.84232e-09
-6.9536e-09
-4.65095e-09
3.76228e-09
-7.33719e-09
8.2138e-09
3.92158e-09
-4.79821e-09
4.06586e-09
-2.50133e-09
-6.40336e-09
8.59394e-10
-4.78739e-09
1.21491e-08
-8.22115e-09
1.14025e-08
-7.9203e-10
-3.66088e-09
-6.94954e-09
-3.07155e-09
8.28028e-09
-5.51107e-09
3.02371e-10
1.13346e-09
-1.82965e-09
4.38826e-09
-3.69208e-09
-3.63624e-09
-7.86343e-09
7.01627e-09
4.48341e-09
-7.62337e-09
2.57158e-09
4.88004e-10
4.56379e-09
-1.18675e-08
5.92051e-10
3.79308e-09
7.48235e-09
1.44497e-09
-2.49718e-09
-1.54141e-09
1.16878e-08
-1.0578e-08
-4.73183e-09
3.622e-09
-8.5589e-09
-6.67095e-10
6.08524e-09
9.15595e-11
-6.69395e-09
-5.61925e-10
-4.21626e-09
1.14721e-08
5.58e-09
1.86783e-09
-7.91997e-09
4.72104e-10
-9.47785e-10
3.50234e-09
1.21879e-09
-3.77333e-09
-6.02505e-09
4.94568e-09
-3.19514e-10
-5.69435e-09
1.00474e-08
-1.16559e-09
-3.18747e-09
-3.71144e-09
6.0251e-09
3.98531e-09
-6.29896e-09
3.74518e-09
2.11653e-09
-9.05168e-09
8.09008e-10
1.13784e-08
-4.46072e-09
-7.72671e-09
1.11467e-08
-3.43327e-09
1.72644e-09
-9.43988e-09
5.83201e-09
-1.3242e-09
9.48142e-10
-5.45593e-09
-2.0264e-10
-5.79261e-09
-1.87823e-10
6.18304e-09
4.40923e-09
-1.90524e-10
-1.32545e-08
9.03576e-09
-7.91715e-10
9.68366e-09
-4.53666e-09
-4.35526e-09
-2.47384e-10
4.91379e-09
-1.68696e-09
-2.97944e-09
-1.86389e-09
-3.10341e-09
4.90081e-09
6.6472e-11
4.60438e-09
-1.16062e-08
7.8124e-09
-8.10533e-10
4.81869e-09
2.88606e-09
-8.33041e-09
6.25651e-10
4.90666e-09
3.53815e-09
-5.02698e-09
-3.41783e-09
3.67115e-09
6.81137e-09
8.0686e-10
-1.12894e-08
6.54976e-09
-1.08335e-08
3.52842e-09
7.5535e-10
-3.20816e-09
-3.70763e-09