/*--------------------------------*- C++ -*----------------------------------*\
| =========                 |                                                 |
| \\      /  F ield         | OpenFOAM: The Open Source CFD Toolbox           |
|  \\    /   O peration     | Version:  v1612+                                |
|   \\  /    A nd           | Web:      www.OpenFOAM.com                      |
|    \\/     M anipulation  |                                                 |
\*---------------------------------------------------------------------------*/
FoamFile
{
    version     2.0;
    format      ascii;
    class       volVectorField;
    location    "50";
    object      U;
}
// * * * * * * * * * * * * * * * * * * * * * * * * * * * * * * * * * * * * * //

dimensions      [0 1 -1 0 0 0 0];

internalField   nonuniform List<vector> 
21535
(
(0.135267 0.525109 -0.467935)
(0.151659 0.537658 -0.466552)
(0.144487 0.535462 -0.468202)
(0.121722 0.463567 -0.399531)
(0.158833 0.590643 -0.517076)
(0.144656 0.541749 -0.472127)
(0.135243 0.499975 -0.446076)
(0.154845 0.601533 -0.524991)
(0.136341 0.519043 -0.453516)
(0.149552 0.579984 -0.506818)
(0.122858 0.46612 -0.396853)
(0.12942 0.503866 -0.442737)
(0.140589 0.524967 -0.464145)
(0.140729 0.537353 -0.474965)
(0.168116 0.645338 -0.566268)
(0.150331 0.551077 -0.485399)
(0.164765 0.641332 -0.557245)
(0.184939 0.67199 -0.589833)
(0.180338 0.677533 -0.584869)
(0.137042 0.526113 -0.469248)
(0.143889 0.556255 -0.494081)
(0.146926 0.561602 -0.488173)
(0.149092 0.576857 -0.497429)
(0.153163 0.57903 -0.503545)
(0.164072 0.638047 -0.561779)
(0.165697 0.643955 -0.565439)
(0.15525 0.585885 -0.513655)
(0.140201 0.544177 -0.465127)
(0.133733 0.476507 -0.423479)
(0.149029 0.576174 -0.509485)
(0.147597 0.563109 -0.492604)
(0.149742 0.567679 -0.484227)
(0.150386 0.543451 -0.470271)
(0.173196 0.639445 -0.557273)
(0.14728 0.565786 -0.49005)
(0.161504 0.599995 -0.521132)
(0.141022 0.508155 -0.441407)
(0.131871 0.515714 -0.454629)
(0.148631 0.568227 -0.505992)
(0.15182 0.576843 -0.509599)
(0.153529 0.554221 -0.485899)
(0.130844 0.498053 -0.441913)
(0.140856 0.511134 -0.453148)
(0.153699 0.565795 -0.500068)
(0.143961 0.545954 -0.480375)
(0.140275 0.533938 -0.470442)
(0.151976 0.562542 -0.484218)
(0.117722 0.472666 -0.400376)
(0.138753 0.534384 -0.461909)
(0.168631 0.645277 -0.558492)
(0.141997 0.556243 -0.495778)
(0.135727 0.513245 -0.444714)
(0.125931 0.46958 -0.412071)
(0.146949 0.555413 -0.490996)
(0.14765 0.559211 -0.479618)
(0.136397 0.552674 -0.475393)
(0.164079 0.611833 -0.535104)
(0.124373 0.47038 -0.419174)
(0.135413 0.513475 -0.455613)
(0.135233 0.521552 -0.452853)
(0.170417 0.631032 -0.548887)
(0.144805 0.5175 -0.447249)
(0.141255 0.538052 -0.464239)
(0.15183 0.565863 -0.490983)
(0.138543 0.530977 -0.45586)
(0.144844 0.517355 -0.449014)
(0.158531 0.586112 -0.516879)
(0.155395 0.569312 -0.498036)
(0.141723 0.510632 -0.446725)
(0.121072 0.44886 -0.39514)
(0.116389 0.459042 -0.393434)
(0.152941 0.548702 -0.478523)
(0.133203 0.484221 -0.421953)
(0.141221 0.539484 -0.477985)
(0.15897 0.588873 -0.518512)
(0.145118 0.531233 -0.461683)
(0.137564 0.524926 -0.466515)
(0.132747 0.523088 -0.459844)
(0.121442 0.461587 -0.398846)
(0.139652 0.539804 -0.465666)
(0.157005 0.601255 -0.520522)
(0.150114 0.546149 -0.473679)
(0.148362 0.555924 -0.492559)
(0.144781 0.535152 -0.465794)
(0.147473 0.534694 -0.478096)
(0.136305 0.537733 -0.465502)
(0.152975 0.574073 -0.509327)
(0.142004 0.536996 -0.469621)
(0.143138 0.564576 -0.48401)
(0.143778 0.547417 -0.472547)
(0.133848 0.500915 -0.43649)
(0.144832 0.549438 -0.477997)
(0.138971 0.536427 -0.46875)
(0.136762 0.529204 -0.470407)
(0.131028 0.502201 -0.434342)
(0.160108 0.597966 -0.524314)
(0.145681 0.546462 -0.480461)
(0.122811 0.465314 -0.411821)
(0.140986 0.496605 -0.447281)
(0.144417 0.515807 -0.449139)
(0.135792 0.495951 -0.436251)
(0.136988 0.536135 -0.467634)
(0.126013 0.508975 -0.451892)
(0.145146 0.564675 -0.500296)
(0.147497 0.569089 -0.498939)
(0.12155 0.493836 -0.423313)
(0.155309 0.552402 -0.487789)
(0.132855 0.505155 -0.440655)
(0.144584 0.553848 -0.491615)
(0.151368 0.574325 -0.499633)
(0.146067 0.536943 -0.466293)
(0.150307 0.539423 -0.475259)
(0.129252 0.49622 -0.446691)
(0.135879 0.514921 -0.446874)
(0.146334 0.564711 -0.481325)
(0.141165 0.539968 -0.454899)
(0.144246 0.543498 -0.478205)
(0.150025 0.569885 -0.494907)
(0.133516 0.497563 -0.434774)
(0.119313 0.442733 -0.385706)
(0.141866 0.516647 -0.452683)
(0.145621 0.547614 -0.478626)
(0.144106 0.548696 -0.477108)
(0.148679 0.566453 -0.486641)
(0.155739 0.609758 -0.521266)
(0.152527 0.557107 -0.488759)
(0.130561 0.475657 -0.419697)
(0.147404 0.541675 -0.471679)
(0.149222 0.541715 -0.481741)
(0.146495 0.545898 -0.474022)
(0.161234 0.593029 -0.518088)
(0.159119 0.606644 -0.527956)
(0.152476 0.585408 -0.515062)
(0.15143 0.583717 -0.499796)
(0.137509 0.518257 -0.471601)
(0.127385 0.499328 -0.439532)
(0.13332 0.507554 -0.458596)
(0.141452 0.564632 -0.492945)
(0.147123 0.54235 -0.486218)
(0.132222 0.49286 -0.430091)
(0.136764 0.517662 -0.45651)
(0.13682 0.482768 -0.424437)
(0.125924 0.452628 -0.387709)
(0.156746 0.567695 -0.50612)
(0.152686 0.56349 -0.49608)
(0.144599 0.534024 -0.464678)
(0.154979 0.588799 -0.513907)
(0.13528 0.531172 -0.455154)
(0.147267 0.562283 -0.490542)
(0.137201 0.529957 -0.466391)
(0.143429 0.555662 -0.483785)
(0.144892 0.544893 -0.480874)
(0.152266 0.558773 -0.48734)
(0.150541 0.575616 -0.510811)
(0.147445 0.585837 -0.512179)
(0.13244 0.508073 -0.439588)
(0.146202 0.542181 -0.472282)
(0.157363 0.579864 -0.500911)
(0.148935 0.546417 -0.480914)
(0.148061 0.534814 -0.474636)
(0.129886 0.528659 -0.451041)
(0.139779 0.536501 -0.46459)
(0.143587 0.549619 -0.485759)
(0.150712 0.565829 -0.498438)
(0.12471 0.477327 -0.425645)
(0.137767 0.52059 -0.462881)
(0.134101 0.5176 -0.453288)
(0.157397 0.580717 -0.501404)
(0.128419 0.514616 -0.448428)
(0.131546 0.508116 -0.44926)
(0.141877 0.542189 -0.485795)
(0.141545 0.554393 -0.48334)
(0.142872 0.531778 -0.462583)
(0.13862 0.517271 -0.452274)
(0.154611 0.580121 -0.502079)
(0.148387 0.545453 -0.477534)
(0.14209 0.517749 -0.448717)
(0.129034 0.500417 -0.436554)
(0.159904 0.570428 -0.502756)
(0.125557 0.473207 -0.415859)
(0.158381 0.59614 -0.514743)
(0.123909 0.502795 -0.434248)
(0.136158 0.534338 -0.460921)
(0.127878 0.474718 -0.429906)
(0.134902 0.503693 -0.443089)
(0.141098 0.53254 -0.468241)
(0.148343 0.567103 -0.496475)
(0.136318 0.522063 -0.447961)
(0.133872 0.536525 -0.448439)
(0.149085 0.550833 -0.482897)
(0.148351 0.565942 -0.493658)
(0.139211 0.533986 -0.473442)
(0.122609 0.48094 -0.418385)
(0.160504 0.585692 -0.506823)
(0.133194 0.49936 -0.424005)
(0.128605 0.466613 -0.405511)
(0.148928 0.548243 -0.475533)
(0.153281 0.577272 -0.506114)
(0.134179 0.530677 -0.454902)
(0.129035 0.521798 -0.455102)
(0.144598 0.569405 -0.494409)
(0.141266 0.518338 -0.450792)
(0.140379 0.545647 -0.4865)
(0.153843 0.564651 -0.492922)
(0.144436 0.543503 -0.478012)
(0.139755 0.532917 -0.465524)
(0.163495 0.612464 -0.533865)
(0.135414 0.529126 -0.46681)
(0.121746 0.45667 -0.400821)
(0.139689 0.54014 -0.471944)
(0.118577 0.474344 -0.406431)
(0.142346 0.543963 -0.476643)
(0.146259 0.555401 -0.490833)
(0.150122 0.556486 -0.492748)
(0.149766 0.574456 -0.510354)
(0.132834 0.523767 -0.461333)
(0.126863 0.468229 -0.414284)
(0.148531 0.528289 -0.461106)
(0.155583 0.543063 -0.474759)
(0.142916 0.546113 -0.48298)
(0.154506 0.571068 -0.499514)
(0.150703 0.536037 -0.472714)
(0.148235 0.567059 -0.497364)
(0.143673 0.55087 -0.490578)
(0.149655 0.565834 -0.495595)
(0.126015 0.480297 -0.417935)
(0.147062 0.547493 -0.491951)
(0.133397 0.532623 -0.469095)
(0.158099 0.555229 -0.48836)
(0.143611 0.54474 -0.473975)
(0.142578 0.532749 -0.459072)
(0.146346 0.562409 -0.491895)
(0.150245 0.557423 -0.486532)
(0.129852 0.50727 -0.438887)
(0.143885 0.542866 -0.462506)
(0.130754 0.499587 -0.440843)
(0.132519 0.535162 -0.456798)
(0.132913 0.505426 -0.443977)
(0.124695 0.46911 -0.422367)
(0.136056 0.538085 -0.473986)
(0.125275 0.480992 -0.420937)
(0.140048 0.52634 -0.454895)
(0.15227 0.564031 -0.497466)
(0.146535 0.577642 -0.502012)
(0.156199 0.58613 -0.514177)
(0.135089 0.527627 -0.460897)
(0.152197 0.572942 -0.503671)
(0.132652 0.48994 -0.43456)
(0.141656 0.509549 -0.453136)
(0.143627 0.507051 -0.442178)
(0.147621 0.557167 -0.485819)
(0.14081 0.530338 -0.465035)
(0.121939 0.461518 -0.400131)
(0.138913 0.527985 -0.455786)
(0.150238 0.575972 -0.510843)
(0.146374 0.521846 -0.463426)
(0.151613 0.585785 -0.512609)
(0.145815 0.57058 -0.501737)
(0.145918 0.543139 -0.485534)
(0.140018 0.521275 -0.462188)
(0.136433 0.525148 -0.469847)
(0.135813 0.52717 -0.458432)
(0.123587 0.460603 -0.401301)
(0.138082 0.524666 -0.465301)
(0.146119 0.536243 -0.4692)
(0.149672 0.524429 -0.460936)
(0.127051 0.464758 -0.396701)
(0.131538 0.50878 -0.433365)
(0.136438 0.51071 -0.439781)
(0.150956 0.5538 -0.478895)
(0.158264 0.606902 -0.518163)
(0.130364 0.501003 -0.427743)
(0.151862 0.545367 -0.467706)
(0.146509 0.544009 -0.469583)
(0.140103 0.520193 -0.453731)
(0.144747 0.530645 -0.455616)
(0.164654 0.60347 -0.520598)
(0.139118 0.511824 -0.460865)
(0.15304 0.564782 -0.49648)
(0.144179 0.533959 -0.470569)
(0.1352 0.522854 -0.461769)
(0.136984 0.534006 -0.456013)
(0.15324 0.548448 -0.482926)
(0.152448 0.58284 -0.507302)
(0.135481 0.535281 -0.465014)
(0.146398 0.529947 -0.457266)
(0.126394 0.487944 -0.427382)
(0.118049 0.4628 -0.407199)
(0.11983 0.49064 -0.42146)
(0.141806 0.525108 -0.453283)
(0.136838 0.505533 -0.443326)
(0.148431 0.566066 -0.48276)
(0.151529 0.566852 -0.500559)
(0.155867 0.574904 -0.508421)
(0.139663 0.527114 -0.462315)
(0.137572 0.537093 -0.466432)
(0.131716 0.494571 -0.440621)
(0.1515 0.56295 -0.498259)
(0.147778 0.533897 -0.466759)
(0.13927 0.481526 -0.420111)
(0.136008 0.517078 -0.450624)
(0.13895 0.518164 -0.451744)
(0.146144 0.541514 -0.468828)
(0.151235 0.561436 -0.496053)
(0.145629 0.556435 -0.485748)
(0.14118 0.571051 -0.496932)
(0.108531 0.42594 -0.372561)
(0.128172 0.477333 -0.425524)
(0.137157 0.516291 -0.45768)
(0.15519 0.5473 -0.480269)
(0.146728 0.509403 -0.445938)
(0.152831 0.560261 -0.491418)
(0.143192 0.537891 -0.462544)
(0.129474 0.498017 -0.428151)
(0.133727 0.503889 -0.437877)
(0.139887 0.528585 -0.472922)
(0.152566 0.565613 -0.489197)
(0.139379 0.541841 -0.472172)
(0.135474 0.528575 -0.460359)
(0.133923 0.521548 -0.458538)
(0.137791 0.516417 -0.4592)
(0.138672 0.543976 -0.475864)
(0.148727 0.546407 -0.487682)
(0.146311 0.544464 -0.470695)
(0.148273 0.574751 -0.498067)
(0.148234 0.561533 -0.494666)
(0.132689 0.487841 -0.417748)
(0.127858 0.486686 -0.424822)
(0.128196 0.477577 -0.419366)
(0.128777 0.531042 -0.465611)
(0.148445 0.556754 -0.490995)
(0.158503 0.566301 -0.500233)
(0.128929 0.46152 -0.40662)
(0.132472 0.506248 -0.440316)
(0.125762 0.492004 -0.428711)
(0.138918 0.531765 -0.465373)
(0.140091 0.546264 -0.467813)
(0.142578 0.553116 -0.483224)
(0.142581 0.545733 -0.474035)
(0.141424 0.519523 -0.462984)
(0.145993 0.548344 -0.482772)
(0.130754 0.480216 -0.427589)
(0.128408 0.486053 -0.428568)
(0.14941 0.567524 -0.503442)
(0.146827 0.543993 -0.469726)
(0.151303 0.536251 -0.465405)
(0.137971 0.510726 -0.44588)
(0.130894 0.509618 -0.4392)
(0.134292 0.530887 -0.460913)
(0.129823 0.508722 -0.439995)
(0.121266 0.50115 -0.443134)
(0.130534 0.501489 -0.429295)
(0.128362 0.518819 -0.456742)
(0.14241 0.519358 -0.452505)
(0.130758 0.501127 -0.433012)
(0.147118 0.550401 -0.480313)
(0.12907 0.48693 -0.432555)
(0.13094 0.496582 -0.430968)
(0.151257 0.574941 -0.507613)
(0.131922 0.497219 -0.437596)
(0.130972 0.484284 -0.41891)
(0.151512 0.57356 -0.491233)
(0.127273 0.505827 -0.437085)
(0.137935 0.514075 -0.439384)
(0.136753 0.513611 -0.447811)
(0.143129 0.537931 -0.469385)
(0.127702 0.473807 -0.412164)
(0.139881 0.531297 -0.463141)
(0.136677 0.527381 -0.454104)
(0.138665 0.53121 -0.459069)
(0.129765 0.475037 -0.408428)
(0.125737 0.48551 -0.425383)
(0.150403 0.567751 -0.486846)
(0.117543 0.463872 -0.399174)
(0.133704 0.494031 -0.434368)
(0.16435 0.57798 -0.50816)
(0.151748 0.546142 -0.473858)
(0.150201 0.573092 -0.492709)
(0.13114 0.495142 -0.436499)
(0.128788 0.498903 -0.436899)
(0.155376 0.56395 -0.495324)
(0.122256 0.461185 -0.410337)
(0.14931 0.559742 -0.488191)
(0.159387 0.571398 -0.491425)
(0.140062 0.525179 -0.447626)
(0.130357 0.500597 -0.442183)
(0.169789 0.611125 -0.526882)
(0.125436 0.469052 -0.415151)
(0.11486 0.413029 -0.367687)
(0.138835 0.53478 -0.475958)
(0.148059 0.576717 -0.507023)
(0.144877 0.549151 -0.479258)
(0.135145 0.519243 -0.466445)
(0.130054 0.495144 -0.427028)
(0.13289 0.513964 -0.447371)
(0.134863 0.501542 -0.444898)
(0.121896 0.467907 -0.422985)
(0.151564 0.560894 -0.497764)
(0.147021 0.560565 -0.494358)
(0.136723 0.504799 -0.442523)
(0.138095 0.50327 -0.445269)
(0.130441 0.488274 -0.439023)
(0.158007 0.529318 -0.468796)
(0.148021 0.537735 -0.468817)
(0.141982 0.527229 -0.47192)
(0.135938 0.540203 -0.481918)
(0.150691 0.553374 -0.484301)
(0.139879 0.530357 -0.458401)
(0.124058 0.466406 -0.402169)
(0.144995 0.542741 -0.478373)
(0.150565 0.571965 -0.497319)
(0.145946 0.535293 -0.462025)
(0.149284 0.55197 -0.476584)
(0.127725 0.497714 -0.438387)
(0.137469 0.527704 -0.465635)
(0.14519 0.529499 -0.470727)
(0.131236 0.485321 -0.421719)
(0.135905 0.534266 -0.462123)
(0.142561 0.527283 -0.463781)
(0.141875 0.524807 -0.458598)
(0.132505 0.478893 -0.416629)
(0.158201 0.58603 -0.511192)
(0.131279 0.504568 -0.442711)
(0.128244 0.495292 -0.432384)
(0.135222 0.504777 -0.444514)
(0.151612 0.578721 -0.50908)
(0.129752 0.517802 -0.446822)
(0.154015 0.555587 -0.488078)
(0.128509 0.514193 -0.453834)
(0.129541 0.499024 -0.438271)
(0.140252 0.529611 -0.465135)
(0.139723 0.534288 -0.467563)
(0.133799 0.512359 -0.455445)
(0.136376 0.501977 -0.441094)
(0.139914 0.535585 -0.458817)
(0.119089 0.460895 -0.40383)
(0.131854 0.507248 -0.435788)
(0.121003 0.447805 -0.398079)
(0.14822 0.562334 -0.48441)
(0.136195 0.496272 -0.434744)
(0.136923 0.526848 -0.454547)
(0.135179 0.530921 -0.465867)
(0.134903 0.502409 -0.435951)
(0.1379 0.494113 -0.434824)
(0.146214 0.554872 -0.476072)
(0.149795 0.566549 -0.496715)
(0.147753 0.538463 -0.469149)
(0.148809 0.537328 -0.47328)
(0.15463 0.568196 -0.497657)
(0.110765 0.430843 -0.382273)
(0.104755 0.428956 -0.371876)
(0.126964 0.487286 -0.428799)
(0.150901 0.553657 -0.475607)
(0.14608 0.535883 -0.45643)
(0.134874 0.531598 -0.461791)
(0.141514 0.527041 -0.477187)
(0.152618 0.567697 -0.495563)
(0.123169 0.466181 -0.416393)
(0.142897 0.545251 -0.480332)
(0.148636 0.539285 -0.473244)
(0.143939 0.546523 -0.470727)
(0.141778 0.509425 -0.449036)
(0.168266 0.631782 -0.547221)
(0.11774 0.45535 -0.395036)
(0.138527 0.551603 -0.486383)
(0.14081 0.526959 -0.459813)
(0.139729 0.522955 -0.464932)
(0.122856 0.463408 -0.403397)
(0.154221 0.561038 -0.491417)
(0.127645 0.496918 -0.436848)
(0.145053 0.560789 -0.49658)
(0.144282 0.51387 -0.441037)
(0.120693 0.454021 -0.399969)
(0.156084 0.575487 -0.505934)
(0.151315 0.536149 -0.478717)
(0.134467 0.549412 -0.477356)
(0.127265 0.473017 -0.407498)
(0.137216 0.495405 -0.433434)
(0.134338 0.48686 -0.42461)
(0.132153 0.48235 -0.419377)
(0.147879 0.541009 -0.469319)
(0.142913 0.519941 -0.460125)
(0.130193 0.482979 -0.429205)
(0.13485 0.510789 -0.441579)
(0.139583 0.512094 -0.449587)
(0.123525 0.468367 -0.405473)
(0.139054 0.547859 -0.479775)
(0.136404 0.500528 -0.441794)
(0.146425 0.531054 -0.475993)
(0.117269 0.435391 -0.387483)
(0.136283 0.540038 -0.465756)
(0.148861 0.53668 -0.471255)
(0.147062 0.547711 -0.479519)
(0.15415 0.561592 -0.489475)
(0.149329 0.551447 -0.472439)
(0.137374 0.508406 -0.441336)
(0.156144 0.584329 -0.495441)
(0.131125 0.497416 -0.424304)
(0.146916 0.532968 -0.473289)
(0.143066 0.51467 -0.456288)
(0.134538 0.503889 -0.442628)
(0.148503 0.563409 -0.491065)
(0.141821 0.551188 -0.478121)
(0.12421 0.468288 -0.414026)
(0.137427 0.50138 -0.43984)
(0.156702 0.587054 -0.509641)
(0.12943 0.494542 -0.441745)
(0.149529 0.564501 -0.496107)
(0.171346 0.65862 -0.572488)
(0.156782 0.597078 -0.518901)
(0.148261 0.545747 -0.489648)
(0.148311 0.569746 -0.491317)
(0.135382 0.496745 -0.446985)
(0.14019 0.518975 -0.461916)
(0.141892 0.535822 -0.472593)
(0.124033 0.494369 -0.444624)
(0.134574 0.505121 -0.431691)
(0.132818 0.538755 -0.463942)
(0.142295 0.534388 -0.463707)
(0.12924 0.480149 -0.416101)
(0.128396 0.477858 -0.414577)
(0.13109 0.508609 -0.441017)
(0.14423 0.554271 -0.491325)
(0.147022 0.541708 -0.473535)
(0.148029 0.542405 -0.472453)
(0.146172 0.540523 -0.474571)
(0.163208 0.590532 -0.520728)
(0.144166 0.507799 -0.445919)
(0.144721 0.562241 -0.491806)
(0.13848 0.509924 -0.449275)
(0.150861 0.540457 -0.481533)
(0.125057 0.470938 -0.422497)
(0.128232 0.467621 -0.398022)
(0.146343 0.544727 -0.468591)
(0.135513 0.504231 -0.438407)
(0.134237 0.507554 -0.446908)
(0.129856 0.491307 -0.430212)
(0.137479 0.544282 -0.477008)
(0.122045 0.47662 -0.414299)
(0.129716 0.496344 -0.439599)
(0.127354 0.456318 -0.400607)
(0.123255 0.465407 -0.408807)
(0.135814 0.506977 -0.447791)
(0.141496 0.550744 -0.480073)
(0.146293 0.569544 -0.492206)
(0.121302 0.457763 -0.405084)
(0.134451 0.50562 -0.433307)
(0.127917 0.478207 -0.411339)
(0.137463 0.522351 -0.447808)
(0.118551 0.481164 -0.42393)
(0.142713 0.561106 -0.488764)
(0.135752 0.513996 -0.456133)
(0.1556 0.554777 -0.493011)
(0.138799 0.526259 -0.455515)
(0.127508 0.488446 -0.4284)
(0.150051 0.544562 -0.478021)
(0.144021 0.537643 -0.467682)
(0.152262 0.544902 -0.463643)
(0.12886 0.475476 -0.403208)
(0.142367 0.543033 -0.478295)
(0.141178 0.520651 -0.456721)
(0.120489 0.456847 -0.399321)
(0.145027 0.535995 -0.468464)
(0.122452 0.480522 -0.418364)
(0.12627 0.506517 -0.447043)
(0.130616 0.495144 -0.440794)
(0.122288 0.44892 -0.389733)
(0.129461 0.472239 -0.40816)
(0.144082 0.518607 -0.448897)
(0.116929 0.459146 -0.395813)
(0.128417 0.492031 -0.423761)
(0.16538 0.62637 -0.540053)
(0.134176 0.508026 -0.444718)
(0.138425 0.482987 -0.418383)
(0.1307 0.527061 -0.455188)
(0.141056 0.568132 -0.49768)
(0.140937 0.541871 -0.472347)
(0.128531 0.474798 -0.413617)
(0.130985 0.469019 -0.409201)
(0.131556 0.516139 -0.447351)
(0.138605 0.512745 -0.443218)
(0.12906 0.478736 -0.416744)
(0.137122 0.51107 -0.441169)
(0.139632 0.513201 -0.451921)
(0.115706 0.452089 -0.386736)
(0.129258 0.504989 -0.43558)
(0.18413 0.702476 -0.611687)
(0.170548 0.639145 -0.562851)
(0.123085 0.484922 -0.424852)
(0.138565 0.510968 -0.449366)
(0.169836 0.643683 -0.557654)
(0.190206 0.735375 -0.6385)
(0.185856 0.697663 -0.61102)
(0.16611 0.641879 -0.563574)
(0.14483 0.556272 -0.48043)
(0.181157 0.700196 -0.612388)
(0.193149 0.735787 -0.63671)
(0.155709 0.582868 -0.507229)
(0.194061 0.735779 -0.636755)
(0.18361 0.681797 -0.599231)
(0.16092 0.611422 -0.525488)
(0.16177 0.610731 -0.530651)
(0.189387 0.697969 -0.604894)
(0.147175 0.556156 -0.4847)
(0.179619 0.692759 -0.604704)
(0.130328 0.520417 -0.457649)
(0.16955 0.650313 -0.569163)
(0.156706 0.586251 -0.514343)
(0.135944 0.495628 -0.440431)
(0.17451 0.648547 -0.573195)
(0.145187 0.560608 -0.483501)
(0.144647 0.51454 -0.455442)
(0.147401 0.544598 -0.473877)
(0.164376 0.599585 -0.527072)
(0.161537 0.624491 -0.548146)
(0.164682 0.594587 -0.525194)
(0.183921 0.687439 -0.59516)
(0.15299 0.561343 -0.490261)
(0.141546 0.54986 -0.479768)
(0.147481 0.581017 -0.4995)
(0.172713 0.653836 -0.570879)
(0.167512 0.629791 -0.544501)
(0.132097 0.506817 -0.447393)
(0.135884 0.494458 -0.436299)
(0.185566 0.700492 -0.608739)
(0.15026 0.574281 -0.494328)
(0.157262 0.596753 -0.51568)
(0.180946 0.686705 -0.595509)
(0.172624 0.660417 -0.574774)
(0.184407 0.701548 -0.60784)
(0.189448 0.72374 -0.629088)
(0.161874 0.628403 -0.542568)
(0.174895 0.667776 -0.584099)
(0.19079 0.733733 -0.637896)
(0.185416 0.702422 -0.611175)
(0.171752 0.66743 -0.584464)
(0.180248 0.69529 -0.608857)
(0.150467 0.57068 -0.499926)
(0.1903 0.717188 -0.620265)
(0.14624 0.569408 -0.49295)
(0.150791 0.554959 -0.484725)
(0.141754 0.537194 -0.455091)
(0.141126 0.530918 -0.469081)
(0.192407 0.729605 -0.634397)
(0.190443 0.734065 -0.637671)
(0.159499 0.62674 -0.531521)
(0.179242 0.678145 -0.588107)
(0.191395 0.734774 -0.637159)
(0.190295 0.730657 -0.635207)
(0.169417 0.646839 -0.56076)
(0.141963 0.551061 -0.479702)
(0.141907 0.543761 -0.47497)
(0.165935 0.594977 -0.520436)
(0.135544 0.501611 -0.439269)
(0.132223 0.504559 -0.441324)
(0.174556 0.669621 -0.585444)
(0.164335 0.613011 -0.533032)
(0.144283 0.529072 -0.46812)
(0.186303 0.718981 -0.627616)
(0.140821 0.515785 -0.450868)
(0.1794 0.688025 -0.598488)
(0.175272 0.668841 -0.588107)
(0.153318 0.582509 -0.51614)
(0.146872 0.510723 -0.450391)
(0.190057 0.712575 -0.612302)
(0.193929 0.736816 -0.635981)
(0.186592 0.699769 -0.608744)
(0.191037 0.728487 -0.631606)
(0.185178 0.699533 -0.60217)
(0.191744 0.730343 -0.6325)
(0.182715 0.682517 -0.59348)
(0.18764 0.703005 -0.607342)
(0.128064 0.516318 -0.453203)
(0.157881 0.595109 -0.518701)
(0.17652 0.660967 -0.577617)
(0.156038 0.602997 -0.530118)
(0.18403 0.699033 -0.610752)
(0.175526 0.6796 -0.595862)
(0.191592 0.735693 -0.637717)
(0.1889 0.716994 -0.615569)
(0.19346 0.736223 -0.638594)
(0.188589 0.723802 -0.630423)
(0.19139 0.736307 -0.63836)
(0.193551 0.735608 -0.63732)
(0.188766 0.717188 -0.626891)
(0.19164 0.723335 -0.626357)
(0.144469 0.541233 -0.480256)
(0.192831 0.734021 -0.637294)
(0.193737 0.738544 -0.636214)
(0.18648 0.707498 -0.613688)
(0.158865 0.595204 -0.517863)
(0.187415 0.70484 -0.614561)
(0.191476 0.729316 -0.630993)
(0.183684 0.689769 -0.597402)
(0.191533 0.724636 -0.628629)
(0.142295 0.524347 -0.460166)
(0.126777 0.495609 -0.43565)
(0.175284 0.66642 -0.583132)
(0.124831 0.490947 -0.43089)
(0.131315 0.522566 -0.454423)
(0.15265 0.590305 -0.519333)
(0.131388 0.493412 -0.42832)
(0.135035 0.500935 -0.440336)
(0.159637 0.606195 -0.521154)
(0.136759 0.490351 -0.433089)
(0.166205 0.603237 -0.527543)
(0.158976 0.601733 -0.527611)
(0.162493 0.608813 -0.531309)
(0.189476 0.731027 -0.634475)
(0.18117 0.705592 -0.609486)
(0.151681 0.567201 -0.492336)
(0.18924 0.729898 -0.630483)
(0.171291 0.648762 -0.568112)
(0.188294 0.73036 -0.633667)
(0.157772 0.620479 -0.539675)
(0.15831 0.634201 -0.554272)
(0.177275 0.688189 -0.60198)
(0.148677 0.580074 -0.49784)
(0.174073 0.663887 -0.580503)
(0.187779 0.732792 -0.635055)
(0.171821 0.661128 -0.580176)
(0.188126 0.728561 -0.630662)
(0.189981 0.736859 -0.638165)
(0.164347 0.613495 -0.531231)
(0.117917 0.438558 -0.385335)
(0.140463 0.533755 -0.460735)
(0.157871 0.586167 -0.516318)
(0.142148 0.525727 -0.452278)
(0.121025 0.458714 -0.392134)
(0.161925 0.608322 -0.529378)
(0.192666 0.735696 -0.634553)
(0.186961 0.716716 -0.618722)
(0.156863 0.620771 -0.543222)
(0.186088 0.717953 -0.624998)
(0.190547 0.729712 -0.63166)
(0.183628 0.707927 -0.613746)
(0.18927 0.722592 -0.629598)
(0.125939 0.495245 -0.434736)
(0.145848 0.544565 -0.471345)
(0.192918 0.729928 -0.627962)
(0.16117 0.605609 -0.530934)
(0.149271 0.545897 -0.478591)
(0.184098 0.693629 -0.59572)
(0.123945 0.475669 -0.419805)
(0.15378 0.576238 -0.501031)
(0.173363 0.635165 -0.55482)
(0.189003 0.712508 -0.619129)
(0.15069 0.577851 -0.500213)
(0.186647 0.71755 -0.623384)
(0.185416 0.699892 -0.610675)
(0.165757 0.637829 -0.555077)
(0.191976 0.731532 -0.635254)
(0.184732 0.697234 -0.606626)
(0.193006 0.733757 -0.637983)
(0.190993 0.730088 -0.633926)
(0.181473 0.694735 -0.604613)
(0.159665 0.576085 -0.508924)
(0.163567 0.599008 -0.527709)
(0.190879 0.722182 -0.628981)
(0.146376 0.546783 -0.481111)
(0.170579 0.641258 -0.5647)
(0.194182 0.734741 -0.63872)
(0.185868 0.706822 -0.614906)
(0.188615 0.723709 -0.630474)
(0.159574 0.617552 -0.533231)
(0.167092 0.60854 -0.534659)
(0.133628 0.491601 -0.436654)
(0.141919 0.489646 -0.428759)
(0.189719 0.732526 -0.635075)
(0.172686 0.655577 -0.571124)
(0.189905 0.730053 -0.634996)
(0.180985 0.687446 -0.599774)
(0.189422 0.724794 -0.628931)
(0.187095 0.716251 -0.620515)
(0.185822 0.696396 -0.611073)
(0.114691 0.456762 -0.405313)
(0.193664 0.72217 -0.629239)
(0.190942 0.723056 -0.629855)
(0.19445 0.729634 -0.635017)
(0.192454 0.723537 -0.631221)
(0.186338 0.69783 -0.612645)
(0.182006 0.682017 -0.59619)
(0.193311 0.7286 -0.635968)
(0.128655 0.494653 -0.430953)
(0.140964 0.524388 -0.446147)
(0.142791 0.554087 -0.482203)
(0.132096 0.501899 -0.443737)
(0.150482 0.576307 -0.49841)
(0.1733 0.658966 -0.571638)
(0.124779 0.464751 -0.409432)
(0.148095 0.557946 -0.488443)
(0.14118 0.543707 -0.476218)
(0.163434 0.588685 -0.520237)
(0.179979 0.651084 -0.564268)
(0.157466 0.575184 -0.505896)
(0.160964 0.593146 -0.518901)
(0.149813 0.575289 -0.49751)
(0.160956 0.584023 -0.501642)
(0.158942 0.582547 -0.496466)
(0.190121 0.737957 -0.639275)
(0.189504 0.730938 -0.635225)
(0.190066 0.736096 -0.639095)
(0.189771 0.732429 -0.636621)
(0.19038 0.737998 -0.639385)
(0.19036 0.736459 -0.638429)
(0.190616 0.735244 -0.638103)
(0.143482 0.556315 -0.495559)
(0.181935 0.689835 -0.601465)
(0.172968 0.653987 -0.574609)
(0.188289 0.706862 -0.617568)
(0.170983 0.641626 -0.563077)
(0.178839 0.673426 -0.592633)
(0.187694 0.700818 -0.610631)
(0.137282 0.527406 -0.464313)
(0.134852 0.540898 -0.471046)
(0.140703 0.540266 -0.470512)
(0.140298 0.568109 -0.502981)
(0.123446 0.486353 -0.424055)
(0.16546 0.620001 -0.543276)
(0.165961 0.641122 -0.560434)
(0.140497 0.509882 -0.436902)
(0.180769 0.675339 -0.587337)
(0.177394 0.65863 -0.575116)
(0.17729 0.657026 -0.57488)
(0.179944 0.663288 -0.579689)
(0.188574 0.712582 -0.623677)
(0.165068 0.616107 -0.542635)
(0.19133 0.715736 -0.626634)
(0.164815 0.59872 -0.522742)
(0.177932 0.646203 -0.567072)
(0.170289 0.634737 -0.555564)
(0.175005 0.651139 -0.572848)
(0.189107 0.730594 -0.634426)
(0.190567 0.735684 -0.638913)
(0.19009 0.737704 -0.638719)
(0.190119 0.73609 -0.638789)
(0.185118 0.716261 -0.622085)
(0.185643 0.717168 -0.624112)
(0.190216 0.735168 -0.638736)
(0.129878 0.480792 -0.418463)
(0.193168 0.726514 -0.633693)
(0.19131 0.715396 -0.623067)
(0.193641 0.727019 -0.633444)
(0.192582 0.727355 -0.632033)
(0.192361 0.732084 -0.634723)
(0.192334 0.731225 -0.632591)
(0.192207 0.726721 -0.632269)
(0.16646 0.629405 -0.552314)
(0.153528 0.594972 -0.520956)
(0.194128 0.733893 -0.632663)
(0.194315 0.737575 -0.636558)
(0.194678 0.732706 -0.632919)
(0.194407 0.736575 -0.637761)
(0.194361 0.735133 -0.637338)
(0.193906 0.736828 -0.637206)
(0.194836 0.735598 -0.637373)
(0.192859 0.723619 -0.632588)
(0.194128 0.734606 -0.636854)
(0.192661 0.718532 -0.627587)
(0.194249 0.73355 -0.634466)
(0.1912 0.720676 -0.627496)
(0.189691 0.719556 -0.626111)
(0.194434 0.732498 -0.634658)
(0.173509 0.655183 -0.572224)
(0.145278 0.560194 -0.498409)
(0.135401 0.495797 -0.430463)
(0.162708 0.593465 -0.519304)
(0.143459 0.538169 -0.466149)
(0.128983 0.473276 -0.419741)
(0.139479 0.528763 -0.46909)
(0.126245 0.517167 -0.450949)
(0.148898 0.559083 -0.478121)
(0.134713 0.537701 -0.463521)
(0.139059 0.537989 -0.449087)
(0.14254 0.536828 -0.459798)
(0.132443 0.486473 -0.422339)
(0.126788 0.485102 -0.423618)
(0.109403 0.43268 -0.389192)
(0.132478 0.496833 -0.441987)
(0.131814 0.527439 -0.460585)
(0.171171 0.661054 -0.574752)
(0.134633 0.51352 -0.45756)
(0.167725 0.623481 -0.541321)
(0.148203 0.573013 -0.500313)
(0.14856 0.557648 -0.467768)
(0.143852 0.537051 -0.457876)
(0.133885 0.530149 -0.461973)
(0.132225 0.513318 -0.450404)
(0.133405 0.526287 -0.458144)
(0.135714 0.55108 -0.481854)
(0.136314 0.51579 -0.459702)
(0.138467 0.515194 -0.442265)
(0.189514 0.737441 -0.636421)
(0.189793 0.732969 -0.631572)
(0.171343 0.626901 -0.545266)
(0.18925 0.727492 -0.627952)
(0.171845 0.630803 -0.551944)
(0.183964 0.692481 -0.600637)
(0.13571 0.527891 -0.450782)
(0.127378 0.532563 -0.455865)
(0.142936 0.531901 -0.459662)
(0.135769 0.496594 -0.443378)
(0.146712 0.545966 -0.480443)
(0.142307 0.527159 -0.464065)
(0.181855 0.691132 -0.605929)
(0.134621 0.531384 -0.470709)
(0.165677 0.648211 -0.570393)
(0.166073 0.646758 -0.564076)
(0.169831 0.656528 -0.57347)
(0.16328 0.627211 -0.56059)
(0.193881 0.7337 -0.631701)
(0.17852 0.657933 -0.572648)
(0.193499 0.727074 -0.626952)
(0.181393 0.657817 -0.5757)
(0.191893 0.723563 -0.621876)
(0.188839 0.702207 -0.605058)
(0.188888 0.702325 -0.60764)
(0.17398 0.645052 -0.558132)
(0.170479 0.629423 -0.55505)
(0.185338 0.684812 -0.593834)
(0.165265 0.606458 -0.531968)
(0.140613 0.53731 -0.477035)
(0.167355 0.614517 -0.532457)
(0.135604 0.496026 -0.433059)
(0.121676 0.460196 -0.405775)
(0.144084 0.527724 -0.4632)
(0.157565 0.584682 -0.510285)
(0.149833 0.579526 -0.50476)
(0.163351 0.608465 -0.530743)
(0.159791 0.604223 -0.528868)
(0.164268 0.642915 -0.561207)
(0.155401 0.586592 -0.513997)
(0.179575 0.693529 -0.605682)
(0.167011 0.638905 -0.565676)
(0.171133 0.658647 -0.582386)
(0.175993 0.659202 -0.57693)
(0.155474 0.594693 -0.519113)
(0.153291 0.601308 -0.523028)
(0.126404 0.469919 -0.417396)
(0.188796 0.703319 -0.61528)
(0.154453 0.571564 -0.508177)
(0.189974 0.713061 -0.623313)
(0.1702 0.631705 -0.560314)
(0.171344 0.611329 -0.546225)
(0.147524 0.56074 -0.494005)
(0.181646 0.67163 -0.592093)
(0.178572 0.668261 -0.586631)
(0.185329 0.688866 -0.60737)
(0.147281 0.533399 -0.464915)
(0.148715 0.536202 -0.472019)
(0.182022 0.676163 -0.595071)
(0.179699 0.674915 -0.591394)
(0.145111 0.501294 -0.44839)
(0.128752 0.487128 -0.442306)
(0.185587 0.694001 -0.611512)
(0.119141 0.465672 -0.411529)
(0.129912 0.492292 -0.434582)
(0.171262 0.63212 -0.557627)
(0.172978 0.651671 -0.572467)
(0.140986 0.490926 -0.439963)
(0.144891 0.548313 -0.488326)
(0.127037 0.490144 -0.430955)
(0.129848 0.494497 -0.429895)
(0.14248 0.555721 -0.48401)
(0.163333 0.626167 -0.544494)
(0.154375 0.567131 -0.493302)
(0.126863 0.469935 -0.404699)
(0.141008 0.530774 -0.462612)
(0.139395 0.509852 -0.450013)
(0.148551 0.550617 -0.482816)
(0.152082 0.575017 -0.498897)
(0.124726 0.472756 -0.409143)
(0.152458 0.579706 -0.507836)
(0.122592 0.46159 -0.40665)
(0.158545 0.613907 -0.534464)
(0.146329 0.548993 -0.476484)
(0.132771 0.488479 -0.428554)
(0.15519 0.540205 -0.475108)
(0.152761 0.571716 -0.499738)
(0.153237 0.561161 -0.493277)
(0.145129 0.530658 -0.464624)
(0.180482 0.67766 -0.592927)