/*--------------------------------*- C++ -*----------------------------------*\
| =========                 |                                                 |
| \\      /  F ield         | OpenFOAM: The Open Source CFD Toolbox           |
|  \\    /   O peration     | Version:  v1612+                                |
|   \\  /    A nd           | Web:      www.OpenFOAM.com                      |
|    \\/     M anipulation  |                                                 |
\*---------------------------------------------------------------------------*/
FoamFile
{
    version     2.0;
    format      ascii;
    class       volVectorField;
    location    "50";
    object      wallShearStress;
}
// * * * * * * * * * * * * * * * * * * * * * * * * * * * * * * * * * * * * * //

dimensions      [0 2 -2 0 0 0 0];

internalField   uniform (0 0 0);

boundaryField
{
    WALL
    {
        type            calculated;
        value           nonuniform List<vector> 
1573
(
(-0.00329905 -0.0124455 0.0104477)
(-0.00249616 -0.0111472 0.0103627)
(-0.00316137 -0.0111325 0.00959556)
(-0.00296552 -0.0110067 0.00958763)
(-0.00299567 -0.0115038 0.0100608)
(-0.00316105 -0.0115 0.0101595)
(-0.00339679 -0.0115807 0.00996544)
(-0.00294214 -0.0112548 0.0099038)
(-0.00281724 -0.0113567 0.00983012)
(-0.00291602 -0.0109562 0.00931851)
(-0.00291742 -0.0113559 0.00990202)
(-0.00304751 -0.0113957 0.00994866)
(-0.0030597 -0.0112849 0.00987392)
(-0.00319099 -0.0113402 0.00990872)
(-0.00298852 -0.0114568 0.0100661)
(-0.00283444 -0.0112966 0.0098676)
(-0.0029445 -0.0116084 0.00997558)
(-0.00302419 -0.011583 0.0100946)
(-0.00305873 -0.0113369 0.00995611)
(-0.00301426 -0.0111697 0.00980648)
(-0.00314815 -0.0115646 0.0100975)
(-0.00305293 -0.0116476 0.0101114)
(-0.00308468 -0.010809 0.00935307)
(-0.0028989 -0.0118617 0.0102482)
(-0.00263228 -0.0107986 0.00973676)
(-0.00314317 -0.0116731 0.0101899)
(-0.00297795 -0.01182 0.0106535)
(-0.00316547 -0.0117812 0.0103011)
(-0.00286972 -0.0107224 0.00924279)
(-0.00250277 -0.0110298 0.00946848)
(-0.00286657 -0.0117219 0.0100861)
(-0.00323364 -0.011335 0.0101476)
(-0.00296564 -0.011411 0.010029)
(-0.00307538 -0.0113498 0.00981682)
(-0.00300486 -0.011774 0.0103115)
(-0.00337647 -0.0113753 0.0102634)
(-0.00270294 -0.0119703 0.00928402)
(-0.00294133 -0.0124291 0.0104841)
(-0.00336906 -0.0121945 0.0106207)
(-0.00276998 -0.010584 0.00972288)
(-0.0028995 -0.0111494 0.00968153)
(-0.00296651 -0.0112407 0.00975978)
(-0.00318967 -0.0113141 0.00994276)
(-0.00301771 -0.0112275 0.00982614)
(-0.00281208 -0.0108618 0.0094606)
(-0.00307539 -0.0113244 0.00948387)
(-0.00293862 -0.0114398 0.0101437)
(-0.00294007 -0.0111693 0.00964083)
(-0.00314049 -0.0115424 0.00984976)
(-0.00290032 -0.0112972 0.00982076)
(-0.00313459 -0.0113257 0.00970522)
(-0.00297919 -0.0111245 0.00966426)
(-0.00295552 -0.0110987 0.00964908)
(-0.0027315 -0.0110598 0.00976752)
(-0.00293703 -0.0115019 0.0100605)
(-0.00319852 -0.0112773 0.00975928)
(-0.0027275 -0.0105342 0.00966563)
(-0.00290311 -0.0105171 0.00940767)
(-0.00283778 -0.01068 0.0095951)
(-0.0030093 -0.0113518 0.008946)
(-0.00276737 -0.0108346 0.00947086)
(-0.0029644 -0.010943 0.0096554)
(-0.00297218 -0.011161 0.00977155)
(-0.00305519 -0.0114159 0.0100625)
(-0.00305132 -0.0111305 0.00962227)
(-0.00305026 -0.0113867 0.00981308)
(-0.00308876 -0.011525 0.0100425)
(-0.00265089 -0.0110645 0.0098887)
(-0.00312312 -0.011095 0.00972063)
(-0.00306789 -0.0116328 0.0102816)
(-0.00301635 -0.0115513 0.0101508)
(-0.00317218 -0.0115917 0.0103347)
(-0.00305109 -0.0114706 0.0102438)
(-0.00290879 -0.0112441 0.00981462)
(-0.00291033 -0.011248 0.00995459)
(-0.00278397 -0.011628 0.0103565)
(-0.0034435 -0.0116638 0.0102233)
(-0.00296598 -0.011566 0.0100916)
(-0.0029569 -0.0111592 0.00981547)
(-0.00302323 -0.0116681 0.0101265)
(-0.00297877 -0.011363 0.0100655)
(-0.00311125 -0.0114271 0.0100638)
(-0.00315609 -0.0116392 0.0101035)
(-0.00268557 -0.0113739 0.0101012)
(-0.00309645 -0.0113685 0.00978809)
(-0.0029877 -0.0113765 0.00996497)
(-0.00269004 -0.0107457 0.0096196)
(-0.00290975 -0.0109451 0.00949654)
(-0.00302864 -0.0116415 0.0101008)
(-0.00292533 -0.0114023 0.0101349)
(-0.00298782 -0.0111691 0.00992933)
(-0.00299901 -0.0121734 0.0101088)
(-0.00311383 -0.0124631 0.0104882)
(-0.00262197 -0.0109586 0.0107723)
(-0.00332294 -0.0115102 0.0102679)
(-0.00252321 -0.0104901 0.00943063)
(-0.00256794 -0.0118454 0.0093915)
(-0.00329523 -0.011783 0.00982332)
(-0.00291667 -0.0110257 0.00977321)
(-0.00313804 -0.0112195 0.0102801)
(-0.00298441 -0.0111657 0.00954878)
(-0.00308181 -0.0109859 0.00992762)
(-0.00312805 -0.0111669 0.00967096)
(-0.00327136 -0.0111903 0.00994494)
(-0.00319008 -0.0114534 0.0100432)
(-0.00273932 -0.0107214 0.00948595)
(-0.00279551 -0.0110448 0.00929351)
(-0.00278211 -0.010873 0.00912323)
(-0.00296921 -0.0122569 0.0108645)
(-0.00278266 -0.0118244 0.00970343)
(-0.00281184 -0.0111934 0.0100264)
(-0.0028941 -0.0107636 0.00946077)
(-0.00291627 -0.0111374 0.00976042)
(-0.00291726 -0.0110354 0.00966928)
(-0.00296997 -0.0112011 0.00985425)
(-0.00310641 -0.0111031 0.00976563)
(-0.00315243 -0.0111604 0.0100477)
(-0.00297224 -0.0115424 0.00985349)
(-0.00300708 -0.0108143 0.00940797)
(-0.00293962 -0.0110733 0.00941566)
(-0.00291941 -0.0113012 0.0102131)
(-0.00257785 -0.0108611 0.00993446)
(-0.0030953 -0.0112937 0.00978784)
(-0.00319175 -0.0115673 0.00993272)
(-0.00307295 -0.0116915 0.0101061)
(-0.00317364 -0.0114569 0.00991884)
(-0.00280614 -0.0110144 0.00981816)
(-0.00303127 -0.0117746 0.0100586)
(-0.00291194 -0.0107575 0.0100749)
(-0.00276161 -0.0117265 0.0111191)
(-0.00306557 -0.0113081 0.00978524)
(-0.00304838 -0.0110528 0.0097382)
(-0.00317861 -0.0114683 0.0100212)
(-0.00302093 -0.0111948 0.0097774)
(-0.00314008 -0.011479 0.0100057)
(-0.00305676 -0.0111453 0.0097986)
(-0.00305511 -0.0113754 0.00986398)
(-0.00297385 -0.0112491 0.00972024)
(-0.00283063 -0.0113878 0.00987438)
(-0.00304729 -0.0112346 0.0101533)
(-0.00322382 -0.0115372 0.0103537)
(-0.00319914 -0.0114612 0.0104088)
(-0.00270812 -0.011832 0.00932568)
(-0.00335936 -0.0118931 0.0104636)
(-0.00290176 -0.01119 0.00973679)
(-0.00304918 -0.0111837 0.00994235)
(-0.00301552 -0.0108643 0.00967941)
(-0.00313947 -0.0115901 0.0100773)
(-0.00289282 -0.0106743 0.00953659)
(-0.00298721 -0.0110696 0.00986297)
(-0.00292758 -0.0107265 0.00952083)
(-0.00292351 -0.0111829 0.00988232)
(-0.0030345 -0.0107194 0.00960846)
(-0.00303772 -0.0111605 0.00975414)
(-0.00329545 -0.0114469 0.010081)
(-0.00321033 -0.0116533 0.0102368)
(-0.00352657 -0.0118306 0.0104857)
(-0.00338289 -0.0112345 0.0099338)
(-0.00306794 -0.0114771 0.00996396)
(-0.00314814 -0.0112593 0.00988152)
(-0.00312719 -0.0113313 0.00996613)
(-0.00317667 -0.0118747 0.0104475)
(-0.00309218 -0.0114246 0.0100688)
(-0.00303882 -0.0113009 0.0100335)
(-0.0029714 -0.0110073 0.00956861)
(-0.00326227 -0.0112312 0.0101727)
(-0.00319388 -0.0111847 0.00994864)
(-0.00301946 -0.0112254 0.00980494)
(-0.00304144 -0.0113962 0.00988098)
(-0.00319884 -0.0117768 0.0104433)
(-0.0028606 -0.0114628 0.0101117)
(-0.00285278 -0.0111024 0.00985997)
(-0.00306357 -0.0115902 0.0104401)
(-0.00312003 -0.0116036 0.00991212)
(-0.00292599 -0.0113434 0.0102091)
(-0.00311216 -0.011354 0.0098454)
(-0.00313068 -0.0118026 0.0103255)
(-0.0027795 -0.0111955 0.00989011)
(-0.00308286 -0.0114846 0.010093)
(-0.00303737 -0.0115718 0.0100397)
(-0.00314364 -0.0114578 0.00992187)
(-0.00302567 -0.0116494 0.0101847)
(-0.00300765 -0.0111833 0.00968713)
(-0.00315082 -0.0112554 0.00974477)
(-0.00330178 -0.0116423 0.0098537)
(-0.00313329 -0.0119039 0.0103866)
(-0.0032853 -0.0118851 0.0101921)
(-0.00280919 -0.011315 0.0101091)
(-0.00300673 -0.0112507 0.0101232)
(-0.00326257 -0.0119752 0.0102671)
(-0.00319162 -0.0114635 0.00985129)
(-0.00332881 -0.0115074 0.009917)
(-0.00312018 -0.0117351 0.0100215)
(-0.00302748 -0.0117469 0.0102147)
(-0.00304434 -0.0115943 0.0101768)
(-0.00312347 -0.0115442 0.00999368)
(-0.00304377 -0.0113521 0.00977184)
(-0.00282668 -0.0109967 0.00996321)
(-0.00286858 -0.0115336 0.0101674)
(-0.00311049 -0.0116019 0.00990439)
(-0.00292189 -0.0109775 0.00937235)
(-0.00290884 -0.0109832 0.00972948)
(-0.00308881 -0.0112916 0.00987944)
(-0.00294582 -0.0112127 0.00981486)
(-0.00295531 -0.0110569 0.00969155)
(-0.00280604 -0.0110197 0.00989398)
(-0.00287167 -0.0116245 0.0102357)
(-0.00300921 -0.0115532 0.00996877)
(-0.00293477 -0.0113235 0.00996368)
(-0.002774 -0.0108635 0.00960634)
(-0.00286554 -0.0108502 0.00935968)
(-0.00301758 -0.0110794 0.00962448)
(-0.0029467 -0.0111532 0.00975315)
(-0.00283032 -0.0105781 0.00925166)
(-0.00281126 -0.011176 0.00975531)
(-0.00307233 -0.0114846 0.00991883)
(-0.00298114 -0.0110869 0.00969953)
(-0.00311903 -0.0107134 0.00951426)
(-0.00300512 -0.0108176 0.00952311)
(-0.00336092 -0.0113053 0.0099937)
(-0.00314553 -0.0112826 0.00994118)
(-0.00275822 -0.0105755 0.00972139)
(-0.00311639 -0.0112365 0.00986821)
(-0.00292896 -0.0110651 0.00970825)
(-0.00302161 -0.0115562 0.0100048)
(-0.00277649 -0.0108916 0.00942442)
(-0.00269747 -0.0105951 0.00937832)
(-0.00333611 -0.0112181 0.0102597)
(-0.00332134 -0.011768 0.0104444)
(-0.00288743 -0.0112098 0.00980972)
(-0.00284503 -0.0113053 0.00994752)
(-0.00314386 -0.0112854 0.0100576)
(-0.00270597 -0.0108644 0.0092828)
(-0.0028949 -0.0111779 0.00976652)
(-0.00309393 -0.0116586 0.0102026)
(-0.00301176 -0.0110767 0.00972042)
(-0.00335144 -0.0113513 0.00978399)
(-0.00280907 -0.0116274 0.0101468)
(-0.00283301 -0.0110889 0.00954407)
(-0.00275303 -0.0106753 0.00975824)
(-0.00309484 -0.0112422 0.0100908)
(-0.00303134 -0.0114607 0.00981698)
(-0.00293975 -0.0112083 0.00963635)
(-0.00298625 -0.0115334 0.00975638)
(-0.00262896 -0.0107255 0.00907784)
(-0.00274134 -0.0102788 0.00917556)
(-0.00313119 -0.0113754 0.0098506)
(-0.00293916 -0.0109496 0.00949493)
(-0.00311785 -0.0112428 0.00990164)
(-0.00288771 -0.011262 0.00984783)
(-0.00313354 -0.0115292 0.00994072)
(-0.00302186 -0.0116021 0.00999893)
(-0.00295564 -0.0112268 0.00980116)
(-0.00324322 -0.0112967 0.0100323)
(-0.00293378 -0.0115074 0.00976794)
(-0.00315564 -0.0114806 0.00999296)
(-0.00303559 -0.01113 0.00997387)
(-0.00296108 -0.0111386 0.00960977)
(-0.00316897 -0.0112339 0.0100885)
(-0.00292003 -0.0108207 0.00958122)
(-0.00320601 -0.0115289 0.0100222)
(-0.0033927 -0.0121432 0.0106594)
(-0.00317301 -0.0115439 0.00971201)
(-0.00315567 -0.0113195 0.00996196)
(-0.0028523 -0.0107098 0.00957297)
(-0.00299963 -0.011166 0.00993692)
(-0.00316508 -0.0111818 0.0100172)
(-0.00287409 -0.0101974 0.00941789)
(-0.00302838 -0.0112591 0.00956622)
(-0.00315703 -0.0109388 0.00968034)
(-0.00288085 -0.0112675 0.00985206)
(-0.00287884 -0.0109906 0.00984997)
(-0.00299331 -0.0111065 0.00978701)
(-0.003082 -0.0108924 0.00959502)
(-0.00279057 -0.011185 0.00986766)
(-0.00284826 -0.0116544 0.0101952)
(-0.00288712 -0.0113386 0.00979596)
(-0.00331822 -0.0112369 0.00956927)
(-0.0030334 -0.0115346 0.0100471)
(-0.00270248 -0.0113193 0.010247)
(-0.00284469 -0.0110004 0.00982305)
(-0.00321576 -0.011345 0.00975961)
(-0.00289916 -0.0116971 0.0104268)
(-0.0027918 -0.0111231 0.00991723)
(-0.00288995 -0.0111856 0.00987119)
(-0.00294525 -0.0112646 0.0100465)
(-0.00300358 -0.0118016 0.0100081)
(-0.00270711 -0.0105986 0.00905606)
(-0.00280534 -0.0111726 0.00999132)
(-0.00292378 -0.0114299 0.0100066)
(-0.00296897 -0.0109655 0.00957856)
(-0.00296338 -0.0111751 0.00973991)
(-0.00305159 -0.011796 0.0103737)
(-0.00317841 -0.0117251 0.0100626)
(-0.00263573 -0.0110117 0.010221)
(-0.00294186 -0.011031 0.00986617)
(-0.00270103 -0.0105766 0.00953353)
(-0.00301408 -0.0116208 0.00981394)
(-0.0027564 -0.010999 0.0102905)
(-0.00279823 -0.0116753 0.0104516)
(-0.0031711 -0.0110383 0.00946792)
(-0.00281916 -0.0105962 0.00959512)
(-0.00306863 -0.0110427 0.0103016)
(-0.00278423 -0.010106 0.00869777)
(-0.00306767 -0.0112533 0.0094264)
(-0.00305047 -0.0109228 0.0094318)
(-0.00299513 -0.0115003 0.0100909)
(-0.00297571 -0.0114618 0.0102804)
(-0.003087 -0.01209 0.0102373)
(-0.00291812 -0.0117526 0.0105284)
(-0.00311899 -0.0115236 0.00992981)
(-0.00298003 -0.0114983 0.0102311)
(-0.00293659 -0.0114949 0.0101697)
(-0.00301348 -0.011042 0.00979243)
(-0.00295554 -0.011374 0.0100038)
(-0.00286646 -0.0111074 0.0100285)
(-0.00313476 -0.011429 0.00983123)
(-0.00298328 -0.0113864 0.0098749)
(-0.00311289 -0.0115495 0.00987781)
(-0.00344216 -0.0116808 0.0106573)
(-0.00320948 -0.0113362 0.0102254)
(-0.0031116 -0.0110503 0.0101156)
(-0.00332297 -0.0116392 0.0106314)
(-0.00296095 -0.0114598 0.00986749)
(-0.00296913 -0.0109042 0.00963931)
(-0.00273811 -0.0114217 0.00977745)
(-0.00288408 -0.0114839 0.00978624)
(-0.00286805 -0.0112251 0.00965336)
(-0.00305391 -0.0117416 0.00984203)
(-0.00299422 -0.0113191 0.00974559)
(-0.00318044 -0.0113231 0.0099022)
(-0.00329729 -0.011413 0.00997428)
(-0.00323795 -0.0109866 0.00973912)
(-0.00315424 -0.011187 0.00992232)
(-0.0030597 -0.0108759 0.00960573)
(-0.0034476 -0.0113254 0.0100116)
(-0.00309124 -0.0116644 0.0100777)
(-0.00324024 -0.0116594 0.0100691)
(-0.00303691 -0.0110471 0.00982966)
(-0.00302645 -0.0112517 0.00990154)
(-0.003077 -0.0113135 0.00990082)
(-0.00311144 -0.0112288 0.00995491)
(-0.00291898 -0.0111493 0.00979411)
(-0.00300987 -0.0113872 0.00986863)
(-0.0028887 -0.0115024 0.0101063)
(-0.00301421 -0.0113494 0.00988738)
(-0.00289409 -0.0115919 0.0100696)
(-0.00293512 -0.0108445 0.00958246)
(-0.00343092 -0.0119386 0.0102486)
(-0.00316146 -0.0115999 0.0100015)
(-0.00318456 -0.0114776 0.00989264)
(-0.00295671 -0.0114149 0.0100347)
(-0.00301214 -0.0117361 0.0102997)
(-0.00302811 -0.0114096 0.0100954)
(-0.00285495 -0.0115818 0.00964819)
(-0.00299652 -0.0109946 0.00984191)
(-0.00327194 -0.0117741 0.0102331)
(-0.00287111 -0.0112343 0.00966878)
(-0.00302072 -0.0115947 0.0101694)
(-0.00335822 -0.0117053 0.0103931)
(-0.00334843 -0.0120606 0.0103561)
(-0.00321813 -0.0112131 0.00996659)
(-0.00295198 -0.0115156 0.0100623)
(-0.00298767 -0.0113523 0.00984519)
(-0.00330737 -0.0115565 0.0100128)
(-0.00301038 -0.0113978 0.00992055)
(-0.00306149 -0.0112632 0.00966775)
(-0.00304597 -0.0116466 0.0101916)
(-0.0031469 -0.0115112 0.0101555)
(-0.00301242 -0.0112494 0.00971552)
(-0.00314512 -0.0122937 0.010948)
(-0.00296288 -0.0111098 0.00965809)
(-0.00295482 -0.0114373 0.0102297)
(-0.00301159 -0.0119721 0.0106442)
(-0.00305173 -0.0112281 0.00962912)
(-0.00309943 -0.0121201 0.0106176)
(-0.00301161 -0.0113692 0.00983951)
(-0.0030614 -0.0117227 0.0103002)
(-0.00308114 -0.0117351 0.0103515)
(-0.00325367 -0.0114871 0.0101912)
(-0.00291626 -0.0115986 0.0101554)
(-0.00284501 -0.0108668 0.00968432)
(-0.0032448 -0.0118261 0.0103728)
(-0.00282995 -0.0116809 0.0103509)
(-0.0029352 -0.0116005 0.0100678)
(-0.00285899 -0.0115579 0.0100118)
(-0.00310384 -0.011814 0.010231)
(-0.00316426 -0.0119137 0.0104305)
(-0.00288584 -0.0113811 0.00989159)
(-0.00284591 -0.010763 0.00937785)
(-0.00274438 -0.0106083 0.00974751)
(-0.00242259 -0.0101134 0.00932813)
(-0.00300604 -0.0112826 0.00983863)
(-0.00302323 -0.0112927 0.0098939)
(-0.00287041 -0.011188 0.00934912)
(-0.00304446 -0.0110584 0.00948685)
(-0.00289653 -0.0106921 0.00912242)
(-0.00296455 -0.0111961 0.0100907)
(-0.00281986 -0.0107372 0.00867168)
(-0.0029701 -0.0114292 0.00982518)
(-0.0030744 -0.0106615 0.00938494)
(-0.00314523 -0.0115151 0.010221)
(-0.0032338 -0.0111568 0.00967502)
(-0.00324531 -0.0109842 0.00972868)
(-0.00329239 -0.0115242 0.0102937)
(-0.00306746 -0.0117521 0.0102491)
(-0.00319763 -0.0113229 0.0100675)
(-0.00322979 -0.011621 0.0101999)
(-0.00321953 -0.0108196 0.00961517)
(-0.00313953 -0.0110781 0.00965224)
(-0.00309701 -0.0110274 0.00969051)
(-0.00306802 -0.0113631 0.0098994)
(-0.00296821 -0.0117614 0.0102045)
(-0.00326326 -0.0117251 0.0101379)
(-0.00296396 -0.0111102 0.00960083)
(-0.00336611 -0.0114718 0.0100283)
(-0.00300133 -0.0119015 0.0103963)
(-0.00318901 -0.0119215 0.0103039)
(-0.00346558 -0.0120775 0.0106835)
(-0.00308866 -0.011766 0.0102017)
(-0.0031628 -0.0114574 0.0101255)
(-0.00326368 -0.0115478 0.010385)
(-0.00324458 -0.0112885 0.00998332)
(-0.00305497 -0.011102 0.00975868)
(-0.00307875 -0.011206 0.00980871)
(-0.00307815 -0.0114454 0.00992595)
(-0.00303048 -0.0111262 0.00983196)
(-0.0030594 -0.0112271 0.0099419)
(-0.00292655 -0.011233 0.00954488)
(-0.00270073 -0.0108688 0.010062)
(-0.00308021 -0.0112454 0.0097329)
(-0.00271979 -0.0108 0.0101044)
(-0.00266084 -0.0104997 0.00919959)
(-0.00296457 -0.0115028 0.00996289)
(-0.00303496 -0.0112571 0.00974665)
(-0.00317335 -0.0117363 0.0103935)
(-0.00299376 -0.0117392 0.0102082)
(-0.00308394 -0.0116239 0.0100816)
(-0.00299305 -0.0118958 0.0104202)
(-0.00315436 -0.0119039 0.0103849)
(-0.00324212 -0.0115814 0.0100514)
(-0.00316341 -0.0118545 0.0103634)
(-0.00320771 -0.011896 0.0102798)
(-0.00310738 -0.0118826 0.0104605)
(-0.00298959 -0.0117507 0.0101392)
(-0.00297859 -0.0109785 0.0095643)
(-0.00290885 -0.0114389 0.00988732)
(-0.00309597 -0.0109581 0.00970694)
(-0.00286607 -0.0113479 0.00973147)
(-0.00280178 -0.0114702 0.00982009)
(-0.00282819 -0.0114573 0.0097181)
(-0.00324533 -0.0108445 0.00965323)
(-0.00334367 -0.0117683 0.010444)
(-0.00327793 -0.0113241 0.00995089)
(-0.00318292 -0.0116388 0.0103074)
(-0.00320969 -0.011838 0.0102655)
(-0.00296657 -0.0111398 0.00973448)
(-0.00327144 -0.0112909 0.0101002)
(-0.00302548 -0.0112027 0.00973097)
(-0.00313382 -0.0117223 0.0102889)
(-0.0030113 -0.011145 0.00975077)
(-0.00289911 -0.0113638 0.00996209)
(-0.00298195 -0.0115584 0.00990135)
(-0.00324163 -0.0116589 0.0102432)
(-0.00296927 -0.0113007 0.00971093)
(-0.00316601 -0.011044 0.00961732)
(-0.0030131 -0.0111889 0.00980558)
(-0.00307378 -0.011483 0.0101446)
(-0.00308922 -0.0114152 0.0100543)
(-0.00308106 -0.0114058 0.0100073)
(-0.00296811 -0.0113659 0.00976342)
(-0.00298616 -0.01158 0.00994338)
(-0.00299676 -0.0110532 0.00962102)
(-0.00326492 -0.0112688 0.0098368)
(-0.00320779 -0.011777 0.0102833)
(-0.00299378 -0.0113995 0.0100725)
(-0.00316731 -0.0113211 0.00978905)
(-0.0029537 -0.0114158 0.00995003)
(-0.00291335 -0.011624 0.0103287)
(-0.00290238 -0.0113242 0.0099652)
(-0.00320049 -0.0117973 0.0101865)
(-0.00314271 -0.0112796 0.00988455)
(-0.00299475 -0.0118465 0.0102007)
(-0.00311202 -0.0115955 0.00997434)
(-0.00286479 -0.0112716 0.00983612)
(-0.00310318 -0.0116008 0.0102039)
(-0.00280426 -0.0114002 0.0102077)
(-0.00318143 -0.0118813 0.0104529)
(-0.00296262 -0.0116981 0.0103663)
(-0.00298095 -0.0117449 0.0101408)
(-0.00334185 -0.0118092 0.0102252)
(-0.0032055 -0.0115607 0.00995179)
(-0.00313155 -0.0115744 0.0100805)
(-0.00319532 -0.0117447 0.0102095)
(-0.00314707 -0.0115867 0.0100522)
(-0.00342038 -0.0118248 0.0102876)
(-0.0028847 -0.0115023 0.0101288)
(-0.00314058 -0.0115301 0.0100041)
(-0.00321124 -0.0114441 0.00988066)
(-0.00313039 -0.0114477 0.00990109)
(-0.00310498 -0.0117483 0.0102799)
(-0.00321305 -0.0113479 0.00998701)
(-0.00316411 -0.0118368 0.010212)
(-0.00325749 -0.0116131 0.010074)
(-0.00347085 -0.0119944 0.0106266)
(-0.00329991 -0.0117037 0.0103139)
(-0.00306268 -0.0110978 0.00976671)
(-0.0030488 -0.0115645 0.00999686)
(-0.0031292 -0.0110727 0.00972022)
(-0.00317113 -0.0114411 0.0101499)
(-0.0033815 -0.0112646 0.0100578)
(-0.00337943 -0.0116334 0.010386)
(-0.00299445 -0.010799 0.00949761)
(-0.00299994 -0.0115151 0.0098973)
(-0.00303544 -0.0113506 0.00977572)
(-0.0032681 -0.0114748 0.0102116)
(-0.00298959 -0.0110976 0.00970978)
(-0.00330375 -0.0110954 0.00991024)
(-0.00344196 -0.0116856 0.010376)
(-0.00331095 -0.0111789 0.0100018)
(-0.00313853 -0.0108134 0.00964895)
(-0.00281323 -0.01061 0.00938657)
(-0.00275126 -0.0112036 0.00923299)
(-0.00277072 -0.0104145 0.00929678)
(-0.00268251 -0.0102991 0.00913609)
(-0.00313985 -0.0114122 0.00965063)
(-0.00309955 -0.010522 0.00980451)
(-0.003081 -0.0111353 0.0100819)
(-0.00284887 -0.0107851 0.009452)
(-0.00329276 -0.0112732 0.00998661)
(-0.00299517 -0.011133 0.00970798)
(-0.0029953 -0.0123007 0.0106707)
(-0.00289979 -0.0113155 0.00997588)
(-0.00347823 -0.0126478 0.010818)
(-0.00336553 -0.0108064 0.00976132)
(-0.00277912 -0.0109125 0.0111639)
(-0.00319002 -0.011704 0.00911728)
(-0.00256674 -0.0135559 0.0102989)
(-0.00367768 -0.0123432 0.0116691)
(-0.00301877 -0.01109 0.0098317)
(-0.00282482 -0.0106694 0.00907947)
(-0.00271353 -0.0106955 0.00958974)
(-0.00308725 -0.0112031 0.00962503)
(-0.00286165 -0.0116926 0.0104751)
(-0.00304931 -0.0116374 0.00999955)
(-0.00300524 -0.0112273 0.00999644)
(-0.00324119 -0.0116199 0.00988059)
(-0.00304663 -0.0111115 0.00946427)
(-0.002889 -0.0114168 0.00996898)
(-0.00306134 -0.011273 0.00974836)
(-0.00326874 -0.0118292 0.0102911)
(-0.00309265 -0.0116479 0.00999516)
(-0.00325653 -0.0115513 0.010025)
(-0.00307303 -0.0114635 0.0101474)
(-0.00299413 -0.0113934 0.00994481)
(-0.00300534 -0.0113027 0.00977531)
(-0.00292125 -0.0114634 0.0100296)
(-0.00294036 -0.0111103 0.00980532)
(-0.00308398 -0.011557 0.0105174)
(-0.00287081 -0.0113283 0.0100507)
(-0.00317738 -0.0117339 0.010425)
(-0.00293906 -0.0114902 0.0101562)
(-0.00319894 -0.0116212 0.0101412)
(-0.0027727 -0.0114212 0.0101482)
(-0.00306029 -0.0113579 0.00984566)
(-0.00341112 -0.0115619 0.0102027)
(-0.00299704 -0.0116372 0.0102695)
(-0.00318241 -0.0114604 0.0100287)
(-0.00315047 -0.011276 0.00990093)
(-0.00326306 -0.0116831 0.0103693)
(-0.00305067 -0.0116174 0.0100481)
(-0.00310952 -0.0115188 0.0100034)
(-0.00309346 -0.0114726 0.0100024)
(-0.00309842 -0.0119059 0.0105153)
(-0.00325782 -0.0118797 0.0104523)
(-0.0032877 -0.0117801 0.0102231)
(-0.00337657 -0.0117118 0.0101717)
(-0.00316979 -0.0113213 0.00989693)
(-0.00334517 -0.0114509 0.0100181)
(-0.0031128 -0.0111153 0.00969222)
(-0.00336854 -0.0116045 0.00999104)
(-0.00317607 -0.0116031 0.0102199)
(-0.00268878 -0.0114047 0.00974646)
(-0.00277642 -0.0101495 0.00961249)
(-0.00313604 -0.0120127 0.0102208)
(-0.00259475 -0.0108321 0.00871519)
(-0.00256823 -0.0102423 0.00894813)
(-0.00277566 -0.0106733 0.00962037)
(-0.00296754 -0.01115 0.0100199)
(-0.00293479 -0.0109028 0.00973373)
(-0.0026387 -0.0101549 0.0092072)
(-0.00289374 -0.0106878 0.0095581)
(-0.00303029 -0.0107842 0.00987561)
(-0.00334608 -0.0126188 0.0104423)
(-0.00277354 -0.0109345 0.00965595)
(-0.00301343 -0.0120125 0.0102842)
(-0.00315925 -0.0119211 0.0098856)
(-0.00288539 -0.0107624 0.00972105)
(-0.00301408 -0.0114401 0.00974907)
(-0.00298038 -0.0105635 0.00953503)
(-0.00311098 -0.0109082 0.00970818)
(-0.00303685 -0.010612 0.00941091)
(-0.0031396 -0.0110322 0.00995603)
(-0.00303171 -0.0116066 0.0101728)
(-0.00312404 -0.0108961 0.0100182)
(-0.00318707 -0.0112045 0.00979895)
(-0.00343142 -0.0117051 0.0103379)
(-0.00292213 -0.0117548 0.00995923)
(-0.00301769 -0.0105107 0.0094836)
(-0.00322592 -0.0113317 0.00993316)
(-0.00308703 -0.0117799 0.0100437)
(-0.00297462 -0.0112104 0.00993081)
(-0.00286236 -0.0112784 0.0099097)
(-0.0031463 -0.0116904 0.0101438)
(-0.00305412 -0.0119188 0.0102642)
(-0.00302034 -0.0111199 0.00959911)
(-0.00307342 -0.0115479 0.0101073)
(-0.00313178 -0.0114505 0.00997477)
(-0.00293485 -0.0114946 0.0101309)
(-0.00312976 -0.0118394 0.0102149)
(-0.00307306 -0.0115244 0.0101117)
(-0.0029371 -0.0112532 0.00990249)
(-0.00315432 -0.011661 0.0101923)
(-0.00308209 -0.011762 0.0102322)
(-0.00305696 -0.0115708 0.0100382)
(-0.00291684 -0.011325 0.00992889)
(-0.00313208 -0.0116385 0.0100119)
(-0.00286433 -0.0111 0.00982493)
(-0.00300971 -0.0111562 0.00967886)
(-0.0032225 -0.0116458 0.00971229)
(-0.00313749 -0.0112883 0.00970028)
(-0.0029094 -0.0109298 0.00980768)
(-0.00310968 -0.0115764 0.00970761)
(-0.00274908 -0.0108164 0.00956495)
(-0.00292949 -0.0110945 0.00988995)
(-0.00299887 -0.0115581 0.00990262)
(-0.00322769 -0.0117074 0.0100204)
(-0.0028381 -0.0108412 0.00919223)
(-0.00341315 -0.0120666 0.0103105)
(-0.00319262 -0.0116826 0.0104234)
(-0.00308085 -0.0118512 0.0103067)
(-0.00289804 -0.0113907 0.0101164)
(-0.00315103 -0.0113109 0.0097653)
(-0.00305366 -0.0112732 0.00953673)
(-0.00318454 -0.0115165 0.00998845)
(-0.00303109 -0.0110422 0.00965753)
(-0.00310431 -0.0115964 0.00995573)
(-0.00306299 -0.0113043 0.00983591)
(-0.00285869 -0.0113191 0.00983195)
(-0.00295083 -0.0112863 0.00981694)
(-0.00307169 -0.0114751 0.0100006)
(-0.00306161 -0.0112604 0.00993835)
(-0.00283787 -0.010804 0.00963551)
(-0.00288576 -0.011826 0.0101612)
(-0.00280197 -0.0111171 0.00986627)
(-0.00313092 -0.010937 0.00990191)
(-0.00285624 -0.0106432 0.00947649)
(-0.00292881 -0.0113889 0.00989696)
(-0.00296468 -0.0111844 0.00978825)
(-0.00302724 -0.0106533 0.00953753)
(-0.00292205 -0.0106804 0.00975135)
(-0.00302563 -0.0113207 0.00967486)
(-0.00288577 -0.01127 0.00979379)
(-0.00277875 -0.0111991 0.00934346)
(-0.00267621 -0.0108408 0.00908765)
(-0.0030205 -0.0116015 0.00973421)
(-0.00349486 -0.0111452 0.0099318)
(-0.0031412 -0.0117258 0.0102062)
(-0.00305841 -0.0114012 0.00984473)
(-0.00319051 -0.0112122 0.0100482)
(-0.00295408 -0.0104231 0.00937723)
(-0.00278927 -0.010989 0.00943357)
(-0.0034768 -0.0118845 0.0102047)
(-0.00336436 -0.0122556 0.0102085)
(-0.00267182 -0.011036 0.0100662)
(-0.0028166 -0.0108503 0.0101096)
(-0.0027615 -0.0102259 0.00950813)
(-0.00339546 -0.0116788 0.0101109)
(-0.0029733 -0.0108211 0.0104576)
(-0.00332521 -0.0120301 0.00959891)
(-0.00295915 -0.0114623 0.0105121)
(-0.00286377 -0.0109246 0.0102245)
(-0.00293814 -0.0109835 0.00953896)
(-0.00286512 -0.0108323 0.00966354)
(-0.00273348 -0.0106293 0.00946669)
(-0.00292134 -0.0114659 0.00991014)
(-0.00295364 -0.0113273 0.00978914)
(-0.00308303 -0.0119609 0.0107104)
(-0.00274455 -0.0109367 0.00933283)
(-0.00290766 -0.0108716 0.00961041)
(-0.0029294 -0.01126 0.0098881)
(-0.00302053 -0.0110943 0.00970147)
(-0.0031412 -0.0109146 0.00975073)
(-0.00327402 -0.0115702 0.0101455)
(-0.0030589 -0.0111027 0.00972518)
(-0.00274829 -0.0110593 0.00970279)
(-0.00303896 -0.0116261 0.0101203)
(-0.00303331 -0.0110415 0.00966492)
(-0.00299556 -0.0114123 0.00982106)
(-0.00331445 -0.0113349 0.0101346)
(-0.00293528 -0.0109605 0.00965843)
(-0.00310488 -0.010968 0.00982571)
(-0.00305603 -0.011281 0.00995648)
(-0.00302648 -0.010759 0.00970197)
(-0.00291137 -0.0114549 0.0101194)
(-0.00278909 -0.0110734 0.00961817)
(-0.00292614 -0.0110869 0.00965821)
(-0.00278935 -0.0109577 0.00949633)
(-0.00333712 -0.0110945 0.0100071)
(-0.00304277 -0.010942 0.00966659)
(-0.00321422 -0.0112456 0.0102942)
(-0.00300113 -0.0106344 0.00924803)
(-0.00294072 -0.0106562 0.00965342)
(-0.00314353 -0.0113593 0.0103042)
(-0.00318552 -0.0112651 0.010212)
(-0.00264243 -0.0112006 0.00946067)
(-0.00294968 -0.0117156 0.00958855)
(-0.00339344 -0.0110182 0.0104125)
(-0.00343316 -0.0110622 0.0101492)
(-0.00296988 -0.0104763 0.00926986)
(-0.00260955 -0.0106354 0.00911842)
(-0.00318678 -0.0116721 0.0100509)
(-0.00305615 -0.0116048 0.010041)
(-0.00286521 -0.0110819 0.00960596)
(-0.00310255 -0.0118268 0.0106323)
(-0.00301887 -0.0103267 0.00981818)
(-0.00289705 -0.0119237 0.0103547)
(-0.00290804 -0.0110891 0.00954776)
(-0.00272484 -0.0106103 0.00934894)
(-0.0029708 -0.0115819 0.010133)
(-0.00293797 -0.0113927 0.010069)
(-0.00320491 -0.0119718 0.010494)
(-0.00313656 -0.0114138 0.0101333)
(-0.00326622 -0.0116718 0.0105229)
(-0.00319282 -0.0115352 0.010218)
(-0.0031895 -0.0116009 0.010301)
(-0.00308829 -0.0111255 0.00979495)
(-0.00294261 -0.01188 0.0103945)
(-0.00328234 -0.0112337 0.0100465)
(-0.00297648 -0.011877 0.0105006)
(-0.00278392 -0.0108179 0.00945498)
(-0.00299189 -0.0108501 0.00941222)
(-0.00305752 -0.0107655 0.00958588)
(-0.0033409 -0.0115985 0.0106997)
(-0.00289007 -0.0109024 0.0096343)
(-0.00299634 -0.0112218 0.00982096)
(-0.00326492 -0.0111443 0.0105949)
(-0.00283983 -0.0102626 0.00910453)
(-0.00289581 -0.0108477 0.00940878)
(-0.0030583 -0.0105304 0.00957083)
(-0.0029299 -0.0102791 0.00932937)
(-0.00277242 -0.0109442 0.00962104)
(-0.00258015 -0.0105843 0.00873788)
(-0.00265711 -0.0110551 0.00977227)
(-0.00291556 -0.0127021 0.0106814)
(-0.00339402 -0.0117187 0.0103418)
(-0.00265077 -0.0111266 0.010346)
(-0.00282075 -0.0110949 0.010318)
(-0.00303506 -0.011616 0.0101089)
(-0.00290274 -0.0109847 0.00948875)
(-0.00262971 -0.0114156 0.0106552)
(-0.00296811 -0.0106352 0.00949674)
(-0.00301911 -0.0113347 0.00958905)
(-0.00292845 -0.0113139 0.0102686)
(-0.00319628 -0.0119557 0.0101211)
(-0.00333009 -0.0118967 0.00971316)
(-0.00290156 -0.0107201 0.00971654)
(-0.00321811 -0.0120698 0.0110698)
(-0.00306437 -0.0114823 0.00988969)
(-0.00262622 -0.0105723 0.00934253)
(-0.00287901 -0.0104705 0.00925154)
(-0.00313793 -0.0109825 0.00913761)
(-0.00301235 -0.010284 0.00896278)
(-0.00274854 -0.010001 0.00879769)
(-0.00316705 -0.0109626 0.00929989)
(-0.0028353 -0.00999422 0.00863214)
(-0.00275025 -0.0107846 0.00919772)
(-0.00288713 -0.0106594 0.00967309)
(-0.00275371 -0.0111301 0.0099148)
(-0.00336604 -0.0119098 0.0105247)
(-0.00299497 -0.0112884 0.00978093)
(-0.00271838 -0.0115441 0.0101293)
(-0.0028422 -0.0114864 0.0101507)
(-0.00320732 -0.0113016 0.00986416)
(-0.00326945 -0.0118244 0.0104837)
(-0.00293592 -0.0110756 0.0094862)
(-0.0031463 -0.0115406 0.010034)
(-0.00307375 -0.0115143 0.0101227)
(-0.00327074 -0.0118882 0.0104195)
(-0.00299606 -0.0113432 0.00988898)
(-0.00326273 -0.0118071 0.010311)
(-0.00307661 -0.0114366 0.0100203)
(-0.00304194 -0.0114704 0.0101042)
(-0.00305345 -0.0116299 0.0100917)
(-0.00317546 -0.0117155 0.0103287)
(-0.00316242 -0.0118671 0.0104312)
(-0.00291699 -0.0113876 0.00998905)
(-0.00294554 -0.0114438 0.0100325)
(-0.00303543 -0.0116517 0.0100686)
(-0.00299503 -0.0112584 0.00978784)
(-0.00299484 -0.011294 0.00990865)
(-0.00309295 -0.0113186 0.00994513)
(-0.00318273 -0.0115725 0.0102207)
(-0.00313585 -0.0113173 0.00979276)
(-0.00322999 -0.0109241 0.00972492)
(-0.00291441 -0.0108909 0.00934266)
(-0.00313074 -0.0110583 0.00997674)
(-0.00268847 -0.0106979 0.00881584)
(-0.00294228 -0.0116143 0.00986927)
(-0.0030679 -0.0122785 0.0103634)
(-0.00311795 -0.0117553 0.00980366)
(-0.00322764 -0.0117475 0.0101083)
(-0.00309859 -0.0109555 0.00999635)
(-0.00297252 -0.0115255 0.00983391)
(-0.00283935 -0.0100967 0.00859704)
(-0.00300334 -0.0116293 0.0101183)
(-0.00302962 -0.0110669 0.00945855)
(-0.00296529 -0.0117374 0.0101238)
(-0.0029565 -0.0111045 0.00977631)
(-0.00308649 -0.0110254 0.00988711)
(-0.00263272 -0.0110304 0.0088969)
(-0.00289029 -0.0112208 0.00950028)
(-0.0031425 -0.0112671 0.0101139)