/*--------------------------------*- C++ -*----------------------------------*\
| =========                 |                                                 |
| \\      /  F ield         | OpenFOAM: The Open Source CFD Toolbox           |
|  \\    /   O peration     | Version:  v1612+                                |
|   \\  /    A nd           | Web:      www.OpenFOAM.com                      |
|    \\/     M anipulation  |                                                 |
\*---------------------------------------------------------------------------*/
FoamFile
{
    version     2.0;
    format      ascii;
    class       volVectorField;
    location    "150";
    object      U;
}
// * * * * * * * * * * * * * * * * * * * * * * * * * * * * * * * * * * * * * //

dimensions      [0 1 -1 0 0 0 0];

internalField   nonuniform List<vector> 
18863
(
(-0.389467 0.799586 -0.339869)
(-0.414168 0.846438 -0.35137)
(-0.416849 0.858157 -0.353132)
(-0.365416 0.756769 -0.314208)
(-0.340292 0.693228 -0.291324)
(-0.418751 0.858138 -0.357701)
(-0.370288 0.772197 -0.321198)
(-0.365585 0.75727 -0.316205)
(-0.384304 0.787438 -0.330069)
(-0.384102 0.78824 -0.332142)
(-0.349188 0.723048 -0.303929)
(-0.343405 0.700495 -0.29873)
(-0.36483 0.753069 -0.307853)
(-0.386678 0.799587 -0.334246)
(-0.368146 0.760722 -0.311635)
(-0.349434 0.708985 -0.300066)
(-0.362877 0.724828 -0.306884)
(-0.349711 0.692814 -0.282511)
(-0.428485 0.848537 -0.348507)
(-0.428389 0.854229 -0.342512)
(-0.352877 0.699044 -0.287383)
(-0.354506 0.697871 -0.278869)
(-0.423612 0.842686 -0.346488)
(-0.377312 0.748382 -0.303156)
(-0.34666 0.694715 -0.288062)
(-0.390524 0.77876 -0.321071)
(-0.370985 0.744154 -0.304117)
(-0.379596 0.744319 -0.303064)
(-0.374099 0.742196 -0.304317)
(-0.348789 0.694976 -0.280245)
(-0.341949 0.677132 -0.27881)
(-0.42538 0.872833 -0.36805)
(-0.427023 0.876972 -0.374144)
(-0.419852 0.86692 -0.369274)
(-0.32288 0.637905 -0.273025)
(-0.318317 0.629096 -0.266805)
(-0.315905 0.625756 -0.263928)
(-0.360324 0.705397 -0.292908)
(-0.349431 0.692536 -0.295257)
(-0.335654 0.660101 -0.278845)
(-0.296711 0.561842 -0.242443)
(-0.272414 0.536761 -0.227666)
(-0.281562 0.549514 -0.233906)
(-0.29354 0.580104 -0.248497)
(-0.269423 0.520062 -0.217741)
(-0.249124 0.490144 -0.204779)
(-0.255718 0.502297 -0.218285)
(-0.312937 0.615108 -0.259961)
(-0.266726 0.532901 -0.226848)
(-0.300914 0.589046 -0.24977)
(-0.239812 0.464614 -0.195897)
(-0.364115 0.724728 -0.303124)
(-0.349566 0.691662 -0.279015)
(-0.274511 0.557045 -0.223228)
(-0.32095 0.658691 -0.274249)
(-0.271429 0.54423 -0.223047)
(-0.26185 0.521973 -0.209276)
(-0.257664 0.52813 -0.216958)
(-0.232688 0.461748 -0.181715)
(-0.244825 0.496114 -0.198763)
(-0.232708 0.474243 -0.191949)
(-0.24103 0.483599 -0.194038)
(-0.281362 0.565381 -0.231533)
(-0.288127 0.565585 -0.237748)
(-0.291972 0.586644 -0.245322)
(-0.286124 0.559278 -0.233618)
(-0.274055 0.555152 -0.236466)
(-0.351419 0.693164 -0.282759)
(-0.373627 0.737264 -0.299523)
(-0.354607 0.703267 -0.287965)
(-0.37298 0.746037 -0.306811)
(-0.338317 0.673254 -0.278963)
(-0.287204 0.578821 -0.23812)
(-0.371785 0.739921 -0.302373)
(-0.391688 0.781809 -0.317402)
(-0.31137 0.625419 -0.260156)
(-0.294008 0.588338 -0.246216)
(-0.386586 0.775539 -0.315552)
(-0.368868 0.713681 -0.296038)
(-0.388647 0.759015 -0.308738)
(-0.350554 0.687364 -0.280643)
(-0.492325 0.981143 -0.411017)
(-0.495774 0.984949 -0.409702)
(-0.473243 0.939804 -0.390498)
(-0.466136 0.916979 -0.381994)
(-0.509661 1.01092 -0.42187)
(-0.512969 1.02831 -0.424194)
(-0.463018 0.92041 -0.385633)
(-0.493175 0.982842 -0.407264)
(-0.467879 0.926933 -0.384356)
(-0.478059 0.952815 -0.396605)
(-0.476123 0.948864 -0.393869)
(-0.493037 0.980102 -0.405829)
(-0.489382 0.97138 -0.400568)
(-0.502788 0.994273 -0.415913)
(-0.502281 0.995005 -0.41592)
(-0.493323 0.967975 -0.400315)
(-0.503039 1.00252 -0.413752)
(-0.460147 0.90942 -0.376603)
(-0.52734 1.04942 -0.436062)
(-0.48766 0.962005 -0.400265)
(-0.391339 0.774305 -0.334736)
(-0.372756 0.73392 -0.317102)
(-0.372522 0.734722 -0.317018)
(-0.363287 0.737354 -0.318137)
(-0.408251 0.815995 -0.350301)
(-0.415238 0.81613 -0.350094)
(-0.361729 0.724877 -0.307785)
(-0.370928 0.766885 -0.325632)
(-0.400101 0.784621 -0.332818)
(-0.351344 0.697743 -0.295476)
(-0.364147 0.745967 -0.320513)
(-0.370213 0.752945 -0.323518)
(-0.36359 0.746749 -0.312334)
(-0.360311 0.729873 -0.307468)
(-0.250421 0.495889 -0.205758)
(-0.300482 0.59522 -0.247798)
(-0.302381 0.602622 -0.23977)
(-0.341095 0.676944 -0.278829)
(-0.340823 0.675563 -0.277173)
(-0.356011 0.695391 -0.281474)
(-0.302914 0.591412 -0.245355)
(-0.311966 0.613571 -0.246144)
(-0.280639 0.551098 -0.230517)
(-0.263861 0.515211 -0.216365)
(-0.345182 0.676242 -0.273556)
(-0.280184 0.545475 -0.233475)
(-0.294057 0.57778 -0.241695)
(-0.349509 0.691237 -0.282943)
(-0.326934 0.638966 -0.267512)
(-0.291466 0.574576 -0.243765)
(-0.430292 0.850167 -0.352526)
(-0.418265 0.832895 -0.340939)
(-0.33623 0.699316 -0.286652)
(-0.349754 0.679542 -0.284905)
(-0.432814 0.851521 -0.347758)
(-0.435249 0.860762 -0.354851)
(-0.308253 0.605292 -0.250819)
(-0.299266 0.623305 -0.258518)
(-0.408737 0.810269 -0.330593)
(-0.41771 0.840735 -0.339788)
(-0.36531 0.730769 -0.295972)
(-0.377006 0.7479 -0.304703)
(-0.35871 0.721169 -0.292852)
(-0.403448 0.796136 -0.328602)
(-0.37317 0.745382 -0.300955)
(-0.399707 0.798588 -0.328509)
(-0.385504 0.77634 -0.333054)
(-0.405747 0.819506 -0.351685)
(-0.411497 0.831346 -0.35642)
(-0.383105 0.771484 -0.327729)
(-0.383068 0.763166 -0.326434)
(-0.339013 0.671212 -0.288772)
(-0.369963 0.747289 -0.315769)
(-0.456833 0.919395 -0.380999)
(-0.457628 0.913629 -0.385055)
(-0.434525 0.859593 -0.355542)
(-0.442796 0.881563 -0.366562)
(-0.447093 0.891889 -0.367239)
(-0.368631 0.737329 -0.306622)
(-0.349135 0.699881 -0.289134)
(-0.390901 0.780673 -0.322327)
(-0.404097 0.8064 -0.328458)
(-0.358754 0.712695 -0.293308)
(-0.381356 0.759204 -0.318843)
(-0.436768 0.863347 -0.355237)
(-0.430994 0.849507 -0.353677)
(-0.386969 0.777751 -0.323571)
(-0.383601 0.770104 -0.315053)
(-0.425971 0.838751 -0.348374)
(-0.399212 0.804301 -0.3327)
(-0.294123 0.581097 -0.243381)
(-0.302294 0.590298 -0.247651)
(-0.348705 0.683449 -0.291972)
(-0.341034 0.673468 -0.2871)
(-0.299822 0.604375 -0.258121)
(-0.273486 0.546996 -0.232108)
(-0.251573 0.504643 -0.205335)
(-0.348997 0.682706 -0.290353)
(-0.322651 0.634904 -0.275521)
(-0.277278 0.552628 -0.233208)
(-0.259317 0.522009 -0.21825)
(-0.271151 0.547128 -0.233625)
(-0.296109 0.583267 -0.249068)
(-0.335962 0.65892 -0.283684)
(-0.327597 0.646119 -0.276259)
(-0.282073 0.560849 -0.24126)
(-0.333947 0.656209 -0.278028)
(-0.289455 0.571258 -0.244407)
(-0.288113 0.574244 -0.247405)
(-0.275173 0.540637 -0.221368)
(-0.254659 0.506576 -0.207608)
(-0.267832 0.543212 -0.221283)
(-0.25341 0.511381 -0.209481)
(-0.27448 0.54979 -0.214347)
(-0.279533 0.558514 -0.224582)
(-0.299346 0.582189 -0.229253)
(-0.264763 0.530418 -0.218248)
(-0.288251 0.59641 -0.241067)
(-0.280212 0.556661 -0.226989)
(-0.328213 0.644332 -0.264242)
(-0.343165 0.673258 -0.274239)
(-0.29434 0.589214 -0.225348)
(-0.246392 0.496762 -0.194176)
(-0.340475 0.678241 -0.272538)
(-0.341534 0.676497 -0.273032)
(-0.326868 0.645565 -0.26429)
(-0.321641 0.644211 -0.258848)
(-0.359158 0.729603 -0.305513)
(-0.381658 0.774304 -0.323427)
(-0.341851 0.694125 -0.29572)
(-0.328022 0.659338 -0.28745)
(-0.373391 0.755849 -0.314676)
(-0.386184 0.790372 -0.33001)
(-0.345604 0.686743 -0.301568)
(-0.3362 0.669855 -0.28352)
(-0.332252 0.661582 -0.281815)
(-0.312086 0.632349 -0.276609)
(-0.347394 0.691185 -0.286316)
(-0.397378 0.774512 -0.329154)
(-0.412823 0.806201 -0.338661)
(-0.398144 0.775454 -0.336348)
(-0.404819 0.784637 -0.335425)
(-0.390563 0.777889 -0.328672)
(-0.406631 0.797683 -0.338216)
(-0.348079 0.684115 -0.286945)
(-0.339835 0.664748 -0.28447)
(-0.34931 0.690752 -0.293791)
(-0.369409 0.720712 -0.306136)
(-0.362504 0.715809 -0.304922)
(-0.396325 0.782877 -0.335499)
(-0.379213 0.758198 -0.320546)
(-0.362006 0.722842 -0.308875)
(-0.384314 0.763629 -0.324349)
(-0.395225 0.810174 -0.339718)
(-0.449415 0.908543 -0.382141)
(-0.43205 0.862609 -0.363219)
(-0.369834 0.738415 -0.312524)
(-0.411916 0.832489 -0.346423)
(-0.450628 0.906584 -0.379104)
(-0.401003 0.799657 -0.337695)
(-0.413079 0.822304 -0.347015)
(-0.426878 0.858782 -0.362521)
(-0.44124 0.892477 -0.372578)
(-0.369356 0.756993 -0.321202)
(-0.365001 0.742038 -0.315954)
(-0.357511 0.730861 -0.314789)
(-0.360692 0.738624 -0.315266)
(-0.369879 0.737657 -0.310602)
(-0.364976 0.728527 -0.31228)
(-0.344297 0.685944 -0.294061)
(-0.411104 0.8288 -0.350057)
(-0.404935 0.817196 -0.344392)
(-0.339411 0.677529 -0.291541)
(-0.417083 0.840103 -0.354563)
(-0.408552 0.820197 -0.350442)
(-0.404976 0.820163 -0.343458)
(-0.392399 0.786372 -0.338578)
(-0.392714 0.780803 -0.330761)
(-0.378085 0.765152 -0.32539)
(-0.38838 0.782662 -0.330945)
(-0.373665 0.743497 -0.315871)
(-0.3669 0.733968 -0.307012)
(-0.394665 0.790955 -0.333864)
(-0.381591 0.779527 -0.323038)
(-0.357202 0.712323 -0.305391)
(-0.408418 0.818037 -0.345218)
(-0.387034 0.777727 -0.320779)
(-0.327892 0.649437 -0.265388)
(-0.313191 0.629475 -0.255242)
(-0.398152 0.801794 -0.335735)
(-0.37354 0.747475 -0.316252)
(-0.34764 0.69397 -0.293123)
(-0.374952 0.771517 -0.322787)
(-0.321754 0.647219 -0.268411)
(-0.394883 0.783142 -0.328606)
(-0.381053 0.765921 -0.315252)
(-0.252416 0.506438 -0.221011)
(-0.311719 0.611903 -0.255603)
(-0.264931 0.537572 -0.225492)
(-0.296069 0.603518 -0.254248)
(-0.27837 0.548241 -0.235315)
(-0.257317 0.508739 -0.211973)
(-0.250855 0.492399 -0.209075)
(-0.226607 0.457483 -0.199001)
(-0.256654 0.511907 -0.21595)
(-0.280028 0.565336 -0.233811)
(-0.26048 0.518199 -0.220109)
(-0.347612 0.704338 -0.300485)
(-0.336602 0.681278 -0.293302)
(-0.225085 0.454059 -0.193347)
(-0.313949 0.629363 -0.263479)
(-0.26815 0.533743 -0.228113)
(-0.339397 0.693694 -0.298888)
(-0.336951 0.68114 -0.288095)
(-0.24617 0.508308 -0.217584)
(-0.291596 0.58451 -0.24836)
(-0.338579 0.670354 -0.275867)
(-0.352244 0.693487 -0.285876)
(-0.332877 0.6572 -0.267089)
(-0.353825 0.676685 -0.28101)
(-0.348564 0.67863 -0.280867)
(-0.34851 0.680679 -0.281651)
(-0.346217 0.673593 -0.280041)
(-0.271525 0.536516 -0.219234)
(-0.28004 0.564773 -0.232967)
(-0.267401 0.530786 -0.217471)
(-0.290172 0.573924 -0.234876)
(-0.260574 0.513732 -0.212525)
(-0.23516 0.457424 -0.190638)
(-0.261412 0.507105 -0.210286)
(-0.241715 0.484832 -0.203445)
(-0.285642 0.570264 -0.234258)
(-0.247785 0.489106 -0.201684)
(-0.402261 0.800325 -0.346437)
(-0.386913 0.787771 -0.33251)
(-0.384343 0.773023 -0.333271)
(-0.345839 0.691272 -0.297619)
(-0.297091 0.597284 -0.26859)
(-0.390095 0.795072 -0.341106)
(-0.353457 0.715729 -0.301798)
(-0.363175 0.738355 -0.316317)
(-0.303387 0.596106 -0.258224)
(-0.288662 0.567713 -0.237454)
(-0.36165 0.734896 -0.323499)
(-0.323572 0.659347 -0.283446)
(-0.338123 0.665157 -0.28603)
(-0.304503 0.623874 -0.264762)
(-0.29435 0.587378 -0.255198)
(-0.274887 0.562028 -0.236356)
(-0.252243 0.512328 -0.213881)
(-0.241384 0.477685 -0.200373)
(-0.279679 0.557704 -0.235344)
(-0.261621 0.516908 -0.217586)
(-0.338272 0.673362 -0.275814)
(-0.307869 0.632889 -0.263809)
(-0.358861 0.715467 -0.293998)
(-0.326477 0.659079 -0.274367)
(-0.238244 0.479154 -0.204906)
(-0.349013 0.697896 -0.297656)
(-0.287849 0.564473 -0.243302)
(-0.264899 0.535949 -0.231802)
(-0.446208 0.899546 -0.378242)
(-0.406106 0.818249 -0.343309)
(-0.476083 0.927102 -0.385367)
(-0.426181 0.857335 -0.359608)
(-0.455547 0.912671 -0.379432)
(-0.448837 0.905971 -0.377846)
(-0.462563 0.925511 -0.38277)
(-0.477064 0.955996 -0.393083)
(-0.431704 0.880721 -0.360293)
(-0.462571 0.929485 -0.385059)
(-0.408768 0.824111 -0.340082)
(-0.436725 0.869261 -0.362162)
(-0.388503 0.79105 -0.32334)
(-0.424936 0.866906 -0.357018)
(-0.409883 0.831457 -0.343855)
(-0.472721 0.955573 -0.394166)
(-0.477413 0.951176 -0.388833)
(-0.442299 0.89171 -0.370034)
(-0.477336 0.952235 -0.39025)
(-0.377422 0.750695 -0.31034)
(-0.382678 0.774756 -0.321194)
(-0.439475 0.874797 -0.363039)
(-0.433379 0.850418 -0.349396)
(-0.35013 0.714856 -0.302444)
(-0.352464 0.699607 -0.295711)
(-0.442357 0.88446 -0.371133)
(-0.453747 0.905574 -0.374319)
(-0.465904 0.943349 -0.392437)
(-0.370823 0.740175 -0.308499)
(-0.358533 0.730778 -0.309342)
(-0.373615 0.763277 -0.326444)
(-0.36665 0.738991 -0.315343)
(-0.351823 0.706011 -0.30143)
(-0.393655 0.785125 -0.328972)
(-0.427945 0.859646 -0.355817)
(-0.402132 0.797195 -0.334924)
(-0.374347 0.746995 -0.315721)
(-0.426138 0.839558 -0.343623)
(-0.450714 0.920138 -0.374584)
(-0.432244 0.862523 -0.352732)
(-0.463933 0.93326 -0.384618)
(-0.445788 0.903938 -0.36707)
(-0.449671 0.8955 -0.366959)
(-0.42983 0.863958 -0.353726)
(-0.452083 0.91471 -0.370721)
(-0.44634 0.887197 -0.37174)
(-0.415328 0.82822 -0.33501)
(-0.465949 0.927284 -0.381533)
(-0.436404 0.868117 -0.352718)
(-0.46303 0.919989 -0.377414)
(-0.433703 0.874569 -0.358295)
(-0.437732 0.872197 -0.361202)
(-0.425855 0.845671 -0.34667)
(-0.467686 0.928901 -0.38282)
(-0.448711 0.902537 -0.37032)
(-0.469993 0.936873 -0.3848)
(-0.403656 0.797765 -0.333881)
(-0.373358 0.736728 -0.307517)
(-0.388276 0.758746 -0.321899)
(-0.391671 0.768443 -0.316093)
(-0.39675 0.782608 -0.325624)
(-0.398139 0.774738 -0.321381)
(-0.397981 0.785533 -0.328035)
(-0.388557 0.76665 -0.322595)
(-0.419022 0.829646 -0.344874)
(-0.347473 0.672012 -0.292793)
(-0.357045 0.707475 -0.29117)
(-0.359569 0.724024 -0.299496)
(-0.415012 0.816422 -0.341579)
(-0.417 0.813217 -0.342951)
(-0.324302 0.651977 -0.279668)
(-0.358623 0.70712 -0.296467)
(-0.320915 0.634961 -0.273034)
(-0.397143 0.777495 -0.331001)
(-0.411436 0.809042 -0.339627)
(-0.386459 0.760838 -0.312842)
(-0.44909 0.880815 -0.365974)
(-0.410893 0.815292 -0.336298)
(-0.470604 0.921499 -0.375997)
(-0.487455 0.950567 -0.393312)
(-0.475762 0.933993 -0.385687)
(-0.467747 0.921303 -0.377247)
(-0.487261 0.954251 -0.395271)
(-0.505369 0.999017 -0.413651)
(-0.431254 0.852683 -0.34694)
(-0.423581 0.831346 -0.346265)
(-0.450039 0.882428 -0.36435)
(-0.444491 0.869801 -0.359958)
(-0.454178 0.893217 -0.366884)
(-0.438714 0.851982 -0.350379)
(-0.447232 0.883044 -0.361721)
(-0.463117 0.911047 -0.371911)
(-0.484858 0.955203 -0.389377)
(-0.49277 0.968722 -0.400901)
(-0.481003 0.946937 -0.390185)
(-0.425075 0.837081 -0.347283)
(-0.472528 0.92716 -0.377068)
(-0.431735 0.851047 -0.351841)
(-0.357007 0.701154 -0.300467)
(-0.383374 0.780025 -0.328103)
(-0.320307 0.647167 -0.266187)
(-0.377359 0.769266 -0.327432)
(-0.389318 0.782247 -0.323518)
(-0.352389 0.709279 -0.295193)
(-0.419387 0.85259 -0.353856)
(-0.418898 0.8346 -0.349104)
(-0.37928 0.76481 -0.31786)
(-0.344334 0.705798 -0.289037)
(-0.369869 0.732822 -0.307314)
(-0.421744 0.838653 -0.342051)
(-0.431725 0.86087 -0.355152)
(-0.409855 0.832648 -0.335029)
(-0.395017 0.787188 -0.324812)
(-0.417198 0.830819 -0.342608)
(-0.36385 0.717086 -0.293547)
(-0.360107 0.711458 -0.295925)
(-0.381148 0.75464 -0.311725)
(-0.38467 0.777188 -0.31449)
(-0.406455 0.810019 -0.335526)
(-0.385642 0.766923 -0.317568)
(-0.360958 0.725656 -0.297889)
(-0.367229 0.740594 -0.307975)
(-0.379116 0.756043 -0.307139)
(-0.361492 0.723509 -0.297394)
(-0.432683 0.852733 -0.346478)
(-0.427901 0.832255 -0.338824)
(-0.435829 0.854101 -0.35226)
(-0.457431 0.901009 -0.369853)
(-0.426398 0.851093 -0.349182)
(-0.412755 0.820559 -0.3397)
(-0.458679 0.896448 -0.367696)
(-0.463165 0.903833 -0.372827)
(-0.458464 0.905572 -0.372459)
(-0.424617 0.831484 -0.338034)
(-0.468663 0.92394 -0.379491)
(-0.416044 0.814809 -0.32933)
(-0.472248 0.932798 -0.385793)
(-0.45672 0.894044 -0.360397)
(-0.478738 0.950565 -0.38526)
(-0.487201 0.95635 -0.391735)
(-0.486722 0.948647 -0.389625)
(-0.409194 0.820091 -0.335623)
(-0.317159 0.664073 -0.273793)
(-0.289517 0.579893 -0.238409)
(-0.340232 0.704458 -0.285064)
(-0.346405 0.713059 -0.292402)
(-0.334828 0.693128 -0.280861)
(-0.33201 0.679055 -0.277091)
(-0.276934 0.558324 -0.228367)
(-0.267609 0.544897 -0.226998)
(-0.344826 0.716444 -0.287062)
(-0.341874 0.693861 -0.278232)
(-0.293295 0.597306 -0.246674)
(-0.267453 0.552826 -0.22958)
(-0.280148 0.578294 -0.238157)
(-0.25688 0.51746 -0.213132)
(-0.322193 0.67217 -0.275496)
(-0.288878 0.586515 -0.242254)
(-0.270664 0.550228 -0.223057)
(-0.242829 0.505463 -0.212467)
(-0.386714 0.783846 -0.334876)
(-0.380754 0.778738 -0.325401)
(-0.390386 0.794651 -0.328966)
(-0.362886 0.75388 -0.314846)
(-0.410903 0.834013 -0.349741)
(-0.425255 0.863124 -0.36015)
(-0.320757 0.638169 -0.266529)
(-0.300432 0.615916 -0.254116)
(-0.280021 0.596623 -0.239752)
(-0.291355 0.584479 -0.239892)
(-0.408508 0.839652 -0.355606)
(-0.35801 0.741714 -0.313789)
(-0.34001 0.695294 -0.289627)
(-0.297048 0.616188 -0.252817)
(-0.352843 0.714758 -0.298049)
(-0.313765 0.640504 -0.268906)
(-0.323575 0.64567 -0.275706)
(-0.358167 0.712602 -0.312739)
(-0.348913 0.715296 -0.304752)
(-0.334213 0.672906 -0.289299)
(-0.32612 0.6491 -0.27808)
(-0.294432 0.590319 -0.25085)
(-0.282903 0.571513 -0.236893)
(-0.388331 0.780202 -0.336635)
(-0.354106 0.722594 -0.3131)
(-0.372301 0.742372 -0.322731)
(-0.424947 0.848066 -0.360123)
(-0.290285 0.584096 -0.245314)
(-0.402679 0.806582 -0.344393)
(-0.358735 0.747899 -0.321914)
(-0.395755 0.79631 -0.338029)
(-0.372145 0.735674 -0.32488)
(-0.325749 0.653963 -0.281818)
(-0.309149 0.626505 -0.267721)
(-0.411184 0.827867 -0.353207)
(-0.370701 0.737178 -0.312417)
(-0.426157 0.85391 -0.352075)
(-0.457365 0.920112 -0.383097)
(-0.437427 0.857237 -0.355216)
(-0.46106 0.926046 -0.385773)
(-0.467532 0.92819 -0.389705)
(-0.420788 0.838488 -0.342317)
(-0.477476 0.949707 -0.391058)
(-0.482467 0.972344 -0.405079)
(-0.442398 0.897926 -0.375644)
(-0.44007 0.878062 -0.368293)
(-0.483579 0.962982 -0.400895)
(-0.44671 0.884764 -0.365791)
(-0.422278 0.842224 -0.351406)
(-0.381934 0.777894 -0.315108)
(-0.356006 0.725473 -0.293619)
(-0.347414 0.714151 -0.28862)
(-0.363337 0.734584 -0.296705)
(-0.350911 0.710343 -0.28658)
(-0.317423 0.649469 -0.25991)
(-0.354871 0.716811 -0.291656)
(-0.322354 0.657901 -0.265503)
(-0.419904 0.828292 -0.340239)
(-0.389071 0.754766 -0.310947)
(-0.376703 0.735755 -0.307526)
(-0.400313 0.790032 -0.319656)
(-0.41158 0.817165 -0.334302)
(-0.403851 0.809471 -0.329912)
(-0.380563 0.752268 -0.303073)
(-0.431684 0.855545 -0.346869)
(-0.414344 0.810911 -0.338181)
(-0.37966 0.742632 -0.307606)
(-0.383489 0.750815 -0.3084)
(-0.342228 0.703803 -0.282681)
(-0.352216 0.716784 -0.282415)
(-0.349009 0.707605 -0.280999)
(-0.286921 0.579354 -0.23514)
(-0.321289 0.653991 -0.265651)
(-0.31886 0.64194 -0.261735)
(-0.28379 0.587881 -0.228778)
(-0.351205 0.701552 -0.284283)
(-0.353503 0.714233 -0.290423)
(-0.300124 0.595706 -0.244035)
(-0.273004 0.549579 -0.221435)
(-0.288824 0.579123 -0.23922)
(-0.331053 0.686275 -0.274597)
(-0.334572 0.678264 -0.271734)
(-0.261794 0.536379 -0.217849)
(-0.276985 0.564275 -0.222961)
(-0.259138 0.53548 -0.21521)
(-0.282385 0.57363 -0.225016)
(-0.265656 0.531786 -0.210668)
(-0.243531 0.483659 -0.188593)
(-0.282285 0.585437 -0.236726)
(-0.318902 0.645297 -0.26033)
(-0.27551 0.55714 -0.222074)
(-0.249067 0.504723 -0.20077)
(-0.259771 0.537302 -0.215311)
(-0.261614 0.530728 -0.213347)
(-0.414627 0.830116 -0.336624)
(-0.429607 0.851633 -0.350687)
(-0.374951 0.745984 -0.303123)
(-0.364681 0.716997 -0.296907)
(-0.384578 0.756225 -0.306716)
(-0.421385 0.837779 -0.34106)
(-0.306702 0.607743 -0.256926)
(-0.339922 0.677312 -0.278114)
(-0.365554 0.729476 -0.304954)
(-0.33133 0.651705 -0.268326)
(-0.359339 0.708792 -0.282319)
(-0.382144 0.762129 -0.304948)
(-0.430264 0.843784 -0.346542)
(-0.437465 0.873665 -0.36068)
(-0.320375 0.639596 -0.263336)
(-0.323642 0.64458 -0.266713)
(-0.31235 0.616048 -0.257364)
(-0.4 0.783097 -0.316349)
(-0.390795 0.789273 -0.324199)
(-0.40271 0.796523 -0.327799)
(-0.364501 0.73019 -0.303133)
(-0.382799 0.767194 -0.306397)
(-0.366763 0.71685 -0.28834)
(-0.382107 0.749855 -0.302826)
(-0.432183 0.859758 -0.368279)
(-0.399191 0.795173 -0.336138)
(-0.404891 0.78567 -0.333545)
(-0.395052 0.776726 -0.330253)
(-0.388466 0.773652 -0.332859)
(-0.451521 0.888888 -0.379134)
(-0.455479 0.892296 -0.379303)
(-0.438505 0.8688 -0.365182)
(-0.430895 0.856716 -0.363043)
(-0.427968 0.827116 -0.344577)
(-0.410874 0.808358 -0.345932)
(-0.406931 0.802777 -0.341054)
(-0.399639 0.787851 -0.336937)
(-0.431248 0.853068 -0.362339)
(-0.416743 0.819236 -0.346871)
(-0.253034 0.499789 -0.211766)
(-0.211245 0.440835 -0.182085)
(-0.239949 0.493901 -0.201946)
(-0.278331 0.552338 -0.230087)
(-0.340265 0.671369 -0.276897)
(-0.325802 0.642759 -0.267811)
(-0.271604 0.540723 -0.22176)
(-0.264603 0.539027 -0.212114)
(-0.294747 0.587586 -0.247396)
(-0.353916 0.700244 -0.292483)
(-0.353391 0.711327 -0.296494)
(-0.258993 0.538083 -0.223088)
(-0.214605 0.44944 -0.179965)
(-0.297221 0.600054 -0.245633)
(-0.244459 0.511211 -0.206757)
(-0.499112 0.985983 -0.408045)
(-0.487711 0.958619 -0.400879)
(-0.488911 0.966898 -0.402702)
(-0.490543 0.970765 -0.401424)
(-0.430163 0.858691 -0.359347)
(-0.444528 0.889772 -0.374667)
(-0.4925 0.970547 -0.402336)
(-0.482841 0.952667 -0.399114)
(-0.443015 0.889694 -0.36855)
(-0.446409 0.88342 -0.367693)
(-0.469285 0.921627 -0.378794)
(-0.451329 0.895162 -0.366965)
(-0.416188 0.826676 -0.342242)
(-0.429397 0.849605 -0.354838)
(-0.466007 0.927601 -0.379719)
(-0.417164 0.830555 -0.344952)
(-0.429641 0.851058 -0.352543)
(-0.430738 0.849861 -0.350246)
(-0.358016 0.721592 -0.285438)
(-0.336683 0.694581 -0.276266)
(-0.394525 0.804591 -0.330692)
(-0.386779 0.795078 -0.323701)
(-0.403564 0.821565 -0.333004)
(-0.397382 0.815439 -0.325076)
(-0.364126 0.720533 -0.293389)
(-0.328187 0.668816 -0.272765)
(-0.355552 0.727139 -0.290457)
(-0.421052 0.856529 -0.342774)
(-0.396793 0.798726 -0.326404)
(-0.396403 0.798077 -0.327137)
(-0.342517 0.686818 -0.270265)
(-0.365881 0.73793 -0.299547)
(-0.278679 0.561467 -0.228179)
(-0.243052 0.50461 -0.207258)
(-0.283052 0.581184 -0.241643)
(-0.277483 0.552176 -0.228979)
(-0.295514 0.589377 -0.241577)
(-0.266841 0.53075 -0.2196)
(-0.269752 0.541887 -0.222863)
(-0.344538 0.687159 -0.281284)
(-0.28412 0.561244 -0.234221)
(-0.345859 0.696833 -0.291463)
(-0.34271 0.662342 -0.276918)
(-0.286266 0.563918 -0.229981)
(-0.334383 0.669224 -0.285209)
(-0.400156 0.801507 -0.331255)
(-0.405042 0.811192 -0.32869)
(-0.370119 0.729368 -0.304957)
(-0.347512 0.688485 -0.287166)
(-0.337238 0.669416 -0.288084)
(-0.385054 0.773224 -0.322808)
(-0.396789 0.784287 -0.324483)
(-0.348969 0.687478 -0.291088)
(-0.287286 0.590931 -0.245088)
(-0.277581 0.56465 -0.227871)
(-0.331247 0.676974 -0.276298)
(-0.354374 0.714655 -0.297914)
(-0.278002 0.569019 -0.232696)
(-0.262028 0.535721 -0.236988)
(-0.281357 0.561179 -0.235289)
(-0.369318 0.734933 -0.308035)
(-0.366687 0.744624 -0.304619)
(-0.403803 0.812713 -0.325132)
(-0.28877 0.591864 -0.242992)
(-0.275276 0.582522 -0.223983)
(-0.294608 0.600115 -0.253492)
(-0.330926 0.67559 -0.289732)
(-0.315682 0.648312 -0.257102)
(-0.303877 0.627876 -0.255825)
(-0.376333 0.761044 -0.311992)
(-0.392882 0.793579 -0.327752)
(-0.401742 0.804548 -0.338519)
(-0.428315 0.851304 -0.356865)
(-0.452364 0.904141 -0.37691)
(-0.428119 0.864625 -0.367368)
(-0.457139 0.91446 -0.376918)
(-0.380724 0.769488 -0.321461)
(-0.334613 0.656775 -0.273312)
(-0.437664 0.883299 -0.372548)
(-0.454969 0.916927 -0.382316)
(-0.376751 0.75816 -0.313048)
(-0.391708 0.778557 -0.323248)
(-0.445012 0.897318 -0.377729)
(-0.387116 0.772511 -0.326115)
(-0.390896 0.771842 -0.322687)
(-0.365074 0.736118 -0.306721)
(-0.351893 0.707569 -0.294732)
(-0.402761 0.811098 -0.338226)
(-0.342031 0.681912 -0.289569)
(-0.347736 0.707345 -0.29817)
(-0.370092 0.736857 -0.299502)
(-0.302697 0.611677 -0.255206)
(-0.281675 0.561027 -0.230001)
(-0.356714 0.713196 -0.294909)
(-0.358521 0.719659 -0.289544)
(-0.271119 0.533259 -0.217194)
(-0.265213 0.503603 -0.209989)
(-0.294555 0.588049 -0.23866)
(-0.362851 0.710783 -0.292044)
(-0.366869 0.724434 -0.291157)
(-0.301606 0.596424 -0.248088)
(-0.29624 0.582992 -0.242958)
(-0.296294 0.587595 -0.240972)
(-0.259327 0.529367 -0.21487)
(-0.317361 0.635477 -0.26007)
(-0.285432 0.569648 -0.23617)
(-0.281 0.552691 -0.226492)
(-0.419918 0.862299 -0.359573)
(-0.378859 0.766644 -0.321482)
(-0.432582 0.89055 -0.371768)
(-0.40748 0.849265 -0.351267)
(-0.40115 0.840592 -0.350112)
(-0.349401 0.713517 -0.301831)
(-0.375378 0.75582 -0.320464)
(-0.421803 0.874158 -0.367098)
(-0.395477 0.826175 -0.342381)
(-0.395346 0.822576 -0.33913)
(-0.352891 0.711925 -0.303736)
(-0.341722 0.695238 -0.294961)
(-0.38456 0.788753 -0.326913)
(-0.377219 0.7879 -0.332565)
(-0.37864 0.765606 -0.318167)
(-0.350325 0.699476 -0.291429)
(-0.358327 0.744507 -0.309481)
(-0.401482 0.833183 -0.345609)
(-0.436524 0.870328 -0.369458)
(-0.407346 0.810348 -0.352444)
(-0.4435 0.887661 -0.381684)
(-0.429447 0.865934 -0.375422)
(-0.444784 0.887408 -0.380123)
(-0.428687 0.855169 -0.367635)
(-0.42571 0.848583 -0.363931)
(-0.413422 0.830583 -0.361693)
(-0.427215 0.857866 -0.369991)
(-0.433046 0.862138 -0.370235)
(-0.413417 0.828756 -0.358943)
(-0.388304 0.766485 -0.324702)
(-0.388101 0.777833 -0.329761)
(-0.413637 0.820998 -0.359428)
(-0.472534 0.939335 -0.397429)
(-0.468458 0.93188 -0.396863)
(-0.469523 0.922596 -0.385958)
(-0.454801 0.896732 -0.377337)
(-0.405178 0.790468 -0.338191)
(-0.40768 0.81247 -0.344985)
(-0.400397 0.751782 -0.322526)
(-0.398808 0.774504 -0.323184)
(-0.400623 0.792708 -0.32405)
(-0.437837 0.869154 -0.35933)
(-0.419257 0.833004 -0.356096)
(-0.464166 0.928252 -0.395384)
(-0.46502 0.908531 -0.385549)
(-0.417113 0.81082 -0.35123)
(-0.437024 0.864409 -0.369595)
(-0.446511 0.880179 -0.375323)
(-0.432532 0.845781 -0.358496)
(-0.421281 0.832142 -0.359039)
(-0.321105 0.671983 -0.272875)
(-0.343143 0.70717 -0.286868)
(-0.326666 0.680385 -0.279618)
(-0.301361 0.631995 -0.262991)
(-0.346121 0.722455 -0.298822)
(-0.381173 0.779191 -0.321905)
(-0.405645 0.831156 -0.341988)
(-0.385939 0.774379 -0.326244)
(-0.400703 0.822655 -0.343342)
(-0.310154 0.638642 -0.261787)
(-0.315265 0.654187 -0.277649)
(-0.39002 0.797192 -0.325445)
(-0.34369 0.713498 -0.305779)
(-0.336559 0.69911 -0.291625)
(-0.329546 0.670487 -0.276511)
(-0.336645 0.703481 -0.286904)
(-0.306859 0.652149 -0.266429)
(-0.271391 0.552175 -0.227535)
(-0.311085 0.63605 -0.257323)
(-0.278551 0.567272 -0.230226)
(-0.252111 0.516567 -0.217205)
(-0.275493 0.568617 -0.234904)
(-0.251522 0.511896 -0.215087)
(-0.299865 0.628209 -0.25685)
(-0.258922 0.529361 -0.219807)
(-0.226917 0.462445 -0.200228)
(-0.249281 0.521374 -0.219478)
(-0.219777 0.46264 -0.19161)
(-0.271779 0.553829 -0.23068)
(-0.305606 0.634278 -0.253401)
(-0.233431 0.488183 -0.202942)
(-0.318518 0.644201 -0.268978)
(-0.350245 0.707178 -0.288478)
(-0.263648 0.54321 -0.226521)
(-0.240676 0.497007 -0.204314)
(-0.345444 0.695773 -0.288115)
(-0.335873 0.680551 -0.284704)
(-0.270988 0.55349 -0.226619)
(-0.401694 0.807261 -0.328436)
(-0.3175 0.601031 -0.263472)
(-0.372418 0.733892 -0.304564)
(-0.347207 0.691162 -0.29068)
(-0.353771 0.701769 -0.289891)
(-0.379806 0.748202 -0.312068)
(-0.3544 0.700234 -0.28393)
(-0.299117 0.601396 -0.243423)
(-0.309622 0.599414 -0.250908)
(-0.314256 0.621281 -0.253415)
(-0.276735 0.556382 -0.224525)
(-0.346667 0.682912 -0.285161)
(-0.301234 0.597587 -0.246594)
(-0.284206 0.565233 -0.228141)
(-0.299318 0.589519 -0.24306)
(-0.258107 0.513721 -0.216847)
(-0.309221 0.595424 -0.243372)
(-0.316639 0.628629 -0.265003)
(-0.288534 0.555977 -0.231362)
(-0.266494 0.526515 -0.217645)
(-0.354581 0.704549 -0.29443)
(-0.383801 0.762794 -0.309712)
(-0.376636 0.738229 -0.295762)
(-0.369835 0.72906 -0.295474)
(-0.270329 0.517319 -0.217833)
(-0.261292 0.533992 -0.222622)
(-0.252295 0.495033 -0.200765)
(-0.365451 0.712814 -0.292521)
(-0.353469 0.677903 -0.286805)
(-0.279889 0.547318 -0.225437)
(-0.259767 0.497195 -0.208707)
(-0.297451 0.586618 -0.244608)
(-0.240155 0.467837 -0.194427)
(-0.269117 0.522099 -0.220094)
(-0.258834 0.513376 -0.209227)
(-0.296828 0.585458 -0.239887)
(-0.377593 0.771391 -0.311346)
(-0.358797 0.731136 -0.302749)
(-0.38745 0.782941 -0.31646)
(-0.390577 0.800389 -0.325807)
(-0.321598 0.664528 -0.275528)
(-0.292528 0.623357 -0.247393)
(-0.312978 0.663354 -0.266516)
(-0.365595 0.751784 -0.310443)
(-0.362843 0.736776 -0.305093)
(-0.365633 0.750476 -0.310562)
(-0.407003 0.835954 -0.344832)
(-0.409998 0.831548 -0.343891)
(-0.310791 0.642172 -0.262086)
(-0.329769 0.693438 -0.283331)
(-0.317294 0.653127 -0.268314)
(-0.299289 0.612873 -0.254124)
(-0.41223 0.830629 -0.35193)
(-0.399842 0.809378 -0.344043)
(-0.402156 0.816267 -0.341983)
(-0.371717 0.754636 -0.322948)
(-0.372107 0.756863 -0.318718)
(-0.405225 0.818336 -0.343936)
(-0.412405 0.835829 -0.35283)
(-0.359957 0.728443 -0.312027)
(-0.379127 0.764944 -0.322713)
(-0.370508 0.745748 -0.317733)
(-0.398208 0.803675 -0.334684)
(-0.338249 0.672593 -0.282376)
(-0.34166 0.686409 -0.288605)
(-0.381823 0.765435 -0.32243)
(-0.355282 0.705627 -0.310738)
(-0.351668 0.691005 -0.286786)
(-0.340695 0.679723 -0.277883)
(-0.314955 0.62143 -0.256099)
(-0.306611 0.628136 -0.266401)
(-0.276219 0.555564 -0.23176)
(-0.338232 0.665412 -0.276415)
(-0.326909 0.654194 -0.265029)
(-0.255704 0.499103 -0.217354)
(-0.2723 0.534423 -0.228458)
(-0.335427 0.676765 -0.28418)
(-0.246646 0.489412 -0.204061)
(-0.230955 0.457694 -0.198826)
(-0.262049 0.53319 -0.226247)
(-0.24458 0.490906 -0.212546)
(-0.218356 0.452022 -0.196224)
(-0.271034 0.537229 -0.231322)
(-0.262315 0.52074 -0.218836)
(-0.224573 0.456768 -0.192052)
(-0.34143 0.671467 -0.273635)
(-0.345328 0.674422 -0.28002)
(-0.338269 0.682595 -0.283324)
(-0.278278 0.555659 -0.232941)
(-0.266452 0.538689 -0.228887)
(-0.241451 0.480641 -0.203386)
(-0.28088 0.572606 -0.231433)
(-0.340935 0.68086 -0.27839)
(-0.351361 0.684742 -0.286482)
(-0.252487 0.498941 -0.208267)
(-0.279937 0.563451 -0.234127)
(-0.262871 0.515578 -0.210821)
(-0.2487 0.512668 -0.212219)
(-0.258863 0.529692 -0.217044)
(-0.284866 0.558385 -0.23455)
(-0.250518 0.496763 -0.202003)
(-0.255295 0.504246 -0.215484)
(-0.274589 0.54985 -0.224549)
(-0.247202 0.510125 -0.207037)
(-0.254902 0.498025 -0.20134)