/*--------------------------------*- C++ -*----------------------------------*\
| =========                 |                                                 |
| \\      /  F ield         | OpenFOAM: The Open Source CFD Toolbox           |
|  \\    /   O peration     | Version:  v1612+                                |
|   \\  /    A nd           | Web:      www.OpenFOAM.com                      |
|    \\/     M anipulation  |                                                 |
\*---------------------------------------------------------------------------*/
FoamFile
{
    version     2.0;
    format      ascii;
    class       surfaceScalarField;
    location    "50";
    object      phi;
}
// * * * * * * * * * * * * * * * * * * * * * * * * * * * * * * * * * * * * * //

dimensions      [0 3 -1 0 0 0 0];

internalField   nonuniform List<scalar> 
41606
(
9.38304e-09
8.84714e-09
-8.37832e-09
-9.8518e-09
4.73993e-09
-4.33195e-09
-9.01512e-09
8.60711e-09
-2.34615e-09
-1.79791e-09
8.88622e-09
-4.7421e-09
4.07085e-09
-4.79927e-09
-1.6177e-09
8.23333e-09
-6.7367e-09
-3.29452e-09
-2.50119e-10
4.5847e-09
-2.63682e-10
3.49432e-09
-3.50558e-09
-2.38821e-10
-5.76322e-09
5.19284e-09
9.45664e-09
1.47904e-09
9.91079e-10
2.49921e-09
1.92263e-10
-2.30766e-09
-3.83837e-10
-4.50945e-09
5.30137e-10
4.40065e-09
-4.21362e-10
-1.30475e-09
1.10823e-08
-2.50065e-09
5.01744e-09
-3.82155e-09
-2.65087e-10
-2.86369e-09
1.03132e-08
-8.30299e-09
8.53296e-10
-7.84003e-09
-2.20044e-09
7.17668e-09
6.12394e-09
2.78603e-09
1.40313e-09
3.13284e-09
7.09593e-09
-4.10492e-09
-7.1387e-09
5.48623e-09
-6.65057e-09
-1.1476e-09
-1.01186e-08
4.12731e-09
5.62912e-09
-6.12325e-09
3.28015e-09
-2.86639e-10
9.04855e-09
-3.59285e-09
8.45088e-09
-5.14468e-09
-3.39657e-10
-2.97367e-10
4.1663e-09
2.23645e-09
-7.55055e-09
5.79074e-09
2.84833e-09
-3.73802e-09
-4.90115e-09
-2.46812e-09
-2.86241e-09
1.73754e-09
-5.34405e-09
3.37242e-09
-4.96673e-10
2.14909e-09
7.79042e-10
-5.18921e-09
2.11307e-10
4.63825e-09
1.98799e-09
-3.01098e-09
-5.07734e-10
7.44661e-09
-1.27835e-08
-9.62109e-09
1.49579e-08
-1.37926e-08
2.29306e-09
4.45179e-09
7.04753e-09
-1.1002e-09
-5.24579e-09
2.74362e-09
-5.19365e-09
-5.79677e-09
8.24693e-09
-4.40315e-09
-2.6804e-09
9.82722e-09
-1.13949e-08
8.49431e-09
-4.39967e-09
-8.09546e-09
6.58657e-10
-7.93946e-09
1.48423e-09
5.23374e-09
-5.93561e-09
-1.33835e-12
7.03377e-10
1.48932e-09
-5.86897e-09
7.64042e-09
-3.2183e-09
-9.1208e-09
-1.19202e-08
2.76637e-09
-6.32268e-09
4.52302e-10
-6.15802e-09
3.8324e-09
1.43086e-10
2.18256e-09
5.57605e-09
-7.44301e-09
-4.29093e-09
-7.62275e-09
5.08323e-09
6.37197e-09
2.44939e-10
-2.2916e-09
2.11532e-09
-6.98202e-09
-2.57624e-09
-3.43978e-09
-4.65222e-09
4.83281e-09
3.25928e-09
-1.65108e-10
-3.62289e-09
3.48399e-10
7.61242e-09
-6.03891e-10
-4.89318e-09
3.10326e-09
-4.37718e-09
3.80856e-09
4.0362e-10
-1.58008e-09
-2.64672e-09
3.70669e-09
-2.48465e-09
-2.80201e-09
-1.03593e-09
3.65508e-10
-6.809e-09
5.72047e-09
6.76912e-09
-5.68042e-09
1.43741e-09
-8.95787e-09
7.11587e-10
7.47358e-12
-1.2718e-09
6.34772e-09
-1.3966e-09
6.23692e-09
-1.39724e-09
3.80928e-09
-7.39215e-09
6.34501e-09
-1.02454e-10
4.5512e-09
-3.81791e-09
-2.85047e-09
-7.2373e-10
3.70752e-09
4.69905e-10
-4.58579e-09
4.08494e-10
4.27935e-09
-5.77898e-09
1.70381e-08
1.08964e-08
-1.22867e-08
-1.56478e-08
1.39328e-08
-1.04341e-09
4.14875e-09
-1.94394e-08
1.46728e-08
1.86994e-08
-6.73734e-09
-1.80563e-09
-1.34816e-08
9.69724e-09
2.74096e-09
-3.83504e-09
2.78596e-08
-9.35175e-09
-1.10167e-08
6.33202e-10
-3.09813e-09
-5.03047e-09
-1.82729e-08
8.90967e-09
8.35459e-09
-2.22947e-08
1.1126e-08
1.20398e-08
-1.4256e-08
7.4478e-10
1.43973e-08
-6.78744e-09
1.94619e-08
-7.59102e-09
-1.84355e-08
-3.43472e-09
1.09279e-08
1.09423e-08
-2.08373e-08
1.6799e-08
-8.19679e-09
1.4059e-08
1.58192e-08
-3.14624e-09
5.97412e-09
1.0053e-08
1.35965e-08
6.5392e-09
-1.39049e-08
2.11269e-08
-1.37613e-08
-1.5255e-08
-1.24847e-08
3.42789e-08
1.00627e-08
-9.83002e-09
8.31454e-09
-8.54725e-09
1.62119e-09
7.53444e-09
9.07056e-10
-1.085e-08
1.47645e-08
-1.91695e-08
-4.69637e-09
7.58708e-09
-1.27208e-08
8.07569e-09
-2.36221e-08
7.8947e-09
-1.37239e-08
-1.20105e-08
-6.66674e-09
5.45527e-09
1.3222e-08
-1.1864e-08
-1.86338e-09
1.71692e-09
1.02698e-08
2.80733e-09
-5.49005e-09
1.08284e-08
1.06254e-09
4.67228e-09
1.44887e-08
1.96593e-09
-9.60161e-09
1.02831e-08
6.85299e-09
5.10362e-10
-1.79747e-09
1.80802e-08
-2.80534e-09
-7.64649e-09
5.65205e-09
-1.57676e-08
-3.74286e-09
-9.02176e-09
1.15692e-09
1.33201e-08
-5.67096e-11
-5.06562e-09
4.81431e-09
2.30778e-08
-9.8119e-09
1.62543e-08
4.91805e-09
2.66302e-09
-9.47529e-09
1.89408e-09
-4.76296e-09
7.88431e-09
-1.14739e-09
-1.97421e-09
1.03995e-08
-1.02445e-08
1.52348e-08
5.22614e-09
-1.00618e-08
1.03222e-08
-1.96315e-09
6.8754e-09
1.41337e-08
-6.19339e-09
-2.71433e-09
8.33173e-09
6.49755e-10
5.15181e-09
3.3403e-09
1.53135e-08
-3.34598e-09
-3.98314e-09
5.86517e-09
1.46403e-09
-6.25873e-09
5.00656e-09
-2.09409e-09
-6.00302e-10
-9.55565e-10
-2.42732e-09
-4.592e-09
-2.2671e-09
3.19511e-09
-6.72557e-09
3.6364e-09
2.28459e-09
-2.55713e-09
-2.70588e-09
8.60333e-09
-2.62695e-09
-4.82068e-09
4.89046e-09
4.03188e-10
2.835e-09
2.51877e-09
2.89082e-09
5.99286e-09
-3.75337e-09
1.82199e-09
3.44925e-09
-1.84452e-08
3.4419e-09
1.0183e-08
4.82042e-09
8.35666e-09
-2.39471e-08
-2.85475e-09
-1.19087e-08
9.92987e-09
5.42072e-09
6.3968e-09
-1.06307e-08
-7.67473e-09
2.48217e-08
3.78467e-09
-2.02495e-08
-1.51726e-08
8.28581e-09
1.70698e-08
1.97141e-08
-1.00649e-08
6.89836e-09
-8.68611e-09
5.96278e-09
-4.1749e-09
-8.54806e-09
1.73249e-09
1.37141e-08
4.57356e-09
9.43939e-09
-4.08302e-09
-1.15147e-08
1.42272e-08
1.86122e-09
3.72082e-09
8.68072e-09
-8.90592e-09
-3.49553e-09
-4.12064e-09
-9.97275e-10
1.66922e-08
-9.18669e-09
-9.628e-09
1.01245e-08
1.92177e-08
6.46752e-09
-1.02251e-08
-4.92852e-09
-4.61207e-09
2.53158e-09
-6.53219e-09
1.33214e-08
-5.05665e-09
-7.80262e-09
1.07099e-08
1.81255e-09
7.89361e-09
-3.33348e-09
6.18041e-09
8.83833e-10
3.84892e-09
-1.95057e-08
-3.85816e-09
1.20583e-08
1.13057e-08
6.53079e-09
-7.70054e-09
-1.83358e-08
-1.33019e-08
1.06118e-08
1.26941e-08
-1.00038e-08
4.85751e-09
4.17515e-09
-2.23344e-08
2.13976e-08
-1.02611e-09
-1.38406e-08
8.3237e-09
9.21581e-09
1.05977e-08
4.95325e-09
-1.06934e-08
5.45339e-09
8.89927e-09
-3.75486e-09
1.24775e-08
-1.60028e-08
1.5755e-08
3.10261e-10
1.16168e-08
-4.75913e-09
-7.88369e-09
1.07646e-08
9.17596e-09
4.36425e-09
-4.17002e-09
1.41738e-08
-9.10244e-10
-1.10478e-08
4.95506e-09
1.68573e-08
-1.39703e-09
4.52304e-09
-1.04258e-08
-1.35962e-08
1.01208e-08
1.39012e-08
3.93215e-09
-1.27837e-10
-7.74106e-10
1.31449e-08
-7.9506e-10
-1.15065e-08
2.65825e-08
1.36967e-08
5.84917e-09
-2.54907e-09
-1.5337e-08
1.2037e-08
-8.61774e-09
3.46104e-09
1.10059e-08
-4.302e-09
-1.78672e-08
4.37342e-09
1.77958e-08
-2.48063e-08
1.79554e-08
1.93022e-09
-1.51436e-08
-2.12348e-09
-6.61523e-09
-7.21745e-11
-1.93979e-09
-5.30783e-09
-1.06195e-08
-9.07979e-09
-1.76663e-08
3.85288e-10
-5.93479e-09
9.01062e-09
-8.91215e-09
1.36709e-08
-7.02439e-09
1.96507e-09
-1.55579e-09
-5.53223e-09
-1.86912e-08
-1.37076e-08
1.15098e-09
6.63312e-09
-5.16903e-09
-6.77183e-09
8.91461e-09
-5.23511e-09
2.95368e-09
1.52871e-09
-7.12923e-09
-3.34199e-10
1.53118e-09
4.30585e-09
-2.867e-09
-6.6739e-09
-8.58272e-10
3.4461e-09
-4.59251e-10
-3.78158e-09
7.94942e-10
2.81914e-09
-3.18207e-09
3.80909e-09
1.02413e-09
-4.34639e-09
-2.3065e-09
5.62874e-09
-1.52737e-09
5.37066e-09
-5.01034e-09
2.04791e-10
2.68929e-09
-3.68675e-09
-2.78408e-09
-5.78038e-10
8.54191e-11
4.6648e-10
-7.17826e-09
4.40525e-09
2.16736e-09
-5.45039e-09
3.74955e-09
-2.64909e-09
3.28916e-09
9.32971e-10
-4.52998e-09
-3.58125e-09
-1.7467e-09
-2.77051e-09
-3.27234e-09
4.53781e-11
3.03309e-09
-2.02363e-09
-4.69605e-09
-1.57724e-09
-3.99991e-10
-2.81916e-09
-3.288e-09
-7.54964e-09
2.70699e-09
-1.4666e-08
2.50233e-08
-3.00197e-09
-7.35529e-09
-5.00705e-09
4.88304e-09
-1.4542e-08
1.05013e-08
1.03493e-08
4.17272e-09
-1.30731e-08
1.29417e-08
-8.77472e-09
8.9061e-09
-9.76235e-09
-6.31268e-09
2.95598e-09
2.0487e-08
-6.44696e-09
4.01035e-10
-2.7288e-09
-5.13783e-09
-1.10715e-08
1.99835e-08
-8.56522e-09
-8.46233e-09
1.1312e-08
-8.41821e-09
6.31691e-09
-9.21067e-09
-7.40462e-09
5.07098e-09
1.36456e-08
-8.00695e-09
-3.54425e-09
4.14664e-09
-1.59449e-09
-1.48307e-08
-1.17394e-08
-3.39261e-09
1.01105e-08
-5.37848e-09
3.36823e-09
1.78905e-09
2.21301e-10
2.26046e-09
-2.78763e-09
-4.85128e-09
-3.6113e-10
1.11867e-08
1.36605e-09
-1.21916e-08
-6.72593e-09
-6.8868e-09
5.9023e-09
7.71049e-09
-3.77281e-09
4.1515e-10
9.78812e-09
-6.7639e-09
-7.63674e-10
-1.08824e-08
-5.0823e-09
5.98078e-09
9.98415e-09
-8.82872e-09
1.58082e-09
-2.81336e-09
2.28193e-08
2.94451e-09
1.87886e-09
-2.76427e-08
4.3014e-09
7.11426e-09
1.14036e-08
-1.50375e-08
7.58881e-09
1.17501e-08
3.15091e-09
-1.52439e-08
1.18771e-08
1.9594e-09
-1.06856e-08
3.39907e-09
-5.40605e-10
9.01864e-09
1.69421e-08
4.23626e-09
-1.92996e-08
9.66697e-09
1.43894e-08
7.59228e-09
3.39558e-09
-3.01587e-09
-1.29822e-08
1.79575e-08
1.94666e-08
-1.82463e-08
2.51287e-10
-6.98532e-09
1.6401e-08
1.37791e-08
-5.93548e-09
1.42924e-08
-1.81102e-09
4.5048e-09
-1.38216e-08
1.25005e-08
-3.18345e-09
1.62107e-09
-2.92195e-09
5.80598e-09
3.88593e-10
5.5519e-09
-4.31919e-09
1.03859e-08
-3.03908e-09
-6.95813e-09
-7.0893e-09
9.00443e-09
3.63692e-09
7.12125e-09
-3.82447e-09
8.61888e-09
-9.62466e-09
-2.03321e-09
-2.82049e-09
8.3653e-09
-6.45501e-09
1.38572e-09
8.3557e-10
4.90028e-09
7.5697e-09
5.28449e-09
8.49607e-09
6.99793e-09
-1.09427e-08
9.66617e-09
5.99704e-10
-1.76976e-09
-6.26386e-09
6.22656e-09
9.70359e-09
6.36548e-10
9.74942e-11
7.94013e-09
-9.92642e-10
-3.33615e-09
-2.21563e-09
5.38622e-09
1.65702e-10
4.10461e-11
5.45409e-09
7.42009e-10
-3.60606e-09
3.11035e-10
-3.90292e-09
4.81864e-09
-2.79152e-10
3.9766e-09
-3.60015e-09
1.84822e-09
1.1806e-09
3.19798e-09
-4.15961e-09
3.79219e-09
7.76976e-09
5.62457e-09
-2.56871e-10
4.60134e-10
-3.32092e-09
3.97992e-09
3.98824e-10
1.07303e-08
6.47453e-09
-8.48551e-09
-8.71931e-09
1.063e-08
2.84129e-09
-4.71373e-09
8.87507e-09
6.4687e-09
2.4135e-09
-6.52705e-10
1.00092e-08
-2.21019e-09
-5.38551e-09
8.67879e-09
7.58229e-09
-6.25179e-09
-9.91668e-10
-1.05919e-08
2.81746e-09
-1.12231e-08
7.41401e-09
-3.13167e-09
3.98839e-09
8.01842e-09
3.55709e-09
1.99011e-09
1.02565e-08
-1.05853e-08
-7.41503e-09
5.26202e-09
1.6212e-08
-7.96118e-10
6.9776e-09
-2.71418e-09
1.19647e-08
-5.38897e-09
6.23191e-09
4.61266e-09
4.84776e-09
2.67345e-09
-3.44977e-09
1.04388e-08
-6.08455e-10
-3.57072e-09
-6.25964e-09
1.12537e-09
1.82123e-09
7.49221e-09
-6.10261e-09
5.39127e-09
-3.08303e-09
3.79435e-09
-2.54527e-09
-4.16577e-09
6.40506e-09
-2.30395e-09
-7.67174e-09
1.29691e-09
5.21973e-09
-8.33195e-09
2.05207e-09
8.10114e-09
-2.484e-10
-1.67844e-09
-2.42834e-10
-5.84284e-09
8.1377e-09
-3.08818e-09
4.14226e-09
-5.97792e-09
5.11441e-10
-3.76244e-10
-1.32311e-09
-4.90318e-09
3.05143e-09
-1.64757e-09
-3.9491e-09
2.0861e-10
-2.40215e-10
-5.15622e-09
5.58409e-09
8.35563e-11
-1.57699e-09
-4.90233e-09
-3.44419e-09
-2.02262e-11
2.06218e-09
-6.01363e-09
3.02313e-09
-5.86411e-09
-2.12452e-10
-1.15e-08
1.18369e-08
-1.18824e-09
8.51248e-10
-4.73625e-10
1.38992e-10
-1.11655e-08
5.50959e-10
-1.76909e-08
-4.0318e-10
1.75431e-08
-1.13667e-08
-1.46036e-10
1.10389e-08
1.42542e-09
7.08734e-09
5.02494e-09
-1.35378e-08
-1.62515e-08
1.6534e-08
2.68377e-10
-2.50743e-08
6.35625e-09
1.02704e-09
7.73976e-09
-1.05692e-08
4.25476e-09
-1.32085e-08
-2.78109e-09
-9.08469e-09
7.57059e-09
-4.36404e-09
3.88073e-09
-1.77709e-08
7.87562e-09
1.3039e-08
-1.85078e-08
-1.94439e-09
-1.85176e-09
-6.67631e-09
1.45083e-08
-4.95497e-09
-1.14665e-08
1.91329e-09
4.43193e-09
1.52537e-09
-6.35633e-09
3.99077e-10
5.57344e-09
-5.3474e-09
4.206e-09
1.27484e-08
8.42941e-09
-6.66943e-09
9.22028e-09
5.11236e-09
-1.58423e-09
-1.00275e-08
-9.18943e-10
2.98719e-10
1.06478e-08
-6.70429e-09
-1.79787e-09
1.87019e-08
-1.23708e-08
2.09843e-09
5.20854e-10
1.72622e-08
-8.95506e-10
6.7677e-09
4.18198e-09
-6.26085e-09
-4.27739e-09
-1.39117e-09
2.25783e-10
7.83467e-10
8.95771e-09
-8.88266e-09
-1.01925e-08
-5.86536e-09
5.75335e-09
3.98683e-09
-5.5305e-09
1.52582e-10
3.65625e-09
-5.53475e-09
2.64761e-09
-4.52537e-10
-8.45583e-09
-4.58603e-09
1.70319e-09
-1.42901e-08
1.3957e-08
-2.35489e-09
-7.37737e-09
-4.22468e-09
-1.9231e-10
6.20165e-09
6.90492e-10
-6.69974e-09
1.25894e-08
1.1753e-09
3.72959e-09
3.07399e-10
-6.30546e-09
2.26873e-09
3.66225e-09
3.80694e-09
-3.73946e-09
4.06829e-09
-8.9655e-10
4.90597e-10
6.0172e-09
-8.21895e-10
-3.84908e-09
-1.34617e-09
-6.80325e-10
1.82479e-09
4.87289e-09
7.59554e-09
-3.032e-09
-6.91841e-09
1.43135e-09
-1.18523e-09
1.23434e-08
2.21834e-10
7.41109e-09
-9.00881e-09
7.1433e-09
-2.23514e-09
3.55001e-09
-4.73012e-09
-2.66805e-09
-1.41581e-10
3.46829e-09
2.23396e-10
-7.45466e-09
-3.47711e-09
4.28392e-09
3.26133e-09
1.8824e-10
1.41027e-09
3.88269e-09
5.91593e-09
-1.18334e-08
3.0486e-10
9.29966e-09
2.22887e-09
-4.18051e-09
-4.83299e-10
-7.16961e-09
-5.44418e-09
1.23246e-08
-1.1061e-08
8.21489e-09
-1.00386e-10
-1.35587e-08
9.13953e-09
-1.0387e-08
5.50306e-09
-4.25558e-09
7.6196e-09
1.82478e-09
4.16616e-09
9.55715e-09
-1.39865e-09
8.74998e-09
3.63107e-09
-4.29489e-09
-6.57537e-09
-6.12237e-09
8.98831e-09
4.75367e-09
-2.92399e-10
-3.26905e-10
-5.99639e-09
3.06571e-10
6.16687e-09
-4.77044e-10
1.17098e-09
4.80284e-09
3.01453e-09
1.21553e-08
6.70152e-09
-4.60995e-09
-7.10177e-09
1.1952e-08
-2.40245e-10
8.71634e-09
6.05725e-09
-1.04525e-08
-5.97755e-09
-3.11227e-10
8.99097e-10
7.4915e-10
-5.33786e-09
2.45085e-10
5.99184e-09
-6.06513e-09
-5.58208e-09
6.30935e-09
-5.98543e-09
2.82966e-08
-1.39164e-08
-5.13191e-09
-9.24828e-09
-6.44685e-09
6.62186e-09
2.38022e-08
-2.39773e-08
4.69138e-09
1.71583e-08
6.53907e-09
1.02384e-08
-2.6961e-08
1.01835e-08
4.82826e-09
1.39303e-08
-1.22194e-08
1.47342e-08
3.32333e-10
-4.16143e-09
-1.76802e-08
7.1529e-10
2.11263e-08
-2.85711e-08
-5.58479e-09
2.99944e-08
-2.72273e-08
1.52734e-08
1.58733e-08
-3.91936e-09
-1.80748e-08
-1.85226e-08
9.37004e-09
2.84715e-08
-2.48502e-08
1.11129e-08
6.33889e-09
-1.98502e-08
1.82028e-08
-1.17911e-08
2.47519e-08
2.84912e-08
-1.39361e-08
2.2459e-08
-1.3818e-08
-1.67658e-08
4.68106e-10
-1.38263e-09
-3.14066e-08
2.04089e-08
-1.84697e-09
-1.80938e-08
2.38912e-08
3.97146e-10
-6.0217e-09
5.11818e-09
5.064e-10
-2.87705e-09
2.81351e-09
4.60767e-10
-2.85625e-09
-8.97262e-10
-2.26822e-09
3.49124e-09
-2.44022e-09
-3.90729e-09
4.04381e-11
5.7381e-10
1.01307e-09
-1.6207e-09
5.72588e-09
-6.07883e-11
3.88732e-09
7.65122e-09
-4.38992e-09
-4.15856e-09
2.66107e-09
8.52468e-10
-5.9538e-09
3.47654e-09
2.71268e-09
-3.52812e-09
3.02607e-09
4.91007e-10
5.93862e-09
9.18483e-11
4.88693e-09
-8.42438e-09
5.4055e-09
-3.59687e-11
-2.65681e-09
4.53374e-09
3.89789e-09
6.68758e-09
-2.2146e-09
-5.21765e-09
1.00686e-08
-4.95621e-09
3.94276e-09
-5.67686e-09
6.69028e-09
-3.95771e-10
-5.15383e-09
5.93425e-10
-3.57952e-09
2.86446e-09
-4.49405e-09
5.2092e-09
-4.36104e-09
3.85823e-10
-3.09336e-09
9.90046e-09
-9.01601e-09
2.65895e-10
3.07312e-09
1.97948e-09
-9.76136e-09
-1.23421e-09
-3.95989e-09
7.85536e-10
-1.49974e-09
5.52066e-09
-8.51502e-09
-9.22689e-09
-7.12973e-09
1.32631e-08
-1.33026e-08
4.34151e-09
-4.20307e-11
1.67697e-09
-1.13963e-08
6.34196e-10
-4.63612e-09
-1.63185e-08
7.68892e-09
-1.49801e-09
7.60291e-10
-8.53486e-09
9.27251e-09
-5.56339e-09
4.69962e-09
-1.34441e-08
-2.11409e-09
-7.96359e-09
-1.50311e-08
9.55057e-09
-1.37397e-08
8.98982e-09
-2.23013e-10
-4.73511e-09
-4.03172e-09
-6.45464e-09
3.53251e-09
1.1912e-08
5.12456e-09
-2.25431e-09
-3.09325e-09
4.10964e-09
-1.87079e-09
2.88574e-09
5.74373e-09
-2.00077e-09
-8.47806e-09
-1.94612e-10
-5.1628e-10
9.14593e-09
-1.5038e-09
2.48922e-09
-1.33686e-09
-3.40669e-09
8.42615e-10
-2.24373e-10
-3.63094e-09
3.56861e-10
3.07944e-09
1.91008e-09
-5.24773e-09
2.3151e-09
-4.03603e-09
3.30157e-09
-1.43827e-10
7.72225e-09
2.22928e-10
-3.49012e-09
-4.45507e-09
2.89622e-09
3.15617e-09
1.66981e-09
-5.44097e-10
-5.94661e-09
7.57207e-10
5.73338e-09
-4.92818e-09
2.10136e-10
4.1739e-09
-7.17841e-09
4.12801e-09
-3.09506e-09
-3.86046e-09
-4.7746e-09
3.00253e-09
5.60836e-09
2.44625e-09
-3.09515e-09
-4.9595e-09
8.48929e-09
-4.90535e-09
2.02442e-09
-5.06228e-10
-2.98989e-09
4.25333e-09
-3.02172e-09
2.72563e-09
3.50213e-09
-2.97488e-09
-4.0174e-09
-8.53074e-10
-4.19468e-10
4.96005e-09
-5.07356e-10
-2.00651e-09
1.04594e-08
-5.13923e-09
-2.86146e-09
-7.62242e-10
-7.47216e-09
-3.00351e-09
-2.47188e-09
2.45362e-09
-3.46084e-09
-3.95783e-10
-2.00647e-09
-9.72797e-10
-1.54208e-09
-3.92525e-09
-5.2792e-09
1.12653e-08
8.72535e-09
-1.06123e-08
-9.37842e-09
1.25787e-08
5.85715e-10
-1.89914e-09
-3.29695e-09
4.24359e-09
1.1632e-08
9.39616e-09
-8.02929e-10
-8.00761e-09
-1.6537e-08
2.74636e-09
1.04936e-08
-6.50886e-09
-1.30277e-09
1.72742e-09
1.19123e-08
-7.12709e-10
-8.50493e-09
-1.39472e-09
1.30348e-09
-1.73852e-08
1.54406e-08
6.4104e-10
1.46336e-08
-1.40429e-08
3.66595e-09
-1.27481e-08
1.18284e-08
1.49585e-08
-9.56511e-09
1.68627e-08
-8.738e-09
9.478e-09
-5.36346e-09
3.12936e-09
-9.46975e-10
-4.54954e-09
2.36755e-09
2.22214e-09
1.30896e-09
-4.01372e-10
-2.01094e-09
3.83343e-09
-9.53711e-10
-8.68446e-10
8.12571e-09
-5.39796e-09
-4.73848e-09
4.82102e-09
7.13817e-09
2.54035e-09
-4.95078e-09
1.46357e-09
9.84167e-10
2.80695e-09
-1.25059e-09
3.3658e-09
-1.59375e-10
8.22748e-10
-4.27196e-09
2.62422e-09
2.80838e-10
-9.79264e-11
2.04723e-09
3.94304e-09
5.85059e-09
-2.98055e-09
-2.43887e-09
6.96043e-09
-1.43026e-09
-3.0913e-09
4.19389e-09
-2.487e-09
-4.1457e-09
-1.49847e-09
6.22607e-09
2.23283e-09
2.60431e-09
9.12073e-11
4.94916e-09
-4.0861e-09
4.43654e-09
-5.29947e-09
5.72442e-09
-4.10551e-10
-3.6438e-10
-7.18304e-10
4.31483e-09
9.08059e-09
-1.2677e-08
-7.29139e-09
-4.01047e-09
-1.77185e-09
-1.69677e-10
5.95203e-09
-1.61673e-09
2.10558e-10
-2.68104e-09
4.63292e-09
3.77267e-09
1.38951e-10
9.3226e-09
-6.438e-09
-1.45136e-09
5.90556e-09
8.83035e-09
-1.6012e-10
-2.33431e-09
6.79771e-09
1.78134e-09
6.09013e-09
8.27745e-09
-1.16912e-08
1.26816e-08
-7.89642e-09
6.90603e-09
-1.28868e-08
6.22055e-09
-8.76416e-11
-1.61304e-09
-1.11862e-08
2.22782e-10
-1.82709e-08
-3.99884e-09
2.20469e-08
1.61845e-08
-1.39838e-08
1.93335e-09
-1.30984e-08
1.05026e-08
7.6726e-09
-1.222e-09
-6.53829e-09
-5.21197e-10
1.4718e-08
-1.75408e-09
-1.45771e-08
-2.32287e-09
3.05711e-09
1.22285e-08
3.27623e-10
-1.43104e-08
1.02486e-08
-3.42987e-10
-1.99651e-09
-7.54497e-09
5.30411e-09
-3.34451e-09
3.49854e-09
1.22233e-09
1.4017e-09
2.67973e-09
-4.63583e-10
-3.71737e-10
-3.1917e-09
4.02711e-09
-4.75825e-10
6.52461e-09
-6.51223e-09
-2.29272e-09
1.98046e-09
1.53472e-09
-3.89189e-09
2.03745e-09
-5.60254e-10
-2.32756e-09
2.51634e-09
3.8451e-09
-4.88112e-09
1.0827e-09
3.4791e-09
2.56639e-09
-7.29245e-09
3.43796e-09
5.25615e-09
-8.60975e-10
-2.93285e-09
1.86326e-09
-1.61702e-09
4.33594e-09
-5.25075e-09
8.2318e-09
-7.31686e-09
-2.72598e-10
5.93509e-09
-1.32646e-09
-3.31729e-09
2.97025e-09
-1.30435e-09
3.39592e-09
3.643e-09
-3.54526e-09
1.51967e-08
6.22347e-09
-4.99011e-09
-1.64301e-08
1.47936e-09
-9.90475e-09
1.68135e-09
8.97964e-09
-5.61695e-09
-5.04405e-09
1.0872e-08
-4.17423e-09
-5.01642e-09
1.83616e-09
2.19448e-09
4.949e-09
7.21812e-09
-7.25547e-09
-3.98595e-09
-2.38854e-08
4.33695e-09
5.82453e-09
-3.60818e-09
-1.40538e-08
9.68685e-09
-6.49077e-09
-8.81303e-09
5.16248e-09
6.71885e-09
-6.35446e-09
-5.07527e-09
1.00575e-09
-1.23503e-08
-1.22129e-08
9.54475e-09
7.00506e-09
-5.82138e-09
-9.9997e-09
-1.13064e-08
9.64161e-09
-5.32817e-09
-1.87791e-09
1.61122e-08
-1.11578e-08
-1.07651e-09
6.90615e-09
-6.2084e-09
3.04061e-09
-7.98999e-09
-1.31806e-08
-6.68401e-09
1.79868e-08
1.40328e-08
-2.30544e-08
2.70892e-09
-1.91482e-08
2.00003e-08
-1.50359e-08
7.27541e-09
7.76926e-09
-1.1898e-08
-2.07956e-09
-1.23684e-08
5.10179e-09
-1.59847e-09
-6.39431e-09
-1.50616e-08
-6.3573e-09
7.32211e-09
-1.53003e-09
-1.76901e-08
-4.86687e-09
-1.25989e-08
-1.70413e-08
1.06444e-08
-1.08738e-08
-5.20781e-09
-1.14369e-08
1.19441e-08
-3.35956e-09
6.04885e-09
-1.4633e-08
-6.64038e-09
6.49756e-09
9.65217e-09
-2.00169e-08
3.8679e-09
1.1454e-08
-1.39731e-08
9.01689e-09
-8.73964e-09
2.67024e-09
-1.14366e-08
2.12615e-09
-1.91162e-08
1.46004e-08
-6.06655e-09
-6.63478e-10
-1.32866e-08
-5.95677e-09
-1.40827e-08
-9.50689e-09
3.43771e-09
-2.81597e-09
-3.65656e-09
-4.96379e-09
-6.27612e-09
-1.35036e-08
-7.31813e-09
-5.00467e-09
-9.10325e-11
-1.31838e-08
-1.55703e-08
9.20312e-09
-1.64037e-08
5.51104e-09
-1.2409e-08
2.33014e-08
-7.41565e-09
-4.76782e-09
-9.48786e-09
2.16713e-08
-5.25373e-09
-1.85656e-08
-5.4449e-09
-5.50666e-09
-6.64546e-09
-7.28729e-09
3.37717e-09
-1.52763e-08
-8.16042e-09
-8.33035e-09
-1.32501e-08
-6.79967e-09
6.5993e-09
-2.08725e-08
2.10729e-08
1.11121e-09
-2.92703e-08
2.13594e-08
-9.02153e-09
3.85724e-09
2.28192e-08
-1.76549e-08
2.57436e-08
-3.36539e-08
1.06e-08
8.78899e-09
7.86809e-09
-2.7257e-08
1.58068e-08
2.20895e-08
-2.72964e-08
1.93436e-08
-8.88704e-09
-2.40777e-09
2.39563e-08
1.27061e-09
2.54075e-08
-2.07168e-09
-3.02771e-09
6.12393e-09
1.27104e-08
-1.87318e-08
1.29975e-08
2.70661e-09
2.00849e-08
1.41116e-08
1.75655e-08
-1.69535e-08
-2.05637e-08
1.87959e-08
1.47652e-08
1.88376e-08
5.85089e-09
-7.32143e-10
3.19409e-08
6.98145e-09
2.85268e-09
5.51259e-09
-1.39997e-08
2.40147e-09
6.08545e-09
3.22546e-09
1.93027e-08
-1.02616e-08
-1.22666e-08
1.23541e-08
6.40427e-09
-1.3246e-08
-2.43574e-09
5.30859e-09
5.08571e-09
-7.95869e-09
1.69381e-09
1.43375e-09
-5.56344e-09
-6.28109e-09
3.01421e-09
4.96057e-09
-8.4684e-09
-6.45948e-10
-4.88554e-09
4.59973e-09
-6.93945e-09
4.76329e-09
-2.4236e-09
-4.55598e-10
-1.22579e-09
1.03818e-08
-3.49493e-09
-9.11561e-09
2.22883e-09
7.15106e-09
2.28781e-09
9.42966e-10
2.1381e-09
-5.18532e-09
1.40075e-08
-1.09603e-08
-6.91944e-09
-3.08628e-09
1.21439e-08
-3.04527e-09
3.27694e-09
1.06577e-08
4.27197e-09
-2.42475e-10
-1.46872e-08
1.55423e-10
-6.5967e-10
1.11621e-08
-1.26766e-08
8.31949e-09
-8.28291e-10
-1.15741e-08
3.16954e-09
8.90985e-09
-1.26472e-08
9.53742e-09
-4.72157e-10
-7.39457e-09
8.6548e-09
-4.34647e-09
-9.02434e-10
-5.35914e-09
8.90074e-10
6.71005e-09
-2.24102e-09
7.5251e-09
-1.59342e-09
3.86373e-09
-9.79539e-09
9.11523e-09
3.74871e-10
-1.96508e-09
1.33181e-09
2.56659e-10
7.5267e-09
-4.63633e-09
6.08871e-10
-2.00919e-09
-7.56159e-09
1.27951e-09
8.29098e-09
-4.03716e-09
2.60141e-09
-5.7423e-10
-4.50283e-09
-5.67466e-09
-7.87117e-10
6.83656e-09
-9.12347e-09
1.85537e-09
-8.99352e-09
2.2001e-09
2.15705e-09
2.76822e-09
-7.89805e-09
-4.51452e-09
6.68409e-09
-6.36477e-09
4.0503e-09
-2.39341e-09
-1.20324e-09
1.81951e-08
8.4189e-09
-7.6422e-09
-1.89715e-08
4.03865e-09
-3.52602e-09
1.76826e-08
-1.48063e-08
7.62951e-09
5.77067e-10
6.59984e-09
-6.23253e-09
-1.78178e-08
9.24402e-09
6.34612e-09
5.0245e-10
-1.30809e-08
1.49481e-08
-7.29405e-09
-1.30773e-09
1.85446e-08
-1.37999e-08
3.67423e-09
-1.10197e-09
2.36853e-08
3.44143e-09
-1.16109e-08
-1.38487e-09
9.55451e-09
-1.45256e-08
1.68651e-08
1.67745e-09
6.30308e-10
-1.39186e-08
-1.60839e-08
3.2359e-09
1.08152e-08
-1.88777e-08
8.56514e-09
-1.49146e-08
7.66306e-09
-4.42178e-09
-5.2192e-09
-6.44291e-09
-7.40649e-09
-1.30932e-09
-1.31461e-08
1.35703e-08
8.85179e-10
4.53569e-09
-1.69154e-09
6.33598e-09
-9.18016e-09
2.94628e-10
1.07273e-08
-6.48616e-09
1.08588e-09
-7.56415e-09
4.78647e-09
-6.25163e-09
2.28972e-09
5.04779e-09
-9.4716e-09
5.31681e-09
5.23628e-09
-1.08145e-09
-6.52578e-09
1.12985e-09
6.12455e-09
-7.28524e-10
-9.06338e-09
-1.55215e-09
1.14402e-09
7.21737e-09
1.91413e-10
-8.71804e-09
4.19654e-09
-4.54327e-09
-1.83737e-09
-2.17673e-10
-2.90812e-09
-4.59079e-09
7.79355e-09
-4.88773e-09
4.26933e-09
-3.92548e-09
4.65151e-09
1.69459e-09
-5.44042e-09
-1.7951e-10
4.85041e-09
-5.52695e-09
8.68028e-10
-3.24722e-09
5.41591e-11
-2.34076e-10
-1.64902e-10
-6.5614e-11
-2.63144e-09
1.13675e-10
-4.85721e-09
4.57857e-09
-3.56798e-09
3.61599e-09
2.92346e-09
2.73754e-09
7.9358e-09
-1.35969e-08
1.96229e-09
-4.44605e-09
5.40717e-09
-5.25935e-09
-3.25886e-09
4.9502e-09
-4.13471e-09
-5.9689e-09
-1.29694e-09
8.85958e-10
-3.72374e-09
1.52897e-09
6.65945e-09
-5.45096e-09
4.70099e-09
-1.20978e-09
4.04333e-09
-2.64326e-09
-6.02382e-09
5.20998e-09
-2.25807e-09
4.16998e-09
1.4518e-10
-7.32046e-09
4.38094e-09
4.88386e-09
-1.94427e-09
-2.78818e-09
-5.46501e-09
9.32721e-10
4.3687e-09
3.91382e-09
-4.44066e-09
-3.84185e-09
3.86773e-09
2.68227e-11
4.74113e-10
7.71905e-09
-3.94657e-09
1.41264e-10
3.88487e-09
7.70189e-09
1.26477e-09
2.06189e-09
-7.76741e-09
-5.90141e-09
3.21953e-09
4.20895e-10
2.04058e-11
3.93967e-09
-2.98268e-09
3.02147e-09
3.82089e-10
4.47322e-09
-1.1688e-09
5.80317e-10
3.35592e-09
-4.08221e-09
4.00045e-10
-2.31252e-09
-4.56792e-09
-9.69627e-10
-9.55515e-10
-8.01328e-09
5.07686e-09
3.89171e-09
-1.76679e-09
-2.80695e-09
-1.83086e-09
-4.03942e-09
1.47068e-10
1.44709e-09
-4.16948e-09
-2.8557e-09
1.43067e-08
3.4327e-09
-3.01816e-08
1.24422e-08
2.00843e-08
5.0936e-09
-1.08711e-08
-1.51568e-08
6.70304e-09
1.74143e-08
-8.96047e-09
1.00706e-08
-5.14314e-09
-1.04028e-08
1.75949e-08
1.11556e-08
-1.81258e-08
-1.29098e-08
3.32087e-08
-1.35958e-08
-2.73674e-08
3.15231e-08
-1.70655e-08
-7.00748e-09
-1.01022e-08
-1.02577e-08
-1.23084e-08
1.64564e-08
1.73455e-11
-6.23332e-09
9.42908e-09
-3.21322e-09
-3.11495e-09
4.69322e-09
-1.56112e-09
3.41947e-09
4.37351e-09
-8.78779e-09
9.94693e-10
1.95821e-09
-1.6538e-09
4.7766e-09
-5.82369e-10
-2.23664e-09
6.5577e-10
2.26068e-09
1.85907e-09
-7.09004e-09
5.23017e-09
-3.60591e-09
3.08913e-09
9.94572e-09
1.74303e-09
9.66073e-09
-5.55301e-09
-4.69016e-09
7.74542e-09
4.17592e-09
1.35585e-08
-8.41062e-09
-2.05886e-09
-1.20179e-09
4.65657e-09
-1.15501e-08
3.89616e-09
6.24703e-09
-1.13448e-08
-2.41205e-09
1.57819e-08
-9.47357e-09
-1.32573e-08
1.55019e-08
8.0695e-09
-3.44606e-09
8.75697e-09
-1.33802e-08
2.03357e-09
2.14674e-08
-1.54314e-08
-4.12258e-09
1.44034e-08
-1.0842e-08
-6.00349e-09
1.27231e-08
-1.24634e-08
3.10569e-09
1.08133e-08
-1.36869e-08
-1.7412e-08
7.96257e-09
-1.04007e-09
-6.10047e-10
-2.67014e-09
1.44308e-08
-4.70974e-09
-3.16534e-09
-6.55561e-09
5.78824e-09
2.40864e-08
-1.54438e-08
-1.21067e-08
1.62788e-09
5.76921e-09
8.17299e-09
3.1791e-09
5.48403e-09
-1.6836e-08
-5.71979e-09
-7.8121e-09
1.93202e-08
1.58967e-08
-3.73191e-09
-2.42713e-08
7.65144e-09
-8.35175e-09
1.65971e-08
-1.0052e-08
1.55165e-08
-1.11842e-08
-9.08039e-09
9.44132e-09
9.4252e-09
-1.83675e-08
5.21052e-09
1.15609e-08
-2.87687e-10
-1.84787e-09
-2.81798e-09
4.17526e-10
-3.37387e-10
-3.60971e-09
1.8372e-08
-2.06676e-09
-1.26956e-08
1.19345e-08
-3.1557e-09
-1.23885e-08
4.52155e-10
9.43289e-09
2.04949e-09
4.24702e-09
8.44333e-10
3.41871e-09
5.06115e-09
-9.32421e-09
4.75966e-09
-7.07104e-09
1.02935e-08
-8.94162e-09
8.90296e-09
-1.31462e-08
9.3043e-09
1.2649e-09
-3.01817e-09
-5.0609e-09
-2.12506e-10
2.94741e-10
-5.96024e-10
-1.97553e-09
-2.04131e-09
9.21521e-09
-8.44841e-09
-2.10797e-11
-6.47522e-10
4.09557e-09
-3.42701e-09
-2.55245e-09
2.30053e-09
3.62521e-09
-3.37321e-09
-9.42855e-10
-1.79317e-09
1.83687e-10
2.63952e-09
-4.11078e-09
4.9078e-09
-3.43647e-09
2.91906e-09
-5.11655e-10
2.32167e-10
-1.80423e-09
3.20071e-09
-4.87728e-09
3.48102e-09
1.72114e-10
2.27155e-09
-8.91703e-09
2.53473e-09
-4.63228e-09
-1.06133e-09
5.67251e-09
8.98375e-09
-3.48251e-09
-1.56595e-09
1.59651e-09
7.20294e-09
-9.56363e-09
7.89486e-11
5.55802e-09
5.85086e-10
8.91009e-09
-6.84798e-09
-2.64724e-09
-4.62846e-09
-1.34175e-09
6.55532e-09
-3.32082e-09
-4.70917e-09
3.40152e-09
-3.06072e-09
1.73975e-11
-2.77487e-10
5.14497e-09
-4.45168e-09
-3.75402e-09
2.15219e-10
2.20585e-10
-3.09085e-09
3.23905e-09
-1.49001e-09
7.3806e-09
7.86607e-09
3.18163e-10
-1.55648e-08
8.39189e-09
7.52309e-09
-8.53435e-09
-2.28141e-09
-2.70556e-09
5.35299e-10
-6.10787e-09
-3.38673e-09
3.09489e-09
6.39968e-09
-8.52388e-09
4.11614e-09
-1.70016e-09
-1.30279e-09
2.8795e-09
-3.85811e-09
6.00162e-09
3.77789e-09
2.9323e-09
-5.45454e-09
-2.20396e-10
-2.34062e-10
-2.8634e-09
-2.10081e-10
2.09356e-09
9.88866e-09
-2.04272e-10
2.59366e-08
-2.74244e-09
2.5666e-10
-2.34509e-08
8.59797e-09
1.64692e-09
1.56917e-08
3.01253e-08
-2.98637e-08
-3.00408e-09
2.24313e-08
6.96187e-09
1.03807e-08
2.06485e-08
-1.35119e-08
6.00091e-09
9.15794e-09
-1.01118e-09
-1.22441e-08
2.567e-08
5.57313e-09
-2.42813e-08
-8.73379e-09
6.61974e-09
8.11503e-09
-9.95717e-09
7.13644e-10
5.09718e-10
-1.10901e-08
5.05221e-10
2.09656e-08
-1.36461e-09
-9.6037e-09
2.52613e-09
-5.2944e-09
-1.70507e-08
1.9819e-08
1.87598e-08
-4.17986e-09
-6.62751e-09
1.37525e-08
8.57834e-09
-8.82718e-09
-1.11577e-09
1.2028e-08
-9.23536e-10
-1.17824e-08
1.09436e-08
-5.78873e-09
9.59234e-10
7.24894e-09
-2.76242e-09
-2.64483e-08
2.19618e-08
1.95244e-09
-1.08454e-08
1.61419e-08
-3.83176e-09
2.99381e-09
-1.1761e-08
1.40716e-08
-2.06657e-08
1.9915e-08
-2.0905e-08
6.72397e-09
1.58999e-08
-6.79315e-09
1.9855e-08
-2.04863e-08
2.22956e-09
-8.81283e-09
8.74103e-09
-2.1579e-09
7.19935e-09
2.86407e-10
-2.42014e-09
6.17002e-09
-3.74836e-09
-8.8404e-09
6.41862e-09
-1.91312e-09
-6.32665e-10
8.71585e-09
-4.0723e-10
5.39973e-09
2.70549e-09
4.08665e-09
8.24731e-09
1.50531e-09
-6.69172e-09
-1.60748e-09
6.38639e-09
-7.28477e-09
3.93608e-09
9.80236e-09
6.83428e-09
-3.46446e-10
-8.09518e-09
7.15373e-09
3.98903e-09
4.10584e-10
-1.15528e-08
5.43011e-10
6.83462e-09
-2.23679e-10
-1.27012e-08
1.20325e-08
1.21203e-09
2.13348e-09
-1.08455e-08
4.18141e-09
-1.15795e-08
7.80886e-09
1.29264e-08
-6.61143e-09
7.38805e-09
-9.49103e-11
-4.58274e-10
-5.93441e-09
3.83567e-09
-8.03904e-09
1.0138e-08
1.34302e-09
1.10714e-10
5.77016e-09
-8.5034e-09
4.07613e-09
-9.67488e-09
1.92809e-08
-6.96034e-09
1.04895e-08
8.99593e-09
-3.02981e-09
2.79174e-09
-2.15453e-09
-8.67587e-09
2.11281e-09
3.68078e-09
1.48144e-08
7.70107e-09
-2.61966e-08
1.56264e-08
9.82629e-09
-2.17718e-08
1.06532e-09
1.65104e-08
-2.76168e-09
1.74809e-08
-7.89125e-10
5.66392e-09
6.38695e-09
-2.22446e-09
1.08021e-08
1.59858e-08
-1.90868e-08
3.8564e-09
1.5365e-08
-8.41924e-09
1.36704e-08
9.47456e-09
1.37038e-08
-3.46047e-09
2.19858e-09
2.01546e-09
1.17716e-08
4.34603e-09
1.32176e-08
-4.58903e-09
-1.68611e-09
1.99452e-08
1.39366e-08
1.63637e-08
4.4372e-09
-1.86169e-09