/*--------------------------------*- C++ -*----------------------------------*\
| =========                 |                                                 |
| \\      /  F ield         | OpenFOAM: The Open Source CFD Toolbox           |
|  \\    /   O peration     | Version:  v1612+                                |
|   \\  /    A nd           | Web:      www.OpenFOAM.com                      |
|    \\/     M anipulation  |                                                 |
\*---------------------------------------------------------------------------*/
FoamFile
{
    version     2.0;
    format      ascii;
    class       surfaceScalarField;
    location    "150";
    object      phi;
}
// * * * * * * * * * * * * * * * * * * * * * * * * * * * * * * * * * * * * * //

dimensions      [0 3 -1 0 0 0 0];

internalField   nonuniform List<scalar> 
37298
(
2.94107e-09
5.28419e-10
-7.99059e-09
4.5211e-09
-9.57217e-09
-5.33165e-09
-7.0213e-09
2.19251e-08
1.70519e-08
-3.23955e-09
4.21061e-09
-1.8023e-08
-5.09194e-09
1.25717e-08
1.54251e-08
-9.84625e-09
-1.76008e-08
1.2022e-08
-1.05907e-08
2.06841e-08
-1.48342e-08
1.74836e-09
-7.32864e-09
-1.38702e-08
1.41775e-08
-2.00668e-08
7.64621e-09
5.27062e-09
-1.32053e-08
-6.89944e-09
-9.44959e-09
-2.88064e-09
-5.67615e-09
-1.52156e-08
7.02159e-09
1.26441e-09
-1.21053e-08
-9.22587e-09
-1.71461e-08
8.79266e-10
1.2393e-08
-1.34064e-08
-8.43616e-09
-5.79057e-09
-8.16062e-09
-9.52685e-09
4.77375e-09
-1.12046e-09
7.83145e-09
-2.01174e-08
-2.14526e-08
7.12681e-09
-7.48597e-09
1.16733e-08
-1.28043e-08
3.39408e-10
7.91564e-10
-3.66761e-09
2.77204e-09
1.25689e-08
-7.86876e-10
6.85626e-09
-8.11646e-09
2.04708e-09
8.10916e-09
2.42263e-09
-1.13187e-08
-2.21428e-09
1.68134e-08
-8.77521e-09
-5.82387e-09
-6.90944e-09
8.74978e-10
1.22708e-08
6.86613e-09
-6.71841e-09
2.27491e-09
6.2551e-09
6.76136e-10
1.12885e-09
-8.06008e-09
-5.80387e-09
1.26851e-10
8.44906e-09
-6.12471e-09
6.6024e-10
8.79698e-09
-1.07159e-08
2.54691e-09
-9.53338e-09
7.86145e-09
1.68918e-09
5.65711e-09
-1.0912e-09
1.02285e-09
-7.51663e-09
8.18296e-09
1.41756e-09
-4.98862e-09
7.66238e-09
1.48643e-10
-8.85043e-10
8.2569e-09
-7.58841e-09
6.34166e-09
3.59152e-09
-4.03255e-09
-5.90063e-09
1.15154e-09
7.31723e-09
-2.1271e-09
-3.70334e-09
2.314e-11
3.97725e-09
-2.9705e-10
2.82116e-09
-8.15904e-10
-5.70859e-09
2.85306e-09
-8.76458e-12
9.81446e-09
-2.53884e-09
-6.12408e-09
-2.99966e-09
5.99758e-09
4.3193e-09
7.69439e-10
-1.77575e-10
-9.91766e-09
5.0692e-09
3.55678e-09
6.57164e-11
4.40074e-09
9.21906e-10
3.83296e-09
-9.15561e-09
4.13419e-09
1.0081e-08
2.13584e-09
2.76331e-09
-8.50428e-10
6.54305e-09
9.28134e-09
-4.72594e-09
2.06218e-09
-2.59044e-09
5.2542e-09
-9.17215e-10
-3.82594e-09
1.72068e-11
4.15887e-09
-9.6651e-10
-4.10957e-09
-6.79737e-10
6.90078e-09
-3.388e-09
-6.12233e-09
4.32608e-09
5.18425e-09
-2.54529e-09
1.69357e-09
-2.53629e-09
-8.06142e-10
-7.86148e-09
-6.63372e-09
4.36047e-09
-3.17191e-10
6.83137e-09
-4.81605e-09
-2.69505e-09
-8.60937e-10
-6.55428e-09
7.81503e-10
-4.62261e-09
-6.42575e-11
1.26189e-09
-6.51001e-09
4.44198e-09
1.86531e-09
-5.22603e-09
6.6784e-10
-5.35682e-09
-5.12291e-09
7.48432e-09
-7.2624e-10
-4.69843e-09
1.92147e-10
3.51588e-09
-1.4039e-09
-7.08966e-09
4.97768e-09
4.15488e-09
-6.45247e-09
5.81347e-09
-3.40153e-10
-1.0888e-08
2.31897e-09
-4.59408e-09
8.71213e-10
4.80157e-10
-6.81854e-11
-6.4838e-09
-2.50326e-09
1.2251e-08
-4.61961e-09
-7.98368e-10
-6.83298e-09
8.01653e-09
-3.4671e-09
7.70152e-09
9.89061e-09
-5.47526e-09
-9.03496e-09
1.22237e-08
5.68346e-09
1.72746e-08
-1.05578e-08
-7.51512e-09
6.59658e-09
7.21089e-09
-1.63263e-08
1.13833e-08
5.82231e-09
-6.45431e-09
-5.09826e-09
1.30811e-08
5.37035e-10
-3.39631e-09
-8.53326e-09
-1.55405e-08
4.65818e-09
-1.10325e-08
-5.96664e-10
1.06654e-08
9.63777e-10
1.72239e-09
-2.91864e-09
-9.8363e-09
-5.22987e-09
3.87978e-10
5.45163e-09
-6.09734e-10
1.59545e-09
6.66451e-09
-5.86977e-09
-2.39019e-09
1.28843e-08
-1.2393e-08
-1.86346e-09
1.37215e-09
1.20206e-08
2.67097e-10
-9.07518e-09
-4.28826e-10
6.32606e-09
-2.61137e-09
3.54027e-10
-7.11148e-10
6.63773e-10
4.61997e-09
3.32142e-09
-1.82561e-10
8.37765e-09
2.2531e-09
5.3474e-10
-1.11655e-08
-6.4554e-09
5.04438e-09
9.78867e-09
-8.50653e-10
2.95058e-09
-8.55533e-09
-1.49544e-10
5.59878e-09
2.04709e-09
-7.49632e-09
-6.86093e-09
5.15419e-09
1.5572e-09
-7.28998e-09
-2.06953e-09
2.49858e-09
-1.07246e-09
-4.7628e-09
-1.45472e-09
-7.06601e-09
4.15945e-09
2.05591e-09
7.18229e-09
2.22042e-09
-9.45368e-09
5.09679e-11
-1.50097e-09
1.61725e-09
1.6441e-09
8.99906e-09
-3.41552e-09
1.02138e-08
4.04816e-09
-1.74119e-09
-3.37943e-09
2.0159e-09
-3.72675e-11
4.73484e-09
-4.25561e-09
3.34879e-09
-1.14912e-10
-5.19042e-09
5.93435e-09
1.74268e-10
-1.95471e-09
6.87819e-09
-1.90102e-08
1.40867e-08
5.45716e-09
1.47079e-08
-2.21198e-08
7.10707e-09
1.48367e-08
-1.64866e-08
1.35923e-09
1.80921e-08
-1.23443e-08
2.64196e-09
-2.18496e-08
1.00441e-08
9.16351e-09
-2.21222e-08
1.14216e-08
1.33426e-08
-9.94021e-09
1.81776e-08
1.81242e-08
6.18224e-09
-5.39264e-09
-1.89138e-08
-1.37828e-09
9.3728e-09
1.01296e-08
-7.91771e-09
5.76711e-09
1.68585e-08
1.10468e-08
-2.15862e-08
9.16111e-09
-1.77679e-09
1.85758e-08
1.29304e-09
1.35678e-08
-5.07957e-10
7.3204e-10
-3.90064e-09
-1.8681e-08
-2.81436e-09
-2.18313e-09
-3.01754e-09
1.52448e-08
1.49121e-08
-5.67368e-09
1.73028e-08
-2.26807e-09
-8.85251e-09
1.25974e-08
1.40782e-08
1.38954e-08
-4.31553e-09
8.5561e-10
-7.1239e-09
1.98361e-08
7.60713e-09
5.67731e-09
1.54489e-09
-1.48293e-08
9.48066e-09
4.46052e-10
-2.31958e-09
-1.00913e-08
1.0961e-08
3.25236e-09
-4.1221e-09
1.27251e-08
-1.33357e-08
-8.87736e-09
8.74082e-09
1.10976e-08
6.04132e-09
-2.19359e-09
1.9306e-09
-9.45679e-09
1.32035e-08
7.87687e-09
5.53104e-09
-1.1863e-08
9.7347e-09
-1.41178e-09
-9.31524e-09
4.53896e-10
-1.01485e-08
1.90098e-08
1.51632e-08
-7.32389e-09
-1.71546e-08
-1.01222e-08
1.93169e-08
-6.10002e-09
2.01914e-09
-6.0649e-09
1.35265e-08
-5.32125e-09
4.57819e-10
-5.28504e-09
-1.68657e-09
9.35093e-09
-1.95881e-09
5.21599e-10
-7.91372e-09
-4.26608e-09
-2.20841e-09
-1.03946e-08
-5.79361e-09
1.19221e-08
-1.02761e-08
-2.07732e-09
-4.81744e-09
8.95638e-09
-6.34736e-09
3.42049e-09
-1.01269e-08
1.04886e-08
-3.78216e-09
4.77358e-09
-9.2861e-09
2.16795e-10
4.29573e-09
-7.49343e-09
7.44957e-09
5.92766e-11
-8.30794e-09
-1.03744e-09
-7.22103e-10
-6.71205e-09
-6.01048e-10
-6.25452e-09
-1.07225e-08
5.1457e-09
3.9645e-09
-9.80294e-09
-2.4695e-09
-7.35906e-09
-3.94745e-09
-6.6889e-09
4.90883e-09
5.72753e-09
-4.19888e-09
3.12196e-10
-6.07679e-11
3.65977e-09
-2.45428e-09
-5.40438e-09
2.02839e-10
-3.23197e-09
-5.56334e-10
1.63483e-10
5.30168e-09
8.73211e-09
-4.59313e-09
-3.93615e-09
-3.73005e-09
3.52911e-09
-4.45892e-09
4.65986e-09
-3.45232e-09
3.44611e-11
2.48104e-10
7.92767e-09
-4.91754e-10
4.18435e-09
2.29352e-09
3.86766e-09
-8.61545e-09
6.95486e-09
-9.25447e-09
-4.763e-09
-5.09593e-12
3.09177e-10
-4.34766e-09
-6.53254e-09
6.28889e-09
4.17229e-10
1.10507e-08
8.34408e-09
-1.23573e-08
-7.03748e-09
6.03636e-10
2.93952e-09
7.50751e-09
-1.24082e-08
4.4634e-09
8.54842e-09
-1.22612e-08
7.78944e-09
-7.93646e-09
1.2212e-08
-1.45414e-09
-2.4138e-09
4.92655e-09
1.0225e-08
-6.18471e-09
-1.84337e-08
1.64191e-08
-2.62624e-09
-6.00343e-09
6.87685e-09
1.40057e-08
-4.45498e-09
1.00455e-08
-1.50022e-08
9.41163e-09
5.86492e-09
-1.45026e-08
4.18274e-09
-8.92272e-09
3.97641e-09
9.87286e-09
-7.90373e-09
-2.47313e-09
5.78655e-09
6.93332e-09
-1.67121e-08
4.10548e-09
1.94835e-08
-1.12627e-08
-8.07565e-09
1.26e-09
8.58132e-09
1.5411e-08
-1.71239e-09
-5.77739e-09
-7.51241e-09
-7.04325e-09
-9.17178e-09
-9.16043e-09
-1.01068e-08
-1.17999e-08
1.0147e-08
-1.86227e-08
2.02756e-08
-2.29709e-08
6.35173e-10
1.05358e-08
-4.98901e-09
6.32099e-09
8.51441e-09
-9.84639e-09
6.50259e-09
3.67916e-09
-1.51708e-08
6.10463e-09
8.88914e-09
-8.49118e-09
-2.33535e-09
1.4761e-08
1.6211e-08
3.01572e-09
-1.03376e-08
5.27708e-09
8.10161e-09
2.83228e-09
4.38333e-09
1.98954e-08
-1.57643e-08
-7.21203e-09
-1.13755e-08
-3.16415e-09
-8.7861e-09
2.20973e-08
6.90643e-09
-5.63378e-09
5.50962e-09
8.72507e-09
-1.05555e-08
1.54511e-08
-6.92578e-09
7.91163e-09
1.28166e-08
7.77873e-09
-1.41415e-08
6.99798e-09
1.25262e-08
-1.26285e-08
5.85347e-09
-7.73314e-09
9.87063e-09
-8.19576e-10
-6.79537e-09
-2.25568e-09
7.45224e-09
6.03558e-09
-3.61719e-09
-1.9158e-09
2.457e-09
-1.5439e-08
1.48978e-08
8.40556e-10
-1.48813e-08
1.2125e-08
8.28902e-09
-1.12856e-08
8.50533e-09
-5.5088e-09
-4.29819e-11
-1.50612e-09
-4.59935e-09
6.14845e-09
1.0703e-08
-8.01188e-09
7.34632e-09
-3.25903e-09
6.11192e-09
-1.0554e-08
-5.54218e-09
1.21485e-09
-1.45826e-08
-1.14104e-08
9.07385e-09
-2.03683e-09
-1.19802e-08
4.94321e-09
1.10125e-09
-3.31295e-09
-2.86382e-09
-8.46153e-09
3.31347e-09
-8.70217e-09
2.57933e-09
-2.94454e-09
-6.57721e-09
-1.12288e-08
-2.77494e-09
1.0648e-08
3.49558e-09
-1.61804e-08
-2.8334e-09
-1.06777e-08
2.54903e-09
1.34382e-08
6.76535e-10
-1.66637e-08
-4.05514e-10
-1.3532e-08
1.81574e-08
-1.70635e-08
-2.74738e-09
1.59157e-08
-1.35738e-08
1.815e-08
-2.02208e-08
1.90362e-08
2.68614e-09
-3.56495e-09
-9.39201e-10
2.12684e-08
1.47277e-08
1.47249e-08
-1.13026e-08
1.81953e-08
1.24481e-08
1.75123e-08
-1.01234e-10
-1.88343e-09
1.84565e-08
1.58039e-08
9.99135e-09
-3.28476e-09
-6.88256e-09
1.7597e-10
-8.63208e-10
2.97336e-09
7.88119e-09
-9.25842e-09
2.0632e-09
6.33201e-09
-9.06698e-09
-3.4762e-09
-6.71988e-09
2.17343e-09
-2.3361e-09
3.92283e-09
5.03384e-09
6.30348e-09
-1.52602e-08
6.71514e-09
7.6686e-09
-1.04609e-08
-1.0753e-08
-7.49529e-09
2.26026e-09
8.2084e-09
-4.29356e-09
-1.02829e-09
2.28197e-09
1.39602e-10
1.44295e-08
8.22146e-09
-1.63475e-08
9.85586e-09
-3.03946e-09
8.52201e-10
-1.24496e-08
-4.78364e-09
2.60612e-09
1.46271e-08
3.21221e-09
-1.36603e-08
-2.00149e-09
-7.24962e-09
4.52918e-09
1.22392e-08
-5.05935e-09
8.39419e-09
3.74364e-09
9.06007e-09
2.54633e-09
1.39264e-08
1.34853e-08
-4.82805e-10
-5.79123e-09
-7.21125e-09
-1.72917e-09
3.0019e-09
1.22125e-08
9.84487e-10
-8.75923e-09
1.05588e-08
-2.7841e-09
-5.25823e-09
-1.01626e-09
7.25898e-09
-1.33111e-08
9.74213e-09
1.83982e-09
-5.93884e-09
-7.85508e-09
4.60342e-09
-3.34593e-09
-7.04872e-09
1.84489e-09
-9.04083e-09
-1.56329e-09
-4.11014e-09
6.96802e-10
-6.37719e-09
8.36283e-09
-7.07496e-10
-1.06627e-09
-4.3578e-09
-2.72486e-09
-1.95817e-09
-6.12144e-09
-6.69965e-09
8.4633e-09
-6.81615e-10
-1.13787e-08
3.2936e-09
-7.32114e-09
-4.01773e-09
-7.99901e-10
-3.44899e-09
1.30002e-09
8.00771e-09
-1.47967e-09
-7.82807e-09
6.50591e-09
-7.81831e-10
-4.42406e-09
2.6844e-10
-5.13958e-09
5.30841e-09
-4.37271e-10
4.83811e-09
-4.46305e-09
-1.06621e-10
3.50406e-09
4.69642e-09
-3.36236e-09
6.23834e-09
-1.03546e-09
-1.69882e-09
-4.77106e-09
3.95296e-09
7.05644e-09
-1.6969e-10
9.50443e-11
1.86537e-09
1.00276e-09
4.74703e-09
3.62425e-09
1.18378e-09
3.10998e-09
-5.77343e-09
3.61789e-09
-3.21594e-09
3.66923e-09
-5.0223e-09
-2.34932e-09
6.62227e-09
4.48991e-10
-1.42122e-10
-3.21918e-09
-1.6262e-09
3.14656e-09
-2.71708e-09
-5.31087e-11
-4.13937e-09
3.54477e-10
2.15869e-09
-3.23855e-09
2.75218e-09
-4.82578e-09
-3.86451e-11
-2.62034e-10
5.12646e-09
4.40641e-09
-4.90305e-09
-4.32914e-09
-5.6473e-10
4.98494e-09
-1.37967e-11
6.81679e-09
-6.76261e-09
-3.97627e-09
3.92209e-09
-5.47812e-10
9.77846e-09
-2.41387e-09
-2.53225e-09
7.18765e-09
-5.20322e-09
-2.01021e-09
3.76025e-09
-4.28228e-09
-8.97287e-09
-1.68377e-09
7.45705e-09
3.19959e-09
2.61153e-10
-2.22875e-09
-7.00527e-09
-6.40857e-09
-3.92688e-10
2.12962e-09
2.40358e-10
-7.27303e-09
4.70061e-09
2.10149e-09
-4.67248e-09
4.23569e-09
-9.98124e-11
9.56427e-09
-7.20163e-09
1.34678e-09
6.53372e-09
-2.88028e-09
-7.06386e-09
7.7154e-09
-9.04849e-09
3.57227e-09
1.28106e-08
-1.97592e-08
6.75624e-09
1.92342e-10
-1.27131e-08
6.17427e-09
1.93494e-08
2.27526e-08
-6.76837e-11
-4.12987e-09
-1.8555e-08
-1.00465e-08
2.0086e-08
-3.66771e-09
-1.61592e-08
-6.75541e-09
-7.3129e-09
2.02426e-08
-1.10952e-08
1.1096e-08
2.69783e-08
-2.97059e-09
-2.81376e-08
8.0152e-09
8.91656e-09
1.07534e-08
-2.1716e-09
-1.22495e-08
1.92342e-08
-9.0049e-10
-7.58029e-09
-8.36511e-09
9.06741e-09
-1.92313e-08
1.40891e-08
-5.48173e-09
1.36207e-08
5.07259e-09
-1.89194e-08
-7.34711e-09
-9.09921e-09
1.24726e-08
3.97371e-09
4.26702e-09
-1.10024e-08
-6.11757e-10
1.24722e-08
-7.68089e-09
-5.24305e-10
7.52366e-09
-8.59857e-09
-9.92746e-09
2.0246e-09
-3.60015e-09
6.91553e-09
1.14741e-08
-5.91741e-09
-1.37751e-08
1.6572e-08
-1.10717e-08
8.27478e-09
1.53427e-08
-2.25275e-08
-6.59029e-09
3.20778e-09
2.34032e-08
3.84036e-09
-1.25921e-08
-1.46515e-08
8.43733e-09
-3.02045e-09
1.79864e-08
-3.93966e-09
2.37194e-08
-6.56779e-09
1.79708e-08
3.79583e-09
-9.14171e-09
-1.71816e-08
-5.25127e-09
-2.11902e-08
2.30597e-08
-7.21891e-09
-1.01309e-08
-4.43256e-09
-1.19281e-08
1.76428e-08
-2.97025e-09
-1.17663e-09
-1.34959e-08
-2.72368e-09
1.41858e-08
6.18066e-09
-8.85185e-09
-3.94368e-09
4.17265e-09
8.62288e-09
-3.47886e-09
-8.34324e-09
-1.49153e-08
4.318e-09
7.87367e-09
-2.87644e-09
-1.32155e-08
8.73478e-09
7.96962e-10
-1.30106e-08
-1.16258e-09
5.95369e-09
-4.67409e-09
1.41044e-08
-1.83923e-09
-7.59103e-09
-7.45909e-09
7.103e-09
6.75509e-09
-8.83457e-09
-2.42491e-09
1.72091e-09
-9.03102e-10
3.49765e-10
5.43424e-09
-4.8809e-09
-5.90792e-10
5.52287e-09
-5.83518e-09
6.85702e-10
-9.32225e-10
-1.04083e-08
1.06548e-08
-7.85628e-09
8.89174e-09
3.48764e-10
5.70899e-09
-6.64854e-09
-3.45698e-09
5.61169e-09
3.27953e-09
2.1209e-09
-5.50097e-11
3.43928e-09
-2.72835e-09
6.2648e-09
-6.97573e-09
3.78738e-10
1.01309e-08
-7.07037e-09
6.43235e-09
-7.01581e-09
2.87934e-09
5.55189e-09
-2.72224e-09
5.03719e-09
-3.69511e-11
4.55949e-10
3.24806e-09
2.91439e-09
3.09345e-09
2.58286e-09
5.36872e-09
8.57329e-09
5.09936e-09
-7.98705e-10
-6.49947e-09
2.19882e-09
-2.88319e-09
-8.60905e-10
8.84345e-09
3.3266e-09
-6.27639e-09
-3.7245e-10
3.32224e-09
-5.19451e-09
5.63792e-09
5.88454e-09
-7.90286e-09
1.21962e-09
-3.5985e-09
8.62213e-09
3.01679e-09
-6.23555e-09
-3.05763e-09
-2.17809e-09
3.74654e-13
-8.63537e-09
6.9261e-09
-6.19359e-09
8.11005e-11
-7.87476e-09
-8.41706e-10
-8.22958e-09
7.46161e-09
6.1657e-09
-5.39773e-09
4.16763e-11
-9.02001e-09
7.48759e-10
3.49066e-09
-3.30714e-09
-6.22123e-09
3.02889e-09
-5.38219e-09
-1.03037e-10
4.81936e-10
-6.49984e-10
-5.21414e-09
-5.65819e-09
-6.84386e-09
4.91939e-09
1.07231e-09
1.18803e-09
-7.17973e-09
1.03048e-09
4.35952e-09
-4.70617e-10
6.85341e-09
1.43382e-09
-8.18508e-09
-1.0215e-10
-5.08994e-09
7.08967e-09
-2.0617e-09
6.19682e-11
-2.17241e-09
1.02797e-08
-7.51755e-09
-5.89702e-10
6.9415e-09
2.73923e-09
-8.60842e-09
2.72798e-09
7.80115e-09
-3.58764e-09
3.9856e-09
-2.27143e-10
1.18894e-09
1.0734e-08
-9.18374e-09
-1.07292e-09
7.55169e-09
-5.28982e-09
5.22745e-09
-5.11234e-09
5.30447e-09
8.46765e-09
-8.54467e-09
-2.79728e-09
-5.23675e-09
1.33385e-08
-3.05023e-09
-1.94688e-09
2.82471e-09
1.11161e-09
1.97688e-10
1.16518e-09
1.72303e-09
4.91294e-09
3.2039e-09
4.484e-09
7.97307e-09
1.11041e-08
-6.34972e-09
-4.74683e-09
5.55019e-10
5.62044e-09
-1.42862e-09
4.0042e-09
-5.05402e-09
-3.69701e-09
-4.21646e-09
-8.19182e-09
8.84153e-10
1.15241e-08
-8.44657e-09
-4.8893e-10
4.71903e-09
5.42535e-09
-7.12982e-10
-4.15735e-09
-3.70315e-09
4.84122e-09
4.48237e-09
3.10458e-10
-9.4065e-12
5.95647e-09
4.90317e-09
-6.09784e-09
-4.7618e-09
-1.49543e-10
4.6284e-09
7.89643e-10
-5.2685e-09
5.02721e-09
7.7972e-10
-2.02219e-09
-1.54123e-09
-5.04341e-09
2.33127e-09
2.02102e-09
-4.04515e-09
7.26057e-09
-5.18863e-09
6.17069e-09
2.49948e-11
-1.13367e-08
1.03373e-08
9.00692e-09
-8.00757e-09
-7.76359e-09
-7.81873e-10
-2.79121e-09
4.49519e-09
-1.58114e-10
4.68347e-09
-9.02055e-09
1.06614e-08
-6.55006e-09
3.12922e-09
-7.24056e-09
1.07517e-08
4.25705e-09
-4.34732e-09
-2.20074e-09
2.30241e-09
4.39352e-09
-7.07228e-09
5.03988e-09
-1.6834e-10
6.99526e-11
5.0194e-09
-8.11431e-09
3.02497e-09
3.97446e-09
5.05624e-09
5.12297e-09
1.02328e-08
-3.40783e-09
-3.69578e-09
1.0427e-09
3.30203e-09
5.8881e-09
6.65166e-09
5.14271e-09
-5.46072e-09
1.09522e-08
7.55676e-10
-1.85758e-08
1.98688e-08
2.75391e-09
-4.04687e-09
1.62238e-08
-1.97987e-08
2.50778e-09
1.0671e-09
5.30496e-09
-7.65692e-09
1.87509e-08
-2.70417e-09
-1.07417e-08
-3.33168e-09
1.88865e-08
3.196e-09
1.69855e-08
-4.48443e-10
1.73266e-09
1.14567e-08
-1.54691e-08
2.27972e-09
1.73677e-08
4.88429e-09
-4.96495e-09
-1.72871e-08
-7.56108e-09
8.38744e-09
2.50015e-08
-1.6202e-09
-1.62248e-08
-7.15651e-09
-1.72448e-09
1.61192e-08
2.97301e-09
9.59355e-10
-8.99547e-09
-3.33082e-09
1.13669e-08
-2.32835e-09
-1.74822e-08
-2.46301e-08
1.44776e-08
7.82419e-09
-1.20167e-08
1.60575e-08
-3.08141e-09
3.11065e-09
-8.47407e-09
-1.33723e-08
1.87357e-08
-7.50838e-09
5.99049e-09
-8.35628e-09
9.87417e-09
-1.02989e-08
1.70619e-09
1.08429e-09
9.6411e-10
-9.07133e-09
-2.19164e-09
-5.0478e-09
6.33926e-09
-3.27352e-10
-2.1318e-09
-1.20693e-09
1.53196e-08
-1.19809e-08
-2.32269e-09
1.14575e-08
-1.12667e-08
1.77285e-09
-5.31758e-10
-8.50541e-09
2.3072e-09
1.4115e-09
2.27178e-09
-6.11846e-09
3.42392e-10
8.08327e-09
1.2066e-09
6.18932e-09
9.18895e-09
-1.0305e-08
-7.13348e-09
2.72121e-09
1.5707e-09
7.33236e-09
5.69588e-09
-1.90871e-09
-5.72117e-09
7.97227e-09
-7.8414e-09
7.3442e-09
-2.38816e-09
6.28099e-09
2.29649e-09
6.572e-09
2.28781e-10
-1.20852e-09
4.14293e-10
6.06296e-09
-6.48694e-10
-1.68591e-08
1.23507e-08
-1.06397e-08
1.51481e-08
3.21715e-09
3.93183e-09
6.65677e-09
-1.38058e-08
9.7205e-09
1.14753e-08
-1.79787e-08
-1.48421e-09
-1.19199e-09
-1.12561e-08
1.39323e-08
-2.49734e-09
-1.5846e-08
7.51709e-09
1.45541e-08
2.7284e-09
1.99389e-08
6.50251e-10
-2.33175e-08
3.14763e-09
1.63286e-08
-1.67478e-08
1.33712e-08
-1.14156e-08
9.69896e-09
7.60409e-09
-1.14245e-08
2.62629e-08
1.49019e-09
1.8592e-08
-1.00776e-08
1.52941e-08
-1.71412e-08
-2.50562e-09
-5.7733e-09
1.79779e-08
-4.5714e-09
9.58287e-09
1.03803e-08
-3.46306e-09
1.16748e-08
3.08699e-08
7.25964e-09
7.00787e-09
-2.23172e-09
1.53366e-08
6.98576e-09
2.17797e-08
-1.1281e-08
1.14004e-08
6.13934e-09
-6.25872e-09
3.46331e-09
1.17487e-08
-1.29588e-08
7.25035e-09
7.20327e-09
-4.95737e-09
8.67573e-09
-3.69377e-09
-1.48874e-08
4.82779e-09
1.731e-08
9.91558e-10
2.10502e-09
1.53578e-08
-1.04771e-08
1.83332e-08
-1.13937e-08
5.03596e-09
4.70602e-09
1.65168e-09
1.96977e-09
-1.93152e-09
-1.14319e-08
4.80188e-10
-5.91808e-09
5.85717e-10
6.14531e-10
-5.09624e-09
-7.41552e-09
-4.20409e-09
5.70153e-09
-4.56609e-09
-1.06917e-09
-1.78026e-09
-9.53206e-09
8.11555e-09
3.56925e-10
-7.91921e-09
-2.23079e-10
-8.82302e-09
7.11459e-09
3.47512e-09
-4.43924e-09
-3.60197e-09
-5.2854e-10
-2.00429e-10
-1.05692e-09
-5.67581e-09
1.06052e-09
-5.72283e-09
3.96195e-09
-3.95835e-09
3.68935e-09
-2.55941e-10
1.08763e-08
1.71192e-09
-1.04374e-08
-2.15079e-09
-7.93876e-09
1.09029e-08
7.91221e-09
-5.91105e-09
-3.15799e-10
1.34571e-08
-2.28207e-10
7.90904e-11
-1.3308e-08
7.72754e-09
-1.81516e-10
-1.06316e-08
-3.39996e-11
1.07833e-08
-7.38914e-11
-1.06303e-08
1.1498e-08
7.0128e-09
1.52233e-08
2.20387e-10
-1.52729e-08
-1.70768e-10
-1.57334e-09
1.51249e-08
1.67173e-09
1.18213e-08
-1.94469e-10
-1.32001e-08
-1.38849e-08
1.40314e-08
-1.10212e-09
-1.01943e-09
1.39428e-08
1.65457e-08
-2.52293e-09
1.78879e-09
8.92483e-09
7.84395e-10
1.16722e-08
-5.38952e-09
3.35793e-09
2.10637e-09
-7.47715e-11
3.51634e-09
-3.74386e-09
-5.162e-09
6.66999e-09
-3.2687e-10
-2.82678e-09
2.26894e-09
6.37717e-09
-1.97612e-09
5.47772e-09
1.49138e-10
1.55518e-09
-1.1876e-08
6.57696e-09
-4.26449e-09
8.00341e-09
-4.06579e-09
5.545e-09
2.69403e-10
5.62775e-10
-9.0627e-09
6.35339e-09
4.59185e-09
7.15406e-09
-6.52359e-09
-5.22232e-09
-2.62854e-09
6.06094e-09
2.11259e-09
3.00658e-09
-1.57396e-10
7.22618e-09
1.04664e-09
-6.91738e-09
-8.84448e-09
8.26621e-10
1.49352e-08
-3.24436e-09
1.69503e-09
-5.36805e-09
-4.86266e-09
4.22829e-09
3.37014e-09
1.11159e-08
1.43626e-08
-1.13799e-09
-2.0124e-08
1.87218e-08
-1.7749e-10
-4.18172e-09
1.44371e-08
6.0331e-09
3.49109e-09
1.50722e-08
-4.12627e-09
1.55893e-08
-2.37194e-08
6.9921e-09
-4.80535e-09
2.02172e-08
-4.56128e-09
2.00744e-08
-6.55928e-09
-1.64877e-08
1.84857e-08
-1.17384e-08
9.0717e-09
-3.89258e-09
-1.03243e-08
-1.79018e-08
3.48836e-09
-1.43185e-08
6.29472e-09
4.53539e-09
7.60113e-09
9.58438e-10
-7.76992e-09
1.10843e-08
-9.03598e-09
-2.76127e-09
6.31112e-09
-2.70266e-10
-9.67686e-09
4.12924e-09
1.10749e-08
-5.01505e-09
3.22739e-09
-2.8203e-08
1.51292e-08
7.62835e-09
-1.80814e-08
1.36804e-08
-1.19748e-08
-3.78201e-09
-1.24461e-08
-8.84172e-09
1.41347e-08
-1.29909e-08
2.62269e-09
1.06694e-08
-3.01229e-10
-1.0703e-08
-1.19503e-08
9.66233e-09
1.50702e-08
-8.05355e-09
-1.89915e-08
-3.88511e-10
8.53762e-09
-1.24622e-08
-4.56662e-09
-2.14439e-09
1.0457e-08
1.14871e-08
-1.97997e-08
-1.07635e-08
-8.18927e-09
9.94349e-09
-8.11576e-09
-2.09009e-08
-5.37548e-09
-4.61324e-09
4.63386e-09
5.35486e-09
-4.24977e-09
-1.20601e-09
8.03028e-11
5.25785e-09
-5.4162e-09
-4.09143e-09
-3.08459e-12
6.47698e-10
-1.54388e-09
4.3384e-10
5.7439e-09
-4.03062e-09
-9.66655e-10
3.4534e-09
-5.15293e-09
-8.3702e-11
5.89022e-09
-6.71658e-09
8.2327e-10
-1.83606e-09
8.16012e-09
7.28897e-09
8.37482e-10
1.32918e-09
-9.45563e-09
8.78588e-11
4.84539e-10
-6.01622e-09
1.4375e-09
-1.19916e-08
1.1082e-08
9.9754e-10
2.95058e-09
-1.3613e-08
-7.5914e-09
8.61629e-09
1.00571e-08
1.4053e-09
-6.04612e-09
-6.90943e-09
1.20347e-09
4.7393e-09
-5.14842e-09
-3.55707e-10
7.9837e-09
-9.46477e-09
-6.29871e-09
2.98134e-10
1.54653e-08
-6.75752e-09
-6.26143e-09
3.55419e-09
-5.69584e-09
-5.0345e-09
5.18085e-09
5.5495e-09
-4.43296e-09
-1.22684e-09
-3.60398e-11
8.46195e-09
-9.1831e-09
-3.71181e-09
-6.90527e-10
4.11797e-09
-1.32152e-08
5.76719e-09
1.39267e-08
-1.43366e-08
-5.85145e-09
-3.85588e-09
1.14838e-08
-1.12706e-08
1.51507e-10
-3.21755e-09
4.59369e-09
-2.34722e-09
-1.35171e-08
-3.27437e-09
8.75335e-09
6.62739e-10
-9.28429e-09
-5.2522e-09
6.74311e-09
-1.3394e-09
7.68438e-10
-8.36786e-09
-4.49378e-09
-3.20831e-09
4.42772e-09
-5.56776e-09
-1.52871e-10
-2.73834e-09
-5.78202e-09
4.88084e-10
2.39914e-09
1.70048e-09
-4.4207e-09
3.08094e-09
-7.03329e-09
4.72079e-09
-3.72354e-09
4.06614e-09
3.1688e-10
-3.0026e-09
6.21297e-09
-3.52725e-09
-4.30191e-09
-3.92529e-09
8.54408e-09
2.75494e-09
-5.30565e-09
-4.51886e-10
5.4076e-09
-3.22334e-09
4.02871e-09
-1.39293e-08
3.02913e-09
8.38137e-10
1.0062e-08
-4.24644e-09
6.25151e-11
-9.74536e-09
9.15665e-09
-1.06482e-08
9.68005e-09
2.50573e-09
5.22557e-09
4.68263e-09
-3.05964e-09
-6.84856e-09
-1.08126e-08
3.02981e-09
8.62093e-09
-7.39571e-09
-3.35438e-09
8.04239e-09
2.12984e-10
-1.44703e-08
7.02564e-09
7.22944e-09
2.15211e-10
6.71501e-09
-3.73554e-09
-1.74498e-08
2.0254e-08
3.06785e-09
-1.66068e-08
1.87558e-08
8.52378e-09
-1.55185e-08
-7.65152e-09
1.48731e-08
8.29684e-09
-1.74453e-08
6.1778e-09
-4.25096e-09
-5.92863e-09
6.28285e-09
-1.77995e-08
1.46319e-08
7.209e-09
-2.94925e-08
-1.83472e-08
6.17192e-09
1.37368e-08
-1.56147e-09
-1.00704e-08
-2.09904e-09
6.2065e-10
-1.39903e-08
9.6341e-09
1.72224e-08
-1.73645e-09
-8.25651e-09
1.0389e-08
2.29988e-08
4.27282e-09
1.67722e-08
1.34223e-08
-1.87303e-08
-7.84845e-09
1.12004e-08
4.2004e-09
1.93921e-08
-6.37014e-09
1.88622e-08
-1.04943e-08
1.35144e-08
1.16146e-08
-1.46347e-08
2.25167e-09
3.70987e-10
-1.31169e-08
-1.27074e-08
3.79869e-09
9.21253e-09
-3.03778e-10
-1.1406e-08
9.50188e-10
1.23259e-09
-1.19858e-08
-6.52772e-10
-9.55301e-09
3.55544e-10
1.04301e-08
1.25545e-08
4.77332e-09
6.0391e-10
-1.79317e-08
1.39115e-08
-5.60631e-09
4.24931e-09
3.87399e-09
-1.55038e-08
1.64031e-08
-1.13988e-10
-6.97029e-09
1.09583e-08
4.29483e-09
-1.41367e-08
1.04458e-08
2.57118e-09
1.47419e-08
3.40051e-09
-1.10915e-08
-3.68267e-09
6.75022e-09
7.46873e-09
-1.05363e-08
5.17758e-09
5.05127e-09
-6.26649e-09
-1.21674e-10
7.87044e-09
-3.57906e-09
1.02076e-08
-2.80808e-09
-8.16669e-09
4.80102e-09
6.4832e-09
-4.37397e-09
-6.91025e-09
6.76057e-09
-6.16093e-10
-1.34345e-09
7.10362e-09
3.86115e-09
-4.48157e-09
9.86502e-09
3.99916e-09
1.13999e-09
2.08795e-09
6.63709e-09
-7.12711e-09
2.24422e-09
6.02287e-09
-6.82582e-09
8.48098e-09
-2.27125e-09
1.66249e-09
2.63671e-09
3.98035e-09
2.29535e-09
-8.56918e-09
8.36178e-09
-1.3717e-09
-1.89426e-09
-1.68658e-09
-8.23639e-09
1.22183e-08
-6.71868e-09
7.27632e-09
7.4326e-09
5.03662e-10
-1.04094e-08
-1.24114e-08
1.16076e-08
2.74095e-10
-1.29936e-10
-1.25555e-08
1.85889e-10
2.38799e-09
6.87926e-09
-6.63055e-09
1.05137e-08
-8.56369e-09
2.34867e-09
-3.05612e-09
-1.96292e-09
6.31615e-09
-1.21504e-08
7.79715e-09
7.76993e-09
-1.73181e-08
7.58522e-09
2.00988e-09
-5.57232e-09
1.13324e-08
-2.52492e-09
1.08509e-08
1.33934e-08
-1.248e-08
-1.82315e-08
-2.74493e-09
3.98796e-09
-5.84044e-09
-7.14721e-09
1.04627e-08
3.60732e-09
-1.94884e-08
4.33283e-09
1.15482e-08
-1.40939e-08
1.18608e-08
-1.22806e-08
2.3885e-09
5.40495e-09
-1.77109e-08
-1.78791e-09
-1.87452e-08
4.66177e-09
-1.56721e-08
1.44326e-08
-1.45811e-09
3.64867e-09
-1.44712e-08
3.45408e-09
-1.73922e-08
-1.16714e-09
-2.88372e-09
-1.46943e-08
-1.52294e-08
-1.51018e-08
2.13841e-08
-2.89823e-09
-1.00144e-08
-8.47147e-09
5.74403e-09
7.72502e-09
7.91501e-09
6.32003e-09
6.02997e-09
-7.54002e-09
-4.80997e-09
-2.58947e-10
-1.08058e-10
6.68703e-09
1.30877e-08
-7.13876e-09
-8.84716e-09
8.60354e-09
1.02282e-08
7.51362e-09
-8.29402e-09
6.84955e-09
-8.47838e-10
2.82544e-11
-1.486e-09
-1.1997e-08
5.94302e-09
-5.40115e-09
2.05659e-09
-6.76979e-09
1.01143e-08
8.77939e-10
7.49833e-10
-7.02892e-09
6.19992e-09
-6.30033e-09
1.45568e-08
5.55071e-09
-1.35279e-08
6.49119e-09
5.16381e-09
1.00241e-10
-4.29936e-10
-4.83412e-09
6.19416e-09
5.11742e-09
-6.14778e-09
5.05447e-09
-5.63009e-09
-5.9084e-09
8.21161e-09
5.28419e-09
-6.87224e-09
-5.23972e-10
3.69964e-09
-5.50937e-09
-1.65775e-09
-1.03328e-10
1.69126e-10
5.79788e-09
-5.75769e-10
5.33166e-09
-9.32801e-11
4.00895e-09
-3.35051e-10
3.25038e-10
7.1962e-10
-5.31508e-09
5.62826e-09
8.07833e-10
1.01309e-08
6.15046e-09
-1.03892e-09
-1.52425e-08
1.10454e-08
2.33267e-09
-3.24719e-09
1.23362e-08
2.58354e-09
-8.76928e-09
9.81815e-09
1.35635e-08
5.85656e-09
2.89319e-09
-2.34739e-09
-5.61569e-09
1.05466e-08
6.13568e-10
1.17595e-08
-2.55494e-09
-7.72949e-09
5.86999e-09
-2.7163e-10
2.13112e-09
5.45551e-09
3.03484e-09
-2.63379e-09
8.58818e-09
-8.00011e-10
8.93801e-09
-8.39221e-09
1.14042e-08
-2.20242e-09
6.22892e-09
-5.0204e-09
2.77817e-10
8.98594e-09
-6.94263e-09
2.07353e-09
7.8453e-10
4.08457e-09
1.94583e-09
-6.68697e-09
-2.20148e-09
-4.44473e-09
2.2744e-09
4.24386e-09
-2.57636e-09
7.7457e-11
-4.11013e-09
-1.29454e-09
-1.2823e-09
3.31424e-09
-4.04334e-09
-3.38104e-09
8.13249e-10
-7.53666e-11
3.46521e-09
-2.82059e-09
2.79738e-09
-3.442e-09
4.33313e-09
-5.46683e-11
-6.71527e-09
2.85034e-09
4.64946e-09
-5.09515e-09
-2.91466e-09
-4.33222e-09
-4.26675e-10
3.28562e-10
-7.19249e-09
4.68683e-09
-2.56687e-10
-1.63276e-09
4.68774e-09
-6.12016e-09
5.94419e-09
1.07291e-08
-1.05531e-08
-2.06128e-09
-4.31556e-09
5.16671e-09
-8.56357e-09
3.72543e-09
-6.98977e-10
7.70537e-10
4.00748e-09
-2.14384e-09
-3.9257e-09
2.06206e-09
-3.54954e-09
9.54818e-09
-1.99116e-09
-6.28326e-09
-3.30162e-09
6.03534e-09
-2.4014e-09
-6.45467e-09
2.57281e-09
-4.11826e-09
-2.09667e-09
4.0711e-09
-4.10874e-09
-1.68675e-10
1.5915e-10
3.49421e-09
-5.954e-10
-7.00755e-09
3.32986e-09
-4.31621e-12
-5.40708e-09
-9.20022e-10
3.74997e-09
-4.64995e-09
-5.55468e-09
5.35435e-10
-8.70908e-11
3.76944e-09
9.58499e-11
-1.06524e-08
8.3637e-12
-2.09311e-09
-4.06386e-09
6.14861e-09
-5.74337e-09
8.8251e-09
-3.07337e-09
-8.04459e-09
1.10581e-08
3.1784e-10
-3.33133e-09
6.48008e-10
-1.23024e-08
3.6098e-09
9.23935e-09
5.00776e-09
-6.00505e-09
-8.24206e-09
1.28607e-08
-7.90675e-09
-7.69074e-09
2.73684e-09
-1.0138e-09
-2.8272e-09
1.67017e-08
1.03572e-08
1.87998e-09
-1.17911e-09
-7.64965e-09
1.07074e-08
-2.73993e-09
3.70139e-09
6.42677e-09
-4.81849e-09
1.31577e-09
1.1926e-09
4.83225e-09
-7.34063e-09
2.44241e-09
8.1127e-09
9.23148e-09
-6.78102e-09
1.06601e-08
-7.15626e-09
-2.73014e-09
7.0592e-09
-4.13958e-09
4.88923e-09
-9.4887e-09
-2.26832e-08
8.57209e-11
3.20862e-08
-2.49015e-08
-5.0907e-09
2.05035e-08
1.18972e-08
1.71073e-08
-2.19052e-08
-7.09926e-09
-1.53093e-08
4.52323e-09
2.66356e-08
1.93494e-09
-2.4305e-09
-2.614e-08
4.37471e-09
2.46961e-08
-2.43519e-09
-5.98304e-09
-1.43502e-08
2.04189e-08
-1.2185e-08
4.39078e-09
-1.98834e-08
1.06643e-08
-6.09016e-09
-2.7744e-09
1.54021e-09
-1.86492e-08
2.42752e-10
-2.49223e-08
2.51512e-08
-2.1676e-08
1.80879e-08
1.96041e-08
2.85849e-09
-2.71096e-09
-1.5008e-08
1.1736e-08
-1.62954e-08
8.49371e-09
-6.39003e-09
-1.57709e-08
2.54589e-08
2.99025e-09
-8.8763e-09
-4.90579e-09
-4.17201e-09
3.18861e-09
5.88919e-09
5.49233e-09
6.39039e-11
-1.0462e-08
-1.44367e-08
5.44552e-09
1.44835e-08
-6.78084e-09
4.94485e-10
2.11435e-09
-3.428e-09
-8.24051e-09
4.88766e-09
9.44796e-09
3.64311e-09
-1.53154e-09
-1.15595e-08
-1.16341e-09
1.53604e-08
-4.74904e-09
2.14301e-09
-5.46295e-09
-9.27007e-09
1.259e-08
9.11932e-10
-1.28198e-08
3.11924e-09
8.78863e-09
-9.07944e-09
-3.21426e-09
-8.86916e-09
9.14477e-09
-2.04694e-08
2.01938e-08
-1.15922e-08
1.67086e-08
-1.40458e-08
1.47376e-08
-1.74004e-08
1.15908e-08
2.81729e-09
2.30051e-09
-2.3072e-10
-1.92781e-08
-1.53219e-08
2.33033e-08
-8.53558e-09
-6.20237e-09
-5.73145e-09
-9.00342e-09
-1.11244e-08
-1.30524e-08
9.3213e-09
-4.51718e-09
-1.26621e-08
2.78279e-09
7.47859e-09
-6.62849e-09
-3.63289e-09
1.54823e-09
3.40927e-09
-4.85987e-09
-9.76205e-11
-4.48542e-09
6.62991e-10
4.85877e-09
-1.03634e-09
-3.01572e-09
7.85332e-11
-7.2109e-09
-9.53046e-10
8.82693e-09
-1.83318e-10
-6.43433e-09
-5.93251e-10
1.10194e-08
-1.10951e-09
1.19162e-08
-1.84985e-09
-1.40675e-09
1.47925e-09
-1.24829e-10
4.65899e-09
1.25996e-09
-5.55671e-09
-3.62239e-10
9.17796e-09
1.07118e-08
-5.5223e-09
9.16629e-09
6.92241e-10
-4.33623e-09
2.1709e-08
-6.28478e-09
-2.09465e-08
1.31917e-08
1.76835e-08
4.80705e-09
1.39026e-10
8.17742e-09
-1.31235e-08
6.2369e-09
4.56277e-09
-5.99263e-09
1.05513e-08
-1.66971e-08
-6.8926e-10
9.73608e-09
-1.14932e-08
2.44637e-09
1.72431e-09
1.07782e-08
6.37888e-09
7.61549e-09
-5.81696e-09
1.17066e-08
9.09191e-10
9.95272e-09
-4.69771e-09
-1.03931e-09
2.6724e-09
8.31963e-09
8.95876e-09
1.70852e-09
-3.46493e-09
4.18476e-09
8.23893e-09
-8.85855e-09
8.77726e-09
9.81736e-09
3.45889e-09
-4.40076e-09
-1.24558e-08
1.32355e-10