/*--------------------------------*- C++ -*----------------------------------*\
| =========                 |                                                 |
| \\      /  F ield         | OpenFOAM: The Open Source CFD Toolbox           |
|  \\    /   O peration     | Version:  v1612+                                |
|   \\  /    A nd           | Web:      www.OpenFOAM.com                      |
|    \\/     M anipulation  |                                                 |
\*---------------------------------------------------------------------------*/
FoamFile
{
    version     2.0;
    format      ascii;
    class       volVectorField;
    location    "150";
    object      U;
}
// * * * * * * * * * * * * * * * * * * * * * * * * * * * * * * * * * * * * * //

dimensions      [0 1 -1 0 0 0 0];

internalField   nonuniform List<vector> 
16966
(
(-0.149645 0.832228 -0.313899)
(-0.147351 0.868293 -0.329501)
(-0.14756 0.865023 -0.323978)
(-0.145968 0.866856 -0.325753)
(-0.150295 0.871111 -0.325742)
(-0.152287 0.871168 -0.326532)
(-0.148014 0.864198 -0.321522)
(-0.148324 0.8676 -0.328638)
(-0.141963 0.860751 -0.325829)
(-0.147819 0.862866 -0.321794)
(-0.153809 0.868525 -0.326392)
(-0.149911 0.865738 -0.328395)
(-0.141269 0.855254 -0.324796)
(-0.151065 0.865142 -0.324878)
(-0.151123 0.862752 -0.325448)
(-0.145691 0.855935 -0.327216)
(-0.149285 0.864503 -0.322857)
(-0.146204 0.860813 -0.324571)
(-0.147229 0.860461 -0.322248)
(-0.147871 0.855979 -0.322074)
(-0.134432 0.850087 -0.310886)
(-0.132956 0.850044 -0.31054)
(-0.132257 0.82993 -0.305743)
(-0.129981 0.828785 -0.301225)
(-0.136134 0.845735 -0.30661)
(-0.132974 0.850182 -0.309996)
(-0.137076 0.854512 -0.310054)
(-0.127896 0.826038 -0.300248)
(-0.116679 0.74189 -0.276529)
(-0.127842 0.822144 -0.298064)
(-0.128833 0.828671 -0.300678)
(-0.132615 0.833178 -0.303392)
(-0.134775 0.825725 -0.299372)
(-0.121456 0.730853 -0.273731)
(-0.118671 0.728779 -0.267799)
(-0.126755 0.812936 -0.294325)
(-0.124298 0.777596 -0.286108)
(-0.126875 0.802331 -0.293116)
(-0.115541 0.731393 -0.270832)
(-0.124291 0.704005 -0.250008)
(-0.125866 0.736517 -0.262652)
(-0.12179 0.719038 -0.248472)
(-0.129281 0.730826 -0.253973)
(-0.121709 0.708793 -0.250696)
(-0.128818 0.776085 -0.275639)
(-0.119848 0.705384 -0.252325)
(-0.112062 0.643371 -0.229891)
(-0.127427 0.750042 -0.262003)
(-0.113066 0.629331 -0.233733)
(-0.13429 0.812023 -0.291228)
(-0.135919 0.809101 -0.292131)
(-0.123911 0.762066 -0.259293)
(-0.125993 0.705534 -0.252218)
(-0.12309 0.732922 -0.266112)
(-0.120066 0.671553 -0.251472)
(-0.10989 0.622361 -0.23291)
(-0.117588 0.681397 -0.258353)
(-0.121222 0.686834 -0.2655)
(-0.139056 0.791637 -0.293894)
(-0.142991 0.808115 -0.29989)
(-0.130968 0.774614 -0.297771)
(-0.121105 0.709348 -0.267533)
(-0.134089 0.77733 -0.292113)
(-0.116867 0.660573 -0.248587)
(-0.118008 0.640851 -0.241233)
(-0.122914 0.694402 -0.270849)
(-0.113907 0.663885 -0.249313)
(-0.120778 0.700792 -0.259802)
(-0.14138 0.794282 -0.297832)
(-0.101016 0.599388 -0.231061)
(-0.10799 0.642659 -0.241247)
(-0.12725 0.745855 -0.283152)
(-0.134129 0.787071 -0.292124)
(-0.102372 0.591971 -0.22642)
(-0.101922 0.570922 -0.217594)
(-0.116225 0.728489 -0.271884)
(-0.137366 0.788119 -0.299217)
(-0.138396 0.804601 -0.305815)
(-0.147084 0.829213 -0.313771)
(-0.142346 0.814156 -0.310806)
(-0.141796 0.827195 -0.312688)
(-0.14094 0.842157 -0.317241)
(-0.14912 0.86087 -0.326948)
(-0.147179 0.852374 -0.324982)
(-0.145181 0.84791 -0.323956)
(-0.143833 0.845266 -0.32449)
(-0.1473 0.853851 -0.3229)
(-0.124526 0.763636 -0.293732)
(-0.136222 0.799032 -0.308347)
(-0.0981282 0.573397 -0.209006)
(-0.102449 0.633446 -0.241643)
(-0.121818 0.698169 -0.260957)
(-0.113634 0.702515 -0.263968)
(-0.118284 0.710617 -0.267495)
(-0.107866 0.626672 -0.241234)
(-0.130574 0.742867 -0.279873)
(-0.112605 0.647452 -0.25392)
(-0.10469 0.598878 -0.23637)
(-0.150175 0.847464 -0.318583)
(-0.141524 0.819668 -0.310075)
(-0.136226 0.783333 -0.297111)
(-0.131587 0.763152 -0.283155)
(-0.117908 0.676479 -0.259852)
(-0.113512 0.675352 -0.255572)
(-0.119823 0.692635 -0.260426)
(-0.130094 0.720416 -0.27801)
(-0.130194 0.711886 -0.267255)
(-0.120806 0.687808 -0.26103)
(-0.138692 0.79862 -0.303066)
(-0.128648 0.724915 -0.266075)
(-0.115142 0.629948 -0.234126)
(-0.107209 0.604478 -0.228959)
(-0.114113 0.654779 -0.250891)
(-0.116643 0.649733 -0.247188)
(-0.118349 0.659637 -0.248997)
(-0.104309 0.594627 -0.22219)
(-0.15912 0.884879 -0.328459)
(-0.154587 0.8818 -0.329504)
(-0.152754 0.881249 -0.331761)
(-0.150946 0.87982 -0.326576)
(-0.159583 0.901437 -0.330646)
(-0.153545 0.893363 -0.330428)
(-0.155844 0.887147 -0.329797)
(-0.159456 0.890237 -0.330101)
(-0.158623 0.890286 -0.333757)
(-0.153065 0.885827 -0.330582)
(-0.156775 0.895028 -0.333706)
(-0.154611 0.88486 -0.329073)
(-0.155389 0.888608 -0.331048)
(-0.15872 0.897566 -0.330347)
(-0.152851 0.886921 -0.331439)
(-0.15656 0.899803 -0.330398)
(-0.156743 0.895017 -0.331982)
(-0.157329 0.89493 -0.328034)
(-0.159111 0.895557 -0.331615)
(-0.157459 0.895104 -0.333801)
(-0.151814 0.887318 -0.330562)
(-0.163679 0.921232 -0.338611)
(-0.160237 0.924252 -0.337565)
(-0.160734 0.929157 -0.340362)
(-0.159745 0.915276 -0.334202)
(-0.160436 0.913241 -0.332816)
(-0.162939 0.915777 -0.335643)
(-0.163015 0.930492 -0.340446)
(-0.153703 0.890035 -0.319346)
(-0.15243 0.891488 -0.323355)
(-0.155749 0.904753 -0.328357)
(-0.159594 0.926529 -0.338074)
(-0.161048 0.924799 -0.338115)
(-0.154285 0.888217 -0.326222)
(-0.158972 0.907643 -0.330847)
(-0.153724 0.889922 -0.322052)
(-0.156302 0.890305 -0.322506)
(-0.142697 0.841086 -0.321664)
(-0.143942 0.841922 -0.317589)
(-0.147367 0.874115 -0.327518)
(-0.149906 0.88774 -0.331287)
(-0.131791 0.795481 -0.300626)
(-0.145189 0.833867 -0.313642)
(-0.141447 0.819619 -0.308418)
(-0.13277 0.771561 -0.290152)
(-0.133929 0.792172 -0.301247)
(-0.116096 0.744256 -0.282172)
(-0.14829 0.868674 -0.324253)
(-0.150464 0.867694 -0.328511)
(-0.141288 0.82333 -0.312141)
(-0.149892 0.876088 -0.330551)
(-0.12003 0.685148 -0.253082)
(-0.112601 0.615843 -0.233329)
(-0.119678 0.668064 -0.251348)
(-0.129372 0.739168 -0.277029)
(-0.12763 0.735435 -0.273236)
(-0.144478 0.809617 -0.300344)
(-0.121658 0.68326 -0.258007)
(-0.113767 0.636441 -0.238906)
(-0.145352 0.813818 -0.300245)
(-0.129247 0.724862 -0.272609)
(-0.134565 0.725148 -0.270527)
(-0.142448 0.790959 -0.296053)
(-0.130123 0.721838 -0.267835)
(-0.124213 0.694943 -0.259485)
(-0.142933 0.788658 -0.294705)
(-0.142763 0.785379 -0.294854)
(-0.136115 0.839523 -0.302971)
(-0.137017 0.851591 -0.301368)
(-0.134874 0.852808 -0.304111)
(-0.135308 0.836062 -0.301913)
(-0.135241 0.833549 -0.303271)
(-0.138419 0.844825 -0.302233)
(-0.139788 0.864693 -0.308051)
(-0.143836 0.853439 -0.304792)
(-0.140264 0.847602 -0.304015)
(-0.143939 0.869221 -0.311257)
(-0.1408 0.868962 -0.316246)
(-0.136282 0.858412 -0.308659)
(-0.141252 0.864139 -0.316011)
(-0.141227 0.868083 -0.309931)
(-0.145918 0.873523 -0.311371)
(-0.147299 0.879048 -0.313501)
(-0.14203 0.864901 -0.314295)
(-0.144493 0.87096 -0.315339)
(-0.145594 0.865388 -0.309206)
(-0.139976 0.862291 -0.311475)
(-0.140003 0.864824 -0.309131)
(-0.143932 0.871586 -0.311385)
(-0.159221 0.913604 -0.335184)
(-0.160314 0.906362 -0.335324)
(-0.161494 0.913553 -0.331205)
(-0.163059 0.901833 -0.332443)
(-0.159404 0.892066 -0.327752)
(-0.156736 0.901943 -0.32891)
(-0.153348 0.868763 -0.318944)
(-0.155064 0.874879 -0.319908)
(-0.163304 0.908229 -0.332162)
(-0.158892 0.904232 -0.333176)
(-0.160091 0.911342 -0.333391)
(-0.159306 0.916142 -0.332941)
(-0.161317 0.911769 -0.33276)
(-0.15547 0.874498 -0.325076)
(-0.15608 0.878877 -0.322581)
(-0.162592 0.907437 -0.335663)
(-0.161122 0.905069 -0.333293)
(-0.162397 0.901317 -0.333383)
(-0.160801 0.910619 -0.332308)
(-0.108356 0.644382 -0.244531)
(-0.121667 0.692074 -0.250763)
(-0.156893 0.87522 -0.322797)
(-0.152756 0.872867 -0.323534)
(-0.149268 0.835624 -0.309818)
(-0.13712 0.77343 -0.28989)
(-0.144709 0.829102 -0.305325)
(-0.140873 0.827993 -0.31008)
(-0.123461 0.677981 -0.245177)
(-0.154519 0.883906 -0.329137)
(-0.15751 0.88901 -0.32632)
(-0.145745 0.835527 -0.309219)
(-0.152491 0.867378 -0.320544)
(-0.140857 0.799277 -0.298763)
(-0.121467 0.719895 -0.280064)
(-0.124348 0.717411 -0.269844)
(-0.14907 0.848751 -0.318155)
(-0.155328 0.85814 -0.316779)
(-0.156309 0.850705 -0.313783)
(-0.145832 0.828036 -0.313166)
(-0.148209 0.875401 -0.324897)
(-0.151257 0.879372 -0.327898)
(-0.149446 0.877153 -0.323725)
(-0.152026 0.876606 -0.33182)
(-0.148559 0.872751 -0.325332)
(-0.151817 0.883496 -0.323681)
(-0.148329 0.88432 -0.325151)
(-0.147279 0.872012 -0.323882)
(-0.150565 0.878339 -0.328009)
(-0.145318 0.875478 -0.325974)
(-0.148645 0.881065 -0.32543)
(-0.151015 0.88342 -0.328245)
(-0.127159 0.776993 -0.28696)
(-0.13168 0.801479 -0.296501)
(-0.128844 0.826156 -0.30935)
(-0.133792 0.833096 -0.309707)
(-0.123806 0.775216 -0.289972)
(-0.134295 0.829365 -0.308834)
(-0.130543 0.807331 -0.302091)
(-0.131606 0.816898 -0.304179)
(-0.126754 0.777489 -0.287575)
(-0.124932 0.767343 -0.284829)
(-0.12903 0.794791 -0.298797)
(-0.142657 0.867987 -0.324447)
(-0.133307 0.820048 -0.305248)
(-0.146303 0.882489 -0.326856)
(-0.145907 0.885856 -0.331096)
(-0.141869 0.869766 -0.323803)
(-0.14916 0.896174 -0.33563)
(-0.129123 0.80479 -0.301896)
(-0.133511 0.833494 -0.312545)
(-0.137382 0.83436 -0.313954)
(-0.138934 0.795482 -0.302575)
(-0.138813 0.817711 -0.313809)
(-0.134538 0.801628 -0.300629)
(-0.127505 0.746039 -0.280378)
(-0.145442 0.853817 -0.321458)
(-0.14375 0.858153 -0.321685)
(-0.135798 0.795048 -0.304109)
(-0.131336 0.783114 -0.290231)
(-0.122108 0.719212 -0.271388)
(-0.133464 0.763527 -0.285963)
(-0.124231 0.733169 -0.27789)
(-0.133232 0.790389 -0.294381)
(-0.140993 0.845213 -0.320341)
(-0.142075 0.824844 -0.307521)
(-0.139695 0.790645 -0.297465)
(-0.121059 0.703353 -0.265618)
(-0.125612 0.731146 -0.273178)
(-0.138287 0.774275 -0.288724)
(-0.1377 0.780306 -0.291085)
(-0.13778 0.778849 -0.294177)
(-0.121161 0.702322 -0.259719)
(-0.114044 0.660484 -0.245662)
(-0.118112 0.703193 -0.262053)
(-0.114285 0.67046 -0.250103)
(-0.100824 0.60758 -0.228704)
(-0.137464 0.779616 -0.292108)
(-0.138652 0.787946 -0.29496)
(-0.123176 0.700613 -0.266091)
(-0.12355 0.701168 -0.257815)
(-0.113598 0.662257 -0.247466)
(-0.13316 0.769637 -0.289784)
(-0.10245 0.597663 -0.224235)
(-0.111308 0.641808 -0.23976)
(-0.104759 0.612111 -0.231434)
(-0.121075 0.680946 -0.259614)
(-0.115567 0.663893 -0.253089)
(-0.139029 0.766928 -0.289996)
(-0.114936 0.692358 -0.259289)
(-0.116753 0.670784 -0.250496)
(-0.11341 0.638636 -0.244968)
(-0.140616 0.80506 -0.302259)
(-0.140608 0.793085 -0.301204)
(-0.118724 0.66422 -0.256583)
(-0.109185 0.640926 -0.24644)
(-0.133795 0.782592 -0.291338)
(-0.138517 0.80227 -0.302132)
(-0.133812 0.79047 -0.297296)
(-0.124033 0.704667 -0.260582)
(-0.117906 0.649808 -0.245199)
(-0.116125 0.608211 -0.22312)
(-0.11756 0.677392 -0.257404)
(-0.116867 0.684443 -0.260822)
(-0.143529 0.814148 -0.310982)
(-0.143208 0.8065 -0.306098)
(-0.111682 0.636194 -0.239385)
(-0.155515 0.917743 -0.340932)
(-0.152714 0.917634 -0.341292)
(-0.156863 0.916056 -0.337272)
(-0.15335 0.919514 -0.338593)
(-0.152293 0.912609 -0.338541)
(-0.153873 0.918254 -0.338324)
(-0.15143 0.914479 -0.34147)
(-0.149278 0.914292 -0.336693)
(-0.152267 0.92064 -0.338548)
(-0.15126 0.9099 -0.339898)
(-0.151225 0.906574 -0.337293)
(-0.147182 0.909177 -0.337198)
(-0.150419 0.908922 -0.335288)
(-0.150419 0.910112 -0.337175)
(-0.149164 0.910703 -0.338801)
(-0.154275 0.867828 -0.316601)
(-0.142745 0.827737 -0.306405)
(-0.139016 0.810272 -0.301327)
(-0.154587 0.860156 -0.321774)
(-0.15559 0.864172 -0.322008)
(-0.144396 0.829891 -0.314592)
(-0.162673 0.914296 -0.338671)
(-0.16143 0.926493 -0.344106)
(-0.148631 0.850678 -0.314875)
(-0.158345 0.90327 -0.33958)
(-0.158809 0.890778 -0.336416)
(-0.16195 0.911552 -0.338327)
(-0.162658 0.93143 -0.344357)
(-0.162205 0.922114 -0.341939)
(-0.160592 0.8895 -0.329265)
(-0.159538 0.912526 -0.339473)
(-0.161387 0.919822 -0.341076)
(-0.163901 0.917131 -0.340893)
(-0.145395 0.882865 -0.317732)
(-0.146157 0.891472 -0.325431)
(-0.133097 0.826348 -0.299273)
(-0.138686 0.843247 -0.304513)
(-0.149335 0.897918 -0.328711)
(-0.144806 0.885058 -0.323767)
(-0.134562 0.816783 -0.301356)
(-0.129524 0.800337 -0.294466)
(-0.133857 0.813406 -0.299524)
(-0.138536 0.849249 -0.310663)
(-0.13666 0.837525 -0.303208)
(-0.128903 0.809555 -0.293826)
(-0.113473 0.695616 -0.248086)
(-0.108201 0.66902 -0.245017)
(-0.14696 0.835882 -0.304714)
(-0.14154 0.796534 -0.291582)
(-0.125316 0.722101 -0.258409)
(-0.115158 0.674411 -0.239027)
(-0.1058 0.633137 -0.23024)
(-0.143667 0.814259 -0.293524)
(-0.143313 0.814806 -0.295094)
(-0.130061 0.780939 -0.283938)
(-0.116267 0.678766 -0.245144)
(-0.108866 0.617421 -0.226276)
(-0.131605 0.767125 -0.280151)
(-0.125257 0.715674 -0.256976)
(-0.110622 0.672215 -0.243999)
(-0.116036 0.688014 -0.243991)
(-0.124451 0.697885 -0.256179)
(-0.122255 0.72648 -0.267262)
(-0.132674 0.74775 -0.274871)
(-0.113679 0.67843 -0.249156)
(-0.145884 0.811853 -0.296899)
(-0.141143 0.803051 -0.295641)
(-0.123539 0.690529 -0.252129)
(-0.108655 0.615241 -0.226924)
(-0.145534 0.814223 -0.297442)
(-0.145987 0.778167 -0.289705)
(-0.14535 0.828149 -0.305505)
(-0.139141 0.805395 -0.294101)
(-0.143551 0.820068 -0.301749)
(-0.121043 0.67231 -0.247779)
(-0.104033 0.621271 -0.227444)
(-0.109574 0.66702 -0.242742)
(-0.125379 0.703359 -0.2604)
(-0.131961 0.735998 -0.270748)
(-0.126743 0.729357 -0.261609)
(-0.128467 0.698854 -0.248112)
(-0.142221 0.778908 -0.285977)
(-0.125708 0.687934 -0.256009)
(-0.135869 0.740844 -0.267638)
(-0.134256 0.749084 -0.272117)
(-0.130824 0.725222 -0.26392)
(-0.120289 0.668883 -0.247722)
(-0.147108 0.834887 -0.297713)
(-0.146405 0.819265 -0.296924)
(-0.133799 0.750422 -0.26532)
(-0.135318 0.758783 -0.278911)
(-0.149629 0.825331 -0.301321)
(-0.124596 0.695618 -0.252405)
(-0.118384 0.674656 -0.245044)
(-0.133601 0.728052 -0.265762)
(-0.126883 0.698184 -0.257736)
(-0.144304 0.812279 -0.293259)
(-0.150657 0.85444 -0.30926)
(-0.112283 0.668919 -0.252024)
(-0.116006 0.651968 -0.244522)
(-0.137081 0.785851 -0.298754)
(-0.132372 0.76503 -0.288938)
(-0.132464 0.745329 -0.285503)
(-0.109928 0.643658 -0.242995)
(-0.109628 0.599878 -0.222329)
(-0.116599 0.669101 -0.255036)
(-0.131862 0.767466 -0.294306)
(-0.11804 0.705407 -0.269008)
(-0.135359 0.787707 -0.299564)
(-0.133744 0.787226 -0.298155)
(-0.112929 0.658787 -0.251443)
(-0.124582 0.69298 -0.259789)
(-0.114315 0.65756 -0.248375)
(-0.10273 0.60168 -0.226765)
(-0.151255 0.842156 -0.307427)
(-0.141217 0.820326 -0.293483)
(-0.139088 0.771344 -0.278377)
(-0.149732 0.816492 -0.302274)
(-0.153716 0.845053 -0.307704)
(-0.128106 0.734929 -0.260473)
(-0.115849 0.672194 -0.246375)
(-0.141109 0.76892 -0.285272)
(-0.153977 0.824562 -0.298488)
(-0.152447 0.837332 -0.304853)
(-0.135862 0.745659 -0.275339)
(-0.138429 0.763946 -0.281097)
(-0.152333 0.82981 -0.30102)
(-0.12945 0.727189 -0.263858)
(-0.150891 0.827604 -0.300963)
(-0.152855 0.906787 -0.33801)
(-0.151588 0.903715 -0.335612)
(-0.154042 0.908703 -0.335255)
(-0.157061 0.908741 -0.340191)
(-0.15612 0.912648 -0.341292)
(-0.153597 0.913224 -0.339095)
(-0.147165 0.890131 -0.337905)
(-0.152768 0.906273 -0.336736)
(-0.154147 0.913049 -0.339091)
(-0.154173 0.909212 -0.341659)
(-0.154304 0.908644 -0.339655)
(-0.146406 0.882137 -0.333698)
(-0.151506 0.907199 -0.339453)
(-0.151555 0.901819 -0.336297)
(-0.149282 0.887545 -0.333604)
(-0.15043 0.890018 -0.336615)
(-0.152708 0.850302 -0.317223)
(-0.148621 0.825031 -0.310312)
(-0.146045 0.828457 -0.311439)
(-0.144263 0.792188 -0.298237)
(-0.154943 0.860065 -0.323208)
(-0.155557 0.870287 -0.320648)
(-0.147307 0.796187 -0.296476)
(-0.14796 0.82464 -0.311137)
(-0.154985 0.850911 -0.316019)
(-0.152301 0.828359 -0.309811)
(-0.146961 0.805139 -0.29973)
(-0.153402 0.855852 -0.313639)
(-0.144899 0.793459 -0.29766)
(-0.157656 0.878046 -0.328565)
(-0.157895 0.88501 -0.327572)
(-0.152598 0.845097 -0.312975)
(-0.154844 0.862257 -0.32177)
(-0.151817 0.834457 -0.308166)
(-0.150674 0.834799 -0.30746)
(-0.139034 0.786525 -0.294685)
(-0.156281 0.864724 -0.323926)
(-0.144242 0.803118 -0.295426)
(-0.145675 0.858599 -0.312414)
(-0.146115 0.84655 -0.305593)
(-0.141107 0.843633 -0.308859)
(-0.140861 0.859101 -0.314566)
(-0.155311 0.906651 -0.330651)
(-0.143011 0.8521 -0.31313)
(-0.156606 0.925649 -0.334385)
(-0.155875 0.925436 -0.337741)
(-0.151293 0.908857 -0.330856)
(-0.149468 0.892695 -0.326776)
(-0.156116 0.929276 -0.336494)
(-0.160559 0.931767 -0.339295)
(-0.15498 0.915929 -0.328885)
(-0.148315 0.899509 -0.326704)
(-0.152765 0.884912 -0.322055)
(-0.159268 0.931377 -0.338654)
(-0.160351 0.933481 -0.338971)
(-0.158866 0.925709 -0.331957)
(-0.148465 0.859745 -0.310281)
(-0.145264 0.852088 -0.309564)
(-0.137872 0.846351 -0.309137)
(-0.145448 0.857315 -0.308607)
(-0.142325 0.860387 -0.31105)
(-0.140225 0.856662 -0.308936)
(-0.135226 0.846021 -0.308961)
(-0.137518 0.856228 -0.31007)
(-0.137172 0.852012 -0.310824)
(-0.142392 0.847761 -0.312505)
(-0.13942 0.847746 -0.315151)
(-0.140135 0.814883 -0.310567)
(-0.141932 0.812083 -0.302897)
(-0.117485 0.678458 -0.251491)
(-0.135616 0.762536 -0.295027)
(-0.113754 0.652953 -0.243812)
(-0.120358 0.699845 -0.260857)
(-0.135955 0.798412 -0.301367)
(-0.128019 0.77271 -0.289093)
(-0.132222 0.767824 -0.289445)
(-0.107819 0.631262 -0.237933)
(-0.0926642 0.560851 -0.213648)
(-0.112966 0.684367 -0.260334)
(-0.11381 0.676257 -0.257787)
(-0.107555 0.621902 -0.230994)
(-0.103687 0.581514 -0.22371)
(-0.157508 0.856554 -0.318479)
(-0.14975 0.833136 -0.310365)
(-0.135441 0.779439 -0.299347)
(-0.140968 0.813105 -0.299514)
(-0.144156 0.807585 -0.306748)
(-0.153713 0.834273 -0.313459)
(-0.146515 0.837802 -0.312038)
(-0.147323 0.822419 -0.310982)
(-0.154009 0.868008 -0.325241)
(-0.154907 0.86952 -0.325811)
(-0.159965 0.864405 -0.322168)
(-0.152208 0.865289 -0.325237)
(-0.157585 0.87342 -0.325731)
(-0.153955 0.873424 -0.326614)
(-0.147227 0.836378 -0.316017)
(-0.15095 0.839316 -0.311997)
(-0.117844 0.668407 -0.244102)
(-0.125432 0.701552 -0.261967)
(-0.120446 0.708423 -0.262024)
(-0.118188 0.671186 -0.252355)
(-0.118567 0.669773 -0.250237)
(-0.132672 0.755643 -0.273669)
(-0.15288 0.839288 -0.302981)
(-0.123298 0.697618 -0.264235)
(-0.145694 0.816845 -0.297369)
(-0.115749 0.70003 -0.251823)
(-0.121707 0.681343 -0.250905)
(-0.115256 0.648722 -0.237668)
(-0.144261 0.810925 -0.299533)
(-0.146984 0.826983 -0.298819)
(-0.145854 0.819704 -0.293467)
(-0.145282 0.838749 -0.310472)
(-0.123646 0.678336 -0.251134)
(-0.127388 0.705963 -0.257617)
(-0.147799 0.859492 -0.318174)
(-0.151379 0.863525 -0.318761)
(-0.149958 0.867197 -0.320271)
(-0.151527 0.870848 -0.320697)
(-0.155677 0.870908 -0.31973)
(-0.154162 0.872557 -0.321401)
(-0.151357 0.873017 -0.32509)
(-0.157955 0.879473 -0.324723)
(-0.154443 0.875083 -0.324661)
(-0.15715 0.875519 -0.327227)
(-0.139206 0.799798 -0.304773)
(-0.140446 0.807054 -0.307873)
(-0.136871 0.805085 -0.306423)
(-0.138853 0.818731 -0.309706)
(-0.138647 0.815677 -0.310002)
(-0.143231 0.815686 -0.310185)
(-0.158369 0.907647 -0.331031)
(-0.15825 0.908474 -0.329669)
(-0.158847 0.907127 -0.329699)
(-0.15743 0.880634 -0.317741)
(-0.155552 0.874525 -0.316694)
(-0.153817 0.879065 -0.31753)
(-0.15979 0.909389 -0.329014)
(-0.15964 0.893281 -0.323376)
(-0.155493 0.871184 -0.319565)
(-0.156531 0.884731 -0.323197)
(-0.163352 0.898191 -0.330263)
(-0.156056 0.877392 -0.316638)
(-0.15783 0.883183 -0.322945)
(-0.108508 0.677113 -0.249765)
(-0.100706 0.622182 -0.232972)
(-0.109482 0.67548 -0.252799)
(-0.113535 0.702608 -0.263275)
(-0.113665 0.698898 -0.257682)
(-0.105803 0.652781 -0.241041)
(-0.101839 0.621579 -0.225728)
(-0.123828 0.78806 -0.28838)
(-0.125925 0.779478 -0.286884)
(-0.124015 0.778355 -0.28375)
(-0.126892 0.794718 -0.292581)
(-0.117081 0.718934 -0.260725)
(-0.132134 0.823303 -0.303527)
(-0.129412 0.80729 -0.298216)
(-0.129147 0.805519 -0.296263)
(-0.123569 0.777574 -0.289541)
(-0.115328 0.720153 -0.266242)
(-0.11152 0.705939 -0.261656)
(-0.124504 0.785904 -0.290566)
(-0.132491 0.81394 -0.299344)
(-0.135068 0.835047 -0.307997)
(-0.110266 0.660668 -0.240234)
(-0.097257 0.61122 -0.226206)
(-0.10753 0.660982 -0.242876)
(-0.115366 0.701815 -0.257376)
(-0.126922 0.793853 -0.293895)
(-0.142244 0.858877 -0.311933)
(-0.134438 0.836413 -0.30539)
(-0.129978 0.816586 -0.297215)
(-0.133792 0.834893 -0.301506)
(-0.113868 0.699436 -0.256261)
(-0.128886 0.807922 -0.293856)
(-0.128277 0.797607 -0.29313)
(-0.127458 0.780593 -0.284711)
(-0.103608 0.646882 -0.242476)
(-0.0982621 0.612759 -0.227385)
(-0.112099 0.695639 -0.26254)
(-0.123211 0.781253 -0.287576)
(-0.113646 0.696987 -0.249446)
(-0.113152 0.685093 -0.248819)
(-0.103919 0.639892 -0.237463)
(-0.118194 0.734278 -0.271121)
(-0.127015 0.754033 -0.276993)
(-0.125485 0.797466 -0.293473)
(-0.115926 0.726325 -0.267199)
(-0.146466 0.874885 -0.320408)
(-0.146421 0.862074 -0.317191)
(-0.140252 0.824566 -0.297762)
(-0.147412 0.842371 -0.307637)
(-0.138909 0.828133 -0.296656)
(-0.14474 0.869472 -0.314456)
(-0.146009 0.877625 -0.321185)
(-0.139917 0.851816 -0.309113)
(-0.147614 0.893422 -0.330639)
(-0.147482 0.893806 -0.330809)
(-0.14949 0.892248 -0.334576)
(-0.148964 0.897287 -0.331262)
(-0.143578 0.876214 -0.328336)
(-0.140786 0.872026 -0.32624)
(-0.141887 0.882042 -0.328261)
(-0.147636 0.890548 -0.333939)
(-0.141705 0.875473 -0.323703)
(-0.140034 0.870166 -0.323326)
(-0.146981 0.897351 -0.331905)
(-0.150114 0.901372 -0.331907)
(-0.149965 0.895891 -0.335395)
(-0.146115 0.887961 -0.331407)
(-0.147719 0.892002 -0.33024)
(-0.143166 0.888278 -0.328658)
(-0.149721 0.901776 -0.332096)
(-0.146689 0.89547 -0.334089)
(-0.143001 0.850737 -0.31347)
(-0.135529 0.800108 -0.292098)
(-0.14235 0.835042 -0.30081)
(-0.138446 0.81204 -0.297957)
(-0.137492 0.83502 -0.301628)
(-0.14268 0.85973 -0.311322)
(-0.150758 0.907275 -0.327879)
(-0.150183 0.906381 -0.327033)
(-0.153943 0.914838 -0.33505)
(-0.143979 0.878214 -0.316979)
(-0.148399 0.870191 -0.315276)
(-0.144604 0.850454 -0.311445)
(-0.140829 0.840143 -0.304714)
(-0.152051 0.916942 -0.331121)
(-0.14738 0.915238 -0.32933)
(-0.147539 0.861309 -0.308018)
(-0.151741 0.897763 -0.325988)
(-0.156144 0.911102 -0.333687)
(-0.150182 0.876391 -0.319556)
(-0.122915 0.752124 -0.27346)
(-0.127891 0.764231 -0.277172)
(-0.110681 0.675695 -0.253118)
(-0.117679 0.729279 -0.271322)
(-0.117285 0.741702 -0.276766)
(-0.118835 0.716412 -0.259495)
(-0.124671 0.80521 -0.291557)
(-0.12224 0.800886 -0.290593)
(-0.12888 0.823509 -0.298347)
(-0.124095 0.809104 -0.294444)
(-0.113967 0.698943 -0.252312)
(-0.13171 0.818289 -0.297203)
(-0.129001 0.807026 -0.291164)
(-0.133484 0.836796 -0.30351)
(-0.138106 0.852979 -0.309677)
(-0.134713 0.844382 -0.307572)
(-0.126871 0.826473 -0.298572)
(-0.125479 0.814068 -0.293898)
(-0.12584 0.820759 -0.297637)
(-0.131501 0.826794 -0.297121)
(-0.128627 0.808033 -0.29124)
(-0.149398 0.87588 -0.317699)
(-0.148684 0.875375 -0.320934)
(-0.1473 0.878522 -0.319666)
(-0.148598 0.878878 -0.320231)
(-0.146412 0.873419 -0.320122)
(-0.146664 0.876542 -0.317241)
(-0.147786 0.882072 -0.316966)
(-0.146315 0.886184 -0.319855)
(-0.144101 0.881946 -0.318898)
(-0.145443 0.879323 -0.316616)
(-0.145477 0.876582 -0.314071)
(-0.143534 0.873497 -0.317257)
(-0.143106 0.877647 -0.317878)
(-0.145252 0.877648 -0.314293)
(-0.14674 0.874365 -0.317964)
(-0.140605 0.873766 -0.316285)
(-0.144963 0.877145 -0.316522)
(-0.143242 0.868743 -0.318809)
(-0.151393 0.85337 -0.318521)
(-0.152779 0.858274 -0.320552)
(-0.121707 0.706465 -0.267071)
(-0.124296 0.724869 -0.276373)
(-0.148184 0.848422 -0.321845)
(-0.150719 0.859981 -0.321396)
(-0.149173 0.835524 -0.313657)
(-0.125248 0.696235 -0.264849)
(-0.134585 0.754136 -0.28748)
(-0.123145 0.698037 -0.264121)
(-0.130455 0.716356 -0.27028)
(-0.142238 0.809913 -0.303961)
(-0.144271 0.820575 -0.301304)
(-0.142545 0.806256 -0.301437)
(-0.131636 0.725403 -0.268976)
(-0.124688 0.704113 -0.25988)
(-0.125246 0.705853 -0.2703)
(-0.149097 0.823171 -0.310512)
(-0.149326 0.83061 -0.312765)
(-0.142682 0.790634 -0.297125)
(-0.133584 0.738088 -0.26887)
(-0.113186 0.647276 -0.238136)
(-0.135466 0.727282 -0.264635)
(-0.132015 0.726444 -0.259496)
(-0.114052 0.663111 -0.247955)
(-0.149612 0.80955 -0.298725)
(-0.136902 0.734295 -0.270073)
(-0.143911 0.756506 -0.271518)
(-0.152546 0.857747 -0.326378)
(-0.149015 0.863757 -0.327366)
(-0.155382 0.872693 -0.326913)
(-0.153873 0.871847 -0.327586)
(-0.140949 0.829366 -0.315331)
(-0.15262 0.865678 -0.325148)
(-0.154141 0.863859 -0.32482)
(-0.145939 0.835931 -0.313994)
(-0.143983 0.815305 -0.309081)
(-0.14175 0.814609 -0.308026)
(-0.147939 0.82941 -0.31155)
(-0.147431 0.834046 -0.314574)
(-0.141495 0.811199 -0.303922)
(-0.140812 0.792597 -0.298764)
(-0.113454 0.677024 -0.248204)
(-0.113905 0.664648 -0.243779)
(-0.104314 0.641398 -0.239955)
(-0.102486 0.613025 -0.223198)
(-0.117193 0.686002 -0.253856)
(-0.109287 0.648751 -0.237709)
(-0.0974044 0.613724 -0.224642)
(-0.0994505 0.640568 -0.236725)
(-0.0922249 0.59024 -0.223195)
(-0.124392 0.761056 -0.280799)
(-0.121841 0.78866 -0.291722)
(-0.104955 0.652642 -0.236695)
(-0.110601 0.689166 -0.255562)
(-0.109284 0.676705 -0.250693)
(-0.105449 0.649317 -0.237801)
(-0.128565 0.81325 -0.295353)
(-0.127877 0.788893 -0.285367)
(-0.120733 0.758974 -0.275378)
(-0.125436 0.756612 -0.277643)
(-0.12937 0.78277 -0.286473)
(-0.124305 0.770192 -0.272128)
(-0.116709 0.709424 -0.257861)
(-0.114114 0.680034 -0.250311)
(-0.122498 0.726521 -0.264682)
(-0.117945 0.702793 -0.243348)
(-0.108498 0.685513 -0.247489)
(-0.122928 0.687035 -0.247291)
(-0.111171 0.675953 -0.241776)
(-0.12693 0.775755 -0.279929)
(-0.113168 0.675181 -0.243951)
(-0.104719 0.610042 -0.221705)
(-0.108391 0.606936 -0.23009)
(-0.122956 0.734691 -0.269307)
(-0.130933 0.726409 -0.266811)
(-0.118974 0.6978 -0.256471)
(-0.153356 0.87402 -0.321974)
(-0.146446 0.837405 -0.309606)
(-0.12606 0.725447 -0.266173)
(-0.155919 0.87545 -0.32316)
(-0.152479 0.869752 -0.319996)
(-0.148577 0.838472 -0.307426)
(-0.153175 0.843153 -0.306983)
(-0.154057 0.85066 -0.313944)
(-0.135741 0.7835 -0.288211)
(-0.125796 0.720013 -0.268006)
(-0.124923 0.709955 -0.257229)
(-0.149471 0.863761 -0.315841)
(-0.151195 0.842198 -0.305986)
(-0.147765 0.835916 -0.307921)
(-0.158339 0.888031 -0.329154)
(-0.136479 0.77448 -0.281784)
(-0.157481 0.915297 -0.342109)
(-0.160507 0.926519 -0.339247)
(-0.161496 0.912177 -0.336729)
(-0.160824 0.913683 -0.340049)
(-0.156468 0.912345 -0.334163)
(-0.158218 0.921728 -0.33521)
(-0.158318 0.916724 -0.339834)
(-0.159081 0.911658 -0.337677)
(-0.158085 0.90913 -0.338213)
(-0.158338 0.906144 -0.335983)
(-0.160511 0.911976 -0.337709)
(-0.156601 0.909196 -0.335015)
(-0.162665 0.91895 -0.33703)
(-0.158995 0.91623 -0.338773)
(-0.160699 0.923289 -0.337489)
(-0.162094 0.922784 -0.33936)
(-0.157603 0.907894 -0.337725)
(-0.158332 0.919421 -0.337379)
(-0.156492 0.911215 -0.333919)
(-0.160704 0.925009 -0.338812)
(-0.132223 0.813512 -0.294911)
(-0.127942 0.781578 -0.288889)
(-0.134328 0.81712 -0.300708)
(-0.137351 0.82851 -0.303686)
(-0.135161 0.820342 -0.298921)
(-0.147514 0.893116 -0.331061)
(-0.140603 0.87057 -0.324287)
(-0.141401 0.880584 -0.326259)
(-0.126152 0.772593 -0.286862)
(-0.138139 0.833213 -0.309699)
(-0.148143 0.894708 -0.327846)
(-0.14087 0.864471 -0.318937)
(-0.148408 0.91162 -0.335244)
(-0.15009 0.909862 -0.336467)
(-0.145537 0.895826 -0.330019)
(-0.152309 0.915934 -0.33796)
(-0.150896 0.91779 -0.335338)
(-0.142337 0.879452 -0.321012)
(-0.148247 0.916423 -0.337164)
(-0.150858 0.917757 -0.335836)
(-0.142397 0.881407 -0.324697)
(-0.133647 0.72959 -0.274802)
(-0.121995 0.679842 -0.246551)
(-0.122328 0.690099 -0.253571)
(-0.119956 0.654579 -0.241128)
(-0.134735 0.745668 -0.275408)
(-0.137712 0.72495 -0.269223)
(-0.151037 0.831385 -0.308762)
(-0.147272 0.823482 -0.305051)
(-0.134956 0.714094 -0.265379)
(-0.124805 0.67577 -0.252121)
(-0.13724 0.740039 -0.27679)
(-0.150399 0.819093 -0.303783)
(-0.161401 0.886996 -0.328866)
(-0.159176 0.892724 -0.324452)
(-0.161671 0.891103 -0.326987)
(-0.157485 0.858722 -0.317765)
(-0.155352 0.856046 -0.314326)
(-0.156269 0.883095 -0.322333)
(-0.158896 0.89749 -0.326564)
(-0.161774 0.899769 -0.329574)
(-0.152682 0.836826 -0.307555)
(-0.157397 0.847798 -0.310141)
(-0.158416 0.872488 -0.32102)
(-0.155994 0.865272 -0.317577)
(-0.152166 0.844596 -0.310108)
(-0.155824 0.857458 -0.31453)
(-0.156383 0.883544 -0.322251)
(-0.156765 0.885809 -0.322645)
(-0.15414 0.854837 -0.312146)
(-0.155315 0.862552 -0.317685)
(-0.134018 0.829756 -0.310741)
(-0.127655 0.820307 -0.304454)
(-0.128562 0.807887 -0.304791)
(-0.121088 0.763889 -0.291102)
(-0.121313 0.754173 -0.276038)
(-0.118469 0.742724 -0.274381)
(-0.131783 0.836878 -0.312307)
(-0.13311 0.828824 -0.311107)
(-0.124949 0.809761 -0.302069)
(-0.130594 0.815148 -0.301075)
(-0.121133 0.738543 -0.271909)
(-0.119809 0.751685 -0.276908)
(-0.12365 0.797231 -0.298062)
(-0.118418 0.7811 -0.286608)
(-0.125898 0.816487 -0.301798)
(-0.131178 0.836252 -0.307386)
(-0.12634 0.813462 -0.302557)
(-0.127427 0.821386 -0.307455)
(-0.137652 0.794763 -0.299666)
(-0.13772 0.780845 -0.29699)
(-0.152585 0.864968 -0.327741)
(-0.149817 0.866024 -0.32851)
(-0.140495 0.805317 -0.30483)
(-0.150217 0.851054 -0.323357)
(-0.153493 0.849166 -0.320021)
(-0.145942 0.832267 -0.315732)
(-0.151282 0.86685 -0.327356)
(-0.130807 0.747258 -0.277749)
(-0.152516 0.850034 -0.316354)
(-0.158139 0.860884 -0.32267)
(-0.147582 0.809612 -0.303563)
(-0.132559 0.742633 -0.279632)
(-0.140341 0.804393 -0.3023)
(-0.134128 0.745269 -0.27154)
(-0.122943 0.706926 -0.261274)
(-0.128585 0.740913 -0.277097)
(-0.15277 0.851162 -0.310362)
(-0.147522 0.828249 -0.3019)
(-0.153801 0.86628 -0.321404)
(-0.131576 0.714485 -0.270266)
(-0.135463 0.729764 -0.276445)
(-0.146601 0.837454 -0.305094)
(-0.13731 0.756054 -0.277937)
(-0.154966 0.864843 -0.317507)
(-0.146638 0.835192 -0.303575)
(-0.114935 0.720772 -0.263473)
(-0.110717 0.661379 -0.247563)
(-0.120316 0.725959 -0.262783)
(-0.111733 0.695618 -0.252146)
(-0.111802 0.693603 -0.263069)
(-0.102554 0.620664 -0.240127)