/*--------------------------------*- C++ -*----------------------------------*\
| =========                 |                                                 |
| \\      /  F ield         | OpenFOAM: The Open Source CFD Toolbox           |
|  \\    /   O peration     | Version:  v1612+                                |
|   \\  /    A nd           | Web:      www.OpenFOAM.com                      |
|    \\/     M anipulation  |                                                 |
\*---------------------------------------------------------------------------*/
FoamFile
{
    version     2.0;
    format      ascii;
    class       volVectorField;
    location    "150";
    object      wallShearStress;
}
// * * * * * * * * * * * * * * * * * * * * * * * * * * * * * * * * * * * * * //

dimensions      [0 2 -2 0 0 0 0];

internalField   uniform (0 0 0);

boundaryField
{
    WALL
    {
        type            calculated;
        value           nonuniform List<vector> 
1505
(
(0.00277965 -0.0146088 0.00510226)
(0.00244055 -0.0148151 0.00561135)
(0.00254342 -0.0148103 0.00535958)
(0.00232709 -0.0142923 0.00522566)
(0.00234236 -0.0143809 0.00531382)
(0.00218845 -0.0131863 0.00484252)
(0.00220127 -0.0139582 0.00505477)
(0.00221056 -0.0135917 0.00492874)
(0.00237022 -0.0135532 0.00498628)
(0.00264091 -0.0148495 0.00524855)
(0.00243471 -0.0141758 0.0051354)
(0.00247478 -0.0141717 0.00529208)
(0.00243979 -0.0142145 0.00533516)
(0.00244205 -0.0152176 0.00577785)
(0.00256479 -0.0147668 0.00533463)
(0.00231956 -0.0135616 0.00501778)
(0.00251081 -0.0141819 0.00521825)
(0.00217504 -0.0138358 0.00527358)
(0.0025703 -0.0153425 0.005563)
(0.00258808 -0.015156 0.00547938)
(0.00260156 -0.0157071 0.00586636)
(0.00290813 -0.0155377 0.00540052)
(0.00239183 -0.0143014 0.00536234)
(0.00244058 -0.0143102 0.00532747)
(0.00238241 -0.0141054 0.00527265)
(0.00208896 -0.0140896 0.00560136)
(0.002719 -0.0153941 0.00563178)
(0.0026742 -0.0158767 0.00589031)
(0.00281606 -0.0162614 0.00600918)
(0.00266552 -0.0150336 0.00553608)
(0.00238587 -0.0153005 0.0058315)
(0.002458 -0.0153289 0.00586063)
(0.00223468 -0.0139878 0.00532336)
(0.0020918 -0.0134976 0.00507652)
(0.00212769 -0.0132385 0.00494016)
(0.00213196 -0.0132866 0.00501856)
(0.00207943 -0.0140923 0.00541349)
(0.00237591 -0.0142952 0.00535263)
(0.00249699 -0.0156046 0.00567478)
(0.00253016 -0.0145266 0.00565188)
(0.00257051 -0.0146816 0.00540436)
(0.00246039 -0.0146825 0.00541398)
(0.00253033 -0.0147276 0.00524336)
(0.00233637 -0.0150037 0.00561736)
(0.00252608 -0.0149357 0.0055558)
(0.00254393 -0.0149685 0.00537803)
(0.00246562 -0.0147408 0.00536352)
(0.00218361 -0.0136798 0.00516925)
(0.00216606 -0.0141661 0.0053035)
(0.00235339 -0.0142731 0.00555812)
(0.00225742 -0.0142615 0.00530086)
(0.00236007 -0.01374 0.00525872)
(0.00237774 -0.0138859 0.00522838)
(0.00230746 -0.0137183 0.00494815)
(0.0022315 -0.0133133 0.00487104)
(0.0021621 -0.0140219 0.00500609)
(0.00205097 -0.0133897 0.00462695)
(0.00234718 -0.0133846 0.00506632)
(0.00217142 -0.0144798 0.00527643)
(0.00238094 -0.0139788 0.00518523)
(0.00258577 -0.013413 0.00497244)
(0.00245458 -0.0138165 0.00507067)
(0.00261809 -0.0137702 0.00523291)
(0.0022744 -0.0138009 0.00508252)
(0.00243112 -0.0142314 0.00528638)
(0.0025629 -0.0137493 0.00504612)
(0.00228533 -0.013828 0.00528151)
(0.00239448 -0.0144956 0.00538802)
(0.00235126 -0.0142673 0.00525074)
(0.0023152 -0.0145814 0.00540447)
(0.00245236 -0.0144479 0.00529595)
(0.00245973 -0.0143101 0.00533013)
(0.00248783 -0.0137117 0.00507856)
(0.00225769 -0.0147712 0.00555246)
(0.00242682 -0.0148966 0.0055726)
(0.00256413 -0.0148808 0.00563036)
(0.00252163 -0.014467 0.00530016)
(0.00225116 -0.0135703 0.00505854)
(0.00236961 -0.0140277 0.00517922)
(0.00232771 -0.0136298 0.00509744)
(0.00288022 -0.0169994 0.00613002)
(0.00275204 -0.0164977 0.00616929)
(0.00284166 -0.0163155 0.00615889)
(0.00307571 -0.0169613 0.00621571)
(0.00276904 -0.0164226 0.00591857)
(0.00274436 -0.0163337 0.00601926)
(0.00261501 -0.0152498 0.00585895)
(0.00283929 -0.0162543 0.00569418)
(0.0024291 -0.0156175 0.0058686)
(0.00252293 -0.0153971 0.00547993)
(0.00271575 -0.0159637 0.00573948)
(0.00265506 -0.0160101 0.00578371)
(0.00279491 -0.0163902 0.00602563)
(0.00241789 -0.0150687 0.0056248)
(0.00268413 -0.0158958 0.00566664)
(0.00268574 -0.0163849 0.00585949)
(0.00245843 -0.0139847 0.00511647)
(0.00234039 -0.0140038 0.00493946)
(0.00230211 -0.0137476 0.00525031)
(0.0024448 -0.0141711 0.00528436)
(0.00234637 -0.0142535 0.00524525)
(0.00239865 -0.0141581 0.00544238)
(0.00236067 -0.0150683 0.00579409)
(0.00247198 -0.0147281 0.00546153)
(0.0024129 -0.0148766 0.00579403)
(0.00244876 -0.0148354 0.00570867)
(0.00241258 -0.014723 0.00549073)
(0.00256802 -0.015214 0.00548238)
(0.00241914 -0.0140864 0.00525984)
(0.00237465 -0.0137299 0.00494124)
(0.0023052 -0.014027 0.00523282)
(0.00232975 -0.0136913 0.0052292)
(0.00233572 -0.0140092 0.00519159)
(0.00244036 -0.014529 0.0056895)
(0.00253163 -0.0145669 0.00561674)
(0.0029068 -0.0155066 0.0060036)
(0.00283878 -0.0152304 0.00531541)
(0.00227109 -0.0138669 0.00531878)
(0.00259396 -0.0141784 0.00518412)
(0.00250698 -0.0150037 0.00574234)
(0.00274696 -0.0154994 0.00567659)
(0.00265782 -0.014996 0.00532272)
(0.00262143 -0.015301 0.00575057)
(0.00257843 -0.0155883 0.00563146)
(0.00250884 -0.0148879 0.00570344)
(0.00251196 -0.0145683 0.00509277)
(0.00249924 -0.0143352 0.00556049)
(0.00244598 -0.0138974 0.00512805)
(0.00253835 -0.014748 0.00573052)
(0.0026648 -0.0146635 0.00515911)
(0.00234498 -0.0146967 0.00563174)
(0.00256346 -0.01483 0.00542163)
(0.0024224 -0.0148431 0.00566708)
(0.00238444 -0.0144644 0.0054346)
(0.00240989 -0.0147936 0.00578199)
(0.00250174 -0.014614 0.00526816)
(0.00271815 -0.0153637 0.00566468)
(0.00240801 -0.0143873 0.00513148)
(0.00232493 -0.0139897 0.00527599)
(0.00243866 -0.014371 0.00531441)
(0.00237125 -0.0144732 0.00520024)
(0.00265217 -0.0146632 0.00565063)
(0.00234209 -0.0146075 0.00511866)
(0.00226394 -0.0137552 0.00520316)
(0.00233747 -0.0146913 0.00549746)
(0.00228526 -0.0140668 0.00529616)
(0.00265141 -0.0141604 0.00543603)
(0.00223293 -0.0145485 0.00531444)
(0.00233603 -0.0143212 0.00537747)
(0.00247308 -0.0138652 0.00525047)
(0.00249549 -0.0136825 0.00514178)
(0.00276678 -0.0143787 0.00538311)
(0.00231054 -0.0143732 0.00532303)
(0.00233884 -0.0140431 0.00532324)
(0.00223115 -0.0138568 0.00517911)
(0.0024189 -0.0139626 0.00525569)
(0.00244667 -0.014584 0.00542083)
(0.00249164 -0.014362 0.0054143)
(0.00237807 -0.0144707 0.0052711)
(0.00225726 -0.0141235 0.00530167)
(0.00225815 -0.0145193 0.00523283)
(0.002599 -0.0148743 0.00551607)
(0.00268586 -0.0149007 0.00572035)
(0.00249824 -0.0146064 0.00581264)
(0.00273493 -0.0150872 0.00586673)
(0.00272564 -0.0153073 0.00587039)
(0.00232228 -0.0135995 0.00502619)
(0.00265387 -0.0148805 0.00555036)
(0.00264427 -0.0153849 0.00524895)
(0.00228938 -0.0142945 0.00503248)
(0.00247067 -0.0152945 0.00544364)
(0.00253521 -0.0147563 0.00553078)
(0.00253946 -0.0149544 0.0054456)
(0.00261857 -0.0148787 0.00548814)
(0.00273883 -0.0148189 0.00550676)
(0.00263805 -0.0155505 0.0056918)
(0.00252154 -0.0159113 0.00612097)
(0.0027748 -0.0156371 0.00550022)
(0.00274079 -0.0154391 0.00550725)
(0.00273984 -0.0161556 0.00621434)
(0.00281246 -0.0158238 0.00575968)
(0.00292822 -0.0156075 0.00593786)
(0.00267305 -0.0157679 0.00556539)
(0.00263077 -0.0151535 0.00577147)
(0.00271207 -0.0154465 0.00562092)
(0.0026879 -0.0151105 0.00564406)
(0.00268224 -0.0164685 0.00584313)
(0.00286711 -0.0164653 0.00600682)
(0.00270149 -0.0160576 0.00592703)
(0.00271914 -0.0159451 0.00571122)
(0.00292268 -0.016413 0.00608323)
(0.00282574 -0.0161839 0.00600487)
(0.00265646 -0.0158975 0.00582051)
(0.00274556 -0.0165659 0.00598473)
(0.00269544 -0.0159856 0.00602171)
(0.00255318 -0.0156196 0.005727)
(0.00263113 -0.0159776 0.00593931)
(0.00279419 -0.0167558 0.00604831)
(0.00210595 -0.0132203 0.00489942)
(0.00226263 -0.0133503 0.00487868)
(0.00231138 -0.0136534 0.00512555)
(0.00214655 -0.0135571 0.00514816)
(0.00220597 -0.0134546 0.00503661)
(0.00229046 -0.0136832 0.00515345)
(0.00215094 -0.0140239 0.00524992)
(0.00255075 -0.0142978 0.0052238)
(0.00244841 -0.0141998 0.00546633)
(0.00246112 -0.0139155 0.00491985)
(0.00250282 -0.0144706 0.00539743)
(0.00247059 -0.0140504 0.00531148)
(0.00244258 -0.0138294 0.00516992)
(0.00240667 -0.0138697 0.00509346)
(0.0021699 -0.0138963 0.00549605)
(0.00215979 -0.0140003 0.00556183)
(0.00238504 -0.0137997 0.00523289)
(0.00254756 -0.0145198 0.00530963)
(0.00255666 -0.0140872 0.00517307)
(0.00224386 -0.0137237 0.00524124)
(0.00243307 -0.0139506 0.0051236)
(0.00216537 -0.0140449 0.00523743)
(0.00232168 -0.0143657 0.00543412)
(0.00218251 -0.01347 0.00514721)
(0.00231697 -0.0136536 0.00499598)
(0.00227792 -0.0138128 0.00512521)
(0.00243391 -0.0141836 0.00519426)
(0.00225302 -0.0138487 0.00523008)
(0.00243354 -0.0139083 0.00509688)
(0.00229921 -0.0140198 0.0052209)
(0.00220802 -0.0136125 0.00499316)
(0.00216252 -0.0131638 0.00479542)
(0.00204304 -0.0135824 0.00503953)
(0.00227196 -0.0138154 0.0050319)
(0.00223639 -0.0133584 0.00486787)
(0.00252522 -0.0132498 0.00500548)
(0.00214847 -0.0141479 0.0052838)
(0.00235243 -0.0137949 0.00510942)
(0.00233874 -0.0138569 0.00516583)
(0.00231187 -0.0139281 0.0051488)
(0.00234835 -0.0138351 0.00521261)
(0.00233515 -0.0140422 0.00534058)
(0.00240764 -0.013681 0.00517107)
(0.00239698 -0.0143198 0.00539087)
(0.0022892 -0.0136041 0.00499866)
(0.00229207 -0.0141369 0.00522999)
(0.00233211 -0.0140456 0.00524302)
(0.00258427 -0.0133877 0.00496465)
(0.00212183 -0.0135751 0.00512188)
(0.00198465 -0.0137918 0.00502535)
(0.00239346 -0.0135356 0.00506892)
(0.002795 -0.0140633 0.00535915)
(0.002191 -0.0130457 0.00481918)
(0.00229884 -0.0134789 0.00506479)
(0.00236236 -0.0136646 0.00539176)
(0.00227888 -0.0136875 0.00514943)
(0.00236949 -0.013548 0.00525246)
(0.00219673 -0.0129957 0.0049473)
(0.00229894 -0.0138039 0.00518166)
(0.00230548 -0.0130562 0.00478096)
(0.00223605 -0.0133588 0.00490363)
(0.00246448 -0.0132429 0.00502672)
(0.00229736 -0.0130933 0.00476681)
(0.00225653 -0.0133193 0.00496068)
(0.00245297 -0.0134892 0.00496792)
(0.00244968 -0.0146218 0.00547392)
(0.00240525 -0.0148918 0.00568348)
(0.00254033 -0.0148031 0.00550067)
(0.00257598 -0.0150008 0.00563891)
(0.00249461 -0.0147598 0.0055823)
(0.00269233 -0.0151162 0.00548472)
(0.00250776 -0.01494 0.00556802)
(0.00255226 -0.0149701 0.00569327)
(0.00234559 -0.0147635 0.00547401)
(0.00250983 -0.0146477 0.00544585)
(0.00226884 -0.0142694 0.00539645)
(0.00241142 -0.0143751 0.00526457)
(0.00216528 -0.0139905 0.00521867)
(0.00249737 -0.0144096 0.00548052)
(0.0024216 -0.0140926 0.00538605)
(0.00263047 -0.0148294 0.00570082)
(0.00234394 -0.0141819 0.0053339)
(0.00240147 -0.0142559 0.00541741)
(0.00245885 -0.0142261 0.00531977)
(0.00241018 -0.0140097 0.00521174)
(0.00238697 -0.0141672 0.00529715)
(0.00250178 -0.0146704 0.005553)
(0.00227285 -0.0138448 0.0051211)
(0.00210908 -0.0131901 0.00500263)
(0.00225978 -0.0140433 0.00534207)
(0.00213471 -0.0140248 0.00511113)
(0.00250814 -0.0135022 0.00499)
(0.00235037 -0.0144695 0.00517567)
(0.00245785 -0.0150172 0.00540922)
(0.00241407 -0.0148778 0.00541069)
(0.00245754 -0.0145322 0.00542142)
(0.00264476 -0.015088 0.00552832)
(0.00261027 -0.014706 0.00549163)
(0.00231466 -0.0146041 0.0053704)
(0.00231315 -0.014973 0.0052555)
(0.00228532 -0.0143236 0.00530366)
(0.00246922 -0.0148957 0.00565226)
(0.00231424 -0.0141768 0.00513586)
(0.0022062 -0.0141231 0.00505101)
(0.00241384 -0.0150387 0.00563358)
(0.00293943 -0.0149444 0.00557465)
(0.00248091 -0.0154692 0.00570356)
(0.002764 -0.015004 0.00563277)
(0.0023236 -0.0153167 0.005571)
(0.00249318 -0.0148709 0.00557673)
(0.00253886 -0.014958 0.00560834)
(0.00213185 -0.0149137 0.00554587)
(0.00267042 -0.0151927 0.00558216)
(0.00247116 -0.0143675 0.00534106)
(0.00213531 -0.014873 0.00570928)
(0.00246639 -0.0145695 0.00554309)
(0.00244271 -0.0139425 0.00526448)
(0.00255702 -0.0146549 0.00548169)
(0.00242755 -0.0147162 0.0055374)
(0.00270384 -0.0154948 0.00575673)
(0.00257845 -0.0143122 0.00546605)
(0.00243278 -0.01449 0.00539457)
(0.00232181 -0.0144894 0.00531274)
(0.00243123 -0.0146383 0.00541583)
(0.00244499 -0.0145137 0.00537672)
(0.00250524 -0.0144608 0.00520925)
(0.0023254 -0.0143235 0.00529324)
(0.00235013 -0.0142785 0.0052417)
(0.00237274 -0.0145064 0.0053207)
(0.00240023 -0.0141343 0.00519139)
(0.00259533 -0.0154575 0.00591021)
(0.00263298 -0.0156094 0.00581959)
(0.00282992 -0.0161921 0.00597402)
(0.0026567 -0.0157797 0.0059357)
(0.00292136 -0.0164176 0.0060595)
(0.00264571 -0.0155622 0.00582935)
(0.00266401 -0.0152254 0.00560178)
(0.00258818 -0.0154933 0.00581146)
(0.00280626 -0.0159363 0.00583264)
(0.00270663 -0.0156207 0.00576276)
(0.00234045 -0.0151479 0.00560331)
(0.00251966 -0.0152734 0.00563343)
(0.00238877 -0.0150076 0.00568214)
(0.00238785 -0.0145929 0.00536259)
(0.00265163 -0.0147868 0.00542856)
(0.00259016 -0.0146905 0.00531016)
(0.00238541 -0.0151809 0.00558749)
(0.00226711 -0.0146869 0.00548007)
(0.00252404 -0.0148124 0.00554824)
(0.0024508 -0.0153051 0.00566897)
(0.0025753 -0.0151513 0.00557368)
(0.00262865 -0.0152967 0.0055336)
(0.00264055 -0.0150029 0.00541021)
(0.00270428 -0.0149843 0.00542912)
(0.00256397 -0.0156982 0.00574625)
(0.00247681 -0.0157432 0.00586104)
(0.0027398 -0.0153804 0.00569845)
(0.00273752 -0.015865 0.00584578)
(0.00266586 -0.0156747 0.0058177)
(0.00259804 -0.0153396 0.00578965)
(0.00265741 -0.0153991 0.00576369)
(0.00250805 -0.0150151 0.00549266)
(0.00250047 -0.0149129 0.0054791)
(0.00268743 -0.01498 0.00554308)
(0.00294367 -0.0151984 0.00564)
(0.00237087 -0.0138464 0.00507449)
(0.00250861 -0.0139173 0.00515503)
(0.00236952 -0.0138394 0.00507712)
(0.00230323 -0.0141465 0.00528322)
(0.00235232 -0.0137748 0.00517013)
(0.00230041 -0.0140662 0.00531197)
(0.00211698 -0.0139058 0.00521421)
(0.00239168 -0.014207 0.00518328)
(0.00238149 -0.0141692 0.00519348)
(0.00238054 -0.0142093 0.00524238)
(0.00244089 -0.0143527 0.00525681)
(0.00238636 -0.0139869 0.00515048)
(0.00221599 -0.0137071 0.00527672)
(0.00230167 -0.0141907 0.00509233)
(0.00225329 -0.0144976 0.00523604)
(0.00211133 -0.0136464 0.00527223)
(0.00226457 -0.0141272 0.00545229)
(0.00214713 -0.0137022 0.004895)
(0.00227442 -0.0146865 0.00593039)
(0.00219394 -0.0147653 0.00521085)
(0.00227511 -0.0134065 0.00495614)
(0.00227575 -0.013888 0.00508865)
(0.00232216 -0.0141749 0.00517548)
(0.00235637 -0.0137682 0.00514641)
(0.00232658 -0.0140228 0.00515621)
(0.00267783 -0.0155324 0.00582358)
(0.00241931 -0.0153296 0.00567352)
(0.00254778 -0.0135174 0.0050864)
(0.0022412 -0.0143146 0.00519771)
(0.0024238 -0.0144529 0.00551645)
(0.00236222 -0.0142451 0.00519999)
(0.00200442 -0.0136226 0.00511917)
(0.00236405 -0.0150187 0.0055454)
(0.00264052 -0.0147328 0.00574683)
(0.00257003 -0.0146147 0.00566804)
(0.00259705 -0.0147497 0.00574549)
(0.00242558 -0.0142553 0.00517565)
(0.00242774 -0.0145758 0.00548864)
(0.00237797 -0.014611 0.00544242)
(0.0025687 -0.0149634 0.00551389)
(0.00245192 -0.0143388 0.00536632)
(0.00239855 -0.014749 0.0056228)
(0.00235346 -0.014416 0.00534798)
(0.0026072 -0.0144619 0.00534008)
(0.00228712 -0.0132703 0.00502615)
(0.00229488 -0.0130112 0.00468527)
(0.0022157 -0.0135752 0.00470668)
(0.0021263 -0.0138489 0.00511141)
(0.00214361 -0.0133461 0.00483846)
(0.00198663 -0.0127499 0.00449566)
(0.00218874 -0.0131539 0.00486773)
(0.00233547 -0.0139207 0.00530748)
(0.00238121 -0.0133762 0.00486578)
(0.00219197 -0.0136103 0.00489135)
(0.00241998 -0.0136156 0.00519061)
(0.00213083 -0.0136417 0.00498436)
(0.00261787 -0.0156468 0.00580115)
(0.00238123 -0.0147572 0.00549987)
(0.00282619 -0.0150956 0.00577224)
(0.00250781 -0.0137549 0.00478317)
(0.00260205 -0.0143442 0.00477126)
(0.00239272 -0.0146079 0.00590959)
(0.00229131 -0.0160846 0.0060834)
(0.00237776 -0.0144032 0.00553179)
(0.00238912 -0.0147309 0.00550777)
(0.00242057 -0.0146953 0.00554322)
(0.0024417 -0.0149135 0.00551265)
(0.00233795 -0.0144295 0.00543118)
(0.00237865 -0.0140787 0.00522986)
(0.00227724 -0.0154465 0.00555922)
(0.00235376 -0.014692 0.00523508)
(0.00225591 -0.0146866 0.00529336)
(0.00232877 -0.0149769 0.00550959)
(0.00224143 -0.0148781 0.00559259)
(0.00230562 -0.0144487 0.00515572)
(0.00233763 -0.0146038 0.00592524)
(0.00229052 -0.0138973 0.00488743)
(0.00244037 -0.0141841 0.00545118)
(0.00238217 -0.0136683 0.00524063)
(0.00221022 -0.0141253 0.00509051)
(0.00253908 -0.0150923 0.00558161)
(0.00222054 -0.0144606 0.0055489)
(0.00234925 -0.0156805 0.0060301)
(0.00251735 -0.0149888 0.00575843)
(0.00261869 -0.0146585 0.00499414)
(0.00225734 -0.0148939 0.00592612)
(0.00260392 -0.0159111 0.00583646)
(0.00264133 -0.0155105 0.00562923)
(0.00260121 -0.0156187 0.00586708)
(0.00264136 -0.0152966 0.00555158)
(0.00261702 -0.0155058 0.00572067)
(0.00264261 -0.0153117 0.00572084)
(0.00263381 -0.0151528 0.00551351)
(0.00267597 -0.015413 0.00554957)
(0.00259022 -0.0155578 0.00570005)
(0.00259665 -0.0149775 0.00541324)
(0.00259555 -0.0149894 0.00549736)
(0.00261991 -0.0153072 0.00552859)
(0.00205695 -0.0151146 0.00601469)
(0.00233472 -0.0146726 0.00557035)
(0.00241596 -0.0147304 0.00545653)
(0.00229429 -0.0142442 0.0054818)
(0.00226343 -0.0140363 0.00515075)
(0.00219648 -0.0140418 0.00527433)
(0.00238447 -0.0137855 0.00511731)
(0.00239101 -0.014286 0.00520891)
(0.00248664 -0.0147124 0.00563411)
(0.00248434 -0.0144962 0.0054839)
(0.00243966 -0.0140065 0.0052581)
(0.00244363 -0.0140063 0.00534956)
(0.00239876 -0.0145356 0.0055951)
(0.00248537 -0.015336 0.00578575)
(0.00226452 -0.0147738 0.00541017)
(0.0022487 -0.0144838 0.00524659)
(0.00267154 -0.0149665 0.00601716)
(0.0025955 -0.0148064 0.00569438)
(0.00241122 -0.0145852 0.00538688)
(0.00263599 -0.0149738 0.00571276)
(0.00253299 -0.0147146 0.00550556)
(0.00252652 -0.0144672 0.00534256)
(0.00233882 -0.0139181 0.00506867)
(0.00230215 -0.0142309 0.00515984)
(0.00218186 -0.0137951 0.00523929)
(0.00212119 -0.0138811 0.00532875)
(0.00230997 -0.0141504 0.00510598)
(0.00236586 -0.0138893 0.00517379)
(0.00238905 -0.0140849 0.00483185)
(0.00219456 -0.0143161 0.00568484)
(0.00234819 -0.0140873 0.00500866)
(0.00247575 -0.0151368 0.0051971)
(0.00229169 -0.0148853 0.00596079)
(0.00264652 -0.0147705 0.00584735)
(0.00229491 -0.0144498 0.00520839)
(0.00255606 -0.0148039 0.00559071)
(0.00246483 -0.0149093 0.00549455)
(0.0024347 -0.0156033 0.00570107)
(0.00232287 -0.0144059 0.00543462)
(0.00261241 -0.0145834 0.00559453)
(0.00220721 -0.0143741 0.00538089)
(0.00252736 -0.0142277 0.00535438)
(0.00243369 -0.0150594 0.00586708)
(0.00233032 -0.0144439 0.00535414)
(0.00258478 -0.0150615 0.0055924)
(0.00263073 -0.0147534 0.00553966)
(0.00262688 -0.0149181 0.00571954)
(0.00262576 -0.0147946 0.00543867)
(0.00257095 -0.0152816 0.00588975)
(0.00263547 -0.0152433 0.00588454)
(0.00245024 -0.0153966 0.0056054)
(0.00265932 -0.014695 0.00547725)
(0.00244719 -0.0146413 0.00545439)
(0.00260201 -0.0148335 0.00562685)
(0.00242174 -0.0154952 0.00572544)
(0.00251369 -0.0146616 0.00564407)
(0.00228041 -0.014675 0.00540744)
(0.00232557 -0.0145199 0.00531547)
(0.00232343 -0.0150101 0.00565044)
(0.00222252 -0.0141231 0.00521452)
(0.00255818 -0.0143271 0.00536902)
(0.00231185 -0.0149274 0.00553618)
(0.00240381 -0.0146033 0.0053862)
(0.00235414 -0.0144975 0.00554905)
(0.00240771 -0.0142869 0.00521781)
(0.00254223 -0.0141617 0.0056532)
(0.00231057 -0.0144067 0.00512588)
(0.00215984 -0.0138501 0.00526461)
(0.00229733 -0.0139287 0.00507956)
(0.00232049 -0.0136325 0.00472025)
(0.00220113 -0.0134559 0.00492377)
(0.00213225 -0.0139534 0.00482075)
(0.00215617 -0.0139915 0.00488266)
(0.00234842 -0.0139524 0.00514375)
(0.00220087 -0.0136927 0.00537247)
(0.00224804 -0.0145739 0.00554669)
(0.0020156 -0.0150322 0.00522902)
(0.00222793 -0.0141285 0.00525219)
(0.00233675 -0.0137802 0.00525362)
(0.00222714 -0.0139373 0.00487038)
(0.00217498 -0.0130611 0.00462575)
(0.00229053 -0.0135313 0.00454945)
(0.00225313 -0.0135522 0.00464597)
(0.00237728 -0.013712 0.00518284)
(0.00227796 -0.013976 0.00509696)
(0.0026497 -0.0146553 0.00509869)
(0.00243646 -0.0135148 0.00537043)
(0.00233038 -0.01352 0.00479618)
(0.00246079 -0.0135146 0.00528252)
(0.00246359 -0.014075 0.00537513)
(0.00250747 -0.0144765 0.00528267)
(0.00249766 -0.0150842 0.00527254)
(0.00255625 -0.0143103 0.00540348)
(0.00240105 -0.0143057 0.00513039)
(0.00274282 -0.0147144 0.00526372)
(0.00223258 -0.014052 0.00515818)
(0.00237918 -0.0143805 0.00518262)
(0.00223671 -0.0142397 0.00537302)
(0.00221409 -0.0139423 0.00510785)
(0.00254315 -0.0140592 0.00522657)
(0.00229885 -0.0141457 0.00525203)
(0.00240559 -0.0145658 0.00536951)
(0.00244384 -0.0142856 0.00530023)
(0.00258334 -0.0140596 0.00518429)
(0.00241739 -0.0142078 0.00523814)
(0.0024785 -0.0137051 0.00528886)
(0.00260129 -0.0140771 0.00546193)
(0.00263574 -0.0143274 0.00531639)
(0.00240358 -0.014342 0.00529293)
(0.00216167 -0.0145402 0.00519611)
(0.00221278 -0.014195 0.00515725)
(0.00227072 -0.0142665 0.0051884)
(0.0022911 -0.0135462 0.0050889)
(0.00241543 -0.0143768 0.00529194)
(0.002355 -0.0141107 0.00525776)
(0.00224989 -0.0139366 0.00514131)
(0.00219858 -0.0140271 0.00521005)
(0.00251939 -0.0139661 0.0052016)
(0.00225505 -0.0138495 0.00512152)
(0.00232373 -0.0142299 0.00535223)
(0.00254519 -0.0145891 0.00529914)
(0.00205135 -0.0143606 0.00538531)
(0.00281854 -0.0149612 0.00550159)
(0.00216927 -0.0139264 0.00519099)
(0.00231173 -0.014467 0.00530507)
(0.00236805 -0.0136973 0.00509616)
(0.00230161 -0.0142448 0.00524631)
(0.00228447 -0.0144745 0.00529964)
(0.00219843 -0.0140964 0.00512605)
(0.00250513 -0.0143239 0.00520859)
(0.00245428 -0.0136175 0.00514458)
(0.00232509 -0.013952 0.0052634)
(0.00257449 -0.0138639 0.00516752)
(0.00239235 -0.0138775 0.00518444)
(0.00234676 -0.0138228 0.00519294)
(0.00258383 -0.0144533 0.00522724)
(0.00214746 -0.0135428 0.00477923)
(0.00247708 -0.0139347 0.00521987)
(0.00212517 -0.0136603 0.00493795)
(0.00207258 -0.0136044 0.00494667)
(0.00251462 -0.0141642 0.0052416)
(0.00228988 -0.0140514 0.00520981)
(0.00256372 -0.0146304 0.0053856)
(0.00262103 -0.0149284 0.00547179)
(0.00264362 -0.014743 0.00546913)
(0.00238874 -0.015374 0.00576177)
(0.0024507 -0.0147169 0.00564294)
(0.00248018 -0.0152157 0.00577297)
(0.00230316 -0.0146118 0.0050429)
(0.00252044 -0.0152588 0.00585384)
(0.00219287 -0.0138001 0.00504953)
(0.00234125 -0.0146641 0.00532071)
(0.00218826 -0.014104 0.00547678)
(0.00229793 -0.0141452 0.00508874)
(0.00214577 -0.0138697 0.00528249)
(0.00212767 -0.0132557 0.00517074)
(0.00234005 -0.0135261 0.00497591)
(0.00253569 -0.0141177 0.00491186)
(0.00228192 -0.0136037 0.00490907)
(0.00228158 -0.0142417 0.00511793)
(0.00237563 -0.0139932 0.0051465)
(0.0024247 -0.0143299 0.00529353)
(0.00234487 -0.0138469 0.0050729)
(0.00228755 -0.013685 0.00493918)
(0.00248097 -0.0143192 0.00531531)
(0.00231603 -0.0147247 0.0055312)
(0.00268238 -0.014972 0.00566964)
(0.0024029 -0.0149739 0.00549863)
(0.0023251 -0.0145494 0.00522247)
(0.00246304 -0.0146554 0.00560075)
(0.00242724 -0.0147256 0.00537053)
(0.00212593 -0.0132517 0.00492668)
(0.00227265 -0.0133816 0.00470289)
(0.00221828 -0.0133752 0.00495924)
(0.0024235 -0.0146014 0.00542225)
(0.00251669 -0.0144295 0.00514562)
(0.00250591 -0.0141579 0.00500307)
(0.00229915 -0.0140358 0.00538493)
(0.00224337 -0.0142123 0.00560564)
(0.00234654 -0.0138758 0.00505448)
(0.00222935 -0.0136986 0.00508944)
(0.00233548 -0.0144975 0.00531551)
(0.00255132 -0.0149447 0.00536017)
(0.00252591 -0.0153892 0.00567594)
(0.00263965 -0.0159209 0.00603367)
(0.00269211 -0.0154132 0.00562852)
(0.00252077 -0.0153963 0.00569522)
(0.00253043 -0.0155105 0.00584443)
(0.00251261 -0.0151967 0.00566343)
(0.00260361 -0.0153361 0.00572504)
(0.00243684 -0.0148207 0.00571554)
(0.0026388 -0.0153565 0.00551365)
(0.00251605 -0.0148964 0.00550802)
(0.00259069 -0.0149248 0.00540447)
(0.00264121 -0.015655 0.00571856)
(0.00271592 -0.015907 0.00575161)
(0.00263998 -0.0153901 0.00566459)
(0.00256594 -0.0154888 0.00585467)
(0.0026014 -0.0152042 0.00563362)
(0.00257969 -0.0152975 0.00560511)
(0.00250979 -0.0152519 0.00565845)
(0.0025708 -0.0149214 0.00549364)
(0.00260049 -0.0150808 0.0055539)
(0.00266585 -0.015067 0.0054377)
(0.00226472 -0.0135522 0.00473182)
(0.00217398 -0.0144596 0.00515195)
(0.00236722 -0.0139327 0.00488062)
(0.00259577 -0.014113 0.00570654)
(0.00260813 -0.0146897 0.00569089)
(0.00243869 -0.0149475 0.00546038)
(0.00243747 -0.0146538 0.00547655)
(0.00234914 -0.0148044 0.00555561)
(0.00223611 -0.0143246 0.00523876)
(0.00237423 -0.0147449 0.00532947)
(0.00256136 -0.0148914 0.00510697)
(0.00232064 -0.0147748 0.00567054)
(0.00256008 -0.015322 0.00526389)
(0.00250666 -0.0148176 0.00546617)
(0.00249375 -0.0149945 0.0055815)
(0.00245922 -0.0144917 0.00529382)
(0.00253502 -0.0152056 0.00542146)
(0.00236625 -0.0150251 0.00564085)
(0.00249956 -0.0145314 0.00522393)
(0.00250155 -0.0142967 0.00510118)
(0.00254127 -0.0147731 0.00537038)
(0.00247203 -0.014246 0.00530313)
(0.00247906 -0.0143756 0.00520442)
(0.00221184 -0.0140927 0.00537941)
(0.0024128 -0.014246 0.00547816)
(0.00254688 -0.0148064 0.00550083)
(0.00241349 -0.0146188 0.00541376)
(0.00225784 -0.0151036 0.00530737)
(0.00218167 -0.0143812 0.00523918)
(0.00235942 -0.0135515 0.00519078)
(0.0023773 -0.0141651 0.00541905)
(0.00236471 -0.0139397 0.00482281)
(0.00233843 -0.0132675 0.00489318)
(0.00223283 -0.0136728 0.00511738)
(0.00223631 -0.0142172 0.00532639)
(0.00249942 -0.013885 0.00534754)
(0.00209156 -0.0136544 0.00496667)
(0.00229039 -0.0140271 0.00508631)
(0.00209743 -0.0136338 0.00478508)
(0.00230682 -0.0136536 0.00510134)
(0.00217969 -0.013327 0.00490961)
(0.00218417 -0.0139177 0.004982)
(0.00227956 -0.013962 0.00508463)
(0.00205527 -0.0134125 0.00472171)
(0.00250117 -0.0150437 0.00558096)
(0.0024395 -0.0143148 0.00528665)
(0.00249903 -0.0153027 0.00570894)
(0.00251175 -0.0149037 0.00563626)
(0.00253598 -0.0149776 0.00577901)
(0.00263943 -0.0144491 0.00537287)
(0.00232205 -0.0140729 0.00519004)
(0.00271707 -0.0154548 0.00580512)
(0.00244722 -0.0147686 0.00552752)
(0.00248392 -0.0148148 0.00552363)
(0.00253305 -0.014063 0.00521222)
(0.00244831 -0.0147449 0.0055131)
(0.0023285 -0.0145145 0.00539469)
(0.00255468 -0.0141534 0.00537045)
(0.00270972 -0.0141257 0.00523508)
(0.00255093 -0.0144831 0.00539224)
(0.00247923 -0.013867 0.00514471)
(0.00240025 -0.0143406 0.00542128)
(0.00239377 -0.0147362 0.00541744)
(0.00234677 -0.014656 0.00536224)
(0.0028551 -0.0147161 0.00575633)
(0.00224188 -0.0146315 0.00530342)
(0.00255983 -0.0150326 0.00554971)
(0.00248803 -0.0137357 0.00510052)
(0.00222184 -0.0146128 0.00552893)
(0.00213592 -0.0142132 0.00522018)
(0.00246044 -0.01427 0.00536284)
(0.00253771 -0.0142236 0.00550759)
(0.0024152 -0.0149546 0.0055007)
(0.00228363 -0.0149265 0.00535788)
(0.00234961 -0.0143615 0.00515512)
(0.00262273 -0.0143572 0.00533322)
(0.0023481 -0.0145912 0.00521154)
(0.00251162 -0.0150693 0.00570349)
(0.00238101 -0.0146906 0.00537346)
(0.0023297 -0.015145 0.00553329)
(0.002484 -0.0146646 0.00554459)
(0.00239627 -0.0153486 0.00583493)
(0.00244948 -0.0143682 0.00562308)
(0.00248762 -0.0145829 0.00566277)
(0.0026581 -0.0142951 0.00561065)
(0.00233457 -0.0148471 0.00569101)
(0.00233351 -0.0137163 0.00500272)
(0.00228494 -0.014201 0.00522286)
(0.0023054 -0.0138068 0.00508017)
(0.00235826 -0.013805 0.00514329)
(0.00236853 -0.0143839 0.00548871)
(0.00223066 -0.01364 0.00513103)
(0.00232347 -0.0142597 0.00531556)
(0.00241515 -0.0143895 0.0055382)
(0.00220135 -0.0141893 0.00517037)
(0.00239234 -0.0142603 0.00542315)
(0.00238926 -0.0142092 0.00537353)
(0.00228485 -0.0142745 0.00527664)
(0.00232238 -0.0140755 0.00513991)
(0.00231271 -0.0138704 0.00508985)
(0.00234892 -0.0144185 0.00540536)
(0.00226608 -0.0138525 0.00515462)
(0.00223943 -0.0138103 0.00500454)
(0.00237353 -0.0139181 0.00505845)
(0.0022281 -0.0137052 0.00498911)
(0.00244989 -0.0140383 0.00533439)
(0.00242359 -0.0140831 0.00535406)
(0.00237376 -0.0143421 0.00536197)
(0.00257872 -0.013841 0.00552334)
(0.00237781 -0.0137458 0.00523159)
(0.00215787 -0.014476 0.00537017)
(0.00229661 -0.0139875 0.00522128)
(0.00246931 -0.0143222 0.00545347)
(0.00238815 -0.013993 0.00518793)
(0.0023821 -0.0145919 0.00540248)
(0.00249246 -0.0149339 0.00569488)
(0.00226012 -0.0137636 0.00505766)
(0.0024452 -0.0143426 0.00548187)
(0.00265432 -0.0147085 0.00545189)
(0.00224455 -0.0145674 0.0055353)
(0.00261054 -0.0152698 0.00577398)
(0.00237905 -0.0151354 0.00572534)
(0.00261144 -0.015292 0.00573842)
(0.00266216 -0.0152907 0.00571125)
(0.00264104 -0.0151 0.0055945)
(0.00262048 -0.0153025 0.0056924)
(0.00237378 -0.0150307 0.00561439)
(0.00231121 -0.0149465 0.00570576)
(0.00278313 -0.0153239 0.0056992)
(0.00265955 -0.0150221 0.00562312)
(0.00271098 -0.0153057 0.00565336)
(0.00259083 -0.0151066 0.00565617)
(0.00244004 -0.0151659 0.0056774)
(0.00227964 -0.0137282 0.0054814)
(0.00229934 -0.0138936 0.00509695)
(0.00230247 -0.0136415 0.005261)
(0.00240821 -0.0139851 0.00520971)
(0.00224579 -0.0135975 0.00551049)
(0.0022716 -0.0140088 0.00511528)
(0.00238662 -0.0141073 0.00514098)
(0.00239319 -0.0134792 0.00498886)
(0.00232795 -0.0146784 0.00542311)
(0.00236726 -0.0138879 0.004923)
(0.00216594 -0.0134292 0.00484281)
(0.00213092 -0.0130989 0.00507555)
(0.00207628 -0.0137273 0.00543573)
(0.00241891 -0.0143595 0.00515702)
(0.00211413 -0.0141435 0.00539649)
(0.00226231 -0.0139303 0.00521801)
(0.00216542 -0.0141236 0.00531791)
(0.00241609 -0.0139044 0.0049666)
(0.00223053 -0.0133877 0.00501229)
(0.00222611 -0.0137143 0.00525604)
(0.00221354 -0.0146403 0.00516071)
(0.00211026 -0.0135249 0.00504765)
(0.00233983 -0.013394 0.00495584)
(0.00219817 -0.0138197 0.00515915)
(0.002164 -0.0139122 0.00527424)
(0.00198723 -0.0138992 0.00520086)
(0.00265289 -0.0143908 0.00522985)
(0.00230131 -0.0139497 0.00530096)
(0.0023579 -0.0143226 0.00532946)
(0.00231706 -0.0142699 0.00524829)
(0.00232472 -0.0140077 0.00513283)
(0.00217408 -0.0141502 0.00534795)
(0.00221097 -0.0139566 0.00528185)
(0.00244036 -0.0142733 0.00520585)
(0.00234021 -0.0141162 0.005183)
(0.00229981 -0.0139964 0.0052259)
(0.0025898 -0.0154041 0.00561082)
(0.0021091 -0.0158739 0.00579471)
(0.00227321 -0.0154463 0.00565849)