/*--------------------------------*- C++ -*----------------------------------*\
| =========                 |                                                 |
| \\      /  F ield         | OpenFOAM: The Open Source CFD Toolbox           |
|  \\    /   O peration     | Version:  v1612+                                |
|   \\  /    A nd           | Web:      www.OpenFOAM.com                      |
|    \\/     M anipulation  |                                                 |
\*---------------------------------------------------------------------------*/
FoamFile
{
    version     2.0;
    format      ascii;
    class       volVectorField;
    location    "50";
    object      U;
}
// * * * * * * * * * * * * * * * * * * * * * * * * * * * * * * * * * * * * * //

dimensions      [0 1 -1 0 0 0 0];

internalField   nonuniform List<vector> 
17068
(
(0.402751 0.463179 -0.507529)
(0.551958 0.444811 -0.145159)
(0.68429 0.462764 -0.100076)
(0.69076 0.442219 -0.0587636)
(0.552128 0.45448 -0.228786)
(0.508004 0.444715 -0.223796)
(0.600286 0.423722 -0.0333124)
(0.641549 0.442119 -0.0721568)
(0.601323 0.432232 -0.0459603)
(0.551465 0.481693 -0.20086)
(0.482813 0.470085 -0.202434)
(0.55273 0.478755 -0.258814)
(0.47062 0.475015 -0.244504)
(0.576289 0.455917 -0.203642)
(0.502084 0.423701 -0.09496)
(0.509597 0.438943 -0.116283)
(0.466178 0.456502 -0.21239)
(0.453748 0.443709 -0.137814)
(0.310459 0.206728 -0.045591)
(0.269863 0.211749 -0.0381107)
(0.303335 0.20966 -0.0505453)
(0.281205 0.209971 -0.0473626)
(0.229984 0.218081 -0.031188)
(0.284847 0.207127 -0.0462868)
(0.218097 0.205898 -0.039319)
(0.218246 0.186879 -0.0511947)
(0.265823 0.188193 -0.0615569)
(0.20391 0.19175 -0.042932)
(0.246817 0.196678 -0.0536527)
(0.223405 0.186185 -0.056217)
(0.192629 0.177197 -0.0473247)
(0.169318 0.182518 -0.0405615)
(0.646114 0.57792 -0.229168)
(0.684402 0.587966 -0.245356)
(0.836822 0.619308 -0.1713)
(0.830298 0.601111 -0.166722)
(0.635557 0.584796 -0.245066)
(0.612821 0.565494 -0.241509)
(0.837928 0.647237 -0.15876)
(0.88391 0.628673 -0.0968656)
(0.817582 0.616449 -0.149834)
(0.830183 0.614779 -0.114358)
(0.667059 0.571437 -0.188962)
(0.635232 0.572566 -0.205248)
(0.682911 0.603621 -0.20217)
(0.707303 0.598385 -0.169684)
(0.878627 0.279653 -0.115122)
(0.893984 0.288652 -0.0740451)
(0.942261 0.297552 -0.0653347)
(0.936302 0.345916 -0.0323152)
(0.794862 0.208253 -0.162725)
(0.741897 0.200241 -0.174486)
(0.907952 0.258725 -0.0953668)
(0.840163 0.22619 -0.118575)
(0.801101 0.217648 -0.19078)
(0.763535 0.211121 -0.202717)
(0.727736 0.181377 -0.256411)
(0.695587 0.166785 -0.223205)
(0.748563 0.178834 -0.155167)
(0.702167 0.182177 -0.178981)
(0.725032 0.180218 -0.201621)
(0.680036 0.169899 -0.247014)
(0.637378 0.13985 -0.239517)
(0.771828 0.191588 -0.171278)
(0.134366 0.561849 -0.327255)
(0.197509 0.599746 -0.347359)
(0.290205 0.627875 -0.362102)
(0.254858 0.624171 -0.372374)
(0.295344 0.632807 -0.395982)
(0.309004 0.629167 -0.410407)
(0.142319 0.565136 -0.334933)
(0.100861 0.531531 -0.321445)
(0.226526 0.601489 -0.390407)
(0.195232 0.557172 -0.38898)
(0.141953 0.571191 -0.38397)
(0.148424 0.549391 -0.360046)
(0.198983 0.55832 -0.390819)
(0.246919 0.584511 -0.408476)
(0.125921 0.522456 -0.3576)
(0.846089 0.417633 0.0158596)
(0.788978 0.372996 0.0183807)
(0.879585 0.429446 0.00122869)
(0.729406 0.342 0.051113)
(0.791862 0.354964 0.0217835)
(0.860712 0.398701 0.0276119)
(0.807356 0.324583 0.0503351)
(0.716078 0.315547 0.0188401)
(0.668929 0.301471 0.083977)
(0.731804 0.327364 0.090489)
(0.643139 0.293849 0.0559837)
(0.638592 0.27917 0.045304)
(0.834312 0.750113 -0.280232)
(0.856299 0.742075 -0.280488)
(0.962811 0.753092 -0.273687)
(0.971483 0.7398 -0.258936)
(0.885081 0.780029 -0.291664)
(0.909778 0.762474 -0.28024)
(0.911252 0.744651 -0.282133)
(0.982408 0.737068 -0.260374)
(0.932409 0.768226 -0.2762)
(0.930883 0.731386 -0.264865)
(0.888117 0.749304 -0.276527)
(0.936602 0.756063 -0.268942)
(0.6148 0.350261 -0.285411)
(0.586643 0.359724 -0.288101)
(0.567867 0.378805 -0.256681)
(0.599817 0.379412 -0.219117)
(0.704382 0.368753 -0.211152)
(0.683243 0.392147 -0.102341)
(0.727655 0.394511 -0.102047)
(0.754248 0.398823 -0.107664)
(0.631005 0.412055 -0.143114)
(0.613978 0.406313 -0.191754)
(0.694426 0.380978 -0.209091)
(0.60642 0.381064 -0.274415)
(0.694744 0.404884 -0.157242)
(0.630186 0.410863 -0.211969)
(0.314798 0.600418 -0.253552)
(0.344944 0.597855 -0.204186)
(0.388744 0.60088 -0.305309)
(0.41088 0.617655 -0.240454)
(0.50588 0.574995 -0.261441)
(0.459378 0.587838 -0.272836)
(0.274101 0.598025 -0.247076)
(0.279609 0.594982 -0.221788)
(0.332337 0.603046 -0.185171)
(0.387003 0.596549 -0.280618)
(0.462636 0.510975 -0.144353)
(0.452035 0.552136 -0.195105)
(0.413593 0.610925 -0.323381)
(0.410136 0.610157 -0.305007)
(0.307538 0.59265 -0.268352)
(0.330018 0.616706 -0.217811)
(0.306825 0.609059 -0.247006)
(0.332212 0.607248 -0.280409)
(0.727257 0.349509 0.182359)
(0.799665 0.381877 0.238185)
(0.825851 0.389403 0.147467)
(0.785822 0.379104 0.18833)
(0.990421 0.44817 0.236551)
(0.943229 0.441142 0.208437)
(1.00235 0.42865 0.255584)
(0.928686 0.423487 0.279102)
(0.89066 0.404688 0.25608)
(1.0321 0.437213 0.269129)
(1.07637 0.434118 0.290845)
(0.683657 0.517516 -0.194745)
(0.684701 0.524938 -0.217263)
(0.697196 0.409516 -0.101683)
(0.59681 0.373703 -0.0446907)
(0.760784 0.459632 -0.148754)
(0.758047 0.439767 -0.0856279)
(0.68614 0.45527 -0.0993993)
(0.701242 0.445467 -0.11863)
(0.778978 0.47228 -0.141897)
(0.729929 0.292306 0.019429)
(0.751703 0.301105 -0.0515108)
(0.650916 0.225467 -0.059584)
(0.627044 0.220539 -0.0395496)
(0.726424 0.297754 -0.0187931)
(0.741057 0.314103 -0.0641922)
(0.681096 0.255628 -0.0924645)
(0.617682 0.241082 -0.029926)
(0.584848 0.218557 -0.0740268)
(0.673609 0.262711 -0.0511881)
(0.501178 0.194016 -0.0795056)
(0.676368 0.250681 -0.105894)
(0.621974 0.233883 -0.102965)
(0.573594 0.214942 -0.0449898)
(0.6244 0.214535 -0.146729)
(0.499264 0.195709 -0.0798855)
(0.514933 0.190454 -0.114039)
(0.688627 0.758661 -0.339139)
(0.682813 0.739692 -0.348416)
(0.724764 0.749823 -0.337228)
(0.73439 0.747616 -0.33613)
(0.570876 0.711548 -0.3211)
(0.617501 0.710025 -0.329372)
(0.701898 0.74517 -0.31298)
(0.66888 0.711934 -0.329902)
(0.579418 0.736794 -0.359278)
(0.67093 0.73109 -0.329462)
(0.594363 0.748073 -0.347837)
(0.538054 0.731487 -0.351769)
(0.577883 0.736631 -0.331827)
(0.55586 0.717499 -0.331811)
(0.606952 0.714559 -0.323562)
(0.568081 0.734818 -0.319003)
(0.591875 0.739758 -0.321641)
(0.595995 0.757633 -0.313551)
(0.529818 0.713709 -0.322603)
(0.53808 0.715693 -0.327269)
(0.401314 0.347959 -0.31954)
(0.429114 0.339431 -0.316224)
(0.385776 0.332028 -0.302997)
(0.349116 0.327483 -0.301211)
(0.46038 0.384779 -0.329578)
(0.467698 0.381795 -0.324616)
(0.478405 0.388246 -0.319308)
(0.489008 0.41118 -0.336674)
(0.536042 0.463743 -0.376698)
(0.441319 0.406317 -0.372026)
(0.408419 0.393826 -0.366165)
(0.36924 0.360111 -0.326869)
(0.406988 0.359749 -0.329391)
(0.397004 0.380113 -0.346584)
(0.427994 0.39765 -0.361895)
(0.515992 0.457078 -0.381096)
(0.677676 0.540708 -0.429683)
(0.693844 0.547026 -0.411525)
(0.619587 0.52919 -0.458145)
(0.611825 0.506447 -0.451633)
(0.589899 0.504336 -0.452457)
(0.566999 0.498773 -0.450195)
(0.659211 0.537559 -0.421547)
(0.652505 0.526294 -0.424735)
(0.627189 0.532721 -0.441993)
(0.6013 0.509079 -0.437161)
(0.72341 0.580523 -0.424172)
(0.703522 0.564911 -0.406767)
(0.661949 0.530018 -0.425058)
(0.662181 0.545476 -0.404495)
(0.67382 0.570542 -0.425705)
(0.618205 0.540288 -0.446281)
(0.701144 0.587767 -0.417472)
(0.716502 0.578939 -0.400712)
(0.333224 0.566586 -0.210955)
(0.380576 0.551517 -0.154385)
(0.342198 0.52643 -0.118765)
(0.265237 0.545648 -0.174418)
(0.34667 0.506966 -0.110616)
(0.301012 0.536252 -0.149991)
(0.399343 0.498792 -0.0824741)
(0.342503 0.543399 -0.160946)
(0.520921 0.54746 -0.184458)
(0.499092 0.479474 -0.067866)
(0.289439 0.543454 -0.190256)
(0.52241 0.51375 -0.11518)
(0.463877 0.455663 -0.0458224)
(0.386207 0.498786 -0.0807391)
(0.416508 0.547968 -0.214379)
(0.381696 0.572453 -0.246352)
(0.3613 0.549509 -0.233829)
(0.470252 0.54335 -0.144549)
(0.775034 0.474158 -0.151813)
(0.845754 0.493738 -0.174021)
(0.795325 0.511019 -0.331501)
(0.937354 0.507906 -0.210348)
(0.874945 0.460612 -0.171984)
(0.841164 0.496671 -0.165144)
(0.805455 0.44352 -0.105269)
(0.922671 0.507025 -0.152817)
(0.807247 0.522393 -0.326103)
(0.852693 0.516787 -0.26368)
(0.985678 0.523889 -0.219109)
(0.928037 0.524493 -0.264888)
(0.834883 0.509881 -0.3227)
(0.796237 0.507914 -0.273237)
(0.174917 0.218042 -0.0263313)
(0.165947 0.245592 -0.0237894)
(0.144575 0.228588 -0.0237533)
(0.152001 0.202192 -0.0243616)
(0.253425 0.26332 -0.0188714)
(0.266771 0.25683 -0.0219019)
(0.242259 0.285841 -0.0179421)
(0.163192 0.275288 -0.0211936)
(0.188886 0.294686 -0.0184739)
(0.137894 0.202398 -0.0281573)
(0.180076 0.204624 -0.0294075)
(0.188955 0.271258 -0.0222148)
(0.223513 0.224502 -0.0290052)
(0.162997 0.219633 -0.0273889)
(0.874614 0.44432 -0.0116769)
(0.865618 0.419486 0.0216309)
(0.901048 0.470918 -0.00071619)
(0.862103 0.436196 -0.0520805)
(0.894709 0.428842 -0.0128028)
(0.99504 0.53035 -0.0292574)
(0.933784 0.497898 -0.054617)
(0.989542 0.507761 -0.00501246)
(0.914095 0.461663 0.0125253)
(0.973457 0.52664 -0.0388741)
(1.00012 0.568666 -0.0702542)
(0.844651 0.414379 0.0267069)
(0.843753 0.443278 -0.0505431)
(0.992415 0.689929 -0.158234)
(0.991935 0.661283 -0.125995)
(1.108 0.602429 -0.0884049)
(1.06286 0.622759 -0.118622)
(0.981104 0.643967 -0.130012)
(1.06031 0.650793 -0.12151)
(1.04834 0.614402 -0.0767673)
(1.01214 0.670769 -0.148885)
(1.02746 0.625201 -0.104935)
(1.04843 0.662765 -0.100171)
(1.11099 0.622398 -0.049162)
(1.08462 0.617233 -0.058632)
(1.03704 0.610619 -0.0271794)
(1.07654 0.620843 -0.0508971)
(1.11384 0.591204 -0.0280351)
(1.09103 0.588033 -0.0229673)
(1.06014 0.647374 -0.139636)
(1.06431 0.579438 -0.0576237)
(1.09509 0.620959 -0.0868214)
(1.06903 0.642613 -0.123802)
(1.08672 0.627147 -0.068623)
(1.12764 0.622026 -0.0917765)
(1.04951 0.633218 -0.134825)
(1.10097 0.630608 -0.0897103)
(1.0667 0.57925 -0.20189)
(1.03376 0.544668 -0.2218)
(1.06122 0.561597 -0.0964137)
(1.06101 0.591034 -0.169942)
(1.04856 0.576518 -0.205925)
(1.08077 0.564224 -0.138816)
(1.02904 0.528633 -0.199038)
(1.03088 0.531908 -0.23159)
(1.00206 0.554541 -0.249289)
(1.03427 0.567764 -0.228549)
(1.08604 0.577767 -0.17774)
(1.06704 0.58297 -0.167863)
(1.09791 0.57076 -0.171724)
(0.994519 0.525126 -0.254142)
(0.95963 0.5033 -0.299816)
(1.00195 0.524818 -0.226784)
(0.99673 0.543847 -0.282675)
(0.985645 0.538993 -0.252103)
(1.05487 0.594352 -0.22511)
(0.990066 0.538078 -0.282523)
(0.66905 0.541667 -0.463535)
(0.646152 0.554387 -0.459244)
(0.558429 0.480404 -0.496562)
(0.55198 0.495058 -0.490199)
(0.565312 0.479741 -0.491451)
(0.540481 0.4731 -0.499721)
(0.737517 0.566342 -0.455745)
(0.545241 0.496375 -0.487932)
(0.794618 0.600317 -0.435525)
(0.72245 0.569488 -0.463913)
(0.591327 0.464409 -0.476539)
(0.560494 0.470822 -0.472599)
(0.736296 0.572983 -0.455651)
(0.717281 0.57144 -0.454589)
(0.556958 0.481176 -0.485975)
(0.652602 0.526722 -0.462755)
(0.615536 0.492269 -0.449205)
(0.616465 0.479403 -0.462788)
(0.656819 0.495789 -0.468599)
(0.658958 0.489178 -0.453221)
(0.666362 0.515528 -0.449102)
(0.553232 0.461543 -0.477751)
(0.460107 0.300037 -0.0286749)
(0.471474 0.29929 -0.0335161)
(0.61184 0.331194 -0.0404233)
(0.666903 0.413085 -0.124621)
(0.689158 0.399438 -0.139957)
(0.535766 0.293227 -0.0819223)
(0.621149 0.352773 -0.099317)
(0.694443 0.387221 -0.0926042)
(0.563765 0.313467 -0.053229)
(0.550739 0.322783 -0.0606877)
(0.679118 0.404494 -0.122321)
(0.649958 0.368976 -0.119603)
(0.603266 0.333441 -0.0754042)
(0.86849 0.646384 -0.244422)
(0.860543 0.645432 -0.255793)
(0.859239 0.638359 -0.23023)
(0.90788 0.676846 -0.222942)
(0.875542 0.63918 -0.24644)
(0.984702 0.58195 -0.110139)
(0.945732 0.556074 -0.0898797)
(0.857122 0.623479 -0.258898)
(0.916528 0.508316 -0.0614813)
(0.911654 0.478157 -0.0511164)
(0.982644 0.609037 -0.13219)
(0.954035 0.610006 -0.146601)
(0.913556 0.554138 -0.114037)
(0.806748 0.474714 -0.141668)
(0.852406 0.553286 -0.224659)
(0.85715 0.576822 -0.246088)
(0.867359 0.634914 -0.249757)
(0.903592 0.598808 -0.191984)
(0.884337 0.604901 -0.248682)
(0.993479 0.641832 -0.145619)
(0.873789 0.557416 -0.170514)
(0.932988 0.606915 -0.159377)
(0.820476 0.374468 -0.0558064)
(0.7882 0.367967 -0.0594172)
(0.816713 0.369327 -0.0377792)
(0.874826 0.390919 -0.0487329)
(0.859944 0.42232 -0.0629924)
(0.865948 0.404722 -0.0187748)
(0.797977 0.430994 -0.0602325)
(0.753938 0.404368 -0.0591343)
(0.797242 0.45373 -0.0269912)
(0.777737 0.421446 -0.034365)
(0.827694 0.431718 -0.00997791)
(0.875175 0.469562 -0.0149278)
(0.960907 0.499061 0.00503218)
(0.970709 0.480271 0.0275429)
(1.01152 0.457196 -0.00708127)
(1.01516 0.440889 -0.0287078)
(1.07537 0.521051 0.0174344)
(0.953806 0.518328 -0.00312201)
(0.876308 0.487824 -0.0360408)
(0.791446 0.404802 -0.0252906)
(1.05697 0.493856 0.0384424)
(1.02127 0.489038 -0.0357661)
(0.964761 0.508078 -0.0145222)
(1.05614 0.526056 0.0168715)
(0.670905 0.32827 0.187666)
(0.594882 0.311372 0.160264)
(0.502108 0.320084 0.103589)
(0.451114 0.338251 0.0576297)
(0.451611 0.348097 0.0632542)
(0.576562 0.328208 0.13186)
(0.685482 0.659656 -0.388265)
(0.691585 0.678014 -0.381637)
(0.620339 0.664407 -0.408148)
(0.577494 0.65584 -0.413204)
(0.671362 0.734638 -0.360111)
(0.63996 0.704617 -0.374971)
(0.751088 0.701996 -0.357859)
(0.798555 0.719245 -0.341183)
(0.778379 0.71432 -0.361795)
(0.636608 0.688725 -0.403565)
(0.599792 0.696898 -0.389602)
(0.586064 0.69936 -0.388853)
(0.633858 0.73755 -0.372654)
(0.649878 0.721977 -0.37627)
(0.782305 0.759797 -0.344215)
(0.648641 0.731975 -0.376779)
(0.750286 0.737306 -0.354056)
(0.584053 0.270018 -0.225883)
(0.668685 0.325254 -0.245917)
(0.547002 0.233579 -0.220163)
(0.495196 0.222515 -0.250271)
(0.491247 0.221185 -0.24064)
(0.618937 0.276853 -0.288991)
(0.567564 0.280119 -0.309706)
(0.489903 0.235325 -0.273725)
(0.451218 0.214359 -0.234492)
(0.619276 0.287495 -0.203148)
(0.638217 0.292305 -0.191061)
(0.597177 0.302981 -0.322857)
(0.549525 0.274202 -0.304497)
(0.673762 0.343693 -0.27494)
(0.564253 0.251448 -0.18765)
(0.476397 0.223253 -0.237542)
(0.634884 0.303693 -0.259002)
(0.552768 0.265989 -0.285331)
(0.565504 0.322817 -0.305807)
(0.534568 0.304696 -0.32)
(0.525704 0.295412 -0.323232)
(0.549615 0.335634 -0.312302)
(0.452284 0.299795 -0.347597)
(0.472835 0.322931 -0.335643)
(0.496055 0.357204 -0.310859)
(0.976042 0.423943 -0.0361513)
(0.968364 0.467315 -0.012032)
(0.883013 0.40757 -0.00200182)
(0.90271 0.437974 -0.0263151)
(1.02874 0.487758 -0.0738472)
(0.97358 0.490011 -0.0438439)
(0.978103 0.43746 0.0176222)
(0.942572 0.424317 0.0145411)
(0.919429 0.449789 -0.0420681)
(1.05083 0.49496 -0.0164978)
(0.99513 0.472919 -0.111847)
(0.998914 0.438908 -0.0947767)
(1.03739 0.46366 0.0932602)
(1.08657 0.489743 0.0769651)
(1.03389 0.445991 0.0659002)
(1.04108 0.464484 -0.0630353)
(1.04228 0.468788 -0.0735876)
(1.01736 0.472312 0.0212392)
(1.0311 0.458162 -0.0212305)
(1.06239 0.485265 -0.0545426)
(1.05465 0.476406 0.0491859)
(0.689028 0.545231 -0.259766)
(0.667421 0.52264 -0.279118)
(0.725875 0.542655 -0.258616)
(0.784829 0.549988 -0.21233)
(0.67075 0.513424 -0.23228)
(0.706625 0.538476 -0.213926)
(0.625759 0.499763 -0.28105)
(0.778593 0.55184 -0.253455)
(0.902902 0.550191 -0.135728)
(0.866432 0.544208 -0.156375)
(0.875803 0.553231 -0.148457)
(0.869805 0.570645 -0.148853)
(0.859466 0.555896 -0.172872)
(0.861482 0.533209 -0.18899)
(0.743087 0.524709 -0.238551)
(0.715452 0.523558 -0.247309)
(0.860255 0.551961 -0.166671)
(1.11741 0.45341 0.125231)
(1.14327 0.487466 0.18179)
(1.10782 0.461589 0.104006)
(1.14487 0.502695 0.121287)
(1.14495 0.484117 0.148028)
(1.16132 0.496863 0.164024)
(1.06175 0.445904 0.0932294)
(0.802698 0.431877 0.0497717)
(0.86299 0.458104 0.0587072)
(0.99039 0.442103 0.0660281)
(1.04695 0.478475 0.0855454)
(0.872157 0.391986 0.0543706)
(0.871494 0.395094 0.0618256)
(0.825641 0.412788 0.0645013)
(0.843108 0.417812 0.0558238)
(1.14597 0.521789 0.156653)
(0.992913 0.424402 0.0858883)
(0.918708 0.509148 0.0835562)
(1.01787 0.520206 0.0735373)
(0.925858 0.482368 0.0620118)
(0.911273 0.445817 0.0766212)
(1.0112 0.51388 0.0980807)
(1.06895 0.520258 0.074913)
(1.0104 0.47334 0.121792)
(0.836525 0.434437 -0.172172)
(0.816884 0.437598 -0.191958)
(0.649366 0.3993 -0.332689)
(0.700521 0.434533 -0.322496)
(0.821536 0.435287 -0.199965)
(0.696599 0.434168 -0.318937)
(0.737594 0.347964 -0.211695)
(0.736999 0.324594 -0.205991)
(0.664064 0.313706 -0.290205)
(0.633718 0.328428 -0.313727)
(0.682801 0.394884 -0.304339)
(0.590354 0.345496 -0.327104)
(0.739671 0.388323 -0.245335)
(0.706669 0.395632 -0.281684)
(0.732654 0.345272 -0.241691)
(0.664242 0.336081 -0.284855)
(0.658425 0.30145 -0.289473)
(0.574229 0.286094 -0.317441)
(0.696807 0.332113 -0.278869)
(0.635664 0.31585 -0.293645)
(0.704799 0.32226 -0.278522)
(0.612651 0.330715 -0.314226)
(0.60916 0.667446 -0.311311)
(0.598787 0.67062 -0.303297)
(0.683932 0.677039 -0.256073)
(0.657296 0.665383 -0.256053)
(0.636546 0.674624 -0.280002)
(0.625184 0.675204 -0.277667)
(0.647256 0.672368 -0.301068)
(0.765578 0.713161 -0.301852)
(0.783648 0.717725 -0.312427)
(0.616391 0.683545 -0.294595)
(0.635475 0.681704 -0.311313)
(0.675068 0.676504 -0.285123)
(0.663855 0.674596 -0.269444)
(0.814162 0.699835 -0.270274)
(0.710825 0.683089 -0.257954)
(0.792824 0.605725 -0.265399)
(0.773881 0.638518 -0.259409)
(0.924554 0.656095 -0.306016)
(0.906464 0.653893 -0.294048)
(0.895573 0.685863 -0.298585)
(0.898626 0.670754 -0.305518)
(0.845967 0.67842 -0.267116)
(0.871911 0.653211 -0.270361)
(0.765021 0.653813 -0.266335)
(0.697221 0.578006 -0.278186)
(0.780103 0.559948 -0.277289)
(0.891116 0.619561 -0.292007)
(0.875178 0.638351 -0.29832)
(0.883353 0.683311 -0.299615)
(0.858321 0.622267 -0.286563)
(0.785831 0.569613 -0.29461)
(0.358251 0.575157 -0.192713)
(0.398885 0.545402 -0.138125)
(0.472064 0.515211 -0.118003)
(0.304896 0.580513 -0.233971)
(0.417968 0.572101 -0.30722)
(0.550907 0.533967 -0.244625)
(0.468249 0.559843 -0.302477)
(0.339113 0.577299 -0.258256)
(0.54952 0.533069 -0.208105)
(0.434089 0.572053 -0.320987)
(0.508896 0.522965 -0.141696)
(0.360029 0.573523 -0.269988)
(0.529275 0.499494 -0.122574)
(0.544367 0.386101 0.0027981)
(0.566315 0.33194 0.0143555)
(0.35304 0.47232 -0.0751803)
(0.33352 0.465589 -0.0791858)
(0.579704 0.439411 -0.0588738)
(0.50193 0.359563 0.00953604)
(0.588916 0.36927 0.0292343)
(0.311098 0.503903 -0.0979612)
(0.351032 0.4322 -0.0314346)
(0.305349 0.463463 -0.0564726)
(0.563549 0.387629 -0.0209522)
(0.357482 0.518987 -0.105818)
(0.354486 0.414191 -0.00860394)
(0.372944 0.380369 -0.00169782)
(0.493267 0.451932 -0.0596692)
(0.382763 0.463117 -0.04195)
(0.930016 0.637969 -0.158944)
(0.891047 0.62087 -0.166653)
(0.924331 0.601286 -0.15003)
(0.980123 0.622266 -0.140782)
(0.961738 0.629396 -0.163256)
(0.808321 0.56608 -0.142012)
(0.823788 0.579318 -0.1277)
(0.905974 0.639275 -0.147756)
(0.749867 0.613468 -0.160263)
(0.722283 0.605386 -0.175634)
(0.906172 0.608014 -0.13417)
(0.873805 0.575032 -0.134521)
(0.925154 0.594546 -0.136053)
(0.957709 0.582462 -0.102463)
(0.746079 0.530868 -0.145779)
(0.71371 0.534924 -0.15762)
(0.754824 0.565703 -0.137427)
(0.785373 0.561281 -0.12332)
(0.724219 0.598657 -0.176963)
(0.773616 0.592699 -0.163592)
(0.769874 0.540239 -0.153811)
(0.810464 0.552212 -0.154381)
(0.698386 0.817678 -0.387342)
(0.606718 0.790573 -0.382021)
(0.592332 0.733918 -0.397748)
(0.535873 0.730302 -0.398527)
(0.571417 0.755555 -0.383212)
(0.596187 0.765497 -0.400227)
(0.157988 0.362691 -0.0244145)
(0.176778 0.423601 -0.0293034)
(0.14019 0.440366 -0.0483191)
(0.125461 0.382457 -0.0397402)
(0.25526 0.410908 -0.0197379)
(0.12085 0.343894 -0.0267791)
(0.184077 0.362847 -0.022652)
(0.175859 0.471037 -0.0552034)
(0.151995 0.422238 -0.0483059)
(0.259256 0.465715 -0.0374736)
(0.163251 0.361907 -0.0204247)
(0.190312 0.421966 -0.0195958)
(0.617453 0.532122 -0.383945)
(0.57058 0.503058 -0.400461)
(0.751063 0.578173 -0.315977)
(0.746606 0.559121 -0.326051)
(0.630282 0.542922 -0.382016)
(0.599488 0.523333 -0.395577)
(0.758758 0.559422 -0.31252)
(0.798682 0.572169 -0.295476)
(0.699075 0.491734 -0.346504)
(0.687291 0.454546 -0.339261)
(0.616768 0.456975 -0.40685)
(0.589665 0.476075 -0.411517)
(0.62858 0.488608 -0.388306)
(0.588103 0.481877 -0.403864)
(0.605795 0.442886 -0.401673)
(0.556405 0.446361 -0.416702)
(1.02955 0.61784 -0.271214)
(0.986493 0.618599 -0.329431)
(0.988459 0.610901 -0.344044)
(1.01731 0.610678 -0.266184)
(1.01479 0.663397 -0.253734)
(0.963755 0.601179 -0.326226)
(0.956905 0.608469 -0.214619)
(0.937171 0.627761 -0.29939)
(0.954865 0.604577 -0.349083)
(1.00826 0.641597 -0.230361)
(0.983348 0.582765 -0.195618)
(0.980773 0.641105 -0.31581)
(0.956609 0.639521 -0.312537)
(0.961902 0.646957 -0.365735)
(0.96848 0.61872 -0.281374)
(0.974777 0.656194 -0.241648)
(1.00069 0.622476 -0.232822)
(0.985175 0.652177 -0.26703)
(0.91398 0.521783 -0.288623)
(0.958235 0.480837 -0.227496)
(0.916401 0.48636 -0.314047)
(0.872483 0.490643 -0.368486)
(0.898289 0.491282 -0.365043)
(0.810323 0.497562 -0.406249)
(0.839094 0.494856 -0.395804)
(0.937741 0.496616 -0.147706)
(0.920068 0.504387 -0.18457)
(0.890096 0.498828 -0.286253)
(0.934922 0.528925 -0.307989)
(0.792738 0.482985 -0.375768)
(0.780801 0.474411 -0.370517)
(0.849361 0.484914 -0.302208)
(0.67393 0.697092 -0.452401)
(0.614309 0.666904 -0.45883)
(0.755604 0.729487 -0.414604)
(0.78048 0.709038 -0.444964)
(0.605031 0.643425 -0.460942)
(0.656559 0.681044 -0.448153)
(0.74373 0.707247 -0.402375)
(0.711456 0.665732 -0.420617)
(0.687286 0.696019 -0.402636)
(0.55107 0.614968 -0.458003)
(0.636811 0.663472 -0.435597)
(0.612068 0.668725 -0.454955)
(0.724344 0.695262 -0.422835)
(0.766219 0.678944 -0.422351)
(0.356243 0.225414 -0.0232501)
(0.283735 0.244748 -0.0236288)
(0.337858 0.210165 -0.0422596)
(0.334294 0.209953 -0.0510793)
(0.369488 0.224255 -0.0380773)
(0.361843 0.223811 -0.0486297)
(0.320094 0.227004 -0.0360322)
(0.261052 0.228954 -0.0361407)
(0.349325 0.249938 0.00258064)
(0.299236 0.267125 -0.00937999)
(0.357857 0.241818 -0.00817419)
(0.509774 0.393024 -0.328462)
(0.44394 0.361449 -0.303942)
(0.346155 0.27297 -0.195573)
(0.333236 0.262742 -0.202546)
(0.549488 0.390317 -0.311809)
(0.515214 0.396903 -0.319591)
(0.529724 0.351875 -0.258296)
(0.472015 0.311497 -0.231557)
(0.481769 0.33602 -0.308391)
(0.326515 0.26937 -0.18947)
(0.301557 0.259689 -0.186544)
(0.261712 0.228392 -0.137776)
(0.31844 0.249168 -0.147566)
(0.487079 0.33134 -0.246167)
(0.427809 0.292789 -0.209697)
(0.428023 0.324642 -0.310185)
(0.404467 0.325218 -0.296151)
(0.454707 0.315837 -0.265199)
(0.483037 0.35802 -0.279682)
(0.381853 0.297296 -0.26152)
(0.365563 0.268471 -0.225468)
(0.329949 0.258337 -0.204836)
(0.406037 0.285295 -0.252511)
(0.375828 0.295805 -0.239603)
(0.371481 0.292252 -0.262724)
(0.317622 0.262757 -0.208449)
(0.200917 0.550936 -0.386812)
(0.657539 0.279546 -0.406317)
(0.671852 0.275305 -0.394322)
(0.694142 0.267182 -0.364267)
(0.301008 0.510931 -0.470264)
(0.234388 0.514683 -0.451222)
(0.43176 0.621502 -0.411394)
(0.433085 0.631056 -0.390015)
(0.123995 0.327336 -0.0191389)
(0.133114 0.376118 -0.0225917)
(0.141138 0.546079 -0.291497)
(0.127748 0.52876 -0.233732)
(0.161422 0.564624 -0.29243)
(0.752647 0.539032 -0.104692)
(0.747192 0.501814 -0.117812)
(0.776029 0.478288 -0.10132)
(0.558614 0.668882 -0.276545)
(0.570152 0.637991 -0.281031)
(0.539562 0.352815 -0.499653)
(0.624624 0.31141 -0.460979)
(0.58702 0.332264 -0.471678)
(0.680637 0.328909 -0.416298)
(0.679879 0.172254 -0.250433)
(0.727544 0.182646 -0.21051)
(0.76741 0.195243 -0.152728)
(0.699096 0.177829 -0.232454)
(0.593736 0.214151 -0.183365)
(0.615817 0.224819 -0.216664)
(0.757598 0.546653 -0.0459968)
(0.652001 0.521065 -0.12427)
(0.659399 0.539628 -0.117811)
(0.661353 0.546911 -0.139069)
(0.503624 0.311664 -0.345369)
(0.486073 0.266507 -0.311605)
(0.175097 0.347785 -0.0449461)
(0.187125 0.372349 -0.0602592)
(0.169438 0.388038 -0.0660185)
(0.133777 0.494382 -0.165176)
(0.156356 0.500537 -0.178551)
(0.603359 0.37191 -0.360167)
(0.567266 0.306231 -0.34013)
(0.363366 0.488269 -0.491057)
(0.420898 0.481678 -0.502556)
(0.44473 0.481384 -0.508749)
(0.597717 0.666491 -0.283691)
(0.586351 0.68858 -0.275899)
(0.60599 0.674216 -0.279681)
(0.632818 0.723154 -0.287457)
(0.633639 0.739525 -0.294518)
(0.519821 0.498455 -0.455068)
(0.474872 0.49314 -0.469511)
(0.552499 0.509171 -0.454602)
(0.566578 0.716753 -0.309624)
(0.623847 0.710342 -0.295337)
(0.395803 0.220507 -0.211223)
(0.405143 0.237724 -0.242485)
(0.817849 0.270952 -0.161545)
(0.796654 0.280545 -0.205292)
(0.758989 0.262386 -0.262892)
(0.13743 0.441895 -0.0417849)
(0.1271 0.413369 -0.0262937)
(0.190162 0.195333 -0.0323353)
(0.205106 0.190112 -0.0435137)
(0.535552 0.410739 -0.498921)
(0.559553 0.40615 -0.504313)
(0.478963 0.409845 -0.515757)
(0.729735 0.58325 -0.250153)
(0.695114 0.60329 -0.239057)
(0.642222 0.480316 -0.0589519)
(0.634281 0.487348 -0.0878582)
(0.660677 0.513052 -0.100299)
(0.68694 0.532551 -0.103516)
(0.160123 0.544219 -0.365852)
(0.132825 0.544947 -0.334683)
(0.272769 0.504688 -0.357907)
(0.211359 0.50966 -0.305623)
(0.221342 0.497334 -0.332559)
(0.334776 0.174582 -0.0669333)
(0.369903 0.170543 -0.0762957)
(0.374721 0.16986 -0.0924511)
(0.246139 0.399944 -0.127081)
(0.218429 0.380434 -0.10837)
(0.25739 0.42383 -0.173658)
(0.541772 0.634865 -0.362614)
(0.561899 0.653009 -0.329953)
(0.553256 0.63859 -0.34446)
(0.581557 0.647684 -0.323098)
(0.439849 0.338249 -0.417414)
(0.509891 0.289735 -0.431479)
(0.471181 0.302896 -0.438598)
(0.553028 0.29582 -0.402015)
(0.338636 0.284226 -0.240301)
(0.353503 0.299596 -0.263339)
(0.150386 0.220224 -0.0253461)
(0.146712 0.206908 -0.0285872)
(0.147485 0.199255 -0.0291035)
(0.481973 0.751556 -0.319543)
(0.500744 0.753028 -0.310924)
(0.274773 0.231387 -0.00725663)
(0.298019 0.222028 0.000713755)
(0.267225 0.195897 -0.00983498)
(0.329341 0.192807 -0.00123773)
(0.493062 0.176456 -0.0178715)
(0.472848 0.173423 -0.037864)
(0.586571 0.186575 -0.0428966)
(0.449232 0.179476 -0.0212701)
(0.111821 0.526964 -0.179053)
(0.100981 0.51073 -0.144512)
(0.717643 0.550154 -0.19605)
(0.690304 0.571627 -0.195899)
(0.641342 0.503389 -0.344711)
(0.655535 0.50334 -0.367687)
(0.645174 0.507028 -0.379506)
(0.33926 0.236904 -0.202014)
(0.354914 0.265814 -0.238757)
(0.158213 0.351239 -0.0440251)
(0.147389 0.321037 -0.0339584)
(0.183682 0.190706 -0.0565896)
(0.19535 0.192511 -0.0665554)
(0.604957 0.432585 -0.464745)
(0.623009 0.413729 -0.4636)
(0.571796 0.436356 -0.484554)
(0.642934 0.41821 -0.446224)
(0.105312 0.55059 -0.207422)
(0.0934109 0.550401 -0.190034)
(0.745991 0.448925 -0.297997)
(0.718574 0.410797 -0.338689)
(0.704127 0.417997 -0.32607)
(0.697872 0.415255 -0.368498)
(0.433179 0.429524 -0.42016)
(0.455994 0.474039 -0.426848)
(0.190539 0.204665 -0.0639417)
(0.21301 0.211651 -0.0845423)
(0.367158 0.478055 -0.395484)
(0.377334 0.526916 -0.414377)
(0.414772 0.47878 -0.416843)
(0.622664 0.624356 -0.263599)
(0.612731 0.632812 -0.252515)
(0.659091 0.618928 -0.199222)
(0.225657 0.340328 -0.0387685)
(0.199564 0.311433 -0.0502962)
(0.193287 0.288204 -0.0410911)
(0.629949 0.66295 -0.239834)
(0.626479 0.66947 -0.274712)
(0.143502 0.395881 -0.0467715)
(0.121378 0.413969 -0.0716983)
(0.136619 0.451579 -0.0784156)
(0.749737 0.335579 -0.0307089)
(0.784357 0.391783 -0.0214099)
(0.503289 0.487551 -0.436026)
(0.476069 0.497482 -0.429004)
(0.476103 0.462797 -0.439682)
(0.522647 0.536957 -0.437532)
(0.776496 0.3669 -0.239793)
(0.771822 0.352149 -0.249729)
(0.813062 0.383461 -0.209065)
(0.758228 0.356964 -0.28258)
(0.65819 0.744293 -0.266124)
(0.663896 0.729481 -0.264168)
(0.622311 0.753397 -0.287806)
(0.656602 0.739686 -0.283887)
(0.553569 0.744149 -0.325985)
(0.568575 0.748696 -0.307807)
(0.702088 0.769726 -0.295418)
(0.588563 0.745378 -0.311545)
(0.590697 0.749612 -0.296812)
(0.658158 0.68336 -0.256838)
(0.662545 0.700805 -0.266757)
(0.680599 0.736997 -0.278731)
(0.630916 0.733519 -0.295912)
(0.638385 0.750452 -0.292043)
(0.665891 0.749618 -0.291425)
(0.60853 0.766033 -0.298037)
(0.636876 0.756587 -0.297427)
(0.661067 0.771438 -0.302383)
(0.58335 0.738956 -0.30656)
(0.612395 0.758485 -0.301996)
(0.630301 0.664005 -0.283536)
(0.639159 0.680148 -0.282394)
(0.641181 0.705244 -0.279433)
(0.68198 0.728688 -0.289655)
(0.649783 0.677177 -0.267157)
(0.663892 0.663575 -0.273502)
(0.634654 0.697366 -0.27084)
(0.680431 0.714303 -0.270673)
(0.748318 0.40732 -0.276546)
(0.777105 0.419731 -0.256596)
(0.721629 0.379132 -0.309688)
(0.709156 0.315534 -0.383741)
(0.705232 0.313693 -0.377735)
(0.683413 0.331403 -0.410611)
(0.738339 0.338392 -0.398454)
(0.747405 0.339239 -0.346822)
(0.804487 0.333329 -0.220037)
(0.819101 0.363682 -0.198542)
(0.806315 0.371664 -0.208276)
(0.785852 0.333866 -0.259759)
(0.798038 0.351157 -0.238078)
(0.773829 0.466761 -0.166944)
(0.750055 0.443481 -0.180519)
(0.773131 0.425881 -0.193751)
(0.74927 0.363678 -0.284496)
(0.775941 0.366703 -0.285812)
(0.735828 0.361685 -0.315783)
(0.769963 0.391927 -0.299783)
(0.75536 0.386534 -0.271033)
(0.785474 0.410844 -0.256232)
(0.887123 0.462612 -0.197284)
(0.81596 0.405439 -0.260577)
(0.791886 0.389045 -0.252141)
(0.787334 0.395018 -0.238126)
(0.821526 0.399988 -0.226772)
(0.790271 0.429236 -0.209856)
(0.828688 0.445363 -0.185288)
(0.530223 0.579058 -0.405488)
(0.520379 0.576998 -0.420863)
(0.528803 0.55045 -0.427089)
(0.505691 0.562921 -0.423731)
(0.487804 0.532289 -0.445358)
(0.534359 0.527414 -0.431325)
(0.449967 0.35657 -0.397645)
(0.457752 0.340593 -0.38243)
(0.502146 0.402602 -0.420917)
(0.513017 0.440237 -0.425865)
(0.500325 0.62697 -0.403885)
(0.492465 0.594473 -0.418236)
(0.46411 0.565124 -0.424797)
(0.542809 0.473098 -0.430608)
(0.437596 0.411912 -0.424144)
(0.486999 0.447835 -0.435543)
(0.474538 0.448292 -0.435002)
(0.500084 0.460863 -0.430103)
(0.43814 0.393491 -0.408257)
(0.487418 0.41335 -0.42051)
(0.426679 0.436251 -0.436035)
(0.596239 0.542788 -0.424751)
(0.544606 0.420002 -0.432598)