/*--------------------------------*- C++ -*----------------------------------*\
| =========                 |                                                 |
| \\      /  F ield         | OpenFOAM: The Open Source CFD Toolbox           |
|  \\    /   O peration     | Version:  v1612+                                |
|   \\  /    A nd           | Web:      www.OpenFOAM.com                      |
|    \\/     M anipulation  |                                                 |
\*---------------------------------------------------------------------------*/
FoamFile
{
    version     2.0;
    format      ascii;
    class       volVectorField;
    location    "206";
    object      wallShearStress;
}
// * * * * * * * * * * * * * * * * * * * * * * * * * * * * * * * * * * * * * //

dimensions      [0 2 -2 0 0 0 0];

internalField   uniform (0 0 0);

boundaryField
{
    WALL
    {
        type            calculated;
        value           nonuniform List<vector> 
60385
(
(0.00629575 -0.012234 0.00484005)
(0.00604414 -0.0111932 0.00424181)
(0.0161829 0.00709722 0.00514652)
(0.00558891 -0.0108429 0.00449507)
(0.00536178 -0.0104251 0.00433392)
(0.0127253 -0.022458 -0.00110659)
(0.0125944 -0.0217409 -0.00114055)
(0.0114366 -0.00363994 0.00129025)
(0.0118762 -0.00369809 0.00149011)
(0.0091715 0.00661775 0.022845)
(0.00799645 0.00546869 0.0226745)
(0.0160531 0.00374071 0.0118855)
(0.0161302 0.00345821 0.0117964)
(0.0126876 0.00652891 0.00451447)
(0.0120469 0.00612793 0.00321656)
(0.013174 0.00477684 0.0039016)
(0.0136712 0.00494678 0.00344714)
(-0.00880746 -0.0203599 -0.0120474)
(-0.0100266 -0.0211014 -0.0124546)
(-0.0121266 -0.010488 0.0104175)
(-0.0108861 -0.00918339 0.00836473)
(-0.00534956 0.0334314 0.00726542)
(-0.00485436 0.0324258 0.0061202)
(-0.00488455 0.0239402 0.019366)
(-0.0044852 0.0262057 0.0191291)
(-0.00517214 -0.0166012 -0.00449057)
(-0.00530748 -0.0147614 -0.00502649)
(0.00774145 -0.00115619 0.00410339)
(0.00697164 -0.00161084 0.00424058)
(0.0126427 -0.0147542 0.000892128)
(0.0132802 -0.0117582 0.000864736)
(0.011395 0.00582957 0.0123257)
(0.0126178 0.0034529 0.0135025)
(0.00214371 0.00252111 0.0106237)
(0.00251212 0.00169629 0.0113634)
(-0.0119289 -0.0251176 0.0139688)
(-0.0123011 -0.0250548 0.0135603)
(0.00557038 -0.010879 0.00439367)
(0.00621542 -0.011797 0.00457144)
(0.00633723 -0.0124648 0.00500042)
(0.00647962 -0.0123661 0.00467596)
(0.00567451 -0.0113772 0.00463931)
(0.00547713 -0.0114131 0.00494159)
(0.00485732 -0.0102536 0.00452486)
(0.00514592 -0.0106065 0.00449763)
(-0.00573068 -0.0074154 0.00135625)
(-0.00456741 -0.0066483 0.00151649)
(0.00788695 -0.0104924 0.0100011)
(0.00790831 -0.0107807 0.00957758)
(0.00564798 -0.0113955 0.00485912)
(0.00591552 -0.0114546 0.00449694)
(-0.0153313 0.0147825 0.000855788)
(-0.0157558 0.0129972 0.000846154)
(-0.00606751 -0.00588868 -0.00487279)
(-0.0056641 -0.00527978 -0.00440637)
(0.00656375 -0.0102323 -0.00136467)
(0.00623638 -0.00930423 -0.000282128)
(0.000749764 -0.0204267 -0.00906266)
(0.000393847 -0.0221733 -0.00838537)
(0.000613815 -0.0227127 -0.00507728)
(0.000472214 -0.0236185 -0.00705956)
(0.00561 -0.010929 0.00460586)
(0.00575771 -0.0111105 0.00450387)
(0.00527241 -0.0106901 0.00487845)
(0.00534714 -0.0109817 0.00417535)
(0.00172464 -0.0213552 -0.0134319)
(0.00282677 -0.0205769 -0.0143837)
(0.0158116 -0.0210436 -0.0101997)
(0.0166973 -0.0183246 -0.0124776)
(0.00556059 -0.0111414 0.00466523)
(0.00535528 -0.0106057 0.00421283)
(0.00730275 -0.0146457 0.00617971)
(0.00712762 -0.0139077 0.00588491)
(0.00565827 -0.011622 0.00483041)
(0.00594328 -0.0117853 0.00487973)
(0.00608785 -0.0124837 0.00530345)
(0.00629994 -0.0125866 0.0053247)
(0.00830621 -0.0151956 0.00612887)
(0.0079215 -0.0156277 0.00653685)
(0.00533689 -0.0108276 0.00450812)
(0.00555619 -0.0109581 0.00459056)
(0.0056126 -0.0114075 0.00518101)
(0.00576617 -0.0114476 0.00457998)
(0.00552865 -0.0115119 0.0049284)
(0.00566368 -0.0115382 0.00480795)
(0.00641607 -0.0123611 0.0053037)
(0.005638 -0.0115355 0.00481704)
(0.00545223 -0.0113901 0.00480233)
(0.00586656 -0.011382 0.00473964)
(-0.00397653 -0.00762098 0.00348071)
(-0.00327106 -0.00665053 0.00287643)
(-0.018491 -0.0271411 0.00909074)
(-0.0174878 -0.0278832 0.00972234)
(-0.00714354 -0.0203353 0.010088)
(-0.00852581 -0.0231489 0.0114392)
(0.00861458 -0.0179335 0.015226)
(0.00842068 -0.0182882 0.0132605)
(0.00571812 -0.0123269 0.00939508)
(0.00660682 -0.0136939 0.00916245)
(0.0205918 -0.0134946 0.00610478)
(0.0192086 -0.0125823 0.00308669)
(0.00291381 -0.0149854 0.00791797)
(0.00172796 -0.0153615 0.00849272)
(0.00496885 -0.0101717 0.00425793)
(0.00474933 -0.0104987 0.00464036)
(0.00503181 -0.0104681 0.004449)
(0.00508946 -0.0103217 0.00441139)
(0.00587769 -0.0115289 0.00481974)
(0.00636538 -0.0122408 0.00500352)
(0.0320874 -0.0687011 0.0221244)
(0.0530161 -0.14026 0.0314587)
(0.0145105 -0.0177326 0.00140183)
(0.0135817 -0.0190886 0.00337141)
(0.00370122 0.00265111 0.00969141)
(0.00444363 0.00151595 0.0101767)
(0.00818575 0.00426302 0.0162523)
(0.0105808 0.00393734 0.0184966)
(0.0184409 0.00364101 0.00942893)
(0.018682 0.00257103 0.0101907)
(0.0182402 0.00334341 0.0108102)
(0.0191956 0.00438365 0.0112485)
(0.0121345 0.00207917 0.0134043)
(0.0117806 0.000948761 0.015339)
(0.0145646 0.00317142 0.0122315)
(0.013591 0.0031453 0.010991)
(0.0115422 -0.000484263 0.00864217)
(0.0110001 -0.000114535 0.007042)
(0.00641258 -0.000838459 0.00668995)
(0.00613833 -0.000980271 0.00651413)
(0.0242033 0.00104836 0.00605276)
(0.0256445 -0.000974443 0.00698128)
(0.0022687 -0.0160786 -0.00972292)
(0.00235526 -0.0167067 -0.00968558)
(0.0266383 0.00020818 0.0124673)
(0.0286459 0.00419554 0.0150199)
(-0.00300744 0.00571558 0.0123531)
(-0.00377435 0.00571836 0.0116529)
(-0.00140417 -0.00572379 -0.00818423)
(-0.000893377 -0.00587256 -0.00981639)
(-0.015002 0.00144143 0.0110842)
(-0.0157101 0.00172785 0.0121242)
(-0.0159223 -0.00370393 0.0174348)
(-0.0150276 -0.000190603 0.0172961)
(-0.0152592 0.00156097 0.0110544)
(-0.0156826 -0.00067927 0.0118126)
(0.00232069 -0.00019867 -0.00158112)
(-0.000361776 0.00119859 0.00104438)
(-0.00189611 -0.0121857 -0.00533608)
(-0.00177206 -0.0099167 -0.00506803)
(-0.0223603 0.0350299 0.0141309)
(-0.0240622 0.0323577 0.0106598)
(-0.0149849 0.0207285 0.0124036)
(-0.0130993 0.0271976 0.00915169)
(-0.0245998 0.0124303 0.00200503)
(-0.0251505 0.0126382 0.00194831)
(-0.0162436 -0.0193757 -0.00353828)
(-0.0157473 -0.020603 -0.00334337)
(-0.00202733 -0.00439448 -0.00528349)
(-0.00222178 -0.00411751 -0.00507985)
(-0.00986954 -0.0143174 0.00443926)
(-0.00969049 -0.0148655 0.0040895)
(-0.00477269 -0.00846999 -0.00791267)
(-0.00441811 -0.00820299 -0.00734526)
(-0.00954008 -0.0142048 0.00460995)
(-0.0093486 -0.013653 0.00392193)
(-0.0154297 -0.0196577 0.006524)
(-0.016089 -0.0205663 0.00807111)
(-0.0149888 -0.0197572 0.00770374)
(-0.0155686 -0.0195564 0.00727082)
(-0.00836769 -0.0207506 -0.011818)
(-0.00715572 -0.0180606 -0.00907974)
(-0.00700369 -0.0185688 -0.011252)
(-0.00774454 -0.0199027 -0.0125599)
(-0.0074306 -0.0110193 0.00357741)
(-0.0071715 -0.0107182 0.00352256)
(-0.00858166 -0.0128783 0.00432002)
(-0.00783936 -0.0122117 0.00411179)
(-0.00726316 -0.0104739 0.00316385)
(-0.00736457 -0.0113606 0.00391932)
(-0.00710324 -0.0109028 0.00359964)
(-0.0069441 -0.0103419 0.00317217)
(-0.00813029 -0.0122237 0.00386501)
(-0.00822673 -0.0133736 0.00394053)
(-0.00626133 -0.00939262 0.00308943)
(-0.00567621 -0.00863229 0.00298329)
(-0.00703518 -0.0101889 0.00320518)
(-0.00622588 -0.00943773 0.00306326)
(-0.00732582 -0.0107486 0.00316485)
(-0.00743567 -0.0114128 0.00313765)
(-0.00620897 -0.00968302 0.00281972)
(-0.00612867 -0.00988861 0.00274336)
(-0.00751155 -0.0119137 0.00298359)
(-0.00707977 -0.0114032 0.00209365)
(-0.0084674 -0.0129656 0.00429274)
(-0.00930194 -0.0138791 0.00469684)
(-0.00988449 -0.0136192 0.00513425)
(-0.00965021 -0.0139297 0.00506081)
(-0.0101057 -0.0143341 0.00507546)
(-0.00930771 -0.0141912 0.00401098)
(0.00757892 -0.00159781 0.0286011)
(0.00505457 0.00207186 0.0276691)
(0.0126863 0.00558702 0.00449833)
(0.0136007 0.00575285 0.00478934)
(0.0162789 0.00638286 0.00607156)
(0.0146612 0.00513885 0.00507928)
(0.0200412 0.00530371 0.0104473)
(0.0202251 0.00534815 0.0104421)
(0.0158766 0.00847389 0.010128)
(0.0181661 0.00708665 0.0104108)
(0.0121933 0.00477105 0.0129547)
(0.0115972 0.00355313 0.0127695)
(0.00846285 0.00103654 0.00560479)
(0.00913242 0.00195105 0.00544582)
(0.01922 0.00501366 0.0104355)
(0.0199809 0.00576888 0.0110253)
(0.0141694 0.00682004 0.0115092)
(0.01393 0.00698254 0.011236)
(0.0131989 0.00502119 0.0121454)
(0.0124257 0.00500273 0.0121939)
(0.016675 0.00334094 0.0149193)
(0.0157244 0.00293864 0.0147029)
(0.0152957 0.00129236 0.0120738)
(0.0170438 0.00328779 0.0114216)
(0.0012875 -0.0044188 0.0116038)
(0.00151951 -0.00463358 0.0113393)
(0.00702197 -0.00614929 0.00305296)
(0.00635259 -0.00640717 0.00450398)
(0.00557747 -0.0107298 0.00430792)
(0.00501979 -0.0102206 0.00436735)
(0.00508162 -0.0102692 0.00433311)
(0.00527027 -0.010503 0.00414459)
(0.00298583 -0.0105591 -0.00789563)
(0.00133984 -0.00932825 -0.00744738)
(-0.00979847 -0.0140467 0.00451347)
(-0.00822425 -0.0134324 0.00457705)
(-0.00903042 -0.0104466 0.00438721)
(-0.00857525 -0.00963173 0.00396556)
(-0.00612238 -0.0100485 0.00053015)
(-0.00663786 -0.0087114 0.0011402)
(-0.000989641 -0.00387784 0.0129604)
(-0.00202381 -0.00425095 0.0117299)
(0.0118723 -0.0228962 -0.00188186)
(0.0113503 -0.0218752 -0.00324836)
(0.0103586 0.00513293 0.00499551)
(0.00979412 0.00637552 0.00496534)
(0.000256585 -0.00328372 0.00453041)
(0.00104164 -0.00437217 0.00409522)
(0.00574423 -0.0112827 0.00471359)
(0.00583149 -0.0115599 0.00472798)
(-0.00668599 -0.0112458 -0.0105003)
(-0.00667072 -0.0111294 -0.0114892)
(-0.0134332 0.00682427 0.00974014)
(-0.0111076 0.00721068 0.0124049)
(-0.0149928 0.00199805 0.00782167)
(-0.0129298 9.81051e-05 0.00805595)
(0.00554027 -0.0107092 0.00439208)
(0.00544877 -0.0110513 0.00452485)
(0.00553535 -0.0109943 0.00450234)
(0.00540027 -0.0109837 0.00454901)
(0.020123 -0.0195023 0.007219)
(0.0184171 -0.0188618 0.0103363)
(-0.0124199 0.0156779 0.00591979)
(-0.0120614 0.0140168 0.00449856)
(-0.0136546 0.0117638 0.0019501)
(-0.0140892 0.0145638 0.00274038)
(0.0046231 -0.0087713 0.0100594)
(0.00483287 -0.0104153 0.00967468)
(0.0058416 -0.0136169 0.00907536)
(0.00622128 -0.0116692 0.0108616)
(0.0128251 0.00556206 0.0028994)
(0.0129143 0.00530833 0.00328009)
(-0.00622528 -0.00928907 0.00309636)
(-0.0064779 -0.00913765 0.00292356)
(-0.00803502 -0.0122365 0.00426966)
(-0.00793431 -0.0121896 0.00422191)
(-0.00567698 -0.00819531 -0.0028208)
(-0.00591665 -0.00797685 -0.00362484)
(0.0044825 -0.00940234 0.00455441)
(0.0048762 -0.0100999 0.00438931)
(0.00733599 -0.00164842 0.00684579)
(0.00649439 -0.00264742 0.00602172)
(0.00821455 -0.00102167 0.00726375)
(0.00670329 -0.00156424 0.00584736)
(-0.00354015 0.00483629 0.000954652)
(-0.000801175 0.0001027 0.000278327)
(0.0316461 -0.0385711 0.0503482)
(0.027241 -0.0206854 0.0634444)
(0.0055581 -0.0108864 0.00432604)
(0.00555853 -0.0112529 0.00461019)
(0.00598222 -0.0116401 0.00466088)
(0.00494125 -0.0107217 0.00472307)
(-0.0284918 -0.0171808 -0.00206267)
(-0.0294021 -0.0145866 0.000812977)
(0.0059703 -0.0113755 0.00469822)
(0.00559959 -0.0114058 0.00479459)
(0.00511397 -0.0104928 0.00449352)
(0.00540224 -0.0110447 0.00467282)
(0.00536407 -0.0107684 0.00450555)
(0.00573585 -0.010751 0.0043856)
(0.00528796 -0.0106645 0.00490272)
(0.00559346 -0.0115212 0.00455261)
(0.00624405 -0.0129109 0.00550936)
(0.00648018 -0.012984 0.00537007)
(0.00549689 -0.0112086 0.0047062)
(0.00534577 -0.0110636 0.00459135)
(0.00570065 -0.0115742 0.00492716)
(0.00578326 -0.0114634 0.00464148)
(0.00535091 -0.0116644 0.00470529)
(0.00556628 -0.0106742 0.00487187)
(0.00553221 -0.0110887 0.00471351)
(0.00571177 -0.011121 0.00456425)
(-0.0178497 -0.0344078 0.0148708)
(-0.0190809 -0.0355511 0.0140702)
(0.00274166 -0.018783 0.0172662)
(0.00463001 -0.0187943 0.0177382)
(0.00846426 -0.0157505 0.0147757)
(0.00721391 -0.0156751 0.0158468)
(-0.00182874 -0.0045429 0.00266416)
(-0.00176725 -0.0040616 0.00247793)
(0.00517626 -0.0104255 0.00440501)
(0.0053593 -0.0108702 0.0044013)
(0.0055082 -0.0110629 0.00451388)
(0.00509646 -0.0104851 0.00460877)
(0.00689764 -0.0134437 0.0055206)
(0.00641509 -0.0133439 0.00570041)
(0.00595562 -0.0121239 0.00531852)
(0.00629574 -0.0123475 0.00510858)
(0.00641938 -0.0121526 0.0048374)
(0.00626746 -0.0124077 0.00502508)
(0.0180534 -0.0147298 0.00413154)
(0.019684 -0.0121274 0.00586729)
(0.0181197 -0.00993985 0.0150259)
(0.0125105 -0.00136497 0.0153369)
(0.0137546 -0.00152854 0.0165097)
(0.0154473 -0.00384888 0.0144255)
(0.0137828 -0.00263041 0.0140268)
(0.00339729 0.00433182 0.00813638)
(0.00308085 0.00464341 0.00770206)
(0.00528338 0.00545544 0.013088)
(0.0039658 0.00548096 0.0130096)
(0.00637566 0.00625843 0.0146675)
(0.0051837 0.00512135 0.0140516)
(0.00965776 0.00428099 0.0122651)
(0.0117021 0.00523652 0.0140285)
(0.0140945 0.00250879 0.0137265)
(0.0129911 0.00164308 0.0158013)
(0.0156508 0.00445209 0.00790787)
(0.0151119 0.00395915 0.00751481)
(0.0134652 -0.0106299 0.00109502)
(0.013972 -0.00909894 0.00116926)
(0.0137981 -0.000958281 0.0121475)
(0.0159331 -0.0016276 0.0160952)
(0.0156066 -0.0121817 0.00839243)
(0.0139451 -0.0108735 0.00836029)
(-0.00213921 -0.0104123 0.00519711)
(-0.0020085 -0.0106954 0.00511084)
(-0.0157938 -1.684e-06 0.0134861)
(-0.0160133 -0.0034807 0.0131946)
(-0.0103776 0.0125596 0.0131447)
(-0.00875665 0.0130565 0.012114)
(0.00148784 -0.00127446 -0.00176612)
(0.00236613 -0.00203558 -0.00278049)
(-0.000408243 -0.00331442 -0.003911)
(-0.00102204 -0.00387375 -0.00542512)
(-0.00761275 0.0042644 0.0112809)
(-0.00238821 0.00517485 0.0136473)
(-0.011045 0.0305397 0.0131649)
(-0.0119569 0.0348497 0.0128407)
(-0.0252882 0.030181 0.00850619)
(-0.0233394 0.0284217 0.00633311)
(-0.0218215 0.0266562 0.00800438)
(-0.0227053 0.028061 0.00990399)
(-0.00584965 -0.0091481 -0.0142888)
(-0.00786029 -0.0103057 -0.0147625)
(-0.00827094 -0.0135695 0.0057526)
(-0.00813743 -0.0137338 0.00559287)
(-0.0158328 -0.0140689 0.0131491)
(-0.0146006 -0.0131833 0.0133848)
(-0.00599174 -0.0109464 0.00376874)
(-0.0061712 -0.0108562 0.00382954)
(-0.00872394 -0.013608 0.00361042)
(-0.0090484 -0.0132042 0.00470576)
(-0.00953412 -0.0108266 0.00633233)
(-0.0113096 -0.013045 0.0078263)
(-0.00763189 -0.0113463 0.00349841)
(-0.00790196 -0.01155 0.00356287)
(-0.00601478 -0.00874398 0.00261522)
(-0.00606357 -0.00882015 0.00280197)
(-0.00936834 -0.0131446 0.00485671)
(-0.00999997 -0.0133514 0.00509616)
(-0.00818289 -0.0118341 0.00386473)
(-0.00848209 -0.0117979 0.00445098)
(-0.00710689 -0.0100578 0.00292974)
(-0.00665601 -0.0100088 0.00308706)
(0.0225985 -0.0318498 -0.0251486)
(0.024569 -0.0297635 -0.0234941)
(-0.00115446 0.00255632 0.00250134)
(0.00026807 0.00232394 0.00140317)
(0.00610319 0.00143923 -0.00438966)
(0.00995955 0.000160803 -0.00964468)
(-0.00877523 -0.00748038 0.013894)
(-0.0101892 -0.00771275 0.015886)
(0.00917797 0.00222893 0.00598897)
(0.00884525 0.00243129 0.00623798)
(0.00963804 0.00503951 0.0114268)
(0.00968928 0.00337615 0.0120768)
(0.0191103 0.00626792 0.00695995)
(0.0197969 0.00498451 0.00727705)
(0.0188604 0.00454767 0.00768303)
(0.0195957 0.00443469 0.00741713)
(0.0196832 0.00433036 0.00820981)
(0.0187798 0.00443255 0.00841568)
(0.0144072 0.00471684 0.0120746)
(0.0125778 0.00400862 0.0114346)
(0.00852627 0.00191332 0.0040227)
(0.00913569 0.00178578 0.00416949)
(0.00952202 0.00310158 0.00365369)
(0.0103735 0.00364509 0.00450475)
(0.0112348 0.00518908 0.0059786)
(0.0105959 0.0049673 0.00456766)
(0.00872313 0.00312666 0.00414085)
(0.00979091 0.00446206 0.00428838)
(0.0176107 0.00745252 0.00484325)
(0.013668 0.00350854 0.0144692)
(0.0154653 0.00193347 0.0158466)
(0.013635 0.00325797 0.0139917)
(0.0130191 0.00429169 0.0136184)
(0.00859656 -0.000980361 0.00693304)
(0.00823357 -0.000924185 0.00690722)
(0.0168621 0.00202304 0.011501)
(0.0175131 0.00270522 0.0123345)
(0.0140788 0.00552705 0.0128611)
(0.0132271 0.00423963 0.0118534)
(0.0146265 0.00353079 0.0128557)
(0.0136688 0.0042255 0.0124849)
(0.0127873 0.000200088 0.0112592)
(0.0124193 0.000242537 0.0112248)
(0.00488746 -0.00586158 0.0110346)
(0.00563873 -0.00556855 0.0111081)
(0.0121248 0.00574954 0.0136473)
(0.0106416 0.00525947 0.0137522)
(0.0116931 0.0027385 0.0113903)
(0.0136124 0.00287005 0.0125685)
(0.00877818 -0.0102805 0.00306915)
(0.0101453 -0.00910263 0.00293767)
(-0.00461055 -0.00754955 0.00497146)
(-0.00554853 -0.00814551 0.00545293)
(-0.00468312 -0.00748734 0.00522064)
(-0.00482641 -0.00734347 0.00450965)
(-0.0150067 -0.0140124 0.0104243)
(-0.0150532 -0.0150323 0.0108358)
(-0.00400447 -0.00642302 0.00357397)
(-0.0044628 -0.00733218 0.00449376)
(-0.00203299 -0.00511982 0.00928953)
(-0.00221799 -0.00453154 0.011922)
(0.0039905 -0.00205586 0.0134775)
(0.0152484 0.00830934 0.0181972)
(0.0176303 0.00480464 0.0172939)
(0.00125026 -0.0209068 -0.0108141)
(0.00192425 -0.0229322 -0.00985945)
(0.00280691 -0.0226237 0.000556207)
(0.00490482 -0.0214375 0.00153774)
(0.00191272 -0.0209709 0.00513566)
(0.00343425 -0.0254954 0.00525491)
(0.0146406 -0.0196515 0.00711422)
(0.0124181 -0.019628 0.00884444)
(0.0154745 -0.0223185 0.00429193)
(0.015614 -0.0226934 0.00520305)
(0.00585893 -0.0115518 0.0047322)
(0.00584771 -0.0120019 0.00506951)
(-0.00171536 -0.00604951 -0.00539662)
(-0.00169007 -0.00572869 -0.00564126)
(-0.00234425 -0.00809866 -0.00529904)
(-0.00220889 -0.00784904 -0.00518764)
(-0.00316754 -0.00827877 -0.00487066)
(-0.00314347 -0.00916631 -0.0056626)
(-0.00548967 -0.0109195 -0.00634219)
(-0.00619073 -0.0119857 -0.0068901)
(-0.00160896 -0.00750848 -0.0050562)
(-0.00134244 -0.00528369 -0.00465138)
(0.00619143 -0.00570157 0.00564422)
(0.00678803 -0.00515006 0.00499863)
(0.00559704 -0.0111672 0.00464366)
(0.00595861 -0.0120925 0.00496197)
(-0.00141609 -0.00232948 0.00488547)
(-0.00194858 -0.00205468 0.00513712)
(-0.00354385 -0.00673595 0.00606514)
(-0.0033711 -0.00477762 0.0058842)
(-0.0131286 -0.00613748 0.0116234)
(-0.0112862 -0.00461175 0.013131)
(0.0069703 0.00698247 0.00983154)
(0.00736183 0.0074483 0.00956755)
(0.015823 -0.0203243 0.00895072)
(0.0168682 -0.0205223 0.00676595)
(0.00159584 -0.0214112 -0.0056163)
(0.00128923 -0.0221337 -0.00484151)
(0.00104254 -0.0232228 0.00292832)
(0.0016611 -0.0239087 0.00254158)
(0.00824994 -0.0261296 -0.00354102)
(0.00928942 -0.0252444 -0.00441419)
(0.0058251 -0.0221855 -0.000507168)
(0.00731655 -0.0234922 -0.00218953)
(0.0129573 -0.0236203 -0.00369259)
(0.0130999 -0.0240569 -0.00329081)
(0.000215926 -0.026948 -0.00324214)
(0.00138165 -0.0259335 -0.00431057)
(0.00299807 -0.0173677 -0.0100152)
(0.00257485 -0.0167714 -0.0101591)
(-0.000344822 -0.00776864 0.00720167)
(-0.000224353 -0.00913662 0.00809966)
(0.000519036 -0.0068623 0.0103574)
(-0.000718557 -0.00575536 0.0111989)
(-0.00124613 -0.00669537 0.00824349)
(-0.000760821 -0.00627473 0.00794057)
(-0.0160387 0.0251657 0.01092)
(-0.017603 0.023982 0.0139133)
(-0.016152 0.0175316 -0.00123072)
(-0.0159864 0.0152065 -0.000764869)
(-0.00556586 -0.00834056 0.00572857)
(-0.00567313 -0.00840201 0.00525495)
(-0.00877751 -0.00919174 0.00281496)
(-0.00777129 -0.00805059 0.00177752)
(-0.00867731 -0.00703816 -0.000231736)
(-0.00878177 -0.00680831 -0.00145102)
(-0.00904643 -0.00705374 0.0006793)
(-0.00915094 -0.00821211 0.0015194)
(-0.00785475 -0.00719194 -0.00189812)
(-0.00793474 -0.00734809 -0.000542188)
(-0.0210558 -0.0191873 0.00422203)
(-0.0192696 -0.020641 0.00320401)
(-0.0180905 -0.0126078 0.0184127)
(-0.0170082 -0.012221 0.0206287)
(-0.0130414 -0.00823126 0.00526729)
(-0.0137832 -0.00734096 0.00373131)
(-0.0168619 -0.00766669 0.00869388)
(-0.0162825 -0.00667871 0.00580827)
(-0.0172209 -0.0119983 0.0215225)
(-0.0186208 -0.0108956 0.018157)
(-0.0161602 -0.00857489 0.0163558)
(-0.0165061 -0.0114464 0.0201677)
(-0.0146701 -0.00997075 0.0154111)
(-0.0148765 -0.0121813 0.0180537)
(-0.0134957 -0.00617581 0.0108247)
(-0.0151303 -0.00826114 0.0135626)
(-0.00737464 -0.0116082 0.00399557)
(-0.0072059 -0.0109098 0.0036166)
(-0.0073451 -0.0114557 0.00398794)
(-0.00741553 -0.0111531 0.00357492)
(-0.0091415 -0.0136031 0.00447071)
(-0.00915048 -0.0134969 0.00408396)
(0.00565918 -0.0180903 -0.0178253)
(0.00489116 -0.0144644 -0.013287)
(0.0130539 -0.0168607 -0.0176291)
(0.0142613 -0.0193629 -0.0213205)
(-0.000797935 -0.00591825 -0.00575234)
(0.000277142 -0.00735377 -0.00609745)
(0.000746364 -0.00113094 0.0126889)
(0.00275059 -0.00117227 0.00945978)
(-0.0129916 -0.00313397 0.0174909)
(-0.0138644 -0.00365394 0.0171134)
(0.00527802 -0.0111924 0.00471643)
(0.00533081 -0.0105086 0.00458959)
(0.00578662 -0.0107165 0.00433357)
(0.00538162 -0.0109353 0.0043947)
(0.00574822 -0.0115196 0.00467313)
(0.00555637 -0.010612 0.00420002)
(0.00502263 -0.0105588 0.00469995)
(0.00521813 -0.0105237 0.00439181)
(0.0051773 -0.0105757 0.00436125)
(0.00495363 -0.0101238 0.00432947)
(0.00504779 -0.0102153 0.00428998)
(0.0074982 -0.00446166 0.00328548)
(0.00728958 -0.00384188 0.00371796)
(0.00409404 -0.00560613 0.0104999)
(0.00404923 -0.00584053 0.0102707)
(0.00387374 -0.00784418 0.00871968)
(0.00470893 -0.0073857 0.011142)
(0.0043813 -0.00810781 0.0108886)
(0.00450517 -0.00876717 0.00859972)
(0.00524397 -0.00861972 0.0108515)
(0.00775897 -0.0130716 0.0139762)
(0.0070153 -0.0143828 0.01148)
(0.0123355 -0.00763886 0.000607201)
(0.0122015 -0.00851007 0.00138531)
(0.00858492 -0.0111609 0.00426649)
(0.00874834 -0.0114158 0.00331931)
(0.0114327 -0.0128655 0.00173388)
(0.011638 -0.0106121 0.00222506)
(0.00222333 -0.00489283 0.00961986)
(0.00169113 -0.00587416 0.0085328)
(0.00569285 -0.00303797 0.00534387)
(0.00585334 -0.00221554 0.00497231)
(0.0142654 0.00603342 0.0139059)
(0.0136485 0.00636536 0.0145245)
(0.00202957 -0.0048073 0.012025)
(0.00281687 -0.00528273 0.012464)
(0.00135143 -0.00569113 0.00987189)
(0.00165955 -0.00401335 0.0108606)
(0.00313928 -0.00568382 0.0106172)
(0.0023236 -0.00571111 0.0107436)
(0.00701729 -8.05913e-05 0.00834159)
(0.00775498 0.00187598 0.014092)
(0.0079817 0.00144229 0.011486)
(0.00648203 -0.000483844 0.00663203)
(0.00686919 0.000340235 0.00784247)
(0.00511879 -0.00145042 0.0121965)
(0.00655294 -0.00120566 0.0126985)
(0.0096667 -0.00209997 0.0126788)
(0.0100158 -0.00246743 0.0121761)
(0.0123098 0.0010386 0.0101122)
(0.0136873 0.000940988 0.0114901)
(0.0115115 0.00150906 0.00943373)
(0.0118927 0.00242579 0.00846083)
(0.0192422 0.00171551 0.0150919)
(0.019243 0.00189842 0.0163314)
(0.0188012 0.000969797 0.016662)
(0.0198398 -0.000738163 0.0169821)
(0.0189946 0.00152721 0.0164547)
(0.0188965 0.00040461 0.0160403)
(0.0174545 0.000684401 0.0167011)
(0.0183219 -0.000936556 0.0158002)
(0.014217 0.0035978 0.0123996)
(0.0138623 0.00449892 0.0127817)
(0.0150327 0.00307589 0.015619)
(0.0157738 0.00116923 0.0155556)
(0.0184812 0.00644798 0.00433388)
(0.0188116 0.00726167 0.00507051)
(0.0192748 0.00566782 0.00438546)
(0.0100048 0.00445068 0.00569916)
(0.0111598 0.00591659 0.00687764)
(0.0190793 0.00782012 0.0108293)
(0.0194383 0.00717313 0.0118734)
(0.0205333 0.00624714 0.0124819)
(0.0196281 0.00588452 0.011206)
(0.00784385 0.000278647 0.00774715)
(0.00789551 0.000217367 0.0070379)
(0.00760225 -0.000110854 0.00691325)
(0.0173535 0.00351382 0.0112311)
(0.0158092 0.00385898 0.0111771)
(0.0109587 0.00528964 0.00563624)
(0.0119663 0.00713156 0.00456445)
(0.0106311 0.00533127 0.00323779)
(0.0172505 0.000349188 0.0115183)
(0.0178047 0.000461261 0.0121504)
(0.00864005 0.000765188 0.00562623)
(0.00822274 0.000971676 0.00511353)
(0.00811306 0.000403309 0.00594638)
(0.00868649 0.000310688 0.00749692)
(0.0127789 0.00388216 0.0124911)
(0.0137175 0.00494023 0.0132858)
(0.0106988 0.00270169 0.0118736)
(0.00990699 0.00274427 0.0122202)
(0.0105182 0.00525559 0.0116893)
(0.0133767 0.0058677 0.0125641)
(0.0108309 0.00496566 0.0129398)
(0.0109281 0.00536621 0.0124335)
(0.0117318 0.00386008 0.0140619)
(0.0112026 0.00490246 0.0127783)
(0.0125832 0.00535132 0.011663)
(0.0137139 0.00636043 0.010842)
(0.00669145 -0.000189574 0.0082235)
(0.00668243 -0.000244041 0.00793736)
(0.00749189 0.000553647 0.00890286)
(0.00805418 0.000634539 0.0092704)
(0.00667296 0.00111904 0.00803296)
(0.00637337 0.000564006 0.00751956)
(0.016658 0.00460922 0.0102982)
(0.017271 0.00542783 0.0100424)
(0.0192589 0.00240046 0.010926)
(0.0198404 0.00299334 0.0112053)
(0.0179653 0.00507487 0.0102736)
(0.0187367 0.00698197 0.011338)
(0.00671866 0.00396542 0.0048645)
(0.0153128 0.00425649 0.00783393)
(0.0155186 0.00456664 0.00742248)
(0.0108466 0.00184404 0.0029531)
(0.0102157 0.00153248 0.00318619)
(0.00994503 0.00250243 0.00404998)
(0.0110497 0.00263649 0.0037347)
(0.0122039 0.00541159 0.00379017)
(0.0135507 0.00717107 0.00388361)
(0.013219 0.0047039 0.00354473)
(0.0131742 0.00456408 0.00380734)
(0.0170753 0.0062692 0.0147174)
(0.020814 0.00721566 0.0149339)
(0.0164751 0.00547997 0.00437664)
(0.0184923 0.0057555 0.00491235)
(0.018486 -0.018049 -0.0244112)
(0.0205336 -0.0151917 -0.0243067)
(0.012147 -0.0212233 -0.000220659)
(0.0100509 -0.0211438 0.000141998)
(-0.00864469 -0.0227588 0.0154101)
(-0.00840079 -0.020133 0.0178767)
(-0.00937974 -0.0121667 0.00495211)
(-0.00882433 -0.0123553 0.00444551)
(-0.00896078 -0.0129488 0.00429251)
(-0.00849123 -0.0132951 0.0049456)
(-0.00941025 -0.0129105 0.00485325)
(-0.00938032 -0.013049 0.00503992)
(-0.00727817 -0.0106049 0.00303191)
(-0.00711812 -0.0105337 0.00348069)
(-0.00712563 -0.00964924 0.00282952)
(-0.00737648 -0.01081 0.00330858)
(-0.00805352 -0.0107615 0.00365368)
(-0.0066023 -0.00990261 0.00335173)
(-0.00723813 -0.0102624 0.00272231)
(-0.0101976 -0.0145667 0.00460443)
(-0.00903978 -0.0113877 0.00410192)
(-0.00971602 -0.0136356 0.00462263)
(-0.00937428 -0.0138678 0.00427883)
(-0.0077173 -0.0105874 0.00339547)
(-0.00746545 -0.010418 0.0032208)
(-0.00621288 -0.010749 0.00344641)
(-0.00593721 -0.00988004 0.00324436)
(-0.00735391 -0.0100988 0.0031348)
(-0.00719376 -0.0102734 0.00306315)
(-0.00632964 -0.0091918 0.00283416)
(-0.00646374 -0.00927567 0.00286011)
(-0.00702761 -0.01033 0.0032986)
(-0.00631625 -0.00998722 0.00327438)
(-0.00762681 -0.0120213 0.00315495)
(-0.00704892 -0.0117804 0.00306795)
(-0.00722522 -0.0106069 0.00305152)
(-0.00693622 -0.0106671 0.00270262)
(-0.0081099 -0.0113594 0.00331762)
(-0.0076371 -0.0112745 0.00340547)
(-0.00808706 -0.0116272 0.00345901)
(-0.00734842 -0.0105977 0.00331535)
(-0.00757103 -0.0125367 0.0035084)
(-0.00672554 -0.0101973 0.00320003)
(-0.00691769 -0.0108848 0.00350079)
(-0.00876144 -0.0124679 0.00363683)
(-0.00877337 -0.0129612 0.00416376)
(-0.00809357 -0.0118531 0.0035595)
(-0.00808464 -0.0118013 0.00362254)
(-0.00719834 -0.0110611 0.00389703)
(-0.00713798 -0.011775 0.00426569)
(-0.00763473 -0.011566 0.00379753)
(-0.00829082 -0.0124522 0.00405888)
(-0.00712206 -0.0109118 0.00367173)
(-0.00740176 -0.0108746 0.00324973)
(-0.00743434 -0.0112594 0.00350651)
(-0.00755837 -0.0114417 0.00353206)
(-0.00733221 -0.0108374 0.00327934)
(-0.00700387 -0.011192 0.00404055)
(-0.00809261 -0.0119061 0.0035174)
(-0.00804995 -0.0104435 0.00317688)
(-0.00790453 -0.0111058 0.00416888)
(-0.00804467 -0.0115108 0.0039735)
(-0.00787096 -0.0117767 0.00379773)
(-0.00811003 -0.0113634 0.00426573)
(-0.00849626 -0.0119757 0.00424638)
(-0.00808013 -0.0115258 0.00432954)
(-0.00821738 -0.0115642 0.00359017)
(-0.00816342 -0.0115564 0.00352853)
(-0.00835817 -0.0130365 0.00444593)
(-0.00796732 -0.0123833 0.00401913)
(-0.00802325 -0.0120116 0.00419528)
(-0.00811787 -0.0117161 0.00377189)
(-0.00743528 -0.0113573 0.00360987)
(-0.00739886 -0.0108215 0.00342993)
(-0.00797997 -0.0112977 0.00397544)
(-0.00850709 -0.0119789 0.00417982)
(-0.0102231 -0.0149258 0.00472595)
(-0.0098631 -0.0140796 0.00432105)
(-0.00907867 -0.0128931 0.00386635)
(-0.00972732 -0.0129038 0.00339231)
(-0.00834379 -0.0125831 0.00400372)
(-0.00886339 -0.0127826 0.00408356)
(-0.00883214 -0.0129802 0.00401088)
(-0.00967564 -0.0134584 0.00385738)
(-0.00456835 -0.0163033 0.0016222)
(-0.00391116 -0.0150976 0.00165723)
(-0.00721003 -0.0120574 -0.00150644)
(-0.0173311 -0.0144262 0.0181633)
(-0.0155118 -0.0172166 0.020031)
(-0.0128286 -0.0199585 0.00852688)
(-0.00931706 -0.0185703 0.00848696)
(-0.0106392 -0.0208864 -0.00806939)
(-0.0100196 -0.0206212 -0.0100363)
(-0.0142073 -0.0214258 -0.00717246)
(-0.0149334 -0.0211421 -0.00588889)
(-0.0117451 -0.02082 -0.00871059)
(-0.0130734 -0.0221849 -0.00885031)
(-0.00521799 -0.0177638 -0.0126837)
(-0.00544513 -0.0196751 -0.0143092)
(-0.00779765 -0.0209855 -0.0134287)
(-0.00841906 -0.0199627 -0.0120986)
(-0.00660135 -0.0176472 -0.0115032)
(-0.00758124 -0.0180377 -0.0120074)
(-0.00841376 -0.0169868 -0.0138615)
(-0.00769204 -0.0158271 -0.0135024)
(-0.0152238 -0.0234418 0.0136944)
(-0.0142387 -0.0245442 0.0148521)
(-0.012897 -0.0243715 0.0133373)
(-0.0133694 -0.0246014 0.0105075)
(-0.0180333 -0.0233896 0.00716161)
(-0.0196335 -0.0224251 0.00737651)
(-0.0174603 -0.0214228 0.011327)
(-0.0177885 -0.0232695 0.0131165)
(-0.0146167 -0.0213553 0.0114478)
(-0.0158709 -0.0222406 0.0109292)
(-0.014334 -0.0191676 0.0136084)
(-0.0139205 -0.0180364 0.0141605)
(-0.0105305 -0.0143202 0.00385409)
(-0.00911877 -0.0134305 0.0037908)
(-0.0105137 -0.0150296 0.00456048)
(-0.0125522 -0.0160455 0.00435051)
(-0.00736032 -0.0119594 0.00300995)
(-0.00797456 -0.0125083 0.00311323)
(-0.0165747 -0.0193093 0.00872865)
(-0.0165398 -0.0189955 0.00870201)
(-0.0173175 -0.0218587 0.0114816)
(-0.0159716 -0.0200851 0.00978704)
(-0.0140983 -0.0188681 0.0125613)
(-0.00910975 -0.0135701 0.0044366)
(-0.00911793 -0.0136494 0.00474555)
(-0.00978184 -0.0139961 0.0051749)
(-0.00978051 -0.0142016 0.00529499)
(-0.00626385 -0.0127647 0.00581533)
(-0.00651872 -0.012137 0.00470907)
(-0.0145651 -0.0236403 0.0104273)
(-0.0143188 -0.0255326 0.0131571)
(-0.0153321 -0.0238531 0.0123145)
(-0.0165155 -0.0239117 0.011165)
(-0.00198222 -0.00766896 -0.0050872)
(-0.0015843 -0.00677574 -0.0054778)
(-0.00541214 -0.00942756 -0.00621639)
(-0.00474186 -0.00938194 -0.0055604)
(-0.00275414 -0.0076251 -0.00392477)
(-0.00284225 -0.00852278 -0.00375351)
(-0.00628916 -0.00975683 -0.00801366)