/*--------------------------------*- C++ -*----------------------------------*\
| =========                 |                                                 |
| \\      /  F ield         | OpenFOAM: The Open Source CFD Toolbox           |
|  \\    /   O peration     | Version:  v1612+                                |
|   \\  /    A nd           | Web:      www.OpenFOAM.com                      |
|    \\/     M anipulation  |                                                 |
\*---------------------------------------------------------------------------*/
FoamFile
{
    version     2.0;
    format      ascii;
    class       volScalarField;
    location    "50";
    object      p;
}
// * * * * * * * * * * * * * * * * * * * * * * * * * * * * * * * * * * * * * //

dimensions      [0 2 -2 0 0 0 0];

internalField   nonuniform List<scalar> 
17021
(
1.04321
0.840518
1.00315
0.919991
1.0227
0.943801
0.966711
0.996068
0.989938
0.961925
0.980362
0.977294
0.965486
0.973747
0.960353
0.958962
0.950121
0.953795
0.953618
0.97499
0.986483
0.990332
0.964389
0.981972
0.988392
1.00592
0.996329
0.99988
0.996123
1.01141
1.01588
1.01539
1.00751
0.983573
0.990695
1.0106
1.01517
0.989826
0.997417
1.00891
0.991668
0.998738
1.04356
1.03362
1.04329
1.03243
1.03403
1.03946
1.0472
1.02264
1.02617
1.04489
1.04797
1.04912
1.03126
1.04075
1.03258
1.03082
1.03411
1.00427
1.01414
1.02225
1.01915
0.997669
0.989064
0.993672
0.991599
1.00589
1.01798
1.02007
0.993271
0.992363
1.00288
1.01193
0.995963
0.998693
1.01244
1.00648
1.00454
0.994789
0.993637
0.994636
1.01447
0.988865
0.982597
0.95279
0.99206
0.983042
0.997283
0.986018
0.989972
0.864353
0.869874
0.867795
0.902889
0.895544
0.888209
0.879574
0.897266
0.886044
0.874126
0.877643
0.922002
0.916881
0.911832
0.900429
0.911558
0.887828
0.983909
0.986059
0.97791
0.974663
0.989092
0.98976
0.99067
0.96384
0.969521
0.965802
0.960513
0.97739
0.969219
0.973742
0.972561
0.956672
0.951239
0.973785
0.977995
0.960155
0.976421
0.963008
0.959686
0.941881
0.952832
0.928651
0.962768
0.945927
0.960569
0.943169
0.968893
0.972532
0.97598
0.95144
0.962125
0.955853
0.939448
0.974074
0.976133
0.977365
0.983014
0.959413
0.945416
0.966752
0.967703
0.967634
0.976257
0.986415
0.975288
0.971324
0.964106
0.962495
0.973562
0.969716
0.97927
1.01788
1.00473
1.02223
1.01019
0.996595
1.00421
0.976721
0.965341
0.978028
0.971269
0.97326
0.98801
0.980508
0.974083
0.96433
0.980717
0.975771
0.970948
0.995708
0.993385
0.997447
0.999144
0.986821
1.01365
1.00416
0.997382
0.992395
1.01432
1.0147
1.00982
0.997292
0.996799
0.986769
0.977689
1.00347
0.996712
0.978542
0.973001
1.00358
1.00543
1.00168
1.0109
1.00025
1.01469
0.995013
1.00576
0.997833
1.0116
1.00145
1.01052
1.00024
1.01148
1.0102
1.01453
0.941198
0.94028
0.945257
0.94523
0.950125
0.939926
0.948116
0.939426
0.93454
0.941469
0.943336
0.945771
0.967773
0.93405
0.926948
0.935579
0.944194
0.935009
0.97297
0.967082
0.967913
0.971874
0.966051
0.971783
0.96644
0.96314
0.956532
0.959858
0.967022
0.967988
0.957896
0.958036
0.946441
0.955951
0.960495
0.953909
0.953516
0.964137
0.956771
0.963577
0.970077
0.993208
0.990535
0.954877
0.955746
0.967197
0.977025
0.973994
0.988119
0.995943
0.978382
0.995607
0.936053
0.928232
0.933971
0.929067
0.936662
0.938606
0.94624
0.948803
0.942269
0.936351
0.942134
0.951582
0.95175
0.951367
0.946316
0.895659
0.889445
0.898594
0.900181
0.873345
0.909217
0.905299
0.881903
0.912803
0.89925
0.888499
0.923187
0.928079
0.929425
0.918569
0.914464
0.971332
0.966943
0.97076
0.968688
0.955874
0.974243
0.987319
0.993537
0.983358
0.996603
0.996434
0.986819
0.970469
0.982225
0.984087
0.987263
0.993199
0.975209
0.989406
0.98385
0.972944
0.965135
0.990574
0.861607
0.859959
0.847665
0.848893
0.860923
0.862408
0.860121
0.85873
0.852068
0.851938
0.849921
0.866765
0.85792
0.92661
0.929258
0.918122
0.921283
0.944878
0.932969
0.945845
0.946021
0.931168
0.917335
0.920758
0.932751
0.929057
0.90562
0.914867
0.920361
0.901389
0.902564
0.909906
0.913256
0.916768
1.04433
1.04607
1.04107
1.05103
1.0262
1.03661
1.0464
1.04412
1.05225
1.05932
1.03956
1.04673
1.04903
1.0476
1.05231
1.04391
1.03698
1.04594
1.04838
1.05583
0.879689
0.881595
0.874505
0.881257
0.892953
0.883021
0.893218
0.897738
0.882887
0.887499
0.905809
0.883244
0.881464
0.876704
0.896615
0.867518
0.86906
0.861825
0.866551
0.81133
0.805934
0.818575
0.815876
0.82041
0.816353
0.824385
0.820735
0.818161
0.818817
0.819052
0.986179
0.991443
0.992387
0.992984
0.98977
0.98368
0.979815
0.994461
0.990389
0.979544
0.987977
0.994858
0.917249
0.926806
0.919629
0.911399
0.918876
0.927515
0.907671
0.912804
0.926572
0.938845
0.9357
0.943203
0.942382
0.96711
0.969493
0.964987
0.968105
0.972675
0.970047
0.971788
0.968274
0.96927
0.969888
0.977908
0.985479
0.874369
0.864972
0.873626
0.874243
0.878204
0.870458
0.867526
0.876899
0.871185
0.878061
0.868188
0.867938
0.86239
0.858838
0.87281
0.862728
0.867622
0.864329
0.952547
0.950922
0.971375
0.97589
0.966994
0.97047
0.952158
0.949892
0.954741
0.951325
0.955613
0.95677
0.96567
0.969623
0.958185
0.958815
0.956705
0.960469
0.939507
0.944054
0.925889
0.933134
0.93798
0.938635
0.950369
0.953586
0.933388
0.937043
0.923783
0.941665
0.941265
0.963999
0.963968
0.969588
0.956075
0.948545
0.940629
0.955015
0.952605
0.942432
0.956571
0.937674
0.962701
0.961345
0.964306
0.959603
0.956268
0.948876
0.955629
0.945976
0.963639
0.95979
0.962908
0.947949
0.974765
0.964745
0.951141
0.85341
0.841777
0.844658
0.840982
0.85139
0.846924
0.859871
0.860165
0.865565
0.86153
0.866682
0.881496
0.878348
0.853773
0.861531
0.868369
0.872368
0.884897
0.865134
1.01368
1.01554
1.01613
0.996392
1.00414
1.01007
1.01803
1.01439
1.02053
1.02165
1.01658
1.01668
1.01568
1.02155
1.02397
1.02013
1.027
1.01013
1.01611
1.00733
0.863113
0.860562
0.857818
0.863275
0.86245
0.871056
0.887994
0.89056
0.884385
0.877835
0.88046
0.8675
0.865354
0.868449
0.867079
0.864565
0.873544
0.875222
0.890637
0.891698
0.882014
0.862699
0.88238
0.874468
0.96483
0.959735
0.957263
0.965904
0.982687
0.988275
0.982969
0.997736
0.994674
0.986398
0.988733
0.944986
0.943607
0.978156
0.983365
0.962235
0.947725
0.981201
0.992488
0.977936
0.963877
0.962517
0.87297
0.874531
0.862536
0.856944
0.865031
0.88276
0.886163
0.862963
0.870205
0.890846
0.883739
0.873044
0.860805
0.881054
0.876482
0.880419
0.885113
0.879427
0.886971
0.863272
0.874278
0.87001
0.882771
0.882386
0.841351
0.841041
0.838814
0.852243
0.866846
0.875909
0.867095
0.845784
0.879269
0.99106
0.98569
1.02551
1.02303
1.00832
1.01558
1.0205
1.00954
1.02393
0.994151
0.991923
1.00784
1.01283
1.00106
0.991591
1.01026
1.00354
1.01479
0.993867
0.996225
0.968692
0.97166
0.974717
0.974825
0.97395
0.96604
0.956591
0.955205
0.979144
0.96266
0.969351
0.966433
0.971896
0.952595
0.974156
0.969554
0.966868
0.96056
0.951744
0.963333
0.970591
0.963127
0.964403
0.963124
0.96142
0.970909
0.991316
0.959911
0.94634
0.966952
0.972953
0.957351
0.854055
0.850619
0.85517
0.859333
0.868741
0.865426
0.869728
0.86637
0.859142
0.865113
0.862612
0.859577
0.860238
0.946735
0.954962
0.939223
0.953322
0.953526
0.956004
0.953902
0.981658
0.975747
0.935619
0.959594
0.946509
0.966013
0.928394
0.92849
0.926284
0.919731
0.930335
0.928846
0.922521
0.928657
0.932405
0.9163
0.932002
0.920424
0.928406
0.944812
0.926383
0.9212
0.942443
0.924638
0.912237
0.910011
0.909338
0.90403
0.903805
0.915932
0.91447
0.916558
0.905498
0.910802
0.9
0.898725
0.896721
0.903199
0.899667
0.902907
0.905134
0.911469
0.916358
0.91
0.907507
0.914163
0.913737
0.930827
0.923843
0.926934
0.920961
0.91534
0.926705
0.930344
0.921659
0.917557
0.844203
0.847384
0.840868
0.836568
0.838099
0.844686
0.837825
0.839508
0.837792
0.850056
0.850609
0.843168
0.841324
0.827807
0.841007
0.835558
0.838607
0.967857
0.96282
0.970478
0.965965
0.979364
0.97856
0.983399
0.984466
0.970622
0.979464
0.953236
0.957932
0.977729
0.9666
0.974291
0.972585
0.972925
0.960935
0.972784
0.960631
0.944688
0.956758
0.931881
0.94367
0.911927
0.918556
0.953755
0.92373
0.916274
0.925297
0.931654
0.927839
0.951181
0.936823
0.931088
0.99348
1.00248
0.991434
0.974774
0.988183
0.996076
0.945906
0.95076
0.986087
0.973935
0.968259
0.960887
0.953298
0.951126
0.954019
0.961505
0.927839
0.931219
0.924033
0.915116
0.925739
0.917976
0.948283
0.938824
0.949406
0.960408
0.962215
0.951093
0.945187
0.937318
0.974279
0.945853
0.948754
0.95747
0.974677
0.882839
0.87765
0.87824
0.867188
0.854976
0.858049
0.873462
0.859212
0.860098
0.865428
0.924777
0.934214
0.923066
0.916101
0.947406
0.899086
0.90891
0.937663
0.927537
0.914633
0.898621
0.920518
0.892701
0.8902
0.89765
0.897785
0.901786
0.909864
0.884673
0.902182
0.879843
0.893977
0.889652
0.893038
0.878908
0.896458
0.892956
0.901389
0.896617
0.88002
0.880716
0.878443
0.889114
1.0162
1.0144
1.01198
1.00874
1.02866
1.0169
1.02218
1.02537
1.02187
1.01895
1.00393
0.999594
1.00672
1.00897
1.0131
1.02218
1.02058
1.01956
1.00473
1.00908
1.01106
1.01285
1.00855
1.00819
1.01374
1.01193
1.02538
1.02832
1.0308
1.02281
1.03428
1.03883
1.02703
1.02107
1.01476
1.0249
1.03377
1.0303
1.03426
1.01641
1.00698
1.02345
1.0216
1.03022
1.01383
1.0151
1.01297
1.00486
1.00238
1.00967
0.884912
0.887886
0.880007
0.880075
0.888968
0.891831
0.890953
0.89774
0.889912
0.8825
0.883051
0.892108
0.896908
0.896775
0.891714
0.96566
0.953938
0.975176
0.970738
0.94518
0.958555
0.954858
0.951147
0.948057
0.970607
0.960743
0.968765
0.959169
0.962883
0.975471
0.973347
0.981538
0.983856
1.00216
1.00975
0.986666
0.993972
1.00577
0.995133
1.0023
0.999788
0.998748
0.997482
1.01092
1.01271
1.00325
1.00642
1.00902
1.00766
0.932085
0.935964
0.951743
0.94438
0.942089
0.940355
0.93421
0.936242
0.950315
0.950266
0.956008
0.952386
0.958819
0.952717
0.947291
0.944954
0.958122
0.955611
0.947425
0.948881
0.978097
0.978899
0.968481
0.987998
0.972104
0.954661
0.969859
0.976563
0.978541
0.966275
0.990578
0.976021
0.949805
0.975946
0.965496
1.00004
1.00359
0.999781
0.998805
0.979514
0.977906
0.976089
0.99082
0.990164
0.987334
0.969311
0.9701
0.987909
0.987943
0.981143
1.00411
0.986798
0.986281
0.984081
0.989972
1.01417
1.01917
1.01349
1.01332
1.00524
1.00096
1.00725
1.00528
1.00742
1.00906
1.00867
1.01208
1.00016
1.00828
1.01012
1.00462
0.997714
1.00839
0.995019
0.994646
0.980049
1.00524
1.00155
0.945771
0.934602
0.949878
0.944597
0.957329
0.944212
0.940089
0.927439
0.934639
0.93846
0.941508
0.944484
0.936264
0.939278
0.809594
0.812837
0.811444
0.810119
0.817214
0.814166
0.815802
0.813106
0.827692
0.817653
0.814845
0.817333
0.817371
0.819816
0.820811
0.829665
0.82389
0.826306
0.846005
0.846585
0.847052
0.848475
0.842285
0.849739
0.852446
0.848855
1.00228
1.01504
1.01181
1.01818
1.02586
1.02691
0.997046
1.01309
1.03199
1.006
1.02626
1.02137
1.03392
1.04252
1.0349
1.02995
1.02908
1.02724
1.04022
1.03374
1.03683
1.03733
1.02614
1.0367
1.0409
1.03224
1.0317
1.02278
1.02802
1.02535
1.02343
1.03782
1.024
1.02992
1.03558
1.03059
1.02875
1.02379
0.981658
0.977184
0.973799
0.977056
0.981289
0.977108
0.983358
0.982943
0.984024
0.986767
0.983254
0.985051
0.983338
0.929361
0.925147
0.937247
0.942488
0.941008
0.934265
0.936129
0.93335
0.927681
0.860236
0.853927
0.856029
0.974663
0.971422
0.966822
0.975176
1.00903
0.998177
1.01129
1.01289
1.00606
0.998561
1.03596
1.03712
1.03875
0.960255
0.961135
0.956629
0.95645
0.961083
0.963369
0.895016
0.89244
1.04964
1.0474
1.03179
1.02896
0.863476
0.87094
0.867212
1.01026
1.00544
1.01827
1.01872
0.949491
0.953341
1.02678
1.03641
1.03699
1.03336
0.829873
0.837892
0.823117
0.877062
0.86813
0.919954
0.917753
0.840369
0.835527
0.840704
0.966462
0.953343
0.952295
1.04094
1.04353
1.04607
0.999186
0.986694
1.00721
1.00707
1.00206
1.01519
1.01629
1.02607
1.02652
1.01955
1.02274
0.95372
0.948652
1.00849
1.00331
0.977316
0.979307
0.922696
0.918382
1.01912
1.01725
0.814068
0.811255
1.00553
0.993985
0.93137
0.93394
1.02311
1.01992
1.02095
1.04264
1.04159
1.0413
1.01728
1.0203
1.05032
1.04998
0.982339
0.979814
1.00594
1.00549
1.01886
1.02041
0.911541
0.913158
0.91733
0.90745
0.901715
0.903355
0.952512
0.962677
0.963699
0.887683
0.885796
0.895486
0.962241
0.96044
0.962237
1.03272
1.03179
1.01206
1.00746
1.01435
1.01802
0.941532
0.939275
0.945289
0.915527
0.913177
0.844568
0.983406
0.980317
0.943219
0.941179
0.87687
0.88656
0.886087
1.03591
1.03901
1.04336
1.02692
1.01885
1.01525
1.00205
0.996909
1.00345
0.998824
1.03605
1.0458
1.04331
1.03932
0.849791
0.845747
0.949884
0.944692
1.05107
1.03479
1.04662
1.03791
0.964962
0.960279
1.01745
1.02097
0.86713
0.865166
0.867895
0.981458
0.971668
1.01746
1.01224
1.01674
0.957922
0.95353
0.957125
0.82728
0.829257
0.833961
0.995376
0.992572
0.999348
0.888789
0.886054
0.810657
0.811523
0.841174
0.836494
0.835871
0.822023
0.878038
0.872528
0.924114
0.924554
0.91696
0.911661
0.90769
0.915263
0.912498
0.919423
0.897898
0.898392
0.919943
0.928397
0.864702
0.869524
0.872178
0.87225
0.858814
0.872487
0.87853
0.899994
0.888979
0.898883
0.897102
0.893639
0.902275
0.911125
0.876872
0.873752
0.879461
0.890053
0.887249
0.879676
0.884935
0.980697
0.980017
0.983912
0.972763
0.974466
0.979763
0.979796
0.984124
1.01248
1.01518
1.01353
1.00475
1.00192
1.00706
1.00354
0.998921
1.01006
1.01299
1.00603
1.00289
1.00463
1.00832
1.00599
0.998205
1.00237
1.00326
0.993789
0.993067
0.998979
0.991179
0.986938
0.9974
0.992987
0.993081
0.825915
0.821704
0.836873
0.843716
0.844225
0.834916
0.835562
0.836629
0.843594
0.83602
0.838324
0.832734
0.83625
0.821081
0.822227
0.827874
0.92289
0.928414
0.925413
0.989142
0.979737
0.981662
0.961058
0.927935
0.930186
0.982374
0.97651
0.960585
0.964161
0.958352
0.975709
0.972289
0.944288
0.954022
0.959689
0.960045
0.959705
0.941671
0.940644
1.03703
1.03184
1.01862
1.03465
1.02348
1.01768
0.990413
0.992512
1.00203
0.999534
1.00637
1.03426
1.02992
1.03468
1.02001
1.01412
1.01451
1.0186
1.02583
1.01357
1.01742
1.00985
1.01694
0.941513
0.944367
0.976373
0.987405
0.988089
1.0094
0.997581
1.00456
0.992911
0.987642
0.993803
0.959248
0.961677
0.966064
0.972605
0.946395
0.948205
0.985229
0.980508
0.974897
0.983419
0.991671
0.972164
0.965334
0.886573
0.884227
0.866763
0.872496
0.870062
0.882205
0.857009
0.867477
0.863513
0.864378
0.858338
0.860383
0.867161
0.864908
0.865413
0.863718
0.86374
0.868684
0.88623
0.879573
0.875774
0.879427
0.877286
0.881488
0.886179
0.876654
0.876712
0.883724
0.872993
0.871887
0.87373
0.881815
0.883836
1.04313
1.0436
1.03304
1.0238
1.02872
1.02546
1.0233
1.02535
1.02174
1.01659
1.00703
1.01843
1.01563
1.00267
0.986533
0.98139
0.973487
1.04619
1.03426
1.03046
1.04716
1.03532
1.05507
1.05112
1.05532
1.05759
1.04273
1.05279
1.05893
1.04475
1.05036
1.04669
1.04293
1.05348
1.04826
0.928724
0.936018
0.937553
0.938748
0.950211
0.948601
0.962244
0.950575
0.946285
0.943279
0.940719
0.942792
0.947823
0.931764
0.930066
0.919134
0.850513
0.842576
0.841224
0.842054
1.04695
1.04425
1.04244
1.04058
1.03764
1.03513
1.0347
1.03043
1.033
1.02983
1.04159
1.03589
1.04301
1.04664
1.04417
1.04032
1.04519
1.03586
1.04154
1.03358
1.04074
1.02651
1.02878
1.02534
1.02534
1.02854
1.0263
1.02236
1.02649
1.01927
1.0135
0.979565
0.984915
0.985369
0.992029
0.999032
1.00473
0.995824
0.988488
0.983189
0.996556
0.992074
0.990297
0.989853
0.977334
0.994493
1.02857
1.02966
1.02442
1.01463
1.02479
0.999557
0.994199
0.99323
1.01865
1.02014
1.01998
1.01201
1.03662
1.03296
1.02939
1.0266
1.03474
1.03443
1.03298
1.03468
1.04106
1.03086
1.03736
1.0325
1.046
1.04543
1.03444
1.04068
1.03175
1.03478
1.03675
1.04277
1.03476
1.03211
0.875878
0.869565
0.868392
0.867829
0.877803
0.904638
0.895421
0.889339
0.895424
0.900103
0.889695
0.903703
0.872022
0.870624
0.867663
0.874105
0.870857
0.864078
0.886278
0.886215
0.870413
0.875914
0.872409
0.901839
0.893763
0.914489
0.901085
0.908695
0.884703
0.88198
0.891907
0.893608
0.931993
0.929062
0.93652
0.943683
0.94888
0.944107
0.941882
0.938642
0.943426
0.947611
0.947977
0.959728
0.955632
0.962614
0.948972
0.951908
0.94956
0.94852
0.945265
0.950843
0.948713
0.951102
0.942188
0.94146
0.942182
0.942139
0.937373
0.986906
0.982306
0.975877
0.981814
0.97225
0.968989
0.847806
0.849567
0.851706
0.846186
0.854547
0.854231
0.848242
0.852631
0.837793
0.845969
0.855264
0.855121
0.851225
0.848393
0.848662
0.851709
0.850964
0.841745
0.845121
0.845519
0.842651
0.851584
0.849837
0.808122
0.811368
0.805721
0.808399
0.911068
0.911253
0.898739
0.900655
0.919613
0.939421
0.943155
0.931408
0.927186
0.922177
0.926678
0.923702
0.893296
0.901327
0.911128
0.897748
0.894989
0.896352
0.891819
0.925935
0.926755
0.919639
0.937133
0.926333
0.926384
0.938288
0.911838
0.913867
0.914565
0.917724
1.01627
1.01509
1.0036
1.00173
0.997329
0.999979
0.990172
1.0027
0.999825
0.807153
0.809185
1.03564
1.03534
1.02833
1.02745
1.02647
1.03114
1.02956
1.03095
1.03553
1.02646
1.03643
1.03583
1.02908
1.02785
1.03101
1.02503
1.03276
1.03498
1.0337
1.03689
1.02932
0.949199
0.965678
0.951772
0.950002
0.954921
0.962785
0.96408
0.96583
0.953273
0.950901
0.994628
1.00127
0.990812
0.966217
0.968312
0.962898
0.975617
0.981497
0.970841
0.967053
0.977643
0.986388
0.97134
0.978603
0.973999
0.98478
0.978609
0.965625
0.969082
0.97049
0.969901
0.9177
0.918159
0.951196
0.932578
0.93739
0.944442
0.941934
0.897203
0.89623
0.898327
0.896833
0.905762
0.910363
0.881444
0.88135
0.883601
0.876298
0.875487
0.885957
0.878658
0.88282
0.952249
0.949115
0.956648
0.937524
0.921871
0.915899
0.931103
0.929421
0.918373
0.916282
0.911649
0.919342
0.920828
0.896329
0.898005
0.879262
0.87272
0.887377
0.899593
0.887737
0.939008
0.930195
0.928268
0.907103
0.908835
0.910384
0.909592
0.902933
0.905418
0.91048
0.922002
0.916956
0.90837
0.92392
0.91295
0.914368
0.911955
0.907352
0.904857
0.894958
0.90481
0.897131
0.901247
0.89861
0.908244
1.03629
1.02993
1.01258
1.01873
1.00204
1.02294
1.02456
1.01326
1.02964
1.0229
0.945225
0.960624
0.967123
0.954899
0.979027
0.985318
0.994759
0.971136
0.994408
0.99797
0.985017
0.973092
0.986846
0.987771
0.988489
0.976172
0.970892
1.03032
1.04757
1.04696
1.04477
1.0406
1.04017
1.03897
1.02862
1.04654
1.05393
1.05425
1.04404
1.04907
1.06094
1.04215
1.05237
1.04536
1.04515
1.05076
1.05209
1.04896
1.04455
1.04665
1.04539
1.05218
1.06311
1.02698
1.0313
1.02605
0.993573
0.9983
1.01406
1.002
1.01539
1.01639
1.01005
1.02746
1.03145
1.02291
1.02683
1.01167
1.01548
1.02236
1.01936
1.01716
1.01067
1.01731
1.02383
1.00907
1.02164
1.02016
1.02604
1.02447
1.02193
1.02212
1.0096
1.00998
1.01014
1.01193
1.01864
1.02374
1.0266
1.03513
1.02156
1.01922
1.0128
1.02441
1.02048
1.04157
1.04442
1.04136
1.04856
1.0428
1.04473
1.0324
1.02207
1.03217
1.02179
1.03819
1.03566
1.03321
1.03114
1.03015
1.03454
1.03922
1.04273
1.05435
1.04831
1.04103
1.04973
1.04088
1.04721
1.05045
1.04688
0.949853
0.947435
1.02425
1.0187
1.01954
1.01491
1.01106
1.019
1.01261
1.00957
1.0089
1.0118
1.0142
0.999946
1.01607
1.01106
1.02005
1.03231
1.0323
1.03243
1.03223
1.02158
1.02215
1.02307
0.992662
1.00868
1.00641
0.984839
1.01028
1.01389
0.999128
1.01442
1.01214
0.993075
0.9882
0.987828
0.993955
0.993648
0.926852
0.92692
0.924427
0.944739
0.950386
0.943374
0.935875
0.919176
0.930618
0.944889
0.928019
0.981734
0.988867
0.984986
0.993605
0.986998
0.988277
0.993912
0.987031
1.00559
1.00892
0.989171
0.990817
0.997112
0.814182
0.810619
0.810667
0.810667
0.816074
0.817625
0.817993
0.821601
0.816526
0.815105
0.813823
0.808541
0.806763
0.90757
0.942229
0.941989
0.930746
0.930091
0.94848
0.941622
0.929932
0.924752
0.918378
0.93201
0.929639
0.928063
0.937449
0.942045
0.939582
0.924693
0.965887
0.963532
0.965493
1.02132
1.01801
1.01872
1.01467
1.0114
1.02383
1.02006
1.02098
1.02802
1.01927
1.02512
1.01269
1.01463
1.0189
1.01435
1.02315
1.0082
1.01409
1.01838
1.01499
0.991022
0.993241
0.984456
0.991169
0.981078
1.00013
1.00012
0.999051
0.993264
0.996967
0.998919
1.0045
0.952046
0.971181
0.964039
0.955037
0.97122
0.946726
0.953345
0.967312
0.969076
0.958311
0.959385
0.959933
0.951315
0.951794
0.965758
0.97475
0.977481
1.0229
1.02401
1.01586
1.02828
1.01874
1.03069
1.03233
1.02117
0.989473
1.00777
1.01493
1.0138
1.00492
0.990333
0.988519
0.987492
0.985
1.00932
1.01369
1.01348
1.00855
1.00503
1.00853
1.00175
1.00872
1.00682
0.994854
0.993682
0.994155
0.999152
0.996759
0.99328
0.987622
0.992912
0.993948
1.01193
1.01887
1.01259
0.947753
0.960617
1.02722
1.02403
1.02638
1.01809
1.02196
0.99798
1.0064
1.02861
1.02659
1.0147
1.00558
0.966043
0.961407
0.947371
0.975438
0.978496
0.991071
1.00496
0.986589
0.980887
0.98664
0.970999
1.04016
1.03269
1.03622
1.02455
1.0354
1.04639
1.042
1.04643
1.03439
1.0342
1.03645
1.04441
1.04087
1.04868
1.0422
1.03628
1.03892
1.04242
1.04428
1.04213
1.0396
1.03015
1.03938
1.03544
1.03884
1.03523
0.949431
0.942355
0.947532
0.937343
0.938319
0.937636
0.90975
0.907018
0.89184
0.842574
0.841996
0.839655
0.838653
0.842394
0.844119
0.846495
0.85864
0.857692
0.844219
0.848546
0.84736
0.846019
0.850812
0.856369
0.857142
0.857604
0.837129
0.843165
0.847244
0.845195
0.937252
0.927287
0.934841
0.923195
0.938253
0.935414
0.923993
0.924741
0.922939
0.925414
0.92753
0.918208
0.92007
0.923648
0.921515
0.92389
0.932442
0.925812
0.925902
0.859279
0.868989
0.867939
0.864334
0.874086
0.882057
0.879451
0.867472
0.860087
0.851347
0.8634
0.856925
0.854404
0.85321
0.907685
0.909464
0.899972
0.898451
0.846927
0.844816
0.834359
0.838799
0.843377
0.834662
0.841086
0.839971
0.842316
1.03478
1.03285
1.03213
1.02969
1.0449
1.03116
1.02256
1.02279
1.02689
1.0218
1.03237
0.945868
0.949201
0.951716
0.938011
0.933602
0.946253
0.950112
0.932264
0.936144
0.949349
0.943333
0.940776
0.954622
0.953081
0.940366
0.9611
0.963959
0.951066
0.94862
0.940556
0.936573
0.940714
0.946796
0.945054
0.924283
0.942364
0.946428
0.925502
0.926885
1.03869
1.03524
1.02661
1.01832
1.02064
1.0127
1.01581
0.990399
1.01685
1.05276
1.05336
1.04167
1.0408
0.851662
0.856071
0.853058
0.853629
0.856159
0.862613
0.860839
0.850974
0.852749
0.861632
0.856543
0.856735
0.860578
0.86124
0.879858
0.88124
0.870997
0.868022
0.877422
0.8694
0.879547
0.870475
0.862233
0.860127
1.04034
1.03705
1.03042
1.02865
1.02654
1.03462
1.02966
1.03601
1.03301
1.02202
1.03022
1.02305
1.02385
1.01789
1.03034
1.02289
1.02038
1.02994
1.02768
1.02855
1.03323
1.03139
0.994382
0.986047
0.991628
0.977343
0.974672
0.976598
0.994082
0.997998
0.973492
0.975298
1.05574
1.04182
1.04424
1.0418
1.05029
1.04675
1.05026
1.05107
0.897094
0.910069
0.897588
0.898424
0.894783
0.893985
0.893882
0.892849
0.881968
0.88394
0.963433
0.954324
0.96025
0.95912
0.970269
0.973967
0.976754
0.969541
1.03734
1.03448
1.02998
1.03921
1.03279
0.976835
0.974142
1.02013
1.02684
1.03679
1.02117
1.02001
1.00777
1.00294
0.976002
0.977602
0.987863
0.984993
0.987552
0.97979
0.971588
0.982102
0.973226
0.986815
0.982882
0.984792
0.986071
0.971074
0.980297
0.97293
0.971034
0.966429
0.98712
0.977504
0.979089
0.972998
0.971714
0.961958
0.964219
0.956692
0.96383
0.943646
0.941236
0.951329
0.962877
0.906068
0.933143
0.917404
0.9181
0.929239
0.938637
0.947125
0.949197
0.964756
1.02734
1.03723
1.03474
1.03214
1.02786
1.03893
1.03338
1.03068
0.937709
0.940428
0.950676
0.93507
0.937964
0.93432
0.949528
0.950233
0.954756
0.94412
0.948225
0.953245
0.9481
0.939296
0.937839
0.945891
0.95331
0.939656
0.937005
0.941625
0.930531
0.935491
0.891055
0.882784
0.888159
0.895363
0.894755
0.893094
0.885307
0.890995
0.90702
0.899437
0.901085
0.897836
0.91072
0.901237
0.900398
0.903286
0.919431
0.925102
0.91755
0.912191
0.924803
0.929538
0.907599
0.911913
0.886325
0.892689
0.88947
0.883787
0.88095
0.87522
0.887279
0.889438
1.05081
1.01897
1.04055
1.04405
1.04111
1.03673
1.02285
1.02879
1.02902
1.02343
1.02619
1.03591
1.03387
1.03118
1.03463
1.02658
1.02867
1.02605
1.01801
1.01344
1.01982
1.02919
1.02655
1.02438
1.01489
1.0164
1.01634
1.02254
1.03221
1.02684
0.833666
0.840048
0.843737
0.840429
0.938219
0.920356
0.906048
0.907384
0.944381
0.939921
0.933288
0.933975
0.924595
0.883096
0.891125
0.85498
0.870669
0.872706
0.860935
0.825584
0.830994
0.835677
0.82954
0.821681
0.818476
0.829207
0.832504
0.910723
0.900798
0.891498
0.902728
0.899295
0.885471
0.883395
0.925054
0.924389
0.932465
0.900143
0.906658
1.03592
1.03252
1.04142
1.03894
1.02975
1.03095
1.02685
1.03895
1.02819
1.02575
1.03032
1.05446
1.04421
1.04384
1.05052
1.04906
1.04991
1.03673
1.03655
1.03893
1.03679
1.03863
0.973185
0.993679
0.994574
0.98294
1.00423
1.00297
1.00522
1.01317
1.01116
0.940008
0.944043
0.943205
0.944446
0.944371
0.944599
0.945049
0.940439
0.942294
0.88791
0.899923
0.909041
0.888145
0.870653
0.88151
0.917084
0.907697
0.986856
0.985186
0.983976
0.970008
0.982625
0.983733
0.977195
0.975937
0.975731
0.979066
0.961307
0.974968
0.958272
0.94579
0.971741
0.972873
0.972157
0.976814
0.896139
0.902048
0.899145
0.906495
0.905142
0.89404
0.89298
0.898745
0.895654
0.89358
0.956585
0.951851
0.971617
0.964324
0.975833
0.977954
0.982314
0.971596
0.959042
0.954844
0.911584
0.919086
0.922618
0.919842
0.910059
0.907724
1.03056
1.03549
1.03137
1.02993
1.03342
1.03174
1.03258
1.03635
1.04355
1.03272
1.02632
1.03921
1.02995
1.03408
1.02463
1.02657
1.02982
1.02509
1.02497
1.03025
1.03258
1.0402
1.02373
1.04196
1.04277
1.03372
1.03578
1.03753
1.03246
1.03946
1.00604
1.00276
1.0007
1.00105
1.00927
1.00584
0.997364
1.00284
1.04797
1.04604
1.03675
1.01321
1.04348
1.04429
1.03951
1.04457
1.03761
1.03441
1.03806
1.04299
1.04195
1.03258
1.0387
1.04369
1.04095
0.986108
0.973688
0.995515
0.988386
0.989422
0.959784
0.957671
0.975051
0.966895
0.969839
0.963931
0.949062
0.946973
1.04978
1.03807
1.05227
1.04533
1.04606
1.0488
1.03363
1.04799
1.0484
1.04759
1.04459
1.03834
0.879689
0.882897
0.888585
0.877108
0.888377
0.885095
0.895119
0.895635
0.886468
0.889746
0.977521
0.983544
0.962641
0.959327
0.961085
0.964643
0.977999
0.973211
0.955023
0.95768
0.957611
0.959695
0.870634
0.872324
0.873172
0.87988
0.875609
0.879398
0.874417
0.874153
0.879506
0.91705
0.920029
0.919654
0.911327
0.905198
0.918832
0.919902
0.906212
0.910539
0.975008
0.974258
0.960792
0.971052
0.965919
1.02165
1.03016
1.03205
1.02777
1.03389
1.03336
1.03799
0.954337
0.949543
0.958542
0.965109
0.956687
0.959057
0.910953
0.904294
0.902022
0.916133
0.928956
0.925521
0.918261
0.917883
0.908422
0.905621
0.89663
0.909804
0.903239
0.892192
0.905412
0.908204
0.911004
0.903197
0.894754
0.910386
0.911963
1.02252
1.02451
1.01393
1.02091
1.02649
1.02267
1.02364
1.03221
1.02758
1.02616
1.01876
1.02481
1.02758
0.997086
1.00634
1.00648
1.00694
1.00676
1.00213
0.997729
0.987265
0.985104
0.992807
1.02465
1.03061
1.02848
1.0282
1.02168
1.01448
1.01451
1.02607
1.02693
1.02256
1.02288
1.01933
0.835928
0.836658
0.835739
0.84324
0.842982
0.837651
0.839873
0.83663
0.843705
1.03705
1.04679
1.03902
1.03621
1.04612
1.04348
1.04316
1.03827
1.03162
1.03071
1.01343
1.01183
1.03143
1.02553
1.02352
1.03537
1.03801
1.03163
1.02767
1.03299
1.03044
1.03381
1.02931
1.02614
0.988074
0.98757
0.982065
0.991476
1.00525
1.00354
0.992657
0.98885
1.00135
1.00977
1.01296
1.00884
1.00742
0.98845
1.00042
0.995715
1.00439
0.991999
1.00773
0.995878
0.991899
1.0095
1.00975
1.00667
0.992097
0.985691
1.00845
0.999683
0.990087
1.01377
1.01648
0.968548
0.979055
0.941075
0.975435
0.955894
0.965192
0.958856
0.972761
0.988699
0.981127
0.971053
0.96645
0.939875
0.930141
0.950529
0.951761
0.950776
0.950385
0.951065
0.818784
0.819746
0.821294
0.824248
0.829453
0.820085
0.824056
0.820678
0.817454
0.819636
0.825619
0.815737
0.82323
0.816637
0.820575
0.82698
0.820389
0.819112
0.818642
0.911707
0.921516
0.910105
0.906306
0.922375
0.926617
0.915887
0.912861
0.906544
0.911342
0.906469
0.899104
0.910503
0.905557
0.912056
0.922418
0.913283
0.919387
0.91547
0.910016
0.877175
0.865861
0.879769
0.825459
0.817911
0.819399
0.834781
0.837613
0.821331
0.81976
0.821216
0.826481
0.828233
0.913754
0.915061
0.92284
0.929752
0.93118
0.938878
0.948342
0.920456
0.912159
0.929457
0.941664
0.932826
0.934054
0.93887
0.989953
0.999481
1.00278
1.00285
0.993218
1.01674
1.02715
1.01805
1.02289
1.0119
0.996638
1.00457
1.0007
1.00989
0.994708
0.989556
0.997164
1.01397
1.00882
1.01412
1.01981
1.00151
1.00101
0.994749
1.00893
1.01095
1.00499
1.00176
1.02028
1.03372
1.03328
1.03269
1.03704
1.03628
1.04036
1.03058
1.03725
1.03182
0.858431
0.856871
0.859881
0.86269
0.858764
0.85597
0.847126
0.847742
0.841695
0.838251
0.837902
0.83442
0.92643
0.918718
0.930231
0.941652
0.939933
0.913951
0.932699
0.948722
0.928854
0.917144
0.919608
0.924542
0.95927
0.9479
0.881799
0.885927
0.889645
0.864237
0.867661
0.894769
0.873886
0.864268
1.05762
0.866742
0.861807
0.856528
0.853665
0.854298
0.851515
0.851064
0.85728
0.860683
0.857084
0.852492
0.864315
0.860634
1.04191
1.03665
1.04203
1.04268
1.04762
1.04148
1.04645
1.02971
1.03583
1.03411
1.03945
0.933278
0.933397
0.946315
0.953057
0.95221
0.94361
0.940662
0.93322
0.946974
0.946731
0.906069
0.922894
0.92622
0.876805
0.880714
0.878262
0.87763
0.876655
0.895588
0.88854
0.899568
0.983351
1.00088
0.987226
0.985383
0.989108
0.996309
0.997396
0.99434
1.00429
1.02145
1.01344
1.01069
1.0096
1.00909
1.01938
1.02081
1.01849
1.01314
1.01012
1.01518
1.01364
1.01541
1.01593
0.962546
0.954082
0.950397
0.954139
0.943969
0.952424
0.965438
0.979131
1.01079
0.985868
0.998536
0.997905
0.992266
0.985801
0.995756
0.979183
0.997565
1.00024
1.00098
1.01097
1.02507
1.02895
1.03106
1.02057
1.03391
1.02934
0.989765
0.986735
0.993796
0.892901
0.899514
0.89407
0.903084
0.899094
0.91147
0.896451
0.894699
0.907807
0.908017
0.916238
0.913361
0.917259
0.869012
0.874278
0.879461
0.878426
0.857689
0.846207
0.855968
0.83858
0.851077
0.850089
0.843658
0.843375
0.8525
0.854971
0.842713
0.845835
1.02588
1.02375
1.01921
1.02314
1.00729
0.998618
1.02796
1.0275
0.945535
0.935171
0.939626
0.987831
0.996023
0.999411
1.01441
1.02438
1.01168
1.0153
1.00486
1.01015
1.02925
1.02608
1.02836
1.02805
1.02779
1.02806
1.03857
1.03163
1.03288
1.02855
1.03613
1.02929
1.03195
1.03079
1.02884
1.03096
0.861607
0.880732
0.904959
0.892252
0.879225
0.898914
0.888354
0.889822
0.896688
0.952008
0.963164
0.959527
0.964259
0.976014
0.974769
0.973643
0.964905
0.958312
0.970218
0.991848
0.987428
0.988924
0.985375
0.973766
0.986078
0.984186
0.981788
0.973204
0.984309
0.978465
0.850817
0.850477
0.848493
0.869927
0.872913
0.876204
0.864581
0.871699
0.862567
0.859831
0.864037
0.862782
0.897691
0.911588
0.900578
0.906524
0.918018