/*--------------------------------*- C++ -*----------------------------------*\
| =========                 |                                                 |
| \\      /  F ield         | OpenFOAM: The Open Source CFD Toolbox           |
|  \\    /   O peration     | Version:  v1612+                                |
|   \\  /    A nd           | Web:      www.OpenFOAM.com                      |
|    \\/     M anipulation  |                                                 |
\*---------------------------------------------------------------------------*/
FoamFile
{
    version     2.0;
    format      ascii;
    class       surfaceScalarField;
    location    "100";
    object      phi;
}
// * * * * * * * * * * * * * * * * * * * * * * * * * * * * * * * * * * * * * //

dimensions      [0 3 -1 0 0 0 0];

internalField   nonuniform List<scalar> 
37167
(
-2.79008e-09
1.6612e-09
-2.94825e-09
4.07704e-09
-2.56792e-09
2.39579e-09
-4.59012e-09
4.76234e-09
-1.08596e-08
-6.27312e-09
8.35676e-10
1.6297e-08
-2.71833e-08
7.58894e-09
5.7098e-09
8.42488e-09
-1.22089e-08
-2.33991e-08
1.50112e-08
-2.76147e-09
-3.82468e-09
1.12947e-08
5.53908e-10
-2.73897e-08
-1.07795e-08
-4.48996e-09
-2.20951e-08
1.56467e-09
1.8319e-08
-2.43736e-08
4.94563e-09
1.62299e-08
-1.96106e-08
-1.65592e-08
1.71286e-08
1.07254e-08
-1.54382e-08
-3.75862e-09
1.58464e-08
4.14224e-09
-1.2851e-09
-6.32855e-09
3.18114e-09
-8.59658e-09
-1.04968e-08
1.30146e-08
-4.48585e-09
1.96807e-09
5.3035e-09
-9.68281e-09
-6.11754e-09
-5.92167e-09
8.73732e-09
1.01989e-08
-7.49045e-10
1.30838e-10
6.9018e-09
2.90936e-10
-6.448e-09
-7.44846e-10
-6.03861e-09
8.16801e-10
1.21235e-08
-5.52176e-09
-2.25958e-10
-8.24075e-09
7.95286e-09
-4.1981e-09
-9.08284e-10
-1.70153e-08
8.47044e-09
-4.65983e-09
-9.16015e-10
-2.89471e-09
-2.06742e-08
9.45523e-09
1.96894e-08
-1.73812e-08
1.90094e-08
-6.51649e-09
2.45628e-10
1.36951e-08
5.74229e-09
-4.91084e-09
-1.45267e-08
-5.28388e-09
1.25309e-08
-4.57668e-10
-1.23356e-08
5.78435e-09
-3.3186e-09
-5.69021e-09
3.22418e-09
3.06276e-09
1.55753e-09
1.16377e-09
1.83318e-09
-5.87382e-09
1.67172e-09
2.36743e-09
2.35183e-09
5.06114e-09
-5.58004e-09
-3.23214e-09
-3.54156e-09
8.99874e-10
-2.74215e-09
3.62755e-09
2.17716e-09
-2.31698e-09
-2.41265e-09
7.08139e-09
4.74707e-09
-4.3684e-09
1.29298e-09
-3.56094e-09
5.99104e-09
2.75036e-09
-6.47436e-10
-5.42158e-09
1.15546e-09
-1.14727e-09
-2.43818e-09
3.65304e-09
3.54507e-09
-3.19714e-09
-4.71636e-09
-9.7233e-10
9.56521e-10
-6.62058e-09
2.74091e-09
-3.86509e-09
4.54515e-10
-8.69467e-10
-1.84024e-09
-3.48709e-09
8.62699e-09
-4.57162e-09
-5.68395e-10
6.35277e-09
-7.33494e-09
-2.50498e-09
1.50849e-09
6.92692e-09
1.91485e-10
5.60299e-09
2.25822e-09
-2.16906e-09
4.11541e-09
2.85748e-09
-4.80394e-09
1.72858e-10
-2.16077e-09
-1.81309e-10
2.06427e-09
-1.08353e-10
4.97093e-09
-2.79776e-09
6.79357e-10
2.42382e-09
-3.05447e-10
-6.16738e-10
-3.80529e-11
3.10294e-09
-2.44819e-09
-5.00134e-09
6.44883e-09
-1.52286e-09
2.12445e-09
-1.0075e-09
2.76779e-09
1.46065e-09
-3.22108e-09
1.89786e-09
-2.56869e-09
-3.36854e-10
-6.94793e-10
-2.14105e-09
3.54777e-09
2.34537e-10
3.31223e-09
-1.20326e-09
-7.03545e-11
1.57783e-09
-6.90533e-10
3.19957e-09
-3.36063e-09
4.89274e-09
4.57525e-11
7.35398e-10
2.57455e-09
4.78799e-09
-8.0979e-09
5.10065e-09
1.21596e-08
3.84529e-09
-4.5592e-09
1.11788e-08
4.84934e-10
-4.19165e-09
-3.08859e-10
7.77619e-09
3.29805e-09
1.29815e-08
6.7717e-09
-2.44146e-09
9.76089e-09
-9.17361e-09
6.66019e-09
4.17532e-10
2.09636e-09
3.38163e-09
-1.45809e-09
-1.1097e-08
8.01354e-09
2.72471e-09
-7.35634e-09
7.73857e-09
6.93497e-09
7.41922e-09
4.156e-12
-8.88135e-09
2.40446e-09
5.43238e-09
-2.20972e-09
1.14794e-09
8.80074e-09
7.41593e-09
-1.31225e-09
2.11211e-09
-8.21561e-09
4.70163e-09
2.49426e-09
2.20159e-10
5.5578e-09
-6.86583e-09
2.0182e-09
3.36463e-09
1.75081e-10
9.16176e-09
-1.82363e-10
-6.86708e-09
7.42772e-09
6.43572e-09
-1.00872e-08
8.30149e-10
7.0477e-09
-7.54471e-09
-1.52107e-09
7.52031e-09
-4.85126e-09
4.30488e-09
2.07635e-10
2.21804e-09
6.03986e-09
5.00186e-09
1.09519e-08
-2.76481e-08
-1.62167e-08
3.29132e-08
-1.09573e-08
-9.29855e-10
2.2839e-08
4.17411e-09
1.6328e-08
-1.06876e-08
-9.81412e-09
-1.32627e-08
-1.02112e-08
8.35982e-09
-2.98902e-09
-1.67595e-08
1.2472e-08
-1.8073e-08
2.23607e-08
-3.19931e-08
1.62811e-08
-1.0474e-09
-3.18067e-08
-2.79455e-08
2.77593e-08
-1.89535e-10
6.85311e-09
-1.73513e-08
9.7476e-09
-2.31997e-08
-4.58936e-09
-1.34505e-08
1.62325e-08
1.80764e-09
-1.45407e-08
4.49466e-09
5.45683e-09
7.9099e-09
-2.99691e-08
-2.00174e-08
2.50582e-08
-1.84913e-08
-1.89218e-08
-7.70847e-09
6.61292e-09
-1.23703e-08
6.18951e-09
-3.5745e-09
-7.43738e-09
-9.09168e-09
1.74607e-08
-5.9104e-09
-1.30763e-08
1.52603e-09
-3.16454e-09
-2.66537e-09
2.32905e-08
-1.39004e-08
-4.97649e-09
1.57123e-08
-1.58035e-09
-7.8598e-09
-4.46032e-09
1.42503e-08
-5.52008e-09
-1.46406e-08
-4.40623e-09
1.59912e-08
1.31805e-08
-1.08882e-08
-3.87278e-09
-4.51093e-09
1.27149e-08
-9.63848e-09
-1.12977e-08
1.24895e-10
1.03301e-08
-1.48613e-08
-1.31378e-08
8.75171e-09
-8.08799e-09
-1.14836e-08
6.43374e-09
-1.36694e-09
-1.76093e-08
-1.87551e-08
7.74969e-09
-1.41597e-08
1.65658e-08
3.39617e-09
-5.80271e-09
-6.07895e-09
3.09232e-09
-1.11732e-08
3.7653e-09
-1.78891e-08
8.04466e-09
5.36361e-09
1.44262e-08
-1.60248e-08
2.07488e-08
-1.22931e-08
-8.67301e-09
-4.41353e-09
1.65468e-08
-3.46039e-09
1.87702e-08
-1.30171e-08
8.72972e-09
-2.96429e-09
-1.01791e-08
-2.17923e-08
1.542e-08
2.2919e-08
-5.47417e-09
2.45196e-09
-1.01542e-09
5.88885e-09
3.85592e-09
4.99964e-09
3.37802e-09
-9.39366e-09
1.21374e-08
1.60507e-08
-1.16234e-08
9.66431e-09
7.47207e-09
1.30336e-08
-1.27351e-11
3.02881e-09
4.68943e-09
1.8008e-08
1.91172e-08
-3.84309e-09
1.68488e-08
2.2545e-09
-3.77606e-09
2.53141e-08
1.75327e-08
-1.5131e-08
-1.61275e-08
1.75649e-08
1.36933e-08
-1.17985e-08
1.91121e-09
-5.24426e-09
2.69484e-08
-1.1426e-08
-2.7321e-08
1.14215e-08
-6.00825e-10
9.7072e-09
-5.44641e-09
-2.34978e-09
6.72326e-10
6.09021e-09
-1.81887e-08
-8.68607e-09
-1.13891e-09
-7.46215e-09
8.4833e-09
-8.39432e-09
8.34577e-09
-5.3979e-09
3.51713e-09
-1.12392e-08
1.87392e-08
4.00753e-10
-1.305e-08
1.79319e-08
1.22287e-08
-1.7744e-09
2.65806e-09
-2.02908e-08
-5.79436e-09
9.0715e-09
1.70136e-08
1.2316e-08
-1.27766e-08
-1.98303e-08
4.74725e-09
-8.85883e-09
2.58645e-08
9.95956e-09
-1.40166e-08
-5.75729e-09
1.31947e-08
-1.98442e-09
-1.25043e-09
-1.11579e-08
1.08802e-08
-1.41913e-08
1.44696e-08
-1.87601e-08
5.10269e-09
2.4996e-09
3.55486e-09
6.65121e-09
3.1766e-09
1.12588e-08
-1.15572e-08
2.09235e-08
1.31511e-08
7.42767e-09
-1.7592e-08
-2.98711e-09
1.40725e-08
-2.90559e-09
5.34014e-09
-5.45882e-09
-1.36347e-08
2.14616e-10
-1.44006e-08
7.94619e-09
2.57726e-09
-8.78416e-09
9.52315e-09
-1.93894e-08
-7.48512e-09
-2.08305e-08
-2.66162e-09
-8.73023e-09
-5.19291e-10
4.09665e-10
-7.45227e-09
7.56193e-09
1.7253e-11
-6.84267e-09
6.30584e-09
6.05221e-09
-3.87021e-09
-1.12514e-08
9.06921e-09
9.27978e-09
-9.04985e-10
-2.32265e-09
1.30782e-09
4.41191e-09
-5.70361e-09
-6.79504e-09
8.51236e-09
-1.28383e-09
-6.35499e-09
1.86548e-10
-6.39515e-09
-1.73138e-09
-1.92557e-09
5.14498e-09
-1.00146e-08
9.99243e-10
5.16684e-09
-1.42896e-08
5.25246e-09
7.82379e-09
-3.56196e-09
3.98226e-10
1.67544e-09
9.04511e-09
-1.1119e-08
1.82681e-09
9.94322e-09
-1.07747e-08
-9.78994e-10
1.81009e-09
7.4711e-09
-1.48411e-08
2.73457e-09
4.63555e-09
5.10048e-09
-1.39118e-08
1.62824e-08
-1.90079e-08
-2.0414e-08
2.63859e-08
1.30359e-08
7.42651e-09
-2.20986e-08
-4.33576e-09
-2.36161e-08
1.52168e-08
7.52767e-10
7.64666e-09
-6.03245e-10
-2.0183e-08
-2.82985e-09
-9.72703e-09
2.31246e-09
6.02474e-09
-1.11481e-08
7.85809e-09
-1.02163e-08
2.13416e-08
-1.27362e-08
1.68049e-08
-1.68916e-09
-2.0774e-08
-2.28691e-08
1.15138e-08
-9.05871e-09
-1.32243e-08
-3.17434e-08
-1.45418e-09
1.39283e-08
2.17228e-08
-3.33586e-09
-1.89902e-08
1.37891e-08
8.68655e-09
4.87618e-09
5.18362e-09
-1.87272e-08
2.16712e-09
8.44899e-09
4.86902e-09
2.95574e-09
-1.30159e-08
5.19101e-09
2.25036e-09
6.57406e-09
-3.95544e-09
1.08411e-08
-1.17337e-09
-7.41736e-09
7.05663e-09
-1.07406e-08
6.63961e-09
-1.07933e-09
8.76916e-09
-6.33228e-10
7.81491e-09
-2.32017e-09
5.66825e-09
3.42303e-09
-3.22082e-10
4.89424e-09
-3.07723e-09
9.02408e-09
3.1721e-10
-8.09098e-09
1.2668e-08
-5.33493e-09
7.88552e-09
3.11762e-09
-5.9726e-10
2.31542e-09
7.66511e-09
-6.25608e-09
-3.72435e-09
4.97354e-09
-2.26987e-09
-3.88183e-10
-1.31788e-09
7.80286e-09
3.68474e-09
-1.01697e-08
4.83103e-09
2.60005e-09
-8.7489e-09
1.081e-09
-1.83792e-10
6.76795e-09
5.86042e-10
5.46854e-09
-5.91829e-09
-6.07517e-10
7.112e-09
-3.36048e-09
-2.76442e-09
2.06589e-10
-1.16989e-08
-1.29084e-09
1.23822e-08
-9.11634e-09
6.43367e-10
-3.22597e-09
-4.27553e-09
-1.35479e-09
-1.71901e-09
2.93983e-10
9.69356e-09
-3.60985e-09
-2.38351e-09
6.91861e-09
-8.50428e-10
-4.05895e-09
-4.96223e-09
-1.24072e-08
1.09325e-08
-2.07034e-09
7.07043e-11
-2.05882e-09
-4.59596e-09
6.58403e-09
-3.10494e-09
-8.48307e-10
4.02405e-09
-3.86972e-09
-7.74951e-10
4.62231e-09
2.23878e-11
3.49491e-09
-5.54384e-10
-4.99953e-09
-1.21577e-09
-5.90836e-09
2.52808e-09
-4.32473e-09
3.98722e-12
-4.1537e-09
-8.90238e-10
-8.64543e-10
-2.04942e-09
-2.24728e-09
-2.80359e-11
-2.55597e-09
-5.00119e-09
2.96862e-09
4.58858e-09
-4.16273e-09
-4.42673e-10
5.80778e-09
4.79424e-10
-1.50292e-10
-6.13695e-09
-6.20524e-10
2.08259e-09
4.3456e-09
5.7665e-09
1.18426e-11
-5.299e-09
1.27634e-09
7.84183e-10
-6.83564e-10
-4.26332e-09
-4.20515e-09
-3.38417e-09
-3.01686e-09
5.27319e-09
-9.64639e-10
-5.15681e-09
-4.21802e-09
-4.59378e-09
-6.64213e-09
7.5371e-09
3.69873e-09
-7.43909e-09
2.03903e-09
8.06273e-10
-4.51585e-09
4.92721e-09
1.02402e-09
-1.43554e-09
1.1309e-09
-2.99726e-10
-5.34712e-09
-1.33121e-09
-5.21435e-10
-4.78975e-09
-7.63946e-09
3.06882e-09
3.89735e-09
3.80949e-09
7.0674e-10
-4.81609e-09
4.66805e-09
1.65402e-10
-5.15835e-09
8.43292e-09
-2.05894e-10
5.05534e-09
-4.87e-09
1.69481e-10
-6.13689e-11
4.94697e-09
-3.20876e-10
-4.56951e-09
-7.05452e-09
6.84947e-09
4.77462e-09
-6.28793e-09
1.48196e-09
2.36446e-10
-1.21679e-09
2.35055e-10
-6.07274e-09
-1.10958e-09
-6.39513e-09
-1.49296e-09
5.1704e-10
7.82545e-09
-4.1379e-10
6.64493e-09
-5.996e-09
6.27395e-09
4.15637e-10
-6.68216e-09
-7.29295e-12
-5.64388e-09
5.6085e-09
6.30939e-09
-5.64195e-09
6.09623e-09
-6.09203e-09
-1.11379e-09
-1.2127e-09
6.46995e-09
1.68023e-09
-6.93754e-09
4.74147e-09
1.42002e-10
-5.81743e-09
-1.00957e-09
5.33396e-09
4.05976e-10
-7.32653e-10
7.89467e-09
4.53393e-10
5.007e-09
5.32927e-09
-9.4184e-09
1.02707e-08
-5.77814e-09
4.92601e-09
3.22193e-09
-7.48577e-09
-5.15452e-09
1.65382e-09
3.24446e-09
-7.77773e-09
2.88136e-09
4.95799e-10
-5.6187e-09
6.7771e-09
-6.8844e-09
1.06246e-08
1.07398e-08
-3.60085e-09
-3.91658e-09
1.53919e-08
6.19217e-09
-1.35027e-08
1.53263e-09
-1.97368e-08
1.44961e-08
-1.07424e-08
1.59836e-08
6.07561e-09
-1.59851e-08
-9.82685e-09
-9.29173e-09
8.59962e-09
6.00193e-09
-1.35409e-10
2.09483e-10
1.27203e-08
8.93945e-09
-6.70644e-09
-9.71864e-09
-4.73577e-09
1.72683e-10
9.27254e-09
-1.50991e-09
-2.37475e-08
-5.07066e-09
-8.59886e-09
-8.27943e-10
-8.07278e-09
-5.26175e-09
-1.62891e-08
2.15794e-09
7.47718e-09
-8.46217e-09
-1.17296e-09
6.70461e-09
-5.01811e-09
4.71484e-10
-6.57912e-09
7.25966e-09
5.27879e-09
-5.95929e-09
2.94359e-09
-4.46649e-10
4.98021e-09
2.98205e-09
6.66616e-09
1.42965e-09
-6.69536e-09
2.47649e-10
8.46214e-09
3.21463e-09
-5.90296e-11
-1.16178e-08
2.58022e-09
-2.58028e-09
-5.53306e-09
3.83593e-10
-3.96921e-10
1.06387e-08
-2.60545e-09
7.30159e-09
-5.0931e-09
-6.90828e-09
1.23081e-09
1.44418e-10
2.55187e-09
-6.0326e-09
-5.18685e-09
8.53306e-09
-7.66063e-10
-1.31897e-09
-2.60393e-09
-5.97202e-09
9.89494e-09
-5.67537e-09
7.41005e-09
3.95065e-09
-1.14197e-08
8.93537e-09
-6.7122e-09
3.23494e-09
4.85144e-09
2.50223e-09
-1.15554e-09
7.87563e-09
8.50506e-09
3.13083e-10
8.31829e-09
-1.41514e-08
-6.28068e-09
-1.98008e-08
2.76075e-08
-2.94916e-08
-5.37568e-09
2.85866e-08
-7.31343e-09
-2.01536e-08
-2.0246e-09
-1.5196e-08
1.01334e-08
-1.97648e-08
-5.64389e-09
5.60772e-09
-1.85459e-08
-8.53239e-09
-1.94725e-08
2.53082e-09
-2.74641e-09
1.06636e-09
-1.77925e-08
-1.61888e-09
-1.98827e-08
4.57342e-10
-1.7646e-08
1.55697e-08
-1.66577e-08
-1.86919e-08
-2.20603e-10
-1.7259e-08
-1.6421e-08
-8.96008e-10
2.53194e-08
-5.56763e-09
-1.88561e-08
2.86164e-08
-7.23218e-09
-2.228e-08
1.25966e-09
2.46988e-08
-6.39592e-10
2.82798e-08
1.59625e-09
1.44769e-09
4.53119e-09
-1.56666e-08
9.68851e-09
6.39584e-09
-1.49723e-08
1.00248e-08
1.65072e-08
-1.73432e-08
1.81512e-10
6.25355e-09
1.82633e-08
7.13209e-09
2.13291e-08
4.86556e-09
2.02229e-09
-2.17928e-08
1.49053e-08
1.49925e-08
-1.6029e-08
1.81956e-08
3.17722e-09
2.02671e-08
5.06052e-09
-9.57838e-09
1.77259e-08
-1.67362e-08
8.58857e-09
-1.00743e-10
3.42594e-09
-1.29036e-08
-1.05212e-08
1.36975e-08
3.07711e-09
4.37048e-09
8.038e-09
1.58063e-08
-3.59609e-09
-2.02483e-08
7.24723e-10
1.72713e-08
-9.95798e-09
-5.5951e-09
-1.06479e-08
2.31226e-09
1.39308e-08
1.48593e-08
-1.5557e-08
-4.89737e-09
1.79254e-08
2.49382e-09
-4.61301e-09
5.11403e-09
9.11156e-09
-1.78218e-08
1.06836e-08
-4.84479e-09
-1.07664e-08
1.28146e-08
1.28111e-08
7.56079e-09
-1.24343e-08
1.07724e-09
5.54615e-09
1.15566e-08
7.44611e-09
5.18261e-09
-1.44546e-08
1.44919e-08
-5.22e-09
1.36688e-08
-8.86231e-09
3.76034e-10
-1.01999e-08
-1.76089e-09
1.07298e-08
-1.18182e-08
-2.92715e-09
-2.78476e-10
-1.49662e-08
2.65014e-08
2.13364e-09
1.10823e-08
-1.0597e-09
1.91949e-09
4.67385e-09
-3.84133e-09
-2.75196e-09
3.29063e-09
-1.20649e-09
-1.64507e-10
4.69322e-09
8.52767e-10
-8.71972e-10
4.41704e-09
3.56691e-09
-7.97525e-09
7.80966e-10
1.20518e-09
5.98933e-09
-5.61298e-09
-1.50941e-09
5.70017e-10
1.11139e-09
-5.52262e-09
2.25612e-10
4.97251e-09
3.06135e-09
1.08832e-09
-3.57945e-09
2.02956e-09
-1.74517e-10
2.44416e-09
-6.94555e-09
1.36858e-09
-3.25223e-09
3.59653e-09
-1.71256e-09
3.47177e-09
-7.34642e-11
-4.61539e-11
-2.11749e-09
-4.43671e-09
9.14682e-10
4.72755e-09
-2.0386e-09
7.70622e-10
3.74083e-09
4.46796e-09
5.1516e-09
-7.63356e-09
1.83372e-09
6.48281e-10
-6.6437e-09
6.20792e-09
5.58734e-09
4.25525e-09
-5.6714e-09
-6.21736e-09
-1.65048e-09
-7.38099e-10
4.72198e-09
-5.69596e-09
-6.76541e-10
-6.9211e-09
-7.77866e-09
1.55312e-08
-8.31574e-10
-7.82123e-09
2.73387e-09
1.03325e-08
1.20649e-08
-4.179e-09
-1.82183e-08
2.4595e-09
5.61688e-09
2.25607e-09
6.70315e-09
-4.45215e-09
3.22269e-09
5.95136e-09
2.98299e-09
-1.28334e-08
5.45593e-09
-8.16892e-09
-3.01223e-09
-2.00844e-09
6.12807e-09
1.07514e-09
-5.17335e-09
-2.03002e-09
-5.61636e-09
5.59926e-09
2.29611e-09
3.09421e-09
1.88212e-09
-7.2718e-09
3.81158e-09
2.17724e-09
-3.69264e-09
6.48804e-09
5.93132e-09
-9.3252e-09
5.30895e-10
6.77254e-09
-8.15169e-10
-5.17286e-09
-2.1949e-09
-5.43198e-09
-2.73274e-10
8.87769e-11
-4.08628e-09
-6.51899e-09
4.63397e-09
-2.91252e-10
4.81818e-10
-2.68603e-09
4.02162e-09
-1.36251e-09
-4.13319e-09
8.71739e-10
-2.37181e-10
9.95678e-10
3.80509e-10
2.76314e-09
-2.87472e-09
-1.6962e-09
-5.82303e-11
-1.77909e-10
-6.94486e-09
-2.21283e-09
1.02484e-08
-1.09109e-09
-1.96919e-09
5.84153e-11
-5.03494e-09
9.2904e-09
-3.6938e-09
-7.56609e-09
9.51977e-09
-2.44222e-09
1.02724e-08
-7.48042e-09
5.62183e-10
-3.35448e-09
1.982e-09
7.09126e-09
1.19863e-09
7.93434e-11
3.7827e-09
6.38655e-09
9.32872e-09
-5.24994e-09
-1.15595e-08
3.14951e-09
8.16138e-09
6.63921e-09
2.96018e-09
4.62708e-09
-1.89512e-09
4.35919e-09
6.71246e-09
-1.47399e-09
-5.18069e-09
-4.54815e-09
3.75099e-09
4.57942e-09
2.14207e-09
2.16999e-11
9.94088e-10
-9.93803e-09
-6.13919e-10
8.80014e-09
-3.55884e-09
-5.95564e-09
-1.04829e-09
2.65565e-09
4.3474e-09
-4.03083e-09
2.16751e-10
6.64924e-09
-5.53793e-09
-5.49666e-10
3.70568e-09
5.81729e-09
-6.29736e-09
5.79276e-09
-3.7517e-09
4.59779e-09
3.56266e-09
-5.34435e-09
-2.81646e-09
4.96657e-09
-2.33407e-10
-1.35657e-10
-4.68193e-09
5.57729e-09
4.0707e-09
-1.1954e-09
7.60337e-11
1.97911e-10
4.7467e-10
-6.01721e-09
7.00078e-09
-1.66419e-09
-8.69128e-09
5.91103e-09
2.28804e-09
-4.83122e-09
5.57745e-09
-9.79785e-10
-6.29761e-09
1.80996e-09
-1.98535e-09
6.08613e-09
-6.38527e-10
6.80754e-09
-1.01602e-09
4.60787e-09
4.65144e-09
-4.72657e-09
3.39294e-09
6.26972e-11
5.55947e-10
4.0049e-09
4.29311e-09
2.80495e-09
4.21027e-09
-1.18207e-08
2.02014e-09
4.88315e-09
4.91748e-09
1.95785e-09
-7.72692e-09
-6.05172e-09
-8.31844e-09
4.53644e-09
5.8023e-09
-3.24175e-09
-3.11886e-09
5.36819e-09
9.0425e-09
-9.5277e-09
4.09765e-09
-4.68468e-09
5.12349e-09
-3.73683e-09
1.32025e-08
1.37055e-09
-8.24782e-09
3.91309e-09
1.75087e-08
-5.35546e-09
1.07656e-08
3.13044e-08
-1.16086e-08
1.56848e-09
-5.43619e-09
3.38059e-09
-1.18603e-09
4.96122e-09
-9.02676e-09
-1.11753e-08
2.94728e-09
-9.67449e-09
-2.40629e-09
-9.75942e-09
1.07688e-08
1.3968e-09
-7.55062e-09
6.7555e-09
-1.6113e-09
-1.40578e-09
5.3934e-09
-4.39917e-10
-2.25585e-09
2.58147e-09
-9.11466e-11
2.35417e-09
2.60968e-10
-3.81844e-09
4.40503e-10
-3.42279e-10
2.01485e-09
-2.75574e-09
3.2287e-09
-2.48804e-09
2.72732e-09
-2.72046e-10
7.39313e-12
-7.6424e-09
-1.66279e-09
-5.88049e-09
9.39429e-10
9.417e-10
4.87413e-09
2.29155e-09
9.41646e-09
7.33455e-09
-4.1576e-09
2.51127e-09
1.65892e-09
3.51301e-09
1.72554e-09
1.43622e-09
-3.8671e-09
2.21754e-09
2.13198e-10
9.78129e-09
5.25962e-09
-1.42455e-08
-7.95529e-10
2.09537e-09
-4.39191e-09
1.20775e-08
5.93887e-09
4.06935e-09
-6.24435e-09
-3.76429e-09
9.09177e-09
-3.35212e-09
1.99047e-10
1.48399e-08
-1.3518e-08
3.93762e-09
-4.08695e-09
2.10221e-08
-1.49692e-09
-1.17069e-08
-1.04173e-09
2.02103e-09
8.91232e-10
1.15522e-09
5.05707e-09
6.05547e-09
9.456e-09
-9.70768e-09
-3.10062e-09
-7.67909e-09
8.34409e-09
2.79875e-10
9.47954e-09
-1.32983e-08
-9.69908e-09
-4.08242e-09
1.68441e-09
-9.3089e-09
-3.05982e-09
-1.07303e-08
1.71012e-09
-1.10143e-08
-1.68434e-08
-4.60617e-09
1.73623e-08
-7.05396e-09
-3.09922e-10
-4.22857e-09
-7.38536e-09
4.64558e-09
-6.46619e-09
-5.23346e-09
9.30802e-10
-8.98469e-09
-6.85354e-09
2.68654e-09
6.15471e-10
3.55163e-09
-8.08762e-10
-5.41027e-09
-6.34416e-10
-6.77339e-09
-5.45382e-09
5.53158e-09
6.69568e-09
1.49714e-09
-6.56165e-09
-1.70884e-09
-5.70452e-09
1.86824e-09
6.52279e-09
-3.83678e-09
-3.70593e-10
-3.77032e-09
-8.75188e-10
6.74085e-10
-6.15793e-10
-5.11932e-09
1.99432e-10
-5.33865e-10
-3.59587e-09
-8.08504e-09
-1.87709e-09
9.27691e-09
6.53086e-09
-1.50113e-10
-5.70655e-09
3.06424e-09
4.0821e-09
-3.71627e-10
-4.01443e-09
5.18829e-09
-5.26826e-09
2.79456e-10
6.37545e-09
-5.94464e-10
-4.82389e-09
-4.56195e-09
-1.91408e-09
-1.48103e-08
1.49657e-08
1.7584e-09
-1.23076e-08
1.00653e-08
3.27989e-10
-6.7208e-09
4.17061e-09
-1.22604e-08
-2.76245e-09
-1.62661e-08
1.10667e-08
-2.78269e-09
1.78122e-09
5.21803e-09
3.55342e-09
-1.1534e-08
9.58107e-09
2.27947e-09
3.1051e-09
1.32624e-08
-9.51449e-09
7.20481e-09
-4.73205e-10
6.32876e-09
-1.06253e-08
1.15352e-09
6.09237e-09
-3.69262e-09
1.03866e-08
-5.0625e-09
1.20453e-08
-1.96685e-09
3.08074e-10
5.01573e-09
-3.41871e-09
1.63879e-09
4.88099e-09
-1.97094e-09
-6.27669e-09
1.43323e-10
-1.25621e-09
5.38168e-09
-2.99797e-10
9.36252e-09
-3.98701e-09
-5.07559e-09
-3.64472e-09
7.78951e-09
-4.44453e-09
3.2683e-09
-4.12206e-09
-2.79094e-09
5.45362e-09
2.59024e-09
1.31874e-09
5.54487e-09
7.69835e-09
-5.47029e-10
2.36219e-09
3.73027e-09
-4.33171e-09
3.83494e-10
3.40157e-09
-4.60262e-09
5.00065e-09
6.70419e-10
-1.06828e-09
4.30107e-09
-6.04418e-09
-2.85947e-09
1.29136e-09
3.65777e-09
-6.47931e-10
5.22641e-09
1.06567e-09
-3.92998e-10
3.02139e-09
9.1733e-10
-2.80797e-10
5.77079e-09
2.47712e-09
2.96071e-09
3.45267e-09
-3.82302e-09
-5.2131e-09
6.16278e-09
2.42828e-09
3.12792e-09
7.61549e-09
1.34964e-09
-1.20933e-08
1.26534e-10
-1.02149e-08
1.32163e-08
-2.58658e-09
-5.7089e-09
2.91322e-09
5.38217e-09
-6.99344e-09
-9.35777e-09
4.37694e-10
6.72363e-10
-2.36722e-09
4.1147e-09
5.86762e-09
3.34886e-09
5.69056e-09
-7.68967e-09
-5.88238e-09
-6.52483e-09
1.25361e-09
-1.93616e-09
1.10187e-09
-4.04206e-09
9.69398e-09
-2.55885e-09
-3.09309e-09
1.26188e-08
-5.9298e-09
-1.07312e-08
1.08613e-08
3.77967e-09
-2.02221e-09
-5.18744e-09
3.9246e-09
1.2124e-08
2.70107e-10
4.23638e-09
1.4476e-09
-4.17152e-09
-4.09664e-09
6.82039e-09
-6.26471e-09
1.16368e-08
4.09815e-09
-1.17966e-08
1.76863e-09
7.27831e-09
-4.28074e-09
7.82061e-10
-7.81324e-09
3.91177e-09
-3.55804e-09
-7.12237e-09
-5.32344e-10
3.90691e-09
-4.08952e-09
-6.55637e-09
8.99766e-09
-1.02545e-08
9.96956e-10
-2.52746e-09
-5.02591e-09
-2.21852e-09
9.05592e-09
4.8796e-09
-2.97473e-09
-1.0961e-08
5.27552e-09
1.8826e-09
1.89776e-09
1.47576e-08
1.20116e-09
-1.10792e-08
9.73597e-09
1.02972e-08
-5.64474e-09
-1.24248e-08
1.92706e-08
7.21886e-09
-7.52046e-11
-1.01184e-08
7.5474e-09
5.44635e-10
-8.7335e-10
7.28176e-09
2.1482e-09
-1.45624e-09
1.61039e-08
-4.91185e-09
1.86006e-08
-5.43164e-09
-1.88138e-08
-1.55602e-11
1.21563e-08
6.45975e-09
-1.14245e-08
1.31247e-08
-1.15573e-09
-1.69313e-08
-4.33381e-09
1.01591e-08
8.77531e-09
-3.05656e-08
1.44372e-08
2.06284e-08
-4.49999e-09
7.47208e-09
-1.01878e-08
-2.78506e-08
2.95538e-08
-1.73927e-08
-4.68908e-09
2.27041e-08
4.05635e-10
6.44412e-09
2.69302e-08
1.88635e-08
-4.27931e-09
-2.14408e-08
6.85624e-09
-8.27211e-09
7.74612e-09
1.64445e-08
-2.46379e-08
3.91383e-09
-1.93319e-08
1.83836e-08
6.31191e-09
-2.91059e-08
-3.54947e-09
1.55595e-08
-2.9786e-09
-6.8632e-09
1.41999e-08
4.20348e-09
1.52045e-09
1.79517e-08
-1.23671e-08
-6.8264e-09
1.24174e-09
1.56497e-08
1.49598e-08
-1.26578e-08
2.56126e-09
1.99364e-09
-1.57367e-08
1.11819e-08
2.46762e-09
1.26467e-08
-1.25531e-08
-1.16068e-08
1.07865e-08
-1.15467e-08
-1.09755e-09
2.07183e-08
-3.97112e-09
-1.47865e-08
1.65191e-09
1.10978e-08
2.03674e-09
-3.76593e-09
1.17506e-08
-5.51704e-09
-1.33791e-08
-9.94828e-09
1.03751e-08
-1.52133e-08
1.3978e-08
-1.67819e-08
1.54506e-08
-1.09344e-08
1.14886e-08
1.11465e-08
-1.32851e-08
1.38891e-08
3.6857e-09
3.44047e-10
-1.40214e-08
1.37324e-08
-1.06455e-08
8.10741e-10
2.18686e-09
-2.22107e-08
5.14009e-09
1.48839e-08
-2.07099e-08
5.6475e-09
1.72492e-08
1.98981e-08
-2.05625e-08
-2.00455e-08
1.78321e-08
-1.21458e-09
-1.65786e-09
1.63396e-08
1.50782e-09
-1.19121e-08
1.55443e-08
-1.12973e-08
1.84525e-08
1.69842e-08
4.97021e-09
-6.12855e-10
2.18739e-08
-2.0687e-08
-2.40141e-09
-7.42268e-09
1.73845e-08
-1.07278e-08
-5.60455e-09
-4.35464e-09
-1.29186e-08
-6.64576e-09
1.23328e-08
2.33255e-08
-1.26476e-08
9.25703e-09
-2.40425e-08
2.11258e-09
1.80867e-08
-2.01032e-08
3.88511e-09
-1.48886e-08
-6.69423e-09
1.76975e-08
-1.6768e-08
2.3105e-08
-3.90048e-09
6.66627e-09
-1.95338e-08
-2.14793e-08
2.69027e-09
-1.16551e-09
6.12041e-09
4.35246e-09
-2.15428e-08
2.28932e-08
-2.60729e-08
7.532e-09
3.20311e-09
6.67289e-09
-2.33933e-08
1.88115e-08
-2.32522e-09
-1.51301e-08
-4.02403e-09
-1.95981e-08
3.58873e-10
2.28372e-09
-4.72935e-09
2.08587e-09
1.59989e-09
-2.89727e-09
1.65605e-09
-1.48608e-09
-6.23102e-10
3.70857e-09
3.49948e-09
-2.70217e-09
-2.054e-09
-7.43803e-10
-9.99727e-11
-4.22162e-10
1.26325e-09
1.79706e-09
9.11153e-10
2.33554e-09
6.70356e-10
3.39902e-10
2.97558e-09
-1.03472e-08
1.22388e-08
2.44518e-09
-4.33678e-09
1.08102e-09
-9.5583e-09
9.61512e-09
-1.13788e-09
1.63957e-08
-4.35516e-10
-1.48792e-08
9.93633e-09
-4.68207e-09
-1.45338e-08
9.27951e-09
1.55093e-09
-1.96178e-09
2.53584e-09
-1.39941e-08
6.77602e-09
-1.43978e-09
-6.56762e-09
7.96073e-09
7.07032e-09
-2.79231e-09
2.45715e-08
-1.42102e-08
-7.62569e-09
-2.73575e-09
1.60668e-08
1.55624e-08
-7.05781e-09
-1.35698e-08
1.66541e-08
-8.84064e-09
5.75617e-09
-2.20389e-08
1.10049e-08
8.03139e-09
5.21595e-09
3.1483e-09
8.84403e-09
8.80242e-09
-9.70531e-10
1.52175e-09
7.40936e-09
1.01202e-08
2.61223e-08
-2.01758e-08
1.45877e-08
9.5805e-10
1.10835e-09
1.43792e-09
6.43549e-09
-1.98523e-09
1.36271e-08
1.25968e-08
7.20673e-09
1.20495e-08
2.64523e-09
-4.15091e-09
4.98532e-09
-3.47965e-09
-1.48208e-09
4.04348e-09
8.38429e-11
1.43404e-09
1.72514e-09
-7.31004e-09
1.94949e-09
-1.99751e-09
5.0324e-09
-2.45385e-10
1.98298e-10
-2.43398e-09
-2.00879e-09
1.7947e-10
-1.54792e-09
2.36228e-09
6.15819e-11
6.93498e-09
1.88568e-09
-7.09547e-09
5.52618e-10
3.63589e-09
7.6143e-10
-2.44777e-09
3.89285e-09
-2.26571e-09
-8.35439e-10
5.23107e-10
5.50369e-09
-2.85656e-09
-6.30741e-10
-1.36603e-08
-2.67756e-09
1.06047e-08
5.73296e-09
2.95491e-09
-8.18388e-09
-1.6942e-09
6.92288e-09
-1.1263e-08
5.57455e-10
-6.86704e-09
1.87325e-09
-6.26934e-09
-3.93013e-09
-2.49476e-09
-1.75919e-09
-4.77492e-09
-6.02246e-09
1.30997e-08
-6.55761e-09
-4.66898e-09
-1.67946e-09
3.46517e-09
-4.28076e-09
2.26077e-09
8.18039e-09
2.24164e-09
4.86549e-09
-9.16243e-09
2.29743e-09
-1.38976e-08
1.64654e-08
-6.24039e-09
-6.62494e-09
1.37612e-09
1.14889e-08
-7.73681e-09
-1.76191e-09
3.25812e-09
-3.68378e-09
2.43358e-09
-5.37506e-09
-7.95543e-09
-1.37244e-08
1.64626e-08
-5.06477e-09
2.32635e-09
-8.9934e-09
-2.34488e-08
-3.2272e-09
1.3954e-08
1.2722e-08
9.4393e-09
-1.57593e-08
-1.71288e-08
-2.19171e-08
8.01338e-09
1.06764e-08
-1.60755e-08
-9.2479e-09
3.4063e-09
-1.72077e-08
6.55149e-09
2.46102e-08
-2.58477e-09
-8.16643e-09
-2.36684e-08
8.35587e-09
1.56329e-08
-1.59755e-08
-1.31463e-08
1.44269e-08
4.01855e-09
-4.12899e-09
-6.73146e-09
2.16387e-08
-1.48994e-08
2.25948e-08
-8.35372e-09
-2.52716e-09
1.14062e-08
-2.86314e-08
1.90848e-08
-2.01009e-08
1.24223e-08
4.3232e-09
6.40781e-09
2.10147e-09
1.30167e-10
-7.05551e-09
3.16282e-09
1.71672e-08
-7.23275e-10
-3.98423e-09
-1.24599e-08
6.2983e-09
1.58769e-09
9.28116e-09
-1.30909e-08
6.45396e-09
1.29352e-08
1.20475e-08
-9.60799e-09
5.68795e-09
7.94717e-09
1.19608e-08
-3.32272e-09
-1.26224e-08
-2.8113e-10
-8.48897e-10
4.8742e-09
4.89586e-09
-6.67476e-09
7.44579e-09
-1.05217e-09
-9.86728e-09
-9.01057e-10
1.21507e-08
-7.96639e-09
1.35192e-08
-2.41153e-10
3.02791e-09
-3.6737e-09
-1.05799e-08
1.12257e-08
-3.307e-09
-6.68095e-09
-5.58307e-09
-1.63926e-09
-4.26131e-09
-8.81231e-10
-1.35976e-08
8.89577e-09
-5.1343e-09
-8.05072e-09
9.87803e-09
-1.34419e-09
-1.21649e-08
8.37483e-09
-1.24619e-08
7.44391e-09
6.2533e-09
7.50724e-09
-1.46418e-08
1.00052e-08
-5.39115e-09
-2.25084e-09
4.32159e-09
-1.47255e-08
1.44757e-08
2.15684e-10
-5.09275e-09
-9.84842e-09
-6.37639e-09
1.17305e-08
4.65106e-09
5.55798e-09
-1.069e-08
-1.24443e-09
1.42895e-09
5.89466e-09
-1.22023e-08
-6.15428e-09
-7.12325e-10
7.50706e-09
-1.06898e-08
-4.47951e-09
1.74394e-08
-7.71763e-09
1.39714e-09
-1.1119e-08
1.06946e-08
8.23184e-09
-1.48718e-09
-8.01221e-09
-2.34835e-08
2.3778e-08
1.93058e-08
-1.05344e-08
-7.37442e-09
1.03217e-08
1.96787e-08
1.42208e-08
-1.11949e-09
-2.68001e-08
1.36986e-08
3.05504e-09
2.86276e-08
-1.74617e-08
-1.11874e-08
2.67141e-08
-2.03191e-08
2.28214e-08
2.2733e-08
-1.69271e-08
-6.14777e-09
-6.78521e-09
2.32545e-08
-7.34633e-09
1.39351e-08
-1.2737e-08
-9.03374e-09
2.50695e-08
1.03341e-08
-3.70558e-09
-2.21956e-09
-1.36323e-09
9.65782e-09
-4.13063e-09
-9.23256e-09
-7.16622e-09
-6.93872e-09
-8.79374e-10
-7.03709e-09
2.56927e-09
8.11196e-09
-1.48118e-08
5.6703e-09
-5.32054e-09
7.9849e-09
-6.81158e-09
-9.63848e-09
8.56926e-09
-4.52508e-10
-1.82113e-09
-7.56401e-09
6.94954e-10
5.52885e-09
1.34017e-09
1.7836e-09
-5.26525e-09
-4.08236e-09
-6.67094e-10
5.51633e-09
-5.39971e-09
5.50402e-10
-5.72398e-09
4.85169e-09
2.0511e-10
4.78834e-09
-6.15746e-10
-2.38904e-09
-9.14272e-10
-2.13567e-11
1.25383e-09
1.41913e-10
3.45568e-09
2.03659e-09
4.73348e-09
8.66339e-09
-1.307e-08
5.97501e-09
-6.05017e-09
5.999e-09
8.71443e-09
-7.64133e-09
-2.48144e-09
-3.55184e-09
7.92704e-09
-1.20165e-08
4.65519e-09
2.07068e-09
-6.03104e-09
2.59636e-09
-7.44096e-09
1.29278e-09
5.31494e-09
-7.0049e-10
3.95986e-09
1.49679e-09
3.88957e-09
6.74057e-09
3.51825e-09
-1.64147e-09
6.08855e-09
-4.10794e-09
1.76384e-09
-1.07495e-09
-6.067e-09
5.6661e-09
2.43741e-09
-7.84952e-10
5.59837e-09
3.47881e-09
-3.12692e-09
-5.95015e-09
4.80135e-09
5.36506e-10
2.60538e-10
5.04884e-09
5.68009e-09
-2.62152e-09
-8.10728e-09
-5.92455e-11
5.70965e-09
-6.0151e-10
4.7234e-09
-1.30381e-09
-7.02692e-09
5.22913e-09
7.50746e-09
1.39069e-09
-2.73759e-09
4.10973e-09
-9.8581e-09
-9.86059e-10
4.37404e-09
1.33548e-09
3.74004e-09
7.52736e-11
-3.42098e-09
7.70784e-11
5.67666e-09
-2.33279e-09
-3.35324e-09
8.82698e-10
-9.50437e-10
3.86182e-09
-5.53963e-09
3.48763e-10
1.32904e-09
-1.87855e-09
5.81738e-09
-3.44533e-09
-7.03498e-10
5.31124e-09
-4.64685e-09
5.61375e-09
2.34044e-10
4.72347e-10
1.89841e-09
2.00332e-09
2.60926e-09
3.82298e-09
1.07311e-08
-6.9306e-09
-1.11615e-09
-2.6843e-09
-1.07236e-08
8.60053e-09
1.28543e-08
-1.00564e-08
-5.79902e-10
-8.73414e-11
-6.24105e-09
-1.07459e-08
2.63348e-09
-7.71638e-09
5.47727e-09
-3.94119e-10
-1.82823e-10
1.1417e-08
-5.22895e-10
-9.67097e-09
3.95285e-09
3.52119e-09
5.35878e-09
-9.40281e-09
3.62312e-09
5.1453e-09
-5.24713e-09
-5.49748e-09
-3.33501e-09
5.83026e-09
7.82026e-10
-7.19205e-09
8.63208e-09
-2.98451e-09
5.54391e-09
-1.95394e-09
3.32163e-11
6.93742e-10
-6.21223e-09
-1.29567e-09
6.81436e-09
-5.05142e-10
6.74286e-09
1.49605e-10
-2.88258e-10
-1.9747e-08
2.99472e-10
1.81326e-08
1.31521e-09
-5.81508e-09
-1.5005e-08
1.07307e-09
-1.13371e-08
-2.18202e-08
8.37898e-09
2.47787e-08
-4.01995e-09
-1.58701e-08
8.55322e-09
-4.11594e-09
-2.20669e-08
-1.06019e-09
2.72423e-08
-1.62298e-08
1.65101e-08
-4.39644e-09
1.39662e-08
-4.11134e-09
-1.567e-08
1.84893e-08
-3.77044e-09
-7.52356e-10
-5.17045e-09
-2.36829e-08
6.78639e-09
6.16084e-10
-2.20166e-08
1.74947e-08
1.29432e-09
1.47075e-08
8.89047e-09
-5.46489e-09
-6.92636e-09
6.66196e-09
6.54839e-09
2.96391e-09
-8.27396e-09
-9.40514e-09
-3.50103e-09
3.02129e-08
-1.51715e-08
1.08682e-08
-1.43635e-08
-2.30731e-09
8.53677e-10
5.08847e-09
-6.6551e-09
7.12978e-10
5.08298e-09
-5.61843e-09
1.38902e-09
-1.30631e-09
1.02788e-08
8.90563e-09
-4.14123e-09
5.93422e-10
-3.66055e-09
2.80768e-09
-6.19464e-09
-1.60716e-09
-2.48453e-09
-6.8289e-09
-7.21584e-09
3.54517e-09
-2.24331e-09
-5.17684e-09
-8.07393e-09
-5.11205e-09
-1.17486e-10
-2.80341e-09
-4.97524e-09
-7.44564e-09
-9.58377e-09
-5.89337e-09
-6.62992e-09
-4.78893e-09
7.83038e-09
-4.18608e-09
-8.61955e-09
2.08299e-09
4.2224e-10
6.19898e-09
-9.1158e-09
-6.66701e-09
8.18151e-10
-2.66042e-09
-1.7601e-08
1.36314e-08
-1.59623e-08
3.27002e-10
-1.5094e-10
2.48818e-09
3.34349e-09
-1.38767e-10
-6.54817e-10
5.13754e-11
3.05175e-09