/*--------------------------------*- C++ -*----------------------------------*\
| =========                 |                                                 |
| \\      /  F ield         | OpenFOAM: The Open Source CFD Toolbox           |
|  \\    /   O peration     | Version:  v1612+                                |
|   \\  /    A nd           | Web:      www.OpenFOAM.com                      |
|    \\/     M anipulation  |                                                 |
\*---------------------------------------------------------------------------*/
FoamFile
{
    version     2.0;
    format      ascii;
    class       volVectorField;
    location    "100";
    object      U;
}
// * * * * * * * * * * * * * * * * * * * * * * * * * * * * * * * * * * * * * //

dimensions      [0 1 -1 0 0 0 0];

internalField   nonuniform List<vector> 
16938
(
(0.109572 0.384155 -0.232779)
(-0.125417 0.170621 -0.412621)
(0.0988621 0.549921 -1.03185)
(-0.108061 0.509353 -0.810696)
(-0.104157 0.520513 -0.809284)
(-0.0849216 0.571526 -0.912116)
(-0.10457 0.542646 -0.839435)
(-0.0942985 0.49293 -0.765801)
(-0.0821646 0.545339 -0.872405)
(-0.0900287 0.549858 -0.851388)
(-0.0698041 0.552197 -0.88644)
(-0.0863148 0.609068 -0.978067)
(-0.0835055 0.583226 -0.916796)
(-0.0681086 0.607983 -0.987848)
(-0.102375 0.580562 -0.941065)
(-0.0919921 0.572222 -0.905301)
(-0.0997046 0.590603 -0.943803)
(-0.0957955 0.576403 -0.908855)
(0.115085 0.529581 -1.15799)
(0.113599 0.514786 -1.1258)
(0.0989381 0.523305 -1.118)
(0.0654441 0.520954 -1.07063)
(0.0417396 0.575345 -1.14675)
(0.0404411 0.562791 -1.11948)
(0.0407832 0.548536 -1.05791)
(0.0978631 0.538005 -1.1524)
(0.0920004 0.531758 -1.17114)
(0.0496151 0.541312 -1.16298)
(0.0796218 0.541475 -1.1654)
(0.0945468 0.542863 -1.17141)
(0.0760178 0.550001 -1.14422)
(0.061579 0.552863 -1.1215)
(0.0534845 0.564142 -1.14856)
(0.041735 0.566043 -1.17028)
(0.0389393 0.549053 -1.15908)
(0.0588161 0.542858 -1.14879)
(-0.0783708 0.268104 -0.29918)
(-0.0948063 0.251775 -0.315021)
(-0.0908525 0.287569 -0.35299)
(-0.0965798 0.259871 -0.340119)
(-0.0893273 0.292694 -0.338866)
(-0.0899536 0.261048 -0.279844)
(-0.106475 0.305458 -0.303262)
(-0.0885583 0.372626 -0.318261)
(-0.105932 0.36995 -0.301165)
(-0.079966 0.284014 -0.270619)
(-0.0832552 0.287686 -0.221499)
(-0.0989393 0.295256 -0.268969)
(-0.0784348 0.41601 -0.286204)
(-0.101128 0.384663 -0.26686)
(-0.0820514 0.337585 -0.301196)
(-0.102669 0.333318 -0.227756)
(-0.0861229 0.319117 -0.234807)
(-0.0558223 0.390639 -0.619098)
(-0.0716868 0.384256 -0.590512)
(-0.0273271 0.391281 -0.652843)
(-0.0399346 0.391318 -0.644888)
(-0.119862 0.312997 -0.473373)
(-0.149863 0.267503 -0.383838)
(-0.0610345 0.392515 -0.638419)
(-0.181802 0.277017 -0.380783)
(-0.146139 0.332063 -0.461312)
(-0.0962193 0.36051 -0.563837)
(-0.100437 0.365919 -0.544048)
(-0.151278 0.32799 -0.435803)
(-0.157448 0.304502 -0.387978)
(-0.161328 0.29289 -0.412098)
(-0.180237 0.304536 -0.414424)
(-0.117772 0.330728 -0.504601)
(-0.166312 0.317005 -0.424618)
(-0.177474 0.266777 -0.340542)
(0.0639752 0.261669 -0.57002)
(0.0852985 0.266875 -0.624611)
(0.0478206 0.278361 -0.653849)
(0.068003 0.300497 -0.772422)
(0.122893 0.286413 -0.724174)
(0.111264 0.363336 -0.850562)
(0.0849364 0.291134 -0.676691)
(0.102544 0.342532 -0.83058)
(0.126635 0.327479 -0.776046)
(0.117778 0.332556 -0.808589)
(0.0138311 0.623663 -0.499352)
(0.046789 0.595627 -0.516772)
(0.025821 0.565497 -0.555154)
(0.0299435 0.579867 -0.52626)
(0.0899697 0.664183 -0.484639)
(0.0596575 0.667503 -0.477823)
(0.0328629 0.598489 -0.546084)
(0.0998784 0.6502 -0.552149)
(0.0927485 0.643707 -0.525292)
(0.0887687 0.654713 -0.482572)
(0.0723986 0.637903 -0.452087)
(0.0694296 0.615377 -0.618203)
(0.0827362 0.630826 -0.592411)
(0.0535095 0.61875 -0.590936)
(0.0595244 0.596006 -0.59323)
(0.0455035 0.641307 -0.508734)
(0.0753941 0.637632 -0.455806)
(0.0661653 0.642055 -0.600874)
(0.0630024 0.643749 -0.516047)
(-0.0492803 0.526826 -1.00596)
(-0.0916611 0.427213 -0.851061)
(-0.0691652 0.434387 -0.874248)
(-0.048375 0.528089 -1.01735)
(-0.0837939 0.400828 -0.852519)
(-0.0217894 0.593236 -1.07858)
(0.0275549 0.598789 -1.06737)
(0.0107478 0.59955 -1.07463)
(-0.0356058 0.469952 -0.949998)
(-0.0308928 0.568386 -1.04168)
(-0.0265547 0.518408 -0.972147)
(-0.077932 0.450909 -0.898834)
(0.01776 0.581152 -1.06091)
(0.0104538 0.561612 -1.0044)
(-0.0152013 0.530208 -0.961449)
(-0.0456157 0.445641 -0.904406)
(0.00309098 0.562799 -1.02626)
(-0.0442178 0.454796 -0.896339)
(0.0314426 0.532273 -0.990233)
(0.0539028 0.534279 -0.999281)
(0.0971925 0.512399 -0.994171)
(0.0550894 0.49674 -0.962532)
(0.0346536 0.556987 -1.02357)
(0.0456638 0.56338 -1.02542)
(0.133642 0.541552 -1.0223)
(0.139598 0.562081 -1.05362)
(0.062561 0.501688 -0.975949)
(0.110021 0.598207 -1.07557)
(0.136432 0.574889 -1.07276)
(0.138991 0.574109 -1.06338)
(0.129482 0.575205 -1.06205)
(0.05494 0.53104 -1.02446)
(-0.066455 0.452481 -0.856524)
(-0.0702066 0.437707 -0.895065)
(-0.0700887 0.448606 -0.84861)
(-0.0314814 0.511171 -0.893117)
(-0.0300358 0.526113 -0.954952)
(-0.113241 0.447471 -0.677977)
(-0.0488089 0.491989 -0.811247)
(-0.0811935 0.471904 -0.764066)
(-0.0573417 0.497108 -0.827708)
(-0.0618162 0.535555 -0.903019)
(-0.116339 0.47498 -0.741064)
(-0.103055 0.427887 -0.731789)
(-0.0779574 0.438383 -0.843003)
(-0.0934615 0.430022 -0.825226)
(-0.0707599 0.4495 -0.856621)
(-0.0834303 0.442174 -0.887086)
(-0.0263483 0.524038 -0.961153)
(-0.0348425 0.542344 -0.979786)
(-0.0426668 0.511783 -0.928678)
(-0.0824074 0.48514 -0.809802)
(-0.0742708 0.523496 -0.822161)
(-0.0942577 0.506682 -0.784555)
(-0.0504016 0.542702 -0.880691)
(-0.0552995 0.539215 -0.871783)
(-0.107235 0.443053 -0.701739)
(-0.0550279 0.534947 -0.880062)
(-0.105904 0.483342 -0.759858)
(-0.121857 0.441731 -0.695101)
(-0.113422 0.445754 -0.708014)
(-0.0860232 0.49918 -0.786855)
(-0.0766187 0.553481 -0.908931)
(-0.0523094 0.573302 -0.938185)
(-0.155109 0.466683 -0.72139)
(-0.148403 0.504821 -0.754085)
(-0.120338 0.507539 -0.775982)
(-0.148366 0.526684 -0.765553)
(-0.0966968 0.52321 -0.839502)
(-0.10609 0.525235 -0.816267)
(-0.138121 0.327841 -0.732032)
(-0.135012 0.321866 -0.695925)
(-0.105848 0.320362 -0.671115)
(-0.106706 0.296729 -0.629873)
(-0.145565 0.347065 -0.752639)
(-0.11598 0.327706 -0.699543)
(-0.0828444 0.380077 -0.81248)
(-0.111489 0.324657 -0.720327)
(-0.117585 0.337925 -0.726667)
(-0.109578 0.316584 -0.669837)
(-0.112797 0.320667 -0.65581)
(-0.0760315 0.40784 -0.812717)
(-0.101992 0.302826 -0.641409)
(-0.0625945 0.419421 -0.867579)
(-0.0468378 0.424754 -0.863171)
(-0.0585285 0.406231 -0.839442)
(0.140287 0.488735 -0.755723)
(0.137826 0.48571 -0.723366)
(0.0846355 0.428839 -0.783573)
(0.152221 0.467767 -0.812552)
(0.0708191 0.430771 -0.67762)
(0.0680109 0.442876 -0.717859)
(0.177016 0.506121 -0.812283)
(0.1793 0.509741 -0.739047)
(0.0676245 0.428263 -0.766709)
(0.13054 0.468444 -0.812324)
(0.0853572 0.418573 -0.691205)
(0.171581 0.481559 -0.747764)
(0.100117 0.412827 -0.65359)
(0.143848 0.474096 -0.722774)
(-0.00210077 0.358272 -0.627721)
(-0.0165542 0.570046 -1.14857)
(-0.0101904 0.602531 -1.17788)
(0.0219344 0.61475 -1.20285)
(0.0111182 0.617139 -1.21489)
(-0.0541195 0.490633 -0.897272)
(-0.0388138 0.476135 -0.956559)
(-0.00128819 0.57813 -1.15771)
(-0.0469346 0.538241 -1.0447)
(-0.0208929 0.578657 -1.11902)
(-0.037043 0.49673 -1.00408)
(-0.0160922 0.52153 -1.10391)
(0.0235254 0.610761 -1.16868)
(0.0127699 0.602867 -1.18242)
(0.0176274 0.613161 -1.19238)
(-0.0250705 0.555129 -1.03355)
(-0.0381424 0.538122 -0.996844)
(-0.00227994 0.610004 -1.18852)
(-0.0331481 0.610186 -1.20005)
(-0.0252028 0.574958 -1.06181)
(0.109563 0.563959 -1.03436)
(0.0931902 0.527647 -0.951777)
(0.105073 0.551438 -1.02306)
(0.111703 0.625097 -1.12645)
(0.0930529 0.58487 -1.04389)
(0.0950882 0.546288 -0.971575)
(0.0824012 0.602956 -1.08796)
(0.101611 0.550199 -0.992001)
(0.0897785 0.507073 -0.949961)
(0.0809141 0.550032 -0.982571)
(0.0821382 0.510994 -0.908244)
(-0.0507813 0.437497 -0.737348)
(-0.0725694 0.364185 -0.625105)
(-0.0354709 0.518175 -0.845384)
(-0.0537153 0.43029 -0.739516)
(-0.0571836 0.443392 -0.752671)
(-0.0700994 0.389435 -0.658946)
(-0.0612935 0.422248 -0.672724)
(-0.0628436 0.371485 -0.614062)
(-0.0538849 0.464347 -0.754772)
(-0.054068 0.481651 -0.771516)
(-0.0648958 0.347942 -0.601069)
(-0.0491911 0.444968 -0.753437)
(-0.0306015 0.48754 -0.805391)
(-0.0511568 0.455868 -0.761038)
(-0.0569811 0.406051 -0.67929)
(-0.0509612 0.462426 -0.749057)
(-0.0544563 0.488892 -0.792251)
(-0.0356602 0.530863 -0.864806)
(-0.0975755 0.595095 -0.303095)
(-0.106493 0.583842 -0.25602)
(-0.110457 0.565254 -0.31526)
(-0.103028 0.583374 -0.33797)
(-0.081623 0.617042 -0.2958)
(-0.0841172 0.58868 -0.228577)
(-0.0606401 0.630909 -0.337716)
(-0.0679401 0.596521 -0.248605)
(-0.0853987 0.596543 -0.24848)
(-0.0745834 0.577806 -0.211203)
(-0.0650451 0.614515 -0.346075)
(-0.0861991 0.601373 -0.35239)
(-0.0809448 0.583972 -0.324482)
(-0.0896032 0.592231 -0.345724)
(-0.0661728 0.614237 -0.259042)
(-0.0880601 0.592101 -0.275653)
(-0.0490275 0.641687 -0.289236)
(-0.123804 0.580339 -0.265611)
(-0.055406 0.632846 -0.299428)
(-0.148724 0.44035 -0.470272)
(-0.141696 0.438007 -0.48457)
(-0.156673 0.540084 -0.322671)
(-0.137115 0.519474 -0.358448)
(-0.126088 0.452143 -0.451089)
(-0.135297 0.44798 -0.452049)
(-0.15903 0.511925 -0.381374)
(-0.127237 0.56538 -0.364792)
(-0.144449 0.555412 -0.34416)
(-0.159889 0.541585 -0.367552)
(-0.126877 0.521182 -0.405029)
(-0.130669 0.551541 -0.392713)
(-0.156879 0.572713 -0.341738)
(0.109757 0.659318 -0.388962)
(0.122826 0.648624 -0.376809)
(0.105658 0.661805 -0.396422)
(0.141822 0.6622 -0.407802)
(0.10266 0.671724 -0.399743)
(0.0721348 0.62755 -0.44846)
(0.104186 0.61939 -0.505785)
(0.0902086 0.601258 -0.504602)
(0.0711103 0.578093 -0.499279)
(0.150533 0.646411 -0.456553)
(0.147412 0.645061 -0.481167)
(0.140507 0.638794 -0.445484)
(0.109715 0.660745 -0.428064)
(0.123956 0.643165 -0.405991)
(0.0719829 0.627723 -0.45596)
(0.121886 0.675292 -0.47431)
(0.0828158 0.627749 -0.490444)
(0.210103 0.618915 -0.833579)
(0.174296 0.540159 -0.722204)
(0.052542 0.487023 -0.811293)
(0.106269 0.511916 -0.769805)
(0.130191 0.518102 -0.822322)
(0.0482069 0.428625 -0.631033)
(0.131309 0.526565 -0.71784)
(0.17471 0.556918 -0.820782)
(-0.0131368 0.405259 -0.728519)
(-0.00159337 0.452825 -0.80215)
(0.15693 0.557624 -0.885303)
(0.0549841 0.516489 -0.891829)
(0.0513549 0.482947 -0.819118)
(0.175739 0.53778 -0.831968)
(0.185849 0.555698 -0.84324)
(0.0247612 0.438848 -0.752251)
(0.000402251 0.406702 -0.694303)
(0.122146 0.517907 -0.903547)
(0.154509 0.531 -0.856351)
(0.133611 0.502056 -0.834072)
(0.315354 0.553798 -0.675906)
(0.307125 0.543943 -0.669128)
(0.291763 0.53507 -0.762851)
(0.311682 0.567581 -0.707335)
(0.306324 0.562976 -0.678936)
(0.301264 0.528072 -0.696725)
(0.304291 0.526347 -0.73654)
(0.316071 0.55318 -0.717218)
(0.28655 0.527235 -0.685608)
(0.292935 0.553435 -0.740199)
(0.280737 0.541372 -0.770617)
(0.291149 0.525636 -0.75087)
(0.310427 0.526243 -0.716079)
(0.252688 0.51721 -0.714214)
(0.283477 0.524581 -0.791518)
(0.299321 0.524339 -0.754415)
(0.264249 0.514946 -0.773571)
(0.224224 0.490964 -0.744767)
(0.261639 0.545072 -0.708693)
(0.244911 0.532784 -0.789038)
(0.232914 0.504141 -0.780744)
(0.243546 0.532796 -0.744504)
(0.0264564 0.551437 -0.996466)
(-0.0168384 0.449068 -0.840348)
(-0.0470902 0.422908 -0.829489)
(-0.0362362 0.416424 -0.822491)
(-0.0455922 0.459844 -0.859731)
(-0.0357118 0.366942 -0.760983)
(-0.0526276 0.375254 -0.764698)
(0.045575 0.478652 -0.927471)
(0.0509739 0.463906 -0.91256)
(0.0611288 0.522312 -0.989624)
(0.0230993 0.532748 -0.966594)
(-0.0231443 0.442944 -0.870866)
(-0.0298339 0.391212 -0.802082)
(-0.0379395 0.444504 -0.848557)
(-0.0539884 0.564068 -0.996547)
(-0.0488466 0.61106 -1.07594)
(-0.0444794 0.556346 -1.00284)
(-0.0478502 0.623506 -1.06749)
(-0.0231213 0.621742 -1.05724)
(-0.0349035 0.613373 -1.05662)
(-0.0368648 0.627688 -1.0726)
(-0.054026 0.57704 -1.01342)
(-0.0509585 0.622068 -1.06804)
(-0.062823 0.635367 -1.02322)
(-0.0292628 0.571289 -0.987087)
(-0.0582718 0.618047 -1.05615)
(-0.057148 0.630146 -1.05884)
(-0.0700156 0.637931 -1.01318)
(-0.0590176 0.635471 -0.984319)
(-0.0516345 0.589027 -1.00681)
(-0.0395755 0.596454 -0.98017)
(0.0579916 0.5641 -1.25791)
(0.0434408 0.587277 -1.25679)
(0.0214621 0.605527 -1.26361)
(0.0652192 0.614555 -1.19767)
(0.064915 0.539561 -1.22245)
(0.0784343 0.569475 -1.24587)
(0.0605553 0.612753 -1.24973)
(0.0670319 0.606754 -1.22213)
(0.0679147 0.612847 -1.25255)
(0.0370751 0.582623 -1.26575)
(0.044538 0.561988 -1.24461)
(0.093142 0.549899 -1.22703)
(0.0705908 0.554874 -1.13234)
(0.0709304 0.549501 -1.23337)
(0.0890739 0.558554 -1.2314)
(0.0540226 0.578902 -1.16103)
(0.0667735 0.576358 -1.25523)
(0.0587403 0.552652 -1.23271)
(0.076815 0.570266 -1.21406)
(-0.332612 0.178741 -0.375306)
(-0.341479 0.144931 -0.333241)
(-0.326199 0.17929 -0.40119)
(-0.334399 0.161031 -0.368667)
(-0.310498 0.245949 -0.467934)
(-0.300687 0.259048 -0.474032)
(-0.334247 0.206018 -0.388066)
(-0.331036 0.180756 -0.396424)
(-0.359227 0.185072 -0.339552)
(-0.347679 0.159041 -0.327994)
(-0.305775 0.281067 -0.462826)
(-0.383562 0.20706 -0.346817)
(-0.363716 0.162479 -0.318064)
(-0.360593 0.232854 -0.384714)
(-0.331986 0.269774 -0.460025)
(-0.331624 0.290093 -0.454527)
(-0.364581 0.204487 -0.380332)
(-0.362869 0.181984 -0.357776)
(-0.0641275 0.463923 -0.735587)
(-0.0697605 0.438746 -0.664538)
(-0.0604617 0.463493 -0.724599)
(-0.0737305 0.35715 -0.571383)
(-0.0757699 0.360952 -0.57714)
(-0.0476017 0.502335 -0.798726)
(-0.046543 0.529395 -0.854635)
(-0.0352478 0.541554 -0.875698)
(-0.0344258 0.565917 -0.930848)
(-0.0312016 0.535845 -0.878207)
(-0.0654992 0.352908 -0.586247)
(-0.0544566 0.472831 -0.74631)
(-0.0623687 0.415782 -0.638594)
(-0.0465683 0.470984 -0.769225)
(-0.0621568 0.361574 -0.583981)
(-0.323432 0.354791 -0.510127)
(-0.341546 0.316282 -0.467584)
(-0.370716 0.306016 -0.364817)
(-0.376785 0.257736 -0.334364)
(-0.369405 0.319684 -0.379319)
(-0.382501 0.295645 -0.331697)
(-0.35806 0.325772 -0.453017)
(-0.349795 0.281662 -0.444754)
(-0.342166 0.318566 -0.470872)
(-0.386376 0.252774 -0.317293)
(-0.370012 0.285618 -0.40406)
(-0.377152 0.257356 -0.35846)
(-0.389768 0.222908 -0.368121)
(-0.383663 0.294469 -0.401354)
(-0.397316 0.295598 -0.376757)
(-0.382225 0.227952 -0.336128)
(-0.382824 0.194223 -0.294474)
(-0.38451 0.217402 -0.27851)
(-0.150693 0.573375 -0.412999)
(-0.180709 0.572515 -0.391124)
(-0.16905 0.512257 -0.486178)
(-0.137858 0.51144 -0.556643)
(-0.189185 0.520779 -0.535571)
(-0.175502 0.508566 -0.566165)
(-0.160358 0.552858 -0.468745)
(-0.164007 0.513253 -0.567588)
(-0.171887 0.512078 -0.582885)
(-0.160511 0.522433 -0.544266)
(-0.195743 0.530754 -0.514673)
(-0.180957 0.58167 -0.344548)
(-0.183576 0.566628 -0.383733)
(-0.207724 0.568182 -0.311402)
(-0.204013 0.511811 -0.479492)
(-0.177679 0.532078 -0.524995)
(-0.227806 0.569654 -0.30559)
(-0.215601 0.554679 -0.288212)
(-0.22899 0.548341 -0.348018)
(-0.228973 0.559683 -0.348132)
(-0.202186 0.552197 -0.362169)
(-0.205475 0.559686 -0.387089)
(-0.210825 0.566357 -0.319502)
(-0.285168 0.516172 -0.288304)
(-0.293384 0.507553 -0.321654)
(-0.297433 0.521206 -0.299759)
(-0.29392 0.504135 -0.249058)
(-0.284288 0.528997 -0.319107)
(-0.203782 0.507611 -0.518975)
(-0.181247 0.51582 -0.549308)
(-0.279834 0.484477 -0.419549)
(-0.273726 0.494909 -0.401244)
(-0.208615 0.518114 -0.499021)
(-0.220391 0.537333 -0.468245)
(-0.293675 0.504842 -0.402544)
(-0.260377 0.546395 -0.286076)
(-0.274035 0.513019 -0.258035)
(-0.313562 0.52316 -0.31818)
(-0.252524 0.549703 -0.300844)
(-0.2728 0.545122 -0.32816)
(-0.185858 0.43503 -0.456958)
(-0.168525 0.455737 -0.458651)
(-0.175217 0.459987 -0.454903)
(-0.172851 0.471308 -0.468572)
(-0.130379 0.473247 -0.605416)
(-0.166707 0.479672 -0.583775)
(-0.15069 0.469252 -0.607115)
(-0.13974 0.438421 -0.60525)
(-0.103831 0.506744 -0.773104)
(-0.0840684 0.490693 -0.785333)
(-0.161744 0.471709 -0.636911)
(-0.171048 0.445817 -0.544184)
(-0.142802 0.439026 -0.597575)
(-0.139514 0.479824 -0.645886)
(-0.123287 0.462028 -0.674195)
(-0.0532406 0.419066 -0.64889)
(-0.0768881 0.390979 -0.532592)
(-0.151747 0.333314 -0.457446)
(-0.20226 0.275606 -0.332003)
(-0.1569 0.314933 -0.390717)
(-0.183178 0.285853 -0.333829)
(-0.186832 0.303542 -0.319865)
(-0.195236 0.271971 -0.293537)
(-0.0558547 0.424023 -0.662949)
(-0.0766951 0.381637 -0.55095)
(-0.0974491 0.385992 -0.549795)
(-0.0881651 0.422095 -0.622579)
(-0.0923679 0.3862 -0.57814)
(-0.161366 0.32148 -0.380343)
(-0.169933 0.34148 -0.374592)
(-0.183956 0.311173 -0.340555)
(-0.210462 0.285968 -0.36417)
(-0.0204338 0.443658 -0.791684)
(-0.0493336 0.429943 -0.70329)
(-0.104788 0.313929 -0.379426)
(-0.108433 0.349622 -0.418896)
(-0.0467058 0.396721 -0.784691)
(-0.045227 0.415235 -0.744188)
(-0.0370186 0.416961 -0.73563)
(-0.113283 0.307621 -0.39437)
(-0.112603 0.346393 -0.418435)
(-0.0829957 0.381254 -0.528674)
(-0.107723 0.37729 -0.50103)
(-0.0832603 0.402202 -0.564377)
(-0.0416883 0.385453 -0.776093)
(-0.0320246 0.417639 -0.791864)
(-0.0672949 0.3677 -0.554418)
(-0.0829229 0.322802 -0.484803)
(-0.0841078 0.354794 -0.583549)
(-0.0616545 0.365976 -0.71037)
(-0.0530578 0.376599 -0.708878)
(-0.0935205 0.320366 -0.460777)
(-0.117778 0.306047 -0.408351)
(-0.0812243 0.343987 -0.571916)
(-0.0827398 0.362987 -0.618491)
(-0.0868771 0.35055 -0.60586)
(-0.132393 0.271165 -0.527076)
(-0.133532 0.247564 -0.508494)
(-0.105938 0.285674 -0.528499)
(-0.113282 0.261348 -0.500226)
(-0.0868934 0.302879 -0.542466)
(-0.0778429 0.379676 -0.638598)
(-0.126737 0.312213 -0.572386)
(-0.122241 0.288774 -0.543286)
(-0.110575 0.306131 -0.564779)
(-0.0667834 0.424474 -0.708938)
(-0.0695042 0.403996 -0.682944)
(-0.093026 0.289245 -0.544563)
(-0.0914962 0.392193 -0.657068)
(-0.0892539 0.378787 -0.647185)
(-0.0685763 0.401337 -0.672675)
(-0.101153 0.313015 -0.570822)
(-0.0144671 0.407152 -0.855601)
(-0.0217105 0.399101 -0.827454)
(0.0130354 0.412003 -0.871095)
(-0.0297636 0.356093 -0.749285)
(-0.0610708 0.335569 -0.711973)
(-0.0337713 0.356466 -0.679449)
(-0.0127222 0.434435 -0.902143)
(-0.0286687 0.402853 -0.829673)
(-0.0662638 0.307644 -0.584251)
(-0.0522846 0.328903 -0.601526)
(-0.015621 0.384881 -0.695203)
(0.0366457 0.459832 -0.877588)
(0.00212233 0.44518 -0.825094)
(-0.00595079 0.456707 -0.861521)
(-0.0529341 0.340564 -0.556202)
(-0.061695 0.332209 -0.535267)
(-0.0838939 0.321443 -0.446341)
(-0.0453131 0.375128 -0.676293)
(-0.226278 0.442595 -0.575813)
(-0.311476 0.399405 -0.453239)
(-0.288064 0.392389 -0.474919)
(-0.218331 0.456784 -0.609177)
(-0.249849 0.425897 -0.534369)
(-0.282974 0.419095 -0.505669)
(-0.334573 0.355159 -0.43627)
(-0.309712 0.317834 -0.418381)
(-0.282292 0.34943 -0.452743)
(-0.304324 0.328066 -0.442716)
(-0.324025 0.310884 -0.413987)
(-0.314156 0.356997 -0.431871)
(-0.290781 0.338867 -0.490342)
(-0.297782 0.322999 -0.444736)
(-0.24253 0.420884 -0.59712)
(-0.120729 0.429852 -0.619959)
(-0.109625 0.382868 -0.545698)
(-0.0828485 0.42073 -0.68399)
(-0.154231 0.431842 -0.458246)
(-0.126886 0.421582 -0.46714)
(-0.121973 0.448331 -0.571042)
(-0.105388 0.359631 -0.5214)
(-0.136943 0.409464 -0.494247)
(-0.110684 0.427554 -0.57859)
(-0.154258 0.426562 -0.462762)
(-0.148266 0.430788 -0.43824)
(0.0837907 0.519534 -0.976767)
(0.0884166 0.465179 -0.861457)
(0.061509 0.4658 -0.885184)
(0.0699513 0.47823 -0.897293)
(0.0937213 0.503429 -0.962227)
(0.0176715 0.422194 -0.747288)
(0.0291954 0.435162 -0.785869)
(0.0899718 0.465821 -0.865584)
(0.034822 0.446063 -0.78263)
(0.069532 0.508168 -0.918513)
(-0.00154462 0.402988 -0.709557)
(-0.0241017 0.352961 -0.620814)
(0.0142743 0.379986 -0.67777)
(0.0707267 0.490824 -0.880559)
(0.0245859 0.425245 -0.758471)
(0.0143134 0.389098 -0.707984)
(-0.108407 0.561422 -0.801051)
(-0.13251 0.558443 -0.778025)
(-0.10962 0.562168 -0.825373)
(-0.126174 0.56861 -0.807879)
(-0.0826617 0.602664 -0.935104)
(-0.0985152 0.542576 -0.794633)
(-0.0989014 0.524191 -0.765085)
(-0.116546 0.522735 -0.743912)
(-0.109093 0.57142 -0.835646)
(-0.0667006 0.567388 -0.890881)
(-0.0847209 0.573431 -0.877716)
(-0.0781107 0.513448 -0.76058)
(-0.0779552 0.547338 -0.814841)
(-0.11173 0.537049 -0.777044)
(-0.090235 0.537024 -0.789708)
(-0.144762 0.394736 -0.747881)
(-0.0792725 0.457842 -0.871293)
(-0.0604198 0.543217 -0.982282)
(-0.0392503 0.563958 -1.02575)
(-0.0511154 0.532418 -0.98878)
(-0.0607106 0.436782 -0.873194)
(-0.0320753 0.455029 -0.921043)
(-0.073001 0.485869 -0.901579)
(-0.04319 0.561176 -1.00767)
(-0.0197869 0.544515 -1.03629)
(0.214836 0.371678 -1.03364)
(0.202248 0.358262 -0.998178)
(0.135514 0.377053 -0.95359)
(0.000494721 0.554955 -1.16954)
(0.0235015 0.549849 -1.20577)
(0.0072595 0.508804 -1.098)
(0.0303033 0.507045 -1.04608)
(0.0220133 0.536728 -1.18863)
(0.00191294 0.523051 -1.13849)
(-0.00747651 0.468076 -0.977475)
(0.0355216 0.504023 -1.11238)
(0.009506 0.521099 -1.15907)
(0.00814301 0.440949 -0.956419)
(0.026097 0.444897 -0.986646)
(0.0509763 0.511343 -1.11171)
(0.0879986 0.51054 -1.1901)
(0.0208717 0.444349 -0.971447)
(0.0693524 0.514759 -1.16956)
(0.0612607 0.475291 -1.0761)
(0.00439976 0.574536 -1.16992)
(-0.0414846 0.528224 -1.03893)
(-0.0345153 0.50437 -1.02701)
(0.0167445 0.583652 -1.20596)
(0.0113311 0.560946 -1.19741)
(-0.0100306 0.602608 -1.19561)
(-0.0237396 0.581529 -1.11255)
(-0.0286273 0.5734 -1.07818)
(0.0124596 0.6013 -1.19427)
(0.00929185 0.597379 -1.18435)
(0.0103545 0.592141 -1.191)
(0.012975 0.5709 -1.19445)
(-0.0247842 0.607283 -1.15299)
(0.000244286 0.624999 -1.19477)
(-0.00591895 0.630376 -1.2098)
(-0.0217199 0.531417 -0.994316)
(0.00387587 0.551254 -1.00025)
(-0.0497457 0.50256 -0.83559)
(-0.0853555 0.500049 -0.794625)
(-0.0906832 0.491805 -0.762384)
(-0.0704219 0.501501 -0.793261)
(0.00472587 0.56229 -0.990059)
(-0.0318876 0.507367 -0.87002)
(-0.0527248 0.493579 -0.798442)
(-0.10599 0.492724 -0.757679)
(-0.0193405 0.58873 -1.01559)
(-0.0502635 0.491474 -0.81649)
(-0.0180444 0.569149 -0.979196)
(-0.0306104 0.207021 -0.278607)
(-0.0270764 0.203891 -0.261914)
(-0.0368973 0.218112 -0.247972)
(-0.0359183 0.222184 -0.266769)
(-0.0204121 0.204606 -0.257145)
(-0.0225499 0.205247 -0.280605)
(-0.0202042 0.209189 -0.164165)
(-0.0267438 0.212365 -0.177887)
(-0.0154466 0.251103 -0.182338)
(-0.0237621 0.232649 -0.181501)
(0.0196176 0.538269 -0.928475)
(0.0121886 0.527429 -0.923311)
(0.0203581 0.582642 -1.02473)
(0.0344949 0.574598 -0.994706)
(0.0235763 0.535208 -0.931303)
(0.043428 0.601106 -1.06874)
(0.0322647 0.556406 -0.987259)
(0.0251983 0.556366 -0.949299)
(0.0452233 0.611728 -1.08968)
(0.0548498 0.607327 -1.05709)
(0.0337141 0.630355 -1.1329)
(0.0289333 0.622557 -1.11279)
(0.0194584 0.596131 -1.04317)
(0.0217541 0.55398 -0.957103)
(0.0299495 0.557799 -0.973487)
(0.0458244 0.624618 -1.10479)
(0.0180223 0.637418 -1.14697)
(0.0154963 0.559845 -0.968976)
(0.0240911 0.580089 -1.0081)
(0.0230903 0.635554 -1.12176)
(0.0314684 0.60965 -1.07607)
(0.00383312 0.639197 -0.299854)
(-0.0156905 0.620712 -0.269951)
(-0.0153231 0.635995 -0.315626)
(-0.0179159 0.623421 -0.276817)
(-0.0183758 0.641742 -0.332321)
(-0.0438884 0.591466 -0.228342)
(-0.0234628 0.633832 -0.296275)
(-0.0182136 0.611722 -0.267239)
(-0.0401903 0.598642 -0.354061)
(-0.0385848 0.599561 -0.367296)
(-0.0365379 0.615744 -0.268521)
(-0.0532018 0.607907 -0.248954)
(-0.067986 0.60109 -0.269525)
(-0.0585609 0.582299 -0.332739)
(-0.067661 0.578808 -0.330597)
(0.00543956 0.264585 -0.52404)
(0.0150855 0.287286 -0.483093)
(0.0344833 0.286753 -0.531645)
(0.00689361 0.259691 -0.536967)
(-0.00979871 0.243242 -0.463738)
(-0.00399792 0.241992 -0.479718)
(-0.0137321 0.244313 -0.556712)
(-0.0427926 0.220585 -0.449898)
(-0.0500164 0.204031 -0.462618)
(-0.033466 0.246727 -0.558098)
(-0.0487128 0.21869 -0.52511)
(-0.0682542 0.250184 -0.58125)
(-0.070271 0.217862 -0.440715)
(-0.0487624 0.231328 -0.440639)
(-0.0678884 0.211121 -0.473913)
(-0.0435394 0.222388 -0.450322)
(-0.0728818 0.233889 -0.5564)
(-0.0749079 0.223672 -0.515494)
(0.056939 0.614994 -1.111)
(0.0415488 0.618542 -1.11301)
(0.0648498 0.630425 -1.14695)
(0.0793681 0.649819 -1.1716)
(0.0360113 0.628358 -1.13223)
(0.00415602 0.618742 -1.12981)
(0.0552536 0.624556 -1.16756)
(0.0552669 0.62282 -1.11987)
(0.00851187 0.633077 -1.2214)
(0.0177661 0.620571 -1.19547)
(0.0334199 0.623579 -1.14277)
(0.0292272 0.637569 -1.19651)
(0.0407174 0.627233 -1.13464)
(0.0456691 0.645783 -1.2163)
(0.0582104 0.62573 -1.13056)
(0.0511178 0.64525 -1.19182)
(-0.0699253 0.41579 -0.697472)
(-0.0614464 0.427987 -0.719811)
(-0.0342312 0.551856 -0.8982)
(-0.0451838 0.541612 -0.887912)
(-0.0537833 0.519079 -0.832328)
(-0.0471382 0.494821 -0.805859)
(-0.05484 0.51733 -0.839546)
(-0.0432063 0.509558 -0.839533)
(-0.0572489 0.487032 -0.787983)
(-0.0668577 0.464312 -0.761867)
(-0.0752223 0.432052 -0.717264)
(-0.0694269 0.410313 -0.710117)
(-0.0796578 0.439826 -0.712156)
(-0.0838621 0.444438 -0.731029)
(-0.0966777 0.390632 -0.66971)
(0.114214 0.583878 -1.04132)
(0.111192 0.556856 -1.03666)
(0.145306 0.58396 -1.08102)
(0.141966 0.60486 -1.1174)
(0.1232 0.541918 -0.994179)
(0.106359 0.530311 -0.923989)
(0.123725 0.550396 -0.995215)
(0.157628 0.589233 -1.04569)
(0.183096 0.539724 -1.02622)
(0.128269 0.570386 -1.0597)
(0.117784 0.614825 -1.12112)
(0.108894 0.623534 -1.14665)
(0.141548 0.538987 -0.992974)
(0.113735 0.507679 -0.913342)
(0.143168 0.529428 -0.986839)
(0.12065 0.565555 -1.01921)
(0.103386 0.520404 -0.927362)
(0.159011 0.56218 -1.01013)
(0.152061 0.577998 -1.02888)
(-0.0151605 0.56911 -0.940335)
(-0.013189 0.56424 -0.953016)
(0.00944664 0.593172 -1.00707)
(-0.0253652 0.614185 -1.01003)
(-0.0182558 0.582204 -0.957489)
(0.00528349 0.626723 -1.06745)
(-0.0323455 0.575134 -1.05509)
(-0.00280937 0.598508 -1.06938)
(0.0207571 0.641571 -1.11194)
(-0.00693112 0.616738 -1.07093)
(-0.0144728 0.618796 -1.05246)
(-0.0116517 0.585733 -1.01721)
(-0.00967946 0.62045 -1.08822)
(-0.0153282 0.608675 -1.09858)
(-0.115456 0.392656 -0.604461)
(-0.0997972 0.425695 -0.632069)
(-0.122313 0.501622 -0.723309)
(-0.102196 0.465278 -0.706263)
(-0.107864 0.464758 -0.67081)
(-0.140141 0.424488 -0.628777)
(-0.125374 0.518872 -0.731056)
(-0.127154 0.35296 -0.528883)
(-0.130254 0.470049 -0.668119)
(-0.280703 0.413128 -0.290333)
(-0.275431 0.421031 -0.286416)
(-0.315626 0.358726 -0.277769)
(-0.316362 0.36526 -0.243361)
(-0.300917 0.377221 -0.253378)
(-0.305368 0.375849 -0.245959)
(-0.329034 0.365229 -0.266147)
(-0.337487 0.369772 -0.295731)
(-0.179177 0.448266 -0.572103)
(-0.197038 0.470814 -0.579395)
(-0.200496 0.454645 -0.528732)
(-0.186985 0.447814 -0.549499)
(-0.263465 0.427151 -0.33647)
(-0.243198 0.413344 -0.402944)
(-0.308254 0.417828 -0.265985)
(-0.32608 0.412607 -0.276493)
(-0.220101 0.434489 -0.477008)
(-0.204354 0.466379 -0.549995)
(-0.283622 0.393579 -0.324421)
(-0.307543 0.366444 -0.304327)
(-0.28608 0.417528 -0.419278)
(-0.262487 0.422739 -0.492296)
(-0.02095 0.592134 -0.235439)
(-0.0457854 0.570574 -0.216086)
(-0.0375057 0.550012 -0.366536)
(-0.0391035 0.613269 -0.353716)
(-0.0280232 0.615131 -0.287914)
(-0.0532028 0.544419 -0.359779)
(-0.0684946 0.482354 -0.360863)
(-0.0325194 0.588301 -0.277653)
(-0.034458 0.599447 -0.2576)
(-0.0428854 0.573547 -0.22059)
(-0.107729 0.561294 -0.242341)
(-0.112017 0.554921 -0.239592)
(-0.124297 0.502951 -0.30004)
(-0.115267 0.527102 -0.296586)
(-0.0973068 0.516338 -0.309788)
(-0.0912592 0.563247 -0.260378)
(-0.0847996 0.568537 -0.229949)
(-0.0464688 0.611718 -0.262221)
(-0.105661 0.561866 -0.254065)
(-0.0630225 0.560156 -0.336713)
(-0.147309 0.422071 -0.679158)
(-0.146568 0.402736 -0.645115)
(-0.156529 0.365932 -0.596153)
(-0.135908 0.395786 -0.64482)
(-0.229491 0.370596 -0.578421)
(-0.190416 0.379384 -0.616157)
(-0.199332 0.353809 -0.583146)
(-0.188039 0.373188 -0.603886)
(-0.255886 0.347958 -0.526393)
(-0.19651 0.381582 -0.611297)
(-0.223805 0.285675 -0.535275)
(-0.250809 0.317288 -0.532793)
(-0.275226 0.293168 -0.504468)
(-0.293079 0.33055 -0.503381)
(-0.295073 0.280857 -0.467226)
(-0.211051 0.364473 -0.57793)
(-0.250816 0.354612 -0.539823)
(-0.0058775 0.576668 -1.02756)
(-0.0101503 0.562189 -1.03159)
(-0.0449588 0.6336 -1.06393)
(-0.0428266 0.62698 -1.04903)
(-0.0295914 0.619055 -1.08914)
(-0.0225548 0.628774 -1.10662)
(0.00974558 0.607707 -1.06551)
(-0.0110432 0.623529 -1.06805)
(-0.0259411 0.592686 -1.09202)
(-0.0149968 0.617478 -1.09539)
(-0.0148888 0.60805 -1.05877)
(-0.0239199 0.579608 -1.04881)
(-0.0312833 0.602382 -1.06165)
(-0.0188769 0.634733 -1.06915)
(-0.0328808 0.640549 -1.07805)
(-0.0446531 0.624364 -1.05237)
(-0.0320688 0.618419 -1.07406)
(-0.0138283 0.613351 -1.09237)
(-0.0204196 0.632334 -1.09499)
(-0.22245 0.476838 -0.388187)
(-0.264545 0.449152 -0.339519)
(-0.229619 0.461163 -0.436811)
(-0.205741 0.476127 -0.474592)
(-0.251425 0.446205 -0.3447)
(-0.19298 0.467604 -0.42525)
(-0.234417 0.474406 -0.341546)
(-0.203069 0.473388 -0.39436)
(-0.190618 0.466675 -0.410735)
(-0.200884 0.645724 -0.961233)
(-0.291641 0.627116 -0.908352)
(-0.288389 0.600082 -0.858105)
(-0.242344 0.61506 -0.892849)
(-0.246107 0.650128 -0.9637)
(-0.239475 0.614285 -0.895685)
(-0.266888 0.609957 -0.890276)
(-0.229163 0.622887 -0.919932)
(-0.25494 0.618434 -0.901189)
(-0.202094 0.661822 -0.992518)
(-0.219476 0.623037 -0.936989)
(0.0188376 0.33589 -0.242402)
(0.026432 0.328255 -0.220117)
(0.0945804 0.370114 -0.250641)
(0.0872038 0.351702 -0.193148)
(0.055504 0.369979 -0.283145)
(0.0738189 0.369389 -0.303639)
(0.0921825 0.617979 -1.12308)
(0.0991987 0.636619 -1.13411)
(0.113993 0.619203 -1.11471)
(0.103256 0.608408 -1.09254)
(0.0546117 0.580436 -1.04086)
(0.0492111 0.595189 -1.08094)
(0.0605842 0.628036 -1.13443)
(0.0330197 0.586615 -1.06306)
(0.0550941 0.568499 -1.04928)
(0.0536664 0.638728 -1.1899)
(0.0716573 0.633039 -1.16992)
(0.0418439 0.620212 -1.14594)
(0.0535016 0.591551 -1.05927)
(0.0837368 0.637363 -1.16502)
(0.0998724 0.638374 -1.16485)
(0.039173 0.595003 -1.1938)
(0.0317639 0.593812 -1.16832)
(0.0422062 0.600263 -1.21965)
(0.0313169 0.58201 -1.15185)
(0.0361026 0.597395 -1.19049)
(0.0399775 0.568729 -1.15071)
(0.042962 0.586079 -1.1989)