/*--------------------------------*- C++ -*----------------------------------*\
| =========                 |                                                 |
| \\      /  F ield         | OpenFOAM: The Open Source CFD Toolbox           |
|  \\    /   O peration     | Version:  v1612+                                |
|   \\  /    A nd           | Web:      www.OpenFOAM.com                      |
|    \\/     M anipulation  |                                                 |
\*---------------------------------------------------------------------------*/
FoamFile
{
    version     2.0;
    format      ascii;
    class       volVectorField;
    location    "100";
    object      wallShearStress;
}
// * * * * * * * * * * * * * * * * * * * * * * * * * * * * * * * * * * * * * //

dimensions      [0 2 -2 0 0 0 0];

internalField   uniform (0 0 0);

boundaryField
{
    WALL
    {
        type            calculated;
        value           nonuniform List<vector> 
1483
(
(0.00519571 -0.000805096 0.00906224)
(0.0044027 -0.000810021 0.00891983)
(0.00435976 -0.0141494 0.00196973)
(0.00324447 -0.0154276 0.00305684)
(-0.00375087 -0.0158783 0.00947711)
(-0.0046726 -0.0166902 0.00866041)
(0.00824326 -0.0138116 0.0195578)
(0.00873283 -0.014199 0.0201108)
(0.00955931 -0.0224654 0.0215832)
(0.00815517 -0.0228524 0.0216457)
(0.00708483 -0.00536067 0.0142192)
(0.00648226 -0.00651376 0.0151768)
(-0.00176359 -0.0137648 0.0213369)
(-0.00275775 -0.0157148 0.024996)
(-0.00774711 -0.015718 0.0064427)
(-0.00689764 -0.0154041 0.0088558)
(-0.00623827 -0.0149167 0.00430267)
(-0.00526149 -0.0137571 0.00332994)
(-0.00545597 -0.0158479 0.00932936)
(-0.00628525 -0.0163541 0.00799274)
(0.00543234 -0.000112777 0.0093217)
(0.00408585 -0.0010616 0.00890704)
(0.00345643 -0.0044797 0.0125965)
(0.00238778 -0.00686499 0.0148222)
(0.00989775 -0.0040509 0.009974)
(0.0103252 -0.00350003 0.0102963)
(0.00539611 -0.00466482 0.0140058)
(0.00483757 -0.00620893 0.0151668)
(0.00355148 -0.00706988 0.00256394)
(0.00433123 -0.0073068 0.00300045)
(0.00422452 -0.00755023 0.00411378)
(0.00470901 -0.00982724 0.000724338)
(0.00465029 -0.00888748 0.00122109)
(0.00851362 -0.00784485 0.00297195)
(0.00643405 -0.00796873 0.00270414)
(0.00926395 -0.00859764 0.00220583)
(0.0106297 -0.00786481 0.00325318)
(0.00125386 -0.0222649 0.021682)
(-0.00047409 -0.0185828 0.0208545)
(0.00165384 -0.0180302 0.0242223)
(0.00315801 -0.0178767 0.0230726)
(0.000107155 -0.0159162 0.0222319)
(-0.000724965 -0.0170039 0.0244261)
(0.00364587 -0.0160915 0.00224946)
(0.00285356 -0.0158687 0.00359969)
(0.011747 -0.000471271 0.00816717)
(0.00983333 1.78501e-05 0.00825867)
(0.00881762 -0.000123363 0.00895831)
(0.00966982 -0.000956266 0.00879985)
(-0.00263629 -0.0157369 0.0134296)
(-0.00299646 -0.015139 0.0141686)
(-0.00158329 -0.0161776 0.011041)
(-0.00186438 -0.0161477 0.0129567)
(0.00322858 -0.0152538 0.0162093)
(0.00348463 -0.0147858 0.0168335)
(0.0105601 -0.0219251 0.0215719)
(0.0121447 -0.0210506 0.0207266)
(0.0199188 -0.0119062 0.0226348)
(7.51489e-05 -0.00827423 0.00154319)
(0.00065723 -0.00833251 0.00144643)
(0.00521819 -0.0028944 0.0113452)
(0.00653522 -0.00190632 0.0103463)
(0.00543135 -0.000937379 0.00916773)
(0.00449879 -0.00196253 0.0103954)
(0.00440686 -0.0172101 0.0127955)
(0.00231776 -0.0168106 0.00980871)
(0.00254404 -0.0221359 0.00716524)
(0.00325521 -0.0210947 0.00949302)
(0.00662182 -0.000516798 0.00862693)
(0.00591415 -0.000493131 0.00917547)
(0.00652942 -0.000500147 0.00960357)
(0.00674601 -0.000773347 0.00933499)
(0.00452193 -0.000653648 0.00859048)
(0.00475541 -0.000523198 0.00889521)
(0.0056417 -0.000336061 0.00909319)
(0.00551407 -0.000523496 0.00926723)
(0.0110352 -0.00308043 0.00887186)
(0.0113382 -0.00341835 0.0081495)
(0.011735 -0.00424043 0.00766846)
(0.0119656 -0.00387818 0.00799804)
(0.0120103 -0.00462751 0.00766125)
(0.0110796 -0.00313338 0.00829753)
(0.0069719 -0.00795457 0.00569768)
(0.00654675 -0.00798697 0.00607854)
(0.00539997 -0.00786331 0.00431729)
(0.00654732 -0.00810536 0.00490024)
(0.0055274 -0.00815717 0.00449121)
(0.00585214 -0.00792283 0.00517541)
(0.0101403 -0.00697866 0.00666912)
(0.0108024 -0.00729252 0.00679739)
(0.00990878 -0.00585022 0.00850459)
(0.0103648 -0.00568092 0.00800461)
(0.0108303 -0.0061527 0.0070416)
(0.00984261 -0.00653337 0.00787717)
(0.00293608 -0.00989245 0.0134487)
(0.00223381 -0.0126349 0.0150403)
(0.00201247 -0.0105276 0.0144493)
(0.00249811 -0.0071097 0.0112925)
(0.00275332 -0.0118337 0.0135393)
(0.00190051 -0.00836775 0.0132029)
(0.00251497 -0.00658297 0.0124991)
(-0.00109956 -0.0252156 0.0257821)
(-0.00157078 -0.025894 0.0266949)
(-0.00223801 -0.0251887 0.0276236)
(-0.00228932 -0.0246123 0.0274545)
(-0.00117186 -0.0250448 0.026243)
(0.00145892 -0.0203299 0.0258759)
(-0.000700682 -0.0183009 0.0261664)
(-0.000268835 -0.0191533 0.0258934)
(0.00142435 -0.0207938 0.0252708)
(0.000807009 -0.0184152 0.024358)
(0.00021988 -0.0206338 0.0271997)
(0.00390844 -0.0145851 0.00148416)
(0.00310338 -0.0151576 0.00192408)
(0.00118763 -0.0169636 0.0034165)
(0.00172165 -0.0159974 0.00355945)
(0.00135427 -0.0154322 0.00244519)
(0.00273177 -0.0155145 0.00273099)
(0.00269633 -0.0160775 0.00286848)
(0.00424916 -0.015851 0.00272626)
(0.00602531 -0.0101246 0.00040649)
(0.00464521 -0.0107948 0.000119258)
(0.00554759 -0.0108643 0.000270123)
(0.00544833 -0.00929904 0.000632218)
(0.0048312 -0.0112925 0.000209047)
(0.00548043 -0.00837112 0.000770062)
(0.00864076 -0.015882 0.0209418)
(0.00970277 -0.0153537 0.0211575)
(0.00481249 -0.0153464 0.0191677)
(0.00547558 -0.0147243 0.0192671)
(0.00640775 -0.0148076 0.0195624)
(0.00791119 -0.0150366 0.0201141)
(0.00583552 -0.012181 0.0131154)
(0.00745184 -0.0142905 0.0141913)
(0.00844857 -0.0171343 0.0152438)
(0.00689756 -0.0158557 0.0155205)
(0.00644525 -0.0128554 0.0135602)
(0.00621545 -0.0138779 0.0145374)
(0.0224065 -0.0153743 0.0218921)
(0.0210928 -0.0155463 0.0194772)
(0.0230444 -0.0147 0.0199502)
(0.0198246 -0.0143445 0.0211842)
(0.0209057 -0.0135711 0.0210755)
(0.0204959 -0.0164355 0.0229858)
(-0.0112444 -0.0114003 0.0063182)
(-0.0116137 -0.0108938 0.00742548)
(-0.011392 -0.0103885 0.0072416)
(-0.0100237 -0.0112081 0.0054904)
(-0.0100368 -0.0111107 0.00553475)
(-0.0107057 -0.0101662 0.00570575)
(-0.00368006 -0.0166319 0.00604748)
(-0.00324908 -0.0176848 0.00625951)
(-0.00259783 -0.0163496 0.00453484)
(-0.00278565 -0.0164449 0.00477642)
(-0.00339002 -0.0175363 0.00925089)
(-0.00421846 -0.0164875 0.0067006)
(-0.00364942 -0.0163596 0.00682106)
(-0.00449654 -0.0164441 0.00960628)
(0.0138192 -0.00923779 0.00318896)
(0.0138811 -0.00909594 0.00302178)
(0.0124499 -0.0108403 0.002804)
(0.0131933 -0.0098443 0.00280499)
(0.0132127 -0.0113487 0.0028217)
(0.0130405 -0.0101109 0.00323643)
(0.0125069 -0.0101417 0.00228025)
(0.0116459 -0.010623 0.00199848)
(0.0118613 -0.0108907 0.00160304)
(0.0109325 -0.0116651 0.00197517)
(0.0122217 -0.0100355 0.00218279)
(0.0107076 -0.0111317 0.00182209)
(0.01417 -0.00871267 0.00339667)
(0.0137343 -0.00912644 0.00293014)
(0.0141541 -0.00744241 0.00412358)
(0.0141013 -0.0077226 0.00415317)
(0.0136831 -0.00831263 0.00350726)
(0.0134267 -0.00907644 0.00298884)
(0.00461411 -0.00102243 0.00949132)
(0.00568301 0.000282821 0.0091504)
(0.00351546 -0.00187452 0.00951936)
(0.00342618 -0.0026144 0.0102377)
(0.00351282 -0.00158892 0.00948856)
(0.0029845 -0.00300274 0.00977148)
(0.00307512 -0.00220253 0.00922145)
(0.00294425 -0.00325044 0.009516)
(0.0209392 -0.0160121 0.0173624)
(0.0199102 -0.0169918 0.018776)
(0.0172133 -0.0151449 0.0155814)
(0.0180167 -0.017114 0.0170888)
(0.021358 -0.0159385 0.0185366)
(0.0189103 -0.0165877 0.016568)
(0.0102 -0.0156798 0.0147076)
(0.00895272 -0.0142365 0.0147626)
(0.00972781 -0.0145601 0.014044)
(0.00842097 -0.0137687 0.0131618)
(0.00754605 -0.0132687 0.0134756)
(0.00733709 -0.0124547 0.0131348)
(-0.00882037 -0.0128246 0.0187054)
(-0.00692313 -0.0126862 0.0181486)
(-0.00752834 -0.0122684 0.0189559)
(-0.00634349 -0.0136334 0.0213461)
(-0.00494307 -0.0137082 0.0212838)
(-0.0062779 -0.0138611 0.0204016)
(-0.00796931 -0.0143038 0.0169657)
(-0.00719302 -0.013484 0.0177138)
(-0.00596205 -0.0138884 0.0174368)
(-0.00681251 -0.0136742 0.0164823)
(-0.00513815 -0.0145296 0.0200425)
(-0.00643354 -0.0142811 0.0196638)
(-0.00915159 -0.0111664 0.0168231)
(-0.0109187 -0.0103048 0.0151264)
(-0.0114945 -0.010856 0.0138877)
(-0.0103383 -0.0108447 0.0167583)
(-0.010012 -0.0121424 0.0165937)
(-0.0107202 -0.0111249 0.0139976)
(-0.00116398 -0.012506 0.00029934)
(-0.000347313 -0.0118764 0.000649382)
(-0.000242992 -0.0110225 0.000758103)
(-0.00185975 -0.0127413 0.00129473)
(-0.00189558 -0.0124828 0.00126328)
(-0.00110702 -0.0114701 0.000762022)
(-0.0107887 -0.0131314 0.012546)
(-0.00970331 -0.0134652 0.0144674)
(-0.00974488 -0.0127146 0.0155011)
(-0.00917271 -0.0127194 0.0155145)
(-0.00981191 -0.0128891 0.0125425)
(-0.0104513 -0.0123325 0.0136821)
(-0.00828384 -0.0129552 0.00446254)
(-0.00897778 -0.0131138 0.005481)
(-0.00982024 -0.0124574 0.00640585)
(-0.00904179 -0.0115057 0.00382241)
(-0.008513 -0.0127052 0.00402881)
(-0.0096978 -0.0127785 0.0066801)
(0.00053884 -0.0071673 0.00197032)
(-0.000425125 -0.00938018 0.00179024)
(0.00015188 -0.00780357 0.00191955)
(0.00077086 -0.0073939 0.00186298)
(0.000472224 -0.00808723 0.00176709)
(0.00181324 -0.00644594 0.00327011)
(0.00225491 -0.00655745 0.00316346)
(0.00117202 -0.00617835 0.00295234)
(-0.00625708 -0.0119487 0.00255002)
(-0.00510988 -0.0117941 0.00224841)
(-0.00499248 -0.0108165 0.00220946)
(-0.00377898 -0.0105697 0.00207518)
(-0.00412666 -0.0117161 0.00200731)
(-0.00592573 -0.0117078 0.00257277)
(0.00279241 -0.0168498 0.00241728)
(0.000827117 -0.0164928 0.00423277)
(0.00168397 -0.0158317 0.00440728)
(0.00214885 -0.016307 0.00288123)
(0.00253813 -0.0166722 0.00424903)
(0.00102914 -0.0170894 0.00484196)
(0.00483934 -0.0161688 -0.000601752)
(0.00560372 -0.0161098 0.00162341)
(0.00572549 -0.015041 -0.000189985)
(0.00412126 -0.0174606 0.000885788)
(0.00413176 -0.0160295 0.00110812)
(0.00594497 -0.0147736 0.000688356)
(0.0130297 -0.0136865 0.0215199)
(0.0162188 -0.0137335 0.021823)
(0.0170973 -0.0131836 0.0224544)
(0.0113598 -0.0135755 0.0204765)
(0.0125813 -0.0130845 0.0214901)
(0.015559 -0.0129536 0.0218175)
(0.00724691 -0.0141085 0.0185922)
(0.011719 -0.0143973 0.0210178)
(0.0216352 -0.0135054 0.0238108)
(0.0168167 -0.0125085 0.0232396)
(0.00347114 -0.0107415 0.012832)
(0.00351088 -0.01063 0.0127058)
(0.0048871 -0.0140841 0.0135401)
(0.00419069 -0.0129639 0.0155575)
(0.00456067 -0.013905 0.0143895)
(0.0210365 -0.0183285 0.0206322)
(0.0182416 -0.0193064 0.0200006)
(0.0180791 -0.0184414 0.0201757)
(0.0189449 -0.0179855 0.0191763)
(0.0200654 -0.0176122 0.02108)
(0.017406 -0.0175476 0.0205726)
(0.0100547 -0.0172757 0.0161339)
(0.0123968 -0.01883 0.0177022)
(0.012533 -0.0206561 0.0189004)
(0.0103131 -0.0191734 0.0170706)
(0.0113952 -0.0173694 0.0159695)
(0.0105989 -0.018809 0.0166412)
(0.0131559 -0.0206002 0.0194201)
(0.0114842 -0.0208476 0.0189323)
(0.0114154 -0.0210413 0.0197118)
(0.0117106 -0.0201945 0.0213908)
(0.01283 -0.0207031 0.0190336)
(0.0110713 -0.019238 0.0177021)
(0.00055082 -0.0160946 0.0123804)
(-0.00041765 -0.0153952 0.0100462)
(-0.000268355 -0.0158665 0.0125072)
(0.0007236 -0.0151632 0.0136914)
(-0.000734227 -0.0157229 0.0103172)
(0.00018468 -0.0168967 0.00643634)
(-0.000363681 -0.0162435 0.0074604)
(-0.000688397 -0.0156253 0.00767473)
(0.000355892 -0.0163448 0.00669862)
(0.000408921 -0.0161605 0.00545628)
(-0.000546147 -0.0157433 0.00704817)
(-0.00203097 -0.0155604 0.0141799)
(-0.002711 -0.0163494 0.0121388)
(-0.000884753 -0.0151717 0.0145752)
(-0.00263981 -0.0160443 0.0112808)
(0.014023 -0.016106 0.0225488)
(0.0172088 -0.0153242 0.0211813)
(0.0122672 -0.015348 0.0214451)
(0.015688 -0.0158361 0.022234)
(0.0160442 -0.0161534 0.021375)
(0.0132427 -0.0145226 0.0215962)
(0.0121875 -0.0171395 0.0216855)
(0.0131127 -0.017438 0.0213157)
(0.0157475 -0.0177375 0.0219389)
(0.0140103 -0.0170512 0.0221212)
(0.0148363 -0.0186818 0.0218113)
(0.0152308 -0.0175941 0.0209612)
(0.00886335 -0.016082 0.0208235)
(0.00796466 -0.0167951 0.0216601)
(0.00697331 -0.0151384 0.0198796)
(0.00658289 -0.0165721 0.0214305)
(0.0106283 -0.017144 0.0216293)
(0.00905936 -0.000454858 0.00854537)
(0.011031 -0.00111617 0.0081106)
(0.0106211 -0.000585141 0.00808106)
(0.0113031 -0.00100692 0.00777841)
(0.00999305 -0.000436233 0.00897499)
(0.0064101 0.000354 0.00912403)
(0.00820873 0.000280279 0.00928416)
(0.00702967 -2.18189e-05 0.00903701)
(0.00624441 -0.0150455 0.00187451)
(0.00791231 -0.0143881 0.00246813)
(0.00728903 -0.0146371 0.00240142)
(0.00610669 -0.0145427 0.0023456)
(0.00764649 -0.0137852 0.00183408)
(0.00737848 -0.014997 0.00156244)
(0.00779269 -0.0137456 0.00180034)
(0.00886737 -0.0135053 0.00187713)
(0.00956838 -0.0128236 0.00124441)
(0.00703868 -0.0126418 0.00162742)
(0.00945125 -0.0127432 0.0014193)
(0.00892342 -0.0137195 0.00198709)
(0.0146357 -0.00584144 0.00495881)
(0.0144978 -0.00448167 0.00484309)
(0.0144177 -0.0035188 0.00637132)
(0.0147969 -0.00571113 0.00515106)
(0.0141617 -0.00470397 0.0050095)
(0.0147522 -0.00395261 0.00581312)
(0.0144558 -0.00402336 0.00608483)
(0.0139357 -0.00228097 0.00731388)
(0.0128745 -0.001468 0.00753648)
(0.0101406 -0.012191 0.001843)
(0.0113763 -0.012333 0.00282029)
(0.0106096 -0.0128597 0.00209221)
(0.0113084 -0.0124551 0.00304766)
(0.00961358 -0.0133259 0.00245632)
(0.00988393 -0.0134 0.00203443)
(-0.00140249 -0.0161511 0.00422462)
(-0.000592003 -0.0156391 0.00377348)
(-0.00189662 -0.0162109 0.00488017)
(-0.00129744 -0.0163929 0.00497426)
(-0.000206357 -0.0156332 0.00282319)
(-0.000529126 -0.0169787 0.00410567)
(0.0045396 -0.0140883 0.00130078)
(0.00529646 -0.0129006 0.000841905)
(0.00352113 -0.0130285 0.000467674)
(0.00529615 -0.0122941 0.000454704)
(0.00354297 -0.0135559 0.000673593)
(0.00423705 -0.0123536 0.000299995)
(-0.0021113 -0.0154878 0.024188)
(-0.00386132 -0.0142059 0.0226206)
(-0.00316517 -0.0144365 0.0223873)
(-0.00305577 -0.0143609 0.022981)
(-0.000875125 -0.0160471 0.0233488)
(-0.00181069 -0.0166063 0.0246746)
(0.00159915 -0.0236226 0.025674)
(7.5728e-05 -0.0230713 0.028539)
(0.000972655 -0.0256083 0.0254491)
(-0.000578436 -0.0259186 0.0291117)
(0.00187609 -0.0248494 0.0257921)
(-6.00833e-05 -0.023034 0.0266056)
(-0.00259883 -0.0156009 0.0223632)
(0.0017199 -0.0180173 0.024223)
(-0.00131208 -0.0161502 0.0233374)
(-0.00313767 -0.0151244 0.0220502)
(-0.000825867 -0.0168112 0.0236224)
(-0.00191394 -0.0148866 0.0221515)
(0.00524337 -0.0203309 0.0236631)
(0.00503571 -0.0194176 0.023425)
(0.000799887 -0.0167064 0.0227688)
(0.00267686 -0.0183522 0.0237023)
(0.00369358 -0.0178986 0.0228354)
(0.00330423 -0.0204911 0.0255138)
(0.00713711 -0.0209335 0.0218919)
(0.00714231 -0.0215571 0.0236885)
(0.00896929 -0.0212897 0.0213173)
(0.00806242 -0.0218677 0.0214561)
(0.00763472 -0.0227676 0.0232178)
(0.0080886 -0.0212831 0.0226189)
(0.00879093 -0.0220476 0.0201315)
(0.00879082 -0.0225175 0.0227817)
(0.00189055 -0.020536 0.0196553)
(0.00175311 -0.0169434 0.0173327)
(0.000853519 -0.0164528 0.0193367)
(0.00130179 -0.0140247 0.0165597)
(0.00143967 -0.0141448 0.0154583)
(0.000904002 -0.019389 0.0203931)
(0.00678135 -0.00908165 0.0012002)
(0.00773842 -0.00836661 0.00204684)
(0.00755413 -0.00872041 0.00123828)
(0.00738766 -0.00817934 0.00236993)
(0.00645371 -0.0078322 0.00149859)
(0.00611773 -0.00825831 0.00137248)
(0.0102571 -0.00806386 0.00221274)
(0.0104158 -0.00819899 0.00221695)
(0.010097 -0.00892521 0.0020105)
(0.00915022 -0.00929622 0.00156428)
(0.00883654 -0.00902767 0.00173139)
(0.00862404 -0.00810106 0.00235594)
(0.00817965 -0.0065315 0.0132086)
(0.00817962 -0.00693431 0.0124329)
(0.00913413 -0.00647056 0.00922795)
(0.0097041 -0.00600191 0.0104624)
(0.00859346 -0.00580786 0.0113595)
(0.00869045 -0.00665817 0.0105948)
(0.0106487 -0.0079982 0.00456251)
(0.0112839 -0.00730018 0.00490003)
(0.00948156 -0.00798556 0.00437243)
(0.0113526 -0.00722008 0.00526677)
(0.00984551 -0.00778679 0.00496167)
(0.0112052 -0.00712942 0.00657413)
(0.01107 -0.00677785 0.00581261)
(0.00249933 -0.0069435 0.00228325)
(0.00242708 -0.00684661 0.00230886)
(0.00312926 -0.00681961 0.00212653)
(0.00292842 -0.00694484 0.00261337)
(0.00406168 -0.00771624 0.00363668)
(0.00367654 -0.00697003 0.00250803)
(0.00903768 -0.00842779 0.00540214)
(0.00813111 -0.00791741 0.00358592)
(0.00813001 -0.0082217 0.0048242)
(0.00976843 -0.00765318 0.00437593)
(0.00783746 -0.00821098 0.00385822)
(0.00953621 -0.00742845 0.00591902)
(0.00820878 -0.00769892 0.00620655)
(0.00776536 -0.00791468 0.00558436)
(0.00903916 -0.00730071 0.00738611)
(0.00861127 -0.00799548 0.0053551)
(0.00885078 -0.00765877 0.00785109)
(0.00557558 -0.00763049 0.00310362)
(0.00424788 -0.00741564 0.00232809)
(0.00512488 -0.00750698 0.0025208)
(0.00603226 -0.007899 0.00301966)
(0.00427916 -0.00751406 0.00232046)
(0.00462053 -0.00734064 0.00271913)
(0.00315915 -0.00804926 0.00128826)
(0.00321592 -0.00752815 0.00194226)
(0.00304205 -0.00734756 0.00219697)
(0.00276042 -0.00857039 0.00122226)
(0.00240781 -0.00793269 0.00162128)
(0.00257429 -0.00714525 0.00158523)
(0.0120431 -0.00617565 0.00506878)
(0.0113876 -0.00612126 0.0062126)
(0.0117619 -0.00509307 0.00610074)
(0.0121906 -0.00586112 0.00640971)
(0.0122547 -0.00687254 0.0054705)
(0.0110179 -0.00457306 0.00851129)
(0.0115424 -0.00485078 0.00742235)
(0.0105765 -0.00476486 0.00785259)
(0.0111621 -0.00538984 0.00734314)
(0.0107395 -0.00433444 0.00883738)
(0.0112387 -0.00556334 0.00720578)
(0.000920243 -0.00946715 0.0181489)
(0.00145832 -0.00965779 0.0192436)
(0.000407947 -0.0108715 0.0207165)
(0.0032286 -0.00740137 0.0178914)
(0.00245814 -0.00861254 0.0189253)
(0.00536718 -0.0066325 0.0155151)
(0.00498092 -0.00785751 0.0183769)
(0.00292896 -0.00946033 0.0199788)
(0.0055431 -0.00642915 0.0157737)
(0.00725374 -0.00575724 0.0134873)
(0.00452529 -0.00724391 0.0175318)
(0.00228513 -0.0092097 0.0198967)
(0.00357341 -0.00735277 0.0173152)
(0.00884769 -0.00485866 0.0112171)
(0.00975994 -0.00527132 0.0106486)
(0.00987843 -0.0049246 0.0096901)
(0.00864692 -0.00420501 0.0109544)
(0.00866768 -0.00470737 0.0121742)
(0.00142269 -0.00924187 0.0134634)
(0.00182303 -0.00779158 0.0136529)
(0.00195779 -0.00661962 0.0123132)
(0.00171917 -0.00931873 0.0143738)
(0.0017146 -0.00830168 0.0134512)
(-2.62677e-05 -0.0122697 0.0196704)
(-0.000489267 -0.0142567 0.0204397)
(0.000347916 -0.0114145 0.0195658)
(-0.000655798 -0.0132083 0.0226667)
(-0.00164225 -0.0150232 0.0225231)
(-0.00225717 -0.0174334 0.0237951)
(0.00539587 -0.000719366 0.00916906)
(0.00610864 -0.00115099 0.00960641)
(0.00482656 -0.000864531 0.00948985)
(0.00469115 -0.00158418 0.0095013)
(0.00595794 -0.000500746 0.00896193)
(0.00415724 -0.00146521 0.00944058)
(0.00267128 -0.00558947 0.0128266)
(0.00224714 -0.00634221 0.0133212)
(0.00387458 -0.00353522 0.0115842)
(0.00394999 -0.00421373 0.0125758)
(0.00337556 -0.0039818 0.0117734)
(0.00286063 -0.005105 0.0125747)
(0.00652315 -0.00287957 0.0115698)
(0.00690468 -0.00234543 0.0107137)
(0.00540282 -0.00357246 0.012155)
(0.00477943 -0.0035889 0.0122273)
(0.00628232 -0.00242646 0.0112056)
(0.00473868 -0.00297226 0.0115014)
(0.00874316 -0.00106482 0.00956344)
(0.00918293 -0.00110603 0.00921902)
(0.00789117 -0.000194013 0.00917994)
(0.00729016 -0.000422108 0.00931451)
(0.00810449 -0.00086081 0.00968246)
(0.00915394 -0.0012062 0.00892188)
(-0.000918944 -0.0131733 0.0225414)
(-0.00251497 -0.0145485 0.0215796)
(0.000839125 -0.0108417 0.0215481)
(0.000360166 -0.0107257 0.0205692)
(0.00676159 -0.0227448 0.0200592)
(0.00752989 -0.0229257 0.0201788)
(0.00759511 -0.022945 0.0208902)
(0.00709427 -0.023744 0.0224589)
(0.00656304 -0.0241289 0.0217811)
(0.00647154 -0.0222365 0.019905)
(0.00282725 -0.00372843 0.0101095)
(0.00298052 -0.00253738 0.00920326)
(0.00307662 -0.00345738 0.0104967)
(0.00335133 -0.00149681 0.00890129)
(0.00382317 -0.00189677 0.00923559)
(0.00341364 -0.00266639 0.00978018)
(0.00509148 -0.0134759 0.0152425)
(0.00509495 -0.0140759 0.0155007)
(0.0018031 -0.0160452 0.010925)
(0.0040258 -0.014831 0.0133852)
(0.00233522 -0.0165375 0.0118625)
(0.00284625 -0.0146824 0.0130081)
(-0.0090643 -0.0113455 0.0197013)
(-0.00713666 -0.0126702 0.0217679)
(-0.00746668 -0.011599 0.019407)
(-0.00844332 -0.0108844 0.0196764)
(-0.00574586 -0.0127166 0.0220509)
(-0.00689968 -0.0118287 0.0215609)
(0.000473168 -0.0119363 0.000289233)
(0.000324793 -0.0117396 0.000668878)
(0.0013913 -0.0111092 4.43265e-05)
(0.00183307 -0.0101294 0.000409089)
(0.00156145 -0.00928305 0.000840017)
(0.00100627 -0.0099499 0.000612375)
(-0.00575556 -0.0155045 0.0145008)
(-0.0052179 -0.0149054 0.0113875)
(-0.0049006 -0.0159927 0.013623)
(-0.00601841 -0.0155497 0.0134994)
(-0.00462752 -0.0151869 0.0143749)
(-0.00605177 -0.0153116 0.0117175)
(-0.00481327 -0.0153059 0.00349854)
(-0.00564888 -0.0140629 0.00429502)
(-0.00449559 -0.0144225 0.0038331)
(-0.00570217 -0.0163532 0.00501263)
(-0.00768614 -0.0156736 0.00853167)
(-0.00707139 -0.0154189 0.00511912)
(-0.00662866 -0.0161565 0.00757193)
(-0.00629818 -0.0150119 0.0050428)
(-0.00795128 -0.0137924 0.0134648)
(-0.00937507 -0.0141576 0.0134583)
(-0.00972231 -0.0140618 0.0118158)
(-0.0083677 -0.0149209 0.0126679)
(-0.00960403 -0.0141588 0.00987457)
(-0.00879531 -0.0140142 0.0099396)
(-0.00836339 -0.0143915 0.00727677)
(-0.00771155 -0.0152195 0.00622759)
(-0.00900977 -0.0153526 0.00945633)
(-0.00650599 -0.0156869 0.0135126)
(-0.00770852 -0.0146843 0.012775)
(-0.00606379 -0.0152192 0.0106041)
(-0.00518813 -0.0162254 0.0111095)
(-0.0050258 -0.0170796 0.00847574)
(-0.00489224 -0.0154475 0.00526795)
(-0.00570228 -0.0157598 0.00935458)
(-0.00579569 -0.0163776 0.00630693)
(0.000942586 -0.00950903 0.00126493)
(0.00121096 -0.00829366 0.00137861)
(-0.0107341 -0.0101444 0.01786)
(-0.0104375 -0.00986693 0.0168523)
(-0.00983892 -0.0104278 0.0197541)
(-0.00948689 -0.0103835 0.0172176)
(-0.0029898 -0.0163656 0.0262769)
(-0.00329536 -0.0148432 0.0250247)
(-0.00445735 -0.0138042 0.0241788)
(-0.00569614 -0.0117698 0.0215805)
(-0.00480751 -0.0130881 0.0233642)
(0.00203773 -0.0198351 0.00351748)
(0.00199955 -0.0174125 0.00431088)
(0.000738932 -0.0173741 0.00570427)
(0.00156351 -0.0171137 0.00873067)
(0.00543008 -0.0157632 0.0155735)
(0.00265362 -0.0207747 0.00342494)
(0.00250995 -0.0185742 0.00526189)
(0.00370119 -0.00217319 0.0103494)
(0.00364204 -0.00202369 0.0106189)
(0.00369491 -0.00107542 0.00878057)
(0.00356441 -0.000889482 0.00903468)
(0.0028333 -0.00252167 0.00934246)
(0.00636828 -0.000210086 0.00916353)
(0.00579249 -0.000425629 0.00944492)
(0.00729584 -0.000608837 0.00895869)
(0.00684695 -0.0228717 0.0227889)
(0.00690301 -0.0215529 0.0213465)
(0.00595777 -0.0216986 0.0195431)
(0.00340643 -0.0229718 0.0212438)
(0.00535951 -0.0221298 0.0198393)
(0.00403098 -0.0190208 0.0176119)
(0.00498583 -0.0207737 0.0187505)
(0.00455595 -0.0218956 0.0206112)
(0.00381143 -0.0206455 0.0195823)
(-0.00243485 -0.0170497 0.0271362)
(0.00342195 -0.0033203 0.011309)
(0.0032778 -0.002864 0.0103451)
(0.00371633 -0.00263134 0.0103742)
(0.00361506 -0.00212845 0.00978246)
(0.00715831 -0.000635682 0.00950472)
(0.00263074 -0.00417911 0.0110279)
(0.00281592 -0.00393932 0.0108199)
(-0.00301463 -0.0171688 0.0246928)
(0.00254236 -0.00510704 0.0115916)
(0.00276739 -0.00439678 0.0114006)
(0.00241967 -0.00576583 0.0125275)
(0.00217773 -0.00675128 0.0125403)
(0.00785193 -0.00239699 0.0104993)
(0.00403464 -0.00509941 0.0138452)
(0.00532781 -0.00421006 0.0135867)
(0.0070471 -0.00356419 0.0116975)
(0.00753788 -0.00467772 0.0125985)
(0.00425408 -0.00544162 0.0145862)
(0.00257367 -0.00763888 0.0159937)
(0.00149586 -0.00954029 0.0188789)
(-6.24338e-05 -0.0109605 0.0202341)
(0.00413817 -0.00684877 0.016289)
(0.0103683 -0.00390246 0.0095884)
(0.00890821 -0.00335902 0.0108704)
(0.0084854 -0.00229419 0.00981702)
(0.00821619 -0.00290157 0.0107391)
(0.00819761 -0.00392125 0.011682)
(0.0122676 -0.00538571 0.00626645)
(0.00945978 -0.00161251 0.00886014)
(0.0124987 -0.00451793 0.0068383)
(0.0103876 -0.00204225 0.00870447)
(-0.00412456 -0.0192905 0.0270943)
(-0.003412 -0.0170858 0.0227186)
(-0.00233815 -0.0186636 0.0236409)
(-0.0039122 -0.0197012 0.0244837)
(-0.00374148 -0.0224428 0.0262557)
(-0.00361484 -0.0245685 0.0285156)
(-0.00340366 -0.0219316 0.0235532)
(0.00171865 -0.00791721 0.00153663)
(0.00188295 -0.00822812 0.00121434)
(0.0017116 -0.00706235 0.00210136)
(0.00190256 -0.00737237 0.00183513)
(0.00694063 -0.00781863 0.00707416)
(0.00624839 -0.00795973 0.00747462)
(0.00630519 -0.00772302 0.00853506)
(0.00782957 -0.00783198 0.00654196)
(0.00679337 -0.00791912 0.00982313)
(0.00790744 -0.00747328 0.00736824)
(0.00755584 -0.00776669 0.00790083)
(0.00675879 -0.00749867 0.00927419)
(0.00723675 -0.00775838 0.0106543)
(0.00656985 -0.00807 0.00467704)
(0.00619353 -0.00773461 0.00344389)
(0.00500097 -0.00773976 0.00355747)
(0.00295333 -0.0072219 0.00343907)
(0.00564582 -0.00768655 0.00639271)
(0.00415641 -0.00748011 0.00424884)
(0.0046325 -0.0077659 0.00489772)
(0.00546036 -0.00776767 0.00536103)
(0.00328011 -0.00731951 0.00388727)
(0.00387719 -0.00728319 0.00363889)
(0.00481552 -0.00752829 0.00321737)
(0.00306709 -0.00711929 0.00354732)
(0.00269104 -0.00671007 0.0029336)
(0.00513982 -0.00832267 0.00115813)
(0.00529661 -0.00810022 0.00200595)
(0.00511395 -0.00797124 0.0022126)
(0.0037952 -0.0072179 0.00185088)
(0.00354328 -0.00828469 0.000822122)
(0.00410166 -0.00824871 0.00165489)
(0.00438814 -0.00766647 0.00153358)
(0.00536791 -0.00768274 0.00252881)
(0.00708742 -0.00809356 0.00392598)
(0.00618311 -0.0078695 0.00359544)
(0.00661579 -0.00804829 0.00353939)
(0.0081359 -0.00818159 0.0044634)
(0.00998038 -0.00744047 0.00564611)
(0.00711647 -0.00780796 0.00341239)
(0.00377625 -0.00737007 0.00374626)
(0.00301445 -0.00667107 0.00273931)
(0.00194013 -0.00669141 0.00211797)
(0.00252168 -0.00665631 0.00280067)
(0.00504655 -0.00744175 0.00297315)
(0.00229356 -0.00705744 0.00183235)
(0.00341509 -0.00722766 0.00222364)
(0.0114925 -0.00629956 0.00668322)
(0.0114615 -0.00717392 0.0048196)
(0.00734001 -0.00799538 0.00322661)
(0.00734571 -0.00742506 0.0100941)
(0.00830404 -0.00754568 0.00855978)
(0.00904753 -0.0068049 0.00802567)
(0.00938769 -0.00703279 0.00867928)
(0.0082473 -0.0070022 0.0100236)
(0.00792513 -0.00689734 0.0102993)
(0.00852601 -0.00541651 0.0123398)
(0.0124235 -0.00609083 0.00538836)
(0.0118456 -0.00705972 0.00521036)
(0.0123565 -0.00693534 0.0048668)
(0.0115575 -0.00813548 0.00320044)
(0.0107066 -0.00788451 0.00359464)
(0.0123362 -0.00746865 0.0037247)
(0.0118388 -0.00693725 0.00335179)
(0.00811715 -0.00922233 0.00119049)
(0.00662075 -0.00805 0.00263499)
(0.00586912 -0.00762841 0.00176981)
(0.00647319 -0.00776976 0.0124435)
(-0.00128478 -0.0180526 0.0254827)
(0.00448734 -0.0171561 0.0164165)
(0.00345039 -0.0170379 0.0178184)
(0.00241694 -0.0196625 0.0201384)
(0.00628132 -0.0201364 0.0176584)
(0.00545288 -0.0187928 0.016962)
(0.00757095 -0.02121 0.0187535)
(0.00725145 -0.020963 0.0180115)
(0.00158673 -0.0133722 0.0164818)
(0.0012039 -0.011142 0.0147775)
(0.00037108 -0.0155887 0.0190952)
(0.00853935 -0.0220137 0.0196141)
(0.00964377 -0.0213576 0.0202407)
(0.00332053 -0.0233504 0.0217367)
(0.00408279 -0.0235396 0.0249561)
(0.00301902 -0.0243708 0.0258645)
(0.00258078 -0.0244697 0.0230756)
(-0.000420123 -0.0193191 0.0202136)
(-0.00222596 -0.0213819 0.0241431)
(-0.000827709 -0.0178908 0.0219226)
(-0.000144754 -0.0233434 0.0248734)
(-0.0016329 -0.0252365 0.0262139)
(-0.00196003 -0.0224242 0.0248904)
(0.000633831 -0.024673 0.0236955)
(0.00246547 -0.0224145 0.0214038)
(0.00192039 -0.0247832 0.024293)
(0.00034375 -0.0225472 0.0223685)
(0.00593716 -0.0229236 0.0241718)
(0.00625922 -0.0214895 0.0235364)
(0.00613776 -0.0193005 0.022375)
(0.00258403 -0.0245346 0.0282711)
(0.00426457 -0.0239833 0.0258295)
(-0.00283075 -0.0149356 0.0216004)
(-0.0011844 -0.0151229 0.0203488)
(-0.0016974 -0.0150062 0.0205532)
(-0.000614752 -0.0150758 0.0210214)
(0.00181549 -0.0161137 0.0213054)
(7.18679e-05 -0.0160114 0.022218)
(0.000487914 -0.0168878 0.0225364)
(0.00224827 -0.0206717 0.024584)
(0.0015648 -0.0216652 0.0276727)
(0.00468061 -0.0231299 0.0261229)
(0.00475031 -0.0212536 0.0222758)
(0.00334958 -0.0211223 0.0248934)
(0.0042236 -0.0215119 0.0240825)
(0.00389976 -0.0195279 0.0231893)
(0.00370716 -0.0198155 0.023792)
(0.00174659 -0.0259132 0.0248082)
(-0.000264225 -0.0248862 0.0282091)
(0.000996917 -0.0239496 0.0225428)
(0.00250001 -0.0232916 0.0250073)
(0.0019654 -0.0227292 0.0262384)
(0.00277792 -0.0256092 0.0264099)
(0.002276 -0.0235643 0.0237479)
(-0.00091809 -0.0234719 0.0269056)
(-0.000931887 -0.0235887 0.0252092)
(-0.00115169 -0.0237141 0.0273179)
(0.000254706 -0.021601 0.026713)
(-0.00084785 -0.0212718 0.0282947)
(-0.000283042 -0.0229397 0.0271948)
(-0.000784392 -0.0206235 0.0262822)
(-0.00473753 -0.0143638 0.024002)
(-0.0038512 -0.0136089 0.0229109)
(0.00106522 -0.0185626 0.0246276)
(0.000355919 -0.0184911 0.0252971)
(6.77061e-05 -0.018501 0.0256792)
(0.00208688 -0.0182862 0.0236893)
(-0.00512161 -0.0130287 0.0211596)
(-0.00434294 -0.0148486 0.0231599)
(0.000233295 -0.0172164 0.00595486)
(0.000356411 -0.0168577 0.00551452)
(0.00177529 -0.0164145 0.00532945)
(0.00396712 -0.0165955 0.00370765)
(0.0060379 -0.0144708 0.00135397)
(0.00588104 -0.0141145 0.00151255)
(0.00567631 -0.0159662 0.00287453)
(0.00479638 -0.0160577 0.0020405)
(-0.000329008 -0.015254 0.00285861)
(0.000582093 -0.0159516 0.00259387)
(-0.0018461 -0.0168931 0.00437501)
(-0.00111845 -0.0164217 0.00324011)
(0.00615351 -0.0142075 0.00108356)
(0.00709872 -0.0147997 0.00189032)
(0.00622161 -0.0133912 0.00206408)
(0.00703207 -0.0125481 0.00132063)
(0.00544375 -0.0131146 0.000816315)
(0.0025287 -0.00975687 0.000943002)
(0.00142841 -0.0123782 0.000531508)
(0.006261 -0.0130144 0.000813172)
(0.00731614 -0.0128483 0.000640848)
(0.00634589 -0.0131495 0.000752403)
(0.0010655 -0.0151441 0.0013962)
(0.000821685 -0.0150042 0.00131338)
(0.00181945 -0.0148314 0.00122983)
(0.0025203 -0.0133313 0.000965739)
(0.00257611 -0.0128037 0.00110336)
(0.00181251 -0.0138351 0.000557294)
(0.00189099 -0.0139255 0.000692517)
(0.00225139 -0.0125714 0.000707261)
(0.002293 -0.011868 0.000413218)
(0.00269458 -0.0101649 0.000495832)