/*--------------------------------*- C++ -*----------------------------------*\
| =========                 |                                                 |
| \\      /  F ield         | OpenFOAM: The Open Source CFD Toolbox           |
|  \\    /   O peration     | Version:  v1612+                                |
|   \\  /    A nd           | Web:      www.OpenFOAM.com                      |
|    \\/     M anipulation  |                                                 |
\*---------------------------------------------------------------------------*/
FoamFile
{
    version     2.0;
    format      ascii;
    class       volScalarField;
    location    "150";
    object      p;
}
// * * * * * * * * * * * * * * * * * * * * * * * * * * * * * * * * * * * * * //

dimensions      [0 2 -2 0 0 0 0];

internalField   nonuniform List<scalar> 
17016
(
3.95865
3.96909
3.9695
3.96771
3.9684
3.97247
3.97222
3.97197
3.97143
3.97307
3.96906
3.96599
3.97238
3.97289
3.97275
3.96665
3.97172
3.97065
3.96478
3.96539
3.96197
4.13192
4.12988
4.13523
4.14154
4.13908
4.12928
4.13058
4.13845
4.14098
4.13316
4.13662
4.13932
4.13795
4.1361
4.02788
4.03496
4.03133
4.03172
4.03318
4.02619
4.02745
4.02534
4.02875
4.0318
4.03261
4.02726
4.02294
4.03178
4.02709
4.02322
3.95355
3.95509
3.95429
3.95263
3.95259
3.95169
3.95171
3.95645
3.95044
3.95008
3.95195
3.95799
3.96089
3.95456
3.95122
4.00455
4.00156
4.00531
4.00529
4.00144
4.00003
3.99416
3.99984
3.99916
3.99991
4.00356
4.00545
4.00304
4.00375
3.9994
3.99951
4.00601
4.00737
4.00409
4.00003
4.12337
4.12301
4.11344
4.11397
4.1285
4.13043
4.12676
4.11547
4.11865
4.12433
4.12096
4.11301
4.10741
4.11441
4.11361
4.1257
4.13074
4.10794
4.11278
4.11193
4.12026
3.98989
3.98943
3.99041
3.9856
3.99252
3.99047
3.99226
3.99309
3.99277
3.99104
3.99382
3.99253
3.99578
3.9916
3.98853
3.99556
3.99589
3.95136
3.95375
3.95098
3.9635
3.96255
3.95221
3.95622
3.96008
3.95958
3.95523
3.95747
3.96162
3.96265
3.95938
3.96435
3.96257
3.96515
3.9647
3.95313
3.95701
3.95262
3.96245
4.125
4.12225
4.12803
4.13051
4.11776
4.1233
4.12763
4.13125
4.1227
4.12758
3.98271
3.98582
3.98554
3.98537
3.98489
3.9828
3.98299
3.98347
3.98333
3.97857
3.97578
3.97732
3.97825
3.97569
3.97781
3.97198
3.97106
3.97083
3.97085
3.98069
3.98042
3.96878
3.97399
3.97402
3.97387
4.12715
4.12532
4.13059
4.13008
4.12375
4.11603
4.12314
4.11518
4.11588
4.11084
4.11255
4.10499
4.1173
4.11321
4.10253
4.10988
4.12467
4.12427
4.11339
4.10583
4.11075
4.1138
4.06341
4.06099
4.0605
4.05659
4.06106
4.05793
4.05691
4.05075
4.0509
4.05625
4.05237
4.06001
4.04767
4.04885
4.05175
4.05685
4.04648
4.04539
3.95989
3.96928
3.96788
3.96236
3.96048
3.95576
3.95888
3.96096
3.96364
3.95861
3.96097
3.96266
3.96372
3.96246
3.95529
4.15438
4.17798
4.16545
4.18415
4.18126
4.15401
4.1542
4.16163
4.169
4.16046
4.1606
4.15753
4.15996
4.15884
4.1635
4.16732
4.13655
4.1307
4.14046
4.14325
4.15658
4.11754
4.13769
4.11934
4.01145
4.0157
4.01268
4.01239
4.00811
4.00737
4.00854
4.01408
4.01479
4.01542
4.01321
4.0122
4.01146
3.95568
3.95451
3.95423
3.95591
3.95621
3.95395
3.95079
3.95387
3.95427
3.95616
3.96247
3.96003
3.95765
3.95715
3.95983
3.95291
3.95466
3.96384
3.94829
3.9477
3.94908
3.94843
3.94657
3.9508
3.94997
4.02825
4.02947
4.02889
4.02948
4.02959
4.02724
4.02959
4.02378
4.03558
4.03799
4.02631
4.02509
4.02612
4.03397
4.0299
4.02595
4.0277
4.02946
4.03329
4.03163
4.02977
4.03046
4.03531
4.0318
4.02829
3.97279
3.96952
3.96571
3.96571
3.96966
3.97412
3.96656
3.96616
3.96565
3.96686
3.96463
3.96636
3.97103
3.97363
3.97254
3.97105
3.97348
3.97257
3.97242
3.97554
3.97606
3.97424
3.97969
3.98215
3.97781
3.98122
3.98189
3.97065
3.9748
3.97458
3.97067
3.97234
3.97168
3.96956
3.96754
3.9662
3.96771
3.97442
3.97391
3.96799
3.97363
3.95887
3.96566
3.96728
3.96642
3.97174
4.05847
4.05319
4.0487
4.04992
4.06005
4.06322
4.05219
4.04564
4.06132
4.06331
4.05883
4.0569
4.04685
4.05227
4.05746
3.95427
3.94901
3.95342
3.94898
3.94842
3.9539
3.95088
3.95829
3.9593
3.95937
3.95873
3.9482
3.94925
3.95413
3.95708
3.95747
3.95155
3.95242
3.95415
3.9888
3.99375
3.99769
3.99311
3.98839
3.98772
3.99365
3.99046
3.99021
3.99365
3.99763
3.99473
3.99459
3.99665
4.071
4.06854
4.08677
4.08598
4.0631
4.06791
4.07397
4.08878
4.08621
4.0593
4.06723
4.06556
4.06137
4.06917
4.07145
4.07506
4.05887
4.06343
4.06205
4.06619
4.06373
4.07859
4.08205
4.07337
4.22862
4.22688
4.19128
4.1872
4.17977
4.18653
4.23125
4.23629
4.201
4.18427
4.18115
4.19354
4.18329
4.1842
4.23215
4.19041
4.19809
4.19978
4.22457
4.22134
4.07945
4.07817
4.08297
4.07902
4.07395
4.07079
4.07103
4.078
4.06656
4.06957
4.08408
4.07962
4.07353
4.07378
4.06714
4.0706
4.06908
4.06654
4.08113
4.06886
4.06809
4.00431
4.00764
4.00272
4.00738
4.0083
4.00435
4.00963
4.00717
4.01177
4.00843
4.01159
4.01249
4.01269
4.0143
4.01282
4.01559
4.01509
3.97736
3.97897
3.97366
3.97009
3.98176
3.96917
3.9739
3.97386
3.97252
3.97477
3.97054
3.96617
3.96757
3.97668
3.96921
3.97316
3.9709
3.97673
3.96794
3.9757
3.97621
3.97678
3.97727
3.96645
3.96768
3.96586
3.96396
3.96423
3.96474
3.97808
3.97136
3.97579
3.97778
3.9758
3.9664
3.96805
3.96474
3.96958
3.96642
3.97292
3.97544
3.97733
3.98005
3.98131
3.9819
3.98387
3.98021
3.98087
3.98414
3.98293
3.98084
3.98609
3.98369
3.98056
3.98715
3.98994
3.98771
3.98308
3.98536
3.99092
3.98966
3.96585
3.96346
3.96668
3.96666
3.96728
3.96392
3.96461
3.96304
3.96248
3.96842
3.97064
3.96648
3.96438
3.96555
3.96635
3.96717
3.96893
3.96842
3.9668
3.96996
3.96947
3.97319
3.97576
3.96945
3.9779
3.97473
3.97465
3.97678
3.97704
3.97363
3.97279
4.08798
4.08686
4.07729
4.07593
4.08543
4.08956
4.07863
4.08104
4.08482
4.07407
4.07408
4.07071
4.06984
4.07992
4.08093
4.07242
4.07151
4.07212
4.07433
4.07484
3.95522
3.95563
3.95183
3.95432
3.95847
3.95586
4.04129
4.03966
4.04027
4.03864
4.02917
4.03098
4.04163
4.04288
4.03022
4.03505
4.04324
4.04357
4.03159
4.03693
4.0334
4.02956
4.03183
4.03594
4.0316
4.11694
4.11592
4.12232
4.12201
4.11435
4.12749
4.13016
4.12898
4.13315
4.1305
4.12093
4.11631
4.12838
4.11406
4.1132
4.13232
4.13014
4.1254
4.12987
4.12919
4.1163
4.11717
4.14664
4.1465
4.12847
4.1375
4.13976
4.12747
4.13638
4.13013
4.13931
4.13131
4.13857
4.13424
4.14699
4.13636
4.1468
4.02509
4.01636
4.0097
4.01062
4.01792
4.01482
4.02471
4.02394
4.01607
4.01215
4.01475
4.02958
4.02774
4.01792
4.02422
4.01588
4.0121
4.00962
4.01002
4.01799
4.01458
4.09221
4.09186
4.09253
4.0891
4.08874
4.0888
4.09217
4.08283
4.07864
4.07984
4.08365
4.08156
4.07649
4.07745
4.0801
4.07991
4.07519
4.07295
4.07507
4.1573
4.16217
4.17577
4.17214
4.16798
4.15986
4.18091
4.16829
4.15667
4.16325
4.15467
4.17161
4.16533
4.00062
4.0018
3.99971
4.00174
4.00011
4.00567
4.00316
4.00569
4.00378
3.99985
3.99888
4.00204
3.99927
4.16325
4.15749
4.19677
4.18809
4.19003
4.17161
4.17692
4.22142
4.21207
4.21617
4.2311
4.20134
4.21278
4.22024
4.19662
4.20122
4.21842
4.23249
4.18495
4.17227
4.19216
4.23453
4.22154
4.18982
4.23492
4.21936
4.1826
4.17862
4.17157
4.16909
4.22246
4.2156
4.20257
4.22618
4.22593
4.16009
4.222
4.19175
4.17326
4.18789
4.20393
4.19986
4.13111
4.14357
4.14536
4.089
4.09025
4.08563
4.00856
4.01121
4.005
4.01136
4.17822
4.17347
4.19092
4.17367
4.18036
4.19292
4.16092
4.16495
4.16264
4.16161
4.13047
4.13766
4.13867
4.08954
4.0952
4.09433
4.10077
3.94782
3.9478
3.95529
4.05096
4.05125
3.9686
3.96227
3.96737
3.96221
3.97063
3.96757
3.96132
4.09677
4.09815
4.10352
4.10646
4.10441
3.98748
3.98431
4.11627
4.12253
4.12819
4.12853
4.19105
4.16746
4.19567
4.19793
4.19809
4.20462
4.19968
4.18868
4.18769
4.00124
4.00109
4.04763
4.05009
4.10624
4.10992
4.10839
3.98865
3.98167
3.98272
4.01056
4.00628
4.00976
4.15626
4.164
4.169
4.16515
3.95711
3.96017
3.99834
4.00098
4.00301
3.98591
3.986
4.13459
4.13887
4.10258
4.10619
4.10456
4.11003
3.99209
3.99164
3.95828
3.95944
3.97045
3.96554
3.96349
3.9732
4.00802
4.009
4.04667
4.0469
4.0461
4.04605
4.03717
4.03837
4.13856
4.1335
4.14745
4.1499
4.14975
4.16561
4.17016
4.17851
4.16858
4.17597
4.02972
4.03148
4.18851
4.17431
4.19968
4.1985
4.18913
4.15944
4.1456
4.16429
4.15622
4.16442
4.1615
4.16583
4.1634
4.16172
4.18329
4.18831
4.17286
4.16595
4.15927
4.18617
4.18274
4.13903
4.14762
4.15685
4.16025
4.00639
4.00061
4.00548
3.99964
3.97823
3.98128
3.98377
3.9893
3.99158
3.97363
3.97303
4.06953
4.06837
4.06356
4.04953
4.05076
4.05328
4.06837
4.06287
4.06316
4.10012
4.09259
4.09335
4.0768
4.07519
4.07333
4.07942
4.14368
4.13891
4.15687
4.15295
4.15319
4.16166
4.15905
4.13827
4.15123
4.16351
4.16452
4.16316
4.16918
4.16976
4.06248
4.06088
4.05752
4.05846
4.05957
4.0574
3.97865
3.97864
3.99452
3.99824
3.99105
4.02137
4.02256
3.95736
3.95846
4.17289
4.17639
4.19282
4.19628
4.18921
4.18651
4.17196
4.20712
4.20486
4.20821
4.20383
4.18532
4.19757
4.18594
4.20696
4.19956
4.20072
3.94629
3.94789
3.98068
3.98208
4.1572
4.18199
4.17905
4.17437
4.16719
4.17919
4.18217
4.16641
4.20589
4.19001
4.16892
4.20839
4.20423
4.21038
4.20528
4.18161
4.14018
4.15601
4.15876
4.14336
4.13949
4.16225
4.16054
4.14389
4.16098
4.16582
4.1582
4.16328
4.17699
4.16869
4.17413
4.14622
4.15951
4.1628
4.17506
4.17227
4.15975
4.15141
4.14785
4.14718
4.14116
4.16398
4.16202
4.16635
4.16337
4.02969
4.02508
4.02948
4.02457
4.07669
4.07499
4.05125
4.05165
4.0552
4.05615
4.02766
4.02359
4.02484
4.01525
4.01968
4.01627
4.02146
4.19762
4.18325
4.19624
4.21306
4.21612
4.20366
4.1997
3.96071
3.95928
3.95682
3.96067
3.95612
3.95873
4.01968
4.01957
4.02785
4.02655
4.08772
4.08627
4.02756
4.02586
4.02151
4.02753
4.02353
4.02225
4.02413
4.03264
4.02781
4.02652
4.02951
4.03128
4.0226
4.0205
4.01649
4.02832
4.01088
4.00279
4.01135
4.00626
4.01253
4.00843
4.01707
4.01643
4.01706
4.00778
4.00898
3.99809
4.00374
4.01065
3.99851
4.00282
4.00287
4.00096
4.00487
4.00525
4.0018
4.00299
4.00464
4.03522
4.02664
4.03145
4.03865
4.03014
4.02758
4.02706
4.02986
4.02827
4.02787
4.03697
4.03246
4.02972
4.00555
4.0109
4.01367
4.02203
4.01603
4.01701
4.02248
4.02925
4.02364
4.02582
4.02753
4.02794
4.03038
4.03009
4.03801
4.037
4.01979
4.02295
4.0192
4.01616
4.02089
4.02145
4.01468
4.01094
4.04163
4.04295
4.03696
4.03404
4.03935
4.04212
4.03976
4.04206
4.04302
4.03859
4.03468
4.03129
4.03175
4.03719
4.03798
4.03278
4.03584
4.03391
4.02923
4.03087
4.0349
4.02921
4.02627
4.03335
4.03312
4.01846
4.0211
4.01389
4.01815
4.01905
4.02633
4.02394
4.01197
4.01108
4.01908
4.01882
4.0409
4.03443
4.02604
4.02739
4.02792
4.031
4.02875
4.01834
4.02412
4.02431
4.02179
4.02017
4.01586
4.01836
4.1375
4.14155
4.14298
4.14529
4.12415
4.12954
4.10744
4.10048
4.1007
4.10611
4.10722
4.08346
4.09946
4.09011
4.08328
4.08738
4.09756
4.09148
4.0893
4.09896
4.09893
4.07439
4.08118
4.07412
4.08418
4.08248
4.10535
4.10449
4.10328
4.10281
4.01301
4.00598
4.00837
4.01591
4.01973
4.02106
3.94806
3.95172
3.9745
3.96477
3.96677
3.96625
3.96155
3.97117
3.96713
3.96395
3.95116
3.96445
3.95109
3.94988
3.95811
3.9536
3.95616
3.96891
3.96211
3.96681
3.96232
3.96118
3.95911
3.96438
3.9638
3.96348
3.96353
3.9627
3.95718
3.96029
3.96192
3.96153
3.96297
3.9589
3.94971
3.95157
3.95588
3.95106
3.95072
3.96137
3.96297
3.95779
3.95796
3.97151
3.96676
3.96337
3.95721
3.95924
4.14395
4.1386
4.14206
4.1517
4.16025
4.16774
4.17172
4.16799
4.17183
4.00699
4.01001
4.0123
4.02385
4.01996
4.02468
4.03058
4.03011
4.02393
4.02408
4.02318
4.01894
4.01602
4.02159
4.01676
4.02198
4.02061
4.01692
4.01725
4.01328
4.01351
4.01256
4.01549
4.01482
4.01677
4.03146
4.02084
4.02873
4.02789
4.0289
4.03135
4.02345
4.02859
4.01655
4.01423
4.01835
4.02981
4.03247
4.01716
4.01831
4.06162
4.05742
4.06186
4.05862
4.0638
4.07095
4.05908
4.06267
4.06198
4.05911
4.06545
4.04722
4.03816
4.0423
4.04507
4.0489
4.07016
4.06844
4.09345
4.10052
4.10085
4.0757
4.08211
4.08811
4.08041
4.06201
4.06293
4.05921
4.0636
4.07187
4.04278
4.0332
4.03483
4.03262
4.01112
4.0156
4.01856
4.02147
4.02354
4.02673
4.02816
4.03008
4.02571
4.12472
4.12977
4.13087
4.13677
4.12955
4.13351
4.13108
4.11671
4.13245
4.1525
4.14204
4.13991
4.1341
4.13499
4.1376
4.14616
4.1432
4.14859
4.14673
4.15152
4.155
4.15182
4.14845
4.15073
4.19385
4.19295
4.1649
4.19948
4.19503
4.20114
4.20778
4.19142
4.19392
4.1709
4.16835
3.97059
3.97295
3.9701
3.97126
3.9771
3.97217
3.97967
3.97701
3.98837
3.98507
3.99193
3.9955
3.9855
3.98703
3.98931
3.98714
3.97607
3.97701
3.97518
3.97701
3.97902
3.95076
3.95194
3.95407
3.9481
3.94742
3.95739
3.95242
3.94564
3.95328
3.95556
3.95622
3.95535
3.95667
3.95068
3.95091
3.94891
3.95275
4.16349
4.16591
4.14198
4.16192
4.17835
4.16114
4.16556
4.16528
3.96944
3.96334
3.96468
3.95395
3.95186
3.96415
3.96167
3.96394
3.96406
3.96124
3.95245
3.95582
3.95723
3.95449
3.95467
4.01019
4.01337
4.01375
4.03422
4.03286
4.01928
4.01517
4.02035
4.01886
4.01424
4.02483
3.99026
3.99353
3.99284
3.98548
3.99013
3.99274
3.99162
3.99924
4.00043
4.00234
3.99433
3.99814
3.99604
3.98963
3.99106
3.9648
3.97136
3.96853
3.97617
3.96991
3.9745
3.98164
3.98432
3.97312
3.97958
3.98509
3.98275
3.97808
3.98047
3.98817
3.98592
3.97783
3.97478
3.97668
3.98827
3.98167
3.98218
3.98483
3.98655
4.03967
4.04835
4.04826
4.05661
4.04046
4.04377
4.07703
4.07005
4.0713
4.07168
4.06893
4.07649
4.07253
4.0728
4.07007
4.07493
4.07436
4.06591
4.06332
4.06525
4.0615
4.04992
4.05456
4.04222
4.04434
4.04302
4.05436
4.04477
4.04201
4.05045
4.14125
4.14218
4.14819
4.14695
4.1191
4.11834
4.13066
4.13506
4.14105
4.13578
4.13679
4.09134
4.08791
4.09237
4.08956
4.08678
4.08799
4.09575
4.08542
4.08846
4.09584
4.09755
4.08896
4.09019
4.11321
4.11288
4.10379
4.12421
4.12597
4.13095
4.07819
4.07628
4.08334
4.10173
4.08164
4.08617
4.09277
4.10084
4.05906
4.05289
4.08179
4.07376
4.08479
4.0967
4.08407
4.07903
4.08335
4.03973
4.03963
4.04858
4.05196
4.04676
4.04926
4.06408
4.06263
4.05813
4.05723
4.03959
4.04422
4.04567
4.03936
4.04638
4.03838
4.0402
4.04378
4.06383
4.06351
4.0714
4.04709
4.04059
4.04125
4.04298
4.05139
4.05614
4.04985
4.04992
4.05024
4.05564
4.05103
4.05768
4.06252
3.99268
3.9858
3.98192
3.9824
3.98324
3.97787
3.97596
3.96513
3.96615
3.97086
3.97834
3.97364
3.98118
3.97985
3.97872
3.97838
3.97755
3.98295
3.97978
3.99134
3.9856
3.98992
3.98673
3.98786
3.98448
3.98921
3.98805
4.00472
3.99995
4.00371
3.99943
4.00329
3.99076
3.98425
3.97566
3.98251
3.99118
3.9838
3.98628
3.97525
3.97181
3.98189
3.98054
3.97972
3.98044
3.99203
3.98826
3.985
3.98674
3.97898
3.98536
3.98172
3.98076
3.98345
3.98097
3.98398
3.98365
4.00399
4.00115
4.00441
3.99626
4.0015
3.99435
4.00711
4.00439
4.00885
4.01121
4.01316
3.99802
3.99708
3.99415
3.9901
3.99006
3.99123
3.99272
3.99347
3.96322
3.95742
3.95384
3.95015
3.95007
4.10726
4.12229
4.11952
4.13127
4.13228
4.11309
4.11391
4.13689
4.13693
4.13725
4.1429
4.14185
4.14282
4.14541
4.1358
4.13224
4.13451
4.13488
4.13789
4.14061
4.14132
4.14036
4.14013
4.13287
4.13793
4.14272
4.15564
4.14822
4.14744
4.15043
4.14728
4.17038
4.1554
4.16913
4.17849
4.0263
4.02358
4.02779
4.01812
4.02077
4.0263
4.02883
4.03073
4.03132
4.03188
4.0307
4.03083
4.04195
4.03451
4.0347
4.03405
4.14689
4.14367
4.13007
4.1415
4.14401
4.13923
4.14466
4.12792
4.12822
3.95181
3.95064
3.95103
3.94949
4.05618
4.05132
4.05558
4.05331
4.02305
4.03079
4.03342
4.02484
4.02223
4.02754
4.02718
4.04584
4.04134
4.0391
4.05826
4.05875
4.05431
4.05443
4.04866
4.04817
4.05585
4.04402
4.04163
4.03855
4.02786
4.02906
4.04199
4.04417
4.03253
4.03741
4.03319
4.05739
4.05975
4.05461
4.05283
4.0544
4.05624
4.00276
4.01117
4.00274
4.00565
4.00959
4.01801
4.01447
4.01976
4.00909
4.00845
4.01589
4.01841
4.01955
4.01778
4.01187
4.01138
4.0114
4.01335
4.01736
4.01791
4.01124
4.00478
4.01046
4.01049
4.00327
3.9981
3.99854
4.00224
4.00597
4.00388
3.96035
3.95995
3.96878
3.96599
3.96882
3.96792
3.9577
3.95217
3.97016
3.96773
3.96552
3.96185
3.96198
3.96341
3.96258
3.95295
3.96312
3.96167
3.95835
3.96874
3.96857
3.96383
3.96199
3.95412
3.95915
3.95139
3.95854
3.96036
3.96215
3.99358
3.99059
3.97976
3.9804
3.98192
3.98488
3.98839
3.98938
4.00015
4.00348
4.00297
3.99557
4.00636
3.98917
3.99485
3.99392
3.9932
3.98888
3.99119
3.99196
4.13552
4.14134
4.12613
4.11502
4.12708
4.12147
4.14328
4.13495
4.1352
4.13949
4.13583
4.13452
4.08946
4.07851
4.07975
4.0828
4.10006
4.08178
4.07707
3.97688
3.98171
3.97493
3.98111
3.98074
3.98594
3.98696
3.97372
3.97344
3.98433
3.98367
3.98044
3.98079
3.97851
3.98249
3.98353
3.9848
3.98523
3.98988
3.99566
3.99158
3.9893
3.98509
3.99042
3.98922
3.98966
3.98844
3.9958
4.00464
4.00738
4.00523
3.99535
3.99364
3.99569
4.00338
4.0022
4.00098
3.99458
3.99954
4.00092
3.98917
3.99451
3.98932
3.99162
3.98218
3.98695
3.96417
3.95597
3.95487
3.96619
3.96254
3.96967
3.9573
3.95956
3.96214
3.96435
3.96857
3.96672
3.96355
3.96279
3.96901
3.96966
3.97403
4.0007
4.00195
4.00259
4.00085
3.99917
4.00024
4.00108
4.00026
3.99116
3.98945
3.9863
3.98234
3.98406
3.97761
3.98181
3.98193
3.97677
3.98074
3.98823
3.98901
3.98981
3.98199
3.98132
3.98181
3.99531
3.99252
3.98535
3.98721
3.98721
3.98618
4.13617
4.13335
4.13878
4.13729
4.13743
4.1269
4.13147
4.12152
4.12758
4.13134
4.13327
4.1125
4.1099
4.11403
4.13016
4.12529
4.12276
4.12308
4.11247
4.11099
4.03052
4.03133
4.03609
4.03334
4.03191
4.04007
4.03589
4.03772
4.06207
4.05704
4.05488
4.05972
4.06559
4.00854
4.00172
4.0129
4.01555
4.01474
4.01398
4.00504
4.00468
4.00298
4.00102
3.9938
4.00094
4.00227
4.00017
3.9988
3.99985
4.00386
4.00248
4.01226
4.00716
4.01105
4.01273
4.01048
4.00826
3.99976
3.99843
3.99883
4.17501
4.15114
4.1558
4.17191
4.1719
4.17074
4.17996
4.17446
4.08964
4.08951
4.08598
3.98026
3.97867
3.98268
3.98859
3.99658
3.98871
3.98881
3.99144
3.98908
3.98355
3.9821
3.98816
3.9814
3.98487
3.98669
3.98573
3.98593
4.12955
4.13183
4.12234
4.12217
4.12745
4.11759
4.10835
4.0944
4.09434
4.10157
4.10224
4.09526
4.09339
4.11016
4.11288
4.11844
4.12172
4.12521
3.97099
3.97028
3.96826
3.96744
3.96119
3.96099
3.96118
3.96309
3.965
3.96607
3.95966
3.95728
3.9579
3.96231
3.96327
3.95959
3.96154
3.95884
3.95483
3.96812
3.97607
3.96835
3.96552
3.97323
3.97281
3.96908
3.9646
3.96103
3.96453
3.96692
4.03932
4.04645
4.04344
4.04832
4.04026
4.04222
4.04058
4.04723
4.04936
4.05271
4.05524
4.05148
4.06289
4.05596
4.05582
4.05522
4.05721
4.06096
4.05337
4.05447
4.05378
4.06595
4.06832
4.05796
4.05703
4.0556
3.96206
3.95525
3.95988
3.96201
3.95186
3.95297
3.95615
3.96339
3.96167
3.94836
3.95018
3.95282
3.94467
3.94608
3.95015
3.95278
3.94448
4.13974
4.13274
4.11531
4.11508
4.11542
4.10905
4.10982
4.10651
4.11006
4.07915
4.07664
4.08525
4.07966
4.0863
4.08622
4.08851
4.07781
4.08726
4.07886
4.07875
4.08884
4.08285
4.06974
4.07002
4.07233
4.07387
4.13207
4.12957
4.14333
4.15369
4.14008
4.15743
4.15928
4.16314
4.14754
4.15738
4.14138
4.14185
4.14954
4.1581
4.17574
4.1702
4.17067
4.16034
4.16016
4.17842
4.18175
4.10982
4.10345
4.10033
4.11062
4.09441
4.09654
4.09848
4.09716
4.09374
4.10232
4.1035
4.07513
4.07591
4.08318
4.08454
4.06871
4.07394
4.08274
4.0814
4.07431
4.06845
4.06488
4.0695
4.07057
4.14838
4.15085
4.15577
4.15344
4.15882
4.15853
4.15837
4.14365
4.15591
4.16991
4.1519
4.1438
4.14398
4.15662
4.16751
4.14973
4.15006
4.1807
4.14926
4.1713
4.1511
4.16693
4.17149
4.17907
4.16896
4.16951
4.16843
4.16091
4.13339
4.13793
4.14047
4.11043
4.11928
4.11458
4.11707
4.1087
4.13563
4.13175
4.1195
4.09027
4.08198
4.08984
4.08403
4.08524
4.07531
4.07751
4.07907
4.07877
4.075
4.08006
4.07973
4.0798
4.1057
4.10267
4.10834
4.10504
4.14838
4.14255
4.14799
4.14345
4.15321
4.161
4.15032
4.13202
4.11479
4.12736
4.12833
4.13435
4.11505
4.12622
4.13314
4.12146
4.13313
4.12321
4.11621
3.9748
3.96786
3.97095
3.96752
3.94754
3.95345
3.95018
3.97987
3.97553
3.97213
3.97182
3.97404
3.97635
3.97044
3.98279
3.97827
3.98241
3.98129
3.98289
3.98116
3.98118
3.98005
3.98126
3.96763
3.96929
3.97129
3.97438
3.97388
3.97522
3.97352
4.08317
4.08587
4.096
4.08456
4.0833
4.08773
4.11905
4.11488
4.11391
4.1013
4.11241
4.09838
4.106
4.10588
4.10145
4.09684
4.11265
4.1044
4.10439
4.09757
3.95533
3.96054
3.95342
3.95052
3.95706
3.95868
4.08272
4.0831
4.09041
4.09186
4.0839
4.09348
4.10147
4.09442
4.10608
4.09294
4.09651
4.13112
4.13257
4.13412
4.12936
4.11823
4.12353
4.12875
4.12985
3.99665
3.9911
3.99644
3.99526
3.99629
3.99187
3.98834
3.97953
3.97968
3.97897
3.98122
3.97899
3.97039
3.97004
3.98051
3.97721
3.97502
3.97402
3.98015
3.98371
3.98183
3.98108
3.97453
3.9737
3.97142
3.97209
3.96702
3.97088
4.00296
3.9981
3.99614
4.00329
4.01135
4.0039
3.99501
3.99722
3.9989
4.00133
3.95366
3.95546
3.99353
3.98843
3.98976
3.98694
3.98687
3.9851
3.98609
3.98941
3.99017
3.99179
3.99542
4.08311
4.08613
4.09275
4.09498
4.09787
4.09826
4.0886
4.08635
4.10662
4.10338
4.10591
3.97379
3.9645
3.96211
3.96531
3.96578
3.94709
3.94919
3.95748
3.95725
3.96253
3.96353
3.95995
3.95726
3.9538
3.94889
3.9507
3.96132
3.96111
3.9617
3.95903
3.95732
4.00283
4.00048
4.00361
4.00291
4.00426
3.99873
3.99728
4.00591
4.00364
3.99599
3.99431
4.02243
4.01391
4.01609
4.01978
4.01906
4.01873
4.0201
4.0154
4.01414
4.01357
4.01804
4.01517
4.04118
4.03844
4.0383
4.04748
4.04621
4.04465
4.13054
4.12903
4.12753
4.13058
4.13304
4.1313
4.13177
4.12683
4.12964
4.1294
4.1288
4.12779
4.13621
4.13906
4.13469
4.13545
4.01663
4.01542
4.01489
4.00533
4.00783
4.00923
4.01471
4.01363
4.00899
4.00783
3.99197
3.99855
3.9903
3.9884
3.99596
3.9984
3.99864
3.97695
3.97266
3.9707
3.97133
3.97676
3.97661
3.9704
3.97218
3.96488
3.96844
3.99428
3.99617
4.00196
3.9945
3.99848
3.99393
3.99212
4.00511
4.00337
4.00159
4.00548
3.97701
3.97669
3.97697
3.96447
3.96597
3.97704
3.97702
3.96009
3.95843
3.95739
3.95669
3.95873
3.96542
3.96204
3.96446
3.9704
3.97315
3.97132
3.96815
3.98382
3.9844
3.97863
3.98213
3.97775
3.98787
3.98885
3.98987
3.98891
3.98579
3.98253
3.98368
3.986
4.03716
4.04439
4.03884
4.04605
4.04912
4.04324
4.05162
4.05036
4.04728
4.05554
4.05607
4.04341
4.04986
4.05278
4.0592
4.05841
4.06153
4.06791
4.06818
4.06525
4.06452
4.06182
4.06103
4.0626
4.05609
4.05579
4.05878
4.05774
4.0525
4.04839
4.05309
4.05353
4.04898
4.05067
4.08355
4.08588
4.068
4.07277
4.08665
4.08046
4.07057
4.07157
4.0721
4.06964
4.07939
4.07889
4.08145
4.07309
4.06887
4.06296
4.08239
4.06963
4.06449
4.06941
4.06758
4.07395
4.07569
4.09945
4.08292
4.10119
4.09008
4.08834
4.08217
4.10536
4.09239
4.10258
4.08915
4.08337
3.97105
3.98086
3.97593
3.96975
3.97363
3.97569
3.97728
3.9789
3.97943
3.96541
3.9596
3.95981
3.96404
3.95844
3.96796
3.96538
3.96582
3.96269
3.96479
4.03291
4.03574
4.03133
4.027
4.03202
4.02364
4.02639
4.0396
4.04034
4.02931
4.03423
4.0224
4.02451
3.96388
3.95756
3.9606
3.95808
3.95648
3.95843
3.95493
3.96558
4.15598
4.15378
4.1261
4.13577
4.14544
4.13727
4.14086
4.13353
4.1275
4.13076
4.12469
3.98111
3.98871
3.98845
3.98853
3.98379
3.98817
3.98219
3.98053
3.9843
3.98739
3.9833
3.98098
3.97562
3.98298
3.98719
3.98099
3.98225
3.98896
3.98894
3.9862
4.15975
4.16282
4.14808
4.16793
4.16291
4.16949
4.12228
4.13499
4.13557
4.1305
4.13323
4.13366
4.14612
4.1448
4.04658
4.03951
4.03889
4.0369
4.0374
4.04081
4.04039
4.05259
4.04608
4.05438
4.05091
4.05996
4.05098
4.0447
4.04526
4.07408
4.0685
4.07173
4.07568
4.07208
4.07734
4.0772
4.06329
4.06647
4.06802
4.07742
4.07593
4.06193
4.0647
4.06765
4.07028
4.05134
4.03988
4.03706
4.04496
4.04932
4.0488
4.04295
4.04606
4.04264
4.04437
4.06927
4.06758
4.06955
4.08446
4.07322
4.07989
4.07264
4.0735
4.08083
4.0753
4.08013
4.08153
4.07302
4.00225
4.00391
4.00222
4.0087
4.01283
4.00661
4.0044
4.00795
4.01067
4.01183
4.01186
4.01402
4.01165
4.01085
4.00441
4.0065
4.14402
4.14645
4.14151
4.14414
4.13896
4.1388
4.15165
4.15071
4.15314
4.15256
4.15049
4.15181
4.14674
4.15582
4.15235
4.16108
4.16737
4.16453
4.16696
3.97524
3.97296
3.96986
3.97255
3.97329
3.97209
3.97091
3.97596
3.97519
3.95636
3.95097
3.95431
3.95087
3.95367
3.95275
3.95145
3.95067
3.96401
3.96217
3.9589
3.96115
3.96075
3.96264
3.95568
3.95451
3.96006
3.9594
3.95692
3.96112
3.95908
3.95514
3.95185
3.95198
4.02302
4.02311
4.02352
4.01777
4.01715
4.0197
4.01084
4.01685
4.01844
4.01813
4.01471
4.01195
4.01344
3.99971
4.00735
3.99631
3.99739
3.99965
3.99875
4.00765
4.00774
4.00524
4.00238
4.02647
4.02026
4.02683
4.02355
4.01902
4.02144
4.01648
4.0133
4.02434
4.02286
4.01832
4.01585
4.0302
4.02867
4.02228
4.01872
4.02597
4.02784
4.02573
4.02183
4.01943
4.02283
4.01897
4.02284
4.02988
4.02806
4.02739
4.02598
4.02728
4.02809
4.04607
4.05818
4.04756
4.04435
4.05193
4.05726
4.05271
4.0476
4.04669
4.05026
4.05054
4.05959
4.05009
4.04709
4.04571
4.05433
4.05573
4.05538
4.05125
4.0518
4.04984
4.04741
4.05104
4.05272
4.03411
4.03586
4.03704
4.03189
4.02688
4.03211
4.02881
4.02546
4.02795
4.03087
4.02785
4.02821
4.02441
4.02607
4.01856
4.02088
4.03015
4.02311
4.02717
4.02508
4.02777
4.02194
4.02172
4.02443
4.02811
4.01198
4.0173
4.01681
4.00768
4.00815
4.00968
4.00693
4.00908
4.00577
4.00555
4.02266
4.02069
4.022
4.02117
4.01621
4.01917
4.01992
4.02343
4.01561
4.01365
4.02237
4.01592
4.01884
4.14752
4.1557
4.14908
4.15799
4.15405
4.12983
4.13383
4.13139
4.13357
4.13146
4.13938
4.13546
4.13886
4.1398
3.97203
3.98372
3.97339
3.97264
3.9849
3.98105
3.9813
3.97027
3.96487
3.96263
3.96526
3.96206
3.96411
3.96806
3.96616
4.04404
4.04123
4.03268
4.0327
4.03485
4.04139
4.04362
4.04037
4.03227
4.03565
4.03797
4.04011
4.04161
4.03791
3.99262
3.99362
3.99235
3.99213
3.98784
3.99328
3.99328
3.99603
3.99724
3.99451
3.98709
3.99077
3.99181
3.99283
3.99576
4.00068
3.99829
3.9977
3.99451
3.99603
3.99538
4.00489
4.00614
4.00678
4.00717
4.00431
4.12697
4.12902
4.13229
4.13074
4.12872
4.12847
4.12942
4.13219
3.97318
3.97013
3.97315
3.97193
3.97112
3.96884
3.96938
3.9704
3.96498
3.9787
3.97669
3.97764
3.97127
3.9693
3.97659
3.97704
4.00824
4.00808
4.00654
4.01284
4.01269
4.01003
4.01205
4.00989
3.97192
3.97363
3.96991
3.97647
3.96071
3.96745
3.96585
3.96215
3.96655
3.96536
3.96757
3.96647
3.9654
3.96193
3.95573
3.95962
3.95855
3.96407
3.96552
3.98457
3.98314
3.9813
3.97975
3.98075
3.97813
3.98449
3.9809
3.97679
3.97977
3.97532
4.03997
4.03628
4.04063
4.0391
4.03835
4.02938
4.03242
4.0355
4.02931
4.03179
4.03198
4.03398
4.03174
4.03
4.16896
4.21651
4.21627
4.22078
4.20923
4.21215
4.18432
4.21635
4.21148
4.18852
4.1822
4.17654
4.18233
4.20988
4.21878
4.18158
4.18095
4.19143
4.18618
4.17137
4.22529
4.21821
4.21977
4.21367
4.21231
4.20971
4.18179
4.17786
4.16784
4.00384
4.00455
4.00371
4.01169
4.00898
4.00955
4.01242
4.00291
4.00489
4.01265
4.01208
4.01448
4.00415
3.99698
4.00209
4.00106
4.0037
4.00336
3.99985
3.99773
3.99566
3.99331
4.00802
4.00857
4.03041
4.02804
4.02715
4.03287
4.03247
4.04295
4.04286
4.03966
4.03461
4.03317
4.0337
4.03328
4.04148
4.04289
4.04384
4.04152
4.04501
4.04082
4.02462
4.01164
4.01378
4.0147
4.0113
4.01947
4.01805
4.0157
4.02382
4.02226
4.01823
4.02169
4.01957
4.02163
4.02183
4.04326
4.03926
4.03402
4.03675
4.04547
4.04408
4.03558
4.03325
4.03657
4.03252
4.04643
4.0464
4.04976
4.04171
4.04051
4.03409
4.04718
4.04809
4.04661
4.03605
4.04009
4.04324
4.04213
4.04219
4.04203
4.03932
4.03721
4.03925
4.03819
4.01268
4.01258
4.01195
4.01464
4.01685
4.01768
4.02002
4.02
4.01958
4.02021
4.01963
4.02018
4.01672
4.02544
4.02339
4.10074
4.10066
4.08634
4.0876
4.07224
4.07878
4.08032
4.0831
4.08253
4.07629
4.07453
4.07173
4.07598
4.07414
4.02046
4.02477
4.02267
3.96096
4.03695
4.03207
4.03228
4.02962
4.02643
4.03536
4.03556
4.03355
4.02968
4.03418
4.0314
4.01856
4.02439
4.02274
4.15156
4.16496
4.16423
4.14684
4.15632
4.14707
4.13664
4.13358
4.13411
4.16608
4.16515
4.15275
4.14542
4.15169
4.14796
4.14017
4.13813
3.99926
4.00207
3.99771
3.98723
3.99481
3.9967
3.99954
3.98994
3.99002
3.99058
3.99155
3.9953
3.99855
3.9558
4.16185
4.1509
4.14819
4.14894
4.17308
4.16372
4.14899
4.15945
4.16725
4.15873
4.15254
4.17455
4.16973
4.16264
4.16667
4.15118
4.16977
4.1587
4.14977
4.16083
4.16314
4.15235
4.16406
4.14898
4.1646
3.99408
3.99353
3.98896
3.986
3.98232
3.98934
3.99061
3.98899
3.98269
3.98265
3.98029
3.98128
3.98716
3.98861
3.98252
3.98136
3.99054
3.98826
4.00012
4.00375
4.00321
4.00709
4.00509
3.997
4.00127
3.99858
3.99716
4.00098
4.00456
4.00383
4.00044
4.07234
4.07143
4.06885
4.05937
4.06101
4.05926
4.06809
4.06552
4.0673
4.07024
4.07338
4.06933
4.06869
4.07413
4.07539
4.06257
4.06021
4.07546
4.06497
4.06485
4.07228
4.07545
4.12141
4.13215
4.13858
4.13503
4.12275
4.10781
4.12048
4.12149
4.11038
4.10624
4.11274
4.10941
4.13139
4.13091
4.11391
4.12398
4.11308
4.1115
4.10576
4.10558
4.12502
4.1256
4.10398
4.10381
4.10626
4.10638
4.10649
4.07539
4.07151
4.07111
4.07601
4.07839
4.06879
4.06934
4.06827
4.103
4.10094
4.10099
4.09138
4.10175
4.10584
4.09506
4.09524
4.0892
4.0894
4.08504
4.0996
4.08308
4.08766
4.08375
4.08677
4.0862
4.08918
4.05688
4.06858
4.05586
4.05419
4.06171
4.05956
4.05725
4.05767
4.06186
4.06793
4.06772
4.05907
4.06291
4.06208
4.05431
4.06314
4.05647
4.06208
4.05312
4.05505
4.05649
4.06001
4.05731
4.06134
4.06174
4.06676
4.05771
4.0531
4.06349
4.06797
4.0587
4.05967
4.06252
4.06719
4.05288
4.05078
3.96491
3.95067
3.96021
3.97771
3.97975
3.98048
3.98575
3.9851
3.98758
3.98585
3.98457
3.98799
3.98535
3.98533
3.98636
3.98593
3.98709
3.99192
3.99001
3.9965
3.99636
3.99409
3.99824
3.99695
3.99393
3.99013
3.99439
3.99868
3.99631
3.995
3.98523
3.98955
3.98702
3.98239
3.98281
3.99022
3.99003
3.99326
3.98953
3.9833
3.98182
3.98436
3.98511
4.12159
4.12733
4.12217
4.11025
4.12274
4.12176
4.10749
4.11271
4.10925
4.13085
4.12684
4.12998
4.14715
4.14465
4.13854
4.14533
4.14413
4.12691
4.13122
4.12851
4.12978
4.1314
4.12977
4.12871
4.13193
4.13153
4.13191
4.12608
4.13195
4.13223
4.12697
4.12904
4.12931
4.1319
4.13234
4.1294
4.1276
4.12632
4.12825
3.95311
4.05952
4.04736
4.05754
4.04424
4.04252
4.05564
4.05591
4.05578
4.04746
4.04695
4.05758
4.05955
4.03646
4.04402
4.04032
4.04113
4.04788
4.04098
4.04493
4.04657
4.05126
4.05204
4.04568
4.04744
4.04466
4.04679
4.00363
3.96168
3.966
3.96118
3.96313
3.95789
3.96104
3.96471
3.95675
3.95802
3.96593
3.96963
3.97107
3.97566
3.97352
3.9675
3.96481
3.97437
3.96818
3.96839
3.96909
3.97092
3.96894
3.97136
3.97326
3.98313
3.98576
3.9781
3.98314
4.00901
4.00738
4.00806
3.99703
4.00062
3.99917
4.00422
4.00831
4.00418
4.00289
3.99538
3.99471
4.0408
4.04208
4.04814
4.04063
4.04157
4.06735
4.07251
4.06807
3.99005
3.99673
3.9885
3.99104
3.99862
3.99839
3.99727
3.9935
3.99454
3.99314
3.99262
4.00969
4.00666
4.00664
4.00509
4.00048