/*--------------------------------*- C++ -*----------------------------------*\
| =========                 |                                                 |
| \\      /  F ield         | OpenFOAM: The Open Source CFD Toolbox           |
|  \\    /   O peration     | Version:  v1612+                                |
|   \\  /    A nd           | Web:      www.OpenFOAM.com                      |
|    \\/     M anipulation  |                                                 |
\*---------------------------------------------------------------------------*/
FoamFile
{
    version     2.0;
    format      ascii;
    class       surfaceScalarField;
    location    "150";
    object      phi;
}
// * * * * * * * * * * * * * * * * * * * * * * * * * * * * * * * * * * * * * //

dimensions      [0 3 -1 0 0 0 0];

internalField   nonuniform List<scalar> 
37377
(
3.04657e-09
7.90075e-10
-7.41751e-09
3.58087e-09
-9.60846e-09
1.71703e-08
-5.80656e-09
-1.75523e-09
8.22683e-09
-9.05875e-09
-8.77654e-09
-4.82243e-09
7.44913e-09
1.45436e-08
3.98813e-10
3.00559e-09
-5.07202e-11
7.09335e-10
-7.94223e-09
7.28362e-09
9.40043e-10
9.971e-09
-1.09618e-08
7.41614e-10
-8.86032e-09
-3.28126e-09
7.44569e-09
-1.78922e-10
-7.52271e-09
8.44325e-09
5.60369e-09
2.82051e-09
-8.02539e-09
5.62014e-09
8.93976e-09
-8.95621e-09
7.55332e-09
-8.25798e-10
-6.90645e-09
3.1472e-09
4.79052e-09
-3.844e-10
6.50635e-09
-6.62281e-09
4.98003e-09
1.08342e-08
-1.345e-08
-2.3642e-09
4.81175e-09
-3.76257e-09
5.45717e-09
8.08541e-09
-1.26464e-10
-3.20804e-10
1.275e-08
3.63109e-09
6.87082e-09
-2.4165e-09
8.93043e-09
7.53656e-09
2.33645e-09
-4.84437e-09
-5.02864e-09
-8.5815e-10
9.70308e-10
7.4244e-09
-2.76798e-10
6.40909e-09
-6.99044e-09
-4.41924e-09
4.00806e-09
-3.87937e-09
4.29055e-09
3.14768e-10
5.54683e-09
-1.26772e-08
1.40186e-08
-3.71087e-10
-4.40472e-09
-5.93606e-09
-6.88567e-09
5.12304e-10
6.09657e-09
1.64748e-09
-4.52509e-09
-5.48719e-09
-2.74323e-10
-4.10604e-09
9.86756e-09
-8.45808e-09
8.02667e-09
9.4371e-10
-2.96876e-09
-3.84184e-09
-4.02421e-09
-4.43174e-09
5.03994e-09
6.04779e-09
7.15402e-10
-6.55438e-09
-2.08814e-10
5.56058e-09
-1.33552e-08
6.5168e-09
1.27783e-09
-3.66167e-09
1.18509e-08
1.18113e-09
-9.37035e-09
-1.20911e-08
9.63913e-09
-1.20966e-09
5.94451e-09
-1.14112e-08
-6.62445e-09
-3.05688e-09
4.22962e-09
4.87506e-09
2.32588e-09
4.75146e-09
-1.01342e-08
5.48018e-09
8.69659e-09
-7.99241e-09
8.32337e-09
9.30818e-09
-6.94845e-10
-1.35306e-09
7.51627e-09
6.80831e-09
-8.76399e-09
8.42583e-09
-1.94156e-10
-3.80391e-10
1.41839e-08
7.00147e-09
-8.88006e-10
6.54646e-09
8.88084e-09
1.03957e-08
2.40645e-09
8.08898e-09
-7.62299e-09
-2.87244e-09
-2.80194e-09
1.17512e-08
-6.54276e-09
5.81036e-09
-5.84154e-09
-2.77077e-09
6.35064e-09
3.5939e-09
-4.13418e-09
-1.87147e-09
5.94254e-09
2.27957e-09
6.69621e-09
3.18348e-09
-1.08115e-08
8.55221e-09
4.07918e-09
-6.80167e-09
-4.47064e-09
-8.88361e-10
1.16282e-11
-1.87314e-09
-1.99763e-09
2.08652e-09
4.49699e-09
-3.37244e-09
-3.21107e-09
4.5897e-09
-2.70878e-09
2.05598e-10
-1.48673e-10
-1.94874e-09
-9.49906e-09
2.57572e-09
-2.09661e-09
9.01994e-09
-2.13871e-08
1.64032e-09
1.90817e-08
6.65017e-10
7.06713e-10
-1.03729e-08
-1.17209e-08
1.52593e-08
-8.08225e-09
-6.47033e-09
1.5777e-08
1.12265e-09
5.41423e-10
6.14673e-09
1.23936e-08
-2.48343e-08
4.74144e-09
1.52515e-08
4.84143e-09
-8.39716e-09
-1.57072e-08
9.84523e-09
1.42591e-08
5.87128e-09
1.04471e-08
-1.77073e-08
1.54569e-08
-1.19457e-08
-1.61346e-08
1.37929e-08
-5.57869e-09
-1.77133e-08
1.39367e-09
1.15224e-08
8.76826e-10
-9.59763e-09
8.11861e-09
-1.42282e-08
-1.51158e-08
1.26671e-10
5.28271e-09
1.14576e-08
-1.0869e-08
-1.65698e-09
-1.98863e-08
-1.51462e-08
7.91053e-09
-4.42146e-09
1.35583e-08
-8.14888e-09
5.2744e-10
2.02437e-08
-7.62213e-09
-1.3149e-08
1.63892e-08
-5.81278e-09
-1.00489e-08
1.11076e-08
9.26627e-09
-1.30146e-10
1.89447e-08
8.55205e-09
-3.61381e-09
-1.05405e-08
6.53219e-09
5.54508e-09
2.31509e-09
-1.1474e-08
7.66164e-09
-7.92935e-09
-6.71243e-09
1.04535e-08
6.20881e-09
-9.94988e-09
-1.33529e-08
9.80127e-09
-3.16079e-09
-5.06719e-09
-8.91112e-09
6.25393e-10
1.435e-08
1.9232e-09
-8.61154e-09
-4.69173e-09
9.87034e-09
9.17136e-09
-7.64347e-09
5.67566e-09
1.24213e-08
5.27898e-10
1.6299e-09
-1.66396e-08
4.544e-09
7.40391e-09
-6.43819e-09
-8.27824e-09
8.07135e-09
-1.08235e-08
-7.15475e-09
1.44998e-08
-1.66942e-09
-8.43157e-09
1.80471e-09
-1.30915e-08
9.20393e-09
-1.14583e-08
9.82746e-09
-9.15503e-09
-5.5021e-09
4.82966e-09
-1.03036e-09
1.1663e-08
-8.05191e-10
9.17639e-09
-8.59443e-10
-6.22559e-09
-2.09136e-09
-1.99978e-09
1.01458e-08
-6.79152e-09
-3.22295e-09
-5.68246e-09
-1.26759e-09
4.95027e-09
4.95739e-10
-6.22382e-09
-4.97505e-10
-5.15009e-09
-3.66241e-11
1.04819e-08
-9.43643e-09
-9.16229e-09
8.11686e-09
-1.48853e-09
9.15239e-09
2.818e-09
3.39757e-10
-9.20436e-09
7.37608e-09
-6.08818e-09
5.16035e-09
-9.141e-10
-8.45667e-09
3.14695e-09
-1.33762e-09
-1.76685e-09
-6.09989e-09
-4.92926e-09
-2.49654e-09
2.63333e-09
-1.0339e-08
-8.56995e-09
-3.16395e-09
-5.58651e-09
-1.19805e-08
1.33689e-08
-1.84404e-08
8.31128e-09
-3.23979e-09
-6.42151e-09
1.02115e-08
9.45315e-09
-1.13703e-08
-8.29432e-09
2.04234e-08
-1.07348e-08
5.22828e-10
-1.70841e-08
-3.11975e-09
-9.28013e-09
-1.17671e-08
3.9631e-09
-9.5304e-09
-9.30779e-09
2.82913e-08
-1.46507e-08
-1.65023e-08
2.16225e-08
1.55796e-08
1.02774e-08
-5.43352e-09
-2.60324e-08
-1.68809e-09
-7.68062e-09
-1.76159e-08
-7.35956e-10
1.50794e-08
-9.89503e-09
-1.2865e-08
-1.95521e-08
2.53237e-08
7.46067e-09
2.49317e-09
-1.98489e-08
3.77295e-09
-1.39281e-08
8.44436e-09
-1.73215e-08
7.18259e-09
-9.473e-09
-1.84432e-08
3.7837e-09
1.15398e-08
-2.20304e-08
-8.17994e-09
1.37768e-08
-1.10748e-08
1.10035e-08
1.94502e-09
-7.03476e-09
-5.9138e-09
5.42315e-09
-2.86386e-09
8.44425e-09
-5.36384e-09
2.59388e-09
7.2048e-10
2.04948e-09
4.91912e-09
-1.13925e-08
1.10958e-09
-5.73288e-09
-1.37189e-10
1.12932e-08
-1.19398e-09
1.7556e-09
1.01651e-09
-5.63596e-09
4.10673e-09
-8.09377e-09
8.90616e-09
-5.01578e-09
1.0108e-08
-5.22945e-09
8.46548e-10
-1.16218e-08
1.24555e-09
-8.61476e-10
1.12377e-08
-4.71737e-09
1.20936e-09
-8.11376e-09
-3.25822e-09
8.11318e-09
5.05383e-09
-9.90879e-09
1.62133e-09
6.63192e-09
-1.15115e-08
6.45783e-09
-9.55387e-09
6.81683e-09
8.86558e-10
7.16792e-10
1.23504e-08
-4.954e-09
1.06214e-08
-3.27267e-09
1.2997e-08
-6.73385e-09
1.13915e-08
7.88014e-11
-8.48893e-10
-3.31818e-09
-1.29739e-09
1.6007e-08
-3.40014e-09
1.24323e-08
9.14079e-09
4.56105e-10
-7.31946e-09
9.07268e-09
-3.05061e-09
-4.23832e-10
1.59767e-08
9.79178e-09
-1.01125e-08
-1.5656e-08
-4.49323e-09
-1.92406e-09
2.2394e-08
-8.33628e-09
9.07613e-09
9.05193e-09
2.04587e-08
-1.63181e-08
-8.63376e-09
-1.11932e-09
1.50869e-08
-1.50835e-08
1.11597e-09
1.79421e-08
-1.99388e-08
8.77461e-10
2.80241e-08
1.23013e-09
-8.79561e-09
-9.49278e-09
-1.16024e-08
4.77706e-09
1.58762e-09
6.95482e-09
6.54443e-09
1.11934e-08
2.94184e-09
-5.11259e-09
5.54549e-09
-3.37474e-09
-6.33756e-09
9.07642e-09
2.02977e-10
2.59168e-09
-7.60683e-09
-9.74434e-11
1.83567e-09
-5.58155e-09
5.64468e-09
1.93184e-09
-2.03104e-09
6.73824e-10
1.40473e-08
8.81474e-09
-5.45526e-09
-1.52382e-09
1.44461e-08
-4.95749e-09
7.20334e-09
3.45143e-09
-6.84477e-09
-3.81e-09
6.45983e-09
-4.60976e-09
5.35326e-09
4.13461e-09
-1.94972e-09
1.26654e-09
1.0252e-09
9.56924e-09
5.24184e-09
-1.60488e-09
-1.04817e-08
2.00394e-09
-1.37186e-09
-4.72956e-09
-2.47205e-09
8.22681e-09
-2.20603e-09
-5.19594e-10
2.05164e-09
-4.61486e-09
9.58339e-10
4.46671e-09
-1.67774e-09
-7.37336e-10
1.71912e-09
7.97875e-10
-5.17548e-09
4.42256e-09
-2.8576e-09
4.1489e-09
-6.46678e-09
-4.20287e-09
-8.60761e-10
5.36964e-09
6.88735e-09
-9.77776e-09
-2.47924e-09
6.7102e-09
2.13064e-09
-3.4712e-09
6.0743e-10
5.57093e-09
7.08988e-10
5.95199e-09
1.36564e-09
4.82319e-09
-2.41021e-09
-2.82337e-10
-4.93814e-09
-1.20151e-09
-2.18306e-09
8.32271e-09
-5.57895e-09
-4.26972e-09
4.91052e-09
-2.68684e-09
5.20057e-09
3.43825e-09
-7.63596e-09
1.38285e-09
1.47434e-09
4.77877e-09
4.48132e-10
-2.51316e-09
2.38776e-09
-2.51414e-10
7.36728e-09
-3.07628e-09
-5.4925e-09
4.59158e-09
-2.18227e-09
-2.15499e-11
1.70156e-09
4.88186e-09
-1.05705e-08
2.98203e-09
9.06279e-09
-2.75507e-09
4.13203e-10
1.00707e-08
-7.50184e-09
6.70635e-09
-2.11359e-09
4.99878e-09
-1.15486e-08
8.66337e-09
2.30435e-09
1.05092e-08
-1.16044e-08
-1.20924e-09
1.1159e-08
-7.35547e-09
-1.49917e-09
1.22822e-08
8.0693e-09
-9.19246e-09
4.20364e-09
5.96492e-09
-1.09076e-08
-1.05719e-10
1.63111e-08
-5.29781e-09
-1.36514e-08
1.00729e-08
-7.3291e-09
-6.02313e-09
-1.15003e-08
9.22084e-09
8.30261e-09
4.95373e-09
-1.31712e-08
2.19437e-09
-1.11109e-08
4.52473e-09
1.07898e-08
1.9121e-09
2.97884e-09
-2.33765e-09
-1.42926e-08
7.43224e-09
-1.00942e-08
-1.08924e-09
1.36399e-08
-2.46806e-09
2.63483e-09
2.43699e-10
-4.10467e-10
-1.38682e-09
-4.01786e-10
-6.79448e-10
-1.19103e-09
-1.35991e-09
5.34034e-09
-2.78939e-09
-1.7287e-09
1.00021e-09
-6.58333e-10
-7.97192e-10
1.86999e-09
-3.57329e-09
3.51938e-09
3.45916e-10
-2.92e-10
-2.96086e-09
2.13104e-09
-2.74347e-09
-2.46714e-09
-1.68475e-09
1.78326e-09
2.65075e-09
-3.28469e-09
3.25073e-09
-2.61679e-09
-2.15068e-09
5.67269e-09
-8.71259e-10
5.87749e-10
2.5049e-09
-6.37735e-09
9.8906e-10
-8.83537e-09
-3.23684e-09
1.10831e-08
-5.38561e-09
7.74783e-09
-1.37316e-09
6.14171e-09
5.07256e-09
-1.39458e-09
1.76183e-10
-6.66132e-09
-1.4517e-09
7.93684e-09
6.95443e-09
-1.10555e-09
-2.38067e-09
-1.02993e-09
2.99467e-09
-5.3726e-09
4.88284e-09
2.0879e-09
-5.85071e-09
2.74907e-09
7.76959e-09
-3.56424e-09
-2.52427e-09
1.1642e-08
-6.96113e-09
2.04337e-09
3.93017e-09
-1.18044e-09
-4.7931e-09
6.40307e-09
4.81884e-10
-4.84159e-09
-1.99765e-09
5.68676e-09
2.71396e-09
2.04285e-09
-1.1033e-10
3.38058e-09
-1.6573e-10
2.47191e-09
3.77131e-09
-1.74999e-09
2.15325e-11
-7.74086e-09
9.49077e-09
-3.6191e-09
1.86918e-09
-2.2517e-09
-5.89048e-09
8.62406e-09
-1.67545e-09
7.58391e-09
-8.16016e-09
3.81548e-09
-6.67137e-09
5.61536e-09
-5.84048e-09
4.04061e-09
6.43756e-10
-1.0099e-10
5.07259e-09
4.86813e-10
-5.33865e-09
3.79133e-09
-3.36434e-09
2.07035e-09
-7.19458e-09
-2.14424e-10
6.03332e-09
-7.80062e-09
-1.73672e-09
3.50403e-09
4.46873e-09
-9.36325e-09
-8.85031e-09
1.18979e-08
-1.08482e-08
3.57535e-09
-3.09957e-09
1.59457e-09
8.59861e-10
-4.76462e-09
-1.65302e-09
-8.76511e-09
4.76253e-09
5.6556e-09
-9.20939e-09
4.19203e-09
-2.69727e-09
1.5173e-09
-7.58514e-09
4.20861e-10
-1.19684e-08
-1.35583e-09
-6.33625e-09
-2.27301e-09
-6.2774e-09
-7.08761e-10
-8.606e-09
6.21519e-09
-6.49609e-09
4.0506e-09
-7.39395e-09
-7.70814e-09
-9.24609e-09
3.69533e-09
-1.85436e-08
-5.26448e-09
-1.50441e-08
-3.01821e-09
1.44226e-09
-3.51608e-09
-1.29703e-08
1.84793e-08
-3.11828e-09
-1.39188e-08
-1.7508e-08
2.63397e-09
-2.05423e-08
1.6453e-09
-1.5689e-08
-4.87861e-09
8.70054e-10
5.39379e-09
-1.38523e-09
7.25711e-10
2.20568e-09
-7.81e-09
3.27467e-09
-4.67286e-09
2.1239e-09
4.3623e-09
-2.17576e-10
8.48464e-09
-5.17415e-09
2.34728e-10
-3.54522e-09
7.67379e-09
3.01654e-09
-4.86738e-09
-8.11677e-09
-1.25818e-09
-1.45724e-09
8.1092e-09
-7.80576e-09
3.99306e-09
-1.05468e-09
-9.35377e-09
1.09369e-09
4.54323e-10
-3.70915e-09
1.01248e-08
-3.64588e-09
-2.20604e-09
4.39469e-09
-4.66134e-09
-3.6978e-10
-5.62245e-10
-1.06028e-10
1.29406e-08
-7.62414e-09
-5.08168e-09
-2.48264e-09
1.1714e-08
-1.36498e-08
4.59968e-10
1.07072e-08
-2.40891e-09
-4.84519e-09
-6.39568e-09
5.38362e-09
7.39392e-09
-4.67848e-09
-8.09906e-09
5.08744e-09
-2.66069e-10
1.31871e-08
-8.20213e-09
2.90461e-09
1.07425e-08
5.232e-09
-1.09652e-08
-7.23733e-09
5.786e-09
5.20945e-09
8.67513e-09
-1.04328e-08
-3.45179e-09
7.73058e-09
-5.14753e-09
2.6264e-09
8.01349e-09
-1.31945e-09
-5.95479e-09
-7.39254e-10
-1.78375e-09
-8.50715e-10
1.0648e-08
9.03717e-09
-7.51659e-09
7.15455e-09
-2.91152e-09
2.00169e-09
-9.52295e-09
1.9796e-09
2.28624e-09
4.77133e-09
2.03014e-09
7.68004e-09
-7.92724e-09
8.42973e-09
-6.9797e-09
-2.26699e-09
5.8887e-09
-6.02483e-09
-5.81866e-09
7.06813e-09
-7.4407e-09
1.99606e-09
2.97104e-10
-1.57729e-10
-1.01945e-08
-9.13707e-10
-4.60119e-09
-6.78927e-09
2.76051e-09
2.54176e-09
-9.48876e-09
-5.35165e-09
-2.94036e-11
-6.51443e-09
-9.78886e-10
-7.67284e-09
-1.21689e-09
2.56925e-09
-4.46264e-09
-9.06837e-09
-1.04905e-09
-4.32393e-09
-3.61906e-09
-3.37781e-09
9.04248e-11
-6.11454e-09
-4.01895e-09
-1.16182e-09
-1.09737e-08
3.117e-09
-1.03934e-08
3.47984e-09
-3.74065e-09
-4.19203e-09
-1.51365e-08
1.47346e-08
9.75869e-09
-9.35685e-09
-3.77999e-09
-1.37988e-08
2.4423e-09
8.96082e-09
7.74335e-09
-1.96952e-09
1.51197e-08
-6.335e-09
9.74035e-10
8.31262e-09
-3.54814e-09
-6.93664e-09
2.17215e-09
-6.20115e-09
6.50647e-09
5.58134e-09
-5.88666e-09
2.35793e-09
-2.46461e-10
-1.10377e-08
7.72821e-09
1.22703e-08
5.40458e-09
-1.32263e-09
7.91325e-09
1.126e-09
-1.28192e-08
6.96244e-09
-5.3842e-09
-6.32728e-09
-3.73953e-09
4.46186e-09
5.60495e-09
-8.74941e-09
8.69747e-10
1.00518e-08
-4.41509e-09
-5.63293e-09
1.42309e-08
-5.17199e-09
4.94364e-09
-1.11294e-08
7.52953e-09
-1.57212e-09
-5.34464e-09
1.17768e-09
2.92359e-09
-5.70886e-09
3.28042e-09
-4.95145e-10
1.75318e-09
1.08555e-09
2.82834e-09
-5.66707e-09
-4.38002e-09
2.36861e-09
3.76459e-09
-4.90248e-09
7.1764e-10
-1.95182e-10
-5.60482e-09
4.94947e-09
-2.02469e-09
2.68004e-09
5.68821e-09
-9.68426e-09
-1.60877e-09
2.65084e-09
3.38418e-09
6.69276e-10
7.16209e-09
-5.46276e-09
-1.13636e-08
7.10526e-09
2.23365e-09
4.86554e-09
-1.05409e-08
4.67019e-09
9.20747e-10
-1.46051e-09
-4.13042e-09
2.39075e-09
5.20304e-09
-5.67959e-09
8.99971e-09
-7.76376e-09
9.18943e-09
-1.97747e-09
1.86881e-08
-1.84776e-10
-5.91065e-09
-1.25927e-08
-5.4369e-09
2.50286e-09
2.16222e-08
2.4854e-08
-1.69141e-08
-8.12469e-09
-3.33656e-09
-1.39006e-09
1.90399e-08
-1.5147e-08
7.35156e-09
-1.25662e-08
-1.16995e-08
-8.9243e-10
4.90743e-09
4.73598e-09
-5.13648e-10
1.00965e-08
-1.43188e-08
1.95166e-08
5.2268e-09
-2.00074e-08
-5.24057e-09
1.58887e-10
-1.03852e-08
1.54669e-08
-1.83204e-08
-4.72165e-09
-1.36366e-08
-3.84459e-09
-1.79964e-08
-1.20313e-08
1.3387e-08
8.74072e-09
1.0136e-08
-2.65063e-09
1.54586e-08
8.65002e-09
8.518e-09
-6.696e-09
6.57604e-10
-1.96951e-08
9.55076e-09
-6.82428e-09
1.69686e-08
6.09271e-10
-1.10468e-08
-9.25755e-09
1.6742e-08
-1.39543e-08
-1.42217e-08
1.1434e-08
1.10081e-08
-7.30811e-10
6.46473e-09
1.53507e-08
-1.55368e-08
1.11942e-08
-1.36016e-08
2.14453e-08
1.70705e-09
-7.19446e-09
-5.79789e-09
-2.61732e-09
-1.42551e-08
8.72275e-09
8.14969e-09
-1.77887e-08
8.34707e-09
-9.15644e-09
-1.96791e-08
1.15651e-08
1.04157e-10
-2.56235e-08
3.63979e-09
-1.11318e-08
-3.76089e-09
6.37555e-10
-2.01841e-08
1.1253e-08
-1.55512e-08
1.85114e-08
-1.42132e-08
1.57394e-08
-6.34439e-09
1.85792e-09
1.31294e-09
-4.54661e-09
-1.23175e-08
1.30731e-08
-3.27241e-09
-8.48772e-09
-1.43493e-08
9.87628e-09
2.02125e-08
1.27746e-09
2.88461e-09
6.45856e-09
2.70124e-10
4.15871e-10
6.40582e-09
-1.00941e-08
9.8571e-09
-1.39878e-08
-1.50932e-08
-1.00194e-08
1.31219e-08
1.19907e-08
4.83684e-10
-1.41117e-08
-1.46522e-09
1.55174e-08
-1.37761e-08
-1.25764e-09
1.26243e-08
-9.27138e-09
1.21645e-08
1.2709e-08
-1.45243e-08
3.09278e-09
-1.99863e-09
-1.56219e-09
-1.14485e-08
-4.66186e-09
-9.69487e-09
-6.65999e-10
2.02372e-08
-1.67718e-09
4.69131e-09
2.50802e-08
1.47258e-08
-1.57268e-08
-1.27751e-08
3.77721e-09
2.34951e-09
-7.01674e-09
9.67182e-09
-1.47145e-08
-3.70544e-09
-1.9706e-09
-2.50679e-09
4.30922e-09
1.6817e-10
-2.70373e-09
2.71832e-09
-1.98519e-09
1.6454e-09
4.24043e-09
-5.57544e-10
-5.32828e-09
4.48859e-09
4.13906e-10
-3.2571e-09
-1.28363e-09
6.19668e-09
-4.24453e-10
-2.18301e-09
5.1398e-09
3.57235e-09
-1.69777e-09
1.08571e-09
-2.01474e-11
6.54251e-09
-1.30271e-09
-2.52148e-09
3.16016e-09
7.69156e-09
-1.80458e-09
5.37864e-09
4.93603e-09
-4.48575e-09
2.14774e-09
-2.59803e-09
5.84285e-09
-4.02085e-09
3.11403e-09
3.48073e-09
-1.94678e-09
-2.24609e-10
-3.18595e-09
-2.13761e-09
-1.29878e-09
-3.0188e-09
-1.61745e-10
-2.67281e-09
-2.29277e-09
-3.60225e-09
-1.2573e-09
-1.07649e-08
1.56245e-08
-1.0979e-08
1.89035e-09
8.13043e-09
9.582e-10
3.98014e-09
-3.72656e-11
-1.49219e-08
1.40355e-08
-1.36576e-08
6.5795e-09
1.01477e-08
-2.69172e-09
9.42492e-09
3.91815e-09
-6.76358e-09
-1.18417e-08
8.58856e-09
8.05637e-09
-4.80327e-09
-3.65405e-09
-9.4449e-09
-6.03138e-09
-4.76112e-10
-2.94336e-09
9.45085e-09
-2.3557e-09
4.91288e-09
1.48684e-08
5.19251e-09
-2.00982e-08
1.35447e-08
3.21409e-09
9.24504e-09
1.16735e-08
-7.37384e-09
1.54354e-08
-1.17594e-08
5.56908e-09
-8.92966e-09
-4.84002e-09
1.32936e-08
4.15002e-09
1.11025e-08
7.17564e-09
-1.99962e-09
8.48118e-09
-1.0221e-08
-2.85805e-09
9.6915e-09
6.24484e-09
-9.72049e-09
1.16817e-09
-9.21828e-09
1.77706e-08
-1.00662e-09
-5.79727e-09
-2.91659e-09
-3.5392e-09
-4.47987e-09
9.18724e-09
-1.75157e-08
-3.87045e-09
1.21679e-08
-1.11301e-08
-7.39224e-09
-5.17487e-09
6.65108e-09
-5.01542e-09
2.62214e-09
-8.21409e-09
-2.05323e-10
-4.31726e-09
2.45953e-09
-1.00807e-08
4.64104e-09
1.12241e-09
-1.14543e-08
2.40898e-09
-1.25633e-09
-3.3177e-09
-5.50668e-09
-4.14635e-09
-6.80123e-09
9.69125e-09
-1.29047e-09
-5.27659e-09
-4.88725e-09
-5.33817e-09
-7.08241e-09
-3.66044e-09
-7.87135e-09
-1.81135e-09
-7.61159e-09
-1.081e-08
7.13469e-09
6.22251e-09
-7.38455e-09
-5.97265e-09
6.73975e-09
5.88224e-10
-1.93292e-10
-7.84064e-10
6.97916e-09
5.44655e-10
5.5789e-09
-1.40455e-10
-2.46449e-09
-9.66095e-09
4.74089e-09
-2.02367e-09
5.30675e-09
2.29582e-09
8.76751e-09
9.01664e-09
-7.47979e-09
-1.03044e-08
3.0339e-09
3.70995e-09
-1.29738e-08
7.14059e-09
8.86715e-09
1.17698e-09
-5.13418e-09
1.63859e-09
5.20326e-09
-6.79604e-09
-4.58069e-11
-3.09245e-09
7.0872e-10
7.69048e-09
5.52531e-09
-1.51643e-08
5.22004e-09
-1.32428e-08
5.14114e-09
1.52422e-08
-4.17754e-09
-7.88827e-09
-1.18348e-08
3.35442e-09
1.1844e-08
-3.36364e-09
-5.97495e-09
3.21286e-09
9.20429e-09
2.19444e-09
2.75983e-09
-4.84287e-09
-1.11406e-10
1.25983e-08
-9.42055e-10
-1.03788e-09
-1.06183e-08
1.06492e-09
1.44998e-08
-2.96643e-09
6.15632e-09
2.34115e-09
-6.30303e-09
-3.96257e-09
-6.58576e-09
4.23127e-09
6.31706e-09
-9.99767e-09
-2.53201e-09
8.56711e-09
-7.60919e-10
-3.54979e-09
4.18985e-09
1.20861e-10
-5.92953e-09
4.6549e-09
5.13707e-10
-1.67562e-09
1.90241e-09
-4.39096e-09
2.83288e-09
-1.17544e-10
-9.07008e-09
-1.04145e-09
1.11764e-08
-1.29895e-09
-8.71319e-09
-1.73325e-09
1.02129e-10
-2.56616e-10
1.55326e-09
-1.08562e-08
9.55958e-09
6.18737e-10
-5.71822e-09
9.52986e-09
-1.61583e-09
-8.72383e-09
3.84227e-09
-5.1161e-09
-3.87596e-09
3.15904e-09
-4.62549e-09
4.85178e-09
-4.10224e-09
-2.85927e-09
-1.73037e-09
-3.58481e-11
4.46256e-09
-5.14277e-09
-1.29961e-10
-8.20845e-09
-5.24016e-09
4.12791e-09
-7.87411e-09
8.98636e-09
3.81521e-10
-1.01125e-08
4.4908e-09
-5.67068e-09
-2.19776e-09
3.80592e-09
4.06253e-09
5.86867e-10
-6.50045e-09
2.42907e-10
-3.71327e-09
8.67596e-09
-8.34784e-10
-6.69722e-09
3.36548e-09
-7.49173e-09
5.27744e-09
-7.89819e-09
1.36844e-09
-5.43759e-09
1.87138e-09
-5.16199e-09
5.48208e-09
2.66772e-10
-6.68165e-09
2.34355e-09
5.70654e-09
-5.5837e-09
-6.35434e-09
2.32635e-09
4.053e-09
-6.29218e-09
-8.71687e-11
-3.1099e-09
9.25301e-09
-7.58499e-09
1.44188e-09
-7.09643e-09
-1.17546e-09
1.14275e-08
-2.43174e-09
-1.64875e-08
-7.78315e-10
5.5086e-09
3.3739e-09
5.1008e-09
3.57968e-09
-1.35964e-08
-9.10045e-09
-2.03991e-09
-9.81162e-09
1.28429e-08
-9.91357e-10
-7.63363e-09
1.07414e-08
-1.76625e-08
1.45548e-08
-2.26391e-08
5.7962e-09
9.20924e-09
1.5278e-08
-3.54902e-09
-1.37689e-08
-1.33706e-09
3.36941e-09
-2.54503e-09
3.39246e-09
-1.11548e-08
1.03073e-08
3.64884e-09
9.08413e-09
3.01651e-09
1.13737e-08
-6.41315e-09
1.28221e-08
1.00865e-09
-1.27016e-08
-5.96953e-09
-1.52769e-08
-6.35349e-09
9.95515e-09
-1.38381e-08
9.6792e-09
-7.4047e-09
9.09283e-09
-7.72169e-09
1.12637e-08
1.43506e-09
-1.53192e-08
6.1624e-09
-1.1595e-08
5.62538e-09
-1.46688e-08
-1.44463e-08
3.38209e-09
-3.45901e-09
1.32538e-09
-1.94532e-08
-1.49253e-08
-1.48481e-08
8.58492e-09
-4.21098e-09
1.04742e-08
-1.11541e-08
-1.11516e-08
7.45762e-09
2.24698e-08
-1.48449e-08
9.60007e-10
7.68344e-09
-9.04931e-11
-1.8747e-08
-8.20341e-09
7.44e-10
8.29474e-10
6.62993e-09
-1.96042e-08
6.03634e-09
-1.45817e-08
2.66101e-09
-1.38723e-08
5.57843e-09
2.62169e-09
1.11139e-08
-1.29916e-08
1.54996e-08
6.19047e-09
-1.56538e-08
-7.58879e-09
8.12011e-09
-2.33027e-10
-2.98293e-10
8.38155e-09
-6.89975e-09
-9.07059e-09
-5.78565e-09
8.36447e-09
5.54129e-09
3.6062e-09
-1.0103e-09
1.44011e-09
3.92564e-09
2.75124e-09
-8.11699e-09
2.81398e-09
-1.0854e-08
1.14024e-09
-7.20376e-09
1.08784e-08
8.27815e-09
-1.19528e-08
-1.33277e-10
-4.14137e-09
-2.92912e-09
4.94708e-09
2.01713e-09
-5.5241e-09
4.71696e-09
7.57315e-09
4.50337e-09
1.13221e-08
-3.7471e-09
-1.48029e-09
9.94435e-09
-7.07643e-09
-2.61893e-09
5.94826e-09
3.16778e-09
7.1137e-09
-7.4675e-09
7.08568e-09
-4.05118e-09
-3.12351e-09
-3.46723e-10
-1.62126e-09
4.64434e-09
-7.55492e-09
3.31473e-09
-4.69169e-09
4.22245e-09
-7.01497e-10
-2.5853e-09
2.58322e-09
-2.69993e-09
-3.14711e-12
-1.45517e-09
-4.0027e-09
-5.06627e-11
-5.10201e-10
-2.82697e-09
-1.1371e-09
-5.04028e-09
5.48804e-09
6.89347e-10
-4.47786e-09
3.64996e-09
-3.09203e-10
5.39234e-09
-1.56061e-09
-8.30958e-09
4.36723e-09
-4.01517e-09
-4.40981e-09
5.27343e-09
4.62441e-09
-5.94779e-10
-1.65077e-10
5.69652e-10
-5.77405e-09
6.3516e-09
-1.1472e-09
-3.45435e-09
4.19067e-09
-1.6667e-10
-1.03187e-08
-4.83101e-09
2.02134e-09
1.31283e-08
1.25458e-09
-7.20601e-09
1.76884e-09
-6.7838e-09
5.08941e-09
-9.09462e-09
-1.67211e-08
-3.07842e-09
1.49685e-08
-5.59849e-09
-9.86801e-09
3.85797e-09
-2.62073e-10
8.9796e-09
-1.68483e-09
-1.16823e-08
1.03849e-09
7.5654e-09
-1.21914e-08
4.58888e-09
2.80121e-09
-1.28944e-09
-1.61112e-08
5.94524e-09
1.14553e-08
-2.01762e-08
6.0506e-09
1.28362e-08
-2.87319e-09
-4.53034e-09
-1.27727e-08
-6.09683e-09
-1.28875e-08
-1.28305e-08
7.31784e-09
1.15632e-08
2.71455e-09
-8.30924e-09
-5.02138e-10
-1.33472e-08
1.14003e-08
4.66143e-09
-5.10011e-09
-1.65563e-08
1.27003e-08
-8.16449e-09
3.87937e-09
-8.41522e-09
5.29371e-09
3.05446e-09
4.35218e-09
-1.074e-08
-6.62079e-09
-7.9689e-09
1.52639e-09
1.23878e-08
8.72514e-09
5.36398e-09
-4.74021e-09
6.69407e-09
-6.69097e-09
1.35813e-08
2.28768e-09
-1.55523e-08
1.23334e-08
-4.10917e-09
-4.3449e-09
8.21415e-09
7.17375e-09
-5.85908e-09
-2.65687e-09
4.40678e-09
-9.67486e-09
6.10346e-09
-3.28121e-09
4.80438e-09
1.58307e-09
-9.60449e-09
-1.24589e-09
4.52114e-09
1.41667e-09
-4.69192e-09
3.42604e-09
-3.88817e-09
-7.83758e-10
-4.01523e-09
-3.93422e-09
2.41968e-09
5.52977e-09
1.01228e-09
-5.06364e-10
-1.07349e-10
-4.0083e-10
-2.26606e-09
-2.52955e-09
7.21529e-09
4.42094e-09
-2.84946e-09
-5.59202e-10
-5.21274e-09
7.36762e-09
3.10932e-09
-2.87757e-09
-3.39098e-10
-3.19383e-09
3.7736e-09
7.07346e-09
-6.40354e-09
1.73385e-10
1.68733e-09
2.03903e-10
-4.46652e-10
-4.17437e-09
1.15393e-09
-2.73169e-10
-3.6973e-09
-9.88073e-09
-2.21522e-08
2.24888e-08
9.54416e-09
-7.3846e-09
3.41705e-09
-1.0981e-08
1.49486e-08
1.67259e-09
-2.08096e-08
-2.0767e-09
2.12137e-08
-1.73597e-08
-5.2196e-10
1.95542e-08
1.5807e-08
-2.12414e-08
1.05914e-08
-5.15691e-09
7.52207e-09
-9.07481e-09
-5.90313e-09
-1.32739e-08
-2.06434e-09
-1.82573e-08
2.20846e-08
-1.48715e-08
1.10442e-08
2.10868e-08
-7.98192e-09
1.08742e-08
-2.39791e-08
-1.80733e-09
1.74603e-08
-1.6175e-08
-1.15739e-08
1.35574e-09
-6.31368e-09
-1.78467e-08
1.08049e-09
-2.15228e-08
1.41287e-08
-1.87692e-08
9.95505e-09
1.42951e-09
-2.75694e-08
6.73531e-09
5.83564e-09
1.39607e-09
-1.3967e-08
1.64609e-08
1.13612e-08
1.56025e-10
-1.40657e-08
1.24144e-08
2.52878e-09
1.72496e-09
-6.2969e-10
5.22731e-09
3.76685e-09
-8.36447e-09
1.84573e-09
3.15493e-09
-5.63035e-09
1.89611e-09
4.61352e-09
-4.66389e-09
6.0592e-10
6.15237e-09
-1.53098e-09
4.19538e-09
-4.34529e-10
3.25725e-09
1.02083e-08
-9.69866e-09
9.57986e-09
-4.42651e-09
3.77023e-09
7.08918e-09
-6.2459e-09
4.96277e-09
-7.4674e-10
-4.45796e-10
4.48184e-10
5.25917e-09
4.50091e-09
4.44581e-09
5.58223e-09
5.69155e-09
2.09246e-09
-6.94823e-10
5.25559e-09
5.39872e-09
1.84047e-09
-2.26899e-09
6.58089e-09
4.00668e-09
-5.58044e-10
4.90166e-09
1.63661e-09
-2.64535e-10
1.04218e-08
-5.78682e-09
1.1188e-08
-5.66576e-09
6.03265e-11
-1.91877e-09
-9.42765e-10
-3.6396e-09
6.50114e-09
-5.21222e-09
7.9076e-09
-4.61415e-09
1.81167e-09
-4.35428e-09
5.79214e-09
-3.24954e-09
2.47114e-09
-6.79573e-09
-8.87628e-10
2.79385e-10
9.43516e-10
2.42596e-09
-3.64886e-09
5.88256e-09
-4.51151e-09
6.53655e-09
5.21996e-09
-9.37153e-10
4.38861e-09
-5.52913e-09
1.41991e-09
-3.06516e-09
5.87718e-09
1.57659e-09
1.29737e-09
1.51904e-09
3.06615e-09
5.86884e-09
-6.94882e-09
2.37734e-09
3.5856e-09
-3.89477e-09
2.03948e-09
1.95294e-09
4.12959e-09
1.16881e-08
-1.23438e-09
9.06462e-09
-1.17915e-09
4.2758e-09
6.86438e-09
-1.43029e-09
1.14012e-08
9.69036e-09
-1.96613e-08
-2.22574e-08
6.64324e-09
1.97438e-08
-1.1356e-08
1.26643e-09
8.64784e-09
-1.65186e-09
-8.23036e-09
1.4232e-08
-1.47235e-08
9.55397e-09
-9.06245e-09
7.05709e-09
5.7446e-09
4.37754e-09
8.96288e-09
1.06373e-09
1.69807e-08
8.41629e-09
7.28864e-09
1.38576e-08
2.91198e-09
1.95555e-09
-3.47138e-10
-3.31963e-09
5.04529e-09
-1.14776e-09
-5.77906e-10
-5.45925e-09
-2.05302e-09
7.28871e-09
2.23563e-10
-5.30993e-10
-3.82937e-09
5.03964e-09
-6.79277e-10
-4.91519e-09
5.08345e-09
-6.99248e-10
2.42782e-09
4.88679e-09
-8.94828e-10
5.86968e-09
1.8518e-09
-6.58465e-10
1.44448e-09
2.50735e-09
-7.92808e-11
-2.19735e-09
6.53856e-09
3.4681e-09
-2.14376e-09
-1.92008e-09
4.55585e-09
-4.92005e-10
1.93116e-09
-1.85073e-10
2.2603e-12
-4.20413e-12
5.13731e-09
-2.29636e-09
-1.08275e-09
3.68959e-09
-3.10482e-10
3.41722e-09
1.60286e-09
-1.97742e-10
4.82007e-09
2.94898e-09
-3.34802e-10
-2.39745e-11
-1.54637e-11
1.67963e-09
1.80775e-09
-1.60159e-10
6.51295e-10
2.95949e-09
-4.30523e-10
6.24777e-10
4.06628e-09
4.50263e-10
-1.19698e-10
5.12061e-10
1.6959e-09
6.98543e-10
2.50349e-09
-3.2312e-10
2.97929e-09
6.11847e-09
-6.53363e-10
1.81396e-09
-3.06254e-11
3.41008e-09
3.70148e-11
4.33348e-09
-8.87478e-11
4.30483e-09
-8.51078e-11
3.52882e-09
7.60972e-10
-1.21663e-09
3.83648e-09
1.65011e-09
-5.72338e-10
2.15354e-09
-1.30671e-10
5.22933e-09
-3.67629e-10
5.43351e-09
1.90947e-09
3.34545e-09
3.00869e-11
3.99014e-09
-2.4502e-10
1.58159e-09
-5.67662e-10
2.58571e-09
-2.6864e-10
1.487e-09
-4.4707e-10
-2.59592e-09
5.14667e-09
5.49153e-09
2.02012e-09
-3.42883e-09
4.31743e-09
4.16309e-09
-5.24519e-09
-9.83262e-10
6.75172e-09
-5.23266e-10
3.35013e-10
-4.77952e-09
-8.00681e-10
-4.29806e-09
5.37615e-09
-7.43084e-10
-1.50325e-09
-6.35014e-09
8.19323e-09
-3.39839e-10
6.78623e-09
-7.66355e-09
-6.25924e-10
9.95696e-10
6.23002e-09
-4.39492e-10
-2.42021e-09
-3.98703e-09
6.39231e-09
1.49386e-11
4.84811e-09
-7.02019e-09
-2.48137e-10
-1.40891e-09
6.37816e-09
-1.21144e-10
-6.82444e-09
3.08477e-09
-2.47361e-10
-2.86659e-09
4.68217e-09
-1.46074e-09
-3.54846e-10
-2.03433e-09
-2.20126e-09
4.53556e-09
-2.99973e-10
1.8965e-09
2.44161e-09
1.09539e-09
-5.27527e-09
3.90073e-09
-6.59797e-10
-4.59079e-09
-4.77066e-10
2.53504e-09
-4.33931e-09
-2.24441e-09
7.22997e-09
-6.46243e-10
1.36304e-09
-5.07197e-09
-6.30385e-10
-5.68215e-09
4.25946e-09
-8.21732e-10
-6.30732e-09
8.21793e-09
-5.47563e-10
-5.71588e-09
1.16298e-09
5.31776e-09
-7.64857e-10
-8.51096e-10
-4.40894e-09
-4.55839e-10
-4.82107e-09
4.48513e-09
-5.15155e-10
-6.38153e-09
5.49168e-09
1.31652e-09
-4.26668e-10
-6.74349e-10
-5.20257e-09
-5.04612e-10
-5.60675e-09
5.51979e-09
-5.87388e-10
-6.09142e-09
1.56475e-09
-6.75905e-10
9.12989e-10
-5.54416e-09
4.75025e-09
-1.19085e-10
-4.78952e-09
-1.73669e-11
-9.58937e-10
-4.62418e-09
3.89599e-11
-8.28198e-10
-5.13651e-09
6.15851e-09
-1.93806e-10
5.34906e-09
-5.88648e-09
-2.90778e-10
3.87985e-09
2.94432e-09
-6.63609e-09
-1.88083e-10
-3.44217e-09
6.10222e-09
-2.6759e-09
1.58497e-11
2.1995e-09
-5.5062e-09
-1.35468e-10
6.03536e-09
4.39897e-11
-1.36687e-09
6.20877e-09
-4.67998e-09
-1.61917e-10
4.38887e-09
-5.40694e-09
-3.48796e-10
5.35076e-09
9.67433e-10
-1.09422e-10
1.67991e-09
-6.62677e-09
-6.83483e-10
7.06899e-09
-4.92375e-09
-4.65334e-10
-3.16514e-09
5.48734e-09
-1.84864e-09
-4.73559e-10
1.99393e-09
-4.45198e-09
-7.07093e-10
5.4953e-09
-3.02341e-09
-4.77964e-10
2.34442e-09
-5.92142e-09
3.74905e-09
-1.7205e-10
-3.91226e-09
6.21032e-09
4.6359e-11
-5.69847e-09
5.01407e-09
1.45744e-09
-7.73039e-10
-2.03734e-09
-3.17571e-09
-4.85426e-10
3.75974e-09
-4.95084e-09
-8.46233e-10
-2.05901e-09
6.48254e-09
-6.63792e-10
6.67405e-10
3.69941e-09
7.62728e-10
3.37082e-09
1.63266e-09
4.1436e-09
4.37588e-09
-3.75137e-10
5.17761e-09
-6.58874e-10
-4.18505e-09
4.458e-09
-6.48086e-10
-5.6472e-09
9.79266e-10
4.82879e-10
1.51769e-09
-8.51325e-09
7.4395e-09
4.6316e-10
8.37292e-10
-5.97213e-09
5.29606e-09
-1.61231e-10
5.66574e-09
-4.788e-09
-4.04474e-11
-2.74375e-09
6.27926e-09
-9.72577e-11
-6.25586e-09
3.91904e-09
-4.06928e-10
-3.32001e-09
6.61861e-09
-2.99814e-09
-3.0047e-10
2.35206e-09
-5.2042e-09
-4.67869e-10
-3.44492e-09
6.04766e-09
-2.5068e-10
3.97756e-09
-6.03759e-09
2.18603e-09
-1.26002e-10
-4.92268e-10
4.49565e-09
-2.58282e-11
6.4827e-09
-6.84065e-09
-1.34322e-10
2.49436e-09
-6.19948e-09
3.97306e-09
-2.67943e-10
-3.66971e-09
6.26007e-09
-9.59899e-11
-6.2606e-09
3.18228e-09
-5.91399e-10
-1.77728e-10
2.31037e-09
-2.7831e-09
-1.39196e-10
3.50717e-09
-5.84874e-10
-4.72493e-09
-6.74957e-10
1.70304e-09
-1.353e-09
-6.77345e-09
4.18302e-10
-6.88782e-09
5.21889e-09
3.15936e-10
-6.58161e-09
-2.87066e-09
9.06033e-09
3.9195e-10
-1.56217e-09
-6.33639e-09
7.04784e-09
8.50721e-10
-9.1162e-09
9.72412e-10
-1.04303e-09
5.37488e-09
-4.28999e-09
-4.18687e-11
4.24167e-09
-5.13702e-09
-1.47679e-10
-2.7875e-09
-2.8093e-09
6.24744e-09
-6.50647e-10
-6.15348e-09
4.50706e-09
-1.14108e-09
4.45768e-09
-1.0009e-08
2.80041e-09
2.75094e-09
1.85456e-09
-7.02165e-09
5.4212e-09
-2.54106e-10
-5.92765e-09
7.73821e-09
4.40013e-11
2.92566e-09
-1.08372e-09
8.85183e-10
3.29048e-09
-4.0694e-09
-1.06266e-10
4.91695e-09
-3.98521e-09
-4.6552e-11
-2.83444e-09
6.81764e-09
-4.14228e-09
1.59078e-10
-6.11301e-09
-9.38702e-11
4.62002e-10
5.14355e-09
-8.02377e-11
-4.42269e-09
4.91431e-09
-2.96235e-11
-4.18049e-10
5.6372e-09
-7.56107e-11
8.83527e-10
-1.02957e-10
8.64057e-10
4.953e-09
-5.69172e-09
-1.25333e-10
-4.71733e-09
5.60407e-09
-2.26841e-11
6.66876e-10
-6.34133e-09