/*--------------------------------*- C++ -*----------------------------------*\
| =========                 |                                                 |
| \\      /  F ield         | OpenFOAM: The Open Source CFD Toolbox           |
|  \\    /   O peration     | Version:  v1612+                                |
|   \\  /    A nd           | Web:      www.OpenFOAM.com                      |
|    \\/     M anipulation  |                                                 |
\*---------------------------------------------------------------------------*/
FoamFile
{
    version     2.0;
    format      ascii;
    class       volVectorField;
    location    "166";
    object      U;
}
// * * * * * * * * * * * * * * * * * * * * * * * * * * * * * * * * * * * * * //

dimensions      [0 1 -1 0 0 0 0];

internalField   nonuniform List<vector> 
16930
(
(-0.439849 0.525848 0.752948)
(-0.674154 0.660816 0.610517)
(-0.74281 0.175116 0.273347)
(-0.621725 0.296504 0.0156474)
(-0.451393 0.567019 0.630234)
(-0.737993 0.190033 0.173368)
(-0.738843 0.215002 0.253729)
(-0.730218 0.207003 0.23349)
(-0.722678 0.182171 0.189637)
(-0.725721 0.166318 0.228491)
(-0.73297 0.186255 0.259414)
(-0.707566 0.180657 0.285654)
(-0.690223 0.151399 0.27101)
(-0.676854 0.158728 0.238541)
(-0.673452 0.154823 0.239615)
(-0.708962 0.164726 0.307517)
(-0.667525 0.147785 0.308775)
(-0.702003 0.171133 0.275541)
(-0.721058 0.174146 0.299898)
(-0.674668 0.143393 0.286039)
(-0.741037 0.214216 0.203037)
(-0.735378 0.18871 0.249034)
(-0.728445 0.173227 0.329224)
(-0.703342 0.171139 0.369639)
(-0.742431 0.172175 0.369434)
(-0.743775 0.188286 0.336803)
(-0.7234 0.154908 0.297713)
(-0.698538 0.161228 0.355735)
(-0.749722 0.203302 0.358529)
(-0.760643 0.214705 0.275353)
(-0.758886 0.207009 0.296941)
(-0.758947 0.218513 0.317119)
(-0.69619 0.145547 -0.126711)
(-0.814101 0.201664 -0.182135)
(-0.767239 0.195865 -0.0467057)
(-0.769709 0.154647 0.0034685)
(-0.778888 0.167814 0.059569)
(-0.670794 0.574712 0.41311)
(-0.708764 0.582503 0.402278)
(-0.584645 0.550059 0.383851)
(-0.725743 0.681725 0.516675)
(-0.718266 0.681364 0.566472)
(-0.704782 0.658594 0.45383)
(-0.610554 0.546773 0.381448)
(-0.625471 0.550536 0.422025)
(-0.698262 0.631714 0.539107)
(-0.769407 0.67312 0.523393)
(-0.766279 0.65565 0.499728)
(-0.790833 0.676352 0.544658)
(-0.79392 0.686113 0.580472)
(-0.681815 0.582454 0.435898)
(-0.707958 0.566734 0.450472)
(-0.76907 0.696556 0.590908)
(-0.732957 0.638896 0.549911)
(-0.749572 0.671717 0.537333)
(-0.74837 0.635875 0.527739)
(-0.777818 0.668933 0.563944)
(-0.668648 0.602064 0.551138)
(-0.641955 0.591405 0.549655)
(-0.634184 0.582983 0.53739)
(-0.64336 0.584115 0.551106)
(-0.625415 0.580226 0.538508)
(-0.445455 0.438056 0.398026)
(-0.562845 0.531635 0.482363)
(-0.599356 0.561952 0.520368)
(-0.428773 0.424135 0.391717)
(-0.561186 0.542713 0.484891)
(-0.653152 0.596548 0.55197)
(-0.648381 0.598237 0.560487)
(-0.628404 0.579816 0.544136)
(-0.482843 0.475579 0.43112)
(-0.483216 0.469395 0.445618)
(-0.53862 0.516171 0.476963)
(-0.637172 0.599046 0.560207)
(-0.494344 0.487578 0.45138)
(-0.351935 0.370932 0.320126)
(-0.341229 0.373813 0.325001)
(-0.428689 0.475642 0.406522)
(-0.419657 0.464279 0.407835)
(-0.546286 0.559356 0.507532)
(-0.523447 0.529876 0.481452)
(-0.44231 0.452174 0.413744)
(-0.425782 0.452222 0.389228)
(-0.410119 0.448101 0.377156)
(-0.472771 0.49368 0.420789)
(-0.859091 0.54875 0.36523)
(-0.862359 0.574374 0.471864)
(-0.920856 0.543576 0.487761)
(-0.87702 0.535568 0.460195)
(-0.801878 0.578516 0.154416)
(-0.792784 0.615141 0.22872)
(-0.759566 0.464933 -0.0408441)
(-0.719538 0.530933 -0.029847)
(-0.909263 0.495573 0.301483)
(-0.865075 0.576892 0.518661)
(-0.923838 0.479378 0.428659)
(-0.762674 0.383812 0.00810529)
(-0.926051 0.443257 0.224424)
(-0.747348 0.40143 0.0631425)
(-0.871889 0.41548 0.126674)
(-0.767945 0.494651 -0.0108703)
(-0.840307 0.637151 0.127536)
(-0.804022 0.553982 0.0495303)
(-0.849604 0.564464 0.102907)
(-0.896034 0.52365 0.156264)
(-0.306121 0.269096 0.211185)
(-0.453282 0.40553 0.348098)
(-0.464286 0.441968 0.392307)
(-0.351708 0.315679 0.264608)
(-0.411202 0.383297 0.306597)
(-0.477387 0.481493 0.429923)
(-0.588798 0.739776 0.0734532)
(-0.48132 0.652631 0.124803)
(-0.760575 0.879173 0.137881)
(-0.700682 0.836569 0.116991)
(-0.469072 0.419212 -0.127317)
(-0.392823 0.321912 -0.0791558)
(-0.837157 0.801461 -0.0854911)
(-0.707124 0.719131 -0.0891845)
(-0.583891 0.607835 0.0284172)
(-0.585662 0.594399 -0.156713)
(-0.484789 0.494979 -0.0822031)
(-0.387941 0.356771 -0.156193)
(-0.460099 0.433634 -0.0743717)
(-0.724353 0.652702 0.568288)
(-0.708764 0.638632 0.560812)
(-0.707674 0.61302 0.53805)
(-0.679669 0.598978 0.522935)
(-0.768397 0.668835 0.60403)
(-0.728806 0.651386 0.586466)
(-0.743442 0.666388 0.599375)
(-0.767422 0.684275 0.625399)
(-0.668383 0.576054 0.487751)
(-0.76278 0.671102 0.592315)
(-0.683164 0.587763 0.506867)
(-0.657965 0.574568 0.493229)
(-0.786681 0.648884 0.557352)
(-0.80346 0.686482 0.599017)
(-0.788587 0.660755 0.567348)
(-0.799483 0.68011 0.592509)
(-0.786652 0.676656 0.600456)
(-0.790275 0.693229 0.631389)
(-0.686275 0.574383 0.478735)
(-0.775679 0.650522 0.574666)
(-0.717732 0.600732 0.522442)
(-0.587172 0.938257 0.668149)
(-0.764449 0.883335 0.39746)
(-0.68436 0.936837 0.34685)
(-0.622157 0.968229 0.524458)
(-0.745993 0.888193 0.226056)
(-0.734895 0.876614 0.513533)
(-0.896198 0.8267 0.421045)
(-0.601922 0.975348 0.509553)
(-0.838267 0.883555 0.278565)
(-0.749819 0.899931 0.376776)
(-0.669246 0.841769 0.693985)
(-0.76334 0.823259 0.616239)
(-0.667558 0.868229 0.564922)
(-0.568778 0.949626 0.592327)
(-0.757302 0.839829 0.58471)
(-0.739226 0.85767 0.576554)
(-0.586896 0.922828 0.662311)
(-0.376073 0.293026 0.211837)
(-0.420649 0.31008 0.211133)
(-0.458981 0.414597 0.340392)
(-0.44934 0.424429 0.341415)
(-0.555062 0.376088 0.315996)
(-0.559282 0.372192 0.322166)
(-0.471802 0.328724 0.241917)
(-0.39174 0.280229 0.212282)
(-0.518702 0.358957 0.270039)
(-0.455746 0.310592 0.216765)
(-0.485699 0.441473 0.353739)
(-0.511702 0.465188 0.380465)
(-0.543152 0.405783 0.314387)
(-0.56035 0.457777 0.379984)
(-0.488567 0.428996 0.338089)
(-0.473655 0.331694 0.238414)
(-0.553626 0.45635 0.377188)
(-0.542404 0.374094 0.329007)
(-0.574362 0.424876 0.371994)
(-0.552269 0.391752 0.347604)
(-0.557792 0.441694 0.394418)
(-0.895238 0.468477 -0.19936)
(-0.906264 0.520718 -0.126641)
(-0.90428 0.430344 -0.174264)
(-0.913461 0.386726 0.0820927)
(-0.93955 0.437855 0.0603432)
(-0.953771 0.403509 0.0707719)
(-0.921277 0.418886 0.125037)
(-0.954491 0.430553 0.0685052)
(-0.93748 0.417828 -0.0291746)
(-0.942715 0.490509 -0.0898146)
(-0.970082 0.424866 -0.0464108)
(-0.902024 0.485846 -0.0477127)
(-0.915535 0.463995 -0.016127)
(-0.917243 0.415532 -0.038162)
(-0.911231 0.395128 0.0338478)
(-0.938832 0.469366 0.0570324)
(-0.922322 0.465053 0.00981385)
(-0.456387 0.886559 0.677291)
(-0.436404 0.820503 0.681976)
(-0.511827 0.807865 0.604499)
(-0.578586 0.830209 0.576014)
(-0.415277 0.861727 0.763985)
(-0.398261 0.834953 0.730275)
(-0.370541 0.836573 0.778085)
(-0.472454 0.838274 0.746676)
(-0.475098 0.819458 0.778978)
(-0.473826 0.808357 0.779496)
(-0.412946 0.830438 0.782399)
(-0.435555 0.787199 0.804238)
(-0.501516 0.784982 0.78411)
(-0.505109 0.784038 0.649517)
(-0.838752 0.692721 -0.243274)
(-0.830093 0.678573 -0.307921)
(-0.845252 0.654483 -0.255454)
(-0.871697 0.664112 0.121644)
(-0.797908 0.644863 0.142658)
(-0.80582 0.705152 -0.0642788)
(-0.848899 0.689253 0.0409686)
(-0.865279 0.633878 -0.378384)
(-0.872437 0.684018 -0.172999)
(-0.745368 0.668713 -0.0337765)
(-0.73382 0.633522 0.135242)
(-0.835053 0.673606 -0.0103073)
(-0.87272 0.720169 0.0503861)
(-0.772135 0.601604 -0.00441922)
(-0.773805 0.683281 -0.172534)
(-0.805738 0.649121 -0.353748)
(-0.758308 0.658822 -0.280565)
(-0.85286 0.675423 -0.2736)
(-0.786066 0.627277 -0.0784654)
(-0.838593 0.714652 -0.0893487)
(-0.411286 0.330425 0.0310663)
(-0.54745 0.409368 -0.0157406)
(-0.271803 0.278532 0.0419048)
(-0.5113 0.481708 0.0592911)
(-0.173594 0.100323 -0.0077723)
(-0.16604 0.0468171 -0.0529687)
(-0.0689282 -0.00829159 -0.0397417)
(-0.297708 0.256453 0.0381774)
(-0.251655 0.240573 -0.0261392)
(-0.45844 0.363307 -0.0834926)
(0.014034 -0.0586769 -0.0276676)
(-0.0513632 -0.0107272 -0.0353274)
(0.0300992 -0.0925919 -0.0272621)
(-0.146741 0.0474688 -0.0377539)
(-0.0637306 -0.0293633 0.0218491)
(-0.0470634 -0.000943208 -0.028729)
(0.0391769 -0.113622 -0.0388575)
(0.0433211 -0.119648 -0.019171)
(-0.013724 -0.0887159 -0.0021467)
(-0.329002 0.203065 -0.0606701)
(-0.175966 0.122508 -0.0562023)
(0.0104137 -0.104959 -0.011303)
(0.118234 -0.151316 -0.121024)
(0.106335 -0.143305 -0.10534)
(0.126021 -0.1593 -0.124718)
(0.0449099 -0.13528 -0.0524612)
(0.0797074 -0.143899 -0.0881935)
(0.0988161 -0.169387 -0.104223)
(0.122443 -0.170797 -0.122518)
(-0.036374 -0.122054 -0.0651157)
(0.0602278 -0.148121 -0.101609)
(0.10855 -0.169904 -0.12288)
(0.0771788 -0.175229 -0.108796)
(-0.0196683 -0.149307 -0.0792172)
(-0.118159 -0.0949441 -0.0138558)
(-0.115077 -0.0753508 -0.0122713)
(-0.0662984 -0.115613 -0.0365977)
(0.0220271 -0.155182 -0.0633462)
(0.09136 -0.168941 -0.105145)
(0.0023534 -0.132054 -0.0625398)
(-0.125267 -0.0749224 0.00469456)
(-0.216766 -0.0380071 0.0228362)
(-0.029152 -0.12621 -0.0342407)
(-0.158446 -0.0846503 0.0222635)
(-0.520745 0.618717 0.663097)
(-0.490561 0.582997 0.615599)
(-0.487568 0.578673 0.650908)
(-0.516744 0.59802 0.676602)
(-0.465693 0.559376 0.488323)
(-0.519372 0.607905 0.601309)
(-0.452095 0.545574 0.515872)
(-0.467769 0.573809 0.597966)
(-0.481803 0.554323 0.648134)
(-0.465369 0.554658 0.548585)
(-0.555744 0.626986 0.625925)
(-0.531321 0.610376 0.672958)
(-0.484199 0.572505 0.67692)
(-0.508173 0.596601 0.691552)
(-0.540862 0.63532 0.797098)
(-0.509612 0.63468 0.804494)
(-0.483054 0.660294 0.850575)
(-0.481613 0.630259 0.836467)
(-0.448493 0.579612 0.917003)
(-0.440548 0.57153 0.913983)
(-0.420478 0.599045 0.914211)
(-0.37564 0.611446 0.919025)
(-0.472664 0.570494 0.924965)
(-0.459972 0.561313 0.929536)
(-0.520334 0.623192 0.851429)
(-0.526186 0.586547 0.855099)
(-0.401935 0.645093 0.937573)
(-0.379138 0.57865 0.915954)
(-0.498355 0.597182 0.933176)
(-0.427579 0.605113 0.952482)
(-0.495577 0.48775 0.697275)
(-0.521234 0.485885 0.696974)
(-0.490417 0.498234 0.776613)
(-0.484797 0.499638 0.773111)
(-0.507311 0.488758 0.777746)
(-0.501194 0.490105 0.695874)
(-0.465409 0.508081 0.725752)
(-0.480247 0.49669 0.728384)
(-0.458857 0.490525 0.745466)
(-0.466574 0.502487 0.704203)
(-0.524127 0.467762 0.661388)
(-0.552688 0.47277 0.748351)
(-0.507741 0.461226 0.650974)
(-0.531265 0.454654 0.633986)
(-0.545371 0.483848 0.70309)
(-0.551725 0.482154 0.748181)
(-0.491988 0.478702 0.748224)
(-0.523969 0.489878 0.731018)
(-0.517418 0.475878 0.722567)
(-0.547351 0.483212 0.699507)
(-0.521417 0.480895 0.709605)
(-0.515882 0.477583 0.677371)
(0.068676 -0.170307 -0.129417)
(-0.385658 0.108557 0.0471496)
(-0.271952 0.0538855 0.0388302)
(-0.244139 0.0525229 -0.00557848)
(-0.196045 0.00720271 -0.00369283)
(-0.010259 -0.0816938 -0.080958)
(-0.0279035 -0.0897114 -0.0740276)
(-0.353186 0.0737126 0.00537814)
(-0.284078 0.0415748 -0.00234809)
(-0.250417 0.0378338 0.0268239)
(-0.0833733 0.0224925 -0.0658799)
(-0.00151438 -0.0992247 -0.0986168)
(-0.0879806 0.00925669 -0.0667749)
(-0.0113318 -0.0655486 -0.0815137)
(-0.0906752 -0.041647 -0.04814)
(-0.21887 0.0142071 -0.0108263)
(-0.0606188 -0.0754331 -0.0638461)
(-0.162317 -0.017532 -0.00604536)
(-0.374792 0.456766 0.0522255)
(-0.39848 0.506039 0.0800764)
(-0.357071 0.418723 0.0397242)
(-0.165566 0.165117 0.0114433)
(-0.0461469 0.0333924 0.00262893)
(-0.0734963 0.00190033 0.00636931)
(-0.0729018 0.0224207 -0.0249855)
(0.0575963 -0.0948662 -0.0565596)
(-0.0301767 0.0485583 -0.023597)
(-0.0232475 -0.0413392 -0.000491865)
(-0.863003 0.556632 -0.319734)
(-0.865207 0.64059 -0.180262)
(-0.841344 0.486158 -0.439971)
(-0.838934 0.593915 -0.307028)
(-0.911111 0.506661 -0.286648)
(-0.901444 0.636479 -0.0679582)
(-0.938424 0.612952 -0.0166707)
(-0.944648 0.539395 -0.125302)
(-0.772632 0.568431 -0.428658)
(-0.83327 0.489411 -0.480546)
(-0.837386 0.509859 -0.37941)
(-0.870609 0.523751 -0.423753)
(-0.866508 0.686647 -0.126594)
(-0.894664 0.664564 -0.186724)
(-0.855978 0.587012 -0.328088)
(-0.896503 0.600933 -0.163253)
(-0.800788 0.547723 -0.406785)
(-0.820272 0.542065 -0.467433)
(-0.933392 0.503113 -0.291946)
(-0.85738 0.506712 -0.391293)
(-0.771274 0.712642 0.105035)
(-0.700394 0.577133 0.00444558)
(-0.790052 0.620045 0.0427114)
(-0.708025 0.52274 -0.152364)
(-0.760913 0.505688 -0.244129)
(-0.732735 0.520823 -0.114936)
(-0.711818 0.479693 -0.0850924)
(-0.778958 0.665793 0.110348)
(-0.848067 0.71446 0.06996)
(-0.735392 0.572665 -0.0168119)
(-0.805659 0.64921 0.0521998)
(-0.807977 0.660424 -0.0514093)
(-0.729333 0.562911 -0.0822952)
(-0.771542 0.559017 -0.0214989)
(-0.832146 0.733652 0.053564)
(-0.799785 0.636046 0.0651238)
(-0.850284 0.675102 0.025192)
(-0.862615 0.710616 0.0663005)
(-0.839274 0.676558 -0.0107037)
(-0.744633 0.533829 -0.105731)
(-0.797247 0.666343 -0.0299335)
(-0.88334 0.434083 0.614017)
(-0.858481 0.4492 0.646031)
(-0.813304 0.405407 0.725963)
(-0.856073 0.37154 0.727482)
(-0.870989 0.381204 0.696164)
(-0.829177 0.366266 0.726015)
(-0.877079 0.458463 0.478649)
(-0.838876 0.420177 0.510204)
(-0.889662 0.429875 0.444589)
(-0.886931 0.382949 0.558186)
(-0.882959 0.359792 0.680091)
(-0.849987 0.357697 0.688541)
(-0.890425 0.394551 0.659248)
(-0.896005 0.435428 0.57051)
(-0.840228 0.375006 0.740655)
(-0.874833 0.425114 0.539887)
(-0.905365 0.420974 0.569449)
(-0.899091 0.380919 0.56311)
(-0.86185 0.392907 0.62106)
(-0.903727 0.424844 0.489255)
(-0.907567 0.406475 0.548178)
(-0.867424 0.401846 0.6443)
(-0.556333 0.458791 0.471114)
(-0.549505 0.356709 0.365678)
(-0.563073 0.413128 0.426874)
(-0.611388 0.363492 0.372483)
(-0.650856 0.311038 0.469094)
(-0.632407 0.447027 0.594189)
(-0.616608 0.428905 0.587828)
(-0.686364 0.32302 0.442823)
(-0.594786 0.453908 0.575556)
(-0.614862 0.417041 0.651971)
(-0.655057 0.353598 0.546415)
(-0.65089 0.351324 0.553472)
(-0.605652 0.402241 0.541973)
(-0.608203 0.423733 0.622507)
(-0.63181 0.387354 0.673802)
(-0.633709 0.340196 0.604604)
(-0.855437 0.263349 0.341199)
(-0.818991 0.24054 0.363989)
(-0.856456 0.265856 0.366806)
(-0.831639 0.264969 0.411571)
(-0.856374 0.226972 0.337675)
(-0.817612 0.268474 0.437312)
(-0.847667 0.27761 0.230409)
(-0.868722 0.325662 0.303754)
(-0.916871 0.209869 0.164771)
(-0.849862 0.295013 0.478836)
(-0.866493 0.287723 0.407792)
(-0.890989 0.331754 0.379951)
(-0.858178 0.296532 0.447819)
(-0.891351 0.313064 0.217064)
(-0.87973 0.33928 0.318998)
(-0.847339 0.332943 0.445671)
(-0.887653 0.355387 0.420262)
(-0.897771 0.395246 0.290954)
(-0.244969 0.103226 0.0917319)
(-0.223773 0.155202 0.166064)
(-0.335152 0.132287 0.0942757)
(-0.283003 0.176702 0.107741)
(-0.233823 0.218843 0.216028)
(-0.183201 0.109312 0.0531391)
(-0.289286 0.131845 0.0748211)
(-0.170928 0.201843 0.187949)
(-0.324781 0.154892 0.0677806)
(-0.246598 0.151779 0.0546941)
(-0.19397 0.199227 0.155973)
(-0.224592 0.203807 0.223119)
(-0.120827 0.0312591 0.0680046)
(-0.231404 0.177649 0.160313)
(-0.181865 0.0815107 0.0788226)
(-0.215445 0.18034 0.186358)
(-0.140987 0.0397338 0.0533503)
(-0.300852 0.14708 0.0659817)
(-0.717037 0.760985 -0.031147)
(-0.781468 0.789135 0.0128306)
(-0.824711 0.783506 -0.0804115)
(-0.803252 0.828099 0.0809696)
(-0.709245 0.462611 -0.423709)
(-0.777653 0.616748 -0.307862)
(-0.794541 0.568939 -0.417718)
(-0.610576 0.447813 -0.416641)
(-0.689521 0.484489 -0.50816)
(-0.786615 0.702569 -0.130533)
(-0.822792 0.750364 -0.000888163)
(-0.788944 0.748557 -0.0648921)
(-0.80395 0.676093 -0.163181)
(-0.701637 0.561018 0.342058)
(-0.617767 0.488585 0.315114)
(-0.660554 0.532043 0.33792)
(-0.5467 0.457626 0.27305)
(-0.604108 0.475477 0.220378)
(-0.730744 0.53694 0.268931)
(-0.721752 0.529906 0.222774)
(-0.706358 0.573498 0.403411)
(-0.638563 0.504981 0.361782)
(-0.668546 0.535584 0.211458)
(-0.651273 0.531745 0.340755)
(-0.57885 0.52274 0.349666)
(-0.578109 0.49135 0.233749)
(-0.660308 0.517218 0.206151)
(-0.676278 0.522216 0.224798)
(-0.775243 0.52205 0.469238)
(-0.703113 0.657297 0.664271)
(-0.712608 0.643856 0.478148)
(-0.660089 0.549723 0.54207)
(-0.710328 0.657079 0.580851)
(-0.719814 0.719116 0.54364)
(-0.716815 0.512752 0.382689)
(-0.742336 0.557051 0.431337)
(-0.724629 0.635317 0.396089)
(-0.706701 0.493759 0.536844)
(-0.668592 0.575226 0.583755)
(-0.592219 0.630344 0.775218)
(-0.622302 0.643568 0.738147)
(-0.640119 0.661925 0.591324)
(-0.608994 0.634071 0.673481)
(-0.656763 0.547397 0.622425)
(-0.595568 0.675579 0.74048)
(-0.544901 0.662347 0.768967)
(-0.180542 0.0027849 0.0123242)
(-0.175631 -0.00929968 -0.00559215)
(-0.196891 0.117063 0.0310368)
(-0.0658221 -0.0146099 -0.0416923)
(-0.290287 0.23522 0.0726024)
(-0.10266 0.0483266 0.0970603)
(-0.268219 0.184371 0.088743)
(-0.0902824 0.0551401 0.0478468)
(-0.148276 0.0190304 0.0460876)
(-0.0846507 -0.0325742 -0.000775852)
(-0.395415 0.27343 0.0902883)
(-0.125355 0.00590047 0.045526)
(-0.0848939 0.0557361 0.0377565)
(-0.800768 0.524298 0.107753)
(-0.751299 0.449099 0.0177269)
(-0.850025 0.491747 0.226854)
(-0.841181 0.480371 0.134581)
(-0.772867 0.464855 0.0101911)
(-0.842918 0.439748 0.0306272)
(-0.945886 0.504608 0.469137)
(-0.859956 0.475502 0.154636)
(-0.823104 0.487582 0.0807699)
(-0.751662 0.432672 0.00122179)
(-0.918475 0.519143 0.0505143)
(-0.943473 0.490501 0.309966)
(-0.92684 0.484129 0.413337)
(-0.915646 0.545476 0.505561)
(-0.86752 0.529901 0.548218)
(-0.876632 0.578132 0.150365)
(-0.872394 0.587698 0.103898)
(-0.884151 0.570233 0.533243)
(-0.857095 0.542667 0.547445)
(-0.857731 0.513522 0.340703)
(-0.881383 0.595419 0.327108)
(-0.890476 0.590358 0.452876)
(-0.867118 0.526861 0.490445)
(-0.225542 0.794634 0.394342)
(-0.215491 0.800089 0.443284)
(-0.270612 0.811827 0.43853)
(-0.236396 0.811247 0.406679)
(-0.247957 0.808163 0.463382)
(-0.424686 0.91773 0.568131)
(-0.493849 0.912142 0.475835)
(-0.470205 0.908404 0.539341)
(-0.29343 0.856973 0.501016)
(-0.486983 0.952055 0.482675)
(-0.25726 0.903449 0.509779)
(-0.26308 0.92799 0.564608)
(-0.432238 0.865037 0.436293)
(-0.350984 0.936396 0.601346)
(-0.305074 0.968391 0.606497)
(-0.69303 0.516823 0.106692)
(-0.777482 0.475485 0.128567)
(-0.806095 0.479445 0.156899)
(-0.816281 0.547872 0.204077)
(-0.718534 0.538492 0.17952)
(-0.780535 0.528462 0.205251)
(-0.800018 0.509258 0.13742)
(-0.821905 0.456016 0.0959631)
(-0.804765 0.503775 0.0830717)
(-0.784305 0.532367 0.150319)
(-0.653782 0.515387 0.0414128)
(-0.741584 0.512185 0.00881196)
(-0.796442 0.551374 0.205397)
(-0.750942 0.519109 0.192449)
(-0.644665 0.495009 0.247264)
(-0.562531 0.459441 0.046363)
(-0.725988 0.531855 0.001866)
(-0.445164 0.324207 0.134716)
(-0.563398 0.432661 0.194551)
(-0.576502 0.420831 0.0978668)
(-0.706019 0.557643 0.247856)
(-0.772756 0.532449 0.06214)
(-0.728651 0.54261 0.153772)
(-0.920887 0.49292 0.255322)
(-0.89008 0.500721 0.206437)
(-0.898143 0.418749 0.439726)
(-0.866584 0.482199 0.289892)
(-0.916128 0.381922 0.504078)
(-0.891494 0.428185 0.438889)
(-0.915908 0.432985 0.444541)
(-0.911104 0.380039 0.524206)
(-0.914156 0.47725 0.253058)
(-0.893819 0.443314 0.299448)
(-0.905049 0.424039 0.414238)
(-0.883525 0.487203 0.28968)
(-0.933799 0.441081 0.40071)
(-0.948856 0.432302 0.380046)
(-0.945503 0.384628 0.411611)
(-0.943586 0.407465 0.364882)
(-0.810226 0.641817 -0.0758042)
(-0.839948 0.715654 -0.0443288)
(-0.866753 0.730369 -0.0325652)
(-0.804907 0.592293 -0.16141)
(-0.740259 0.52436 -0.244053)
(-0.854621 0.701535 -0.119704)
(-0.851636 0.703306 -0.158176)
(-0.810193 0.621525 -0.13087)
(-0.754951 0.559648 -0.292032)
(-0.778232 0.595658 -0.392859)
(-0.875003 0.633389 -0.318443)
(-0.87981 0.566665 -0.222594)
(-0.839045 0.587806 -0.297284)
(-0.839744 0.615979 -0.201005)
(-0.82188 0.674422 -0.232154)
(-0.824139 0.585333 -0.343709)
(-0.462171 0.13635 -0.750352)
(-0.493766 0.169495 -0.761981)
(-0.498749 0.18506 -0.69916)
(-0.609388 0.199681 -0.808666)
(-0.601066 0.219667 -0.778982)
(-0.659135 0.22426 -0.859607)
(-0.525641 0.235403 -0.711562)
(-0.759904 0.231049 -0.987004)
(-0.656145 0.199348 -0.85703)
(-0.539025 0.126018 -0.861041)
(-0.550982 0.209482 -0.86506)
(-0.554053 0.157499 -0.841899)
(-0.563807 0.154095 -0.93223)
(-0.340948 0.636382 0.804677)
(-0.353296 0.616396 0.816723)
(-0.402252 0.626662 0.732479)
(-0.433626 0.585285 0.695875)
(-0.419979 0.579288 0.784603)
(-0.387929 0.66666 0.712577)
(-0.305106 0.653937 0.794982)
(-0.329199 0.625203 0.789401)
(-0.40557 0.557922 0.733081)
(-0.381366 0.663892 0.701403)
(-0.302295 0.645266 0.788903)
(-0.293843 0.661943 0.79511)
(-0.630371 0.591126 0.540865)
(-0.706298 0.635959 0.609705)
(-0.743308 0.662392 0.633944)
(-0.680953 0.609298 0.57761)
(-0.766784 0.655367 0.628532)
(-0.719009 0.646955 0.614406)
(-0.648185 0.602513 0.553049)
(-0.651668 0.596315 0.542526)
(-0.769331 0.651095 0.632744)
(-0.754739 0.654353 0.62941)
(-0.729033 0.644461 0.618643)
(-0.737342 0.652695 0.629434)
(-0.730972 0.636871 0.620031)
(-0.738755 0.635616 0.611919)
(-0.735077 0.634921 0.613804)
(-0.737032 0.643574 0.628549)
(-0.747284 0.644995 0.619649)
(-0.71887 0.634132 0.617803)
(-0.744095 0.647102 0.627297)
(-0.68323 0.367332 -0.445363)
(-0.639168 0.339057 -0.418985)
(-0.694526 0.404688 -0.551572)
(-0.562206 0.30631 -0.410347)
(-0.774202 0.488213 -0.49482)
(-0.793825 0.397173 -0.571698)
(-0.769132 0.370899 -0.665295)
(-0.827057 0.316082 -0.583553)
(-0.829276 0.376959 -0.520701)
(-0.860774 0.36452 -0.481901)
(-0.938647 0.478765 -0.196183)
(-0.966312 0.455446 -0.184621)
(-0.954395 0.461615 -0.182103)
(-0.931745 0.499182 -0.281512)
(-0.942058 0.487075 -0.413695)
(-0.806884 0.522679 -0.265883)
(-0.820863 0.497556 -0.375773)
(-0.555509 0.320564 -0.236013)
(-0.582478 0.246963 -0.172992)
(-0.573684 0.1741 -0.0544831)
(-0.580363 0.176205 -0.0759292)
(-0.580352 0.199501 -0.0889391)
(-0.568688 0.181672 -0.121152)
(-0.560888 0.168889 -0.0970978)
(-0.562412 0.156305 -0.0506301)
(-0.564937 0.232174 -0.261028)
(-0.584494 0.234541 -0.253148)
(-0.560948 0.271124 -0.168439)
(-0.562594 0.268705 -0.171044)
(-0.574737 0.181326 -0.0672735)
(-0.536299 0.235196 -0.17688)
(-0.566196 0.216367 -0.109436)
(-0.665179 0.372997 0.18655)
(-0.624614 0.385071 0.160194)
(-0.587496 0.421069 0.158306)
(-0.643044 0.422988 0.156867)
(-0.637013 0.434497 0.242547)
(-0.618048 0.44048 0.236981)
(-0.757866 0.490529 0.504697)
(-0.742904 0.50871 0.484308)
(-0.735649 0.476046 0.529991)
(-0.752701 0.484577 0.543505)
(-0.644059 0.383597 0.254689)
(-0.747644 0.484442 0.570948)
(-0.74885 0.485815 0.59231)
(-0.69586 0.420923 0.275593)
(-0.656607 0.420285 0.28019)
(-0.631177 0.410403 0.305812)
(-0.735062 0.439124 0.513849)
(-0.699816 0.432539 0.494123)
(-0.714886 0.430777 0.259458)
(-0.762584 0.425978 0.32108)
(-0.743539 0.440414 0.406244)
(-0.722116 0.421826 0.350259)
(-0.941117 0.415184 0.299913)
(-0.968922 0.41936 0.31124)
(-0.981739 0.384214 0.376019)
(-0.904058 0.455582 0.332837)
(-0.948135 0.45629 0.375867)
(-0.913577 0.50828 0.132736)
(-0.834029 0.496665 0.276731)
(-0.921131 0.469475 0.220205)
(-0.905849 0.452454 0.327144)
(-0.966254 0.428738 0.389755)
(-0.92117 0.481522 0.201761)
(-0.889277 0.47091 0.298121)
(-0.906728 0.484038 0.208029)
(-0.236848 0.609104 0.226809)
(-0.180863 0.638784 0.206125)
(-0.278344 0.591982 0.224149)
(-0.152897 0.64475 0.213687)
(-0.0552835 0.291214 0.0215193)
(-0.075603 0.298104 0.0233413)
(-0.0235979 0.310374 0.00588871)
(-0.055617 0.341535 0.0449107)
(-0.103386 0.511542 0.12813)
(-0.0836427 0.491467 0.10122)
(-0.0437607 0.256543 0.00617451)
(-0.114487 0.249583 0.0170152)
(-0.191205 0.344447 0.0782386)
(-0.126243 0.596814 0.163564)
(-0.192996 0.40935 0.127387)
(-0.0321098 0.391677 0.0577722)
(-0.07808 0.298318 0.018283)
(-0.182589 0.547792 0.149774)
(-0.224595 0.511475 0.171387)
(-0.252526 0.716211 0.820317)
(-0.276027 0.743481 0.806407)
(-0.279563 0.779141 0.827302)
(-0.263382 0.743796 0.845525)
(-0.253379 0.707796 0.835192)
(-0.315679 0.688021 0.889366)
(-0.272317 0.664297 0.839302)
(-0.327692 0.686514 0.86595)
(-0.314548 0.656763 0.875047)
(-0.354112 0.660239 0.889835)
(-0.367095 0.777206 0.814503)
(-0.315293 0.741417 0.885093)
(-0.398035 0.686717 0.849762)
(-0.388832 0.74107 0.85033)
(-0.893377 0.337155 0.630157)
(-0.887954 0.339702 0.630377)
(-0.916695 0.360543 0.658062)
(-0.875738 0.354366 0.678896)
(-0.87048 0.330072 0.69893)
(-0.931058 0.42699 0.493254)
(-0.923812 0.404513 0.528029)
(-0.892021 0.388146 0.638535)
(-0.950545 0.429164 0.445527)
(-0.898383 0.445847 0.567494)
(-0.0724186 -0.0332757 -0.0863096)
(-0.100126 0.0160773 -0.133251)
(-0.0895663 -0.0185431 -0.0888705)
(-0.102736 0.0430964 -0.0912131)
(-0.0254713 -0.0732759 -0.099008)
(-0.0300824 0.00333396 -0.0787437)
(-0.00343617 -0.0744919 -0.066476)
(0.00846713 -0.0632414 -0.0834417)
(0.0106689 -0.0843076 -0.101245)
(0.00704783 -0.1169 -0.0919134)
(0.00759132 -0.0400033 -0.103864)
(0.055347 -0.118393 -0.100294)
(0.0435959 -0.127871 -0.108843)
(0.0127268 -0.0600438 -0.104566)
(0.0390034 -0.108161 -0.115681)
(0.0599389 -0.153011 -0.120846)
(-0.444163 0.134689 0.419258)
(-0.469219 0.181639 0.494516)
(-0.588276 0.268316 0.596882)
(-0.519102 0.178792 0.472964)
(-0.570083 0.248418 0.595621)
(-0.515841 0.199888 0.530475)
(-0.385275 0.102167 0.303885)
(-0.64516 0.321697 0.542183)
(-0.595276 0.271626 0.462893)
(-0.547924 0.226413 0.603145)
(-0.600339 0.29524 0.649526)
(-0.605203 0.235252 0.587329)
(-0.616061 0.265241 0.445615)
(-0.6515 0.305771 0.552999)
(-0.595798 0.268978 0.362881)
(-0.447875 0.130257 0.286116)
(-0.641495 0.276204 0.395873)
(-0.499257 0.194975 0.312533)
(-0.735513 0.246152 0.147575)
(-0.74953 0.245905 0.111771)
(-0.802523 0.212593 0.260603)
(-0.799176 0.258433 0.111134)
(-0.783897 0.278961 0.129807)
(-0.811759 0.232983 0.281002)
(-0.784555 0.24209 0.293552)
(-0.828692 0.26999 0.179062)
(-0.824584 0.264323 0.142263)
(-0.481767 0.426865 0.242287)
(-0.478994 0.392408 0.223559)
(-0.407172 0.357144 0.277575)
(-0.426691 0.387429 0.238688)
(-0.518571 0.50593 0.313062)
(-0.550243 0.536598 0.348806)
(-0.529476 0.491888 0.265511)
(-0.458229 0.412699 0.31189)
(-0.523757 0.453167 0.39002)
(-0.521711 0.513984 0.355427)
(-0.579484 0.527173 0.400945)
(-0.658289 0.568689 0.44435)
(-0.818356 0.382181 -0.0748568)
(-0.752219 0.289951 -0.0595939)
(-0.642751 0.234077 0.0602237)
(-0.575098 0.213316 0.0118388)
(-0.544215 0.266476 -0.203861)
(-0.637626 0.293244 -0.130561)
(-0.828953 0.328032 0.0397624)
(-0.533612 0.252938 -0.158304)
(-0.636999 0.313086 -0.153276)
(-0.613805 0.291509 -0.132279)
(-0.623836 0.301581 -0.14453)
(-0.339128 0.179783 -0.147309)
(-0.499646 0.166207 0.0118963)
(-0.639673 0.212281 0.0875934)
(-0.810223 0.333638 0.0526422)
(-0.400336 0.191984 -0.0625642)
(-0.525029 0.200788 0.0334285)
(-0.672114 0.265272 0.0611143)
(-0.114417 0.374779 0.0897029)
(-0.103054 0.40863 0.0971741)
(-0.160995 0.547348 0.159062)
(-0.144298 0.478657 0.125151)
(-0.121805 0.331379 0.0590302)
(-0.272788 0.714164 0.293482)
(-0.213809 0.653972 0.264618)
(-0.249142 0.454446 0.129007)
(-0.220234 0.337075 0.073418)
(-0.363387 0.57903 0.179723)
(-0.35791 0.534317 0.151779)
(-0.133447 0.359726 0.0582585)
(-0.153952 0.477569 0.125712)
(-0.217059 0.633046 0.224913)
(-0.191113 0.55196 0.193646)
(-0.481152 0.747074 0.241857)
(-0.365664 0.717891 0.250595)
(-0.273863 0.631698 0.226335)
(-0.230754 0.639924 0.228085)
(-0.38238 0.7027 0.257833)
(-0.417844 0.733025 0.275974)
(-0.251338 0.40528 0.10876)
(-0.290087 0.52657 0.157839)
(-0.20406 0.436728 0.116419)
(-0.828691 0.333865 0.596213)
(-0.789775 0.290606 0.663075)
(-0.814796 0.282739 0.618181)
(-0.742934 0.267882 0.68816)
(-0.824141 0.317086 0.580315)
(-0.823732 0.308584 0.598277)
(-0.786177 0.230098 0.610484)
(-0.815676 0.228917 0.578717)
(-0.76687 0.208363 0.581202)
(-0.865167 0.272978 0.370979)
(-0.894305 0.279457 0.42034)
(-0.760098 0.251668 0.561513)
(-0.821077 0.307678 0.510572)
(-0.884119 0.285032 0.526653)
(-0.805876 0.195791 0.493209)
(-0.768055 0.217724 0.523524)
(-0.855336 0.247644 0.523024)
(-0.8194 0.237374 0.491857)
(-0.865323 0.287144 0.469726)
(-0.786346 0.28811 0.585668)
(-0.761664 0.21886 0.55117)
(-0.790036 0.223982 0.515798)
(-0.17412 -0.0638173 0.0738293)
(-0.126011 -0.0660388 0.0394231)
(-0.546099 0.124341 0.227709)
(-0.547971 0.133543 0.225426)
(-0.635435 0.175797 0.335845)
(-0.619179 0.162404 0.318051)
(-0.222528 -0.0637932 0.0937433)
(-0.245692 -0.0178767 0.139417)
(-0.147654 -0.0247611 0.0692456)
(-0.302464 -0.020623 0.141613)
(-0.254131 -9.60178e-05 0.138281)
(-0.454941 0.0746589 0.283798)
(-0.347509 0.042003 0.200749)
(-0.579646 0.122326 0.27704)
(-0.246575 -0.0351415 0.0792163)
(-0.275487 -0.0356721 0.0611834)
(-0.503936 0.0782144 0.326922)
(-0.418337 0.0689699 0.268634)
(-0.658679 0.18909 0.395201)
(-0.553999 0.0920767 0.322668)
(-0.41753 0.0188128 0.218919)
(-0.377483 0.020094 0.124761)
(-0.522289 0.443985 0.589476)
(-0.522313 0.43705 0.577019)
(-0.5094 0.464164 0.706427)
(-0.515662 0.458209 0.674296)
(-0.500664 0.450415 0.604545)
(-0.481359 0.469412 0.678549)
(-0.500769 0.476505 0.707372)
(-0.482587 0.517085 0.603813)
(-0.486834 0.49166 0.601303)
(-0.442949 0.542795 0.72343)
(-0.432696 0.528648 0.749924)
(-0.421395 0.544281 0.789495)
(-0.458906 0.495983 0.734286)
(-0.407798 0.557028 0.753802)
(-0.410134 0.550415 0.754311)
(-0.422677 0.518571 0.777736)
(-0.456686 0.519817 0.796985)
(-0.376334 0.229163 -0.141094)
(-0.308401 0.187492 -0.0262045)
(-0.304021 0.221925 -0.0466498)
(-0.323679 0.23875 -0.105375)
(-0.45232 0.201751 -0.0986794)
(-0.614589 0.300916 -0.163888)
(-0.466008 0.328338 -0.0888353)
(-0.434457 0.320392 -0.0636601)
(-0.608223 0.412688 -0.198669)
(-0.728215 0.473548 -0.148612)
(-0.308976 0.250549 -0.0122876)
(-0.591467 0.299229 -0.0290609)
(-0.664636 0.415598 -0.228811)
(-0.481763 0.35184 -0.0752597)
(-0.509739 0.309442 -0.0105833)
(-0.619353 0.439961 -0.0492102)
(-0.954591 0.399202 0.233524)
(-0.923782 0.404405 -0.185396)
(-0.92286 0.412016 -0.3843)
(-0.931609 0.486887 -0.218861)
(-0.946897 0.355942 0.0432213)