/*--------------------------------*- C++ -*----------------------------------*\
| =========                 |                                                 |
| \\      /  F ield         | OpenFOAM: The Open Source CFD Toolbox           |
|  \\    /   O peration     | Version:  v1612+                                |
|   \\  /    A nd           | Web:      www.OpenFOAM.com                      |
|    \\/     M anipulation  |                                                 |
\*---------------------------------------------------------------------------*/
FoamFile
{
    version     2.0;
    format      ascii;
    class       surfaceScalarField;
    location    "206";
    object      phi;
}
// * * * * * * * * * * * * * * * * * * * * * * * * * * * * * * * * * * * * * //

dimensions      [0 3 -1 0 0 0 0];

internalField   nonuniform List<scalar> 
41864
(
1.31879e-09
7.38753e-09
-6.36142e-09
-2.34489e-09
3.69608e-09
-2.41271e-09
3.54388e-11
1.33843e-09
-2.97881e-09
9.0279e-09
-6.3975e-10
5.67424e-09
2.05161e-09
-2.49112e-09
-5.92196e-09
9.78554e-09
-1.48461e-09
-1.79706e-09
8.60367e-09
3.98821e-09
-6.53536e-09
5.60162e-11
1.80152e-09
-2.26012e-10
1.12793e-08
-9.14411e-09
-3.6199e-09
1.94775e-09
7.53445e-09
-3.48766e-09
-2.50075e-09
5.34865e-09
-1.6492e-09
-3.68985e-11
6.81786e-09
-7.37087e-09
-1.15305e-08
-5.13451e-09
6.98587e-09
9.67915e-09
1.42049e-09
-1.87766e-09
-1.10734e-08
9.86583e-09
-2.75586e-10
-8.16978e-09
3.82232e-09
9.08998e-10
-4.04847e-09
-2.90799e-09
3.29017e-10
6.6274e-09
2.65307e-10
-4.32054e-10
-3.88175e-09
-1.39592e-09
-5.31178e-09
6.4321e-09
-3.97968e-09
-2.31652e-09
3.38818e-09
-3.6983e-09
-1.60922e-11
-2.86371e-10
5.62882e-09
-6.0134e-09
6.70913e-10
-4.11742e-09
1.32734e-10
-5.91207e-09
-3.5057e-09
9.74673e-09
-6.44783e-10
1.71854e-09
1.46862e-09
1.84364e-09
1.42463e-09
4.46016e-10
-7.88408e-09
-4.08872e-09
-6.47629e-09
4.43918e-09
-7.6403e-09
5.19172e-10
-9.07195e-09
-1.84746e-09
-5.74585e-09
5.95483e-09
1.63849e-09
-5.94224e-09
3.41468e-09
6.80053e-10
8.08013e-10
-2.79968e-09
-1.41596e-09
3.40761e-09
-6.89978e-10
1.53139e-09
-3.3359e-11
1.57668e-09
-2.57784e-09
-4.74467e-09
-1.59129e-09
-2.77428e-09
6.48804e-10
-1.79285e-09
-1.34255e-09
2.48669e-09
-9.90036e-10
1.70843e-09
-6.95433e-11
-2.21944e-09
-2.17151e-09
-1.79484e-09
-1.57468e-10
1.59559e-10
2.41038e-09
2.96462e-10
-4.50159e-09
-3.24909e-10
-1.57212e-09
-1.07878e-10
-3.4951e-09
-4.50532e-09
-3.89808e-09
2.72737e-09
5.67602e-09
-6.34795e-09
5.4121e-10
1.30142e-09
2.33197e-09
-4.59737e-09
-4.08256e-09
-1.57922e-09
1.31173e-11
1.23902e-09
4.02482e-10
4.85645e-09
-6.49792e-09
8.80483e-09
-9.32518e-09
1.7594e-09
-3.89411e-09
-3.8953e-09
1.05168e-08
7.23349e-09
-8.89404e-09
2.20176e-09
-9.95566e-09
1.3295e-08
-5.09596e-09
3.69078e-09
-1.74029e-10
-1.12035e-09
1.43262e-08
-7.48769e-10
-1.24571e-08
-5.31524e-09
3.61764e-10
8.91481e-09
-4.71738e-10
1.22245e-10
-6.02083e-09
5.8163e-09
6.17936e-10
4.67331e-09
-1.52469e-08
-2.81964e-09
8.25179e-09
3.51192e-09
-2.38024e-08
5.78097e-09
1.85332e-08
-5.11768e-10
-2.05102e-08
-3.50149e-09
2.0938e-10
-1.65899e-08
4.07644e-09
1.82944e-08
5.96773e-09
3.09587e-09
-2.03262e-08
1.12625e-08
-1.40412e-08
9.30175e-09
-4.61741e-09
9.35686e-09
1.33664e-09
-1.76293e-08
2.25145e-09
-6.57768e-09
-7.10454e-10
-1.73861e-08
-9.70182e-09
-3.25749e-09
-1.25006e-08
1.98345e-08
-1.25121e-08
1.36161e-08
-4.36157e-09
-1.69945e-08
1.04502e-08
-5.18029e-10
-1.38353e-08
-2.64127e-09
3.38534e-09
-1.94348e-08
-1.36109e-08
1.64782e-08
-1.47734e-08
-2.56693e-09
-1.05848e-09
1.83988e-08
-4.39712e-09
1.25081e-09
-1.16271e-08
-1.46651e-08
-2.29858e-09
1.43967e-08
-1.37261e-08
-5.33612e-09
-4.93621e-09
-7.27034e-09
-1.51953e-09
1.40574e-08
-3.03661e-09
-3.46199e-09
-7.55881e-09
-2.93395e-09
1.59329e-08
7.66656e-10
-1.32565e-08
7.55363e-09
2.0224e-09
1.46458e-08
-1.89668e-08
-1.56833e-08
1.47718e-08
-1.1764e-08
-6.95585e-09
7.29706e-09
8.05795e-09
1.2903e-08
-8.82633e-09
-1.21346e-08
1.33714e-08
-6.02396e-09
-1.59932e-08
1.40402e-08
-4.40172e-09
6.3547e-09
-1.53202e-09
-1.23309e-08
-2.1303e-09
1.43282e-08
-1.25078e-08
-3.35242e-09
2.10981e-08
-7.66544e-10
-1.35176e-08
1.77625e-09
1.07314e-08
1.40502e-09
1.08464e-08
-1.06945e-08
-7.69786e-09
6.06146e-09
-6.28022e-09
-1.79318e-08
-1.9724e-08
6.08998e-09
-2.20032e-08
1.15115e-08
-1.29879e-09
-1.9707e-09
1.75076e-09
1.51876e-09
-1.62813e-09
4.10278e-10
-8.08364e-11
-1.56837e-09
4.90966e-10
-8.93287e-10
-8.33019e-10
-2.36347e-09
-8.52806e-10
-2.02011e-09
8.93175e-11
2.78362e-09
-3.06439e-09
2.96558e-09
-7.53945e-10
6.4438e-10
-4.07639e-09
3.78535e-09
-3.53335e-10
1.55826e-09
-2.26979e-09
-2.35284e-09
-5.15625e-11
2.48446e-09
-2.37185e-09
-1.21356e-09
-1.6245e-09
-6.40775e-09
5.66042e-09
-4.72731e-09
1.1766e-08
-9.65835e-09
1.76267e-09
-3.87035e-09
-3.6768e-09
1.04395e-08
5.00336e-09
7.89789e-09
-7.98517e-09
-9.57106e-09
3.58446e-09
6.36638e-10
9.9758e-09
2.67968e-09
-3.91877e-09
-8.73671e-09
4.95677e-09
3.7908e-09
1.22824e-09
-4.9759e-09
9.69379e-09
-2.03821e-09
1.28258e-08
-8.07899e-09
-9.72264e-09
-2.27988e-09
-7.84021e-09
-2.38811e-10
1.03589e-08
-3.14909e-09
1.13087e-08
7.01035e-10
1.46241e-09
7.73331e-09
-8.53622e-09
-6.59442e-10
-1.25325e-09
-5.2695e-09
9.60579e-09
3.8788e-09
-5.16167e-09
7.52035e-09
7.24712e-09
6.37551e-09
1.28859e-09
-1.8035e-08
6.50837e-11
1.48209e-08
-1.12032e-08
-5.06912e-09
-1.88434e-08
3.61197e-09
1.52965e-08
2.04967e-09
-1.15323e-08
-9.36074e-09
-2.42567e-09
9.70722e-09
1.26495e-08
-4.22429e-09
1.38358e-08
-1.50021e-08
-1.20299e-08
-7.85046e-09
7.80628e-10
1.90998e-08
-2.32403e-08
-1.02888e-08
2.14992e-08
-3.47457e-09
2.11567e-08
-1.94283e-08
1.74617e-09
-2.50989e-08
-1.61589e-09
2.37375e-08
1.07108e-08
1.29396e-09
-3.57422e-08
9.25818e-09
-1.06197e-08
9.08013e-10
1.23983e-08
-2.38518e-08
2.95207e-09
1.06108e-08
-1.53401e-08
7.46426e-10
6.5806e-09
-1.52981e-08
2.32395e-08
-8.37652e-09
2.98246e-09
-1.78454e-08
1.0098e-08
6.29646e-09
6.8451e-09
1.74346e-08
-2.45171e-08
1.21295e-08
-1.0035e-08
7.27012e-09
-1.61114e-08
1.17934e-08
-6.03732e-09
1.40881e-08
-1.40042e-08
2.35673e-08
6.11608e-09
9.16759e-09
-1.42969e-08
-1.32807e-08
-5.97682e-09
9.9713e-09
9.28627e-09
-7.20111e-10
-4.68046e-09
-7.88016e-09
1.65508e-08
-6.6674e-09
-1.06035e-08
3.68056e-09
6.89343e-09
-1.20427e-09
1.82581e-08
-1.06991e-08
-1.15992e-09
-1.12184e-08
-8.43814e-09
2.07611e-08
-1.89904e-08
-2.12315e-08
7.70267e-09
1.96188e-08
1.19946e-08
-2.15926e-08
1.78257e-08
1.82998e-10
2.75251e-09
1.07534e-08
1.07528e-08
2.53617e-08
-2.11901e-08
7.82292e-09
4.31321e-09
1.72518e-08
4.16836e-09
5.74471e-09
-5.56633e-09
-4.34673e-09
-1.2174e-09
5.43074e-09
-4.49924e-11
-3.78867e-09
-1.47625e-10
9.68099e-09
-5.24483e-09
4.17638e-09
-1.48914e-10
1.55292e-09
-3.35228e-09
-6.12273e-09
7.92216e-09
1.28141e-09
-2.11337e-09
9.8655e-09
-9.03357e-09
4.10833e-11
5.66341e-09
-4.4231e-09
-5.83024e-09
-2.18691e-09
9.57011e-09
-8.06916e-09
6.02384e-09
-3.78488e-09
7.96471e-09
-9.75204e-09
-3.26023e-10
1.65905e-09
8.5832e-09
-8.43463e-09
-1.8076e-09
7.91337e-09
-6.21323e-09
1.79777e-08
-1.75447e-08
3.43373e-09
-3.86668e-09
5.4831e-09
-6.51314e-09
-1.01688e-08
-1.11172e-08
3.74128e-09
-6.0097e-09
-5.52614e-10
-4.774e-09
2.19808e-09
-2.53119e-09
-1.0061e-08
7.81813e-09
-1.23865e-08
3.80728e-09
6.04802e-09
-7.79844e-09
-1.06107e-08
8.24034e-09
-1.09351e-08
-7.68285e-09
6.23142e-09
-1.51816e-08
-5.81448e-09
-8.29464e-09
5.39159e-09
-8.21414e-09
-3.96874e-09
-1.40345e-08
5.15546e-09
1.10428e-08
-2.16379e-09
-6.36249e-09
-9.24034e-09
1.56822e-09
6.17881e-10
-1.6711e-08
-3.46038e-09
-6.32966e-09
6.37204e-09
-1.21167e-08
1.26974e-08
-9.78571e-09
3.91902e-09
1.09549e-09
5.10576e-09
-4.68955e-09
4.27835e-09
4.37977e-09
-3.96854e-09
3.2358e-09
1.31977e-09
-9.24513e-09
-3.49367e-09
-2.58027e-09
-6.10407e-09
-6.29922e-09
-2.94015e-09
-4.26965e-09
-7.32399e-09
-9.61854e-09
5.78108e-09
-7.09108e-09
8.34252e-11
1.22658e-09
-4.4089e-09
5.60845e-09
4.58153e-09
3.04971e-09
-6.77032e-09
-3.37046e-09
-1.23366e-09
-1.25524e-10
6.94082e-09
-8.81357e-09
1.95617e-09
-1.04589e-09
2.21451e-10
7.76526e-09
-9.75301e-11
4.66009e-09
4.635e-10
-4.71977e-10
-6.76183e-09
9.78284e-09
-1.55151e-09
6.80883e-10
-8.9122e-09
-6.54404e-09
6.91578e-09
9.41111e-09
-6.59673e-10
-7.43587e-09
-7.66918e-09
4.13226e-09
-8.12159e-11
-4.52302e-09
3.10761e-09
-2.08994e-10
1.25056e-09
5.30352e-09
-4.94104e-09
-1.61301e-09
4.36315e-09
-4.96706e-12
8.50876e-10
3.41475e-09
1.00093e-09
5.15346e-09
8.13817e-09
-5.68193e-09
3.72496e-10
-1.01502e-08
-1.59104e-10
9.93681e-09
-1.00839e-08
1.04604e-08
-3.98632e-12
2.8508e-09
-4.72772e-09
-8.27331e-09
-1.06789e-09
-6.16525e-09
-8.36282e-09
8.23996e-09
1.05833e-08
-7.04654e-09
1.48303e-08
-2.73579e-09
-5.04797e-09
-3.42359e-09
-6.00711e-09
-8.95066e-09
-3.70764e-09
1.0019e-08
2.63929e-09
-8.40564e-09
-8.23359e-09
9.59264e-09
-5.67332e-09
-6.15592e-09
1.73723e-08
-1.09582e-08
-1.83873e-08
1.19731e-08
7.85877e-09
1.27992e-09
-2.86376e-09
-1.08146e-08
-1.94953e-08
-1.21658e-08
3.97963e-09
7.66515e-10
7.41962e-09
-1.43239e-09
-3.99653e-09
-6.73693e-09
-1.35966e-08
1.00665e-08
4.98669e-10
3.03135e-09
-5.43333e-09
-9.59566e-09
2.94628e-09
1.10999e-08
8.58609e-09
-6.30641e-09
4.06454e-09
-6.34428e-09
6.90187e-09
2.18287e-09
7.86128e-09
-3.90097e-09
-7.95684e-09
2.9032e-09
5.72458e-09
-1.83416e-10
-1.15564e-08
-4.49658e-09
-1.39905e-09
8.84191e-09
-4.60773e-09
7.01301e-09
-5.39543e-10
-3.67369e-12
-3.80151e-09
5.30564e-09
-3.32709e-09
2.13894e-10
-7.87856e-10
3.88191e-09
-7.39242e-09
4.23172e-09
-1.35924e-10
-1.09358e-10
6.59105e-09
-3.00615e-09
1.88785e-09
-5.47271e-09
5.78116e-09
-2.70873e-09
3.51864e-09
-4.4992e-09
3.8838e-10
5.58888e-09
-1.47806e-09
3.16604e-09
-1.48263e-09
-6.18261e-09
2.49779e-09
-2.16767e-09
2.65704e-09
-2.98708e-09
4.26088e-09
-1.37468e-09
-3.65334e-10
-8.7646e-09
3.63894e-09
5.49102e-09
1.90395e-09
3.51193e-09
4.08472e-09
-7.15402e-10
-6.37543e-09
1.74592e-09
-3.69891e-10
-6.09342e-09
6.77135e-09
4.91099e-09
1.38261e-09
-4.30998e-09
-5.49415e-09
-4.36569e-09
-1.90826e-09
3.76092e-09
2.40829e-09
9.10982e-10
-1.62154e-10
1.74521e-09
8.66508e-09
2.76343e-09
-1.06486e-10
1.07643e-09
6.58261e-09
3.27596e-09
-5.07847e-09
-4.20509e-10
2.223e-09
-5.17522e-09
7.40574e-10
7.7106e-09
-6.46496e-09
5.07508e-09
-5.92912e-09
-5.6143e-09
-1.8176e-09
-1.99172e-09
4.54988e-09
-3.35539e-09
1.11728e-09
-1.0996e-09
-6.04307e-09
-1.06102e-09
-3.47538e-09
1.18102e-09
-2.45437e-09
1.56488e-09
-1.71506e-10
-3.04327e-09
3.53601e-09
-3.92608e-10
-2.95504e-09
-4.96759e-09
4.03731e-11
-8.02014e-09
6.33794e-10
7.79716e-09
-4.10723e-10
-6.05973e-10
6.09442e-10
-8.02352e-09
8.17239e-10
1.25337e-10
-6.03593e-09
5.09338e-09
6.05855e-10
8.53474e-09
-8.32338e-09
3.1908e-09
-3.67142e-09
3.57998e-09
2.44633e-10
1.19576e-08
-1.07422e-08
7.23524e-09
5.47103e-10
7.5241e-10
-3.36434e-09
4.15529e-09
5.27453e-09
-6.06547e-09
2.25909e-10
-3.84217e-09
2.51913e-10
4.67982e-09
1.59696e-09
5.68087e-09
3.15181e-09
3.7859e-09
5.04633e-09
8.02479e-11
7.86095e-09
-3.51134e-09
6.74342e-09
2.94569e-10
-9.82183e-10
7.10842e-09
1.10191e-09
-7.22817e-09
7.838e-09
-8.62736e-09
-1.92845e-10
4.69847e-09
-3.82518e-09
3.83291e-09
-4.7062e-09
-2.25559e-10
7.2006e-09
-2.27656e-09
-2.66805e-09
-7.16828e-11
9.84812e-09
6.41249e-09
-1.24254e-09
-2.81713e-09
-6.53671e-09
7.265e-10
-1.21055e-09
5.01971e-09
-6.62627e-09
1.77135e-09
-6.80707e-09
3.69113e-09
-4.04733e-09
2.12754e-09
2.40263e-09
1.2871e-09
1.37223e-12
-3.03153e-09
7.82569e-09
-2.61635e-09
3.60883e-09
6.20812e-09
1.14365e-09
7.28903e-11
-3.38099e-09
4.62992e-09
-1.32061e-09
1.65279e-10
2.28975e-09
-5.98719e-09
-3.48684e-09
7.18429e-09
-2.48033e-09
8.84625e-09
-4.07617e-09
-3.33211e-09
-3.73792e-09
4.5897e-09
-5.80662e-09
2.39378e-11
2.45057e-09
1.38421e-09
-5.53397e-09
-2.23685e-09
6.38665e-09
-2.41653e-09
3.88823e-09
-8.74802e-11
-3.77146e-09
1.52318e-09
-1.68227e-10
1.12418e-09
1.95487e-09
-6.85049e-09
2.23591e-09
-4.88102e-09
-3.16151e-09
2.11708e-11
-6.30605e-09
7.57639e-10
-4.38759e-10
-6.24689e-09
2.784e-09
3.95749e-09
-8.36726e-09
-1.50904e-09
-2.71967e-09
-2.01815e-09
-3.85759e-09
-5.64582e-09
7.88261e-09
7.48713e-09
-1.0368e-08
-5.00169e-09
1.30567e-08
1.36748e-09
-6.54164e-09
3.15066e-09
-5.10175e-09
1.50077e-08
-3.83686e-09
5.80553e-10
6.40694e-09
-1.62496e-09
-4.71292e-09
-1.98551e-09
-7.99145e-09
1.0885e-08
-4.51847e-09
9.55686e-09
-6.98866e-09
-5.50921e-09
2.94103e-09
2.23516e-09
3.48483e-09
-6.59162e-10
-7.88071e-09
1.60271e-08
4.83639e-10
-8.71168e-09
2.36543e-10
-4.8811e-09
6.51762e-10
6.11745e-09
-8.76341e-09
-4.60216e-09
-4.7687e-09
-4.79825e-09
-2.97902e-09
3.17509e-09
-1.48612e-09
-4.79165e-09
-4.13298e-09
1.04108e-08
-7.84376e-09
-8.71205e-09
1.50698e-08
8.32168e-10
-6.92316e-09
1.2995e-09
4.16279e-09
-1.11743e-08
-4.11274e-09
5.30479e-09
-9.90397e-09
4.35728e-09
-8.84029e-09
3.70395e-10
-5.87966e-09
6.10404e-09
-1.11752e-09
-3.97952e-09
-1.04124e-08
1.55095e-08
-3.41606e-09
-8.77123e-09
1.10699e-08
-8.14385e-09
-5.03157e-09
4.33518e-09
-4.61634e-09
-6.94351e-09
5.18241e-09
-9.4513e-09
2.0074e-09
2.26174e-09
-8.6671e-09
7.96996e-09
6.74192e-09
1.54634e-10
4.09904e-09
-2.38864e-09
-2.78608e-10
-4.22977e-09
-4.94283e-09
-4.84664e-09
-8.34371e-09
3.42801e-09
2.88217e-09
-6.95722e-09
-9.44099e-09
-6.90491e-09
-5.3099e-09
3.05914e-09
9.15566e-09
2.90649e-09
-5.31185e-09
-4.49955e-09
-2.53258e-09
1.29153e-10
-7.67857e-09
3.89719e-09
5.00961e-09
-1.73183e-09
2.74834e-09
-2.55845e-09
3.7073e-09
9.68627e-09
-4.94894e-09
-1.42082e-10
-1.75631e-09
-5.59375e-09
-8.43709e-09
3.45902e-09
2.79035e-09
4.0189e-09
-1.02683e-08
1.68915e-09
9.52302e-09
-7.75319e-09
-3.49863e-09
1.08844e-08
-5.69666e-09
5.57807e-09
-6.28636e-09
6.10802e-09
1.12762e-08
-1.33653e-08
6.69148e-09
1.8131e-09
-2.39656e-09
1.05132e-08
9.91244e-09
-9.14956e-09
1.34535e-08
3.7512e-09
1.72303e-08
1.11435e-08
-1.88508e-08
-2.00176e-09
1.21076e-08
7.12444e-09
1.00118e-08
-2.62068e-09
-7.17234e-09
-3.29826e-09
2.21201e-09
8.25853e-09
4.72042e-09
-1.88093e-09
2.12177e-09
1.29519e-09
6.49532e-09
1.2277e-08
6.32895e-09
2.55369e-09
6.02049e-09
6.41805e-09
1.48396e-09
1.66441e-08
7.34315e-09
3.70625e-09
1.10391e-08
-6.50196e-09
-1.95616e-09
7.41422e-11
8.38398e-09
-7.44098e-09
-2.32298e-10
1.17134e-09
-3.27382e-09
-4.60894e-10
-7.76531e-10
5.46586e-09
-7.96311e-09
-8.59057e-09
-6.29443e-10
7.26383e-09
-2.37515e-09
8.91073e-09
-6.46142e-09
4.13944e-09
4.99767e-09
-9.91359e-09
7.98262e-09
-4.30408e-09
-5.36575e-10
-2.58813e-09
6.02822e-09
1.36319e-08
-1.46625e-08
9.11052e-09
-3.61887e-09
-9.11282e-09
6.10824e-09
-9.61565e-09
9.61337e-09
4.25828e-09
-2.42015e-10
4.44986e-09
7.79104e-09
-3.91868e-10
5.44804e-09
-8.52935e-11
-4.97084e-09
4.03048e-09
-2.73903e-10
-4.14843e-09
-2.14465e-09
4.2433e-09
1.93184e-09
4.51195e-09
-1.20854e-09
2.89368e-09
-2.13143e-10
1.56278e-09
-3.27601e-09
5.05019e-09
1.11951e-09
1.36733e-10
1.09923e-09
-4.27025e-11
1.09099e-10
2.08302e-09
-2.14941e-09
3.18509e-09
-3.50169e-09
-3.02979e-09
8.92385e-10
1.92426e-09
-4.54575e-10
-2.32724e-09
3.72864e-10
2.409e-09
-2.46635e-09
2.17546e-09
-1.63675e-10
2.57536e-09
-2.55155e-09
-2.88247e-09
6.91971e-10
-8.59302e-10
1.0146e-09
1.3191e-09
-9.53847e-11
1.18031e-09
-1.48741e-09
3.30499e-11
2.57363e-10
8.69414e-09
-8.88681e-09
-6.46853e-11
-7.31591e-09
7.39895e-09
1.74324e-10
6.48184e-09
7.91747e-09
-7.72243e-09
-6.67687e-09
7.0036e-09
4.70809e-10
-9.92562e-10
6.72563e-09
4.65941e-09
-5.76066e-09
-5.62437e-09
-8.22849e-10
2.32573e-10
-6.96069e-09
8.55594e-09
5.40835e-09
1.33926e-10
-2.60323e-09
-1.42337e-09
1.14256e-08
-4.95046e-09
1.10414e-08
-1.35016e-09
-2.87722e-09
-9.98044e-10
-1.24851e-08
1.14022e-08
-7.40218e-09
8.94946e-09
-1.29495e-08
1.41276e-08
-2.25459e-09
5.78507e-09
-1.41853e-08
1.95059e-08
-6.39754e-09
-4.15887e-09
-4.91138e-09
1.2044e-08
4.54785e-09
4.15232e-09
1.08057e-08
1.37641e-08
-9.58916e-09
8.79104e-09
-7.07675e-09
-3.86256e-09
-7.68921e-09
-1.97395e-09
-5.87938e-09
9.82199e-09
-1.96871e-09
-5.50688e-09
7.65415e-09
-4.12124e-09
-1.77268e-09
4.39325e-09
-8.49995e-09
2.74632e-09
-1.00259e-08
-5.04524e-09
5.2039e-09
9.66332e-09
1.24385e-09
1.36506e-09
6.38763e-09
-7.88712e-09
4.24582e-09
-4.80158e-09
-4.28906e-09
-5.34622e-09
1.44368e-08
-8.54063e-09
1.15366e-08
-7.79753e-09
5.67358e-09
1.9579e-09
9.10654e-09
-5.25647e-09
5.43179e-10
2.42084e-09
-1.85495e-09
3.33565e-09
1.20858e-09
-8.81214e-10
9.53507e-09
1.23271e-08
-2.92615e-09
-1.89361e-08
5.30526e-10
9.1357e-09
-1.31179e-10
1.19145e-08
9.43168e-10
1.00264e-08
-2.32437e-08
1.02911e-08
-1.1393e-08
9.20317e-09
1.22163e-08
-2.48603e-09
-3.77421e-09
2.70984e-10
-4.44153e-09
-4.90108e-09
6.98832e-09
8.43343e-10
-2.93058e-09
7.9304e-09
-9.02079e-09
-3.8107e-09
-2.75149e-09
3.0124e-09
6.72741e-09
3.50796e-10
4.82812e-09
-3.09729e-09
-2.62329e-10
-8.35605e-09
1.17156e-08
-4.67323e-09
4.58833e-09
1.28762e-08
-3.48141e-09
-8.18422e-09
-1.21066e-09
-4.73794e-09
1.73518e-08
6.06912e-09
-2.56743e-09
-8.17492e-09
-4.51981e-09
2.23282e-09
-1.2192e-10
-6.92797e-09
-1.97091e-09
3.5425e-09
-9.13223e-09
5.94051e-09
-1.45393e-08
1.33438e-08
-1.18053e-08
-6.2154e-09
-1.09351e-08
-1.76891e-09
-2.25682e-09
-6.99733e-09
2.69617e-09
-1.38751e-08
2.4376e-10
-1.1366e-08
4.79206e-09
4.83995e-09
-1.02197e-08
5.87788e-10
6.25626e-09
-1.52027e-09
5.60871e-11
-1.91335e-09
1.08031e-08
-3.45839e-09
-5.43139e-09
7.50972e-09
-2.53437e-09
-7.74086e-09
2.76554e-09
7.69332e-09
-4.76672e-09
7.383e-09
-8.59104e-09
7.46432e-09
1.22776e-09
4.00921e-10
5.75434e-09
-1.89695e-10
3.29906e-09
8.44177e-09
-1.15511e-08
2.96663e-09
7.64683e-09
6.85148e-09
8.27163e-10
-1.68903e-10
1.73603e-09
8.41452e-09
7.7462e-09
1.17488e-09
-1.96281e-09
8.90711e-09
-5.20826e-09
8.75002e-09
-1.54064e-08
-1.32884e-08
1.89828e-08
9.712e-09
3.28646e-09
-1.86976e-08
4.73199e-12
-1.18922e-08
-2.20314e-09
5.22655e-09
8.86877e-09
-1.07093e-08
2.10354e-09
1.04052e-09
-8.3446e-09
-1.13936e-08
-4.62893e-09
-7.61893e-09
6.16293e-09
1.06168e-08
-1.19362e-08
-7.11766e-09
1.03107e-08
-1.92647e-08
-1.09071e-09
1.00448e-08
1.47248e-08
-9.04305e-09
6.48018e-09
-1.27471e-08
-7.04119e-09
1.33081e-08
3.26209e-09
8.44466e-09
-1.07569e-08
1.52549e-08
1.57561e-08
-2.02541e-08
-2.51727e-08
3.73642e-09
1.06795e-08
1.4016e-08
4.84959e-09
-4.14084e-09
5.4587e-09
-1.20248e-08
-6.18094e-09
-1.36536e-08
-6.06043e-09
-6.80924e-09
2.25398e-08
-4.75669e-10
1.33697e-08
-1.1907e-10
5.0609e-09
-5.38953e-09
4.47743e-10
5.13451e-09
-5.70145e-09
4.47885e-10
-3.68922e-09
3.2914e-10
8.4946e-09
5.18971e-09
-3.81803e-09
-6.18661e-09
1.33596e-09
-8.5079e-10
4.65792e-09
6.42643e-10
-7.77317e-09
2.47259e-09
4.60888e-09
-6.28201e-09
6.33106e-09
-5.80632e-09
-1.06027e-09
1.47709e-09
-3.53106e-09
-8.46187e-09
2.8241e-09
-4.65218e-09
2.47067e-09
7.76211e-09
4.8174e-09
-6.64369e-09
-5.94687e-09
-1.28644e-10
-1.4202e-08
2.86093e-09
9.1137e-09
2.22738e-09
-1.06271e-08
-1.00352e-08
6.46035e-09
4.28964e-09
-3.81375e-09
-1.1103e-08
-1.96177e-09
1.11511e-08
-4.89963e-09
-3.28248e-09
-5.32297e-09
-1.06273e-08
9.3598e-09
-1.48864e-08
4.28416e-09
2.97582e-09
7.62641e-09
1.52529e-08
-1.25008e-08
-1.76385e-08
-2.29656e-08
1.22416e-08
1.50081e-08
7.02736e-09
-1.47401e-08
1.3849e-08
2.61016e-10
-2.66108e-08
1.34596e-08
7.48671e-09
-7.09729e-09
8.73414e-09
7.70124e-09
-6.87395e-09
8.6069e-09
7.00118e-09
-1.62158e-08
1.12989e-08
-1.95703e-09
-1.94696e-08
2.43743e-08
7.33689e-09
-6.85356e-09
-5.58863e-09
9.59285e-09
1.00428e-08
-1.93747e-08
-8.45136e-09
-2.77753e-10
-1.2925e-08
1.9891e-08
1.64085e-09
-6.90949e-09
5.28339e-09
5.96419e-09
-1.50656e-08
2.19189e-09
-1.41862e-08
7.9499e-09
1.22005e-08
9.4318e-09
-6.69251e-09
9.07246e-09
-7.48099e-09
-7.15263e-10
-5.27785e-09
-5.4697e-09
-8.88437e-09
-4.87061e-10
4.59704e-09
4.77443e-09
-7.89366e-09
-8.38814e-09
7.39744e-09
-2.07175e-09
-6.12459e-09
1.05389e-08
-2.34252e-09
-5.52601e-09
-4.45623e-09
7.9105e-09
1.45947e-09
-1.07128e-08
2.74241e-09
6.51089e-09
3.68002e-09
-8.34514e-09
-4.50596e-09
-5.59272e-10
-4.60746e-10
3.00682e-09
-3.86527e-09
-7.0352e-09
-1.15952e-08
6.0536e-09
5.05459e-09
-3.59512e-09
-4.99328e-09
-6.54459e-09
1.88904e-09
-6.05724e-09
-4.70504e-09
-3.17453e-09
3.37361e-09
-1.07585e-08
2.18816e-09
-8.04573e-09
-6.53362e-09
1.09843e-08
-2.85837e-09
6.6425e-09
2.52329e-09
-6.30735e-09
6.15333e-09
2.98679e-10
-9.31036e-09
-4.83713e-09
5.44874e-09
6.0309e-09
1.71994e-09
-4.03743e-10
4.86725e-09
-6.86294e-09
2.2944e-09
1.2634e-09
5.32377e-09
-1.52769e-09
7.80217e-09
1.1247e-08
-1.19635e-09
-4.60188e-09
2.59252e-09
-7.12081e-09
4.54899e-09
-2.07199e-11
1.25464e-08
-2.14538e-09
1.52361e-09
-1.19246e-08
6.86182e-09
-5.03715e-10
6.18833e-09
-2.31031e-08
5.11698e-09
-4.46312e-09
2.24492e-08
-2.78445e-09
-1.71942e-08
-3.12444e-09
-2.71122e-10
-1.27895e-08
1.09152e-08
-1.29516e-08
1.27978e-08
7.01561e-09
-1.04395e-08
-9.88435e-10
-5.72375e-09
1.19226e-08
-1.27988e-08
6.60005e-09
6.47691e-09
-1.34371e-10
-1.20662e-08
-1.86335e-08
-1.67993e-09
2.54305e-08
-1.24671e-08
3.10452e-10
-1.56496e-08
-2.1641e-10
1.14029e-08
-4.42401e-09
-1.401e-08
1.27286e-08
-1.61361e-08
3.13645e-09
-1.69327e-08
-3.93706e-09
1.41797e-08
8.64439e-09
-1.48645e-09
-2.63993e-09
-3.7526e-09
7.87901e-09
-2.259e-09
-2.6356e-09
3.40817e-09
7.56788e-10
-3.4982e-09
4.82379e-10
-4.3771e-09
2.49395e-09
-5.87252e-10
-4.20646e-09
1.04115e-09
-2.93074e-09
-2.921e-10
-7.85309e-10
4.00513e-09
1.16255e-09
-4.38236e-09
2.36745e-09
-2.84281e-09
-3.09963e-10
4.56358e-09
-4.21178e-10
-2.90932e-09
-1.23308e-09
4.69737e-10
-6.71083e-10
6.56254e-10
-1.66996e-09
4.92717e-09
-3.67836e-09
2.78329e-09
-3.63224e-09
-8.20987e-10
-2.6773e-09
4.10629e-09
4.25453e-10
-3.19442e-10
-1.37823e-10
9.7253e-10
-3.23134e-09
9.44307e-09
-8.23463e-09
-3.99477e-09
1.32019e-08
-1.00517e-08
4.60109e-09
1.09846e-08
-1.06084e-08
3.81364e-10
1.51983e-09
6.23348e-09
-1.20032e-08
9.52825e-09
1.83702e-08
-1.53487e-08
-1.50247e-08
-1.05478e-08
1.20102e-10
3.76044e-10
-7.6586e-09
-4.90737e-09
-8.05982e-09
-2.46765e-10
-2.30176e-09
-1.05148e-08
-1.40257e-09
-1.11977e-08
-1.15537e-08
1.40289e-08
8.72244e-09
-9.99376e-09
-1.49941e-08
7.79915e-09
1.71888e-08
7.50978e-10
3.20745e-09
-1.39522e-08
4.0152e-09
-1.44619e-08
8.57993e-09
1.55789e-08
-1.3405e-09
-2.28183e-08
-2.90111e-09
-1.82367e-09
1.29482e-08
-8.22335e-09
1.03639e-08
-9.24975e-09
-9.2707e-09
-1.4069e-09
1.88774e-08
-8.19981e-09
1.07626e-08
-9.37885e-09
1.79924e-09
1.32267e-08
-2.07774e-09
1.20425e-08
1.20611e-10
-1.13888e-08
-8.04616e-09
1.01643e-08
3.17562e-10
3.36076e-10
-1.01303e-08
1.73034e-08
1.18792e-08
-4.19278e-09
3.07632e-09
3.15524e-09
2.02528e-09
4.90405e-09
3.78955e-10
1.06136e-08
-1.17563e-08
7.63746e-10
1.11367e-08
-1.17191e-08
9.614e-10
-1.12788e-09
3.77975e-09
7.96173e-09
2.74557e-09
7.26327e-09
-2.56714e-11
-2.59596e-09
-9.13461e-09
-2.44758e-09
-9.2972e-09
3.21813e-09
-3.59265e-09
4.15428e-09
-5.99825e-09
-2.92368e-10
9.50874e-09
6.39923e-09
-1.18475e-08
1.85565e-09
-7.86809e-09
8.26908e-09
-5.36989e-09
3.13764e-09
4.97781e-09
6.96613e-09
-2.13498e-09
-7.27873e-09
1.68342e-09
-8.72036e-11
-3.39892e-09
-1.10445e-08
5.17076e-09
-9.1877e-09
9.27087e-09
-5.25394e-09
6.8013e-09
5.2849e-11
-5.63737e-09
8.48262e-09
7.20409e-10
-1.20431e-08
1.13174e-08
-1.39959e-08
-9.08053e-10
4.35736e-09
5.20065e-09
3.16215e-09
6.3646e-09
-2.301e-09
-1.79915e-08
1.23136e-08
7.97886e-09
8.69237e-09
-1.71397e-08
6.14638e-09
-1.14053e-08
-8.4703e-10
-6.37935e-09
1.86317e-08
-1.2919e-08
-4.88655e-09
6.40028e-09
-1.06711e-08
6.44444e-09
-5.74025e-09
-4.41704e-09
-7.83423e-09
-1.15592e-08
-1.13208e-08
-9.44279e-09
-6.46069e-09
1.50565e-08
-1.54738e-08
1.14442e-09
-6.85259e-09
1.27869e-08
-1.65421e-08
5.27992e-09
5.91116e-10
-1.63079e-08
-6.24641e-09
1.50551e-09
2.624e-08
1.21714e-08
-1.78232e-09
1.31868e-08
-2.35759e-08
3.12817e-08
-2.55709e-08
3.89425e-09
1.08864e-08
-6.52197e-09
-1.76908e-08
9.05589e-09
-1.12215e-08
5.41843e-09
-2.82542e-09
-1.38114e-08
-1.06039e-08
-1.90952e-09
1.13394e-08
-5.0993e-10
-1.12963e-08
4.66852e-10
-1.89885e-08
1.37814e-08
3.62423e-09
-6.48052e-09
-1.09251e-08
7.5426e-09
5.96988e-09
2.68929e-10
-3.25581e-09
1.10128e-08
-2.14437e-10
9.49405e-09
-8.91788e-09
-3.83199e-09
3.08364e-09
-1.12045e-08
5.29544e-09
-7.56937e-09
8.74348e-09
8.09544e-09
8.88681e-10
1.15389e-08
1.57163e-08
-1.0334e-08
-1.66787e-08
-1.50527e-09
-1.76689e-09
1.24212e-08
-3.16256e-09
-5.63435e-09
7.18656e-09
-1.36496e-09
-1.40334e-08
-1.2225e-08
-3.0916e-09
7.48683e-09
-1.91857e-08
-7.90071e-09
-1.52254e-09
6.96971e-09
-5.98992e-09
5.42738e-10
4.34235e-09
-1.12035e-09
-4.74454e-09
3.05484e-09
1.92013e-10
1.0955e-09
3.60409e-09
6.42047e-09
1.89214e-09
-5.37556e-09
3.28632e-10
3.15481e-09
2.74078e-10
5.22217e-09
2.57247e-09
-6.00989e-09
-2.5525e-09
-1.44273e-09
-2.60503e-09
4.32185e-09
1.67448e-09
3.46953e-09
-3.44744e-09
-1.69657e-09
-6.4038e-11
4.16804e-09
-2.42951e-09
-2.86713e-09
1.92708e-09
-4.30029e-09
2.70184e-09
-3.75338e-09
4.23773e-09
-1.31522e-09
1.18298e-09
2.27999e-09
-1.25669e-10
1.09361e-09
-3.50661e-09
-1.47474e-09
1.36643e-12
3.394e-09
1.34606e-09
7.12338e-10
-5.4524e-09
7.43401e-09
4.95778e-09
-8.99779e-09
2.98632e-09
-1.17855e-08
1.206e-09
7.59321e-09
-1.01263e-08
3.50234e-09
9.61031e-09
-7.82096e-09
1.8537e-09
-5.81829e-09
-8.07729e-09
-2.78784e-09
7.38799e-10
-1.01862e-08
-5.71201e-09
4.85531e-09
-5.41672e-09
7.99542e-09
-3.05299e-09
-1.21858e-09
9.12687e-09
1.7954e-09
-1.10028e-08
4.05065e-09
8.15814e-09
-5.36429e-09
-3.78483e-09
4.6888e-09
-2.84392e-09
-4.63271e-09
-6.80288e-09
-1.98588e-09
3.37204e-09
-6.43005e-09
9.26213e-09
5.54191e-09
-8.43056e-09
-2.47563e-09
4.75557e-09
-7.72801e-09
7.66124e-09
-1.06803e-09
-9.79276e-10
7.52319e-09
5.03947e-09
2.87329e-09
-1.54359e-08
9.12037e-09
5.42679e-09
-7.02396e-09
-7.01711e-09
2.23174e-09
-5.79385e-09
-2.29475e-09
-9.16901e-09
6.88946e-09
-1.10333e-08
-3.8986e-09
-6.6985e-09
-1.38416e-08
-3.64808e-10
1.28245e-09
-7.85156e-09
6.93394e-09
1.21846e-09
6.43095e-09
-8.0142e-09
-8.20625e-11
-4.31377e-09
6.3901e-09
3.82207e-09
9.14398e-09
3.8093e-09
-1.67754e-08
-1.01006e-08
8.05875e-09
5.86386e-09
2.3595e-10
-8.18357e-09
-2.15296e-09
1.07373e-08
-9.4423e-09
5.13594e-09
-7.5131e-09
6.88028e-09
6.97777e-09
-6.34495e-09
-1.07203e-09
-4.21807e-09
9.30885e-09
-9.72797e-09
9.56309e-09
-7.16366e-10
3.94137e-09
-9.46818e-09
6.24316e-09
2.5013e-09
4.49293e-09
-1.97683e-09
-2.86273e-09
1.28983e-08
1.12734e-08
3.01111e-09
-2.00182e-09
-1.382e-09
6.51885e-09
-7.28794e-09
-7.67384e-09
9.41383e-09
5.54797e-09
-2.42808e-09
-1.67346e-09
-3.18641e-09
9.57936e-09
-5.55703e-09
-6.45042e-09
1.8346e-09
7.093e-11
-7.40358e-09
5.45325e-09
-8.70328e-09
1.06536e-08
-1.22514e-08
5.96114e-10
4.25178e-09
-4.98868e-09
-3.48307e-09
-3.7797e-09
-5.16431e-09
9.30874e-09
-9.13309e-09
-5.05062e-09
1.66633e-08
-6.15943e-09
-7.84313e-09
1.22063e-08
-4.43541e-09
9.53738e-09
-1.0659e-08
9.80283e-10
-6.88546e-09
4.59082e-09
1.31437e-09
-2.16401e-09
5.55423e-09
-6.87327e-09
-1.17637e-08
1.58574e-09
-4.83762e-09
8.71839e-09
-7.95322e-09
9.62854e-09
1.59284e-10
1.36771e-08
1.35705e-09
-1.00107e-09
-1.40331e-08
9.88098e-09
1.21287e-10
3.67484e-09
-1.1226e-08
-7.75737e-10
8.23644e-09
3.76535e-09
6.62459e-09
-1.06583e-08
-7.19238e-09
1.36008e-08
-1.01264e-09
-5.63964e-10
-1.20242e-08
9.29248e-09
3.53259e-09
-5.19162e-09
7.34267e-09
6.08538e-09
1.29232e-09
1.40641e-10
-1.02911e-08
7.55427e-09
1.26178e-08
-9.94672e-09
-1.30848e-08
9.69375e-09
3.51233e-09
4.51323e-10
-1.45372e-08
-1.1122e-09
-1.011e-08
9.8276e-10
1.04078e-08
-2.0981e-09
-1.17931e-09
9.50475e-09
9.36564e-09
-1.3728e-09
1.70091e-09
-6.52807e-09
-1.82382e-09
7.17257e-09
-5.61344e-09
3.77685e-10
7.99484e-09
-4.5303e-10
6.87316e-09
-7.53405e-09
-1.13086e-10
1.1344e-08
7.02486e-09
-1.06953e-08
-7.6736e-09
-2.58146e-10
1.15075e-08
9.46838e-11
-1.19578e-08
1.15811e-08
1.1862e-10
-9.0534e-09
1.37922e-08
6.76868e-09
-9.31293e-11
-1.9354e-09
5.79261e-10
-6.44637e-09
-4.82818e-09
-6.63213e-09
-4.74649e-09
-9.17209e-09
-3.484e-09
3.11014e-09
1.06662e-09
-1.33489e-08
2.56501e-09
-5.90124e-09
-1.55496e-08
4.48157e-09
4.08996e-10
9.00961e-09
2.16254e-09
2.95282e-09
1.12484e-08
7.62004e-09
-5.96454e-09
-1.74859e-09
8.29351e-09
-3.59443e-09
-2.13403e-09
1.43277e-09
9.1401e-09
1.39075e-09
9.38243e-10
9.82828e-09
1.19448e-09
-9.6177e-09
-8.10166e-09
1.0911e-08
-1.37661e-09
3.11735e-09
9.89619e-09
-1.13009e-08
7.51297e-09
-7.36506e-10
1.48674e-09
9.14596e-09
2.19616e-09
1.02383e-08
-1.32338e-08
7.9929e-10
1.48578e-08
1.92723e-09
-1.45889e-08
1.01357e-08
-4.23425e-09
3.00933e-09
1.14848e-09
-2.94898e-09
2.52259e-09
-4.21387e-09
8.95509e-09
-4.07005e-10
1.13136e-08
-5.36201e-09
1.24235e-08
-1.26983e-08
5.63676e-09
1.70607e-09
-1.52271e-08
8.15897e-09
-8.75187e-09
4.44583e-09
-6.48986e-09
1.07959e-08
-1.34342e-09
-2.2152e-08
1.47435e-08
-1.23846e-08
8.30239e-09
5.78825e-09
-1.8232e-09
-4.14904e-09
-9.25485e-09
-3.40549e-10
-1.27001e-08
1.74864e-08
-6.65921e-09
-2.02292e-08
2.65478e-08
4.71544e-09
9.34713e-09
-1.54061e-08
-9.12532e-09
-5.08255e-09
-1.4572e-08
4.1407e-09
1.04906e-08
-5.93889e-11
1.26193e-08
-1.45632e-08
2.04336e-09
-1.82163e-09
9.06735e-11
6.09149e-09
-5.38284e-09
-1.51755e-10
-5.57128e-10
-1.54333e-10
-1.50603e-09
7.75184e-09
-6.41144e-09
-1.20539e-09
2.23389e-09
-9.49284e-10
7.44052e-10
-6.20628e-09
4.63569e-09
9.14292e-11
-5.67645e-09
3.30383e-09
1.26371e-10
-3.41338e-09
-8.17733e-10
4.07671e-09
-2.77194e-10
1.67631e-10
-5.71427e-09
-8.81029e-10
5.77746e-09
-4.50572e-09
-7.46763e-11
-1.13391e-09
-8.70219e-09
-1.45855e-09
8.65453e-09
-8.43683e-09
-4.1717e-10
-4.6506e-09
-1.32348e-10
1.03478e-08
-7.5162e-09
-2.90636e-09
8.0082e-09
-9.57294e-10
-6.73548e-09
1.07069e-09
-5.62989e-09
-7.4028e-09
2.95617e-09
8.84582e-09
2.36107e-09
-1.41631e-08
7.34298e-09
-6.99403e-09
2.6072e-09
3.2651e-09
-1.58842e-08
3.4815e-09
9.13751e-09
-1.47526e-08
5.68972e-09
1.2328e-08
-1.34662e-09
1.0425e-08
-2.32699e-10
8.00065e-09
-2.00431e-09
8.09593e-09
-1.35551e-08
-3.59229e-09
-3.06445e-09
-4.1204e-09
-1.31434e-10
-5.4336e-09
9.68545e-09
-4.45879e-09
6.0281e-09
8.22752e-09
-9.20936e-09
3.34291e-09
3.59456e-09
-8.33965e-09
8.22655e-09
8.32313e-09
-4.86001e-09
-4.58415e-09
1.21046e-09
-2.05993e-09
-7.73619e-09
-1.30677e-09
-2.09311e-09
8.07891e-09
1.20999e-09
-7.19575e-09
-1.55911e-09