/*--------------------------------*- C++ -*----------------------------------*\
| =========                 |                                                 |
| \\      /  F ield         | OpenFOAM: The Open Source CFD Toolbox           |
|  \\    /   O peration     | Version:  v1612+                                |
|   \\  /    A nd           | Web:      www.OpenFOAM.com                      |
|    \\/     M anipulation  |                                                 |
\*---------------------------------------------------------------------------*/
FoamFile
{
    version     2.0;
    format      ascii;
    class       surfaceScalarField;
    location    "50";
    object      phi;
}
// * * * * * * * * * * * * * * * * * * * * * * * * * * * * * * * * * * * * * //

dimensions      [0 3 -1 0 0 0 0];

internalField   nonuniform List<scalar> 
46467
(
2.79127e-09
-4.76567e-09
2.11241e-09
-1.37916e-10
2.60238e-09
4.15166e-09
4.40247e-09
-1.11564e-08
-9.09295e-09
4.74477e-09
-3.38328e-09
7.7314e-09
3.5621e-09
7.23274e-10
1.34671e-09
-5.63192e-09
-2.58992e-09
2.14417e-09
-3.96848e-10
8.4225e-10
-3.40147e-09
1.20909e-09
-2.88424e-09
5.07659e-09
-3.11291e-09
9.08297e-10
2.74431e-09
-5.39525e-10
8.6862e-09
-2.87351e-09
-1.66706e-09
-4.1456e-09
1.85749e-09
-1.08963e-09
2.91137e-09
-3.67925e-09
3.5821e-09
-8.53944e-09
2.79454e-09
2.16284e-09
4.36996e-09
-8.28645e-10
-3.87561e-09
3.34392e-10
-8.79525e-09
3.71567e-09
4.18337e-09
8.96476e-10
3.37768e-09
-6.1018e-09
5.71728e-09
-2.99316e-09
-1.57461e-09
7.52673e-09
-6.24907e-09
2.96982e-10
3.16571e-09
-5.40458e-10
-5.42601e-10
-2.08218e-09
-3.31196e-09
1.35514e-09
6.54972e-09
-4.59286e-09
-1.19397e-08
6.2555e-09
3.29327e-09
2.39087e-09
-4.53914e-09
8.37777e-09
-3.40391e-09
-4.34764e-10
1.75703e-09
-2.19319e-09
-4.84918e-09
5.28534e-09
3.40245e-09
4.92058e-09
-6.58172e-09
-1.74106e-09
-7.01855e-10
-1.86595e-09
2.47586e-09
9.19348e-11
-7.49226e-09
2.20928e-09
8.92208e-09
-3.63912e-09
-2.58575e-09
-1.86117e-10
2.62808e-09
1.44165e-10
-5.46432e-09
-2.80465e-09
8.30982e-09
-4.08931e-11
-3.31172e-09
-2.64832e-09
5.84908e-09
1.11159e-10
-1.9656e-10
2.63999e-09
-1.54837e-09
-8.95105e-10
2.75425e-09
-1.78795e-09
-1.16281e-09
5.90322e-09
-3.57155e-09
2.23393e-09
-4.56545e-09
-4.65528e-09
4.19868e-09
9.55325e-10
-4.98466e-10
2.63505e-09
-7.18603e-09
-1.04173e-10
4.94781e-09
-3.92529e-09
-1.88016e-09
8.57424e-10
5.49581e-09
-1.67066e-09
-1.16796e-09
-2.65717e-09
1.34257e-09
-2.20678e-09
-1.35286e-09
2.21747e-09
5.98991e-10
3.77971e-09
-4.75484e-09
3.76143e-10
2.37332e-09
2.2834e-09
-7.17543e-09
2.51887e-09
-5.55528e-09
-3.28223e-10
-1.95109e-09
7.83468e-09
8.6947e-10
-2.58879e-09
2.51312e-09
-7.93896e-10
3.68052e-09
-5.70929e-09
-4.54237e-09
6.57107e-09
3.87501e-09
-5.32211e-09
2.99734e-09
-1.55047e-09
7.41906e-09
-4.16389e-09
8.54773e-10
-4.10969e-09
-1.70824e-09
6.08942e-09
-4.77758e-09
3.96519e-10
-8.51562e-10
-3.44526e-09
3.61521e-09
6.81606e-10
-3.2919e-09
6.64726e-09
1.89087e-09
-5.24609e-09
3.11222e-09
2.37244e-09
-2.21498e-09
-3.26965e-09
2.08523e-09
1.99666e-09
-3.58467e-09
-4.97133e-10
-5.29933e-09
-6.14172e-09
2.18152e-09
9.25961e-09
2.01995e-10
2.70054e-09
-3.0723e-09
1.69664e-10
2.00502e-10
-4.58766e-09
3.90882e-09
4.78234e-10
-8.38502e-11
-1.71768e-09
-3.0054e-09
4.8071e-09
-2.19567e-09
-5.11249e-10
3.68667e-09
-9.79536e-10
4.18514e-09
4.87169e-09
-3.60501e-09
5.45966e-09
-4.09325e-09
2.23868e-09
-6.42814e-10
6.84594e-10
5.33131e-09
-5.37301e-09
-8.14137e-10
-3.37564e-09
3.92897e-09
2.60816e-10
-2.53344e-09
-4.48615e-09
7.57323e-09
-5.53671e-10
-6.05366e-09
3.66128e-09
-1.38361e-09
-3.23599e-09
1.31176e-09
2.55831e-09
-6.33933e-10
-2.79621e-09
4.35022e-09
-7.03715e-09
5.48312e-09
-5.10941e-09
-2.27226e-09
3.01075e-09
4.37088e-09
-3.15276e-09
-7.56916e-09
4.98995e-09
5.73202e-09
-8.49046e-09
6.6207e-09
2.93935e-09
-1.06945e-09
-2.6607e-09
2.34025e-09
9.19508e-10
-4.8607e-09
-2.30688e-09
-1.15127e-09
8.31898e-09
-4.86298e-09
1.72581e-09
-1.75956e-09
4.89682e-09
6.6533e-09
-4.30573e-09
-1.87082e-09
-4.76818e-10
8.05443e-10
-2.1484e-09
1.22453e-08
-1.09021e-08
2.85771e-09
-1.23488e-09
-1.78287e-09
1.60147e-10
-1.41977e-09
7.04818e-09
-5.23596e-09
-3.92183e-10
-2.30683e-09
-8.05477e-10
6.83273e-09
-3.72033e-09
-5.29609e-09
-3.6128e-10
3.94926e-09
3.64641e-10
1.32028e-09
-2.15446e-09
4.69521e-10
4.37591e-09
-5.43992e-09
1.71562e-11
1.04688e-09
3.93662e-09
-9.91686e-09
3.97048e-09
2.00969e-09
2.31363e-09
-1.66717e-09
2.82633e-09
-3.47262e-09
-3.98494e-10
2.49621e-09
-1.11003e-09
-9.87519e-10
-1.60171e-09
3.61551e-09
2.04595e-09
-4.0599e-09
3.93557e-09
-2.28763e-09
-1.68638e-09
3.84622e-11
4.38896e-09
-1.69406e-09
-2.64889e-09
-4.60083e-11
-1.57329e-09
-5.60625e-09
6.53469e-09
6.4492e-10
3.61451e-09
3.2894e-09
-3.34294e-09
3.3979e-09
-7.82038e-09
1.38523e-08
-9.42996e-09
3.74523e-09
-4.33514e-10
5.81401e-10
-3.89313e-09
-4.25728e-09
4.28712e-09
3.71543e-09
7.85249e-09
1.61402e-09
-7.75926e-09
-1.70715e-09
3.30118e-09
-2.467e-10
-5.98981e-09
2.93538e-09
3.51053e-09
6.09786e-09
-3.51572e-09
-2.64022e-09
6.66563e-09
-5.09695e-10
5.4654e-10
-4.92987e-09
1.03264e-10
4.28018e-09
-3.58659e-09
-1.18809e-09
-7.10846e-10
5.48561e-09
4.91708e-09
-6.33163e-09
3.77574e-09
-2.36134e-09
-6.06128e-10
2.50914e-09
-2.52774e-09
6.247e-10
3.43785e-09
5.50938e-09
-4.06955e-09
-4.87764e-09
2.68021e-09
5.31825e-10
-7.11815e-09
3.90611e-09
-3.57273e-09
6.85583e-09
-3.50253e-09
2.19892e-10
2.09188e-09
-6.09352e-09
3.11282e-09
8.88455e-10
-1.41583e-09
-2.34977e-11
2.04148e-09
-6.0157e-10
-6.69493e-09
3.74517e-09
4.72876e-09
-1.77884e-09
-7.75905e-10
1.99611e-09
-7.1906e-10
-5.00901e-10
5.37816e-09
-3.01936e-09
1.23078e-09
-3.58948e-09
3.2901e-09
1.62734e-09
-4.47793e-09
-4.39218e-10
6.96091e-09
-4.52072e-10
-3.17882e-09
-3.33007e-09
3.38768e-10
-4.76132e-09
5.50741e-09
-1.08504e-09
2.49001e-09
-4.23853e-09
3.04599e-09
-1.2973e-09
-5.60491e-09
5.75829e-09
-1.63075e-09
1.4776e-09
-3.44479e-09
-2.466e-09
1.51477e-09
4.3961e-09
-4.30624e-09
-4.80138e-09
4.41513e-09
4.69249e-09
-4.21192e-09
5.90238e-09
-1.20407e-10
-1.57016e-09
2.0994e-09
1.00864e-09
2.51895e-09
-5.62668e-09
5.21327e-09
-6.42722e-09
1.14139e-09
7.26757e-11
4.78497e-09
9.09286e-09
-4.81e-09
-9.06778e-09
1.9413e-09
6.07947e-10
1.19306e-09
-3.74187e-09
4.80569e-09
4.71398e-09
-7.43442e-09
-1.12035e-09
7.49448e-09
-9.34837e-09
2.97425e-09
1.94318e-09
-3.70598e-09
1.76619e-09
-3.40927e-12
-3.4228e-09
-3.54132e-09
6.75697e-09
2.07101e-10
-6.33575e-09
6.54745e-09
-7.5181e-09
7.30654e-09
6.23877e-09
-5.06997e-09
-4.21388e-09
3.04519e-09
-1.91471e-09
-5.11822e-10
2.99744e-09
-5.71066e-10
4.8074e-09
-2.62143e-09
-4.02386e-09
1.83808e-09
-2.35185e-09
-3.31122e-09
5.56806e-09
9.49995e-11
-1.14851e-09
-2.41296e-09
1.01504e-09
2.54627e-09
1.09143e-09
-1.69443e-09
5.73329e-09
-5.1305e-09
7.22025e-10
-3.62132e-09
-4.35357e-09
7.25283e-09
6.3419e-09
-1.50294e-09
-5.2469e-09
4.08098e-10
-5.79045e-09
4.86153e-09
3.71519e-09
-2.78605e-09
5.123e-09
-1.38251e-09
-3.8915e-09
1.51041e-10
5.05633e-09
-3.72901e-09
9.5154e-10
-2.27892e-09
3.89632e-09
-4.89272e-09
4.26388e-10
5.69968e-10
-9.73639e-10
1.97617e-09
8.82896e-12
-1.01133e-09
-6.75173e-09
5.82797e-09
6.73522e-10
2.50223e-10
7.92239e-09
1.43146e-09
-3.4549e-09
-5.89888e-09
-9.91891e-10
-4.30031e-09
4.90214e-09
3.90244e-10
-7.46476e-09
3.6039e-09
3.94298e-09
-8.19388e-11
-8.05418e-09
3.51735e-09
4.52204e-09
1.49126e-11
-2.81806e-09
-2.42119e-09
5.00178e-09
2.37474e-10
-8.32989e-09
-2.78771e-10
1.3357e-08
-4.74839e-09
-8.00736e-09
-9.22203e-10
7.29403e-09
1.63554e-09
-1.13872e-09
6.37776e-09
7.66557e-10
-6.00577e-09
6.76216e-10
7.44266e-09
-1.78449e-09
-6.33413e-09
6.9698e-09
-2.09136e-09
-3.72816e-09
-1.15026e-09
-8.61821e-09
1.00444e-09
8.18825e-10
6.795e-09
3.12557e-09
7.42262e-09
-5.80037e-10
-9.96823e-09
-5.25724e-09
1.08845e-08
-4.46151e-09
-1.16559e-09
-8.57749e-11
-4.22974e-09
-3.17678e-09
-4.45877e-09
4.71077e-09
-7.18615e-10
4.66532e-10
-9.86047e-09
8.52219e-09
9.73276e-10
3.64921e-10
-3.76737e-09
6.54585e-09
-2.99211e-09
2.13802e-10
-1.4502e-09
-4.13574e-09
4.02013e-09
1.56585e-09
-1.28706e-09
-2.85744e-09
-1.19434e-09
5.33911e-09
-2.03601e-09
3.8122e-09
1.66491e-10
1.16207e-09
-2.09946e-09
-1.099e-09
-1.59866e-09
2.02339e-09
-3.68863e-09
3.26394e-09
2.1266e-09
4.49962e-09
1.0822e-09
-1.75871e-09
3.85319e-09
1.32575e-09
-3.42026e-09
2.49238e-09
-1.02712e-09
-1.70028e-09
2.34927e-10
1.79695e-09
-3.34436e-09
4.03978e-09
7.17291e-09
-3.2139e-09
-1.28374e-09
-2.67521e-09
-3.01158e-09
3.37806e-09
2.34664e-09
-2.71315e-09
-2.06684e-09
3.06456e-09
-1.26144e-09
2.63731e-10
-1.67656e-09
-2.70279e-09
4.0128e-10
3.97811e-09
-6.67906e-09
6.3109e-09
3.79383e-09
-3.42566e-09
-7.26711e-09
1.71301e-10
-1.97447e-09
9.07051e-09
4.32484e-09
-5.72323e-09
2.70392e-09
-1.30575e-09
-3.39923e-09
-4.69324e-09
4.62948e-09
3.46303e-09
-1.23921e-09
6.14699e-09
1.79441e-09
-3.06325e-09
-6.15402e-09
7.49439e-09
1.72291e-09
-7.47706e-09
3.67154e-09
4.17677e-09
-3.71183e-10
-2.526e-09
1.57699e-09
-5.41691e-09
6.36595e-09
4.12544e-09
-5.908e-09
-2.46408e-09
4.2463e-09
-6.84962e-09
6.13388e-09
2.84495e-10
4.31355e-10
2.51401e-09
6.02143e-09
-7.65889e-09
-8.76546e-10
3.46803e-09
-1.18552e-09
-2.24051e-09
-4.2059e-11
-8.80091e-09
2.69082e-09
2.58589e-09
3.52416e-09
3.6834e-09
-2.91758e-10
-3.88189e-09
4.90141e-10
4.97255e-09
-1.91852e-09
2.00217e-09
-5.42508e-09
3.05275e-09
6.79478e-09
-4.4225e-09
2.555e-09
4.46706e-10
-3.22772e-09
2.26011e-10
-2.14037e-09
3.77465e-09
-1.99766e-09
3.63434e-10
-2.92928e-09
5.05619e-09
3.36902e-09
-5.96649e-09
1.08235e-09
-4.19303e-09
9.07712e-09
-1.33945e-09
3.12239e-09
-1.25196e-09
-5.3136e-10
5.47057e-09
3.23065e-09
-2.01702e-09
-6.68406e-09
-4.19779e-09
-1.47429e-09
-7.70122e-10
6.4423e-09
3.99968e-09
-4.22984e-09
4.18268e-09
-3.95246e-09
-1.323e-09
1.99083e-09
-3.7021e-09
3.03429e-09
-2.82389e-09
-2.63486e-09
3.35044e-09
2.1084e-09
-2.89144e-09
3.47921e-09
-1.1692e-09
5.81434e-10
-1.2579e-09
-3.17755e-09
4.13643e-09
2.98985e-10
-2.9639e-09
2.17306e-09
1.76642e-09
-9.75724e-10
-1.22497e-09
-1.12495e-09
2.96456e-09
-6.14716e-10
-5.36868e-09
1.56586e-09
2.69937e-09
1.10344e-09
2.97283e-10
4.48577e-09
3.96683e-09
-8.7499e-09
-3.2366e-09
2.47524e-10
6.82402e-09
3.98524e-09
2.67424e-09
-1.00818e-10
3.09914e-09
3.33926e-09
-2.45304e-09
-5.41855e-09
1.19908e-08
-8.24964e-09
1.67741e-09
-3.66091e-09
2.70514e-09
7.17612e-09
-6.22034e-09
3.43689e-09
2.27558e-10
2.26076e-09
-5.92533e-09
5.64236e-09
-9.6656e-09
4.24639e-09
-2.23105e-10
2.00856e-09
4.08371e-09
-3.14086e-09
-2.9514e-09
-9.46004e-09
4.47504e-09
1.51784e-08
-1.01934e-08
-1.66163e-09
6.13574e-09
-4.75649e-09
2.82431e-10
3.79892e-09
1.44122e-09
-6.71656e-09
1.4764e-09
-1.6333e-09
6.94694e-09
-2.99587e-09
-2.31772e-09
-3.45686e-09
-2.73367e-09
4.08041e-09
2.11018e-09
1.17181e-09
2.46151e-09
-3.25886e-09
-3.74313e-10
5.04185e-09
-6.4827e-09
2.18246e-09
-7.41497e-10
2.88121e-09
-3.3855e-09
-4.54494e-09
5.04939e-09
2.82993e-09
-4.45079e-09
2.87526e-09
-1.25417e-09
1.90327e-09
-4.14514e-09
5.12317e-09
-1.70492e-09
-3.50015e-09
9.96299e-10
4.20883e-09
-1.77684e-09
-3.81288e-09
8.52308e-09
-2.93332e-09
1.07314e-09
-2.25219e-09
1.03382e-09
1.45281e-10
-5.23554e-09
5.96048e-09
1.76663e-09
-2.49164e-09
6.69376e-09
-4.99934e-09
-1.07484e-09
-6.19562e-10
-2.43083e-09
3.49684e-09
-1.46433e-09
-1.75275e-09
-1.35829e-09
3.93521e-09
-8.23759e-10
2.37063e-09
1.13974e-09
-3.66099e-09
1.50582e-10
-3.08685e-09
-7.90646e-09
3.18541e-09
7.80772e-09
2.25169e-09
-5.60199e-09
2.63386e-10
-3.60393e-09
5.49242e-09
3.63222e-10
-9.5453e-10
1.80923e-09
-9.79947e-10
1.25251e-10
2.43607e-09
2.18606e-09
-4.67517e-09
5.30073e-11
1.58447e-09
1.75162e-09
-3.35322e-09
1.71794e-11
1.99082e-09
2.11311e-09
-4.03602e-09
-6.78596e-11
-1.79337e-09
4.23077e-09
-1.77948e-09
-6.57916e-10
-3.24418e-09
9.68561e-10
2.72165e-09
-4.46092e-10
2.68548e-09
-3.36783e-09
2.7446e-09
-2.06212e-09
8.30041e-10
-2.74417e-09
2.79212e-09
-8.77146e-10
1.80818e-09
7.36636e-09
-5.26729e-09
-3.90712e-09
-3.59599e-09
-2.82561e-09
4.8101e-10
5.9407e-09
-8.07108e-09
2.04929e-09
3.76393e-09
2.25788e-09
-8.25094e-10
-1.67017e-09
2.42855e-09
6.69857e-11
2.82352e-09
-3.22189e-09
7.97343e-10
-3.98997e-10
3.15929e-09
8.75383e-09
-6.53484e-09
6.01133e-09
-9.20468e-09
9.29302e-09
-6.09957e-09
9.4105e-10
2.46567e-09
-2.25985e-09
-1.14693e-09
3.81121e-09
-2.65503e-09
-5.4986e-10
-6.06325e-10
2.52463e-09
-3.80457e-09
-2.1234e-09
3.40336e-09
-5.30017e-10
-2.47128e-10
-5.11996e-09
5.89723e-09
-5.31276e-09
4.6412e-09
1.41633e-10
4.06495e-09
4.82343e-09
-4.81655e-09
-4.07182e-09
8.09765e-09
-3.92981e-09
-3.59218e-09
-5.75583e-10
1.88322e-09
-2.15276e-09
2.00296e-09
-1.7334e-09
-4.69892e-09
4.67116e-09
6.64464e-09
-6.6168e-09
7.64718e-09
1.49502e-09
-1.0445e-09
5.87881e-09
-1.05775e-09
-6.43003e-10
4.23561e-09
-4.11581e-09
5.23215e-10
1.51104e-09
-3.07214e-09
5.24171e-09
-4.36358e-09
2.8913e-09
1.21066e-09
2.61539e-10
5.13617e-09
-6.46617e-09
8.38334e-10
4.91829e-10
-8.52564e-09
-1.27926e-09
1.68392e-09
8.12101e-09
-3.13903e-10
-3.34438e-09
8.98486e-10
2.75991e-09
-3.06308e-09
1.85156e-10
2.41462e-09
4.63416e-10
5.87915e-09
-7.20139e-09
3.42166e-09
-5.81969e-09
3.08468e-09
-1.59188e-09
4.32699e-09
-2.19564e-09
-5.77757e-09
1.65377e-10
7.80755e-09
3.72119e-09
-4.04513e-09
-2.58885e-09
2.91233e-09
1.78113e-09
2.67053e-09
-5.30875e-09
8.57246e-10
1.68791e-09
6.89321e-10
-5.95992e-10
-3.15982e-11
-4.76255e-10
-1.19064e-09
-2.79592e-09
-4.80845e-09
2.05028e-09
3.08896e-09
-4.44939e-09
-6.90863e-10
5.85622e-09
-3.52177e-09
-6.81895e-12
-2.00827e-09
-1.27681e-09
5.56063e-10
1.82526e-09
-6.84444e-09
4.46304e-09
-2.70114e-09
-1.29889e-09
4.17631e-09
-1.76291e-10
-3.46194e-09
5.26121e-09
-1.26555e-09
-5.33625e-10
-2.10664e-09
-2.62005e-09
3.05606e-09
3.74492e-09
-1.38825e-09
3.25989e-09
-5.61653e-09
-5.52803e-09
2.31822e-09
3.52882e-09
-3.18925e-10
1.35135e-09
3.36199e-09
-4.21417e-09
-4.99292e-10
1.43233e-09
-3.15308e-09
-4.6747e-09
6.39577e-09
-1.42186e-09
-6.29953e-09
2.84505e-09
4.87628e-09
-4.09168e-09
3.32839e-09
1.10893e-09
-3.46005e-10
1.30353e-09
-5.59174e-09
4.336e-09
-4.75767e-11
5.97363e-09
-4.83779e-10
-5.5659e-09
7.60744e-11
3.06383e-09
-2.62763e-09
-5.70949e-10
1.34856e-10
1.73933e-09
1.19877e-09
-5.34116e-09
2.40334e-09
-3.9221e-09
8.11427e-09
3.11752e-09
-7.30974e-09
-2.19958e-09
-2.24297e-09
2.37402e-09
2.06856e-09
-2.44129e-09
-4.25159e-09
1.43573e-09
-4.23054e-09
5.2939e-09
4.45625e-09
-5.51957e-09
-4.2326e-09
7.48948e-09
2.49062e-09
-5.74737e-09
8.25836e-11
-7.8219e-09
5.53986e-09
4.79292e-09
-3.99239e-09
-3.14714e-09
2.34671e-09
3.11287e-09
-7.10824e-09
-2.35122e-10
8.21366e-10
-5.2801e-09
9.75266e-09
6.84771e-09
-5.21673e-09
4.41024e-09
-6.04115e-09
1.62376e-09
7.54711e-10
3.52488e-09
1.32095e-09
1.31445e-09
-2.69582e-09
6.04645e-11
2.23363e-10
2.73537e-09
-1.17803e-10
-2.84092e-09
-4.78966e-09
-6.46109e-09
5.44898e-09
5.80183e-09
3.19323e-09
-3.35976e-09
2.10278e-09
-1.9362e-09
-3.61383e-09
6.13011e-09
1.92256e-09
-4.43875e-09
6.79947e-09
-3.57882e-09
-6.57173e-09
3.35114e-09
2.98705e-09
5.18165e-09
6.69061e-09
-3.64848e-09
7.07579e-11
-1.32099e-08
1.30586e-08
4.27662e-09
-4.12512e-09
-9.03069e-10
-4.55557e-09
5.34646e-09
1.12301e-10
5.28395e-09
-1.4579e-09
-6.08958e-09
2.26358e-09
-2.02286e-09
5.05885e-09
-5.63462e-09
2.59833e-09
-4.1679e-09
3.11082e-09
-3.46697e-09
4.52399e-09
1.6479e-09
1.79265e-09
-3.71025e-09
2.69702e-10
-3.97539e-09
-3.44121e-09
3.48679e-09
2.66363e-09
6.61717e-09
-4.9787e-09
-4.30209e-09
4.86177e-09
-3.69657e-09
3.22146e-09
-4.38643e-09
8.12885e-10
2.66347e-09
-3.10455e-10
-8.82324e-10
-3.18499e-09
2.34871e-09
1.71868e-09
-4.12028e-09
6.40621e-09
-4.77264e-09
2.48685e-09
-2.94781e-09
2.71577e-09
4.65089e-09
-4.41856e-09
-1.89203e-10
1.7767e-09
-1.72587e-09
1.39415e-10
6.03447e-09
-3.32283e-09
-2.41885e-09
-2.92768e-10
-5.48751e-09
4.01467e-09
-2.05316e-09
3.52608e-09
-1.1167e-09
5.21237e-09
-4.28469e-09
2.60257e-09
-5.11328e-09
4.08333e-10
2.1024e-09
-1.5849e-09
4.74034e-09
-6.26824e-09
6.81645e-09
-3.15937e-09
2.36464e-10
-1.61013e-09
3.93178e-09
-1.94558e-09
-3.76016e-10
-3.39808e-09
2.16941e-09
-3.66862e-09
4.89742e-09
4.02139e-09
-5.70741e-09
2.62876e-09
-9.42873e-10
-3.86353e-09
-1.06114e-09
-1.12845e-09
-3.86366e-09
4.52183e-09
4.34207e-09
-5.00021e-09
-6.67241e-09
-8.67752e-09
1.10374e-08
-3.79671e-09
-2.56839e-09
5.83871e-09
5.26367e-10
7.73672e-09
5.52317e-10
-5.12748e-09
-3.16158e-09
-5.58822e-09
-2.1445e-09
2.1692e-09
5.56341e-09
-2.41969e-09
-4.48015e-09
6.42216e-09
4.77656e-10
3.09959e-09
4.46179e-09
-6.28017e-09
-1.28118e-09
6.13097e-09
-4.78546e-09
1.75412e-09
-4.24196e-09
5.15566e-10
2.10657e-10
-4.93545e-09
2.08098e-09
1.19956e-09
1.65486e-09
-3.72991e-09
2.85785e-09
7.422e-10
1.29861e-10
3.14495e-09
-6.62877e-09
3.41676e-09
6.7144e-11
-3.10041e-09
6.30639e-09
3.39889e-09
-6.60477e-09
4.36915e-09
-2.95315e-09
-2.64046e-09
1.22442e-09
5.28163e-09
-8.88234e-09
1.16943e-09
2.43124e-09
-9.15806e-09
2.08512e-09
2.64318e-09
4.42984e-09
-3.73092e-10
-1.78046e-09
3.59197e-09
-1.43847e-09
-9.33014e-10
1.68124e-09
-2.83847e-09
2.09019e-09
1.72239e-09
1.84178e-09
-4.49729e-09
-3.87271e-09
4.13245e-09
-5.11372e-09
4.85406e-09
4.74359e-09
-1.54938e-09
-5.5027e-09
2.30848e-09
3.86246e-09
-8.33129e-10
-3.49937e-09
4.70012e-10
1.73852e-09
-3.33766e-09
6.81265e-09
2.31727e-09
2.63359e-09
-4.63796e-09
-3.1273e-10
-2.34341e-09
-2.66469e-09
1.62814e-09
2.62321e-09
-5.06304e-10
-3.8365e-09
8.66226e-10
2.7805e-09
1.89778e-10
-5.5777e-09
-5.045e-10
-2.33966e-09
4.999e-09
-3.78714e-09
9.1635e-11
-4.39958e-09
4.84976e-09
-6.04183e-09
8.37249e-09
-6.96082e-09
7.02813e-09
-8.43986e-09
4.37707e-09
-1.55931e-09
3.64235e-09
-6.46006e-09
-4.29817e-09
3.28482e-09
-3.72704e-09
-1.3243e-09
4.84373e-09
-4.13033e-09
6.10928e-10
-5.39525e-09
-4.37003e-09
6.17314e-09
3.42926e-09
-4.88299e-09
2.46252e-09
3.9728e-09
4.43922e-09
-4.0429e-09
-3.68902e-09
1.15888e-09
2.31228e-09
2.17812e-10
-1.25466e-08
1.23705e-08
2.81129e-09
5.18656e-09
-7.02439e-09
1.93061e-09
-9.25541e-11
8.22297e-09
-5.12437e-09
1.59723e-10
-3.25829e-09
-2.25687e-09
-4.98592e-09
2.71265e-09
4.53042e-09
6.73793e-09
-6.58982e-09
7.34383e-09
-7.49198e-09
5.16423e-09
-5.12572e-10
9.68326e-10
-5.61987e-09
-5.21308e-09
7.34759e-09
2.46354e-09
-4.59805e-09
-1.25006e-09
5.56109e-09
6.57348e-09
-5.26438e-09
3.30365e-09
1.92907e-09
3.15177e-11
-8.72571e-10
4.52138e-09
-9.85211e-10
3.60886e-09
-5.34109e-09
-2.69582e-09
4.42816e-09
4.26989e-09
-2.68417e-09
2.19579e-09
2.11346e-09
3.93887e-09
2.50775e-10
-6.30299e-09
-5.46007e-09
6.26258e-09
6.48038e-09
-7.28293e-09
-5.71842e-09
5.39574e-09
2.54123e-09
-2.21851e-09
2.62541e-11
-3.34677e-09
2.94825e-09
3.72266e-10
-2.66868e-09
2.51273e-09
-2.24522e-10
3.80438e-10
-8.7484e-09
5.63276e-09
5.79872e-09
-2.68309e-09
4.3832e-09
-1.33616e-09
-7.14265e-09
4.09563e-09
-1.58131e-09
-5.07913e-09
-1.24628e-09
3.58658e-09
-9.19338e-09
3.06664e-09
2.54025e-09
2.5116e-09
4.28218e-09
-2.371e-09
-4.42278e-09
4.27644e-09
-4.75776e-09
2.29914e-09
-1.81763e-09
3.50667e-09
-7.22266e-09
2.95067e-09
7.65216e-10
-4.85935e-09
7.51767e-09
-2.70624e-09
4.80048e-11
-9.13764e-10
1.09466e-09
-3.81534e-09
3.6343e-09
4.07162e-09
-1.78181e-09
-4.44781e-09
2.15797e-09
-4.86959e-09
3.45155e-09
1.55508e-09
-1.3698e-10
9.14943e-10
-4.60544e-09
3.65741e-10
3.32466e-09
-1.08592e-09
3.19204e-09
-2.40168e-09
2.95488e-10
2.33833e-09
1.75715e-09
-4.33045e-09
2.34889e-10
3.88994e-09
4.44869e-09
-8.34121e-09
2.65762e-12
1.59131e-09
9.68254e-10
-7.67527e-09
5.1159e-09
-2.62492e-09
-5.02018e-09
3.12572e-09
3.84185e-10
-4.02091e-09
5.11074e-10
1.20544e-09
2.21437e-10
-1.72768e-09
3.01167e-10
-1.62982e-09
-5.90494e-09
4.5156e-09
-6.17354e-09
-1.86373e-09
4.44528e-09
3.59207e-09
2.16738e-09
3.41661e-09
-5.43536e-09
-1.48549e-10
-3.80965e-09
-3.07619e-09
2.7825e-09
4.10327e-09
-8.69179e-09
-6.06459e-10
5.48842e-09
-7.6974e-10
2.35818e-10
4.35811e-09
1.26328e-08
-5.25076e-09
-1.17401e-08
1.56247e-09
-3.84163e-09
2.11931e-09
1.60102e-10
2.85096e-09
3.05212e-09
-4.4459e-09
-1.45702e-09
-3.5034e-09
3.46711e-09
-3.58619e-10
3.95064e-10
-2.62974e-10
2.44736e-09
-2.59974e-09
4.15363e-10
-3.52395e-09
1.46807e-09
3.64039e-09
3.01278e-09
-2.81004e-10
9.83063e-11
-2.81614e-09
3.86705e-09
-1.22328e-09
1.72515e-10
3.09941e-09
-5.71537e-09
-3.73268e-09
6.34853e-09
1.89363e-09
-7.40343e-09
1.41146e-10
5.62294e-09
6.67911e-10
4.47168e-10
-2.92384e-09
4.68511e-09
-4.09902e-10
4.53854e-09
-2.0174e-09
1.94503e-10
-2.71571e-09
-2.74747e-09
2.91605e-09
3.11734e-09
-3.28573e-09
-7.54251e-10
1.92547e-10
-5.61183e-09
3.54041e-09
-2.4265e-09
-1.05958e-09
-5.42804e-11
2.10543e-09
-4.89329e-11
3.14116e-10
-4.54535e-10
-2.28319e-09
-9.73387e-12
5.26748e-09
-1.77077e-09
-3.07916e-09
-4.17756e-10
-1.00817e-09
-1.58288e-10
4.4355e-09
-3.26901e-09
2.9355e-09
-2.14388e-09
3.29264e-10
-1.12081e-09
-8.03221e-09
3.48346e-09
7.22731e-09
-2.67893e-09
1.78529e-09
-1.91609e-09
-2.06483e-09
-2.79766e-09
-6.15491e-10
4.57533e-09
3.35796e-09
-2.19986e-09
-3.96382e-09
2.80592e-09
-1.40563e-09
-1.96315e-09
1.24562e-10
-1.1316e-08
5.67827e-09
6.0126e-09
-3.74841e-10
-4.38714e-09
9.75747e-10
7.99056e-09
-4.57914e-09
5.6837e-09
-4.256e-09
5.04958e-09
-6.47701e-09
5.50158e-09
-1.89467e-09
-3.90352e-09
2.96975e-10
1.77591e-09
-1.53106e-09
2.66653e-09
-2.91125e-09
8.25022e-10
4.80949e-09
-1.32466e-10
3.8747e-09
1.49536e-09
2.74534e-09
-1.4103e-09
-1.48085e-09
1.45742e-10
4.09732e-09
3.94223e-09
-6.30005e-09
-2.62054e-09
3.50493e-09
-2.04192e-09
1.15759e-09
2.20239e-09
-2.89682e-10
-2.14981e-09
2.37246e-10
-3.76981e-09
3.70878e-09
5.01291e-09
-4.95189e-09
-3.92735e-09
4.13129e-09
4.03043e-09
-4.23419e-09
-4.52945e-09
-1.24935e-09
4.17204e-09
1.60689e-09
-7.43626e-10
-9.74615e-10
-3.09119e-09
4.8096e-09
4.06266e-09
-3.19037e-09
3.34098e-09
-4.21323e-09
-2.24654e-10
2.04054e-09
-1.91428e-09
9.86721e-11
2.14913e-09
2.28728e-09
-4.3074e-09
-1.28984e-10
7.24191e-09
-3.98393e-09
-4.42594e-09
-1.59214e-09
-3.77174e-09
-9.71827e-10
2.62966e-09
-2.66036e-10
-2.56463e-09
2.01193e-10
-3.27443e-09
3.73789e-09
-6.54036e-10
1.90607e-10
-3.20478e-09
4.89241e-09
-4.96201e-09
-4.24033e-09
4.15064e-09
3.53882e-09
-3.4491e-09
-2.79111e-09
-4.78508e-09
4.2401e-09
3.3361e-09
-1.57999e-09
-1.46054e-09
2.73875e-09
3.01892e-10
3.19177e-09
-1.6367e-09
2.30222e-10
3.09291e-09
-1.92683e-09
-1.32671e-09
1.60651e-10
3.11013e-09
-1.77194e-09
7.86992e-09
-9.20808e-09
3.24662e-09
-4.99288e-09
8.23523e-10
9.22632e-10
5.72469e-09
-6.02694e-09
-6.67602e-09
6.97826e-09
-5.80754e-09
3.8051e-09
4.51221e-09
-2.50965e-09
1.58247e-09
1.9225e-09
-1.56357e-09
3.18631e-09
-6.82939e-09
3.94042e-09
-1.3247e-09
2.82095e-10
-4.00311e-09
5.04596e-09
1.18239e-09
-2.8902e-09
1.09237e-10
2.56402e-09
-1.07883e-09
-5.44317e-10
1.11235e-09
-5.80373e-09
1.55264e-09
3.1388e-09
-8.27756e-10
-3.30197e-09
7.88205e-09
-3.75237e-09
1.43799e-09
-1.26199e-09
1.05188e-09
-1.22749e-09
4.22271e-09
1.80096e-09
-5.01987e-09
-1.00396e-09
-1.21947e-09
2.13566e-09
-4.01173e-09
3.09607e-09
3.38797e-09
-9.06689e-09
1.68068e-09
3.99808e-09
1.29707e-09
9.69277e-10
-2.46156e-09
1.9522e-10
-4.39523e-09
4.75142e-09
-1.98102e-09
1.62485e-09
4.35123e-09
-2.30553e-09
3.04826e-09
-5.09398e-09
1.73815e-09
-1.6026e-09
-1.74794e-09
1.61231e-09
-1.57093e-09
-4.94989e-09
-2.00509e-09
6.43534e-09
-8.22668e-09
5.10376e-09
-3.31235e-09
-4.6972e-09
4.50289e-09
-3.01046e-11
6.02403e-10
-1.23675e-09
-2.72061e-09
9.83304e-10
-4.56088e-09
6.29816e-09
5.0914e-09
-6.50373e-09
3.78584e-09
9.69035e-10
-3.85731e-09
-7.31537e-10
3.61987e-09
-1.9918e-09
-2.44297e-09
-1.93643e-09
6.3711e-09
6.59549e-09
-1.96705e-09
-4.9439e-09
3.15546e-10
-8.17146e-10
-1.7229e-09
-1.85996e-09
4.39977e-09
2.00495e-09
-9.07159e-10
-1.7997e-09
2.37748e-09
-3.74799e-09
2.84299e-10
4.09079e-09
1.00266e-09
-1.35881e-09
-3.73468e-09
3.29017e-09
-2.46642e-09
-1.19202e-09
3.68257e-10
3.64734e-09
-3.21739e-09
-6.98877e-10
2.68854e-10
3.22536e-09
-3.07608e-09
-1.91184e-09
1.76235e-09
1.79196e-09
-6.83656e-10
-4.72521e-09
3.61704e-09
3.08069e-09
1.91019e-09
-4.87022e-09
-1.20619e-10
1.5459e-09
-2.89902e-09
4.44328e-09
-3.09027e-09
2.42848e-09
-2.96554e-09
-2.6768e-09
-4.99317e-09
6.7999e-09
-3.35191e-09
3.73016e-09
-3.8341e-10
1.23396e-09
1.77918e-09
-5.29352e-09
8.63379e-09
-2.33236e-09
-1.0077e-09
-9.12887e-10
1.87709e-09
-1.11948e-09
1.55303e-10
5.49114e-09
-2.94469e-10
-1.2321e-09
-3.9645e-09
-4.84931e-09
-6.71187e-10
5.17992e-09
3.40582e-10
-9.18351e-09
-2.54229e-09
5.53395e-09
6.1919e-09
1.16479e-09
-3.20571e-09
1.90087e-09
1.40211e-10
2.81205e-09
-2.81734e-09
1.17008e-09
-5.93784e-10
1.74065e-09
1.90528e-09
-3.05203e-09
1.00416e-08
-9.7444e-09
4.10332e-09
-4.40036e-09
-3.67409e-09
-5.6331e-09
1.89506e-09
7.41217e-09
2.99848e-09
-5.58153e-09
6.08966e-09
3.0976e-09
-2.76084e-09
-7.17854e-10
3.81062e-10
1.12669e-09
-1.58549e-09
-2.12447e-09
-6.66751e-10
-8.4667e-10
2.24742e-09
-7.34261e-10
2.20054e-09
-3.38797e-09
-5.49641e-09
6.68383e-09
-5.70994e-09
5.37704e-09
4.71935e-09
-4.38642e-09
-4.15709e-09
5.95838e-09
-1.83303e-09
3.64302e-09
-5.29143e-09
3.65461e-09
-2.72285e-09
-1.10316e-09
1.71277e-10
6.52577e-09
-4.9637e-09
4.63868e-11
-1.60849e-09
-1.76717e-09
2.40756e-09
-1.41593e-09
1.68437e-09
-2.88906e-09
-5.62251e-10
-2.10159e-09
5.89889e-09
-4.00777e-09
2.10468e-10
-3.73242e-09
2.37903e-09
1.20672e-09
1.46976e-10
-4.03002e-09
-6.14082e-09
1.36994e-09
3.8944e-09
2.26022e-09
1.62611e-09
-7.78071e-09
-1.01094e-09
-1.39751e-09
1.65491e-10
5.36402e-09
-2.75052e-09
1.18544e-09
-2.77211e-09
2.11881e-09
8.03069e-10
-1.49633e-10
1.34219e-09
3.80774e-09
1.31699e-10
4.31303e-09
-1.80802e-09
1.87201e-09
1.81874e-09
1.4641e-09
3.64345e-10
6.95109e-09
-1.38934e-09
-3.92069e-09
-1.6411e-09
4.38682e-09
-2.17204e-09
-2.0623e-10
4.25223e-09
-3.7645e-09
5.12896e-10
-1.00055e-09
2.59899e-09
-2.22078e-09
2.34166e-09
-2.71981e-09
5.01793e-09
-5.87321e-09
1.78314e-09
-9.27885e-10
-3.92684e-09
5.26266e-09
3.68209e-09
2.46188e-09
-1.77523e-09
2.12904e-09
4.46609e-09
-3.03098e-09
-4.56665e-09
3.13173e-09
1.83998e-09
-1.38012e-09
-5.43083e-10
8.34269e-11
-1.86992e-09
-2.9056e-09
4.49352e-09
2.81955e-10
2.01114e-09
-7.66642e-10
-5.15133e-09
3.90696e-09
1.35344e-09
-2.79519e-09
5.53252e-09
5.62915e-09
-4.64178e-09
1.75373e-09
-2.74116e-09
1.37252e-09
4.14786e-09
-5.73028e-09
2.10025e-10
-4.17303e-09
4.46212e-09
-4.19078e-10
1.30068e-10
6.40658e-10
-2.61586e-09
2.43491e-09
-4.60155e-10
-9.74546e-10
4.82246e-09
-3.73007e-09
-1.17804e-10
1.81975e-09
-3.61173e-09
-4.32372e-09
6.11568e-09
3.49503e-11
5.94677e-11
-1.68811e-09
-6.85197e-09
2.25155e-09
6.28865e-09
-2.79068e-09
1.6716e-09
5.12954e-10
-5.03375e-10
1.34429e-09
-1.08221e-09
2.41085e-10
1.75736e-09
2.89926e-09
1.50883e-10
-4.00009e-09
2.50165e-09
1.55513e-09
-5.65903e-11
4.07191e-09
-1.78332e-09
-2.44734e-09
1.58777e-10
-1.38389e-09
3.6786e-10
3.03515e-09
-1.55359e-09
1.20395e-09
-3.77976e-09
4.47193e-09
-2.32548e-09
3.79729e-09
-2.17884e-09
-1.68883e-09
7.04468e-11
-5.65225e-09
-1.35201e-09
-4.29428e-10
7.43383e-09
-7.57065e-10
4.22925e-09
-1.40959e-09
-2.86505e-09
4.54285e-11
-2.26395e-09
2.96758e-09
-6.17886e-10
-8.56246e-11
4.7843e-10
-6.46221e-09
4.05579e-09
1.92805e-09
2.50625e-09
2.57174e-09
-4.73201e-09
-3.45684e-10
-3.83257e-09
2.12822e-10
3.3931e-09
2.26759e-10
-3.60837e-09
2.14446e-09
1.34527e-09
1.18884e-10
-1.32461e-09
-4.6527e-09
3.22811e-09
2.74934e-09
-1.59605e-09
5.07241e-10
-6.42107e-09
1.13777e-09
2.90421e-10
4.25309e-09
-3.62709e-09
-2.97371e-09
2.34773e-09
5.18214e-09
-5.99428e-09
1.69345e-10
-1.43441e-09
2.40017e-09
2.16712e-10
3.66101e-09
5.53711e-09
8.10292e-11
-4.13224e-09
-1.48612e-09
5.18972e-09
-2.28759e-09
-2.97487e-09
7.28573e-11
3.68337e-09
1.97005e-10
-1.5636e-09
-2.31664e-09
1.13632e-09
2.16691e-09
-1.3593e-09
-1.94383e-09
-8.89178e-09
2.78248e-09
8.82996e-10
5.22641e-09
3.08402e-09
7.79641e-10
-1.81364e-09
6.72992e-10
1.02406e-09
-4.52084e-09
-6.63507e-09
2.93745e-09
-1.38984e-09
5.08752e-09
-3.82156e-09
2.63778e-09
2.54659e-09
-1.36263e-09
-1.29772e-10
-4.46285e-09
4.39987e-09
1.92813e-10
-1.35071e-09
-1.55002e-09
2.64969e-09
2.51242e-10
-3.03266e-09
1.9881e-10
4.93549e-09
4.02956e-09
-4.02443e-09
-4.94061e-09
-1.21592e-09
2.94569e-09
-1.93323e-09
2.03444e-10
-3.33226e-09
6.72329e-09
5.35031e-09
-8.74124e-09
-1.40995e-09
-6.6727e-11
1.89946e-10
-3.85314e-09
2.04773e-09
1.79373e-09
1.1634e-11
-2.15913e-09
-6.97953e-10
-3.13712e-09
5.99428e-09
-7.03412e-09
-7.66376e-09
2.49631e-09
1.22017e-08
3.84669e-09
-5.0251e-09
5.9677e-09
-4.7892e-09
5.91354e-09
4.75677e-09
-3.51012e-09
-7.16011e-09
-4.25218e-09
1.41311e-10
9.95374e-09
1.71587e-09
-6.48234e-09
-5.18726e-09
5.91387e-09
-1.99691e-09
-7.92926e-09
4.01234e-09
-3.83063e-09
-2.46598e-09
-9.07834e-10
7.20442e-09
6.16213e-11
1.08297e-08
-6.7422e-09
-4.14924e-09
4.21829e-09
3.13055e-10
6.41928e-09
-1.23839e-08
-5.95024e-10
6.56001e-09
2.45317e-09
5.34335e-09
-9.62002e-09
1.82347e-09
6.22596e-09
5.56593e-10
-1.04026e-08
3.62004e-09
-7.63349e-09
5.38241e-09
7.41364e-09
-5.16236e-09
-3.00702e-09
2.64652e-09
5.35962e-09
1.13279e-08
1.97644e-09
-8.44248e-09
-4.86154e-09
-1.82753e-09
7.11335e-09
-1.13473e-08
6.06155e-09
-1.08366e-08
1.3325e-09
5.41877e-09
4.08534e-09
-2.02165e-09
-7.04894e-09
1.23778e-08
-3.30708e-09
-2.74005e-09
5.72526e-09
-1.22205e-08
9.23551e-09
-4.36327e-10
-2.92439e-09
-1.42683e-10
-6.95428e-09
-3.40775e-09
5.40865e-09
4.95386e-09
5.59962e-12
2.50904e-10
-4.92746e-09
4.67101e-09
7.94886e-09
-1.01722e-08
-1.18496e-09
3.40837e-09
-1.66381e-09
1.26399e-08
-8.37937e-09
-2.59661e-09
5.33663e-09
-7.54431e-09
-4.02448e-09
6.23228e-09
2.75287e-09
-4.40604e-09
1.58923e-09
6.39903e-11
-1.0321e-09
4.3612e-09
4.4076e-09
-8.341e-10
-2.44855e-09
6.57803e-10
-2.10991e-09
-1.79778e-09
3.17214e-09
7.35415e-10
-1.71276e-09
8.38177e-09
4.66233e-09
-6.6469e-09
-2.61603e-09
2.71277e-09
6.55018e-09
6.33472e-10
2.30695e-09
-3.12197e-09
1.81654e-10
2.87052e-09
-3.24654e-09
-9.5068e-11
4.71202e-10
2.51384e-09
-5.27976e-10
4.63072e-09
-1.06586e-08
-1.05003e-09
7.14548e-09
4.56341e-09
-8.18026e-10
-6.90588e-09
-3.26594e-09
1.09903e-08
-1.96702e-09
3.45625e-09
2.48906e-10
1.14535e-09
-1.05931e-08
3.54176e-09
5.90605e-09
6.25308e-09
-1.81349e-10