/*--------------------------------*- C++ -*----------------------------------*\
| =========                 |                                                 |
| \\      /  F ield         | OpenFOAM: The Open Source CFD Toolbox           |
|  \\    /   O peration     | Version:  v1612+                                |
|   \\  /    A nd           | Web:      www.OpenFOAM.com                      |
|    \\/     M anipulation  |                                                 |
\*---------------------------------------------------------------------------*/
FoamFile
{
    version     2.0;
    format      ascii;
    class       volVectorField;
    location    "206";
    object      U;
}
// * * * * * * * * * * * * * * * * * * * * * * * * * * * * * * * * * * * * * //

dimensions      [0 1 -1 0 0 0 0];

internalField   nonuniform List<vector> 
18899
(
(0.239526 0.593963 0.283816)
(0.118011 0.870854 0.428073)
(-0.237247 0.871511 0.606676)
(-0.206517 0.875019 0.583728)
(-0.19484 0.840541 0.586046)
(-0.219052 0.87084 0.618707)
(-0.169921 0.84389 0.585197)
(-0.322423 0.917998 0.693482)
(-0.310296 0.927231 0.686933)
(-0.189947 0.855975 0.558428)
(-0.298866 0.906648 0.687778)
(-0.216971 0.868195 0.587502)
(-0.174087 0.836996 0.550257)
(-0.285589 0.868689 0.671179)
(-0.138705 0.789334 0.538903)
(-0.230515 0.850867 0.602869)
(-0.307267 0.902892 0.68125)
(0.108935 0.507617 0.473187)
(0.114856 0.494917 0.483885)
(0.0939574 0.514985 0.482156)
(0.0746297 0.511243 0.509654)
(0.0945846 0.487364 0.492456)
(0.105588 0.532997 0.481356)
(0.129625 0.513698 0.474752)
(0.136941 0.490545 0.467283)
(0.0338127 0.546775 0.489801)
(0.0262167 0.543025 0.552048)
(0.0787687 0.545669 0.480908)
(0.0905451 0.534771 0.494344)
(0.0981249 0.520621 0.521558)
(0.00501308 0.558189 0.539568)
(0.0559138 0.557988 0.516949)
(0.0233264 0.567207 0.563233)
(0.0471701 0.542416 0.550137)
(-0.00729984 0.572633 0.544415)
(-0.168465 0.930305 0.626223)
(-0.171565 0.930096 0.643046)
(-0.214475 0.912531 0.66334)
(-0.193373 0.921027 0.696408)
(-0.192649 0.936525 0.650607)
(-0.192588 0.924538 0.644598)
(-0.18661 0.903348 0.66471)
(-0.18667 0.902845 0.680989)
(-0.166912 0.930512 0.644857)
(-0.155763 0.927995 0.627212)
(-0.153601 0.935219 0.624581)
(-0.155439 0.920425 0.653833)
(-0.202152 0.924793 0.67109)
(-0.171801 0.901077 0.685385)
(-0.171061 0.893166 0.672328)
(-0.14046 0.913927 0.653331)
(-0.188711 0.926036 0.6676)
(-0.184745 0.921824 0.675472)
(0.246656 0.69167 0.474361)
(0.248505 0.675424 0.44984)
(0.271642 0.631841 0.423706)
(0.240119 0.674708 0.446776)
(0.2399 0.68058 0.455257)
(0.271153 0.601492 0.398369)
(0.26416 0.634009 0.416454)
(0.263454 0.600862 0.388082)
(0.271253 0.554987 0.367801)
(0.276608 0.622397 0.438345)
(0.277087 0.586219 0.408075)
(0.267148 0.644533 0.449523)
(0.242562 0.678129 0.462954)
(0.27226 0.580731 0.394395)
(0.0374688 0.272931 0.229883)
(0.039048 0.24613 0.214631)
(0.0346415 0.252946 0.211408)
(0.0339241 0.229253 0.193032)
(0.0207388 0.390649 0.265025)
(0.0332509 0.333542 0.236984)
(0.0244062 0.354948 0.259674)
(0.0349446 0.235515 0.187455)
(0.0237988 0.364791 0.25429)
(0.0208366 0.421151 0.268081)
(0.033099 0.268512 0.200149)
(0.0314896 0.278627 0.216255)
(0.032501 0.348343 0.225314)
(0.017419 0.429501 0.284403)
(0.0199566 0.389132 0.263387)
(0.0256171 0.340969 0.227798)
(0.0278201 0.245322 0.191098)
(0.028851 0.40331 0.256489)
(0.0277341 0.311751 0.213904)
(-0.0647601 0.752015 0.416405)
(-0.0445792 0.727392 0.400774)
(-0.209952 0.865282 0.587088)
(-0.235264 0.875239 0.607806)
(-0.195959 0.859788 0.552043)
(-0.196124 0.871003 0.577306)
(-0.111111 0.793649 0.436785)
(-0.13814 0.805928 0.468173)
(-0.250841 0.871743 0.614097)
(-0.230134 0.863304 0.581277)
(-0.194128 0.834845 0.559886)
(-0.209201 0.850841 0.57069)
(-0.122692 0.831803 0.491636)
(-0.121086 0.813021 0.45523)
(-0.1289 0.780423 0.448369)
(-0.0902319 0.766066 0.399822)
(-0.146816 0.789697 0.458074)
(-0.147568 0.792224 0.463581)
(-0.0604914 0.770804 0.415575)
(-0.0310233 0.741127 0.378238)
(-0.135173 0.784081 0.44811)
(-0.0967933 0.780331 0.427697)
(-0.103254 0.781095 0.421741)
(-0.0909954 0.792836 0.415756)
(-0.119388 0.799931 0.443654)
(-0.0736838 0.721475 0.354089)
(-0.108853 0.70625 0.354284)
(-0.0790026 0.679657 0.318954)
(-0.0704477 0.677782 0.319225)
(-0.0973524 0.616031 0.302917)
(-0.0726798 0.57545 0.269401)
(-0.0597625 0.555698 0.229628)
(-0.10668 0.659704 0.319358)
(-0.0774564 0.633125 0.291991)
(-0.0479011 0.595876 0.249364)
(-0.104633 0.657539 0.31795)
(-0.19291 0.848973 0.543519)
(-0.2159 0.819109 0.539327)
(-0.222636 0.834511 0.57902)
(-0.21398 0.848313 0.576991)
(-0.174826 0.757992 0.50953)
(-0.177052 0.711769 0.491818)
(-0.141775 0.614611 0.435023)
(-0.147691 0.645924 0.42627)
(-0.172432 0.748371 0.488446)
(-0.202665 0.767794 0.505626)
(-0.18774 0.862793 0.540869)
(-0.219301 0.836793 0.555786)
(-0.243513 0.861837 0.581254)
(-0.215143 0.891509 0.590004)
(-0.233377 0.881422 0.598696)
(-0.216954 0.768386 0.531061)
(-0.161019 0.725985 0.473227)
(-0.152278 0.642142 0.454477)
(-0.153191 0.666668 0.439967)
(-0.175386 0.805459 0.514343)
(-0.191354 0.858096 0.541361)
(0.0723902 0.812706 0.400936)
(0.152899 0.716052 0.339719)
(0.0886481 0.787179 0.396847)
(0.125014 0.72487 0.387833)
(-0.0617079 0.859078 0.505399)
(-0.0528247 0.835511 0.503985)
(0.00825585 0.873118 0.462263)
(0.0708685 0.808552 0.389754)
(-0.0641229 0.871077 0.506718)
(-0.0421149 0.869788 0.511795)
(0.0320309 0.792676 0.456793)
(0.0186902 0.821986 0.465439)
(-0.0619323 0.835795 0.498908)
(0.0108319 0.761168 0.461502)
(-0.060721 0.864074 0.503193)
(0.0228446 0.82022 0.436541)
(0.122953 0.721804 0.367557)
(0.116164 0.68921 0.381948)
(0.139548 0.696142 0.376998)
(0.160496 0.682835 0.344006)
(-0.0064278 0.780712 0.473783)
(-0.170502 0.678367 0.645469)
(-0.142478 0.644324 0.597934)
(-0.148548 0.610024 0.545561)
(-0.198443 0.687171 0.633243)
(-0.162514 0.642192 0.567431)
(-0.178815 0.646463 0.54998)
(-0.169724 0.663791 0.593201)
(-0.215161 0.759567 0.673246)
(-0.19544 0.704682 0.637009)
(-0.274095 0.758315 0.644028)
(-0.290507 0.759654 0.654815)
(-0.242812 0.792565 0.670929)
(-0.250471 0.770237 0.671572)
(-0.306324 0.830495 0.71027)
(-0.285774 0.813711 0.700543)
(-0.2302 0.701859 0.639957)
(-0.241855 0.707901 0.582968)
(-0.210184 0.670209 0.543998)
(-0.272942 0.770553 0.669679)
(0.21272 0.686912 0.604652)
(0.211899 0.664209 0.590418)
(0.184467 0.709255 0.61296)
(0.189369 0.691853 0.605274)
(0.218201 0.678406 0.599909)
(0.219221 0.709809 0.621581)
(0.191444 0.712398 0.619179)
(0.189335 0.704031 0.614053)
(0.177513 0.714586 0.619853)
(0.186657 0.720747 0.630808)
(0.207119 0.707404 0.621808)
(0.208101 0.721719 0.627775)
(0.177471 0.732395 0.633637)
(0.177257 0.731486 0.635575)
(0.161959 0.74074 0.63158)
(0.189008 0.72863 0.626925)
(-0.270354 0.821422 0.608397)
(-0.265254 0.803997 0.599926)
(-0.245699 0.781164 0.575297)
(-0.358236 0.922673 0.70646)
(-0.330295 0.918758 0.672206)
(-0.265881 0.842448 0.602114)
(-0.316521 0.927852 0.667863)
(-0.306618 0.890756 0.641755)
(-0.328116 0.937354 0.674821)
(-0.311231 0.874673 0.640441)
(-0.332565 0.916222 0.696612)
(-0.331464 0.914768 0.690253)
(-0.32374 0.945767 0.689773)
(-0.34226 0.893584 0.691008)
(-0.341073 0.889044 0.669366)
(-0.315821 0.905229 0.696212)
(-0.341685 0.937105 0.714754)
(-0.329033 0.916 0.69918)
(-0.356797 0.91929 0.706669)
(0.150713 0.876303 0.499506)
(0.160033 0.833116 0.488657)
(0.161169 0.870255 0.522245)
(0.169438 0.862385 0.51058)
(0.157371 0.863443 0.528256)
(0.1633 0.868969 0.521235)
(0.183321 0.852426 0.495514)
(0.0930487 0.833725 0.487453)
(0.108684 0.749811 0.454498)
(0.107889 0.866719 0.504535)
(0.123959 0.861314 0.521201)
(0.124448 0.865674 0.517383)
(0.136747 0.860952 0.514775)
(0.138371 0.764115 0.454663)
(0.173644 0.862938 0.520163)
(0.129472 0.836898 0.489636)
(0.166002 0.797859 0.466184)
(0.158031 0.83503 0.482834)
(-0.0564795 0.778058 0.480513)
(-0.0290927 0.709932 0.467413)
(-0.123721 0.780473 0.511886)
(-0.137424 0.836392 0.560567)
(-0.126467 0.873202 0.553955)
(0.00939589 0.687599 0.448798)
(0.00595516 0.777234 0.47028)
(0.0546052 0.738319 0.452183)
(-0.0990771 0.756931 0.514894)
(-0.150608 0.887857 0.586725)
(-0.0365824 0.847474 0.487615)
(-0.0128774 0.713636 0.458691)
(-0.153106 0.867352 0.571796)
(-0.108856 0.868248 0.537451)
(-0.116269 0.877077 0.529012)
(-0.275932 0.869376 0.690294)
(-0.25492 0.851925 0.696283)
(-0.339327 0.887768 0.724777)
(-0.301925 0.851644 0.70001)
(-0.281492 0.907389 0.713204)
(-0.256076 0.828854 0.697935)
(-0.281561 0.878693 0.682457)
(-0.295874 0.876073 0.671244)
(-0.272746 0.811877 0.684668)
(-0.252216 0.809611 0.684508)
(-0.31904 0.883856 0.717005)
(-0.305876 0.972332 0.739091)
(-0.297751 0.842554 0.704473)
(-0.299184 0.861861 0.685927)
(-0.267951 0.857752 0.6755)
(-0.325119 0.885963 0.702603)
(-0.303488 0.884926 0.703694)
(-0.291149 0.838491 0.717488)
(-0.142442 0.789035 0.495946)
(-0.166739 0.798101 0.510763)
(-0.13381 0.714469 0.428991)
(-0.129203 0.749248 0.445122)
(-0.171188 0.878999 0.544611)
(-0.1358 0.733472 0.433176)
(-0.107022 0.821975 0.471026)
(-0.119013 0.813292 0.464977)
(-0.146621 0.891217 0.541969)
(-0.173748 0.888964 0.544841)
(-0.163101 0.88784 0.551324)
(-0.13678 0.822033 0.497694)
(-0.212401 0.901184 0.598861)
(-0.183217 0.872892 0.588915)
(-0.178083 0.871581 0.587983)
(-0.123099 0.797961 0.463938)
(-0.16969 0.876879 0.568057)
(-0.142224 0.84482 0.519053)
(-0.129356 0.808576 0.487661)
(-0.112804 0.792097 0.465177)
(-0.0930401 0.834458 0.470796)
(-0.0929577 0.787209 0.421471)
(-0.0957184 0.814989 0.459317)
(-0.168076 0.873579 0.563277)
(-0.15179 0.8801 0.556914)
(-0.100394 0.833257 0.481039)
(-0.0723828 0.80546 0.431797)
(-0.0665293 0.770097 0.40414)
(-0.0740514 0.779172 0.423887)
(0.031192 0.915246 0.526363)
(0.0244292 0.92672 0.538788)
(0.0774083 0.900679 0.484152)
(0.0556268 0.884332 0.478597)
(0.0266132 0.916714 0.510595)
(0.0182657 0.903177 0.515168)
(0.0737905 0.898814 0.490602)
(0.104465 0.888806 0.47656)
(0.0804958 0.901488 0.496474)
(0.0483973 0.914938 0.51947)
(0.125885 0.8621 0.45045)
(0.0876886 0.905494 0.493139)
(-0.32126 0.937839 0.714855)
(-0.317315 0.942287 0.702323)
(-0.340888 0.916385 0.719206)
(-0.315572 0.955724 0.711214)
(-0.338088 0.923274 0.716659)
(-0.294769 0.887846 0.67218)
(-0.305259 0.870108 0.659052)
(-0.291397 0.85894 0.648034)
(-0.337258 0.906878 0.688259)
(-0.352544 0.91985 0.709323)
(-0.341865 0.87595 0.68293)
(-0.364332 0.917498 0.744343)
(-0.34939 0.919773 0.736685)
(-0.361845 0.950863 0.74842)
(0.0699149 0.412672 0.354239)
(0.090993 0.4032 0.357197)
(0.0529687 0.54298 0.375387)
(0.0419804 0.529769 0.366684)
(0.0566246 0.559013 0.381994)
(0.0462095 0.604645 0.394162)
(0.0423121 0.553957 0.371027)
(0.0617685 0.510821 0.37024)
(0.0500945 0.363921 0.310706)
(0.0473348 0.328048 0.286516)
(0.0476197 0.425117 0.31851)
(0.0485376 0.43003 0.323568)
(0.0434367 0.501953 0.355641)
(0.0717754 0.415506 0.347263)
(0.0661609 0.35575 0.324838)
(-0.232075 0.900679 0.686274)
(-0.247579 0.915964 0.702757)
(-0.213242 0.905782 0.675837)
(-0.180263 0.888889 0.684554)
(-0.222798 0.890904 0.692446)
(-0.235726 0.892842 0.720164)
(-0.186805 0.848868 0.692421)
(-0.229512 0.915442 0.708531)
(-0.188599 0.872228 0.691574)
(-0.207127 0.885286 0.681877)
(-0.212535 0.836996 0.678894)
(-0.187058 0.853419 0.671312)
(0.0740066 0.607368 0.595768)
(0.0872789 0.601599 0.590521)
(0.113546 0.572129 0.557656)
(0.119841 0.571694 0.555775)
(0.110155 0.612746 0.584322)
(0.0687661 0.636413 0.585059)
(0.0331173 0.628209 0.598049)
(0.157108 0.583283 0.546367)
(0.154997 0.561231 0.537435)
(0.152021 0.5975 0.54936)
(0.153978 0.573214 0.538776)
(0.160292 0.558535 0.520616)
(0.108444 0.58534 0.554533)
(0.115703 0.61433 0.546492)
(0.13698 0.571757 0.535047)
(0.130875 0.571056 0.543125)
(0.0827216 0.601828 0.547228)
(-0.0692689 0.917544 0.542285)
(-0.0173135 0.895677 0.506208)
(0.000827967 0.902624 0.488021)
(-0.0799504 0.911637 0.552711)
(-0.0156291 0.921331 0.512824)
(-0.0437243 0.936068 0.553962)
(-0.0195017 0.897906 0.513379)
(-0.0290229 0.91914 0.520284)
(-0.0296446 0.933784 0.524865)
(0.00432328 0.912915 0.483177)
(0.0123203 0.907797 0.48623)
(0.0365664 0.890527 0.45783)
(0.101887 0.869822 0.612827)
(0.107696 0.859773 0.609599)
(0.0827932 0.883702 0.605224)
(0.0839524 0.886737 0.600979)
(0.059352 0.883388 0.601584)
(0.0634949 0.873576 0.611653)
(0.0940157 0.857304 0.629108)
(0.0362651 0.88688 0.610737)
(0.057062 0.864051 0.617441)
(0.102771 0.853315 0.640767)
(0.0935167 0.861014 0.623367)
(0.0765821 0.884429 0.611487)
(0.0723559 0.875494 0.641401)
(0.083239 0.864944 0.637314)
(0.0836219 0.877778 0.616686)
(0.0863306 0.272859 0.250498)
(0.0630856 0.2951 0.268388)
(0.0890563 0.252983 0.238245)
(0.0650508 0.287525 0.261054)
(0.0789404 0.275867 0.261014)
(0.0930951 0.250721 0.242419)
(0.0769324 0.288515 0.271223)
(0.101169 0.283563 0.278629)
(0.117393 0.26148 0.257501)
(0.0443972 0.450916 0.353362)
(0.0720518 0.433947 0.341326)
(0.0275588 0.363604 0.304349)
(0.113841 0.320834 0.310159)
(0.118979 0.342714 0.317173)
(0.11604 0.356163 0.315058)
(0.0114409 0.388146 0.316782)
(0.0392935 0.45577 0.356024)
(0.0163113 0.455841 0.351957)
(0.0507448 0.405291 0.331022)
(0.1084 0.305933 0.287311)
(0.0470871 0.762248 0.39821)
(0.0558464 0.696312 0.361665)
(0.103295 0.667729 0.324195)
(0.109933 0.646242 0.300066)
(0.0488615 0.711538 0.363936)
(0.114634 0.640184 0.297265)
(0.113656 0.63026 0.288187)
(0.0894782 0.65383 0.317478)
(0.0669362 0.760373 0.389622)
(0.0663255 0.759785 0.382333)
(0.109542 0.622425 0.283836)
(0.0357572 0.788825 0.404289)
(0.0833657 0.648021 0.306162)
(0.0576143 0.7704 0.388077)
(0.0493032 0.557421 0.371072)
(0.0584091 0.563138 0.374522)
(0.0371665 0.60593 0.404693)
(0.0207395 0.630235 0.415097)
(0.0911604 0.550909 0.366836)
(0.113087 0.520639 0.340455)
(-0.0255575 0.639937 0.437466)
(-0.0514153 0.734677 0.481969)
(-0.0247841 0.652015 0.445717)
(-0.0340386 0.642553 0.44304)
(0.0879949 0.63237 0.382083)
(0.116096 0.562323 0.332003)
(0.0730547 0.608064 0.387211)
(0.0765371 0.559551 0.374122)
(-0.0136121 0.705117 0.468582)
(0.0713346 0.659837 0.420747)
(0.101086 0.608833 0.372249)
(-0.205968 0.913087 0.617571)
(-0.176113 0.858073 0.574563)
(-0.158931 0.861911 0.568638)
(-0.210859 0.864779 0.61793)
(-0.0842986 0.844149 0.513519)
(-0.10812 0.828872 0.532177)
(-0.0743558 0.800211 0.511982)
(-0.0449407 0.805169 0.501343)
(-0.0657491 0.777827 0.495963)
(-0.10096 0.882357 0.53722)
(-0.0887471 0.854348 0.515048)
(-0.201369 0.879893 0.594538)
(-0.182166 0.860478 0.581237)
(-0.134581 0.846193 0.548874)
(0.194898 0.406027 0.380694)
(0.222034 0.369641 0.378028)
(0.168607 0.36906 0.355548)
(0.0968717 0.42651 0.356661)
(0.143034 0.295944 0.324864)
(0.146708 0.285924 0.318915)
(0.0957219 0.394093 0.348194)
(0.0977799 0.43543 0.362594)
(0.187284 0.319176 0.344856)
(0.214626 0.318321 0.346141)
(0.165133 0.303703 0.32054)
(0.167775 0.272472 0.303729)
(0.119368 0.415485 0.36344)
(0.181396 0.367525 0.36166)
(0.145355 0.444542 0.377824)
(0.158155 0.45444 0.382348)
(0.206265 0.389419 0.373014)
(0.22638 0.377109 0.367901)
(0.201191 0.332266 0.34136)
(-0.162772 0.657321 0.590748)
(-0.171564 0.658398 0.579498)
(-0.140794 0.632494 0.567441)
(-0.137509 0.629053 0.547338)
(-0.180224 0.679962 0.615743)
(-0.190704 0.685805 0.616204)
(-0.153659 0.642323 0.550418)
(-0.138053 0.657109 0.599551)
(-0.154574 0.670753 0.615003)
(-0.127295 0.647197 0.559302)
(-0.119981 0.633738 0.536341)
(-0.192959 0.719632 0.630985)
(-0.216468 0.733345 0.6269)
(-0.163889 0.67117 0.560001)
(-0.153215 0.682696 0.589699)
(-0.180211 0.68451 0.578503)
(0.147734 0.732114 0.618973)
(0.13278 0.753365 0.624696)
(0.126024 0.75742 0.637938)
(0.151603 0.745355 0.63263)
(0.134658 0.761425 0.647878)
(0.126932 0.75077 0.632783)
(0.164153 0.736064 0.623793)
(0.113293 0.758431 0.645093)
(0.157616 0.717697 0.622547)
(0.169582 0.703163 0.610592)
(0.177441 0.709068 0.620137)
(0.178728 0.687028 0.61068)
(0.106273 0.780152 0.649879)
(0.154043 0.74624 0.634251)
(0.116186 0.75846 0.655697)
(0.165896 0.727157 0.626627)
(-0.309372 0.769143 0.664028)
(-0.235417 0.739059 0.557368)
(-0.237216 0.730353 0.553646)
(-0.196658 0.630609 0.572295)
(-0.1709 0.624284 0.539563)
(-0.24885 0.697398 0.620382)
(-0.289824 0.730965 0.646652)
(-0.198118 0.686153 0.534152)
(-0.186083 0.638485 0.568805)
(-0.197319 0.648133 0.598593)
(-0.197716 0.679182 0.572845)
(-0.228822 0.701535 0.612374)
(-0.226348 0.687664 0.611109)
(-0.226174 0.69674 0.541646)
(-0.193086 0.674505 0.522176)
(-0.198239 0.640835 0.533602)
(0.0765312 0.768033 0.477201)
(0.0768491 0.760493 0.46489)
(0.0720424 0.780062 0.484796)
(0.0548537 0.741745 0.458062)
(0.0536569 0.827123 0.517838)
(0.047132 0.810823 0.511201)
(0.0761169 0.810135 0.502539)
(0.0373077 0.691702 0.436683)
(0.0247644 0.578037 0.375875)
(0.0263424 0.763285 0.473421)
(0.0231739 0.765953 0.476272)
(0.0656295 0.726598 0.447421)
(0.0528738 0.680765 0.419984)
(0.0594564 0.812162 0.51129)
(0.0378712 0.656917 0.412659)
(0.0216886 0.575702 0.363104)
(0.0233977 0.693715 0.427308)
(0.0379902 0.659206 0.412824)
(0.0624362 0.789733 0.499795)
(0.0371686 0.661366 0.407946)
(0.0553835 0.726748 0.453291)
(-0.0510997 0.833822 0.485877)
(-0.0259768 0.851666 0.478848)
(-0.020585 0.714742 0.365263)
(-0.0396189 0.753265 0.416713)
(-0.0651727 0.709409 0.391604)
(-0.0369071 0.653019 0.324953)
(-0.0469177 0.858846 0.48913)
(-0.0760859 0.81043 0.478554)
(-0.0745871 0.712222 0.389156)
(-0.0867272 0.75784 0.439243)
(-0.096545 0.795867 0.482508)
(-0.0903719 0.799271 0.475553)
(-0.0166748 0.786765 0.420969)
(-0.0198142 0.771122 0.399481)
(-0.0493839 0.711394 0.364761)
(-0.0577681 0.824762 0.471587)
(-0.0794188 0.746928 0.420344)
(-0.02248 0.708213 0.350896)
(-0.024055 0.794134 0.423256)
(-0.0285297 0.786622 0.415503)
(-0.114458 0.547934 0.32237)
(-0.0704779 0.538937 0.350794)
(-0.110128 0.576321 0.328674)
(-0.0873858 0.537074 0.275796)
(-0.193115 0.674893 0.476658)
(-0.0988926 0.588611 0.427463)
(-0.22165 0.699983 0.539499)
(-0.209407 0.744982 0.549494)
(-0.248593 0.773456 0.552367)
(-0.091681 0.546067 0.328105)
(-0.150508 0.702645 0.423323)
(-0.111574 0.640072 0.387788)
(-0.142349 0.66381 0.444438)
(-0.0914429 0.64138 0.371109)
(-0.124074 0.734912 0.482749)
(-0.213989 0.713528 0.553816)
(-0.122025 0.6493 0.387748)
(-0.165245 0.639185 0.488821)
(-0.0923906 0.599843 0.432393)
(-0.0681253 0.546948 0.322725)
(0.0956598 0.764982 0.599911)
(0.137414 0.716744 0.553198)
(0.110679 0.789763 0.620418)
(0.0717027 0.844016 0.655343)
(0.119502 0.774257 0.618217)
(0.123268 0.74628 0.583042)
(0.0375774 0.820486 0.595561)
(0.0743073 0.785875 0.579389)
(0.0765489 0.840639 0.614312)
(0.0588791 0.842931 0.608622)
(0.069017 0.839871 0.629919)
(0.0789861 0.820718 0.643445)
(0.116721 0.787341 0.635113)
(0.0593034 0.850953 0.607501)
(0.028886 0.860495 0.601284)
(0.106885 0.815453 0.649232)
(0.0965684 0.826123 0.641442)
(0.125167 0.754202 0.572862)
(0.13684 0.734075 0.573762)
(0.0915554 0.779958 0.577455)
(0.13689 0.764779 0.598395)
(0.142563 0.763467 0.609985)
(-0.272583 0.937328 0.661768)
(-0.244982 0.932972 0.659646)
(-0.269091 0.927098 0.670234)
(-0.273873 0.93067 0.669732)
(-0.222488 0.89511 0.642891)
(-0.22193 0.871876 0.646312)
(-0.286573 0.940987 0.670959)
(-0.29166 0.896641 0.704734)
(-0.303553 0.918406 0.695993)
(-0.300387 0.891507 0.689101)
(-0.320479 0.927658 0.69246)
(-0.236271 0.881375 0.631912)
(-0.272857 0.919021 0.669466)
(-0.325096 0.944281 0.694555)
(-0.272068 0.911582 0.6902)
(-0.232855 0.897861 0.619561)
(-0.249228 0.868262 0.653014)
(-0.273666 0.892335 0.660708)
(-0.216609 0.835605 0.635659)
(-0.233468 0.836872 0.625083)
(-0.177431 0.611787 0.557747)
(-0.155754 0.598337 0.53552)
(-0.103859 0.577514 0.476317)
(-0.104638 0.598446 0.50899)
(-0.198865 0.635834 0.582303)
(-0.240293 0.692256 0.564334)
(-0.172788 0.67874 0.555182)
(-0.215497 0.7159 0.572732)
(0.156234 0.735297 0.431408)
(0.141565 0.79803 0.452793)
(0.0472885 0.791611 0.459497)
(0.0625983 0.723785 0.4291)
(0.158901 0.808188 0.460297)
(0.152205 0.784239 0.447961)
(0.0737094 0.825201 0.479078)
(0.15077 0.734565 0.440601)
(0.0810716 0.759934 0.441626)
(0.0465335 0.846454 0.485713)
(0.0705945 0.801376 0.45925)
(0.0787756 0.724196 0.434989)
(0.108089 0.813356 0.467593)
(0.0618447 0.784418 0.455889)
(0.0707049 0.822445 0.47607)
(-0.070913 0.669574 0.366681)
(-0.0764662 0.716312 0.394741)
(-0.0964983 0.749676 0.433776)
(-0.0669579 0.680606 0.364453)
(-0.0487124 0.661098 0.34584)
(-0.0535326 0.691568 0.373341)
(-0.0480926 0.656835 0.335028)
(-0.0762195 0.754742 0.423383)
(-0.00680066 0.682136 0.335768)
(-0.00312168 0.65148 0.307172)
(-0.0591431 0.717711 0.390054)
(-0.0576914 0.761579 0.424076)
(0.0108666 0.627635 0.301137)
(0.0144339 0.623215 0.288588)
(-0.00764569 0.613037 0.306877)
(0.00080046 0.605223 0.301393)
(-0.0263953 0.624762 0.319059)
(-0.0193726 0.614118 0.298506)
(-0.0476206 0.703016 0.383469)
(-0.0504437 0.652433 0.349984)
(-0.0452632 0.74714 0.397187)
(-0.00340639 0.643625 0.318197)
(-0.0527705 0.737454 0.392744)
(-0.0217615 0.685882 0.345849)
(0.219437 0.697123 0.476594)
(0.218615 0.717341 0.494449)
(0.204847 0.72951 0.475156)
(0.205722 0.725858 0.492263)
(0.186572 0.739062 0.506362)
(0.165451 0.759586 0.493589)
(0.225527 0.713676 0.491441)
(0.218997 0.723343 0.498741)
(0.184847 0.748756 0.5145)
(0.22298 0.696547 0.467589)
(0.19868 0.709699 0.461248)
(0.220255 0.702378 0.465865)
(0.214448 0.69817 0.446483)
(0.226733 0.724523 0.484037)
(0.201498 0.720285 0.460203)
(0.140422 0.75889 0.480278)
(0.136163 0.769765 0.491231)
(0.144574 0.774018 0.502169)
(0.157031 0.767056 0.509301)
(0.185459 0.710919 0.44526)
(0.21854 0.711622 0.484853)
(0.200172 0.734019 0.495749)
(0.182506 0.749299 0.474357)
(0.157299 0.750016 0.475297)
(0.151065 0.759224 0.479332)
(0.178886 0.739549 0.499352)
(-0.0313779 0.841667 0.4881)
(-0.0204182 0.829646 0.488929)
(-0.0505899 0.871701 0.515883)
(-0.0423709 0.830684 0.51935)
(-0.0217375 0.812793 0.50511)
(-0.0128068 0.857479 0.486558)
(-0.0325019 0.90002 0.518802)
(-0.0537677 0.850699 0.565018)
(-0.0518419 0.910542 0.571687)
(-0.0816394 0.889075 0.593576)
(-0.0629709 0.89917 0.593957)
(-0.0634877 0.910791 0.58652)
(-0.0280606 0.854198 0.545434)
(-0.0180893 0.840893 0.524172)
(0.154706 0.825948 0.620937)
(0.147226 0.835078 0.628142)
(0.135529 0.833125 0.585493)
(0.127557 0.84203 0.576871)
(0.140152 0.847307 0.586531)
(0.163056 0.83236 0.604045)
(0.138755 0.837508 0.60791)
(0.135828 0.844301 0.614185)
(0.155353 0.829672 0.628331)
(0.160053 0.825685 0.627297)
(0.139266 0.832329 0.577886)
(0.126768 0.846674 0.574804)
(0.139588 0.835745 0.589192)
(0.109012 0.837844 0.581015)
(0.115145 0.851525 0.579745)
(0.137425 0.850079 0.584845)
(0.151663 0.839841 0.594226)
(0.154851 0.833616 0.608427)
(0.119236 0.856583 0.580308)
(0.126943 0.861194 0.577514)
(0.0104798 0.496364 0.492586)
(0.0383151 0.467817 0.461668)
(0.039865 0.48255 0.462274)
(0.0240507 0.502756 0.479237)
(0.0538536 0.4719 0.425877)
(-0.0753423 0.554427 0.493718)
(-0.0059818 0.542074 0.490893)
(0.0628499 0.462218 0.395011)
(-0.0572428 0.518107 0.399278)
(-0.0160831 0.520869 0.432068)
(0.0151671 0.474199 0.374335)
(-0.167881 0.628849 0.580298)
(-0.178528 0.673425 0.613557)
(-0.192576 0.684278 0.633191)
(-0.194836 0.674089 0.625611)
(-0.166315 0.627513 0.574119)
(-0.155871 0.613719 0.55357)
(-0.178895 0.65745 0.608685)
(-0.196962 0.660733 0.622005)
(-0.232648 0.729373 0.636394)
(-0.179452 0.65055 0.561195)
(-0.152341 0.631099 0.583526)
(-0.0924756 0.515876 0.288246)
(-0.104208 0.529452 0.28082)
(-0.0212825 0.455913 0.269545)
(-0.0655898 0.478748 0.277902)
(-0.0849232 0.530248 0.287621)
(-0.0822905 0.525887 0.271168)
(-0.045878 0.480568 0.270272)
(-0.044123 0.476915 0.264689)
(-0.0150932 0.467666 0.271965)
(-0.00822887 0.472071 0.234672)
(-0.00839437 0.457353 0.217174)
(-0.0552413 0.499481 0.270231)
(-0.0266112 0.434854 0.220135)
(-0.0537613 0.444393 0.224166)
(0.00498914 0.434184 0.215642)
(-0.0272432 0.470092 0.222952)
(-0.0276397 0.449497 0.224913)
(-0.0130723 0.441165 0.216974)
(-0.19261 0.769564 0.563061)
(-0.197478 0.772808 0.56601)
(-0.171914 0.755102 0.573738)
(-0.20412 0.774466 0.590752)
(-0.237249 0.808708 0.655419)
(-0.212387 0.792974 0.637031)
(-0.296686 0.898412 0.675335)
(-0.241963 0.842099 0.648293)
(-0.231834 0.813534 0.616059)
(-0.220455 0.774864 0.627767)
(-0.315826 0.886903 0.706646)
(-0.319819 0.888825 0.70405)
(-0.29967 0.880207 0.691347)
(-0.20907 0.826184 0.574592)
(-0.223829 0.841485 0.570795)
(-0.234969 0.861093 0.613523)
(-0.240863 0.797918 0.628907)
(-0.275596 0.87277 0.637305)
(-0.263579 0.879201 0.650622)
(-0.27935 0.851633 0.61939)
(-0.230515 0.863524 0.615815)
(-0.233431 0.863966 0.635669)
(0.155018 0.679584 0.385197)
(0.186429 0.662101 0.378104)
(0.239717 0.67027 0.417627)
(0.238306 0.648178 0.38323)
(0.194218 0.672975 0.396388)
(0.159075 0.684036 0.398121)
(0.161664 0.681803 0.382206)
(0.219262 0.649839 0.404968)
(0.211679 0.650059 0.368616)
(0.223416 0.674181 0.426504)
(0.22784 0.670301 0.413178)
(0.124442 0.692719 0.399743)
(0.168557 0.670244 0.424467)
(0.148655 0.675824 0.39874)
(0.174835 0.674839 0.434252)
(-0.0106193 0.874121 0.476682)
(-0.0259844 0.894413 0.467339)
(-0.0577721 0.910295 0.507641)
(-0.0485631 0.902668 0.520428)
(0.00874997 0.870645 0.429481)
(0.0159376 0.864705 0.433507)
(0.0372282 0.850981 0.396143)
(0.0115115 0.874306 0.469541)
(0.0126484 0.881265 0.460165)
(-0.0517401 0.903645 0.523838)
(0.0106472 0.88795 0.442051)
(0.0444952 0.85718 0.398397)
(0.186783 0.786959 0.49979)
(0.181401 0.745251 0.484828)
(0.176359 0.774415 0.510287)
(0.180257 0.799313 0.518022)
(0.161293 0.806258 0.562175)
(0.157589 0.785911 0.53524)
(0.168558 0.839993 0.53257)
(0.168725 0.842794 0.547448)
(0.181934 0.802046 0.512133)
(0.162999 0.771038 0.526837)
(0.161895 0.740608 0.497838)
(0.17144 0.780765 0.504791)
(0.174597 0.762488 0.498389)
(0.163709 0.808998 0.545967)
(0.14996 0.860564 0.555844)
(0.172735 0.810413 0.517847)
(0.166364 0.794399 0.543238)
(0.150955 0.842062 0.574622)
(0.15663 0.826113 0.577045)
(0.157128 0.839079 0.574802)
(0.16109 0.838761 0.560223)
(0.145893 0.816493 0.634995)
(0.159712 0.795346 0.639998)
(0.176556 0.77702 0.637847)
(0.15299 0.812508 0.640145)
(0.163661 0.797142 0.63481)
(0.125843 0.819212 0.60846)
(0.148379 0.819696 0.632795)
(0.150928 0.81065 0.625038)
(0.190797 0.777479 0.633541)
(0.147676 0.817257 0.617929)
(0.154274 0.81531 0.629594)
(0.180271 0.790352 0.636497)
(0.178399 0.792392 0.636939)
(0.192233 0.780533 0.63594)
(0.181524 0.781199 0.637651)
(0.163815 0.79287 0.615991)
(0.184702 0.789481 0.632479)
(0.168676 0.803261 0.620429)
(0.088157 0.807389 0.511423)
(0.0700523 0.816933 0.514672)
(0.0604372 0.717859 0.461741)
(0.0817507 0.75044 0.481368)
(0.0871159 0.77465 0.486654)
(0.0658389 0.670667 0.422593)
(0.0815938 0.714252 0.448903)
(0.296612 0.689083 0.453288)
(0.30997 0.636128 0.426469)
(0.293209 0.72605 0.454505)
(0.296161 0.634671 0.440407)
(0.317768 0.57336 0.408335)
(0.261172 0.753269 0.470898)
(0.299621 0.706815 0.439014)
(0.30268 0.646456 0.419994)
(0.313018 0.594119 0.404806)
(0.329191 0.587798 0.425868)
(0.316964 0.601626 0.414319)
(0.265836 0.695339 0.446725)
(0.267061 0.773728 0.466315)
(0.309101 0.647195 0.420072)
(0.288229 0.669031 0.443339)
(0.284055 0.669986 0.449979)
(0.259939 0.746457 0.465188)
(0.241377 0.721977 0.46882)
(0.305483 0.702636 0.441491)
(0.0473656 0.710567 0.528464)
(0.0687537 0.726564 0.56609)
(0.149013 0.679356 0.50505)
(0.161888 0.694883 0.575866)
(0.182118 0.687533 0.543641)
(0.0649929 0.715868 0.567198)
(0.0977567 0.714661 0.557974)
(0.0825918 0.687053 0.524785)
(0.119426 0.646488 0.456353)
(0.199664 0.664464 0.509856)
(0.131284 0.665741 0.498224)
(0.0998613 0.663231 0.461642)
(0.13037 0.697707 0.576708)
(0.170527 0.672461 0.532491)
(0.16195 0.699208 0.579239)
(0.212205 0.68709 0.550568)
(0.183329 0.641277 0.468288)
(0.119218 0.644699 0.457967)
(0.200843 0.653563 0.519198)
(0.166204 0.648559 0.476767)
(0.26172 0.758208 0.42665)
(0.252217 0.736755 0.416397)
(0.248124 0.772168 0.428699)
(0.257449 0.771094 0.434295)
(0.23894 0.770122 0.443075)
(0.179411 0.858138 0.494176)
(0.176743 0.851602 0.489533)
(0.197923 0.833694 0.481633)
(0.211215 0.814667 0.455829)
(0.224386 0.776632 0.439635)
(0.241352 0.742096 0.424571)
(0.189489 0.837307 0.476008)
(0.228133 0.785448 0.437981)
(0.210054 0.804015 0.455585)
(0.235725 0.788243 0.443569)
(0.245078 0.697603 0.492181)
(0.241866 0.703233 0.50209)
(0.271951 0.630308 0.462908)
(0.262339 0.679516 0.488844)
(0.266506 0.652863 0.469758)
(0.233552 0.679981 0.466623)
(0.266019 0.615631 0.447323)
(0.258855 0.549073 0.397083)
(0.264851 0.556109 0.382992)
(0.25455 0.610067 0.406143)
(0.253104 0.636838 0.416428)
(0.252752 0.642103 0.44851)
(0.248644 0.634552 0.423456)
(-0.108584 0.766028 0.469087)
(-0.0997786 0.771786 0.482089)
(-0.103782 0.628603 0.40125)
(-0.0429021 0.4443 0.317183)
(-0.041918 0.433649 0.28622)
(-0.0494399 0.478127 0.321276)
(-0.0478756 0.497905 0.298302)
(-0.05471 0.492214 0.336427)
(-0.0596831 0.490108 0.314874)
(-0.0844297 0.594674 0.369424)
(-0.0909672 0.550033 0.348885)
(-0.101568 0.659533 0.450847)
(-0.100608 0.583943 0.397601)
(-0.0527939 0.486218 0.339136)
(-0.0734734 0.585299 0.366392)
(-0.0791012 0.614887 0.370995)
(-0.0949982 0.599522 0.405236)
(-0.101998 0.732023 0.46823)
(0.202643 0.718149 0.603865)
(0.217527 0.7109 0.596883)
(0.267571 0.68151 0.579894)
(0.245739 0.692529 0.586785)
(0.180641 0.731135 0.608198)
(0.201507 0.735033 0.615128)
(0.250147 0.683005 0.594788)
(0.254904 0.65341 0.564675)
(0.237611 0.678715 0.597397)
(0.209724 0.720365 0.616747)
(0.245398 0.631557 0.557358)
(0.222891 0.669403 0.589986)
(0.226793 0.659211 0.58641)
(0.0147141 0.804929 0.638487)
(-0.0391895 0.852925 0.650165)
(-0.0124568 0.841666 0.654023)
(-0.033827 0.852931 0.646279)
(-0.0438217 0.906567 0.665655)
(0.0190359 0.815213 0.657303)
(0.0115707 0.822963 0.65028)
(-0.0542683 0.881797 0.645536)
(-0.0411586 0.878485 0.649442)
(0.0422085 0.807502 0.641896)
(-0.0328313 0.883427 0.625353)
(-0.0217887 0.894334 0.632037)
(0.042083 0.7936 0.628668)
(0.0445886 0.791481 0.632453)
(0.0336776 0.795072 0.608651)
(0.0282831 0.803492 0.605213)