/*--------------------------------*- C++ -*----------------------------------*\
| =========                 |                                                 |
| \\      /  F ield         | OpenFOAM: The Open Source CFD Toolbox           |
|  \\    /   O peration     | Version:  v1612+                                |
|   \\  /    A nd           | Web:      www.OpenFOAM.com                      |
|    \\/     M anipulation  |                                                 |
\*---------------------------------------------------------------------------*/
FoamFile
{
    version     2.0;
    format      ascii;
    class       volScalarField;
    location    "100";
    object      p;
}
// * * * * * * * * * * * * * * * * * * * * * * * * * * * * * * * * * * * * * //

dimensions      [0 2 -2 0 0 0 0];

internalField   nonuniform List<scalar> 
16780
(
0.234481
0.256088
0.241595
0.255254
0.259319
0.247593
0.231069
0.251376
0.259655
0.252307
0.250895
0.267015
0.256975
0.244131
0.241026
0.259194
0.253925
0.25591
0.256125
0.253504
0.257544
0.257146
0.257537
0.254448
0.256924
0.255213
0.25747
0.25634
0.254897
0.252393
0.25576
0.257786
0.253288
0.253074
0.256203
0.255988
0.255172
0.254991
0.25554
0.255306
0.255756
0.247304
0.248028
0.244378
0.245152
0.250354
0.242039
0.24538
0.249811
0.249689
0.252404
0.247846
0.243249
0.242289
0.243847
0.247671
0.248811
0.260969
0.252498
0.271753
0.26961
0.261701
0.25909
0.265426
0.259929
0.268501
0.266146
0.266316
0.265142
0.368712
0.365163
0.322036
0.350574
0.357687
0.340721
0.358565
0.341168
0.344463
0.355941
0.332265
0.3268
0.33894
0.33774
0.319034
0.325343
0.331685
0.327818
0.335116
0.323431
0.326246
0.323629
0.326775
0.325013
0.244071
0.23771
0.244984
0.24501
0.248641
0.2495
0.260484
0.319438
0.319713
0.308704
0.318229
0.317601
0.315266
0.316787
0.323302
0.305748
0.316351
0.311166
0.3134
0.307077
0.294169
0.3061
0.29953
0.302427
0.302252
0.310959
0.304589
0.316781
0.227582
0.230198
0.222972
0.227799
0.236609
0.229872
0.234773
0.221847
0.237859
0.232463
0.227555
0.23461
0.230563
0.242966
0.232514
0.229941
0.237003
0.240252
0.231634
0.234268
0.23528
0.229802
0.227615
0.224338
0.238716
0.231605
0.237405
0.240675
0.240416
0.241847
0.251536
0.242778
0.235892
0.237405
0.232979
0.239513
0.240638
0.233884
0.240919
0.243969
0.242788
0.232536
0.243016
0.279393
0.279893
0.291087
0.311349
0.295712
0.298679
0.301365
0.303347
0.320643
0.3036
0.302771
0.317299
0.318885
0.257774
0.270246
0.265348
0.266974
0.259401
0.27296
0.278877
0.25898
0.26991
0.25585
0.25724
0.268939
0.267492
0.259842
0.258634
0.271469
0.263843
0.266978
0.307822
0.290127
0.275941
0.271401
0.283758
0.28444
0.297549
0.287715
0.312148
0.284309
0.293795
0.28515
0.294968
0.28241
0.26418
0.267827
0.267726
0.265049
0.262445
0.26598
0.260482
0.261665
0.265843
0.256774
0.273137
0.264954
0.261965
0.270634
0.266346
0.267422
0.310178
0.30753
0.308687
0.308066
0.315388
0.312963
0.317662
0.320698
0.327927
0.293019
0.288921
0.287132
0.306933
0.297892
0.303562
0.297528
0.292882
0.308815
0.305815
0.234123
0.24461
0.244836
0.24716
0.230592
0.233777
0.229266
0.225704
0.238466
0.228517
0.249969
0.244319
0.242356
0.228272
0.25372
0.238057
0.253259
0.240462
0.24368
0.240437
0.249141
0.243254
0.247124
0.250356
0.242894
0.244186
0.244891
0.249405
0.252904
0.24957
0.255795
0.253791
0.238797
0.251408
0.244592
0.238351
0.240369
0.228936
0.236475
0.231103
0.24088
0.233273
0.232731
0.248218
0.241785
0.241564
0.236947
0.240452
0.247818
0.23957
0.24677
0.23981
0.244095
0.240034
0.24521
0.238928
0.300568
0.271098
0.27837
0.272632
0.293669
0.290298
0.269414
0.274151
0.291302
0.231957
0.221281
0.218457
0.227325
0.232825
0.223405
0.214808
0.220682
0.22373
0.227444
0.238366
0.226653
0.224504
0.22429
0.227716
0.227015
0.225867
0.227106
0.260545
0.249055
0.25378
0.243078
0.242275
0.25714
0.25652
0.263585
0.266948
0.262057
0.260209
0.256082
0.234019
0.249128
0.261997
0.265662
0.26263
0.262309
0.260067
0.260998
0.259337
0.2604
0.263369
0.274563
0.277523
0.24865
0.265722
0.264443
0.274416
0.275152
0.27681
0.271127
0.287603
0.27529
0.26337
0.267154
0.26341
0.274161
0.268612
0.275675
0.275762
0.261332
0.268327
0.261483
0.271389
0.276847
0.280669
0.264849
0.277282
0.259719
0.264346
0.253271
0.24626
0.247013
0.25207
0.246856
0.245925
0.251926
0.257939
0.25044
0.243197
0.24721
0.249031
0.242113
0.246126
0.250338
0.254484
0.252835
0.249237
0.247345
0.236622
0.246612
0.243301
0.247717
0.224028
0.22513
0.232792
0.231223
0.229374
0.243035
0.236357
0.240687
0.225681
0.234238
0.231757
0.235198
0.254581
0.252338
0.251588
0.253051
0.246159
0.253787
0.247345
0.254319
0.251911
0.251891
0.252443
0.254558
0.256012
0.255142
0.252908
0.248769
0.333687
0.334679
0.334724
0.329567
0.317178
0.323031
0.330253
0.317298
0.316866
0.312391
0.311517
0.308178
0.313419
0.304273
0.319386
0.278157
0.276422
0.258978
0.263502
0.272667
0.280614
0.270016
0.269999
0.262058
0.258024
0.262683
0.271416
0.268497
0.257403
0.282832
0.25032
0.249387
0.24763
0.24993
0.246944
0.247133
0.24915
0.249987
0.246958
0.254388
0.250033
0.246914
0.246333
0.245918
0.245456
0.245906
0.246937
0.247515
0.244964
0.244817
0.247979
0.391237
0.396406
0.392058
0.379012
0.392275
0.383689
0.383767
0.383588
0.387163
0.368654
0.364718
0.36225
0.36996
0.308588
0.310895
0.309848
0.298539
0.300249
0.31786
0.300439
0.297702
0.283931
0.302486
0.2893
0.318388
0.315919
0.299176
0.295056
0.301412
0.306181
0.308407
0.29805
0.320166
0.315694
0.320901
0.306351
0.297211
0.232238
0.235719
0.236494
0.240518
0.229315
0.232293
0.237091
0.242219
0.234083
0.236412
0.224416
0.225401
0.240496
0.22696
0.233621
0.233333
0.243064
0.239989
0.239738
0.235089
0.239426
0.240508
0.405489
0.40681
0.414008
0.420039
0.404324
0.401529
0.42273
0.41659
0.40293
0.416055
0.41906
0.420856
0.411232
0.416869
0.427565
0.422601
0.263588
0.252274
0.270087
0.25674
0.254286
0.254326
0.2499
0.253121
0.242637
0.244128
0.23524
0.235973
0.243073
0.251583
0.246363
0.245679
0.248908
0.230634
0.234434
0.238274
0.244994
0.238014
0.218297
0.219326
0.207253
0.221563
0.24635
0.244665
0.238665
0.243398
0.243256
0.242453
0.244413
0.239539
0.237719
0.238333
0.240061
0.242972
0.240062
0.240975
0.243752
0.305155
0.297755
0.293867
0.305911
0.297868
0.289584
0.31483
0.30396
0.317928
0.319693
0.307572
0.283159
0.269791
0.263804
0.257402
0.249406
0.261971
0.256167
0.252286
0.251127
0.251682
0.250378
0.250956
0.253625
0.253825
0.262055
0.263365
0.264381
0.256498
0.263832
0.263058
0.267699
0.264771
0.266736
0.264615
0.260485
0.261367
0.258727
0.267634
0.25934
0.266147
0.265001
0.261551
0.22328
0.233372
0.226845
0.221172
0.23122
0.228429
0.240793
0.236368
0.237886
0.227393
0.227489
0.229196
0.238729
0.231243
0.232379
0.241121
0.237244
0.232503
0.232415
0.227663
0.223053
0.223874
0.221224
0.238854
0.226359
0.228417
0.235272
0.234061
0.231643
0.234516
0.222887
0.227473
0.23063
0.225963
0.219823
0.219373
0.230575
0.214498
0.216272
0.225592
0.210247
0.223812
0.228742
0.232168
0.237267
0.242279
0.242197
0.235434
0.250815
0.2373
0.244692
0.254292
0.243933
0.242537
0.239795
0.24215
0.222569
0.22495
0.215853
0.21442
0.220582
0.216442
0.225983
0.220321
0.235789
0.234242
0.229066
0.231213
0.235835
0.21995
0.225269
0.216452
0.217973
0.230247
0.234773
0.224288
0.212503
0.255888
0.256332
0.255655
0.246552
0.255658
0.255041
0.254493
0.260482
0.258513
0.252632
0.245317
0.265184
0.260849
0.245734
0.25732
0.259687
0.248717
0.259441
0.257685
0.263355
0.257892
0.243657
0.227658
0.24463
0.238718
0.241708
0.238035
0.238356
0.246172
0.24876
0.243961
0.247413
0.227283
0.233814
0.243993
0.248814
0.275816
0.264405
0.284174
0.285622
0.26863
0.274171
0.278308
0.25629
0.255487
0.271347
0.278587
0.273998
0.277097
0.219162
0.225962
0.230407
0.227024
0.230981
0.239238
0.217287
0.226307
0.231331
0.229671
0.228332
0.230493
0.265587
0.264295
0.2571
0.259688
0.25457
0.27669
0.247487
0.255558
0.260107
0.256844
0.267723
0.254881
0.247296
0.260888
0.256586
0.260468
0.254833
0.245606
0.25607
0.255497
0.258675
0.258338
0.26316
0.263673
0.26209
0.272501
0.27488
0.268204
0.265301
0.271896
0.272568
0.261387
0.280506
0.27958
0.2853
0.278126
0.291326
0.288377
0.285566
0.247374
0.23683
0.249796
0.2491
0.250559
0.248061
0.263662
0.235262
0.262462
0.26668
0.257236
0.259061
0.265225
0.260471
0.253239
0.2714
0.275759
0.275584
0.270648
0.265224
0.277247
0.272876
0.271237
0.271
0.277291
0.274919
0.274194
0.244989
0.253974
0.250277
0.247857
0.253455
0.251821
0.252447
0.252489
0.244358
0.240667
0.242075
0.237627
0.251908
0.243057
0.26948
0.259364
0.265552
0.246055
0.256027
0.264961
0.264293
0.244908
0.257509
0.262137
0.26097
0.259169
0.266259
0.269651
0.255585
0.261068
0.257784
0.263141
0.263191
0.260967
0.298686
0.300208
0.298161
0.298671
0.313923
0.307664
0.295137
0.308279
0.315409
0.296931
0.302915
0.30734
0.302343
0.306591
0.304636
0.310221
0.309794
0.303032
0.315995
0.250946
0.259206
0.253854
0.259503
0.260318
0.33828
0.362546
0.364051
0.389961
0.390317
0.390727
0.387848
0.41558
0.397845
0.408086
0.417667
0.418063
0.397938
0.396815
0.405695
0.35839
0.362057
0.400767
0.393723
0.393668
0.242507
0.248431
0.24998
0.246369
0.248932
0.245908
0.246686
0.245743
0.246223
0.24176
0.244482
0.254583
0.2451
0.241511
0.266612
0.270037
0.268135
0.26329
0.261867
0.261595
0.2595
0.264435
0.26325
0.262684
0.261688
0.389826
0.393827
0.399479
0.359937
0.370534
0.364663
0.41417
0.42022
0.415387
0.242707
0.242303
0.253539
0.267224
0.374816
0.387637
0.386065
0.254621
0.254085
0.365769
0.369856
0.357843
0.247016
0.250449
0.250277
0.300466
0.303379
0.297483
0.304124
0.357799
0.361268
0.367497
0.367528
0.348926
0.344834
0.291785
0.290081
0.260003
0.265574
0.267029
0.266472
0.344652
0.339824
0.344966
0.255155
0.255401
0.33864
0.336465
0.324499
0.275185
0.270511
0.263168
0.323298
0.315675
0.3144
0.305926
0.307083
0.332794
0.332098
0.327441
0.330478
0.314159
0.258241
0.261019
0.257681
0.257214
0.2508
0.258027
0.246313
0.254799
0.256031
0.255985
0.257298
0.248727
0.244817
0.297184
0.299064
0.327485
0.321682
0.322005
0.320103
0.317314
0.269167
0.271341
0.255256
0.25381
0.25385
0.246033
0.243125
0.244617
0.307726
0.299359
0.295427
0.292854
0.299541
0.296375
0.299328
0.300757
0.298767
0.30551
0.307421
0.259198
0.260903
0.236704
0.236417
0.243044
0.253561
0.253561
0.257565
0.256832
0.255307
0.239049
0.239195
0.254716
0.257169
0.250643
0.253609
0.277903
0.288165
0.28617
0.252808
0.256596
0.248066
0.246005
0.247434
0.243788
0.263101
0.265011
0.262107
0.272218
0.271894
0.272299
0.267914
0.277932
0.265532
0.263864
0.251283
0.251784
0.253777
0.241872
0.244654
0.258895
0.253354
0.262383
0.256813
0.252656
0.253658
0.245165
0.246332
0.250929
0.256552
0.254588
0.266763
0.264164
0.269487
0.244802
0.251644
0.24757
0.248902
0.239496
0.250579
0.251139
0.249262
0.243505
0.245129
0.248161
0.241199
0.242807
0.242332
0.233402
0.244201
0.241372
0.264468
0.267244
0.245954
0.241521
0.244022
0.239342
0.243308
0.237246
0.234268
0.250173
0.256465
0.258103
0.257125
0.246819
0.242697
0.242369
0.24116
0.246545
0.241961
0.239933
0.239101
0.237835
0.240141
0.244166
0.240895
0.24885
0.234336
0.241764
0.241311
0.234673
0.245005
0.240064
0.239642
0.243321
0.267715
0.267538
0.264604
0.267278
0.265919
0.265496
0.264401
0.267328
0.272106
0.271662
0.267987
0.271076
0.26845
0.267459
0.267555
0.267251
0.262255
0.263868
0.262611
0.264242
0.260754
0.242348
0.24147
0.255717
0.24947
0.247864
0.242693
0.240171
0.242777
0.239933
0.246863
0.246818
0.239996
0.2478
0.241519
0.243956
0.237206
0.24074
0.240526
0.242534
0.242885
0.244451
0.244571
0.244162
0.238934
0.23922
0.248264
0.250431
0.239781
0.247035
0.252482
0.251217
0.257812
0.251935
0.239716
0.25348
0.246369
0.250857
0.24838
0.240387
0.243722
0.245239
0.237884
0.242994
0.243008
0.243081
0.237001
0.251225
0.244658
0.24455
0.238851
0.252276
0.250586
0.237446
0.235961
0.24585
0.254123
0.246302
0.246943
0.247847
0.247606
0.255263
0.244158
0.244345
0.253011
0.246822
0.247473
0.254888
0.25244
0.248824
0.258199
0.25519
0.250378
0.252746
0.259393
0.249079
0.255145
0.251457
0.248921
0.255802
0.248047
0.242328
0.238446
0.250247
0.24579
0.241854
0.245315
0.260036
0.253342
0.24789
0.247347
0.252541
0.254764
0.250956
0.255209
0.250736
0.253732
0.254438
0.245307
0.240639
0.24742
0.237506
0.24741
0.243365
0.242738
0.240491
0.262723
0.25966
0.257128
0.256839
0.265366
0.265085
0.267968
0.265623
0.262256
0.267204
0.256035
0.260391
0.26535
0.268887
0.268767
0.265542
0.263674
0.261678
0.270604
0.267234
0.265111
0.252747
0.25301
0.256062
0.251019
0.261576
0.257819
0.256387
0.254783
0.249877
0.254897
0.25728
0.251354
0.253994
0.255728
0.255565
0.251115
0.249734
0.23894
0.239992
0.257839
0.252852
0.258518
0.244324
0.243965
0.241814
0.249353
0.252174
0.241989
0.248651
0.251141
0.260346
0.253539
0.257471
0.253638
0.257612
0.25592
0.252036
0.251195
0.246941
0.251829
0.252487
0.245156
0.252675
0.261089
0.259959
0.267819
0.259974
0.247882
0.240363
0.256145
0.245704
0.243985
0.242239
0.239848
0.25553
0.251793
0.249806
0.247349
0.245416
0.24332
0.249267
0.249074
0.248399
0.255736
0.250201
0.250989
0.253116
0.251756
0.25856
0.257478
0.256084
0.252926
0.25804
0.261105
0.26188
0.257369
0.257518
0.263608
0.258174
0.257086
0.258536
0.252235
0.262882
0.256612
0.260462
0.26235
0.2549
0.261639
0.261293
0.256852
0.256623
0.257317
0.258977
0.260007
0.260834
0.24028
0.242772
0.241027
0.239538
0.255482
0.253179
0.244514
0.245147
0.236096
0.242643
0.238452
0.233535
0.251601
0.244686
0.240667
0.235111
0.247129
0.240972
0.233157
0.237442
0.246374
0.237703
0.237237
0.241525
0.241063
0.242489
0.235261
0.243153
0.245194
0.242935
0.238575
0.237474
0.251095
0.234011
0.240749
0.248419
0.242376
0.261109
0.259577
0.257955
0.25712
0.253677
0.254191
0.254151
0.237907
0.260378
0.248645
0.244178
0.24475
0.248468
0.246237
0.25744
0.247486
0.250664
0.253341
0.253647
0.245033
0.245923
0.263994
0.260213
0.26587
0.252063
0.260079
0.248787
0.263245
0.258801
0.288402
0.282199
0.286265
0.27408
0.2688
0.262334
0.271733
0.271144
0.270184
0.285888
0.271461
0.269464
0.268434
0.274866
0.266574
0.268485
0.271132
0.270746
0.258517
0.260613
0.263172
0.263348
0.286198
0.275844
0.273959
0.27484
0.261267
0.253036
0.262612
0.259261
0.25508
0.281166
0.27961
0.281393
0.268854
0.27373
0.266968
0.269267
0.275691
0.269284
0.236219
0.242551
0.244977
0.242753
0.240428
0.243336
0.23453
0.246789
0.245662
0.246104
0.254389
0.244203
0.242223
0.237304
0.240106
0.259372
0.25826
0.253974
0.257714
0.254785
0.249941
0.25548
0.258658
0.252993
0.255902
0.254221
0.254343
0.25563
0.252242
0.240318
0.249475
0.237373
0.244205
0.243715
0.249044
0.247257
0.278629
0.292222
0.288298
0.27893
0.291776
0.294071
0.293535
0.292298
0.287769
0.281537
0.283235
0.289148
0.289454
0.270622
0.273214
0.274561
0.267455
0.261947
0.271361
0.271594
0.269338
0.269502
0.271249
0.279038
0.274933
0.279779
0.284239
0.292279
0.278502
0.275438
0.267826
0.279147
0.276629
0.284827
0.281787
0.245824
0.245245
0.234544
0.239327
0.244496
0.250611
0.243816
0.254263
0.253228
0.244121
0.249536
0.255036
0.255443
0.243926
0.244979
0.256135
0.25456
0.251067
0.257328
0.253563
0.235783
0.222544
0.245974
0.23435
0.24744
0.239469
0.247338
0.250683
0.239835
0.238572
0.243841
0.240624
0.237556
0.234129
0.227218
0.230286
0.249234
0.250124
0.250541
0.242623
0.24545
0.241592
0.24795
0.236168
0.256911
0.253339
0.2546
0.257342
0.255327
0.25682
0.258743
0.256854
0.256165
0.259765
0.257819
0.257383
0.255092
0.255481
0.258328
0.254573
0.253758
0.255682
0.252775
0.255972
0.254573
0.255302
0.257782
0.255928
0.254229
0.256629
0.253501
0.252781
0.253774
0.248701
0.258653
0.249917
0.252748
0.240843
0.24597
0.247244
0.245905
0.234448
0.237806
0.244884
0.23969
0.237095
0.235275
0.24073
0.24242
0.249002
0.241388
0.243988
0.239891
0.245679
0.234576
0.238108
0.236951
0.252436
0.244135
0.234882
0.234567
0.238518
0.24485
0.242312
0.245226
0.240754
0.229732
0.235697
0.251166
0.246163
0.242878
0.286302
0.277249
0.275958
0.273706
0.281788
0.286875
0.28102
0.262444
0.279145
0.280919
0.294625
0.280646
0.244546
0.252161
0.245526
0.257612
0.251472
0.240987
0.235367
0.247371
0.242192
0.241799
0.250311
0.253336
0.308784
0.305496
0.305977
0.294732
0.305476
0.309927
0.299231
0.303638
0.320767
0.304598
0.325591
0.325857
0.305419
0.308624
0.312399
0.296574
0.306346
0.301351
0.320873
0.276675
0.277073
0.277754
0.306274
0.297736
0.289116
0.294414
0.281618
0.304514
0.330084
0.322294
0.30324
0.3032
0.252085
0.25187
0.253734
0.236647
0.238889
0.24414
0.23538
0.240708
0.243325
0.235373
0.2468
0.248339
0.251896
0.255799
0.250216
0.247819
0.236449
0.240685
0.235842
0.246879
0.238944
0.242874
0.243466
0.238656
0.241698
0.232884
0.242765
0.25597
0.252908
0.25224
0.259313
0.257875
0.254936
0.255066
0.256656
0.30176
0.29875
0.311545
0.2891
0.276293
0.281068
0.2731
0.2722
0.286791
0.288339
0.274352
0.268939
0.239396
0.246934
0.25775
0.244564
0.233764
0.249194
0.247685
0.262565
0.261881
0.272329
0.25474
0.24831
0.248767
0.247679
0.264508
0.248118
0.246927
0.263957
0.267505
0.26844
0.269937
0.332467
0.334694
0.332419
0.318415
0.291632
0.282939
0.305169
0.308355
0.303823
0.299129
0.332985
0.324257
0.310845
0.317758
0.336184
0.328028
0.317887
0.282436
0.298961
0.297221
0.289073
0.297558
0.299741
0.289427
0.303793
0.302794
0.328418
0.321382
0.30953
0.327529
0.326262
0.322701
0.27264
0.258839
0.274337
0.27667
0.309
0.299278
0.288391
0.28294
0.26454
0.274287
0.261293
0.272153
0.259922
0.266571
0.259644
0.256717
0.255418
0.25738
0.257506
0.256231
0.255597
0.254549
0.257223
0.254476
0.256857
0.256996
0.255173
0.256809
0.252437
0.257866
0.255662
0.253616
0.257701
0.247808
0.255048
0.253918
0.254992
0.259273
0.255021
0.255514
0.255614
0.25574
0.254488
0.254886
0.278742
0.272581
0.25609
0.269923
0.25978
0.253248
0.258941
0.248767
0.245797
0.241762
0.252427
0.242607
0.258215
0.252083
0.245003
0.258451
0.253382
0.24242
0.261928
0.256318
0.254285
0.248417
0.246165
0.263861
0.264268
0.259119
0.261774
0.256006
0.259996
0.258038
0.258886
0.25562
0.258506
0.254196
0.258263
0.2579
0.25947
0.260262
0.25776
0.260155
0.258498
0.314688
0.326945
0.325767
0.330558
0.316363
0.318505
0.333058
0.314789
0.320637
0.32179
0.320203
0.316269
0.321432
0.325287
0.321573
0.296488
0.297535
0.320188
0.305966
0.306008
0.298281
0.313666
0.318024
0.317323
0.328129
0.316571
0.294915
0.299103
0.320652
0.322845
0.325895
0.313343
0.335633
0.342948
0.330658
0.327333
0.29441
0.298473
0.300757
0.327345
0.331474
0.322677
0.31871
0.308371
0.310622
0.309338
0.317241
0.318012
0.319441
0.31074
0.302998
0.307462
0.299301
0.292475
0.289251
0.291983
0.293949
0.294942
0.287561
0.279333
0.345384
0.345938
0.36001
0.33767
0.333826
0.338118
0.322621
0.303131
0.323617
0.325536
0.313525
0.315589
0.338718
0.34239
0.261229
0.259843
0.266484
0.266746
0.268165
0.255454
0.261151
0.269431
0.255307
0.257701
0.270813
0.253626
0.253526
0.252906
0.260523
0.25303
0.264231
0.257114
0.338759
0.340544
0.327149
0.316776
0.329437
0.31601
0.313548
0.330749
0.341978
0.317723
0.322165
0.345457
0.319165
0.347264
0.32846
0.348474
0.327603
0.344989
0.333274
0.252508
0.254364
0.251064
0.247317
0.25315
0.25373
0.251264
0.253993
0.25274
0.369604
0.358518
0.360091
0.356774
0.347095
0.337998
0.32479
0.328615
0.341518
0.358117
0.359891
0.348408
0.356785
0.340753
0.34328
0.376619
0.365547
0.34708
0.335702
0.261477
0.258994
0.260726
0.312735
0.313795
0.306443
0.290752
0.279448
0.262414
0.262538
0.254111
0.246683
0.290933
0.268801
0.281028
0.294302
0.331186
0.339784
0.339826
0.323723
0.299084
0.310353
0.326381
0.309036
0.282438
0.280038
0.282648
0.256925
0.26516
0.370029
0.366875
0.365488
0.337929
0.331095
0.335871
0.345895
0.329768
0.338341
0.317864
0.321949
0.340326
0.33525
0.370018
0.379864
0.384591
0.377366
0.376933
0.368044
0.368785
0.361305
0.338577
0.343248
0.35754
0.359803
0.358354
0.361722
0.352217
0.35179
0.313527
0.310726
0.304409
0.297677
0.303099
0.285572
0.276745
0.293287
0.303549
0.309313
0.323184
0.326128
0.326202
0.309301
0.293778
0.281446
0.281224
0.278225
0.28964
0.292799
0.244224
0.245241
0.246276
0.248503
0.247073
0.248169
0.250293
0.25001
0.251081
0.251928
0.250396
0.248836
0.250825
0.419154
0.420184
0.412483
0.371454
0.369508
0.373196
0.36718
0.378847
0.387817
0.398156
0.409156
0.399598
0.397569
0.4002
0.412574
0.393363
0.399775
0.380286
0.374991
0.379112
0.353504
0.372129
0.338301
0.388292
0.389181
0.378102
0.352242
0.249267
0.267413
0.258541
0.266312
0.263928
0.249702
0.260436
0.256508
0.250421
0.249586
0.249564
0.256112
0.253268
0.254291
0.253861
0.257118
0.255706
0.256195
0.257756
0.399183
0.398806
0.363513
0.371726
0.380666
0.354054
0.353202
0.255512
0.284493
0.297317
0.291878
0.284412
0.273832
0.258556
0.251909
0.238275
0.243671
0.25417
0.259732
0.249118
0.251703
0.240995
0.239474
0.241312
0.435629
0.433139
0.395708
0.378025
0.40173
0.40151
0.402879
0.442376
0.421719
0.433823
0.435916
0.425492
0.437529
0.431796
0.399652
0.399652
0.406924
0.389181
0.396522
0.39575
0.35269
0.251747
0.243394
0.245328
0.246829
0.241112
0.248492
0.246504
0.247031
0.24702
0.455752
0.446824
0.439193
0.444315
0.467073
0.450233
0.447528
0.459156
0.468294
0.463686
0.467649
0.445813
0.36482
0.375886
0.377325
0.38371
0.363898
0.34516
0.370339
0.376911
0.355745
0.370797
0.366925
0.421772
0.405233
0.414058
0.400771
0.391598
0.427909
0.425281
0.420994
0.416386
0.360035
0.395624
0.39078
0.365842
0.362179
0.37992
0.372197
0.396916
0.388705
0.405394
0.382816
0.383692
0.391214
0.389517
0.402006
0.39921
0.396935
0.396115
0.252984
0.251371
0.254584
0.251876
0.253517
0.254933
0.257731
0.2704
0.263179
0.263894
0.261875
0.332784
0.316482
0.331337
0.323879
0.358741
0.338759
0.359092
0.333411
0.338964
0.336536
0.24366
0.25224
0.253791
0.247296
0.246723
0.241938
0.257127
0.247235
0.247721
0.245513
0.245948
0.24694
0.245665
0.250624
0.241832
0.238948
0.250132
0.240995
0.249173
0.259059
0.259307
0.245729
0.24148
0.25018
0.344599
0.341778
0.324174
0.327462
0.328136
0.34758
0.344646
0.334655
0.335471
0.33971
0.346029
0.342299
0.317671
0.32183
0.34308
0.349277
0.321858
0.327352
0.335299
0.315399
0.330804
0.318163
0.315004
0.319382
0.332913
0.326552
0.326436
0.335108
0.329212
0.319799
0.311203
0.318468
0.315035
0.320695
0.296908
0.293626
0.30497
0.299322
0.286515
0.299858
0.300224
0.26152
0.259202
0.255112
0.252851
0.273569
0.257387
0.273338
0.281786
0.273209
0.256148
0.254997
0.272645
0.284774
0.260554
0.260282
0.257011
0.263356
0.258634
0.26379
0.33535
0.322551
0.342505
0.336775
0.341217
0.326991
0.328445
0.332158
0.319062
0.337002
0.33344
0.339887
0.349955
0.32996
0.331486
0.335217
0.338483
0.348013
0.340939
0.254299
0.252626
0.245656
0.253372
0.25293
0.251393
0.253111
0.253049
0.251511
0.24794
0.250987
0.249402
0.254779
0.251921
0.252887
0.252275
0.253543
0.251619
0.253035
0.252737
0.251888
0.248761
0.248952
0.252606
0.248569
0.252574
0.249026
0.287202
0.269377
0.273249
0.281953
0.280765
0.267943
0.268739
0.265137
0.258007
0.281097
0.265702
0.268927
0.269683
0.270679
0.268921
0.267429
0.2681
0.3425
0.348879
0.345543
0.343422
0.342096
0.333466
0.343488
0.343905
0.334716
0.326171
0.322028
0.32637
0.312271
0.302587
0.317034
0.317518
0.244231
0.251478
0.243167
0.243666
0.240568
0.241366
0.245605
0.250384
0.233848
0.239356
0.233662
0.251638
0.248507
0.24486
0.23785
0.261341
0.248532
0.277231
0.28884
0.297075
0.2787
0.271919
0.269638
0.283619
0.27117
0.259954
0.256091
0.257367
0.255845
0.257667
0.255927
0.255906
0.255208
0.252363
0.256
0.254701
0.253226
0.255914
0.255357
0.248932
0.255642
0.255331
0.256669
0.25706
0.257294
0.255531
0.257081
0.25745
0.257943
0.258616
0.257264
0.255473
0.256726
0.255215
0.25575
0.256773
0.258491
0.256903
0.258327
0.258447
0.256848
0.256494
0.258373
0.258189
0.264166
0.26852
0.26628
0.260312
0.257441
0.257932
0.255057
0.257739
0.254117
0.255108
0.256844
0.254483
0.255356
0.25557
0.24656
0.253206
0.246124
0.256563
0.250585
0.251271
0.247276
0.255589
0.25137
0.258028
0.25442
0.25699
0.255406
0.25662
0.258196
0.255536
0.253968
0.264038
0.248187
0.251457
0.24648
0.250032
0.235397
0.24132
0.249512
0.243439
0.246164
0.24377
0.253767
0.247635
0.288597
0.285517
0.302387
0.304135
0.306793
0.298439
0.246978
0.25175
0.263551
0.266693
0.262898
0.260872
0.295037
0.300161
0.282081
0.28581
0.28606
0.293065
0.289873
0.279339
0.264671
0.266319
0.272227
0.267644
0.27461
0.266478
0.260561
0.260018
0.323396
0.32446
0.329896
0.319401
0.331663
0.325401
0.315082
0.322568
0.316174
0.316701
0.29569
0.296155
0.299141
0.285391
0.295294
0.292626
0.298719
0.289397
0.297163
0.28664
0.24259
0.257209
0.257529
0.26378
0.253422
0.269244
0.273919
0.245125
0.259359
0.245511
0.239857
0.244824
0.249424
0.251359
0.254342
0.249263
0.257212
0.25513
0.245802
0.242058
0.245279
0.245802
0.257798
0.265305
0.268976
0.260858
0.266647
0.268132
0.256951
0.254656
0.24843
0.255444
0.255395
0.258312
0.250805
0.254216
0.249372
0.249173
0.250112
0.252537
0.252006
0.254113
0.255523
0.254968
0.250809
0.254754
0.253618
0.23913
0.240669
0.240008
0.234847
0.251938
0.243421
0.242003
0.2384
0.239841
0.247551
0.250136
0.236735
0.238526
0.230531
0.230708
0.23785
0.23691
0.234397
0.237331
0.232849
0.252408
0.242671
0.24375
0.256592
0.256218
0.254732
0.257919
0.26071
0.25467
0.254389
0.256995
0.257714
0.257353
0.249983
0.257486
0.255176
0.253424
0.246186
0.238523
0.241524
0.238956
0.253368
0.25598
0.244887
0.247828
0.244033
0.246226
0.23855
0.232746
0.249442
0.244869
0.243917
0.244587
0.239566
0.245157
0.24562
0.234392
0.233429
0.240718
0.239274
0.287786
0.273857
0.268897
0.273547
0.283704
0.289495
0.277813
0.267857
0.284552
0.282178
0.266093
0.266028
0.277568
0.274086
0.276491
0.276474
0.29066
0.280967
0.280698
0.278975
0.276674
0.272954
0.275599
0.277792
0.276142
0.269674
0.267542
0.258459
0.263461
0.262909
0.264213
0.263121
0.260633
0.260062
0.26179
0.262897
0.264072
0.25197
0.2562
0.260555
0.265011
0.256558
0.256255
0.24762
0.260222
0.253803
0.25987
0.260462
0.245041
0.243346
0.24305
0.248967
0.244364
0.247678
0.242573
0.234062
0.235343
0.233332
0.23959
0.248362
0.231094
0.249707
0.242469
0.228482
0.24027
0.242305
0.249804
0.244039
0.25045
0.231537
0.247649
0.229295
0.234939
0.234551
0.242767
0.252548
0.241759
0.258071
0.258594
0.259512
0.255451
0.254447
0.254089
0.257815
0.258009
0.258137
0.245498
0.256453
0.250216
0.263686
0.259853
0.259296
0.255269
0.259501
0.258525
0.241519
0.248916
0.240199
0.24624
0.245213
0.230096
0.247199
0.2341
0.251011
0.246988
0.250688
0.257696
0.254028
0.256361
0.249422
0.247413
0.250035
0.253794
0.257447
0.256647
0.255845
0.25575
0.236534
0.237466
0.242571
0.247914
0.241637
0.237933
0.240114
0.235636
0.238622
0.231831
0.23738
0.241638
0.241839
0.231776
0.234516
0.237316
0.253699
0.235502
0.238648
0.244961
0.245102
0.232829
0.238441
0.240481
0.259713
0.260001
0.259094
0.261432
0.258654
0.25895
0.255387
0.254498
0.254591
0.251619
0.253188
0.256834
0.247837
0.252047
0.260637
0.250797
0.261529
0.261603
0.248416
0.238541
0.248082
0.241783
0.246687
0.245911
0.237945
0.241448
0.246448
0.247838
0.242895
0.241602
0.247898
0.245283
0.231327
0.236762
0.235825
0.239392
0.227922
0.244747
0.243312
0.239269
0.246827
0.238938
0.237917
0.246301
0.26058
0.253513
0.250229
0.253553
0.248396
0.248469
0.242477
0.254974
0.247644
0.251611
0.247062
0.254008
0.244994
0.2435
0.244363
0.247059
0.243943
0.233125
0.238906
0.231493
0.239679
0.236383
0.241252
0.240046
0.2514
0.25219
0.240858
0.2389
0.247679
0.235635
0.241487
0.242638
0.247523
0.239407
0.237062
0.245605
0.248975
0.244796
0.238687
0.24447
0.243896
0.25083
0.248574
0.247794
0.247909
0.249665
0.248008
0.24899
0.248897
0.245082
0.241955
0.244202
0.261276
0.256077
0.263749
0.26552
0.259707
0.263879
0.259187
0.266826
0.266633
0.266214
0.267496
0.243861
0.245317
0.244962
0.238862
0.248127
0.238736
0.256981
0.262387
0.262915
0.245944
0.251578
0.244
0.243793
0.236501
0.239418
0.23948
0.24155
0.233554
0.237937
0.240382
0.238115
0.237656
0.2372
0.244235
0.238835
0.241209
0.244982
0.244275
0.24407
0.242696
0.242961
0.244552
0.247713
0.265947
0.259131
0.259954
0.263528
0.265216
0.268199
0.265909
0.264753
0.261238
0.25936
0.260538
0.257191
0.249941
0.268156
0.257854
0.252745
0.252191
0.243944
0.2434
0.240118
0.242479
0.248614
0.236143
0.230533
0.230938
0.285877
0.285294
0.3016
0.292048
0.296534
0.294151
0.287783
0.290591
0.299272
0.297064
0.301547
0.238549
0.247773
0.24491
0.248759
0.250722
0.247047
0.248083
0.24322
0.240036
0.246556
0.246914
0.240905
0.255434
0.251538
0.253937
0.248618
0.253463
0.24513
0.24758
0.249482
0.252244
0.244814
0.247872
0.251509
0.249557
0.251043
0.250872
0.256261
0.254225
0.253907
0.255541
0.25508
0.25297
0.254758
0.254814
0.254274
0.252945
0.25448
0.253766
0.25403
0.253052
0.255463
0.252336
0.253442
0.255899
0.257682
0.255759
0.25552
0.254406
0.253559
0.255501
0.257255
0.254755
0.253825
0.252353
0.255236
0.253973
0.256023
0.255698
0.255967
0.309544
0.324131
0.31426
0.312095
0.301595
0.32212
0.313162
0.23316
0.233939
0.241276
0.241922
0.240215
0.245004
0.243735
0.246986
0.245055
0.240458
0.236725
0.233756
0.237735
0.238226
0.240781
0.24207
0.239771
0.239767
0.243988
0.241483
0.241267
0.225624
0.244547
0.241295
0.263602
0.264387
0.252335
0.245251
0.261615
0.26054
0.264166
0.249007
0.248941
0.247475
0.25245
0.2504
0.25033
0.248767
0.242362
0.244459
0.245005
0.244003
0.249168
0.245251
0.247186
0.248741
0.250641
0.242031
0.255321
0.254147
0.246614
0.250113
0.254178
0.252318
0.253719
0.250816
0.252065
0.248845
0.254339
0.247633
0.250597
0.250351
0.243731
0.251563
0.24986
0.245013
0.23912
0.241698
0.24203
0.252571
0.252752
0.24763
0.24975
0.257876
0.257193
0.259672
0.250368
0.253698
0.255211
0.253098
0.250197
0.25393
0.249986
0.253556
0.246087
0.251128
0.248133
0.247516
0.24036
0.239654
0.242372
0.24399
0.235296
0.236883
0.250499
0.246802
0.260232
0.25817
0.262282
0.260023
0.260971
0.256564
0.253467
0.257963
0.261317
0.261522
0.260122
0.259348
0.22791
0.231001
0.241566
0.234652
0.260263
0.243582
0.244644
0.256828
0.254342
0.249527
0.254549
0.249331
0.24612
0.245847
0.247523
0.240736
0.239353
0.244465
0.246333
0.250641
0.248591
0.238974
0.247513
0.24968
0.250312
0.25126
0.252272
0.241706
0.268035
0.258014
0.261187
0.262152
0.268025
0.263217
0.26238
0.260327
0.260854
0.260107
0.259115
0.251176
0.267157
0.272219
0.25574
0.263779
0.253808