/*--------------------------------*- C++ -*----------------------------------*\
| =========                 |                                                 |
| \\      /  F ield         | OpenFOAM: The Open Source CFD Toolbox           |
|  \\    /   O peration     | Version:  v1612+                                |
|   \\  /    A nd           | Web:      www.OpenFOAM.com                      |
|    \\/     M anipulation  |                                                 |
\*---------------------------------------------------------------------------*/
FoamFile
{
    version     2.0;
    format      ascii;
    class       volScalarField;
    location    "200";
    object      p;
}
// * * * * * * * * * * * * * * * * * * * * * * * * * * * * * * * * * * * * * //

dimensions      [0 2 -2 0 0 0 0];

internalField   nonuniform List<scalar> 
16797
(
3.70257
3.66937
3.66922
3.66978
3.66916
3.67073
3.66761
3.66672
3.66741
3.66731
3.66769
3.66393
3.66313
3.66619
3.66697
3.66236
3.66641
3.67049
3.67031
3.66618
3.68804
3.69205
3.68582
3.68701
3.68835
3.69232
3.69146
3.6851
3.68745
3.68462
3.68352
3.68425
3.68674
3.68536
3.68424
3.68761
3.65037
3.65115
3.64594
3.64759
3.6479
3.65103
3.64822
3.64881
3.65294
3.65389
3.64951
3.64655
3.65116
3.65032
3.64656
3.65347
3.6672
3.66701
3.6618
3.66524
3.66635
3.66818
3.66377
3.66487
3.66386
3.66341
3.66772
3.66207
3.67007
3.66747
3.66863
3.66652
3.66836
3.63575
3.63244
3.63757
3.63635
3.64333
3.63834
3.63633
3.62962
3.63433
3.63622
3.63014
3.62795
3.63322
3.63189
3.63357
3.64406
3.64381
3.63874
3.64521
3.64463
3.64755
3.64395
3.6447
3.64482
3.65021
3.6516
3.64671
3.6452
3.64465
3.64845
3.64969
3.65101
3.64827
3.63867
3.64321
3.64312
3.64229
3.64378
3.64602
3.64065
3.64213
3.63752
3.64141
3.64389
3.64537
3.64655
3.6464
3.6423
3.63928
3.63659
3.70231
3.70103
3.69918
3.7035
3.70167
3.7006
3.70278
3.69991
3.70252
3.70823
3.70042
3.69759
3.7008
3.69742
3.6954
3.69815
3.69521
3.69722
3.69952
3.69839
3.70087
3.69583
3.69437
3.69148
3.69336
3.69272
3.6977
3.69945
3.69739
3.69723
3.69228
3.69086
3.6857
3.68956
3.68923
3.69392
3.69237
3.69523
3.69698
3.68896
3.69594
3.69118
3.69846
3.69089
3.6874
3.68837
3.69503
3.67715
3.67604
3.68001
3.68352
3.67994
3.67529
3.68273
3.68388
3.68357
3.67894
3.68221
3.68259
3.68223
3.68394
3.68123
3.68981
3.68961
3.6768
3.67796
3.68707
3.68549
3.68354
3.67603
3.67991
3.68609
3.6789
3.67978
3.68173
3.67983
3.6834
3.68377
3.67695
3.67807
3.6563
3.65231
3.64877
3.65184
3.64425
3.64742
3.65212
3.65595
3.65009
3.64286
3.64246
3.64624
3.64665
3.67502
3.68007
3.66917
3.67599
3.67459
3.67458
3.67911
3.68138
3.67382
3.67059
3.68057
3.67971
3.67681
3.67621
3.67929
3.67723
3.67446
3.67731
3.68262
3.68188
3.68142
3.68254
3.68755
3.68785
3.68453
3.68319
3.68559
3.68578
3.69014
3.69154
3.68654
3.68695
3.68215
3.68478
3.68931
3.68518
3.68932
3.69034
3.68781
3.65965
3.65818
3.65698
3.65616
3.65819
3.65867
3.6541
3.6591
3.66213
3.66123
3.65904
3.65638
3.65834
3.65612
3.66026
3.66129
3.65974
3.65878
3.65692
3.65021
3.65138
3.65525
3.6532
3.65088
3.65102
3.65206
3.6541
3.65447
3.65299
3.65686
3.65579
3.65348
3.65141
3.6561
3.65844
3.65521
3.6546
3.65527
3.65659
3.65498
3.65259
3.69106
3.6929
3.68435
3.68602
3.69222
3.69106
3.68943
3.68274
3.68474
3.69154
3.68967
3.69021
3.68518
3.68621
3.6793
3.67856
3.67989
3.68009
3.67901
3.67905
3.67879
3.67512
3.67497
3.67593
3.68048
3.67599
3.67797
3.67676
3.67231
3.67684
3.67477
3.67486
3.67709
3.67593
3.70092
3.70332
3.69706
3.69451
3.69779
3.6979
3.70476
3.69799
3.69825
3.69676
3.69714
3.69327
3.69716
3.70654
3.69724
3.70056
3.69923
3.70388
3.69754
3.69828
3.70349
3.70824
3.70617
3.70331
3.67347
3.67709
3.68199
3.67755
3.67552
3.67858
3.67808
3.67818
3.69343
3.69203
3.68983
3.69361
3.68376
3.69033
3.68635
3.68909
3.68398
3.68926
3.69827
3.6886
3.6898
3.68737
3.69442
3.6872
3.68693
3.68831
3.70063
3.69723
3.6918
3.65165
3.65412
3.65471
3.65095
3.65304
3.6524
3.65077
3.65133
3.65502
3.65276
3.65361
3.65066
3.66128
3.64992
3.65554
3.65472
3.65239
3.65232
3.65406
3.65414
3.65301
3.65426
3.63784
3.64499
3.64011
3.64393
3.64113
3.63241
3.6398
3.63194
3.66352
3.65843
3.66516
3.66778
3.66363
3.66392
3.65864
3.66391
3.65029
3.65662
3.65935
3.66206
3.66202
3.65723
3.65723
3.65359
3.65604
3.65171
3.65785
3.66645
3.6619
3.66319
3.66178
3.65642
3.67951
3.68028
3.67152
3.68139
3.68808
3.67725
3.67798
3.67979
3.6791
3.67723
3.68105
3.67887
3.67908
3.68044
3.67313
3.67978
3.67929
3.68232
3.67973
3.68213
3.64601
3.64663
3.65128
3.64995
3.64874
3.64884
3.64769
3.64695
3.64391
3.64692
3.64907
3.65079
3.65249
3.65023
3.65239
3.64902
3.64792
3.64821
3.6484
3.64031
3.64558
3.64469
3.69335
3.69401
3.68637
3.69599
3.69544
3.69352
3.69393
3.69707
3.69092
3.69702
3.69825
3.6941
3.69557
3.69222
3.69143
3.69557
3.68675
3.69862
3.69013
3.69089
3.66569
3.66402
3.6685
3.66722
3.66349
3.66971
3.67361
3.66849
3.66876
3.66985
3.66824
3.67251
3.67281
3.66984
3.66782
3.66639
3.6692
3.66705
3.69006
3.69299
3.69345
3.68905
3.6871
3.69581
3.69641
3.69278
3.69098
3.69034
3.69063
3.69129
3.69011
3.68943
3.68617
3.68901
3.66312
3.65794
3.65904
3.64704
3.65618
3.65926
3.66103
3.65634
3.65731
3.65837
3.66246
3.66315
3.65802
3.65929
3.65695
3.65544
3.68601
3.68464
3.68485
3.68446
3.68645
3.68195
3.67834
3.68406
3.68204
3.6899
3.68155
3.68758
3.68345
3.68739
3.68613
3.68638
3.68317
3.67944
3.6794
3.68461
3.68405
3.67935
3.66472
3.66039
3.66634
3.65827
3.66377
3.66741
3.66467
3.66544
3.663
3.66546
3.65458
3.65653
3.65544
3.65887
3.65518
3.65737
3.68883
3.68476
3.6846
3.68789
3.6897
3.68522
3.69054
3.69464
3.69213
3.68343
3.69303
3.69109
3.69308
3.69586
3.68273
3.68918
3.6909
3.69595
3.69423
3.69283
3.66276
3.66097
3.65621
3.65861
3.65963
3.66607
3.66081
3.66157
3.65909
3.66062
3.65713
3.66177
3.66174
3.65611
3.65899
3.66072
3.65503
3.66287
3.65153
3.65328
3.65741
3.65152
3.65346
3.65071
3.65463
3.64721
3.65344
3.65404
3.65123
3.62794
3.62565
3.63457
3.62661
3.63008
3.63468
3.63284
3.62557
3.63146
3.63751
3.62819
3.63079
3.63394
3.63146
3.67161
3.66483
3.66794
3.67238
3.67276
3.67362
3.6697
3.66279
3.66946
3.66652
3.64017
3.63755
3.63952
3.6344
3.63713
3.63872
3.63621
3.63731
3.6388
3.64058
3.63915
3.64262
3.63947
3.63616
3.63799
3.63694
3.6737
3.67083
3.67145
3.66533
3.67355
3.67447
3.67587
3.67278
3.6749
3.67632
3.6737
3.66616
3.66794
3.66868
3.6756
3.67471
3.67625
3.67197
3.67214
3.67073
3.63595
3.64128
3.63865
3.6514
3.63847
3.6418
3.64076
3.64234
3.64147
3.64178
3.68479
3.68404
3.68879
3.6873
3.68659
3.68771
3.69384
3.69193
3.67662
3.68547
3.69204
3.69419
3.68777
3.68986
3.68942
3.69399
3.68964
3.64956
3.65061
3.64983
3.64354
3.65357
3.64885
3.64627
3.64828
3.64632
3.64369
3.63993
3.64129
3.64388
3.64399
3.6494
3.649
3.64789
3.64393
3.65132
3.65127
3.64524
3.6471
3.6457
3.70193
3.70281
3.70228
3.70234
3.69938
3.69839
3.69966
3.70143
3.70128
3.70127
3.69618
3.69517
3.69643
3.6959
3.69463
3.70084
3.69962
3.69814
3.69457
3.69287
3.67242
3.67559
3.67376
3.67493
3.67435
3.67585
3.67978
3.67161
3.67505
3.68478
3.67454
3.67878
3.67713
3.6791
3.67596
3.67708
3.67777
3.63982
3.64069
3.63646
3.63068
3.62926
3.64957
3.64231
3.64499
3.63807
3.62539
3.634
3.63396
3.63902
3.64408
3.63695
3.64214
3.64421
3.64083
3.64816
3.65184
3.64645
3.64769
3.64573
3.64034
3.63854
3.64434
3.63955
3.6405
3.63896
3.64755
3.64758
3.64769
3.64884
3.64529
3.6491
3.64959
3.6469
3.65424
3.63488
3.63788
3.65799
3.65514
3.64981
3.64884
3.64969
3.65333
3.65717
3.6548
3.65515
3.65264
3.65685
3.64895
3.65449
3.65419
3.64931
3.6529
3.65653
3.66181
3.65597
3.66281
3.65703
3.65474
3.65272
3.66443
3.66096
3.65818
3.65861
3.65671
3.66215
3.65428
3.65646
3.66261
3.66614
3.66014
3.66317
3.65593
3.66761
3.66195
3.66356
3.66358
3.65898
3.66301
3.66416
3.67106
3.66514
3.6664
3.66676
3.6627
3.66659
3.66114
3.66652
3.66548
3.66736
3.66603
3.66774
3.66738
3.66929
3.6703
3.66682
3.66597
3.67442
3.66752
3.67033
3.67727
3.67392
3.67231
3.68
3.67137
3.67812
3.67307
3.67424
3.67437
3.67875
3.67709
3.68002
3.67553
3.67744
3.67357
3.68026
3.68055
3.67432
3.6818
3.67733
3.67707
3.67713
3.68464
3.67956
3.68031
3.6784
3.6766
3.68506
3.67938
3.68016
3.68201
3.6877
3.68216
3.68077
3.68756
3.68518
3.68296
3.68682
3.68905
3.68587
3.68528
3.69677
3.69502
3.69391
3.69083
3.6881
3.68737
3.69056
3.68478
3.6856
3.69307
3.69426
3.68676
3.69497
3.68931
3.68961
3.69158
3.69497
3.69666
3.69297
3.69418
3.68968
3.68893
3.69893
3.69664
3.69415
3.6969
3.69579
3.698
3.6934
3.69481
3.69732
3.69965
3.70165
3.70307
3.70681
3.70053
3.69499
3.70032
3.70382
3.70213
3.69445
3.70519
3.70622
3.7035
3.70324
3.7089
3.70824
3.70265
3.70472
3.70107
3.70377
3.70655
3.70068
3.70539
3.70363
3.70856
3.70232
3.70356
3.70102
3.7051
3.70211
3.70717
3.70439
3.70846
3.70467
3.70318
3.70248
3.70245
3.70398
3.70073
3.70702
3.70779
3.7104
3.69242
3.7025
3.70041
3.69405
3.70506
3.70718
3.70443
3.70142
3.70019
3.70397
3.69873
3.69945
3.70408
3.70172
3.70178
3.69977
3.69766
3.70632
3.70114
3.70323
3.70289
3.70104
3.70043
3.70984
3.70623
3.70449
3.70617
3.70821
3.69593
3.70474
3.69875
3.70101
3.70281
3.69839
3.70058
3.70452
3.70267
3.70412
3.70692
3.70839
3.6996
3.70299
3.69937
3.69905
3.69997
3.70252
3.70747
3.70082
3.70648
3.69977
3.70101
3.7005
3.70215
3.705
3.70385
3.70564
3.70158
3.70847
3.70171
3.69827
3.70491
3.70105
3.70431
3.70534
3.7022
3.70876
3.70287
3.7013
3.70352
3.68798
3.69833
3.70063
3.69582
3.69912
3.69052
3.69105
3.69495
3.70036
3.69865
3.69296
3.69235
3.69374
3.69315
3.69449
3.69501
3.68871
3.7013
3.69761
3.69245
3.69173
3.69516
3.69628
3.69377
3.69187
3.69915
3.69551
3.69307
3.69095
3.70241
3.69829
3.69631
3.69502
3.70131
3.70434
3.70097
3.69897
3.70162
3.69955
3.70132
3.70321
3.69888
3.70019
3.70016
3.70098
3.70008
3.70746
3.70387
3.70126
3.69894
3.70235
3.70318
3.69627
3.69777
3.6999
3.70055
3.69931
3.6973
3.68561
3.69448
3.70047
3.69757
3.69239
3.69409
3.70001
3.69888
3.69902
3.69709
3.68915
3.69017
3.69255
3.69465
3.70114
3.69173
3.69267
3.69552
3.69897
3.69044
3.68728
3.69644
3.6944
3.69908
3.69736
3.69617
3.69337
3.69748
3.69732
3.70512
3.70528
3.70441
3.69821
3.69891
3.68642
3.68667
3.68842
3.69691
3.69158
3.69622
3.69572
3.69457
3.69583
3.68581
3.69372
3.69297
3.6953
3.69404
3.68481
3.69243
3.69209
3.69363
3.69493
3.69206
3.68696
3.69855
3.69278
3.69859
3.69604
3.68797
3.69746
3.69021
3.68889
3.69566
3.68954
3.69684
3.69394
3.68338
3.68498
3.69481
3.69173
3.68998
3.68582
3.69039
3.68995
3.68809
3.68189
3.68615
3.67827
3.68645
3.67962
3.68348
3.68665
3.68668
3.6809
3.68018
3.68436
3.6807
3.68474
3.68604
3.68875
3.68687
3.69269
3.69523
3.68939
3.68611
3.69108
3.68669
3.69442
3.68472
3.68279
3.68541
3.68836
3.68693
3.68712
3.6813
3.68381
3.67974
3.68555
3.68718
3.67748
3.68981
3.69003
3.69441
3.69487
3.69019
3.6878
3.68917
3.69126
3.68448
3.68455
3.68686
3.69403
3.68863
3.68483
3.68964
3.68874
3.68766
3.68936
3.69078
3.68366
3.68977
3.68051
3.68941
3.69319
3.6904
3.68592
3.68398
3.69208
3.68868
3.68479
3.68822
3.68936
3.68597
3.68887
3.69715
3.70005
3.69702
3.6891
3.69013
3.69755
3.69145
3.69335
3.69007
3.69242
3.69962
3.69191
3.69243
3.69364
3.69193
3.69239
3.6893
3.68829
3.69127
3.69434
3.69079
3.69003
3.68895
3.69949
3.70365
3.70365
3.70382
3.6935
3.69729
3.69389
3.69829
3.7016
3.69983
3.69268
3.68593
3.69185
3.6923
3.69353
3.69653
3.68921
3.68339
3.67851
3.68808
3.6793
3.68664
3.68279
3.68421
3.69149
3.68865
3.69333
3.69067
3.68633
3.6796
3.67974
3.68694
3.68542
3.69314
3.69025
3.69092
3.69368
3.68743
3.68152
3.69117
3.69124
3.69028
3.69141
3.69059
3.69114
3.68585
3.68725
3.68239
3.68342
3.68086
3.68115
3.68042
3.68316
3.68551
3.68718
3.68485
3.69447
3.70014
3.69182
3.69053
3.69478
3.69347
3.68214
3.68784
3.6857
3.68877
3.68585
3.6877
3.68808
3.68101
3.67924
3.68228
3.68881
3.6856
3.68307
3.6817
3.6834
3.68812
3.68622
3.67932
3.68216
3.68478
3.67377
3.67437
3.68083
3.67593
3.68145
3.67635
3.67786
3.68117
3.6777
3.67676
3.67728
3.68477
3.68479
3.67751
3.68503
3.68365
3.68657
3.68206
3.68191
3.68767
3.68372
3.68739
3.68663
3.6796
3.68442
3.68498
3.68145
3.67878
3.67479
3.67876
3.67525
3.6825
3.68049
3.6779
3.67581
3.67557
3.6769
3.67874
3.67548
3.68263
3.68748
3.6768
3.67723
3.67291
3.68015
3.67575
3.68329
3.68491
3.67594
3.67655
3.67766
3.67969
3.68211
3.68062
3.67769
3.68076
3.6769
3.67249
3.6827
3.68075
3.68788
3.68777
3.68668
3.68308
3.68234
3.68481
3.68575
3.67899
3.67915
3.67686
3.67535
3.67724
3.67518
3.67057
3.66618
3.67518
3.67606
3.67274
3.67741
3.67547
3.68441
3.68837
3.69242
3.67826
3.677
3.67692
3.67663
3.67557
3.67512
3.678
3.66989
3.67845
3.67503
3.67797
3.66976
3.67537
3.67389
3.68589
3.67558
3.68176
3.68008
3.67458
3.67188
3.6748
3.6773
3.68853
3.68348
3.68647
3.68406
3.67908
3.67305
3.67864
3.67815
3.67711
3.6748
3.67307
3.66968
3.67357
3.67537
3.68208
3.66961
3.66772
3.67742
3.67177
3.68214
3.67662
3.68039
3.67345
3.68115
3.67728
3.67994
3.67535
3.67444
3.68217
3.68406
3.67999
3.67584
3.67792
3.67585
3.67679
3.68089
3.6784
3.67992
3.66342
3.66257
3.67406
3.67334
3.66944
3.66853
3.66811
3.67496
3.67024
3.67389
3.6712
3.67119
3.66804
3.68231
3.68006
3.68326
3.68046
3.67479
3.67635
3.67926
3.67365
3.67898
3.67684
3.67
3.67195
3.67065
3.67512
3.66659
3.66602
3.67383
3.67129
3.67025
3.67184
3.67275
3.67694
3.67791
3.67439
3.67756
3.6676
3.66352
3.6705
3.6747
3.67696
3.67264
3.67917
3.67779
3.67616
3.67069
3.6706
3.66448
3.66484
3.67225
3.66281
3.66112
3.66223
3.66165
3.66971
3.66659
3.66753
3.67543
3.67097
3.66713
3.66705
3.66807
3.66774
3.66804
3.66704
3.66836
3.66842
3.67217
3.66799
3.66747
3.66541
3.66016
3.66435
3.66454
3.66485
3.6694
3.67352
3.6696
3.66722
3.67003
3.66277
3.66549
3.66809
3.66292
3.65993
3.6673
3.66621
3.66337
3.6667
3.65957
3.66303
3.6621
3.67138
3.67563
3.66557
3.66784
3.67555
3.67301
3.66326
3.66954
3.67222
3.67075
3.66322
3.66652
3.66755
3.66877
3.66448
3.66347
3.67015
3.66729
3.66489
3.66805
3.66537
3.6682
3.67573
3.66712
3.66928
3.67117
3.67057
3.66661
3.66393
3.66448
3.6664
3.66484
3.67467
3.66629
3.6724
3.66357
3.66589
3.67049
3.67019
3.66964
3.67485
3.66925
3.66609
3.67514
3.66998
3.65822
3.66588
3.66961
3.66286
3.66426
3.66663
3.6591
3.65862
3.66823
3.67371
3.67144
3.66632
3.66579
3.66142
3.66285
3.66764
3.66897
3.66649
3.6679
3.66097
3.66414
3.6604
3.66261
3.65814
3.66509
3.66572
3.67434
3.66929
3.6705
3.66588
3.67607
3.66671
3.66406
3.67059
3.67621
3.67325
3.6743
3.66753
3.65752
3.66112
3.65654
3.66022
3.65789
3.66234
3.66624
3.66781
3.66256
3.6664
3.66487
3.65603
3.66374
3.66742
3.66552
3.6635
3.66196
3.6545
3.65627
3.6695
3.6738
3.67117
3.67263
3.6718
3.66736
3.66386
3.66506
3.66388
3.66219
3.65611
3.6672
3.66648
3.66159
3.66203
3.66287
3.66557
3.6634
3.65659
3.65264
3.66332
3.66459
3.65773
3.66182
3.65884
3.66036
3.66089
3.66579
3.6549
3.65985
3.66165
3.65988
3.66027
3.65893
3.66254
3.66445
3.66038
3.65547
3.65849
3.65001
3.65302
3.66326
3.65982
3.6631
3.66571
3.66172
3.66909
3.66796
3.66078
3.65983
3.65458
3.65322
3.6585
3.65477
3.65612
3.66027
3.66035
3.66041
3.65368
3.65852
3.65957
3.65396
3.65511
3.64889
3.65113
3.65474
3.65496
3.65922
3.66028
3.658
3.66196
3.64554
3.65721
3.65593
3.6598
3.65496
3.65066
3.65789
3.6514
3.65206
3.65595
3.65613
3.66424
3.65857
3.66116
3.6661
3.66651
3.64634
3.64922
3.64722
3.65186
3.65735
3.65278
3.65021
3.65765
3.65672
3.65683
3.6504
3.65132
3.65332
3.64819
3.65461
3.64892
3.64823
3.65566
3.65187
3.65321
3.64968
3.65885
3.65594
3.66064
3.65844
3.65631
3.65534
3.66097
3.65699
3.65435
3.65561
3.65986
3.66154
3.65828
3.66108
3.6546
3.66347
3.6578
3.65739
3.65366
3.6586
3.66073
3.6574
3.65698
3.66499
3.666
3.66662
3.6651
3.66324
3.65339
3.65978
3.65786
3.65592
3.65777
3.65764
3.65792
3.66062
3.64942
3.65832
3.66012
3.65451
3.65424
3.65458
3.66184
3.65664
3.65465
3.65232
3.65387
3.65697
3.65524
3.64499
3.64489
3.65303
3.6482
3.6522
3.65016
3.65451
3.65114
3.64229
3.64736
3.64596
3.649
3.64799
3.6483
3.65868
3.65399
3.65176
3.64561
3.65097
3.64904
3.658
3.65476
3.65339
3.66054
3.65648
3.65495
3.65642
3.65451
3.65445
3.65283
3.64327
3.64794
3.64845
3.65124
3.64641
3.64943
3.65614
3.6548
3.65596
3.65826
3.64924
3.64576
3.65373
3.65565
3.65159
3.6539
3.65521
3.65526
3.6481
3.64931
3.65593
3.65411
3.66136
3.66263
3.6564
3.6546
3.66312
3.66168
3.65055
3.64824
3.64739
3.65197
3.65256
3.64956
3.6492
3.65122
3.64572
3.65175
3.65672
3.65345
3.655
3.65527
3.65177
3.64134
3.64937
3.64494
3.6427
3.65201
3.64619
3.64641
3.64237
3.65391
3.65074
3.64833
3.64953
3.65566
3.65187
3.65284
3.6432
3.64501
3.65254
3.64984
3.65013
3.65429
3.65155
3.6305
3.63838
3.6414
3.63774
3.63742
3.64019
3.63032
3.64136
3.6335
3.6366
3.64477
3.64313
3.64357
3.6403
3.64343
3.64881
3.64601
3.64977
3.64073
3.65114
3.64481
3.65443
3.65292
3.65011
3.65303
3.65093
3.6408
3.64401
3.64822
3.64276
3.64723
3.63958
3.64529
3.64346
3.65246
3.64378
3.64779
3.64775
3.64984
3.64093
3.64469
3.64452
3.65113
3.6463
3.64922
3.64879
3.64578
3.64816
3.65251
3.65788
3.65724
3.64717
3.6478
3.64758
3.64946
3.64582
3.64642
3.64686
3.64703
3.64303
3.63846
3.63501
3.64444
3.64431
3.64726
3.64711
3.64974
3.64494
3.65142
3.64518
3.65011
3.65167
3.64727
3.64403
3.65294
3.64834
3.64852
3.64884
3.65584
3.65242
3.64787
3.65765
3.65421
3.65373
3.64916
3.64902
3.65528
3.65072
3.64966
3.65256
3.6302
3.62934
3.6386
3.63544
3.64551
3.64131
3.6523
3.64622
3.64156
3.6468
3.64094
3.64569
3.64643
3.64571
3.63364
3.63815
3.63661
3.64055
3.63993
3.63918
3.63795
3.63669
3.64125
3.64804
3.6442
3.64303
3.64152
3.64105
3.62902
3.63123
3.6391
3.63919
3.63542
3.63782
3.63665
3.64081
3.642
3.64321
3.64127
3.63609
3.63709
3.64064
3.63893
3.63849
3.64284
3.64241
3.64377
3.63871
3.64316
3.64471
3.6408
3.64472
3.64292
3.64931
3.65469
3.64704
3.64622
3.64999
3.64649
3.63867
3.64738
3.64824
3.64311
3.65028
3.64486
3.64112
3.6437
3.63876
3.6461
3.64796
3.65136
3.64563
3.64659
3.64893
3.64319
3.64934
3.65095
3.65107
3.64087
3.64303
3.63997
3.64179
3.64478
3.63924
3.64145
3.64617
3.64007
3.64482
3.64468
3.65121
3.64547
3.6512
3.64415
3.64322
3.64259
3.63553
3.63736
3.63637
3.63931
3.63582
3.64209
3.63534
3.63684
3.64552
3.64186
3.64359
3.64309
3.63821
3.64336
3.63974
3.64733
3.63663
3.64722
3.64499
3.64123
3.64154
3.63861
3.63691
3.63404
3.63731
3.63731
3.63046
3.64001
3.64066
3.64518
3.64033
3.64773
3.64058
3.63835
3.63436
3.64416
3.64593
3.64353
3.64293
3.63097
3.63768
3.63528
3.63123
3.63031
3.62905
3.62898
3.63058
3.63259
3.6279
3.6282
3.63078
3.62559
3.62206
3.63537
3.64043
3.63899
3.63456
3.63613
3.63943
3.64218
3.6394
3.64401
3.64513
3.64247
3.63677
3.64194
3.64181
3.63877
3.63855
3.64759
3.64303
3.64243
3.64331
3.6405
3.63807
3.64236
3.6429
3.63197
3.63038
3.63016
3.62417
3.62313
3.62374
3.62944
3.63453
3.63689
3.64274
3.63945
3.63546
3.63204
3.62865
3.63658
3.63837
3.63769
3.63806
3.63137
3.63211
3.63821
3.63575
3.63593
3.63319
3.63356
3.637
3.64429
3.64993
3.64947
3.64446
3.64064
3.64579
3.6455
3.63962
3.64505
3.64313
3.64312
3.64086
3.64817
3.64932
3.6475
3.64575
3.63904
3.65166
3.64718
3.64503
3.64065
3.6396
3.63981
3.64353
3.64608
3.64379
3.62892
3.62961
3.6279
3.62702
3.63041
3.63559
3.63069
3.62208
3.63626
3.63573
3.64282
3.63635
3.64401
3.63986
3.63687
3.63784
3.64038
3.63744
3.63836
3.64471
3.64071
3.63896
3.63751
3.63651
3.64084
3.63978
3.64246
3.64133
3.6516
3.6474
3.64474
3.64675
3.65005
3.65171
3.64779
3.64997
3.65199
3.65715
3.65674
3.64954
3.6459
3.65065
3.64718
3.64826
3.63816
3.63809
3.638
3.63896
3.63839
3.63622
3.64392
3.6393
3.64144
3.63656
3.6292
3.63133
3.63342
3.62972
3.63022
3.64847
3.64499
3.64504
3.6452
3.63936
3.63867
3.6428
3.63949
3.64192
3.64442
3.64165
3.6415
3.64677
3.6425
3.63979
3.64045
3.63802
3.63773
3.63795
3.6395
3.63237
3.63845
3.63868
3.63722
3.63754
3.63378
3.63565
3.63782
3.65217
3.65244
3.65554
3.64614
3.64803
3.65079
3.64901
3.65038
3.6475
3.64482
3.65085
3.65204
3.65021
3.65412
3.64676
3.64899
3.65125
3.63933
3.64944
3.6438
3.6462
3.64424
3.6458
3.64736
3.64596
3.64506
3.6382
3.636
3.62867
3.6396
3.63711
3.63983
3.636
3.64084
3.64013
3.6456
3.64373
3.63939
3.64576
3.64694
3.64947
3.64707
3.64638
3.64477
3.64953
3.65112
3.65022
3.65219
3.65313
3.65125
3.65205
3.65268
3.66048
3.66147
3.66165
3.66524
3.66185
3.66067
3.66047
3.66092
3.6599
3.65788
3.65808
3.6646
3.66571
3.66524
3.6699
3.66734
3.66545
3.66072
3.67074
3.66874
3.66657
3.66442
3.64366
3.65092
3.64527
3.65138
3.65336
3.65276
3.647
3.65178
3.65253
3.65303
3.65079
3.65663
3.65587
3.65404
3.65263
3.65358
3.64853
3.66064
3.65506
3.65367
3.6621
3.65279
3.66206
3.63945
3.63966
3.64144
3.64812
3.64397
3.64025
3.64544
3.64313
3.64447
3.63825
3.64076
3.64427
3.63933
3.6595
3.65594
3.65556
3.65465
3.65146
3.65973
3.65264
3.65443
3.65323
3.64839
3.64889
3.65294
3.65985
3.66334
3.65506
3.65693
3.65882
3.64726
3.64751
3.65298
3.6566
3.66168
3.65321
3.65424
3.65519
3.65112
3.66021
3.66598
3.66261
3.65476
3.65992
3.65962
3.66173
3.66236
3.66166
3.66497
3.66356
3.65419
3.65111
3.65898
3.66134
3.66207
3.66421
3.65745
3.66517
3.66104
3.66579
3.66512
3.65665
3.65593
3.65711
3.65683
3.65822
3.65343
3.65043
3.6546
3.65486
3.65456
3.6583
3.65939
3.65741
3.65699
3.65736
3.66078
3.65498
3.65818
3.65639
3.65515
3.6569
3.66236
3.65975
3.65133
3.65081
3.65386
3.67531
3.67208
3.674
3.67453
3.67178
3.67
3.66694
3.67209
3.67601
3.67169
3.67382
3.67059
3.66575
3.66625
3.6663
3.66863
3.67215
3.67496
3.67474
3.67465
3.67009
3.67364
3.66693
3.66471
3.66772
3.66847
3.66914
3.67078
3.68104
3.67955
3.67364
3.67046
3.67145
3.67098
3.67344
3.67296
3.67273
3.67857
3.67117
3.66813
3.67045
3.67223
3.66571
3.66805
3.66964
3.66195
3.66408
3.67395
3.6707
3.67001
3.66783
3.66883
3.67122
3.67182
3.66979
3.66725
3.67055
3.66235
3.66915
3.66056
3.66027
3.66584
3.66234
3.66422
3.66033
3.66599
3.66653
3.6647
3.66428
3.66367
3.66655
3.66581
3.66326
3.66269
3.66503
3.66526
3.66505
3.66398
3.66774
3.66815
3.66801
3.66799
3.67141
3.6669
3.66597
3.67188
3.67726
3.67457
3.6717
3.667
3.66639
3.66983
3.6727
3.66969
3.67201
3.67019
3.67116
3.66885
3.67151
3.67076
3.67763
3.67291
3.674
3.66009
3.6682
3.6584
3.6616
3.66527
3.66817
3.66586
3.6647
3.67039
3.66613
3.66869
3.67304
3.67627
3.67434
3.6664
3.67143
3.67293
3.67105
3.67316
3.66705
3.6655
3.67841
3.67425
3.67322
3.67212
3.67583
3.67421
3.67482
3.67576
3.68012
3.68224
3.67815
3.6888
3.69562
3.69216
3.69159
3.6912
3.68209
3.67856
3.68393
3.68007
3.68689
3.68255
3.68593
3.68567
3.68592
3.68743
3.6885
3.6883
3.68475
3.68516
3.68036
3.6795
3.68772
3.68352
3.68057
3.67773
3.68365
3.68404
3.6836
3.68567
3.68169
3.68443
3.6759
3.68222
3.6804
3.67718
3.67668
3.67831
3.67556
3.67035
3.67164
3.67762
3.67539
3.67641
3.669
3.67295
3.67405
3.67039
3.6731
3.67395
3.67304
3.6753
3.67565
3.68079
3.679
3.67707
3.67998
3.67587
3.67565
3.67553
3.67332
3.67633
3.67734
3.6788
3.67958
3.67756
3.68261
3.67749
3.67972
3.67638
3.67601
3.67955
3.67938
3.68475
3.68759
3.68094
3.67765
3.68622
3.68779
3.68143
3.68812
3.68519
3.69109
3.68594
3.68714
3.68426
3.68201
3.68817
3.6866
3.69785
3.70207
3.6968
3.69432
3.69988
3.69278
3.69756
3.69689
3.70229
3.69908
3.69909
3.69801
3.70086
3.69867
3.69966
3.7006
3.70097
3.70067
3.70224
3.69964
3.69667
3.69697
3.70694
3.70533
3.70328
3.68135
3.6864
3.68559
3.68516
3.69146
3.68626
3.68141
3.68109
3.68624
3.68422
3.68652
3.68562
3.69541
3.69125
3.69175
3.69162
3.69676
3.69174
3.69363
3.68928
3.69856
3.69555
3.68859
3.68672
3.69122
3.69327
3.68479
3.68457
3.68556
3.68904
3.68597
3.68801
3.67539
3.68274
3.67846
3.67753
3.68144
3.69669
3.69346
3.695
3.69133
3.68605
3.69273
3.69002
3.69203
3.69319
3.68958
3.68833
3.68564
3.69158
3.69235
3.68496
3.68801
3.69186
3.68805
3.6962
3.694
3.69536
3.69356
3.69184
3.69284
3.69072
3.70078
3.69749
3.6871
3.68999
3.6853
3.68701
3.69143
3.68898
3.70248
3.70008
3.7005
3.69798
3.70181
3.70321
3.69593
3.69989
3.69847
3.69578
3.70237
3.69521
3.69977
3.6969
3.69774
3.70187
3.70219
3.70491
3.70359
3.69541
3.70006
3.69573
3.69372
3.68929
3.69163
3.69451
3.70013
3.69298
3.69948
3.70085
3.6968
3.69581
3.7014
3.70365
3.70545
3.70511
3.69648
3.69807
3.69421
3.68919
3.70199
3.69874
3.68989
3.69313
3.69666
3.69516
3.69365
3.69875
3.70497
3.69831
3.70105
3.69955
3.7021
3.69261
3.69185
3.68475
3.69566
3.69316
3.69145
3.69178
3.68867
3.68693
3.68945
3.68835
3.694
3.69139
3.70171
3.70688
3.69943
3.6984
3.70225
3.70081
3.70658
3.70144
3.69861
3.70159
3.7018
3.70234
3.69605
3.6987
3.70072
3.69914
3.6947
3.69572
3.69066
3.69621
3.69974
3.69882
3.69803
3.69715
3.69501
3.69375
3.69758
3.69405
3.69721
3.69756
3.69729
3.69543
3.69779
3.69708
3.69719
3.69755
3.6999
3.71063
3.70366
3.70786
3.70624
3.70713
3.69926
3.69627
3.70048
3.69906
3.70485
3.70533
3.70577
3.70343
3.70394
3.70434
3.7065
3.70192
3.7024
3.70135
3.70151
3.69942
3.70094
3.70518
3.70307
3.71497
3.70405
3.70475
3.7033
3.70511
3.70045
3.70962
3.70146
3.70265
3.7051
3.70474
3.70075
3.70301
3.70656
3.70565
3.70368
3.70195
3.70223
3.70635
3.70226
3.70001
3.69986
3.70259
3.6993
3.70189
3.69824
3.70316
3.69789
3.70319
3.69804
3.69683
3.70329
3.69884
3.70326
3.70432
3.70487
3.68812
3.68725
3.68951
3.69125
3.68881
3.68575
3.69103
3.68878
3.68359
3.69189
3.68903
3.69267
3.68266
3.6849
3.68338
3.6856
3.68108
3.68356
3.68265
3.68137
3.67976
3.67724
3.6777
3.67181
3.67471
3.67499
3.67628
3.67745
3.67208
3.66751
3.66749
3.66437
3.6648
3.66019
3.65916
3.65928
3.662
3.65726
3.65844
3.65524
3.65137
3.6571
3.6574
3.65923
3.65972
3.64927
3.64836
3.65196
3.64861
3.6566
3.65708
3.65582
3.64979
3.64597
3.64495
3.6464
3.6443
3.64586
3.64781
3.64842
3.65173
3.65605
3.65254
3.65402
3.65351
3.64715
3.65663
3.65434
3.65795
3.6505
3.64839
3.64522
3.64818
3.6228
3.6325
3.63107
3.63409
3.63765
3.63775
3.63712
3.63279
3.62824
3.62763
3.70032
3.69688
3.69844
3.6965
3.69396
3.69493
3.69476
3.69438
3.69361
3.69274
3.69645
3.69843
3.69701
3.70291
3.69879
3.69875
3.70605
3.70762
3.69912
3.70104
3.70109
3.70049
3.7062
3.70433
3.70366
3.69932
3.70661
3.70102
3.70496
3.70546
3.70002
3.6995
3.69561
3.6978
3.70125
3.70482
3.70484
3.69527
3.70193
3.70717
3.70311
3.70169
3.70755
3.70981
3.71137
3.71105
3.6941
3.70277
3.70484
3.68466
3.69105
3.68738
3.68637
3.69047
3.69175
3.6852
3.68373
3.68618
3.68767
3.69259
3.6871
3.68721
3.68869
3.68526
3.6858
3.69417
3.69623
3.68869
3.68736
3.68133
3.68338
3.69847
3.68257
3.6932
3.68705
3.69066
3.6884
3.68849
3.68879
3.68971
3.68938
3.68662
3.68959
3.69141
3.69479
3.69289
3.68499
3.69737
3.6923
3.69265
3.68716
3.688
3.69445
3.6917
3.69461
3.68978
3.68532
3.68738
3.68462
3.67963
3.68598
3.68781
3.68521
3.69659
3.69575
3.69895
3.68615
3.69202
3.69641
3.69763
3.69834
3.69857
3.69678
3.68101
3.68575
3.68474
3.68467
3.68402
3.69006
3.69021
3.68438
3.68226
3.68543
3.6825
3.68349
3.67272
3.67916
3.67814
3.67439
3.67164
3.67778
3.67609
3.67827
3.68029
3.67663
3.68062
3.68395
3.68541
3.68603
3.6825
3.67922
3.67781
3.67542
3.67806
3.67855
3.67513
3.67301
3.67277
3.67403
3.67648
3.67954
3.67712
3.68044
3.68612
3.68243
3.68099
3.67266
3.67437
3.67017
3.67417
3.67259
3.6704
3.67819
3.67671
3.67478
3.66807
3.66986
3.68267
3.67795
3.68254
3.67816
3.67412
3.67276
3.67606
3.67822
3.67296
3.67529
3.67026
3.66912
3.66814
3.67463
3.67829
3.66929
3.66553
3.68709
3.68404
3.68382
3.68399
3.68518
3.68995
3.68541
3.68307
3.68698
3.68489
3.68283
3.68641
3.67866
3.67374
3.68461
3.68205
3.68802
3.68566
3.6905
3.68851
3.68937
3.6798
3.67763
3.68834
3.68294
3.67273
3.68214
3.67915
3.67775
3.67911
3.68592
3.68043
3.6781
3.67992
3.68179
3.66771
3.66882
3.66531
3.67057
3.67162
3.67224
3.67697
3.67564
3.67523
3.67374
3.67647
3.67621
3.67384
3.67244
3.68178
3.6826
3.67531
3.68087
3.67983
3.67536
3.68667
3.68257
3.68029
3.68077
3.67713
3.68063
3.66881
3.67087
3.67205
3.66738
3.67649
3.67722
3.67184
3.67928
3.67766
3.67499
3.6699
3.66822
3.67224
3.67155
3.67185
3.66949
3.67337
3.67088
3.67226
3.67388
3.67081
3.67431
3.66868
3.6667
3.66783
3.65911
3.66942
3.66868
3.66754
3.66644
3.67163
3.66838
3.66244
3.66202
3.66446
3.66698
3.66414
3.66182
3.66532
3.66404
3.66717
3.66576
3.66605
3.66864
3.6751
3.68083
3.66232
3.6627
3.66194
3.66222
3.66951
3.67024
3.66323
3.66358
3.6658
3.668
3.66506
3.66724
3.66849
3.67143
3.66947
3.66892
3.6515
3.65528
3.65833
3.65757
3.65441
3.65869
3.65422
3.65706
3.65063
3.64876
3.65923
3.65774
3.65594
3.65602
3.66276
3.66213
3.66773
3.67133
3.67315
3.67402
3.67361
3.67024
3.66924
3.6689
3.66785
3.67598
3.67474
3.67043
3.67278
3.67502
3.65739
3.65967
3.66859
3.65971
3.65413
3.65487
3.65768
3.65586
3.65623
3.65704
3.65309
3.66048
3.6576
3.65829
3.6523
3.64954
3.65352
3.65692
3.64926
3.65224
3.64824
3.6486
3.66433
3.65741
3.65865
3.65856
3.66259
3.6594
3.66214
3.66562
3.66142
3.66596
3.66051
3.65791
3.6613
3.65997
3.66213
3.66215
3.66127
3.665
3.66309
3.65343
3.65357
3.65283
3.64972
3.65432
3.65367
3.65466
3.65293
3.66026
3.65837
3.65752
3.65434
3.65861
3.65651
3.6621
3.66167
3.66075
3.65756
3.6571
3.65773
3.66537
3.66268
3.6529
3.65314
3.65431
3.65884
3.65266
3.65153
3.64855
3.65302
3.64971
3.65651
3.65838
3.65929
3.65767
3.64613
3.64537
3.63813
3.65208
3.64723
3.65083
3.65356
3.65481
3.65049
3.65061
3.65331
3.65812
3.65512
3.65779
3.65562
3.6403
3.64782
3.64308
3.6462
3.64249
3.64406
3.638
3.64289
3.64223
3.648
3.64605
3.63749
3.63982
3.63843
3.65061
3.64374
3.64833
3.64904
3.64736
3.64669
3.64629
3.64735
3.64102
3.64364
3.62946
3.63423
3.62704
3.63608
3.63199
3.64464
3.64656
3.64424
3.64601
3.6468
3.64719
3.64877
3.63937
3.64821
3.64324
3.63719
3.64577
3.64273
3.64904
3.64956
3.64221
3.64618
3.64143
3.63768
3.64051
3.64453
3.64272
3.64335
3.63567
3.62859
3.63301
3.63623
3.63333
3.63427
3.62985
3.6365
3.63299
3.63448
3.6334
3.63532
3.64639
3.64465
3.62911
3.62086
3.63201
3.6251
3.62925
3.63129
3.64606
3.64409
3.64351
3.64549
3.64301
3.64165
3.64037
3.64692
3.63536
3.63072
3.64054
3.6307
3.63238
3.64033
3.63153
3.62976
3.64059
3.6366
3.63706
3.63778
3.63713
3.63668
3.63938
3.63941
3.62839
3.64441
3.64284
3.64017
3.64761
3.64343
3.64136
3.6426
3.64379
3.63947
3.64285
3.64471
3.64349
3.64207
3.6454
3.64191
3.6377
3.63401
3.64694
3.63659
3.64213
3.64477
3.64056
3.6463
3.64779
3.65371
3.64688
3.64669
3.64685
3.64754
3.64712
3.65142
3.64424
3.64339
3.65459
3.66028
3.64477
3.64656
3.66734
3.66976
3.66481
3.65327
3.6521
3.65532
3.65607
3.65507
3.66738
3.66048
3.66463
3.6633
3.66278
3.66172
3.66074
3.66552
3.66858
3.66219