/*--------------------------------*- C++ -*----------------------------------*\
| =========                 |                                                 |
| \\      /  F ield         | OpenFOAM: The Open Source CFD Toolbox           |
|  \\    /   O peration     | Version:  v1612+                                |
|   \\  /    A nd           | Web:      www.OpenFOAM.com                      |
|    \\/     M anipulation  |                                                 |
\*---------------------------------------------------------------------------*/
FoamFile
{
    version     2.0;
    format      ascii;
    class       surfaceScalarField;
    location    "200";
    object      phi;
}
// * * * * * * * * * * * * * * * * * * * * * * * * * * * * * * * * * * * * * //

dimensions      [0 3 -1 0 0 0 0];

internalField   nonuniform List<scalar> 
36911
(
-5.00164e-10
4.67197e-09
-3.0243e-10
-3.86939e-09
4.15571e-09
-4.2154e-09
4.97745e-09
-4.91776e-09
1.23407e-09
3.05883e-09
-1.37184e-10
1.13584e-09
3.24282e-10
-5.67552e-09
5.10999e-09
-2.5388e-10
-3.72026e-09
2.97298e-09
5.59085e-09
-3.45383e-09
4.19383e-09
1.32268e-11
-5.297e-09
5.43415e-09
2.92169e-09
7.05708e-10
-1.02524e-09
1.88198e-09
8.03149e-09
-9.58918e-09
8.37829e-09
-6.75019e-09
-1.58525e-10
-6.86391e-10
5.03874e-09
-1.7781e-09
7.91936e-09
2.23705e-09
7.12172e-09
-8.68335e-10
-6.85608e-09
8.03837e-09
-1.3408e-09
4.41513e-11
-1.30938e-09
-9.5354e-10
5.70129e-09
8.456e-09
-6.28553e-10
-1.78992e-09
9.75343e-09
6.66486e-09
8.37609e-10
2.15586e-09
1.56849e-08
-3.09879e-09
-1.4742e-08
1.96703e-08
-3.12738e-09
-1.43871e-08
1.78915e-08
7.08467e-10
1.07031e-09
-7.61071e-09
1.10696e-08
1.44326e-08
7.01782e-09
1.05637e-09
-1.10363e-09
8.87566e-09
-1.08994e-08
6.76249e-09
-1.09649e-08
-1.23635e-08
9.34402e-09
-5.97796e-10
3.61726e-09
6.1781e-09
-1.17791e-08
1.32698e-08
-1.42858e-08
1.72445e-09
8.72131e-09
7.64051e-09
-7.69308e-09
2.7484e-08
-1.00957e-08
1.56725e-08
1.38957e-08
-3.12927e-09
-4.58831e-09
3.20216e-09
-8.53944e-09
-5.47721e-09
1.14885e-09
4.16085e-09
1.67503e-10
2.74701e-09
-5.3445e-09
-2.87971e-09
5.63025e-09
-8.83626e-09
8.24553e-09
-5.03953e-09
6.45425e-09
3.24861e-10
-2.24227e-09
3.62617e-09
2.77696e-09
8.12979e-10
-3.08247e-10
-1.6206e-09
3.10624e-09
4.96861e-09
3.27647e-09
-1.23532e-08
7.45609e-09
-3.08978e-09
3.32278e-09
1.43223e-09
-1.66523e-09
1.32668e-09
-4.55203e-09
1.35593e-10
-9.94192e-10
-1.81123e-09
2.61249e-09
1.92963e-10
-2.35722e-09
8.73079e-10
4.89949e-10
4.92119e-09
9.5799e-09
-1.07001e-08
4.39668e-09
-2.24995e-09
1.16818e-09
4.40453e-09
-1.12006e-10
-3.10712e-09
6.08949e-09
3.35153e-09
-6.33387e-09
1.00835e-09
-4.06865e-09
-4.67927e-11
-1.33573e-09
1.06172e-09
-3.48707e-09
3.7611e-09
1.67989e-10
4.58577e-09
2.42103e-09
-1.01782e-08
7.92515e-09
7.92769e-10
-9.06666e-09
1.06949e-08
-4.18202e-09
4.82433e-09
5.05899e-09
-1.29221e-09
3.18815e-11
6.67882e-09
-2.5221e-09
4.33885e-11
-1.93167e-09
-1.13503e-08
1.26534e-08
5.54085e-09
-7.94264e-09
-3.78677e-09
-2.75258e-11
-8.4754e-09
-1.29288e-09
1.39011e-09
8.37822e-09
-9.25258e-10
-9.48179e-09
-4.27987e-10
-4.38402e-09
-6.21508e-09
4.86184e-09
3.13993e-09
2.92662e-09
3.54918e-09
-9.61574e-09
4.23884e-10
5.4946e-09
-2.77855e-09
6.09274e-09
5.40217e-09
-8.56829e-09
1.04952e-08
-3.97857e-09
-6.01824e-09
1.03573e-08
1.06311e-09
-7.48252e-09
5.01346e-09
4.04834e-09
1.09459e-08
-9.4996e-09
1.07638e-08
-3.93375e-09
-2.7817e-09
-1.05098e-08
1.04558e-09
5.82331e-09
3.64089e-09
4.10376e-09
-4.25627e-09
1.39287e-09
-5.90784e-09
1.54608e-08
-4.87313e-09
5.63291e-09
-8.51967e-09
9.40853e-10
-5.35676e-09
-2.69124e-09
-5.18455e-10
7.84702e-09
-4.63733e-09
3.22208e-09
-5.0341e-09
5.23544e-09
-3.42345e-09
-5.5893e-10
7.00077e-09
-3.21977e-09
6.55886e-09
-1.46684e-09
-1.34398e-08
8.3478e-09
-6.27432e-09
1.22742e-08
1.01328e-08
-3.96776e-09
-1.24667e-09
-4.91842e-09
-2.79985e-09
6.65837e-09
-6.83244e-09
6.2978e-09
-2.15661e-09
-1.10977e-08
4.59679e-09
-2.45182e-09
5.75477e-09
-3.87835e-09
5.75396e-10
-1.05297e-09
-8.23129e-09
2.14006e-09
-6.72937e-09
1.78947e-09
-6.12268e-09
1.32274e-09
-1.36354e-08
-9.18211e-09
9.37768e-09
-1.37308e-08
-3.87237e-09
5.95569e-09
-9.54085e-09
2.53218e-09
-1.32662e-08
-2.03858e-09
-2.10414e-08
-2.04389e-08
-1.79316e-08
1.08952e-08
2.74752e-08
-2.39977e-08
-3.54426e-09
9.31979e-10
-1.2685e-08
-8.09782e-10
-1.05029e-08
-1.92762e-08
9.50839e-09
1.25865e-09
8.50913e-09
-8.23964e-09
-6.55646e-09
-4.48009e-09
-1.06387e-08
-1.80398e-08
-1.45129e-08
-2.4611e-09
2.10127e-09
-1.03767e-08
-1.80335e-08
1.57251e-08
-9.77547e-09
-8.5332e-09
1.74989e-08
-1.02371e-08
5.23253e-09
-3.2094e-09
-1.34747e-09
-5.81984e-09
7.7215e-10
-1.46203e-08
6.82731e-09
-7.40264e-09
1.21022e-08
-1.18314e-08
-7.91032e-09
6.29581e-09
-1.37319e-08
6.0652e-09
2.31165e-10
-1.5959e-09
1.66509e-08
3.06302e-09
-4.73351e-09
-1.49804e-08
1.03613e-08
8.70192e-09
-2.41224e-09
-1.2728e-08
-1.25952e-08
1.84026e-08
6.92052e-09
2.7772e-09
1.33534e-09
-1.68405e-08
5.12432e-09
-1.49423e-08
-1.35562e-08
2.68114e-08
-2.89391e-09
-1.66008e-08
1.79061e-08
-1.48616e-08
1.37937e-08
-7.00091e-10
-1.00306e-08
1.75547e-08
4.94093e-09
-1.99989e-08
1.90246e-08
-1.46004e-08
-1.74023e-08
-6.86419e-09
1.75906e-08
6.67586e-09
-1.32947e-08
1.4295e-08
5.98513e-09
2.1666e-08
-8.39717e-10
5.29741e-09
1.85939e-08
2.12324e-09
1.00372e-08
-7.66776e-09
2.28713e-08
6.46246e-09
1.20102e-08
5.47124e-09
-8.1986e-09
1.15614e-08
-8.83406e-09
1.13404e-08
-1.24927e-09
-4.61992e-09
1.52343e-08
-3.04212e-08
6.98832e-09
1.53724e-08
-8.22067e-09
4.40968e-09
8.4366e-09
-1.79048e-09
8.72628e-09
-1.0537e-08
1.36697e-08
5.30387e-09
-7.75848e-10
-7.81563e-09
2.3536e-09
6.23788e-09
1.59109e-09
8.97349e-09
2.00496e-08
-1.3036e-08
8.8374e-09
1.46095e-09
8.83126e-09
-1.91296e-08
1.33474e-08
-1.23256e-08
1.09736e-08
1.40527e-08
-7.59368e-09
-4.50933e-09
-1.94973e-09
-1.06143e-08
9.12314e-09
1.55439e-08
-1.06479e-08
-1.02153e-09
1.05507e-09
-7.2308e-09
-1.10107e-08
-1.2925e-09
1.68575e-08
-6.44186e-09
-9.53987e-09
7.10884e-10
4.79199e-09
4.03699e-09
-3.57389e-09
2.06386e-09
-8.02985e-09
-1.46013e-09
-1.01705e-08
8.05673e-09
-7.76218e-09
4.42067e-09
4.0524e-09
-3.93027e-10
-5.30529e-09
-9.85341e-09
1.70957e-09
1.17279e-09
6.97106e-09
-3.34199e-09
-6.90445e-09
8.31186e-09
-2.24215e-09
-9.41171e-09
7.26549e-09
2.75595e-09
-5.98185e-09
9.14068e-09
-4.45133e-09
2.62107e-10
-1.09331e-08
-9.34108e-10
-4.77407e-09
1.06725e-09
4.64092e-09
3.18091e-10
3.51404e-09
-4.76624e-09
1.32976e-09
-6.74973e-09
5.73807e-09
-3.08206e-11
-7.97907e-09
9.33965e-09
-1.4474e-09
-3.37739e-09
5.07181e-11
-5.46268e-09
6.4991e-09
-6.98195e-09
7.74489e-10
-1.77162e-09
-1.53716e-09
-5.37292e-09
6.57136e-09
-9.50357e-09
-4.04977e-09
-6.65242e-09
6.47405e-09
-2.44933e-10
-3.35947e-10
-6.07155e-09
-5.92432e-10
-9.15608e-09
6.0125e-10
-2.1879e-10
-5.47434e-09
5.09186e-09
-4.57047e-09
4.83576e-09
-6.36758e-09
5.55635e-09
3.22499e-09
4.8402e-09
-4.43422e-09
-3.63098e-09
3.38854e-09
-2.09987e-10
4.64448e-11
-3.26115e-10
4.75254e-09
4.13776e-10
3.01315e-09
4.92719e-11
2.0254e-09
1.59733e-09
-8.05694e-09
3.33252e-09
2.69645e-09
-4.00356e-09
3.15349e-09
-3.09556e-11
-6.10615e-09
1.13283e-09
2.057e-11
4.95277e-09
7.71284e-09
-6.86938e-09
-6.94961e-09
1.35001e-09
7.49567e-09
6.77333e-10
5.42522e-09
-1.37112e-10
3.8276e-09
2.95902e-09
-8.23108e-09
-4.65131e-09
4.19865e-09
3.60615e-09
4.99426e-10
-2.45428e-09
6.16041e-09
-2.70196e-09
1.16472e-09
5.01626e-09
5.22626e-09
-5.40307e-10
5.5234e-09
-4.00343e-10
-4.58276e-09
-2.75334e-09
2.80991e-09
-5.9688e-10
3.18047e-09
-2.02565e-10
-5.73124e-09
-8.66707e-09
3.68318e-09
8.16436e-09
-2.11113e-09
3.36788e-09
4.26666e-09
2.78935e-10
4.1985e-10
2.37e-09
-5.01576e-09
2.44319e-09
2.62805e-09
-2.10371e-10
-4.76774e-11
2.41715e-09
4.89832e-10
8.2421e-10
4.24868e-10
3.55359e-09
-4.80267e-09
2.27113e-09
9.70232e-10
-1.10018e-09
4.86187e-09
-1.49056e-09
4.40777e-09
-1.40568e-08
6.78829e-09
5.72763e-09
1.5409e-09
-5.0117e-09
-8.65075e-09
2.04349e-08
-6.77247e-09
1.31116e-08
-9.77789e-09
-8.34536e-09
-6.81718e-09
5.87192e-09
-1.0864e-09
-5.36099e-09
1.45906e-08
-8.14325e-09
-4.9284e-09
1.06303e-08
8.21891e-09
-8.7558e-09
-9.241e-09
5.98343e-10
8.03396e-10
-1.64109e-09
-9.69423e-09
5.97433e-09
-7.78572e-09
1.21623e-09
6.33656e-09
1.73532e-09
-1.68277e-08
9.75393e-09
5.2308e-09
-8.64816e-09
9.29761e-09
1.05466e-09
-8.81848e-09
1.26568e-09
-2.14143e-09
6.15958e-09
-1.287e-08
8.44573e-09
9.89249e-09
-1.61817e-09
-3.04351e-09
1.14044e-08
-4.27708e-09
3.94063e-09
3.80073e-09
1.27665e-08
-2.05079e-08
7.5568e-09
-3.18259e-08
2.82098e-08
2.33405e-09
-1.44975e-08
1.59642e-08
-2.4332e-08
3.42228e-08
-7.75753e-09
-7.01706e-09
-4.02869e-09
1.88032e-08
-1.4584e-08
-1.76687e-08
2.44952e-08
-2.5844e-08
9.45078e-09
-1.54327e-08
-1.67496e-08
-2.15881e-08
1.40057e-08
-2.97658e-10
1.47418e-08
-1.92966e-08
4.85244e-09
-2.24809e-08
5.43368e-09
-1.59868e-08
6.84092e-09
2.1288e-09
1.8657e-08
-1.01338e-08
-2.451e-08
-8.50718e-09
-8.69232e-09
-4.38857e-09
-1.21168e-08
-2.22343e-08
-1.62989e-08
1.65432e-08
-8.82478e-09
-5.1464e-09
-5.32546e-09
-1.77448e-08
-1.35609e-08
2.1297e-08
-7.7864e-09
1.1839e-08
1.37856e-08
-3.19555e-08
8.03621e-09
-1.26516e-08
1.82813e-09
-3.76129e-09
8.46966e-09
-6.53652e-09
-3.25729e-09
7.6471e-09
-2.56169e-09
5.38786e-09
-9.45543e-09
1.57166e-09
2.4959e-09
-2.41331e-09
1.39809e-09
6.40308e-09
6.68294e-09
-5.5761e-10
-5.49547e-09
-6.29865e-10
-8.5912e-10
5.12875e-09
5.68982e-09
-1.46333e-09
-1.48847e-09
-2.73803e-09
9.27218e-10
3.90347e-09
-3.52e-10
3.30372e-09
-6.71302e-09
2.96739e-09
-6.57668e-09
1.15293e-08
1.5471e-09
-5.4293e-09
-1.54338e-09
7.04767e-09
6.05327e-09
1.09418e-08
-2.49605e-09
4.13099e-09
4.54916e-09
-5.71277e-09
-2.25654e-09
7.93463e-09
8.21106e-09
-5.12523e-09
6.26109e-09
2.87717e-09
-3.68022e-09
1.23173e-09
-7.55226e-09
-8.79995e-09
1.51206e-08
-1.11969e-08
-1.15429e-08
2.39715e-08
1.0125e-08
9.11674e-10
-1.93749e-08
8.33826e-09
-1.28037e-08
1.17318e-08
5.83887e-09
-2.10108e-08
7.61969e-09
-2.11665e-08
1.54625e-08
-7.22292e-09
-2.54013e-08
2.38243e-08
-1.12412e-08
4.92993e-09
6.46595e-09
-2.0189e-08
9.194e-10
-2.18332e-08
7.13269e-09
-1.76122e-08
5.74343e-09
-8.32026e-09
-6.75527e-09
1.30433e-08
-2.39002e-08
-1.997e-08
-2.09746e-08
1.55433e-08
-2.27761e-08
-8.43508e-09
1.8425e-08
1.3393e-08
-3.85733e-08
1.06214e-08
-1.49725e-08
2.96089e-08
1.46782e-08
-3.0894e-08
6.8818e-10
7.94607e-09
1.85483e-09
-1.06447e-08
-3.01008e-09
2.89514e-08
-1.24183e-08
8.6288e-09
-6.07819e-09
2.18662e-08
-1.46059e-08
-1.18207e-09
-3.05215e-09
1.68447e-08
-1.98708e-08
-1.66739e-08
1.07794e-09
2.3928e-08
-8.33207e-09
-1.16878e-08
-9.01479e-09
1.26838e-08
-2.06929e-08
4.95688e-09
1.31036e-09
1.82117e-08
2.34408e-09
3.57107e-09
5.17706e-09
-1.25243e-08
6.37301e-09
9.74212e-10
-1.17795e-08
1.80345e-08
6.56803e-09
-5.572e-09
-1.8696e-08
-6.44775e-09
1.33642e-08
7.08834e-10
-1.28368e-08
1.18795e-08
7.35509e-09
-2.56823e-08
1.75669e-08
-1.00115e-08
-9.11767e-09
1.34479e-08
5.6812e-09
1.60764e-09
-4.24224e-09
-7.37685e-09
3.97292e-09
1.48356e-08
-1.19061e-08
-6.90246e-09
9.83447e-09
-4.25392e-09
-7.72783e-09
1.13574e-08
6.20494e-09
8.41673e-09
-1.30894e-09
9.38959e-09
-7.99678e-09
-1.05105e-08
3.25837e-09
1.60009e-09
6.49891e-09
-1.04001e-08
-2.19329e-08
1.27935e-08
1.95396e-08
-1.8503e-08
1.94225e-09
6.16062e-09
7.08345e-10
-1.32517e-08
-7.20086e-09
-1.05938e-08
1.12838e-08
-1.5888e-08
6.5465e-09
-4.8286e-09
8.97279e-10
1.52151e-08
-1.14161e-08
9.84582e-09
-2.33632e-09
-6.63e-10
5.20659e-09
9.84142e-09
1.88974e-08
1.47397e-08
-1.41112e-08
-7.8293e-09
-3.48466e-09
1.19957e-08
1.01104e-08
-8.33272e-09
-1.37734e-08
1.61881e-08
-6.2177e-09
2.02529e-09
-1.31616e-08
1.93386e-09
1.0388e-08
-5.94505e-09
4.27613e-09
1.38458e-08
9.18065e-09
-1.49859e-10
-1.52485e-08
1.30424e-08
1.52973e-08
-1.6986e-08
-1.13537e-08
-1.70878e-08
3.85362e-09
1.75103e-08
-1.02676e-08
2.36053e-09
1.61201e-09
1.89699e-08
-1.52845e-08
-1.61844e-08
2.165e-08
5.4873e-09
-9.67788e-09
-1.0671e-08
-6.78782e-10
1.92085e-08
1.73899e-08
2.82586e-09
-4.91841e-09
-1.29709e-08
4.18276e-09
-7.39624e-09
-5.84865e-09
6.45391e-09
3.94515e-09
-2.46826e-09
-1.51951e-09
5.05621e-09
-5.55484e-09
2.0181e-09
6.91393e-09
-1.97953e-09
1.47801e-08
-2.81e-09
8.00921e-09
-2.28813e-09
1.81418e-09
6.89317e-09
1.99855e-09
4.30211e-09
1.71183e-08
3.41362e-09
6.59414e-09
-1.14769e-08
1.8772e-09
9.75804e-09
-1.58372e-10
-8.68901e-09
1.20217e-08
-1.48095e-08
2.3049e-09
-1.38074e-08
-1.3675e-09
-1.20157e-08
-2.68061e-09
1.5962e-08
-1.22645e-08
1.5048e-08
-1.47991e-08
-1.21437e-08
1.58456e-08
-1.39698e-09
-1.22657e-08
1.14623e-08
-6.34969e-09
-1.81805e-08
-1.56306e-08
1.57363e-08
-4.75475e-09
4.64906e-09
-2.79864e-09
-3.84832e-10
-1.24472e-08
5.07303e-10
-6.1118e-09
1.21864e-09
4.38584e-09
-9.62199e-09
7.28325e-09
2.84603e-09
6.73195e-09
-6.17666e-10
9.18909e-09
-2.04477e-09
-9.94296e-09
-1.67746e-09
1.37114e-09
-2.49692e-09
-6.76093e-09
7.8867e-09
-8.12056e-09
1.07023e-08
-1.21063e-09
-1.67268e-08
1.05318e-08
1.2927e-08
-3.5285e-09
-1.35832e-08
-5.77792e-09
4.49965e-09
4.29756e-09
-1.26438e-08
2.25639e-10
-5.17839e-09
2.71503e-09
1.10423e-08
3.39142e-09
-3.69326e-10
-1.40644e-08
9.23819e-09
2.36136e-09
-5.57281e-10
-8.63814e-09
-2.31818e-09
-9.99171e-09
6.58613e-09
-1.01288e-08
-8.23318e-09
1.9564e-09
-1.06473e-08
4.70716e-09
-9.21986e-09
3.6514e-09
8.61297e-10
4.93636e-09
-6.53939e-09
6.31021e-09
-9.68698e-10
-5.14313e-10
6.41938e-09
-6.2067e-10
-6.38134e-09
6.03332e-09
-4.01412e-09
3.42052e-09
-2.9065e-09
3.50012e-09
-3.10378e-10
-3.67789e-09
-2.58341e-11
8.49173e-10
-4.59766e-09
3.12784e-09
3.75538e-09
6.74962e-09
-5.90617e-09
-1.00633e-08
-8.31485e-10
1.04174e-09
-6.1273e-09
3.39737e-09
-9.20157e-09
-1.48772e-09
4.56202e-09
1.71269e-09
-1.25466e-09
-9.65957e-09
8.3372e-09
-1.89505e-10
-6.435e-09
4.44483e-09
2.40466e-09
-3.37677e-09
3.22395e-09
-3.59926e-09
-8.78749e-11
-4.56058e-09
8.22607e-10
-4.27651e-09
-3.96195e-09
6.7154e-10
-7.83237e-09
-8.54542e-10
-2.93422e-09
-4.45951e-09
1.02451e-08
-6.41318e-09
2.90081e-09
-6.73273e-09
-3.19443e-09
1.34921e-09
7.03878e-09
-1.21933e-08
6.63911e-09
-2.79477e-09
-6.65319e-09
-5.39151e-10
-6.05619e-09
-8.71656e-09
-1.53764e-08
-1.21542e-08
-1.1572e-08
8.74041e-09
-6.02944e-09
1.07274e-08
-1.34383e-08
1.02571e-08
-3.18813e-11
-1.48479e-09
1.12836e-09
7.03909e-10
-7.86169e-09
8.3003e-10
6.13849e-09
-5.84015e-09
-9.75595e-10
-4.66049e-09
6.46613e-09
6.07169e-09
-6.34337e-09
-1.06714e-08
1.23674e-08
8.56106e-09
5.48289e-09
-5.42689e-09
-4.57872e-09
-2.62179e-10
4.19971e-10
4.42093e-09
-1.78254e-09
-2.76962e-09
-2.65535e-11
6.19195e-09
-7.73203e-10
7.19756e-10
5.93268e-09
5.22447e-09
-5.08545e-09
6.89908e-09
-9.98288e-10
-1.20382e-08
-2.96669e-10
-3.12189e-10
1.26471e-08
-3.63404e-10
-3.79343e-09
-5.42991e-11
3.58555e-09
-5.28514e-09
-2.90833e-10
-5.81656e-09
5.93986e-09
-2.17479e-09
-6.41139e-09
-1.40208e-09
-4.18629e-09
3.03238e-10
-3.76082e-09
6.94543e-09
3.71447e-09
6.15733e-11
-3.23019e-10
1.23783e-08
6.56812e-09
-1.35702e-08
3.80247e-09
1.47182e-08
-4.95041e-09
-9.3235e-09
-1.15782e-08
7.33149e-09
1.62352e-08
-9.67957e-09
-1.0631e-08
4.07542e-09
2.7593e-09
1.24088e-08
1.06705e-09
1.43997e-08
3.60937e-09
-4.66952e-09
-1.33396e-08
-9.92321e-09
9.79608e-09
1.45268e-08
-8.29065e-10
-5.48479e-09
4.55333e-09
-7.74255e-10
-1.08753e-08
7.09624e-09
-1.51691e-09
-1.24761e-08
-9.59404e-09
3.47592e-09
8.8774e-09
2.94437e-09
-1.22015e-08
-3.36951e-10
-7.89271e-09
1.84867e-09
-3.63554e-09
-7.8069e-10
1.43792e-08
8.73865e-09
-8.19434e-09
2.40005e-09
1.14339e-08
-4.47008e-09
-1.51517e-08
8.89261e-09
3.29644e-09
-1.27061e-08
-8.63953e-09
-1.71326e-09
-9.81318e-09
-5.36138e-09
3.98778e-10
2.71267e-09
5.13979e-09
-5.74288e-09
-4.75828e-09
8.39678e-09
-7.50034e-09
-8.63598e-09
7.73954e-09
5.75551e-09
3.04005e-09
-4.23549e-09
3.28265e-09
3.66551e-09
1.20281e-09
-2.98506e-10
4.09169e-09
9.43266e-09
-7.76883e-09
6.33696e-09
6.41388e-09
-2.12505e-09
-1.06258e-08
-4.61458e-09
3.23935e-09
4.65788e-09
-3.34724e-09
-6.45233e-11
1.00188e-09
-9.591e-09
2.84623e-09
4.06945e-09
-1.05679e-08
-1.95049e-09
-3.55066e-09
5.30451e-09
1.96627e-10
1.39709e-10
1.02889e-08
1.73856e-09
-4.96205e-09
-1.2376e-10
3.39195e-09
-6.01628e-09
6.32686e-09
-3.70253e-09
5.1381e-09
-7.59906e-12
1.4958e-10
-3.63909e-09
7.55897e-09
-2.67802e-09
-3.18869e-09
-5.32448e-09
8.70353e-09
-4.75669e-09
4.5703e-09
4.72262e-10
1.09792e-09
-2.9329e-09
-8.89491e-09
7.929e-09
3.89881e-09
-1.08821e-08
7.49034e-09
4.58816e-10
-6.71884e-09
1.84929e-09
5.27728e-09
-4.07736e-10
-7.69892e-09
-2.79995e-09
3.78003e-09
-3.69152e-09
-6.65359e-09
7.1884e-09
3.15671e-09
-5.9209e-09
2.33878e-09
-1.09411e-10
4.67178e-09
-6.67706e-09
-3.91562e-09
-1.62935e-09
-3.52462e-10
-1.31513e-08
1.0586e-09
3.19778e-09
-2.0992e-09
4.33271e-09
-1.53848e-08
9.20345e-09
1.98809e-09
-1.32907e-08
9.19588e-09
-1.62179e-09
1.06308e-09
-7.61243e-09
-2.3894e-09
-5.31048e-11
1.03715e-08
6.95024e-09
-2.35996e-09
-4.27587e-09
1.93013e-09
6.43631e-09
-1.17803e-09
-7.04893e-09
6.86763e-09
3.38685e-09
8.74465e-09
-3.09272e-09
-1.28871e-08
2.81419e-09
1.31656e-08
-6.06453e-10
-1.08774e-08
8.39109e-09
-3.07537e-09
-1.55322e-08
-7.24708e-11
1.868e-08
-2.57361e-09
-8.18995e-09
7.68818e-09
-1.04542e-08
7.27412e-09
-8.94589e-09
-2.11781e-09
1.86311e-10
-4.49172e-09
-1.06905e-08
2.29513e-09
-1.17525e-08
-1.68511e-09
6.92274e-09
-9.37915e-09
-5.73353e-09
-6.4629e-09
-2.14657e-09
-1.49012e-08
1.76429e-08
-1.02959e-08
-2.2761e-09
1.29258e-09
-7.1925e-10
-1.12639e-08
6.04543e-10
-1.10645e-08
-1.10469e-08
-1.03172e-08
-7.41059e-10
-8.95028e-09
6.32524e-10
-1.23987e-08
-9.48768e-09
-1.61913e-08
1.49595e-10
-2.76177e-09
1.88035e-08
2.45672e-08
-4.0763e-09
1.65182e-08
-3.70091e-08
-1.86489e-08
2.70248e-08
6.81372e-09
1.31938e-08
-3.21243e-08
-1.18987e-08
1.43239e-08
2.64404e-08
-1.14796e-08
-2.72821e-08
1.23212e-08
2.82639e-08
-9.70628e-09
7.88278e-09
2.28807e-08
-3.84365e-08
2.70046e-08
-3.9744e-09
-9.22946e-09
-1.48646e-08
-7.8615e-09
-2.45236e-08
3.18124e-08
-1.11202e-09
2.49492e-08
3.16749e-09
2.50941e-08
2.0578e-09
8.28516e-09
3.02806e-09
1.37809e-08
2.13356e-08
1.80286e-08
-2.76521e-08
-5.34682e-09
9.41281e-09
3.45272e-09
-7.51873e-09
-8.07287e-09
2.65274e-09
7.32838e-11
2.57571e-09
-4.69235e-09
-5.95624e-09
4.51979e-09
9.522e-09
-4.62899e-09
-2.16296e-09
3.52242e-10
4.3864e-09
6.35632e-09
-1.29377e-08
1.96441e-09
4.61692e-09
-5.91855e-09
-1.06233e-08
6.59274e-09
9.9491e-09
1.68257e-09
1.59343e-08
-7.2034e-09
-1.04134e-08
-8.07149e-09
1.42739e-08
1.87259e-10
-5.44139e-09
-9.52882e-09
1.4783e-08
-4.65074e-09
8.96787e-09
-1.28598e-08
8.54264e-09
2.50378e-09
-1.15864e-08
4.43186e-09
-6.32107e-09
8.87226e-09
-1.06227e-08
2.36131e-08
-1.4458e-08
9.30518e-09
7.9869e-09
-8.85616e-09
7.87602e-09
-1.62308e-10
2.13414e-10
-7.92713e-09
-6.65619e-10
7.58512e-09
9.56516e-10
-7.73849e-09
6.39807e-09
6.74802e-10
-1.19134e-10
-7.78167e-09
5.92124e-09
6.16642e-11
-5.7695e-09
5.02212e-09
6.74461e-10
2.2466e-10
5.89714e-09
6.71009e-09
6.3587e-09
7.23544e-11
-6.55019e-09
6.83303e-09
5.92374e-09
-4.2353e-09
4.20929e-09
7.0047e-10
-1.14011e-10
-4.05963e-09
1.87827e-10
4.85693e-09
-4.9724e-09
4.70216e-09
-4.62834e-09
-1.85217e-09
4.90565e-09
1.80345e-09
2.84399e-09
5.99683e-12
2.48682e-09
3.94333e-09
-2.22086e-09
5.2134e-09
1.17413e-10
-3.9487e-10
2.42958e-10
5.3653e-09
-1.38736e-10
3.68719e-09
5.01799e-10
5.25659e-09
1.72903e-10
7.16193e-09
5.32151e-09
1.31123e-09
4.33259e-10
-9.30045e-09
7.55596e-09
4.1287e-10
-5.81467e-09
3.83372e-09
-6.6593e-09
-1.0149e-08
1.29746e-08
-2.07844e-09
-1.2477e-09
7.15986e-09
4.29679e-09
-4.85608e-09
3.78694e-09
-3.22766e-09
3.1716e-10
3.86079e-09
1.1884e-10
9.03924e-10
5.29093e-09
-5.76159e-09
-3.53928e-09
4.39069e-09
5.5651e-09
-4.66487e-09
4.55284e-09
1.5501e-10
2.59138e-10
-1.5243e-10
4.04304e-09
7.68864e-11
3.8713e-09
-3.84643e-10
5.22321e-09
3.20094e-09
-7.89445e-10
4.20262e-09
4.70367e-09
-2.69914e-10
4.09606e-09
9.41609e-11
-1.05471e-08
6.35689e-09
2.62975e-09
-5.1777e-09
6.64402e-09
3.18363e-10
6.83874e-09
-4.52736e-09
5.57949e-09
-1.40248e-08
3.47059e-09
-1.01324e-08
1.22413e-08
-6.41711e-09
1.02061e-08
1.72845e-08
-5.35851e-09
-5.00815e-10
-1.14251e-08
4.35968e-09
2.79237e-09
1.94584e-10
-8.60441e-09
-2.13729e-09
-4.12254e-09
-8.60574e-10
-1.07092e-08
2.08062e-09
4.506e-09
4.5368e-09
-5.33866e-09
-6.3588e-09
7.16067e-09
-3.31732e-09
-2.85503e-09
3.9951e-09
5.83192e-10
-9.91695e-09
7.87161e-09
-9.23502e-09
-4.84353e-09
-9.68204e-09
-7.67394e-09
1.7397e-09
-4.82859e-10
4.55734e-09
3.34328e-09
-6.07741e-09
-1.01047e-08
2.88842e-09
7.15179e-09
-3.36139e-09
-1.13248e-09
3.96772e-09
5.31871e-11
-1.2627e-09
-3.90402e-09
1.33672e-09
3.83001e-09
6.54494e-10
4.19835e-09
-6.11553e-09
-2.63505e-09
-1.28358e-09
1.46185e-11
-6.419e-12
-2.98512e-09
2.05207e-10
-9.76853e-09
1.25484e-08
-9.908e-09
7.57738e-09
-5.03653e-09
4.64357e-09
4.36068e-09
3.36257e-10
1.77902e-09
6.18549e-09
-5.0494e-09
-1.23534e-09
6.41382e-09
-1.2908e-10
-4.58026e-09
4.11665e-09
-6.12131e-09
-8.03314e-09
4.38593e-09
-6.12014e-09
-9.90916e-09
2.99806e-09
3.57861e-09
1.32381e-08
-8.12156e-09
-8.69517e-09
1.0678e-08
-1.32845e-09
-5.77087e-09
1.38942e-08
1.20284e-08
-1.52446e-08
-2.76935e-09
7.03899e-09
9.62459e-09
4.10071e-09
5.15834e-09
1.29689e-08
-1.05027e-08
-5.47625e-09
8.99425e-09
5.1633e-09
-1.67612e-08
5.26101e-09
-9.10938e-09
2.06096e-08
-1.48119e-08
6.38902e-09
5.37096e-09
1.06623e-08
2.23638e-08
6.4108e-09
-8.25386e-09
1.40213e-09
-2.24784e-08
8.33241e-09
-1.42848e-09
-5.08926e-10
-1.11151e-08
-1.08544e-08
2.30065e-08
-1.15444e-08
-1.1971e-08
6.9515e-09
3.07277e-08
2.96359e-09
-2.11615e-08
-1.25298e-08
-2.04479e-08
5.75237e-09
1.3267e-08
-1.77529e-08
-1.38101e-08
-1.53937e-08
-4.76206e-09
-1.34211e-08
-3.9199e-08
1.98764e-08
1.36463e-08
5.67628e-09
-7.13068e-09
-1.36356e-08
-1.04696e-08
9.09129e-09
-7.82271e-09
3.43297e-09
-9.2458e-09
-1.0041e-09
-1.72882e-08
3.09416e-09
2.75174e-09
-7.57058e-09
1.7247e-09
5.49148e-09
-1.25061e-09
-1.14671e-09
-3.62192e-09
4.42216e-09
6.10083e-09
-6.90106e-09
4.32002e-10
-5.46224e-09
1.40832e-09
6.35243e-09
-8.6461e-09
5.04541e-09
6.69353e-09
-5.57399e-09
4.37194e-09
2.25349e-09
8.86222e-09
-8.80947e-10
3.63232e-09
3.60105e-09
2.91063e-09
1.55421e-09
-5.34579e-09
9.33648e-09
-4.17235e-09
-2.28956e-10
-2.36764e-09
-9.63588e-09
-2.16648e-09
1.05707e-08
-8.63318e-09
-2.16071e-09
8.59143e-09
-8.79833e-09
-1.9166e-10
6.06343e-09
-8.03246e-09
1.56913e-09
4.95127e-09
-6.71204e-09
5.89767e-09
-6.49502e-09
5.8392e-10
1.97482e-09
-8.78276e-10
1.02609e-10
5.79246e-09
-6.07285e-10
1.63995e-09
-1.36838e-09
-3.38845e-09
2.30348e-10
1.56824e-09
-5.41476e-12
3.09584e-09
5.65045e-09
-2.8486e-09
4.63603e-09
2.80574e-11
4.99565e-09
1.23872e-09
3.94102e-10
7.59361e-09
-2.97999e-09
-5.00773e-09
7.13094e-09
-2.48941e-09
-4.24743e-09
-1.52013e-10
-7.36274e-09
5.62506e-09
1.88967e-09
-5.09202e-09
3.98005e-09
9.59953e-10
4.17235e-09
2.19839e-09
1.22286e-09
6.21127e-09
-2.03718e-09
5.51112e-09
-6.45394e-09
7.10999e-09
3.96416e-09
-1.31113e-08
6.23631e-09
1.11526e-08
-1.02789e-08
8.19214e-09
-6.7174e-09
8.9977e-10
-7.03644e-11
-1.74537e-11
-4.30177e-09
8.29927e-09
-5.92868e-09
1.15363e-08
1.75865e-09
9.19318e-09
-5.44072e-09
1.34802e-08
-5.48521e-09
-4.98262e-09
2.87923e-09
-1.45408e-09
5.66462e-09
5.92188e-09
6.10421e-09
1.08953e-08
1.15709e-09
1.08885e-08
-6.16344e-09
1.34796e-08
-6.25307e-09
-6.00483e-09
-1.33531e-09
1.1767e-09
-5.78315e-09
-9.41617e-09
8.03279e-09
7.16651e-09
-2.3183e-11
-5.48279e-09
-2.77189e-10
-1.29571e-09
7.16799e-09
-1.18771e-08
1.79452e-08
-6.49858e-09
-9.05724e-09
-2.38943e-09
8.08123e-09
-6.55331e-09
-4.58064e-10
-4.71149e-10
9.39842e-09
-1.4191e-08
-1.70605e-09
-6.77062e-09
-7.37317e-10
-6.94481e-09
8.63863e-09
-7.50249e-09
7.43997e-09
8.13229e-09
1.12377e-08
-1.12907e-08
-8.07932e-09
1.11182e-08
-3.24795e-09
2.61988e-10
5.95463e-09
2.41584e-09
2.86723e-09
9.2912e-09
-1.0056e-08
4.96939e-09
1.34397e-08
-1.61407e-08
1.19181e-08
-7.62755e-09
-3.58172e-09
1.83375e-08
-3.62413e-09
9.31762e-09
2.29728e-09
-7.99078e-09
-1.72787e-11
-1.48975e-08
6.77914e-09
-7.0948e-10
2.71612e-09
-1.14727e-08
8.73933e-09
1.15995e-08
-4.19762e-09
3.04962e-09
1.70003e-08
-1.03542e-08
5.26933e-09
-1.19154e-08
4.87131e-09
1.06939e-08
1.43513e-09
-5.93432e-09
1.34396e-08
-1.88042e-08
1.1299e-08
1.26889e-08
7.03558e-09
-2.56589e-08
1.45579e-08
-6.83692e-09
-1.80752e-08
1.45474e-08
4.88176e-09
1.12837e-08
-9.99605e-10
-5.01478e-09
1.42486e-08
7.72893e-09
-7.58336e-09
-1.07512e-08
-2.23566e-10
1.85582e-08
-2.63795e-09
8.49423e-09
6.42397e-09
5.18673e-09
-1.81792e-08
7.23846e-09
1.73647e-08
-1.07868e-08
1.27245e-08
-8.05972e-09
-1.17441e-08
-9.18826e-09
2.85677e-09
1.6853e-08
-1.05214e-08
1.01368e-09
-1.70389e-08
-4.03216e-09
4.00406e-10
-1.00007e-08
1.70156e-08
9.81167e-09
-1.84938e-08
9.6958e-09
2.39854e-08
-1.13169e-08
1.52288e-08
-2.40804e-09
3.49438e-09
9.70414e-09
8.72249e-09
1.66477e-09
1.0712e-09
1.40653e-08
-1.68013e-08
2.95692e-09
1.70138e-08
-1.8306e-08
3.24504e-09
1.86152e-08
-2.07891e-08
1.90769e-08
1.09458e-09
-1.69265e-08
-1.47414e-08
3.04682e-08
-1.33213e-08
-2.40557e-09
1.94729e-08
-1.51374e-08
1.98184e-08
-1.57668e-08
-7.64007e-09
2.86258e-08
2.65981e-08
-1.72243e-08
2.02035e-08
1.66812e-08
-1.02867e-08
-3.92732e-09
1.19736e-08
1.21573e-08
-1.65712e-08
-7.19276e-10
3.2619e-09
1.40286e-08
-1.7397e-08
1.9441e-08
1.45484e-08
4.2053e-09
1.69953e-08
2.80213e-08
1.5974e-08
-9.4769e-09
1.14038e-08
3.2361e-08
2.94133e-10
1.26958e-08
3.16389e-08
-7.31801e-09
-4.83403e-09
-3.2691e-09
3.85569e-09
3.78666e-11
-4.70262e-09
-1.69298e-10
-4.69654e-09
-4.56499e-09
4.2538e-09
-4.4717e-09
-1.86982e-10
-4.95641e-09
4.9124e-10
1.19605e-09
-5.5076e-09
-4.15143e-09
-9.10354e-09
5.77548e-10
3.961e-09
-2.04588e-09
-6.76179e-10
-6.3815e-09
-2.35924e-09
-4.15835e-09
1.1463e-08
-3.26178e-09
5.5866e-09
-3.1676e-10
-7.55009e-09
2.19284e-09
6.02255e-09
-8.53217e-09
1.13399e-08
-8.27659e-09
2.05042e-09
-2.17443e-09
-7.96199e-11
-3.94591e-09
-1.55129e-09
-3.33672e-09
3.38393e-11
-4.77804e-09
3.40902e-09
-1.82261e-10
4.53949e-09
-4.4239e-09
-1.413e-10
2.57142e-11
3.85662e-10
4.23793e-09
-8.41142e-11
-3.76384e-09
4.2118e-09
-6.23103e-11
4.73995e-09
-5.03674e-09
7.44415e-11
2.2237e-10
-1.0588e-09
4.30516e-09
-3.12653e-09
-1.19836e-10
3.85113e-09
-1.69965e-10
-4.47534e-11
3.90519e-09
-9.29463e-12
-5.15604e-09
-4.6706e-11
2.82243e-11
-1.0538e-09
-4.2639e-09
1.61681e-10
-5.05503e-09
2.74079e-11
-2.97868e-09
4.58768e-09
-1.55026e-09
-5.87309e-11
1.57887e-09
-4.4383e-09
-1.19242e-10
-2.67818e-09
4.23286e-09
2.41987e-11
-4.31176e-09
1.71882e-09
-8.52382e-11
8.79545e-10
4.29288e-09
-4.99631e-09
-1.76091e-10
-3.41779e-09
4.42584e-09
-1.28488e-10
1.7943e-09
-4.96618e-09
-2.45856e-10
3.34548e-09
-1.50296e-10
-3.2159e-09
2.07373e-11
-2.40738e-11
3.38604e-09
-1.64669e-11
2.61009e-09
-2.61365e-09
-2.05064e-11
4.19189e-09
-1.64746e-09
6.56495e-11
2.33548e-09
-6.51634e-09
4.37915e-09
-1.98314e-10
-2.51341e-09
4.8655e-09
-1.66161e-11
3.55705e-09
-5.83855e-09
-2.31902e-10
-1.67579e-09
5.21572e-09
1.71272e-11
-2.34712e-10
-4.23376e-09
4.43745e-09
3.10285e-11
-5.16608e-09
4.92879e-09
2.56899e-12
-4.11116e-09
-1.21778e-09
1.62849e-10
-1.60619e-09
5.01613e-09
-3.36512e-09
-4.48072e-11
-5.06021e-09
-2.48508e-10
3.83411e-09
2.19573e-09
-5.88051e-09
-1.49346e-10
-2.30075e-09
6.02612e-09
1.08738e-10
4.01269e-09
-6.23007e-09
-8.33542e-11
2.26594e-10
3.28862e-09
-3.5099e-09
-5.29264e-12
-3.3418e-09
3.50984e-09
5.85622e-11
-3.64765e-09
2.77973e-10
2.78917e-11
-1.88251e-10
4.12488e-09
-3.04625e-09
-8.90389e-10
3.88524e-09
-3.23557e-09
-8.37931e-10
5.65846e-10
4.05273e-09
-4.55266e-09
-6.59112e-11
-4.81764e-09
3.89917e-11
-2.70798e-10
4.34048e-09
-1.69387e-11
-3.80753e-10
5.09527e-09
-4.66484e-09
-4.96805e-11
-5.29589e-09
5.02156e-09
-1.06436e-10
-3.435e-09
5.14842e-09
-1.87474e-09
1.6133e-10
1.68079e-09
-5.05258e-09
-6.32003e-11
5.08269e-09
-3.49613e-09
9.42304e-11
2.53424e-09
-4.41053e-09
1.96609e-09
-8.97689e-11
-1.89633e-09
4.29212e-09
1.38469e-10
2.5506e-09
-4.47274e-09
2.58034e-11
-2.34068e-09
4.77919e-09
1.12091e-10
2.51938e-10
-4.19174e-09
-2.21235e-11
4.29418e-09
-4.03983e-09
-2.38636e-12
-2.68981e-10
-3.89489e-09
4.14378e-09
2.00974e-11
3.88998e-09
-4.1601e-09
1.1419e-12
4.74287e-10
-4.3608e-09
-8.36706e-12
1.8597e-09
3.08609e-09
-4.79876e-09
-1.47032e-10
-2.94805e-09
4.77568e-09
3.20786e-11
1.82737e-09
-4.78809e-09
1.26745e-11
1.57786e-09
2.68593e-09
-4.20738e-09
-5.6422e-11
4.75938e-09
-3.24004e-09
5.85176e-11
-2.0766e-09
4.67442e-09
8.80938e-11
1.33376e-09
3.74783e-09
-5.0774e-09
-4.18169e-12
4.97398e-09
7.42551e-11
-1.63932e-09
5.28105e-09
1.06113e-10
3.44876e-10
2.96876e-09
-1.12696e-10
-2.0147e-09
2.40772e-09
-4.81502e-11
-3.33807e-09
1.45636e-09
-1.32989e-10
-1.33566e-09
5.01696e-09
-3.68348e-09
2.17795e-12
-5.68449e-09
4.53207e-09
-1.83256e-10
4.27548e-09
-5.13621e-09
2.06317e-10
6.54422e-10
4.09754e-09
-4.15813e-09
6.93713e-11
-8.78576e-12
4.02332e-10
3.6936e-09
1.61032e-12
4.13443e-09
-3.7915e-09
5.93883e-11
2.73387e-10
3.87625e-09
-1.52156e-11
1.14782e-09
3.42209e-09
-4.41722e-09
-1.52673e-10
-8.09024e-11
4.993e-09
-1.56048e-09
-1.04217e-11
1.04596e-09
2.72678e-09
-3.37355e-09
-3.99177e-10
4.17405e-09
-2.64208e-09
-4.85999e-10
5.0824e-09
-2.49543e-09
1.39799e-10
-1.8571e-09
-3.10373e-09
4.8886e-09
7.22328e-11
3.22124e-09
-5.0849e-09
6.56141e-12
-1.51611e-09
4.54495e-09
1.92399e-10
3.26039e-09
-4.80874e-09
3.22283e-11
4.33432e-09
-6.41645e-09
2.17185e-09
-8.9726e-11
-1.30605e-09
5.63866e-09
1.71078e-12
3.86713e-09
-5.02595e-09
-1.47232e-10
5.73225e-09
-1.90325e-09
3.81175e-11
-1.37088e-09
-3.43386e-09
4.85275e-09
-4.80061e-11
3.80718e-09
-4.90734e-09
-2.70728e-10
1.64746e-09
2.97104e-09
-4.4836e-09
-1.34915e-10
4.71568e-09
-3.08234e-09
1.41117e-11
7.01376e-11
-5.09175e-09
4.99589e-09
2.57291e-11
-4.7511e-09
4.80741e-09
1.38418e-11
-1.60781e-09
4.84177e-09
-3.4694e-09
2.35451e-10
-5.16791e-09
1.06282e-10
-1.54785e-10
-3.29512e-09
3.45706e-09
-7.19201e-12
-3.53428e-09
3.42589e-09
-4.64283e-11
4.31816e-10
-3.76344e-09
3.65067e-11
-1.44582e-10
-4.09195e-09
4.23844e-09
-1.90267e-12
4.08446e-09
-4.226e-09
-3.03738e-12
3.31333e-09
1.7308e-09
-4.89326e-09
-1.50862e-10
-3.51125e-10