/*--------------------------------*- C++ -*----------------------------------*\
| =========                 |                                                 |
| \\      /  F ield         | OpenFOAM: The Open Source CFD Toolbox           |
|  \\    /   O peration     | Version:  v1612+                                |
|   \\  /    A nd           | Web:      www.OpenFOAM.com                      |
|    \\/     M anipulation  |                                                 |
\*---------------------------------------------------------------------------*/
FoamFile
{
    version     2.0;
    format      ascii;
    class       surfaceScalarField;
    location    "200";
    object      phi;
}
// * * * * * * * * * * * * * * * * * * * * * * * * * * * * * * * * * * * * * //

dimensions      [0 3 -1 0 0 0 0];

internalField   nonuniform List<scalar> 
41187
(
1.45965e-08
-3.00098e-09
-2.03364e-08
8.74071e-09
1.70092e-10
-6.47648e-10
4.65536e-10
1.23922e-11
2.16153e-09
-3.80268e-10
-6.68168e-09
4.90005e-09
-5.52135e-10
-1.00937e-09
8.8045e-10
6.81191e-10
5.18055e-09
-1.72884e-10
6.66088e-11
-5.07426e-09
-6.87676e-09
7.01416e-09
7.75315e-09
-7.89046e-09
3.64228e-09
1.96786e-09
6.88695e-09
-1.2497e-08
-5.43194e-09
4.05245e-09
-1.28532e-09
2.66461e-09
-2.6665e-09
5.84821e-11
-2.82403e-09
-1.84384e-09
1.51237e-09
4.38385e-09
4.09157e-09
-1.83174e-09
-4.92666e-09
2.07223e-09
7.3398e-10
5.6114e-09
-2.69098e-09
-2.86206e-09
7.74026e-10
2.9934e-09
-1.72555e-09
2.94499e-09
2.92888e-10
-2.13085e-10
5.59683e-10
-4.24776e-09
-2.90379e-09
5.97276e-09
1.17861e-09
-5.78931e-09
3.84553e-10
1.15688e-09
3.93065e-10
6.84429e-10
-3.76883e-09
6.41418e-09
1.16226e-09
-4.2033e-09
-3.3733e-09
4.28437e-09
-2.55595e-09
1.68666e-09
6.5615e-10
-3.27855e-09
-1.34855e-09
-2.1061e-10
-5.3417e-10
-1.8114e-09
-9.76734e-10
-2.5125e-09
-1.97279e-09
-4.49562e-09
-2.58714e-09
-4.79707e-09
1.94523e-09
5.43903e-09
-4.20062e-10
-2.87198e-09
7.04954e-10
1.93342e-09
-2.90934e-09
5.55951e-10
-4.26503e-09
-1.02281e-09
4.90741e-10
-2.75664e-09
-4.3803e-09
-1.69514e-09
1.30417e-09
8.70096e-09
-8.31e-09
5.4708e-10
4.15622e-09
-7.44644e-10
-3.7035e-09
6.39342e-09
-4.02297e-09
5.21176e-09
1.00414e-09
-3.21374e-09
5.58661e-09
-3.27833e-09
-1.06332e-09
5.71655e-09
4.04772e-09
1.83602e-10
-6.05205e-09
9.94954e-10
1.35361e-09
-1.48828e-09
2.68852e-09
-1.15587e-09
-4.05723e-09
7.17366e-10
-4.08001e-09
-8.44696e-10
-1.08146e-09
-1.86082e-10
-2.78979e-09
-4.23026e-09
-9.31209e-10
5.60676e-10
-2.9706e-09
-1.02698e-10
-1.75723e-09
5.06471e-10
-1.03522e-09
-2.12156e-09
-1.70322e-09
3.50277e-09
-3.77244e-09
7.80098e-10
-3.31893e-09
8.3547e-10
1.53879e-09
-1.76702e-09
-8.07212e-10
5.6165e-10
6.16714e-09
1.89383e-09
-7.88853e-09
-1.724e-10
1.078e-08
-1.22964e-08
7.68348e-09
2.34168e-10
-1.12112e-08
2.56967e-11
1.09514e-08
2.42488e-10
1.07717e-08
-1.68013e-09
-6.52523e-09
-4.09098e-09
-1.37732e-08
-8.47484e-10
3.40945e-09
-6.24918e-09
-9.20414e-09
1.60845e-10
-8.91286e-09
2.74232e-10
-1.40896e-08
-1.43778e-08
-9.63155e-09
7.58109e-09
1.20299e-09
-9.06922e-10
-1.49738e-08
-6.94228e-09
-7.67443e-11
-1.61798e-09
-4.89049e-09
-8.89687e-09
-7.09891e-09
7.15445e-09
-1.25555e-08
4.4941e-09
-8.68469e-09
-3.77734e-09
-2.02638e-09
5.62714e-09
1.76565e-10
5.66197e-09
-4.63393e-09
-4.8054e-09
5.45451e-09
-8.68961e-10
5.38571e-09
-9.97127e-09
3.92862e-09
-5.00512e-10
-3.26447e-09
3.45079e-09
5.44078e-09
1.38955e-09
1.00795e-09
4.87079e-09
-1.03737e-08
-3.0301e-09
-4.52307e-11
7.00398e-09
7.31724e-09
-4.96159e-09
-4.51575e-09
4.73485e-09
1.17041e-09
5.10616e-09
-4.7511e-09
7.24578e-10
4.43071e-09
2.16202e-09
-7.19685e-10
5.68005e-09
-1.50959e-09
-2.04417e-09
6.05934e-09
3.78657e-09
5.87479e-09
6.75639e-09
-5.38081e-09
-7.25024e-09
6.74993e-09
-5.61203e-10
-3.13823e-10
6.57213e-09
-1.34325e-09
1.52757e-09
6.99588e-09
6.32619e-09
-7.11812e-09
6.68102e-09
-1.24083e-10
-1.2712e-09
1.89156e-09
-7.73832e-09
1.4438e-09
-8.0957e-09
-5.75318e-09
3.53064e-10
1.97541e-08
-1.43538e-08
-1.38614e-08
9.55215e-09
1.88689e-10
1.22757e-08
-5.46842e-09
-1.02187e-08
1.24634e-08
1.34458e-08
1.3843e-08
-7.53458e-09
-4.50854e-09
1.25253e-08
-7.82803e-09
5.36198e-09
5.16246e-09
-6.88213e-09
1.09052e-08
8.65676e-09
-2.55829e-09
-3.2847e-11
-6.06564e-09
3.10921e-09
1.02752e-09
4.52004e-09
1.05825e-08
-4.10567e-09
-9.03522e-09
8.11853e-09
-6.07889e-09
8.54288e-09
7.65531e-09
3.5724e-09
6.78461e-09
-1.98267e-09
-4.8348e-09
-7.0783e-09
3.83276e-09
4.27305e-09
2.89069e-09
-3.18439e-09
-7.51419e-09
1.39745e-09
3.77837e-11
-1.09138e-09
-1.05285e-08
1.66972e-09
4.69293e-09
-7.45404e-09
3.30473e-09
-3.61769e-09
-2.7064e-09
3.81609e-09
2.72304e-09
-1.88044e-10
3.72321e-10
1.04671e-09
4.18407e-09
-5.37888e-10
3.67451e-09
6.76915e-10
8.60757e-10
-4.53134e-09
-4.67307e-10
4.13792e-09
-2.92459e-09
3.14066e-09
6.44708e-10
1.05019e-09
5.61879e-10
1.54076e-08
-2.3648e-09
-1.29961e-08
-4.66103e-11
9.23353e-09
-2.12075e-09
8.29498e-09
-1.27566e-08
-2.00917e-09
1.24009e-08
8.75414e-09
-1.23e-08
-9.2108e-09
-5.73985e-09
1.49795e-09
-3.26406e-09
1.10071e-09
-1.01369e-08
1.96609e-09
5.98266e-09
-1.12129e-08
-2.51133e-09
-8.75783e-09
1.12227e-08
-8.71754e-09
-1.61829e-09
7.82469e-09
-7.82494e-09
-2.5488e-10
6.07079e-09
-3.36465e-09
-3.35965e-09
3.3614e-09
-4.7599e-09
5.19126e-09
-4.94849e-09
8.24302e-10
-1.09913e-08
1.40926e-09
-9.25904e-09
1.36581e-09
-6.67968e-09
4.80669e-09
-2.9093e-09
-1.58183e-09
-4.76791e-09
-8.70938e-09
-4.90008e-09
-1.39218e-09
1.00548e-08
-9.89587e-09
1.23324e-09
-8.09099e-09
6.88554e-09
-1.86706e-10
-6.52265e-10
1.09857e-08
2.18308e-09
-1.25165e-08
-3.75505e-10
-1.61293e-10
-9.93255e-09
1.04694e-08
-6.91804e-10
-1.48029e-08
1.51192e-08
7.44036e-10
8.65858e-09
-1.06872e-09
-8.98841e-09
-9.10959e-10
-8.24872e-09
-7.84523e-09
1.19641e-09
7.39287e-09
-1.18171e-09
2.22076e-10
-7.06621e-09
-9.11226e-09
7.99886e-09
8.17966e-09
-8.33261e-09
8.47119e-11
1.10908e-08
7.5486e-11
-1.18581e-08
3.31849e-09
-7.61032e-10
8.5334e-09
5.7672e-09
-8.11839e-09
-5.98139e-09
-2.65569e-11
9.2537e-09
-5.84135e-11
-8.95385e-09
-3.93694e-09
-1.45529e-09
2.08668e-09
3.3052e-09
-1.19401e-09
-2.77225e-09
2.91895e-11
3.43804e-09
-1.14382e-09
-3.48828e-09
3.06966e-09
-2.71875e-09
-3.12333e-09
6.6052e-10
9.53611e-10
1.99784e-10
-4.05731e-09
2.81722e-09
1.04014e-09
2.14753e-09
-2.77353e-09
8.25692e-10
2.66788e-09
-2.47289e-09
3.24306e-09
-5.82619e-10
5.33718e-09
-1.93228e-09
-2.32845e-09
3.67807e-09
8.75744e-10
1.9843e-09
-7.56656e-10
-4.00123e-09
1.11783e-09
-3.19091e-09
-1.54765e-09
2.03637e-09
-4.65807e-09
1.18258e-09
-4.83061e-09
8.09941e-10
-2.11236e-09
-1.60046e-09
3.98188e-09
4.99352e-09
1.32468e-09
-1.03001e-08
8.98623e-09
4.82468e-09
-9.82901e-09
8.14604e-09
4.6882e-09
-7.84073e-09
-5.80424e-10
3.31583e-09
5.41061e-09
-3.41859e-09
3.75065e-09
-5.72074e-09
5.38872e-09
4.9872e-09
7.24733e-09
8.64025e-10
-3.4231e-09
3.01178e-09
7.55138e-09
2.19903e-09
3.93216e-09
-4.80648e-09
8.12392e-09
-1.10018e-09
6.00285e-09
-3.07459e-09
-2.06425e-09
1.36372e-09
7.65091e-09
-2.38395e-09
-6.59955e-09
1.03472e-08
-7.29541e-09
8.66212e-09
6.44784e-09
-4.04463e-09
-5.7149e-10
-5.14776e-09
-8.80273e-10
-1.41905e-09
-4.29017e-09
1.51807e-08
-9.33916e-09
-3.41328e-09
-2.42828e-09
-2.01353e-09
8.84178e-09
8.3525e-09
2.70531e-09
-5.2689e-09
-6.77556e-09
-8.69095e-09
3.71876e-09
2.95867e-09
-2.9305e-09
-3.05513e-09
-2.98369e-09
6.04174e-09
-5.98845e-09
8.18876e-09
3.12138e-09
-1.42937e-08
-1.36994e-08
1.42074e-09
1.09614e-08
1.31762e-09
1.17052e-08
-1.72158e-08
5.14438e-09
1.70437e-08
-1.33462e-08
9.39912e-09
-1.15466e-08
-5.02048e-09
1.10064e-08
6.16063e-09
1.30198e-09
-1.21939e-08
8.79058e-09
1.43649e-08
-1.23766e-09
7.49109e-10
2.09767e-09
7.78184e-09
1.60327e-08
5.60295e-09
9.93083e-09
-2.22827e-08
6.74909e-09
1.74968e-08
-2.47438e-08
1.285e-08
1.06164e-08
-1.06479e-08
1.75283e-08
-1.21914e-09
-3.83488e-09
1.56703e-08
-2.86219e-09
1.15739e-08
1.20616e-08
1.08673e-08
-5.54342e-09
-1.73855e-08
-3.70968e-09
-6.51149e-09
-9.67873e-10
-1.29086e-08
1.08117e-08
-4.48526e-09
-6.12806e-09
-1.98561e-10
-4.57054e-09
1.15472e-08
-1.55393e-08
1.75778e-09
-1.01865e-08
-1.54897e-08
-1.21413e-08
-2.53043e-09
-8.54667e-09
1.1599e-08
-6.76198e-09
2.32159e-09
-1.64118e-08
1.58893e-08
-9.00477e-09
-7.85248e-09
-1.37837e-08
1.26794e-08
-8.86649e-10
-7.33961e-09
-3.13128e-09
-5.01877e-09
-8.45303e-09
-1.10278e-08
-1.51362e-08
-5.31606e-09
-1.91582e-08
1.29682e-08
5.65881e-09
5.30905e-10
-4.11907e-09
-2.09112e-09
-1.29482e-08
1.71878e-08
-2.42941e-08
1.7427e-08
-1.03209e-08
1.7109e-08
1.30469e-08
-2.32652e-09
-2.60869e-08
-5.51551e-09
1.23676e-08
-1.19322e-09
-1.00108e-08
1.2067e-08
-7.57165e-09
-2.37841e-09
-9.72345e-09
5.0352e-09
-3.30353e-09
1.56953e-08
-2.20467e-10
2.23648e-08
1.63727e-10
1.37349e-08
-1.62251e-08
1.46476e-08
-4.31312e-09
1.73263e-09
1.44035e-08
1.26119e-08
-1.53046e-09
3.62755e-09
1.31484e-08
-1.52453e-08
1.15672e-08
-1.3782e-08
9.02668e-09
-7.63875e-09
1.01797e-08
-2.91559e-10
7.78819e-09
1.01398e-08
1.78106e-08
-9.75788e-09
7.99492e-09
1.84429e-09
-8.13602e-11
-2.78903e-09
6.23898e-09
7.594e-09
-1.10439e-08
-9.47635e-09
-6.69977e-09
6.16116e-09
1.0015e-08
-1.09747e-08
2.2101e-09
-7.11695e-10
-1.39856e-08
1.66154e-08
-8.87202e-09
6.24227e-09
-1.3034e-08
6.43428e-09
3.81064e-09
6.31028e-09
1.26922e-09
-1.47787e-08
7.19922e-09
5.29209e-09
-3.05453e-09
4.07276e-09
-5.43762e-09
1.2569e-09
-2.51897e-09
-6.03848e-09
-1.03739e-08
-9.08208e-09
1.37976e-08
1.52351e-09
6.10819e-09
-1.08775e-08
-2.53305e-09
-5.33983e-09
-2.39196e-09
-4.6645e-09
1.23963e-08
-3.72079e-09
-7.05106e-09
5.43199e-09
5.03833e-09
-8.46485e-09
-2.94216e-10
8.71713e-09
1.28165e-10
-7.38481e-09
2.05553e-10
-8.52585e-09
-8.45571e-09
8.51673e-09
-7.11951e-09
1.47884e-09
-2.88524e-09
-7.48587e-09
-4.32948e-09
-1.86529e-09
-1.274e-08
-6.88202e-09
7.02424e-09
-7.27641e-09
5.22534e-10
-4.13706e-09
-1.76892e-09
4.24253e-09
-1.08678e-08
6.42703e-09
8.41246e-09
-1.05969e-08
4.38271e-09
-2.09276e-09
4.69954e-09
-1.18716e-09
1.80584e-09
1.32657e-09
-6.50032e-10
1.04584e-10
-7.8089e-10
1.40105e-09
9.54581e-11
4.92898e-10
-4.66647e-10
-6.757e-10
5.6283e-10
9.82384e-10
-5.79835e-10
-9.6508e-10
8.5057e-10
-1.45525e-09
1.16712e-09
1.93733e-09
2.27784e-09
6.56737e-10
-6.20925e-10
-2.31342e-09
2.68817e-09
-6.21058e-10
2.10843e-10
-6.35033e-10
2.18925e-11
-1.67527e-10
-4.44375e-11
-9.7617e-11
3.28961e-10
-1.37513e-09
2.14069e-09
-1.462e-09
3.37378e-09
2.43273e-10
-5.35265e-10
-4.21781e-10
1.00422e-09
7.59214e-09
-1.04704e-08
1.87406e-09
-2.49701e-09
-4.06455e-09
2.435e-09
4.12658e-09
-3.27371e-09
6.85712e-09
5.76924e-11
-3.64111e-09
-1.09259e-08
3.24247e-09
8.68772e-09
-5.7667e-09
-9.72811e-09
4.56888e-09
-4.7409e-09
2.25286e-09
-7.85627e-10
1.91481e-09
-9.1527e-09
-1.40937e-08
-8.4965e-09
6.88174e-09
1.57085e-08
3.06223e-09
-7.72021e-09
-9.43573e-09
-3.18142e-09
9.98858e-09
1.35667e-10
-1.15721e-08
-2.4753e-10
1.06603e-08
-5.29803e-09
-5.11476e-09
-1.41456e-08
-8.34869e-09
2.22471e-08
-9.50934e-09
-3.31702e-09
-1.3193e-09
8.29798e-09
-5.80604e-09
-1.26396e-08
1.01475e-08
2.2693e-09
3.44723e-09
2.58072e-09
-1.77126e-08
8.1727e-09
3.05318e-11
-5.17686e-09
4.07092e-09
-9.93835e-09
1.10443e-08
1.74044e-08
-1.53144e-08
-5.40695e-09
-7.72015e-09
1.67758e-08
-1.36605e-08
2.67762e-09
-7.56632e-09
-6.07535e-09
-1.05617e-08
5.11085e-09
-1.59057e-08
-9.97034e-09
5.54032e-11
-7.51424e-11
6.67436e-10
-6.4403e-10
1.63188e-11
-1.13455e-10
1.53449e-10
-1.22573e-09
2.75032e-10
8.76706e-10
-5.86153e-10
-6.2266e-10
1.16957e-10
6.80747e-10
-1.28582e-10
1.10385e-10
3.75106e-10
-7.14309e-10
2.30773e-10
7.29433e-10
1.43889e-09
-2.05687e-09
-5.78956e-10
1.33683e-09
-3.81491e-10
1.81217e-09
-1.66093e-09
-9.37426e-10
1.79125e-09
-6.87596e-10
6.55379e-10
1.37154e-09
1.39195e-10
9.87265e-10
2.70534e-10
1.36958e-09
-1.36251e-09
1.04435e-09
1.4073e-08
3.16595e-09
-6.19719e-09
-1.10417e-08
-4.42945e-10
4.79313e-09
9.72305e-09
1.65676e-08
-2.47195e-09
-1.09296e-08
4.37725e-09
1.17475e-08
-1.18803e-08
5.09105e-09
1.15825e-08
-3.99075e-09
-1.40867e-08
1.52645e-08
-5.73574e-09
-1.20006e-08
1.46213e-08
9.62166e-10
8.70988e-09
-1.36628e-08
1.07684e-08
-1.55419e-08
5.26422e-09
-1.11771e-08
-8.62671e-10
7.92706e-09
4.2077e-09
-4.98586e-09
1.74049e-09
1.3155e-08
-6.3664e-09
4.3947e-09
-1.11833e-08
1.07162e-09
8.03921e-09
4.04422e-09
1.18329e-08
-4.37419e-11
-1.81556e-08
7.58192e-09
5.32266e-09
1.13238e-08
6.24054e-09
-1.76081e-08
6.07246e-09
-9.40378e-10
6.19177e-09
1.10959e-08
-2.78416e-09
-3.91702e-09
5.73901e-09
1.33961e-08
6.04183e-09
7.61256e-09
-7.92322e-09
1.13796e-08
2.07727e-08
-8.99182e-09
-1.70712e-08
-6.83812e-09
2.16291e-08
2.2803e-09
-6.56898e-09
-1.33765e-08
2.87436e-09
-2.75408e-08
2.26264e-10
2.04766e-08
-8.08223e-09
-2.60276e-08
2.00644e-08
1.59183e-08
-1.43535e-08
-1.35992e-08
-8.91641e-09
2.49912e-08
-2.47539e-09
1.80971e-08
1.52827e-08
-2.41411e-08
-9.23848e-09
5.50309e-09
1.88386e-09
2.24789e-08
-2.98658e-08
-1.92151e-08
9.10035e-09
-5.52563e-09
1.56405e-08
-5.30519e-09
-1.84526e-08
4.54276e-09
1.22797e-08
-1.12835e-08
-1.39595e-08
1.29635e-08
-3.50056e-09
-1.81808e-08
1.89645e-08
1.49113e-09
-8.17576e-09
4.75416e-09
3.28088e-09
2.43889e-09
-1.72229e-08
1.64985e-08
-1.11414e-08
-3.86598e-09
1.26859e-08
8.56685e-09
-1.40076e-08
-1.15173e-08
6.40892e-09
-3.23178e-09
8.34013e-09
-1.30269e-09
-5.06485e-09
-5.1499e-09
8.20946e-09
-4.49693e-09
-5.01523e-09
7.58798e-09
-3.7476e-09
4.36911e-09
1.37289e-09
1.2624e-08
-7.65844e-09
3.25723e-09
-2.40609e-09
6.80722e-09
-7.54231e-09
5.20275e-10
-6.36399e-10
5.85104e-09
-5.24404e-09
-5.67198e-09
4.19456e-10
2.19966e-09
8.92976e-09
-4.29963e-09
3.68186e-09
-6.21806e-09
-5.00617e-09
1.69519e-09
9.1686e-09
-3.93583e-09
-9.72981e-09
3.70112e-09
1.71992e-09
-3.43334e-09
2.30763e-09
-4.11854e-09
4.46315e-09
-1.18323e-08
2.06401e-09
-6.02198e-09
-3.77909e-09
7.73711e-09
-3.3641e-10
6.10156e-09
3.76516e-09
-5.32404e-09
-1.45224e-10
-2.53246e-09
3.55545e-09
2.27503e-09
-3.29805e-09
2.1536e-09
2.00978e-09
-6.6959e-09
2.65059e-09
-1.07095e-10
1.01183e-09
-2.70897e-09
3.32083e-09
3.76646e-09
-4.93378e-09
2.66951e-09
5.44168e-10
5.84907e-09
1.69079e-09
-3.77342e-09
4.4759e-09
-2.88791e-09
-2.04652e-09
-2.04593e-10
-2.29308e-10
2.61545e-09
-3.49356e-09
-2.50161e-10
-1.27121e-08
1.59681e-08
-7.21785e-09
3.96175e-09
-8.45229e-09
1.27676e-09
-8.81572e-10
8.05687e-09
7.87917e-10
2.13358e-09
-1.13738e-08
-1.66268e-08
4.70265e-09
-1.62127e-08
9.80073e-09
6.62685e-09
-2.14975e-10
9.95567e-09
-1.02003e-08
6.64216e-09
2.98012e-09
-7.48871e-09
7.62457e-09
2.94342e-10
-6.43518e-09
8.00212e-09
7.93574e-09
-9.50276e-09
8.4321e-10
3.46161e-10
-1.03165e-08
-6.30208e-09
6.43866e-09
1.01799e-08
7.64662e-10
-8.10107e-09
-1.1207e-08
1.20268e-08
6.67662e-09
-7.49651e-09
-7.77842e-09
-2.66391e-09
8.19925e-09
-8.19947e-09
-8.10086e-09
1.32971e-09
5.67432e-10
-6.91598e-09
5.27934e-09
-5.96811e-09
7.6047e-09
3.65894e-10
-2.61137e-09
1.58927e-08
-6.50577e-10
4.86235e-09
-6.69655e-09
1.38859e-08
4.67967e-09
-1.07684e-08
7.154e-10
8.27578e-09
1.77742e-09
-8.21966e-10
2.01433e-09
-1.19607e-08
-1.43967e-09
-7.53732e-09
6.9398e-09
2.03726e-09
4.90321e-09
-6.62113e-09
2.78307e-10
9.51973e-09
-1.49462e-11
-1.03267e-08
2.69789e-09
-6.3112e-09
5.88385e-09
7.36724e-09
-1.96258e-09
5.54663e-10
-1.03478e-08
8.79371e-09
9.82989e-09
1.29797e-09
-9.63133e-09
7.04263e-10
-7.34031e-09
-5.12693e-09
5.78201e-09
-7.13572e-09
6.48069e-09
-7.51199e-09
4.22555e-10
-2.83437e-09
1.45004e-08
7.59268e-09
-7.08561e-09
-8.01902e-09
-7.87492e-10
1.24449e-09
3.57559e-10
-6.73885e-09
8.07331e-09
-6.41771e-09
-6.12316e-09
1.20826e-08
1.16269e-09
-7.06183e-09
-2.43238e-09
2.24369e-09
7.25054e-09
-5.75028e-09
-1.08512e-09
-2.26419e-10
1.54565e-09
1.11724e-08
-1.01868e-08
-2.53123e-09
-1.08105e-08
1.36714e-08
-1.31525e-09
7.15961e-09
-1.51435e-08
-2.82667e-09
-7.35213e-09
-2.45461e-09
7.37436e-09
-9.86509e-10
-6.61147e-09
2.45857e-10
-6.80562e-09
6.88369e-11
8.83499e-09
-8.53447e-09
-1.38564e-09
-4.95865e-10
1.15746e-08
2.92732e-09
2.92758e-10
7.95237e-09
3.42009e-09
1.31786e-08
-8.28414e-09
1.07775e-08
4.66623e-09
1.03622e-08
-2.48865e-09
1.32559e-09
-9.19913e-09
1.166e-09
9.12062e-10
5.65051e-10
1.25073e-09
-1.20025e-08
-1.7067e-08
-8.87243e-09
1.50397e-09
-5.03971e-10
-7.04287e-09
-8.2853e-09
6.12348e-09
-9.20051e-09
-5.69625e-09
1.37018e-08
-1.50445e-09
-5.80513e-09
-9.45423e-09
-7.52623e-09
-3.40624e-09
4.51493e-09
8.42183e-10
-7.367e-09
-1.0013e-09
-1.51006e-08
2.06309e-09
-6.45882e-09
-2.26805e-09
-6.37366e-09
-1.10689e-08
1.47268e-09
1.41112e-08
-9.71932e-09
-5.07301e-10
-6.49798e-09
-7.32782e-09
1.17459e-08
-5.4327e-09
-8.58116e-09
4.60653e-09
9.20248e-09
-8.83491e-09
1.49141e-08
1.1182e-08
-1.57818e-08
2.09378e-09
2.50616e-09
-1.74599e-08
1.9807e-08
-4.49102e-09
1.09728e-08
1.87088e-09
2.04305e-09
5.08328e-09
-1.16173e-08
-1.22347e-08
-5.19101e-09
-3.41522e-11
-9.39526e-09
1.76978e-09
2.11626e-09
-6.57113e-09
-5.40813e-09
-5.54038e-09
-1.07118e-08
9.09916e-09
1.2829e-09
3.29796e-10
7.28041e-09
-8.73852e-09
-6.14367e-09
8.86941e-09
6.37343e-09
1.24402e-09
-1.07222e-10
-1.30213e-09
8.44482e-09
1.51593e-09
6.05003e-09
4.0727e-11
-1.39263e-08
1.69037e-09
-7.49608e-10
1.29856e-08
1.88742e-10
-5.67021e-09
-7.35519e-09
8.37724e-10
8.20786e-09
-6.11493e-11
1.51043e-08
-8.44316e-09
-6.47241e-09
1.83989e-09
1.25149e-08
1.21209e-08
2.00639e-09
-1.28443e-08
-1.49134e-09
1.11985e-08
1.04882e-08
-7.94566e-09
3.00754e-09
9.32064e-09
1.36371e-08
2.72873e-10
-9.00615e-09
8.4197e-09
3.13624e-10
-7.07141e-09
6.98768e-09
3.56627e-10
8.10544e-09
-7.756e-09
7.02651e-09
-7.37591e-09
4.29911e-09
-7.74944e-10
4.58123e-09
-5.08638e-10
-4.29452e-10
9.0322e-09
-8.09423e-09
-5.43387e-10
-7.72127e-09
-8.48273e-09
-9.71268e-09
8.53824e-09
9.65699e-09
-6.66498e-10
-8.24569e-09
-5.45326e-10
-9.83386e-09
-1.3464e-11
-9.53798e-09
-7.6283e-09
-6.87765e-09
7.19737e-09
8.09993e-09
-2.029e-10
3.12959e-10
-6.67669e-09
3.43992e-09
7.5359e-09
1.46917e-10
4.36419e-09
3.89288e-09
1.29687e-08
-2.33143e-09
-2.52964e-11
6.33763e-11
-2.07494e-10
1.68793e-10
-6.18936e-11
-1.47501e-10
1.83092e-10
2.44529e-10
2.3905e-10
-1.73325e-10
-3.10731e-10
-3.70538e-10
1.78135e-10
4.36643e-10
-1.31365e-10
3.96264e-14
8.40951e-10
-1.07148e-09
1.69425e-10
3.40475e-10
1.87114e-10
3.13836e-10
-9.80175e-12
-1.27104e-10
-1.07526e-11
2.31433e-10
2.20326e-12
1.31048e-10
-8.4098e-10
1.24061e-09
-1.48405e-09
1.08427e-09
-8.21444e-10
-1.93982e-10
-9.44822e-10
2.07752e-09
1.08683e-10
2.66568e-09
-3.42173e-09
-1.22848e-09
-1.56253e-09
1.30647e-09
-2.17688e-09
-5.97412e-09
1.18046e-08
6.78154e-09
1.04894e-08
1.34712e-09
1.16566e-08
3.56498e-09
-4.73218e-09
-1.24272e-08
6.87033e-09
1.01644e-08
-4.60755e-09
-8.64167e-09
-5.87237e-09
2.08673e-09
5.01494e-09
-1.99996e-09
-7.17076e-09
7.99609e-09
4.18963e-09
-1.42784e-08
1.73054e-08
-1.07827e-08
7.75575e-09
-1.39973e-08
-1.10667e-08
1.07857e-08
9.71432e-09
3.56525e-09
1.85622e-08
-1.24131e-08
2.83624e-09
8.29551e-09
-5.15354e-09
-5.97825e-09
2.46198e-09
3.04184e-09
-1.26747e-08
7.76155e-09
1.41651e-08
-4.62121e-09
2.51459e-09
1.23518e-08
1.14976e-08
-5.09609e-09
5.22982e-09
2.54962e-09
7.87297e-09
2.88445e-09
-7.29996e-09
1.7576e-08
1.17357e-08
4.99181e-09
1.23088e-08
1.40096e-08
1.97861e-09
-1.50719e-08
-9.16264e-10
-2.65123e-10
1.276e-08
1.51483e-09
9.02835e-09
1.12906e-09
-1.04224e-08
7.00099e-09
-7.76081e-09
-5.65933e-09
6.41893e-09
-8.73888e-09
-9.52174e-10
1.66921e-08
9.91456e-10
-1.30689e-08
4.31694e-09
9.05743e-09
-1.45361e-08
6.47028e-09
-6.17718e-09
6.49577e-09
1.22533e-08
6.64989e-10
-1.09396e-08
1.26494e-08
1.23638e-08
4.19215e-09
2.79787e-09
-1.05774e-08
6.30946e-09
8.45999e-09
-8.46409e-09
6.91513e-09
4.84917e-10
-8.20826e-09
-7.40578e-10
-6.37339e-09
1.17308e-08
9.50633e-10
-1.57917e-09
-1.39073e-08
-1.14532e-08
2.26693e-09
-8.35791e-09
-8.57016e-11
-5.43861e-09
1.33215e-09
-9.44501e-10
-8.99247e-09
-5.89815e-09
5.16647e-09
1.17187e-08
-1.07436e-08
-6.14153e-09
-2.66152e-09
8.37e-09
-5.4201e-10
-3.14475e-09
-1.15655e-08
1.05473e-08
4.16295e-09
-8.39899e-09
4.59673e-09
6.57507e-10
7.51118e-09
-6.49264e-10
1.35816e-09
-8.22009e-09
5.81611e-09
-9.66445e-10
-6.37785e-09
6.7711e-09
7.97674e-09
2.20767e-09
3.13317e-09
1.50463e-09
-1.28975e-08
7.97612e-09
-1.01492e-08
-6.22592e-09
-3.25413e-09
-3.35218e-10
6.54968e-10
6.68072e-10
-9.45911e-09
5.66814e-09
-8.15483e-09
-9.498e-10
1.46128e-08
-7.65328e-09
1.28116e-08
1.28847e-08
2.80265e-09
-1.41827e-08
4.21496e-09
-1.55383e-09
1.26989e-08
-1.0477e-08
-1.35299e-08
-2.39747e-10
9.68454e-09
1.99112e-10
6.64349e-09
4.83329e-10
-7.32665e-09
8.82446e-09
3.69472e-10
-8.99503e-09
3.10942e-09
-2.9644e-09
-6.8881e-09
6.74322e-09
2.6079e-10
-1.50051e-09
4.34912e-09
-7.94112e-09
8.8302e-09
5.75433e-09
5.18362e-09
-4.30029e-09
9.72242e-10
-4.68832e-09
4.1995e-09
2.23598e-09
3.62974e-09
2.5966e-09
3.62218e-09
-3.98277e-09
3.16115e-09
1.58049e-09
-3.28782e-10
-4.41296e-09
-5.07249e-09
4.60913e-09
3.62459e-09
1.09128e-09
-6.78859e-10
-5.48489e-09
1.16473e-09
-4.69931e-09
3.90338e-09
3.13523e-09
-9.98172e-10
-1.24023e-10
-5.30307e-10
3.38807e-09
7.0508e-10
2.40409e-09
2.97579e-09
1.25129e-09
-2.44736e-09
2.62304e-09
1.23615e-09
-7.06485e-10
7.82531e-09
4.43389e-09
-1.09057e-08
6.15262e-09
7.47054e-10
-2.15829e-09
-4.74136e-09
6.87156e-09
7.10638e-09
-4.36508e-09
7.05838e-09
-1.94631e-09
1.23505e-09
-5.13477e-09
-4.65394e-10
4.31434e-09
-6.64845e-09
5.7086e-09
-3.37463e-09
-5.19003e-09
2.06084e-09
3.33126e-09
-2.02056e-10
3.64598e-10
-1.15624e-10
5.82779e-09
5.474e-10
3.78786e-10
-3.29839e-10
7.00939e-09
-2.77271e-10
7.52759e-09
-6.6137e-09
6.00056e-09
-4.88793e-09
6.36532e-09
-2.05671e-09
7.6044e-09
-1.1913e-08
2.50375e-09
-1.29193e-08
1.6781e-08
-3.49952e-09
-6.85677e-09
1.286e-08
-2.00212e-09
5.24589e-09
-8.66896e-09
4.61002e-09
4.67123e-09
-7.2133e-09
-1.04634e-08
1.30056e-08
-2.25402e-09
-7.96824e-09
1.48936e-08
-1.03088e-08
9.383e-09
-1.19935e-08
-6.15802e-09
-2.63495e-09
4.88543e-09
-1.98533e-08
4.65928e-09
-4.18324e-09
-9.18805e-09
1.13053e-08
-1.13591e-08
4.93925e-09
-7.97784e-09
1.24265e-08
5.04167e-09
-1.35251e-08
-8.82012e-09
-1.32872e-08
7.62097e-09
-1.51783e-08
-3.80178e-09
3.2729e-09
5.72072e-09
-9.49919e-09
-3.70331e-09
1.14815e-08
-1.2723e-08
1.08812e-08
-9.63964e-09
-3.02577e-09
9.01954e-09
5.48829e-09
1.38314e-08
-8.29457e-09
-5.97502e-10
4.33135e-09
9.17136e-09
-1.73045e-08
-6.59242e-09
2.56394e-09
1.00316e-09
-1.49841e-08
1.43753e-08
2.96189e-09
-6.45604e-09
1.19004e-08
1.14945e-08
4.01297e-09
-6.30783e-09
1.47214e-08
-6.60436e-09
2.44486e-08
5.95279e-09
-5.07597e-09
-4.7102e-10
1.29721e-08
-4.05742e-09
1.82682e-08
7.02353e-09
8.42551e-09
-3.90195e-09
4.43955e-09
1.70201e-09
8.82089e-10
1.80776e-08
-6.62906e-10
-8.98935e-09
-7.39053e-09
4.78796e-09
8.27261e-09
-5.67016e-09
7.54489e-09
1.2909e-09
1.84096e-09
-1.06768e-08
-5.93946e-09
-7.41998e-09
4.41496e-09
8.94445e-09
2.68525e-09
-1.07982e-09
-9.63642e-09
3.5072e-09
-4.49881e-09
-6.65128e-09
1.51363e-09
-1.20301e-08
9.9063e-09
6.5634e-09
1.12277e-08
-5.18016e-09
8.653e-09
1.28244e-09
-1.38375e-08
1.36692e-08
-5.67918e-09
-3.84275e-09
-1.84583e-09
-1.14582e-08
8.89789e-09
-4.31299e-09
1.39667e-08
-5.23886e-09
1.2508e-08
-1.05182e-08
9.23786e-09
1.81013e-08
-1.34789e-09
-1.38125e-08
-3.69344e-10
2.00976e-08
-5.91582e-09
1.19789e-08
-2.32507e-08
-2.54074e-09
2.69576e-08
3.12937e-09
-1.8108e-08
1.58996e-08
8.74216e-09
2.31596e-09
1.00362e-08
-3.17771e-09
-7.22782e-09
8.70494e-09
4.7837e-09
-6.5752e-09
-6.91352e-09
1.31077e-08
5.7637e-09
-1.01664e-08
1.7932e-08
-1.71841e-08
1.23598e-08
3.62061e-09
-1.24085e-09
1.55522e-08
-5.20583e-10
1.89688e-08
-2.5486e-09
-1.5623e-08
1.79055e-08
-2.80311e-09
1.48545e-08
1.39854e-08
-7.70992e-09
-1.23661e-08
-1.24049e-09
1.92338e-08
-5.62719e-09
-1.00608e-08
-5.01807e-09
1.51416e-08
8.84525e-09
2.93e-09
3.5433e-09
3.56287e-09
-7.62421e-09
2.15254e-08
1.01603e-08
2.9602e-09
-3.07442e-09
6.52981e-09
-6.41559e-09
5.09018e-10
3.68461e-09
-1.23343e-09
-2.35113e-09
-3.27155e-10
2.00885e-09
6.69502e-10
-7.67043e-10
-1.07972e-09
-5.0429e-10
1.35531e-09
-6.8834e-10
1.70209e-09
-2.36891e-09
2.84085e-09
-9.76507e-10
2.84675e-09
-6.60953e-09
4.78517e-09
3.07113e-09
-1.32658e-09
5.98885e-09
2.48093e-09
1.82075e-09
-1.88361e-09
-7.04127e-10
1.00115e-09
4.92647e-10
2.51267e-09
-7.51533e-10
-4.81162e-09
2.39638e-09
4.42419e-09
-3.48377e-09
1.1848e-09
-1.36686e-09
1.18543e-09
-6.62657e-09
1.37034e-09
-7.32976e-09
1.2586e-08
-2.6062e-09
-7.03103e-09
3.01073e-09
-1.01106e-10
4.73663e-09
-3.99952e-09
2.10961e-09
6.83205e-09
9.75735e-10
-2.09317e-09
5.85985e-09
5.30511e-10
-2.44448e-09
-1.78431e-10
4.16643e-09
8.17285e-10
-4.4533e-09
-4.13784e-09
9.74446e-10
-4.33683e-09
6.68919e-10
-2.11192e-09
1.90545e-08
-2.84328e-10
-8.98466e-09
-9.78564e-09
1.48998e-08
-2.69556e-09
-1.84779e-08
6.27362e-09
3.65494e-09
3.94353e-10
1.08505e-08
1.14296e-08
1.56083e-09
-9.33538e-09
3.48922e-09
1.28697e-08
-9.05701e-09
-9.70525e-09
-1.79022e-08
1.31289e-08
-3.72724e-09
8.50047e-09
-3.27135e-09
-2.52293e-09
-1.21081e-08
7.49003e-09
-2.06317e-09
6.00276e-09
8.06618e-10
1.74358e-08
-1.07526e-08
7.52915e-09
-1.36107e-08
4.01828e-09
6.55065e-09
1.41074e-08
-1.23305e-08
-4.55167e-09
1.55515e-08
-1.45853e-08
9.87035e-09
1.95384e-09
-8.51584e-09
1.58731e-08
3.84918e-09
-1.03406e-09
1.00545e-08
5.20363e-09
-1.51874e-08
9.49449e-09
-3.30227e-09
-9.85699e-09
-7.11159e-09
1.78122e-09
8.20196e-09
-5.36601e-09
-1.10119e-08
-1.54539e-09
-1.29439e-09
4.13707e-09
-1.22536e-08
2.75047e-09
7.27612e-09
-5.67157e-09
2.53246e-09
-4.4756e-09
4.44996e-10
-6.25263e-09
1.90611e-09
1.04421e-09
-5.79006e-09
-1.03195e-08
8.82766e-09
-3.09711e-09
1.16719e-08
-6.0976e-09
-4.31106e-10
7.62746e-09
8.95975e-09
-7.48516e-09
4.31299e-10
-3.04573e-09
1.24506e-08
-1.49496e-08
-3.692e-09
1.5596e-08
-7.87381e-09
2.6473e-09
7.62442e-09
-6.53141e-09
-7.36243e-09
-5.33242e-09
4.93247e-09
7.76235e-09
-6.91366e-09
-1.00108e-09
5.52252e-10
1.47607e-08
-1.41571e-08
-7.51724e-09
3.79296e-10
9.0489e-09
-7.37127e-09
4.1722e-09
8.13154e-09
-2.3644e-09
-5.67958e-09
6.72711e-10
9.54846e-09
-9.26796e-09
-9.57955e-10
6.77446e-10
9.16893e-09
-1.98487e-09
4.28332e-09
-1.56028e-09
7.11119e-09
-9.8342e-09
-1.47502e-09
-4.34348e-09
1.01018e-08
7.57788e-09
-8.2328e-09
1.30141e-09
-6.46483e-10
5.75601e-09
4.21449e-09
-1.15308e-08
-7.14961e-09
4.68979e-10
5.93261e-09
6.39791e-09
-6.57451e-09
-6.69145e-10
-5.47884e-10
-1.59614e-09
-6.16308e-09
1.58547e-08
-2.51359e-09
1.32355e-08
-1.40048e-08
-9.23835e-09
1.00076e-08
6.21212e-09
8.33449e-09
-7.43541e-09
-5.89623e-09
8.6357e-09
-1.25589e-08
7.42142e-09
5.51681e-09
-7.94294e-09
4.07859e-09
-4.11254e-09
-2.07855e-09
7.56098e-09
4.27504e-09
-7.75751e-09
4.99762e-09
4.99854e-09
-2.55866e-09
1.83515e-09
5.16189e-09
4.83426e-09
-1.05156e-09
-3.62914e-09
5.29908e-09
-6.18323e-10
2.53659e-09
-3.45038e-10
-6.06308e-09
4.65353e-09
2.6556e-10
3.39335e-09
-8.76335e-09
-6.93164e-10
-2.20658e-09
3.23093e-09
-1.05186e-09
2.23861e-09
4.66125e-09
-2.17058e-09
-1.11728e-08
8.68211e-09
-9.20264e-09
-3.16552e-10
1.41805e-08
1.58313e-08
-3.06788e-09
-9.43075e-09
-3.33259e-09
-6.75842e-09
1.33871e-08
-3.13188e-09
-5.67564e-09
8.49098e-09
-8.71215e-09
3.40972e-09
-8.99746e-09
-5.24319e-09
1.03183e-08
-1.34822e-08
-6.26685e-09
-1.98341e-09
5.54335e-09
1.38825e-08
-6.38364e-09
-1.0584e-08
3.08515e-09
1.16898e-08
-6.51941e-09
9.92929e-09
-8.00564e-09
-1.54058e-08
3.98243e-09
3.96346e-09
-2.22123e-09
-1.31599e-08
-1.25804e-08
8.83598e-09
7.85554e-09
-4.11117e-09
-5.87343e-09
-1.14668e-08
4.75991e-09
7.14277e-09
-1.61003e-08
5.94123e-09
3.68875e-09
-1.2932e-08
3.30197e-09
-1.00359e-08
9.40601e-09
-7.7088e-09
5.98943e-09
-8.29622e-09
1.04098e-10
-1.84385e-09
2.61983e-09
-7.56975e-09
-3.34637e-09
-9.38723e-09
-9.24917e-10
1.15811e-08
-7.94221e-09
-6.69401e-09
6.83094e-09
6.79725e-09
-1.52297e-08
-1.05322e-08
-3.58602e-09
-1.27026e-08
1.93836e-08
7.44187e-10
4.08159e-09
1.18618e-08
1.11746e-08
-6.50573e-09
-1.65305e-08
-1.5515e-08
1.84576e-08
8.9191e-09
1.18564e-08
-6.97621e-09
-5.07889e-09
1.94195e-09
-1.48663e-09
-1.59706e-08
-6.77472e-09
1.95532e-08
5.14402e-09
-3.91382e-11
-4.96897e-09
-6.60606e-09
-1.01274e-08
2.17023e-08
-1.09478e-08
-1.60353e-08
2.20139e-08
-1.60166e-08
2.03583e-08
1.17074e-08
-1.60493e-08
4.45102e-09
-7.89076e-09
-1.25768e-08
2.37505e-09
4.89901e-09
-1.38804e-08
-1.71536e-08
8.58073e-09
-3.81696e-09
-1.39352e-09
-1.08249e-08
1.15181e-08
-5.06162e-10
-6.56097e-09
2.1749e-08
1.03277e-10
-2.50412e-08
1.70471e-08
-1.38317e-08
-7.13884e-09
-5.22519e-09
-9.74485e-09
1.4464e-08
-4.06813e-09
-1.72796e-08
1.61225e-08
-1.77965e-08
1.02033e-08
-2.72349e-09
2.5638e-09
-1.00435e-08
-7.59013e-10
1.04535e-08
5.08733e-10
1.77266e-08
-1.15826e-08
-2.01619e-09
-4.12788e-09
5.04002e-09
-4.52141e-09
1.72077e-08
9.62968e-09
-1.31132e-08
-8.0991e-09
-9.46218e-09
1.4057e-08
5.03486e-09
3.95865e-09
5.04238e-10
2.25898e-09
-7.76233e-09
-1.01325e-08
9.58015e-09
-2.06758e-10
1.15842e-09
9.10449e-09
1.9069e-10
-7.85747e-09
8.09945e-09
9.16531e-10
8.58051e-10
-6.15167e-09
1.12346e-08
-3.67074e-09
8.95338e-10
1.53793e-08
8.66823e-10
8.66876e-09
-7.25273e-09
8.94826e-09
7.40887e-09
7.26557e-10
1.20232e-10
-8.02138e-09
-3.09861e-09
2.98285e-09
8.13723e-09
-7.59979e-09
3.05025e-10
7.69428e-09
-9.02914e-09
-6.26478e-09
5.46256e-09
-5.91214e-09
1.28264e-08
1.30793e-08
-2.4544e-10
-8.36724e-09
-4.46661e-09
4.85924e-09
-4.09007e-09
1.231e-08
-7.17695e-09
1.23597e-09
1.08003e-08
2.37972e-09
3.4437e-09
-1.30004e-08
6.64187e-09
2.0969e-09
-6.62278e-09
-2.1161e-09
1.186e-09
-2.27078e-09
7.72651e-09
-1.08447e-08
-1.97512e-09
8.72966e-09
-3.36672e-09
-7.72342e-09
2.09843e-10
-7.16687e-09
1.00696e-08
-3.11253e-09
3.81986e-09
-5.32994e-09
3.8896e-09
-2.07254e-09
7.12765e-09
4.6207e-09
-3.59529e-09
1.07143e-09
-1.03955e-09
6.84622e-09
-5.42138e-09
-6.14591e-09
4.94451e-09
-1.22271e-08
1.32055e-09
8.93134e-09
-5.73278e-09
-6.02068e-09
-4.73715e-10
7.04982e-09
-1.11987e-08
-4.21856e-09
1.6383e-09
-6.93094e-09
-2.72032e-09
2.285e-09
2.57758e-09
4.89152e-09
-6.14865e-09
2.64185e-10
-9.35143e-09
2.21422e-09
6.87297e-09
2.49786e-09
-7.65523e-09
2.24632e-09
-2.01915e-09
-4.47475e-09
7.58373e-09
-4.99566e-09
-8.78936e-09
7.28315e-09
6.50199e-09
-6.53909e-09
1.41432e-09