/*--------------------------------*- C++ -*----------------------------------*\
| =========                 |                                                 |
| \\      /  F ield         | OpenFOAM: The Open Source CFD Toolbox           |
|  \\    /   O peration     | Version:  v1612+                                |
|   \\  /    A nd           | Web:      www.OpenFOAM.com                      |
|    \\/     M anipulation  |                                                 |
\*---------------------------------------------------------------------------*/
FoamFile
{
    version     2.0;
    format      ascii;
    class       surfaceScalarField;
    location    "100";
    object      phi;
}
// * * * * * * * * * * * * * * * * * * * * * * * * * * * * * * * * * * * * * //

dimensions      [0 3 -1 0 0 0 0];

internalField   nonuniform List<scalar> 
37489
(
-6.42034e-09
-1.33045e-08
5.75895e-09
1.39658e-08
1.59092e-09
7.65665e-09
-7.58484e-09
-1.66271e-09
-1.06291e-08
1.13286e-08
8.91389e-10
1.1072e-08
5.08142e-09
-8.49677e-09
2.23507e-09
3.78045e-09
5.05655e-09
3.62235e-09
4.58421e-09
6.5536e-09
-1.35603e-08
1.07901e-08
-3.48968e-09
-2.21903e-09
5.36029e-09
7.66485e-09
6.42846e-09
9.74342e-09
-4.84334e-09
6.59082e-09
3.61802e-09
4.10716e-09
1.08106e-08
-1.03334e-08
1.49247e-08
-4.26391e-09
8.24009e-09
-8.55798e-09
1.00613e-08
-1.05942e-09
1.58903e-08
1.06978e-08
-3.37693e-09
-7.65612e-09
1.1957e-08
-5.65808e-09
8.69976e-09
7.08643e-10
-7.90093e-09
1.49094e-09
7.73926e-09
-1.3293e-09
3.45475e-09
-7.61906e-09
-3.73669e-09
-5.27714e-09
4.64055e-10
6.30396e-09
-2.14783e-09
3.25459e-10
2.39682e-10
-6.50857e-09
-5.734e-09
1.20028e-08
-2.83802e-09
5.35676e-09
-5.77108e-09
3.25238e-09
-4.99486e-09
8.97162e-12
-4.30426e-09
-3.07517e-09
-1.40028e-09
7.22107e-09
-8.8278e-09
8.9809e-09
-1.55333e-09
-3.36833e-09
-4.02288e-10
-2.00045e-09
-3.2131e-09
-5.15011e-09
5.68573e-09
-8.67656e-10
-1.13266e-08
-3.54438e-09
-8.38504e-09
-2.75162e-09
2.40136e-09
-3.43988e-09
3.79004e-09
2.37971e-09
-1.12944e-10
-5.01848e-09
1.5621e-08
-3.46179e-09
-1.55972e-09
-1.05996e-08
-4.42927e-09
1.43186e-08
5.73157e-09
-2.60383e-09
6.41188e-09
-1.40676e-09
-8.44598e-09
8.87308e-09
-3.88899e-09
3.70092e-09
2.96613e-10
-6.66379e-09
2.66617e-09
2.81566e-09
8.97506e-10
-1.227e-11
-8.98493e-09
4.11084e-10
4.14447e-09
-2.79507e-09
-7.74962e-09
-3.66766e-09
-3.07605e-09
4.13982e-09
-5.34451e-09
2.0879e-09
-7.0118e-10
7.69465e-11
3.83993e-09
-3.94271e-09
-5.24178e-09
6.26833e-11
-6.44117e-09
-3.02058e-09
3.42299e-09
2.52055e-08
6.6683e-10
2.69264e-08
1.06207e-10
-1.68097e-08
2.01266e-08
-1.8323e-08
2.22355e-08
-3.80612e-09
4.85277e-09
-3.04547e-09
2.67675e-09
-1.39656e-08
5.13105e-09
-3.1785e-09
1.20131e-08
-9.57067e-09
-8.36934e-09
3.97445e-09
5.07911e-09
-2.66523e-09
-1.19845e-08
1.38182e-08
1.33437e-09
-1.00733e-08
4.70112e-09
1.42481e-08
2.63018e-09
1.24121e-08
-1.82207e-08
-1.48582e-08
-8.5818e-11
1.96453e-08
9.71584e-09
-1.74924e-08
-7.08161e-09
1.16512e-08
3.92492e-09
-1.82413e-08
1.16246e-08
5.22308e-09
-5.19649e-09
-1.47422e-08
5.27309e-09
1.20993e-08
-9.89472e-09
6.7771e-09
-1.65959e-08
-5.60052e-09
2.21107e-08
-1.28663e-08
5.98628e-09
-4.97608e-09
-1.11819e-08
1.3336e-08
-1.43871e-08
1.60385e-08
2.52055e-09
-5.38936e-09
5.06193e-09
-2.21719e-09
2.09228e-08
5.62206e-09
-7.12513e-09
-1.94197e-08
-3.04666e-09
3.49119e-09
2.04784e-08
-2.08428e-08
3.51176e-09
1.42845e-08
-1.75286e-08
-2.25843e-09
2.32784e-08
-1.5241e-08
3.3345e-09
-3.61069e-09
4.50844e-09
-2.21153e-08
2.12176e-08
2.43707e-08
1.71583e-08
-1.78746e-08
-1.78603e-08
1.91137e-08
4.61389e-09
-2.02816e-08
4.26758e-10
8.98907e-09
-1.30964e-08
-4.89863e-09
1.0112e-09
-3.97025e-09
7.85763e-09
-5.47969e-09
1.62851e-09
7.7224e-09
-3.87138e-09
-6.10929e-09
1.43623e-09
-8.06749e-10
-4.48311e-09
2.88385e-09
-4.51007e-09
-2.36801e-09
6.74582e-09
-9.27647e-09
4.22307e-09
-1.19977e-08
5.40656e-09
7.40219e-09
-8.8895e-09
2.92343e-09
-5.90596e-09
1.49366e-08
4.4561e-09
-4.71619e-09
-1.08961e-08
7.57948e-09
-2.58952e-09
2.2588e-09
-6.40916e-09
-2.17465e-09
5.75518e-09
-4.67357e-09
-1.74778e-08
1.63962e-08
1.48958e-08
-9.53553e-09
3.94888e-10
8.15987e-09
-3.87692e-09
-1.32226e-08
8.93964e-09
4.60079e-09
1.38001e-08
-3.50496e-09
-9.79648e-09
4.54027e-09
9.70655e-09
-4.45025e-09
-2.31208e-09
6.75508e-10
3.86379e-10
9.53779e-09
1.17097e-09
-8.33443e-09
1.17038e-08
-1.13689e-08
9.30913e-09
1.44507e-08
-1.23907e-08
8.01992e-09
4.60821e-09
-1.10757e-08
8.82391e-09
1.51954e-08
-1.29436e-08
-1.26851e-10
2.63577e-09
-1.35845e-08
1.45957e-08
-7.01961e-09
-1.13601e-08
1.00454e-08
-6.62444e-09
-4.27984e-09
3.1179e-09
7.78619e-09
-1.93688e-09
-7.72331e-10
-3.91544e-09
-4.12358e-09
-6.302e-09
9.17158e-09
1.25374e-09
-6.11251e-09
5.92885e-09
-3.94006e-09
1.08217e-08
-9.36486e-09
-3.39382e-09
-5.66862e-10
7.10864e-09
4.21645e-10
6.39664e-09
-3.70052e-09
2.52498e-09
-8.84951e-09
5.75753e-09
-4.64605e-09
7.59256e-09
-4.84164e-09
3.38119e-09
-4.84169e-09
-1.08563e-08
-9.78121e-11
-4.35788e-09
8.88334e-09
2.09233e-10
-3.12995e-09
-2.79604e-10
-6.97121e-10
-3.4441e-09
-5.71157e-09
-9.01758e-09
6.89161e-09
6.79354e-09
-4.66765e-09
-9.38612e-09
-1.03055e-08
1.51142e-08
4.57741e-09
-4.10676e-09
-3.00144e-09
-2.27794e-09
-4.93113e-09
-9.48107e-09
-9.69766e-09
2.31918e-09
4.37751e-09
-4.911e-09
1.37807e-09
-8.76451e-09
1.22977e-08
-1.28573e-08
-1.75133e-09
-1.17005e-10
9.46625e-10
-5.76062e-09
5.49158e-09
6.55187e-10
-6.26366e-09
-7.84298e-09
1.33594e-08
-7.17231e-09
1.65609e-09
8.17769e-09
-4.14373e-09
-2.65575e-09
-2.57298e-10
6.24662e-10
5.12436e-09
7.74834e-11
-2.02735e-08
-1.58265e-09
2.85008e-08
-6.64468e-09
1.92704e-08
-3.58906e-09
-3.59547e-08
-1.53349e-08
1.95715e-08
-5.81924e-09
-1.43156e-08
1.79771e-08
-1.89964e-08
1.41318e-08
1.20231e-08
-6.88439e-09
2.04791e-08
2.21535e-08
1.33363e-08
-3.12409e-08
1.80654e-08
5.76496e-10
-4.91384e-09
-1.37279e-08
-5.10363e-09
-8.35281e-09
2.54796e-08
-1.31838e-08
-1.1385e-08
1.94652e-08
-9.36893e-10
-8.21294e-09
1.66051e-08
-7.45516e-09
-7.45532e-09
-7.47824e-09
1.39967e-08
-1.02041e-09
1.32866e-08
-1.91985e-08
1.07227e-08
-6.94767e-09
7.32066e-09
1.04105e-08
6.18942e-10
1.54373e-08
-1.52848e-08
-2.26044e-08
1.90995e-08
-3.9733e-09
3.24346e-09
1.13836e-08
-3.25734e-09
-5.93719e-09
-2.18899e-09
2.34519e-09
3.36702e-09
5.67138e-09
4.70988e-09
6.40848e-09
-8.77316e-09
-3.17628e-09
7.09228e-09
1.44797e-09
-5.36395e-09
3.97004e-09
3.1211e-10
-7.45843e-09
-1.53714e-08
8.20447e-09
1.0534e-08
-1.15365e-08
-5.87727e-09
1.51615e-08
-7.83625e-09
-8.47569e-09
6.56846e-09
5.1618e-09
-9.08544e-09
4.23575e-09
-8.91614e-09
2.80062e-09
1.16272e-08
-5.51168e-09
-7.83818e-09
4.08386e-09
5.45906e-09
1.02328e-08
-5.30424e-10
-1.62105e-09
9.13155e-09
1.20425e-08
-3.68715e-09
-2.90668e-09
-8.96777e-09
1.55617e-08
1.30042e-08
-5.06146e-09
-1.16298e-08
4.87806e-10
3.2345e-09
9.28194e-09
3.70875e-09
-2.78619e-11
-8.74229e-09
-3.62223e-09
-3.97347e-09
4.18703e-09
3.40869e-09
-1.13138e-08
3.25186e-09
4.43978e-09
9.37608e-09
-2.96538e-09
-8.62995e-10
-5.54767e-09
2.15545e-09
3.91407e-09
3.30659e-09
8.10473e-09
-7.36134e-09
6.71385e-09
1.87872e-09
-3.48494e-09
5.26334e-10
-1.0148e-09
-6.62145e-09
-8.17732e-09
2.58751e-09
2.10624e-09
-4.72156e-09
-6.94062e-09
-4.80969e-09
2.578e-09
6.41875e-09
5.22493e-09
-3.98168e-09
3.24673e-09
4.13367e-09
4.70661e-09
5.92132e-09
-1.03662e-09
3.19241e-09
8.7281e-09
-8.66865e-09
1.0477e-08
1.05879e-08
-1.7482e-08
9.68134e-10
5.92591e-09
4.72348e-09
-8.5365e-09
-2.9727e-09
6.7857e-09
-8.51851e-09
-2.73805e-09
1.598e-08
1.1338e-08
-1.27138e-08
2.43017e-09
-1.05439e-09
1.34072e-08
-1.32446e-08
9.80544e-09
-1.40428e-08
-1.24992e-08
4.93082e-09
1.49363e-09
-1.82361e-09
-1.29148e-08
-1.67097e-09
-9.54927e-09
-4.17547e-09
-8.14493e-09
9.58229e-09
-5.28953e-10
5.10223e-09
-6.24434e-09
7.97372e-09
-6.85223e-09
7.39094e-10
-1.86068e-09
2.55363e-09
-1.03234e-08
4.7971e-09
-8.54472e-09
6.92289e-09
-2.91895e-09
2.25224e-10
5.34218e-09
-7.69476e-09
-7.98074e-09
2.26592e-09
5.0952e-09
-5.73784e-09
-7.35876e-09
2.12421e-09
-5.57374e-09
-4.09063e-09
-4.10858e-09
-1.6674e-09
1.0567e-08
-2.09113e-08
-2.92531e-09
1.32695e-08
6.05894e-09
1.88669e-08
-1.43588e-08
-9.6154e-09
1.60134e-08
-3.39199e-10
-1.52909e-08
1.00518e-08
-1.56721e-08
-2.07824e-08
8.92634e-09
8.93061e-09
-1.0954e-08
-1.57729e-09
2.91593e-09
-6.76736e-10
-2.74567e-08
1.59975e-08
1.21359e-08
-1.87123e-08
5.88663e-09
-7.06469e-09
-1.75342e-08
-7.38571e-09
-1.41844e-08
-1.91593e-08
2.22713e-08
1.28855e-08
-1.06868e-08
-1.15379e-09
-8.9418e-09
5.77218e-09
-2.29576e-08
1.01207e-08
1.79057e-08
-1.95192e-08
-1.19404e-08
7.13218e-09
5.94533e-09
-1.21601e-08
-9.17525e-10
-3.46141e-09
-3.76357e-09
1.43572e-08
1.27451e-08
-1.76495e-08
1.08497e-08
-9.80475e-09
1.90885e-08
-9.19641e-09
1.25414e-08
-7.82095e-09
4.65226e-09
-6.02777e-09
-1.07702e-08
-4.44589e-10
-9.39409e-09
1.27913e-09
-4.0453e-09
5.60347e-09
-1.57164e-08
-7.53661e-09
1.55625e-09
-4.93132e-09
-9.28305e-09
-6.23329e-09
-1.88772e-08
-7.70043e-10
-1.28377e-08
8.67641e-09
-1.01334e-08
2.10881e-08
-4.39454e-09
-1.69876e-08
2.94188e-10
-9.85297e-09
6.70289e-09
2.06838e-08
-1.75335e-08
5.00332e-10
1.07348e-08
1.29419e-08
8.24695e-09
-1.22634e-08
-8.92539e-09
7.32866e-09
6.11361e-09
1.3559e-08
-1.44224e-09
-3.86972e-09
7.47315e-09
1.34145e-08
1.85934e-08
-4.47596e-09
-1.91136e-08
4.99628e-09
1.12124e-08
3.3922e-09
3.98881e-09
-2.2143e-09
-1.44437e-08
1.58826e-09
1.76495e-08
-1.17646e-08
1.07475e-08
-1.74377e-08
1.67208e-08
-1.80494e-08
1.2076e-08
4.507e-09
7.29815e-10
1.1484e-08
-1.24453e-08
2.07365e-08
3.27407e-09
-1.39166e-09
-3.51138e-09
-2.72668e-09
7.6297e-09
-4.33205e-09
-5.04161e-09
7.98193e-09
-4.00226e-10
-3.41267e-09
5.75316e-09
-1.94044e-09
-4.28096e-09
6.38149e-09
-2.50087e-09
1.91051e-09
-4.32658e-09
-1.91612e-09
5.06797e-09
1.4044e-09
-4.56192e-09
-9.97507e-09
4.61255e-09
1.03586e-09
-3.98403e-09
5.63931e-09
5.05788e-09
-3.90467e-09
-4.66463e-09
-3.42754e-09
4.2044e-09
-7.10203e-10
-3.29895e-09
2.50706e-11
-4.15089e-09
1.31088e-11
5.68104e-09
-7.44414e-09
1.38536e-09
3.77627e-10
4.17396e-09
-3.90182e-09
5.40882e-09
4.13535e-09
-6.30133e-09
9.96769e-09
-7.80177e-09
-2.59243e-09
-3.31318e-09
1.00409e-08
-2.63854e-09
4.22009e-09
4.1608e-09
-4.98322e-09
-6.62182e-09
3.417e-10
-8.27549e-11
5.28741e-09
-5.61182e-09
-7.96352e-09
8.28785e-09
-1.2992e-09
2.85314e-10
-1.88683e-09
-4.75807e-09
3.33181e-09
-4.45698e-09
-6.83852e-11
-5.33515e-09
-3.80719e-10
5.03187e-09
6.83896e-10
4.8889e-09
-6.23683e-10
-9.60034e-09
4.34805e-09
1.60069e-10
-1.12187e-08
-1.02539e-09
2.32723e-10
1.55938e-09
-6.58253e-09
7.1995e-09
-2.1762e-09
-5.18046e-09
6.59879e-09
1.41229e-10
-2.28688e-09
-2.54022e-10
-2.63948e-09
-2.11444e-09
-6.75495e-09
5.7517e-09
-4.39379e-09
1.11897e-09
-2.47685e-09
1.51707e-09
2.803e-09
1.4317e-09
-5.67339e-09
1.68085e-09
1.05914e-08
3.0432e-09
6.21919e-10
-7.13016e-09
-3.50718e-09
2.46919e-09
3.84101e-09
-2.17966e-09
-2.08497e-10
-1.65107e-09
4.27753e-09
-2.88031e-09
-1.31619e-09
3.69696e-09
-4.03179e-09
2.51648e-09
-3.21069e-09
-3.6517e-09
7.80177e-09
-3.56942e-09
4.19524e-09
-1.7603e-10
3.03652e-10
1.60769e-10
-1.9779e-08
1.39675e-08
8.40235e-09
-2.59091e-09
-1.34804e-08
2.79982e-09
-9.09851e-09
-3.88991e-09
9.15535e-10
-9.06033e-09
1.20347e-08
-1.80301e-09
-1.55674e-08
6.73698e-09
2.41547e-09
-8.6037e-09
-5.48736e-10
8.15609e-09
4.35809e-09
-5.7772e-09
8.65355e-09
-6.59474e-09
3.56596e-10
3.96578e-09
-8.39341e-10
5.52707e-09
2.02972e-08
-1.13315e-08
-6.16584e-09
7.23209e-09
3.94347e-09
9.1216e-09
6.5704e-09
1.46292e-08
-2.14207e-09
-5.5461e-09
2.3137e-09
9.02906e-09
-1.31458e-08
-3.92844e-09
8.06355e-09
-6.27731e-09
6.88299e-09
-8.49774e-09
2.45942e-09
-9.90641e-10
9.94685e-09
-7.80125e-09
3.13754e-10
3.12774e-09
8.99415e-09
2.98858e-09
-3.73107e-09
-8.05977e-09
8.8022e-09
1.26867e-08
5.37643e-09
9.50525e-09
-1.18077e-08
-1.24969e-08
8.38053e-09
1.10793e-09
-2.02615e-09
-1.88371e-09
-5.80608e-09
-1.54565e-09
2.68399e-09
4.66767e-09
3.16041e-09
-5.21219e-09
-3.75433e-09
-8.20593e-09
2.32972e-09
4.33045e-09
3.51042e-10
-9.72783e-10
-7.5842e-09
-5.98407e-09
-1.80689e-11
8.68612e-09
-3.58042e-09
7.5677e-10
-2.16554e-09
-9.63095e-09
7.69478e-09
4.10177e-09
-6.17428e-09
4.28316e-10
-7.47156e-10
7.32926e-10
-6.16004e-09
-7.36157e-11
-1.03045e-08
-4.12822e-09
-1.35124e-08
4.36666e-09
1.14755e-08
-1.45588e-08
1.20434e-08
-5.37934e-09
2.2595e-09
4.26577e-09
-1.14588e-09
-5.07728e-09
-2.73557e-10
-2.84536e-11
1.10149e-08
-5.379e-09
-3.26336e-10
-5.30957e-09
1.23489e-09
1.20396e-08
3.70758e-09
-9.57455e-09
-3.2849e-09
9.15193e-09
-4.17439e-09
-6.28189e-09
6.41919e-09
-1.12092e-09
-3.6296e-09
-1.66862e-09
-8.84674e-09
-7.16137e-10
1.07978e-08
-4.22167e-10
2.42923e-09
-1.08538e-08
-2.2772e-10
6.41858e-09
2.28409e-10
4.8568e-09
-4.93431e-09
-1.50195e-10
6.92081e-09
-4.33411e-09
-5.43617e-09
-1.16324e-09
5.88332e-09
1.0625e-09
5.06222e-09
1.93145e-10
-2.58276e-09
1.15674e-09
4.86647e-09
-3.44048e-09
1.14798e-09
2.54157e-09
-6.27238e-09
2.68585e-09
2.21997e-09
-3.75788e-09
3.44674e-09
5.03081e-09
-5.93593e-09
3.69752e-09
-9.45402e-11
-1.56233e-10
-1.66571e-09
4.94833e-09
-2.1259e-09
3.67095e-09
-2.65087e-09
2.99665e-09
2.94155e-10
1.74016e-09
1.74376e-09
4.95039e-09
2.44929e-09
2.71139e-09
2.29662e-09
-1.71246e-10
-3.19792e-09
6.90991e-09
-1.96823e-09
2.76966e-09
2.78906e-09
-8.21562e-09
-7.85064e-10
6.2116e-09
-7.52315e-09
-1.34432e-10
1.04466e-08
-1.89108e-09
-6.28048e-09
6.48387e-10
-7.33698e-09
-2.76972e-09
-9.85714e-09
-2.49216e-09
5.0123e-09
-9.48877e-10
-2.85773e-10
-8.62253e-09
8.97113e-10
-5.70142e-09
4.0192e-09
-4.57117e-09
5.33383e-09
-1.06167e-08
8.43452e-10
3.49269e-09
-6.76771e-10
-1.08888e-08
9.60631e-09
-1.90683e-09
-7.9853e-09
5.58405e-09
1.53008e-09
1.60599e-09
9.08697e-09
-1.13698e-08
5.13537e-09
-5.43623e-09
-6.50129e-09
-6.90902e-09
8.83912e-09
3.15906e-09
9.17743e-09
-3.24953e-09
7.89208e-09
4.02309e-10
3.5196e-09
-8.59045e-10
7.41658e-10
1.24014e-10
3.9331e-09
4.59313e-09
-3.42314e-09
-5.10305e-09
3.60219e-09
-2.85589e-09
3.18681e-09
4.52322e-09
-4.10437e-09
6.34432e-10
-1.05326e-09
2.99494e-09
8.36677e-10
7.61586e-10
1.38165e-09
5.21551e-09
8.33069e-10
8.34287e-10
-1.63538e-09
7.30518e-10
-3.1995e-09
-7.201e-09
4.90039e-09
6.65255e-10
3.72472e-09
-5.11667e-09
2.22868e-09
-2.3893e-09
7.49568e-09
2.47214e-09
-1.91797e-09
2.78902e-10
6.56659e-09
-4.67563e-09
-1.16043e-09
-6.12784e-09
6.21069e-09
8.20744e-09
-3.55883e-09
-4.34018e-09
6.4198e-09
-1.21572e-09
-8.24112e-09
1.08728e-08
9.06062e-11
2.07131e-09
-1.30349e-08
-1.02479e-09
1.29668e-08
-1.06913e-09
-1.29277e-08
1.37904e-08
-1.88742e-09
1.5029e-09
-1.43401e-08
9.13974e-09
1.91877e-09
-8.98725e-09
-7.2123e-11
-1.07359e-08
1.23109e-08
1.04129e-09
8.55216e-09
3.37349e-09
7.04781e-09
3.13326e-09
7.05725e-09
2.91792e-09
-2.92731e-09
-1.60254e-09
-7.57884e-09
1.62387e-08
-7.10111e-09
8.94776e-09
1.08036e-08
9.23573e-09
-6.2489e-09
1.77533e-08
7.40687e-09
-8.54663e-09
-6.43904e-09
2.29287e-08
-8.27407e-09
7.29312e-09
-2.19476e-08
1.33008e-08
-2.83199e-09
1.24599e-08
-6.29569e-09
-7.02335e-09
2.18759e-08
-8.55684e-09
1.845e-08
6.05885e-09
-1.12081e-08
3.53213e-09
-2.47515e-08
1.29453e-08
-3.51534e-09
-1.35261e-08
2.43346e-08
9.54035e-09
1.25058e-08
-1.85141e-08
-1.62856e-08
2.23106e-08
4.51837e-09
6.84072e-10
9.11781e-09
-1.43204e-08
6.87862e-09
1.7092e-08
-1.94523e-08
-6.12407e-09
1.23342e-08
-2.78748e-08
-7.00681e-09
4.20942e-09
3.06721e-08
9.17163e-09
-1.88357e-08
-1.82108e-08
1.27223e-08
-1.90451e-08
2.42789e-09
2.29008e-08
2.47815e-08
-1.81442e-08
-3.80757e-10
-1.50731e-08
1.21382e-08
3.31584e-09
-1.50626e-08
2.69746e-09
1.5675e-08
-2.38761e-08
-6.18599e-09
1.56819e-08
-9.64235e-09
-2.11125e-08
2.76878e-09
-2.14949e-09
1.58223e-08
7.22661e-09
-9.47297e-09
-1.35758e-08
3.49707e-10
-1.3041e-08
-1.37675e-09
3.44176e-09
-1.12959e-08
-5.3535e-09
6.17192e-09
-2.52872e-08
-1.58554e-08
1.43776e-09
-2.09794e-08
4.58749e-09
-7.57811e-09
-2.28295e-09
4.9946e-09
-1.30826e-08
-6.70759e-09
-1.12785e-09
-6.37158e-09
-5.09376e-09
4.49313e-09
1.43151e-09
7.40283e-09
-1.33275e-08
4.15766e-09
1.00991e-08
-9.76361e-09
-1.23288e-08
-1.30522e-10
2.31727e-08
-1.07134e-08
-1.46521e-08
1.14857e-09
1.17474e-09
5.33352e-09
8.38949e-09
-1.22916e-08
1.32202e-08
-3.72904e-09
-2.85837e-09
1.06135e-08
2.34394e-09
6.73355e-09
-2.18909e-09
-6.17884e-09
2.1402e-09
-2.25279e-08
-7.40684e-10
9.31078e-09
1.39577e-08
-2.62948e-08
1.6987e-08
-8.27656e-09
1.8165e-08
-1.0019e-08
-1.56275e-08
5.17137e-09
7.17066e-11
1.03844e-08
-3.10417e-09
-6.53979e-09
-5.98361e-09
-6.45604e-09
1.00854e-08
-8.14076e-09
5.03545e-09
1.5063e-08
-1.32133e-08
6.18148e-09
-1.77935e-08
5.60466e-09
9.2462e-09
2.94264e-09
1.35425e-08
-1.06533e-08
-2.06827e-08
2.49154e-08
-7.98463e-10
-1.05744e-08
2.08207e-08
9.69931e-09
-1.44971e-08
2.15974e-08
-7.48972e-09
3.89426e-10
-7.77447e-09
-9.40937e-09
1.63854e-08
-5.07651e-09
-9.54378e-09
3.9669e-09
-1.17275e-08
-1.41372e-08
1.13675e-08
-2.03625e-08
-1.26585e-09
9.90093e-09
-1.89069e-08
6.8268e-09
7.0036e-09
-3.04145e-09
-7.05064e-09
-1.02705e-08
-7.7993e-09
-9.37937e-09
-1.29923e-08
-1.87825e-09
6.10609e-09
-2.9616e-09
-5.256e-09
-4.77468e-09
-8.07134e-09
-7.74755e-09
-1.12709e-08
5.5285e-09
3.86422e-09
-8.34423e-09
3.29556e-09
-6.22224e-09
-1.25027e-09
-5.82619e-09
-9.94826e-10
7.8902e-09
-5.8511e-09
-3.28923e-09
1.1926e-09
-3.6327e-09
1.03304e-08
1.04918e-08
-2.63633e-09
-6.66284e-09
5.07285e-09
6.10096e-09
-6.81933e-10
9.30915e-10
1.66725e-09
-8.42437e-09
-7.53217e-09
2.61201e-09
-4.87158e-09
-8.72864e-09
-6.5129e-09
7.89773e-09
1.64123e-11
-3.23372e-09
-3.80763e-09
6.03312e-10
4.21492e-09
-1.03124e-09
-9.07932e-09
5.89564e-09
4.01908e-09
-4.35721e-09
4.55307e-09
-1.22387e-09
-9.51743e-09
1.47604e-08
-2.1183e-08
1.61964e-08
9.64945e-09
-4.66278e-09
1.86839e-09
-1.07866e-08
-8.87427e-09
1.77924e-08
-1.16199e-08
-7.69478e-09
1.99869e-08
-6.62353e-09
-1.45872e-08
8.06161e-09
1.29995e-08
-1.07423e-09
5.26567e-09
7.87316e-09
-1.41701e-08
-1.29778e-08
-1.02977e-08
-5.98931e-09
-1.37214e-09
1.76592e-08
-3.25488e-09
3.60227e-09
-1.0645e-08
8.11707e-09
-4.79477e-09
1.20171e-09
-4.52399e-09
4.04151e-09
8.94355e-09
-4.86797e-09
3.7794e-09
2.65854e-09
-1.12327e-08
1.82687e-08
2.59563e-09
-5.50909e-09
-5.27142e-09
7.94083e-09
-7.47685e-09
-1.0494e-09
-1.06802e-08
6.98273e-09
-3.04865e-09
-5.03588e-09
3.43168e-10
5.32592e-09
-5.20148e-09
-4.67586e-10
6.81131e-09
-5.93776e-09
-5.30371e-10
7.09564e-10
-1.93927e-09
8.04105e-09
-1.06971e-09
7.10521e-09
2.00989e-09
-6.1303e-09
-1.08106e-09
-7.27755e-09
-3.05954e-09
9.26738e-09
-4.81438e-09
-4.53277e-10
1.34476e-09
9.10601e-10
-8.38565e-09
-7.13641e-09
2.54342e-09
9.0171e-10
2.03431e-09
8.5085e-09
-1.14445e-08
9.21212e-09
-1.02497e-08
-7.07906e-09
6.05385e-09
-6.89825e-09
-4.99517e-09
-8.46223e-09
2.47458e-09
6.5297e-09
1.28296e-08
-1.07771e-08
-8.58228e-09
1.00421e-08
-3.40761e-09
-1.04813e-10
4.75428e-09
1.16092e-08
-3.53397e-09
1.25323e-08
2.26407e-09
-4.50564e-09
3.17426e-09
-2.07628e-09
-1.26474e-08
-2.63525e-09
-1.67824e-08
7.86195e-09
-6.32685e-09
1.15361e-09
5.50655e-09
1.14311e-08
-1.42023e-08
-2.73537e-09
1.17087e-09
1.15597e-08
-7.22406e-09
-6.64174e-09
3.80992e-09
-4.28467e-09
7.11641e-09
-2.04322e-09
-1.09254e-08
-3.38673e-09
1.50586e-08
7.82487e-09
-3.47975e-09
-1.90027e-09
9.04667e-09
3.01712e-09
6.64231e-09
7.45525e-09
5.24695e-09
7.84927e-10
-1.37479e-09
-4.65713e-09
-3.27629e-09
6.51218e-09
2.01102e-09
4.80957e-09
-5.83143e-10
-3.44152e-09
1.78747e-09
-2.54189e-10
3.74988e-10
1.18292e-09
-1.06183e-08
8.55328e-09
-9.55308e-09
1.53335e-09
2.47952e-09
2.4993e-09
5.92012e-09
-1.61696e-09
-4.8863e-09
9.01777e-10
6.80582e-09
6.43006e-09
6.56297e-09
5.24314e-09
2.72027e-09
2.3423e-09
5.40212e-09
-5.26488e-09
-5.98017e-09
2.93051e-09
9.39814e-09
-7.08549e-09
9.63088e-09
2.28362e-10
-1.55865e-09
-5.98962e-09
7.31986e-09
-1.64062e-09
-8.00119e-09
-2.96705e-09
1.26088e-08
-6.49284e-09
2.19717e-09
4.08171e-09
2.13885e-10
-2.62254e-09
2.5752e-09
1.168e-08
-1.16327e-08
5.40379e-09
-7.65861e-10
-5.05779e-09
4.19765e-10
1.3321e-08
-9.83515e-09
-5.12652e-09
-2.40969e-10
1.09395e-08
4.37337e-09
-8.16973e-09
-4.20486e-09
-3.10003e-09
7.11776e-09
3.55626e-10
1.14869e-09
-9.18898e-09
1.74825e-09
-1.40292e-08
1.34296e-08
7.81165e-09
-8.42368e-09
1.23111e-11
5.99733e-10
-6.57072e-09
8.35484e-09
6.02755e-09
5.81354e-09
-6.039e-10
1.03141e-10
-5.31278e-09
2.68424e-09
2.93007e-11
3.92936e-09
-8.88314e-09
-3.46989e-09
4.28812e-11
-7.91201e-10
-7.98242e-09
1.03315e-08
4.45789e-09
-9.93164e-09
-3.71524e-09
-9.95907e-09
3.87715e-10
-9.98059e-09
3.38084e-11
-7.4356e-10
-8.03644e-09
-2.70974e-10
-1.03554e-08
-2.95661e-10
-1.04285e-08
-1.04983e-08
-6.14157e-09
7.96453e-09
-1.89748e-09
7.45008e-11
9.04569e-09
-6.19316e-09
1.36517e-09
6.52872e-09
1.15177e-09
2.58612e-09
6.74357e-09
-2.03289e-09
2.1616e-09
-2.02625e-09
1.40487e-09
1.85486e-09
5.4987e-09
-6.1544e-09
-1.19916e-09
5.95821e-09
-5.13535e-09
1.03196e-09
-3.09163e-09
3.54029e-09
5.05001e-09
1.42837e-09
1.43824e-09
5.13836e-09
-3.88365e-09
5.27403e-09
2.98724e-09
-9.5449e-09
7.96256e-09
-1.67215e-09
-1.19116e-09
-3.2911e-09
-4.64591e-09
-4.07355e-09
6.38711e-09
1.22677e-09
7.10124e-09
-5.30512e-09
3.64087e-09
-6.13157e-10
-4.69306e-11
-1.85116e-09
-8.50944e-09
1.04075e-08
-1.30805e-09
-6.39038e-09
7.65152e-09
4.8764e-10
-9.58185e-09
7.24308e-09
-6.96257e-09
6.14217e-09
-2.82889e-09
-8.90924e-09
4.77562e-09
2.01081e-09
-5.07969e-09
2.39992e-10
-4.95433e-09
5.74778e-10
4.62199e-09
-4.24894e-09
-5.4527e-09
-2.05206e-09
-2.23516e-09
-6.75234e-09
1.07678e-08
-6.0675e-09
8.38701e-09
-1.86481e-09
-1.32745e-08
-2.31946e-09
3.50545e-09
6.14233e-09
-7.4776e-11
-6.11289e-09
3.74579e-09
-5.41689e-09
-5.65031e-09
-1.15306e-08
-4.15612e-09
-4.59841e-09
3.50784e-09
5.24667e-09
-5.2541e-09
-1.90147e-09
2.99944e-09
-1.01639e-09
-3.79926e-09
2.1719e-10
-5.86731e-09
-4.03217e-10
-8.08244e-09
3.31335e-09
2.8676e-09
1.51893e-09
-1.5607e-09
-5.82555e-09
2.52681e-10
-6.8162e-09
-7.50808e-09
5.99013e-09
4.83126e-09
-4.82938e-09
9.13017e-10
1.1707e-10
-3.94154e-10
-5.99594e-09
-1.13592e-08
3.75304e-09
9.80475e-11
-2.61391e-09
-8.4926e-09
-4.0265e-09
5.45061e-09
-8.08722e-09
6.66307e-09
-2.65068e-09
-4.62827e-10
-1.01595e-09
9.97435e-09
-9.26912e-09
1.42433e-08
-2.02618e-09
-1.48341e-08
1.42463e-08
-7.35029e-09
2.32206e-09
-3.05904e-09
-5.79238e-09
-4.20862e-09
5.47037e-09
-1.09865e-08
-8.21271e-09
2.01445e-09
8.47118e-09
3.80126e-09
-1.42868e-08
-1.71518e-09
-9.93764e-09
1.50619e-08
-3.40896e-09
-8.9685e-09
1.21063e-08
-4.8529e-09
-4.7113e-09
1.23715e-08
-1.31994e-08
5.5392e-09
1.44234e-09
-1.51221e-08
6.86952e-09
-1.53648e-08
1.2687e-08
-8.8198e-09
3.00236e-09
8.75749e-09
5.94395e-09
-3.22079e-09
8.98833e-11
1.52372e-08
1.22296e-08
-3.07873e-09
1.29173e-08
7.78348e-09
-8.14848e-10
4.5553e-09
1.13215e-08
1.07905e-09
6.86365e-09
7.97156e-11
1.21834e-08
-6.05239e-09
-3.25891e-09
-3.09761e-09
6.43624e-09
-2.26309e-09
-4.4907e-09
3.49492e-09
-8.9068e-09
2.09051e-10
3.31995e-09
5.37784e-09
1.86987e-09
-6.40199e-09
2.26906e-09
3.7857e-09
-5.01343e-09
-1.2843e-08
3.7742e-10
2.97315e-09
-7.25479e-09
-6.28011e-09
2.7815e-09
-2.90338e-09
3.57229e-09
3.60247e-09
-9.75944e-09
2.58472e-09
8.66785e-09
6.46244e-09
-1.15579e-08
-1.33425e-08
5.69111e-09
-9.00662e-09
1.6658e-08
-9.88903e-10
-1.49966e-08
2.64298e-09
1.12461e-08
-9.23518e-09
4.03318e-09
-6.04407e-09
1.23943e-08
7.30553e-10
9.36363e-09
-1.17793e-08
1.42677e-09
-5.1586e-10
1.55706e-08
5.32403e-09
-4.70905e-09
1.44819e-08
-6.73516e-09
9.21154e-10
7.60609e-09
2.20491e-09
-3.34858e-09
9.52273e-09
1.28733e-08
-7.91414e-09
1.54246e-08
1.70424e-09
4.53417e-09
-1.37847e-08
-5.74609e-09
-6.1642e-09
1.69173e-09
-1.36514e-09
-1.16889e-08
4.60442e-09
5.29627e-09
-6.2982e-09
-3.95258e-09
1.07619e-08
7.91272e-09
-5.03157e-09
2.41512e-09
8.77772e-09
-5.04452e-10
-3.60544e-10
-4.89256e-09
5.32352e-09
5.11167e-09
-5.54265e-09
-1.78665e-09
8.49571e-09
5.93231e-09
7.70563e-09
-2.53097e-10
4.13824e-09
-4.25276e-09
9.06041e-09
6.09512e-09
4.82509e-09
-1.11733e-08
7.77467e-09
-7.46033e-09
-1.29646e-09
9.07051e-09
-8.48329e-10
-5.23244e-09
-1.37951e-09
7.2585e-09
-5.34983e-09
-2.75701e-09
-6.71129e-10
6.63314e-09
-1.5985e-10
-4.72602e-09
3.89513e-09
-4.49548e-09
3.66451e-09
-2.41107e-09
-1.60794e-10
-3.70551e-09
-8.28072e-09
-2.62812e-09
-9.43274e-10
-6.31533e-09
-1.21085e-09
-4.98916e-09
8.50228e-10
3.40505e-09
-4.39945e-09
-2.16448e-10
9.58288e-10
-4.49459e-09
-1.18982e-09
-1.32133e-10
2.70286e-09
-7.65087e-09
-4.11921e-11
2.41877e-09
-4.11538e-09
-2.23666e-09
5.21279e-09
2.13561e-09
-5.0443e-09
-2.30409e-09
-4.42075e-09
4.08587e-09
-2.10348e-09
-1.81659e-10
4.70905e-09
-5.61245e-09
-7.83888e-09
-9.01437e-10
-1.75085e-09
-3.18065e-09
-3.1946e-09
2.3936e-09
-4.83842e-09
-4.45709e-10
-3.66645e-09
6.69235e-10
-1.973e-10
-3.46605e-09
-5.03881e-09
4.25339e-09
-9.9518e-10
-8.87064e-09
2.01103e-10
-4.08638e-09
-1.85936e-09
-8.54761e-09
-9.72635e-09
1.67297e-08
-6.97009e-09
-3.332e-11
6.95778e-09
-1.86985e-09
-1.48143e-08
-1.06206e-08
6.00007e-10
2.74374e-09
7.27679e-09
7.37764e-09
-1.10405e-08
2.79219e-09
-8.39949e-09
1.29849e-08
7.14472e-09
-1.68973e-08
7.88266e-09
1.40185e-08
3.31109e-09
-1.08219e-08
1.96021e-08
-1.46636e-08
5.88347e-09
2.0399e-08
-5.75514e-09
-2.54658e-08
-3.64757e-09
5.26551e-09
1.79841e-08
2.381e-09
1.43703e-08
-1.24917e-08
1.27136e-08
1.45957e-09
-1.68156e-09
-3.42599e-09
-6.27347e-09
4.39229e-09
-1.1666e-09
-1.78893e-08
3.41433e-09
1.29852e-08
-1.29521e-09
-7.47146e-09
1.2181e-08
-9.86655e-09
1.38369e-08
-8.50948e-09
1.18976e-08
-1.08596e-08
2.1281e-09
2.07603e-09
1.00319e-08
-6.31317e-09
-1.36479e-08
5.9095e-09
7.76257e-10
1.23985e-08
-9.39059e-10
-8.96498e-09
-2.49449e-09
2.29442e-09
5.1151e-11
1.00529e-08
-7.9506e-09
8.98197e-09
1.26309e-09
-1.96961e-09
-6.92004e-09
5.91119e-09
-7.25742e-09
-7.61877e-09
-1.6872e-08
3.25285e-09
1.36703e-08
-5.4189e-09
-5.54196e-09
-2.33572e-09
3.27643e-09
1.50867e-09
5.76763e-09
-1.33637e-09
-1.46271e-08
1.01958e-08
-4.90013e-10
2.81713e-09
-1.17692e-08
3.17542e-09
1.19791e-08
-1.1062e-08
3.81175e-09
-3.40731e-09
6.58297e-09
-6.98747e-09
-5.48729e-10
8.62589e-09
-4.26544e-09
3.24403e-09
8.43182e-10
-7.49455e-09
6.51177e-09
-3.81649e-09
-2.70609e-09
7.40586e-09
3.92611e-09
3.66897e-09
2.07869e-10
8.12394e-09
7.01748e-09
-1.42983e-08
6.29664e-09
8.27172e-09
-6.44443e-09
2.70881e-09
-1.23499e-08
2.78429e-09
6.85674e-09
3.96239e-09
1.06881e-08
-1.19417e-08
-8.97954e-09
3.14147e-09
1.6473e-09
4.43102e-09
2.18283e-10
2.0964e-09
1.05441e-10
4.81559e-09
7.36422e-09
3.00389e-09
4.19404e-09
5.99611e-09
4.91079e-09
4.0546e-10
5.99221e-09
5.80301e-09
1.4152e-09
7.6896e-09
1.82351e-09
-1.02067e-09
-6.10792e-09
-3.23949e-10
-3.05143e-09
5.19893e-09
-1.43915e-09
-2.24789e-09
3.36309e-09
-5.26098e-09
2.80117e-09
-1.99904e-09
-3.17804e-09
2.11922e-09
3.05786e-09
-5.49311e-09
1.11602e-09
2.37806e-09
1.54112e-09
1.69403e-09
-4.24987e-09
4.71246e-09
-4.20796e-09
1.3356e-09
-2.11623e-09
-1.81752e-09
-2.49208e-11
2.75591e-10
-3.14865e-09
-1.78335e-10
-6.2926e-09
4.60304e-10
-1.83793e-09
1.70924e-09
4.38612e-09
2.14615e-09
-2.26964e-09
-1.53033e-09
-4.79618e-09
1.06551e-09
-3.07867e-09
-2.89603e-10
2.34481e-09
-3.27732e-09
1.63642e-10
-2.61502e-09
3.06123e-08
6.69476e-09
-9.09363e-09
-2.82134e-08
-1.06749e-08
2.1768e-08
3.18703e-08
-2.38214e-08
-1.35405e-09
-4.12004e-09
2.34056e-08
1.25848e-08
1.59738e-08
5.94805e-09
-2.60419e-08
2.98325e-08
-4.66918e-09
-3.4257e-08
8.15093e-09
1.10066e-08
-1.79828e-08
-3.3348e-10
2.9342e-08
-1.10258e-08
2.25581e-09
-2.49077e-08
7.36353e-09
3.78101e-08
9.26241e-09
-7.77796e-09
1.44893e-08
-1.51153e-08
2.39498e-08
-9.16796e-09
-1.9346e-08
6.48649e-09
1.90631e-08
1.84299e-08
-7.74246e-09
2.43684e-08
5.20789e-09
1.0964e-08
1.65285e-08
-4.46391e-09
-4.747e-09
3.97509e-09
5.23579e-09
-3.82061e-09
-3.21446e-10
-3.21909e-10
3.58952e-09
-3.00787e-09
-4.40228e-09
-2.24705e-10
-9.32795e-10
8.06838e-09
-5.76508e-09
-2.52801e-09
3.36457e-09
-2.9756e-09
7.67938e-09
4.73855e-09
-2.47874e-09
-8.0249e-09
9.03736e-09
-2.46978e-09
-1.82906e-09
8.79282e-09
-1.45319e-09
3.25236e-09
2.80937e-09
-1.49253e-09
4.06076e-09
-5.03805e-09
-6.97915e-09
-4.21894e-09
4.13616e-09
-2.38717e-10
-5.7677e-09
5.6095e-09
-5.94652e-09
-2.6346e-09
1.92556e-09
6.65554e-09
2.2094e-09
-3.27245e-09
-4.88348e-09
-7.44323e-09
3.11188e-10
4.4974e-09
-2.14608e-09
-3.08777e-09
-2.16331e-10
4.24425e-09
-3.50857e-09
-5.19358e-10
-6.79101e-10
-2.80967e-09
-3.81086e-09
-5.09014e-10
6.24545e-09
-3.98618e-09
1.56026e-09
2.73708e-09
4.02346e-09
-3.13983e-09
-3.02973e-09
-1.53844e-09
1.5757e-09
-1.27604e-09
1.70944e-09
2.3766e-09
-4.26189e-09
-1.62325e-09
-2.59526e-09
3.64651e-09
2.16917e-09
-4.14426e-09
-1.16473e-09
9.30803e-10
-3.00079e-10
1.51637e-09
-4.15778e-10
-1.48085e-10
1.35e-08
1.85884e-08
-2.30052e-08
-9.08324e-09
2.86684e-08
-2.18757e-08
6.70734e-09
2.36033e-08
-2.77273e-09
-2.24213e-09
-9.60082e-09
1.14128e-08
2.17913e-08
1.35715e-08
5.49598e-09
9.38605e-10
-2.27975e-08
-1.14625e-09
-6.63502e-10
-2.02736e-08
-2.79184e-09
-2.53493e-08
6.57675e-09
2.15643e-08
-2.64893e-08
1.98473e-08
3.85012e-09
-3.57678e-09
1.72897e-08
-1.64855e-08
2.10967e-08
-9.03548e-09
-6.48407e-10
2.48406e-09
-1.67571e-09
-2.72975e-08
-2.35287e-08
1.40131e-08
9.22648e-09
-2.04875e-08
-3.01802e-10
-1.03672e-08
-2.78022e-09
9.97716e-09
3.17033e-09
2.72575e-09
-2.21297e-09
-1.088e-08
3.6406e-09
6.98413e-09
-5.71891e-09
-4.90575e-09
-3.78154e-11
3.87838e-09
-1.99961e-10
6.14244e-09
-6.66148e-09
3.46855e-09
-2.94949e-09
-3.4026e-09
6.07747e-09
3.46755e-09
3.0523e-09
-4.2939e-09
-5.41988e-09
-1.89213e-10
-1.61072e-10
3.19212e-09
-4.52942e-10
1.62899e-09
-4.36816e-09
3.37502e-09
-2.2071e-10
-9.36998e-09
7.11537e-09
-5.256e-10
-1.62052e-10
-6.48218e-09
-6.68656e-09
6.00507e-09
4.55989e-09
7.1643e-11
2.25951e-10
8.76121e-09
1.2876e-09
-8.38483e-09
-6.24632e-10
2.76734e-10
6.42538e-09
-2.85932e-10
3.12991e-09
3.31696e-09
-1.31151e-10
-2.82696e-09
-4.88469e-10
4.08216e-09
-1.11725e-09
1.21881e-09
8.65967e-09
5.71221e-09
6.73542e-09
7.31878e-11
7.06872e-10
4.64688e-09
-5.42694e-09
1.76895e-10
3.33145e-09
-3.43513e-09
4.23625e-09
3.51086e-10
-4.41043e-09
6.11631e-09
7.04363e-10
-6.11383e-09