/*--------------------------------*- C++ -*----------------------------------*\
| =========                 |                                                 |
| \\      /  F ield         | OpenFOAM: The Open Source CFD Toolbox           |
|  \\    /   O peration     | Version:  v1612+                                |
|   \\  /    A nd           | Web:      www.OpenFOAM.com                      |
|    \\/     M anipulation  |                                                 |
\*---------------------------------------------------------------------------*/
FoamFile
{
    version     2.0;
    format      ascii;
    class       volVectorField;
    location    "166";
    object      U;
}
// * * * * * * * * * * * * * * * * * * * * * * * * * * * * * * * * * * * * * //

dimensions      [0 1 -1 0 0 0 0];

internalField   nonuniform List<vector> 
17128
(
(-0.155115 0.627495 -0.36887)
(-0.233678 0.819243 -0.530947)
(-0.192314 0.918271 -0.47197)
(-0.249063 0.983218 -0.579275)
(-0.25344 1.02655 -0.582113)
(-0.24588 0.925971 -0.57519)
(-0.250182 1.02032 -0.594293)
(-0.252853 1.04693 -0.583341)
(-0.246973 1.02814 -0.587432)
(-0.259541 1.02531 -0.596396)
(-0.253964 0.997174 -0.584601)
(-0.2494 1.06607 -0.601073)
(-0.26011 1.03487 -0.603543)
(-0.25657 1.02361 -0.610786)
(-0.250312 0.997273 -0.59406)
(-0.255834 1.00635 -0.603371)
(-0.259606 1.00782 -0.607023)
(-0.259834 0.986282 -0.607114)
(-0.260197 0.983368 -0.591592)
(-0.247248 1.04118 -0.605342)
(-0.261266 1.00915 -0.597446)
(-0.26165 1.00677 -0.614866)
(-0.254291 1.02683 -0.593765)
(-0.281694 1.05667 -0.634289)
(-0.180743 0.795124 -0.358319)
(-0.172033 0.740385 -0.346875)
(-0.177433 0.769109 -0.356084)
(-0.169924 0.729529 -0.332737)
(-0.185058 0.825682 -0.360506)
(-0.148529 0.612412 -0.289932)
(-0.160202 0.644035 -0.293713)
(-0.182116 0.804114 -0.366413)
(-0.180942 0.843524 -0.374923)
(-0.182391 0.792076 -0.354402)
(-0.181891 0.834813 -0.379695)
(-0.147176 0.588894 -0.275765)
(-0.155278 0.634537 -0.292621)
(-0.18156 0.860446 -0.378367)
(-0.167587 0.745892 -0.337409)
(-0.167446 0.767357 -0.344719)
(-0.171989 0.703699 -0.457399)
(-0.161839 0.694832 -0.457911)
(-0.196976 0.759215 -0.466963)
(-0.181162 0.776462 -0.46169)
(-0.140506 0.552988 -0.403312)
(-0.19632 0.711748 -0.448779)
(-0.150291 0.507112 -0.391326)
(-0.17665 0.573916 -0.423575)
(-0.144146 0.615617 -0.414359)
(-0.135916 0.523892 -0.381645)
(-0.195123 0.736291 -0.451404)
(-0.165043 0.7164 -0.443459)
(-0.122558 0.469083 -0.353623)
(-0.155369 0.540069 -0.395142)
(-0.169365 0.850477 -0.397213)
(-0.167642 0.848649 -0.402369)
(-0.186573 0.934235 -0.426563)
(-0.194679 0.95991 -0.436808)
(-0.181629 0.905337 -0.424944)
(-0.186128 0.866083 -0.41914)
(-0.170725 0.851505 -0.412713)
(-0.21289 1.06547 -0.478793)
(-0.213025 1.06389 -0.480733)
(-0.197881 0.975352 -0.442179)
(-0.204662 1.01201 -0.459909)
(-0.206656 0.965763 -0.458801)
(-0.186389 0.90899 -0.440473)
(-0.198507 0.968288 -0.444098)
(-0.210991 1.01583 -0.469396)
(-0.199736 0.969926 -0.461307)
(-0.199878 0.962549 -0.45017)
(-0.278511 0.981033 -0.643297)
(-0.282846 0.965124 -0.649123)
(-0.28135 0.976792 -0.661039)
(-0.28223 0.963473 -0.658405)
(-0.284835 0.922914 -0.649845)
(-0.274263 0.965308 -0.631393)
(-0.276916 0.958917 -0.644238)
(-0.282132 0.919128 -0.648894)
(-0.26698 0.924868 -0.621648)
(-0.27726 0.9162 -0.630845)
(-0.266172 0.999756 -0.630049)
(-0.278084 0.970478 -0.633378)
(-0.265146 0.916542 -0.602817)
(-0.270328 0.881263 -0.611652)
(-0.281283 0.989514 -0.649309)
(-0.156356 0.770009 -0.403216)
(-0.167605 0.796597 -0.419976)
(-0.158219 0.736938 -0.397222)
(-0.136675 0.660669 -0.36707)
(-0.144913 0.741594 -0.395822)
(-0.191593 0.901697 -0.447659)
(-0.178557 0.859035 -0.441833)
(-0.171999 0.846481 -0.446205)
(-0.189656 0.89922 -0.458029)
(-0.142946 0.706597 -0.387202)
(-0.122745 0.641001 -0.376293)
(-0.168685 0.825029 -0.432918)
(-0.181051 0.85683 -0.447742)
(-0.134571 0.699903 -0.400375)
(-0.134239 0.699524 -0.394124)
(-0.155234 0.761759 -0.413361)
(-0.14653 0.759969 -0.398097)
(-0.15378 0.76045 -0.423308)
(-0.137661 0.699626 -0.379491)
(-0.142938 0.7149 -0.395418)
(-0.182921 0.745472 -0.510151)
(-0.162109 0.610322 -0.490696)
(-0.134074 0.573253 -0.473728)
(-0.117948 0.524237 -0.457238)
(-0.141889 0.651995 -0.490751)
(-0.142578 0.614978 -0.495354)
(-0.175284 0.768636 -0.532355)
(-0.171489 0.710038 -0.506714)
(-0.174506 0.674604 -0.532967)
(-0.154198 0.627831 -0.495304)
(-0.155281 0.675808 -0.488895)
(-0.129533 0.60491 -0.461153)
(-0.137494 0.583306 -0.471495)
(-0.139469 0.626286 -0.463592)
(-0.169373 0.71604 -0.506059)
(-0.135168 0.630664 -0.462685)
(-0.153394 0.689256 -0.499447)
(-0.133617 0.619266 -0.462481)
(-0.128683 0.588154 -0.465621)
(-0.159621 0.756999 -0.421191)
(-0.135496 0.669027 -0.377208)
(-0.142688 0.696919 -0.401017)
(-0.129753 0.643558 -0.366599)
(-0.162866 0.769065 -0.396733)
(-0.14255 0.687617 -0.387616)
(-0.131227 0.625398 -0.354622)
(-0.151553 0.699092 -0.399684)
(-0.163704 0.804859 -0.415966)
(-0.16469 0.753768 -0.388884)
(-0.149372 0.711367 -0.36718)
(-0.15708 0.731092 -0.388935)
(-0.137477 0.66734 -0.366621)
(-0.162316 0.788258 -0.423831)
(-0.160245 0.736788 -0.381354)
(-0.150338 0.701336 -0.37379)
(-0.135284 0.657963 -0.368233)
(-0.175368 0.658374 -0.316806)
(-0.165465 0.638217 -0.31222)
(-0.171329 0.602441 -0.308253)
(-0.16594 0.629023 -0.306804)
(-0.179781 0.735689 -0.347513)
(-0.176257 0.711782 -0.339254)
(-0.17002 0.622785 -0.301868)
(-0.169975 0.662265 -0.314306)
(-0.184109 0.764769 -0.370555)
(-0.196691 0.837867 -0.399741)
(-0.181159 0.8069 -0.376809)
(-0.200405 0.849221 -0.404072)
(-0.190936 0.820775 -0.393048)
(-0.177773 0.741984 -0.346672)
(-0.17513 0.69686 -0.34188)
(-0.192471 0.839983 -0.389614)
(-0.203005 0.905485 -0.42341)
(-0.20824 0.913595 -0.435242)
(-0.204605 0.905547 -0.429266)
(-0.177587 0.736091 -0.356431)
(-0.200973 0.87564 -0.413377)
(-0.196435 0.794746 -0.389417)
(-0.169145 0.875033 -0.384265)
(-0.199941 0.96884 -0.44064)
(-0.180179 0.90286 -0.412977)
(-0.156473 0.780958 -0.36354)
(-0.162822 0.805573 -0.380035)
(-0.163946 0.782752 -0.368272)
(-0.154443 0.731644 -0.352553)
(-0.168437 0.812516 -0.374641)
(-0.157633 0.740473 -0.362118)
(-0.145535 0.712588 -0.344709)
(-0.185995 0.920847 -0.416946)
(-0.167025 0.829465 -0.3933)
(-0.157661 0.773491 -0.368138)
(-0.182696 0.907418 -0.413126)
(-0.162454 0.751956 -0.364809)
(-0.188321 0.916629 -0.424333)
(-0.197894 0.963233 -0.429963)
(-0.186794 0.912518 -0.417043)
(-0.171766 0.504459 -0.421267)
(-0.18038 0.596894 -0.437963)
(-0.162114 0.456998 -0.405097)
(-0.190008 0.516838 -0.431103)
(-0.17959 0.489067 -0.418568)
(-0.201159 0.738948 -0.491226)
(-0.205138 0.786341 -0.503703)
(-0.200899 0.683937 -0.46367)
(-0.205403 0.694998 -0.467211)
(-0.183044 0.529137 -0.429625)
(-0.174337 0.462708 -0.411402)
(-0.16432 0.443718 -0.406487)
(-0.196322 0.717397 -0.494031)
(-0.163343 0.580298 -0.461931)
(-0.151229 0.516391 -0.433438)
(-0.206182 0.640694 -0.458794)
(-0.215589 0.69089 -0.470959)
(-0.210366 0.707943 -0.507728)
(-0.212882 0.712111 -0.503631)
(-0.163043 0.523402 -0.445467)
(-0.195691 0.737132 -0.381058)
(-0.193889 0.713951 -0.373296)
(-0.202131 0.856291 -0.42608)
(-0.198529 0.815904 -0.406777)
(-0.183777 0.724891 -0.369639)
(-0.197863 0.728926 -0.387971)
(-0.190778 0.650668 -0.347808)
(-0.208079 0.841538 -0.421636)
(-0.207101 0.860768 -0.422542)
(-0.200733 0.846458 -0.411209)
(-0.186104 0.769494 -0.382632)
(-0.185679 0.709224 -0.357538)
(-0.183138 0.702649 -0.35611)
(-0.180362 0.634274 -0.326201)
(-0.190805 0.752182 -0.390701)
(-0.201486 0.781888 -0.396443)
(-0.19152 0.690805 -0.354213)
(-0.196048 0.731756 -0.381296)
(-0.138442 0.548878 -0.367639)
(-0.139748 0.574451 -0.372731)
(-0.163231 0.600316 -0.386371)
(-0.148556 0.577557 -0.381685)
(-0.112092 0.468896 -0.305115)
(-0.119488 0.500012 -0.330549)
(-0.150021 0.550926 -0.36598)
(-0.156477 0.564605 -0.370149)
(-0.124214 0.441037 -0.314993)
(-0.123825 0.483388 -0.340117)
(-0.138654 0.485633 -0.306315)
(-0.148465 0.506632 -0.326219)
(-0.147191 0.489666 -0.338354)
(-0.109306 0.458556 -0.316535)
(-0.108112 0.378563 -0.262902)
(-0.153598 0.484917 -0.31492)
(-0.15033 0.449955 -0.290611)
(-0.128267 0.445093 -0.290549)
(-0.146597 0.43595 -0.29245)
(-0.128599 0.372505 -0.254978)
(-0.120766 0.391408 -0.259732)
(-0.193517 0.663304 -0.415702)
(-0.157127 0.473744 -0.357043)
(-0.160403 0.45441 -0.353591)
(-0.184736 0.548775 -0.375582)
(-0.181237 0.513898 -0.371011)
(-0.188552 0.536445 -0.386467)
(-0.135752 0.608286 -0.287267)
(-0.140094 0.58965 -0.287069)
(-0.136162 0.573615 -0.278321)
(-0.123562 0.603441 -0.301641)
(-0.126289 0.567532 -0.286931)
(-0.14033 0.651049 -0.311546)
(-0.138544 0.642148 -0.300436)
(-0.166726 0.706597 -0.338)
(-0.175637 0.742411 -0.351077)
(-0.112232 0.551822 -0.268653)
(-0.169789 0.785461 -0.366042)
(-0.151913 0.69819 -0.336456)
(-0.162097 0.721881 -0.33554)
(-0.153761 0.678119 -0.325604)
(-0.154351 0.7235 -0.344957)
(-0.163536 0.773424 -0.367906)
(-0.159125 0.746074 -0.352281)
(-0.17029 0.771993 -0.36741)
(-0.173253 0.81514 -0.389081)
(-0.228505 0.95189 -0.528601)
(-0.225503 0.898259 -0.513908)
(-0.232967 0.924993 -0.53486)
(-0.222488 0.86987 -0.505924)
(-0.231677 0.893617 -0.540692)
(-0.230287 0.966897 -0.542155)
(-0.229064 0.989656 -0.541751)
(-0.228028 0.895528 -0.524778)
(-0.224608 0.870719 -0.521861)
(-0.233435 0.993505 -0.560334)
(-0.239021 1.02465 -0.581318)
(-0.222152 0.909176 -0.552047)
(-0.218494 0.908119 -0.542264)
(-0.234851 1.0075 -0.56394)
(-0.233419 0.994139 -0.559291)
(-0.240008 0.997695 -0.566675)
(-0.236926 1.01171 -0.564745)
(-0.231205 0.919989 -0.533736)
(-0.228511 0.860604 -0.534493)
(-0.233048 0.975386 -0.571289)
(-0.23526 0.920095 -0.552481)
(-0.237134 0.988312 -0.583322)
(-0.240035 0.913102 -0.593846)
(-0.258559 0.92534 -0.596658)
(-0.266382 0.946945 -0.636685)
(-0.225585 0.871309 -0.548545)
(-0.236924 0.926625 -0.60155)
(-0.231723 0.847499 -0.556283)
(-0.230091 0.892816 -0.564253)
(-0.22582 0.841149 -0.542504)
(-0.223482 0.838755 -0.545739)
(-0.212382 0.771215 -0.502974)
(-0.23895 0.873037 -0.577978)
(-0.228914 0.915821 -0.576408)
(-0.244162 0.945925 -0.601749)
(-0.223609 0.850536 -0.543957)
(-0.215829 0.914703 -0.554213)
(-0.213811 0.867365 -0.549092)
(-0.231013 0.856018 -0.545841)
(-0.199513 0.982979 -0.42862)
(-0.193655 0.983989 -0.425303)
(-0.20752 1.0428 -0.445695)
(-0.204103 1.04312 -0.446584)
(-0.199272 0.993119 -0.432414)
(-0.218956 1.07117 -0.475639)
(-0.211831 1.07946 -0.460916)
(-0.193959 1.00743 -0.432612)
(-0.214165 1.11879 -0.474127)
(-0.20567 1.05177 -0.452684)
(-0.204299 1.05581 -0.458311)
(-0.186868 0.944154 -0.411048)
(-0.208237 1.03726 -0.452177)
(-0.212283 1.11204 -0.477313)
(-0.220299 1.10757 -0.486663)
(-0.180213 0.928338 -0.40441)
(-0.167292 0.872053 -0.388106)
(-0.151478 0.805582 -0.371496)
(-0.164723 0.818296 -0.374613)
(-0.168142 0.88841 -0.391921)
(-0.168147 0.745427 -0.378318)
(-0.182666 0.829004 -0.425907)
(-0.202967 0.891133 -0.450184)
(-0.212906 0.966079 -0.487374)
(-0.214151 0.979122 -0.490304)
(-0.188686 0.897224 -0.430844)
(-0.190483 0.917242 -0.448623)
(-0.213709 0.995834 -0.483367)
(-0.191797 0.907164 -0.431951)
(-0.208078 0.983827 -0.482754)
(-0.1954 0.92959 -0.462507)
(-0.193149 0.891281 -0.451011)
(-0.184586 0.842029 -0.42606)
(-0.199471 0.925673 -0.448149)
(-0.198411 0.945057 -0.458473)
(-0.19696 0.890181 -0.441583)
(-0.135299 0.532045 -0.27685)
(-0.130685 0.547324 -0.280262)
(-0.164955 0.710187 -0.333742)
(-0.122957 0.482237 -0.256442)
(-0.163626 0.71593 -0.341223)
(-0.120643 0.495063 -0.258335)
(-0.119516 0.553031 -0.282494)
(-0.134493 0.645901 -0.299138)
(-0.123778 0.529737 -0.279089)
(-0.122989 0.487759 -0.257876)
(-0.181978 0.764234 -0.389845)
(-0.20831 0.886752 -0.438269)
(-0.168415 0.711554 -0.367624)
(-0.183253 0.783658 -0.392297)
(-0.198187 0.860887 -0.43661)
(-0.206211 0.891959 -0.445172)
(-0.200901 0.75237 -0.401832)
(-0.188454 0.783414 -0.411142)
(-0.15612 0.63866 -0.324253)
(-0.158649 0.637713 -0.319103)
(-0.16388 0.719662 -0.367566)
(-0.195295 0.812298 -0.417532)
(-0.168971 0.627632 -0.333246)
(-0.16678 0.622044 -0.334948)
(-0.147269 0.555259 -0.293929)
(-0.16555 0.625716 -0.318451)
(-0.184404 0.810697 -0.408313)
(-0.161161 0.658626 -0.352296)
(-0.163276 0.596727 -0.320017)
(-0.169406 0.67737 -0.353049)
(-0.207167 0.931652 -0.525879)
(-0.210467 0.922304 -0.5326)
(-0.203222 0.923341 -0.529803)
(-0.199133 0.861344 -0.49896)
(-0.229623 1.02668 -0.534019)
(-0.219687 1.00547 -0.530038)
(-0.223726 1.00447 -0.53622)
(-0.219667 1.00468 -0.525696)
(-0.221949 1.00544 -0.521716)
(-0.201023 0.873077 -0.491978)
(-0.203757 0.910839 -0.524629)
(-0.202212 0.93516 -0.52131)
(-0.19268 0.868366 -0.496994)
(-0.22773 1.00185 -0.539065)
(-0.209333 0.948315 -0.51247)
(-0.208249 0.964342 -0.527514)
(-0.196561 0.916954 -0.506789)
(-0.286922 0.916119 -0.684175)
(-0.304393 0.875989 -0.676094)
(-0.298255 0.877228 -0.678123)
(-0.174381 0.705624 -0.33338)
(-0.171137 0.712597 -0.333783)
(-0.159199 0.689905 -0.328906)
(-0.178519 0.833684 -0.381254)
(-0.178613 0.806552 -0.364521)
(-0.163379 0.7353 -0.34288)
(-0.163216 0.750128 -0.34845)
(-0.189884 0.874981 -0.410833)
(-0.190969 0.881116 -0.40727)
(-0.185253 0.857754 -0.394998)
(-0.187737 0.901577 -0.406788)
(-0.185261 0.770153 -0.369179)
(-0.191917 0.815314 -0.387069)
(-0.183252 0.832007 -0.378869)
(-0.174462 0.788479 -0.367475)
(-0.191771 0.859225 -0.395025)
(-0.18627 0.788258 -0.373142)
(-0.144883 0.67833 -0.44577)
(-0.145226 0.645999 -0.468037)
(-0.159443 0.689313 -0.479428)
(-0.162177 0.70761 -0.46452)
(-0.13531 0.64715 -0.445851)
(-0.125936 0.586319 -0.471292)
(-0.166691 0.680748 -0.474806)
(-0.113603 0.512725 -0.442383)
(-0.167778 0.786789 -0.507623)
(-0.202798 0.861528 -0.53568)
(-0.173734 0.7485 -0.482074)
(-0.168339 0.679722 -0.494637)
(-0.190023 0.800526 -0.525291)
(-0.196691 0.786112 -0.519685)
(-0.191503 0.7807 -0.520514)
(-0.280929 0.644556 -0.558653)
(-0.269321 0.676494 -0.573227)
(-0.274684 0.746999 -0.590206)
(-0.278059 0.745496 -0.60365)
(-0.292688 0.83688 -0.629089)
(-0.294007 0.811237 -0.637325)
(-0.292645 0.685407 -0.574908)
(-0.274514 0.7299 -0.572091)
(-0.269347 0.801502 -0.587512)
(-0.283843 0.840828 -0.616934)
(-0.279622 0.866678 -0.62353)
(-0.27683 0.740126 -0.622812)
(-0.285742 0.704604 -0.59897)
(-0.28919 0.834716 -0.630942)
(-0.304775 0.767273 -0.614404)
(-0.302883 0.736961 -0.604806)
(-0.299117 0.69399 -0.578352)
(-0.287761 0.830302 -0.610477)
(-0.276909 0.8235 -0.592563)
(-0.295528 0.728229 -0.585043)
(-0.166897 0.766745 -0.374784)
(-0.152287 0.721833 -0.358382)
(-0.18679 0.870839 -0.424591)
(-0.183593 0.858832 -0.415703)
(-0.170686 0.773508 -0.381321)
(-0.156686 0.781522 -0.380094)
(-0.183517 0.896035 -0.431508)
(-0.186693 0.872256 -0.434456)
(-0.167618 0.777426 -0.397155)
(-0.189497 0.900165 -0.443266)
(-0.176885 0.87197 -0.435694)
(-0.153859 0.753377 -0.367277)
(-0.180277 0.839635 -0.407437)
(-0.141554 0.714522 -0.384519)
(-0.155175 0.787958 -0.40316)
(-0.156809 0.775035 -0.397471)
(-0.158195 0.799854 -0.392002)
(-0.152799 0.780247 -0.393651)
(-0.142611 0.672808 -0.364332)
(-0.115505 0.619007 -0.326634)
(-0.263519 0.81156 -0.579808)
(-0.268082 0.821279 -0.572215)
(-0.272223 0.793036 -0.583094)
(-0.281511 0.833933 -0.597779)
(-0.256551 0.773308 -0.576828)
(-0.26921 0.708927 -0.543068)
(-0.271991 0.76517 -0.575358)
(-0.263669 0.570754 -0.530208)
(-0.26064 0.549319 -0.508782)
(-0.274535 0.655431 -0.548373)
(-0.264696 0.731681 -0.587653)
(-0.263401 0.547953 -0.499399)
(-0.266079 0.565392 -0.527656)
(-0.242207 0.656543 -0.564049)
(-0.247431 0.659831 -0.564443)
(-0.25872 0.719969 -0.555155)
(-0.261414 0.595985 -0.518697)
(-0.256783 0.559566 -0.526796)
(-0.171954 0.627926 -0.405255)
(-0.163726 0.575512 -0.380736)
(-0.161789 0.548182 -0.384226)
(-0.190833 0.795121 -0.428216)
(-0.1953 0.783559 -0.429316)
(-0.19705 0.781003 -0.430291)
(-0.195476 0.841404 -0.461083)
(-0.180814 0.702624 -0.424692)
(-0.182357 0.74833 -0.430355)
(-0.169992 0.538001 -0.360506)
(-0.15301 0.492221 -0.358413)
(-0.185638 0.742761 -0.424638)
(-0.189593 0.736648 -0.4226)
(-0.19384 0.769465 -0.431104)
(-0.189753 0.677569 -0.393724)
(-0.180836 0.709677 -0.419964)
(-0.157713 0.582611 -0.389547)
(-0.146584 0.534368 -0.372819)
(-0.156815 0.623975 -0.379746)
(-0.150319 0.575632 -0.361561)
(-0.165804 0.587869 -0.373688)
(-0.296864 0.841243 -0.660182)
(-0.299885 0.875519 -0.65917)
(-0.31683 0.766031 -0.656006)
(-0.302237 0.765202 -0.631852)
(-0.291759 0.704765 -0.612243)
(-0.293242 0.894695 -0.663321)
(-0.288753 0.842915 -0.648361)
(-0.288027 0.862783 -0.653611)
(-0.297914 0.890697 -0.669616)
(-0.286775 0.886812 -0.655296)
(-0.281264 0.861127 -0.637493)
(-0.281889 0.628054 -0.613323)
(-0.293356 0.673694 -0.623422)
(-0.291469 0.478399 -0.566306)
(-0.28941 0.48074 -0.577471)
(-0.288308 0.611206 -0.609986)
(-0.276245 0.588165 -0.592499)
(-0.293603 0.657193 -0.608033)
(-0.282841 0.507496 -0.564646)
(-0.294769 0.469168 -0.562222)
(-0.298396 0.45928 -0.55382)
(-0.316179 0.693148 -0.628081)
(-0.316299 0.678017 -0.629495)
(-0.304603 0.643868 -0.598478)
(-0.305406 0.706366 -0.617794)
(-0.295462 0.509333 -0.543293)
(-0.293866 0.478378 -0.539068)
(-0.313656 0.530852 -0.563758)
(-0.305873 0.53393 -0.548553)
(-0.2929 0.467173 -0.521177)
(-0.290545 0.637378 -0.597216)
(-0.316721 0.583093 -0.564127)
(-0.299704 0.536324 -0.542351)
(-0.290161 0.562705 -0.565172)
(-0.219869 0.730656 -0.566766)
(-0.221007 0.724003 -0.572676)
(-0.209323 0.708302 -0.559044)
(-0.194489 0.683694 -0.535265)
(-0.246276 0.85699 -0.605734)
(-0.254576 0.842237 -0.602594)
(-0.256397 0.881134 -0.591215)
(-0.258975 0.930612 -0.59034)
(-0.237267 0.746862 -0.559422)
(-0.19926 0.727319 -0.550979)
(-0.245625 0.87949 -0.588398)
(-0.206751 0.763842 -0.555501)
(-0.220562 0.755853 -0.561564)
(-0.242531 0.950468 -0.586194)
(-0.226901 0.878465 -0.558931)
(-0.211457 0.782519 -0.559711)
(-0.199607 0.7833 -0.569235)
(-0.205446 0.834292 -0.559184)
(-0.239499 0.84574 -0.565528)
(-0.240745 0.873172 -0.574448)
(-0.211963 0.831924 -0.553136)
(-0.23827 1.06097 -0.571381)
(-0.236671 1.02623 -0.561835)
(-0.257656 1.0524 -0.575874)
(-0.244516 1.04028 -0.576092)
(-0.245345 1.05674 -0.561756)
(-0.233023 1.02213 -0.538548)
(-0.232497 1.01337 -0.540934)
(-0.240509 1.05148 -0.572423)
(-0.247631 1.06464 -0.572242)
(-0.229562 0.991471 -0.538618)
(-0.242749 1.04611 -0.566129)
(-0.204118 0.970992 -0.463677)
(-0.190976 0.920915 -0.45197)
(-0.176707 0.870947 -0.421864)
(-0.189482 0.932781 -0.441413)
(-0.182833 0.88569 -0.436056)
(-0.186874 0.923793 -0.450744)
(-0.148791 0.778579 -0.389487)
(-0.166055 0.809202 -0.383386)
(-0.144488 0.725497 -0.352331)
(-0.147504 0.769198 -0.384842)
(-0.177075 0.87753 -0.415288)
(-0.171313 0.804965 -0.390215)
(-0.162601 0.792264 -0.38348)
(-0.177008 0.857841 -0.407446)
(-0.169502 0.794314 -0.38249)
(-0.2541 1.00057 -0.607736)
(-0.255243 0.993667 -0.608256)
(-0.254336 1.00727 -0.604591)
(-0.228045 0.953114 -0.571941)
(-0.234581 0.969994 -0.585587)
(-0.244872 0.965463 -0.583474)
(-0.230462 0.947221 -0.551195)
(-0.230696 0.961547 -0.560879)
(-0.236827 0.986216 -0.577152)
(-0.234714 0.97897 -0.564202)
(-0.247634 0.977016 -0.588857)
(-0.24258 1.01628 -0.593614)
(-0.238485 0.985408 -0.571276)
(-0.251849 1.01568 -0.611371)
(-0.247916 1.03159 -0.606971)
(-0.247997 0.98575 -0.598582)
(-0.240504 1.00041 -0.608481)
(-0.154176 0.733063 -0.468371)
(-0.161939 0.739534 -0.453333)
(-0.185004 0.773646 -0.476559)
(-0.159835 0.739385 -0.44598)
(-0.199386 0.801303 -0.481342)
(-0.188808 0.770251 -0.454455)
(-0.200425 0.898624 -0.486001)
(-0.201241 0.877255 -0.479217)
(-0.206555 0.960064 -0.508283)
(-0.20364 0.888221 -0.507617)
(-0.175596 0.821344 -0.466916)
(-0.169302 0.801687 -0.470597)
(-0.18734 0.801986 -0.485434)
(-0.199811 0.877316 -0.479387)
(-0.20283 0.873285 -0.489365)
(-0.115954 0.562196 -0.243329)
(-0.121746 0.584605 -0.249528)
(-0.123578 0.609689 -0.260002)
(-0.112738 0.517287 -0.222147)
(-0.134738 0.633357 -0.280932)
(-0.124195 0.587516 -0.260011)
(-0.149646 0.674587 -0.298372)
(-0.161607 0.744245 -0.313053)
(-0.160946 0.782825 -0.33009)
(-0.0969596 0.530293 -0.315334)
(-0.122819 0.600009 -0.336661)
(-0.101451 0.53978 -0.321563)
(-0.0884404 0.563705 -0.32954)
(-0.121426 0.646258 -0.357569)
(-0.152739 0.77291 -0.384041)
(-0.141358 0.716597 -0.362949)
(-0.148741 0.73713 -0.373242)
(-0.145023 0.725857 -0.383045)
(-0.158166 0.768837 -0.392876)
(-0.111931 0.573455 -0.342964)
(-0.0926008 0.515192 -0.315072)
(-0.120601 0.578562 -0.348435)
(-0.094957 0.503416 -0.314766)
(-0.104638 0.539136 -0.323284)
(-0.0992342 0.541395 -0.321047)
(-0.135107 0.630676 -0.358111)
(-0.165684 0.749629 -0.389864)
(-0.212424 0.869102 -0.507748)
(-0.22015 0.873925 -0.525002)
(-0.207306 0.779051 -0.502524)
(-0.189555 0.737077 -0.482583)
(-0.209982 0.882152 -0.514761)
(-0.217969 0.896241 -0.525298)
(-0.186945 0.80215 -0.502552)
(-0.165817 0.673855 -0.460744)
(-0.18476 0.4826 -0.396945)
(-0.182074 0.450332 -0.378227)
(-0.18374 0.502539 -0.37448)
(-0.186487 0.507407 -0.391899)
(-0.191491 0.534571 -0.400837)
(-0.191547 0.466451 -0.355254)
(-0.184306 0.422098 -0.333808)
(-0.187135 0.463836 -0.357172)
(-0.19995 0.53595 -0.374628)
(-0.202461 0.689568 -0.448547)
(-0.202579 0.709105 -0.45414)
(-0.196091 0.640394 -0.407616)
(-0.205105 0.634929 -0.420172)
(-0.201337 0.558473 -0.397152)
(-0.20639 0.713379 -0.457108)
(-0.194066 0.493678 -0.382541)
(-0.179825 0.387144 -0.343967)
(-0.228062 0.731991 -0.516064)
(-0.224923 0.692633 -0.49238)
(-0.234982 0.726122 -0.513644)
(-0.216362 0.688574 -0.491678)
(-0.232985 0.793412 -0.547407)
(-0.228304 0.752747 -0.520141)
(-0.240809 0.862857 -0.562855)
(-0.226797 0.822692 -0.550087)
(-0.232231 0.70535 -0.520017)
(-0.219381 0.662396 -0.500561)
(-0.228504 0.723046 -0.515103)
(-0.233168 0.852196 -0.565086)
(-0.232806 0.822998 -0.55187)
(-0.20847 0.709225 -0.507456)
(-0.209665 0.690786 -0.513775)
(-0.224148 0.691898 -0.526422)
(-0.231192 0.756567 -0.555372)
(-0.237036 0.749082 -0.562716)
(-0.205148 0.692353 -0.524856)
(-0.216294 0.699318 -0.554305)
(-0.176172 0.871379 -0.423546)
(-0.155363 0.777824 -0.365803)
(-0.171611 0.856872 -0.39373)
(-0.162249 0.817339 -0.396365)
(-0.1577 0.810937 -0.393403)
(-0.172525 0.829909 -0.407061)
(-0.146879 0.750624 -0.353318)
(-0.161564 0.784718 -0.375041)
(-0.14832 0.739353 -0.347236)
(-0.160852 0.839258 -0.385618)
(-0.163815 0.82824 -0.400493)
(-0.1811 0.853427 -0.402793)
(-0.139977 0.70885 -0.359001)
(-0.130653 0.672077 -0.344641)
(-0.14088 0.724819 -0.364071)
(-0.141257 0.72651 -0.355002)
(-0.127776 0.677836 -0.340641)
(-0.127144 0.635711 -0.336744)
(-0.129253 0.685549 -0.341087)
(-0.198663 0.871986 -0.550785)
(-0.172086 0.773346 -0.526211)
(-0.18236 0.827699 -0.526033)
(-0.212381 0.912128 -0.544632)
(-0.211683 0.915963 -0.549926)
(-0.171487 0.733552 -0.489906)
(-0.161455 0.681276 -0.473799)
(-0.174081 0.728055 -0.498592)
(-0.152892 0.667874 -0.469861)
(-0.204927 0.856351 -0.558789)
(-0.176364 0.775069 -0.521831)
(-0.201611 0.916598 -0.547896)
(-0.207291 0.934566 -0.540964)
(-0.208501 0.898467 -0.5361)
(-0.213658 0.911194 -0.552909)
(-0.190259 0.791741 -0.517488)
(-0.189575 0.809168 -0.516048)
(-0.177393 0.765147 -0.503727)
(-0.191564 0.883718 -0.527322)
(-0.21022 0.88137 -0.551535)
(-0.176126 0.752634 -0.482412)
(-0.176343 0.789782 -0.45807)
(-0.215106 0.887568 -0.455644)
(-0.210063 0.93281 -0.48445)
(-0.179601 0.783019 -0.448455)
(-0.214134 0.917383 -0.487831)
(-0.182813 0.826888 -0.463626)
(-0.198032 0.918173 -0.482315)
(-0.237665 0.637424 -0.477338)
(-0.228627 0.618932 -0.453282)
(-0.231785 0.58122 -0.467031)
(-0.231882 0.563999 -0.464052)
(-0.229249 0.659048 -0.480821)
(-0.234845 0.597576 -0.476348)
(-0.235975 0.589095 -0.491123)
(-0.2361 0.764452 -0.534734)
(-0.240007 0.779561 -0.553135)
(-0.233095 0.849361 -0.571195)
(-0.237758 0.848675 -0.577482)
(-0.236641 0.719215 -0.495901)
(-0.235064 0.774349 -0.508851)
(-0.24175 0.636363 -0.507828)
(-0.233746 0.741648 -0.538838)
(-0.228712 0.785831 -0.525485)
(-0.224245 0.729592 -0.503169)
(-0.227292 0.669208 -0.510774)
(-0.232539 0.667678 -0.507501)
(-0.23631 0.623183 -0.491232)
(-0.230665 0.605303 -0.477211)
(-0.24099 0.667117 -0.533608)
(-0.248624 0.805557 -0.531833)
(-0.232884 0.651985 -0.509841)
(-0.224034 1.073 -0.489604)
(-0.214729 1.01567 -0.472192)
(-0.22044 1.09768 -0.500043)
(-0.21449 1.04309 -0.471913)
(-0.20098 0.981046 -0.463963)
(-0.213855 1.07651 -0.489322)
(-0.212689 1.04281 -0.47184)
(-0.220065 1.07146 -0.496132)
(-0.21771 1.05479 -0.485669)
(-0.221181 1.07188 -0.500353)
(-0.21105 1.01191 -0.477177)
(-0.193681 0.956429 -0.460666)
(-0.194914 0.955708 -0.453306)
(-0.121813 0.547933 -0.358831)
(-0.141039 0.578622 -0.374293)
(-0.123227 0.558495 -0.358439)
(-0.115676 0.50304 -0.340681)
(-0.13265 0.542551 -0.362597)
(-0.118545 0.504254 -0.349432)
(-0.153954 0.704213 -0.401655)
(-0.15954 0.730326 -0.412123)
(-0.169867 0.734372 -0.417284)
(-0.166168 0.757073 -0.422005)
(-0.13286 0.614396 -0.384905)
(-0.128907 0.618321 -0.389871)
(-0.121193 0.563127 -0.372069)
(-0.134715 0.610428 -0.406324)
(-0.14056 0.594354 -0.391059)
(-0.178051 0.738428 -0.424301)
(-0.162708 0.700054 -0.42004)
(-0.159672 0.732566 -0.415067)
(-0.140442 0.605397 -0.2849)
(-0.136107 0.567233 -0.267829)
(-0.141539 0.5757 -0.264607)
(-0.137371 0.520795 -0.241828)
(-0.148446 0.662443 -0.305542)
(-0.161799 0.695141 -0.323716)
(-0.120564 0.487552 -0.227986)
(-0.164402 0.763792 -0.346759)
(-0.162372 0.76379 -0.338599)
(-0.154743 0.608777 -0.28137)
(-0.14595 0.561787 -0.257259)
(-0.159559 0.711668 -0.317041)
(-0.165746 0.714335 -0.324322)
(-0.163933 0.738613 -0.344527)
(-0.142648 0.62893 -0.287962)
(-0.125926 0.567343 -0.257743)
(-0.123277 0.527742 -0.243197)
(-0.13996 0.658296 -0.305167)
(-0.122079 0.541692 -0.245064)
(-0.134531 0.626796 -0.289604)
(-0.205544 0.932448 -0.431935)
(-0.214025 0.954546 -0.447003)
(-0.192732 0.803012 -0.393257)
(-0.187822 0.770269 -0.378467)
(-0.198205 0.89632 -0.418553)
(-0.197448 0.898794 -0.420479)
(-0.206432 0.931348 -0.438758)
(-0.205534 0.89716 -0.427119)
(-0.200536 0.905728 -0.433902)
(-0.187304 0.777154 -0.367161)
(-0.193264 0.882843 -0.425046)
(-0.187673 0.758486 -0.36908)
(-0.185012 0.71604 -0.358401)
(-0.187018 0.76047 -0.372357)
(-0.193016 0.814796 -0.389086)
(-0.179998 0.785852 -0.371332)
(-0.114032 0.571782 -0.296124)
(-0.10567 0.516712 -0.283904)
(-0.117144 0.579885 -0.310921)
(-0.103462 0.519411 -0.292187)
(-0.119799 0.563616 -0.312657)
(-0.129364 0.609331 -0.321415)
(-0.126843 0.630216 -0.331994)
(-0.130411 0.628326 -0.343624)
(-0.124988 0.648604 -0.32068)
(-0.119266 0.620028 -0.323049)
(-0.114297 0.580685 -0.308343)
(-0.150076 0.740519 -0.366212)
(-0.143334 0.738493 -0.361359)
(-0.147009 0.729677 -0.364105)
(-0.162256 0.788301 -0.383089)
(-0.145766 0.715519 -0.343799)
(-0.143872 0.738331 -0.347844)
(-0.151812 0.75835 -0.36373)
(-0.187004 0.627674 -0.387092)
(-0.165382 0.4945 -0.319256)
(-0.179201 0.49515 -0.326968)
(-0.185338 0.586633 -0.372031)
(-0.194351 0.654739 -0.393291)
(-0.166303 0.50593 -0.317364)
(-0.173895 0.449318 -0.287434)
(-0.173454 0.418623 -0.276608)
(-0.196802 0.479968 -0.333065)
(-0.199607 0.494856 -0.335852)
(-0.173511 0.47774 -0.308628)
(-0.180195 0.449772 -0.296288)
(-0.189635 0.446938 -0.303573)
(-0.19035 0.467371 -0.32806)
(-0.179061 0.431178 -0.305325)
(-0.197528 0.521355 -0.345093)
(-0.191949 0.62093 -0.378172)
(-0.188358 0.512593 -0.32322)
(-0.261087 0.540709 -0.566465)
(-0.247432 0.56605 -0.587169)
(-0.259597 0.561289 -0.567795)
(-0.247142 0.644593 -0.606831)
(-0.25969 0.671189 -0.601779)
(-0.254268 0.532466 -0.583859)
(-0.251807 0.561905 -0.593447)
(-0.256157 0.52197 -0.570068)
(-0.277242 0.648788 -0.592946)
(-0.274261 0.715738 -0.618095)
(-0.264924 0.598049 -0.60913)
(-0.269506 0.671711 -0.628935)
(-0.245144 0.637958 -0.619168)
(-0.264962 0.743942 -0.621903)
(-0.255212 0.690423 -0.617989)
(-0.232622 0.460361 -0.56981)
(-0.224298 0.415652 -0.553261)
(-0.247853 0.469646 -0.566129)
(-0.219353 0.431244 -0.54446)
(-0.212697 0.371939 -0.525646)
(-0.253582 0.428169 -0.549907)
(-0.248518 0.481225 -0.546519)
(-0.248101 0.437586 -0.529134)
(-0.24316 0.365468 -0.51693)
(-0.237096 0.470979 -0.557847)
(-0.254734 0.484413 -0.566248)
(-0.251512 0.438654 -0.537377)
(-0.247879 0.423297 -0.530564)
(-0.184551 0.564973 -0.331793)
(-0.185666 0.543536 -0.32102)
(-0.198386 0.665058 -0.37075)
(-0.191502 0.670266 -0.364712)
(-0.192328 0.580836 -0.334765)
(-0.188674 0.552458 -0.328142)
(-0.178697 0.494482 -0.300753)
(-0.184487 0.510311 -0.327296)
(-0.177527 0.486691 -0.317337)
(-0.206791 0.764148 -0.422792)
(-0.20925 0.724929 -0.414909)
(-0.210163 0.771118 -0.425636)
(-0.183751 0.527407 -0.338844)
(-0.18973 0.53077 -0.336774)
(-0.190859 0.552297 -0.34736)
(-0.192567 0.54366 -0.325792)
(-0.193603 0.713455 -0.381797)
(-0.209621 0.747955 -0.430049)
(-0.201191 0.676729 -0.402261)
(-0.199528 0.707854 -0.394782)
(-0.082946 0.425917 -0.429899)
(-0.0801576 0.403009 -0.414946)
(-0.0937985 0.402789 -0.446094)
(-0.133375 0.531479 -0.25597)
(-0.135431 0.547857 -0.252113)
(-0.1518 0.602021 -0.279859)
(-0.138388 0.522056 -0.330861)
(-0.161247 0.519527 -0.318878)
(-0.083984 0.435977 -0.405567)
(-0.0856315 0.407399 -0.404665)
(-0.0998247 0.444535 -0.431327)
(-0.113259 0.443904 -0.424025)
(-0.185418 0.431794 -0.301507)
(-0.183214 0.451139 -0.294994)
(-0.190714 0.476366 -0.318981)
(-0.164272 0.487323 -0.321675)
(-0.153927 0.481547 -0.334967)
(-0.163704 0.486189 -0.328693)
(-0.156703 0.527291 -0.346883)
(-0.151021 0.491751 -0.33197)
(-0.118378 0.527493 -0.308002)
(-0.103698 0.504817 -0.291861)
(-0.216276 0.358766 -0.322341)
(-0.193049 0.341539 -0.297967)
(-0.203012 0.320005 -0.304245)
(-0.100006 0.541825 -0.270817)
(-0.096724 0.523716 -0.269834)
(-0.0939402 0.461886 -0.363751)
(-0.102525 0.501083 -0.367762)
(-0.0917418 0.494166 -0.365739)
(-0.0942625 0.525836 -0.257042)
(-0.0973347 0.542519 -0.257688)
(-0.11628 0.574487 -0.282501)
(-0.148656 0.457452 -0.420842)
(-0.133984 0.480599 -0.428427)
(-0.136534 0.488902 -0.346136)
(-0.121477 0.477817 -0.352488)
(-0.153205 0.413433 -0.462392)
(-0.165782 0.416032 -0.459891)
(-0.165611 0.493471 -0.276006)
(-0.161863 0.523945 -0.280943)
(-0.242922 0.591788 -0.441526)