/*--------------------------------*- C++ -*----------------------------------*\
| =========                 |                                                 |
| \\      /  F ield         | OpenFOAM: The Open Source CFD Toolbox           |
|  \\    /   O peration     | Version:  v1612+                                |
|   \\  /    A nd           | Web:      www.OpenFOAM.com                      |
|    \\/     M anipulation  |                                                 |
\*---------------------------------------------------------------------------*/
FoamFile
{
    version     2.0;
    format      ascii;
    class       surfaceScalarField;
    location    "50";
    object      phi;
}
// * * * * * * * * * * * * * * * * * * * * * * * * * * * * * * * * * * * * * //

dimensions      [0 3 -1 0 0 0 0];

internalField   nonuniform List<scalar> 
37162
(
-4.7811e-09
6.7358e-09
1.34562e-10
-2.08929e-09
7.72444e-09
4.33177e-11
-7.6965e-09
-7.12982e-11
-3.95361e-10
1.47329e-09
3.64331e-09
-4.7212e-09
9.07052e-10
2.68547e-09
-3.98786e-09
7.90233e-10
3.20693e-09
-3.09012e-09
1.31736e-09
7.04089e-09
-6.88497e-09
7.78582e-09
-5.67823e-09
-1.75585e-09
2.58824e-09
2.81097e-09
1.05281e-09
-1.23157e-10
1.20819e-09
4.01699e-09
-2.01828e-09
-5.34333e-10
1.67325e-09
5.902e-09
1.58481e-09
5.66662e-09
2.1898e-09
7.12123e-11
1.35075e-09
4.25103e-09
3.13675e-11
4.23012e-09
3.57191e-09
-9.05144e-11
7.12595e-09
-1.24729e-09
-5.78816e-09
8.76684e-10
-5.50262e-09
-1.05034e-09
5.67625e-09
4.38509e-09
-3.59893e-09
-1.19955e-09
5.41889e-09
1.65737e-10
1.98078e-09
3.10669e-09
-5.20913e-09
1.21643e-10
1.50392e-09
5.68794e-09
-5.21109e-09
1.33105e-09
-2.33892e-09
8.83852e-09
-7.83067e-09
1.04935e-08
-7.65856e-09
-3.06937e-10
5.42265e-09
5.7224e-10
2.69349e-09
1.06268e-10
3.64438e-09
-4.51267e-09
-1.47066e-09
2.3542e-09
-4.29245e-10
-2.05279e-09
1.27847e-10
-4.73574e-09
5.23226e-09
8.34199e-09
1.66444e-09
4.09333e-09
-5.37605e-09
4.45357e-09
3.27668e-09
2.03449e-09
-6.24876e-09
-1.16177e-09
2.25275e-09
1.15044e-11
3.47581e-09
3.61129e-09
2.24792e-09
5.01883e-09
4.7166e-09
1.01196e-09
-4.58496e-10
-4.32685e-09
1.03854e-09
3.74681e-09
-1.73034e-09
1.19442e-09
7.74176e-11
-6.69323e-10
8.64802e-10
-4.52235e-09
-4.22755e-11
-2.3574e-09
9.31911e-09
-3.87763e-10
-8.06657e-09
1.14709e-09
3.77982e-09
4.39218e-09
-2.5006e-09
1.296e-09
-2.42528e-09
3.62985e-09
-8.73752e-10
-1.73065e-09
-7.02092e-10
2.11279e-09
-2.28444e-09
-2.19858e-09
1.50261e-09
-6.12714e-12
9.44391e-10
-3.48728e-09
2.91842e-10
-1.49236e-08
7.78473e-09
-7.41425e-09
1.4553e-08
-1.38942e-09
-1.19415e-08
-1.59278e-09
-9.32158e-09
2.22758e-09
1.48787e-08
-8.60372e-09
-2.10733e-09
-2.00336e-08
4.49205e-09
8.12731e-09
-7.08838e-09
-5.37436e-09
1.46904e-08
-1.11163e-08
-9.00642e-09
1.30343e-08
1.39269e-09
-1.56894e-08
3.1804e-09
-1.23117e-08
7.66575e-10
1.7396e-08
-5.85085e-09
-5.78856e-09
6.39203e-09
-1.29152e-08
-1.16772e-08
1.79451e-08
-5.50127e-09
-2.10328e-09
-1.53626e-08
4.71701e-10
7.91789e-09
9.79894e-09
8.6179e-09
-1.27972e-08
-1.54199e-08
8.18352e-09
-1.69219e-08
-7.81683e-09
8.91665e-09
-1.06823e-08
3.47122e-09
4.88268e-09
-2.24059e-08
5.8451e-09
-1.78843e-08
-1.89363e-09
-7.40382e-09
-6.73082e-09
1.11923e-09
-4.68583e-09
-2.00854e-08
2.36519e-08
-3.41724e-09
-1.47611e-08
1.92975e-08
1.87211e-09
-1.70027e-08
1.04447e-08
1.19251e-08
-1.34702e-08
-5.98268e-09
-1.76817e-08
6.6615e-09
1.57513e-08
-6.10419e-09
-1.56298e-08
-1.42116e-09
-2.91296e-09
-1.17164e-08
-4.46588e-09
-1.13038e-08
-6.7358e-09
3.57887e-10
1.13838e-08
-1.51524e-08
-1.25012e-09
5.01872e-09
-1.30955e-10
-2.01666e-10
6.97668e-09
1.18948e-08
-1.98927e-08
1.02128e-09
-1.00631e-08
1.04696e-08
1.86678e-08
-1.90743e-08
-8.65319e-09
-7.04784e-10
-7.05092e-10
-1.39587e-08
-1.08362e-08
1.61417e-08
2.1537e-08
-2.00615e-08
1.22285e-08
4.64267e-09
4.66589e-09
6.86444e-09
1.3982e-08
1.21356e-08
-9.45596e-10
-8.75794e-09
-1.82785e-09
1.74502e-08
8.02035e-09
1.65596e-08
-8.78331e-10
-1.06196e-08
7.91208e-09
3.58588e-09
5.48494e-09
-7.08324e-09
7.47309e-09
-5.8748e-09
7.60044e-09
1.03007e-09
-3.14559e-09
1.80036e-08
-4.00494e-09
-1.16801e-08
-2.31852e-09
-4.70554e-09
7.81617e-09
1.48929e-08
2.99259e-09
-1.09542e-08
7.18137e-09
-3.59179e-09
3.88347e-09
1.49256e-09
1.32892e-08
1.22134e-08
-1.32257e-08
3.91604e-09
1.80634e-08
-8.75471e-09
-4.06723e-09
-1.81137e-09
-8.80423e-09
1.46829e-08
-2.30201e-09
-1.09602e-08
9.19498e-09
-6.71663e-09
-1.27121e-08
1.76174e-08
-1.52169e-08
6.19831e-09
-1.11079e-08
-1.1655e-08
1.18027e-08
-6.16954e-11
-1.21318e-08
1.08563e-09
-9.67718e-09
8.11278e-10
5.40507e-09
8.507e-09
-9.81872e-09
-7.23446e-09
5.07773e-10
-4.77806e-09
-1.44567e-08
6.5227e-09
-1.94644e-08
1.33984e-08
1.28801e-09
3.28621e-09
-1.63374e-08
-6.41322e-09
-1.03776e-08
1.33801e-08
2.83665e-10
-1.2814e-08
1.09955e-08
-1.64086e-09
-1.50714e-09
1.25974e-09
-1.36706e-08
2.03329e-09
4.29398e-09
-1.93717e-08
6.89261e-09
-5.3352e-09
-8.79183e-09
2.11699e-09
-3.19359e-09
-1.17578e-08
-2.69711e-09
1.50607e-09
-8.96984e-09
-6.67582e-10
-2.07371e-09
-3.79259e-09
3.86678e-09
1.99949e-09
1.91028e-09
-4.06353e-09
7.95395e-11
-3.99666e-09
1.78003e-09
-1.4736e-09
3.69022e-09
-2.4879e-09
4.01527e-10
2.01973e-09
-1.50198e-09
-4.58129e-09
6.14104e-10
-2.38696e-09
-4.32116e-11
5.69004e-09
3.97737e-09
-4.73669e-09
-1.72859e-09
6.85404e-11
2.43519e-09
8.46974e-09
-2.3137e-09
-5.54192e-09
-1.22178e-08
7.04026e-09
1.36473e-08
-2.85351e-09
-1.1678e-08
3.32841e-09
7.75941e-09
-7.6733e-10
-1.03205e-08
4.80112e-09
-4.32627e-09
7.47e-09
5.09052e-09
-7.00599e-09
-2.53687e-09
9.53392e-09
5.00169e-09
2.65097e-09
-9.20782e-10
2.18252e-09
-3.91272e-09
-3.68415e-09
1.23577e-09
5.09937e-09
-1.48183e-09
-2.25178e-09
4.9474e-11
-2.27492e-09
-4.50164e-09
8.01233e-09
-2.50845e-09
-6.8764e-09
7.10992e-09
-5.73146e-09
2.30228e-09
-2.38418e-09
-5.18102e-09
3.06358e-09
-3.82076e-09
-4.52326e-11
-3.09575e-09
1.48404e-10
-1.07169e-09
4.01907e-09
-2.44964e-09
-4.3469e-09
3.7008e-09
-5.1661e-10
1.53507e-09
-6.19945e-09
-4.69558e-09
-8.87463e-10
-8.4842e-09
1.09119e-09
1.90492e-09
2.54191e-09
-1.01422e-08
5.69542e-09
-2.75827e-09
2.21358e-09
-1.06379e-08
2.95764e-09
3.60289e-09
9.47361e-12
6.13295e-09
9.01655e-09
-1.34911e-09
8.54692e-09
2.48556e-09
5.38573e-09
1.47975e-10
1.91152e-09
7.07709e-09
-5.83775e-10
4.60677e-09
7.05502e-09
2.71689e-09
5.24623e-09
6.64096e-09
-2.01552e-11
1.26969e-09
-7.89041e-09
-6.75285e-09
-3.11202e-09
8.06283e-09
1.80213e-09
2.37351e-09
-2.48534e-09
5.33493e-09
1.01619e-09
-6.37129e-09
2.8004e-09
2.36764e-09
1.66867e-10
-1.04779e-08
8.11711e-09
-7.51202e-10
6.38399e-10
-9.84657e-09
4.95692e-09
2.16967e-10
2.18455e-09
-7.9213e-09
8.14251e-09
-2.40562e-09
4.35387e-09
1.98316e-10
1.23364e-09
-8.13872e-09
2.89066e-09
4.2284e-10
4.74938e-09
1.91404e-09
5.93355e-09
5.32509e-09
1.85925e-10
2.6315e-09
4.53642e-09
5.14259e-09
1.23032e-08
-1.04312e-08
4.10626e-09
8.38295e-09
3.29939e-09
5.2406e-09
8.06069e-09
-1.6102e-09
-6.15176e-09
-2.45696e-09
4.62042e-09
3.98834e-09
4.08425e-09
-5.31189e-09
-4.9241e-09
-1.04301e-08
5.72655e-09
2.2467e-09
-1.58209e-08
-2.95925e-09
8.35006e-09
-5.51192e-09
1.17917e-09
8.95319e-09
-1.50221e-09
7.4551e-11
-4.76382e-09
9.97992e-09
-4.03691e-09
-4.05497e-09
-7.26983e-09
6.56101e-09
-5.55164e-09
-5.51265e-12
4.52137e-09
-7.60798e-09
-2.46499e-09
-2.56194e-09
-1.865e-10
1.13919e-08
1.11695e-08
-1.67473e-08
-5.81418e-09
-1.7015e-08
1.76525e-08
1.07544e-08
-1.46614e-08
6.70946e-10
-3.02458e-09
-2.02363e-10
1.11525e-10
-1.00921e-08
1.01829e-08
-1.36606e-10
-5.64793e-09
5.5821e-09
1.20325e-10
1.10546e-08
-5.40591e-12
-6.44193e-09
6.36864e-09
-6.3346e-11
8.15008e-09
-7.93632e-10
6.24223e-09
6.25255e-09
4.02705e-09
-2.12953e-09
3.10173e-10
-9.96073e-09
-9.33067e-11
9.74384e-09
1.20785e-10
-7.64077e-09
9.10137e-09
3.10449e-09
-4.56512e-09
5.91253e-09
-6.25701e-09
-3.53681e-09
-6.95346e-09
-1.89645e-09
-1.09756e-08
2.77986e-09
-7.79338e-09
2.48974e-10
-1.20325e-09
-6.61829e-10
2.80934e-09
3.91025e-09
-2.20541e-09
-4.51409e-09
2.14579e-09
7.82683e-10
-1.19084e-10
-5.23419e-09
4.27751e-09
3.1025e-09
-2.10797e-09
7.84065e-10
-3.46238e-09
2.43537e-09
-3.96914e-09
4.99622e-09
-9.6765e-09
3.94521e-09
2.26894e-09
-9.41769e-10
5.09113e-09
-1.71398e-09
1.52123e-09
-4.46728e-09
-2.29116e-09
5.23724e-09
-8.15726e-10
2.35579e-09
-1.88004e-11
9.46079e-10
-5.30992e-09
2.15855e-09
1.38109e-09
2.85269e-09
-8.20288e-09
-1.79263e-09
-4.89179e-09
-2.99204e-09
1.85922e-09
2.16028e-09
-3.07337e-09
2.52243e-09
1.19498e-10
2.66938e-09
2.98924e-09
-4.09963e-09
-1.7191e-09
3.44672e-09
-1.237e-11
1.0145e-08
-6.49092e-09
1.11782e-08
-1.48324e-08
2.67359e-09
4.57495e-09
2.8963e-09
5.31913e-09
3.43931e-09
-6.4687e-09
-2.28978e-09
6.22664e-09
1.76605e-09
-4.39931e-09
-8.27436e-10
1.14534e-08
8.68009e-09
-5.25914e-09
1.83666e-11
9.27001e-09
-4.98921e-09
4.26607e-09
-1.25827e-08
1.82568e-09
2.01382e-09
-4.21647e-09
1.46609e-08
-1.39142e-09
-2.09125e-09
7.12657e-09
1.21092e-08
-5.34213e-09
1.16412e-08
-6.88112e-09
-6.25537e-09
7.87735e-09
-5.80035e-10
-4.28727e-09
-7.55964e-09
2.84382e-09
-6.26326e-10
-2.29823e-09
-6.65283e-09
-6.00304e-09
-9.68408e-10
8.72223e-09
-1.75079e-09
-5.36963e-09
-5.17583e-10
-1.15849e-10
-1.98822e-09
-4.28131e-09
5.30109e-09
-2.26608e-10
-8.53225e-09
4.70505e-09
4.05379e-09
-3.75449e-09
4.21569e-09
-5.06099e-09
4.59977e-09
-4.97481e-10
-3.1266e-09
-1.30423e-10
2.00085e-09
1.3911e-09
-4.94032e-09
-1.8204e-09
-2.93482e-09
4.46031e-11
3.86778e-09
-7.49163e-09
-4.62926e-09
8.25308e-09
-6.02508e-09
1.36062e-09
-3.25497e-09
-1.77327e-10
-3.56132e-09
-8.62177e-10
-6.37466e-10
-3.47406e-09
-3.21386e-09
-3.80667e-09
-9.50405e-11
-3.58991e-09
-1.32458e-09
5.58561e-09
-8.06765e-09
1.68985e-09
-6.48847e-09
2.52659e-09
-4.09174e-09
-1.30163e-09
-2.50877e-09
-1.03794e-08
2.62796e-09
-2.58266e-10
8.00979e-09
3.66161e-09
-1.47922e-08
-6.9709e-09
3.28522e-09
6.31368e-09
-7.42824e-09
9.29143e-09
2.88621e-09
-1.72967e-09
-3.8964e-09
-5.03891e-09
-1.74621e-08
5.01163e-09
-2.81566e-09
1.52662e-08
1.83043e-09
-8.12816e-09
-1.11643e-08
1.64698e-08
-5.51833e-09
-9.12106e-09
2.35997e-09
1.91214e-08
-1.6587e-08
1.83152e-09
1.19398e-08
-8.49817e-09
-9.58961e-10
1.18171e-08
6.93467e-09
-5.73415e-09
-6.71888e-09
-3.29535e-09
1.73183e-09
1.50642e-08
-5.85937e-09
-1.73329e-08
1.05543e-10
-1.6284e-09
2.89739e-09
-1.00042e-08
8.93834e-09
-6.90481e-09
8.84322e-09
5.67383e-09
-2.19942e-09
-9.20857e-09
2.93988e-09
-5.61439e-10
-7.87135e-10
-9.11152e-09
-4.77034e-10
-3.48792e-09
-1.56643e-08
7.60554e-09
4.47973e-09
-4.2977e-09
9.23223e-10
-1.10523e-09
3.92398e-10
4.10337e-09
-1.60203e-11
3.71973e-09
2.84031e-09
-7.39696e-09
8.37039e-10
4.56937e-09
-5.376e-09
4.5264e-09
-6.84233e-09
2.55564e-10
7.11207e-09
-5.25146e-10
-3.03001e-09
-4.91671e-09
1.10445e-09
-1.63258e-13
3.09623e-09
-3.09134e-10
4.87835e-09
-6.22564e-09
1.47355e-09
1.72231e-09
-2.25987e-10
-6.29723e-09
-1.70961e-09
8.23289e-09
-3.59817e-09
-9.25483e-10
-3.94965e-09
4.03292e-09
-2.94574e-09
-8.06838e-11
4.21311e-09
-5.45619e-09
-6.15385e-09
-1.19959e-09
3.67014e-11
-4.54054e-09
-7.9823e-09
-3.34391e-10
-1.76738e-09
-2.81487e-09
-2.12474e-09
-3.66578e-09
-1.41831e-09
-4.88956e-09
2.96461e-09
-6.50762e-09
3.93327e-09
-4.56682e-09
-2.12042e-10
3.09198e-09
1.08619e-08
3.3056e-09
-1.72596e-08
-1.78482e-08
8.66048e-09
1.22797e-08
-1.79377e-08
6.67764e-09
-6.58817e-09
2.08519e-09
2.16982e-08
-8.74687e-09
-1.50366e-08
-2.76549e-08
-5.866e-09
1.71245e-08
1.63965e-08
-2.96865e-08
-1.48139e-08
1.68455e-08
-2.00044e-08
-1.14719e-08
1.35385e-08
2.158e-08
-1.26499e-08
-2.25251e-09
7.75778e-09
2.24827e-08
-1.48306e-08
2.46736e-08
-2.35436e-08
8.89794e-09
8.7797e-09
-1.2602e-08
-2.14264e-09
-1.49419e-08
-6.49193e-09
-2.96537e-08
-8.78281e-09
-9.88695e-09
1.65271e-08
-3.80176e-09
-2.49854e-08
-1.12125e-08
5.27981e-09
1.5647e-08
-2.59408e-08
-8.2154e-09
9.32857e-09
-2.00573e-08
-1.73098e-09
9.74839e-10
-6.74359e-09
-5.85826e-09
-1.07545e-08
-1.60536e-09
-1.98422e-08
-8.92823e-09
3.03759e-08
-1.76544e-08
-7.79163e-09
2.38407e-08
2.31839e-10
-1.97716e-08
1.88535e-09
-2.23622e-08
2.75198e-09
-8.68514e-10
-1.97859e-08
1.17263e-08
-1.77648e-08
9.10472e-09
1.18372e-08
1.01871e-08
-1.66819e-08
-5.34232e-09
6.03333e-09
-1.84895e-08
6.31431e-09
8.40028e-09
-2.04163e-08
1.20515e-10
-1.93599e-08
-5.32155e-10
-1.94048e-10
2.42814e-09
-1.25173e-08
-8.91143e-09
-3.72029e-09
1.97566e-09
2.15343e-08
-1.97896e-08
2.1839e-08
-2.40697e-08
-1.48953e-09
-1.52531e-08
4.36054e-09
2.36367e-08
-1.27442e-08
2.3008e-09
1.45612e-08
-3.21151e-08
1.32152e-08
1.44976e-08
-2.5412e-08
-6.96637e-09
2.45421e-08
1.51915e-08
1.71964e-08
-1.78266e-08
1.0406e-08
2.84221e-08
1.17831e-08
-8.87761e-09
1.15921e-08
2.93957e-08
1.15225e-08
-2.37218e-08
-2.0042e-08
2.21731e-08
2.72646e-08
-3.03193e-09
-5.4875e-09
-5.53932e-10
-1.35234e-08
1.6053e-08
2.52458e-08
-3.62665e-09
-4.77214e-09
-6.36035e-09
1.73622e-08
-2.43731e-08
1.33712e-08
1.05003e-08
2.88392e-09
-1.97446e-08
3.46678e-09
-1.00784e-08
2.39737e-08
-8.349e-09
5.70978e-10
-1.65951e-08
-1.13324e-08
-4.88458e-09
1.96838e-08
-4.06921e-09
3.23704e-09
7.93238e-09
-1.82035e-08
-9.39883e-09
1.967e-08
-7.64832e-09
-5.3725e-11
1.56344e-08
-1.96085e-08
1.05454e-08
-1.01523e-09
-2.01238e-08
-7.83382e-09
-9.72008e-09
1.27101e-08
-7.87455e-09
-1.30596e-08
-7.29666e-10
-6.15897e-09
3.38928e-09
-1.54339e-08
1.0427e-08
-2.4414e-09
-1.41446e-08
4.04024e-09
-1.26162e-09
8.78952e-09
-8.20428e-09
-6.65062e-09
6.06533e-09
-2.29882e-10
-5.0006e-09
-1.1734e-08
2.97771e-09
-1.36234e-08
-1.36264e-08
1.16035e-08
8.4051e-09
-2.03106e-09
-5.26949e-09
9.33497e-09
6.1822e-09
9.6275e-09
2.13901e-09
-2.43159e-09
5.52253e-09
7.121e-10
3.39286e-09
-5.30738e-09
7.95424e-09
2.87561e-09
-4.14254e-09
9.7418e-10
-6.81021e-09
6.25268e-09
4.53395e-09
-9.66301e-09
5.84114e-09
-5.2023e-11
1.07495e-09
-5.16541e-09
-8.15528e-09
-5.98824e-09
9.90416e-09
4.23933e-09
-4.81544e-09
6.35381e-09
-9.69358e-09
-6.06187e-09
1.19448e-09
1.28459e-08
-5.12622e-09
-2.29562e-09
-5.42415e-09
4.37409e-09
2.48358e-09
-7.2837e-09
-4.24863e-09
5.47049e-09
3.55322e-09
-9.35798e-09
1.08663e-08
-5.06141e-09
-8.03581e-09
-1.51182e-09
1.31009e-08
8.86554e-09
3.17108e-09
-1.81805e-09
-1.02185e-08
-1.23453e-09
6.13077e-09
-6.36925e-09
1.47307e-09
-1.34825e-09
1.30771e-08
-1.47735e-08
3.0448e-09
7.74712e-09
-1.03298e-08
3.95701e-09
8.08647e-09
-1.4293e-08
2.24979e-09
4.89702e-09
7.92556e-09
6.5086e-09
-7.61387e-09
-8.25268e-09
-1.7081e-09
1.80894e-10
-6.48356e-09
9.86878e-09
7.33617e-09
1.9657e-09
-5.26816e-10
5.33174e-10
1.30708e-08
-3.93533e-10
-8.55471e-10
-7.79664e-09
-1.54467e-08
-1.3616e-08
3.68594e-08
2.50581e-08
-1.58123e-08
-1.70425e-08
-4.35192e-09
9.29423e-09
2.01158e-08
-9.69429e-10
-1.20263e-08
-1.12398e-08
2.42355e-08
-8.30286e-09
-7.46372e-09
1.47972e-08
-8.67052e-09
-1.24665e-08
2.51278e-08
-3.99085e-09
-1.41381e-08
1.49966e-08
-9.52898e-09
2.62069e-09
-1.16868e-08
7.00498e-09
2.06119e-09
-1.77055e-08
6.18807e-09
-1.08561e-08
-1.66168e-08
-1.73113e-08
9.828e-09
3.13127e-09
-8.95969e-09
-2.41638e-08
1.47573e-08
-1.6179e-08
-1.02651e-08
-4.88808e-09
1.9399e-09
4.36653e-09
8.20046e-09
-2.80163e-08
1.15216e-08
-1.95001e-08
-1.66939e-09
-2.07105e-08
-7.58519e-09
2.3428e-08
4.86762e-09
1.00232e-08
-1.1743e-08
-1.89907e-08
-2.15344e-08
-7.47867e-10
1.4697e-08
5.98111e-10
-5.89251e-09
-1.98112e-08
1.07227e-09
2.46315e-08
-6.88411e-09
-2.40759e-08
2.50676e-08
4.47158e-09
1.13657e-08
7.59061e-09
1.09363e-08
1.06328e-08
-1.70975e-08
-1.25241e-09
-2.67178e-08
2.10861e-08
2.64939e-09
-1.32046e-08
9.30292e-09
-1.38037e-09
-1.58543e-08
-2.57652e-09
-2.12349e-08
-4.22146e-09
-3.69885e-09
-1.54547e-08
2.02258e-08
9.88687e-09
-1.01005e-08
6.0115e-09
-4.32004e-09
1.07393e-08
-5.82124e-09
-3.62901e-10
1.24608e-08
-3.75921e-09
-8.33878e-09
-2.55965e-08
-1.04086e-08
9.28716e-09
-2.94286e-08
-1.74027e-08
-1.97104e-08
-2.09267e-09
-7.62538e-09
-2.38173e-08
3.71484e-09
2.69981e-09
-2.12905e-08
-2.22372e-08
2.14208e-08
-4.61575e-09
-2.8548e-08
-4.53403e-09
6.70056e-09
-3.61954e-09
1.07991e-08
-1.38801e-08
2.13633e-08
-1.67554e-08
1.02416e-08
7.1312e-10
-8.08815e-09
5.1251e-09
-1.58606e-08
-1.60914e-09
1.17477e-08
-1.08043e-09
-1.43392e-08
3.67197e-09
-1.42585e-08
1.91961e-08
8.57908e-10
-7.20776e-09
8.12042e-09
-8.58824e-09
-1.38713e-08
-3.13059e-09
-3.00756e-09
-3.77848e-09
-7.3344e-09
-1.55039e-08
5.73825e-09
1.17751e-09
3.06221e-10
-2.9349e-09
2.94581e-09
-3.17037e-10
-2.83319e-09
3.00298e-09
1.36505e-10
1.00667e-10
4.44368e-10
-3.47991e-09
4.68058e-10
-3.20057e-09
4.44324e-09
1.03844e-09
-5.03729e-09
2.74961e-09
9.79841e-10
7.13824e-10
3.88756e-09
1.8079e-09
-7.05652e-09
4.93921e-09
3.0972e-09
-1.85858e-10
-5.83221e-09
-3.10668e-10
-2.65829e-09
6.85658e-09
-4.61589e-09
-3.12614e-09
7.43143e-09
-2.23585e-09
6.22999e-10
-3.96654e-09
4.24875e-09
1.17382e-09
1.10719e-09
2.60678e-09
-4.55904e-09
4.45065e-09
7.36732e-09
-1.18617e-09
-1.06318e-08
1.02845e-09
3.88837e-09
-4.66129e-10
6.71695e-09
1.67883e-09
8.44874e-09
-4.71938e-11
-4.51316e-09
2.77913e-09
3.34436e-10
4.65734e-09
-7.18257e-10
2.77788e-09
4.46397e-10
6.99009e-09
7.08449e-09
-3.04584e-09
-4.08582e-09
2.66862e-09
4.75033e-09
5.67394e-09
2.87239e-09
-9.7325e-09
5.89348e-09
3.24638e-09
-3.46591e-09
3.43031e-09
1.74493e-09
-3.56196e-09
6.67699e-09
3.5124e-09
-3.68584e-09
6.42094e-09
3.37843e-10
6.28929e-09
-7.49604e-11
-2.85956e-10
-3.89699e-09
4.25808e-09
-5.60226e-09
-5.09786e-10
6.03712e-09
-5.72194e-09
-3.62334e-10
3.95045e-10
-6.60763e-09
5.92666e-09
-8.3674e-09
-4.97048e-09
6.90752e-09
-1.61617e-10
-7.14583e-09
6.99896e-10
-8.92254e-09
-6.98676e-10
2.55713e-09
-2.72235e-10
-3.15658e-09
-6.50727e-09
-3.2995e-09
2.3093e-09
6.89178e-09
8.0378e-10
-2.27111e-09
-5.42441e-09
-1.07665e-09
3.80773e-09
4.1607e-09
1.00256e-08
-2.86795e-09
4.64545e-09
4.30341e-09
-3.51839e-09
-1.86568e-09
-6.10101e-10
-7.90736e-10
1.08003e-09
-2.62392e-09
5.40368e-09
-7.3426e-09
6.96793e-09
-1.49957e-09
1.87423e-09
-2.56604e-09
-7.64453e-09
2.50054e-09
-3.13099e-09
-1.60314e-10
-1.81367e-09
-1.41346e-09
2.11788e-09
-2.97554e-09
1.29742e-09
3.04656e-09
3.49728e-09
-7.47678e-09
5.17092e-09
3.13514e-09
-4.80882e-09
3.70199e-09
-3.0647e-11
-9.26369e-10
-8.67606e-11
-2.39494e-09
3.82813e-09
2.26879e-09
-1.86181e-10
1.60378e-09
-4.37045e-09
4.27146e-09
-1.50471e-09
-3.4684e-09
5.11619e-09
-4.39987e-11
-6.16628e-09
7.43992e-09
4.1333e-09
-5.40694e-09
3.83137e-11
-7.39513e-09
1.19053e-09
4.55569e-09
-1.07075e-09
1.00345e-09
-4.48841e-09
1.11187e-09
-2.45965e-11
-1.23952e-08
7.41869e-10
3.25985e-09
8.39355e-09
-1.86778e-11
-1.09619e-08
-1.41458e-09
-5.40288e-09
9.49025e-10
3.7838e-11
3.28476e-09
1.03296e-09
5.03227e-09
1.40107e-09
6.07676e-09
6.4523e-10
-3.15e-09
2.49893e-09
5.80391e-12
4.4604e-09
-3.53241e-09
1.83868e-10
4.84751e-09
2.162e-09
-6.26762e-09
-6.31632e-09
7.3011e-09
2.42413e-11
1.00558e-08
-8.67897e-09
5.15961e-09
4.14832e-09
6.21681e-09
-3.28919e-09
-3.74199e-09
8.83909e-09
-2.88378e-09
-4.34166e-09
3.93633e-09
-3.27304e-09
7.22514e-11
-5.98956e-09
2.96141e-09
-6.11186e-11
-1.72865e-09
-2.55187e-09
3.15157e-09
-7.87716e-10
-7.40115e-09
-2.89912e-09
3.48666e-09
-6.57946e-09
2.30514e-09
-2.00352e-09
2.01028e-09
2.35383e-08
6.79478e-09
-8.92558e-09
-2.14075e-08
7.1624e-09
-1.13516e-09
1.75111e-08
9.51121e-09
-1.72572e-08
5.89e-09
1.85606e-09
1.24223e-08
-1.16785e-08
8.76757e-09
-1.26575e-08
4.29173e-09
1.55282e-08
-6.38168e-09
5.1898e-10
9.01816e-09
7.52711e-10
-9.2662e-09
-5.04669e-10
2.997e-09
-3.60527e-10
-1.88526e-09
7.53137e-10
-1.6125e-08
2.37254e-08
-2.38653e-08
-1.74532e-09
6.60542e-09
1.59848e-08
6.37754e-09
6.11792e-09
2.45594e-09
-4.42662e-09
1.78457e-09
6.93382e-09
-7.28402e-09
2.21002e-09
6.47421e-10
5.08916e-09
6.91718e-10
-5.02813e-09
8.02152e-10
1.52178e-08
-4.88976e-10
-1.39755e-08
-4.28525e-10
3.96784e-09
-6.52481e-09
-5.74866e-09
1.43394e-09
7.88494e-09
-7.68214e-09
1.70777e-09
2.85677e-09
-2.48806e-09
-2.17157e-09
1.80309e-09
-2.92716e-09
-2.39238e-09
8.17635e-09
-3.76387e-10
3.23171e-09
-5.34332e-09
-7.93427e-09
3.36818e-09
4.18972e-09
-5.61549e-09
8.98024e-10
-3.21678e-09
4.8187e-09
-7.39129e-09
4.01072e-10
-8.23403e-09
1.01256e-08
1.2478e-08
-5.50142e-09
-1.79079e-09
-5.18576e-09
-9.80857e-09
1.40526e-08
-1.22046e-08
3.77957e-10
2.01808e-09
-5.74998e-09
-1.1956e-08
-5.7096e-09
6.68543e-09
6.85179e-09
2.05711e-09
-4.06712e-09
-4.84175e-09
1.52015e-09
-1.28861e-09
-2.26976e-09
-3.26211e-09
-3.88431e-09
5.85783e-09
-4.51629e-09
-4.66578e-09
1.62835e-10
-7.61554e-09
1.36477e-08
-4.56446e-09
-2.10298e-09
-6.98023e-09
-8.892e-10
8.91484e-09
5.62215e-09
1.40023e-09
-1.62129e-09
-6.86954e-09
7.09093e-09
-7.25228e-10
-5.59279e-09
7.71832e-09
8.16914e-09
-4.59793e-09
-8.13559e-09
7.3734e-09
-5.10931e-10
1.30671e-09
-7.51019e-09
4.50947e-09
2.11172e-09
-3.69643e-09
-5.91668e-09
4.95436e-09
1.1334e-08
-1.39754e-09
-4.8543e-09
5.52687e-09
1.93573e-09
-8.7081e-10
-8.60452e-09
2.60589e-09
-7.19948e-09
7.35951e-10
6.5434e-09
-2.92466e-10
-1.08488e-08
5.70117e-09
3.31364e-10
-2.54627e-09
2.20154e-09
1.55884e-09
-4.46216e-09
-4.3414e-09
-1.29917e-09
5.31974e-09
-9.3086e-09
-1.56791e-09
-4.60647e-09
-5.18295e-10
-1.22661e-09
-9.67763e-10
-4.46901e-09
8.30286e-10
-3.35481e-09
-1.23989e-10
-7.38436e-09
-2.63189e-09
-3.33689e-09
-5.18881e-09
1.24326e-09
7.18524e-10
-5.31662e-09
2.49133e-09
-5.71709e-09
-5.66624e-09
7.73178e-10
-4.23508e-09
1.61671e-09
6.23752e-09
-5.69126e-09
-2.76877e-09
2.22251e-09
-6.95502e-09
1.14465e-08
1.74607e-09
4.99423e-09
-5.40512e-09
-5.28033e-09
-2.39647e-09
4.35724e-10
-7.61261e-09
-6.66735e-09
8.39338e-09
5.88665e-09
-9.24309e-09
-7.65974e-10
-6.78589e-09
-1.58394e-09
1.70252e-09
-2.7899e-09
-1.32391e-08
3.79528e-09
2.54126e-09
-9.12638e-09
9.16819e-10
-2.52664e-09
-3.52178e-09
7.19434e-09
4.13633e-09
-7.80884e-09
-7.0645e-09
7.73982e-10
4.7076e-09
-6.80554e-09
4.63924e-09
-1.44007e-09
1.6733e-09
-4.04254e-09
3.47228e-09
-1.10347e-09
7.29707e-09
-5.51581e-09
-1.0803e-10
6.60728e-09
-3.16387e-09
3.85365e-09
6.98522e-09
-4.1738e-09
-6.85402e-09
4.81838e-09
-3.34898e-09
-4.51533e-09
3.62998e-09
-1.12623e-10
9.97881e-10
2.73112e-09
3.04233e-09
-7.87461e-09
2.1011e-09
4.82307e-09
-5.42762e-09
2.08794e-09
6.38195e-09
-1.67929e-09
-2.72308e-09
4.61164e-09
9.16981e-09
-5.14731e-09
-8.6342e-09
-1.15842e-09
6.41213e-09
-6.4215e-10
4.96067e-10
1.06747e-08
4.45132e-09
-5.95628e-09
8.31794e-09
8.76886e-09
-7.1076e-09
-3.33246e-09
2.87115e-09
7.56896e-09
-1.00156e-08
-2.51971e-09
1.49636e-08
-1.53589e-09
-8.97643e-09
-1.23035e-08
1.61107e-08
1.11566e-08
-6.55411e-09
-5.14077e-09
1.50869e-09
-1.08298e-08
2.09435e-08
-7.58147e-09
-1.48979e-08
5.30757e-09
-1.26269e-08
-2.66973e-09
-2.87198e-09
3.70261e-09
1.83906e-09
-5.5458e-09
3.15397e-09
-2.7794e-10
1.22772e-09
3.98744e-09
-3.87384e-09
-1.34141e-09
-4.22257e-09
-9.55577e-11
9.2444e-10
1.91006e-10
-4.31352e-09
5.98146e-10
7.41795e-09
-4.33974e-09
3.18017e-09
-4.82384e-09
1.03215e-08
-4.89957e-09
-4.31518e-09
4.15727e-10
2.65343e-09
1.55233e-09
-8.07968e-09
4.20794e-09
-5.77708e-09
-1.62051e-09
-1.59925e-08
5.36698e-09
1.2246e-08
-6.52866e-09
5.92907e-10
1.15892e-09
-1.29076e-09
-7.42553e-09
3.60281e-09
-1.21699e-08
-1.24019e-08
-1.37176e-09
6.13348e-09
-4.95095e-09
5.90895e-09
-6.40373e-10
-3.17627e-10
-3.73509e-09
-3.51192e-10
3.19304e-09
8.93281e-10
-2.81844e-09
1.21885e-10
-5.93498e-09
6.74923e-10
-3.56997e-10
5.61704e-09
3.39499e-09
-5.94068e-09
-3.38931e-09
-1.05135e-09
4.25776e-09
1.88585e-10
-7.9038e-09
4.53821e-09
-7.34717e-09
-7.47574e-10
1.07859e-08
2.62682e-10
-1.0301e-08
1.12907e-08
-2.59707e-10
-1.17786e-08
-5.38948e-09
2.91552e-10
5.77283e-09
-3.96634e-09
9.65534e-11
-6.4822e-09
5.31103e-09
9.39117e-10
4.45726e-09
5.74759e-09
2.19322e-10
-8.54561e-09
2.18206e-10
-2.70521e-10
-3.91404e-09
-5.45979e-09
-4.57355e-09
9.77464e-09
-7.00322e-09
-3.13441e-09
-5.9249e-09
1.22851e-08
3.41443e-09
1.07106e-08
-7.32263e-09
-1.03912e-08
6.87316e-09
-2.08745e-09
9.68172e-09
1.34119e-08
-7.89086e-09
-8.50924e-10
1.84235e-08
-6.56076e-09
1.09551e-08
-1.20565e-09
1.51804e-09
3.57073e-09
1.42793e-08
7.03619e-10
-1.01153e-08
1.14158e-08
1.04541e-08
-6.95676e-09
6.7309e-09
-1.02759e-08
1.05017e-08
2.28187e-09
-1.04443e-08
-8.06233e-09
1.39423e-08
-9.01433e-09
1.3424e-08
-3.70604e-09
2.42318e-09
-1.08575e-08
-5.79973e-10
-1.02189e-09
4.16991e-09
2.33155e-09
2.69555e-09
-6.73583e-09
-6.1093e-10
4.65117e-09
-4.41744e-09
1.50755e-09
5.60542e-09
4.02003e-09
-5.42836e-09
-5.32752e-09
-6.33105e-10
2.35705e-10
-2.96216e-09
1.73054e-09
-7.19334e-09
8.42493e-09
-8.9727e-09
5.3996e-09
-2.57413e-09
5.81221e-09
-4.47532e-09
3.66118e-09
1.81007e-10
5.66684e-09
-1.16854e-08
-2.95411e-09
1.14659e-08
-1.15014e-08
5.70238e-09
5.37747e-09
2.57992e-09
-6.65569e-09
-1.30171e-09
7.43078e-10
1.59072e-10
8.79955e-10
3.39259e-09
-4.37589e-09
5.46294e-09
4.04545e-09
-1.35518e-08
-2.17911e-09
-4.90843e-10
-6.96514e-09
-6.48074e-09
6.19229e-09
1.03154e-09
-4.39166e-09
2.69635e-09
-1.46883e-08
1.1943e-08
1.5004e-09
1.2449e-09
5.64641e-09
-5.66592e-09
-1.46688e-08
-6.16571e-09
5.3206e-09
1.27881e-08
-2.07154e-10
-3.12192e-10
-6.20396e-09
5.69804e-09
2.00629e-09
9.11898e-11
-1.19611e-08
1.00116e-09
-2.16014e-11
4.34107e-09
-6.29561e-09
-5.04077e-11
-1.50399e-10
-4.47165e-10
3.02292e-09
-2.91482e-09
-2.58513e-10
4.15419e-09
-3.89248e-09
2.7612e-09
6.34729e-10
-3.68158e-09
3.02524e-09
4.73851e-09
3.95674e-09
-3.6968e-09
4.489e-09
-4.749e-09
3.72452e-09
2.50518e-11
3.83903e-09
-3.79985e-09
-2.95401e-09
-1.22458e-10
6.89957e-11
-7.40545e-09
-4.2913e-09
4.33422e-09
7.52413e-11
7.2447e-09
-3.4753e-09
-1.54687e-09
-9.85881e-10
1.38361e-10
8.09227e-09
1.82927e-09
-3.7991e-09
-1.50547e-09
3.92723e-09
-2.0657e-09
-3.22311e-11
-9.91387e-10
1.1452e-08
6.75204e-10
1.63878e-10
-6.11938e-09
-3.59866e-10
4.42549e-09
5.62334e-10
-3.68622e-09
3.44234e-09
-4.87943e-11
-2.83122e-09
1.59117e-09
-2.14537e-10
2.67366e-09
5.16454e-09
-4.79725e-09
-3.04098e-09
4.38897e-09
-1.24128e-10
-5.66244e-09
8.51531e-09
-2.41713e-09
6.81364e-10
-6.17992e-09
1.1173e-08
7.35669e-10
-3.39327e-09
3.96036e-10
9.78561e-09
-7.16559e-09
6.07272e-09
5.48186e-09
-1.26538e-09
-4.16467e-09
6.1089e-09
-4.30199e-09
1.02835e-08
-1.06046e-08
4.62319e-09
-1.90539e-10
5.40383e-10
1.12633e-08
-2.4705e-09
-4.14574e-09
1.8064e-09
-1.53059e-08
1.55177e-08
-1.47467e-08
1.70934e-08
1.07195e-08
-7.46342e-09
2.90883e-11
-1.10695e-08
-4.2656e-09
-3.998e-09
-1.18982e-08
-1.11272e-08
-4.52302e-09
2.4861e-09
5.0319e-09
-2.99495e-09
8.05333e-10
-5.67954e-09
8.09519e-10
2.37821e-09
5.35922e-12
3.19269e-09
1.02937e-10
1.4776e-09
2.13189e-09
2.32831e-09
-5.93779e-09
2.8014e-09
3.70811e-09
7.79782e-09
-8.84445e-09
-1.17513e-09
2.2218e-09
-4.96773e-09
2.34074e-09
1.04248e-08
4.33853e-09
4.46991e-09
-6.4302e-09
-3.10944e-09
2.73623e-10
-6.04495e-09
1.39553e-09
4.59856e-09
3.57531e-09
-4.11878e-10
7.31157e-09
-1.57024e-09
6.26266e-09
-6.29005e-09
1.59762e-09
1.92492e-09
-3.40992e-09
-8.52366e-11
-3.26272e-09
-4.75997e-09
1.47164e-09
6.55104e-09
-1.39512e-09
5.73236e-11
-4.44192e-09
5.94462e-09
8.05802e-10
-5.46294e-10
-3.66943e-09
2.05797e-10
1.1001e-08
-1.26123e-09
1.11293e-09
5.44613e-09
-2.21681e-09
-2.35416e-09
6.04261e-09
2.03858e-09
-3.37531e-09
-5.83856e-11
-1.32017e-08
6.34774e-09
7.96695e-09
-1.55343e-09
-1.29095e-08
-3.65088e-09
-2.15823e-09
3.5923e-09
-1.68347e-09
7.11732e-11
-5.42965e-09
9.37286e-09
-6.73015e-09
2.78693e-09
-5.43018e-09
-1.68295e-09
-1.00278e-10
-3.82133e-09
-3.27981e-09
7.27337e-09
3.93481e-09
-8.48789e-10
-7.43481e-09
-6.37925e-09
6.3652e-09
2.35352e-09
-9.94319e-10
-3.47055e-09
3.85703e-09
5.9787e-09
2.87891e-09
1.60203e-10
-6.50971e-09
-3.0395e-09
1.12652e-08
-4.36872e-09
7.98064e-09
-3.03157e-09
2.96936e-10
-5.24607e-09
-4.93762e-09
4.77698e-09
-1.40889e-08
2.70958e-10
5.25499e-09
8.56289e-09
1.36284e-08
-9.04958e-09
1.36278e-08
2.35417e-09
3.31397e-09
-7.81617e-09
-1.72999e-08
6.80047e-09
1.83157e-08
-8.74753e-09
1.84622e-10
7.4666e-10
2.434e-09
7.2761e-09
4.33238e-09
-1.40424e-08
1.02167e-08
-1.32499e-08
5.46728e-09
1.28116e-08
-9.61933e-09
-7.82036e-09
3.33203e-09
-5.81635e-09
-4.85834e-09
1.74752e-08
-6.2427e-09
6.10942e-10
1.03104e-09
6.91784e-09
-6.72764e-10
9.94825e-09
-9.84223e-09
4.22633e-09
1.3292e-08
-7.26998e-09
-1.38424e-08
-9.97897e-09
1.84126e-08
8.06401e-09
1.04508e-08
-1.1597e-08
5.34082e-09
1.41047e-09
1.31272e-09
9.54887e-09
1.37973e-09
2.01549e-09
7.17966e-09
8.96821e-09
-1.81634e-08
5.04933e-09
6.39711e-09
-9.43096e-09
3.53982e-09
-1.31156e-08
1.23459e-08
-3.75678e-09
9.61491e-09
-1.45268e-08
-1.10637e-08
1.42198e-08
9.18977e-09
7.85483e-09
7.62969e-09
-1.58295e-08
3.44909e-10
-5.78377e-09
1.51663e-08
-4.2574e-09
-8.08237e-10
1.6712e-08
-6.28889e-09
-5.03003e-09
1.06189e-08
-9.57576e-09
1.16468e-08
5.52709e-09
3.72129e-10
9.63485e-10
-5.03511e-09
3.69949e-09
5.08023e-10
-3.42926e-09
3.29333e-09
-1.29686e-09
-5.4175e-09
7.2224e-09
-5.6019e-09
5.26846e-09
-5.2235e-09
-1.73205e-09
1.92042e-09
-9.35651e-10
4.72395e-09
3.13019e-10
-4.10137e-09
3.93304e-09
5.45629e-11
-4.9232e-09
-4.1938e-09
1.16147e-10
-1.52432e-09
-4.69336e-09
-2.97834e-09
-3.52047e-09
3.06955e-09
-4.50658e-09
-2.03801e-10
-5.26172e-10
-4.73605e-11
-9.25849e-10
4.14712e-09
-2.90825e-09
3.50742e-09
-4.37874e-09
9.47556e-09
-6.99995e-09
-2.3595e-09
-5.62679e-09
9.68488e-09
3.68957e-09
-7.08322e-10
-5.44955e-09
-2.30416e-10
5.32073e-11
-8.30239e-09
-6.13033e-11
-1.37294e-08
8.68782e-10
5.5011e-09
7.35949e-09
-9.61868e-09
3.25799e-09
-7.36868e-09
-9.7087e-09
4.68358e-09
5.89388e-09
-9.60702e-09
4.09177e-09
-4.1934e-09
-4.57084e-09
-1.46549e-08
1.82006e-09
-8.19403e-09
-7.55311e-09
1.39271e-08
-1.21906e-08
7.27022e-09
5.0559e-11
4.86983e-09
-4.93658e-09
-5.43399e-09
6.6718e-09
2.36263e-09
-1.76424e-09
-1.08893e-08
6.37036e-09
-4.84281e-09
9.36181e-09
-2.789e-09
-1.62943e-08
-1.48595e-08
7.87101e-09
1.24896e-08
-5.23113e-09
-8.37042e-09
4.06879e-09
8.98519e-09
-3.83298e-09
-4.45684e-10
4.21008e-09
-1.15699e-08
6.31397e-09
-7.04048e-09
2.53153e-09
7.88334e-10
1.90023e-08
-1.19197e-08
1.15289e-08
2.85341e-09
-5.64894e-10
-4.77574e-09
2.48726e-09
1.70508e-09
-3.04147e-09
4.18984e-09
9.45585e-09
-1.0381e-09
6.62416e-10
-9.08016e-09
4.52844e-09
-4.62026e-09
9.5477e-09
-2.54146e-09
-1.75093e-09
5.99749e-09