/*--------------------------------*- C++ -*----------------------------------*\
| =========                 |                                                 |
| \\      /  F ield         | OpenFOAM: The Open Source CFD Toolbox           |
|  \\    /   O peration     | Version:  v1612+                                |
|   \\  /    A nd           | Web:      www.OpenFOAM.com                      |
|    \\/     M anipulation  |                                                 |
\*---------------------------------------------------------------------------*/
FoamFile
{
    version     2.0;
    format      ascii;
    class       volVectorField;
    location    "50";
    object      wallShearStress;
}
// * * * * * * * * * * * * * * * * * * * * * * * * * * * * * * * * * * * * * //

dimensions      [0 2 -2 0 0 0 0];

internalField   uniform (0 0 0);

boundaryField
{
    WALL
    {
        type            calculated;
        value           nonuniform List<vector> 
1494
(
(0.0100921 0.00137202 0.00713365)
(0.00978279 0.000897547 0.00713895)
(0.013313 -0.00101631 0.00491754)
(0.0131753 -0.00156626 0.00522708)
(0.00923201 0.000675631 0.00706515)
(0.0102609 0.000364351 0.00759136)
(0.0112643 -0.00111597 0.00384291)
(0.0114217 -0.000974835 0.00451248)
(0.0107739 -0.00057007 0.00769682)
(0.0114778 -0.00140872 0.00530177)
(0.0110947 -0.00156588 0.00542563)
(0.0101848 0.00206357 0.00519826)
(0.0101634 0.00199995 0.00510539)
(0.0101141 0.00320715 0.00636775)
(0.0103286 0.00299565 0.00695652)
(0.00909865 0.00146151 0.00605209)
(0.00917198 0.00140331 0.00633387)
(0.00981804 -0.00032596 0.00717017)
(0.0101559 0.000589903 0.00712912)
(0.0105402 0.00320645 0.00691204)
(0.0104481 0.00326821 0.00671213)
(0.0113385 0.00382135 0.00706754)
(0.0114127 0.00382985 0.00762031)
(0.0111097 0.000535194 0.00515728)
(0.0108508 0.000650963 0.00487852)
(0.00929723 0.000960028 0.00426248)
(0.0094365 0.000713645 0.00430648)
(0.0094776 0.00107926 0.00553241)
(0.0089429 0.000934182 0.00556713)
(0.00952275 0.00115866 0.00712718)
(0.0095637 0.000654331 0.00752769)
(0.0104275 0.00302599 0.00648853)
(0.0106835 0.0028306 0.00627788)
(0.0103912 0.00241529 0.00720208)
(0.00996689 0.00205305 0.00730999)
(0.0102384 0.00152469 0.00774686)
(0.00997524 0.000964718 0.00731772)
(0.0102333 0.00226774 0.00693877)
(0.00991392 0.00219317 0.00643197)
(0.0117266 0.0003851 0.00558971)
(0.0114089 0.000194335 0.00567067)
(0.00969998 0.00172164 0.00729019)
(0.0101264 0.00113222 0.00778056)
(0.0101904 0.00254649 0.00735556)
(0.00997734 0.00225948 0.00755322)
(0.00995567 -0.000858553 0.00721519)
(0.00997219 -0.000484998 0.00659333)
(0.0102062 -0.000963353 0.00712952)
(0.00934874 -0.000596489 0.00691049)
(0.0121698 0.000705741 0.00507235)
(0.0124163 0.000803353 0.00503777)
(0.0122963 0.000623235 0.00481929)
(0.0119511 0.00100669 0.00481295)
(0.0120818 0.00103147 0.00472425)
(0.012428 0.00111005 0.00497449)
(0.00983863 0.00127646 0.0071257)
(0.00977632 0.00119409 0.00698267)
(0.00965961 0.000486043 0.00749879)
(0.0101564 0.000801473 0.00748274)
(0.00986762 0.000770311 0.00717815)
(0.00986293 0.000678416 0.00729183)
(0.011388 -0.00150143 0.00391774)
(0.0109686 -0.000558405 0.00353234)
(0.0114773 -0.000783388 0.00397479)
(0.0113559 -0.000673103 0.00356374)
(0.0112257 -0.000393499 0.0033957)
(0.0112448 -0.000157328 0.0036074)
(0.0113752 0.00150539 0.00339414)
(0.0108754 0.00171533 0.00360425)
(0.0102641 -0.00206442 0.00495408)
(0.00989418 -0.0020649 0.0050356)
(0.00943843 -0.0024811 0.004627)
(0.0104233 -0.0025066 0.00477953)
(0.0101542 -0.00233251 0.00577875)
(0.01052 -0.00183029 0.00571098)
(0.0115731 -7.45896e-05 0.00295071)
(0.0115944 -2.15098e-05 0.00306895)
(0.0117366 0.000731025 0.00342945)
(0.011614 0.00019061 0.00305894)
(0.0110623 0.00102108 0.00331312)
(0.0112299 0.000365031 0.00331835)
(0.0104513 -0.00147421 0.00461417)
(0.0115092 -0.00164857 0.00501663)
(0.0119753 -0.00168163 0.00450411)
(0.010802 -0.0023096 0.00453359)
(0.0104351 -0.00174652 0.00350353)
(0.0101317 0.00188257 0.00384033)
(0.010207 0.00225004 0.00403226)
(0.010998 0.00246292 0.00505418)
(0.0108057 0.00210276 0.00463398)
(0.0111749 0.00190617 0.00457053)
(0.0113107 0.00230453 0.00500219)
(0.0111738 0.00282747 0.00537839)
(0.00978994 0.000371426 0.00729883)
(0.00945602 0.000611941 0.0065523)
(0.00964644 0.000118251 0.00684243)
(0.00926827 0.000778981 0.00647133)
(0.00863157 0.000382649 0.00644186)
(0.0115491 -0.000764355 0.0067294)
(0.0103697 -0.000869284 0.00641092)
(0.0110922 -0.00127721 0.00757046)
(0.0111475 -0.000606692 0.00720352)
(0.0103768 -0.000983501 0.00672866)
(0.0118046 -0.000332978 0.0073871)
(0.0130126 0.00228324 0.00783024)
(0.0117135 0.00148677 0.00685748)
(0.0128203 0.00175099 0.00740871)
(0.0124788 0.00172194 0.00751201)
(0.0131265 0.00216165 0.0077351)
(0.0127626 0.00206246 0.00812738)
(0.0106404 0.00280625 0.00559715)
(0.0115826 0.00289135 0.00593328)
(0.011262 0.00274007 0.00566777)
(0.0106033 0.00272555 0.00532153)
(0.0108183 0.00256514 0.00531627)
(0.0113306 0.00301402 0.0060916)
(0.0110501 0.000210023 0.00701436)
(0.0114015 -1.86917e-05 0.00712645)
(0.0114452 0.000787415 0.00737252)
(0.0109055 0.000245213 0.00710957)
(0.0108453 -0.000500448 0.00671714)
(0.0120181 0.000489812 0.00724179)
(0.0111325 0.00211365 0.00782232)
(0.011012 0.00218936 0.00790323)
(0.0106394 0.00257573 0.00735455)
(0.0101766 0.00187513 0.00748173)
(0.0107458 0.00301473 0.00752601)
(0.0103915 0.00191769 0.00742245)
(0.0102915 0.00257387 0.00668714)
(0.0102464 0.00283952 0.00612094)
(0.00989008 0.00238982 0.00667675)
(0.0096904 0.00242611 0.00619604)
(0.0104289 0.00282003 0.0064298)
(0.00973535 0.00238649 0.00659739)
(0.010488 0.00186159 0.00769891)
(0.0104313 0.00180318 0.00753982)
(0.0099906 0.00152068 0.00764877)
(0.0101881 0.00139151 0.00762135)
(0.0107108 0.00107095 0.00782544)
(0.0101292 0.000787148 0.00739777)
(0.00998426 0.00229197 0.00704295)
(0.0104878 0.00252954 0.007366)
(0.00976908 0.00237738 0.00706951)
(0.0101444 0.00184053 0.00760262)
(0.00988029 0.00235425 0.00693521)
(0.0097792 0.00173936 0.0074336)
(0.00933461 0.00195259 0.00697011)
(0.00997233 0.00182269 0.00769971)
(0.00983495 0.00242508 0.00682009)
(0.00977023 0.00183624 0.00704409)
(0.00965032 0.00189805 0.00702349)
(0.00994772 0.00222787 0.00719427)
(0.00959746 0.00126497 0.00708677)
(0.00936537 0.00097185 0.00727755)
(0.0101821 0.000428106 0.00787036)
(0.00993468 0.00116105 0.00745068)
(0.00980177 0.000985594 0.00782991)
(0.00932833 4.04196e-05 0.0073115)
(0.0116453 0.0003986 0.00521863)
(0.0114005 0.000118242 0.00522322)
(0.0119803 0.000755482 0.00555806)
(0.0114957 -9.50244e-05 0.0056506)
(0.0120002 0.000282265 0.0059325)
(0.0122539 0.00113367 0.0053707)
(0.0118531 0.00168303 0.00529811)
(0.0116746 0.00135048 0.00522254)
(0.0115811 0.00149464 0.00500152)
(0.0116869 0.0012277 0.0050475)
(0.0116746 0.000968675 0.00532685)
(0.0108245 0.0010555 0.00712629)
(0.0109946 0.00118658 0.00753154)
(0.0109982 0.000916312 0.00760002)
(0.0109831 0.0009305 0.0073379)
(0.0114079 0.00114995 0.00787663)
(0.0110473 0.00108694 0.00791205)
(0.010287 -0.000149977 0.00719881)
(0.0104789 0.00109914 0.00720438)
(0.011169 0.000109537 0.00766123)
(0.010493 0.00105588 0.00746618)
(0.0101321 8.77259e-05 0.00725022)
(0.0114879 0.000148705 0.00777404)
(0.0125737 -0.00148616 0.00558828)
(0.0123288 -0.00114738 0.00513186)
(0.0121503 -0.00131277 0.00533464)
(0.0114879 -0.00130199 0.00547101)
(0.0118906 -0.00176512 0.00541188)
(0.0123718 -0.00169234 0.00489842)
(0.0136194 -0.000927774 0.00452129)
(0.0133235 -0.00113619 0.00516419)
(0.0132514 -0.00106595 0.00462716)
(0.0130955 -0.00136114 0.00489323)
(0.0127366 -0.00127462 0.00470167)
(0.0133602 -0.0010223 0.00479926)
(0.0132581 -0.000798697 0.00443109)
(0.0127973 -0.00129102 0.00507544)
(0.0125196 -0.00187147 0.00646066)
(0.0123564 -0.00157476 0.00605264)
(0.0114763 -0.00162654 0.00644074)
(0.0112309 -0.00214769 0.00616053)
(0.010896 -0.00146627 0.00624457)
(0.0119835 -0.00158134 0.00635425)
(0.0113808 0.00214618 0.00599649)
(0.0116532 0.00213536 0.00558438)
(0.012097 0.00238918 0.00479872)
(0.0109312 0.00206281 0.00572278)
(0.0121395 0.00238531 0.00576026)
(0.0120114 0.00215876 0.00497438)
(0.0130066 0.00169952 0.00446092)
(0.0120367 0.00204335 0.00500263)
(0.0127798 0.00180787 0.00439677)
(0.0122877 0.00206495 0.00442461)
(0.0125293 0.00199145 0.00481215)
(0.0116318 0.00235673 0.00673981)
(0.0108275 0.00184595 0.00723579)
(0.0111142 0.00207934 0.00658289)
(0.0105572 0.00180602 0.00731222)
(0.0108336 0.00188082 0.00693856)
(0.0111512 0.00222973 0.00693344)
(0.0132018 -0.000249682 0.00448843)
(0.0134664 -0.000673451 0.00478891)
(0.0125701 -0.000870415 0.0045749)
(0.0129409 -0.00109444 0.00458849)
(0.0132281 -0.000584848 0.00456548)
(0.0132482 -0.000294435 0.00445577)
(0.0133751 -8.7698e-07 0.00444896)
(0.0132165 -4.72415e-06 0.00402729)
(0.0132546 1.89907e-05 0.00401146)
(0.0137951 -0.000250832 0.00443031)
(0.013206 -0.000703231 0.00409028)
(0.0130197 -0.000384314 0.00440953)
(0.0135942 0.000513269 0.00461863)
(0.0137553 0.000666854 0.00446586)
(0.0135573 0.000956083 0.00438044)
(0.0137499 0.00122224 0.00473114)
(0.013423 0.00114211 0.0047943)
(0.0139572 0.000419375 0.00475194)
(0.0135664 0.00311175 0.00707834)
(0.0135445 0.00331724 0.00692357)
(0.0132749 0.00334927 0.00703973)
(0.0130301 0.00321513 0.00621815)
(0.0126411 0.00363017 0.00679406)
(0.0125239 0.00334752 0.00647186)
(0.0134245 0.00350734 0.00690397)
(0.0128694 0.0036821 0.00680542)
(0.012551 0.00340848 0.00659506)
(0.0119385 0.000955822 0.00583253)
(0.0120364 0.0010666 0.00548071)
(0.0115513 0.000835507 0.00555229)
(0.0120183 0.00110762 0.00590134)
(0.0118496 0.00140664 0.00575312)
(0.0116766 0.00105151 0.00528876)
(0.0116091 0.000395989 0.00723258)
(0.0115406 0.000952538 0.00702311)
(0.0116472 0.00122375 0.00706015)
(0.0123039 0.00098838 0.0070554)
(0.0119265 0.00140682 0.00765925)
(0.0118082 0.00138323 0.00713147)
(0.0117603 0.00126386 0.0076651)
(0.0118323 0.00114828 0.0076176)
(0.0109515 0.00168096 0.00733269)
(0.0112728 0.00241898 0.00782088)
(0.0133718 0.00222529 0.00678542)
(0.0132333 0.00238224 0.00713282)
(0.0133011 0.00286663 0.00723374)
(0.0127712 0.00421789 0.00740058)
(0.0128432 0.00396768 0.00715699)
(0.0128996 0.00426196 0.00742385)
(0.0124367 0.00400651 0.00728114)
(0.0127496 0.00399291 0.00709828)
(0.0130029 0.00421007 0.0074965)
(0.00991366 0.00128512 0.00751216)
(0.00969056 0.00114528 0.0073511)
(0.00963338 0.000829834 0.00744757)
(0.00998701 0.00103776 0.00786454)
(0.0100275 0.00139212 0.00770246)
(0.00984267 0.00105314 0.0071483)
(0.0105267 0.000703444 0.00777841)
(0.00979017 0.00145074 0.00711542)
(0.00967758 0.00192414 0.00655427)
(0.00963273 0.00166905 0.00652784)
(0.00922068 0.00157368 0.00623214)
(0.0098692 0.00181847 0.0066756)
(0.00945592 0.00196022 0.00620109)
(0.00935514 0.00175696 0.00616432)
(0.00991775 0.00182913 0.00699942)
(0.00984792 0.00151995 0.0074107)
(0.0100309 0.00122371 0.00757337)
(0.0101589 0.00148996 0.00751524)
(0.0101451 0.0019691 0.00719102)
(0.00999202 0.00171245 0.00717274)
(0.0110566 0.00315567 0.00628645)
(0.0103301 0.00285039 0.00673679)
(0.0111513 0.00330117 0.00667966)
(0.0107934 0.00324309 0.00679707)
(0.0108613 0.00314518 0.00633776)
(0.0106735 0.00323508 0.00661436)
(0.00994588 0.00227973 0.0071601)
(0.0102387 0.00292166 0.00681501)
(0.00983297 0.00266112 0.00680596)
(0.0102332 0.00266282 0.00681116)
(0.0101798 0.00279854 0.00670841)
(0.0110538 0.0036237 0.00721148)
(0.0119302 0.00398691 0.00710382)
(0.0116071 0.00382909 0.00685642)
(0.0110721 0.0036623 0.00693071)
(0.0115911 0.00370863 0.00713716)
(0.00942956 -0.000811404 0.00665121)
(0.00954774 -0.000511452 0.00693294)
(0.0104182 -0.000856765 0.0067439)
(0.00974218 -0.000400263 0.00684231)
(0.0102787 -0.00125137 0.00678856)
(0.010261 -0.00123834 0.00694901)
(0.00978648 0.000486375 0.00736035)
(0.0096426 0.000309197 0.0073501)
(0.00987562 0.000120483 0.00721838)
(0.00961563 -0.000473986 0.00695406)
(0.00977451 1.33999e-05 0.00761302)
(0.0101085 -8.39169e-05 0.00737767)
(0.010206 0.00110979 0.00657319)
(0.00994485 0.00118122 0.00675137)
(0.00938396 0.000159058 0.00554001)
(0.00970582 0.000464511 0.00590756)
(0.00938052 0.00128662 0.00575487)
(0.0113418 0.00072462 0.00479955)
(0.0120207 0.00080234 0.00532962)
(0.0117285 0.000875692 0.00487256)
(0.0117364 0.000517413 0.00516761)
(0.0118614 0.00097189 0.00504552)
(0.0104271 0.000106128 0.00541405)
(0.010547 0.000157289 0.00561614)
(0.0103197 0.00027572 0.00568652)
(0.0103328 0.000284025 0.00602838)
(0.0104395 -5.62458e-07 0.00581082)
(0.0107079 -0.000170077 0.00586627)
(0.0105458 0.00314675 0.00700075)
(0.0109589 0.00334464 0.00735196)
(0.0111234 0.00342638 0.00737811)
(0.010484 0.00297464 0.00731167)
(0.0121697 -0.00123491 0.00628559)
(0.0124708 -0.00124286 0.00622878)
(0.0115341 -0.0018733 0.00577783)
(0.0112322 -0.00171685 0.00600696)
(0.012406 -0.00107121 0.00602092)
(0.0114467 -0.00147656 0.00612374)
(0.00989058 0.000300438 0.00738655)
(0.010288 -3.73103e-05 0.00773524)
(0.0102555 -5.40344e-05 0.00724136)
(0.00986744 6.49629e-05 0.00715845)
(0.0101614 0.000440142 0.00721136)
(0.010159 0.000504234 0.00770925)
(0.010008 -0.000768069 0.00679504)
(0.0109061 -0.000236331 0.00755449)
(0.0109761 -0.000225292 0.00719352)
(0.0103622 0.000235932 0.00714398)
(0.010922 -0.000682506 0.00731796)
(0.0102076 -5.86284e-05 0.00745939)
(0.00933187 0.00113342 0.00618232)
(0.00938463 0.000932873 0.00644469)
(0.00927348 0.00147543 0.00581174)
(0.00897235 0.00116519 0.00621297)
(0.00910795 0.000691075 0.0063751)
(0.00907994 0.0012748 0.00620094)
(0.00953699 0.000199694 0.00683612)
(0.00993618 2.75687e-05 0.00685461)
(0.0106775 -0.000812448 0.00748287)
(0.0104933 -0.000929998 0.00715932)
(0.0103157 4.10254e-05 0.00706333)
(0.00952281 -0.000569832 0.00703623)
(0.0106377 -0.00142143 0.00629291)
(0.0100136 -0.00103149 0.0064615)
(0.0111502 -0.00140062 0.00657484)
(0.0100267 -0.000371649 0.00645941)
(0.0111129 -0.0010483 0.00688886)
(0.0105634 -0.000683498 0.00654807)
(0.010614 -0.000968148 0.0070224)
(0.0100203 -3.08802e-05 0.00671506)
(0.00987952 -2.58471e-06 0.00656047)
(0.0104913 -0.000562806 0.00697382)
(0.0117138 0.00144491 0.00487854)
(0.0113991 0.00182616 0.00462478)
(0.0112389 0.00183266 0.00476038)
(0.0117215 0.00142398 0.00477942)
(0.0114818 0.00195857 0.00497643)
(0.0117425 0.00154679 0.0048461)
(0.0112657 0.00306211 0.0059529)
(0.0106477 0.00291088 0.00575923)
(0.0107411 0.00298204 0.00603976)
(0.0103982 0.00282416 0.00583947)
(0.0105995 0.00299442 0.00592815)
(0.0111373 0.00296645 0.00545923)
(0.0115562 -0.000380716 0.00658209)
(0.0114415 -0.00124369 0.00616492)
(0.0114937 -0.00100219 0.00685317)
(0.0109216 -0.00125486 0.00663019)
(0.0110362 -0.000195615 0.00679458)
(0.0106709 -0.000649929 0.0060963)
(0.0119171 0.000319978 0.00520032)
(0.012256 -0.000238087 0.00504559)
(0.0122266 -0.000463992 0.00547024)
(0.0121845 7.17005e-05 0.00540748)
(0.0118571 -0.000147266 0.00546867)
(0.0127511 -0.000347427 0.0054681)
(0.0123931 0.000116634 0.00633198)
(0.0118822 0.000181498 0.00572738)
(0.0117007 -0.00045591 0.00598907)
(0.0117832 0.000303789 0.00584889)
(0.0110979 -4.43597e-05 0.00543354)
(0.0113256 8.90686e-05 0.00602822)
(0.0134048 0.00184047 0.00530153)
(0.0131335 0.00158316 0.00486804)
(0.0127511 0.00222714 0.00543296)
(0.0129085 0.00164915 0.00480416)
(0.0127657 0.00216814 0.00517331)
(0.0126655 0.00228589 0.00555444)
(0.0116878 0.00259114 0.00571696)
(0.0115125 0.00236444 0.00590079)
(0.0107719 0.00246293 0.00575972)
(0.0111533 0.00267106 0.00586659)
(0.011498 0.00237927 0.00528809)
(0.0108002 0.00248682 0.00617153)
(0.0109729 0.00255963 0.00624713)
(0.0111528 0.0025505 0.00596128)
(0.0106028 0.00237636 0.00654012)
(0.010585 0.00249614 0.00626894)
(0.0109522 0.00246752 0.00644966)
(0.00997298 0.0019556 0.00701873)
(0.0101934 0.00220479 0.00679012)
(0.0103659 0.00192423 0.00740774)
(0.00988493 0.0019768 0.00669236)
(0.00986499 0.0021744 0.00678765)
(0.0109898 0.0019604 0.00641883)
(0.0106839 0.001491 0.0067658)
(0.01123 0.00210142 0.00622872)
(0.0110738 0.00192366 0.00665538)
(0.0109736 0.0014221 0.00718471)
(0.0106647 0.00130385 0.00717124)
(0.00987265 -0.000277413 0.0074848)
(0.00984903 0.000615136 0.00699439)
(0.0100554 0.000507691 0.00728286)
(0.00929457 5.38225e-05 0.00690964)
(0.00967638 5.22577e-05 0.00737059)
(0.0103781 0.00095498 0.00717511)
(0.0105056 0.00306609 0.00767046)
(0.0099911 0.00249374 0.00721997)
(0.00991571 0.00253495 0.00721146)
(0.00976685 0.00316086 0.00551726)
(0.0096864 0.00279537 0.00627817)
(0.00963426 0.00321598 0.00575268)
(0.00964669 0.00292811 0.00580416)
(0.00974 0.00290469 0.00653048)
(0.00987141 0.00311445 0.0064251)
(0.0104244 -0.00176022 0.00623401)
(0.0102358 -0.0012529 0.00612276)
(0.0105141 -0.00217653 0.00530352)
(0.010493 -0.00159646 0.00549454)
(0.010657 -0.00173366 0.00625847)
(0.0111292 -0.00164805 0.00614509)
(0.0105597 0.00164583 0.00428372)
(0.0102356 0.00190838 0.00448068)
(0.0108431 0.00131985 0.00419057)
(0.0110476 0.00154846 0.00448357)
(0.010805 0.00197399 0.00489454)
(0.0106292 0.00163406 0.00437097)
(0.0103154 -0.00157485 0.00539176)
(0.0107812 -0.0010734 0.00521245)
(0.0106404 -0.00181789 0.00564784)
(0.010699 -0.00159661 0.00500291)
(0.0108283 -0.00125162 0.00570875)
(0.0111325 -0.00116618 0.00495029)
(0.0114923 -0.000395209 0.0052849)
(0.0109717 -0.000285555 0.00523275)
(0.0112345 -0.00126106 0.00530181)
(0.0111557 -0.000466579 0.00564354)
(0.0119445 -0.000276983 0.00531536)
(0.0116071 0.00122208 0.00460369)
(0.0111596 0.00104211 0.00432721)
(0.011476 0.00162312 0.00507246)
(0.0109832 0.00162464 0.00474705)
(0.0111606 0.00127147 0.00435684)
(0.0115965 0.00193659 0.00503337)
(0.00995138 0.00171915 0.00402883)
(0.00978029 0.00200513 0.0045673)
(0.00986656 0.00181975 0.00449319)
(0.00960197 0.00177272 0.00388904)
(0.00971344 0.00192746 0.00413314)
(0.0103817 0.00244233 0.0067075)
(0.0102896 0.002367 0.0066621)
(0.00994891 0.00241999 0.00664076)
(0.00996972 0.0020326 0.00694433)
(0.01067 0.00266192 0.00686336)
(0.0101055 0.00229535 0.00574859)
(0.00957818 0.00211455 0.00575848)
(0.00953662 0.00206081 0.00536601)
(0.00991168 0.00225965 0.00571879)
(0.00977152 0.00214512 0.00596789)
(0.00990987 0.00220038 0.0061701)
(0.0126391 8.89161e-05 0.00337857)
(0.0118767 0.000188706 0.00269087)
(0.0118807 -0.000574804 0.00260189)
(0.0119258 -0.00043415 0.00299574)
(0.0125728 0.000125927 0.0031177)
(0.00939324 0.00192552 0.00504035)
(0.0090331 0.00178992 0.00529329)
(0.00896679 0.0016102 0.00534334)
(0.00941401 0.00200407 0.00522738)
(0.00920147 0.00162999 0.00560576)
(0.00958133 0.00190503 0.00528129)
(0.00967858 0.00153303 0.00553463)
(0.00923315 0.00134488 0.00542151)
(0.00970869 -0.00204603 0.00573083)
(0.00950411 -0.00159796 0.0054678)
(0.00977778 -0.00168826 0.00578761)
(0.0101574 -0.00161614 0.00617978)
(0.00982378 -0.00113022 0.00624572)
(0.0117348 -0.00100243 0.00299918)
(0.0117733 -0.00166273 0.00346776)
(0.011581 -0.00174431 0.00313434)
(0.0115748 -0.00109094 0.00295442)
(0.0119582 -0.00139472 0.00322742)
(0.0114385 -0.00122578 0.0034821)
(0.00924528 -0.00106782 0.00700273)
(0.00882273 -0.00120568 0.00657329)
(0.00943387 -0.000623675 0.00680844)
(0.0102488 -0.000773946 0.00708954)
(0.00886715 -0.00108433 0.00615394)
(0.010184 0.0017288 0.007487)
(0.00994304 0.0024203 0.00685979)
(0.0102334 0.00256129 0.00744454)
(0.00955173 0.00250065 0.00681379)
(0.010224 0.00195666 0.00771241)
(0.0102282 0.00293554 0.00707108)
(0.0101709 0.00174654 0.00772943)
(0.00952806 0.000947109 0.00724891)
(0.00986913 0.00147645 0.00718125)
(0.00947143 0.00116403 0.00707049)
(0.0100828 0.00161324 0.00736216)
(0.00953622 0.00196336 0.00695049)
(0.0103257 0.00159335 0.00790161)
(0.0103063 0.00118263 0.00769836)
(0.00989946 0.00193164 0.00733313)
(0.00994607 0.00182491 0.00708559)
(0.00987141 0.00218417 0.00712187)
(0.00941753 0.001605 0.00722983)
(0.0110983 0.00291357 0.00788766)
(0.00963885 0.00186193 0.00685809)
(0.0100445 0.00274132 0.00682793)
(0.00918427 0.00164367 0.00664458)
(0.00990531 0.00276391 0.00685827)
(0.0103885 0.00230477 0.00717615)
(0.00984875 0.00116366 0.00687108)
(0.00960358 0.00120895 0.00650849)
(0.00990176 0.00216404 0.00683381)
(0.0100617 0.00190142 0.0073417)
(0.00973704 0.000900588 0.00705255)
(0.009715 0.0012444 0.00689456)
(0.00994492 0.00119944 0.00688049)
(0.00936172 0.00185127 0.00634548)
(0.00975395 0.00186787 0.00649565)
(0.00919453 0.00213492 0.00611815)
(0.00971327 0.00148274 0.00607588)
(0.00885101 0.0015994 0.00594902)
(0.00937986 0.00218869 0.00645642)
(0.0105423 -0.00165789 0.00726335)
(0.00941419 -0.00167198 0.00583813)
(0.0107874 -0.00156415 0.00489238)
(0.0112539 -0.00210152 0.00517244)
(0.0100465 -0.00160383 0.0050672)
(0.0106645 -0.00183194 0.00530938)
(0.010885 -0.00265744 0.00429969)
(0.00978833 0.00183684 0.00491469)
(0.00977675 0.00183211 0.00458638)
(0.00985073 0.00188716 0.00463442)
(0.0103796 0.00189514 0.00457946)
(0.0102153 0.00186499 0.00429167)
(0.0102093 0.00192542 0.00446743)
(0.0117022 -0.000667109 0.00321489)
(0.0112301 0.000247517 0.00303573)
(0.0118442 -0.000291016 0.00313209)
(0.0116781 -0.00054363 0.00329102)
(0.0109939 9.26831e-05 0.00290552)
(0.0113612 -0.000293461 0.00289626)
(0.0114128 -0.00186438 0.00411307)
(0.0111972 -0.00123887 0.00414053)
(0.0119983 -0.00116152 0.00383856)
(0.0114496 -0.00157721 0.00394757)
(0.0113113 -0.00138689 0.00440371)
(0.0115775 -0.00101043 0.00418013)
(0.00890836 0.000739043 0.00451826)
(0.00963463 0.00089397 0.00412343)
(0.00932535 0.000936186 0.00453525)
(0.00882447 0.00118012 0.00480884)
(0.0139469 0.00155713 0.0050291)
(0.0136154 0.00131332 0.00474331)
(0.0136131 0.000594532 0.00414015)
(0.0134535 0.00127933 0.0043993)
(0.0113251 -0.000945283 0.00335356)
(0.0122523 -0.000697162 0.00392692)
(0.010954 -0.0015398 0.00410854)
(0.0110344 -0.0012488 0.00474691)
(0.0111087 -0.00186509 0.00446176)
(0.0109391 -0.00138665 0.00532181)
(0.00854576 0.00138182 0.00489723)
(0.00916349 0.00104828 0.00538223)
(0.00911178 0.00214132 0.00607435)
(0.00986044 0.00247366 0.0064749)
(0.00951404 0.00231073 0.00634745)
(0.00999501 0.00185076 0.00713012)
(0.00985347 0.00134935 0.00694079)
(0.00973365 0.00175539 0.00699417)
(0.0098376 0.000294051 0.00713384)
(0.0100771 0.000950001 0.00736992)
(0.00981247 0.00243441 0.00711265)
(0.010044 0.00230296 0.00707174)
(0.00984775 0.00229685 0.00711348)
(0.00928497 0.00185402 0.006911)
(0.00959343 0.00142417 0.00718737)
(0.00979095 0.00259533 0.00690192)
(0.00925945 -0.00199396 0.00582148)
(0.00947105 -0.00147711 0.00678713)
(0.00937763 -0.00141517 0.00629323)
(0.00926863 -0.00180204 0.00610002)
(0.00928053 -0.00221268 0.00600234)
(0.00983979 -0.00137985 0.00692057)
(0.0091825 -0.00108188 0.00609998)
(0.00960714 -0.000700453 0.00678902)
(0.00912196 -0.002133 0.00595028)
(0.0107931 -0.00165072 0.00678256)
(0.00930453 -0.00127388 0.00603267)
(0.00995977 -0.00179783 0.00615169)
(0.010153 -0.00170729 0.00595456)
(0.00971935 -0.00168125 0.00543357)
(0.00950618 -0.00188936 0.00620857)
(0.010017 0.000423329 0.0073596)
(0.00952708 0.000569455 0.00699391)
(0.00984564 0.000105248 0.00714078)
(0.00972726 0.000396157 0.00699288)
(0.0100076 0.00101123 0.00656879)
(0.0105528 0.000615858 0.00704514)
(0.0102527 1.11006e-05 0.00739553)
(0.0103574 -0.000364473 0.0076423)
(0.00936438 0.00025438 0.00653797)
(0.0098983 0.000799808 0.00709107)
(0.00974666 0.00059687 0.00664179)
(0.0110177 -0.00140589 0.00387538)
(0.00978712 -0.00211853 0.00536005)
(0.0113432 -0.00153169 0.00578012)
(0.0107019 -0.00170039 0.00577626)
(0.0100518 -0.00215233 0.00534724)
(0.00948003 -0.00166123 0.00492348)
(0.00935981 -0.000788826 0.00616773)
(0.00988649 -0.00115461 0.00582826)
(0.0113116 -0.00122013 0.00683415)
(0.0110787 -0.00170748 0.00590714)
(0.010693 -0.00114872 0.00601666)
(0.0104591 -0.00154988 0.00670461)
(0.0116077 -0.00186886 0.00446449)
(0.011705 -0.00183444 0.00374369)
(0.011303 -0.00267826 0.00407507)
(0.0101061 0.00166714 0.00348388)
(0.0104498 0.00183137 0.00391631)
(0.0102142 0.00188091 0.00437381)
(0.0096889 0.00181635 0.00529658)
(0.00947144 0.0016497 0.00507778)
(0.0105637 0.00208736 0.00426185)
(0.0100737 0.00186702 0.00431978)
(0.0103151 0.00175568 0.004238)
(0.00972719 0.00180263 0.00521647)
(0.00966709 0.00184006 0.00497274)
(0.00971433 0.00185007 0.00466823)
(0.00994276 0.00198914 0.00459777)
(0.00994469 0.00198474 0.00494613)
(0.00998913 0.00213746 0.00493657)
(0.0094991 0.00169696 0.00550303)
(0.00933019 0.00162962 0.00551836)
(0.00934361 0.00174014 0.00517882)
(0.00924349 0.00160677 0.00573288)
(0.0116046 0.000648399 0.00304531)
(0.011729 0.000960256 0.00331898)
(0.0117668 0.00092057 0.00303543)
(0.0122058 -0.000587186 0.00307566)
(0.0116422 -0.000989083 0.00370722)
(0.0110162 -0.00142915 0.00370852)
(0.0120851 -0.00109343 0.00409706)
(0.011237 -0.000977026 0.00394156)
(0.011136 -0.00164381 0.00379315)
(0.0103775 -0.00233286 0.00364393)
(0.0114966 -0.00222483 0.00446604)
(0.0114733 -0.00209246 0.00328808)
(0.0119676 -0.00210626 0.00404669)
(0.0123212 -0.000699596 0.00358021)
(0.0117662 -0.00054395 0.0029745)
(0.0114908 -0.000916447 0.003519)
(0.0120209 -0.000789738 0.00356487)
(0.0117224 -0.00066098 0.00309039)
(0.0121882 -0.000432089 0.00336152)
(0.0117475 0.00063792 0.00314285)
(0.0120864 0.00032255 0.00328396)
(0.0118263 0.00049167 0.00306898)
(0.0120212 -0.000170208 0.00317727)
(0.0114226 0.000185541 0.00294857)
(0.0119111 -0.000201387 0.00309988)
(0.0100845 0.00220972 0.0056592)
(0.00961258 0.00202545 0.00436118)
(0.00967982 0.00192928 0.00412236)
(0.00952231 0.00177435 0.00383425)
(0.0103976 0.00208265 0.00452285)
(0.0101786 0.00168876 0.00373114)
(0.010554 0.00139692 0.00322214)
(0.0109482 0.00106555 0.00294736)
(0.00993752 0.0015477 0.00332975)
(0.0113026 0.000930066 0.00423832)
(0.0109329 0.00077811 0.00398386)
(0.0109932 -0.00028504 0.00417567)
(0.0111928 0.000521574 0.00412171)
(0.0112987 0.000348291 0.00424764)
(0.010809 4.64257e-05 0.00406929)
(0.0112369 0.00018084 0.00445027)
(0.0112732 -0.000166234 0.00452945)
(0.0109628 -0.00071187 0.00442007)
(0.0113738 -0.00033439 0.00477144)
(0.0107214 -0.00119914 0.00475247)
(0.0111344 -0.00121084 0.00481718)
(0.0112552 -0.00181415 0.00461904)
(0.0110425 -0.00112171 0.00443467)
(0.0108804 -0.000995785 0.0044171)
(0.00980028 0.00144306 0.0033054)
(0.010435 0.00101366 0.00339725)
(0.0107301 0.000654852 0.00338521)
(0.010944 0.000843322 0.00350763)
(0.010613 0.00115737 0.00348978)
(0.0100894 0.00164869 0.00382878)
(0.0106411 0.00143302 0.00390717)
(0.0103722 0.00128578 0.00335949)
(0.0105986 0.00147955 0.00359789)
(0.0113556 0.000787759 0.00336327)
(0.0106298 0.000885206 0.00312876)
(0.0110806 0.0021112 0.00516684)
(0.0108908 0.00116054 0.00425642)
(0.011008 0.001863 0.00496133)
(0.0102895 0.00216556 0.00548459)
(0.0104481 0.00196267 0.00456658)
(0.00988472 0.00203233 0.00489913)
(0.010752 0.00107012 0.00373936)
(0.0108509 0.000887618 0.00384116)
(0.0110934 0.00109601 0.00412313)
(0.00983232 0.0014344 0.00369549)
(0.0107298 0.00143658 0.00413063)
(0.0095554 0.00207274 0.00490398)
(0.0101709 0.00165903 0.00436242)
(0.0120574 -0.00170523 0.00489372)
(0.0109891 -0.00217553 0.00499873)
(0.0105464 -0.00213435 0.00497106)
(0.0105356 -0.00148293 0.00617433)
(0.0102495 -0.00124421 0.0063627)
(0.0106826 -0.00117003 0.00540386)
(0.0118031 -0.00099426 0.0037949)
(0.0118644 -0.00146619 0.00371089)
(0.0115504 -0.00103756 0.00410165)
(0.0115884 -0.000942077 0.00349317)
(0.0117929 -0.000396415 0.00310439)
(0.0115801 -0.000421785 0.00310653)
(0.0116397 -0.000601536 0.00340541)
(0.0115458 -0.00076966 0.00329202)
(0.0111353 -0.00179834 0.00484015)
(0.0101608 -0.00159404 0.00495336)
(0.0111788 -0.00159861 0.00513666)
(0.0110994 -0.00188576 0.00522243)
(0.0101179 -0.00131678 0.00535204)
(0.0104932 -0.00225065 0.00520893)
(0.00984531 -0.000585844 0.00716029)
(0.00961839 4.11897e-05 0.00722648)
(0.00986645 4.22072e-05 0.00743233)
(0.00982797 0.00283875 0.00535417)
(0.00995072 0.00286521 0.00577115)
(0.0100545 0.00284413 0.00570416)
(0.00980403 0.00277784 0.00605321)
(0.0095719 0.00276104 0.00620767)
(0.00993227 0.00285678 0.00630697)
(0.00991484 0.00280767 0.00640753)
(0.00968428 0.00294231 0.00530488)
(0.00955635 0.0028932 0.00542919)
(0.00992737 0.0029755 0.00590895)
(0.00952612 0.00305575 0.00518652)
(0.00995767 0.0021639 0.00721004)
(0.00977779 0.00230982 0.00706293)
(0.00967688 0.00262764 0.00675825)
(0.0100678 0.00274151 0.00708321)
(0.0103394 0.000943246 0.00709854)
(0.0104004 0.00244805 0.00664549)
(0.0103181 0.00243519 0.00657287)
(0.0105352 0.00263195 0.00618572)
(0.0109865 0.0026012 0.00619331)
(0.0104649 0.00224611 0.00666014)
(0.0104285 0.00209647 0.00710276)
(0.010381 0.00213291 0.00692753)
(0.0108669 0.0022559 0.00670571)
(0.0105364 0.00229039 0.00658804)
(0.0117265 0.00248409 0.00651529)
(0.012211 -0.000217643 0.00582939)
(0.0122848 -9.88658e-05 0.00545716)
(0.010899 -0.000879125 0.00676715)
(0.011943 -0.000587617 0.00710405)
(0.0124467 -0.00045277 0.00585865)
(0.0106392 0.00266918 0.00616087)
(0.0109571 0.00287685 0.0057869)
(0.0116008 0.00295463 0.00593587)
(0.0115477 0.00267419 0.00566851)
(0.0113928 0.00244506 0.00511945)
(0.0113629 0.00256684 0.00535777)
(0.0120271 0.0021462 0.00508906)
(0.0121468 0.0021599 0.0052832)
(0.0121016 0.00208951 0.00474399)
(0.0110404 0.00269183 0.00596808)
(0.0108238 0.00274779 0.00533792)
(0.0109502 0.00256661 0.00494731)
(0.00984968 0.00298954 0.0049869)
(0.00997669 0.00300958 0.00511368)
(0.0117569 0.00214278 0.00493611)
(0.0121824 0.00163937 0.00484078)
(0.0117245 0.00201634 0.00494468)
(0.0113538 0.0024339 0.00504808)
(0.0117894 0.00133302 0.00456417)
(0.0128195 -0.000146723 0.00527391)
(0.0123898 -0.000336095 0.00478354)
(0.0127136 -0.000205663 0.00473103)
(0.0123685 -0.0010639 0.00495277)
(0.0125423 -0.00080469 0.00559274)
(0.0122401 -0.000641171 0.00519939)
(0.00924452 0.000757827 0.00599317)
(0.00961755 0.00151954 0.00568227)
(0.00931691 0.00131367 0.00556933)
(0.00967972 0.00158337 0.0059565)
(0.00925209 0.000946108 0.00590884)
(0.00959668 0.000203966 0.00634397)
(0.00980133 0.000504285 0.00642008)
(0.0103554 -0.0007526 0.00716436)
(0.0111902 -0.0013921 0.00654625)
(0.0102036 -0.00100058 0.00660167)