/*--------------------------------*- C++ -*----------------------------------*\
| =========                 |                                                 |
| \\      /  F ield         | OpenFOAM: The Open Source CFD Toolbox           |
|  \\    /   O peration     | Version:  v1612+                                |
|   \\  /    A nd           | Web:      www.OpenFOAM.com                      |
|    \\/     M anipulation  |                                                 |
\*---------------------------------------------------------------------------*/
FoamFile
{
    version     2.0;
    format      ascii;
    class       surfaceScalarField;
    location    "239";
    object      phi;
}
// * * * * * * * * * * * * * * * * * * * * * * * * * * * * * * * * * * * * * //

dimensions      [0 3 -1 0 0 0 0];

internalField   nonuniform List<scalar> 
37119
(
2.63715e-09
6.38599e-09
-3.10546e-09
-5.91769e-09
-9.37752e-10
4.22299e-09
-3.21672e-09
-6.85229e-11
-3.65477e-10
6.5035e-09
-3.43523e-09
-2.70223e-09
1.74354e-09
1.29982e-09
-1.44295e-09
-1.60074e-09
2.28906e-09
-4.33859e-10
-1.1172e-10
-1.33827e-09
1.86846e-09
1.75869e-09
9.81005e-11
-1.36799e-10
6.81389e-10
-3.91934e-09
4.20758e-09
-9.69796e-10
-4.00127e-10
-2.15801e-09
3.23947e-09
1.36849e-09
-1.1884e-10
-2.69271e-09
1.4402e-09
-5.05557e-10
1.94515e-09
-1.71768e-09
-1.29549e-10
2.00332e-09
-5.34648e-10
-2.35542e-11
-3.99217e-10
-3.49662e-09
-2.36439e-10
7.2816e-10
-3.05945e-09
3.77152e-09
-3.06405e-09
5.49615e-09
-1.70403e-09
-3.2334e-09
1.39672e-09
-2.08952e-08
-7.66935e-10
2.50823e-08
-3.4203e-09
-3.26266e-09
1.03035e-08
-2.79361e-08
1.28093e-08
3.51909e-09
-1.9591e-08
1.42639e-08
-2.22162e-09
-1.73556e-08
-2.95918e-09
8.00769e-09
1.23071e-08
1.76621e-09
-4.85795e-09
1.5519e-08
-1.02936e-08
-3.45928e-09
-6.55731e-09
1.01976e-08
1.18787e-08
1.59285e-08
-1.44971e-08
-1.17249e-08
2.31583e-09
7.05535e-09
8.96018e-09
1.31629e-08
2.17391e-09
1.60314e-08
-1.74227e-08
6.44467e-09
1.27568e-08
1.08448e-08
-2.12857e-08
-1.8865e-08
9.24511e-09
1.85801e-08
5.43444e-09
-1.39959e-08
1.77044e-08
-1.21484e-08
-1.21393e-10
1.07858e-08
1.96753e-08
2.22048e-08
2.06804e-10
-1.10497e-08
1.20273e-08
-1.18442e-09
-1.20428e-09
-6.41287e-09
7.82407e-09
-9.1068e-10
-1.67905e-08
6.3697e-09
1.13315e-08
-1.97115e-08
6.69856e-09
1.21022e-08
-7.07972e-09
6.33731e-09
-4.61781e-10
1.75131e-09
-6.84397e-10
1.11615e-08
-1.22283e-08
-1.0332e-08
1.75066e-08
6.88035e-09
-1.40549e-08
3.7569e-09
-8.48484e-09
-5.60405e-09
-8.6896e-10
-1.50857e-08
-3.82351e-09
-1.38359e-08
-3.1069e-09
-8.18835e-09
4.8824e-09
-1.34507e-08
-7.05846e-10
1.60168e-08
1.0413e-09
5.25804e-10
-1.26874e-08
-1.28907e-09
-1.2331e-08
1.34797e-08
-4.97223e-09
-6.03909e-09
-7.45852e-09
9.29005e-09
4.20766e-09
-4.07343e-09
1.15445e-09
-3.11991e-09
-9.99737e-09
4.20511e-09
-1.66616e-09
-4.26254e-09
-9.80822e-09
-1.03398e-08
-8.50552e-09
1.11511e-08
7.69453e-09
3.9964e-09
6.2041e-09
-1.44629e-08
6.06615e-09
1.08598e-08
-1.29295e-08
8.41579e-09
1.12123e-08
-1.34239e-08
1.60277e-08
-3.61916e-09
-3.99272e-09
1.33455e-08
-6.1248e-09
5.81841e-09
9.01175e-09
-3.61775e-09
1.62148e-08
5.63129e-09
-3.77723e-09
-6.1114e-09
5.56642e-09
4.32252e-09
-1.23239e-08
-1.7932e-09
6.82715e-09
8.82274e-10
-8.76803e-09
9.51756e-09
6.07773e-09
1.2861e-08
-5.62043e-09
6.09571e-09
3.5861e-09
3.66375e-09
9.27439e-09
8.92972e-10
7.67907e-09
4.38299e-09
7.89371e-11
1.39967e-09
-3.18519e-09
5.00649e-09
2.56173e-09
2.05402e-09
6.21465e-10
3.63304e-09
1.8899e-09
2.57468e-09
1.13731e-09
2.66214e-09
2.30028e-09
-7.87503e-10
2.05664e-09
1.39338e-09
-2.21594e-09
2.39694e-09
2.3937e-09
-4.01323e-11
-2.85913e-10
-2.51549e-09
1.49956e-09
2.28639e-10
-2.64288e-10
1.14173e-08
2.24644e-08
-1.06546e-08
-2.32271e-08
3.10927e-08
-4.60762e-09
-1.50678e-08
8.39978e-09
1.92937e-08
3.39919e-09
-2.23346e-08
8.08934e-09
2.26449e-08
-1.70623e-09
1.83606e-09
1.14948e-08
5.57891e-09
-2.77283e-08
-1.24728e-08
-1.76637e-08
2.55288e-08
1.68456e-08
8.73114e-09
-1.4082e-08
1.61005e-08
-9.61169e-10
-1.09442e-08
2.57438e-09
1.64591e-08
3.66686e-09
1.48943e-09
-1.40023e-08
-6.41146e-09
2.29882e-08
-1.52993e-08
4.96386e-09
1.12114e-08
-1.81052e-08
-1.35891e-08
1.63424e-08
-9.16476e-09
-1.97402e-08
-9.14819e-09
2.02266e-10
-1.18785e-08
-5.16739e-09
-4.96016e-09
9.32415e-09
-8.89562e-09
-1.96438e-09
1.1459e-09
-9.79076e-09
2.89358e-08
-5.64968e-10
-1.33189e-08
1.6691e-08
1.25636e-08
1.50352e-09
1.86814e-08
-4.86406e-10
1.4408e-08
3.9846e-09
3.81222e-09
1.78923e-08
5.43165e-09
7.94095e-09
1.66877e-08
-3.3687e-09
1.34468e-08
2.14391e-08
1.87415e-08
-7.94842e-09
2.65362e-09
4.74169e-09
-1.23138e-08
2.63136e-08
1.36769e-08
-2.01663e-08
-5.31973e-09
1.1809e-08
-6.18442e-09
2.4603e-08
-9.16247e-09
1.22512e-08
1.22398e-08
1.53084e-10
4.17923e-09
1.39963e-08
2.74746e-09
7.79868e-09
-1.09476e-08
4.01492e-10
6.79896e-09
3.8258e-09
-7.87732e-09
5.44556e-09
6.38197e-09
-4.02886e-09
1.21405e-08
1.04033e-10
9.36144e-09
-2.63792e-09
-3.41549e-10
1.37253e-09
-2.00994e-09
9.9988e-09
-6.56971e-09
-1.25066e-10
8.06734e-09
-7.79666e-09
2.56767e-09
-1.34073e-09
1.00095e-08
1.21018e-10
-3.29725e-09
-7.13732e-09
-7.52878e-09
-1.65918e-09
9.0629e-09
-4.82184e-09
-1.39237e-10
-1.11214e-08
6.11674e-12
1.49411e-08
-1.07895e-08
1.15048e-08
-2.37439e-09
-4.82697e-09
-1.07843e-08
7.99981e-09
9.29928e-09
-2.69916e-08
9.69253e-09
1.51632e-08
1.14826e-08
-1.86461e-08
1.57579e-08
-6.87977e-11
2.29041e-08
7.3397e-09
-1.87612e-08
9.06294e-09
-1.20884e-09
1.50501e-08
1.28108e-08
-4.56906e-09
7.51612e-09
1.0638e-08
1.46685e-09
2.90469e-08
-7.79577e-09
-1.39114e-08
2.73849e-08
1.07248e-08
1.35712e-08
-1.20677e-08
7.00588e-10
3.00905e-08
-3.40614e-09
-1.29038e-08
1.88423e-09
1.5902e-08
-5.28647e-09
8.39945e-09
2.36917e-08
-3.24014e-09
1.27809e-08
5.62442e-09
1.53657e-08
-2.35359e-08
9.96598e-10
2.34728e-08
-9.33362e-10
-1.11798e-08
-3.57745e-09
-8.77854e-09
-1.44232e-08
-5.47067e-09
8.71397e-09
-2.30323e-09
-1.12076e-08
-1.70085e-09
1.52117e-08
-1.23039e-08
-4.42254e-09
2.28747e-08
-1.39138e-08
-1.25382e-08
2.43443e-08
-4.72969e-10
-1.03953e-08
5.37098e-09
-6.18336e-09
-3.86051e-09
-1.88386e-08
-1.30212e-08
3.94708e-09
-4.83943e-09
9.48248e-09
-2.63642e-08
-1.50433e-08
1.13159e-09
1.78588e-08
-1.37533e-08
8.19255e-09
1.40801e-08
-3.2356e-09
-2.45977e-08
-2.5652e-09
1.7777e-08
-1.5628e-08
1.50077e-08
1.02259e-10
5.17999e-10
-2.06442e-09
-1.68851e-08
2.74281e-08
1.19651e-09
-1.17396e-08
-4.25235e-09
8.00604e-09
-2.06388e-08
-1.45828e-08
2.64192e-09
7.68852e-09
-1.25821e-08
-5.26631e-09
3.26564e-09
-5.25305e-09
9.70289e-09
5.97126e-09
-1.04212e-08
-1.38544e-08
2.95611e-09
5.64518e-09
-2.4106e-08
1.37591e-08
9.76199e-09
5.84961e-10
-2.26227e-08
-1.43268e-08
1.28434e-08
7.07502e-09
-7.99489e-09
-1.16623e-08
-4.73047e-09
-7.38707e-09
-1.05054e-08
-1.36236e-08
-6.53051e-09
1.54235e-08
-7.45346e-10
-6.03407e-09
-1.0808e-09
-4.02085e-09
6.93365e-10
4.40829e-09
1.30226e-09
-5.28758e-09
2.90458e-09
-4.17283e-09
-4.06469e-09
4.21667e-09
7.31732e-11
3.57074e-10
-4.60308e-09
1.35107e-09
-5.54127e-09
5.49249e-09
-4.76156e-09
6.80604e-09
-4.26398e-10
-3.57209e-09
-6.61809e-11
-3.84549e-09
-6.02379e-09
4.58167e-09
-4.14607e-09
-1.25808e-10
-5.19112e-09
5.02767e-10
3.70683e-09
-4.08365e-09
-3.76922e-09
-1.46292e-09
-8.54069e-10
-9.2652e-09
2.93866e-09
4.8738e-09
1.45271e-09
1.18335e-09
-1.52813e-09
-8.92042e-09
-5.74951e-09
3.14688e-09
-5.82931e-09
-1.38309e-09
-5.77269e-09
5.45538e-09
-1.0518e-10
-4.48415e-09
1.05053e-09
-9.93413e-10
-4.15295e-09
4.09587e-09
-3.40605e-09
4.3514e-09
-1.72294e-10
-7.18514e-09
-5.24935e-09
5.14401e-09
-1.81098e-08
5.33503e-09
7.63076e-09
-1.44052e-08
7.53915e-09
1.201e-08
-2.62851e-09
-5.52974e-09
-9.95158e-09
-6.5365e-09
-1.04972e-08
-6.57395e-10
-4.37395e-09
1.25706e-08
4.37424e-09
-8.31402e-09
7.08652e-09
-3.1467e-09
-4.21478e-09
8.706e-09
-1.16964e-10
6.079e-09
-8.20247e-09
7.45853e-09
-3.22614e-09
8.64779e-09
-2.53929e-09
9.4378e-09
-2.6623e-09
-4.23622e-09
-7.35426e-09
-3.49906e-09
8.66826e-09
-3.44525e-09
2.13727e-09
1.1231e-09
5.44566e-09
5.99765e-09
-8.69997e-09
-5.03225e-09
5.75481e-09
-7.24689e-09
-1.17026e-09
-7.70277e-09
-3.59846e-09
6.92726e-09
-8.48448e-09
6.1929e-09
-1.27846e-08
7.4768e-09
7.06033e-09
-1.75248e-09
6.38667e-10
3.32348e-10
-1.37557e-08
3.47619e-09
-7.28457e-09
6.90599e-09
-3.09759e-09
1.05877e-08
3.65262e-10
6.40274e-10
-7.28619e-09
-7.84889e-09
9.2569e-09
5.65229e-09
4.21797e-10
-7.93834e-09
-3.53907e-09
-6.10469e-09
2.90578e-09
6.73801e-09
-4.22599e-09
6.91943e-10
-5.02536e-12
2.24797e-09
4.43156e-10
4.21489e-09
9.83922e-09
2.9965e-09
3.17016e-10
-5.99992e-09
-5.82847e-11
-3.85073e-09
-5.19037e-09
-2.2947e-09
5.24299e-09
2.24212e-09
-4.64324e-09
1.44828e-10
2.12281e-09
1.22508e-09
5.90894e-09
5.80163e-09
-5.21965e-09
4.81058e-09
-3.65219e-09
2.959e-09
-7.80627e-10
-9.15283e-10
7.64151e-09
-5.94572e-09
-1.34763e-09
-6.40212e-09
6.96902e-09
-2.83947e-10
5.31492e-09
-6.37867e-09
6.3953e-10
3.52464e-09
-4.44819e-09
4.49678e-09
-4.77258e-09
2.80578e-09
5.18696e-09
-3.49601e-09
-7.44148e-10
3.56441e-09
-1.45234e-11
4.50702e-09
-5.87144e-09
6.67922e-09
-4.10449e-09
2.29115e-09
4.58615e-09
-2.773e-09
6.9594e-10
-2.93455e-10
2.91032e-09
-1.2987e-10
-5.34008e-09
4.97716e-09
3.92728e-09
5.94574e-10
-7.4773e-10
-3.72082e-09
1.3881e-09
4.62384e-09
-1.14565e-10
8.52757e-09
-2.91515e-10
-5.43729e-09
3.8867e-09
4.21058e-09
-2.66014e-09
9.01442e-09
-5.9242e-09
1.86139e-09
1.10397e-08
8.22663e-09
-6.49296e-09
1.6091e-09
-6.05041e-10
5.48887e-09
-4.6728e-09
-1.87949e-09
5.93155e-11
-1.09626e-08
6.66942e-09
2.39835e-09
1.89488e-09
2.08817e-09
-1.86113e-09
-1.11897e-08
9.16082e-10
-5.13187e-09
5.82487e-09
-6.98156e-09
1.16066e-09
5.21585e-09
-6.6495e-09
-5.00489e-09
6.57858e-09
3.35475e-10
-4.82595e-09
6.18001e-09
7.06798e-09
-1.52453e-09
8.62061e-09
-7.91592e-09
7.55205e-09
-9.33685e-09
3.81925e-09
5.70401e-10
-1.17684e-08
-3.75117e-09
-4.80913e-09
3.42841e-09
-5.48315e-09
-1.4753e-10
7.83961e-10
-1.40651e-09
-4.86064e-09
-3.6897e-09
-7.48561e-09
5.82097e-09
-1.00589e-08
3.11081e-09
1.12711e-09
3.16042e-09
-5.6593e-09
8.31985e-09
-4.79894e-10
7.71524e-09
-4.07493e-09
1.64976e-10
-2.95387e-09
2.85166e-09
-6.27986e-11
-3.05942e-09
-6.10412e-09
-8.95314e-10
-1.16609e-08
-2.36661e-09
8.3682e-09
-5.24437e-09
-9.47597e-09
-2.69001e-09
-2.23314e-09
4.4433e-09
-2.81842e-10
-2.35171e-09
-5.64008e-11
-2.4197e-09
-3.42026e-09
3.60694e-09
-2.59688e-09
-1.04545e-10
3.81636e-09
-1.31235e-09
-7.74838e-09
7.61174e-10
6.88498e-10
-2.2014e-09
1.46688e-11
-2.20876e-09
-4.50326e-10
-1.87436e-09
-2.93129e-09
1.37949e-09
-4.8985e-09
2.20663e-09
-2.69627e-09
-4.72889e-10
4.77597e-09
-4.60147e-09
2.98265e-10
2.02207e-09
-3.97457e-09
1.85092e-09
1.01342e-10
4.14967e-10
4.80482e-09
-5.69275e-09
4.65873e-09
2.13931e-09
-3.58918e-09
-4.98686e-09
-8.00509e-09
1.23164e-08
-4.16174e-09
-1.4962e-10
-2.91192e-11
3.27918e-09
-2.95183e-09
5.4164e-10
-5.651e-09
5.52429e-09
-5.69449e-09
6.20699e-09
8.61239e-09
-1.18127e-08
7.44443e-09
-1.22468e-09
-1.56103e-09
5.16369e-09
2.54839e-10
1.47952e-09
-1.19763e-08
-2.79708e-11
1.05248e-08
6.45853e-10
1.36404e-08
-1.28066e-08
-1.19199e-08
-1.18464e-09
1.12831e-09
1.78241e-08
-1.1267e-08
-1.16353e-08
5.07827e-09
-8.06093e-09
1.14228e-08
1.44622e-08
7.261e-09
-1.17654e-08
-6.76249e-09
-3.76304e-10
-4.23595e-10
7.32526e-10
1.06624e-08
-1.20973e-08
1.34757e-08
-1.08089e-08
-1.48726e-09
1.41068e-08
-7.22422e-09
-1.76914e-08
-3.85278e-09
5.96105e-09
1.19987e-08
1.85546e-08
1.32598e-08
-8.64072e-09
-2.31735e-08
9.91847e-09
4.78333e-09
-7.66497e-09
2.02561e-09
-5.99584e-09
-5.18334e-09
-1.4247e-08
-2.4667e-08
2.24882e-08
-9.3816e-09
-2.10482e-08
-9.4166e-09
-7.44714e-09
8.04712e-09
8.81662e-09
-5.80571e-09
-2.19731e-09
-1.41357e-09
-1.23867e-08
4.11181e-10
4.52851e-09
-1.06942e-08
-7.49821e-09
6.06923e-09
-6.79013e-09
-1.47642e-09
3.03817e-09
1.94128e-09
6.61953e-09
-1.1599e-08
1.12373e-09
-8.77981e-09
7.16207e-09
6.36574e-09
-2.16857e-09
1.73778e-08
-1.57532e-08
1.02437e-08
5.92066e-09
3.71934e-09
1.20441e-08
-1.38221e-08
-1.09102e-08
-8.87058e-09
-1.03783e-08
1.84535e-08
-1.49022e-08
1.21547e-08
-1.28097e-08
-1.69386e-09
1.31734e-09
-2.8032e-09
3.17998e-09
3.84633e-09
-7.20625e-09
5.63446e-09
-4.70738e-10
-6.67422e-09
-3.6069e-11
1.0854e-08
-4.1436e-09
-4.1492e-09
1.7476e-10
-2.69971e-09
1.77596e-09
-2.90691e-10
-2.13798e-08
1.47877e-08
4.799e-09
-1.45958e-08
-5.89089e-09
5.40955e-09
5.74099e-10
9.05541e-09
5.6286e-09
1.45858e-08
-1.21312e-08
-1.61197e-08
1.78428e-08
1.04081e-08
4.87336e-10
-1.76701e-08
5.05166e-09
-1.29839e-08
4.93897e-09
8.53233e-09
-2.3574e-09
4.45487e-10
-2.55532e-09
-6.9698e-10
-1.384e-08
4.16402e-10
1.31496e-08
2.73954e-10
-1.58813e-08
1.34439e-09
2.93033e-09
7.35895e-09
-6.9926e-09
-3.29663e-09
4.69698e-09
-2.13129e-09
3.64674e-10
3.20831e-09
-9.8326e-10
5.13395e-09
1.778e-09
6.1273e-09
-7.42656e-10
1.20048e-09
-7.45041e-09
4.40907e-09
5.05612e-10
-5.65732e-09
2.33092e-09
-5.31231e-11
-1.06401e-08
3.50905e-09
6.14784e-09
2.20854e-09
-5.08298e-09
6.11852e-09
-3.24404e-09
4.61586e-09
-7.63961e-11
-3.34396e-10
-9.10513e-09
1.34585e-09
-5.92319e-09
-1.815e-09
-2.83944e-09
6.43246e-09
-5.88437e-09
7.57843e-09
-4.69664e-09
6.4731e-09
-5.52916e-10
1.9748e-09
8.50653e-09
-7.49505e-09
2.06937e-09
-2.35934e-09
2.35214e-09
3.5845e-09
-3.57731e-09
1.22605e-09
1.85464e-09
-5.43994e-09
6.73042e-09
-6.59502e-09
2.48565e-09
-3.04674e-09
4.72245e-09
5.05478e-09
2.97686e-09
-1.83181e-10
2.21281e-09
1.87927e-09
2.32365e-09
-4.03798e-10
4.63525e-09
2.27338e-09
-3.03155e-09
-6.43882e-10
-1.29451e-10
3.97014e-09
-2.70608e-09
1.22161e-09
8.28885e-09
4.41798e-09
1.52875e-09
-9.28807e-09
9.67114e-10
7.85254e-10
7.53566e-09
-1.61893e-09
-3.32964e-09
-4.33971e-09
9.54899e-09
-5.41936e-09
-5.74858e-09
2.26808e-09
8.24808e-09
7.11064e-09
-1.28944e-08
1.09434e-08
-5.1596e-09
3.06579e-09
6.31296e-09
4.33208e-09
-4.41756e-09
-3.24432e-09
-6.45378e-09
1.59461e-09
5.64445e-09
-2.31429e-09
1.92591e-10
-4.22524e-09
-6.72579e-09
7.13798e-09
3.81304e-09
-6.43452e-09
-1.05065e-10
-5.8662e-09
-1.24476e-08
1.04825e-08
-2.26543e-09
2.72632e-09
1.27291e-09
1.22754e-08
5.31888e-09
-5.83915e-09
-5.91429e-09
-1.89849e-10
-1.21706e-09
-9.77533e-10
-9.27917e-09
6.50733e-10
8.08187e-09
8.31904e-09
-1.51628e-08
-7.35084e-09
9.27447e-09
-1.00796e-08
4.63346e-10
-1.95045e-09
4.3027e-09
3.62734e-09
6.07228e-09
-1.40023e-08
-1.12625e-09
1.42953e-08
-8.86627e-09
-5.59246e-09
1.39075e-08
-9.44117e-09
1.29081e-08
-1.48731e-08
1.69062e-08
1.82367e-08
-2.90707e-08
-1.73966e-09
5.4068e-10
1.27208e-08
-1.65194e-10
8.86332e-09
3.26795e-09
7.76873e-10
1.05818e-08
1.21891e-08
1.09292e-08
-2.04209e-08
2.35048e-08
1.15242e-10
-7.04119e-09
-8.87877e-09
-3.3464e-09
-7.73227e-09
9.41686e-09
-8.72579e-09
1.08554e-08
-5.85519e-10
-1.80022e-08
-1.04711e-08
-7.2331e-09
-1.23812e-08
-8.22263e-09
9.98191e-09
-8.99241e-09
-2.11893e-08
6.83059e-09
-2.36149e-08
-1.31044e-08
5.876e-09
-1.51483e-08
-4.42112e-09
3.45608e-10
1.92238e-08
-1.25639e-08
-4.46921e-09
1.88472e-09
1.33011e-08
-1.17364e-08
-1.41286e-08
-2.33301e-09
1.12129e-08
-8.48408e-09
-2.65447e-09
1.14842e-08
-2.1792e-09
-1.07741e-08
1.73819e-09
-1.16774e-08
7.60626e-09
1.00957e-08
-1.1012e-08
7.38832e-09
7.55797e-09
-3.41166e-09
-1.15346e-08
-1.77131e-09
-2.51777e-09
-2.84924e-09
-1.32915e-09
5.68962e-09
6.174e-09
-1.52751e-08
9.87938e-09
-6.01084e-09
9.33567e-09
-1.28103e-08
3.54263e-09
-2.25002e-09
1.15177e-08
-4.30806e-09
-8.64658e-09
1.4428e-10
7.4576e-09
-1.14681e-08
-2.97535e-10
-8.93603e-09
1.02102e-08
6.18342e-09
1.58698e-08
-3.68035e-09
1.08878e-09
-1.32783e-08
-1.74787e-09
8.68168e-09
1.24194e-08
1.33345e-09
1.25959e-08
-1.19652e-08
-9.27722e-09
-2.01327e-08
2.43937e-09
1.54434e-08
-1.08824e-09
-6.44848e-09
-4.14241e-09
-1.10061e-08
2.74847e-08
-4.62372e-09
-2.17722e-08
1.26271e-08
1.31098e-08
-1.97561e-08
2.84657e-08
-1.45771e-08
5.86752e-09
-6.28285e-09
-1.8097e-08
-2.28612e-08
2.01333e-08
5.1673e-09
-1.54532e-08
-8.49632e-09
2.75152e-10
-1.63827e-08
2.77035e-08
1.33893e-08
-1.85932e-08
-1.1437e-08
-2.46009e-08
1.00953e-09
-4.34767e-09
-5.89357e-09
8.95956e-09
-2.53923e-09
-5.41076e-09
-1.52387e-08
-1.42836e-08
-6.76168e-09
1.71178e-09
-4.54568e-09
-1.50595e-09
-3.5403e-09
5.01091e-09
2.41151e-10
-3.92093e-09
5.10747e-09
-5.73229e-09
1.9896e-09
-1.09026e-08
4.99199e-09
1.72149e-09
-1.54326e-10
1.8588e-09
-1.60506e-09
7.99439e-09
1.28859e-10
9.26562e-09
-1.20624e-08
1.47084e-09
7.57387e-10
9.83418e-09
-8.11566e-10
-5.98427e-09
-5.26656e-09
-9.18104e-09
1.92366e-09
8.72826e-09
-4.42859e-09
-5.56404e-09
-1.03485e-09
6.17464e-09
-7.15542e-09
6.30778e-09
-6.29106e-09
-6.84861e-09
-1.00501e-08
6.0897e-09
-5.20082e-09
-7.5495e-10
-3.05109e-08
1.64486e-08
1.48173e-08
-2.71151e-08
1.42927e-08
2.68482e-09
-2.33541e-08
-6.44572e-09
-2.30265e-08
-4.79959e-09
4.69606e-10
-1.472e-08
-4.39574e-09
-2.08904e-08
-5.63162e-09
-2.23304e-08
-7.54132e-10
8.3645e-09
-2.11961e-09
4.20814e-09
-2.44189e-08
5.20802e-09
-3.35288e-09
-2.52093e-08
2.53961e-09
-2.03581e-08
-2.63629e-08
1.97953e-09
-1.48234e-08
1.70521e-08
-1.6538e-08
2.10571e-08
-7.32018e-09
-9.04102e-09
5.84747e-09
1.05137e-08
2.61001e-09
-9.9319e-09
1.71106e-12
-9.77087e-10
-2.1682e-09
-5.8957e-09
-3.26599e-09
-3.99548e-09
7.35401e-09
-9.25578e-11
1.79384e-09
6.49789e-09
-5.68171e-09
-1.00772e-08
8.47359e-09
6.0145e-09
-4.41094e-09
6.65423e-09
-2.36764e-09
-5.26368e-09
-8.81987e-09
4.20415e-09
-1.12438e-09
5.74011e-09
-2.25586e-10
-1.94005e-09
-1.48252e-09
-5.9642e-09
8.82172e-09
-1.375e-09
2.94755e-09
2.89087e-09
4.67894e-09
-1.05173e-08
-7.3511e-09
6.17982e-09
4.11885e-09
-4.6445e-09
8.54851e-09
-1.12551e-08
2.27226e-10
2.11858e-12
-4.87385e-09
-7.01916e-09
-1.21333e-09
7.33438e-10
-1.20652e-09
7.33219e-10
-6.54587e-09
6.8185e-09
1.95061e-10
-9.87669e-09
2.86313e-09
3.74738e-09
-2.86664e-09
5.93776e-09
9.53561e-09
4.12802e-09
-1.34687e-08
7.42843e-09
7.60399e-09
-5.49679e-09
-1.07728e-08
-7.76325e-10
-2.13093e-09
-1.21345e-09
-4.35654e-09
1.2558e-10
-5.6652e-09
1.02124e-10
1.0175e-10
-2.01958e-09
4.51519e-09
5.43309e-09
-5.82028e-09
1.31177e-08
-9.98564e-10
5.47808e-09
2.27843e-09
-3.88761e-09
-3.86895e-09
7.69741e-09
3.69051e-09
-5.90985e-09
3.64085e-10
-1.1331e-09
-1.27859e-08
1.49013e-09
3.57619e-09
-1.0929e-08
1.44476e-08
-8.59294e-09
1.2102e-08
-9.51461e-10
-1.33533e-08
2.20279e-09
6.99163e-10
7.28418e-09
4.1187e-09
-1.1392e-08
7.33606e-09
4.75512e-09
7.69002e-10
-1.31125e-08
6.86934e-09
5.49021e-09
-5.07535e-09
1.36984e-09
5.76929e-09
-6.37011e-09
-1.77996e-09
-7.35646e-09
7.26555e-09
1.87088e-09
-6.45044e-09
4.74438e-09
-7.38913e-11
-9.244e-09
7.63603e-09
8.21483e-09
-6.6068e-09
-1.77108e-10
-6.95109e-09
-2.11578e-09
-1.77542e-09
-5.75812e-09
-6.85601e-09
2.34433e-09
-1.05579e-10
4.63062e-09
-6.34572e-09
2.13662e-10
8.4764e-09
-4.34101e-09
5.33135e-09
1.3199e-09
1.08399e-10
-5.83807e-09
6.59759e-09
6.50604e-09
2.26218e-10
2.45504e-09
5.07544e-09
9.26629e-09
-5.04627e-09
7.11057e-09
-2.60812e-09
5.43861e-10
1.23428e-08
7.26247e-10
-1.36245e-08
5.55475e-10
9.44112e-09
5.5725e-09
-2.67084e-09
-4.77773e-09
6.40849e-09
7.81038e-09
-1.01749e-08
3.50969e-10
-6.08323e-09
7.96332e-09
5.23047e-09
5.66651e-09
-7.7448e-09
-5.29824e-10
8.64024e-10
-1.03127e-08
7.80359e-09
1.55841e-09
-7.5959e-09
-1.76608e-09
1.02814e-08
6.38963e-09
-8.8675e-09
-4.07047e-09
3.65373e-09
-9.07572e-09
1.65577e-08
2.79943e-09
-1.44799e-08
-5.5904e-09
1.09945e-08
2.4923e-10
-7.13e-09
1.1429e-09
-1.40644e-08
-1.40171e-08
4.3562e-09
-1.26249e-08
-6.66003e-09
-7.06699e-09
6.24999e-09
7.4771e-09
-3.87104e-09
-2.67983e-09
-1.09005e-10
-1.15743e-08
1.254e-09
3.25336e-09
-5.55226e-09
-9.89299e-09
2.98406e-09
-2.49644e-09
-4.85709e-09
4.36958e-09
-2.52611e-09
-3.94138e-09
9.45164e-09
-6.65921e-09
-8.81102e-09
1.29442e-08
1.90382e-09
-1.10594e-08
9.55195e-09
-2.95219e-09
-1.2152e-08
3.48912e-09
7.31684e-09
-4.72044e-09
-1.82976e-09
2.60889e-09
-5.19559e-09
2.61686e-09
-6.23222e-09
-4.95711e-10
1.88864e-09
-6.28616e-09
1.07004e-09
-7.69937e-09
6.74038e-10
5.69002e-09
-1.20902e-08
3.448e-09
6.7213e-09
-9.49525e-09
8.46399e-09
7.88283e-09
-8.45485e-11
-1.12975e-09
-6.66847e-09
7.2668e-09
-5.67011e-09
-1.06261e-09
9.17381e-09
-1.65944e-09
-7.34772e-09
-1.66627e-10
1.34246e-09
4.80749e-09
3.02388e-09
1.16067e-08
-1.07721e-08
-2.49409e-09
7.63478e-09
5.31444e-09
5.56732e-09
1.96889e-09
-2.72871e-09
-9.58717e-09
1.41451e-09
1.00099e-08
-1.83725e-09
1.98584e-09
-1.12472e-08
-3.25857e-10
4.95131e-09
6.01722e-09
2.39461e-09
-1.33632e-08
1.85487e-09
-6.49363e-11
3.20354e-09
-4.99348e-09
-9.00716e-09
1.08802e-08
-4.58547e-10
-8.59264e-09
1.57131e-09
4.91082e-09
7.67528e-09
2.46999e-09
4.95221e-09
8.52455e-09
7.50262e-09
3.89319e-09
6.92209e-09
-6.7043e-10
8.05126e-09
1.17473e-08
-7.30869e-09
1.01068e-08
-7.99268e-09
5.19468e-09
7.91398e-09
-9.99498e-09
-5.22768e-09
9.6069e-10
4.6217e-10
8.68406e-09
-8.48885e-09
8.42801e-10
8.60679e-09
-1.36087e-09
7.86022e-10
-1.16696e-09
-5.36551e-09
-1.46013e-09
-2.30632e-09
-8.85558e-09
-9.72413e-10
8.91781e-09
1.66066e-09
-9.60595e-09
1.24188e-08
1.30047e-09
-1.46916e-08
-1.19987e-09
7.7816e-11
1.35409e-08
8.18011e-09
-9.55484e-09
1.04754e-08
-1.04422e-08
-4.73463e-10
7.85535e-09
-1.00976e-08
-6.40437e-11
5.11811e-10
-3.09868e-09
3.28145e-09
1.09987e-09
5.7725e-09
-1.01538e-08
6.47063e-09
-6.06505e-09
2.87588e-09
3.76704e-09
-7.42011e-09
-6.6262e-09
1.02792e-08
3.43524e-09
-4.16974e-09
5.14797e-09
-4.41345e-09
-7.95981e-10
4.24142e-09
-1.02028e-11
-5.09494e-09
3.98418e-09
2.21065e-09
2.68464e-10
-1.40756e-09
-4.98335e-09
6.12245e-09
6.13752e-10
-4.27903e-09
-6.10349e-10
4.27562e-09
-3.6046e-09
4.1706e-09
4.77593e-11
4.31404e-09
-3.38222e-09
3.20054e-09
-4.13236e-09
-8.65622e-11
-8.8537e-09
1.30177e-09
-1.32252e-09
-5.37191e-12
-3.08207e-09
3.31618e-09
4.00731e-09
7.43385e-10
4.27843e-09
3.20836e-09
-8.10037e-10
-5.43291e-09
2.25823e-09
-4.83685e-09
8.01154e-09
2.35392e-09
-8.85302e-09
1.06621e-09
1.074e-08
-1.33131e-08
4.92702e-09
1.86989e-08
-5.7006e-09
-4.92726e-09
-1.12396e-08
2.85374e-09
9.60199e-09
-1.16355e-08
-2.89374e-09
1.50079e-09
-7.51845e-10
3.90768e-09
-1.40971e-08
-1.44609e-09
-9.0328e-09
-7.14459e-09
-6.43492e-09
8.74262e-09
-5.35025e-09
-2.93559e-10
-1.56258e-08
2.16289e-09
7.99221e-09
-1.6682e-08
-3.36639e-09
-1.15674e-08
7.29531e-09
-5.92226e-09
-1.09954e-08
-1.21779e-08
-1.3558e-08
1.85803e-09
2.38779e-08
-7.72596e-09
-6.19268e-09
1.74086e-09
1.60102e-08
-6.68828e-09
9.14054e-09
-2.40741e-09
8.34033e-09
-1.63651e-08
1.04324e-08
-1.70109e-08
7.91526e-09
-2.13333e-08
-3.74749e-09
2.51894e-08
-1.08503e-10
1.68271e-08
-2.46846e-08
1.66286e-08
1.19566e-08
-1.79228e-08
1.45847e-08
-1.70354e-09
1.73957e-09
8.89488e-09
1.06629e-08
1.62661e-08
-7.48276e-09
1.76811e-08
-7.24647e-09
-3.92977e-09
-5.18877e-09
-1.37325e-08
-9.47192e-09
1.4556e-08
9.50068e-09
-1.44507e-09
1.77362e-08
4.43214e-09
7.51069e-10
2.23089e-09
-7.41424e-09
3.4432e-09
-1.10017e-08
3.76891e-09
3.40262e-09
-3.53579e-09
-3.63577e-09
3.83089e-09
6.89072e-10
-5.25417e-09
2.35511e-09
-1.96729e-09
1.15731e-10
6.69105e-09
-1.22965e-09
-1.15646e-08
6.10323e-09
3.08279e-09
-1.12155e-09
4.72979e-09
2.29999e-09
4.2549e-09
-3.84953e-09
-2.70537e-09
4.1342e-09
-1.77611e-09
-5.81102e-11
-3.0904e-09
8.8887e-09
3.41323e-09
-8.17868e-09
-6.97533e-09
8.01912e-09
3.62357e-10
3.7637e-09
-4.19999e-09
2.02914e-11
-6.18658e-09
4.4669e-09
-1.74551e-08
3.39455e-10
-1.94631e-08
-8.63294e-09
-6.51493e-10
7.55052e-09
-8.00695e-09
1.10789e-09
6.22435e-09
-7.19623e-09
3.20367e-10
-9.73933e-09
1.90049e-09
4.41305e-09
3.42575e-09
-3.0184e-10
-2.81542e-09
-6.62208e-09
8.87827e-09
-2.86568e-09
-6.31445e-09
4.55066e-09
6.22809e-09
3.07766e-09
1.54244e-10
4.3186e-09
2.9939e-09
6.30811e-09
3.38974e-09
-2.22604e-10
-1.11741e-08
-6.67216e-09
3.13868e-09
-6.76068e-09
6.46131e-09
-2.83933e-09
7.41513e-09
-4.30545e-09
2.90033e-11
-6.28223e-09
2.85662e-09
-2.70135e-09
1.13883e-09
-5.92686e-12
-2.81852e-09
-5.1735e-09
5.17659e-09
2.10194e-10
-4.46842e-09
7.75474e-09
2.50904e-09
-9.49234e-09
-4.61493e-09
3.91419e-09
8.5384e-09
2.67367e-09
-1.84412e-09
-9.36797e-09
8.75271e-09
-6.56368e-10
-5.28718e-09
-2.80916e-09
9.12407e-09
1.11385e-08
-1.15099e-08
4.22826e-09
2.83561e-09
-7.35484e-09
2.90963e-10
7.08282e-09
-2.4381e-09
-4.16423e-10
2.97481e-09
5.68312e-09
-5.82226e-09
6.31611e-09
-3.99767e-09
-8.71999e-10
1.22673e-08
-2.27122e-09
-1.00982e-09
1.9962e-09
-7.19122e-09
6.20497e-09
-7.49156e-09
1.11629e-09
-3.56303e-09
7.32924e-09
2.54993e-09
2.42702e-09
-3.06913e-10
8.45341e-09
4.65098e-09
-5.05974e-09
-1.13186e-10
7.26021e-09
-3.51078e-09
-2.68325e-09
-1.06622e-09
4.49669e-09
6.13275e-09
-3.36928e-09
-1.07515e-08
-4.13948e-09
-3.68041e-09
1.85714e-08
3.21681e-09
8.98576e-09
-7.70599e-09
6.01724e-10
5.51692e-09
-1.16542e-08
5.5355e-09
-9.57525e-09
4.94725e-09
5.22975e-09
-9.37282e-09
1.13789e-08
4.49071e-10
4.36106e-09
-1.59346e-09
-6.01188e-09
1.05932e-08
-4.13222e-09
6.89433e-09
-3.38678e-09
-9.51941e-09
-7.1536e-09
-1.67708e-09
1.20747e-08
-3.24399e-09
-6.57007e-09
-3.84696e-10
-1.98774e-10
-1.42991e-08
5.45097e-09
9.68259e-09
-8.34386e-10
-1.08035e-10
-1.33639e-08
-8.27206e-10
1.00596e-08
6.76696e-10
-1.18459e-08
1.10967e-09
1.38336e-08
1.89132e-09
-7.78467e-09
-8.15434e-10
-2.92719e-08
-1.77037e-08
1.97227e-08
2.72528e-08
1.62284e-08
-2.81862e-08
-4.03416e-10
4.41893e-10
1.65192e-08
1.07631e-08
-1.71955e-10
-1.20352e-08
6.06904e-09
2.21945e-08
-7.17165e-09
8.43515e-10
-1.13756e-08
-5.23467e-09
1.39549e-08
3.71979e-09
5.16799e-09
-3.2482e-09
1.01498e-08
-1.40259e-08
1.2534e-09
-1.71385e-08
1.65416e-08
1.03872e-09
-9.90541e-09
1.17509e-08
3.2892e-09
-1.15571e-08
-3.48294e-09
5.02625e-09
6.87924e-09
-1.54524e-10
-7.7567e-09
4.16048e-09
8.62251e-09
3.47674e-10
-4.81518e-09
2.946e-09
-6.40662e-09
-6.29204e-09
-9.92276e-09
4.65772e-09
1.49819e-08
-7.8754e-09
-4.7215e-09
-1.20455e-10
-1.44996e-09
3.52968e-09
-1.50136e-08
6.60588e-09
8.7797e-09
-1.18558e-08
8.74261e-09
-2.25713e-09
-2.56837e-10
9.6206e-09
-5.84006e-10
-7.45126e-10
9.23092e-09
1.15789e-10
9.08122e-09
-6.76165e-09
9.18298e-09
-9.18695e-09
6.76559e-09
4.65368e-09
1.90991e-09
-4.88235e-09
-2.38206e-09
1.64473e-08
-1.23481e-08
-4.67544e-09
1.21411e-08
5.7802e-09
2.11879e-09
4.87634e-09
2.01277e-09
8.6967e-09
2.01913e-08
2.14825e-08
-1.51679e-08
-1.11548e-08
-9.87203e-09
9.87747e-09
1.11493e-08
-1.04374e-08
1.23654e-09
-1.95391e-09
-6.05643e-09
5.95092e-09
4.92992e-09
-4.82445e-09
7.3161e-10
-1.84069e-09
-4.94738e-09
6.31025e-09
-6.03226e-09
-1.07154e-08
-2.83018e-09
-1.2403e-09
6.00781e-09
-8.95483e-09
4.1873e-09
4.88664e-09
-8.88913e-09
2.76214e-09
7.47253e-09
-2.282e-10
-1.32479e-09
-9.16603e-11
8.88898e-09
4.96158e-09
-1.37754e-09
1.30257e-09
-1.06044e-09
4.69721e-09
-1.61888e-09
1.14046e-08
-8.15642e-10
6.89268e-10
-5.90588e-09
8.23003e-10
-5.92751e-09
4.28885e-09
-9.20963e-10
-7.34463e-09
-1.47974e-09
-8.3304e-09
-3.4378e-09
-1.24792e-10
2.50212e-09
-4.70324e-09
-1.12101e-10
4.20725e-09
4.60058e-09
-5.25735e-09
4.56075e-11
-1.4828e-10
-8.62711e-09
-1.20762e-08
2.33569e-08
-1.34877e-08
9.03975e-09
-1.16814e-08
1.51612e-08
-6.44773e-09
2.17478e-09
4.27722e-09
-1.20693e-10
-4.80582e-09
6.77512e-09
2.0548e-10
-4.31148e-09
7.70939e-09
-3.26938e-09
-1.28509e-10
-1.74147e-09
-4.11355e-09
6.17052e-09
-3.15498e-10
-3.32192e-10
1.42061e-08
-7.50352e-09
-4.26464e-10
-4.66659e-09
5.06088e-09
3.21763e-11
-5.07123e-09
4.75105e-09
-1.06261e-10
7.1966e-10
-5.26795e-09
-1.18266e-10
-1.41902e-09
3.39845e-09
-2.40844e-09
4.29024e-10
9.59557e-10
1.83708e-11
-2.00923e-09
3.05807e-09
-8.93064e-11
2.93532e-09
-6.34278e-09
3.49322e-09
-8.58137e-11
-3.52309e-09
-6.09426e-10
2.81759e-10
-1.36566e-09
4.20467e-09
9.62705e-11
-4.91343e-09
2.46362e-11
-1.38782e-09
-3.1838e-09
-3.41858e-10
-8.31183e-09
4.4278e-09
4.19392e-09
-3.09878e-10
4.25887e-09
4.19738e-09
-8.34651e-09
-1.09698e-10
-4.49194e-09
4.38976e-10
-8.1684e-09
3.42937e-09
2.47124e-10
-4.83834e-09
-1.68614e-09
1.54408e-10
-2.40899e-09
-4.71872e-09
2.71743e-10
-7.20869e-09
-3.85807e-11
-4.45138e-10
-4.97708e-09
5.3752e-09
4.70263e-11
-5.65849e-09
5.28991e-09
-7.65573e-11
-2.43793e-09
6.8153e-09
-4.17236e-09
-2.04977e-10
4.36041e-09
-6.47429e-09
-3.24015e-10
-2.43396e-09
3.76725e-09
-1.28645e-09
-4.68419e-11
2.52777e-10
-1.84619e-10
-2.97644e-09
3.41953e-09
-1.90321e-10
-4.91454e-09
-4.84432e-09
9.40299e-09
3.55928e-10
-2.01607e-09
7.11384e-09
2.33635e-10
-6.94304e-09
1.24243e-11
3.0213e-09
4.51503e-09
-7.36221e-09
-1.74097e-10
-4.05119e-09
6.95406e-09
1.18423e-10
2.16451e-09
-3.0818e-09
1.1289e-09
-2.12338e-10
-8.73933e-10
3.15798e-09
-1.1961e-10
2.61596e-09
-2.5048e-10
2.39587e-09
-6.66639e-09
4.47571e-09
-2.05148e-10
-4.08295e-09
6.46216e-09
1.672e-11
-6.87353e-09
3.08088e-09
-2.90244e-10
3.31254e-09
-5.56581e-09
2.93536e-09
-6.82094e-10
-2.42564e-09
8.08731e-11
-5.69072e-09
3.23304e-09
3.20666e-11
-9.77734e-10
4.90894e-09
-4.14057e-09
2.09383e-10
-4.63938e-09
3.57949e-09
8.22217e-11
-1.4049e-09
-4.99739e-09
6.62397e-09
-2.21594e-10
-5.80451e-09
4.55193e-09
-1.52335e-10
-7.24548e-09
1.82687e-09
-3.85855e-10
-2.50936e-09
4.30383e-09
-1.79297e-09
-1.53022e-12
-4.50416e-09
2.11508e-09
-1.20359e-10
4.07418e-09
3.67244e-10
-1.37623e-10
-5.10088e-10
3.86272e-09
7.57276e-11
-4.00814e-09
2.00482e-12
-3.30362e-09
-4.01573e-09
7.16897e-09
1.50349e-10
3.21541e-09
-6.54255e-09
2.35158e-11
7.28844e-09
-4.39639e-09
3.23361e-10
1.82594e-10
4.79276e-09
-4.81799e-09
-1.57448e-10
5.06679e-09
-4.79861e-09
-8.5492e-11
1.36245e-10
5.01013e-09
-7.9461e-11
-2.70796e-09
-2.64893e-09
5.36713e-09
-1.02114e-11
2.32014e-09
-4.97337e-09
-5.47103e-11
-2.32532e-09
4.44755e-09
1.97945e-10
-2.05197e-09
-4.61684e-09
6.48927e-09
1.79361e-10
4.09771e-09
-6.06954e-09
-8.01377e-11
1.36324e-09
-6.03583e-09
5.57201e-11
-3.70901e-09
-1.40926e-09
5.17534e-09
-5.70586e-11
-1.13126e-09
-4.12591e-09
5.37367e-09
-1.16449e-10
-4.79176e-09
-4.85318e-11
-4.29888e-10
-4.38966e-09
4.4597e-09
3.59791e-10
3.6361e-09
-4.26166e-09
1.95645e-10
6.75061e-09
4.3664e-09
-7.48092e-09
8.67293e-10
-6.35798e-09
5.60471e-09
-1.13982e-10
-6.26403e-09
7.19442e-09
-6.30688e-11
1.46654e-09
-5.40074e-09
4.20758e-09
-2.73485e-10
-4.05014e-09
5.51695e-09
-2.80062e-13
-2.17893e-09
-3.17594e-09
5.17462e-09