/*--------------------------------*- C++ -*----------------------------------*\
| =========                 |                                                 |
| \\      /  F ield         | OpenFOAM: The Open Source CFD Toolbox           |
|  \\    /   O peration     | Version:  v1612+                                |
|   \\  /    A nd           | Web:      www.OpenFOAM.com                      |
|    \\/     M anipulation  |                                                 |
\*---------------------------------------------------------------------------*/
FoamFile
{
    version     2.0;
    format      ascii;
    class       volScalarField;
    location    "200";
    object      p;
}
// * * * * * * * * * * * * * * * * * * * * * * * * * * * * * * * * * * * * * //

dimensions      [0 2 -2 0 0 0 0];

internalField   nonuniform List<scalar> 
19034
(
0.787331
0.786006
0.782763
0.783764
0.782162
0.781966
0.784516
0.790228
0.795199
0.789636
0.786774
0.784704
0.788765
0.791948
0.723469
0.732478
0.728926
0.727057
0.727689
0.737364
0.726984
0.737381
0.738026
0.744148
0.744551
0.738123
0.733076
0.738442
0.743021
0.736039
0.733799
0.731471
0.735698
0.680971
0.67807
0.680957
0.681702
0.683
0.679381
0.68628
0.683121
0.680208
0.690034
0.685549
0.684729
0.687363
0.685814
0.757603
0.758076
0.760342
0.758862
0.766584
0.769857
0.761038
0.758657
0.758947
0.759836
0.763673
0.765401
0.76564
0.771126
0.758434
0.760525
0.760045
0.760334
0.702925
0.704247
0.6985
0.70445
0.698556
0.705692
0.699395
0.706627
0.700446
0.707572
0.708502
0.713088
0.707152
0.712896
0.683795
0.683076
0.681664
0.685227
0.685235
0.692168
0.689551
0.688244
0.689978
0.694347
0.696377
0.695274
0.698023
0.689881
0.683885
0.688159
0.683626
0.683793
0.687954
0.693696
0.690994
0.685356
0.690052
0.699313
0.690799
0.716902
0.718825
0.718079
0.718769
0.716588
0.718051
0.715221
0.720305
0.717754
0.715417
0.716394
0.720382
0.719931
0.738578
0.740159
0.736684
0.742531
0.730649
0.735234
0.728417
0.726978
0.72579
0.733598
0.736248
0.736211
0.735811
0.730215
0.727146
0.726162
0.728889
0.730521
0.72354
0.723379
0.728357
0.724731
0.724054
0.728137
0.725228
0.724436
0.735251
0.73101
0.733148
0.730805
0.727946
0.722846
0.72895
0.734377
0.727583
0.728221
0.735842
0.725872
0.718717
0.724835
0.733165
0.722572
0.726321
0.677907
0.680333
0.682535
0.679269
0.678254
0.689222
0.686323
0.689279
0.690215
0.683243
0.67705
0.693735
0.69219
0.680241
0.739512
0.745473
0.740877
0.747643
0.740444
0.738586
0.737212
0.738757
0.739755
0.733834
0.739012
0.739163
0.739746
0.735325
0.726793
0.746384
0.745702
0.743465
0.751088
0.733651
0.757795
0.743368
0.738414
0.750075
0.756361
0.746755
0.736266
0.749621
0.750475
0.756827
0.76211
0.757122
0.769199
0.765238
0.781784
0.783529
0.760124
0.759498
0.779077
0.740637
0.740779
0.740408
0.736022
0.740552
0.73577
0.739905
0.739135
0.738794
0.736871
0.731326
0.740925
0.738684
0.742006
0.740215
0.738052
0.73622
0.73011
0.735183
0.735307
0.758482
0.75054
0.75617
0.742267
0.753569
0.743433
0.751031
0.739404
0.742752
0.746268
0.735872
0.733151
0.749688
0.742021
0.654486
0.659746
0.677056
0.670795
0.667307
0.683409
0.687887
0.652853
0.654268
0.668305
0.670612
0.67828
0.673131
0.657173
0.657195
0.660438
0.669903
0.665634
0.654909
0.651497
0.669949
0.669193
0.666902
0.671124
0.65308
0.65125
0.659762
0.658987
0.665716
0.670787
0.658184
0.666536
0.666024
0.662363
0.660837
0.65625
0.651462
0.656414
0.71438
0.713411
0.711897
0.716648
0.713063
0.710932
0.713031
0.715459
0.716315
0.712282
0.717569
0.718433
0.713775
0.7792
0.778881
0.776946
0.774506
0.775114
0.781106
0.775227
0.770328
0.770515
0.774143
0.769892
0.769768
0.765918
0.766829
0.764571
0.772261
0.7481
0.749811
0.74883
0.749258
0.751456
0.746551
0.749089
0.749687
0.749869
0.747929
0.756329
0.751214
0.750672
0.755396
0.750568
0.751731
0.743545
0.745215
0.747467
0.746496
0.749078
0.74678
0.754682
0.748059
0.748245
0.748149
0.747427
0.743381
0.746945
0.739891
0.743063
0.740444
0.786276
0.783336
0.784665
0.784254
0.775928
0.775913
0.788901
0.786722
0.77942
0.776739
0.777776
0.784226
0.777983
0.785895
0.766397
0.762478
0.771669
0.768582
0.756276
0.76396
0.767146
0.762182
0.758689
0.764355
0.764979
0.77871
0.775161
0.771036
0.778948
0.774726
0.763558
0.773733
0.774811
0.77669
0.723637
0.736517
0.730576
0.742458
0.72928
0.737761
0.72799
0.734191
0.728559
0.731473
0.756987
0.754531
0.756313
0.759361
0.753792
0.75257
0.745259
0.746831
0.750805
0.75523
0.754352
0.74995
0.749718
0.74591
0.748255
0.754314
0.746717
0.748877
0.746997
0.746928
0.746624
0.750443
0.749521
0.748628
0.746731
0.746417
0.751651
0.747917
0.747502
0.751528
0.754293
0.754219
0.753008
0.75108
0.747195
0.705802
0.704178
0.701607
0.704342
0.70179
0.701933
0.706718
0.70664
0.706397
0.700027
0.702458
0.69984
0.708359
0.70409
0.704472
0.705998
0.707028
0.706516
0.717341
0.712747
0.695745
0.688504
0.717414
0.719089
0.692911
0.703761
0.706245
0.711694
0.718171
0.713822
0.691995
0.688453
0.704102
0.698782
0.700954
0.700559
0.694845
0.716799
0.718041
0.709671
0.739004
0.739248
0.735614
0.735771
0.731926
0.739863
0.734662
0.733052
0.732727
0.743955
0.732326
0.735684
0.735079
0.735835
0.690283
0.690881
0.689565
0.67181
0.669317
0.691392
0.6836
0.709628
0.712386
0.7079
0.71675
0.69766
0.698946
0.710101
0.711373
0.696849
0.695718
0.716373
0.720906
0.719028
0.714697
0.700842
0.717868
0.707465
0.71596
0.66486
0.671578
0.665565
0.67127
0.65941
0.6542
0.649982
0.667039
0.660396
0.663141
0.661732
0.652301
0.651205
0.651892
0.745187
0.74084
0.74085
0.743548
0.740286
0.739836
0.739828
0.743261
0.74284
0.740933
0.743589
0.739259
0.739845
0.741936
0.740813
0.742713
0.742809
0.734389
0.737416
0.717335
0.714917
0.716775
0.717281
0.720276
0.712395
0.713498
0.72246
0.719597
0.714592
0.717816
0.717118
0.717596
0.719328
0.723365
0.721669
0.719441
0.718463
0.718451
0.714808
0.707887
0.70479
0.700869
0.694015
0.709306
0.710335
0.711653
0.706976
0.709397
0.693365
0.690112
0.701922
0.712809
0.701597
0.702795
0.696884
0.692144
0.694559
0.705787
0.697637
0.693344
0.734542
0.735525
0.734694
0.733121
0.736013
0.734963
0.733494
0.735172
0.73762
0.737851
0.738963
0.738167
0.738305
0.738982
0.743151
0.744559
0.742351
0.741739
0.745662
0.744655
0.74267
0.741751
0.745007
0.743813
0.74558
0.734582
0.739417
0.746098
0.74262
0.744727
0.742572
0.743097
0.735167
0.739944
0.738758
0.736741
0.747012
0.740042
0.74185
0.740105
0.744882
0.74458
0.742277
0.746042
0.745837
0.73974
0.750729
0.750208
0.754193
0.749726
0.751319
0.753036
0.748602
0.749036
0.746685
0.750143
0.741314
0.744392
0.741898
0.744727
0.739355
0.739442
0.739915
0.742565
0.741584
0.745066
0.746787
0.653036
0.664422
0.666028
0.660066
0.660997
0.670808
0.667976
0.658207
0.670749
0.670535
0.662169
0.656409
0.655353
0.665661
0.672572
0.666547
0.669889
0.728816
0.730533
0.725133
0.73205
0.733607
0.728389
0.72645
0.729209
0.727103
0.727029
0.72894
0.729859
0.732241
0.729758
0.736809
0.730732
0.72488
0.738196
0.735074
0.732805
0.736946
0.729529
0.711573
0.710009
0.705661
0.70764
0.710389
0.713428
0.714825
0.709032
0.709092
0.710042
0.716033
0.714867
0.721864
0.71636
0.713953
0.718009
0.726568
0.713556
0.717977
0.689284
0.691882
0.697687
0.696949
0.695095
0.685861
0.696223
0.695697
0.687693
0.688642
0.693707
0.687582
0.703401
0.706877
0.697369
0.687775
0.696681
0.703786
0.702577
0.698514
0.693094
0.694158
0.691057
0.686174
0.68394
0.684937
0.690665
0.685462
0.684938
0.687585
0.690016
0.680108
0.682595
0.683909
0.686382
0.68874
0.684373
0.735018
0.739804
0.739468
0.740876
0.741035
0.740983
0.742639
0.730879
0.734203
0.735092
0.739241
0.735117
0.752355
0.742661
0.737093
0.737308
0.748045
0.748376
0.741069
0.653153
0.649728
0.641728
0.654409
0.657431
0.653286
0.636379
0.661327
0.715916
0.716117
0.71829
0.718429
0.712985
0.710736
0.709254
0.716459
0.709686
0.71016
0.71368
0.712703
0.712365
0.709255
0.709757
0.716469
0.713518
0.706812
0.693894
0.693269
0.695162
0.697538
0.695758
0.700046
0.707586
0.708442
0.693959
0.689598
0.701939
0.703227
0.702921
0.706652
0.703579
0.696507
0.700962
0.695243
0.691424
0.679085
0.680348
0.686358
0.684352
0.680513
0.678889
0.689038
0.690326
0.694904
0.692657
0.689881
0.681278
0.671429
0.688473
0.670454
0.676908
0.67752
0.686617
0.685612
0.696825
0.697965
0.698332
0.694559
0.693361
0.698012
0.701272
0.698835
0.698691
0.698503
0.698361
0.692771
0.691725
0.691193
0.693408
0.68694
0.691553
0.687758
0.683795
0.6888
0.750835
0.751506
0.746838
0.745161
0.747495
0.744246
0.745077
0.748358
0.724306
0.733215
0.716933
0.719838
0.738542
0.733524
0.711768
0.711902
0.728777
0.736299
0.72756
0.726815
0.738208
0.731731
0.758355
0.759441
0.767902
0.760787
0.752584
0.761294
0.755336
0.757421
0.754118
0.741766
0.748285
0.753577
0.749196
0.748674
0.742837
0.752858
0.749518
0.748957
0.730212
0.73333
0.719534
0.721237
0.728248
0.7294
0.723343
0.725646
0.717608
0.71962
0.735516
0.718139
0.714196
0.719222
0.72045
0.722449
0.728278
0.733567
0.720664
0.723107
0.726984
0.708841
0.710981
0.707935
0.703908
0.708238
0.717081
0.717319
0.711376
0.715762
0.715977
0.716231
0.722404
0.725901
0.749562
0.764996
0.761793
0.763645
0.765845
0.773563
0.7727
0.77108
0.763763
0.768371
0.770022
0.757506
0.758307
0.771025
0.768301
0.767157
0.764679
0.729308
0.739985
0.744399
0.745273
0.74377
0.740069
0.749677
0.731509
0.733751
0.738609
0.741455
0.747366
0.735124
0.740136
0.741254
0.731778
0.732471
0.739236
0.737786
0.738164
0.735038
0.733187
0.736065
0.738513
0.741094
0.742588
0.741053
0.736832
0.737001
0.742042
0.745895
0.735487
0.746081
0.749023
0.739203
0.742246
0.741721
0.736127
0.735607
0.733275
0.731447
0.738774
0.740108
0.730395
0.730676
0.735804
0.729111
0.730241
0.732582
0.738213
0.736962
0.732904
0.735712
0.7346
0.741386
0.739807
0.737696
0.728814
0.73591
0.727495
0.72899
0.738434
0.729905
0.731975
0.731442
0.738355
0.73782
0.746714
0.717275
0.720833
0.720675
0.722775
0.719292
0.720724
0.716325
0.723004
0.723335
0.721936
0.72339
0.747006
0.746834
0.739229
0.737558
0.738499
0.747791
0.742128
0.733905
0.740628
0.739816
0.743958
0.746341
0.741378
0.737661
0.740642
0.744179
0.736391
0.738575
0.738619
0.739216
0.739453
0.737663
0.757873
0.759034
0.7547
0.753251
0.75215
0.758972
0.753579
0.752076
0.765743
0.765824
0.755002
0.752127
0.764169
0.76319
0.759495
0.756572
0.759537
0.716034
0.718432
0.71897
0.718741
0.723022
0.722972
0.723658
0.717694
0.725281
0.712059
0.71699
0.721729
0.714188
0.71107
0.72091
0.717955
0.725352
0.725673
0.726175
0.721344
0.783618
0.783558
0.780245
0.793861
0.795577
0.79257
0.789559
0.789631
0.785238
0.782711
0.785809
0.782361
0.790577
0.792509
0.789977
0.79449
0.782672
0.786581
0.791381
0.789119
0.778576
0.777688
0.79145
0.790549
0.788444
0.789832
0.788329
0.790046
0.778173
0.785217
0.777539
0.778316
0.779564
0.776185
0.783442
0.753468
0.757827
0.755139
0.760271
0.756575
0.764207
0.763542
0.748598
0.746001
0.749863
0.740404
0.750136
0.74717
0.745805
0.748917
0.747277
0.750177
0.747614
0.742475
0.748553
0.738696
0.742542
0.745883
0.747458
0.748747
0.748339
0.749363
0.803002
0.801762
0.758188
0.760232
0.749983
0.747805
0.746477
0.74534
0.750237
0.783849
0.785115
0.798492
0.800973
0.761085
0.771546
0.767616
0.767575
0.77969
0.779904
0.785648
0.784149
0.790495
0.735942
0.742054
0.739461
0.741942
0.740346
0.745019
0.744233
0.773384
0.775877
0.776979
0.750407
0.759815
0.76062
0.76819
0.763841
0.763135
0.732229
0.733955
0.730601
0.741051
0.745512
0.751376
0.753906
0.739568
0.737366
0.738682
0.734358
0.720131
0.723715
0.752792
0.755589
0.75724
0.751811
0.754442
0.752964
0.755176
0.759041
0.763098
0.766731
0.720762
0.720962
0.725163
0.744404
0.740922
0.736862
0.724314
0.723582
0.731899
0.729906
0.721898
0.730596
0.746048
0.747096
0.740519
0.73118
0.732365
0.734239
0.703874
0.703783
0.749133
0.748428
0.709987
0.708472
0.694481
0.694091
0.737955
0.731255
0.729867
0.736131
0.694671
0.69923
0.695783
0.701796
0.700628
0.694082
0.711411
0.718267
0.717663
0.722593
0.742096
0.742447
0.661646
0.66051
0.666813
0.665033
0.663156
0.678152
0.680724
0.731457
0.726847
0.718033
0.71756
0.69271
0.700417
0.701481
0.618739
0.614365
0.612753
0.756554
0.754974
0.746204
0.753343
0.636715
0.638117
0.629176
0.678496
0.664279
0.667133
0.737276
0.736538
0.673811
0.676162
0.709176
0.708558
0.699689
0.714906
0.713205
0.58482
0.586047
0.60781
0.608668
0.619797
0.754044
0.754862
0.755978
0.64392
0.645131
0.73668
0.738619
0.645584
0.644457
0.697639
0.690103
0.69162
0.56299
0.56711
0.735065
0.73729
0.666812
0.666871
0.666929
0.678098
0.678409
0.683529
0.68532
0.67355
0.669955
0.75558
0.747875
0.752686
0.744093
0.739508
0.746997
0.739495
0.748866
0.736942
0.728515
0.728576
0.748352
0.750215
0.754645
0.750531
0.679873
0.685588
0.687964
0.683725
0.746567
0.744092
0.738358
0.737729
0.749214
0.755786
0.749243
0.724853
0.73381
0.735824
0.733323
0.736809
0.745313
0.748366
0.746509
0.740563
0.746374
0.740285
0.740567
0.737498
0.732882
0.742234
0.735209
0.733617
0.737575
0.73384
0.678346
0.683382
0.657162
0.660479
0.655428
0.690404
0.697841
0.701933
0.695234
0.700484
0.680879
0.676334
0.678476
0.673395
0.676493
0.676226
0.668601
0.672453
0.675548
0.677817
0.674611
0.669893
0.665003
0.747679
0.752713
0.757195
0.74806
0.751445
0.74961
0.746497
0.744528
0.741675
0.745379
0.747662
0.746063
0.750682
0.75087
0.749247
0.75786
0.729405
0.728055
0.722013
0.721262
0.726789
0.740706
0.73494
0.733048
0.726458
0.733988
0.72811
0.731145
0.734539
0.737097
0.735242
0.730607
0.733535
0.755059
0.747121
0.741669
0.744991
0.740147
0.745671
0.73407
0.737896
0.74432
0.746223
0.742602
0.749601
0.745372
0.752107
0.745441
0.73695
0.73354
0.738556
0.738237
0.73459
0.739983
0.740347
0.742683
0.735494
0.789932
0.791647
0.788586
0.785326
0.784616
0.56153
0.572265
0.573932
0.622024
0.615736
0.615046
0.605917
0.621217
0.6103
0.633827
0.624994
0.606141
0.602679
0.701075
0.714371
0.715589
0.712464
0.704033
0.703958
0.727857
0.717063
0.734079
0.72045
0.549868
0.548708
0.552582
0.576805
0.562813
0.626468
0.634114
0.631278
0.637528
0.722669
0.730686
0.732273
0.735371
0.735151
0.74351
0.745527
0.728027
0.74521
0.742537
0.782837
0.775591
0.683644
0.689241
0.678418
0.672887
0.675771
0.680354
0.676239
0.681027
0.685134
0.678928
0.685563
0.770524
0.772493
0.765872
0.720918
0.721416
0.743374
0.744179
0.741731
0.736626
0.766087
0.765256
0.75889
0.751457
0.735691
0.73593
0.756598
0.745127
0.746944
0.741404
0.739295
0.575962
0.582329
0.572655
0.561254
0.573644
0.569786
0.573407
0.598493
0.583282
0.596454
0.605643
0.583875
0.582139
0.695537
0.679849
0.686917
0.687574
0.691977
0.703475
0.698808
0.700425
0.695803
0.706329
0.707185
0.700216
0.700964
0.704957
0.699853
0.710809
0.712745
0.711994
0.707772
0.708549
0.65143
0.640385
0.629749
0.633832
0.64448
0.643888
0.628913
0.632555
0.63232
0.691072
0.703176
0.712393
0.701042
0.74455
0.744448
0.742132
0.732199
0.733139
0.728183
0.715138
0.718173
0.722139
0.703866
0.731845
0.732424
0.777534
0.775717
0.775459
0.761328
0.741956
0.753276
0.748176
0.755548
0.741553
0.748448
0.744438
0.734558
0.746081
0.735868
0.730264
0.733581
0.636569
0.629519
0.624192
0.613828
0.618051
0.655851
0.653493
0.66911
0.680705
0.660946
0.66234
0.668096
0.659498
0.740457
0.743798
0.762113
0.755176
0.74713
0.754186
0.74845
0.74687
0.739693
0.749176
0.746379
0.75921
0.748759
0.75481
0.748033
0.740433
0.75983
0.760382
0.751125
0.76911
0.762982
0.769337
0.756387
0.757097
0.755524
0.59507
0.587988
0.60077
0.594695
0.611352
0.605793
0.608947
0.606077
0.598855
0.594698
0.597759
0.596286
0.580881
0.602487
0.604431
0.58563
0.577637
0.602967
0.578102
0.585004
0.584109
0.583984
0.578435
0.719956
0.719996
0.719331
0.710659
0.711598
0.733095
0.737043
0.727124
0.728058
0.731947
0.685491
0.686994
0.701937
0.67563
0.703524
0.697722
0.702722
0.690409
0.693129
0.707941
0.717021
0.718142
0.700233
0.706319
0.706721
0.705119
0.650644
0.650153
0.659468
0.668171
0.655861
0.66536
0.669408
0.671837
0.668229
0.656024
0.660011
0.657031
0.660334
0.672817
0.673932
0.684154
0.68211
0.679809
0.679853
0.676168
0.676652
0.667512
0.760045
0.7611
0.755472
0.727131
0.735723
0.727451
0.731483
0.733377
0.726931
0.722732
0.74691
0.752976
0.751786
0.755827
0.72198
0.717538
0.719817
0.725657
0.724872
0.722893
0.722135
0.723481
0.723933
0.73221
0.732351
0.733548
0.631015
0.63222
0.690112
0.693878
0.674257
0.674518
0.674433
0.672373
0.664281
0.647575
0.650386
0.679015
0.673716
0.663509
0.662451
0.625979
0.617127
0.625645
0.642002
0.642118
0.63946
0.632015
0.637597
0.633424
0.748867
0.750897
0.743322
0.74598
0.745599
0.740611
0.749012
0.750291
0.74277
0.748935
0.753076
0.745715
0.74716
0.756195
0.75056
0.75171
0.757854
0.753187
0.757175
0.759179
0.756906
0.633275
0.632728
0.628072
0.641849
0.635878
0.64289
0.602315
0.598769
0.600814
0.599139
0.610479
0.612869
0.606857
0.616189
0.612091
0.608696
0.613865
0.706154
0.699301
0.689068
0.690489
0.698768
0.690931
0.697286
0.69652
0.699581
0.698345
0.714112
0.70709
0.715362
0.713289
0.704836
0.70385
0.703013
0.698585
0.698787
0.701318
0.706058
0.707934
0.706454
0.70793
0.710111
0.70942
0.708619
0.70862
0.721087
0.718283
0.721145
0.724456
0.723836
0.718623
0.720254
0.720494
0.721924
0.722205
0.72769
0.728738
0.735778
0.723001
0.72407
0.720318
0.719106
0.721493
0.733864
0.727113
0.720054
0.724641
0.728185
0.715155
0.713146
0.727307
0.721192
0.728907
0.727612
0.677512
0.672621
0.670816
0.675009
0.676562
0.677695
0.690497
0.67977
0.686611
0.689791
0.683589
0.679638
0.685572
0.684365
0.688746
0.691505
0.679268
0.692847
0.675173
0.669895
0.675702
0.673403
0.671896
0.659304
0.670825
0.669548
0.67675
0.667141
0.663046
0.670547
0.670296
0.673429
0.676764
0.668081
0.649436
0.654211
0.652505
0.65916
0.644272
0.647979
0.640369
0.65218
0.653969
0.660341
0.648868
0.643983
0.741332
0.736692
0.746064
0.751951
0.746371
0.743233
0.741824
0.711526
0.71209
0.717821
0.724234
0.721144
0.720018
0.721025
0.722608
0.716597
0.714576
0.715734
0.717407
0.715006
0.708504
0.710175
0.716453
0.711795
0.716554
0.71192
0.729036
0.72293
0.719904
0.713638
0.712137
0.706737
0.701667
0.705701
0.711851
0.715077
0.717699
0.706543
0.708928
0.701499
0.721829
0.708624
0.715102
0.719015
0.710182
0.696228
0.69839
0.702901
0.687224
0.69266
0.705775
0.708441
0.70159
0.704727
0.705709
0.699874
0.6993
0.697046
0.689033
0.69811
0.697238
0.69588
0.692327
0.689896
0.687098
0.684038
0.681713
0.679946
0.686613
0.689848
0.689194
0.685475
0.7401
0.738174
0.73496
0.736137
0.737799
0.739061
0.748696
0.738071
0.735007
0.738233
0.732441
0.738363
0.717139
0.715183
0.727326
0.727077
0.717451
0.715257
0.73412
0.732102
0.718822
0.710625
0.706254
0.699991
0.698537
0.713268
0.705597
0.708527
0.708925
0.709106
0.711233
0.753881
0.751684
0.740155
0.746454
0.75293
0.745894
0.745055
0.747623
0.744777
0.742437
0.71078
0.708214
0.696368
0.700682
0.701965
0.704737
0.699824
0.70528
0.705904
0.703694
0.704025
0.735464
0.731979
0.72473
0.731088
0.741407
0.737302
0.729458
0.730105
0.732373
0.733036
0.734651
0.729643
0.732201
0.731992
0.737247
0.738092
0.73107
0.722388
0.725687
0.72338
0.727949
0.72786
0.736892
0.733226
0.733829
0.743042
0.742001
0.749952
0.739959
0.749744
0.74552
0.74324
0.739707
0.760164
0.754604
0.750091
0.747814
0.750566
0.750306
0.744539
0.745864
0.74403
0.73931
0.723971
0.730157
0.719913
0.720373
0.727265
0.733047
0.731324
0.736592
0.713146
0.715968
0.712832
0.746443
0.734521
0.73672
0.740638
0.732634
0.73082
0.729457
0.727803
0.727185
0.731443
0.727786
0.725959
0.739161
0.735303
0.721526
0.719597
0.744872
0.743163
0.746888
0.747684
0.739214
0.73901
0.737857
0.738661
0.73589
0.730834
0.736883
0.739622
0.736209
0.740645
0.743713
0.739972
0.73927
0.736391
0.744287
0.723361
0.723665
0.716396
0.715192
0.716662
0.723298
0.722064
0.729588
0.727706
0.724723
0.725625
0.718884
0.717536
0.723142
0.722182
0.722312
0.717727
0.718654
0.772579
0.768383
0.764064
0.767895
0.768206
0.763754
0.755981
0.75056
0.757998
0.757815
0.754553
0.757272
0.762892
0.760194
0.754257
0.76668
0.762782
0.760609
0.757256
0.762139
0.760869
0.761794
0.759202
0.762494
0.763889
0.758398
0.751669
0.753188
0.74684
0.754469
0.755681
0.753945
0.758653
0.757056
0.75532
0.753118
0.755292
0.748888
0.750748
0.747554
0.742569
0.747014
0.752946
0.748114
0.745399
0.751285
0.750661
0.749697
0.765117
0.755009
0.748001
0.741724
0.756645
0.766165
0.753068
0.758378
0.75379
0.762434
0.7607
0.733668
0.731033
0.732573
0.731926
0.726557
0.725584
0.724762
0.727319
0.728213
0.725276
0.723938
0.715253
0.720175
0.745547
0.740022
0.740059
0.736585
0.733462
0.728137
0.732568
0.737432
0.741639
0.743757
0.730495
0.734252
0.740838
0.740781
0.73824
0.733865
0.73161
0.734675
0.740392
0.743071
0.743699
0.740335
0.737403
0.741045
0.73741
0.736684
0.738429
0.739081
0.749497
0.756067
0.751827
0.748967
0.754888
0.748319
0.753661
0.752383
0.736311
0.733592
0.739102
0.738454
0.73643
0.739597
0.734462
0.736069
0.734271
0.733811
0.732113
0.733918
0.734432
0.735936
0.734194
0.781439
0.77527
0.778271
0.77333
0.771693
0.772172
0.768824
0.776592
0.769745
0.767772
0.762028
0.772966
0.767357
0.773589
0.77538
0.775439
0.772526
0.76826
0.760887
0.760997
0.758995
0.764156
0.758952
0.761723
0.765337
0.759938
0.755978
0.7622
0.761132
0.775666
0.783483
0.77616
0.769537
0.746292
0.74025
0.743428
0.748394
0.748369
0.762774
0.765707
0.762772
0.773433
0.764198
0.762451
0.735662
0.746383
0.746328
0.741247
0.788957
0.784281
0.775784
0.78133
0.776419
0.779159
0.779725
0.779848
0.776195
0.754429
0.74871
0.750634
0.754983
0.753317
0.740952
0.744692
0.750087
0.751708
0.747195
0.752076
0.749053
0.746682
0.74839
0.745455
0.749771
0.745222
0.744745
0.744466
0.748414
0.747628
0.741794
0.742828
0.74423
0.746523
0.740132
0.736886
0.736564
0.736931
0.73693
0.740688
0.741896
0.745135
0.744589
0.806481
0.798109
0.79775
0.790873
0.786713
0.789709
0.796662
0.780975
0.784552
0.779307
0.785491
0.785734
0.774942
0.778459
0.774216
0.778783
0.772655
0.774238
0.77791
0.779805
0.781481
0.7883
0.773382
0.782235
0.780493
0.771394
0.773358
0.771519
0.77078
0.765088
0.768133
0.768463
0.761282
0.781121
0.775616
0.765644
0.771124
0.771845
0.76718
0.763808
0.768917
0.770089
0.764606
0.757032
0.75999
0.765059
0.771464
0.761584
0.759414
0.75986
0.761155
0.764794
0.762467
0.75891
0.81269
0.805449
0.813412
0.791285
0.790302
0.810682
0.818715
0.80256
0.802979
0.805484
0.807649
0.809438
0.797538
0.785543
0.787019
0.803109
0.80381
0.79072
0.748205
0.753123
0.748112
0.748406
0.750704
0.749076
0.748851
0.747662
0.752907
0.75012
0.745905
0.751956
0.750233
0.751091
0.749628
0.744732
0.745497
0.750173
0.749458
0.776589
0.773959
0.76894
0.767477
0.761996
0.768902
0.770437
0.758109
0.765329
0.764794
0.767084
0.763523
0.762039
0.765791
0.763127
0.752589
0.756491
0.760052
0.758952
0.751149
0.755287
0.750881
0.749698
0.747394
0.813537
0.808548
0.810807
0.80895
0.804093
0.803638
0.804189
0.798794
0.807289
0.796454
0.800314
0.803307
0.802417
0.813001
0.814504
0.792808
0.795604
0.754494
0.754264
0.745746
0.748618
0.755209
0.750302
0.752235
0.75111
0.751059
0.753626
0.749269
0.747459
0.745212
0.746698
0.73974
0.744634
0.744018
0.748284
0.747307
0.747996
0.746797
0.806621
0.811031
0.801726
0.800503
0.809065
0.753581
0.752294
0.750278
0.748193
0.74875
0.74467
0.749163
0.748987
0.744584
0.748181
0.754019
0.760764
0.760016
0.75757
0.751137
0.756839
0.753479
0.751942
0.752107
0.751484
0.810334
0.802882
0.796083
0.806289
0.78787
0.795572
0.796882
0.756678
0.758311
0.755205
0.758962
0.763243
0.76068
0.753609
0.750777
0.752503
0.748496
0.752906
0.755546
0.759251
0.754421
0.754136
0.748341
0.756923
0.752752
0.754823
0.799289
0.791493
0.791612
0.795124
0.790893
0.802488
0.801662
0.799064
0.800446
0.799209
0.742895
0.740953
0.744144
0.741973
0.741186
0.74
0.739346
0.736115
0.737417
0.751359
0.74885
0.750145
0.751635
0.753682
0.754631
0.765737
0.771306
0.772676
0.77663
0.776779
0.772215
0.766726
0.777207
0.770202
0.771048
0.740823
0.744904
0.743444
0.743726
0.749594
0.745876
0.749481
0.752211
0.754138
0.755186
0.747966
0.748751
0.75231
0.753309
0.819394
0.815486
0.810178
0.82311
0.784907
0.784483
0.780099
0.779205
0.770675
0.773688
0.788977
0.785638
0.787462
0.799534
0.800848
0.796088
0.799091
0.799122
0.797891
0.791869
0.792105
0.743119
0.745755
0.742634
0.740417
0.744845
0.740316
0.740202
0.75667
0.759798
0.757531
0.759259
0.75383
0.753939
0.748885
0.756827
0.754041
0.748834
0.745706
0.745341
0.735367
0.738855
0.73589
0.738401
0.734411
0.75745
0.752607
0.753208
0.749846
0.752602
0.741807
0.750418
0.754286
0.751636
0.745313
0.772375
0.76337
0.769273
0.776955
0.777175
0.758991
0.761613
0.754884
0.755525
0.754842
0.760413
0.757606
0.757099
0.76041
0.755044
0.751901
0.751175
0.756617
0.755105
0.753815
0.755625
0.757694
0.753716
0.742629
0.738413
0.740898
0.745208
0.740766
0.741105
0.739007
0.737729
0.74042
0.742331
0.742072
0.742093
0.74101
0.746011
0.744631
0.742898
0.743971
0.738623
0.742977
0.742754
0.743633
0.752352
0.741591
0.743985
0.744693
0.746343
0.714031
0.714556
0.736075
0.732652
0.728954
0.730964
0.726111
0.72356
0.718368
0.724127
0.730079
0.728209
0.735034
0.731252
0.729119
0.735586
0.733325
0.731627
0.732886
0.730819
0.760761
0.76554
0.762688
0.766341
0.766862
0.763124
0.764576
0.768227
0.774407
0.776094
0.776362
0.78296
0.74882
0.742886
0.744681
0.750503
0.75182
0.745792
0.746496
0.746862
0.747151
0.744012
0.751545
0.746006
0.744757
0.740576
0.751332
0.744494
0.747718
0.753657
0.749462
0.744078
0.757655
0.749632
0.754418
0.752572
0.760808
0.757921
0.757642
0.752291
0.750999
0.7445
0.757444
0.751061
0.748028
0.749088
0.749126
0.748876
0.74896
0.745317
0.750722
0.755716
0.749678
0.746799
0.74818
0.754521
0.745957
0.754096
0.756871
0.75757
0.762
0.759637
0.759612
0.761536
0.756775
0.763095
0.762702
0.760191
0.749486
0.761982
0.753383
0.750247
0.751714
0.748378
0.757312
0.756015
0.754714
0.755868
0.764643
0.761476
0.776974
0.772053
0.724199
0.723542
0.722974
0.716669
0.720804
0.721038
0.727824
0.72694
0.724869
0.722152
0.72279
0.727765
0.72553
0.721014
0.7225
0.719008
0.720838
0.723605
0.726314
0.727673
0.728284
0.726591
0.730152
0.729976
0.735219
0.737807
0.735622
0.744325
0.741837
0.74334
0.741838
0.730499
0.733655
0.732883
0.73399
0.732593
0.737092
0.732621
0.735922
0.736564
0.733305
0.740148
0.742829
0.739853
0.73655
0.739681
0.742535
0.746639
0.741973
0.741291
0.741352
0.7393
0.746072
0.742373
0.748966
0.750153
0.745496
0.743857
0.746096
0.743457
0.740651
0.748115
0.749139
0.747503
0.745107
0.740617
0.736836
0.745681
0.738826
0.744134
0.742505
0.747007
0.737554
0.708349
0.720211
0.719422
0.715806
0.719534
0.72174
0.718526
0.708812
0.702445
0.696584
0.713238
0.706448
0.704038
0.710501
0.706257
0.705176
0.72176
0.727432
0.72351
0.716727
0.722586
0.719756
0.721249
0.723033
0.759662
0.755767
0.751767
0.760667
0.757828
0.747711
0.757389
0.755243
0.732623
0.730785
0.729685
0.73859
0.735269
0.742445
0.738194
0.744507
0.73441
0.754061
0.749597
0.740602
0.742567
0.740545
0.736596
0.752577
0.739951
0.754342
0.747531
0.756935
0.753883
0.752012
0.751035
0.746659
0.750491
0.752326
0.726251
0.728592
0.731502
0.731725
0.728667
0.72927
0.72746
0.723512
0.72082
0.730355
0.732786
0.725724
0.726695
0.725996
0.730814
0.733076
0.731569
0.73032
0.73663
0.744418
0.74179
0.741003
0.735321
0.736235
0.73581
0.74005
0.734279
0.735595
0.728485
0.730272
0.727454
0.727033
0.729118
0.728789
0.732211
0.733807
0.727688
0.724806
0.686939
0.693043
0.690552
0.694754
0.698241
0.691363
0.692167
0.690315
0.696249
0.694453
0.697117
0.719083
0.716333
0.717497
0.714958
0.717732
0.715332
0.714876
0.713768
0.710207
0.747274
0.746687
0.752435
0.74345
0.748896
0.745649
0.749319
0.749169
0.740761
0.748886
0.742448
0.707624
0.709774
0.708195
0.712313
0.712484
0.708511
0.705275
0.709016
0.712754
0.709776
0.708005
0.71373
0.711849
0.708965
0.708041
0.709089
0.710308
0.705953
0.707156
0.705723
0.708944
0.711041
0.716377
0.71301
0.716337
0.710542
0.717185
0.713067
0.711546
0.715785
0.705954
0.710672
0.710946
0.708785
0.71628
0.718036
0.713856
0.713576
0.710467
0.710445
0.709919
0.702719
0.720858
0.719694
0.715859
0.700681
0.699033
0.701473
0.713386
0.714278
0.702689
0.701678
0.71573
0.696681
0.699976
0.695399
0.696999
0.700859
0.704057
0.7021
0.703729
0.701867
0.706834
0.69938
0.710878
0.710604
0.704073
0.694319
0.690157
0.69113
0.704375
0.706927
0.703902
0.702572
0.699447
0.704002
0.71086
0.711748
0.710303
0.707739
0.71204
0.711776
0.711789
0.71092
0.708692
0.711966
0.711074
0.717239
0.718461
0.718631
0.7156
0.716036
0.718513
0.647795
0.649363
0.634641
0.639917
0.647901
0.651172
0.673813
0.675919
0.680543
0.673551
0.693069
0.691916
0.685625
0.681197
0.678016
0.693854
0.691404
0.669738
0.669603
0.666645
0.668639
0.664578
0.665604
0.666257
0.665967
0.660679
0.660651
0.652914
0.713667
0.701405
0.714919
0.715437
0.716703
0.703244
0.696913
0.718642
0.71358
0.69913
0.693702
0.725134
0.722476
0.726064
0.727475
0.734442
0.716782
0.718773
0.718674
0.72441
0.715647
0.720771
0.725751
0.721066
0.730545
0.724586
0.726466
0.714907
0.717449
0.721452
0.723199
0.723044
0.719997
0.728154
0.72855
0.691483
0.687507
0.69613
0.692065
0.695721
0.693015
0.690434
0.691187
0.690935
0.696411
0.697121
0.69622
0.700855
0.698687
0.697967
0.697469
0.698603
0.649885
0.642065
0.646734
0.64446
0.75937
0.749607
0.75388
0.762498
0.74499
0.749019
0.747325
0.736774
0.746052
0.740932
0.739614
0.746349
0.748545
0.701727
0.701364
0.695329
0.696844
0.690931
0.678241
0.686021
0.68172
0.68395
0.678808
0.638274
0.629977
0.62343
0.637089
0.624099
0.626026
0.623562
0.626519
0.620082
0.634466
0.633124
0.634091
0.625121
0.632426
0.631811
0.619588
0.617277
0.618183
0.620405
0.750808
0.755234
0.761578
0.750257
0.751243
0.734318
0.738742
0.733265
0.72702
0.733612
0.740064
0.740814
0.737628
0.732303
0.75069
0.74799
0.747406
0.754917
0.744602
0.754558
0.760738
0.766409
0.756902
0.764552
0.765997
0.753848
0.757005
0.752691
0.753503
0.730118
0.728211
0.729575
0.717135
0.722883
0.720409
0.709952
0.705347
0.716283
0.712673
0.72006
0.71787
0.719881
0.720458
0.725818
0.725501
0.622745
0.635558
0.623249
0.630855
0.612014
0.61032
0.618248
0.635445
0.632476
0.610655
0.607561
0.589641
0.583043
0.579507
0.574228
0.58691
0.592609
0.583001
0.591278
0.594088
0.599342
0.600842
0.601861
0.616954
0.62116
0.606292
0.597746
0.592121