/*--------------------------------*- C++ -*----------------------------------*\
| =========                 |                                                 |
| \\      /  F ield         | OpenFOAM: The Open Source CFD Toolbox           |
|  \\    /   O peration     | Version:  v1612+                                |
|   \\  /    A nd           | Web:      www.OpenFOAM.com                      |
|    \\/     M anipulation  |                                                 |
\*---------------------------------------------------------------------------*/
FoamFile
{
    version     2.0;
    format      ascii;
    class       volVectorField;
    location    "200";
    object      U;
}
// * * * * * * * * * * * * * * * * * * * * * * * * * * * * * * * * * * * * * //

dimensions      [0 1 -1 0 0 0 0];

internalField   nonuniform List<vector> 
19034
(
(0.226889 0.650271 0.5408)
(0.21842 0.596528 0.521133)
(0.227571 0.69346 0.562739)
(0.223129 0.646626 0.546343)
(0.225322 0.673412 0.557289)
(0.21894 0.741915 0.574521)
(0.216265 0.746136 0.585005)
(0.217652 0.662013 0.568227)
(0.218657 0.636767 0.548556)
(0.206278 0.759134 0.59691)
(0.212292 0.759406 0.596748)
(0.207337 0.660349 0.560384)
(0.205211 0.614967 0.531009)
(0.214856 0.71528 0.589585)
(0.231206 0.63461 0.375861)
(0.227357 0.657083 0.393396)
(0.226884 0.596803 0.353324)
(0.231876 0.599821 0.343919)
(0.231324 0.501738 0.279263)
(0.223144 0.496608 0.274832)
(0.226011 0.487371 0.276405)
(0.243393 0.494268 0.288673)
(0.224577 0.436714 0.256473)
(0.24002 0.523163 0.329056)
(0.236672 0.475434 0.287513)
(0.236121 0.62364 0.359041)
(0.241638 0.643869 0.363318)
(0.251044 0.549249 0.34006)
(0.237146 0.555746 0.349414)
(0.224528 0.480087 0.294915)
(0.242249 0.6189 0.365592)
(0.241969 0.648091 0.396764)
(0.244824 0.621334 0.381243)
(0.150965 0.497759 0.205238)
(0.14459 0.478534 0.188983)
(0.124489 0.408349 0.132167)
(0.121309 0.380974 0.100213)
(0.154373 0.502154 0.209704)
(0.138349 0.476278 0.202032)
(0.152888 0.408114 0.112258)
(0.135605 0.372096 0.0886824)
(0.131821 0.422848 0.150917)
(0.141619 0.437121 0.147155)
(0.140856 0.433417 0.152683)
(0.144033 0.44594 0.155369)
(0.125951 0.377841 0.103867)
(0.142942 0.413784 0.141982)
(0.190987 0.720057 0.501225)
(0.197363 0.755653 0.526802)
(0.193015 0.73623 0.513721)
(0.17974 0.670112 0.470412)
(0.193013 0.705379 0.492449)
(0.208324 0.764526 0.51698)
(0.199942 0.770763 0.516488)
(0.195784 0.817633 0.548616)
(0.204403 0.827188 0.552268)
(0.18186 0.67158 0.469144)
(0.198601 0.811582 0.547776)
(0.196942 0.735801 0.509882)
(0.203258 0.725843 0.495642)
(0.200556 0.709026 0.490948)
(0.200498 0.733203 0.497624)
(0.210732 0.819389 0.547369)
(0.202716 0.836702 0.552569)
(0.217917 0.774937 0.520059)
(0.128107 0.756432 0.489208)
(0.116917 0.740673 0.481524)
(0.124167 0.748087 0.477357)
(0.145466 0.84758 0.533179)
(0.119145 0.749886 0.499724)
(0.123111 0.777194 0.508923)
(0.117176 0.721052 0.465302)
(0.116187 0.758357 0.496065)
(0.135045 0.802795 0.507123)
(0.141056 0.832943 0.527054)
(0.138971 0.832266 0.529677)
(0.139649 0.835125 0.534578)
(0.119793 0.758811 0.500946)
(0.123957 0.806428 0.530892)
(0.126755 0.691479 0.427523)
(0.115538 0.656777 0.422845)
(0.133052 0.732458 0.457079)
(0.143744 0.727682 0.46684)
(0.127646 0.711734 0.452732)
(0.11153 0.657893 0.407362)
(0.115133 0.681884 0.419219)
(0.103289 0.651842 0.424974)
(0.138025 0.771103 0.478689)
(0.128513 0.737339 0.461506)
(0.122448 0.724613 0.458947)
(0.122475 0.718574 0.457701)
(0.098089 0.646457 0.428252)
(0.0892094 0.613742 0.372153)
(0.153793 0.762582 0.49058)
(0.160527 0.74248 0.492703)
(0.139408 0.709377 0.465033)
(0.153931 0.746493 0.491781)
(0.131311 0.739734 0.47819)
(0.130009 0.696072 0.46996)
(0.107567 0.657403 0.426343)
(0.141071 0.748409 0.485334)
(0.137218 0.713588 0.474053)
(0.123053 0.721385 0.462958)
(0.148648 0.807844 0.50386)
(0.080063 0.340351 0.216249)
(0.0781823 0.323251 0.19986)
(0.0813951 0.361786 0.231718)
(0.0838745 0.351986 0.220471)
(0.0885213 0.357991 0.216423)
(0.093217 0.394169 0.24266)
(0.0978493 0.44385 0.271188)
(0.0899489 0.365348 0.225645)
(0.0817223 0.320899 0.198639)
(0.0880157 0.380266 0.230547)
(0.0939841 0.434364 0.276095)
(0.104846 0.461869 0.293969)
(0.0899504 0.389865 0.250467)
(0.201289 0.82489 0.576039)
(0.206334 0.82995 0.578103)
(0.198892 0.818243 0.572465)
(0.202285 0.810947 0.567917)
(0.191388 0.797314 0.554223)
(0.197114 0.785985 0.541119)
(0.196347 0.821976 0.552782)
(0.201809 0.871809 0.569654)
(0.201662 0.812783 0.549478)
(0.204863 0.839821 0.571726)
(0.197423 0.795987 0.547283)
(0.200553 0.870244 0.574277)
(0.20006 0.877571 0.591002)
(0.197752 0.820736 0.55607)
(0.202403 0.845496 0.565898)
(0.20589 0.885073 0.573626)
(0.193863 0.875263 0.570351)
(0.196614 0.866917 0.578472)
(0.186919 0.887621 0.566129)
(0.185314 0.88566 0.562621)
(0.202078 0.857824 0.565806)
(0.20361 0.898223 0.565721)
(0.197496 0.890434 0.56741)
(0.188652 0.882412 0.575212)
(0.150432 0.845132 0.552316)
(0.13626 0.84109 0.553865)
(0.162356 0.856931 0.549999)
(0.141607 0.845908 0.55498)
(0.151444 0.824307 0.541278)
(0.137369 0.840433 0.555237)
(0.166869 0.857301 0.550659)
(0.134263 0.793046 0.523267)
(0.136708 0.797972 0.533741)
(0.167427 0.855875 0.548145)
(0.188706 0.835892 0.540463)
(0.198904 0.8365 0.544674)
(0.158603 0.840057 0.554689)
(0.13418 0.774938 0.512789)
(0.162584 0.808205 0.528544)
(0.185865 0.850432 0.541344)
(0.203123 0.871138 0.548802)
(0.175549 0.826279 0.538297)
(0.196735 0.872375 0.554343)
(0.200181 0.80629 0.532136)
(0.193248 0.781834 0.520406)
(0.215627 0.830209 0.548324)
(0.228887 0.840738 0.561313)
(0.185599 0.799042 0.519697)
(0.170956 0.801959 0.515522)
(0.209661 0.851302 0.55651)
(0.168658 0.852945 0.522399)
(0.172017 0.844296 0.532653)
(0.204669 0.86288 0.542414)
(0.212262 0.860289 0.555231)
(0.163527 0.853191 0.530726)
(0.181742 0.874412 0.545819)
(0.195749 0.854615 0.534845)
(0.18429 0.658611 0.497553)
(0.185574 0.659062 0.493931)
(0.187876 0.727692 0.529279)
(0.182396 0.664531 0.508661)
(0.19444 0.707929 0.538024)
(0.189316 0.740884 0.536851)
(0.18164 0.675478 0.493484)
(0.196516 0.778249 0.565994)
(0.193488 0.772377 0.553835)
(0.199797 0.792667 0.564068)
(0.193336 0.694461 0.524304)
(0.184751 0.668854 0.515109)
(0.2635 0.916052 0.440815)
(0.271541 0.915024 0.45858)
(0.258955 0.903868 0.464569)
(0.263602 0.866779 0.406449)
(0.25207 0.847398 0.388442)
(0.251412 0.814426 0.371693)
(0.272821 0.821022 0.369666)
(0.255843 0.909049 0.468245)
(0.240474 0.811036 0.389455)
(0.232535 0.80779 0.390017)
(0.262164 0.904805 0.454886)
(0.255145 0.848862 0.393248)
(0.268979 0.874775 0.451074)
(0.254136 0.864509 0.467639)
(0.253614 0.889615 0.474084)
(0.257467 0.857536 0.425743)
(0.258326 0.872189 0.462994)
(0.239932 0.812131 0.412787)
(0.245001 0.79616 0.403064)
(0.25654 0.851208 0.430906)
(0.27973 0.829045 0.439309)
(0.267135 0.816169 0.446074)
(0.265005 0.756471 0.402658)
(0.262879 0.735096 0.414464)
(0.2734 0.836568 0.442835)
(0.281414 0.843808 0.449437)
(0.271386 0.823376 0.450333)
(0.227981 0.601449 0.446037)
(0.217229 0.542849 0.401773)
(0.226201 0.548331 0.409294)
(0.201281 0.46562 0.341397)
(0.219412 0.689877 0.499182)
(0.224029 0.653973 0.470469)
(0.22385 0.554068 0.400154)
(0.223751 0.574882 0.424952)
(0.214748 0.712945 0.501689)
(0.215993 0.687317 0.478923)
(0.208266 0.653024 0.440828)
(0.218267 0.683968 0.48668)
(0.207635 0.504234 0.362513)
(0.202405 0.478314 0.337302)
(0.214892 0.553043 0.380385)
(0.198079 0.480691 0.340316)
(0.204125 0.507048 0.352724)
(0.210323 0.540652 0.363142)
(0.216465 0.651944 0.453634)
(0.210898 0.556063 0.384827)
(0.2174 0.667682 0.478589)
(0.192525 0.604185 0.424803)
(0.226457 0.699517 0.506929)
(0.204499 0.649664 0.467763)
(0.205213 0.66973 0.471676)
(0.222024 0.78292 0.524261)
(0.208969 0.734145 0.506453)
(0.233597 0.781178 0.531753)
(0.219918 0.841511 0.554622)
(0.224929 0.809313 0.549905)
(0.207899 0.843381 0.553761)
(0.202795 0.837109 0.544183)
(0.22987 0.77827 0.543973)
(0.220915 0.809663 0.550751)
(0.287454 0.937739 0.452194)
(0.277536 0.931461 0.46365)
(0.268825 0.934419 0.462847)
(0.268794 0.93596 0.474067)
(0.28296 0.940199 0.458806)
(0.266478 0.857556 0.422348)
(0.280251 0.891409 0.435337)
(0.290201 0.863663 0.425149)
(0.295213 0.886425 0.434178)
(0.264919 0.86991 0.443065)
(0.288642 0.901117 0.410932)
(0.270302 0.861966 0.40399)
(0.255933 0.783107 0.344138)
(0.286594 0.838394 0.382037)
(0.282557 0.828911 0.396892)
(0.265717 0.840638 0.407358)
(0.282437 0.823791 0.402453)
(0.267935 0.773388 0.347475)
(0.124189 0.463528 0.166422)
(0.12117 0.451422 0.143136)
(0.150453 0.494696 0.160881)
(0.138516 0.491254 0.182153)
(0.133362 0.427219 0.119441)
(0.15077 0.44988 0.123872)
(0.142397 0.512862 0.180804)
(0.134256 0.47753 0.148107)
(0.121493 0.434138 0.125158)
(0.113882 0.415424 0.10602)
(0.141582 0.51042 0.194062)
(0.141051 0.537824 0.214611)
(0.142645 0.528737 0.219645)
(0.132299 0.451322 0.135367)
(0.150236 0.437342 0.0971295)
(0.133298 0.399816 0.0804539)
(0.148244 0.525404 0.19559)
(0.116325 0.385422 0.068883)
(0.122625 0.436835 0.111581)
(0.144533 0.46758 0.120529)
(0.0960647 0.467529 0.308209)
(0.0929579 0.450662 0.297718)
(0.0932449 0.457872 0.300481)
(0.097291 0.481851 0.323308)
(0.0864453 0.388089 0.24608)
(0.0780314 0.379563 0.249738)
(0.0896829 0.43026 0.279462)
(0.0786876 0.353408 0.239464)
(0.075622 0.324899 0.217345)
(0.0854981 0.354525 0.217303)
(0.0763249 0.348292 0.230703)
(0.0778591 0.379458 0.256608)
(0.0761354 0.310904 0.204324)
(0.202091 0.719367 0.492354)
(0.203474 0.741225 0.499066)
(0.222491 0.745891 0.495198)
(0.220541 0.782942 0.51162)
(0.208999 0.70316 0.470424)
(0.206139 0.696481 0.470421)
(0.205348 0.784657 0.519887)
(0.223397 0.783125 0.512679)
(0.229355 0.724594 0.481921)
(0.218847 0.680026 0.454798)
(0.211454 0.790318 0.528122)
(0.211474 0.754187 0.50855)
(0.225621 0.786201 0.521036)
(0.2204 0.762708 0.507677)
(0.210907 0.713552 0.48194)
(0.208235 0.668944 0.449573)
(0.205151 0.63285 0.470697)
(0.222017 0.719174 0.520042)
(0.207757 0.556365 0.427601)
(0.21973 0.60119 0.449809)
(0.213471 0.643112 0.476475)
(0.226611 0.70509 0.512222)
(0.224732 0.705899 0.513668)
(0.218074 0.671362 0.500983)
(0.213829 0.605984 0.457785)
(0.199183 0.559379 0.427363)
(0.195102 0.540162 0.404973)
(0.227835 0.696828 0.51198)
(0.21147 0.550259 0.420548)
(0.200517 0.518287 0.391492)
(0.200759 0.555683 0.41721)
(0.186171 0.487618 0.372818)
(0.210334 0.681297 0.532277)
(0.208386 0.623433 0.500553)
(0.198505 0.604669 0.490147)
(0.208897 0.648372 0.516454)
(0.20681 0.594929 0.481694)
(0.194566 0.539057 0.450014)
(0.203031 0.579942 0.47463)
(0.205636 0.612178 0.506226)
(0.200646 0.612991 0.499838)
(0.18738 0.557456 0.457789)
(0.217045 0.691195 0.53984)
(0.204449 0.688027 0.538855)
(0.214049 0.634827 0.516655)
(0.204082 0.702052 0.547168)
(0.213894 0.689918 0.542326)
(0.203524 0.631696 0.510582)
(0.191217 0.834299 0.534762)
(0.197276 0.822035 0.536287)
(0.193456 0.826975 0.541525)
(0.203878 0.776196 0.516787)
(0.220328 0.792226 0.513096)
(0.220336 0.813384 0.5219)
(0.209609 0.766927 0.498389)
(0.211327 0.774689 0.503854)
(0.197918 0.836685 0.529792)
(0.229836 0.803505 0.514164)
(0.227659 0.767596 0.503187)
(0.216621 0.77131 0.498267)
(0.22298 0.812944 0.517269)
(0.226653 0.815926 0.517161)
(0.249902 0.774516 0.512143)
(0.229884 0.792734 0.511258)
(0.243991 0.80277 0.508295)
(0.220157 0.821057 0.516855)
(0.23033 0.770359 0.504891)
(0.255318 0.742478 0.500435)
(0.268692 0.705362 0.484844)
(0.207114 0.821139 0.511228)
(0.202591 0.763772 0.494257)
(0.249831 0.745317 0.491146)
(0.23107 0.730599 0.484984)
(0.280218 0.731734 0.474644)
(0.274911 0.695152 0.46317)
(0.252627 0.72768 0.481305)
(0.26519 0.71924 0.482651)
(0.268998 0.731511 0.473377)
(0.268938 0.672415 0.460007)
(0.243896 0.787769 0.504467)
(0.239141 0.802176 0.500427)
(0.228696 0.816739 0.507829)
(0.177174 0.705764 0.49251)
(0.193446 0.752154 0.516866)
(0.17364 0.665894 0.461514)
(0.195224 0.736141 0.525554)
(0.181945 0.695926 0.506305)
(0.183877 0.696002 0.479457)
(0.188702 0.746578 0.50624)
(0.164393 0.633903 0.459316)
(0.189062 0.749545 0.535062)
(0.179193 0.699423 0.510437)
(0.136483 0.803911 0.554172)
(0.132373 0.811561 0.550286)
(0.154945 0.800385 0.554446)
(0.159964 0.801091 0.561167)
(0.13856 0.797696 0.548664)
(0.160632 0.767394 0.532211)
(0.137031 0.782927 0.539741)
(0.157914 0.773975 0.533043)
(0.118919 0.827245 0.563932)
(0.122929 0.821187 0.56442)
(0.166175 0.781689 0.557813)
(0.166831 0.787508 0.55891)
(0.179594 0.773285 0.551829)
(0.142073 0.785934 0.539705)
(0.141197 0.792937 0.550713)
(0.147005 0.81172 0.56462)
(0.125415 0.822869 0.561822)
(0.129418 0.826648 0.567948)
(0.171834 0.790248 0.559883)
(0.154132 0.802548 0.563779)
(0.18005 0.790174 0.565488)
(0.172693 0.791164 0.561194)
(0.179234 0.787022 0.562053)
(0.170576 0.800027 0.569992)
(0.179218 0.811233 0.574305)
(0.20478 0.767551 0.567723)
(0.206598 0.757433 0.565898)
(0.200064 0.752256 0.547045)
(0.16901 0.808784 0.574444)
(0.205527 0.755236 0.5625)
(0.208597 0.789205 0.578819)
(0.210531 0.789069 0.579453)
(0.20614 0.758315 0.568385)
(0.21648 0.724402 0.554165)
(0.213776 0.746778 0.555951)
(0.105952 0.438783 0.267007)
(0.0936907 0.42318 0.262457)
(0.100615 0.446241 0.268303)
(0.109026 0.462981 0.278139)
(0.09605 0.432185 0.260578)
(0.110665 0.439105 0.25457)
(0.11443 0.462087 0.263744)
(0.0869218 0.353501 0.205614)
(0.087408 0.380934 0.230644)
(0.0902207 0.382749 0.220423)
(0.102652 0.374576 0.19094)
(0.0882825 0.334516 0.174642)
(0.0958021 0.379455 0.21522)
(0.10114 0.393495 0.220084)
(0.0875883 0.361707 0.211131)
(0.0849198 0.33304 0.188875)
(0.0941893 0.360444 0.198763)
(0.0868 0.336975 0.187703)
(0.25577 0.813978 0.353426)
(0.249459 0.772129 0.325706)
(0.255289 0.852024 0.395911)
(0.27746 0.89005 0.397721)
(0.248611 0.801995 0.368924)
(0.25449 0.809886 0.35848)
(0.274016 0.861908 0.374467)
(0.25563 0.807758 0.33889)
(0.260482 0.841727 0.363741)
(0.257667 0.846884 0.378287)
(0.240937 0.828223 0.401283)
(0.259428 0.880005 0.427022)
(0.274501 0.973277 0.477691)
(0.280327 0.943743 0.436328)
(0.267903 0.920307 0.466439)
(0.269518 0.958444 0.474467)
(0.271164 0.884562 0.389614)
(0.272129 0.96417 0.461858)
(0.278388 0.974385 0.449)
(0.273599 0.942144 0.456836)
(0.264 0.897881 0.439579)
(0.26714 0.937213 0.467629)
(0.207799 0.762751 0.546228)
(0.226554 0.703784 0.521322)
(0.206756 0.747719 0.524013)
(0.222696 0.707723 0.504933)
(0.223415 0.735265 0.524357)
(0.234183 0.69893 0.504039)
(0.222231 0.659272 0.472487)
(0.221359 0.714746 0.496866)
(0.214354 0.717694 0.501484)
(0.224195 0.678762 0.482286)
(0.214667 0.735394 0.5118)
(0.204649 0.758626 0.515909)
(0.21319 0.745843 0.527077)
(0.237804 0.654288 0.459956)
(0.18425 0.793803 0.418147)
(0.1892 0.776007 0.417102)
(0.188083 0.791431 0.423366)
(0.181524 0.803259 0.425376)
(0.200238 0.818496 0.44662)
(0.207302 0.827535 0.423349)
(0.194328 0.784474 0.404857)
(0.227736 0.616382 0.305276)
(0.230319 0.605748 0.301541)
(0.230533 0.626223 0.30546)
(0.237875 0.614335 0.301925)
(0.207547 0.662586 0.327615)
(0.198715 0.643208 0.297149)
(0.206808 0.727475 0.388485)
(0.220534 0.715041 0.372109)
(0.202337 0.649125 0.317633)
(0.207161 0.679484 0.338025)
(0.23256 0.655209 0.331331)
(0.235533 0.676662 0.355021)
(0.230422 0.723973 0.39856)
(0.229269 0.738701 0.413393)
(0.207058 0.70577 0.383594)
(0.238605 0.680463 0.363679)
(0.197076 0.701934 0.386423)
(0.222278 0.708207 0.389375)
(0.145824 0.548703 0.395154)
(0.158656 0.576791 0.409783)
(0.160837 0.654468 0.445228)
(0.122862 0.537632 0.365807)
(0.174637 0.643399 0.446229)
(0.151326 0.530603 0.370377)
(0.151104 0.533113 0.36076)
(0.14041 0.607193 0.394553)
(0.158511 0.651242 0.428855)
(0.12073 0.526887 0.352594)
(0.132194 0.565499 0.368304)
(0.182335 0.624099 0.434722)
(0.155785 0.58509 0.386902)
(0.173563 0.630665 0.421989)
(0.202134 0.738732 0.538897)
(0.220759 0.706849 0.527114)
(0.212025 0.756298 0.558069)
(0.209225 0.764028 0.566381)
(0.2058 0.747994 0.545267)
(0.192181 0.745153 0.528606)
(0.207625 0.74076 0.538854)
(0.201658 0.774553 0.571396)
(0.156154 0.811304 0.569496)
(0.182574 0.780259 0.551986)
(0.182843 0.818461 0.590103)
(0.201766 0.786084 0.573948)
(0.128507 0.835356 0.57227)
(0.142356 0.838961 0.571318)
(0.156077 0.81122 0.56403)
(0.167401 0.806909 0.573488)
(0.145323 0.834978 0.571711)
(0.156335 0.807253 0.56558)
(0.189019 0.777976 0.556401)
(0.0816623 0.435938 0.300481)
(0.0740303 0.39919 0.293996)
(0.0843926 0.456131 0.322167)
(0.0894609 0.485753 0.334965)
(0.0761799 0.424564 0.308531)
(0.0814544 0.465652 0.360962)
(0.08817 0.444587 0.351357)
(0.0833703 0.475968 0.328626)
(0.0756552 0.434836 0.311469)
(0.0820531 0.518612 0.368667)
(0.0855568 0.479338 0.352676)
(0.0906208 0.449241 0.357201)
(0.0865768 0.424461 0.335452)
(0.0902536 0.59683 0.403231)
(0.0964019 0.576294 0.399997)
(0.0844236 0.53836 0.371608)
(0.0867358 0.523401 0.379806)
(0.0776177 0.455019 0.342318)
(0.075945 0.459026 0.335922)
(0.0844198 0.534487 0.376974)
(0.190851 0.905918 0.539729)
(0.185171 0.905119 0.543497)
(0.18171 0.910463 0.530835)
(0.18358 0.900253 0.544003)
(0.197614 0.915666 0.544301)
(0.206857 0.913753 0.551206)
(0.201017 0.910528 0.548077)
(0.201495 0.918721 0.538665)
(0.214752 0.914134 0.547061)
(0.197644 0.914754 0.536283)
(0.209663 0.919548 0.534405)
(0.206541 0.929142 0.547548)
(0.210054 0.919508 0.541857)
(0.214112 0.926878 0.545132)
(0.227097 0.930659 0.542619)
(0.230125 0.933268 0.545278)
(0.231995 0.951467 0.544662)
(0.217556 0.949449 0.551872)
(0.211625 0.922437 0.543368)
(0.226685 0.933997 0.548221)
(0.228389 0.934831 0.546225)
(0.118709 0.604022 0.387074)
(0.121935 0.599447 0.383401)
(0.103093 0.57915 0.375065)
(0.113489 0.549465 0.349277)
(0.0906455 0.593723 0.388446)
(0.0933657 0.559407 0.363714)
(0.103402 0.514596 0.330919)
(0.111005 0.60114 0.384925)
(0.121131 0.665155 0.449605)
(0.115131 0.666066 0.442579)
(0.0893531 0.603391 0.394483)
(0.103744 0.565202 0.357657)
(0.11013 0.600094 0.390318)
(0.10655 0.675598 0.455125)
(0.156135 0.720748 0.479216)
(0.173208 0.697962 0.467352)
(0.168455 0.693624 0.460829)
(0.182116 0.674511 0.447783)
(0.192001 0.664756 0.452551)
(0.191331 0.648212 0.434544)
(0.168207 0.731941 0.50117)
(0.173149 0.710434 0.48063)
(0.196032 0.687396 0.471633)
(0.19296 0.83447 0.585125)
(0.193964 0.809049 0.574605)
(0.175662 0.89713 0.565702)
(0.180385 0.889979 0.568902)
(0.191736 0.849906 0.590035)
(0.19583 0.849011 0.580758)
(0.193631 0.865826 0.573488)
(0.197418 0.816542 0.587014)
(0.19425 0.827412 0.595329)
(0.190048 0.878154 0.57927)
(0.182141 0.859309 0.578865)
(0.195086 0.885211 0.564484)
(0.192841 0.883854 0.564171)
(0.1818 0.877092 0.57326)
(0.17772 0.888936 0.569038)
(0.199846 0.860343 0.589609)
(0.19488 0.86397 0.578601)
(0.148545 0.544627 0.336532)
(0.144708 0.500449 0.300966)
(0.132992 0.527377 0.318434)
(0.141157 0.606462 0.378866)
(0.159599 0.530636 0.327634)
(0.142785 0.450276 0.265162)
(0.163567 0.549231 0.337375)
(0.16149 0.498889 0.299276)
(0.139037 0.620091 0.381308)
(0.156903 0.57298 0.357285)
(0.140538 0.630974 0.390793)
(0.142682 0.564172 0.335914)
(0.143745 0.50824 0.298827)
(0.140308 0.511504 0.311495)
(0.137531 0.438624 0.260658)
(0.148112 0.462877 0.277714)
(0.216388 0.71871 0.548861)
(0.205145 0.786062 0.580915)
(0.207508 0.761115 0.578749)
(0.217377 0.766289 0.575945)
(0.21537 0.789549 0.584162)
(0.204197 0.828104 0.587013)
(0.186359 0.833473 0.590012)
(0.20258 0.815457 0.599328)
(0.203254 0.778907 0.590635)
(0.211677 0.801692 0.594728)
(0.219357 0.751648 0.579966)
(0.156286 0.687514 0.422448)
(0.157531 0.736894 0.439104)
(0.130266 0.67632 0.395756)
(0.136807 0.653304 0.388181)
(0.159809 0.743001 0.432585)
(0.124095 0.61103 0.344304)
(0.13159 0.61649 0.365347)
(0.156935 0.662305 0.368965)
(0.128139 0.661273 0.375331)
(0.130304 0.608854 0.341248)
(0.136921 0.611959 0.350499)
(0.136088 0.623783 0.339664)
(0.149624 0.633723 0.351717)
(0.140582 0.687845 0.374729)
(0.135257 0.694587 0.389186)
(0.128604 0.611301 0.329414)
(0.134972 0.662325 0.359759)
(0.204888 0.863933 0.560661)
(0.192249 0.787455 0.534021)
(0.20634 0.844408 0.562842)
(0.19548 0.7888 0.538636)
(0.200884 0.845867 0.560912)
(0.19186 0.772457 0.536991)
(0.209427 0.874469 0.56301)
(0.206313 0.84962 0.563645)
(0.201289 0.876977 0.575704)
(0.201281 0.842245 0.572263)
(0.185075 0.724511 0.50852)
(0.183605 0.730599 0.514061)
(0.177502 0.694131 0.483565)
(0.204585 0.862937 0.569876)
(0.180274 0.717909 0.519489)
(0.166968 0.665628 0.476616)
(0.181883 0.738751 0.518014)
(0.184975 0.760423 0.545209)
(0.195691 0.840062 0.567574)
(0.196962 0.821054 0.56676)
(0.187352 0.767207 0.552623)
(0.17786 0.717647 0.508872)
(0.145985 0.709278 0.485432)
(0.167031 0.755111 0.506679)
(0.154062 0.783371 0.5195)
(0.186988 0.819294 0.543232)
(0.175303 0.79016 0.526228)
(0.131529 0.692072 0.475326)
(0.175545 0.755623 0.515474)
(0.163463 0.840188 0.543042)
(0.193803 0.850962 0.55062)
(0.131693 0.727687 0.485973)
(0.184778 0.819934 0.549664)
(0.173485 0.811865 0.533898)
(0.135649 0.813833 0.540903)
(0.132321 0.816048 0.53962)
(0.134067 0.837097 0.548672)
(0.179889 0.83843 0.540804)
(0.124915 0.777968 0.519949)
(0.121478 0.746395 0.496511)
(0.117516 0.732673 0.492383)
(0.161688 0.757543 0.500367)
(0.144688 0.732291 0.48711)
(0.109489 0.647541 0.431611)
(0.117095 0.701137 0.469472)
(0.170013 0.693201 0.500863)
(0.164364 0.67614 0.492323)
(0.174073 0.680174 0.491196)
(0.132705 0.628395 0.454285)
(0.185209 0.741702 0.506637)
(0.162193 0.687652 0.485234)
(0.115765 0.61067 0.429019)
(0.142146 0.654402 0.469104)
(0.110453 0.694254 0.467019)
(0.135674 0.766653 0.502609)
(0.197933 0.786612 0.52361)
(0.185347 0.741345 0.513287)
(0.129855 0.664051 0.457409)
(0.150876 0.775727 0.50617)
(0.128876 0.714629 0.473411)
(0.148828 0.734237 0.489303)
(0.129534 0.516734 0.402925)
(0.11337 0.47052 0.361362)
(0.11053 0.457802 0.349078)
(0.121937 0.497252 0.386199)
(0.147761 0.52923 0.420179)
(0.133259 0.504986 0.39891)
(0.126725 0.507944 0.402032)
(0.120353 0.439705 0.350317)
(0.126813 0.420413 0.35736)
(0.151959 0.471694 0.399356)
(0.14516 0.533397 0.428409)
(0.142735 0.471129 0.385197)
(0.127007 0.42871 0.354404)
(0.145966 0.450935 0.380702)
(0.124272 0.409777 0.350759)
(0.105793 0.410732 0.322061)
(0.114296 0.387031 0.316989)
(0.219917 0.620573 0.475398)
(0.227151 0.624606 0.478542)
(0.205257 0.774256 0.568614)
(0.217848 0.764278 0.55345)
(0.206169 0.775524 0.566178)
(0.225415 0.727042 0.541475)
(0.217017 0.744924 0.551529)
(0.230752 0.603845 0.464463)
(0.221822 0.666388 0.503284)
(0.218638 0.709145 0.52624)
(0.208736 0.745299 0.538436)
(0.202073 0.745488 0.528348)
(0.227386 0.74856 0.546758)
(0.22308 0.610392 0.471263)
(0.220556 0.721533 0.516894)
(0.216866 0.71785 0.521671)
(0.226468 0.639162 0.496477)
(0.228836 0.64112 0.492811)
(0.227537 0.700931 0.497688)
(0.154045 0.623699 0.294511)
(0.176684 0.649825 0.318756)
(0.172349 0.650777 0.293064)
(0.176774 0.699809 0.331716)
(0.164442 0.65335 0.296808)
(0.151554 0.620627 0.269926)
(0.178821 0.639923 0.293955)
(0.163029 0.606258 0.249122)
(0.0876761 0.543265 0.374609)
(0.0945576 0.549885 0.357297)
(0.0967962 0.515736 0.338093)
(0.0931322 0.515075 0.348467)
(0.0990923 0.625881 0.421491)
(0.0960015 0.587016 0.391352)
(0.0953163 0.558029 0.377648)
(0.102227 0.608886 0.396097)
(0.0922366 0.469661 0.322198)
(0.0977168 0.446738 0.292676)
(0.10606 0.634322 0.406151)
(0.10524 0.510896 0.318419)
(0.095619 0.478233 0.310427)
(0.100831 0.564192 0.36768)
(0.107143 0.58885 0.375171)
(0.113152 0.624965 0.396533)
(0.108089 0.534044 0.342575)
(0.0925199 0.477596 0.312482)
(0.235096 0.821389 0.519399)
(0.234287 0.824753 0.519961)
(0.224884 0.813005 0.517842)
(0.223649 0.789238 0.496444)
(0.230358 0.910706 0.557633)
(0.228154 0.921763 0.554192)
(0.231903 0.897671 0.553886)
(0.220934 0.905017 0.56095)
(0.233645 0.889681 0.548205)
(0.22781 0.829301 0.525306)
(0.223986 0.860329 0.541256)
(0.218228 0.844629 0.53321)
(0.23799 0.884574 0.550089)
(0.232219 0.886058 0.560992)
(0.225263 0.884074 0.551511)
(0.242201 0.881014 0.546779)
(0.214012 0.791239 0.506466)
(0.263252 0.859856 0.553244)
(0.266308 0.851885 0.554182)
(0.284257 0.765876 0.526981)
(0.280869 0.746249 0.523623)
(0.271859 0.82725 0.554192)
(0.274874 0.827441 0.559876)
(0.285776 0.766022 0.530131)
(0.270213 0.716794 0.498246)
(0.267365 0.858474 0.558675)
(0.264721 0.865807 0.55524)
(0.269467 0.825943 0.528984)
(0.264371 0.796711 0.519138)
(0.283591 0.78848 0.537511)
(0.277587 0.829322 0.551269)
(0.280473 0.765237 0.521602)
(0.269168 0.797969 0.519851)
(0.269509 0.747197 0.496441)
(0.266378 0.715332 0.487288)
(0.285195 0.833494 0.53094)
(0.266746 0.746376 0.506639)
(0.268944 0.74344 0.497591)
(0.106025 0.563508 0.350801)
(0.112812 0.590575 0.356392)
(0.114589 0.644191 0.399274)
(0.1087 0.56131 0.345527)
(0.105434 0.532103 0.325974)
(0.103036 0.577734 0.364959)
(0.109835 0.635916 0.39575)
(0.105305 0.645959 0.407721)
(0.102844 0.601866 0.397069)
(0.0985729 0.568688 0.362524)
(0.107224 0.618006 0.404677)
(0.111582 0.631847 0.382222)
(0.112574 0.583178 0.351134)
(0.103244 0.523851 0.340535)
(0.0981793 0.538339 0.35259)
(0.103492 0.557384 0.348165)
(0.101546 0.546924 0.356874)
(0.114593 0.608744 0.40455)
(0.105916 0.603405 0.383125)
(0.112415 0.601943 0.397089)
(0.210629 0.752622 0.567371)
(0.212829 0.75094 0.564992)
(0.215779 0.761146 0.571461)
(0.181593 0.803991 0.580219)
(0.206346 0.757921 0.565094)
(0.222635 0.743814 0.560661)
(0.174561 0.811122 0.570103)
(0.163071 0.807097 0.56789)
(0.240278 0.904365 0.493182)
(0.243709 0.885392 0.492282)
(0.233179 0.909033 0.501452)
(0.225021 0.898277 0.507631)
(0.239768 0.882241 0.491287)
(0.240346 0.883225 0.498253)
(0.226147 0.91059 0.496124)
(0.204273 0.854081 0.49052)
(0.22388 0.886896 0.508169)
(0.240506 0.872229 0.500025)
(0.230114 0.859813 0.484092)
(0.220004 0.856402 0.497101)
(0.23283 0.880829 0.498734)
(0.231401 0.864973 0.493716)
(0.284878 0.59503 0.358228)
(0.284783 0.622247 0.347533)
(0.27702 0.574164 0.350925)
(0.264048 0.614557 0.375643)
(0.258336 0.518161 0.308015)
(0.260758 0.487426 0.287887)
(0.272663 0.510852 0.283324)
(0.272811 0.458464 0.256992)
(0.277222 0.562466 0.302668)
(0.275417 0.51898 0.278564)
(0.284393 0.695116 0.390926)
(0.275321 0.696998 0.411017)
(0.273442 0.53519 0.289232)
(0.272509 0.656249 0.370195)
(0.282395 0.658502 0.358411)
(0.268308 0.695545 0.402324)
(0.255694 0.553402 0.311747)
(0.268569 0.65473 0.374195)
(0.249366 0.809818 0.540853)
(0.257169 0.783198 0.534005)
(0.236203 0.818517 0.551328)
(0.235876 0.830047 0.552057)
(0.253652 0.803316 0.549395)
(0.248158 0.790083 0.544318)
(0.224293 0.808215 0.544853)
(0.238168 0.836285 0.548998)
(0.267939 0.820026 0.55316)
(0.251694 0.831092 0.553202)
(0.257293 0.810072 0.545348)
(0.261415 0.78397 0.547108)
(0.271439 0.767204 0.537025)
(0.273319 0.795222 0.536548)
(0.26407 0.833426 0.552918)
(0.278093 0.729218 0.512167)
(0.28496 0.732859 0.513952)
(0.252826 0.846376 0.552679)
(0.266789 0.769553 0.537503)
(0.283439 0.729276 0.512731)
(0.25718 0.814428 0.544889)
(0.271502 0.743926 0.50614)
(0.268593 0.732238 0.507711)
(0.274439 0.751044 0.522345)
(0.268343 0.693157 0.498463)
(0.272699 0.667271 0.488301)
(0.267385 0.739193 0.5048)
(0.262817 0.694024 0.48637)
(0.271776 0.755786 0.533375)
(0.270453 0.686728 0.490994)
(0.265719 0.684841 0.490176)
(0.269315 0.742256 0.506267)
(0.280345 0.719846 0.519805)
(0.268866 0.689276 0.502575)
(0.257558 0.754097 0.482755)
(0.228484 0.573032 0.393093)
(0.229281 0.610493 0.413212)
(0.260529 0.728527 0.45772)
(0.251291 0.647438 0.414619)
(0.23476 0.605873 0.402233)
(0.218076 0.532721 0.356647)
(0.258122 0.66263 0.423109)
(0.259476 0.741052 0.466466)
(0.227291 0.614428 0.403687)
(0.236338 0.679463 0.443534)
(0.243437 0.761138 0.498014)
(0.240405 0.717548 0.471391)
(0.222688 0.613555 0.411667)
(0.212783 0.542798 0.358149)
(0.240489 0.765659 0.485696)
(0.229568 0.641831 0.426238)
(0.228559 0.587292 0.37486)
(0.242515 0.584764 0.399598)
(0.237647 0.530238 0.363308)
(0.24209 0.596199 0.402376)
(0.213578 0.440974 0.28914)
(0.238505 0.559985 0.386121)
(0.249093 0.659397 0.441143)
(0.224684 0.601128 0.389556)
(0.243848 0.658112 0.432847)
(0.220786 0.482549 0.300019)
(0.216874 0.431825 0.271732)
(0.219158 0.443989 0.287052)
(0.23449 0.552944 0.365173)
(0.247348 0.626706 0.409194)
(0.245843 0.618196 0.38836)
(0.21865 0.583329 0.366492)
(0.234069 0.617119 0.400072)
(0.218083 0.482699 0.306027)
(0.223712 0.522621 0.320315)
(0.225041 0.48704 0.329408)
(0.218336 0.512959 0.324218)
(0.201686 0.855855 0.589542)
(0.194453 0.851041 0.590339)
(0.220637 0.777695 0.567804)
(0.221553 0.747147 0.557005)
(0.205856 0.799864 0.566605)
(0.207411 0.846414 0.59049)
(0.209359 0.86085 0.602581)
(0.216581 0.816754 0.598418)
(0.215098 0.763388 0.565423)
(0.212311 0.714067 0.538555)
(0.210433 0.760938 0.551759)
(0.202607 0.670397 0.514412)
(0.198967 0.696161 0.52556)
(0.20663 0.793946 0.563137)
(0.202448 0.809628 0.588262)
(0.216031 0.79477 0.582295)
(0.190055 0.886683 0.55234)
(0.19814 0.885944 0.55644)
(0.199155 0.885759 0.557758)
(0.208606 0.890418 0.553615)
(0.196725 0.883384 0.551741)
(0.199379 0.877953 0.55896)
(0.204251 0.893476 0.552359)
(0.224284 0.873153 0.556852)
(0.221264 0.845367 0.550669)
(0.22129 0.872219 0.554646)
(0.215929 0.852364 0.553604)
(0.212539 0.882853 0.552206)
(0.205081 0.880562 0.552159)
(0.22115 0.863905 0.557472)
(0.221444 0.872879 0.552039)
(0.21085 0.869627 0.560603)
(0.215876 0.852927 0.555495)
(0.207846 0.864044 0.554516)
(0.205819 0.860461 0.561223)
(0.212994 0.85432 0.558889)
(0.203108 0.847834 0.563043)
(0.205592 0.821902 0.551239)
(0.199576 0.829498 0.556008)
(0.188792 0.760398 0.510541)
(0.188995 0.711588 0.505607)
(0.18942 0.710961 0.499185)
(0.189621 0.715523 0.500521)
(0.176658 0.636044 0.453296)
(0.190863 0.718153 0.520572)
(0.1797 0.666157 0.489211)
(0.197488 0.701793 0.498696)
(0.210523 0.870156 0.55938)
(0.210311 0.831184 0.546121)
(0.201012 0.906119 0.563936)
(0.208258 0.852258 0.540132)
(0.209341 0.894973 0.558697)
(0.205909 0.908713 0.563866)
(0.206438 0.910277 0.559482)
(0.208131 0.884407 0.561404)
(0.206314 0.838439 0.543834)
(0.205228 0.88043 0.569064)
(0.203977 0.878118 0.558767)