/*--------------------------------*- C++ -*----------------------------------*\
| =========                 |                                                 |
| \\      /  F ield         | OpenFOAM: The Open Source CFD Toolbox           |
|  \\    /   O peration     | Version:  v1612+                                |
|   \\  /    A nd           | Web:      www.OpenFOAM.com                      |
|    \\/     M anipulation  |                                                 |
\*---------------------------------------------------------------------------*/
FoamFile
{
    version     2.0;
    format      ascii;
    class       surfaceScalarField;
    location    "150";
    object      phi;
}
// * * * * * * * * * * * * * * * * * * * * * * * * * * * * * * * * * * * * * //

dimensions      [0 3 -1 0 0 0 0];

internalField   nonuniform List<scalar> 
41464
(
2.57991e-10
3.42047e-09
4.04322e-10
-4.0829e-09
5.85704e-10
1.98061e-08
-1.00746e-08
-1.03172e-08
1.02562e-08
8.7856e-09
3.16314e-09
-2.2205e-08
1.4161e-08
1.27746e-08
-1.66795e-08
-1.28662e-08
-3.42936e-09
1.4573e-08
1.72251e-09
2.19254e-09
-8.97773e-10
-1.61603e-08
6.79091e-09
1.8155e-08
-2.29944e-08
-4.91409e-09
2.39755e-08
3.93296e-09
-5.2761e-09
-1.30903e-08
-4.6281e-09
-1.48472e-08
-5.30117e-10
1.19479e-08
-1.40054e-08
1.35072e-09
1.35311e-08
-5.51473e-09
-1.32925e-08
-2.8524e-09
1.14694e-08
1.28516e-08
-1.04808e-09
-1.76767e-08
5.87318e-09
-1.62002e-08
-1.30504e-08
1.16445e-08
-1.50271e-08
-4.57433e-09
3.42049e-09
-5.62268e-09
-1.23624e-08
1.78486e-09
-2.01293e-08
1.34585e-08
2.65731e-09
-9.20813e-10
1.10835e-08
-1.282e-08
-1.72552e-10
1.79669e-08
-1.51371e-08
1.90674e-09
-8.43238e-09
5.60483e-09
1.1345e-08
-9.61083e-09
5.83154e-09
-6.3609e-09
4.41113e-09
-3.8818e-09
-7.84208e-09
1.15562e-10
-1.50929e-08
2.28194e-08
-6.26364e-09
2.45291e-09
-4.03131e-09
8.57523e-09
1.26485e-09
-1.12059e-08
1.36573e-09
-4.57779e-09
1.32686e-08
2.51859e-09
9.67292e-09
-4.95037e-09
-1.4658e-08
-8.81999e-09
8.38514e-09
-9.57664e-09
-8.43529e-09
6.90233e-09
7.11612e-10
3.24108e-09
1.32264e-08
-3.1746e-09
7.74302e-09
-1.32736e-09
-1.96517e-09
2.63703e-09
-2.39093e-09
6.00066e-09
4.34955e-09
2.24194e-09
6.67933e-10
-5.24067e-09
-5.29357e-10
5.10212e-09
1.88206e-10
-2.77877e-09
3.2585e-09
4.60193e-09
-3.90604e-09
-5.07693e-10
2.58245e-10
1.09437e-09
3.33838e-09
-4.69101e-09
1.73373e-09
-5.75311e-09
4.27763e-09
-1.36138e-09
-4.35895e-10
6.19769e-09
-4.4004e-09
5.35593e-09
-5.62292e-09
-8.68873e-09
-5.87111e-10
8.22795e-09
1.0479e-09
-6.33375e-09
-2.08252e-09
-2.72445e-10
3.19423e-10
-4.46919e-09
-1.09089e-09
-2.23461e-09
-2.24737e-10
1.38292e-09
-2.79166e-10
-5.03591e-09
-3.20165e-09
6.94385e-09
2.4555e-09
-2.31491e-09
5.82741e-09
-1.48719e-09
4.73533e-09
1.00126e-09
-4.24941e-09
-3.64548e-10
3.94698e-09
-5.06963e-09
2.20504e-09
5.28257e-10
-3.09786e-09
-3.19832e-10
1.29688e-09
3.75826e-09
2.76791e-09
8.59218e-10
-5.25012e-11
3.0017e-09
-1.81315e-10
-2.314e-09
2.40721e-09
-1.45738e-10
-6.68741e-11
-4.21032e-11
-8.16973e-10
-3.60799e-09
5.42619e-09
3.45755e-09
-3.74625e-09
-4.98264e-10
4.87236e-09
-1.37242e-09
-1.54606e-09
3.45502e-09
2.56135e-09
5.0004e-09
-4.10422e-09
2.48947e-09
5.00196e-12
-2.57012e-09
3.51354e-09
2.90331e-09
-4.73054e-10
2.66872e-09
-1.54168e-08
9.11417e-09
3.63388e-09
-1.26359e-08
9.49724e-09
5.80739e-09
-1.37197e-08
3.40199e-09
-2.31825e-09
-6.15439e-09
2.51568e-09
1.3136e-08
9.96112e-10
-6.06773e-09
-1.03452e-08
-4.77043e-09
-7.95313e-09
9.45229e-09
-2.44201e-09
-1.17807e-08
9.90999e-09
4.23443e-09
-4.69213e-09
-8.07438e-09
5.27193e-09
6.85918e-09
-4.05673e-09
2.88634e-09
-1.34027e-08
-1.23812e-08
-4.16792e-10
6.64356e-09
9.30828e-10
1.0736e-08
-8.20483e-09
6.58299e-09
-5.94567e-09
1.91974e-08
8.77934e-09
-1.19607e-08
1.31115e-08
9.39769e-10
1.13888e-08
-2.95152e-10
1.09373e-08
-6.0306e-09
-5.24885e-09
1.02405e-08
5.72312e-09
6.55014e-09
5.3394e-09
-6.06952e-09
-5.82e-09
4.67952e-09
1.44802e-09
4.22584e-10
-5.26976e-09
2.36649e-10
1.1774e-08
-6.74088e-09
-7.18823e-09
-4.73011e-09
6.64858e-09
1.78563e-10
-1.09806e-08
3.61379e-09
-6.29891e-09
5.66674e-09
5.3117e-09
-8.82303e-10
-7.7205e-11
-9.30207e-10
2.01654e-09
-7.15584e-09
-4.58529e-09
3.68404e-09
-6.71535e-09
7.6166e-09
-9.39238e-09
3.57811e-10
4.44928e-09
1.90793e-09
-9.86056e-09
7.02243e-09
9.58742e-09
4.46445e-09
9.52904e-10
-3.4008e-09
3.73182e-09
-1.49675e-10
2.3872e-09
-7.74113e-09
-4.03846e-09
-5.9632e-10
-8.1564e-09
3.78409e-09
-1.84249e-09
-4.94572e-09
-8.09096e-09
2.21985e-08
-9.63278e-09
-1.08593e-09
-1.14798e-08
4.93275e-09
9.58458e-09
7.68115e-09
-8.2016e-09
-3.53762e-09
1.13071e-08
4.32147e-10
5.59398e-09
3.89558e-10
-1.41852e-08
1.48276e-08
-1.88664e-08
1.39795e-08
-5.22259e-09
6.07066e-09
-1.38745e-08
8.65901e-09
1.01482e-08
-6.28777e-09
-8.67264e-09
4.00238e-09
1.95616e-08
8.04268e-09
5.82993e-09
-1.34831e-08
7.87476e-09
-3.36971e-09
-5.47046e-09
-6.61022e-09
1.6083e-08
-3.99927e-09
7.18783e-09
6.12349e-09
-3.90447e-11
3.40695e-09
-3.86481e-09
1.05172e-08
7.64521e-10
-6.20319e-09
5.71645e-09
3.14713e-10
7.00891e-09
-7.74771e-09
6.30854e-09
-5.56976e-09
-1.0373e-09
7.61671e-09
4.29507e-10
3.74333e-09
-1.5827e-10
-1.13328e-08
3.76211e-09
-1.0561e-09
-6.19496e-09
7.25638e-09
6.55528e-09
4.63041e-11
6.72745e-11
5.83355e-09
2.62672e-09
-8.61855e-09
5.72183e-09
1.58015e-10
1.31165e-08
-2.12327e-09
-2.74711e-09
-8.24612e-09
6.67225e-10
1.43599e-08
-1.91066e-09
-5.33917e-09
7.42114e-11
8.08191e-09
-2.81695e-09
-5.09803e-09
-2.07652e-10
-3.34793e-11
2.97119e-10
-7.52431e-09
7.31344e-09
-8.62645e-11
5.8719e-09
1.47057e-10
3.43905e-09
-8.33664e-09
8.28246e-09
-6.96669e-09
9.66216e-09
-7.12475e-10
7.96676e-09
-9.63767e-09
-7.64342e-10
2.43527e-09
-3.26686e-09
1.13078e-08
-8.62267e-09
1.39402e-09
-9.43578e-11
4.63411e-09
2.77369e-09
-2.8484e-09
1.39415e-08
6.71941e-09
-3.11205e-09
-3.57398e-09
3.47333e-09
3.21268e-09
-7.65907e-09
2.69661e-09
1.8504e-09
-3.22784e-09
-2.93767e-10
-5.23753e-11
-5.44361e-09
-5.44332e-09
-6.51782e-09
5.65633e-09
2.28483e-10
6.33049e-10
4.91224e-09
-8.73344e-09
6.4991e-09
1.53081e-09
-3.11762e-09
5.34392e-09
6.81152e-09
3.39267e-09
3.09149e-10
-7.11227e-09
4.46436e-09
-9.59202e-10
3.60714e-09
-2.67879e-09
-2.90269e-09
7.38248e-10
9.07004e-09
-2.69788e-09
3.12913e-09
2.96142e-09
5.57431e-09
-4.48109e-09
2.47244e-09
-3.56567e-09
2.50467e-09
2.11044e-09
6.54359e-10
-1.39561e-10
-5.30947e-09
-2.5983e-09
6.46568e-09
-3.20622e-09
3.11258e-09
-7.9419e-11
-5.16924e-09
3.74347e-09
9.90147e-09
2.42358e-11
6.8723e-09
-4.73301e-09
-3.19452e-09
1.1671e-08
5.73353e-09
1.58273e-08
9.21061e-09
-1.60253e-08
6.10206e-09
7.12582e-10
5.70395e-09
1.60703e-08
-1.25637e-08
-3.59568e-09
1.33791e-08
-4.07946e-09
-7.59975e-09
-1.11007e-08
2.67517e-09
3.58706e-09
-8.91345e-09
-5.91706e-09
1.12434e-08
-1.3096e-09
4.73856e-09
1.58106e-10
7.67905e-09
-1.3664e-08
3.6891e-09
2.2959e-09
1.82916e-09
-7.47857e-09
6.44063e-09
-7.91187e-10
-2.07238e-09
-1.44408e-08
-4.76141e-09
8.84479e-09
4.73284e-09
-9.78961e-09
2.9844e-09
-1.3797e-08
-9.73073e-09
1.75013e-08
6.02638e-09
6.31165e-09
2.50358e-10
2.40636e-10
5.3904e-09
-2.51703e-09
4.37111e-09
-7.24441e-09
5.27175e-10
4.75346e-09
1.09762e-10
4.40341e-09
-8.09912e-10
-2.22458e-10
-3.371e-09
4.48436e-09
4.46232e-10
6.83462e-11
-3.39526e-09
-4.07646e-10
-1.23826e-09
-4.50312e-09
6.14905e-09
-1.74391e-09
-6.3988e-09
7.73507e-09
5.88614e-09
9.20252e-10
-2.4353e-09
4.65073e-09
5.98887e-09
1.02717e-09
3.37146e-09
-4.33027e-09
5.57166e-09
-4.76695e-09
1.64575e-09
5.06516e-10
-7.71529e-09
5.56308e-09
-8.55367e-09
8.45555e-09
3.919e-09
-5.61913e-10
-5.84926e-09
1.23735e-11
-5.8066e-10
5.6529e-09
-1.36115e-09
-3.56396e-09
-3.76779e-09
-1.22189e-09
-5.62633e-09
-4.0454e-09
-6.4158e-09
-3.38753e-09
5.71869e-09
4.0846e-09
-5.05526e-09
-6.83644e-10
-6.76916e-10
3.32052e-09
-4.63966e-09
-3.73615e-09
6.989e-11
-1.36912e-10
1.10205e-09
9.94539e-10
1.33321e-09
-3.43008e-09
6.58714e-10
-4.19634e-09
5.10697e-09
-3.57877e-09
-4.70542e-09
3.17721e-09
6.43472e-10
5.024e-09
-5.60503e-10
-5.14256e-09
4.69809e-10
1.09395e-09
-8.76497e-09
9.4153e-09
-1.33401e-09
2.16433e-09
3.73659e-09
-4.90641e-09
-5.94193e-09
-2.7423e-09
7.1492e-10
-2.67804e-09
3.28714e-09
3.21925e-09
-5.17318e-09
3.49593e-09
-1.38896e-10
-4.6656e-09
-2.88215e-09
-2.47076e-11
3.55032e-09
1.08359e-09
7.32848e-09
-1.63451e-09
2.9953e-09
-2.70175e-09
9.12173e-09
-4.49692e-09
8.94844e-09
-1.52351e-09
1.18448e-08
5.09702e-09
1.3307e-08
5.55104e-09
-1.40173e-08
1.17281e-08
1.4134e-08
5.94051e-09
-5.39879e-09
-4.64007e-09
1.33446e-08
4.92355e-09
3.42538e-09
4.77135e-11
-3.95345e-09
9.47039e-09
4.23568e-10
1.23601e-08
4.35292e-10
6.47207e-09
9.10276e-09
1.65643e-08
7.15632e-10
-7.69339e-09
7.46269e-09
-4.84946e-10
-8.83588e-09
-3.50519e-11
9.58656e-09
4.94402e-09
4.71788e-09
-3.43406e-12
9.53146e-09
-4.6376e-10
4.49879e-10
7.43757e-09
-1.90171e-09
7.65444e-09
-1.31904e-08
1.88268e-10
1.08297e-08
-3.58041e-09
-7.95648e-09
1.1457e-08
-3.31229e-09
4.78671e-09
-1.46449e-08
-3.06112e-09
8.63956e-09
5.25119e-09
5.13978e-09
-5.4648e-10
4.06433e-09
2.61839e-09
4.77424e-09
1.05473e-10
-5.51352e-09
2.53229e-09
2.87565e-09
-5.52805e-09
2.42424e-09
3.2092e-09
7.19037e-09
5.19643e-09
7.56463e-09
-7.62131e-09
5.43886e-09
5.09243e-11
-2.93412e-10
7.47543e-09
3.81908e-09
-6.89335e-09
-6.25331e-09
9.32755e-09
-6.69997e-10
4.54e-09
-4.85295e-11
-7.86397e-09
7.19873e-09
7.13704e-10
-1.07632e-08
8.65659e-09
-2.85263e-09
9.34732e-09
-3.14134e-09
-3.35337e-09
-4.22086e-09
8.32783e-09
-6.95962e-09
9.19419e-09
7.07679e-09
-6.92364e-09
8.87106e-09
3.30482e-10
-7.38308e-12
-1.04488e-08
1.23051e-08
7.01477e-09
-8.72937e-10
-2.4991e-09
1.90789e-08
-5.49772e-09
1.30515e-09
-1.48864e-08
5.35387e-09
9.01852e-09
4.70655e-09
-8.50295e-09
6.44032e-09
7.41649e-09
8.32908e-09
-3.69512e-09
-1.01317e-08
-1.66327e-09
1.48939e-09
1.18812e-09
-9.10415e-09
3.90273e-09
-5.85598e-09
5.48083e-09
1.18372e-09
5.72269e-09
8.85784e-11
-8.01956e-09
-4.20024e-09
3.95e-10
1.18248e-08
-2.33773e-09
-1.24118e-08
6.72995e-09
-1.33874e-09
9.44352e-09
6.88617e-09
-1.33917e-08
4.16776e-09
-3.74917e-09
1.10303e-08
1.90079e-08
-4.47463e-09
-1.32282e-08
1.46348e-08
-1.38082e-09
4.07193e-09
3.0031e-09
-1.07932e-08
-2.49164e-09
-1.13651e-08
-4.23937e-09
2.3618e-09
-3.32039e-09
5.19791e-09
-4.72965e-09
8.3145e-10
-3.41207e-10
3.35005e-09
-1.01727e-10
-1.09201e-09
-2.15633e-09
3.1233e-09
-1.70227e-09
1.92897e-09
-1.90233e-09
-2.92904e-09
3.10965e-09
8.45045e-10
-1.90869e-09
7.38012e-09
-3.34518e-09
3.90276e-10
-3.65526e-10
-4.9902e-10
-4.74851e-09
2.64278e-09
-1.04534e-09
-2.68948e-09
1.00528e-09
-6.48754e-11
-2.31638e-09
2.7435e-09
1.62016e-09
-2.04734e-09
-3.86074e-09
2.97351e-09
1.60233e-10
2.61371e-09
1.17164e-11
3.67853e-09
-1.06502e-08
-3.02169e-09
8.01433e-09
5.65754e-09
-3.41666e-11
-8.10946e-09
-2.50655e-09
-1.05613e-08
1.44819e-08
-3.95474e-09
4.39698e-09
-6.44357e-09
-6.06288e-09
8.94041e-10
4.8125e-10
-6.70089e-09
-1.11981e-08
7.33775e-09
5.80967e-09
1.2371e-08
-3.69875e-09
3.13003e-10
1.3511e-08
1.01958e-09
-1.4164e-08
4.95461e-09
4.58716e-09
-8.52219e-09
-1.9012e-10
4.69334e-09
4.51378e-10
4.13856e-09
2.58478e-10
9.70933e-09
-5.61198e-09
5.9596e-10
2.87166e-09
8.31543e-09
-1.47775e-09
4.22214e-09
8.10459e-10
7.40681e-09
-8.63432e-10
-8.79392e-09
3.28626e-09
6.37102e-09
-6.75821e-09
1.44277e-09
4.45197e-09
-1.54324e-09
-8.91408e-09
1.66338e-09
-8.74279e-09
4.41323e-10
-2.09722e-09
-9.69177e-09
2.05107e-08
-7.51842e-09
1.47876e-08
-9.36637e-09
2.90727e-09
-8.59225e-09
-3.22911e-09
-7.36977e-10
-5.09856e-09
-3.31404e-10
2.67631e-09
-9.86335e-09
2.74225e-09
-4.42377e-09
9.14718e-09
1.00641e-08
9.35304e-09
6.73381e-09
-6.0794e-09
1.64383e-08
-1.00594e-09
1.4621e-08
-1.11528e-08
-9.54758e-09
1.09646e-10
3.81834e-09
1.25103e-08
3.76974e-09
1.09609e-08
-2.75092e-09
-6.77729e-09
9.63783e-09
-1.09643e-10
-9.0535e-09
3.13754e-09
-5.28178e-10
-2.73461e-09
7.0811e-09
-3.74091e-09
6.98241e-09
-3.86231e-09
1.02159e-08
-1.00945e-08
6.07689e-09
-8.49644e-09
9.6988e-09
7.80977e-09
5.60964e-10
-9.08664e-09
7.15931e-10
-8.11534e-10
-3.48813e-10
8.97009e-09
-6.3488e-09
-8.14929e-10
6.35219e-09
-4.07142e-09
-2.61323e-09
3.35833e-10
-9.90299e-09
-1.4353e-09
1.09895e-08
-1.15181e-08
2.17606e-09
-2.47969e-09
-9.93115e-09
3.32421e-09
-6.65385e-09
1.02748e-10
1.264e-08
1.61316e-09
1.62409e-09
-1.58772e-08
7.95334e-10
1.91354e-09
-8.00056e-09
5.18356e-10
6.66727e-09
-4.28708e-09
-9.48945e-09
5.77598e-09
-6.91601e-09
1.57145e-11
1.41921e-08
2.8276e-09
-1.54065e-08
3.46933e-09
2.34765e-09
-7.37741e-09
-8.66126e-09
7.74432e-09
-2.72649e-09
-4.75021e-10
-6.28794e-09
-7.29484e-09
-6.30868e-09
-9.35595e-09
-2.9353e-09
3.40188e-09
8.88936e-09
-5.2183e-09
-2.86389e-09
-1.27375e-09
1.04051e-08
-7.2688e-09
-8.3546e-09
6.00311e-10
6.86948e-09
4.36849e-10
8.51419e-09
-5.54917e-09
4.87585e-09
-1.28177e-08
8.54215e-09
3.63914e-09
-1.08067e-08
-5.93173e-09
1.86961e-09
-3.13221e-09
-6.41594e-09
7.67853e-09
2.48631e-09
-3.28756e-09
-6.46756e-09
7.33721e-09
-1.2494e-09
-4.21822e-09
2.88597e-09
3.61449e-09
8.36751e-10
-4.13761e-09
-6.19377e-09
1.02339e-09
-1.12647e-08
-5.65439e-10
-5.29357e-09
3.85235e-10
1.26802e-09
-7.6878e-09
8.39061e-09
-3.84257e-09
-5.79745e-09
5.983e-09
-5.28877e-09
-1.01135e-08
-7.86331e-09
1.46943e-08
1.8839e-09
-8.02447e-09
-7.71825e-09
2.63763e-09
6.65583e-09
-1.57533e-09
1.82456e-10
5.19662e-11
-7.85281e-09
9.44963e-09
4.73484e-09
3.25816e-10
4.16689e-09
-4.52019e-09
-6.64481e-10
1.0178e-09
5.80256e-09
6.08436e-09
-7.72001e-09
-1.28346e-09
3.49348e-09
-3.66669e-09
1.45668e-09
3.72979e-09
1.61341e-09
-6.62666e-09
-3.71625e-09
3.32141e-09
3.88833e-09
-1.68526e-09
-1.80005e-09
-2.30929e-10
5.76066e-09
-6.11208e-10
-1.00959e-08
4.9465e-09
-4.44792e-10
-4.03757e-09
-1.42916e-09
-2.16164e-09
1.8413e-10
7.78008e-09
-7.53421e-09
2.88544e-09
1.41694e-08
-3.91519e-09
-6.69877e-09
-3.55542e-09
-4.40065e-10
1.24479e-08
-1.30457e-09
4.81011e-09
-1.04766e-08
1.38057e-09
8.65596e-09
-9.7581e-09
-4.63365e-09
3.8058e-09
8.73761e-09
3.87494e-09
1.72423e-09
-1.43367e-08
1.09172e-08
-1.19167e-08
9.73711e-09
3.30946e-09
6.04628e-09
-5.4808e-09
2.25331e-09
-9.67291e-09
9.14383e-09
1.03265e-08
-4.76376e-09
2.96398e-10
2.2012e-09
7.82895e-09
5.49351e-09
9.23783e-09
-2.98572e-09
-1.17456e-08
-2.34605e-09
1.22218e-08
-3.82943e-09
5.44472e-09
-9.98343e-09
9.09147e-09
-4.55277e-09
1.15239e-08
2.89849e-09
-1.96471e-09
5.84972e-09
-4.05944e-09
-8.80246e-09
7.01217e-09
-5.19217e-10
-1.4068e-11
6.38297e-09
8.30094e-09
-4.35928e-10
6.32362e-09
-1.41887e-08
7.73896e-09
-1.93412e-09
2.49608e-09
-6.25556e-09
4.75162e-09
-9.16511e-09
1.0669e-08
-6.53264e-09
-2.42174e-10
3.23548e-09
-7.73086e-09
-7.63758e-09
1.56853e-08
-3.29609e-09
8.02266e-09
3.71753e-09
-5.41659e-09
8.12403e-09
-8.48646e-10
-4.59895e-09
-4.1458e-09
1.46666e-08
-1.25702e-08
-6.04079e-09
3.94434e-09
-7.81853e-09
2.3425e-08
-1.98711e-09
-1.59009e-08
5.92728e-09
-1.87878e-08
4.23045e-09
-1.5017e-08
-5.90832e-09
1.31068e-08
-1.71688e-08
-3.88893e-09
-1.34123e-08
5.54173e-09
-8.03032e-09
-6.03828e-09
-2.81369e-09
-9.93584e-09
-3.8429e-09
-1.56077e-08
3.54885e-09
7.11415e-09
-1.45059e-08
5.40433e-09
6.82772e-09
-8.68321e-09
-5.48646e-09
1.41572e-08
-3.26641e-09
1.10476e-08
-9.4199e-09
-1.37809e-08
3.81583e-09
-6.01274e-09
-1.84825e-09
1.57376e-08
-1.17236e-08
7.40443e-09
-2.36956e-09
1.28323e-08
8.72937e-09
1.04537e-09
-2.47659e-09
9.67621e-11
1.84803e-10
-3.90227e-09
-1.36066e-09
5.07813e-09
-4.7399e-09
4.80362e-09
2.13051e-10
-2.76783e-10
-3.67674e-10
1.91024e-09
-6.2825e-09
6.19835e-09
-1.20994e-09
-3.69894e-09
9.70852e-12
-1.40708e-09
-2.7687e-09
1.49775e-09
2.38684e-09
2.56204e-09
-6.35604e-09
1.29927e-09
-7.26905e-09
5.60207e-09
2.92687e-09
-1.26866e-09
-4.0349e-09
2.37668e-09
2.01957e-09
-3.80158e-09
4.70887e-09
2.16099e-09
-1.01104e-09
4.52834e-09
-4.82878e-09
6.20455e-09
2.08233e-11
-3.62211e-09
-2.0033e-10
-3.91053e-09
-1.03566e-10
5.87525e-09
-1.47729e-09
-2.03596e-10
-4.19442e-09
9.38779e-10
1.31433e-09
4.11067e-09
-3.67773e-09
-7.66597e-11
6.62081e-09
-5.52517e-09
2.7308e-09
-5.06334e-09
-4.4303e-09
-1.19739e-09
1.0691e-08
-5.76168e-09
6.62804e-09
-5.92967e-09
-2.65638e-09
4.3988e-09
-6.17271e-09
1.72796e-09
-1.0146e-08
-2.30083e-10
9.48223e-10
5.90991e-09
8.53369e-09
-7.81437e-09
3.79066e-09
-4.50998e-09
-5.52522e-09
1.13242e-08
2.73469e-09
-4.75741e-09
-3.34179e-09
4.69732e-09
3.40185e-09
7.50004e-10
-5.28419e-09
-2.23255e-10
-4.50707e-09
3.7489e-09
-2.82534e-09
3.5835e-09
-3.64248e-09
-1.14604e-10
4.13372e-09
-5.50181e-09
-3.91612e-09
5.61845e-10
6.85975e-09
-8.98116e-09
-5.69298e-09
-1.39461e-09
2.72914e-09
6.95391e-09
1.49229e-09
-3.11966e-09
2.25773e-09
-2.78061e-09
-6.8935e-09
1.50312e-09
-6.08548e-09
6.7836e-09
-3.02276e-09
2.56364e-09
-5.1597e-10
1.82067e-09
-5.55414e-09
1.7731e-09
3.91186e-09
-6.20097e-09
3.52905e-10
6.63931e-09
-5.17156e-09
6.91157e-09
-4.78557e-09
6.80229e-09
-6.49841e-09
6.99922e-09
6.64701e-09
-6.73469e-09
-4.96122e-10
5.8051e-09
1.69023e-09
4.56289e-09
1.58027e-09
2.23885e-09
-2.78226e-09
7.34569e-09
-9.51967e-09
5.44153e-09
9.88321e-09
-6.33825e-10
1.27032e-08
-1.43852e-09
-5.82318e-09
1.23511e-09
4.62465e-09
-1.83946e-08
1.43706e-08
5.63754e-09
-1.61355e-09
1.07493e-08
-2.5756e-08
-3.38794e-09
1.89932e-08
7.86966e-09
-1.61135e-08
2.09911e-08
1.23726e-08
-7.06776e-09
5.9653e-09
-8.13256e-09
9.23493e-09
1.21609e-08
1.76244e-09
8.67124e-09
-6.19715e-09
9.68677e-09
-6.76271e-10
1.53128e-08
1.88716e-08
2.11442e-09
-1.53485e-08
8.21398e-09
-1.69715e-08
2.56033e-09
-6.05769e-09
1.35954e-08
-1.02218e-08
1.91094e-08
4.27979e-09
-1.31674e-08
1.78066e-08
-1.95469e-08
-8.48155e-09
5.32016e-11
1.06858e-08
-5.81265e-09
-3.28919e-09
7.96262e-09
9.89719e-09
2.10143e-08
-5.07399e-09
9.50255e-09
-5.93261e-09
-2.7262e-09
4.04715e-09
4.61161e-09
-1.59878e-09
3.75014e-10
4.78477e-09
-1.85523e-09
-1.72643e-09
4.89926e-09
4.3626e-12
-2.23398e-10
-1.26128e-10
2.65776e-09
-5.16238e-09
2.50385e-09
1.55918e-10
1.38722e-09
-2.51567e-09
2.70801e-09
9.0161e-10
-8.13102e-11
2.54685e-09
-2.63203e-09
3.55852e-09
-3.47335e-09
-1.48908e-10
2.73817e-09
-4.24413e-11
2.5623e-09
-1.80409e-09
2.24894e-09
-3.00717e-09
2.46891e-09
-5.55348e-11
-5.74177e-09
1.30567e-09
-2.94245e-10
3.19544e-09
1.42515e-09
-4.32636e-09
-2.5898e-09
2.14329e-09
3.18469e-09
6.74467e-10
-3.18567e-09
8.26986e-10
-5.28216e-09
3.13933e-10
1.78254e-09
3.5976e-09
2.85357e-10
-1.63401e-09
3.36211e-09
2.70439e-09
-2.15578e-09
-2.84102e-09
-1.90468e-09
4.87494e-09
1.77136e-09
6.56401e-09
1.70762e-09
2.03236e-09
-5.38313e-09
2.42573e-09
9.52143e-09
1.60481e-08
9.28037e-09
3.4416e-09
-2.0334e-09
1.37395e-08
1.58328e-08
-1.72071e-08
1.53494e-09
8.75293e-09
6.91915e-09
-5.65041e-09
-6.97087e-10
-1.08596e-08
1.25216e-08
-4.77533e-09
-1.33967e-08
7.2669e-09
6.78963e-09
-5.27683e-09
9.1709e-09
4.85885e-09
6.58902e-09
-1.07828e-08
-1.0831e-09
-2.97619e-10
7.09018e-09
-7.37461e-09
5.82036e-10
5.83437e-09
4.57018e-10
-3.93379e-09
-7.54607e-09
-1.66482e-08
-4.03352e-10
5.95465e-09
1.10968e-08
-9.06615e-09
1.68683e-09
-9.26888e-09
7.39713e-09
7.60812e-09
6.99641e-09
1.6519e-09
-1.34237e-08
1.18192e-08
-1.3889e-08
4.03293e-09
7.38286e-09
7.85072e-09
-1.01326e-08
-1.2443e-08
5.14225e-09
1.32553e-08
-5.50648e-09
-5.2497e-09
2.43867e-09
9.79374e-09
-4.30881e-09
1.41446e-08
6.991e-09
-5.03038e-09
5.34915e-09
-4.34513e-09
-1.1068e-09
1.02751e-10
-3.42025e-09
4.79409e-09
3.97527e-09
3.46377e-09
-4.3474e-09
-3.46152e-09
1.95742e-10
-1.52244e-10
1.21182e-10
-1.23818e-09
5.91107e-09
-6.08396e-09
7.44023e-09
-6.64531e-09
2.14159e-09
-6.88676e-09
-8.65362e-10
-3.30894e-09
2.92997e-09
-3.06815e-09
-4.50582e-11
-4.9187e-10
-1.68553e-09
-2.17001e-09
2.61106e-09
-6.00008e-09
-4.76759e-09
3.12724e-09
-3.04142e-09
1.38652e-10
-7.95639e-11
-5.60428e-11
4.81339e-09
-1.04457e-08
1.25046e-08
-1.49766e-08
1.25582e-08
9.28104e-09
-6.86263e-09
-9.51912e-09
-7.66244e-09
2.20497e-09
-4.62254e-09
1.34003e-08
-3.96434e-09
-8.97774e-10
-1.14584e-08
7.73365e-09
7.44115e-09
1.447e-08
-8.51092e-09
8.53701e-09
-1.13354e-08
1.53566e-08
-6.09016e-09
1.35069e-08
-1.13811e-08
8.96264e-09
-1.59506e-08
-5.17662e-09
-3.69777e-09
1.63155e-08
-1.74756e-09
5.10794e-09
1.03289e-08
-9.94655e-09
-1.89339e-09
8.86954e-10
1.18132e-08
8.98739e-09
-1.37754e-08
3.04046e-09
-1.05578e-08
1.58474e-08
-9.59412e-09
6.77002e-09
5.34825e-09
-3.1292e-09
-9.97405e-09
1.54694e-09
-1.96422e-10
-4.53115e-09
7.92225e-10
-1.16753e-09
6.05125e-09
-9.86275e-10
-1.13183e-08
4.01561e-09
-1.91644e-10
-4.49399e-09
-3.92547e-09
3.74473e-09
3.41118e-10
-4.26147e-09
-5.13108e-12
-4.10189e-09
-4.68012e-09
5.35195e-09
-3.69229e-09
-6.85029e-11
4.85512e-09
-4.64325e-09
-3.90416e-09
-1.18566e-09
3.34424e-10
-9.67247e-09
4.04293e-09
-9.51553e-09
1.46347e-09
-2.55394e-09
1.0606e-08
-1.60041e-09
2.47047e-09
4.43495e-09
-5.30506e-09
5.00343e-09
3.26763e-09
-9.8715e-09
-7.10392e-09
-2.39389e-09
-1.29079e-09
1.07886e-08
-1.1616e-08
2.46691e-09
6.04043e-09
-5.23974e-09
6.5003e-09
-1.56294e-09
5.61965e-09
-3.5786e-09
2.81147e-11
5.63704e-09
8.35114e-10
-6.16471e-09
5.56964e-09
6.23162e-10
3.75511e-09
-3.8794e-09
-7.5996e-09
2.82361e-09
-3.49936e-09
8.27537e-09
1.69674e-10
-1.1634e-09
-6.60591e-09
-6.7769e-09
7.57959e-09
-1.5583e-09
6.98628e-10
5.21402e-09
-2.93028e-10
5.54152e-09
7.9413e-10
-6.53158e-09
-9.00277e-10
1.02555e-08
-1.14789e-09
-6.14687e-10
5.25332e-09
-8.13797e-09
-2.9195e-09
7.56074e-09
-2.25075e-09
6.6743e-09
8.27988e-10
-5.25157e-09
5.5735e-09
-1.46153e-09
-6.36273e-09
1.00944e-09
4.70651e-09
-1.42468e-10
6.86248e-09
8.21257e-10
3.77299e-09
8.40014e-09
-1.49049e-09
-1.06827e-08
5.33801e-09
2.75905e-09
-4.32409e-09
8.30308e-09
5.43506e-09
9.96047e-09
-6.37344e-09
2.07951e-09
-1.08118e-09
5.86411e-09
5.25474e-09
-8.20676e-09
-6.24755e-09
5.38045e-09
3.09245e-10
5.57828e-10
5.34913e-09
-6.34195e-09
-5.32689e-09
9.97991e-10
6.40839e-09
-6.16659e-10
-3.74257e-12
-4.85323e-09
5.04364e-09
5.19002e-09
-1.20762e-10
1.48393e-09
7.39536e-09
7.92063e-09
6.91678e-10
-1.21519e-09
7.25681e-09
8.18937e-09
5.50985e-09
2.871e-09
9.64564e-10
-9.34543e-09
-7.47379e-11
6.33962e-09
-7.55039e-10
5.29141e-09
9.01318e-09
-1.14336e-08
1.2185e-08
4.19346e-10
-7.31299e-09
5.12507e-09
3.12564e-09
-7.28615e-09
5.73671e-09
-6.86389e-10
6.36913e-09
-9.23968e-10
3.56802e-09
3.80343e-09
-5.80423e-09
-3.77157e-09
1.05005e-09
-3.08836e-09
-5.46965e-09
2.75377e-09
6.99089e-09
-3.44591e-09
-2.8946e-09
6.79714e-09
3.83193e-09
1.58373e-09
-2.06126e-10
2.66478e-10
6.09451e-11
4.0785e-09
-4.66153e-09
3.16744e-09
-2.58437e-09
-2.3197e-09
1.53417e-09
4.86403e-09
-1.44904e-09
-2.69014e-10
-2.94346e-09
3.35554e-09
-4.36937e-09
-4.35188e-10
-1.30752e-09
2.34337e-09
-8.97034e-10
-3.97665e-09
-1.09325e-09
-4.8344e-09
6.51231e-09
-5.84641e-10
4.69106e-09
-3.00163e-09
-2.7827e-09
-1.04235e-08
7.48741e-09
1.23167e-08
-2.07336e-09
-1.3245e-08
2.23546e-09
-3.42319e-10
-1.34044e-09
-4.64311e-09
1.61421e-09
-3.76325e-09
-8.41761e-09
9.54614e-09
1.10693e-09
-8.2484e-12
-1.04827e-08
6.00888e-09
-7.35756e-09
1.17818e-09
3.52319e-09
-4.27515e-09
-2.12982e-09
6.45334e-09
-4.83459e-11
2.3902e-09
-4.68106e-09
-1.9842e-09
-3.79302e-09
-2.69304e-09
4.35627e-09
-1.40576e-09
2.95207e-12
-4.07842e-11
-2.07551e-09
-2.67642e-09
4.79272e-09
-2.13452e-09
-2.58732e-09
1.8865e-09
4.31075e-09
2.95951e-10
-6.49319e-09
3.95354e-09
-4.20156e-09
-2.79127e-09
-2.68599e-09
2.78423e-09
-4.04974e-09
-1.47292e-10
3.58829e-09
3.2679e-10
-3.42297e-09
-4.92115e-10
3.01137e-09
3.78084e-09
-2.47446e-10
-6.54474e-09
5.39191e-09
-3.97892e-10
-4.37198e-09
-6.2202e-10
4.77678e-10
-5.73874e-10
1.46624e-09
-2.18179e-09
4.30383e-09
5.11522e-09
4.80504e-10
-5.29595e-09
7.82681e-09
5.70816e-09
-3.76143e-09
6.73693e-09
2.43582e-09
-8.29692e-09
2.90011e-09
5.69275e-09
-1.6229e-09
-5.8459e-09
5.19876e-09
2.27002e-09
-8.23032e-09
4.28838e-10
6.17857e-09
-1.73091e-09
-1.26921e-09
-5.23021e-09
-1.68072e-09
-5.8961e-09
1.95114e-09
8.01192e-09
-8.79691e-09
-1.16621e-09
5.19045e-09
1.95941e-09
7.44127e-09
1.95288e-09
-1.38226e-09
3.2619e-09
-3.36027e-09
7.53961e-09
1.01725e-08
-1.29124e-08
3.16881e-09
-5.48976e-09
-1.03713e-09
-5.27028e-10
9.20841e-09
1.49106e-09
5.31986e-09
3.31661e-10
3.72182e-09
-3.04338e-10
1.90236e-09
1.3735e-09
-5.67222e-09
8.02052e-09
5.78723e-09
-5.554e-09
1.71959e-09
1.04226e-08
1.52584e-09
-2.00538e-09
5.54157e-09
3.84295e-09
-1.14023e-08
1.21226e-09
-3.86759e-09
-1.20543e-09
3.49407e-09
-2.34558e-09
6.37681e-11
1.53612e-09
-8.94263e-11
1.98692e-09
-3.77735e-09
-2.16193e-09
3.95231e-09
3.53249e-09
-9.46887e-12
1.52907e-09
3.12748e-09
1.32482e-09
-5.98133e-09
1.48018e-09
-3.81868e-09
3.32345e-09
-2.54156e-09
1.96605e-09
4.51226e-09
-5.15346e-09
5.72172e-09
-2.2755e-09
-1.53333e-10
-3.00555e-10
-4.45513e-09
-3.08374e-09
5.07733e-10
7.03114e-09
-5.30715e-09
-4.83294e-09
5.68496e-09
-2.11055e-09
-7.70164e-09
1.02953e-09
-3.58027e-09
1.02524e-08
-7.77541e-09
-1.53038e-08
1.53776e-08
6.59649e-09
-1.39457e-08
-6.98752e-09
-4.29064e-09
7.81342e-09
-1.64751e-08
8.86294e-10
-1.29085e-08
-5.04193e-09
8.37699e-09
9.57348e-09
7.08328e-09
-2.3087e-09
3.03884e-09
2.17464e-09
-4.66287e-10
-7.18916e-09
7.48375e-09
3.91616e-09
-1.11067e-08
-2.93221e-10
1.48748e-08
-4.43272e-09
-4.03807e-10
7.01116e-09
-1.0258e-08
-2.83739e-09
5.00741e-09
-7.55517e-10
-1.4145e-09
4.25114e-09
-2.66488e-09
-4.42363e-09
-1.03533e-09
6.72764e-10
4.61369e-09
4.64298e-09
-6.7088e-10
8.73534e-10
3.54876e-09
-5.98551e-09
1.56315e-09
2.68888e-09
-4.8076e-09
2.99225e-09
-5.21483e-10
6.75911e-09
-4.72227e-09
6.08044e-09
-6.86802e-10
-6.71316e-10
1.13473e-08
-1.12317e-08
-4.83781e-09
1.26201e-08
-2.44136e-09
3.25176e-09
-1.56591e-09
-5.69393e-09
5.87706e-10
-1.15291e-09
-4.52915e-09
-3.03533e-10
3.94249e-09
5.68697e-09
-4.98649e-09
-3.45245e-09
6.87348e-09
-8.87518e-10
3.82779e-09
-2.79179e-09
-6.84669e-09
5.8107e-09
-3.7557e-09
-2.68573e-09
1.02692e-08
-9.31445e-09
-6.79213e-09
1.23509e-08
-1.65651e-10
-6.85202e-09
4.22587e-09
3.19927e-09
-8.21494e-09
4.85001e-09
7.93461e-09
1.68029e-08
-5.25369e-09
-1.94838e-08
1.22757e-08
-4.55395e-09
2.12872e-10
-4.09763e-09
1.05014e-08
5.87191e-09
1.16119e-08
1.09341e-09
-3.13153e-10
2.61056e-09
-9.27916e-09
2.11931e-09
-6.19822e-09
6.71176e-09
-4.55451e-09
-8.30349e-09
6.65978e-09
6.3918e-10
-7.96774e-09
2.77404e-09
4.34849e-09
6.46407e-09
-5.24328e-09
-9.18853e-09
-1.64652e-09
-1.92904e-10
2.63041e-09
-7.77838e-09
-1.70404e-09
-5.89899e-09
3.14452e-10
7.27308e-09
4.55219e-09
-5.5457e-09
-6.27957e-09
-2.72433e-10
6.82413e-09
-1.3942e-08
1.86414e-09
-1.31444e-09
-1.91176e-09
-3.76947e-09
-3.39116e-09
-1.69101e-08
1.54398e-08
4.86147e-09
5.79504e-09
-9.18746e-09
1.24916e-12
4.23718e-09
3.28627e-09
-6.0757e-11
-1.74337e-08
4.12484e-09
-4.47196e-09
1.77809e-08
9.47967e-10
-1.36623e-08
-4.71937e-09
4.00674e-09
9.00713e-09
-3.42731e-09
7.74204e-09
5.01883e-10
1.2795e-08
-2.83986e-09
2.14519e-09
1.47746e-08
9.47375e-09
-1.29156e-08
-1.34682e-08
8.64688e-09
4.34426e-10
-1.36735e-08
1.19704e-10
9.08176e-09
-1.78043e-08
-3.81642e-10
1.02689e-08
3.32044e-09
-3.33424e-09
1.54536e-08
1.15857e-08
6.25921e-09
-5.04285e-09
-1.05781e-08
3.64414e-09
1.19769e-08
-1.29733e-08
8.10897e-09
-8.10216e-10
-6.35953e-09
-3.4084e-09
-8.65823e-09
-5.12524e-09
2.60149e-09
-8.46014e-09
9.7216e-09
-3.86296e-09
-7.32131e-09
1.35669e-08
-2.11481e-10
-5.33056e-09
6.99005e-09
1.61039e-09
8.08708e-09
-7.42939e-11
-9.62316e-09
4.735e-10
1.00899e-08
-8.95296e-09
9.81032e-09
9.03238e-09
-1.07556e-08
1.58819e-08
-3.16856e-09
-2.903e-09
-5.88488e-09
-1.2062e-08
9.2887e-09
1.28876e-09
-7.24793e-09
9.04363e-09
-7.28137e-09
-5.899e-09
-1.07614e-08
9.33907e-09
-1.19167e-08
-2.44246e-09
1.05843e-08
-1.76346e-09
1.45495e-08
1.07022e-08
-3.7809e-09
3.95646e-09
-1.27236e-09
3.89726e-09
2.05245e-08
-3.63581e-09
-1.72443e-08
3.55602e-10
-1.50879e-09
-2.42023e-09
2.44535e-08
-2.16249e-08
-4.64551e-09
2.47616e-08
-2.13398e-08
-3.92084e-09
-1.71168e-08
-2.19239e-09
1.68889e-08
-6.9915e-09
-1.7017e-08
6.8918e-09
1.02897e-08
4.79127e-10
6.06619e-09
-1.6835e-08
-2.19442e-09
-3.99113e-09
1.64753e-08
-1.86593e-08
-5.90716e-09
3.2267e-09
-2.27019e-08
-1.53397e-09
-5.66888e-10
1.55793e-08
-1.96579e-08
-1.42295e-08
1.14703e-08
9.84497e-09
5.70007e-09
-1.50659e-08
1.21866e-08
-4.53603e-09
-1.49345e-09
-5.49494e-10
-1.67965e-08
-1.71395e-09
4.47317e-09
-1.70663e-08
5.49224e-09
-1.65887e-08
-1.27365e-08
-2.30902e-09
-1.31102e-08
1.02846e-08
5.13462e-09
-8.86289e-09
5.34615e-09
1.20772e-09
-9.36208e-10
-1.41061e-08
1.93215e-09
8.1323e-10
-1.06123e-08
-2.58637e-09
7.05616e-09
2.19746e-09
5.45983e-09
-8.3223e-09
2.7608e-10
3.77737e-09
6.37497e-09
-3.0962e-09
-7.53056e-09
-2.79822e-09
-8.21695e-09
6.1462e-09
-2.29434e-08
1.36392e-08
1.48339e-10
9.15585e-09
-2.73587e-11
-8.12971e-09
-1.47864e-08
5.14338e-09
2.3229e-08
-1.78288e-08
-1.05436e-08
2.52034e-08
-1.41581e-08
-5.90196e-09
-2.32714e-09
7.76278e-09
1.77933e-08
1.68301e-08
6.04614e-09
-2.06851e-08
1.8374e-08
1.59501e-08
2.4947e-08
-8.05689e-09
-1.69176e-08
4.57178e-09
-3.09746e-10
2.51095e-08
-1.07193e-08
-2.25201e-08
1.06362e-08
1.46217e-08
-1.74828e-08
-7.71903e-09
1.10437e-08
6.0816e-09
-6.08646e-09
2.15095e-08
2.33767e-09
-5.47318e-09
-1.2723e-08
6.37424e-10
1.66573e-08
5.63954e-09
4.71379e-09
-2.78361e-08
-2.29086e-08
-1.93779e-08
-4.26508e-09
1.17565e-08
1.18865e-08
2.04739e-08
-2.3817e-08
-1.1627e-08
-4.65169e-09
-7.65056e-09
5.52419e-09
6.77806e-09
2.81768e-09
3.58288e-09
4.49888e-09
-1.08995e-08
5.41756e-09
5.5877e-09
-8.1876e-09
-3.11472e-09
-1.59865e-09
1.07107e-08
-5.99743e-09
-3.12754e-09
-1.14021e-09
6.84446e-09
-2.18303e-09
7.56112e-10
1.65278e-09
-2.72159e-09
3.90351e-09
7.12699e-09
-6.53165e-09
1.00927e-08
-6.01489e-10
4.55169e-09
9.62615e-09
-7.05087e-09
-1.79174e-09
7.99623e-09
-8.25574e-10
6.54114e-09
3.91057e-09
-3.25031e-09
8.49608e-09
6.01675e-09
3.38754e-09
1.88153e-09
-3.49494e-09
-1.77415e-09
2.79351e-09
4.60895e-10
1.33138e-10
2.72e-09
-3.06299e-09
-3.68243e-09
-1.98945e-09
6.44562e-11
2.87216e-09
7.47127e-10
-3.24158e-09
-3.77745e-10
9.76965e-10
-9.42736e-11
-2.89637e-09
-3.78753e-11
5.10303e-10
-3.2581e-09
4.05306e-09
-3.75322e-10
5.28684e-10
-3.94209e-09
-6.31756e-10
-6.59723e-09
-6.18891e-10
9.09894e-09
-1.88282e-09
-2.32065e-09
7.69151e-09
-1.19681e-08