/*--------------------------------*- C++ -*----------------------------------*\
| =========                 |                                                 |
| \\      /  F ield         | OpenFOAM: The Open Source CFD Toolbox           |
|  \\    /   O peration     | Version:  v1612+                                |
|   \\  /    A nd           | Web:      www.OpenFOAM.com                      |
|    \\/     M anipulation  |                                                 |
\*---------------------------------------------------------------------------*/
FoamFile
{
    version     2.0;
    format      ascii;
    class       volVectorField;
    location    "150";
    object      U;
}
// * * * * * * * * * * * * * * * * * * * * * * * * * * * * * * * * * * * * * //

dimensions      [0 1 -1 0 0 0 0];

internalField   nonuniform List<vector> 
18834
(
(-0.548569 -0.166909 -0.155244)
(-0.827673 -0.235777 -0.385518)
(-0.834643 -0.0451859 -0.468146)
(-0.845113 -0.0537481 -0.479657)
(-0.847836 -0.0597773 -0.48273)
(-0.838486 -0.0583088 -0.479857)
(-0.751613 -0.0292746 -0.426099)
(-0.70625 -0.0406151 -0.390412)
(-0.697578 -0.0275277 -0.392219)
(-0.844078 -0.0713028 -0.468043)
(-0.842697 -0.0817156 -0.473225)
(-0.712993 -0.0520085 -0.384319)
(-0.737252 -0.0583902 -0.397706)
(-0.817545 -0.0497865 -0.461447)
(-0.712036 -0.0225818 -0.40119)
(-0.778197 -0.0749339 -0.431002)
(-0.835856 -0.077493 -0.47521)
(-0.74906 -0.0343397 -0.428363)
(-0.738332 -0.0405364 -0.423297)
(-0.644905 -0.0917249 -0.343773)
(-0.673054 -0.097127 -0.374839)
(-0.643378 -0.0755371 -0.342845)
(-0.676742 -0.0877201 -0.376197)
(-0.621935 -0.0850661 -0.321075)
(-0.704465 -0.091224 -0.389793)
(-0.683918 -0.0824599 -0.367144)
(-0.650142 -0.0998822 -0.356675)
(-0.642018 -0.0877668 -0.347582)
(-0.6327 -0.0847481 -0.330404)
(-0.607607 -0.0871905 -0.317064)
(-0.708486 -0.0899363 -0.399925)
(-0.724955 -0.0931227 -0.405723)
(-0.639592 -0.0972053 -0.346805)
(-0.678621 -0.103144 -0.388142)
(-0.549052 -0.0383583 -0.338343)
(-0.515302 -0.050309 -0.306268)
(-0.475805 -0.0480117 -0.271136)
(-0.42926 -0.0476453 -0.247877)
(-0.446964 -0.0485047 -0.24897)
(-0.469581 -0.0595549 -0.259143)
(-0.43387 -0.0603381 -0.223231)
(-0.429343 -0.0584364 -0.216747)
(-0.441071 -0.0591066 -0.233165)
(-0.451931 -0.059962 -0.240094)
(-0.558394 -0.0765992 -0.333412)
(-0.485698 -0.0687104 -0.27867)
(-0.516752 -0.0732954 -0.281755)
(-0.524543 -0.0740645 -0.289263)
(-0.458275 -0.0639638 -0.250621)
(-0.403086 -0.0558491 -0.197129)
(-0.411481 -0.0532031 -0.207913)
(-0.521523 -0.0692764 -0.299187)
(-0.535494 -0.0730579 -0.314281)
(-0.475834 -0.0678119 -0.276006)
(-0.515649 -0.0720687 -0.291969)
(-0.519982 -0.108675 -0.204098)
(-0.472238 -0.102965 -0.167954)
(-0.454559 -0.113016 -0.154858)
(-0.508325 -0.102798 -0.195669)
(-0.483492 -0.105686 -0.176935)
(-0.458577 -0.106567 -0.152875)
(-0.424152 -0.113458 -0.128673)
(-0.440023 -0.118061 -0.137677)
(-0.559225 -0.123387 -0.223873)
(-0.505293 -0.137663 -0.180944)
(-0.478728 -0.113061 -0.164392)
(-0.462133 -0.122143 -0.151381)
(-0.498068 -0.145399 -0.17352)
(-0.45421 -0.132154 -0.152471)
(-0.489386 -0.134736 -0.16971)
(-0.52139 -0.13892 -0.185858)
(-1.04853 -0.201785 -0.559566)
(-1.04166 -0.206528 -0.551101)
(-1.01416 -0.203156 -0.524193)
(-1.02579 -0.214143 -0.526485)
(-1.04081 -0.186581 -0.551717)
(-1.03232 -0.204416 -0.543417)
(-1.00627 -0.207057 -0.507453)
(-0.949841 -0.205118 -0.456542)
(-1.02168 -0.217824 -0.514405)
(-1.01611 -0.201213 -0.52109)
(-0.962502 -0.213479 -0.464098)
(-0.967027 -0.203698 -0.476464)
(-1.04869 -0.199945 -0.557006)
(-1.03155 -0.201709 -0.542094)
(-1.0266 -0.172787 -0.544983)
(-1.02444 -0.199854 -0.528916)
(-0.986616 -0.212448 -0.487914)
(-1.02691 -0.190574 -0.538461)
(-1.00961 -0.203427 -0.517657)
(-0.991869 -0.215835 -0.486286)
(-0.828306 -0.211022 -0.424073)
(-0.852578 -0.202289 -0.439426)
(-0.922881 -0.197291 -0.490792)
(-0.921522 -0.205872 -0.491436)
(-0.958254 -0.189213 -0.504095)
(-0.802168 -0.206294 -0.404023)
(-0.7541 -0.205806 -0.377854)
(-0.855116 -0.212224 -0.443105)
(-0.741983 -0.208593 -0.383245)
(-0.804577 -0.213866 -0.422073)
(-0.875477 -0.208413 -0.46875)
(-0.803589 -0.209913 -0.410671)
(-0.770385 -0.211807 -0.393759)
(-0.750177 -0.214387 -0.386875)
(-0.761853 -0.207067 -0.399988)
(-0.713468 -0.209424 -0.35803)
(-0.870632 -0.20384 -0.475905)
(-0.822408 -0.208151 -0.436127)
(-0.890315 -0.202845 -0.491376)
(-0.952813 -0.217421 -0.555388)
(-0.964369 -0.218135 -0.550053)
(-0.918204 -0.26663 -0.53458)
(-0.926211 -0.258757 -0.531109)
(-0.937367 -0.206004 -0.526343)
(-0.921443 -0.232103 -0.524382)
(-0.958275 -0.252267 -0.567438)
(-0.950902 -0.262215 -0.567801)
(-0.955415 -0.238027 -0.54134)
(-0.944017 -0.262648 -0.55693)
(-0.892457 -0.286138 -0.5252)
(-0.92944 -0.278917 -0.543084)
(-0.936657 -0.269781 -0.555344)
(-0.916077 -0.28584 -0.525913)
(-0.93843 -0.264953 -0.561057)
(-0.911401 -0.279259 -0.544447)
(-0.925629 -0.295916 -0.53475)
(-0.907188 -0.289615 -0.533727)
(-0.745762 -0.311733 -0.309363)
(-0.781913 -0.321691 -0.314443)
(-0.771241 -0.316428 -0.331535)
(-0.790529 -0.31099 -0.322842)
(-0.744051 -0.317732 -0.304984)
(-0.682633 -0.29868 -0.283395)
(-0.760531 -0.31772 -0.329758)
(-0.724596 -0.310814 -0.308007)
(-0.847248 -0.285772 -0.395287)
(-0.847777 -0.276351 -0.4047)
(-0.762753 -0.306877 -0.311573)
(-0.748531 -0.307733 -0.301073)
(-0.789049 -0.335519 -0.34472)
(-0.746 -0.316641 -0.318859)
(-0.798248 -0.343243 -0.354288)
(-0.849496 -0.321486 -0.399145)
(-0.859982 -0.310104 -0.412537)
(-0.810511 -0.284795 -0.340211)
(-0.807128 -0.292135 -0.343608)
(-0.812723 -0.284482 -0.343682)
(-0.76005 -0.315237 -0.311402)
(-0.802622 -0.336794 -0.353495)
(-0.857372 -0.294592 -0.407062)
(-0.846151 -0.314804 -0.397976)
(-0.446152 -0.0840892 -0.145701)
(-0.465302 -0.0889566 -0.154105)
(-0.412406 -0.0830038 -0.1323)
(-0.459071 -0.0902603 -0.156039)
(-0.524332 -0.100531 -0.179102)
(-0.52604 -0.0965665 -0.192507)
(-0.542675 -0.093339 -0.214648)
(-0.540067 -0.0928479 -0.205458)
(-0.471127 -0.0912664 -0.15829)
(-0.498575 -0.0865791 -0.195633)
(-0.522862 -0.0906887 -0.211528)
(-0.523405 -0.096032 -0.199045)
(-0.446334 -0.0864025 -0.142228)
(-0.434684 -0.0773491 -0.15291)
(-0.447217 -0.0767347 -0.162147)
(-0.396079 -0.0781337 -0.127516)
(-0.444793 -0.0787432 -0.160583)
(-0.449437 -0.0814412 -0.154671)
(-0.424815 -0.0745796 -0.153402)
(-0.391254 -0.0738397 -0.129467)
(-0.986092 -0.119744 -0.565098)
(-0.968988 -0.106818 -0.566302)
(-0.97135 -0.106951 -0.547214)
(-0.940773 -0.086797 -0.542287)
(-0.971204 -0.119571 -0.547459)
(-0.966081 -0.148682 -0.599305)
(-0.972031 -0.14923 -0.591456)
(-0.933673 -0.146453 -0.566574)
(-0.963326 -0.139763 -0.596509)
(-0.900819 -0.151136 -0.573896)
(-0.812005 -0.137322 -0.493834)
(-0.942799 -0.137157 -0.550842)
(-0.819804 -0.129181 -0.465888)
(-0.95024 -0.149734 -0.601438)
(-0.884681 -0.138475 -0.519557)
(-0.877826 -0.126139 -0.541056)
(-0.950364 -0.137122 -0.55813)
(-0.861316 -0.127836 -0.512579)
(-0.803637 -0.125391 -0.470608)
(-0.555365 -0.0943706 -0.305755)
(-0.516684 -0.0872132 -0.270871)
(-0.51778 -0.0782368 -0.265746)
(-0.516927 -0.0785349 -0.268468)
(-0.549946 -0.086314 -0.298225)
(-0.522333 -0.0847904 -0.269558)
(-0.551954 -0.0831521 -0.288676)
(-0.596199 -0.0977032 -0.342251)
(-0.563465 -0.0940768 -0.313206)
(-0.585446 -0.0834924 -0.323765)
(-0.554611 -0.0816429 -0.292961)
(-0.610743 -0.0922723 -0.341672)
(-0.600538 -0.0910426 -0.330625)
(-0.573378 -0.0962959 -0.318105)
(-0.534934 -0.0790795 -0.262203)
(-0.497704 -0.0798536 -0.243617)
(-0.590017 -0.08535 -0.323297)
(-0.603126 -0.0855177 -0.329994)
(-0.62967 -0.093938 -0.355517)
(-0.55698 -0.081368 -0.292528)
(-0.611287 -0.235395 -0.228265)
(-0.65484 -0.242373 -0.257242)
(-0.606114 -0.234849 -0.223378)
(-0.547958 -0.216712 -0.190912)
(-0.603306 -0.206465 -0.221747)
(-0.617849 -0.229806 -0.235093)
(-0.587985 -0.182102 -0.198842)
(-0.621331 -0.194613 -0.214136)
(-0.574519 -0.190199 -0.183366)
(-0.689347 -0.222141 -0.285273)
(-0.690011 -0.213163 -0.274933)
(-0.702613 -0.223107 -0.297855)
(-0.605057 -0.175659 -0.217373)
(-0.585709 -0.209122 -0.209304)
(-0.552814 -0.208429 -0.188732)
(-0.580968 -0.194922 -0.19277)
(-0.58707 -0.203433 -0.19801)
(-0.554983 -0.202591 -0.179633)
(-0.645247 -0.232964 -0.245742)
(-0.728744 -0.236773 -0.318548)
(-0.662867 -0.184973 -0.257702)
(-0.957735 -0.118357 -0.625728)
(-0.953465 -0.118049 -0.623656)
(-0.919103 -0.125465 -0.603436)
(-0.873967 -0.126877 -0.571367)
(-0.811685 -0.151464 -0.564449)
(-0.794671 -0.151554 -0.552141)
(-0.833908 -0.129341 -0.54662)
(-0.909052 -0.141655 -0.614226)
(-0.943551 -0.131605 -0.62537)
(-0.817094 -0.147362 -0.557612)
(-0.839573 -0.151867 -0.575601)
(-0.836792 -0.164821 -0.579353)
(-0.822713 -0.138401 -0.557437)
(-0.890537 -0.141541 -0.593125)
(-0.789032 -0.141163 -0.539709)
(-0.772128 -0.250428 -0.382733)
(-0.790887 -0.236985 -0.408601)
(-0.792405 -0.21666 -0.393954)
(-0.774461 -0.21668 -0.37913)
(-0.793978 -0.261482 -0.401229)
(-0.792403 -0.250445 -0.392434)
(-0.805126 -0.2078 -0.406768)
(-0.796536 -0.250933 -0.387106)
(-0.742142 -0.275061 -0.344269)
(-0.805897 -0.229892 -0.396064)
(-0.726328 -0.266156 -0.359506)
(-0.689832 -0.269993 -0.331668)
(-0.71487 -0.271653 -0.34528)
(-0.716792 -0.205553 -0.324836)
(-0.6896 -0.22966 -0.302146)
(-0.780191 -0.202191 -0.371173)
(-0.750665 -0.201437 -0.357755)
(-0.716118 -0.262729 -0.297073)
(-0.670388 -0.240367 -0.261617)
(-0.689922 -0.273316 -0.289493)
(-0.648799 -0.260621 -0.257557)
(-0.708285 -0.278815 -0.299047)
(-0.729825 -0.286306 -0.312488)
(-0.739607 -0.167896 -0.327431)
(-0.72904 -0.161138 -0.327224)
(-0.726891 -0.200093 -0.297306)
(-0.716769 -0.198367 -0.291868)
(-0.699923 -0.218565 -0.254221)
(-0.738402 -0.241338 -0.309287)
(-0.769395 -0.250816 -0.343416)
(-0.67317 -0.244918 -0.255829)
(-0.657042 -0.246373 -0.248796)
(-0.764908 -0.256087 -0.333368)
(-0.792794 -0.235751 -0.361885)
(-0.697026 -0.274883 -0.279663)
(-0.785801 -0.187691 -0.364625)
(-0.767204 -0.2105 -0.336154)
(-0.807909 -0.189416 -0.38309)
(-0.778662 -0.185749 -0.352618)
(-0.718621 -0.213654 -0.281191)
(-0.684053 -0.255277 -0.257737)
(-0.790313 -0.253792 -0.362356)
(-0.789513 -0.236336 -0.360026)
(-0.495952 -0.0705549 -0.233812)
(-0.498046 -0.0690312 -0.229261)
(-0.432466 -0.069659 -0.183277)
(-0.412284 -0.0665654 -0.165282)
(-0.483388 -0.0640448 -0.229543)
(-0.442936 -0.0654065 -0.178889)
(-0.446928 -0.066374 -0.191261)
(-0.487123 -0.062535 -0.241652)
(-0.483713 -0.0636473 -0.237398)
(-0.4047 -0.0625325 -0.175294)
(-0.38164 -0.0611511 -0.153205)
(-0.419527 -0.0595008 -0.182876)
(-0.432583 -0.0600574 -0.198642)
(-0.445419 -0.0622123 -0.200641)
(-0.380381 -0.0556392 -0.149572)
(-0.423129 -0.0606606 -0.184123)
(-0.853818 -0.202142 -0.380854)
(-0.860407 -0.19085 -0.388818)
(-0.94381 -0.197596 -0.446914)
(-0.867216 -0.184135 -0.389583)
(-0.822597 -0.189392 -0.360082)
(-0.982285 -0.190279 -0.482543)
(-0.981049 -0.190345 -0.472747)
(-0.868578 -0.193894 -0.394011)
(-0.905194 -0.184458 -0.427801)
(-0.879151 -0.18553 -0.397708)
(-0.86326 -0.190532 -0.411305)
(-0.858674 -0.183255 -0.401504)
(-0.880683 -0.188711 -0.426308)
(-0.909187 -0.188668 -0.448987)
(-0.802866 -0.171696 -0.352089)
(-0.864539 -0.186097 -0.394021)
(-0.558391 -0.0675691 -0.28042)
(-0.524813 -0.0699934 -0.267147)
(-0.570635 -0.0763559 -0.289394)
(-0.523302 -0.0774248 -0.260881)
(-0.649146 -0.0344888 -0.37399)
(-0.65801 -0.0686958 -0.350329)
(-0.557991 -0.0780498 -0.287036)
(-0.521979 -0.0689518 -0.263437)
(-0.595992 -0.0466404 -0.323449)
(-0.598393 -0.0306367 -0.348738)
(-0.676409 -0.0518438 -0.36606)
(-0.659429 -0.0349361 -0.363453)
(-0.628131 -0.0336467 -0.360611)
(-0.580384 -0.031814 -0.351894)
(-0.629952 -0.0362663 -0.35755)
(-0.597937 -0.0353675 -0.364029)
(-0.532986 -0.0504907 -0.291316)
(-0.562355 -0.0624623 -0.294442)
(-0.587631 -0.0412653 -0.338656)
(-0.609392 -0.0539765 -0.334783)
(-0.559293 -0.0546044 -0.303147)
(-0.537442 -0.0605764 -0.279285)
(-0.509551 -0.0683873 -0.263085)
(-0.633237 -0.0672471 -0.335303)
(-0.828052 -0.253641 -0.519542)
(-0.847294 -0.257014 -0.522012)
(-0.769376 -0.261536 -0.471766)
(-0.72712 -0.25209 -0.454948)
(-0.908514 -0.264442 -0.54705)
(-0.919202 -0.243837 -0.56566)
(-0.822988 -0.24456 -0.520601)
(-0.768381 -0.24339 -0.478411)
(-0.828094 -0.238478 -0.529345)
(-0.844017 -0.234737 -0.534552)
(-0.835969 -0.275167 -0.497441)
(-0.796647 -0.27353 -0.487048)
(-0.73882 -0.262494 -0.457792)
(-0.923838 -0.241268 -0.571948)
(-0.920212 -0.245736 -0.566996)
(-0.787388 -0.24268 -0.485835)
(-0.902281 -0.271558 -0.536567)
(-0.838907 -0.279133 -0.502928)
(-0.769629 -0.266981 -0.486166)
(-0.912148 -0.265954 -0.539276)
(-0.706491 -0.191528 -0.276546)
(-0.6889 -0.184973 -0.261964)
(-0.728325 -0.189019 -0.298053)
(-0.74148 -0.192766 -0.302854)
(-0.707812 -0.210859 -0.264006)
(-0.789003 -0.228777 -0.34)
(-0.818062 -0.25193 -0.347133)
(-0.755358 -0.247713 -0.30502)
(-0.704845 -0.219388 -0.257579)
(-0.730343 -0.203938 -0.288384)
(-0.668298 -0.238943 -0.243735)
(-0.658604 -0.230347 -0.237513)
(-0.798908 -0.231707 -0.352599)
(-0.820839 -0.263589 -0.345148)
(-0.73464 -0.253666 -0.274265)
(-0.748848 -0.225951 -0.281889)
(-0.743753 -0.262343 -0.284667)
(-0.720323 -0.250778 -0.265104)
(-0.81894 -0.25435 -0.340677)
(-0.798097 -0.247708 -0.313015)
(-0.661534 -0.0703139 -0.367018)
(-0.600764 -0.0913675 -0.30636)
(-0.589244 -0.10509 -0.30026)
(-0.643108 -0.12818 -0.338096)
(-0.58424 -0.124395 -0.291899)
(-0.566576 -0.09464 -0.321314)
(-0.594156 -0.114385 -0.347515)
(-0.532845 -0.0809512 -0.288626)
(-0.553799 -0.0786312 -0.313617)
(-0.534306 -0.0865438 -0.29619)
(-0.532478 -0.092332 -0.298562)
(-0.588265 -0.102138 -0.343193)
(-0.591558 -0.0971679 -0.346647)
(-0.514735 -0.0826838 -0.284771)
(-0.604814 -0.110009 -0.35182)
(-0.560001 -0.0925624 -0.324131)
(-0.665055 -0.103433 -0.400024)
(-0.647716 -0.102306 -0.386155)
(-0.564262 -0.0926992 -0.319249)
(-0.616401 -0.0864943 -0.35625)
(-0.612077 -0.0808231 -0.352014)
(-0.57051 -0.0806215 -0.3217)
(-0.853326 -0.229677 -0.425702)
(-0.879015 -0.247202 -0.435519)
(-0.870387 -0.271495 -0.409769)
(-0.852145 -0.230591 -0.405399)
(-0.85209 -0.266868 -0.393005)
(-0.854165 -0.273643 -0.394178)
(-0.885536 -0.299021 -0.432248)
(-0.882151 -0.297561 -0.433087)
(-0.87375 -0.241874 -0.432307)
(-0.883824 -0.270628 -0.429177)
(-0.86531 -0.232242 -0.434911)
(-0.858189 -0.225132 -0.427905)
(-0.792938 -0.218885 -0.386627)
(-0.887041 -0.211018 -0.467222)
(-0.912059 -0.208535 -0.488757)
(-0.751694 -0.205635 -0.383277)
(-0.698493 -0.203711 -0.344102)
(-0.834778 -0.216568 -0.423227)
(-0.836067 -0.211801 -0.430829)
(-0.839302 -0.205206 -0.440744)
(-0.882044 -0.214197 -0.472406)
(-0.76809 -0.202913 -0.403403)
(-0.728391 -0.20441 -0.361615)
(-1.00309 -0.165581 -0.533215)
(-1.00953 -0.182913 -0.527173)
(-1.02302 -0.173626 -0.547014)
(-0.993022 -0.157267 -0.529395)
(-1.01165 -0.196565 -0.519633)
(-1.00111 -0.185499 -0.526081)
(-1.02517 -0.179154 -0.549485)
(-0.984453 -0.146908 -0.523792)
(-1.00994 -0.165048 -0.528068)
(-1.03171 -0.18354 -0.532013)
(-1.02946 -0.189389 -0.529504)
(-0.988306 -0.198473 -0.486334)
(-1.01943 -0.196494 -0.509451)
(-0.997586 -0.20821 -0.492767)
(-1.01671 -0.194103 -0.517834)
(-1.00365 -0.173608 -0.525552)
(-1.01155 -0.205376 -0.495243)
(-0.999722 -0.202237 -0.492139)
(-1.00826 -0.187265 -0.522841)
(-1.00309 -0.202736 -0.494931)
(-0.557721 -0.182449 -0.186543)
(-0.550103 -0.167081 -0.187812)
(-0.579158 -0.1721 -0.204684)
(-0.574393 -0.165421 -0.206755)
(-0.50471 -0.168027 -0.16222)
(-0.613274 -0.159364 -0.224283)
(-0.641 -0.154374 -0.256989)
(-0.62028 -0.144367 -0.248982)
(-0.53038 -0.157193 -0.16602)
(-0.517206 -0.142938 -0.161856)
(-0.57129 -0.166739 -0.194025)
(-0.56616 -0.150695 -0.194024)
(-0.606443 -0.143632 -0.232676)
(-0.503498 -0.13666 -0.171382)
(-0.480939 -0.147037 -0.153411)
(-0.511143 -0.129937 -0.173505)
(-0.514383 -0.132565 -0.175408)
(-0.514549 -0.152503 -0.167528)
(-0.517997 -0.154261 -0.159533)
(-0.598683 -0.130879 -0.233543)
(-0.578293 -0.128797 -0.211678)
(-0.553836 -0.0666906 -0.344709)
(-0.522021 -0.0619186 -0.306526)
(-0.568378 -0.0676337 -0.361774)
(-0.512468 -0.06716 -0.311361)
(-0.497413 -0.0638549 -0.280779)
(-0.575261 -0.0711387 -0.363503)
(-0.573807 -0.0753541 -0.358403)
(-0.446751 -0.0569094 -0.226094)
(-0.415162 -0.0582535 -0.21684)
(-0.451258 -0.0597573 -0.251349)
(-0.415199 -0.0528496 -0.211274)
(-0.442061 -0.0600175 -0.242244)
(-0.45135 -0.0630026 -0.242045)
(-0.593549 -0.0799905 -0.381849)
(-0.572294 -0.0783725 -0.35176)
(-0.44778 -0.0541164 -0.241361)
(-0.454841 -0.0554717 -0.252269)
(-0.476552 -0.0664706 -0.27159)
(-0.563804 -0.0732849 -0.349422)
(-0.471213 -0.0614558 -0.279567)
(-0.481921 -0.0633658 -0.275449)
(-0.54016 -0.0957247 -0.230347)
(-0.60302 -0.108417 -0.262547)
(-0.544158 -0.0866301 -0.240501)
(-0.603231 -0.10047 -0.266016)
(-0.601263 -0.120627 -0.25508)
(-0.615048 -0.0822911 -0.2931)
(-0.596617 -0.0804901 -0.276963)
(-0.560704 -0.0894929 -0.245919)
(-0.633424 -0.12394 -0.277758)
(-0.626193 -0.0926155 -0.29039)
(-0.645997 -0.0984627 -0.29715)
(-0.603426 -0.111269 -0.256537)
(-0.543362 -0.0925278 -0.230205)
(-0.809114 -0.0423737 -0.448963)
(-0.75801 -0.0286075 -0.423201)
(-0.753792 -0.0292441 -0.419642)
(-0.761077 -0.027609 -0.418331)
(-0.775126 -0.0498057 -0.426436)
(-0.789089 -0.0372168 -0.438097)
(-0.733562 -0.0293509 -0.402849)
(-0.771624 -0.0461027 -0.425048)
(-0.790284 -0.0449937 -0.439414)
(-0.714452 -0.0334409 -0.398584)
(-0.724214 -0.0404352 -0.398974)
(-0.696296 -0.0452697 -0.385602)
(-0.736489 -0.0564003 -0.403074)
(-0.769778 -0.0461648 -0.428203)
(-0.715849 -0.0371007 -0.403168)
(-0.722455 -0.0428778 -0.390554)
(-0.730288 -0.0496025 -0.399732)
(-0.709194 -0.0368422 -0.393041)
(-0.523751 -0.147787 -0.165236)
(-0.531523 -0.137727 -0.175167)
(-0.578615 -0.142694 -0.203029)
(-0.563371 -0.158634 -0.182698)
(-0.488216 -0.156311 -0.13928)
(-0.560189 -0.177904 -0.184248)
(-0.542754 -0.147056 -0.174578)
(-0.525867 -0.178518 -0.160806)
(-0.505227 -0.166556 -0.155392)
(-0.462348 -0.111598 -0.171484)
(-0.419623 -0.107619 -0.150068)
(-0.442914 -0.0996135 -0.168486)
(-0.413015 -0.102712 -0.147547)
(-0.468773 -0.101979 -0.180647)
(-0.525176 -0.103954 -0.21865)
(-0.454348 -0.114564 -0.162263)
(-0.48978 -0.112326 -0.180102)
(-0.510951 -0.0936207 -0.211476)
(-0.507541 -0.0920034 -0.218196)
(-0.455279 -0.0909409 -0.178816)
(-0.445996 -0.0957581 -0.169015)
(-0.507642 -0.0914102 -0.216576)
(-0.474154 -0.106119 -0.176463)
(-0.460095 -0.097525 -0.178168)
(-0.927172 -0.0623135 -0.567619)
(-0.924363 -0.0717967 -0.579616)
(-0.942687 -0.0957943 -0.597535)
(-0.952321 -0.0865612 -0.577062)
(-0.94213 -0.0877662 -0.581015)
(-0.95916 -0.102179 -0.604934)
(-0.802564 -0.199195 -0.461566)
(-0.799196 -0.210702 -0.463097)
(-0.828059 -0.155626 -0.46741)
(-0.818596 -0.180685 -0.465147)
(-0.789334 -0.219415 -0.445656)
(-0.727653 -0.226363 -0.388558)
(-0.724093 -0.212953 -0.35553)
(-0.703413 -0.215481 -0.34987)
(-0.74063 -0.214671 -0.397069)
(-0.744957 -0.112592 -0.394289)
(-0.737577 -0.12961 -0.378501)
(-0.753257 -0.220844 -0.407552)
(-0.785602 -0.165237 -0.420701)
(-0.773465 -0.128113 -0.414453)
(-0.760638 -0.124181 -0.396779)
(-0.762218 -0.194131 -0.400208)
(-0.70284 -0.154528 -0.344597)
(-0.704758 -0.185831 -0.337315)
(-0.734893 -0.190218 -0.367961)
(-0.772164 -0.189836 -0.403872)
(-0.826986 -0.159367 -0.446267)
(-0.730774 -0.198894 -0.372695)
(-0.457312 -0.0839985 -0.180142)
(-0.445589 -0.0818048 -0.169709)
(-0.432133 -0.0830665 -0.163714)
(-0.404744 -0.0820332 -0.141365)
(-0.457109 -0.0850277 -0.169291)
(-0.530873 -0.0910824 -0.224788)
(-0.535713 -0.0790336 -0.234916)
(-0.518984 -0.0810051 -0.225188)
(-0.44084 -0.0995793 -0.150853)
(-0.408723 -0.0974912 -0.138572)
(-0.458729 -0.0881235 -0.179772)
(-0.534095 -0.0848198 -0.241149)
(-0.516575 -0.080439 -0.224601)
(-0.434542 -0.0931041 -0.162447)
(-0.43378 -0.100802 -0.153629)
(-0.470126 -0.107048 -0.171564)
(-0.994506 -0.110396 -0.607163)
(-0.929359 -0.129781 -0.535734)
(-0.90547 -0.12435 -0.517555)
(-0.960794 -0.100864 -0.573424)
(-0.951358 -0.0857745 -0.540437)
(-0.973823 -0.117463 -0.58771)
(-0.964372 -0.123464 -0.546331)
(-0.951791 -0.0998705 -0.569106)
(-0.937397 -0.0696237 -0.538011)
(-0.971927 -0.116396 -0.565429)
(-0.953427 -0.13047 -0.541448)
(-0.957466 -0.120903 -0.557405)
(-1.00147 -0.126586 -0.562874)
(-0.936627 -0.0821618 -0.544954)
(-0.962663 -0.110698 -0.535132)
(-0.963354 -0.101359 -0.543943)
(-0.931928 -0.0789777 -0.52881)
(-0.911076 -0.0734783 -0.520359)
(-0.960082 -0.103299 -0.543331)
(-0.981601 -0.116568 -0.549949)
(-0.703986 -0.193508 -0.301309)
(-0.684123 -0.213145 -0.294341)
(-0.65033 -0.237907 -0.272048)
(-0.604868 -0.235033 -0.239952)
(-0.553287 -0.217933 -0.209358)
(-0.589192 -0.210468 -0.219161)
(-0.53185 -0.207438 -0.189869)
(-0.576862 -0.208707 -0.211088)
(-0.615758 -0.212242 -0.225798)
(-0.674792 -0.199257 -0.273855)
(-0.642324 -0.227029 -0.250974)
(-0.628447 -0.0757593 -0.348448)
(-0.525427 -0.0767804 -0.243803)
(-0.548173 -0.0753879 -0.274721)
(-0.581827 -0.08007 -0.300914)
(-0.614395 -0.0735609 -0.340324)
(-0.527324 -0.0712341 -0.257011)
(-0.503502 -0.0740915 -0.227909)
(-0.516546 -0.0782629 -0.238006)
(-0.511201 -0.0723785 -0.235602)
(-0.514313 -0.0677589 -0.249904)
(-0.529917 -0.0727446 -0.271116)
(-0.605508 -0.08271 -0.309312)
(-0.578428 -0.0853902 -0.286544)
(-0.551282 -0.0805242 -0.283591)
(-0.588948 -0.0852509 -0.319977)
(-0.515426 -0.0765745 -0.228097)
(-0.495919 -0.0739941 -0.21879)
(-0.547911 -0.0801099 -0.2548)
(-0.528059 -0.075367 -0.228188)
(-0.616395 -0.0719903 -0.32627)
(-0.530456 -0.07466 -0.249886)
(-0.559741 -0.0798772 -0.287305)
(-0.867085 -0.216151 -0.386679)
(-0.783819 -0.202529 -0.336707)
(-0.776157 -0.207453 -0.331002)
(-0.820364 -0.212434 -0.353823)
(-0.90791 -0.227446 -0.43329)
(-0.946116 -0.224406 -0.446487)
(-0.928183 -0.224465 -0.437008)
(-0.931301 -0.223941 -0.433759)
(-0.862218 -0.222276 -0.378989)
(-0.823458 -0.218964 -0.365489)
(-0.799681 -0.220964 -0.343986)
(-0.781149 -0.211527 -0.33439)
(-0.771678 -0.206138 -0.32888)
(-0.720614 -0.194834 -0.299476)
(-0.775664 -0.215738 -0.331523)
(-0.723328 -0.200429 -0.304168)
(-0.90692 -0.228655 -0.427088)
(-0.909713 -0.229791 -0.429183)
(-0.7935 -0.216186 -0.350286)
(-0.902946 -0.229223 -0.419932)
(-0.621894 -0.135523 -0.239655)
(-0.615241 -0.144323 -0.229745)
(-0.654424 -0.132601 -0.27476)
(-0.62225 -0.113469 -0.289152)
(-0.565767 -0.122248 -0.216854)
(-0.555608 -0.122975 -0.212094)
(-0.647704 -0.136631 -0.281933)
(-0.642668 -0.128912 -0.287045)
(-0.57919 -0.127293 -0.225507)
(-0.540009 -0.116246 -0.220325)
(-0.566807 -0.118833 -0.232789)
(-0.543105 -0.106982 -0.239056)
(-0.621255 -0.139515 -0.250784)
(-0.613417 -0.13787 -0.244814)
(-0.551517 -0.129696 -0.209594)
(-0.479667 -0.10089 -0.246322)
(-0.484831 -0.101637 -0.264062)
(-0.461111 -0.101956 -0.241725)
(-0.467137 -0.104815 -0.244287)
(-0.488043 -0.111785 -0.27031)
(-0.533138 -0.103459 -0.292107)
(-0.571169 -0.111737 -0.320087)
(-0.584897 -0.110078 -0.326389)
(-0.610792 -0.117299 -0.351011)
(-0.601077 -0.11626 -0.339299)
(-0.621809 -0.127982 -0.358147)
(-0.498803 -0.106662 -0.264083)
(-0.576233 -0.115815 -0.332428)
(-0.5476 -0.12039 -0.310145)
(-0.522819 -0.104147 -0.295861)
(-0.511717 -0.107937 -0.284383)
(-0.524265 -0.107854 -0.295304)
(-0.538431 -0.113523 -0.305987)
(-0.474085 -0.107081 -0.163672)
(-0.461424 -0.101333 -0.164381)
(-0.463249 -0.107039 -0.148044)
(-0.437081 -0.0998326 -0.153728)
(-0.546318 -0.107429 -0.205705)
(-0.479253 -0.110236 -0.163566)
(-0.534512 -0.127663 -0.170823)
(-0.480598 -0.114763 -0.154043)
(-0.498616 -0.120691 -0.160804)
(-0.442745 -0.111226 -0.143446)
(-0.487357 -0.14044 -0.140456)
(-0.597506 -0.141888 -0.209424)
(-0.606672 -0.134872 -0.224507)
(-0.473349 -0.113922 -0.15064)
(-0.514001 -0.135845 -0.163713)
(-0.512766 -0.126868 -0.163413)
(-0.616815 -0.152813 -0.211241)
(-0.574787 -0.164011 -0.181849)
(-0.604878 -0.134166 -0.215413)
(-0.588153 -0.135835 -0.194515)
(-0.537037 -0.127891 -0.182998)
(-0.513023 -0.0847237 -0.241621)
(-0.546454 -0.0956237 -0.255679)
(-0.535424 -0.0961784 -0.249482)
(-0.504717 -0.0763348 -0.247182)
(-0.553166 -0.0710537 -0.277001)
(-0.525458 -0.0814325 -0.25663)
(-0.572472 -0.0662353 -0.298132)
(-0.551444 -0.0711648 -0.272185)
(-0.598977 -0.0931164 -0.28452)
(-0.549897 -0.0713354 -0.283186)
(-0.590823 -0.106402 -0.275734)
(-0.553262 -0.0999513 -0.250808)
(-0.545229 -0.102701 -0.243835)
(-0.592354 -0.0925104 -0.273708)
(-0.621724 -0.068176 -0.315963)
(-0.597878 -0.0785317 -0.294187)
(-0.531147 -0.0856456 -0.250137)
(-0.600796 -0.0893249 -0.282361)
(-0.636376 -0.0722208 -0.319885)
(-0.414496 -0.0583795 -0.188796)
(-0.411656 -0.0585924 -0.190236)
(-0.401539 -0.0601697 -0.173937)
(-0.427279 -0.0582119 -0.202765)
(-0.397825 -0.0553811 -0.175815)
(-0.441212 -0.0613403 -0.224379)
(-0.428094 -0.0626612 -0.197845)
(-0.423463 -0.0592901 -0.202692)
(-0.502285 -0.0587219 -0.280234)
(-0.477924 -0.0625679 -0.247605)
(-0.446475 -0.0611296 -0.221324)
(-0.518087 -0.0617364 -0.28092)
(-0.507624 -0.0618477 -0.285048)
(-0.493275 -0.0601713 -0.260189)
(-0.49616 -0.0621145 -0.25347)
(-0.923773 -0.28534 -0.487376)
(-0.905029 -0.280646 -0.488719)
(-0.867451 -0.246221 -0.421251)
(-0.894432 -0.264658 -0.457242)
(-0.868766 -0.321627 -0.446827)
(-0.813892 -0.329793 -0.414169)
(-0.85732 -0.314381 -0.43365)
(-0.875648 -0.310803 -0.414247)
(-0.898728 -0.30601 -0.482318)
(-0.88996 -0.279142 -0.460454)
(-0.830068 -0.335011 -0.405319)
(-0.848082 -0.334533 -0.433798)
(-0.471484 -0.0835718 -0.175188)
(-0.476961 -0.0774638 -0.185172)
(-0.469525 -0.0842513 -0.168352)
(-0.470249 -0.0899232 -0.16445)
(-0.537296 -0.0717491 -0.235228)
(-0.57633 -0.0793526 -0.259923)
(-0.551072 -0.0777445 -0.236952)
(-0.587868 -0.0818091 -0.269651)
(-0.583868 -0.0733063 -0.284174)
(-0.590292 -0.076307 -0.279153)
(-0.505731 -0.0793531 -0.199819)
(-0.522557 -0.0800523 -0.211004)
(-0.528915 -0.0776003 -0.232924)
(-0.474672 -0.0842659 -0.171083)
(-0.509337 -0.0889453 -0.194634)
(-0.542905 -0.0930158 -0.21743)
(-0.899483 -0.193194 -0.487597)
(-0.899195 -0.190925 -0.483661)
(-0.95869 -0.173489 -0.512341)
(-0.831998 -0.209659 -0.443882)
(-0.817003 -0.206062 -0.433393)
(-0.950365 -0.155485 -0.521275)
(-0.957526 -0.163519 -0.518867)
(-0.962319 -0.156496 -0.521894)
(-0.956278 -0.150218 -0.512039)
(-0.957793 -0.159199 -0.525576)
(-0.927117 -0.185772 -0.514546)
(-0.849386 -0.204879 -0.445213)
(-0.880421 -0.200452 -0.450787)
(-0.909004 -0.198178 -0.471143)
(-0.957148 -0.164766 -0.513415)
(-0.88989 -0.196268 -0.464167)
(-0.810618 -0.193539 -0.419417)
(-0.821424 -0.207004 -0.436806)
(-0.795122 -0.2047 -0.417157)
(-0.833704 -0.204941 -0.439603)
(-0.806472 -0.203125 -0.429313)
(-0.935422 -0.17421 -0.508881)
(-0.8455 -0.20547 -0.453182)
(-0.900986 -0.194249 -0.496122)
(-0.908119 -0.129078 -0.585305)
(-0.838725 -0.138227 -0.545926)
(-0.789095 -0.148427 -0.53116)
(-0.928215 -0.160205 -0.612672)
(-0.914973 -0.145478 -0.614998)
(-0.839825 -0.160802 -0.574792)
(-0.790013 -0.160155 -0.535566)
(-0.808853 -0.169685 -0.558986)
(-0.852009 -0.17154 -0.584899)
(-0.926216 -0.125373 -0.600393)
(-0.782777 -0.139937 -0.515438)
(-0.945153 -0.143166 -0.61448)
(-0.937481 -0.141109 -0.621519)
(-0.821003 -0.160129 -0.557766)
(-0.925772 -0.139041 -0.60128)
(-0.832685 -0.143848 -0.547358)
(-0.924485 -0.144152 -0.602876)
(-0.964418 -0.150181 -0.507005)
(-0.961568 -0.158503 -0.507101)
(-0.938862 -0.130932 -0.494691)
(-0.947071 -0.149599 -0.508278)
(-0.925118 -0.190071 -0.47033)
(-0.900643 -0.154506 -0.46409)
(-0.898389 -0.189027 -0.467421)
(-0.985441 -0.171784 -0.516245)
(-0.996337 -0.153219 -0.527358)
(-0.953325 -0.187655 -0.488283)
(-0.944568 -0.182923 -0.474412)
(-0.980076 -0.168932 -0.514653)
(-0.971171 -0.167279 -0.515702)
(-0.963402 -0.143213 -0.51383)
(-0.957917 -0.174724 -0.491577)
(-0.922491 -0.198374 -0.467312)
(-0.895189 -0.191842 -0.440514)
(-0.932037 -0.186098 -0.469872)
(-0.977959 -0.169928 -0.513559)
(-0.969829 -0.14444 -0.509318)
(-1.01565 -0.143622 -0.539793)
(-0.928517 -0.166854 -0.5413)
(-0.907631 -0.164014 -0.510882)
(-0.838679 -0.0982603 -0.448394)
(-0.85737 -0.100777 -0.46844)
(-0.910904 -0.190637 -0.5076)
(-0.916886 -0.19026 -0.522631)
(-0.846634 -0.104699 -0.459929)
(-0.867237 -0.121097 -0.461885)
(-0.847013 -0.100603 -0.457082)
(-0.920884 -0.175017 -0.532129)
(-0.87337 -0.126631 -0.465727)
(-0.884854 -0.173168 -0.48456)
(-0.876945 -0.148126 -0.474887)
(-0.874906 -0.13955 -0.468888)
(-0.859472 -0.163068 -0.459941)
(-0.899266 -0.203167 -0.504333)
(-0.85709 -0.1039 -0.464607)
(-0.909038 -0.172941 -0.521122)
(-0.919859 -0.161244 -0.527865)
(-0.82398 -0.294964 -0.476031)
(-0.757087 -0.293296 -0.429043)
(-0.816711 -0.287343 -0.476927)
(-0.755763 -0.292509 -0.427117)
(-0.795575 -0.281843 -0.480574)
(-0.764978 -0.283026 -0.457023)
(-0.865562 -0.286836 -0.509482)
(-0.84442 -0.283444 -0.491146)
(-0.781175 -0.287108 -0.458328)
(-0.88629 -0.0850419 -0.496303)
(-0.905179 -0.102447 -0.522477)
(-0.79888 -0.0568873 -0.439144)
(-0.819986 -0.0886507 -0.442489)
(-0.788023 -0.0577784 -0.427997)
(-0.814563 -0.0694935 -0.437707)
(-0.930467 -0.125613 -0.541596)
(-0.923228 -0.130185 -0.546339)
(-0.956815 -0.162804 -0.568569)
(-0.84822 -0.0642329 -0.471563)
(-0.871348 -0.0759835 -0.488893)
(-0.856555 -0.0901985 -0.467579)
(-0.849494 -0.10718 -0.464759)
(-0.926962 -0.136001 -0.530216)
(-0.902306 -0.155887 -0.538157)
(-0.872709 -0.0988948 -0.482843)
(-0.825708 -0.0731303 -0.457257)
(-0.922768 -0.17329 -0.53519)
(-0.897404 -0.139113 -0.521928)
(-0.902219 -0.138354 -0.523735)
(-0.47393 -0.0708494 -0.207533)
(-0.528261 -0.0627052 -0.269172)
(-0.558445 -0.0639651 -0.298251)
(-0.521492 -0.0741813 -0.235481)
(-0.52754 -0.0765124 -0.233006)
(-0.542898 -0.0663958 -0.279529)
(-0.506066 -0.0708913 -0.244567)
(-0.541475 -0.0643569 -0.268759)
(-0.575067 -0.0629779 -0.308814)
(-0.570535 -0.0680861 -0.275264)
(-0.532367 -0.0770286 -0.233837)
(-0.559774 -0.0701863 -0.26834)
(-0.554449 -0.0692178 -0.285157)
(-0.567623 -0.0714437 -0.301585)
(-0.365259 -0.0823435 -0.18643)
(-0.377123 -0.0842041 -0.194103)
(-0.376354 -0.0848576 -0.184244)
(-0.344094 -0.0822536 -0.173905)
(-0.376346 -0.0848705 -0.188267)