/*--------------------------------*- C++ -*----------------------------------*\
| =========                 |                                                 |
| \\      /  F ield         | OpenFOAM: The Open Source CFD Toolbox           |
|  \\    /   O peration     | Version:  v1612+                                |
|   \\  /    A nd           | Web:      www.OpenFOAM.com                      |
|    \\/     M anipulation  |                                                 |
\*---------------------------------------------------------------------------*/
FoamFile
{
    version     2.0;
    format      ascii;
    class       surfaceScalarField;
    location    "118";
    object      phi;
}
// * * * * * * * * * * * * * * * * * * * * * * * * * * * * * * * * * * * * * //

dimensions      [0 3 -1 0 0 0 0];

internalField   nonuniform List<scalar> 
45529
(
4.69356e-09
-4.99167e-09
3.48296e-09
-3.18484e-09
-2.28052e-09
3.02983e-09
4.32256e-09
-5.0719e-09
3.85787e-09
-5.24381e-09
-3.90923e-09
5.2952e-09
5.12715e-09
-5.63156e-09
5.45112e-11
4.49921e-10
-1.30837e-08
6.19434e-09
6.73977e-09
1.4963e-10
-5.93888e-09
4.36909e-09
2.01914e-09
-4.49391e-10
6.88543e-09
-2.13018e-09
-5.03439e-09
2.79116e-10
-2.0307e-09
-1.51818e-08
1.00506e-08
7.16187e-09
5.30426e-09
-5.65833e-09
6.09799e-10
-2.55699e-10
-4.94574e-09
6.44119e-09
-1.37884e-08
1.22929e-08
3.46784e-09
-6.47721e-09
6.96129e-09
-3.95195e-09
8.55729e-09
-1.26893e-08
6.32489e-09
-2.19297e-09
9.65867e-09
7.1024e-09
-6.57281e-09
-1.01883e-08
-4.54943e-09
6.13178e-09
7.44802e-09
-9.03033e-09
1.65612e-09
-1.29611e-10
4.57348e-10
-1.98408e-09
-1.86369e-09
1.26795e-09
8.93316e-10
-2.97508e-10
-1.60629e-09
-3.27592e-09
4.55055e-09
3.31655e-10
5.98853e-09
-2.79289e-09
-2.43664e-09
-7.58991e-10
-6.1801e-09
-4.8932e-09
1.05996e-08
4.73719e-10
1.06803e-08
-8.29565e-09
-8.56476e-09
2.58022e-09
7.23061e-09
-8.67829e-09
-1.13256e-09
-5.04847e-09
2.68513e-09
2.02026e-09
3.43038e-10
-3.45308e-09
2.60118e-09
-5.087e-09
7.94609e-09
-2.56763e-09
2.1309e-09
-7.50933e-09
3.18077e-09
4.45728e-09
-1.51288e-08
7.49079e-09
1.04421e-08
-1.33992e-09
-8.71125e-09
-3.90871e-10
2.08516e-09
-6.72465e-09
4.68503e-09
-4.55456e-11
4.29314e-09
-6.15479e-09
6.53455e-09
-4.67293e-09
-7.82691e-10
2.93863e-09
-2.48092e-09
3.24964e-10
1.45514e-08
-7.68236e-09
-9.76709e-09
2.89801e-09
-7.66862e-09
1.39037e-08
8.31637e-09
7.29734e-09
-2.53925e-09
-1.99458e-09
-2.76349e-09
4.25407e-09
1.55181e-09
-2.13134e-09
-3.67454e-09
-1.25888e-08
1.16186e-08
-1.04187e-08
1.13889e-08
6.05071e-09
1.34612e-09
-9.93363e-10
-6.40342e-09
-1.09308e-09
6.38577e-09
-3.04968e-09
-2.24297e-09
6.90536e-09
-1.90624e-10
2.43711e-09
-9.15177e-09
-3.41247e-09
-2.48906e-10
-4.02454e-09
7.68593e-09
-4.76615e-09
5.90785e-09
7.35721e-09
-8.4989e-09
-3.86801e-09
4.89676e-09
-2.18128e-09
1.15255e-09
-4.30318e-09
-4.42851e-09
4.86371e-09
-8.47649e-10
-9.52965e-09
4.59974e-09
5.77758e-09
-3.087e-09
3.4927e-09
-4.05022e-09
3.64452e-09
-1.30938e-08
4.97107e-09
5.4738e-09
2.64899e-09
-2.19647e-09
-1.94101e-09
4.24857e-09
-1.11153e-10
-1.20859e-08
-2.07707e-09
8.23224e-09
5.93079e-09
4.50637e-09
-2.50187e-09
2.27899e-09
-4.2835e-09
-2.62351e-09
3.57476e-09
7.557e-09
-8.50821e-09
-2.34254e-09
-3.49923e-10
2.28908e-09
4.03385e-10
-2.4431e-09
-7.05216e-09
7.81344e-09
1.68186e-09
2.6663e-09
-3.12133e-09
3.61802e-10
9.33132e-11
4.34076e-09
2.96112e-09
-5.20214e-09
-2.09968e-09
6.48558e-09
4.04059e-09
-1.87617e-09
-8.65001e-09
1.55826e-09
-8.49182e-10
7.89278e-10
-1.49849e-09
-5.09375e-09
5.06934e-09
4.12932e-09
-4.10487e-09
7.66073e-10
2.08345e-09
-1.9478e-09
-9.01791e-10
-4.52655e-09
1.12527e-09
5.706e-09
-2.30469e-09
-2.31811e-10
2.56272e-09
-2.94711e-09
6.16217e-10
-4.91812e-09
-7.18957e-09
1.16536e-08
4.54098e-10
-1.03895e-08
5.06259e-09
8.50766e-09
3.80262e-09
-3.78283e-09
1.23406e-09
-1.25339e-09
-2.38345e-10
-5.09937e-09
4.89981e-09
4.37922e-10
9.99593e-09
-6.30111e-10
-1.64971e-08
7.13129e-09
-2.49262e-09
1.28475e-08
-7.12559e-09
-3.22926e-09
-3.46923e-09
2.85244e-09
1.4964e-09
-8.79492e-10
-4.08101e-10
-1.66175e-09
-7.34479e-10
2.80433e-09
9.17738e-09
-2.30593e-09
-5.41132e-09
-1.46017e-09
-6.51659e-09
2.56763e-09
1.6384e-09
2.31057e-09
-2.75383e-09
7.34078e-09
-7.44612e-09
2.85923e-09
4.92524e-09
-7.65863e-09
-2.04371e-11
-4.68324e-09
2.18788e-09
9.03086e-09
-6.53547e-09
1.18671e-08
-5.29565e-09
-4.49856e-09
-2.07285e-09
-3.17321e-09
5.70369e-09
3.65438e-09
-6.18488e-09
4.84639e-09
2.45687e-09
-7.88062e-09
5.77372e-10
7.09354e-09
-7.55262e-09
-1.95638e-10
6.54709e-10
6.64155e-09
-5.42516e-09
5.87716e-09
2.00904e-09
3.09746e-09
-4.36985e-09
-7.36742e-10
3.58057e-09
-4.08208e-09
2.63167e-10
-2.06128e-10
5.42069e-09
-5.401e-09
1.86453e-10
1.60522e-09
1.27794e-09
-1.61932e-09
-1.26386e-09
1.76018e-09
-2.31884e-09
3.57611e-09
-3.01745e-09
-7.84322e-11
8.56051e-09
-1.34278e-08
4.72621e-09
-5.92567e-09
-1.49867e-09
2.69814e-09
1.03594e-09
-1.8783e-10
-1.15619e-08
1.07138e-08
-5.30002e-09
-7.67739e-09
8.57593e-09
4.40148e-09
5.00475e-09
3.6118e-09
-2.45876e-09
-6.15777e-09
-1.85325e-09
3.57266e-09
-3.20194e-09
1.48261e-09
-9.40246e-09
3.20081e-09
-8.06716e-09
1.42688e-08
-5.52095e-09
-2.51637e-09
7.31213e-09
7.25194e-10
-5.27204e-10
-6.25972e-09
7.7672e-10
6.01025e-09
-3.51188e-09
5.38063e-09
-2.88331e-09
1.01456e-09
1.59309e-09
-3.79687e-09
-1.30811e-09
-8.96437e-09
6.23472e-09
-9.3643e-09
1.20939e-08
-2.05048e-09
4.71953e-09
-3.36109e-09
6.92048e-10
5.3444e-09
-1.57805e-09
-2.6949e-09
-1.07139e-09
-2.29817e-09
-3.21636e-10
2.04176e-09
5.7802e-10
-5.56798e-09
9.60814e-09
-7.29486e-09
3.25475e-09
-5.36659e-09
-5.67758e-10
1.6089e-09
4.32548e-09
-6.97415e-09
8.39095e-11
7.42044e-09
-5.30165e-10
2.28616e-09
2.08447e-09
-5.22725e-09
8.5673e-10
4.82375e-09
-6.94378e-09
-1.53955e-09
3.65961e-09
-9.17735e-09
9.42818e-09
4.75393e-09
-6.35948e-09
6.03886e-09
-6.31978e-09
6.64045e-09
4.11596e-09
-1.59159e-09
-6.54127e-09
4.01693e-09
-7.77788e-09
3.1468e-09
1.30859e-09
3.32249e-09
-2.97322e-09
-3.89449e-09
2.8566e-09
4.01114e-09
1.93e-10
-8.8365e-09
3.23945e-09
5.40403e-09
1.64814e-09
-3.09223e-09
3.92365e-09
-2.47954e-09
-5.16609e-09
1.8469e-09
4.49667e-09
-1.17745e-09
1.19826e-08
-6.80449e-09
-1.14684e-08
6.29029e-09
-3.81705e-09
2.39835e-09
8.86482e-10
5.32271e-10
-5.70475e-09
1.08215e-08
6.40156e-09
-1.15183e-08
-1.46772e-08
1.666e-08
4.36359e-09
-6.34643e-09
1.83824e-09
-1.3894e-09
4.30229e-10
-8.79098e-10
-5.04635e-09
-1.12561e-08
1.36528e-08
2.64965e-09
5.93275e-09
4.1295e-09
-5.72566e-09
-4.33663e-09
-5.96639e-09
9.89845e-09
7.61516e-10
-6.35945e-11
1.13987e-10
-1.81248e-09
1.76203e-09
-2.65261e-09
1.10103e-09
-4.91246e-10
2.04282e-09
1.88573e-09
4.75245e-09
2.62842e-09
-9.26659e-09
-7.60788e-09
9.99422e-10
-4.52616e-09
1.11346e-08
8.57879e-09
6.50355e-09
-6.81288e-09
-8.26945e-09
-1.00309e-09
2.98993e-09
-3.50913e-09
1.52227e-09
-4.1688e-09
-2.02517e-09
1.87486e-11
6.17518e-09
-8.77455e-09
3.85571e-09
2.35982e-09
2.55901e-09
-3.54608e-09
-2.32182e-09
7.8938e-10
5.07848e-09
-3.55062e-09
6.52483e-09
3.119e-09
-6.09319e-09
-1.74161e-09
-2.74841e-09
1.2207e-09
3.26934e-09
-4.38186e-09
4.99402e-09
-2.77318e-09
2.16106e-09
-8.81762e-09
3.80649e-09
1.10279e-08
-6.01676e-09
-7.64144e-09
7.85004e-10
6.65191e-09
2.04524e-10
-5.71758e-09
3.14367e-10
5.53606e-09
-1.32851e-10
9.49211e-09
-8.66047e-09
3.53376e-09
1.12364e-08
-7.13553e-09
-7.63458e-09
2.28143e-10
1.03597e-08
-8.69912e-09
-1.8888e-09
-5.98923e-09
8.29425e-09
-8.65619e-09
6.35117e-09
-1.01799e-09
6.1921e-09
-4.33976e-09
-8.34356e-10
-1.43771e-09
5.59424e-09
-4.84767e-09
6.91159e-10
1.0168e-08
-1.60353e-08
-7.81284e-10
6.64869e-09
3.86326e-09
1.72467e-09
-1.43873e-08
8.79942e-09
-5.42952e-09
1.52916e-09
3.85707e-09
4.3286e-11
-2.51228e-10
-1.2437e-09
1.69613e-09
-2.01119e-10
4.56762e-10
-2.03971e-09
1.75503e-09
-1.72081e-10
9.67694e-10
2.76031e-09
5.72489e-09
-9.45289e-09
-2.46468e-10
1.14189e-09
5.25949e-09
-6.15489e-09
1.20238e-08
5.43764e-09
-8.61125e-09
-8.85019e-09
-2.4032e-11
2.26803e-10
1.4141e-09
-1.61695e-09
1.22497e-09
-1.67562e-09
4.26587e-10
-1.28244e-09
7.35583e-12
1.42831e-09
-1.53254e-10
7.44021e-10
-7.59323e-10
-1.78479e-09
1.79997e-09
9.96226e-09
-8.01387e-09
-2.37587e-09
4.2754e-10
-2.10546e-09
2.46223e-09
9.60557e-09
1.73993e-09
1.50893e-09
-7.61446e-09
4.36569e-09
2.26117e-09
3.34641e-09
1.686e-09
-7.29354e-09
3.50177e-09
1.38287e-09
-8.54797e-10
-4.02983e-09
3.89632e-09
-8.08522e-09
-6.79891e-12
4.19573e-09
-9.26407e-09
-7.26661e-10
6.21617e-09
3.77458e-09
-3.46896e-09
2.73428e-09
1.36243e-09
-6.27736e-10
-7.11366e-09
6.47217e-09
4.95134e-10
1.46365e-10
-6.30387e-09
-1.50125e-10
5.59738e-10
5.89432e-09
4.32993e-09
-7.32729e-09
-4.258e-09
7.25536e-09
9.74698e-10
5.47269e-09
-4.96496e-09
-1.48242e-09
-3.44029e-09
3.76479e-09
5.2546e-09
-5.57908e-09
5.46788e-09
-7.86622e-09
-3.58264e-09
5.98098e-09
1.02489e-09
-3.88666e-09
-2.23193e-09
-1.90356e-09
5.11343e-09
2.87127e-09
-6.08112e-09
-7.76108e-09
4.98066e-09
-6.56505e-10
3.43692e-09
-1.08895e-09
-6.89923e-09
7.41286e-09
5.75328e-10
-2.49692e-09
-3.82929e-10
5.25015e-10
2.35488e-09
6.0016e-09
-4.60439e-09
-7.05307e-10
-6.91863e-10
-7.75832e-10
-7.34881e-10
1.84542e-09
-3.34684e-10
-5.16922e-10
5.85464e-09
-5.13916e-10
-5.50946e-09
4.52654e-09
3.26906e-09
4.46537e-09
-5.68796e-09
9.46968e-10
2.75605e-10
5.22288e-09
-2.19453e-09
-2.88309e-09
-1.45238e-10
-4.88166e-10
-3.63413e-09
3.4629e-09
6.59512e-10
5.30977e-09
-7.58372e-09
2.32844e-09
-5.44929e-11
7.91858e-09
-3.11674e-09
5.07954e-10
-1.42783e-09
-8.78366e-10
6.99347e-09
-4.68725e-09
4.69605e-09
4.21118e-09
-3.72508e-09
-5.18215e-09
-5.72076e-09
-4.8139e-09
6.42711e-09
4.10756e-09
6.4687e-09
-6.844e-09
-1.21054e-08
1.24807e-08
-1.98453e-09
8.33381e-09
4.09751e-09
2.6502e-09
8.82171e-09
1.06341e-09
-4.68214e-09
6.06405e-10
3.01222e-09
3.02931e-09
1.5795e-09
-9.12977e-10
-3.69583e-09
-7.35437e-11
1.58538e-09
-1.37651e-09
-1.353e-10
6.71582e-09
5.76279e-09
-3.06404e-09
-9.41442e-09
-8.08208e-09
-3.00668e-09
9.11325e-09
1.97559e-09
2.76108e-09
-1.25673e-09
4.45796e-09
-5.96224e-09
-3.38185e-09
3.03767e-09
4.14683e-09
-5.04843e-09
5.34957e-09
5.16303e-09
-5.4642e-09
-5.29433e-09
2.32832e-09
3.28192e-09
-3.15899e-10
-2.29926e-09
-3.58212e-09
5.77661e-09
1.04798e-10
-7.81607e-09
1.17513e-09
4.50075e-09
2.14019e-09
-3.0292e-09
-3.08158e-09
1.26945e-09
4.84135e-09
-7.60372e-09
2.62826e-09
4.25321e-10
4.55017e-09
2.50274e-09
-8.85452e-10
-2.0254e-09
-5.61971e-09
8.14602e-10
2.49957e-09
2.30554e-09
6.41626e-10
7.93149e-09
-4.7901e-09
-3.783e-09
3.40874e-09
4.80666e-09
-8.04996e-09
-1.65459e-10
2.92341e-09
1.92637e-09
1.63581e-09
4.26874e-09
-9.31485e-09
4.71008e-09
3.36026e-10
-2.51403e-09
-1.9981e-09
5.18342e-09
-6.71282e-10
1.28757e-09
-1.65937e-09
6.67334e-09
-6.30155e-09
-2.82525e-09
6.54523e-10
2.3871e-09
-2.16358e-10
7.72753e-10
1.44056e-09
-2.32391e-09
1.10608e-10
1.43861e-09
5.62717e-09
-7.17875e-09
1.12975e-10
3.15209e-09
-6.94978e-09
1.19916e-09
2.59855e-09
-2.37645e-09
1.10896e-09
-2.52948e-10
1.5204e-09
3.5416e-10
3.58655e-09
-7.43089e-09
3.49013e-09
1.51253e-09
4.15382e-09
-9.31179e-09
3.64543e-09
5.22873e-09
-9.83433e-10
-4.74602e-09
5.00732e-10
3.34934e-09
2.64339e-09
9.064e-10
-6.89908e-09
4.03126e-10
-3.38494e-09
2.91821e-09
1.53195e-09
-1.46981e-09
5.1785e-11
3.97262e-09
2.66619e-09
-4.06515e-09
-2.57368e-09
4.68212e-09
-3.81406e-09
-4.77974e-09
3.91172e-09
-1.39934e-10
9.54919e-10
-5.32593e-09
4.51098e-09
-2.38668e-09
-7.9685e-10
3.1262e-09
5.73314e-11
4.37236e-09
3.91823e-11
-4.69442e-09
2.82857e-10
-4.1776e-09
-4.67986e-09
8.5529e-09
3.04568e-10
-9.07472e-09
4.15911e-09
9.94224e-10
3.92136e-09
3.68257e-09
2.41524e-09
-1.4704e-09
-4.62746e-09
1.59687e-09
-9.76456e-10
2.13808e-10
-8.3426e-10
7.27484e-10
1.3862e-09
-1.23458e-09
-8.79153e-10
-1.45944e-09
1.19087e-08
-3.00679e-09
-7.44239e-09
1.12997e-09
-4.16691e-09
-5.42073e-09
8.4578e-09
-1.10182e-08
2.5553e-09
2.12364e-09
6.33924e-09
1.95617e-09
2.89726e-09
4.86489e-09
-9.71827e-09
-2.67181e-09
4.60512e-09
-3.40199e-10
2.56824e-09
2.39498e-09
-3.83944e-09
-1.12378e-09
2.24233e-09
-1.58186e-09
-5.00998e-09
4.34951e-09
1.39549e-09
4.27634e-09
-7.60224e-09
1.93045e-09
-1.62243e-09
2.26747e-09
2.61056e-09
-3.25561e-09
3.48652e-09
-5.04329e-09
-1.43652e-09
2.99329e-09
3.09094e-09
-2.83081e-09
-4.99855e-09
4.73843e-09
-1.83852e-09
8.89344e-09
-1.15221e-08
4.46717e-09
7.74721e-11
2.05604e-09
-6.43668e-09
-1.75232e-09
-6.28652e-09
7.39145e-09
6.47444e-10
-4.42622e-09
-2.27484e-09
-2.43759e-09
9.13873e-09
-4.22634e-10
-1.06373e-08
-1.02592e-09
-6.00591e-10
-3.67693e-09
4.08461e-09
1.92921e-10
2.14302e-09
3.699e-09
-6.84512e-09
4.7064e-09
-1.16743e-08
8.0655e-09
-1.09764e-09
-1.38868e-10
-3.25919e-09
3.49173e-09
-9.36673e-11
-5.89457e-09
5.81799e-09
9.25588e-10
-8.49009e-10
-1.7045e-09
6.57288e-10
-4.88902e-09
5.93622e-09
4.68065e-09
-5.70103e-09
-5.49621e-09
-3.68026e-10
4.09195e-09
1.24078e-10
-5.97794e-09
-1.07274e-09
6.4771e-09
5.73584e-10
1.15434e-08
-1.21518e-08
-1.09609e-09
-4.98397e-09
4.98634e-09
-5.64348e-10
5.61992e-10
2.40505e-09
3.03649e-09
-4.58011e-09
-8.61343e-10
-2.16579e-09
-1.79023e-10
1.88124e-09
4.63789e-10
-2.41765e-09
-1.66061e-09
1.13057e-09
2.9477e-09
2.28541e-09
2.8318e-10
-1.29423e-09
-1.27437e-09
4.75555e-09
9.53444e-11
-1.80473e-10
-4.6704e-09
-9.83391e-10
-6.70895e-09
6.67435e-09
4.29187e-09
5.29049e-09
-9.62173e-09
3.94112e-11
4.04307e-09
4.46614e-09
-8.5648e-09
5.58039e-11
-5.99744e-09
2.98725e-09
6.64994e-10
2.34528e-09
4.59464e-09
-1.03664e-09
-1.25156e-09
-2.30641e-09
4.69873e-09
-2.84579e-09
1.59551e-10
-2.01246e-09
-5.94879e-09
-6.38605e-09
8.28023e-09
4.05461e-09
-3.6443e-09
3.3782e-09
1.1384e-09
-8.72341e-10
5.23684e-09
-3.32861e-10
-5.78214e-09
8.78249e-10
8.52097e-09
8.33054e-10
-6.54159e-09
-2.81241e-09
4.44008e-09
-6.19139e-09
1.24813e-09
5.03214e-10
-6.35821e-09
1.28288e-09
-2.02155e-09
7.09687e-09
5.11843e-09
-3.19626e-09
1.80567e-09
-3.72786e-09
-9.21027e-09
4.13506e-09
-6.71435e-10
5.74664e-09
4.68628e-09
-9.61285e-09
5.02056e-09
-9.39812e-11
3.91071e-09
8.45453e-09
-7.16819e-09
-5.19705e-09
-3.04629e-09
3.70147e-09
-7.74131e-10
1.18953e-10
1.51169e-09
-8.34079e-10
-6.62439e-09
5.94678e-09
-5.06845e-09
6.45522e-09
1.24911e-10
7.60856e-09
-2.31411e-09
6.75179e-10
-5.17175e-09
-1.74423e-09
6.43552e-09
4.80477e-10
5.38716e-09
3.51644e-09
1.00575e-09
-9.90934e-09
5.84775e-09
-4.1428e-09
3.68221e-09
-4.02664e-09
4.03568e-09
3.50741e-09
-7.11655e-10
-2.22308e-09
-3.6703e-09
6.60503e-09
1.57459e-09
-3.44509e-09
1.63875e-09
2.31769e-10
-3.40232e-09
-2.48316e-09
5.18698e-09
6.98501e-10
-7.37101e-09
-5.94887e-09
9.91757e-09
5.54909e-09
-6.77303e-09
9.11552e-09
-7.89159e-09
-3.9028e-10
-4.136e-09
1.00754e-08
5.19642e-09
-6.28153e-09
-3.02103e-09
4.10616e-09
-4.79976e-09
2.85223e-09
1.11088e-09
8.36715e-10
2.95042e-09
7.19763e-10
-3.05025e-09
-6.19875e-10
5.49239e-10
-5.23546e-10
-8.3141e-09
3.86614e-09
5.84344e-09
2.42701e-09
-1.42337e-09
-2.24508e-09
-8.92034e-09
-3.41007e-09
4.05061e-10
-9.92591e-11
-2.32131e-09
1.64861e-09
-2.16862e-09
2.84125e-09
1.31453e-09
5.91663e-09
3.32997e-09
-1.05611e-08
2.2417e-09
-4.12319e-09
3.71436e-09
-1.83286e-09
4.39261e-09
-2.05331e-09
-2.57979e-09
2.40488e-10
2.0467e-09
4.49856e-09
-6.60739e-09
6.21171e-11
-2.09401e-09
6.10749e-10
2.80694e-09
-1.3237e-09
-1.18858e-10
-8.5873e-09
9.37986e-09
-6.73714e-10
-6.32129e-09
6.54563e-09
-4.08166e-10
1.83868e-10
-9.28576e-10
-5.8819e-09
5.32756e-09
1.4829e-09
6.41467e-09
-3.33278e-09
-2.73383e-09
-3.48074e-10
4.24439e-09
-2.14952e-09
-1.56686e-09
-5.28012e-10
-3.77648e-09
-2.80474e-09
5.37693e-10
6.04351e-09
-7.39414e-09
3.88815e-09
1.16325e-08
-8.12653e-09
2.84065e-09
1.59701e-09
-4.90929e-09
4.71678e-10
-3.98116e-09
-3.97055e-09
5.58077e-09
2.37099e-09
7.45599e-09
-1.62179e-09
-6.16648e-09
3.32334e-10
-3.64762e-09
5.42952e-09
-1.89695e-09
1.15055e-10
-1.99808e-09
1.04361e-09
2.17074e-09
-1.21626e-09
1.80159e-09
3.90719e-09
-3.39776e-09
-2.31103e-09
-1.99551e-09
2.92953e-09
1.58852e-09
-2.52253e-09
-2.96845e-09
6.91474e-09
-2.27306e-09
-1.67321e-09
-3.6629e-10
-1.83112e-09
-5.36747e-09
7.5649e-09
-1.88616e-09
-7.54714e-09
5.26445e-09
5.60535e-09
-5.0142e-10
-4.93794e-09
-1.65992e-10
5.25664e-09
-3.73248e-09
-9.31607e-10
-5.92572e-10
2.87075e-09
-2.83048e-09
3.37949e-10
-3.78237e-10
7.55704e-09
9.39045e-10
-8.87227e-09
3.76143e-10
6.30293e-09
-7.7147e-09
2.47027e-09
-1.05852e-09
2.89723e-09
-5.59589e-09
8.40532e-09
-5.70664e-09
4.03929e-09
-4.4331e-09
-6.44184e-09
3.44845e-09
4.77035e-10
1.15719e-08
-6.28929e-09
1.85304e-10
-3.32973e-09
3.01019e-09
7.3919e-10
-4.19696e-10
1.18577e-09
-1.24676e-09
4.53945e-09
-3.03464e-09
4.12738e-09
9.91715e-10
2.10017e-09
-7.70322e-10
-1.23244e-09
-9.73839e-11
2.89971e-09
2.83795e-10
4.24981e-09
-7.43327e-09
5.75983e-09
-1.09266e-08
5.04413e-09
1.22706e-10
4.91166e-09
-3.93178e-09
1.28072e-09
-2.2606e-09
-7.71746e-09
-8.63424e-09
8.97502e-09
7.37669e-09
-4.11091e-09
-1.01896e-08
9.43083e-09
4.86969e-09
-3.5989e-09
-3.21718e-09
6.63539e-09
1.80734e-10
-1.47017e-09
-4.7327e-09
2.51941e-09
3.68341e-09
-8.08601e-09
3.78509e-09
4.3368e-09
-3.57829e-11
-4.96889e-09
1.42982e-08
-8.19925e-09
6.87987e-09
3.09427e-09
-9.82514e-09
-1.48972e-10
-7.56376e-09
-1.31968e-09
-6.16893e-10
9.50036e-09
-3.73114e-09
-6.65835e-09
-2.73358e-09
1.31232e-08
-6.03263e-09
5.79795e-09
-5.40772e-09
5.64257e-09
5.31313e-09
-3.05288e-09
-5.99129e-09
-8.4562e-09
-9.34302e-10
1.45456e-09
7.93595e-09
5.3591e-09
3.26467e-09
-8.71929e-09
9.55375e-11
-3.38947e-09
2.92348e-10
-3.24779e-09
6.49586e-09
-3.40371e-10
-2.90771e-09
-3.79285e-09
1.99363e-09
-1.44857e-09
2.18289e-10
4.87108e-09
-6.02367e-09
-2.34602e-09
8.29578e-09
-6.03522e-09
8.54919e-11
-4.30004e-09
5.12399e-09
1.43631e-09
-2.26023e-09
-6.93715e-09
5.91972e-09
-1.75882e-09
2.77628e-09
2.78178e-09
-2.69354e-10
1.53909e-10
5.47786e-09
4.17904e-09
1.85234e-09
-1.15092e-08
-7.05409e-09
4.55036e-09
2.8074e-09
-3.03712e-10
-1.65652e-09
1.12749e-08
-9.39018e-09
-8.45551e-09
6.03974e-09
1.93925e-09
4.76471e-10
3.19395e-09
-1.07926e-08
-6.886e-09
1.21951e-09
6.79175e-09
-1.12517e-09
-6.06039e-09
9.28811e-09
-8.20684e-09
4.97911e-09
-7.65907e-09
5.09714e-10
-8.05461e-09
-3.87766e-09
7.40578e-09
3.16509e-09
4.93228e-10
-2.46015e-09
-1.1982e-09
2.63821e-09
3.28583e-09
-2.44183e-09
-3.48221e-09
-4.37721e-09
-2.29891e-09
6.30108e-09
3.75063e-10
8.18833e-09
-6.99435e-09
-1.73747e-09
5.43509e-10
-2.57926e-11
-6.92615e-09
1.50803e-10
-1.36618e-09
5.2152e-10
-6.2554e-10
-3.8866e-09
-7.0813e-10
8.68318e-09
-4.08843e-09
-3.92917e-09
1.85874e-09
-4.2647e-10
1.8049e-09
-8.35187e-10
-4.20481e-10
9.82423e-10
2.93323e-10
-9.51013e-10
-3.24809e-10
-1.13481e-09
1.97342e-09
7.06364e-10
-1.54505e-09
8.77211e-09
-1.068e-08
2.29457e-09
-3.86673e-10
-4.19869e-09
-8.14203e-09
1.26965e-09
5.07798e-09
-5.89477e-09
-4.5284e-10
-5.83145e-09
1.98667e-09
-3.35685e-09
7.20163e-09
1.56811e-09
-1.77105e-09
2.64858e-09
-2.44571e-09
-7.25004e-11
-2.81201e-09
1.43947e-09
1.44507e-09
1.44536e-09
3.48703e-09
-3.09948e-09
-1.83289e-09
6.00573e-11
1.13417e-09
2.39538e-09
2.96508e-09
-3.78587e-09
2.84712e-09
1.32722e-09
-4.2378e-09
6.34639e-11
6.00985e-09
-2.02112e-09
3.83626e-10
-9.28789e-09
5.71118e-09
5.83791e-09
-1.00637e-08
8.61124e-09
1.31572e-09
1.36751e-10
-4.39396e-10
5.09302e-09
-9.64529e-09
1.13507e-08
-8.92514e-09
-5.87001e-09
3.44448e-09
-7.48863e-10
7.81965e-10
-1.25043e-09
1.21729e-09
3.41999e-09
3.83037e-09
-7.24711e-09
-3.22691e-12
3.0638e-09
3.78493e-09
-7.56805e-09
7.19312e-10
3.65517e-09
-3.74395e-09
2.6557e-11
6.22213e-11
7.20199e-09
-9.63194e-09
2.04668e-09
3.83344e-10
-9.62024e-09
-5.65055e-09
7.16284e-09
8.10799e-09
1.88928e-09
-1.16755e-09
2.03463e-09
-2.75637e-09
3.27883e-09
-8.44524e-10
-5.45041e-10
7.26286e-09
-8.88546e-09
1.71895e-09
-9.63332e-11
2.37132e-09
2.63734e-09
-2.43571e-09
-2.57292e-09
-2.8649e-09
-3.6171e-09
5.33185e-10
2.99608e-09
-2.97838e-09
7.24516e-09
6.50766e-09
-4.41447e-09
-2.63756e-09
5.44352e-10
-3.02691e-11
-4.48495e-09
3.48493e-10
-5.4989e-09
-7.20398e-11
5.62093e-09
-4.99738e-11
5.84958e-10
-7.05735e-09
6.32739e-09
1.45007e-10
6.66469e-09
5.65332e-09
-5.7391e-09
-6.5789e-09
3.40814e-09
-2.52712e-09
6.28513e-10
-1.50958e-09
2.71563e-10
6.00088e-09
-6.43781e-09
1.65354e-10
-3.37361e-10
-2.43047e-09
2.58138e-09
1.86438e-10
5.99737e-09
-5.79742e-09
-1.56091e-10
-4.38595e-11
4.63098e-09
2.19619e-09
-8.64274e-10
-5.96291e-09
-1.28028e-09
8.05256e-09
8.36286e-10
-2.0177e-09
-5.01321e-10
7.30268e-09
-4.78359e-09
-7.80689e-09
6.85115e-10
3.75912e-09
3.36266e-09
-6.27237e-10
3.84056e-09
-4.55482e-09
1.3415e-09
3.23174e-09
-7.13461e-09
3.42327e-09
4.79735e-10
-3.91537e-09
-2.30602e-09
8.12003e-09
-1.89847e-09
-2.72867e-09
-3.72561e-09
5.75621e-09
6.98168e-10
-2.43763e-09
-2.67708e-09
-5.04994e-10
-8.1e-09
1.36975e-09
9.75434e-09
-3.02407e-09
3.36787e-09
2.59048e-09
-5.66343e-09
-2.94879e-10
-8.53023e-10
1.95939e-09
-5.46483e-09
4.35846e-09
1.36546e-09
-1.18521e-09
-9.55996e-10
-4.63503e-09
4.19257e-09
8.17782e-09
-2.79126e-09
-1.29112e-09
1.61172e-09
-1.86767e-09
4.76747e-09
-4.94747e-10
-2.43618e-09
1.95714e-09
1.20991e-09
-7.30878e-10
-3.50664e-09
-3.22487e-09
-2.55636e-09
-1.10421e-09
4.31155e-09
-3.46289e-09
2.55555e-10
-6.59321e-10
-3.5627e-10
-2.66802e-10
-5.62723e-10
1.79249e-10
5.36355e-10
-1.5285e-10
-5.68777e-09
-1.15271e-09
6.6588e-09
1.81683e-10
-9.24722e-09
1.08125e-08
-3.22571e-09
6.15832e-09
6.47962e-10
3.22946e-09
2.77192e-09
-3.57763e-09
-2.42368e-09
1.66259e-09
5.11139e-11
-1.04308e-09
2.63318e-09
-2.1371e-09
5.46989e-10
-4.81474e-09
3.51137e-09
-4.65221e-09
5.95562e-09
-4.35921e-09
4.72872e-09
-9.02208e-10
5.32729e-10
-5.45005e-09
3.50325e-09
-4.82254e-09
6.76939e-09
1.02426e-09
1.61176e-09
-2.82298e-09
1.87009e-10
5.60874e-09
-3.20125e-09
3.59932e-09
-6.00678e-09
-6.52519e-09
3.69492e-09
-1.42946e-10
3.09459e-09
-4.36796e-09
1.8147e-09
-5.41316e-10
6.554e-09
-8.90036e-09
5.44093e-09
-8.72254e-09
-6.05097e-10
5.2717e-09
4.05593e-09
-9.22624e-09
-6.39819e-09
2.5306e-09
-1.06915e-09
6.08592e-09
-4.78711e-09
-2.29648e-10
4.55371e-09
3.73635e-09
-1.37196e-10
-8.15285e-09
-4.36077e-09
8.99238e-09
-2.47973e-09
-2.15187e-09
-3.12164e-09
-3.19078e-09
6.15615e-09
1.56294e-10
-8.84927e-10
8.64602e-09
-3.79302e-09
-3.96806e-09
2.93775e-09
-6.82227e-09
4.18688e-09
-3.02332e-10
4.50507e-09
-9.78079e-09
3.55143e-09
1.72431e-09
7.05898e-09
4.58621e-09
-6.27753e-09
-5.36767e-09
1.11225e-09
-2.79979e-09
2.16808e-09
-4.80463e-10
-1.8525e-10
9.7539e-10
-5.1597e-10
-2.7414e-10
6.18514e-09
-6.83676e-10
-4.84417e-09
7.62437e-09
-3.72603e-09
-9.10655e-09
5.20821e-09
-1.12652e-09
3.34942e-09
-1.80959e-09
-4.13343e-10
1.58765e-09
3.00554e-09
-4.1176e-09
-4.75601e-10
-4.01566e-09
3.5073e-09
5.70947e-09
-5.20108e-09
5.8433e-09
-2.51367e-09
-3.29797e-09
-3.16295e-11
3.49084e-09
-4.00906e-09
4.21444e-09
-3.6962e-09
5.45639e-09
-2.63254e-09
3.16512e-09
-5.98896e-09
2.01104e-09
-4.25382e-09
2.69022e-09
-4.47427e-10
5.7812e-10
3.69921e-09
-4.93008e-09
6.52719e-10
-2.1096e-09
1.34213e-09
-3.59157e-10
-8.56247e-10
-4.41188e-10
6.46494e-09
-5.16748e-09
9.20912e-09
-3.18472e-09
4.40153e-09
-1.04259e-08
-3.50308e-09
-1.82808e-09
4.57513e-09
7.56078e-10
-1.2342e-09
5.87263e-09
-4.82889e-09
1.90468e-10
-7.74815e-09
1.0934e-08
6.26044e-09
-9.44628e-09
-7.1709e-10
2.00745e-09
-1.07696e-09
-2.13422e-10
2.36323e-09
9.53693e-10
-3.12902e-09
-1.87879e-10
-6.30203e-10
-1.44897e-09
2.1802e-09
-1.0106e-10
1.53744e-09
-1.79471e-09
-1.72042e-09
1.97768e-09
-6.94933e-09
6.78796e-09
-5.82297e-09
5.98435e-09
7.48975e-09
-2.10199e-09
-6.10636e-09
7.18639e-10
-2.55417e-09
-2.76393e-09
5.41477e-09
-9.66734e-11
-4.86777e-09
1.76851e-09
-2.05172e-09
5.15098e-09
-3.1856e-09
-6.77014e-11
3.07461e-09
1.78694e-10
-1.89464e-09
-1.6663e-09
1.09018e-08
-2.16617e-09
-5.69752e-10
-1.39203e-10
-7.68498e-09
-5.60627e-09
5.68753e-09
3.18856e-09
-3.73399e-09
9.93432e-10
-4.47993e-10
2.59513e-09
-3.87161e-09
1.73311e-09
-4.56646e-10
9.49829e-09
-1.15898e-08
-2.77596e-09
4.86748e-09
8.1726e-09
2.69676e-09
-1.08532e-08
-1.61716e-11
7.31198e-09
-5.79707e-09
2.06564e-09
-3.58056e-09
6.34361e-10
2.08388e-09
-3.02397e-09
3.05791e-10
2.1754e-09
-5.60953e-09
7.05527e-10
-6.88655e-09
4.83e-09
3.94228e-09
8.16114e-10
-2.94064e-10
-3.39093e-09
2.869e-09
-2.17898e-09
4.6603e-09
-2.94109e-09
4.5981e-10
3.00297e-09
-2.077e-09
1.08303e-09
2.55198e-09
-7.67587e-09
-5.89433e-09
-5.49101e-09
4.8245e-09
3.2218e-09
3.52149e-09
-3.52426e-09
-1.72501e-10
1.75255e-10
-7.36487e-09
3.77426e-11
6.9802e-09
3.46924e-10
2.87386e-09
-7.72826e-09
4.29613e-09
5.58303e-10
1.68477e-10
9.29274e-10
-8.46699e-10
-2.51071e-10
-4.86522e-09
-4.14339e-09
3.81195e-09
5.19668e-09
-4.77584e-10
4.60506e-09
-4.75825e-09
6.3079e-10
3.48492e-10
-2.61319e-09
2.41704e-09
-1.52358e-10
-4.0591e-10
-1.9936e-09
2.91022e-09
-5.10762e-10
2.90146e-09
8.41263e-09
-8.08825e-09
-3.22582e-09
-6.82322e-10
6.20199e-09
-3.81401e-10
-2.24264e-09
4.87127e-09
6.00863e-10
-1.02704e-08
-9.23148e-11
6.45043e-09
3.91225e-09
6.79209e-09
-4.92833e-10
-6.71114e-09
4.11868e-10
-3.05438e-09
5.52917e-09
-3.52216e-09
1.04734e-09
-6.59852e-09
1.01436e-09
4.1811e-10
1.71025e-09
-1.20468e-09
-2.00492e-09
1.49944e-09
-1.25831e-09
-3.27474e-09
7.16001e-10
1.28426e-09
-3.91991e-10
-5.31891e-10
-3.60402e-10
-3.4445e-09
2.48937e-10
-5.57684e-09
7.81958e-09
-3.42688e-09
1.18417e-09
4.22565e-09
-3.71529e-09
4.04109e-09
-4.55142e-09
6.60592e-09
-4.11591e-09
-1.51528e-09
-2.35162e-10
1.35965e-09
-1.0682e-09
-5.62738e-11
-4.10069e-10
-1.71487e-09
-7.16038e-11
4.06766e-09
-5.37521e-09
6.91533e-09
-5.60778e-09
-4.97903e-09
1.65686e-09
-5.6643e-10
3.88864e-09
-1.33222e-09
9.47839e-10
-2.16108e-09
-9.54904e-10
2.61123e-09
5.04774e-10
1.09193e-09
5.31289e-09
-5.68821e-09
-7.16596e-10
3.4207e-09
-8.14667e-09
4.32069e-09
4.05293e-10
3.4926e-10
1.13539e-08
-8.51682e-09
-3.18631e-09
2.40909e-09
-9.40711e-09
8.64042e-09
-1.64241e-09
2.06271e-09
-2.82871e-09
5.34224e-10
-3.09048e-09
6.32708e-09
-3.71069e-09
4.74118e-10
5.24236e-09
-3.3592e-09
-2.4099e-09
5.26745e-10
-2.04616e-09
2.11488e-09
1.19892e-09
-1.26766e-09
3.66981e-09
5.8821e-09
-6.95243e-10
-8.85662e-09
-3.10774e-09
4.27591e-09
-4.25535e-09
3.08722e-09
4.3689e-09
-1.23437e-09
-3.704e-09
5.69574e-10
3.66231e-09
-9.58613e-09
1.40037e-09
4.5235e-09
6.56903e-09
-3.72206e-09
-3.03766e-09
1.90716e-10
-2.37545e-10
-1.05382e-09
5.31188e-09
-4.0205e-09
4.67653e-09
-8.90955e-10
4.40097e-10
-6.14128e-10
1.16873e-10
-1.62073e-10
-6.87914e-10
7.46606e-09
1.27245e-10
-3.09161e-09
3.60914e-09
-3.01619e-09
2.49867e-09
2.51891e-09
4.75322e-09
-3.58262e-09
-3.68948e-09
-4.51991e-09
5.39566e-09
-1.29751e-09
4.21804e-10
3.85507e-09
7.06175e-10
-7.78346e-09
3.22223e-09
2.00662e-10
3.12137e-09
-3.20412e-09
-1.17736e-10
-7.22893e-09
1.79665e-09
-9.205e-09
9.04021e-09
-1.01675e-08
1.03323e-08
6.39544e-10
4.81389e-09
-3.83188e-09
-1.62159e-09
2.36885e-09
-2.48586e-09
1.9811e-09
-1.8641e-09
-9.09069e-09
5.5384e-09
7.90806e-09
-4.35576e-09
-1.67375e-09
-1.84966e-09
3.60393e-09
-8.05161e-11
-1.69982e-09
2.37569e-09
-2.34962e-09
-2.50895e-09
1.03329e-09
-2.24141e-10
9.99426e-10
-3.1575e-09
-1.42619e-09
3.5843e-09
5.69098e-09
4.88824e-09
-3.1232e-09
2.43071e-09
-4.94088e-09
-6.02599e-09
4.20285e-09
8.94492e-10
-1.06413e-09
-3.73895e-09
-4.46248e-09
9.26551e-09
8.4167e-09
-2.64324e-09
-1.06069e-09
-4.71281e-09
-5.04488e-09
3.3237e-09
1.01378e-08
1.21045e-09
-4.86451e-09
2.97985e-09
6.74393e-10
-7.89201e-09
2.73166e-09
1.15465e-10
2.90773e-09
-1.84901e-09
-1.2827e-09
2.23989e-10
-1.51253e-09
4.73862e-10
1.21446e-09
-1.75788e-10
-3.66246e-10
-9.88596e-10
-1.57648e-10
-4.67964e-09
5.31633e-09
-7.20098e-10
8.34322e-11
-6.61776e-09
1.35247e-09
3.81555e-09
1.44974e-09
-2.40863e-09
-7.23366e-09
3.02455e-09
2.43228e-09
1.2302e-10
6.38402e-09
-8.93935e-09
-4.29686e-09
5.90232e-09
4.59242e-09
-6.19784e-09
8.42082e-09
1.56965e-10
-1.6091e-09
1.59153e-10
2.55042e-09
-1.10054e-09
-5.81149e-09
4.83151e-09
3.62978e-10
6.17027e-10
-1.15596e-08
7.35778e-09
-4.75507e-11
4.24936e-09
-1.16349e-09
-3.32691e-09
4.21004e-09
2.80408e-10
8.33181e-09
5.2408e-09
-4.36791e-09
-9.20466e-09
9.01626e-09
-5.06681e-09
5.25968e-09
1.18235e-10
1.22852e-09
7.66028e-09
-9.00697e-09
3.33111e-10
9.30068e-09
-1.34676e-09
-8.28696e-09
5.8306e-09
-5.75034e-09
5.55402e-09
-5.63431e-09
4.08203e-09
3.01483e-09
-7.34883e-09
2.52015e-10
-7.56372e-10
1.56267e-08
-7.77034e-09
-7.1e-09
9.58897e-09
-8.08515e-09
5.69128e-09
-7.19508e-09
-1.69385e-10
-4.87348e-09
-1.13517e-09
6.17801e-09
-3.42131e-09
4.66786e-09
5.13638e-10
4.8145e-09
-7.90819e-09
1.15727e-08
-8.47906e-09
-1.046e-08
7.18048e-09
1.34431e-09
1.93527e-09
-6.86535e-09
8.17942e-09
6.76696e-09
-8.08106e-09
7.5856e-11
-3.55092e-09
-3.30167e-09
6.7767e-09
-4.42128e-09
-2.54972e-09
7.17336e-09
-2.02354e-10
-2.30882e-10
-3.72693e-09
7.40167e-09
-3.44385e-09
-3.13942e-09
1.43326e-09
-9.65671e-10
7.10417e-09
-4.1586e-09
3.93431e-09
-4.67566e-09
-2.73323e-09
2.16475e-10
-1.15963e-08
5.75008e-09
6.40618e-09
-5.59977e-10
-6.55691e-09
-1.10785e-08
1.04996e-08
7.13577e-09
-6.64683e-09
-2.6734e-10
1.04638e-08
-3.54958e-09
6.63267e-09
6.03742e-09
-8.96146e-09
-3.70855e-09
8.16578e-09
7.18667e-09
-7.26975e-09
-8.08262e-09
-8.66257e-09
2.99046e-09
-3.34302e-09
9.01511e-09
9.80164e-10
5.42448e-09
-6.84739e-12
-6.39779e-09
-6.98375e-10
-4.62795e-10
-6.76463e-09
7.92574e-09
-1.96112e-09
-5.53538e-09
-1.40947e-10
7.6375e-09
7.08946e-10
-3.04145e-10
5.70713e-09
-6.11187e-09
4.52102e-09
-1.46698e-09
-4.22325e-09
1.16929e-09
7.50793e-09
9.08217e-10
-2.50365e-10
-5.97741e-09
6.87611e-09
3.81065e-10
-1.27975e-09
-7.63352e-09
6.63383e-09
8.52094e-09
-7.52131e-09
-1.89726e-09
-1.09874e-08
4.48853e-09
8.39618e-09
-2.83145e-09
6.55983e-09
-1.33631e-09
-2.39205e-09
-8.95664e-09
5.68101e-09
2.75923e-09
5.16434e-10
-3.27232e-09
-3.38176e-10
3.45147e-09
1.5905e-10
-1.42712e-09
1.94168e-09
-2.35216e-09
1.83761e-09
-5.69235e-09
3.94531e-09
7.03336e-09
-5.28633e-09
1.16214e-09
6.95812e-09
1.14922e-10
-8.2353e-09
-3.2336e-09
3.77867e-09
6.34035e-09
3.96508e-09
-1.64927e-09
5.02853e-09
-5.74714e-09
4.58233e-09
1.40537e-09
-2.40568e-10
3.14524e-09
-7.30746e-10
5.33215e-09
-9.99181e-10
4.15865e-09
-3.39699e-09
-5.93081e-09