/*--------------------------------*- C++ -*----------------------------------*\
| =========                 |                                                 |
| \\      /  F ield         | OpenFOAM: The Open Source CFD Toolbox           |
|  \\    /   O peration     | Version:  v1612+                                |
|   \\  /    A nd           | Web:      www.OpenFOAM.com                      |
|    \\/     M anipulation  |                                                 |
\*---------------------------------------------------------------------------*/
FoamFile
{
    version     2.0;
    format      ascii;
    class       surfaceScalarField;
    location    "100";
    object      phi;
}
// * * * * * * * * * * * * * * * * * * * * * * * * * * * * * * * * * * * * * //

dimensions      [0 3 -1 0 0 0 0];

internalField   nonuniform List<scalar> 
37308
(
-9.8532e-09
-5.66659e-09
8.98413e-09
6.5356e-09
2.74616e-09
-3.10003e-09
-1.82331e-09
2.17717e-09
-2.04675e-09
4.66439e-09
1.28551e-10
-5.17652e-09
-7.84378e-09
2.1727e-09
1.08476e-08
-7.46743e-12
-8.91734e-09
3.74824e-09
-3.169e-09
2.92049e-09
-3.65907e-09
3.90757e-09
-5.87554e-09
2.69907e-09
2.89993e-09
1.45678e-09
-2.98361e-09
-1.37313e-09
3.26267e-09
-5.98319e-10
2.35553e-10
4.20562e-09
-4.14129e-09
-3.16435e-09
7.28224e-09
-1.05662e-08
-5.63345e-09
5.72047e-09
-6.28194e-09
1.53844e-09
-9.90996e-11
7.27037e-09
2.15893e-09
-5.62279e-09
-2.4117e-09
3.82892e-11
-2.93976e-09
2.40371e-10
-7.86677e-09
-1.28847e-08
1.10304e-08
-1.08546e-09
-3.92565e-09
-2.21782e-09
-1.05736e-08
9.34124e-09
3.45018e-09
-7.68486e-09
6.1417e-09
-6.74706e-10
-3.15718e-10
-5.56484e-09
-1.80429e-09
-2.74107e-09
-8.14821e-09
-1.24437e-09
4.59122e-09
4.52227e-10
-3.79907e-09
2.47844e-09
-2.96471e-09
-7.58119e-10
-1.28119e-09
1.62535e-10
7.2604e-09
-6.66144e-10
8.72622e-09
-6.79244e-09
-3.81326e-10
4.43269e-09
-3.86165e-10
5.13992e-09
-3.63005e-09
-5.49855e-10
3.79376e-09
-7.21891e-10
-4.29713e-10
5.09155e-09
-6.30754e-09
-3.47001e-09
1.69629e-08
-9.91192e-09
-3.58115e-09
1.23122e-08
-1.08326e-08
-4.94972e-09
1.05946e-08
-1.46387e-08
2.1007e-08
1.95442e-10
2.27113e-08
1.90405e-08
-1.00081e-08
-1.89443e-08
-1.06745e-08
1.50762e-08
1.41595e-09
5.99532e-09
-1.80859e-08
1.21714e-08
4.93508e-09
-3.04438e-08
1.33372e-08
-1.46317e-08
4.81844e-09
-1.01944e-09
-2.16906e-08
1.56022e-08
7.5043e-09
1.37476e-08
-2.32668e-08
9.19324e-09
-1.88898e-08
-1.43291e-08
-1.29202e-08
2.74448e-08
-1.63383e-08
6.82765e-09
1.97755e-08
1.42004e-09
-7.44782e-09
2.24576e-08
-5.72494e-09
-9.09595e-10
-4.39437e-09
-1.50431e-08
2.0347e-08
-1.31398e-08
-4.61398e-09
1.68442e-08
-6.97379e-09
-6.1137e-09
-5.21762e-11
7.83184e-11
-1.16589e-08
6.96656e-09
-1.074e-08
6.4239e-09
1.55048e-08
-2.67756e-09
-1.9801e-08
-1.97831e-08
2.02448e-08
9.44874e-09
-1.18204e-08
-9.28718e-09
2.15325e-08
-1.02302e-08
-1.85354e-09
5.83715e-09
-6.84181e-10
-2.49361e-08
-1.07033e-08
4.95818e-09
1.24585e-08
-6.71338e-09
4.94202e-09
-1.86961e-08
3.05076e-09
-8.93836e-09
1.3009e-08
8.71439e-10
1.896e-08
-2.70409e-09
-1.12977e-08
-5.47553e-09
-1.27528e-08
7.85001e-09
-3.0634e-09
1.28325e-08
-2.25219e-08
6.60938e-09
-1.63643e-09
-5.86912e-09
4.49884e-09
3.00669e-09
-3.53707e-09
1.58546e-09
3.15153e-10
2.2666e-09
1.61162e-09
3.1094e-09
-6.98761e-09
3.46553e-09
3.3059e-09
-4.50485e-09
5.22632e-09
-7.15178e-09
3.03625e-09
-3.67903e-09
-3.07206e-09
2.01603e-09
5.55492e-09
-8.55949e-11
5.18123e-09
-1.98626e-09
5.13817e-09
-1.75824e-09
1.54955e-09
1.42692e-09
3.29466e-10
-9.06008e-10
8.70205e-10
-2.71752e-09
5.73382e-09
-1.00025e-09
4.17503e-10
2.56257e-09
4.00252e-09
5.68917e-10
3.70631e-09
4.31101e-09
-9.96309e-10
4.09033e-09
-7.40508e-09
3.19524e-09
-1.01793e-08
1.1295e-08
-1.77267e-09
-3.46091e-09
8.42875e-09
-2.2778e-09
-1.52375e-09
2.02878e-09
2.924e-10
-1.44377e-09
-9.02793e-09
-2.06753e-09
2.58952e-09
4.67019e-09
-5.19224e-09
1.14491e-09
2.83587e-09
-6.04837e-09
-4.05736e-09
7.83231e-10
-1.74946e-09
-5.08676e-09
3.37519e-09
-3.0283e-09
-2.45e-10
-4.8476e-09
5.32102e-11
-2.91195e-09
-7.32947e-10
6.23439e-09
3.91494e-09
-5.68202e-09
-5.07489e-10
1.12028e-09
2.52559e-09
-1.97205e-10
7.17962e-10
-1.65062e-09
2.15228e-10
6.27083e-09
-6.68648e-09
-2.60371e-10
6.7616e-10
-2.552e-10
-1.51527e-09
8.04133e-09
-4.30145e-10
6.51506e-09
-6.23965e-09
1.54682e-10
3.33025e-09
-3.6301e-09
-1.30413e-10
1.31748e-09
-3.58999e-10
5.55649e-09
8.01444e-10
3.84629e-09
-9.58541e-10
-8.37061e-10
-4.89097e-09
-3.54249e-09
4.08873e-09
-3.87145e-09
6.85336e-11
-2.57332e-09
7.67726e-10
-4.43407e-09
2.72913e-09
-9.26538e-09
6.177e-09
-8.12951e-09
9.34323e-09
-8.05381e-09
-1.03434e-09
4.26074e-09
-1.74722e-09
-5.08705e-09
4.56566e-10
1.74009e-10
-2.04284e-09
-6.45496e-09
1.36168e-09
-7.97683e-09
4.86772e-09
-8.73506e-09
8.0788e-09
1.91065e-09
-1.55842e-09
-8.43103e-09
-5.02654e-09
5.41638e-09
7.68893e-09
1.41781e-09
-6.18489e-09
9.74972e-09
-4.98265e-09
7.83454e-09
-2.03552e-09
-4.38122e-09
-1.2666e-08
-1.43322e-09
7.9143e-09
-3.62814e-09
-6.32149e-09
8.99495e-09
9.54627e-10
2.33941e-09
4.85468e-09
-1.22206e-08
7.28991e-09
-5.55596e-09
1.76665e-10
-3.54584e-09
2.96391e-09
5.99827e-09
3.38826e-09
3.55772e-10
-1.52707e-09
8.36632e-09
2.91043e-09
7.51501e-10
-3.78218e-09
-4.45854e-09
1.12046e-08
-6.44481e-09
6.05087e-09
2.52296e-09
4.52486e-09
-1.74636e-08
1.04157e-08
6.72933e-09
-8.84848e-09
4.44445e-09
-4.84778e-09
5.53162e-09
6.68508e-09
-1.29201e-09
1.37902e-09
5.0367e-09
-7.55485e-10
1.73131e-10
-4.45436e-09
5.86828e-10
1.75957e-09
2.69027e-09
1.27579e-08
5.5096e-09
-1.15133e-08
-7.97194e-09
6.54898e-09
1.41808e-08
-1.2923e-09
-1.17006e-09
1.8399e-09
4.27852e-09
6.12342e-09
-5.77519e-09
-1.10374e-09
1.50511e-09
6.37787e-09
-1.25958e-09
9.89399e-09
1.87562e-08
1.92953e-08
-2.10647e-08
-1.69869e-08
2.15262e-08
-1.6083e-08
1.33129e-08
-6.21647e-09
9.14689e-09
-1.29117e-08
9.98126e-09
-1.33963e-08
3.51343e-09
3.66634e-09
-1.12133e-08
2.56066e-08
7.13285e-09
2.33723e-09
5.74481e-09
1.04687e-08
-8.46466e-09
-8.66845e-09
6.66444e-09
-6.9675e-09
7.1944e-09
-7.50886e-09
7.28195e-09
-6.6964e-09
-6.94065e-09
2.40752e-10
6.31145e-11
-8.1447e-09
-1.29831e-08
2.05023e-08
-7.84935e-09
-1.25899e-08
4.70428e-09
-2.84986e-10
3.1056e-09
9.70028e-09
-1.74689e-08
2.0367e-09
-7.56017e-09
-1.69525e-08
1.78162e-08
-3.20088e-11
-1.53775e-08
-1.68452e-08
-5.87193e-09
-5.59296e-11
1.98253e-08
-1.38974e-08
-5.19323e-09
-1.81476e-08
9.84035e-09
5.46746e-09
-1.27648e-08
-2.54294e-09
2.54322e-08
-5.66283e-09
-9.92902e-09
-1.33976e-08
1.24758e-08
-5.03649e-09
5.95829e-09
-1.24456e-08
1.22746e-08
5.72976e-09
-5.55873e-09
-2.82659e-09
1.65655e-08
-1.10352e-08
-2.70366e-09
1.7355e-08
-1.47141e-08
-3.91297e-10
4.34863e-09
3.72858e-09
1.51799e-08
6.53838e-09
-2.85707e-08
6.85237e-09
1.15989e-08
-2.10371e-08
2.46181e-08
-8.37143e-09
-1.28119e-08
3.27821e-08
1.51216e-08
8.778e-09
-1.73611e-08
-1.83652e-08
2.51153e-08
-2.53489e-08
-1.58544e-09
5.89714e-09
8.15733e-09
-2.20494e-08
-1.46788e-08
-1.50559e-08
-2.13574e-09
-1.66412e-08
-1.15898e-08
1.54192e-08
-4.37876e-09
5.70958e-09
-1.9696e-08
-2.15883e-08
3.36163e-09
-7.4431e-09
3.43142e-09
-1.80377e-08
-3.76354e-09
-1.87354e-08
2.19799e-08
7.39926e-09
-3.31427e-08
3.14785e-09
-2.75629e-09
-1.83795e-08
2.41094e-09
1.60881e-08
8.41044e-09
-1.70993e-08
8.56416e-10
-1.09193e-08
2.27612e-08
-9.73523e-09
2.10887e-09
-2.5279e-09
1.01542e-08
-1.34036e-10
-7.25065e-09
-2.3506e-09
1.4501e-09
5.08724e-09
-4.20538e-09
-2.332e-09
3.92624e-09
-2.32003e-09
-1.56137e-10
6.04497e-09
-1.09179e-09
-6.61546e-10
8.81534e-09
-6.58974e-09
2.03886e-09
-2.69983e-09
-3.35062e-10
-8.32318e-10
-3.03802e-09
-1.83441e-09
5.09906e-09
-9.26549e-10
1.10972e-08
-8.85848e-09
-1.99855e-10
9.77771e-10
7.59147e-09
3.12807e-09
-1.02525e-09
-2.93516e-09
9.47827e-10
-1.39824e-10
3.12176e-09
7.72435e-09
-6.48839e-09
-4.35775e-09
4.11378e-09
-4.42307e-11
-3.02011e-09
5.29949e-09
-9.42179e-11
-9.69085e-09
-7.60787e-09
8.76184e-09
2.37114e-09
-1.04643e-08
-6.68652e-10
7.72657e-09
-1.06029e-08
1.16382e-08
4.19181e-09
-4.24732e-09
2.42662e-09
-2.0525e-11
1.19389e-08
1.89676e-08
-1.56165e-08
-1.38155e-08
-1.82486e-09
1.01895e-08
-9.5695e-09
-3.3327e-09
8.65482e-09
6.47763e-09
-5.91826e-09
-1.01289e-08
6.65891e-10
2.479e-09
-4.13401e-09
-8.01258e-09
1.21261e-08
4.38366e-09
3.75528e-09
-9.96387e-09
-6.29263e-09
2.82451e-09
-2.7923e-09
-8.36628e-10
3.73468e-09
-1.18348e-08
2.18181e-09
-5.35027e-09
7.30824e-09
-6.36368e-10
-8.326e-09
1.65435e-09
2.63705e-09
-6.15318e-09
1.08243e-08
-4.10583e-09
-2.23542e-09
8.97816e-09
-8.83393e-09
4.6473e-10
2.21596e-09
5.87353e-09
-5.96261e-09
-5.47334e-10
-3.75064e-09
5.5184e-09
-5.25305e-09
-7.46125e-09
3.88036e-09
-9.65228e-09
-3.92674e-09
-3.98003e-09
2.20917e-09
2.39201e-09
-4.25433e-09
-4.10028e-09
-1.0633e-09
-2.95309e-10
-7.05173e-09
3.70984e-10
-7.80519e-10
-2.88965e-09
-4.14036e-09
3.04997e-09
2.93918e-10
-6.18806e-09
-1.15755e-09
-8.41361e-09
-9.44807e-10
2.78763e-09
2.22752e-10
5.56662e-10
-3.56702e-09
3.4443e-09
-6.49328e-10
-7.33537e-12
-5.08663e-10
-4.02323e-09
2.5387e-10
-2.13166e-09
-5.86459e-10
-5.69548e-09
-1.26509e-09
-7.05463e-09
-3.66636e-09
-1.00618e-09
-4.70868e-09
-4.28413e-09
1.25165e-09
-6.83272e-09
7.30023e-09
-1.71923e-09
4.53199e-09
-3.43941e-09
1.59054e-10
1.0391e-09
-7.49539e-09
8.57807e-09
-2.12182e-09
-5.71912e-09
-7.45089e-11
-1.83839e-09
-3.53165e-10
6.72351e-09
-2.39725e-09
7.85906e-09
-2.13233e-10
-8.3859e-09
3.39076e-10
3.42404e-09
3.94716e-10
-5.18647e-11
3.64889e-11
6.48369e-10
5.53241e-09
-5.03566e-09
5.61275e-09
2.11317e-09
-3.84939e-10
-4.47759e-09
3.03558e-09
-3.02581e-09
2.97899e-09
4.72452e-12
-2.11235e-09
-4.0689e-09
5.82806e-09
4.91388e-09
4.52284e-09
1.38702e-09
9.41481e-09
-1.01474e-08
-6.54617e-10
-1.12243e-08
9.79386e-10
1.16319e-08
-1.41091e-08
5.09689e-10
3.09166e-10
1.32902e-08
8.75897e-09
-1.2514e-08
-1.03542e-08
-1.7788e-08
1.27749e-08
7.96934e-09
-2.95639e-09
-3.9864e-09
-1.4839e-08
1.03744e-09
-6.2049e-10
2.17094e-09
-6.34675e-09
7.22032e-09
1.05776e-10
9.65187e-09
-8.48932e-09
-5.23486e-09
4.07227e-09
-7.62922e-10
1.09245e-08
6.95065e-10
5.83333e-10
7.48049e-09
-6.88168e-09
-8.56093e-11
-7.73044e-09
1.54378e-09
-9.914e-09
-1.80284e-09
-1.21367e-08
1.0737e-08
-9.88816e-09
6.9812e-09
-2.05049e-08
1.3869e-09
1.66367e-08
-1.48435e-08
5.18781e-09
1.96174e-08
1.01382e-08
4.26418e-09
8.89535e-09
-2.32979e-08
1.57111e-08
-1.71303e-08
-4.76629e-09
-8.19688e-09
-7.54192e-09
5.88475e-09
-2.80111e-09
-1.29719e-08
-1.24425e-08
2.86865e-09
9.28232e-09
1.23625e-09
-1.90079e-08
1.12687e-08
-2.74924e-09
1.00213e-08
9.57298e-09
-1.8358e-08
-1.94455e-09
7.86377e-09
4.102e-09
1.65098e-08
-1.87969e-08
1.18602e-08
1.11577e-08
9.21806e-09
-3.86604e-09
7.38108e-09
1.94297e-09
3.5266e-09
1.54948e-08
4.38135e-09
1.27707e-08
-9.77103e-09
1.73227e-08
5.37187e-09
-7.92743e-09
5.4544e-09
-2.89896e-09
9.14891e-09
-4.2174e-09
4.40382e-10
-5.39425e-09
4.4823e-09
8.18393e-09
-7.272e-09
-1.83819e-08
5.27604e-09
7.71151e-09
5.73139e-10
8.44473e-09
-4.43784e-09
-4.58016e-09
-3.73522e-09
-3.61913e-09
3.46809e-09
5.89405e-10
5.09148e-09
6.42672e-09
-2.19939e-09
5.56906e-09
-5.97249e-10
4.82566e-10
3.47962e-09
5.55751e-09
1.08661e-08
5.46137e-09
-2.92203e-09
-1.34055e-08
8.81843e-09
1.4504e-09
-1.32109e-08
2.90453e-10
5.64523e-09
8.44924e-09
1.03655e-09
9.09093e-09
-1.35179e-10
-6.52211e-09
3.4349e-09
-8.00797e-09
2.97242e-09
4.04375e-09
-9.71802e-09
4.35863e-09
6.3671e-09
-1.00779e-09
-1.09119e-08
4.62874e-09
-2.60273e-09
7.11889e-09
4.72833e-09
7.35413e-09
-8.63366e-10
-7.18102e-09
6.90117e-10
-1.32249e-09
9.9031e-10
7.68614e-09
-7.65921e-09
6.11357e-09
2.23026e-10
7.3617e-09
-7.74701e-09
-4.78198e-10
-1.99812e-09
-8.02519e-11
-5.58096e-09
-1.66512e-09
-7.51407e-09
4.36437e-11
8.30826e-09
4.87528e-09
-1.26053e-08
-1.00343e-08
1.77641e-08
1.2277e-08
4.54838e-09
-1.21445e-08
-4.68118e-09
-9.14813e-10
1.32353e-08
8.21416e-10
-1.02336e-08
-9.53736e-09
3.35943e-09
1.07261e-08
3.33517e-09
-1.46583e-08
-6.28247e-09
-8.85993e-09
-1.17941e-08
6.8362e-10
1.99703e-08
-1.5652e-08
1.31459e-08
6.99709e-09
-4.49103e-09
1.52847e-11
-8.04471e-09
-7.62257e-09
-1.71886e-08
1.09189e-08
1.94155e-08
-9.17927e-09
-7.99404e-09
2.11794e-08
-2.21686e-08
-7.87073e-09
-1.4735e-08
1.74167e-08
1.84977e-08
-1.12472e-08
1.73833e-08
-9.71751e-09
2.51534e-08
-4.51692e-09
6.65662e-09
-8.86774e-09
-1.2268e-08
-8.70535e-09
-2.46272e-08
-2.36465e-09
1.22569e-08
-2.50803e-09
-9.37795e-09
8.09366e-09
-8.43319e-09
1.57634e-09
1.93986e-08
-7.55294e-09
7.65604e-09
-1.72238e-08
-7.21965e-09
1.01608e-08
-6.52238e-09
7.18297e-09
-2.44108e-08
1.05273e-08
9.53868e-09
-1.28831e-08
-4.04109e-09
6.38122e-09
8.18712e-09
-3.50721e-09
8.33274e-09
1.61814e-08
7.52785e-09
2.98184e-09
-3.82325e-09
1.03801e-08
-3.47536e-09
1.51904e-08
-4.68265e-09
-7.03233e-09
9.68185e-09
-4.82447e-09
4.19575e-09
-1.08302e-08
1.67952e-08
-2.14454e-09
9.32209e-09
-1.2233e-08
9.23787e-09
-1.34198e-08
1.64149e-08
5.66047e-09
1.37777e-08
-3.16712e-08
2.37497e-08
-5.96606e-09
-8.55362e-09
-9.23003e-09
1.46458e-08
-1.44741e-08
2.35779e-08
-1.41976e-08
2.83184e-10
2.85602e-08
-2.52908e-08
1.67537e-08
-2.81815e-08
-2.49507e-09
1.62025e-08
-1.82095e-08
-1.59381e-08
-9.55526e-09
1.90763e-08
-1.65495e-09
-5.82578e-10
-1.11823e-08
-1.8403e-08
-1.54414e-08
1.99546e-08
-2.31634e-08
-1.50007e-08
7.87558e-09
9.58394e-09
-1.31769e-08
1.14973e-08
6.07265e-09
-1.1828e-08
-1.26227e-08
1.8378e-08
1.17052e-09
-1.35008e-08
-4.6731e-10
-1.43646e-08
8.4031e-09
-2.23891e-09
8.28184e-09
6.2087e-09
1.46137e-08
3.11553e-09
3.30414e-09
-5.64473e-10
3.77962e-09
1.2501e-08
3.96962e-09
1.21279e-08
5.23901e-09
2.3966e-09
-3.66635e-09
1.72056e-09
1.29574e-08
-9.43894e-09
1.17088e-08
7.79454e-09
1.35444e-09
1.14243e-08
-2.05733e-08
-1.13406e-08
6.79003e-09
1.23451e-08
-2.49763e-08
5.30047e-09
-1.39002e-08
3.35761e-08
-9.08383e-10
-1.49745e-08
-9.09336e-09
1.39926e-08
-8.81363e-09
-6.0874e-09
-3.98627e-09
2.32794e-08
-2.32352e-09
-1.08057e-08
4.31556e-09
6.87967e-09
-1.07876e-08
1.58439e-09
-5.36232e-09
-9.02883e-09
3.05048e-09
9.78717e-09
-2.26755e-08
1.42428e-08
1.27935e-08
-1.37002e-08
-1.40679e-08
8.68048e-09
9.68339e-09
3.13508e-09
-8.17006e-09
-5.77073e-09
-5.83894e-09
-1.81357e-09
-8.12785e-09
-1.94279e-08
4.88026e-09
4.7634e-09
7.68683e-10
-1.37022e-08
-6.43787e-09
-2.10594e-08
-2.09519e-08
1.14497e-08
1.99662e-08
-1.04638e-08
-9.75248e-09
-2.0072e-08
-4.97451e-09
3.47992e-08
-1.04386e-08
-2.02658e-08
9.56019e-09
-2.76976e-09
4.59106e-09
-1.13813e-08
-5.14776e-09
-1.34836e-09
1.60564e-08
1.16533e-08
-1.39978e-08
-4.25185e-10
-3.27123e-09
9.77677e-09
-8.82996e-09
7.75114e-09
-8.87695e-09
9.95585e-09
4.44005e-09
-2.26842e-09
-1.10015e-08
-5.93788e-09
1.60396e-08
-1.43564e-08
1.54155e-08
1.39911e-08
-1.50501e-08
-4.15057e-10
6.27142e-09
-9.1274e-09
6.56425e-09
-9.49741e-09
-7.50528e-09
8.84173e-09
-6.61141e-10
-2.21783e-08
-4.5418e-09
-5.37448e-09
-1.54181e-08
9.06531e-09
4.87391e-09
-1.37276e-08
-2.01671e-09
-4.36722e-09
6.9598e-09
-5.75922e-10
-2.14862e-09
4.35438e-09
-4.22253e-09
-7.984e-09
1.46813e-09
7.03076e-09
-9.41297e-09
5.21568e-09
-2.83351e-09
-5.27885e-09
7.52573e-09
-4.13464e-09
1.88774e-09
6.11119e-09
-4.43024e-09
8.17715e-10
-5.16091e-09
1.18689e-08
-4.97722e-09
-5.58643e-10
1.23803e-08
-3.92455e-09
-7.89714e-09
1.2808e-08
-9.01224e-09
-2.83639e-09
3.78669e-09
7.93272e-09
2.03887e-09
1.00309e-09
8.57084e-09
-5.10761e-09
-4.46625e-09
9.32283e-09
-5.07918e-09
-3.24048e-09
-4.99008e-10
7.58991e-09
1.48001e-09
8.02633e-09
7.9753e-10
-1.10557e-08
5.93225e-09
5.67244e-09
-5.48829e-10
9.37844e-09
6.00944e-09
-7.36147e-09
1.21801e-09
5.28145e-10
7.63243e-09
8.25615e-10
-7.11993e-09
7.51239e-09
9.69722e-09
2.85375e-09
-1.22254e-08
-3.255e-10
1.32634e-08
-5.39465e-09
-2.76429e-09
-5.10433e-09
-1.06193e-08
1.07282e-08
7.16818e-10
-1.0719e-09
1.54191e-09
1.02097e-08
1.57255e-11
5.58288e-09
-7.19161e-09
1.48722e-08
-7.5293e-09
2.49293e-09
5.74417e-10
-9.17559e-09
7.33811e-09
-1.31314e-08
1.04496e-08
-4.65625e-09
-6.97544e-09
8.8383e-09
5.47523e-09
2.28982e-10
-1.19009e-09
-6.01434e-09
-2.37297e-09
-1.05294e-08
-3.5245e-09
-5.28195e-10
1.2891e-08
1.00202e-08
-3.09513e-09
8.92657e-09
-4.02926e-09
-3.64292e-09
-1.25439e-09
2.62925e-09
-3.22418e-09
9.52153e-09
4.66651e-09
-5.18433e-09
-3.51144e-09
6.76757e-09
-1.28908e-10
-1.31117e-08
1.08676e-08
-4.79886e-09
3.43687e-09
-1.86214e-09
-5.87208e-09
-2.56968e-09
-1.25223e-09
-5.12218e-09
-7.25321e-09
4.30029e-09
-3.05419e-09
2.96226e-09
-4.20839e-09
-4.40812e-11
1.48052e-10
5.12723e-09
-5.41314e-10
-7.64018e-09
-1.86192e-09
7.33707e-09
-3.48014e-10
-5.18377e-09
7.86143e-09
-4.53972e-09
4.69401e-09
-1.04191e-08
5.12383e-09
-7.2461e-09
-6.30123e-09
3.34205e-10
-2.38272e-09
-2.5345e-09
-4.11135e-09
-5.40296e-09
1.20703e-11
-4.14174e-09
7.21537e-09
6.12711e-09
-7.74456e-09
-5.59785e-09
5.17803e-09
2.20875e-09
-1.71349e-10
3.15966e-11
4.20563e-09
-2.32558e-10
-4.00462e-09
-5.78621e-09
5.2067e-09
5.75765e-09
3.72509e-10
-2.45628e-09
-2.37482e-09
-6.11994e-10
5.44331e-09
-4.19272e-09
-4.12908e-10
2.14967e-09
-2.13714e-09
2.15012e-09
2.63249e-09
-4.8519e-09
8.23127e-11
-3.18799e-09
-2.66694e-09
3.48019e-09
-6.07722e-10
5.22844e-11
4.00634e-09
7.71718e-10
-9.15242e-09
4.37454e-09
3.82968e-09
-1.33989e-09
1.51664e-09
-1.30083e-08
6.03557e-09
2.01779e-09
2.77628e-09
-4.16248e-09
5.56843e-09
-3.57449e-09
-2.79952e-09
3.70718e-09
-4.17914e-09
-2.99684e-12
5.94874e-09
1.21328e-11
3.13139e-10
-6.27379e-09
8.01241e-09
-6.22607e-09
-3.81376e-09
1.0265e-09
-4.16321e-09
-5.92141e-09
7.3619e-09
8.81516e-09
-1.02558e-08
-6.80569e-09
3.53605e-10
5.30521e-10
5.683e-09
9.82274e-10
1.00297e-10
-6.76571e-09
-5.59443e-10
1.48325e-09
4.75896e-09
-5.56916e-09
-1.17355e-09
4.68215e-09
2.06036e-09
1.27756e-09
-5.86453e-09
-7.3383e-09
1.55912e-09
5.2196e-09
-8.48645e-09
1.24843e-09
-4.25863e-10
-5.82099e-09
-5.58931e-10
2.57894e-10
8.66304e-09
5.33105e-09
-4.47944e-09
3.69745e-09
4.59926e-10
6.57258e-10
5.50806e-09
-3.75449e-09
4.66954e-09
2.96533e-10
1.93291e-09
-6.72722e-10
-4.72942e-09
3.46923e-09
6.46141e-10
-3.81433e-09
5.10108e-09
8.78201e-09
-8.12043e-09
7.88736e-10
5.5511e-09
-4.38092e-09
7.61187e-09
-1.47968e-09
8.81425e-09
-3.06004e-09
-4.27455e-09
-3.09623e-09
-6.50388e-09
-2.16193e-09
-3.25237e-09
6.0605e-09
2.7165e-09
2.17221e-09
-4.75108e-09
-2.15064e-09
-2.35215e-09
7.0999e-10
3.50838e-09
9.24957e-10
-4.23876e-09
2.76353e-10
-5.45119e-10
-6.78989e-09
-2.95262e-09
5.23411e-09
-5.34154e-09
4.03747e-09
-7.53517e-09
-9.46728e-10
3.84572e-09
2.33517e-09
7.38635e-10
4.10175e-09
1.04372e-08
-3.78288e-09
2.44502e-10
1.14047e-08
-1.66322e-08
1.56646e-08
2.12313e-08
3.39465e-10
-1.3941e-08
-1.0817e-09
-6.71447e-09
1.92008e-08
8.57894e-09
-3.31269e-09
2.23218e-08
2.89342e-08
-1.52634e-08
2.59457e-08
1.32337e-08
1.48642e-08
2.58423e-09
-9.15199e-09
2.29344e-08
-6.65623e-09
8.52068e-09
-2.88636e-09
9.61165e-09
2.22089e-08
1.64031e-08
2.77418e-08
-2.72822e-08
-4.34801e-09
1.71032e-09
-4.3786e-09
7.01622e-09
-7.21336e-09
2.8671e-09
-1.73813e-12
-3.61417e-09
1.29154e-09
2.98305e-09
-6.60476e-10
6.39183e-09
-8.44344e-10
-3.83721e-09
-4.38678e-09
1.09097e-09
-1.08281e-09
5.41327e-09
-8.59637e-09
-1.20367e-09
-8.08761e-09
6.2875e-09
4.31084e-10
-3.20597e-09
-8.39318e-10
2.51102e-09
-3.94142e-09
-4.33025e-09
5.76066e-09
3.45132e-09
-5.09239e-10
-1.28085e-09
-1.21565e-09
-5.5911e-09
-2.20213e-09
-7.67508e-09
1.94893e-09
-1.85821e-10
-4.9691e-09
-3.34853e-09
4.08177e-09
-6.32935e-09
3.1795e-09
-5.49043e-09
9.1514e-10
1.39634e-09
-1.07086e-08
5.8003e-09
8.08786e-09
-8.91762e-09
-7.28131e-09
-6.94738e-09
1.96822e-09
1.07796e-08
3.27169e-09
4.35181e-09
-9.02226e-09
1.39901e-09
3.79652e-09
3.65621e-09
-4.18094e-09
-1.07285e-10
-6.5269e-09
-1.01973e-09
-4.60842e-09
7.59656e-09
-2.90832e-09
-4.96346e-09
6.85228e-09
9.09691e-10
4.67473e-09
-1.23242e-09
4.56548e-09
1.4084e-10
2.68162e-09
4.57547e-09
3.56216e-10
-3.89006e-10
-4.16988e-11
-5.01916e-10
-5.65415e-09
2.01462e-09
4.14154e-09
2.34739e-09
4.35695e-09
-7.20619e-09
-8.28344e-09
1.01147e-09
1.61788e-09
-4.87384e-09
-9.60421e-09
7.84392e-09
6.63417e-09
4.65328e-09
-1.07196e-08
1.19249e-09
-1.38262e-09
-4.47548e-09
8.20562e-09
-6.91066e-09
7.54264e-09
-5.63525e-10
-4.42384e-09
-3.29605e-09
-4.66558e-09
8.75536e-09
5.66314e-09
5.85293e-09
8.33515e-10
-1.23495e-08
1.19745e-08
-8.13332e-10
-6.86629e-09
-4.29486e-09
-1.22508e-08
2.22144e-09
-1.41286e-08
1.31452e-08
-1.05901e-08
1.5654e-08
-5.13196e-09
-5.627e-09
-6.15202e-09
7.71008e-09
-9.81134e-10
-1.37585e-08
1.20962e-08
2.64357e-09
8.81251e-09
-1.0862e-08
1.06848e-09
1.31072e-08
3.30235e-09
-2.29368e-09
-1.41158e-08
1.47257e-09
-2.12376e-09
2.55763e-09
-3.37485e-09
1.29136e-08
-7.70977e-10
1.21412e-08
-6.21814e-09
-3.5109e-09
4.25352e-09
5.47554e-09
-9.023e-09
3.24378e-09
-4.38804e-10
3.83825e-09
8.18529e-09
-7.97206e-09
-4.05148e-09
-5.28388e-09
9.92232e-11
-3.40921e-10
-7.21873e-09
7.42275e-09
3.60335e-11
-9.75244e-09
9.33907e-09
-4.43719e-10
4.74826e-10
4.19961e-09
6.43909e-09
-7.45808e-09
1.09408e-08
-6.50847e-09
2.29416e-09
3.54245e-09
-1.14784e-08
3.31903e-09
-5.06044e-09
-3.53039e-09
-3.30242e-09
4.61855e-09
-6.60525e-09
5.28914e-09
-4.95697e-09
1.23338e-09
4.2125e-10
-2.90898e-09
-1.2653e-09
7.52843e-09
-3.35404e-09
-4.20002e-09
9.75676e-10
3.15502e-10
-5.51157e-09
8.86484e-09
5.29385e-09
-4.34004e-09
-5.91073e-09
-9.11818e-10
-3.99562e-10
-8.13104e-09
3.84062e-09
6.91964e-09
-2.62914e-09
-6.43198e-10
-8.88885e-10
-6.59884e-09
-3.36557e-09
3.98984e-10
-4.39252e-09
5.94795e-09
-2.19859e-09
-3.84799e-10
-6.03855e-09
-6.72724e-10
-8.40811e-09
8.19205e-09
-6.7287e-09
1.71596e-09
-9.80645e-09
7.96786e-10
1.73009e-09
7.27935e-09
-1.28006e-10
7.38161e-09
-2.75697e-09
-4.49675e-09
-3.74768e-09
-6.18683e-09
5.31932e-09
-6.07115e-09
8.13328e-09
-6.80926e-09
9.87598e-09
-1.16432e-08
8.57624e-09
2.38727e-09
1.37671e-09
-6.52111e-09
5.64597e-09
-7.00658e-09
1.25221e-08
2.62238e-09
-9.49877e-09
9.5813e-09
3.73743e-09
-2.49026e-09
-3.92392e-09
9.6266e-09
-3.21272e-09
-5.47503e-09
4.1313e-09
-1.14695e-09
-8.25299e-10
-6.64694e-10
-1.58217e-08
6.47169e-09
3.04222e-10
9.04549e-09
-4.37249e-09
-8.82698e-09
1.05779e-08
9.92216e-09
-7.29495e-09
-3.4528e-09
-8.56911e-09
1.45672e-08
2.00298e-08
-8.48739e-09
-1.59151e-08
1.17647e-08
-1.44056e-08
-1.08694e-09
-6.17488e-09
6.92215e-09
3.39713e-10
-5.99102e-09
5.54455e-09
-6.40493e-10
-4.90884e-09
-1.29068e-10
1.1161e-08
-6.12304e-09
-5.23559e-09
2.3557e-09
-2.02891e-09
-7.8123e-09
-2.1181e-10
1.82687e-10
7.84183e-09
-6.68194e-09
-1.67815e-08
1.56511e-08
4.89062e-09
4.76364e-09
-2.92597e-09
-6.72834e-09
2.41684e-10
5.10539e-09
-4.56512e-10
5.4828e-09
4.70149e-09
-3.79357e-09
-6.39076e-09
-2.66562e-10
-1.68515e-09
-4.00418e-09
1.07973e-08
-3.07419e-09
4.61452e-09
6.61355e-09
2.78777e-09
-4.63767e-09
7.76714e-09
3.95179e-09
7.70644e-10
-2.22238e-09
-5.23013e-09
8.63213e-09
-5.07371e-09
-8.94194e-09
-1.08991e-09
4.48645e-09
3.60303e-09
8.92219e-09
6.62836e-10
4.79695e-09
-1.4382e-08
6.52089e-09
1.08503e-09
8.44344e-09
-1.60493e-08
-6.14328e-09
-9.53474e-10
1.60189e-08
6.51479e-09
-1.04559e-08
4.60402e-09
3.89695e-09
1.93637e-09
4.34568e-09
-1.0179e-08
-3.32055e-09
-4.16479e-09
4.8363e-09
2.64903e-09
2.23988e-09
-9.67327e-09
4.11283e-09
-5.30188e-09
3.98143e-09
3.25683e-09
-3.94496e-10
-2.712e-09
-2.19527e-09
-4.76243e-09
1.03238e-08
-1.09872e-08
1.87206e-10
3.44075e-10
-6.21729e-09
-6.82966e-09
2.0597e-09
8.32628e-09
-8.69046e-09
5.51419e-10
7.54528e-09
-4.50979e-09
-4.57513e-09
-8.48719e-09
8.5537e-10
4.4769e-09
-1.29744e-08
7.64203e-09
7.4003e-09
4.27714e-09
-1.08222e-08
9.94597e-09
-7.312e-09
-8.61274e-09
-9.29806e-09
2.45759e-09
-8.4158e-09
4.08018e-09
3.33545e-09
-9.97708e-09
-1.77427e-09
-8.21926e-09
2.25669e-09
4.81179e-09
-1.14914e-08
1.11565e-08
6.20857e-09
-1.05952e-08
-8.5878e-09
-6.81104e-09
-5.40177e-09
-1.07913e-08
9.38191e-09
-4.59826e-10
-3.49214e-09
-1.4498e-09
8.48401e-09
-6.23769e-09
-1.22234e-08
-1.95113e-10
-7.57245e-09
-7.1588e-09
3.93992e-09
-6.57751e-09
-4.48714e-09
-1.87755e-09
-3.40523e-09
-8.1453e-09
-8.91033e-10
-5.12025e-09
-9.60263e-09
-1.4339e-08
2.98093e-09
4.87556e-09
-2.65462e-09
-3.47532e-09
1.98761e-10
4.33242e-09
4.99036e-09
5.63689e-09
1.72516e-09
-2.48648e-09
3.23711e-09
2.59856e-09
1.60752e-09
1.65988e-09
-6.77883e-09
1.74734e-09
-2.79443e-09
-2.3017e-09
3.02478e-09
2.51405e-09
-3.66422e-10
-2.10111e-10
1.26748e-09
3.55906e-09
-3.16666e-09
3.21847e-09
-2.03649e-10
-3.33874e-10
-3.02093e-10
3.16209e-09
-2.52607e-09
2.67945e-09
1.14635e-11
3.2159e-09
-3.63849e-10
-3.80945e-09
3.75659e-09
-2.4921e-10
-2.17734e-09
1.92694e-09
-1.38803e-09
4.39183e-09
-8.38951e-09
5.38566e-09
-1.0112e-08
3.67282e-09
5.05112e-09
2.79004e-09
-7.82587e-09
7.04142e-09
-2.0056e-09
4.76369e-10
6.70551e-09
-6.21784e-09
-1.03028e-09
-1.14136e-09
-7.568e-09
-8.76191e-09
4.2291e-09
4.81964e-09
3.20386e-09
-1.2253e-08
5.87713e-09
4.52879e-09
-6.29988e-09
9.78035e-09
-3.00403e-09
-7.95746e-09
-8.98775e-10
-1.91578e-09
-1.64643e-10
6.23065e-09
-3.32687e-09
3.96048e-09
6.02359e-09
-6.78046e-09
9.21229e-10
-8.57233e-09
5.94527e-09
-5.4332e-09
-2.80941e-09
-7.19996e-09
1.54427e-08
-1.27569e-08
1.35544e-08
-5.35815e-09
7.47624e-09
-3.28073e-09
-9.1606e-10
-3.27941e-09
3.32493e-09
4.24735e-09
-9.60217e-11
1.81604e-09
3.27346e-09
-3.26925e-09
-1.82019e-09
3.87254e-09
-2.47312e-09
4.16712e-10
-1.19152e-09
-2.16583e-09
7.6622e-11
-5.55348e-09
8.51e-09
-2.93665e-09
6.56679e-10
3.66393e-09
-1.92062e-09
-5.01254e-09
-6.98627e-13
-3.63409e-09
8.27963e-09
1.15488e-10
-4.76103e-09
5.12998e-09
-1.30542e-09
-7.45863e-09
-4.59229e-09
-2.70431e-09
5.13077e-09
1.57173e-09
6.21612e-10
5.68657e-09
-2.07397e-09
-2.40283e-09
-5.29999e-09
-1.4562e-08
-1.52431e-09
4.60264e-09
1.14837e-08
-1.39886e-08
2.07686e-09
-2.65028e-09
-9.07532e-09
1.79162e-09
5.7593e-09
-8.52043e-09
-1.45434e-08
-1.08122e-08
2.29951e-09
1.31154e-08
3.22313e-10
-9.05752e-09
3.03917e-09
-1.94796e-08
7.92012e-09
-7.67038e-09
6.68468e-09
4.27062e-09
-3.2848e-09
7.55946e-09
-1.21906e-08
-3.89199e-09
9.85362e-09
7.23034e-10
7.00724e-09
-3.33983e-09
-4.75906e-09
3.08618e-09
-6.16836e-09
7.84105e-09
4.0398e-09
-7.41268e-09
1.27984e-08
8.21191e-09
1.86912e-10
-4.12811e-09
3.45756e-09
2.27691e-10
4.25681e-09
-1.11483e-09
1.37537e-08
-1.20608e-08
-5.78103e-10
-7.69254e-09
-1.29991e-10
6.19193e-09
1.63054e-09
-6.76771e-09
-8.01372e-09
7.08883e-09
-1.43665e-08
5.07032e-11
7.5481e-09
4.76532e-09
-8.40469e-10
3.78621e-09
-7.71107e-09
8.08626e-09
6.05448e-09
-9.37545e-09
-7.91851e-09
-8.14335e-09
4.13118e-09
1.19306e-08
-6.10936e-10
7.58226e-09
3.45598e-09
5.28629e-09
-4.24043e-09
-4.50189e-09
-7.85807e-09
-3.05253e-09
-6.21557e-09
5.47456e-09
2.9146e-10
-3.0189e-09
3.6316e-09
-9.3718e-10
-7.40208e-09
4.70771e-09
4.06801e-09
-1.0242e-09
5.87762e-10
5.27002e-09
-1.04476e-08
-1.05065e-08
-1.8561e-09
2.49017e-09
-6.17229e-09
3.17724e-09
5.04812e-10
-3.18244e-09
5.13698e-09
5.35551e-10
-5.88563e-09
2.23078e-09
4.72391e-10
-8.86848e-10
6.19531e-09
-5.13985e-09
-1.68773e-10
1.84247e-09
-7.02831e-09
5.25904e-09
-7.35524e-11
-5.05209e-09
6.80941e-09
8.4955e-11
-5.60967e-09
-3.29389e-10
-1.42678e-09
3.95397e-09
-2.39497e-09
-1.32264e-10
2.45318e-09
-3.65853e-09
-2.21439e-10
2.2057e-09
-4.88284e-09
3.05226e-09
-3.75076e-10
-2.46722e-09
4.84754e-09
-1.74626e-10
2.74748e-09
-4.79046e-09
-4.24211e-10
-3.06643e-09
-1.61189e-09
4.45335e-09
2.25072e-10
1.9602e-09
-5.1772e-09
1.50595e-10
-4.69199e-09
2.99401e-09
8.60903e-11
-3.70813e-09
5.78541e-09
-2.62378e-09
5.4649e-10
2.05032e-09
-6.05255e-09
2.94134e-10
-1.25934e-09
-3.00712e-09
4.43446e-09
-1.67982e-10
-4.29006e-09
3.38213e-09
-3.514e-10
-4.31021e-09
1.73599e-09
-4.32898e-10
-6.55093e-10
5.09457e-09
-4.00314e-09
-4.3633e-10
-3.9839e-09
3.68556e-09
-3.56714e-10
7.12199e-10
-7.63369e-09
8.35274e-10
-4.81532e-09
-3.23421e-09
8.0221e-09
2.74076e-11
-9.8406e-09
5.5067e-09
-4.81477e-10
3.88694e-09
-6.95658e-09
3.17999e-09
-1.10361e-10
6.37033e-09
-2.69948e-09
2.16066e-10
2.90171e-09
1.97525e-09
-4.89808e-09
2.1108e-11
6.03059e-10
-3.87991e-09
3.19168e-09
8.5169e-11
3.43094e-09
7.38368e-11
2.73667e-09
-6.83851e-09
4.42965e-09
-3.27896e-10
-4.0747e-09
6.90109e-09
-8.97618e-11
-5.13845e-10
3.52132e-09
-2.56433e-09
-4.43098e-10
-2.47126e-09
2.38044e-09
-4.23011e-10
2.37411e-09
2.55959e-09
-5.06841e-09
1.34804e-10
-2.29129e-09
4.40043e-09
2.65062e-10
-3.45189e-09
9.61062e-10
1.99692e-10
1.79241e-09
-5.02283e-09
3.20721e-09
2.32106e-11
3.07505e-09
1.86708e-09
-4.93218e-09
-1.00038e-11
4.68062e-09
1.86832e-10
-3.08102e-09
4.83442e-09
1.13619e-10
4.65574e-09
-5.51831e-09
-4.9447e-09
5.80742e-09
-1.73105e-10
4.32542e-09
5.03407e-10
4.21562e-09
-4.79333e-09
4.04736e-10
-9.49798e-10
4.41171e-09
7.53698e-10
3.04645e-09
-5.12065e-09
2.49846e-09
-4.2418e-10
-1.59182e-09
4.7903e-09
-1.52039e-10
3.65304e-09
-4.88891e-09
-3.55968e-10
-5.07572e-09
5.16217e-11
5.69806e-09
-6.73888e-10
3.5166e-10
-4.48227e-09
-9.45095e-10
-4.45392e-09
5.53893e-09
-7.33368e-10
-4.86239e-09
1.57699e-09
-1.1685e-09
-3.77437e-09
7.19172e-11
3.35507e-09
3.47418e-10
1.73843e-11
5.44711e-11
4.08127e-09
2.48918e-11
-2.0818e-10
4.88278e-09
-4.96204e-09
2.87252e-10
-5.17597e-09
4.8452e-09
1.22417e-10
-2.67399e-09
6.9531e-09
-4.60202e-09
3.22836e-10
4.41653e-09
-7.30113e-09
2.10529e-10
-5.54451e-09
-6.26972e-10
-2.53823e-10
1.95271e-10
-5.21949e-09
-5.20336e-10
-4.74493e-09
-4.27997e-10
-4.51193e-09
-2.20962e-10
-2.60916e-09
5.32999e-09
-2.47267e-09
-2.4814e-10
-5.77756e-09
3.75111e-09
-5.82655e-10
-9.90768e-10
7.09729e-09
-5.52304e-09
-5.83542e-10
-5.23107e-09
4.89334e-09
-6.53115e-10
6.01253e-09
3.69823e-10
-6.24809e-09
-1.34097e-10
1.77367e-09
4.36083e-09
-1.21871e-10
6.51275e-09
-4.9901e-09
2.51085e-10
-2.8211e-09
4.94397e-09
-3.00151e-09
8.78705e-10
1.76076e-09
-5.5312e-09
9.49391e-10
5.47963e-09
-4.77394e-09
1.05509e-09
3.61046e-10
-5.27698e-09
5.00134e-09
-8.5434e-11
6.38848e-09
-6.00206e-09
-2.54726e-11
-1.90202e-09
3.88138e-09
4.93324e-11
-4.62395e-09
2.86921e-09
-1.47323e-10
3.4663e-10
-3.41363e-09
3.79117e-09
-7.24139e-10
4.29428e-09
-3.31494e-09
-6.32701e-10
-1.24101e-09
-3.28521e-09
4.14316e-09
3.83104e-10
2.93005e-09
-4.50483e-09
3.33786e-10
-6.66914e-09
4.07929e-09
3.32873e-09
-7.38863e-10
-4.50879e-09