/*--------------------------------*- C++ -*----------------------------------*\
| =========                 |                                                 |
| \\      /  F ield         | OpenFOAM: The Open Source CFD Toolbox           |
|  \\    /   O peration     | Version:  v1612+                                |
|   \\  /    A nd           | Web:      www.OpenFOAM.com                      |
|    \\/     M anipulation  |                                                 |
\*---------------------------------------------------------------------------*/
FoamFile
{
    version     2.0;
    format      ascii;
    class       volVectorField;
    location    "100";
    object      wallShearStress;
}
// * * * * * * * * * * * * * * * * * * * * * * * * * * * * * * * * * * * * * //

dimensions      [0 2 -2 0 0 0 0];

internalField   uniform (0 0 0);

boundaryField
{
    WALL
    {
        type            calculated;
        value           nonuniform List<vector> 
1501
(
(-0.00589569 -0.013098 0.0103576)
(-0.00693975 -0.0116922 0.0112412)
(0.00633145 -0.00225636 0.0110461)
(0.00646412 -0.00188216 0.0115862)
(0.000631326 -0.00486466 0.00660502)
(0.00302892 -0.00416504 0.00843809)
(-0.005313 -0.00582416 0.00673837)
(-0.00499544 -0.00633292 0.00710918)
(-0.00188553 -0.00557501 0.00332808)
(-0.000458444 -0.00605699 0.00386887)
(-0.00520349 -0.00734381 0.013352)
(-0.00554346 -0.00667831 0.0149718)
(-0.00715899 -0.00305769 0.00971242)
(-0.00679962 -0.00380262 0.00853888)
(-0.0090277 -0.00337149 0.0081349)
(-0.00841294 -0.00316282 0.00823969)
(0.0029329 -0.00399503 0.010579)
(0.00229811 -0.00495851 0.0108038)
(0.00159317 -0.00648639 0.00560028)
(0.00143032 -0.00654963 0.00547265)
(-0.0116088 0.00345287 0.0189686)
(-0.0120373 0.00740806 0.0204892)
(0.00581831 -0.00146143 0.00972867)
(0.0058781 -0.00268895 0.00987069)
(0.0036255 -0.00398867 0.00678869)
(0.00179623 -0.00434025 0.00496671)
(-0.0095149 0.00466128 0.0210113)
(-0.00874093 0.0082406 0.0231614)
(0.00203622 -0.0131582 0.0100664)
(0.00142956 -0.0141138 0.00948964)
(-1.64429e-05 -0.0126319 0.0122107)
(0.00201532 -0.0112992 0.0133775)
(-0.013493 0.0144792 0.0230047)
(-0.0137522 0.0182882 0.023912)
(-0.0131343 0.00192736 0.0143048)
(-0.0122807 0.000220033 0.0127345)
(-0.0108339 -0.000884563 0.0121049)
(-0.011621 0.000774451 0.0136089)
(-0.0115975 -0.00129972 0.00998564)
(-0.0111634 -0.0007952 0.0105414)
(-0.00865003 -0.0067964 0.0148147)
(-0.00872492 -0.00962087 0.0146703)
(-0.00785368 -0.0103829 0.012941)
(-0.00711833 -0.0119793 0.012105)
(-0.0121727 -0.00189733 0.00752103)
(-0.0140481 0.000946593 0.00904379)
(-0.0111844 -0.00178429 0.00878084)
(-0.0130996 -9.32516e-06 0.0118077)
(-0.0177361 0.0197915 0.0243818)
(-0.0171895 0.0175182 0.0223112)
(-0.00219866 0.0164483 0.0240479)
(-0.00514487 0.0171983 0.0251783)
(-0.0114691 -0.00176372 0.0172383)
(-0.0107709 -0.00478193 0.0162436)
(-0.00291371 0.0113574 0.0245241)
(-0.00240267 0.0106572 0.0241914)
(0.00750837 -0.00145593 0.0129769)
(0.0090887 0.00141381 0.0143078)
(0.00343085 -0.00452025 0.00709714)
(0.00496307 -0.00368085 0.00918217)
(-0.00880445 -0.00156575 0.0128688)
(-0.00898431 -0.0004542 0.0154925)
(-0.00434991 -0.0132846 0.0111362)
(-0.00966257 -0.00342419 0.0148357)
(-0.00975394 -0.00174859 0.0140288)
(-0.00869891 -0.00897637 0.0138448)
(-0.00824763 -0.0105094 0.0126663)
(-0.0135749 0.00403111 0.0157064)
(-0.0141906 0.00722513 0.0164227)
(-0.0177627 0.00988182 0.0166962)
(-0.0163683 0.0069941 0.0150007)
(0.000808513 -0.00598695 0.0154911)
(0.002218 -0.00806274 0.0163963)
(-0.00701074 -0.0035216 0.00610489)
(-0.00683445 -0.00439221 0.00699404)
(-0.00762044 -0.00327529 0.00818549)
(-0.00680067 -0.00321955 0.0105104)
(-0.00716491 -0.00362076 0.00873636)
(-0.00744106 -0.00291832 0.00972433)
(-0.00775339 -0.00296717 0.0092203)
(-0.00812838 -6.26686e-05 0.0202194)
(-0.00652432 -4.23288e-05 0.0192444)
(-0.00509998 0.0024067 0.0202297)
(-0.00537639 9.48708e-05 0.0208787)
(-0.00700434 0.00130028 0.0212329)
(-0.00831497 -0.00132552 0.0195926)
(-0.0179943 0.00367258 0.0117405)
(-0.0188054 0.00499213 0.0133221)
(-0.0190172 0.00581276 0.0134652)
(-0.0175491 0.00124724 0.0115229)
(-0.0186109 0.00381115 0.0108238)
(-0.016696 0.00193303 0.0101656)
(0.00090681 -0.00726436 0.00493248)
(-6.29829e-05 -0.00791748 0.00437635)
(0.000353132 -0.00702039 0.00437955)
(0.000387501 -0.00779651 0.00482161)
(-0.000628054 -0.00754536 0.00406768)
(-0.000366523 -0.00721774 0.0040114)
(0.00119389 -0.0079958 0.00961869)
(0.0014057 -0.00808024 0.00936905)
(0.00135214 -0.00765495 0.00805665)
(-0.00915669 -0.00654647 0.0151241)
(-0.0116545 -0.00638248 0.0169232)
(-0.00951503 -0.00620986 0.0167138)
(-0.0120661 0.00445904 0.017632)
(-0.0116065 0.00627552 0.0178107)
(0.00311253 -0.00550401 0.0162958)
(0.00249883 -0.00536144 0.0186606)
(0.00165655 -0.00462413 0.0161386)
(0.0027181 -0.00718243 0.0161387)
(0.0017469 -0.00356276 0.0172323)
(-0.00606158 -0.0125324 0.0115241)
(-0.00549145 -0.0139188 0.0104992)
(-0.00612228 -0.0114075 0.0113364)
(-0.00576846 -0.0130906 0.0107811)
(-0.00565173 -0.0141454 0.0104569)
(-0.00589769 -0.0130336 0.0104084)
(-0.00618747 -0.0123507 0.0110157)
(-0.00685027 -0.01264 0.0112936)
(-0.00105363 -0.010613 0.0121319)
(-0.00343794 -0.0123993 0.0121675)
(-0.000796596 -0.0120331 0.0125658)
(-0.0018023 -0.0123004 0.011734)
(-0.00254339 -0.0107072 0.0123359)
(-0.00319893 -0.0107266 0.0116878)
(0.00216146 -0.00439738 0.0140712)
(0.00133951 -0.00532085 0.013176)
(0.00160278 -0.00328177 0.0129848)
(0.000679114 -0.00509774 0.0122403)
(0.000244733 -0.00402562 0.0112476)
(0.000959897 -0.0033654 0.0119522)
(-0.00395632 -0.00347704 0.0138275)
(-0.00411349 -0.00258185 0.014098)
(-0.002512 -0.00288257 0.0147899)
(-0.00298956 -0.00427551 0.0140221)
(-0.00304172 -0.00368859 0.0152125)
(-0.0047979 -0.00535196 0.00473242)
(-0.00452117 -0.0062347 0.00479251)
(-0.00534851 -0.00565656 0.00535856)
(-0.00426455 -0.00609181 0.00441932)
(-0.00444979 -0.00553183 0.00425568)
(-0.00501251 -0.00581968 0.00531654)
(0.00283505 0.00738649 0.0234332)
(-3.19569e-05 0.00847993 0.022377)
(0.00198174 0.00707449 0.0212142)
(0.000482458 0.00768033 0.0230497)
(0.00308918 0.00666274 0.0231802)
(0.000801685 0.00833435 0.0224117)
(0.00693383 -0.0016945 0.0122124)
(0.0082878 0.00141655 0.0154217)
(0.00677676 -0.00158294 0.0104936)
(0.00825475 0.000585578 0.0138545)
(0.00755807 0.00071406 0.0149417)
(0.0075426 -0.000293616 0.0131787)
(-0.00573477 -0.0126695 0.0117223)
(-0.00523997 -0.0108395 0.0112498)
(0.000708804 -0.00491751 0.00779114)
(-0.00210559 -0.00518437 0.00726987)
(-0.00344466 -0.00474009 0.00596726)
(0.000362272 -0.0053595 0.0082109)
(-0.00473997 -0.00494427 0.00619216)
(-0.00181932 -0.00538713 0.00678953)
(0.00987221 0.00378436 0.0272468)
(0.00777068 -0.00183175 0.0266622)
(0.00919043 0.00131687 0.028766)
(0.00848208 -0.000814982 0.024808)
(0.0100316 0.00185376 0.02406)
(0.00990563 0.00355902 0.0264605)
(0.00471903 -0.00381665 0.0153017)
(0.00927219 -0.000243979 0.0210689)
(0.0072633 -0.00262335 0.0168677)
(0.0087814 -7.94415e-05 0.0194209)
(0.0069574 -0.00253765 0.0198954)
(0.00401449 -0.0051827 0.0177587)
(0.00582871 0.0198438 0.0304954)
(0.00472834 0.0206153 0.0285114)
(0.0105828 0.0159419 0.0309766)
(0.0117182 0.010075 0.0296216)
(0.0121568 0.0133389 0.0297236)
(0.00962884 0.0139201 0.0251761)
(0.00869669 0.0166608 0.028223)
(0.00673009 0.013039 0.0247576)
(0.0106058 0.0150883 0.0269226)
(0.00744878 0.0180072 0.028782)
(0.0130932 0.00849676 0.0227486)
(0.0109815 0.00369794 0.0236713)
(0.01252 0.0103666 0.0270652)
(0.0119377 0.00717069 0.0262392)
(0.0118304 0.00473056 0.0233448)
(0.012372 0.0103094 0.0244069)
(0.00722352 0.000429222 0.0149463)
(0.00765367 0.00138536 0.015802)
(0.0070978 -0.000376058 0.0132058)
(0.00686237 0.00214634 0.0161953)
(0.00747146 0.00281279 0.0163918)
(0.00716191 -0.000553258 0.0139232)
(0.00644672 -0.00111244 0.0122384)
(0.00579905 -0.00281776 0.0107864)
(0.00389694 -0.00417716 0.00859255)
(0.00440361 -0.00342364 0.00913903)
(0.00566776 -0.00279735 0.0101322)
(0.00538782 -0.0029657 0.00954361)
(0.00272584 -0.00413472 0.00719627)
(0.00294474 -0.00471587 0.00777563)
(0.000672814 -0.00524901 0.0073786)
(0.00501901 -0.00361286 0.00973593)
(-0.00328598 0.00804545 0.0227966)
(-0.00188657 0.00571382 0.0229326)
(-0.00571661 0.00481342 0.022038)
(-0.0048719 0.00837549 0.0238981)
(-0.00142441 0.00551692 0.0228482)
(-0.00581947 0.00445765 0.0230937)
(-0.00388839 0.00554416 0.021748)
(0.0074269 0.00341442 0.0187229)
(0.00590845 0.00531258 0.0215345)
(0.00711668 0.00298767 0.0183945)
(0.00584633 0.00600459 0.0205111)
(0.00696836 0.00521655 0.0200892)
(0.00693719 0.00466786 0.0192084)
(-0.00498055 -0.00648788 0.00766367)
(-0.00480286 -0.00613554 0.00819494)
(-0.00513796 -0.00587631 0.00583946)
(-0.00537107 -0.0057887 0.00725375)
(-0.00409749 -0.00557832 0.0105482)
(-0.00388357 -0.0059976 0.0103872)
(-0.00455625 -0.0051552 0.0101497)
(-0.00505969 -0.00540827 0.00959653)
(-0.00427377 -0.00549381 0.00936021)
(-0.00472423 -0.00588616 0.00923601)
(-0.00112797 -0.00532629 0.00358733)
(-0.000893556 -0.0055152 0.0036849)
(-0.0027498 -0.0053981 0.00364194)
(-0.00202962 -0.00571793 0.0035868)
(-0.0018724 -0.00556648 0.00387317)
(-0.00302976 -0.00521403 0.00355698)
(-0.00165045 -0.00579949 0.00348385)
(-0.000541011 -0.00591639 0.00402744)
(-0.00109791 -0.00603651 0.0034574)
(0.000149576 -0.00571027 0.00399033)
(0.00158321 -0.00585931 0.00498934)
(0.00102183 -0.00573486 0.00466956)
(0.000550643 -0.0058096 0.00444506)
(-0.000402366 -0.00588876 0.00399751)
(0.00145272 -0.00601818 0.00521455)
(0.00181244 -0.0058306 0.00512726)
(0.00224344 -0.00564018 0.00609608)
(0.00215873 -0.0058362 0.00611513)
(0.00107203 -0.00593045 0.00494622)
(0.00254511 -0.0055441 0.00658615)
(-0.00453878 -0.00474809 0.00364835)
(-0.00340415 -0.00537788 0.00347957)
(-0.00456561 -0.00472637 0.00365701)
(-0.00342777 -0.00519907 0.00332489)
(-0.00391064 -0.00491532 0.00348128)
(-0.00529387 -0.00464981 0.00441877)
(-0.00496534 -0.00468193 0.00451003)
(-0.00397177 -0.00538816 0.00443569)
(-0.00269299 -0.00515124 0.00380649)
(-0.00267062 -0.0050794 0.00376154)
(-0.00398666 -0.00554122 0.00417345)
(-0.00796127 -0.0034609 0.00639993)
(-0.00787237 -0.00363029 0.0062939)
(-0.00950524 -0.00316809 0.00902004)
(-0.00824833 -0.00382654 0.00689668)
(-0.00959001 -0.00275569 0.00914216)
(-0.00880016 -0.00327044 0.00793318)
(-0.00722404 -0.0046279 0.00626328)
(-0.00714856 -0.00371974 0.00572751)
(-0.00567508 -0.00479176 0.00450313)
(-0.00490215 -0.00464573 0.00396287)
(-0.0071316 -0.00406635 0.0054658)
(-0.00627053 -0.00404262 0.00501384)
(-0.00604902 -0.00480189 0.00519406)
(-0.00487624 -0.00485833 0.00403113)
(-0.00592654 -0.00478897 0.00497831)
(-0.0070253 -0.004359 0.00558596)
(-0.00791712 -0.00449672 0.00647409)
(-0.0055573 -0.004329 0.00453972)
(-0.00724477 -0.00376264 0.00574385)
(-0.00626778 -0.00451449 0.00511662)
(0.000798297 -0.0071544 0.0127889)
(-5.19158e-05 -0.00713539 0.0125022)
(8.19751e-06 -0.00876123 0.0121291)
(0.000623336 -0.00838995 0.0130784)
(-0.00100636 -0.00891343 0.0122721)
(-0.00114877 -0.00769678 0.0118378)
(0.00205665 0.0114244 0.0218866)
(0.00350846 0.00700686 0.0192287)
(0.00272501 0.00895208 0.0201555)
(0.00176397 -0.00139844 0.0129068)
(0.00136233 -0.00166868 0.0120765)
(0.00288372 -9.60951e-05 0.0145598)
(-0.00712858 -0.00295494 0.0118246)
(-0.00488466 -0.003139 0.0104276)
(-0.005961 -0.00354285 0.0112293)
(-0.0225131 0.00830266 0.0194115)
(-0.0218269 0.00498424 0.0188409)
(-0.00782928 -0.00638283 0.01936)
(-0.00513647 -0.0070445 0.0238846)
(-0.0102888 -0.00620148 0.0205642)
(-0.00748705 -0.0110859 0.0121901)
(-0.00820475 -0.00974757 0.0131585)
(-0.00834742 -0.0111525 0.0133161)
(-0.00737939 -0.011635 0.0118385)
(-0.00762778 -0.00948788 0.0131726)
(-0.00758088 -0.011022 0.0118447)
(-0.0104085 0.000278607 0.0149901)
(-0.0107671 -0.0010855 0.0143775)
(-0.00817051 -0.00278438 0.0127349)
(-0.00955526 -0.000595623 0.0138077)
(-0.0105662 -0.000384464 0.0154143)
(-0.0113422 0.0010134 0.0160324)
(-0.0105242 -0.00354281 0.0163899)
(-0.00957079 -0.00149946 0.0180707)
(-0.0100951 -0.00493169 0.0165049)
(-0.0102476 -0.00279857 0.0174777)
(-0.00977456 -0.00471197 0.0172701)
(-0.00976666 -0.00295415 0.0184541)
(-0.00920157 -0.0074144 0.0135246)
(-0.00828828 -0.00667606 0.0131926)
(-0.0101802 -0.00643882 0.0147967)
(-0.00969453 -0.00521166 0.0138308)
(-0.00835175 -0.00797349 0.0133713)
(-0.0101752 -0.00519995 0.0147641)
(-0.00756571 -0.0116261 0.0121498)
(-0.00835196 -0.0112708 0.0131849)
(-0.00865106 -0.00970709 0.0127632)
(-0.00704129 -0.0118592 0.0117951)
(-0.00729475 -0.0110729 0.0115976)
(-0.00698639 -0.00979766 0.0124851)
(-0.00660192 -0.0114877 0.0120541)
(-0.007914 -0.00944504 0.0127115)
(-0.00536804 -0.0115938 0.0118569)
(-0.00581132 -0.0104394 0.0119736)
(-0.00781219 -0.0105611 0.0127946)
(0.00311723 0.00881152 0.0247849)
(0.0013301 0.00955071 0.0233238)
(0.00167185 0.00975855 0.0249992)
(-0.00291788 0.0121441 0.0228251)
(0.000341813 0.00777654 0.0231109)
(0.000691464 0.00816722 0.0217311)
(-0.00072526 0.010754 0.0250873)
(-0.00189136 0.0130957 0.0232688)
(-0.00198692 0.0079582 0.0247452)
(-0.00425021 0.0175258 0.0249089)
(-0.0057706 0.0213095 0.0244639)
(-0.00920598 0.019399 0.0245322)
(-0.00696821 0.0186291 0.0233956)
(-0.00355128 0.0144437 0.0256541)
(-0.00826919 0.0217187 0.0260797)
(-0.0144468 0.0227008 0.0237533)
(-0.0167938 0.0228829 0.0244373)
(-0.0115987 0.0217225 0.0229698)
(-0.014524 0.0246031 0.0262267)
(-0.0179775 0.0214333 0.0234726)
(-0.0165913 0.0228253 0.0252134)
(-0.0216631 0.0121024 0.0202879)
(-0.0217507 0.0150461 0.0206622)
(-0.0209614 0.0137683 0.0188443)
(-0.0203982 0.0162954 0.0205412)
(-0.0206093 0.0170579 0.0216721)
(-0.0101636 0.0160962 0.0236592)
(-0.00758329 0.0152392 0.023458)
(-0.00663611 0.0130072 0.0233451)
(-0.00603413 0.0136795 0.0239501)
(-0.00874296 0.0127947 0.0234278)
(0.00392428 -0.0066886 0.0159757)
(0.00380531 -0.00699988 0.0156979)
(0.00372807 -0.0077651 0.0158044)
(0.00409534 -0.00577094 0.0175125)
(0.00414255 -0.00524677 0.0172601)
(0.00385818 -0.00655062 0.0174895)
(-0.00203674 -0.00503662 0.00386126)
(-0.0010763 -0.0051131 0.003916)
(0.000219353 -0.00488382 0.00435847)
(-0.000114868 -0.00475735 0.00429403)
(0.000556751 -0.00483962 0.00446784)
(-0.00174441 -0.00477273 0.0038244)
(-0.000120073 -0.00489262 0.00384974)
(-0.000495762 -0.00509782 0.00384779)
(0.00134884 -0.00493752 0.0049257)
(0.000599476 -0.00551643 0.00443847)
(0.00110518 -0.00486526 0.00452349)
(0.00212085 -0.00478227 0.00500016)
(-0.0100893 -0.00292908 0.00694426)
(-0.0128732 -0.00138751 0.00896367)
(-0.0127923 -0.00197838 0.00772087)
(-0.0125711 -0.00136759 0.00892171)
(-0.0105167 -0.00326729 0.00716826)
(-0.0111949 -0.00232924 0.00770129)
(-0.00577756 -0.00503678 0.00533903)
(-0.00410141 -0.0054962 0.00499935)
(-0.00389574 -0.00519741 0.00529457)
(-0.00545789 -0.00528502 0.00548954)
(-0.00225923 -0.00560054 0.00518314)
(-0.00169152 -0.00514305 0.00472877)
(-0.00299248 -0.00489587 0.00424095)
(-0.00608081 -0.00463422 0.00562183)
(-0.00924561 -0.00362569 0.00684256)
(-0.00945043 -0.00357275 0.00696409)
(-0.00594743 -0.00484346 0.00566325)
(-0.00787719 -0.00400904 0.00624561)
(-0.00735012 -0.0048752 0.00651143)
(0.0026431 -0.0110848 0.0132115)
(0.00248313 -0.0106217 0.0117429)
(0.00256376 -0.0104309 0.0124863)
(0.00222305 -0.00974802 0.0128434)
(0.00246085 -0.00942778 0.0130836)
(0.00264068 -0.0106004 0.011574)
(0.000996303 -0.00645156 0.0134803)
(0.00168253 -0.00838837 0.0134117)
(0.00168016 -0.0085778 0.0151922)
(0.0023043 -0.00818784 0.0143182)
(0.0010378 -0.00862147 0.0138529)
(0.00219817 -0.012898 0.0103716)
(0.00256462 -0.0120269 0.0108429)
(0.00182359 -0.0142352 0.0103573)
(0.0016635 -0.0135317 0.0099215)
(0.00230105 -0.0121919 0.0108122)
(0.00244796 -0.0138662 0.0115089)
(-0.00651039 -0.00875292 0.0130564)
(-0.00653178 -0.00858502 0.0147021)
(-0.00713745 -0.00890821 0.014373)
(-0.00634356 -0.00925097 0.0143733)
(-0.00720132 -0.00974685 0.0136679)
(-0.00715681 -0.0105832 0.0137008)
(-0.00508333 -0.00761966 0.0147301)
(-0.00632372 -0.00775313 0.0154718)
(-0.00326475 -0.0102159 0.0124567)
(-0.00416615 -0.00991989 0.0126468)
(-0.00376065 -0.0104902 0.0122786)
(-0.00432295 -0.0105448 0.0120469)
(-0.00349008 -0.00907299 0.0126644)
(-0.00422544 -0.00995151 0.0118106)
(-0.00625903 -0.00410168 0.0156701)
(-0.00585397 -0.00481426 0.0166106)
(-0.00512168 -0.003231 0.0170161)
(-0.00609184 -0.00405527 0.0172534)
(-0.00495526 -0.00429473 0.016628)
(-0.00621895 -0.00489753 0.0159974)
(-0.0072411 -0.00809741 0.0143392)
(-0.00780632 -0.00885696 0.0141103)
(-0.00772379 -0.00603288 0.0150153)
(-0.0085009 -0.00792159 0.0157602)
(-0.00681067 -0.00709409 0.0144397)
(-0.00429954 -0.000247136 0.0184848)
(-0.00236116 -0.00148928 0.0172202)
(-0.00128208 0.000180648 0.0187312)
(-0.00361425 -0.000352528 0.0171743)
(-0.00254373 -0.000465219 0.0188227)
(-0.00136995 -0.00199135 0.0181841)
(-0.0065475 0.000800325 0.0188801)
(-0.0051286 0.00184287 0.019342)
(-0.00824512 0.00184252 0.0178105)
(-0.00719676 0.00291411 0.0192186)
(-0.0057889 0.00224706 0.0207841)
(-0.00788868 0.00119014 0.0179956)
(-0.0079813 -0.00419611 0.00665012)
(-0.00868239 -0.0040827 0.00695754)
(-0.0106136 -0.00259027 0.00871719)
(-0.00948442 -0.00338157 0.00734142)
(-0.00984884 -0.00320614 0.00772621)
(-0.00969658 0.000180946 0.0138178)
(-0.0100537 0.001012 0.016175)
(-0.00891554 0.000323845 0.0152076)
(-0.0111901 0.000869831 0.0150685)
(-0.0103624 0.000195328 0.0127597)
(-0.0126735 0.00412471 0.0168788)
(-0.0126294 0.00533701 0.0185912)
(-0.0132252 0.00469876 0.0165817)
(-0.0139291 0.0025341 0.0142787)
(-0.0129855 0.00206914 0.0162933)
(-0.00889087 0.00677909 0.0209038)
(-0.0101499 0.00556238 0.0190347)
(-0.00878827 0.00669341 0.021638)
(-0.0113926 0.00581892 0.02036)
(-0.010834 0.00736785 0.0213368)
(-0.00981775 0.00594927 0.0207442)
(-0.011213 0.0137964 0.0203775)
(-0.0152997 0.0141538 0.020182)
(-0.0153762 0.0122243 0.0193154)
(-0.0173382 0.0141547 0.0194222)
(-0.0132189 0.0121667 0.0199829)
(-0.0182429 0.00582531 0.0135164)
(-0.0182461 0.00827406 0.0143533)
(-0.0174274 0.00658844 0.0156307)
(-0.0171016 0.00579081 0.0132488)
(-0.0169215 0.0106854 0.0191159)
(-0.0182613 0.00929856 0.0165723)
(-0.000569332 -0.0122089 0.0110791)
(0.000443681 -0.011661 0.0123741)
(0.000906758 -0.0126495 0.0116615)
(0.00144717 -0.012859 0.0128219)
(0.00124969 -0.01174 0.0123173)
(-0.000547974 -0.014257 0.0122042)
(0.00126513 -0.0137614 0.0110668)
(0.000816304 -0.0150433 0.0104563)
(0.00199974 -0.013109 0.0111666)
(0.00134437 -0.0140511 0.0101735)
(0.00152211 -0.0140062 0.0110239)
(0.00054908 -0.0146098 0.0105994)
(-3.77158e-05 -0.0141191 0.0105069)
(-0.00142612 -0.0142842 0.0106271)
(-0.00113849 -0.0133309 0.0105722)
(0.000311501 -0.0143587 0.0112784)
(0.000174526 -0.0139228 0.0114784)
(-0.00141398 -0.013192 0.0102938)
(0.000565953 -0.00111622 0.0199334)
(0.00172998 0.000111305 0.021085)
(-0.000338062 0.000579658 0.0219751)
(0.00242138 -0.00181661 0.0199106)
(0.00203094 -0.00233895 0.0204055)
(3.83958e-05 0.000209018 0.0217356)
(-0.000705638 -0.0048909 0.0152982)
(1.09101e-06 -0.00363861 0.0167933)
(0.000250253 -0.00505307 0.0155648)
(0.000718799 -0.00436579 0.0159657)
(-0.00119874 -0.00359505 0.0164854)
(0.00327988 -0.00831067 0.015305)
(0.00334021 -0.00988061 0.0139036)
(0.00318495 -0.0105332 0.0141312)
(0.0034361 -0.00948124 0.0152482)
(0.0030653 -0.00908345 0.0149389)
(0.00345021 -0.00963934 0.0143232)
(0.0038544 -0.00377534 0.0189403)
(0.00413047 -0.00108435 0.0217533)
(0.00408858 -0.00280847 0.0193781)
(0.00403353 0.000175182 0.0222646)
(0.00343405 -0.00236102 0.0190125)
(0.00338472 -0.000260074 0.020154)
(-0.000451597 -0.00609708 0.0140606)
(-0.00139855 -0.00587511 0.0127554)
(-0.0010881 -0.00485526 0.0141578)
(-7.1792e-05 -0.00687589 0.0133415)
(-0.00192624 -0.0053805 0.0142313)
(-0.000721865 -0.00618891 0.0129213)
(0.000977378 0.00254694 0.0198565)
(0.000490592 0.00469349 0.0204185)
(0.0021529 0.00246276 0.0178727)
(-0.00116259 0.00156455 0.0200502)
(-0.00136229 0.00427883 0.0196291)
(0.00225639 0.00309265 0.0189482)
(-0.00284688 -0.00476897 0.00562822)
(-0.00333456 -0.00485215 0.00556527)
(-0.00661472 -0.00450978 0.00604319)
(-0.00501151 -0.00430641 0.00528424)
(-0.00458414 -0.00462754 0.0050709)
(-0.00670313 -0.00468159 0.00601138)
(-0.00821888 -0.00432825 0.00699278)
(-0.00697149 -0.00363115 0.00502369)
(-0.0108007 -0.00362586 0.00739413)
(-0.00582264 -0.00468968 0.00635685)
(-0.0112864 -0.0028714 0.00687515)
(-0.00863272 -0.0041533 0.00632444)
(0.00260222 -0.000410765 0.0154775)
(0.00329788 0.000806778 0.0158532)
(0.00389826 -0.000720692 0.0133814)
(0.00230846 0.000221101 0.0157277)
(0.00358088 -0.000108128 0.0140796)
(0.0045471 0.000377007 0.0146091)
(0.00520599 -0.00199666 0.00919207)
(0.00514361 -0.00259481 0.0107296)
(0.00580172 -0.00106972 0.0116646)
(0.00557121 -0.000365 0.0122024)
(0.00506091 -0.0014425 0.0115345)
(-0.0120918 0.0096731 0.0218462)
(-0.0092369 0.0139747 0.0241848)
(-0.0101689 0.0115633 0.0244822)
(-0.011806 0.0097528 0.0237188)
(0.00213988 -0.00689962 0.00867807)
(0.00207065 -0.00656255 0.00796835)
(0.00222142 -0.00617105 0.00813648)
(0.00167482 -0.00698857 0.00888608)
(0.00204748 -0.00605809 0.0090771)
(0.001827 -0.0058345 0.00920079)
(0.0036823 -0.00445151 0.00900219)
(0.00350421 -0.00496996 0.00796643)
(0.00334227 -0.00397195 0.00864555)
(0.00401807 -0.00349423 0.00940056)
(0.00321418 -0.00449315 0.00693856)
(0.00341779 -0.00413227 0.00712559)
(0.00210473 -0.00351681 0.0129058)
(0.00177626 -0.0043277 0.0125005)
(0.00337568 -0.00288861 0.0113265)
(0.00292135 -0.00268035 0.0123366)
(0.00244619 -0.00390035 0.010885)
(0.0031701 -0.00449002 0.00960768)
(-0.0161774 -0.0014853 0.0108897)
(-0.0180093 0.000445434 0.0119493)
(-0.0138304 -0.00404919 0.012465)
(-0.0153628 -0.00328115 0.0140093)
(-0.0145036 -0.00226963 0.0099962)
(-0.0168163 -0.00124098 0.0133594)
(0.00078264 -0.00530235 0.00590306)
(0.0019538 -0.00442884 0.00608014)
(0.00220879 -0.00491284 0.00667145)
(0.00432497 -0.00348306 0.00726073)
(0.00217524 -0.00469208 0.00559124)
(0.000630107 -0.00516609 0.00545768)
(0.000349564 -0.00483354 0.00584162)
(0.000941605 -0.0051593 0.00656192)
(-0.00129719 -0.00517183 0.00582918)
(-0.00315891 -0.00504384 0.00525375)
(-0.00249444 -0.00508058 0.00527036)
(-0.000962548 -0.00518111 0.0053297)
(0.000403528 -0.00255029 0.0108109)
(-0.00019706 -0.00314163 0.0104323)
(-0.0078443 -0.00229333 0.0116728)
(-0.00801391 -0.00252837 0.0107508)
(-0.00796931 -0.0012593 0.0127571)
(-0.00771702 -0.00137403 0.0126594)
(-0.00825889 -0.000648862 0.0114467)
(-0.00829541 -0.0023991 0.0107403)
(-0.00669069 -0.00200795 0.0112896)
(-0.0055689 -0.00172578 0.0133371)
(-0.0063904 -0.00243082 0.0110071)
(-0.00502422 -0.00270754 0.0122909)
(-0.00577859 -0.00296238 0.0116711)
(-0.00629099 -0.00247132 0.0130617)
(-0.00646292 -0.00448055 0.00686053)
(-0.00669987 -0.00371946 0.00726046)
(-0.00589083 -0.00457532 0.00558322)
(-0.00613156 -0.0049749 0.00642036)
(-0.0057835 -0.00445573 0.00550206)
(-0.00625694 -0.00421153 0.00702501)
(0.010103 0.00859237 0.0225741)
(0.00947778 0.0105134 0.0232174)
(0.010307 0.00465554 0.0186063)
(0.0110507 0.00801353 0.0191693)
(0.0110809 0.0046856 0.0213924)
(0.0112445 0.0077299 0.0230448)
(0.00984595 0.0101564 0.0222677)
(0.0111226 0.00294777 0.0187567)
(0.0104863 0.00214325 0.017359)
(0.00991534 0.00163182 0.0168371)
(0.00962239 0.00467624 0.0195306)
(0.00971085 0.0032967 0.0167105)
(0.00662546 0.00810251 0.0208924)
(0.0094748 0.00692437 0.0200421)
(0.0101242 0.0094133 0.021674)
(0.00743947 0.00831991 0.0243488)
(0.00815608 0.00669709 0.0201536)
(0.00871312 0.00564487 0.0192261)
(-0.00628536 -0.00366766 0.0101635)
(-0.00590704 -0.00412789 0.00456237)
(-0.00574419 -0.00421838 0.00459768)
(-0.00547247 -0.00446125 0.0050637)
(-0.00605121 -0.00420872 0.00513005)
(-0.00810402 -0.00371459 0.00707077)
(-0.00665463 -0.00402474 0.00570301)
(-0.0074669 -0.00371115 0.00678365)
(-0.0067977 -0.0040804 0.00575457)
(-0.00903565 -0.00226571 0.0101406)
(-0.00880105 -0.0027075 0.00903632)
(-0.0033322 -0.000213782 0.0183518)
(0.00392636 -0.00312436 0.0110655)
(0.00070812 -0.00814224 0.00522854)
(0.000936953 -0.00822806 0.00583333)
(0.00144031 -0.00756471 0.00605548)
(0.00121366 -0.00698088 0.00541591)
(0.00187907 -0.00631124 0.00628856)
(0.00120599 -0.00685175 0.00538416)
(0.00210659 -0.00644246 0.00677585)
(0.00173335 -0.00676418 0.00639968)
(0.00144521 -0.00725076 0.00637744)
(0.00191824 -0.00642346 0.00673248)
(0.00167298 -0.00780325 0.00708394)
(0.00152165 -0.00801292 0.00798097)
(0.00225835 -0.00630205 0.00769819)
(0.000856723 -0.00752301 0.0106923)
(0.00101341 -0.00814181 0.0103748)
(0.00109206 -0.00793059 0.0103575)
(0.00117874 -0.0065667 0.0112268)
(0.00157607 -0.00791827 0.00970833)
(0.00132505 -0.0066544 0.010459)
(-0.0192118 -0.00050212 0.0194041)
(-0.020398 0.00092636 0.0181682)
(-0.0209059 0.00324331 0.0155382)
(-0.0188636 -0.000785297 0.0170969)
(-0.0159161 -0.00286998 0.0158176)
(-0.0188331 0.000339381 0.0151365)
(-0.0105456 -0.00492255 0.0102225)
(-0.0122171 -0.00390903 0.00977285)
(-0.0155792 -0.00443096 0.0187628)
(-0.0178496 -0.00259192 0.0194371)
(-0.0119579 0.00285781 0.0177029)
(-0.011393 0.00694562 0.0196278)
(-0.0118416 0.003355 0.0183027)
(-0.00737537 0.0108229 0.0248391)
(-0.0117536 0.0050294 0.0203214)
(-0.0118101 0.00850451 0.0217181)
(-0.0119631 0.00565098 0.02176)
(-0.0116692 0.00518285 0.0198058)
(-0.00928697 0.011062 0.0251317)
(-0.00974782 0.0107828 0.0237571)
(-0.00964511 0.00794691 0.0224239)
(-0.0108929 0.00883715 0.0231323)
(-0.0107687 0.00723619 0.0213851)
(0.00412897 -0.00307846 0.0111766)
(0.00320731 -0.00182022 0.0127621)
(0.00390777 -0.00211956 0.0123683)
(0.00336409 -0.00418638 0.00621073)
(0.00296656 -0.00445452 0.00589271)
(0.00256007 -0.00440168 0.00572756)
(0.00456799 -0.00343273 0.00724373)
(0.00512568 -0.00318249 0.00846084)
(0.00453411 -0.00350237 0.0076782)
(0.00376557 -0.00380798 0.00693839)
(0.00528912 -0.00254823 0.0091616)
(0.00296206 -0.00431331 0.00584111)
(0.00409403 -0.00375098 0.00792831)
(0.00358071 -0.00421173 0.00669083)
(0.00487754 0.00236417 0.0166368)
(0.00590615 0.00204897 0.0162961)
(0.00407412 -0.00173881 0.0124422)
(0.00460331 -0.00181129 0.012194)
(0.00477612 -0.00102913 0.0123495)
(0.00446652 0.00167136 0.0161584)
(0.00550579 0.00110849 0.0145741)
(0.00497412 0.000111771 0.0137033)
(0.00346043 -0.00108668 0.0136334)
(0.00357017 0.00227511 0.0164374)
(0.00515932 -0.0027363 0.00836143)
(0.00633826 -0.000898612 0.0109887)
(-0.00500238 -0.00423424 0.0050795)
(-0.00205886 0.000876234 0.0197132)
(-0.00215234 8.78705e-05 0.0171592)
(-0.00144144 0.000748236 0.0196337)
(-8.3472e-05 0.00160537 0.0180131)
(0.000546164 -0.000102945 0.0179166)
(-0.0107373 0.00493097 0.0212101)
(-0.01172 0.00450879 0.020561)
(-0.0106295 0.00351076 0.0203222)
(-0.00996094 0.00299344 0.0213459)
(0.00283562 0.000287174 0.0223723)
(0.00248116 0.00179665 0.0229114)
(0.0024178 -0.00914484 0.0140716)
(0.00411709 -0.00426565 0.017017)
(0.00355038 -0.00467402 0.0186294)
(0.00365735 -0.00501464 0.0173195)
(0.00149366 -0.00805936 0.0149983)
(0.00224499 -0.00789374 0.0146345)
(0.00201853 0.00179743 0.0216325)
(0.00224239 -0.000148307 0.021482)
(0.00324742 -0.00245596 0.0196041)
(0.00378703 -0.00872487 0.015573)
(0.0038388 -0.00852716 0.0174581)
(0.00340253 -0.00741333 0.0167461)
(-0.000666149 -0.0149123 0.0104783)
(0.00274967 -0.00964832 0.0141027)
(0.00267588 -0.00922168 0.0140777)
(0.00285928 -0.0104623 0.013971)
(0.00310487 -0.0102848 0.0136621)
(0.0029144 -0.0100993 0.0124523)
(0.00291646 -0.0104603 0.012822)
(0.00239616 -0.0121938 0.011719)
(0.00221184 -0.0133502 0.0113692)
(0.00268196 -0.011938 0.0123982)
(0.003731 -0.00984455 0.0157005)
(0.00337303 -0.0079183 0.0158742)
(0.00338709 -0.00902585 0.0150501)
(0.00305903 -0.0100438 0.0147935)
(0.00192268 -0.0102998 0.0130024)
(0.00275277 -0.0105803 0.0135929)
(-0.0183837 0.0129121 0.0182246)
(-0.0101373 0.00857495 0.0220133)
(-0.00946668 0.00790293 0.021573)
(-0.00647944 0.00793876 0.0230989)
(-0.0083964 0.00918499 0.0211984)
(-0.0162613 0.00357326 0.0125683)
(-0.0156081 0.00261877 0.0132938)
(-0.0141096 0.00215274 0.0129307)
(-0.0107531 -0.00179746 0.0106635)
(-0.0104128 -0.00121884 0.0117402)
(-0.0102795 -0.00177885 0.0102558)
(-0.0113267 0.00407869 0.0179186)
(-0.0109768 0.00335184 0.0187756)
(-0.00938113 0.00302134 0.0190607)
(-0.011737 0.00246057 0.0175206)
(-0.00977772 0.00391099 0.0186895)
(-0.0110503 0.000268262 0.0132349)
(-0.0108291 0.00215845 0.0165267)
(-0.00928649 0.00232244 0.0168942)
(-0.00997481 0.00281942 0.0177815)
(-0.0122099 0.0019223 0.015849)
(-0.0112006 0.00111797 0.0147569)
(-0.011412 -0.000840662 0.0124017)
(-0.00980853 -0.00184443 0.00912726)
(-0.00983382 -0.00292218 0.0083161)
(-0.0109115 -0.0015662 0.00946802)
(-0.00900938 -0.00312973 0.00701366)
(-0.00181446 0.00137072 0.0204371)
(0.000829948 0.00280624 0.0230337)
(-0.00351045 0.000237927 0.0196376)
(0.00280025 -0.00513885 0.00993658)
(0.00223423 -0.00563551 0.00971654)
(0.0013566 -0.00431042 0.0132225)
(0.00159731 -0.00581273 0.0112393)
(0.0018805 -0.00581335 0.0109764)
(0.00124354 -0.0047845 0.0124912)
(0.00208707 -0.00541858 0.0113884)
(-0.00947313 -0.00575747 0.0150108)
(-0.00842458 -0.00686945 0.0158608)
(-0.00843396 -0.00501781 0.0165222)
(-0.00841555 -0.00397263 0.0162129)
(-0.0092617 -0.00574767 0.0165254)
(-0.00407403 -0.00213421 0.018026)
(-0.00552627 -0.00136205 0.0177817)
(-0.00413831 -0.00285665 0.0174307)
(-0.00815131 -0.00499021 0.0170633)
(-0.00738487 -0.0058717 0.0161798)
(-0.00607513 -0.00295136 0.0172811)
(-0.00736765 -0.00360147 0.0172898)
(0.000369866 -0.0082421 0.0113028)
(-0.000899793 -0.0088245 0.0117869)
(-0.00626005 -0.00669918 0.0151654)
(-0.0049683 -0.00569494 0.015264)
(0.00066465 -0.00505432 0.013141)
(0.000694046 -0.00602573 0.0125837)
(0.000206833 -0.00620398 0.0125283)
(0.000233939 -0.0079113 0.0122477)
(-0.000778817 -0.00787637 0.012356)
(-1.86288e-05 -0.00688648 0.0119417)
(-0.00398744 -0.00565504 0.015574)
(-0.00387212 -0.00335046 0.01612)
(-0.00256125 -0.00219477 0.0161704)
(-0.00285791 -0.00398113 0.0162874)