/*--------------------------------*- C++ -*----------------------------------*\
| =========                 |                                                 |
| \\      /  F ield         | OpenFOAM: The Open Source CFD Toolbox           |
|  \\    /   O peration     | Version:  v1612+                                |
|   \\  /    A nd           | Web:      www.OpenFOAM.com                      |
|    \\/     M anipulation  |                                                 |
\*---------------------------------------------------------------------------*/
FoamFile
{
    version     2.0;
    format      ascii;
    class       volScalarField;
    location    "100";
    object      p;
}
// * * * * * * * * * * * * * * * * * * * * * * * * * * * * * * * * * * * * * //

dimensions      [0 2 -2 0 0 0 0];

internalField   nonuniform List<scalar> 
17068
(
0.545075
0.554651
0.547117
0.550887
0.559973
0.55197
0.553539
0.540921
0.54214
0.536831
0.540328
0.548645
0.545382
0.552678
0.551143
0.537568
0.54911
0.544686
0.46431
0.463054
0.464425
0.462853
0.46358
0.462254
0.463055
0.4649
0.464808
0.463195
0.463099
0.463073
0.464296
0.462843
0.626471
0.616757
0.601908
0.619597
0.623858
0.634934
0.613891
0.616324
0.653674
0.650356
0.642528
0.647669
0.647132
0.650052
0.657582
0.66565
0.653422
0.640598
0.690624
0.692975
0.66764
0.66628
0.671211
0.674237
0.671677
0.692946
0.693868
0.704872
0.68939
0.694694
0.701365
0.68803
0.471945
0.460261
0.446771
0.44872
0.45995
0.453854
0.460307
0.471272
0.46782
0.474585
0.468638
0.484173
0.47579
0.472799
0.478674
0.49844
0.492339
0.509013
0.497316
0.483549
0.497714
0.488027
0.48799
0.48759
0.493977
0.483864
0.486237
0.562473
0.542911
0.539937
0.515791
0.532004
0.506289
0.535579
0.535853
0.545412
0.520479
0.563537
0.541832
0.604135
0.597436
0.593642
0.596475
0.595487
0.585243
0.587627
0.591633
0.584842
0.58766
0.587702
0.590063
0.579821
0.580878
0.456764
0.455033
0.454907
0.447965
0.442685
0.450253
0.459757
0.457971
0.458253
0.461318
0.43916
0.445038
0.451353
0.454238
0.456848
0.441073
0.448403
0.455911
0.568751
0.584636
0.574624
0.587557
0.594584
0.590471
0.605284
0.579411
0.568062
0.587999
0.597197
0.469977
0.475335
0.473676
0.468114
0.47315
0.480787
0.467614
0.469334
0.486492
0.49337
0.502313
0.488505
0.484573
0.494658
0.491102
0.48945
0.495165
0.486757
0.490892
0.483381
0.482448
0.480565
0.486117
0.483885
0.48754
0.48049
0.478223
0.48663
0.507004
0.497893
0.548341
0.535633
0.527281
0.532266
0.488422
0.528848
0.504267
0.497864
0.523424
0.549148
0.537249
0.518427
0.523298
0.51927
0.521917
0.52442
0.435578
0.434709
0.435122
0.433869
0.431734
0.429919
0.429047
0.42834
0.434556
0.435593
0.434293
0.432201
0.430932
0.429702
0.422311
0.426456
0.562678
0.556951
0.539576
0.547664
0.551202
0.56374
0.584319
0.582599
0.550224
0.561988
0.553805
0.548568
0.562281
0.571598
0.559073
0.543404
0.537191
0.549758
0.472855
0.46889
0.479001
0.478607
0.483366
0.486765
0.473224
0.484664
0.485376
0.483212
0.480779
0.466847
0.472077
0.476212
0.491286
0.475844
0.486708
0.465213
0.496229
0.501385
0.511843
0.503209
0.506131
0.503496
0.503546
0.50391
0.517516
0.511328
0.519513
0.527125
0.521122
0.509291
0.469359
0.468191
0.467578
0.469574
0.464113
0.467765
0.467689
0.467227
0.468431
0.466572
0.466111
0.466183
0.46526
0.46591
0.491073
0.510288
0.511186
0.495159
0.516381
0.526024
0.509476
0.525836
0.519053
0.521585
0.517312
0.514515
0.495572
0.564683
0.573368
0.573891
0.58434
0.584037
0.576107
0.565592
0.610179
0.577289
0.596962
0.581577
0.576556
0.566343
0.548192
0.580162
0.57239
0.602272
0.560486
0.603176
0.613228
0.589861
0.579776
0.637721
0.609983
0.590761
0.587738
0.547223
0.572603
0.587859
0.567704
0.572525
0.587621
0.591481
0.589236
0.528386
0.555904
0.544587
0.569383
0.562058
0.555814
0.576859
0.553538
0.578793
0.563005
0.520677
0.5113
0.53526
0.540445
0.554263
0.566457
0.524767
0.549616
0.514773
0.504709
0.56048
0.575008
0.542492
0.527959
0.546098
0.547734
0.562914
0.572797
0.54908
0.564787
0.556059
0.564489
0.440661
0.443332
0.446189
0.440825
0.44144
0.447892
0.445598
0.45016
0.44269
0.440813
0.443966
0.449058
0.447459
0.525782
0.529776
0.529638
0.52284
0.53178
0.512466
0.499912
0.504539
0.50475
0.496638
0.519338
0.53012
0.494315
0.486776
0.484277
0.484419
0.517317
0.5076
0.482541
0.528441
0.496996
0.512679
0.724426
0.731965
0.724263
0.709818
0.709806
0.721161
0.719782
0.735098
0.732721
0.74513
0.715594
0.712885
0.707118
0.706456
0.698673
0.695974
0.672652
0.682934
0.721663
0.727423
0.687093
0.691836
0.694436
0.679172
0.540087
0.539601
0.534574
0.537863
0.533087
0.538892
0.43597
0.443628
0.438025
0.442445
0.463984
0.463997
0.460391
0.445413
0.45091
0.446423
0.446805
0.43951
0.463379
0.454604
0.459294
0.458835
0.470083
0.470232
0.470345
0.476051
0.471045
0.47281
0.472131
0.470473
0.46325
0.470577
0.472655
0.484042
0.469259
0.472426
0.471946
0.467952
0.470911
0.47298
0.472159
0.616493
0.619696
0.620547
0.60719
0.613152
0.601186
0.595529
0.55232
0.554471
0.549068
0.547985
0.562007
0.557357
0.544366
0.552982
0.567027
0.558977
0.573575
0.575097
0.559511
0.558496
0.563034
0.584375
0.574472
0.561221
0.582025
0.583402
0.569531
0.60022
0.591736
0.58757
0.592161
0.616509
0.617128
0.593536
0.571549
0.596543
0.602921
0.599428
0.609563
0.596158
0.584564
0.57132
0.575776
0.572189
0.671876
0.664386
0.67364
0.668772
0.664553
0.654611
0.694876
0.724968
0.724874
0.706668
0.689305
0.712435
0.726918
0.733855
0.742326
0.665577
0.707416
0.705735
0.692467
0.705457
0.727328
0.679532
0.679368
0.694154
0.49644
0.50661
0.506363
0.515038
0.511309
0.499752
0.482197
0.484062
0.486233
0.487391
0.510788
0.496196
0.513153
0.518184
0.512718
0.515342
0.488401
0.485151
0.49975
0.506249
0.493105
0.499984
0.576785
0.587886
0.616713
0.61447
0.587982
0.604774
0.573346
0.570251
0.565726
0.571894
0.569477
0.611886
0.601323
0.584867
0.606225
0.640914
0.634352
0.575221
0.575005
0.571459
0.574813
0.620728
0.616999
0.618491
0.635285
0.628323
0.592071
0.600462
0.591715
0.616016
0.622899
0.472984
0.46654
0.464411
0.478424
0.472853
0.473803
0.480118
0.477607
0.473217
0.470865
0.464378
0.480574
0.465144
0.483468
0.477544
0.478822
0.476152
0.475809
0.467003
0.482518
0.475921
0.477004
0.475395
0.462733
0.465347
0.471867
0.468613
0.460196
0.462277
0.654355
0.676318
0.657831
0.652344
0.648379
0.693496
0.694719
0.66696
0.682198
0.694567
0.683437
0.6726
0.684804
0.66556
0.708976
0.719891
0.720695
0.696132
0.705898
0.688341
0.696921
0.699683
0.432301
0.439104
0.426683
0.428238
0.429785
0.428053
0.460321
0.460318
0.464616
0.465588
0.452859
0.464508
0.459846
0.461299
0.46277
0.45501
0.463874
0.462717
0.511258
0.500833
0.51673
0.518844
0.512285
0.493753
0.502031
0.499924
0.477555
0.476749
0.482912
0.487204
0.498995
0.503167
0.493438
0.492561
0.551432
0.55445
0.533638
0.539362
0.547277
0.516508
0.520381
0.532528
0.530561
0.531429
0.520313
0.550112
0.53932
0.541982
0.518014
0.516674
0.520042
0.542883
0.550486
0.543448
0.546765
0.550703
0.543196
0.547174
0.545177
0.529244
0.534067
0.530756
0.542914
0.53778
0.543193
0.52929
0.463594
0.480386
0.460792
0.462261
0.475293
0.454395
0.453281
0.467025
0.455284
0.480726
0.463115
0.458945
0.463764
0.466649
0.469328
0.469325
0.465081
0.463934
0.463955
0.467671
0.470086
0.466299
0.466466
0.470365
0.462826
0.43588
0.430913
0.441204
0.443199
0.449352
0.442307
0.448272
0.444335
0.435305
0.437607
0.439653
0.441627
0.441242
0.442236
0.441478
0.435843
0.435538
0.441937
0.438623
0.439328
0.443689
0.440278
0.441611
0.436362
0.438267
0.435663
0.48185
0.6414
0.645085
0.654735
0.503353
0.504958
0.453329
0.44749
0.453495
0.455939
0.481265
0.480127
0.485523
0.726716
0.723768
0.731146
0.55741
0.556724
0.593673
0.618146
0.606855
0.629143
0.6854
0.695343
0.710078
0.696857
0.488524
0.483798
0.718054
0.709429
0.707901
0.70046
0.464514
0.467912
0.489581
0.492475
0.486777
0.487445
0.486673
0.482247
0.487051
0.524712
0.529249
0.535319
0.575878
0.578228
0.581944
0.580875
0.547376
0.544019
0.539233
0.55371
0.558197
0.572393
0.461379
0.458552
0.711805
0.692594
0.689498
0.448546
0.447433
0.472925
0.472152
0.571049
0.577093
0.56603
0.660725
0.661104
0.722665
0.727384
0.720994
0.702282
0.476439
0.476677
0.526554
0.520147
0.518493
0.479413
0.48236
0.478348
0.543369
0.536033
0.542272
0.535344
0.546692
0.540531
0.566536
0.606786
0.611789
0.603719
0.627745
0.434083
0.430054
0.46174
0.465681
0.46339
0.479555
0.484979
0.49171
0.493698
0.488588
0.490807
0.493696
0.482385
0.492205
0.492065
0.465541
0.464391
0.691079
0.694672
0.608242
0.603367
0.593021
0.448553
0.448987
0.473713
0.472232
0.45369
0.451592
0.582773
0.588344
0.576502
0.595452
0.457082
0.455971
0.66146
0.642802
0.6547
0.62623
0.439669
0.435309
0.446741
0.444949
0.420055
0.421598
0.429332
0.639453
0.642703
0.662881
0.501533
0.496422
0.494306
0.635896
0.632139
0.470361
0.468287
0.468617
0.741675
0.746649
0.457527
0.451704
0.451735
0.463197
0.688337
0.684031
0.700744
0.67326
0.581721
0.590242
0.559441
0.599444
0.527557
0.526952
0.548007
0.535339
0.539785
0.620414
0.622556
0.599893
0.575096
0.555398
0.575961
0.549822
0.544602
0.541573
0.546037
0.531936
0.58483
0.574593
0.576931
0.569633
0.596444
0.615205
0.596141
0.584205
0.666695
0.67825
0.663378
0.646127
0.645835
0.631444
0.622501
0.651249
0.706919
0.705292
0.677075
0.683421
0.672783
0.714338
0.700193
0.695495
0.678064
0.656315
0.669957
0.653259
0.681451
0.663414
0.680428
0.650523
0.673931
0.689646
0.665632
0.694722
0.68891
0.497673
0.491976
0.480368
0.473159
0.467505
0.469132
0.447683
0.45484
0.450991
0.453027
0.463377
0.463612
0.462651
0.453355
0.443243
0.441757
0.457698
0.444038
0.447636
0.450206
0.445209
0.472755
0.471464
0.461257
0.451982
0.455836
0.466608
0.460368
0.456035
0.454486
0.449643
0.759292
0.753574
0.740067
0.741138
0.742631
0.74337
0.746605
0.722905
0.727688
0.758466
0.748602
0.737935
0.72257
0.742993
0.731831
0.727587
0.73087
0.722647
0.716491
0.725404
0.732453
0.721775
0.741181
0.726471
0.748217
0.730203
0.735569
0.734718
0.700697
0.714
0.721072
0.721076
0.47404
0.464608
0.463862
0.47731
0.491501
0.485648
0.477623
0.468886
0.480467
0.467179
0.462171
0.470246
0.480754
0.47797
0.460797
0.462123
0.46204
0.467269
0.465125
0.459457
0.468372
0.466475
0.467125
0.678912
0.67187
0.678616
0.666455
0.666036
0.68229
0.570636
0.581434
0.589326
0.619233
0.62602
0.627974
0.628092
0.618302
0.525652
0.518288
0.518617
0.499601
0.498908
0.496185
0.496149
0.481379
0.490217
0.488639
0.490691
0.492416
0.48722
0.493668
0.492631
0.492533
0.48935
0.487857
0.490437
0.494359
0.494555
0.49305
0.494388
0.508803
0.501213
0.502187
0.719652
0.699985
0.67739
0.660539
0.699079
0.599897
0.615358
0.62381
0.67092
0.664331
0.659037
0.658035
0.530787
0.514721
0.540347
0.556335
0.643124
0.672195
0.637642
0.622738
0.673463
0.642476
0.687877
0.629654
0.599731
0.571783
0.567622
0.609789
0.619418
0.619661
0.634189
0.635977
0.666722
0.664929
0.432097
0.431691
0.434738
0.410653
0.425851
0.431581
0.422002
0.424481
0.415516
0.419542
0.430178
0.429504
0.427416
0.40062
0.407702
0.406041
0.415762
0.410079
0.408262
0.417623
0.418949
0.434472
0.431632
0.41699
0.423499
0.423207
0.424098
0.422715
0.423386
0.410938
0.417939
0.416284
0.424763
0.414654
0.418246
0.437943
0.435559
0.4462
0.444148
0.442526
0.454743
0.454046
0.45197
0.450702
0.448307
0.447247
0.449646
0.441287
0.446014
0.444842
0.444415
0.445302
0.440462
0.442189
0.434432
0.433299
0.437164
0.438175
0.441469
0.438317
0.439696
0.441807
0.435815
0.435611
0.449185
0.442909
0.442611
0.442242
0.446923
0.604639
0.606517
0.613386
0.623647
0.620795
0.609768
0.63632
0.616152
0.602653
0.638225
0.645868
0.631904
0.674273
0.684566
0.678456
0.661988
0.651724
0.651382
0.644635
0.652925
0.638265
0.665431
0.648107
0.668526
0.452968
0.4505
0.444469
0.444246
0.459758
0.45585
0.452614
0.49478
0.575459
0.573917
0.579299
0.56908
0.545511
0.539695
0.550386
0.585138
0.594901
0.566383
0.583817
0.590623
0.590604
0.613044
0.560389
0.603336
0.586695
0.573144
0.593057
0.609741
0.590583
0.457654
0.455631
0.452015
0.453907
0.455529
0.448996
0.450822
0.453018
0.453112
0.458373
0.454687
0.462014
0.462742
0.462005
0.47217
0.474383
0.471256
0.471619
0.472967
0.472484
0.470494
0.4801
0.476249
0.471895
0.473791
0.475114
0.464097
0.462049
0.467037
0.468846
0.463385
0.465231
0.470695
0.468579
0.466673
0.469826
0.463005
0.466826
0.482703
0.469818
0.477363
0.472778
0.461693
0.469501
0.471807
0.466018
0.462734
0.4617
0.441613
0.440208
0.436289
0.438922
0.439742
0.447505
0.45006
0.453227
0.453008
0.45384
0.453267
0.436345
0.444229
0.445122
0.443895
0.436576
0.444063
0.444584
0.448018
0.443411
0.443873
0.448207
0.452196
0.449734
0.45086
0.442468
0.441809
0.446361
0.450996
0.454123
0.450961
0.437944
0.627039
0.62661
0.591501
0.587507
0.599881
0.603238
0.556501
0.557667
0.573205
0.578421
0.589932
0.609128
0.607774
0.605721
0.607004
0.591172
0.584445
0.586193
0.578571
0.585496
0.590301
0.573843
0.597845
0.594667
0.62917
0.594166
0.599114
0.626836
0.609934
0.619835
0.619237
0.606522
0.595742
0.596733
0.602843
0.599734
0.591526
0.573636
0.583516
0.699587
0.688939
0.673817
0.698286
0.686093
0.700469
0.690486
0.701495
0.703872
0.689351
0.705177
0.687532
0.700702
0.679579
0.678505
0.69836
0.682603
0.68737
0.666803
0.664569
0.682886
0.667403
0.657488
0.663081
0.653116
0.667599
0.675227
0.676474
0.67173
0.677054
0.674662
0.661815
0.522331
0.525381
0.511377
0.497084
0.501273
0.498187
0.515332
0.516318
0.511481
0.476164
0.462654
0.47247
0.473869
0.459717
0.458688
0.458485
0.467606
0.463546
0.456669
0.454998
0.465239
0.461796
0.458422
0.460713
0.483172
0.489651
0.492222
0.491442
0.492103
0.482984
0.491265
0.493593
0.489542
0.482337
0.485887
0.480556
0.496032
0.489466
0.496995
0.493941
0.506829
0.507275
0.488618
0.48582
0.491398
0.48876
0.487746
0.490006
0.488403
0.491525
0.752706
0.543066
0.550801
0.516428
0.531287
0.513869
0.496294
0.496017
0.501703
0.512243
0.491339
0.486511
0.457308
0.464428
0.465258
0.471532
0.46561
0.462674
0.426768
0.431083
0.428173
0.419061
0.428316
0.427868
0.428674
0.422578
0.427002
0.436744
0.435942
0.434724
0.432173
0.43324
0.578404
0.584647
0.583686
0.658149
0.650778
0.652628
0.631825
0.626469
0.562342
0.570684
0.559183
0.550881
0.614233
0.625547
0.617742
0.61725
0.635821
0.636873
0.62335
0.609837
0.608676
0.599609
0.621725
0.619001
0.626108
0.639363
0.646054
0.622522
0.626162
0.609873
0.594814
0.601988
0.611229
0.592325
0.598235
0.607609
0.595452
0.564159
0.589825
0.58394
0.590576
0.595446
0.589751
0.580981
0.595016
0.578962
0.580154
0.568423
0.517834
0.524068
0.499585
0.528462
0.556408
0.565247
0.545219
0.531212
0.564978
0.556176
0.537834
0.546767
0.540513
0.51648
0.511916
0.576994
0.578579
0.567204
0.505164
0.499184
0.505258
0.507379
0.521708
0.513755
0.522183
0.51704
0.52194
0.529131
0.513716
0.536611
0.533959
0.530574
0.526751
0.529817
0.522866
0.554494
0.548845
0.541459
0.552088
0.541832
0.549547
0.556373
0.560487
0.551463
0.541044
0.532371
0.543945
0.542794
0.48414
0.476845
0.478928
0.480939
0.477545
0.479762
0.481965
0.477113
0.481845
0.473826
0.474269
0.472335
0.478257
0.478649
0.47864
0.480014
0.475586
0.478859
0.47548
0.474239
0.477699
0.477334
0.472122
0.475186
0.476459
0.480465
0.486382
0.47937
0.485251
0.481045
0.477384
0.482587
0.500018
0.511543
0.512066
0.499894
0.492941
0.497992
0.501502
0.509058
0.498708
0.506531
0.506318
0.514023
0.510754
0.561361
0.56434
0.547837
0.52454
0.516753
0.511898
0.500343
0.506916
0.517712
0.508861
0.520885
0.497362
0.509166
0.530488
0.521225
0.509925
0.535626
0.528719
0.48895
0.48686
0.498442
0.500582
0.491525
0.485537
0.482498
0.483446
0.474826
0.473584
0.480719
0.471118
0.474138
0.471286
0.69403
0.683409
0.682312
0.690664
0.70548
0.740585
0.733976
0.739161
0.724371
0.712025
0.668397
0.651413
0.669194
0.658941
0.537556
0.529316
0.58783
0.582471
0.534955
0.550917
0.559472
0.558333
0.560148
0.544839
0.526
0.551796
0.552144
0.563115
0.566623
0.55946
0.571931
0.611292
0.599216
0.567881
0.58051
0.59824
0.577518
0.594119
0.577238
0.619228
0.617904
0.587793
0.576816
0.602746
0.596152
0.477374
0.471519
0.474293
0.479917
0.472585
0.472188
0.473983
0.473717
0.471297
0.472044
0.475292
0.477654
0.472847
0.478177
0.477119
0.47422
0.473345
0.465897
0.469777
0.469968
0.466129
0.46765
0.453936
0.451495
0.451765
0.452035
0.438904
0.451374
0.448498
0.446265
0.444756
0.443171
0.444357
0.447104
0.446657
0.625333
0.64525
0.633625
0.66448
0.667725
0.64333
0.674051
0.703247
0.713046
0.700253
0.702182
0.687574
0.679399
0.710804
0.69621
0.464158
0.460186
0.499266
0.495301
0.517949
0.555562
0.555646
0.562097
0.564403
0.547634
0.587558
0.561357
0.584379
0.596019
0.596534
0.553169
0.563536
0.563677
0.555753
0.544392
0.550467
0.544393
0.536411
0.531093
0.552339
0.541205
0.52364
0.50322
0.506147
0.52962
0.536846
0.526089
0.511301
0.506791
0.542246
0.548899
0.532182
0.531067
0.519167
0.555637
0.560695
0.550996
0.564565
0.548653
0.53057
0.543993
0.536914
0.560052
0.564056
0.557787
0.550389
0.553823
0.561709
0.600483
0.602384
0.597111
0.583567
0.595335
0.586812
0.60361
0.583129
0.53485
0.52036
0.546174
0.530435
0.517461
0.517538
0.503503
0.512109
0.519455
0.52385
0.515586
0.487344
0.511723
0.497692
0.51495
0.513019
0.502694
0.487044
0.494577
0.486596
0.506374
0.524852
0.519455
0.508638
0.533297
0.515654
0.550428
0.554875
0.550011
0.551658
0.5346
0.521523
0.53669
0.526172
0.531946
0.527825
0.516414
0.521643
0.522618
0.523555
0.51838
0.503178
0.490871
0.520842
0.500973
0.523961
0.523229
0.470367
0.480292
0.476131
0.477474
0.489189
0.481618
0.475843
0.481559
0.476434
0.470305
0.469558
0.483523
0.481927
0.471668
0.482758
0.47991
0.506468
0.51017
0.490687
0.514805
0.480877
0.474129
0.481028
0.515082
0.497639
0.484346
0.486743
0.483752
0.496522
0.49551
0.563302
0.547217
0.47094
0.478185
0.479135
0.465127
0.474958
0.468817
0.468562
0.467591
0.466003
0.471966
0.469513
0.466765
0.467648
0.460336
0.470611
0.681075
0.686217
0.684844
0.492649
0.493855
0.497628
0.512256
0.505738
0.492191
0.489777
0.490008
0.488032
0.49082
0.483578
0.484018
0.48575
0.478992
0.488551
0.688869
0.673232
0.694337
0.732888
0.74154
0.715558
0.709417
0.751587
0.750965
0.738583
0.733108
0.727574
0.725419
0.714152
0.739031
0.732323
0.733351
0.743065
0.618684
0.623726
0.603171
0.595234
0.606707
0.620648
0.626652
0.631479
0.627998
0.588749
0.594549
0.588116
0.602544
0.596751
0.58166
0.586603
0.577461
0.579519
0.609825
0.632156
0.638586
0.617145
0.626344
0.609646
0.54746
0.539002
0.545065
0.539501
0.547264
0.577702
0.568975
0.550653
0.577402
0.563225
0.543039
0.540473
0.54044
0.536793
0.542366
0.548317
0.55045
0.521337
0.514379
0.543024
0.506288
0.516054
0.546448
0.546352
0.546624
0.553586
0.559144
0.547791
0.549152
0.576088
0.567618
0.555587
0.551872
0.40766
0.406538
0.729601
0.719747
0.717936
0.724285
0.712945
0.726816
0.722483
0.732934
0.718957
0.708844
0.720841
0.702111
0.717985
0.724425
0.709235
0.49927
0.495412
0.481898
0.48427
0.456457
0.455105
0.463639
0.456686
0.456
0.451047
0.453322
0.451987
0.456447
0.45516
0.450041
0.45204
0.448881
0.447497
0.454451
0.457923
0.455192
0.455544
0.453729
0.450842
0.468304
0.473093
0.457126
0.461499
0.446812
0.503867
0.464841
0.46809
0.500306
0.486681
0.475105
0.469193
0.46181
0.512531
0.520299
0.525939
0.522605
0.503576
0.498026
0.52046
0.525435
0.522845
0.51071
0.53027
0.528243
0.536336
0.537348
0.504316
0.520174
0.505928
0.517422
0.507614
0.525654
0.517855
0.494977
0.49793
0.50933
0.499813
0.496942
0.510347
0.507579
0.625885
0.619319
0.632032
0.617004
0.605152
0.63327
0.6237
0.635297
0.597123
0.602047
0.604914
0.597135
0.612299
0.617633
0.606624
0.672476
0.660726
0.641546
0.675651
0.503449
0.505164
0.496438
0.484659
0.480054
0.472241
0.473146
0.504786
0.496106
0.508672
0.478686
0.481655
0.476236
0.506034
0.487944
0.491887
0.489253
0.569182
0.587835
0.59297
0.58016
0.590581
0.440919
0.453584
0.456654
0.451923
0.454665
0.457736
0.449322
0.458249
0.491648
0.480213
0.472634
0.493078
0.484331
0.472984
0.481761
0.481137
0.485921
0.501213
0.496207
0.499039
0.489649
0.486124
0.477583
0.688192
0.693485
0.713077
0.716585
0.699996
0.703847
0.69887
0.683489
0.684714
0.692324
0.716588
0.579901
0.562132
0.591527
0.586604
0.583474
0.567568
0.585996
0.58412
0.563754
0.571185
0.586886
0.584509
0.586328
0.578658
0.587208
0.589942
0.590682
0.581646
0.607098
0.607704
0.642015
0.622765
0.6274
0.609244
0.635015
0.648086
0.62479
0.617087
0.625895
0.614947
0.61624
0.629237
0.59385
0.606736
0.711519
0.710465
0.716557
0.701276
0.722361
0.716851
0.730275
0.51676
0.534342
0.533926
0.546979
0.563935
0.43321
0.433402
0.431823
0.429416
0.433537
0.433707
0.469791
0.471024
0.474536
0.476629
0.468534
0.467515
0.467463
0.483972
0.490756
0.511379
0.480537
0.474564
0.485837
0.669746
0.518254
0.507093
0.50347
0.513298
0.503682
0.510072
0.498396
0.510556
0.515118
0.512066
0.469503
0.468001
0.472243
0.470592
0.471446
0.472438
0.46446
0.473143
0.483019
0.530143
0.562904
0.558623
0.535741
0.531918
0.574156
0.595933
0.562395
0.582412
0.591973
0.560981
0.555792
0.55855
0.559896
0.536285
0.517014
0.528889
0.526879
0.524233
0.526349
0.525888
0.527307
0.512848
0.515786
0.519623
0.525423
0.514146
0.52424
0.553283
0.531275
0.559019
0.561041
0.538477
0.553715
0.539009
0.541577
0.532009
0.517533
0.533236
0.530248
0.536977
0.525659
0.546018
0.546584
0.56925
0.553259
0.571419
0.505551
0.506968
0.499521
0.494676
0.509345
0.515248
0.508204
0.488501
0.5161
0.50575
0.459475
0.453747
0.451229
0.470523
0.447819
0.444443
0.459013
0.451528
0.452662
0.476528
0.484821
0.479393
0.469025
0.464688
0.464806
0.464243
0.462964
0.465537
0.461664
0.466088
0.465054
0.460826
0.464695
0.464755
0.466922
0.470146
0.461087
0.466968
0.466697
0.534078
0.566075
0.564607
0.546056
0.548187
0.539015
0.568287
0.562089
0.55863
0.550784
0.697503
0.679771
0.681139
0.702678
0.702187
0.711835
0.700681
0.712926
0.753682
0.751896
0.73465
0.747548
0.705412
0.709539
0.70184
0.693237
0.715154
0.715181
0.68031
0.67658
0.720167
0.742374
0.741868
0.723043
0.753518
0.752071
0.732683
0.633276
0.642556
0.635001
0.640318
0.634957
0.616872
0.644303
0.647334
0.536386
0.539808
0.545099
0.528839
0.527135
0.525189
0.548867
0.537332
0.51857
0.519054
0.566645
0.538015
0.557961
0.547256
0.559555
0.54925
0.489392
0.494247
0.498081
0.501757
0.491981
0.489251
0.484927
0.486449
0.491393
0.492065
0.501945
0.492798
0.479338
0.476064
0.479804
0.479885
0.479311
0.480829
0.471965
0.474773
0.471823
0.474342
0.508315
0.507324
0.501828
0.506734
0.510341
0.515497
0.500678
0.501017
0.616736
0.604766
0.595801
0.620145
0.658719
0.655249
0.641538
0.618337
0.617532
0.558666
0.565124
0.563076
0.56797
0.562646
0.563298
0.558276
0.542894
0.551106
0.559828
0.546547
0.550646
0.538584
0.527812
0.680314
0.675108
0.648832
0.678247
0.660248
0.665787
0.668428
0.602333
0.608251
0.607359
0.600891
0.58742
0.576695
0.566268
0.573472
0.56514
0.573949
0.571163
0.560554
0.560711
0.555035
0.54921
0.563406
0.561868
0.57553
0.580388
0.584691
0.588647
0.507171
0.520667
0.506316
0.512297
0.498445
0.476188
0.49637
0.472527
0.503926
0.509898
0.483728
0.485388
0.483344
0.485323
0.485074
0.4884
0.485559
0.483676
0.485469
0.483638
0.481344
0.491886
0.494119
0.495929
0.493801
0.497375
0.495006
0.498231
0.500324
0.499501
0.493564
0.502602
0.513472
0.506573
0.512932
0.512051
0.520069
0.520174
0.518991
0.523673
0.526081
0.514605
0.510378
0.523932
0.515435
0.517225
0.453269
0.456704
0.453926
0.454182
0.458626
0.457358
0.457174
0.458676
0.455801
0.461053
0.458362
0.457897
0.691703
0.684376
0.714722
0.694679
0.711556
0.692103
0.699747
0.685229
0.693969
0.715497
0.703744
0.624397
0.614226
0.608748
0.603892
0.586368
0.594892
0.627064
0.630763
0.610993
0.618581
0.632484
0.653175
0.639257
0.610006
0.609701
0.629979
0.616563
0.454818
0.452735
0.44969
0.454963
0.458357
0.446359
0.441356
0.44364
0.441969
0.441869
0.4426
0.432522
0.437775
0.437983
0.438351
0.438319
0.473416
0.486183
0.488696
0.480362
0.477899
0.474487
0.484223
0.483249
0.480568
0.481868
0.591892
0.622041
0.622282
0.605827
0.60694
0.610109
0.624988
0.63295
0.636677
0.642859
0.645044
0.631998
0.664604
0.65839
0.639221
0.674516
0.653875
0.657919
0.667615
0.689889
0.664046
0.669839
0.688017
0.668301
0.476557
0.481644
0.448334
0.449388
0.448269
0.444445
0.445925
0.445559
0.445831
0.44607
0.441998
0.448858
0.450489
0.448319
0.443876
0.446852
0.445701
0.445116
0.443547
0.442992
0.443499
0.436259
0.440804
0.438968
0.436402
0.437632
0.442571
0.44224
0.444291
0.443163
0.441114
0.441375
0.445603
0.447424
0.437719
0.434298
0.428086
0.423655
0.441113
0.442146
0.435028
0.433385
0.423548
0.42232
0.420493
0.424736
0.429642
0.428081
0.432531
0.442903
0.412212
0.417985
0.420773
0.417677
0.409481
0.419512
0.428799
0.424306
0.440279
0.646678
0.653559
0.65475
0.647604
0.632838
0.633252
0.500179
0.487781
0.486392
0.49998
0.507685
0.487897
0.507269
0.520643
0.528817
0.484503
0.478167
0.492645
0.493698
0.498964
0.499111
0.488804
0.489792
0.496876
0.494987
0.513057
0.503209
0.502446
0.501892
0.491377
0.499041
0.512519
0.513754
0.52113
0.51828
0.528195
0.518086
0.513629
0.503599
0.503003
0.5071
0.509269
0.646815
0.641341
0.638263
0.670957
0.663821
0.661534
0.648473
0.661993
0.743966
0.730501
0.73174
0.743547
0.724869
0.754651
0.73033
0.721973
0.714409
0.69757
0.724773
0.726288
0.729691
0.712607
0.669921
0.708339
0.703596
0.709895
0.737038
0.73554
0.745039
0.725143
0.743866
0.744967
0.747687
0.738801
0.714556
0.72497
0.711273
0.699193
0.713571
0.732823
0.734866
0.722398
0.711106
0.700886
0.714301
0.722752
0.736398
0.719294
0.705367
0.706588
0.469885
0.483739
0.467472
0.462803
0.47265
0.4847
0.473431
0.486358
0.466003
0.466108
0.475639
0.47457
0.467941
0.463132
0.468633
0.472743
0.449471
0.435849
0.449443
0.467617
0.467655
0.452677
0.444599
0.640373
0.644466
0.636731
0.617048
0.52618
0.511987
0.508301
0.504959
0.49871
0.487567
0.48566
0.675878
0.672085
0.658376
0.673561
0.658449
0.692009
0.680839
0.691034
0.673487
0.610699
0.601147
0.59991
0.606927
0.624908
0.609817
0.632899
0.621487
0.638733
0.613343
0.621093
0.609537
0.569288
0.592169
0.571054
0.555769
0.575852
0.57831
0.519858
0.523746
0.531641
0.542175
0.526027
0.523823
0.518279
0.540682
0.534521
0.516976
0.515118
0.543384
0.538254
0.52214
0.533602
0.540857
0.543085
0.527503
0.539035
0.540114
0.538217
0.5251
0.52477
0.518802
0.515399
0.517038
0.571809
0.557235
0.544235
0.603221
0.589448
0.559819
0.55506
0.543621
0.605429
0.609539
0.586446
0.560742
0.554873
0.615678
0.604155
0.631116
0.646273
0.62619
0.620065
0.641293
0.608744
0.608834
0.602127
0.5928
0.587324
0.575378
0.611201
0.619267
0.591244
0.587529
0.577613
0.574394
0.584792
0.57976
0.57711
0.582305
0.571686
0.562603
0.559259
0.573117
0.55825
0.558749
0.549837
0.544352
0.561977
0.56366
0.58314
0.578793
0.582237
0.575789
0.537105
0.528541
0.529552
0.551246
0.542107
0.553915
0.55898
0.545174
0.550497
0.536139
0.53422
0.540911
0.566173
0.565387
0.548922
0.556163
0.553617
0.704609
0.591769
0.572861
0.589699
0.602475
0.599612
0.596822
0.580742
0.638446
0.452044
0.439131
0.441582
0.437873
0.443306
0.45224
0.455931
0.446475
0.445162
0.443558
0.457387
0.440864
0.432968
0.456838
0.446654
0.720804
0.706155
0.731105
0.714401
0.715991
0.719874
0.721449
0.743098
0.720724
0.725252
0.707538
0.686144
0.711406
0.702114
0.66785
0.685024
0.701755
0.735564
0.729652
0.694832
0.697432
0.714639
0.702695
0.730726
0.716283
0.737854
0.726834
0.452879
0.455952
0.445635
0.443016
0.454771
0.449518
0.455533
0.452265
0.474761
0.453275
0.459639
0.479942
0.473745
0.477175
0.475981
0.469485
0.477977
0.467716
0.466091
0.470423
0.467294
0.466769
0.458269
0.463644
0.605867
0.608111
0.42487
0.413646
0.441271
0.443858
0.429127
0.425491
0.438532
0.431244
0.432975
0.436194
0.422804
0.428648
0.432246
0.444606
0.438413
0.438369
0.606745
0.625142
0.439268
0.440131
0.446392
0.452379
0.450979
0.452601
0.451303
0.450097
0.499109
0.496038
0.482268
0.496188
0.497459
0.497172
0.49772
0.491247
0.49059
0.494351
0.493431
0.461298
0.461301
0.463177
0.460951
0.461557
0.461562
0.446887
0.447545
0.449802
0.448666
0.447519
0.442954
0.447173
0.450912
0.451594
0.448842
0.450316
0.447864
0.450878
0.451804
0.480904
0.485304
0.477786
0.480462
0.484473
0.483548
0.481096
0.47754
0.476605
0.480123
0.482415
0.481236
0.478779
0.475417
0.464
0.433471
0.428979
0.437928
0.437448
0.440586
0.432259
0.431915
0.435937
0.442167
0.569579
0.567952
0.568473
0.660546
0.645268
0.491764
0.490805
0.523236
0.540543
0.531672
0.522245
0.52019
0.518821
0.598242
0.592974
0.614203
0.625166
0.632375
0.65034
0.639856
0.636773
0.634528
0.646972
0.641213
0.52137
0.506437
0.529068
0.501796
0.501793
0.478622
0.478426
0.488449
0.482412
0.532157
0.512493
0.477577
0.485142
0.476954
0.488311
0.48745
0.476015
0.49798
0.522046
0.499683
0.482825
0.500082
0.498759
0.493743
0.522891
0.540016
0.509687
0.492385
0.537468
0.527068
0.519461
0.529452
0.543479
0.545017
0.546778
0.531704
0.531693
0.557068
0.559577
0.548873
0.563201
0.566463
0.570161
0.563904
0.566026
0.558594
0.562512
0.554164
0.567714
0.575634
0.490388
0.486958
0.490744
0.486382
0.481183
0.483898
0.489006
0.492863
0.486569
0.488284
0.480781
0.486095
0.498811
0.49268
0.459937
0.457016
0.478449
0.465776
0.47349
0.484506
0.469546
0.474292
0.459829
0.468873
0.631114
0.659927
0.647273
0.660005
0.663613
0.670348
0.654286
0.650022
0.675305
0.668782
0.536355
0.546086
0.528541
0.561923
0.560733
0.551613
0.568992
0.544348
0.469366
0.473891
0.471734
0.465993
0.469196
0.44335
0.438909
0.667606
0.663466
0.63346
0.684468
0.653954
0.642882
0.661823
0.644797
0.68785
0.678156
0.498694
0.499646
0.554252
0.543396
0.555125
0.568035
0.553258
0.566963
0.558699
0.584269
0.595199
0.58341
0.578701
0.595035
0.595059
0.597509
0.587757
0.590297
0.612044
0.606183
0.609744
0.60221
0.602082
0.596071
0.492845
0.486588
0.474488
0.529903
0.50635
0.516375
0.522867
0.518567
0.529913
0.523009
0.534172
0.533518
0.534396
0.500327
0.514539
0.515254
0.518443
0.531039
0.515965
0.510509
0.492185
0.494793
0.506181
0.507556
0.500124
0.498485
0.497104
0.493883
0.499872
0.499458
0.488277
0.48013
0.488664
0.488334
0.481104
0.48515
0.469695
0.480669
0.481642
0.493074
0.476509
0.481366
0.474143
0.474283
0.476735
0.474957
0.473426
0.483356
0.455882
0.478811
0.467523
0.476865
0.473329
0.478958
0.467848
0.513297
0.504986
0.506449
0.499182
0.485833
0.489028
0.48092