/*--------------------------------*- C++ -*----------------------------------*\
| =========                 |                                                 |
| \\      /  F ield         | OpenFOAM: The Open Source CFD Toolbox           |
|  \\    /   O peration     | Version:  v1612+                                |
|   \\  /    A nd           | Web:      www.OpenFOAM.com                      |
|    \\/     M anipulation  |                                                 |
\*---------------------------------------------------------------------------*/
FoamFile
{
    version     2.0;
    format      ascii;
    class       surfaceScalarField;
    location    "100";
    object      phi;
}
// * * * * * * * * * * * * * * * * * * * * * * * * * * * * * * * * * * * * * //

dimensions      [0 3 -1 0 0 0 0];

internalField   nonuniform List<scalar> 
37514
(
3.68304e-09
-1.6594e-09
1.86385e-09
-3.88784e-09
4.22479e-09
4.53052e-09
-9.97419e-09
1.21873e-09
-9.27692e-09
7.09487e-09
-8.76439e-10
3.05841e-09
3.96367e-09
-6.50107e-09
-6.7396e-09
-9.30313e-10
6.57684e-09
-1.74823e-10
-5.47187e-09
4.83155e-09
-1.53707e-09
1.19962e-08
-5.82576e-09
-2.20679e-09
-4.82396e-09
2.50381e-09
9.4149e-09
1.52983e-09
5.64238e-09
-1.53534e-11
-5.43954e-09
7.95861e-09
-6.91034e-09
-2.97227e-09
9.86724e-09
1.41251e-09
-5.50235e-09
-1.34984e-09
-5.79621e-09
2.98311e-10
1.98002e-10
5.49332e-09
-6.78865e-09
-8.00249e-09
6.55998e-09
5.48865e-10
-1.51363e-09
-1.96036e-09
1.88053e-09
3.77046e-09
-3.09293e-09
-2.55787e-09
5.03974e-09
-3.03183e-09
-1.27051e-10
-2.86996e-10
8.54894e-10
3.20302e-09
1.05162e-09
3.7012e-09
8.30804e-10
-2.77195e-09
-1.09026e-09
-6.80438e-10
-1.58158e-09
1.02396e-09
2.66374e-09
-2.63594e-09
9.72585e-10
1.51457e-09
-2.33801e-09
-1.48808e-10
1.95467e-09
-1.66235e-09
3.50945e-11
-1.44698e-09
2.4362e-09
-1.57002e-09
2.4605e-09
-1.23076e-09
1.61568e-09
4.96259e-10
-2.12165e-10
-8.41597e-10
-1.09068e-10
6.72584e-09
4.61581e-09
-3.82187e-09
-7.51984e-09
-1.50677e-09
3.41947e-09
4.81307e-09
-1.07057e-08
3.66925e-09
5.52968e-09
6.76733e-09
-1.40219e-08
-3.45122e-09
-5.93246e-09
1.91727e-09
7.43458e-09
-2.17073e-09
8.53966e-10
-1.10048e-08
5.75702e-09
8.91672e-09
4.14997e-09
-8.38758e-09
-1.03227e-08
2.26169e-09
1.38179e-08
-2.29314e-09
-3.87967e-09
6.46992e-09
5.22885e-09
-9.3264e-09
-2.37261e-09
3.57796e-09
7.21072e-10
1.01883e-08
-6.00948e-09
-4.78027e-09
7.71586e-09
-9.46432e-09
6.63034e-09
5.7906e-09
-2.95675e-09
1.1073e-08
-1.11513e-08
-9.38611e-09
4.9749e-09
1.27285e-08
1.39775e-08
-3.41397e-09
-4.77304e-09
6.9743e-09
-6.35856e-09
1.5195e-09
-2.13534e-09
4.07616e-09
-3.43277e-09
6.33083e-09
2.96987e-09
-2.87332e-09
-8.94646e-09
8.84989e-09
-1.42543e-09
-6.75605e-09
-4.44609e-09
-1.00943e-09
1.04304e-08
7.47267e-09
-4.08123e-09
-3.19271e-09
6.21924e-09
-3.19402e-09
6.26072e-09
5.1567e-09
-4.52983e-09
-6.98549e-09
1.469e-09
2.54875e-10
5.11696e-09
-4.24792e-10
1.84496e-09
7.92407e-11
1.19901e-10
-7.82793e-09
5.45424e-09
-1.27356e-10
1.0485e-09
-6.37552e-09
-1.55145e-09
1.08104e-09
5.92458e-09
9.47226e-09
-1.44898e-09
-4.76858e-09
-3.25481e-09
1.19087e-09
6.72987e-09
-8.35239e-09
2.43219e-09
-4.06842e-09
-5.733e-09
-2.14684e-09
-9.98781e-11
3.3277e-09
-2.63468e-09
3.6043e-10
-3.41742e-09
5.74966e-09
2.80396e-09
3.37096e-09
1.49569e-09
-7.67071e-09
-6.1191e-11
-4.44457e-10
3.30951e-09
3.767e-09
-4.57298e-10
-4.65044e-09
-1.27053e-09
2.50343e-09
-7.22318e-09
-1.3824e-10
7.37286e-09
-9.05172e-09
-1.29711e-08
1.46499e-08
-9.54591e-09
-7.60578e-09
2.45248e-08
2.31463e-09
-1.03932e-08
-9.73048e-10
-8.07931e-09
8.4831e-10
-9.95589e-09
3.43174e-09
-6.44697e-09
-8.79706e-09
-1.1552e-08
-4.02141e-10
1.60695e-09
-1.0002e-08
2.49857e-09
-1.51004e-08
1.21997e-08
-9.83475e-09
4.87348e-09
-3.1181e-09
1.94549e-10
-8.42228e-09
-1.16443e-08
1.43375e-08
1.23492e-08
-1.08875e-08
-9.06748e-09
-1.41863e-08
-1.65075e-09
4.1988e-09
1.16381e-08
-1.75497e-08
-1.50359e-08
1.83993e-08
2.13274e-09
-1.69332e-08
8.18145e-09
6.61864e-09
9.62902e-09
1.14686e-08
-1.8965e-08
-6.28845e-09
1.78555e-08
-3.25638e-09
-8.31074e-09
-1.75303e-08
6.92569e-09
1.31964e-08
-2.59195e-09
3.30733e-09
4.89978e-09
-2.57569e-08
-4.74086e-09
-1.04102e-08
-1.78237e-09
-9.41022e-09
1.13032e-08
-2.02516e-08
6.02853e-09
-1.52752e-08
4.2141e-09
-1.51163e-08
4.70325e-09
3.69929e-10
-7.33354e-10
-4.33993e-09
-1.62967e-09
5.04335e-09
1.28949e-09
-5.50689e-09
3.92206e-09
-4.49347e-11
1.79296e-11
-7.47763e-10
6.74695e-09
-6.73265e-09
5.83789e-09
7.97809e-10
-2.93566e-10
-7.98792e-09
6.90555e-09
6.92013e-09
-7.93792e-09
6.31962e-09
5.19492e-09
5.04673e-09
5.885e-10
1.10775e-09
5.05051e-09
1.43245e-09
4.19932e-09
2.13436e-10
7.79972e-09
6.84074e-09
2.78318e-09
-4.48362e-09
5.93483e-09
-4.23448e-09
-2.82318e-09
7.04736e-09
-1.44104e-09
3.56297e-09
1.00754e-09
-9.05414e-09
5.45266e-09
-4.71284e-09
1.1515e-08
-7.21865e-10
-6.75334e-09
-4.04003e-09
3.98378e-09
-2.64974e-09
1.0181e-08
7.42751e-09
8.68827e-11
-1.57953e-09
1.93288e-09
4.67797e-09
8.16657e-10
6.36549e-09
2.61483e-09
5.21607e-09
5.13794e-09
-9.34643e-09
7.80587e-09
-3.07498e-09
2.42099e-10
1.15475e-08
8.08005e-09
-9.61732e-09
1.19941e-09
4.23093e-09
6.45131e-09
-1.22645e-09
-3.62524e-09
1.02328e-08
-4.0401e-09
5.09281e-09
3.6106e-09
6.21218e-09
8.92583e-09
2.86839e-09
9.4177e-09
7.10757e-09
-1.59561e-08
1.53007e-08
-4.32999e-09
4.98496e-09
-7.04021e-09
5.01605e-10
-1.80439e-08
5.86043e-09
1.24944e-08
-3.11597e-10
1.37728e-08
-7.51227e-09
6.86269e-09
-1.16471e-08
7.37589e-09
1.50752e-08
-5.4742e-09
7.58303e-09
1.08568e-08
1.31442e-08
2.11775e-08
2.72231e-10
-1.55896e-08
-6.17165e-09
1.326e-08
-9.79449e-09
2.77479e-10
8.68757e-09
8.29683e-10
-6.23085e-09
-9.42945e-09
5.86586e-09
4.39652e-10
1.15139e-08
-1.14098e-08
-5.43857e-10
-5.37639e-09
-6.26879e-09
6.10751e-09
5.53744e-09
-1.07448e-08
1.1462e-08
-3.80479e-09
8.34704e-09
-1.21837e-08
7.64128e-09
4.07613e-09
-1.32573e-08
6.98915e-10
-2.85362e-09
-1.69888e-09
4.78667e-09
-8.79083e-09
1.5374e-08
-1.13699e-08
1.58587e-08
-6.83652e-09
-4.23545e-09
4.01422e-09
3.63358e-09
2.13849e-09
-9.78637e-09
3.82129e-09
-8.5979e-09
-2.75186e-09
3.93142e-09
1.41946e-08
2.61722e-09
1.04896e-08
3.63103e-09
-6.83399e-09
-1.47709e-09
8.00031e-09
-2.70199e-09
3.748e-09
-3.08667e-09
1.30789e-12
-6.84162e-09
1.07717e-08
5.86574e-09
-5.79423e-09
3.67651e-09
3.42449e-09
-5.77034e-09
4.963e-09
-4.91912e-09
8.34486e-09
-2.25622e-09
3.41493e-09
-3.00049e-09
8.61194e-10
2.14036e-09
1.46918e-09
4.42201e-09
-7.20079e-09
1.45114e-08
-1.03509e-08
-1.22592e-09
-2.93467e-09
-1.68395e-09
3.3555e-09
1.28397e-08
-1.89905e-08
2.75858e-09
1.45478e-08
-1.30822e-08
-1.62593e-08
-4.10529e-09
6.94959e-09
6.21829e-09
-9.06272e-09
4.1384e-09
8.35315e-09
-1.65969e-08
-6.90147e-09
1.06451e-08
-6.81846e-10
-3.06201e-09
-1.58453e-08
9.16229e-09
-8.40712e-09
-1.98115e-09
3.12105e-09
1.02826e-08
-8.06705e-09
3.20154e-10
1.11023e-08
-3.82065e-09
4.91586e-09
2.98284e-09
-3.03686e-09
9.00331e-09
9.29074e-10
9.31672e-09
-3.78035e-09
-2.52455e-09
-6.91385e-09
9.75842e-09
-9.26382e-09
9.86022e-09
2.33905e-09
-2.28625e-09
-4.97706e-09
4.02214e-10
2.05581e-10
6.68941e-10
3.22956e-09
4.10499e-11
-3.93962e-09
2.38366e-09
7.36289e-10
-2.45113e-09
-2.74502e-09
2.97779e-09
2.15086e-09
8.23968e-10
-3.39489e-10
3.05531e-09
-3.94556e-11
-2.27964e-09
-1.43366e-09
-4.29093e-11
-6.87636e-10
2.16411e-09
2.25579e-09
-6.34172e-10
-1.46728e-09
3.68008e-09
-1.51398e-09
5.96726e-09
-4.49282e-09
4.68697e-09
-6.15993e-09
3.01235e-09
4.9981e-09
-3.32351e-09
4.15178e-09
-3.15485e-10
-1.49347e-09
3.78361e-09
-6.03206e-10
3.26151e-09
1.28058e-09
3.11424e-09
5.78054e-09
4.46067e-09
4.0205e-09
4.70365e-09
-1.31847e-08
8.14082e-09
5.454e-09
-9.13411e-09
-5.02995e-09
9.99224e-09
-3.11112e-09
-1.85106e-09
5.6707e-09
-5.20793e-09
-5.4927e-09
-5.62971e-09
7.65964e-09
7.96236e-09
-2.69074e-10
3.10119e-10
5.69615e-10
7.19095e-09
3.80274e-10
5.60121e-09
-5.58358e-09
5.51994e-10
-4.87051e-09
-2.62491e-09
1.18568e-09
6.30978e-09
4.61609e-10
1.46216e-09
-3.70788e-09
6.26621e-09
9.34133e-09
-2.42512e-09
-6.08786e-09
8.55698e-09
-2.57593e-09
1.20999e-09
-1.3289e-09
7.26098e-09
1.17273e-08
-2.88195e-09
-8.78334e-09
5.77105e-09
1.68354e-09
-2.01795e-09
2.92931e-09
-2.22136e-09
-4.19395e-09
3.48602e-09
-2.1134e-09
-2.38206e-09
7.42463e-09
-2.24145e-09
-3.36562e-09
3.4936e-09
-4.91637e-09
4.53736e-10
-2.80489e-09
-7.95686e-09
7.67082e-09
3.091e-09
-4.92492e-09
3.90701e-09
-1.78679e-09
-3.1479e-09
5.99277e-09
-1.08017e-08
2.40637e-09
-1.04791e-08
-3.06906e-09
9.3249e-09
-2.15854e-09
-4.09721e-09
1.24517e-08
-9.52791e-09
3.38634e-10
-1.34788e-09
-6.42234e-09
4.4552e-09
1.12921e-08
2.13685e-10
5.81573e-09
4.51895e-09
5.19968e-09
-4.95191e-09
-6.0973e-09
1.15369e-09
7.49647e-10
-5.58993e-10
3.2267e-09
1.34436e-08
-1.30086e-08
-2.13405e-09
6.70312e-10
-9.29585e-09
2.20687e-08
1.4586e-08
-6.81676e-09
-7.09905e-09
-1.67511e-08
8.61462e-09
-1.15988e-09
1.58566e-09
1.73143e-09
8.49081e-09
-1.18083e-08
1.09119e-08
-1.02818e-08
9.55684e-10
7.84674e-09
-9.9437e-09
-1.02552e-08
1.35092e-09
-1.25318e-08
1.45899e-09
2.53735e-09
8.53529e-09
9.29272e-09
-1.09745e-08
3.41313e-09
7.80494e-09
-9.56958e-09
-1.98383e-09
-1.89212e-09
1.16807e-08
-5.22295e-09
3.82183e-09
9.56731e-09
-1.19302e-08
3.71904e-10
1.74154e-09
-2.71916e-09
6.05931e-10
1.96329e-09
1.16348e-09
-2.75455e-09
1.36404e-09
9.36798e-10
-3.37185e-10
5.62906e-10
1.40761e-09
-2.28735e-10
-4.14534e-09
-5.63831e-11
5.64274e-10
3.63758e-09
8.70056e-10
-3.63534e-09
-1.38002e-09
-1.09295e-09
-4.92094e-09
6.88398e-09
-3.61764e-09
3.81887e-09
1.16286e-09
-3.54718e-09
1.61817e-09
-1.18415e-10
9.94957e-11
-3.89916e-10
2.20113e-09
-1.91055e-09
3.15586e-10
4.2333e-09
-7.29941e-10
3.01988e-10
-3.13022e-09
2.03326e-09
-1.11581e-08
1.84443e-08
-3.85454e-09
-2.76583e-09
-1.51071e-08
6.32088e-09
5.675e-09
-1.9599e-08
4.30836e-09
1.80687e-08
-3.93294e-09
1.80519e-08
-1.91732e-08
6.79616e-09
1.64552e-08
-1.40531e-08
1.56498e-08
2.04576e-08
3.05898e-10
1.72259e-08
-7.17614e-09
-1.88376e-08
8.78783e-09
1.95797e-08
-1.25114e-08
1.01575e-08
1.80281e-08
8.4365e-09
-6.88507e-09
1.09378e-08
1.74238e-08
-7.90414e-09
3.0318e-09
-1.65164e-08
1.28736e-08
6.18569e-09
-9.91228e-10
-2.16932e-08
1.67603e-08
-7.92441e-09
1.28575e-08
2.33812e-08
2.72209e-09
-2.51913e-08
-9.12148e-10
1.33597e-08
-1.26767e-08
-1.37408e-08
1.30575e-08
-2.32438e-09
3.17258e-09
1.25112e-08
-4.69233e-09
6.38043e-09
-1.92954e-08
1.22786e-08
-1.83398e-08
1.76654e-09
-1.7383e-08
1.49564e-09
-2.83e-09
1.87173e-08
-1.50257e-09
-1.37551e-08
-9.93374e-09
-1.03043e-08
-8.58121e-09
2.90313e-09
4.76461e-09
6.48487e-09
-1.41526e-08
1.38057e-08
6.36076e-09
-1.72633e-08
1.38203e-08
-1.37698e-08
-8.44164e-09
3.92207e-09
3.06508e-09
1.12568e-08
-9.55747e-09
2.04635e-08
-1.10377e-08
-1.69964e-08
2.33529e-08
-3.18402e-09
-6.54834e-10
1.44889e-08
-1.09482e-08
-1.26127e-09
-2.27978e-09
-1.01192e-09
-1.47676e-08
-3.74527e-09
-1.41136e-08
1.59516e-08
-2.84987e-09
-1.32317e-08
-3.16164e-09
-3.28205e-09
-4.56126e-09
1.21368e-08
-4.29401e-09
-5.9732e-09
9.04059e-09
-6.34974e-09
1.73256e-08
2.12772e-08
-2.51718e-08
-1.34311e-08
-2.86897e-09
1.39155e-08
6.27868e-09
-8.18726e-09
7.56595e-10
-2.74803e-09
7.84309e-09
-1.32824e-08
6.78622e-09
7.11617e-09
-1.66504e-08
1.03334e-08
-9.52052e-09
6.37308e-09
9.52799e-10
1.71461e-09
8.85417e-09
9.65575e-09
1.31808e-08
1.3654e-08
-5.5576e-09
6.55282e-09
2.05436e-08
-1.84602e-08
1.13147e-09
-6.35718e-10
1.1253e-08
-2.83843e-10
-9.89166e-09
1.01626e-08
-9.06593e-10
-1.04851e-08
7.70954e-09
1.01855e-08
2.02035e-09
6.9833e-09
8.31778e-09
-5.13861e-09
-2.76171e-09
1.81686e-08
1.4407e-08
1.71042e-08
-1.60501e-09
-7.3315e-10
-1.47659e-08
1.62216e-09
5.58687e-09
9.89528e-09
1.30894e-08
-2.7917e-09
-1.19027e-08
5.77519e-09
8.93642e-09
7.50781e-09
-2.38778e-09
-7.91169e-09
6.63971e-09
-1.97357e-10
1.06537e-09
8.80394e-09
-9.00778e-10
-8.63622e-09
5.12421e-09
7.29068e-09
1.07613e-08
5.02139e-09
-6.97882e-09
8.08687e-09
8.26133e-09
6.27515e-09
-1.10637e-09
-7.55667e-09
5.12426e-09
9.53528e-10
7.02709e-09
-1.8258e-09
-1.79995e-10
2.80898e-09
1.2305e-08
2.93448e-09
-5.80158e-09
7.99129e-09
-4.88078e-09
1.06242e-08
-4.91447e-09
-5.8213e-09
5.85486e-09
-6.26706e-09
9.45986e-10
4.06504e-10
4.77584e-09
-6.78302e-09
7.52812e-09
-9.01935e-09
-1.18997e-10
2.68634e-10
-1.46088e-08
1.01337e-09
9.4604e-09
4.13499e-09
-1.04812e-08
-1.74148e-08
1.32873e-08
-2.21041e-09
1.36681e-09
-1.39568e-08
1.48006e-08
-5.49285e-09
-2.8768e-10
1.72306e-08
-1.14499e-08
9.75122e-09
-8.88246e-09
-6.36123e-09
1.52867e-08
-7.5671e-09
-1.20139e-09
-6.518e-09
5.36103e-09
-4.34812e-09
1.42739e-08
-1.98438e-10
-1.14742e-08
9.46243e-09
-1.5957e-09
-7.51843e-09
1.58001e-08
-1.07267e-08
-9.40723e-09
3.70327e-09
1.35655e-09
-7.39511e-09
-9.57901e-09
-9.18913e-09
1.86598e-08
-1.67803e-08
1.03798e-08
-1.22594e-08
1.26881e-08
6.25952e-09
-2.87972e-10
-1.25913e-08
-1.93125e-08
1.51235e-08
1.11005e-08
-1.40399e-09
6.83216e-10
1.0548e-08
1.32405e-08
-2.60594e-08
-4.5981e-09
2.15258e-08
9.1314e-09
-2.24298e-08
-1.07959e-08
7.1661e-09
-7.8636e-09
8.39644e-09
1.41105e-08
-1.46436e-08
4.18701e-09
1.14125e-08
-2.0198e-08
1.3813e-09
1.30494e-08
-3.40235e-09
-2.0443e-08
9.18664e-09
2.45865e-09
-2.06656e-08
2.72765e-08
1.49148e-08
-1.9778e-09
-1.15218e-08
2.51014e-08
-1.28656e-08
-1.42138e-08
5.09525e-09
1.21424e-08
-5.77628e-10
1.95218e-08
1.17926e-08
-2.77863e-08
-7.11511e-09
6.04211e-09
1.30248e-08
5.29308e-09
1.27034e-08
1.96682e-08
2.51505e-08
-6.73137e-09
-5.77719e-09
5.14194e-09
7.3666e-09
-6.61266e-09
-6.76055e-10
5.57425e-10
9.47124e-09
-1.01289e-08
-5.9547e-09
-8.12623e-10
4.50679e-09
-2.4311e-09
-1.46411e-09
9.03728e-09
-6.06178e-10
-3.06742e-09
-6.45519e-09
-6.53491e-09
-3.88975e-09
7.99354e-09
-8.13156e-09
9.20607e-10
2.97974e-09
-9.41973e-09
8.58599e-09
-2.14598e-09
-5.82663e-09
6.7486e-10
3.75808e-09
-9.68365e-10
3.31391e-09
-6.10344e-09
-2.52741e-09
-3.13398e-09
-6.22528e-09
9.58824e-09
-5.89e-09
2.93929e-09
-1.01328e-08
1.0788e-08
-3.42644e-09
-7.96772e-09
5.94284e-09
4.03273e-09
-1.48041e-09
-9.19845e-09
1.37974e-08
-3.11843e-09
1.2435e-08
-4.32685e-09
-1.48103e-09
6.17743e-09
-5.58009e-09
-9.68568e-09
-3.98266e-09
8.46139e-09
2.40808e-09
8.54602e-09
1.22229e-08
1.33731e-08
-3.812e-10
-2.3217e-09
-1.5464e-09
8.54425e-10
1.40648e-08
-1.25196e-09
8.6399e-09
-8.93455e-09
-1.25651e-09
6.89042e-09
4.40652e-10
4.62747e-09
8.94224e-09
2.07821e-08
-4.22268e-09
-7.27424e-09
-9.28535e-09
4.0412e-09
2.69075e-09
1.405e-08
-1.14195e-08
4.74034e-09
1.07204e-08
-1.21211e-08
4.91936e-09
-4.2178e-09
-1.14437e-08
1.64991e-08
4.37759e-10
-5.49323e-09
1.17615e-08
-1.59829e-08
-7.22243e-09
9.36323e-09
1.10504e-08
-1.57228e-08
-4.69105e-09
1.80296e-08
-1.28891e-08
6.36459e-09
1.43557e-08
-1.25002e-08
-6.89521e-09
-1.46748e-08
1.47159e-09
1.79435e-08
-8.54687e-09
-1.20857e-09
-3.1253e-09
1.45755e-08
5.04881e-09
8.93208e-11
1.51419e-08
-3.65379e-09
-4.2276e-09
2.02746e-08
1.72789e-08
-1.25052e-09
-2.89376e-09
5.73517e-09
-1.59064e-09
-4.65499e-09
8.0597e-09
-4.65513e-09
-5.2438e-09
-1.28459e-09
3.63463e-09
1.42225e-09
2.70852e-09
-3.48759e-09
-6.43247e-10
-4.42547e-10
6.25158e-09
-4.42591e-09
-1.3832e-09
5.89042e-09
-1.4794e-09
-9.06601e-09
3.22179e-09
7.19635e-09
-4.52772e-09
5.25272e-09
-6.08711e-10
3.97261e-09
-7.76677e-10
-4.87461e-10
-8.00071e-09
-2.56313e-09
1.65156e-09
8.91253e-09
-5.98538e-09
3.7199e-09
3.83627e-09
1.87474e-09
1.48552e-09
4.84759e-09
4.2414e-09
6.37613e-09
3.55846e-09
-1.31002e-09
6.55252e-09
-7.80558e-09
1.32901e-09
3.41621e-09
-7.72579e-10
-9.13886e-10
8.94159e-09
5.26269e-09
5.01305e-09
-3.43162e-09
-2.60422e-09
4.82607e-09
2.79121e-09
2.20187e-09
-2.24741e-10
-2.58794e-10
6.37436e-09
2.89525e-09
-5.19515e-11
-8.8116e-10
3.51763e-09
3.32907e-09
-4.45523e-09
-1.07062e-08
4.90396e-09
1.02568e-08
4.87165e-09
-1.26699e-08
3.34257e-09
9.05379e-09
9.0161e-09
-1.16852e-08
-6.38506e-09
-6.39257e-09
4.73994e-09
1.48741e-09
-4.83877e-09
8.25483e-09
-2.59119e-09
8.94981e-09
-6.18732e-09
2.53339e-09
9.16245e-09
-6.68173e-09
-1.41661e-08
2.18902e-09
5.8052e-10
-9.50656e-09
-4.37899e-09
1.1294e-08
-9.7844e-09
-3.72332e-09
8.66853e-09
-7.48053e-09
-1.14982e-10
1.10289e-08
1.2055e-08
-6.5416e-09
-1.65426e-08
4.10398e-09
7.37451e-10
8.65172e-09
7.50677e-09
-1.11349e-08
-1.20424e-08
1.5501e-08
7.67601e-09
-1.3207e-08
-5.40847e-09
7.72454e-09
-2.09479e-08
1.20525e-08
-1.75351e-08
2.61583e-09
-2.60619e-09
1.76072e-09
2.94971e-09
1.0103e-09
2.86856e-09
-6.82873e-09
3.53538e-09
-7.56791e-09
6.98208e-09
-1.59315e-09
-7.72654e-09
1.28549e-08
-5.45401e-09
4.87092e-09
6.43601e-09
-7.61046e-09
7.96401e-09
-6.78963e-09
-1.36808e-09
-1.18321e-10
7.92237e-09
-3.26248e-09
-4.75917e-09
4.537e-10
-4.60507e-09
3.99563e-09
-7.11716e-09
5.16922e-09
-5.89279e-09
6.43633e-09
-5.71291e-09
-8.52984e-09
9.42186e-09
4.2772e-09
-1.36539e-08
-7.68728e-10
8.31239e-09
-2.5869e-10
-7.39903e-09
1.02574e-08
-1.00977e-08
-1.90644e-09
-5.68323e-09
3.85038e-10
-1.68365e-09
6.98179e-09
-7.90728e-09
-5.51774e-09
7.74173e-09
-3.2764e-09
-7.25024e-09
1.43819e-08
-5.29791e-09
-1.83363e-09
1.61032e-08
-1.71103e-08
-6.24282e-09
9.11404e-09
-1.51251e-08
2.35181e-09
3.65937e-09
5.07032e-09
-8.33737e-09
1.23811e-08
-5.39137e-09
4.64837e-09
1.41519e-08
-3.44044e-09
7.74865e-09
-1.00298e-08
4.63304e-09
-1.33877e-08
-7.49033e-09
8.61329e-09
1.22647e-08
-1.0841e-08
-1.62633e-09
-9.20334e-10
6.13119e-09
-4.05434e-09
5.67179e-09
-2.17302e-09
1.33745e-08
1.11142e-08
-2.74239e-09
-3.88767e-09
-4.48415e-09
1.67497e-09
5.38486e-09
1.38421e-08
-1.71895e-08
-7.49355e-09
8.02678e-09
1.10605e-09
4.70853e-09
-4.38453e-09
-8.38756e-09
1.25269e-08
-1.35562e-08
-5.96995e-10
8.11198e-09
-4.71065e-09
9.12559e-09
1.45523e-08
-8.60744e-09
-1.24697e-08
5.16579e-09
-1.17802e-08
-6.94168e-09
1.56105e-09
-1.69444e-08
-3.4432e-09
2.25911e-08
-1.02894e-08
-2.82731e-09
-9.47467e-09
-2.00204e-09
2.07182e-08
3.87471e-09
-7.88411e-09
8.21544e-09
-6.98374e-09
6.6523e-09
-1.04658e-08
-3.83308e-10
2.96477e-09
-8.77932e-09
-1.09507e-08
9.44045e-09
-5.34405e-10
1.04206e-08
-1.67088e-09
-1.16822e-08
5.42301e-10
9.13764e-09
-7.13397e-09
-7.37563e-09
1.37396e-09
-8.41984e-09
7.58796e-09
-6.91376e-09
7.75324e-09
3.81449e-09
-8.4053e-09
-5.87505e-09
-2.51881e-09
-6.50629e-10
1.81176e-10
-4.57167e-09
-4.38899e-09
-3.97703e-09
-4.24723e-09
2.41505e-09
3.67335e-09
-1.06603e-08
4.73249e-09
-6.29443e-09
1.26548e-09
-7.17959e-09
-2.50585e-09
-4.99967e-09
-6.48738e-10
1.21706e-09
6.06491e-09
-3.60868e-09
6.50759e-09
-5.58152e-10
-8.24869e-09
-1.01086e-09
1.97534e-09
-1.18761e-08
1.11259e-08
-1.22531e-09
-7.1044e-09
8.57215e-09
5.07475e-10
9.4174e-09
1.28223e-08
-1.12945e-08
-1.09453e-08
-2.28358e-10
8.72478e-09
9.20776e-10
8.08807e-09
4.1483e-09
-5.06502e-09
-7.17162e-09
7.55235e-10
-1.70264e-09
-6.0252e-09
-1.15378e-08
9.7801e-10
1.28502e-08
-2.29057e-09
-4.32718e-09
-8.91324e-09
2.13144e-09
-2.49443e-09
8.93505e-09
1.42353e-08
2.69497e-09
9.82596e-09
3.01234e-10
8.92533e-09
-6.3248e-10
-1.39366e-08
1.02418e-08
-1.6992e-08
-4.15058e-10
-1.10261e-08
4.5454e-09
6.89582e-09
-2.08808e-09
-3.39423e-09
-5.63014e-09
1.11126e-08
1.5873e-08
5.50044e-09
-1.21941e-08
-9.17943e-09
8.25754e-09
-3.12258e-09
1.07381e-08
1.0625e-08
-2.29842e-09
-2.82601e-09
1.19072e-08
6.97531e-09
-6.2253e-09
8.99419e-09
-4.85689e-09
3.28071e-09
-9.921e-09
1.8887e-09
-9.41495e-09
-3.56576e-10
7.88304e-09
-7.02177e-09
-5.43963e-11
6.37613e-09
7.00219e-10
1.42042e-10
-6.06533e-09
-4.49121e-09
1.04145e-08
1.22301e-08
-9.54954e-09
-1.48746e-08
2.6787e-09
6.42883e-09
-3.0241e-09
9.72e-09
-6.12679e-09
5.30824e-09
6.09292e-09
-8.72249e-09
-3.68914e-09
-5.09729e-09
6.32845e-09
2.45771e-09
5.14872e-10
3.22051e-09
-7.14165e-09
3.15739e-09
4.49913e-09
-2.73424e-09
1.1228e-09
-9.06672e-09
-2.89656e-09
5.66339e-09
6.29965e-09
1.1054e-09
-1.00043e-08
1.87548e-09
7.02337e-09
-1.04559e-08
2.49449e-09
-6.23785e-09
6.06912e-10
-9.65015e-10
-2.34216e-09
-6.69721e-09
-2.22379e-09
-9.1972e-09
-6.25709e-09
-7.712e-09
4.31743e-09
7.1753e-10
9.26033e-09
5.43942e-09
-8.88363e-09
8.41467e-09
-1.02697e-08
-6.10602e-09
7.9616e-09
8.11763e-09
6.16822e-09
-9.76679e-09
3.97381e-09
4.86897e-09
-7.25029e-10
1.10789e-08
2.49883e-09
1.51482e-08
-1.29421e-09
-4.793e-09
-1.43606e-08
7.37913e-09
8.83442e-11
6.02894e-09
7.55502e-09
-7.41554e-09
1.16236e-08
-7.25599e-10
9.31151e-09
1.69155e-08
4.38006e-09
6.21965e-09
-1.11034e-08
9.95146e-09
1.27758e-08
-4.8425e-09
-4.39464e-11
1.25128e-08
1.42876e-08
8.47303e-09
-1.29069e-08
-6.64795e-09
1.1082e-08
-8.29302e-09
1.51589e-09
1.52503e-08
-1.51565e-08
-5.62835e-09
1.24919e-08
-3.32594e-09
-9.40431e-09
-2.4261e-09
-3.13423e-09
-1.30985e-08
-4.73495e-09
-1.22534e-09
1.00397e-08
-4.07929e-09
-1.98069e-09
9.3984e-09
-1.21526e-08
9.95811e-10
3.43219e-09
-1.10758e-08
6.28912e-09
2.28176e-09
-7.57498e-09
-7.45484e-09
5.90649e-09
7.83743e-09
5.55758e-09
-1.64459e-08
8.90766e-09
1.04381e-08
-6.10596e-09
-1.09479e-08
1.37434e-09
3.94516e-09
-9.91411e-09
5.61247e-09
7.75736e-09
-3.33017e-09
-4.07709e-09
8.36378e-09
1.32571e-09
-9.32592e-09
3.95284e-09
1.29607e-09
-8.90576e-09
8.97826e-09
-4.39325e-09
8.91266e-10
-5.88119e-09
1.33036e-08
-6.38619e-09
8.86875e-09
2.74553e-09
1.83705e-11
-1.58373e-09
-1.10587e-08
-8.39033e-09
-1.94255e-09
-5.85693e-09
-6.91435e-09
-3.07533e-10
-4.20723e-09
-1.05126e-08
-7.3863e-09
-1.13188e-08
-1.46198e-08
3.02628e-09
1.42969e-09
-4.0033e-09
-2.40669e-09
4.98042e-09
-3.55992e-09
-1.14796e-09
6.13759e-09
-1.68477e-09
-3.3506e-09
1.47571e-09
1.67603e-09
-2.98428e-09
-3.76163e-10
-6.02326e-09
9.24657e-09
-4.37112e-09
-2.09601e-09
-2.31181e-10
-4.10997e-09
1.66283e-09
4.05032e-11
-2.84876e-09
1.56384e-09
-2.0656e-09
-1.16035e-09
-4.67263e-09
-7.57831e-10
-3.70152e-09
-2.99409e-09
-3.21183e-09
-7.09117e-09
2.93682e-09
3.61523e-09
9.72496e-09
-5.20934e-09
-8.13096e-09
5.73303e-09
-1.998e-09
-1.19944e-10
1.12079e-08
8.39276e-09
-1.21399e-08
-7.4609e-09
1.16413e-09
-1.65131e-09
1.1695e-08
1.69905e-09
9.18991e-09
7.58184e-10
6.67387e-09
-2.18291e-08
2.92262e-10
1.98852e-08
-2.70425e-09
-1.07322e-08
-1.09492e-08
7.56138e-10
1.04851e-08
-7.61246e-09
-6.04103e-09
4.49028e-11
-6.41203e-09
7.12302e-09
-5.42083e-09
6.22379e-09
5.04693e-09
-1.08219e-08
2.44062e-09
3.33428e-09
3.46861e-09
-4.19817e-10
1.68029e-09
-2.44309e-09
-5.64938e-09
-2.71949e-10
1.0874e-08
-5.90768e-09
6.37438e-09
-1.13413e-08
-5.21533e-09
1.14329e-08
4.65588e-09
-9.89323e-09
6.78461e-09
-2.10698e-09
1.16121e-09
-1.69622e-08
-1.62781e-09
-5.35987e-09
1.33619e-08
-7.46601e-09
1.43062e-08
-5.55717e-11
6.94515e-09
-1.32499e-08
-8.83201e-09
4.64678e-09
-6.80373e-09
1.09889e-08
-5.98583e-11
-1.0494e-08
1.72182e-09
-9.70255e-09
1.50474e-08
-6.97261e-09
-2.35119e-08
2.07546e-08
8.86049e-09
1.35087e-09
1.22136e-09
-7.36281e-09
-4.12813e-09
1.61377e-08
1.43783e-09
-1.04155e-09
4.85381e-09
1.5509e-09
-9.39608e-09
8.7542e-09
8.93034e-09
-2.63719e-09
1.39139e-08
-9.288e-09
-6.69299e-09
7.20786e-09
-1.42152e-09
1.50857e-09
2.99981e-09
-1.49937e-08
3.40646e-09
-8.59102e-09
-8.79354e-09
2.19463e-10
2.55307e-09
6.02075e-09
7.53242e-09
-9.11811e-09
-1.0646e-08
3.55162e-09
7.3136e-09
2.0061e-09
-5.11975e-09
-1.1316e-08
-1.19171e-08
1.14248e-08
1.95094e-09
-1.02672e-08
8.3525e-09
-2.99525e-09
8.97865e-09
-1.38448e-08
1.21734e-08
-6.79486e-09
-5.04397e-09
-9.41692e-09
-5.21296e-09
-3.14886e-09
-4.67822e-09
-5.53456e-09
1.74359e-09
-1.42206e-09
-3.98037e-09
-5.60129e-09
-1.2995e-10
9.71164e-09
-7.18858e-09
1.17246e-08
-8.51638e-09
-2.17449e-10
5.69357e-09
-1.10107e-08
-4.90758e-09
-5.80118e-09
7.55996e-09
-8.56611e-09
-1.94273e-09
6.44411e-09
7.24082e-09
8.9082e-11
-1.37739e-08
7.84064e-09
3.68099e-09
-5.07745e-09
8.26014e-09
-6.08886e-09
5.06946e-09
1.08239e-08
5.27685e-09
4.80531e-09
-3.99843e-09
-8.86692e-10
-9.00287e-09
5.09347e-09
-9.04163e-10
1.98148e-09
4.43831e-09
-5.51541e-09
1.67649e-09
3.39401e-09
-5.97442e-09
-3.14365e-09
-2.23131e-09
2.81737e-09
-3.48673e-09
-1.23835e-09
-5.61202e-09
1.99991e-10
3.18095e-09
-3.88047e-09
-5.21825e-09
-2.92379e-10
-1.60653e-09
-1.44712e-09
2.83135e-09
-1.67903e-09
4.96441e-09
1.15306e-09
-1.92031e-09
2.99062e-09
2.17389e-09
4.37847e-09
6.38987e-09
-6.71859e-09
-4.04984e-09
3.62831e-09
-1.52956e-09
-2.55862e-09
2.1458e-09
1.63934e-10
2.49101e-10
1.4925e-09
-1.37241e-09
-2.67859e-09
7.29099e-09
2.7639e-10
-1.17753e-09
4.072e-09
6.84733e-09
-4.53038e-09
5.68729e-09
-8.80511e-10
3.29887e-09
-3.41317e-09
-4.41607e-09
4.40089e-10
-2.689e-09
-4.46971e-09
-2.77866e-09
2.21137e-09
2.71314e-09
-1.44816e-09
1.61948e-10
-2.6856e-09
1.25496e-09
5.87218e-11
-4.11958e-09
1.10079e-11
4.27276e-09
-3.43027e-09
3.56084e-09
5.55678e-09
1.17776e-10
-5.91385e-09
1.93317e-09
-2.0386e-09
-3.43528e-09
-4.70613e-10
-5.63158e-09
-2.66102e-10
7.8989e-09
-1.86913e-09
1.61897e-09
-1.78859e-09
2.36754e-09
-2.31497e-09
-2.73121e-09
1.03409e-09
-1.14769e-10
-4.6547e-09
-2.17016e-09
4.11543e-09
-2.79044e-09
2.55335e-09
-1.37387e-10
-1.5284e-09
-6.04491e-09
-9.75069e-11
-1.59644e-09
-5.41804e-09
6.77526e-09
2.39188e-10
-6.93125e-09
5.06451e-09
2.7026e-10
-5.1326e-09
-1.97774e-09
1.79083e-10
1.50968e-09
5.84014e-09
-7.17407e-09
-1.7597e-10
-5.1427e-09
6.90655e-09
-2.54272e-10
1.41889e-09
-7.95213e-09
6.94862e-09
-4.15501e-10
8.69146e-09
-7.01982e-09
-2.52809e-10
-2.96934e-09
4.10072e-09
-8.98255e-10
-2.33077e-10
-4.63047e-09
2.22066e-09
-5.59528e-10
2.11603e-09
-4.89011e-09
3.38033e-09
-6.06171e-10
-1.77415e-09
4.53334e-09
-6.43175e-10
-1.20445e-09
-3.43724e-09
-2.48396e-10
3.62067e-09
-8.77845e-09
4.26453e-09
8.93299e-10
-5.60911e-09
8.26636e-09
9.6351e-10
2.07131e-09
-8.47771e-09
7.97272e-10
-1.73445e-09
9.54444e-09
-8.40527e-09
5.95262e-10
-9.55874e-09
7.45295e-09
3.71405e-10
-5.7159e-09
8.95779e-10
4.6144e-09
2.05501e-10
1.24164e-09
-6.40231e-09
4.84607e-09
3.14335e-10
-4.73087e-09
2.5657e-10
-1.6395e-09
-5.01158e-09
2.48581e-10
-1.775e-09
-4.91263e-09
6.37207e-09
3.15495e-10
-8.19358e-09
5.99335e-09
4.25092e-10
-2.27214e-09
4.09327e-10
1.06121e-09
2.86798e-10
1.8857e-09
4.54214e-09
-5.71812e-09
-7.09616e-10
-4.65337e-09
7.09938e-09
-5.60244e-10
1.30597e-09
-1.14267e-08
9.59876e-09
5.22002e-10
6.91846e-09
2.11661e-09
-9.75919e-09
7.24216e-10
7.43091e-09
7.93599e-10
8.03935e-09
-6.62113e-09
6.98253e-10
-1.28754e-09
-2.90887e-09
4.73291e-09
-5.36551e-10
3.64824e-09
-6.94455e-10
-4.41728e-10
4.29882e-09
-3.62609e-09
-2.30794e-10
4.19041e-09
-4.54658e-09
-8.56467e-11
-1.93841e-09
6.49567e-09
-3.66685e-10
-3.4801e-09
-3.10687e-09
6.7916e-09
-2.04637e-10
-4.07047e-09
8.60556e-10
-2.70116e-10
-2.6071e-09
-4.96188e-09
8.0279e-09
-4.5906e-10
6.00782e-09
-8.61744e-10
-1.31705e-09
-5.26239e-09
6.63969e-09
-6.03062e-11
-6.93118e-09
5.5391e-09
7.49499e-11
-5.48099e-09
-8.13746e-10
-6.36337e-10
-8.52023e-09
9.48036e-09
-1.57611e-09
6.15994e-10
3.65814e-11
-8.8614e-09
8.3431e-09
4.8164e-10
-8.79603e-09
3.1236e-10
-8.61896e-09
-9.59746e-10
7.17234e-10
1.06398e-08
1.21812e-08
-1.4478e-08
8.16014e-10
-7.3674e-09
6.21436e-09
3.3716e-10
-6.48581e-09
7.15559e-09
1.46265e-10
-6.65644e-09
-9.33136e-10
2.22229e-10
2.39758e-09
-1.2271e-08
8.10638e-10
1.22923e-08
-1.09788e-08
1.08395e-09
1.12202e-09
-2.90863e-09
2.09503e-09
-3.08291e-10
3.66586e-09
-2.28263e-09
-2.61222e-10
7.6565e-09
-6.59352e-09
-1.61475e-09
5.51904e-10
1.19106e-09
6.02621e-09
4.39213e-10
-6.56618e-09
7.39804e-09
3.59076e-10
2.83115e-09
3.27079e-09
-5.57525e-09
-5.26556e-10
-2.13888e-09
5.27093e-09
-3.00841e-10
1.93497e-09
1.44604e-09
-3.05249e-09
-3.28191e-10
3.13709e-09
-1.106e-09
-9.6038e-11
-5.41339e-09
-1.39219e-09
6.60957e-09
1.95782e-10
1.47874e-09
-7.14705e-09
2.54708e-10
6.57436e-09
-5.1416e-09
4.5847e-11
-7.04334e-10
-7.62967e-09
7.4665e-09
8.67574e-10
7.51439e-09
-9.21733e-09
9.98796e-10
-4.06797e-09
-4.60244e-09
7.95833e-09
7.12169e-10
4.11146e-09
-8.76645e-09
5.87084e-10
8.44952e-09
-5.09086e-09
7.52863e-10
-6.54997e-09
5.24021e-09
2.25054e-09
4.24423e-09
-6.27507e-09
-2.198e-10
7.06084e-09
-4.69132e-09
-1.19057e-10
5.71377e-09
-6.15451e-10
-4.82084e-09
-2.77431e-10
-1.17483e-09
5.73402e-09
-4.40004e-09
-1.59148e-10
4.66745e-09
-1.28578e-10
-1.92136e-09
3.24837e-09
-1.04987e-09
-2.76992e-10
1.18548e-09
-2.61398e-09
-4.92685e-10
-1.7544e-09
3.3705e-09
-4.30577e-10
3.42216e-09
3.30248e-10
-3.39123e-09
-3.61199e-10
3.9483e-09
-4.40888e-10
-8.52405e-11
4.22465e-09
-3.69315e-09
-2.0124e-10
-6.02408e-09
9.09951e-09
-3.46505e-09
3.89521e-10
-2.63429e-09
-6.43105e-09
8.68241e-09
3.82826e-10
-8.74666e-09
8.82231e-11
-7.9447e-09
2.88307e-10
7.96508e-10
-5.75593e-09
5.01397e-09
-5.47375e-11
3.41035e-09
-6.43864e-09
3.17559e-09
-1.47371e-10
4.09413e-09
1.12693e-10
-1.9745e-09
-4.52198e-09
5.77897e-11
1.00421e-09
1.78878e-09
-2.39829e-10
3.40452e-09
-2.49455e-10
-9.81337e-10
2.26523e-09
-1.13885e-09
-1.45002e-10
1.22364e-09
-1.71494e-10
2.16711e-09
-8.4747e-10
-9.59347e-11
-1.21419e-09
-1.20872e-08
1.26689e-08
6.32449e-10
-1.28478e-08
1.13814e-08
2.52085e-10
-2.27524e-09
-1.64745e-09
4.18936e-09
-2.66577e-10
1.79083e-09
-3.49625e-09
-5.69805e-10
-1.53347e-09
3.81683e-09
-4.92386e-10
2.91367e-09
-3.65182e-09
-7.9531e-10
1.53533e-09
2.7372e-09
-3.49749e-09
-7.74934e-10
-2.35617e-09
4.53608e-09
-6.44501e-10
-4.2382e-09
2.80893e-09
-9.26804e-10
4.19111e-09
-9.68769e-10
-4.85065e-10
3.99904e-09
2.80226e-09
-6.31893e-09
-4.82479e-10
-1.89952e-09
6.1626e-09
-2.6403e-10
-3.76082e-09
-4.98841e-09
7.94236e-09
8.07024e-10
-1.00022e-08
5.16956e-09
1.07184e-09
4.97165e-10
6.35005e-09
-7.39202e-09
5.44831e-10
6.87969e-09
-6.81522e-09
4.32722e-10
6.48246e-09
-1.49823e-10
5.47045e-10
9.34585e-10
-2.70008e-09
2.0258e-09
-2.60211e-10
3.37599e-09
-2.25031e-09
-1.91098e-10
2.46456e-09
-4.62679e-09
2.50173e-09
-3.39273e-10
-1.65103e-09
4.1897e-09
-7.40997e-11
1.22179e-09
9.30458e-10
-2.00567e-09
-1.46303e-10
-1.05885e-09
2.31763e-09
-3.69793e-11
-5.2913e-09
5.86385e-09
-8.75158e-10
3.02268e-10
5.82945e-10
-6.2877e-09
4.13401e-10
-5.74212e-09
6.22121e-09
1.03733e-10
-5.37964e-09
-1.28107e-09
3.72727e-10
4.06048e-09
2.82455e-09
-6.51224e-09
-3.72834e-10
6.19836e-09
-1.99136e-09
-1.46559e-10
7.26185e-09
-1.57829e-09
-6.60722e-09
9.23701e-10
-1.01202e-09
6.66643e-09
-6.29144e-09
6.37e-10
5.60498e-09
6.45179e-10
2.42206e-10
5.8987e-09
5.25689e-10
9.03955e-10
-4.85983e-09
4.78864e-09