/*--------------------------------*- C++ -*----------------------------------*\
| =========                 |                                                 |
| \\      /  F ield         | OpenFOAM: The Open Source CFD Toolbox           |
|  \\    /   O peration     | Version:  v1612+                                |
|   \\  /    A nd           | Web:      www.OpenFOAM.com                      |
|    \\/     M anipulation  |                                                 |
\*---------------------------------------------------------------------------*/
FoamFile
{
    version     2.0;
    format      ascii;
    class       surfaceScalarField;
    location    "50";
    object      phi;
}
// * * * * * * * * * * * * * * * * * * * * * * * * * * * * * * * * * * * * * //

dimensions      [0 3 -1 0 0 0 0];

internalField   nonuniform List<scalar> 
37395
(
-4.25043e-09
3.59192e-09
5.83462e-09
-5.17613e-09
3.46089e-10
-2.00752e-09
-4.96996e-09
6.63134e-09
2.90217e-09
-3.96523e-09
-6.08752e-09
7.15071e-09
3.60213e-09
9.55274e-09
-3.13635e-09
-1.00185e-08
1.28009e-09
-4.17061e-09
1.67291e-09
1.21764e-09
-5.29274e-09
2.40864e-09
5.01999e-09
-2.13591e-09
-2.87557e-09
-2.96083e-09
5.43658e-10
-2.59599e-09
4.73911e-09
4.19828e-09
-6.34142e-09
3.30983e-10
-2.78634e-09
-1.40643e-10
2.91752e-09
-4.513e-09
8.33147e-11
8.2579e-09
1.97144e-09
-7.09836e-10
1.14691e-09
-2.66807e-09
4.72281e-09
-3.1699e-09
-2.08025e-10
7.85985e-11
1.33152e-08
-5.22404e-09
-1.05285e-08
2.43722e-09
9.81666e-10
-1.93816e-09
1.42717e-08
1.42552e-08
-1.13788e-08
1.7925e-09
-4.66898e-09
-9.74659e-10
1.62115e-08
-1.42625e-08
-2.34033e-09
-1.90918e-09
-7.02484e-09
-1.59447e-09
-1.22992e-08
-1.91202e-09
1.2273e-08
-2.53856e-09
-1.16698e-08
-2.22829e-08
-2.91589e-09
2.42241e-08
-1.44229e-08
-6.0675e-09
-9.95461e-09
-1.13328e-08
-2.45247e-10
8.62496e-09
-1.02917e-08
-1.93523e-08
-2.22547e-09
1.86619e-08
-1.69497e-08
-1.68255e-08
-4.6998e-09
1.18735e-08
-2.29361e-09
-4.88008e-09
-1.41432e-08
1.16725e-08
9.77574e-09
-4.60006e-09
-1.28668e-08
7.69114e-09
8.1687e-09
8.4666e-10
7.60391e-10
-5.58882e-09
9.62297e-09
-6.78229e-09
2.7481e-09
-1.48976e-08
4.70867e-09
-7.94567e-10
-6.53212e-09
-6.76905e-09
2.25922e-09
-7.44663e-09
7.39433e-09
-2.20692e-09
-2.88111e-09
5.04812e-09
9.22089e-11
4.5793e-09
-6.26138e-10
5.88322e-11
-4.012e-09
1.84199e-09
-1.43797e-10
-5.10675e-10
-5.22323e-09
-1.71273e-09
7.61205e-10
1.98971e-10
4.08793e-09
1.32643e-09
6.82909e-09
8.26776e-09
-2.38447e-09
-6.39396e-09
8.67336e-09
5.56523e-09
-5.97084e-09
7.49488e-09
-2.02462e-09
3.20307e-09
8.05383e-09
7.67467e-10
-5.19698e-09
-6.52398e-10
3.04758e-09
-5.11772e-09
5.2352e-09
-3.16506e-09
4.8784e-09
1.11547e-11
-6.67404e-10
-4.39148e-09
6.54493e-09
-1.65798e-09
3.4824e-10
-1.05972e-09
6.75725e-09
8.47396e-10
4.01765e-09
6.39371e-09
-6.64688e-09
-4.14233e-10
-1.27451e-09
6.01024e-09
1.9547e-09
4.25789e-09
-2.6915e-09
-3.52109e-09
2.37913e-09
-4.57685e-10
3.32719e-11
-1.49631e-09
1.88678e-10
3.68677e-09
-1.14464e-09
3.90622e-09
9.39003e-09
3.29162e-09
1.58306e-09
-1.42647e-08
-1.30861e-09
1.98146e-09
8.71717e-09
1.99772e-09
-2.33484e-09
-1.20563e-10
-1.01169e-09
3.19809e-09
-9.84585e-09
7.3926e-09
6.17174e-09
-5.91171e-09
3.03159e-09
7.14151e-09
2.36391e-09
-5.51147e-09
4.56053e-10
-1.02277e-08
2.74579e-09
-5.40388e-09
-2.16215e-09
1.65431e-09
-5.24138e-09
6.12053e-09
-2.2818e-10
-6.50963e-10
6.39898e-09
-3.48814e-09
-8.15219e-09
2.60308e-09
3.56824e-09
2.27716e-10
1.75833e-09
6.96527e-09
2.31349e-09
2.54207e-09
-8.34365e-09
3.22905e-09
2.5166e-09
-3.43214e-09
3.45284e-09
-4.51968e-10
-3.04867e-09
2.57363e-09
3.92788e-09
-5.00155e-10
-3.18739e-11
3.37771e-09
-6.3905e-09
5.55491e-09
-1.29047e-09
5.62247e-09
-3.02501e-09
4.2013e-09
-2.46672e-09
-1.47421e-10
-3.10449e-09
1.714e-09
5.99194e-09
-2.2432e-09
5.07722e-09
2.7694e-09
9.18392e-09
3.20195e-09
7.48553e-09
4.80245e-09
-2.21593e-09
-8.72503e-10
3.73494e-09
1.03501e-09
3.25201e-11
-5.49584e-10
-3.00243e-11
5.99419e-09
-3.66474e-09
2.87296e-09
4.01978e-09
-3.31879e-09
-3.57395e-09
-6.16292e-10
3.56032e-09
-7.10897e-11
3.57024e-09
-2.18769e-09
2.21365e-09
-3.59621e-09
3.08906e-09
-1.35143e-10
-4.49466e-09
3.11052e-09
4.94445e-09
-6.01965e-10
1.2712e-10
-6.2883e-09
7.8182e-10
-1.16597e-09
-3.6296e-09
7.00921e-09
-4.41269e-09
1.31171e-08
-5.59397e-09
5.00911e-09
-6.0027e-10
-5.01081e-09
7.13437e-09
-5.06154e-09
-3.23879e-09
7.73079e-09
-2.11054e-09
5.17228e-09
-5.23116e-09
2.16939e-09
-2.66989e-09
5.62473e-10
-3.17106e-12
-1.75741e-09
8.00014e-10
6.12969e-09
-1.80398e-09
5.78584e-10
-4.00579e-09
-1.49789e-09
-2.976e-09
8.40873e-09
-2.40705e-09
-5.42306e-09
5.98323e-10
6.05301e-09
-2.72566e-09
3.87175e-09
-2.35686e-09
1.93682e-10
-6.32432e-09
7.92234e-09
-2.2582e-09
6.60196e-10
-2.12059e-09
-6.61079e-09
6.51313e-09
4.23048e-09
-3.56068e-09
-7.94765e-10
1.24969e-10
5.43491e-09
7.44901e-10
-8.30044e-09
5.4202e-09
-2.24348e-09
2.91315e-09
-3.66615e-09
3.44521e-10
2.11774e-10
-2.21508e-10
-8.97382e-09
9.18114e-10
8.27719e-09
7.85653e-10
7.55897e-09
-8.56614e-09
4.76286e-09
-3.81743e-09
3.21104e-09
-4.15647e-09
5.11521e-09
-7.96462e-10
4.44101e-10
-1.94711e-09
-3.28067e-09
-3.74604e-09
-4.54511e-09
5.08839e-10
4.82191e-09
2.63512e-10
-7.50145e-09
3.42049e-09
-2.85592e-09
3.42602e-09
3.85201e-10
-3.00864e-11
2.62466e-09
4.39695e-09
-2.69429e-09
-4.32732e-09
3.08177e-09
-5.15864e-10
5.87258e-11
5.8416e-09
-3.39177e-09
4.42676e-09
4.4966e-09
-1.38745e-10
-2.7601e-09
3.40767e-09
5.20612e-09
3.07846e-09
-5.50924e-09
2.46951e-09
9.30834e-11
9.4599e-11
1.86308e-08
-2.39478e-08
-2.11134e-08
2.64304e-08
2.64989e-08
-3.30416e-08
-1.2263e-08
1.88057e-08
4.72632e-11
2.01632e-08
6.28848e-09
1.41437e-08
4.53433e-09
2.19401e-08
1.28332e-08
-8.79738e-10
-3.38935e-08
3.01305e-08
-2.99779e-08
2.00106e-08
3.25448e-08
-1.33144e-08
-4.95038e-09
-1.428e-08
2.84612e-08
2.60236e-08
1.38986e-08
1.32004e-08
-1.29553e-08
1.66363e-08
7.41442e-09
-1.12175e-08
2.29356e-08
7.59929e-09
-8.71465e-10
-4.69397e-09
5.61799e-11
7.61192e-09
4.12676e-09
-8.03206e-09
-3.70663e-09
-7.60989e-10
-1.23381e-08
8.08209e-09
7.28841e-09
-3.03249e-09
-2.35017e-09
-3.09997e-09
-8.31344e-09
1.37636e-08
-1.05615e-08
-4.48903e-09
7.1199e-09
-5.91158e-09
1.61663e-09
-3.02599e-09
-2.91798e-09
-7.8597e-09
7.81854e-10
3.68606e-09
-2.28677e-09
-3.9563e-09
8.65931e-09
-4.05159e-09
-6.8945e-09
4.95214e-09
-5.88509e-09
-1.26648e-09
-2.92827e-09
-4.60955e-09
6.13103e-09
1.40684e-09
-8.04465e-09
1.69559e-09
3.42083e-09
-5.78181e-10
-4.16985e-09
-3.29661e-09
-7.7455e-09
1.4074e-09
7.18198e-10
5.61995e-09
-4.19498e-09
-4.12868e-09
1.54724e-08
-1.05733e-08
-5.94836e-09
1.04922e-09
-4.45034e-09
1.53132e-08
-9.9914e-09
3.164e-09
8.23481e-09
-1.21237e-08
-2.06272e-09
-1.10544e-08
-3.68879e-09
1.43671e-08
-7.12429e-09
-1.31912e-08
8.2611e-09
1.65567e-09
-2.12668e-08
5.28942e-09
1.47795e-08
1.19789e-09
-3.6588e-10
1.12135e-08
-3.21144e-08
1.23116e-08
6.31432e-09
-1.89918e-08
-2.25946e-08
8.33111e-09
1.95529e-08
7.23454e-09
-1.86156e-08
-5.20319e-09
2.41069e-08
-4.12419e-09
1.60074e-08
-8.89901e-09
6.55122e-09
1.66025e-08
-1.68395e-08
-1.20369e-08
2.58226e-08
1.24178e-08
-1.33175e-08
1.75023e-08
-3.32842e-09
1.60863e-08
-3.40072e-10
-1.1602e-08
1.22906e-08
2.34183e-08
1.07705e-09
4.60062e-09
2.57391e-08
-1.42534e-08
2.68835e-08
-9.99237e-09
-1.18975e-08
6.17021e-09
-3.42709e-09
9.15441e-09
-1.47622e-09
-1.13861e-08
9.64874e-10
2.03922e-10
6.51676e-09
-5.50474e-10
6.21228e-09
5.95583e-09
-1.55952e-08
-4.49676e-10
6.86589e-09
-5.71767e-09
6.20648e-09
6.02794e-09
5.23367e-09
-1.79694e-09
1.08642e-08
9.10586e-09
-1.40143e-08
1.19378e-08
2.80346e-09
-3.87703e-09
-1.52983e-09
1.21207e-08
-4.38438e-09
4.08017e-09
2.98399e-09
2.0416e-09
6.5562e-09
9.46174e-09
7.91837e-09
1.18735e-10
1.29447e-08
-1.18839e-08
1.85048e-08
2.57537e-09
-9.19636e-09
-1.16908e-08
-7.68074e-09
7.48771e-09
-1.06149e-08
8.01558e-09
-1.13994e-08
1.39988e-08
8.40454e-09
-4.85037e-09
-1.41691e-08
1.23392e-09
7.50339e-11
7.09559e-09
-7.57414e-09
7.36099e-09
-1.26296e-08
1.28428e-08
-1.87444e-08
1.8794e-08
-1.11956e-08
1.1146e-08
1.53624e-08
-2.43274e-08
-9.77932e-09
-1.07775e-08
1.13548e-08
1.47851e-08
-2.66884e-09
-1.00637e-09
5.76425e-09
-1.81887e-08
-1.06681e-08
-6.2982e-09
-1.18608e-08
-1.58548e-09
-1.67647e-08
-5.374e-10
-4.6088e-10
-4.36067e-09
5.35896e-09
-1.46382e-10
3.24747e-09
-3.6385e-09
-5.11238e-10
6.09875e-09
-6.04842e-09
3.46051e-09
-4.11814e-09
5.75717e-09
6.88317e-09
-6.54155e-09
5.85327e-09
1.77297e-09
-1.86914e-09
-7.57471e-09
5.80414e-09
7.62384e-09
1.96904e-09
-2.6606e-09
-1.14964e-09
6.92917e-09
-1.80105e-09
-3.97844e-09
6.36996e-09
-4.19048e-09
-3.32912e-09
-1.66094e-09
3.88234e-09
4.70779e-09
1.83573e-09
2.87329e-09
-3.98446e-09
1.14874e-09
8.63987e-09
-2.07596e-09
6.05241e-11
2.25246e-09
-3.19546e-09
8.15969e-09
-3.12861e-09
1.43271e-09
-4.81813e-11
3.56186e-09
1.23306e-10
5.01558e-09
1.27549e-08
-8.1578e-09
-9.61271e-09
1.7911e-08
-5.48101e-09
2.43052e-08
-4.78062e-09
-6.32416e-09
-3.05478e-09
4.4848e-09
1.64809e-08
7.67227e-10
8.93293e-09
4.61289e-09
1.05144e-08
-1.436e-08
2.31382e-09
2.66043e-08
2.97342e-08
-1.87628e-08
1.93379e-08
5.29373e-09
-5.86874e-09
1.51886e-09
1.70864e-09
-6.94935e-09
-1.69305e-08
1.7648e-09
2.21151e-08
-6.34466e-09
-4.30059e-09
3.69593e-09
-1.92004e-08
-1.31325e-08
1.54023e-08
-1.87512e-08
-6.79383e-09
4.06976e-09
2.13566e-09
1.48736e-08
2.29306e-09
1.4161e-09
-1.00522e-08
6.1563e-09
2.92009e-08
-2.5305e-08
-3.94966e-09
1.62879e-08
-2.23905e-08
-1.63685e-08
2.42896e-08
1.70032e-08
2.98786e-09
-1.82824e-08
4.7045e-09
-1.88005e-08
1.05503e-08
1.43656e-09
-2.50572e-08
2.66085e-08
-9.15813e-10
1.98906e-08
1.56259e-09
6.59378e-09
-6.46021e-09
-1.69612e-09
4.11313e-09
-2.64418e-09
9.3663e-11
1.59279e-09
-8.46467e-10
5.84747e-09
9.43202e-10
4.76272e-09
-1.6016e-09
-5.01912e-09
1.60558e-10
3.87547e-09
-1.31114e-09
-4.1659e-09
1.31486e-09
-8.3548e-11
1.54978e-09
7.43687e-09
-9.83311e-09
2.56809e-09
-5.75983e-09
6.33207e-09
-3.1403e-09
3.89069e-09
-7.73633e-12
2.60461e-09
-7.31209e-09
6.25725e-09
1.07051e-09
-8.49181e-09
1.00259e-08
1.06125e-09
-8.13222e-09
-4.58646e-09
6.60019e-09
-4.70107e-09
4.00531e-09
9.20816e-10
7.10203e-10
9.2704e-09
-9.75728e-09
-6.82521e-09
1.6994e-09
-1.10611e-08
2.36503e-09
-1.17369e-10
2.61941e-09
1.11303e-10
-2.61332e-09
2.15939e-09
-2.26582e-09
-1.0936e-11
1.47841e-09
-2.18562e-09
3.32659e-09
-1.14333e-08
-7.20781e-09
5.40609e-09
1.3235e-08
3.14547e-09
-4.58302e-09
-9.99573e-09
-2.58393e-09
3.10537e-09
2.24234e-09
-2.96448e-09
-2.38328e-09
-8.27235e-10
5.70511e-09
-1.77251e-09
-1.45327e-10
2.23479e-09
6.98799e-11
-3.84249e-09
1.01669e-08
-9.18381e-10
-2.50159e-09
-2.90867e-09
-2.10302e-09
3.96561e-09
-6.02241e-12
2.68376e-09
-1.28405e-08
1.35446e-08
-3.38778e-09
3.81468e-11
-4.19096e-09
6.83661e-09
-4.51355e-09
5.50974e-09
1.22468e-09
-2.22086e-09
2.15891e-09
-6.19325e-09
-4.79174e-10
2.0661e-09
4.61398e-09
-4.52116e-09
5.60771e-09
-3.50343e-09
4.52693e-09
-5.96987e-09
8.19458e-10
6.23479e-10
-5.39594e-09
4.61231e-09
8.93365e-09
4.17863e-09
-6.60609e-09
-6.50616e-09
3.74985e-09
-4.20998e-09
-1.73298e-09
8.69139e-11
8.18789e-10
5.56797e-09
-7.79038e-10
5.3757e-09
5.70934e-11
-5.58428e-09
-5.9322e-10
-6.44922e-09
1.68439e-09
-9.65945e-10
7.44913e-09
3.66751e-09
-1.01507e-08
1.51849e-09
3.72394e-09
-8.12014e-11
-5.84299e-09
3.44893e-09
5.62467e-10
-3.68485e-09
-1.44213e-10
3.26659e-09
6.34319e-09
-5.2302e-09
-5.50525e-10
-3.33338e-09
-4.34098e-09
3.98951e-09
-4.4753e-09
1.36439e-09
-2.22484e-10
5.65711e-09
9.41637e-10
-6.74296e-09
1.33911e-09
-3.14854e-09
5.42754e-09
-3.6181e-09
3.36527e-09
-4.87001e-09
-2.97057e-09
-4.11858e-10
-5.6385e-10
-5.1872e-09
-2.54101e-09
9.06732e-09
-9.56932e-09
-1.6041e-09
5.98621e-09
1.70767e-10
3.16967e-09
-2.66413e-09
-6.76309e-10
-3.08065e-09
3.76386e-09
-5.12437e-10
6.51287e-09
1.90792e-10
-3.534e-09
3.0758e-11
5.92503e-10
5.88957e-09
-3.32139e-09
-4.51316e-09
6.47347e-09
1.36112e-09
-4.21314e-09
4.30946e-09
-3.41767e-09
-5.13287e-09
2.77658e-09
-2.15686e-09
-3.49542e-10
-8.99646e-09
2.00269e-09
-5.01636e-09
2.16672e-09
-3.24468e-09
-5.93456e-09
5.85441e-10
5.37986e-09
-2.96719e-09
9.0451e-09
2.68804e-10
-5.00443e-09
-3.37283e-09
5.28593e-10
3.43674e-09
4.4241e-10
-5.13783e-11
9.5788e-10
6.10105e-09
1.71886e-10
9.8311e-09
-2.46515e-09
4.90068e-09
5.65733e-09
-4.95684e-09
-2.55484e-08
3.46492e-09
-4.46029e-09
2.65438e-08
1.56435e-08
-1.33727e-08
-2.78191e-08
-6.37347e-09
-1.00872e-08
3.21042e-08
1.01846e-08
-2.25851e-08
2.22917e-08
-9.89125e-09
-3.8307e-09
2.7998e-08
-1.39827e-08
-1.36853e-08
1.88372e-08
-8.98267e-09
2.22984e-08
-1.70992e-08
-1.7343e-09
3.36863e-09
9.19917e-09
-2.59405e-08
-1.6794e-08
2.22845e-08
-1.18639e-08
1.0943e-08
-2.43685e-08
-1.02322e-09
7.22621e-10
-1.77764e-08
2.54652e-08
3.25418e-09
1.5272e-08
-6.65894e-09
-1.74486e-08
9.54863e-09
2.00624e-08
1.86425e-09
-2.68058e-09
-1.92461e-08
3.61594e-09
1.85027e-08
-2.05622e-09
2.33728e-08
-8.7433e-11
-2.14211e-08
2.73194e-08
-3.30682e-10
-2.52872e-09
-1.43046e-08
9.45813e-09
7.37521e-09
8.73092e-09
7.24303e-09
-1.27877e-09
-1.57064e-08
-4.15172e-09
2.10563e-08
1.04147e-08
3.35545e-08
-3.14357e-09
-3.04983e-08
2.15443e-08
7.85853e-09
-6.36699e-10
2.1031e-09
1.42908e-08
-1.57572e-08
-1.50091e-08
1.30936e-08
1.33825e-08
1.64048e-08
1.54306e-08
-1.64711e-08
1.33834e-08
3.10697e-09
-7.03227e-09
-3.38511e-09
5.59311e-09
1.20828e-08
-6.06695e-09
1.36593e-08
7.47671e-09
-1.50691e-08
8.27498e-09
-9.58505e-10
5.69535e-09
4.19538e-09
5.53994e-09
1.39116e-08
1.3328e-08
6.82044e-09
2.11109e-08
-1.4272e-08
-3.62275e-09
1.87182e-08
2.36713e-08
3.15331e-09
6.54183e-09
1.67638e-09
-1.13715e-08
7.164e-09
3.34073e-09
-7.35141e-09
-1.10021e-10
5.95289e-09
6.98952e-10
6.44275e-09
6.11219e-10
2.26786e-09
2.031e-09
-9.58155e-10
6.19503e-09
-1.07836e-09
-7.26628e-09
2.14959e-09
1.20179e-09
-8.55384e-09
1.35471e-08
3.60816e-09
1.26635e-09
-2.99033e-09
7.80026e-09
5.86727e-09
2.84333e-09
2.81996e-09
6.9514e-09
-8.09499e-09
6.65998e-09
-1.80902e-09
1.28508e-08
-1.31657e-08
-2.52357e-09
6.82057e-09
-3.36336e-09
6.24029e-09
7.73044e-10
1.471e-08
5.64346e-10
-1.55787e-09
-1.37165e-08
1.08859e-08
6.70172e-10
3.15388e-09
-1.08399e-08
2.82493e-09
7.0836e-09
9.31396e-10
9.03002e-09
-9.87608e-09
-9.9939e-09
1.13117e-08
2.39916e-09
-2.19979e-08
1.69368e-08
5.73124e-09
-2.07673e-09
-1.93569e-08
-1.44161e-08
-2.3545e-09
1.50353e-09
1.52671e-08
4.05451e-09
-1.53377e-09
-8.19181e-09
8.34404e-09
6.93135e-09
7.11857e-10
1.26341e-10
7.96027e-09
9.77361e-09
-9.18537e-09
-8.54853e-09
8.59377e-10
6.06832e-09
1.03257e-09
-5.00775e-10
-1.09332e-08
-5.15765e-10
9.47301e-09
-1.16182e-08
-9.39767e-10
1.40615e-08
-1.12023e-08
3.63855e-09
-1.1896e-08
1.55306e-09
-1.45349e-09
-1.25192e-08
1.35958e-09
6.46869e-09
-1.03127e-08
7.8673e-09
8.5137e-09
1.72763e-10
-1.11397e-08
8.28712e-09
-1.92536e-09
1.52899e-08
-7.32213e-09
-6.04237e-09
-9.00997e-09
-1.6523e-09
3.73221e-09
6.92995e-09
-1.03876e-08
-6.14219e-09
7.51988e-09
-1.0793e-08
-1.17696e-08
2.06372e-08
-6.70686e-09
-1.82271e-08
1.41409e-08
-8.97328e-10
-7.57893e-09
-2.27836e-09
1.07547e-08
-1.68774e-08
5.37865e-09
4.41467e-09
7.08413e-09
-1.25455e-08
-5.22918e-09
-1.36488e-08
7.25781e-09
7.21315e-09
-1.13079e-08
-9.55395e-09
-1.3411e-09
-9.06806e-09
2.15383e-11
-7.46586e-09
-1.45415e-09
-1.28793e-08
4.52015e-09
-4.05791e-09
-6.956e-09
-4.42468e-09
3.83677e-09
8.5746e-09
-1.38058e-08
-8.36261e-09
-1.14295e-08
3.0329e-09
-1.48137e-09
9.87792e-09
-4.28305e-09
-6.68589e-09
-4.60608e-10
1.61243e-08
-1.87183e-08
1.09979e-08
-8.40392e-09
6.93256e-09
-2.14546e-08
2.18461e-08
-7.32397e-09
1.15249e-09
-4.31847e-09
1.92902e-08
-1.49511e-09
1.11312e-08
-8.48359e-09
7.80998e-09
-8.06468e-09
-4.02836e-09
9.34777e-09
1.91473e-09
-1.50585e-08
1.16623e-08
1.76218e-09
-1.35479e-08
-1.95667e-08
1.71629e-08
4.73527e-09
-1.07812e-08
-6.40034e-10
-1.35743e-08
3.25111e-09
-4.48643e-09
-1.33181e-08
-8.25559e-09
1.01454e-09
-8.23592e-10
3.01141e-09
-1.28861e-08
1.6191e-09
5.95896e-09
-1.37287e-08
-1.21018e-08
3.18033e-08
-1.67259e-08
1.24108e-08
-2.74882e-08
2.28493e-08
-7.8377e-09
1.67917e-08
6.49318e-09
5.4887e-09
4.74846e-09
-4.08974e-09
-1.73845e-08
4.50494e-10
-3.53956e-09
-1.03416e-08
8.80948e-09
-4.92803e-09
6.4602e-09
-4.84123e-09
-5.04983e-09
3.83422e-09
2.18345e-08
-3.36542e-09
-6.05827e-09
8.45404e-09
-3.7278e-09
-6.2951e-09
-8.34243e-09
1.06009e-08
-3.41826e-09
-1.20238e-08
-6.01131e-10
-8.8549e-09
3.16101e-09
-1.23876e-08
3.44408e-09
-1.648e-08
6.50253e-09
5.04953e-09
6.31632e-09
-1.21955e-08
7.75908e-09
-1.05168e-08
-5.23626e-09
1.32511e-08
-3.37924e-09
-3.55552e-09
1.08987e-08
-6.1369e-09
-3.08596e-09
-8.9733e-09
-3.25047e-09
1.53097e-08
-1.08273e-08
-7.31529e-09
1.50566e-08
-1.78166e-09
-1.54942e-08
6.44859e-09
-1.4245e-08
3.49006e-09
1.66212e-08
7.15041e-09
-1.13699e-08
-1.24017e-08
1.97447e-09
-8.47486e-10
-1.46051e-08
2.12479e-09
5.16506e-09
-1.48977e-08
2.26698e-09
-7.0321e-09
-6.2503e-11
-7.65878e-09
-1.30834e-08
1.74917e-08
-1.34268e-08
7.89285e-09
-1.9448e-09
-1.11834e-08
-1.76949e-09
2.98118e-09
-6.59216e-10
1.11941e-08
-1.3516e-08
1.54645e-08
-1.44281e-08
8.85912e-09
-1.61482e-08
-6.13782e-09
-9.36142e-09
5.13718e-09
8.93123e-09
-1.10505e-08
1.46005e-09
-9.02891e-09
8.34527e-09
5.44774e-09
-3.28254e-09
-1.3965e-08
-2.42852e-09
4.13984e-10
1.83954e-08
-2.42532e-09
1.53895e-09
-1.75091e-08
1.64334e-08
-6.18607e-09
8.14804e-09
-6.27967e-09
-5.56592e-09
2.8279e-08
-1.34656e-08
-9.62788e-09
1.68138e-08
-2.04369e-08
7.85117e-10
-3.2957e-08
2.94327e-08
7.1976e-09
-3.67336e-09
9.65402e-09
-9.72014e-09
-3.28908e-08
-2.10411e-08
-1.32441e-08
2.87194e-08
-2.35118e-08
4.5344e-11
-1.97284e-09
9.00356e-09
-1.66586e-08
2.30876e-09
-1.94409e-08
-3.30475e-09
-1.87727e-08
2.39702e-08
2.42353e-08
9.4132e-10
-1.006e-08
-1.99856e-08
3.67142e-09
-9.57319e-10
-2.87484e-08
8.7532e-09
7.13231e-09
-2.4702e-08
1.66123e-08
8.17228e-09
-1.53762e-08
1.43362e-08
6.94299e-09
-1.51205e-08
1.63497e-08
-9.77632e-09
1.76606e-08
3.83659e-09
7.43469e-09
-2.15408e-09
-9.11716e-09
8.2842e-09
-4.58999e-09
1.42382e-10
4.97934e-10
2.95186e-09
3.98494e-09
3.89475e-09
4.8874e-09
1.17228e-08
8.2382e-09
-4.72702e-09
-1.52339e-08
1.27068e-08
-6.33603e-10
-3.50326e-10
-2.46765e-08
1.44394e-08
3.29355e-09
6.94364e-09
2.41262e-09
-1.88509e-08
-1.57966e-08
1.84194e-08
1.18166e-08
-1.93109e-08
1.19992e-08
-8.48491e-09
2.0289e-09
-1.13695e-08
4.61362e-09
6.8609e-09
2.81308e-09
2.62601e-09
-1.23e-08
-4.81172e-09
5.74096e-11
8.1904e-09
-3.43607e-09
4.34889e-09
6.40675e-09
-5.1107e-09
-1.17876e-08
9.89077e-09
6.10961e-09
1.65942e-09
-5.60671e-09
8.29623e-09
-8.15028e-09
-5.45691e-09
1.52667e-08
6.83865e-09
8.86411e-10
4.27419e-09
1.71078e-08
5.53891e-09
-8.6207e-09
9.28335e-09
4.42109e-09
-8.16553e-09
7.97982e-09
4.11661e-09
7.38572e-09
3.25953e-09
1.23668e-08
2.33386e-08
-1.02439e-08
-2.54614e-08
-5.13366e-09
2.95056e-08
-1.20052e-08
2.45526e-08
6.7369e-09
-7.95097e-09
2.26647e-08
-8.74495e-09
1.06329e-08
1.40454e-08
-1.16192e-09
1.82799e-08
-3.11634e-08
-1.00714e-08
1.89832e-08
1.33655e-08
-2.47714e-08
-6.5957e-09
1.61247e-08
1.31357e-08
-2.20664e-08
8.74181e-09
6.72888e-09
-1.42803e-08
1.81665e-08
2.59422e-09
1.29165e-08
-1.82175e-08
2.3581e-08
5.65689e-09
-6.57166e-09
1.26641e-08
-1.36321e-08
9.70986e-09
-1.37631e-08
2.36179e-08
2.80941e-09
2.08405e-08
-2.26709e-09
1.07814e-08
-3.57293e-09
7.94104e-09
-1.09227e-08
1.75117e-08
1.42067e-08
-1.35519e-08
-1.2256e-08
7.2869e-09
8.79554e-09
-3.82643e-09
8.16986e-09
-5.37802e-09
-1.04328e-08
7.64094e-09
-2.72506e-09
-1.28157e-09
4.83883e-09
2.54375e-09
2.80797e-09
3.19732e-09
7.18847e-11
-6.57361e-09
4.53195e-10
6.04848e-09
4.16487e-10
5.03524e-09
-6.62699e-09
2.40043e-09
-2.34707e-09
4.64204e-09
-1.21769e-08
-3.71626e-09
9.50958e-09
5.06112e-09
-1.08544e-08
3.61414e-09
-8.77709e-10
-6.45268e-09
-5.07466e-11
-4.36718e-09
-4.31423e-09
-4.90596e-09
9.16944e-09
2.66472e-09
-1.00832e-08
3.84471e-09
3.57376e-09
1.07129e-09
-2.12318e-09
2.34554e-10
-1.72557e-08
6.32868e-09
9.9685e-09
-4.03405e-09
-1.01147e-08
5.34905e-09
-6.99856e-09
8.56206e-09
-7.24706e-09
9.00565e-09
-1.80261e-09
9.26196e-10
1.52736e-08
-1.43972e-08
1.00989e-10
-1.70236e-08
1.51201e-08
1.47986e-09
2.36447e-08
-2.14871e-09
-2.29759e-08
2.04507e-08
-1.80446e-08
1.19136e-09
2.9281e-08
-6.8276e-09
2.59242e-08
-4.28221e-09
1.35043e-08
-1.3029e-09
3.0722e-09
1.66142e-08
3.01114e-08
-2.17909e-10
-3.96938e-09
1.7437e-08
9.71864e-09
2.12541e-09
1.88775e-08
2.86709e-08
-7.57091e-09
5.91578e-10
-9.05491e-09
1.60343e-08
-3.88757e-09
-1.64853e-08
2.55737e-08
-5.20073e-09
-5.64594e-09
2.06359e-08
1.54382e-08
-2.15186e-09
-1.30984e-08
6.3318e-09
-4.05513e-09
8.07827e-09
1.71404e-09
9.09438e-09
1.16147e-08
-1.22531e-08
-8.45599e-09
4.74605e-09
-3.94457e-09
8.29299e-09
1.51823e-09
1.48426e-08
-6.90497e-09
2.51214e-09
-3.46501e-09
7.85791e-09
-7.96793e-09
1.18872e-09
-1.25709e-10
-8.33435e-11
-7.94143e-09
1.09342e-08
-2.90933e-09
-5.83902e-09
-2.21224e-09
-1.96832e-09
-3.36406e-10
-5.63668e-09
9.61662e-10
3.86462e-09
-6.79454e-09
3.08108e-09
9.70972e-09
-1.18291e-08
1.13609e-08
-8.61617e-09
-3.31549e-10
-2.21176e-09
8.56667e-09
-8.62168e-09
1.24377e-09
1.25971e-08
2.59625e-10
7.20953e-09
6.82178e-09
-8.79617e-09
7.67593e-09
-2.13143e-09
1.51213e-08
-4.70558e-09
-1.99763e-08
9.56067e-09
8.08044e-09
-1.17968e-08
1.88376e-08
6.34773e-09
-7.72687e-09
8.36038e-09
-6.98123e-09
-4.3574e-09
1.87856e-08
-1.60573e-08
3.62489e-09
1.27171e-08
-1.6569e-08
-1.61245e-08
-3.4702e-10
1.26729e-09
-8.16022e-09
1.0376e-08
-6.57316e-09
8.22619e-10
-3.61728e-09
-1.32627e-08
7.43642e-09
7.44271e-09
-7.60537e-09
-7.27378e-09
-6.98882e-09
1.37925e-08
6.32738e-10
-1.61024e-09
9.87557e-09
-8.5279e-09
9.97142e-09
-8.43238e-09
-1.88708e-08
2.73747e-09
2.76897e-09
-1.63037e-10
1.11865e-08
8.5869e-09
1.03747e-09
3.19562e-09
-5.40829e-09
-4.77539e-09
4.63813e-09
-5.14236e-09
-5.69051e-09
2.80848e-09
4.59796e-09
-1.45297e-09
-8.48494e-09
5.33996e-09
-1.16228e-09
6.17862e-10
-1.32979e-08
4.52875e-09
-4.80281e-09
6.66268e-09
-6.38861e-09
-6.06544e-09
1.21644e-08
-1.57018e-09
6.70472e-09
-2.29383e-09
-9.2137e-09
-2.25757e-09
2.89686e-09
-7.85668e-09
-2.67012e-10
5.86611e-09
-1.17465e-08
9.35009e-09
5.56867e-09
-3.17229e-09
-6.01113e-09
-7.99116e-10
-1.04646e-09
2.14354e-09
-3.93797e-09
-9.95207e-09
-4.70712e-09
-7.61566e-09
1.44663e-08
-5.21345e-10
-9.42775e-09
-1.22675e-08
7.03897e-09
2.3279e-10
-1.92304e-09
7.88488e-09
-6.19467e-09
-2.33341e-09
1.00196e-08
-7.45346e-09
-2.62627e-10
4.05495e-09
-6.12577e-09
2.85851e-09
-5.04416e-09
8.27548e-10
8.80919e-09
3.82907e-10
6.0463e-09
3.61805e-09
-5.60943e-09
6.11603e-09
7.57821e-10
-6.34528e-09
5.56472e-09
9.58976e-09
1.53486e-09
4.70107e-12
4.30167e-09
2.86703e-09
-4.31019e-09
-3.16467e-09
4.28039e-09
5.00028e-09
4.9334e-10
-4.00027e-11
4.93321e-09
2.19736e-10
-4.77941e-09
-3.73559e-10
-3.59356e-09
1.79116e-09
6.7356e-09
-3.27841e-09
-9.54281e-11
1.05713e-09
3.25975e-09
4.58186e-10
1.8468e-09
-2.47669e-09
7.52759e-09
2.26187e-09
8.19349e-11
-2.46467e-09
5.82492e-09
-5.83089e-09
2.47067e-09
-4.24025e-09
1.91291e-09
-1.37327e-10
1.12614e-09
-1.8348e-11
4.71714e-09
-6.37609e-10
-6.50589e-09
1.31263e-09
3.34577e-10
-5.21245e-09
-3.72948e-09
8.26118e-10
4.0295e-09
-1.85933e-09
4.27259e-11
6.29355e-09
-7.78811e-09
-4.02832e-09
2.27689e-09
-1.07943e-10
-1.34249e-09
-9.3461e-09
-6.97547e-10
1.1818e-09
-4.87556e-09
9.75888e-09
-7.9679e-09
-8.69136e-09
8.53066e-09
-8.12961e-09
5.38852e-09
2.14902e-09
5.92072e-10
-3.39099e-10
-4.11087e-09
-3.67965e-09
7.00962e-09
-3.94692e-09
-3.40181e-09
7.86752e-09
-3.26805e-09
2.41016e-09
8.77917e-09
4.47689e-09
-2.00679e-09
3.93915e-09
-6.0432e-09
2.90926e-09
3.48068e-09
-8.39669e-09
5.9146e-09
-6.95225e-09
1.603e-09
1.34467e-08
-1.1569e-08
-3.04105e-09
1.56466e-08
-1.10025e-08
6.47138e-09
-5.90605e-09
5.34927e-09
5.37854e-09
8.75307e-09
-5.35242e-09
-1.05734e-08
8.45726e-09
4.28916e-09
-2.17299e-09
4.08148e-10
-4.51018e-09
8.40604e-09
-7.50793e-09
-1.72904e-08
7.30544e-09
-6.99232e-09
1.69774e-08
-1.01204e-08
-6.7619e-09
8.58531e-09
-5.25903e-09
1.74175e-08
6.81451e-09
6.53927e-10
1.51088e-08
9.32911e-09
1.22598e-09
1.51093e-09
8.91423e-09
-4.61646e-09
1.0649e-08
6.22359e-09
2.74694e-09
8.18499e-09
-8.2391e-09
-2.69285e-09
-7.75966e-09
9.50023e-09
1.23949e-08
-1.62656e-09
-2.58341e-09
-1.18303e-09
1.51353e-08
-1.55739e-09
-1.61223e-09
8.6739e-09
-8.24474e-09
-1.13113e-09
1.95618e-09
-8.58472e-09
-1.06447e-08
-8.19363e-09
3.97976e-10
1.57817e-09
6.21746e-09
-7.80139e-09
-2.72799e-09
2.33574e-09
-1.51774e-09
-5.34319e-09
5.24868e-09
-6.20409e-09
5.08432e-09
-1.24436e-09
6.41702e-09
-4.82442e-09
-7.08957e-09
2.69653e-09
-1.28248e-09
-3.83641e-09
3.28849e-10
-1.47383e-10
7.62298e-09
6.15905e-09
-8.72675e-09
-5.05528e-09
8.04225e-09
2.90499e-10
-7.32339e-09
-1.00938e-09
7.75202e-09
6.85806e-09
-6.56783e-09
-2.14601e-10
4.88077e-09
-4.37569e-09
-4.88513e-10
4.57431e-09
-4.30039e-09
6.53668e-10
5.87635e-09
-1.86816e-10
4.80968e-09
-4.64453e-09
-3.02047e-09
6.22692e-09
2.66988e-09
1.92991e-09
-1.40695e-10
-1.88552e-09
1.56931e-09
2.82742e-09
-1.38627e-10
4.74053e-09
1.68066e-11
1.41759e-10
5.09672e-09
2.03697e-09
4.3317e-09
5.06476e-09
-2.56796e-08
-6.08032e-09
1.42875e-08
1.74723e-08
-8.31053e-09
1.89965e-09
-1.92687e-08
2.36611e-08
-6.37248e-09
-2.55992e-08
6.91417e-09
1.06666e-08
4.10226e-10
9.92307e-09
4.36012e-09
-1.46935e-08
1.23234e-08
-1.82857e-08
-1.53372e-08
2.41925e-08
5.43213e-09
-2.49953e-08
1.09995e-09
8.55816e-09
-5.94636e-09
-1.71493e-08
-3.25413e-10
1.4309e-08
-1.66015e-09
1.10213e-08
-1.42362e-09
5.85178e-09
-1.51259e-08
1.0374e-08
-1.6864e-08
1.52777e-08
9.30548e-09
1.19176e-08
-1.33594e-08
1.94107e-08
3.25418e-09
4.31e-10
-2.76907e-09
9.99046e-09
8.02831e-09
-6.76807e-09
-1.12507e-08
2.25951e-09
3.32331e-09
4.40763e-09
6.9449e-09
-8.35241e-09
3.66701e-09
-9.83288e-09
4.98852e-09
1.17893e-08
4.37269e-09
-1.22898e-08
-4.35294e-10
-9.55797e-09
4.09778e-09
-9.59648e-09
5.57514e-09
7.34466e-09
1.89439e-09
-3.46257e-09
6.26117e-09
7.86566e-09
-3.92775e-09
-1.01991e-08
-3.18984e-09
-3.09877e-09
5.91563e-09
3.72961e-10
-8.71303e-09
9.60938e-09
4.67879e-09
-6.82922e-09
1.22131e-08
-3.95353e-10
-3.53397e-09
-8.9e-09
3.72092e-09
-7.06498e-09
3.41155e-10
-3.01575e-09
-6.81667e-09
3.00319e-09
-6.44036e-09
3.25832e-10
7.89014e-09
-5.21911e-09
-1.49608e-08
1.61225e-09
-3.28009e-09
3.76243e-09
-5.42218e-09
-5.40523e-09
-3.24316e-09
2.7109e-09
-4.60475e-09
-4.54651e-09
-2.49352e-09
1.96958e-09
-1.39568e-08
-8.05737e-09
2.66779e-09
2.6666e-09
-5.18522e-09
-1.49167e-10
6.8815e-09
-7.06543e-09
2.85173e-09
-3.97727e-09
-2.11041e-09
5.6707e-10
5.5206e-09
-1.2485e-09
-6.21629e-11
-1.88585e-09
6.65694e-09
-2.38523e-09
-5.22457e-11
-4.62798e-09
-2.44861e-09
8.86797e-09
-5.85229e-09
1.52495e-09
5.70505e-09
-9.11584e-09
8.74594e-09
-7.05005e-09
5.5635e-09
-7.2594e-09
-2.21716e-09
1.02436e-08
7.19472e-10
-6.77063e-09
-1.50548e-09
6.0589e-09
-1.86485e-09
-1.19558e-08
4.16234e-09
-1.01418e-08
4.11467e-09
4.23613e-09
-1.37722e-09
1.30343e-09
-9.14813e-09
8.22445e-09
7.52585e-09
-7.57838e-11
-1.88656e-09
8.62133e-09
-4.48251e-09
-1.46987e-09
5.8766e-09
-4.63721e-09
4.39084e-09
-1.14869e-10
-1.26849e-09
9.688e-09
-8.30458e-09
8.00476e-09
-3.6711e-10
-5.90454e-09
-1.73305e-09
-1.34045e-09
9.23037e-09
2.6137e-10
-6.79191e-09
1.21229e-09
5.31831e-09
1.10897e-09
-5.08954e-09
4.24196e-09
6.41783e-09
-6.64931e-09
1.96056e-09
-1.94021e-09
-6.81229e-09
-3.27887e-09
1.49911e-10
-2.06785e-09
-6.39835e-09
1.94748e-09
6.51874e-09
-5.28909e-09
-5.7622e-11
-2.248e-09
-4.65829e-09
1.61719e-09
-7.92814e-09
8.48979e-09
-8.54596e-09
-5.93513e-09
8.08716e-09
1.012e-09
-7.60008e-09
1.7577e-09
-1.49779e-09
7.82007e-10
-6.42122e-09
-1.96085e-09
-5.40189e-09
9.85174e-10
5.10492e-11
4.36567e-09
2.06071e-09
-5.05866e-09
-2.40396e-09
3.30913e-09
5.47762e-09
-5.2315e-09
-3.55523e-09
-9.34196e-10
4.15301e-09
9.03317e-11
3.36349e-09
-7.84153e-10
1.4224e-10
-2.72158e-09
2.42963e-09
-3.399e-13
-4.42577e-09
8.61684e-10
6.45707e-11
5.85614e-09
5.18789e-11
-4.30392e-10
5.4144e-09
9.08073e-09
-6.54509e-09
-1.75363e-09
5.3985e-10
-6.99921e-09
5.55247e-09
-6.28823e-09
-7.13219e-09
-6.71057e-10
-5.17175e-09
-1.01381e-09
-4.07544e-09
-5.93824e-09
-5.54952e-10
7.52712e-10
-7.71198e-09
-6.19933e-09
-1.37432e-08
1.78752e-09
-3.9901e-09
1.59458e-08
-1.02797e-08
3.87192e-09
-7.3355e-09
-3.23335e-09
1.90711e-08
-1.40502e-08
-7.08042e-09
-1.3655e-09
-1.35287e-08
2.19747e-08
-5.40726e-09
-1.87159e-08
1.70428e-08
1.62514e-10
-8.91329e-09
-1.52889e-09
1.28559e-08
-1.0994e-08
-1.6993e-09
-1.75398e-09
1.06198e-08
-1.03208e-08
-9.06787e-10
2.33621e-10
2.86247e-09
1.20888e-09
-1.43922e-08
-1.14581e-08
-6.86798e-09
-1.27213e-08
1.82238e-08
-1.69709e-08
1.70798e-08
-1.01556e-09
-2.263e-08
1.19754e-08
3.35034e-09
-3.25866e-09
1.18112e-09
-4.89346e-09
6.97097e-09
5.03498e-09
-6.22011e-09
-2.07355e-09
-6.14155e-09
7.62435e-09
-6.24011e-09
4.75731e-09
1.34347e-09
-7.48149e-11
3.7663e-09
-3.21092e-09
3.8627e-09
5.28404e-09
-5.93585e-09
-7.20108e-09
-1.44666e-10
4.13482e-09
1.31745e-09
2.87757e-09
8.07799e-09
2.35674e-09
-7.25942e-09
-1.39781e-08
6.96022e-09
8.76282e-10
3.17118e-09
-5.41666e-09
5.72302e-10
-6.58292e-09
-2.422e-09
5.29718e-09
3.70773e-09
-3.10047e-09
4.04513e-09
3.52241e-09
1.12721e-10
1.18421e-09
-8.37892e-11
4.71346e-09
2.00856e-10
-8.69184e-10
1.4192e-09
8.59142e-09
-2.38625e-09
-1.26806e-09
5.0735e-09
8.95615e-10
-3.18009e-09
-1.01786e-10
-3.96253e-09
6.8956e-09
-4.20115e-09
-3.95363e-09
8.86704e-10
-2.09881e-09
1.02926e-10
-3.21019e-09
-8.68866e-10
1.2541e-10
2.6177e-09
2.94077e-09
-5.44576e-09
-4.67233e-10
3.28578e-09
-2.36824e-09
-1.58044e-08
-3.68453e-09
1.83805e-08
1.10849e-09
2.51301e-08
-3.47568e-09
-2.66172e-08
4.96288e-09
1.09211e-08
1.79812e-08
-3.77215e-09
1.52686e-08
-1.92375e-08
4.93306e-10
-9.55807e-09
-4.55673e-09
2.16125e-08
-7.49765e-09
1.13734e-08
-7.83e-09
-1.31014e-08
1.41651e-08
2.30856e-09
-1.20501e-09
2.05294e-08
4.69429e-09
5.6211e-09
-5.76911e-09
-4.54624e-09
4.41749e-09
3.43017e-10
-6.61882e-11
-3.13524e-10
6.10875e-10
5.32379e-09
1.56041e-10
3.94793e-09
4.09247e-09
4.94003e-09
-5.16133e-09
-3.87114e-09
4.44875e-09
-1.32496e-11
-6.27593e-10
5.4853e-10