/*--------------------------------*- C++ -*----------------------------------*\
| =========                 |                                                 |
| \\      /  F ield         | OpenFOAM: The Open Source CFD Toolbox           |
|  \\    /   O peration     | Version:  v1612+                                |
|   \\  /    A nd           | Web:      www.OpenFOAM.com                      |
|    \\/     M anipulation  |                                                 |
\*---------------------------------------------------------------------------*/
FoamFile
{
    version     2.0;
    format      ascii;
    class       volVectorField;
    location    "206";
    object      wallShearStress;
}
// * * * * * * * * * * * * * * * * * * * * * * * * * * * * * * * * * * * * * //

dimensions      [0 2 -2 0 0 0 0];

internalField   uniform (0 0 0);

boundaryField
{
    WALL
    {
        type            calculated;
        value           nonuniform List<vector> 
1702
(
(0.00788695 -0.0104924 0.0100011)
(0.00790831 -0.0107807 0.00957758)
(0.00861458 -0.0179335 0.015226)
(0.00842068 -0.0182882 0.0132605)
(0.00571812 -0.0123269 0.00939508)
(0.00660682 -0.0136939 0.00916245)
(0.0205918 -0.0134946 0.00610478)
(0.0192086 -0.0125823 0.00308669)
(0.00291381 -0.0149854 0.00791797)
(0.00172796 -0.0153615 0.00849272)
(0.00846426 -0.0157505 0.0147757)
(0.00721391 -0.0156751 0.0158468)
(0.00182788 -0.00784137 0.00692588)
(0.00316475 -0.00911962 0.00835305)
(0.00175687 -0.00785525 0.00700378)
(0.00409829 -0.00884919 0.00858173)
(0.00300498 -0.00787348 0.00755407)
(0.0130367 -0.0104125 0.00123366)
(0.0202156 -0.00979178 0.00205018)
(0.0179531 -0.0111293 0.00116865)
(0.000453675 -0.0127592 0.00793804)
(0.000391438 -0.0142249 0.00871527)
(0.00418721 -0.0142716 0.00869588)
(0.00329111 -0.0135321 0.00806809)
(0.0158181 -0.0144564 0.00232579)
(0.0128839 -0.014921 0.00221162)
(0.0153575 -0.0135276 0.00139834)
(0.0166524 -0.0124182 0.00250357)
(0.00598793 -0.018282 0.00453258)
(0.00590236 -0.0167486 0.00456867)
(0.00499424 -0.013885 0.00846958)
(0.00458097 -0.013911 0.009067)
(0.00805724 -0.0135739 0.00827189)
(0.00634968 -0.0134402 0.00888272)
(0.0110392 -0.014364 0.00818714)
(0.00931205 -0.0145482 0.00856615)
(0.00696518 -0.0118694 0.00912966)
(0.00650641 -0.0107689 0.00975432)
(0.00451791 -0.0225921 0.00682932)
(0.00677956 -0.00845145 0.00918187)
(0.00739409 -0.00938794 0.00991227)
(0.0140966 -0.0172976 0.00455447)
(0.0155838 -0.0168035 0.00606645)
(0.00531914 -0.0222822 0.00769705)
(0.00625575 -0.0207818 0.00804328)
(0.00886775 -0.012401 0.00796641)
(0.0112416 -0.0132549 0.00771672)
(0.0109725 -0.0127599 0.00812776)
(0.0101256 -0.0127441 0.00897783)
(-0.00106446 -0.0139124 0.00877609)
(-0.00132831 -0.0130654 0.00901259)
(-0.00216098 -0.0125069 0.00938526)
(-0.00139975 -0.0126159 0.00805902)
(-0.00164036 -0.0128864 0.00911643)
(-0.000647148 -0.013791 0.00860468)
(0.0139927 -0.0105166 0.00156551)
(0.0152057 -0.0105148 0.000755069)
(0.0152209 -0.0103978 0.00132129)
(0.0170642 -0.0104973 0.00126948)
(0.0181036 -0.0103925 0.00117082)
(0.0120688 -0.0142087 0.00857177)
(0.00979343 -0.0144576 0.00784501)
(0.0113304 -0.0145346 0.00813213)
(0.0120767 -0.0142639 0.00834883)
(0.00994714 -0.0142194 0.00766189)
(0.01077 -0.0143794 0.00795974)
(0.00984928 -0.0127289 0.008416)
(0.0099943 -0.0127634 0.0079396)
(0.00895202 -0.0123142 0.0087546)
(0.00880745 -0.0125856 0.00774251)
(0.00806878 -0.0123577 0.00892792)
(0.00831315 -0.0124503 0.00854075)
(0.0166128 -0.00945361 0.0136702)
(0.0174089 -0.0101616 0.0153114)
(0.0172025 -0.0103789 0.014534)
(0.0181293 -0.011171 0.0132085)
(0.016917 -0.0115317 0.0136499)
(0.0178895 -0.00914304 0.0133793)
(0.00844438 -0.00942944 0.0139467)
(0.0104854 -0.00710504 0.0145232)
(0.0115921 -0.00807795 0.01605)
(0.00862277 -0.00857712 0.0125048)
(0.00949697 -0.00891469 0.0146597)
(0.00832282 -0.00744953 0.0141359)
(0.00796034 -0.0061791 0.00972205)
(0.0090734 -0.00454876 0.0111974)
(0.00844797 -0.00561293 0.0107186)
(0.00623289 -0.00461994 0.00846181)
(0.00731367 -0.00429769 0.0104659)
(0.00876188 -0.00378489 0.010627)
(0.01621 -0.00503895 0.0138795)
(0.0182037 -0.00786553 0.0149384)
(0.0191385 -0.00643231 0.0139526)
(0.0189603 -0.00570119 0.0128989)
(0.0186163 -0.00629495 0.0138296)
(0.0173395 -0.00420073 0.0136542)
(0.0093294 -0.0108703 0.0101373)
(0.0109213 -0.013096 0.00991875)
(0.0116176 -0.0124105 0.0100589)
(0.0107328 -0.0112735 0.00993705)
(0.00749034 -0.0106536 0.00977886)
(0.00911053 -0.0113056 0.0102003)
(0.00942463 -0.0121232 0.0101347)
(0.00970144 -0.0119773 0.0100979)
(0.000788604 -0.010406 0.0091467)
(0.000875505 -0.0110573 0.00896034)
(0.00151421 -0.01164 0.00939377)
(0.00170113 -0.0119143 0.00876503)
(0.00123525 -0.0118767 0.00909761)
(0.000683995 -0.011949 0.00944782)
(0.00169251 -0.00437151 0.00507974)
(0.00167117 -0.00414296 0.00597383)
(0.00146391 -0.00431875 0.00577586)
(0.00162159 -0.00446334 0.0051291)
(0.00186069 -0.00444261 0.00590775)
(0.00141623 -0.00428082 0.00504256)
(0.00075525 -0.00971467 0.00991739)
(0.000655658 -0.00838675 0.00972723)
(0.000921545 -0.00803347 0.00974752)
(0.000765744 -0.0100442 0.0098059)
(0.00107808 -0.00882956 0.00964331)
(0.000488986 -0.00894337 0.00978686)
(0.0161716 -0.0106807 0.00863797)
(0.0173764 -0.0125754 0.00872361)
(0.0160274 -0.0102694 0.0100538)
(0.0172006 -0.00938338 0.00843081)
(0.0178432 -0.0119151 0.00904507)
(0.0149274 -0.010825 0.00952621)
(0.0110602 -0.0193563 0.00507673)
(0.0107561 -0.017109 0.00365852)
(0.0114514 -0.0180552 0.00490619)
(0.00900307 -0.0191157 0.00444303)
(0.00963135 -0.0179639 0.0040611)
(0.00964932 -0.0186925 0.00443623)
(0.011526 -0.0177156 0.00698956)
(0.0122795 -0.0163762 0.00706408)
(0.0109904 -0.0174853 0.0073382)
(0.0113462 -0.018826 0.00700933)
(0.0111645 -0.0175828 0.0084365)
(0.0116667 -0.0168038 0.00855193)
(0.00888778 -0.0188248 0.00691054)
(0.00857622 -0.0193644 0.00582177)
(0.00796258 -0.0201685 0.00629137)
(0.00963503 -0.0183735 0.00663546)
(0.00928369 -0.0202079 0.00697963)
(0.00788546 -0.0198469 0.00708607)
(0.0111785 -0.0136858 0.00953718)
(0.010486 -0.0153726 0.00929104)
(0.00990193 -0.0126443 0.00987135)
(0.00970961 -0.0145962 0.00993156)
(0.0113077 -0.014797 0.00935309)
(0.00896573 -0.0133851 0.00979237)
(0.0071607 -0.00989982 0.00979332)
(0.00485286 -0.00823237 0.00851091)
(0.0065155 -0.00816177 0.009205)
(0.00516212 -0.00807483 0.00887794)
(0.00578634 -0.00900456 0.00921806)
(0.00856132 -0.00959897 0.0096817)
(0.012313 -0.0144454 0.00815107)
(0.0128166 -0.0155974 0.00833881)
(0.012455 -0.014679 0.00923207)
(0.0128375 -0.0138993 0.00899215)
(0.0136769 -0.0144198 0.00860675)
(0.0128865 -0.0163226 0.00839736)
(0.00454187 -0.0108065 0.00824417)
(0.00483225 -0.0109567 0.00681728)
(0.00457844 -0.010028 0.00789767)
(0.00469002 -0.0117085 0.00616019)
(0.00449055 -0.0112967 0.00673209)
(0.00485002 -0.0107133 0.00753062)
(0.00516388 -0.00972984 0.00669242)
(0.005651 -0.0102274 0.00646534)
(0.0049858 -0.00871429 0.00642341)
(0.00521342 -0.00946156 0.00499708)
(0.0053976 -0.0102814 0.00589659)
(0.00281823 -0.0131626 0.00987525)
(0.00327701 -0.013607 0.0114805)
(0.00210783 -0.0138886 0.012096)
(0.00258715 -0.0162442 0.0100075)
(0.00186896 -0.015461 0.0112732)
(0.00391991 -0.0141168 0.0138835)
(0.00287571 -0.0159498 0.0140334)
(0.00330919 -0.0151076 0.00893542)
(0.00373389 -0.0159598 0.00662269)
(0.00412038 -0.0147688 0.0079072)
(0.00474572 -0.0153296 0.00588531)
(0.00332037 -0.0160305 0.0075295)
(0.00481133 -0.0168981 0.00599588)
(0.00481078 -0.0106522 0.0108222)
(0.00639143 -0.0111039 0.0133651)
(0.00517286 -0.0101469 0.0116812)
(0.00576742 -0.00970734 0.0114675)
(0.00504717 -0.00962492 0.011141)
(0.00654079 -0.00934872 0.012048)
(0.00530281 -0.0114523 0.0135891)
(0.00700204 -0.0111396 0.0152151)
(0.00479141 -0.0129998 0.014102)
(0.00651976 -0.0122084 0.0153361)
(0.00603993 -0.0113633 0.0142865)
(0.00520856 -0.0118231 0.0140175)
(0.00881663 -0.0103583 0.0155002)
(0.010189 -0.00933891 0.0154239)
(0.00908295 -0.00987863 0.0153465)
(0.0107111 -0.010493 0.0168768)
(0.0111532 -0.00947994 0.0161693)
(0.0078754 -0.0108183 0.0150097)
(0.013477 -0.0103403 0.0156063)
(0.0138636 -0.0100269 0.0167664)
(0.0126217 -0.0107316 0.0165852)
(0.0148673 -0.0112113 0.0165325)
(0.0150459 -0.0106173 0.0148611)
(0.014595 -0.0115005 0.0155241)
(-0.00130844 -0.0131959 0.00781135)
(-0.000977202 -0.0155806 0.00888124)
(-0.000450912 -0.0139503 0.00768177)
(-0.000446756 -0.0156059 0.00832106)
(0.00243151 -0.0162961 0.0156973)
(0.0011053 -0.0163595 0.0139126)
(0.00169826 -0.0161418 0.0147122)
(0.00201256 -0.0169711 0.0163587)
(0.000531351 -0.0173633 0.0136375)
(0.00115437 -0.0171871 0.0153596)
(0.00619746 -0.0165364 0.0179014)
(0.00799814 -0.0160186 0.017325)
(0.00814143 -0.0147038 0.0175414)
(0.00689176 -0.0144423 0.0166904)
(0.00663607 -0.0148475 0.0171224)
(0.00863902 -0.0139862 0.0169867)
(0.0105147 -0.0159424 0.014762)
(0.00945323 -0.0170245 0.0148733)
(0.00815164 -0.0165052 0.0128204)
(0.00982639 -0.0173863 0.0142113)
(0.00915062 -0.0173379 0.0129328)
(0.00941559 -0.0169976 0.0159823)
(0.0101172 -0.0153448 0.015367)
(0.010076 -0.0165196 0.0136121)
(0.0123638 -0.00583698 0.0141126)
(0.0129426 -0.00567188 0.013574)
(0.0120996 -0.00522557 0.0123556)
(0.0128337 -0.00567599 0.0148268)
(0.0160058 -0.00525304 0.0154771)
(0.0145381 -0.00421251 0.0143679)
(0.00634413 -0.00950687 0.00425879)
(0.0076202 -0.00987862 0.00283324)
(0.00769703 -0.0114153 0.00343111)
(0.00831768 -0.0110271 0.00282434)
(0.00688164 -0.0111607 0.00431761)
(0.00686299 -0.00942539 0.0034286)
(0.00880582 -0.00765065 0.0126651)
(0.00833287 -0.00738062 0.0116551)
(0.00987449 -0.00693824 0.0135562)
(0.0109081 -0.00765234 0.0144547)
(0.00815506 -0.00633003 0.0131108)
(0.00839676 -0.00785979 0.0128173)
(0.0153238 -0.00676865 0.0155522)
(0.0127329 -0.00670521 0.0140014)
(0.0137471 -0.0078513 0.0157914)
(0.0147853 -0.00734816 0.0159871)
(0.0125551 -0.00759639 0.0150707)
(0.0161498 -0.00672368 0.0164011)
(0.0176891 -0.00779212 0.0148625)
(0.0184478 -0.00854219 0.0146759)
(0.0174003 -0.00770469 0.0147784)
(0.0176153 -0.00805475 0.015842)
(0.0180247 -0.00945363 0.0143843)
(0.0189271 -0.00972467 0.0140401)
(0.0117789 -0.00792119 0.0147402)
(0.0149627 -0.00707652 0.014278)
(0.0147028 -0.00804913 0.0151265)
(0.0133586 -0.00719418 0.0158192)
(0.0142794 -0.00844455 0.0158283)
(0.0132436 -0.00913262 0.0151625)
(0.0176801 -0.0104104 0.00798112)
(0.0184619 -0.00924366 0.00980639)
(0.0203988 -0.0100595 0.0100587)
(0.0173672 -0.00997015 0.0077657)
(0.017226 -0.00999089 0.0086083)
(0.0185276 -0.00916217 0.00811381)
(0.0205935 -0.00798463 0.00889382)
(0.0191599 -0.0107811 0.0087731)
(0.020483 -0.0104401 0.00957772)
(0.0214276 -0.00831256 0.00992024)
(0.0180869 -0.00454588 0.0135092)
(0.0179575 -0.00508267 0.0145268)
(0.0207051 -0.00486853 0.0141872)
(0.000595443 -0.0166837 0.0115709)
(0.00011845 -0.0192398 0.0105737)
(0.000747424 -0.0182813 0.0115449)
(0.0011462 -0.0182714 0.00937293)
(-0.00020917 -0.0172526 0.0100402)
(-0.000299981 -0.0182961 0.0120184)
(0.000590258 -0.0201824 0.00788578)
(0.000263177 -0.021519 0.0090401)
(0.00192308 -0.0204038 0.00702555)
(0.00346096 -0.0214953 0.00639214)
(0.00268158 -0.0225318 0.00749477)
(0.0108403 -0.0155767 0.0125003)
(0.0106321 -0.0155727 0.0110853)
(0.0109457 -0.0164255 0.0123295)
(0.00952621 -0.0158835 0.0104736)
(0.00910119 -0.0171919 0.0119413)
(0.0103109 -0.0164689 0.0129313)
(0.00707138 -0.0179236 0.0112267)
(0.0081536 -0.0174263 0.0109921)
(0.00632711 -0.0172614 0.00969915)
(0.00676665 -0.0171323 0.0102257)
(0.00746744 -0.0172101 0.0103156)
(0.005784 -0.0171716 0.00979083)
(0.00302206 -0.0161945 0.00827601)
(0.00215364 -0.0154408 0.00821093)
(0.00414002 -0.0168227 0.00901626)
(0.0027759 -0.0155104 0.00804077)
(0.00447474 -0.0165775 0.00872071)
(0.00381989 -0.0165373 0.00874069)
(0.0121313 -0.0159159 0.0131958)
(0.0135421 -0.0141523 0.0136665)
(0.0133995 -0.0143845 0.0149179)
(0.0127351 -0.0156192 0.0156358)
(0.0121514 -0.015622 0.0138865)
(0.0127587 -0.0149465 0.0125968)
(0.0108073 -0.0145977 0.00848791)
(0.0113271 -0.0163341 0.0100832)
(0.0118607 -0.0156795 0.00969021)
(0.00978323 -0.0172821 0.0101476)
(0.00969144 -0.0158544 0.0086833)
(0.014869 -0.0130071 0.0148358)
(0.0141252 -0.0123687 0.0162054)
(0.0136578 -0.0128024 0.016814)
(0.0152537 -0.0127105 0.0158102)
(0.0139125 -0.0139452 0.0149682)
(0.0135066 -0.01189 0.0146134)
(0.0163623 -0.0110499 0.0133809)
(0.0161784 -0.0126937 0.0129823)
(0.0153682 -0.0139909 0.0133832)
(0.0149313 -0.0118039 0.0136214)
(0.0155624 -0.0129272 0.0118758)
(0.0150815 -0.0120915 0.0110966)
(0.0143168 -0.0117359 0.00720758)
(0.0128547 -0.0124938 0.0074551)
(0.0135679 -0.0122979 0.00728937)
(0.0122834 -0.0122414 0.00745516)
(0.015297 -0.0135715 0.00891729)
(0.0172825 -0.0128458 0.00899907)
(0.0186401 -0.0124746 0.0094774)
(0.0161577 -0.0113305 0.00714942)
(0.0155995 -0.0129927 0.00900188)
(0.0169073 -0.0108812 0.00757159)
(0.0133567 -0.0123201 0.00705368)
(0.0140802 -0.010972 0.0065767)
(0.015889 -0.0109556 0.00697941)
(0.0164538 -0.0119446 0.0082746)
(0.0144877 -0.0128969 0.00776188)
(0.0156292 -0.0123748 0.00821095)
(0.00451621 -0.0111506 0.010543)
(0.00531757 -0.0127929 0.0104687)
(0.00582124 -0.012809 0.00918585)
(0.00591346 -0.0135704 0.00980531)
(0.00497288 -0.0117934 0.0102415)
(0.00409047 -0.0109432 0.0102988)
(0.00430133 -0.0113187 0.00931066)
(0.00518851 -0.0125941 0.0100953)
(0.00731332 -0.0122248 0.00813086)
(0.00766765 -0.0134105 0.00858944)
(0.00792827 -0.0139639 0.00889884)
(0.00681726 -0.01245 0.008679)
(0.00793013 -0.0122298 0.00746141)
(0.00843595 -0.0129362 0.00753744)
(0.00597837 -0.012201 0.00952165)
(0.0059887 -0.0122096 0.0108253)
(0.00598701 -0.012449 0.0102515)
(0.00560389 -0.0119367 0.0108908)
(0.00673865 -0.0132755 0.010042)
(0.00593789 -0.0119429 0.0100159)
(0.00861753 -0.0144858 0.0080957)
(0.00839694 -0.0147642 0.00831327)
(0.00757852 -0.0145151 0.00884612)
(0.00946081 -0.0150984 0.0087872)
(0.0101705 -0.0138643 0.00726702)
(0.00921911 -0.015181 0.00820172)
(0.00849845 -0.0148136 0.00793432)
(0.00768814 -0.0151576 0.00827133)
(0.00786124 -0.0152153 0.0082558)
(0.00987783 -0.0156248 0.00871167)
(0.00959101 -0.0155822 0.00904761)
(0.0128662 -0.0140617 0.00939627)
(0.0128115 -0.0142002 0.00961227)
(0.0141298 -0.0142879 0.0106114)
(0.0118125 -0.0155656 0.00935516)
(0.013697 -0.0141695 0.0100745)
(0.0122843 -0.0154998 0.0097864)
(0.00510976 -0.0138562 0.0083577)
(0.00587904 -0.0128176 0.00741881)
(0.0063556 -0.0151786 0.00873148)
(0.00741107 -0.0141231 0.00776312)
(0.00783139 -0.0144698 0.00774923)
(0.00671892 -0.0148502 0.00832271)
(0.0154607 -0.0117076 0.0102412)
(0.0145354 -0.0132436 0.00940118)
(0.0159613 -0.0114946 0.00938783)
(0.0162926 -0.0128546 0.0114997)
(0.0151327 -0.0135042 0.0103443)
(0.014812 -0.013546 0.00954068)
(0.0141608 -0.0137348 0.00917051)
(0.00571224 -0.0219626 0.00714757)
(0.00478595 -0.0211038 0.00647087)
(0.00731617 -0.0210356 0.00740342)
(0.006219 -0.0212617 0.00714377)
(0.00488226 -0.0214004 0.006505)
(0.00531883 -0.0197446 0.0050867)
(0.00625911 -0.0206748 0.00577253)
(0.00775033 -0.0202517 0.00498367)
(0.00504318 -0.0212547 0.00632718)
(0.00727057 -0.0192208 0.00457374)
(0.00564821 -0.0195734 0.00622674)
(0.00629368 -0.0167422 0.00465726)
(0.00637322 -0.0144079 0.00374248)
(0.00748404 -0.0168335 0.00395643)
(0.00760114 -0.0160737 0.00394692)
(0.00599067 -0.0154645 0.00449281)
(0.00800262 -0.0161541 0.00358962)
(0.00701198 -0.0114372 0.00356169)
(0.00780639 -0.0122595 0.00331958)
(0.0064444 -0.0112221 0.00381814)
(0.00579291 -0.0111561 0.00449626)
(0.00647753 -0.0124794 0.00432754)
(0.00747318 -0.0126951 0.00342357)
(0.0165021 -0.0157088 0.0047729)
(0.0146906 -0.0163321 0.00376886)
(0.0157585 -0.0161738 0.00439341)
(0.013985 -0.0165585 0.00342664)
(0.0162034 -0.0153206 0.00359989)
(0.0155953 -0.0164075 0.00352578)
(0.00827258 -0.00633135 0.00947228)
(0.00840655 -0.00645721 0.00943393)
(0.0102051 -0.00687244 0.0106324)
(0.0110855 -0.00723975 0.0101468)
(0.00942642 -0.00705923 0.0101038)
(0.0115006 -0.00713327 0.0109194)
(0.011578 -0.00658282 0.0107884)
(0.0145486 -0.0064791 0.0105215)
(0.0135747 -0.00621334 0.011004)
(0.0111002 -0.00620871 0.0101027)
(0.0143758 -0.00635182 0.0106998)
(0.0131376 -0.00649698 0.010681)
(0.0187754 -0.012597 0.00591884)
(0.0185066 -0.0136414 0.00699415)
(0.0180751 -0.0144279 0.00577377)
(0.0173908 -0.0137913 0.0047745)
(0.0179181 -0.0116437 0.006526)
(0.0183017 -0.0128254 0.00449716)
(0.0187986 -0.0104459 0.00860725)
(0.0190564 -0.011666 0.00677538)
(0.0198329 -0.0110446 0.00718635)
(0.0191136 -0.00961842 0.00771611)
(0.017873 -0.00930898 0.00851207)
(0.0186637 -0.0103235 0.00725157)
(0.0201916 -0.0104195 0.00634837)
(0.0209608 -0.0093154 0.00718938)
(0.0204221 -0.00929815 0.00469785)
(0.0199231 -0.00790306 0.00627163)
(0.0209954 -0.00965079 0.0060063)
(0.0166607 -0.00522936 0.0108796)
(0.0186576 -0.00542604 0.010737)
(0.0173398 -0.00484842 0.0106075)
(0.0195864 -0.00453354 0.00968034)
(0.0190112 -0.00537155 0.0103698)
(0.0199595 -0.00478404 0.00950572)
(0.0146025 -0.00708045 0.0111729)
(0.0176134 -0.0069841 0.0106358)
(0.0151725 -0.00489315 0.0101279)
(0.0156659 -0.00618413 0.0103193)
(0.0136769 -0.00681582 0.0113753)
(0.0170971 -0.00692612 0.0109089)
(0.0188756 -0.0130148 0.00513277)
(0.0175116 -0.0130671 0.00303582)
(0.0172509 -0.0137139 0.0032078)
(0.018806 -0.0118683 0.00425491)
(0.0182393 -0.0154191 0.00385774)
(0.0183347 -0.0122813 0.00367242)
(0.00939747 -0.0139056 0.00253015)
(0.0103171 -0.0137758 0.00186771)
(0.010299 -0.014951 0.00278447)
(0.0113912 -0.0140086 0.00218164)
(0.0124833 -0.0139968 0.00206673)
(0.0119569 -0.0132002 0.00182209)
(0.00953295 -0.0120925 0.00277642)
(0.00855727 -0.0114919 0.0026273)
(0.0100534 -0.0121186 0.00267281)
(0.0112002 -0.0116465 0.00201377)
(0.0124618 -0.0122299 0.00124502)
(0.00536766 -0.00621093 0.00806382)
(0.00656345 -0.00604342 0.00854784)
(0.00528105 -0.00607398 0.00779705)
(0.00747491 -0.0068144 0.00920904)
(0.00770796 -0.00700044 0.00943203)
(0.00641075 -0.00676203 0.00876895)
(0.0128562 -0.00886982 0.0101815)
(0.0129896 -0.00815006 0.0101592)
(0.0104787 -0.00768798 0.0102724)
(0.0122513 -0.00789895 0.0104208)
(0.01032 -0.00800726 0.0101103)
(0.0117986 -0.00915434 0.0107553)
(0.00446567 -0.00536069 0.00688843)
(0.00550259 -0.00583218 0.00773374)
(0.00563045 -0.00601619 0.00791288)
(0.00401703 -0.00488987 0.00662267)
(0.00505165 -0.00546921 0.00728514)
(0.00441609 -0.00480139 0.00684477)
(0.00266442 -0.0139097 0.00895245)
(0.00221867 -0.0136176 0.00921216)
(0.00347726 -0.0149928 0.00892642)
(0.00405603 -0.0154942 0.00904998)
(0.00314972 -0.0134149 0.00808583)
(-0.000693089 -0.00776445 0.00922213)
(-0.000814884 -0.00986176 0.00928344)
(-0.00118635 -0.0088556 0.00935042)
(-0.000712726 -0.00992492 0.0092953)
(-0.000407286 -0.00902752 0.00945716)
(-0.000558356 -0.00775721 0.00907192)
(0.00234156 -0.0145712 0.00826071)
(0.00290401 -0.0152372 0.00808093)
(0.00146467 -0.0135891 0.00786255)
(0.00163188 -0.0139107 0.00874609)
(0.00104766 -0.01343 0.0083785)
(0.00234512 -0.0142832 0.00830602)
(0.00107202 -0.012923 0.00841059)
(0.00127515 -0.0139493 0.0080179)
(-0.000211046 -0.0115151 0.00839823)
(0.000387361 -0.0124878 0.00883908)
(0.000541959 -0.0121559 0.00781105)
(-0.000121468 -0.0123478 0.00812513)
(-0.000355082 -0.011378 0.00892314)
(0.00294299 -0.0120497 0.0094165)
(0.00313978 -0.0126806 0.00950254)
(0.00333599 -0.0128109 0.00875665)
(0.00372661 -0.0120432 0.0084362)
(0.00422405 -0.0136071 0.0093835)
(0.0022509 -0.00965867 0.0103045)
(0.00272241 -0.0111058 0.00967629)
(0.00266411 -0.0105174 0.0100887)
(0.00261203 -0.0113653 0.00973437)
(0.00208039 -0.00986547 0.0101817)
(0.00225438 -0.0110587 0.010291)
(0.00536611 -0.00621777 0.00945123)
(0.0054893 -0.00468319 0.00847099)
(0.00462492 -0.00498602 0.0075165)
(0.00531283 -0.00575787 0.00872903)
(0.00506832 -0.0058098 0.00896265)
(0.00585304 -0.00602049 0.00840558)
(0.0058409 -0.00574935 0.00842428)
(0.00393237 -0.00527966 0.00918377)
(0.00358409 -0.00481991 0.00762858)
(0.00361135 -0.00470434 0.00710952)
(0.00417547 -0.00516471 0.0086514)
(0.00392487 -0.00469222 0.00737957)
(0.00356797 -0.00507987 0.00849409)
(0.00383647 -0.00503351 0.00651231)
(0.00309322 -0.00448665 0.00646685)
(0.00303811 -0.00506175 0.00600043)
(0.00358714 -0.00488433 0.00645067)
(0.00324484 -0.00432814 0.00640133)
(0.00351181 -0.00514229 0.00630545)
(0.0018171 -0.00537575 0.00795093)
(0.00233743 -0.00593519 0.00914825)
(0.0023601 -0.00541164 0.0082303)
(0.00212803 -0.00563104 0.00772522)
(0.00148915 -0.00640107 0.00937521)
(0.00182436 -0.00770386 0.00985333)
(0.00170982 -0.00754484 0.00974586)
(0.00258349 -0.00747474 0.00967573)
(0.00249036 -0.00787394 0.0100136)
(0.00212901 -0.00808417 0.0101128)
(0.00202108 -0.00875741 0.0103654)
(0.00199533 -0.0076757 0.00963303)
(0.00194853 -0.00917074 0.0102768)
(0.00533414 -0.0100641 0.0116447)
(0.00473155 -0.00937317 0.0114172)
(0.00489681 -0.00990065 0.0116984)
(0.00493856 -0.0102906 0.0111665)
(0.00531429 -0.00934215 0.0121402)
(0.00521001 -0.0111993 0.011422)
(0.00547496 -0.00805617 0.0114413)
(0.00574547 -0.00712004 0.0111565)
(0.00563698 -0.00783461 0.0119787)
(0.0054643 -0.00663192 0.011158)
(0.005561 -0.00593895 0.0106472)
(0.0058354 -0.00605807 0.010778)
(0.00653934 -0.00579028 0.0110969)
(0.00611283 -0.00487697 0.0108761)
(0.0059992 -0.00660756 0.011441)
(0.00631428 -0.00467565 0.0107123)
(0.00608385 -0.00661025 0.0118594)
(0.00654851 -0.00655007 0.0113943)
(0.00933136 -0.00857379 0.0100796)
(0.00952349 -0.00843958 0.0100622)
(0.00852361 -0.00821565 0.00983313)
(0.00689642 -0.00705188 0.00892269)
(0.00775663 -0.00884214 0.0101702)
(0.00689948 -0.00731764 0.00911476)
(0.0031595 -0.00531653 0.00621244)
(0.00414129 -0.00556852 0.00710536)
(0.00384472 -0.00613955 0.00700568)
(0.00365309 -0.00539229 0.00660822)
(0.0047758 -0.00639463 0.00783665)
(0.00475093 -0.0063681 0.00778536)
(0.019939 -0.0050067 0.0101842)
(0.0175308 -0.00338548 0.00989307)
(0.0185792 -0.0036665 0.0100861)
(0.0206581 -0.003503 0.00844281)
(0.0208941 -0.00318391 0.00916652)
(0.0190139 -0.00332434 0.00976753)
(0.00876213 -0.00700084 0.0133236)
(0.00905397 -0.00551465 0.011807)
(0.0084516 -0.00621233 0.0120733)
(0.00995747 -0.00785427 0.0140615)
(0.00998371 -0.00622242 0.0134716)
(0.00806169 -0.00627937 0.0127415)
(0.00222198 -0.00585782 0.00612903)
(0.00387311 -0.00743996 0.00773993)
(0.00326666 -0.00713625 0.00709723)
(0.00238095 -0.00586085 0.00602028)
(0.00263754 -0.00746172 0.00730726)
(0.00394158 -0.00972812 0.00862256)
(0.00399296 -0.010894 0.00886346)
(0.00268257 -0.00920791 0.00800096)
(0.00451404 -0.0107705 0.00916959)
(0.00313094 -0.00938655 0.00812462)
(0.00259444 -0.0079868 0.00741547)
(0.000612362 -0.00665108 0.00563497)
(0.0026174 -0.00906751 0.00782378)
(0.00126589 -0.00750471 0.00636238)
(0.00149869 -0.00491671 0.00489774)
(0.00167003 -0.00505073 0.0050619)
(0.00105013 -0.00410644 0.0045357)
(0.00109225 -0.00447196 0.0045198)
(0.00128846 -0.00416981 0.00459006)
(0.00147548 -0.00466698 0.00491933)
(-0.00181675 -0.0107129 0.00851379)
(-0.00255864 -0.0102974 0.00949736)
(-0.00160657 -0.00805728 0.00843147)
(-0.00197563 -0.00824885 0.00836993)
(-0.00145598 -0.00967898 0.00856129)
(-0.00240867 -0.00911364 0.00865183)
(0.000519099 -0.00465324 0.00439577)
(0.000360731 -0.00416465 0.00392072)
(0.000531768 -0.00513204 0.00478724)
(0.00848431 -0.0166368 0.0174649)
(0.00860267 -0.0160646 0.0161732)
(0.00684293 -0.0173978 0.0178659)
(0.00738505 -0.0159526 0.0175192)
(0.0082748 -0.0172328 0.0166497)
(0.00683978 -0.0167952 0.0160207)
(0.00527785 -0.0159544 0.0165221)
(0.00388985 -0.0155056 0.0170058)
(0.00562127 -0.0164566 0.0178696)
(0.0048497 -0.0167676 0.0176679)
(0.00418128 -0.0167072 0.0170507)
(0.00349623 -0.0169468 0.0170778)
(0.00270889 -0.017411 0.0173218)
(0.0130536 -0.0145835 0.00846858)
(0.00159893 -0.00661418 0.00619739)
(0.00110888 -0.00588902 0.00537388)
(0.000885999 -0.00592819 0.00514865)
(0.000713807 -0.00580184 0.00492797)
(0.000602169 -0.00565161 0.00502954)
(0.000117269 -0.00376097 0.00434668)
(0.00024788 -0.00384063 0.00425404)
(0.000858787 -0.00528493 0.0047314)
(0.000684997 -0.00445671 0.00446826)
(0.000557963 -0.00392724 0.00429795)
(0.000681815 -0.00479647 0.00443631)
(0.000499834 -0.00493433 0.00438518)
(0.000482146 -0.00459844 0.00441464)
(0.000453596 -0.00399246 0.00427398)
(0.000501896 -0.00474177 0.00439526)
(-0.000248713 -0.00454537 0.0054461)
(-0.000144869 -0.00387372 0.00471559)
(-0.000743636 -0.00473508 0.00603325)
(-0.00104868 -0.0051337 0.0068295)
(-0.00256507 -0.00962275 0.00802566)
(-0.00182754 -0.00776582 0.00827612)
(-0.0024505 -0.00927209 0.00867506)
(0.000428325 -0.00428722 0.00464802)
(-0.000167881 -0.00402044 0.00580154)
(0.000273548 -0.00417951 0.00520583)
(0.000230383 -0.00444572 0.00521986)
(-0.000912003 -0.0054281 0.00668287)
(-0.00131188 -0.00627365 0.00762745)
(-0.00049373 -0.00577908 0.00733185)
(0.000235247 -0.00475858 0.00667773)
(9.99319e-05 -0.00487686 0.00612356)
(-0.000449014 -0.00562722 0.00710642)
(-0.00129685 -0.00783183 0.00853066)
(-0.00183003 -0.00930973 0.00921302)
(4.64452e-05 -0.00590434 0.00789055)
(-0.000343729 -0.00626419 0.00779295)
(-0.0011917 -0.00746516 0.00865173)
(-0.00129773 -0.00859224 0.00925082)
(-0.000649754 -0.00624237 0.00818909)
(-0.00116297 -0.00834141 0.00901547)
(-0.000530893 -0.00775118 0.00879541)
(0.00109273 -0.00541235 0.00506388)
(0.00104733 -0.00404945 0.00478336)
(0.00150595 -0.00757559 0.00650866)
(0.00618037 -0.0112431 0.00926711)
(0.00558649 -0.0127888 0.00962195)
(0.00539884 -0.0112875 0.00923071)
(0.00125777 -0.00607569 0.00523066)
(0.00183243 -0.00552775 0.00564793)
(0.00160251 -0.00647235 0.00587128)
(0.0017152 -0.00679502 0.0063775)
(0.00148702 -0.00599338 0.00576902)
(0.00333832 -0.00740658 0.00747016)
(0.00651766 -0.0150536 0.00965966)
(0.00645349 -0.0157351 0.00930178)
(-0.00204629 -0.0107225 0.00805642)
(-0.00221388 -0.0107899 0.0088075)
(0.0220424 -0.00415882 0.00661966)
(0.0141463 -0.00398456 0.0103947)
(0.0153094 -0.00353667 0.00987063)
(0.021488 -0.00455484 0.00788549)
(0.0140187 -0.0102634 0.00166969)
(0.0117002 -0.0106864 0.00194598)
(0.0115245 -0.0117138 0.00232362)
(0.010286 -0.0113675 0.00180329)
(0.012591 -0.0109195 0.00164778)
(0.0118592 -0.0102859 0.00110025)
(0.0100492 -0.00970648 0.00177338)
(0.010782 -0.0103128 0.00154169)
(0.0183114 -0.0100766 0.00192036)
(0.0192438 -0.0100303 0.00180463)
(0.0202159 -0.00932033 0.00194852)
(0.0211513 -0.00924178 0.00303285)
(0.0210621 -0.00850935 0.00242801)
(0.0215935 -0.00855643 0.00347767)
(0.0217315 -0.00743165 0.00397215)
(0.0231616 -0.00503818 0.00588564)
(0.0226209 -0.00575534 0.00525163)
(0.022486 -0.00651231 0.0042734)
(0.0021688 -0.00501806 0.0053542)
(0.0033501 -0.00652898 0.00697261)
(0.00288856 -0.00601125 0.00647528)
(0.00732412 -0.00644139 0.0126857)
(0.00705246 -0.0108007 0.0102294)
(0.00818767 -0.0106739 0.0120668)
(0.00736738 -0.0101979 0.0107226)
(0.0081046 -0.0111726 0.0115144)
(0.00731568 -0.00759773 0.0127149)
(0.00743694 -0.00963463 0.011538)
(0.00618559 -0.00741601 0.011995)
(0.00663797 -0.00895198 0.0119367)
(0.00329034 -0.00525674 0.00633381)
(0.00291369 -0.00425429 0.00588547)
(0.00274966 -0.00509644 0.00588215)
(0.00288469 -0.00515228 0.00596594)
(0.00250313 -0.0043268 0.00559836)
(0.00262179 -0.00479434 0.00650754)
(0.00262843 -0.00676606 0.00963319)
(0.00361646 -0.00482997 0.00651443)
(0.00344987 -0.00494714 0.00745972)
(0.00330687 -0.00599112 0.00894283)
(0.0026834 -0.00670795 0.00950646)
(0.00307031 -0.00621719 0.00917039)
(0.00311312 -0.00738467 0.0104213)
(0.00329654 -0.00658488 0.00983372)
(0.00640422 -0.00603558 0.010345)
(0.00435327 -0.00500067 0.00728278)
(0.00576954 -0.00493502 0.00780398)
(0.00644965 -0.00539019 0.00807042)
(0.00538507 -0.00502669 0.00764389)
(0.00619385 -0.00484204 0.00955582)
(0.00642717 -0.00571085 0.00968124)
(0.00674494 -0.00577383 0.0094722)
(0.00381139 -0.00584146 0.00947435)
(0.00453951 -0.00622073 0.011166)
(0.00513149 -0.00721344 0.0111349)
(0.0046362 -0.0057389 0.00938896)
(0.00481399 -0.00738868 0.0104485)
(0.0044742 -0.00705719 0.011534)
(0.00486443 -0.00733101 0.0120307)
(0.00488789 -0.00631302 0.00982897)
(0.00263236 -0.00912751 0.0105363)
(0.00405628 -0.0157614 0.00857525)
(0.00184933 -0.0155575 0.00864854)
(0.000484293 -0.0139055 0.00841964)
(0.000192106 -0.01082 0.0085636)
(0.000171724 -0.00825043 0.0093832)
(-0.000162411 -0.010872 0.00912319)
(-0.000211049 -0.00898361 0.00941789)
(-1.80916e-05 -0.00984708 0.00917257)
(-0.000506526 -0.0108754 0.0095559)
(-0.000861101 -0.0101626 0.00841141)
(-0.000953334 -0.00942925 0.00886152)
(0.000782607 -0.00533691 0.00812414)
(0.000559412 -0.00627953 0.00881975)
(0.000110735 -0.00719177 0.00901402)
(-0.000655954 -0.00727573 0.00898888)
(-6.10246e-05 -0.00692114 0.0089475)
(8.44501e-05 -0.0061401 0.00784061)
(6.3118e-05 -0.00558728 0.00788109)
(0.000633549 -0.00512951 0.00716353)
(0.000829471 -0.00402836 0.00629003)
(0.000270135 -0.0056646 0.00760724)
(-0.00135286 -0.0124105 0.00932407)
(-0.00113612 -0.0106573 0.0086858)
(-0.00154355 -0.0107883 0.00967454)
(-0.00129992 -0.0109793 0.00924871)
(0.00118224 -0.0122942 0.00817655)
(7.57387e-05 -0.0122258 0.00896864)
(0.000774144 -0.0124521 0.00869421)
(0.00345775 -0.0153065 0.00856757)
(0.0054051 -0.0160219 0.00855102)
(0.00426184 -0.0157443 0.00830875)
(0.00556623 -0.0164633 0.00880293)
(-1.42285e-05 -0.0142104 0.00821951)
(0.000115996 -0.0134562 0.00792944)
(-0.000249145 -0.0128103 0.00821862)
(-0.000636016 -0.0124796 0.00896048)
(0.000907183 -0.0138499 0.00781887)
(0.000927743 -0.0143387 0.00784164)
(0.00195106 -0.0137668 0.00837305)
(0.00184135 -0.0128491 0.00806622)
(0.00458741 -0.0153474 0.00844089)
(0.00314155 -0.0152084 0.00859973)
(0.0026972 -0.0136321 0.00810246)
(0.00459691 -0.0146735 0.00836348)
(0.00472681 -0.0154526 0.00839457)
(0.00141509 -0.0120851 0.0084414)
(0.00661484 -0.016107 0.00867626)
(0.00562619 -0.0157802 0.00860782)
(0.00610049 -0.0159434 0.00872302)
(0.00670037 -0.0158376 0.00855569)
(0.00479344 -0.0145599 0.00823703)
(0.00270745 -0.012916 0.00929489)
(0.00303332 -0.013634 0.00934332)
(0.00224772 -0.0121116 0.00891464)