/*--------------------------------*- C++ -*----------------------------------*\
| =========                 |                                                 |
| \\      /  F ield         | OpenFOAM: The Open Source CFD Toolbox           |
|  \\    /   O peration     | Version:  v1612+                                |
|   \\  /    A nd           | Web:      www.OpenFOAM.com                      |
|    \\/     M anipulation  |                                                 |
\*---------------------------------------------------------------------------*/
FoamFile
{
    version     2.0;
    format      ascii;
    class       surfaceScalarField;
    location    "150";
    object      phi;
}
// * * * * * * * * * * * * * * * * * * * * * * * * * * * * * * * * * * * * * //

dimensions      [0 3 -1 0 0 0 0];

internalField   nonuniform List<scalar> 
41947
(
4.1323e-09
-3.37462e-09
5.90873e-09
-6.66639e-09
-3.88176e-09
-6.75277e-09
7.95756e-10
9.83878e-09
1.16286e-08
-6.68761e-09
6.08541e-09
-1.10264e-08
1.53743e-09
6.88365e-09
-2.91688e-09
-5.50418e-09
-1.66131e-09
6.27341e-09
-3.07467e-09
-8.18617e-10
2.38919e-09
1.08336e-09
-2.65387e-09
1.43576e-10
-2.6234e-09
8.10618e-10
-3.08823e-09
-1.08259e-09
3.36017e-09
1.45374e-09
2.76273e-09
-4.03191e-09
-1.84577e-10
-8.13241e-09
-1.57032e-09
2.73692e-09
6.96579e-09
-4.38152e-10
2.05139e-09
-4.8247e-09
1.23801e-09
3.46514e-09
-8.26158e-10
-1.37927e-09
-6.81885e-10
2.88749e-09
-7.16423e-10
-1.26539e-09
1.15576e-09
-1.65074e-09
-4.44944e-10
2.36181e-09
4.16904e-10
2.55859e-09
-8.78438e-10
5.4152e-09
-1.50482e-10
-3.32096e-09
9.39201e-09
4.14151e-09
-1.02125e-08
1.65906e-09
-4.60462e-09
-3.75379e-10
-1.02889e-09
2.22721e-09
8.19371e-09
2.11613e-09
-1.29404e-08
9.79537e-09
1.71326e-09
-9.88067e-09
1.02836e-08
-1.0401e-09
-6.05948e-09
8.81286e-09
-4.4686e-09
5.65571e-09
-2.45155e-09
-3.57961e-10
-1.24452e-08
-3.03033e-10
-1.92085e-10
6.95854e-09
1.20063e-09
-1.00989e-08
1.93975e-09
-4.77089e-09
5.66995e-09
-1.17301e-08
3.05008e-09
-4.21519e-09
1.77891e-09
-1.00089e-08
5.88425e-10
-1.19953e-08
7.19172e-09
2.23557e-09
-7.96967e-09
-4.36481e-09
-2.10136e-09
-4.33943e-10
-2.84179e-09
-7.10942e-09
-2.90326e-09
-7.90819e-09
3.96542e-09
-6.28025e-09
-5.87475e-10
-6.12056e-11
4.67679e-09
-1.50335e-09
-2.90278e-09
-5.36991e-09
3.63656e-09
4.63617e-09
-1.89562e-09
-1.06835e-09
2.87068e-10
5.95093e-09
-1.56119e-09
1.25728e-09
5.0902e-09
5.18092e-09
1.33116e-08
3.51049e-09
-6.18441e-09
-1.06377e-08
-1.29485e-09
-1.69657e-08
1.68797e-08
1.38086e-09
-1.33616e-09
1.54683e-09
1.10285e-08
-1.12392e-08
1.18325e-09
1.07922e-08
-7.15737e-09
-5.58032e-10
9.26223e-09
6.88262e-09
-7.69748e-09
1.1773e-09
-3.62449e-10
9.98761e-09
-1.65001e-09
-8.78748e-09
4.49942e-10
1.0324e-08
1.94568e-09
-2.28206e-09
-7.47072e-09
-2.03864e-09
2.35202e-09
-8.51425e-09
-2.61527e-10
1.30509e-09
-1.20008e-09
7.42031e-09
-7.87021e-09
7.74233e-11
-9.79175e-09
1.13181e-08
-1.25355e-08
1.53948e-09
7.74006e-09
-9.67248e-09
9.27547e-09
1.58025e-09
6.51499e-09
6.43799e-10
6.56361e-09
-6.06947e-09
8.10931e-10
8.4219e-09
4.93776e-10
6.67656e-10
-1.61352e-11
6.67526e-09
5.07379e-10
6.25703e-10
2.48922e-09
2.3043e-09
-5.41927e-09
3.80901e-09
3.758e-09
-6.94132e-09
1.07122e-09
4.92603e-09
-3.50802e-09
7.97714e-09
-3.09692e-09
2.03027e-10
5.01718e-09
-1.46219e-09
4.92339e-09
-2.14329e-09
5.19706e-09
-3.44985e-09
-3.72145e-10
8.74543e-09
-2.96698e-10
1.7729e-09
2.90877e-09
3.28504e-09
-3.88947e-09
3.77993e-09
-6.68113e-10
3.32761e-09
-4.53692e-10
-1.87537e-09
1.8596e-09
3.79575e-09
1.11302e-09
4.81504e-09
2.38084e-09
1.01765e-09
9.84362e-10
-4.38258e-09
-4.17354e-09
1.60232e-09
4.95206e-09
-4.15467e-09
7.01166e-09
-7.03054e-09
3.17265e-09
-2.28005e-09
5.05833e-09
1.75077e-09
-3.12461e-09
4.54647e-09
-4.19946e-09
-2.3223e-09
8.12406e-09
1.1838e-09
-4.36559e-09
8.81407e-09
-2.70252e-09
-4.3608e-09
7.01626e-10
3.95776e-09
-5.62474e-09
1.39469e-08
-1.06445e-08
-1.04143e-08
5.49116e-09
7.37403e-09
-3.89673e-09
7.61631e-09
2.6277e-09
1.20423e-09
3.54205e-09
-6.82139e-09
-1.01676e-08
6.5746e-09
-6.81741e-09
-2.70649e-09
7.29039e-09
1.42351e-08
-1.00817e-09
1.69002e-08
2.80403e-09
4.834e-09
-4.0992e-09
1.61654e-08
-8.04792e-09
1.95129e-09
1.09307e-08
5.98586e-09
-7.83312e-09
1.60824e-08
-8.56373e-09
1.21917e-08
-1.45366e-08
1.09087e-08
1.70279e-09
6.15842e-09
7.58221e-09
6.16533e-09
-6.46611e-09
1.66347e-08
-6.28878e-09
-3.87977e-09
8.53203e-09
1.43602e-09
-1.31546e-08
1.55365e-08
-8.84793e-09
-6.89248e-09
6.48191e-10
1.13143e-08
-4.50669e-09
-7.45577e-09
1.45228e-08
-9.38374e-09
-4.49086e-09
-6.27655e-09
1.50249e-08
2.56596e-09
-1.36642e-08
1.13139e-08
-3.92623e-09
-4.09722e-09
-1.40737e-08
3.65485e-09
-1.01404e-08
-8.28765e-09
1.47733e-08
-4.78497e-09
-5.44451e-09
1.38844e-08
-4.36391e-09
9.24831e-09
6.66936e-09
3.48954e-09
-2.44757e-10
3.27112e-09
-6.7624e-09
1.73282e-09
-7.54738e-09
8.77223e-09
8.99401e-09
-1.70641e-08
3.9729e-09
-1.34213e-08
8.90172e-09
6.53745e-10
3.86584e-09
1.58645e-08
-2.02917e-08
1.80038e-08
3.28796e-09
-1.01816e-08
-3.16755e-09
-6.76733e-09
7.28568e-09
2.6492e-09
-6.20491e-11
-1.37953e-08
1.06898e-08
-1.2775e-08
9.69283e-09
3.02011e-09
2.13898e-09
-3.9138e-09
-1.18365e-08
1.36113e-08
-2.8561e-09
-1.03546e-08
1.53496e-08
2.65881e-09
1.02656e-08
-5.13322e-09
-7.79118e-09
8.4294e-10
-1.10585e-08
-3.57972e-09
-9.39655e-09
-2.5355e-09
3.22872e-09
7.75739e-09
-7.33725e-09
-3.6489e-09
-5.28881e-09
-8.11691e-09
1.05496e-08
-2.58663e-09
-1.07237e-08
-4.73989e-09
-3.39652e-09
1.36915e-09
-1.15428e-08
-4.25556e-09
-2.75729e-09
-1.49683e-08
1.24368e-08
-1.68867e-08
1.14904e-08
-2.15506e-08
-4.01358e-09
-1.66129e-08
4.33734e-09
8.3493e-09
7.13212e-10
-5.83566e-09
5.19489e-09
-2.71595e-09
-9.93467e-09
1.03395e-08
-2.22386e-09
-7.40244e-09
3.57775e-09
1.10991e-08
8.811e-09
3.24765e-09
-6.86375e-09
1.49547e-08
1.96649e-08
6.97408e-09
-1.50548e-08
-1.15842e-08
-6.49898e-09
1.43471e-08
1.18168e-08
2.3701e-08
-9.13151e-09
-7.59542e-09
2.0221e-09
6.41397e-09
1.52648e-08
1.3429e-08
-1.32891e-08
1.10036e-08
-1.11436e-08
5.83316e-09
9.61795e-09
1.10696e-08
-5.9124e-09
-2.02121e-08
3.9267e-09
6.43908e-10
4.83108e-09
1.59299e-08
-7.18038e-09
-1.52402e-08
-1.34134e-08
-6.34276e-09
1.5726e-09
1.81835e-08
-1.45199e-09
4.72018e-09
-1.66816e-08
-1.49116e-08
1.4402e-08
-5.01638e-09
1.10836e-09
9.80221e-09
-1.32334e-08
1.97913e-09
1.62059e-08
6.19416e-09
-1.9287e-08
-9.04166e-09
-2.65139e-10
-1.38515e-08
1.1004e-08
1.0657e-08
-1.4139e-08
2.26739e-09
1.2146e-09
-7.933e-09
6.83279e-09
1.17573e-08
1.10174e-08
-1.05201e-08
-1.46363e-08
-1.92716e-11
3.10365e-09
-7.41843e-09
-5.61257e-09
5.81193e-09
7.21908e-09
-9.08341e-11
-7.817e-09
4.89404e-10
6.20071e-09
-6.70178e-09
2.7685e-09
7.57282e-10
1.22762e-08
-6.48744e-09
5.74289e-09
-6.29354e-09
7.03813e-09
-7.00859e-09
4.30333e-10
-8.32989e-09
2.69804e-09
-9.00826e-09
-7.13863e-09
2.48928e-10
1.47471e-09
-1.22438e-08
1.23121e-08
7.16427e-10
-1.12697e-08
3.85151e-09
9.02459e-09
-9.60911e-09
-6.42405e-09
3.44748e-09
7.41495e-10
-9.50082e-09
5.03265e-10
-1.02983e-08
-8.36435e-09
1.40979e-10
2.14829e-09
-3.24741e-09
9.58053e-10
2.5222e-09
-3.31139e-09
9.30133e-10
-1.63828e-09
1.64238e-09
2.51805e-09
9.68563e-10
-2.63631e-09
-1.64367e-09
-6.66829e-10
-2.95467e-12
2.35604e-09
-3.30781e-09
3.10002e-09
-8.89703e-10
4.88812e-09
-2.12613e-09
1.00741e-09
-2.12874e-09
-8.19974e-10
-3.94248e-09
-3.13393e-09
-1.92188e-09
4.16606e-09
7.29327e-10
-2.07225e-09
-1.79102e-09
-1.0487e-09
-1.43895e-10
-1.11233e-09
-1.18811e-09
-1.57705e-09
-1.38535e-10
9.06145e-10
-3.3032e-09
-2.27846e-09
-7.02067e-09
4.42657e-09
9.00728e-09
-6.41319e-09
-1.1253e-08
2.66284e-09
1.56951e-09
8.95631e-09
2.51674e-09
-7.04649e-09
-1.88825e-09
3.05987e-09
5.41686e-09
-6.5885e-09
1.56981e-09
6.34834e-09
-9.80642e-09
2.98778e-09
-6.14237e-09
6.21444e-09
-1.08991e-08
-2.0367e-09
1.59235e-08
7.41178e-09
-4.59785e-09
-7.94216e-09
4.45488e-09
3.77658e-09
-1.26813e-08
1.04745e-08
-1.00679e-08
1.18077e-08
6.69079e-09
-5.62569e-09
2.11779e-09
-4.11453e-09
-1.06846e-08
-1.25927e-09
-4.64892e-09
-2.07614e-09
2.68474e-09
4.04004e-09
-3.27755e-09
-1.36617e-09
-5.36499e-12
4.99613e-09
-4.61201e-09
-3.66182e-09
1.00626e-09
1.91356e-09
-4.37837e-09
7.69e-10
6.294e-09
-3.26169e-09
-3.7078e-09
2.59096e-09
-4.61003e-09
-1.78425e-11
9.63878e-09
-1.17707e-09
1.62746e-09
-1.00893e-08
2.25611e-09
5.8153e-09
1.56723e-09
-3.29251e-09
-4.82423e-09
8.88561e-09
-5.34211e-09
3.05572e-09
3.88371e-09
-4.52615e-09
-3.96769e-09
3.37714e-10
-1.61846e-10
-5.7769e-09
5.67421e-09
2.35869e-09
4.15908e-10
-7.36992e-09
6.47186e-09
3.49485e-10
-5.19395e-09
6.94504e-09
1.18768e-09
-1.58169e-09
-2.68088e-09
-5.69195e-09
1.14262e-08
-1.62739e-08
5.3474e-09
-4.99681e-10
-2.16105e-09
2.23255e-09
1.13547e-08
8.3305e-09
-1.69934e-08
-7.61095e-09
1.66625e-10
6.0029e-09
-7.76037e-09
3.75658e-10
9.61728e-09
-6.88998e-09
4.47703e-09
-1.66025e-09
-5.64503e-09
1.24999e-09
6.05532e-09
-5.66142e-09
4.16786e-09
-5.03101e-09
-6.27545e-09
1.5301e-10
9.17411e-09
-8.07679e-09
-1.25033e-09
6.45057e-10
4.20108e-09
-5.2272e-09
3.81046e-10
5.35197e-09
-4.5539e-09
-4.70788e-09
6.33354e-09
4.05896e-10
1.87824e-09
-1.74564e-09
9.15727e-10
5.87422e-09
-2.26789e-09
1.57224e-09
3.76459e-10
2.0111e-10
1.05678e-08
-1.11454e-08
6.94222e-09
1.94347e-10
-6.76007e-09
-1.40353e-10
-5.96277e-09
-1.26723e-09
-1.54249e-09
8.34437e-09
-1.34233e-09
-7.49472e-09
1.21257e-08
-1.32669e-08
7.24538e-09
-2.6403e-09
1.00275e-08
-1.18778e-08
-4.19305e-10
-2.83111e-09
-2.07539e-09
-8.09273e-09
-3.81626e-09
8.5092e-09
3.39979e-09
-5.06329e-09
4.26532e-10
-3.45593e-09
4.56992e-09
-4.1522e-09
-5.481e-09
1.25585e-09
-5.02144e-10
-4.43373e-09
-4.56064e-10
-3.40724e-09
8.29715e-09
1.82015e-09
-1.19849e-09
-5.05537e-09
2.47292e-09
-4.88349e-09
-2.75953e-09
5.17012e-09
-1.99583e-09
4.72923e-09
-2.605e-10
-3.55823e-09
7.36754e-09
-4.26532e-09
1.19509e-09
3.36543e-09
3.94875e-09
-8.12308e-09
3.96789e-09
5.35033e-09
-2.95594e-09
2.76314e-09
-4.47194e-09
-4.79802e-10
-4.68576e-09
-3.01075e-09
1.46262e-09
1.2029e-09
-6.81765e-09
4.44597e-09
-3.88522e-09
2.33536e-09
-5.55846e-09
2.86913e-09
1.92332e-09
-3.58951e-09
-3.46957e-10
-1.33294e-09
-9.24274e-10
-5.80033e-09
8.05761e-09
-8.63181e-09
9.63431e-09
-3.88444e-09
3.04601e-10
4.53795e-09
-4.8505e-09
7.90583e-12
-7.19706e-09
6.5937e-09
9.07907e-10
4.18661e-09
-4.56803e-11
3.96995e-10
-2.26275e-10
-1.65682e-09
6.06969e-09
3.22712e-09
-3.20911e-09
-6.37207e-11
-1.2393e-09
4.24012e-09
1.82468e-09
-5.86875e-09
-3.15301e-09
-1.91133e-09
6.84818e-09
-2.99566e-09
-2.32643e-10
1.91748e-11
5.54877e-09
-2.47992e-09
-1.24421e-09
-3.47032e-10
3.98445e-09
-1.83108e-09
-1.1198e-10
-2.90748e-09
-9.11389e-10
-6.78846e-09
-1.06602e-09
-2.04161e-09
-3.35074e-09
-1.08192e-09
3.19334e-09
-3.50209e-09
-8.13138e-11
2.43733e-09
-1.05872e-09
-2.44468e-09
-1.05628e-09
-8.44567e-12
-3.1481e-09
4.04136e-09
-1.94953e-09
-5.1182e-09
-4.49261e-09
3.06365e-09
-2.93117e-09
-5.11465e-09
-1.51494e-08
1.65981e-08
3.66612e-09
-1.57919e-08
1.55982e-08
-4.92087e-09
2.4401e-09
-7.49523e-10
-1.68399e-08
4.65418e-10
-1.38172e-08
-9.12905e-09
8.83504e-09
1.58922e-08
5.87516e-09
1.59394e-09
-3.4362e-10
9.03663e-09
-8.22759e-09
6.7353e-09
-7.8284e-09
1.59736e-08
6.01834e-09
-1.29553e-08
1.41467e-09
7.84954e-09
6.70942e-09
-2.1584e-08
1.26507e-08
1.0348e-08
-5.14995e-09
-1.04157e-08
-1.23242e-08
1.10519e-08
7.1476e-09
9.98122e-09
-1.55701e-08
2.04239e-09
1.46423e-08
-1.68126e-08
1.25073e-08
1.69561e-08
-1.19814e-08
2.56016e-08
-1.76973e-09
7.84626e-09
-1.2928e-08
6.85153e-09
-1.82314e-08
9.42807e-09
7.03357e-09
2.38696e-08
-1.62092e-08
4.27959e-10
-8.08843e-09
8.76996e-09
2.45862e-08
-9.48658e-09
-3.11096e-09
1.28793e-08
-1.92208e-09
-1.28232e-08
-6.49706e-09
9.16039e-09
-2.97731e-09
-1.91111e-08
3.97528e-09
-1.30463e-08
-6.74324e-10
2.23236e-08
8.80965e-09
-4.10397e-09
-2.54648e-08
2.07591e-08
2.33672e-08
2.83171e-09
-1.73893e-08
-1.99045e-08
-7.89171e-09
1.66455e-08
1.10337e-08
1.22556e-08
7.78292e-11
1.65836e-08
-9.7766e-09
1.97256e-08
-1.1742e-08
9.53092e-09
1.81258e-08
-1.59148e-08
-1.24835e-09
-3.91577e-09
-6.5779e-09
1.85087e-08
-8.31773e-09
9.37175e-09
-1.95628e-08
1.26755e-09
1.3884e-08
3.35711e-09
1.31735e-08
-2.3559e-08
2.06777e-09
1.06401e-08
3.80102e-09
-1.10789e-08
1.03865e-08
1.45764e-08
-2.95546e-09
-3.54181e-09
2.27778e-09
1.07949e-08
1.5884e-09
3.77006e-09
-8.90029e-09
-5.60073e-09
-1.61428e-08
4.5046e-09
1.7239e-08
-8.23573e-09
4.22338e-09
-1.37385e-08
1.71688e-08
-1.13312e-08
3.20427e-09
5.2843e-10
-6.88698e-09
3.12645e-10
-3.33975e-09
-7.66673e-09
-1.05514e-08
-6.18431e-09
2.84063e-09
3.20211e-11
-1.03981e-08
2.69932e-09
-6.03653e-09
6.49685e-10
-7.97456e-10
7.70108e-09
-8.20343e-10
-5.13078e-09
-1.74995e-09
-5.70611e-09
2.16719e-09
-8.17169e-09
-6.01325e-09
7.36012e-09
-6.39368e-09
7.35381e-09
6.47639e-09
-7.43664e-09
-4.78698e-12
-3.91248e-09
-2.47654e-09
8.61404e-09
-4.51736e-09
-4.10159e-09
-1.08419e-08
1.14865e-08
-4.55724e-09
-6.72117e-10
-4.10883e-09
1.21346e-08
-4.91252e-09
1.28543e-08
-4.41559e-09
1.05456e-08
-1.06476e-08
9.46677e-09
-1.41074e-08
2.24883e-10
-4.93592e-09
5.09888e-09
-4.27196e-09
-4.08989e-09
9.72275e-09
1.01491e-09
4.36179e-09
4.19484e-09
-8.11602e-09
9.0748e-09
-7.48038e-10
5.97427e-09
-1.4301e-08
5.49112e-09
6.24952e-09
-2.66583e-09
5.33586e-09
-8.66214e-09
2.57825e-09
1.05478e-08
2.79143e-10
9.36185e-09
2.86078e-09
-6.24834e-09
9.76478e-09
5.84659e-09
-2.15603e-09
1.19676e-08
-6.95081e-09
1.74557e-08
-1.38997e-08
-5.71199e-09
-7.97115e-09
1.71739e-09
-5.07353e-09
1.13273e-08
-8.67528e-09
1.37181e-10
5.66942e-10
-2.32616e-09
1.10118e-08
3.76516e-09
-1.24508e-08
-4.53593e-10
-8.23096e-09
5.01109e-09
1.51875e-08
4.58412e-10
8.76629e-09
-8.81736e-09
1.55459e-08
1.08459e-09
6.39664e-09
-4.29141e-09
-1.07609e-08
7.32501e-09
7.72722e-09
-1.66227e-08
5.96908e-09
6.36221e-09
-4.11731e-09
-2.62163e-09
5.9818e-09
7.57064e-10
2.00619e-10
-9.49747e-09
5.1795e-09
-1.09064e-08
-5.53742e-10
6.99244e-10
-1.1617e-08
-1.59122e-08
7.59036e-09
1.78741e-09
-2.05279e-09
-1.22943e-08
5.9076e-09
6.58724e-09
-4.07671e-09
-1.66243e-09
3.11742e-09
-1.361e-09
-8.94879e-09
8.12305e-10
-5.1415e-09
-2.96262e-10
4.23287e-09
-3.80744e-10
-5.5146e-09
1.69279e-10
-6.79467e-09
-2.32345e-09
5.55896e-09
-1.7407e-09
-6.02925e-09
2.21101e-09
4.96772e-10
4.97491e-09
8.72299e-11
-2.12677e-09
-9.99828e-09
8.41087e-10
-1.02489e-08
7.66707e-09
-1.29027e-08
-5.78567e-09
-2.59701e-09
6.45566e-10
-1.29397e-08
-7.37284e-09
9.35524e-09
-1.23439e-08
-6.38152e-09
-3.04674e-09
-5.36475e-09
-3.53458e-10
-1.04119e-08
-2.51501e-09
9.88014e-09
-3.68733e-09
-2.94125e-09
3.44406e-10
-6.63185e-09
3.47535e-10
-3.49175e-09
-5.14832e-09
-1.30376e-09
-1.45319e-08
-6.31495e-09
-1.99105e-09
-2.22674e-09
-9.72759e-09
1.03265e-09
-8.96825e-09
-7.50903e-09
7.46444e-09
1.14301e-08
-1.19551e-08
-6.93942e-09
1.67495e-08
-7.26443e-09
-2.02059e-09
-8.92335e-09
1.50522e-08
1.06206e-08
2.21896e-09
2.87826e-10
-8.76325e-09
7.75315e-09
-5.3597e-09
6.36981e-09
4.17137e-10
-3.87156e-09
-5.30881e-09
6.00981e-09
-1.30599e-08
-4.90504e-09
-5.89871e-09
4.64409e-09
1.03318e-08
-3.88114e-09
-6.03353e-09
5.45889e-09
-2.96908e-09
7.842e-09
-8.50836e-11
-4.09574e-09
-2.75862e-09
1.11914e-08
3.40561e-09
-1.9111e-09
-5.36605e-09
-2.03917e-09
-3.08821e-09
-1.40674e-08
1.59873e-08
-4.28222e-09
-1.55863e-08
7.11955e-09
-9.28152e-09
-1.87121e-08
6.65389e-09
1.63963e-08
-4.33801e-09
-8.42498e-09
-2.12493e-08
1.09621e-08
1.2025e-08
4.46721e-09
-1.07127e-08
-5.7795e-09
9.83783e-09
2.15339e-09
3.37598e-11
1.02434e-08
-5.05921e-09
6.48808e-10
-5.83302e-09
4.71266e-09
9.93409e-09
-4.40333e-09
2.79255e-09
-8.22889e-09
1.20902e-08
-6.42379e-09
9.11803e-09
7.14361e-09
5.06068e-10
-2.46265e-09
1.80281e-09
9.40499e-09
-9.05443e-09
-4.40395e-09
-2.95071e-09
1.01472e-08
-5.16446e-09
-2.55837e-09
-1.25941e-08
-9.95328e-10
8.66716e-09
-3.95306e-09
-1.35468e-08
4.19002e-09
4.52258e-09
4.83421e-09
-1.21828e-08
-6.91598e-09
5.55195e-09
-8.67911e-09
7.06434e-09
5.80478e-09
1.62245e-09
1.18553e-08
-5.42435e-09
-8.05338e-09
1.18486e-08
-4.28228e-09
-5.94383e-09
1.00728e-08
-9.47727e-09
-2.61062e-09
6.27022e-09
-1.11863e-08
1.10488e-09
7.47079e-09
7.12874e-09
-6.45977e-09
-6.65213e-09
-1.68045e-09
-3.46527e-10
-6.66361e-09
-1.21713e-08
-2.16337e-09
1.17445e-08
-9.01466e-09
3.40297e-09
6.71658e-09
-2.14718e-09
2.61262e-10
-7.52021e-09
5.00059e-09
5.9226e-09
-1.21877e-09
-6.40446e-09
1.0302e-10
-6.70628e-09
9.5435e-09
-8.02443e-10
-7.12262e-09
-6.64323e-10
-1.02816e-08
6.61622e-09
-1.27049e-08
-8.66425e-09
1.12617e-10
-7.98579e-09
5.93775e-09
-1.27551e-08
7.14826e-09
-1.13871e-09
6.7456e-09
-1.221e-09
-5.1719e-09
-6.36226e-09
-2.63047e-09
5.68412e-09
4.09461e-09
-7.23098e-09
4.31367e-09
2.86852e-10
-1.62011e-08
8.61223e-09
6.45014e-09
-7.19774e-09
-1.02243e-08
1.20327e-08
-1.01263e-08
-9.30028e-09
7.39395e-09
-4.4899e-09
1.15037e-08
5.01886e-09
7.18651e-09
-5.37056e-09
-1.19423e-08
2.5613e-09
1.3532e-10
5.23012e-09
-4.78902e-09
-5.61298e-09
5.60443e-10
-2.18743e-09
-3.91396e-09
1.17855e-08
-4.49169e-09
6.61793e-09
-6.50238e-09
1.12006e-08
1.12822e-08
-4.27015e-09
4.07106e-09
-1.42306e-08
9.91871e-09
-1.30454e-08
3.73714e-09
-3.20805e-10
5.63801e-09
-4.07895e-09
-6.6183e-09
9.29619e-10
1.23024e-08
-7.59398e-09
-3.9632e-09
-4.98863e-09
9.88142e-09
-4.02467e-09
-4.70176e-09
4.76323e-09
-2.37085e-09
-5.2513e-09
2.63348e-09
-6.58017e-09
1.84664e-10
-5.41445e-09
5.82698e-09
-5.1143e-09
7.72275e-09
2.35789e-09
-3.09971e-09
-6.98092e-09
2.30981e-09
-1.50295e-12
6.50943e-09
-6.73387e-09
-1.18176e-08
1.20419e-08
-8.77786e-10
-6.7958e-10
8.06676e-09
-4.29462e-09
1.41163e-08
-7.46378e-09
-4.54451e-09
2.7414e-10
-5.87381e-09
-2.55299e-10
5.15642e-09
3.71375e-10
-8.62753e-09
-5.2619e-09
-1.06571e-08
1.01234e-08
2.76912e-09
-1.21682e-08
-7.24305e-10
-1.98006e-09
3.27113e-09
8.83228e-09
7.68921e-09
1.88365e-09
-1.38284e-08
8.37292e-09
-4.26343e-09
-1.67999e-08
1.33061e-09
1.34892e-08
-7.15948e-09
-1.90368e-09
-7.73672e-09
-1.09762e-08
1.43443e-09
1.28129e-08
1.87449e-09
-1.00815e-08
-8.12771e-09
-1.11999e-08
-1.09824e-08
4.73836e-09
1.55125e-08
-9.04321e-09
2.29051e-09
1.45525e-08
-6.60194e-10
9.38031e-09
1.23201e-08
4.04139e-09
2.29155e-09
8.40219e-09
-1.47351e-08
-7.9873e-09
-7.3579e-09
1.21237e-08
3.22153e-09
-5.94192e-09
3.54666e-09
-4.92693e-09
7.32221e-09
-2.5906e-09
-1.14589e-08
6.06217e-09
4.86331e-09
1.20708e-08
-5.6113e-09
-1.13227e-08
1.16356e-09
7.74113e-09
1.55712e-08
-8.42435e-09
-7.90625e-09
7.59343e-10
5.2508e-09
1.2612e-08
-1.08191e-08
2.28657e-09
-5.08251e-09
1.14969e-08
1.69039e-09
-1.09733e-09
-9.0175e-09
1.18116e-08
-1.08928e-08
-6.0014e-09
-8.57834e-09
-3.21375e-09
1.33501e-08
-1.55813e-09
1.50178e-08
-1.95405e-08
-1.51996e-09
6.04262e-09
1.07965e-08
1.25705e-08
-2.70412e-09
-2.2672e-08
1.76945e-08
-4.46264e-09
-1.54557e-08
7.3846e-09
6.89907e-09
3.41083e-09
2.27459e-09
2.09461e-08
-1.24241e-08
8.12012e-09
1.03636e-08
2.35929e-09
1.50606e-08
-2.0124e-08
1.34095e-08
-1.55129e-08
1.1201e-08
9.10757e-09
2.49569e-09
9.50097e-10
1.16147e-08
9.15998e-09
4.53675e-09
1.95547e-08
1.45161e-08
-4.63244e-09
-3.13839e-09
-6.74525e-09
1.58959e-10
3.91002e-09
1.04471e-08
-9.59496e-09
1.43428e-08
-7.20562e-09
5.23289e-09
9.33973e-09
-7.36698e-09
-9.8139e-09
2.76721e-09
-7.77059e-09
-2.65071e-09
1.56543e-08
-1.08177e-08
7.40147e-09
-4.35436e-09
-1.66739e-08
2.42563e-10
6.61751e-09
-1.0496e-08
-9.31641e-09
-1.09792e-08
8.11512e-09
-1.3333e-08
1.61971e-08
-1.63242e-08
5.58758e-09
-1.02713e-08
1.57358e-08
-7.535e-09
-2.77032e-09
-3.02767e-09
-1.28963e-08
-1.09629e-08
-1.50856e-09
-1.01319e-08
1.36923e-09
-6.16789e-12
-3.2094e-09
-1.12723e-09
2.33176e-09
8.16412e-09
1.47356e-09
6.60309e-09
1.14868e-09
5.19205e-09
-1.23e-09
4.6317e-09
-6.13719e-11
2.27309e-09
1.67642e-09
1.24266e-09
3.78903e-09
3.11579e-09
-5.3088e-09
1.16149e-09
6.47916e-09
1.36282e-09
-3.69633e-09
-1.88498e-09
6.74289e-09
-3.67922e-09
3.77196e-09
5.64393e-09
-1.37629e-09
8.22669e-10
5.23253e-09
-1.96993e-10
8.02135e-09
-6.24971e-09
1.24241e-08
-1.41957e-08
1.34128e-08
-2.28821e-09
-3.10325e-09
-3.90381e-09
-1.03865e-08
1.23261e-08
1.96432e-09
-1.24999e-08
1.0991e-08
-2.39489e-09
1.17623e-09
-1.06671e-08
3.24117e-09
9.1786e-09
4.41405e-09
-1.16861e-09
9.2557e-09
1.33357e-08
3.11282e-09
-6.29988e-09
-7.19948e-09
-4.97306e-09
4.11509e-09
-6.34162e-09
-3.71749e-09
5.944e-09
-1.3916e-09
-3.34025e-09
8.84694e-09
-1.51583e-09
6.16523e-09
5.66492e-09
5.14534e-09
1.87869e-08
-2.85059e-09
-1.28039e-08
-3.13239e-09
4.43776e-09
-9.56142e-09
9.93036e-09
1.13831e-08
-2.52649e-09
1.2207e-08
8.24336e-09
-1.05199e-08
2.92485e-09
2.61335e-09
-4.6392e-09
6.17246e-09
-4.42456e-09
6.74923e-09
1.15022e-08
-9.91502e-09
-4.37225e-09
1.194e-08
2.99698e-10
6.71114e-09
7.37736e-09
5.44788e-09
-5.50589e-09
1.91026e-09
-1.85229e-09
-6.31278e-09
4.79752e-09
6.96311e-09
-4.27937e-09
1.39193e-09
-3.42532e-09
-2.09186e-09
-7.69337e-09
-7.40689e-09
1.04794e-08
5.67288e-09
3.0824e-09
-5.29225e-09
-6.28165e-10
4.47192e-09
-1.93352e-09
-6.52623e-09
3.98067e-09
7.99787e-09
-3.52357e-09
-7.5924e-10
-2.47934e-09
-5.33978e-09
-1.65772e-09
3.49386e-09
-2.59546e-09
4.41904e-09
8.30066e-10
5.23021e-09
9.93753e-09
-2.7558e-09
-4.27776e-09
5.37581e-09
-5.67831e-09
3.75254e-09
8.93747e-10
-1.75705e-09
-3.45405e-10
-3.03862e-09
6.55677e-09
-2.83324e-10
-1.4276e-10
-6.1306e-09
2.41713e-10
5.75615e-09
5.59018e-10
5.18624e-09
-3.38948e-10
-5.13054e-09
3.83246e-09
1.72378e-09
-3.69947e-10
-6.24151e-09
5.37628e-09
1.10702e-09
-7.96968e-10
-5.58728e-09
5.55132e-09
4.03731e-09
9.75581e-11
3.07663e-09
-3.51312e-09
-6.55264e-10
-5.65905e-10
7.11279e-09
-5.89157e-09
-4.17568e-09
3.47627e-09
1.928e-09
3.34436e-09
-2.19572e-09
3.87887e-09
-2.27074e-10
-6.01148e-09
6.61447e-09
-1.25823e-09
-1.47073e-09
-1.19638e-09
-8.29703e-10
5.64012e-09
3.96974e-09
7.51885e-10
-4.51439e-09
5.81548e-09
-5.97838e-09
4.67727e-09
7.32879e-09
-1.18808e-08
3.75487e-11
9.16208e-10
-1.13134e-09
6.0305e-09
7.24384e-09
-1.33107e-09
1.41603e-09
-8.04397e-10
8.96439e-09
3.77542e-09
-2.08245e-09
2.81787e-09
-4.51089e-09
4.03452e-09
-1.63114e-09
2.42419e-09
-4.82764e-09
5.12277e-09
-6.05176e-09
-4.02102e-10
-9.54749e-10
5.27296e-09
-4.2716e-09
2.94617e-09
5.10074e-09
-3.36635e-10
-6.9692e-10
-3.23805e-09
5.66531e-11
1.93455e-09
-3e-09
1.92526e-09
9.05141e-10
1.04693e-09
-6.42253e-09
-4.7631e-09
-6.95253e-10
-3.94704e-09
3.69894e-09
-6.17443e-09
-3.50499e-09
1.41012e-09
2.12671e-09
3.25863e-10
-4.86622e-09
2.41373e-09
2.8985e-09
-1.79939e-09
1.02759e-09
-4.29883e-09
4.7923e-09
-5.25659e-09
-7.92e-09
-1.59611e-09
-5.06531e-10
7.81917e-10
4.42908e-09
-1.67945e-08
1.15837e-08
3.07539e-09
7.67981e-09
-9.97317e-09
4.95648e-09
-2.88522e-09
-6.33858e-09
4.26731e-09
-8.53661e-09
4.07634e-09
-2.81222e-10
4.74155e-09
1.7312e-09
-5.31129e-09
-7.70961e-09
4.97345e-09
6.81256e-09
-2.16884e-09
-3.8096e-09
7.34246e-09
-4.52477e-09
-4.98655e-09
5.61063e-09
-7.97829e-10
2.52971e-09
-1.31782e-10
-4.23185e-09
7.43911e-09
9.76986e-09
-5.47246e-09
-3.60839e-09
-4.71421e-09
-8.47179e-09
4.18251e-09
1.04411e-09
-8.11188e-09
7.48332e-09
-5.0771e-09
1.77638e-09
-7.67634e-09
1.15513e-08
5.56267e-09
-1.02145e-08
4.37065e-09
6.35225e-09
-1.02138e-08
6.73317e-09
-9.83551e-09
1.10722e-08
7.67422e-09
-8.91093e-09
-2.54188e-11
1.33947e-09
-1.11495e-08
3.65654e-09
-1.00121e-08
6.43988e-09
-8.42345e-11
-9.36339e-09
3.91617e-09
9.10374e-09
4.69898e-09
6.9937e-09
-8.73378e-09
-2.95893e-09
-4.78024e-09
8.9772e-09
5.02039e-10
8.87094e-09
7.8057e-10
-1.06374e-09
-8.58774e-09
4.01367e-09
7.70458e-11
4.12765e-10
2.77945e-10
1.03816e-08
-1.12576e-08
-7.67801e-11
1.2115e-08
8.23415e-09
2.49619e-10
-8.50919e-09
7.67979e-09
9.67116e-10
8.40478e-10
-2.74897e-10
-1.05777e-08
6.44223e-10
-9.16711e-09
1.88443e-09
7.3669e-09
-2.81143e-09
-4.25996e-10
7.33426e-09
8.54539e-11
8.82915e-09
-9.15328e-09
6.033e-09
6.24634e-09
4.76338e-09
-1.70429e-08
1.05476e-08
7.37502e-09
-1.18897e-08
3.13145e-09
1.66916e-08
-1.02052e-08
1.94773e-08
-5.79828e-09
-4.7381e-09
1.87789e-08
-6.66588e-09
1.31634e-08
-1.16553e-08
-9.49399e-09
-6.81898e-09
1.57085e-08
6.04437e-10
1.24357e-08
6.34198e-09
6.75983e-09
-1.04797e-08
-2.62209e-09
-3.54732e-09
1.96913e-08
-3.7083e-09
3.27385e-09
1.3307e-09
-2.11543e-08
1.65497e-08
2.46588e-09
-1.3524e-08
1.43319e-08
-1.75287e-08
-5.85761e-09
1.47203e-09
2.19142e-08
-1.41187e-08
3.56663e-09
-6.9766e-09
8.74257e-09
1.10898e-08
-3.5506e-10
1.13155e-08
9.82304e-09
1.6199e-08
-4.23907e-09
1.034e-08
-4.06431e-09
-1.14737e-09
1.5054e-08
-4.70426e-09
9.93641e-09
2.18324e-08
-6.76935e-09
4.62832e-09
9.95414e-09
1.54058e-09
-9.25328e-09
5.50286e-09
6.16896e-09
-2.41846e-09
-1.00353e-08
7.3052e-09
-6.52306e-09
4.39556e-10
-7.59162e-09
-7.50777e-09
1.466e-08
-6.08626e-09
1.70993e-08
-5.51012e-09
1.53113e-08
-6.81448e-09
-8.05722e-09
-1.14016e-08
2.24245e-09
-1.41428e-09
1.05735e-08
1.32804e-08
-9.37056e-09
8.74402e-09
-9.242e-09
1.37785e-08
1.74293e-08
1.11292e-08
-1.31412e-08
-1.54172e-08
7.65606e-11
1.50121e-08
2.34064e-09
1.32213e-08
1.46026e-09
-1.46051e-08
-3.84132e-09
1.07994e-08
8.05405e-09
4.73006e-09
2.55778e-09
1.76014e-08
-8.14699e-09
3.76676e-09
3.6329e-09
1.79759e-08
-4.00751e-09
-4.60639e-09
1.98689e-08
-1.77161e-09
-1.34911e-08
-1.46798e-08
-2.41902e-09
1.24924e-08
1.91696e-08
-7.08455e-09
7.7839e-09
4.37034e-10
1.39952e-08
9.02174e-09
2.47234e-09
-6.76403e-09
-1.13846e-08
-4.39535e-09
1.40083e-08
-4.41997e-09
1.17183e-08
2.90376e-09
-1.02021e-08
1.56996e-08
-2.77857e-09
1.22373e-08
-4.14747e-09
1.30872e-08
1.28501e-08
-1.298e-09
-7.36257e-09
2.53148e-11
-1.20529e-10
7.45779e-09
1.47725e-08
-7.31762e-09
-6.74507e-09
-7.09838e-10
6.46348e-09
-6.11433e-09
-7.71168e-09
-3.61878e-09
-2.51965e-09
1.26019e-08
-5.46551e-09
-6.72154e-09
5.68541e-09
6.50164e-09
-4.88655e-09
-5.53641e-10
7.19621e-09
9.88739e-10
-1.42993e-08
9.56093e-09
-5.98346e-09
-6.63141e-09
-6.50625e-09
6.32012e-09
6.81755e-09
-1.06719e-09
-5.51724e-09
-4.69787e-11
7.65508e-09
-5.88884e-09
-6.65281e-09
-1.33652e-10
3.27296e-10
-1.29914e-10
9.36357e-09
9.23786e-10
-7.10272e-09
-1.2593e-08
7.69289e-09
1.21653e-08
-9.51138e-10
-5.9377e-09
-5.27648e-09
-2.83219e-09
3.44169e-09
1.15558e-08
1.57912e-08
-8.40245e-09
-8.33989e-09
1.07964e-08
2.16257e-09
4.69927e-09
-5.34057e-09
-5.2964e-09
-1.32427e-09
5.55437e-09
4.69182e-10
4.31111e-10
6.88779e-09
-8.17602e-09
8.57117e-10
-3.28117e-09
3.16886e-09
5.43428e-10
4.84434e-09
-2.01045e-09
3.56706e-09
-6.40094e-09
2.38891e-10
-9.61476e-10
-1.16693e-08
4.32785e-09
8.30288e-09
4.2414e-09
1.68491e-09
-6.06803e-09
3.0913e-09
7.37726e-09
-4.40051e-09
7.76981e-09
1.22625e-09
-2.22529e-09
4.17888e-09
-1.03561e-08
-9.57631e-09
9.4757e-10
-5.55653e-09
-6.54283e-09
2.49105e-10
-2.07572e-09
1.13279e-08
-8.2128e-09
-1.30522e-09
-1.8098e-09
8.69923e-10
-3.27869e-10
1.07859e-08
-7.40922e-10
-9.79844e-09
2.32661e-09
9.02997e-09
-1.19258e-08
2.15494e-09
1.77452e-10
1.03549e-08
-9.66242e-09
6.11292e-11
8.64104e-09
1.14976e-08
-6.64876e-09
-3.35929e-09
-1.4895e-09
-2.30712e-09
1.79151e-09
-1.14102e-08
-6.9359e-09
-2.3233e-10
7.34571e-09
3.90991e-09
-2.20047e-09
-1.18997e-08
1.01903e-08
8.31922e-10
-5.57845e-09
8.65646e-09
7.59574e-09
-1.38831e-09
-5.37547e-09
-5.15395e-09
5.81379e-09
7.03187e-09
-1.92198e-09
-6.49819e-09
1.55369e-09
3.24264e-10
8.06003e-09
-8.35279e-09
-1.62922e-09
5.89061e-09
-1.37641e-10
-6.84516e-09
6.67396e-09
-5.01298e-10
5.99119e-10
6.27738e-09
7.34263e-09
-5.30031e-09
-8.3197e-09
1.24329e-08
-3.24067e-09
-2.91484e-09
4.73027e-09
4.28934e-09
-4.95725e-09
-4.06236e-09
6.38719e-09
-2.18597e-09
5.29054e-10
-3.86583e-09
8.0349e-09
3.17356e-09
1.02227e-08
-1.65564e-09
4.67369e-09
3.57522e-09
-3.95957e-09
-1.27262e-09
5.73791e-09
2.08413e-10
3.70146e-09
7.24403e-10
-9.72618e-09
5.07845e-09
-4.61766e-09
4.90839e-09
2.06187e-10
6.4158e-09
-1.06486e-08
-1.40351e-09
5.63334e-09
-2.83301e-09
2.55225e-09
1.05035e-08
1.22918e-10
5.07897e-09
7.05337e-09
-9.13982e-10
-2.56416e-09
6.97078e-09
5.8205e-09
7.72902e-09
-3.56455e-09
3.24944e-09
2.15281e-09
-5.27933e-09
6.68173e-09
-1.83213e-09
5.87757e-11
7.23697e-11
1.02089e-08
9.45812e-09
-2.41497e-09
-3.1298e-09
9.52547e-09
-9.706e-09
3.31052e-09
-1.20431e-08
-4.25474e-10
9.33871e-09
6.37935e-09
-9.5294e-10
4.09911e-09
5.77998e-10
1.31919e-08
-7.39057e-09
3.04521e-09
-5.33317e-10
-1.45549e-08
1.55537e-09
-8.21615e-09
5.63683e-09
-2.19015e-09
-6.63762e-09
3.19092e-09
4.16412e-09
-7.27281e-09
8.74555e-09
-7.63007e-09
1.6276e-09
3.81228e-09
-5.34389e-09
1.0086e-08
-7.51261e-09
1.21576e-09
1.09423e-09
-9.25763e-09
-3.41517e-10
-9.20588e-10
7.6751e-09
-6.41296e-09
7.98227e-09
-6.76842e-09
4.47721e-09
-7.67813e-09
-3.43673e-09
-3.30822e-09
5.12621e-10
-7.50449e-09
-4.01217e-09
4.48184e-09
3.54729e-10
5.822e-09
-1.647e-08
4.50769e-09
6.14039e-09
-1.32132e-08
7.07697e-09
1.19582e-08
-5.87014e-09
-3.50855e-09
-7.09131e-09
1.79978e-08
-1.0729e-08
-1.31389e-08
-4.21649e-09
9.00106e-09
2.03439e-10
-9.87182e-09
1.50772e-08
-5.40879e-09
-6.87742e-09
-3.6481e-09
-5.37888e-09
-6.9427e-09
2.44976e-09
-4.28479e-10
-1.18278e-08
8.82744e-09
-1.14724e-08
7.70468e-09
-5.05968e-09
1.02337e-08
-1.38682e-09
-1.94093e-11
-4.58961e-09
-1.07646e-08
-6.73447e-09
1.17772e-10
-1.36064e-10
-3.20573e-10
-4.13809e-09
1.15356e-08
-5.93767e-09
-3.76426e-09
9.38136e-09
-9.14165e-09
-7.18975e-09
1.10123e-08
-7.33108e-09
7.38612e-09
3.47458e-09
-1.22078e-08
5.80456e-09
1.83495e-10
1.71664e-09
9.41481e-09
6.62345e-09
8.10997e-09
-2.45941e-09
3.31308e-09
-8.57189e-09
5.95638e-09
-6.97517e-10
6.56113e-09
2.05417e-09
9.63763e-10
-9.95529e-09
1.53399e-08
-7.3921e-09
1.37727e-08
-5.97094e-09
9.59692e-09
-8.24607e-10
-2.80135e-09
9.38927e-09
-3.25798e-09
-1.21022e-08
-8.49318e-09
1.01352e-08
7.95485e-09
6.41591e-09
-5.51979e-09
-5.07339e-09
1.534e-09
-4.85496e-09
-2.88562e-09
3.87106e-09
-1.1984e-08
7.26573e-09
-8.47166e-09
7.26934e-09
-9.17525e-09
6.25612e-11
3.69193e-09
5.42079e-09
-5.42768e-09
-3.63816e-09
-1.09374e-10
-7.97105e-09
1.22148e-08
-8.67898e-09
4.43522e-09
-1.1961e-09
7.16284e-09
-1.39378e-08
4.54372e-09
4.10188e-09
-9.84168e-09
2.03193e-09
-3.62077e-09
6.13249e-09
-6.79737e-09
2.66173e-09
4.19821e-09
-8.96119e-09
-3.26384e-09
-8.14692e-09
4.50924e-09
7.32959e-09
-9.15668e-09