/*--------------------------------*- C++ -*----------------------------------*\
| =========                 |                                                 |
| \\      /  F ield         | OpenFOAM: The Open Source CFD Toolbox           |
|  \\    /   O peration     | Version:  v1612+                                |
|   \\  /    A nd           | Web:      www.OpenFOAM.com                      |
|    \\/     M anipulation  |                                                 |
\*---------------------------------------------------------------------------*/
FoamFile
{
    version     2.0;
    format      ascii;
    class       surfaceScalarField;
    location    "50";
    object      phi;
}
// * * * * * * * * * * * * * * * * * * * * * * * * * * * * * * * * * * * * * //

dimensions      [0 3 -1 0 0 0 0];

internalField   nonuniform List<scalar> 
37865
(
1.14321e-09
-1.5285e-09
6.62716e-09
-6.24184e-09
-3.84189e-09
-3.76104e-09
2.16149e-09
5.44127e-09
-8.63479e-09
-1.08957e-09
5.88258e-09
-4.73044e-09
-8.00253e-10
-1.01533e-08
1.5684e-08
-1.96593e-08
-6.6001e-09
2.15292e-08
-1.55667e-08
1.73154e-10
-4.26567e-09
5.17579e-09
-6.86447e-09
-2.0723e-09
-7.25045e-09
3.79149e-09
-6.80596e-09
-2.73168e-09
2.67314e-09
-5.33963e-09
3.19835e-09
-4.66462e-09
-3.32584e-09
4.68703e-09
-6.59171e-09
-3.1313e-09
3.12303e-09
-1.1023e-08
-1.11354e-08
-5.13332e-09
2.45361e-09
-5.19561e-11
-7.60098e-09
-2.87193e-09
-1.3751e-09
-2.67693e-09
-9.57764e-09
4.28151e-09
1.97031e-09
-8.72218e-09
4.50136e-09
-4.62438e-09
-2.49965e-09
-6.66599e-09
-3.84165e-09
-5.15186e-10
-5.85849e-09
-4.23873e-09
-3.36866e-09
-9.15575e-09
7.98005e-09
-3.11941e-09
-4.10596e-09
-7.54698e-10
7.70592e-09
9.75354e-09
-9.47939e-09
-1.17959e-08
2.8055e-09
7.90421e-09
1.08623e-09
-7.44626e-09
-7.46904e-09
1.27801e-09
9.23349e-09
-2.72965e-09
-1.18109e-08
7.0943e-09
-4.13429e-09
5.28348e-10
-9.68397e-10
4.57443e-09
-6.87192e-09
-2.76978e-09
1.09198e-08
-3.43009e-09
-7.86022e-09
4.41849e-09
9.84387e-09
-1.68728e-08
3.59887e-09
1.26664e-08
-5.59227e-09
3.09175e-09
-9.95566e-09
-6.22737e-09
-1.10446e-09
-7.90449e-09
2.47493e-09
-1.14432e-08
-1.10401e-08
-5.85733e-09
1.78115e-09
1.10196e-08
-6.94328e-09
1.81138e-10
1.44493e-08
-2.04877e-08
-1.22073e-08
-7.84499e-09
2.46533e-09
1.7587e-08
-5.7885e-09
-3.66709e-09
-2.75166e-09
4.51731e-09
1.13651e-08
-1.57012e-08
8.88595e-09
-2.58744e-09
-5.51716e-09
1.15035e-08
5.03336e-09
1.308e-08
-4.14771e-09
6.8914e-09
-1.59058e-08
2.03795e-08
2.55831e-08
-5.61167e-09
-1.1488e-08
-8.28957e-09
1.19326e-08
-1.09229e-08
-6.35349e-09
1.43884e-08
-6.55194e-09
-5.70817e-09
2.25619e-08
2.85587e-08
-8.68381e-09
9.57472e-09
-1.16117e-08
4.57211e-09
-3.28691e-09
-6.22189e-11
4.64643e-09
1.69191e-11
-4.60109e-09
2.54179e-09
-2.6538e-09
4.98205e-11
3.07643e-09
-6.03548e-09
-4.95748e-09
7.91662e-09
-7.89368e-10
-3.3419e-09
7.20771e-09
3.18913e-09
-5.13477e-10
1.97084e-09
-2.80374e-09
5.20352e-09
4.08735e-09
-9.17542e-09
-9.47362e-10
-2.41035e-09
3.15582e-09
-2.86337e-10
2.44212e-11
2.57897e-09
2.70176e-09
-3.61567e-09
-1.66501e-09
-1.17701e-10
-8.14063e-09
2.66969e-09
-2.77484e-09
-3.69881e-09
-8.17515e-09
-2.74031e-09
9.18896e-09
-1.50607e-08
-8.97839e-09
1.15278e-08
-7.17374e-09
-1.87758e-09
-5.60746e-09
4.98541e-09
1.98613e-09
-3.91567e-09
1.62412e-09
8.47521e-10
-4.85476e-10
2.097e-09
5.30906e-09
-5.43573e-09
6.33117e-10
-3.22388e-11
4.34442e-10
9.69385e-09
-2.18825e-09
4.71968e-09
6.89873e-11
-2.72677e-09
-4.30886e-09
2.3349e-09
4.7007e-09
-1.7985e-09
-8.46953e-10
-8.13781e-11
-5.21418e-09
-1.3556e-09
2.26086e-09
-4.05234e-09
-2.96036e-09
9.94033e-09
-3.08264e-09
-1.08674e-08
4.00968e-09
5.6745e-09
2.91022e-09
3.77841e-09
9.0563e-10
-3.04308e-09
-1.641e-09
-2.88768e-09
1.57048e-09
5.09562e-09
-1.87903e-09
-1.03031e-10
3.32854e-09
8.41922e-09
-6.07331e-09
7.23391e-09
3.85337e-10
-7.52035e-09
-2.53166e-09
-1.94369e-10
-2.0003e-09
1.0051e-10
-1.14335e-09
-4.14661e-09
4.13536e-09
-1.14642e-09
5.68652e-09
-8.67558e-09
2.87488e-09
1.06766e-08
-9.41618e-09
8.81002e-10
2.73831e-09
-1.23791e-08
8.75962e-09
3.17359e-09
-1.0032e-08
5.71199e-09
6.69257e-09
-1.15826e-08
8.06359e-09
-1.27693e-08
3.48358e-10
1.91135e-08
1.33799e-08
-1.15517e-08
-1.34109e-08
-5.44412e-09
6.05466e-09
-1.0281e-08
2.56458e-09
2.27211e-09
-3.33729e-09
1.36018e-09
-8.30393e-09
1.01504e-08
-1.26067e-08
7.32295e-09
-1.06496e-09
3.89224e-09
3.01514e-09
-1.03089e-08
-6.07051e-09
9.29372e-09
-7.17641e-09
3.817e-09
-1.47285e-08
-1.95023e-08
1.7463e-09
3.24846e-08
-1.88872e-08
-5.85801e-09
1.00168e-08
2.40171e-09
1.1684e-08
4.26045e-09
-1.83461e-08
1.5494e-08
-2.09026e-08
7.81037e-09
-2.55068e-08
-5.91253e-09
1.19171e-08
-2.48332e-08
-1.95608e-08
-5.89704e-09
-7.38986e-09
1.50332e-08
-7.81657e-09
1.67109e-08
6.59977e-09
6.77444e-09
-2.90691e-09
9.04431e-09
1.75412e-09
-6.77439e-09
1.81152e-08
-9.80392e-09
-1.53679e-09
1.33856e-08
-1.58995e-08
6.29927e-09
-1.49402e-08
2.78304e-09
-4.92696e-09
5.32925e-09
-8.07393e-09
9.72845e-09
-8.26273e-09
1.14377e-08
7.22627e-09
-2.10335e-09
-1.29642e-08
-3.66173e-11
1.03654e-09
-8.44385e-09
-6.36446e-09
1.27084e-08
2.09986e-09
-5.7252e-09
-1.5777e-08
1.30584e-08
2.53007e-09
-4.60539e-09
-4.28917e-09
-4.44377e-09
1.21202e-08
5.03199e-09
1.30645e-08
-7.12972e-09
-3.40468e-09
9.42035e-10
7.67867e-09
1.62941e-08
-1.80487e-08
-8.40645e-09
1.01611e-08
-5.73137e-09
1.92921e-08
2.73338e-09
-4.51095e-09
1.51899e-08
-1.64103e-08
6.07659e-09
-9.64549e-09
1.13313e-08
-1.84021e-08
3.44545e-09
3.62539e-09
-7.46077e-09
-2.30986e-09
-5.55432e-09
1.5325e-08
-1.11621e-08
-1.00516e-08
1.37529e-08
-9.02733e-09
-1.75373e-08
3.03607e-09
2.4322e-08
-9.82076e-09
3.30829e-09
-1.13548e-08
-9.49075e-09
-1.03277e-08
-6.84336e-09
2.04794e-08
-1.19558e-08
-8.74783e-09
1.60327e-08
4.67102e-09
-1.12275e-08
-1.1056e-08
8.90766e-09
1.47617e-09
1.66951e-08
-2.70788e-08
2.21104e-08
5.78034e-09
-1.89831e-08
5.63233e-09
-1.53836e-08
2.47268e-09
-5.58818e-09
8.01012e-09
-2.66989e-09
1.81827e-08
1.19378e-08
-1.38282e-08
-6.31552e-09
2.31799e-08
5.50645e-09
5.99703e-09
4.5292e-09
1.64474e-08
-8.19443e-09
-3.81415e-09
8.16855e-09
-1.11529e-08
1.03438e-08
1.48039e-09
-5.49213e-09
-8.68137e-09
1.02658e-08
3.90774e-09
-8.344e-09
5.65745e-09
-2.80559e-09
1.94326e-09
-2.48928e-09
-8.13526e-09
-7.5148e-10
-5.64924e-09
4.00042e-09
3.50582e-09
-4.256e-09
-3.25022e-09
-1.53828e-10
1.58682e-09
2.56729e-09
1.92624e-09
3.57739e-09
2.49903e-09
9.69302e-09
-3.9557e-09
1.59276e-09
3.94975e-09
-5.22774e-10
7.28988e-11
4.85628e-10
5.42905e-09
1.23888e-09
-7.15335e-09
1.23617e-09
3.69178e-09
-4.44223e-09
-3.7713e-09
-3.55307e-09
4.29181e-09
-4.25406e-09
3.51537e-09
-4.06662e-09
-9.20067e-12
4.90005e-10
5.44075e-09
-5.0157e-10
1.15181e-10
-2.62184e-10
6.14674e-09
8.13208e-09
-9.38243e-09
9.06155e-11
1.09612e-09
-6.62707e-09
8.86397e-09
1.59567e-09
-7.25914e-10
4.42093e-09
-4.35527e-09
6.60135e-10
6.83835e-09
1.93774e-10
2.81924e-09
-3.72461e-09
7.74363e-09
-1.30742e-09
8.54751e-09
-1.91316e-09
2.34664e-09
-7.16656e-10
2.11666e-09
8.47102e-10
-1.56851e-10
-8.94914e-10
3.89413e-09
1.28849e-09
1.67798e-09
-1.24132e-10
2.3314e-09
8.45996e-10
-2.56875e-09
3.59269e-09
-4.36769e-11
6.94408e-09
-8.2726e-09
1.84346e-09
-5.14983e-10
-2.84724e-10
7.5049e-09
-2.76124e-10
4.63319e-09
1.71186e-09
-9.9945e-10
-5.34562e-09
3.29883e-09
1.31061e-09
2.36877e-11
-4.34734e-09
-7.44191e-09
5.54014e-09
6.24899e-09
-2.56888e-09
1.46956e-09
-3.24816e-09
-1.19418e-09
-8.81663e-09
5.48367e-10
-4.82262e-09
-5.41061e-10
4.81526e-09
3.78778e-09
5.93768e-11
-3.6697e-10
5.35287e-09
-5.27066e-09
-8.19745e-10
-5.98334e-09
6.60099e-09
-5.70891e-09
1.46591e-09
6.44567e-09
-7.01627e-09
3.60033e-09
-1.79557e-10
6.41232e-09
-3.24949e-09
-7.75576e-09
-1.77611e-10
-2.62993e-10
5.96128e-09
2.6972e-09
-1.1908e-08
-8.60268e-10
-5.14504e-09
4.9573e-09
-4.22936e-09
9.93662e-10
-1.72155e-09
-4.19402e-09
4.80824e-09
4.34311e-09
3.61815e-09
4.82604e-09
-3.90424e-09
7.89856e-10
3.46736e-09
-6.39027e-10
2.75885e-09
-3.01817e-09
-3.97001e-09
-6.453e-10
7.18308e-10
-6.61811e-10
4.76961e-09
4.14621e-09
3.94872e-11
-8.89307e-09
-4.95412e-10
1.30783e-08
-3.68984e-09
-8.16332e-09
1.28631e-09
-2.01602e-09
-1.75111e-09
6.06396e-09
1.89257e-09
3.34382e-09
-9.48706e-10
-8.03563e-09
-4.34607e-09
1.03069e-08
2.07486e-09
-5.75328e-09
-1.41635e-09
8.50533e-09
-1.95221e-08
-1.41287e-08
2.51456e-08
1.37313e-08
-1.26338e-08
-2.11218e-08
2.00244e-08
-4.69159e-09
1.49758e-08
-1.77879e-09
-9.0093e-09
5.2558e-09
-2.38688e-08
-4.88659e-09
5.98001e-09
-1.01027e-08
1.13124e-08
-1.08409e-08
-5.16306e-09
1.43437e-08
1.4798e-08
-1.78293e-08
9.74798e-09
3.68094e-09
9.14897e-10
-1.39607e-08
1.27351e-08
1.09737e-08
3.47837e-09
-2.64097e-09
5.40409e-09
4.68515e-09
1.56633e-08
1.74896e-09
-7.51074e-09
4.2257e-09
1.37173e-09
8.99314e-09
7.20064e-11
-8.53452e-09
-5.30543e-10
5.80202e-09
-4.58844e-10
3.65006e-09
-8.85887e-09
-6.73888e-09
3.51403e-10
-9.57533e-09
6.51855e-09
-6.28766e-09
3.92661e-09
1.90235e-09
-2.19354e-10
-5.99625e-09
-1.11217e-08
-5.60361e-10
4.94324e-09
-1.22738e-08
-8.42318e-09
-2.07281e-09
4.04056e-09
3.99038e-09
-1.81369e-10
-4.02833e-09
2.20127e-09
-2.8364e-10
2.13667e-09
5.72542e-09
-4.98608e-09
-2.87594e-09
4.40585e-09
-6.78995e-11
-2.47761e-09
2.39041e-09
2.68747e-09
-5.49041e-09
3.22998e-10
-2.87683e-08
9.43514e-09
-1.16521e-09
2.04982e-08
-1.86268e-08
1.94846e-09
-1.209e-08
2.06641e-08
-1.21938e-08
-2.70971e-08
3.38594e-08
-1.14535e-08
-1.74171e-09
9.02375e-09
3.42707e-08
-2.34918e-08
6.35651e-09
1.597e-08
-8.3249e-09
-1.32185e-08
1.21964e-08
1.52769e-09
-2.46125e-08
1.08884e-08
1.23148e-08
-1.08009e-08
1.06824e-08
-2.67214e-10
2.52345e-08
-1.59436e-08
5.32602e-10
-1.30494e-08
-2.54175e-09
1.50585e-08
1.4719e-08
-1.87157e-09
5.67498e-09
-1.14736e-08
1.21551e-08
-2.37155e-08
8.46598e-09
3.75432e-09
2.49866e-09
-1.02216e-08
1.56293e-08
5.34914e-09
-1.03036e-09
-1.57924e-08
3.59352e-09
1.14396e-10
1.23005e-08
-5.61867e-09
-6.79628e-09
2.02995e-08
-1.13598e-08
-8.82533e-09
1.56772e-08
1.7188e-10
-1.05085e-08
-5.34062e-09
4.24404e-09
7.49098e-09
3.94221e-09
1.38453e-08
-4.66377e-09
1.1118e-08
1.44658e-08
1.16799e-08
5.09907e-09
-1.42105e-08
-2.24834e-09
1.15212e-08
5.33467e-09
-1.02413e-08
-6.61457e-09
-1.52736e-08
9.94831e-09
9.56932e-09
-1.00027e-08
8.91658e-09
6.47355e-09
-7.89917e-09
-2.80112e-09
1.10769e-08
6.19004e-09
-1.1611e-08
-3.68637e-09
1.52088e-08
8.85412e-11
-9.23349e-09
7.57081e-09
3.12119e-09
5.59882e-09
8.35141e-09
6.59736e-09
1.39722e-08
-6.23255e-10
-1.99463e-08
1.70459e-08
4.44985e-09
-1.48984e-08
-5.77696e-09
1.75526e-08
2.19655e-09
1.65822e-08
-5.31321e-09
-1.73311e-09
1.28897e-08
-6.70677e-09
5.01511e-09
6.99234e-09
3.02283e-09
-1.50303e-08
-2.86965e-08
-1.04196e-08
3.02475e-08
8.86859e-09
-4.83297e-09
-7.24815e-09
-2.42711e-09
1.45082e-08
-1.59768e-08
-2.95584e-09
2.18518e-08
-2.31371e-09
-7.59963e-09
1.01379e-08
2.47679e-09
-3.34608e-09
7.86487e-09
-6.25188e-09
7.82356e-09
-1.17929e-08
4.90236e-09
1.19948e-08
-9.03231e-09
9.0502e-09
-2.63492e-09
-1.51294e-09
1.34454e-08
-2.0595e-09
2.21094e-09
2.93037e-09
-6.03915e-09
8.97861e-10
2.75364e-09
9.47078e-09
-1.00135e-08
-5.77524e-09
-1.02957e-09
9.55854e-09
-2.93494e-09
3.84885e-09
4.59797e-09
-5.51176e-09
7.73262e-10
-3.44433e-09
-2.63832e-10
2.32394e-09
4.27034e-09
-3.66393e-09
7.51108e-10
1.86825e-09
6.85146e-09
3.00819e-09
8.89447e-11
3.64782e-09
1.37358e-09
9.63525e-10
1.9495e-09
-4.40873e-09
1.4964e-09
3.73116e-09
1.08125e-09
-3.05447e-10
3.58126e-10
3.59508e-09
2.90986e-09
-2.0721e-10
3.99997e-09
-6.18542e-09
1.30971e-08
-1.09116e-08
-2.0317e-09
1.35318e-08
-7.50018e-09
5.69365e-09
1.9707e-09
1.50149e-09
-9.16582e-09
3.34447e-09
-1.98682e-09
4.336e-09
-6.28824e-09
-5.21914e-09
9.47566e-09
2.64172e-09
-9.74134e-09
9.07031e-09
-3.09946e-09
1.5568e-10
-7.93073e-09
1.02358e-08
-5.40459e-09
2.21728e-09
-8.6465e-09
-8.89663e-10
5.90635e-09
-1.28811e-08
5.80599e-09
-8.02207e-09
-1.87314e-09
-6.92255e-10
2.53037e-09
3.51684e-11
-2.03473e-09
-1.88545e-09
2.45055e-09
1.46965e-09
-1.08667e-09
-9.23349e-10
-2.46448e-11
-2.85739e-09
-1.02286e-10
6.90182e-09
-5.93197e-09
-3.61851e-09
2.64883e-09
-4.03407e-09
2.61397e-11
2.12261e-09
-3.64276e-09
-1.3147e-09
-3.30966e-09
9.65359e-09
2.08682e-09
-8.43068e-09
3.61835e-09
1.47831e-09
-1.34753e-10
-4.20082e-09
3.56974e-10
-2.91684e-09
4.03834e-09
1.86853e-09
-1.82313e-09
-5.97723e-09
-3.61114e-09
5.83674e-09
-5.60063e-09
4.34239e-08
-4.07873e-08
4.31973e-09
-6.95647e-09
1.11437e-08
8.8776e-09
2.34025e-08
2.70246e-08
2.03427e-08
-3.83008e-08
-9.06664e-09
1.07814e-08
2.73869e-08
1.14117e-08
2.40733e-08
-2.66074e-08
-1.81403e-09
-1.51797e-08
2.77751e-08
-1.48094e-08
2.44071e-08
2.6413e-09
-1.87864e-08
2.333e-08
-7.18496e-09
-1.69769e-08
2.46636e-08
-5.04545e-09
2.03968e-09
-2.37903e-08
2.96425e-09
-2.02036e-08
5.26638e-09
1.25821e-08
-1.94738e-08
-7.91786e-09
1.19389e-08
-1.45366e-08
-1.33289e-08
1.85187e-08
3.41216e-09
6.58897e-09
4.211e-09
-4.76509e-09
4.26232e-09
-3.70821e-09
-7.77259e-10
4.46374e-09
5.24531e-10
5.77782e-09
3.44463e-10
-7.83809e-09
1.71584e-09
4.68165e-09
3.18912e-10
1.72834e-09
-6.14896e-09
-2.47716e-09
4.25418e-09
2.68673e-09
1.75351e-09
3.16643e-11
-1.31828e-09
1.51826e-09
-3.7508e-09
3.55081e-09
4.22934e-10
2.51297e-09
-1.0772e-10
-1.27676e-09
-2.7941e-09
4.17857e-09
3.96031e-09
-2.54976e-09
4.49861e-09
3.43725e-09
-3.25421e-09
-8.61263e-09
5.53796e-09
6.99423e-09
-3.91954e-09
1.88311e-10
-6.18418e-09
-2.61674e-09
5.18311e-09
-3.26642e-09
-2.15589e-09
1.58614e-10
3.64478e-09
2.37843e-09
3.6545e-10
-1.88472e-09
4.91196e-09
2.0878e-08
-6.12899e-09
-5.22267e-09
-9.52639e-09
2.52725e-09
9.18846e-09
9.16217e-09
-5.88485e-09
1.14975e-08
-5.92932e-09
3.16536e-10
-7.04781e-09
-4.96604e-09
7.06642e-09
6.95822e-09
-1.28899e-08
7.00589e-09
1.50724e-08
-1.563e-08
-8.28188e-10
3.56827e-09
-1.22079e-08
-8.64486e-09
6.17324e-09
-2.61399e-09
-1.06071e-08
4.01016e-09
-3.76625e-09
-5.52534e-09
1.9623e-09
1.06293e-08
-9.53292e-09
-3.03657e-09
7.04413e-09
-6.58051e-10
-4.86475e-09
-5.27144e-09
1.42396e-08
7.72775e-09
1.72318e-09
-1.02791e-08
-7.6647e-09
4.29108e-10
4.19897e-09
-4.13433e-09
-4.18843e-09
-3.75216e-09
6.20849e-09
4.12346e-09
-1.07733e-08
4.03573e-09
4.89786e-09
-1.87098e-09
1.09654e-09
7.72123e-09
-6.95769e-09
4.39817e-09
-1.80003e-09
-4.3622e-09
1.59687e-09
4.56541e-09
-6.66296e-09
1.9326e-10
4.66968e-09
1.98529e-09
-5.95331e-09
-2.69495e-09
-2.29279e-09
-8.40767e-11
7.3346e-10
-2.30491e-09
9.20461e-09
-7.63316e-09
-4.84071e-09
7.17107e-09
5.50219e-09
-9.48157e-10
-5.49322e-09
9.39221e-10
5.34233e-09
-4.68083e-09
-8.5249e-09
6.41329e-09
9.17212e-11
-3.01565e-09
-3.02935e-09
2.27901e-09
-4.1722e-09
-3.99468e-10
-4.31929e-09
-4.11391e-09
-8.22378e-09
6.08459e-09
-2.18004e-09
-2.63089e-09
-6.4642e-09
4.50457e-09
4.59061e-09
-4.66688e-09
1.28459e-09
7.51489e-10
4.15454e-09
4.97589e-10
-3.09321e-10
2.89059e-09
1.39474e-09
-1.3077e-10
-1.00648e-08
1.3583e-09
6.7708e-09
1.9357e-09
-2.16593e-10
-3.30027e-10
-9.51816e-09
6.65665e-09
-6.76409e-09
5.98304e-09
2.13938e-09
7.89651e-09
-4.7139e-09
-7.84949e-09
-1.06599e-10
1.53896e-09
3.63084e-09
5.44356e-10
-1.12363e-08
4.55686e-09
1.78826e-08
-1.12031e-08
-9.48592e-10
-3.51688e-09
-4.35738e-10
-7.97831e-09
8.08403e-09
-3.04607e-09
4.46571e-09
-2.48708e-11
-2.25922e-09
1.13207e-08
6.09805e-09
-4.72641e-09
1.8321e-09
4.60718e-09
-3.41213e-10
2.71139e-09
5.62044e-09
2.98884e-09
-1.08557e-09
1.92175e-09
-5.7816e-09
4.94538e-09
-1.09387e-09
-3.72962e-09
4.76279e-09
6.06978e-11
4.6348e-09
-1.06551e-08
1.08908e-09
4.93122e-09
-4.05533e-09
3.09046e-09
-1.2899e-10
8.08854e-09
-5.47011e-09
2.01636e-09
1.3298e-09
5.67318e-09
-3.42539e-09
-8.05889e-10
6.15305e-09
3.43878e-09
2.93182e-09
-3.4043e-09
-2.96631e-09
-7.02479e-10
8.59285e-11
4.03146e-09
-2.97142e-09
3.19233e-09
-4.25237e-09
3.42642e-09
-9.74381e-11
-4.06785e-09
-1.67839e-09
8.67804e-09
-3.44695e-09
3.11202e-09
-6.13495e-09
6.65885e-09
7.80201e-11
-6.45372e-09
-3.35578e-09
3.33528e-09
7.81321e-09
-1.15792e-08
-1.70419e-09
-6.90876e-09
8.58706e-09
-1.12033e-08
4.17214e-09
3.67541e-09
-2.89246e-09
-5.11848e-09
-6.43428e-09
-9.2127e-09
-1.03117e-08
7.57518e-09
-5.34389e-09
-7.8603e-09
-1.17002e-08
1.57073e-08
1.40121e-08
-6.54513e-09
-2.31743e-08
1.8422e-08
-4.07865e-09
1.36393e-09
-1.54894e-08
2.0717e-08
1.31945e-08
7.96042e-09
-9.43771e-09
7.04517e-09
-2.92923e-08
1.5702e-08
-9.22902e-09
2.22561e-08
-5.06666e-09
7.28595e-09
-2.42969e-08
1.6708e-08
3.03068e-10
-2.03515e-08
1.88411e-08
8.79632e-09
2.0011e-08
-2.21948e-08
1.45219e-08
-1.88077e-08
-7.79204e-09
1.96245e-09
-3.04034e-09
6.30318e-09
1.74542e-08
6.57311e-09
1.26427e-08
7.10602e-09
1.61751e-08
-5.37122e-10
2.64843e-08
1.46987e-08
-3.11788e-09
-1.93728e-08
2.04648e-08
2.34967e-08
-2.76607e-09
-1.5458e-08
-5.2726e-09
1.13462e-08
6.42521e-09
-6.59683e-09
2.74588e-09
1.51972e-08
-2.50529e-08
1.52823e-09
1.69278e-08
-3.52228e-08
-2.59209e-08
3.60908e-08
-2.7372e-08
-1.06168e-08
1.08981e-08
4.70673e-09
-1.32736e-09
1.08165e-08
-1.04952e-08
6.10386e-09
-5.44217e-10
1.41066e-08
2.49165e-09
-4.74055e-09
-1.32091e-08
2.43897e-08
-3.2779e-08
-1.89826e-08
-4.93673e-09
3.40548e-09
1.48276e-08
-1.43782e-09
-3.78106e-09
1.80662e-08
-2.58194e-09
1.32374e-08
5.76334e-09
1.05476e-08
-3.07358e-09
1.59708e-08
-1.29438e-08
2.73637e-09
-4.16109e-09
-1.47989e-08
1.84157e-08
1.33379e-08
6.22185e-09
-1.88946e-09
1.85676e-10
1.97064e-09
2.09018e-09
8.21063e-09
-2.39239e-08
1.3623e-08
7.16438e-09
-2.03345e-08
1.52603e-08
1.6779e-09
-1.65421e-08
2.30748e-08
-1.45896e-08
2.34319e-08
2.96165e-09
-3.54637e-08
1.10565e-08
2.14456e-08
-9.09314e-09
3.32046e-09
-1.81511e-08
2.0461e-08
-2.37481e-08
1.60964e-08
8.87028e-09
-1.20582e-08
-8.96027e-09
2.95557e-08
-8.53722e-09
-1.99119e-08
-2.76101e-08
-1.00686e-08
-2.20045e-08
2.26373e-09
-3.01883e-08
1.7856e-08
-2.97382e-08
-1.3361e-08
-8.69018e-09
1.14933e-08
1.05578e-08
-1.02176e-08
3.67277e-10
-3.51067e-09
-9.47402e-10
-8.27905e-09
5.36235e-10
-1.06417e-08
-5.23262e-10
-1.17669e-08
5.90256e-09
1.73576e-08
-8.5631e-09
-2.83649e-09
-1.957e-09
-3.09591e-09
-5.58883e-09
-1.62962e-08
2.66811e-09
5.34901e-09
-7.17821e-09
-1.1075e-08
-1.22684e-08
-1.5311e-08
5.95497e-09
2.16244e-08
-1.56693e-08
6.06898e-09
-1.45361e-08
4.08604e-09
1.88699e-09
-8.71183e-09
-8.92014e-09
2.43195e-08
-1.19674e-08
-1.75638e-08
5.21171e-09
2.08692e-08
7.53633e-09
8.38458e-09
-1.85557e-08
-5.49821e-09
-1.19719e-08
-2.06367e-09
-1.86155e-08
9.41014e-09
2.33565e-08
-1.18974e-08
2.12677e-08
-7.5235e-09
-1.82104e-08
-2.8866e-08
-3.30949e-09
-1.42641e-08
-2.61125e-08
1.15106e-08
-2.38512e-08
5.67787e-09
7.77455e-10
7.68408e-09
-7.02525e-09
7.7789e-09
1.64595e-08
2.8622e-09
2.10956e-08
8.60104e-09
1.08581e-08
5.23217e-09
5.81087e-09
8.82785e-09
2.07016e-08
2.02227e-09
1.43577e-08
6.0517e-09
7.63315e-09
-3.71893e-09
2.4895e-08
-9.3049e-09
9.54909e-09
-2.51393e-08
6.34544e-09
1.32072e-08
5.34233e-09
8.22291e-09
2.08535e-09
-1.96132e-08
1.51752e-08
6.70729e-09
-1.36596e-08
-1.50784e-08
7.7495e-09
2.82748e-09
-8.35678e-09
-6.1378e-09
-6.98793e-09
1.12307e-08
2.68798e-11
-1.13309e-08
-6.22942e-09
-9.55523e-09
-2.79422e-09
-5.78881e-09
-6.93829e-09
-1.26607e-08
-1.78291e-09
8.79434e-09
1.38382e-08
2.13502e-09
2.4499e-09
1.0187e-08
3.10211e-09
5.49131e-10
-2.34937e-10
-7.59665e-10
1.11816e-08
-1.17027e-09
-1.17253e-08
-1.4671e-08
3.98146e-09
1.37917e-08
1.21115e-08
1.40733e-08
-1.1863e-08
-3.64808e-09
4.04861e-09
-1.29815e-08
-9.55096e-09
6.63298e-09
-1.25008e-09
-1.15111e-08
-2.20286e-10
8.49963e-09
-9.21922e-09
-5.30426e-10
-5.46115e-09
6.74746e-09
7.21336e-09
2.25428e-09
-4.00718e-09
-9.75806e-09
-1.02653e-08
1.02902e-08
-7.86617e-10
7.61886e-10
4.51391e-09
-3.76418e-09
-1.10149e-08
1.97434e-08
-1.29752e-08
1.20841e-09
8.98414e-09
5.3221e-09
-6.24699e-09
-8.29427e-09
-6.67564e-11
-7.22364e-11
1.46002e-08
-1.21978e-09
-1.1381e-09
-9.11603e-09
5.3502e-09
-1.02524e-08
6.05035e-09
5.44829e-09
-7.38527e-09
6.06652e-09
5.32185e-10
-7.52477e-09
5.48972e-09
6.61327e-09
-5.61826e-09
5.07155e-09
6.8913e-09
1.47144e-08
-2.84322e-09
2.4946e-09
1.14374e-08
-7.04063e-09
8.68574e-09
-2.62619e-08
-7.10748e-09
2.46837e-08
2.20583e-08
-1.08779e-08
3.45993e-09
1.43952e-08
-3.14071e-09
1.37079e-08
1.18936e-09
2.72274e-09
7.64032e-09
1.16952e-08
-1.26768e-08
-8.65045e-10
4.54936e-09
8.99247e-09
-1.81426e-08
-1.59459e-08
2.14118e-08
9.46355e-09
6.96713e-09
-8.53874e-09
-3.00492e-09
2.19344e-08
-1.03907e-08
9.81131e-09
-9.75399e-09
-8.59607e-09
8.21695e-09
1.46756e-08
-4.4136e-09
3.43006e-09
6.23056e-10
3.60376e-10
-7.70781e-09
2.38062e-09
9.13572e-10
-1.16528e-09
3.23079e-09
1.36448e-09
2.02615e-09
5.89562e-09
-3.85102e-09
-4.0708e-09
5.83238e-09
3.80575e-11
-7.03576e-09
-2.64371e-09
7.9006e-09
-5.44458e-09
8.63324e-09
-1.8241e-09
4.59248e-10
-4.07977e-09
1.07897e-08
6.97901e-09
-2.87485e-09
-1.4894e-08
1.14422e-08
1.4095e-10
-7.93462e-10
1.11873e-08
7.30105e-09
-7.04609e-09
-1.06938e-08
1.30717e-08
8.80938e-09
8.76448e-10
-4.59123e-09
7.14922e-09
-4.18748e-09
6.49015e-09
-9.45192e-09
7.68441e-09
-3.94223e-10
4.48472e-09
-1.15471e-08
2.06921e-09
1.02825e-08
7.20037e-10
1.54498e-09
7.82532e-09
-4.07017e-09
-2.71092e-09
7.65752e-09
1.16094e-09
7.06969e-09
-5.46205e-10
-5.7559e-09
6.22688e-09
6.89998e-10
1.53423e-09
-7.99971e-10
4.20932e-09
-3.79475e-09
-2.31945e-10
-9.37579e-10
7.39643e-09
8.38275e-09
5.86946e-09
-1.25893e-10
6.44071e-09
-1.50883e-09
-2.14135e-09
3.07101e-11
2.34515e-09
-1.35283e-09
7.37827e-09
-3.19202e-09
1.4841e-08
-8.40715e-09
6.6985e-09
1.60206e-09
-2.42639e-09
-3.6356e-09
-7.86757e-09
1.28147e-08
-1.66691e-08
1.98137e-08
-7.15322e-10
-2.42917e-09
5.81227e-09
1.0131e-08
8.52639e-09
3.44482e-09
-2.21021e-08
6.19754e-09
7.40143e-09
-3.46789e-09
-2.43595e-08
2.06746e-08
9.88247e-09
1.26212e-08
-2.84543e-08
3.98156e-09
-7.68775e-09
7.15108e-09
1.05219e-08
8.61084e-10
-7.66964e-09
-5.08401e-09
2.53749e-08
-9.93229e-09
-2.43059e-09
-4.38108e-09
1.67441e-08
-5.04516e-09
-7.33054e-09
2.44348e-09
6.14925e-09
1.21433e-08
2.38222e-09
1.17414e-08
-1.31877e-08
1.6563e-08
-7.25206e-09
-6.81272e-09
8.58093e-09
-3.6213e-09
-1.7604e-09
1.37301e-09
-3.1856e-09
3.57296e-09
-5.6624e-09
1.15881e-10
3.7861e-09
-1.10934e-09
-1.99399e-09
4.47635e-09
-4.17017e-09
-2.15755e-09
5.21839e-09
-4.10986e-10
2.4859e-09
-6.24511e-09
3.72795e-09
-5.79867e-09
1.65972e-09
2.13168e-09
-4.63384e-09
-3.16025e-09
-1.10753e-09
5.3586e-11
-3.51312e-09
5.24706e-09
-6.05369e-09
4.01201e-09
4.07057e-09
2.27067e-10
1.52746e-09
-5.82511e-09
2.30641e-09
-4.03452e-09
1.01405e-09
-1.00645e-09
-4.64144e-09
-1.35987e-09
1.53137e-10
-4.48565e-09
-5.53988e-10
2.46062e-09
-3.24002e-09
-6.78822e-12
-2.13029e-09
-4.59385e-09
3.7818e-09
2.94241e-09
-3.06703e-09
2.38455e-09
-1.44775e-09
-5.11901e-10
-7.14897e-09
8.71022e-10
-2.1499e-09
5.06073e-09
-2.15363e-09
3.1386e-09
-1.13886e-10
1.10022e-09
-5.17676e-09
1.31558e-09
-3.14886e-09
6.72973e-10
-9.32092e-10
-1.86008e-09
2.90802e-09
-1.29269e-09
2.2602e-09
-3.87546e-09
5.26246e-09
-3.28654e-09
2.27199e-09
-4.07656e-09
-2.66987e-09
4.78353e-09
-2.54231e-10
-1.55386e-10
-1.35841e-10
2.1593e-08
-2.38805e-09
-4.31224e-09
-1.48928e-08
6.44303e-09
7.85835e-09
7.29162e-09
1.58699e-08
-4.53598e-09
-1.37219e-08
1.01579e-08
1.2155e-08
-1.25199e-08
8.2771e-09
1.21012e-08
-3.95039e-09
-1.28818e-08
-1.97835e-09
-3.78418e-10
1.25147e-08
-1.03402e-08
-3.58065e-09
1.19425e-08
1.99063e-10
9.1254e-09
-1.38605e-08
7.80696e-09
-1.15583e-08
5.72792e-09
-6.94275e-09
-2.25132e-09
-3.5538e-09
1.0113e-08
-4.30789e-09
-7.00417e-09
1.03047e-08
-5.55184e-09
-5.1977e-09
9.92099e-09
2.54983e-09
5.9428e-11
1.27357e-09
-3.90222e-09
5.41262e-09
3.64256e-09
-5.15298e-09
-5.29274e-09
-2.50512e-10
-2.72647e-09
6.4474e-09
4.69829e-09
3.52406e-09
2.30033e-09
-8.55084e-09
-5.81278e-09
-2.43655e-10
-1.42441e-09
7.48083e-09
-3.50856e-09
1.21986e-09
1.01043e-09
2.57345e-10
3.8278e-09
1.84577e-09
6.39853e-09
6.6525e-09
-8.38581e-09
1.17722e-09
5.56039e-10
8.04951e-09
-5.7922e-09
-1.3693e-09
5.73705e-09
-2.64826e-09
4.30064e-09
1.29699e-08
6.27637e-09
-2.19689e-08
2.72274e-09
1.13637e-08
-5.87946e-09
-1.21674e-08
-1.01153e-08
7.59147e-10
-7.47334e-09
-2.97932e-09
-2.19178e-08
-1.10024e-08
-6.17914e-09
-1.30461e-08
-1.0018e-08
6.79025e-09
-4.8645e-09
5.94287e-09
-7.86861e-09
-1.25907e-09
7.11439e-09
9.34942e-10
3.28216e-09
6.20094e-10
3.08962e-09
-6.99187e-09
3.2232e-10
3.6407e-09
-6.80844e-10
4.25845e-09
-8.50287e-09
3.20312e-09
-2.03739e-10
1.10923e-09
6.97058e-09
-2.13698e-09
8.84805e-09
-6.24425e-10
5.05893e-09
6.31923e-09
-8.28851e-09
-1.07247e-09
5.96019e-10
7.83635e-11
3.60889e-09
1.90242e-10
5.34875e-09
2.13215e-09
-5.10259e-10
5.907e-09
8.28979e-09
-4.57398e-09
-2.50657e-09
-9.95485e-09
7.83749e-09
-6.20083e-09
5.80602e-09
-2.33021e-09
2.72493e-09
-8.10509e-09
5.02774e-09
-3.12353e-09
-4.86629e-10
2.06291e-09
4.22967e-09
-8.26584e-09
2.57587e-09
5.20321e-09
3.21518e-09
-3.47408e-09
-7.84626e-09
1.11299e-09
-2.2806e-10
3.16009e-09
-6.39823e-09
-6.02778e-09
3.23927e-09
-6.72619e-09
9.51466e-09
-6.52085e-09
-1.75871e-09
2.25171e-09
8.58943e-10
-2.79217e-09
3.99609e-09
6.67406e-09
2.59264e-09
-2.48736e-09
-6.6262e-09
-1.60419e-09
-7.50091e-11
-3.67421e-09
-4.59396e-10
2.8399e-10
-6.95885e-09
3.2007e-09
2.93434e-09
-5.13775e-09
-4.2855e-10
-9.68511e-09
1.76364e-08
-2.79116e-10
-7.67221e-09
-9.64627e-09
-4.73227e-09
4.6934e-09
8.26326e-09
-7.07247e-09
5.61356e-09
-6.80434e-09
2.3737e-09
4.97935e-09
9.1023e-10
2.96751e-09
-1.07461e-08
7.06099e-10
2.399e-09
-9.98097e-09
4.27804e-09
2.31828e-09
-4.89844e-09
5.88516e-09
3.99262e-09
8.01244e-10
-8.61209e-11
4.44102e-09
2.45357e-09
-3.9271e-09
5.22515e-09
1.70783e-11
5.19134e-09
-2.50766e-09
-2.30113e-10
3.90625e-10
5.19307e-09
-3.92428e-10
5.67413e-09
-5.83953e-11
-7.89295e-10
6.73891e-09
-7.05417e-09
-3.89996e-10
4.79373e-09
5.00711e-10
4.78344e-09
5.41745e-09
8.99794e-10
-4.82538e-09
7.50295e-09
-4.19129e-09
3.66152e-09
-3.85414e-09
4.38392e-09
-7.21868e-10
-3.50115e-09
3.17448e-11
7.12859e-09
3.93061e-09
-2.80487e-09
-4.89702e-09
-4.14824e-11
-1.29903e-10
7.98421e-10
-5.49388e-09
4.5216e-09
-4.28131e-09
-3.74143e-09
5.37562e-10
-8.86909e-09
-7.40028e-10
4.83856e-09
-5.32289e-09
1.22441e-09
3.58501e-09
2.49316e-10
-4.57432e-09
3.32414e-09
3.86062e-10
-7.77085e-09
1.76016e-09
-5.75738e-09
-2.55349e-09
4.50243e-09
2.88967e-09
1.24321e-09
-2.1162e-10
3.77851e-09
-4.56492e-09
1.03573e-09
2.46542e-09
4.82618e-09
-3.51305e-09
3.75824e-09
-4.95824e-11
-4.3742e-09
2.20554e-09
-1.23324e-09
1.68523e-09
-2.21584e-09
1.02145e-09
-8.01204e-09
1.73302e-09
6.81086e-09
-3.23554e-09
-5.30835e-09
-1.26124e-09
-2.7742e-09
5.76844e-09
6.36914e-09
-1.30439e-09
1.7461e-09
-9.43603e-09
-4.51157e-09
9.44362e-09
4.50395e-09
1.06617e-09
-5.12664e-09
-5.37558e-09
-2.12534e-08
4.88352e-09
1.18583e-08
-1.00503e-08
-1.01369e-08
-2.74399e-09
-3.6439e-09
-2.10218e-09
5.50471e-09
-6.80103e-09
3.39849e-09
1.49962e-09
2.76733e-09
1.64249e-08
-7.66374e-09
-1.88115e-08
1.70236e-08
-1.0976e-09
4.98974e-10
-1.9489e-09
8.58731e-09
-9.87394e-09
-1.23566e-08
6.64822e-09
1.52588e-08
8.01863e-09
-5.28927e-10
-5.12381e-09
1.14196e-08
3.5237e-10
4.39444e-09
-6.39559e-09
7.09921e-09
-5.41763e-09
4.714e-09
-4.75687e-09
2.20185e-10
-1.85892e-09
-5.42278e-10
6.34157e-10
7.00733e-09
5.42148e-09
3.84877e-09
-4.57852e-09
-4.69173e-09
1.76427e-09
3.61663e-09
4.05665e-11
3.81386e-09
-5.21089e-09
-3.35985e-09
1.60496e-10
-8.17567e-09
7.05246e-10
6.92812e-09
-5.64256e-09
-2.31294e-09
-3.27045e-10
5.73807e-09
-4.77687e-09
-6.16707e-10
-2.79926e-10
4.74539e-09
-5.40042e-10
-9.24938e-09
5.07393e-09
5.95376e-09
-1.15678e-08
2.68143e-11
4.6966e-09
3.50474e-10
3.38008e-10
-5.28338e-09
5.66157e-09
-1.20347e-09
-5.94322e-09
7.36852e-09
5.7712e-10
-2.00238e-09
3.94618e-09
-1.65265e-09
1.9508e-09
-4.2443e-09
-2.55433e-09
-1.7965e-09
8.29706e-09
-2.46489e-09
-3.15709e-09
3.06761e-09
-4.04702e-09
-7.04974e-11
4.40388e-09
-8.44809e-09
-1.89897e-09
-4.58321e-09
1.01552e-08
-2.51757e-09
-4.89255e-10
-1.50254e-10
-4.31343e-09
-2.25113e-09
-6.68561e-10
1.07105e-08
-2.29276e-10
-2.08998e-09
-8.39125e-09
-6.34609e-11
9.57051e-09
-4.08907e-09
-1.62055e-08
2.00653e-08
1.27753e-08
-1.94287e-09
-1.49215e-08
7.01698e-09
-5.73383e-09
1.14922e-08
-1.71687e-09
7.28524e-09
1.61548e-08
-2.17231e-08
3.97692e-09
1.06474e-08
-1.63411e-08
5.75554e-09
-1.21696e-09
-6.62856e-09
4.89413e-09
7.97964e-10
-1.22046e-08
6.2077e-09
6.56988e-09
-5.72946e-10
-2.43942e-10
-6.2519e-09
-5.70879e-09
1.32602e-08
-5.43125e-09
-8.11899e-10
3.8079e-09
1.67375e-08
2.08439e-09
9.12756e-10
-8.42835e-09
5.48279e-09
2.80929e-09
-8.44786e-09
5.28803e-09
-5.46997e-09
1.01202e-08
4.61766e-09
8.92978e-09
-1.29581e-09
1.05865e-08
8.2551e-09
-4.93324e-09
-7.13116e-09
6.94032e-09
9.27989e-09
-9.089e-09
5.2446e-09
1.04623e-09
-1.34219e-08
-7.76764e-09
1.18174e-08
2.89062e-09
-5.249e-09
2.726e-09
4.41625e-09
-6.48591e-09
3.11594e-09
5.44981e-09
7.03804e-09
-3.65738e-09
-8.83045e-09
6.91496e-09
-1.52054e-09
5.54349e-11
7.64925e-10
1.30055e-08
-4.49054e-09
6.44428e-09
-1.26308e-09
3.2072e-09
-1.43038e-10
3.85079e-09
4.02281e-09
6.22247e-09
-8.23834e-09
4.29467e-09
3.80064e-09
-4.28135e-09
-2.83171e-09
-1.12525e-09
-9.00356e-10
-4.90149e-09
-3.1052e-09
6.71778e-09
1.73006e-09
5.48898e-09
4.59842e-09
8.14421e-09
6.5914e-09
8.21157e-09
1.30026e-09
3.35123e-09
1.38735e-08
-1.08089e-08
1.90263e-08
-1.18409e-08
-3.83423e-09
9.99204e-09
9.2898e-11
3.78858e-09
8.36714e-09
2.06512e-08
-8.18566e-09
6.82848e-09
-1.04837e-08
-1.53401e-09
6.10372e-09
-5.27566e-09
5.32888e-09
4.22896e-09
1.94495e-09
-7.0212e-11
-7.46177e-09
4.67834e-09
7.32019e-09
-8.90072e-09
8.98374e-09
4.14589e-09
1.15199e-10
-3.68708e-09
1.2019e-08
-5.07531e-09
4.50274e-09
-1.33439e-10
7.64965e-09
6.38666e-09
2.36627e-10
5.33041e-09
2.08267e-09
-3.04519e-09
5.29883e-09
3.07675e-09
3.56068e-09
-2.19216e-10
3.08734e-09
-3.18555e-09
3.65886e-09
-6.08027e-10
8.99417e-09
1.22619e-08
5.66475e-09
-1.58898e-09
-4.74488e-09
4.73441e-09
1.59938e-09
2.72097e-09
-4.13365e-09
-1.76364e-10
1.59672e-09
6.14115e-09
-5.65716e-09
-2.08073e-09
4.31987e-09
-2.19913e-12
-2.3366e-09
3.08236e-12
-2.41139e-09
-1.99994e-09
-4.47033e-09
2.17964e-09
6.79192e-10
3.28226e-09
2.10428e-09
4.39526e-09
-4.62762e-09
-5.41052e-10
7.27293e-09