/*--------------------------------*- C++ -*----------------------------------*\
| =========                 |                                                 |
| \\      /  F ield         | OpenFOAM: The Open Source CFD Toolbox           |
|  \\    /   O peration     | Version:  v1612+                                |
|   \\  /    A nd           | Web:      www.OpenFOAM.com                      |
|    \\/     M anipulation  |                                                 |
\*---------------------------------------------------------------------------*/
FoamFile
{
    version     2.0;
    format      ascii;
    class       volVectorField;
    location    "100";
    object      U;
}
// * * * * * * * * * * * * * * * * * * * * * * * * * * * * * * * * * * * * * //

dimensions      [0 1 -1 0 0 0 0];

internalField   nonuniform List<vector> 
16915
(
(-0.468868 0.899535 -0.526973)
(-0.509256 0.946732 -0.416375)
(-0.29439 0.866238 -0.424758)
(-0.152008 0.304115 -0.220114)
(-0.166773 0.30836 -0.205028)
(-0.13143 0.268714 -0.177232)
(-0.144253 0.282976 -0.189034)
(-0.135216 0.269338 -0.199011)
(-0.120523 0.246517 -0.182011)
(-0.10914 0.224976 -0.166616)
(-0.102164 0.218742 -0.168127)
(-0.543354 0.872869 -0.291972)
(-0.559209 0.894218 -0.312466)
(-0.560673 0.880567 -0.290974)
(-0.568941 0.908579 -0.325713)
(-0.547341 0.879535 -0.303266)
(-0.523304 0.864729 -0.292702)
(-0.532674 0.897367 -0.270416)
(-0.495247 0.889818 -0.254316)
(-0.609171 0.904018 -0.341651)
(-0.55722 0.905609 -0.311208)
(-0.575518 0.911579 -0.328167)
(-0.587762 0.924457 -0.340257)
(-0.485809 0.860529 -0.260464)
(-0.526156 0.919246 -0.273066)
(-0.508433 0.917511 -0.258248)
(-0.560247 0.911151 -0.315044)
(-0.508241 0.89476 -0.27708)
(-0.520718 0.925294 -0.281577)
(-0.118887 0.228817 -0.159969)
(-0.139621 0.24612 -0.170402)
(-0.130733 0.236879 -0.172371)
(-0.150169 0.261541 -0.197333)
(-0.192939 0.306444 -0.211)
(-0.152958 0.264769 -0.19482)
(-0.138785 0.250301 -0.188112)
(-0.17724 0.301105 -0.204809)
(-0.148355 0.261941 -0.197118)
(-0.272077 0.910613 -0.462199)
(-0.200965 0.862035 -0.419399)
(-0.26082 0.901906 -0.435692)
(-0.167228 0.763853 -0.33977)
(-0.171422 0.799808 -0.385061)
(-0.200036 0.830947 -0.382071)
(-0.4747 0.795983 -0.428058)
(-0.459308 0.8513 -0.434238)
(-0.466871 0.828449 -0.411543)
(-0.494475 0.77539 -0.413109)
(-0.450588 0.852618 -0.44376)
(-0.474489 0.824354 -0.453309)
(-0.499874 0.755592 -0.41935)
(-0.416766 0.850284 -0.407799)
(-0.434672 0.902224 -0.471264)
(-0.497523 0.78897 -0.446652)
(-0.506396 0.765862 -0.438756)
(-0.480313 0.716533 -0.372777)
(-0.481301 0.729828 -0.395108)
(-0.421418 0.885146 -0.447085)
(-0.436982 0.928684 -0.473385)
(-0.457308 0.823025 -0.399243)
(-0.451147 0.804813 -0.378476)
(-0.461012 0.77649 -0.385878)
(-0.457344 0.856501 -0.461506)
(-0.440802 0.839768 -0.43433)
(-0.0445221 0.564758 -0.411547)
(-0.106541 0.596564 -0.446193)
(-0.0661736 0.555092 -0.432775)
(-0.0479265 0.53697 -0.409143)
(-0.0187558 0.517027 -0.379978)
(-0.0377168 0.544473 -0.391377)
(-0.0552512 0.596057 -0.415674)
(-0.141699 0.601589 -0.435919)
(-0.132602 0.630968 -0.443403)
(-0.142424 0.687494 -0.436445)
(-0.119178 0.682623 -0.444526)
(-0.0517673 0.653212 -0.414861)
(-0.0549374 0.64948 -0.42727)
(-0.0574647 0.584722 -0.431216)
(-0.139313 0.666312 -0.438444)
(-0.0343049 0.599993 -0.417319)
(-0.573771 0.656434 -0.343275)
(-0.474222 0.50861 -0.3305)
(-0.41455 0.49133 -0.300349)
(-0.492298 0.68014 -0.344629)
(-0.532666 0.647111 -0.323529)
(-0.485266 0.569909 -0.317503)
(-0.422737 0.719298 -0.339742)
(-0.440648 0.751101 -0.327384)
(-0.469713 0.67779 -0.33784)
(-0.429432 0.643446 -0.356695)
(-0.408868 0.727335 -0.358648)
(-0.447599 0.747007 -0.332565)
(-0.526666 0.560156 -0.348469)
(-0.519685 0.531325 -0.341076)
(-0.509568 0.585074 -0.367625)
(-0.515016 0.585942 -0.357991)
(-0.558485 0.62443 -0.382694)
(-0.513165 0.563228 -0.340425)
(-0.582117 0.723109 -0.448762)
(-0.588092 0.71433 -0.438579)
(-0.533685 0.700007 -0.38228)
(-0.547364 0.779922 -0.448604)
(-0.566246 0.751935 -0.43999)
(-0.573002 0.75603 -0.453832)
(-0.550858 0.705902 -0.401516)
(-0.569519 0.653905 -0.399551)
(-0.574629 0.75512 -0.458266)
(-0.527673 0.724682 -0.396897)
(-0.55477 0.770649 -0.439826)
(-0.582609 0.738004 -0.45077)
(-0.566491 0.732766 -0.44794)
(-0.409433 0.822697 -0.353901)
(-0.40588 0.848637 -0.381826)
(-0.432739 0.803792 -0.352863)
(-0.442275 0.764165 -0.342134)
(-0.485502 0.760082 -0.358714)
(-0.457921 0.756984 -0.326786)
(-0.420656 0.731861 -0.278406)
(-0.473685 0.633401 -0.323338)
(-0.441679 0.646595 -0.27703)
(-0.499103 0.696331 -0.351416)
(-0.491483 0.64963 -0.357555)
(-0.441511 0.666153 -0.297146)
(-0.155462 0.276806 -0.254546)
(-0.177235 0.281582 -0.256906)
(-0.164355 0.353088 -0.323435)
(-0.149171 0.344732 -0.324077)
(-0.219614 0.307674 -0.275623)
(-0.220858 0.33714 -0.303048)
(-0.125431 0.261013 -0.238798)
(-0.153806 0.305074 -0.281003)
(-0.144467 0.318681 -0.299867)
(-0.121196 0.277338 -0.258089)
(-0.221278 0.380273 -0.340906)
(-0.202379 0.37671 -0.333379)
(-0.157799 0.32244 -0.309141)
(-0.141068 0.295469 -0.275299)
(-0.161543 0.299703 -0.277112)
(-0.145036 0.279746 -0.255015)
(-0.249098 0.324165 -0.290542)
(-0.237985 0.357791 -0.318483)
(-0.176202 0.323932 -0.306573)
(-0.151737 0.277647 -0.255395)
(-0.136572 0.268255 -0.249527)
(-0.1802 0.281504 -0.262664)
(-0.570767 0.459472 -0.337944)
(-0.566422 0.440182 -0.322219)
(-0.543805 0.427197 -0.327825)
(-0.60388 0.476792 -0.350809)
(-0.584579 0.439118 -0.347615)
(-0.580049 0.45078 -0.341556)
(-0.599969 0.51098 -0.37346)
(-0.558197 0.489808 -0.342394)
(-0.582596 0.546642 -0.378031)
(-0.584051 0.487073 -0.362292)
(-0.65533 0.585397 -0.388595)
(-0.672077 0.653465 -0.419042)
(-0.630754 0.500012 -0.37365)
(-0.606353 0.567429 -0.404448)
(-0.641108 0.609559 -0.400398)
(-0.430998 0.748517 -0.337747)
(-0.409089 0.830253 -0.34968)
(-0.471379 0.973963 -0.394688)
(-0.466518 0.998974 -0.411341)
(-0.433139 0.996544 -0.392381)
(-0.470865 0.92122 -0.371624)
(-0.463269 0.827383 -0.378696)
(-0.4428 0.841357 -0.36697)
(-0.479269 0.942584 -0.400573)
(-0.478936 0.954123 -0.408184)
(-0.467405 0.892603 -0.379597)
(-0.465097 0.957859 -0.402344)
(-0.24129 0.292285 -0.251465)
(-0.330564 0.294582 -0.246131)
(-0.304565 0.294742 -0.240952)
(-0.26456 0.292777 -0.257277)
(-0.266816 0.293714 -0.258193)
(-0.27728 0.324387 -0.304068)
(-0.281297 0.306935 -0.270338)
(-0.295522 0.298903 -0.250895)
(-0.31498 0.296409 -0.246986)
(-0.273994 0.318834 -0.288221)
(-0.291753 0.359994 -0.322087)
(-0.326018 0.363156 -0.314851)
(-0.343633 0.366037 -0.317961)
(-0.363811 0.368253 -0.315665)
(-0.33237 0.315601 -0.282913)
(-0.369301 0.314554 -0.26578)
(-0.355123 0.308359 -0.252361)
(-0.33881 0.303266 -0.24689)
(-0.332484 0.338443 -0.286344)
(-0.377285 0.331368 -0.283328)
(-0.35379 0.312033 -0.25825)
(-0.200999 0.328087 -0.280375)
(-0.19082 0.322814 -0.274932)
(-0.260123 0.366011 -0.272108)
(-0.24263 0.342579 -0.264792)
(-0.230321 0.447675 -0.36047)
(-0.177222 0.341156 -0.308468)
(-0.158678 0.3573 -0.337268)
(-0.152261 0.316476 -0.287475)
(-0.176593 0.325946 -0.284632)
(-0.210943 0.341515 -0.288668)
(-0.213923 0.434962 -0.365409)
(-0.181437 0.413453 -0.364874)
(-0.272101 0.403288 -0.308569)
(-0.188279 0.350433 -0.305377)
(-0.16976 0.334285 -0.299016)
(-0.173889 0.368838 -0.336252)
(-0.24996 0.462324 -0.372572)
(-0.202605 0.407045 -0.349646)
(-0.200181 0.373887 -0.329597)
(-0.166492 0.342501 -0.305542)
(-0.253108 0.372998 -0.302746)
(-0.256702 0.391467 -0.327588)
(-0.327419 0.359206 -0.257507)
(-0.319567 0.356057 -0.247186)
(-0.279902 0.347599 -0.258088)
(-0.220086 0.345131 -0.287101)
(-0.235196 0.375906 -0.322865)
(-0.209258 0.339016 -0.281677)
(-0.294359 0.351278 -0.246044)
(-0.259748 0.350164 -0.266395)
(-0.302988 0.368792 -0.262697)
(-0.281975 0.36816 -0.272058)
(-0.317079 0.411526 -0.310553)
(-0.284961 0.39841 -0.314249)
(-0.533292 0.51758 -0.310653)
(-0.524706 0.514065 -0.285442)
(-0.525343 0.574862 -0.345586)
(-0.538337 0.524673 -0.319491)
(-0.572959 0.566752 -0.312845)
(-0.541211 0.535782 -0.320088)
(-0.566796 0.612994 -0.349479)
(-0.599382 0.760609 -0.361128)
(-0.595829 0.7591 -0.360266)
(-0.531171 0.550625 -0.312537)
(-0.613758 0.740589 -0.366106)
(-0.615743 0.712842 -0.355492)
(-0.598585 0.798261 -0.355599)
(-0.580725 0.762191 -0.353514)
(-0.547013 0.679388 -0.330569)
(-0.612028 0.741752 -0.351904)
(-0.567698 0.698473 -0.336829)
(-0.539659 0.598921 -0.331432)
(-0.330422 0.825219 -0.355003)
(-0.341915 0.843017 -0.366693)
(-0.377063 0.892444 -0.400722)
(-0.381433 0.884273 -0.411991)
(-0.344508 0.789961 -0.331313)
(-0.356809 0.745235 -0.311015)
(-0.419042 0.834254 -0.380324)
(-0.432442 0.823192 -0.425135)
(-0.412705 0.856886 -0.410257)
(-0.384273 0.73592 -0.309985)
(-0.431023 0.779085 -0.358616)
(-0.400794 0.769329 -0.346414)
(-0.441843 0.751061 -0.394657)
(-0.444828 0.746277 -0.356126)
(-0.19873 0.348353 -0.252007)
(-0.181986 0.339205 -0.249393)
(-0.198038 0.344763 -0.23942)
(-0.173252 0.328784 -0.237372)
(-0.207228 0.362852 -0.286705)
(-0.161462 0.316865 -0.261013)
(-0.14255 0.298892 -0.25579)
(-0.175345 0.358604 -0.302893)
(-0.155345 0.337185 -0.28722)
(-0.181766 0.353571 -0.284737)
(-0.212616 0.365988 -0.27193)
(-0.205268 0.366732 -0.288389)
(-0.15784 0.319644 -0.262021)
(-0.17636 0.349961 -0.29072)
(-0.151289 0.301675 -0.2384)
(-0.147696 0.299976 -0.250104)
(-0.181419 0.332326 -0.251041)
(-0.140006 0.291657 -0.244127)
(-0.437047 1.00298 -0.472071)
(-0.435209 1.00495 -0.464556)
(-0.451665 1.01977 -0.456847)
(-0.443244 0.972441 -0.441202)
(-0.437742 0.989229 -0.438764)
(-0.413754 0.982747 -0.422511)
(-0.396663 0.994041 -0.409294)
(-0.391236 0.979456 -0.413195)
(-0.457398 1.0323 -0.457842)
(-0.428774 1.00426 -0.436995)
(-0.419506 0.998156 -0.449508)
(-0.157937 0.273559 -0.162762)
(-0.14828 0.272829 -0.160453)
(-0.150224 0.259104 -0.171124)
(-0.166263 0.272968 -0.174542)
(-0.149307 0.276131 -0.156473)
(-0.134168 0.268198 -0.150302)
(-0.182505 0.328854 -0.191984)
(-0.189905 0.335613 -0.182468)
(-0.169696 0.297905 -0.194028)
(-0.186948 0.317096 -0.196002)
(-0.130361 0.244744 -0.168142)
(-0.112856 0.225705 -0.1528)
(-0.157105 0.299424 -0.161898)
(-0.121565 0.237265 -0.148765)
(-0.132341 0.250185 -0.1758)
(-0.128762 0.240984 -0.171448)
(-0.147104 0.281597 -0.155803)
(-0.149689 0.281419 -0.168708)
(-0.219798 0.473251 -0.378689)
(-0.247611 0.539798 -0.388991)
(-0.150213 0.424254 -0.356344)
(-0.142632 0.467153 -0.367041)
(-0.233102 0.422019 -0.363661)
(-0.168838 0.417066 -0.349562)
(-0.134221 0.489035 -0.355357)
(-0.158398 0.521645 -0.370981)
(-0.141304 0.421335 -0.34103)
(-0.108594 0.409821 -0.321246)
(-0.134693 0.480172 -0.349941)
(-0.118044 0.447742 -0.334216)
(-0.220445 0.362954 -0.273014)
(-0.23244 0.405528 -0.327073)
(-0.235877 0.412547 -0.328248)
(-0.233954 0.413164 -0.329994)
(-0.21298 0.369761 -0.294226)
(-0.188072 0.36706 -0.299758)
(-0.227603 0.40515 -0.313248)
(-0.176672 0.409932 -0.354526)
(-0.176832 0.390996 -0.339584)
(-0.213442 0.435834 -0.369035)
(-0.233131 0.442418 -0.362963)
(-0.174632 0.361068 -0.309993)
(-0.172027 0.353183 -0.304817)
(-0.273413 0.606521 -0.169174)
(-0.245528 0.600261 -0.173979)
(-0.278753 0.662862 -0.197989)
(-0.302981 0.624181 -0.186187)
(-0.299185 0.641695 -0.186517)
(-0.254828 0.654251 -0.199689)
(-0.225923 0.619858 -0.186382)
(-0.330749 0.752761 -0.245731)
(-0.423886 0.760567 -0.283341)
(-0.32059 0.781824 -0.269706)
(-0.297404 0.743895 -0.24498)
(-0.397038 0.696703 -0.247881)
(-0.303875 0.749916 -0.251641)
(-0.417869 0.775795 -0.300816)
(-0.403021 0.76626 -0.291963)
(-0.167221 0.633464 -0.432167)
(-0.158649 0.654424 -0.432415)
(-0.148564 0.650075 -0.432198)
(-0.197116 0.592104 -0.436259)
(-0.192561 0.718902 -0.42746)
(-0.193262 0.705917 -0.428716)
(-0.182906 0.729927 -0.423453)
(-0.163434 0.556758 -0.433393)
(-0.175124 0.58802 -0.433391)
(-0.494214 0.854622 -0.455656)
(-0.392065 0.836703 -0.425667)
(-0.397552 0.825076 -0.438539)
(-0.348218 0.828439 -0.414101)
(-0.476475 0.842047 -0.456699)
(-0.436748 0.861105 -0.475299)
(-0.425089 0.860184 -0.470279)
(-0.39305 0.827892 -0.445833)
(-0.534666 0.871897 -0.496958)
(-0.489468 0.864733 -0.486243)
(-0.431655 0.836202 -0.463155)
(-0.546033 0.855013 -0.50112)
(-0.567092 0.870973 -0.48507)
(-0.420202 0.839344 -0.467047)
(-0.543979 0.861664 -0.48881)
(-0.460753 0.85932 -0.488262)
(-0.488343 0.848835 -0.496317)
(-0.485358 0.858155 -0.491275)
(-0.215433 0.388037 -0.196379)
(-0.244434 0.439443 -0.200989)
(-0.244706 0.483557 -0.199779)
(-0.216455 0.432139 -0.18702)
(-0.3051 0.603109 -0.244142)
(-0.231037 0.495419 -0.195577)
(-0.194938 0.389225 -0.18718)
(-0.220736 0.38412 -0.2073)
(-0.225632 0.47181 -0.204548)
(-0.273579 0.507223 -0.221202)
(-0.203171 0.377218 -0.194091)
(-0.215572 0.371257 -0.202071)
(-0.284479 0.469713 -0.22197)
(-0.292952 0.484225 -0.226617)
(-0.260292 0.44447 -0.224155)
(-0.392499 0.784446 -0.325499)
(-0.426507 0.743333 -0.330591)
(-0.374611 0.564071 -0.311012)
(-0.385972 0.552786 -0.294058)
(-0.413712 0.587548 -0.304077)
(-0.423169 0.599671 -0.288437)
(-0.410928 0.589491 -0.300495)
(-0.401055 0.686024 -0.317304)
(-0.401756 0.760742 -0.334296)
(-0.371426 0.794874 -0.316435)
(-0.328837 0.694885 -0.359855)
(-0.318226 0.744709 -0.367717)
(-0.42454 0.749325 -0.324414)
(-0.358169 0.700295 -0.359484)
(-0.365873 0.654899 -0.337358)
(-0.348004 0.741961 -0.34864)
(-0.110472 0.326427 -0.310631)
(-0.0956928 0.323675 -0.306444)
(-0.111624 0.344402 -0.325896)
(-0.157415 0.350318 -0.318293)
(-0.151147 0.354017 -0.329555)
(-0.146928 0.323459 -0.293667)
(-0.152396 0.319323 -0.27694)
(-0.142768 0.304923 -0.267016)
(-0.114054 0.276526 -0.255657)
(-0.14483 0.337522 -0.313429)
(-0.0938318 0.282425 -0.263715)
(-0.0942653 0.299403 -0.281292)
(-0.085412 0.275091 -0.265132)
(-0.159111 0.324966 -0.277942)
(-0.121365 0.282353 -0.263916)
(-0.111009 0.283971 -0.285489)
(-0.111645 0.255294 -0.235063)
(-0.0816122 0.252749 -0.233261)
(-0.111022 0.250513 -0.23392)
(-0.0915611 0.240771 -0.229851)
(-0.098527 0.282698 -0.274137)
(-0.0924059 0.258522 -0.248342)
(-0.502546 0.952171 -0.554919)
(-0.490736 0.963894 -0.5543)
(-0.475342 0.968208 -0.562214)
(-0.443425 0.954738 -0.558694)
(-0.509101 0.970975 -0.559329)
(-0.490361 0.968498 -0.556395)
(-0.445939 0.961538 -0.562416)
(-0.453608 0.966843 -0.567232)
(-0.439019 0.965235 -0.575779)
(-0.385307 0.963207 -0.577438)
(-0.419374 0.951453 -0.567133)
(-0.405046 0.961685 -0.569486)
(-0.38967 0.959811 -0.578032)
(-0.361834 0.923128 -0.552174)
(-0.408304 0.949949 -0.565218)
(-0.461182 0.980185 -0.5766)
(-0.399768 0.964397 -0.576417)
(-0.379477 0.933054 -0.551943)
(-0.563711 0.884784 -0.456245)
(-0.571105 0.875002 -0.443691)
(-0.588223 0.83142 -0.459983)
(-0.588843 0.806928 -0.459007)
(-0.559857 0.80785 -0.423072)
(-0.547199 0.776175 -0.404475)
(-0.559355 0.844472 -0.430154)
(-0.566083 0.883759 -0.491419)
(-0.55087 0.871004 -0.480722)
(-0.567729 0.902404 -0.50219)
(-0.525166 0.724611 -0.394331)
(-0.560628 0.850327 -0.485949)
(-0.531398 0.805987 -0.463706)
(-0.574907 0.80605 -0.449325)
(-0.547364 0.794134 -0.439337)
(-0.537002 0.730983 -0.41327)
(-0.530179 0.717483 -0.426733)
(-0.565147 0.831853 -0.474839)
(-0.534854 0.777782 -0.439822)
(-0.27726 0.66354 -0.375111)
(-0.254422 0.693826 -0.3941)
(-0.234486 0.78621 -0.416058)
(-0.251377 0.782617 -0.383282)
(-0.297589 0.630696 -0.357693)
(-0.295066 0.639684 -0.362469)
(-0.256016 0.747573 -0.389475)
(-0.268752 0.73595 -0.358748)
(-0.285725 0.752945 -0.346485)
(-0.25085 0.790495 -0.388346)
(-0.240336 0.778587 -0.366715)
(-0.337587 0.641045 -0.30172)
(-0.307767 0.755125 -0.339593)
(-0.333422 0.633899 -0.312499)
(-0.30765 0.710399 -0.343058)
(-0.280866 0.668711 -0.334331)
(-0.315378 0.640896 -0.31308)
(-0.285823 0.748091 -0.341001)
(-0.331852 0.674602 -0.308183)
(-0.288379 0.778666 -0.339298)
(-0.320816 0.63562 -0.324921)
(-0.342046 0.623039 -0.297333)
(-0.390016 0.460738 -0.295786)
(-0.376145 0.407457 -0.25873)
(-0.39436 0.448943 -0.285427)
(-0.370381 0.422213 -0.289894)
(-0.390029 0.432259 -0.299784)
(-0.334536 0.44507 -0.34437)
(-0.372822 0.37787 -0.255175)
(-0.352751 0.375111 -0.260587)
(-0.32483 0.445995 -0.331085)
(-0.347198 0.427747 -0.296514)
(-0.360481 0.374376 -0.25496)
(-0.192201 0.351359 -0.198393)
(-0.188459 0.322983 -0.204868)
(-0.23733 0.42399 -0.213329)
(-0.27706 0.508371 -0.223454)
(-0.141776 0.301882 -0.183199)
(-0.139738 0.302151 -0.174067)
(-0.22736 0.370686 -0.217063)
(-0.195669 0.35007 -0.214478)
(-0.265134 0.440905 -0.2231)
(-0.214852 0.43185 -0.189918)
(-0.162426 0.32914 -0.176698)
(-0.165609 0.32899 -0.190746)
(-0.156907 0.324429 -0.180264)
(-0.19086 0.347264 -0.201362)
(-0.178631 0.353645 -0.180245)
(-0.0397529 0.617432 -0.427966)
(-0.0350016 0.576737 -0.410094)
(-0.0374725 0.546826 -0.404488)
(-0.0576217 0.620143 -0.445292)
(-0.0625169 0.672409 -0.452129)
(-0.0416284 0.620238 -0.429112)
(-0.137659 0.582262 -0.44619)
(-0.161721 0.647399 -0.471271)
(-0.144508 0.637212 -0.468623)
(-0.134173 0.592778 -0.453848)
(-0.102055 0.673732 -0.471117)
(-0.0273252 0.517971 -0.383145)
(-0.112354 0.695189 -0.457647)
(-0.146945 0.645538 -0.465905)
(-0.133414 0.561405 -0.441943)
(-0.0753237 0.539983 -0.43585)
(-0.062775 0.50104 -0.419643)
(-0.0772302 0.52329 -0.428798)
(-0.0625928 0.631698 -0.441921)
(-0.112625 0.676249 -0.453564)
(-0.0408714 0.552931 -0.412959)
(-0.0344299 0.520015 -0.400078)
(-0.13747 0.47747 -0.380493)
(-0.155366 0.419683 -0.354539)
(-0.224904 0.46338 -0.3904)
(-0.183095 0.439041 -0.386491)
(-0.240725 0.444954 -0.379947)
(-0.146003 0.448417 -0.375543)
(-0.140078 0.468447 -0.381807)
(-0.23063 0.483878 -0.390247)
(-0.278388 0.477185 -0.38605)
(-0.318074 0.492735 -0.374565)
(-0.307982 0.581185 -0.397368)
(-0.229834 0.54251 -0.410419)
(-0.255429 0.510752 -0.415706)
(-0.319179 0.509892 -0.378278)
(-0.316958 0.548242 -0.393356)
(-0.20327 0.532202 -0.408475)
(-0.242316 0.575175 -0.406156)
(-0.248276 0.596616 -0.418292)
(-0.15764 0.520595 -0.40492)
(-0.357021 0.66497 -0.357916)
(-0.366535 0.691965 -0.351506)
(-0.422083 0.720433 -0.331984)
(-0.358573 0.765777 -0.331922)
(-0.357394 0.632164 -0.337131)
(-0.35077 0.686887 -0.355816)
(-0.415419 0.497622 -0.298326)
(-0.420454 0.521004 -0.299031)
(-0.415715 0.497175 -0.299424)
(-0.369608 0.589414 -0.324557)
(-0.474267 0.722332 -0.316124)
(-0.423854 0.717306 -0.320999)
(-0.34642 0.615688 -0.339358)
(-0.40047 0.506143 -0.29504)
(-0.359533 0.48567 -0.25435)
(-0.3424 0.454858 -0.259958)
(-0.339006 0.448232 -0.249834)
(-0.340866 0.463942 -0.2587)
(-0.328685 0.447257 -0.266631)
(-0.334811 0.442734 -0.243609)
(-0.234791 0.384572 -0.257768)
(-0.254691 0.395351 -0.258437)
(-0.288608 0.427751 -0.233859)
(-0.292608 0.408726 -0.24553)
(-0.287917 0.440818 -0.289495)
(-0.292482 0.437173 -0.284859)
(-0.259664 0.401426 -0.278965)
(-0.2526 0.398923 -0.289407)
(-0.298936 0.437544 -0.270084)
(-0.30477 0.426831 -0.249488)
(-0.275544 0.415924 -0.281878)
(-0.287424 0.415705 -0.269298)
(-0.283294 0.493082 -0.192648)
(-0.267069 0.487778 -0.188272)
(-0.332049 0.668941 -0.241203)
(-0.287281 0.563685 -0.212913)
(-0.277017 0.492841 -0.189394)
(-0.252813 0.483907 -0.183676)
(-0.384837 0.647456 -0.259629)
(-0.379558 0.585005 -0.249968)
(-0.338394 0.680956 -0.253255)
(-0.259642 0.550292 -0.199483)
(-0.286344 0.511701 -0.196375)
(-0.256336 0.488643 -0.185216)
(-0.244738 0.524679 -0.185195)
(-0.284828 0.548883 -0.194904)
(-0.297118 0.501937 -0.191907)
(-0.388385 0.662979 -0.265229)
(-0.394674 0.613668 -0.248547)
(-0.263104 0.543369 -0.202271)
(-0.37371 0.653478 -0.245129)
(-0.358372 0.613786 -0.224381)
(-0.343616 0.687838 -0.256955)
(-0.340864 0.677772 -0.248924)
(-0.183297 0.333744 -0.260335)
(-0.180883 0.332397 -0.266597)
(-0.24368 0.373827 -0.248536)
(-0.221484 0.360534 -0.229727)
(-0.176195 0.343034 -0.289047)
(-0.211478 0.362155 -0.274804)
(-0.186894 0.327356 -0.255088)
(-0.230333 0.365476 -0.24409)
(-0.214253 0.381094 -0.296752)
(-0.20999 0.350208 -0.246027)
(-0.239316 0.400552 -0.315093)
(-0.229635 0.402288 -0.323923)
(-0.241222 0.396155 -0.31163)
(-0.21154 0.367374 -0.282534)
(-0.520248 0.590302 -0.340188)
(-0.516584 0.59385 -0.320642)
(-0.443315 0.399616 -0.287697)
(-0.460924 0.424776 -0.27802)
(-0.469068 0.426969 -0.299194)
(-0.448957 0.473639 -0.298661)
(-0.567867 0.525994 -0.324412)
(-0.53626 0.493793 -0.306634)
(-0.434679 0.403874 -0.272584)
(-0.436948 0.407957 -0.284739)
(-0.566595 0.53698 -0.326568)
(-0.569331 0.50313 -0.322794)
(-0.511155 0.450976 -0.309926)
(-0.467787 0.428711 -0.292228)
(-0.246375 0.420261 -0.372515)
(-0.254494 0.432771 -0.374824)
(-0.12967 0.375902 -0.330687)
(-0.136059 0.365312 -0.324922)
(-0.101043 0.361477 -0.312987)
(-0.126832 0.458355 -0.365274)
(-0.123763 0.419426 -0.346526)
(-0.118736 0.430205 -0.352237)
(-0.10312 0.393679 -0.324122)
(-0.142526 0.407783 -0.338629)
(-0.134103 0.485231 -0.37155)
(-0.151487 0.484986 -0.376166)
(-0.138256 0.405601 -0.351124)
(-0.204707 0.50146 -0.381352)
(-0.235008 0.517081 -0.388065)
(-0.207018 0.452727 -0.380538)
(-0.324881 0.663526 -0.31655)
(-0.315631 0.596215 -0.297677)
(-0.31468 0.709162 -0.330004)
(-0.332575 0.716571 -0.338097)
(-0.270396 0.677017 -0.357145)
(-0.313429 0.752658 -0.333103)
(-0.264262 0.79622 -0.379938)
(-0.304288 0.777331 -0.338206)
(-0.28612 0.84973 -0.36184)
(-0.255227 0.90607 -0.389519)
(-0.263597 0.872662 -0.376255)
(-0.271374 0.826759 -0.359411)
(-0.229009 0.847266 -0.411941)
(-0.235902 0.856607 -0.376592)
(-0.250622 0.83496 -0.406492)
(-0.27995 0.558376 -0.384085)
(-0.242413 0.601441 -0.420634)
(-0.318109 0.487023 -0.308336)
(-0.319238 0.49037 -0.32454)
(-0.301399 0.511826 -0.348403)
(-0.279113 0.520606 -0.371631)
(-0.254945 0.660841 -0.408122)
(-0.284775 0.604824 -0.373797)
(-0.263479 0.600513 -0.401986)
(-0.269558 0.710937 -0.39108)
(-0.291996 0.653749 -0.388685)
(-0.338206 0.508545 -0.317344)
(-0.329699 0.595546 -0.323594)
(-0.335276 0.627013 -0.331388)
(-0.270383 0.637441 -0.398841)
(-0.23647 0.696648 -0.434398)
(-0.245256 0.730192 -0.408347)
(-0.315658 0.697305 -0.332134)
(-0.327304 0.527467 -0.32014)
(-0.344331 0.546549 -0.289775)
(-0.265364 0.708295 -0.402274)
(-0.291861 0.701994 -0.360592)
(-0.336842 0.591241 -0.302446)
(-0.289444 0.697834 -0.342248)
(-0.0667998 0.496484 -0.412316)
(-0.0348671 0.474529 -0.387076)
(-0.0813165 0.516824 -0.42642)
(-0.0636114 0.493087 -0.409076)
(-0.170064 0.671287 -0.469315)
(-0.13178 0.663504 -0.474155)
(-0.0380629 0.523218 -0.399208)
(-0.128452 0.692704 -0.469489)
(-0.121612 0.692167 -0.472363)
(-0.0757859 0.662011 -0.447229)
(-0.0497473 0.642143 -0.442497)
(-0.0489405 0.608017 -0.441018)
(-0.0372882 0.50288 -0.389549)
(-0.125358 0.560779 -0.445924)
(-0.148583 0.616064 -0.462532)
(-0.140082 0.646625 -0.471058)
(-0.0473187 0.583677 -0.422015)
(-0.0676584 0.557122 -0.428724)
(-0.628511 0.549768 -0.348727)
(-0.635012 0.530102 -0.358645)
(-0.602272 0.549406 -0.350668)
(-0.589889 0.571632 -0.341986)
(-0.586306 0.476319 -0.349963)
(-0.629724 0.630743 -0.374841)
(-0.166053 0.297298 -0.225854)
(-0.156996 0.292563 -0.22446)
(-0.255913 0.380452 -0.209997)
(-0.273305 0.378401 -0.24476)
(-0.228477 0.339049 -0.225389)
(-0.22204 0.341738 -0.218127)
(-0.270652 0.383581 -0.229209)
(-0.267918 0.368897 -0.25527)
(-0.190383 0.316439 -0.221882)
(-0.185367 0.321186 -0.209487)
(-0.19161 0.308859 -0.227575)
(-0.203515 0.329443 -0.216766)
(-0.174514 0.305662 -0.237114)
(-0.175348 0.332016 -0.283476)
(-0.177254 0.324845 -0.26421)
(-0.219882 0.365087 -0.283859)
(-0.215181 0.352075 -0.270219)
(-0.239769 0.353551 -0.254824)
(-0.240532 0.381862 -0.283632)
(-0.182199 0.337094 -0.2786)
(-0.236894 0.361864 -0.240941)
(-0.222484 0.370921 -0.289265)
(-0.245319 0.880734 -0.454907)
(-0.240312 0.890399 -0.480477)
(-0.207703 0.859755 -0.454989)
(-0.232164 0.887668 -0.463836)
(-0.236445 0.88536 -0.468031)
(-0.332462 0.950735 -0.517694)
(-0.290397 0.935975 -0.512139)
(-0.257747 0.882758 -0.451671)
(-0.31255 0.946481 -0.530755)
(-0.407243 0.922159 -0.512719)
(-0.351813 0.926185 -0.484317)
(-0.272053 0.923792 -0.503036)
(-0.369569 0.968475 -0.542358)
(-0.390791 0.954517 -0.524559)
(-0.356431 0.928791 -0.494093)
(-0.39681 0.90606 -0.488532)
(-0.419867 0.897842 -0.501973)
(-0.374565 0.937221 -0.508299)
(-0.385496 0.965453 -0.525477)
(-0.386832 0.929321 -0.469267)
(-0.312237 0.922658 -0.466754)
(-0.417183 0.889902 -0.481021)
(-0.418447 0.901954 -0.494601)
(-0.382189 0.94796 -0.522639)
(-0.551038 0.8591 -0.4777)
(-0.578559 0.903605 -0.485623)
(-0.535243 0.865428 -0.462892)
(-0.514265 0.847029 -0.451629)
(-0.610412 0.910122 -0.469254)
(-0.622017 0.89609 -0.463855)
(-0.622201 0.888758 -0.459544)
(-0.625892 0.869297 -0.453315)
(-0.580389 0.864861 -0.439973)
(-0.576992 0.878132 -0.422632)
(-0.600722 0.878575 -0.429161)
(-0.583807 0.874908 -0.421241)
(-0.61267 0.904837 -0.435492)
(-0.631447 0.885786 -0.432524)
(-0.614068 0.900581 -0.456974)
(-0.542482 0.860849 -0.431043)
(-0.591976 0.891732 -0.423886)
(-0.563829 0.885934 -0.45479)
(-0.575476 0.883282 -0.433422)
(-0.307139 0.370221 -0.242213)
(-0.345093 0.386103 -0.241317)
(-0.346902 0.407842 -0.231695)
(-0.293249 0.365256 -0.22943)
(-0.303981 0.382329 -0.253477)
(-0.339815 0.437378 -0.215123)
(-0.264968 0.354711 -0.214196)
(-0.375222 0.433887 -0.25587)
(-0.351537 0.419263 -0.247149)
(-0.339706 0.379721 -0.247536)
(-0.372219 0.407663 -0.254052)
(-0.386491 0.444085 -0.234751)
(-0.284228 0.35724 -0.233478)
(-0.275376 0.369455 -0.202996)
(-0.328557 0.415978 -0.216507)
(-0.41428 0.477765 -0.260062)
(-0.376954 0.452751 -0.246825)
(-0.508366 0.977748 -0.530488)
(-0.518923 0.987389 -0.523281)
(-0.486753 0.984669 -0.546561)
(-0.501611 0.992115 -0.552371)
(-0.521019 0.987287 -0.520254)
(-0.506938 0.990589 -0.528486)
(-0.495423 0.992341 -0.551446)
(-0.516724 0.982454 -0.53973)
(-0.450266 0.967958 -0.516047)
(-0.468414 0.979646 -0.514939)
(-0.451542 0.969867 -0.530461)
(-0.460576 0.967871 -0.521148)
(-0.512015 0.990684 -0.527198)
(-0.483232 0.991868 -0.552913)
(-0.459582 0.978469 -0.549273)
(-0.463452 0.984823 -0.566425)
(-0.4678 0.971835 -0.521926)
(-0.456069 0.964504 -0.522443)
(-0.451042 0.978717 -0.548398)
(-0.495793 1.02218 -0.552276)
(-0.44601 0.977171 -0.556251)
(-0.426474 0.95235 -0.53449)
(-0.281906 0.787721 -0.282299)
(-0.25532 0.771967 -0.275475)
(-0.252365 0.788213 -0.29466)
(-0.233113 0.745087 -0.270704)
(-0.413379 0.860454 -0.38562)
(-0.392355 0.892909 -0.399587)
(-0.344043 0.821941 -0.306968)
(-0.383361 0.817038 -0.328591)
(-0.278708 0.808327 -0.288058)
(-0.235865 0.772573 -0.285667)
(-0.204822 0.763855 -0.297957)
(-0.266644 0.842536 -0.34848)
(-0.231166 0.814309 -0.324635)
(-0.422682 0.887892 -0.415893)
(-0.416837 0.880379 -0.424012)
(-0.408123 0.885353 -0.406681)
(-0.360597 0.848652 -0.347602)
(-0.370476 0.821484 -0.326178)
(-0.307476 0.863936 -0.34786)
(-0.28924 0.882782 -0.384415)
(-0.269128 0.845605 -0.341701)
(-0.309157 0.885464 -0.400872)
(-0.268588 0.850871 -0.36345)
(-0.41116 0.879894 -0.407148)
(-0.429194 0.858106 -0.389134)
(-0.373863 0.868772 -0.365662)
(-0.160127 0.411205 -0.357945)
(-0.164663 0.410409 -0.357861)
(-0.15875 0.399021 -0.353227)
(-0.168902 0.458346 -0.388759)
(-0.14245 0.418307 -0.370505)
(-0.142229 0.37068 -0.339728)
(-0.136726 0.419139 -0.368901)
(-0.145453 0.471726 -0.408719)
(-0.0887849 0.352416 -0.331993)
(-0.100983 0.349309 -0.331238)
(-0.0967167 0.386387 -0.351468)
(-0.111689 0.371308 -0.348986)
(-0.0769046 0.397734 -0.360564)
(-0.0951463 0.466617 -0.404894)
(-0.0965998 0.341536 -0.322245)
(-0.0772063 0.323145 -0.30199)
(-0.0967984 0.417964 -0.382407)
(-0.0802004 0.419792 -0.376977)
(-0.070794 0.356848 -0.333636)
(-0.109121 0.22773 -0.182778)
(-0.105844 0.22129 -0.172904)
(-0.100607 0.229135 -0.190583)
(-0.101995 0.249049 -0.227168)
(-0.139158 0.296169 -0.252526)
(-0.0896054 0.214736 -0.189764)
(-0.0880295 0.200728 -0.168674)
(-0.108564 0.23898 -0.204526)
(-0.095748 0.2145 -0.186458)
(-0.125296 0.251579 -0.206727)
(-0.173943 0.376474 -0.188958)
(-0.227879 0.473316 -0.218962)
(-0.217743 0.553411 -0.417647)
(-0.226539 0.595039 -0.430694)
(-0.229955 0.559982 -0.417357)
(-0.224518 0.629879 -0.44533)
(-0.181486 0.575713 -0.443342)
(-0.184864 0.54361 -0.445226)
(-0.209329 0.561901 -0.428026)
(-0.178921 0.534687 -0.436001)
(-0.201031 0.635596 -0.446335)
(-0.19895 0.655805 -0.454656)
(-0.362642 0.967109 -0.579519)
(-0.355157 0.944365 -0.57112)
(-0.403985 0.95703 -0.56222)
(-0.434836 0.980291 -0.570589)
(-0.404231 0.959921 -0.567528)
(-0.396865 0.954361 -0.563455)
(-0.343554 0.909813 -0.552842)
(-0.368654 0.955495 -0.56898)
(-0.383381 0.963753 -0.585367)
(-0.428453 0.967258 -0.580053)
(-0.377701 0.975712 -0.580395)
(-0.390819 0.97345 -0.57473)
(-0.451977 0.965488 -0.555645)
(-0.390202 0.960738 -0.558847)
(-0.473962 0.987438 -0.566239)
(-0.452743 0.991069 -0.571092)
(-0.436403 0.965971 -0.555283)
(-0.425276 0.965932 -0.558338)
(-0.430949 0.962014 -0.560283)
(-0.480678 0.963461 -0.560858)
(-0.481033 0.956312 -0.54594)
(-0.481325 0.985854 -0.563121)
(-0.429585 0.986417 -0.576808)
(-0.459199 0.987017 -0.55972)
(-0.487788 0.982161 -0.556152)
(-0.535641 0.368373 -0.277693)
(-0.516367 0.358614 -0.274327)
(-0.433087 0.371182 -0.204937)
(-0.401038 0.345405 -0.200692)
(-0.542859 0.413922 -0.244155)
(-0.460895 0.387603 -0.198328)
(-0.449942 0.365447 -0.199861)
(-0.391512 0.334432 -0.203265)
(-0.438412 0.375403 -0.19888)
(-0.477012 0.387587 -0.221196)
(-0.430345 0.359499 -0.209996)
(-0.545697 0.417511 -0.238457)
(-0.424566 0.351373 -0.21268)
(-0.443932 0.34007 -0.239876)
(-0.661482 0.806169 -0.377078)
(-0.66365 0.788816 -0.399195)
(-0.649878 0.800229 -0.373034)
(-0.654789 0.833061 -0.372022)
(-0.643031 0.814314 -0.375718)
(-0.691898 0.854259 -0.415182)
(-0.623008 0.788089 -0.391872)
(-0.652147 0.794148 -0.414312)
(-0.619687 0.78986 -0.40734)
(-0.652643 0.835632 -0.403915)
(-0.707967 0.831659 -0.446312)
(-0.713486 0.825278 -0.440372)
(-0.669799 0.806392 -0.407492)
(-0.656717 0.826874 -0.4231)
(-0.629673 0.809812 -0.415367)
(-0.714017 0.808188 -0.516547)
(-0.678699 0.83852 -0.517422)
(-0.671584 0.832642 -0.523422)
(-0.671583 0.856073 -0.515276)
(-0.654647 0.851264 -0.522615)
(-0.650476 0.85839 -0.521857)
(-0.622046 0.847064 -0.509166)
(-0.569431 0.830924 -0.496893)
(-0.517929 0.825404 -0.499786)
(-0.521494 0.832782 -0.49097)