/*--------------------------------*- C++ -*----------------------------------*\
| =========                 |                                                 |
| \\      /  F ield         | OpenFOAM: The Open Source CFD Toolbox           |
|  \\    /   O peration     | Version:  v1612+                                |
|   \\  /    A nd           | Web:      www.OpenFOAM.com                      |
|    \\/     M anipulation  |                                                 |
\*---------------------------------------------------------------------------*/
FoamFile
{
    version     2.0;
    format      ascii;
    class       surfaceScalarField;
    location    "206";
    object      phi;
}
// * * * * * * * * * * * * * * * * * * * * * * * * * * * * * * * * * * * * * //

dimensions      [0 3 -1 0 0 0 0];

internalField   nonuniform List<scalar> 
41632
(
3.76016e-09
-1.08723e-08
1.14984e-08
-4.38627e-09
-1.3526e-08
1.17605e-08
-5.65086e-09
7.41643e-09
-1.08484e-08
2.65299e-09
-5.33068e-09
-1.25424e-08
-6.20488e-10
-5.04571e-09
1.82086e-08
-2.41186e-09
-1.22713e-08
2.14073e-09
4.99779e-09
-1.02905e-08
8.88294e-09
-3.59022e-09
1.61378e-08
-1.64905e-08
5.49108e-10
-1.16664e-08
1.12851e-08
-4.66448e-09
-1.32648e-08
-8.13393e-10
5.7186e-09
-1.08032e-08
-5.76379e-09
-1.40951e-08
3.32323e-09
-7.17944e-09
-2.43884e-09
-4.61028e-09
8.35406e-09
-1.78389e-08
4.8663e-09
-2.02797e-08
1.4576e-10
-6.79736e-09
1.50057e-08
-7.41285e-09
-5.70623e-09
-9.72599e-09
-1.08112e-08
1.57368e-09
2.4862e-09
6.75133e-09
3.49257e-09
-3.82618e-09
-1.04776e-08
-1.18628e-08
4.73772e-09
8.69881e-09
-4.07739e-11
-8.32951e-09
-3.30288e-09
1.05282e-09
4.73626e-09
-4.70151e-09
-1.31576e-09
2.71439e-09
8.44233e-09
-2.40999e-09
-6.07311e-09
3.91484e-09
9.26521e-09
-2.48318e-09
7.45084e-09
4.09187e-09
-1.55445e-09
-5.0206e-09
-1.26784e-09
-7.25985e-09
-5.10638e-10
1.54553e-09
2.03211e-09
-3.067e-09
1.85668e-09
-3.63516e-09
3.40538e-09
-3.16942e-12
-4.50095e-09
8.03311e-09
3.91869e-09
-7.68186e-10
3.59103e-10
5.35168e-10
-5.39848e-09
-5.13021e-09
3.36066e-09
4.70332e-09
-2.93376e-09
-4.67828e-09
-3.93847e-10
-5.80856e-11
-5.32731e-10
-6.40235e-09
3.63222e-10
6.57186e-09
-5.17766e-09
-3.33451e-11
7.2924e-09
-6.86421e-09
-4.00749e-09
3.5793e-09
3.33238e-09
6.34853e-09
-2.38851e-09
-2.96098e-09
-7.37224e-10
7.05886e-09
-4.36997e-09
-4.06726e-09
5.47624e-09
-4.63832e-09
-1.25495e-10
1.33219e-09
-9.16863e-10
-5.59299e-09
7.44331e-10
-5.81449e-09
-2.92639e-09
5.52155e-09
-3.21898e-09
-1.56943e-09
7.2116e-10
-4.0017e-09
-3.85559e-09
-9.88705e-10
-5.13117e-09
-4.76112e-09
-4.95113e-09
4.36348e-09
5.34878e-09
-1.53198e-09
-4.21784e-09
-3.82926e-10
-6.10019e-09
-1.32349e-10
-5.30149e-09
2.75776e-09
3.4715e-09
-1.19967e-09
-5.02959e-09
3.69551e-09
6.00168e-10
-1.53791e-09
-3.12551e-09
2.54125e-09
4.27977e-09
4.19666e-10
-7.36758e-11
-3.48778e-09
3.39421e-09
-4.68725e-09
4.78081e-09
-3.1241e-09
5.59884e-11
3.04309e-09
-3.28941e-09
6.97479e-09
-6.72847e-09
5.61555e-09
-1.97229e-09
3.61342e-09
-8.1025e-09
-2.81898e-09
8.75444e-09
7.15633e-09
-6.667e-09
2.80448e-09
-3.35405e-10
7.48755e-09
2.29172e-09
1.02841e-08
-3.39983e-09
3.85022e-09
-1.53468e-09
1.08429e-09
2.59533e-09
-4.11219e-09
-1.88297e-09
7.50463e-09
-7.51635e-09
3.83104e-09
-3.81932e-09
-2.22035e-09
3.09569e-09
2.97489e-09
3.30445e-10
4.45272e-11
-4.42575e-09
2.64141e-09
8.58011e-09
-6.79577e-09
-9.93464e-11
3.17822e-09
-1.12016e-09
6.85725e-09
-3.79403e-10
4.8827e-09
4.90418e-10
-4.99372e-09
2.43157e-09
-2.79206e-09
-1.89077e-11
-2.62807e-09
-2.80985e-09
4.31776e-09
1.33942e-10
1.97351e-09
-1.17986e-09
5.5283e-09
2.01679e-09
-6.36522e-09
1.9666e-09
-3.28509e-09
1.38627e-10
-2.44076e-09
3.6186e-10
-3.23758e-09
5.31649e-09
4.80126e-09
-1.71373e-09
-2.48861e-09
-3.89e-09
6.74047e-09
-1.66559e-09
2.20668e-09
-3.93993e-09
3.39884e-09
3.89945e-09
-1.10712e-08
5.50619e-09
-3.86127e-09
4.07945e-09
-2.70679e-09
-1.56709e-09
2.96105e-10
-4.65259e-09
-3.2e-09
3.96258e-09
2.09683e-09
7.38996e-09
-5.58734e-09
4.62456e-09
-3.21049e-10
-1.12389e-09
-1.4252e-10
-1.38926e-09
-8.31237e-09
8.78488e-09
9.16758e-10
4.04303e-09
-9.06975e-10
-4.52531e-09
3.9959e-09
9.44346e-11
-4.73057e-11
-9.70434e-11
3.06476e-09
6.09148e-09
-9.0592e-09
-6.01499e-09
-4.34363e-09
6.02064e-09
4.33797e-09
-1.58514e-10
-5.40336e-09
-4.53121e-10
3.58513e-09
6.8068e-09
-1.0489e-08
-2.1914e-09
9.03783e-09
-8.00996e-09
1.16353e-09
7.44378e-09
-9.34901e-10
-8.70028e-09
1.92178e-09
8.07713e-09
-9.61084e-10
8.45117e-09
9.14393e-10
8.97861e-09
-6.85954e-10
1.13984e-09
-4.98963e-09
1.28284e-08
4.24139e-09
-5.48041e-09
-4.16433e-09
-6.43479e-11
-3.78913e-11
-2.61377e-09
9.77426e-09
-3.97244e-09
4.42343e-09
-4.08902e-11
-7.32229e-09
6.67264e-09
9.58218e-09
2.08572e-08
-2.3618e-08
-6.8213e-09
6.65531e-09
2.52213e-08
-2.22944e-08
-6.50607e-09
1.82235e-08
9.13971e-09
-1.88509e-08
-7.36376e-09
1.98326e-09
-4.37152e-09
-1.60952e-08
1.61577e-09
1.17005e-08
-2.96898e-09
-2.14539e-08
1.27224e-08
5.29783e-09
-1.72154e-08
1.84925e-08
-3.31235e-09
-9.88229e-09
-1.51332e-09
1.34997e-08
2.162e-08
-2.31009e-08
-2.89065e-09
-5.50177e-09
-2.2209e-08
-1.14339e-08
-1.40875e-08
-1.19783e-08
-7.88891e-09
3.77202e-09
-7.21444e-09
-2.73203e-08
-2.21617e-08
4.90919e-09
-8.9514e-09
1.07284e-08
-6.68619e-09
-4.75437e-09
-1.41005e-09
1.10736e-08
-2.27851e-08
1.18677e-09
6.03995e-09
1.55583e-08
8.50555e-09
-2.31527e-08
-8.1379e-09
-1.13166e-08
8.43267e-09
-1.87048e-09
3.04306e-09
2.77512e-09
-1.47696e-08
5.85011e-09
-1.41236e-08
2.61705e-08
6.25329e-13
-6.6136e-09
-1.95576e-08
1.91382e-08
8.21913e-09
-2.91235e-09
-1.70831e-09
1.53491e-08
2.10577e-09
-5.73249e-09
9.9881e-09
-6.36139e-09
1.57306e-08
-4.38506e-09
-9.23979e-09
-1.5199e-08
1.55064e-08
1.73926e-09
-1.7302e-08
1.51675e-08
-1.9006e-08
8.2274e-09
-1.42899e-08
-7.18855e-09
1.3251e-08
-3.54413e-09
-8.03688e-09
1.98084e-08
-5.46209e-09
-1.41134e-09
-6.36605e-09
-8.74215e-09
1.15641e-08
2.58318e-09
-3.57623e-09
1.09075e-08
-1.53682e-08
-7.21889e-09
7.35968e-09
4.55135e-09
-1.53465e-08
-1.8245e-09
6.64033e-09
2.76904e-09
-7.58487e-09
8.5871e-10
5.85683e-09
-8.54003e-09
-2.03542e-09
6.93968e-10
-3.68494e-09
5.0264e-09
4.47022e-09
-5.64693e-09
5.71542e-11
8.14856e-09
-1.56538e-09
7.22761e-09
-1.31363e-09
1.76728e-09
7.95578e-09
-2.49546e-09
-2.86196e-09
4.71032e-09
-8.10806e-11
7.3027e-09
-3.83969e-09
1.93119e-09
-3.22926e-10
-2.64174e-09
1.04056e-09
6.31151e-09
-1.60979e-09
6.92383e-09
8.56266e-09
-3.20547e-10
-8.21487e-09
-2.72494e-11
-3.41089e-09
2.0037e-09
9.96985e-09
5.36859e-09
-5.10939e-11
-5.63804e-09
4.95797e-09
4.97038e-09
-4.55976e-09
7.61221e-09
-8.52437e-09
-1.15394e-09
5.35526e-09
5.38483e-09
8.00222e-09
-1.46769e-08
3.35203e-13
1.12028e-08
3.47381e-09
8.1578e-09
-2.40063e-09
-1.37671e-08
6.9715e-09
2.25217e-10
4.38449e-09
-8.85135e-09
-1.02101e-08
-2.66021e-09
1.40162e-08
-8.19241e-09
6.23083e-09
1.96192e-09
5.68907e-09
-1.3338e-08
5.24827e-09
1.02244e-08
-2.42444e-09
-3.23273e-09
-4.56719e-09
8.83874e-09
-5.58671e-09
4.32341e-09
-9.70802e-09
-5.37352e-09
1.07581e-08
-4.71458e-09
8.51081e-09
5.27175e-10
7.25601e-09
9.82434e-10
-8.03336e-10
-7.43511e-09
2.80432e-09
-2.62891e-10
-3.33233e-10
-8.39236e-09
6.10408e-10
-1.88244e-09
9.78284e-09
8.06067e-09
-6.27304e-09
1.01669e-09
-9.99321e-10
9.6704e-09
8.16947e-09
4.1441e-10
-9.38721e-09
6.05352e-09
-4.15709e-09
1.21824e-09
1.06795e-08
-1.14833e-08
9.44817e-09
-8.56316e-09
-1.62627e-09
-1.72336e-08
1.78605e-08
-1.51511e-08
1.27238e-08
8.00992e-10
3.91273e-09
1.45119e-08
-7.74513e-09
-1.7902e-09
3.33182e-09
-3.47648e-09
-2.51881e-10
-4.47647e-09
8.20483e-09
-7.91786e-09
3.60642e-09
8.34961e-10
-1.16281e-08
6.6853e-09
-7.51772e-09
1.24605e-08
1.89279e-09
-1.32957e-08
1.11174e-08
-4.68394e-09
-7.89731e-09
1.03615e-09
8.75396e-09
1.97991e-08
-5.29124e-09
-9.39058e-09
-5.11726e-09
-1.70803e-09
1.39894e-08
1.07509e-08
-5.9109e-09
-6.35655e-09
1.51658e-09
-1.4753e-08
2.10274e-08
-1.12336e-08
-9.43023e-09
-2.30494e-09
-3.90409e-09
-1.70884e-09
-1.15891e-08
-6.9978e-09
-6.47582e-09
-3.72643e-09
2.04804e-08
-1.3296e-08
-1.6575e-08
1.24158e-08
-6.85987e-09
-8.27787e-09
-3.15753e-09
-1.49074e-08
-2.33134e-08
-4.76602e-09
-5.43546e-09
2.52107e-09
7.68041e-09
-2.85306e-09
-1.16863e-09
-7.44329e-10
-7.64765e-09
-3.94066e-09
6.15286e-09
-5.85251e-09
-4.6482e-09
6.00594e-09
-5.72752e-09
-1.44705e-09
-2.59314e-09
1.11202e-08
-3.43562e-09
9.00548e-09
-8.0394e-09
2.46954e-09
-6.93607e-09
-2.35206e-09
1.77708e-09
3.28774e-09
-4.40014e-09
-6.58408e-09
8.39107e-09
5.7033e-09
8.2919e-09
-3.02318e-09
-1.0972e-08
4.61123e-09
2.29546e-09
-1.2034e-09
7.17562e-09
2.48466e-09
-2.41472e-09
-8.10934e-09
-1.07878e-09
-3.37262e-09
-6.59914e-09
3.97609e-09
-2.75374e-09
-1.53487e-09
-5.2741e-10
-3.57455e-09
4.97081e-09
-7.91294e-09
-4.38207e-09
9.748e-10
3.90459e-09
-4.27555e-09
-6.0384e-10
3.48541e-09
-2.23771e-11
-2.48824e-09
-8.57063e-10
4.22645e-09
1.16031e-10
-1.11778e-09
4.1653e-09
3.30232e-09
2.25478e-09
3.45445e-10
-5.90254e-09
2.28124e-09
1.55854e-09
-5.37471e-10
-2.4245e-09
3.23746e-09
-8.35341e-10
-3.04558e-09
6.49643e-10
-9.23018e-11
-5.14195e-09
3.14764e-09
2.32263e-09
-5.2098e-09
1.43851e-09
1.42746e-09
-2.52053e-09
-4.8526e-11
-4.90024e-09
-2.39655e-10
2.82571e-09
2.31418e-09
1.04441e-09
-2.67365e-09
-3.271e-09
-2.43929e-09
6.64437e-10
-5.95007e-09
4.08484e-09
1.26138e-09
-2.58302e-09
4.64769e-09
-5.89388e-09
1.96874e-09
-4.67808e-09
9.20325e-12
-4.04977e-09
8.71864e-09
4.5203e-10
5.13372e-09
-1.02638e-08
2.61677e-09
-5.00682e-09
5.28028e-09
-2.89023e-09
-3.21427e-09
5.84024e-09
4.1187e-09
-6.88094e-09
-3.17113e-10
-4.82875e-09
1.39044e-10
-6.64929e-09
-2.32771e-10
6.56495e-09
3.62813e-09
-1.23203e-09
-6.44587e-09
-3.66457e-09
-8.69614e-10
-2.9457e-10
-3.30163e-09
-7.01223e-09
1.41358e-09
-9.13841e-09
4.4232e-09
-1.02601e-08
6.05356e-09
5.62013e-09
-5.44928e-09
-5.15782e-09
5.36758e-09
5.23952e-09
1.3195e-09
-8.22855e-09
1.45978e-09
1.07616e-08
-1.23609e-08
2.91873e-09
6.21845e-10
1.44148e-08
-4.27505e-09
1.44389e-09
7.81706e-09
-1.23371e-09
-8.02724e-09
7.64003e-09
-6.17961e-10
-5.57819e-09
3.42061e-09
-4.00913e-09
-1.90943e-09
1.72216e-10
-9.37624e-09
4.83243e-09
-1.71608e-09
7.7055e-09
-1.49045e-09
5.13491e-09
-4.26242e-09
-1.104e-08
1.54851e-10
8.11359e-09
2.77159e-09
-8.31558e-09
-7.15781e-09
4.43337e-09
-1.04058e-09
7.27316e-09
-7.72304e-09
7.58524e-09
-9.85953e-09
2.21508e-09
-8.39765e-09
6.33742e-09
-5.02017e-09
5.51917e-09
3.13251e-09
9.29682e-11
6.76655e-10
-1.40699e-09
8.1341e-09
-1.8428e-10
1.99781e-09
-2.26136e-09
1.10149e-10
4.58404e-09
4.91166e-09
-5.19339e-09
-4.3023e-09
5.9659e-11
4.56737e-09
-4.29946e-11
4.37947e-09
-4.70251e-09
4.83961e-09
-4.51658e-09
4.50525e-09
-6.61128e-11
-2.62021e-10
4.76265e-09
6.67474e-11
-1.98114e-10
4.84775e-09
7.56394e-10
-1.06523e-08
3.96229e-09
9.50921e-10
-7.35947e-11
4.71514e-09
3.75239e-09
1.15279e-09
4.15728e-09
-5.47421e-10
1.05814e-08
-8.6471e-09
-2.36734e-09
4.33043e-10
2.26454e-09
9.15444e-09
-8.37583e-10
9.21713e-10
-8.22037e-09
9.5632e-09
-6.31887e-10
-5.70593e-09
7.25953e-09
5.23604e-09
4.10249e-09
-1.49027e-08
2.57985e-09
-6.40707e-09
4.80363e-09
-4.74325e-09
-7.12896e-10
-7.25782e-09
9.92646e-09
-7.41189e-09
8.27771e-09
-1.47791e-08
-5.96123e-09
9.84982e-10
-6.33061e-09
2.09981e-08
4.97519e-09
-9.0291e-09
-1.69442e-08
1.00871e-08
6.78124e-09
4.12979e-09
1.44727e-08
-1.31466e-09
-8.1828e-09
1.46775e-08
-9.91147e-09
1.18111e-08
4.88158e-09
6.54574e-09
1.68073e-08
-8.6756e-09
9.25514e-09
-3.09059e-09
-1.51937e-08
3.70529e-09
-4.36162e-09
-3.02316e-09
1.03569e-08
-3.6284e-09
9.44157e-09
-7.04015e-09
-5.42458e-09
-8.4787e-09
-1.09007e-08
1.80647e-08
4.98613e-09
-7.46156e-10
7.57116e-09
-5.37588e-10
1.20695e-08
6.64353e-09
5.73291e-09
-1.5467e-08
5.38998e-09
1.89336e-09
2.15823e-09
9.1689e-09
6.57793e-09
7.47576e-09
-7.87238e-09
3.43967e-09
4.98307e-09
-5.3329e-09
8.23499e-09
6.22305e-09
-1.35202e-08
7.08155e-09
2.1563e-10
-9.50663e-09
1.03968e-08
1.07087e-08
-3.56953e-10
-2.87595e-09
3.0954e-09
9.86333e-09
-1.26091e-08
-4.01386e-09
9.63603e-09
1.26759e-09
-1.14187e-08
5.15115e-10
3.64664e-09
-3.77617e-09
9.76556e-09
-5.96819e-09
-9.03643e-11
9.70519e-09
-6.30042e-09
1.59983e-09
-2.12025e-09
-4.67013e-09
2.31018e-09
4.48021e-09
9.75746e-10
-7.35151e-09
4.25552e-09
-7.17714e-09
4.37672e-09
-1.03081e-08
-8.2878e-09
1.71738e-09
-6.56006e-09
-2.50883e-09
-2.83216e-09
-1.20597e-10
-3.84028e-09
3.94467e-09
-4.51762e-09
4.41323e-09
-7.87898e-09
8.89437e-10
3.14926e-09
6.16448e-09
4.63558e-09
1.16424e-09
-9.71104e-10
-4.82871e-09
1.79316e-09
1.02591e-11
2.88614e-09
-7.74928e-09
-3.01585e-09
1.61689e-10
6.78087e-11
-5.46363e-09
-1.0681e-08
5.26998e-09
7.82531e-10
-9.50291e-09
-1.83833e-09
-8.40195e-09
-1.17368e-08
3.70039e-10
2.02763e-09
8.80614e-09
3.10003e-09
1.20307e-08
-1.15505e-08
3.48035e-09
1.11702e-08
9.19907e-09
-5.32967e-09
-1.97825e-08
1.94032e-10
2.30688e-08
4.15288e-10
-1.09987e-08
5.50987e-09
3.89381e-09
4.88875e-09
-1.99185e-09
1.46511e-08
-1.24652e-08
9.19939e-09
6.93521e-09
9.23517e-09
2.01133e-09
-4.20965e-09
-3.37847e-09
5.57679e-09
3.17024e-09
-1.17569e-09
1.67892e-11
-6.50219e-10
8.8187e-09
3.06503e-09
-1.12335e-08
-2.90126e-09
2.29168e-09
-7.06304e-09
7.67262e-09
1.00727e-10
5.2643e-09
-2.19479e-09
-5.08473e-10
-6.60244e-09
-1.25843e-08
2.87646e-09
9.05763e-09
-7.55658e-09
-2.73603e-09
-1.912e-09
-3.03674e-09
5.04947e-09
-6.81343e-09
7.77788e-09
-2.88497e-09
1.85422e-09
-1.44948e-10
-5.2486e-09
1.85516e-09
1.14892e-09
-2.18701e-09
-5.77533e-09
-3.35993e-11
-1.0882e-08
5.16208e-09
-2.76891e-09
8.48888e-09
-2.89644e-09
-7.48138e-09
-5.0423e-10
7.80942e-09
-7.74975e-09
-2.9561e-09
1.86421e-09
1.11073e-08
-3.30436e-09
-5.95237e-09
1.11209e-08
-2.65146e-09
-5.714e-09
5.0611e-09
-9.16363e-09
3.74325e-09
-5.02565e-09
-7.20511e-09
3.06713e-09
-2.88417e-09
-9.62286e-09
-2.09088e-10
3.94615e-09
-9.68943e-09
-9.23867e-09
3.31558e-09
7.52715e-09
1.23259e-09
1.38954e-09
-1.01493e-08
1.54808e-09
-3.94745e-09
9.92652e-09
6.09512e-10
3.52332e-10
-8.16695e-09
-1.20622e-08
2.46771e-09
3.39962e-09
6.19482e-09
3.83044e-09
-1.466e-08
-9.46567e-09
8.36514e-10
5.86389e-09
-6.90979e-09
2.43543e-09
-2.0537e-09
-1.1408e-08
6.1259e-09
-9.14149e-09
1.56398e-09
-1.46655e-08
5.53344e-09
-1.96725e-08
2.88045e-08
-9.57016e-09
-1.94504e-08
1.43551e-08
-2.25753e-08
2.63135e-08
1.10601e-08
-1.47984e-08
2.37227e-08
1.02349e-08
-1.36699e-08
-2.02877e-08
1.17233e-08
-5.64498e-10
1.25639e-08
-6.26284e-09
-1.0779e-08
-1.45067e-08
8.24669e-09
1.79833e-08
-4.85962e-09
5.87868e-10
1.22667e-08
1.34824e-08
-3.78073e-09
8.34918e-09
8.6866e-09
-1.32551e-08
8.81869e-09
-2.21696e-08
-1.09158e-08
2.10591e-08
-4.21114e-09
-5.93219e-09
1.4355e-08
-1.64521e-08
8.7291e-09
1.77453e-08
-5.41532e-09
1.70329e-08
6.05121e-09
8.63513e-09
-6.5488e-09
1.25894e-08
-8.11397e-09
9.53414e-09
2.63916e-09
2.34637e-08
-8.3624e-09
-6.46618e-09
1.36228e-08
1.34687e-08
-3.6278e-09
-6.59921e-09
-7.01896e-09
2.18649e-08
1.92902e-08
-1.74658e-08
1.54554e-08
1.15446e-08
-7.70229e-09
7.98182e-09
-1.12667e-08
1.54937e-08
2.14197e-08
-1.29833e-08
-1.95773e-09
-2.20024e-08
1.68213e-08
7.13877e-09
-2.54782e-08
6.45054e-09
1.70699e-08
8.68798e-09
-1.89634e-08
-1.52027e-08
-9.72416e-09
-3.59023e-09
-1.56531e-08
-6.5732e-09
1.25022e-08
4.89385e-09
1.22834e-08
1.20861e-08
-2.92633e-08
1.09601e-08
1.07873e-08
-1.68536e-08
4.13603e-09
-1.19258e-10
-1.96699e-08
-1.6563e-08
1.73559e-09
-1.64649e-08
-9.61808e-09
2.66931e-08
-6.10103e-10
-2.3413e-08
1.92315e-08
3.53788e-09
-1.72545e-08
1.35974e-08
5.99046e-09
-1.55291e-08
1.30765e-08
1.56985e-08
-1.8866e-08
-1.99681e-08
2.54557e-09
9.52376e-09
2.99637e-09
-1.07333e-08
-1.78682e-09
1.37916e-08
-1.48462e-08
1.05783e-08
-7.91967e-09
-7.25833e-09
1.85893e-08
-3.41128e-09
-4.32325e-09
-7.6622e-09
4.06578e-09
-1.01339e-08
1.66673e-08
-6.434e-09
-7.03582e-10
2.00959e-08
-1.15878e-08
-1.92414e-08
9.26422e-10
7.4534e-09
-4.00759e-09
1.28946e-08
-1.63404e-08
1.53402e-08
-1.14598e-08
3.573e-09
-1.60393e-08
-1.3661e-08
2.0894e-08
8.80631e-09
9.89176e-09
-2.21379e-09
8.69455e-10
5.06864e-10
-1.28361e-08
1.21991e-08
-1.58348e-08
4.57726e-09
-9.41522e-10
-1.33557e-08
1.50715e-09
5.41457e-09
-5.47699e-09
3.471e-09
-1.40333e-08
-5.93508e-09
-1.28976e-08
1.48073e-09
-1.85422e-08
2.2915e-08
-2.25393e-08
1.81665e-08
-9.15076e-09
5.16819e-09
-1.45596e-08
-2.20802e-09
-1.72832e-08
1.16023e-08
1.24591e-08
8.24788e-09
-2.00817e-08
-4.25683e-11
-2.41505e-09
-4.43825e-09
-2.47942e-08
9.641e-11
-1.22114e-08
1.57263e-08
1.06528e-09
-2.12299e-08
1.7615e-08
-1.93125e-09
-4.62621e-09
1.03184e-09
2.12094e-08
-2.04648e-08
-5.61533e-09
-4.16626e-09
1.43732e-08
-1.01105e-08
2.28864e-08
-6.53104e-09
-2.05216e-08
1.50978e-08
-1.68042e-08
-2.11263e-08
1.74658e-08
-7.5567e-09
-1.57786e-08
-2.76177e-08
3.91771e-10
-2.07539e-08
7.046e-09
1.33161e-08
-1.87918e-08
6.64805e-09
1.25355e-08
-2.65379e-09
8.59303e-09
1.05113e-08
2.53345e-09
9.77716e-09
-9.35153e-09
-1.92174e-08
-1.36002e-08
-1.57876e-08
2.44561e-08
4.93174e-09
1.40378e-08
-1.08166e-08
-1.35374e-08
6.41071e-09
1.37748e-08
8.38747e-09
-7.10522e-09
-4.03359e-09
2.7334e-10
-9.34335e-09
1.61253e-08
1.76741e-08
6.60881e-10
4.47232e-09
-1.79439e-08
2.05176e-08
2.70083e-08
9.54791e-10
1.31907e-08
1.08172e-08
-1.33795e-08
-1.06284e-08
1.07335e-08
-1.20693e-09
3.66411e-09
1.05195e-08
4.87035e-09
-4.57263e-09
1.19397e-08
9.31333e-09
1.1653e-08
-4.64186e-09
-2.14083e-09
4.94295e-09
5.24479e-09
1.75194e-09
7.83945e-09
8.75654e-09
1.20289e-08
3.59051e-09
-1.68263e-08
9.74707e-09
-1.04582e-08
-2.78011e-09
3.49126e-09
-4.88083e-09
9.98604e-09
-2.22517e-09
1.75685e-08
-7.50389e-09
-6.91538e-09
9.93499e-09
-6.07611e-09
1.11896e-08
1.67687e-09
-1.54631e-08
7.71013e-09
1.16861e-09
1.11157e-08
-1.27851e-08
5.00808e-10
-1.4484e-08
1.37889e-08
1.86369e-09
-1.07525e-08
-8.22023e-10
-8.58438e-09
9.94935e-09
1.79831e-08
1.10535e-08
-1.29599e-08
-1.60767e-08
3.30356e-09
-4.3168e-09
1.89963e-08
-1.25768e-09
-1.47571e-09
1.38491e-08
-3.01723e-08
-4.61539e-10
2.6317e-08
-6.41263e-09
-1.27062e-08
1.01749e-08
8.45867e-10
-4.0825e-10
-2.42753e-09
-2.02142e-08
2.50912e-09
1.72436e-08
-1.42418e-08
-1.23851e-08
7.05803e-09
-9.87984e-09
7.90834e-09
-5.08653e-09
1.68769e-08
1.34068e-09
-1.11596e-08
-1.35708e-08
1.46042e-08
1.22358e-08
-9.35345e-09
1.26596e-08
-1.85335e-09
-5.3718e-09
8.22577e-09
-1.1098e-08
8.24403e-09
1.87966e-09
-1.15232e-08
4.27178e-09
1.20606e-08
-1.71132e-08
6.93223e-09
-8.62425e-10
-1.02988e-08
2.32218e-08
6.41404e-10
-8.81755e-09
-3.3471e-09
1.53474e-08
-7.98404e-09
-1.31989e-08
-1.0542e-09
3.15511e-09
-9.37769e-09
-3.17981e-09
-1.4791e-08
3.0377e-09
4.07328e-09
7.67998e-09
7.37409e-10
-1.16792e-08
-3.8492e-09
-8.97773e-10
-1.16833e-08
-4.53206e-09
2.65371e-08
-1.89264e-08
-8.50849e-09
-9.34356e-09
2.55819e-08
-1.40877e-08
1.85805e-09
-6.69673e-09
-1.25594e-09
-1.7068e-08
4.23625e-09
9.89506e-09
-1.62009e-08
-1.31943e-08
9.64088e-09
7.62667e-09
-2.46577e-09
-9.99109e-09
-1.23342e-08
-8.16666e-09
-3.02585e-09
-8.81762e-09
-1.6616e-08
-5.76319e-10
3.28271e-09
-1.37098e-08
3.03845e-09
-1.42371e-08
1.06224e-08
-2.8134e-09
-1.09956e-09
-7.85189e-09
-9.96209e-09
1.01871e-08
-8.84962e-09
-5.67866e-10
-1.35689e-08
-1.00341e-10
-1.35033e-08
-7.74349e-10
-8.93351e-09
-7.62058e-09
8.7022e-09
5.60318e-09
-2.04984e-08
5.96169e-09
-1.32184e-08
8.85946e-09
-2.99918e-09
-1.07944e-08
4.94392e-09
-3.20298e-09
-1.11893e-08
8.8897e-10
-1.3402e-08
2.7822e-09
-5.37359e-09
8.69155e-10
-8.89752e-09
5.37534e-09
3.12499e-10
-1.10614e-08
-5.90434e-09
8.90797e-10
-1.16835e-08
-2.31389e-09
-4.1656e-09
-6.6487e-09
4.53797e-09
4.46883e-09
-8.20929e-09
-9.35555e-10
-1.65136e-09
-6.92697e-09
9.51388e-09
-1.36913e-09
-4.08444e-09
4.51802e-09
6.51329e-09
2.61548e-09
-6.2877e-09
-2.84107e-09
1.55716e-09
-1.69498e-10
5.12563e-09
-4.0824e-09
4.27043e-09
-1.58239e-09
1.15478e-10
-2.24797e-09
-8.24777e-09
8.84438e-09
1.54388e-09
-5.44141e-09
-3.02944e-09
-2.44551e-09
-9.50537e-11
-9.69573e-09
7.27827e-09
-2.42386e-09
-9.96932e-10
-4.82697e-09
-4.40429e-09
-9.66529e-09
1.16457e-08
-8.90075e-10
-4.73109e-09
-4.07456e-09
-3.65183e-09
-3.52595e-09
-3.89464e-09
-1.33259e-10
-3.41291e-09
-3.02543e-09
-2.87183e-09
-6.68623e-09
4.43062e-10
-6.96673e-09
-6.86449e-09
-1.35634e-08
4.13214e-09
1.10463e-08
-1.61507e-09
3.87841e-09
-4.01215e-09
-1.34296e-08
-9.24284e-09
2.88481e-09
3.7637e-09
2.59433e-09
-8.13637e-09
8.15014e-12
-1.11462e-09
-1.47144e-08
1.71758e-08
1.67071e-09
-3.70923e-09
1.19752e-08
2.7803e-09
2.55118e-09
-2.382e-09
-1.24689e-08
7.70506e-09
-9.95055e-09
1.61342e-09
-1.80944e-08
-7.98304e-09
7.78694e-09
3.07992e-09
-2.88382e-09
3.56741e-09
-9.93704e-09
7.70518e-09
-2.1126e-09
1.15832e-08
7.05699e-09
4.68419e-09
2.34052e-10
2.43559e-09
1.23266e-08
2.47012e-09
-7.03908e-09
8.89061e-09
-1.09552e-09
1.33225e-08
-2.53757e-09
4.16628e-09
7.04367e-09
-3.44888e-09
8.82972e-09
-2.94525e-09
-7.77957e-09
8.61872e-10
8.37369e-09
-1.456e-09
2.51964e-10
-4.358e-09
6.57616e-09
6.30228e-09
5.47314e-09
7.01968e-09
-4.97643e-09
-1.33017e-08
1.46577e-09
9.0819e-09
2.75404e-09
-7.13561e-10
-9.30819e-10
-1.16573e-08
1.17311e-08
-1.55991e-09
-1.08847e-08
9.81811e-09
1.40682e-09
5.06162e-10
1.3947e-08
4.08288e-09
1.13299e-08
1.0019e-08
8.88099e-09
1.0844e-08
-1.19031e-08
5.56956e-10
1.47729e-08
-8.25489e-09
2.55357e-10
-8.05078e-10
8.80461e-09
-3.2172e-10
-9.61424e-09
1.68107e-09
-8.38243e-09
9.19474e-09
-1.01384e-08
1.43425e-09
8.88038e-09
-8.1748e-09
6.7296e-10
9.7208e-09
-1.73883e-08
-1.32037e-08
2.25378e-08
8.05421e-09
-2.79488e-09
4.23468e-09
-1.58184e-08
1.43785e-08
-9.98832e-09
-6.73223e-10
-6.51991e-09
1.71815e-08
1.19121e-09
-2.13744e-08
2.52241e-08
2.35432e-09
-2.33437e-08
1.60013e-08
1.33453e-08
-4.12259e-09
-1.5539e-08
1.28991e-08
-7.34844e-09
8.51391e-09
-2.82876e-08
3.99507e-09
2.99169e-09
-1.73394e-08
2.29529e-08
-1.02895e-09
-1.95696e-08
6.4115e-09
-1.84192e-08
-1.1352e-08
1.93708e-08
-1.60725e-09
-9.10572e-09
1.3755e-08
7.61107e-09
6.23609e-09
-1.40874e-08
-1.30113e-09
1.99594e-08
-1.79966e-08
-1.7643e-08
6.83491e-09
-1.1771e-08
3.28002e-09
4.77051e-09
-1.4726e-09
4.48371e-09
-3.81928e-10
-8.21754e-10
-6.4197e-09
5.6586e-09
3.33389e-09
4.43209e-09
4.14776e-09
-1.00525e-08
-1.43769e-09
-3.69766e-09
-1.99694e-09
-8.4466e-09
1.16647e-09
7.72589e-09
-3.52835e-09
-5.36401e-09
1.14347e-08
-6.16561e-09
4.30834e-09
-9.5774e-09
9.71534e-09
1.71648e-09
2.84311e-12
5.64185e-09
-1.06134e-08
-1.19411e-09
1.08129e-08
-4.00459e-09
-1.04225e-08
1.63556e-08
1.79284e-09
1.31106e-08
-9.38867e-09
-1.41445e-08
1.90583e-09
4.96507e-10
7.31301e-09
1.05588e-08
1.97059e-09
-8.81291e-09
4.27174e-09
9.03603e-09
-4.49486e-09
-7.98443e-09
5.69337e-10
-1.39782e-09
-9.86867e-09
-2.70784e-09
1.68483e-08
-7.45537e-09
-7.3752e-09
4.9619e-09
3.92281e-09
4.97738e-09
-1.60316e-08
1.02614e-08
9.69303e-09
-2.00409e-09
-9.1689e-10
8.65595e-10
1.07434e-08
-4.61197e-09
-6.99698e-09
-8.31683e-09
8.09984e-09
2.12281e-09
-3.14289e-09
-4.80084e-09
-6.278e-09
1.38315e-08
1.09176e-08
-2.17836e-09
-1.08717e-09
5.72679e-09
3.62765e-09
3.38502e-09
1.39867e-08
2.65254e-10
-4.46127e-09
-9.7907e-09
-6.50348e-09
1.37045e-08
6.78573e-09
1.73338e-08
-5.22682e-09
-1.18417e-08
9.3423e-09
2.3825e-10
7.75321e-09
1.17788e-08
-3.87902e-09
-1.2361e-08
5.44702e-09
-1.71721e-10
7.99373e-09
1.5053e-08
-6.84127e-09
-1.47887e-09
1.37672e-08
-8.3639e-09
9.81908e-09
-8.29645e-09
-1.68228e-08
7.67234e-09
1.8156e-08
-5.39951e-09
3.76871e-09
-2.43545e-09
9.49548e-11
-1.23379e-08
1.71643e-08
-7.37773e-09
3.58598e-09
2.70475e-09
-1.16872e-08
2.24406e-09
1.32119e-08
-1.69918e-08
1.22228e-08
7.37695e-09
-1.26654e-10
-1.94731e-08
7.33654e-09
-1.62296e-09
6.5092e-09
-6.1998e-09
4.97318e-09
5.2562e-09
-4.07905e-09
-8.18246e-09
7.36203e-09
-4.07255e-09
4.89297e-09
5.10839e-09
-1.34175e-08
-1.51774e-09
-4.70938e-09
-5.60819e-11
-1.69965e-11
9.38919e-09
-5.79854e-09
-5.40991e-11
3.32991e-09
4.6649e-09
-4.00465e-09
-3.99016e-09
-5.83924e-10
3.8193e-09
9.45292e-11
-2.93185e-09
4.28965e-09
-4.8115e-09
3.4537e-09
-3.51543e-09
-3.45901e-13
5.76837e-09
8.80964e-11
-1.19157e-09
3.67152e-09
2.44461e-09
-3.08333e-09
4.92837e-09
-4.63189e-09
1.90907e-09
-1.39176e-09
-4.03274e-09
4.24128e-10
-3.32656e-09
-2.6008e-09
4.96193e-09
-6.99302e-09
-6.66602e-09
9.81894e-10
1.11376e-09
-6.51016e-09
-2.18982e-09
-4.05208e-09
-7.82876e-09
6.7527e-09
8.99035e-10
9.20795e-10
6.4242e-09
2.98988e-09
1.32565e-08
-4.10197e-10
-1.274e-09
7.67547e-09
-5.99128e-09
-1.40263e-09
-4.99445e-09
5.98687e-09
2.27161e-09
6.16231e-09
-7.51312e-09
6.37236e-09
-5.50337e-09
1.20461e-08
-1.03303e-08
-3.1482e-09
-2.04281e-09
1.96564e-10
-5.26215e-09
2.06328e-09
5.06731e-11
-1.96834e-09
-3.72511e-09
3.62667e-10
5.33078e-09
-1.87494e-09
-5.21878e-09
5.12537e-09
1.47554e-09
-9.77729e-09
7.24756e-09
-5.66155e-09
2.0579e-08
-1.2722e-08
3.33257e-09
3.8585e-10
1.04921e-08
9.70105e-09
1.59835e-08
-1.2553e-08
4.98829e-09
-8.41885e-09
7.99952e-09
8.36988e-09
-6.72867e-09
-1.85463e-08
-1.48114e-08
-1.06134e-08
2.87574e-08
2.00984e-08
-9.59363e-09
-5.51646e-09
6.17601e-09
8.84065e-09
-2.17453e-08
-8.20218e-09
8.44533e-09
7.75636e-09
1.16128e-08
2.83423e-10
1.03333e-08
1.1e-08
-6.94513e-09
-1.43882e-08
-2.05389e-09
2.01126e-08
-7.72539e-09
-2.36092e-08
1.49739e-08
-1.13692e-08
1.06162e-08
1.12318e-08
1.04945e-08
-1.01135e-08
1.76233e-08
-4.09172e-09
-1.96119e-09
2.76703e-09
3.28588e-09
-3.55904e-09
-5.99172e-10
6.64944e-11
2.14347e-09
-2.24771e-09
-3.45479e-09
1.98785e-10
-1.65094e-11
3.50574e-10
-5.93235e-09
3.33406e-09
3.22535e-09
2.211e-09
-5.08578e-09
-3.76897e-10
3.04662e-09
5.55624e-10
1.9045e-09
-7.0387e-11
-5.06207e-09
4.21331e-10
7.40777e-09
-1.76763e-09
7.02845e-10
-3.99728e-09
-5.58548e-09
3.77587e-09
7.1221e-09
-5.3125e-09
-5.8439e-09
3.30504e-09
2.04224e-09
6.10414e-11
6.23944e-09
1.76499e-08
-2.60584e-09
-7.67296e-09
-7.37112e-09
1.31392e-08
1.97476e-09
2.53592e-09
-7.62102e-10
1.88701e-09
1.20143e-08
-1.00145e-08
9.21934e-10
8.3305e-09
-1.18949e-08
3.85515e-09
1.8449e-09
-1.19337e-08
-1.80613e-09
-4.86913e-11
1.54241e-08
-1.34884e-08
-3.33689e-09
2.70924e-09
1.09389e-08
-1.03113e-08
6.87491e-09
-1.12359e-08
1.02407e-09
-1.00263e-08
1.4905e-09
9.45769e-09
2.41209e-11
-8.20547e-09
-6.24827e-09
-8.29127e-09
9.57072e-09
-6.20653e-09
-6.54944e-10
-9.27283e-09
1.20934e-08
-1.04935e-08
-1.09123e-08
1.23541e-08
9.42703e-09
7.94253e-09
-6.43064e-09
-7.52872e-10
8.18481e-10
9.36142e-09
-1.26224e-10
-4.29819e-09
2.95662e-09
1.09636e-09
2.54798e-09
7.67771e-09
9.20683e-09
-1.25872e-08
-4.2973e-09
3.14948e-09
7.92446e-09
-3.39622e-09
5.00257e-09
-9.44742e-09
-1.20862e-08
-2.54229e-09
-3.47155e-10
-1.87765e-09
-2.55366e-09
1.42883e-08
-1.1448e-08
1.94035e-08
-2.22438e-08
-1.25884e-08
-8.17632e-09
3.5053e-08
-1.41639e-08
1.40882e-08
-1.25127e-08
3.85192e-10
-2.59971e-08
1.62613e-08
-2.91312e-08
1.35897e-08
-5.44232e-09
8.66825e-09
4.18641e-09
4.07607e-10
1.10194e-08
2.6612e-09
2.73057e-09
1.87076e-08
-1.41544e-08
1.67117e-09
5.12411e-09
-9.6791e-09
-2.91956e-09
9.7741e-09
-1.96705e-09
-4.88749e-09
2.05945e-08
-7.55748e-09
-1.59565e-08
1.91347e-08
1.12339e-08
1.26011e-08
-1.69747e-08
-3.18384e-09
5.26963e-09
9.00263e-09
-6.99065e-09
5.27978e-09
6.83499e-09
-1.05355e-09
-3.64245e-10
-5.57286e-09
7.25561e-09
4.87569e-09
-8.52486e-09
-3.60644e-09
6.73767e-09
-5.3561e-10
4.61009e-09
-1.70145e-09
6.61191e-09
4.73585e-09
1.13945e-08
4.97223e-10
-1.14468e-08
2.59623e-09
9.66266e-11
8.75395e-09
4.16002e-09
-1.17665e-08
-3.84028e-09
-7.19064e-09
2.50563e-09
7.28124e-09
-3.62987e-09
5.99247e-10
-1.85537e-08
4.46593e-09
1.41844e-08
-5.00361e-09
-8.64643e-09
-4.90365e-09
-7.87116e-09
-8.89898e-09
-8.65663e-10
-3.99523e-09
7.36653e-09
-7.92955e-09
1.15298e-08
4.28701e-09
-7.89259e-09
-2.42992e-11
5.09541e-09
7.71775e-09
7.18218e-09
-1.32564e-09
-1.35743e-08
-3.74565e-10
2.21154e-10
7.11666e-09
-3.09045e-10
-1.91665e-08
1.38168e-08
-1.48883e-09
4.80556e-09
-1.3177e-08
-2.75038e-10
-2.21897e-08
7.8287e-09
7.82955e-09
-1.65671e-08
1.31196e-08
-1.8467e-08
-8.08513e-09
9.35401e-09
-8.76351e-09
-5.96918e-11
-5.30807e-10
7.50027e-09
-1.07415e-08
1.25952e-08
-2.84564e-10
-6.46824e-09
2.49676e-09
4.25604e-09
2.85582e-09
4.35989e-09
8.34331e-09
9.91133e-10
-4.17854e-09
-5.1559e-09
-6.2132e-10
2.49639e-09
-4.00958e-09
-5.74075e-09
-3.32919e-09
-9.4439e-09
-6.35239e-09
4.29387e-09
1.43719e-09
-6.33653e-09
4.53481e-09
-4.55067e-09
-7.97972e-10
-5.31021e-09
8.96401e-09
-4.8619e-09
6.56068e-09
-5.21646e-10
-9.99342e-09
-5.16374e-09
-4.87786e-09
4.73138e-09
-4.90576e-09
-3.17668e-10
-4.6445e-09
4.07648e-09
-4.46213e-11
-6.50726e-11
4.96978e-09
-8.82061e-09
4.84649e-09
-4.78248e-09
-7.59897e-11
1.60273e-09
2.68401e-08
-9.21132e-09
1.75145e-08
-1.09386e-08
1.08416e-08
-7.28168e-09
2.32801e-08
2.6566e-08
1.82723e-08
-2.16857e-08
-5.79795e-09
1.92763e-09
9.06303e-09
-1.57158e-08
9.89833e-09
-9.30941e-09
-1.11158e-08
2.37279e-09
1.66366e-10
-9.88901e-09
7.34986e-09
6.35672e-09
2.10811e-09
-6.09205e-09
3.0406e-09
1.03034e-08
-1.31776e-08
3.62848e-10
9.20538e-09
-6.52763e-09
2.07066e-09
4.63285e-09
-3.4679e-10
-5.32438e-09
7.79535e-09
-6.19413e-09
1.07288e-08
4.67069e-09
1.07174e-08
-6.60821e-09
1.22857e-09
8.12029e-10
4.88471e-09
-6.92531e-09
-6.06641e-09
1.87732e-09
5.41766e-09
7.12825e-09
-2.20433e-10
8.36592e-10
-7.7444e-09
-2.22303e-09
-4.96148e-10
-9.22019e-09
1.19394e-08
-9.66189e-09
8.25089e-09
5.70879e-10
4.88706e-10
-7.68851e-09
6.62892e-09
-2.4126e-09
-3.77612e-09
1.22311e-10
-7.23309e-09
8.61426e-09
-4.08533e-09
3.98048e-09
-6.40872e-09
-8.92056e-11
9.63562e-09
8.72771e-10
-1.46472e-09
-1.00143e-08
1.81712e-09
-1.04928e-09
1.27403e-09
-8.87432e-10
3.56213e-09
2.79845e-09
1.97896e-09
-5.56303e-09
2.69663e-09
3.89635e-09
7.36315e-09
-9.28054e-09
-2.85537e-09
1.17917e-08
-5.03996e-09
7.72644e-09
4.94765e-09
1.05477e-09
1.19409e-09
-7.19651e-09
-3.46884e-10
5.79528e-09
-7.84831e-13
-5.44762e-09
5.05046e-09
-4.49697e-10
4.54879e-09
1.38409e-08
-6.59798e-09
-7.11277e-09
2.13669e-09
9.52488e-09
1.68471e-09
-1.43434e-09
6.64758e-09
2.13362e-09
7.20761e-09
2.72387e-10
3.28966e-09
8.96841e-09
2.83987e-09
4.74146e-09
6.25954e-09
-4.04789e-09
1.08096e-08
-3.47209e-09
5.43956e-09
-3.88764e-09
4.15625e-09
3.49509e-09
-3.93298e-10
-3.50812e-09
1.37733e-11
-3.75472e-09
-3.81373e-09