/*--------------------------------*- C++ -*----------------------------------*\
| =========                 |                                                 |
| \\      /  F ield         | OpenFOAM: The Open Source CFD Toolbox           |
|  \\    /   O peration     | Version:  v1612+                                |
|   \\  /    A nd           | Web:      www.OpenFOAM.com                      |
|    \\/     M anipulation  |                                                 |
\*---------------------------------------------------------------------------*/
FoamFile
{
    version     2.0;
    format      ascii;
    class       surfaceScalarField;
    location    "200";
    object      phi;
}
// * * * * * * * * * * * * * * * * * * * * * * * * * * * * * * * * * * * * * //

dimensions      [0 3 -1 0 0 0 0];

internalField   nonuniform List<scalar> 
41383
(
-6.29644e-09
2.22341e-09
4.1615e-09
-8.84619e-11
1.76026e-09
-5.27621e-09
5.7321e-09
-2.21614e-09
8.43807e-12
-6.23242e-10
-4.35136e-09
4.96617e-09
-3.85627e-09
2.74859e-09
-7.12897e-09
8.23664e-09
-3.91219e-09
1.42297e-09
-1.10052e-09
3.58971e-09
-2.07301e-08
-7.346e-09
1.0865e-08
1.72111e-08
-1.60973e-08
3.33758e-09
-7.97046e-09
1.39405e-08
1.37247e-09
-1.42709e-08
-1.0421e-09
-1.61919e-08
1.76699e-08
1.24624e-08
-2.38849e-08
1.21009e-08
4.43803e-09
-1.28138e-08
-2.71684e-08
-1.61854e-08
-9.0811e-09
2.8604e-08
-3.5694e-10
1.38302e-08
-1.658e-08
9.48411e-10
-5.60348e-10
-1.1849e-08
-1.90019e-08
9.24622e-09
-3.39091e-08
-2.58937e-08
1.89545e-08
8.33554e-09
-1.58473e-09
1.14146e-08
-1.81654e-08
5.55199e-09
9.46067e-10
-4.42076e-10
-6.05598e-09
1.60229e-10
2.55934e-09
2.83243e-09
6.23071e-09
8.55466e-10
-6.14011e-09
3.36009e-09
3.03084e-09
-1.0109e-09
-5.88353e-09
1.04637e-09
5.84804e-09
-3.7558e-09
2.76128e-09
-1.63871e-11
2.97255e-09
1.3319e-10
-3.54782e-09
1.59752e-09
1.4025e-09
-2.74768e-11
2.95704e-09
-5.14035e-09
5.5434e-09
7.92646e-11
9.56387e-09
-8.78765e-09
-2.105e-09
-4.38469e-09
-9.12741e-10
9.22762e-10
-5.89354e-09
-4.53535e-09
-1.01252e-08
1.11272e-08
-4.41134e-09
3.6417e-09
-3.73286e-09
4.50253e-09
-1.03815e-08
1.4564e-10
5.82453e-09
-9.18032e-09
-3.20615e-09
1.03948e-08
1.99167e-09
-4.33927e-10
-4.30342e-09
-4.44297e-09
-8.3868e-09
-5.51223e-09
6.49775e-09
7.40126e-09
-5.10396e-09
3.92629e-09
9.95557e-09
-8.77786e-09
8.06288e-10
1.07683e-10
-6.01793e-09
3.3123e-10
1.24287e-09
2.35222e-09
-7.15527e-09
3.26935e-09
4.21714e-09
-3.9475e-09
-3.70875e-09
-2.77161e-09
1.97883e-09
4.50153e-09
-3.11967e-09
-1.28379e-09
6.947e-10
1.59217e-09
-2.80392e-09
-1.90793e-09
-1.1333e-09
-4.61501e-11
-3.73219e-09
2.44711e-09
1.2742e-12
5.99035e-09
1.30635e-09
-1.94976e-09
-5.34697e-09
-3.85854e-09
2.74628e-09
7.10261e-09
-2.66918e-09
1.1695e-10
-3.76317e-10
-3.51507e-09
1.59201e-10
-2.90587e-09
-2.74371e-10
4.15807e-09
-5.06589e-09
3.35493e-09
8.88318e-09
-3.45742e-09
-3.45078e-10
-2.27812e-09
1.77207e-09
-3.00902e-09
-1.41278e-10
-5.04271e-09
-6.3823e-09
2.78358e-09
-2.02139e-09
-1.27243e-09
-9.62601e-09
2.29218e-09
5.6957e-09
1.63813e-09
-2.64135e-09
3.04576e-09
-1.00304e-08
3.10715e-09
-1.49487e-09
-1.60021e-09
-1.20025e-11
1.08916e-09
-2.8107e-09
5.03206e-10
-8.4349e-09
5.29035e-09
-1.01127e-08
4.64215e-09
7.76278e-09
8.52629e-10
-7.9196e-09
-2.7754e-09
1.4022e-09
-1.21625e-10
1.60981e-09
-3.882e-09
-5.28679e-09
2.72118e-09
7.20779e-09
-8.12665e-10
-3.62147e-09
-3.66192e-09
-3.30235e-09
4.0995e-09
2.28195e-09
-1.22471e-10
3.68091e-09
-5.84033e-09
-2.26162e-10
4.75089e-09
-2.24277e-09
-1.48567e-09
-2.2334e-09
8.11189e-10
2.9079e-09
-3.90631e-09
4.11173e-10
2.00951e-09
-1.62405e-09
3.31314e-09
-1.91525e-09
2.59675e-09
-4.34327e-09
-1.12848e-09
3.03761e-09
1.7718e-09
4.13419e-09
-5.11786e-10
-3.99785e-09
-6.10684e-09
3.02331e-09
7.08137e-09
-3.50385e-09
-9.93696e-10
4.99696e-10
-5.47649e-09
1.11358e-09
-1.98228e-09
-1.20932e-09
8.9526e-11
-1.11192e-09
-1.66816e-09
3.59128e-09
2.32258e-09
4.3205e-10
3.85219e-09
-9.71124e-10
2.93436e-09
9.44401e-11
2.53009e-09
3.28399e-10
-1.79455e-09
2.65649e-09
-6.94829e-11
6.64842e-09
3.96785e-09
-2.79876e-09
-7.8175e-09
-8.26361e-10
6.38344e-09
1.09135e-09
5.10768e-09
-2.61543e-09
3.4309e-09
-5.92312e-09
4.0221e-09
2.59225e-10
-4.77386e-09
8.45672e-09
2.70058e-09
8.59777e-11
-8.92002e-10
-7.34617e-09
1.93198e-09
-3.0186e-09
4.23734e-09
2.80338e-09
4.37068e-10
-2.47495e-11
3.79702e-09
-6.27179e-10
-3.08385e-09
-3.60419e-09
2.02439e-09
5.37684e-09
-3.20271e-09
3.55809e-11
5.54625e-09
-1.69382e-09
3.91035e-09
1.54028e-09
4.28649e-11
-9.50274e-09
9.66278e-09
-9.08879e-09
9.66306e-10
3.12853e-09
4.84473e-09
3.12423e-09
5.66934e-09
-6.73098e-09
1.1045e-09
4.35124e-09
-2.30337e-09
-7.23274e-10
6.57105e-09
6.532e-09
-1.23798e-08
4.38815e-09
3.84397e-09
-8.95537e-09
4.95611e-09
3.78329e-09
-4.03707e-09
7.37871e-09
5.73609e-09
-4.20731e-09
-7.06053e-09
5.53171e-09
1.81803e-09
-4.47582e-09
8.39386e-09
-1.71379e-09
3.81201e-09
-5.79991e-09
3.70165e-09
-1.27702e-09
4.1899e-09
-2.7811e-09
-1.3181e-10
-9.24576e-09
3.32464e-09
-2.58676e-09
8.21678e-09
3.98714e-09
-1.18881e-09
-3.19491e-09
3.96548e-10
-3.13405e-09
-2.56502e-09
3.1123e-09
-1.21636e-09
-5.86058e-09
4.74334e-09
3.14822e-09
-3.63286e-10
1.65128e-09
-6.4588e-09
7.20524e-09
-2.3977e-09
4.47955e-09
-2.75868e-09
-6.95924e-11
-2.76769e-10
-4.98698e-09
-1.19505e-09
-3.35293e-09
9.57268e-10
6.87521e-09
-2.59373e-09
6.44604e-09
-7.72679e-09
4.82084e-09
1.17301e-09
1.73293e-09
-6.53013e-09
3.21076e-09
-4.40741e-09
8.89955e-09
-6.98752e-09
-2.18881e-09
-7.83388e-10
3.31325e-10
-4.53491e-09
4.38821e-09
1.91758e-09
4.02087e-09
-2.82348e-10
-4.5219e-09
1.41538e-09
-1.53206e-10
1.02267e-09
-7.83514e-09
-4.5967e-09
4.38128e-09
5.03625e-09
2.94402e-11
-8.64064e-10
-5.79213e-09
-8.60813e-09
3.2014e-09
6.57973e-09
-8.44953e-09
7.94474e-09
-2.60619e-09
4.96567e-09
1.48129e-09
5.83818e-09
6.41649e-09
3.61314e-09
-1.33122e-08
3.2826e-09
-1.41077e-08
5.26405e-09
1.92519e-08
-1.04082e-08
-9.88313e-09
-4.86487e-11
-4.1759e-09
4.01635e-09
-6.84776e-09
-7.05172e-09
1.71457e-08
-7.78958e-09
-5.3398e-09
-9.17817e-10
1.74889e-08
1.0204e-08
-2.6775e-08
1.0787e-08
5.44094e-09
1.43015e-08
1.06539e-08
3.72802e-09
-1.34075e-08
1.9779e-08
7.31043e-09
-4.15424e-09
-5.0606e-09
5.13954e-09
4.0753e-09
-4.44939e-09
4.29864e-10
-1.34728e-10
3.81946e-09
4.65136e-10
-1.83633e-10
-4.10098e-09
2.8027e-09
1.12242e-09
-1.05708e-10
-4.74348e-09
8.24941e-10
-1.14205e-09
-3.99426e-09
-5.19862e-09
3.26741e-09
-3.48559e-11
2.41562e-09
-6.20998e-09
6.09091e-09
-2.2966e-09
3.56615e-09
-2.81379e-11
5.67196e-10
-6.31205e-09
-4.17405e-10
1.09027e-08
-9.91813e-09
-4.15355e-10
-7.62696e-09
7.6249e-09
-4.59325e-09
9.71347e-10
1.21286e-09
1.1107e-08
-1.32912e-08
9.46133e-09
-3.10193e-09
4.54334e-09
-9.94023e-09
1.61217e-09
9.29939e-09
-2.15113e-09
-6.96416e-09
6.11168e-10
6.14053e-09
-5.05338e-10
4.38391e-09
-2.76078e-09
3.3486e-09
2.97832e-09
7.65105e-10
5.75063e-09
1.06342e-09
5.90007e-09
3.90668e-09
-1.62531e-08
1.29246e-08
-2.58044e-09
5.90904e-09
9.62363e-09
-1.62033e-08
-9.67346e-09
1.10307e-08
-1.56513e-10
1.15236e-09
-1.20266e-08
1.17885e-08
3.18431e-09
-3.94219e-09
-5.50194e-09
1.14762e-08
5.81433e-09
-1.8898e-08
4.69239e-09
2.71302e-08
-1.28409e-08
3.56658e-09
1.85496e-08
1.97608e-09
-2.06822e-08
2.06791e-10
9.26734e-10
-1.5154e-08
9.07261e-09
7.53889e-10
-8.67414e-09
1.20635e-08
1.93388e-10
7.2856e-10
-1.17972e-08
2.75794e-09
8.31069e-09
2.98071e-09
9.22402e-09
-1.17517e-08
6.53384e-09
2.63745e-09
-1.00711e-08
2.41433e-09
-2.14799e-09
-1.8918e-09
9.5649e-09
7.66816e-09
1.28003e-09
8.53431e-09
1.10772e-09
-1.07162e-08
6.81645e-09
2.79208e-09
-4.21438e-09
8.01279e-09
1.76516e-09
-5.56358e-09
8.99658e-09
-1.21033e-08
1.17706e-08
1.09984e-09
-3.87385e-09
1.37986e-09
-3.55583e-09
-3.39654e-09
5.57253e-09
-5.50303e-09
-2.52058e-09
9.40346e-09
4.43394e-09
-1.06598e-08
2.67002e-09
-7.97732e-09
6.90822e-09
-4.05039e-10
4.19832e-09
5.00716e-09
2.6006e-09
7.81728e-09
-3.92154e-09
-2.13058e-09
3.67702e-09
8.90263e-09
-2.25514e-09
-1.03245e-08
-3.9782e-09
7.51017e-09
1.45063e-10
-2.39883e-09
-7.16111e-09
-2.6065e-09
5.09308e-09
6.37858e-09
-2.5395e-09
-1.997e-09
3.93238e-09
6.96726e-09
7.13367e-10
4.79979e-09
4.48545e-09
9.30057e-09
-8.76473e-09
-3.85926e-09
2.54979e-09
-2.51682e-09
3.82628e-09
-7.12028e-09
9.68235e-10
2.29278e-09
1.22489e-09
-3.9413e-09
-4.42893e-09
7.14535e-09
-2.41414e-09
6.18881e-09
5.80013e-10
-1.88236e-09
-5.81792e-09
-8.12374e-09
4.06269e-09
5.02928e-09
-4.9616e-09
4.03127e-10
2.04167e-09
-7.51784e-10
-3.6298e-09
-6.70949e-09
3.17133e-09
3.75338e-09
-5.7034e-09
-4.75947e-09
-2.41085e-09
1.7353e-09
-5.49479e-10
-9.45662e-09
-1.24037e-09
-5.2148e-09
-5.96062e-09
1.39746e-09
2.15231e-09
-7.75047e-09
1.78926e-09
2.7071e-08
-1.61998e-08
-1.26604e-08
2.2561e-08
-1.25311e-08
-8.24064e-09
-1.66854e-08
2.0332e-08
1.89144e-08
1.49701e-08
-4.58448e-09
5.6118e-09
9.26647e-09
-3.1078e-08
1.12386e-08
-1.8158e-08
1.73034e-09
2.22632e-09
1.63753e-08
-1.84762e-08
2.9142e-09
1.72924e-08
-4.31641e-09
8.10276e-10
1.76497e-08
-1.39468e-08
7.53577e-09
1.68029e-08
-1.91685e-08
-8.0121e-09
1.03777e-08
-4.24864e-10
2.0142e-08
2.75914e-09
1.71169e-08
-1.9574e-08
-3.91088e-09
-1.93299e-08
9.02236e-09
1.47109e-08
-1.08201e-09
-2.1641e-08
1.70452e-08
2.06124e-08
3.46926e-08
-2.00028e-08
-3.53023e-08
2.10768e-08
2.48178e-09
-2.94627e-09
-3.7587e-08
2.82778e-08
3.0386e-08
1.85371e-08
-2.14315e-08
-1.53118e-08
2.04981e-08
1.03366e-08
-1.55229e-08
5.20953e-09
-1.08578e-08
-9.66352e-09
4.02481e-08
-6.70492e-09
-1.50061e-08
1.34437e-09
4.55736e-09
3.43463e-08
4.70813e-09
-3.36853e-08
8.97442e-09
4.09898e-09
2.55232e-08
-1.2131e-08
1.69107e-08
1.57184e-08
-2.90606e-08
5.22574e-09
2.83922e-08
-1.97549e-08
-1.60106e-08
-2.99694e-08
1.31169e-08
4.7215e-09
-6.10927e-09
-1.86507e-08
-1.2903e-08
2.06661e-08
5.35377e-09
2.01769e-08
-2.66545e-08
-6.42543e-09
5.54971e-09
1.98529e-08
7.14756e-10
2.55011e-08
2.17245e-08
1.00688e-08
-2.51156e-08
-2.2695e-08
9.8294e-09
1.68596e-08
-6.05156e-09
-2.06374e-08
1.9994e-08
-2.98166e-09
-7.18293e-09
8.2241e-10
-2.9857e-11
1.92016e-08
2.4425e-08
-3.47708e-09
-4.08831e-09
2.522e-08
2.74864e-11
-7.57792e-09
1.37544e-08
-9.15811e-09
9.94943e-09
-2.35789e-08
4.83863e-10
-1.14528e-08
1.09391e-08
-1.20392e-08
-5.01617e-09
1.35783e-08
7.47316e-10
-1.52181e-08
1.49546e-08
-1.40043e-08
1.42511e-08
5.00447e-10
7.7607e-09
-5.45915e-09
7.45565e-09
-1.49045e-08
-6.55544e-09
-1.6859e-12
-1.69943e-08
-1.11163e-09
3.35213e-09
1.94337e-09
-4.18384e-09
1.35247e-09
-2.29345e-09
-1.70598e-10
3.04331e-09
-2.89157e-09
3.20041e-09
-2.00039e-09
-1.15145e-09
-6.43766e-10
-3.99142e-12
-2.34748e-09
-3.4943e-09
1.25617e-09
-1.88458e-09
-1.51837e-11
2.72096e-09
1.44892e-09
-4.96999e-09
8.00207e-10
4.32864e-09
-8.86656e-10
-7.21013e-10
-3.37118e-09
2.27989e-09
3.32835e-09
-1.89124e-09
-9.46406e-10
7.80509e-10
4.11557e-09
-4.55122e-09
-2.02014e-10
2.53893e-09
-4.18044e-09
-9.95595e-10
2.63712e-09
-3.8645e-09
4.73827e-09
1.66516e-09
1.99042e-09
-4.24728e-09
-1.92357e-09
-1.912e-09
3.79227e-11
-3.2678e-09
-7.91519e-09
8.4333e-09
2.7497e-09
-9.40135e-09
5.13794e-09
7.43069e-10
-4.60744e-09
-7.98614e-10
4.66301e-09
-2.65945e-09
3.42834e-09
-2.58119e-11
-2.20735e-09
-3.39183e-10
-5.36863e-09
-1.84602e-09
-9.76267e-09
-1.42322e-09
-6.44492e-09
2.49641e-09
5.37174e-09
-6.94169e-09
9.11039e-10
-4.43281e-09
-1.38647e-10
-2.48402e-10
-5.8449e-09
-2.3584e-09
-4.4257e-09
-1.60498e-09
-7.6951e-09
-6.2862e-09
-5.04877e-09
-3.73853e-09
1.82566e-08
-9.46924e-09
-2.98177e-09
1.0102e-08
-1.2169e-08
-3.86777e-09
8.79796e-09
-8.66872e-09
3.45512e-09
-1.03047e-08
2.64438e-09
8.41858e-09
7.19362e-09
1.67435e-08
5.36646e-09
-1.20079e-08
9.7598e-09
9.62806e-09
9.38884e-09
2.6355e-09
-3.22639e-09
7.42177e-09
1.03857e-08
-8.69499e-09
4.08812e-09
1.43667e-08
-2.25137e-09
-1.07717e-09
-7.43341e-09
4.45269e-11
1.48106e-08
-8.534e-09
-2.48015e-09
3.58073e-09
-4.31719e-09
-1.58132e-09
5.45538e-09
5.44051e-09
-7.44077e-09
4.00802e-09
-8.04009e-10
-4.39608e-09
8.52871e-09
-6.88404e-09
7.81246e-12
4.0042e-09
-2.88088e-09
1.12818e-09
1.06675e-09
-1.05118e-09
3.91599e-09
6.67036e-12
3.83034e-09
6.26317e-10
4.66193e-09
-1.35489e-09
5.06455e-09
6.0133e-09
-1.25918e-08
1.23847e-08
-1.49088e-09
1.69798e-09
1.71029e-08
-2.01298e-08
-1.26855e-08
2.09293e-08
4.14086e-09
-1.93674e-09
6.35412e-09
-8.59012e-09
4.46529e-10
6.65269e-09
-4.654e-09
-5.91562e-09
7.01948e-09
3.55007e-09
-7.83927e-09
-4.47176e-10
3.63242e-09
-4.26492e-10
3.70671e-10
-5.70911e-11
8.92844e-09
3.5267e-10
8.02941e-09
2.24185e-10
1.07606e-09
-2.36354e-10
4.08038e-09
5.78705e-09
-1.58508e-08
5.98338e-09
6.39469e-09
-4.92932e-09
2.61502e-09
-1.49235e-08
9.76372e-09
7.82979e-09
5.11964e-09
-9.71252e-09
6.32343e-09
-1.73056e-09
-2.76817e-09
1.04897e-08
-2.60186e-09
8.62917e-09
-5.24094e-09
-8.07678e-09
-1.17852e-09
-4.62472e-09
1.388e-08
-1.43711e-08
-7.49488e-09
1.02064e-08
-3.89001e-09
1.09093e-08
-1.20095e-08
-7.64127e-09
8.13512e-09
2.52692e-09
7.4111e-10
-9.99403e-09
1.27984e-08
1.83346e-09
-6.03469e-09
5.31586e-09
-2.01552e-09
2.73433e-09
-2.69962e-09
-4.65736e-09
1.32228e-09
-4.8795e-09
3.24758e-09
7.48708e-09
-5.85517e-09
3.46592e-09
4.13883e-09
-2.2889e-09
3.01036e-09
-4.19262e-09
-1.51737e-09
1.0015e-09
-6.65994e-12
3.51744e-09
-2.59142e-09
7.54666e-11
-3.60121e-09
1.74546e-09
5.37317e-09
-7.72458e-10
1.87382e-09
-4.70259e-09
7.67924e-09
-8.68803e-09
-2.44153e-09
3.4503e-09
2.02727e-09
8.45896e-09
5.64979e-09
-2.73284e-09
-3.17051e-09
2.53484e-10
-2.40624e-09
4.90227e-09
3.15369e-09
2.93555e-09
-2.30664e-09
4.18281e-10
1.11043e-10
-4.88662e-09
8.19147e-09
1.59741e-09
-2.98498e-09
-9.38377e-09
7.48215e-09
2.26289e-09
-2.08394e-09
2.39262e-10
2.24372e-09
5.8337e-10
1.53572e-09
-6.28975e-09
1.76901e-09
3.57323e-09
-2.28029e-09
1.95e-09
-3.24296e-09
4.44742e-10
3.97651e-09
-8.48101e-10
2.73602e-09
-2.84497e-11
5.90342e-09
1.84481e-09
-3.77176e-09
1.54515e-09
5.76729e-09
-9.08576e-09
1.77339e-09
1.05583e-09
5.08412e-09
-4.59478e-09
6.36763e-09
-2.95254e-09
-2.35927e-09
-1.77295e-09
6.04456e-09
2.37795e-09
-6.64954e-09
4.74584e-09
-7.51473e-10
4.94743e-09
3.77672e-09
-2.35661e-09
1.54006e-09
-3.72923e-09
7.13652e-09
7.13489e-09
-4.18814e-09
8.29935e-10
-3.47554e-09
1.21505e-08
-8.44667e-10
3.15996e-09
6.67093e-09
-6.38437e-09
-4.47472e-09
-3.72715e-09
6.92255e-09
2.01414e-09
-3.31437e-09
5.97801e-09
7.81956e-10
1.40619e-09
-3.10307e-09
-5.36816e-10
6.44844e-09
-2.80856e-09
-5.06538e-10
1.22974e-09
2.62464e-09
-4.57437e-09
2.44474e-09
-4.95004e-10
1.79418e-09
-2.234e-09
3.06446e-09
-1.55917e-09
2.81653e-09
-2.22174e-09
1.56037e-10
1.75903e-09
-3.16207e-09
-2.08024e-10
-2.66938e-10
-3.88092e-10
3.42428e-09
-9.22078e-10
-4.58294e-09
2.08074e-09
2.51702e-09
8.90731e-10
1.64849e-11
4.82544e-09
2.70549e-09
-5.01392e-09
7.42443e-10
1.48002e-09
3.09145e-09
-5.31393e-09
1.81934e-09
3.74853e-09
1.53426e-09
3.31996e-09
-5.77624e-09
-2.23036e-09
5.34769e-09
4.75744e-10
-3.59302e-09
5.52573e-09
-6.22181e-09
-2.50615e-09
3.29133e-09
1.05551e-10
1.10733e-09
-3.74408e-09
4.11676e-09
-2.01518e-09
4.94183e-09
4.07294e-09
-3.25908e-09
-3.86425e-09
5.46788e-09
3.89375e-10
1.27211e-09
-3.19144e-09
4.4676e-09
1.27091e-09
-1.33768e-09
-1.26074e-08
1.24256e-09
1.27024e-08
-1.22729e-08
7.3492e-10
1.02004e-08
-1.51108e-08
-1.14227e-08
1.42606e-08
1.81015e-09
-1.24837e-08
-4.43722e-09
-8.32323e-09
-2.47398e-09
6.48349e-10
-7.80143e-09
7.888e-09
-8.41134e-09
1.03023e-08
-6.97482e-09
1.19356e-08
1.12752e-09
-6.08824e-09
6.50984e-09
-5.64858e-09
-7.83608e-09
1.02946e-08
-7.4883e-09
-3.51816e-09
7.11882e-10
-8.05143e-09
1.05446e-08
8.85305e-09
-9.33619e-09
-7.00517e-09
2.8514e-12
7.98799e-10
1.0227e-08
-2.50265e-09
-1.21447e-09
-8.77796e-09
1.05936e-08
-1.24028e-08
9.82999e-10
-1.5142e-08
-9.74457e-09
-3.60575e-10
-8.55723e-09
1.02763e-09
-1.80653e-09
-2.73655e-09
-8.08932e-09
-5.38854e-10
1.21535e-08
-1.20983e-08
4.83669e-10
-7.65507e-09
1.24978e-09
-4.26872e-09
1.0674e-08
4.18179e-10
-2.90295e-08
2.83415e-08
2.69876e-10
-1.92135e-08
1.90928e-08
-1.21807e-08
-1.11651e-08
1.56907e-08
2.11445e-08
-1.25246e-08
-7.37008e-09
2.15607e-08
1.22901e-10
-5.39121e-10
4.90864e-09
-1.51451e-08
-1.8793e-08
-5.49408e-09
-8.81079e-09
1.52935e-08
-1.37703e-08
-1.66683e-08
-1.99612e-08
6.17149e-09
2.90833e-08
1.04025e-08
-3.85801e-09
-1.87252e-08
-5.56001e-09
1.04685e-08
1.35967e-08
-3.12251e-08
-1.88891e-08
8.8068e-10
-2.09722e-09
-1.14619e-08
1.26785e-08
-7.39514e-09
-1.33156e-09
9.60739e-09
7.18965e-09
4.169e-09
3.7113e-09
-1.50699e-08
-8.91645e-09
8.71096e-09
-6.97864e-09
-3.08928e-09
1.15147e-09
6.4649e-10
-1.17761e-08
9.03242e-09
-7.13027e-09
6.4452e-09
-1.59278e-08
8.63486e-09
-4.43014e-09
-1.15433e-08
4.56608e-11
-3.55539e-09
-7.36221e-09
3.93896e-09
1.16771e-08
-1.34005e-09
5.34255e-09
-1.56795e-08
1.07158e-09
1.06964e-08
-9.08923e-11
-7.47149e-09
8.07248e-09
4.70597e-10
1.85701e-09
-1.06685e-08
-5.35089e-09
6.2931e-09
-8.96204e-09
5.21884e-10
-7.9555e-09
6.87583e-09
-7.0431e-09
-1.06604e-08
-9.47693e-09
-1.61182e-08
2.28876e-08
2.70755e-09
-2.29787e-09
5.99341e-09
-1.31725e-08
5.27205e-09
-1.85939e-08
1.10239e-08
-1.10743e-08
-1.99143e-08
1.48703e-08
-1.75044e-08
2.66083e-08
-7.59181e-09
-1.51205e-09
-1.67794e-08
1.60664e-08
-1.67914e-08
1.17803e-08
3.75371e-09
2.24688e-08
1.51425e-08
-2.5831e-08
-4.70416e-09
-6.53437e-09
1.72319e-08
-2.08637e-08
-1.04603e-08
-1.10465e-08
1.5925e-09
-4.19297e-09
-1.38591e-08
-6.63474e-09
-2.77264e-08
1.57672e-08
3.74232e-09
-2.225e-08
1.18729e-08
1.47324e-09
1.71363e-08
-1.89238e-08
3.14432e-10
1.28088e-09
-2.7534e-08
-7.08279e-09
5.85166e-09
8.1295e-09
2.56386e-09
-1.6545e-08
2.05819e-08
1.92708e-08
-3.4001e-08
1.25749e-08
1.56265e-08
-6.21208e-09
-2.19894e-08
1.66466e-08
1.11334e-08
-1.52051e-08
-6.08385e-09
3.18318e-08
-9.10139e-09
2.1722e-08
-1.21793e-08
1.7998e-08
-3.459e-08
1.03799e-08
2.54344e-08
-6.70075e-09
1.20914e-08
2.64412e-08
3.62003e-09
1.14012e-08
-2.89173e-08
-1.6482e-09
3.3317e-08
-2.75144e-09
1.02855e-08
-2.12048e-08
2.28951e-08
-3.96144e-09
3.32038e-09
3.42055e-08
-1.12067e-08
9.91817e-09
3.46056e-08
2.6989e-09
3.61337e-08
-1.52876e-08
2.05828e-09
-7.85044e-09
2.10797e-08
-8.92996e-09
-1.1419e-08
5.06137e-09
-1.4582e-08
-8.28181e-09
2.49221e-08
1.34178e-08
-1.17874e-08
-1.05604e-08
5.53155e-10
5.01419e-09
-1.66165e-09
1.73765e-08
1.82043e-09
-1.75352e-08
1.69936e-08
1.61899e-09
-2.02742e-08
-3.29336e-09
-1.29361e-08
1.6474e-09
-1.13593e-08
-3.35306e-09
-1.40014e-08
6.27276e-09
1.26355e-08
-8.578e-09
6.45372e-10
-9.32159e-09
-3.86486e-10
-5.4897e-09
-3.39186e-09
9.26804e-09
-4.27857e-09
-2.58864e-09
6.48073e-09
-7.33398e-09
1.22257e-08
-1.03814e-08
-5.1725e-10
8.46139e-10
-7.66285e-09
-4.21e-09
-4.62342e-09
4.55484e-09
-5.45509e-09
7.27849e-10
-3.5293e-09
5.61325e-09
-5.58891e-09
3.50496e-09
6.37319e-11
-3.26694e-09
-3.26082e-10
9.23982e-10
2.10064e-09
-6.5844e-09
4.11651e-09
4.15351e-09
-4.54829e-09
-5.06031e-09
-4.06185e-10
-4.76788e-09
6.38872e-10
-1.4599e-09
-3.96866e-09
-4.06616e-09
-6.70274e-09
4.79403e-09
-1.82445e-09
3.73317e-09
-1.69552e-09
-1.27678e-08
7.76063e-09
-1.1515e-09
-1.02125e-08
-3.67843e-09
2.18355e-09
8.40311e-09
9.81091e-10
7.26951e-09
-1.1929e-08
6.16693e-09
1.11932e-08
-1.63791e-08
4.20558e-09
1.26402e-08
-1.06789e-08
1.32402e-08
-6.85107e-09
6.62622e-09
6.81407e-09
-6.17077e-09
-5.2173e-09
1.35381e-08
-1.69463e-09
-6.29276e-09
9.47857e-09
-2.28978e-09
2.08604e-09
-7.80627e-09
8.01e-09
2.42343e-09
-1.5066e-08
1.03528e-08
-3.96848e-09
1.3653e-08
-7.59848e-09
-1.90167e-08
1.74717e-08
1.45742e-08
4.92642e-09
-8.30733e-09
1.81292e-08
9.08522e-09
-4.52855e-09
1.54029e-08
2.36587e-09
6.54709e-09
6.73763e-09
2.53426e-10
2.25632e-09
-1.42641e-08
-3.05828e-09
9.9713e-10
-9.42118e-10
5.45658e-11
-2.52361e-09
7.46262e-09
9.15487e-10
-2.89026e-10
-8.08905e-09
-5.34186e-09
8.27277e-09
4.53176e-09
3.72388e-09
-2.19058e-10
-8.84667e-09
-1.10803e-09
-1.28196e-09
1.06628e-08
-7.42058e-09
-2.13637e-09
8.4489e-09
4.49726e-10
-4.14644e-09
1.80296e-08
-8.88131e-09
-1.69671e-08
7.81875e-09
1.33534e-08
8.44739e-10
3.83132e-09
-1.06916e-08
-2.8312e-09
1.22408e-08
-9.9105e-09
1.34394e-10
-6.49997e-10
6.06996e-09
-7.55636e-09
1.06888e-08
1.72911e-08
-1.46265e-08
1.20069e-08
-1.73907e-08
-3.4975e-09
2.94113e-09
7.20758e-09
7.80534e-09
4.96964e-09
-1.76022e-09
3.26742e-09
-1.10826e-09
5.64616e-09
7.76593e-09
6.03308e-09
-8.82944e-09
1.41957e-10
1.08914e-08
-1.83157e-09
1.53256e-09
6.33205e-09
1.14725e-08
6.79392e-10
-8.36516e-09
-3.78677e-09
9.5205e-09
-4.56079e-09
6.5128e-09
-1.72586e-08
1.07696e-08
-6.47726e-09
1.29663e-08
-1.12436e-08
-5.33559e-09
4.83852e-09
1.54515e-08
1.04746e-08
-7.97709e-09
-1.08627e-08
3.85158e-09
2.06226e-09
1.94286e-08
-1.24213e-08
-1.8251e-08
5.62186e-09
7.32951e-09
-7.8275e-09
-8.81252e-09
5.34908e-09
1.12909e-08
-4.87941e-09
9.03494e-10
-1.93058e-08
-2.08577e-09
1.07226e-08
1.0669e-08
-3.67077e-09
1.38664e-09
-1.70217e-08
-4.67844e-10
-1.56243e-08
1.72479e-08
-1.8502e-09
-1.40111e-08
7.26108e-09
7.90107e-09
-9.70555e-09
8.1541e-09
-1.24199e-08
-2.16503e-09
-7.49571e-09
1.76833e-08
2.49315e-09
-1.09381e-08
8.84873e-09
-1.1777e-08
8.82772e-09
-6.57363e-09
1.01227e-10
-2.35526e-09
-9.37805e-10
6.65104e-09
3.11449e-09
-1.47299e-08
-4.77787e-09
5.68082e-09
1.3827e-08
1.07844e-08
-1.84455e-08
-7.06879e-09
1.69885e-09
4.30768e-09
1.7799e-09
5.26524e-09
-2.36805e-09
-4.67707e-09
-4.3166e-09
1.08856e-09
5.00794e-09
1.50691e-09
-6.76131e-09
2.96982e-09
3.99427e-09
-6.74871e-09
1.17665e-08
6.63005e-10
5.81442e-10
-6.79109e-10
-4.26339e-09
-9.17063e-10
4.78307e-10
4.70213e-09
-2.51599e-09
-1.89012e-09
1.42727e-10
-2.73354e-09
7.84054e-09
-2.02068e-11
-5.08677e-09
1.10348e-08
-1.10605e-08
-2.70777e-09
7.9695e-09
1.09058e-08
3.47143e-10
7.70378e-10
6.31393e-09
-7.43146e-09
-5.68241e-09
5.60792e-09
5.02691e-10
-4.28201e-10
1.43208e-09
-8.1252e-09
1.01072e-09
-6.06092e-09
5.491e-09
-2.96899e-09
-2.27512e-09
4.86089e-09
-5.38068e-09
2.79492e-09
-4.08261e-09
-8.26234e-11
-7.18032e-10
6.05722e-09
8.02184e-09
1.80273e-09
-4.45326e-09
-3.59815e-09
1.51144e-08
-1.01439e-08
1.4849e-08
-1.98195e-08
2.55756e-08
-5.25026e-09
-5.21094e-09
4.39238e-09
6.33585e-09
4.99131e-09
-1.57195e-08
7.90151e-09
9.45062e-09
-5.75466e-09
1.11529e-08
-2.3773e-09
3.74034e-08
-1.23494e-08
1.60856e-08
-8.98646e-09
4.06549e-09
-7.17611e-09
9.44646e-09
5.67651e-09
-1.30346e-08
-6.83906e-09
2.05474e-08
1.53342e-08
-5.59223e-09
3.02779e-09
5.12852e-09
-1.3911e-08
1.15229e-08
3.42016e-09
-4.48463e-09
-3.43061e-09
4.49507e-09
-2.78864e-09
-7.0101e-10
6.90981e-09
-4.36656e-09
3.67855e-09
-8.82347e-10
2.07462e-11
1.08961e-09
3.65025e-09
2.29948e-09
-7.03934e-09
3.87752e-09
-7.27255e-09
-5.94456e-09
9.36005e-09
-4.26158e-09
-5.13773e-11
-7.56993e-09
5.27561e-09
-6.73486e-09
-1.98656e-09
-4.95131e-09
-7.70174e-10
1.34372e-08
8.97357e-09
-5.96389e-09
-1.64468e-08
1.91695e-08
-7.00097e-09
1.26867e-09
1.62836e-08
4.80433e-09
-1.21143e-08
-4.15516e-09
1.98198e-08
6.19014e-10
1.88451e-08
-3.83077e-09
-1.38852e-08
1.50798e-08
-8.19553e-09
5.61188e-09
-2.5461e-08
5.79869e-09
-3.1122e-10
1.43323e-08
4.66672e-09
1.99771e-08
1.30641e-08
-2.05473e-09
4.07044e-09
1.97752e-08
-4.44773e-09
-1.05231e-08
1.39828e-08
5.48124e-09
-2.54354e-10
1.79852e-08
-1.22945e-08
1.67019e-08
-4.66166e-09
5.28383e-09
-1.91503e-08
1.5719e-09
1.02885e-08
1.68841e-08
-1.37121e-08
1.95529e-08
4.39415e-09
-6.81936e-09
-1.87565e-09
4.30086e-09
-6.11566e-09
7.85504e-12
-6.13749e-09
7.53148e-09
5.74835e-09
-7.14235e-09
4.36637e-09
2.38607e-10
-1.07425e-08
-5.14049e-09
-4.44602e-09
3.47086e-09
-7.05947e-09
-4.90038e-09
-1.95524e-09
-3.0247e-09
4.98779e-09
-4.48768e-09
6.56801e-10
2.6574e-09
1.75164e-09
-4.26903e-11
5.53886e-09
4.65002e-09
3.11329e-09
4.58122e-09
-7.45589e-09
4.30595e-09
5.58986e-10
1.37816e-09
-1.55989e-09
-6.65404e-09
9.72736e-10
-3.47259e-09
8.21355e-09
1.00739e-09
-5.54541e-09
4.40548e-09
-6.37953e-10
6.91965e-09
4.74661e-09
6.90656e-09
4.97329e-10
8.17246e-09
4.31514e-09
-7.74095e-09
-8.3495e-10
7.05826e-09
6.83279e-10
7.63463e-09
-2.97086e-10
1.5379e-09
-1.02718e-08
1.9063e-09
6.82758e-09
-8.77278e-09
8.01564e-09
2.29501e-09
-3.00097e-09
8.60542e-09
-1.28929e-09
5.47563e-09
7.58028e-09
-1.25586e-08
7.65195e-09
-5.17726e-09
7.31584e-09
-3.19634e-09
3.51513e-09
6.92238e-10
-3.90577e-09
-5.77957e-09
-2.30092e-09
7.26704e-09
1.95509e-09
6.23379e-09
-8.24731e-10
1.28601e-09
5.14733e-10
6.55969e-09
2.37824e-09
1.06997e-09
4.76098e-09
4.02797e-10
5.64938e-09
1.98026e-09
-1.52032e-09
1.39011e-09
1.35069e-08
7.26915e-09
-4.23337e-10
1.72175e-08
-4.75352e-09
-5.19484e-09
1.33836e-10
7.81693e-09
9.26676e-09
3.92437e-09
-8.4294e-09
4.63887e-09
4.44943e-09
6.18043e-09
3.65551e-09
-5.27007e-09
-1.58188e-09
1.07763e-08
-9.88159e-09
1.24284e-08
-1.06126e-08
6.11317e-09
8.94886e-09
-1.99242e-11
8.3872e-09
-8.97892e-09
1.35102e-08
1.58607e-08
1.21833e-08
-1.02338e-09
7.90512e-09
-1.88754e-08
-2.27659e-08
1.6725e-09
1.71825e-08
-8.59892e-09
5.47736e-09
-1.96444e-08
8.14313e-10
-7.30783e-09
-4.87134e-09
1.13648e-08
-8.51657e-09
-5.73749e-09
1.50683e-08
-4.78947e-09
-2.11282e-08
1.7401e-08
7.08261e-09
-2.3048e-08
1.11759e-08
-1.51884e-08
1.24762e-08
4.3847e-09
-3.90567e-10
-2.33968e-08
-1.09254e-08
1.25812e-08
1.55266e-08
2.0536e-08
-1.39233e-08
-1.13536e-09
8.86865e-10
8.72376e-09
-9.63842e-09
9.4132e-09
-3.55051e-10
-1.04464e-08
5.93003e-09
6.48871e-09
-1.30587e-09
-1.28582e-08
-8.88399e-09
-9.95781e-09
1.13766e-08
9.2938e-09
-1.97835e-08
1.11975e-08
-1.79726e-08
6.38448e-09
-4.1067e-09
5.0369e-09
-1.5857e-08
2.11185e-09
-1.75176e-08
-9.54047e-09
2.44145e-10
9.98795e-09
-6.91649e-10
-2.91155e-09
-1.0058e-08
3.42902e-09
-8.03394e-09
4.35076e-09
7.71633e-10
-1.62454e-09
-4.07367e-09
-2.33574e-09
-9.67964e-09
-6.12314e-09
5.74482e-09
5.47183e-09
3.58181e-09
-4.70288e-09
-7.39707e-09
-3.90712e-09
-3.19402e-10
6.03537e-09
-6.97923e-09
2.82967e-10
6.43017e-09
2.66095e-10
-7.17924e-09
-4.57733e-09
4.77734e-09
5.43895e-10
-5.82295e-09
5.56201e-09
-4.66915e-09
4.89364e-09
1.76634e-09
-5.85045e-09
-1.73882e-09
-3.01963e-09
1.16821e-10
4.47157e-09
-4.1559e-09
3.89769e-09
-4.21333e-09
1.47647e-09
-2.45389e-11
-6.57078e-09
2.82265e-09
-4.07777e-10
-9.49358e-10
-1.0034e-09
-2.68978e-09
-5.43882e-09
-1.97212e-09
3.79038e-09
-1.03755e-08
5.9368e-10
-7.33151e-09
4.76571e-09
-1.64909e-09
8.37646e-09
-1.32832e-09
-5.39904e-09
5.56197e-09
-2.50372e-09
-4.70737e-09
-1.01074e-08
2.6621e-09
7.0847e-09
-4.11891e-09
-4.86094e-09
3.50843e-09
7.78642e-09
-2.91841e-09
-3.46596e-09
6.60764e-09
3.6673e-10
1.14175e-08
-8.95545e-09
2.07726e-09
1.8721e-11
4.44093e-09
-6.35097e-09
3.6655e-09
-3.34349e-09
5.60439e-09
1.38345e-10
2.69077e-09
5.57572e-09
5.69251e-09
-8.67293e-10
2.96118e-09
5.11654e-09
7.1836e-09
3.545e-09
8.51922e-09
-5.64898e-09
1.7624e-09
-1.9537e-09
3.41994e-09
4.12316e-09
-3.23574e-09
-4.30736e-09
3.28017e-10
3.13152e-09
-3.96117e-11
2.36345e-09
3.1439e-09
-2.82239e-09
-2.68496e-09
2.7253e-09
-3.38275e-11
-3.4741e-10
-2.15765e-09
1.44439e-10
3.32967e-09
-2.01515e-09
8.88281e-09
-1.01973e-08
6.11012e-09
-1.32967e-09
-1.07467e-08
5.96625e-09
4.52695e-09
-3.85896e-09
5.44213e-09
7.41956e-09
-3.24002e-09
8.50646e-09
-4.59928e-09
5.04176e-09
2.68902e-09
1.56429e-09
-2.04041e-09
1.00142e-08
-5.02089e-09
1.63552e-09
6.36353e-09
-7.3878e-09
4.76202e-09
5.75515e-09
6.14584e-09
-7.04216e-10
-1.11967e-08
1.10871e-08
9.17331e-10
-6.24926e-09
-9.54608e-10
1.02621e-08
1.77965e-09
-9.10541e-09
8.2074e-09
-5.66017e-11
-5.38187e-10
-2.42139e-09
2.70552e-09
3.57205e-09
-6.98177e-09
-2.0003e-10
2.81031e-10
1.01811e-08
1.70724e-10
7.83663e-09
2.12891e-10
-4.81053e-09
4.76836e-09
-3.77188e-09
7.84709e-11
3.9063e-09
2.73898e-09
5.08907e-09
-5.12252e-09
6.42314e-09
-2.76682e-09
5.04522e-10
-4.93021e-09
-3.84833e-10
-3.3648e-09
9.74481e-11
-1.89635e-09
-6.20686e-09
6.56637e-09
-1.95844e-09
2.17473e-09
-2.34179e-10
5.78838e-09
1.23011e-09
-2.19672e-09
-4.82176e-09
2.01315e-09
7.38081e-10
3.03717e-09
3.44468e-09
-4.9968e-09
-2.87882e-09
4.43094e-09
1.20566e-09
4.25218e-09
5.53501e-09
-7.09431e-10
-3.59544e-09
2.70086e-09
3.57226e-09
2.71209e-09
-5.48655e-09
5.47538e-09
-5.87776e-10
2.63851e-09
2.05951e-09
-4.11024e-09
4.19785e-09
1.5263e-09
-6.31194e-09
8.24763e-09
-1.41128e-09
-5.13402e-09
-3.05275e-09
7.4026e-09
-2.68105e-09
-5.43097e-09
8.43375e-10
1.07268e-09
6.18582e-09
-7.07981e-09
1.73737e-09
-3.64993e-09
-3.02482e-09
-2.64417e-09
2.01903e-09
-8.43174e-09
-1.67289e-09
2.72464e-09
-9.58649e-09
-2.23906e-09
2.60257e-09
3.41861e-09
-3.78213e-09
-1.38143e-10
-2.08973e-09
-1.1166e-11
-2.29396e-09
-4.97613e-09
9.87266e-09
-2.76727e-09
-5.98709e-09
6.4605e-09
-2.87036e-09
-3.49737e-11
-5.15894e-09
1.45204e-10
7.97218e-10
4.21649e-09
2.28498e-09
-3.71769e-09
-3.72625e-09
-7.42729e-10
3.08213e-09
-5.44373e-11
-6.47099e-09
-5.23612e-09
-3.59178e-09
3.29789e-09
-5.6932e-09
-7.65107e-09
1.32526e-09
4.67706e-10
3.02646e-09
-7.21189e-09
2.90875e-09
2.48003e-09
-4.92107e-09
2.34685e-09
-1.80842e-10
-9.31165e-09
4.8374e-10
2.61401e-09
-7.23864e-09
1.83252e-09
-4.41976e-09
5.06727e-09
-4.86512e-09
-2.78465e-09
6.99161e-10
-5.70576e-09
7.79124e-09
-7.30441e-09
-1.0162e-09
5.53596e-09
-1.19021e-09
4.97704e-09
-4.86611e-09
1.07928e-09
3.21306e-09
-4.28679e-09
-1.16497e-10
1.57597e-09
-1.00161e-09
2.6387e-09
8.36608e-10
5.7164e-09
5.13429e-09
-3.59853e-09
-4.99462e-09
1.21066e-09
-1.92182e-09
-5.84855e-09
-6.45049e-09
-6.75637e-10
-3.31761e-10
-3.27939e-09
-1.09715e-09
-4.4446e-09
-5.2461e-09
3.22829e-09
-1.12094e-09
-4.45691e-09
-7.99245e-11
-6.88957e-09
-6.64166e-09
5.46458e-09
-8.51514e-09
4.41467e-09
-5.81495e-09
9.91544e-09
1.81057e-09
-9.00065e-09
-1.32507e-09
-4.46909e-09
-1.34963e-09
1.02334e-08
1.25963e-09
-3.91817e-09
2.45817e-09
1.05643e-08
-4.62863e-09
-6.42411e-10
5.09368e-10
4.24002e-09
-3.94338e-09
6.10523e-09
-3.51147e-09
-3.07683e-09
6.41736e-09
4.87625e-09
1.62212e-10
-1.26756e-10
2.98336e-09
3.19535e-09
-5.48147e-11
1.4128e-08
3.7812e-09
-1.5066e-08
-2.84324e-09
1.26813e-08
1.19195e-08
-1.04728e-08
4.73279e-09
-3.67586e-09
2.72428e-09
6.3726e-10
1.67768e-08
-9.42334e-09
-1.12087e-08
5.56601e-09
-1.09355e-08
7.52781e-09
6.04889e-09
-2.64122e-09
-7.81704e-09
-9.47594e-09
6.35748e-09
-5.74998e-09
8.064e-09
-6.48975e-09
4.17572e-09