/*--------------------------------*- C++ -*----------------------------------*\
| =========                 |                                                 |
| \\      /  F ield         | OpenFOAM: The Open Source CFD Toolbox           |
|  \\    /   O peration     | Version:  v1612+                                |
|   \\  /    A nd           | Web:      www.OpenFOAM.com                      |
|    \\/     M anipulation  |                                                 |
\*---------------------------------------------------------------------------*/
FoamFile
{
    version     2.0;
    format      ascii;
    class       surfaceScalarField;
    location    "166";
    object      phi;
}
// * * * * * * * * * * * * * * * * * * * * * * * * * * * * * * * * * * * * * //

dimensions      [0 3 -1 0 0 0 0];

internalField   nonuniform List<scalar> 
37631
(
-1.04899e-08
2.3246e-09
2.78072e-09
5.38473e-09
8.65935e-09
-7.79838e-09
-9.72646e-09
-4.5241e-09
-2.41312e-09
4.52473e-09
-1.87656e-09
-1.58684e-08
7.68082e-10
-1.19823e-08
-1.22583e-08
-3.73678e-09
1.74388e-09
-1.25027e-08
-3.14894e-09
-8.34129e-09
-9.20345e-09
-2.10925e-09
-5.52411e-09
7.25045e-09
3.82892e-10
4.67391e-10
-4.89425e-09
4.06311e-09
3.63759e-10
-6.97862e-09
7.02143e-09
4.24574e-10
-1.28642e-08
7.63482e-09
2.6093e-09
2.62008e-09
-1.4156e-09
3.85685e-10
-1.18343e-08
-5.19592e-09
5.85212e-09
-7.59973e-09
2.94557e-10
-1.13967e-08
8.40019e-09
5.60581e-09
-5.55664e-10
-1.22566e-08
-9.56217e-09
-4.3757e-09
7.06218e-09
6.8757e-09
-8.77297e-09
-6.31331e-09
3.5345e-09
-9.40687e-09
1.49667e-09
7.04045e-09
-2.70326e-10
-6.94372e-09
6.32352e-10
-1.05949e-08
-8.41095e-09
7.09732e-09
4.45371e-09
-5.34291e-09
-6.20815e-09
1.02315e-08
-1.23556e-09
-1.89859e-09
-4.6385e-09
-5.1774e-10
9.60994e-09
4.55661e-09
-2.64168e-10
-9.63538e-09
1.90455e-09
3.01331e-09
5.31359e-09
5.81576e-09
-2.49472e-09
6.39726e-09
5.33164e-09
-1.19931e-08
6.97586e-09
-5.21711e-09
-5.10462e-09
-2.03126e-09
1.1026e-08
-3.89014e-09
-5.50753e-09
7.36592e-10
-3.33709e-10
-5.84159e-09
4.57329e-09
3.17283e-09
2.15304e-09
-2.17888e-09
-1.87434e-09
3.34266e-09
3.19967e-09
2.57597e-10
-5.05527e-09
7.59729e-09
2.97429e-10
-9.69714e-09
-3.33955e-10
5.03139e-10
2.14042e-09
-9.10362e-09
-1.25011e-09
-8.03294e-09
4.76207e-10
-1.04112e-08
3.50722e-10
2.55073e-09
-8.76556e-10
-1.4177e-08
1.24707e-09
-7.89981e-09
1.74698e-09
-1.34399e-09
-9.50664e-09
8.59102e-10
-7.14507e-09
-1.21182e-08
-8.305e-09
5.03024e-09
4.06658e-09
-1.13104e-08
2.21359e-09
5.7267e-09
-8.38328e-09
7.6868e-09
9.98667e-10
3.88879e-09
-8.20927e-10
6.33998e-09
3.85391e-10
-6.65556e-09
-1.01191e-09
-7.15822e-10
-5.82898e-09
-1.2137e-08
-1.66807e-08
6.16488e-09
-3.0158e-09
1.35316e-08
-1.192e-08
7.56882e-09
-1.23295e-08
7.14852e-09
8.16557e-09
-7.62732e-09
6.9295e-09
-1.343e-09
1.562e-09
6.07145e-09
-1.57778e-08
3.59186e-09
8.61672e-09
-1.01039e-08
-2.1047e-09
-3.91856e-09
3.7463e-09
7.10176e-09
9.97842e-10
3.24922e-09
-6.16319e-09
1.67693e-09
1.06511e-08
2.40348e-09
4.09511e-09
9.01847e-10
2.37955e-10
1.48494e-08
-9.0159e-09
-2.04314e-09
7.46637e-09
5.64384e-09
-9.37079e-09
1.06767e-08
-6.70708e-09
5.40111e-09
9.42195e-09
-1.07892e-08
-8.00356e-09
-7.48235e-09
-5.05692e-09
6.35198e-09
6.18727e-09
1.47569e-09
-7.50408e-09
-1.45398e-09
-1.16871e-08
5.10076e-09
1.72631e-08
-7.89498e-10
6.55883e-09
-3.78357e-09
-1.35645e-08
9.66184e-10
-1.11445e-09
5.07044e-09
-5.38955e-09
-7.18498e-09
1.40783e-10
-1.27276e-10
1.40834e-08
-2.63067e-09
3.10785e-09
-1.2281e-08
5.09329e-09
5.38726e-09
-7.37272e-09
8.51647e-11
5.97429e-09
5.70898e-09
-1.80954e-10
1.04036e-09
-1.42892e-09
8.2785e-09
-7.88991e-09
3.24001e-09
2.72948e-09
-6.96327e-09
9.93788e-10
-6.59284e-09
3.88765e-10
7.24444e-09
-4.06539e-09
7.12503e-10
3.78631e-09
1.0188e-08
-1.20055e-08
-1.96884e-09
6.05455e-09
-8.58679e-09
2.73919e-09
-2.06892e-10
-7.40636e-10
6.94481e-09
-5.8154e-09
-8.00811e-09
-3.44129e-10
6.92336e-09
-6.84354e-09
2.62173e-09
-1.21883e-09
-7.11209e-09
1.48737e-09
-5.93936e-09
4.8546e-09
-7.75478e-09
-6.66215e-09
8.47754e-09
-8.31939e-10
-8.1417e-09
-9.90797e-09
4.07304e-09
-1.45989e-10
5.98087e-09
-9.55949e-10
-6.99871e-09
5.86597e-10
7.36803e-09
5.03008e-10
1.03402e-08
-1.16752e-08
2.00565e-09
-5.26578e-09
5.19881e-10
2.74027e-09
-4.22627e-09
2.68598e-09
3.54595e-09
-5.55143e-09
-6.18206e-09
2.00716e-09
9.72635e-09
-5.24165e-09
-3.28666e-09
2.97692e-09
-5.24364e-09
-6.18004e-09
3.36032e-09
-2.62077e-09
-4.96582e-09
-1.71366e-09
-1.91796e-10
2.54326e-09
-5.00689e-09
2.98353e-09
-1.3071e-09
5.85751e-09
-2.97261e-09
4.35149e-09
-2.91161e-09
6.39446e-09
2.0351e-09
-5.51795e-09
3.40139e-09
-7.78188e-09
1.46889e-09
7.2034e-10
2.38746e-09
-5.15666e-09
-1.56388e-09
-4.64874e-09
2.39647e-09
-1.9652e-09
-6.48449e-10
1.20107e-09
-3.04334e-09
-1.3609e-09
-2.59469e-09
-4.58418e-09
-1.64229e-09
-2.007e-10
6.42716e-09
1.39384e-09
-6.33256e-09
3.54524e-10
-1.43491e-08
-1.33791e-09
1.18533e-08
3.83364e-09
-4.74129e-09
-7.40153e-09
-2.2063e-09
-1.56281e-08
2.74365e-09
1.15465e-08
-1.27588e-08
-7.61055e-09
-9.72787e-09
3.9641e-09
8.5074e-09
2.74978e-09
-1.00517e-08
-2.426e-09
6.91488e-09
-4.57849e-09
4.13383e-10
9.2367e-09
-9.15832e-09
-6.34159e-09
8.09834e-09
7.63916e-10
-8.485e-09
-5.03777e-09
-6.12592e-09
-3.16189e-09
-6.81967e-09
2.03455e-09
2.06603e-10
6.24087e-09
-6.89043e-09
2.04338e-09
8.58847e-09
-2.5483e-09
-1.46048e-09
-1.61829e-08
-5.52599e-09
-7.41962e-09
-4.71755e-09
4.19545e-10
-6.49818e-09
1.97345e-10
-5.89613e-10
6.78505e-09
-1.37715e-08
-4.43069e-09
-1.97092e-08
5.33833e-09
-4.81012e-09
1.9181e-08
-6.76147e-09
-1.12193e-08
-1.72845e-09
1.04139e-08
-1.47936e-08
-2.38177e-09
1.29801e-08
-9.47034e-09
6.90412e-09
-4.49637e-12
1.8323e-08
-1.34675e-08
8.09081e-09
5.66549e-10
-1.23457e-08
-1.2341e-08
1.78668e-09
-2.28985e-09
-1.42904e-08
1.54897e-08
-3.89577e-10
-1.33135e-08
1.41049e-09
4.60889e-09
5.50516e-09
-1.20354e-08
1.20775e-08
-5.54725e-09
-1.13374e-08
1.68381e-08
7.29936e-09
-2.5109e-08
5.77421e-09
-1.70475e-08
1.30095e-08
6.83284e-10
-1.53189e-08
-1.82707e-08
1.24689e-08
7.21231e-09
-2.73246e-09
-1.59278e-08
-1.11105e-08
-1.04558e-08
-3.54265e-09
-1.56892e-08
1.27994e-08
-1.48485e-08
-1.00873e-08
1.24308e-08
2.85845e-09
-3.24635e-09
1.24447e-09
-8.56568e-10
-2.24373e-09
2.74056e-09
2.36164e-09
1.40645e-09
-1.37008e-09
-3.28271e-09
-2.64936e-10
-5.72328e-10
4.66681e-09
-3.48585e-09
6.3535e-11
8.95185e-10
2.48164e-09
-4.74688e-09
2.50145e-10
4.48808e-09
-7.13818e-11
-3.08648e-10
3.29938e-09
1.67569e-09
2.34661e-09
-3.12712e-09
1.94867e-09
-5.37895e-10
2.70265e-09
-3.70686e-09
-3.71289e-09
3.72646e-09
-3.2219e-10
-4.0989e-09
2.33469e-09
1.69709e-09
-3.44938e-09
-1.6129e-09
6.01266e-09
-6.72027e-09
-1.24741e-08
-1.06848e-08
-1.63748e-08
-9.53573e-09
-1.16639e-08
-1.32042e-08
-1.00874e-08
-1.87614e-08
3.75812e-09
1.39014e-08
3.69379e-09
-2.13532e-08
6.64787e-09
-2.28377e-08
-1.52965e-08
-1.3057e-08
1.11783e-09
2.53189e-09
-8.92549e-09
-6.11675e-09
-9.077e-09
8.37305e-09
-1.22169e-09
1.92559e-09
-9.38678e-10
1.18212e-09
-9.32049e-09
2.50386e-09
8.15585e-09
-2.28667e-09
-3.47226e-09
5.55057e-09
4.25555e-10
5.91023e-09
3.98234e-10
-7.24716e-09
2.35998e-09
7.79615e-11
1.27964e-08
-1.39294e-09
-1.02213e-08
1.01437e-09
1.05603e-08
1.05447e-08
1.81386e-09
-4.20258e-09
5.97677e-09
1.32893e-09
-6.90746e-09
4.6818e-09
5.89001e-09
-4.59503e-09
6.41583e-09
6.25952e-10
1.74022e-09
-8.21222e-09
4.14362e-09
2.32849e-09
-5.09607e-09
5.7199e-09
1.11641e-09
7.23913e-09
-7.30309e-09
6.01537e-09
-3.45686e-10
2.20334e-10
7.33515e-09
-1.31878e-09
9.27013e-09
8.99284e-10
-6.71109e-09
-3.45828e-09
-4.17258e-09
1.26681e-09
1.21759e-08
-9.43433e-09
-1.97426e-09
7.23615e-09
-5.78063e-09
-2.75439e-09
1.54808e-08
-9.41236e-09
-4.80155e-09
5.50578e-09
-2.76985e-09
-8.51648e-09
1.75283e-09
1.77885e-09
-5.32311e-09
-6.0802e-09
4.69228e-09
4.21317e-09
-1.23061e-08
-8.12563e-09
8.21667e-09
4.12218e-09
3.95428e-09
2.30321e-09
-8.39639e-09
2.13892e-09
3.2453e-09
-5.78346e-09
6.49245e-09
-8.21811e-09
-9.20521e-10
1.2384e-08
-9.08732e-09
3.17247e-09
-1.49362e-08
-7.61166e-09
2.16274e-08
-7.81158e-09
-7.14501e-09
2.04777e-11
-3.72827e-09
-4.22015e-09
2.16493e-09
-4.75982e-09
-5.24948e-09
-7.22015e-09
-1.26786e-09
3.90392e-09
3.30132e-09
3.96279e-10
-7.60141e-09
1.55561e-09
-2.90108e-09
-8.37395e-09
-8.5249e-09
-9.58479e-09
-3.14835e-09
5.12158e-09
-8.72975e-09
-7.99998e-09
-8.52955e-09
1.16101e-09
3.42978e-09
-7.3486e-09
-4.22853e-09
-2.58975e-09
4.58154e-09
-8.41373e-09
-7.5156e-10
-4.34816e-09
-4.89977e-09
-1.36793e-09
-5.92646e-09
8.92454e-09
-1.63008e-09
9.59631e-09
-6.81601e-09
-4.14815e-09
5.27598e-09
-3.11393e-09
-6.54685e-09
4.38487e-09
5.08856e-09
-1.74493e-09
1.93245e-09
-1.51288e-08
7.07136e-09
-2.33474e-09
1.03923e-08
4.32524e-09
-9.85774e-09
-1.09144e-08
1.69908e-09
1.62867e-08
-4.85236e-09
-1.7368e-09
4.32009e-09
-2.8463e-09
1.83986e-09
-3.31359e-09
-3.26162e-09
9.28079e-09
2.18448e-10
3.23699e-09
-1.02714e-08
-8.82192e-09
-2.1174e-10
9.97372e-09
-8.37309e-10
4.16555e-09
-1.26011e-10
-1.08335e-09
-2.95604e-09
3.47932e-09
-6.53123e-09
7.21751e-09
-1.68397e-09
6.56085e-09
4.79238e-09
2.84659e-09
-5.69297e-09
-2.00573e-09
5.22692e-09
-3.69615e-09
-2.58198e-09
-5.20547e-09
2.15386e-09
4.81952e-09
-1.76793e-09
-6.93395e-09
1.28063e-09
4.47835e-10
-1.05405e-09
3.05823e-09
1.49666e-10
3.62745e-09
6.15851e-09
-2.98899e-09
-6.79699e-09
2.51468e-09
5.87115e-11
-5.99468e-09
4.25185e-09
4.2575e-09
1.09708e-09
-9.33266e-10
2.65959e-09
-1.41596e-09
3.57588e-09
-8.34816e-10
6.55263e-09
5.83451e-09
-1.05914e-08
-4.07092e-09
7.48795e-09
-3.53412e-09
5.60274e-10
8.84414e-10
7.40826e-09
-2.85395e-09
4.22794e-09
-8.78224e-09
6.85307e-09
-2.59225e-09
-8.96095e-09
4.70014e-09
4.96152e-09
-6.05896e-09
7.95051e-09
-1.2348e-09
1.36046e-08
1.14642e-08
2.63355e-09
-9.17767e-09
-4.92012e-09
7.40439e-09
2.19693e-09
3.18037e-09
-1.27817e-08
-7.90325e-09
2.4571e-09
-1.1649e-08
-9.64121e-10
1.68411e-08
-6.53322e-09
8.90729e-09
-4.83028e-10
-1.89106e-09
3.71468e-09
-8.74587e-09
-1.50202e-09
1.09653e-08
-1.36741e-08
1.12865e-08
4.58452e-09
3.34485e-09
-1.27222e-08
-4.29682e-09
-3.31782e-09
-9.4926e-09
1.16142e-09
-3.19276e-09
1.01828e-08
-8.68986e-09
-1.21698e-09
2.15939e-09
-1.29501e-08
1.20077e-08
-1.14698e-09
-1.0157e-08
1.46488e-08
1.189e-08
-9.32229e-09
1.18041e-09
2.3072e-09
-4.37577e-09
1.33551e-08
4.79261e-09
6.51899e-09
3.93786e-09
9.66032e-10
-1.11169e-10
6.60503e-09
-3.35385e-11
-5.24369e-11
6.99512e-09
3.54782e-09
6.96957e-09
9.27953e-10
4.26353e-09
-1.75118e-10
-1.4358e-09
1.51864e-09
6.88682e-09
1.29508e-09
4.2643e-09
-3.47952e-09
2.13769e-09
2.63701e-09
1.17805e-09
-3.93969e-10
-4.53901e-09
3.4908e-09
-2.81838e-09
3.8667e-09
-2.37845e-10
9.2951e-10
4.69905e-09
8.152e-10
2.45623e-09
-4.00702e-09
6.45519e-09
3.29675e-09
3.39729e-09
5.69495e-09
-3.41028e-09
-5.68194e-09
2.31883e-09
9.30372e-10
1.48106e-10
6.72773e-09
2.36743e-10
-1.26952e-09
3.97394e-09
5.07263e-09
5.58111e-10
-9.09498e-09
5.1266e-09
-4.71895e-09
-7.63469e-10
1.63955e-09
3.84289e-09
3.03976e-09
-7.20059e-09
2.26349e-09
1.28093e-11
2.85066e-09
3.43212e-10
4.27086e-09
1.00743e-09
-5.22384e-09
-5.44445e-11
5.56743e-10
7.68806e-09
6.39579e-09
-2.98838e-09
6.73879e-09
1.27492e-08
-1.74645e-08
-2.02355e-09
-1.18568e-08
5.84057e-09
1.27549e-08
1.82695e-09
6.20369e-09
4.71852e-09
-1.46037e-09
-3.57674e-10
-1.00388e-08
-2.14477e-09
-1.67801e-08
-5.44429e-09
-1.77846e-09
1.74728e-08
-1.02501e-08
-5.56147e-09
2.95503e-09
-2.83789e-09
-1.13204e-08
7.58585e-09
5.49297e-09
-2.06597e-08
2.20125e-08
-6.84586e-09
-1.00582e-08
-1.10887e-10
1.5662e-08
-1.2408e-09
-1.22244e-08
-5.35547e-10
2.26774e-09
-2.2392e-08
-1.18345e-08
-8.02261e-09
1.18456e-08
-5.6015e-09
-1.41498e-09
1.03875e-08
1.304e-08
1.58645e-08
-1.39545e-08
6.42691e-09
1.65938e-08
-2.75574e-08
7.57575e-09
3.38783e-09
1.5388e-08
-2.09595e-11
-2.48603e-09
-1.2881e-08
1.8365e-08
1.16682e-08
-1.46451e-08
-1.26569e-08
1.45741e-08
-1.93818e-09
8.22423e-09
-5.83295e-09
-1.50482e-08
1.13467e-08
3.62628e-09
-6.74877e-09
1.54969e-08
1.04239e-08
4.10205e-09
-8.41391e-09
2.09056e-08
-3.61491e-09
2.09735e-08
-1.32566e-08
-6.00142e-09
-9.82621e-09
1.94539e-08
-8.6611e-09
-2.48977e-08
4.64558e-09
-2.62628e-08
1.57843e-08
-5.81464e-09
1.76966e-08
1.27887e-08
-1.68043e-08
1.89645e-08
1.49112e-09
-7.6669e-09
1.95126e-09
1.0599e-08
1.25018e-08
-2.77848e-09
9.6257e-10
3.63299e-09
-1.81708e-09
2.95946e-09
-3.73173e-09
-2.00622e-09
-5.33139e-09
2.68148e-09
-1.1198e-09
3.76966e-09
3.55995e-09
3.83808e-09
-5.98532e-09
-1.41272e-09
-8.08868e-10
-2.36301e-09
1.91421e-09
4.08175e-09
8.69687e-10
-2.73223e-10
2.47317e-09
-3.13147e-09
3.33973e-09
-2.15634e-09
7.35811e-09
-2.72862e-09
2.0982e-09
2.02454e-10
-2.87349e-09
5.72817e-10
-2.91239e-09
2.85427e-09
9.09078e-10
1.99742e-09
-2.20893e-09
-2.66198e-09
-4.52862e-11
-2.70158e-10
-4.06213e-09
-1.65301e-09
-1.24655e-09
7.89797e-09
-1.90649e-09
-4.74492e-09
-2.76581e-09
7.0033e-09
-5.48401e-09
-6.74247e-09
6.19644e-09
6.99729e-10
-1.53703e-10
-2.08129e-09
4.42138e-09
-9.08256e-09
1.16409e-09
-6.79314e-09
3.54772e-09
-2.49076e-09
4.2098e-09
2.35113e-09
-4.07019e-09
2.17102e-11
-2.18846e-09
-3.24046e-10
2.21848e-09
2.0928e-09
-3.14719e-09
2.53924e-09
-2.99062e-10
2.34781e-09
-3.02081e-09
-1.1915e-09
1.30732e-09
7.78218e-09
-5.85741e-11
5.87037e-09
-3.07961e-09
1.75915e-10
2.84514e-09
-4.54024e-10
-2.77771e-10
7.58013e-09
-5.06523e-09
3.73101e-10
6.1117e-09
1.09535e-09
5.95903e-09
6.10532e-10
-2.33832e-09
2.67374e-10
2.24688e-09
-2.53105e-10
4.52136e-10
6.96692e-09
-3.31728e-10
6.74292e-09
4.14545e-09
-6.4537e-10
-8.74004e-09
7.6299e-09
1.75551e-09
-1.01254e-08
1.4499e-09
8.03013e-09
-1.56147e-09
-9.34966e-09
7.8566e-10
-9.22655e-09
-1.07501e-09
-1.23904e-09
-4.61685e-09
6.16598e-09
-3.10084e-10
7.57373e-09
-7.36289e-09
3.90216e-09
-6.35296e-09
-4.3787e-09
6.82949e-09
-1.57234e-09
5.08013e-09
3.94381e-10
-3.33381e-09
5.29121e-11
-6.0688e-09
-2.65616e-09
-9.90421e-09
-3.30344e-09
-1.64406e-09
3.30638e-10
2.35176e-11
-9.03266e-09
-5.00978e-09
1.33986e-10
2.20348e-09
-7.18975e-09
-4.19527e-09
6.45165e-09
-2.34032e-09
6.47898e-09
-7.23235e-10
-3.41544e-09
9.08281e-09
-7.74457e-09
-3.67857e-09
-1.08486e-09
7.31738e-09
2.46465e-10
-6.25497e-10
8.62344e-09
-4.132e-09
9.78209e-09
-6.37333e-09
-3.94717e-09
-1.15519e-08
7.75451e-09
-4.36938e-09
4.41327e-10
-1.91304e-11
-8.96786e-09
-2.60731e-09
2.3245e-11
-6.81421e-09
-6.52303e-09
-1.26497e-08
-9.07208e-10
9.42494e-09
-1.01424e-08
-2.46597e-09
-4.14279e-11
8.01014e-10
-3.95218e-09
-2.64281e-10
3.71476e-09
-5.68318e-09
-6.66326e-09
8.63168e-09
4.67367e-09
-1.57907e-10
-3.68613e-09
1.75276e-10
1.43388e-08
-1.71954e-09
-1.52266e-08
-3.74496e-09
-8.36032e-09
5.29106e-09
9.75304e-09
1.28456e-09
-8.71567e-09
-6.11543e-09
4.74988e-09
-8.77683e-09
1.51841e-08
-8.61393e-09
5.18569e-09
-1.17559e-08
-1.05141e-08
6.83717e-09
2.11188e-09
-1.48737e-08
5.92472e-09
-8.58525e-09
4.38875e-09
1.10337e-08
6.44961e-09
-9.66342e-09
5.32572e-09
3.12758e-09
-4.04842e-09
7.37046e-09
2.90292e-09
-1.25396e-08
-5.23701e-09
-5.99194e-09
3.09582e-10
-2.90862e-09
1.12097e-09
-4.39159e-09
6.17927e-09
8.55647e-10
-4.17684e-09
4.12589e-10
8.6373e-09
3.73899e-09
-7.59831e-09
-5.80408e-09
5.46219e-10
-4.75635e-09
-1.78115e-09
2.14594e-09
-6.47768e-09
-2.4555e-09
-1.50465e-08
-5.09149e-09
1.32167e-09
-9.09477e-09
-1.01976e-08
-1.05835e-08
5.73463e-09
-8.30084e-09
-5.27712e-09
-4.90237e-10
1.40681e-08
-3.27964e-09
2.02408e-09
-7.04532e-09
9.71606e-09
-1.36426e-08
6.46897e-10
-8.8941e-09
1.3333e-08
-4.50824e-09
1.04594e-08
-6.44149e-09
-2.38643e-08
1.71603e-09
1.32541e-08
-1.47554e-08
-2.01361e-08
1.10272e-08
-1.78971e-08
-1.0501e-08
8.96225e-09
-9.72499e-09
-1.4183e-08
1.49457e-08
-1.41564e-09
1.11635e-08
-6.49317e-09
-9.01644e-09
1.10013e-08
-1.63286e-08
1.15515e-08
7.07594e-09
-1.99854e-09
-2.29744e-08
1.77195e-09
-1.48321e-08
-5.90303e-10
-9.84181e-09
-9.94783e-09
-4.6088e-09
-1.62243e-08
4.50077e-09
1.04958e-08
-1.19362e-08
-3.78587e-09
5.22621e-09
3.3394e-09
8.39801e-09
-1.24158e-09
6.92603e-10
-2.5004e-09
-5.30431e-09
-4.04278e-09
-7.17294e-09
1.19083e-08
-2.6286e-09
7.80263e-09
-7.6744e-09
1.08807e-09
1.1366e-08
-1.50827e-08
-2.32268e-09
-6.32877e-09
-3.2848e-09
7.07957e-09
2.58367e-09
-8.57517e-09
-6.60875e-09
1.06545e-08
-1.29711e-08
8.92529e-09
-1.1408e-08
5.60526e-09
-8.06061e-10
1.91222e-09
1.46121e-08
-5.15823e-09
-1.69314e-09
1.72105e-09
6.50593e-09
-2.41859e-09
1.47941e-08
8.53284e-09
-3.77594e-09
1.21067e-09
4.30336e-10
-9.28094e-09
1.02017e-08
4.62551e-10
-1.49913e-09
-6.80522e-09
1.45364e-08
-6.23209e-09
-3.43443e-09
7.551e-09
-5.61567e-09
9.23318e-09
-7.88661e-10
1.25412e-08
-2.09859e-08
-2.7734e-09
-1.83e-08
1.42682e-08
7.43973e-09
-1.36476e-08
1.26059e-08
-4.29288e-09
-5.34821e-10
-7.77836e-09
4.79461e-09
1.70445e-08
6.26568e-09
7.48199e-09
1.46726e-08
7.46699e-09
-1.45885e-08
7.1892e-09
3.22853e-09
4.25482e-09
8.20746e-09
-1.14974e-08
-1.00304e-09
5.27423e-09
8.18063e-09
1.4456e-08
-2.33023e-09
-4.65886e-09
9.44861e-09
8.23594e-09
-7.14085e-09
1.72097e-08
1.05152e-08
-6.38784e-09
-4.66576e-09
-1.85174e-08
8.78127e-09
1.44018e-08
-1.66379e-08
4.30288e-09
7.66912e-09
-1.56576e-08
-9.74811e-09
6.88823e-09
-1.33912e-08
5.66749e-09
-9.6609e-09
8.29617e-09
-1.77531e-09
1.6224e-08
4.33579e-09
-1.59049e-09
1.84865e-09
8.49467e-09
2.03627e-08
-8.23608e-09
-1.3902e-08
-2.59146e-09
3.67628e-09
1.35277e-08
9.07483e-10
1.87055e-08
3.77754e-09
-2.07818e-09
7.2829e-09
-8.98231e-09
-1.27791e-08
-1.02972e-09
1.75863e-08
-1.02735e-08
1.18101e-08
-1.43157e-08
2.65506e-09
-1.12778e-08
6.54456e-09
-1.20789e-08
1.37042e-08
7.11626e-09
-2.61714e-09
-1.47726e-08
-2.01622e-10
-3.24606e-09
-6.39721e-09
9.84477e-09
-1.20431e-08
1.8476e-08
-6.6346e-09
-1.19586e-08
6.99596e-09
1.58858e-08
1.34704e-08
-8.96363e-09
-2.03926e-08
-4.04829e-09
7.97547e-09
7.76252e-09
1.65961e-09
-7.35568e-09
3.84045e-09
5.13821e-09
-1.74471e-08
3.34519e-09
-5.46358e-09
-1.12603e-08
6.36405e-09
1.16919e-08
-6.7957e-09
-5.50206e-09
-1.19351e-08
6.17681e-09
1.45162e-08
4.08277e-10
-7.35075e-09
3.5369e-09
2.24562e-09
8.73361e-09
9.90593e-09
-1.1884e-08
-7.65732e-09
-2.45381e-10
-1.8418e-09
-1.03361e-08
-1.00786e-09
-5.40061e-10
-4.8519e-09
7.61482e-09
-1.3099e-08
1.2249e-08
-5.5313e-09
-6.30941e-09
5.92691e-09
9.85894e-09
1.17732e-08
6.33685e-09
-9.30835e-09
5.23366e-09
1.84421e-09
-1.19298e-08
-1.46802e-09
5.69379e-09
-9.18916e-09
1.56021e-10
-1.3907e-09
9.08828e-09
-7.85364e-09
-1.91131e-09
1.52083e-08
-1.3141e-08
-9.30955e-11
5.10037e-09
-6.39799e-09
9.63493e-09
-4.85544e-10
-1.37411e-08
-5.32476e-09
1.08986e-08
8.16718e-09
-7.54072e-09
5.48871e-10
-6.74921e-09
-4.33994e-09
1.00274e-08
3.9475e-09
6.3344e-09
-1.58606e-09
1.06554e-08
-1.30958e-08
4.59928e-09
7.31398e-10
9.45959e-09
-4.21059e-09
5.61943e-09
1.47388e-08
3.22143e-09
-5.30112e-09
1.00302e-08
8.90111e-09
2.03257e-09
-4.61085e-09
1.34517e-08
1.78854e-10
4.5474e-09
4.46912e-09
2.21308e-08
-3.86772e-09
-1.03164e-08
-7.94666e-09
8.47406e-09
5.24422e-09
8.41244e-09
1.43683e-08
-2.61872e-10
-9.73944e-09
-4.36703e-09
-1.27481e-10
5.50187e-09
8.99394e-09
1.96822e-08
-1.35941e-08
-6.34993e-09
1.19998e-08
7.5549e-09
2.54195e-09
-9.02239e-09
-9.31652e-09
-5.51095e-09
-1.16993e-08
1.11509e-08
-1.71293e-08
1.37136e-08
-9.34715e-09
-8.23425e-09
1.56948e-09
4.44852e-10
-1.19834e-09
1.19985e-08
-1.73862e-09
-9.06178e-09
-1.74309e-09
1.10672e-08
-1.05225e-08
-1.60767e-08
-7.16944e-09
-1.43945e-08
-9.06689e-09
8.96923e-10
-4.55846e-10
-6.89557e-09
-5.05109e-09
1.24024e-08
-7.64545e-09
-6.40453e-09
1.92777e-09
7.8588e-09
-1.15297e-08
-9.15801e-09
-2.99786e-09
-8.85354e-09
-1.31677e-08
-7.59158e-09
1.31101e-08
7.64927e-09
-9.82663e-09
-2.99641e-09
-3.44723e-10
7.08661e-09
-1.1491e-08
-5.42228e-09
-4.65393e-10
-3.95845e-11
-1.28067e-08
1.24357e-08
-3.17828e-09
3.54924e-09
-2.61102e-10
-9.27071e-09
-3.27487e-09
1.85985e-10
1.66319e-09
1.12608e-08
-9.15674e-09
1.087e-08
-6.84458e-09
5.13133e-09
-7.614e-09
-1.80385e-09
6.83995e-09
-7.22037e-09
-8.49911e-11
-5.19685e-10
-6.09125e-10
-1.50684e-08
1.16539e-08
2.36216e-10
-1.28536e-08
7.23932e-10
1.23156e-08
-1.37011e-08
-2.14892e-09
-7.36766e-09
1.9307e-09
7.10014e-09
-4.70197e-10
-5.75215e-11
7.17955e-09
-8.84156e-09
-5.95201e-09
-1.3523e-10
1.38422e-09
-1.96063e-09
-1.13379e-09
-9.0703e-09
-6.10903e-09
-9.39436e-09
-8.94666e-09
1.17687e-08
-3.39356e-09
-1.14413e-08
-2.88848e-09
-6.61413e-09
3.93996e-10
6.32059e-09
1.83505e-10
1.15086e-08
-1.80129e-08
-7.90314e-11
-8.18992e-09
1.45895e-08
1.09603e-08
-1.15042e-08
9.72649e-11
4.46588e-10
2.47051e-09
-9.90364e-09
8.07996e-09
-8.77539e-09
1.47081e-09
9.77506e-09
-5.16102e-09
1.23188e-08
-7.23696e-09
-1.48812e-08
1.43359e-08
-1.16027e-08
8.80313e-09
-9.37251e-09
-9.20114e-09
8.21933e-09
-1.47085e-09
4.30247e-09
9.45805e-09
-6.34043e-09
6.30432e-09
-7.36884e-09
-1.62341e-08
3.32592e-09
9.03509e-09
3.87307e-09
-3.61697e-09
-5.39581e-09
-7.22129e-09
3.83777e-09
-3.87735e-09
7.40582e-09
-7.36622e-09
-3.61089e-09
-4.29842e-09
1.17471e-08
-1.25371e-08
1.77269e-08
-8.8068e-09
1.08867e-08
-8.051e-09
-8.23153e-09
5.56798e-09
8.64464e-09
1.92225e-09
-8.82407e-09
1.22281e-08
-5.32627e-09
1.3835e-08
-9.27921e-09
6.71506e-09
-1.1078e-08
-6.38921e-09
9.49339e-09
-2.75753e-09
4.02709e-09
4.3905e-09
-1.8759e-08
5.54436e-09
1.0384e-08
3.56391e-09
-1.71985e-09
-9.4656e-09
3.18858e-10
7.35479e-09
-1.10153e-08
1.45308e-09
-2.35162e-09
-1.25125e-08
-2.94262e-09
1.78068e-08
-8.41757e-09
-4.34806e-09
1.0414e-08
-4.10413e-09
1.66191e-08
8.34843e-09
-2.08634e-08
8.59749e-09
1.2577e-09
-1.39594e-08
-1.48268e-09
5.58925e-09
-1.30159e-08
3.11563e-09
-4.2638e-09
1.5304e-08
-1.11644e-08
1.2414e-10
-2.06868e-09
8.30874e-09
-1.05039e-08
-4.01288e-09
-1.32873e-08
1.43575e-08
-1.29995e-08
1.24478e-08
-5.40799e-09
5.95972e-09
6.26878e-09
-1.01901e-08
-9.07819e-09
5.31002e-09
-1.06114e-08
3.23263e-09
6.42117e-10
6.69447e-09
9.72142e-10
2.9303e-09
1.21501e-08
6.59935e-11
-5.94732e-09
1.40044e-08
1.05935e-08
2.2936e-09
7.69795e-09
-1.25821e-08
1.05277e-08
-5.17125e-09
4.81456e-10
-1.16706e-08
1.09133e-09
-1.65506e-08
-5.82164e-09
-3.45895e-11
-8.54777e-09
3.34726e-10
-7.42507e-09
1.93783e-10
-1.05825e-08
-9.19705e-09
-8.02119e-10
2.19634e-09
-1.19755e-08
1.41968e-09
-1.31813e-08
-2.55117e-09
1.54232e-09
-6.41624e-09
-9.67929e-09
1.73653e-09
-9.93042e-09
-7.30361e-09
1.26909e-08
-1.06287e-08
7.04647e-09
-9.10877e-09
9.50656e-09
2.03357e-09
1.15081e-09
-9.5337e-09
-1.6871e-09
1.14079e-08
-1.87151e-10
-3.84054e-09
-1.63219e-08
-8.2579e-09
6.10382e-09
4.66988e-10
-9.84912e-09
1.89488e-08
-1.73576e-08
-1.02661e-08
9.55292e-09
1.02197e-08
-2.81494e-09
-4.04735e-10
1.00746e-08
3.36686e-09
1.05575e-08
-2.42472e-08
-1.73318e-08
1.1419e-08
1.20167e-08
3.37465e-09
-1.75769e-09
-1.54381e-08
1.75497e-08
1.26305e-09
1.09489e-08
-1.58296e-08
-6.84384e-10
2.03119e-08
-6.84806e-09
1.06434e-08
1.37544e-08
1.28593e-09
2.1378e-08
5.3163e-09
2.44406e-09
9.44523e-10
-8.70479e-09
3.91643e-09
5.1955e-09
-3.79557e-09
5.06707e-09
2.94354e-09
-5.56647e-09
1.24452e-09
3.95765e-09
-1.35048e-10
5.19015e-09
-2.91927e-11
5.22033e-09
3.24682e-09
-7.52261e-09
-4.79021e-09
-3.7846e-09
1.02074e-09
7.554e-09
3.11771e-10
-6.24141e-09
1.13935e-09
5.34909e-09
3.34173e-10
-2.73975e-09
5.13886e-09
4.16788e-09
3.29775e-10
5.38239e-09
-4.91776e-10
4.95337e-09
5.71887e-10
-1.74309e-09
5.19373e-09
1.50274e-09
3.68218e-09
-2.35152e-10
1.91429e-09
-4.02588e-10
3.68199e-09
1.47699e-09
4.11942e-09
-7.46572e-09
3.27851e-09
4.93405e-09
5.16534e-10
7.43175e-09
5.37327e-09
-1.79229e-09
4.37525e-09
-5.24339e-09
2.29197e-09
5.08739e-09
-1.39551e-08
6.64674e-09
2.221e-09
-1.51307e-08
2.33177e-09
2.93745e-09
9.86153e-09
1.87834e-09
-8.94215e-09
-8.0669e-09
-5.72653e-09
1.74783e-08
-9.17011e-10
-1.08348e-08
-2.65623e-09
-1.2253e-08
9.18262e-09
5.40262e-09
-7.79923e-09
7.484e-09
-1.07332e-08
-2.51028e-09
-1.40438e-11
1.32575e-08
-1.08223e-09
-3.69821e-09
1.01831e-08
-4.60709e-09
1.01294e-08
-6.60453e-09
9.32929e-09
-1.06957e-08
-1.31976e-08
1.15279e-08
-1.54577e-08
-6.37182e-09
8.63196e-09
-5.59721e-09
-7.98219e-09
-1.12648e-08
-2.78501e-09
9.46686e-11
-1.10561e-08
-1.09419e-08
-1.35239e-08
-2.82817e-09
8.5528e-09
-1.52945e-08
7.20932e-09
7.44084e-09
-6.11903e-09
-1.00925e-08
2.83168e-09
-1.1607e-08
1.00237e-08
-6.5221e-09
-9.09878e-09
1.14156e-09
-1.47465e-08
3.07192e-09
-2.89597e-09
-8.66618e-09
7.05788e-10
-7.00436e-09
-1.93235e-09
-1.20073e-08
-9.91924e-10
-1.49312e-08
4.48664e-09
-1.32382e-08
-7.23401e-09
-2.98125e-09
-1.23777e-08
1.30965e-08
1.94351e-09
-2.6624e-09
8.69293e-09
-5.69466e-09
-1.5376e-08
1.41025e-08
-9.83613e-10
-4.42593e-09
-1.97715e-09
1.21364e-08
3.94314e-09
2.82676e-09
8.29258e-09
7.83045e-10
-1.12009e-08
4.72318e-09
-5.73784e-09
-4.65654e-09
9.41076e-09
-5.21041e-09
-1.41168e-09
8.54403e-09
-1.92195e-09
-5.67982e-09
3.24351e-10
1.45012e-10
-5.14243e-09
6.55752e-09
5.98655e-09
-3.84721e-09
1.77395e-09
-3.9133e-09
-1.74023e-09
8.73115e-09
-1.00439e-09
4.88133e-09
-7.9455e-09
-2.59674e-09
8.17177e-09
-2.84165e-09
-3.55621e-09
7.33988e-10
2.29533e-09
3.7853e-09
-5.36834e-09
3.09179e-09
-5.39551e-09
7.67201e-09
1.61309e-09
-7.44382e-09
4.6232e-10
5.79511e-09
-6.63648e-09
2.45443e-09
-3.10973e-09
1.19966e-08
-5.84733e-09
-1.35297e-09
1.80474e-09
3.40485e-09
-5.88279e-09
-3.36944e-09
-4.59393e-09
5.54939e-10
3.09658e-09
1.51569e-10
-9.13096e-09
2.71092e-09
-4.20828e-09
6.08123e-09
3.14292e-09
-9.07261e-09
8.54466e-09
5.33707e-09
-7.80052e-09
5.81006e-09
1.38159e-09
-1.02619e-08
1.29622e-08
6.0855e-09
8.98958e-10
-3.84158e-09
1.16062e-09
-3.0266e-09
-3.15769e-10
6.58909e-09
3.75706e-09
-1.00303e-08
-1.42388e-08
4.51455e-09
9.40848e-09
4.27702e-10
-3.48073e-09
-1.11857e-08
1.1051e-09
1.33064e-10
-8.82428e-09
7.58616e-09
1.13632e-09
-8.74174e-09
8.71054e-09
1.06216e-08
2.18491e-09
-1.26734e-08
5.73284e-09
-2.29881e-09
7.18764e-09
9.44195e-09
-7.0769e-09
-1.93733e-09
3.114e-09
1.08425e-08
8.31417e-09
-1.36141e-08
-1.32446e-08
1.85446e-08
1.50019e-08
-9.54905e-10
9.57408e-10
-1.23866e-08
-5.41188e-09
1.2987e-08
-4.46111e-09
2.30042e-08
-1.34142e-08
1.22427e-08
-1.01489e-08
1.71387e-09
3.45189e-09
-1.00033e-08
1.67982e-09
4.78054e-09
3.5429e-09
-7.41545e-09
-1.51249e-08
-9.34705e-09
-3.28337e-10
2.25991e-09
-8.33553e-09
2.98762e-09
1.0878e-08
-5.53005e-09
-3.51736e-09
4.21693e-09
5.55385e-09
1.34558e-09
-5.21965e-09
2.49749e-09
1.53873e-08
-1.23309e-08
4.76924e-09
1.63125e-10
-8.44974e-09
-6.66999e-09
1.21551e-08
3.64246e-09
-1.8686e-09
-1.03499e-08
8.57599e-09
1.7417e-09
6.34328e-09
-1.45734e-09
-8.88381e-09
3.99787e-09
-6.21843e-09
4.31158e-09
8.25013e-09
8.78451e-09
2.86221e-09
-8.50029e-09
-3.14645e-09
3.91469e-10
4.20091e-09
4.19212e-09
5.99772e-09
-9.17492e-09
3.74106e-09
-8.51998e-09
-4.10489e-09
-2.85217e-09
3.74793e-10
4.04651e-09
-7.98973e-09
4.33465e-09
2.19059e-09
-3.80664e-09
1.03088e-08
-5.54253e-09
5.93679e-09
-2.8567e-09
1.76373e-10
-8.38347e-09
5.87447e-09
3.94951e-09
-1.44053e-09
1.51366e-09
-5.52161e-10
-9.34498e-09
3.45951e-10
-2.46122e-09
-5.88868e-09
-2.26566e-09
-1.05517e-08
-1.67406e-10
-8.87062e-09
1.2174e-09
-7.65825e-09
-1.70121e-09
-6.98618e-09
-5.71288e-09
4.00871e-12
-6.19669e-09
-9.23983e-09
1.00747e-08
4.25718e-10
-1.26062e-09
-4.75514e-09
-5.3704e-09
8.857e-10
2.80051e-09
-3.00159e-09
-2.5853e-09
2.78638e-09
-8.1119e-10
3.82875e-09
-2.17044e-10
3.56489e-09
1.76903e-09
-2.05694e-09
-3.27697e-09
3.04978e-09
-2.96082e-10
-5.14068e-09
6.30037e-09
1.8901e-09
1.74307e-10
-6.51753e-09
-2.02923e-09
-1.34924e-09
9.89598e-09
-3.3352e-09
-6.94382e-09
3.76149e-09
4.76229e-09
7.0551e-09
-1.74273e-09
1.07663e-08
-9.90889e-09
-4.31704e-10
-4.71829e-09
7.45137e-09
2.71282e-09
-8.06285e-09
-2.66859e-09
8.22551e-10
-3.55026e-09
-9.26775e-09
1.86721e-09
3.12599e-09
-1.16446e-09
-1.20539e-10
-4.93799e-09
6.81834e-09
-2.41803e-09
2.69016e-09
-6.36096e-09
-6.94736e-09
4.67986e-09
-5.86178e-09
8.12922e-09
3.10829e-09
4.0253e-09
-1.4081e-08
4.65422e-09
-7.38249e-09
5.83652e-09
1.84096e-09
4.18396e-09
-1.99962e-09
6.06599e-09
4.54829e-10
2.30181e-09
-1.5256e-09
-7.21577e-09
6.43952e-09
-4.38227e-09
4.37895e-09
2.3051e-09
-4.75486e-09
-9.21302e-09
1.28956e-08
1.07226e-09
1.06319e-08
-1.03226e-08
4.34484e-09
-2.90951e-09
9.15869e-09
4.38273e-09
2.16663e-09
-1.49936e-08
9.91746e-09
-5.21442e-09
4.6435e-09
5.48276e-10
1.13543e-09
7.13083e-09
1.66271e-10
-2.91817e-09
4.97071e-09
6.0338e-09
-5.70343e-09
-5.30108e-09
5.60503e-09
2.35966e-10
-8.70265e-10
1.23567e-09
-6.63105e-09
-2.41626e-09
7.8116e-09
-2.82237e-09
-8.75335e-09
1.28114e-08
-1.44926e-09
-7.95854e-09
6.58543e-09
-6.11999e-09
1.07813e-09
3.59258e-09
-6.90939e-09
4.55588e-09
3.5062e-10
-1.2262e-09
-1.17435e-09
-9.18993e-09
1.61093e-09
-7.13354e-09
-6.71849e-10
6.25736e-09
5.51503e-09
-1.63692e-09
-1.01355e-08
4.87879e-09
2.01238e-09
-6.33791e-10
-1.00525e-09
3.89367e-09
7.29677e-09
-5.67541e-09
6.03825e-09
-1.32199e-10
-5.3202e-09
3.98206e-09
-3.49762e-10
-8.48955e-09
-1.08869e-08
3.54659e-09
4.48076e-09
2.80434e-09
1.1683e-11
5.1988e-09
2.04732e-10
-4.53394e-09
6.12681e-10
4.5575e-09
-3.66228e-09
-1.50787e-09
2.50705e-09
-1.67289e-09
-2.2146e-10
2.14438e-09
-2.00198e-10
1.26234e-09
-2.10648e-09
3.23683e-10
-1.87948e-09
-9.39525e-10
-2.34911e-09
2.26046e-09
-1.31482e-09
-3.05213e-09
6.22796e-10
-3.52331e-11
1.92891e-09
3.2016e-09
-2.73469e-09
-2.39584e-09
2.45007e-09
1.01621e-10
-2.39078e-09
-4.03142e-09
5.48273e-09
-5.97719e-09
3.38622e-09
-2.51955e-09
2.62053e-09
6.11915e-10
7.01446e-11
-5.97916e-09
1.92964e-09
-2.14732e-09
-3.5062e-09
4.74945e-10
-3.89444e-09
-1.15246e-08
2.15117e-08
-8.49603e-09
-1.65315e-08
2.00105e-08
-1.50036e-08
1.18057e-08
9.58878e-10
-2.25504e-09
-1.05096e-08
8.1e-09
2.23259e-09
1.47312e-09
-1.95706e-09
1.04866e-08
-4.29536e-10
-1.04817e-08
1.0337e-08
-1.81236e-09
1.27112e-08
-9.65933e-10
-1.07863e-08
3.13451e-09
1.18092e-08
-1.55249e-08
-1.97254e-09
2.94529e-09
-5.95593e-10
1.9162e-08
2.19038e-08
1.05201e-09
-2.10887e-09
-1.06279e-08
-2.89037e-09
1.24268e-08
9.50175e-10
9.89006e-09
-2.4434e-09
-1.81436e-08
1.53413e-08
-5.69381e-09
-6.00753e-10
-1.50911e-08
-2.45177e-09
1.27879e-08
1.95783e-09
-2.7885e-09
-6.47214e-10
1.3903e-08
-1.04673e-08
7.9073e-09
-8.10531e-09
4.81045e-09
-4.61243e-09