/*--------------------------------*- C++ -*----------------------------------*\
| =========                 |                                                 |
| \\      /  F ield         | OpenFOAM: The Open Source CFD Toolbox           |
|  \\    /   O peration     | Version:  v1612+                                |
|   \\  /    A nd           | Web:      www.OpenFOAM.com                      |
|    \\/     M anipulation  |                                                 |
\*---------------------------------------------------------------------------*/
FoamFile
{
    version     2.0;
    format      ascii;
    class       volVectorField;
    location    "239";
    object      U;
}
// * * * * * * * * * * * * * * * * * * * * * * * * * * * * * * * * * * * * * //

dimensions      [0 1 -1 0 0 0 0];

internalField   nonuniform List<vector> 
16834
(
(-0.821063 0.0709537 -0.493307)
(-0.740584 0.202641 -0.551992)
(-0.770377 0.210915 -0.57767)
(-0.792132 0.237828 -0.597966)
(-0.784873 0.229483 -0.600586)
(-0.7728 0.251672 -0.610191)
(-0.752983 0.20298 -0.539132)
(-0.772611 0.210128 -0.563013)
(-0.831519 0.230794 -0.60747)
(-0.843138 0.224017 -0.622273)
(-0.73873 0.214867 -0.552034)
(-0.814481 0.242184 -0.598895)
(-0.853626 0.264834 -0.637879)
(-0.733383 0.206255 -0.536939)
(-0.751147 0.229663 -0.577524)
(-0.794331 0.228735 -0.580108)
(-0.814956 0.260282 -0.615157)
(-0.734641 0.196479 -0.516294)
(-0.321838 0.0688761 -0.307808)
(-0.337554 0.0741875 -0.317996)
(-0.315013 0.0582464 -0.275437)
(-0.286658 0.0489981 -0.239326)
(-0.333689 0.0818742 -0.319537)
(-0.317392 0.0506852 -0.260189)
(-0.355747 0.0660018 -0.291294)
(-0.387426 0.100498 -0.339158)
(-0.375798 0.0930885 -0.332011)
(-0.324319 0.0784135 -0.279708)
(-0.37476 0.0608845 -0.271559)
(-0.295533 0.0429515 -0.216769)
(-0.335815 0.0612162 -0.256583)
(-0.316326 0.0584603 -0.233876)
(-0.413846 0.0874009 -0.31414)
(-0.71011 0.19407 -0.48299)
(-0.646955 0.171531 -0.447195)
(-0.674271 0.186191 -0.451956)
(-0.731289 0.202646 -0.507279)
(-0.68556 0.165111 -0.481358)
(-0.645771 0.174528 -0.482816)
(-0.616693 0.145835 -0.441642)
(-0.719694 0.179799 -0.488052)
(-0.721438 0.189277 -0.493041)
(-0.696585 0.203062 -0.503266)
(-0.687337 0.170512 -0.470959)
(-0.675599 0.15041 -0.450665)
(-0.643625 0.172741 -0.457483)
(-0.66292 0.16836 -0.444555)
(-0.664165 0.181473 -0.490878)
(-0.62333 0.158297 -0.424942)
(-0.808642 0.0893761 -0.515903)
(-0.781275 0.0759695 -0.474629)
(-0.879623 0.11076 -0.564946)
(-0.781742 0.0772039 -0.494149)
(-0.781756 0.0670691 -0.476159)
(-0.993211 -0.0226605 -0.520043)
(-0.983851 -0.00545519 -0.534822)
(-0.973834 -0.0393578 -0.487335)
(-0.984641 0.00402813 -0.53646)
(-0.954619 0.00244598 -0.531827)
(-0.958161 -0.0166511 -0.501087)
(-0.946918 -0.0255004 -0.481072)
(-0.913481 -0.0170663 -0.476122)
(-0.900522 -0.0147402 -0.46791)
(-0.912337 -0.0273388 -0.478543)
(-0.876118 -0.0402146 -0.4489)
(-0.915202 -0.03325 -0.465499)
(-0.929434 -0.015351 -0.497735)
(-0.737305 0.328021 -0.835234)
(-0.703121 0.332892 -0.819364)
(-0.732872 0.313433 -0.823395)
(-0.750567 0.318603 -0.821934)
(-0.751802 0.330646 -0.808844)
(-0.684635 0.309823 -0.80107)
(-0.645687 0.31529 -0.756436)
(-0.654564 0.352934 -0.752029)
(-0.705377 0.34815 -0.813589)
(-0.765896 0.315022 -0.795675)
(-0.692012 0.342022 -0.767377)
(-0.657337 0.307622 -0.729907)
(-0.641435 0.327547 -0.726814)
(-0.696803 0.333633 -0.761909)
(-0.806419 0.217747 -0.736446)
(-0.793442 0.222345 -0.733827)
(-0.817641 0.234209 -0.749335)
(-0.823501 0.238049 -0.741418)
(-0.642764 0.209557 -0.598424)
(-0.714648 0.226523 -0.640019)
(-0.701554 0.214158 -0.672844)
(-0.692686 0.242234 -0.623921)
(-0.587592 0.212846 -0.579794)
(-0.694052 0.230378 -0.653244)
(-0.765651 0.221502 -0.725063)
(-0.720037 0.24781 -0.643415)
(-0.614656 0.231677 -0.597489)
(-0.634077 0.23098 -0.629825)
(-0.731759 0.240633 -0.709337)
(-0.767642 0.258182 -0.756192)
(-0.793929 0.275851 -0.730281)
(-0.681765 0.230584 -0.706785)
(-0.686178 0.207386 -0.690664)
(-0.627365 0.204967 -0.632485)
(-0.598661 0.172336 -0.590674)
(-0.661122 0.219887 -0.675724)
(-0.660815 0.18764 -0.654485)
(-0.627222 0.203568 -0.626737)
(-0.657704 0.235809 -0.667008)
(-0.693086 0.269761 -0.719118)
(-0.697948 0.273191 -0.755811)
(-0.694716 0.264176 -0.715239)
(-0.704173 0.283044 -0.759718)
(-0.707768 0.27339 -0.767718)
(-0.638136 0.175033 -0.632148)
(-0.712095 0.250975 -0.763328)
(-0.696875 0.210804 -0.706481)
(-0.727093 0.265277 -0.743728)
(-0.715977 0.259461 -0.707481)
(-0.684653 0.187501 -0.677874)
(-0.677245 0.190942 -0.661162)
(-0.724268 0.259519 -0.75108)
(-0.668217 0.222531 -0.673434)
(-0.66101 0.174183 -0.64694)
(-0.631734 0.158485 -0.607541)
(-0.779775 0.334105 -0.668277)
(-0.830404 0.330016 -0.698858)
(-0.746133 0.331524 -0.685747)
(-0.701241 0.364548 -0.721637)
(-0.62821 0.329657 -0.646625)
(-0.671511 0.323008 -0.666494)
(-0.697639 0.346424 -0.64269)
(-0.786886 0.309473 -0.64267)
(-0.705402 0.288849 -0.59396)
(-0.653427 0.299981 -0.629777)
(-0.654989 0.312739 -0.649055)
(-0.61662 0.290773 -0.59669)
(-0.557488 0.287226 -0.607524)
(-0.68503 0.333251 -0.682943)
(-0.671109 0.349703 -0.678382)
(-0.639959 0.317621 -0.65248)
(-0.617143 0.286773 -0.584925)
(-0.699888 0.28713 -0.602286)
(-0.592774 0.306543 -0.629704)
(-0.65763 0.260332 -0.580541)
(-0.673028 0.261342 -0.576734)
(-0.787738 -0.169919 -0.542328)
(-0.748833 -0.207102 -0.517643)
(-0.785771 -0.165032 -0.539875)
(-0.785299 -0.189592 -0.545252)
(-0.790363 -0.216567 -0.537916)
(-0.809495 -0.216243 -0.515702)
(-0.772513 -0.0938784 -0.537139)
(-0.904856 -0.120886 -0.515397)
(-0.906279 -0.100022 -0.517288)
(-0.885157 -0.163725 -0.508558)
(-0.797538 -0.148852 -0.541319)
(-0.76568 -0.0542949 -0.530131)
(-0.832831 -0.138624 -0.539436)
(-0.858377 -0.028641 -0.521664)
(-0.892633 -0.0746354 -0.515006)
(-0.902898 -0.105952 -0.513149)
(-0.894483 -0.182709 -0.512067)
(-0.835389 -0.0601155 -0.540171)
(-0.762406 -0.00234824 -0.523317)
(-0.912892 -0.141706 -0.526236)
(-0.860783 -0.119811 -0.53187)
(-0.657603 0.340364 -0.657431)
(-0.65831 0.31547 -0.587801)
(-0.65688 0.302973 -0.566955)
(-0.693155 0.380091 -0.70568)
(-0.761393 0.406744 -0.707155)
(-0.754374 0.402481 -0.710134)
(-0.67773 0.309642 -0.58085)
(-0.756861 0.399722 -0.680546)
(-0.785824 0.381955 -0.700515)
(-0.707928 0.371285 -0.66012)
(-0.698264 0.340216 -0.607831)
(-0.703106 0.349201 -0.628271)
(-0.713461 0.334436 -0.642732)
(-0.765005 0.377838 -0.676407)
(-0.760404 0.365861 -0.652858)
(-0.721554 0.103454 -0.569479)
(-0.700419 0.0439265 -0.597432)
(-0.583651 0.0913184 -0.594753)
(-0.701044 0.0137376 -0.618639)
(-0.751366 0.000618584 -0.596781)
(-0.732366 0.112162 -0.591621)
(-0.630128 0.0338877 -0.616437)
(-0.705886 0.0712497 -0.615519)
(-0.77689 0.15808 -0.658059)
(-0.71634 0.15976 -0.633963)
(-0.768639 0.104429 -0.627591)
(-0.740672 0.124444 -0.62861)
(-0.704796 0.156784 -0.622225)
(-0.733073 0.144827 -0.637793)
(-0.794901 0.146991 -0.688409)
(-0.7661 0.147606 -0.671096)
(-0.704366 0.128307 -0.604384)
(-0.770125 0.108005 -0.642086)
(-0.819428 0.110676 -0.688726)
(-0.787723 0.0902938 -0.644167)
(-0.834632 0.135541 -0.722227)
(-0.736672 0.124836 -0.622739)
(-0.811151 0.127001 -0.703029)
(-0.753591 0.10612 -0.617601)
(-0.79513 0.113149 -0.660351)
(-0.268213 0.042845 -0.392105)
(-0.265633 0.0509289 -0.352118)
(-0.27788 0.0532612 -0.380793)
(-0.292779 0.0604316 -0.413883)
(-0.350655 0.0855713 -0.475718)
(-0.358419 0.0894326 -0.459754)
(-0.356407 0.0926949 -0.462605)
(-0.344242 0.10981 -0.439723)
(-0.274747 0.0635519 -0.359446)
(-0.288499 0.0845683 -0.385618)
(-0.283189 0.0709986 -0.40696)
(-0.25628 0.0407649 -0.32392)
(-0.338405 0.106694 -0.421928)
(-0.32075 0.112077 -0.372044)
(-0.278788 0.0790035 -0.339597)
(-0.295022 0.0951146 -0.367794)
(-0.294895 0.068041 -0.369381)
(-0.297937 0.0940601 -0.366111)
(-0.288414 0.0897718 -0.351969)
(-0.277575 0.0697869 -0.327648)
(-0.958381 0.0532579 -0.537535)
(-0.973419 0.05129 -0.527666)
(-0.927991 0.0154606 -0.522776)
(-0.960667 0.00447993 -0.524155)
(-0.964985 0.0715976 -0.533931)
(-0.98145 0.0271468 -0.530675)
(-0.936167 0.066899 -0.535371)
(-0.983593 0.0427436 -0.519548)
(-0.977882 0.0362804 -0.526813)
(-0.984789 -0.00436568 -0.513053)
(-0.991443 0.0154973 -0.523738)
(-0.881799 0.0307016 -0.62943)
(-0.923114 0.0485819 -0.656184)
(-0.895394 0.0505548 -0.639603)
(-0.858877 0.02559 -0.619147)
(-0.902218 0.0435418 -0.646992)
(-0.923993 0.0624361 -0.658514)
(-0.881595 0.0396098 -0.638622)
(-0.862092 0.0334385 -0.624458)
(-0.905175 0.0614463 -0.652987)
(-0.880339 0.0596374 -0.656905)
(-0.856802 0.0583502 -0.643667)
(-0.906349 0.0757708 -0.653844)
(-0.874899 0.0428362 -0.642717)
(-0.879078 0.0476179 -0.649095)
(-0.894643 0.0494295 -0.656031)
(-0.875743 0.0564377 -0.64423)
(-0.870014 0.0712063 -0.635426)
(-0.891882 0.0707349 -0.662101)
(-0.868876 0.0717058 -0.646486)
(-0.915897 0.0772945 -0.663909)
(-0.903119 0.131413 -0.642226)
(-0.878539 0.124112 -0.614495)
(-0.878569 0.130728 -0.648997)
(-0.863279 0.134025 -0.637317)
(-0.869176 0.141615 -0.672041)
(-0.884801 0.11975 -0.651269)
(-0.888732 0.150467 -0.653391)
(-0.862076 0.132711 -0.642544)
(-0.857199 0.106971 -0.624793)
(-0.824959 0.0931015 -0.585041)
(-0.874318 0.129169 -0.63905)
(-0.795215 0.0864793 -0.573228)
(-0.812547 0.103744 -0.59851)
(-0.815649 0.106287 -0.590185)
(-0.868269 0.118155 -0.633277)
(-0.870637 0.125742 -0.663924)
(-0.879845 0.127245 -0.663234)
(-0.887962 0.150955 -0.666092)
(-0.236389 0.069968 -0.28543)
(-0.230283 0.0768954 -0.269174)
(-0.27495 0.122577 -0.370762)
(-0.24932 0.0939887 -0.318355)
(-0.262958 0.0934953 -0.288569)
(-0.259266 0.105673 -0.304393)
(-0.246087 0.0800615 -0.306176)
(-0.267371 0.104586 -0.357456)
(-0.323251 0.155394 -0.397696)
(-0.2933 0.124982 -0.33661)
(-0.362555 0.154362 -0.404024)
(-0.24588 0.0821589 -0.285044)
(-0.275712 0.107822 -0.350521)
(-0.339013 0.137066 -0.33881)
(-0.32836 0.157091 -0.406219)
(-0.320051 0.190437 -0.518276)
(-0.359202 0.231683 -0.538671)
(-0.401514 0.267767 -0.595469)
(-0.404497 0.278114 -0.584497)
(-0.25307 0.119663 -0.494506)
(-0.277758 0.174094 -0.496998)
(-0.368305 0.207152 -0.564583)
(-0.273277 0.095464 -0.503462)
(-0.280841 0.0745845 -0.530976)
(-0.248357 0.0872104 -0.441656)
(-0.23105 0.0793727 -0.403827)
(-0.245412 0.112114 -0.442812)
(-0.243499 0.108311 -0.418334)
(-0.262638 0.0663085 -0.474726)
(-0.254956 0.0677946 -0.465439)
(-0.297438 0.163138 -0.479004)
(-0.251782 0.117076 -0.398621)
(-0.247894 0.110857 -0.39829)
(-0.304821 0.122502 -0.491021)
(-0.239798 0.0928485 -0.379252)
(-0.246877 0.11067 -0.381648)
(-0.279535 0.108053 -0.474904)
(-0.242928 0.0925573 -0.392273)
(-0.243449 0.072045 -0.404383)
(-0.282133 0.124537 -0.431045)
(-0.816011 0.138535 -0.583536)
(-0.833327 0.185651 -0.604228)
(-0.746823 0.136514 -0.571195)
(-0.842346 0.258342 -0.618883)
(-0.788982 0.228534 -0.610891)
(-0.844322 0.198032 -0.598598)
(-0.868818 0.132047 -0.557208)
(-0.85086 0.183578 -0.592778)
(-0.82356 0.203363 -0.589429)
(-0.743591 0.247161 -0.599037)
(-0.864761 0.110193 -0.540245)
(-0.781341 0.155262 -0.58807)
(-0.687267 0.122904 -0.599066)
(-0.670156 0.0962091 -0.60575)
(-0.735647 0.0338999 -0.576206)
(-0.86731 0.0927785 -0.56458)
(-0.867896 0.0864961 -0.568189)
(-0.722213 0.09286 -0.607299)
(-0.73935 0.0943427 -0.604698)
(-0.809373 0.048989 -0.581546)
(-0.854273 0.0138545 -0.549972)
(-0.778582 -0.0436176 -0.563917)
(-0.669241 -0.0592878 -0.598027)
(-0.651716 -0.0705627 -0.592572)
(-0.737206 -0.0817886 -0.568029)
(-0.682528 -0.0765991 -0.611656)
(-0.649808 -0.109601 -0.573478)
(-0.746245 -0.0267371 -0.589511)
(-0.713363 0.113234 -0.593235)
(-0.692229 -0.0431419 -0.615473)
(-0.696221 -0.0423445 -0.613639)
(-0.681152 -0.0956125 -0.574127)
(-0.70988 -0.0496023 -0.584407)
(-0.696963 -0.149376 -0.581029)
(-0.697193 -0.182747 -0.557683)
(-0.726427 -0.0960408 -0.598761)
(-0.744178 -0.117235 -0.58554)
(-0.70464 -0.182103 -0.567182)
(-0.692199 -0.150632 -0.587934)
(-0.696656 -0.0394554 -0.604012)
(-0.71669 -0.0671658 -0.591612)
(-0.710196 -0.0514483 -0.597598)
(-0.8142 -0.0769821 -0.555497)
(-0.820437 -0.0976692 -0.547765)
(-0.764754 -0.078066 -0.587399)
(-0.72749 -0.142734 -0.560391)
(-0.767184 -0.183612 -0.552927)
(-0.796382 -0.0536082 -0.567546)
(-0.799368 -0.0364258 -0.564165)
(-0.84037 0.199313 -0.653093)
(-0.847824 0.203248 -0.659303)
(-0.844397 0.164207 -0.641536)
(-0.817253 0.165372 -0.604684)
(-0.720174 0.126719 -0.559285)
(-0.747826 0.147147 -0.563846)
(-0.816087 0.191277 -0.647167)
(-0.807414 0.17967 -0.614117)
(-0.69402 0.109241 -0.525424)
(-0.729906 0.136031 -0.571795)
(-0.843929 0.190941 -0.672765)
(-0.738846 0.121948 -0.570025)
(-0.792455 0.159435 -0.618281)
(-0.806449 0.153442 -0.63037)
(-0.821748 0.16596 -0.65308)
(-0.602867 -0.0968906 -0.581443)
(-0.537724 -0.180751 -0.545002)
(-0.569865 -0.163255 -0.572324)
(-0.611902 -0.100056 -0.57439)
(-0.704222 -0.116502 -0.573368)
(-0.682227 -0.210122 -0.566592)
(-0.651764 -0.23885 -0.558242)
(-0.567187 -0.151008 -0.577546)
(-0.618122 -0.110679 -0.590242)
(-0.67147 -0.125361 -0.582882)
(-0.665657 -0.226151 -0.556414)
(-0.708445 -0.211226 -0.552735)
(-0.590094 -0.213571 -0.543175)
(-0.687481 -0.228772 -0.553022)
(-0.654642 -0.222673 -0.555856)
(-0.585888 -0.187542 -0.569319)
(-0.604411 -0.150288 -0.572347)
(-0.695438 -0.127323 -0.562783)
(-0.67549 -0.167505 -0.559468)
(-0.291977 0.0409947 -0.36257)
(-0.315618 0.0571195 -0.38576)
(-0.305506 0.0547514 -0.344758)
(-0.272122 0.0324293 -0.270088)
(-0.261369 0.027955 -0.276651)
(-0.289418 0.0544462 -0.353824)
(-0.282593 0.0441019 -0.325731)
(-0.297486 0.0463066 -0.388973)
(-0.284339 0.057734 -0.313459)
(-0.296769 0.0702822 -0.375427)
(-0.329283 0.0698873 -0.401634)
(-0.347117 0.102147 -0.410468)
(-0.352958 0.102012 -0.402327)
(-0.34339 0.101901 -0.404702)
(-0.297842 0.0796493 -0.372623)
(-0.309704 0.0787356 -0.339634)
(-0.303165 0.0652602 -0.317662)
(-0.810282 0.254079 -0.776867)
(-0.799072 0.240573 -0.749541)
(-0.797632 0.267155 -0.775602)
(-0.797116 0.255696 -0.742821)
(-0.781736 0.269514 -0.779773)
(-0.75259 0.234571 -0.746518)
(-0.782802 0.222115 -0.719753)
(-0.792469 0.265581 -0.789577)
(-0.776838 0.251641 -0.730228)
(-0.771306 0.254773 -0.735558)
(-0.771698 0.244264 -0.727227)
(-0.73107 0.185498 -0.664106)
(-0.736344 0.190151 -0.69052)
(-0.77677 0.231732 -0.70969)
(-0.762545 0.197707 -0.70614)
(-0.791516 0.219294 -0.749015)
(-0.758602 0.235445 -0.752457)
(-0.766549 0.231894 -0.764025)
(-0.736104 0.181979 -0.699504)
(-0.733866 0.205683 -0.683532)
(-0.781142 0.234046 -0.760587)
(-0.774842 0.232934 -0.742136)
(-0.194129 0.0305928 -0.303539)
(-0.207417 0.0440436 -0.310586)
(-0.198006 0.0124275 -0.347641)
(-0.183657 0.0176109 -0.31207)
(-0.24077 0.0294892 -0.402338)
(-0.228822 0.0509366 -0.358975)
(-0.174114 0.0168762 -0.271879)
(-0.194741 0.0419585 -0.285673)
(-0.173773 0.031598 -0.262107)
(-0.226815 0.040395 -0.377944)
(-0.194782 0.0235614 -0.334184)
(-0.205527 0.018141 -0.364184)
(-0.183643 0.0392068 -0.297263)
(-0.201651 0.0519391 -0.314052)
(-0.230613 0.0362017 -0.403506)
(-0.231855 0.0631069 -0.376388)
(-0.198269 0.0397832 -0.345582)
(-0.447537 -0.122117 -0.581786)
(-0.444405 -0.101315 -0.583912)
(-0.496389 -0.185011 -0.546911)
(-0.438594 -0.191805 -0.510095)
(-0.456869 -0.190975 -0.524935)
(-0.39553 -0.19077 -0.479715)
(-0.419539 -0.157456 -0.533871)
(-0.456834 -0.152393 -0.575254)
(-0.365743 -0.126547 -0.515088)
(-0.369035 -0.144608 -0.529358)
(-0.410609 -0.166305 -0.552197)
(-0.327605 -0.180772 -0.419027)
(-0.329267 -0.138225 -0.454186)
(-0.327258 -0.144466 -0.483837)
(-0.292616 -0.157139 -0.413996)
(-0.774408 -0.228585 -0.527488)
(-0.706415 -0.228124 -0.54299)
(-0.754879 -0.193767 -0.541705)
(-0.711411 -0.212189 -0.546368)
(-0.808464 -0.224319 -0.540009)
(-0.764478 -0.226674 -0.53382)
(-0.690545 -0.21122 -0.548067)
(-0.677985 -0.157539 -0.564896)
(-0.786982 -0.137886 -0.536727)
(-0.808467 -0.141213 -0.524341)
(-0.687138 -0.169647 -0.57387)
(-0.684145 -0.187799 -0.56292)
(-0.692466 -0.0937132 -0.544261)
(-0.679827 -0.134028 -0.580196)
(-0.726487 -0.12903 -0.563992)
(-0.767156 -0.108298 -0.530836)
(-0.725469 -0.0614837 -0.502164)
(-0.674523 -0.0757651 -0.547928)
(-0.844773 0.199267 -0.503809)
(-0.843622 0.196116 -0.484943)
(-0.797071 0.176701 -0.429427)
(-0.767674 0.133564 -0.360395)
(-0.851415 0.190459 -0.498414)
(-0.854252 0.200609 -0.524021)
(-0.820727 0.148956 -0.407711)
(-0.871565 0.176394 -0.518242)
(-0.875561 0.188348 -0.529692)
(-0.775487 0.146942 -0.37451)
(-0.735698 0.111239 -0.334683)
(-0.840025 0.171921 -0.496091)
(-0.798873 0.0919025 -0.354365)
(-0.854806 0.135626 -0.44325)
(-0.834803 0.0999989 -0.384916)
(-0.847435 0.134146 -0.447456)
(-0.771565 0.0933267 -0.338099)
(-0.808237 0.0962043 -0.371204)
(-0.761867 0.0553026 -0.323793)
(-0.821026 0.144351 -0.42426)
(-0.811618 -0.158389 -0.544011)
(-0.772865 -0.18064 -0.553928)
(-0.829641 -0.109532 -0.550375)
(-0.81009 -0.0806485 -0.552834)
(-0.8148 -0.0875591 -0.562751)
(-0.742099 -0.246384 -0.521667)
(-0.737271 -0.252974 -0.482801)
(-0.796556 -0.223732 -0.499922)
(-0.754035 -0.204426 -0.547192)
(-0.774397 -0.173176 -0.53868)
(-0.817157 -0.10444 -0.538745)
(-0.854696 -0.136403 -0.537881)
(-0.791003 -0.148203 -0.557161)
(-0.726277 -0.242467 -0.496149)
(-0.738739 -0.251986 -0.447319)
(-0.736582 -0.23522 -0.498083)
(-0.74471 -0.231665 -0.51711)
(-0.776375 -0.224253 -0.462142)
(-0.758958 -0.236384 -0.450744)
(-0.804054 -0.221071 -0.471848)
(-0.824649 -0.201251 -0.480591)
(-0.819799 -0.211047 -0.478205)
(-0.357942 0.0721365 -0.38662)
(-0.372841 0.076576 -0.410842)
(-0.380393 0.0731835 -0.377235)
(-0.377313 0.0753078 -0.391565)
(-0.371263 0.0616655 -0.390869)
(-0.30657 0.0397689 -0.322256)
(-0.32357 0.0439462 -0.345988)
(-0.277845 0.0199672 -0.261951)
(-0.302726 0.0279985 -0.265785)
(-0.371841 0.060803 -0.391994)
(-0.326625 0.0499408 -0.334607)
(-0.342684 0.0628043 -0.307894)
(-0.382739 0.0669814 -0.343681)
(-0.308687 0.037232 -0.286967)
(-0.347539 0.051397 -0.300779)
(-0.34911 0.0508192 -0.329817)
(-0.633806 0.308664 -0.544469)
(-0.626291 0.31461 -0.564839)
(-0.552403 0.278807 -0.482281)
(-0.58009 0.283435 -0.500713)
(-0.52986 0.267436 -0.434223)
(-0.55738 0.275998 -0.44235)
(-0.522853 0.25102 -0.438114)
(-0.527588 0.237546 -0.392728)
(-0.587435 0.280404 -0.458643)
(-0.568054 0.264525 -0.423725)
(-0.563044 0.27606 -0.443117)
(-0.53398 0.260452 -0.424325)
(-0.617241 0.311638 -0.534017)
(-0.635816 0.294541 -0.547934)
(-0.535992 0.240142 -0.445947)
(-0.497898 0.219045 -0.403033)
(-0.520076 0.25051 -0.424272)
(-0.333071 0.0366551 -0.514534)
(-0.370598 -0.00188926 -0.544457)
(-0.3301 0.0964188 -0.50406)
(-0.411666 0.129759 -0.534931)
(-0.33681 0.11336 -0.489472)
(-0.368067 0.14281 -0.496785)
(-0.317631 0.0732438 -0.490816)
(-0.464228 0.0532888 -0.575122)
(-0.41142 0.0570178 -0.546905)
(-0.428724 0.114955 -0.538024)
(-0.321053 0.111948 -0.477911)
(-0.367184 0.101842 -0.504922)
(-0.364676 0.194289 -0.458745)
(-0.361524 0.189547 -0.463706)
(-0.536402 0.2374 -0.533914)
(-0.537337 0.221522 -0.534809)
(-0.571379 0.281743 -0.620704)
(-0.494144 0.236175 -0.553785)
(-0.49134 0.201599 -0.518716)
(-0.475319 0.199173 -0.477064)
(-0.449314 0.216791 -0.496541)
(-0.379819 0.18403 -0.466386)
(-0.533063 0.280923 -0.598132)
(-0.414136 0.207405 -0.481637)
(-0.517818 0.283254 -0.581242)
(-0.442061 0.22048 -0.533796)
(-0.425853 0.200214 -0.502053)
(-0.356117 0.169746 -0.461822)
(-0.364941 0.193883 -0.467414)
(-0.399417 0.204673 -0.488763)
(-0.435693 0.213066 -0.531752)
(-0.52486 0.294798 -0.614584)
(-0.420801 0.182846 -0.516412)
(-0.762398 0.285667 -0.77951)
(-0.699642 0.27757 -0.751414)
(-0.818254 0.275279 -0.768814)
(-0.76012 0.27909 -0.773737)
(-0.78348 0.295217 -0.776547)
(-0.726965 0.28615 -0.757739)
(-0.652844 0.309331 -0.719751)
(-0.568882 0.274773 -0.614809)
(-0.736041 0.299803 -0.74209)
(-0.726374 0.30934 -0.727284)
(-0.687625 0.297879 -0.689109)
(-0.65451 0.291783 -0.689204)
(-0.69102 0.283739 -0.726617)
(-0.722887 0.280871 -0.710291)
(-0.730938 0.26698 -0.73804)
(-0.68559 0.285056 -0.682547)
(-0.662825 0.279037 -0.676075)
(-0.734088 0.140959 -0.530334)
(-0.79633 0.14472 -0.531899)
(-0.686745 0.152947 -0.518913)
(-0.721021 0.118604 -0.514579)
(-0.832437 0.110209 -0.538603)
(-0.862425 0.100297 -0.529392)
(-0.817028 0.105472 -0.536078)
(-0.821421 0.107676 -0.515306)
(-0.704135 0.115975 -0.513376)
(-0.839369 0.108639 -0.510315)
(-0.741357 0.118112 -0.510008)
(-0.620614 0.111002 -0.497997)
(-0.817163 0.12105 -0.53059)
(-0.794598 0.0538409 -0.509976)
(-0.89119 0.00490909 -0.51462)
(-0.864797 0.0178752 -0.522798)
(-0.860184 0.0305713 -0.524298)
(-0.842305 0.05743 -0.535337)
(-0.819391 0.0629966 -0.512987)
(-0.799563 0.0662292 -0.528857)
(-0.7234 0.0753083 -0.481709)
(-0.802317 0.111018 -0.520313)
(-0.846652 0.022924 -0.530184)
(-0.816088 -0.0279092 -0.543039)
(-0.776917 -0.0124134 -0.543673)
(-0.796199 0.0290862 -0.519647)
(-0.832375 0.0464875 -0.508813)
(-0.679087 0.0890429 -0.49604)
(-0.718758 0.0301467 -0.526339)
(-0.881439 0.139566 -0.684518)
(-0.884516 0.139651 -0.698198)
(-0.872097 0.143477 -0.691336)
(-0.874326 0.140429 -0.692312)
(-0.907772 0.16461 -0.659567)
(-0.888658 0.155583 -0.652292)
(-0.87454 0.149353 -0.64777)
(-0.884323 0.134312 -0.664368)
(-0.828725 0.144628 -0.677568)
(-0.886783 0.131719 -0.670985)
(-0.878865 0.170263 -0.69322)
(-0.887635 0.163954 -0.710986)
(-0.867467 0.176966 -0.657417)
(-0.881779 0.151709 -0.65728)
(-0.86236 0.16533 -0.651648)
(-0.829599 0.140859 -0.685484)
(-0.85492 0.175621 -0.679833)
(-0.834295 0.17446 -0.678295)
(-0.83806 0.163316 -0.680191)
(-0.803549 0.173167 -0.647185)
(-0.788579 0.111395 -0.583076)
(-0.710207 0.114522 -0.541876)
(-0.703347 0.124556 -0.545315)
(-0.724479 0.111912 -0.540209)
(-0.737193 0.0958635 -0.543648)
(-0.571662 0.107909 -0.469713)
(-0.653008 0.1212 -0.536424)
(-0.68295 0.11101 -0.531977)
(-0.683436 0.101828 -0.536419)
(-0.677376 0.109399 -0.54577)
(-0.738376 0.0994321 -0.544493)
(-0.509646 0.106298 -0.431376)
(-0.545713 0.0891569 -0.437537)
(-0.659884 0.0924489 -0.516062)
(-0.638673 0.117374 -0.532648)
(-0.583501 0.106676 -0.477026)
(-0.543763 0.101203 -0.440394)
(-0.855531 -0.232113 -0.423287)
(-0.814565 -0.228176 -0.381058)
(-0.884326 -0.217977 -0.452958)
(-0.875664 -0.207851 -0.427528)
(-0.943189 -0.138797 -0.496085)
(-0.898161 -0.173381 -0.480476)
(-0.865452 -0.20878 -0.391864)
(-0.898071 -0.19223 -0.408476)
(-0.816365 -0.21671 -0.371619)
(-0.878595 -0.207499 -0.438369)
(-0.94043 -0.158011 -0.496865)
(-0.906389 -0.194618 -0.449057)
(-0.941075 -0.122194 -0.492757)
(-0.933277 -0.14065 -0.452626)
(-0.910151 -0.157457 -0.419725)
(-0.842414 -0.20449 -0.380491)
(-0.881738 -0.190307 -0.410692)
(-0.855649 -0.18981 -0.392432)
(-0.7111 0.174828 -0.540065)
(-0.701785 0.150592 -0.524442)
(-0.827519 0.222796 -0.671261)
(-0.787442 0.221561 -0.615681)
(-0.805731 0.197678 -0.624568)
(-0.677308 0.144596 -0.515245)
(-0.792485 0.209377 -0.655722)
(-0.818607 0.211613 -0.674351)
(-0.792765 0.184828 -0.605177)
(-0.701897 0.137465 -0.559017)
(-0.80209 0.200035 -0.638566)
(-0.666157 0.139334 -0.532133)
(-0.719181 0.167423 -0.573539)
(-0.765334 0.177275 -0.610783)
(-0.64781 0.335671 -0.64904)
(-0.64399 0.307593 -0.614954)
(-0.536658 0.277591 -0.502921)
(-0.532226 0.268572 -0.483901)
(-0.640556 0.338839 -0.647368)
(-0.632247 0.304926 -0.616586)
(-0.628235 0.299532 -0.562105)
(-0.609597 0.302554 -0.582823)
(-0.553613 0.265508 -0.518577)
(-0.551853 0.272297 -0.506242)
(-0.560997 0.294154 -0.521712)
(-0.549024 0.283793 -0.493285)
(-0.562187 0.275199 -0.49361)
(-0.62928 0.334334 -0.623808)
(-0.628531 0.342596 -0.631747)
(-0.664466 0.336707 -0.642123)
(-0.604151 0.29903 -0.567754)
(-0.604292 0.314942 -0.577821)
(-0.611522 0.330209 -0.561613)
(-0.626289 0.309144 -0.577185)
(-0.588203 0.299089 -0.54208)
(-0.859782 0.0526275 -0.53221)
(-0.939391 0.0526221 -0.585911)
(-0.924112 0.0477452 -0.562112)
(-0.858376 0.0391037 -0.513755)
(-0.796003 0.0618679 -0.518833)
(-0.827183 0.0598875 -0.501718)
(-0.951016 0.0280042 -0.557159)
(-0.935847 0.0380428 -0.578905)
(-0.924327 0.0341575 -0.571746)
(-0.909168 0.0561965 -0.58455)
(-0.915071 0.056769 -0.584592)
(-0.867723 0.0289303 -0.52746)
(-0.899791 0.069514 -0.585175)
(-0.917308 0.0609953 -0.568399)
(-0.784229 0.0403439 -0.503032)
(-0.780283 0.349349 -0.756578)
(-0.756675 0.371534 -0.781474)
(-0.775942 0.314693 -0.807788)
(-0.757939 0.313528 -0.803285)
(-0.748641 0.312529 -0.803865)
(-0.736111 0.343901 -0.770499)
(-0.740765 0.351214 -0.780301)
(-0.742214 0.307905 -0.785002)
(-0.741102 0.321303 -0.81524)
(-0.77097 0.278283 -0.761628)
(-0.77334 0.298808 -0.787851)
(-0.77804 0.330844 -0.78485)
(-0.773671 0.34342 -0.762459)
(-0.756219 0.314353 -0.733824)
(-0.743013 0.301193 -0.727483)
(-0.747752 0.329495 -0.755369)
(-0.750471 0.322404 -0.746231)
(-0.745452 0.315497 -0.750312)
(-0.737403 0.320659 -0.757458)
(-0.756381 0.305561 -0.742346)
(-0.759777 0.308102 -0.74047)
(-0.796281 0.313845 -0.687885)
(-0.775294 0.289998 -0.671616)
(-0.792224 0.29957 -0.678858)
(-0.778091 0.291728 -0.664566)
(-0.704671 0.262354 -0.596618)
(-0.686567 0.247123 -0.566815)
(-0.7853 0.317025 -0.689189)
(-0.823381 0.323384 -0.684656)
(-0.823039 0.314539 -0.664125)
(-0.812247 0.310603 -0.667516)
(-0.798805 0.325248 -0.680582)
(-0.699157 0.259796 -0.554315)
(-0.717536 0.247036 -0.588265)
(-0.713684 0.249224 -0.561456)
(-0.764986 0.31321 -0.693246)
(-0.767157 0.296988 -0.668319)
(-0.715722 0.256127 -0.549467)
(-0.747082 0.263661 -0.567328)
(-0.775334 0.315854 -0.676402)
(-0.701618 0.267754 -0.550515)
(-0.717807 0.253398 -0.609591)
(-0.716338 0.248619 -0.561455)
(-0.414886 0.145712 -0.433343)
(-0.481007 0.139257 -0.448855)
(-0.555474 0.174398 -0.52111)
(-0.545363 0.170071 -0.510061)
(-0.595479 0.195719 -0.598426)
(-0.558545 0.169068 -0.528091)
(-0.953381 0.122053 -0.56322)
(-0.971992 0.102501 -0.543843)
(-0.958076 0.123755 -0.555607)
(-0.955489 0.0932081 -0.541303)
(-0.938986 0.114733 -0.558773)
(-0.949936 0.0981553 -0.551992)
(-0.912618 0.135613 -0.554993)
(-0.92753 0.117547 -0.558351)
(-0.926585 0.124474 -0.530554)
(-0.866967 0.0983629 -0.472916)
(-0.868776 0.0933485 -0.461806)
(-0.892847 0.0633096 -0.474216)
(-0.89245 0.0871209 -0.482291)
(-0.870237 0.0947595 -0.501785)
(-0.845081 0.0873661 -0.476203)
(-0.900356 0.058842 -0.460931)
(-0.857692 0.0580574 -0.445739)
(-0.916096 0.0746301 -0.475131)
(-0.435584 -0.108073 -0.510634)
(-0.482476 -0.139523 -0.522879)
(-0.43677 -0.195072 -0.47473)
(-0.387301 -0.177021 -0.422755)
(-0.518804 -0.108935 -0.579699)
(-0.46057 -0.107557 -0.530497)
(-0.487404 -0.20745 -0.522297)
(-0.479613 -0.214656 -0.495518)
(-0.406602 -0.106452 -0.493719)
(-0.503818 -0.108068 -0.554942)
(-0.35933 -0.147024 -0.448694)
(-0.362001 -0.166885 -0.425828)
(-0.536054 -0.160915 -0.564656)
(-0.373795 -0.141026 -0.473354)
(-0.399479 -0.182533 -0.464179)
(-0.48985 -0.213939 -0.518088)
(-0.654519 -0.16948 -0.570582)
(-0.64798 -0.213962 -0.546306)
(-0.675313 -0.222567 -0.556375)
(-0.601003 -0.175793 -0.570322)
(-0.5588 -0.215051 -0.531877)
(-0.610596 -0.236729 -0.543007)
(-0.638846 -0.214641 -0.560282)
(-0.545678 -0.214946 -0.53235)
(-0.534634 -0.223947 -0.521212)
(-0.591578 -0.184823 -0.56205)
(-0.628164 -0.15718 -0.581631)
(-0.550239 -0.165951 -0.557969)
(-0.553466 -0.194587 -0.552934)
(-0.596275 0.0922166 -0.456793)
(-0.657437 0.0855989 -0.464258)
(-0.696271 0.0658326 -0.464538)
(-0.7414 0.0633101 -0.476661)
(-0.799637 0.109053 -0.537511)
(-0.772201 0.118555 -0.52937)
(-0.583882 0.0694541 -0.454234)
(-0.62826 0.104184 -0.464435)
(-0.610118 0.112269 -0.466798)
(-0.620691 0.114409 -0.474427)
(-0.79515 0.116793 -0.52351)
(-0.789304 0.108354 -0.521553)
(-0.727114 0.111041 -0.519076)
(-0.617159 0.118605 -0.473877)
(-0.646257 0.103137 -0.456409)
(-0.620859 0.114099 -0.48119)
(-0.630982 0.105022 -0.476084)
(-0.715882 0.10043 -0.487626)
(-0.61667 0.350176 -0.800528)
(-0.64245 0.318385 -0.788009)
(-0.659542 0.385819 -0.883202)
(-0.639408 0.335507 -0.815314)
(-0.628415 0.346959 -0.814466)
(-0.64035 0.326753 -0.787914)
(-0.643835 0.342375 -0.801018)
(-0.619087 0.357612 -0.813545)
(-0.639245 0.363237 -0.82927)
(-0.646383 0.388574 -0.874451)
(-0.655469 0.350365 -0.842151)
(-0.654071 0.317612 -0.798418)
(-0.649276 0.284762 -0.762683)
(-0.642149 0.352695 -0.83432)
(-0.660433 0.313118 -0.801978)
(-0.681726 0.363722 -0.869591)
(-0.714554 0.308755 -0.80011)
(-0.695681 0.31674 -0.788765)
(-0.691337 0.295315 -0.752535)
(-0.68368 0.270073 -0.737209)
(-0.731875 0.341867 -0.822165)
(-0.730129 0.336809 -0.817283)
(-0.697185 0.270083 -0.709859)
(-0.680107 0.276658 -0.697597)
(-0.733686 0.326702 -0.756251)
(-0.670906 0.283895 -0.711248)
(-0.690599 0.282099 -0.718373)
(-0.70272 0.301164 -0.703158)
(-0.722504 0.300409 -0.718742)
(-0.714424 0.316484 -0.757837)
(-0.689913 0.298145 -0.705471)
(-0.694714 0.313115 -0.721506)
(-0.696866 0.31969 -0.545554)
(-0.65414 0.286176 -0.493345)
(-0.665896 0.31856 -0.546958)
(-0.606543 0.279759 -0.468262)
(-0.71747 0.326338 -0.597077)
(-0.698397 0.316318 -0.551685)
(-0.668725 0.310131 -0.583799)
(-0.644475 0.303185 -0.562209)
(-0.662674 0.32595 -0.559168)
(-0.603174 0.276967 -0.479195)
(-0.647661 0.297284 -0.538153)
(-0.612928 0.265702 -0.483024)
(-0.270481 0.0451223 -0.422048)
(-0.275722 0.0292103 -0.447965)
(-0.305926 0.0306211 -0.512928)
(-0.288717 0.0446932 -0.472007)
(-0.320896 0.105668 -0.464108)
(-0.299104 0.0527008 -0.518267)
(-0.267282 0.0518478 -0.444695)
(-0.318264 0.110122 -0.455833)
(-0.268431 0.0590304 -0.422572)
(-0.298367 0.0909663 -0.457626)
(-0.315061 0.0965614 -0.495766)
(-0.777771 -0.0508482 -0.509678)
(-0.748782 -0.0767894 -0.487238)
(-0.795568 0.0181256 -0.577916)
(-0.753392 -0.00746414 -0.515163)
(-0.766556 -0.0297633 -0.508906)
(-0.773741 -0.0597319 -0.517781)
(-0.82476 -0.0435929 -0.580726)
(-0.750168 -0.0715048 -0.503859)
(-0.779408 0.024108 -0.573566)
(-0.85168 0.00560323 -0.622587)
(-0.833216 -0.0296313 -0.592868)
(-0.815035 0.0119094 -0.594584)
(-0.317359 0.182752 -0.438571)
(-0.3535 0.188791 -0.448287)
(-0.328832 0.1915 -0.461765)
(-0.499026 0.257818 -0.592415)
(-0.444304 0.216951 -0.520383)
(-0.338779 0.180423 -0.424738)
(-0.352745 0.234893 -0.499145)
(-0.335281 0.215809 -0.459861)
(-0.490992 0.282905 -0.614272)