/*--------------------------------*- C++ -*----------------------------------*\
| =========                 |                                                 |
| \\      /  F ield         | OpenFOAM: The Open Source CFD Toolbox           |
|  \\    /   O peration     | Version:  v1612+                                |
|   \\  /    A nd           | Web:      www.OpenFOAM.com                      |
|    \\/     M anipulation  |                                                 |
\*---------------------------------------------------------------------------*/
FoamFile
{
    version     2.0;
    format      ascii;
    class       volScalarField;
    location    "166";
    object      p;
}
// * * * * * * * * * * * * * * * * * * * * * * * * * * * * * * * * * * * * * //

dimensions      [0 2 -2 0 0 0 0];

internalField   nonuniform List<scalar> 
16990
(
2.38684
2.46986
2.39526
2.53246
2.53035
2.55135
2.55206
2.53948
2.53924
2.54491
2.54089
2.5542
2.55604
2.54661
2.55205
2.55602
2.57032
2.56637
2.45998
2.46276
2.44991
2.45252
2.45801
2.44169
2.44645
2.44219
2.44087
2.45044
2.44124
2.44511
2.44001
2.43903
2.43321
2.38802
2.39028
2.3701
2.36849
2.37403
2.38729
2.38931
2.39357
2.39266
2.38135
2.37573
2.3747
2.37733
2.3859
2.41789
2.4021
2.40297
2.39652
2.38858
2.39817
2.40286
2.3927
2.39559
2.39314
2.39162
2.39943
2.39151
2.41516
2.40353
2.39085
2.34391
2.34284
2.34249
2.34235
2.34343
2.34272
2.33921
2.33585
2.33979
2.33744
2.33765
2.34524
2.34087
2.34239
2.33969
2.34112
2.33967
2.33459
2.32831
2.53968
2.54772
2.5338
2.54127
2.53044
2.52653
2.53614
2.53226
2.54462
2.55525
2.54008
2.54757
2.527
2.54327
2.54341
2.55387
2.53733
2.54657
2.41846
2.41329
2.41773
2.4176
2.4326
2.42376
2.42783
2.42645
2.42401
2.43853
2.43755
2.44496
2.43552
2.43971
2.43361
2.4414
2.43881
2.47559
2.45762
2.46496
2.48336
2.478
2.48545
2.46644
2.46725
2.47508
2.4804
2.47239
2.48148
2.49061
2.48618
2.47543
2.47915
2.48824
2.47814
2.4532
2.45111
2.439
2.4457
2.4364
2.43888
2.41943
2.41574
2.43727
2.44149
2.42421
2.43172
2.4216
2.43562
2.3919
2.38753
2.37667
2.37544
2.38602
2.38914
2.39474
2.3865
2.37933
2.37903
2.3892
2.3843
2.38832
2.38542
2.37596
2.39814
2.36882
2.3702
2.36688
2.37117
2.37568
2.37583
2.36933
2.37243
2.37119
2.37753
2.37868
2.37907
2.37199
2.38278
2.3891
2.38724
2.38305
2.40123
2.40162
2.39865
2.39716
2.40466
2.40424
2.40073
2.40181
2.40786
2.40577
2.40409
2.40855
2.40618
2.40952
2.39349
2.39559
2.3965
2.3919
2.40736
2.40534
2.38272
2.39996
2.40403
2.40912
2.40524
2.38866
2.40233
2.40709
2.38972
2.47473
2.46095
2.45559
2.4744
2.48352
2.45283
2.45556
2.48518
2.47743
2.47086
2.47747
2.46011
2.47224
2.46533
2.45188
2.45372
2.44673
2.46517
2.44927
2.44949
2.45509
2.47266
2.46383
2.46527
2.45728
2.46314
2.4814
2.47355
2.45323
2.4678
2.32683
2.32926
2.32762
2.32793
2.32365
2.32377
2.32665
2.32717
2.32483
2.32784
2.40189
2.40809
2.40949
2.4008
2.41503
2.405
2.39851
2.39687
2.39767
2.4032
2.41771
2.40237
2.41193
2.39988
2.39148
2.38918
2.39846
2.39528
2.39171
2.39323
2.38315
2.38924
2.37783
2.37654
2.37375
2.37737
2.3733
2.3779
2.37524
2.36872
2.37151
2.38248
2.38206
2.37863
2.37821
2.37566
2.37642
2.37281
2.37644
2.37915
2.49302
2.49935
2.50322
2.51735
2.52468
2.52868
2.50639
2.51765
2.49825
2.5162
2.52914
2.53663
2.50585
2.5098
2.52108
2.51521
2.53288
2.52946
2.53936
2.52464
2.42772
2.42927
2.42409
2.42432
2.43398
2.42957
2.42583
2.41941
2.42208
2.42915
2.42488
2.41519
2.41624
2.41913
2.422
2.5255
2.51653
2.52374
2.53564
2.51846
2.52156
2.50834
2.51435
2.50203
2.50635
2.52497
2.53745
2.52041
2.5394
2.52655
2.51724
2.50358
2.51972
2.359
2.36085
2.35739
2.3611
2.35936
2.36037
2.36166
2.35824
2.36166
2.3607
2.35602
2.3516
2.35372
2.35314
2.49832
2.50673
2.49923
2.48921
2.49635
2.48201
2.47918
2.50499
2.50541
2.4956
2.48259
2.4777
2.49597
2.49201
2.48798
2.48737
2.48452
2.4923
2.49516
2.49345
2.49039
2.48621
2.51399
2.50946
2.5086
2.5112
2.49825
2.50599
2.50662
2.51926
2.40148
2.39997
2.40195
2.39823
2.40056
2.40074
2.401
2.40134
2.40058
2.39646
2.39849
2.40341
2.39763
2.39917
2.39341
2.40199
2.54089
2.55698
2.55452
2.54866
2.55113
2.5484
2.53701
2.56436
2.56571
2.54763
2.56106
2.53446
2.54273
2.55353
2.54932
2.55853
2.55839
2.56968
2.39977
2.40078
2.40511
2.40563
2.41753
2.41072
2.40956
2.40278
2.41021
2.42426
2.40233
2.41585
2.41699
2.41378
2.37058
2.35137
2.35056
2.35569
2.34936
2.34798
2.36685
2.36471
2.37463
2.35953
2.37117
2.36525
2.34786
2.3477
2.36674
2.36994
2.35792
2.36117
2.43309
2.43588
2.43566
2.43129
2.4541
2.44474
2.44284
2.4475
2.43788
2.4404
2.4222
2.42326
2.4321
2.42832
2.44326
2.43122
2.42742
2.42913
2.44164
2.44875
2.40802
2.40409
2.40811
2.40901
2.40492
2.4048
2.40192
2.41232
2.40841
2.40235
2.4054
2.40804
2.40865
2.39951
2.47947
2.47861
2.48689
2.49322
2.46603
2.4594
2.49728
2.47075
2.48991
2.47599
2.47751
2.34836
2.35414
2.34787
2.35207
2.34402
2.33871
2.35525
2.35297
2.35484
2.34228
2.34562
2.34679
2.34445
2.34209
2.35544
2.34325
2.34753
2.35022
2.35443
2.35753
2.48194
2.48998
2.48987
2.50253
2.49517
2.48877
2.48179
2.47998
2.49349
2.50104
2.48771
2.50842
2.5104
2.4935
2.50276
2.49538
2.50471
2.50259
2.48771
2.49723
2.40952
2.41725
2.40861
2.41512
2.41456
2.43323
2.43274
2.42443
2.41115
2.42382
2.42618
2.42628
2.43383
2.42685
2.42905
2.42685
2.43025
2.43238
2.42748
2.43224
2.43764
2.43858
2.4996
2.50509
2.4877
2.49202
2.4935
2.50356
2.49564
2.48424
2.50856
2.51088
2.48877
2.49554
2.48116
2.51275
2.51542
2.49817
2.50421
2.48751
2.50458
2.49272
2.51943
2.52232
2.50281
2.51599
2.50808
2.51779
2.50541
2.51135
2.50118
2.51555
2.5085
2.49055
2.50041
2.50531
2.50346
2.52295
2.51799
2.48958
2.50101
2.51453
2.48972
2.48885
2.49432
2.48907
2.42262
2.43307
2.42976
2.43681
2.43731
2.43838
2.4175
2.41792
2.41908
2.42503
2.42039
2.4185
2.41617
2.43783
2.43026
2.43949
2.434
2.42839
2.4252
2.43221
2.4309
2.42366
2.43024
2.42371
2.42443
2.42266
2.42287
2.39153
2.38905
2.39382
2.40139
2.39374
2.38609
2.38612
2.39093
2.39754
2.39583
2.41291
2.41169
2.39031
2.38546
2.38433
2.37973
2.39754
2.38972
2.39326
2.38474
2.37406
2.36386
2.3699
2.37479
2.38249
2.36642
2.37551
2.36575
2.37573
2.39565
2.38993
2.38706
2.39447
2.37975
2.37321
2.37604
2.39142
2.40029
2.40266
2.40176
2.38414
2.38242
2.3925
2.36851
2.37027
2.37186
2.37038
2.3673
2.37841
2.37771
2.37532
2.37668
2.37479
2.37355
2.37316
2.37543
2.37751
2.37522
2.37467
2.3753
2.37388
2.37783
2.386
2.38037
2.38069
2.37507
2.37793
2.39952
2.40618
2.38162
2.40045
2.38791
2.39772
2.38577
2.39326
2.39309
2.42244
2.42525
2.39195
2.38541
2.42396
2.42825
2.41299
2.3905
2.3942
2.42173
2.40034
2.41101
2.39697
2.42696
2.42027
2.41672
2.40938
2.40538
2.40445
2.39934
2.39071
2.40291
2.40102
2.39778
2.38075
2.38826
2.39964
2.38721
2.40111
2.39592
2.3952
2.38138
2.37541
2.37463
2.38264
2.38626
2.38662
2.37759
2.37955
2.47788
2.48101
2.49446
2.4746
2.47023
2.49571
2.48454
2.49021
2.47895
2.41243
2.42328
2.41063
2.42403
2.41864
2.42543
2.42894
2.43543
2.41921
2.41158
2.41644
2.41931
2.40784
2.39309
2.39823
2.41007
2.36133
2.35699
2.35756
2.36029
2.35969
2.35698
2.35408
2.35859
2.35503
2.3591
2.36192
2.36608
2.36009
2.35762
2.36256
2.3641
2.36208
2.53621
2.52973
2.51757
2.51949
2.53397
2.54315
2.54762
2.53375
2.53539
2.50696
2.50736
2.52119
2.50838
2.52298
2.39422
2.38557
2.39507
2.3844
2.38027
2.39311
2.38444
2.39774
2.38303
2.39349
2.38905
2.39687
2.38602
2.39324
2.38793
2.38745
2.40356
2.40321
2.40992
2.40879
2.52769
2.53189
2.51317
2.50859
2.54092
2.52511
2.51842
2.52728
2.53571
2.54477
2.54081
2.53723
2.52043
2.53782
2.53597
2.39997
2.39455
2.39395
2.39641
2.39828
2.39526
2.39748
2.40067
2.39894
2.39492
2.39032
2.39083
2.39512
2.39109
2.39965
2.39994
2.39827
2.391
2.39424
2.3969
2.37904
2.37879
2.37489
2.37925
2.37705
2.3803
2.37607
2.37913
2.37351
2.37906
2.37914
2.37347
2.37132
2.37824
2.37822
2.37685
2.37354
2.3722
2.40453
2.40843
2.40833
2.39945
2.40543
2.41173
2.4012
2.39663
2.3913
2.39251
2.39127
2.3914
2.40544
2.40181
2.39791
2.39463
2.39226
2.39692
2.39321
2.39291
2.3951
2.4038
2.49893
2.51105
2.49665
2.49797
2.49494
2.50235
2.51609
2.49078
2.49817
2.4782
2.48497
2.49504
2.49048
2.48588
2.48433
2.47789
2.34997
2.34947
2.35195
2.35049
2.34919
2.34681
2.3532
2.35071
2.35761
2.3474
2.34719
2.34521
2.35726
2.3554
2.35174
2.34689
2.35359
2.35514
2.34966
2.34723
2.35122
2.35212
2.43215
2.43215
2.43444
2.43539
2.44184
2.44122
2.44518
2.42922
2.4327
2.45508
2.43714
2.45116
2.45178
2.45426
2.44712
2.45297
2.4012
2.40131
2.40275
2.39966
2.40896
2.40942
2.40124
2.39982
2.39858
2.40055
2.40538
2.41015
2.41203
2.40036
2.40755
2.40579
2.40929
2.45132
2.4578
2.44467
2.45004
2.44988
2.44391
2.43478
2.43727
2.45665
2.43001
2.43152
2.45429
2.44761
2.45074
2.45099
2.44484
2.4401
2.43144
2.43704
2.43938
2.45689
2.45623
2.47596
2.46694
2.48
2.48875
2.45742
2.45841
2.49857
2.48278
2.46618
2.49602
2.49083
2.47357
2.49827
2.49421
2.48429
2.53785
2.54155
2.54854
2.55653
2.5203
2.52045
2.54559
2.53637
2.54563
2.54868
2.52181
2.54871
2.5539
2.52155
2.52304
2.53572
2.53792
2.53587
2.38682
2.38779
2.38863
2.38944
2.39694
2.39425
2.40162
2.39237
2.41065
2.41101
2.41021
2.41817
2.39949
2.39911
2.40516
2.41387
2.40418
2.39504
2.41153
2.39929
2.40436
2.40792
2.51343
2.51075
2.50437
2.52379
2.52968
2.49312
2.5228
2.51286
2.52211
2.5296
2.49803
2.50498
2.50965
2.52209
2.51957
2.5367
2.54208
2.53608
2.53451
2.53482
2.53865
2.543
2.54684
2.54963
2.55333
2.54398
2.55237
2.54434
2.53226
2.43053
2.42726
2.4278
2.41861
2.42126
2.44417
2.4306
2.4192
2.41719
2.4179
2.43378
2.44008
2.42788
2.40712
2.40793
2.41987
2.41912
2.4231
2.41547
2.47485
2.47254
2.47874
2.48151
2.49014
2.49294
2.48467
2.49456
2.45319
2.44781
2.46472
2.3392
2.34253
2.33881
2.33755
2.46138
2.47028
2.46168
2.46715
2.54445
2.54136
2.53247
2.43126
2.34922
2.35483
2.35848
2.36459
2.56541
2.56293
2.55353
2.33421
2.33164
2.37634
2.37988
2.46887
2.46847
2.51205
2.51385
2.39542
2.391
2.39511
2.38905
2.38255
2.38569
2.51165
2.51937
2.51404
2.35215
2.35148
2.34956
2.39634
2.39483
2.38947
2.45581
2.45321
2.46039
2.46325
2.45753
2.40548
2.41999
2.41522
2.41549
2.40275
2.40018
2.39307
2.48544
2.48355
2.38253
2.38382
2.52227
2.5147
2.37052
2.37192
2.36785
2.36695
2.36885
2.36168
2.36053
2.36881
2.36015
2.36794
2.44408
2.43041
2.43019
2.45199
2.45484
2.40282
2.40225
2.44871
2.43197
2.43309
2.38941
2.38452
2.43224
2.43624
2.37146
2.37293
2.39265
2.38903
2.39471
2.38745
2.5563
2.55948
2.52974
2.52941
2.51419
2.51538
2.41859
2.40775
2.41607
2.33719
2.3392
2.33541
2.34054
2.38858
2.39446
2.38762
2.44551
2.4518
2.45349
2.37205
2.37188
2.34549
2.34564
2.33701
2.34429
2.34345
2.33512
2.33441
2.42391
2.4269
2.51233
2.4223
2.42128
2.41958
2.35913
2.35796
2.38078
2.37713
2.3789
2.54383
2.5507
2.42108
2.42153
2.40867
2.50365
2.52045
2.51985
2.53024
2.48554
2.49058
2.47609
2.47576
2.40407
2.39644
2.40987
2.41078
2.38724
2.38644
2.39087
2.4128
2.41391
2.40733
2.39386
2.4017
2.39164
2.39953
2.40328
2.36856
2.37986
2.38403
2.52039
2.52745
2.36103
2.35637
2.35561
2.48903
2.48784
2.4937
2.4348
2.42876
2.42786
2.44705
2.43688
2.43718
2.44818
2.32539
2.32977
2.32844
2.34363
2.34012
2.33212
2.33167
2.47793
2.48179
2.47378
2.47136
2.46203
2.46942
2.46134
2.45065
2.47318
2.46748
2.43489
2.44392
2.432
2.43706
2.42821
2.44806
2.4421
2.44384
2.42579
2.42702
2.4232
2.46607
2.45955
2.45019
2.43684
2.45031
2.4312
2.43306
2.42615
2.42448
2.40459
2.4019
2.40997
2.41638
2.42123
2.41578
2.40336
2.41861
2.42202
2.41281
2.40106
2.41401
2.41962
2.41855
2.40019
2.41758
2.42069
2.50598
2.50234
2.48367
2.50668
2.44607
2.43645
2.46087
2.46543
2.45284
2.51453
2.50843
2.50021
2.49913
2.4748
2.48663
2.47683
2.4939
2.48143
2.47392
2.47269
2.47783
2.47531
2.47463
2.45827
2.44321
2.45736
2.45376
2.35479
2.36094
2.35743
2.37756
2.37429
2.37387
2.37984
2.37089
2.36561
2.36855
2.37138
2.37121
2.37488
2.37049
2.36159
2.35844
2.36249
2.36155
2.36452
2.36291
2.36938
2.36644
2.3714
2.36281
2.36287
2.36664
2.37316
2.36017
2.35348
2.35833
2.35313
2.35487
2.35168
2.36068
2.53766
2.52685
2.52627
2.52053
2.53118
2.52337
2.52182
2.52503
2.51821
2.52099
2.52304
2.5119
2.51514
2.52756
2.51901
2.38714
2.38635
2.38597
2.38369
2.38169
2.3759
2.37039
2.35302
2.35415
2.36587
2.35943
2.35394
2.34509
2.42225
2.42878
2.42308
2.376
2.37864
2.36666
2.37951
2.37201
2.36678
2.38268
2.39063
2.39452
2.37613
2.38266
2.38773
2.38508
2.38923
2.38348
2.41845
2.42444
2.3791
2.38937
2.39753
2.39178
2.39418
2.40145
2.39631
2.39447
2.39197
2.39489
2.39781
2.39257
2.40676
2.4039
2.39527
2.37686
2.38821
2.38712
2.38675
2.38826
2.42459
2.41948
2.43149
2.42508
2.40915
2.41134
2.41484
2.40819
2.41889
2.41476
2.41171
2.4149
2.40237
2.41426
2.4072
2.41282
2.41192
2.40927
2.38463
2.38373
2.38508
2.38961
2.3918
2.39052
2.38776
2.39256
2.38811
2.37754
2.3803
2.38195
2.38082
2.38569
2.38598
2.39606
2.39242
2.39461
2.39245
2.39135
2.39058
2.38977
2.38887
2.39346
2.38963
2.3924
2.39109
2.38246
2.38542
2.38289
2.3876
2.38992
2.38993
2.38146
2.38234
2.38638
2.38516
2.38745
2.38318
2.40257
2.40856
2.40408
2.40204
2.40665
2.40871
2.40457
2.4067
2.41516
2.4154
2.41545
2.42192
2.41555
2.41564
2.43567
2.42625
2.41297
2.41923
2.42015
2.41117
2.40162
2.36443
2.37164
2.37635
2.37147
2.38901
2.37704
2.38699
2.39137
2.39331
2.38675
2.38843
2.38732
2.38473
2.37451
2.37334
2.38316
2.3776
2.40492
2.41342
2.41922
2.42013
2.41197
2.40883
2.32739
2.32675
2.50172
2.45411
2.46182
2.46752
2.46322
2.45099
2.50502
2.50303
2.50917
2.47923
2.48469
2.50524
2.50778
2.50611
2.49745
2.48733
2.47088
2.47611
2.4773
2.47031
2.48223
2.48025
2.4715
2.48562
2.46716
2.49136
2.48362
2.48382
2.47549
2.47004
2.47492
2.46963
2.52345
2.51714
2.52353
2.51206
2.53183
2.52239
2.41188
2.41989
2.42397
2.41279
2.41223
2.4199
2.42314
2.39665
2.39528
2.40262
2.40141
2.40486
2.40479
2.55098
2.55765
2.507
2.51155
2.51135
2.51928
2.54659
2.53908
2.53987
2.52851
2.54079
2.54108
2.56211
2.56109
2.5509
2.54746
2.37193
2.37615
2.36764
2.37283
2.37413
2.37584
2.372
2.37492
2.37345
2.3779
2.3773
2.37305
2.37489
2.38254
2.3865
2.38446
2.38558
2.39129
2.38444
2.38221
2.36473
2.37124
2.36684
2.35
2.35014
2.35202
2.35288
2.35706
2.36919
2.36839
2.36287
2.35893
2.36653
2.36603
2.3578
2.36036
2.36018
2.35931
2.35832
2.36776
2.36737
2.36426
2.41318
2.41313
2.42113
2.42098
2.4436
2.43982
2.43421
2.43388
2.41754
2.42695
2.43059
2.41967
2.42032
2.42469
2.42293
2.42443
2.42382
2.42582
2.43213
2.42868
2.40924
2.41947
2.41724
2.40901
2.41585
2.41402
2.41515
2.41454
2.41024
2.41547
2.4167
2.52259
2.52732
2.52187
2.52281
2.50878
2.49
2.47163
2.49348
2.40234
2.40599
2.41011
2.40563
2.41333
2.47183
2.47048
2.4142
2.40658
2.41216
2.41704
2.41675
2.42295
2.41495
2.41229
2.40607
2.40971
2.43513
2.42223
2.43212
2.43318
2.41722
2.42825
2.41998
2.42786
2.41741
2.33743
2.33814
2.33388
2.33309
2.33658
2.33597
2.3393
2.337
2.33888
2.33731
2.34066
2.34217
2.33902
2.3347
2.33218
2.33236
2.33015
2.33063
2.33524
2.33251
2.33364
2.34405
2.34925
2.34397
2.34326
2.34727
2.34639
2.34505
2.34356
2.34258
2.34838
2.34108
2.33358
2.33659
2.33315
2.33723
2.34619
2.35912
2.36203
2.36
2.34767
2.34647
2.35785
2.3416
2.35413
2.35024
2.34493
2.35114
2.3481
2.34685
2.34504
2.34196
2.33613
2.33907
2.34026
2.33065
2.33706
2.33799
2.33304
2.3448
2.34522
2.37473
2.3797
2.3761
2.36991
2.37363
2.37318
2.37208
2.37188
2.36598
2.36397
2.36406
2.3702
2.3676
2.36965
2.46495
2.45852
2.4628
2.43966
2.42722
2.43911
2.44533
2.44389
2.44202
2.44198
2.44598
2.42668
2.45859
2.46369
2.44827
2.4431
2.45612
2.45357
2.43522
2.4457
2.43932
2.43288
2.4447
2.34675
2.35197
2.35134
2.35645
2.3886
2.42524
2.41964
2.42265
2.37931
2.36789
2.36127
2.35844
2.33193
2.33044
2.33117
2.3332
2.32698
2.33492
2.35564
2.34873
2.35102
2.34002
2.343
2.34001
2.33986
2.34328
2.33221
2.33226
2.33224
2.33066
2.41808
2.42654
2.42463
2.41866
2.42558
2.41657
2.42721
2.42007
2.40413
2.40573
2.41703
2.41303
2.41709
2.41201
2.42238
2.47071
2.48398
2.47014
2.46685
2.48872
2.49348
2.53683
2.54097
2.52533
2.54148
2.50127
2.501
2.49895
2.49177
2.50783
2.5156
2.50487
2.51866
2.51985
2.52175
2.51836
2.52772
2.54442
2.54266
2.54592
2.54428
2.54222
2.56881
2.55064
2.55958
2.55506
2.55009
2.55808
2.54448
2.55545
2.56
2.38572
2.38788
2.39024
2.38534
2.38093
2.3863
2.39102
2.39019
2.39843
2.40024
2.39286
2.39391
2.40098
2.40695
2.39777
2.39954
2.39685
2.39476
2.40016
2.40543
2.40115
2.40443
2.4019
2.40112
2.40207
2.39711
2.39194
2.39522
2.3924
2.38777
2.38549
2.38374
2.3895
2.38698
2.39137
2.39031
2.38418
2.38622
2.3853
2.37713
2.37958
2.36439
2.37577
2.36971
2.37737
2.38156
2.38064
2.37075
2.37265
2.36985
2.36829
2.37144
2.36969
2.37198
2.4414
2.43753
2.48113
2.47668
2.41282
2.40773
2.41317
2.41414
2.4548
2.45312
2.44396
2.43948
2.41559
2.42066
2.4124
2.41819
2.40625
2.40407
2.4235
2.42824
2.40988
2.39897
2.44674
2.44471
2.45445
2.44976
2.45552
2.45189
2.45277
2.41847
2.42093
2.41585
2.40628
2.40152
2.41707
2.40484
2.40808
2.40131
2.40522
2.40881
2.40345
2.40999
2.39338
2.39815
2.39659
2.39518
2.39208
2.39155
2.40805
2.40802
2.40473
2.40789
2.40758
2.40649
2.40362
2.40593
2.40508
2.39793
2.40461
2.40352
2.39639
2.39712
2.39805
2.40172
2.4004
2.39871
2.39965
2.40102
2.43007
2.44003
2.56948
2.55382
2.57771
2.57717
2.57252
2.57267
2.57265
2.39269
2.39434
2.39679
2.41053
2.40145
2.39884
2.39592
2.37867
2.38254
2.37575
2.36465
2.35933
2.36296
2.36132
2.35516
2.35752
2.35719
2.35833
2.36583
2.36799
2.3704
2.37098
2.36143
2.36437
2.36326
2.36521
2.36497
2.36159
2.36315
2.35957
2.36036
2.36211
2.35792
2.35826
2.35918
2.35757
2.35861
2.36077
2.37487
2.37829
2.37372
2.3717
2.37671
2.37662
2.37508
2.48353
2.47236
2.48442
2.54059
2.53589
2.53847
2.52463
2.52467
2.51121
2.51236
2.51178
2.52527
2.5143
2.52655
2.52233
2.537
2.51507
2.53432
2.52503
2.52721
2.52155
2.5101
2.51626
2.3911
2.39447
2.38566
2.38749
2.38024
2.37858
2.3792
2.3902
2.39012
2.38975
2.47224
2.48189
2.48094
2.48527
2.4858
2.46243
2.46825
2.47892
2.47059
2.48521
2.47844
2.47746
2.47868
2.39878
2.40563
2.40389
2.4044
2.4018
2.40127
2.40136
2.40282
2.40281
2.4148
2.40547
2.4147
2.42051
2.42934
2.43744
2.42723
2.41275
2.43588
2.4336
2.39612
2.39313
2.39943
2.40232
2.45965
2.45987
2.45952
2.47696
2.45683
2.46533
2.47283
2.4624
2.40542
2.40851
2.40642
2.41109
2.41093
2.46696
2.45769
2.45337
2.4661
2.4711
2.46135
2.45712
2.45224
2.4499
2.45203
2.45142
2.45673
2.45937
2.44742
2.43994
2.43427
2.44817
2.44009
2.4435
2.44857
2.44545
2.40162
2.40673
2.39827
2.38631
2.39576
2.3934
2.39193
2.38939
2.38927
2.3862
2.38682
2.38559
2.34484
2.34218
2.34634
2.34689
2.34504
2.35636
2.35248
2.35326
2.35632
2.35964
2.52202
2.52965
2.53598
2.51362
2.51844
2.52161
2.52442
2.48941
2.49742
2.50756
2.50788
2.50286
2.5016
2.41719
2.41886
2.41559
2.38293
2.37172
2.3791
2.37678
2.38135
2.37931
2.39122
2.40125
2.39263
2.38902
2.38966
2.38749
2.39729
2.40082
2.4256
2.50373
2.49961
2.49773
2.50905
2.51597
2.51006
2.51149
2.51297
2.50693
2.50776
2.49133
2.50144
2.5068
2.50387
2.45875
2.46767
2.4668
2.49145
2.48274
2.4832
2.47873
2.36607
2.35369
2.36635
2.37206
2.36922
2.36522
2.36112
2.35476
2.36248
2.33263
2.32375
2.33506
2.33457
2.33019
2.33261
2.32991
2.32697
2.56679
2.55473
2.56879
2.57311
2.57389
2.55734
2.36172
2.36389
2.36424
2.35794
2.35904
2.36019
2.42653
2.4158
2.42462
2.42353
2.41547
2.42696
2.43285
2.43405
2.44035
2.43818
2.42916
2.42939
2.42336
2.51029
2.51867
2.52346
2.51712
2.5312
2.52106
2.52031
2.53132
2.53961
2.51686
2.52031
2.52694
2.51864
2.53962
2.52935
2.46172
2.45802
2.4625
2.45153
2.46186
2.45602
2.45802
2.47203
2.46899
2.47051
2.47261
2.45543
2.45092
2.46591
2.46385
2.33306
2.33624
2.33885
2.33157
2.33449
2.33757
2.33573
2.33485
2.33673
2.34865
2.34442
2.34546
2.34251
2.34393
2.33881
2.34369
2.34646
2.34548
2.33953
2.34613
2.3414
2.34592
2.3425
2.33935
2.34156
2.3355
2.34591
2.34213
2.33759
2.33496
2.34059
2.34328
2.33826
2.33944
2.33583
2.33569
2.42833
2.42978
2.42553
2.42149
2.42043
2.41861
2.47082
2.45653
2.44856
2.46585
2.47479
2.46898
2.45926
2.44973
2.33028
2.32562
2.32476
2.32757
2.32789
2.34916
2.3551
2.35451
2.3573
2.34747
2.34749
2.34055
2.35194
2.35222
2.35626
2.35547
2.35138
2.35454
2.34801
2.34546
2.33409
2.33692
2.34136
2.33716
2.33286
2.34321
2.34226
2.34237
2.33738
2.33167
2.33707
2.3404
2.34131
2.34078
2.34418
2.36006
2.3581
2.35601
2.35239
2.35631
2.34663
2.35039
2.34589
2.35178
2.35664
2.45903
2.46948
2.45858
2.4671
2.4558
2.45834
2.46694
2.47474
2.47322
2.47286
2.48394
2.47829
2.48147
2.48119
2.47231
2.46825
2.45744
2.47118
2.45462
2.47642
2.46848
2.46413
2.46846
2.46573
2.46823
2.45913
2.46152
2.45005
2.45011
2.435
2.44646
2.41693
2.44575
2.43544
2.42393
2.53972
2.536
2.42397
2.42278
2.42453
2.41347
2.43027
2.42823
2.42051
2.42316
2.41801
2.41129
2.41217
2.41399
2.36793
2.37644
2.37667
2.36606
2.36679
2.35337
2.36612
2.365
2.35331
2.35097
2.35658
2.49739
2.47539
2.47803
2.48967
2.47831
2.49166
2.42123
2.42104
2.44303
2.44166
2.45043
2.45344
2.38964
2.40119
2.40866
2.39903
2.4116
2.40976
2.43603
2.40983
2.41758
2.40664
2.42484
2.42364
2.42113
2.43786
2.43748
2.44146
2.43194
2.42464
2.43841
2.44621
2.43755
2.4162
2.45372
2.4504
2.4425
2.43917
2.54595
2.53428
2.52979
2.54581
2.54972
2.53713
2.54911
2.52009
2.52559
2.51691
2.52768
2.52394
2.34261
2.34416
2.34482
2.34543
2.40239
2.40107
2.39959
2.4085
2.40992
2.39384
2.40386
2.39373
2.39136
2.38471
2.39774
2.3979
2.41805
2.3994
2.40627
2.40824
2.41455
2.41795
2.41924
2.40896
2.39939
2.3961
2.39633
2.42841
2.41303
2.42878
2.41979
2.4332
2.4271
2.48947
2.48985
2.47799
2.48602
2.4767
2.4631
2.48034
2.46419
2.46537
2.46297
2.47363
2.47072
2.47873
2.46967
2.47923
2.47234
2.47108
2.47179
2.55407
2.55057
2.54654
2.51519
2.53048
2.52718
2.51591
2.5292
2.52146
2.52
2.51198
2.53221
2.51887
2.52217
2.50972
2.52167
2.51331
2.54678
2.53889
2.53637
2.51337
2.53958
2.52167
2.5517
2.55152
2.50094
2.50179
2.50277
2.51133
2.50919
2.5008
2.45916
2.48236
2.4775
2.48108
2.47114
2.45872
2.48366
2.47654
2.40104
2.38594
2.39448
2.3838
2.37628
2.39607
2.38327
2.37377
2.38937
2.39392
2.38557
2.39392
2.38424
2.38404
2.37903
2.5678
2.57174
2.56169
2.56573
2.57313
2.57022
2.56779
2.57516
2.574
2.56194
2.47985
2.47715
2.472
2.47424
2.47064
2.4727
2.47934
2.46679
2.46915
2.45735
2.46316
2.46658
2.45784
2.47959
2.45859
2.47294
2.47061
2.48016
2.47529
2.45735
2.50009
2.49154
2.48002
2.49748
2.50386
2.37816
2.38066
2.37882
2.38349
2.3825
2.38431
2.37753
2.38275
2.38403
2.38003
2.55871
2.5507
2.54386
2.54651
2.54687
2.54615
2.54192
2.55058
2.54212
2.55756
2.55209
2.45666
2.46019
2.46808
2.48167
2.46301
2.45699
2.47444
2.48134
2.48915
2.52532
2.53258
2.53462
2.54881
2.53988
2.5454
2.55109
2.53937
2.56534
2.56544
2.32507
2.32418
2.41184
2.40158
2.41105
2.39431
2.41048
2.40907
2.39523
2.45162
2.46013
2.4584
2.46447
2.45804
2.45497
2.4551
2.44778
2.44108
2.45123
2.4475
2.43874
2.43739
2.42281
2.43476
2.42034
2.42528
2.43402
2.43231
2.41836
2.41752
2.44338
2.43473
2.43759
2.4534
2.44132
2.43333
2.44018
2.44654
2.44281
2.44406
2.43562
2.36138
2.35315
2.36658
2.36366
2.345
2.34954
2.34828
2.34064
2.3423
2.34034
2.34003
2.34948
2.35041
2.33866
2.34221
2.33276
2.33352
2.33044
2.34927
2.3497
2.34803
2.35429
2.35039
2.3517
2.35375
2.35031
2.34972
2.34848
2.35153
2.34988
2.35407
2.35377
2.35593
2.35453
2.32452
2.3308
2.32307
2.32513
2.32589
2.32527
2.32859
2.33138
2.32497
2.3273
2.49811
2.50076
2.48833
2.49209
2.481
2.48279
2.41167
2.4078
2.41767
2.40958
2.40639
2.40463
2.40756
2.40608
2.41884
2.41433
2.4149
2.40919
2.40371
2.42238
2.42711
2.41865
2.42099
2.43612
2.42637
2.41976
2.416
2.43332
2.42817
2.42944
2.42576
2.42285
2.42235
2.35319
2.36133
2.35853
2.35252
2.35106
2.34945
2.35396
2.36133
2.35163
2.54224
2.55281
2.53925
2.55926
2.55165
2.54575
2.55231
2.54988
2.5201
2.52419
2.5112
2.51172
2.51714
2.52229
2.52549
2.5157
2.34672
2.35437
2.34508
2.35678
2.34673
2.34951
2.337
2.34094
2.34024
2.33774
2.38024
2.37924
2.38329
2.38114
2.37855
2.49218
2.5085
2.50119
2.49911
2.50448
2.50019
2.4995
2.51611
2.50512
2.50462
2.47698
2.48123
2.49687
2.49945
2.50324
2.49192
2.48581
2.47456
2.479
2.49552
2.46972
2.48625
2.48378
2.48423
2.48216
2.49039
2.48451
2.48062
2.47557
2.41621
2.41098
2.40751
2.40976
2.41051
2.40254
2.38575
2.39331
2.38691
2.39518
2.39545
2.38667
2.40168
2.40804
2.40193
2.40562
2.39903
2.38676
2.38282
2.44172
2.45833
2.45572
2.45069
2.44805
2.44294
2.43571
2.44681
2.44853
2.43978
2.44116
2.39427
2.39517
2.39877
2.39183
2.39039
2.39655
2.39832
2.38173
2.37944
2.37943
2.38026
2.383
2.38036
2.38434
2.38694
2.38607
2.38591
2.38601
2.43483
2.43525
2.43334
2.42866
2.42307
2.40993
2.41236
2.41391
2.41112
2.41307
2.41224
2.41771
2.42453
2.45049
2.45955
2.4638
2.45803
2.45306
2.46246
2.46757
2.46906
2.44991
2.44148
2.45549
2.45326
2.46234
2.47053
2.42254
2.42634
2.43556
2.41553
2.43864
2.4353
2.43626
2.42426
2.44594
2.42253
2.41601
2.44632
2.44599
2.32493
2.33641
2.33216
2.33351
2.33044
2.33596
2.3347
2.33159
2.33184
2.41719
2.40484
2.4264
2.41837
2.42679
2.41952
2.42576
2.40502
2.40322
2.4078
2.42508
2.41959
2.49394
2.49213
2.49627
2.4928
2.50757
2.49913
2.48256
2.49598
2.48978
2.48628
2.48509
2.48383
2.36052
2.37051
2.3689
2.37516
2.36961
2.36128
2.36881
2.35318
2.34919
2.35637
2.37244
2.37311
2.35876
2.35409
2.50104
2.50897
2.51488
2.49934
2.50596
2.49595
2.50494
2.3747
2.37272
2.37247
2.37574
2.37999
2.38291
2.37931
2.36896
2.36744
2.37545
2.37306
2.53185
2.54724
2.53532
2.5487
2.53781
2.4803
2.47663
2.4712
2.47859
2.48482
2.48951
2.55041
2.54607
2.55784
2.55229
2.56668
2.56782
2.56548
2.55606
2.46387
2.46189
2.4649
2.46259
2.45951
2.45267
2.44458
2.39722
2.38745
2.40465
2.40153
2.40159
2.40914
2.39941
2.39325
2.39927
2.40172
2.39467
2.39736
2.3936
2.3887
2.40477
2.40549
2.44427
2.45385
2.46134
2.46368
2.46629
2.45746
2.44746
2.4549
2.44109
2.43895
2.4604
2.46058
2.45113
2.46578
2.46367
2.44983
2.44686
2.44941
2.44441
2.43737
2.43981
2.43031
2.44669
2.42866
2.43718
2.44241
2.44696
2.42307
2.43788
2.44024
2.42324
2.42341
2.44506
2.44939
2.4369
2.4269
2.43741
2.44737
2.47412
2.46817
2.4628
2.46375
2.46986
2.46564
2.47207
2.45575
2.36251
2.36928
2.36098
2.35985
2.36592
2.37108
2.35696
2.3663
2.36567
2.36182
2.35854
2.36117
2.36434
2.51212
2.5029
2.51464
2.52126
2.51988
2.51094
2.51364
2.52632
2.51713
2.52681
2.52125
2.37502
2.36699
2.35984
2.35855
2.35518
2.37339
2.36537
2.37182
2.36549
2.35885
2.35681
2.35862
2.35032
2.38778
2.38198
2.38106
2.39102
2.38713
2.3753
2.3754
2.37889
2.3871
2.38897
2.38788
2.38192
2.37959
2.3786
2.37696
2.3744
2.37654
2.42837
2.42846
2.43284
2.42721
2.42803
2.43078
2.42659
2.42192
2.42847
2.41342
2.40893
2.40203
2.40866
2.4024
2.40885
2.40934
2.4089
2.39844
2.39936
2.39619
2.39477
2.39285
2.39812
2.39857
2.39985
2.39464
2.39362
2.3946
2.39664
2.416
2.41859
2.41533
2.38135
2.37456
2.42653
2.42736
2.42572
2.432
2.43429
2.42459
2.43406
2.43853
2.43089
2.43253
2.44419
2.41653
2.42629
2.44345
2.44155
2.33145
2.33215
2.33229
2.32918
2.32877
2.33047
2.33254
2.33349
2.32272
2.32412
2.32536
2.50318
2.49978
2.50228
2.49405
2.48736
2.48378
2.49144
2.49125
2.489
2.48022
2.48297
2.47881
2.48297
2.49943
2.50805
2.50776
2.50723
2.50743
2.49805
2.51215
2.50299
2.47878
2.48876
2.48441
2.48508
2.49467
2.49469
2.47283
2.47686
2.47348
2.43831
2.45975
2.44576
2.44326
2.44057
2.45995
2.44725
2.45971
2.45642
2.46578
2.46653
2.4688
2.45039
2.44707
2.46297
2.4594
2.51466
2.50109
2.50605
2.5021
2.51579
2.50335
2.51554
2.50936
2.42283
2.49991
2.46227
2.47297
2.49189
2.48194
2.47156
2.48452
2.483
2.47821
2.38727
2.38481
2.38431
2.37223
2.37816
2.37556
2.38743
2.38029
2.37394
2.38119
2.37136
2.36859
2.38086
2.38782
2.42085
2.42158
2.42587
2.43166
2.42998
2.43312
2.41582
2.427
2.42636
2.41638
2.42898
2.40887
2.41382
2.41921
2.42091
2.34379
2.34624
2.35566
2.34467
2.3406
2.35602
2.35582
2.33529
2.33894
2.36281
2.36568
2.3611
2.36102
2.37007
2.36785
2.37223
2.37606
2.37195
2.36045
2.35909
2.35397
2.35845
2.36556
2.3711
2.352
2.35093
2.35942
2.35402
2.34661
2.35414
2.35665
2.35333
2.3593
2.32972
2.33073
2.33175
2.3312
2.33465
2.33389
2.33404
2.32966
2.32792
2.43663
2.43976
2.45031
2.44545
2.44366
2.45084
2.44587
2.40141
2.39169
2.40397
2.3942
2.40634
2.40811
2.3828
2.37725
2.40882
2.4045
2.51021
2.52365
2.50979
2.48405
2.48608
2.47737
2.4964
2.5027
2.50679
2.50214
2.50402
2.5323
2.53467
2.53108
2.54089
2.5417
2.5262
2.54326
2.54071
2.54784
2.54029
2.38907
2.39328
2.35893
2.37475
2.37288
2.36904
2.36722
2.36915
2.41847
2.41462
2.41047
2.40443
2.40333
2.40367
2.42545
2.42557
2.41779
2.42267
2.4225
2.42306
2.4252
2.39161
2.39065
2.39335
2.38259
2.37748
2.38392
2.39831
2.40516
2.38087
2.37305
2.37009
2.37662
2.37576
2.40307
2.41554
2.4298
2.4235
2.44194
2.42561
2.43714
2.44615
2.4435
2.42974
2.42189
2.44113
2.44446
2.41081
2.40653
2.41175
2.41412
2.4091
2.40776
2.41058
2.41104
2.4132
2.40568
2.40041
2.40394
2.40693
2.40671
2.40516
2.40507
2.56034
2.56379
2.56095
2.57829
2.56622
2.58055
2.56543
2.56894
2.37639
2.36932
2.37073
2.36509
2.37573
2.37429
2.36728
2.37014
2.37423
2.37829
2.36757
2.36544
2.36936
2.36422
2.3659
2.36937
2.35874
2.35997
2.35854
2.35844
2.35597
2.35502
2.35178
2.35538
2.35722
2.35438
2.3609
2.36098
2.35833
2.35533
2.35501
2.35428
2.35666
2.36188
2.36105
2.35694
2.35795
2.36334
2.36194
2.36187
2.43976
2.44623
2.44767
2.43223
2.44201
2.44694
2.44505
2.43815
2.4481
2.43619
2.4324
2.4357
2.4034
2.40869
2.40297
2.40275
2.40621
2.40376
2.40119
2.40534
2.40669
2.40318
2.40245
2.40071
2.40661
2.4072
2.40756
2.41249
2.40767
2.40992
2.41082
2.40951
2.40969
2.41283
2.45793
2.44947
2.44465
2.46107
2.45996
2.46493
2.46539
2.45565
2.45211
2.43878
2.43936
2.44348
2.43429
2.42963
2.43537
2.44284
2.43356
2.44357
2.44294
2.43899
2.441
2.42352
2.42924
2.43987
2.44561
2.34843
2.34789
2.35366
2.34709
2.34834
2.35393
2.34853
2.35411
2.354
2.35064
2.3529
2.35317
2.35194
2.38656
2.3861
2.38867
2.39235
2.40045
2.39849
2.39808
2.40559
2.40942
2.4019
2.40655
2.39395
2.49414
2.49219
2.49903
2.49486
2.4972
2.49149
2.48694
2.49674
2.49184
2.49942
2.47983
2.48965
2.49464
2.49979
2.49952
2.499
2.4795
2.50364
2.48892
2.5093
2.50694
2.49036
2.48293
2.47107
2.47818
2.33181
2.3309
2.33231
2.41608
2.428
2.41936
2.41841
2.41934
2.42647
2.42951
2.43151
2.43135
2.43981
2.43184
2.39156
2.39277
2.40346
2.40357
2.43395
2.4257
2.42798
2.42847
2.42152
2.42244
2.51052
2.50354
2.51353
2.49527
2.50812
2.50115