/*--------------------------------*- C++ -*----------------------------------*\
| =========                 |                                                 |
| \\      /  F ield         | OpenFOAM: The Open Source CFD Toolbox           |
|  \\    /   O peration     | Version:  v1612+                                |
|   \\  /    A nd           | Web:      www.OpenFOAM.com                      |
|    \\/     M anipulation  |                                                 |
\*---------------------------------------------------------------------------*/
FoamFile
{
    version     2.0;
    format      ascii;
    class       volVectorField;
    location    "166";
    object      wallShearStress;
}
// * * * * * * * * * * * * * * * * * * * * * * * * * * * * * * * * * * * * * //

dimensions      [0 2 -2 0 0 0 0];

internalField   uniform (0 0 0);

boundaryField
{
    WALL
    {
        type            calculated;
        value           nonuniform List<vector> 
1515
(
(0.00293283 -0.010282 0.00767076)
(0.00150963 -0.0114532 0.008649)
(0.00328625 -0.0089403 0.00740419)
(0.00269314 -0.010355 0.00823312)
(0.0141692 -0.0225028 0.00118719)
(0.0132006 -0.0239987 0.000219096)
(0.00965985 -0.0254913 0.0149162)
(0.0145568 -0.02153 0.0114452)
(0.0137704 -0.0217607 0.0124133)
(0.00285666 -0.00982452 0.00762274)
(0.0013393 -0.02309 0.0137306)
(0.00173651 -0.0102734 0.00771493)
(0.000891366 -0.0118106 0.00915964)
(0.0121776 -0.0234087 0.0142378)
(0.0126295 -0.0235527 0.0151362)
(0.015486 -0.0197041 0.0113866)
(0.0132302 -0.0206903 0.0133262)
(0.0110218 -0.0233409 0.0146429)
(0.0121184 -0.0231165 0.0139177)
(0.005241 -0.0250409 0.00824653)
(0.00584614 -0.0252448 0.00942202)
(0.0130552 -0.0229374 0.00849849)
(0.0128419 -0.0208554 0.00848544)
(0.0125471 -0.0221268 0.0133735)
(0.00387111 -0.0114163 0.00311391)
(0.0044405 -0.0105531 0.00274681)
(0.00206422 -0.023985 0.0132676)
(0.00122053 -0.0236521 0.0119113)
(0.0112299 -0.0217616 0.00905447)
(0.0124796 -0.0228979 0.0103293)
(0.00458459 -0.00814499 0.00643811)
(0.00495968 -0.00760676 0.00625054)
(0.00121836 -0.0121326 0.00879942)
(0.00137293 -0.0127769 0.00921734)
(0.00201351 -0.012169 0.00852873)
(0.00257871 -0.010549 0.00820497)
(0.000749076 -0.0116766 0.00858952)
(0.00142152 -0.00971971 0.00711292)
(0.0104155 -0.023504 0.00122432)
(0.0111755 -0.0218986 0.000644949)
(0.00187008 -0.0253369 0.00272711)
(0.00199475 -0.0249975 0.00223228)
(0.001128 -0.0245895 0.00308522)
(0.000122679 -0.0235435 0.00281106)
(0.0020419 -0.023986 0.00255927)
(0.000499409 -0.0245862 0.0029156)
(0.00241138 -0.0101622 0.00750536)
(0.00252007 -0.00992654 0.00754207)
(0.00253369 -0.00920273 0.00712157)
(0.00172487 -0.0107859 0.00843587)
(0.00126356 -0.0107449 0.00853963)
(0.00227587 -0.00984223 0.00790865)
(0.00162682 -0.0113124 0.00831166)
(0.00222792 -0.0107111 0.00803046)
(0.015047 -0.0213307 0.012921)
(0.0164454 -0.0214586 0.0107153)
(0.0177059 -0.0212087 0.0101652)
(0.01785 -0.0208083 0.0093084)
(0.0156935 -0.022009 0.0133073)
(0.00660158 -0.0113728 0.00271383)
(0.00697928 -0.0100361 0.00306588)
(0.0067576 -0.0119617 0.0027409)
(0.00643987 -0.00973209 0.00271679)
(0.00668277 -0.0110532 0.00265342)
(0.00689474 -0.0111539 0.00286225)
(0.0154536 -0.0207467 0.00347989)
(0.0165854 -0.0211035 0.00452085)
(0.0153487 -0.0213143 0.00384752)
(0.0159027 -0.0201953 0.00480081)
(0.014578 -0.0205198 0.00270833)
(0.0144554 -0.0192509 0.00411162)
(0.00712385 -0.0233399 0.013811)
(0.00637651 -0.0231286 0.0138526)
(0.00595741 -0.024857 0.0144523)
(0.00559898 -0.0250099 0.0144828)
(0.00653505 -0.0246728 0.0144625)
(0.0075236 -0.0233348 0.0139521)
(0.00097451 -0.0242223 0.00970044)
(0.000225737 -0.0228672 0.00929166)
(0.000444509 -0.0237016 0.0106684)
(-1.83937e-05 -0.0214277 0.00831093)
(-0.000190206 -0.0248041 0.0109866)
(-0.000432919 -0.0239948 0.0112214)
(0.00600013 -0.0248897 0.00214053)
(0.0066583 -0.0255323 0.00266963)
(0.00735746 -0.0234142 0.0021286)
(0.00664866 -0.0246473 0.00224783)
(0.00852644 -0.0243317 0.00343002)
(0.00791607 -0.0255535 0.00302347)
(0.00646225 -0.0251676 0.00120286)
(0.00600186 -0.0254597 0.00129754)
(0.00363603 -0.0248602 0.0006654)
(0.00389095 -0.0233492 0.00156601)
(0.00489101 -0.0257439 0.00174616)
(0.00461406 -0.0243857 0.00063315)
(-0.000505028 -0.02563 0.00523647)
(-0.000237668 -0.0240655 0.00380604)
(9.92305e-05 -0.0256782 0.00358792)
(0.00138469 -0.0253055 0.0041218)
(-0.000625508 -0.0240643 0.00479913)
(-0.00121298 -0.0255893 0.00407079)
(0.00484783 -0.00818995 0.00487166)
(0.00404792 -0.00794517 0.00531255)
(0.00421245 -0.00822943 0.00549239)
(0.00428965 -0.00737132 0.00501345)
(0.00459723 -0.00812304 0.00527498)
(0.00444739 -0.00830332 0.0049553)
(-0.000798583 -0.0161363 0.00964485)
(-0.00212527 -0.0177999 0.00922854)
(-0.00265379 -0.018985 0.009107)
(-0.00149301 -0.0166048 0.00954331)
(-0.00146799 -0.0167659 0.00972804)
(-0.00175616 -0.0200516 0.0101301)
(0.00305058 -0.0242762 0.00306357)
(0.00347421 -0.0240158 0.00273806)
(0.00422077 -0.0243318 0.00343886)
(0.00234581 -0.0245586 0.00258105)
(0.0024063 -0.0238483 0.00288621)
(0.00425273 -0.0248913 0.00327118)
(-0.0033217 -0.0195244 0.00927905)
(-0.00322302 -0.0186323 0.00944046)
(-0.0030654 -0.0177768 0.0101305)
(-0.00341466 -0.0191546 0.00955768)
(-0.0034627 -0.0186372 0.0104627)
(-0.00266478 -0.0170599 0.010079)
(0.00414234 -0.0242137 0.0123263)
(0.00651897 -0.0265261 0.0146932)
(0.00474269 -0.0244667 0.0128221)
(0.00629647 -0.0255723 0.0132497)
(0.0056406 -0.0240202 0.0135793)
(-0.00363105 -0.0202467 0.00772354)
(-0.00365853 -0.0211298 0.00684381)
(0.00289644 -0.00905021 0.00561591)
(0.00237381 -0.009247 0.00619856)
(0.00284192 -0.00921954 0.00582145)
(0.0026875 -0.00956674 0.0060108)
(0.00216824 -0.00940054 0.00642893)
(0.00209157 -0.00968607 0.00668765)
(0.00338136 -0.00858486 0.00502048)
(0.0032998 -0.00906342 0.00555646)
(0.00326623 -0.00901357 0.00448449)
(0.0035276 -0.00876594 0.0047448)
(0.00329205 -0.00811837 0.00487182)
(0.00299833 -0.00873337 0.00537137)
(0.000341784 -0.0128287 0.00928778)
(0.000410144 -0.0121201 0.00894955)
(0.00117021 -0.0108329 0.00819327)
(0.00245629 -0.0250678 0.00349856)
(0.00148126 -0.0250785 0.00297415)
(0.00245114 -0.0244884 0.00268398)
(0.00316402 -0.0243865 0.0027867)
(0.00150311 -0.0241628 0.00321966)
(0.00371795 -0.024941 0.00334392)
(-0.000557151 -0.024682 0.0034812)
(-0.00166707 -0.0249348 0.00383956)
(0.000250102 -0.0247744 0.00402752)
(-0.00176054 -0.0251667 0.00467756)
(-0.000643202 -0.0235355 0.00381683)
(-0.00145407 -0.0255258 0.00527816)
(-0.00106421 -0.0244338 0.00358118)
(0.00100332 -0.0243169 0.00299028)
(0.00038666 -0.0232994 0.00272069)
(-0.000265052 -0.0246493 0.00411256)
(0.000934075 -0.0249493 0.00374923)
(-0.000126109 -0.0248849 0.00359296)
(-0.00112598 -0.0172708 0.00467022)
(-0.00132911 -0.0196543 0.00589939)
(-0.00168249 -0.020789 0.0068859)
(-0.00229554 -0.0198351 0.00664123)
(-0.0015588 -0.0201895 0.00605792)
(-0.000450584 -0.0180568 0.00508899)
(0.00101098 -0.017243 0.00416537)
(-0.000213976 -0.0201179 0.00556556)
(-0.000592897 -0.0191433 0.00528152)
(0.000142001 -0.0176855 0.00448584)
(0.000667268 -0.0162404 0.00394961)
(-0.000128215 -0.018424 0.00468296)
(0.00703971 -0.022256 0.0103911)
(0.00748413 -0.0238122 0.0105738)
(0.00782969 -0.0244386 0.00952895)
(0.00802769 -0.0240614 0.00930782)
(0.00808946 -0.0249202 0.00967847)
(0.00835119 -0.0253227 0.00884882)
(-0.00240688 -0.023493 0.0105414)
(-0.002797 -0.0210996 0.00860226)
(-0.00267324 -0.0218402 0.0090326)
(-0.00277877 -0.022439 0.00987931)
(-0.00267855 -0.0229273 0.0109481)
(0.00734727 -0.0239286 0.00448185)
(0.00694678 -0.0237019 0.00437855)
(0.00797345 -0.0233741 0.00597)
(0.00802266 -0.0232861 0.00549504)
(0.00719634 -0.024634 0.00509201)
(0.00749638 -0.0230647 0.00584094)
(0.00882138 -0.0233498 0.00699844)
(0.00939363 -0.0232224 0.00686437)
(0.00885431 -0.02217 0.0070564)
(0.0085755 -0.0229591 0.0055522)
(0.00891569 -0.0231196 0.00572092)
(0.00470417 -0.025213 0.00333016)
(0.00653228 -0.0244834 0.0042066)
(0.00439134 -0.0263805 0.00290717)
(0.00531163 -0.0245395 0.0023416)
(0.00519444 -0.0237361 0.00304235)
(0.00456585 -0.0245394 0.00236947)
(0.00488121 -0.0239171 0.0028052)
(0.00575574 -0.0241836 0.00278128)
(0.0060768 -0.0236355 0.00311119)
(0.00423858 -0.0238261 0.00223458)
(0.00585724 -0.0242449 0.00355604)
(0.00531419 -0.0262615 0.00311425)
(0.0096424 -0.0246078 0.0063358)
(0.0102363 -0.0241675 0.0067363)
(0.00921667 -0.0242421 0.00526007)
(0.00963947 -0.0224946 0.00535776)
(0.0095249 -0.0242739 0.0049234)
(0.0100482 -0.0239474 0.00658425)
(0.00951305 -0.0234945 0.00912021)
(0.00864385 -0.0224281 0.010184)
(0.0092029 -0.0219846 0.00984324)
(0.00998977 -0.0235913 0.00984645)
(0.00860586 -0.0218103 0.0103719)
(0.00967467 -0.0228542 0.00828995)
(0.00908209 -0.0220688 0.0105028)
(0.00967214 -0.0243114 0.0121168)
(0.00790345 -0.0228257 0.0123668)
(0.00783332 -0.0234003 0.0127742)
(0.00863754 -0.022721 0.0110563)
(0.00182472 -0.0110208 0.00908993)
(0.00219473 -0.00965502 0.00800574)
(0.00265863 -0.00956257 0.00764448)
(0.00213428 -0.0107728 0.00862945)
(0.00316941 -0.00939349 0.0076034)
(0.00302241 -0.00961267 0.00800002)
(-0.00144269 -0.0158738 0.00984766)
(-0.00231158 -0.0165176 0.00968231)
(-0.00294992 -0.0183481 0.00911612)
(-0.002241 -0.0175901 0.010471)
(-0.00215914 -0.0191671 0.00995236)
(-0.00280672 -0.01838 0.00964977)
(-0.00326567 -0.0215028 0.00884277)
(-0.00322701 -0.0213899 0.00779784)
(-0.00286229 -0.0219882 0.00700692)
(-0.00315953 -0.0200724 0.00815976)
(-0.00336279 -0.0234149 0.00750257)
(-0.00324513 -0.0216366 0.00763171)
(-0.00187196 -0.024023 0.00684955)
(-0.00335156 -0.0230173 0.00769284)
(-0.00311973 -0.02247 0.00700471)
(-0.00271873 -0.0231372 0.00867626)
(-0.00230468 -0.0239214 0.00684399)
(-0.00288493 -0.0211603 0.00815445)
(0.000795937 -0.0117495 0.00909405)
(0.000265497 -0.0133902 0.0100031)
(-0.000325508 -0.0141335 0.00977142)
(-0.000924247 -0.0147535 0.00992417)
(0.00056023 -0.0129049 0.00948704)
(-0.000172951 -0.0143239 0.00992192)
(-0.00284183 -0.0209505 0.0081475)
(-0.00185798 -0.0196258 0.00853524)
(-0.00236163 -0.0226426 0.00748388)
(-0.00256102 -0.0222406 0.00764785)
(-0.00235912 -0.0211543 0.00914078)
(-0.00225049 -0.0209153 0.00777692)
(-0.000529651 -0.0148519 0.00884434)
(-0.00152207 -0.0168287 0.0093011)
(-0.000999143 -0.0169714 0.00932296)
(0.000459622 -0.015238 0.00996396)
(-0.00112786 -0.0149133 0.00898148)
(0.000390609 -0.0136871 0.00944897)
(0.000971205 -0.0119142 0.00915698)
(0.000370342 -0.0149991 0.00986803)
(0.000527633 -0.0129643 0.00982003)
(-0.000381279 -0.0144296 0.00928803)
(0.00137742 -0.0130693 0.00931182)
(0.00341803 -0.00862189 0.00678161)
(0.00413075 -0.00821916 0.00629027)
(0.00402144 -0.00856652 0.00612177)
(0.00379196 -0.00846301 0.00654016)
(0.00337931 -0.00889667 0.00713367)
(0.00429659 -0.00828416 0.00594846)
(-0.000158621 -0.0128155 0.00940375)
(-0.000806627 -0.0151676 0.0101673)
(0.000424272 -0.0140459 0.00960732)
(-0.00150786 -0.0149392 0.00974101)
(-0.00108745 -0.0140074 0.00957436)
(-0.00071075 -0.0134899 0.00980811)
(0.00295407 -0.00895147 0.00593477)
(0.00282003 -0.00889492 0.00587227)
(0.00297382 -0.00870332 0.00558671)
(0.00263928 -0.00921873 0.00639777)
(0.00225494 -0.00936828 0.00703575)
(0.0026717 -0.00953011 0.00651906)
(0.000978916 -0.0247421 0.00289275)
(0.000685179 -0.0253081 0.00316269)
(2.93995e-05 -0.0260622 0.00367841)
(-0.000176591 -0.0245098 0.00381875)
(0.00102169 -0.0252755 0.0026228)
(-0.000896906 -0.0234954 0.00348566)
(-0.000667451 -0.023187 0.00589597)
(-0.00112628 -0.0213481 0.00699573)
(-0.00144708 -0.0219817 0.0081392)
(-0.000884638 -0.0226224 0.00787656)
(-0.000794498 -0.021012 0.00547036)
(-0.000111908 -0.0243649 0.00599696)
(0.000394922 -0.0248621 0.00253391)
(0.00302294 -0.0263928 0.0024345)
(0.00359445 -0.0253235 0.00279632)
(0.00195326 -0.0255831 0.00302643)
(0.00193673 -0.0273277 0.00298499)
(0.0029887 -0.0259648 0.00163942)
(-8.11434e-05 -0.023937 0.00345267)
(0.00261259 -0.0247359 0.0027628)
(0.00156453 -0.0247613 0.00450796)
(0.000424756 -0.0231087 0.00221028)
(0.000552035 -0.0245581 0.00426539)
(0.00304891 -0.0239276 0.00202627)
(0.00291981 -0.0253163 0.00219368)
(0.0010746 -0.0205841 0.00622354)
(0.000554311 -0.017186 0.00799966)
(-0.000302016 -0.0185707 0.00717173)
(-0.00142766 -0.0199207 0.00895443)
(-0.000348535 -0.0189301 0.00885539)
(6.83644e-05 -0.0156158 0.00901319)
(-0.00112249 -0.0167584 0.00813913)
(-0.000102568 -0.0163508 0.00871925)
(-0.000336231 -0.0163719 0.00903534)
(1.67586e-05 -0.0233004 0.00369611)
(-0.000113606 -0.0215308 0.00395018)
(0.00222682 -0.0239441 0.0025579)
(0.00220171 -0.0243115 0.00415134)
(0.000524718 -0.0229903 0.00251135)
(0.0118177 -0.0244044 0.0103602)
(0.0116397 -0.0233117 0.00898792)
(0.0126127 -0.0246645 0.00845942)
(0.0125622 -0.024521 0.00803805)
(0.0124581 -0.0250015 0.0102998)
(0.0104167 -0.0221239 0.0113767)
(0.00687956 -0.0254373 0.00203281)
(0.00614493 -0.0270172 0.0023946)
(0.00638813 -0.0249518 0.00100043)
(0.00547824 -0.0256325 0.00127894)
(0.00772718 -0.0249085 0.00232618)
(0.00576326 -0.0259601 0.00201884)
(0.00423115 -0.0256861 0.00184577)
(0.00251003 -0.0251523 0.00229874)
(0.00421279 -0.0249683 0.00220356)
(0.00165985 -0.0236869 0.00214395)
(0.00302774 -0.0253254 0.0026316)
(0.00323058 -0.025975 0.00170746)
(0.00415211 -0.0246211 0.00213025)
(0.00554605 -0.0262353 0.00274866)
(0.00514806 -0.0252634 0.00218896)
(0.00329474 -0.0261365 0.00248645)
(0.0035868 -0.0246313 0.00293679)
(0.0039859 -0.0241503 0.00263592)
(0.00759936 -0.0238901 0.00282794)
(0.00767968 -0.0243552 0.00357426)
(0.0067929 -0.025005 0.00286332)
(0.00627213 -0.0252655 0.00245983)
(0.0073888 -0.0266237 0.0033262)
(0.00831933 -0.0247402 0.00375361)
(0.0117146 -0.0239829 0.00292132)
(0.0127009 -0.0242617 0.00370346)
(0.0128027 -0.0239792 0.00416064)
(0.0112538 -0.0226131 0.00398226)
(0.0123797 -0.0230645 0.00461081)
(0.0108448 -0.0225501 0.00308628)
(0.0139149 -0.0243488 0.00786795)
(0.0127271 -0.0227423 0.00601258)
(0.0125928 -0.0228041 0.00916966)
(0.0137858 -0.024441 0.00707886)
(0.0121508 -0.0220041 0.00763796)
(0.0112525 -0.0234319 0.00471245)
(0.0111421 -0.0234561 0.00523353)
(0.0117624 -0.0229855 0.0058979)
(0.0117382 -0.0241784 0.00611746)
(0.0114135 -0.0220615 0.00532272)
(0.00544112 -0.00796051 0.00381939)
(0.00530625 -0.00765837 0.00399955)
(0.00567737 -0.00814452 0.00358397)
(0.00533077 -0.00739466 0.00364286)
(0.0054606 -0.00804493 0.00358507)
(0.00568457 -0.00770811 0.00414752)
(0.0064897 -0.00797538 0.00390217)
(0.00582296 -0.00753243 0.00442021)
(0.00617639 -0.00749869 0.00436398)
(0.00612545 -0.0078424 0.00417672)
(0.00565159 -0.00732067 0.00435103)
(0.00579968 -0.00697919 0.00396785)
(0.012369 -0.0249426 0.000959904)
(0.00904464 -0.0246408 -0.000753034)
(0.00978409 -0.0225995 -0.000584476)
(0.0090422 -0.0245707 -0.000626898)
(0.00921538 -0.0238162 0.000681009)
(0.0118741 -0.0240895 0.000704886)
(0.0114076 -0.0248686 -0.000429991)
(0.00898525 -0.0250623 -9.08315e-05)
(0.0103662 -0.0238365 -0.000509708)
(0.0106147 -0.0234825 -0.000291491)
(0.00912395 -0.023786 -0.000155071)
(0.00830833 -0.0247946 -0.000332703)
(0.00650229 -0.0261048 0.000162717)
(0.00459135 -0.0258355 6.97865e-05)
(0.00254127 -0.0252641 6.0271e-05)
(0.00626785 -0.0256351 0.000385874)
(0.00334575 -0.0233002 0.0011126)
(0.00485166 -0.0244122 0.00137301)
(0.00119224 -0.0123459 0.00921744)
(0.00178018 -0.0117718 0.00876701)
(0.000410588 -0.0147951 0.0097295)
(0.000979707 -0.0134448 0.00919235)
(0.000366653 -0.0137032 0.00950729)
(0.00303967 -0.00929781 0.00770916)
(0.00247624 -0.00993453 0.00801128)
(0.00216948 -0.0105084 0.00840601)
(0.00318225 -0.00911551 0.00742109)
(0.0038971 -0.00916668 0.00729376)
(0.00356796 -0.00976325 0.00775739)
(0.00304502 -0.0100961 0.00792072)
(0.00250575 -0.0106267 0.00809878)
(0.00411972 -0.00749184 0.00646345)
(0.00365695 -0.00820401 0.0069552)
(0.00392883 -0.00826626 0.00681982)
(0.00487143 -0.00877906 0.00714609)
(0.000804268 -0.0140103 0.00883294)
(0.00135785 -0.0118728 0.00828252)
(0.00108379 -0.0131339 0.00852347)
(0.00189391 -0.0110961 0.00836865)
(0.000783343 -0.0130295 0.00880879)
(0.00232837 -0.0115725 0.00841923)
(0.00377074 -0.00837541 0.00731967)
(0.00451703 -0.00798549 0.0066803)
(0.00437374 -0.00858859 0.00712858)
(0.00148509 -0.0203001 0.00601805)
(0.00107746 -0.0202322 0.00539867)
(0.000671577 -0.0202863 0.00624521)
(0.00241206 -0.019532 0.00500994)
(0.000920348 -0.0216731 0.00687774)
(0.00118566 -0.0188846 0.00451003)
(0.000753643 -0.0232153 0.012551)
(0.00337548 -0.0250987 0.0141428)
(0.0032252 -0.0250654 0.0135569)
(0.00116364 -0.0241715 0.0138057)
(0.00133763 -0.0252798 0.0127088)
(0.00101996 -0.0254804 0.0132561)
(0.00222988 -0.0181879 0.00423619)
(0.0027485 -0.0168211 0.00368523)
(0.00288368 -0.0212793 0.00592303)
(0.00173537 -0.0195617 0.00514467)
(0.00348491 -0.0179212 0.00402727)
(0.00272869 -0.0189386 0.00470427)
(0.000652671 -0.0234597 0.00787044)
(0.0016769 -0.0254021 0.0075696)
(0.00145234 -0.0207801 0.0055071)
(0.00136798 -0.0232387 0.00834919)
(0.00281483 -0.0242124 0.00813847)
(0.00289373 -0.0219014 0.0064095)
(0.00113405 -0.0176151 0.00432679)
(0.0022335 -0.0151195 0.00350531)
(0.00273626 -0.0158689 0.0035156)
(0.00158872 -0.0160839 0.00374852)
(0.0016634 -0.0159782 0.00352258)
(0.00149178 -0.0188978 0.00454246)
(0.011143 -0.0224783 0.0117093)
(0.0111654 -0.0223865 0.0121236)
(0.0118227 -0.021158 0.0104376)
(0.0129803 -0.024976 0.0115795)
(0.0119603 -0.0220558 0.011163)
(0.0086834 -0.0250697 0.000218797)
(0.00793826 -0.0238192 -0.00107475)
(0.0115508 -0.0249578 0.000403787)
(0.00986084 -0.0255383 -0.00147087)
(0.0148532 -0.0207174 0.00641174)
(0.0154662 -0.0209462 0.00562157)
(0.0144187 -0.0207357 0.00513921)
(0.0150065 -0.0210523 0.00462373)
(0.0148785 -0.0202589 0.00683883)
(0.0144333 -0.0208415 0.00446562)
(0.0145245 -0.0218935 0.00337256)
(0.0130011 -0.0228733 0.00112934)
(0.0137795 -0.0218007 0.00190873)
(0.0138642 -0.0235576 0.0018949)
(0.012947 -0.0219243 0.00125597)
(0.0138555 -0.0217516 0.00241891)
(0.014574 -0.0191966 0.00845599)
(0.0157059 -0.0207743 0.00773873)
(0.015193 -0.0194007 0.00653089)
(0.014032 -0.0222464 0.00112634)
(0.0119746 -0.0239586 -0.000713236)
(0.0129215 -0.0235383 -3.35083e-05)
(0.0150446 -0.0226445 0.00233367)
(0.0137079 -0.0247295 0.000469471)
(0.0144095 -0.0221378 0.000987837)
(0.0131542 -0.0210575 4.70902e-05)
(0.0128317 -0.0225331 0.000225362)
(0.0169164 -0.0213094 0.00928987)
(0.0175024 -0.0205802 0.00742473)
(0.0165471 -0.0206167 0.00721395)
(0.0172394 -0.0208035 0.00596009)
(0.0178745 -0.0218282 0.00838441)
(0.017032 -0.0203465 0.00590317)
(0.0162284 -0.0203442 0.00369372)
(0.0170414 -0.0210485 0.00317574)
(0.0161203 -0.0218042 0.00283221)
(0.0160144 -0.0218349 0.00147686)
(0.0155125 -0.0215007 0.00168475)
(0.0170625 -0.0208941 0.00381882)
(0.00249935 -0.0249917 0.00928628)
(0.00172105 -0.0238018 0.0104594)
(0.00273851 -0.0247696 0.0120652)
(0.00315308 -0.0245801 0.0115574)
(0.00276155 -0.0262788 0.0116805)
(0.00252018 -0.028268 0.011131)
(0.00803043 -0.0255739 0.0148682)
(0.00454935 -0.02396 0.0134846)
(0.00789427 -0.0254034 0.0141514)
(0.00556455 -0.0265168 0.0146606)
(0.00449117 -0.0263685 0.0143448)
(0.00564111 -0.0242387 0.0140061)
(0.00978782 -0.0239858 0.0140635)
(0.0101615 -0.022099 0.0134098)
(0.0111993 -0.0232152 0.013225)
(0.00814834 -0.0228438 0.0139461)
(0.00861894 -0.0243839 0.0147463)
(0.00958702 -0.0231949 0.0132207)
(0.0110874 -0.0232993 0.0133261)
(0.00615192 -0.022151 0.0052428)
(0.00609472 -0.0195248 0.00435788)
(0.00325109 -0.0237242 0.0100931)
(0.00522286 -0.0273881 0.0116257)
(0.00468354 -0.0271883 0.0102669)
(0.00371471 -0.0238397 0.0081979)
(0.00409236 -0.024041 0.00928379)
(0.00426187 -0.0243247 0.0112923)
(0.00618122 -0.0135345 0.00295489)
(0.00541621 -0.015761 0.00327049)
(0.00575884 -0.0178888 0.00378717)
(0.00629527 -0.0148723 0.00275559)
(0.00687988 -0.017324 0.00386058)
(0.00582442 -0.0141639 0.00299258)
(0.00575196 -0.0102837 0.0026763)
(0.00612851 -0.0122009 0.00283647)
(0.00549371 -0.0101158 0.00235704)
(0.00631127 -0.0120804 0.00285946)
(0.0055535 -0.0118453 0.00248246)
(0.00730863 -0.0152856 0.00252263)
(0.0069639 -0.0160385 0.00290538)
(0.0103968 -0.0250848 0.0155976)
(0.00994523 -0.0237949 0.0143258)
(0.0125501 -0.024472 0.0151889)
(0.0112375 -0.0240434 0.0145359)
(0.0102103 -0.0223104 0.0147218)
(0.007497 -0.0249037 0.0135423)
(0.00699034 -0.02785 0.0138299)
(0.00708032 -0.0248257 0.0129947)
(0.00845471 -0.0235016 0.0137155)
(0.00662069 -0.0257917 0.0122882)
(0.00833131 -0.0251744 0.0142981)
(0.00584493 -0.0251 0.0116696)
(0.00625019 -0.0287004 0.0102107)
(0.00618308 -0.0254344 0.0109703)
(0.00451209 -0.0269282 0.00699768)
(0.00494854 -0.0256633 0.0105096)
(0.00459692 -0.0238771 0.00926426)
(0.00436213 -0.00868533 0.00384283)
(0.00409679 -0.00861695 0.00379258)
(0.00395533 -0.00796624 0.0038891)
(0.00376348 -0.00810228 0.00339548)
(0.00412081 -0.00794648 0.00411733)
(0.00397565 -0.00816445 0.00374616)
(0.00498575 -0.0082986 0.00446223)
(0.00458969 -0.00750231 0.00400851)
(0.00450535 -0.00847715 0.0040253)
(0.00491044 -0.00837063 0.00398797)
(0.00468197 -0.00841564 0.00438408)
(0.00454787 -0.00850249 0.00369721)
(0.00319571 -0.0086775 0.00348051)
(0.00330765 -0.00852282 0.00378323)
(0.0032805 -0.00869354 0.00345563)
(0.00340976 -0.00850743 0.00422834)
(0.00349363 -0.009167 0.00403444)
(0.0031209 -0.00838652 0.0038228)
(0.00358548 -0.00875592 0.00354445)
(0.00395683 -0.00882577 0.00383548)
(0.00376074 -0.00933397 0.00343109)
(0.0038467 -0.0090227 0.00353407)
(0.00355212 -0.00888054 0.00350258)
(0.00348171 -0.00896049 0.00336929)
(-0.000180351 -0.0253247 0.00518991)
(-0.00134109 -0.0224568 0.00548296)
(-0.000916271 -0.0217948 0.0062636)
(-0.00142719 -0.0227176 0.00521192)
(-0.000764704 -0.0244498 0.00477441)
(-0.00153809 -0.0237964 0.00663381)
(0.00331275 -0.00924856 0.00693144)
(0.00356858 -0.00820809 0.00625251)
(0.00400384 -0.00854321 0.00598834)
(0.00316322 -0.00867061 0.00661059)
(0.00350752 -0.00879992 0.006589)
(0.00374414 -0.00880284 0.00617482)
(0.000192724 -0.0240394 0.0133162)
(-0.00113516 -0.0234265 0.0126386)
(-0.00129798 -0.0234915 0.0119161)
(0.000709612 -0.0241487 0.0135847)
(0.000133636 -0.0246295 0.0136487)
(-0.000539969 -0.0238789 0.0124029)
(0.00522816 -0.0229155 0.0126634)
(0.00697443 -0.023303 0.0119734)
(0.00715857 -0.0223031 0.0109674)
(0.00608724 -0.0227033 0.0122479)
(0.005697 -0.0233278 0.012453)
(0.00604874 -0.0215651 0.0110032)
(0.00265256 -0.023396 0.0132579)
(0.00312479 -0.0227743 0.013466)
(0.00428792 -0.023258 0.0134833)
(0.00471169 -0.022966 0.0133707)
(0.00360266 -0.0227128 0.0132941)
(0.00312371 -0.0237922 0.0135909)
(0.00852575 -0.0230265 0.0142969)
(0.00920101 -0.0249176 0.0144216)
(0.0118674 -0.0242863 0.0145215)
(0.00912126 -0.024052 0.0145484)
(0.00895955 -0.0243795 0.0143349)
(0.0107638 -0.0232716 0.0140561)
(0.0158522 -0.0214882 0.0114933)
(0.0149484 -0.0201967 0.0105291)
(0.00355855 -0.00852302 0.00597348)
(-0.000717377 -0.0141198 0.00985201)
(0.000836323 -0.0125364 0.00892278)
(0.000318227 -0.0126251 0.00912577)
(-0.000293338 -0.0132136 0.00982702)
(0.00148824 -0.0118409 0.00876961)
(0.00279231 -0.00965227 0.00680286)
(0.00231415 -0.0102609 0.00764263)
(0.00152591 -0.0103309 0.0078832)
(0.00335363 -0.00905783 0.0063051)
(0.00322626 -0.00850402 0.00632609)
(0.00308956 -0.00940225 0.00676397)
(0.00354548 -0.00875167 0.0060045)
(-0.000983542 -0.0212894 0.00770552)
(-0.000855976 -0.0243366 0.0057931)
(0.0105203 -0.0241581 0.00276265)
(0.0097026 -0.0248124 0.00197291)
(0.00822687 -0.0244667 0.00180941)
(0.00871325 -0.0249456 0.00157725)
(0.00720871 -0.0244794 0.000245229)
(0.00606281 -0.0239067 0.00010345)
(0.00325976 -0.00922479 0.00314127)
(0.00324865 -0.00884724 0.0032961)
(0.0030456 -0.00902728 0.00301048)
(0.00320796 -0.00901878 0.00318539)
(0.00320077 -0.00949731 0.00339583)
(0.00316802 -0.00903056 0.00319038)
(0.00304995 -0.00967451 0.0029795)
(0.00272574 -0.0100627 0.00297018)
(0.00286283 -0.0094439 0.00300708)
(0.0025009 -0.0106488 0.00276538)
(0.00448092 -0.00741391 0.00439996)
(0.00492966 -0.00749913 0.0043599)
(0.00531718 -0.00761458 0.00465228)
(0.00517986 -0.00749521 0.00437168)
(0.00550392 -0.00730385 0.00445319)
(0.00563773 -0.00766303 0.00480772)
(0.00330847 -0.00929017 0.00344282)
(0.00347942 -0.00830172 0.0040456)
(0.00371673 -0.0086765 0.00399845)
(0.003612 -0.00874714 0.00376258)
(0.00330998 -0.00810767 0.00442717)
(0.00459437 -0.00760783 0.00442648)
(0.00416901 -0.00884381 0.00442257)
(0.0039949 -0.00860506 0.00394158)
(0.0040647 -0.008423 0.00444214)
(0.0041917 -0.00814907 0.00425436)
(0.00412959 -0.00833715 0.0042244)
(0.00799112 -0.0265689 0.0148496)
(0.0144117 -0.0227541 0.0131881)
(0.0124241 -0.0230642 0.0141689)
(0.00913531 -0.024311 0.0148525)
(0.0094935 -0.0248711 0.0143921)
(0.0145681 -0.0235494 0.0149578)
(0.0139464 -0.0228715 0.01456)
(0.0135106 -0.0225805 0.014712)
(0.0118675 -0.022477 0.0139817)
(0.0144496 -0.0234313 0.0146606)
(0.0107871 -0.0246538 0.0150104)
(0.0133052 -0.0225713 0.0136705)
(0.0131891 -0.0234426 0.0148429)
(0.0120012 -0.0228968 0.0142101)
(0.0112033 -0.0236331 0.0150296)
(0.00582993 -0.00739413 0.00351243)
(0.00589263 -0.00877868 0.00341733)
(0.00544796 -0.00794954 0.00325046)
(0.00556625 -0.00829778 0.00317288)
(0.00609692 -0.00851678 0.00351626)
(0.00577741 -0.0070962 0.00335668)
(0.00665669 -0.00851354 0.00363271)
(0.00562509 -0.00760496 0.00375091)
(0.00554969 -0.00903776 0.00278523)
(0.00583668 -0.00960117 0.0030641)
(0.00582398 -0.010205 0.00260655)
(0.00609363 -0.0289919 0.0125106)
(0.00518682 -0.0269192 0.0133627)
(0.00300996 -0.0261822 0.00944765)
(0.00706938 -0.0187696 0.00352451)
(0.00518962 -0.0239255 0.0071476)
(0.00541033 -0.0237667 0.00649054)
(0.00594728 -0.0260316 0.0100182)
(0.00269153 -0.0230374 0.00736802)
(0.00429098 -0.0243476 0.00750588)
(0.00524056 -0.0128292 0.0025029)
(0.00547532 -0.0149198 0.00283804)
(0.0049632 -0.0159502 0.00312372)
(0.00458077 -0.0196827 0.00485273)
(0.00431074 -0.020626 0.00565903)
(0.00367188 -0.0187188 0.00389506)
(0.00423547 -0.0169839 0.00352076)
(0.00546089 -0.0179554 0.00400326)
(0.00307049 -0.0193577 0.00466984)
(0.00689249 -0.0254565 0.00943213)
(0.0052663 -0.0253121 0.0070654)
(0.00437217 -0.0246734 0.0128116)
(0.0179118 -0.0225093 0.0115809)
(0.0160565 -0.0210429 0.0100172)
(0.012294 -0.0218555 0.00082757)
(0.00687337 -0.0245093 0.00131369)
(0.0171868 -0.019865 0.00486582)
(0.0178356 -0.0208418 0.00829469)
(0.0183965 -0.0203513 0.00680735)
(0.018292 -0.0209835 0.00642826)
(0.0101804 -0.0247464 -0.00158151)
(0.0125908 -0.0241151 -0.000289232)
(0.0122895 -0.0224293 -0.000354501)
(0.0109154 -0.0222857 -0.00116049)
(0.00730901 -0.024744 0.0144745)
(0.005083 -0.0238446 0.0145134)
(0.00705355 -0.0244523 0.0139822)
(0.00678646 -0.0246454 0.0143853)
(0.00666362 -0.0259485 0.0145947)
(0.0049087 -0.0246632 0.0133263)
(0.0072722 -0.024743 0.0141995)
(0.00747335 -0.0241864 0.0144285)
(0.00623127 -0.025017 0.0153223)
(0.0112029 -0.0234482 0.0139505)
(0.0125727 -0.0218538 0.012057)
(0.0112796 -0.0224688 0.0127187)
(0.0102603 -0.0224511 0.0135306)
(0.00856777 -0.0243277 0.0140094)
(0.00943144 -0.0235351 0.0141973)
(0.0102 -0.0262847 0.0151328)
(0.00773825 -0.0253641 0.0152111)
(0.0103553 -0.0237423 0.0144855)
(0.0134455 -0.0220292 0.0116034)
(0.0135531 -0.0213954 0.00986606)
(0.0134498 -0.0219766 0.0112447)
(0.0136943 -0.0218802 0.00994754)
(0.0134601 -0.0223689 0.0101724)
(0.0132503 -0.023923 0.0127338)
(0.0125533 -0.0214962 0.0115933)
(0.01272 -0.0231526 0.0114929)
(0.0124483 -0.0214761 0.0107673)
(0.00559453 -0.00883706 0.00312766)
(0.00483838 -0.00839195 0.00346524)
(0.00472442 -0.00769881 0.00416678)
(0.00526149 -0.00787849 0.0045507)
(0.00474845 -0.00792742 0.00368566)
(0.00458595 -0.0075963 0.00379174)
(0.00518513 -0.00809164 0.00406788)
(0.00561915 -0.00880652 0.00345197)
(0.00533912 -0.00849709 0.00386414)
(0.00520685 -0.00776895 0.00402835)
(0.00457864 -0.00931524 0.0030077)
(0.00466485 -0.00905926 0.00324089)
(0.00472638 -0.00831031 0.00334101)
(0.00487537 -0.00913621 0.00315155)
(0.00447955 -0.00817339 0.00298284)
(0.00477431 -0.00880447 0.00354015)
(0.0046159 -0.00814564 0.00358957)
(0.00452261 -0.00873856 0.00320938)
(0.00474671 -0.00909144 0.0034862)
(0.00474197 -0.00915323 0.00310295)
(0.00494193 -0.0113498 0.00281227)
(0.00467058 -0.0101284 0.00258736)
(0.00587476 -0.00963093 0.00342919)
(0.00499762 -0.00948874 0.00314745)
(0.00463736 -0.00976861 0.00263918)
(0.00415787 -0.0127496 0.00294727)
(0.00389678 -0.011199 0.00257243)
(0.00471196 -0.0101002 0.00304606)
(0.00446551 -0.0098495 0.00280102)
(0.0041432 -0.0106527 0.00262173)
(0.00427165 -0.0117785 0.00274197)
(0.00456147 -0.0109696 0.00285928)
(0.00391698 -0.0100373 0.00332738)
(0.00316573 -0.00956831 0.00302544)
(0.00351309 -0.00997172 0.00316437)
(0.00340133 -0.0107713 0.00284945)
(0.00314737 -0.011338 0.00289013)
(0.00275366 -0.0132369 0.00325001)
(0.00320903 -0.0123533 0.00304025)
(0.0050985 -0.010557 0.00322528)
(0.00459102 -0.00957625 0.0030889)
(0.00379753 -0.0109162 0.00298531)
(0.00412302 -0.01017 0.00319331)
(0.00348171 -0.00949001 0.00269029)
(0.00356656 -0.00831291 0.00297387)
(0.00399222 -0.00915127 0.00324369)
(0.00341677 -0.0086726 0.00299545)
(0.0044843 -0.0100175 0.0038694)
(0.00420241 -0.0122778 0.0031319)
(0.00341898 -0.00946328 0.00299424)
(0.00508495 -0.012169 0.00341807)
(0.00363665 -0.0134483 0.00306911)
(0.00303797 -0.0107801 0.00264774)
(0.0030773 -0.0129808 0.00291493)
(0.00303173 -0.0125712 0.00275469)
(0.00296282 -0.0113357 0.00258422)
(0.00261484 -0.0140031 0.00294873)
(0.00255954 -0.0159234 0.003495)
(0.00259886 -0.013408 0.00272706)
(0.00174705 -0.0173252 0.00380195)
(0.00408338 -0.0249914 0.0135109)
(0.00534214 -0.0255627 0.0143357)
(0.00345749 -0.025746 0.0130032)
(0.000522434 -0.0235012 0.00801912)
(0.000430927 -0.0225983 0.00866348)
(0.00305051 -0.0269277 0.0125879)
(0.00124868 -0.0253594 0.011646)
(0.00160784 -0.0262166 0.010296)
(0.00106083 -0.0228871 0.00967703)
(0.00453668 -0.0261133 0.0116996)
(0.00606677 -0.0262447 0.0138924)
(0.00474501 -0.0273229 0.0118155)
(0.00222486 -0.0264479 0.0100202)
(0.00343989 -0.0261994 0.012132)