/*--------------------------------*- C++ -*----------------------------------*\
| =========                 |                                                 |
| \\      /  F ield         | OpenFOAM: The Open Source CFD Toolbox           |
|  \\    /   O peration     | Version:  v1612+                                |
|   \\  /    A nd           | Web:      www.OpenFOAM.com                      |
|    \\/     M anipulation  |                                                 |
\*---------------------------------------------------------------------------*/
FoamFile
{
    version     2.0;
    format      ascii;
    class       volVectorField;
    location    "200";
    object      wallShearStress;
}
// * * * * * * * * * * * * * * * * * * * * * * * * * * * * * * * * * * * * * //

dimensions      [0 2 -2 0 0 0 0];

internalField   uniform (0 0 0);

boundaryField
{
    WALL
    {
        type            calculated;
        value           nonuniform List<vector> 
60385
(
(0.00628739 -0.0122225 0.00483708)
(0.00603549 -0.0111838 0.0042399)
(0.016316 0.00714946 0.00519718)
(0.00551748 -0.0108189 0.00450877)
(0.00530242 -0.0103964 0.00433987)
(0.012735 -0.022452 -0.00112761)
(0.0126107 -0.021751 -0.00115355)
(0.0113712 -0.00362203 0.00129582)
(0.0118175 -0.00368359 0.00149859)
(0.00919239 0.00662198 0.0228606)
(0.00802614 0.00546647 0.0226535)
(0.0161956 0.00383364 0.0120441)
(0.0163278 0.00354266 0.011988)
(0.0127226 0.00654209 0.00453333)
(0.0121007 0.00616043 0.00322993)
(0.0131891 0.00476677 0.00392429)
(0.0136742 0.00493598 0.00346315)
(-0.00897253 -0.0207365 -0.0122511)
(-0.0101977 -0.0214403 -0.0126426)
(-0.0121164 -0.0104527 0.0104201)
(-0.0108502 -0.00914842 0.00833728)
(-0.0054221 0.033415 0.00716547)
(-0.00493846 0.0324433 0.00598792)
(-0.00489077 0.0237925 0.019259)
(-0.00449375 0.0260469 0.0190277)
(-0.00528308 -0.0162289 -0.00419541)
(-0.00542938 -0.0143255 -0.00469101)
(0.0077701 -0.00111022 0.00407255)
(0.00699633 -0.00156157 0.00421432)
(0.0125743 -0.014771 0.000802357)
(0.0132348 -0.0117616 0.000811077)
(0.0111843 0.00576417 0.0120923)
(0.0123818 0.00343431 0.0132325)
(0.00219198 0.00250598 0.0105315)
(0.0025514 0.00169833 0.0112891)
(-0.0119782 -0.0253001 0.0140344)
(-0.0123686 -0.025245 0.013645)
(0.00557104 -0.0108804 0.00439439)
(0.00621624 -0.0117986 0.0045722)
(0.00633696 -0.0124643 0.00500019)
(0.00647936 -0.0123656 0.00467573)
(0.00566806 -0.0113595 0.00463081)
(0.00547063 -0.011395 0.00493226)
(0.0048857 -0.0102177 0.00449534)
(0.0051743 -0.0105705 0.00446037)
(-0.00578783 -0.0074691 0.00135927)
(-0.00464515 -0.00673556 0.00151974)
(0.0078386 -0.0105587 0.0100031)
(0.00782812 -0.0108494 0.00957884)
(0.00563646 -0.0113385 0.00483071)
(0.0059082 -0.0114237 0.00448456)
(-0.0153404 0.014898 0.00095833)
(-0.0157794 0.0131217 0.000937859)
(-0.00645835 -0.00590189 -0.00506004)
(-0.00598971 -0.00526619 -0.00451302)
(0.00647661 -0.0101289 -0.00128187)
(0.00616673 -0.00923049 -0.000243909)
(0.00062511 -0.0203293 -0.00914061)
(0.000251215 -0.0222216 -0.0085022)
(0.000519707 -0.0226707 -0.0051328)
(0.000418904 -0.0234626 -0.00707003)
(0.0056123 -0.010878 0.00457935)
(0.00575628 -0.0110503 0.00447012)
(0.00523463 -0.0106108 0.00482124)
(0.00531614 -0.0109111 0.00412809)
(0.00226317 -0.0220545 -0.0131662)
(0.0032962 -0.0211664 -0.0141972)
(0.0160646 -0.0214461 -0.010321)
(0.0170223 -0.0189981 -0.0122961)
(0.0055177 -0.0110944 0.0046878)
(0.00531455 -0.0105711 0.00424444)
(0.00730259 -0.0146454 0.00617956)
(0.00712743 -0.0139073 0.00588476)
(0.00565803 -0.0116215 0.00483024)
(0.00594306 -0.0117849 0.00487957)
(0.00608758 -0.0124831 0.00530322)
(0.00629968 -0.0125861 0.00532447)
(0.00830601 -0.0151952 0.00612871)
(0.00792133 -0.0156273 0.0065367)
(0.00533703 -0.010828 0.00450845)
(0.00555634 -0.0109584 0.00459083)
(0.0056125 -0.0114074 0.00518094)
(0.00576607 -0.0114474 0.0045799)
(0.00552884 -0.0115123 0.00492835)
(0.00566384 -0.0115384 0.00480794)
(0.00641597 -0.0123612 0.00530377)
(0.00563791 -0.0115357 0.00481715)
(0.00544399 -0.0113743 0.00479634)
(0.00585694 -0.0113642 0.00473247)
(-0.00397649 -0.00758518 0.00344501)
(-0.00324224 -0.0065875 0.00284118)
(-0.0185421 -0.0272112 0.00911662)
(-0.0175451 -0.0279534 0.00974209)
(-0.00714694 -0.0203347 0.0100872)
(-0.00854131 -0.0231536 0.0114341)
(0.00855425 -0.0180048 0.0152289)
(0.00833144 -0.0183503 0.0132658)
(0.00576542 -0.012427 0.00945865)
(0.00666624 -0.0137823 0.00919338)
(0.020567 -0.0133612 0.00599921)
(0.0191702 -0.0124809 0.00301191)
(0.00288574 -0.0149453 0.00791193)
(0.00169954 -0.0153252 0.00849467)
(0.00497428 -0.010155 0.0042445)
(0.00474709 -0.010487 0.00463759)
(0.0050246 -0.0104638 0.00445642)
(0.00508353 -0.0103065 0.00439926)
(0.00587668 -0.0115279 0.00481936)
(0.00636421 -0.0122394 0.00500308)
(0.0320874 -0.068701 0.0221244)
(0.0530161 -0.14026 0.0314587)
(0.0146653 -0.0178305 0.00151852)
(0.0137173 -0.0191318 0.0034903)
(0.00370838 0.00263607 0.00961113)
(0.00444038 0.00151408 0.0101153)
(0.00800421 0.0044795 0.0162561)
(0.010442 0.00419714 0.0185502)
(0.0184077 0.00356285 0.00946349)
(0.0186368 0.00249221 0.0102255)
(0.0182908 0.00329247 0.0108743)
(0.019285 0.00435299 0.0113215)
(0.0119427 0.00206907 0.0131704)
(0.0116051 0.000951507 0.0150905)
(0.0145067 0.00318397 0.0121371)
(0.0135363 0.00316252 0.0109088)
(0.0114882 -0.000436726 0.00855742)
(0.010964 -6.09654e-05 0.00696625)
(0.0064013 -0.000835473 0.00668648)
(0.00614024 -0.000981756 0.00650958)
(0.0243412 0.00127282 0.00588319)
(0.02591 -0.00060952 0.00666612)
(0.00222213 -0.0157948 -0.00957654)
(0.00231106 -0.0163879 -0.0095121)
(0.02631 0.000244047 0.0122958)
(0.0282668 0.00413576 0.0148418)
(-0.00311595 0.00569248 0.012393)
(-0.00388994 0.00568357 0.0117042)
(-0.00142348 -0.0055313 -0.00795188)
(-0.000995503 -0.00568662 -0.00965093)
(-0.01494 0.00175616 0.0113406)
(-0.0156035 0.00204336 0.0123958)
(-0.0156459 -0.00325002 0.0175414)
(-0.0146566 0.000206742 0.0173716)
(-0.0152287 0.0018294 0.0112871)
(-0.0156623 -0.000416827 0.0120081)
(0.0023203 -0.000267983 -0.00163359)
(-0.000307952 0.00112092 0.000951257)
(-0.00192571 -0.0119138 -0.00516939)
(-0.00181442 -0.00972243 -0.00493828)
(-0.0222757 0.0349333 0.0140982)
(-0.0239706 0.0322657 0.0106405)
(-0.0148014 0.0206176 0.0124193)
(-0.0130093 0.0270676 0.00914676)
(-0.0247781 0.0125423 0.00203549)
(-0.0252846 0.012725 0.0019739)
(-0.0157329 -0.0192043 -0.00366896)
(-0.0153205 -0.020409 -0.00344183)
(-0.00208965 -0.00420525 -0.0053339)
(-0.00230909 -0.00391998 -0.00515726)
(-0.00987994 -0.0143402 0.00444581)
(-0.00972075 -0.0148936 0.0041171)
(-0.00481585 -0.00847554 -0.00794316)
(-0.00448981 -0.00821665 -0.00740143)
(-0.00953809 -0.0142113 0.00462154)
(-0.00934436 -0.013658 0.00393236)
(-0.0155022 -0.0198738 0.00671226)
(-0.0162062 -0.0208708 0.00828741)
(-0.0150603 -0.0199761 0.00795311)
(-0.0156647 -0.0198236 0.00754618)
(-0.00850444 -0.0211662 -0.0120535)
(-0.00726397 -0.0184769 -0.00933413)
(-0.00706935 -0.0188017 -0.0113829)
(-0.00780341 -0.0200563 -0.01262)
(-0.00726046 -0.0107338 0.00346152)
(-0.00699922 -0.0104303 0.0034006)
(-0.00841732 -0.0125975 0.00421524)
(-0.00771027 -0.0119731 0.00401107)
(-0.00706393 -0.0101745 0.00307021)
(-0.00717962 -0.0110446 0.00379614)
(-0.00690622 -0.0106244 0.00351503)
(-0.00674677 -0.0100767 0.00309754)
(-0.00802143 -0.0120325 0.00380231)
(-0.00809791 -0.0131443 0.00386735)
(-0.00630869 -0.00950119 0.0031283)
(-0.00571778 -0.00868087 0.00299617)
(-0.00685244 -0.00988327 0.00306969)
(-0.00605252 -0.00914212 0.00293923)
(-0.00726022 -0.0108218 0.00300192)
(-0.00737987 -0.0115389 0.00300793)
(-0.00614279 -0.0098901 0.00275079)
(-0.00615494 -0.0102001 0.00270244)
(-0.00758859 -0.0119688 0.00307387)
(-0.00715179 -0.0114734 0.00216496)
(-0.00841337 -0.0129086 0.00429237)
(-0.00924254 -0.0138175 0.00470525)
(-0.00985769 -0.0135841 0.00512174)
(-0.00961853 -0.0138862 0.00504532)
(-0.0101017 -0.0143471 0.00506308)
(-0.00931519 -0.0142181 0.00400744)
(0.00745512 -0.00154843 0.0290586)
(0.00491032 0.00213201 0.0280457)
(0.0128458 0.005647 0.00455837)
(0.0137811 0.00582404 0.00485458)
(0.0163756 0.0065013 0.00605913)
(0.0147193 0.00521215 0.00504148)
(0.019996 0.00545963 0.0105843)
(0.020215 0.00550338 0.0106067)
(0.0157559 0.008481 0.01007)
(0.0179972 0.00714604 0.0103555)
(0.0122133 0.00475722 0.0129593)
(0.0116026 0.0035267 0.0127456)
(0.0084606 0.0010317 0.00560804)
(0.00913552 0.00194406 0.00545387)
(0.019287 0.00502227 0.0104797)
(0.0200677 0.00577619 0.0110867)
(0.0142772 0.00691313 0.0116121)
(0.0140399 0.0070751 0.0113351)
(0.0134498 0.00506806 0.0123521)
(0.0126571 0.00504297 0.0123851)
(0.016557 0.00332217 0.0148212)
(0.0156362 0.00292044 0.0146279)
(0.0154084 0.00135493 0.0121269)
(0.017179 0.00339661 0.0114808)
(0.00129163 -0.00438982 0.0115475)
(0.00153483 -0.00459359 0.0112868)
(0.00695042 -0.00605004 0.0030612)
(0.00629703 -0.00629987 0.00449869)
(0.00558756 -0.0106975 0.00425678)
(0.0050354 -0.0101832 0.00431599)
(0.005017 -0.0101793 0.00434734)
(0.00520386 -0.0104256 0.00416094)
(0.00291072 -0.0104133 -0.00784315)
(0.00127199 -0.00920433 -0.0074164)
(-0.0096978 -0.0139296 0.00449581)
(-0.00813353 -0.0133013 0.00453966)
(-0.0088758 -0.0103113 0.00425847)
(-0.0084257 -0.00950829 0.00384941)
(-0.00600411 -0.00991813 0.00045504)
(-0.00651149 -0.00860325 0.00106811)
(-0.00104781 -0.00407963 0.0135583)
(-0.00211846 -0.00447658 0.0122588)
(0.0119058 -0.0229643 -0.00188381)
(0.0113832 -0.0219398 -0.00325689)
(0.0103396 0.00507465 0.00500485)
(0.00975518 0.00629121 0.00496354)
(0.000369576 -0.00344819 0.00453426)
(0.00113186 -0.00451567 0.00412904)
(0.00574207 -0.0112785 0.00471182)
(0.00582871 -0.0115551 0.00472643)
(-0.00645161 -0.0112297 -0.0103672)
(-0.00644404 -0.0111069 -0.0113068)
(-0.0134603 0.00686886 0.00978119)
(-0.01112 0.0072377 0.0124381)
(-0.0149511 0.00211895 0.00788711)
(-0.0129127 0.000244446 0.00812512)
(0.00550153 -0.0106974 0.00440667)
(0.00542376 -0.0110479 0.00453742)
(0.00553577 -0.0109955 0.0045034)
(0.00540059 -0.0109845 0.0045497)
(0.0202333 -0.0195381 0.00699167)
(0.0185909 -0.0189092 0.0101649)
(-0.0123585 0.015628 0.00597048)
(-0.0119817 0.0139705 0.00455769)
(-0.0135547 0.0117765 0.00204361)
(-0.0140009 0.0145529 0.0028286)
(0.00426613 -0.00934453 0.0102432)
(0.00452626 -0.0108563 0.00965361)
(0.00571784 -0.0140201 0.00913771)
(0.00610225 -0.0121378 0.0110626)
(0.0128854 0.00557643 0.00292767)
(0.0129584 0.0053137 0.00330775)
(-0.00618074 -0.00917246 0.00303837)
(-0.00643828 -0.00905413 0.00288452)
(-0.00793499 -0.0120827 0.00421406)
(-0.00783725 -0.0120498 0.00417983)
(-0.00559278 -0.00817181 -0.00286379)
(-0.00584088 -0.00795788 -0.00364336)
(0.00442079 -0.00927636 0.00447428)
(0.004822 -0.00998087 0.00430654)
(0.00726955 -0.00165737 0.00676538)
(0.00646784 -0.00264028 0.00599201)
(0.00814448 -0.0010408 0.00717575)
(0.00668802 -0.0015698 0.00582136)
(-0.0035042 0.0046902 0.000938251)
(-0.000737585 1.97784e-05 0.000229946)
(0.031589 -0.0381974 0.0498748)
(0.0271758 -0.0205102 0.0630584)
(0.00558938 -0.010906 0.00428067)
(0.00558269 -0.0112478 0.0045644)
(0.00594036 -0.011576 0.00465467)
(0.00490967 -0.0106765 0.00471573)
(-0.0286034 -0.0171798 -0.00209589)
(-0.0294894 -0.0145833 0.000807114)
(0.0059776 -0.0113837 0.00470017)
(0.00560194 -0.0113965 0.00478794)
(0.00508307 -0.0104092 0.0044412)
(0.00536237 -0.0109525 0.00462629)
(0.00531824 -0.0106805 0.0044688)
(0.00568004 -0.0106602 0.00435178)
(0.00528479 -0.0106574 0.00490145)
(0.00558857 -0.0115124 0.004555)
(0.00624382 -0.0129104 0.00550919)
(0.00647994 -0.0129836 0.00536989)
(0.00551 -0.0112327 0.00471494)
(0.00535825 -0.0110856 0.0045985)
(0.00570068 -0.0115742 0.00492717)
(0.00578324 -0.0114634 0.00464152)
(0.00535324 -0.0116659 0.00470435)
(0.00557883 -0.0106896 0.00488259)
(0.00553399 -0.0110946 0.00471672)
(0.00571419 -0.0111267 0.00456719)
(-0.0179528 -0.0345787 0.0149175)
(-0.0191962 -0.0357509 0.0141619)
(0.00274309 -0.0188102 0.0172822)
(0.00462877 -0.0188356 0.0177577)
(0.00842206 -0.0158158 0.0147764)
(0.0071967 -0.0157325 0.0158556)
(-0.00177177 -0.00444141 0.00263454)
(-0.00173067 -0.0040019 0.00246881)
(0.00515781 -0.0104189 0.00442812)
(0.00533467 -0.0108613 0.00443291)
(0.00550483 -0.0110624 0.00451668)
(0.00508294 -0.0104813 0.00462266)
(0.00689735 -0.0134431 0.00552036)
(0.00641479 -0.0133434 0.00570017)
(0.00595532 -0.0121233 0.00531827)
(0.00629544 -0.0123469 0.00510834)
(0.00641904 -0.012152 0.00483718)
(0.00626711 -0.0124072 0.00502486)
(0.018341 -0.0148083 0.00437393)
(0.0200458 -0.0122297 0.00619549)
(0.0184835 -0.0102232 0.0152938)
(0.0125355 -0.00108629 0.0159259)
(0.0137845 -0.00123336 0.0170079)
(0.0157187 -0.00375071 0.0150367)
(0.0139078 -0.00244871 0.0146892)
(0.00343281 0.00427944 0.00805983)
(0.00312568 0.00457199 0.00762129)
(0.00516662 0.00544646 0.0129616)
(0.00389666 0.00543653 0.0128759)
(0.00622317 0.00632958 0.0145714)
(0.00503128 0.00516354 0.0139642)
(0.00946199 0.00429688 0.0120319)
(0.0114754 0.00520971 0.0137489)
(0.0140115 0.00252486 0.0135931)
(0.0129128 0.00165498 0.0156548)
(0.0156995 0.0044598 0.0079501)
(0.0151759 0.00396632 0.00757259)
(0.0134934 -0.0107018 0.000995423)
(0.0139583 -0.00911437 0.00109686)
(0.0137062 -0.000928054 0.012041)
(0.0158339 -0.00160666 0.0159909)
(0.0158432 -0.0123605 0.00852296)
(0.0141116 -0.0110083 0.00845735)
(-0.00255505 -0.0110099 0.00557876)
(-0.00254554 -0.0113066 0.00555354)
(-0.0156894 0.000337916 0.0137082)
(-0.0159559 -0.00315727 0.0133837)
(-0.010394 0.0124686 0.0130958)
(-0.00879161 0.0129872 0.0120806)
(0.00153709 -0.00134117 -0.00184272)
(0.00238098 -0.00209063 -0.00283222)
(-0.000339342 -0.00324313 -0.00381549)
(-0.000954282 -0.00375427 -0.00523922)
(-0.00763531 0.00427998 0.0113181)
(-0.00232465 0.00526846 0.0137456)
(-0.0110191 0.0304817 0.0131399)
(-0.0119399 0.0348004 0.0128249)
(-0.0251819 0.030116 0.00851121)
(-0.0232691 0.0283714 0.00634279)
(-0.0217202 0.0265906 0.00801274)
(-0.0225717 0.0279875 0.00990157)
(-0.00608156 -0.00910876 -0.0145728)
(-0.00819321 -0.0103557 -0.015145)
(-0.00813941 -0.0132281 0.00546217)
(-0.00803452 -0.0133578 0.00528183)
(-0.0159761 -0.0140475 0.0133476)
(-0.0147324 -0.0131699 0.0136085)
(-0.00596703 -0.0105359 0.00356453)
(-0.00615457 -0.0104614 0.0036211)
(-0.00895169 -0.0137309 0.00383553)
(-0.0092179 -0.0133154 0.00491866)
(-0.00958196 -0.0108081 0.00639149)
(-0.0113826 -0.013029 0.00794186)
(-0.00742417 -0.0110544 0.00340913)
(-0.00768308 -0.011259 0.00348048)
(-0.00605684 -0.00873716 0.00254793)
(-0.00606804 -0.00873835 0.00271645)
(-0.00943647 -0.0131709 0.00494529)
(-0.0101048 -0.0133763 0.00520762)
(-0.00813064 -0.0117709 0.00383668)
(-0.008425 -0.0117139 0.00442784)
(-0.00722588 -0.0101593 0.00291397)
(-0.00677066 -0.0100897 0.00304846)
(0.0222385 -0.0319378 -0.0254897)
(0.0240044 -0.0299573 -0.0238799)
(-0.00109954 0.00248104 0.00241545)
(0.000305057 0.00224616 0.00132607)
(0.00610829 0.00136198 -0.00442817)
(0.00995556 4.52589e-05 -0.00967722)
(-0.00887206 -0.00758698 0.0139836)
(-0.0102573 -0.00777732 0.0159434)
(0.00911845 0.00221541 0.00595307)
(0.00878485 0.00241352 0.00619163)
(0.00975702 0.00493271 0.0114422)
(0.00983188 0.00329944 0.0121113)
(0.0192521 0.00632328 0.00699854)
(0.019962 0.00502946 0.00733094)
(0.0189763 0.00458651 0.00770924)
(0.0197432 0.00447654 0.00744987)
(0.019796 0.00436699 0.00823024)
(0.0188691 0.00446357 0.00843597)
(0.014434 0.00472938 0.0121008)
(0.0125874 0.00401789 0.0114494)
(0.0085301 0.00191583 0.0040216)
(0.00913829 0.00178805 0.00416786)
(0.00951842 0.00309742 0.0036566)
(0.0103679 0.00363906 0.00450575)
(0.0112496 0.00519935 0.00598339)
(0.0105973 0.0049634 0.00456966)
(0.00872432 0.00312275 0.00414501)
(0.00979535 0.00445707 0.00429475)
(0.017769 0.00751741 0.00488974)
(0.0136503 0.00348424 0.0144375)
(0.0153992 0.0019079 0.0157657)
(0.013754 0.00322958 0.0140723)
(0.0131123 0.00427528 0.0136869)
(0.00856397 -0.00100534 0.00694937)
(0.00821363 -0.000943431 0.00692636)
(0.0171432 0.00204317 0.0116725)
(0.0177888 0.00275589 0.0125411)
(0.0143135 0.00559709 0.0130616)
(0.0134422 0.00429114 0.0120366)
(0.0148851 0.0035623 0.0130555)
(0.0139053 0.0042639 0.0126764)
(0.0128897 0.000253291 0.0113142)
(0.0125093 0.00027965 0.0112781)
(0.00487806 -0.00586666 0.0110224)
(0.00562932 -0.00557152 0.0110915)
(0.0121321 0.00575913 0.0136578)
(0.0106458 0.00526597 0.0137607)
(0.0116923 0.00274153 0.0113895)
(0.0136185 0.00288379 0.0125784)
(0.00860047 -0.00992997 0.00309989)
(0.00995082 -0.00882283 0.0029938)
(-0.00453393 -0.00741791 0.00487703)
(-0.00545708 -0.00805943 0.00542832)
(-0.00462891 -0.00734067 0.0050766)
(-0.00481009 -0.00719653 0.00435638)
(-0.0151577 -0.0139756 0.0105805)
(-0.0151838 -0.0149937 0.0109974)
(-0.0039219 -0.00638484 0.00358038)
(-0.00438943 -0.00730764 0.00452157)
(-0.00209654 -0.00513503 0.00941595)
(-0.00228134 -0.00456197 0.0121213)
(0.00399134 -0.00184887 0.0135214)
(0.0152251 0.00816184 0.0182037)
(0.0175791 0.00481268 0.017248)
(0.00116883 -0.0210099 -0.0109589)
(0.00184826 -0.0230534 -0.0099792)
(0.00277109 -0.0226685 0.000556796)
(0.00488632 -0.021473 0.00154538)
(0.00208966 -0.0209993 0.00519497)
(0.00363776 -0.025522 0.0053242)
(0.0147123 -0.0196453 0.00700978)
(0.0125555 -0.0196458 0.00875364)
(0.0154575 -0.0222757 0.0042381)
(0.01563 -0.022656 0.00512885)
(0.00585629 -0.0115482 0.00473132)
(0.00584504 -0.0119988 0.00506873)
(-0.00170634 -0.00593074 -0.00547261)
(-0.00170562 -0.00565961 -0.00574878)
(-0.00218322 -0.00784329 -0.00539784)
(-0.00208062 -0.00761245 -0.00524565)
(-0.00301652 -0.00812168 -0.00490916)
(-0.00293947 -0.00898196 -0.00572186)
(-0.00504199 -0.0107712 -0.0064677)
(-0.00569105 -0.0118471 -0.00701914)
(-0.00156858 -0.0074085 -0.00528667)
(-0.00134125 -0.00514533 -0.00475443)
(0.0061856 -0.00568122 0.00562368)
(0.00679863 -0.0051373 0.00497121)
(0.00559553 -0.0111636 0.00464134)
(0.00595703 -0.0120889 0.00495991)
(-0.00127893 -0.00250269 0.00485295)
(-0.00182459 -0.00221313 0.00508232)
(-0.00343405 -0.00691039 0.0061334)
(-0.00323002 -0.00495602 0.00592532)
(-0.0132798 -0.00595059 0.0116444)
(-0.0114585 -0.00441548 0.0132382)
(0.00687204 0.00686527 0.00968538)
(0.00724691 0.00733038 0.00941935)
(0.0159211 -0.0203198 0.00882225)
(0.0169504 -0.0205255 0.00661437)
(0.00172782 -0.0213746 -0.00546251)
(0.00143027 -0.0220924 -0.00469785)
(0.00118034 -0.0231866 0.00295835)
(0.00178014 -0.0238692 0.00256559)
(0.00834287 -0.0265104 -0.00366856)
(0.00937562 -0.0255298 -0.0045408)
(0.00573176 -0.0223582 -0.000663252)
(0.00724929 -0.0237031 -0.00240933)
(0.0129694 -0.023625 -0.00372024)
(0.0131183 -0.024074 -0.00331555)
(0.000183427 -0.0271374 -0.00325647)
(0.00134921 -0.026123 -0.00433261)
(0.00297373 -0.0175019 -0.0101909)
(0.00253766 -0.0168524 -0.0103115)
(-0.000398383 -0.00778121 0.0072584)
(-0.000214864 -0.00922283 0.00817677)
(-0.000315243 -0.0066879 0.0108976)
(-0.00138953 -0.00547171 0.0116474)
(-0.00129924 -0.00671104 0.00832243)
(-0.000933345 -0.00620597 0.00803714)
(-0.0160595 0.0251557 0.0109425)
(-0.0176279 0.0239761 0.013949)
(-0.0161839 0.0176514 -0.00113575)
(-0.0160256 0.0153407 -0.000676269)
(-0.00550643 -0.00833098 0.00579823)
(-0.00559298 -0.00835433 0.00527572)
(-0.00863811 -0.00908483 0.00273624)
(-0.00765238 -0.00797235 0.00171605)
(-0.00862638 -0.007003 -0.000232748)
(-0.00879586 -0.00679768 -0.00143575)
(-0.00899685 -0.00701958 0.000677665)
(-0.00904228 -0.00814101 0.00148352)
(-0.00782855 -0.00716529 -0.001881)
(-0.00785458 -0.00729878 -0.00054892)
(-0.0207612 -0.019403 0.00425799)
(-0.0189293 -0.0207828 0.00329165)
(-0.0179775 -0.0127017 0.0181951)
(-0.0169221 -0.0123819 0.0203257)
(-0.0132041 -0.00818138 0.00548275)
(-0.0141296 -0.00732294 0.00398557)
(-0.0175771 -0.00773881 0.00921313)
(-0.017086 -0.00672271 0.00624053)
(-0.0170216 -0.0120761 0.0210956)
(-0.0184988 -0.0109909 0.017983)
(-0.0160109 -0.0085902 0.0161636)
(-0.0163047 -0.011396 0.0198507)
(-0.0145852 -0.0099207 0.0153136)
(-0.0148035 -0.012122 0.0179699)
(-0.01343 -0.00620671 0.0107602)
(-0.015018 -0.00825862 0.0134435)
(-0.00742563 -0.01173 0.00406029)
(-0.00730958 -0.0110354 0.00365812)
(-0.00736038 -0.011539 0.00405618)
(-0.00740806 -0.0112278 0.00365838)
(-0.00912893 -0.0135917 0.00447528)
(-0.00913971 -0.0134902 0.00408872)
(0.00555091 -0.0179551 -0.0177338)
(0.00480074 -0.0143015 -0.0131708)
(0.0129002 -0.0166641 -0.0174455)
(0.0140922 -0.0191211 -0.0210606)
(-0.000874465 -0.00584758 -0.00577532)
(0.000204039 -0.00725739 -0.00609754)
(0.000855511 -0.00105829 0.0120274)
(0.00278853 -0.00110167 0.00890529)
(-0.0125234 -0.0027695 0.017329)
(-0.0134099 -0.0032607 0.0170035)
(0.00531463 -0.0112403 0.00469696)
(0.00535099 -0.010521 0.00458086)
(0.00580165 -0.0107247 0.00433188)
(0.00537008 -0.0109101 0.00438863)
(0.00574101 -0.0115027 0.00466915)
(0.00550448 -0.0105689 0.00421828)
(0.00496949 -0.0105277 0.00471858)
(0.00527298 -0.0105159 0.00436667)
(0.005232 -0.0105677 0.00434465)
(0.0049568 -0.0101273 0.00433126)
(0.00504018 -0.0102154 0.00429031)
(0.00742619 -0.00440633 0.00327654)
(0.00722657 -0.00380001 0.00370493)
(0.0038132 -0.00579621 0.0104547)
(0.00372811 -0.00611671 0.010297)
(0.00384344 -0.0077053 0.00860021)
(0.00437938 -0.00797772 0.0115491)
(0.00396154 -0.00869253 0.0111158)
(0.00417482 -0.00906288 0.00845783)
(0.00485634 -0.00912686 0.0109085)
(0.00781526 -0.013471 0.0142961)
(0.00701126 -0.0147332 0.0116539)
(0.012132 -0.00747913 0.000683943)
(0.0119581 -0.00830572 0.00140518)
(0.00831814 -0.0109018 0.00406874)
(0.0085046 -0.0112045 0.00314618)
(0.0112453 -0.0127951 0.0015845)
(0.01139 -0.0104351 0.00211255)
(0.00224251 -0.00486614 0.00961289)
(0.00172697 -0.00583481 0.00854227)
(0.0056683 -0.00303691 0.00531026)
(0.00581932 -0.00221455 0.00493106)
(0.0142793 0.00605504 0.013929)
(0.0136629 0.00637936 0.0145434)
(0.00203838 -0.00477976 0.0119943)
(0.00282156 -0.00526217 0.012441)
(0.00137031 -0.0056472 0.00985451)
(0.00168327 -0.0039698 0.010819)
(0.00313333 -0.00567631 0.0106062)
(0.00232484 -0.00569219 0.0107294)
(0.00694725 -8.30093e-05 0.0082348)
(0.00772149 0.00185712 0.0139609)
(0.007928 0.00142188 0.011356)
(0.00643311 -0.000489708 0.00655792)
(0.00682286 0.000324716 0.00776049)
(0.00515795 -0.00143998 0.0122438)
(0.00659393 -0.0011995 0.012755)
(0.00975007 -0.00207474 0.0127423)
(0.0101031 -0.00243209 0.012235)
(0.0123884 0.0010711 0.01015)
(0.0137818 0.0009806 0.0115389)
(0.0115753 0.00153509 0.00946349)
(0.0119707 0.00246655 0.00848238)
(0.0189336 0.00170011 0.0148507)
(0.0189489 0.00189533 0.0160985)
(0.0184988 0.000990892 0.0164306)
(0.0195089 -0.000680156 0.0167536)
(0.0187307 0.00152818 0.0162484)
(0.0186054 0.000427004 0.0158213)
(0.0172483 0.000690345 0.0165336)
(0.0180782 -0.00090728 0.0156324)
(0.0144716 0.00362211 0.0125861)
(0.0141142 0.00453344 0.0129761)
(0.0149472 0.00305462 0.0155309)
(0.0156531 0.00115647 0.0154402)
(0.0187338 0.00652922 0.00439828)
(0.0190939 0.00735503 0.00515892)
(0.0195837 0.00573702 0.00449737)
(0.010023 0.00445702 0.00570792)
(0.0112053 0.00594085 0.00690198)
(0.0191783 0.00787401 0.0108814)
(0.01953 0.00722392 0.0119246)
(0.0206407 0.00627907 0.0125478)
(0.0197239 0.0059057 0.0112666)
(0.00788862 0.000277266 0.00774648)
(0.00793135 0.000218695 0.00703325)
(0.00764141 -0.000109434 0.00693566)
(0.0174276 0.00363121 0.0113796)
(0.0158836 0.00396488 0.0113102)
(0.0109691 0.0052995 0.00563772)
(0.0119986 0.00716525 0.00457111)
(0.010659 0.00535683 0.00323737)
(0.0171623 0.000351254 0.0114414)
(0.0177274 0.000465242 0.0120794)
(0.00863885 0.00076355 0.00562924)
(0.00822613 0.000972937 0.00511626)
(0.00813609 0.000405719 0.00592621)
(0.00870801 0.000309912 0.00747255)
(0.0127917 0.00389027 0.0125104)
(0.0137405 0.00495886 0.0133171)
(0.0107095 0.00266798 0.0118369)
(0.00992775 0.00270325 0.0121736)
(0.0106581 0.00511836 0.0117047)
(0.0134629 0.00572167 0.0125742)
(0.0108686 0.00489251 0.0129095)
(0.0109642 0.00528944 0.0124087)
(0.0117564 0.00380651 0.0140241)
(0.0112332 0.00484457 0.012757)
(0.0128014 0.00519917 0.0117633)
(0.0138392 0.00615137 0.0108893)
(0.00679953 -0.000193132 0.00834124)
(0.00677095 -0.000245988 0.0080377)
(0.00755677 0.000545039 0.00891676)
(0.00812992 0.000623333 0.00929253)
(0.00681285 0.00118304 0.00826053)
(0.00642661 0.000620208 0.00768312)
(0.0167081 0.0045555 0.0103445)
(0.0172923 0.00535649 0.0100796)
(0.0192412 0.00236687 0.0109628)
(0.0198483 0.00295411 0.0112619)
(0.0178095 0.00522192 0.010321)
(0.0185833 0.00712461 0.0113583)
(0.00669766 0.00394526 0.0048457)
(0.0154327 0.00433454 0.00785795)
(0.0156447 0.00466189 0.00743685)
(0.0108275 0.00184219 0.00295043)
(0.0101929 0.00152947 0.00317703)
(0.00991654 0.00249619 0.00404574)
(0.0110308 0.00263219 0.00373998)
(0.0122632 0.0054318 0.00381664)
(0.0135901 0.00717593 0.00390864)
(0.0132078 0.00469247 0.0035492)
(0.0131558 0.00455435 0.00380191)
(0.0171545 0.00631492 0.0148465)
(0.0209084 0.00727216 0.0150798)
(0.0167105 0.00552113 0.00450573)
(0.0187396 0.00579744 0.00507165)
(0.0182533 -0.0181852 -0.0243355)
(0.0202419 -0.0153265 -0.0241391)
(0.0120314 -0.0210844 -0.000279746)
(0.00996804 -0.0210229 0.000102653)
(-0.0088615 -0.0229489 0.0150416)
(-0.00849984 -0.0201315 0.0173975)
(-0.00928701 -0.0120674 0.00488926)
(-0.00873612 -0.0122411 0.00439074)
(-0.00885513 -0.0128247 0.00429623)
(-0.00838751 -0.0131583 0.00493315)
(-0.00933341 -0.0128052 0.00480806)
(-0.00930877 -0.0129406 0.00500705)
(-0.00730557 -0.0107244 0.0031107)
(-0.00713567 -0.01066 0.00357449)
(-0.00718033 -0.00971819 0.0028467)
(-0.00739958 -0.0108647 0.00333017)
(-0.00815805 -0.0108687 0.00369383)
(-0.0067261 -0.00993921 0.0032823)
(-0.00739157 -0.0103431 0.00266946)
(-0.0101642 -0.0144478 0.00458447)
(-0.00901752 -0.011291 0.00408456)
(-0.00972493 -0.0136331 0.00462495)
(-0.00938264 -0.0138487 0.00427965)
(-0.00810963 -0.0108006 0.0034853)
(-0.0077919 -0.0106166 0.00329622)
(-0.00615476 -0.0103212 0.00325551)
(-0.00596236 -0.00953548 0.00307887)
(-0.00712314 -0.00984341 0.00305664)
(-0.00697727 -0.010026 0.00298841)
(-0.00616112 -0.00891831 0.00273732)
(-0.00629589 -0.00898912 0.00274558)
(-0.00680461 -0.00998931 0.00318515)
(-0.00611037 -0.00966398 0.00317119)
(-0.00760993 -0.0119214 0.00316231)
(-0.00703003 -0.0116713 0.00306731)
(-0.00724174 -0.0107321 0.00293063)
(-0.00694271 -0.0107925 0.00262238)
(-0.00791702 -0.0111626 0.00331132)
(-0.00745454 -0.0110793 0.00340617)
(-0.00797044 -0.0115206 0.0034574)
(-0.00720425 -0.0103185 0.00322227)
(-0.00744203 -0.0121953 0.00342142)
(-0.00657296 -0.00990741 0.00310703)
(-0.00676212 -0.0105632 0.00340269)
(-0.00876818 -0.0124766 0.0036312)
(-0.00879877 -0.0129773 0.0041437)
(-0.00841799 -0.0120865 0.00336667)
(-0.00845911 -0.0120502 0.00348417)
(-0.00742353 -0.0112002 0.00379662)
(-0.00746572 -0.011985 0.00415331)
(-0.0080185 -0.0118732 0.00380998)
(-0.00867017 -0.0127445 0.00402102)
(-0.00715753 -0.0110807 0.00379419)
(-0.00744103 -0.0110395 0.00337081)
(-0.00748587 -0.0114246 0.00364464)
(-0.00760237 -0.0116131 0.00365846)
(-0.00733178 -0.0109522 0.00337991)
(-0.00699559 -0.0112989 0.00413889)
(-0.00809093 -0.0119101 0.00351927)
(-0.00801176 -0.010421 0.00316624)
(-0.00788608 -0.0110694 0.00416795)
(-0.00804327 -0.01149 0.00399416)
(-0.00776938 -0.0116561 0.00373147)
(-0.00797898 -0.0112232 0.0041777)
(-0.00848994 -0.0119382 0.00426611)
(-0.00808507 -0.0115053 0.00436294)
(-0.00802315 -0.0113197 0.00352103)
(-0.00798471 -0.0113111 0.00346039)
(-0.00825761 -0.0129031 0.00441791)
(-0.00787929 -0.0122757 0.00400432)
(-0.00788504 -0.0117598 0.00405666)
(-0.00796922 -0.011459 0.003658)
(-0.00731063 -0.0111205 0.0035011)
(-0.00726829 -0.0105837 0.00332932)
(-0.00803033 -0.0113561 0.00400909)
(-0.00853715 -0.0120259 0.0041984)
(-0.0102545 -0.0150683 0.00479528)
(-0.00989371 -0.0141976 0.00437186)
(-0.00908163 -0.0129444 0.00390073)
(-0.00973022 -0.0129604 0.00343681)
(-0.00834413 -0.0126287 0.00402946)
(-0.00886599 -0.0128257 0.00410358)
(-0.00883981 -0.0130208 0.00403981)
(-0.0096915 -0.0135076 0.00389388)
(-0.00472355 -0.0168225 0.00154003)
(-0.00403098 -0.0155125 0.00158665)
(-0.00707304 -0.0120337 -0.00148992)
(-0.0172759 -0.014571 0.017981)
(-0.0154739 -0.0174074 0.0196831)
(-0.0130842 -0.0203991 0.00860957)
(-0.00956985 -0.01914 0.00852991)
(-0.0108407 -0.0214193 -0.00835548)
(-0.010193 -0.0210933 -0.0103086)
(-0.0141185 -0.0213839 -0.00721051)
(-0.0147862 -0.0210185 -0.00590318)
(-0.0119097 -0.0212123 -0.00892837)
(-0.0131966 -0.0225018 -0.00903771)
(-0.00493629 -0.0170969 -0.0123553)
(-0.0050804 -0.0188285 -0.0139329)
(-0.00715545 -0.0201346 -0.0132247)
(-0.00763606 -0.0192232 -0.0120284)
(-0.00650114 -0.0174291 -0.011356)
(-0.00750352 -0.0179038 -0.0119193)
(-0.00825671 -0.0168951 -0.0137692)
(-0.0074584 -0.0157684 -0.0133624)
(-0.014986 -0.0231158 0.013539)
(-0.01398 -0.0241619 0.0146712)
(-0.0126162 -0.0239151 0.0131733)
(-0.0130335 -0.0241736 0.0104709)
(-0.0176462 -0.0232477 0.00721491)
(-0.0192642 -0.0223423 0.00741572)
(-0.0177629 -0.0218134 0.0115111)
(-0.0181169 -0.0237805 0.013465)
(-0.014573 -0.0213035 0.0114135)
(-0.0157904 -0.0221628 0.0109034)
(-0.0145478 -0.0195447 0.0139992)
(-0.0140928 -0.0182931 0.0145787)
(-0.0105517 -0.014392 0.00392378)
(-0.00913898 -0.0135005 0.00385955)
(-0.0105304 -0.0151608 0.00464294)
(-0.0125762 -0.0161741 0.00444593)
(-0.0077789 -0.0123108 0.00328387)
(-0.00832993 -0.0127818 0.00338719)
(-0.0170056 -0.0198843 0.00899517)
(-0.0169938 -0.0195455 0.00894056)
(-0.0177156 -0.0223849 0.0117506)
(-0.0163346 -0.0205943 0.0100548)
(-0.0142993 -0.0191869 0.0129881)
(-0.0090987 -0.0135583 0.00444197)
(-0.0091021 -0.0136302 0.00475073)
(-0.00985115 -0.0140553 0.00527172)
(-0.00983152 -0.0142596 0.00537295)
(-0.00629461 -0.0124468 0.00554004)
(-0.00654321 -0.0118095 0.00445435)
(-0.0142363 -0.0232915 0.0103878)
(-0.0140012 -0.0250787 0.0130101)
(-0.0150708 -0.0235485 0.0122263)
(-0.0162286 -0.023664 0.0111384)
(-0.00196293 -0.00756562 -0.00510626)
(-0.00157234 -0.00668583 -0.00552631)
(-0.00530659 -0.00941398 -0.00624122)
(-0.00465659 -0.00937722 -0.00561231)
(-0.00271508 -0.00754642 -0.00392867)
(-0.00281632 -0.00846619 -0.00376352)
(-0.00610017 -0.00973007 -0.00796209)
(-0.00589883 -0.0102019 -0.00903871)