/*--------------------------------*- C++ -*----------------------------------*\
| =========                 |                                                 |
| \\      /  F ield         | OpenFOAM: The Open Source CFD Toolbox           |
|  \\    /   O peration     | Version:  v1612+                                |
|   \\  /    A nd           | Web:      www.OpenFOAM.com                      |
|    \\/     M anipulation  |                                                 |
\*---------------------------------------------------------------------------*/
FoamFile
{
    version     2.0;
    format      ascii;
    class       volVectorField;
    location    "200";
    object      U;
}
// * * * * * * * * * * * * * * * * * * * * * * * * * * * * * * * * * * * * * //

dimensions      [0 1 -1 0 0 0 0];

internalField   nonuniform List<vector> 
16890
(
(0.266589 0.319548 0.0924306)
(0.439391 0.544082 0.160993)
(0.543006 0.571868 0.229962)
(0.316983 0.335272 0.126384)
(0.350898 0.368211 0.149901)
(0.325397 0.337165 0.133886)
(0.286724 0.302936 0.112422)
(0.316382 0.338504 0.122422)
(0.302813 0.320394 0.117325)
(0.333371 0.349366 0.128657)
(0.371131 0.388437 0.149345)
(0.273185 0.280408 0.103507)
(0.352652 0.374611 0.14394)
(0.267927 0.294171 0.0970751)
(0.253403 0.260463 0.0903548)
(0.411222 0.432811 0.165481)
(0.38186 0.405375 0.14225)
(0.28099 0.296684 0.110665)
(0.640013 0.770855 0.277958)
(0.632144 0.757267 0.267728)
(0.586788 0.685529 0.218249)
(0.610069 0.709605 0.238552)
(0.628292 0.73615 0.25026)
(0.606625 0.698936 0.217224)
(0.543859 0.62296 0.190862)
(0.537372 0.608229 0.179456)
(0.514285 0.585648 0.174268)
(0.532299 0.60554 0.177379)
(0.639315 0.762661 0.27593)
(0.585946 0.670458 0.215608)
(0.54862 0.623305 0.188305)
(0.534757 0.5957 0.19466)
(0.64771 0.773675 0.278061)
(0.630186 0.753949 0.274818)
(0.599076 0.709187 0.257393)
(0.585071 0.669046 0.239626)
(0.612358 0.720553 0.251945)
(0.631109 0.791293 0.187309)
(0.615645 0.81533 0.192607)
(0.595715 0.820482 0.188429)
(0.60096 0.828297 0.202404)
(0.602923 0.804942 0.187729)
(0.607308 0.77358 0.173318)
(0.63216 0.822344 0.194222)
(0.61428 0.844823 0.19827)
(0.600746 0.822265 0.194508)
(0.5768 0.784928 0.173312)
(0.627077 0.824529 0.199231)
(0.638434 0.780258 0.180723)
(0.618792 0.835758 0.203881)
(0.59095 0.790327 0.188953)
(0.629788 0.790198 0.187605)
(0.61411 0.777251 0.173357)
(0.434895 0.456282 0.15925)
(0.403276 0.418815 0.138947)
(0.429517 0.465311 0.150856)
(0.471447 0.496133 0.171403)
(0.543414 0.596688 0.193887)
(0.534138 0.558106 0.172677)
(0.478066 0.505248 0.135655)
(0.535995 0.578781 0.19379)
(0.554673 0.614928 0.19974)
(0.407391 0.43304 0.123644)
(0.589479 0.64242 0.225044)
(0.552481 0.610005 0.204459)
(0.456949 0.489497 0.156389)
(0.534356 0.583736 0.201537)
(0.562439 0.635276 0.205176)
(0.52388 0.552327 0.167648)
(0.511149 0.532246 0.137983)
(0.400696 0.432939 0.117011)
(0.418185 0.446053 0.134663)
(0.519755 0.571377 0.184735)
(0.451951 0.468171 0.116631)
(0.303519 0.364474 0.107931)
(0.327604 0.39074 0.109129)
(0.34203 0.413163 0.112247)
(0.23788 0.323404 0.0972699)
(0.257768 0.334473 0.103832)
(0.308903 0.394278 0.115657)
(0.276194 0.365557 0.11253)
(0.246719 0.315936 0.101712)
(0.215375 0.296932 0.0942604)
(0.233627 0.32093 0.0969646)
(0.227393 0.319675 0.102132)
(0.622939 0.73921 0.231809)
(0.630336 0.763893 0.268293)
(0.625645 0.770059 0.279145)
(0.632359 0.753717 0.260922)
(0.587371 0.666563 0.18624)
(0.643106 0.770469 0.221806)
(0.62502 0.815765 0.300357)
(0.633131 0.757745 0.218698)
(0.636581 0.76065 0.22114)
(0.648224 0.777368 0.233551)
(0.636057 0.756054 0.205337)
(0.638928 0.790377 0.246439)
(0.635223 0.783021 0.242833)
(0.632523 0.792139 0.255737)
(0.637059 0.799135 0.261829)
(0.633052 0.794338 0.247965)
(0.630608 0.769109 0.237517)
(0.665429 0.786388 0.263513)
(0.630628 0.729087 0.232237)
(0.604471 0.689055 0.212497)
(0.644193 0.780257 0.288084)
(0.648922 0.790979 0.292216)
(0.583456 0.669767 0.213546)
(0.648297 0.781752 0.284767)
(0.615693 0.70507 0.247355)
(0.637031 0.754685 0.273819)
(0.587503 0.673325 0.21967)
(0.606566 0.82239 0.178634)
(0.58054 0.811869 0.274945)
(0.60198 0.783525 0.263182)
(0.602485 0.799133 0.253002)
(0.634838 0.733166 0.179866)
(0.628966 0.753072 0.174902)
(0.63354 0.716199 0.172958)
(0.640238 0.734059 0.145832)
(0.635624 0.762173 0.21987)
(0.624451 0.771217 0.157647)
(0.579818 0.6972 0.186581)
(0.613956 0.7255 0.187156)
(0.576497 0.687369 0.180657)
(0.597279 0.705576 0.184844)
(0.556215 0.667819 0.176106)
(0.577355 0.690494 0.182008)
(0.567317 0.681088 0.175319)
(0.548831 0.666119 0.171697)
(0.597397 0.71239 0.185086)
(0.566377 0.685497 0.177704)
(0.581168 0.707649 0.184097)
(0.570214 0.697899 0.182273)
(0.62892 0.770122 0.199703)
(0.606503 0.74415 0.189784)
(0.60171 0.744109 0.19021)
(0.632453 0.779963 0.173104)
(0.627972 0.730517 0.169378)
(0.624236 0.738855 0.170879)
(0.639666 0.717769 0.167783)
(0.632224 0.703087 0.15125)
(0.628704 0.73307 0.174971)
(0.630484 0.731358 0.171828)
(0.633941 0.775553 0.232817)
(0.633707 0.747166 0.210537)
(0.616072 0.805446 0.228773)
(0.630803 0.737719 0.199731)
(0.636997 0.829054 0.208292)
(0.625331 0.829397 0.208456)
(0.613766 0.824227 0.229779)
(0.604651 0.814468 0.235319)
(0.619004 0.819179 0.225526)
(0.605516 0.720708 0.275679)
(0.615153 0.741645 0.286596)
(0.608765 0.735889 0.289289)
(0.607392 0.755919 0.282145)
(0.620965 0.765911 0.298844)
(0.634907 0.788421 0.304146)
(0.629871 0.785022 0.304864)
(0.613165 0.76726 0.288999)
(0.62208 0.774484 0.30134)
(0.630921 0.819285 0.322643)
(0.626804 0.794592 0.308887)
(0.632835 0.834203 0.320904)
(0.63473 0.823408 0.309494)
(0.629569 0.83806 0.316515)
(0.630824 0.828976 0.309102)
(0.625169 0.793179 0.293016)
(0.621447 0.793213 0.29052)
(0.595285 0.807575 0.349346)
(0.595234 0.818742 0.352858)
(0.583166 0.820672 0.351234)
(0.583571 0.818864 0.355573)
(0.569918 0.805065 0.358449)
(0.579038 0.805028 0.36159)
(0.595631 0.817676 0.346088)
(0.599325 0.807146 0.340817)
(0.58029 0.819306 0.361007)
(0.583979 0.81027 0.364083)
(0.57037 0.81299 0.366802)
(0.571392 0.807756 0.359109)
(0.544555 0.602247 0.149227)
(0.552871 0.612594 0.143595)
(0.499434 0.541752 0.141287)
(0.530199 0.567433 0.155991)
(0.610937 0.684048 0.181926)
(0.587323 0.659051 0.177956)
(0.459118 0.501269 0.119682)
(0.543718 0.607127 0.144103)
(0.500332 0.552729 0.130985)
(0.60015 0.669302 0.192187)
(0.529949 0.586912 0.143011)
(0.551699 0.627486 0.156196)
(0.632292 0.714186 0.209432)
(0.614236 0.691935 0.202393)
(0.618962 0.707808 0.195254)
(0.605192 0.691905 0.18316)
(0.607757 0.677394 0.194353)
(0.571893 0.634598 0.192154)
(0.496811 0.534109 0.134998)
(0.523049 0.559793 0.150738)
(0.60729 0.682715 0.191151)
(0.564808 0.62856 0.158166)
(0.615934 0.814753 0.255349)
(0.595769 0.794449 0.269195)
(0.621138 0.819022 0.25849)
(0.590003 0.786384 0.268866)
(0.578459 0.776395 0.251072)
(0.529468 0.696993 0.201606)
(0.490334 0.656224 0.183242)
(0.614454 0.822138 0.240774)
(0.572185 0.762549 0.225147)
(0.518606 0.690955 0.21261)
(0.522871 0.69523 0.203691)
(0.476673 0.639152 0.197036)
(0.494784 0.660038 0.189139)
(0.510998 0.677822 0.208451)
(0.593035 0.791979 0.226878)
(0.579123 0.789833 0.251681)
(0.536436 0.736345 0.233863)
(0.573972 0.780184 0.254528)
(0.485274 0.655822 0.190484)
(0.592282 0.753338 0.31663)
(0.570398 0.721825 0.30096)
(0.575155 0.739783 0.297199)
(0.590684 0.764769 0.316547)
(0.567337 0.729476 0.298293)
(0.56472 0.692851 0.298123)
(0.548114 0.647835 0.27797)
(0.499707 0.594668 0.248684)
(0.48512 0.573055 0.240761)
(0.57174 0.736477 0.296517)
(0.582945 0.748964 0.30546)
(0.511514 0.613376 0.263503)
(0.503383 0.602251 0.254688)
(0.50772 0.625687 0.255938)
(0.490888 0.595846 0.240076)
(0.573367 0.701476 0.301239)
(0.532976 0.664454 0.272277)
(0.511189 0.637875 0.256612)
(0.532865 0.666905 0.26566)
(0.593369 0.785688 0.268752)
(0.584062 0.773189 0.281848)
(0.550636 0.720431 0.24573)
(0.523019 0.673494 0.222972)
(0.544489 0.702835 0.223645)
(0.532479 0.68033 0.211977)
(0.500843 0.633655 0.196665)
(0.520588 0.662136 0.2389)
(0.510129 0.657704 0.233431)
(0.494008 0.621604 0.228271)
(0.514693 0.651877 0.210246)
(0.534594 0.681306 0.20894)
(0.55391 0.713633 0.224077)
(0.497962 0.638416 0.214806)
(0.488872 0.618106 0.207148)
(0.587794 0.767812 0.258897)
(0.589233 0.773041 0.268998)
(0.593291 0.791644 0.263536)
(0.59945 0.786995 0.271846)
(0.548569 0.708376 0.233318)
(0.522706 0.63965 0.183964)
(0.522335 0.637971 0.174645)
(0.602715 0.804609 0.271028)
(0.600205 0.787488 0.264308)
(0.551106 0.69468 0.195764)
(0.55345 0.659909 0.187533)
(0.56115 0.669698 0.190545)
(0.596155 0.772717 0.255718)
(0.603675 0.790941 0.259519)
(0.598621 0.779313 0.251369)
(0.599838 0.759739 0.242419)
(0.60227 0.769358 0.253493)
(0.59156 0.745581 0.245484)
(0.559028 0.717411 0.208555)
(0.503795 0.623799 0.169827)
(0.540622 0.679119 0.196773)
(0.570877 0.742308 0.231473)
(0.556583 0.681951 0.202713)
(0.494291 0.552394 0.197229)
(0.526368 0.591598 0.212384)
(0.457902 0.504435 0.17207)
(0.386122 0.400894 0.143234)
(0.494954 0.561105 0.204933)
(0.539128 0.593939 0.209533)
(0.533048 0.60117 0.213901)
(0.440628 0.462877 0.137915)
(0.391664 0.422828 0.135444)
(0.486874 0.511981 0.154398)
(0.42766 0.457051 0.136053)
(0.504131 0.545558 0.183542)
(0.528489 0.562874 0.1774)
(0.408621 0.435817 0.147889)
(0.485395 0.519189 0.166479)
(0.452868 0.487359 0.155217)
(0.451633 0.479097 0.163831)
(0.441037 0.467876 0.150791)
(0.428077 0.449857 0.183274)
(0.396741 0.420649 0.174189)
(0.465097 0.498932 0.190664)
(0.408924 0.430632 0.173227)
(0.412896 0.438517 0.183753)
(0.536123 0.6001 0.232807)
(0.387805 0.397277 0.150779)
(0.443308 0.470095 0.171274)
(0.408066 0.429355 0.155987)
(0.518891 0.577213 0.230155)
(0.44612 0.483211 0.195617)
(0.389727 0.400213 0.154785)
(0.560344 0.764651 0.302841)
(0.565233 0.763807 0.306351)
(0.530117 0.715271 0.28531)
(0.588963 0.829524 0.288006)
(0.572882 0.798046 0.283543)
(0.562681 0.797115 0.275661)
(0.544593 0.75426 0.273055)
(0.570712 0.790363 0.297942)
(0.582219 0.795727 0.310976)
(0.551881 0.755867 0.296249)
(0.54888 0.754296 0.303686)
(0.562418 0.786 0.317327)
(0.583262 0.817288 0.332358)
(0.585764 0.82467 0.344138)
(0.585407 0.817071 0.287027)
(0.581468 0.814702 0.292335)
(0.589682 0.828205 0.327059)
(0.586622 0.826396 0.305591)
(0.568513 0.805304 0.312197)
(0.589261 0.774376 0.199583)
(0.581989 0.758263 0.206618)
(0.630126 0.819835 0.21433)
(0.609354 0.79579 0.206804)
(0.581882 0.771204 0.213557)
(0.598715 0.805137 0.228107)
(0.61438 0.80502 0.213145)
(0.611601 0.812115 0.236079)
(0.623558 0.81551 0.227224)
(0.637826 0.82169 0.225845)
(0.615116 0.815958 0.244835)
(0.637827 0.823036 0.236829)
(0.617785 0.826074 0.233222)
(0.637816 0.83753 0.25629)
(0.639461 0.838807 0.27721)
(0.647561 0.849017 0.272457)
(0.425249 0.448499 0.146106)
(0.415911 0.427973 0.140876)
(0.416958 0.427881 0.139859)
(0.44907 0.479668 0.177283)
(0.406104 0.433863 0.152037)
(0.391034 0.410992 0.128605)
(0.560907 0.617672 0.232398)
(0.551905 0.605357 0.228991)
(0.406989 0.43076 0.142594)
(0.417427 0.441715 0.130456)
(0.439132 0.463402 0.144087)
(0.541853 0.834504 0.328598)
(0.542076 0.841889 0.293111)
(0.53661 0.844986 0.268404)
(0.549909 0.825753 0.316253)
(0.537687 0.847377 0.305438)
(0.54559 0.848763 0.249016)
(0.574926 0.851119 0.237602)
(0.570731 0.851133 0.242786)
(0.535465 0.684466 0.170271)
(0.463638 0.606538 0.147052)
(0.548239 0.709845 0.172556)
(0.50978 0.657273 0.161145)
(0.547252 0.711543 0.167426)
(0.492515 0.643537 0.155829)
(0.462416 0.616274 0.147193)
(0.593009 0.769539 0.180553)
(0.503902 0.673194 0.169701)
(0.444613 0.600076 0.139716)
(0.591779 0.765029 0.178684)
(0.526368 0.700784 0.181628)
(0.52148 0.690033 0.169416)
(0.566492 0.763106 0.180238)
(0.494551 0.66089 0.169249)
(0.53148 0.714964 0.182405)
(0.567598 0.75934 0.180065)
(0.561722 0.761443 0.188829)
(0.290368 0.381948 0.102219)
(0.289021 0.358238 0.10536)
(0.39344 0.465281 0.125)
(0.367254 0.449209 0.122315)
(0.337558 0.40265 0.108101)
(0.325891 0.378291 0.104554)
(0.322565 0.388237 0.102722)
(0.373963 0.451579 0.121629)
(0.339587 0.432487 0.117377)
(0.384493 0.450136 0.115096)
(0.374854 0.443638 0.116857)
(0.376306 0.441104 0.115337)
(0.367786 0.431627 0.110788)
(0.504842 0.627325 0.239172)
(0.520058 0.644256 0.241603)
(0.589596 0.742539 0.274997)
(0.575423 0.717869 0.267949)
(0.596679 0.747941 0.292937)
(0.587961 0.741126 0.285618)
(0.494011 0.597902 0.230477)
(0.472234 0.570076 0.22026)
(0.46143 0.550927 0.213244)
(0.486186 0.559243 0.234326)
(0.457865 0.538148 0.220675)
(0.583525 0.716134 0.28086)
(0.590647 0.723395 0.288671)
(0.588299 0.727434 0.283866)
(0.488978 0.569506 0.234926)
(0.493238 0.571039 0.239397)
(0.519008 0.619322 0.250946)
(0.494196 0.586938 0.237856)
(0.57954 0.703476 0.275774)
(0.571434 0.684966 0.264862)
(0.575605 0.683013 0.27356)
(0.569014 0.690951 0.276823)
(0.612775 0.755239 0.242745)
(0.627852 0.797277 0.2485)
(0.629484 0.829348 0.245359)
(0.634753 0.765498 0.218006)
(0.635694 0.775389 0.239743)
(0.625965 0.798082 0.277115)
(0.612172 0.836684 0.284268)
(0.632041 0.757164 0.208121)
(0.643875 0.791807 0.222965)
(0.63639 0.754848 0.228987)
(0.626542 0.807734 0.254752)
(0.63017 0.751669 0.227376)
(0.632803 0.750522 0.207267)
(0.655913 0.782122 0.214526)
(0.654893 0.774283 0.229501)
(0.624916 0.735737 0.207429)
(0.658924 0.782242 0.249178)
(0.665649 0.793298 0.256587)
(0.657897 0.777351 0.236772)
(0.665981 0.816846 0.27959)
(0.643207 0.79186 0.218395)
(0.550847 0.689727 0.298138)
(0.551253 0.682936 0.287176)
(0.561576 0.707719 0.302438)
(0.563442 0.70616 0.306733)
(0.518247 0.659837 0.283747)
(0.497776 0.623779 0.268721)
(0.561088 0.757982 0.347412)
(0.555437 0.743805 0.325778)
(0.554902 0.739361 0.339656)
(0.560398 0.756612 0.343685)
(0.534738 0.695195 0.305351)
(0.539315 0.72357 0.316049)
(0.554983 0.766964 0.328984)
(0.508352 0.641438 0.270669)
(0.629415 0.741257 0.246948)
(0.627711 0.737181 0.247067)
(0.639959 0.756525 0.239068)
(0.649705 0.779664 0.233291)
(0.645703 0.770917 0.234614)
(0.646542 0.784876 0.247485)
(0.643633 0.777557 0.252905)
(0.609886 0.722488 0.263577)
(0.604479 0.737544 0.2692)
(0.608606 0.737539 0.279748)
(0.63309 0.754043 0.24936)
(0.642339 0.818381 0.277192)
(0.651672 0.817609 0.261375)
(0.629338 0.817232 0.313236)
(0.650516 0.833288 0.29159)
(0.625599 0.800525 0.307728)
(0.624013 0.802854 0.324861)
(0.623887 0.749696 0.266626)
(0.643773 0.822074 0.291507)
(0.618122 0.797684 0.311826)
(0.625402 0.798632 0.308982)
(0.624748 0.786653 0.229132)
(0.577311 0.726259 0.206382)
(0.570358 0.707752 0.211188)
(0.615973 0.759569 0.208142)
(0.499612 0.61029 0.234059)
(0.481638 0.59117 0.226351)
(0.514049 0.653614 0.235448)
(0.533374 0.683703 0.237216)
(0.501103 0.634948 0.226692)
(0.580265 0.72327 0.262095)
(0.526461 0.651465 0.250527)
(0.584021 0.748554 0.253513)
(0.590401 0.759519 0.251979)
(0.525535 0.67343 0.215218)
(0.518863 0.651213 0.207966)
(0.501093 0.621285 0.23352)
(0.592862 0.755733 0.270499)
(0.592655 0.762518 0.272364)
(0.572585 0.741973 0.264277)
(0.50608 0.645898 0.210931)
(0.597699 0.810831 0.276503)
(0.60391 0.822651 0.278677)
(0.590661 0.817777 0.258086)
(0.600823 0.801395 0.298053)
(0.631402 0.69024 0.161335)
(0.625999 0.762884 0.190795)
(0.629707 0.713452 0.177267)
(0.632369 0.705723 0.16672)
(0.603318 0.809097 0.248917)
(0.606836 0.794284 0.277671)
(0.620978 0.765536 0.180128)
(0.631929 0.687174 0.16602)
(0.63204 0.734512 0.216911)
(0.522795 0.633377 0.173745)
(0.494142 0.597521 0.162263)
(0.526867 0.63825 0.1696)
(0.447023 0.555512 0.144778)
(0.537269 0.667441 0.176434)
(0.55535 0.680692 0.185588)
(0.574245 0.693644 0.179726)
(0.586102 0.701074 0.186851)
(0.603508 0.732254 0.193465)
(0.610754 0.762993 0.196678)
(0.630409 0.775206 0.204072)
(0.625415 0.773329 0.198724)
(0.61255 0.767173 0.197213)
(0.579864 0.73132 0.182769)
(0.431092 0.459782 0.145235)
(0.413284 0.440891 0.137192)
(0.451711 0.48587 0.157968)
(0.422882 0.451728 0.143607)
(0.484343 0.529676 0.169055)
(0.49251 0.540762 0.16767)
(0.466103 0.509299 0.159372)
(0.45604 0.497385 0.150146)
(0.432041 0.457949 0.148631)
(0.425227 0.445591 0.145965)
(0.430607 0.449458 0.147994)
(0.526504 0.57794 0.200295)
(0.514864 0.572127 0.183747)
(0.477309 0.5096 0.179566)
(0.455436 0.487496 0.169526)
(0.522955 0.57201 0.185802)
(0.475992 0.504657 0.177583)
(0.579973 0.634028 0.225293)
(0.567335 0.628343 0.225254)
(0.533479 0.582716 0.210832)
(0.539007 0.582237 0.207942)
(0.474378 0.564538 0.17189)
(0.46209 0.562088 0.167588)
(0.440466 0.564628 0.174342)
(0.425303 0.551314 0.18256)
(0.495876 0.580493 0.168311)
(0.439755 0.564145 0.191445)
(0.525376 0.638129 0.207803)
(0.476098 0.602321 0.201038)
(0.548609 0.635459 0.182049)
(0.554524 0.644976 0.188027)
(0.507241 0.615435 0.200435)
(0.473601 0.594715 0.193212)
(0.491936 0.595899 0.172927)
(0.471824 0.592152 0.184028)
(0.430889 0.556544 0.181547)
(0.416085 0.542483 0.181332)
(0.477592 0.598488 0.208863)
(0.423515 0.538995 0.186427)
(0.53127 0.628923 0.180277)
(0.493382 0.605614 0.197681)
(0.462746 0.581579 0.249831)
(0.511179 0.64287 0.28252)
(0.517831 0.65993 0.296975)
(0.514359 0.643208 0.286272)
(0.471115 0.591773 0.261429)
(0.486318 0.613943 0.265763)
(0.458011 0.599889 0.25506)
(0.477585 0.607255 0.271288)
(0.515821 0.721957 0.347759)
(0.523085 0.713795 0.349766)
(0.480381 0.625808 0.27361)
(0.523258 0.707667 0.334792)
(0.514546 0.704355 0.320186)
(0.473626 0.619254 0.268762)
(0.52245 0.733393 0.337378)
(0.485587 0.639011 0.290981)
(0.487195 0.653251 0.291626)
(0.582921 0.74753 0.220404)
(0.532109 0.667265 0.193925)
(0.637191 0.807018 0.238657)
(0.602444 0.770498 0.235849)
(0.59092 0.762619 0.236168)
(0.574132 0.736567 0.227921)
(0.61389 0.7926 0.265702)
(0.625961 0.804657 0.266151)
(0.613616 0.803636 0.264136)
(0.626401 0.80445 0.253354)
(0.553787 0.694222 0.211539)
(0.600882 0.770792 0.264376)
(0.564617 0.714929 0.216828)
(0.54075 0.674531 0.19795)
(0.596026 0.759582 0.255485)
(0.602127 0.771503 0.258697)
(0.601432 0.775976 0.261991)
(0.536526 0.692862 0.224923)
(0.534455 0.682787 0.206008)
(0.590354 0.756112 0.256205)
(0.527889 0.649792 0.173511)
(0.531832 0.659196 0.171776)
(0.60267 0.725351 0.185509)
(0.579032 0.704327 0.17802)
(0.524136 0.641547 0.17767)
(0.543041 0.650769 0.181672)
(0.579008 0.687619 0.184848)
(0.615595 0.740209 0.189381)
(0.480939 0.581705 0.157184)
(0.509435 0.618952 0.173875)
(0.516531 0.622902 0.173239)
(0.615625 0.735498 0.180463)
(0.506371 0.62706 0.174723)
(0.58404 0.696524 0.188616)
(0.5121 0.619811 0.174948)
(0.569457 0.68705 0.179125)
(0.557066 0.671988 0.181395)
(0.413762 0.510693 0.187558)
(0.382029 0.46207 0.170387)
(0.422173 0.516129 0.194109)
(0.421062 0.496385 0.182871)
(0.404202 0.476193 0.177983)
(0.444772 0.542495 0.196011)
(0.428541 0.517847 0.192415)
(0.497956 0.626577 0.246967)
(0.52899 0.654147 0.266692)
(0.535088 0.663758 0.267786)
(0.498704 0.612476 0.244985)
(0.498869 0.585359 0.227852)
(0.503517 0.588374 0.234214)
(0.464913 0.546594 0.217662)
(0.479423 0.576778 0.228633)
(0.553715 0.602622 0.22229)
(0.566687 0.615884 0.213924)
(0.54178 0.599425 0.227884)
(0.421373 0.461839 0.167244)
(0.393559 0.427433 0.144714)
(0.526396 0.577341 0.216133)
(0.544181 0.590488 0.200758)
(0.434109 0.468935 0.146739)
(0.403636 0.439316 0.144598)
(0.426073 0.462836 0.160493)
(0.401983 0.437996 0.156185)
(0.457323 0.499097 0.182147)
(0.496245 0.5531 0.209331)
(0.413227 0.455212 0.158511)
(0.428926 0.464927 0.169076)
(0.413091 0.454138 0.159683)
(0.466818 0.505831 0.165329)
(0.528014 0.617014 0.24086)
(0.531641 0.615295 0.236189)
(0.569608 0.688075 0.261683)
(0.565629 0.678131 0.257912)
(0.576092 0.707516 0.263534)
(0.536168 0.631952 0.244945)
(0.526754 0.616987 0.24171)
(0.5608 0.668976 0.259553)
(0.591147 0.731926 0.267572)
(0.5199 0.602238 0.240093)
(0.510983 0.573554 0.234609)
(0.595466 0.69884 0.263056)
(0.596109 0.702008 0.268329)
(0.550943 0.63971 0.25166)
(0.533924 0.605414 0.243789)
(0.567761 0.762144 0.320428)
(0.583104 0.799244 0.332856)
(0.561841 0.745599 0.319022)
(0.554054 0.732595 0.312499)
(0.529749 0.698924 0.266829)
(0.531835 0.692466 0.27356)
(0.595308 0.83357 0.300262)
(0.593749 0.821147 0.329197)
(0.571445 0.793925 0.286909)
(0.578131 0.823949 0.290874)
(0.596658 0.828245 0.328628)
(0.586923 0.816621 0.329544)
(0.546122 0.729194 0.287246)
(0.518436 0.693817 0.261491)
(0.525624 0.686217 0.272763)
(0.57434 0.791501 0.284417)
(0.575903 0.788056 0.291512)
(0.589095 0.817753 0.308045)
(0.523195 0.562518 0.219244)
(0.51851 0.553474 0.210799)
(0.385142 0.409941 0.154199)
(0.434054 0.465348 0.185184)
(0.386561 0.412131 0.16396)
(0.355419 0.374176 0.138313)
(0.474693 0.507005 0.189058)
(0.484981 0.521178 0.188409)
(0.37529 0.378032 0.1464)
(0.35893 0.352918 0.137001)
(0.439613 0.468548 0.186456)
(0.425592 0.446795 0.167733)
(0.392068 0.409811 0.157067)
(0.419297 0.443656 0.164697)
(0.3927 0.414602 0.164353)
(0.379825 0.389857 0.152499)
(0.592215 0.700031 0.247746)
(0.597269 0.679648 0.23838)
(0.57715 0.658762 0.234251)
(0.561182 0.633118 0.200762)
(0.510236 0.599736 0.160233)
(0.532525 0.621373 0.171322)
(0.499096 0.59262 0.167691)
(0.485165 0.588462 0.165227)
(0.555524 0.656686 0.175999)
(0.550068 0.650083 0.176123)
(0.507378 0.597219 0.158554)
(0.524002 0.610437 0.159046)
(0.497437 0.591624 0.154542)
(0.511874 0.609204 0.161389)
(0.416609 0.506323 0.145621)
(0.425382 0.516717 0.145193)
(0.441823 0.523905 0.140506)
(0.402068 0.482183 0.137064)
(0.459921 0.557346 0.149051)
(0.448331 0.542452 0.152198)
(0.524502 0.614029 0.165497)
(0.450879 0.545485 0.153449)
(0.434419 0.521769 0.147605)
(0.440992 0.532566 0.150894)
(0.500299 0.646219 0.243656)
(0.48654 0.651004 0.228067)
(0.512683 0.673221 0.244244)
(0.422924 0.545217 0.189788)
(0.441165 0.552103 0.198312)
(0.411615 0.527368 0.183102)
(0.426363 0.557727 0.194094)
(0.489664 0.632063 0.230564)
(0.4017 0.497148 0.175811)
(0.410048 0.516771 0.185589)
(0.41418 0.540535 0.189452)
(0.375176 0.477681 0.163519)
(0.403567 0.518133 0.186287)
(0.405712 0.520375 0.186021)
(0.370789 0.481715 0.165244)
(0.379147 0.47858 0.142409)
(0.383888 0.499331 0.150237)
(0.52831 0.591588 0.147723)
(0.407298 0.509957 0.136911)
(0.464482 0.566908 0.150941)
(0.442463 0.533888 0.131954)
(0.416456 0.527991 0.16152)
(0.434588 0.527536 0.137154)
(0.480789 0.570411 0.152411)
(0.477389 0.57621 0.165007)
(0.536093 0.710792 0.2408)
(0.503596 0.668117 0.226308)
(0.575598 0.765716 0.273662)
(0.564913 0.753409 0.280155)
(0.511286 0.664958 0.242079)
(0.532545 0.708717 0.254679)
(0.519204 0.694516 0.238735)
(0.529624 0.697328 0.249223)
(0.546265 0.799071 0.379386)
(0.552259 0.814445 0.356443)
(0.52503 0.715742 0.337369)
(0.516072 0.696986 0.319816)
(0.542764 0.783458 0.351227)
(0.536821 0.762476 0.402149)
(0.540009 0.783523 0.375577)
(0.530304 0.767401 0.346191)
(0.532875 0.755809 0.336102)
(0.515782 0.722428 0.346325)
(0.515352 0.718979 0.328569)
(0.534092 0.737722 0.360376)
(0.532601 0.74213 0.368693)
(0.545642 0.767754 0.233581)
(0.559348 0.795099 0.247391)
(0.531016 0.73358 0.23441)
(0.513228 0.696833 0.223667)
(0.57927 0.817671 0.275845)
(0.543727 0.769545 0.238786)
(0.539774 0.745457 0.254711)
(0.539663 0.760067 0.245745)
(0.545928 0.779217 0.252372)
(0.542651 0.760165 0.256432)
(0.518683 0.718985 0.230954)
(0.538407 0.742018 0.248232)
(0.522726 0.718946 0.231577)
(0.530821 0.738721 0.252867)
(0.554974 0.730883 0.336758)
(0.540874 0.70396 0.342008)
(0.554772 0.756222 0.370958)
(0.550221 0.756311 0.38163)
(0.539642 0.727141 0.361179)
(0.559152 0.745998 0.343888)
(0.548727 0.772207 0.411803)
(0.550429 0.777676 0.401442)
(0.562868 0.775962 0.386276)
(0.58483 0.785363 0.282099)
(0.58076 0.797899 0.296392)
(0.53405 0.672087 0.205557)
(0.547781 0.690438 0.212972)
(0.583614 0.778049 0.280874)
(0.57454 0.747335 0.260671)
(0.576613 0.776141 0.279786)
(0.562775 0.747239 0.251106)
(0.584483 0.796016 0.290883)
(0.579673 0.783675 0.279343)
(0.548377 0.724602 0.24029)
(0.553292 0.730995 0.22981)
(0.577829 0.767179 0.263975)
(0.574584 0.752697 0.263433)
(0.552938 0.710841 0.232366)
(0.576474 0.792683 0.297319)
(0.547105 0.723225 0.240634)
(0.5214 0.680349 0.216366)
(0.505145 0.645927 0.206871)
(0.541129 0.685282 0.210316)
(0.518653 0.676705 0.215693)
(0.520713 0.659084 0.212742)
(0.614899 0.783702 0.291045)
(0.619841 0.785066 0.275463)
(0.604712 0.782253 0.338282)
(0.611658 0.776783 0.320833)
(0.506629 0.659947 0.242978)
(0.52005 0.666642 0.235975)
(0.402181 0.578241 0.18222)
(0.410966 0.607136 0.19178)
(0.414683 0.601132 0.198608)
(0.451687 0.661648 0.224243)
(0.352794 0.455562 0.190977)
(0.383502 0.474338 0.201395)
(0.375539 0.475643 0.20939)
(0.236603 0.301543 0.0904639)
(0.232479 0.295579 0.0925143)
(0.220675 0.287333 0.0901647)
(0.507694 0.63322 0.245107)
(0.476387 0.570906 0.238652)
(0.480597 0.593474 0.236449)
(0.492179 0.609562 0.256218)
(0.496579 0.604779 0.257294)
(0.514026 0.665486 0.153827)
(0.553126 0.690234 0.164825)
(0.541888 0.693446 0.158933)
(0.516235 0.680096 0.153157)
(0.426664 0.548598 0.188604)
(0.487551 0.59887 0.201899)
(0.448531 0.575563 0.192969)
(0.363199 0.451074 0.178936)
(0.364906 0.445113 0.180414)
(0.407648 0.566608 0.197401)
(0.403395 0.560469 0.195794)
(0.502881 0.64732 0.201566)
(0.505153 0.6422 0.193579)
(0.482926 0.601695 0.173586)
(0.35465 0.475812 0.155998)
(0.381855 0.497739 0.162559)
(0.38544 0.50301 0.160334)
(0.518475 0.622776 0.18874)
(0.512858 0.620814 0.178891)
(0.340062 0.349852 0.138529)
(0.2997 0.304765 0.121587)
(0.286797 0.296061 0.114406)
(0.41176 0.579603 0.170547)
(0.410654 0.565237 0.159922)
(0.432063 0.607511 0.170517)
(0.502206 0.654447 0.152516)
(0.470226 0.615574 0.143439)
(0.4744 0.640171 0.150622)
(0.487935 0.595546 0.231648)
(0.489835 0.590715 0.234476)
(0.374599 0.505446 0.178293)
(0.377432 0.513504 0.171253)
(0.418538 0.561971 0.196695)
(0.439936 0.503603 0.169897)
(0.402904 0.457997 0.159026)
(0.439875 0.499124 0.159743)
(0.529132 0.673422 0.191405)
(0.519966 0.660991 0.202418)
(0.371477 0.488581 0.162189)
(0.400738 0.515237 0.161903)
(0.384416 0.489319 0.157642)
(0.259643 0.288907 0.0830195)
(0.280474 0.313539 0.0827641)
(0.26888 0.30662 0.0833771)
(0.472525 0.603503 0.150324)
(0.487189 0.622383 0.159113)
(0.489221 0.615926 0.16352)
(0.473789 0.5682 0.226328)
(0.488286 0.578943 0.242462)
(0.510377 0.622447 0.243235)
(0.394789 0.518544 0.17771)
(0.381771 0.518774 0.17152)
(0.40693 0.542502 0.178338)
(0.418457 0.473593 0.151827)
(0.440614 0.495446 0.157631)
(0.517354 0.583865 0.180647)
(0.376608 0.46772 0.169696)
(0.346946 0.442211 0.155086)
(0.505858 0.647055 0.200503)
(0.514349 0.651356 0.186732)
(0.430001 0.580989 0.169987)
(0.419538 0.575779 0.177512)
(0.410597 0.557779 0.165938)
(0.427695 0.534124 0.167909)
(0.412361 0.517822 0.164027)
(0.514483 0.64921 0.166005)
(0.48813 0.603535 0.155953)
(0.505884 0.633848 0.170889)
(0.491899 0.611014 0.172559)
(0.513603 0.575538 0.165329)
(0.491647 0.552437 0.152155)
(0.493123 0.542794 0.157301)
(0.447918 0.495796 0.212111)
(0.459533 0.518552 0.214689)
(0.456433 0.525236 0.218086)
(0.498943 0.617725 0.173583)
(0.494137 0.616218 0.171827)
(0.295722 0.307653 0.103292)
(0.302971 0.318791 0.109344)
(0.354613 0.447231 0.158035)
(0.353021 0.440803 0.161842)
(0.487185 0.614674 0.161088)
(0.480179 0.598179 0.146918)
(0.510613 0.657591 0.168696)
(0.500924 0.6196 0.166543)
(0.503234 0.602124 0.14272)
(0.510528 0.623864 0.165674)
(0.417044 0.517867 0.158435)
(0.426716 0.522779 0.153638)
(0.428149 0.527262 0.158489)
(0.464417 0.57232 0.165878)
(0.307215 0.315346 0.106144)
(0.319658 0.331037 0.117265)
(0.31405 0.325197 0.106257)
(0.314629 0.381519 0.116725)
(0.302801 0.370129 0.109527)
(0.325326 0.410651 0.119171)
(0.321419 0.403506 0.11782)
(0.456752 0.552817 0.214356)
(0.446691 0.523065 0.201785)
(0.483953 0.593804 0.223978)
(0.379464 0.499457 0.168068)
(0.368295 0.479254 0.154561)
(0.399765 0.51014 0.178242)
(0.475369 0.516526 0.145267)
(0.463027 0.495613 0.134005)
(0.492529 0.53165 0.142265)
(0.488175 0.606966 0.159608)
(0.468046 0.586922 0.145505)
(0.469362 0.5868 0.178984)
(0.475955 0.592854 0.161607)
(0.476915 0.594022 0.174618)
(0.356336 0.442998 0.138197)
(0.374834 0.465263 0.140433)
(0.389184 0.472698 0.143214)
(0.405177 0.498143 0.148686)
(0.349731 0.422781 0.150687)
(0.351184 0.408568 0.151704)
(0.359618 0.366557 0.136004)
(0.369889 0.383084 0.146741)
(0.499029 0.565917 0.136782)
(0.505944 0.568849 0.130518)
(0.355183 0.440612 0.156611)
(0.353215 0.434481 0.153962)
(0.465604 0.579311 0.17343)
(0.448248 0.566021 0.160407)
(0.482092 0.610732 0.149944)
(0.515776 0.644688 0.166772)
(0.48663 0.634119 0.156975)
(0.342931 0.412381 0.117698)
(0.341822 0.413456 0.120566)
(0.357426 0.44356 0.127969)
(0.365872 0.461402 0.162972)
(0.365149 0.470779 0.160292)
(0.402204 0.446032 0.157675)
(0.364103 0.408459 0.137714)
(0.362838 0.409501 0.146381)
(0.487251 0.532895 0.123254)
(0.493728 0.535503 0.12969)
(0.47755 0.509014 0.10592)
(0.294907 0.327293 0.100949)
(0.315616 0.332184 0.109468)
(0.287015 0.30593 0.102427)
(0.441167 0.536723 0.149274)
(0.4489 0.550894 0.152838)
(0.418263 0.508472 0.149845)
(0.459463 0.613843 0.152692)
(0.498896 0.661829 0.172577)
(0.482665 0.628121 0.166602)
(0.46934 0.632404 0.167831)
(0.404696 0.4864 0.172904)
(0.428043 0.501668 0.182056)
(0.416724 0.47619 0.183383)
(0.419001 0.496682 0.176185)
(0.330946 0.334046 0.113127)
(0.350841 0.367587 0.134491)
(0.341154 0.34775 0.120586)
(0.328164 0.387689 0.105297)
(0.317127 0.379673 0.114763)
(0.327583 0.390991 0.107469)
(0.315461 0.330943 0.111678)
(0.316313 0.3227 0.112704)
(0.305107 0.32799 0.10437)
(0.299343 0.313399 0.104375)
(0.320791 0.333776 0.108702)
(0.344688 0.359313 0.119472)
(0.337536 0.356022 0.119692)
(0.364927 0.378177 0.134255)
(0.372304 0.384013 0.135503)
(0.37588 0.390594 0.13592)
(0.340812 0.344057 0.119598)
(0.380165 0.400352 0.138818)
(0.354284 0.362341 0.125213)
(0.331011 0.333557 0.112081)
(0.343774 0.362569 0.124889)
(0.297398 0.353586 0.102326)
(0.331055 0.383709 0.106635)
(0.33753 0.393448 0.104108)
(0.343912 0.402068 0.106571)
(0.401512 0.463652 0.127994)
(0.328194 0.37062 0.103355)
(0.301631 0.351009 0.0965873)
(0.312089 0.361302 0.0952183)