/*--------------------------------*- C++ -*----------------------------------*\
| =========                 |                                                 |
| \\      /  F ield         | OpenFOAM: The Open Source CFD Toolbox           |
|  \\    /   O peration     | Version:  v1612+                                |
|   \\  /    A nd           | Web:      www.OpenFOAM.com                      |
|    \\/     M anipulation  |                                                 |
\*---------------------------------------------------------------------------*/
FoamFile
{
    version     2.0;
    format      ascii;
    class       volVectorField;
    location    "200";
    object      wallShearStress;
}
// * * * * * * * * * * * * * * * * * * * * * * * * * * * * * * * * * * * * * //

dimensions      [0 2 -2 0 0 0 0];

internalField   uniform (0 0 0);

boundaryField
{
    WALL
    {
        type            calculated;
        value           nonuniform List<vector> 
1500
(
(-0.00736992 -0.0109521 -0.00439357)
(-0.00778095 -0.0117902 -0.00460296)
(-0.00955786 -0.0119133 -0.00388218)
(-0.0106599 -0.0129633 -0.00384257)
(-0.00875278 -0.0116455 -0.00338766)
(-0.0090828 -0.0122734 -0.00342734)
(-0.0104189 -0.0126935 -0.0040722)
(-0.00983724 -0.0125926 -0.00303996)
(-0.0109455 -0.0134546 -0.00442217)
(-0.00974467 -0.0137184 -0.00343961)
(-0.0092809 -0.00947286 -0.00406911)
(-0.00964259 -0.0098145 -0.00431093)
(-0.00735485 -0.00814673 -0.00243176)
(-0.00748276 -0.008653 -0.00254288)
(-0.0103756 -0.0108091 -0.00483888)
(-0.00987852 -0.0109042 -0.00447836)
(-0.0109107 -0.0139392 -0.00402702)
(-0.0118068 -0.0143758 -0.00538486)
(-0.00853547 -0.00985821 -0.00262117)
(-0.00800967 -0.00977272 -0.00314405)
(-0.01037 -0.0114259 -0.00251464)
(-0.0105501 -0.0110602 -0.00218135)
(-0.00941595 -0.0137562 -0.0031166)
(-0.0100729 -0.0144211 -0.00322147)
(-0.00881598 -0.0113495 -0.00344977)
(-0.00854924 -0.0118068 -0.00334583)
(-0.00942673 -0.0105493 -0.00305366)
(-0.00953845 -0.00989021 -0.00227375)
(-0.008208 -0.010029 -0.00328052)
(-0.00804923 -0.00982523 -0.00324948)
(-0.00742368 -0.0108158 -0.00390404)
(-0.00748077 -0.0100971 -0.00354225)
(-0.0113004 -0.0139853 -0.00494091)
(-0.0116693 -0.0147562 -0.00382776)
(-0.0117915 -0.0139765 -0.00269401)
(-0.0106498 -0.0118464 -0.00242341)
(-0.0109045 -0.0136425 -0.00482057)
(-0.0105459 -0.0136229 -0.00512764)
(-0.00878249 -0.0113356 -0.00426098)
(-0.00992436 -0.012965 -0.00498875)
(-0.00897936 -0.0107382 -0.00337185)
(-0.0086909 -0.010047 -0.00327461)
(-0.00871493 -0.0105492 -0.00335043)
(-0.00806671 -0.00970002 -0.00306776)
(-0.0107895 -0.0130134 -0.00434189)
(-0.00984982 -0.0125619 -0.00440759)
(-0.00852865 -0.0113184 -0.00373472)
(-0.00793899 -0.0105264 -0.00372691)
(-0.0102316 -0.0110581 -0.00191727)
(-0.00978046 -0.0109472 -0.00308037)
(-0.00855061 -0.00849327 -0.00313928)
(-0.00761965 -0.00741118 -0.00286375)
(-0.00719353 -0.00768255 -0.00234712)
(-0.00702427 -0.00779152 -0.00229389)
(-0.00776567 -0.00769042 -0.00252202)
(-0.0078886 -0.0077558 -0.00266692)
(-0.0105222 -0.0118395 -0.00242791)
(-0.0101942 -0.0113839 -0.00290348)
(-0.0109379 -0.0130334 -0.00342745)
(-0.0108719 -0.0118654 -0.00230663)
(-0.0108385 -0.0143847 -0.00310153)
(-0.0103258 -0.0134254 -0.00343328)
(-0.0100939 -0.0105851 -0.00257581)
(-0.00966485 -0.0105988 -0.00273322)
(-0.0105892 -0.011221 -0.00208879)
(-0.0102963 -0.0113261 -0.00309932)
(-0.00883662 -0.00879297 -0.00352582)
(-0.00871711 -0.00857994 -0.00365172)
(-0.00849549 -0.0083229 -0.00347246)
(-0.00772483 -0.00751346 -0.00309599)
(-0.00893571 -0.00858076 -0.00383124)
(-0.00794742 -0.0092954 -0.00317562)
(-0.00777513 -0.00917651 -0.00302579)
(-0.00788986 -0.0100376 -0.00322829)
(-0.00787991 -0.00943664 -0.00307219)
(-0.00814017 -0.00948554 -0.00320671)
(-0.00754642 -0.00970468 -0.00322241)
(-0.0100276 -0.0125932 -0.00344944)
(-0.0105678 -0.0133069 -0.00362844)
(-0.0104313 -0.0132545 -0.00343185)
(-0.0109692 -0.0139755 -0.00391056)
(-0.0103467 -0.0134377 -0.00320174)
(-0.0106376 -0.0135325 -0.00318383)
(-0.00832042 -0.0100983 -0.00303751)
(-0.00850031 -0.0106452 -0.00386169)
(-0.0088231 -0.0109506 -0.0035988)
(-0.00854406 -0.0101594 -0.00270013)
(-0.00874744 -0.0105612 -0.00333973)
(-0.00982277 -0.0104141 -0.00245396)
(-0.0101012 -0.0103222 -0.00266963)
(-0.00997883 -0.0104028 -0.00276884)
(-0.00968015 -0.0104298 -0.00265361)
(-0.0104268 -0.0109312 -0.00278954)
(-0.00910677 -0.0116345 -0.00369879)
(-0.00879112 -0.0117035 -0.0034733)
(-0.0091297 -0.0120736 -0.00358288)
(-0.00883844 -0.0116889 -0.00350495)
(-0.00876423 -0.0112572 -0.00356)
(-0.00912859 -0.0119339 -0.00369392)
(-0.0106634 -0.0135963 -0.00330731)
(-0.00990744 -0.0131475 -0.00348858)
(-0.010842 -0.013674 -0.00423871)
(-0.010848 -0.0139093 -0.00381427)
(-0.0102095 -0.0130773 -0.00416439)
(-0.00792689 -0.0113515 -0.00379638)
(-0.00781168 -0.0105009 -0.00364952)
(-0.00768392 -0.0106326 -0.00364157)
(-0.00820787 -0.0112618 -0.00394158)
(-0.00758506 -0.0112968 -0.00392971)
(-0.0111381 -0.0145162 -0.00372559)
(-0.011859 -0.0149035 -0.00449509)
(-0.0116118 -0.0144457 -0.00438112)
(-0.0120762 -0.0154316 -0.00445684)
(-0.0113536 -0.0143118 -0.00428105)
(-0.0113898 -0.0139837 -0.00497569)
(-0.00927249 -0.0107776 -0.0029951)
(-0.00945369 -0.010536 -0.00276726)
(-0.0101183 -0.0111864 -0.00264522)
(-0.0084389 -0.00997868 -0.00313623)
(-0.00945572 -0.0107392 -0.0031077)
(-0.00841106 -0.0103034 -0.003321)
(-0.00814189 -0.0100666 -0.00368671)
(-0.0101729 -0.0118739 -0.00366873)
(-0.0100316 -0.0118123 -0.00317155)
(-0.00983035 -0.0117728 -0.00380073)
(-0.00933882 -0.00982806 -0.00411818)
(-0.00910308 -0.00960529 -0.00420818)
(-0.00873729 -0.00967026 -0.00381543)
(-0.0101007 -0.0111065 -0.00440135)
(-0.00796305 -0.00829246 -0.00307209)
(-0.00833384 -0.00841237 -0.00297461)
(-0.00828029 -0.00787662 -0.0033176)
(-0.00833574 -0.00802094 -0.00324737)
(-0.00864113 -0.00831807 -0.00347251)
(-0.00891465 -0.00889735 -0.00352673)
(-0.0088754 -0.00848712 -0.00363732)
(-0.00912549 -0.0100345 -0.00290141)
(-0.00994235 -0.0106087 -0.00253797)
(-0.00958322 -0.0107926 -0.00294132)
(-0.0110445 -0.0117576 -0.00275341)
(-0.0105794 -0.0113558 -0.00233775)
(-0.00974334 -0.010544 -0.00277475)
(-0.00942649 -0.0107992 -0.00297083)
(-0.00856382 -0.00996677 -0.00302683)
(-0.00846113 -0.00946263 -0.00282626)
(-0.00898642 -0.0102366 -0.00306436)
(-0.0095278 -0.0105252 -0.00267303)
(-0.00939829 -0.0103028 -0.00300647)
(-0.0100772 -0.0117053 -0.00322327)
(-0.0106172 -0.01191 -0.00225796)
(-0.0109866 -0.0125542 -0.00326118)
(-0.00980241 -0.0111473 -0.00336812)
(-0.010062 -0.0108725 -0.00275188)
(-0.0107926 -0.0141244 -0.00537417)
(-0.0122806 -0.0152766 -0.00452216)
(-0.0078499 -0.012222 -0.00452597)
(-0.00813955 -0.0125866 -0.00450633)
(-0.0074167 -0.0110191 -0.00462391)
(-0.0071368 -0.0105497 -0.00429534)
(-0.00767427 -0.0101315 -0.00377844)
(-0.00768727 -0.0114051 -0.00430998)
(-0.00729721 -0.0109375 -0.00458571)
(-0.00753748 -0.0112975 -0.00460123)
(-0.0079232 -0.0108308 -0.0044877)
(-0.00727297 -0.0103916 -0.00451948)
(-0.00954121 -0.0111809 -0.00401618)
(-0.00930193 -0.0103162 -0.00432142)
(-0.00919085 -0.0103129 -0.00414922)
(-0.00933794 -0.0106331 -0.00429322)
(-0.00961412 -0.0108515 -0.00447651)
(-0.0097969 -0.0106891 -0.00438097)
(-0.00878666 -0.00949898 -0.00382192)
(-0.00875928 -0.00884998 -0.00364356)
(-0.00948578 -0.00965442 -0.00424857)
(-0.00897339 -0.00961902 -0.00375807)
(-0.00873871 -0.00901918 -0.00359994)
(-0.00896168 -0.00939168 -0.00388235)
(-0.00744887 -0.00761899 -0.00247677)
(-0.00751629 -0.00742617 -0.00237295)
(-0.00769457 -0.00755166 -0.0025873)
(-0.0074612 -0.00748009 -0.0024524)
(-0.00751051 -0.00776628 -0.0026333)
(-0.00790797 -0.00762891 -0.00272075)
(-0.0100051 -0.0123462 -0.00323954)
(-0.00956488 -0.0120406 -0.00269576)
(-0.00917967 -0.011657 -0.00281375)
(-0.0106725 -0.013367 -0.00326916)
(-0.0104182 -0.012985 -0.00422731)
(-0.0112701 -0.0136586 -0.00439648)
(-0.0101417 -0.0124501 -0.00385269)
(-0.0103633 -0.0133327 -0.00411317)
(-0.00964499 -0.0113612 -0.0043841)
(-0.00938514 -0.0117649 -0.00327493)
(-0.00992634 -0.0122829 -0.00431726)
(-0.0107982 -0.0130927 -0.00376918)
(-0.00962596 -0.012043 -0.00272777)
(-0.00942825 -0.0115141 -0.00308052)
(-0.00999608 -0.0125973 -0.00267)
(-0.00992343 -0.0123019 -0.00385365)
(-0.0102798 -0.0131416 -0.00278631)
(-0.0106745 -0.0133207 -0.00312929)
(-0.0106066 -0.0129591 -0.00388845)
(-0.0110613 -0.0136525 -0.00425035)
(-0.0113711 -0.0139885 -0.00400319)
(-0.010097 -0.0127537 -0.00320757)
(-0.0111837 -0.0140695 -0.00414813)
(-0.0105685 -0.0127618 -0.00308836)
(-0.00992209 -0.0117261 -0.00236418)
(-0.0102532 -0.0126372 -0.00333761)
(-0.0112331 -0.0126442 -0.0022011)
(-0.0112071 -0.0129693 -0.00308728)
(-0.0111087 -0.0124711 -0.0020707)
(-0.0107352 -0.0130662 -0.00358834)
(-0.0104575 -0.0123215 -0.00226575)
(-0.0110023 -0.0138785 -0.00323018)
(-0.0117784 -0.0139167 -0.00281484)
(-0.0101642 -0.0127411 -0.00312726)
(-0.010125 -0.0122395 -0.00354222)
(-0.0107897 -0.0130266 -0.00251799)
(-0.0112035 -0.0137592 -0.00384741)
(-0.0122502 -0.014313 -0.00318595)
(-0.0118591 -0.014226 -0.00255167)
(-0.0108656 -0.0130635 -0.00245143)
(-0.0108139 -0.0130245 -0.00358088)
(-0.0111736 -0.0123067 -0.00210287)
(-0.0107028 -0.0120865 -0.00207279)
(-0.0108166 -0.0123891 -0.00267767)
(-0.011403 -0.0132921 -0.00233638)
(-0.0109283 -0.0123604 -0.00258341)
(-0.0116689 -0.0134363 -0.00269143)
(-0.00698925 -0.00998777 -0.00405105)
(-0.00713836 -0.0103062 -0.00390231)
(-0.00799173 -0.0104367 -0.00392935)
(-0.00774033 -0.0102706 -0.00372207)
(-0.00734104 -0.0108405 -0.00433474)
(-0.00720546 -0.0105817 -0.00417579)
(-0.00670027 -0.00798713 -0.00260546)
(-0.00689072 -0.00902158 -0.00299549)
(-0.00655148 -0.00813092 -0.0027493)
(-0.00690738 -0.00878279 -0.00288297)
(-0.010355 -0.0128125 -0.00412426)
(-0.0106241 -0.0131228 -0.00470976)
(-0.011481 -0.0136482 -0.00417371)
(-0.0110749 -0.0136304 -0.00482049)
(-0.0105134 -0.0130503 -0.00430643)
(-0.0109589 -0.0135376 -0.00428883)
(-0.0084709 -0.0107063 -0.00352198)
(-0.00910678 -0.01158 -0.00387676)
(-0.00787675 -0.0100808 -0.00332865)
(-0.00868677 -0.0107025 -0.00326869)
(-0.00897675 -0.0115325 -0.00420921)
(-0.00855667 -0.0111736 -0.00399526)
(-0.00885666 -0.0109869 -0.00379405)
(-0.00866895 -0.0106861 -0.0037341)
(-0.00819046 -0.0107121 -0.00374577)
(-0.0108536 -0.0125375 -0.00269526)
(-0.00993064 -0.0121402 -0.00341677)
(-0.0103669 -0.0119274 -0.00287536)
(-0.00960218 -0.0116602 -0.00366216)
(-0.011681 -0.0142735 -0.00258598)
(-0.0125314 -0.0144314 -0.00277783)
(-0.0100437 -0.0114784 -0.00306266)
(-0.00931119 -0.0109158 -0.00294047)
(-0.00817974 -0.00976407 -0.00307265)
(-0.00988344 -0.0113639 -0.00333042)
(-0.0102778 -0.011457 -0.0025119)
(-0.00847396 -0.0107611 -0.00386237)
(-0.0103176 -0.0121015 -0.00315405)
(-0.0101197 -0.0115465 -0.00314681)
(-0.0116168 -0.0135752 -0.00238331)
(-0.00935489 -0.0108141 -0.00278126)
(-0.0119385 -0.013556 -0.00325359)
(-0.0119408 -0.0151241 -0.00413855)
(-0.0120186 -0.014984 -0.00258396)
(-0.0122493 -0.0148625 -0.00306791)
(-0.0114201 -0.0146277 -0.00375116)
(-0.0121161 -0.0150657 -0.00344661)
(-0.0124189 -0.0150856 -0.00344061)
(-0.0105796 -0.0129556 -0.00291461)
(-0.0118861 -0.0151375 -0.00321549)
(-0.0117378 -0.0139987 -0.00302248)
(-0.0113705 -0.014095 -0.00321791)
(-0.012181 -0.0149362 -0.00392512)
(-0.0111435 -0.0136673 -0.00297304)
(-0.0102068 -0.0128053 -0.00404899)
(-0.0116838 -0.0141217 -0.00456307)
(-0.0112466 -0.0134202 -0.00554041)
(-0.0103217 -0.0124089 -0.00418873)
(-0.0112969 -0.0121254 -0.00558066)
(-0.0110183 -0.0138491 -0.00475498)
(-0.0108516 -0.0111543 -0.00511887)
(-0.00970117 -0.00983469 -0.00435814)
(-0.0101026 -0.0109119 -0.00453871)
(-0.00980833 -0.0101475 -0.00454209)
(-0.010254 -0.0112737 -0.00473701)
(-0.0117443 -0.0144 -0.00422281)
(-0.0121518 -0.0149637 -0.00484448)
(-0.011179 -0.0131224 -0.00523606)
(-0.0120124 -0.0145501 -0.00530374)
(-0.0116036 -0.0148094 -0.00430027)
(-0.0107913 -0.0127552 -0.00468668)
(-0.0110617 -0.0139156 -0.0042683)
(-0.01194 -0.0145301 -0.00485436)
(-0.0105801 -0.0134276 -0.00455093)
(-0.0119742 -0.01504 -0.0044181)
(-0.0113193 -0.0131033 -0.00539658)
(-0.0106558 -0.0130711 -0.00430858)
(-0.0117444 -0.0145747 -0.00494834)
(-0.0120447 -0.0150226 -0.00395804)
(-0.011716 -0.0145715 -0.00453667)
(-0.0115904 -0.0144521 -0.0045543)
(-0.0120086 -0.015119 -0.00442374)
(-0.0110446 -0.0140575 -0.0041128)
(-0.00755019 -0.00874682 -0.00273629)
(-0.00752488 -0.00865707 -0.00269567)
(-0.0075424 -0.00869679 -0.00268384)
(-0.00772738 -0.00938179 -0.00302602)
(-0.00790493 -0.00959679 -0.00299708)
(-0.00799028 -0.00940071 -0.00290307)
(-0.00672607 -0.00781189 -0.00251878)
(-0.00663205 -0.00719232 -0.00236561)
(-0.00706466 -0.00745842 -0.00239469)
(-0.00685474 -0.00790686 -0.00253446)
(-0.00719666 -0.0077519 -0.00242901)
(-0.00680189 -0.00767631 -0.00240647)
(-0.0069513 -0.00738319 -0.00253092)
(-0.00748561 -0.00748501 -0.0028164)
(-0.0069347 -0.00718458 -0.00254547)
(-0.00730861 -0.00735937 -0.00271855)
(-0.0074424 -0.00766448 -0.00263193)
(-0.00670885 -0.00705057 -0.00244122)
(-0.00765705 -0.00925256 -0.00295028)
(-0.00764665 -0.00902032 -0.00291711)
(-0.00692601 -0.00832387 -0.00263657)
(-0.00701761 -0.00822952 -0.00261935)
(-0.00729376 -0.00858069 -0.00266037)
(-0.00716767 -0.00852367 -0.00276094)
(-0.00788133 -0.0100382 -0.00349695)
(-0.00737071 -0.00999548 -0.00353538)
(-0.00732632 -0.00966231 -0.0034679)
(-0.00774808 -0.0101434 -0.00358107)
(-0.00788434 -0.0100592 -0.00361559)
(-0.00843046 -0.0121614 -0.00349878)
(-0.00870583 -0.0122494 -0.00353693)
(-0.00882473 -0.0123097 -0.00363403)
(-0.00865375 -0.0121976 -0.00345346)
(-0.00927012 -0.0120964 -0.00405221)
(-0.00880297 -0.0127431 -0.00364621)
(-0.00887179 -0.0101018 -0.00314503)
(-0.00813997 -0.00991034 -0.00331528)
(-0.00803992 -0.00983124 -0.00324641)
(-0.00864905 -0.00974236 -0.00289447)
(-0.00814919 -0.00962584 -0.00314037)
(-0.00819091 -0.00990023 -0.00319311)
(-0.00897201 -0.0120732 -0.00364221)
(-0.00911002 -0.0118842 -0.00373525)
(-0.00980694 -0.0123954 -0.00404947)
(-0.00917387 -0.0119634 -0.00368994)
(-0.00916013 -0.0114941 -0.00392864)
(-0.00793866 -0.0110868 -0.00352468)
(-0.00857257 -0.0118244 -0.00367557)
(-0.00851377 -0.0117248 -0.00367418)
(-0.00792959 -0.0111185 -0.0034431)
(-0.00855663 -0.0118633 -0.00381189)
(-0.0081298 -0.0111824 -0.00345449)
(-0.00807465 -0.0101284 -0.00335723)
(-0.00740873 -0.00969209 -0.00320457)
(-0.00775012 -0.0100903 -0.00326205)
(-0.00796715 -0.00967216 -0.00326891)
(-0.00762891 -0.00996939 -0.00333733)
(-0.00782834 -0.0101716 -0.00330448)
(-0.00943329 -0.0128878 -0.0033821)
(-0.00882435 -0.0128674 -0.00306514)
(-0.00921409 -0.0137518 -0.00319783)
(-0.00939683 -0.0128639 -0.00354291)
(-0.00876236 -0.0124078 -0.003367)
(-0.00915945 -0.0128773 -0.003563)
(-0.0107153 -0.0143398 -0.00331146)
(-0.00978954 -0.0134077 -0.0031155)
(-0.0105797 -0.0149535 -0.00343737)
(-0.009988 -0.0142988 -0.00326828)
(-0.009716 -0.0137002 -0.00313499)
(-0.00916064 -0.0129038 -0.00265913)
(-0.011901 -0.0147455 -0.00491423)
(-0.0117664 -0.0144302 -0.00398897)
(-0.0122776 -0.0149314 -0.00405179)
(-0.0113188 -0.0139543 -0.00379517)
(-0.0108236 -0.0135267 -0.00437546)
(-0.0122504 -0.0155576 -0.00375745)
(-0.0107527 -0.0134058 -0.00360245)
(-0.0112326 -0.0136592 -0.00451871)
(-0.010588 -0.0129489 -0.00397774)
(-0.0117535 -0.0148939 -0.00368542)
(-0.0115257 -0.0137849 -0.00406627)
(-0.0107175 -0.0134624 -0.00457426)
(-0.011322 -0.0143442 -0.00332546)
(-0.0127698 -0.0161822 -0.00416581)
(-0.0118574 -0.0149646 -0.00399566)
(-0.0119266 -0.0156493 -0.00286109)
(-0.012744 -0.0154494 -0.00403848)
(-0.0118241 -0.014491 -0.00440329)
(-0.0132634 -0.0167162 -0.00428907)
(-0.0125626 -0.0157682 -0.00537602)
(-0.012988 -0.0156119 -0.00401518)
(-0.0122164 -0.0148483 -0.00413772)
(-0.0118873 -0.0144079 -0.00374169)
(-0.011879 -0.0146837 -0.0047622)
(-0.0092441 -0.0133198 -0.00302796)
(-0.00950387 -0.013202 -0.00337523)
(-0.00986364 -0.0145993 -0.00279836)
(-0.00880911 -0.0132873 -0.00298647)
(-0.00956233 -0.013647 -0.0028608)
(-0.00977034 -0.0135644 -0.00311821)
(-0.0113599 -0.0151483 -0.00261537)
(-0.0109753 -0.0146956 -0.00323554)
(-0.0125578 -0.0155386 -0.00395576)
(-0.0124996 -0.0161391 -0.00301989)
(-0.0125832 -0.0160383 -0.00418472)
(-0.0120414 -0.015331 -0.00280222)
(-0.00883203 -0.0130374 -0.00326437)
(-0.00894385 -0.0133451 -0.00330875)
(-0.00879713 -0.0128976 -0.00347017)
(-0.00874896 -0.0127197 -0.00328168)
(-0.00880781 -0.0130783 -0.00350988)
(-0.00853736 -0.0126003 -0.0033259)
(-0.00901467 -0.0128642 -0.00410998)
(-0.00850123 -0.0127688 -0.0043551)
(-0.00844462 -0.0122655 -0.00388169)
(-0.00908957 -0.0130107 -0.00444543)
(-0.00930412 -0.00956323 -0.00233402)
(-0.00916095 -0.0100081 -0.00274673)
(-0.00908112 -0.00979913 -0.00270097)
(-0.00895969 -0.00980804 -0.00278769)
(-0.0104025 -0.0105364 -0.00245574)
(-0.00991773 -0.010252 -0.0022311)
(-0.00950876 -0.013205 -0.00343546)
(-0.00982418 -0.0132048 -0.00330985)
(-0.00986577 -0.0130432 -0.0036198)
(-0.0103009 -0.0134385 -0.00375281)
(-0.00990217 -0.0131874 -0.00357244)
(-0.00963153 -0.0126373 -0.00356301)
(-0.00956705 -0.0126327 -0.00373263)
(-0.00897189 -0.01181 -0.00350668)
(-0.00875653 -0.0118918 -0.00356877)
(-0.00914159 -0.0119365 -0.00351962)
(-0.00885295 -0.0112645 -0.00351536)
(-0.00853055 -0.0113961 -0.00343653)
(-0.00871603 -0.0118104 -0.00345224)
(-0.00875192 -0.0114603 -0.0034674)
(-0.00949776 -0.0128827 -0.00315291)
(-0.00943847 -0.0124905 -0.00353442)
(-0.00964146 -0.0127355 -0.00351147)
(-0.0101012 -0.0130114 -0.00368068)
(-0.00951548 -0.0127378 -0.00364832)
(-0.00999923 -0.0133625 -0.00366294)
(-0.00912418 -0.0114304 -0.00354776)
(-0.0103182 -0.0130666 -0.00323491)
(-0.00992404 -0.0118752 -0.00340616)
(-0.00982599 -0.0121338 -0.00346218)
(-0.0089973 -0.0110135 -0.00343302)
(-0.0102652 -0.0126431 -0.00386389)
(-0.00755502 -0.00901711 -0.00273972)
(-0.00771161 -0.00904068 -0.00259372)
(-0.00717259 -0.00820218 -0.00229627)
(-0.00718398 -0.00842717 -0.00253149)
(-0.00732676 -0.00843707 -0.00248193)
(-0.00769308 -0.00897586 -0.00259543)
(-0.01105 -0.0138772 -0.00327946)
(-0.00952177 -0.0119015 -0.00328293)
(-0.0102767 -0.0127849 -0.00341442)
(-0.0103765 -0.0129452 -0.00407645)
(-0.0102543 -0.0129274 -0.00317336)
(-0.0099482 -0.0122639 -0.00339861)
(-0.00997111 -0.0124734 -0.00320665)
(-0.00960011 -0.0117073 -0.00309381)
(-0.0094441 -0.0115085 -0.00329226)
(-0.00921101 -0.0115722 -0.00395922)
(-0.00962722 -0.0113784 -0.00328053)
(-0.00885245 -0.0111264 -0.00379599)
(-0.00853055 -0.0102267 -0.0035105)
(-0.00900905 -0.0110087 -0.00379184)
(-0.00953643 -0.011145 -0.00321612)
(-0.00945637 -0.0116308 -0.00334863)
(-0.00848497 -0.0108958 -0.00388547)
(-0.00930077 -0.0112443 -0.00368753)
(-0.00891482 -0.0105966 -0.00288756)
(-0.00894196 -0.0109683 -0.00326091)
(-0.00810081 -0.00993883 -0.00325734)
(-0.0078406 -0.0101204 -0.00344455)
(-0.00806685 -0.00962361 -0.00301496)
(-0.00896359 -0.011011 -0.00328537)
(-0.00908521 -0.011242 -0.0035506)
(-0.00843793 -0.0104496 -0.00342553)
(-0.010647 -0.0124621 -0.00448414)
(-0.0114623 -0.0128547 -0.00569856)
(-0.0101031 -0.0121149 -0.00447799)
(-0.010674 -0.0121731 -0.0051588)
(-0.0107117 -0.0122386 -0.00500754)
(-0.010191 -0.0112684 -0.00490817)
(-0.00989279 -0.0111733 -0.00460121)
(-0.0103801 -0.0111014 -0.00478858)
(-0.0103525 -0.0123249 -0.00433299)
(-0.0105891 -0.0119796 -0.00507493)
(-0.00987346 -0.0106191 -0.00464591)
(-0.0108721 -0.0133093 -0.00298231)
(-0.0112497 -0.0140477 -0.0032066)
(-0.0112274 -0.0138505 -0.00443173)
(-0.0115155 -0.0142332 -0.00362883)
(-0.0105336 -0.013534 -0.00322986)
(-0.0112266 -0.0138791 -0.00339044)
(-0.00709115 -0.00787738 -0.00241932)
(-0.00715448 -0.0080477 -0.00249527)
(-0.00722276 -0.0077581 -0.00248033)
(-0.00713892 -0.00751267 -0.00238939)
(-0.00721861 -0.00788656 -0.00245199)
(-0.00726287 -0.00799443 -0.00240569)
(-0.00756256 -0.00866327 -0.00252972)
(-0.00713206 -0.0082826 -0.00256067)
(-0.00725657 -0.00821116 -0.00252307)
(-0.00746812 -0.00884987 -0.00273422)
(-0.00731139 -0.00865531 -0.00268743)
(-0.00730992 -0.00850912 -0.00263353)
(-0.00734541 -0.00805858 -0.00253504)
(-0.00713339 -0.00776277 -0.00243828)
(-0.0070218 -0.0074628 -0.0023611)
(-0.00703053 -0.00822843 -0.00253464)
(-0.00735372 -0.00772338 -0.00249417)
(-0.00719603 -0.00767961 -0.00255931)
(-0.00720846 -0.0074328 -0.00250426)
(-0.00712737 -0.00730848 -0.00240061)
(-0.00796663 -0.00787376 -0.0025915)
(-0.00713085 -0.00727984 -0.00255263)
(-0.00740671 -0.00752366 -0.00261728)
(-0.0097665 -0.0108076 -0.00451138)
(-0.00939494 -0.00963136 -0.00413508)
(-0.00939292 -0.00963953 -0.00412519)
(-0.00950854 -0.00982088 -0.00431998)
(-0.00959729 -0.0103973 -0.0042111)
(-0.00926007 -0.00938731 -0.0040408)
(-0.00937895 -0.00983739 -0.00424011)
(-0.008662 -0.00897803 -0.00363079)
(-0.00934653 -0.00986875 -0.00400769)
(-0.00892486 -0.00895551 -0.00386111)
(-0.00967617 -0.00988078 -0.00440237)
(-0.00809639 -0.00806806 -0.00311033)
(-0.00891051 -0.00905036 -0.00366313)
(-0.0081113 -0.00828312 -0.00320853)
(-0.00846635 -0.00825646 -0.00334789)
(-0.00875588 -0.00883482 -0.00358002)
(-0.00877235 -0.00892568 -0.0035894)
(-0.00750817 -0.00889015 -0.00271093)
(-0.00739165 -0.00897059 -0.00281217)
(-0.00760628 -0.00870224 -0.00268988)
(-0.00781534 -0.0092347 -0.00275689)
(-0.00771268 -0.00936295 -0.00293019)
(-0.0109781 -0.0142352 -0.00331682)
(-0.010142 -0.0133018 -0.00294306)
(-0.0100446 -0.0129725 -0.00285962)
(-0.0106308 -0.0134381 -0.00399647)
(-0.0110927 -0.014785 -0.00374442)
(-0.0107547 -0.0132589 -0.00407914)
(-0.00854809 -0.0108179 -0.00371949)
(-0.00827367 -0.0105566 -0.00341711)
(-0.00780913 -0.00987292 -0.00323387)
(-0.00849818 -0.00928161 -0.00292334)
(-0.00841417 -0.00928028 -0.00281566)
(-0.00843059 -0.00955604 -0.00292538)
(-0.0083574 -0.00935176 -0.00310255)
(-0.00777327 -0.00911572 -0.00297835)
(-0.00941292 -0.00994674 -0.00285333)
(-0.00879387 -0.0100107 -0.00328333)
(-0.00946466 -0.0098153 -0.00281262)
(-0.00883583 -0.00941283 -0.00278424)
(-0.00889583 -0.00946737 -0.00299304)
(-0.00955677 -0.00956639 -0.00279692)
(-0.0101223 -0.0130012 -0.00395234)
(-0.00917848 -0.0122817 -0.00357509)
(-0.00967256 -0.0124543 -0.00384347)
(-0.00987802 -0.0135058 -0.0038418)
(-0.00909109 -0.0119625 -0.00366834)
(-0.00889214 -0.012295 -0.00328655)
(-0.0107999 -0.0139326 -0.00395124)
(-0.00999603 -0.0133168 -0.00328749)
(-0.00980341 -0.0127638 -0.00392096)
(-0.0103882 -0.0133202 -0.00427886)
(-0.0103645 -0.0143731 -0.00323684)
(-0.00981715 -0.0132887 -0.00279916)
(-0.0104591 -0.0132295 -0.00391305)
(-0.00943206 -0.0125659 -0.00301776)
(-0.0106748 -0.0139218 -0.00379294)
(-0.0105327 -0.0139959 -0.00397582)
(-0.00977659 -0.0131172 -0.00332049)
(-0.0107444 -0.0142525 -0.00304982)
(-0.0112718 -0.0145653 -0.00400439)
(-0.0101588 -0.0141985 -0.00336597)
(-0.00853005 -0.00884064 -0.00368954)
(-0.00865201 -0.00836305 -0.00358956)
(-0.00894258 -0.00925743 -0.00381138)
(-0.00832453 -0.00883109 -0.0033445)
(-0.00909559 -0.00935131 -0.00410646)
(-0.00929568 -0.00946662 -0.00417479)
(-0.00726942 -0.00735489 -0.002733)
(-0.00688091 -0.00733414 -0.00249639)
(-0.00659775 -0.00681653 -0.00242122)
(-0.00724925 -0.00723288 -0.00287054)
(-0.00652927 -0.00706269 -0.0023797)
(-0.00700609 -0.00707558 -0.00252366)
(-0.0121724 -0.0145839 -0.00473729)
(-0.0110428 -0.0136266 -0.00460896)
(-0.0117427 -0.0144203 -0.00370547)
(-0.0116091 -0.0139427 -0.00367197)
(-0.0106628 -0.0134885 -0.00452416)
(-0.0122374 -0.0150141 -0.00528491)
(-0.00845871 -0.0103128 -0.00355732)
(-0.00866676 -0.0111287 -0.00377672)
(-0.00881902 -0.0112516 -0.00389786)
(-0.00970383 -0.0125372 -0.00435031)
(-0.010131 -0.0127693 -0.00442661)
(-0.00773754 -0.0113361 -0.00425579)
(-0.00751947 -0.0113399 -0.00419329)
(-0.00775416 -0.0111992 -0.00387841)
(-0.00831514 -0.0127806 -0.00453425)
(-0.00769835 -0.0111687 -0.00404527)
(-0.00824803 -0.0119358 -0.00405665)
(-0.00918881 -0.0113669 -0.00242786)
(-0.0105928 -0.0131925 -0.00282363)
(-0.00986642 -0.0119049 -0.00306668)
(-0.00728697 -0.00736946 -0.00258381)
(-0.00658885 -0.00679976 -0.00245565)
(-0.00737952 -0.00761142 -0.00261809)
(-0.00705147 -0.00672736 -0.00263473)
(-0.00840496 -0.00802225 -0.00312809)
(-0.00836561 -0.00803124 -0.00325708)
(-0.00911222 -0.00908745 -0.00368611)
(-0.00903384 -0.00897678 -0.0038576)
(-0.00982428 -0.0100838 -0.00425036)
(-0.0101211 -0.0106644 -0.00478382)
(-0.00969493 -0.00989706 -0.00436255)
(-0.00771898 -0.0104301 -0.00350925)
(-0.00941003 -0.0125388 -0.0036282)
(-0.00958725 -0.0129423 -0.00354401)
(-0.00916577 -0.013118 -0.00337951)
(-0.00881232 -0.0124727 -0.00308367)
(-0.00942118 -0.0129389 -0.00292784)
(-0.0094996 -0.0134718 -0.0030377)
(-0.0100779 -0.0141497 -0.00336969)
(-0.00992412 -0.0137146 -0.00339886)
(-0.0106305 -0.0142751 -0.00375142)
(-0.00967773 -0.01257 -0.00311939)
(-0.00873645 -0.00844544 -0.00309892)
(-0.00816704 -0.00814368 -0.00321918)
(-0.00869253 -0.00894401 -0.00363853)
(-0.00923594 -0.00975089 -0.00352937)
(-0.00878339 -0.0088446 -0.00380986)
(-0.00925565 -0.0095411 -0.00391408)
(-0.00765665 -0.00794041 -0.00281276)
(-0.00726318 -0.00744818 -0.00270173)
(-0.00779735 -0.00798746 -0.00313311)
(-0.00844191 -0.00815722 -0.00321036)
(-0.00784407 -0.00771184 -0.00279971)
(-0.00761832 -0.00747292 -0.00263675)
(-0.00724625 -0.00768026 -0.00265386)
(-0.00757795 -0.00763487 -0.00279587)
(-0.00745015 -0.00741831 -0.00254774)
(-0.0073037 -0.00854714 -0.00264238)
(-0.00728671 -0.00824663 -0.00251676)
(-0.00706127 -0.00765446 -0.00244568)
(-0.00724822 -0.00804964 -0.00248187)
(-0.00741132 -0.0083322 -0.00252923)
(-0.00730096 -0.00768787 -0.0024057)
(-0.00974141 -0.0101434 -0.00452308)
(-0.0108047 -0.012793 -0.00480821)
(-0.00999712 -0.0122876 -0.00422951)
(-0.0103119 -0.0128886 -0.00441974)
(-0.0107246 -0.0126208 -0.00532386)
(-0.0100672 -0.0105013 -0.00482959)
(-0.0102483 -0.0128737 -0.00447467)
(-0.0100151 -0.0110035 -0.00471907)
(-0.00888774 -0.00860087 -0.00364854)
(-0.00858083 -0.00864722 -0.0034417)
(-0.00960424 -0.00913316 -0.0039179)
(-0.0095405 -0.00953115 -0.00408306)
(-0.0100974 -0.0104499 -0.00460835)
(-0.00942014 -0.00967888 -0.00415266)
(-0.00966424 -0.0105792 -0.0043852)
(-0.00982526 -0.0104501 -0.00454855)
(-0.010019 -0.0112829 -0.00474602)
(-0.0107867 -0.0116912 -0.00531841)
(-0.010614 -0.011738 -0.0049162)
(-0.0101184 -0.0118437 -0.00436935)
(-0.00981662 -0.0109082 -0.00461146)
(-0.0103402 -0.0114786 -0.0046348)
(-0.00828846 -0.00976331 -0.00283186)
(-0.00831162 -0.0102034 -0.00307505)
(-0.00959672 -0.0118146 -0.00367305)
(-0.0104022 -0.0131607 -0.00299286)
(-0.0110813 -0.0137994 -0.00340568)
(-0.0112199 -0.0144137 -0.00381136)
(-0.00842147 -0.0100048 -0.00281188)
(-0.00930407 -0.0111633 -0.00313924)
(-0.0100282 -0.0121093 -0.00393282)
(-0.00989945 -0.0120804 -0.00302447)
(-0.0100466 -0.0121624 -0.00319436)
(-0.0101206 -0.0124742 -0.00412152)
(-0.0098971 -0.0119151 -0.00324784)
(-0.00998434 -0.0119023 -0.00324111)
(-0.0108049 -0.0134244 -0.0033987)
(-0.010081 -0.0126304 -0.004417)
(-0.00985305 -0.0120783 -0.0040636)
(-0.00965344 -0.0122842 -0.00413054)
(-0.0107074 -0.0131684 -0.00434917)
(-0.00959225 -0.0118776 -0.00400546)
(-0.0100556 -0.0121549 -0.00375036)
(-0.0110494 -0.0131942 -0.00405021)
(-0.0102033 -0.0127204 -0.00396845)
(-0.0107758 -0.0134453 -0.00357544)
(-0.0104827 -0.0130706 -0.00301121)
(-0.0104738 -0.0129295 -0.003189)
(-0.00988062 -0.0124232 -0.00373722)
(-0.010112 -0.0124815 -0.00347716)
(-0.0108263 -0.0131566 -0.00370575)
(-0.0105461 -0.0130892 -0.00405123)
(-0.010183 -0.012814 -0.00316738)
(-0.0107066 -0.0135617 -0.00330798)
(-0.0107159 -0.0131116 -0.00359503)
(-0.00977071 -0.0118737 -0.00323178)
(-0.0104154 -0.0125856 -0.00327934)
(-0.00811185 -0.00975607 -0.00307525)
(-0.00800725 -0.00941306 -0.00282613)
(-0.00872715 -0.010468 -0.00331961)
(-0.0087106 -0.00985907 -0.00287948)
(-0.00758681 -0.00906884 -0.00285894)
(-0.00744927 -0.00857 -0.00258959)
(-0.0100039 -0.0136282 -0.00304706)
(-0.0105595 -0.0135853 -0.003494)
(-0.0102885 -0.0137049 -0.00382957)
(-0.0102547 -0.0128586 -0.00412129)
(-0.00943987 -0.0127862 -0.00366238)
(-0.00889722 -0.0107 -0.00370082)
(-0.00857475 -0.011216 -0.00346587)
(-0.00843821 -0.0112141 -0.00341045)
(-0.0092872 -0.0106787 -0.00386164)
(-0.00854062 -0.0111043 -0.00327778)
(-0.00882932 -0.0117246 -0.00349672)
(-0.00934516 -0.0124335 -0.00347133)
(-0.00922356 -0.0113299 -0.00372109)
(-0.00888491 -0.0113827 -0.00363778)
(-0.00896587 -0.0116003 -0.00364033)
(-0.00799224 -0.0101025 -0.00326488)
(-0.0081746 -0.00997617 -0.00326251)
(-0.0082634 -0.0108014 -0.00343981)
(-0.0087552 -0.00988884 -0.0030444)
(-0.00852252 -0.00954804 -0.0029247)
(-0.00864822 -0.00972901 -0.00328437)
(-0.00848545 -0.00953275 -0.0030898)
(-0.00772217 -0.00926098 -0.0031908)
(-0.00833345 -0.00940971 -0.00319809)
(-0.00779551 -0.00932923 -0.00320431)
(-0.009235 -0.0100604 -0.00302546)
(-0.00924377 -0.00974566 -0.00305711)
(-0.00864406 -0.0112144 -0.00353553)
(-0.00918004 -0.0118146 -0.00390589)
(-0.00872332 -0.0112734 -0.00358416)
(-0.0100296 -0.0130693 -0.00388451)
(-0.0106344 -0.0137951 -0.0037712)
(-0.0102115 -0.013733 -0.00337366)
(-0.0100295 -0.0136904 -0.00311685)
(-0.0102528 -0.012836 -0.00383878)
(-0.0104101 -0.0131107 -0.00377566)
(-0.00899422 -0.0114071 -0.00369073)
(-0.0091812 -0.0115729 -0.00371974)
(-0.00942791 -0.0120162 -0.00367874)
(-0.00876023 -0.0114929 -0.00360318)
(-0.00949863 -0.0122629 -0.0039475)
(-0.00941544 -0.0125811 -0.00340708)
(-0.00953562 -0.0120617 -0.0037888)
(-0.00963471 -0.0126654 -0.00387408)
(-0.00913905 -0.0117129 -0.00368241)
(-0.00938195 -0.0124321 -0.00355061)
(-0.0097541 -0.0128065 -0.0036439)
(-0.00886057 -0.0142088 -0.00302211)
(-0.00859712 -0.012692 -0.00373239)
(-0.00843722 -0.0124181 -0.00436887)
(-0.00891781 -0.0137748 -0.00339018)
(-0.00905956 -0.0135997 -0.00324761)
(-0.00881277 -0.0137909 -0.00280408)
(-0.0104423 -0.0148004 -0.00177811)
(-0.0111996 -0.0161172 -0.00224353)
(-0.0115328 -0.0153293 -0.00353806)
(-0.0101663 -0.0142674 -0.0023882)
(-0.00925212 -0.0132871 -0.00333555)
(-0.0105363 -0.0145286 -0.00258316)