/*--------------------------------*- C++ -*----------------------------------*\
| =========                 |                                                 |
| \\      /  F ield         | OpenFOAM: The Open Source CFD Toolbox           |
|  \\    /   O peration     | Version:  v1612+                                |
|   \\  /    A nd           | Web:      www.OpenFOAM.com                      |
|    \\/     M anipulation  |                                                 |
\*---------------------------------------------------------------------------*/
FoamFile
{
    version     2.0;
    format      ascii;
    class       volScalarField;
    location    "100";
    object      p;
}
// * * * * * * * * * * * * * * * * * * * * * * * * * * * * * * * * * * * * * //

dimensions      [0 2 -2 0 0 0 0];

internalField   nonuniform List<scalar> 
17070
(
0.26822
0.264233
0.230567
0.229705
0.233199
0.228778
0.23451
0.234253
0.234215
0.234994
0.228574
0.225693
0.229772
0.230437
0.231351
0.232128
0.229235
0.229027
0.229409
0.23391
0.236678
0.294561
0.295595
0.297847
0.295633
0.298965
0.299921
0.294527
0.293103
0.294325
0.292252
0.300404
0.304715
0.299925
0.297369
0.293315
0.298376
0.299047
0.304439
0.309141
0.303252
0.300462
0.306405
0.305589
0.305645
0.306191
0.297197
0.305165
0.300562
0.315351
0.309338
0.300337
0.304412
0.306237
0.308405
0.279234
0.271389
0.268685
0.277875
0.271049
0.27636
0.269629
0.268825
0.271626
0.276297
0.264303
0.270195
0.267122
0.279825
0.274427
0.271457
0.280994
0.307598
0.30186
0.299094
0.288947
0.297656
0.282719
0.28025
0.287378
0.279661
0.284399
0.288313
0.305651
0.305154
0.297548
0.292266
0.281552
0.305312
0.300375
0.299881
0.276818
0.28145
0.279585
0.27535
0.269524
0.279471
0.276841
0.279266
0.275748
0.274867
0.267038
0.28131
0.276749
0.273807
0.283283
0.31554
0.30475
0.306165
0.304313
0.310045
0.302097
0.306311
0.30327
0.316699
0.310762
0.305899
0.303555
0.303795
0.299911
0.317414
0.317147
0.311546
0.311658
0.255996
0.24233
0.253385
0.249107
0.242771
0.250874
0.259584
0.248831
0.250038
0.241478
0.261584
0.25434
0.24565
0.244755
0.250067
0.253251
0.245051
0.254008
0.309389
0.312623
0.308175
0.315955
0.308551
0.322165
0.336518
0.332519
0.330346
0.319156
0.309593
0.331009
0.328411
0.313419
0.326017
0.318562
0.322685
0.307138
0.286972
0.284431
0.284638
0.284415
0.280637
0.28195
0.279846
0.281447
0.281102
0.278399
0.277782
0.276374
0.280198
0.280649
0.276789
0.262964
0.265186
0.264893
0.263598
0.267407
0.262402
0.261577
0.265564
0.264209
0.264425
0.262393
0.265469
0.260415
0.260095
0.258412
0.261268
0.263083
0.291467
0.290999
0.289649
0.300382
0.304
0.295776
0.300055
0.301135
0.295386
0.308234
0.31005
0.295537
0.296449
0.297721
0.29913
0.303977
0.303471
0.307285
0.251697
0.253898
0.253723
0.247958
0.246909
0.248885
0.247533
0.253139
0.253814
0.246951
0.250868
0.249884
0.246347
0.24785
0.24879
0.254215
0.248901
0.251213
0.244268
0.237831
0.257758
0.260331
0.257818
0.257235
0.247645
0.263488
0.254339
0.250796
0.2446
0.255575
0.257008
0.241248
0.302129
0.303337
0.296159
0.296564
0.30198
0.312611
0.31862
0.307041
0.29706
0.302667
0.297627
0.300547
0.301237
0.300862
0.30479
0.276905
0.279248
0.268958
0.275421
0.278493
0.271302
0.272696
0.278639
0.280718
0.272512
0.273497
0.265231
0.271702
0.23998
0.23708
0.241497
0.240039
0.238088
0.239862
0.237485
0.235953
0.233099
0.234824
0.229462
0.238557
0.233394
0.238654
0.246768
0.242877
0.238324
0.234606
0.237279
0.246837
0.23507
0.238531
0.225063
0.229538
0.233237
0.231261
0.238019
0.232329
0.237048
0.229989
0.236417
0.225659
0.232757
0.23422
0.238249
0.233067
0.237642
0.228739
0.226161
0.229299
0.227313
0.229527
0.226372
0.224651
0.231996
0.230675
0.228448
0.225181
0.232298
0.22749
0.234233
0.233404
0.229971
0.230792
0.287477
0.287832
0.288131
0.288175
0.286868
0.283752
0.285941
0.287253
0.284808
0.279231
0.281818
0.283227
0.282266
0.284113
0.286202
0.283106
0.283371
0.277318
0.279704
0.27883
0.285415
0.272205
0.280515
0.282643
0.282404
0.277101
0.28208
0.276828
0.284275
0.28316
0.286358
0.286485
0.283247
0.383901
0.376499
0.399033
0.38344
0.393757
0.401449
0.408927
0.401769
0.387844
0.384091
0.379962
0.395997
0.403402
0.397574
0.38081
0.397501
0.392869
0.39536
0.298547
0.300514
0.306825
0.300724
0.296246
0.302025
0.296483
0.298314
0.29328
0.30061
0.306409
0.254476
0.253511
0.250286
0.244258
0.241094
0.232775
0.250075
0.250103
0.254818
0.250486
0.249202
0.244207
0.243762
0.24841
0.242125
0.237791
0.252685
0.245635
0.251816
0.250726
0.246389
0.244444
0.245816
0.248411
0.256344
0.248212
0.24702
0.254606
0.251573
0.253843
0.323514
0.325786
0.31665
0.322868
0.317218
0.314048
0.324001
0.330145
0.262085
0.268222
0.257115
0.255535
0.26252
0.262698
0.269633
0.26285
0.258245
0.259468
0.269049
0.272292
0.268628
0.269174
0.260712
0.269311
0.262479
0.280037
0.276756
0.273781
0.283403
0.277623
0.276074
0.268536
0.270445
0.276333
0.271983
0.275059
0.263488
0.262226
0.263299
0.265521
0.268988
0.26537
0.268578
0.26733
0.243393
0.242759
0.24598
0.246913
0.247372
0.238304
0.237455
0.243408
0.239049
0.23138
0.229098
0.23353
0.237094
0.228874
0.235776
0.230232
0.238769
0.246796
0.242816
0.239576
0.239613
0.239838
0.245292
0.248787
0.247477
0.24591
0.241165
0.241708
0.244115
0.247428
0.247051
0.2477
0.246111
0.247305
0.248851
0.247428
0.25614
0.24868
0.257236
0.255465
0.252336
0.256376
0.251479
0.23882
0.252564
0.253223
0.246586
0.251895
0.288334
0.296812
0.290051
0.302268
0.282476
0.297739
0.304711
0.307348
0.298909
0.304935
0.311988
0.302875
0.312083
0.229518
0.218307
0.227053
0.225834
0.226494
0.233632
0.230914
0.23082
0.295269
0.289853
0.288552
0.292879
0.298701
0.289636
0.288942
0.292292
0.287483
0.288556
0.2877
0.291654
0.291261
0.274754
0.267973
0.2691
0.26771
0.265222
0.268235
0.271389
0.260343
0.268578
0.267981
0.275126
0.27452
0.271396
0.272946
0.273993
0.234513
0.234887
0.232152
0.236316
0.232718
0.24042
0.229997
0.23936
0.238985
0.236745
0.237469
0.23408
0.229309
0.231591
0.235111
0.230133
0.34203
0.33809
0.337738
0.343492
0.355991
0.350703
0.3415
0.337797
0.347767
0.348591
0.358443
0.330802
0.342765
0.346288
0.349192
0.34101
0.349761
0.344043
0.347509
0.344564
0.351084
0.356111
0.34744
0.354623
0.338507
0.343957
0.363183
0.2963
0.302727
0.313746
0.313332
0.294865
0.309641
0.303705
0.306217
0.30997
0.310445
0.309937
0.299267
0.309621
0.29906
0.293661
0.302714
0.308922
0.306887
0.281013
0.28069
0.279459
0.283563
0.283789
0.283199
0.287003
0.286183
0.284387
0.285268
0.287664
0.284554
0.284547
0.290555
0.289867
0.293772
0.294086
0.292879
0.286438
0.291244
0.293092
0.288151
0.289209
0.291243
0.291691
0.292863
0.29022
0.291241
0.290389
0.286923
0.288103
0.288973
0.288773
0.29695
0.305087
0.310129
0.310351
0.30814
0.298983
0.299471
0.298573
0.308876
0.30873
0.293872
0.290015
0.288653
0.299275
0.31425
0.315471
0.315898
0.308492
0.315125
0.317566
0.313382
0.313174
0.311087
0.312821
0.309233
0.308775
0.31339
0.311271
0.314448
0.304797
0.302167
0.226547
0.237749
0.228838
0.233494
0.230705
0.232028
0.239507
0.237694
0.232513
0.223227
0.232242
0.233288
0.233706
0.231796
0.231189
0.240653
0.237387
0.237361
0.245259
0.244688
0.242497
0.242779
0.238764
0.236675
0.249893
0.329733
0.329252
0.338326
0.331787
0.331633
0.328402
0.326345
0.330211
0.316224
0.314037
0.316755
0.315387
0.316652
0.269454
0.268505
0.262827
0.265969
0.264239
0.265493
0.265428
0.265461
0.263184
0.26806
0.266346
0.27395
0.270546
0.267346
0.266728
0.263682
0.265652
0.267329
0.263937
0.313645
0.306513
0.315355
0.31013
0.311672
0.307891
0.311044
0.316019
0.30716
0.311739
0.318706
0.307942
0.317191
0.312175
0.32898
0.321466
0.314467
0.30764
0.312039
0.311122
0.318121
0.313054
0.313744
0.31577
0.272095
0.277647
0.286023
0.277394
0.279311
0.264984
0.285264
0.28363
0.284935
0.282171
0.276427
0.271184
0.274842
0.271031
0.27329
0.265846
0.269194
0.266677
0.271299
0.271814
0.261183
0.272245
0.271546
0.270479
0.277299
0.258212
0.271341
0.275734
0.284912
0.311245
0.314815
0.317194
0.312418
0.307503
0.310622
0.314543
0.314491
0.31424
0.308884
0.307664
0.310364
0.306486
0.295605
0.282181
0.28564
0.277222
0.289569
0.288524
0.294105
0.29332
0.291661
0.293864
0.274792
0.273933
0.287306
0.273759
0.273393
0.287935
0.273268
0.297268
0.294548
0.29744
0.279262
0.26901
0.262235
0.264692
0.267284
0.268401
0.275198
0.303701
0.30199
0.295375
0.357731
0.35858
0.363936
0.253774
0.254266
0.306401
0.311062
0.308173
0.309647
0.271601
0.270968
0.271715
0.269786
0.250874
0.241609
0.23935
0.254042
0.3232
0.327017
0.333438
0.330676
0.331223
0.327414
0.409368
0.415284
0.405655
0.237202
0.235656
0.272305
0.276006
0.285206
0.315331
0.311306
0.313433
0.294891
0.297134
0.294315
0.292467
0.326896
0.322754
0.314265
0.316784
0.304489
0.303015
0.276391
0.274147
0.276735
0.276411
0.273263
0.273962
0.352561
0.353776
0.341401
0.290579
0.288024
0.225877
0.235872
0.227327
0.251501
0.251029
0.279232
0.280244
0.281766
0.235492
0.275635
0.267722
0.267519
0.242806
0.240492
0.238581
0.239211
0.249182
0.243643
0.262207
0.257437
0.257468
0.244051
0.243048
0.252263
0.378875
0.381056
0.258623
0.264859
0.269625
0.270028
0.256824
0.255179
0.273457
0.269393
0.270389
0.238898
0.239509
0.31454
0.291719
0.285701
0.287934
0.308637
0.309965
0.305917
0.308312
0.265669
0.26361
0.286413
0.283874
0.246097
0.24451
0.443029
0.445772
0.246981
0.24038
0.241251
0.381331
0.369632
0.373621
0.307196
0.303271
0.296255
0.260207
0.255279
0.250274
0.246177
0.25061
0.247498
0.293047
0.288135
0.293584
0.288277
0.277174
0.284023
0.291086
0.294737
0.296434
0.296134
0.305469
0.301797
0.29851
0.28251
0.280911
0.259747
0.257703
0.261081
0.253171
0.237964
0.234068
0.247166
0.241137
0.231191
0.255695
0.246667
0.23848
0.247831
0.255042
0.241963
0.240487
0.252567
0.245358
0.245155
0.246566
0.247544
0.239924
0.243384
0.250032
0.247135
0.253361
0.251768
0.256574
0.25661
0.267192
0.268016
0.256855
0.256235
0.255536
0.240248
0.241496
0.235626
0.237812
0.269671
0.275896
0.276075
0.287369
0.287774
0.289085
0.286242
0.287098
0.282112
0.285155
0.285237
0.280888
0.27593
0.276414
0.279617
0.276764
0.27932
0.279082
0.276484
0.282651
0.278205
0.278348
0.278251
0.277454
0.280223
0.281546
0.290267
0.285974
0.283947
0.283351
0.283755
0.284899
0.308406
0.309418
0.31242
0.300336
0.295415
0.293887
0.299318
0.304462
0.302543
0.306065
0.300441
0.296972
0.297021
0.302607
0.300567
0.304717
0.306441
0.307158
0.294148
0.300804
0.303043
0.303516
0.30246
0.301732
0.301868
0.29851
0.301178
0.29939
0.298461
0.301702
0.30351
0.303673
0.295428
0.296044
0.29564
0.284111
0.285564
0.315762
0.305947
0.311002
0.309782
0.311959
0.287638
0.288654
0.294152
0.285408
0.292304
0.292548
0.299323
0.290221
0.296786
0.293297
0.2956
0.284441
0.290424
0.292638
0.295807
0.300589
0.280982
0.272396
0.262989
0.28341
0.275541
0.283049
0.288882
0.287247
0.278988
0.2978
0.297434
0.290835
0.292205
0.287977
0.279314
0.281672
0.284308
0.284576
0.289582
0.298261
0.295457
0.315179
0.318415
0.309194
0.27079
0.271495
0.278794
0.292209
0.29964
0.299678
0.293477
0.28362
0.284727
0.282487
0.286841
0.281939
0.27546
0.283241
0.286499
0.283665
0.294468
0.285488
0.299094
0.301377
0.307172
0.299571
0.29572
0.30132
0.307722
0.304449
0.298162
0.299867
0.290126
0.281881
0.293142
0.294518
0.298955
0.290765
0.287603
0.296734
0.295342
0.25035
0.246191
0.244839
0.247889
0.246551
0.255479
0.249929
0.252109
0.24334
0.245433
0.246369
0.247481
0.253574
0.249224
0.252602
0.250582
0.256344
0.252936
0.251818
0.265526
0.266369
0.267152
0.254807
0.254397
0.257747
0.2667
0.267792
0.252582
0.270964
0.265488
0.261109
0.264963
0.263347
0.262305
0.253694
0.256325
0.239783
0.247215
0.257507
0.25617
0.257715
0.250086
0.239478
0.244503
0.240228
0.3239
0.316882
0.313735
0.305766
0.304358
0.291964
0.286717
0.298763
0.286721
0.288451
0.296211
0.298422
0.293576
0.304463
0.300036
0.301135
0.286025
0.302258
0.296412
0.299635
0.315773
0.305424
0.300146
0.309124
0.296589
0.302398
0.313183
0.297509
0.307036
0.30196
0.298204
0.299108
0.295334
0.3026
0.293452
0.296565
0.295613
0.297686
0.299222
0.299972
0.294761
0.300372
0.299376
0.381762
0.391631
0.386317
0.379998
0.370238
0.372083
0.367935
0.371985
0.375673
0.369556
0.3911
0.395576
0.383013
0.385132
0.370568
0.343174
0.344318
0.350697
0.356238
0.33979
0.349417
0.357144
0.356853
0.3587
0.352871
0.238636
0.247863
0.237629
0.255505
0.259569
0.24968
0.251446
0.236126
0.247139
0.236282
0.242283
0.234507
0.237233
0.237587
0.252204
0.250399
0.244394
0.241033
0.244077
0.25185
0.244927
0.244427
0.242254
0.244925
0.302977
0.313017
0.305523
0.30925
0.319453
0.316329
0.358563
0.326434
0.334478
0.328718
0.329141
0.414268
0.426059
0.415552
0.436676
0.430599
0.434807
0.420496
0.427474
0.439668
0.435026
0.440814
0.427302
0.414255
0.4047
0.426308
0.424623
0.426399
0.425958
0.41397
0.415136
0.434124
0.429298
0.419597
0.438426
0.423652
0.234763
0.242588
0.23985
0.246722
0.239336
0.235513
0.253825
0.236087
0.240942
0.241287
0.234982
0.251076
0.245999
0.243148
0.243345
0.246547
0.243915
0.244599
0.244629
0.251055
0.24606
0.251386
0.244463
0.245822
0.246445
0.244389
0.24476
0.239907
0.244666
0.240976
0.238914
0.238081
0.24132
0.24637
0.243041
0.245159
0.246801
0.239815
0.242258
0.240479
0.243156
0.24293
0.238638
0.240462
0.273958
0.260954
0.256599
0.271297
0.279738
0.290501
0.284381
0.286887
0.280592
0.286221
0.279208
0.280209
0.281833
0.302442
0.297521
0.28402
0.292274
0.287762
0.288554
0.283845
0.278266
0.272556
0.281547
0.275311
0.272124
0.265792
0.262362
0.257189
0.262613
0.261582
0.265107
0.270712
0.26326
0.258899
0.26211
0.261756
0.260477
0.266531
0.265607
0.269152
0.264556
0.261909
0.264999
0.263872
0.26825
0.27136
0.267404
0.266527
0.264936
0.264473
0.269069
0.262425
0.260789
0.260732
0.260819
0.260024
0.261039
0.26255
0.304977
0.308035
0.30516
0.307744
0.304434
0.298341
0.305208
0.304821
0.304666
0.296993
0.304128
0.304175
0.315146
0.312954
0.307913
0.307796
0.304438
0.306727
0.30823
0.302606
0.30234
0.301853
0.282019
0.283876
0.278917
0.276186
0.287922
0.285237
0.282286
0.291909
0.291238
0.292193
0.287475
0.285387
0.285032
0.280365
0.292765
0.338611
0.335924
0.316886
0.33196
0.321162
0.317557
0.30032
0.314183
0.304978
0.297894
0.309672
0.303874
0.310244
0.315581
0.312607
0.318949
0.324557
0.334354
0.314982
0.310327
0.316667
0.314809
0.32424
0.316949
0.312701
0.314563
0.30128
0.316558
0.310647
0.319743
0.247883
0.241191
0.243988
0.233888
0.243947
0.236838
0.244987
0.244248
0.241176
0.233732
0.235822
0.230183
0.231593
0.23983
0.232859
0.23317
0.236252
0.244689
0.242645
0.247484
0.246094
0.279347
0.279371
0.276517
0.27175
0.271732
0.275379
0.273948
0.27241
0.271229
0.272991
0.27152
0.272106
0.266727
0.270296
0.26602
0.268435
0.269767
0.280028
0.276008
0.260292
0.268923
0.266883
0.268949
0.27079
0.273023
0.276403
0.273217
0.267309
0.260707
0.264306
0.262329
0.255174
0.257055
0.249254
0.247693
0.252025
0.246195
0.261251
0.26563
0.263687
0.25863
0.258624
0.254529
0.259262
0.252897
0.252544
0.249706
0.25217
0.257602
0.258651
0.24869
0.25526
0.262092
0.254491
0.252025
0.254563
0.269164
0.273601
0.268414
0.271206
0.268312
0.253829
0.262381
0.260436
0.262123
0.25508
0.256527
0.252063
0.26006
0.262613
0.2566
0.253552
0.25083
0.258222
0.257697
0.264619
0.260106
0.355391
0.3669
0.368497
0.391226
0.373959
0.38305
0.381034
0.243597
0.244282
0.258247
0.242041
0.255781
0.257731
0.250456
0.253393
0.24706
0.249006
0.256837
0.256985
0.255616
0.253164
0.252048
0.251274
0.254985
0.255321
0.252069
0.254563
0.253379
0.252904
0.256531
0.25435
0.253865
0.257021
0.25801
0.260389
0.261817
0.26224
0.256476
0.250731
0.253727
0.255348
0.258949
0.257046
0.261931
0.260657
0.262027
0.268279
0.262585
0.264214
0.263404
0.26308
0.267314
0.263142
0.253603
0.251902
0.248691
0.253912
0.2513
0.257956
0.246124
0.239605
0.24893
0.243786
0.244512
0.239878
0.246195
0.26524
0.255424
0.250149
0.243293
0.252031
0.240832
0.242013
0.234786
0.236149
0.242515
0.240824
0.238818
0.238267
0.244809
0.252506
0.239627
0.251438
0.249897
0.246172
0.242505
0.246009
0.233477
0.236224
0.235995
0.237824
0.244003
0.240671
0.239965
0.241184
0.241361
0.236424
0.242872
0.235562
0.238082
0.233191
0.236534
0.242726
0.244453
0.244008
0.240852
0.243447
0.248034
0.250519
0.239707
0.23934
0.266673
0.267579
0.268503
0.265
0.263343
0.258653
0.255751
0.265083
0.267972
0.264973
0.262246
0.257026
0.256698
0.231892
0.237396
0.230976
0.231763
0.28139
0.28076
0.28385
0.285215
0.282196
0.28074
0.255199
0.254389
0.257254
0.263471
0.259716
0.257452
0.255744
0.253617
0.239711
0.245335
0.25308
0.248879
0.250946
0.247257
0.256818
0.251875
0.248526
0.250245
0.224414
0.235119
0.23207
0.227735
0.229305
0.231135
0.298074
0.314661
0.301006
0.295119
0.290017
0.291104
0.289127
0.279587
0.28416
0.283194
0.280418
0.290625
0.279119
0.285111
0.282236
0.286615
0.287538
0.289238
0.28789
0.292665
0.285201
0.279071
0.283053
0.286455
0.287111
0.284655
0.291387
0.296842
0.299001
0.285408
0.291148
0.291308
0.284535
0.290376
0.291587
0.382099
0.374387
0.364138
0.357662
0.358604
0.329396
0.329038
0.333154
0.332507
0.32959
0.346807
0.3386
0.336694
0.376602
0.367794
0.362468
0.369876
0.360988
0.339156
0.348619
0.352193
0.354344
0.347272
0.335152
0.330985
0.328179
0.353558
0.346407
0.271423
0.275701
0.270638
0.271308
0.271754
0.265011
0.2662
0.269304
0.264279
0.266735
0.271713
0.272901
0.271786
0.271566
0.278479
0.276981
0.277517
0.274651
0.280834
0.280419
0.267026
0.276699
0.28058
0.287011
0.286454
0.282648
0.279169
0.285067
0.267115
0.270268
0.288283
0.298611
0.292803
0.297533
0.276998
0.285471
0.284709
0.301185
0.295665
0.302211
0.299959
0.30448
0.309023
0.302447
0.306422
0.304606
0.299273
0.30209
0.300496
0.301084
0.301971
0.299334
0.301032
0.29993
0.301109
0.300964
0.30141
0.298686
0.3009
0.301667
0.304508
0.303268
0.301383
0.303906
0.304989
0.301887
0.324818
0.328726
0.315632
0.334782
0.300145
0.305515
0.294716
0.300674
0.302015
0.292489
0.29354
0.289969
0.313726
0.298888
0.304277
0.305228
0.31412
0.299051
0.306995
0.311424
0.305665
0.315271
0.312247
0.317296
0.30872
0.333206
0.319398
0.322398
0.309374
0.310518
0.314201
0.307252
0.316672
0.316417
0.345405
0.345691
0.333222
0.332481
0.324489
0.323636
0.31163
0.333763
0.323529
0.322976
0.331085
0.320217
0.323623
0.345453
0.339518
0.347282
0.337029
0.331067
0.32534
0.329383
0.331779
0.326654
0.320435
0.319412
0.330173
0.334201
0.330667
0.324998
0.323408
0.327161
0.316492
0.317558
0.315202
0.325499
0.319774
0.319079
0.313492
0.319273
0.310569
0.295165
0.292115
0.292268
0.292887
0.28995
0.293381
0.293115
0.290242
0.293174
0.29103
0.294226
0.293991
0.289171
0.298456
0.295925
0.298789
0.298025
0.299112
0.312335
0.314784
0.311731
0.311318
0.31201
0.308491
0.315467
0.313587
0.308986
0.30946
0.308824
0.310116
0.317736
0.318696
0.319139
0.313004
0.312729
0.315777
0.317098
0.237722
0.228714
0.233354
0.233257
0.232855
0.232284
0.273514
0.264232
0.270204
0.284884
0.275421
0.285038
0.26999
0.28319
0.241507
0.245411
0.242507
0.242646
0.245602
0.245263
0.24327
0.244349
0.241321
0.24148
0.23732
0.240875
0.239092
0.238321
0.241366
0.241248
0.237807
0.237555
0.381944
0.37729
0.371914
0.364417
0.355895
0.339723
0.364805
0.364028
0.374702
0.371715
0.338287
0.35077
0.343422
0.354411
0.353897
0.34247
0.343215
0.349066
0.413548
0.398816
0.412202
0.323508
0.320275
0.321367
0.322047
0.313012
0.304976
0.318208
0.328712
0.312351
0.338243
0.321667
0.341847
0.325571
0.314023
0.324345
0.31192
0.345947
0.352437
0.342146
0.338324
0.332212
0.342934
0.319962
0.321002
0.315072
0.315988
0.3163
0.31566
0.307495
0.321415
0.253715
0.256581
0.246194
0.250973
0.257381
0.256159
0.242429
0.259395
0.253632
0.248936
0.257007
0.264053
0.258813
0.259527
0.266999
0.261913
0.271241
0.270014
0.271676
0.260687
0.260599
0.266144
0.265334
0.303683
0.308183
0.29982
0.305914
0.30656
0.303126
0.304074
0.303525
0.305445
0.245689
0.24499
0.249084
0.247834
0.25814
0.256265
0.254275
0.255447
0.253619
0.254959
0.256109
0.256303
0.249412
0.25463
0.253862
0.248972
0.24908
0.252495
0.253453
0.249201
0.246817
0.252366
0.247789
0.248519
0.250217
0.251192
0.370485
0.357822
0.3747
0.376053
0.359083
0.374724
0.360571
0.367394
0.373236
0.346175
0.348014
0.340922
0.34406
0.346394
0.355977
0.352944
0.345616
0.355515
0.352275
0.354144
0.360982
0.363624
0.359225
0.362951
0.375495
0.364067
0.307119
0.304068
0.299677
0.30666
0.299759
0.295847
0.305236
0.298214
0.294993
0.290743
0.294312
0.292262
0.296936
0.301629
0.298677
0.312174
0.301569
0.300845
0.307914
0.307222
0.277673
0.273059
0.267931
0.270036
0.267613
0.254593
0.27377
0.27003
0.258032
0.263337
0.261131
0.265562
0.263894
0.242544
0.259042
0.243942
0.243994
0.245551
0.244923
0.259604
0.258602
0.257427
0.259891
0.261581
0.255835
0.251467
0.257587
0.27321
0.262497
0.265266
0.263883
0.266796
0.268512
0.265845
0.271547
0.260741
0.263142
0.255939
0.261983
0.254354
0.278234
0.279417
0.27265
0.269408
0.273907
0.264995
0.27208
0.291903
0.298387
0.286483
0.289076
0.277224
0.284818
0.278965
0.27652
0.278469
0.271457
0.271428
0.273994
0.292903
0.287827
0.289984
0.287603
0.289688
0.292387
0.291485
0.292317
0.291807
0.292661
0.295133
0.290371
0.291489
0.296701
0.29241
0.292286
0.294493
0.29102
0.289883
0.291127
0.288543
0.296584
0.294568
0.293447
0.29531
0.296502
0.299962
0.295653
0.295692
0.297525
0.300505
0.299476
0.297265
0.293056
0.301178
0.299926
0.302243
0.300326
0.299115
0.295285
0.298114
0.295934
0.297215
0.294215
0.301934
0.299869
0.297226
0.292434
0.294625
0.295741
0.295719
0.293746
0.293829
0.291213
0.289292
0.290062
0.291839
0.290066
0.288479
0.32035
0.321319
0.329879
0.326839
0.312369
0.310075
0.307265
0.312106
0.335698
0.339721
0.327778
0.339787
0.338145
0.340435
0.33969
0.337703
0.329864
0.332204
0.348877
0.349105
0.340056
0.329217
0.345184
0.331976
0.333716
0.332157
0.332926
0.322467
0.313433
0.314244
0.313392
0.309485
0.321498
0.315212
0.323525
0.33392
0.309001
0.317596
0.328943
0.32271
0.30827
0.386826
0.371949
0.371139
0.385501
0.380919
0.380099
0.368641
0.367035
0.260247
0.2564
0.25656
0.252512
0.240661
0.245627
0.244671
0.245606
0.240047
0.242936
0.244062
0.241619
0.24145
0.24125
0.249646
0.243026
0.244329
0.243605
0.246018
0.309035
0.306447
0.306615
0.304032
0.310727
0.303905
0.306951
0.309946
0.308038
0.227511
0.230883
0.332949
0.31472
0.322304
0.331321
0.327804
0.340131
0.336614
0.334232
0.325862
0.385004
0.372351
0.371509
0.397158
0.399518
0.405878
0.380929
0.388745
0.410764
0.399765
0.392533
0.396026
0.379428
0.406717
0.404562
0.382599
0.411359
0.261214
0.261067
0.256072
0.259754
0.272126
0.260033
0.270486
0.266957
0.262397
0.257838
0.262183
0.262852
0.275506
0.267417
0.273783
0.264401
0.264486
0.271152
0.239041
0.238018
0.235583
0.231057
0.231253
0.228923
0.315654
0.315896
0.318137
0.317367
0.319254
0.319733
0.317891
0.328251
0.325141
0.322052
0.307564
0.308005
0.307784
0.311706
0.311025
0.307423
0.311343
0.307195
0.309679
0.306519
0.310052
0.310272
0.326881
0.330866
0.289856
0.271124
0.266116
0.263034
0.272618
0.277047
0.294802
0.29824
0.291857
0.288023
0.275172
0.273251
0.291964
0.286888
0.323888
0.336411
0.344844
0.324962
0.333611
0.333911
0.297847
0.292125
0.291688
0.299204
0.298708
0.297382
0.292113
0.287172
0.298963
0.29623
0.295902
0.298126
0.298358
0.297735
0.296726
0.287783
0.292021
0.294555
0.286069
0.289037
0.282321
0.290584
0.288038
0.289485
0.288368
0.283685
0.282741
0.282168
0.269591
0.26327
0.263732
0.264968
0.264501
0.267768
0.274109
0.280511
0.277597
0.277076
0.2704
0.2763
0.277341
0.269486
0.278461
0.273912
0.275193
0.268668
0.277726
0.276448
0.381871
0.383159
0.401901
0.398997
0.367803
0.363541
0.310257
0.302971
0.315189
0.312993
0.317627
0.308403
0.301907
0.295063
0.296946
0.295978
0.290747
0.296573
0.296359
0.305124
0.300638
0.306964
0.302385
0.293789
0.291023
0.301362
0.305609
0.285857
0.285274
0.280056
0.281257
0.28295
0.284578
0.309508
0.230293
0.231043
0.229808
0.232092
0.238535
0.235918
0.229764
0.227334
0.233223
0.238196
0.233042
0.231303
0.233031
0.248755
0.24936
0.248499
0.24774
0.246173
0.251384
0.24638
0.245907
0.245623
0.246965
0.245307
0.245336
0.244562
0.234431
0.239909
0.237581
0.234199
0.237275
0.233299
0.235662
0.266885
0.266554
0.265911
0.267764
0.257015
0.252221
0.258818
0.258457
0.265346
0.26315
0.329487
0.357297
0.347067
0.364869
0.359194
0.26081
0.256338
0.253621
0.263888
0.256033
0.257044
0.251038
0.253279
0.254404
0.254911
0.256374
0.255907
0.265824
0.26301
0.260747
0.2638
0.264852
0.264235
0.254092
0.256052
0.259895
0.260579
0.257047
0.250704
0.24787
0.248446
0.249
0.250597
0.252697
0.249923
0.249739
0.249567
0.25113
0.26987
0.280187
0.276994
0.270107
0.268784
0.278068
0.276726
0.277958
0.311452
0.279626
0.287749
0.284823
0.285501
0.290453
0.289262
0.28747
0.289384
0.286537
0.281586
0.282207
0.27891
0.282286
0.283062
0.284947
0.283957
0.280326
0.297087
0.30712
0.305484
0.300793
0.311218
0.305208
0.299153
0.300723
0.309035
0.304994
0.301083
0.302573
0.299514
0.299981
0.301685
0.304688
0.301021
0.30178
0.302677
0.302118
0.301152
0.272325
0.270587
0.274844
0.275308
0.271407
0.268587
0.27053
0.270822
0.274181
0.273952
0.273174
0.271967
0.272516
0.27373
0.271708
0.284292
0.297959
0.289727
0.293238
0.283477
0.287189
0.283324
0.254107
0.259617
0.2586
0.264343
0.257789
0.259591
0.264883
0.263725
0.257698
0.258928
0.266484
0.265434
0.259992
0.262357
0.261816
0.375713
0.403155
0.401443
0.386604
0.317635
0.322313
0.319763
0.320871
0.321876
0.324979
0.319321
0.242991
0.239139
0.23315
0.237228
0.233161
0.238616
0.245172
0.237254
0.240034
0.236752
0.243988
0.323077
0.339178
0.336532
0.344618
0.33914
0.340731
0.335239
0.326198
0.406165
0.407545
0.417586
0.412099
0.400484
0.390663
0.380946
0.402805
0.393393
0.414032
0.405452
0.403911
0.401515
0.387855
0.396426
0.386599
0.389818
0.402433
0.311796
0.311392
0.311588
0.308175
0.310715
0.31897
0.321359
0.254843
0.257756
0.2654
0.26039
0.266173
0.260194
0.269621
0.262792
0.262448
0.267038
0.261023
0.271109
0.282098
0.283523
0.272805
0.268448
0.272786
0.276099
0.277951
0.279532
0.286323
0.286193
0.29221
0.276096
0.277501
0.296894
0.305959
0.306707
0.300784
0.305192
0.29574
0.297328
0.308157
0.310091
0.273349
0.268689
0.269367
0.272905
0.280474
0.277066
0.274333
0.270282
0.279018
0.278862
0.281496
0.277655
0.280974
0.277949
0.281225
0.283157
0.276878
0.284267
0.285316
0.281384
0.2761
0.276407
0.275904
0.278801
0.273769
0.278833
0.278409
0.303516
0.303318
0.317404
0.316737
0.315265
0.314244
0.228945
0.233969
0.234455
0.238489
0.237958
0.29723
0.295479
0.2903
0.288535
0.277707
0.273534
0.274026
0.290728
0.281719
0.276857
0.272787
0.281365
0.285379
0.274868
0.277401
0.276295
0.278529
0.280132
0.282334
0.281944
0.280553
0.282313
0.282951
0.279922
0.238364
0.240177
0.237874
0.239191
0.248956
0.244557
0.244981
0.246414
0.248578
0.244541
0.243681
0.245873
0.24561
0.247504
0.246001
0.306644
0.303841
0.299917
0.30402
0.310683
0.305828
0.300456
0.30092
0.307543
0.307928
0.396737
0.378428
0.384796
0.393944
0.393468
0.379192
0.391351
0.38608
0.395893
0.297774
0.295374
0.295948
0.295962
0.292983
0.293471
0.291218
0.296999
0.251969
0.236267
0.237101
0.248947
0.23527
0.238492
0.238939
0.245392
0.24027
0.231677
0.241953
0.227971
0.224974
0.228932
0.230271
0.2311
0.237534
0.238854
0.23739
0.233031
0.233216
0.239993
0.238464
0.243386
0.24207
0.240088
0.236954
0.228844
0.237169
0.23991
0.234573
0.233063
0.246266
0.260109
0.251881
0.257268
0.248631
0.245529
0.254693
0.250956
0.24918
0.259914
0.26088
0.252767
0.255141
0.25155
0.264489
0.253798
0.248588
0.253855
0.246931
0.242799
0.248072
0.256805
0.250171
0.250668
0.253478
0.254167
0.23571
0.237161
0.232326
0.229183
0.24447
0.243683
0.242747
0.240564
0.241321
0.242017
0.242507
0.277918
0.277737
0.271418
0.277027
0.276541
0.272614
0.274681
0.27548
0.280316
0.275733
0.27931
0.279751
0.281294
0.281625
0.280922
0.280294
0.277797
0.278432
0.284046
0.299059
0.230416
0.285501
0.289495
0.290799
0.282779
0.28993
0.290807
0.286217
0.290809
0.288628
0.29134
0.278529
0.287246
0.273423
0.257111
0.2697
0.262467
0.275131
0.273974
0.273043
0.265089
0.266141
0.264059
0.260639
0.259615
0.298277
0.297296
0.284268
0.285551
0.285354
0.290811
0.300023
0.300326
0.289365
0.277013
0.27848
0.276831
0.281223
0.285179
0.277752
0.271781
0.271764
0.289795
0.29092
0.28693
0.310504
0.294983
0.284185
0.297834
0.294681
0.310098
0.302191
0.299579
0.290135
0.305298
0.297301
0.293082
0.358216
0.349584
0.352439
0.350078
0.361325
0.358338
0.370432
0.368927
0.369793
0.243779
0.241227
0.235446
0.246493
0.246179
0.250823
0.243441
0.256707
0.25642
0.250914
0.245367
0.243851
0.250398
0.253986
0.30843
0.306856
0.30774
0.301574
0.313264
0.239429
0.262431
0.253859
0.270168
0.272678
0.28245
0.280564
0.274999
0.275962
0.267422
0.268401
0.257145
0.282174
0.275677
0.279532
0.281345
0.271298
0.276322
0.278973
0.272661
0.271997
0.276029
0.279001
0.275028
0.282451
0.269951
0.285026
0.284708
0.258206
0.262861
0.262415
0.256712
0.255759
0.254692
0.257576
0.254146
0.256484
0.253219
0.25454
0.264491
0.268125
0.268778
0.264187
0.262075
0.268269
0.269835
0.270456
0.265971
0.265714
0.26888
0.268062
0.26867
0.260337
0.259474
0.256687
0.254257
0.258144
0.254904
0.257027
0.259202
0.25609
0.254658
0.305995
0.30606
0.307187
0.310148
0.312739
0.309062
0.302059
0.304123
0.304963
0.304978
0.304262
0.305194
0.303125
0.30418
0.272039
0.280323
0.283998
0.277246
0.275343
0.286643
0.279462
0.27985
0.291661
0.293597
0.296724
0.280853
0.284258
0.292168
0.290881
0.282806
0.283307
0.301348
0.298326
0.310781
0.311097
0.312706
0.316364
0.303283
0.299139
0.315639
0.317696
0.301133
0.2979
0.305679
0.298062
0.294483
0.300991
0.302065
0.27159
0.273933
0.277304
0.276049
0.270673
0.272205
0.281398
0.26983
0.274717
0.271274
0.264154
0.27036
0.269285
0.265238
0.267161
0.265485
0.271648
0.273188
0.271376
0.271446
0.266201
0.257455
0.262135
0.263612
0.357179
0.363158
0.379519
0.359059
0.362855
0.378506
0.376661
0.379004
0.369847
0.356259
0.35547
0.364794
0.360288
0.244969
0.252158
0.251529
0.249076
0.248276
0.241006
0.236478
0.244578
0.246189
0.235288
0.2348
0.240832
0.242799
0.240543
0.230902
0.232916
0.234065
0.240779
0.232538
0.229481
0.232894
0.23502
0.235485
0.236308
0.235824
0.236283
0.240724
0.237905
0.23753
0.239934
0.237565
0.243441
0.23299
0.224184
0.23504
0.235959
0.241529
0.242929
0.235614
0.230707
0.244505