/*--------------------------------*- C++ -*----------------------------------*\
| =========                 |                                                 |
| \\      /  F ield         | OpenFOAM: The Open Source CFD Toolbox           |
|  \\    /   O peration     | Version:  v1612+                                |
|   \\  /    A nd           | Web:      www.OpenFOAM.com                      |
|    \\/     M anipulation  |                                                 |
\*---------------------------------------------------------------------------*/
FoamFile
{
    version     2.0;
    format      ascii;
    class       surfaceScalarField;
    location    "100";
    object      phi;
}
// * * * * * * * * * * * * * * * * * * * * * * * * * * * * * * * * * * * * * //

dimensions      [0 3 -1 0 0 0 0];

internalField   nonuniform List<scalar> 
37564
(
5.79832e-10
-1.18744e-09
3.41048e-09
-2.80284e-09
2.35178e-10
-6.16338e-09
-1.49116e-09
7.41931e-09
-6.78169e-09
6.96304e-09
-3.54371e-09
3.36236e-09
3.44796e-09
-6.18091e-09
-4.04873e-09
6.59536e-09
4.46565e-09
-2.71474e-09
-8.34626e-09
1.66972e-09
4.24933e-09
6.7631e-10
-5.43083e-09
3.44498e-09
8.9489e-09
-3.13135e-10
4.1294e-09
-3.40021e-09
-6.91011e-09
9.7949e-10
-3.93794e-10
8.26512e-09
3.88505e-10
-4.18795e-09
5.82769e-09
6.68674e-09
-5.32309e-09
9.93151e-10
1.01577e-08
-7.12619e-09
-3.88475e-10
2.1916e-09
1.71292e-09
-7.82786e-09
-3.28651e-09
-3.45116e-09
-3.83578e-09
8.27392e-09
-5.09097e-09
8.66732e-10
-5.47815e-09
3.90457e-09
3.63981e-10
-5.2834e-09
-5.58703e-10
-2.06909e-10
1.33962e-10
-1.19733e-09
-3.68918e-09
4.7525e-09
-1.68974e-09
-5.88815e-09
7.71181e-09
2.15869e-09
1.01956e-09
-5.92969e-09
2.75139e-09
-3.54263e-09
4.50398e-09
-6.25218e-09
5.58197e-09
1.13523e-09
-4.87107e-09
-2.15237e-09
-2.33485e-09
-2.19146e-10
-2.42336e-09
-4.89918e-10
-6.29423e-10
-1.98362e-09
-5.99134e-09
2.04523e-09
-3.1107e-09
-1.29631e-09
-2.41398e-09
-1.7963e-09
-2.04194e-09
-7.19085e-09
-5.23012e-09
1.00069e-08
-2.34901e-09
-4.75829e-10
-1.94662e-09
-5.84105e-09
4.21478e-10
-5.47883e-09
-2.10746e-09
-4.80561e-09
-4.035e-09
8.99773e-10
1.03384e-08
8.75732e-11
-1.13257e-08
4.0924e-10
-1.39497e-08
1.44403e-08
7.6642e-10
-5.45295e-09
5.76992e-09
-1.08341e-09
-7.47189e-09
8.64754e-09
6.60133e-10
2.08953e-09
-5.00907e-09
2.25926e-09
6.20301e-09
-5.71287e-09
-6.83176e-09
6.34161e-09
-2.8857e-09
1.07575e-08
5.64677e-11
-7.92828e-09
-4.08546e-09
-3.11307e-09
-6.03188e-09
1.32304e-08
3.97741e-09
7.11696e-10
-6.03741e-09
-2.14626e-09
-4.29217e-09
-4.49106e-10
2.10851e-09
4.46011e-09
-4.47911e-09
4.72446e-09
-1.97439e-09
-6.41585e-10
-7.05385e-09
7.42851e-09
9.76909e-10
3.44621e-10
-7.35892e-09
8.34356e-09
-1.23537e-08
-9.93959e-09
1.3163e-09
-8.84046e-10
1.72244e-08
-8.66506e-09
-6.64529e-11
-8.49259e-09
-1.45366e-08
1.54033e-08
1.63579e-08
-7.97143e-09
-1.52302e-08
1.97027e-09
6.54712e-09
-1.48539e-08
6.33667e-09
5.86182e-09
-1.18629e-08
1.84058e-08
-9.11616e-09
-9.35594e-09
-1.48686e-09
-1.49657e-08
-3.10455e-09
1.95575e-08
-3.49573e-09
-1.12072e-08
1.32162e-08
1.53897e-09
1.03688e-08
4.95879e-09
1.4986e-08
2.44222e-09
-1.45181e-08
8.68818e-10
-1.69913e-08
4.46798e-09
-2.97837e-09
-5.67787e-09
1.31132e-08
-9.54435e-09
-1.75207e-08
1.93751e-08
4.74198e-10
-4.35207e-09
-3.07185e-09
-1.39746e-08
-5.46206e-09
1.6476e-08
-1.01718e-08
-8.41857e-10
1.15299e-08
-1.33837e-08
-3.60816e-09
-3.52843e-09
7.34937e-09
1.26551e-08
9.08797e-10
7.09277e-09
7.7552e-09
-7.21775e-09
-1.3921e-08
1.25145e-08
1.39052e-09
-6.14978e-09
5.29419e-09
8.12919e-09
-6.34173e-09
-2.03446e-09
-1.62844e-08
2.46608e-08
-1.59014e-08
-7.23589e-09
-1.62697e-08
7.60421e-09
1.51929e-08
6.08899e-11
-2.24895e-08
-1.54195e-08
9.23873e-09
-3.99108e-09
2.74967e-10
-2.29121e-08
-1.54843e-08
2.07993e-08
-8.25325e-09
7.16187e-09
-7.75428e-09
-7.12482e-09
-1.07219e-08
4.4764e-09
1.89498e-08
-2.69635e-08
8.28863e-09
-2.5344e-11
4.85652e-09
-1.16644e-08
1.14783e-08
-4.67042e-09
-1.08085e-08
1.37996e-08
1.86545e-09
4.37389e-09
-6.58434e-09
-9.45398e-09
2.04986e-09
-3.15042e-09
-9.70782e-09
4.28783e-09
3.09489e-09
4.09534e-09
1.04788e-08
-1.89488e-08
-5.83302e-10
9.05345e-09
6.65542e-09
1.26709e-08
-8.84754e-09
1.37451e-08
-2.71574e-09
1.25175e-08
-3.4538e-09
-7.01381e-09
-3.77788e-09
-5.37451e-09
1.69267e-08
-7.77451e-09
-6.91729e-09
7.42716e-09
5.5745e-09
9.46618e-10
1.24023e-08
-6.93848e-09
1.40814e-08
-1.37461e-08
2.80414e-09
1.69351e-08
-9.92049e-09
-9.81873e-09
2.13255e-08
-1.01778e-08
-8.75656e-09
1.28667e-08
1.2825e-08
9.74307e-09
2.8259e-09
5.97355e-10
-3.69709e-10
-1.01481e-08
7.48006e-10
-1.03284e-08
-8.26059e-09
1.15977e-08
6.40596e-09
1.1656e-08
-9.98966e-12
-1.0898e-08
2.39582e-10
2.18482e-08
-2.24575e-08
5.50422e-10
1.69342e-08
-1.72451e-08
3.76029e-09
-3.64911e-10
2.23375e-09
-8.73631e-09
1.93692e-08
-6.97126e-09
2.08027e-08
8.79395e-09
-8.25352e-09
-5.39648e-09
1.85083e-08
4.48467e-09
7.05304e-09
-7.59434e-09
4.38334e-09
5.68429e-09
7.50976e-10
1.40393e-08
-1.33378e-09
-1.34565e-08
-8.89363e-09
1.00874e-08
-4.42758e-10
4.53613e-10
-4.942e-09
-4.40514e-09
1.01184e-08
5.9198e-09
-1.99888e-09
1.21608e-08
8.04492e-09
1.12545e-08
1.31849e-09
-1.86542e-08
6.08131e-09
1.03973e-08
-3.32221e-09
4.17933e-09
-4.70726e-09
1.42541e-08
-9.09311e-09
-2.31137e-09
-1.58268e-09
1.60549e-08
-3.09851e-09
6.70692e-09
1.89352e-08
-3.38659e-09
-9.88952e-09
-5.6591e-09
-1.26889e-09
3.99559e-09
1.62085e-08
1.28282e-08
-1.6217e-08
-2.16448e-09
1.48359e-08
-1.84489e-08
1.50155e-08
-9.00725e-09
-1.03639e-08
1.12609e-08
-9.85609e-09
3.43525e-09
-5.52431e-10
-7.79299e-09
4.91009e-09
-8.27594e-09
9.828e-09
1.88314e-09
-1.35986e-08
7.07873e-09
5.96749e-09
-1.16677e-08
-8.05084e-09
1.14425e-08
-1.51287e-08
-4.33207e-09
-1.51417e-08
9.13902e-09
-8.24372e-10
6.82696e-09
-6.66912e-09
-5.82569e-09
-8.21302e-09
2.07078e-08
1.32131e-08
-9.45464e-09
-1.04276e-08
1.67036e-08
-7.62346e-09
4.13293e-09
-1.09632e-08
-7.45916e-09
4.82355e-09
-1.01484e-08
6.21481e-09
-7.02962e-09
-8.95585e-09
-1.20115e-08
4.2758e-09
4.37698e-09
-9.7458e-09
7.57147e-09
-5.44919e-09
-1.20727e-09
-1.79932e-08
-1.00272e-08
-6.38779e-09
-2.13829e-08
-1.34238e-09
-2.77549e-09
4.32437e-09
-5.50171e-10
-9.98768e-10
2.14152e-09
-8.51111e-10
-4.06583e-09
-9.23092e-10
3.11513e-09
2.1324e-09
1.31529e-09
-9.68333e-11
-3.05558e-09
-2.37482e-09
4.88024e-09
2.37647e-09
-6.28311e-09
-3.89574e-10
1.78969e-09
-8.4694e-11
2.26181e-09
4.2865e-09
-4.17175e-09
2.01561e-09
-1.43348e-10
1.41196e-09
9.47832e-10
7.5554e-10
5.996e-10
2.60218e-09
2.30161e-09
1.83883e-09
1.46112e-10
1.61238e-09
2.70485e-09
-9.27084e-10
3.13911e-09
2.51068e-09
-2.48989e-09
1.35909e-08
1.35722e-09
-4.25764e-09
-1.06905e-08
-3.49418e-11
1.12434e-08
2.38218e-09
1.65687e-08
-4.11114e-09
-1.11003e-08
1.13447e-08
-7.47469e-10
5.97133e-09
1.5266e-08
-3.62651e-09
-1.58972e-08
1.20638e-08
3.16706e-09
8.01576e-09
1.45724e-08
1.28635e-08
-5.17547e-09
-1.17993e-08
7.96289e-09
4.15312e-09
-1.17866e-08
1.91767e-09
1.3681e-08
-3.81211e-09
-1.02383e-09
-1.59382e-08
1.18947e-08
-1.6545e-08
1.53026e-08
-1.49033e-09
1.04649e-08
1.1179e-08
-9.7174e-09
2.29308e-08
-5.19771e-09
-5.81572e-09
8.16222e-09
1.12199e-09
8.36499e-09
9.19036e-09
-1.11282e-08
2.03436e-09
-9.65564e-11
9.4828e-09
-1.59981e-08
1.57056e-08
2.16097e-08
-6.0144e-09
-6.1125e-09
5.44393e-09
9.40249e-09
-8.01834e-09
-6.8282e-09
1.7189e-08
-1.21613e-08
4.16085e-10
-2.29816e-08
1.31813e-08
3.9578e-09
5.84243e-09
3.05647e-09
-1.66356e-08
-1.00061e-08
7.18936e-09
-3.9453e-09
-2.99122e-08
2.17567e-08
7.89857e-09
2.56848e-10
-1.2327e-08
-1.08254e-08
-6.75986e-09
-3.00543e-09
-1.47798e-09
1.31078e-08
-8.62449e-09
1.23787e-08
-2.4883e-09
-1.79088e-08
-2.78802e-09
-2.30867e-08
9.92508e-09
1.71195e-08
-6.19348e-09
-1.38368e-08
7.38663e-09
-2.20896e-08
1.22146e-08
-1.11338e-08
3.12272e-09
3.84141e-09
-1.50389e-09
-5.46025e-09
-6.05321e-09
3.77541e-09
-1.51653e-09
3.79431e-09
-1.4089e-09
-3.59277e-09
-1.05153e-09
-4.51059e-09
-1.55607e-09
9.84928e-11
5.96814e-09
-3.05388e-09
1.21313e-09
-2.66982e-09
9.56309e-10
-5.20826e-09
1.19808e-09
6.07551e-09
5.56844e-10
-3.50966e-09
-6.73915e-09
-3.10732e-09
5.95178e-09
3.89471e-09
-2.36764e-09
-5.7804e-09
-4.1947e-09
6.92663e-09
-1.51879e-09
-5.60604e-09
2.71637e-09
1.10288e-09
-2.7226e-09
3.79488e-09
-6.89389e-09
5.82166e-09
1.27194e-09
-9.22461e-09
5.23007e-09
-6.16625e-09
1.46122e-09
8.49996e-09
8.89764e-11
-6.9499e-09
-3.29454e-11
-6.74417e-09
-4.91239e-09
5.4903e-09
-6.44255e-09
-2.12622e-10
-2.27778e-09
-5.73042e-09
9.46942e-09
7.0391e-09
-1.53024e-08
9.26043e-09
4.0431e-09
5.3616e-11
-1.66898e-08
8.63654e-11
-5.05282e-11
-6.76705e-09
-9.64695e-11
-9.06344e-09
2.44484e-09
1.70617e-09
-1.17918e-10
-6.3724e-09
4.7732e-11
-8.9591e-09
-2.22241e-10
9.789e-10
-7.69234e-09
-5.82287e-09
2.53728e-09
-2.06519e-09
1.31554e-09
-8.20944e-09
-7.45869e-09
-4.95008e-09
4.59742e-09
9.3719e-09
-7.49581e-09
-6.47354e-09
7.17458e-09
-2.83048e-09
2.53303e-10
5.90533e-09
-1.69909e-09
5.16563e-09
2.31818e-09
1.07617e-08
-1.94273e-09
-3.82284e-10
-5.17083e-09
1.82841e-09
6.2056e-09
-2.51322e-09
-5.52081e-09
6.9538e-09
-5.48644e-09
3.6104e-10
8.58526e-09
8.48653e-09
-1.36209e-08
-3.45094e-09
-3.70214e-09
1.03446e-08
4.38247e-09
-2.59165e-10
6.48567e-09
-1.40134e-08
5.82862e-09
-4.43444e-09
1.05525e-08
-3.79993e-09
-1.26099e-09
-3.92986e-11
9.78685e-09
-6.10699e-09
6.05501e-09
-1.16237e-09
1.31181e-09
2.70213e-09
5.05222e-09
-9.06601e-09
3.6719e-09
5.36625e-09
-7.72632e-09
-2.20957e-09
-4.05477e-09
-2.74257e-09
9.0069e-09
-4.43473e-09
-4.43447e-09
6.65966e-09
-8.25629e-10
-3.22205e-09
7.7196e-09
7.55702e-09
-5.68052e-09
-6.07329e-09
8.42746e-10
7.95831e-10
4.47298e-10
-1.15428e-09
5.46524e-09
3.43016e-11
-1.45341e-09
-4.24788e-09
1.64654e-09
-4.22657e-10
-5.079e-09
8.86999e-09
-6.53361e-09
-1.76987e-09
2.56004e-09
4.7354e-10
-5.50038e-09
2.46685e-09
1.03523e-09
2.62551e-09
-1.10076e-09
1.36786e-09
1.91997e-09
-2.81426e-09
-4.12317e-10
2.37597e-09
-4.39049e-09
-3.21314e-09
2.35425e-10
-4.3976e-09
-4.03004e-09
-3.45804e-09
-3.61112e-09
-6.25963e-09
-4.58346e-09
7.39197e-09
-5.42742e-09
-4.68209e-10
-7.58107e-09
-1.16693e-09
4.16455e-09
-6.64246e-09
-6.36602e-09
-9.30883e-09
3.95397e-09
7.42225e-09
1.27094e-09
5.89894e-10
-9.28306e-09
9.25937e-10
-1.33155e-09
1.92916e-09
-9.00447e-09
-2.364e-10
-7.14325e-09
-1.16999e-09
-5.70885e-09
4.48575e-09
-5.06584e-09
1.2829e-10
7.20492e-09
7.28311e-09
-1.6198e-08
1.70994e-09
5.01922e-09
-2.9907e-09
5.17639e-09
6.71205e-09
-6.33007e-09
6.90114e-09
3.58518e-09
8.1461e-09
-5.55184e-09
-4.02408e-09
-6.62206e-09
9.1902e-09
-5.60097e-09
-9.14107e-09
2.86205e-09
3.33745e-09
-6.0347e-09
4.93285e-09
-4.13637e-09
5.23823e-09
-8.04343e-09
3.86977e-09
-1.86105e-09
-7.8345e-09
1.71251e-08
-2.18037e-09
-7.11021e-09
-6.59449e-09
-9.28343e-09
-6.25897e-09
2.4801e-09
8.71174e-09
4.72844e-10
-1.51211e-08
3.07409e-09
5.71689e-09
-9.19496e-09
-9.95018e-09
-9.37162e-10
9.73992e-09
-1.79977e-08
-1.31326e-08
2.37567e-09
1.0613e-08
1.86111e-08
-1.10515e-08
-1.76451e-08
7.43295e-09
1.25879e-08
9.69047e-09
-8.72453e-09
-3.12216e-09
9.18746e-09
-8.12702e-09
1.24378e-08
4.63755e-09
-3.16833e-10
2.86689e-09
8.94595e-09
-1.14961e-08
2.5217e-09
7.77452e-09
1.73968e-09
7.06664e-09
-5.93944e-09
-1.51159e-09
5.52857e-09
-2.2773e-09
6.24833e-09
2.21685e-09
-1.60074e-09
8.32979e-09
8.01362e-09
1.26982e-09
7.26803e-10
-3.58838e-10
-6.74545e-09
3.49685e-10
1.07621e-09
-2.93375e-09
3.53058e-09
-1.67308e-09
-1.1365e-09
2.22688e-09
-1.41458e-11
2.17424e-09
2.542e-10
7.62699e-10
-3.19109e-09
1.18266e-09
-1.44909e-10
1.61027e-09
-4.28976e-09
6.53093e-10
2.27477e-10
2.65002e-09
1.26283e-09
-3.69257e-09
3.19245e-09
4.38766e-09
1.20899e-09
-3.98636e-09
7.85851e-10
4.25494e-09
-5.85435e-10
4.17721e-09
-2.65898e-09
-9.32746e-10
-9.71403e-10
1.53409e-09
-1.14808e-09
5.72321e-09
-3.2514e-09
-6.35884e-09
-8.77713e-10
5.58555e-09
1.65099e-09
4.78828e-09
-5.42392e-09
5.4735e-10
3.36319e-09
1.64697e-09
2.578e-09
-3.67764e-09
2.97595e-09
-2.3004e-09
8.45486e-09
-5.2193e-09
7.68453e-10
-4.00404e-09
-2.14336e-10
2.41015e-09
6.25898e-09
7.69945e-09
-6.56516e-09
-6.35363e-09
1.5965e-09
5.88858e-09
-8.17559e-09
8.25484e-09
2.3309e-09
-4.53627e-09
-2.87089e-09
2.23953e-09
-6.43987e-09
5.79681e-09
9.03621e-09
8.63376e-09
-6.69326e-09
-1.09767e-08
-9.9046e-09
1.32091e-08
5.73174e-09
9.62042e-11
-1.36704e-09
5.51052e-09
1.48193e-09
-4.75291e-09
2.51917e-09
-1.79427e-09
-7.29005e-09
-7.7109e-10
-3.14963e-09
-2.86503e-09
-3.66513e-09
5.75907e-09
3.17564e-09
-7.83493e-09
-8.05389e-09
-7.19081e-09
-3.86261e-09
-3.31519e-10
1.1385e-08
-2.39886e-09
-6.50842e-09
1.71639e-09
-1.20535e-08
-2.48385e-09
1.06748e-08
-1.2032e-08
-2.42038e-09
-1.08206e-09
-7.45883e-09
2.97856e-09
5.56226e-09
-1.04172e-08
6.85128e-09
3.23392e-09
-1.12242e-08
-2.42687e-09
-4.86513e-09
6.40229e-10
5.66236e-09
-1.3691e-09
4.20378e-09
-8.49705e-09
4.57456e-09
9.32294e-09
-8.23517e-09
7.22158e-09
9.27886e-09
-1.49042e-10
3.95875e-10
4.21121e-09
2.02487e-10
-1.22299e-11
-1.13611e-08
-1.11932e-08
3.31555e-09
-5.51878e-11
-8.75873e-09
9.2097e-09
-8.29548e-11
-1.19613e-08
-1.13313e-08
-6.12634e-09
-6.62351e-09
3.72983e-09
9.02006e-09
-4.78241e-09
-1.44826e-09
1.04364e-10
8.28694e-09
-7.02917e-09
-6.04016e-09
-1.81464e-09
3.47807e-09
6.72584e-09
-1.21443e-08
3.60387e-09
6.14279e-09
-1.19034e-08
1.24864e-08
1.45661e-08
-4.69347e-09
8.5021e-09
-3.15958e-09
-1.74868e-08
-5.6769e-09
2.27573e-09
4.84517e-09
-6.17665e-09
-1.16766e-10
-1.37874e-08
3.59863e-09
1.24488e-08
4.41416e-10
-4.75155e-09
-8.1386e-09
-2.36947e-09
2.2954e-09
1.2523e-08
1.50566e-08
-5.6888e-09
-8.9263e-09
-6.82853e-11
1.27554e-08
-1.12987e-08
1.3302e-08
-9.83399e-09
7.83068e-09
-6.82513e-09
-1.01623e-08
7.0104e-09
5.76903e-09
-6.29957e-09
-6.4798e-09
3.46979e-10
6.68388e-09
-2.03725e-11
6.55811e-09
-3.50403e-09
-7.80558e-09
6.7404e-09
1.64695e-10
6.92908e-10
8.34278e-09
1.9751e-09
1.12586e-08
9.03617e-09
-1.84118e-09
-1.42596e-09
7.49305e-09
8.22694e-09
-8.91617e-09
-2.75896e-09
-1.66711e-09
-1.40742e-08
-1.14707e-08
1.0161e-08
2.47203e-09
-4.53101e-09
5.90029e-09
-6.97131e-10
3.31261e-09
-1.43468e-10
-4.41805e-09
2.09857e-09
8.23911e-09
-5.91968e-09
2.40867e-09
-7.51364e-10
-1.35606e-09
-2.66379e-09
6.11834e-09
-1.62833e-09
2.88257e-09
-2.61041e-09
2.0251e-09
-2.4696e-09
-2.52675e-10
-9.44544e-10
-3.33178e-09
1.61239e-09
-2.85862e-09
2.85674e-10
-7.65656e-10
-6.78885e-11
-4.64883e-09
1.48496e-09
-1.67931e-10
-1.63911e-09
7.13885e-09
1.8156e-08
7.58208e-09
1.14038e-08
2.28064e-08
-7.74706e-09
1.09588e-08
1.52777e-08
-7.77367e-10
-6.93281e-10
6.91168e-09
1.38564e-09
2.66164e-09
-3.11886e-09
1.40871e-08
-4.05646e-09
-9.08095e-09
1.7366e-08
1.71163e-09
1.39669e-08
-2.57171e-09
-7.59208e-09
-3.80311e-09
-5.08563e-10
1.18404e-09
1.32915e-08
5.92739e-10
-6.40578e-09
-8.53927e-10
6.66699e-09
-9.58706e-09
1.06854e-08
-5.05515e-10
1.13871e-09
-9.33658e-09
-1.38915e-09
-5.35882e-09
9.17463e-11
1.52842e-08
-1.05232e-08
-7.33265e-09
1.41657e-08
6.09999e-10
-6.83429e-09
7.16441e-09
-5.16281e-09
4.51144e-10
-4.6249e-09
6.42446e-09
-4.13575e-09
-7.45156e-09
1.12555e-09
-5.98835e-11
5.82045e-09
-7.52867e-09
-5.88388e-09
1.11696e-10
-5.40817e-09
-6.02696e-09
1.18863e-08
1.94715e-09
-1.36116e-08
-1.39843e-08
1.59289e-08
-7.31978e-09
-3.01302e-08
2.1521e-08
9.22261e-09
-6.1565e-09
1.28627e-08
3.42263e-08
-9.80659e-09
-9.38387e-09
-1.50361e-08
-5.51479e-09
1.76417e-08
2.20991e-08
1.27343e-08
6.43595e-09
-2.64901e-08
1.18757e-08
1.08055e-08
-2.81962e-08
2.1589e-08
-1.68044e-08
-1.45912e-08
8.4952e-09
3.07355e-08
-3.99717e-09
-7.29835e-11
7.86333e-09
-1.48082e-08
1.33808e-08
1.96871e-08
-2.6012e-09
3.57715e-09
-4.99223e-09
9.9099e-09
-8.49371e-09
-9.00893e-09
2.10798e-08
1.23397e-08
-1.93874e-08
2.05538e-09
-1.03635e-08
1.42095e-08
-8.67117e-09
1.15379e-08
4.74403e-09
-6.35474e-09
-1.77768e-08
-7.60788e-09
1.98837e-09
3.40801e-09
1.07489e-08
-8.99706e-09
5.87103e-09
-7.623e-09
1.21886e-08
-5.05632e-09
3.6166e-09
1.12911e-09
7.46829e-09
-1.75945e-08
8.12177e-09
8.24898e-09
-1.52417e-08
1.55401e-08
-1.54734e-09
2.52343e-09
5.43317e-09
7.58349e-09
4.36741e-09
1.03446e-08
6.40845e-09
-3.99649e-09
1.62115e-09
1.83542e-08
-9.88852e-09
-1.00869e-08
1.31876e-08
-5.15802e-09
-4.76788e-10
9.34095e-09
9.48994e-09
6.64401e-09
6.06677e-09
1.20838e-08
-1.37234e-08
8.81568e-11
-6.56842e-09
1.58212e-08
1.10996e-08
1.09485e-08
-1.76745e-08
-8.605e-09
1.10378e-08
5.18099e-09
-1.73758e-08
-5.47979e-09
-1.11863e-08
-1.22722e-09
8.27168e-09
-1.06653e-08
-1.49822e-08
1.44208e-10
-4.77548e-10
-1.11119e-08
7.52828e-09
1.20443e-08
-8.46084e-09
-1.75985e-08
6.80688e-09
-3.20453e-10
-8.32432e-09
3.93326e-09
-6.79531e-09
-1.75722e-09
-1.72324e-08
9.49514e-09
-6.50179e-09
-1.57772e-08
1.27838e-08
9.43666e-09
2.02698e-10
-7.30181e-09
1.32827e-08
6.82443e-09
-4.68963e-09
-7.64097e-09
-4.85175e-09
-5.10577e-09
-4.60317e-09
-4.93263e-09
1.3469e-08
5.22443e-09
-1.34835e-08
-7.0197e-09
5.6446e-09
-8.78415e-09
-5.95342e-09
1.62787e-08
-1.50727e-09
-9.12656e-09
-1.29171e-08
-6.41137e-09
1.05445e-08
1.16904e-08
1.22381e-09
2.28579e-10
-1.31427e-08
6.87173e-09
8.0578e-09
-3.23912e-09
-1.14198e-08
4.43616e-09
-7.36031e-10
7.7197e-09
1.66118e-08
-1.38574e-08
-1.41742e-08
1.61691e-08
4.87894e-09
-8.101e-09
1.26448e-08
2.328e-09
2.54068e-09
-9.41784e-09
-1.15934e-08
6.73414e-09
1.3184e-09
-1.26831e-08
-1.44371e-08
7.74765e-09
-3.1903e-10
-1.27996e-08
-1.16357e-08
2.50478e-09
-2.3697e-08
7.87905e-09
1.33133e-08
-1.75317e-08
6.88547e-09
1.31511e-08
-1.13216e-09
-1.01194e-09
-2.15528e-08
-2.44749e-09
-1.62162e-08
-1.43959e-08
1.5075e-08
7.2e-09
-1.59828e-09
-1.38095e-08
1.20302e-09
8.81984e-10
-1.30715e-08
1.09867e-08
-1.39068e-08
1.35116e-08
-9.17649e-09
1.34856e-08
2.57649e-09
-1.20206e-08
1.91353e-08
7.97472e-09
-1.50893e-08
7.32036e-10
3.72746e-09
-1.648e-08
1.15145e-08
-1.30799e-08
3.07004e-09
6.44877e-09
-1.53373e-08
-1.6881e-08
-5.99034e-09
-2.47654e-09
-1.06537e-09
1.03293e-08
-1.20688e-08
2.80484e-09
7.76222e-09
-1.14006e-08
2.57291e-09
-4.11358e-09
8.37289e-09
-9.26766e-09
-1.31525e-08
1.40471e-08
-1.87802e-08
1.12051e-08
2.90317e-09
6.29264e-10
4.51123e-09
1.41911e-08
2.90726e-09
1.28573e-08
7.35941e-09
1.35127e-08
1.55762e-09
-1.25542e-08
-2.51617e-09
1.72174e-09
1.36756e-08
-1.88466e-09
1.35872e-09
-1.42511e-08
1.46141e-08
-2.21322e-09
1.58988e-08
5.05493e-10
1.18837e-08
-1.2396e-09
-2.04054e-09
1.30195e-08
2.69656e-09
-1.16524e-08
9.11149e-09
5.00342e-10
-7.34937e-10
-9.35984e-09
-3.39606e-10
1.2047e-08
1.31215e-09
8.23567e-09
5.3619e-10
-8.87627e-09
1.01757e-08
-1.11644e-08
1.37754e-08
5.72623e-09
-8.33725e-09
7.76785e-09
-1.74559e-08
-1.47644e-09
5.34705e-09
-2.08936e-09
1.05176e-08
-7.8119e-09
3.577e-09
9.58194e-09
-2.38363e-08
8.15305e-09
1.35937e-08
-2.29345e-09
-1.37751e-08
-1.32039e-09
-7.65276e-10
-1.86911e-08
5.55615e-09
2.1288e-08
-7.19996e-09
-1.37847e-08
-9.37608e-10
-1.13903e-08
1.59049e-08
-1.34304e-08
1.80489e-08
7.98206e-09
-1.29275e-09
-8.00972e-09
2.21479e-09
-1.16756e-08
-3.96962e-09
-1.19343e-09
-1.37798e-08
-5.09575e-09
1.47973e-08
-2.38642e-09
1.3178e-10
-1.25428e-08
5.12441e-09
6.45369e-09
3.2192e-09
8.44692e-09
-2.33337e-09
-8.50006e-09
9.14864e-09
-3.36423e-09
2.6625e-09
7.04292e-09
7.23012e-09
1.34801e-08
-2.24878e-09
9.5817e-09
1.03521e-08
7.86434e-09
-8.20036e-10
-9.37777e-09
4.39467e-09
1.05373e-10
-1.3586e-09
-1.23863e-08
8.14686e-09
-1.03255e-08
2.94714e-09
-7.39742e-10
8.83643e-10
7.09727e-09
8.64547e-10
7.06201e-09
6.50384e-09
8.37933e-10
8.6382e-09
-3.65541e-09
1.29622e-08
1.45129e-09
7.45556e-09
-2.11913e-09
-7.34488e-09
-6.5741e-09
-1.83584e-09
1.57546e-08
-7.48926e-09
-8.29027e-09
8.43456e-09
-2.43297e-09
7.10718e-09
5.40806e-09
3.03976e-09
8.92385e-10
-1.72721e-09
-2.23833e-10
1.13329e-08
-1.10954e-08
1.04345e-08
8.83708e-09
-8.17612e-09
1.56988e-09
-1.38494e-08
1.18413e-09
-1.09684e-08
1.21759e-08
8.68438e-09
-9.89182e-09
1.75194e-09
-8.62941e-09
-4.09093e-09
-2.02859e-09
1.10832e-08
-7.30264e-09
8.90617e-09
-3.18079e-09
-7.75399e-09
-4.04739e-09
1.0624e-08
4.50661e-09
4.80541e-09
5.3369e-11
-7.02055e-09
-9.52147e-10
1.72458e-10
7.80028e-09
-2.55497e-09
3.39818e-10
-1.15715e-08
-1.62149e-09
1.22409e-08
-1.22535e-08
-1.87307e-09
1.23016e-08
3.00582e-09
-4.87298e-09
-2.28591e-10
1.09087e-08
8.99239e-09
-1.06033e-08
1.51978e-09
1.23162e-08
-2.55258e-10
-7.79002e-09
-8.6465e-09
1.8606e-09
1.45759e-08
-4.11113e-09
-1.29225e-08
9.24359e-09
1.37587e-08
-5.93185e-09
-7.66196e-09
-1.64958e-10
4.83811e-09
4.80946e-09
7.2133e-11
-6.96852e-09
-1.75022e-09
-9.36338e-09
-3.48705e-09
-1.27222e-09
1.10558e-08
-3.43421e-09
-6.34942e-09
8.91494e-09
-3.79708e-09
-6.39011e-09
5.65133e-09
5.37679e-09
-6.19003e-09
-5.3858e-09
-9.90948e-09
-1.58809e-09
6.74415e-09
3.75882e-09
2.4991e-09
3.19685e-10
-9.13971e-09
5.45779e-09
-6.4545e-09
6.64807e-09
-7.34835e-09
1.46668e-08
-4.77722e-09
-7.99985e-09
8.97993e-09
-9.73213e-09
5.27463e-09
4.61161e-09
-5.21583e-09
-6.5317e-09
-8.38269e-10
1.03982e-08
-3.0284e-09
-3.53382e-09
1.12717e-09
-4.12509e-09
-6.67485e-10
3.09268e-09
-8.40365e-09
5.97831e-09
-2.65892e-09
-7.53364e-09
9.35423e-09
-1.07306e-08
7.40412e-09
-3.78682e-09
-1.4732e-11
-6.92914e-09
6.70313e-09
-5.9835e-09
-4.50648e-09
-1.5557e-09
7.25162e-10
-4.30182e-09
-7.87728e-10
2.0494e-09
-8.46223e-09
4.29282e-10
1.97391e-09
9.23412e-09
-2.97239e-09
-6.30651e-10
-2.72875e-09
5.33329e-09
-2.88306e-09
-5.22743e-09
3.4988e-09
3.42272e-09
-1.6941e-09
-5.35695e-10
-7.09011e-09
2.39837e-09
5.40088e-10
3.01388e-09
-4.08965e-09
2.42853e-09
7.04259e-10
-2.59267e-09
7.24749e-10
4.00595e-09
-1.23187e-09
-3.28083e-09
4.15618e-09
-1.50568e-10
-1.28637e-09
1.01945e-09
1.27032e-09
-1.28153e-10
-1.96944e-10
7.4296e-10
3.45996e-09
6.04227e-10
3.355e-09
4.79528e-09
2.4353e-11
-3.38137e-09
-1.43836e-09
3.80135e-09
6.08917e-09
-5.09524e-09
-7.04468e-10
3.67515e-09
-2.94631e-09
2.54439e-09
-2.54458e-09
-1.45104e-09
3.6533e-09
1.47287e-09
1.22676e-09
-1.33276e-10
-2.54302e-10
-3.82132e-10
-2.52176e-09
2.87164e-09
4.1622e-09
-2.46911e-11
1.63004e-09
7.95471e-09
5.0821e-09
8.29755e-09
-7.07425e-09
-3.90695e-09
2.68364e-09
4.63352e-09
3.13814e-09
5.25875e-10
-5.87686e-10
-4.49644e-09
-1.99011e-09
1.06015e-08
-3.39073e-09
-7.79839e-09
-1.5167e-08
8.9147e-09
7.88247e-09
-8.4026e-09
-2.15279e-09
2.95835e-09
1.06128e-08
-5.61644e-09
2.09012e-10
8.40856e-09
1.98397e-09
6.53598e-09
-9.52361e-09
-4.03095e-10
5.03277e-09
1.13703e-08
-7.48841e-09
2.75716e-09
8.4596e-09
-5.18103e-09
-6.03573e-09
1.07483e-08
-1.13492e-08
7.00678e-09
1.08785e-08
-4.55456e-09
-4.75857e-09
4.61373e-09
4.69938e-09
-6.55636e-09
1.58754e-09
4.14226e-10
3.26621e-09
-4.85444e-09
-1.05207e-09
-4.40301e-10
-7.12572e-09
6.15565e-09
2.5576e-09
-2.01919e-09
-5.76671e-09
6.60086e-10
3.84416e-10
2.30919e-09
-2.23561e-09
6.08207e-09
-1.2905e-09
8.21336e-09
4.20929e-09
2.05082e-09
-3.32887e-09
-4.43766e-09
6.47597e-09
-1.8434e-09
-6.49456e-09
3.72562e-09
-5.68396e-10
3.26541e-09
-7.34443e-09
5.8879e-09
-5.57562e-09
1.73854e-09
4.18307e-10
-1.025e-09
-2.93761e-10
-1.08822e-08
-2.47499e-09
1.04404e-08
2.917e-09
9.84893e-09
3.18114e-09
-1.21397e-08
-8.90234e-10
-9.29764e-09
8.26439e-09
3.45292e-09
7.87498e-09
-8.14663e-09
2.3266e-09
-1.05267e-08
5.72531e-09
-8.06828e-09
7.89107e-09
2.50388e-09
-1.22396e-08
4.34693e-09
3.26648e-09
4.62636e-09
3.10135e-09
-6.1072e-09
-9.23351e-09
-4.88437e-09
-5.96098e-09
1.39469e-08
-7.23303e-09
2.31966e-09
-4.38413e-09
-5.24723e-09
-1.41254e-08
-9.7856e-09
6.06432e-09
-3.83212e-10
-9.74818e-09
5.1881e-09
-1.16784e-08
-4.65791e-09
-3.54903e-09
-9.25535e-09
-1.0932e-08
1.09488e-08
-1.63805e-08
2.76939e-09
-2.83206e-08
-2.2977e-09
-1.14448e-08
1.00278e-09
-1.14322e-08
-9.67306e-10
-1.14708e-08
-8.83734e-09
2.48389e-09
-3.91059e-09
6.24501e-09
-9.51323e-09
-8.164e-09
-2.7159e-09
-1.82147e-08
-5.46193e-09
1.5491e-09
-8.79508e-09
1.27078e-08
6.67216e-09
1.7955e-08
-1.76785e-08
-6.94881e-09
-9.92836e-09
1.52171e-08
1.38344e-09
1.4079e-08
8.70848e-09
-1.47294e-08
-8.05815e-09
-1.31131e-09
-1.95772e-09
-3.78182e-09
2.36945e-08
1.72869e-08
-4.02763e-09
-3.73166e-09
-5.23837e-09
-2.20382e-08
6.09696e-09
-6.20765e-10
1.6562e-08
-4.11688e-09
-7.24747e-09
-1.06738e-08
-1.71e-08
1.94151e-08
-1.01436e-08
-1.10733e-08
1.02467e-08
-1.3723e-08
2.85564e-09
7.50775e-09
-1.61113e-09
3.97187e-09
-9.8684e-09
-6.41512e-10
1.04683e-08
-2.31906e-09
-6.69335e-09
3.91753e-09
-2.96467e-09
5.74045e-09
-6.79866e-09
4.29889e-09
-4.1936e-09
5.1361e-09
1.43845e-09
-8.1857e-09
-2.30408e-09
-5.72856e-09
1.57345e-09
8.07264e-09
-1.30907e-09
-1.20669e-10
7.01037e-10
6.80259e-09
-4.44123e-09
3.40208e-09
-2.69941e-10
-1.01759e-08
3.33411e-09
7.54283e-09
1.60197e-09
-7.80603e-09
1.05256e-08
-1.64052e-09
-7.28306e-09
8.49806e-09
-2.14081e-09
4.16832e-09
2.43884e-09
-5.44162e-09
-2.16953e-09
9.44858e-09
-5.70562e-09
9.66263e-09
-7.98414e-09
1.22454e-09
4.61879e-09
-7.1858e-09
4.60578e-09
1.84122e-08
-1.61258e-08
-6.89212e-09
1.67491e-08
-9.99016e-09
-2.1532e-09
-3.50833e-09
-1.27561e-08
1.66788e-08
-4.14071e-10
6.56432e-09
-2.51907e-09
-7.55343e-09
1.62021e-09
8.0945e-09
7.03451e-09
1.08528e-08
9.17961e-09
5.1549e-09
-8.03405e-09
-7.11097e-09
1.62337e-08
-8.05095e-09
-2.09388e-08
-4.83851e-09
1.24917e-08
9.02575e-09
1.69157e-09
3.43883e-11
8.86298e-09
-2.01645e-09
7.29378e-09
9.66376e-09
-1.00811e-08
-2.81039e-09
-3.23405e-09
-6.19348e-09
-1.04698e-08
1.10564e-08
-3.39677e-09
-1.58482e-09
-1.95157e-09
1.08305e-08
-3.46411e-09
1.27322e-08
1.57115e-08
-4.96744e-09
5.48969e-09
8.38929e-09
1.98142e-08
1.34447e-09
5.09356e-09
-1.45324e-08
1.24129e-08
7.723e-09
1.39683e-09
4.24688e-09
1.35928e-08
-1.19603e-08
3.58205e-09
-5.21461e-09
4.30233e-09
7.29778e-09
1.99272e-09
-9.69077e-09
3.33904e-09
1.35182e-09
4.99991e-09
-2.52836e-09
-2.29878e-09
-4.86363e-09
8.12068e-09
-1.50286e-08
2.23753e-09
-7.7962e-09
3.80465e-09
7.08648e-09
-9.55123e-09
5.89125e-09
6.99904e-09
-6.5668e-09
-5.5128e-09
1.08288e-08
-5.91441e-09
-7.2132e-09
6.561e-09
5.61965e-09
-5.58993e-09
-3.60777e-09
1.24201e-08
-4.21425e-09
-4.59813e-09
6.58582e-09
1.13522e-08
-9.36357e-10
-4.70367e-09
-5.71223e-09
-3.45269e-10
4.13787e-09
7.55959e-09
-1.52354e-08
5.62851e-09
9.2616e-09
-7.0146e-09
-9.15719e-09
-7.71193e-09
3.80651e-09
8.04327e-09
-2.37413e-09
-5.55525e-09
2.17431e-10
-6.12152e-09
3.38976e-10
1.53644e-08
1.00246e-08
-5.47596e-09
6.73113e-09
-6.25554e-09
5.00036e-09
-7.854e-09
3.91487e-12
-5.22881e-09
-5.03014e-09
-7.65707e-11
-1.52754e-08
1.08766e-08
-5.87218e-09
-1.14863e-09
-5.68976e-09
-8.03645e-09
-1.09951e-08
5.31068e-09
1.01094e-09
-5.50916e-10
-1.5029e-08
6.43563e-09
-9.18081e-09
1.77743e-08
4.98202e-09
4.6444e-09
2.4023e-09
-1.06173e-11
4.92504e-09
5.03009e-09
-6.67296e-09
-9.49289e-11
1.32037e-08
7.1141e-10
4.78769e-09
9.51708e-09
6.23073e-09
-4.32022e-10
-4.26431e-09
9.0945e-09
3.56703e-09
2.46136e-09
3.48878e-09
5.53349e-09
4.6589e-09
-1.43654e-08
1.16193e-08
-2.95828e-09
5.70432e-09
-1.19765e-08
-5.50699e-09
7.14349e-09
1.034e-08
-1.66272e-08
3.35803e-09
1.29267e-09
-3.43315e-09
2.605e-09
-1.4982e-08
1.58099e-08
5.81915e-10
-1.83805e-08
-6.86439e-09
1.8565e-09
1.9332e-08
5.00612e-09
-2.37562e-08
1.53308e-08
-2.8632e-09
4.34489e-09
-2.27926e-08
2.34537e-08
-6.35678e-10
-9.62542e-10
1.6929e-08
-8.60106e-09
-1.32829e-08
8.32203e-09
1.3562e-08
-2.62957e-08
-1.10712e-09
1.88017e-08
-2.90296e-08
1.4347e-08
1.39963e-09
1.59162e-09
-2.62765e-08
2.79398e-09
-1.66034e-08
8.3024e-09
1.94453e-08
-1.01444e-08
-2.15732e-09
1.97612e-09
2.48467e-09
-4.28726e-09
-1.73528e-10
-1.44116e-09
3.37023e-09
4.70519e-11
2.23311e-09
-3.59536e-09
-7.8827e-11
8.16446e-09
-7.78387e-09
-2.09211e-10
-1.71431e-10
2.30363e-09
5.84339e-09
-1.03723e-10
8.20165e-09
-6.0046e-09
1.06545e-10
-7.85093e-09
5.45195e-09
8.24236e-09
3.60839e-10
-5.57727e-09
5.31016e-09
-9.38038e-11
-4.50702e-09
5.0362e-09
-1.68369e-10
-5.39446e-09
1.07131e-09
-1.83916e-10
1.26774e-09
4.66111e-09
-5.25648e-09
-6.72398e-10
5.69739e-09
-4.16378e-09
-2.65907e-10
5.29343e-09
5.27336e-10
-1.15971e-09
-1.91601e-09
-6.80758e-09
8.20426e-09
5.1933e-10
-8.87932e-09
6.63841e-09
3.24873e-10
-8.98063e-09
2.99981e-10
1.77771e-09
-3.42861e-09
1.91089e-09
-2.59958e-10
-1.81269e-09
3.66875e-09
-7.84108e-11
-2.87105e-09
4.40256e-09
-1.26036e-09
-2.71075e-10
1.03668e-09
-3.83437e-10
-3.14122e-09
4.51525e-09
-3.37334e-10
-4.67603e-09
2.01236e-09
-4.77533e-10
4.18278e-09
-5.53631e-09
1.59309e-09
-2.39526e-10
-2.76127e-09
6.86584e-09
7.82222e-11
3.02362e-09
-5.39733e-09
-3.87641e-10
-4.4371e-09
7.52683e-09
-6.61638e-11
8.73685e-09
2.95387e-09
-1.18735e-08
1.82723e-10
1.70315e-10
-8.84621e-09
1.34221e-10
6.98195e-11
3.90133e-09
-1.28153e-08
6.76949e-11
-7.62975e-10
-7.00729e-09
7.56733e-09
2.02911e-10
7.65588e-09
-8.81129e-09
3.92514e-10
3.91247e-09
-1.1071e-08
1.51163e-10
-1.55088e-09
8.31896e-09
-6.85074e-09
8.27097e-11
5.93814e-09
-7.55518e-09
6.63067e-11
1.06006e-08
-4.97221e-09
3.09819e-10
1.55044e-10
-7.14837e-09
6.89577e-09
9.76795e-11
7.4731e-09
-7.71924e-09
4.01302e-10
1.53317e-10
6.68805e-09
6.31794e-10
8.81493e-10
-2.39028e-09
-1.86276e-10
-1.42164e-09
-9.00707e-11
5.8525e-10
-8.35894e-09
7.80315e-09
-2.94039e-11
-8.68804e-09
8.96927e-09
3.04088e-10
-7.8937e-09
-8.21745e-10
3.56564e-10
2.80878e-09
-3.50096e-09
1.1405e-09
-4.48171e-10
-1.11596e-09
3.9188e-09
5.98926e-12
2.65008e-09
-3.72089e-09
-4.49823e-11
1.02985e-09
-2.73197e-09
1.98916e-09
-2.87102e-10
8.3802e-10
1.28018e-09
-1.98092e-09
-1.3734e-10
1.93964e-09
-7.17791e-11
2.12145e-09
-7.3081e-10
-1.10471e-10
8.0887e-10
4.89924e-09
-5.73645e-09
2.82735e-11
-4.7443e-09
5.74725e-09
-1.94089e-10
-1.30526e-09
1.00055e-08
-9.18118e-09
4.81031e-10
8.63025e-09
-1.02262e-08
2.90661e-10
1.81525e-09
1.57016e-09
-3.25844e-09
-1.26728e-10
3.21441e-09
-1.35413e-09
-4.50281e-11
1.89339e-09
-7.97907e-09
6.18062e-09
-9.49942e-11
-6.24425e-09
1.01176e-10
1.37777e-09
2.00064e-09
-3.18609e-09
-1.92525e-10
1.69175e-09
1.37434e-09
-2.87983e-09
-1.86334e-10
3.14409e-09
-7.45789e-11
3.48629e-09
-2.04631e-09
-6.55639e-11
2.3741e-09
4.78683e-09
-7.29207e-09
1.3106e-10
-5.09742e-09
7.11619e-09
3.55302e-10
7.1994e-09
-2.66669e-09
2.54038e-10
1.63719e-09
-6.31413e-09
5.17917e-09
-5.02268e-10
7.6771e-09
-5.739e-09
-3.00923e-10
-3.40009e-10
-4.58326e-09
-4.38033e-11