/*--------------------------------*- C++ -*----------------------------------*\
| =========                 |                                                 |
| \\      /  F ield         | OpenFOAM: The Open Source CFD Toolbox           |
|  \\    /   O peration     | Version:  v1612+                                |
|   \\  /    A nd           | Web:      www.OpenFOAM.com                      |
|    \\/     M anipulation  |                                                 |
\*---------------------------------------------------------------------------*/
FoamFile
{
    version     2.0;
    format      ascii;
    class       volVectorField;
    location    "206";
    object      U;
}
// * * * * * * * * * * * * * * * * * * * * * * * * * * * * * * * * * * * * * //

dimensions      [0 1 -1 0 0 0 0];

internalField   nonuniform List<vector> 
18793
(
(-0.555796 0.303123 -0.395411)
(-0.801813 0.35058 -0.531545)
(-0.568834 0.304244 -0.440736)
(-0.627551 0.405055 -0.420894)
(-0.665297 0.388388 -0.424759)
(-0.681011 0.442998 -0.450297)
(-0.642106 0.424983 -0.43208)
(-0.610784 0.374214 -0.408294)
(-0.634266 0.412477 -0.424827)
(-0.708216 0.456119 -0.442864)
(-0.656196 0.423602 -0.443069)
(-0.700352 0.459955 -0.441399)
(-0.664335 0.37041 -0.415408)
(-0.719509 0.444813 -0.438961)
(-0.720068 0.438788 -0.433642)
(-0.77764 0.455 -0.516185)
(-0.799897 0.450707 -0.506051)
(-0.772704 0.441144 -0.513528)
(-0.774752 0.425907 -0.507616)
(-0.808286 0.457584 -0.503659)
(-0.776803 0.46841 -0.531233)
(-0.779488 0.425771 -0.514811)
(-0.781316 0.435272 -0.537151)
(-0.801993 0.442827 -0.506086)
(-0.759537 0.438826 -0.531629)
(-0.77241 0.455959 -0.543481)
(-0.812765 0.444677 -0.536816)
(-0.803636 0.452789 -0.518749)
(-0.804923 0.421869 -0.517475)
(-0.814213 0.438433 -0.530009)
(-0.800429 0.441943 -0.513414)
(-0.794766 0.444972 -0.544684)
(-0.811136 0.435047 -0.547389)
(-0.82326 0.432011 -0.533162)
(-0.812674 0.435663 -0.508791)
(-0.813285 0.440448 -0.527144)
(-0.813531 0.422939 -0.516967)
(-0.364163 0.413102 -0.489189)
(-0.393284 0.45149 -0.513039)
(-0.377616 0.433362 -0.500478)
(-0.344479 0.39085 -0.46409)
(-0.387396 0.442415 -0.510086)
(-0.43034 0.496052 -0.510067)
(-0.435886 0.482669 -0.507568)
(-0.39995 0.402322 -0.49028)
(-0.410099 0.407247 -0.487963)
(-0.382296 0.41111 -0.495725)
(-0.350907 0.358069 -0.452216)
(-0.381492 0.384878 -0.465336)
(-0.33624 0.360196 -0.433396)
(-0.319309 0.32749 -0.321987)
(-0.279214 0.291043 -0.285773)
(-0.287182 0.306714 -0.283438)
(-0.307964 0.287516 -0.314169)
(-0.278253 0.268306 -0.280736)
(-0.391006 0.429056 -0.36934)
(-0.373155 0.414315 -0.349177)
(-0.27741 0.287228 -0.262023)
(-0.267886 0.271498 -0.255222)
(-0.239866 0.220106 -0.234119)
(-0.380926 0.416278 -0.360956)
(-0.381238 0.41399 -0.360585)
(-0.257083 0.221657 -0.253108)
(-0.343691 0.337433 -0.333333)
(-0.344455 0.343046 -0.314532)
(-0.308623 0.276881 -0.304288)
(-0.53682 0.407969 -0.48866)
(-0.519111 0.424091 -0.492226)
(-0.516456 0.409746 -0.477219)
(-0.526578 0.415493 -0.469584)
(-0.50751 0.381738 -0.489949)
(-0.561831 0.452132 -0.452095)
(-0.491607 0.389016 -0.485515)
(-0.487631 0.368074 -0.47648)
(-0.475381 0.3421 -0.460482)
(-0.502758 0.36455 -0.466961)
(-0.484199 0.375913 -0.489891)
(-0.48761 0.350165 -0.465842)
(-0.510003 0.363846 -0.463635)
(-0.455192 0.350189 -0.4583)
(-0.488368 0.342476 -0.459242)
(-0.447183 0.302805 -0.434059)
(-0.433037 0.316432 -0.429484)
(-0.441486 0.315792 -0.431515)
(-0.810131 0.313343 -0.402487)
(-0.7788 0.287574 -0.38193)
(-0.835701 0.347736 -0.431758)
(-0.803392 0.323419 -0.401796)
(-0.818308 0.335285 -0.415779)
(-0.841475 0.382597 -0.441808)
(-0.831055 0.380495 -0.427038)
(-0.793774 0.325207 -0.400065)
(-0.787019 0.323267 -0.39993)
(-0.811128 0.362467 -0.42084)
(-0.809359 0.406573 -0.44086)
(-0.831078 0.399988 -0.444911)
(-0.803314 0.359617 -0.413402)
(-0.834094 0.412048 -0.453011)
(-0.821348 0.403091 -0.433284)
(-0.821788 0.395499 -0.440809)
(-0.795745 0.455045 -0.447312)
(-0.785603 0.432304 -0.44907)
(-0.780263 0.453636 -0.450644)
(-0.774868 0.419853 -0.437582)
(-0.806101 0.459552 -0.448457)
(-0.78405 0.453274 -0.470953)
(-0.777044 0.430491 -0.459605)
(-0.786249 0.475541 -0.492501)
(-0.7898 0.459811 -0.488403)
(-0.810291 0.4346 -0.447398)
(-0.787699 0.4186 -0.451912)
(-0.81618 0.464672 -0.471305)
(-0.778472 0.476579 -0.486327)
(-0.780659 0.423423 -0.454206)
(-0.78004 0.446382 -0.480979)
(-0.799415 0.463572 -0.482845)
(-0.809385 0.45784 -0.494326)
(-0.79332 0.46425 -0.478497)
(-0.773463 0.462892 -0.487494)
(-0.785252 0.427355 -0.456721)
(-0.800924 0.441762 -0.465827)
(-0.799919 0.41796 -0.459365)
(-0.805244 0.43224 -0.473088)
(-0.680386 0.52067 -0.407304)
(-0.679925 0.522514 -0.388405)
(-0.68132 0.478741 -0.410715)
(-0.664899 0.459693 -0.425003)
(-0.6697 0.472086 -0.408088)
(-0.678234 0.497843 -0.398225)
(-0.671174 0.527409 -0.398911)
(-0.620926 0.415125 -0.458752)
(-0.623218 0.43235 -0.459926)
(-0.616569 0.428605 -0.459199)
(-0.657157 0.46843 -0.419293)
(-0.622414 0.444559 -0.450991)
(-0.619709 0.443235 -0.455878)
(-0.627296 0.424256 -0.461263)
(-0.626141 0.420461 -0.462947)
(-0.64699 0.471986 -0.408769)
(-0.63405 0.476857 -0.416586)
(-0.649056 0.462032 -0.418886)
(-0.587677 0.500463 -0.45344)
(-0.573144 0.502065 -0.47369)
(-0.5547 0.510799 -0.492165)
(-0.590608 0.528373 -0.473898)
(-0.611781 0.522205 -0.422193)
(-0.602571 0.538789 -0.449021)
(-0.564211 0.534299 -0.478277)
(-0.577762 0.513643 -0.456198)
(-0.558994 0.518248 -0.481686)
(-0.579205 0.533762 -0.485425)
(-0.595743 0.549823 -0.451966)
(-0.608363 0.544221 -0.415923)
(-0.610835 0.540733 -0.42094)
(-0.56513 0.548038 -0.47585)
(-0.579375 0.557395 -0.469574)
(-0.608168 0.526842 -0.41436)
(-0.588919 0.549303 -0.43268)
(-0.570552 0.558642 -0.464017)
(-0.767023 0.493415 -0.52748)
(-0.779205 0.494036 -0.50846)
(-0.75982 0.496851 -0.546304)
(-0.759851 0.497268 -0.532999)
(-0.764206 0.498997 -0.51121)
(-0.747399 0.494401 -0.54542)
(-0.75632 0.514351 -0.541291)
(-0.747729 0.506109 -0.566314)
(-0.735095 0.512036 -0.560568)
(-0.737151 0.521512 -0.564999)
(-0.73254 0.500963 -0.551915)
(-0.518009 0.66385 -0.52404)
(-0.51059 0.6352 -0.486684)
(-0.488206 0.662905 -0.523397)
(-0.488147 0.660814 -0.521174)
(-0.511987 0.628031 -0.51039)
(-0.511393 0.618234 -0.486179)
(-0.482874 0.687886 -0.525984)
(-0.489296 0.643817 -0.494418)
(-0.491155 0.689256 -0.529073)
(-0.50213 0.605938 -0.463342)
(-0.462917 0.746974 -0.585555)
(-0.495984 0.717411 -0.582719)
(-0.474618 0.686665 -0.548353)
(-0.479396 0.642806 -0.494585)
(-0.457348 0.72444 -0.557565)
(-0.457121 0.739177 -0.561176)
(-0.501204 0.674101 -0.547517)
(-0.448032 0.707839 -0.551018)
(-0.464454 0.661939 -0.503183)
(-0.444599 0.726306 -0.5726)
(-0.443013 0.289658 -0.347826)
(-0.435332 0.275145 -0.346177)
(-0.45354 0.275416 -0.346122)
(-0.447169 0.253147 -0.341876)
(-0.534728 0.312061 -0.39111)
(-0.522108 0.313789 -0.387188)
(-0.57475 0.408425 -0.40609)
(-0.552338 0.408101 -0.408169)
(-0.453199 0.306296 -0.347418)
(-0.49364 0.269684 -0.37354)
(-0.438977 0.314572 -0.342873)
(-0.449828 0.302587 -0.356666)
(-0.575355 0.406813 -0.409875)
(-0.4601 0.306805 -0.356197)
(-0.529518 0.361635 -0.38775)
(-0.567318 0.352723 -0.403244)
(-0.540106 0.343338 -0.392821)
(-0.516515 0.320833 -0.386096)
(-0.422982 0.300227 -0.33647)
(-0.381116 0.318012 -0.298365)
(-0.372787 0.30966 -0.290966)
(-0.364885 0.270621 -0.286342)
(-0.379841 0.256267 -0.306586)
(-0.357561 0.279487 -0.270703)
(-0.337109 0.245409 -0.264908)
(-0.47002 0.349952 -0.364088)
(-0.428558 0.315374 -0.3349)
(-0.422669 0.327243 -0.33744)
(-0.394772 0.283081 -0.320844)
(-0.442476 0.359806 -0.338554)
(-0.4137 0.355096 -0.328073)
(-0.394493 0.342493 -0.318952)
(-0.362957 0.258531 -0.294209)
(-0.475678 0.384731 -0.366134)
(-0.404279 0.329723 -0.319583)
(-0.39579 0.302676 -0.313019)
(-0.438025 0.363173 -0.340293)
(-0.739965 0.341734 -0.458369)
(-0.763501 0.358627 -0.465763)
(-0.781011 0.366712 -0.464515)
(-0.754826 0.345368 -0.466485)
(-0.746585 0.334782 -0.460578)
(-0.812656 0.394755 -0.481794)
(-0.819398 0.397896 -0.481748)
(-0.784967 0.364336 -0.468169)
(-0.73368 0.321785 -0.441997)
(-0.809941 0.393673 -0.482357)
(-0.790882 0.351206 -0.465588)
(-0.819861 0.375741 -0.477128)
(-0.837852 0.394938 -0.484019)
(-0.830255 0.39705 -0.482844)
(-0.71945 0.319592 -0.440919)
(-0.788021 0.359512 -0.477283)
(-0.819622 0.373174 -0.48056)
(-0.775313 0.351787 -0.470181)
(-0.79599 0.331012 -0.444198)
(-0.799343 0.304864 -0.424919)
(-0.76119 0.404902 -0.474833)
(-0.790613 0.385031 -0.484356)
(-0.77438 0.309625 -0.385571)
(-0.758577 0.274756 -0.369339)
(-0.706023 0.370067 -0.41638)
(-0.743342 0.403905 -0.475426)
(-0.697689 0.375456 -0.387724)
(-0.811004 0.36145 -0.411022)
(-0.682957 0.282556 -0.296238)
(-0.688392 0.250712 -0.281485)
(-0.751451 0.303559 -0.361946)
(-0.722645 0.322206 -0.346439)
(-0.745713 0.295154 -0.353078)
(-0.734984 0.254747 -0.326084)
(-0.697865 0.287321 -0.313598)
(-0.711544 0.311099 -0.336021)
(-0.733638 0.28767 -0.336097)
(-0.666919 0.480184 -0.45497)
(-0.667059 0.485609 -0.454586)
(-0.759849 0.499266 -0.455872)
(-0.743962 0.49269 -0.445369)
(-0.681129 0.48232 -0.456509)
(-0.686607 0.484595 -0.447915)
(-0.708231 0.501528 -0.471703)
(-0.724418 0.510009 -0.432269)
(-0.762036 0.519066 -0.460381)
(-0.757025 0.508265 -0.466292)
(-0.720944 0.497885 -0.4363)
(-0.672594 0.508959 -0.469447)
(-0.722573 0.509773 -0.479358)
(-0.705518 0.503357 -0.435668)
(-0.725157 0.517072 -0.443081)
(-0.702837 0.510004 -0.465083)
(-0.726845 0.53044 -0.44539)
(-0.702767 0.5072 -0.43855)
(-0.744373 0.522991 -0.467283)
(-0.809641 0.416265 -0.454369)
(-0.851635 0.407163 -0.465403)
(-0.826274 0.425515 -0.485031)
(-0.824551 0.426802 -0.490328)
(-0.846021 0.410137 -0.491286)
(-0.842666 0.394385 -0.475012)
(-0.816943 0.424066 -0.468037)
(-0.821455 0.434345 -0.478907)
(-0.831152 0.402477 -0.47015)
(-0.843871 0.39793 -0.470226)
(-0.840097 0.408897 -0.476039)
(-0.856517 0.404464 -0.489933)
(-0.840674 0.409484 -0.471858)
(-0.840739 0.426583 -0.471771)
(-0.851925 0.402046 -0.481447)
(-0.863551 0.403545 -0.470731)
(-0.851773 0.401014 -0.475482)
(-0.476276 0.165399 -0.343899)
(-0.510521 0.188836 -0.359474)
(-0.541938 0.202291 -0.376361)
(-0.5021 0.134165 -0.359738)
(-0.561462 0.164718 -0.38453)
(-0.567582 0.205113 -0.391286)
(-0.524027 0.195932 -0.369177)
(-0.482127 0.133487 -0.35866)
(-0.458936 0.151015 -0.337997)
(-0.521045 0.184325 -0.37716)
(-0.475835 0.159244 -0.349353)
(-0.54068 0.462345 -0.499899)
(-0.539919 0.464172 -0.49703)
(-0.482733 0.417058 -0.491963)
(-0.526703 0.460608 -0.499375)
(-0.489973 0.434817 -0.500672)
(-0.480957 0.438416 -0.491945)
(-0.538805 0.485658 -0.496625)
(-0.535468 0.473034 -0.491912)
(-0.510618 0.4188 -0.499137)
(-0.53452 0.445707 -0.504382)
(-0.515096 0.436448 -0.482844)
(-0.526402 0.459496 -0.504525)
(-0.492522 0.44294 -0.487528)
(-0.518734 0.471977 -0.507807)
(-0.495469 0.452411 -0.499998)
(-0.477796 0.441193 -0.478146)
(-0.472404 0.44413 -0.476018)
(-0.461299 0.415099 -0.451999)
(-0.482605 0.414246 -0.477733)
(-0.443341 0.397934 -0.446751)
(-0.659615 0.443439 -0.412133)
(-0.654759 0.426638 -0.434766)
(-0.663593 0.404912 -0.425206)
(-0.641795 0.382545 -0.434961)
(-0.654991 0.408419 -0.436158)
(-0.683744 0.461806 -0.43333)
(-0.675578 0.427242 -0.416798)
(-0.593863 0.338006 -0.446684)
(-0.566713 0.315687 -0.434404)
(-0.64291 0.37225 -0.448138)
(-0.616019 0.356962 -0.457192)
(-0.603066 0.3592 -0.460535)
(-0.669208 0.432027 -0.418602)
(-0.658303 0.434792 -0.411307)
(-0.593682 0.337672 -0.429777)
(-0.642333 0.401257 -0.449187)
(-0.632498 0.389231 -0.458525)
(-0.64646 0.400667 -0.457282)
(-0.634137 0.387418 -0.441115)
(-0.69484 0.523506 -0.433523)
(-0.729064 0.511202 -0.434219)
(-0.729736 0.527206 -0.442425)
(-0.739656 0.507253 -0.447582)
(-0.735575 0.48773 -0.44788)
(-0.714468 0.506778 -0.429928)
(-0.736219 0.502325 -0.439496)
(-0.731606 0.543482 -0.429721)
(-0.712894 0.555517 -0.433556)
(-0.740347 0.52098 -0.430316)
(-0.740208 0.52471 -0.430114)
(-0.739163 0.531495 -0.429612)
(-0.731174 0.548657 -0.433872)
(-0.732722 0.539094 -0.433648)
(-0.700025 0.522628 -0.43547)
(-0.720993 0.508044 -0.434867)
(-0.684873 0.532668 -0.419203)
(-0.719166 0.541753 -0.426035)
(-0.603004 0.246974 -0.26743)
(-0.6561 0.251045 -0.279651)
(-0.618192 0.253325 -0.26451)
(-0.627973 0.294422 -0.30682)
(-0.60026 0.266339 -0.282585)
(-0.564099 0.225375 -0.236916)
(-0.616465 0.266142 -0.284744)
(-0.613124 0.240252 -0.269095)
(-0.649124 0.274936 -0.300862)
(-0.629018 0.232883 -0.267601)
(-0.645587 0.284085 -0.297605)
(-0.619282 0.229561 -0.259674)
(-0.564155 0.210475 -0.235613)
(-0.568384 0.219805 -0.229064)
(-0.550502 0.212227 -0.226691)
(-0.537847 0.196554 -0.210573)
(-0.542758 0.643802 -0.449863)
(-0.563444 0.658739 -0.438917)
(-0.523562 0.580223 -0.435741)
(-0.561391 0.625324 -0.436226)
(-0.505316 0.463263 -0.400734)
(-0.517294 0.486803 -0.410602)
(-0.531172 0.565895 -0.424333)
(-0.504047 0.432594 -0.403687)
(-0.486337 0.402163 -0.393682)
(-0.566432 0.585213 -0.433557)
(-0.529683 0.517459 -0.433104)
(-0.533127 0.527605 -0.420171)
(-0.511599 0.427068 -0.406742)
(-0.548942 0.520912 -0.422567)
(-0.519673 0.382295 -0.309364)
(-0.548834 0.415976 -0.354296)
(-0.504732 0.39454 -0.34088)
(-0.470609 0.351042 -0.276598)
(-0.581383 0.384693 -0.342596)
(-0.602027 0.389025 -0.331152)
(-0.591361 0.405509 -0.356214)
(-0.593162 0.387699 -0.315935)
(-0.529908 0.368498 -0.288882)
(-0.556215 0.394013 -0.33003)
(-0.568581 0.430417 -0.411279)
(-0.487791 0.368106 -0.311478)
(-0.484155 0.355254 -0.295419)
(-0.570267 0.371933 -0.320659)
(-0.548766 0.360794 -0.320066)
(-0.557902 0.393693 -0.352628)
(-0.536263 0.412946 -0.37381)
(-0.517208 0.341822 -0.264682)
(-0.494305 0.33736 -0.270362)
(-0.418004 0.14104 -0.310687)
(-0.395763 0.129583 -0.302489)
(-0.391915 0.149989 -0.300039)
(-0.407263 0.141891 -0.310525)
(-0.496099 0.227613 -0.34542)
(-0.394502 0.161155 -0.296055)
(-0.445867 0.156498 -0.329121)
(-0.436435 0.201769 -0.310962)
(-0.449814 0.201524 -0.321523)
(-0.427841 0.174306 -0.323719)
(-0.640497 0.391809 -0.465089)
(-0.601517 0.376095 -0.464988)
(-0.700455 0.428743 -0.457063)
(-0.695612 0.440026 -0.451966)
(-0.646498 0.417151 -0.482162)
(-0.644166 0.414164 -0.474659)
(-0.636399 0.384244 -0.470725)
(-0.609688 0.370807 -0.465643)
(-0.563229 0.342725 -0.448152)
(-0.617587 0.403376 -0.470967)
(-0.600479 0.378043 -0.448306)
(-0.683333 0.411954 -0.467859)
(-0.691461 0.432844 -0.459105)
(-0.585896 0.364985 -0.442131)
(-0.651039 0.395692 -0.46784)
(-0.64418 0.406639 -0.473966)
(-0.61982 0.367817 -0.457122)
(-0.59095 0.352806 -0.43627)
(-0.628376 0.368574 -0.460437)
(-0.712432 0.350531 -0.460074)
(-0.667216 0.317887 -0.448384)
(-0.688286 0.32115 -0.44966)
(-0.702275 0.335784 -0.448221)
(-0.716894 0.340532 -0.457612)
(-0.648835 0.29805 -0.438602)
(-0.63871 0.286322 -0.431459)
(-0.687985 0.319725 -0.452223)
(-0.631101 0.280505 -0.42666)
(-0.761993 0.387699 -0.465239)
(-0.768462 0.398453 -0.463103)
(-0.74756 0.375766 -0.455531)
(-0.780169 0.407623 -0.471948)
(-0.743964 0.365613 -0.465274)
(-0.773703 0.397314 -0.466449)
(-0.752854 0.376758 -0.468613)
(-0.688679 0.334276 -0.448789)
(-0.678645 0.323078 -0.447101)
(-0.717085 0.338947 -0.455471)
(-0.668737 0.312189 -0.443878)
(-0.729903 0.353449 -0.458609)
(-0.776334 0.386136 -0.466945)
(-0.664966 0.510613 -0.528211)
(-0.726206 0.537008 -0.525693)
(-0.707571 0.537527 -0.515031)
(-0.708952 0.53304 -0.513535)
(-0.715606 0.545123 -0.482115)
(-0.743651 0.523035 -0.488499)
(-0.725972 0.528619 -0.456671)
(-0.723608 0.493834 -0.451128)
(-0.696905 0.518283 -0.51258)
(-0.723478 0.518719 -0.502156)
(-0.760981 0.509342 -0.475538)
(-0.760889 0.527457 -0.456131)
(-0.66287 0.524867 -0.497586)
(-0.675938 0.551169 -0.52336)
(-0.723567 0.539861 -0.500495)
(-0.705206 0.528832 -0.4706)
(-0.731701 0.550152 -0.464434)
(-0.725584 0.495359 -0.454907)
(-0.70061 0.513069 -0.474588)
(-0.695197 0.521747 -0.482866)
(-0.56889 0.508668 -0.458519)
(-0.577513 0.500886 -0.448405)
(-0.556101 0.493719 -0.42547)
(-0.550272 0.480716 -0.421016)
(-0.64532 0.570487 -0.498752)
(-0.621713 0.546992 -0.481442)
(-0.633727 0.553046 -0.44528)
(-0.630895 0.524301 -0.454794)
(-0.567195 0.477692 -0.426267)
(-0.582183 0.481628 -0.429862)
(-0.610477 0.527836 -0.462834)
(-0.571902 0.525496 -0.432026)
(-0.622875 0.584444 -0.47668)
(-0.695088 0.606591 -0.443544)
(-0.651851 0.536122 -0.436906)
(-0.662119 0.532807 -0.452721)
(-0.695052 0.559729 -0.445316)
(-0.696809 0.569399 -0.463088)
(-0.669592 0.559175 -0.463924)
(-0.702693 0.595031 -0.450293)
(-0.680686 0.574324 -0.443943)
(-0.474172 0.696439 -0.566007)
(-0.454178 0.725424 -0.589211)
(-0.493632 0.70612 -0.570027)
(-0.510904 0.731891 -0.590643)
(-0.472721 0.724381 -0.582418)
(-0.491171 0.69643 -0.532889)
(-0.521331 0.756815 -0.562675)
(-0.478244 0.694631 -0.551941)
(-0.503547 0.690269 -0.587181)
(-0.515937 0.728129 -0.561372)
(-0.687757 0.42505 -0.513149)
(-0.715635 0.429705 -0.529782)
(-0.721216 0.407855 -0.493651)
(-0.690147 0.397658 -0.458914)
(-0.635468 0.424816 -0.437728)
(-0.591438 0.416411 -0.443272)
(-0.659883 0.401715 -0.409123)
(-0.671016 0.401768 -0.421788)
(-0.71205 0.49224 -0.558042)
(-0.668866 0.456017 -0.518743)
(-0.60059 0.448343 -0.472232)
(-0.585104 0.427874 -0.472996)
(-0.686254 0.456978 -0.534835)
(-0.695643 0.464485 -0.56008)
(-0.710317 0.459755 -0.554356)
(-0.612887 0.409577 -0.434336)
(-0.651738 0.44998 -0.510062)
(-0.652462 0.423806 -0.490563)
(-0.647012 0.44766 -0.522557)
(-0.570651 0.6152 -0.350716)
(-0.580324 0.600083 -0.343906)
(-0.531994 0.658739 -0.40069)
(-0.546418 0.643884 -0.372013)
(-0.580537 0.636353 -0.422374)
(-0.598763 0.610444 -0.400387)
(-0.565162 0.657354 -0.443857)
(-0.578782 0.668335 -0.492175)
(-0.585887 0.643925 -0.437567)
(-0.545466 0.670782 -0.479291)
(-0.544887 0.694735 -0.514892)
(-0.54085 0.66724 -0.458059)
(-0.574441 0.622001 -0.353)
(-0.55376 0.655031 -0.437884)
(-0.547817 0.624485 -0.380643)
(-0.563351 0.614031 -0.384624)
(-0.505676 0.5807 -0.471735)
(-0.511679 0.589505 -0.476545)
(-0.479288 0.537614 -0.425602)
(-0.491262 0.564797 -0.439888)
(-0.424849 0.498477 -0.375413)
(-0.398922 0.487417 -0.349817)
(-0.388445 0.480857 -0.340962)
(-0.398621 0.43513 -0.309333)
(-0.426743 0.451274 -0.311686)
(-0.371179 0.41014 -0.288269)
(-0.388244 0.44717 -0.325399)
(-0.402817 0.480319 -0.339364)
(-0.425247 0.488044 -0.343775)
(-0.445028 0.474509 -0.329942)
(-0.377737 0.414914 -0.292966)
(-0.423406 0.450908 -0.296603)
(-0.423719 0.528195 -0.373429)
(-0.414242 0.465258 -0.301268)
(-0.364499 0.374282 -0.242967)
(-0.394349 0.418322 -0.266731)
(-0.647597 0.352833 -0.460907)
(-0.641445 0.359236 -0.467294)
(-0.635886 0.328486 -0.438991)
(-0.627074 0.326402 -0.436255)
(-0.66892 0.372704 -0.464079)
(-0.649568 0.366384 -0.458157)
(-0.659095 0.365662 -0.459987)
(-0.672009 0.366574 -0.465504)
(-0.624781 0.343339 -0.454308)
(-0.619832 0.326259 -0.453409)
(-0.620281 0.327952 -0.44785)
(-0.63709 0.330167 -0.449916)
(-0.599703 0.309952 -0.429924)
(-0.706455 0.393822 -0.463309)
(-0.655237 0.342946 -0.468174)
(-0.687887 0.370839 -0.465818)
(-0.453177 0.545147 -0.376412)
(-0.480105 0.541962 -0.340821)
(-0.501805 0.576353 -0.32326)
(-0.47978 0.574983 -0.342816)
(-0.509888 0.580648 -0.312408)
(-0.494707 0.577041 -0.316342)
(-0.450678 0.53285 -0.418088)
(-0.475339 0.540061 -0.371443)
(-0.457643 0.541958 -0.432274)
(-0.461864 0.555281 -0.438564)
(-0.468474 0.551847 -0.37367)
(-0.497292 0.563165 -0.358385)
(-0.444634 0.557843 -0.429618)
(-0.460397 0.560558 -0.42467)
(-0.478078 0.556202 -0.400253)
(-0.376485 0.389216 -0.459742)
(-0.460732 0.487805 -0.507438)
(-0.408032 0.426393 -0.495625)
(-0.377265 0.379934 -0.481301)
(-0.379581 0.387352 -0.476846)
(-0.458733 0.480882 -0.519723)
(-0.451103 0.464645 -0.511936)
(-0.41642 0.43448 -0.485843)
(-0.393825 0.424427 -0.478252)
(-0.415802 0.400427 -0.485721)
(-0.4114 0.396165 -0.485066)
(-0.386517 0.380679 -0.462582)
(-0.408258 0.411001 -0.474299)
(-0.392929 0.397642 -0.459746)
(-0.455196 0.460264 -0.499598)
(-0.422925 0.41701 -0.488733)
(-0.457861 0.468055 -0.510469)
(-0.697726 0.39347 -0.432544)
(-0.753732 0.434201 -0.449525)
(-0.725209 0.342343 -0.429387)
(-0.781845 0.399938 -0.447478)
(-0.733409 0.430838 -0.433194)
(-0.784163 0.378567 -0.447523)
(-0.763546 0.358299 -0.442022)
(-0.721334 0.414368 -0.44616)
(-0.696088 0.392363 -0.439096)
(-0.710469 0.376998 -0.426078)
(-0.800288 0.423625 -0.45392)
(-0.809022 0.384087 -0.452261)
(-0.741068 0.411235 -0.43986)
(-0.693674 0.355243 -0.427143)
(-0.680549 0.36736 -0.431095)
(-0.73587 0.351038 -0.441689)
(-0.68325 0.348814 -0.421135)
(-0.556431 0.427329 -0.422574)
(-0.577838 0.423788 -0.437114)
(-0.609584 0.473894 -0.493543)
(-0.608184 0.457368 -0.476873)
(-0.58567 0.444257 -0.457062)
(-0.530187 0.393984 -0.386572)
(-0.497103 0.383583 -0.330749)
(-0.625062 0.455054 -0.471407)
(-0.590037 0.454696 -0.455832)
(-0.64648 0.406861 -0.390472)
(-0.655289 0.419997 -0.427724)
(-0.543378 0.390673 -0.363262)
(-0.358947 0.078002 -0.287968)
(-0.307314 0.0677527 -0.245511)
(-0.34782 0.0845953 -0.274598)
(-0.325771 0.0987178 -0.262187)
(-0.298372 0.0738236 -0.242478)
(-0.3368 0.0850675 -0.275303)
(-0.443748 0.145061 -0.327036)
(-0.332904 0.104024 -0.266774)
(-0.362849 0.138874 -0.273968)
(-0.429287 0.170292 -0.325855)
(-0.369926 0.143054 -0.28561)
(-0.381064 0.154098 -0.287633)
(-0.41382 0.172393 -0.310756)
(-0.611253 0.174077 -0.399526)
(-0.596804 0.171448 -0.389197)
(-0.540126 0.20344 -0.374987)
(-0.509085 0.173322 -0.371367)
(-0.592945 0.123964 -0.384272)
(-0.508217 0.119649 -0.355091)
(-0.647068 0.211089 -0.412199)
(-0.656998 0.195221 -0.416731)
(-0.630784 0.242084 -0.411396)
(-0.508785 0.102938 -0.356137)
(-0.628225 0.23299 -0.411318)
(-0.603832 0.150262 -0.405062)
(-0.649207 0.19808 -0.412607)
(-0.418328 0.540442 -0.525519)
(-0.40901 0.533703 -0.525268)
(-0.434687 0.533274 -0.508173)
(-0.412904 0.554114 -0.521221)
(-0.424634 0.505359 -0.520695)
(-0.36318 0.468855 -0.488028)
(-0.378517 0.494855 -0.497512)
(-0.385775 0.513131 -0.529145)
(-0.396681 0.532469 -0.53401)
(-0.426655 0.505334 -0.532031)
(-0.365953 0.462111 -0.494632)
(-0.334197 0.43166 -0.464384)
(-0.384308 0.472587 -0.500863)
(-0.348377 0.48691 -0.488824)
(-0.344699 0.45481 -0.461346)
(-0.37135 0.483892 -0.51403)
(-0.367687 0.504228 -0.523317)
(-0.354303 0.460296 -0.495992)
(-0.386418 0.478905 -0.521776)
(-0.404681 0.507272 -0.536349)
(-0.510236 0.51842 -0.421463)
(-0.476959 0.451843 -0.400379)
(-0.488598 0.44424 -0.403713)
(-0.481179 0.400588 -0.391619)
(-0.490109 0.402783 -0.393604)
(-0.528432 0.592423 -0.434874)
(-0.486672 0.425474 -0.392202)
(-0.529357 0.587555 -0.410191)
(-0.519202 0.452422 -0.412186)
(-0.521273 0.486834 -0.404155)
(-0.557928 0.566097 -0.445371)
(-0.446548 0.572734 -0.424034)
(-0.445677 0.600245 -0.437032)
(-0.53823 0.675764 -0.470297)
(-0.516618 0.635248 -0.461824)
(-0.456576 0.630899 -0.445556)
(-0.463247 0.628133 -0.463912)
(-0.510371 0.67578 -0.477853)
(-0.457985 0.593989 -0.43545)
(-0.439413 0.588211 -0.441972)
(-0.561093 0.740064 -0.49481)
(-0.556296 0.712551 -0.479213)
(-0.569528 0.693626 -0.487467)
(-0.556794 0.689622 -0.493731)
(-0.512125 0.665795 -0.481256)
(-0.543476 0.716702 -0.522846)
(-0.544764 0.726563 -0.508287)
(-0.55832 0.696695 -0.493212)
(-0.581138 0.715429 -0.487667)
(-0.522701 0.714504 -0.505904)
(-0.296119 0.485259 -0.296361)
(-0.291779 0.456678 -0.285664)
(-0.37822 0.612504 -0.414791)
(-0.380086 0.65778 -0.47104)
(-0.410684 0.6954 -0.485323)
(-0.308193 0.470588 -0.276194)
(-0.308647 0.478067 -0.277323)
(-0.3868 0.620612 -0.419958)
(-0.504762 0.753248 -0.44023)
(-0.486705 0.763919 -0.443646)
(-0.50961 0.747452 -0.430313)
(-0.538371 0.698639 -0.451466)
(-0.515959 0.749737 -0.460757)
(-0.494683 0.749792 -0.442743)
(-0.51358 0.621611 -0.429091)
(-0.521292 0.608152 -0.435509)
(-0.524782 0.591318 -0.431432)
(-0.506209 0.549841 -0.4306)
(-0.471119 0.550009 -0.423987)
(-0.469139 0.516737 -0.422565)
(-0.530268 0.69964 -0.451458)
(-0.521679 0.719245 -0.473806)
(-0.488743 0.694659 -0.432517)
(-0.492537 0.641375 -0.433184)
(-0.489496 0.572023 -0.422463)
(-0.466521 0.569534 -0.414562)
(-0.469514 0.559296 -0.427403)
(-0.52634 0.73665 -0.453872)
(-0.2811 0.302447 -0.185641)
(-0.26103 0.269375 -0.169949)
(-0.329694 0.347089 -0.206538)
(-0.321221 0.334127 -0.199162)
(-0.277829 0.300412 -0.193597)
(-0.294508 0.328022 -0.211805)
(-0.272815 0.304712 -0.213634)
(-0.281815 0.29709 -0.198056)
(-0.354448 0.37492 -0.261247)
(-0.352353 0.377906 -0.272197)
(-0.368758 0.418313 -0.305101)
(-0.635158 0.431618 -0.477963)
(-0.639226 0.412578 -0.462915)
(-0.634688 0.415291 -0.476159)
(-0.614376 0.428721 -0.483182)
(-0.610165 0.431931 -0.480807)
(-0.583503 0.402218 -0.482384)
(-0.562303 0.383053 -0.473153)
(-0.622703 0.389239 -0.465884)
(-0.550735 0.361965 -0.465865)
(-0.586713 0.372334 -0.475489)
(-0.584258 0.353935 -0.459928)
(-0.622335 0.401162 -0.46181)
(-0.556698 0.338243 -0.458196)
(-0.574955 0.347738 -0.471844)
(-0.562553 0.368637 -0.466946)
(-0.532697 0.331865 -0.442345)
(-0.578773 0.366845 -0.470142)
(-0.558404 0.347833 -0.460455)
(-0.539969 0.325374 -0.446621)
(-0.63728 0.363157 -0.465375)
(-0.609366 0.357246 -0.452864)
(-0.632087 0.368293 -0.460111)
(-0.641137 0.364192 -0.471009)
(-0.637778 0.371191 -0.46471)
(-0.703665 0.414975 -0.453464)
(-0.72397 0.443146 -0.429697)
(-0.729373 0.43556 -0.438962)
(-0.706061 0.399918 -0.464784)
(-0.71948 0.44353 -0.436545)
(-0.715478 0.435915 -0.448377)
(-0.676928 0.385982 -0.479667)
(-0.698185 0.438339 -0.453128)
(-0.698732 0.438149 -0.455832)
(-0.68255 0.408876 -0.470424)
(-0.417728 0.515704 -0.314988)
(-0.3766 0.469991 -0.251758)
(-0.39964 0.540733 -0.335318)
(-0.37142 0.520051 -0.288192)
(-0.395399 0.473079 -0.264823)
(-0.346265 0.403012 -0.192056)
(-0.372464 0.562527 -0.373022)
(-0.339326 0.454693 -0.232794)
(-0.311646 0.422596 -0.22794)
(-0.330356 0.440791 -0.248446)
(-0.397073 0.547129 -0.358927)
(-0.371507 0.530896 -0.358401)
(-0.392406 0.5825 -0.392514)
(-0.414815 0.614259 -0.417362)
(-0.335752 0.427333 -0.199849)
(-0.354062 0.429423 -0.216017)
(-0.310902 0.386171 -0.176905)
(-0.315638 0.459039 -0.251662)
(-0.319721 0.453603 -0.258385)
(-0.411789 0.597462 -0.397105)
(-0.410394 0.484192 -0.28458)
(-0.543535 0.675392 -0.552434)
(-0.511895 0.723546 -0.571441)
(-0.512844 0.723294 -0.579432)
(-0.53999 0.676293 -0.543497)
(-0.534614 0.6129 -0.483143)
(-0.503922 0.699672 -0.561467)
(-0.509829 0.694994 -0.573436)
(-0.534066 0.610952 -0.504416)
(-0.54143 0.567508 -0.469185)
(-0.55313 0.643973 -0.530685)
(-0.563079 0.609983 -0.507716)
(-0.532307 0.654133 -0.521085)
(-0.558138 0.615626 -0.51128)
(-0.553443 0.604465 -0.49933)
(-0.556877 0.609548 -0.495679)
(-0.573761 0.596998 -0.489977)
(-0.54456 0.624337 -0.528012)
(-0.54076 0.625809 -0.500926)
(-0.541884 0.607063 -0.480393)
(-0.60517 0.515588 -0.443692)
(-0.509989 0.408461 -0.39182)
(-0.483624 0.464998 -0.402574)
(-0.537056 0.529516 -0.439965)
(-0.438884 0.400173 -0.363673)
(-0.482177 0.447377 -0.384453)
(-0.440516 0.406284 -0.363708)
(-0.500461 0.410122 -0.385858)
(-0.534107 0.445767 -0.391157)
(-0.52695 0.487867 -0.422173)
(-0.424369 0.374721 -0.350843)
(-0.404817 0.345118 -0.340419)
(-0.503123 0.440266 -0.388679)
(-0.457457 0.374315 -0.363689)
(-0.47638 0.43228 -0.389264)
(-0.452616 0.385416 -0.371893)
(-0.438316 0.379675 -0.358004)
(-0.591376 0.536639 -0.444505)
(-0.586954 0.512272 -0.433331)
(-0.44691 0.34987 -0.355388)
(-0.486943 0.406817 -0.391861)
(-0.579901 0.329117 -0.43854)
(-0.573442 0.315778 -0.435202)
(-0.553127 0.312796 -0.429685)
(-0.542982 0.311899 -0.43575)
(-0.558119 0.328179 -0.437419)
(-0.582668 0.362075 -0.461269)
(-0.590158 0.362017 -0.459195)
(-0.627534 0.415304 -0.450382)
(-0.626391 0.392086 -0.459546)
(-0.618636 0.386364 -0.433358)
(-0.574915 0.339911 -0.438817)
(-0.620911 0.436711 -0.434929)
(-0.631741 0.422207 -0.428935)
(-0.600285 0.384272 -0.427236)
(-0.613271 0.409614 -0.459221)
(-0.633652 0.478023 -0.432654)
(-0.645048 0.485616 -0.419448)
(-0.600917 0.382288 -0.426916)
(-0.622541 0.4486 -0.409213)
(-0.605493 0.411073 -0.43443)
(-0.742657 0.45909 -0.559324)
(-0.738874 0.461494 -0.550256)
(-0.748073 0.452583 -0.555801)
(-0.759012 0.452333 -0.569318)
(-0.756008 0.49993 -0.595344)
(-0.768454 0.378697 -0.500419)
(-0.78128 0.368475 -0.489743)
(-0.741505 0.501207 -0.615779)
(-0.755483 0.461727 -0.55644)
(-0.764483 0.335068 -0.476112)
(-0.764486 0.35384 -0.473402)
(-0.732083 0.312448 -0.436319)
(-0.763651 0.400404 -0.529881)
(-0.767733 0.381547 -0.492469)
(-0.738865 0.352649 -0.488571)
(-0.72012 0.311308 -0.46052)
(-0.745996 0.357779 -0.50547)
(-0.763752 0.395181 -0.538629)
(-0.76126 0.473634 -0.588639)
(-0.768989 0.379763 -0.530371)
(-0.772209 0.397149 -0.467461)
(-0.743931 0.380468 -0.464431)
(-0.707683 0.335674 -0.437905)
(-0.713112 0.359919 -0.45949)
(-0.75679 0.387884 -0.47271)
(-0.74213 0.371572 -0.473338)
(-0.711215 0.352164 -0.459594)
(-0.734384 0.363785 -0.466936)
(-0.763289 0.381739 -0.465083)
(-0.78387 0.399839 -0.479038)
(-0.710952 0.34812 -0.453596)
(-0.754113 0.371661 -0.469933)
(-0.786724 0.385358 -0.476388)
(-0.722243 0.35155 -0.463966)
(-0.681899 0.323798 -0.444139)
(-0.726569 0.35151 -0.458799)
(-0.766085 0.379082 -0.468091)
(-0.682022 0.326463 -0.437472)
(-0.812075 0.4069 -0.48582)
(-0.824666 0.402864 -0.482216)
(-0.713321 0.33041 -0.443378)
(-0.744335 0.355732 -0.466726)
(-0.721294 0.338634 -0.458591)
(-0.767211 0.379667 -0.466535)
(-0.717032 0.327583 -0.433644)
(-0.803817 0.401629 -0.479045)
(-0.754531 0.35657 -0.467533)
(-0.81138 0.404761 -0.483325)
(-0.803651 0.405192 -0.476684)
(-0.809006 0.392968 -0.481598)
(-0.777705 0.371138 -0.465188)
(-0.694956 0.402966 -0.404163)
(-0.709468 0.42207 -0.40454)
(-0.701948 0.544821 -0.433917)
(-0.71292 0.535825 -0.435206)
(-0.717426 0.540116 -0.437879)
(-0.70933 0.546398 -0.434328)
(-0.717325 0.441397 -0.417011)
(-0.684982 0.427196 -0.401536)
(-0.717924 0.501958 -0.428978)
(-0.725572 0.495694 -0.428967)
(-0.681312 0.400514 -0.392568)
(-0.708117 0.432557 -0.410691)
(-0.693883 0.470993 -0.411318)
(-0.71572 0.533833 -0.432267)
(-0.703588 0.481544 -0.418791)
(-0.686376 0.451911 -0.403355)
(-0.726769 0.533185 -0.444992)
(-0.713588 0.453832 -0.41447)