/*--------------------------------*- C++ -*----------------------------------*\
| =========                 |                                                 |
| \\      /  F ield         | OpenFOAM: The Open Source CFD Toolbox           |
|  \\    /   O peration     | Version:  v1612+                                |
|   \\  /    A nd           | Web:      www.OpenFOAM.com                      |
|    \\/     M anipulation  |                                                 |
\*---------------------------------------------------------------------------*/
FoamFile
{
    version     2.0;
    format      ascii;
    class       volScalarField;
    location    "50";
    object      p;
}
// * * * * * * * * * * * * * * * * * * * * * * * * * * * * * * * * * * * * * //

dimensions      [0 2 -2 0 0 0 0];

internalField   nonuniform List<scalar> 
18807
(
2.9029
2.89717
2.8939
2.89144
2.9018
2.90858
2.90292
2.89768
2.90656
2.90499
2.90002
2.91044
2.92002
2.90439
2.9034
2.91034
2.78183
2.78206
2.78019
2.79245
2.78047
2.8131
2.79988
2.80689
2.80934
2.78475
2.79233
2.80957
2.80567
2.78979
2.79454
2.80599
2.79885
2.80739
2.80673
2.80104
2.80823
2.80505
2.80419
2.79622
2.79993
2.80464
2.81408
2.81099
2.80417
2.8042
2.80544
2.799
2.80357
2.804
2.81687
2.80187
2.80505
2.79926
2.81153
2.73617
2.73673
2.73976
2.73473
2.73858
2.73935
2.74143
2.74064
2.73914
2.73934
2.74823
2.75134
2.75027
2.75462
2.74875
2.75253
2.74722
2.75165
2.75148
2.75082
2.75341
2.74764
2.7489
2.74697
2.7458
2.77653
2.77585
2.77228
2.77092
2.77499
2.78116
2.77487
2.7732
2.77212
2.77494
2.771
2.77539
2.77752
2.76837
2.77005
2.77309
2.77298
2.76875
2.82239
2.82615
2.82831
2.82258
2.8137
2.819
2.83737
2.81768
2.80969
2.80741
2.81507
2.82547
2.77732
2.77669
2.7731
2.76876
2.77052
2.76961
2.77605
2.76793
2.77267
2.76709
2.76529
2.77046
2.7687
2.82552
2.82432
2.82568
2.82039
2.81618
2.81899
2.82397
2.82398
2.82398
2.81773
2.81349
2.81701
2.81688
2.81757
2.81945
2.81973
2.82358
2.81474
2.82267
2.8109
2.81663
2.79197
2.78802
2.7793
2.78586
2.76942
2.77306
2.78022
2.77663
2.76955
2.77472
2.76894
2.76807
2.78938
2.77705
2.78064
2.77492
2.77834
2.77191
2.77225
2.76722
2.77621
2.77347
2.776
2.76955
2.78017
2.77661
2.77632
2.7722
2.77341
2.77343
2.77826
2.78029
2.7733
2.76735
2.77353
2.85199
2.86663
2.85146
2.85144
2.85197
2.83806
2.83429
2.85333
2.85794
2.8517
2.84153
2.83644
2.83952
2.84931
2.84762
2.85005
2.83767
2.84726
2.82958
2.84068
2.84782
2.80223
2.81201
2.80816
2.80385
2.80627
2.80605
2.81261
2.80381
2.81232
2.81465
2.81317
2.81886
2.81719
2.80688
2.79894
2.79906
2.80689
2.76653
2.75927
2.7656
2.76501
2.76056
2.77201
2.76537
2.76482
2.76767
2.76512
2.7686
2.82096
2.82225
2.81718
2.81657
2.83002
2.83629
2.82949
2.83524
2.82994
2.81953
2.81687
2.82308
2.82137
2.82239
2.81915
2.83332
2.82502
2.82651
2.81258
2.81437
2.82688
2.82351
2.83842
2.83538
2.82966
2.83274
2.79169
2.78997
2.79851
2.79282
2.79981
2.80197
2.79763
2.79465
2.79785
2.79595
2.79686
2.8039
2.80741
2.7992
2.80303
2.79872
2.79841
2.80141
2.80132
2.80446
2.79862
2.80319
2.83373
2.84262
2.84292
2.84323
2.845
2.8501
2.84533
2.84277
2.84735
2.85895
2.8582
2.85369
2.85279
2.85606
2.85835
2.86031
2.85669
2.85749
2.891
2.89927
2.90632
2.91744
2.91575
2.9158
2.91668
2.91942
2.9188
2.92071
2.90336
2.91033
2.89926
2.90964
2.89354
2.90031
2.90529
2.90472
2.91978
2.90618
2.80307
2.80857
2.81386
2.81247
2.80155
2.80515
2.79861
2.80902
2.81474
2.799
2.81015
2.80178
2.79826
2.80832
2.80423
2.80635
2.80099
2.81005
2.86403
2.85053
2.859
2.85063
2.85879
2.86529
2.86757
2.86434
2.86774
2.86151
2.85716
2.85148
2.86803
2.85444
2.86542
2.80792
2.81384
2.81156
2.8046
2.82059
2.83005
2.83199
2.80791
2.80115
2.80999
2.81986
2.82056
2.82622
2.80823
2.80567
2.81127
2.80266
2.8227
2.81004
2.81364
2.75186
2.7516
2.75289
2.75226
2.75276
2.75468
2.75055
2.75361
2.75265
2.75188
2.75203
2.81832
2.81689
2.78891
2.77976
2.79093
2.7808
2.78779
2.78206
2.80331
2.81348
2.79268
2.7879
2.78379
2.7913
2.80835
2.80876
2.80165
2.75644
2.73046
2.77474
2.7749
2.85572
2.78389
2.78098
2.78884
2.76447
2.83421
2.82833
2.82747
2.80981
2.82511
2.83287
2.82571
2.83242
2.82718
2.82373
2.82472
2.80754
2.81512
2.83395
2.82916
2.82633
2.85181
2.85554
2.83198
2.83713
2.85672
2.85259
2.85585
2.84623
2.82451
2.8277
2.84287
2.81825
2.81986
2.82808
2.83489
2.8339
2.82434
2.82891
2.82946
2.79738
2.81921
2.82923
2.80747
2.81352
2.82211
2.8176
2.82027
2.82522
2.80241
2.80746
2.80876
2.81521
2.73375
2.73685
2.7363
2.7441
2.73955
2.73715
2.74066
2.73605
2.72934
2.73068
2.73734
2.73525
2.73669
2.73298
2.73388
2.73692
2.7305
2.73502
2.73521
2.7737
2.78136
2.77118
2.76916
2.775
2.76834
2.7708
2.77013
2.76762
2.759
2.76877
2.76633
2.78444
2.78466
2.78501
2.7873
2.79017
2.78232
2.77855
2.79097
2.78624
2.78358
2.78302
2.7918
2.78299
2.78444
2.78765
2.77965
2.78679
2.78913
2.78908
2.78845
2.78376
2.7891
2.78564
2.78892
2.84222
2.83898
2.84135
2.83448
2.83505
2.84001
2.8429
2.83328
2.84486
2.83246
2.84101
2.8371
2.82841
2.84019
2.75683
2.75874
2.77155
2.76854
2.76022
2.76024
2.76917
2.76957
2.76416
2.76268
2.77356
2.76793
2.76143
2.75858
2.76325
2.7604
2.76582
2.76225
2.8603
2.85611
2.84852
2.84715
2.88634
2.87321
2.85796
2.867
2.87562
2.88012
2.8907
2.86441
2.85909
2.87905
2.88948
2.85607
2.8799
2.83898
2.84045
2.84663
2.82992
2.83873
2.84341
2.85071
2.84495
2.84871
2.84766
2.84775
2.84701
2.83277
2.8403
2.85465
2.85686
2.84807
2.84516
2.86226
2.85774
2.8493
2.85807
2.84726
2.85074
2.81776
2.81764
2.81361
2.81112
2.81451
2.81626
2.82764
2.83094
2.83279
2.83585
2.82447
2.8226
2.81673
2.81605
2.82128
2.82395
2.81789
2.82306
2.82654
2.82095
2.82631
2.79541
2.80581
2.80238
2.79996
2.79079
2.79355
2.79133
2.77856
2.78042
2.77364
2.78138
2.80454
2.79489
2.79046
2.77211
2.78333
2.78222
2.784
2.78793
2.77847
2.77915
2.77198
2.7781
2.78061
2.77597
2.77532
2.77536
2.78077
2.76708
2.76947
2.7622
2.79306
2.7925
2.79208
2.80897
2.79927
2.79374
2.808
2.79634
2.79929
2.80265
2.8017
2.80583
2.80287
2.80975
2.81679
2.81332
2.80778
2.81023
2.80653
2.8055
2.79659
2.80231
2.80647
2.81121
2.81189
2.81978
2.81178
2.80807
2.80418
2.81012
2.79185
2.79437
2.79543
2.79159
2.79535
2.7945
2.79938
2.79769
2.79434
2.80432
2.80327
2.79801
2.79678
2.80362
2.80754
2.79861
2.81975
2.81897
2.82307
2.83284
2.82516
2.81828
2.81783
2.80744
2.80688
2.82877
2.81743
2.80486
2.81992
2.81511
2.81823
2.81312
2.81569
2.81236
2.82524
2.80498
2.80931
2.80475
2.80911
2.81289
2.81356
2.80799
2.80939
2.81772
2.82175
2.81479
2.79038
2.78248
2.78738
2.78332
2.78
2.78486
2.77464
2.78213
2.77909
2.77594
2.77352
2.7681
2.78572
2.79258
2.80095
2.79978
2.78761
2.79654
2.79358
2.79431
2.79214
2.77049
2.77868
2.79589
2.78733
2.79366
2.78981
2.7783
2.78701
2.89675
2.89718
2.89985
2.89733
2.88771
2.89183
2.91335
2.8993
2.90066
2.91421
2.90312
2.90656
2.89854
2.88977
2.90376
2.89806
2.81717
2.82492
2.82907
2.82755
2.82212
2.81905
2.82939
2.82334
2.82251
2.81869
2.82352
2.82468
2.82227
2.83592
2.83664
2.83838
2.83473
2.83751
2.83803
2.82337
2.82683
2.82723
2.83363
2.82283
2.831
2.82447
2.8264
2.82537
2.82982
2.82498
2.73691
2.74272
2.74333
2.73989
2.73903
2.74583
2.74392
2.74555
2.74457
2.737
2.75161
2.75053
2.74275
2.74465
2.77214
2.7732
2.77024
2.7955
2.78794
2.77721
2.77657
2.7348
2.76688
2.75966
2.76033
2.74141
2.73693
2.73999
2.74613
2.74268
2.74959
2.7383
2.74171
2.73871
2.73576
2.78321
2.78857
2.78014
2.82268
2.81854
2.78333
2.77808
2.75518
2.75734
2.81155
2.76024
2.75388
2.75369
2.74453
2.74592
2.75063
2.75047
2.75012
2.83926
2.82762
2.8324
2.82516
2.80006
2.79275
2.80223
2.78632
2.79324
2.79246
2.76154
2.7668
2.76616
2.84463
2.84357
2.83481
2.84329
2.84117
2.7634
2.75704
2.75713
2.75418
2.75767
2.75245
2.75689
2.77636
2.77436
2.7661
2.76772
2.81002
2.79891
2.80822
2.79995
2.80359
2.79239
2.78853
2.79472
2.83246
2.83672
2.85202
2.85534
2.85542
2.76782
2.76626
2.77186
2.76697
2.81011
2.80104
2.8017
2.79323
2.79742
2.78949
2.76521
2.76808
2.79465
2.79969
2.79162
2.79606
2.77261
2.77168
2.83875
2.84507
2.84823
2.85959
2.85914
2.79305
2.79073
2.79757
2.79263
2.78077
2.78491
2.78087
2.78363
2.78365
2.78691
2.78266
2.77617
2.77639
2.77878
2.83344
2.84125
2.82059
2.81504
2.81978
2.81927
2.81273
2.81869
2.81663
2.87671
2.87336
2.87017
2.86689
2.86018
2.85679
2.84801
2.78944
2.79001
2.78221
2.8002
2.79763
2.79308
2.80781
2.81106
2.7961
2.84144
2.84466
2.78938
2.79541
2.79079
2.80426
2.80122
2.80565
2.80083
2.89395
2.89033
2.88491
2.88757
2.89319
2.89155
2.81836
2.81225
2.82196
2.81997
2.81477
2.82642
2.85935
2.86032
2.84929
2.80616
2.80573
2.80042
2.87144
2.88606
2.88173
2.87822
2.90522
2.90952
2.82259
2.81804
2.81705
2.81031
2.80595
2.8102
2.87749
2.87519
2.88415
2.82126
2.81998
2.82272
2.81798
2.83501
2.82702
2.83797
2.91823
2.92193
2.84837
2.85663
2.85096
2.83835
2.86618
2.87031
2.90256
2.89543
2.8952
2.82581
2.82829
2.84573
2.84543
2.84006
2.8379
2.84148
2.83351
2.93346
2.93084
2.93958
2.92861
2.82064
2.82452
2.82625
2.83573
2.8362
2.90577
2.91509
2.90712
2.87772
2.88831
2.87846
2.85012
2.84762
2.83866
2.83604
2.8374
2.95109
2.94257
2.95058
2.84217
2.84283
2.85845
2.85213
2.84453
2.85609
2.90714
2.89113
2.90351
2.89009
2.89785
2.86582
2.86318
2.87506
2.87519
2.88869
2.88449
2.84143
2.84726
2.84436
2.84065
2.8422
2.85585
2.84241
2.84712
2.84407
2.84119
2.84168
2.94556
2.94894
2.94336
2.92957
2.93155
2.9402
2.94829
2.94078
2.9276
2.93828
2.95276
2.94596
2.95523
2.96087
2.87742
2.88903
2.89437
2.83012
2.83587
2.83421
2.83049
2.83244
2.82739
2.83464
2.83639
2.82817
2.82826
2.82832
2.83353
2.83371
2.83018
2.83091
2.83447
2.85672
2.86789
2.85596
2.86583
2.87019
2.84624
2.84492
2.83992
2.84604
2.84078
2.84593
2.84169
2.84675
2.84297
2.83649
2.87197
2.8647
2.87651
2.87079
2.87336
2.86282
2.87672
2.87193
2.86896
2.88623
2.87678
2.86922
2.89028
2.8898
2.88738
2.88247
2.88422
2.88313
2.91356
2.92458
2.91503
2.89247
2.88752
2.8928
2.87527
2.884
2.88173
2.82045
2.82636
2.82261
2.82556
2.8232
2.82281
2.8213
2.82344
2.82793
2.824
2.82361
2.91053
2.90506
2.91024
2.89134
2.90022
2.89889
2.89641
2.89496
2.89857
2.89993
2.9399
2.92108
2.90911
2.91119
2.91753
2.90756
2.91661
2.91646
2.83911
2.83662
2.83633
2.83702
2.84149
2.83871
2.83997
2.8386
2.83121
2.83286
2.83217
2.83315
2.82852
2.83214
2.83417
2.83252
2.82972
2.83042
2.83353
2.84227
2.83372
2.83313
2.83194
2.83367
2.8357
2.83197
2.84295
2.83607
2.84112
2.84221
2.83221
2.83591
2.84018
2.83697
2.83915
2.83963
2.84185
2.84043
2.80997
2.81629
2.81263
2.82677
2.82625
2.82756
2.82479
2.82115
2.82022
2.82063
2.81812
2.82156
2.82294
2.81803
2.82012
2.81469
2.81974
2.8171
2.81572
2.82436
2.82824
2.82988
2.82359
2.82781
2.82101
2.82325
2.82893
2.82964
2.9081
2.91349
2.91258
2.92326
2.90946
2.93045
2.92794
2.92431
2.93948
2.93516
2.9303
2.90941
2.93133
2.9191
2.93013
2.92954
2.91817
2.91532
2.82641
2.82949
2.82799
2.82842
2.83483
2.83972
2.85104
2.85415
2.86097
2.83233
2.83483
2.83915
2.83509
2.83798
2.84452
2.83103
2.83329
2.83005
2.82041
2.82477
2.82387
2.82197
2.82272
2.82424
2.82668
2.83151
2.83047
2.83268
2.82924
2.82787
2.82992
2.82979
2.87174
2.87599
2.86488
2.86567
2.88611
2.88196
2.89884
2.87526
2.88439
2.90511
2.89477
2.88605
2.88829
2.9072
2.89457
2.89819
2.90483
2.90442
2.84155
2.84598
2.83839
2.84675
2.87237
2.87328
2.85782
2.85953
2.88034
2.88381
2.86466
2.86519
2.85856
2.86604
2.86893
2.86954
2.88158
2.87179
2.87085
2.88605
2.88553
2.86595
2.86919
2.87862
2.875
2.8377
2.8331
2.83706
2.84113
2.83841
2.83608
2.84461
2.83375
2.83294
2.84119
2.83542
2.83319
2.83425
2.84434
2.84176
2.85402
2.84776
2.85429
2.84073
2.83701
2.84857
2.86112
2.86226
2.85192
2.85326
2.84941
2.8392
2.8447
2.84519
2.83996
2.84004
2.91122
2.90892
2.90643
2.9163
2.91679
2.91687
2.91551
2.92516
2.92056
2.92836
2.91784
2.92963
2.91882
2.802
2.81752
2.81378
2.81605
2.80515
2.81046
2.81242
2.8127
2.82059
2.82225
2.82081
2.81514
2.82633
2.82787
2.8251
2.82508
2.82253
2.82102
2.82114
2.82028
2.82118
2.81414
2.81733
2.80886
2.81613
2.80866
2.80845
2.81011
2.81574
2.89019
2.89165
2.88531
2.88802
2.86507
2.85055
2.85158
2.86436
2.86282
2.85735
2.86616
2.86788
2.80273
2.81035
2.80689
2.80623
2.80107
2.80636
2.80057
2.80402
2.81391
2.80996
2.80495
2.81705
2.81577
2.81879
2.80983
2.8134
2.80753
2.80977
2.80694
2.80451
2.81113
2.81356
2.80147
2.80666
2.80744
2.80793
2.81245
2.81724
2.81655
2.81255
2.82132
2.82434
2.81824
2.81619
2.82069
2.81672
2.82565
2.82598
2.81713
2.83141
2.83039
2.82888
2.82816
2.82547
2.89182
2.88677
2.90615
2.90412
2.89769
2.88555
2.89162
2.8901
2.87222
2.87376
2.88458
2.8815
2.87321
2.89053
2.8497
2.84854
2.855
2.86529
2.86711
2.86045
2.86993
2.87307
2.85991
2.86032
2.90078
2.89886
2.88163
2.88266
2.90295
2.8886
2.88755
2.88609
2.86246
2.86053
2.85567
2.85005
2.8638
2.8694
2.8545
2.86139
2.87026
2.86429
2.78896
2.79837
2.79607
2.79797
2.79792
2.80233
2.79942
2.80206
2.80725
2.80325
2.80098
2.80333
2.80469
2.80624
2.79978
2.80133
2.80242
2.80792
2.80622
2.80215
2.80406
2.80365
2.80253
2.80817
2.80997
2.80883
2.80414
2.80586
2.83901
2.84711
2.84368
2.84986
2.85129
2.84883
2.88014
2.87812
2.88302
2.8761
2.87888
2.869
2.86791
2.87386
2.86186
2.86957
2.80355
2.80703
2.80988
2.80788
2.83273
2.82548
2.82112
2.83096
2.8234
2.80335
2.81625
2.81453
2.81145
2.82005
2.81455
2.82223
2.81727
2.82563
2.81739
2.81492
2.80907
2.80787
2.81233
2.80795
2.81287
2.81219
2.81174
2.81165
2.8297
2.83311
2.82602
2.89311
2.89028
2.89947
2.89437
2.88968
2.87889
2.87486
2.88404
2.88121
2.88285
2.88436
2.8791
2.86999
2.87521
2.87339
2.87516
2.88292
2.87974
2.87673
2.89205
2.88653
2.88572
2.89047
2.88781
2.88322
2.88488
2.89754
2.90079
2.88757
2.89768
2.89169
2.89305
2.88608
2.90324
2.89546
2.89943
2.89419
2.79408
2.79945
2.80007
2.79867
2.79784
2.79235
2.80154
2.80257
2.7988
2.79777
2.79625
2.79585
2.80505
2.80433
2.80795
2.80761
2.81379
2.8143
2.80455
2.79105
2.78748
2.7981
2.7934
2.79933
2.79964
2.78248
2.78812
2.78795
2.7906
2.78976
2.79283
2.78781
2.78982
2.79341
2.79268
2.83013
2.83687
2.83111
2.83287
2.83586
2.82079
2.82319
2.83591
2.83782
2.85989
2.84703
2.8694
2.8604
2.84628
2.84285
2.85382
2.85297
2.84714
2.86287
2.86973
2.84116
2.84014
2.85735
2.86073
2.85326
2.84741
2.84577
2.84276
2.84956
2.86031
2.86345
2.79973
2.80654
2.80473
2.80063
2.82289
2.82921
2.82505
2.83154
2.81724
2.81812
2.81341
2.83254
2.79313
2.79002
2.78978
2.78873
2.78888
2.79516
2.80428
2.79969
2.79754
2.79212
2.7996
2.79249
2.807
2.80311
2.78435
2.78521
2.77733
2.7822
2.78433
2.78539
2.79068
2.7918
2.78933
2.80118
2.80201
2.79208
2.79007
2.79703
2.79792
2.79484
2.79343
2.79773
2.79198
2.79637
2.79399
2.797
2.79305
2.79182
2.86528
2.86931
2.8773
2.85688
2.84796
2.85855
2.84793
2.85998
2.86269
2.84677
2.84178
2.83533
2.83727
2.84051
2.84253
2.85582
2.84672
2.83697
2.82824
2.83523
2.85031
2.84591
2.83662
2.83504
2.86562
2.85482
2.86585
2.86914
2.87883
2.87392
2.87753
2.87222
2.81383
2.81344
2.80543
2.80431
2.81161
2.80952
2.83335
2.83862
2.82193
2.8281
2.8308
2.82145
2.81317
2.8173
2.82074
2.81989
2.82197
2.81726
2.81112
2.80963
2.81336
2.80859
2.82262
2.82053
2.84562
2.8318
2.84573
2.84614
2.83697
2.84333
2.83706
2.83883
2.85182
2.84625
2.8429
2.84124
2.85951
2.86767
2.85167
2.84771
2.77259
2.77576
2.76956
2.77188
2.77848
2.773
2.77141
2.77711
2.77919
2.77162
2.77029
2.77611
2.77564
2.77102
2.77355
2.77058
2.76948
2.78694
2.78955
2.78642
2.7758
2.77745
2.77501
2.78132
2.78274
2.77699
2.77642
2.77974
2.791
2.78822
2.78574
2.78398
2.78518
2.78398
2.78722
2.7963
2.79764
2.79397
2.78995
2.78983
2.79299
2.79758
2.79836
2.7966
2.77428
2.77912
2.77464
2.78387
2.78432
2.7844
2.77941
2.77044
2.78038
2.78985
2.79055
2.78622
2.79054
2.78562
2.78228
2.85864
2.84771
2.84767
2.866
2.86032
2.85275
2.85509
2.8676
2.85077
2.84848
2.84389
2.83823
2.84672
2.84891
2.86553
2.86913
2.86451
2.8646
2.86068
2.84664
2.84825
2.84329
2.85543
2.8571
2.85441
2.8322
2.83786
2.83906
2.83563
2.83603
2.84137
2.84468
2.84727
2.86762
2.86423
2.85452
2.85376
2.85037
2.85038
2.86323
2.85142
2.85213
2.84961
2.84349
2.86331
2.84173
2.8392
2.8394
2.84241
2.84322
2.76995
2.77248
2.76886
2.76494
2.76613
2.76198
2.78065
2.78026
2.77121
2.77473
2.77393
2.77128
2.77119
2.78725
2.79223
2.78976
2.79071
2.78782
2.76488
2.75698
2.76596
2.76577
2.76602
2.76356
2.76534
2.76608
2.76618
2.76912
2.76924
2.76733
2.76557
2.76274
2.76539
2.76814
2.76878
2.76972
2.76909
2.76985
2.80804
2.8165
2.81064
2.82077
2.81702
2.79948
2.8033
2.8013
2.76015
2.76322
2.76047
2.76443
2.7634
2.77526
2.77611
2.77504
2.77036
2.77727
2.77349
2.77146
2.76728
2.77296
2.77171
2.8425
2.85099
2.84544
2.84262
2.83824
2.8528
2.8554
2.85064
2.86302
2.87184
2.86452
2.85265
2.86621
2.86275
2.85769
2.84945
2.81654
2.80514
2.81786
2.83516
2.8376
2.83329
2.81982
2.83118
2.82576
2.82657
2.82332
2.81549
2.81367
2.81901
2.83028
2.83173
2.77159
2.78294
2.78156
2.78908
2.78212
2.78481
2.77664
2.77629
2.78875
2.78112
2.80491
2.81037
2.80691
2.80182
2.8009
2.79512
2.81204
2.80216
2.7823
2.78377
2.79274
2.79564
2.82114
2.81337
2.81143
2.8092
2.78967
2.79304
2.7932
2.78857
2.78441
2.81519
2.8108
2.80254
2.81863
2.81507
2.81119
2.80539
2.81695
2.81317
2.76177
2.76467
2.7603
2.75956
2.76521
2.75998
2.76219
2.76231
2.762
2.7601
2.77191
2.77443
2.77543
2.77373
2.77204
2.76805
2.77164
2.7723
2.77158
2.76901
2.76495
2.7696
2.76793
2.76471
2.76914
2.76611
2.76851
2.773
2.76811
2.77371
2.76957
2.76858
2.75668
2.76794
2.76922
2.7622
2.76294
2.74995
2.75173
2.75271
2.75298
2.75925
2.75197
2.75205
2.75653
2.76166
2.75915
2.7532
2.75521
2.75262
2.75316
2.7541
2.75276
2.75054
2.75247
2.76516
2.76181
2.76281
2.76316
2.76058
2.75891
2.75751
2.75907
2.76361
2.7639
2.75886
2.7589
2.76085
2.75238
2.75366
2.76572
2.75956
2.76271
2.75526
2.75403
2.75626
2.75582
2.76471
2.76629
2.76068
2.76539
2.75976
2.76085
2.83528
2.83835
2.8361
2.84805
2.85174
2.84748
2.84314
2.83615
2.85055
2.84068
2.84747
2.83641
2.83232
2.83212
2.8362
2.82536
2.82283
2.83212
2.83779
2.83592
2.83012
2.83645
2.82891
2.83364
2.8335
2.77437
2.77393
2.7643
2.76097
2.75797
2.75998
2.76522
2.75809
2.76716
2.76779
2.80505
2.8133
2.80425
2.78493
2.78064
2.79716
2.78841
2.79598
2.79895
2.78659
2.78192
2.7756
2.78492
2.77826
2.77292
2.7792
2.78213
2.79083
2.80371
2.79548
2.8056
2.80258
2.79716
2.79825
2.79679
2.7924
2.8024
2.79813
2.80236
2.80286
2.79981
2.79874
2.80266
2.77901
2.77345
2.78906
2.78853
2.79013
2.78165
2.7954
2.79159
2.79259
2.79413
2.8215
2.8188
2.83051
2.8208
2.83171
2.7438
2.74445
2.74882
2.74739
2.75476
2.75469
2.75824
2.75797
2.7586
2.76452
2.75772
2.75817
2.7579
2.73809
2.74445
2.74205
2.74687
2.74404
2.74265
2.74678
2.74149
2.74282
2.73676
2.74564
2.74477
2.74448
2.75432
2.75111
2.75191
2.75443
2.75009
2.74956
2.74832
2.75053
2.74462
2.74855
2.75409
2.7502
2.74897
2.74959
2.80645
2.80853
2.82329
2.8258
2.82073
2.83393
2.76181
2.76589
2.75034
2.74795
2.76644
2.76514
2.75877
2.74812
2.79555
2.80248
2.79784
2.81164
2.80651
2.81266
2.82516
2.82784
2.82358
2.82844
2.82277
2.82993
2.82442
2.82584
2.82337
2.8166
2.82645
2.82453
2.77871
2.79028
2.78133
2.77773
2.7814
2.77709
2.78206
2.77667
2.79232
2.79153
2.78586
2.78437
2.78706
2.78374
2.7994
2.80574
2.79291
2.79563
2.79952
2.79163
2.79264
2.78625
2.7864
2.73037
2.73612
2.74136
2.7402
2.73395
2.73288
2.73422
2.73207
2.7346
2.73559
2.7301
2.73598
2.74012
2.73796
2.74696
2.74331
2.73815
2.74011
2.74213
2.74742
2.74559
2.73149
2.73241
2.7315
2.73926
2.73823
2.73453
2.73784
2.73929
2.74038
2.73923
2.7347
2.73419
2.7375
2.73163
2.74025
2.74166
2.74144
2.73778
2.73432
2.73888
2.73443
2.7337
2.7635
2.76582
2.7608
2.75597
2.74714
2.75262
2.75155
2.75159
2.77155
2.76982
2.76889
2.77965
2.76335
2.76146
2.76164
2.76208
2.7742
2.77713
2.77721
2.77394
2.77079
2.76959
2.79718
2.79923
2.80581
2.80481
2.80186
2.81833
2.80474
2.81989
2.81664
2.74448
2.73595
2.73987
2.73675
2.73364
2.7346
2.73543
2.73092
2.7303
2.72954
2.73263
2.83197
2.8288
2.8148
2.81905
2.82318
2.82218
2.81579
2.81529
2.76959
2.78785
2.7864
2.77876
2.77291
2.75599
2.75081
2.75367
2.75795
2.75843
2.76787
2.77781
2.77009
2.77477
2.77178
2.77793
2.76874
2.76335
2.737
2.74361
2.74015
2.74065
2.74751
2.74014
2.74092
2.74268
2.74166
2.74274
2.73097
2.73066
2.73321
2.73167
2.78847
2.77687
2.78856
2.78979
2.78493
2.78144
2.77783
2.78573
2.77865
2.79283
2.79121
2.77864
2.79158
2.78621
2.77995
2.79235
2.79418
2.78951
2.78729
2.79271
2.79645
2.78894
2.78914
2.79002
2.80136
2.80499
2.77312
2.76696
2.76648
2.76653
2.77526
2.77631
2.77088
2.76937
2.76345
2.76389
2.76493
2.75633
2.76422
2.75301
2.75541
2.75984
2.75875
2.75832
2.75919
2.82284
2.82921
2.83292
2.82257
2.82983
2.83142
2.83076
2.83326
2.83222
2.82004
2.81937
2.75116
2.75897
2.75828
2.75707
2.75502
2.75308
2.75868
2.75869
2.74706
2.74775
2.74967
2.74428
2.74449
2.74321
2.74726
2.74776
2.74772
2.74668
2.74433
2.73942
2.74166
2.74076
2.74134
2.73799
2.74197
2.74527
2.74797
2.74865
2.74832
2.74927
2.74907
2.74904
2.75222
2.74416
2.74791
2.75171
2.75455
2.74935
2.75012
2.75115
2.74351
2.74368
2.74955
2.74556
2.82257
2.82578
2.82434
2.81992
2.8282
2.82617
2.80206
2.82093
2.811
2.81339
2.80729
2.80713
2.80202
2.80084
2.80558
2.81553
2.81615
2.82247
2.81626
2.82423
2.82217
2.78968
2.78015
2.79656
2.80258
2.79972
2.79536
2.79161
2.80363
2.79866
2.80734
2.8044
2.81455
2.82035
2.82879
2.82263
2.86414
2.85584
2.8543
2.8463
2.8478
2.85183
2.84748
2.83059
2.83278
2.84457
2.83936
2.83161
2.82098
2.8262
2.82836
2.84147
2.8414
2.83709
2.8355
2.84482
2.7581
2.75801
2.75368
2.7667
2.76792
2.76996
2.76077
2.84118
2.83713
2.83178
2.82401
2.82261
2.82251
2.81458
2.82344
2.79146
2.79068
2.79852
2.80447
2.80202
2.79699
2.79665
2.79696
2.77417
2.77709
2.77697
2.77606
2.76487
2.76685
2.76312
2.76526
2.76653
2.77549
2.77281
2.76843
2.76354
2.77051
2.77158
2.76252
2.77376
2.77855
2.76938
2.76964
2.77284
2.76829
2.76347
2.76481
2.76239
2.76455
2.76875
2.76382
2.7646
2.76557
2.7624
2.76471
2.76677
2.76917
2.77124
2.76844
2.76586
2.76465
2.76102
2.76343
2.7645
2.76546
2.76602
2.76888
2.77544
2.77893
2.77489
2.77377
2.77414
2.77681
2.76428
2.76309
2.75654
2.75317
2.76129
2.7642
2.75859
2.75691
2.76194
2.75806
2.75756
2.77054
2.77546
2.77286
2.76742
2.77142
2.77349
2.7746
2.77326
2.77306
2.85994
2.87187
2.87212
2.86714
2.8593
2.8626
2.85704
2.87214
2.87119
2.85972
2.86099
2.86786
2.86866
2.83873
2.82929
2.83115
2.83313
2.83219
2.8403
2.84341
2.8493
2.85079
2.84191
2.86163
2.86118
2.86243
2.86293
2.86115
2.85656
2.85617
2.8571
2.85493
2.85764
2.84041
2.84113
2.83026
2.84033
2.83734
2.84325
2.83747
2.84315
2.84518
2.82952
2.83371
2.8507
2.85946
2.85392
2.85589
2.85844
2.85173
2.78721
2.78518
2.78263
2.77917
2.78218
2.78691
2.78736
2.78104
2.78482
2.78724
2.78325
2.78277
2.7804
2.77477
2.78414
2.7779
2.78033
2.77821
2.77844
2.785
2.77892
2.78359
2.78113
2.78742
2.78405
2.77763
2.77564
2.77646
2.7739
2.77321
2.77571
2.7836
2.7848
2.76738
2.77377
2.77203
2.76835
2.7684
2.76199
2.76159
2.76443
2.76889
2.7721
2.76641
2.77049
2.76776
2.77336
2.86306
2.8585
2.84869
2.79657
2.79986
2.79879
2.80296
2.80575
2.81075
2.81316
2.81377
2.80388
2.79447
2.80989
2.80538
2.80242
2.80835
2.80409
2.79968
2.80399
2.79347
2.80116
2.79538
2.78924
2.78195
2.79267
2.79275
2.87668
2.87403
2.87085
2.86759
2.8812
2.87669
2.81819
2.82606
2.82246
2.81579
2.82454
2.86106
2.87399
2.86244
2.86108
2.86486
2.86662
2.86299
2.87049
2.86151
2.87953
2.8735
2.87673
2.87288
2.87457
2.79291
2.78811
2.79504
2.78961
2.78837
2.79455
2.79402
2.79286
2.80159
2.79214
2.79462
2.80603
2.80568
2.80277
2.79918
2.79537
2.80315
2.80182
2.7995
2.8029
2.80232
2.88318
2.88287
2.876
2.87372
2.8711
2.87518
2.8901
2.88855
2.89225
2.8956
2.88865
2.88607
2.88169
2.87759
2.87118
2.87606
2.8759
2.88137
2.88268
2.88062
2.85828
2.86743
2.86517
2.86417
2.8309
2.82744
2.82194
2.81718
2.82312
2.82101
2.82022
2.81556
2.82504
2.82162
2.81863
2.8174
2.8168
2.82506
2.81843
2.8207
2.82502
2.84125
2.82756
2.82762
2.83287
2.83309
2.84
2.83118
2.83664
2.84427
2.83663
2.80658
2.80759
2.80829
2.8027
2.81173
2.81047
2.80938
2.79822
2.79981
2.80241
2.80092
2.80804
2.80556
2.81798
2.81407
2.81485
2.80346
2.81395
2.82119
2.82508
2.8124
2.80599
2.80685
2.80402
2.8096
2.80518
2.81004
2.80712
2.79859
2.79927
2.80248
2.80084
2.79712
2.82614
2.83946
2.83308
2.83198
2.8379
2.83284
2.8329
2.84457
2.84804
2.8412
2.80445
2.80849
2.80711
2.81082
2.80709
2.80756
2.80712
2.81234
2.84911
2.84167
2.84666
2.84851
2.83842
2.84547
2.84139
2.85078
2.84284
2.84991
2.85168
2.91374
2.90736
2.91126
2.89684
2.90554
2.86718
2.8692
2.85528
2.85308
2.87122
2.87262
2.87041
2.85997
2.86624
2.88166
2.85069
2.85014
2.85755
2.85237
2.81571
2.82201
2.81938
2.81761
2.82639
2.82298
2.82136
2.82272
2.82451
2.82008
2.81941
2.81532
2.81342
2.81094
2.8142
2.82091
2.81758
2.81909
2.81781
2.8117
2.81879
2.79142
2.79558
2.79036
2.80127
2.79901
2.79157
2.79315
2.79961
2.79365
2.79471
2.79731
2.8011
2.80182
2.7968
2.80109
2.8011
2.79763
2.80758
2.81254
2.80963
2.80957
2.82118
2.81598
2.81441
2.82077
2.82019
2.81957
2.81964
2.81527
2.81608
2.81321
2.81466
2.81993
2.81792
2.82726
2.82783
2.82198
2.81973
2.82232
2.81638
2.83057
2.83721
2.83582
2.8319
2.83163
2.85722
2.85074
2.84459
2.83926
2.84752
2.84144
2.85859
2.86226
2.85448
2.84912
2.85418
2.85527
2.85556
2.82364
2.82333
2.82174
2.82698
2.82327
2.81719
2.82434
2.82351
2.84244
2.85038
2.85336
2.82494
2.82571
2.82584
2.83228
2.8328
2.82965
2.84152
2.84195
2.84118
2.83777
2.83478
2.83327
2.84359
2.84385
2.92987
2.93496
2.92779
2.9307
2.93295
2.94075
2.94043
2.94322
2.94416
2.93409
2.92461
2.95185
2.94416
2.93557
2.93464
2.90493
2.90619
2.89678
2.88926
2.91797
2.90734
2.91213
2.91474
2.91385
2.81344
2.81573
2.81615
2.81725
2.81584
2.8185
2.81943
2.82032
2.83744
2.81641
2.83072
2.82387
2.8247
2.83016
2.83005
2.83532
2.81919
2.81799
2.82312
2.82455
2.83291
2.82984
2.8671
2.88301
2.88103
2.87376
2.87766
2.8724
2.88247
2.8776
2.88002
2.87419
2.92778
2.91528
2.90605
2.91283
2.92902
2.91283
2.93239
2.92883
2.93349
2.9276
2.92802
2.84608
2.85454
2.84527
2.86152
2.8657
2.86258
2.85406
2.86235
2.86865
2.86949
2.87108
2.85015
2.8487
2.8423
2.84233
2.85091
2.84857
2.84274
2.83737
2.84059
2.83738
2.83652
2.83871
2.93597
2.9414
2.94678
2.94843
2.94883
2.945
2.95135
2.95048
2.91392
2.94868
2.94558
2.94623
2.93834
2.90892
2.901
2.91977
2.91565
2.92286
2.9119
2.93188
2.92752
2.91756
2.91749
2.91532
2.92214
2.93193
2.82832
2.82919
2.82309
2.82894
2.94853
2.9401
2.93986
2.93831
2.95241
2.91606
2.90939
2.9249
2.91841
2.91052
2.90788
2.83496
2.82801
2.83131
2.8417
2.83454
2.8292
2.82732
2.84324
2.83912
2.84219
2.83791
2.81006
2.81365
2.81482
2.81368
2.80512
2.79956
2.81086
2.86301
2.86595
2.86852
2.86965
2.87492
2.86746
2.87275
2.87195
2.87368
2.87471
2.86778
2.87075
2.87125
2.87071
2.87018
2.87263
2.882
2.87819
2.88455
2.87826
2.87788
2.87438
2.80282
2.79391
2.80573
2.7988
2.79719
2.79922
2.7997
2.80552
2.8022
2.79797
2.80291
2.80151
2.79309
2.79673
2.79482
2.79311
2.79182
2.77936
2.78754
2.77789
2.78156
2.78631
2.78564
2.78454
2.77736
2.77894
2.7613
2.7658
2.77165
2.76741
2.7718
2.76323
2.7644
2.76656
2.76865
2.7713
2.77136
2.76945
2.76965
2.77063
2.76884
2.77229
2.77214
2.76785
2.76484
2.77336
2.77177
2.76408
2.76147
2.76445
2.76577
2.76761
2.80013
2.80578
2.81309
2.81491
2.79978
2.80374
2.81159
2.8079
2.78753
2.8052
2.80102
2.84687
2.84038
2.84486
2.84141
2.83548
2.85121
2.84569
2.84456
2.84459
2.84107
2.83416
2.75745
2.76219
2.7571
2.75337
2.7636
2.764
2.76853
2.75876
2.75538
2.75122
2.76299
2.76106
2.75233
2.75482
2.79011
2.78458
2.78469
2.7836
2.78822
2.78588
2.79229
2.7928
2.78224
2.77805
2.90591
2.9012
2.90077
2.90569
2.88881
2.90723
2.90353
2.89381
2.89322
2.88626
2.88565
2.8922
2.89874
2.75449
2.76058
2.7594
2.75813
2.75635
2.75685
2.75676
2.75629
2.75758
2.75432
2.75971
2.76037
2.75514
2.75542
2.83702
2.83448
2.83904
2.83805
2.82753
2.83722
2.8368
2.8366
2.85937
2.86545
2.89776
2.89219
2.8952
2.90319
2.88829
2.89759
2.9034
2.89586
2.87761
2.88305
2.89714
2.88993
2.87451
2.88332
2.89386
2.89015
2.88994
2.88022
2.88225
2.87844
2.89862
2.89916
2.89671
2.89714
2.89681
2.90698
2.91239
2.91464
2.82808
2.83303
2.82939
2.82241
2.82273
2.81734
2.82676
2.82587
2.82734
2.82916
2.82573
2.82511
2.82566
2.82552
2.88836
2.89848
2.88722
2.9038
2.9073
2.897
2.88916
2.83002
2.82687
2.82952
2.82883
2.83349
2.83226
2.82258
2.82724
2.8259
2.82862
2.8834
2.88547
2.88549
2.87496
2.85817
2.8724
2.88395
2.87453
2.88826
2.8848
2.86164
2.87847
2.87663
2.91078
2.91318
2.92662
2.92439
2.91707
2.9223
2.88105
2.87368
2.89339
2.87874
2.8761
2.88545
2.88648
2.90192
2.90024
2.89042
2.89403
2.90204
2.83493
2.84135
2.83123
2.91252
2.91163
2.90016
2.90258
2.9083
2.91003
2.90696
2.91211
2.91153
2.81452
2.81456
2.81019
2.81847
2.82398
2.82551
2.81869
2.8202
2.81932
2.81328
2.81549
2.8126
2.80946
2.81717
2.81684
2.80743
2.80943
2.88913
2.88425
2.90005
2.90211
2.90284
2.896
2.89696
2.88801
2.80652
2.81066
2.8135
2.81616
2.81078
2.81351
2.81831
2.81405
2.80669
2.80733
2.8086
2.80488
2.90836
2.90698
2.89991
2.90424
2.90251
2.8964
2.89552
2.91007
2.90293
2.88741
2.90015
2.8955
2.90005
2.904
2.89756
2.88565
2.88354
2.89178
2.89186
2.80173
2.80033
2.79813
2.80661
2.8016
2.80308
2.80695
2.8073
2.81184
2.87464
2.8832
2.87409
2.87777
2.80337
2.80109
2.80361
2.80356
2.81016
2.81058
2.81028
2.81
2.79077
2.78821
2.79174
2.78354
2.79341
2.79481
2.78826
2.79065
2.79108
2.77879
2.7804
2.78703
2.78369
2.78888
2.78472
2.78634
2.78097
2.78275
2.78882
2.78703
2.78671
2.78784
2.78502
2.78821
2.81171
2.82062
2.81626
2.83167
2.83415
2.82318
2.82584
2.8228
2.81591
2.82218
2.81997
2.85254
2.80744
2.80537
2.80753
2.81377
2.81337
2.81524
2.81376
2.81885
2.81853
2.79094
2.79544
2.79888
2.79635
2.79636
2.78346
2.77442
2.77274
2.77395
2.78408
2.78477
2.77667
2.77517
2.78152
2.77996
2.78348
2.78144
2.87426
2.85747
2.86138
2.86524
2.86454
2.87362
2.86213
2.87036
2.87443
2.85757
2.84563
2.85733
2.8548
2.85585
2.86114
2.86872
2.85357
2.85011
2.85714
2.85567
2.79239
2.79911
2.7985
2.80657
2.80688
2.79986
2.80442
2.8096
2.80565
2.81962
2.83659
2.83048
2.82646
2.82743
2.83098
2.8261
2.83364
2.83738
2.82112
2.78971
2.78879
2.7862
2.77758
2.77483
2.77793
2.77573
2.7834
2.78411
2.77647
2.78056
2.77874
2.78171
2.77981
2.77346
2.77403
2.77937
2.77861
2.78134
2.78256
2.78299
2.78423
2.77679
2.77433
2.77627
2.77525
2.83894
2.84517
2.83395
2.79091
2.78823