/*--------------------------------*- C++ -*----------------------------------*\
| =========                 |                                                 |
| \\      /  F ield         | OpenFOAM: The Open Source CFD Toolbox           |
|  \\    /   O peration     | Version:  v1612+                                |
|   \\  /    A nd           | Web:      www.OpenFOAM.com                      |
|    \\/     M anipulation  |                                                 |
\*---------------------------------------------------------------------------*/
FoamFile
{
    version     2.0;
    format      ascii;
    class       volScalarField;
    location    "100";
    object      p;
}
// * * * * * * * * * * * * * * * * * * * * * * * * * * * * * * * * * * * * * //

dimensions      [0 2 -2 0 0 0 0];

internalField   nonuniform List<scalar> 
16797
(
2.82904
2.75344
2.77589
2.77239
2.77377
2.77347
2.78906
2.7812
2.77687
2.77588
2.77673
2.79042
2.78291
2.79443
2.78563
2.78424
2.78864
2.79701
2.79541
2.78804
2.79041
2.79904
2.79138
2.80653
2.80093
2.80142
2.78112
2.78358
2.80514
2.79853
2.79149
2.80067
2.78652
2.78969
2.78834
2.79557
2.79753
2.78533
2.79815
2.7988
2.78951
2.79508
2.80508
2.78577
2.79082
2.79646
2.72917
2.73326
2.73409
2.73754
2.7342
2.73824
2.73434
2.73848
2.73183
2.73739
2.7317
2.75305
2.75453
2.75377
2.75227
2.74881
2.75264
2.75456
2.75519
2.75636
2.75491
2.75339
2.75756
2.76247
2.75576
2.75821
2.75635
2.75519
2.75623
2.75629
2.75627
2.81643
2.82624
2.81418
2.82802
2.82144
2.79334
2.8009
2.82042
2.81524
2.81962
2.8302
2.81085
2.79586
2.79875
2.81235
2.81743
2.80417
2.82
2.81157
2.7291
2.72728
2.72645
2.73004
2.73011
2.72768
2.72605
2.73042
2.72927
2.84134
2.839
2.85427
2.85925
2.8508
2.8423
2.85309
2.84879
2.85174
2.86033
2.84897
2.85974
2.85562
2.84509
2.83954
2.85633
2.75718
2.76881
2.75186
2.76288
2.76456
2.7535
2.75108
2.75961
2.76109
2.76061
2.76641
2.76778
2.76064
2.81468
2.81488
2.8214
2.81785
2.81596
2.81387
2.80686
2.81089
2.81386
2.81198
2.81505
2.81373
2.81395
2.81776
2.81043
2.81151
2.82049
2.81396
2.8102
2.81525
2.81167
2.81052
2.78958
2.78495
2.77686
2.78045
2.77859
2.7821
2.78303
2.77767
2.78978
2.78832
2.78501
2.78263
2.79173
2.78638
2.79008
2.81837
2.81527
2.81239
2.81496
2.80987
2.81061
2.81015
2.81297
2.81267
2.81827
2.82165
2.81428
2.81345
2.81484
2.81894
2.76845
2.7791
2.77155
2.77964
2.77124
2.77794
2.78323
2.77976
2.77841
2.78251
2.77692
2.77669
2.77592
2.7732
2.77197
2.77869
2.77036
2.75485
2.77111
2.83203
2.82556
2.82494
2.83547
2.82959
2.83186
2.81804
2.81728
2.82187
2.81097
2.81501
2.82976
2.82838
2.80361
2.81795
2.80215
2.80043
2.81253
2.81801
2.74498
2.74543
2.74136
2.74293
2.74191
2.74078
2.74564
2.74372
2.7464
2.74783
2.74676
2.74605
2.73951
2.74241
2.74093
2.74703
2.74355
2.74601
2.76217
2.75947
2.76473
2.76335
2.76016
2.75968
2.75709
2.75343
2.75201
2.7533
2.75484
2.75515
2.75205
2.76093
2.75915
2.75728
2.73547
2.74797
2.73338
2.7335
2.7391
2.74291
2.74677
2.73861
2.74539
2.74415
2.74625
2.74145
2.74951
2.74079
2.73595
2.80562
2.80896
2.80726
2.80394
2.80541
2.80564
2.80365
2.81226
2.81187
2.80385
2.80205
2.80563
2.80524
2.79886
2.81189
2.81101
2.81525
2.82077
2.82146
2.81937
2.8137
2.81608
2.82271
2.81907
2.82372
2.81033
2.81246
2.81695
2.82112
2.82306
2.82736
2.81077
2.81307
2.81288
2.79054
2.78641
2.79581
2.79907
2.78153
2.78877
2.80169
2.79801
2.79173
2.79869
2.79189
2.7906
2.79942
2.7945
2.78305
2.78088
2.79085
2.78075
2.79767
2.78706
2.78636
2.7981
2.79434
2.79578
2.80018
2.80284
2.79131
2.79259
2.78436
2.79387
2.79653
2.80233
2.8
2.79865
2.79247
2.79115
2.73375
2.7352
2.73616
2.73692
2.73279
2.73789
2.73905
2.73721
2.73837
2.73604
2.73598
2.72489
2.72424
2.72707
2.78036
2.77349
2.77272
2.7657
2.77716
2.77592
2.78341
2.76026
2.76208
2.77118
2.78394
2.76593
2.76293
2.76723
2.77498
2.76916
2.75645
2.75646
2.75253
2.75426
2.75853
2.75444
2.75489
2.75997
2.75313
2.75299
2.75301
2.753
2.75746
2.76214
2.76348
2.7624
2.7561
2.75558
2.76694
2.76535
2.76549
2.76671
2.75693
2.75812
2.76315
2.77286
2.75822
2.756
2.75851
2.75645
2.75624
2.75443
2.75558
2.75932
2.75742
2.75562
2.75375
2.75535
2.75507
2.75395
2.77664
2.77917
2.78184
2.78327
2.78258
2.7848
2.78528
2.78985
2.79048
2.78673
2.78573
2.79143
2.83861
2.8394
2.84418
2.84785
2.84654
2.86156
2.84632
2.86098
2.84022
2.85939
2.86401
2.86428
2.85046
2.86155
2.81387
2.81111
2.80573
2.80821
2.79889
2.79588
2.79043
2.79989
2.80378
2.80197
2.78922
2.7967
2.80637
2.80204
2.79501
2.80547
2.79721
2.79414
2.82216
2.82178
2.82778
2.8173
2.8025
2.80834
2.81548
2.82406
2.82263
2.81957
2.82078
2.79768
2.7939
2.80865
2.81241
2.81502
2.79442
2.79534
2.79911
2.79863
2.79404
2.79683
2.79258
2.79726
2.80152
2.80119
2.78879
2.79525
2.79549
2.79479
2.80004
2.80091
2.80259
2.80355
2.75801
2.76834
2.76716
2.76586
2.75751
2.75497
2.7619
2.82474
2.8286
2.82986
2.8323
2.83526
2.8361
2.82022
2.82233
2.8331
2.84259
2.83238
2.83143
2.83743
2.83867
2.82158
2.83853
2.82625
2.83183
2.83894
2.84012
2.82813
2.78508
2.77736
2.78287
2.76555
2.76792
2.76476
2.76616
2.77963
2.76922
2.77555
2.77811
2.75583
2.76536
2.76169
2.78156
2.77176
2.77033
2.76535
2.76715
2.7799
2.77934
2.77515
2.77663
2.779
2.77501
2.77653
2.77206
2.77475
2.77897
2.77842
2.78998
2.81326
2.79949
2.80461
2.81182
2.79854
2.79994
2.7929
2.78873
2.80029
2.74998
2.74723
2.75115
2.75306
2.74823
2.74784
2.75065
2.75806
2.75448
2.76224
2.7593
2.75036
2.75277
2.75321
2.7514
2.75523
2.76296
2.75957
2.81064
2.80124
2.80084
2.79652
2.8014
2.79955
2.80708
2.80448
2.80266
2.80811
2.80371
2.80696
2.80503
2.79872
2.80968
2.80822
2.80943
2.80416
2.80498
2.74809
2.7436
2.74827
2.74911
2.74067
2.74575
2.74413
2.75353
2.75164
2.752
2.74602
2.74739
2.75135
2.74901
2.7524
2.81856
2.80507
2.82566
2.82743
2.81726
2.82234
2.8275
2.81204
2.83038
2.81454
2.82496
2.81828
2.82569
2.8261
2.81095
2.82208
2.81269
2.82899
2.8098
2.81779
2.81354
2.80867
2.81738
2.82582
2.81997
2.82376
2.82443
2.81704
2.8101
2.81504
2.82474
2.81931
2.82513
2.81803
2.82035
2.82186
2.79436
2.80531
2.80635
2.81393
2.80099
2.79571
2.80876
2.80522
2.80346
2.8052
2.79878
2.80801
2.80623
2.81676
2.81478
2.81691
2.79694
2.80361
2.80624
2.78861
2.78859
2.80381
2.80246
2.78726
2.79043
2.79685
2.80484
2.77697
2.78875
2.79887
2.8105
2.81714
2.80402
2.81304
2.81045
2.81012
2.79963
2.79142
2.81344
2.80836
2.79689
2.79437
2.80306
2.80604
2.81039
2.84509
2.84685
2.85352
2.85544
2.86467
2.8425
2.84926
2.83302
2.84446
2.84064
2.84871
2.85499
2.85676
2.84499
2.84657
2.83223
2.83044
2.84747
2.83655
2.83907
2.77717
2.77175
2.77689
2.77992
2.78597
2.77707
2.78174
2.7815
2.7727
2.77653
2.77421
2.77225
2.76625
2.76646
2.76766
2.76916
2.81795
2.81613
2.81642
2.81009
2.80727
2.8142
2.80484
2.815
2.81622
2.81307
2.80452
2.80935
2.80214
2.8087
2.80814
2.77217
2.77132
2.78295
2.78106
2.77847
2.77978
2.78007
2.78011
2.77742
2.77524
2.78017
2.77774
2.82066
2.82222
2.83117
2.83088
2.82538
2.81846
2.82425
2.82168
2.80765
2.80422
2.81309
2.81671
2.80691
2.8136
2.81033
2.80863
2.81521
2.80809
2.81019
2.81302
2.81261
2.81214
2.81285
2.82403
2.80509
2.80819
2.80715
2.81088
2.81248
2.80725
2.81045
2.80292
2.81708
2.80836
2.82997
2.83416
2.84645
2.84054
2.83896
2.84459
2.82867
2.84407
2.84687
2.84924
2.86045
2.85363
2.84079
2.83546
2.84816
2.84318
2.82859
2.84705
2.83735
2.77809
2.78887
2.77925
2.77047
2.7924
2.78615
2.7762
2.78184
2.77485
2.77909
2.7621
2.77276
2.78227
2.77927
2.77692
2.77785
2.79535
2.79766
2.80346
2.8032
2.80646
2.79726
2.79778
2.79959
2.79602
2.79885
2.78853
2.79317
2.78662
2.79287
2.7868
2.78791
2.7907
2.79352
2.82103
2.83084
2.81693
2.81582
2.81628
2.82322
2.82291
2.82806
2.82596
2.82014
2.82215
2.8203
2.83082
2.8316
2.82702
2.82846
2.8252
2.78832
2.79962
2.7976
2.7862
2.79576
2.80302
2.79607
2.79034
2.80421
2.79151
2.80821
2.80069
2.80188
2.79876
2.79383
2.8036
2.79897
2.80522
2.81329
2.80626
2.814
2.81695
2.81922
2.81735
2.8121
2.82585
2.80706
2.8138
2.82324
2.81018
2.82211
2.81546
2.81381
2.83432
2.80185
2.8148
2.80528
2.82832
2.80987
2.80515
2.74218
2.74536
2.73623
2.74943
2.75386
2.75799
2.75263
2.74167
2.74101
2.7471
2.74646
2.74268
2.74408
2.7525
2.75754
2.74443
2.73803
2.75125
2.74748
2.74475
2.74608
2.74323
2.74363
2.74179
2.76593
2.7621
2.76493
2.76388
2.7618
2.76189
2.76221
2.76567
2.7629
2.73466
2.73374
2.73628
2.73531
2.73619
2.73871
2.73788
2.73699
2.74521
2.74703
2.73725
2.74243
2.74493
2.74265
2.7435
2.81601
2.82081
2.81757
2.81209
2.81972
2.81844
2.81492
2.81667
2.82533
2.82075
2.8237
2.82203
2.82321
2.81339
2.81985
2.81399
2.83134
2.81983
2.82706
2.83157
2.82735
2.82677
2.76275
2.76578
2.77562
2.78421
2.78945
2.7823
2.74763
2.74336
2.74187
2.73131
2.73103
2.73285
2.79247
2.79356
2.77172
2.78045
2.777
2.78404
2.73651
2.73285
2.73399
2.74203
2.74169
2.74476
2.74575
2.76132
2.76571
2.74588
2.74837
2.74652
2.81801
2.81907
2.81214
2.74298
2.74326
2.75986
2.75794
2.80556
2.80509
2.75122
2.74739
2.74592
2.79734
2.8044
2.80305
2.74776
2.74838
2.75934
2.75707
2.7599
2.7517
2.75062
2.75234
2.76286
2.75916
2.80615
2.80756
2.76557
2.75848
2.76253
2.76378
2.75657
2.76312
2.75841
2.77228
2.76818
2.76343
2.76242
2.76254
2.775
2.77429
2.77248
2.77267
2.77929
2.7823
2.84625
2.84532
2.83917
2.84583
2.76893
2.77231
2.77392
2.81579
2.82089
2.78467
2.77995
2.77758
2.78514
2.85833
2.86465
2.86393
2.78745
2.7848
2.78063
2.78071
2.8521
2.85127
2.78093
2.78295
2.78771
2.78946
2.80181
2.8167
2.81158
2.82382
2.81692
2.81572
2.80017
2.79588
2.79206
2.87486
2.88073
2.87769
2.80115
2.79688
2.7989
2.79033
2.79475
2.79021
2.83314
2.82867
2.81457
2.81594
2.80333
2.80885
2.79846
2.80886
2.8068
2.79871
2.80385
2.7991
2.80082
2.80471
2.82306
2.82349
2.81479
2.80285
2.80156
2.80041
2.87159
2.86884
2.87447
2.86346
2.87044
2.82023
2.82078
2.81319
2.81763
2.81557
2.81749
2.84392
2.84429
2.83351
2.90312
2.90835
2.90898
2.82926
2.83423
2.85237
2.85169
2.86719
2.85816
2.86863
2.89676
2.89312
2.88249
2.88181
2.87412
2.81906
2.82238
2.81829
2.82452
2.83069
2.82322
2.82582
2.82825
2.82955
2.82694
2.82104
2.82537
2.842
2.84078
2.83409
2.89482
2.89962
2.90966
2.89959
2.9107
2.90153
2.89297
2.89654
2.88984
2.90638
2.90008
2.89242
2.89169
2.90331
2.89578
2.81236
2.81871
2.81693
2.8144
2.81589
2.81762
2.81427
2.81281
2.81146
2.80253
2.81229
2.80889
2.87738
2.86983
2.86037
2.88529
2.88304
2.83989
2.8372
2.83201
2.83839
2.83494
2.82645
2.83087
2.80609
2.81445
2.81359
2.81384
2.81496
2.81001
2.8147
2.81282
2.81503
2.81052
2.81357
2.81393
2.81324
2.81181
2.81299
2.81713
2.7992
2.80726
2.80415
2.80652
2.81741
2.81051
2.81607
2.8075
2.83732
2.83034
2.84905
2.83465
2.81696
2.81268
2.80687
2.80572
2.81547
2.81642
2.81371
2.81821
2.8317
2.83334
2.84161
2.83074
2.83685
2.82164
2.84171
2.84787
2.8458
2.87578
2.87721
2.87426
2.85476
2.85609
2.8433
2.83534
2.85895
2.86273
2.86491
2.84584
2.84602
2.86941
2.87282
2.86209
2.85696
2.87164
2.86415
2.86377
2.86019
2.85009
2.85622
2.85332
2.84873
2.85264
2.84742
2.85827
2.86187
2.85591
2.85877
2.86955
2.87992
2.86827
2.86624
2.86548
2.85707
2.85934
2.86104
2.86043
2.87649
2.86768
2.86736
2.87172
2.87246
2.88792
2.87299
2.8756
2.87959
2.79885
2.79562
2.80952
2.80856
2.81419
2.81546
2.80851
2.81787
2.80622
2.8075
2.81737
2.8092
2.80715
2.8163
2.82257
2.8277
2.81364
2.80761
2.81891
2.81845
2.81687
2.81526
2.82971
2.82452
2.82872
2.81846
2.81613
2.80484
2.82264
2.81625
2.79942
2.79835
2.80066
2.8021
2.80506
2.79817
2.79931
2.81188
2.81557
2.80746
2.8064
2.80948
2.80615
2.80356
2.81131
2.80838
2.80112
2.80317
2.80526
2.80842
2.80898
2.80085
2.79974
2.7985
2.80275
2.79308
2.80519
2.8048
2.80232
2.79858
2.80381
2.80014
2.80955
2.8096
2.80584
2.80297
2.81258
2.80646
2.80705
2.80081
2.80046
2.78767
2.79239
2.79949
2.79718
2.79561
2.79899
2.81172
2.81164
2.80663
2.80917
2.80785
2.81228
2.81011
2.80899
2.81121
2.81255
2.79802
2.80098
2.80186
2.80025
2.8043
2.80754
2.80806
2.80431
2.80797
2.80502
2.80481
2.80538
2.80741
2.78671
2.79647
2.79239
2.78756
2.78521
2.79746
2.80456
2.79158
2.8006
2.79029
2.79531
2.81401
2.8084
2.79658
2.79022
2.80799
2.80548
2.82616
2.8298
2.82925
2.81762
2.81959
2.81498
2.81613
2.82601
2.81735
2.82051
2.82051
2.83557
2.83238
2.8289
2.83989
2.83624
2.83797
2.8471
2.83613
2.8241
2.82802
2.8503
2.83988
2.82972
2.8353
2.84077
2.83405
2.7779
2.78209
2.78187
2.78834
2.78661
2.78578
2.78849
2.78902
2.78782
2.79049
2.79161
2.79101
2.79344
2.80424
2.80161
2.80786
2.80827
2.80891
2.79965
2.79792
2.80293
2.80361
2.80184
2.80161
2.79839
2.79691
2.79957
2.7928
2.79317
2.85615
2.86616
2.86334
2.8724
2.87292
2.86583
2.86076
2.86135
2.87366
2.87453
2.86641
2.86798
2.85998
2.87584
2.86728
2.88643
2.88545
2.88713
2.87584
2.88133
2.87083
2.88567
2.87817
2.88667
2.88376
2.79639
2.80953
2.80175
2.79532
2.79285
2.80001
2.78813
2.79197
2.78851
2.79263
2.7912
2.79083
2.79748
2.79462
2.79466
2.79748
2.80306
2.81344
2.8014
2.80046
2.80371
2.80064
2.81022
2.80445
2.80072
2.79672
2.80189
2.80115
2.81421
2.81392
2.80786
2.80879
2.80109
2.82909
2.84298
2.84195
2.83145
2.83734
2.84707
2.83407
2.83824
2.83168
2.83355
2.84085
2.84731
2.82717
2.84578
2.84063
2.83196
2.83138
2.83025
2.83442
2.82499
2.84043
2.82941
2.82653
2.79377
2.79894
2.80293
2.79252
2.78122
2.78456
2.77738
2.78339
2.7842
2.78178
2.78549
2.78208
2.78305
2.78675
2.78445
2.78604
2.78912
2.78529
2.78472
2.78655
2.78863
2.79367
2.79471
2.78444
2.78615
2.79035
2.79145
2.79223
2.79307
2.79304
2.79269
2.79614
2.79483
2.78968
2.77371
2.78019
2.77557
2.77597
2.77415
2.76771
2.78033
2.76853
2.77581
2.78619
2.78768
2.78978
2.79606
2.78383
2.78083
2.77732
2.78069
2.77656
2.78252
2.77888
2.78269
2.77381
2.77256
2.7723
2.78526
2.78748
2.77753
2.77907
2.77938
2.78733
2.7955
2.79336
2.79705
2.77401
2.78462
2.7848
2.78406
2.78223
2.78808
2.77844
2.78161
2.78974
2.78491
2.77734
2.77916
2.79198
2.79033
2.78481
2.78501
2.86112
2.85811
2.87023
2.86931
2.86018
2.85988
2.85402
2.85354
2.85431
2.84062
2.85314
2.86056
2.85161
2.86201
2.85787
2.77304
2.77427
2.78073
2.7832
2.77393
2.7775
2.77903
2.78378
2.78071
2.78519
2.78801
2.78394
2.79169
2.79223
2.7946
2.78445
2.78858
2.78371
2.78763
2.78686
2.78664
2.79071
2.79032
2.853
2.8533
2.85461
2.84993
2.86045
2.85058
2.85869
2.85579
2.85235
2.85014
2.77711
2.77518
2.7767
2.77795
2.77704
2.7823
2.78738
2.79174
2.79099
2.79233
2.81461
2.81966
2.80718
2.77828
2.77407
2.78241
2.7752
2.78086
2.76753
2.77251
2.77697
2.78308
2.79995
2.7969
2.79861
2.79771
2.81077
2.83351
2.83008
2.81952
2.82648
2.81881
2.83906
2.83348
2.82434
2.82636
2.83508
2.82634
2.80972
2.80172
2.79757
2.80144
2.79637
2.80939
2.81186
2.81736
2.7992
2.80274
2.80533
2.8193
2.81366
2.82243
2.82275
2.80471
2.79954
2.81515
2.77475
2.77699
2.76406
2.76663
2.7673
2.77624
2.7793
2.78012
2.77934
2.77727
2.77529
2.775
2.77713
2.77565
2.77186
2.77346
2.76563
2.7726
2.77224
2.77534
2.7727
2.82838
2.83943
2.82977
2.83384
2.83806
2.82549
2.83676
2.84353
2.84161
2.84324
2.84528
2.85568
2.85033
2.84259
2.84109
2.86333
2.85242
2.84677
2.83735
2.84334
2.836
2.76449
2.76351
2.77459
2.77699
2.77352
2.7743
2.7722
2.77002
2.76703
2.77712
2.77219
2.76944
2.77186
2.77195
2.77262
2.77663
2.78464
2.77875
2.77772
2.79443
2.79162
2.7961
2.76348
2.76914
2.77061
2.76923
2.76988
2.75797
2.75367
2.75985
2.75943
2.75669
2.75792
2.75872
2.76029
2.76136
2.76693
2.76166
2.7562
2.75743
2.75654
2.75935
2.76248
2.76672
2.77276
2.76857
2.76557
2.76264
2.7626
2.76428
2.76764
2.76738
2.76647
2.76603
2.76215
2.77249
2.77283
2.76233
2.76572
2.76088
2.76545
2.76358
2.77036
2.76513
2.7587
2.75973
2.76622
2.76201
2.76204
2.77046
2.77169
2.76591
2.76669
2.76647
2.76555
2.76674
2.76508
2.75873
2.75759
2.76843
2.76447
2.76004
2.76023
2.75875
2.75137
2.76032
2.75314
2.75735
2.75827
2.7541
2.75774
2.75595
2.7549
2.75697
2.76397
2.75863
2.75955
2.76089
2.76042
2.76385
2.75905
2.75845
2.76087
2.7623
2.76086
2.77088
2.76528
2.76408
2.76711
2.76815
2.76509
2.78997
2.79048
2.77927
2.81165
2.8141
2.81284
2.8044
2.81142
2.81957
2.80925
2.79924
2.81323
2.81544
2.80501
2.80522
2.82536
2.74831
2.7477
2.75407
2.75752
2.75625
2.75354
2.74847
2.75064
2.75987
2.75766
2.75362
2.75603
2.75553
2.7569
2.76602
2.75411
2.75318
2.76592
2.76385
2.7706
2.74979
2.75003
2.74848
2.74924
2.74989
2.75708
2.75248
2.75351
2.75162
2.75225
2.75048
2.75066
2.754
2.75651
2.75216
2.75475
2.76177
2.76105
2.76032
2.75802
2.75833
2.75979
2.75673
2.75729
2.75985
2.74177
2.73984
2.74138
2.74752
2.74377
2.74034
2.73876
2.74771
2.74431
2.74701
2.78293
2.77788
2.78641
2.80075
2.81114
2.80881
2.78584
2.78931
2.78855
2.78144
2.78905
2.79713
2.78918
2.78822
2.81375
2.79967
2.79297
2.78869
2.79325
2.80241
2.79483
2.74283
2.74335
2.74241
2.74333
2.74662
2.75436
2.75364
2.75531
2.74642
2.74813
2.75415
2.73746
2.74671
2.74488
2.74621
2.74852
2.74429
2.74453
2.79684
2.80932
2.82192
2.81712
2.81815
2.81498
2.78861
2.7864
2.79913
2.7904
2.80244
2.80394
2.79553
2.79638
2.80373
2.74536
2.74615
2.75773
2.75048
2.75876
2.75711
2.75564
2.75309
2.75587
2.74664
2.75358
2.75794
2.75343
2.76237
2.76837
2.74483
2.75154
2.74846
2.75996
2.75693
2.75777
2.77025
2.76512
2.76121
2.76435
2.76144
2.73315
2.74364
2.73781
2.74724
2.73991
2.74097
2.7402
2.73863
2.7384
2.73894
2.75048
2.7519
2.74824
2.744
2.73748
2.73868
2.74288
2.74227
2.74527
2.74349
2.73838
2.74047
2.739
2.73979
2.73845
2.74133
2.74901
2.74296
2.74999
2.7456
2.74166
2.74304
2.74241
2.74425
2.74504
2.74478
2.74537
2.78725
2.80265
2.79899
2.80841
2.80222
2.80518
2.81041
2.81009
2.8083
2.79725
2.81743
2.8057
2.81652
2.81115
2.80256
2.81788
2.80815
2.81989
2.83023
2.81603
2.81738
2.73998
2.74237
2.74375
2.73923
2.73981
2.73777
2.74209
2.74351
2.75207
2.74862
2.75307
2.7529
2.7501
2.75128
2.75104
2.75273
2.74387
2.74159
2.74337
2.74586
2.74302
2.74532
2.74004
2.74601
2.74559
2.74237
2.75147
2.74976
2.76418
2.76377
2.75359
2.77066
2.76829
2.78392
2.77018
2.76444
2.77996
2.75913
2.75067
2.74641
2.75444
2.75906
2.77294
2.78122
2.77173
2.76999
2.76496
2.76757
2.76094
2.76577
2.75677
2.74004
2.72695
2.73586
2.73368
2.73557
2.7335
2.73195
2.74211
2.74871
2.75296
2.75079
2.74365
2.74362
2.73701
2.74045
2.7294
2.73111
2.73243
2.73226
2.73844
2.73448
2.73632
2.73735
2.73951
2.7419
2.73863
2.73577
2.74035
2.74142
2.73725
2.74101
2.74223
2.74078
2.74235
2.73493
2.73426
2.73458
2.73277
2.73158
2.73273
2.73338
2.73592
2.73371
2.78598
2.78008
2.78975
2.79582
2.7878
2.7843
2.78362
2.78963
2.78225
2.76563
2.76312
2.7769
2.77322
2.79044
2.80283
2.79195
2.77609
2.78078
2.78784
2.78713
2.77617
2.77441
2.78352
2.76991
2.78264
2.78106
2.79601
2.79203
2.80428
2.79225
2.79208
2.80218
2.79903
2.79838
2.79574
2.78489
2.777
2.78956
2.7872
2.78016
2.79083
2.78289
2.72401
2.72275
2.73021
2.73243
2.73387
2.73124
2.73286
2.73095
2.7267
2.72459
2.72706
2.72842
2.73121
2.72517
2.72915
2.73188
2.72654
2.73016
2.72938
2.72902
2.7285
2.73633
2.74203
2.73892
2.74091
2.73905
2.73532
2.73382
2.73212
2.72832
2.73723
2.73235
2.73462
2.72819
2.72842
2.73712
2.73568
2.73605
2.73408
2.73857
2.74085
2.74637
2.74874
2.74161
2.73777
2.74152
2.73967
2.74869
2.75531
2.7466
2.74941
2.74487
2.73087
2.73031
2.73451
2.73426
2.77883
2.76772
2.77787
2.7905
2.77456
2.7809
2.78566
2.78498
2.79664
2.78654
2.78923
2.79082
2.79015
2.79246
2.78746
2.7785
2.78093
2.77737
2.76812
2.75269
2.75119
2.75466
2.76242
2.75518
2.72319
2.73048
2.72297
2.72272
2.72456
2.72609
2.72818
2.73462
2.72362
2.734
2.75014
2.74894
2.73104
2.74141
2.73417
2.73503
2.72787
2.75863
2.77205
2.76779
2.76242
2.75539
2.75697
2.7834
2.77557
2.77467
2.77758
2.7782
2.77753
2.72271
2.72383
2.72501
2.72632
2.72405
2.72431
2.73226
2.72844
2.72545
2.72271
2.73384
2.72557
2.72539
2.7369
2.72825
2.73213
2.72935
2.73778
2.73858
2.73279
2.73956
2.73813
2.73061
2.746
2.74258
2.73558
2.74848
2.75654
2.75194
2.74687
2.74185
2.73888
2.74108
2.74953
2.74743
2.7365
2.74285
2.72692
2.7212
2.72624
2.72867
2.72827
2.72275
2.72454
2.72351
2.72428
2.76775
2.75819
2.76867
2.75905
2.7655
2.76806
2.77347
2.77481
2.77499
2.76594
2.76346
2.762
2.76018
2.76719
2.76569
2.76464
2.7709
2.7597
2.7744
2.77114
2.78307
2.76899
2.76661
2.7627
2.76391
2.74974
2.74806
2.75136
2.74571
2.74789
2.77537
2.77322
2.76742
2.76903
2.76439
2.78139
2.78078
2.76476
2.75689
2.76434
2.75611
2.75867
2.74839
2.74752
2.75537
2.75649
2.75062
2.75367
2.75205
2.75035
2.75421
2.82552
2.82535
2.82107
2.76898
2.76365
2.75976
2.76576
2.76694
2.75837
2.76193
2.76432
2.77082
2.76337
2.76306
2.79048
2.78473
2.79442
2.79025
2.77454
2.77426
2.77614
2.78957
2.7772
2.77974
2.78243
2.77884
2.78346
2.78799
2.74524
2.75015
2.74657
2.74743
2.74904
2.7401
2.74634
2.74758
2.74811
2.74369
2.74455
2.79087
2.80113
2.79951
2.7946
2.80892
2.80207
2.77843
2.77753
2.78043
2.78297
2.78022
2.77028
2.76796
2.76266
2.77565
2.78143
2.78418
2.78251
2.77595
2.79318
2.78861
2.79371
2.79465
2.78908
2.79495
2.80162
2.80011
2.8128
2.80269
2.81055
2.81017
2.80744
2.79594
2.77631
2.77119
2.76559
2.76324
2.76454
2.76502
2.7624
2.73593
2.73503
2.73856
2.73979
2.73976
2.73818
2.73713
2.73564
2.73749
2.76165
2.76189
2.76113
2.76889
2.77073
2.76421
2.76491
2.76286
2.76317
2.74751
2.75137
2.74752
2.74719
2.74942
2.7502
2.74605
2.74871
2.74699
2.74542
2.74781
2.74979
2.74472
2.74691
2.74541
2.74458
2.75832
2.77074
2.76113
2.75615
2.75366
2.76185
2.76166
2.76649
2.76477
2.7585
2.75608
2.756
2.8002
2.80293
2.79591
2.79838
2.79851
2.80937
2.80277
2.77164
2.76749
2.7684
2.77175
2.76958
2.75264
2.75068
2.75788
2.75968
2.75357
2.75227
2.75531
2.80046
2.78805
2.78644
2.79199
2.8022
2.80041
2.78614
2.76006
2.75406
2.76223
2.7616
2.75624
2.76931
2.76274
2.76857
2.76285
2.75788
2.76163
2.77084
2.77024
2.75825
2.76193
2.82974
2.83843
2.84073
2.82972
2.82601
2.83068
2.8351
2.83679
2.83128
2.83485
2.83223
2.8219
2.83824
2.82771
2.82591
2.82313
2.81372
2.81932
2.82645
2.82832
2.78507
2.78139
2.7831
2.78256
2.78643
2.78095
2.8112
2.83164
2.82515
2.83306
2.82842
2.83052
2.79768
2.78978
2.80785
2.8051
2.79879
2.79066
2.8329
2.82101
2.80567
2.80658
2.80238
2.82044
2.81549
2.78947
2.78749
2.78845
2.79091
2.78881
2.78177
2.79823
2.78982
2.79979
2.79609
2.78754
2.78552
2.79065
2.79237
2.77304
2.77547
2.76843
2.76923
2.77102
2.77198
2.7705
2.77367
2.78087
2.77858
2.77496
2.7828
2.78009
2.86044
2.85266
2.87043
2.86951
2.85772
2.86699
2.85986
2.85847
2.85971
2.83303
2.83868
2.85135
2.84987
2.84596
2.8452
2.85158
2.84913
2.78478
2.78349
2.77978
2.78227
2.78479
2.78459
2.78393
2.78496
2.78747
2.78493
2.78772
2.7868
2.77812
2.77531
2.7801
2.78089
2.78485
2.77967
2.78177
2.77697
2.77836
2.78708
2.78413
2.78128
2.79727
2.78902
2.78913
2.78201
2.83536
2.82041
2.82065
2.83174
2.82544
2.81642
2.83039
2.8351
2.84476
2.84066
2.82846
2.78307
2.7828
2.79478
2.78489
2.79101
2.77378
2.78521
2.78604
2.79884
2.80142
2.79801
2.79867
2.79467
2.79662
2.79871
2.79304
2.79394
2.79413
2.79881
2.79414
2.79524
2.79169
2.78803
2.78599
2.78894
2.78693
2.78886
2.78509
2.78465
2.79227
2.79959
2.78099
2.7812
2.89258
2.87667
2.88773
2.87572
2.89397
2.88898
2.89797
2.89408
2.88545
2.85967
2.87498
2.86691
2.86611
2.85755
2.86584
2.8701
2.87508
2.87419
2.86106
2.86141
2.869
2.85915
2.84225
2.84536
2.85312
2.84403
2.84293
2.83825
2.86065
2.84207
2.84586
2.86246
2.85657
2.79388
2.7937
2.79509
2.79576
2.79422
2.79989
2.80084
2.79666
2.79923
2.79816
2.81792
2.82238
2.82376
2.82113
2.82146
2.8261
2.81593
2.80733
2.83271
2.83939
2.83618
2.82487
2.82914
2.82799
2.81418
2.80946
2.8129
2.82463
2.82275
2.80228
2.81312
2.82464
2.8214
2.82531
2.82722
2.83027
2.81013
2.81289
2.79403
2.79318
2.79576
2.80916
2.80705
2.80385
2.7993
2.80098
2.79364
2.79382
2.79922
2.79853
2.80221
2.80691
2.81315
2.81281
2.81349
2.81188
2.80864
2.80924
2.81266
2.79897
2.7998
2.80254
2.80229
2.79977
2.79987
2.80037
2.80415
2.80233
2.8182
2.8097
2.81226
2.81096
2.81797
2.83004
2.82014
2.82928
2.83563
2.81585
2.88851
2.87499
2.86323
2.86877
2.8847
2.87168
2.89402
2.87955
2.87827
2.86323
2.88573
2.87023
2.87793
2.87918
2.88375
2.88128
2.87374
2.87008
2.87917
2.87324
2.87538
2.86268
2.87636
2.86585
2.88272
2.8746
2.8742
2.86877
2.87126
2.86891
2.8614
2.87059
2.86136
2.86349
2.86662
2.86581
2.86766
2.86675
2.88532
2.8857
2.87492
2.86406
2.8762
2.8633
2.87778
2.88099
2.88169
2.87923
2.87375
2.87241
2.8723
2.86579
2.86436
2.86641
2.80968
2.8079
2.81109
2.80498
2.80118
2.80388
2.80693
2.80647
2.80617
2.80918
2.80833
2.8063
2.80659
2.8035
2.80482
2.81382
2.81892
2.81831
2.81832
2.81483
2.81266
2.81717
2.81756
2.81741
2.82222
2.82984
2.82953
2.82714
2.83012
2.83698
2.83147
2.82749
2.82826
2.85654
2.85409
2.86163
2.86366
2.85522
2.84098
2.83216
2.84751
2.8441
2.84601
2.84462
2.84993
2.85594
2.85565
2.85499
2.87888
2.8685
2.86952
2.85173
2.87132
2.88001
2.85612
2.85373
2.85449
2.8052
2.80665
2.81165
2.80819
2.88091
2.88382
2.89202
2.88831
2.89542
2.8849
2.89659
2.90025
2.90282
2.90827
2.89943
2.90442
2.90116
2.90063
2.89285
2.8332
2.8292
2.82489
2.84291
2.8347
2.83124
2.8304
2.83251
2.82572
2.84295
2.81734
2.81822
2.81577
2.81459
2.82339
2.81831
2.81776
2.90083
2.88739
2.89519
2.89551
2.87829
2.89283
2.8818
2.88119
2.87126
2.87687
2.87124
2.88098
2.8769
2.85763
2.85454
2.84607
2.84966
2.85983
2.86211
2.86229
2.85651
2.86721
2.86724
2.85191
2.84755
2.84891
2.84562
2.81455
2.81774
2.82006
2.82374
2.8203
2.81977
2.82113
2.81141
2.81851
2.81104
2.79419
2.79862
2.80601
2.80849
2.80945
2.80752
2.81146
2.81472
2.8137
2.81045
2.81746
2.81498
2.81341
2.81102
2.81237
2.8063
2.81022
2.81298
2.81501
2.88494
2.87861
2.88818
2.89237
2.88118
2.8826
2.8961
2.88953
2.89163
2.89198
2.77539
2.77107
2.77285
2.76966
2.77351
2.77548
2.77687
2.77734
2.77316
2.77427
2.77082
2.77073
2.81817
2.83073
2.82406
2.82591
2.82246
2.82442
2.81941
2.8275
2.81944
2.7907
2.79331
2.79614
2.7946
2.79952
2.79407
2.78631
2.77995
2.77209
2.76727
2.76935
2.76764
2.76971
2.76885
2.76969
2.80352
2.80478
2.80848
2.80046
2.8035
2.79839
2.78914
2.79888
2.79259
2.80943
2.80779
2.78426
2.77858
2.78229
2.77058
2.78282
2.77953
2.77904
2.78757
2.78461
2.77259
2.77354
2.72393
2.73063
2.72251
2.72039
2.7229
2.72346
2.7297
2.73333
2.72063
2.72775
2.72826
2.72843
2.72846
2.72735
2.72477
2.72535
2.76619
2.76723
2.77116
2.77154
2.77172
2.7994
2.79994
2.80262
2.79712
2.78885
2.79279
2.79307
2.79824
2.78628
2.7796
2.78804
2.78087
2.7922
2.79638
2.78607
2.78137
2.89795
2.89073
2.89734
2.8975
2.88796
2.8897
2.88759
2.87665
2.88178
2.88342
2.79839
2.79227
2.80023
2.80373
2.80203
2.80619
2.8054
2.80233
2.80869
2.77836
2.78292
2.79499
2.78902
2.79047
2.7918
2.79262
2.79363
2.78738
2.78536
2.79533
2.80239
2.82322
2.81556
2.81505
2.81014
2.81075
2.80988
2.81859
2.8172
2.8128
2.81084
2.81181
2.81204
2.80911
2.80969
2.81638
2.81695
2.81825
2.81804
2.81746
2.80535
2.8109
2.80895
2.81068
2.81341
2.81896
2.81891
2.81115
2.81012
2.83028
2.8484
2.85782
2.84557
2.84207
2.84769
2.85464
2.84831
2.83725
2.84865
2.84039
2.84304
2.84176
2.84873
2.86013
2.84459
2.85537
2.86528
2.86499
2.80274
2.79808
2.79093
2.79089
2.79791
2.79688
2.80341
2.79761
2.80018
2.79674
2.79441
2.80163
2.79898
2.8002
2.80716
2.8071
2.80567
2.80339
2.80586
2.80575
2.80133
2.80171
2.79998
2.80014
2.80128
2.79978
2.80373
2.80383
2.79966
2.79935
2.79465
2.79499
2.81805
2.81289
2.80695
2.80265
2.80681
2.80491
2.84888
2.84351
2.8384
2.85002
2.85404
2.84772
2.85486
2.85767
2.85847
2.84987
2.85555
2.85673
2.86145
2.86569
2.85673
2.86296
2.86835
2.86109
2.85492
2.85248
2.85277
2.86293
2.85787
2.79637
2.79869
2.79566
2.7991
2.80361
2.83084
2.81975
2.81369
2.80935
2.82018
2.81876
2.81934
2.82513
2.82819
2.8082
2.81366
2.82116
2.83578
2.8262
2.8329
2.82378
2.81602
2.82638
2.82004
2.83284
2.83598
2.78551
2.78785
2.78703
2.78717
2.78565
2.79452
2.79055
2.79256
2.79146
2.78788
2.78587
2.79313
2.79129
2.78998
2.79012
2.78681
2.78551
2.78189
2.78567
2.784
2.78623
2.7844
2.78386
2.78657
2.78057
2.78278
2.77453
2.77747
2.77746
2.77969
2.85323
2.84584
2.84429
2.85676
2.84703
2.85903
2.84884
2.85669
2.84685
2.84001
2.83436
2.8352
2.82966
2.83989
2.84117
2.84135
2.83198
2.82623
2.83007
2.84156
2.83044
2.83608
2.83543
2.84895
2.84361
2.77785
2.77972
2.78319
2.78084
2.78275
2.77742
2.77582
2.77529
2.77864
2.77337
2.77115
2.8506
2.84074
2.83973
2.8341
2.84085
2.84576
2.80158
2.80273
2.80022
2.77586
2.7752
2.77599
2.77709
2.77812
2.7807
2.78125
2.77647
2.78108
2.77982
2.77773
2.77782
2.7748
2.77134
2.77033
2.7711
2.77001
2.77729
2.77624
2.7765
2.77603
2.76951
2.76982
2.7706
2.77498
2.7751
2.78033
2.77793
2.76892
2.76986
2.77775
2.77878
2.76806
2.76861
2.76634
2.76902
2.76953
2.7652
2.75833
2.7699
2.77327
2.76603
2.76122
2.76863
2.7739
2.77105
2.77472
2.77548
2.77063
2.76959
2.76904
2.77558
2.77582
2.77565
2.77108
2.77226
2.794
2.79372
2.7682
2.78003
2.78722
2.74984
2.75911
2.7715
2.77191
2.76865
2.76785
2.78243
2.77857
2.76378
2.765
2.75646
2.76424
2.76461
2.76661
2.75922
2.75947
2.75771
2.75337
2.74956
2.74683
2.75672
2.75589
2.75278
2.75525
2.75363
2.75301
2.743
2.74959
2.75306
2.74349
2.74351
2.74804
2.74899
2.75079
2.74842
2.74871
2.75213
2.75181
2.74936
2.75158
2.75429
2.75015
2.75351
2.75962
2.7553
2.75045
2.74802
2.74476
2.7461
2.75533
2.75238
2.74721
2.75269
2.7569
2.75975
2.7889
2.78631
2.78394
2.74507
2.73883
2.73909
2.74436
2.74574
2.74624
2.74291
2.74244
2.74482
2.74609
2.803
2.81332
2.81429
2.8123
2.80651
2.80761
2.81374
2.81875
2.74825
2.74813
2.74244
2.7515
2.74599
2.74645
2.7502
2.74579
2.74805
2.74744
2.74194
2.74102
2.74471
2.74468
2.80108
2.80769
2.74887
2.75413
2.75379
2.74874
2.74696
2.75126
2.75397
2.75046
2.75132
2.75847
2.75763
2.75631
2.77487
2.76884
2.76325
2.77822
2.76859
2.77432
2.76128
2.75865
2.76738
2.78666
2.78221
2.78545
2.77764
2.75184
2.75326
2.75273
2.75756
2.75388
2.74129
2.7414
2.74411
2.73932
2.73729
2.72891
2.73738
2.74025
2.73397
2.73553
2.73214
2.7355
2.73816
2.73432
2.73601
2.74063
2.74003
2.73843
2.73511
2.73571
2.73558
2.736
2.73345
2.74133
2.74207
2.74335
2.78832
2.78691
2.80251
2.79488
2.79951
2.80293
2.78931
2.79629
2.78437
2.79523
2.79187
2.80851
2.79572
2.79423
2.79571
2.7916
2.79098
2.79281
2.80746
2.80383
2.79801
2.80219
2.73068
2.72985
2.73032
2.7262
2.72679
2.72659
2.7251
2.72656
2.72467
2.72476
2.72446
2.72395
2.73813
2.7297
2.78359
2.77195
2.78012
2.78536
2.78043
2.79251
2.77914
2.79485
2.73538
2.73268
2.73607
2.73748
2.76732
2.77591
2.77163
2.77556
2.77966
2.77347
2.77033
2.72824
2.72153
2.72055
2.72839
2.73177
2.73405
2.7269
2.72957
2.73516