/*--------------------------------*- C++ -*----------------------------------*\
| =========                 |                                                 |
| \\      /  F ield         | OpenFOAM: The Open Source CFD Toolbox           |
|  \\    /   O peration     | Version:  v1612+                                |
|   \\  /    A nd           | Web:      www.OpenFOAM.com                      |
|    \\/     M anipulation  |                                                 |
\*---------------------------------------------------------------------------*/
FoamFile
{
    version     2.0;
    format      ascii;
    class       surfaceScalarField;
    location    "100";
    object      phi;
}
// * * * * * * * * * * * * * * * * * * * * * * * * * * * * * * * * * * * * * //

dimensions      [0 3 -1 0 0 0 0];

internalField   nonuniform List<scalar> 
36890
(
6.70812e-09
2.14631e-09
-6.29258e-09
-2.56184e-09
-4.57168e-09
5.79906e-10
3.82883e-09
1.62952e-10
6.50286e-09
2.81367e-10
-5.49669e-09
-1.28756e-09
-2.41808e-09
2.32466e-09
6.59628e-09
9.91674e-09
-2.97362e-09
-1.7891e-09
-5.154e-09
6.76204e-09
7.36615e-10
1.33095e-09
-1.89216e-09
6.10288e-09
-5.54169e-09
1.54307e-08
-1.24063e-08
-5.99795e-09
-3.42058e-09
6.78911e-09
-1.04387e-09
-2.98378e-09
-1.55453e-10
-3.25316e-09
-4.03264e-09
2.58151e-09
-8.50923e-09
3.88235e-09
2.04535e-09
5.26636e-10
-1.19831e-09
3.3926e-09
-2.97821e-09
1.12213e-10
7.14508e-10
-3.0571e-10
-3.30386e-09
-5.13269e-09
3.09923e-09
5.33729e-09
-4.30875e-09
-1.27131e-13
1.005e-09
2.76971e-10
-4.67118e-09
-7.38509e-10
-3.85706e-09
-1.74748e-10
-3.05135e-09
-3.98945e-09
1.014e-08
-4.34626e-09
1.29476e-09
-4.56616e-09
-6.00677e-09
6.22667e-09
-3.28015e-09
-7.41233e-10
-5.44798e-10
-6.08661e-09
-4.36413e-10
5.1624e-10
-3.83615e-09
-5.53063e-09
7.79328e-09
-4.13498e-09
-1.22148e-08
8.55646e-09
1.03762e-08
-9.18841e-10
-1.66412e-09
1.52067e-08
-8.81999e-09
-3.90599e-09
-6.92307e-10
2.18877e-09
-1.01599e-08
-4.6059e-09
-9.84151e-10
-6.32312e-09
6.89986e-09
-2.21523e-10
-6.01441e-09
-6.63949e-10
-3.3471e-09
5.03084e-09
5.21611e-09
-7.41703e-09
-1.32224e-09
8.51774e-09
2.87426e-09
-4.99783e-09
-3.89084e-09
-5.90754e-10
1.17894e-10
-6.95349e-09
4.09808e-09
-2.31509e-10
3.08691e-09
1.24055e-09
-5.16221e-09
-1.55285e-09
5.47447e-09
-2.95776e-09
3.82277e-09
3.75507e-10
-3.67354e-09
3.18092e-09
-6.92437e-09
-6.61629e-11
-8.6052e-09
-3.75534e-09
2.06814e-10
-1.06042e-09
-2.71214e-09
-2.69378e-09
-3.52886e-09
-6.51528e-09
1.56295e-08
-7.03159e-09
-1.12581e-09
-7.47223e-09
-8.03364e-09
1.4865e-08
-1.82027e-09
1.82712e-09
6.77425e-09
-6.78118e-09
5.60248e-09
1.02592e-09
-8.44875e-09
-8.49662e-09
-8.18101e-10
1.28099e-09
-9.92575e-09
-7.48116e-12
-1.67812e-09
-4.1662e-09
-4.60757e-09
-4.24496e-09
-3.80172e-09
-4.89716e-09
-1.43929e-12
3.20994e-09
7.16867e-09
-8.23099e-09
-2.14755e-09
7.41378e-09
-3.77688e-09
-4.26938e-10
6.58125e-09
-6.73326e-09
7.56571e-09
8.80301e-09
-2.48402e-09
8.49707e-10
2.22257e-09
1.31616e-08
7.58885e-09
-8.2336e-09
-3.13216e-09
-2.06138e-09
2.91698e-09
7.52075e-09
-7.32738e-09
-2.67751e-09
-5.58522e-09
1.53285e-08
-8.55093e-09
-1.0886e-08
1.38517e-08
-1.4418e-08
3.80571e-09
-6.3219e-10
-9.47736e-09
1.87864e-09
-1.04882e-08
8.9762e-09
8.79764e-10
-9.76406e-11
4.17364e-09
-1.35533e-08
5.23821e-09
-1.5824e-08
1.23379e-09
-3.9868e-09
-8.13294e-09
-3.99204e-09
-9.19218e-09
-8.052e-09
-5.208e-09
6.8568e-09
-3.95667e-09
1.38745e-08
1.15312e-08
-5.69608e-09
-1.97095e-08
1.44947e-08
2.30957e-09
-2.92972e-09
1.721e-08
3.59048e-09
-9.26927e-09
6.20311e-09
1.53744e-08
-1.06578e-08
-1.09196e-08
9.06829e-09
-3.32991e-09
4.64814e-10
1.14042e-08
-5.92915e-09
-5.83731e-09
3.62432e-10
-1.05556e-08
2.14792e-08
4.8067e-10
4.27841e-10
1.46384e-08
-5.71555e-10
1.76138e-08
2.41287e-11
-2.04347e-08
2.03513e-08
9.15175e-09
-2.75081e-09
-1.01747e-08
9.15782e-10
2.08975e-08
-1.37742e-08
-1.29605e-08
-3.51438e-09
1.38563e-08
4.78166e-09
9.31774e-09
1.17557e-08
7.66436e-09
-2.99308e-09
6.57783e-09
-1.37593e-08
-1.9347e-08
-3.60585e-09
-1.16033e-10
-2.40643e-09
-1.25124e-09
1.8682e-09
-2.34083e-09
-2.23466e-09
-7.77228e-10
6.0914e-12
7.14335e-10
-3.72028e-09
6.65103e-10
2.63856e-09
-9.08554e-10
-1.84605e-09
1.2311e-09
-1.54335e-09
-9.50094e-10
-2.63112e-11
1.65553e-09
-1.84977e-09
-7.18671e-11
-6.52358e-09
1.69927e-09
-1.98848e-09
6.81292e-09
5.30347e-09
-8.95173e-09
-2.87521e-09
-1.42497e-08
2.58842e-09
1.08017e-08
8.59939e-10
-1.4127e-10
4.56473e-09
-6.66941e-09
-1.79711e-09
1.01659e-08
-7.37686e-09
6.011e-09
-1.07626e-08
8.76345e-10
7.89782e-09
-9.24874e-09
2.88547e-09
3.35121e-09
-1.27411e-08
7.52006e-09
-7.48092e-09
-2.21323e-08
5.51254e-09
9.25959e-09
7.36043e-09
-4.94957e-09
-1.46184e-08
-2.5643e-09
-9.79004e-09
8.86927e-09
1.17039e-08
-1.33023e-08
9.83967e-09
1.18743e-08
-1.24047e-08
9.24013e-09
-2.05376e-09
-1.95453e-08
1.23588e-08
8.15963e-09
-1.55623e-08
1.66426e-08
-3.77456e-09
2.02196e-08
-2.39506e-08
7.50546e-09
-1.06552e-08
1.83775e-08
4.83711e-09
-1.25596e-08
1.00851e-08
-1.23013e-08
-8.4391e-09
-1.70681e-08
-6.92795e-10
2.29514e-08
-5.19068e-09
-7.0978e-09
1.1474e-10
-2.49033e-08
3.27656e-09
1.78522e-08
-9.26084e-10
-1.58178e-08
-2.39051e-08
9.54992e-09
-6.21624e-09
2.3901e-08
-2.47753e-08
2.18356e-08
-1.64409e-08
-9.26075e-09
3.44452e-09
-8.36749e-09
7.50197e-09
-2.57896e-09
-6.80781e-09
8.78054e-09
1.47182e-09
-1.67586e-09
-1.24429e-09
-5.44707e-09
-2.5011e-09
-5.98258e-09
-5.49144e-09
7.36396e-09
-8.16395e-10
-1.05616e-09
-9.18421e-10
-7.07408e-09
-3.34176e-09
5.06936e-09
5.7744e-09
2.9237e-09
2.51512e-09
3.49427e-09
7.69002e-09
-3.82026e-09
5.34482e-09
1.07318e-09
2.11324e-09
-2.02274e-09
-7.94599e-09
7.85573e-09
-2.09863e-09
2.96782e-09
-7.06544e-09
8.21038e-09
-1.96133e-09
-1.00067e-08
4.66915e-09
-1.62728e-09
4.64813e-09
2.00469e-09
8.00932e-09
1.10734e-08
-5.03844e-09
-3.02676e-09
-3.00816e-09
-4.51351e-09
4.50421e-09
1.10827e-08
-2.41636e-09
9.49038e-09
1.42007e-08
-1.10287e-08
8.05987e-09
1.12408e-08
-9.15295e-09
9.05544e-09
2.83233e-09
2.68715e-09
-1.45749e-08
1.02812e-08
4.50452e-09
-5.73037e-09
3.10185e-09
8.02178e-09
-8.42429e-10
1.07283e-08
-9.23227e-09
1.60586e-09
1.27894e-09
8.04175e-09
1.40763e-09
2.08351e-09
7.2172e-09
-3.4911e-11
1.10786e-08
-9.11464e-09
-1.92915e-09
-1.26072e-09
8.71756e-09
-7.49185e-09
4.2119e-09
4.1583e-09
-5.53795e-09
9.32027e-09
-6.03888e-10
5.18886e-09
-1.17339e-08
1.01431e-08
-4.67991e-09
-1.06343e-09
-7.27093e-09
1.30141e-08
-1.22003e-08
1.16786e-08
-8.77403e-09
1.28994e-08
3.51004e-09
-1.43824e-08
-2.05338e-09
1.29257e-08
-1.63333e-08
8.45296e-10
1.8998e-08
1.04918e-08
-1.05238e-08
-1.43505e-08
-3.1603e-09
-2.68111e-09
-1.06839e-09
1.41353e-08
-1.22216e-08
1.48446e-09
2.57252e-11
-1.53026e-08
1.37923e-08
-1.26826e-08
1.30986e-08
9.92906e-09
-4.70597e-09
8.67486e-09
-1.38981e-08
-1.3707e-09
-1.38284e-09
8.62411e-09
3.38767e-09
-1.67178e-08
-2.22451e-09
9.47794e-09
-1.44521e-08
1.24244e-08
3.70621e-09
-1.03339e-08
4.48462e-09
-1.16208e-08
-6.26127e-09
1.25341e-08
2.72257e-09
-7.2417e-09
-8.01522e-09
1.05131e-08
1.29439e-08
-1.09228e-08
2.34896e-08
5.85054e-11
-2.45079e-08
9.59688e-10
5.64262e-09
1.02461e-08
7.60076e-09
-2.15833e-08
1.27986e-09
2.03618e-08
9.02745e-10
-8.56457e-09
-1.39215e-08
-2.64174e-08
8.54164e-09
-6.63229e-09
-9.63605e-09
-1.58787e-08
2.49345e-08
-1.06257e-08
-3.79575e-09
-1.40078e-08
-4.40913e-09
-1.05231e-09
1.94691e-08
-1.21706e-08
-2.30231e-08
2.11859e-08
-4.20241e-09
-1.6533e-08
1.06699e-09
2.53915e-09
-7.80904e-09
5.83881e-09
-1.44082e-08
-1.0618e-08
-4.19708e-09
1.04059e-08
-3.15505e-09
-4.92408e-09
1.29673e-08
-1.02836e-08
1.90136e-08
2.49534e-09
1.34358e-08
1.12204e-08
-3.36761e-09
2.07876e-09
6.54129e-09
-5.25248e-09
4.56624e-09
-1.02705e-09
-6.90682e-09
9.29536e-09
3.40851e-09
-8.13765e-09
7.30323e-10
8.39841e-09
1.66605e-10
-2.95866e-09
1.26661e-08
-7.6287e-09
7.08502e-09
1.86578e-10
-7.30836e-09
1.19335e-08
-1.21663e-09
4.16263e-09
-9.38515e-09
4.19538e-09
1.23628e-08
-1.11588e-08
1.46005e-09
-6.46761e-10
1.03378e-08
-1.11512e-08
1.38825e-09
8.9683e-09
-8.89655e-09
1.04399e-08
1.49123e-09
7.34978e-10
1.03722e-08
7.15258e-09
2.04404e-09
1.09822e-08
-1.3673e-08
1.09592e-08
2.89479e-09
6.43783e-09
1.2489e-08
-7.96776e-09
3.1168e-09
5.36493e-09
9.9803e-10
1.46078e-08
1.27585e-08
3.5096e-09
5.4728e-09
-2.01633e-09
-6.96611e-09
4.98003e-09
8.86293e-10
-2.3567e-09
-6.27387e-09
5.27516e-09
5.97871e-09
4.77628e-10
-1.2787e-09
-1.13775e-09
-9.04548e-09
4.42601e-11
1.01389e-08
-8.18469e-09
-1.66155e-10
7.21305e-09
4.69519e-09
-3.95126e-09
5.15579e-09
-5.89975e-09
6.33898e-09
-1.16621e-09
1.72654e-09
-7.69417e-09
3.77112e-09
6.33722e-09
-8.38184e-09
6.59721e-09
-6.57263e-09
-8.20927e-09
-5.94865e-09
3.50032e-09
-1.91523e-09
-7.12938e-10
-4.71473e-09
5.47189e-09
4.39609e-09
5.27189e-09
-2.24616e-10
1.0844e-10
6.89614e-09
1.63895e-10
5.2548e-09
5.85084e-10
1.58711e-09
-7.42708e-09
1.96465e-10
-1.80663e-09
6.86493e-09
5.16128e-09
2.05489e-09
-6.63111e-09
7.09493e-09
-1.73719e-09
3.82858e-09
2.02874e-09
-4.27032e-09
5.30319e-09
3.07703e-10
-1.78231e-09
5.6603e-10
6.00456e-09
5.24348e-10
5.40896e-09
1.25646e-09
-6.0994e-09
6.83383e-09
1.19151e-09
-2.02075e-09
-5.64608e-10
-1.43882e-09
8.83725e-09
-1.88598e-09
6.73034e-09
-1.05487e-08
1.13966e-08
-2.28677e-09
-9.20237e-09
-1.5484e-10
3.12374e-10
-7.24725e-09
8.96359e-09
-6.83514e-09
4.41154e-09
-9.94359e-10
2.25652e-08
9.16601e-09
-1.44952e-08
-1.72361e-08
8.41188e-09
7.54508e-10
1.33988e-08
-8.90419e-09
-1.1e-08
2.77992e-09
1.82894e-08
-5.87705e-09
-3.24628e-09
2.05996e-08
6.10166e-09
-1.7544e-08
7.15002e-09
1.11484e-08
-6.2347e-09
-2.58045e-08
9.30594e-09
-1.10601e-08
-8.64664e-10
-1.33013e-08
3.62127e-09
1.05447e-08
-1.4652e-08
-1.11886e-08
1.37647e-08
-9.27739e-09
6.70127e-09
-3.28374e-09
1.18705e-08
-1.97754e-08
-1.88619e-08
9.34341e-09
-6.94596e-09
7.40939e-09
-9.52541e-10
-2.68188e-09
-1.46004e-09
5.76619e-09
-1.62434e-09
4.23592e-09
-5.07439e-09
-5.71552e-09
6.55391e-09
-7.64869e-10
6.24401e-10
4.37631e-09
3.03994e-09
-6.72994e-09
1.52963e-09
2.1603e-09
-2.54418e-09
2.90223e-09
2.66683e-09
-3.49054e-09
5.87681e-11
-2.69191e-09
3.89866e-09
1.14243e-09
-2.12312e-09
-2.50995e-09
2.5552e-09
-1.27067e-09
-1.42159e-10
-2.38135e-09
-3.06199e-11
-1.32268e-10
-2.83128e-09
-5.38949e-10
-3.35979e-09
-1.83497e-09
-3.37774e-09
-1.67348e-10
-2.55005e-09
-3.06333e-09
1.05064e-09
-2.05504e-09
1.61006e-09
1.19059e-08
-2.02518e-08
6.73577e-09
8.78217e-09
4.80729e-09
-1.19794e-08
-2.8647e-10
9.96788e-09
6.78949e-09
1.70621e-09
-9.89644e-10
3.60197e-09
2.71627e-09
-5.32864e-09
4.5518e-09
-6.97381e-09
1.43229e-09
-9.12838e-09
7.06412e-10
7.34574e-10
7.68735e-09
4.60261e-09
-8.92371e-09
1.16789e-08
-4.86736e-09
-2.20894e-09
1.32997e-09
-3.74829e-09
6.97011e-09
-2.69793e-09
7.62982e-09
6.64335e-09
2.62601e-09
3.30262e-09
-1.2572e-08
9.5013e-09
1.03103e-08
-1.31682e-08
5.22115e-10
2.20826e-09
3.63763e-09
5.83296e-09
6.81685e-10
3.41569e-09
-7.8457e-09
-5.55739e-09
3.5411e-09
6.15216e-09
4.4396e-11
-1.01859e-08
7.90923e-09
2.23221e-09
-9.25773e-09
7.7385e-09
1.56359e-09
-7.86909e-09
8.51623e-09
-1.24575e-09
5.98578e-10
6.60503e-09
-1.37324e-09
-1.31009e-08
-3.71783e-09
7.31899e-09
-1.5601e-09
-2.04109e-09
1.20861e-08
-9.19888e-09
-9.0788e-10
6.68247e-09
-5.95792e-09
1.83302e-10
5.61047e-09
-1.25645e-08
5.58073e-09
6.54246e-09
6.62811e-09
-7.56012e-09
5.71265e-09
-7.80843e-11
1.43446e-09
-7.16551e-09
-3.52671e-09
-6.89755e-09
-1.8539e-09
-5.74958e-10
6.52073e-10
-6.9747e-09
6.23992e-09
-1.32405e-10
6.48097e-09
-6.13913e-09
2.1573e-10
-5.57594e-10
8.73729e-09
-2.18176e-09
-7.45819e-11
7.0227e-09
2.77636e-09
2.28696e-09
7.6948e-09
6.64687e-09
-5.75171e-09
5.32523e-09
-6.83711e-10
4.12707e-09
-5.81573e-09
3.18842e-09
-5.71952e-09
8.34688e-09
5.54475e-10
-3.25661e-09
-3.11364e-09
-4.17147e-09
-4.51744e-09
9.24329e-09
1.02919e-11
-3.47724e-09
7.03518e-09
-3.56825e-09
-2.50559e-09
-2.07325e-09
4.58915e-09
1.42998e-08
3.0316e-09
-4.9678e-09
-1.23637e-08
-6.3475e-09
1.30099e-08
7.63733e-09
-4.51933e-09
5.62897e-09
-3.03874e-09
1.92911e-09
-4.13902e-09
-1.26261e-09
8.43323e-09
-4.18711e-09
-4.1234e-09
6.63781e-10
-7.35653e-09
-9.79832e-09
6.9848e-09
6.59381e-09
9.50166e-10
-5.08784e-10
-7.05574e-10
6.20923e-10
-6.2629e-09
1.36889e-09
-6.2398e-09
-3.78759e-09
-4.55862e-09
-6.98329e-10
4.28705e-10
-6.43013e-10
-1.3363e-09
-4.26051e-09
-1.31939e-09
-3.88226e-09
-2.92067e-09
-1.66839e-10
2.58321e-09
-7.93284e-10
-3.10935e-09
-7.66524e-11
-2.60858e-10
-1.07217e-09
-5.16131e-09
3.03872e-09
-4.9042e-09
2.9228e-09
-4.0503e-09
-2.62676e-10
2.35249e-09
-5.96659e-10
-2.50349e-09
9.60958e-10
-1.71234e-10
-3.74633e-09
2.62055e-09
7.8097e-09
-4.50453e-09
-3.19096e-09
-1.14234e-10
4.87475e-09
-2.14806e-09
5.083e-09
9.05585e-09
-3.96776e-09
-2.12807e-09
-2.96006e-09
3.44301e-09
1.04876e-08
-5.10395e-09
-3.36837e-09
-5.55385e-09
1.75035e-09
1.65539e-09
-6.06274e-09
-2.68208e-09
1.00504e-08
-5.36161e-09
2.70176e-09
-7.39058e-09
3.77318e-09
8.52942e-10
5.42423e-09
-2.78946e-09
-4.70022e-09
-2.42027e-09
-8.74643e-09
-3.2907e-10
7.54523e-09
1.03325e-08
-3.79221e-09
-3.83855e-09
4.56571e-09
6.61968e-09
-8.64989e-09
3.44014e-09
8.56866e-09
-4.33204e-09
-5.98165e-09
6.59567e-09
1.00822e-09
-1.62227e-09
-4.10398e-09
-5.01897e-09
3.14129e-09
-2.69645e-09
-2.67546e-09
4.945e-09
-7.15386e-09
2.30997e-09
7.16828e-09
-2.71186e-09
-1.79591e-09
-2.6605e-09
-6.60675e-10
5.6972e-09
2.13177e-09
4.30019e-09
1.63482e-09
6.99502e-09
-2.54208e-09
-4.14132e-11
8.33816e-09
4.46708e-09
-5.81023e-09
-2.10327e-09
3.72802e-09
3.10272e-09
8.38575e-09
-9.8424e-09
-4.2884e-09
-2.5274e-09
1.10001e-09
-2.7218e-09
-1.19314e-08
-5.29464e-09
-7.32901e-10
7.12761e-09
-7.99961e-09
4.91161e-09
3.66203e-10
3.83052e-09
-3.93019e-09
3.54054e-09
-3.44088e-09
4.13238e-09
-4.35054e-10
1.33175e-10
3.18575e-09
-2.51278e-09
-4.60318e-09
3.88103e-09
7.9592e-11
-7.74903e-10
-6.62467e-10
3.95547e-09
6.69532e-09
-9.98838e-09
4.57261e-09
-7.74787e-09
-7.18688e-09
5.21274e-09
6.1065e-09
-2.14151e-09
-1.50483e-09
3.32606e-09
1.19898e-10
5.46073e-09
-1.42569e-09
3.8405e-09
-1.4094e-09
-6.17746e-09
3.95693e-09
1.49766e-09
7.22821e-10
3.62206e-09
-4.3388e-09
-3.92702e-09
4.51911e-09
3.36479e-09
-6.56392e-11
-2.39341e-10
-3.38571e-09
7.27698e-10
-3.62176e-10
3.02016e-09
-1.25301e-10
-3.40964e-09
6.18418e-09
1.06592e-09
6.37868e-09
-3.09305e-09
6.13914e-09
7.16874e-10
4.52992e-09
8.93822e-10
3.95672e-09
-3.46324e-10
7.20233e-09
6.73166e-09
-2.84377e-10
-3.37154e-09
4.58029e-09
-9.24346e-10
-3.17238e-09
4.11417e-09
-1.22615e-09
-4.3407e-10
-2.74995e-09
6.08397e-09
-2.89997e-09
4.4845e-10
-3.14704e-09
-6.72973e-10
-2.64775e-09
-7.61775e-11
-2.10246e-09
-1.47865e-09
-1.74168e-09
2.46155e-09
-2.82234e-09
3.26288e-09
-6.37302e-09
1.36845e-09
3.48529e-09
4.05376e-09
-4.27617e-09
1.04019e-10
3.44289e-09
-6.16147e-11
-7.2767e-10
-2.14648e-09
6.92793e-09
-8.21753e-11
8.53515e-09
-1.12474e-08
-5.8148e-09
8.5271e-09
-9.8045e-10
-9.66984e-09
1.91855e-08
-1.09743e-08
-1.18019e-08
2.17957e-08
-5.74392e-09
-9.23737e-09
4.00707e-09
-9.17656e-09
1.40605e-08
1.92901e-09
1.06778e-08
-1.19565e-08
6.98557e-09
-4.17244e-09
-9.02734e-09
6.34308e-09
-1.39277e-09
1.15702e-08
-1.31546e-08
-7.65296e-09
-7.85055e-09
7.6188e-09
1.54062e-09
1.09899e-10
6.22989e-09
-1.05152e-08
-8.00083e-11
2.9918e-08
-6.31778e-09
-1.41443e-08
-9.45598e-09
-8.42902e-10
1.95226e-08
1.12382e-08
-1.51933e-08
-1.14245e-08
2.03e-08
1.85338e-08
-1.38435e-08
-1.88347e-08
7.01116e-09
1.06797e-08
-5.92546e-10
-1.53738e-08
4.22676e-09
1.17393e-08
-1.20262e-08
-3.35775e-09
2.71811e-08
-1.17972e-08
-1.29913e-08
7.97619e-09
-4.96881e-09
-7.91507e-09
-9.59714e-10
9.67204e-09
-1.52335e-08
-2.18023e-08
-1.85727e-09
1.15475e-08
1.2112e-08
9.80767e-10
-1.00883e-08
-1.26949e-08
1.39527e-08
-7.8221e-09
-1.40583e-08
7.92761e-09
1.16068e-09
-1.99318e-10
-8.94591e-09
1.42365e-08
-8.64837e-09
8.97224e-09
-1.44935e-08
1.8268e-08
-8.31501e-09
7.46483e-09
1.34483e-08
1.07088e-08
-2.02412e-08
-3.91598e-09
1.41996e-08
5.97646e-10
-1.34889e-09
1.18743e-08
1.59683e-08
-1.3643e-08
-4.02094e-09
1.5675e-08
2.20075e-10
4.28327e-09
8.53589e-09
-7.15317e-09
-5.66609e-09
1.15737e-08
-9.56335e-09
2.27286e-09
1.24039e-08
-1.25619e-08
1.17318e-08
-1.9048e-10
9.75791e-09
2.8365e-09
9.51587e-09
-2.82809e-09
-1.18532e-08
1.06158e-08
1.69124e-08
3.92457e-09
1.58098e-08
-1.6765e-08
9.49103e-09
8.09094e-09
4.85321e-09
2.86553e-09
2.91913e-09
1.58575e-08
-9.01877e-09
-8.72331e-09
4.34059e-09
1.38985e-08
2.1571e-08
-8.03608e-09
-1.49076e-09
3.60248e-09
2.56438e-09
-4.67608e-09
1.29803e-09
4.66163e-10
-3.25476e-09
-3.56202e-09
3.443e-09
-4.62241e-09
4.74147e-09
3.99116e-09
-1.029e-08
2.73692e-09
-1.47896e-09
-8.61113e-10
5.7831e-09
-3.05634e-09
5.56858e-09
1.67424e-09
-1.37019e-09
3.29848e-09
-2.49163e-09
-7.99399e-09
1.95714e-10
-1.58612e-09
-9.25168e-10
-2.08513e-09
4.59643e-09
-1.13354e-09
-3.94229e-09
3.48972e-09
-2.9992e-09
3.81233e-09
-1.76174e-09
6.0606e-11
-8.4615e-10
-4.37438e-09
2.16431e-09
1.79602e-09
-4.01225e-09
-4.30486e-09
-2.56113e-09
-5.56043e-09
-8.23704e-10
-7.6967e-09
1.00279e-09
-3.45575e-09
-1.77423e-09
2.85088e-09
-1.09474e-08
-2.97685e-09
1.10734e-08
1.3554e-09
6.604e-09
-5.1085e-09
6.07815e-09
-1.83453e-08
1.31969e-09
1.02905e-08
-4.98256e-09
7.70272e-10
1.19081e-08
-8.25197e-10
-7.92462e-10
-5.31937e-09
-5.22478e-09
1.2183e-08
-5.41522e-09
-1.20871e-08
2.06918e-08
7.08497e-09
-1.34155e-08
-1.43612e-08
1.58529e-08
-4.2488e-09
9.08771e-09
8.29185e-10
-1.8636e-08
1.25676e-08
5.23911e-09
4.12912e-09
-1.23522e-08
9.05223e-09
-6.59451e-09
-1.40739e-08
6.86839e-10
1.99814e-08
-1.36216e-08
1.11561e-08
1.70726e-08
-4.36054e-09
-5.62715e-09
2.12587e-08
1.16667e-08
3.98236e-10
-1.55008e-08
1.02861e-09
1.034e-09
-1.42574e-08
6.94245e-09
5.50308e-09
5.94922e-09
-1.83947e-08
1.07578e-08
3.71956e-09
-7.53489e-09
-1.15389e-08
5.89737e-09
-1.94513e-08
-8.43985e-09
-1.27602e-08
2.56411e-09
-1.37284e-08
-7.06369e-09
-6.36297e-09
-9.01557e-09
1.64329e-08
-3.69777e-09
-1.44393e-08
1.13729e-08
-5.59634e-09
2.83986e-09
-1.35393e-10
-3.88101e-09
9.07869e-09
1.23132e-08
-1.7511e-08
1.39462e-08
1.42448e-09
-7.6322e-09
2.71271e-09
7.35245e-09
5.22857e-09
1.07727e-08
-1.5989e-08
-1.23113e-11
1.15277e-08
7.1367e-09
4.70095e-09
-1.04495e-09
7.11666e-09
1.88369e-09
1.43449e-08
2.62476e-09
-1.84203e-08
9.16321e-09
5.8269e-09
1.34979e-08
1.44353e-08
-5.25489e-09
-7.75599e-09
8.7596e-09
8.38844e-09
-6.06967e-09
-7.42399e-09
-2.13278e-09
9.84332e-09
-6.61502e-09
3.43726e-09
-6.07087e-09
7.44943e-09
-6.63346e-09
7.26468e-09
-1.07108e-08
9.43551e-09
-2.5899e-09
6.03786e-10
1.15801e-08
-1.3949e-09
-1.98168e-09
5.64293e-09
-4.90224e-09
1.24097e-09
6.45589e-09
-9.27999e-09
-9.71711e-10
6.29413e-09
3.20385e-10
-6.73025e-09
6.02655e-09
-2.68016e-10
6.82766e-09
-7.10197e-09
7.80206e-09
1.64986e-09
-3.15788e-09
7.7469e-09
-7.6045e-09
7.89937e-09
-6.95939e-09
1.41436e-08
6.17727e-10
-5.52527e-09
4.59242e-09
-1.5759e-09
1.11167e-09
7.6814e-09
-2.73555e-10
-2.25866e-08
-9.35619e-09
1.89824e-08
-1.65646e-08
-9.6279e-09
1.6896e-08
-4.72306e-09
-1.5209e-08
3.036e-09
-9.43492e-09
1.18774e-08
1.44536e-08
5.4293e-09
-1.39485e-08
1.05907e-08
-1.27136e-08
1.18175e-08
-9.69474e-09
1.38822e-08
-2.01229e-08
-1.03238e-08
9.90401e-10
3.53558e-09
2.37255e-08
-1.14857e-08
2.70198e-09
8.8791e-09
-1.07967e-08
3.9371e-09
1.46036e-09
5.3992e-09
-9.64402e-10
-7.56443e-09
-2.26792e-09
-1.03899e-08
3.88055e-09
1.04464e-08
-8.21086e-09
-3.14347e-09
-1.42968e-09
-7.29693e-09
1.26071e-08
-3.19557e-09
-4.9805e-09
6.74636e-09
-6.58952e-09
4.8543e-09
-5.76936e-10
-6.95243e-09
-3.50962e-11
5.86522e-09
-3.35668e-10
5.41051e-09
2.01773e-09
-8.83768e-09
1.03264e-08
-3.84995e-09
2.89333e-10
-8.34385e-09
-1.56374e-10
9.72945e-09
8.86184e-10
2.76618e-12
2.42971e-09
1.75393e-09
3.23241e-09
-2.96612e-09
-5.49114e-09
-9.29225e-09
1.94409e-09
-9.19296e-09
1.53329e-09
5.44935e-09
-9.21209e-09
-2.1224e-10
3.97499e-09
-8.24547e-10
1.00141e-08
-3.74022e-09
1.13538e-08
-6.12054e-09
-2.52558e-09
-2.70768e-09
4.08575e-09
-5.1834e-09
-3.3549e-09
7.71376e-09
-8.14204e-09
2.74638e-09
-4.28027e-09
-6.44849e-09
6.93049e-09
3.79824e-09
-6.33867e-09
1.46066e-09
5.9773e-10
5.09704e-09
-7.42699e-09
-4.00874e-09
-1.06439e-09
-2.87101e-10
-4.38643e-09
-7.8699e-09
-8.65183e-09
1.97042e-09
5.1052e-09
3.54748e-09
-3.09009e-09
-8.76792e-10
-1.42007e-09
-9.08691e-09
-5.65064e-09
-5.5268e-09
7.41576e-09
-6.13089e-09
-4.12239e-11
-1.24366e-09
1.42623e-09
3.63282e-09
-1.00923e-09
1.07209e-08
-7.2517e-09
-2.46003e-09
-4.61279e-09
-2.52736e-09
-7.43658e-09
6.9476e-09
-5.91204e-09
-1.09529e-09
-9.73478e-09
1.30191e-08
-3.15955e-09
8.72217e-09
-1.28143e-08
-3.04134e-09
2.06118e-09
-3.6326e-09
2.63636e-09
2.67176e-09
-4.84578e-09
-5.52015e-09
-2.79309e-09
-2.81388e-09
-1.03699e-09
-5.02331e-09
3.64598e-09
-5.30537e-09
1.08203e-08
-9.16091e-09
1.1007e-08
-1.84938e-09
-5.51168e-09
-6.82156e-12
5.0002e-09
5.41407e-09
-1.04075e-08
6.89816e-09
-1.22104e-08
-9.44829e-09
7.27581e-09
1.31795e-08
-1.50054e-09
2.87255e-09
1.03076e-08
3.54723e-09
-6.9567e-09
7.349e-09
-4.1982e-09
7.51132e-09
1.29572e-09
-1.19267e-08
6.01037e-09
-1.42601e-09
7.34232e-09
-9.74659e-09
-8.3654e-10
-1.34361e-09
4.51104e-09
-8.84357e-09
1.24161e-08
-4.35789e-09
8.73056e-09
-2.2181e-09
4.3982e-09
1.03427e-08
4.13267e-09
-5.37194e-09
8.75058e-09
1.58067e-08
5.61817e-09
-2.35166e-08
2.93022e-09
1.2805e-08
7.7813e-09
-7.52052e-09
5.34068e-09
-2.13368e-08
1.86311e-08
-1.30415e-08
1.13845e-09
-6.72804e-09
1.18167e-08
9.74457e-09
-1.56406e-09
1.20949e-08
-8.83143e-10
-5.87123e-09
8.47706e-09
1.64228e-08
2.57682e-09
7.87475e-09
-1.20156e-08
8.11482e-09
4.81806e-09
-1.03561e-08
-1.09576e-08
3.8198e-09
1.89545e-08
1.46574e-08
-9.24392e-09
-4.27507e-09
-5.56706e-09
9.26684e-09
-2.80466e-09
1.31202e-08
-2.20082e-09
-4.17384e-09
9.90482e-09
-5.96995e-09
-6.42925e-09
1.87261e-08
4.14408e-09
3.40904e-09
7.61958e-09
1.00563e-08
-9.05457e-09
-5.67116e-10
-4.34542e-10
-1.67331e-09
7.26351e-10
1.10033e-08
4.02857e-09
-8.49487e-09
-4.58824e-09
6.5479e-09
-2.65519e-09
1.35877e-10
1.15921e-08
-1.04538e-08
-1.70524e-09
-3.07426e-10
1.02262e-08
-5.89348e-09
-6.59787e-09
-2.20442e-09
1.46958e-08
6.05403e-10
3.70173e-10
-9.47041e-09
-3.62193e-10
7.63646e-09
1.05313e-09
-1.09015e-08
-1.15266e-08
9.59887e-09
1.62033e-09
-9.5722e-09
-7.84787e-09
5.3328e-09
7.83543e-10
-5.74615e-09
2.72592e-09
-4.83032e-11
6.22735e-09
-7.28707e-09
-5.53814e-09
8.50706e-09
4.46232e-10
-2.27239e-10
-8.29183e-09
-6.73077e-09
9.96124e-09
-1.81637e-09
2.77078e-09
6.8696e-09
8.40094e-09
-1.80414e-08
1.19199e-08
1.07481e-08
-1.98973e-08
1.2984e-08
-1.48667e-08
6.01615e-09
-4.13348e-09
3.11167e-09
1.25034e-08
-2.63103e-09
-1.31166e-08
7.14421e-09
1.2842e-08
-9.84787e-10
-9.02017e-09
-5.36061e-10
2.14551e-09
-1.64011e-08
1.47917e-08
1.14815e-08
4.85786e-10
-1.40507e-08
1.81198e-08
7.8508e-09
2.81874e-09
-8.77854e-09
1.61446e-08
2.48108e-09
6.66225e-09
5.98147e-09
-1.26229e-08
-2.07756e-11
6.75917e-09
6.05518e-09
-6.15209e-09
2.85446e-09
4.45109e-09
-1.32408e-09
7.64032e-09
1.97333e-09
4.81063e-09
1.15748e-09
8.70729e-11
5.13193e-09
7.31903e-09
-9.98982e-09
-5.8976e-09
2.22531e-09
1.36621e-08
-2.70985e-09
-2.82889e-09
4.24169e-09
9.11283e-09
-5.8022e-09
-7.55231e-09
5.26327e-09
1.359e-10
-1.19284e-08
-9.95038e-10
7.02582e-09
-7.71156e-09
-6.92666e-09
-3.05463e-09
1.04119e-08
-3.42568e-09
5.63432e-09
4.69212e-09
-1.58625e-08
1.49262e-08
-1.68508e-09
2.62143e-09
-1.90088e-08
3.0858e-09
6.04111e-11
-4.68505e-10
1.66402e-08
-8.54149e-10
-1.53175e-08
1.32597e-08
3.52265e-09
-1.32617e-08
-3.52071e-09
1.51762e-08
1.1534e-09
-3.06991e-09
-1.48272e-08
-4.89111e-09
1.12446e-08
8.47379e-09
-1.80392e-08
8.27515e-09
-5.06318e-09
-2.24493e-08
7.69709e-09
9.8611e-09
-1.0173e-11
-1.8037e-08
-4.40217e-09
1.5507e-08
-1.04931e-09
-3.90445e-10
3.90149e-09
1.31292e-08
7.25705e-09
8.53154e-09
-6.12376e-10
-1.45267e-08
-1.48909e-08
9.28854e-09
1.68469e-08
6.41335e-10
1.25979e-08
1.68984e-08
-2.17993e-08
3.09855e-09
1.2018e-08
3.8748e-09
8.55821e-09
1.35548e-09
1.4341e-08
1.45188e-08
-2.72252e-09
4.95438e-09
2.90237e-10
-2.52208e-09
6.14509e-09
-2.51236e-09
-6.35524e-09
-3.88713e-09
5.07701e-09
3.76453e-09
2.18091e-09
7.70376e-11
4.3471e-09
-6.8027e-09
6.91156e-09
-4.45596e-09
6.25201e-09
2.76013e-10
6.24998e-10
-9.94006e-09
3.48258e-09
-6.85237e-10
4.11426e-09
2.41546e-09
7.31915e-09
3.01169e-09
9.19262e-09
-1.15792e-08
7.59317e-09
-4.2912e-09
-3.85798e-09
-7.12769e-09
8.91978e-10
1.00938e-08
-3.20439e-09
-3.69119e-09
3.0378e-09
-2.7389e-09
8.38445e-09
4.81621e-09
-1.00911e-08
7.5889e-09
3.41787e-09
-9.1585e-10
-7.30651e-09
-1.0154e-08
7.36934e-09
9.9562e-10
2.76528e-09
-1.33995e-09
1.10091e-08
-2.08034e-09
-8.02826e-09
9.31347e-09
-2.62521e-09
8.26844e-10
-2.92233e-09
-1.79242e-09
-7.56636e-09
8.53706e-09
-3.98786e-09
3.01714e-09
-7.05544e-09
-3.94047e-09
2.18223e-09
1.27672e-08
6.90622e-09
1.07079e-08
-4.87855e-09
1.09005e-09
1.37036e-08
1.08766e-08
-7.60433e-09
-5.20793e-09
-2.30502e-09
9.16273e-09
-4.80812e-09
-7.95007e-11
5.45222e-10
-3.96926e-09
-1.47821e-09
-4.6684e-09
5.57408e-09
-3.60525e-10
2.62706e-09
5.97777e-09
-9.87756e-09
1.27275e-09
-2.30817e-09
1.72551e-09
-6.06001e-09
6.64279e-09
-7.43027e-10
-5.5345e-09
2.09624e-09
-7.5077e-09
1.29153e-09
-5.25596e-10
-5.77343e-09
6.09544e-09
5.86878e-09
-5.8938e-09
2.12126e-09
1.38688e-09
3.5266e-10
-2.70502e-09
-8.05513e-09
-6.84486e-09
-1.78699e-09
8.98451e-09
-6.68112e-09
6.67471e-09
1.55909e-09
6.62369e-10
5.26672e-11
-9.31394e-09
6.55623e-09
5.88737e-09
3.23396e-09
8.69675e-09
1.00712e-08
4.85752e-10
2.21015e-09
-6.47253e-09
9.88898e-09
6.65463e-09
-8.46798e-09
8.17226e-09
-8.72674e-09
9.02243e-09
5.57778e-09
-1.4009e-08
-3.68748e-11
-1.15477e-08
1.60098e-08
3.71014e-09
-7.74391e-09
1.77397e-09
1.96443e-09
9.76208e-09
2.42588e-09
1.97813e-09
7.72057e-09
-1.058e-08
-1.11496e-08
1.41968e-09
-3.2224e-09
6.5611e-09
-1.07217e-08
-2.88505e-09
6.242e-11
-5.02998e-10
-4.32202e-09
4.76257e-09
6.72062e-09
-6.31662e-09
-3.41588e-10
6.95267e-09
-2.44668e-09
3.12379e-09
6.33386e-09
2.09e-10
-1.43616e-09
-5.10673e-09
-6.74698e-09
1.15337e-08
2.16591e-09
-8.93258e-09
1.14391e-09
1.04161e-09
-2.50828e-09
5.45777e-10
1.99427e-09
-3.07035e-09
-2.71196e-09
5.78298e-10
-4.71844e-09
6.85207e-09
5.37963e-09
-3.01056e-09
4.46482e-09
-6.83394e-09
5.71711e-09
7.33737e-09
2.42817e-09
4.09532e-09
8.78778e-09
-8.7835e-09
1.02755e-08
-2.61417e-09
-7.08307e-09
-2.13707e-09
-5.10834e-09
-1.14707e-09
8.39247e-09
-3.01206e-09
-5.34449e-09
6.21947e-09
-3.01728e-10
-1.29737e-08
1.02633e-08
3.23714e-09
-1.60254e-08
1.24865e-08
-4.93219e-09
-5.53737e-09
5.3612e-09
6.69045e-10
-5.58202e-09
-1.92287e-11
-8.02604e-09
1.01161e-08
-4.91187e-09
2.36418e-10
2.59812e-09
-7.00163e-09
-1.16219e-08
-8.24745e-09
-2.1281e-09
-8.83403e-10
-8.45901e-09
1.09494e-09
-5.66513e-09
-1.30133e-10
1.05684e-08
-9.12427e-09
-7.02612e-09
4.88549e-10
4.54243e-09
-5.16384e-10
2.45781e-09
1.44265e-09
-7.62417e-09
-1.30808e-08
5.54329e-09
2.78675e-09
-1.04684e-08
-9.44939e-09
-8.44633e-10
8.20679e-10
-1.42139e-10
-7.49962e-09
6.82112e-09
-2.54662e-10
4.84032e-09
-4.44551e-11
-4.54117e-09
-7.95663e-09
-7.86793e-09
7.91629e-09
7.90833e-09
-1.29841e-08
5.10594e-09
-7.84525e-11
-3.92517e-09
-6.69216e-09
9.8897e-09
-7.17773e-09
7.05689e-09
-1.33797e-10
4.62688e-09
-9.73408e-09
9.94753e-09
6.7313e-09
1.29889e-09
-1.12365e-08
3.20631e-09
6.47477e-09
-1.27276e-08
-1.82155e-10
-1.21098e-09
6.23139e-09
4.89656e-09
-6.02201e-09
9.7705e-10
1.31706e-08
5.87308e-09
-8.49934e-09
-7.72454e-09
1.33285e-08
-8.02323e-09
1.11937e-09
-2.33232e-09
3.62668e-09
-4.57316e-09
4.74797e-09
-3.80151e-09
4.00013e-09
-4.5302e-10
7.95358e-11
-3.14438e-09
3.41274e-10
3.92356e-09
-1.12061e-09
3.38339e-09
8.07049e-10
-7.33486e-09
3.88857e-09
-1.63922e-10
-8.74474e-09
4.97863e-09
6.02939e-09
-8.95236e-10
-3.86161e-10
4.85152e-09
5.178e-09
3.58572e-09
-1.50208e-10
7.26481e-10
1.16482e-08
-7.52316e-09
-6.60256e-09
-4.00902e-09
1.1338e-08
1.70597e-10
-7.7792e-09
1.14325e-08
-3.82393e-09
-4.51365e-09
-1.91836e-09
-7.14318e-09
4.91649e-10
5.75633e-09
5.454e-09
-6.04414e-09
5.03069e-09
5.44642e-09
8.74179e-10
5.01746e-09
7.44459e-09
9.65002e-09
-6.63101e-09
-3.49441e-09
1.30777e-08
-2.95231e-09
-5.83744e-09
7.63157e-09
-8.42518e-09
-9.01374e-09
-7.93635e-10
1.90742e-08
-9.33415e-09
-4.90997e-09
5.23034e-09
-1.00681e-08
-7.41039e-09
4.17489e-09
3.99279e-09
1.27398e-09
3.00464e-09
-1.16183e-08
7.08684e-09
-7.65574e-09
1.21871e-08
-1.43314e-08
6.12214e-09
-5.95362e-09
1.22468e-08
-8.40016e-09
6.62142e-09
3.89061e-10
-1.15767e-09
1.05304e-08
-9.72658e-09
6.57211e-09
-1.03732e-08
-6.9458e-10
3.79451e-09
-8.20651e-09
-8.47417e-09
1.28861e-08
-7.194e-09
-4.145e-09
1.51334e-08
-4.78125e-09
-7.00985e-09
4.59708e-09
-1.27275e-08
-2.6024e-10
-1.717e-08
2.24277e-09
1.28398e-08
2.0873e-09
-1.49321e-08
-2.71373e-09
4.75665e-10
-1.56743e-08
3.99558e-09
-1.25691e-08
-1.80372e-08
-6.13817e-09
-9.37641e-09
1.13695e-08
-4.90862e-09
-1.45993e-08
1.10337e-08
-1.53151e-08
4.26826e-09
-1.49177e-08
-1.39216e-09
1.71052e-09
7.78176e-09
-1.43409e-08
-8.35864e-09
-9.55118e-09
2.4556e-09
8.57229e-11
1.21869e-08
-2.5757e-10
-1.46432e-08
-9.40998e-09
2.48914e-09
-9.58583e-09
2.05245e-09
-2.922e-09
-1.09433e-08
-9.70715e-09
-9.2887e-09
-1.28868e-08
3.72343e-09
1.50443e-09
-1.48711e-08
9.64322e-09
1.77513e-09
1.0851e-08
-8.90268e-09
-4.21693e-09
9.67665e-09
-3.68462e-09
7.86965e-09
-1.05821e-08
1.18659e-08
-5.36814e-09
4.35317e-09
-1.08326e-08
4.19226e-09
1.42377e-08
-7.59731e-09
-1.01098e-09
-1.16463e-08
1.82458e-09
-8.65654e-09
-1.12939e-08
8.9454e-09
1.1005e-08
-1.0728e-08
1.06047e-09
7.14441e-09
-2.15466e-08
1.84026e-09
9.3924e-10
1.0753e-08
-2.01565e-09
8.66901e-09
1.39857e-10
-7.28353e-10
1.23908e-08
2.0345e-10
1.31734e-08
-1.31484e-08
1.15118e-09
-5.72476e-09
2.74747e-09
-4.66848e-09
1.78061e-08
-1.25702e-09
-1.02946e-08
2.55356e-09
8.99804e-09
7.81839e-09
-6.36905e-09
3.67206e-10
-1.8166e-09
6.07875e-10
5.9535e-09
9.40897e-09
-5.79321e-09
5.78974e-09
-9.40553e-09
9.16759e-10
3.99861e-09
4.49357e-09
4.45753e-09
-2.39116e-09
-7.8596e-09
-1.93472e-10
4.84711e-09
-1.96138e-10
-4.76804e-09
-1.25847e-09
-4.26812e-09
-4.11596e-09
-7.02112e-09
-9.57325e-09
5.02242e-09
5.46758e-09