/*--------------------------------*- C++ -*----------------------------------*\
| =========                 |                                                 |
| \\      /  F ield         | OpenFOAM: The Open Source CFD Toolbox           |
|  \\    /   O peration     | Version:  v1612+                                |
|   \\  /    A nd           | Web:      www.OpenFOAM.com                      |
|    \\/     M anipulation  |                                                 |
\*---------------------------------------------------------------------------*/
FoamFile
{
    version     2.0;
    format      ascii;
    class       volVectorField;
    location    "150";
    object      wallShearStress;
}
// * * * * * * * * * * * * * * * * * * * * * * * * * * * * * * * * * * * * * //

dimensions      [0 2 -2 0 0 0 0];

internalField   uniform (0 0 0);

boundaryField
{
    WALL
    {
        type            calculated;
        value           nonuniform List<vector> 
54650
(
(-0.0205533 -0.00319547 0.00740745)
(0.0137692 0.00581154 0.00659995)
(-0.0241764 -0.00193715 0.0100999)
(0.0122823 0.00484931 0.0063107)
(0.00277965 -0.0146088 0.00510226)
(0.0020881 -0.0120888 0.00477115)
(-0.00316671 0.000638032 -0.00292731)
(-0.00419519 -0.00183327 -0.00267496)
(0.00289293 -0.00997412 0.00739728)
(0.00145481 -0.0113322 0.00859737)
(0.0143097 0.0042104 0.00674313)
(0.0142806 0.00415387 0.00706007)
(0.0128625 -0.0056573 0.0135029)
(0.0113444 -0.00668605 0.011003)
(0.00187281 -0.0138472 0.00559952)
(-0.0041242 -0.0185258 0.00690506)
(-0.00447455 -0.018267 0.00747028)
(-0.00848527 -0.015033 -0.0142646)
(-0.0111789 -0.0146736 -0.0147645)
(-0.0202128 -0.0222647 0.0135041)
(-0.0183573 -0.0205047 0.0146291)
(-0.00502583 -0.0151193 0.0111505)
(-0.00646772 -0.0138417 0.0120965)
(0.0101494 0.00674424 0.0252644)
(0.0101754 0.00169967 0.0261109)
(0.0199035 0.00585649 0.0129803)
(0.0199305 0.00579306 0.0131507)
(0.0138499 -0.0222136 -0.00208721)
(0.0160324 -0.0215381 -0.00175356)
(0.00221903 -0.0128115 0.00465474)
(0.0023671 -0.0129347 0.00492611)
(0.0131248 -0.000711957 0.00300378)
(0.0130634 -0.000215563 0.00301418)
(-0.0180748 -0.00836405 -0.0186542)
(-0.0177769 -0.00953342 -0.0185778)
(0.00194188 -0.011577 0.00422317)
(0.00174297 -0.011176 0.00422605)
(-0.0238798 -0.0161729 0.00519244)
(-0.0258506 -0.0159148 0.00644916)
(0.0169362 -0.0118145 0.00083936)
(0.0222113 -0.000398725 -0.0285596)
(0.0222432 -0.00481512 -0.0361727)
(-0.0223423 -0.007461 -0.00745813)
(-0.0214119 -0.00734707 -0.00796546)
(-0.0231028 -0.0153356 0.00249816)
(-0.0232059 -0.0150825 0.00255092)
(0.00376493 -0.00477924 0.0113539)
(0.00400632 -0.00473074 0.0119571)
(-0.00156286 -0.0062737 0.0075415)
(0.00105224 -0.00560844 0.00933187)
(-0.00565939 -0.0069052 0.00754159)
(-0.00500416 -0.00712714 0.00753377)
(-0.00482747 -0.00813776 0.00461093)
(-0.00354675 -0.00927953 0.00483588)
(-0.00141009 -0.0147395 0.00897914)
(-0.00116104 -0.0152922 0.00940799)
(0.000485106 -0.0120186 0.00731474)
(0.000886691 -0.0108771 0.00630502)
(-0.000672566 -0.0128084 0.00771088)
(-0.000687716 -0.0126385 0.00822702)
(0.00155472 -0.0100146 0.00383778)
(0.00202628 -0.0120747 0.00456282)
(0.00216613 -0.01174 0.00418331)
(0.00226239 -0.0131576 0.00499511)
(0.00211727 -0.0128147 0.00481339)
(0.00803985 0.00413185 0.00821548)
(0.00704692 0.00295589 0.00727252)
(-0.00488948 -0.0195874 -0.0162844)
(-0.0020707 -0.018658 -0.0162712)
(0.037783 -0.00686706 -0.0432111)
(0.0368821 -0.0109571 -0.0395547)
(-0.00678804 -0.016342 -0.000145291)
(-0.00665552 -0.0158639 -0.000218451)
(-0.00608183 -0.0156616 -0.00110074)
(-0.00529098 -0.0142958 -0.000714693)
(0.00570523 -0.00258317 0.00994194)
(0.00662563 -0.00218226 0.0123559)
(0.0136344 0.00513999 0.0214872)
(0.0133357 0.00343505 0.0214694)
(0.0132486 0.000219148 0.00594063)
(0.0140436 0.000854464 0.00580045)
(0.0171322 0.00833662 0.00599421)
(0.0176956 0.00894331 0.0065374)
(0.00684535 0.00186913 0.00677592)
(0.00713487 0.00229182 0.00697892)
(0.0163071 0.00425511 0.0208254)
(0.0170288 0.00552285 0.0215421)
(0.017576 0.0102595 0.0162326)
(0.0181351 0.00997787 0.0163256)
(0.0110913 -9.68644e-05 0.00477016)
(0.0114824 -0.000377515 0.00521521)
(0.00244055 -0.0148151 0.00561135)
(0.00254342 -0.0148103 0.00535958)
(0.00246659 -0.0135551 0.00498107)
(0.00218189 -0.0136119 0.00536465)
(0.00232709 -0.0142923 0.00522566)
(0.00234236 -0.0143809 0.00531382)
(0.00296433 -0.0168663 0.00605644)
(0.00284355 -0.0166106 0.00593966)
(0.00189313 -0.0110746 0.00404467)
(0.00210159 -0.0114978 0.00418838)
(0.00217225 -0.0121827 0.00509426)
(0.00189613 -0.0129514 0.00469729)
(0.00139178 -0.0102904 0.00628209)
(0.00144863 -0.0101853 0.00558325)
(-0.00128811 -0.0117052 0.00267281)
(-0.00151412 -0.0123988 0.002903)
(0.00688901 -0.0080736 0.0033066)
(0.00685486 -0.00803091 0.00358138)
(0.00626196 -0.00619636 0.00607664)
(0.00591192 -0.00694029 0.00615082)
(0.00330148 -0.00894285 0.00734469)
(0.00280154 -0.0102521 0.00801663)
(0.0147046 -0.0233791 0.00115127)
(0.0136135 -0.0248625 0.000108406)
(0.0092147 -0.0256953 0.0153465)
(0.00884755 -0.0241364 -0.00335381)
(0.00686468 -0.0216132 -0.00188871)
(0.0120419 0.00166784 0.00883883)
(0.0128415 0.00125571 0.0091934)
(0.0155835 0.00724372 0.00894923)
(0.0152605 0.00563644 0.00969819)
(0.0164841 0.0122137 0.008517)
(0.0158146 0.0104476 0.0074432)
(0.0142618 0.0039413 0.010279)
(0.0141114 0.00284708 0.00878484)
(0.00229439 -0.011979 0.00741012)
(0.00333214 -0.0121564 0.00706823)
(0.00133689 -0.0126488 0.00791814)
(0.000679006 -0.0116814 0.00817462)
(0.00689921 -0.00791976 0.00733397)
(0.00868485 -0.00698484 0.00863522)
(-0.00558809 -0.00945742 0.0150353)
(-0.00598002 -0.00908554 0.0170822)
(-0.000537353 -0.0183391 0.00630434)
(-0.000574948 -0.0174672 0.00602524)
(-0.0102739 -0.00475544 -0.0071918)
(-0.00932968 -0.00469298 -0.00574627)
(-0.00252313 -0.0140561 0.0194653)
(-0.00550913 -0.014439 0.0202801)
(0.00769026 -0.0121043 -0.0106296)
(0.00682803 -0.0119503 -0.0110737)
(0.00788172 -0.0107753 -0.0122949)
(0.00762651 -0.0112724 -0.0135241)
(-0.00351142 -0.0131701 -0.0119618)
(-0.00368855 -0.0133851 -0.0121576)
(-0.0238882 -0.0115106 -0.00930277)
(-0.0250135 -0.0114283 -0.00898672)
(-0.00855565 -0.00974911 0.0015041)
(-0.00993404 -0.0117446 0.00407056)
(-0.0178666 -0.0122157 0.0135822)
(-0.0177605 -0.011468 0.0148814)
(-0.0066227 -0.0179703 0.00729982)
(-0.00513618 -0.0181497 0.00755229)
(-0.00536922 -0.0148658 -0.000821964)
(-0.00542266 -0.0150523 -0.00102092)
(-0.00590978 -0.0158289 -0.00134023)
(-0.00585096 -0.0166243 -0.00156764)
(-0.00550207 -0.0238585 0.0040133)
(-0.00765528 -0.0255099 0.00349143)
(0.00161767 -0.0124584 -0.0120118)
(0.0029559 -0.0116042 -0.0112674)
(0.00549848 -0.0118213 -0.0137636)
(0.00677675 -0.0119027 -0.0134893)
(0.00337712 -0.018373 0.00680434)
(0.00290877 -0.0177797 0.00658905)
(-0.0209917 -0.0180756 0.011695)
(-0.0224587 -0.0174154 0.0139204)
(-0.0153834 -0.00684382 0.00237438)
(-0.0152379 -0.00617171 0.00412957)
(-0.000114997 -0.00890036 0.012176)
(0.00202257 -0.00983729 0.0110719)
(0.00189845 -0.0117384 0.0044104)
(0.00250463 -0.0104988 0.00450357)
(0.00255 -0.0101882 0.00461614)
(0.0121716 -0.000910802 0.00558925)
(0.0117049 -0.00103202 0.00457802)
(0.00600681 -0.0108656 -0.00425965)
(0.00446483 -0.0095576 -0.00291301)
(0.00276349 -0.0167007 0.00593337)
(0.00284817 -0.0165465 0.00593476)
(-0.00435139 -0.0156155 -0.00457935)
(-0.00431874 -0.0168488 -0.0047305)
(-0.000544847 -0.0161523 0.00886643)
(-0.000872747 -0.0181407 0.00880107)
(-0.0040755 -0.0156988 0.0108838)
(-0.00556467 -0.0153921 0.0113773)
(0.0070992 -0.00723284 0.00826302)
(0.00715663 -0.00698186 0.00878685)
(0.0153129 1.49012e-05 0.0088906)
(0.0144867 0.00184961 0.00727349)
(0.000174351 -0.00846504 0.00676141)
(0.000537396 -0.00913144 0.0063455)
(0.00203867 -0.0127264 0.00477942)
(0.00227079 -0.0130343 0.00470454)
(0.00732876 -0.00261495 0.00825101)
(0.00665197 -0.00264758 0.0076182)
(0.00381159 -0.0180513 -0.0151027)
(0.00584888 -0.0186177 -0.0162977)
(-0.00681323 -0.00421511 0.0100848)
(-0.00674832 -0.00509869 0.0092791)
(-0.0108261 -0.00277316 0.00916108)
(-0.00953751 -0.00288168 0.00923018)
(0.00299884 0.00359989 0.0149596)
(0.00243231 0.00356281 0.012725)
(0.00731942 -0.00346459 0.00671738)
(0.00767935 -0.00307365 0.00581118)
(0.0148541 -0.0223787 0.0122137)
(0.0139817 -0.0225748 0.0132299)
(0.00347835 -0.00884913 0.00731421)
(0.00272747 -0.00978644 0.00765921)
(0.0102728 -0.0187408 -0.0171489)
(0.0116089 -0.0191798 -0.0178367)
(0.0349633 -0.00828394 -0.0468286)
(0.0378821 -0.00625089 -0.0449112)
(0.0237773 0.00268188 0.013929)
(0.023728 0.00232983 0.0132856)
(0.00841327 -0.00161793 0.00730345)
(0.00804377 -0.00121596 0.00725039)
(0.00826322 -0.00200246 0.00736347)
(0.00822146 -0.00232362 0.00737274)
(0.0137799 0.0105193 0.00790718)
(0.0121224 0.00731178 0.00798688)
(0.0167899 0.0111235 0.00868708)
(0.0194667 0.0116089 0.0091677)
(0.0237634 0.00862458 0.00958386)
(0.0237676 0.0093164 0.00980845)
(0.0200656 0.0118067 0.00917255)
(0.0180277 0.0113864 0.00958156)
(0.0195555 0.0107894 0.0180484)
(0.0177698 0.0113721 0.0172704)
(0.0120686 -0.00198192 0.00306478)
(0.0123047 -0.00238689 0.003212)
(0.00201791 -0.0132609 0.00491356)
(0.00219557 -0.0130403 0.00476369)
(0.00500934 -0.0268563 0.0104799)
(0.00579869 -0.0285794 0.0107819)
(0.00215955 -0.0127312 0.00474653)
(0.00197358 -0.0127671 0.00508615)
(0.00313745 -0.0239847 0.0140242)
(0.000894777 -0.0231097 0.0140762)
(0.00168895 -0.0102113 0.00771218)
(0.000843095 -0.0118657 0.00925348)
(0.0197468 -0.019814 0.0104869)
(0.0179765 -0.021415 0.0131293)
(0.00178 -0.000603799 0.0130591)
(0.00283528 -0.000642014 0.0149092)
(0.0135328 -0.0091319 0.000338772)
(0.0145609 -0.00805358 -0.00090636)
(0.015836 0.000854764 0.00787153)
(0.0165148 0.00139082 0.00896015)
(0.0174045 -0.00886739 -0.00413154)
(0.0171235 -0.00795221 -0.00360301)
(0.0193093 0.00895381 0.0157682)
(0.0206578 0.0108921 0.0176582)
(0.0153172 0.00813428 0.00548476)
(0.0145086 0.00745223 0.00510985)
(0.00740924 -0.00277656 0.00659565)
(0.00842434 -0.00191434 0.00739674)
(0.00819222 -0.00265128 0.00869352)
(0.00919397 -0.00112284 0.00945174)
(0.00706281 -0.00376215 0.00673111)
(0.00747145 -0.00302034 0.00735059)
(0.00148835 -0.00896414 0.00614908)
(0.00121067 -0.00938394 0.00630734)
(-0.000765248 -0.00796194 0.00893824)
(-0.000870849 -0.00698659 0.00958434)
(0.00643568 -0.00850567 0.0110283)
(0.00670128 -0.00796834 0.0107475)
(0.00203121 -0.00788808 0.0116895)
(0.00176898 -0.0084395 0.012076)
(-0.00262939 -0.0146285 -0.012119)
(-0.00321046 -0.014607 -0.0121792)
(0.00117732 -0.0128435 -0.0114957)
(0.00274878 -0.0115376 -0.00995332)
(-0.00431952 -0.0166601 0.0130149)
(-0.00341121 -0.0156058 0.0133767)
(-0.00398663 -0.0169867 0.0100012)
(-0.00397975 -0.0167321 0.0110147)
(-0.0175553 -0.0174103 0.0108548)
(-0.0170326 -0.0168732 0.0101211)
(-0.00549383 -0.0149725 0.0151728)
(-0.00402796 -0.0150543 0.0142117)
(-0.00443887 -0.0155638 0.017118)
(-0.00122369 -0.0152127 0.0164562)
(0.0030522 -0.0195131 0.00375813)
(0.00235498 -0.0177908 0.00496286)
(-0.009013 -0.0205642 -0.00123232)
(-0.00850387 -0.0196114 -0.00167452)
(-0.00906753 -0.0277415 -0.00348662)
(-0.0085076 -0.0296222 -0.00418472)
(-0.00579579 -0.0157323 -0.000469796)
(-0.00564905 -0.0155062 -0.00042492)
(0.00495655 -0.0163266 -0.00792211)
(0.00335382 -0.0147836 -0.00866762)
(-0.00483134 0.0100047 0.0164441)
(-0.00496742 0.0115474 0.0187593)
(0.0200246 -0.00596208 0.019206)
(0.0200351 -0.00331014 0.0202401)
(0.00175861 -0.0115476 0.00415212)
(0.00180085 -0.0121895 0.00446236)
(0.00171959 -0.0111383 0.0043274)
(0.00205712 -0.0117604 0.00439833)
(0.00172441 -0.0104263 0.004155)
(0.00172996 -0.0105242 0.00422466)
(0.00487239 -0.0163713 -0.0139785)
(0.000849912 -0.0133149 -0.00985518)
(0.0098356 -0.0139958 -0.010491)
(0.00697521 -0.0148965 -0.0120177)
(0.0147317 -0.0216069 -0.0269079)
(0.0237115 -0.0211071 -0.0287541)
(0.0117691 -0.00180608 0.00393087)
(0.0122843 -0.0017338 0.00350623)
(0.00166067 -0.0100021 0.00400357)
(0.00182882 -0.00983829 0.00378893)
(0.00209957 -0.012745 0.00484721)
(0.00203315 -0.0124453 0.00458865)
(0.00228993 -0.0135054 0.00510864)
(0.00233392 -0.0146047 0.00516134)
(0.00208279 -0.0117164 0.00427164)
(0.00206711 -0.0118529 0.00440151)
(0.00187302 -0.0120456 0.00461051)
(0.00220726 -0.0119909 0.00437013)
(0.00185292 -0.0115067 0.00397585)
(0.00179871 -0.0114249 0.0039387)
(0.00212426 -0.0116622 0.00421094)
(0.00208945 -0.0118523 0.00416453)
(0.00184611 -0.0110701 0.0041433)
(0.00144241 -0.0111612 0.00413704)
(0.00206234 -0.0116345 0.00429555)
(0.00192228 -0.0110981 0.00417259)
(0.00185732 -0.0115177 0.00432215)
(0.00193962 -0.0118484 0.00453446)
(-7.97865e-05 -0.00909181 0.00291486)
(1.08157e-05 -0.00869026 0.00318673)
(4.39778e-05 -0.00903052 0.00288829)
(5.67831e-05 -0.00903544 0.00307091)
(-0.000150035 -0.00909856 0.0032081)
(-0.000106584 -0.00899118 0.00321516)
(-0.00398563 -0.0240986 0.00474321)
(-0.00513844 -0.0235503 0.00527)
(0.00902725 0.00138574 0.00549055)
(0.00888062 0.00180894 0.00533301)
(0.0119278 0.00372774 0.00853182)
(0.0125781 0.00484357 0.00877615)
(0.00729449 0.00199429 0.00456597)
(0.00742747 0.00249701 0.0050322)
(0.0144899 0.00910873 0.0206541)
(0.016791 0.00742796 0.0223071)
(0.000997866 -0.00908182 0.0121433)
(0.000884316 -0.0096825 0.0110504)
(0.00105867 -0.00919806 0.0106219)
(0.000791721 -0.00965776 0.0103728)
(0.00164151 -0.00946233 0.0085631)
(0.00258848 -0.00937627 0.00832029)
(0.0113313 0.00100781 0.0218076)
(0.0143664 0.00114289 0.022974)
(0.0151918 -0.0063866 0.0139689)
(0.0159608 -0.00392598 0.0160017)
(0.000115928 -0.00862793 0.00906173)
(0.00171839 -0.00928551 0.00821374)
(0.00261376 -0.0106297 0.0137534)
(0.00214595 -0.0104044 0.0134478)
(0.0105332 -0.00288714 0.0172018)
(0.0120914 -0.00298695 0.0170573)
(-0.000993425 -0.00818958 0.0107683)
(-0.00134241 -0.00765684 0.0121528)
(-0.00162592 -0.00541007 0.0146573)
(-0.00111446 -0.00468863 0.0176032)
(0.0108698 -0.00658161 0.0118888)
(0.00955603 -0.00740756 0.00964946)
(0.0170699 -0.00243972 0.019024)
(0.0175441 -0.00480731 0.0175299)
(-0.00252349 -0.0174835 0.010197)
(-0.00218799 -0.0177845 0.00963405)
(-0.0220835 -0.00954833 0.00536074)
(-0.0210266 -0.00886782 0.00619219)
(-0.0208786 -0.00220339 0.0108166)
(-0.0196568 -0.00292718 0.0110826)
(-0.021205 -0.00108265 0.00659366)
(-0.0224153 -0.0010734 0.00546572)
(-0.0215549 -0.0117981 0.00890418)
(-0.0217972 -0.0126489 0.0100196)
(-0.00976595 -0.0117112 0.00566095)
(-0.00981399 -0.00961383 0.00533584)
(-0.0105922 -0.00625977 -0.00324576)
(-0.0111795 -0.00621263 -0.00506887)
(-0.0105091 -0.00917689 0.0028869)
(-0.0109587 -0.0105633 0.00256782)
(-0.003317 -0.0104192 0.000926039)
(-0.00322767 -0.0113086 0.00167445)
(-0.00162953 -0.0136985 0.0187525)
(-0.00177521 -0.0152187 0.0172513)
(-0.00289034 -0.0126859 0.0165387)
(-0.00350061 -0.0122732 0.0134719)
(-0.00378867 -0.0121899 0.00129177)
(-0.00382446 -0.013483 0.00313169)
(-0.0218172 -0.0117585 0.00367275)
(-0.0202222 -0.00939479 0.00383974)
(-0.0100362 -0.0138231 0.00301059)
(-0.00928282 -0.0145847 0.00237141)
(-0.00468409 -0.0175456 -0.0022275)
(-0.0044946 -0.0162436 -0.00221612)
(-0.00445441 -0.0107945 -0.000229786)
(-0.00387946 -0.0102443 8.62929e-05)
(-0.00497598 -0.0116223 1.52789e-05)
(-0.00496812 -0.0118255 0.000267322)
(-0.00138371 -0.0100578 -0.00726408)
(-0.00230603 -0.0109532 -0.00777391)
(-0.00409556 -0.0168952 -0.00566978)
(-0.00409357 -0.0150128 -0.00567896)
(0.00295345 -0.0164602 0.0059869)
(0.00273777 -0.015997 0.00592693)
(0.00300808 -0.0171395 0.00643024)
(0.00306043 -0.0171256 0.00636762)
(0.00218845 -0.0131863 0.00484252)
(0.00220127 -0.0139582 0.00505477)
(0.00221585 -0.0126276 0.00481923)
(0.00222737 -0.0127093 0.00463501)
(0.00224438 -0.0138005 0.00541007)
(0.00226785 -0.0135219 0.00518458)
(0.00219887 -0.0136127 0.00501499)
(0.00222783 -0.013419 0.00495737)
(0.00221056 -0.0135917 0.00492874)
(0.00223756 -0.0139136 0.00524982)
(0.00244924 -0.0143481 0.00506929)
(0.00216957 -0.0126052 0.0045065)
(0.00205275 -0.0117322 0.00427282)
(0.00191896 -0.0116094 0.00436886)
(0.00186661 -0.0115331 0.00404414)
(0.00193746 -0.0113751 0.00411214)
(0.0021492 -0.0118844 0.00461302)
(0.00151333 -0.0110435 0.00353562)
(0.00228298 -0.0123039 0.0045534)
(0.00221511 -0.0119998 0.00474355)
(0.00183203 -0.0113164 0.00426076)
(0.00197094 -0.0114792 0.00425433)
(0.00201017 -0.0116343 0.00419526)
(0.00160033 -0.0116885 0.00460962)
(0.00250916 -0.0116785 0.0046573)
(0.00302585 -0.0119633 0.00497957)
(0.0342479 -0.00116818 -0.0334528)
(0.0373071 -0.00302588 -0.0374366)
(-0.00457226 0.0210351 0.0217817)
(-0.00708053 0.0191956 0.0243982)
(-0.00215347 0.00774403 0.020881)
(-0.00146884 0.0083594 0.0202823)
(-0.000561345 0.0144308 0.0294282)
(-0.000623879 0.0122728 0.026956)
(0.00727545 -0.0107738 -0.0162162)
(0.00866201 -0.0110318 -0.0157808)
(0.00320031 -0.013671 -0.0135817)
(0.00324359 -0.0124842 -0.0133999)
(0.00549084 -0.0115561 -0.0140133)
(0.00441636 -0.0116778 -0.0139681)
(0.00619869 -0.0172555 -0.0153455)
(0.00730354 -0.0177391 -0.0144355)
(0.00211242 -0.0159146 -0.0134465)
(0.0031732 -0.0167049 -0.0141084)
(-0.00348763 -0.0161401 -0.0131329)
(-0.00237765 -0.0158658 -0.0138101)
(0.00172883 -0.0136833 -0.0126962)
(0.00304829 -0.0130342 -0.0125986)
(0.00238092 -0.0120861 -0.0120011)
(0.00346478 -0.0110563 -0.0112678)
(0.00499459 -0.0128628 -0.0134111)
(0.00302122 -0.0132937 -0.0137253)
(-0.00498755 -0.0116692 -7.10324e-06)
(-0.00476458 -0.011761 8.71632e-05)
(-0.00523376 -0.0135477 -0.00021859)
(-0.00532622 -0.0139716 -0.000318477)
(-0.00499738 -0.0117891 0.000193214)
(-0.00506249 -0.0120017 0.000158037)
(-0.00503304 -0.0119257 -3.07982e-05)
(-0.0048491 -0.0118549 -2.91998e-05)
(-0.00519827 -0.0154288 -0.00207151)
(-0.00495934 -0.0154608 -0.00222664)
(-0.00478099 -0.0119263 0.000320845)
(-0.00443301 -0.0113694 0.000370318)
(-0.00491664 -0.0119749 9.36214e-05)
(-0.00490637 -0.0122333 3.44808e-05)
(-0.0045564 -0.0100752 -0.000683328)
(-0.00440694 -0.0101207 -0.000446516)
(-0.00592905 -0.0267798 0.00455016)
(-0.0076244 -0.0283726 0.00505927)
(-0.00505659 -0.0135065 -0.00043549)
(-0.00538605 -0.0147491 -0.000586925)
(-0.00483942 -0.0136972 -0.000435519)
(-0.00480479 -0.0126188 -0.000113182)
(-0.00481039 -0.00992374 9.75132e-05)
(-0.00486729 -0.00960577 -4.23583e-06)
(-0.00624896 -0.00986824 -0.00292287)
(-0.00585078 -0.00884768 -0.002773)
(-0.00632517 -0.0232561 0.00308446)
(-0.00705208 -0.0240115 0.00267607)
(-0.00543387 -0.0104758 -0.00110251)
(-0.0053633 -0.0105549 -0.0010613)
(-0.00501858 -0.011209 -0.00100301)
(-0.00439942 -0.0100296 -0.000683452)
(-0.0102714 -0.0119771 0.00126537)
(-0.0101207 -0.0112559 0.00069154)
(-0.0126755 -0.0168422 0.00663054)
(-0.0113409 -0.0141601 0.00455036)
(0.00196137 -0.0179755 0.0109544)
(0.00275306 -0.0168337 0.0121661)
(-0.00409646 -0.0066156 0.000483747)
(-0.0046627 -0.00628827 0.000468842)
(0.000941799 -0.0178722 -0.00727581)
(0.00059435 -0.0178209 -0.00824033)
(-0.0016243 -0.0174686 0.00803784)
(-0.00173477 -0.0173582 0.00720208)
(-0.00859743 -0.00982715 -0.000956105)
(-0.00952055 -0.0101862 3.61748e-05)
(-0.0119108 -0.0144522 0.00277358)
(-0.0114226 -0.0154974 0.00354123)
(-0.00691917 -0.00934162 -0.00292172)
(-0.00662293 -0.00948694 -0.00385744)
(-0.00865365 -0.00867187 -0.00117783)
(-0.00913057 -0.00945181 -0.00166395)
(-0.000724092 -0.0161917 0.0145926)
(-0.0163021 -0.0185985 0.00970143)
(-0.0168325 -0.0176083 0.0105317)
(-0.0179781 -0.0147877 0.0120359)
(-0.0186733 -0.0147819 0.0138713)
(-0.0109302 -0.0132023 0.00730497)
(-0.0091952 -0.0104556 0.00423287)
(-0.012214 -0.0172467 0.0114935)
(-0.0114313 -0.0142284 0.00887467)
(-0.0124712 -0.0188498 0.0100256)
(-0.0140139 -0.0210264 0.0106299)
(-0.0118178 -0.014818 0.00805285)
(-0.0128899 -0.0186518 0.0112303)
(-0.0142984 -0.0177776 0.0156049)
(-0.0151185 -0.0210579 0.0170306)
(-0.0132106 -0.0222152 0.014208)
(-0.0137183 -0.0205611 0.0148813)
(-0.0135118 -0.0146384 0.0130555)
(-0.0121381 -0.0116888 0.00968092)
(-0.00318956 -0.0163243 0.00911983)
(-0.00481193 -0.0161785 0.00971487)
(-0.00856555 -0.0171923 0.00932536)
(-0.00678603 -0.0167592 0.00967138)
(7.32325e-05 -0.0188054 0.012228)
(0.000799191 -0.0169624 0.0107815)
(-0.00782023 -0.0187609 0.00720867)
(-0.0095401 -0.0200927 0.0068306)
(-0.0148234 -0.0276793 0.00541998)
(-0.0157823 -0.0248615 0.00783238)
(-0.0105175 -0.0127602 0.00121425)
(-0.0102321 -0.0110442 0.000581593)
(-0.00790242 -0.0280698 -0.00300426)
(-0.00679942 -0.0280218 -0.00270004)
(-0.0281741 0.00161696 -0.0149179)
(-0.0281919 -0.00140735 -0.0150822)
(-0.00845864 -0.00344635 -0.00789899)
(-0.0102754 -0.00286269 -0.0105742)
(-0.00727603 -0.00376203 -0.00458405)
(-0.00796565 -0.00383445 -0.00638865)
(-0.0217451 -0.0110422 -0.00955039)
(-0.0224294 -0.0114132 -0.00907552)
(-0.018913 -0.0144921 -0.00264483)
(-0.0184433 -0.0149629 -0.00239171)
(0.000880519 0.0135482 0.0368469)
(0.0013982 0.0133348 0.0377171)
(-0.00991143 0.00164296 0.0365157)
(-0.0108034 0.000134332 0.0364325)
(-0.00957362 -0.0251704 -0.00515812)
(-0.00741226 -0.0248794 -0.00368308)
(-0.00904642 -0.0164985 -0.0126411)
(-0.00795694 -0.0163195 -0.0120906)
(-0.000819486 -0.0136774 -0.0116083)
(0.000539431 -0.0135183 -0.0120962)
(-0.0015658 -0.0128124 -0.0118173)
(-0.000457292 -0.0133302 -0.0116243)
(-0.00734731 -0.0166916 -0.0118765)
(-0.0072901 -0.0167785 -0.011853)
(0.00583481 -0.0124551 -0.0100873)
(0.00492503 -0.0117156 -0.0101962)
(-0.0198158 -0.00477312 -0.0152076)
(-0.0183289 -0.0029751 -0.0144898)
(-0.0162029 0.0010639 -0.00502319)
(-0.0134584 0.000178971 -0.00327679)
(-0.0110766 0.00513393 0.0363444)
(-0.0107607 0.00604753 0.0364519)
(-0.0106988 -0.0178047 -0.00146663)
(-0.0120713 -0.0169555 -0.00121024)
(-0.00379157 -0.0178458 -0.00376497)
(-0.00433813 -0.0165762 -0.00213963)
(-0.00722635 -0.00635495 0.00207502)
(-0.00641859 -0.00620406 0.001167)
(-0.00446407 -0.00645514 -0.000273485)
(-0.00509385 -0.00597427 0.000426891)
(-0.0102399 -0.00644594 0.00214878)
(-0.00964247 -0.00653309 0.000847544)
(-0.023285 -0.0170223 0.00499833)
(-0.0234296 -0.0164886 0.00682593)
(-0.0291396 -0.00642084 -0.00417129)
(-0.0311717 -0.00573088 -0.00238968)
(-0.0257586 -0.0148215 -0.000314105)
(-0.0246929 -0.0136863 -0.00255162)
(0.00266655 -0.0192549 0.0110037)
(0.00273925 -0.0165413 0.0112092)
(0.000492582 -0.0174003 0.0166411)
(-0.000956303 -0.0155955 0.0163256)
(-0.00608353 -0.0107346 0.0216116)
(-0.00879765 -0.0105678 0.0218743)
(-0.0208249 -0.00782309 0.0128027)
(-0.0202998 -0.00596623 0.0147138)
(-0.0184591 -0.0099809 0.0147828)
(-0.0181397 -0.00945188 0.0163946)
(-0.0175336 -0.0079065 0.0155021)
(-0.0165217 -0.0073562 0.0172173)
(-0.00308972 -0.0173885 0.00907447)
(-0.00380799 -0.0166747 0.00995373)
(-0.000699934 -0.0143353 0.0113662)
(-0.000101607 -0.0150891 0.0104125)
(0.000722373 -0.0125048 0.0080528)
(0.000524411 -0.0121945 0.0078567)
(-1.86726e-05 -0.0152713 0.00876525)
(-6.4077e-05 -0.0169999 0.00866656)
(-0.00234488 -0.0108881 0.0049149)
(-0.00130578 -0.0111711 0.00526148)
(-0.00023715 -0.0101057 0.00637488)
(5.97989e-05 -0.0099315 0.00623972)
(-0.0117018 0.00282234 0.0199429)
(-0.0120413 0.00673568 0.0212612)
(0.00317689 -0.00526977 0.0100621)
(0.00325875 -0.00596542 0.0103322)
(0.000430526 -0.00656706 0.00740225)
(-0.00160633 -0.00676851 0.00568474)
(-0.00956358 0.00325927 0.0223347)
(-0.0087981 0.00687931 0.0242195)
(0.00325795 -0.01331 0.011182)
(0.00261165 -0.0143577 0.0105072)
(0.00177182 -0.0136562 0.0141368)
(0.00373924 -0.0120664 0.0156476)
(-0.0132572 0.0141044 0.0224994)
(-0.0135173 0.0177509 0.0235389)
(-0.0136514 0.00323555 0.0136789)
(-0.0131704 0.00172409 0.0123555)
(-0.0114611 0.000780091 0.0117241)
(-0.0120738 0.0025035 0.0129457)
(-0.0130546 -0.000126816 0.010028)
(-0.0124942 0.000684983 0.0105779)
(-0.00895583 -0.00861538 0.0163941)
(-0.00885892 -0.0117134 0.0161232)
(-0.00765406 -0.0124168 0.0140262)
(-0.00657124 -0.0142166 0.0130773)
(-0.0128429 -0.0017161 0.00767764)
(-0.0142033 0.00114017 0.00896527)
(-0.0125403 -0.00121265 0.00898579)
(-0.0140777 0.00102484 0.0116217)
(-0.017411 0.0190718 0.0242528)
(-0.0167422 0.0168769 0.0218975)
(-0.00228264 0.0163435 0.0242397)
(-0.00519934 0.0169775 0.0252049)
(-0.0116856 -0.00269996 0.0184135)
(-0.0109621 -0.00596529 0.0175279)
(-0.0110243 -0.00183558 0.032407)
(-0.0128447 -0.000319582 0.0349843)
(-0.00718287 0.0250382 0.0263236)
(-0.0096792 0.0199371 0.022409)
(-0.00533103 0.0160833 0.0217492)
(-0.00600875 0.016656 0.0209085)
(-0.000533684 -0.00791893 0.00821882)
(-0.00072113 -0.00803111 0.00994114)
(0.00183536 -1.94987e-05 0.0188304)
(0.00286076 -0.000766641 0.0191553)
(0.00290141 -0.0090336 0.00839326)
(0.00343806 -0.00961828 0.00841247)
(0.000797101 -0.0110013 0.00975069)
(0.000750564 -0.0114397 0.00946415)
(0.00117737 -0.0112145 0.00915718)
(0.000721521 -0.0106839 0.00960326)
(0.00941553 -0.000168237 0.0109386)
(0.00983299 2.98719e-05 0.0109448)
(0.00134408 -0.0104296 0.00825198)
(0.00132446 -0.0101787 0.00915048)
(0.00144376 -0.0118796 0.00656426)
(0.00231749 -0.0126184 0.00658831)
(0.000807271 -0.0103718 0.00976488)
(0.000666428 -0.00996025 0.00899199)
(0.00842569 -0.0017094 0.00718759)
(0.010147 -0.000545871 0.0088101)
(0.0105886 0.00140738 0.00941734)
(0.0109242 0.00270632 0.0120135)
(0.0111668 0.00104244 0.00834985)
(0.0123661 0.00322946 0.00963057)
(0.0137061 0.00675764 0.0138289)
(0.0134179 0.00496616 0.0114294)
(0.0131791 0.00776346 0.00521597)
(0.0219674 0.00732017 0.0131222)
(0.0224364 0.00764665 0.0125763)
(0.0137827 0.00816185 0.00656933)
(0.0159851 0.010086 0.00823628)
(0.0165921 0.0120622 0.00932213)
(0.0155432 0.0104171 0.00826922)
(0.0137866 0.00816708 0.00720035)
(0.0149456 0.00902202 0.00842198)
(0.0173287 0.0128015 0.00871868)
(0.0160038 0.0116592 0.00655257)
(0.0127688 0.00601608 0.00640991)
(0.0137967 0.006526 0.00748048)
(0.0167843 -0.00770291 -0.0016458)
(0.0166369 -0.00837934 -0.00190843)
(0.0109011 -0.016562 -0.00225549)
(0.0088242 -0.0169266 -0.000724994)
(0.0199706 -0.0124687 -0.00289434)
(0.018544 -0.011155 -0.00304064)
(0.0194098 -0.0169438 -0.00294543)
(0.0188019 -0.0161062 -0.00282941)
(0.0132243 -0.0180966 -0.00355399)
(0.0104696 -0.0198193 -0.00399122)
(0.0124628 -0.0111496 -0.00123958)
(0.0151879 -0.0117173 -0.00209943)
(0.0135133 -0.0154475 -0.00309124)
(0.0103992 -0.0151374 -0.00156965)
(0.0165171 -0.00695965 0.00323121)
(0.0168583 -0.0063413 0.00302337)
(0.0150225 -0.00231157 0.00357617)
(0.0151254 -0.00321944 0.00354526)
(0.0125274 0.000710352 0.00298568)
(0.0127548 0.000411651 0.00254556)
(0.0115044 0.000299697 0.00613264)
(0.0110956 -0.000371051 0.00619839)
(0.0115873 0.00129103 0.00629447)
(0.0118942 0.00152247 0.00596049)
(0.0165008 -0.00222854 0.00893336)
(0.0168068 -0.000635741 0.00814316)
(0.0159105 -0.00274825 0.00546168)
(0.0152903 -0.00367172 0.00565951)
(0.0151318 -0.00155031 0.00590271)
(0.0148407 -0.00135292 0.00577902)
(0.014597 0.00366348 0.0072519)
(0.0161808 0.00296769 0.00921341)
(0.0123984 0.00177818 0.00636229)
(0.0124111 0.00187307 0.00583722)
(0.0168679 0.00114654 0.00941407)
(0.0165019 0.00119048 0.00947389)
(0.0152851 0.00307219 0.00812146)
(0.0152535 0.00299571 0.0079392)
(0.0133238 0.00500069 0.00699101)
(0.01399 0.00533995 0.00775022)
(0.0111944 -0.000540876 0.00695428)
(0.012671 0.00205079 0.00833506)
(0.0125733 0.00196255 0.0085471)
(0.011635 0.000608768 0.00821473)
(0.0121333 0.00153535 0.0082736)
(0.0154049 0.00467754 0.0101108)
(0.0157798 0.00489789 0.0101517)
(0.016994 0.00568146 0.0106603)
(0.0166225 0.00560479 0.0110954)
(0.0157488 0.00556228 0.0103934)
(0.0149049 0.00481836 0.0103699)
(0.0091481 0.00110127 0.00488405)
(0.00886498 0.00111238 0.00467369)
(0.00849193 0.00147824 0.00450554)
(0.00864825 0.00131879 0.00454489)
(0.00970104 0.00150031 0.00581768)
(0.00966343 0.00104549 0.00597907)
(0.0133528 0.00388573 0.00737563)
(0.0140395 0.00409603 0.00837337)
(0.0165938 0.00476091 0.0104052)
(0.0168505 0.00447801 0.00998939)
(0.0151667 0.00364788 0.0102339)
(0.0143351 0.00329956 0.010068)
(0.0136993 0.00237897 0.0100197)
(0.0129476 0.0019842 0.00904733)
(0.0147541 0.00343009 0.00979854)
(0.0143888 0.00323957 0.00922893)
(0.0150173 0.00120776 0.00891759)
(0.0145622 0.000966376 0.0081644)
(0.0147104 0.00335823 0.00707448)
(0.0151125 0.00306263 0.00715226)
(0.0145201 0.000805765 0.00793799)
(0.0154219 0.00231915 0.00730387)
(-0.000354252 0.00734159 0.0148901)
(-0.00101756 0.00512396 0.0154819)
(0.00157115 0.00250002 -0.000359135)
(0.00330096 0.00364517 -0.00082585)
(0.000325223 8.89659e-06 0.00600945)
(0.00039886 0.00152986 0.00597715)
(0.000384435 -0.0125367 0.00559224)
(0.000283634 -0.0131624 0.00560139)
(0.0120904 -0.0239097 0.0147218)
(0.0126333 -0.0242313 0.0158121)
(0.015726 -0.0202127 0.0119501)
(0.0132678 -0.0212365 0.0139713)
(0.0196072 -0.0187395 0.0105042)
(0.0172384 -0.0196647 0.0128917)
(0.0150887 -0.0218907 -0.00419143)
(0.0173383 -0.0201997 -0.00300271)
(0.0179101 -0.0158246 0.0105945)
(0.0193788 -0.01772 0.0123915)
(0.0123073 -0.0229872 -0.00342775)
(0.0141175 -0.0205545 -0.00367625)
(0.00503221 -0.00757584 0.00660848)
(0.0061708 -0.00726144 0.00627558)
(0.0037484 -0.00944188 0.00714266)
(0.0047648 -0.00872297 0.00702121)
(0.00487555 -0.00760085 0.0063643)
(0.0040633 -0.00805544 0.00678299)
(0.00855074 -0.0189713 -0.00264631)
(0.00684096 -0.0183223 -0.00108566)
(0.0116477 -0.0237828 0.014876)
(0.0108464 -0.0237853 0.0150863)
(0.011993 -0.0236791 0.0145251)
(0.00508033 -0.0251715 0.00824354)
(0.00575545 -0.0254215 0.00945397)
(0.0131728 -0.0232331 0.00889409)
(0.0130262 -0.0212615 0.00893704)
(0.0126962 -0.0229007 0.01417)
(0.00385509 -0.0113794 0.00308957)
(0.00445415 -0.010524 0.00275667)
(0.00146793 -0.0238891 0.0134434)
(0.000639333 -0.023477 0.0119456)
(0.0112035 -0.0218442 0.0093992)
(0.0124818 -0.0231267 0.0107905)
(0.00446136 -0.00797189 0.00635011)
(0.00483364 -0.00741383 0.00610883)
(0.0014113 -0.0119725 0.00857049)
(0.0015183 -0.0125192 0.0089366)
(0.00208411 -0.0121947 0.00849067)
(0.00250448 -0.0105564 0.00824027)
(0.00963997 -0.00708952 0.00253715)
(0.011515 -0.00941041 0.00192423)
(0.01356 -0.0127812 0.000991283)
(0.0121462 -0.010117 0.000625279)
(0.0119414 -0.0062933 0.00220607)