/*--------------------------------*- C++ -*----------------------------------*\
| =========                 |                                                 |
| \\      /  F ield         | OpenFOAM: The Open Source CFD Toolbox           |
|  \\    /   O peration     | Version:  v1612+                                |
|   \\  /    A nd           | Web:      www.OpenFOAM.com                      |
|    \\/     M anipulation  |                                                 |
\*---------------------------------------------------------------------------*/
FoamFile
{
    version     2.0;
    format      ascii;
    class       volVectorField;
    location    "50";
    object      wallShearStress;
}
// * * * * * * * * * * * * * * * * * * * * * * * * * * * * * * * * * * * * * //

dimensions      [0 2 -2 0 0 0 0];

internalField   uniform (0 0 0);

boundaryField
{
    WALL
    {
        type            calculated;
        value           nonuniform List<vector> 
1482
(
(-0.00707032 -0.0088663 -0.0028903)
(-0.00710087 -0.00897642 -0.00297819)
(-0.00812954 -0.00988066 -0.00365404)
(-0.0076444 -0.00886146 -0.00340315)
(-0.00732623 -0.00907269 -0.0029502)
(-0.007196 -0.00913172 -0.0030956)
(-0.00767422 -0.00949388 -0.00329175)
(-0.00786256 -0.00966822 -0.00302566)
(-0.0073273 -0.00897334 -0.00291964)
(-0.00725528 -0.0087937 -0.00278817)
(-0.00761246 -0.00960344 -0.00277637)
(-0.0078611 -0.00958256 -0.00300898)
(-0.00761516 -0.00922186 -0.00318966)
(-0.0075661 -0.0088576 -0.0036254)
(-0.00749375 -0.00915312 -0.00314156)
(-0.00762757 -0.00912035 -0.00324108)
(-0.00714553 -0.00868977 -0.00304144)
(-0.00733715 -0.00851961 -0.00321364)
(-0.00741491 -0.0091245 -0.00303506)
(-0.00689821 -0.00852129 -0.00305248)
(-0.00764998 -0.00911695 -0.00276768)
(-0.0070861 -0.00892407 -0.00298335)
(-0.00724222 -0.00912006 -0.00285331)
(-0.00681104 -0.00860161 -0.00314311)
(-0.00766466 -0.00988341 -0.00332634)
(-0.00790438 -0.00987838 -0.00329471)
(-0.00643832 -0.0079913 -0.00253064)
(-0.00696436 -0.00869156 -0.0027774)
(-0.00625439 -0.00782303 -0.00270123)
(-0.00654564 -0.00816361 -0.0027144)
(-0.00706205 -0.00850875 -0.00276483)
(-0.00714246 -0.00891547 -0.00294569)
(-0.0071922 -0.00889467 -0.00268569)
(-0.00746288 -0.00895301 -0.00304342)
(-0.00751696 -0.00863151 -0.00343962)
(-0.00765586 -0.00926209 -0.00346947)
(-0.00714419 -0.00862014 -0.00266886)
(-0.00722908 -0.0093938 -0.0027976)
(-0.00723597 -0.00943471 -0.00332066)
(-0.00775561 -0.0096095 -0.00329524)
(-0.00697294 -0.00891156 -0.00313941)
(-0.00703331 -0.00847438 -0.00271285)
(-0.00758147 -0.00927184 -0.00313975)
(-0.00729041 -0.00913687 -0.00324034)
(-0.00689929 -0.00863039 -0.00286825)
(-0.00758643 -0.00962531 -0.00330066)
(-0.00711858 -0.00900308 -0.00284593)
(-0.00654544 -0.00806256 -0.00307487)
(-0.00719148 -0.00876459 -0.00277878)
(-0.00643441 -0.00833142 -0.00284236)
(-0.00807028 -0.00967874 -0.00333132)
(-0.00768079 -0.00951209 -0.00312419)
(-0.00708438 -0.00869697 -0.00289908)
(-0.00733252 -0.00899474 -0.00293384)
(-0.00753414 -0.00900955 -0.00299195)
(-0.00762835 -0.00904296 -0.00291504)
(-0.00734852 -0.00944702 -0.00312834)
(-0.00708162 -0.00920233 -0.00307993)
(-0.00743488 -0.00899483 -0.00292036)
(-0.00747419 -0.00938113 -0.00320273)
(-0.00728353 -0.00921214 -0.00333611)
(-0.00701212 -0.0088367 -0.00298069)
(-0.00733872 -0.00901581 -0.00305014)
(-0.00732141 -0.0087254 -0.00309294)
(-0.00702844 -0.00902341 -0.00311002)
(-0.00700806 -0.00909854 -0.0033568)
(-0.0070598 -0.00906267 -0.00319929)
(-0.00728463 -0.00908358 -0.00311156)
(-0.00742176 -0.00851969 -0.00270435)
(-0.00699327 -0.00887285 -0.00303689)
(-0.00739039 -0.0093691 -0.00313869)
(-0.00699741 -0.00886728 -0.00318734)
(-0.00713857 -0.00937406 -0.00341835)
(-0.00715937 -0.00894942 -0.00300942)
(-0.00748649 -0.00921572 -0.00308812)
(-0.00740061 -0.00894974 -0.0029471)
(-0.00753308 -0.00903088 -0.00308229)
(-0.00750143 -0.00914258 -0.00299872)
(-0.00768562 -0.00907093 -0.00310249)
(-0.00736082 -0.00872568 -0.00296063)
(-0.0070168 -0.008596 -0.00273417)
(-0.00761206 -0.00910611 -0.00284901)
(-0.00695462 -0.00881731 -0.0029498)
(-0.00719854 -0.00919941 -0.00337188)
(-0.00740473 -0.00870434 -0.00268883)
(-0.00735065 -0.00906466 -0.0027911)
(-0.00728046 -0.00872468 -0.00273027)
(-0.00741466 -0.00924954 -0.00316523)
(-0.00804917 -0.00911106 -0.00364087)
(-0.00772989 -0.00938467 -0.00313273)
(-0.00810144 -0.00936005 -0.00376003)
(-0.00793722 -0.00960478 -0.00339858)
(-0.00738587 -0.0094347 -0.00311359)
(-0.00772652 -0.00938691 -0.00325374)
(-0.00685953 -0.00842256 -0.00266939)
(-0.0070882 -0.00882092 -0.0027883)
(-0.00675968 -0.00855401 -0.00250106)
(-0.00728164 -0.00891409 -0.00284296)
(-0.00733928 -0.00916791 -0.00314764)
(-0.00791059 -0.00937157 -0.00347692)
(-0.00716886 -0.00870367 -0.00289209)
(-0.00753506 -0.0089687 -0.00343043)
(-0.00785485 -0.00939968 -0.0035135)
(-0.00611913 -0.00802531 -0.00276431)
(-0.00675185 -0.00822424 -0.00261367)
(-0.00687196 -0.00839299 -0.00272109)
(-0.00572114 -0.00803716 -0.00256716)
(-0.00682715 -0.00860571 -0.00279318)
(-0.0066515 -0.00830307 -0.00281373)
(-0.00789999 -0.00881392 -0.00358413)
(-0.00772301 -0.00954133 -0.00317515)
(-0.00774967 -0.00921442 -0.00270608)
(-0.00803506 -0.00963596 -0.00301089)
(-0.00700766 -0.00871081 -0.00284604)
(-0.00731801 -0.00918794 -0.00277022)
(-0.00801653 -0.00935132 -0.00366462)
(-0.00787493 -0.00897765 -0.0038077)
(-0.00735983 -0.0095931 -0.00291439)
(-0.00781232 -0.00984067 -0.00312725)
(-0.00751731 -0.00947934 -0.00292724)
(-0.00741694 -0.00951443 -0.00271061)
(-0.00739092 -0.00956303 -0.00280477)
(-0.00790652 -0.00957404 -0.00315315)
(-0.00701684 -0.00875618 -0.0030009)
(-0.00714945 -0.00895923 -0.0027808)
(-0.00679677 -0.00876301 -0.00287827)
(-0.00751016 -0.00953518 -0.00322638)
(-0.0075592 -0.00905154 -0.00284195)
(-0.00765844 -0.00973431 -0.00320794)
(-0.0074906 -0.00938424 -0.00314835)
(-0.00719703 -0.00941063 -0.00335359)
(-0.00748001 -0.00940549 -0.003239)
(-0.00735417 -0.00972978 -0.00351739)
(-0.00731975 -0.00934496 -0.00306463)
(-0.0069789 -0.0081328 -0.00322025)
(-0.0068716 -0.00871969 -0.00260972)
(-0.00699605 -0.00876162 -0.00276478)
(-0.00708013 -0.00847451 -0.00272666)
(-0.0078811 -0.00959311 -0.00300962)
(-0.00715541 -0.00936734 -0.00285636)
(-0.00770537 -0.00950937 -0.00317194)
(-0.00789297 -0.00940183 -0.00310058)
(-0.00763072 -0.00934523 -0.00292868)
(-0.00712305 -0.00870112 -0.00322346)
(-0.00786496 -0.00912749 -0.00311334)
(-0.0076469 -0.0091471 -0.00268426)
(-0.00744187 -0.00886877 -0.00284365)
(-0.00704821 -0.00855992 -0.0027045)
(-0.00735649 -0.00888747 -0.00360254)
(-0.007657 -0.00927448 -0.00285532)
(-0.0073009 -0.00903636 -0.00302085)
(-0.00698194 -0.00860445 -0.00268307)
(-0.0070505 -0.00863046 -0.00299794)
(-0.00715827 -0.00863123 -0.00275943)
(-0.00816934 -0.00993845 -0.00327541)
(-0.00803112 -0.00970327 -0.00317613)
(-0.00821111 -0.0100101 -0.00317589)
(-0.00841196 -0.0105881 -0.00349071)
(-0.00788421 -0.0099737 -0.00327376)
(-0.00821302 -0.00996506 -0.00319205)
(-0.00815343 -0.0101586 -0.00334587)
(-0.00785823 -0.00971728 -0.00316243)
(-0.00836426 -0.0101325 -0.00322054)
(-0.00790147 -0.00990899 -0.00319582)
(-0.00808523 -0.00969294 -0.00320951)
(-0.00787145 -0.00960715 -0.00323644)
(-0.00754355 -0.0090707 -0.00288327)
(-0.0079058 -0.00949566 -0.00309693)
(-0.00798066 -0.00962859 -0.00313609)
(-0.00788745 -0.00922711 -0.00314173)
(-0.00819925 -0.0100411 -0.00320778)
(-0.00834562 -0.00988943 -0.00331068)
(-0.00813458 -0.0096773 -0.00340157)
(-0.00766118 -0.00940234 -0.00302389)
(-0.00811202 -0.00961577 -0.00337361)
(-0.00814039 -0.00944789 -0.00332618)
(-0.00820946 -0.0101289 -0.00337682)
(-0.0082879 -0.00994059 -0.00346014)
(-0.00820672 -0.00992487 -0.00331874)
(-0.00726923 -0.00951544 -0.00324916)
(-0.0074038 -0.0091283 -0.00303321)
(-0.00710022 -0.00944739 -0.00312586)
(-0.00726213 -0.00931818 -0.00305179)
(-0.00766616 -0.00954818 -0.00312654)
(-0.00724763 -0.00928096 -0.00313965)
(-0.00739955 -0.00948361 -0.00311793)
(-0.00723478 -0.00924132 -0.0030085)
(-0.00764854 -0.00961229 -0.00301879)
(-0.0069452 -0.00919189 -0.00303635)
(-0.0070454 -0.00892499 -0.00294959)
(-0.00745154 -0.00945854 -0.00315659)
(-0.00724945 -0.00916991 -0.00295792)
(-0.00724685 -0.00881125 -0.0028737)
(-0.00725612 -0.00923801 -0.00288317)
(-0.00703193 -0.00924593 -0.00298792)
(-0.00724691 -0.00894302 -0.00297247)
(-0.00751044 -0.00938258 -0.00307747)
(-0.00731586 -0.00886142 -0.00284368)
(-0.0076143 -0.00925707 -0.00288698)
(-0.00726114 -0.00875713 -0.00287249)
(-0.00743186 -0.0092452 -0.00302084)
(-0.0074975 -0.00895422 -0.00284252)
(-0.00732879 -0.00885099 -0.00313327)
(-0.0070869 -0.00819985 -0.0031014)
(-0.00731427 -0.00877706 -0.00302213)
(-0.00720202 -0.00911205 -0.00305872)
(-0.00692875 -0.00816656 -0.00314809)
(-0.00706892 -0.00832613 -0.00309483)
(-0.00729139 -0.00867839 -0.00304231)
(-0.00733416 -0.00880777 -0.00318451)
(-0.00767906 -0.00942864 -0.00327314)
(-0.00770561 -0.00918262 -0.00321239)
(-0.00738519 -0.0090712 -0.00312669)
(-0.00737082 -0.00905915 -0.00311116)
(-0.00789081 -0.0089285 -0.00312071)
(-0.00752594 -0.00914444 -0.00308635)
(-0.00795029 -0.0092429 -0.00309148)
(-0.00795603 -0.00925864 -0.00323264)
(-0.00746239 -0.00885312 -0.00301964)
(-0.00797524 -0.00949062 -0.00306541)
(-0.00739567 -0.00920588 -0.00301854)
(-0.0072533 -0.00906223 -0.00297056)
(-0.00740115 -0.00927252 -0.00305639)
(-0.00746881 -0.00930837 -0.00299843)
(-0.00715032 -0.00889989 -0.00300868)
(-0.00745449 -0.00931825 -0.00302104)
(-0.00739254 -0.00927577 -0.00303837)
(-0.00725116 -0.00850991 -0.00270589)
(-0.00742693 -0.00948515 -0.00300074)
(-0.00725148 -0.00937262 -0.0031082)
(-0.00729157 -0.00888177 -0.00285985)
(-0.00719082 -0.00876786 -0.0028832)
(-0.00729043 -0.00877577 -0.00288216)
(-0.00743445 -0.00853145 -0.00276916)
(-0.0070476 -0.00863229 -0.00287591)
(-0.00746317 -0.00886677 -0.00284338)
(-0.00722691 -0.00860689 -0.00275556)
(-0.00812987 -0.00969208 -0.00321643)
(-0.00802285 -0.0100617 -0.0033071)
(-0.00768857 -0.00913073 -0.00298251)
(-0.00768874 -0.00910266 -0.00311751)
(-0.0077203 -0.00954285 -0.00308687)
(-0.00780331 -0.00931082 -0.00321148)
(-0.00715738 -0.00904067 -0.00302026)
(-0.00719025 -0.00930256 -0.00303465)
(-0.00737474 -0.00950008 -0.00323599)
(-0.00719952 -0.00885356 -0.00291301)
(-0.0071776 -0.0091592 -0.00309853)
(-0.0070995 -0.0087896 -0.00286706)
(-0.00661568 -0.00765737 -0.00224059)
(-0.00640222 -0.00771437 -0.00251611)
(-0.00635933 -0.00808243 -0.00269052)
(-0.00664802 -0.00802993 -0.00266721)
(-0.00645825 -0.00787827 -0.00256308)
(-0.00639395 -0.0081934 -0.0026498)
(-0.00793943 -0.00948904 -0.00316254)
(-0.00816965 -0.00971082 -0.00336541)
(-0.00789823 -0.00939917 -0.00324543)
(-0.00800014 -0.00971195 -0.00322254)
(-0.00761929 -0.00949834 -0.00316324)
(-0.00747979 -0.00936366 -0.00318666)
(-0.007905 -0.00918768 -0.00329467)
(-0.00776451 -0.0091407 -0.00321019)
(-0.00765025 -0.00910498 -0.00319615)
(-0.0076159 -0.0091105 -0.00319181)
(-0.00778245 -0.00940639 -0.00316979)
(-0.00730955 -0.00879599 -0.0030053)
(-0.00758944 -0.00973122 -0.00305468)
(-0.00691413 -0.00858371 -0.00274264)
(-0.0070334 -0.00869653 -0.0028626)
(-0.00710249 -0.00883319 -0.00346175)
(-0.00726611 -0.00891412 -0.00272808)
(-0.00719345 -0.00925767 -0.00343299)
(-0.00669899 -0.00843972 -0.0027419)
(-0.00687032 -0.00838606 -0.0030537)
(-0.00675454 -0.00842617 -0.00271999)
(-0.0068225 -0.00825532 -0.00311124)
(-0.00672573 -0.00836706 -0.00289056)
(-0.00723085 -0.00930241 -0.00299176)
(-0.00768652 -0.00931737 -0.00298128)
(-0.00712777 -0.00875138 -0.00281141)
(-0.0075514 -0.00926011 -0.00278306)
(-0.00643794 -0.00826308 -0.0027791)
(-0.00676797 -0.00860919 -0.00286125)
(-0.00743883 -0.0093022 -0.0031691)
(-0.00715586 -0.00863687 -0.00284245)
(-0.00754535 -0.00892941 -0.00281341)
(-0.00731081 -0.00854989 -0.00275632)
(-0.0071781 -0.00878107 -0.00285252)
(-0.00708144 -0.00866865 -0.00283059)
(-0.00726507 -0.00857995 -0.00278523)
(-0.00687266 -0.00886275 -0.00300469)
(-0.00762184 -0.0087651 -0.00278128)
(-0.00702078 -0.00894917 -0.00337147)
(-0.00753014 -0.00940307 -0.00328774)
(-0.00738687 -0.00899711 -0.00264623)
(-0.00715892 -0.00914261 -0.00348211)
(-0.00744233 -0.00924489 -0.00353745)
(-0.00711697 -0.00868577 -0.00304221)
(-0.00768698 -0.00934427 -0.00305749)
(-0.007664 -0.00907222 -0.00300742)
(-0.00705362 -0.00918892 -0.00359416)
(-0.00763224 -0.00916331 -0.00282566)
(-0.00744879 -0.00902435 -0.00319828)
(-0.00682365 -0.00853301 -0.00285781)
(-0.00692104 -0.00892133 -0.00345373)
(-0.00739194 -0.00909114 -0.00325442)
(-0.00761634 -0.00905793 -0.00297239)
(-0.00714772 -0.00949031 -0.00370379)
(-0.00709422 -0.0085754 -0.00289514)
(-0.00762567 -0.00950389 -0.00312122)
(-0.00761638 -0.00979295 -0.00329533)
(-0.00806115 -0.00975109 -0.0034286)
(-0.00670928 -0.00893854 -0.00361711)
(-0.00701209 -0.00943033 -0.0035425)
(-0.00716779 -0.00922613 -0.00311207)
(-0.00705942 -0.00898595 -0.00308244)
(-0.00748062 -0.00980602 -0.00348186)
(-0.0071882 -0.00891114 -0.00320483)
(-0.00639792 -0.00835916 -0.00309043)
(-0.00682068 -0.0084835 -0.00253535)
(-0.0067771 -0.00828064 -0.00249559)
(-0.00662909 -0.00845591 -0.0030836)
(-0.00652275 -0.00807791 -0.00260251)
(-0.00658765 -0.00799399 -0.00233577)
(-0.00750786 -0.00879492 -0.00260175)
(-0.00695958 -0.00887521 -0.00312207)
(-0.00778233 -0.00945555 -0.00314777)
(-0.00719378 -0.00870068 -0.00281036)
(-0.00719136 -0.00888106 -0.00312377)
(-0.00746884 -0.00935057 -0.00275212)
(-0.00766979 -0.00932459 -0.00309478)
(-0.007194 -0.00881768 -0.00281183)
(-0.00735474 -0.00896635 -0.00310219)
(-0.00759114 -0.00893342 -0.00292475)
(-0.00763055 -0.00899659 -0.00301112)
(-0.00757825 -0.00916592 -0.00306435)
(-0.00740273 -0.00895612 -0.00283455)
(-0.00730821 -0.00880722 -0.00295355)
(-0.00710281 -0.00827975 -0.00260267)
(-0.0074095 -0.00866182 -0.00274627)
(-0.00765543 -0.00906344 -0.00289831)
(-0.00722415 -0.00872991 -0.00287972)
(-0.00714591 -0.0093273 -0.00236164)
(-0.0074185 -0.00911102 -0.00277361)
(-0.00743437 -0.00978394 -0.00276294)
(-0.00776479 -0.00950747 -0.00327358)
(-0.00761536 -0.00938094 -0.00302736)
(-0.00782513 -0.0093403 -0.00300597)
(-0.0079057 -0.00977357 -0.00313323)
(-0.00751142 -0.00934843 -0.00234498)
(-0.00707033 -0.00885179 -0.00269928)
(-0.00744534 -0.00912153 -0.00247672)
(-0.00717354 -0.00866674 -0.00263419)
(-0.00728768 -0.00897663 -0.00337939)
(-0.00773657 -0.00951517 -0.00303563)
(-0.00762303 -0.0090963 -0.0033801)
(-0.008601 -0.0102989 -0.00290841)
(-0.00714296 -0.00876058 -0.00319657)
(-0.00750136 -0.00920432 -0.00288041)
(-0.00755326 -0.00920915 -0.00340211)
(-0.00769567 -0.00954019 -0.00305393)
(-0.00776235 -0.00936631 -0.00298379)
(-0.00747474 -0.00918037 -0.00278577)
(-0.00733873 -0.00894524 -0.00283816)
(-0.00717586 -0.00880263 -0.00284447)
(-0.00736063 -0.00899828 -0.00271895)
(-0.00731967 -0.00865889 -0.00279478)
(-0.00712761 -0.0087473 -0.00278165)
(-0.00720141 -0.00868019 -0.00269695)
(-0.00727029 -0.00908824 -0.00297327)
(-0.00736548 -0.00894868 -0.00294661)
(-0.00772279 -0.00960924 -0.00306159)
(-0.00744961 -0.00946988 -0.00331975)
(-0.00742724 -0.00915399 -0.00310964)
(-0.00743947 -0.00956835 -0.00324926)
(-0.00743789 -0.00951143 -0.00324379)
(-0.00691561 -0.00911666 -0.0032212)
(-0.00754307 -0.00912871 -0.00301183)
(-0.00721661 -0.00894437 -0.00307016)
(-0.00751631 -0.00900711 -0.00295942)
(-0.00762558 -0.00931852 -0.00295286)
(-0.007717 -0.00983868 -0.00340272)
(-0.00736488 -0.00916773 -0.00326879)
(-0.00734407 -0.009 -0.00359805)
(-0.0073175 -0.00930721 -0.00373019)
(-0.00803656 -0.0097844 -0.00337611)
(-0.00730181 -0.00919273 -0.00349101)
(-0.00809038 -0.0103308 -0.00349979)
(-0.0076837 -0.00969304 -0.00285206)
(-0.00741294 -0.00911869 -0.00318341)
(-0.00720734 -0.00922279 -0.00355759)
(-0.00773848 -0.00984063 -0.0036696)
(-0.00731459 -0.00888182 -0.00284426)
(-0.00768616 -0.00983523 -0.00380495)
(-0.00703866 -0.0089643 -0.00258902)
(-0.00709923 -0.00898976 -0.00280885)
(-0.00713621 -0.00899006 -0.00292774)
(-0.00723385 -0.00919873 -0.00276498)
(-0.00679859 -0.008262 -0.00255947)
(-0.00694726 -0.00874906 -0.00276365)
(-0.00701723 -0.00913993 -0.00286199)
(-0.00753497 -0.00966156 -0.00292313)
(-0.00772824 -0.00970856 -0.00302389)
(-0.00788754 -0.00982967 -0.00308173)
(-0.00826097 -0.0100923 -0.00325023)
(-0.00767988 -0.00968928 -0.0030597)
(-0.00815837 -0.00952688 -0.00339545)
(-0.00824076 -0.00948334 -0.00329026)
(-0.00822028 -0.0100023 -0.00331907)
(-0.00814923 -0.00980779 -0.0033219)
(-0.0078904 -0.00952436 -0.00318616)
(-0.00747079 -0.00912871 -0.0029569)
(-0.00774961 -0.0094167 -0.00308254)
(-0.00783869 -0.00938694 -0.00318408)
(-0.00771 -0.00924436 -0.00317037)
(-0.00762831 -0.00943849 -0.00295253)
(-0.00781441 -0.00966774 -0.00313015)
(-0.00686514 -0.00847782 -0.00274527)
(-0.00737307 -0.00893221 -0.00279069)
(-0.00759084 -0.00883052 -0.00359629)
(-0.00729372 -0.00917076 -0.00297581)
(-0.00769717 -0.00930104 -0.00348299)
(-0.00716072 -0.00875696 -0.00324801)
(-0.00706159 -0.00876075 -0.00264595)
(-0.00717204 -0.00882529 -0.00300656)
(-0.00714259 -0.00871514 -0.00337993)
(-0.00725818 -0.00932383 -0.00291067)
(-0.0076793 -0.00915494 -0.00329746)
(-0.0074549 -0.00879816 -0.00350328)
(-0.00776455 -0.00929049 -0.00319042)
(-0.00738996 -0.00927996 -0.00286284)
(-0.00779862 -0.00901606 -0.00314466)
(-0.00803163 -0.00953764 -0.00322468)
(-0.00785109 -0.00986515 -0.00311631)
(-0.00738098 -0.00897191 -0.00287247)
(-0.00734215 -0.00935225 -0.00255444)
(-0.0075818 -0.00917739 -0.002607)
(-0.00692414 -0.00867402 -0.0026903)
(-0.00763862 -0.00909239 -0.00322792)
(-0.00780898 -0.00935201 -0.00353972)
(-0.00718026 -0.00865311 -0.003017)
(-0.00806186 -0.00948027 -0.0032953)
(-0.00697925 -0.0083658 -0.00296349)
(-0.00755261 -0.00885394 -0.00345068)
(-0.00720656 -0.00862 -0.00277363)
(-0.00745724 -0.00914514 -0.00285955)
(-0.00724295 -0.00862509 -0.00296571)
(-0.00729226 -0.00865086 -0.00267167)
(-0.00733598 -0.00951288 -0.00268053)
(-0.0070693 -0.00840929 -0.003312)
(-0.0078152 -0.00928822 -0.00325714)
(-0.00757496 -0.00883661 -0.00365718)
(-0.00698791 -0.00824138 -0.00299667)
(-0.00796368 -0.00935977 -0.00342103)
(-0.00781296 -0.00947073 -0.00322107)
(-0.00805875 -0.00960065 -0.00335505)
(-0.00761336 -0.00914276 -0.00310033)
(-0.00789197 -0.00966904 -0.00327008)
(-0.00768581 -0.00931229 -0.00310081)
(-0.00805239 -0.0096823 -0.00323673)
(-0.00757234 -0.00918323 -0.00322454)
(-0.00778141 -0.0091712 -0.00337027)
(-0.00776016 -0.00930878 -0.00309416)
(-0.00820582 -0.00992343 -0.00363624)
(-0.00785497 -0.00903665 -0.00357316)
(-0.00796694 -0.00962559 -0.00356186)
(-0.00732826 -0.00883946 -0.00314966)
(-0.00777388 -0.00926218 -0.00365033)
(-0.00764204 -0.00909461 -0.00333231)
(-0.0074601 -0.0091958 -0.00298362)
(-0.00750049 -0.00935472 -0.0031506)
(-0.00630582 -0.00864363 -0.00325835)
(-0.00665967 -0.00876751 -0.00324786)
(-0.00749236 -0.0091008 -0.00324495)
(-0.00694352 -0.00873943 -0.00307517)
(-0.00734481 -0.00998045 -0.00354474)
(-0.00744391 -0.00890709 -0.00291883)
(-0.0076817 -0.00861932 -0.00271774)
(-0.00756717 -0.00869037 -0.00283066)
(-0.00766334 -0.00915449 -0.00302268)
(-0.00741488 -0.00897289 -0.00288659)
(-0.00800025 -0.00923297 -0.00290475)
(-0.00793863 -0.00959646 -0.00327944)
(-0.00694771 -0.00849475 -0.00272475)
(-0.00676746 -0.00819367 -0.00278182)
(-0.00691734 -0.00892748 -0.00308398)
(-0.00618524 -0.00788773 -0.00268684)
(-0.00657113 -0.0084014 -0.00285734)
(-0.00673458 -0.00865201 -0.00275344)
(-0.00683863 -0.00826985 -0.0026797)
(-0.00667236 -0.0087022 -0.00275169)
(-0.00677574 -0.00874285 -0.00275178)
(-0.00668915 -0.00772064 -0.00226547)
(-0.00744856 -0.0092717 -0.00325003)
(-0.00744871 -0.00895787 -0.00298055)
(-0.00759197 -0.00951217 -0.00352394)
(-0.00751184 -0.00887297 -0.0027505)
(-0.00698582 -0.00898594 -0.00328147)
(-0.0077438 -0.00989333 -0.00324927)
(-0.00743566 -0.0097295 -0.00324724)
(-0.00766469 -0.00955483 -0.00310657)
(-0.00782943 -0.00986258 -0.00333655)
(-0.00737439 -0.0093593 -0.00310356)
(-0.00732082 -0.00849337 -0.00401279)
(-0.00780041 -0.00903462 -0.00345269)
(-0.00705977 -0.00877233 -0.00286949)
(-0.00761593 -0.00969956 -0.0034623)
(-0.00678288 -0.00813097 -0.00299161)
(-0.0076599 -0.00955171 -0.00327629)
(-0.00779365 -0.00930149 -0.00349054)
(-0.00759154 -0.00938992 -0.00299269)
(-0.00815734 -0.00986025 -0.00332108)
(-0.00763327 -0.00916933 -0.003211)
(-0.00775334 -0.00952129 -0.00326891)
(-0.00759876 -0.0093736 -0.00280642)
(-0.0077254 -0.00927651 -0.00346708)
(-0.00761797 -0.00937638 -0.00303084)
(-0.00810029 -0.0100575 -0.00326484)
(-0.00771686 -0.00915325 -0.00351734)
(-0.00771226 -0.00989613 -0.00318412)
(-0.00734945 -0.00910439 -0.00270834)
(-0.00785688 -0.00950028 -0.00355086)
(-0.00733634 -0.00923452 -0.00262433)
(-0.00709696 -0.00869729 -0.00302671)
(-0.00788414 -0.0100076 -0.00284242)
(-0.00725588 -0.00904286 -0.00315632)
(-0.00729846 -0.0089401 -0.00328444)
(-0.00790208 -0.00947751 -0.00334357)
(-0.00736715 -0.0093318 -0.00319246)
(-0.00679164 -0.00838969 -0.00265598)
(-0.00748121 -0.00916466 -0.00289866)
(-0.00729914 -0.00909379 -0.00330283)
(-0.00710225 -0.00836224 -0.00232714)
(-0.00788177 -0.00905861 -0.00286231)
(-0.00695194 -0.00834326 -0.00254935)
(-0.00721843 -0.00845512 -0.00236524)
(-0.0080945 -0.00989956 -0.00276231)
(-0.00807347 -0.00952364 -0.00289912)
(-0.00739962 -0.00911971 -0.00326565)
(-0.00748896 -0.00951206 -0.00346157)
(-0.0073815 -0.00895114 -0.00293633)
(-0.00736953 -0.00929429 -0.00354137)
(-0.00732434 -0.00906909 -0.00336198)
(-0.00789052 -0.00963463 -0.00327061)
(-0.00784217 -0.00960716 -0.00277195)
(-0.00764673 -0.00915351 -0.00276507)
(-0.00695 -0.00910604 -0.00289291)
(-0.00711792 -0.00920512 -0.00299131)
(-0.00736507 -0.00945922 -0.00310739)
(-0.00703435 -0.00894921 -0.00290207)
(-0.00694301 -0.00914292 -0.00286086)
(-0.00711139 -0.00911938 -0.00288999)
(-0.00693255 -0.00863534 -0.00275055)
(-0.00717153 -0.00824161 -0.00340101)
(-0.00672464 -0.00839744 -0.0027033)
(-0.00768417 -0.00891897 -0.00356972)
(-0.00712158 -0.0088761 -0.00301059)
(-0.00731372 -0.00895091 -0.00291023)
(-0.0067167 -0.00815791 -0.0027905)
(-0.00734344 -0.00861144 -0.00324668)
(-0.00776916 -0.0092835 -0.00321747)
(-0.00726492 -0.00911052 -0.00285236)
(-0.00682668 -0.00860819 -0.00278191)
(-0.00749052 -0.00909994 -0.00309999)
(-0.00738075 -0.00894125 -0.00306973)
(-0.00711021 -0.00870337 -0.00293146)
(-0.0070976 -0.00874183 -0.00285497)
(-0.00737616 -0.00919767 -0.00304617)
(-0.00732616 -0.00949615 -0.00285905)
(-0.00706263 -0.00905613 -0.00282434)
(-0.0070044 -0.00884842 -0.00283431)
(-0.00740975 -0.0092359 -0.00303352)
(-0.00781278 -0.0093133 -0.00323151)
(-0.00773452 -0.00902777 -0.00305996)
(-0.0078828 -0.00920343 -0.00330111)
(-0.00733054 -0.0087821 -0.00294358)
(-0.00763922 -0.00882719 -0.00317588)
(-0.00765243 -0.009014 -0.0030995)
(-0.0078353 -0.00904372 -0.00327818)
(-0.00772817 -0.00898365 -0.00309714)
(-0.0075503 -0.00892636 -0.00318652)
(-0.00745883 -0.00878943 -0.00313657)
(-0.0076341 -0.00897573 -0.00321816)
(-0.00787619 -0.00922178 -0.00323666)
(-0.00719946 -0.00886507 -0.00290683)
(-0.00720038 -0.0087418 -0.00299987)
(-0.007014 -0.00883438 -0.00290025)
(-0.00709137 -0.00894689 -0.00278453)
(-0.0072724 -0.00903355 -0.00288257)
(-0.00704083 -0.00916152 -0.0028063)
(-0.00679998 -0.00881483 -0.00277266)
(-0.00698845 -0.00902276 -0.00272084)
(-0.00697708 -0.00901718 -0.00287231)
(-0.00695633 -0.00893384 -0.0026366)
(-0.00714646 -0.00881321 -0.0025066)
(-0.00709889 -0.00895438 -0.00292276)
(-0.00718465 -0.00879815 -0.00245297)
(-0.00747188 -0.00946457 -0.0027381)
(-0.00813136 -0.009637 -0.00330888)
(-0.00752022 -0.00934304 -0.00245442)
(-0.0078895 -0.00959993 -0.00345423)
(-0.00732324 -0.00903649 -0.00288333)
(-0.00788517 -0.00974874 -0.00334227)
(-0.00752308 -0.00909827 -0.00329395)
(-0.00726371 -0.00874844 -0.00307113)
(-0.00730457 -0.009 -0.00297754)
(-0.00817454 -0.0097167 -0.00275284)
(-0.00760336 -0.00944566 -0.0036544)
(-0.00739076 -0.00897393 -0.00265986)
(-0.00783373 -0.00992176 -0.00311705)
(-0.00718554 -0.00897867 -0.0028599)
(-0.0078201 -0.00963021 -0.0033934)
(-0.00714506 -0.00920421 -0.00332526)
(-0.00716705 -0.00926164 -0.00316858)
(-0.00746754 -0.00959145 -0.00335322)
(-0.00755151 -0.00971739 -0.00338263)
(-0.00644244 -0.00844173 -0.00359983)
(-0.00754411 -0.00912482 -0.00326264)
(-0.00660874 -0.00820237 -0.0026985)
(-0.00724305 -0.0089825 -0.00302195)
(-0.0064619 -0.00820661 -0.00286078)
(-0.00657393 -0.00863172 -0.00286689)
(-0.0064124 -0.00811817 -0.00271478)
(-0.00726861 -0.00919459 -0.00248263)
(-0.00759814 -0.00936219 -0.00302749)
(-0.00759456 -0.00903727 -0.00271048)
(-0.00737864 -0.0088822 -0.00310483)
(-0.00727827 -0.00866516 -0.00312054)
(-0.00708938 -0.00889887 -0.00276054)
(-0.00757216 -0.00916013 -0.00291338)
(-0.00715543 -0.0090303 -0.00272081)
(-0.00736741 -0.00893407 -0.00344077)
(-0.00793685 -0.0099717 -0.00322317)
(-0.00776687 -0.00910434 -0.00361962)
(-0.00706683 -0.00892033 -0.00258897)
(-0.0074485 -0.00920011 -0.00241405)
(-0.0072877 -0.00904316 -0.00254335)
(-0.00720371 -0.00867503 -0.00264385)
(-0.00733637 -0.00926422 -0.0033237)
(-0.00667429 -0.00850657 -0.00316866)
(-0.00686874 -0.00833696 -0.0027838)
(-0.00743935 -0.00911309 -0.00317598)
(-0.00731095 -0.00917381 -0.00273818)
(-0.00759471 -0.00952632 -0.00291798)
(-0.00689052 -0.00875501 -0.0031471)
(-0.00712504 -0.0087627 -0.0029907)
(-0.00753588 -0.00923928 -0.0032152)
(-0.00727778 -0.00906087 -0.00348535)
(-0.00707356 -0.0088953 -0.00289142)
(-0.00756591 -0.00956249 -0.0029836)
(-0.00756793 -0.00911269 -0.00285435)
(-0.00701221 -0.00861579 -0.00333609)
(-0.00673654 -0.00820071 -0.00260665)
(-0.00713014 -0.00886571 -0.0034863)
(-0.00728777 -0.00918777 -0.00290787)
(-0.00679065 -0.00829501 -0.00310069)
(-0.00710708 -0.00882464 -0.00319366)
(-0.00734156 -0.00889266 -0.0028769)
(-0.00670335 -0.00834159 -0.00286604)
(-0.00741738 -0.0090779 -0.00304634)
(-0.00707871 -0.00874771 -0.00287299)
(-0.00712859 -0.00888249 -0.00376042)
(-0.00737507 -0.00899642 -0.00301513)
(-0.00721093 -0.00905519 -0.00308688)
(-0.00746098 -0.00936972 -0.00316469)
(-0.00756148 -0.00967484 -0.00327191)
(-0.0079135 -0.00972891 -0.00398097)
(-0.00696265 -0.00861248 -0.00305251)
(-0.00691175 -0.00905522 -0.00353206)
(-0.00808803 -0.00987344 -0.00358942)
(-0.00744257 -0.00919079 -0.00327459)
(-0.00818689 -0.0100968 -0.00291566)
(-0.00710244 -0.00907367 -0.00265821)
(-0.007463 -0.00942928 -0.00299813)
(-0.00781363 -0.0092795 -0.00363377)
(-0.00735315 -0.00919624 -0.00278028)
(-0.00735845 -0.00871111 -0.00337623)
(-0.00750024 -0.00944099 -0.00290812)
(-0.00783248 -0.00967642 -0.00316583)
(-0.00777739 -0.00981598 -0.00343799)
(-0.00807548 -0.00981534 -0.00304107)
(-0.00816369 -0.00980478 -0.00347496)
(-0.00802781 -0.00975436 -0.00304234)
(-0.00741238 -0.00906798 -0.00315736)
(-0.00734662 -0.00870951 -0.00297341)
(-0.00747583 -0.0088128 -0.00321627)
(-0.00727183 -0.00897751 -0.00307313)
(-0.00732419 -0.00900298 -0.00292685)
(-0.00742763 -0.00876702 -0.00308995)
(-0.00776387 -0.00912968 -0.00314953)
(-0.00745437 -0.00888264 -0.00310054)
(-0.00723349 -0.00882519 -0.00295731)
(-0.00734447 -0.00887697 -0.00299876)
(-0.00747103 -0.00913168 -0.00297461)
(-0.00758683 -0.00894439 -0.00311427)
(-0.00716808 -0.00898101 -0.00287216)
(-0.00730035 -0.00875977 -0.0030539)
(-0.00728597 -0.00913766 -0.00295615)
(-0.00741832 -0.00906074 -0.00293566)
(-0.00767383 -0.00909047 -0.00316444)
(-0.00794412 -0.00908508 -0.0033991)
(-0.00780802 -0.00922321 -0.00324682)
(-0.00769509 -0.00932611 -0.00307496)
(-0.00753194 -0.00907011 -0.00303853)
(-0.00714617 -0.00878889 -0.00284106)
(-0.0074479 -0.00908263 -0.0031341)
(-0.0074547 -0.00877634 -0.00319752)
(-0.0071967 -0.00890545 -0.00289556)
(-0.00695685 -0.00864329 -0.00306481)
(-0.00718731 -0.00883359 -0.00289344)
(-0.0070394 -0.00871261 -0.00287108)
(-0.00730802 -0.00897943 -0.00294823)
(-0.0072111 -0.00885669 -0.00291564)
(-0.00785933 -0.0091416 -0.00323426)
(-0.00766304 -0.0090191 -0.00324471)
(-0.00744311 -0.00901934 -0.00300683)
(-0.00708944 -0.00858378 -0.00294595)
(-0.0073287 -0.00904559 -0.00280753)
(-0.00738737 -0.00869722 -0.00318999)
(-0.00720942 -0.00886146 -0.00287005)
(-0.00711211 -0.0089543 -0.00285509)
(-0.0074272 -0.00870696 -0.00325512)
(-0.00691751 -0.00842081 -0.0033296)
(-0.00726783 -0.00918101 -0.00319487)
(-0.00763874 -0.00926946 -0.00294168)
(-0.00668698 -0.00842388 -0.00271197)
(-0.00708626 -0.00902273 -0.00288668)
(-0.00710136 -0.00909749 -0.00282893)
(-0.00704061 -0.00926736 -0.00279556)
(-0.00656027 -0.00863326 -0.00247204)
(-0.0069369 -0.00871695 -0.00258432)
(-0.00688659 -0.00845646 -0.0029456)
(-0.00754655 -0.00962546 -0.00302221)
(-0.00742667 -0.00926499 -0.00278938)
(-0.00737364 -0.00919501 -0.00320857)
(-0.00739767 -0.0088833 -0.00349562)
(-0.00744469 -0.00886759 -0.00332743)
(-0.00713045 -0.00883583 -0.00286687)
(-0.00772439 -0.00940668 -0.00302349)
(-0.00752085 -0.00897798 -0.00349415)
(-0.00710125 -0.00881316 -0.00335761)
(-0.00721867 -0.00915143 -0.00312427)
(-0.00709981 -0.00907518 -0.00329456)
(-0.0072047 -0.00879709 -0.00298685)
(-0.00721971 -0.00915386 -0.00310616)
(-0.00742243 -0.00909868 -0.00289263)
(-0.00757872 -0.00921237 -0.00312392)
(-0.00716925 -0.00879407 -0.00289296)
(-0.00827055 -0.00962897 -0.0030061)
(-0.00800614 -0.0100036 -0.00304446)
(-0.00737611 -0.00911363 -0.00300104)
(-0.00814157 -0.00997496 -0.00304815)
(-0.00749498 -0.00891401 -0.00269485)
(-0.00690254 -0.00842163 -0.00272296)
(-0.00681905 -0.00885147 -0.00322447)
(-0.00725659 -0.00890975 -0.00266722)
(-0.00721967 -0.0090765 -0.00320113)
(-0.00788188 -0.00992151 -0.00329889)
(-0.0070236 -0.00903657 -0.00341242)
(-0.00788952 -0.00973657 -0.00322908)
(-0.00761373 -0.00941768 -0.00260911)
(-0.0076453 -0.00933083 -0.00280849)
(-0.00691894 -0.00890669 -0.0032211)
(-0.00730288 -0.00893623 -0.0034895)
(-0.00783327 -0.0092723 -0.00274156)
(-0.0077102 -0.00917466 -0.00271929)
(-0.00726259 -0.00877297 -0.00295204)
(-0.00688681 -0.00876543 -0.00307345)
(-0.00651955 -0.00853818 -0.00308334)
(-0.00750238 -0.0089956 -0.00270843)