/*--------------------------------*- C++ -*----------------------------------*\
| =========                 |                                                 |
| \\      /  F ield         | OpenFOAM: The Open Source CFD Toolbox           |
|  \\    /   O peration     | Version:  v1612+                                |
|   \\  /    A nd           | Web:      www.OpenFOAM.com                      |
|    \\/     M anipulation  |                                                 |
\*---------------------------------------------------------------------------*/
FoamFile
{
    version     2.0;
    format      ascii;
    class       volScalarField;
    location    "166";
    object      p;
}
// * * * * * * * * * * * * * * * * * * * * * * * * * * * * * * * * * * * * * //

dimensions      [0 2 -2 0 0 0 0];

internalField   nonuniform List<scalar> 
17100
(
2.1529
2.21105
2.18027
2.18666
2.17889
2.18241
2.17959
2.17851
2.17886
2.17629
2.17447
2.19017
2.18899
2.18518
2.17703
2.17895
2.18452
2.18615
2.18075
2.14576
2.14291
2.14492
2.14391
2.14499
2.14113
2.14713
2.15279
2.15602
2.14638
2.14772
2.14443
2.13659
2.14466
2.14141
2.17322
2.17421
2.17733
2.17776
2.1781
2.17606
2.17465
2.17506
2.17419
2.17624
2.17526
2.1752
2.17582
2.14474
2.1438
2.14699
2.14556
2.14697
2.14648
2.15009
2.15208
2.15289
2.15391
2.15409
2.14454
2.148
2.1472
2.14632
2.1472
2.15421
2.15216
2.14772
2.14982
2.17351
2.17329
2.17401
2.17721
2.1735
2.17098
2.17514
2.17591
2.17943
2.17816
2.17971
2.17433
2.17097
2.17833
2.1804
2.18105
2.1757
2.1728
2.17233
2.18028
2.14758
2.15122
2.15194
2.1493
2.14739
2.14965
2.15615
2.15266
2.14861
2.1489
2.15088
2.14987
2.15353
2.1483
2.15338
2.15607
2.15029
2.14624
2.14755
2.14983
2.15399
2.15748
2.15149
2.15354
2.15698
2.15517
2.12561
2.12768
2.1219
2.12593
2.12558
2.12985
2.13908
2.13703
2.12945
2.12947
2.1264
2.12693
2.13778
2.13598
2.14059
2.14055
2.12684
2.13219
2.13067
2.12797
2.13195
2.12578
2.13655
2.13462
2.13179
2.12627
2.21098
2.21259
2.22368
2.21795
2.22305
2.22108
2.21645
2.21615
2.21314
2.21499
2.22839
2.21455
2.23188
2.23056
2.23506
2.23407
2.21956
2.21953
2.22727
2.22725
2.23124
2.21758
2.24216
2.24208
2.24779
2.24638
2.24281
2.24556
2.24484
2.25112
2.2515
2.25054
2.15453
2.15496
2.1507
2.15598
2.15642
2.15882
2.1549
2.14674
2.15234
2.16151
2.15793
2.1595
2.15566
2.14209
2.14146
2.1411
2.14014
2.14
2.14072
2.14229
2.14098
2.13761
2.13948
2.13838
2.14031
2.18566
2.1854
2.18388
2.18484
2.18643
2.19273
2.17047
2.1681
2.18017
2.16757
2.1722
2.17307
2.18065
2.17951
2.17717
2.17524
2.17773
2.17298
2.17486
2.17512
2.16115
2.16739
2.16816
2.17001
2.17006
2.16876
2.17655
2.16997
2.16831
2.17162
2.18178
2.16847
2.16936
2.17063
2.16537
2.16894
2.13488
2.13413
2.13823
2.13484
2.13496
2.13533
2.13612
2.13501
2.19246
2.18971
2.18841
2.19398
2.19479
2.19154
2.18046
2.18311
2.1901
2.19217
2.18761
2.18409
2.18654
2.19258
2.18495
2.18546
2.18458
2.18709
2.18301
2.18169
2.18141
2.16254
2.16294
2.16595
2.16137
2.16107
2.16251
2.16526
2.16382
2.16677
2.16057
2.1635
2.16656
2.16641
2.16698
2.1664
2.16204
2.16044
2.16127
2.16609
2.15891
2.15974
2.16309
2.16005
2.16383
2.15277
2.15464
2.16079
2.15865
2.16332
2.15096
2.16158
2.16442
2.15373
2.1571
2.15486
2.15732
2.1516
2.15674
2.15645
2.15996
2.15643
2.15838
2.16867
2.18412
2.19106
2.18936
2.18972
2.19206
2.19491
2.1967
2.19005
2.19075
2.19011
2.18623
2.1896
2.18993
2.18346
2.18809
2.17806
2.18798
2.18623
2.185
2.18656
2.18283
2.18461
2.18489
2.18296
2.18133
2.18494
2.19051
2.18974
2.18525
2.18394
2.17925
2.189
2.18648
2.23565
2.23524
2.22372
2.22755
2.23204
2.23443
2.22976
2.23723
2.23365
2.22517
2.23367
2.22836
2.23791
2.23024
2.23818
2.23982
2.23889
2.24072
2.24509
2.19697
2.19416
2.19314
2.18876
2.19133
2.19456
2.19435
2.19746
2.19599
2.19916
2.19729
2.19578
2.19567
2.19692
2.19947
2.20206
2.20446
2.2016
2.20224
2.20505
2.20001
2.20106
2.20215
2.199
2.19706
2.20472
2.203
2.20455
2.20713
2.20311
2.20395
2.20452
2.20222
2.20164
2.20148
2.20329
2.20631
2.19985
2.20527
2.20457
2.20099
2.19728
2.20835
2.20643
2.19861
2.20657
2.2063
2.15462
2.15736
2.15565
2.15441
2.15671
2.1542
2.15861
2.15806
2.15668
2.16055
2.15979
2.15871
2.15834
2.21739
2.21554
2.21359
2.21203
2.20894
2.21662
2.21791
2.21367
2.21032
2.21069
2.21599
2.21152
2.21253
2.21361
2.21342
2.20428
2.19955
2.19886
2.20174
2.20331
2.19603
2.19834
2.20451
2.19776
2.19776
2.20402
2.20004
2.19695
2.19878
2.19915
2.20207
2.20829
2.19394
2.19921
2.1997
2.20318
2.19501
2.20614
2.19826
2.1274
2.12828
2.12508
2.12794
2.13247
2.12733
2.12641
2.13008
2.12423
2.12167
2.1267
2.13062
2.12048
2.21978
2.22002
2.22117
2.22101
2.2212
2.22139
2.21751
2.21852
2.22084
2.22256
2.21929
2.22003
2.22782
2.22661
2.22424
2.22496
2.22599
2.2259
2.22415
2.22576
2.17117
2.16998
2.17098
2.17114
2.16571
2.16164
2.16058
2.15838
2.16692
2.16415
2.15965
2.16171
2.16898
2.1603
2.16039
2.17025
2.16225
2.16678
2.14345
2.14348
2.14115
2.14171
2.1468
2.14662
2.14664
2.14767
2.14058
2.14239
2.1401
2.14523
2.1431
2.14517
2.15881
2.15682
2.15875
2.15937
2.15798
2.15629
2.15955
2.15273
2.15336
2.15741
2.15416
2.15657
2.20556
2.20585
2.20652
2.20311
2.20809
2.20632
2.20825
2.20806
2.20592
2.20448
2.20185
2.20386
2.2052
2.20848
2.20318
2.21005
2.20337
2.20368
2.1448
2.14662
2.14748
2.14945
2.14604
2.14534
2.14876
2.14694
2.14651
2.14641
2.14933
2.2142
2.21974
2.2128
2.21702
2.21286
2.2171
2.21774
2.2171
2.20805
2.209
2.21141
2.21736
2.20544
2.20966
2.21512
2.20972
2.20656
2.21571
2.21436
2.20783
2.15646
2.15534
2.15911
2.15499
2.15914
2.1638
2.159
2.15308
2.16581
2.16251
2.16043
2.16132
2.16228
2.1624
2.1729
2.17302
2.17045
2.16717
2.17164
2.1702
2.17788
2.17665
2.17052
2.1711
2.17096
2.16632
2.17021
2.23081
2.23275
2.2374
2.22898
2.23391
2.23693
2.22345
2.12708
2.13025
2.13078
2.13084
2.12669
2.12918
2.20351
2.20123
2.19882
2.19756
2.19384
2.19708
2.20324
2.20581
2.20271
2.20282
2.20184
2.14096
2.13708
2.14254
2.14523
2.14466
2.14542
2.14615
2.14376
2.14453
2.13965
2.14018
2.14457
2.15067
2.14518
2.14782
2.14436
2.14574
2.13984
2.14379
2.12854
2.12953
2.13029
2.12972
2.12533
2.12885
2.1329
2.13055
2.12973
2.12718
2.12565
2.12684
2.12386
2.15013
2.15304
2.15043
2.15318
2.15532
2.15177
2.1501
2.15595
2.15335
2.15388
2.15118
2.15722
2.15701
2.15678
2.14421
2.14436
2.15067
2.15141
2.1424
2.14557
2.15343
2.15528
2.15311
2.15241
2.15222
2.14968
2.15188
2.15345
2.15555
2.15743
2.15366
2.15601
2.15531
2.23126
2.23367
2.23983
2.22984
2.23736
2.23586
2.23734
2.24706
2.2353
2.23432
2.23235
2.23036
2.23932
2.24447
2.22665
2.23345
2.1371
2.13645
2.13224
2.1359
2.14053
2.13834
2.13372
2.1392
2.14231
2.14131
2.14052
2.13943
2.13907
2.13752
2.14053
2.14041
2.14027
2.13857
2.144
2.17776
2.1798
2.1709
2.1764
2.17227
2.17183
2.1783
2.17796
2.17266
2.17563
2.17424
2.21822
2.21776
2.21319
2.21518
2.21369
2.21623
2.217
2.22128
2.21244
2.2118
2.2105
2.21457
2.21703
2.21681
2.21777
2.20933
2.20804
2.21632
2.21318
2.21538
2.21675
2.21051
2.20929
2.20936
2.15862
2.15822
2.15986
2.15977
2.15758
2.15475
2.16444
2.16178
2.15982
2.16215
2.1572
2.15259
2.15429
2.1573
2.15937
2.15448
2.15863
2.1592
2.15566
2.14803
2.15161
2.15226
2.15212
2.15779
2.15282
2.14688
2.15546
2.15165
2.15177
2.15691
2.14826
2.15417
2.16244
2.15251
2.1608
2.15336
2.22703
2.232
2.23872
2.22984
2.22604
2.22717
2.23437
2.23639
2.23722
2.15406
2.15259
2.15504
2.15537
2.15434
2.15026
2.15711
2.15779
2.15661
2.15946
2.15306
2.154
2.15488
2.1523
2.15197
2.15771
2.16922
2.16404
2.16082
2.16858
2.16576
2.16971
2.16218
2.15663
2.16083
2.16507
2.16428
2.16471
2.17073
2.16384
2.16173
2.163
2.15739
2.16195
2.16625
2.16627
2.17088
2.20811
2.20941
2.21209
2.21066
2.21138
2.21061
2.20981
2.20779
2.20912
2.2132
2.21379
2.21102
2.21052
2.20895
2.20772
2.20937
2.21012
2.2141
2.21312
2.21103
2.21407
2.20757
2.20471
2.20135
2.2026
2.20551
2.20568
2.205
2.20566
2.20084
2.20377
2.20624
2.20699
2.20733
2.20233
2.21649
2.21554
2.21005
2.21031
2.21217
2.21851
2.21662
2.21756
2.21598
2.21762
2.2162
2.21951
2.21487
2.2166
2.21823
2.217
2.21457
2.15651
2.15656
2.1531
2.15239
2.15637
2.14907
2.1597
2.15979
2.14643
2.15267
2.15437
2.15487
2.15417
2.15616
2.15083
2.14327
2.15697
2.22271
2.22495
2.21905
2.21933
2.22156
2.22425
2.22731
2.2347
2.22008
2.22193
2.2307
2.23273
2.23213
2.23098
2.23896
2.24088
2.1894
2.18308
2.18835
2.18279
2.18826
2.18661
2.19118
2.18496
2.18403
2.1925
2.19074
2.19044
2.18423
2.18871
2.19226
2.17065
2.17224
2.16966
2.17753
2.1738
2.16807
2.1684
2.18006
2.17027
2.17429
2.18105
2.17821
2.18746
2.1736
2.17024
2.17563
2.19902
2.19817
2.20978
2.14173
2.14407
2.14038
2.16713
2.16633
2.2462
2.24427
2.23773
2.17852
2.17439
2.17619
2.13905
2.13471
2.13416
2.1617
2.16403
2.26552
2.26874
2.26115
2.26616
2.20007
2.19772
2.20868
2.23692
2.23132
2.15765
2.16011
2.15532
2.2175
2.20964
2.21679
2.21957
2.2222
2.21542
2.23171
2.22875
2.19395
2.1933
2.1855
2.18625
2.1911
2.2085
2.20486
2.20972
2.13851
2.14158
2.16112
2.15426
2.16131
2.20556
2.20278
2.18369
2.18455
2.15123
2.14723
2.24175
2.23649
2.23314
2.15214
2.14498
2.15212
2.1728
2.1802
2.17504
2.17964
2.2292
2.22847
2.17096
2.16742
2.16972
2.16104
2.16324
2.16533
2.19905
2.20419
2.20164
2.26739
2.26673
2.22222
2.21939
2.21728
2.22393
2.17221
2.169
2.17094
2.17993
2.17586
2.18299
2.14675
2.14889
2.21768
2.21904
2.21501
2.19149
2.18283
2.18287
2.198
2.20137
2.18679
2.19115
2.20153
2.16423
2.16209
2.21468
2.22096
2.21822
2.24554
2.25008
2.24112
2.18269
2.18325
2.15647
2.15437
2.17133
2.16989
2.19836
2.19392
2.19019
2.25812
2.26603
2.2632
2.22525
2.22544
2.21505
2.21389
2.20124
2.20513
2.21174
2.15124
2.15163
2.15696
2.20735
2.20901
2.23795
2.24199
2.1833
2.18276
2.18439
2.16927
2.17191
2.14856
2.15045
2.14981
2.15195
2.16723
2.16795
2.18471
2.18801
2.18907
2.14609
2.1366
2.13326
2.13812
2.1714
2.16585
2.17122
2.23134
2.23446
2.22986
2.21707
2.23193
2.21539
2.21667
2.22499
2.22475
2.22492
2.23323
2.24432
2.22681
2.2479
2.23566
2.17612
2.17305
2.17115
2.1706
2.15851
2.16697
2.16488
2.1752
2.17519
2.16879
2.17279
2.17525
2.17053
2.17069
2.16879
2.16732
2.17019
2.16271
2.16403
2.16332
2.16692
2.16766
2.16497
2.16546
2.17796
2.17565
2.17461
2.16655
2.16781
2.17556
2.17329
2.1407
2.13457
2.13978
2.12831
2.13433
2.14641
2.14903
2.1395
2.14221
2.14218
2.13782
2.13771
2.13487
2.14293
2.13998
2.14417
2.13785
2.13652
2.13223
2.13256
2.12957
2.14335
2.14009
2.13273
2.13265
2.18353
2.19202
2.18903
2.1924
2.19081
2.18871
2.17816
2.17899
2.17711
2.18091
2.18518
2.18293
2.18455
2.18418
2.19891
2.19523
2.19461
2.1948
2.1951
2.18413
2.19794
2.19696
2.18898
2.18408
2.18872
2.19037
2.17576
2.171
2.17262
2.16896
2.16798
2.15842
2.16636
2.16116
2.16122
2.16516
2.16597
2.16987
2.16582
2.17186
2.16842
2.17294
2.17136
2.16681
2.17144
2.15774
2.16299
2.16909
2.16268
2.16356
2.16897
2.16551
2.16553
2.16714
2.14304
2.14314
2.15717
2.15756
2.14724
2.14799
2.15455
2.15302
2.14904
2.14692
2.15108
2.14996
2.15512
2.16139
2.15335
2.15448
2.15512
2.15487
2.15594
2.15334
2.15149
2.16844
2.16151
2.16219
2.17653
2.17008
2.16903
2.16988
2.16134
2.15609
2.16363
2.17187
2.16419
2.17845
2.17117
2.18449
2.18242
2.18327
2.18485
2.18453
2.19549
2.19442
2.18336
2.18743
2.18176
2.24708
2.25108
2.25039
2.24404
2.24487
2.22765
2.22809
2.22719
2.23469
2.23304
2.2495
2.23621
2.22835
2.22446
2.23398
2.23601
2.13543
2.13523
2.13733
2.13534
2.13209
2.13397
2.13166
2.13194
2.12985
2.13328
2.13137
2.20353
2.20246
2.20107
2.20019
2.21178
2.20669
2.21004
2.20933
2.21269
2.21211
2.20189
2.20779
2.21032
2.20269
2.20383
2.20348
2.20639
2.20805
2.21367
2.2084
2.21213
2.21021
2.21365
2.20941
2.21008
2.14431
2.14333
2.15583
2.14969
2.14884
2.13955
2.14876
2.14107
2.14883
2.15201
2.14794
2.15086
2.14421
2.13662
2.14719
2.14568
2.15229
2.14367
2.14407
2.14485
2.15756
2.1578
2.15709
2.14676
2.14105
2.15454
2.14669
2.1477
2.1427
2.15188
2.15124
2.1995
2.21112
2.21503
2.21061
2.20297
2.19913
2.20936
2.20677
2.20843
2.21136
2.20614
2.20643
2.2093
2.19302
2.20302
2.19589
2.19756
2.20163
2.20203
2.19707
2.18975
2.19924
2.23199
2.2221
2.22226
2.20929
2.23421
2.2157
2.20498
2.20866
2.20446
2.21839
2.21345
2.21247
2.2107
2.20451
2.20282
2.22207
2.22006
2.24585
2.24084
2.24146
2.24371
2.2358
2.23176
2.20974
2.21157
2.23215
2.23472
2.23121
2.2296
2.24402
2.23597
2.23069
2.22999
2.22935
2.22868
2.23088
2.22826
2.23015
2.2266
2.22402
2.21885
2.21811
2.22634
2.22998
2.21658
2.2238
2.22267
2.22733
2.2267
2.21216
2.20907
2.21955
2.21551
2.22087
2.2191
2.22109
2.2778
2.27444
2.28583
2.27901
2.27639
2.27209
2.24189
2.25556
2.2539
2.25422
2.24814
2.26934
2.26399
2.25487
2.26227
2.26378
2.26568
2.26215
2.25601
2.25204
2.25938
2.24961
2.26163
2.27418
2.26152
2.26954
2.26375
2.27791
2.26977
2.26686
2.26657
2.25666
2.25708
2.27557
2.19215
2.18157
2.19667
2.19093
2.1914
2.19234
2.20517
2.19785
2.21242
2.19454
2.19506
2.20436
2.20294
2.15712
2.1674
2.16081
2.17734
2.17292
2.17693
2.17455
2.17082
2.17496
2.17301
2.17711
2.1768
2.15529
2.15937
2.15632
2.15663
2.15542
2.15545
2.14982
2.15994
2.15154
2.14862
2.14071
2.14627
2.17476
2.17925
2.18133
2.17556
2.17777
2.17588
2.1718
2.17161
2.17721
2.17615
2.18002
2.18016
2.18386
2.1788
2.18199
2.1825
2.18022
2.1809
2.23725
2.23996
2.24521
2.23271
2.26104
2.25945
2.25385
2.25735
2.24004
2.24113
2.24581
2.24718
2.24375
2.2599
2.25599
2.24644
2.24768
2.2624
2.25725
2.24634
2.24514
2.25162
2.24786
2.20486
2.20691
2.21435
2.21845
2.21445
2.21336
2.21242
2.21734
2.20744
2.21473
2.21663
2.21149
2.20721
2.21286
2.20971
2.2068
2.20674
2.20667
2.20386
2.26648
2.2749
2.2696
2.26925
2.26838
2.27027
2.26571
2.25535
2.16978
2.16663
2.16565
2.15758
2.16065
2.16345
2.16366
2.16233
2.16528
2.15851
2.15853
2.15971
2.15971
2.15947
2.16525
2.16419
2.16141
2.16214
2.18953
2.18868
2.20592
2.20178
2.20251
2.20462
2.20112
2.19935
2.19741
2.19762
2.1981
2.19997
2.19365
2.19075
2.19399
2.19218
2.18309
2.18688
2.1831
2.18906
2.19182
2.18694
2.18623
2.18428
2.18766
2.19458
2.18936
2.21724
2.20979
2.21904
2.21013
2.21455
2.21276
2.20964
2.19707
2.20218
2.20621
2.20165
2.20667
2.20917
2.20121
2.20382
2.20064
2.20218
2.20259
2.19135
2.1963
2.19129
2.19598
2.20301
2.19958
2.20183
2.19657
2.19609
2.19736
2.20024
2.19525
2.19926
2.19907
2.19097
2.17808
2.18515
2.19387
2.19332
2.18914
2.18685
2.17653
2.17527
2.19176
2.19494
2.18547
2.20225
2.19328
2.19037
2.21438
2.21787
2.21452
2.21502
2.21236
2.21558
2.21317
2.22267
2.22708
2.21569
2.21613
2.2197
2.21855
2.22628
2.21897
2.21932
2.22167
2.22005
2.2207
2.22579
2.20797
2.21444
2.21346
2.20489
2.20818
2.20581
2.20533
2.20612
2.21181
2.21088
2.21103
2.20952
2.1435
2.14324
2.14373
2.13787
2.14679
2.14543
2.14587
2.15051
2.14818
2.14363
2.14906
2.14993
2.14274
2.14301
2.1881
2.17798
2.19013
2.18012
2.18562
2.18354
2.18077
2.17539
2.17845
2.17835
2.17182
2.17472
2.18045
2.17035
2.17928
2.17614
2.1727
2.17357
2.17676
2.17315
2.17413
2.16828
2.17548
2.18392
2.18354
2.17616
2.17313
2.18503
2.18388
2.1734
2.17469
2.17296
2.17042
2.18137
2.18209
2.17666
2.17263
2.17232
2.17858
2.17128
2.1709
2.17086
2.17293
2.173
2.16652
2.17287
2.16664
2.16476
2.17277
2.16765
2.17249
2.17128
2.16739
2.1653
2.16414
2.16929
2.17038
2.16994
2.171
2.16806
2.16743
2.16898
2.1681
2.21332
2.21245
2.21441
2.21843
2.2185
2.21482
2.22202
2.21594
2.21951
2.2185
2.21622
2.22211
2.22632
2.22517
2.227
2.22071
2.22218
2.22384
2.22214
2.22405
2.25683
2.25644
2.25588
2.25045
2.25635
2.25447
2.26027
2.25944
2.25813
2.27555
2.28338
2.27242
2.26684
2.26486
2.27371
2.28112
2.27121
2.27
2.26237
2.24952
2.24994
2.25712
2.26428
2.26007
2.26011
2.25441
2.25844
2.26302
2.13931
2.20567
2.19617
2.20559
2.20864
2.20181
2.20211
2.1975
2.20052
2.20195
2.20068
2.14417
2.13812
2.14132
2.15863
2.15666
2.15963
2.15944
2.16273
2.16605
2.16068
2.15886
2.15773
2.16026
2.16165
2.14768
2.13937
2.14009
2.13544
2.14005
2.13735
2.13589
2.13373
2.13648
2.18065
2.17293
2.16851
2.17543
2.15617
2.16319
2.16647
2.15988
2.16429
2.16477
2.15933
2.16646
2.16209
2.16233
2.16448
2.16392
2.17096
2.1696
2.16499
2.15979
2.17435
2.17329
2.167
2.16779
2.16752
2.16413
2.16805
2.17141
2.17131
2.21913
2.22457
2.21938
2.21902
2.2219
2.22475
2.22381
2.22533
2.22431
2.22551
2.22396
2.22446
2.23122
2.22474
2.22816
2.22927
2.22902
2.23553
2.22785
2.23187
2.23185
2.23475
2.2321
2.22997
2.23273
2.23733
2.23081
2.22966
2.22636
2.22373
2.22697
2.23217
2.23101
2.2206
2.22565
2.18008
2.17945
2.18479
2.18441
2.17902
2.14761
2.14042
2.14291
2.13642
2.15327
2.15844
2.14872
2.1499
2.14777
2.1459
2.14282
2.15272
2.14117
2.14672
2.14889
2.15074
2.15062
2.15001
2.15629
2.15711
2.15588
2.23735
2.23906
2.23202
2.23683
2.23364
2.24133
2.24401
2.24876
2.25319
2.24911
2.23244
2.23985
2.24228
2.23907
2.23592
2.23513
2.22489
2.22416
2.21795
2.23187
2.23029
2.15145
2.15412
2.15768
2.14733
2.15806
2.16254
2.16148
2.16128
2.15011
2.1596
2.15092
2.14816
2.15591
2.15161
2.15032
2.15225
2.14275
2.14674
2.14908
2.142
2.15151
2.14912
2.14656
2.1447
2.15197
2.15723
2.15522
2.14408
2.15498
2.15042
2.14291
2.14459
2.14157
2.1395
2.15421
2.15187
2.14814
2.14984
2.18844
2.18116
2.1925
2.18861
2.18775
2.19032
2.18494
2.1904
2.19031
2.18834
2.18665
2.18528
2.18588
2.18189
2.18007
2.17934
2.17609
2.18342
2.18333
2.18137
2.18191
2.18136
2.18579
2.18426
2.18316
2.1925
2.18734
2.18378
2.18349
2.186
2.18555
2.18986
2.19067
2.18702
2.18763
2.18515
2.18521
2.18385
2.18326
2.20096
2.19908
2.2036
2.20104
2.20145
2.2022
2.20333
2.20842
2.21316
2.208
2.20733
2.20112
2.20487
2.20993
2.20614
2.20462
2.20881
2.20683
2.16495
2.1727
2.16566
2.16106
2.15676
2.16373
2.16021
2.15735
2.15453
2.15999
2.16715
2.16034
2.164
2.15794
2.16296
2.16376
2.17068
2.16617
2.1634
2.1361
2.13839
2.14928
2.13878
2.13608
2.13679
2.14006
2.13782
2.13764
2.22065
2.21321
2.21739
2.20656
2.20121
2.20537
2.20436
2.21632
2.2101
2.21691
2.20661
2.20918
2.21033
2.20965
2.2143
2.21393
2.21146
2.20821
2.20658
2.21116
2.21452
2.21835
2.20582
2.20624
2.20375
2.20436
2.21247
2.21158
2.1752
2.18785
2.18602
2.18539
2.18645
2.18533
2.1857
2.18326
2.18291
2.18827
2.19496
2.19188
2.1899
2.18815
2.189
2.19093
2.18846
2.19121
2.19127
2.19895
2.19233
2.18302
2.18039
2.18291
2.17896
2.17557
2.18114
2.18358
2.19724
2.20225
2.20209
2.19739
2.19508
2.1943
2.19377
2.19176
2.19657
2.1988
2.19126
2.19197
2.19096
2.19167
2.19525
2.1958
2.19387
2.19496
2.19437
2.18939
2.19183
2.19243
2.19142
2.1912
2.22199
2.21953
2.23087
2.23057
2.23558
2.23491
2.23016
2.22822
2.22122
2.22045
2.21643
2.22238
2.22311
2.22564
2.22754
2.22977
2.22585
2.22582
2.23201
2.22601
2.22572
2.21745
2.21924
2.21527
2.20809
2.22072
2.22038
2.23013
2.20899
2.19762
2.19518
2.20128
2.19593
2.20982
2.20556
2.20808
2.20988
2.20057
2.19559
2.20877
2.20478
2.20302
2.20522
2.21069
2.20783
2.21748
2.21771
2.21113
2.21214
2.21449
2.22663
2.22225
2.15164
2.15343
2.15097
2.15407
2.15569
2.15624
2.15949
2.15925
2.15733
2.15878
2.15589
2.15647
2.22914
2.23213
2.22965
2.23726
2.23743
2.2433
2.23545
2.23753
2.24968
2.23402
2.24874
2.24209
2.25269
2.25061
2.24321
2.25244
2.24553
2.24717
2.24323
2.19181
2.19745
2.19933
2.1902
2.18995
2.19502
2.19779
2.19962
2.20409
2.19355
2.19543
2.20183
2.19709
2.20233
2.20573
2.20929
2.19632
2.19337
2.19289
2.2034
2.20606
2.20914
2.19123
2.19783
2.19271
2.19498
2.19148
2.1859
2.1972
2.19806
2.1396
2.14315
2.13578
2.14435
2.14663
2.1468
2.14839
2.15083
2.14298
2.14569
2.13724
2.14399
2.14118
2.14317
2.14716
2.1418
2.16115
2.17359
2.16499
2.16565
2.16604
2.15376
2.14987
2.15678
2.15163
2.16123
2.15986
2.16236
2.15669
2.16033
2.16026
2.15625
2.15554
2.164
2.15482
2.15789
2.16354
2.16095
2.14357
2.14435
2.13913
2.13697
2.14034
2.14334
2.13735
2.14086
2.14034
2.13601
2.13795
2.14182
2.139
2.13728
2.13643
2.13841
2.13819
2.17588
2.16846
2.16836
2.17165
2.17279
2.17363
2.17954
2.17625
2.17403
2.1745
2.17743
2.18084
2.24859
2.24634
2.24068
2.2565
2.2586
2.25499
2.26023
2.25733
2.25125
2.23718
2.25196
2.24483
2.24401
2.24748
2.24739
2.24353
2.24638
2.244
2.17042
2.17055
2.15971
2.16469
2.16514
2.16009
2.15962
2.16133
2.16056
2.16475
2.14656
2.14855
2.14435
2.14405
2.1363
2.13935
2.1394
2.1415
2.13818
2.13552
2.14027
2.14086
2.14211
2.1462
2.14381
2.14352
2.14136
2.14332
2.14339
2.14476
2.14151
2.14197
2.14777
2.14686
2.21236
2.20213
2.20155
2.2105
2.20222
2.1948
2.19742
2.19631
2.18899
2.19771
2.20015
2.19406
2.1976
2.19295
2.18935
2.19566
2.19654
2.19592
2.19104
2.13765
2.14364
2.1342
2.13578
2.14296
2.14214
2.14052
2.14248
2.14062
2.14951
2.15103
2.14743
2.14506
2.14728
2.14705
2.14227
2.14
2.13879
2.14473
2.14464
2.13731
2.13879
2.13746
2.13442
2.13828
2.13867
2.13727
2.13865
2.15361
2.15442
2.15317
2.15607
2.15334
2.15106
2.14893
2.14893
2.14923
2.14814
2.14753
2.14584
2.14623
2.1491
2.13429
2.22165
2.21545
2.2143
2.21794
2.20912
2.2073
2.20164
2.20803
2.2048
2.21034
2.20602
2.21066
2.2056
2.23551
2.23384
2.23631
2.22741
2.22583
2.21743
2.21835
2.21949
2.19581
2.18932
2.19256
2.19139
2.19246
2.17959
2.17452
2.17965
2.17799
2.18186
2.1818
2.17428
2.17712
2.17674
2.17178
2.17637
2.1714
2.18851
2.19142
2.18736
2.19187
2.18681
2.18746
2.19107
2.22173
2.21388
2.2102
2.21921
2.21988
2.21625
2.21343
2.21671
2.21667
2.21439
2.21579
2.21584
2.22163
2.22245
2.21798
2.21724
2.22479
2.22233
2.21423
2.21264
2.13879
2.14103
2.13826
2.13785
2.13649
2.12643
2.12424
2.16732
2.16593
2.16358
2.16546
2.16324
2.16708
2.17733
2.16967
2.16665
2.15796
2.16781
2.16461
2.16628
2.15863
2.15501
2.15536
2.16258
2.16072
2.18409
2.18526
2.18519
2.19106
2.19241
2.19038
2.18992
2.18525
2.18612
2.18941
2.19028
2.18587
2.18647
2.184
2.18555
2.18695
2.17684
2.17908
2.18551
2.17866
2.18569
2.18661
2.18052
2.17893
2.18622
2.1857
2.13983
2.1448
2.14995
2.13496
2.14491
2.14194
2.14392
2.1441
2.15025
2.13373
2.16505
2.15718
2.15479
2.16206
2.16303
2.16026
2.15923
2.15451
2.15351
2.15628
2.15428
2.15345
2.14923
2.15905
2.15777
2.17411
2.16879
2.1704
2.17298
2.17912
2.17211
2.17003
2.17464
2.17896
2.17344
2.1733
2.17797
2.17335
2.18319
2.18034
2.1884
2.18787
2.18958
2.18234
2.16722
2.17005
2.1629
2.16221
2.16696
2.1647
2.16674
2.1683
2.1657
2.16406
2.17231
2.16422
2.16637
2.16862
2.16152
2.16762
2.18117
2.17219
2.17109
2.17086
2.17164
2.18212
2.18423
2.18244
2.14726
2.14023
2.13652
2.13966
2.1417
2.13435
2.14713
2.14505
2.14419
2.14294
2.19233
2.194
2.19559
2.20187
2.20126
2.19859
2.20181
2.20024
2.19986
2.19394
2.22171
2.21865
2.21485
2.221
2.22039
2.21682
2.21768
2.21497
2.21642
2.21608
2.21093
2.20701
2.2117
2.21225
2.21421
2.20968
2.21313
2.21218
2.21249
2.16443
2.16507
2.16745
2.17142
2.16704
2.16805
2.16683
2.17812
2.18165
2.17348
2.18019
2.17905
2.17992
2.17596
2.17309
2.17295
2.17264
2.17486
2.17074
2.17014
2.17214
2.16629
2.17478
2.17787
2.1776
2.18211
2.19056
2.17805
2.18426
2.18502
2.18447
2.18909
2.18322
2.18509
2.19654
2.19243
2.15292
2.14747
2.15686
2.15648
2.15587
2.15008
2.14728
2.21978
2.21795
2.22411
2.222
2.22992
2.23103
2.22413
2.2245
2.22295
2.22488
2.22464
2.21124
2.21619
2.21657
2.21303
2.21278
2.21122
2.21796
2.21513
2.21618
2.21613
2.21829
2.21687
2.22159
2.2172
2.18226
2.18575
2.19651
2.19705
2.18933
2.18877
2.19159
2.1962
2.18712
2.18116
2.18838
2.1881
2.18188
2.19154
2.18961
2.1955
2.19332
2.20319
2.1972
2.19377
2.19177
2.19572
2.19771
2.19683
2.2149
2.21418
2.21796
2.20384
2.21193
2.20368
2.20168
2.19952
2.20527
2.20635
2.20438
2.20351
2.17373
2.17331
2.17846
2.17955
2.1803
2.18122
2.18047
2.18079
2.18237
2.18679
2.18123
2.16257
2.16251
2.16064
2.15719
2.15221
2.1598
2.15707
2.1583
2.16415
2.15922
2.16005
2.15834
2.25798
2.2531
2.14695
2.15192
2.14906
2.14498
2.14749
2.14769
2.14241
2.13899
2.1458
2.1536
2.1482
2.14574
2.14641
2.2648
2.26119
2.25439
2.24209
2.24615
2.24588
2.24961
2.24376
2.25633
2.25318
2.25526
2.25802
2.25428
2.25295
2.25677
2.2578
2.26828
2.26206
2.26412
2.25632
2.26099
2.26732
2.26668
2.26563
2.26675
2.2721
2.26945
2.27041
2.27248
2.2629
2.26915
2.26451
2.26749
2.26681
2.26441
2.25981
2.25544
2.25865
2.25825
2.24607
2.25461
2.24686
2.251
2.25161
2.21634
2.21479
2.22082
2.22173
2.22007
2.2151
2.21777
2.21306
2.21824
2.21023
2.21037
2.20187
2.21007
2.2035
2.19974
2.20379
2.21242
2.20689
2.20899
2.21087
2.20623
2.20951
2.19649
2.203
2.21306
2.2169
2.2166
2.21327
2.21859
2.21675
2.22082
2.22277
2.22283
2.22284
2.22365
2.22379
2.22252
2.22672
2.22489
2.15274
2.14625
2.14827
2.1487
2.14317
2.14202
2.14742
2.14254
2.14482
2.15072
2.14893
2.15345
2.1442
2.21833
2.21852
2.21541
2.21234
2.21426
2.20894
2.21598
2.20098
2.20621
2.20623
2.20504
2.20204
2.20323
2.20274
2.20364
2.20251
2.141
2.14156
2.13733
2.13579
2.13422
2.14093
2.14054
2.13529
2.13397
2.13233
2.13401
2.13528
2.23658
2.24003
2.23872
2.2392
2.23223
2.23597
2.23746
2.18223
2.18032
2.17923
2.1854
2.18224
2.19129
2.18743
2.17926
2.17485
2.18245
2.17737
2.18222
2.18172
2.17712
2.17978
2.18015
2.17366
2.17882
2.17484
2.17456
2.17998
2.17998
2.16597
2.17217
2.1689
2.16869
2.16664
2.16197
2.16511
2.18162
2.17284
2.17389
2.17594
2.171
2.18184
2.17899
2.16914
2.17038
2.17746
2.17506
2.18392
2.17963
2.179
2.1732
2.17098
2.17237
2.1708
2.18461
2.17901
2.14706
2.14402
2.13896
2.14229
2.1448
2.14442
2.14686
2.14549
2.14542
2.15536
2.15264
2.14996
2.1571
2.15459
2.15444
2.15347
2.15714
2.1601
2.16405
2.16705
2.15931
2.16491
2.16233
2.16175
2.15717
2.18476
2.18724
2.18328
2.18609
2.18747
2.19312
2.19343
2.1877
2.19454
2.19699
2.18978
2.18972
2.19187
2.19626
2.19966
2.1976
2.1905
2.18647
2.19811
2.20135
2.19932
2.19478
2.19605
2.18209
2.18366
2.18314
2.18661
2.18425
2.18475
2.17758
2.18079
2.18281
2.18668
2.18463
2.18502
2.23671
2.23984
2.24042
2.245
2.23646
2.25497
2.24893
2.24887
2.2459
2.24483
2.24163
2.18692
2.18843
2.19268
2.18017
2.18875
2.18863
2.18667
2.18028
2.18347
2.1777
2.18282
2.17923
2.18316
2.26623
2.27749
2.27239
2.26437
2.26498
2.22126
2.22162
2.21968
2.22065
2.21424
2.22862
2.2212
2.19009
2.19198
2.18721
2.18827
2.14022
2.13056
2.13046
2.13003
2.12717
2.13059
2.13021
2.13372
2.13264
2.13717
2.1397
2.13214
2.13536
2.20467
2.20675
2.20509
2.2048
2.20933
2.2019
2.1993
2.19778
2.20504
2.2043
2.21203
2.21252
2.13459
2.13302
2.12797
2.13349
2.13424
2.13215
2.13381
2.13403
2.13213
2.13098
2.22171
2.22112
2.22432
2.22389
2.21991
2.24212
2.22908
2.22055
2.212
2.21068
2.234
2.23426
2.16459
2.16358
2.16356
2.14178
2.13957
2.1376
2.1306
2.13122
2.13226
2.16622
2.16987
2.1665
2.16838
2.16439
2.16678
2.17058
2.16782
2.16877
2.15165
2.15858
2.15905
2.16139
2.16084
2.15855
2.16053
2.16195
2.16815
2.17194
2.17172
2.16177
2.16612
2.1638
2.16035
2.16261
2.16925
2.16708
2.16829
2.16917
2.17067
2.17166
2.16703
2.17313
2.14315
2.14469
2.14289
2.14899
2.14731
2.14631
2.14505
2.14296
2.14124
2.14648
2.1552
2.15345
2.16809
2.16236
2.16569
2.16372
2.16195
2.15462
2.15683
2.16515
2.16507
2.17016
2.1722
2.17512
2.17111
2.17086
2.18225
2.17854
2.17535
2.17686
2.1712
2.17269
2.17497
2.17232
2.20321
2.20665
2.14316
2.20209
2.2047
2.20102
2.19761
2.19641
2.1901
2.19069
2.19506
2.20462
2.20391
2.2001
2.1983
2.19781
2.20071
2.19845
2.22711
2.22661
2.22493
2.22455
2.23025
2.2251
2.22957
2.23478
2.23747
2.24001
2.23059
2.23035
2.23065
2.21976
2.22798
2.24569
2.24353
2.2404
2.23357
2.15156
2.15336
2.15918
2.15979
2.15287
2.15274
2.16121
2.15653
2.15105
2.14921
2.14727
2.14415
2.14769
2.14722
2.15298
2.15263
2.14752
2.14353
2.14296
2.1498
2.14952
2.17861
2.1801
2.17513
2.17504
2.18001
2.17887
2.18082
2.1822
2.18149
2.17898
2.1854
2.18042
2.26316
2.27668
2.27749
2.27869
2.27811
2.26195
2.26134
2.25217
2.25562
2.2608
2.25956
2.26233
2.16671
2.17202
2.16451
2.16454
2.16906
2.17499
2.16864
2.16493
2.16444
2.16894
2.1685
2.17125
2.17056
2.17261
2.17198
2.15715
2.14597
2.1546
2.15273
2.15372
2.14971
2.1693
2.1724
2.17005
2.17073
2.18189
2.17996
2.17628
2.18144
2.17827
2.17923
2.17747
2.1827
2.18287
2.17939
2.1862
2.18619
2.18237
2.18434
2.18311
2.18681
2.18961
2.18782
2.18113
2.19063
2.18062
2.17918
2.18904
2.1934
2.19989
2.19329
2.19174
2.20135
2.19786
2.19823
2.19532
2.19718
2.19963
2.19708
2.19577
2.20087
2.19292
2.19874
2.19869
2.19866
2.19793
2.19796
2.18831
2.19299
2.19778
2.19614
2.17567
2.18317
2.17489
2.17683
2.18209
2.1812
2.21946
2.21801
2.21677
2.21263
2.21223
2.21701
2.22119
2.22011
2.21042
2.20873
2.21164
2.21766
2.21472
2.21565
2.24521
2.24546
2.24584
2.24941
2.24856
2.255
2.25101
2.25536
2.24758
2.25087
2.2591
2.25376
2.25555
2.25811
2.16341
2.16077
2.15991
2.15924
2.16148
2.13889
2.13996
2.18191
2.18021
2.17865
2.18111
2.18802
2.17866
2.18181
2.17705
2.17429
2.19206
2.18576
2.1819
2.1807
2.17715
2.18827
2.19066
2.19092
2.14814
2.14678
2.15613
2.16348
2.15835
2.15557
2.15506
2.15298
2.23089
2.23353
2.23445
2.22901
2.22775
2.23552
2.2389
2.23311
2.23448
2.13657
2.14142
2.1438
2.13894
2.14266
2.14672
2.14288
2.1437
2.13679
2.13992
2.14896
2.15172
2.15378
2.15013
2.15234
2.14308
2.14632
2.15044
2.15092
2.20343
2.20113
2.2046
2.20199
2.20262
2.20282
2.20363
2.20375
2.20251
2.20638
2.20731
2.20987
2.20619
2.20784
2.20857
2.2092
2.20528
2.20447
2.20648
2.21447
2.21458
2.21664
2.21577
2.21393
2.21577
2.2111
2.21191
2.21075
2.20705
2.20901
2.20831
2.2104
2.2093
2.20007
2.20781
2.21401
2.20906
2.20965
2.20098
2.20302
2.20595
2.20606
2.205
2.20479
2.15396
2.15439
2.19855
2.19818
2.19388
2.19005
2.19889
2.19925
2.20125
2.2055
2.21289
2.206
2.21198
2.21234
2.21026
2.21815
2.22039
2.19006
2.19306
2.2316
2.23698
2.2454
2.24172
2.23814
2.22532
2.22704
2.22616
2.22943
2.22969
2.22962
2.22562
2.23097
2.22599
2.2094
2.20363
2.20712
2.20894
2.20117
2.20888
2.20377
2.20763
2.20686
2.21338
2.22169
2.2215
2.22007
2.21728
2.2169
2.22286
2.21927
2.21755
2.15751
2.15951
2.15416
2.21447
2.21164
2.22663
2.21659
2.21518
2.22694
2.22323
2.22657
2.22472
2.23373
2.23436
2.23385
2.23223
2.23344
2.22716
2.22574
2.22814
2.2208
2.24304
2.239
2.23672
2.23753
2.2365
2.23737
2.23513
2.23493
2.23308
2.22975
2.18846
2.19394
2.19457
2.14896
2.14666
2.15356
2.14936
2.14721
2.14959
2.15173
2.14533
2.16131
2.16089
2.1623
2.15715
2.15758
2.16044
2.16102
2.15996
2.15692
2.14259
2.1374
2.25732
2.25583
2.25441
2.25171
2.24218
2.2478
2.24877
2.21631
2.2165
2.21698
2.21915
2.21831
2.21713
2.21701
2.22677
2.22606
2.2176
2.22266
2.21306
2.21743
2.2175
2.21382
2.21467
2.12675
2.13977
2.13622
2.13707
2.13894
2.15423
2.14798
2.14486
2.14451
2.14148
2.14593
2.14415
2.14379
2.14313
2.16932
2.16881
2.17051
2.1674
2.16515
2.16646
2.16891
2.16963
2.16291