/*--------------------------------*- C++ -*----------------------------------*\
| =========                 |                                                 |
| \\      /  F ield         | OpenFOAM: The Open Source CFD Toolbox           |
|  \\    /   O peration     | Version:  v1612+                                |
|   \\  /    A nd           | Web:      www.OpenFOAM.com                      |
|    \\/     M anipulation  |                                                 |
\*---------------------------------------------------------------------------*/
FoamFile
{
    version     2.0;
    format      ascii;
    class       volScalarField;
    location    "200";
    object      p;
}
// * * * * * * * * * * * * * * * * * * * * * * * * * * * * * * * * * * * * * //

dimensions      [0 2 -2 0 0 0 0];

internalField   nonuniform List<scalar> 
18946
(
0.495386
0.352752
0.437979
0.425451
0.465146
0.462386
0.464775
0.466332
0.466667
0.468928
0.468518
0.465984
0.466002
0.466337
0.468715
0.467167
0.470835
0.470835
0.466768
0.469741
0.456072
0.461043
0.448431
0.455607
0.462174
0.457986
0.457862
0.461456
0.464515
0.463166
0.45849
0.453809
0.455323
0.459956
0.453537
0.460891
0.45641
0.467922
0.461611
0.450306
0.450514
0.451345
0.447533
0.439846
0.448871
0.451186
0.444198
0.442146
0.441215
0.457494
0.451773
0.501734
0.499207
0.496275
0.499488
0.494431
0.495678
0.496555
0.499989
0.486214
0.482415
0.486402
0.483035
0.489985
0.489716
0.48231
0.46316
0.461427
0.467394
0.463059
0.467031
0.4649
0.462311
0.463919
0.46746
0.467674
0.467394
0.463103
0.459194
0.462803
0.460792
0.461483
0.488759
0.473573
0.488286
0.499139
0.478442
0.493438
0.479353
0.482361
0.479299
0.488397
0.478505
0.488868
0.498335
0.496494
0.501653
0.50012
0.495366
0.489864
0.494028
0.491098
0.485764
0.485484
0.503202
0.491158
0.505232
0.503777
0.487622
0.504031
0.491744
0.494062
0.503177
0.491598
0.502311
0.496851
0.420269
0.415139
0.426121
0.424727
0.410283
0.413311
0.41478
0.415784
0.409933
0.407313
0.415154
0.41128
0.416566
0.419901
0.413791
0.409708
0.416088
0.409835
0.416496
0.421291
0.41292
0.418855
0.4166
0.447712
0.438602
0.434532
0.434995
0.432497
0.43703
0.440206
0.446573
0.436667
0.432704
0.445945
0.442112
0.447306
0.437193
0.435515
0.440805
0.442644
0.448803
0.441272
0.440974
0.499973
0.501301
0.492109
0.48781
0.49618
0.495742
0.487059
0.487074
0.483544
0.488919
0.483389
0.480262
0.482874
0.479482
0.516434
0.516524
0.531537
0.516561
0.546245
0.546911
0.540294
0.532564
0.526089
0.541087
0.544519
0.548095
0.516184
0.518215
0.525516
0.523913
0.521319
0.548096
0.532224
0.532431
0.539407
0.536726
0.542069
0.506868
0.502713
0.506375
0.479926
0.495164
0.50802
0.504539
0.474733
0.478319
0.48085
0.477571
0.495669
0.477515
0.481189
0.495749
0.478293
0.474125
0.490003
0.44298
0.438825
0.440779
0.437069
0.441421
0.439226
0.440962
0.435147
0.444451
0.443371
0.442106
0.442293
0.442056
0.441556
0.566692
0.565512
0.579154
0.587509
0.564469
0.57235
0.58034
0.578257
0.586085
0.589202
0.512814
0.501801
0.499177
0.510134
0.518169
0.511818
0.517107
0.51572
0.487841
0.51095
0.509802
0.49691
0.49242
0.499747
0.48783
0.485253
0.486857
0.479163
0.477988
0.496608
0.430641
0.425507
0.432891
0.431966
0.43508
0.431275
0.428062
0.43204
0.434328
0.433414
0.434963
0.434358
0.430418
0.428257
0.431373
0.433698
0.429268
0.431005
0.430519
0.380246
0.379432
0.388468
0.382214
0.381395
0.385605
0.385979
0.391573
0.380626
0.383056
0.380011
0.380756
0.383479
0.383837
0.377508
0.385448
0.376813
0.380629
0.376776
0.376207
0.384476
0.385563
0.384057
0.382051
0.386029
0.384944
0.385809
0.383359
0.386417
0.398638
0.389038
0.393748
0.395156
0.385547
0.377272
0.384192
0.389539
0.393074
0.394003
0.395456
0.396392
0.419244
0.411746
0.412912
0.416512
0.419416
0.417844
0.41053
0.417567
0.417526
0.3864
0.382985
0.386705
0.388688
0.382635
0.377266
0.379595
0.384111
0.37994
0.376052
0.370574
0.375978
0.377285
0.3787
0.370913
0.381329
0.376392
0.379585
0.38324
0.375357
0.382301
0.390642
0.388107
0.385269
0.38307
0.391288
0.386643
0.392762
0.394233
0.401915
0.390596
0.405015
0.407393
0.409061
0.402242
0.403366
0.404953
0.407329
0.403271
0.416474
0.416364
0.408961
0.405187
0.411615
0.402168
0.412495
0.413806
0.416948
0.420442
0.41743
0.413089
0.415054
0.423467
0.42093
0.420658
0.410309
0.408256
0.409
0.406682
0.407321
0.402888
0.406503
0.404847
0.402771
0.399459
0.405487
0.398908
0.394095
0.404317
0.400295
0.39556
0.396602
0.40404
0.414685
0.415227
0.413301
0.413397
0.411414
0.419141
0.41946
0.426817
0.42955
0.418587
0.411438
0.418162
0.423258
0.425242
0.428196
0.420228
0.424568
0.421326
0.416181
0.423978
0.459646
0.469395
0.470962
0.456245
0.45935
0.463781
0.46155
0.462669
0.465432
0.476816
0.468671
0.458669
0.472497
0.46981
0.463399
0.467523
0.439679
0.437092
0.43374
0.439885
0.442249
0.442989
0.44152
0.438162
0.438078
0.437562
0.441172
0.44079
0.438987
0.439007
0.458241
0.456562
0.447588
0.449778
0.457898
0.454575
0.452777
0.452953
0.452073
0.457372
0.456793
0.458133
0.459423
0.458626
0.437334
0.441881
0.450653
0.449267
0.443227
0.445486
0.446699
0.456107
0.455992
0.44699
0.447668
0.446219
0.447998
0.451686
0.447719
0.448828
0.439586
0.430341
0.431355
0.432885
0.427522
0.439455
0.440518
0.436174
0.428717
0.436374
0.434549
0.437632
0.41266
0.404618
0.412837
0.412653
0.417232
0.415476
0.416514
0.410647
0.414046
0.407511
0.409903
0.413514
0.417882
0.412711
0.456935
0.455536
0.451069
0.447364
0.44426
0.445095
0.440414
0.448105
0.456034
0.440881
0.440803
0.448377
0.451442
0.458701
0.459236
0.457993
0.44648
0.452144
0.449623
0.45818
0.453472
0.461057
0.459502
0.378291
0.381711
0.376139
0.369984
0.371786
0.377011
0.379971
0.369753
0.374607
0.38273
0.378903
0.376705
0.379335
0.427452
0.433084
0.431775
0.430953
0.431931
0.436326
0.431856
0.435151
0.434151
0.436872
0.441401
0.433886
0.438069
0.435135
0.398304
0.402821
0.400498
0.390634
0.391766
0.398365
0.397848
0.397785
0.399721
0.399316
0.399272
0.398562
0.391168
0.38915
0.388654
0.39826
0.396841
0.391401
0.393237
0.396382
0.429595
0.429357
0.420134
0.424054
0.420104
0.418046
0.422612
0.428583
0.431853
0.426035
0.424647
0.427749
0.41424
0.423046
0.42919
0.418041
0.420135
0.423238
0.422022
0.422527
0.421854
0.424358
0.421273
0.464769
0.466831
0.474617
0.470376
0.460173
0.46167
0.472019
0.462633
0.458077
0.457477
0.470944
0.470446
0.464695
0.46125
0.454891
0.456714
0.453003
0.461643
0.467158
0.45676
0.460582
0.462836
0.463111
0.458165
0.455092
0.464402
0.457363
0.455339
0.446408
0.441081
0.441961
0.441798
0.451474
0.446532
0.455366
0.450626
0.458624
0.455688
0.457887
0.449062
0.446109
0.443152
0.445502
0.445794
0.452289
0.455736
0.457485
0.454592
0.459138
0.459629
0.460055
0.453035
0.466338
0.46062
0.461519
0.40595
0.406613
0.406562
0.411068
0.406638
0.409333
0.409319
0.409784
0.408154
0.404253
0.407172
0.406668
0.409226
0.410468
0.410523
0.526301
0.52873
0.524725
0.510278
0.527919
0.519744
0.530425
0.514843
0.506979
0.512985
0.511376
0.532519
0.523736
0.516795
0.509488
0.507348
0.51692
0.522903
0.509091
0.535997
0.537288
0.511239
0.533966
0.53656
0.51534
0.533453
0.469645
0.469233
0.485972
0.478843
0.483043
0.481546
0.469555
0.470935
0.480154
0.486835
0.479785
0.474792
0.481621
0.487303
0.473822
0.474587
0.478036
0.475719
0.473904
0.47015
0.474425
0.472793
0.471935
0.477684
0.477815
0.471126
0.471292
0.471596
0.471131
0.469915
0.47071
0.467431
0.4695
0.376719
0.378874
0.376764
0.376357
0.376047
0.372589
0.375517
0.382203
0.370388
0.372912
0.366847
0.374707
0.374677
0.373305
0.369778
0.38082
0.377107
0.379108
0.423466
0.425794
0.43241
0.429185
0.425714
0.425103
0.428354
0.43113
0.427248
0.423245
0.427127
0.428836
0.42903
0.428903
0.424854
0.42606
0.423441
0.426078
0.46391
0.466675
0.464781
0.465686
0.461997
0.462397
0.460799
0.459949
0.45766
0.461254
0.465326
0.464633
0.466354
0.460543
0.457117
0.456265
0.46428
0.46153
0.469758
0.465245
0.398262
0.398595
0.399543
0.39919
0.40497
0.409568
0.406951
0.404757
0.405988
0.404828
0.399243
0.405222
0.411277
0.525146
0.528368
0.534065
0.518503
0.520337
0.530945
0.523565
0.533427
0.536108
0.533894
0.534963
0.528097
0.518027
0.533972
0.534783
0.514471
0.526954
0.52532
0.513661
0.45846
0.455725
0.446178
0.451728
0.452021
0.443925
0.45012
0.452933
0.453967
0.450203
0.382236
0.37737
0.382628
0.385048
0.379906
0.374872
0.372853
0.384801
0.376813
0.390159
0.387467
0.379497
0.380371
0.390215
0.408092
0.405673
0.406519
0.397375
0.400784
0.403602
0.401636
0.410561
0.400895
0.398441
0.39596
0.399126
0.407006
0.40806
0.395128
0.399228
0.399896
0.402871
0.396214
0.404721
0.406204
0.402152
0.398126
0.405227
0.405896
0.408121
0.399307
0.404524
0.407541
0.407917
0.408619
0.407011
0.409434
0.406149
0.407926
0.408507
0.408351
0.408557
0.403422
0.410255
0.396927
0.403072
0.408959
0.399232
0.404222
0.407334
0.401166
0.40097
0.451963
0.450358
0.453108
0.451867
0.450729
0.455524
0.450553
0.451871
0.449913
0.452569
0.449775
0.455447
0.45392
0.453611
0.45046
0.450706
0.451724
0.452286
0.449282
0.391727
0.385726
0.384657
0.386353
0.392393
0.390177
0.38551
0.390913
0.385728
0.389335
0.395494
0.394616
0.394827
0.441048
0.439804
0.449911
0.444293
0.440858
0.438487
0.447827
0.442186
0.442453
0.450995
0.449129
0.438336
0.4356
0.450703
0.436156
0.446336
0.450936
0.455908
0.453486
0.449139
0.450883
0.455232
0.452814
0.451433
0.452354
0.463361
0.457446
0.45466
0.450564
0.455442
0.456557
0.452964
0.449651
0.427621
0.42161
0.43244
0.427436
0.43002
0.429884
0.429936
0.427846
0.424913
0.426782
0.413007
0.417171
0.416014
0.424052
0.421257
0.417128
0.424295
0.412918
0.416507
0.419806
0.454244
0.456736
0.454271
0.455603
0.45164
0.449421
0.457824
0.460114
0.452753
0.454946
0.533463
0.530849
0.535171
0.535812
0.528401
0.525157
0.528719
0.532219
0.516235
0.517005
0.521611
0.525984
0.515333
0.51185
0.525501
0.510197
0.510465
0.512281
0.517381
0.513792
0.500769
0.480654
0.501859
0.50056
0.506922
0.504942
0.484776
0.483964
0.493814
0.494413
0.504756
0.485746
0.500215
0.500416
0.492687
0.496969
0.490242
0.495856
0.489301
0.483585
0.494602
0.481051
0.477399
0.493376
0.495291
0.495047
0.471122
0.486726
0.481069
0.488464
0.495538
0.497233
0.4789
0.490107
0.487361
0.487332
0.487358
0.50604
0.500995
0.490072
0.484025
0.488058
0.493884
0.496743
0.505377
0.499529
0.491208
0.488991
0.483119
0.491422
0.492458
0.482837
0.488679
0.485703
0.485689
0.485086
0.445047
0.448486
0.44912
0.443064
0.448488
0.447816
0.440646
0.440906
0.44537
0.444095
0.439996
0.444856
0.431401
0.437783
0.447037
0.44946
0.433526
0.444311
0.447507
0.448254
0.443895
0.446139
0.442306
0.437886
0.446819
0.439746
0.44283
0.437613
0.43425
0.431047
0.438997
0.431206
0.437598
0.43674
0.444739
0.437086
0.440066
0.436594
0.442379
0.443482
0.442854
0.440055
0.444383
0.4428
0.439106
0.434252
0.43889
0.431159
0.433796
0.440549
0.441927
0.435221
0.436361
0.43114
0.436471
0.435265
0.436631
0.430101
0.561097
0.56247
0.570956
0.476022
0.476541
0.477293
0.47793
0.480953
0.477415
0.580632
0.476091
0.476692
0.479082
0.535697
0.544743
0.551518
0.496382
0.492168
0.55159
0.548909
0.469049
0.468615
0.470203
0.468611
0.470777
0.469998
0.469057
0.467871
0.552416
0.551164
0.461798
0.465977
0.499627
0.499676
0.510908
0.519535
0.518524
0.461839
0.46153
0.464954
0.527681
0.525241
0.538822
0.481707
0.485966
0.489791
0.493776
0.463879
0.464242
0.518349
0.52322
0.518445
0.464466
0.462625
0.463361
0.456932
0.453804
0.448085
0.459966
0.459637
0.487963
0.490598
0.458104
0.458139
0.453416
0.476163
0.487712
0.47914
0.483605
0.468505
0.509074
0.502745
0.502258
0.490862
0.457577
0.456598
0.486202
0.485496
0.458615
0.460068
0.480872
0.48365
0.477456
0.486398
0.449753
0.450586
0.453251
0.451893
0.45095
0.448804
0.465283
0.464639
0.460642
0.456533
0.45999
0.441903
0.443722
0.452562
0.443823
0.448612
0.449994
0.45359
0.459185
0.456544
0.458334
0.458193
0.454985
0.443388
0.455353
0.45349
0.457256
0.439635
0.43761
0.441689
0.442634
0.442894
0.44763
0.44766
0.444939
0.443371
0.440892
0.444165
0.44088
0.442445
0.442028
0.440038
0.435276
0.44963
0.443682
0.443151
0.436081
0.439877
0.432517
0.441372
0.442815
0.437403
0.438769
0.426672
0.425501
0.432517
0.425568
0.428199
0.433712
0.424795
0.424687
0.414632
0.424478
0.42262
0.427331
0.428032
0.43723
0.434694
0.42301
0.419722
0.432203
0.435385
0.436225
0.407832
0.415033
0.410105
0.414653
0.413959
0.426653
0.419712
0.427578
0.424011
0.430988
0.430839
0.411704
0.413227
0.410592
0.42068
0.430274
0.427068
0.429492
0.429853
0.40577
0.40155
0.401341
0.394416
0.39298
0.39008
0.390264
0.393456
0.396052
0.422859
0.422743
0.42717
0.426044
0.425449
0.42774
0.407579
0.405165
0.405059
0.402699
0.407312
0.400989
0.41991
0.416835
0.422006
0.389237
0.391531
0.373012
0.373581
0.410735
0.419253
0.415754
0.414091
0.42226
0.419786
0.415131
0.415636
0.379047
0.381397
0.376013
0.373815
0.377976
0.378742
0.38569
0.414777
0.414725
0.411272
0.363597
0.360498
0.397608
0.399651
0.353866
0.351988
0.411695
0.410403
0.408833
0.407216
0.356594
0.3551
0.417752
0.416775
0.415377
0.414582
0.412066
0.410671
0.408014
0.375393
0.37012
0.362753
0.355533
0.409628
0.409472
0.419953
0.415826
0.413249
0.41308
0.417875
0.413975
0.416516
0.408774
0.413389
0.420283
0.417793
0.414464
0.386201
0.385435
0.380672
0.380047
0.380246
0.375702
0.375001
0.378062
0.377286
0.382084
0.376343
0.379405
0.382091
0.395428
0.39104
0.39367
0.384973
0.381869
0.387153
0.386884
0.364021
0.357792
0.357777
0.359367
0.359554
0.358225
0.352269
0.354083
0.357752
0.35757
0.359774
0.36104
0.351863
0.399864
0.398064
0.413807
0.407216
0.398982
0.404208
0.402928
0.371929
0.368934
0.383797
0.375663
0.375431
0.373628
0.370164
0.372364
0.367179
0.360504
0.370259
0.36901
0.367996
0.369777
0.367917
0.36297
0.360289
0.36855
0.364507
0.367831
0.409415
0.410804
0.41512
0.415674
0.410109
0.411266
0.412972
0.420605
0.420439
0.418532
0.413881
0.414151
0.414458
0.414555
0.415197
0.409592
0.409124
0.404358
0.40594
0.407831
0.405205
0.409585
0.411761
0.412762
0.411198
0.41046
0.406674
0.407722
0.410891
0.400694
0.412128
0.410453
0.386185
0.377754
0.387117
0.384011
0.384161
0.383994
0.421267
0.421668
0.419012
0.412141
0.411465
0.40536
0.415253
0.413147
0.40587
0.404523
0.405579
0.411559
0.413032
0.424372
0.417418
0.41716
0.415179
0.38312
0.375907
0.381066
0.362587
0.36956
0.373221
0.374915
0.374206
0.366275
0.399905
0.391958
0.3934
0.397321
0.400453
0.390914
0.40828
0.397608
0.394019
0.391618
0.395434
0.38708
0.392337
0.391212
0.393431
0.393499
0.391293
0.391269
0.419878
0.414339
0.422388
0.41778
0.418192
0.429827
0.425298
0.420152
0.420193
0.424699
0.420335
0.417576
0.422817
0.423991
0.420464
0.420991
0.418924
0.42158
0.397414
0.403383
0.394224
0.400055
0.404647
0.410876
0.411447
0.405139
0.402574
0.410145
0.409734
0.402168
0.398411
0.407521
0.403329
0.399812
0.415416
0.411528
0.409302
0.409913
0.403279
0.417534
0.410234
0.415688
0.412799
0.408342
0.413466
0.415149
0.400203
0.404131
0.393654
0.405749
0.401859
0.396352
0.408965
0.403712
0.404272
0.407472
0.410548
0.413661
0.40725
0.408166
0.412631
0.414271
0.405531
0.412134
0.408082
0.426691
0.421825
0.420646
0.419619
0.423992
0.428814
0.425563
0.429658
0.422031
0.428383
0.426084
0.424576
0.40214
0.404557
0.395853
0.393231
0.382714
0.380237
0.3777
0.396187
0.398681
0.402289
0.38697
0.388748
0.406869
0.404105
0.395816
0.398437
0.400014
0.401201
0.411848
0.405931
0.397008
0.411516
0.407414
0.410997
0.407784
0.406898
0.408984
0.410106
0.410179
0.402385
0.407322
0.409454
0.397116
0.400916
0.407007
0.405937
0.405457
0.404665
0.43595
0.434856
0.433105
0.429365
0.425914
0.427847
0.425436
0.41838
0.417858
0.432302
0.427646
0.427617
0.425869
0.423907
0.414424
0.422258
0.425239
0.41909
0.415883
0.421397
0.420649
0.421425
0.428923
0.421379
0.424619
0.417285
0.407166
0.405172
0.396312
0.396666
0.397825
0.40598
0.406803
0.403778
0.39917
0.396178
0.407987
0.401953
0.430497
0.434401
0.432463
0.427501
0.429523
0.43089
0.430554
0.434417
0.434376
0.431035
0.432356
0.427734
0.430487
0.431035
0.425104
0.42457
0.423635
0.425319
0.427779
0.428387
0.428465
0.42869
0.428971
0.428512
0.431564
0.430394
0.422314
0.428822
0.425167
0.423531
0.424583
0.42453
0.422199
0.424975
0.419216
0.412017
0.425535
0.425078
0.424339
0.424485
0.416797
0.417938
0.419903
0.416787
0.407916
0.412935
0.407664
0.414178
0.407759
0.406541
0.437975
0.441698
0.438385
0.432809
0.435189
0.439827
0.437504
0.438455
0.434329
0.434518
0.438485
0.441358
0.434655
0.435893
0.436389
0.437803
0.437882
0.435298
0.435555
0.437847
0.433291
0.430137
0.434275
0.433083
0.42303
0.427149
0.425105
0.428108
0.424708
0.423188
0.427979
0.432851
0.419446
0.415745
0.413011
0.412645
0.42527
0.422258
0.417391
0.419209
0.417646
0.41474
0.443387
0.43636
0.437253
0.434423
0.43365
0.436752
0.435885
0.438429
0.434518
0.434865
0.418899
0.431009
0.432766
0.428485
0.429451
0.427978
0.433587
0.434991
0.427247
0.433173
0.423876
0.422615
0.428119
0.426384
0.435558
0.423903
0.432671
0.426234
0.419032
0.427996
0.427008
0.425303
0.415811
0.419676
0.43102
0.428769
0.4229
0.423547
0.424477
0.437159
0.431478
0.428404
0.425607
0.425497
0.426049
0.430825
0.433231
0.43142
0.43132
0.421172
0.423479
0.426405
0.441684
0.436655
0.434105
0.425898
0.421625
0.43055
0.433956
0.431988
0.421708
0.426338
0.419725
0.422016
0.422662
0.431025
0.431525
0.429007
0.425017
0.428114
0.434088
0.429628
0.418282
0.41918
0.423471
0.428377
0.433509
0.427439
0.427083
0.443269
0.444088
0.440214
0.437314
0.437198
0.440026
0.44023
0.437725
0.438906
0.44017
0.436799
0.435898
0.43711
0.438343
0.436483
0.433985
0.432118
0.433032
0.432182
0.436753
0.434815
0.432508
0.433471
0.436069
0.436323
0.435128
0.432311
0.436686
0.434888
0.43307
0.431597
0.434151
0.435251
0.42712
0.434976
0.427768
0.430987
0.432906
0.435365
0.432677
0.448463
0.445961
0.441905
0.443115
0.447345
0.446038
0.434384
0.432504
0.444556
0.437827
0.436805
0.438549
0.430118
0.435307
0.448333
0.430894
0.43827
0.438524
0.436859
0.440989
0.43555
0.440772
0.440273
0.441413
0.448194
0.445658
0.445473
0.440255
0.442915
0.442764
0.44112
0.44308
0.436978
0.438063
0.437136
0.436467
0.439349
0.4396
0.439026
0.432316
0.446758
0.437306
0.432947
0.445718
0.437108
0.434062
0.428677
0.441048
0.434685
0.436185
0.443659
0.441328
0.441749
0.44004
0.455736
0.445718
0.449051
0.447635
0.436421
0.447765
0.442499
0.427407
0.434803
0.437323
0.438799
0.438234
0.434411
0.425957
0.428242
0.430103
0.430112
0.429973
0.444048
0.443456
0.44617
0.448904
0.451351
0.44501
0.447013
0.441339
0.447959
0.446679
0.434251
0.439679
0.441507
0.440007
0.435629
0.438896
0.441691
0.448221
0.444767
0.441655
0.454206
0.446305
0.450895
0.452473
0.453675
0.445582
0.44518
0.445243
0.446342
0.444177
0.455539
0.452113
0.448674
0.43013
0.430611
0.424029
0.439334
0.432591
0.433883
0.441021
0.436786
0.433662
0.437619
0.4357
0.447063
0.449094
0.445823
0.446638
0.448212
0.448985
0.443117
0.442124
0.440274
0.455506
0.450515
0.449627
0.449239
0.445446
0.432933
0.440638
0.437069
0.450768
0.455126
0.448107
0.447313
0.431164
0.43723
0.434934
0.435641
0.443835
0.437362
0.436667
0.446371
0.447882
0.444427
0.44132
0.452277
0.443191
0.442831
0.434817
0.43791
0.448037
0.447472
0.4446
0.44522
0.443673
0.43631
0.451987
0.44141
0.440754
0.44107
0.442069
0.442842
0.459616
0.450773
0.443929
0.456495
0.457097
0.455027
0.470657
0.466685
0.461997
0.45315
0.465068
0.459673
0.462644
0.471015
0.475572
0.469866
0.47125
0.462922
0.456851
0.464998
0.461356
0.459439
0.462572
0.451747
0.459251
0.460439
0.455084
0.451408
0.449513
0.450241
0.446388
0.441227
0.445535
0.447288
0.449916
0.449876
0.444174
0.445502
0.442651
0.443711
0.441482
0.445747
0.440317
0.444481
0.4441
0.447033
0.440006
0.442227
0.43937
0.442381
0.451909
0.44838
0.447505
0.445726
0.468285
0.457673
0.466882
0.462501
0.459419
0.453337
0.450781
0.474874
0.473775
0.468822
0.450112
0.462279
0.457615
0.451681
0.469077
0.463459
0.458526
0.457556
0.467027
0.467167
0.467793
0.454899
0.454928
0.453632
0.450937
0.453247
0.450124
0.450809
0.447913
0.448274
0.454156
0.457774
0.457523
0.453506
0.45647
0.452602
0.452367
0.457878
0.453471
0.450783
0.446508
0.447255
0.44496
0.446957
0.45014
0.445271
0.448754
0.448436
0.449721
0.499711
0.49538
0.492079
0.488253
0.487494
0.480493
0.487532
0.479112
0.491634
0.488076
0.474784
0.491167
0.485314
0.487978
0.47895
0.469712
0.481135
0.480235
0.476499
0.473049
0.461169
0.45697
0.473703
0.468291
0.473977
0.478889
0.476245
0.478149
0.473081
0.474561
0.460385
0.465053
0.476361
0.468133
0.469901
0.463483
0.465302
0.462826
0.451355
0.465897
0.462386
0.469195
0.47218
0.460528
0.454253
0.450726
0.43648
0.457521
0.455657
0.454875
0.454692
0.449527
0.458839
0.458737
0.506451
0.504813
0.500527
0.504352
0.481933
0.49391
0.490332
0.49459
0.483142
0.479907
0.493038
0.488693
0.492548
0.494667
0.498152
0.493176
0.494479
0.494014
0.489227
0.482384
0.477099
0.480007
0.468266
0.464355
0.468889
0.471523
0.478826
0.480043
0.477931
0.475049
0.458851
0.458294
0.451207
0.458211
0.458018
0.454487
0.45877
0.449503
0.455133
0.457134
0.458405
0.462354
0.456536
0.454853
0.454926
0.448855
0.458739
0.453114
0.448316
0.452524
0.453115
0.446898
0.450553
0.457718
0.452545
0.453024
0.454381
0.453594
0.45531
0.451403
0.455988
0.453162
0.451161
0.452438
0.505418
0.497416
0.489672
0.48678
0.495559
0.512695
0.51212
0.508547
0.509051
0.487433
0.501061
0.478285
0.479108
0.483463
0.489235
0.488297
0.468682
0.467637
0.481425
0.481895
0.476408
0.457536
0.464437
0.457614
0.458249
0.461292
0.455718
0.461585
0.457416
0.458641
0.460373
0.450228
0.456998
0.453788
0.452699
0.447348
0.450382
0.451469
0.458387
0.45177
0.452822
0.455613
0.455074
0.453873
0.45198
0.456962
0.456766
0.458258
0.461897
0.454806
0.453071
0.45371
0.461297
0.453994
0.45791
0.457908
0.458101
0.50253
0.501708
0.511385
0.509874
0.503027
0.481907
0.467342
0.469745
0.46177
0.464077
0.463889
0.481239
0.472094
0.466879
0.478974
0.47262
0.481806
0.480648
0.463424
0.464176
0.46143
0.457506
0.46282
0.459617
0.459375
0.457799
0.458119
0.458964
0.457785
0.464162
0.460886
0.450519
0.457406
0.464339
0.454402
0.456241
0.461705
0.454248
0.44561
0.447084
0.452793
0.450029
0.471771
0.466113
0.462602
0.465258
0.46704
0.471829
0.464108
0.459611
0.479797
0.472364
0.477819
0.464006
0.468978
0.468452
0.466996
0.47172
0.466153
0.527784
0.527311
0.517519
0.51432
0.532301
0.53151
0.543209
0.53969
0.519714
0.531239
0.519634
0.534605
0.528301
0.509002
0.496739
0.501222
0.494458
0.491956
0.499465
0.499577
0.504092
0.513124
0.509877
0.509486
0.508618
0.505658
0.505198
0.49856
0.491888
0.50554
0.510568
0.513462
0.52129
0.518447
0.521646
0.520643
0.516109
0.467527
0.468083
0.466352
0.465115
0.462107
0.465719
0.46431
0.463941
0.46562
0.466722
0.468997
0.467506
0.462985
0.466436
0.465607
0.464091
0.464605
0.461212
0.460316
0.462869
0.464491
0.463505
0.461351
0.516482
0.509543
0.515449
0.508869
0.48663
0.488205
0.499651
0.501466
0.499535
0.487036
0.468373
0.478809
0.476168
0.480642
0.472909
0.471951
0.467578
0.481238
0.476966
0.488409
0.486168
0.485621
0.534061
0.522203
0.512589
0.522962
0.501136
0.515044
0.503464
0.508498
0.501373
0.510003
0.513318
0.523193
0.516948
0.547939
0.535338
0.546044
0.467586
0.463677
0.463681
0.46447
0.467147
0.464174
0.461198
0.457439
0.45891
0.462758
0.45888
0.459278
0.460365
0.455385
0.543085
0.529255
0.525638
0.489009
0.477486
0.487749
0.474529
0.469551
0.476688
0.469988
0.474061
0.489579
0.490031
0.479897
0.477164
0.472397
0.48914
0.491037
0.521095
0.513351
0.525252
0.514329
0.502106
0.497283
0.503938
0.499022
0.496789
0.49113
0.495071
0.493121
0.513788
0.51251
0.505112
0.501097
0.465572
0.46778
0.457598
0.464936
0.465783
0.462191
0.457415
0.460602
0.468559
0.471245
0.479064
0.478064
0.479336
0.468608
0.466616
0.460866
0.4665
0.463759
0.460186
0.469044
0.460987
0.456665
0.453056
0.455433
0.575869
0.565174
0.563169
0.562602
0.56259
0.548309
0.531171
0.541439
0.532818
0.543049
0.544306
0.538553
0.535314
0.471597
0.47256
0.476125
0.474538
0.47212
0.469695
0.468632
0.467953
0.473875
0.475182
0.473301
0.472634
0.474154
0.476777
0.474916
0.473503
0.467786
0.469895
0.461465
0.466056
0.469184
0.470336
0.462027
0.461001
0.470023
0.468063
0.468022
0.47107
0.459995
0.46369
0.466698
0.467092
0.469676
0.472254
0.467805
0.467502
0.467956
0.46837
0.467982
0.535433
0.524166
0.525909
0.538039
0.538605
0.532861
0.560479
0.547785
0.536659
0.530242
0.551068
0.547856
0.552196
0.567854
0.577729
0.568959
0.555426
0.534565
0.539934
0.530987
0.520969
0.529226
0.524774
0.536178
0.531069
0.539524
0.534297
0.500904
0.494512
0.495159
0.494994
0.477693
0.472638
0.476185
0.471782
0.470946
0.485396
0.472017
0.48389
0.487495
0.509274
0.530083
0.509746
0.504835
0.535424
0.499294
0.506133
0.495526
0.490334
0.491028
0.499878
0.501436
0.502277
0.492945
0.511391
0.509624
0.50622
0.5745
0.563556
0.551028
0.560668
0.551582
0.549804
0.551109
0.54234
0.537771
0.538664
0.538593
0.530523
0.530497
0.536765
0.532766
0.534632
0.477543
0.476441
0.472349
0.46652
0.46189
0.471805
0.465148
0.466819
0.476913
0.47183
0.468203
0.469801
0.471654
0.45913
0.465037
0.465986
0.468299
0.469578
0.468532
0.463819
0.477441
0.47335
0.47964
0.468939
0.465241
0.470595
0.568374
0.569883
0.58782
0.580935
0.577556
0.581103
0.576509
0.477892
0.478785
0.475572
0.478164
0.472628
0.477034
0.482364
0.475114
0.479403
0.474335
0.476837
0.479009
0.481011
0.47974
0.479379
0.471702
0.549476
0.549888
0.549313
0.52991
0.540628
0.5512
0.545677
0.541597
0.549945
0.477288
0.480663
0.477311
0.485868
0.484138
0.480787
0.483308
0.48206
0.482907
0.587256
0.572501
0.474434
0.475065
0.472631
0.472328
0.470096
0.475043
0.47574
0.505545
0.509313
0.50903
0.521458
0.519053
0.524542
0.522076
0.47947
0.496391
0.497451
0.493532
0.493266
0.57274
0.571664
0.586871
0.579772
0.57406
0.567146
0.565663
0.587516
0.590858
0.563097
0.562657
0.561935
0.55302
0.561194
0.550439
0.562221
0.565208
0.562944
0.561882
0.467724
0.468225
0.47127
0.468948
0.474549
0.471783
0.469927
0.474294
0.476993
0.478042
0.471564
0.473771
0.474178
0.471563
0.474281
0.475754
0.467653
0.468909
0.479303
0.474935
0.475353
0.470679
0.471255
0.469492
0.471803
0.470768
0.542143
0.543841
0.548028
0.549445
0.554848
0.561083
0.54959
0.553041
0.553573
0.570705
0.570838
0.571999
0.571384
0.56502
0.565193
0.561392
0.568681
0.572558
0.472005
0.471042
0.481656
0.479254
0.46547
0.472555
0.484765
0.472189
0.465708
0.481207
0.487692
0.480295
0.487986
0.488963
0.463826
0.465495
0.463826
0.464611
0.467249
0.466433
0.46167
0.460279
0.464193
0.466377
0.465831
0.466466
0.466149
0.532132
0.536678
0.528742
0.530234
0.544387
0.54104
0.538509
0.538215
0.50907
0.509954
0.520806
0.516158
0.519627
0.513282
0.500016
0.504373
0.513831
0.507575
0.503866
0.521125
0.51824
0.505869
0.507174
0.478584
0.480037
0.474044
0.481612
0.507765
0.522244
0.516276
0.522037
0.511941
0.510552
0.502483
0.501022
0.522287
0.509116
0.504404
0.461157
0.456782
0.456571
0.455801
0.458285
0.464395
0.464514
0.462765
0.468284
0.464025
0.461801
0.447562
0.444595
0.443186
0.454369
0.461846
0.456783
0.46113
0.460846
0.460252
0.464168
0.45836
0.460102
0.456306
0.484082
0.481605
0.48569
0.489026
0.491011
0.495032
0.497502
0.491468
0.49612
0.495097
0.459882
0.462332
0.462545
0.463203
0.462561
0.460786
0.461694
0.457801
0.465531
0.463498
0.463374
0.500111
0.492669
0.494348
0.488658
0.487421
0.501027
0.500081
0.49858
0.449045
0.443033
0.451091
0.443043
0.447463
0.448397
0.446323
0.462882
0.456933
0.459991
0.455064
0.457366
0.46197
0.450534
0.455789
0.451991
0.470058
0.470114
0.478506
0.483912
0.484255
0.484086
0.482559
0.477304
0.481763
0.478127
0.478761
0.475181
0.488346
0.482833
0.485129
0.487711
0.482583
0.476956
0.478281
0.496357
0.493373
0.494318
0.494086
0.485462
0.452101
0.453687
0.450409
0.452276
0.452223
0.450033
0.455045
0.452573
0.452239
0.451293
0.45186
0.451728
0.452853
0.449035
0.452156
0.451204
0.451355
0.450685
0.451976
0.45208
0.458351
0.458573
0.457449
0.456402
0.457886
0.454051
0.455115
0.459886
0.459243
0.455804
0.455321
0.456248
0.454996
0.445758
0.446186
0.448516
0.445099
0.448524
0.44772
0.447352
0.448254
0.448089
0.440482
0.444223
0.446361
0.456275
0.441288
0.447483
0.45303
0.454948
0.439256
0.438926
0.449098
0.449318
0.439517
0.442239
0.440891
0.442248
0.438671
0.447424
0.441243
0.445665
0.4455
0.452885
0.451714
0.450596
0.457502
0.459152
0.448865
0.448118
0.446129
0.450109
0.449045
0.455822
0.452625
0.435939
0.429425
0.43093
0.432427
0.441538
0.435684
0.431857
0.433924
0.43633
0.436892
0.431219
0.43617
0.440744
0.428647
0.429779
0.431001
0.437812
0.432914
0.428055
0.431304
0.433054
0.433608
0.438506
0.439916
0.439406
0.443453
0.442302
0.442012
0.440557
0.442241
0.440197
0.436375
0.436592
0.436395
0.439397
0.439257
0.433713
0.436658
0.436644
0.43816
0.411246
0.407514
0.404589
0.417841
0.417404
0.418788
0.412194
0.417732
0.420908
0.413138
0.417501
0.44216
0.439026
0.427525
0.434324
0.428145
0.430793
0.433663
0.435048
0.432056
0.438351
0.438505
0.431218
0.439062
0.442953
0.436208
0.436648
0.435999
0.43651
0.435705
0.430096
0.430646
0.418493
0.424978
0.424387
0.431008
0.437149
0.425974
0.431665
0.435269
0.434399
0.423841
0.426808
0.424082
0.427503
0.420061
0.430176
0.432192
0.434312
0.43822
0.4322
0.434783
0.424354
0.417525
0.429519
0.428696
0.424279
0.418123
0.425258
0.420182
0.418503
0.422896
0.4188
0.439318
0.43234
0.430241
0.435314
0.431754
0.433709
0.436096
0.431083
0.431201
0.430641
0.423244
0.418894
0.434351
0.425439
0.428008
0.425529
0.42256
0.427273
0.429002
0.41188
0.423327
0.419228
0.417214
0.428282
0.41862
0.42433
0.419086
0.408537
0.419022
0.412162
0.412442
0.416884
0.420499
0.415176
0.414084
0.423632
0.434495
0.430286
0.433207
0.431485
0.428914
0.432774
0.428498
0.436348
0.428597
0.40163
0.395898
0.398518
0.406962
0.40102
0.404773
0.381402
0.379029
0.391846
0.389629
0.386686
0.387491
0.395963
0.389365
0.392515
0.382588
0.388621
0.383018
0.387941
0.38662
0.39317
0.388583
0.399385
0.395892
0.407893
0.406514
0.405082
0.399154
0.402722
0.402242
0.403873
0.404653
0.40166
0.40696
0.398003
0.397131
0.415083
0.420126
0.425835
0.426138
0.426565
0.434231
0.419932
0.422838
0.418259
0.423909
0.419657
0.417552
0.428685
0.426916
0.412611
0.417958
0.4167
0.417672
0.417642
0.411032
0.416464
0.412259
0.419109
0.418028
0.415626
0.413073
0.409199
0.397209
0.396342