/*--------------------------------*- C++ -*----------------------------------*\
| =========                 |                                                 |
| \\      /  F ield         | OpenFOAM: The Open Source CFD Toolbox           |
|  \\    /   O peration     | Version:  v1612+                                |
|   \\  /    A nd           | Web:      www.OpenFOAM.com                      |
|    \\/     M anipulation  |                                                 |
\*---------------------------------------------------------------------------*/
FoamFile
{
    version     2.0;
    format      ascii;
    class       volVectorField;
    location    "200";
    object      wallShearStress;
}
// * * * * * * * * * * * * * * * * * * * * * * * * * * * * * * * * * * * * * //

dimensions      [0 2 -2 0 0 0 0];

internalField   uniform (0 0 0);

boundaryField
{
    WALL
    {
        type            calculated;
        value           nonuniform List<vector> 
1690
(
(-0.0121164 -0.0104527 0.0104201)
(-0.0108502 -0.00914842 0.00833728)
(-0.0162062 -0.0208708 0.00828741)
(-0.0150603 -0.0199761 0.00795311)
(-0.0156647 -0.0198236 0.00754618)
(-0.0159761 -0.0140475 0.0133476)
(-0.0147324 -0.0131699 0.0136085)
(-0.00958196 -0.0108081 0.00639149)
(-0.0113826 -0.013029 0.00794186)
(-0.00453393 -0.00741791 0.00487703)
(-0.00545708 -0.00805943 0.00542832)
(-0.00462891 -0.00734067 0.0050766)
(-0.00481009 -0.00719653 0.00435638)
(-0.0151577 -0.0139756 0.0105805)
(-0.0151838 -0.0149937 0.0109974)
(-0.0039219 -0.00638484 0.00358038)
(-0.00438943 -0.00730764 0.00452157)
(-0.00550643 -0.00833098 0.00579823)
(-0.00559298 -0.00835433 0.00527572)
(-0.0145852 -0.0099207 0.0153136)
(-0.0148035 -0.012122 0.0179699)
(-0.0177629 -0.0218134 0.0115111)
(-0.0181169 -0.0237805 0.013465)
(-0.014573 -0.0213035 0.0114135)
(-0.0157904 -0.0221628 0.0109034)
(-0.0145478 -0.0195447 0.0139992)
(-0.0140928 -0.0182931 0.0145787)
(-0.0170056 -0.0198843 0.00899517)
(-0.0169938 -0.0195455 0.00894056)
(-0.0177156 -0.0223849 0.0117506)
(-0.0163346 -0.0205943 0.0100548)
(-0.0142993 -0.0191869 0.0129881)
(-0.00345962 -0.00797086 0.00624685)
(-0.00464063 -0.00966018 0.00811715)
(-0.00459703 -0.00790018 0.0049452)
(-0.00452057 -0.00776919 0.00583708)
(-0.00899784 -0.0105017 0.0121225)
(-0.0108062 -0.0109901 0.01233)
(-0.00664727 -0.0103223 0.0108269)
(-0.0053286 -0.00933272 0.00882231)
(-0.0127412 -0.0122111 0.0171158)
(-0.0134132 -0.010687 0.0167124)
(-0.0186775 -0.021201 0.0100879)
(-0.0167201 -0.0206827 0.0106321)
(-0.00409403 -0.00743636 0.00387149)
(-0.00381414 -0.00720303 0.0038754)
(-0.00512955 -0.00842714 0.00626702)
(-0.00483371 -0.00768477 0.00488213)
(-0.0151391 -0.0189506 0.00738391)
(-0.0151481 -0.0189507 0.00744778)
(-0.0174185 -0.021547 0.010286)
(-0.0177127 -0.0221378 0.00996736)
(-0.0082314 -0.0117121 0.00432924)
(-0.009948 -0.0135917 0.00543901)
(-0.00640096 -0.00532588 0.00366215)
(-0.00632955 -0.00532542 0.00360551)
(-0.00723621 -0.00565132 0.00434427)
(-0.00732576 -0.00599466 0.00437807)
(-0.00792094 -0.00602041 0.00514686)
(-0.00797992 -0.00624757 0.00489387)
(-0.00601995 -0.00533644 0.00340113)
(-0.00499188 -0.00752407 0.00482533)
(-0.00469141 -0.00743574 0.00459446)
(-0.00532177 -0.00852105 0.00573996)
(-0.00473626 -0.00729974 0.00505227)
(-0.00471185 -0.00798463 0.00598796)
(-0.0045335 -0.00702991 0.00443969)
(-0.0122974 -0.0136111 0.00867764)
(-0.0116546 -0.0133656 0.00930887)
(-0.0129183 -0.0139493 0.00950535)
(-0.0119144 -0.0136961 0.0086835)
(-0.0117403 -0.013281 0.00924562)
(-0.0118725 -0.0130274 0.00907593)
(-0.015539 -0.0172365 0.00924312)
(-0.0146072 -0.0169981 0.00912861)
(-0.0154081 -0.0172798 0.00921908)
(-0.0160082 -0.0172629 0.0103341)
(-0.0156293 -0.0162535 0.00929163)
(-0.0150123 -0.0154412 0.00952868)
(-0.00655895 -0.00985016 0.00726934)
(-0.00719892 -0.00953517 0.00776029)
(-0.00714622 -0.00982232 0.00790726)
(-0.00831578 -0.0117014 0.00774033)
(-0.00611295 -0.00882137 0.0062145)
(-0.00706123 -0.00956237 0.00674456)
(-0.0111467 -0.0140194 0.0077991)
(-0.0107437 -0.0134565 0.00706202)
(-0.0106593 -0.0134055 0.00694137)
(-0.0102108 -0.0126219 0.00766186)
(-0.01611 -0.0243164 0.0155433)
(-0.0150833 -0.0241762 0.0156747)
(-0.0164389 -0.0217282 0.0124684)
(-0.0173522 -0.0208182 0.0104136)
(-0.0181337 -0.0217399 0.0110857)
(-0.0170984 -0.0204783 0.0100987)
(-0.0167733 -0.0200306 0.010053)
(-0.0163672 -0.020449 0.0103535)
(-0.0173551 -0.0220658 0.0108456)
(-0.017074 -0.021664 0.0109715)
(-0.0167451 -0.0213515 0.0110907)
(-0.0172522 -0.0209355 0.0101791)
(-0.0175296 -0.0222403 0.0110389)
(-0.0181119 -0.0219747 0.0108407)
(-0.0154113 -0.0128202 0.015252)
(-0.0149075 -0.0113828 0.0134012)
(-0.0133676 -0.0113744 0.0122784)
(-0.0154578 -0.0132579 0.0160816)
(-0.0142707 -0.0102181 0.0140875)
(-0.013843 -0.0112053 0.0146404)
(-0.0159661 -0.0151488 0.0189056)
(-0.0156607 -0.0122746 0.0189477)
(-0.0160021 -0.0141764 0.0197854)
(-0.0155152 -0.0155073 0.0196442)
(-0.015017 -0.0156543 0.0192283)
(-0.0166805 -0.0205871 0.00808498)
(-0.0160771 -0.0196766 0.0077355)
(-0.0142034 -0.0186336 0.00760375)
(-0.0157467 -0.020774 0.00853831)
(-0.0150366 -0.0191621 0.00746728)
(-0.0117458 -0.0113571 0.00917743)
(-0.0100926 -0.0088937 0.00726992)
(-0.0106148 -0.00867892 0.00815249)
(-0.012528 -0.0109251 0.0100686)
(-0.0120585 -0.0105534 0.0102496)
(-0.011404 -0.00921419 0.00883597)
(-0.0109624 -0.010364 0.0080599)
(-0.0112478 -0.00949771 0.00907367)
(-0.00323645 -0.00685967 0.00389378)
(-0.00310698 -0.00604608 0.00313057)
(-0.00383371 -0.00540103 0.00277309)
(-0.00384948 -0.00584932 0.00295801)
(-0.00391696 -0.00525733 0.00265334)
(-0.00397089 -0.00534375 0.00270446)
(-0.00393369 -0.00550466 0.00280382)
(-0.0041081 -0.00585362 0.00301006)
(-0.0204338 -0.0209204 0.00896441)
(-0.0206293 -0.0223595 0.00957075)
(-0.020273 -0.0226805 0.00944408)
(-0.0188777 -0.0228626 0.00983001)
(-0.0183206 -0.0212456 0.00887967)
(-0.0190245 -0.0203387 0.00857364)
(-0.00502958 -0.00463275 0.00285227)
(-0.00383368 -0.00464897 0.00220734)
(-0.00430218 -0.00462582 0.00255616)
(-0.0050233 -0.00484319 0.00285519)
(-0.0047257 -0.00491687 0.00261596)
(-0.0046907 -0.00475277 0.00249083)
(-0.00345541 -0.00421711 0.00195504)
(-0.00323443 -0.0049344 0.00233061)
(-0.00315814 -0.00507228 0.00228821)
(-0.0032778 -0.00441789 0.00194815)
(-0.00343804 -0.00431604 0.00196577)
(-0.00330677 -0.00461298 0.00212007)
(-0.0037102 -0.00517362 0.00258331)
(-0.00380553 -0.00508683 0.00257541)
(-0.00391553 -0.00473708 0.00247018)
(-0.00395847 -0.00516198 0.00253979)
(-0.00390362 -0.00475634 0.0024221)
(-0.00372611 -0.00497264 0.00247369)
(-0.00411891 -0.0050311 0.00251763)
(-0.00408015 -0.00522398 0.00264165)
(-0.00389093 -0.00503356 0.00251858)
(-0.00388024 -0.00487023 0.00249687)
(-0.00387627 -0.00492568 0.00244271)
(-0.0120086 -0.0124005 0.0107593)
(-0.0120419 -0.0127371 0.0108091)
(-0.0121555 -0.0119703 0.0108962)
(-0.0128799 -0.0123903 0.0120328)
(-0.01098 -0.0116698 0.0102603)
(-0.0109584 -0.0119045 0.0103128)
(-0.0131799 -0.0125056 0.0114493)
(-0.0131695 -0.0136585 0.0119133)
(-0.0117555 -0.0108839 0.0124928)
(-0.0142205 -0.01257 0.0132483)
(-0.0138002 -0.0132219 0.0131912)
(-0.0114956 -0.0110105 0.0124255)
(-0.0157192 -0.0159791 0.0095078)
(-0.0162493 -0.0160104 0.00989183)
(-0.0162328 -0.0152542 0.0102724)
(-0.0161385 -0.0160945 0.0101796)
(-0.0173265 -0.0167436 0.0102848)
(-0.0170709 -0.0161597 0.0102307)
(-0.0182314 -0.0138843 0.015352)
(-0.0183645 -0.01376 0.0147397)
(-0.016787 -0.012719 0.015463)
(-0.0170662 -0.0125484 0.0163173)
(-0.0173771 -0.0122464 0.0155762)
(-0.0194305 -0.0136935 0.0162301)
(-0.021473 -0.016938 0.0135397)
(-0.0187393 -0.0160162 0.0112425)
(-0.0184116 -0.0152953 0.0115817)
(-0.0198089 -0.0162844 0.0129265)
(-0.0176062 -0.0163786 0.0106993)
(-0.0196782 -0.0166694 0.0131719)
(-0.0207444 -0.0159857 0.0128928)
(-0.0205244 -0.016239 0.0122087)
(-0.0198559 -0.0162729 0.0112134)
(-0.0199221 -0.0162301 0.0119683)
(-0.0225272 -0.0183413 0.0130766)
(-0.0208849 -0.0168196 0.0120397)
(-0.0210092 -0.0152049 0.0141854)
(-0.0204477 -0.0145977 0.0130732)
(-0.0193968 -0.0148554 0.0144707)
(-0.0203097 -0.0148127 0.0146535)
(-0.0204911 -0.0147663 0.0132207)
(-0.0195329 -0.0145477 0.013523)
(-0.0118771 -0.0139799 0.0077852)
(-0.0130262 -0.0159436 0.00828392)
(-0.0121169 -0.014569 0.00785711)
(-0.0111061 -0.014622 0.00615574)
(-0.0106383 -0.0137819 0.00629291)
(-0.0119635 -0.0155709 0.0064754)
(-0.0149125 -0.0169032 0.00895817)
(-0.0149777 -0.0170102 0.00912031)
(-0.0149029 -0.01652 0.00914188)
(-0.0134345 -0.0152031 0.0079578)
(-0.0141467 -0.0167472 0.00826827)
(-0.0126626 -0.0157933 0.00692553)
(-0.0128526 -0.0161279 0.00689214)
(-0.0135168 -0.0167136 0.00749007)
(-0.0130052 -0.0180617 0.0074515)
(-0.0139489 -0.0190022 0.00771884)
(-0.0137605 -0.0169032 0.00785619)
(-0.0129437 -0.0185257 0.00770545)
(-0.015146 -0.0169923 0.00869466)
(-0.0153619 -0.016699 0.0085423)
(-0.0149063 -0.0168754 0.00906148)
(-0.0147126 -0.0170857 0.00860219)
(-0.0146516 -0.0163722 0.00865137)
(-0.0155178 -0.0191699 0.00967621)
(-0.00421649 -0.00773914 0.00432409)
(-0.00375079 -0.00714821 0.00389351)
(-0.00455863 -0.00819343 0.00479072)
(-0.00403913 -0.00759535 0.0043987)
(-0.00461134 -0.00831698 0.0046336)
(-0.00338573 -0.00697062 0.00339264)
(-0.00363094 -0.00634476 0.00298314)
(-0.00365697 -0.00710665 0.00357377)
(-0.00366062 -0.00656525 0.00321915)
(-0.00338848 -0.00623466 0.00274946)
(-0.00337182 -0.00675613 0.00311941)
(-0.00324047 -0.0060647 0.00239506)
(-0.00362484 -0.00605514 0.00248616)
(-0.00352531 -0.00610414 0.00253712)
(-0.00351581 -0.00629144 0.0027124)
(-0.00312501 -0.00616002 0.00252476)
(-0.00354924 -0.00653162 0.00259586)
(-0.0155403 -0.0169226 0.00829545)
(-0.0166071 -0.017796 0.00893676)
(-0.0162542 -0.0181657 0.00860017)
(-0.0163653 -0.0188823 0.00932848)
(-0.0155198 -0.017286 0.0081816)
(-0.0194483 -0.0200409 0.00949955)
(-0.018893 -0.0209623 0.00957017)
(-0.018268 -0.0209363 0.010464)
(-0.0183948 -0.0218935 0.0107446)
(-0.0188595 -0.0217412 0.0111687)
(-0.0188327 -0.0226021 0.0112569)
(-0.0177569 -0.0169536 0.00956049)
(-0.0186672 -0.018348 0.00972503)
(-0.0200558 -0.0165052 0.0104297)
(-0.0177721 -0.0153722 0.00929966)
(-0.0210967 -0.019973 0.0116136)
(-0.0204581 -0.0185864 0.0104415)
(-0.0170278 -0.0178585 0.0100631)
(-0.0203422 -0.0181308 0.0108128)
(-0.018121 -0.0153779 0.0101713)
(-0.0188944 -0.0159742 0.0103612)
(-0.0173552 -0.0181788 0.00968577)
(-0.0200947 -0.0194762 0.0114946)
(-0.0169657 -0.0182897 0.00896339)
(-0.0183187 -0.0195405 0.00952292)
(-0.0179194 -0.0191509 0.0090647)
(-0.0179459 -0.018735 0.00873301)
(-0.0170035 -0.0184606 0.00884221)
(-0.0183302 -0.0208233 0.0103013)
(-0.0179881 -0.0182702 0.00925)
(-0.017391 -0.0177584 0.00932834)
(-0.017093 -0.0174532 0.00916698)
(-0.017282 -0.0178089 0.00910572)
(-0.0185678 -0.0203978 0.0103998)
(-0.0173341 -0.0185076 0.00943069)
(-0.00358131 -0.00601933 0.00260574)
(-0.00351983 -0.00603398 0.00264124)
(-0.003323 -0.00536538 0.00227499)
(-0.00396809 -0.00643573 0.00278284)
(-0.00366902 -0.00617392 0.00254289)
(-0.00388559 -0.00575937 0.00244834)
(-0.00379708 -0.00639036 0.00282023)
(-0.00410293 -0.0051261 0.00252076)
(-0.00422198 -0.00563884 0.00270876)
(-0.00426903 -0.00553948 0.00265095)
(-0.00416987 -0.00534307 0.00257316)
(-0.00427968 -0.00542511 0.00258223)
(-0.00403125 -0.00549985 0.00264263)
(-0.00397165 -0.00602288 0.00296864)
(-0.00392263 -0.00540751 0.00262404)
(-0.00387321 -0.00546983 0.00264097)
(-0.00382778 -0.00590263 0.00286058)
(-0.00414451 -0.00572373 0.00274566)
(-0.00398538 -0.00556897 0.00271545)
(-0.00399834 -0.00634974 0.00338889)
(-0.00420019 -0.00629948 0.00337181)
(-0.00402862 -0.00572768 0.00310767)
(-0.00425252 -0.0070064 0.00404151)
(-0.00401986 -0.00613852 0.00336388)
(-0.00405971 -0.00661191 0.0037991)
(-0.0057809 -0.00577482 0.0035771)
(-0.00714684 -0.00631622 0.00440824)
(-0.00581647 -0.00536857 0.00319847)
(-0.00588068 -0.00611465 0.00344519)
(-0.00634483 -0.00644684 0.0041662)
(-0.00523746 -0.00507606 0.0031881)
(-0.00469375 -0.00576687 0.00293414)
(-0.00421006 -0.00579553 0.00289879)
(-0.00388473 -0.00520149 0.00275476)
(-0.00439786 -0.00511034 0.00282349)
(-0.00452749 -0.0054429 0.00264371)
(-0.00394417 -0.00550975 0.0025194)
(-0.00402226 -0.00513483 0.00245616)
(-0.00434686 -0.00647785 0.00275134)
(-0.00405385 -0.00629305 0.00274808)
(-0.00422029 -0.00631867 0.00275498)
(-0.00497212 -0.0066814 0.00295511)
(-0.00439339 -0.00591515 0.00265205)
(-0.00454975 -0.00632118 0.00280883)
(-0.0192848 -0.0125984 0.0166565)
(-0.0206194 -0.0141026 0.015577)
(-0.0194131 -0.0132918 0.0174419)
(-0.0183355 -0.0129045 0.0156363)
(-0.0194264 -0.0140811 0.0150185)
(-0.0193156 -0.0122217 0.0158385)
(-0.00728381 -0.0102824 0.0120952)
(-0.00636919 -0.0104822 0.0110191)
(-0.00653261 -0.00940816 0.0111648)
(-0.00623273 -0.00945378 0.010134)
(-0.00580341 -0.00938054 0.00981553)
(-0.00772241 -0.0102497 0.0124537)
(-0.0103152 -0.0118101 0.0123025)
(-0.00819454 -0.0109472 0.0114295)
(-0.00999207 -0.0113394 0.0125081)
(-0.00965853 -0.010982 0.0130995)
(-0.00902729 -0.0115957 0.0119009)
(-0.00786025 -0.0104831 0.0107327)
(-0.0100729 -0.0110296 0.0130215)
(-0.0090754 -0.0106952 0.0133766)
(-0.011001 -0.0115686 0.0146705)
(-0.00830876 -0.0101952 0.0125477)
(-0.00968364 -0.0114304 0.0128496)
(-0.00428586 -0.00694712 0.00402721)
(-0.00421917 -0.00652703 0.00353875)
(-0.00407049 -0.00718428 0.00469485)
(-0.00470258 -0.00772194 0.00468843)
(-0.00406588 -0.00653208 0.00405612)
(-0.00416749 -0.00651744 0.00378712)
(-0.00611953 -0.00927446 0.00914248)
(-0.00609601 -0.00950255 0.00928663)
(-0.00774247 -0.0105936 0.0113529)
(-0.00678799 -0.00951063 0.0103678)
(-0.00787235 -0.0104854 0.0112749)
(-0.00619956 -0.00961723 0.00991451)
(-0.00481712 -0.00744996 0.00476907)
(-0.0049056 -0.00817564 0.00680614)
(-0.00510893 -0.0083566 0.00570438)
(-0.00545578 -0.0084915 0.00609683)
(-0.00531791 -0.00869589 0.00653193)
(-0.00453399 -0.0075679 0.00532154)
(-0.00384924 -0.00810026 0.00604245)
(-0.00440036 -0.00817508 0.00561478)
(-0.00399295 -0.00758539 0.00489754)
(-0.00385125 -0.00695865 0.00445992)
(-0.00383447 -0.0069816 0.00437722)
(-0.00381323 -0.00734384 0.0051965)
(-0.00397818 -0.00637814 0.00367345)
(-0.00390326 -0.00666233 0.00412445)
(-0.0041396 -0.00686839 0.00408797)
(-0.00378586 -0.00651559 0.00437183)
(-0.00381244 -0.00757755 0.00529838)
(-0.00377453 -0.00537923 0.00278229)
(-0.00397971 -0.00599795 0.00318394)
(-0.00408247 -0.00614055 0.00343246)
(-0.0037874 -0.0055244 0.00288193)
(-0.00381213 -0.00584714 0.00321683)
(-0.00372538 -0.00563709 0.00293331)
(-0.00614841 -0.00986278 0.0120095)
(-0.0077602 -0.0102153 0.014422)
(-0.00791484 -0.0112787 0.0135392)
(-0.00696866 -0.0105387 0.0126817)
(-0.00742517 -0.0099041 0.0134507)
(-0.00587545 -0.00969148 0.0115714)
(-0.00997299 -0.010262 0.0153247)
(-0.00964665 -0.0102596 0.0152422)
(-0.0123656 -0.0103698 0.0174695)
(-0.0123639 -0.0102747 0.0173538)
(-0.0114799 -0.011288 0.0164372)
(-0.00943139 -0.0104893 0.0142583)
(-0.0108713 -0.0109804 0.0152614)
(-0.0102502 -0.0115603 0.0150764)
(-0.0115234 -0.011137 0.0153448)
(-0.00930847 -0.011027 0.0144093)
(-0.010836 -0.0108947 0.0145711)
(-0.00487324 -0.00974657 0.0113585)
(-0.00538548 -0.0103563 0.0102471)
(-0.0181704 -0.0242356 0.0108089)
(-0.0185136 -0.0247187 0.010652)
(-0.0209272 -0.0159437 0.0131655)
(-0.0212741 -0.0166366 0.0122396)
(-0.0205637 -0.0138307 0.0135992)
(-0.0200558 -0.0132475 0.0134362)
(-0.0245371 -0.0154002 0.0142484)
(-0.0223379 -0.0155728 0.0136923)
(-0.0215753 -0.0200419 0.010064)
(-0.0223069 -0.0204261 0.00972303)
(-0.0194331 -0.0213309 0.00983124)
(-0.020417 -0.022177 0.0110763)
(-0.0207625 -0.0212227 0.0103519)
(-0.019221 -0.0234926 0.0116731)
(-0.0184628 -0.0215213 0.010761)
(-0.0192687 -0.0222088 0.0106803)
(-0.0201202 -0.0201244 0.0102646)
(-0.0187684 -0.0180875 0.00878711)
(-0.0201465 -0.0208979 0.0106498)
(-0.0202201 -0.0199569 0.0107346)
(-0.0190146 -0.0203097 0.00981696)
(-0.0198113 -0.0186158 0.00931292)
(-0.0202337 -0.0185893 0.00939505)
(-0.0210018 -0.0182656 0.00979269)
(-0.0212346 -0.0174016 0.0103721)
(-0.020147 -0.0181198 0.00987132)
(-0.0208895 -0.0174841 0.0102279)
(-0.0219308 -0.0158145 0.0113012)
(-0.0204015 -0.015345 0.0116018)
(-0.0224253 -0.0175405 0.0121996)
(-0.0207806 -0.0152335 0.0115535)
(-0.0220779 -0.0161453 0.0114895)
(-0.0201134 -0.015441 0.0113926)
(-0.00718758 -0.00670804 0.00439838)
(-0.00834981 -0.00747458 0.0053483)
(-0.00922229 -0.00779904 0.00651698)
(-0.00924932 -0.00790822 0.00667859)
(-0.00771018 -0.00693102 0.00517623)
(-0.00835752 -0.00743736 0.00577577)
(-0.00946669 -0.00749329 0.00623158)
(-0.0103229 -0.00782806 0.00784093)
(-0.00981711 -0.00818855 0.00676212)
(-0.00826905 -0.00707101 0.0051294)
(-0.0100829 -0.007765 0.00759148)
(-0.00893093 -0.00774424 0.00621344)
(-0.0124942 -0.00916549 0.0113792)
(-0.0119396 -0.00977923 0.0100165)
(-0.0138922 -0.011776 0.012744)
(-0.0128978 -0.0110486 0.0115476)
(-0.0125334 -0.00965574 0.0106458)
(-0.013728 -0.0121704 0.01264)
(-0.0126624 -0.0147869 0.00931419)
(-0.0126608 -0.014789 0.0092955)
(-0.0126784 -0.0151568 0.00883354)
(-0.0114386 -0.0131636 0.00832532)
(-0.0114122 -0.0133386 0.00782408)
(-0.0109726 -0.0134233 0.0071163)
(-0.0144685 -0.0183848 0.0112344)
(-0.0138334 -0.0177475 0.00973091)
(-0.0138247 -0.0172232 0.0103123)
(-0.0133252 -0.0162136 0.0101182)
(-0.0135343 -0.0161829 0.0101805)
(-0.0144458 -0.0177343 0.00952833)
(-0.0140466 -0.0174277 0.0111734)
(-0.0146278 -0.0182288 0.0123903)
(-0.0152059 -0.0192948 0.0125601)
(-0.0144254 -0.0176913 0.0122162)
(-0.0151193 -0.0188547 0.0118089)
(-0.015067 -0.0191739 0.0120155)
(-0.0133893 -0.0158771 0.0125598)
(-0.0154073 -0.016508 0.0147522)
(-0.0162689 -0.0188749 0.0150632)
(-0.0152087 -0.0184897 0.0136)
(-0.014428 -0.0164234 0.0127162)
(-0.014397 -0.0157422 0.014328)
(-0.0161863 -0.0198346 0.012864)
(-0.0161725 -0.0200853 0.0127319)
(-0.0164689 -0.0196272 0.0139876)
(-0.0136929 -0.0171036 0.0132431)
(-0.0154237 -0.0196342 0.0131567)
(-0.0163317 -0.0208156 0.0126358)
(-0.0161281 -0.0205917 0.0134281)
(-0.0168462 -0.0207577 0.0144065)
(-0.0173482 -0.0225823 0.0144239)
(-0.0177654 -0.022963 0.0170107)
(-0.0143768 -0.0186948 0.0144062)
(-0.0144953 -0.0189028 0.0125479)
(-0.015041 -0.0178674 0.00746913)
(-0.0153977 -0.0193322 0.00835525)
(-0.0151213 -0.0205432 0.00908407)
(-0.0156711 -0.0186277 0.0082116)
(-0.0154802 -0.0191035 0.00823863)
(-0.0166716 -0.0196112 0.00841065)
(-0.0167294 -0.0196173 0.00693378)
(-0.014863 -0.0184033 0.00682557)
(-0.0156442 -0.0208207 0.00873034)
(-0.0149304 -0.0188547 0.00711285)
(-0.0152461 -0.0192885 0.00703819)
(-0.0152966 -0.0197963 0.00831237)
(-0.0122571 -0.0155702 0.00795066)
(-0.0130701 -0.0163356 0.00860239)
(-0.0147997 -0.0182254 0.0110253)
(-0.0143246 -0.0182147 0.00961724)
(-0.0138249 -0.0171338 0.00924396)
(-0.0139191 -0.0176809 0.0090815)
(-0.0151404 -0.0194192 0.00888409)
(-0.0159269 -0.0202372 0.00972628)
(-0.0173675 -0.0219685 0.0113055)
(-0.0163207 -0.0209413 0.00919954)
(-0.0147937 -0.0189249 0.0099003)
(-0.0160665 -0.0201961 0.0104719)
(-0.015573 -0.0199412 0.00733925)
(-0.0131448 -0.0171969 0.00690795)
(-0.0140517 -0.0186255 0.00773665)
(-0.0146322 -0.0197313 0.00869873)
(-0.0157565 -0.0208282 0.00867083)
(-0.0131116 -0.0181642 0.00768246)
(-0.0150732 -0.0197112 0.00740927)
(-0.0150124 -0.0195838 0.00793245)
(-0.0176241 -0.0189763 0.00855709)
(-0.017822 -0.0197074 0.00899768)
(-0.0173235 -0.0191854 0.00875782)
(-0.0172155 -0.0187108 0.00842334)
(-0.0171291 -0.0196928 0.00913067)
(-0.0181764 -0.0213601 0.010361)
(-0.015092 -0.0189521 0.00799933)
(-0.0173285 -0.0212261 0.00935857)
(-0.0161968 -0.0205306 0.00895898)
(-0.0158228 -0.0203764 0.00878229)
(-0.0164575 -0.0203784 0.00885842)
(-0.0163593 -0.0198471 0.00858116)
(-0.0156803 -0.0203016 0.0114349)
(-0.0162416 -0.0208525 0.0110167)
(-0.0170705 -0.021861 0.0117334)
(-0.0159717 -0.0205657 0.0124405)
(-0.0158157 -0.0203578 0.0119948)
(-0.0157996 -0.0203672 0.0112237)
(-0.0152163 -0.0195945 0.00993346)
(-0.0155616 -0.0200596 0.0117389)
(-0.0153066 -0.0197749 0.0108481)
(-0.0161523 -0.0206767 0.0100754)
(-0.0156512 -0.0201529 0.0113318)
(-0.0168483 -0.0215738 0.01188)
(-0.0170427 -0.0212411 0.0105997)
(-0.0169113 -0.0193721 0.00886928)
(-0.0180669 -0.0201312 0.00911694)
(-0.0171527 -0.0200513 0.00880221)
(-0.0167553 -0.0198769 0.00936316)
(-0.0167066 -0.0204746 0.00931864)
(-0.0176665 -0.0211782 0.00969338)
(-0.0160331 -0.0195321 0.00891846)
(-0.0174707 -0.020487 0.00923921)
(-0.0173716 -0.0207545 0.00967038)
(-0.0116289 -0.0143784 0.00743307)
(-0.0114337 -0.0146861 0.00686015)
(-0.00976292 -0.011993 0.00667836)
(-0.00917688 -0.0115464 0.00541755)
(-0.0111788 -0.0141883 0.00647951)
(-0.0115347 -0.0137004 0.00752968)
(-0.0113142 -0.0150469 0.00638795)
(-0.0127873 -0.0170223 0.00719389)
(-0.0121494 -0.016526 0.0067634)
(-0.0118787 -0.0153447 0.00665825)
(-0.0116538 -0.0156058 0.00635453)
(-0.0117604 -0.0152993 0.00692658)
(-0.00767771 -0.0107457 0.0040192)
(-0.00665187 -0.00936471 0.00357545)
(-0.00682509 -0.00941974 0.00361511)
(-0.00726716 -0.0104452 0.00386949)
(-0.00626786 -0.00958145 0.00329482)
(-0.00717482 -0.0107379 0.00362231)
(-0.00826208 -0.00944537 0.00522889)
(-0.010077 -0.0112897 0.00629751)
(-0.00846316 -0.00979569 0.00523503)
(-0.00977634 -0.0109876 0.00656475)
(-0.00887059 -0.0101188 0.00588369)
(-0.0105737 -0.0123068 0.00648483)
(-0.00877678 -0.0106972 0.00520178)
(-0.00858647 -0.0108156 0.00515145)
(-0.00736229 -0.00981785 0.00415856)
(-0.00714741 -0.00993413 0.00406267)
(-0.00775687 -0.0100486 0.0043241)
(-0.0078125 -0.0108653 0.00429987)
(-0.00635586 -0.00828201 0.00370293)
(-0.0067492 -0.00835386 0.00403764)
(-0.00682278 -0.00840874 0.0041177)
(-0.00543909 -0.00704607 0.00339114)
(-0.0055407 -0.00726003 0.00330288)
(-0.00645127 -0.00767142 0.00394443)
(-0.00465069 -0.00711609 0.00282538)
(-0.00578815 -0.00830678 0.00327251)
(-0.00570934 -0.00828739 0.00332162)
(-0.00597225 -0.00794435 0.00355688)
(-0.00529167 -0.0074364 0.0030536)
(-0.00532682 -0.00758669 0.00318092)
(-0.0154495 -0.0172216 0.0193788)
(-0.0139804 -0.0189751 0.017021)
(-0.0146663 -0.0180912 0.0183149)
(-0.0147411 -0.0202212 0.0167874)
(-0.0145069 -0.0168518 0.0176776)
(-0.0138574 -0.0167006 0.0172306)
(-0.0151175 -0.0200706 0.0184962)
(-0.0145433 -0.012594 0.0159833)
(-0.0151223 -0.0137626 0.0180518)
(-0.014889 -0.0126435 0.0163528)
(-0.0137885 -0.0131413 0.0166851)
(-0.014121 -0.0107634 0.0151564)
(-0.0144193 -0.0109544 0.0151167)
(-0.0151159 -0.02196 0.0128923)
(-0.0180798 -0.0239622 0.0128669)
(-0.0160078 -0.0218633 0.0117287)
(-0.0179112 -0.0233692 0.0127869)
(-0.0157868 -0.0222438 0.0140756)
(-0.0172413 -0.0240509 0.0151069)
(-0.0175778 -0.021505 0.0106845)
(-0.0173988 -0.0217498 0.0111944)
(-0.0163072 -0.0200787 0.0099159)
(-0.0166256 -0.0213429 0.0112755)
(-0.0173345 -0.0207942 0.0101783)
(-0.017221 -0.0208472 0.0103784)
(-0.0160277 -0.022864 0.0129749)
(-0.0165076 -0.0229852 0.0112696)
(-0.0160108 -0.0227229 0.0116095)
(-0.0151128 -0.021424 0.0112308)
(-0.0159806 -0.0226316 0.0113126)
(-0.0146887 -0.0204828 0.0109922)
(-0.0166048 -0.0229832 0.011117)
(-0.0178409 -0.0223456 0.0100168)
(-0.0170748 -0.0222484 0.0103536)
(-0.0176087 -0.0221981 0.00975479)
(-0.0172274 -0.023637 0.0111145)
(-0.0161297 -0.0217455 0.010331)
(-0.0136717 -0.0211463 0.0156125)
(-0.0156998 -0.0231789 0.0144774)
(-0.015092 -0.0226271 0.0149499)
(-0.0154524 -0.0230393 0.0140031)
(-0.0154483 -0.0221746 0.016613)
(-0.0151086 -0.0222612 0.0155533)
(-0.0140997 -0.0195151 0.0177142)
(-0.0148051 -0.0197618 0.0199148)
(-0.0152203 -0.0223676 0.0173679)
(-0.015592 -0.0193056 0.0205538)
(-0.0142993 -0.0186235 0.0183973)
(-0.0163851 -0.0230048 0.0201701)
(-0.00548258 -0.00848756 0.00596647)
(-0.00617898 -0.00935109 0.00635457)
(-0.00606618 -0.0090223 0.00649895)
(-0.00660031 -0.00948784 0.00697253)
(-0.00628993 -0.00955108 0.0072404)
(-0.00531505 -0.00830017 0.00521702)
(-0.00398668 -0.00558553 0.00291338)
(-0.00397441 -0.00545643 0.00280941)
(-0.00395522 -0.00565979 0.00301731)
(-0.00429386 -0.00594141 0.00323461)
(-0.004016 -0.00550045 0.00282581)
(-0.00415933 -0.00599005 0.00316535)
(-0.00926915 -0.0119173 0.00927494)
(-0.00746556 -0.0106953 0.00807861)
(-0.00813672 -0.0109547 0.00775217)
(-0.00861834 -0.0108758 0.00799701)
(-0.00738904 -0.0100098 0.0076273)
(-0.00726906 -0.0104643 0.00786312)
(-0.0065747 -0.00952489 0.00654275)
(-0.00508511 -0.00836005 0.00552862)
(-0.00617622 -0.00952817 0.00643836)
(-0.00544861 -0.00824331 0.00598864)
(-0.00526572 -0.00782854 0.00511213)
(-0.00541837 -0.00869619 0.00589326)
(-0.00941924 -0.0120052 0.00801769)
(-0.00956034 -0.0122248 0.0080525)
(-0.00843373 -0.0109324 0.00773841)
(-0.00923989 -0.0113706 0.0077709)
(-0.0104257 -0.0138143 0.00840089)
(-0.0084655 -0.0112759 0.00768241)
(-0.0157988 -0.0152217 0.0106431)
(-0.0138225 -0.0138627 0.00969167)
(-0.014547 -0.0136992 0.0102088)
(-0.0148416 -0.0152748 0.00994459)
(-0.0151581 -0.0153046 0.00977961)
(-0.0073788 -0.0102343 0.00696898)
(-0.00761135 -0.0108031 0.00668046)
(-0.00638713 -0.00992693 0.00669945)
(-0.00806498 -0.0117265 0.00703144)
(-0.0073974 -0.0105361 0.00704319)
(-0.00621188 -0.00946668 0.00641783)
(-0.00930967 -0.012436 0.00690473)
(-0.00913808 -0.0118149 0.00686589)
(-0.0108807 -0.0118422 0.0100201)
(-0.0124314 -0.0137402 0.0104445)
(-0.0109499 -0.0132973 0.0109775)
(-0.0100445 -0.0116455 0.0101077)
(-0.0109775 -0.012844 0.00965556)
(-0.0117974 -0.0137964 0.0101039)
(-0.0135335 -0.0154784 0.00845125)
(-0.0131928 -0.0143637 0.00888807)
(-0.0156758 -0.0152709 0.0104114)
(-0.013471 -0.014517 0.00928819)
(-0.014068 -0.0156013 0.00904024)
(-0.0142696 -0.0151531 0.00944304)
(-0.00901922 -0.0109884 0.00864239)
(-0.0095102 -0.0111408 0.00878684)
(-0.00889511 -0.0110629 0.00775576)
(-0.0101196 -0.0124235 0.00787981)
(-0.0109687 -0.0125736 0.00956396)
(-0.0104812 -0.0123301 0.00813011)
(-0.0107826 -0.0124316 0.00787187)
(-0.0114978 -0.0128678 0.00855657)
(-0.0100669 -0.0123585 0.0071591)
(-0.0115201 -0.0143836 0.00778021)
(-0.0108575 -0.0129885 0.00770328)
(-0.0102708 -0.0120742 0.00763638)
(-0.0132402 -0.0151905 0.00841438)
(-0.0120015 -0.0144741 0.00763379)
(-0.0125982 -0.0143101 0.00873189)
(-0.0128441 -0.0154675 0.0081644)
(-0.0125284 -0.014452 0.00859629)
(-0.0168072 -0.021541 0.00875088)
(-0.0176591 -0.0218346 0.00929858)
(-0.0166811 -0.0212832 0.0094062)
(-0.0159885 -0.0212015 0.00953052)
(-0.0170189 -0.0208639 0.00866689)
(-0.015059 -0.0193051 0.00898896)
(-0.0140513 -0.0149089 0.0124557)
(-0.0141305 -0.0153063 0.0129902)
(-0.0155511 -0.0173744 0.0140168)
(-0.0150831 -0.0176932 0.0126188)
(-0.0132045 -0.0148317 0.0111183)
(-0.0142753 -0.0165965 0.0120808)
(-0.0126573 -0.0139112 0.0093646)
(-0.0127505 -0.0145902 0.0100503)
(-0.0134601 -0.0157977 0.010848)
(-0.01368 -0.015648 0.0102862)
(-0.0130396 -0.014114 0.010241)
(-0.0130846 -0.0154924 0.0102046)
(-0.00560187 -0.00664694 0.00323668)
(-0.00467855 -0.00625914 0.00287332)
(-0.00513612 -0.00624396 0.00303628)
(-0.00444991 -0.00623765 0.00290982)
(-0.0047649 -0.00594288 0.00282023)
(-0.00557551 -0.00670396 0.00318236)
(-0.0131779 -0.0183075 0.00736366)
(-0.0145318 -0.0207538 0.00835186)
(-0.013504 -0.0195036 0.00770108)
(-0.0149368 -0.0166748 0.00691289)
(-0.0156826 -0.0173083 0.00771274)
(-0.0122863 -0.016994 0.00665399)
(-0.0168762 -0.0123561 0.013024)
(-0.0192596 -0.0138955 0.0140921)
(-0.017999 -0.0124953 0.013722)
(-0.0201249 -0.0146156 0.0137807)
(-0.0185001 -0.0144933 0.0122865)
(-0.0184311 -0.0151488 0.0133017)
(-0.0155708 -0.0128718 0.01545)
(-0.0179042 -0.0133119 0.016194)
(-0.0155781 -0.0129774 0.0141481)
(-0.0175531 -0.0128427 0.0158706)
(-0.0157871 -0.0126895 0.0137628)
(-0.0156597 -0.0120459 0.0151426)
(-0.014048 -0.0119557 0.0138632)
(-0.0132885 -0.012199 0.0128187)
(-0.0137065 -0.0121692 0.0141149)
(-0.0151874 -0.012975 0.0131679)
(-0.0146441 -0.0129801 0.0126298)
(-0.0101729 -0.00677195 0.00717938)
(-0.00977702 -0.00678488 0.00707116)
(-0.0111582 -0.00876678 0.00909414)
(-0.0124482 -0.00867741 0.0104733)
(-0.0111306 -0.00891376 0.00808935)
(-0.0108723 -0.00775345 0.00838458)
(-0.0161956 -0.0159836 0.00876954)
(-0.0157917 -0.016174 0.00898829)
(-0.0159812 -0.0173629 0.00920703)
(-0.0169183 -0.016136 0.00892139)
(-0.0155836 -0.013759 0.01248)
(-0.0146269 -0.0128729 0.0131692)
(-0.0141653 -0.0121727 0.0140481)
(-0.017132 -0.0133271 0.013523)
(-0.0166969 -0.0141775 0.0111356)
(-0.0179917 -0.0153855 0.0115401)
(-0.0186004 -0.0154544 0.0149426)
(-0.0191762 -0.0157573 0.0146894)
(-0.0154398 -0.0130816 0.0125205)
(-0.0172 -0.013263 0.013845)
(-0.0175028 -0.0146453 0.012682)
(-0.0162767 -0.0142153 0.0113146)
(-0.0159253 -0.0146511 0.0117944)
(-0.015664 -0.012599 0.012051)
(-0.0156577 -0.01344 0.0125816)
(-0.0180482 -0.0149974 0.0127064)
(-0.0193987 -0.0158555 0.0131377)
(-0.0192538 -0.0149214 0.0137813)
(-0.0196679 -0.0149193 0.0144781)
(-0.0132858 -0.0188298 0.00764819)
(-0.0111799 -0.01148 0.00861507)
(-0.01148 -0.0118161 0.0092898)
(-0.0131523 -0.0133675 0.0113431)
(-0.0129739 -0.0135839 0.0104151)
(-0.0128397 -0.013332 0.00991618)
(-0.0125641 -0.0134102 0.0103886)
(-0.0131215 -0.0144271 0.0106786)
(-0.0136256 -0.0162809 0.0113797)
(-0.0165563 -0.0197638 0.00781174)
(-0.0166872 -0.0208917 0.0088975)
(-0.0168639 -0.0209559 0.00884088)
(-0.0163656 -0.0210588 0.00857808)
(-0.0153291 -0.0197386 0.007676)
(-0.0163691 -0.0202877 0.00852902)
(-0.0156207 -0.0204774 0.00975486)
(-0.0171739 -0.0215425 0.00969682)
(-0.016407 -0.0205003 0.00873786)
(-0.00524928 -0.00852143 0.00539965)
(-0.00627683 -0.0088703 0.00734894)
(-0.00447994 -0.00769555 0.00548783)
(-0.00442209 -0.00690517 0.00485142)
(-0.00521179 -0.00794075 0.0063697)
(-0.00408757 -0.00618275 0.00350762)
(-0.00424385 -0.00686487 0.00423945)
(-0.00613377 -0.00858647 0.00811822)
(-0.00620181 -0.00895663 0.00866897)
(-0.00643693 -0.00938659 0.00690129)
(-0.00510905 -0.00828939 0.00708101)
(-0.00604305 -0.00937002 0.00688955)
(-0.00630726 -0.00906557 0.00762366)
(-0.0071781 -0.0100595 0.00832901)
(-0.00678314 -0.0100335 0.00827461)
(-0.00522385 -0.00795552 0.00669401)
(-0.00644282 -0.00916785 0.00747977)