/*--------------------------------*- C++ -*----------------------------------*\
| =========                 |                                                 |
| \\      /  F ield         | OpenFOAM: The Open Source CFD Toolbox           |
|  \\    /   O peration     | Version:  v1612+                                |
|   \\  /    A nd           | Web:      www.OpenFOAM.com                      |
|    \\/     M anipulation  |                                                 |
\*---------------------------------------------------------------------------*/
FoamFile
{
    version     2.0;
    format      ascii;
    class       volVectorField;
    location    "118";
    object      wallShearStress;
}
// * * * * * * * * * * * * * * * * * * * * * * * * * * * * * * * * * * * * * //

dimensions      [0 2 -2 0 0 0 0];

internalField   uniform (0 0 0);

boundaryField
{
    WALL
    {
        type            calculated;
        value           nonuniform List<vector> 
54707
(
(0.0157622 0.00181847 0.0135989)
(-0.00298095 -0.0113759 0.00963451)
(-0.00292446 -0.0137676 0.00373831)
(0.0156293 0.00285617 0.0142288)
(-0.00225229 -0.0101947 0.00954328)
(-0.00309679 -0.0145313 0.00420091)
(0.00194802 -0.010934 0.00803743)
(0.00190635 -0.0115525 0.00808068)
(-0.00294566 -0.0109623 0.00962467)
(-0.00281369 -0.0109896 0.00973692)
(0.0237668 0.00113145 0.0128922)
(0.0229716 0.00244243 0.0138816)
(-0.00270781 -0.0105571 0.00938543)
(-0.00255625 -0.0103652 0.00936097)
(0.00993046 -0.00881198 -0.017181)
(0.0107048 -0.00994365 -0.0186741)
(-0.00330014 -0.0144275 0.0122563)
(-0.00363512 -0.0142139 0.0122095)
(-0.00336634 -0.010655 0.00993137)
(-0.00255731 -0.00942483 0.00806159)
(-0.00912964 -0.0214526 0.0168513)
(-0.00842549 -0.0201504 0.0197552)
(0.0141606 0.000735065 0.0187717)
(0.0133929 -0.000434374 0.0180901)
(-0.00326245 -0.0147885 0.0041404)
(-0.002955 -0.0139664 0.00402025)
(0.00858251 -0.00754732 -0.0153365)
(0.00836293 -0.00659909 -0.0153884)
(-0.00270457 -0.0105727 0.00923356)
(-0.00286206 -0.0105533 0.00930701)
(-0.00305434 -0.0106085 0.00914504)
(-0.00263879 -0.010267 0.0090781)
(-0.00318897 -0.00617243 0.012741)
(-0.00369543 -0.00600772 0.0088651)
(0.0148496 -0.00449487 0.00522683)
(0.0149762 -0.00483636 0.00551243)
(-0.00312074 -0.0133989 0.00360825)
(-0.00298437 -0.0135284 0.00370831)
(-0.00275898 -0.012628 0.00343791)
(-0.00288456 -0.0124509 0.00346451)
(-0.0104659 -0.0176129 -0.000426948)
(-0.00978033 -0.0185974 -0.00142079)
(0.00119542 -0.00754385 0.0146184)
(0.00180755 -0.0102851 0.0145445)
(0.00446599 -0.0093161 0.0119574)
(0.00319332 -0.00886482 0.0133641)
(0.00102985 -0.0122652 0.00640793)
(0.000831791 -0.0121707 0.00628686)
(0.00373252 -0.0192386 0.00975775)
(0.00291489 -0.019505 0.00946052)
(-0.00288474 -0.0128753 0.00346224)
(-0.00306514 -0.01312 0.00362353)
(-0.00310807 -0.0146766 0.00402157)
(-0.00312356 -0.0143582 0.00396903)
(-0.00283063 -0.0129239 0.00353088)
(-0.00280285 -0.012728 0.00347742)
(0.00903045 0.00115822 0.00665274)
(0.00958098 0.00192937 0.00758747)
(0.0136763 0.00429589 0.0143038)
(0.0149525 0.0050653 0.0160136)
(0.0168855 0.00628687 0.0109454)
(0.0164993 0.00563467 0.00881834)
(0.0175174 0.00626674 0.0119533)
(0.0168972 0.00462999 0.00999426)
(0.0212594 -0.00526936 0.00969973)
(0.0208945 -0.00304118 0.0110418)
(-0.00303876 -0.0127303 0.00373156)
(0.0173952 -0.0117713 0.00749513)
(0.0144893 -0.0128444 0.0073711)
(0.00407874 -0.01258 0.00872253)
(0.0038154 -0.0118571 0.0108703)
(0.00642551 -0.0129911 0.00466799)
(0.00736715 -0.0126487 0.00404449)
(0.0194913 -0.00240312 0.0121767)
(0.0190596 -0.0034461 0.00978826)
(0.0214705 0.00372081 0.0124115)
(0.0224211 0.00198074 0.0126516)
(0.0218292 0.00204985 0.0114671)
(0.0228152 0.00112247 0.0120796)
(0.0156311 -0.00565815 0.00826683)
(0.0160559 -0.00560631 0.00841399)
(0.00749579 -0.00865428 0.00754618)
(0.00581203 -0.00904696 0.00717054)
(0.0155586 0.00447778 0.0121003)
(0.0156273 0.0049746 0.0120129)
(0.00258156 -0.0110486 0.00267299)
(0.00251998 -0.00954353 0.00330036)
(0.00144023 -0.0104865 0.0132637)
(0.00164455 -0.0112988 0.0134025)
(0.00340161 -0.00981835 0.00750117)
(0.00285785 -0.00921748 0.0076096)
(0.00413105 -0.0105393 0.00579273)
(0.0044261 -0.010318 0.00541256)
(0.00187848 -0.00944545 -0.0161626)
(0.000685988 -0.00860717 -0.0150517)
(0.00605042 -0.0158271 -0.0252753)
(0.00640205 -0.0166506 -0.0234947)
(0.00655031 -0.0186942 -0.0210846)
(0.00595909 -0.0181766 -0.0235865)
(0.00767291 -0.0187132 0.00726274)
(0.00771039 -0.0181388 0.007726)
(-0.0136467 -0.0154805 -0.000533296)
(-0.01394 -0.0158528 0.000131528)
(-0.0181231 -0.0149533 -0.00257791)
(-0.0157254 -0.0151517 -0.00171913)
(-0.0151394 -0.0144057 -0.00664368)
(-0.0146607 -0.0133274 -0.00721838)
(-0.00445103 -0.0280048 0.0229262)
(-0.006126 -0.0273817 0.0226945)
(0.00240846 -0.0112218 0.00894037)
(0.00247588 -0.0117655 0.0084529)
(0.00892918 -0.00416182 0.00752469)
(0.00892542 -0.00556079 0.00698709)
(-0.0226792 -0.0160491 0.000501477)
(-0.0221342 -0.0148436 -0.0010042)
(-0.0123535 -0.0185499 -0.00269835)
(-0.0137501 -0.0173426 -0.0032896)
(0.00521599 -0.00947304 0.0311294)
(0.00244687 -0.00777642 0.0306974)
(0.000546813 -0.0113578 0.0215237)
(0.00265123 -0.0131469 0.0201521)
(-0.0154691 -0.00647058 0.00322754)
(-0.0167061 -0.00768015 0.0043682)
(-0.0143796 -0.00801308 0.00243727)
(-0.0140402 -0.00728896 0.00372199)
(-0.018833 -0.0125419 -0.00152507)
(-0.0198195 -0.0139944 -0.00111768)
(0.00137512 -0.00598296 0.00396769)
(0.000406695 -0.00460475 0.00298103)
(-0.00141076 -0.00885329 0.00711794)
(-0.00142222 -0.00769031 0.00630906)
(-0.00236773 -0.0113689 0.0107243)
(-0.00249418 -0.012079 0.011625)
(-0.00252148 -0.0100107 0.008705)
(-0.00264461 -0.00972341 0.00836112)
(-0.00268612 -0.0105991 0.0092625)
(-0.00280258 -0.0106848 0.00937675)
(0.00074665 -0.012848 0.0192208)
(0.00069932 -0.0134227 0.0188784)
(-0.000542964 -0.0158093 0.0179141)
(0.000548621 -0.0149294 0.0188961)
(-0.00437305 -0.0211019 0.0178491)
(-0.0060563 -0.0223428 0.0197327)
(-0.00281345 -0.0104585 0.00914452)
(-0.00294134 -0.0104987 0.00917195)
(-0.00279266 -0.0106384 0.00933283)
(-0.00264905 -0.0104712 0.00911232)
(-0.00263977 -0.0105775 0.00906528)
(-0.0027034 -0.0105779 0.00918655)
(-0.00411271 -0.014615 0.012984)
(-0.00404515 -0.0149275 0.0133435)
(-0.002856 -0.0105274 0.00920479)
(-0.00279312 -0.0103577 0.00909369)
(-0.00639059 -0.014989 0.00589531)
(-0.00565457 -0.0129733 0.00631423)
(-0.0180846 0.0148292 0.0126463)
(-0.0182433 0.0186752 0.0138828)
(-0.00370814 -0.0163017 0.00425928)
(-0.00371797 -0.017264 0.00461175)
(0.0143852 0.00136799 0.00765521)
(0.0155036 0.00141207 0.00829378)
(0.0100143 -0.004093 -0.0136659)
(0.00945742 -0.00405123 -0.0118914)
(0.0057325 -0.0122308 0.00028695)
(0.00645424 -0.0149869 0.000796737)
(0.00842258 -0.00230336 0.00470291)
(0.00878979 -0.00271655 0.00437052)
(0.00153308 -0.0123552 0.00768732)
(0.00131949 -0.0109169 0.0071384)
(0.00161135 -0.0122097 0.00705913)
(0.00195191 -0.0130861 0.00705244)
(0.00359656 -0.0135388 0.00708253)
(0.00418969 -0.0139592 0.00725226)
(-0.00273949 -0.0104025 0.00910395)
(-0.00262361 -0.0103961 0.00896408)
(0.010579 -0.00956034 0.0021691)
(0.0106853 -0.0105443 0.00178588)
(0.00168388 -0.0190386 0.00857974)
(0.00188592 -0.0181517 0.00821526)
(-0.00266898 -0.0105171 0.00905776)
(-0.00260992 -0.0104671 0.00898182)
(-0.00152553 -0.0179784 0.00800831)
(-0.00151561 -0.0203365 0.0103467)
(0.00589949 -0.0219219 0.020867)
(0.0070748 -0.0205173 0.0241361)
(0.00331345 -0.00995257 0.0111343)
(0.00328331 -0.0102268 0.00980586)
(0.00223048 -0.00901646 0.00536542)
(0.00241443 -0.0087949 0.00501546)
(0.0032863 -0.00803264 0.00408843)
(0.00275106 -0.00807491 0.00444014)
(-0.00207104 -0.0048258 -0.00797925)
(-0.00201872 -0.00407327 -0.00819528)
(0.0190426 0.0071526 0.00504377)
(0.0194711 0.00648634 0.00448109)
(0.0138957 0.00176068 0.00728141)
(0.0146641 0.00258454 0.00768142)
(0.0126001 -0.00898238 0.00297921)
(0.012127 -0.00963727 0.00264043)
(0.0191047 -0.031272 -0.00298063)
(0.0180673 -0.0290648 0.00231093)
(0.0130265 -0.00144548 0.0202267)
(0.0147404 -0.000533806 0.0216153)
(0.00545315 -0.00703738 0.003836)
(0.00507404 -0.00701259 0.00459838)
(-0.00215916 -0.00865392 0.00713101)
(-0.00179734 -0.00983242 0.00801931)
(-0.00781488 -0.0335071 0.00985862)
(-0.00767222 -0.0312712 0.00921488)
(0.00416937 -0.00892623 0.0108608)
(0.003547 -0.00746364 0.0100053)
(-0.00621677 -0.0105692 0.00705257)
(-0.00828847 -0.01213 0.00499536)
(-0.000566087 0.0110695 0.0191611)
(-7.05732e-05 0.00981701 0.0188477)
(0.00221386 -0.0135166 0.00748816)
(0.0024617 -0.013539 0.00751759)
(0.00410865 -0.0106137 0.00529871)
(0.00471491 -0.0105743 0.00520646)
(0.00439728 -0.0108113 0.0053285)
(0.00392998 -0.0111497 0.00563707)
(0.00175287 -0.0149352 0.00733974)
(0.00169212 -0.014907 0.00696)
(0.00154831 -0.014706 0.00631303)
(0.00143488 -0.0153716 0.00699288)
(-0.00144548 -0.0125059 0.00479719)
(-0.00181158 -0.0125047 0.00468819)
(-0.0027764 -0.0129901 0.0035559)
(-0.00260601 -0.0123632 0.00356464)
(-0.00286655 -0.0127112 0.0034558)
(-0.00275963 -0.012384 0.00337049)
(0.00960838 -0.00061376 0.00880621)
(0.00902301 -0.000336344 0.00816896)
(0.00890075 -0.000765526 0.00756714)
(0.00857505 -0.00101268 0.00734844)
(0.00920409 -0.000368139 0.007889)
(0.0088651 0.000117999 0.00780387)
(0.0138746 0.00353876 0.0147003)
(0.0134114 0.00285585 0.0155442)
(0.0130865 0.00189361 0.0039933)
(0.0126955 0.00155676 0.00426049)
(-0.00279316 -0.0132124 0.00394373)
(-0.0030804 -0.0133862 0.00360178)
(-0.00278717 -0.0133191 0.00401751)
(-0.0030412 -0.0138488 0.00391487)
(0.0208291 0.00529549 0.00913376)
(0.0195205 0.0055746 0.00891155)
(0.0183789 0.00632269 0.00950545)
(0.0180369 0.00714336 0.00950279)
(0.0170519 0.0036364 0.0165559)
(0.0144811 0.00350711 0.016041)
(-0.000364474 -0.0114267 0.00534817)
(-0.000737615 -0.0113083 0.00544781)
(0.0163179 -0.00552392 0.00677023)
(0.0162899 -0.00633476 0.00649643)
(0.0121139 -0.000355752 0.0066498)
(0.0116736 -0.00034339 0.00606496)
(0.0114903 0.00115472 0.00412035)
(0.0126458 0.000901894 0.00543397)
(0.010646 -0.000721104 0.00254824)
(0.0101411 -0.00132622 0.00232573)
(0.00945266 -0.0138827 0.00954202)
(0.0087139 -0.0143544 0.00990143)
(0.0194106 0.00712536 0.00494671)
(0.0200785 0.006243 0.00531289)
(0.0201895 0.00630263 0.00487343)
(0.0193203 0.00695328 0.00467364)
(-0.000733181 -0.0119517 0.00501843)
(-0.000292438 -0.0118322 0.00492809)
(0.000351502 -0.0108573 0.00496242)
(6.30114e-05 -0.0109934 0.00501371)
(0.00253341 -0.00871804 0.00330284)
(0.00230072 -0.00824382 0.00347584)
(0.0149006 -0.00824939 -0.0214697)
(0.0151567 -0.0102962 -0.0222382)
(0.00684129 -0.0202097 -0.0197863)
(0.00801449 -0.0215922 -0.0194931)
(0.00874418 0.00348772 0.00985442)
(0.00779866 0.00379636 0.0105874)
(-0.00772913 -0.0143663 -0.00232658)
(-0.00736975 -0.014594 -0.00193476)
(0.0070695 -0.00168573 0.00766026)
(0.00681605 -0.00130762 0.00761561)
(-0.0152672 -0.0133541 0.00482)
(-0.0145941 -0.0130806 0.00461696)
(0.00520526 -0.0112958 0.00765412)
(0.00482401 -0.0114813 0.00805106)
(-0.0203158 -0.0164262 0.00555584)
(-0.0210873 -0.0170979 0.00469002)
(0.0059555 -0.0184352 0.0311297)
(0.00720883 -0.0167356 0.0307471)
(0.00483203 -0.0168565 0.0274614)
(0.00578833 -0.0183502 0.0252815)
(-0.00204254 -0.0200812 0.01941)
(-0.00110391 -0.0199979 0.0157014)
(-0.0175161 -0.0107686 0.00795467)
(-0.0152934 -0.0119824 0.00818009)
(-0.00240103 -0.00993417 0.00900548)
(-0.00285929 -0.0107645 0.00944235)
(-0.00129859 -0.00806178 0.00640837)
(-0.00130882 -0.00722189 0.00575042)
(-0.00151085 -0.00723036 0.00591408)
(-0.00148679 -0.00705958 0.00554276)
(-0.0027173 -0.0109413 0.00990802)
(-0.00288869 -0.0108752 0.00957891)
(0.0127827 -0.0213481 -0.00162974)
(0.0131575 -0.0213889 0.00124116)
(-0.00322284 -0.000807504 0.00569774)
(-0.0030841 -0.00109611 0.00604665)
(-0.00676029 -0.0173656 0.00389382)
(-0.00808976 -0.0164347 0.00466492)
(-0.00193025 -0.011869 -0.0182433)
(-0.00239717 -0.0132692 -0.0260501)
(0.0140004 0.000406051 0.00806967)
(0.0150643 -0.000156035 0.00884148)
(-0.00327237 -0.0156192 0.00442742)
(-0.00358193 -0.0156509 0.00417675)
(-0.00626597 -0.0330353 0.00856315)
(-0.00656685 -0.0314738 0.00754072)
(-0.00288355 -0.0132909 0.0040122)
(-0.00282257 -0.012383 0.0035368)
(-8.97418e-05 -0.0120971 0.0143895)
(-0.00019454 -0.0121253 0.0135179)
(0.00214453 -0.00759531 -0.0102955)
(0.00287976 -0.0185103 0.00818181)
(0.0027392 -0.0187422 0.00817344)
(0.00139267 -0.0109722 0.00609348)
(0.00136392 -0.0116847 0.00621541)
(0.00416871 -0.00767642 0.00499714)
(0.00379935 -0.00797666 0.00516062)
(0.00155716 -0.0125225 0.00722971)
(0.000832557 -0.011549 0.00694343)
(-0.00283677 -0.010062 0.00840744)
(-0.00289623 -0.0115947 0.0094162)
(-0.00287515 -0.0102581 0.00897935)
(-0.0028919 -0.0105487 0.00903593)
(-0.00260847 -0.0101178 0.00893934)
(-0.00259341 -0.009837 0.00857161)
(-0.00304835 -0.0103985 0.00912628)
(-0.00267647 -0.0104231 0.00901536)
(-0.00260351 -0.00994685 0.0087831)
(-0.00294544 -0.0106935 0.00921744)
(-0.00266757 -0.00986104 0.00854908)
(-0.003088 -0.0102505 0.00908703)
(-0.00270361 -0.0105202 0.00917051)
(-0.00258266 -0.0100753 0.0087447)
(-0.00238873 -0.010109 0.00857362)
(-0.00282997 -0.0104001 0.00890772)
(-0.00261776 -0.00976806 0.00860979)
(-0.00261652 -0.0106324 0.00897678)
(-0.00267047 -0.0102421 0.00910454)
(-0.00273682 -0.0104224 0.00908427)
(0.00416621 -0.0113196 0.00532024)
(0.00343408 -0.011323 0.00563196)
(0.00204412 -0.0124618 0.00730554)
(0.00273555 -0.0131916 0.00743797)
(0.00437625 -0.013728 0.00672307)
(0.00439549 -0.0136513 0.00677874)
(0.00223007 -0.0126491 0.00723289)
(0.00165663 -0.0116706 0.0076202)
(0.00317676 -0.0110925 0.00954343)
(0.00358781 -0.0104847 0.00950186)
(0.00107617 -0.00990229 0.00693547)
(0.0014228 -0.00982845 0.00724876)
(0.0090163 0.00317093 0.00596179)
(0.00971065 0.00364607 0.00644551)
(-0.00271401 -0.0133655 0.00388981)
(-0.0025052 -0.0128498 0.00375838)
(-0.00322109 -0.0138495 0.00558699)
(-0.0033429 -0.0138244 0.00532249)
(-0.00284956 -0.0128126 0.00354487)
(-0.00287501 -0.013154 0.00369177)
(-0.00285275 -0.012975 0.00360922)
(-0.00283612 -0.0127891 0.00347809)
(0.0116594 -0.00543658 0.0197541)
(0.0117848 -0.00334347 0.0207247)
(0.019717 0.00104915 0.0162182)
(0.0210213 3.83226e-06 0.0144542)
(0.00379516 -0.007511 0.0129654)
(0.00361313 -0.00686805 0.013128)
(0.0103145 -0.00800281 0.00407856)
(0.00980816 -0.00786078 0.00387379)
(0.0104212 -0.00666897 0.00384009)
(0.0101472 -0.00582313 0.00363008)
(0.00951128 -0.00462576 0.00389442)
(0.0101542 -0.00533274 0.0039989)
(0.00946712 -0.00398854 0.00396762)
(0.0100343 -0.00484114 0.00373222)
(0.00866358 -0.00269635 0.00448144)
(0.00864936 -0.00297427 0.00391805)
(0.0135322 -0.010503 0.00600054)
(0.0133143 -0.00966262 0.00478408)
(0.0108336 -0.00515625 0.00374429)
(0.0103163 -0.00399057 0.00377752)
(0.0114086 -0.00431071 0.00405504)
(0.0110907 -0.00389188 0.00413482)
(0.0103562 -0.00524679 0.00432531)
(0.0102053 -0.00451948 0.0042892)
(0.00811379 -0.00740222 0.00369533)
(0.00783165 -0.00710688 0.00427144)
(0.0112986 -0.00949298 0.00239609)
(0.0115894 -0.0106377 0.00232519)
(0.0112851 -0.010513 0.00190414)
(0.0111618 -0.0121234 0.00164355)
(0.0106563 -0.0117046 0.00133543)
(0.0100684 -0.0123969 0.00112282)
(0.00474876 -0.00772939 0.00519278)
(0.00502584 -0.00736436 0.00508473)
(0.0108245 -0.00320244 -0.0148973)
(0.0105357 -0.00341649 -0.0132149)
(0.00780265 -0.00449088 -0.010298)
(0.00720158 -0.00470412 -0.010454)
(0.00620021 -0.00907146 -0.0140726)
(0.00581674 -0.00862715 -0.0132947)
(0.00681617 -0.0073101 -0.0131376)
(0.00641974 -0.00651632 -0.0118153)
(0.0037139 -0.0108089 -0.0126188)
(0.00397463 -0.0099973 -0.012739)
(0.00155995 -0.0125764 -0.0123331)
(0.00121356 -0.0110141 -0.0117071)
(0.00258185 -0.00932373 -0.0117867)
(0.00256444 -0.010974 -0.0125659)
(0.00697771 -0.00414143 -0.00878664)
(0.00702012 -0.00403881 -0.00867539)
(0.00906377 -0.00980111 -0.0201404)
(0.00899988 -0.00971278 -0.021001)
(0.0118045 -0.00873385 -0.0187144)
(0.0108345 -0.00998906 -0.0190436)
(0.0030928 -0.011875 -0.0151784)
(0.00405714 -0.0112211 -0.0146588)
(0.00476723 -0.0107202 -0.0142731)
(0.00523992 -0.0096301 -0.0136391)
(-0.00259739 -0.00971383 0.0083962)
(-0.00223715 -0.00990855 0.00851546)
(-0.0016318 -0.0124802 0.0131416)
(-0.00167214 -0.0129197 0.0133451)
(0.00073926 -0.0132749 0.015455)
(-0.000168755 -0.0126539 0.0151973)
(-0.0054656 -0.0220245 0.0191386)
(-0.00677558 -0.0222809 0.0202793)
(-0.00598734 -0.0171304 0.0182414)
(-0.00629551 -0.0179643 0.018595)
(-6.99973e-06 -0.0121592 0.0123146)
(0.000286431 -0.0119768 0.0113453)
(-0.0125539 0.00206375 0.0260535)
(-0.012226 0.00207666 0.0251834)
(0.0149751 -0.00770712 -0.0153228)
(0.0105308 -0.00790488 -0.00963809)
(-0.00635406 -0.02683 -0.0247923)
(-0.00552923 -0.0225592 -0.0101291)
(-0.00455529 -0.021132 -0.00624455)
(0.0136688 0.00266683 0.00613966)
(0.0141722 0.00288191 0.00652855)
(0.020991 0.00198782 0.00874632)
(0.0215177 0.00135879 0.00859503)
(0.0186882 0.00528332 0.0108521)
(0.018615 0.00686329 0.0113905)
(0.0166554 0.00911228 0.00530255)
(0.0162767 0.00835545 0.00701313)
(-0.00322067 -0.0138639 0.00391819)
(-0.00307265 -0.0138376 0.00380682)
(-0.00347858 -0.0153211 0.00419817)
(-0.00333071 -0.0150452 0.00420943)
(-0.00331041 -0.014538 0.00416348)
(-0.00326622 -0.0146857 0.00408663)
(-0.0040628 -0.0185409 0.00477668)
(0.0111679 -0.0104139 0.00255958)
(0.0109799 -0.01119 0.00227589)
(0.0100829 -0.0066624 0.00301995)
(0.0109743 -0.008554 0.00361859)
(0.0114264 -0.00829537 0.010344)
(0.0101152 -0.00953321 0.00850188)
(0.0114979 -0.00539951 0.00423583)
(0.0132824 -0.00622953 0.00491164)
(0.011035 -0.00976166 0.0106829)
(0.0103839 -0.00789544 0.00883241)
(0.0112091 0.00316468 0.0027309)
(0.0113516 0.00356372 0.00272907)
(0.0119956 0.00386526 0.00216714)
(0.0116276 0.00366212 0.00207842)
(0.0197222 0.00344631 0.00690998)
(0.0206506 0.00368718 0.00779299)
(0.0179494 -0.00385785 0.0067748)
(0.0174023 -0.00303078 0.00745132)
(-0.00186272 0.000339753 0.00516199)
(-0.00169205 0.000860141 0.00568899)
(0.0013002 -0.00673875 -0.00510013)
(0.00169345 -0.00588935 -0.00383511)
(0.000992795 -0.00713938 -0.00601782)
(-0.000159276 -0.0094897 -0.00964241)
(0.00908041 -0.0283751 -0.0339395)
(0.00439321 -0.026407 -0.0315146)
(-0.0102271 0.00687834 0.022754)
(-0.0119324 0.00778441 0.0240035)
(-0.0102643 0.00679524 0.0253657)
(-0.011796 0.00664424 0.0260139)
(-0.00909511 -0.0288214 0.0057252)
(-0.00715893 -0.0309559 -0.000686736)
(-0.0110526 -0.0212159 0.000558882)
(-0.0117057 -0.0231412 0.00120995)
(-0.00709352 0.0131187 0.0292754)
(-0.00598528 0.0137473 0.0275885)
(-0.0116107 0.00700936 0.028745)
(-0.01216 0.00717986 0.0282047)
(-0.00757083 0.00932411 0.0312595)
(-0.00757841 0.00887049 0.0306003)
(-0.00431625 -0.000260073 0.00605515)
(-0.00489293 -0.000744085 0.00623841)
(-0.00986146 0.00210492 0.00853808)
(-0.0116055 0.00362889 0.00999259)
(-0.00355736 -0.00251121 0.00635672)
(-0.00388553 -0.00196212 0.00637452)
(-0.00498154 0.022295 0.0210444)
(-0.00431623 0.0230471 0.0253351)
(-0.00640493 0.00862575 0.0302115)
(-0.00475275 0.0103167 0.0304273)
(-0.00254299 -0.00494747 0.0165477)
(-0.00328168 -0.00583569 0.0175688)
(0.0054796 -0.0217746 0.00734276)
(0.00452968 -0.0256054 0.00449471)
(0.0134799 -0.0219987 0.000229256)
(0.0135267 -0.0197383 0.000684471)
(0.0105149 -0.0235031 0.00342689)
(-0.00256322 -0.0107159 0.00918022)
(-0.00293656 -0.0104826 0.00932336)
(-0.00409113 -0.0140737 0.0126042)
(-0.00376287 -0.0136592 0.0122258)
(-0.00360126 -0.0137391 0.0120943)
(-0.00322595 -0.0132395 0.0136691)
(-0.00419553 -0.015481 0.0136224)
(-0.00476528 -0.0154106 0.0146817)
(-0.00314968 -0.0179619 0.0152886)
(-0.00300932 -0.0172694 0.0148563)
(-0.00284874 -0.0105222 0.0089645)
(-0.00265284 -0.0103173 0.00884229)
(-0.00310121 -0.011526 0.0100852)
(-0.00302949 -0.0116428 0.0101613)
(-0.00311875 -0.011731 0.0103541)
(-0.00312523 -0.0109173 0.00966973)
(-0.00349893 -0.0125026 0.011099)
(-0.00298323 -0.0113146 0.00981413)
(-0.00327061 -0.0121469 0.0108326)
(-0.00318301 -0.0123062 0.0106491)
(-0.0030229 -0.0128223 0.0110682)
(-0.00335774 -0.0132057 0.0113254)
(-0.00296905 -0.0106181 0.00925233)
(-0.00293398 -0.0110909 0.00969659)
(-0.00273384 -0.0103255 0.00897041)
(-0.00256071 -0.0104809 0.00923196)
(-0.00287212 -0.0104424 0.0091744)
(-0.00272541 -0.0102623 0.00901598)
(-0.00257487 -0.0110484 0.00909511)
(-0.00271324 -0.0106679 0.00919597)
(-0.00286382 -0.0102414 0.00911789)
(-0.00274842 -0.0103723 0.00902818)
(-0.00286326 -0.00960599 0.00801749)
(-0.00301788 -0.0109243 0.00869158)
(-0.00259793 -0.0100338 0.00869257)
(-0.00251173 -0.0101239 0.00870775)
(-0.00273862 -0.0104074 0.00889565)
(-0.00275293 -0.0101419 0.00879713)
(-0.00289232 -0.0109564 0.0093658)
(-0.00277169 -0.0100921 0.00872673)
(-0.00293512 -0.0108486 0.00926008)
(-0.00295215 -0.0106271 0.00877215)
(-0.00297812 -0.0105433 0.00922157)
(-0.00255172 -0.0103377 0.00901503)
(-0.00266561 -0.0109211 0.00892131)
(-0.00268506 -0.0102686 0.00908205)
(-0.00276366 -0.0103784 0.00890239)
(-0.00278395 -0.0103006 0.00909597)
(-0.00268979 -0.0102698 0.00885199)
(-0.00250849 -0.0100837 0.00931508)
(-0.00281515 -0.0106406 0.00935782)
(-0.00302722 -0.0106127 0.00941714)
(-0.00265258 -0.0105458 0.00924089)
(-0.00276413 -0.0103858 0.00895569)
(-0.00288252 -0.0102628 0.0088853)
(-0.00271646 -0.0100234 0.0088276)
(-0.00273168 -0.0105699 0.00921962)
(-0.00282971 -0.0104347 0.00918243)
(-0.00278224 -0.0106365 0.00932474)
(-0.00287462 -0.0105667 0.00910742)
(-0.00277577 -0.0100078 0.00920379)
(-0.00245367 -0.00944331 0.00885635)
(-0.000951965 -0.0141272 0.015353)
(-0.000988621 -0.0150411 0.0160508)
(0.0020343 -0.0165453 0.020648)
(0.0023842 -0.0163396 0.0216312)
(-0.00102404 -0.0127848 0.0159591)
(-0.00098539 -0.0118314 0.015497)
(0.00306233 -0.0127099 0.0227333)
(0.00339778 -0.0138901 0.0226626)
(-0.00277287 -0.0128457 0.0125886)
(-0.00213545 -0.0122726 0.0123136)
(-0.001021 -0.00719836 0.00542484)
(-0.00102376 -0.0081164 0.0061741)
(-0.00257075 -0.0085722 0.0101998)
(-0.00248275 -0.00992823 0.0115945)
(-0.000541676 -0.00982842 0.00800444)
(-0.00078618 -0.00878107 0.00679192)
(-0.0017333 -0.0067743 0.00560431)
(-0.00176442 -0.0069005 0.00583103)
(-0.00222807 -0.00661798 0.00690531)
(-0.00158961 -0.00628018 0.0057282)
(-0.0027039 -0.0109857 0.00956966)
(-0.00302063 -0.0105303 0.00945939)
(-0.00314854 -0.0114747 0.0101431)
(-0.00333571 -0.0112797 0.00979512)
(-0.00254789 -0.0112396 0.00879199)
(-0.00275013 -0.0116083 0.0099422)
(-0.00308729 -0.0113227 0.0100222)
(-0.00254817 -0.00989274 0.00928819)
(-0.00264056 -0.0103841 0.00911332)
(-0.00270353 -0.0104414 0.00911575)
(-0.00293129 -0.0110955 0.010552)
(-0.00253871 -0.0102504 0.00939817)
(-0.0026091 -0.0126414 0.012046)
(-0.00251321 -0.0122231 0.0117144)
(-0.0023997 -0.0108045 0.0111651)
(-0.00269912 -0.0110793 0.0107354)
(-0.0023026 -0.0111445 0.0108172)
(-0.00255002 -0.0115734 0.0110298)
(-0.00324595 -0.0128626 0.0116445)
(-0.00255261 -0.0130639 0.0121196)
(-0.00257691 -0.0116057 0.0109195)
(-0.00242448 -0.0108184 0.0101396)
(-0.00284057 -0.0104606 0.009152)
(-0.00266095 -0.0102929 0.00893142)
(-0.00251705 -0.00975523 0.00848311)
(-0.00276699 -0.010189 0.00855342)
(-0.00267647 -0.0105772 0.00941367)
(-0.00261836 -0.0102609 0.00891371)
(-0.00277931 -0.0106227 0.00928135)
(-0.00250919 -0.010367 0.00921086)
(-0.00277099 -0.0104707 0.00905542)
(-0.00259126 -0.0101913 0.00900699)
(-0.00253316 -0.0105616 0.00956544)
(-0.0022976 -0.010553 0.00966138)
(-0.00258351 -0.0106409 0.00953279)
(-0.00285072 -0.0104493 0.00928311)
(-0.00163225 -0.00730755 0.00614611)
(-0.00145889 -0.00816885 0.00659119)
(-0.00131052 -0.00947229 0.00773701)
(-0.00182094 -0.0083978 0.00702282)
(-0.00243754 -0.00945474 0.0086862)
(-0.00260165 -0.00941649 0.00846221)
(-0.00254012 -0.0095873 0.00859037)
(-0.00270687 -0.0101749 0.00800278)
(-0.00249577 -0.00991936 0.00860421)
(-0.00267995 -0.0099673 0.00874006)
(-0.0160103 -0.00830094 0.00920372)
(-0.0163154 -0.0076019 0.00708948)
(0.0046695 -0.0190353 0.0203124)
(0.00395229 -0.0188452 0.0235895)
(0.00438902 -0.0236617 0.0241896)
(0.00253774 -0.0250842 0.0231099)
(-0.00271248 -0.0243161 0.0179965)
(-0.00445683 -0.0220505 0.0155277)
(0.00600797 -0.0108662 0.0210867)
(0.00792479 -0.0107994 0.019497)
(0.00443661 -0.0111431 0.0277926)
(0.00525066 -0.0132813 0.0286376)
(1.04384e-06 -0.0137624 0.0152459)
(0.00150592 -0.0135342 0.0155331)
(4.48497e-05 -0.00336977 0.00198636)
(0.000425374 -0.00412758 0.00232517)
(-0.000819899 -0.00405818 0.00306418)
(-0.000646381 -0.00355449 0.00269444)
(0.000546351 -0.00637059 0.00438728)
(0.00153779 -0.00765066 0.00544305)
(-0.000440893 -0.00479196 0.00243795)
(-0.000380454 -0.00343462 0.00188727)
(-0.00458269 -0.0115078 -0.00157868)
(-0.00512433 -0.010883 -0.00246188)
(-0.0201394 -0.0152872 0.000703421)
(-0.0219608 -0.0161194 0.00257388)
(-0.0216498 -0.017617 0.0079212)
(-0.0205062 -0.0172374 0.00965029)
(-0.020536 -0.0174694 0.0109672)
(-0.0191568 -0.0162258 0.00707333)
(-0.00272135 -0.0159914 0.00253347)
(-0.00275719 -0.015194 0.00209001)
(-0.00335738 -0.0123161 0.00234299)
(-0.0030552 -0.011796 0.00378108)
(0.00322522 -0.0172106 0.0106886)
(0.00390044 -0.0170848 0.011327)
(-0.00980417 -0.0104599 0.00215601)
(-0.00828059 -0.0112449 0.00232072)
(-0.00700467 -0.0209469 0.0113711)
(-0.00768025 -0.0210146 0.0085344)
(-0.0115949 -0.0211977 0.0104773)
(-0.0126666 -0.0212482 0.00827603)
(-0.0145446 -0.00934788 0.0112461)
(-0.0145762 -0.00833846 0.0110684)
(-0.0164141 -0.00640145 0.00793664)
(-0.0156967 -0.00639764 0.0061727)
(-0.0118807 -0.00724723 0.0137424)
(-0.0127011 -0.00684895 0.0138832)
(-0.00458338 -0.0205057 0.0122533)
(-0.0052201 -0.0196443 0.012224)
(-0.00576265 -0.0179575 0.00334417)
(-0.00717804 -0.0190932 0.00347848)
(0.00657673 -0.0121671 0.0224636)
(0.00446377 -0.0106541 0.0243211)
(-0.0133945 -0.0102221 -0.0137892)
(-0.0128768 -0.0108812 -0.0148305)
(-0.00980799 -0.0124986 -0.0151371)
(-0.011175 -0.0106794 -0.0140131)
(-0.00940492 -0.0102866 -0.0146942)
(-0.0104365 -0.00941165 -0.0144144)
(-0.0108702 -0.0196392 -0.00445722)
(-0.0111895 -0.0203699 -0.00276145)
(-0.0203099 -0.0140127 -0.00101375)
(-0.0203337 -0.0130142 -0.00304205)
(-0.0154684 -0.0197752 0.000321252)
(-0.0150859 -0.0223725 -0.0010609)
(-0.017472 -0.0201264 0.000369904)
(-0.0181537 -0.0178335 0.00101985)
(-0.0201208 -0.0150509 -0.00210358)
(-0.0187884 -0.0167994 -0.00101837)
(-0.0146744 -0.0191168 -0.0018156)
(-0.0129569 -0.019635 -0.00171684)
(-0.0197834 -0.0141369 -0.00311451)
(-0.019146 -0.0166158 -0.00245286)
(-0.0112766 -0.0182635 -0.00287009)
(-0.0141464 -0.0171818 -0.00316722)
(-0.0165165 -0.0168062 -0.00368351)
(-0.0181177 -0.0155429 -0.00390029)
(-0.0187674 -0.0136044 -0.00553348)
(-0.0223895 -0.0178955 0.00331853)
(-0.0214196 -0.0162648 0.00184892)
(-0.0217182 -0.0163452 0.000926463)
(-0.0193659 -0.0175802 0.000863733)
(-0.0202637 -0.0129666 -0.000376924)
(-0.0217846 -0.0138859 0.000733583)
(-0.00559359 -0.00639017 -0.00830419)
(-0.00707618 -0.00672699 -0.00913088)
(0.000160273 -0.00767645 0.00557412)
(-0.000306539 -0.00655727 0.00462648)
(-0.000402426 -0.0055576 0.00395411)
(0.000242163 -0.00661163 0.00460551)
(0.00603224 0.00957843 0.0257577)
(0.00909085 0.00861731 0.0275672)
(0.005303 -0.010479 0.00748866)
(0.00465235 -0.0107519 0.00801398)
(0.00697453 -0.00267773 0.00663554)
(0.00834295 -0.000803805 0.00702423)
(0.00875147 -0.00116293 0.00721437)
(0.00859335 0.000228633 0.00802895)
(-0.00037788 -0.0061974 0.0111456)
(0.00100012 -0.00710215 0.0097176)
(0.00162026 -0.00798121 0.0112941)
(0.00569325 -0.0121396 0.00741879)
(0.00629164 -0.0118463 0.00717042)
(0.00426361 -0.0121595 0.0096318)
(0.0046124 -0.0127391 0.00880125)
(0.00601076 -0.0132811 0.00711192)
(0.00597835 -0.0138571 0.00765523)
(0.00704925 -0.0126223 0.00707674)
(0.00697936 -0.012857 0.00713356)
(0.00569819 -0.0128453 0.00748106)
(0.0054801 -0.0130406 0.00792129)
(0.00234254 -0.0105382 0.00876072)
(0.00212527 -0.010838 0.0083291)
(0.00345076 -0.0130182 0.00952808)
(0.00320772 -0.0118863 0.00980598)
(0.00465261 -0.0136888 0.00862729)
(0.0039314 -0.0126636 0.0085632)
(0.00456704 -0.0138158 0.00806738)
(0.00427279 -0.0129817 0.00767664)
(-0.00660006 -0.0252646 0.0224304)
(-0.00834095 -0.0231675 0.0223526)
(-0.0111956 -0.0124702 -0.00783338)
(-0.0124237 -0.0116068 -0.00788975)
(-0.0170365 -0.0156049 -0.00379264)
(-0.0186926 -0.0144494 -0.00475418)
(-0.0169222 -0.0132781 -0.00696115)
(-0.01572 -0.0139575 -0.00593754)
(-0.0157438 -0.0096718 -0.0122289)
(-0.0146536 -0.00963791 -0.0132408)
(-0.0024477 -0.0158308 -0.00937693)
(-0.00275863 -0.0154197 -0.00782192)
(-0.0168863 -0.0155953 0.00017885)
(-0.0162054 -0.0146673 0.00134623)
(-0.0176593 -0.0126172 0.00243986)
(-0.0205721 -0.0123715 0.0012193)
(0.0056387 -0.00166356 0.0102317)
(0.00818686 0.00111767 0.0102479)
(-0.00922283 -0.0167446 -0.0075498)
(-0.00891207 -0.0155593 -0.00820388)
(-0.00740943 -0.016407 -0.00596039)
(-0.00684683 -0.0172114 -0.0060766)
(-0.012818 -0.0153861 -0.00247059)
(-0.0107131 -0.0157973 -0.00336999)
(-0.015082 -0.0175084 -0.00393343)
(0.00932404 0.00316452 0.00970221)
(0.00966714 0.00577384 0.0102578)
(0.0076443 0.010085 0.0138321)
(0.00814443 0.00863691 0.0115292)
(0.00931537 0.00295179 0.0086511)
(0.00890056 0.00507485 0.00939031)
(0.00856668 -0.00565787 0.00759619)
(0.00865076 -0.00506053 0.00860492)
(0.00609492 -0.0133009 0.00802754)
(0.00571522 -0.0128391 0.00842742)
(0.00307484 -0.0078574 0.00353444)
(0.00284195 -0.00809261 0.00398968)
(0.00290859 -0.00824465 0.00385918)
(0.00320213 -0.00803147 0.00327815)
(0.00252076 -0.0085348 0.00388939)
(0.00199847 -0.00864077 0.00415934)
(0.00201163 -0.00920724 0.00463477)
(0.00201134 -0.00920783 0.00460357)
(0.00183848 -0.00942711 0.00464437)
(0.00155323 -0.00915792 0.00466116)
(0.000368432 -0.0109136 0.00498834)
(0.000488579 -0.0109851 0.00509601)
(0.00463559 -0.022355 4.37713e-05)
(0.00578739 -0.0221585 -0.000247144)
(0.00107708 -0.0105967 0.00538104)
(0.00123391 -0.0106175 0.00549678)
(0.00263917 -0.00846686 0.00438955)
(0.00259976 -0.00863446 0.00458991)
(0.00407098 -0.00819175 0.00330522)