/*--------------------------------*- C++ -*----------------------------------*\
| =========                 |                                                 |
| \\      /  F ield         | OpenFOAM: The Open Source CFD Toolbox           |
|  \\    /   O peration     | Version:  v1612+                                |
|   \\  /    A nd           | Web:      www.OpenFOAM.com                      |
|    \\/     M anipulation  |                                                 |
\*---------------------------------------------------------------------------*/
FoamFile
{
    version     2.0;
    format      ascii;
    class       volVectorField;
    location    "100";
    object      U;
}
// * * * * * * * * * * * * * * * * * * * * * * * * * * * * * * * * * * * * * //

dimensions      [0 1 -1 0 0 0 0];

internalField   nonuniform List<vector> 
17111
(
(0.216639 0.543338 -0.00439108)
(0.435007 1.06276 0.00926099)
(0.439344 1.07805 -0.000501831)
(0.417572 1.00944 -0.000567853)
(0.449361 1.10181 -0.00171863)
(0.449601 1.09915 -0.00732719)
(0.400655 0.987634 0.00196075)
(0.418182 1.00552 -0.000594613)
(0.402454 0.981945 -0.00141736)
(0.387458 0.94986 -0.00166748)
(0.414672 1.01014 -0.00709528)
(0.423202 1.03177 -0.0094606)
(0.421789 1.04541 -0.00310405)
(0.337199 0.815007 -0.00118023)
(0.330754 0.80491 0.00394865)
(0.335716 0.790976 0.00678509)
(0.327873 0.784156 0.00310132)
(0.334332 0.798609 0.0073902)
(0.265238 0.641612 0.00711189)
(0.251995 0.613317 0.00927057)
(0.270148 0.668824 0.00291016)
(0.275603 0.65248 0.00569539)
(0.26618 0.641212 0.00686874)
(0.242837 0.588924 0.00457234)
(0.221971 0.532287 0.00933441)
(0.247956 0.606996 0.00836751)
(0.250881 0.607798 0.00129138)
(0.220128 0.534721 0.0027427)
(0.234573 0.571087 0.00874637)
(0.23402 0.536254 -0.0029268)
(0.261757 0.605424 0.00675553)
(0.228323 0.530737 0.00379839)
(0.214315 0.48271 -0.00074806)
(0.308117 0.741203 0.0118993)
(0.304183 0.722308 0.0061842)
(0.307957 0.720918 0.00823754)
(0.304038 0.708383 0.00437897)
(0.250199 0.574516 -0.00428689)
(0.27168 0.624878 0.00225551)
(0.279836 0.6545 0.0110674)
(0.303901 0.707219 0.00549353)
(0.327578 0.756434 0.00735214)
(0.261721 0.598641 0.0082354)
(0.246217 0.564425 0.00208622)
(0.236688 0.563088 0.00741098)
(0.187854 0.4511 0.00198214)
(0.23045 0.543299 0.00454119)
(0.223884 0.526247 0.0046533)
(0.267628 0.617218 0.00677682)
(0.340537 0.830152 -0.00630974)
(0.324353 0.78122 -0.00139301)
(0.348551 0.843528 -0.00478912)
(0.368716 0.887913 -0.008055)
(0.329964 0.80366 -0.00127539)
(0.355656 0.872138 -0.00169526)
(0.327997 0.795865 -0.00315017)
(0.415781 1.01043 -0.0010382)
(0.377652 0.909071 -0.00567553)
(0.405747 0.975771 -0.00112068)
(0.402142 0.951737 -0.00162579)
(0.352981 0.855706 -0.00245669)
(0.375742 0.900821 -0.00418376)
(0.343687 0.821628 -0.00130422)
(0.305245 0.756754 -0.000994031)
(0.352361 0.866241 -0.00317692)
(0.296632 0.741045 -0.00364514)
(0.30509 0.756706 -0.00440691)
(0.396109 0.971118 -0.00036524)
(0.33244 0.794445 9.90664e-05)
(0.315156 0.768122 -0.00287272)
(0.316542 0.768803 -0.00530612)
(0.323805 0.784828 -0.0113567)
(0.374871 0.910022 -0.00135792)
(0.373596 0.910703 0.00109042)
(0.323615 0.787126 -0.00329947)
(0.483311 1.1723 -2.07181e-05)
(0.479233 1.17607 0.00150489)
(0.482987 1.16735 -0.000293323)
(0.485277 1.16835 0.00490247)
(0.465071 1.1248 -0.00227507)
(0.467157 1.13062 0.00455924)
(0.454284 1.11806 -0.00182984)
(0.491696 1.18327 0.00108742)
(0.473726 1.14762 0.00262917)
(0.47251 1.15563 -0.00429962)
(0.471263 1.15136 0.000524396)
(0.469932 1.13362 0.00331076)
(0.471898 1.14056 -0.00303166)
(0.473528 1.15442 -0.00526172)
(0.441002 1.08126 0.00469621)
(0.460625 1.11475 9.70297e-05)
(0.46819 1.14077 0.00069366)
(0.468892 1.13767 0.000535306)
(0.475372 1.15091 0.00650216)
(0.468605 1.137 0.00395177)
(0.469367 1.13706 0.00409338)
(0.447094 1.08164 -0.00534901)
(0.457709 1.12088 -0.00528357)
(0.449993 1.11744 -0.00771462)
(0.465555 1.14823 -0.00773087)
(0.436754 1.08378 -0.00504172)
(0.418905 1.031 -0.0090668)
(0.46669 1.15584 -0.00703743)
(0.458352 1.13102 -0.00913383)
(0.427878 1.03453 -0.0122997)
(0.443891 1.11787 -0.00676997)
(0.430654 1.07086 -0.00935636)
(0.455561 1.082 0.0012507)
(0.428481 1.0339 0.00192009)
(0.450118 1.07882 -0.000949739)
(0.468994 1.1254 -0.00150677)
(0.448591 1.07318 -0.000672428)
(0.446701 1.06858 0.00027855)
(0.419257 1.01564 0.00159676)
(0.385494 0.91065 -0.00210785)
(0.395435 0.954321 0.00310778)
(0.427908 1.03421 -0.00420665)
(0.408428 0.965728 0.0038217)
(0.426954 1.02083 0.00668197)
(0.400369 0.956821 0.000727091)
(0.44603 1.07362 0.00181745)
(0.419314 0.989301 0.000834429)
(0.244997 0.603509 -0.00469766)
(0.220032 0.553453 0.00630096)
(0.258534 0.655342 0.00831024)
(0.241157 0.614195 -0.00360273)
(0.251208 0.620812 0.0013479)
(0.250195 0.623212 -0.000665945)
(0.235852 0.588441 -0.000371732)
(0.296223 0.740073 0.00326808)
(0.36379 0.891045 -0.000116427)
(0.35784 0.878248 0.00209178)
(0.296102 0.734464 -0.000467912)
(0.334768 0.821081 0.00316548)
(0.261242 0.657009 0.00367084)
(0.322762 0.806299 -0.00369979)
(0.360618 0.885592 0.000557466)
(0.352558 0.872566 0.00451371)
(0.311102 0.794753 -0.0105611)
(0.30513 0.764825 -0.00572765)
(0.291266 0.763223 -0.00605136)
(0.305426 0.79515 0.00320379)
(0.306709 0.795312 -0.012324)
(0.289211 0.746053 -0.0082301)
(0.25455 0.609074 0.0041267)
(0.229189 0.55852 0.00265516)
(0.252771 0.600979 -0.000279993)
(0.230772 0.548426 0.00400379)
(0.252127 0.6108 0.00324486)
(0.268751 0.640876 0.00172105)
(0.265611 0.636701 0.00380139)
(0.278577 0.659714 0.00227057)
(0.321955 0.78074 0.00656904)
(0.31923 0.766924 0.00638487)
(0.265905 0.64397 0.00303635)
(0.274486 0.657722 0.00461394)
(0.257667 0.61335 0.00175488)
(0.338035 0.801369 -0.00170516)
(0.333053 0.808217 0.00213658)
(0.319072 0.766094 0.000611463)
(0.367107 0.866682 0.00282597)
(0.326638 0.800071 0.0043387)
(0.34103 0.809481 0.00351798)
(0.292932 0.728527 0.00122967)
(0.340979 0.812567 -0.00907458)
(0.334125 0.789631 0.00277609)
(0.316986 0.74828 -9.41497e-05)
(0.401366 0.942816 0.000862667)
(0.413898 0.983844 0.00141724)
(0.407648 0.973049 -0.00490954)
(0.362252 0.862004 0.0019238)
(0.316619 0.773132 -0.00135861)
(0.343633 0.822917 -0.00299466)
(0.406676 0.973206 -0.000669743)
(0.414353 0.97959 0.00298917)
(0.260288 0.627477 -0.00189143)
(0.24993 0.596705 -0.00604868)
(0.313079 0.739888 0.00406688)
(0.316208 0.75697 0.0022216)
(0.264429 0.619426 0.000548876)
(0.251953 0.600219 -0.00403622)
(0.269258 0.648763 -0.0069617)
(0.244029 0.593049 0.00582248)
(0.230887 0.546186 0.00413727)
(0.268986 0.651919 0.00560252)
(0.252613 0.610651 -0.00276975)
(0.35976 0.866446 0.00690032)
(0.346528 0.824559 0.00535236)
(0.2517 0.598072 0.0018015)
(0.224418 0.545882 0.000652165)
(0.314863 0.750816 0.00165614)
(0.298189 0.699687 -0.000975073)
(0.267427 0.658024 0.00393952)
(0.287914 0.69906 0.00306063)
(0.246097 0.597692 -7.81865e-05)
(0.258066 0.624428 0.00613669)
(0.310337 0.745485 0.00238776)
(0.396169 0.9393 0.00447858)
(0.421794 1.00289 0.00744066)
(0.446508 1.06009 0.0057453)
(0.451406 1.06842 0.00732154)
(0.441939 1.03262 0.00550439)
(0.420339 1.00821 0.00404632)
(0.426029 1.00194 0.0027901)
(0.457964 1.08165 0.00606687)
(0.437193 1.02036 0.0119718)
(0.44591 1.0567 0.00386743)
(0.431527 1.02172 0.00809253)
(0.4357 1.02006 0.00559155)
(0.429973 1.02101 0.00925839)
(0.416663 0.983998 0.00736838)
(0.393489 0.945144 0.00727801)
(0.405535 0.954504 0.012499)
(0.419381 0.996177 0.00692463)
(0.406398 0.974243 0.00812775)
(0.438015 1.06251 0.002736)
(0.417582 0.999441 -0.00384328)
(0.448457 1.08443 -0.00772997)
(0.443622 1.06666 -0.00185701)
(0.446147 1.08605 -0.00372385)
(0.447533 1.06302 -0.00719098)
(0.440926 1.05925 -0.000761017)
(0.462503 1.11654 -0.00484127)
(0.489253 1.1651 -0.00185672)
(0.475025 1.13223 -0.00385512)
(0.478007 1.1483 -0.00684067)
(0.467883 1.12545 -0.00175285)
(0.445681 1.08131 -0.00496119)
(0.47471 1.13357 -0.00341236)
(0.45419 1.10082 -0.00445524)
(0.475456 1.14555 -0.00794851)
(0.465083 1.12114 -0.00286508)
(0.47237 1.14813 -0.00309242)
(0.334281 0.799019 0.0123895)
(0.328569 0.768984 0.0125522)
(0.302536 0.721175 0.0033953)
(0.317917 0.755781 0.00342175)
(0.325798 0.791662 0.00344731)
(0.34058 0.812468 0.0102814)
(0.255074 0.614721 0.000531399)
(0.252981 0.597197 0.00371861)
(0.317893 0.776203 0.00584309)
(0.307443 0.713473 -0.000232034)
(0.241737 0.575398 0.00414633)
(0.215847 0.517244 0.00670259)
(0.315683 0.7638 0.00873924)
(0.323628 0.779784 0.00681051)
(0.232241 0.557741 0.00697656)
(0.231115 0.564425 0.00272462)
(0.21961 0.530491 0.000348637)
(0.25039 0.601896 0.00112632)
(0.304493 0.71697 0.00236485)
(0.2562 0.622073 0.00438055)
(0.239675 0.580622 0.000464167)
(0.254607 0.616787 -0.00132142)
(0.351844 0.853008 -0.0023879)
(0.337466 0.826275 0.000258208)
(0.38728 0.935377 0.00314251)
(0.387891 0.938135 0.00162404)
(0.392046 0.949379 -0.00711621)
(0.398536 0.960673 -0.004026)
(0.398991 0.961342 -0.00319954)
(0.288955 0.684194 -0.000668405)
(0.289732 0.681303 -0.00782878)
(0.337534 0.808996 0.00337377)
(0.363479 0.864956 -0.000156875)
(0.327089 0.783859 0.00119973)
(0.305157 0.729704 0.00391184)
(0.35148 0.834543 -0.00165664)
(0.341894 0.829491 -0.000463458)
(0.247349 0.584016 -0.00267176)
(0.267723 0.636257 -0.00246228)
(0.276561 0.652234 0.00256246)
(0.323881 0.770494 -0.00335948)
(0.318024 0.757534 -0.00851426)
(0.294734 0.672973 0.000945483)
(0.320501 0.749342 -0.00298313)
(0.316863 0.756687 -0.00304816)
(0.323123 0.774066 -0.000280061)
(0.312444 0.746166 0.00274317)
(0.227893 0.54865 -0.00105445)
(0.196321 0.474351 -0.0115502)
(0.279862 0.659324 -0.000752257)
(0.304548 0.736184 0.00847431)
(0.285731 0.690535 -0.00480718)
(0.312488 0.746559 0.00682893)
(0.238557 0.574872 -0.00363301)
(0.280646 0.643221 -0.0164866)
(0.241901 0.563206 -0.00761869)
(0.207565 0.496046 0.00155456)
(0.258844 0.612044 -0.00661821)
(0.253104 0.583743 -0.00833771)
(0.212567 0.502983 -0.00963564)
(0.215496 0.525553 -0.00780462)
(0.311025 0.762493 0.00205006)
(0.301205 0.734636 0.0050095)
(0.234985 0.570911 -0.0024747)
(0.224495 0.546329 0.00355783)
(0.239592 0.571808 0.00131577)
(0.217276 0.52661 0.00296111)
(0.315453 0.774908 0.00642388)
(0.317444 0.757569 -0.00548016)
(0.315432 0.760325 -0.00243194)
(0.261806 0.634684 -0.00341708)
(0.248154 0.604742 0.00217413)
(0.266385 0.648304 0.000707293)
(0.258159 0.625732 -0.000689483)
(0.245931 0.604179 0.00123496)
(0.252646 0.599766 0.00242275)
(0.232242 0.566488 0.00377684)
(0.301573 0.734796 0.00377653)
(0.412672 0.968795 0.0103109)
(0.387811 0.935157 0.00268464)
(0.373242 0.918225 0.00459533)
(0.380659 0.911524 0.0075902)
(0.391686 0.935851 0.0105206)
(0.332845 0.790096 0.00546912)
(0.348735 0.829617 0.0042053)
(0.298556 0.704618 0.00788268)
(0.280755 0.672723 0.00570332)
(0.352779 0.854756 0.00540408)
(0.331449 0.803567 0.0125571)
(0.351528 0.845364 0.00330386)
(0.363706 0.867777 0.00392693)
(0.284775 0.667036 0.0020812)
(0.285883 0.666933 -0.00226094)
(0.352185 0.854354 0.00940288)
(0.31103 0.746162 0.00655885)
(0.324201 0.766848 0.0113765)
(0.287798 0.678322 0.00420712)
(0.286747 0.676771 0.0102669)
(0.229175 0.546863 -0.00920626)
(0.21503 0.519636 -0.00825482)
(0.255377 0.595029 0.00246208)
(0.248928 0.583306 -0.000556655)
(0.241601 0.575661 -0.00127484)
(0.242503 0.562561 -0.00370755)
(0.236079 0.549468 0.000331255)
(0.304311 0.709207 0.00588014)
(0.304308 0.720033 0.00332216)
(0.23177 0.554988 0.000704612)
(0.252893 0.576264 -0.00544478)
(0.251301 0.587232 -0.00421956)
(0.308259 0.720108 0.00314099)
(0.332396 0.783563 0.00861635)
(0.318905 0.74905 0.00348423)
(0.255648 0.597117 -0.00257313)
(0.23309 0.541432 -0.000338003)
(0.257422 0.606402 -0.0070999)
(0.246945 0.573174 -0.000346865)
(0.370372 0.900383 -0.00408878)
(0.396123 0.94787 -0.00116477)
(0.326307 0.788587 0.00113566)
(0.309587 0.745963 0.0109539)
(0.335946 0.814095 0.00463406)
(0.343381 0.835569 0.00149204)
(0.409589 0.976574 -0.00181661)
(0.363282 0.875369 0.00262239)
(0.377276 0.910398 0.00569205)
(0.397643 0.962302 0.0053991)
(0.421191 1.03725 0.0043321)
(0.33829 0.83807 -0.00216215)
(0.315196 0.757105 0.00284977)
(0.343697 0.835948 0.00850365)
(0.326095 0.777538 0.00261236)
(0.404319 0.959294 0.00671248)
(0.401474 0.967067 0.00387784)
(0.375793 0.906712 0.00351363)
(0.355804 0.861391 0.0090393)
(0.339713 0.80339 0.00747121)
(0.366315 0.875611 0.0072727)
(0.321381 0.775874 0.00492572)
(0.325718 0.773815 0.00734199)
(0.34029 0.809697 -0.000652687)
(0.435829 1.0317 0.00982483)
(0.404758 0.951329 0.00900628)
(0.409043 0.957575 0.008319)
(0.408522 0.951966 0.0081414)
(0.389138 0.900982 0.0069862)
(0.431141 1.02706 0.0131199)
(0.448815 1.06265 0.00642314)
(0.461848 1.0889 0.0109983)
(0.444617 1.04805 0.00946623)
(0.415224 0.97802 0.0162468)
(0.385585 0.904711 0.00964591)
(0.376288 0.880718 0.00707493)
(0.385921 0.905499 0.0062362)
(0.413435 0.967658 0.00937047)
(0.45478 1.07436 0.00879773)
(0.464015 1.08479 0.0101458)
(0.453473 1.06778 0.00919704)
(0.421582 1.00111 0.0106351)
(0.397331 0.940158 0.00906107)
(0.372043 0.885793 0.00921542)
(0.38793 0.91181 0.00860984)
(0.418431 0.980656 0.0161551)
(0.438602 1.02691 0.00935444)
(0.398072 0.936815 0.00943415)
(0.230972 0.557491 0.00294238)
(0.216062 0.515786 0.00368612)
(0.267522 0.637894 0.00595323)
(0.270612 0.641006 0.0139598)
(0.243741 0.583974 0.00628365)
(0.233431 0.559243 0.0120628)
(0.252524 0.585931 0.0124473)
(0.249747 0.599841 0.00510537)
(0.312835 0.738634 0.00627844)
(0.325945 0.76878 0.0089379)
(0.312426 0.739041 0.00346828)
(0.346108 0.813841 0.013358)
(0.315452 0.745325 0.0107328)
(0.307195 0.723324 0.00747656)
(0.332089 0.778004 0.00858198)
(0.303861 0.727438 0.00830461)
(0.318452 0.7414 0.0106074)
(0.294447 0.702734 0.0117734)
(0.333207 0.774831 0.0137921)
(0.441469 1.05109 0.000185146)
(0.437936 1.04027 0.0033629)
(0.456979 1.08112 0.00219739)
(0.466306 1.108 0.00362142)
(0.466084 1.10231 0.00721817)
(0.460316 1.09897 0.00566627)
(0.474827 1.1282 0.00297788)
(0.480349 1.13091 0.00225347)
(0.469903 1.10192 0.00320269)
(0.470511 1.10723 0.00340047)
(0.478391 1.12931 0.00541854)
(0.49197 1.1564 0.0043228)
(0.470659 1.11463 0.00293185)
(0.476857 1.12311 0.00586228)
(0.475766 1.13086 0.00652377)
(0.336132 0.811945 -0.000802681)
(0.32889 0.786103 -0.00940055)
(0.334059 0.810114 -0.000581556)
(0.35208 0.8521 0.000251442)
(0.350935 0.848122 0.00267837)
(0.352566 0.862604 -0.000795776)
(0.276189 0.666655 -0.0106104)
(0.335531 0.819713 0.00135496)
(0.350475 0.865425 0.00228186)
(0.349973 0.853659 0.00506561)
(0.331561 0.799372 -0.000269913)
(0.279247 0.669026 -0.00547995)
(0.308222 0.747558 -0.00135688)
(0.31512 0.757697 0.00409235)
(0.32315 0.77404 0.00612662)
(0.340996 0.822041 0.00204451)
(0.394527 0.984857 -0.00932678)
(0.425042 1.05646 -0.00659418)
(0.432029 1.07346 -0.00686099)
(0.443133 1.08491 -0.00805043)
(0.386473 0.956472 -0.00560451)
(0.411455 0.987652 -0.00282514)
(0.400302 0.965608 -0.00405928)
(0.396355 0.948854 -0.00346343)
(0.420506 0.992464 0.000125611)
(0.407315 0.987907 0.00269701)
(0.390812 0.934344 0.00240841)
(0.402525 0.939834 -0.000763268)
(0.398596 0.956615 -0.00285948)
(0.460168 1.08349 0.00241937)
(0.44596 1.05929 0.000737294)
(0.439904 1.05468 0.00527404)
(0.391322 0.940272 0.00774242)
(0.414 0.981834 0.00217594)
(0.356848 0.879449 0.0103758)
(0.408928 0.97905 0.00893221)
(0.406079 0.963716 0.00412375)
(0.378039 0.922213 0.00873816)
(0.424174 1.02356 0.00127969)
(0.408145 0.976241 -0.000362272)
(0.445264 1.0681 0.00327011)
(0.344734 0.805163 0.00302197)
(0.340177 0.795695 0.00537921)
(0.323489 0.775703 0.00861645)
(0.311792 0.733461 -0.000834522)
(0.327558 0.775307 0.00677485)
(0.339522 0.800241 0.00427559)
(0.307074 0.73503 0.00607886)
(0.274148 0.69878 -0.00179852)
(0.233033 0.589976 -0.000343403)
(0.320056 0.779509 0.00478514)
(0.262608 0.66765 -0.00233288)
(0.244987 0.616362 -0.00417886)
(0.216675 0.514253 0.00931871)
(0.259658 0.625781 -0.00304382)
(0.262307 0.645168 -0.00118572)
(0.255579 0.611364 -0.000366063)
(0.258655 0.632223 -0.00929389)
(0.248728 0.604614 -0.00535477)
(0.248522 0.610102 0.0018183)
(0.343313 0.849873 -0.0115498)
(0.339196 0.807284 -0.0109232)
(0.316743 0.781773 -0.00621364)
(0.299195 0.707719 -0.00932091)
(0.344699 0.827869 -0.00370002)
(0.300739 0.717891 -0.00465506)
(0.293128 0.730036 -0.00488698)
(0.301573 0.740576 -0.00318885)
(0.339455 0.843246 -0.00141467)
(0.333016 0.821876 0.0027542)
(0.310738 0.787796 -0.00751444)
(0.337183 0.84464 -0.00203838)
(0.340707 0.804219 0.00149225)
(0.380289 0.912911 -0.0039073)
(0.317136 0.76755 0.00728619)
(0.397935 0.943503 0.0050063)
(0.340287 0.815802 0.00264866)
(0.414581 0.974452 0.00937971)
(0.362043 0.855937 0.000650832)
(0.381748 0.938107 0.00165679)
(0.390867 0.955948 -0.00384929)
(0.302971 0.746232 0.00484247)
(0.264102 0.651784 -0.0023816)
(0.328776 0.788279 0.00464305)
(0.351835 0.863542 0.00487129)
(0.320533 0.788322 -0.00062921)
(0.33793 0.833992 0.00189564)
(0.393918 0.955164 -0.00597482)
(0.335215 0.800715 0.000144203)
(0.330368 0.81253 0.000619203)
(0.248342 0.603643 -0.00146788)
(0.265154 0.651276 -0.000836366)
(0.307142 0.741957 -0.00420427)
(0.268106 0.657733 -0.00124407)
(0.280196 0.677575 0.00557813)
(0.263711 0.65958 0.00229908)
(0.244888 0.616257 0.000998309)
(0.248525 0.617988 -0.000379333)
(0.224133 0.557092 0.00523312)
(0.315238 0.756213 -0.00148243)
(0.30355 0.730383 0.000138956)
(0.334609 0.817561 -0.00202312)
(0.317089 0.770177 -0.00228736)
(0.266331 0.642231 -0.00412096)
(0.230249 0.568734 0.00690826)
(0.20763 0.525923 0.00601533)
(0.345374 0.839024 -0.00274428)
(0.329866 0.798037 -0.00271767)
(0.332708 0.818625 -0.00526981)
(0.317176 0.783362 -0.00452687)
(0.268432 0.649756 0.0065269)
(0.22973 0.568503 0.00777335)
(0.305152 0.755231 -0.00041596)
(0.328896 0.800257 -0.00584971)
(0.25347 0.62643 -0.0054978)
(0.321473 0.786201 -0.00222434)
(0.374904 0.907386 0.00468948)
(0.340682 0.829204 -0.000445063)
(0.321993 0.792146 0.00310124)
(0.351656 0.838661 0.00710825)
(0.327932 0.791544 0.01669)
(0.376577 0.908962 0.00711682)
(0.364434 0.881457 0.00969434)
(0.344407 0.832108 0.00360055)
(0.302916 0.742683 0.0138647)
(0.417429 1.00075 0.00736561)
(0.350615 0.858673 0.00733168)
(0.337717 0.821868 0.0100461)
(0.299271 0.72752 0.0130511)
(0.342865 0.835069 0.00894882)
(0.316205 0.755927 0.0107308)
(0.311028 0.745802 0.0105557)
(0.248795 0.591957 -0.00468137)
(0.346461 0.83988 -0.0111556)
(0.353934 0.858922 -0.0101978)
(0.286411 0.680066 -0.00990934)
(0.243867 0.579157 -0.00499481)
(0.245892 0.595634 -0.00613279)
(0.242201 0.595391 0.00325289)
(0.360183 0.87698 -0.00564142)
(0.376193 0.908707 -0.0074894)
(0.305851 0.760134 -0.0085137)
(0.303524 0.76116 -0.0121146)
(0.268278 0.656456 -0.00912354)
(0.300901 0.722056 -0.00575519)
(0.319844 0.780222 -0.0104663)
(0.26056 0.648733 -0.00569609)
(0.268365 0.659284 0.000261881)
(0.307861 0.754789 -0.0100821)
(0.32481 0.796338 -0.0152206)
(0.316644 0.783135 -0.0130013)
(0.305844 0.752565 -0.00654557)
(0.302439 0.711777 0.00896984)
(0.26565 0.634363 0.00256058)
(0.225968 0.53528 0.00341218)
(0.274322 0.641926 0.0100938)
(0.247103 0.594049 0.00286608)
(0.276096 0.635202 0.0144679)
(0.330029 0.790057 0.00558637)
(0.317768 0.752055 -0.00517133)
(0.316494 0.751409 0.00360153)
(0.343239 0.815648 0.000354679)
(0.241586 0.554259 0.0078113)
(0.232132 0.545853 0.00252285)
(0.23299 0.562045 0.0050367)
(0.211199 0.512879 0.00275239)
(0.263232 0.619592 0.00788484)
(0.254362 0.606371 0.00819012)
(0.312896 0.739943 0.00560717)
(0.315163 0.749617 0.00574781)
(0.304171 0.720983 0.00214023)
(0.317136 0.747373 -0.00125952)
(0.262231 0.606316 -0.00135456)
(0.267627 0.629446 0.00499715)
(0.319985 0.767611 -0.0149669)
(0.333463 0.814508 -0.0156171)
(0.372037 0.885735 -0.00823882)
(0.347687 0.83988 -0.0123859)
(0.34186 0.825018 -0.00434766)
(0.378481 0.919396 -0.00676441)
(0.360268 0.867672 -0.00846022)
(0.334754 0.81658 -0.0143569)
(0.326934 0.795549 -0.00809055)
(0.266748 0.654865 -0.000222601)
(0.332667 0.820076 -0.0092517)
(0.334026 0.815803 -0.00566154)
(0.346389 0.839038 -0.00921651)
(0.289751 0.703448 -0.00960275)
(0.293266 0.732429 -0.00720938)
(0.277667 0.664369 -0.00781791)
(0.332852 0.808607 0.00173936)
(0.350567 0.856514 -0.00180934)
(0.303531 0.747937 0.00537328)
(0.332094 0.805115 -0.000221621)
(0.246171 0.601215 0.00362489)
(0.252064 0.610171 0.00122431)
(0.226321 0.553739 -0.000136297)
(0.263394 0.639253 0.00753645)
(0.260057 0.624955 -0.00200031)
(0.229981 0.569226 -0.000809071)
(0.248933 0.588246 -0.00225152)
(0.255996 0.609702 0.00414942)
(0.312712 0.762114 0.00860732)
(0.263634 0.635859 -0.002357)
(0.257374 0.618614 0.00252239)
(0.246596 0.594829 0.00536386)
(0.269873 0.632522 0.00673387)
(0.246463 0.573507 0.00205252)
(0.245829 0.575399 -0.00463058)
(0.2561 0.6299 0.00521127)
(0.256376 0.626932 0.00386064)
(0.352358 0.835703 -0.00404885)
(0.344282 0.826018 -0.00689545)
(0.286664 0.667936 0.00129002)
(0.319562 0.769849 -0.00261104)
(0.315241 0.749324 -0.0017147)
(0.262875 0.61851 0.00264238)
(0.283009 0.662433 -0.000250735)
(0.233665 0.593703 0.0079687)
(0.218589 0.54826 0.0037537)
(0.326329 0.779363 0.000560015)
(0.317412 0.751099 0.00695492)
(0.23716 0.594895 -0.00304548)
(0.251009 0.620097 -0.00124144)
(0.232176 0.540827 0.00154954)
(0.256187 0.594931 0.00646855)
(0.254398 0.619628 -0.00678198)
(0.277755 0.675563 -9.69668e-05)
(0.325532 0.78779 0.000662776)
(0.266709 0.637831 -0.00471078)
(0.257156 0.604075 -0.00506558)
(0.283781 0.681285 -0.000399812)
(0.250186 0.595489 0.000865484)
(0.274389 0.657515 -0.00150329)
(0.241187 0.583008 -0.0070814)
(0.267358 0.655497 0.00224614)
(0.247482 0.59164 -0.002301)
(0.224917 0.542926 0.00376029)
(0.233373 0.565497 -0.00125164)
(0.249162 0.609828 0.00285098)
(0.224842 0.531453 0.00194376)
(0.255419 0.626751 0.000285335)
(0.325785 0.785973 0.00694709)
(0.282305 0.683403 -0.00160145)
(0.224059 0.54364 -0.00302659)
(0.242798 0.581884 0.00333798)
(0.329967 0.78234 0.000480482)
(0.321786 0.765163 0.00127434)
(0.323087 0.759529 -0.000902554)
(0.31408 0.742041 -0.000587976)
(0.307492 0.721944 0.000329417)
(0.243448 0.589143 -0.00571332)
(0.211213 0.518084 -0.011868)
(0.233884 0.566022 -0.00120358)
(0.233166 0.571765 -0.0015356)
(0.259778 0.617899 -0.00467181)
(0.303236 0.717953 -0.00605041)
(0.374386 0.900507 0.0100932)
(0.412659 0.980364 0.00900144)
(0.384782 0.921522 0.00674151)
(0.329857 0.776821 0.0105288)
(0.371685 0.88441 0.00733832)
(0.399181 0.943934 0.00928116)
(0.325391 0.778548 0.0126131)
(0.323239 0.771019 0.0061164)
(0.305984 0.734852 0.00167904)
(0.298048 0.708476 0.00527452)
(0.298856 0.705369 0.00541138)
(0.328902 0.791586 0.00597877)
(0.297459 0.719419 -0.000196459)
(0.341358 0.815715 0.0108476)
(0.334192 0.813689 0.00690855)
(0.313085 0.747297 0.00636002)
(0.322889 0.77322 0.00411273)
(0.349273 0.819125 0.00449667)
(0.396112 0.940023 0.0115646)
(0.303703 0.744779 3.61166e-05)
(0.304489 0.738283 0.0026321)
(0.263256 0.650385 0.00382819)
(0.262994 0.640166 -0.00142658)
(0.309495 0.744465 0.00188323)
(0.317489 0.762836 0.00858631)
(0.245026 0.600496 -0.0028387)
(0.201597 0.505527 -0.00224078)
(0.2419 0.589139 0.00221947)
(0.202813 0.495286 0.00330951)
(0.259084 0.633207 -0.00210882)
(0.387144 0.916622 0.00260585)
(0.406785 0.963048 0.00641037)
(0.440584 1.04106 0.0110892)
(0.425103 1.01031 0.00551625)
(0.472541 1.12078 0.00356801)
(0.472134 1.11375 0.00738496)
(0.466945 1.10743 0.00488862)
(0.433598 1.02433 0.00733122)
(0.459677 1.0891 0.00324286)
(0.407048 0.952766 0.00170394)
(0.415389 0.984599 0.00748004)
(0.405212 0.963538 0.00547515)
(0.466131 1.10409 0.00410224)
(0.423172 1.00652 0.00744686)
(0.419244 0.986373 0.00697133)
(0.464126 1.09868 0.00798909)
(0.392565 0.931292 0.0022824)
(0.428146 1.00149 0.00560082)
(0.424185 0.999789 0.0066381)
(0.405399 0.96109 0.00919092)
(0.39007 0.931851 0.00447621)
(0.403739 0.960101 0.00429973)
(0.248908 0.616203 -0.00317195)
(0.225859 0.55081 -0.00736094)
(0.236945 0.571739 0.000967538)
(0.250573 0.624523 -0.0045225)
(0.379334 0.908046 -0.011686)
(0.364796 0.877156 -0.00512788)
(0.297509 0.726444 -0.0123371)
(0.297845 0.716158 -0.00757735)
(0.327234 0.801147 -0.0138212)
(0.361023 0.868683 -0.0132266)
(0.248892 0.595642 -0.00629496)
(0.263359 0.634897 -0.00377856)
(0.231032 0.567462 -0.00426217)
(0.218344 0.550003 -0.00403194)
(0.332408 0.794344 -0.00139668)
(0.325524 0.785524 -0.013602)
(0.319561 0.757545 -0.00492837)
(0.243138 0.579748 -0.00779909)
(0.244066 0.604631 -0.0079301)
(0.31094 0.760541 -0.00743498)
(0.292617 0.715711 -0.00480474)
(0.299753 0.714467 -0.0088983)
(0.250274 0.607844 -0.00376898)
(0.473734 1.12776 3.41797e-05)
(0.473718 1.13045 -0.00354007)
(0.460237 1.09194 -0.00471503)
(0.460354 1.08945 0.000638889)
(0.431246 1.03263 -0.00228283)
(0.431985 1.01747 -0.00318909)
(0.41677 0.982321 0.000210701)
(0.403213 0.960559 0.0015102)
(0.417986 0.993658 -0.00521108)
(0.402284 0.961458 -0.00131937)
(0.401987 0.953646 -0.00912228)
(0.400681 0.949088 -0.00499713)
(0.424577 1.00056 0.00538827)
(0.466233 1.10809 -0.000296405)
(0.464004 1.10708 -0.00207197)
(0.442129 1.05963 -0.00302941)
(0.407242 0.968655 -0.00113399)
(0.440746 1.02969 -0.000943833)
(0.416076 0.989826 -0.00382435)
(0.428828 1.01677 0.00577261)
(0.253416 0.61317 0.000527685)
(0.215958 0.515955 -0.00470203)
(0.217961 0.508609 -0.00528014)
(0.269203 0.64926 -0.00364657)
(0.260125 0.631132 0.00123902)
(0.241982 0.588788 0.00180288)
(0.250598 0.612653 -0.00352957)
(0.221125 0.540532 0.00342036)
(0.242324 0.584412 -0.00151917)
(0.2234 0.530615 -0.000804924)
(0.241042 0.578925 0.00437279)
(0.253132 0.619131 -0.00476951)
(0.232411 0.577433 -0.00720568)
(0.207075 0.480201 -0.00564246)
(0.216926 0.522055 -0.00127749)
(0.246614 0.592739 -0.00525667)
(0.285559 0.670039 -0.00100624)
(0.2346 0.587568 0.00765063)
(0.231071 0.552795 -0.0092153)
(0.211331 0.503544 0.000615081)
(0.213382 0.511539 -0.00902609)
(0.22749 0.546611 -0.00146121)
(0.252505 0.624071 -0.0013092)
(0.23229 0.558228 0.00141041)
(0.24202 0.587931 -0.00219051)
(0.226006 0.550014 -0.00292623)
(0.218541 0.540283 0.00157452)
(0.229334 0.539024 -0.00040145)
(0.23364 0.548318 0.0126163)
(0.259831 0.602966 0.00631285)
(0.221006 0.543122 0.00504554)
(0.471088 1.11392 -0.00681652)
(0.431082 1.02564 -0.0118048)
(0.423245 1.00849 -0.0104214)
(0.375514 0.883862 -0.0119089)
(0.330705 0.785373 -0.00796961)
(0.223925 0.566954 0.00482894)
(0.227526 0.562175 0.000808836)
(0.238762 0.562442 -0.00352145)
(0.21891 0.514966 0.00283193)
(0.240116 0.562641 0.000747698)
(0.227839 0.544912 0.0071535)
(0.244427 0.602843 0.00633928)
(0.222196 0.534308 -0.000357856)
(0.215966 0.535409 -0.00655866)
(0.221038 0.519744 -0.001838)
(0.235481 0.564728 -0.000906288)
(0.210249 0.492635 -0.00308542)
(0.19832 0.468697 -0.00178532)
(0.204979 0.488255 0.00136489)
(0.202654 0.469733 -0.00534944)
(0.194365 0.460119 -0.00223719)
(0.249512 0.597391 -0.00152204)
(0.229297 0.547635 -0.00166458)
(0.222725 0.551419 -0.00259069)
(0.234874 0.568242 -0.00323089)
(0.214036 0.522329 0.00642628)
(0.223918 0.547798 -0.00219889)
(0.228312 0.545599 -0.000926292)
(0.221691 0.551017 -0.00195527)
(0.225368 0.546084 0.00200291)
(0.219122 0.538098 -0.00166597)
(0.220029 0.543925 0.00839184)
(0.222186 0.526495 0.0101208)
(0.223901 0.536802 0.00443628)
(0.240035 0.570928 0.0067333)
(0.22943 0.551761 -0.0012481)
(0.222295 0.54384 0.006283)
(0.223054 0.536391 -0.00304186)
(0.201304 0.496229 -0.00762282)
(0.221915 0.538023 0.00454212)
(0.222171 0.548439 -0.00784303)
(0.281008 0.670879 0.000721849)
(0.215831 0.541001 0.001504)
(0.212938 0.529113 0.00468948)
(0.273245 0.644273 -0.00121331)
(0.212421 0.525942 0.00764095)
(0.241142 0.597369 -0.00241032)
(0.215838 0.555441 -0.00391216)
(0.225752 0.533118 0.00741987)
(0.21361 0.500495 0.00876884)
(0.220852 0.54585 0.00560037)
(0.211964 0.52029 0.013564)
(0.220273 0.51618 -0.00105869)
(0.212528 0.506856 0.00938048)
(0.221462 0.528066 0.00683025)
(0.236973 0.572198 0.00107403)
(0.23567 0.547003 -0.00152001)
(0.218716 0.544125 0.0106542)
(0.211549 0.513848 0.00566883)
(0.215448 0.529111 0.00463675)
(0.214497 0.54287 0.00203337)
(0.226594 0.516733 -0.00485711)
(0.237842 0.572366 -0.00139527)
(0.233126 0.552155 0.00726148)
(0.237571 0.578071 -0.00725084)
(0.233207 0.564445 -0.00256657)
(0.233504 0.569712 -0.00835543)
(0.405108 0.970531 -0.002127)
(0.234221 0.578592 -0.00921927)
(0.236419 0.553546 -0.00385295)
(0.27291 0.656177 -0.00275376)
(0.239543 0.568993 -0.000865455)
(0.208209 0.530942 -0.00231319)
(0.199156 0.495794 -0.00456179)
(0.247719 0.592176 -0.00465316)
(0.223591 0.533386 -0.00324735)
(0.231756 0.557346 -0.00709961)
(0.212148 0.510575 -0.00649203)
(0.239329 0.578845 -0.0032185)
(0.207839 0.515215 -0.00379414)
(0.220162 0.541936 -0.00377742)
(0.210415 0.515157 0.00330164)
(0.211703 0.512558 -0.0151267)
(0.213556 0.512278 0.0043219)
(0.216228 0.509873 0.00348994)
(0.225604 0.527448 0.00677319)
(0.205994 0.516741 0.00444934)
(0.211421 0.532969 0.000751511)
(0.213434 0.551416 0.0036129)
(0.227191 0.562698 0.00149836)
(0.217921 0.528429 0.00151031)
(0.284861 0.681074 -0.00307773)
(0.213542 0.52354 -0.00905134)
(0.202413 0.49857 -0.00457279)
(0.227771 0.562043 -0.00651527)
(0.243655 0.580111 -0.0080207)
(0.241979 0.597452 -0.0104826)
(0.242433 0.571479 0.00488737)
(0.22876 0.55056 -0.00570754)
(0.238799 0.577389 0.00600492)
(0.213721 0.532435 0.00141872)
(0.234814 0.572674 0.00485652)
(0.234767 0.579185 0.00379037)
(0.224563 0.537864 -0.000185992)
(0.232582 0.554173 -0.00111228)
(0.223479 0.551775 -0.00085128)
(0.331859 0.829095 -0.0052871)
(0.223133 0.553466 -0.00083559)
(0.254902 0.631539 -0.00054819)
(0.23994 0.567685 0.00992055)
(0.215038 0.522904 -0.00260038)
(0.224638 0.541545 -0.00106527)
(0.268246 0.646538 -0.00587976)
(0.23911 0.577732 -0.00321425)
(0.201993 0.509493 0.0045285)
(0.207724 0.506547 0.000703345)
(0.212501 0.53511 0.000442109)
(0.222087 0.547218 0.00379981)
(0.251433 0.593748 0.0014433)
(0.235518 0.566502 0.000421456)
(0.244707 0.572869 0.000935057)
(0.231744 0.565456 -0.00835103)
(0.23872 0.561017 -0.000226857)
(0.222263 0.544352 -7.58571e-05)