/*--------------------------------*- C++ -*----------------------------------*\
| =========                 |                                                 |
| \\      /  F ield         | OpenFOAM: The Open Source CFD Toolbox           |
|  \\    /   O peration     | Version:  v1612+                                |
|   \\  /    A nd           | Web:      www.OpenFOAM.com                      |
|    \\/     M anipulation  |                                                 |
\*---------------------------------------------------------------------------*/
FoamFile
{
    version     2.0;
    format      ascii;
    class       volScalarField;
    location    "150";
    object      p;
}
// * * * * * * * * * * * * * * * * * * * * * * * * * * * * * * * * * * * * * //

dimensions      [0 2 -2 0 0 0 0];

internalField   nonuniform List<scalar> 
18732
(
1.03355
0.886348
1.4623
0.933767
0.934376
1.07162
0.976332
1.71134
1.70736
1.69678
1.71539
1.7261
1.68814
1.67812
1.70484
1.72111
1.69193
1.70427
1.69642
1.6906
1.68013
1.72276
1.69834
1.71685
1.70716
1.70982
1.69883
1.45819
1.47917
1.48991
1.45604
1.46844
1.5135
1.50564
1.46882
1.49122
1.48515
1.49443
1.53838
1.51471
1.4993
1.48172
1.51682
1.68444
1.6853
1.69219
1.6922
1.71721
1.72417
1.7108
1.72503
1.73493
1.72311
1.7353
0.964144
0.963554
0.956559
0.963207
0.970254
0.954547
0.963607
0.959006
0.956673
0.95923
0.958477
0.962094
0.967774
0.957472
0.958579
0.967864
0.962257
1.58393
1.5887
1.54899
1.56413
1.57739
1.58191
1.55945
1.53584
1.51512
1.56576
1.53719
1.50757
1.54557
1.53612
1.51239
0.933261
0.941759
0.920637
0.926623
0.949717
0.969484
0.959712
0.989723
0.976728
0.935648
0.972782
0.985337
0.936157
0.955998
0.973938
1.5452
1.53296
1.52761
1.51188
1.53047
1.56496
1.55189
1.56536
1.53638
1.54602
1.5843
1.58665
1.55735
1.57227
1.58395
1.59462
1.55146
1.55662
1.55538
1.57588
1.50066
1.49404
1.50592
1.50204
1.49622
1.5247
1.53134
1.52119
1.56353
1.54281
1.54147
1.54697
1.52739
1.53916
1.56908
1.56794
1.56535
1.55683
1.56531
0.976662
0.990764
0.971251
0.980013
0.984684
0.966433
0.988963
0.997263
0.984308
0.994269
1.00946
1.0046
1.01125
1.01605
1.02206
1.02078
0.990571
1.01178
1.68401
1.6754
1.66628
1.68924
1.70461
1.70663
1.72026
1.66772
1.67885
1.69185
1.70985
1.70451
1.69595
1.69466
1.69084
1.68075
1.67674
0.925733
0.926587
0.937587
0.933394
0.924001
0.930011
0.931994
0.930383
0.916397
0.917028
0.931873
0.930239
0.936924
0.932063
0.923556
0.930236
0.932397
0.929233
1.04136
1.04131
1.05727
1.0649
1.07106
1.08633
1.07517
1.09411
1.07534
1.03934
1.05469
1.04542
1.0962
1.06978
1.06258
1.07184
1.06043
1.37392
1.36251
1.40749
1.44022
1.42667
1.38024
1.37886
1.3828
1.46956
1.45408
1.47123
1.49534
1.49038
1.42294
1.41534
1.4211
1.43901
1.43699
1.49124
1.49077
1.44022
1.46412
1.29331
1.30315
1.23108
1.24315
1.28682
1.31697
1.339
1.32532
1.22049
1.26574
1.30049
1.3443
1.31134
1.31442
1.32862
1.31555
1.28753
1.25776
1.31125
0.939719
0.947868
0.933751
0.932388
0.938621
0.947161
0.944635
0.94969
0.93339
0.933205
0.935211
0.939286
0.933089
1.56703
1.58397
1.56077
1.54338
1.59361
1.55657
1.5706
1.54127
1.55157
1.58002
1.59364
1.6025
1.56111
1.59426
1.60954
1.58208
1.60196
0.886214
0.886602
0.884011
0.892818
0.898101
0.890632
0.898116
0.891568
0.895599
0.883374
0.888957
0.899219
0.89372
0.888253
0.881703
0.965506
0.923108
0.949956
1.01427
0.981537
1.00817
0.972163
1.05989
1.05769
1.06039
1.01622
1.00668
1.29679
1.33753
1.36307
1.25827
1.25466
1.36774
1.33471
1.36122
1.3314
1.31119
1.35556
1.28543
1.31828
0.892753
0.891537
0.891628
0.892393
0.894232
0.897227
0.896221
0.894401
0.896249
0.895996
0.892174
0.891907
0.890439
0.891081
0.978908
0.988161
0.997762
0.998345
1.00274
1.00406
1.02251
1.03594
1.04461
1.04725
1.0458
1.0295
1.06682
1.06151
1.05848
1.05547
1.0748
1.07285
1.08726
1.0875
1.05719
1.04567
1.07617
1.0787
1.05196
1.0677
1.06369
1.07773
1.06756
1.03397
1.06226
1.04302
1.03596
0.980083
0.984128
1.02964
1.05408
1.00032
1.00587
1.03244
0.96021
0.964644
0.989244
1.53371
1.5339
1.53121
1.53955
1.55148
1.59358
1.60914
1.55431
1.56792
1.58353
1.59892
1.58022
1.56498
1.57772
1.56944
1.58186
1.60638
1.59968
1.60342
1.60391
0.940413
0.939566
0.942281
0.94125
0.936471
0.938138
0.936758
0.9402
0.934274
0.940354
0.934652
0.938225
1.20931
1.2384
1.25721
1.23427
1.1946
1.18669
1.27079
1.25441
1.21486
1.24054
1.25284
1.26121
1.23581
1.25084
1.27651
1.27738
1.23058
1.23937
1.20706
1.24306
1.1991
1.229
0.980468
0.988053
0.994207
1.00611
1.00067
0.983093
0.998434
1.00824
0.980301
0.98726
1.0109
1.01094
1.01358
1.00202
1.01952
1.01374
1.01888
1.00777
0.996259
1.00483
0.987385
0.994074
0.975974
0.977174
0.983349
0.986582
1.00206
1.00206
0.999103
0.996878
0.978001
0.975507
0.991422
1.0033
1.00181
0.985334
0.990488
1.00644
1.00435
0.984713
0.992682
0.987239
1.002
0.998971
1.00702
1.02285
0.995212
0.993342
1.00726
1.02512
1.0154
0.989802
0.989913
0.996355
1.03037
1.01248
1.0201
1.01265
1.00039
1.02234
1.03484
1.01981
1.03357
1.0012
0.995279
0.992356
0.987117
0.981444
0.943573
0.974454
0.953627
0.946555
0.968542
0.975584
0.940186
0.942537
0.98724
0.975409
0.952139
0.961106
0.972279
1.20382
1.21204
1.19078
1.17778
1.18018
1.19823
1.15681
1.17794
1.17305
1.20793
1.212
1.17402
1.19454
1.1798
1.19277
1.16758
1.16784
0.932741
0.931496
0.935576
0.932853
0.935226
0.933001
0.935419
0.932306
0.934141
0.935634
0.93531
0.932915
0.940184
0.938241
0.936158
0.932929
1.31684
1.30387
1.30104
1.24933
1.25547
1.2728
1.27262
1.19606
1.21467
1.24972
1.23676
1.27976
1.28873
1.21037
1.24513
1.26009
1.21473
1.27632
1.22987
1.23962
1.23204
0.969792
0.970475
0.958033
1.04375
0.995659
1.05153
1.0244
0.986474
1.01519
1.03589
1.02212
0.962734
0.926179
0.931891
0.956641
0.999435
1.03177
0.948319
0.93316
0.955018
0.944011
0.933031
0.933947
0.955835
0.953218
0.943925
0.928972
0.937095
0.932338
0.943057
0.953616
0.951766
0.940952
0.951708
0.932178
0.926628
0.941038
0.932086
0.935992
0.952554
0.947666
0.955864
0.925578
0.930593
0.93092
0.919979
0.936491
0.93612
0.920213
0.931856
0.926308
0.919611
0.921412
0.920092
0.920666
0.911219
0.929538
0.925056
0.922322
0.91628
0.919828
0.91887
1.49679
1.44274
1.45956
1.43348
1.43758
1.40234
1.43019
1.43536
1.40783
1.41462
1.45088
1.41733
1.46402
1.43088
0.935688
0.944377
0.940153
0.93774
0.934341
0.955958
0.974416
0.963855
0.934498
0.965608
0.941722
0.949458
0.941061
0.947118
0.968463
0.952622
0.939382
0.96226
0.94659
0.935769
0.944982
0.963465
0.947103
0.93826
0.942134
0.943494
0.939033
0.934338
0.941472
0.953979
0.929113
0.951648
0.946672
1.46941
1.47957
1.44609
1.50127
1.4709
1.45386
1.47336
1.45302
1.45326
1.44657
1.43473
1.46145
1.43359
1.49941
1.49005
1.45805
1.40061
1.43028
1.42028
0.978127
0.989847
0.996857
0.996851
0.954667
0.975153
0.964398
0.953234
0.955911
0.986664
0.983174
0.975909
0.984343
0.967228
0.976923
0.983159
0.981086
0.94775
0.973851
0.970956
0.892076
0.88785
0.8993
0.899793
0.894192
0.897885
0.895471
0.894778
0.891871
0.896924
0.901943
0.89885
0.899706
0.903495
0.897626
0.909756
0.908558
0.906729
0.900569
0.892752
0.899793
0.895692
0.900938
0.902774
0.910271
0.901469
1.13826
1.19055
1.2062
1.23877
1.1366
1.15907
1.13453
1.1587
1.21712
1.18056
1.21034
1.16456
1.17912
1.12106
1.09518
1.14201
1.12313
1.10181
0.944042
0.939364
0.973357
0.958844
0.956088
0.942591
0.947906
0.92759
0.916811
0.944956
0.959659
0.96803
0.931458
0.943514
0.96377
0.966728
0.98593
0.949653
0.983564
0.99731
0.991475
0.982604
0.979508
0.98615
0.994423
0.988819
1.00351
1.00404
1.02006
1.01397
0.995977
1.01036
1.01201
0.992931
0.983681
0.985192
0.994548
1.01461
0.979532
0.987814
1.67004
1.65506
1.67092
1.63896
1.65235
1.63818
1.6499
1.64606
1.63957
1.62874
1.62301
0.938346
0.941503
0.937152
0.946469
0.938011
0.940432
0.938404
0.936239
0.947686
0.936176
0.945724
0.940253
0.94549
0.940083
0.946089
0.95188
0.950009
0.942398
1.0512
1.0336
1.05217
1.02897
1.04339
1.06283
1.06805
1.0606
1.05959
1.07112
1.01554
1.43119
1.37812
1.3809
1.41529
1.47953
1.43334
1.4123
1.37601
1.47184
1.21365
1.1618
1.13602
1.16048
1.21858
1.17746
1.11473
1.20245
1.19524
1.12937
1.14909
1.24287
1.24599
1.17327
1.26101
1.26766
1.17741
1.17698
1.18924
1.18559
1.22081
1.22034
1.23696
1.24467
1.25609
1.25827
1.25382
1.1907
1.19729
1.19095
1.2136
1.23528
1.21078
1.22888
1.2222
1.2073
1.24009
1.20265
1.49733
1.49871
1.49907
1.49602
1.58449
1.5718
1.51593
1.50869
1.50231
1.51743
1.51908
1.5954
1.58512
1.57886
1.55882
1.56089
1.49145
1.52953
1.53451
1.56527
1.54381
1.56421
1.55539
1.53359
1.546
0.964951
0.955651
0.970875
0.973205
0.969044
0.971971
0.941344
0.971187
0.936322
0.9475
0.955076
0.934127
0.946545
0.944019
0.949333
0.946775
1.43436
1.43059
1.4455
1.50106
1.49451
1.50068
1.46908
1.47426
1.51791
1.51077
1.47302
1.45943
1.4931
1.51356
1.51435
0.952022
0.945469
0.952243
0.951579
0.951711
0.947133
0.948943
0.953449
0.952125
0.953731
0.923368
0.924614
0.925092
0.926311
0.92327
0.923867
0.927464
0.927118
0.92095
0.92295
0.9263
0.926555
0.931109
0.930665
0.930855
1.13259
1.15455
1.13922
1.1497
1.12715
1.17074
1.16292
1.16637
1.12845
1.14099
1.11131
1.11522
1.12657
1.14032
1.10126
1.11225
1.10499
1.09001
1.09477
0.929106
0.93305
0.933979
0.932975
0.918254
0.931365
0.935686
0.93646
0.928919
0.938946
0.934074
0.931304
0.931587
1.1262
1.11895
1.16565
1.17685
1.0772
1.08181
1.14768
1.14233
1.12116
1.14857
1.1087
1.08803
1.06032
1.04813
1.0446
0.973317
0.975271
0.969353
0.96886
0.964217
0.973374
0.968446
0.962711
0.967418
0.966806
0.962506
0.962076
0.963591
0.947643
0.949972
0.956206
0.950024
0.958871
0.96142
0.961603
0.948134
0.949222
0.961885
0.959805
0.965182
0.947607
0.949833
0.953726
0.952769
0.955798
0.949581
1.11333
1.10562
1.09842
1.08986
1.10118
1.10694
1.09553
1.10366
1.07394
1.1064
1.09235
1.09334
1.0738
1.08575
1.06533
1.08142
1.09003
1.07615
1.05387
1.06956
1.0853
0.922203
0.928042
0.932798
0.93076
0.920383
0.926677
0.918217
0.935357
0.925126
0.917472
0.917109
0.922029
0.922139
0.924807
0.923634
0.919003
0.929814
0.924328
1.54244
1.5409
1.49051
1.49049
1.57873
1.52063
1.50778
1.4897
1.47117
1.54817
1.5097
1.52575
1.0733
1.0732
1.02658
1.07124
1.06799
1.02703
1.04236
1.04803
1.03806
1.04443
1.02213
1.03929
1.04299
0.951509
0.934382
0.941239
0.951857
0.969554
0.95629
0.929642
0.930856
0.959054
0.953385
0.937381
0.95633
0.948086
0.918831
0.911531
0.91023
0.902584
0.908073
0.912891
0.923459
0.942192
0.908158
1.71124
1.72131
1.71784
1.70728
1.71052
1.69661
1.71292
1.7036
1.66249
1.66677
1.67575
1.68461
1.69133
1.67458
1.6454
1.64683
1.65535
1.65363
1.65202
1.6751
1.09514
1.10117
1.07024
1.11453
1.11387
1.09877
1.11332
1.10019
1.12407
1.11786
1.01855
1.0407
1.02881
1.04071
1.01754
1.03716
1.02681
1.02633
1.06142
1.05989
1.02733
1.01838
1.05015
1.0676
1.0693
1.01654
1.04496
1.0303
1.04213
1.06231
1.06223
1.03166
1.03718
1.01414
1.01285
1.0227
1.0177
1.01303
1.01014
1.03175
1.02557
1.02971
1.03043
1.01864
1.00704
1.01224
1.02339
1.02877
1.02289
1.00735
1.0146
1.00491
1.02486
1.01542
1.01517
1.11985
1.14263
1.16125
1.13866
1.1323
1.10867
1.17993
1.16083
1.12563
1.10012
1.11765
1.10845
1.1564
1.13664
1.17401
1.08664
1.09281
1.10819
1.12772
1.14987
1.14129
1.10791
1.14407
1.09518
1.4099
1.43039
1.43515
1.44484
1.42952
1.46915
1.40365
1.39273
1.45052
1.46546
1.44307
1.46263
1.43401
1.45464
1.43769
1.4111
1.47079
1.48515
1.48934
1.4888
1.46769
1.42803
1.48029
1.46273
1.44305
1.46165
1.44873
1.39787
1.41967
1.3963
1.39493
1.61618
1.61319
1.67303
1.65701
1.67527
1.68431
1.63526
1.61438
1.60985
1.67718
1.68259
1.65921
1.65826
1.6561
1.65839
1.67274
1.63968
1.65645
1.4884
1.47258
1.50638
1.48591
1.45758
1.43804
1.4951
1.49172
1.50787
1.4398
1.48373
1.46474
1.50532
1.47574
1.13005
1.10909
1.11094
1.13449
1.08193
1.15533
1.14775
1.13375
1.07751
1.0559
1.18237
1.16509
1.11136
1.11678
1.18314
1.14774
0.973951
0.998128
0.954241
1.00334
0.930353
0.906259
0.902791
0.99076
0.965218
0.91172
0.897512
0.983168
0.92053
0.932662
1.18493
1.21801
1.14992
1.14435
1.22958
1.2081
1.16307
1.18827
1.14264
1.16716
1.17988
1.13782
1.12657
1.15282
1.16765
1.23368
1.16305
1.21241
1.50813
1.50135
1.49533
1.49782
1.5061
1.46475
1.45665
1.44866
1.44466
1.42555
1.4445
1.43399
1.41206
0.923938
0.953562
0.998386
0.869639
1.04227
1.01682
0.932078
1.00126
0.973155
0.920975
0.935312
1.16401
1.16549
0.926774
0.914427
1.1418
1.14549
0.883541
0.882638
0.891242
0.893592
0.880667
0.884641
1.18842
1.15441
1.13757
1.19136
1.14303
1.17702
1.36583
1.33757
0.950791
0.952749
0.884094
0.885573
0.8956
1.39448
1.15517
1.10081
1.2625
1.22618
1.19327
1.14153
0.976617
0.950305
0.924645
0.903983
1.52177
1.50736
1.28238
1.28872
1.27178
0.896362
0.897218
1.55164
1.55536
1.57266
1.43373
1.43975
1.66856
1.66921
1.04213
1.06577
1.01238
1.47955
1.49355
1.47295
1.67369
1.67141
1.6569
1.68275
0.877199
0.886954
0.881803
1.21088
1.20776
1.22129
1.41653
1.41628
1.52595
1.52607
1.62991
1.63731
1.64841
0.892385
0.891804
0.890601
1.37203
1.37859
1.62298
1.60696
1.63254
1.62237
0.943363
0.940099
0.976163
1.29481
1.30038
1.73054
1.72594
1.33782
1.33591
1.35751
1.03153
1.03426
1.01788
1.69692
1.71167
1.71158
1.7115
0.893027
0.891308
0.88514
0.888139
0.890511
0.901788
1.1929
1.18689
1.20636
0.890843
0.896967
0.895999
0.894386
0.909665
0.907581
1.23672
1.23431
1.02084
1.03063
1.01359
1.01556
1.18572
1.18247
1.12546
1.12225
0.902171
0.901543
0.900494
1.01425
0.966064
1.01186
0.994731
1.12507
1.15702
1.15554
0.894492
0.894162
0.961191
0.949287
0.953945
1.08536
1.0875
1.14383
1.14521
1.02261
1.02062
0.902267
0.909382
0.904306
0.909713
0.910076
0.911422
1.03094
1.03447
0.903624
0.909976
0.906911
1.07271
1.06943
1.08875
1.09392
0.918477
0.918168
1.07507
1.07482
1.05285
1.05108
1.03826
0.988664
0.984976
0.986021
1.06922
1.06947
0.925171
0.919657
0.925358
0.968565
0.925146
0.92596
0.929665
0.929552
1.01567
1.01573
0.92167
0.928353
0.926703
1.03309
1.04846
1.04774
1.05926
1.05884
1.04955
1.04121
0.929593
0.930636
0.962742
0.964478
0.959852
0.960211
0.95276
1.00983
1.00756
0.937812
0.937876
0.999028
1.01059
1.01297
0.995791
0.997925
0.933389
0.930986
0.973501
0.973785
0.979561
0.932829
0.93439
0.938982
0.931089
0.961944
0.959794
0.944446
0.95403
0.948037
0.949035
0.934437
0.932651
0.954438
0.956181
0.973666
0.971467
0.962998
1.71498
1.72497
1.70781
1.71636
1.70676
1.71086
1.69817
1.70101
1.68497
1.67956
0.96487
0.949452
0.96433
0.96324
0.950577
0.950446
0.948439
0.939334
0.932644
0.93893
0.946517
0.937609
0.936153
0.939014
0.942737
0.938551
0.96603
0.981663
0.971316
0.964788
0.974001
0.981577
0.973818
0.983237
0.971463
0.972942
0.979993
0.972709
0.975719
0.964232
0.961755
0.952958
0.968872
0.964565
0.967136
0.968239
0.96321
0.966401
0.942582
0.940979
0.940707
0.975533
0.979157
0.974733
0.983477
0.961392
0.965957
0.976439
0.971095
0.975306
0.958009
0.952667
0.949853
0.94873
0.94485
0.953036
0.958913
0.956389
0.949915
0.945204
0.948413
0.938703
0.936904
0.945016
0.940357
0.941129
0.939134
0.953682
0.95458
0.945299
0.948519
0.955129
0.938142
0.937767
0.936718
0.938677
0.941532
0.939221
0.940742
0.938365
0.934438
0.94289
0.943876
0.942615
0.937878
0.942531
0.93472
0.937093
0.975907
0.975379
0.963243
0.953914
0.956112
0.961873
0.949397
0.948277
0.984928
0.976753
0.981882
0.986892
0.975465
0.96907
0.928698
0.934083
0.936403
0.931906
0.926978
0.97658
0.988975
0.976165
0.99073
1.00447
0.993176
0.984803
0.982175
0.988787
0.991131
0.981846
0.922025
0.928975
0.927258
0.927517
0.925589
0.930274
0.93962
0.939898
0.938038
0.934776
0.940188
0.934041
0.930205
0.924455
0.927437
0.934166
0.934046
0.93597
0.930634
0.93418
0.93275
0.931116
0.931733
0.932908
1.00761
0.997265
0.995622
0.997384
1.01067
0.995196
0.996396
1.00832
0.999443
0.984059
0.991484
0.989352
0.986125
0.978895
0.976696
0.970899
0.988728
0.988395
0.980204
0.992485
1.00166
0.991261
0.987879
0.998238
1.00048
1.043
1.02697
1.04134
0.935593
0.932423
0.93573
0.935404
0.936747
0.938343
0.941203
0.940707
0.940175
0.938402
0.94062
0.938474
0.941189
0.94123
1.03606
1.03407
1.01802
1.00248
1.01777
1.02295
1.01832
1.0205
1.01621
1.01218
1.00388
1.00005
0.982378
0.994078
0.985467
0.977805
0.995069
0.979286
0.979659
0.968396
0.972857
0.973055
0.978954
0.975159
0.984241
0.982419
0.985016
0.929399
0.930177
0.927556
0.925555
0.927738
0.919917
0.925009
0.921499
0.923219
0.937947
0.937055
0.937262
0.936199
0.935797
0.938125
0.934066
0.932909
0.932517
0.932439
0.932824
0.923484
0.921559
0.92261
0.922818
0.922669
0.924308
0.922365
0.920711
0.920745
0.920373
0.914757
0.926634
1.01501
1.01553
1.02953
1.03091
1.01202
1.00361
1.00549
1.01205
1.00939
0.931199
0.933087
0.936372
0.929803
0.932129
0.930323
0.932209
0.931842
0.941007
0.936399
0.935158
0.928381
0.94387
0.939001
0.945911
0.950123
0.94816
0.942218
0.929325
0.938471
0.948747
0.942879
0.941649
0.937482
0.935732
0.935773
0.93381
0.919238
0.912746
0.913189
0.913421
0.918002
0.91686
0.914841
0.922507
0.987911
0.974359
0.971118
0.980733
0.968376
0.986068
0.954431
0.947945
0.948405
0.932183
0.925465
0.934433
0.91863
0.927748
0.923284
0.924248
0.926391
0.923268
0.926736
0.926402
0.919808
0.910337
0.916937
0.921898
0.923059
0.923188
1.13306
1.11979
1.11913
1.10349
1.09173
1.07497
1.07827
1.06889
1.08437
1.08404
1.08994
1.10108
1.10037
1.07936
1.07638
1.08598
1.07589
1.02505
1.02442
1.03392
1.04226
1.04988
1.04291
1.05207
1.05269
1.05607
1.05474
1.05103
1.045
1.04496
1.03714
1.03171
1.01417
1.03509
1.013
0.998182
1.00595
1.00148
0.986186
0.995999
1.00577
1.00621
1.09342
1.0801
1.07556
1.05823
1.05928
1.06687
1.0479
1.05992
1.05418
1.04239
1.06133
1.06182
1.04641
1.07827
1.07099
1.05513
1.04021
1.04954
1.04722
1.02012
1.04538
1.05252
1.11791
1.09805
1.11795
1.11927
1.09894
1.10799
1.09749
1.08198
1.09054
1.11603
1.11271
1.09525
1.08152
1.11602
0.91498
0.917659
0.91486
0.915194
0.906645
0.910389
0.913997
0.908775
0.910979
0.912057
1.0753
1.09744
1.13412
1.13304
1.11843
1.1277
1.11614
1.09536
0.907811
0.909774
0.90985
0.904592
0.908333
0.901917
0.910346
0.90538
0.896732
0.899183
0.896133
0.903006
0.903971
0.899696
1.00397
1.01016
0.990079
0.966403
0.982845
0.974911
1.02479
1.01758
0.97801
1.06553
1.07083
1.05736
1.02667
1.03586
1.04524
1.0114
0.904219
0.902133
0.902336
0.91219
0.909155
0.910577
0.923915
0.921213
0.91854
0.921354
0.923751
0.91278
0.91763
0.915745
0.919562
0.905087
0.905427
0.901619
0.911402
0.908301
0.914064
0.920273
0.914714
0.909977
0.917181
0.916947
0.916928
0.911581
0.916049
0.91506
0.942407
0.935717
0.943268
0.960122
1.18085
1.18627
1.16084
1.15104
1.13169
1.17227
1.15181
1.13877
1.15082
1.13911
1.1508
1.16889
1.17015
1.14816
1.12818
1.12641
1.09345
1.09612
1.07869
1.06353
1.07793
1.07235
1.05923
1.04103
1.19057
1.20047
1.18662
1.18953
1.14235
1.12399
1.16001
1.16701
1.15104
1.125
1.12409
1.1194
1.15208
1.16029
1.15858
1.14833
1.20537
1.18674
1.16505
1.16101
1.17959
1.18184
1.16159
1.16832
1.162
1.08475
1.05039
1.03395
0.927068
0.948768
0.983994
0.982147
0.920358
0.900497
0.973828
0.977454
1.07849
1.02382
1.03618
1.06832
1.03953
0.895082
0.895842
0.898172
0.895116
0.893756
0.903557
0.903773
0.902207
0.901497
0.898182
0.901344
1.16419
1.19631
1.17272
1.20405
1.14341
1.12402
1.08811
1.11032
1.09947
1.15174
1.15431
1.11612
1.11393
1.09991
1.09323
1.10722
1.14639
1.12577
1.14164
1.16197
1.1469
1.16026
1.18689
1.17806
1.19048
1.16953
1.16225
1.13752
1.12421
1.10251
1.11145
1.04028
1.13529
1.13467
1.1112
1.10927
1.08066
1.04559
1.07694
1.06763
1.07973
1.29409
1.26148
1.26187
1.1849
1.1812
1.19325
1.22244
1.22188
1.23652
1.21473
1.19543
1.22049
1.23868
1.23571
1.20952
1.19021
1.19339
1.20613
1.1737
1.1792
1.14233
1.16884
1.16331
1.16487
1.14591
1.13543
1.14812
1.13815
1.12555
1.27073
1.24902
1.20895
1.25084
1.23062
1.21889
1.20559
1.21935
1.20636
1.26065
1.27552
1.26129
1.23783
1.23599
1.27062
1.21808
1.24135
0.915446
0.92197
0.893224
0.8995
0.899175
0.900218
0.896237
0.900271
0.895156
0.907914
1.00414
0.97473
0.985753
0.952531
0.955647
0.941846
0.941455
0.924022
0.923841
0.888778
0.895791
0.892912
0.899863
0.896359
0.890322
0.897063
0.903973
0.902629
0.903854
0.902937
0.902317
0.898693
0.910743
1.2885
1.28233
1.29344
1.25594
1.23505
1.20399
1.24137
1.21133
1.24633
1.23379
1.20494
1.23889
1.106
1.15236
1.14377
1.11756
0.891169
0.888514
0.889418
0.885558
0.882563
0.88759
0.887477
0.876619
0.884215
0.888092
0.878193
0.888077
0.885201
0.882547
0.889808
0.877934
0.895382
0.888821
0.912234
0.890751
0.89277
0.889652
0.912449
0.896086
0.889397
0.891151
0.892856
0.889235
0.89136
1.72415
1.71379
1.72827
1.64424
1.63784
1.66039
1.70176
1.70153
1.69186
1.68766
1.67043
1.70938
1.69576
1.68591
1.67735
1.69144
1.69376
1.16047
1.15137
1.39196
1.37078
1.34516
1.3732
1.35364
1.34777
1.35327
1.38657
1.38354
1.35825
1.40474
1.32341
1.35212
1.34873
1.36234
1.36712
1.36417
1.36147
1.35592
1.33391
1.2649
1.3176
1.30207
1.29438
1.25731
1.3236
1.32365
1.30682
1.29992
1.28797
1.26487
1.32016
1.27355
1.31195
1.31127
1.30359
1.30822
1.30878
1.69992
1.71113
1.71228
1.6882
1.70079
1.72821
1.7247
1.72151
1.71032
1.71687
1.71073
1.73724
1.73509
1.72982
1.72287
1.72636
1.71848
1.73014
1.70733
1.37678
1.35301
1.35076
1.37523
1.37857
1.3849
1.35915
1.33393
1.31816
1.32311
1.35948
1.34759
1.36609
1.3644
1.32414
1.3214
1.26229
1.27069
1.29906
1.24392
1.2786
1.2972
1.30628
1.31272
1.08243
1.04791
1.02436
1.11095
0.912182
0.914879
0.918684
0.936098
1.00121
0.91424
0.907019
1.0444
1.07124
1.06111
1.04941
1.01932
1.10576
1.10912
1.08893
0.956777
0.973244
0.945762
0.984204
1.00335
1.00659
0.942341
0.941762
1.02952
1.02478
0.914517
0.923721
0.921993
0.927634
1.58451
1.50617
1.52827
1.6351
1.6239
1.65034
1.65846
1.63319
1.61561
1.66313
1.66175
1.63648
1.66108
1.67124
1.62716
1.62716
1.64388
1.64108
1.42358
1.42643
1.41328
1.47973
1.45817
1.43055
1.44983
1.43035
1.32904
1.26845
1.33891
1.29785
1.27407
0.882977
0.886426
0.887624
0.889926
0.892049
0.89036
0.890131
0.891996
0.889597
0.891353
0.890428
0.890408
0.890277
0.891813
0.892352
1.58186
1.59288
1.62473
1.61573
1.58919
1.61646
1.61338
1.66512
1.68105
1.61677
1.62751
1.65757
1.66593
1.65395
1.64929
1.63736
1.57607
1.59117
1.60709
1.61033
1.60031
1.57841
1.58152
1.58926
1.50117
1.50363
1.60178
1.59541
1.60174
1.61536
1.41448
1.43535
1.44349
1.49617
1.48462
1.52451
1.48625
1.48031
1.44584
1.56698
1.56759
1.57691
1.57545
1.53475
1.51803
1.53294
1.55081
1.5299
1.54393
1.54643
1.52612
1.4466
1.46773
1.44658
1.42286
1.46708
1.46415
1.24803
1.26148
1.25736
1.23631
1.19585
1.17438
1.17937
1.15661
1.15466
1.12749
1.07628
1.16826
1.17864
1.12762
1.10407
0.884192
0.877395
0.884364
0.877386
0.883344
0.886566
0.878655
0.875848
0.887351
0.883956
0.886275
0.888219
0.88771
0.890035
0.88834
0.887807
0.888174
0.884985
0.884668
0.890024
0.88963
0.889488
1.648
1.65214
1.6338
1.65844
1.67393
1.67594
1.69132
1.67633
1.65113
1.64101
1.6601
1.6476
1.58203
1.61033
1.6036
1.61127
1.69388
1.67179
1.67173
1.71089
1.7013
1.69506
1.65202
1.64591
1.63969
1.65345
1.63848
1.63642
1.65987
1.65603
1.67437
1.68087
1.67299
1.68581
1.66291
1.66428
1.67549
1.67389
1.61772
1.63611
1.6202
1.64827
1.64847
1.63148
1.62128
1.65134
1.63915
1.63987
1.65268
1.65016
1.34464
1.3589
1.38105
1.40101
1.46381
1.4803
1.55147
1.56596
1.5657
1.53931
1.5264
1.55701
1.52137
1.51301
0.98371
0.976601
0.977187
1.00688
1.07472
1.08135
1.06167
1.08791
1.11225
1.05707
1.06547
1.64459
1.65481
1.6463
1.66439
1.65299
1.69595
1.7038
1.67724
1.66327
1.33997
1.34706
1.3709
1.41403
1.39915
1.43847
1.43383
1.42562
1.461
1.48893
1.49506
1.3371
1.37608
1.38683
1.36452
1.3538
1.34572
1.38792
1.39748
1.60106
1.61849
1.60139
1.50756
1.49764
1.4746
1.50003
1.5278
1.50276
1.52942
1.54311
1.53379
1.55761
1.52913
1.54087
1.53276
0.900556
0.902703
0.903852
0.894952
0.888246
0.899775
1.37915
1.38067
1.40219
1.4059
1.35977
1.34765
1.31868
1.19859
1.21172
1.21367
1.22952
1.23916
1.20451
1.22959
1.19684
1.17225
1.37822
1.40161
1.35608
1.35889
1.39174
1.42347
1.36998
1.42184
1.3981
1.43993
1.39811
1.3802
1.4239
1.45851
1.47271
1.54076
1.52937
1.52213
1.5535
1.53869
1.5735
1.53887
1.52733
1.5795
1.55499
1.56952
1.58287
1.60096
1.56624
1.56915
1.54341
1.52756
1.54535
0.891913
0.874623
0.917358
0.864019
0.907604
0.971669
0.952778
1.03617
1.10501
0.990508
0.962953
0.9472
0.959418
1.12035
1.0048
1.08845
1.08457
1.13241
1.05966
1.04036
1.13523
1.09948
1.13535
1.15385
1.10323
1.10843
1.08683
1.19541
1.17923
1.38477
1.3693
1.38024
1.33671
1.30236
1.28482
1.3295
1.2604
1.30517
1.3254
1.18487
1.18528
1.2362
1.20949
1.1082
1.1113
1.0819
1.07567
1.12562
1.28906
1.3171
1.32884
1.3666
1.46494
1.47046
1.44145
1.45405
1.44099
1.40592
1.40837
1.39816
1.3795
1.0093
0.990663
1.00107
1.039
1.0905
1.35327
1.34805
1.31686
1.21627
1.25544
1.23454
1.27629
1.21972
1.36503
1.33542
1.27933
1.31352
0.989405
1.02369
1.03831
1.04644
1.11827
1.36321
1.31668
1.36633
1.26548
1.24106
1.22372
1.20645
1.27396
1.25135
1.18078
1.19694
1.18362
1.20564
1.22275
1.19399
1.20124
1.08918
1.18684
1.25259
1.26529
1.27219
1.32532
1.29298
1.24294
1.22608
1.30893
1.33127
1.35986
1.26027
1.26502
0.891372
0.89191
0.899421
0.934746
0.915814
0.8833
0.907089
1.03017
1.03945
1.1118
1.19015
1.07327
1.12006
1.07641
1.05104
1.19263
1.13562
1.07276
1.12806
0.926362
0.947629
0.918349
0.966583
1.09871
1.0884
1.10987
1.11869
1.15008
1.10689
1.07605
1.16835
1.12426
0.898291
0.871114
0.912309
0.889313
0.895249
0.904687
1.37862
1.35918
1.33165
1.33467
1.29332
1.2944
1.27538
1.2728
1.29915
1.3191
1.18239
1.24368
1.26533
1.28745
1.19625
1.1879
1.17587
1.20148
1.01682
0.979577
0.997868
0.99185
0.973571
1.03623
0.962097
0.966462
1.07054
1.05098
1.05738
1.05976
1.00129
1.02733
1.02915
1.01263
1.01522
1.04408
1.50351
1.52741
1.52595
1.51338
1.51461
1.48329
1.46872
1.53715
1.53181
1.45987
1.43959
1.20784
1.19967
1.23673
1.24215
1.14999
1.16008
1.25824
1.23867
1.51858
1.50045
1.49085
1.48476
1.28115
1.23429
1.24214
1.30197
1.33127
1.36282
1.34801
1.28761
1.29861
1.43695
1.39396
1.39233
1.40909
1.34567
1.34818
1.39521
1.38068
1.40006
1.43054
1.44297
1.39985
1.45108
1.46494
1.26331
1.3775
1.36741
1.30455
1.3702
1.27588
1.29792
1.26174
1.30853
1.28283
0.890856
0.889831
0.891105
0.891837
0.889818
0.896525
0.896415
0.885563
0.894139
1.5625
1.57042
1.57298
1.54238
1.59061
1.59509
1.56885
1.51793
1.52849
1.51349
1.49946
1.5333
1.58338
1.52954
1.57311
1.5358
1.48462
1.49505
1.47118
1.46923
1.46813
1.43711
1.50327
1.50012
1.40199
1.43512
1.39549
1.37344
1.38813
1.39541
1.40892
1.38251
1.36464
1.3764
1.32005
1.33471
1.31383
1.36066
1.35596
1.36579
1.33932
1.38408
1.29627
1.32768
1.34128
1.33258
1.30561
1.38679
1.39575
1.49236
1.48183
1.51394
1.4999
1.5309
1.51924
1.51751
1.53001
1.47848
1.47591
1.47329
1.45784
1.50118
1.48514
1.5062
1.50054
1.53752
1.51662
1.5434
1.55357
1.56312
1.42997
1.46802
1.4373
1.41499
1.45618
1.45515
1.46058
1.48969
1.48796
1.61346
1.61427
1.61835
1.60865
1.62858
1.60964
1.60808
1.63368
1.62395
1.62046
1.60263
1.61497
1.59753
1.61691
1.6115
1.61494
1.63204
1.62517
1.67901
1.70366
1.68879
1.70252
1.71278
1.69718
1.68508
1.67416
1.61814
1.61529
1.62027
1.60572
1.58719
1.62032
1.32736
1.33003
1.31612
1.28981
1.42707
1.40923
1.44969
1.45479
1.44638
1.4429
1.50105
1.50908
1.5109
1.48772
1.50857
1.51575
1.5053
1.4904
1.58944
1.56374
1.58161
1.43949
1.46632
1.46916
1.42742
1.45777
1.45879
1.48135
1.48989
1.48506
1.46951
1.46271
1.39544
1.38362
1.43238
1.41119
1.43141
1.42935
1.4245
1.40152
1.38601
1.38242
1.36139
1.42006
1.43597
1.43604
1.47895
1.49013
1.46673
1.44519
1.49515
1.49819
1.44992
1.48658
1.47476
1.58803
1.5966
1.59307
1.57853
1.5617
1.54835
1.58117
1.56131
1.51172
1.51793
1.49304
1.46717
1.48002
1.48212
1.46153
1.44529
1.46095
1.56453
1.56145
1.5792
1.5826
1.56413
1.56289
1.50741
1.53914
1.52179
1.55791
1.55478
1.50875
1.3249
1.39006
1.33737
1.37876
1.34175
1.38548
1.3726
1.36872
1.4167
1.41999
1.41494
1.38777
1.40638
1.41981
1.35099
1.34473
1.31574
1.3601
1.26527
1.37042
1.37819
1.37659
1.30738
1.27693
1.27423
1.62896
1.66241
1.64785
1.64073
1.67062
1.6884
1.6797
1.66445
1.63728
1.51724
1.53412
1.50658
1.48932
1.53109
1.54462
1.54523
1.50756
1.64185
1.61959
1.62794
1.62612
1.60074
1.71336
1.69934
1.71402
1.69586
1.70004
1.70771
1.70997
1.71953
1.7074
1.70818
1.69931
1.69771
1.23519
1.24279
1.28491
1.25952
1.25261
1.28744
1.28561
1.29178
1.28733
1.25402
1.26092
1.28692
0.89708
0.884585
0.88825
0.88937
0.878425
0.889459
0.886296
0.88034
0.886214
0.929265
0.950765
0.98099
0.929717
0.932464
0.930233
0.911646
0.945644
0.934275
1.07374
1.10063
1.10389
1.13597
1.0988
1.10611
1.10827
1.23731
1.24149
1.24102
1.33254
1.35117
1.3421
1.33123
1.29732
1.32915
1.33008
1.30947
1.3039
1.28853
1.34011
1.32415
0.910448
0.912018
0.908676
0.906263
0.920799
0.911491
0.911777
0.910075
0.908382
0.892809
0.891923
0.898886
0.895594
0.89993
0.903948
0.900939
0.894057
0.893849
0.897024
0.897637
0.900364
0.897843
0.894458
0.892097
0.896434
0.895766
0.900359
0.901652
1.09336
1.1212
1.1192
1.10956
1.10246
1.09281
1.11966
1.11944
1.11673
1.12652
1.08267
1.09723
0.915664
0.920381
0.915028
0.908955
0.920956
0.92089
0.934441
0.930192
0.924489
0.940428
0.934747
1.05092
1.04904
1.08495
1.06931
1.07272
1.07507
1.08041
1.07995
1.07781
1.08024
0.956238
0.961579
0.949172
0.93879
0.932082
0.939596
0.977945
0.960755
0.962584
0.965221
0.956489
0.926409
0.925655
0.925206
0.922141
0.92132
0.925558
0.922671
1.02869
1.03065
1.01246
1.01086
1.00025
1.00715
1.02235
1.02899
1.01661
1.00527
0.923129
0.923739
0.920599
0.921403
0.918989
0.922031
0.922349
0.919876
0.921316
0.922066
0.915653
0.919458
0.926828
0.928576
0.93573
0.94099
0.933043
0.936467
0.937236
0.935755
0.937549
0.937448
0.946528
0.95611
0.962321
0.957558
0.967895
0.962816
0.968572
0.95626
0.965002
0.995962
0.995517
0.988522
0.994249
0.987683
0.982653
0.978013
0.976135
0.98924
0.983786
0.985486
0.992137
0.987929
0.939767
0.933418
0.935477
0.932408
0.936248
0.933279
0.956543
0.947283
0.956174
0.958902
0.95282
0.959154
0.953448
0.956272
0.96439
0.961802
0.966645
0.964216
0.964589
0.966936
0.956536
0.960713
0.94553
0.940715
0.942078
0.947445
1.71515
1.69444
1.69905
1.7031
1.69855
1.72469
1.70295
1.71603
1.70554
1.722
1.71659
1.73127
1.71159
1.67287
1.6751
1.68872
1.66962
1.68774
1.68264
1.69261
1.69232
1.63084
1.64543
1.64818
1.64995
1.66115
1.65426
1.65792
0.932061
0.935848
0.932673
0.931675
0.93287
0.932385
0.932978
0.931604
0.936003
0.933669
0.933765
0.933919