/*--------------------------------*- C++ -*----------------------------------*\
| =========                 |                                                 |
| \\      /  F ield         | OpenFOAM: The Open Source CFD Toolbox           |
|  \\    /   O peration     | Version:  v1612+                                |
|   \\  /    A nd           | Web:      www.OpenFOAM.com                      |
|    \\/     M anipulation  |                                                 |
\*---------------------------------------------------------------------------*/
FoamFile
{
    version     2.0;
    format      ascii;
    class       volVectorField;
    location    "150";
    object      U;
}
// * * * * * * * * * * * * * * * * * * * * * * * * * * * * * * * * * * * * * //

dimensions      [0 1 -1 0 0 0 0];

internalField   nonuniform List<vector> 
18732
(
(-0.250742 0.615542 -0.396816)
(0.043339 0.0367231 -0.0353404)
(-0.259673 0.766161 0.0135252)
(-0.0850763 0.0118255 0.0492147)
(-0.375158 0.29055 0.383863)
(-0.453076 0.751669 0.265696)
(-0.553918 0.655624 0.517357)
(-0.204629 0.64604 -0.0987284)
(-0.197491 0.645872 -0.109258)
(-0.225949 0.662117 -0.0863444)
(-0.187787 0.636657 -0.124673)
(-0.200506 0.622425 -0.0981069)
(-0.205741 0.663475 -0.111392)
(-0.214518 0.672018 -0.0946146)
(-0.219173 0.632871 -0.0703765)
(-0.197441 0.605603 -0.0766343)
(-0.232187 0.66074 -0.06318)
(-0.213322 0.646952 -0.0800376)
(-0.193411 0.659511 -0.123667)
(-0.207575 0.665695 -0.104872)
(-0.231362 0.67909 -0.0861048)
(-0.180165 0.603485 -0.0738058)
(-0.203125 0.651935 -0.0964748)
(-0.184506 0.622857 -0.0983003)
(-0.200422 0.643319 -0.106446)
(-0.180945 0.64782 -0.118462)
(-0.201182 0.661767 -0.121033)
(-0.215973 0.710361 -0.221689)
(-0.226883 0.693985 -0.174382)
(-0.251198 0.66864 -0.16059)
(-0.222344 0.689124 -0.277213)
(-0.219517 0.685883 -0.263601)
(-0.167036 0.653604 -0.344487)
(-0.197454 0.66933 -0.293691)
(-0.213985 0.687551 -0.257357)
(-0.232481 0.681932 -0.222685)
(-0.213925 0.670942 -0.31092)
(-0.159533 0.639155 -0.341724)
(-0.203111 0.63689 -0.301525)
(-0.222079 0.654709 -0.252662)
(-0.156603 0.63053 -0.324693)
(-0.157003 0.638043 -0.334316)
(-0.20778 0.667586 -0.285941)
(-0.197258 0.671438 -0.133611)
(-0.186953 0.664601 -0.147706)
(-0.201009 0.660152 -0.157487)
(-0.168231 0.66325 -0.161303)
(-0.185831 0.629063 -0.127469)
(-0.165427 0.601283 -0.0967662)
(-0.179277 0.639929 -0.142313)
(-0.174465 0.627776 -0.151139)
(-0.168751 0.581574 -0.139865)
(-0.140903 0.619575 -0.149221)
(-0.141302 0.591297 -0.124208)
(-0.531631 0.595328 0.716254)
(-0.546796 0.623605 0.74944)
(-0.540769 0.607664 0.710596)
(-0.541821 0.609987 0.736788)
(-0.546043 0.645617 0.771377)
(-0.548099 0.617022 0.719307)
(-0.540964 0.614942 0.718589)
(-0.546787 0.589695 0.731965)
(-0.552102 0.586327 0.693488)
(-0.569793 0.580357 0.718927)
(-0.552242 0.607317 0.692888)
(-0.552135 0.601438 0.686488)
(-0.549525 0.591094 0.731307)
(-0.550687 0.573239 0.668572)
(-0.572779 0.577122 0.73006)
(-0.570434 0.620668 0.729841)
(-0.566243 0.605428 0.73624)
(-0.195896 0.663425 -0.222665)
(-0.207214 0.667831 -0.232626)
(-0.17784 0.64816 -0.281781)
(-0.190711 0.648663 -0.237587)
(-0.217878 0.677454 -0.198488)
(-0.228953 0.666396 -0.189002)
(-0.197981 0.665081 -0.279538)
(-0.20721 0.660486 -0.230545)
(-0.184875 0.643229 -0.241199)
(-0.239452 0.671895 -0.162859)
(-0.23311 0.671421 -0.242201)
(-0.233172 0.649093 -0.190784)
(-0.238779 0.68284 -0.155761)
(-0.243441 0.707081 -0.141567)
(-0.242798 0.701988 -0.176928)
(-0.424774 0.637569 0.483889)
(-0.410039 0.616663 0.566571)
(-0.377491 0.614231 0.454411)
(-0.389312 0.625891 0.497636)
(-0.47354 0.643656 0.556393)
(-0.468972 0.666814 0.530433)
(-0.449531 0.649682 0.452981)
(-0.542645 0.666957 0.401259)
(-0.465277 0.68227 0.325712)
(-0.425101 0.626835 0.546903)
(-0.527037 0.660911 0.462638)
(-0.467246 0.662084 0.360255)
(-0.447683 0.622991 0.424259)
(-0.523267 0.643196 0.558412)
(-0.517009 0.632461 0.445264)
(-0.33457 0.73284 0.22748)
(-0.350118 0.739686 0.262606)
(-0.347322 0.730933 0.222262)
(-0.390066 0.733682 0.229998)
(-0.359746 0.734835 0.247139)
(-0.366002 0.707261 0.246367)
(-0.364871 0.722697 0.266222)
(-0.35783 0.712667 0.24487)
(-0.399073 0.717352 0.243208)
(-0.364601 0.721027 0.204425)
(-0.361487 0.710269 0.220514)
(-0.357709 0.698493 0.215751)
(-0.370497 0.70406 0.277823)
(-0.371979 0.673279 0.270695)
(-0.358316 0.710979 0.231981)
(-0.355685 0.689061 0.2322)
(-0.395643 0.713455 0.265502)
(-0.378027 0.686361 0.293023)
(-0.37977 0.720958 0.258377)
(-0.369739 0.68898 0.245498)
(-0.299441 0.630659 -0.0078888)
(-0.298993 0.625103 0.0118941)
(-0.281899 0.617137 -0.00482775)
(-0.2678 0.596591 -0.0586383)
(-0.289017 0.619492 -0.0343678)
(-0.250386 0.619939 -0.0587421)
(-0.216787 0.601071 -0.117636)
(-0.317367 0.661605 0.0229518)
(-0.31071 0.662652 0.0709182)
(-0.294914 0.618048 0.0221606)
(-0.254548 0.596323 -0.0699843)
(-0.290841 0.607625 -0.0509044)
(-0.275059 0.61184 -0.075258)
(-0.268938 0.648648 -0.0343751)
(-0.298221 0.652039 -0.00412972)
(-0.290733 0.640934 0.0104603)
(-0.275339 0.652079 -0.0228876)
(-0.267158 0.617566 -0.0447675)
(-0.276014 0.649366 -0.0247203)
(-0.56481 0.621071 0.618954)
(-0.564985 0.636924 0.640165)
(-0.561116 0.604703 0.552046)
(-0.556151 0.619572 0.522498)
(-0.557189 0.627727 0.520959)
(-0.570815 0.627499 0.611637)
(-0.553334 0.636145 0.580122)
(-0.565362 0.648751 0.634814)
(-0.569875 0.624347 0.662166)
(-0.559586 0.619681 0.664385)
(-0.589202 0.643895 0.608999)
(-0.576166 0.635786 0.65097)
(-0.577872 0.635128 0.527999)
(-0.575852 0.630887 0.545263)
(-0.573209 0.661847 0.606054)
(-0.574498 0.642097 0.582725)
(-0.570585 0.617643 0.60792)
(-0.579621 0.65233 0.580064)
(-0.194659 0.648149 -0.0631081)
(-0.189433 0.656522 -0.0925029)
(-0.205361 0.661504 -0.092379)
(-0.166419 0.647576 -0.119332)
(-0.174313 0.628928 -0.0653298)
(-0.179301 0.639158 -0.110014)
(-0.180505 0.616123 -0.102129)
(-0.204854 0.668354 -0.10172)
(-0.211503 0.655993 -0.0756484)
(-0.200087 0.650992 -0.0752079)
(-0.17968 0.62323 -0.0640637)
(-0.162154 0.635155 -0.12278)
(-0.16607 0.654936 -0.131942)
(-0.198279 0.652426 -0.094677)
(-0.175774 0.663803 -0.129022)
(-0.209986 0.654111 -0.115884)
(-0.197331 0.654695 -0.135928)
(-0.356928 0.377473 0.503267)
(-0.386693 0.410609 0.56762)
(-0.315774 0.387202 0.478143)
(-0.324916 0.405101 0.495294)
(-0.393831 0.39264 0.559558)
(-0.366092 0.412543 0.567067)
(-0.282212 0.353926 0.419112)
(-0.291641 0.351984 0.429102)
(-0.374106 0.359138 0.484102)
(-0.390678 0.373336 0.54226)
(-0.311943 0.329113 0.405725)
(-0.305283 0.334047 0.413816)
(-0.380443 0.343862 0.481701)
(-0.413074 0.378258 0.554955)
(-0.424675 0.384183 0.572771)
(-0.40338 0.334456 0.466843)
(-0.449348 0.364498 0.569227)
(-0.379992 0.353285 0.452474)
(-0.438111 0.670327 0.587565)
(-0.476757 0.682334 0.613615)
(-0.466814 0.687906 0.590399)
(-0.515451 0.670684 0.633015)
(-0.512391 0.676602 0.627358)
(-0.545938 0.668978 0.610656)
(-0.512195 0.65729 0.605676)
(-0.540728 0.655453 0.663997)
(-0.521093 0.685302 0.628732)
(-0.486059 0.648965 0.634133)
(-0.485277 0.683224 0.603797)
(-0.473283 0.6754 0.588908)
(-0.564323 0.661272 0.64612)
(-0.540792 0.651851 0.681331)
(-0.527075 0.644234 0.663415)
(-0.543109 0.666853 0.652145)
(-0.52016 0.640599 0.664436)
(-0.164978 0.674286 -0.23088)
(-0.195955 0.651189 -0.239902)
(-0.203877 0.627769 -0.187624)
(-0.258732 0.635364 -0.0933856)
(-0.228917 0.634508 -0.137905)
(-0.13788 0.631161 -0.326308)
(-0.138222 0.673171 -0.294906)
(-0.168231 0.604315 -0.2988)
(-0.271837 0.560502 -0.106546)
(-0.286978 0.585435 -0.079692)
(-0.277062 0.590353 -0.0770116)
(-0.219874 0.566565 -0.180279)
(-0.24147 0.573253 -0.140061)
(-0.191642 0.603757 -0.285674)
(-0.118268 0.616019 -0.336023)
(-0.196578 0.595476 -0.235268)
(-0.217681 0.634527 -0.176967)
(-0.239295 0.541204 -0.185897)
(-0.207033 0.584215 -0.171849)
(-0.213175 0.546021 -0.210685)
(-0.206936 0.5633 -0.249127)
(-0.182798 0.600787 -0.232689)
(-0.406007 0.728212 0.339549)
(-0.371486 0.721887 0.306756)
(-0.367731 0.725018 0.315261)
(-0.396018 0.743798 0.364224)
(-0.368382 0.729556 0.28853)
(-0.427899 0.671673 0.339467)
(-0.468873 0.696472 0.357852)
(-0.446672 0.696214 0.337391)
(-0.417578 0.722922 0.349282)
(-0.409612 0.692887 0.348049)
(-0.394491 0.694465 0.293371)
(-0.523238 0.712424 0.441096)
(-0.484182 0.706691 0.399412)
(-0.504265 0.696363 0.453388)
(-0.433976 0.684899 0.3397)
(-0.430647 0.704152 0.377351)
(-0.506143 0.673593 0.450631)
(-0.457614 0.70879 0.378403)
(-0.491757 0.70832 0.416548)
(-0.510911 0.514208 0.766065)
(-0.541569 0.537363 0.596328)
(-0.406071 0.492215 0.513602)
(-0.41709 0.49483 0.536375)
(-0.490446 0.516331 0.682056)
(-0.54504 0.542946 0.651229)
(-0.511802 0.535095 0.567585)
(-0.535486 0.537735 0.593176)
(-0.397151 0.47397 0.492354)
(-0.426651 0.502173 0.537668)
(-0.466464 0.502113 0.552297)
(-0.484663 0.540234 0.586318)
(-0.436018 0.479444 0.515704)
(-0.287047 0.669208 0.0401677)
(-0.268041 0.66731 0.0328257)
(-0.259543 0.602123 -0.0215888)
(-0.286179 0.634067 0.0219677)
(-0.276873 0.697975 -0.0018267)
(-0.253797 0.618785 -0.0332819)
(-0.238627 0.629555 -0.0511887)
(-0.256657 0.579428 -0.0445671)
(-0.244067 0.604469 -0.115471)
(-0.296241 0.660294 0.0290906)
(-0.277264 0.679217 0.0105043)
(-0.264321 0.661118 -0.0189233)
(-0.265914 0.597569 -0.118721)
(-0.256259 0.627391 -0.0746455)
(-0.247805 0.672137 -0.0460191)
(-0.259273 0.653159 -0.0352641)
(-0.249786 0.65259 -0.0176322)
(0.00726179 0.130932 -0.0331297)
(0.00642721 0.120764 -0.0345245)
(0.0510142 -0.00355236 -0.0283392)
(-0.0143527 0.136562 -0.0219405)
(-0.0470453 0.232221 -0.0462148)
(-0.0151723 0.188014 -0.0227772)
(-0.0701706 0.246309 -0.125159)
(-0.0746738 0.235376 -0.0860429)
(-0.0141847 0.180437 -0.0759791)
(0.0372976 0.0131925 -0.0450018)
(0.0307631 0.0164376 -0.0250904)
(-0.0663385 0.27643 -0.100466)
(-0.0681393 0.24718 -0.0917124)
(-0.00011475 0.0501192 -0.0317011)
(0.0130193 0.041488 -0.0474056)
(-0.190132 0.679537 -0.247853)
(-0.124151 0.528087 -0.282555)
(-0.207183 0.556613 -0.21915)
(-0.221715 0.703566 -0.26243)
(-0.186164 0.720182 -0.403983)
(-0.179561 0.664393 -0.326446)
(-0.12744 0.59725 -0.421257)
(-0.174514 0.665304 -0.423382)
(-0.156148 0.657357 -0.438687)
(-0.205044 0.705096 -0.33836)
(-0.20566 0.727338 -0.30428)
(-0.131702 0.635506 -0.432356)
(-0.20621 0.593371 -0.288606)
(-0.263888 0.586249 -0.189402)
(-0.281258 0.53782 -0.202593)
(-0.175193 0.561275 -0.394484)
(-0.188327 0.584917 -0.362011)
(-0.174828 0.536785 -0.275672)
(-0.120008 0.543948 -0.411739)
(-0.218315 0.536461 -0.243428)
(-0.264035 0.548989 -0.204121)
(-0.14354 0.585156 -0.330305)
(-0.213163 0.506671 -0.355255)
(-0.281972 0.565252 -0.213267)
(-0.200931 0.518303 -0.325859)
(-0.0410314 0.0727241 0.0139905)
(-0.0315831 0.0403249 -0.000599198)
(0.0121414 0.0276573 -0.0244765)
(0.028355 -0.00514952 -0.0448554)
(-0.0529274 0.0930592 0.0364412)
(0.00493874 0.00580872 -0.0249317)
(0.0437291 -0.0302057 -0.064083)
(0.0167655 0.00659312 -0.0247224)
(0.0408721 -0.0161404 -0.0625691)
(0.0565681 -0.0442457 -0.0792559)
(-0.00721956 0.0524475 -0.0241276)
(0.0255858 0.00888835 -0.0655693)
(0.0189383 0.0287692 -0.0245)
(-0.0339885 0.0953064 0.0149902)
(-0.353766 0.623178 0.422447)
(-0.372772 0.638177 0.47381)
(-0.407892 0.653541 0.494149)
(-0.401886 0.637142 0.524544)
(-0.380366 0.665655 0.479382)
(-0.384292 0.704402 0.510566)
(-0.463613 0.698595 0.550144)
(-0.42303 0.659085 0.549413)
(-0.390818 0.720651 0.5411)
(-0.456198 0.745972 0.552323)
(-0.421822 0.701489 0.568376)
(-0.410514 0.673372 0.569209)
(-0.438968 0.699816 0.560717)
(-0.421842 0.689428 0.555612)
(-0.576497 0.674315 0.800435)
(-0.56911 0.676155 0.835909)
(-0.582783 0.701445 0.813416)
(-0.569851 0.688451 0.822185)
(-0.59789 0.698166 0.808981)
(-0.597746 0.69559 0.818046)
(-0.591085 0.641229 0.781985)
(-0.588571 0.660871 0.81965)
(-0.581787 0.693589 0.833373)
(-0.609539 0.685707 0.810056)
(-0.601031 0.688141 0.838465)
(-0.52562 0.631294 0.552175)
(-0.510933 0.624521 0.463558)
(-0.478999 0.650528 0.548549)
(-0.490069 0.674557 0.513274)
(-0.510839 0.625766 0.54253)
(-0.428167 0.66115 0.493493)
(-0.458164 0.649474 0.55592)
(-0.524478 0.647607 0.680962)
(-0.372467 0.571611 0.377549)
(-0.29919 0.567084 0.307125)
(-0.391828 0.660209 0.392056)
(-0.459735 0.655923 0.49367)
(-0.363641 0.648223 0.421099)
(-0.414278 0.626209 0.459847)
(-0.38418 0.684574 0.439345)
(-0.344623 0.583892 0.397138)
(-0.363251 0.574599 0.428637)
(-0.398274 0.631426 0.39228)
(-0.123667 0.693487 -0.261771)
(-0.0988487 0.674884 -0.268313)
(-0.100205 0.649554 -0.297854)
(-0.0828962 0.656382 -0.29177)
(-0.112944 0.659986 -0.261432)
(-0.129444 0.683026 -0.187124)
(-0.131986 0.664633 -0.202955)
(-0.0819915 0.686569 -0.265736)
(-0.124697 0.695368 -0.230866)
(-0.130443 0.677198 -0.223086)
(-0.112599 0.66616 -0.221885)
(-0.114202 0.695015 -0.169231)
(-0.0816705 0.609552 -0.359923)
(-0.0738064 0.632155 -0.298751)
(-0.0691608 0.671407 -0.270755)
(-0.0910848 0.640582 -0.329043)
(-0.0940501 0.644476 -0.29784)
(-0.114431 0.622424 -0.278915)
(-0.097878 0.643816 -0.280555)
(-0.10737 0.649145 -0.261292)
(-0.281884 0.129032 0.239388)
(-0.340587 0.181197 0.283077)
(-0.269214 0.136299 0.229278)
(-0.261566 0.131945 0.223258)
(-0.31349 0.188153 0.271551)
(-0.273185 0.163546 0.235711)
(-0.334714 0.236051 0.318063)
(-0.309579 0.204774 0.2902)
(-0.364825 0.224497 0.355944)
(-0.257799 0.120774 0.223469)
(-0.34897 0.184801 0.318707)
(-0.304039 0.153917 0.26948)
(-0.45122 0.728238 0.449921)
(-0.444545 0.75153 0.544629)
(-0.427581 0.777762 0.504216)
(-0.440765 0.739723 0.467765)
(-0.446329 0.724006 0.499735)
(-0.475549 0.738738 0.482826)
(-0.432585 0.738382 0.535129)
(-0.444441 0.735237 0.544284)
(-0.449871 0.743271 0.557071)
(-0.447624 0.730637 0.577693)
(-0.450128 0.752264 0.586989)
(-0.429781 0.758674 0.549653)
(-0.450745 0.741645 0.539297)
(-0.455299 0.751817 0.576599)
(-0.448115 0.754078 0.561809)
(-0.453791 0.727422 0.599642)
(-0.456402 0.749324 0.602773)
(-0.447053 0.727226 0.596371)
(-0.459583 0.748413 0.587421)
(-0.454073 0.753992 0.598588)
(-0.453735 0.738651 0.548739)
(-0.454544 0.75303 0.581038)
(-0.425852 0.625037 0.662897)
(-0.41576 0.634034 0.647532)
(-0.455835 0.605352 0.722585)
(-0.467093 0.618588 0.719567)
(-0.468086 0.652154 0.713942)
(-0.46621 0.643468 0.716527)
(-0.47044 0.610582 0.727836)
(-0.496805 0.611791 0.729391)
(-0.41044 0.624172 0.664019)
(-0.405768 0.62382 0.645924)
(-0.478534 0.639099 0.711843)
(-0.497719 0.647264 0.705167)
(-0.508679 0.633941 0.720482)
(-0.478521 0.625422 0.72259)
(-0.504181 0.650534 0.70623)
(-0.502968 0.643725 0.701362)
(-0.477511 0.642032 0.693418)
(-0.437693 0.62738 0.664149)
(-0.425284 0.619037 0.669923)
(-0.457964 0.627144 0.675879)
(-0.556107 0.639929 0.711694)
(-0.534112 0.642503 0.712403)
(-0.560451 0.598987 0.62469)
(-0.557404 0.597842 0.635748)
(-0.560049 0.605781 0.633431)
(-0.571975 0.6239 0.699789)
(-0.563179 0.620495 0.698529)
(-0.552783 0.64056 0.698686)
(-0.543492 0.657985 0.722207)
(-0.555521 0.647351 0.723521)
(-0.5574 0.601424 0.629444)
(-0.565308 0.599288 0.630979)
(-0.535236 0.64561 0.673858)
(-0.537238 0.654839 0.680687)
(-0.529586 0.665808 0.702568)
(-0.563564 0.626337 0.631058)
(-0.548367 0.633629 0.646501)
(-0.54286 0.665707 0.710493)
(-0.544716 0.662571 0.713927)
(-0.577448 0.62067 0.689432)
(-0.581443 0.630045 0.679259)
(-0.550201 0.626009 0.667606)
(-0.54799 0.647941 0.699857)
(-0.566674 0.642794 0.668734)
(-0.456488 0.647903 0.666887)
(-0.463627 0.653839 0.657469)
(-0.417596 0.634915 0.634433)
(-0.418828 0.64175 0.632508)
(-0.463521 0.630095 0.673908)
(-0.487081 0.643355 0.676796)
(-0.437807 0.664467 0.639748)
(-0.386715 0.609434 0.564755)
(-0.399372 0.606417 0.59664)
(-0.454314 0.629096 0.657439)
(-0.492301 0.645689 0.670034)
(-0.489943 0.64727 0.666775)
(-0.436708 0.659352 0.60773)
(-0.413705 0.649862 0.590401)
(-0.437575 0.627058 0.605249)
(-0.476188 0.672528 0.641377)
(-0.462294 0.642174 0.643582)
(-0.417025 0.636402 0.610545)
(-0.467573 0.648701 0.645102)
(-0.410226 0.643321 0.613734)
(-0.578618 0.631543 0.634755)
(-0.580735 0.637294 0.63948)
(-0.589906 0.62271 0.653349)
(-0.574233 0.607201 0.670898)
(-0.575035 0.601497 0.671825)
(-0.55811 0.60398 0.693094)
(-0.542073 0.591738 0.641124)
(-0.5462 0.591578 0.661621)
(-0.558071 0.593539 0.697589)
(-0.559217 0.593841 0.706692)
(-0.511931 0.597287 0.550161)
(-0.519366 0.58585 0.553004)
(-0.570885 0.617943 0.563148)
(-0.57892 0.605678 0.654883)
(-0.549528 0.607846 0.548192)
(-0.535151 0.568384 0.544137)
(-0.555018 0.595627 0.563749)
(-0.595204 0.690305 0.687328)
(-0.580592 0.692597 0.685953)
(-0.573432 0.722331 0.717918)
(-0.588701 0.715203 0.728564)
(-0.575241 0.711222 0.705265)
(-0.593096 0.71309 0.710117)
(-0.599228 0.689349 0.699698)
(-0.572148 0.704035 0.701812)
(-0.608649 0.672392 0.686409)
(-0.587812 0.688284 0.690486)
(-0.573502 0.699189 0.687089)
(-0.597733 0.698188 0.71577)
(-0.57141 0.685464 0.708052)
(-0.583223 0.708083 0.733874)
(-0.571942 0.698588 0.715951)
(-0.585775 0.714543 0.722276)
(-0.587971 0.699968 0.72901)
(-0.0103095 -0.00689913 0.012873)
(-0.0050051 0.0090635 0.0234349)
(0.00778412 0.0136349 0.0245517)
(0.0126578 -0.00949777 0.00186573)
(0.0169696 -0.00597734 0.00631137)
(-0.0293717 0.0404249 0.0628191)
(-0.0343756 0.0367581 0.0633817)
(0.00667233 0.0185493 0.0227843)
(0.00423468 -0.00875143 0.00471611)
(-0.0288667 0.0149345 0.0351681)
(-0.0389862 0.0796853 0.104095)
(-0.0103365 0.0567042 0.0710412)
(-0.0325905 0.0671098 0.0873851)
(-0.0430622 0.0922013 0.109937)
(-0.0511703 0.107539 0.119364)
(-0.00653367 0.0759027 0.0788088)
(-0.481416 0.689586 0.403992)
(-0.497881 0.698862 0.458872)
(-0.533674 0.684884 0.456182)
(-0.540816 0.699118 0.554249)
(-0.554465 0.708719 0.539338)
(-0.530001 0.701301 0.46382)
(-0.551613 0.678486 0.473224)
(-0.459706 0.717003 0.443082)
(-0.454057 0.702102 0.406485)
(-0.455559 0.70657 0.435755)
(-0.414143 0.728774 0.407248)
(-0.484965 0.721718 0.454394)
(-0.5269 0.700833 0.482325)
(-0.469344 0.697 0.486448)
(-0.560252 0.692401 0.523572)
(-0.497312 0.713894 0.46249)
(-0.43558 0.725685 0.450299)
(-0.519491 0.706015 0.503221)
(-0.511625 0.699025 0.491757)
(-0.482173 0.702622 0.464431)
(-0.524004 0.716435 0.507327)
(-0.339429 0.912072 -0.0553553)
(-0.336377 0.883932 0.0426313)
(-0.396719 0.840628 0.0492528)
(-0.35951 0.830901 0.0936863)
(-0.305378 0.719492 0.0816576)
(-0.299828 0.772762 -0.0344476)
(-0.334263 0.709406 -0.0646165)
(-0.285304 0.630356 -0.0204211)
(-0.298758 0.908209 -0.0195543)
(-0.302635 0.839471 -0.0260845)
(-0.339772 0.874253 0.0545536)
(-0.340163 0.789654 0.05709)
(-0.325378 0.701137 -0.0229981)
(-0.280257 0.597136 -0.0489562)
(-0.287432 0.710052 0.070856)
(-0.296866 0.659567 -0.100465)
(-0.303829 0.825444 -0.083283)
(-0.224505 0.584165 0.00193618)
(-0.236253 0.538071 -0.0307323)
(-0.226147 0.592306 -0.090383)
(-0.239289 0.565878 -0.0618122)
(-0.465316 0.531594 0.678099)
(-0.45212 0.473416 0.713085)
(-0.560014 0.555292 0.72318)
(-0.570599 0.558129 0.739534)
(-0.531249 0.549409 0.722522)
(-0.496258 0.513276 0.733703)
(-0.469703 0.525151 0.696334)
(-0.477621 0.549857 0.686151)
(-0.501744 0.557563 0.661611)
(-0.561442 0.559871 0.727186)
(-0.556194 0.563973 0.673359)
(-0.535107 0.525093 0.733011)
(-0.559929 0.561646 0.68509)
(-0.558941 0.56631 0.674129)
(-0.516501 0.537455 0.72369)
(-0.49718 0.538849 0.683629)
(-0.481993 0.531518 0.549637)
(-0.467803 0.526656 0.601159)
(-0.535161 0.562987 0.595115)
(-0.512044 0.546573 0.575955)
(-0.543755 0.567833 0.628304)
(-0.218071 0.31022 0.275355)
(-0.264317 0.375043 0.324485)
(-0.277173 0.37762 0.384248)
(-0.187977 0.218791 0.24223)
(-0.271294 0.372693 0.34401)
(-0.326379 0.458097 0.421993)
(-0.180685 0.259707 0.251577)
(-0.255553 0.357744 0.333048)
(-0.187131 0.266778 0.275628)
(-0.175653 0.234767 0.225432)
(-0.167046 0.202054 0.193691)
(-0.183303 0.191078 0.17243)
(-0.180532 0.217049 0.218205)
(-0.117348 0.138953 0.158813)
(-0.271758 0.383412 0.380526)
(-0.161867 0.21794 0.232584)
(-0.158615 0.190146 0.174071)
(-0.130926 0.119764 0.138364)
(-0.121904 0.13604 0.170417)
(-0.117906 0.116984 0.145757)
(-0.161361 0.5965 -0.341155)
(-0.166573 0.555749 -0.278035)
(-0.170751 0.567902 -0.303141)
(-0.196499 0.578936 -0.322052)
(-0.207808 0.604718 -0.339678)
(-0.251422 0.710636 -0.224288)
(-0.261235 0.731297 -0.150214)
(-0.243812 0.733954 -0.209581)
(-0.272302 0.733856 -0.128256)
(-0.232708 0.630172 -0.283011)
(-0.219182 0.607578 -0.24445)
(-0.23186 0.700561 -0.24445)
(-0.221381 0.687109 -0.225913)
(-0.214902 0.671114 -0.2662)
(-0.330415 0.463818 0.485544)
(-0.385618 0.513987 0.569475)
(-0.355278 0.464465 0.530527)
(-0.283451 0.407386 0.416268)
(-0.288161 0.402628 0.409055)
(-0.331737 0.494406 0.456515)
(-0.421312 0.576842 0.594423)
(-0.457086 0.596142 0.667939)
(-0.296375 0.410277 0.415231)
(-0.471176 0.578287 0.656751)
(-0.333765 0.476496 0.446408)
(-0.387286 0.495191 0.571787)
(-0.392811 0.489011 0.564784)
(-0.319106 0.491708 0.437034)
(-0.442281 0.582002 0.620014)
(-0.365504 0.471602 0.506696)
(-0.301077 0.387846 0.406331)
(-0.421978 0.549055 0.583051)
(-0.339115 0.430894 0.478086)
(-0.327568 0.405902 0.398987)
(-0.340573 0.44745 0.448178)
(-0.464637 0.544865 0.676312)
(-0.387913 0.519871 0.532825)
(-0.335028 0.444616 0.497475)
(-0.38956 0.476747 0.504486)
(-0.33523 0.404738 0.417991)
(-0.32203 0.402779 0.401143)
(-0.339598 0.420593 0.488895)
(-0.407926 0.489594 0.594674)
(-0.403248 0.520586 0.539691)
(-0.254225 0.343831 0.379984)
(-0.430498 0.511815 0.587103)
(-0.414101 0.490976 0.548409)
(-0.302301 0.56157 -0.0394366)
(-0.323859 0.579448 0.0875123)
(-0.314176 0.588004 -0.00461209)
(-0.293248 0.632465 0.0866751)
(-0.318338 0.689594 0.104957)
(-0.331564 0.682064 0.136347)
(-0.314394 0.673823 0.147831)
(-0.343925 0.645351 0.127375)
(-0.322434 0.663095 0.106889)
(-0.352301 0.626488 0.0736335)
(-0.314365 0.601142 -0.0202639)
(-0.319187 0.586104 0.0508761)
(-0.352889 0.593157 0.0334366)
(-0.305884 0.603852 0.0966153)
(-0.27531 0.619107 0.042634)
(-0.341281 0.647501 0.140908)
(-0.3705 0.609601 0.0711701)
(-0.371626 0.561763 0.0849119)
(-0.366907 0.568429 0.0874243)
(-0.498679 0.537223 0.6028)
(-0.531397 0.585947 0.606947)
(-0.539337 0.602302 0.65536)
(-0.541883 0.594715 0.652954)
(-0.429959 0.532138 0.499504)
(-0.573109 0.571337 0.599879)
(-0.499355 0.544637 0.561504)
(-0.492082 0.54623 0.534972)
(-0.489056 0.530978 0.524832)
(-0.542832 0.600554 0.697267)
(-0.551511 0.59858 0.632855)
(-0.519635 0.583186 0.648987)
(-0.56364 0.593216 0.615495)
(-0.508042 0.539688 0.598203)
(-0.550527 0.5903 0.628977)
(-0.556814 0.5962 0.669711)
(-0.555858 0.599615 0.62812)
(-0.454319 0.50566 0.523971)
(-0.533353 0.578089 0.65647)
(-0.490667 0.53574 0.619571)
(-0.427421 0.287631 0.290696)
(-0.387551 0.219171 0.249302)
(-0.186731 0.110208 0.0985939)
(-0.214683 0.112355 0.119211)
(-0.281822 0.194611 0.154668)
(-0.337418 0.206616 0.198281)
(-0.35142 0.271675 0.209221)
(-0.481835 0.336937 0.361769)
(-0.426472 0.273293 0.293351)
(-0.170046 0.0955668 0.0889659)
(-0.155923 0.0962298 0.0850794)
(-0.272009 0.150788 0.15904)
(-0.304442 0.179026 0.1855)
(-0.375342 0.219242 0.253638)
(-0.211014 0.143072 0.109022)
(-0.30188 0.269159 0.227681)
(-0.367392 0.344336 0.293326)
(-0.413508 0.274607 0.306676)
(-0.282033 0.31011 0.187655)
(-0.355255 0.308626 0.246981)
(-0.244926 0.182326 0.169731)
(-0.134266 0.132042 0.074067)
(-0.186689 0.191476 0.138908)
(-0.244407 0.243362 0.181504)
(-0.354298 0.358116 0.278563)
(-0.154491 0.121795 0.0761276)
(-0.180361 0.643586 -0.407463)
(-0.194315 0.606849 -0.407865)
(-0.218684 0.654029 -0.315985)
(-0.22547 0.630624 -0.307672)
(-0.206323 0.648781 -0.395095)
(-0.192902 0.627045 -0.469373)
(-0.298261 0.710038 -0.196355)
(-0.2917 0.685179 -0.199577)
(-0.280107 0.661187 -0.159944)
(-0.272458 0.687139 -0.179391)
(-0.34051 0.615331 -0.138394)
(-0.344065 0.669063 -0.159659)
(-0.290928 0.643314 -0.285971)
(-0.231824 0.648687 -0.338455)
(-0.266383 0.680074 -0.262897)
(-0.305611 0.685245 -0.169377)
(-0.226192 0.675034 -0.351174)
(-0.293737 0.691753 -0.238294)
(-0.308342 0.465772 0.375841)
(-0.327896 0.475097 0.388711)
(-0.370478 0.650295 0.361004)
(-0.346955 0.624026 0.394864)
(-0.345201 0.578196 0.291644)
(-0.313209 0.520934 0.265915)
(-0.351161 0.508094 0.445897)
(-0.234458 0.371994 0.272882)
(-0.269089 0.420008 0.277116)
(-0.290584 0.516156 0.288476)
(-0.367475 0.591911 0.454074)
(-0.356753 0.568905 0.464053)
(-0.273929 0.419605 0.301103)
(-0.325851 0.486492 0.396928)
(-0.380768 0.597316 0.491523)
(-0.340442 0.556911 0.401473)
(-0.386794 0.62198 0.546307)
(-0.298293 0.507774 0.311981)
(-0.520747 0.611962 0.729023)
(-0.524214 0.601777 0.730795)
(-0.506856 0.619918 0.725598)
(-0.512867 0.630784 0.726784)
(-0.556138 0.620672 0.73864)
(-0.573464 0.606438 0.732844)
(-0.582712 0.627931 0.732667)
(-0.586501 0.619355 0.748744)
(-0.508974 0.617581 0.697482)
(-0.544365 0.617634 0.714501)
(-0.583082 0.612017 0.720957)
(-0.54829 0.640466 0.717437)
(-0.546143 0.614489 0.729131)
(-0.54861 0.636588 0.720668)
(-0.556383 0.614896 0.72392)
(-0.524166 0.628639 0.728706)
(-0.566411 0.613565 0.743721)
(-0.55204 0.62202 0.738612)
(-0.517524 0.627932 0.719622)
(-0.574632 0.632125 0.719037)
(-0.494415 0.613112 0.718864)
(-0.477288 0.605929 0.701338)
(-0.202936 0.647029 -0.164114)
(-0.207292 0.672765 -0.152778)
(-0.219175 0.661099 -0.116456)
(-0.244293 0.677493 -0.107767)
(-0.240191 0.675 -0.101248)
(-0.24132 0.671232 -0.0796033)
(-0.249913 0.676362 -0.0620896)
(-0.210171 0.663041 -0.125031)
(-0.203256 0.655235 -0.152697)
(-0.224458 0.672211 -0.120596)
(-0.233705 0.650676 -0.132482)
(-0.378523 0.462417 0.586758)
(-0.411639 0.491381 0.658213)
(-0.437797 0.465926 0.67855)
(-0.43629 0.499751 0.701227)
(-0.389576 0.503343 0.636952)
(-0.357464 0.48812 0.588528)
(-0.380622 0.454686 0.579969)
(-0.456119 0.533331 0.741057)
(-0.453884 0.524486 0.737349)
(-0.327764 0.452429 0.523941)
(-0.363775 0.486869 0.589318)
(-0.441004 0.540277 0.706634)
(-0.433148 0.517605 0.695996)
(-0.379932 0.483674 0.597821)
(-0.414162 0.557591 0.665834)
(-0.437312 0.574432 0.701716)
(-0.434173 0.552444 0.697734)
(-0.39909 0.525384 0.638217)
(-0.458886 0.674279 0.625994)
(-0.428754 0.666766 0.63208)
(-0.494443 0.677968 0.650262)
(-0.40169 0.664623 0.628813)
(-0.425172 0.691459 0.622233)
(-0.442896 0.683206 0.620422)
(-0.511085 0.681582 0.643617)
(-0.505205 0.679746 0.641244)
(-0.425302 0.687789 0.582191)
(-0.439434 0.683384 0.59283)
(-0.407611 0.658783 0.590079)
(-0.275925 0.603779 -0.0832113)
(-0.297046 0.601865 -0.083654)
(-0.309208 0.552707 -0.107076)
(-0.331914 0.587027 -0.0699318)
(-0.283554 0.556417 -0.0528127)
(-0.297031 0.558861 -0.0662124)
(-0.293703 0.554438 -0.0165922)
(-0.299364 0.562551 0.0085872)
(-0.307778 0.561559 -0.0347899)
(-0.103419 0.724577 -0.560104)
(-0.188509 0.800292 -0.506664)
(-0.11551 0.695554 -0.677062)
(-0.0941699 0.602159 -0.702657)
(-0.1358 0.772204 -0.524292)
(-0.179527 0.811559 -0.511355)
(-0.225047 0.780874 -0.531765)
(-0.115609 0.657314 -0.583328)
(-0.117648 0.641999 -0.630888)
(-0.142221 0.669341 -0.715442)
(-0.150212 0.804943 -0.595315)
(-0.100158 0.667939 -0.612673)
(-0.0860176 0.716097 -0.622605)
(-0.129242 0.734835 -0.648095)
(-0.56427 0.687324 0.560006)
(-0.572237 0.665668 0.571782)
(-0.546777 0.68611 0.573024)
(-0.549897 0.688331 0.581299)
(-0.51484 0.709696 0.531019)
(-0.533121 0.70999 0.551215)
(-0.527192 0.700245 0.540893)
(-0.548993 0.694393 0.543797)
(-0.565298 0.674939 0.551778)
(-0.551773 0.684168 0.543705)
(-0.559667 0.684512 0.597374)
(-0.566396 0.679397 0.587451)
(-0.564213 0.679339 0.575172)
(-0.590963 0.680946 0.621754)
(-0.571107 0.667798 0.602655)
(-0.549086 0.701135 0.566035)
(-0.581618 0.690958 0.62193)
(-0.562643 0.661389 0.611902)
(-0.573243 0.668795 0.611996)
(-0.557484 0.665896 0.591721)
(-0.568745 0.690003 0.571859)
(-0.575113 0.683584 0.602222)
(-0.557438 0.680385 0.579906)
(-0.587792 0.676715 0.616268)
(-0.371305 0.664567 0.177461)
(-0.37169 0.679544 0.162108)
(-0.374355 0.674611 0.220638)
(-0.395262 0.672845 0.192279)
(-0.363594 0.699523 0.182065)
(-0.388204 0.701207 0.206161)
(-0.406834 0.710724 0.187946)
(-0.390255 0.700415 0.140316)
(-0.350503 0.666031 0.162749)
(-0.391484 0.718623 0.234022)
(-0.405721 0.703437 0.255558)
(-0.360998 0.678459 0.221505)
(-0.363948 0.694099 0.215276)
(-0.368248 0.704225 0.171471)
(-0.385973 0.692735 0.191673)
(-0.366173 0.699399 0.172568)
(-0.370215 0.692512 0.138368)
(-0.381796 0.721644 0.217523)
(-0.420222 0.698712 0.243095)
(-0.373228 0.701997 0.206248)
(-0.372829 0.692368 0.149902)
(-0.365685 0.703648 0.169762)
(-0.398942 0.700197 0.170551)
(-0.385427 0.708517 0.198007)
(-0.409971 0.708842 0.200151)
(-0.467847 0.561143 0.742342)
(-0.471542 0.520652 0.759446)
(-0.465376 0.56554 0.73458)
(-0.450452 0.601959 0.703971)
(-0.420047 0.598196 0.640113)
(-0.439962 0.595384 0.671229)
(-0.437879 0.553658 0.685707)
(-0.455474 0.590321 0.711176)
(-0.482217 0.500788 0.72596)
(-0.503475 0.472158 0.741756)
(-0.424249 0.589119 0.651213)
(-0.454434 0.527023 0.703749)
(-0.481868 0.501993 0.714709)
(-0.399848 0.555219 0.593919)
(-0.419242 0.565875 0.620397)
(-0.46895 0.538293 0.706465)
(-0.348492 0.682495 0.162306)
(-0.356795 0.697712 0.216485)
(-0.352729 0.669485 0.184058)
(-0.339286 0.744203 0.242736)
(-0.358751 0.749883 0.230702)
(-0.328435 0.68452 0.161479)
(-0.327388 0.709267 0.20241)
(-0.337306 0.744424 0.272333)
(-0.327361 0.722742 0.202175)
(-0.357975 0.733212 0.216233)
(-0.361628 0.749032 0.244408)
(-0.340417 0.691898 0.218613)
(-0.319542 0.718509 0.179059)
(-0.317358 0.717666 0.186531)
(-0.318925 0.7202 0.190797)
(-0.618318 0.672356 0.921576)
(-0.623452 0.676457 0.917896)
(-0.577922 0.637842 0.889255)
(-0.578677 0.641961 0.891229)
(-0.574198 0.670313 0.890741)
(-0.589329 0.627679 0.895577)
(-0.593193 0.633811 0.899683)
(-0.591023 0.673535 0.906924)
(-0.595791 0.649838 0.905149)
(-0.605759 0.663095 0.921283)
(0.0226899 -0.0462963 -0.0325049)
(0.0246548 -0.0532997 -0.0445694)
(0.0124081 -0.0408918 -0.0105162)
(0.0249413 -0.0470659 -0.0348844)
(0.037258 -0.0463754 -0.0379353)
(0.0363788 -0.0554881 -0.0454546)
(0.0158061 -0.051668 -0.0329809)
(0.0173026 -0.053974 -0.0390071)
(-0.00831869 -0.0431532 -0.0165216)