/*--------------------------------*- C++ -*----------------------------------*\
| =========                 |                                                 |
| \\      /  F ield         | OpenFOAM: The Open Source CFD Toolbox           |
|  \\    /   O peration     | Version:  v1612+                                |
|   \\  /    A nd           | Web:      www.OpenFOAM.com                      |
|    \\/     M anipulation  |                                                 |
\*---------------------------------------------------------------------------*/
FoamFile
{
    version     2.0;
    format      ascii;
    class       volVectorField;
    location    "150";
    object      wallShearStress;
}
// * * * * * * * * * * * * * * * * * * * * * * * * * * * * * * * * * * * * * //

dimensions      [0 2 -2 0 0 0 0];

internalField   uniform (0 0 0);

boundaryField
{
    WALL
    {
        type            calculated;
        value           nonuniform List<vector> 
1656
(
(0.00432066 -0.0258057 -0.0135071)
(0.00496962 -0.0238836 -0.0147878)
(-0.00194254 0.0018545 0.00078208)
(0.000800866 -0.000547318 -0.000514471)
(0.019316 -0.0317308 -0.0271073)
(0.0206437 -0.0305902 -0.0255814)
(9.0779e-05 0.00146028 0.001093)
(0.00153151 0.00127058 -1.99714e-05)
(0.00652457 0.000647758 -0.00510737)
(0.00986954 -0.00071958 -0.00984248)
(0.0166164 -0.0182525 -0.0232454)
(0.018148 -0.0158131 -0.0227085)
(0.0156551 -0.0148624 -0.0204906)
(0.0164495 -0.0273461 -0.0328716)
(0.0165998 -0.0262852 -0.0336217)
(-0.0132771 -0.0710651 0.0203789)
(0.0208309 -0.0017426 -0.0212)
(0.012562 -0.00162407 -0.0107786)
(0.0226074 -0.0186746 -0.0286448)
(0.022383 -0.0189565 -0.026865)
(0.0293121 -0.0229784 -0.0295245)
(0.0256413 -0.0251397 -0.0288451)
(0.0251542 -0.0190761 -0.0274659)
(0.0233201 -0.0237796 -0.0306855)
(0.0129263 -0.0281823 -0.0263157)
(0.00696116 -0.0233745 -0.023269)
(0.00500116 -0.0246145 -0.00573409)
(0.00211361 -0.022886 -0.00744542)
(0.00365491 -0.0112411 -0.0220993)
(0.00322453 -0.0110353 -0.0153289)
(0.000331352 -0.00117232 -0.00251408)
(0.0182012 -0.0204447 -0.0349001)
(0.0171409 -0.0195848 -0.0356799)
(0.0175296 -0.0157091 -0.0370216)
(0.01711 -0.0170443 -0.0353582)
(0.0163177 -0.0177965 -0.037017)
(0.0180032 -0.0148851 -0.0385104)
(0.0188573 -0.0177222 -0.0389285)
(0.0166755 -0.02 -0.0281088)
(0.0178061 -0.020744 -0.029221)
(0.0166752 -0.0194089 -0.0261573)
(0.0161509 -0.0202901 -0.027712)
(0.016548 -0.0197033 -0.0265657)
(0.0176559 -0.0213842 -0.0290601)
(0.0184995 -0.0138602 -0.0256195)
(0.01962 -0.0155791 -0.0285067)
(0.0197227 -0.0175202 -0.026271)
(0.0196998 -0.0142149 -0.0297276)
(0.0196424 -0.0139724 -0.0286591)
(0.0196988 -0.0162663 -0.0273167)
(0.0192449 -0.0231239 -0.0289494)
(0.0173359 -0.0198118 -0.0250358)
(0.0158112 -0.0214614 -0.0254014)
(0.0210059 -0.0294298 -0.0348438)
(0.0160725 -0.0253048 -0.0302634)
(0.0214745 -0.029824 -0.0316598)
(0.0192033 -0.0276778 -0.0353077)
(0.0182747 -0.026125 -0.0309223)
(0.0215049 -0.0309645 -0.0363296)
(0.0156681 -0.0212823 -0.0293704)
(0.0174001 -0.0209305 -0.0295998)
(0.0172081 -0.0225554 -0.0299933)
(0.0192593 -0.0228444 -0.0311294)
(0.0191348 -0.0229038 -0.0334458)
(0.0168901 -0.0222141 -0.0285184)
(0.0132377 -0.0274861 -0.0279104)
(0.0142075 -0.0268545 -0.0295714)
(0.0148331 -0.0287111 -0.026851)
(0.0134391 -0.028113 -0.0266776)
(0.0166504 -0.0295228 -0.0290221)
(0.0160567 -0.0291569 -0.0314001)
(0.0193168 -0.0191053 -0.0447484)
(0.0196425 -0.017801 -0.0453593)
(0.0181738 -0.0218681 -0.0429165)
(0.018507 -0.0206747 -0.0408163)
(0.019479 -0.0151577 -0.0465883)
(0.0177282 -0.0227941 -0.0394695)
(0.0219795 -0.0223683 -0.0153599)
(0.0210069 -0.0276789 -0.0179766)
(0.0196328 -0.0202856 -0.0154023)
(0.0223863 -0.0257716 -0.0212651)
(0.0206205 -0.0269449 -0.021841)
(0.0221137 -0.0234442 -0.0169776)
(0.00334433 -0.0228801 -0.0151436)
(-7.5322e-05 -0.0216795 -0.00884197)
(0.00206364 -0.0203258 -0.0122653)
(0.0273147 -0.0247858 -0.0296816)
(0.0262107 -0.0219532 -0.029186)
(0.0254438 -0.0220476 -0.028322)
(0.0276072 -0.0247883 -0.0307437)
(0.0268217 -0.0223836 -0.0283798)
(0.0291198 -0.0261335 -0.0306638)
(0.0238238 -0.024865 -0.0208691)
(0.0268485 -0.0252969 -0.0232105)
(0.0269809 -0.0260076 -0.0247639)
(0.0264555 -0.0259583 -0.0245046)
(0.028354 -0.0247626 -0.0243631)
(0.0251838 -0.0241144 -0.0216649)
(0.0269295 -0.0172284 -0.0329731)
(0.028688 -0.0237305 -0.0370797)
(0.0289985 -0.0236546 -0.0348706)
(0.0273751 -0.0192379 -0.034997)
(0.0288069 -0.0205278 -0.0396437)
(0.0281749 -0.0201058 -0.0327884)
(0.0283596 -0.0245684 -0.031803)
(0.0236728 -0.0164443 -0.0306261)
(0.0238725 -0.0135808 -0.0349662)
(0.0264319 -0.0198042 -0.036064)
(0.0266581 -0.0163274 -0.0353332)
(0.0236843 -0.016807 -0.0320494)
(0.0230415 -0.0138713 -0.0345632)
(0.00176896 -0.0228489 -0.0088827)
(0.00384135 -0.024194 -0.00730468)
(0.00213273 -0.0235786 -0.0115663)
(0.00357732 -0.0248645 -0.0112353)
(0.00454659 -0.0260968 -0.00945816)
(0.00122698 -0.0203747 -0.00551315)
(0.0039228 -0.0118454 0.0022998)
(0.00287874 -0.0140557 0.00159347)
(0.00652406 -0.0156167 0.00185562)
(0.00616253 -0.0153615 0.000880209)
(0.00623643 -0.0139207 0.00247756)
(0.00396446 -0.0160634 0.0011719)
(0.00562236 -0.0157788 0.000794264)
(0.0183884 -0.021194 -0.00538531)
(0.0179505 -0.0214882 -0.00390846)
(0.0202483 -0.0201889 -0.0069789)
(0.0215393 -0.0215375 -0.00879076)
(0.018072 -0.0203273 -0.00422161)
(0.0193404 -0.0210097 -0.00728548)
(0.0180038 -0.0197541 -0.00563407)
(0.0192304 -0.0225836 -0.0101318)
(0.0159901 -0.016768 -0.00596243)
(0.0171385 -0.0185722 -0.00711726)
(0.0223313 -0.0189705 -0.0116899)
(0.0230843 -0.0240721 -0.0142177)
(0.022584 -0.0239727 -0.0145632)
(0.024253 -0.023578 -0.0173626)
(0.0226685 -0.0217752 -0.0142614)
(0.0249274 -0.0233083 -0.0181189)
(0.023908 -0.0223799 -0.0163224)
(0.0217826 -0.0204966 -0.0122537)
(0.0219791 -0.0208852 -0.0114554)
(0.0225699 -0.0207197 -0.0158816)
(0.0232784 -0.0219391 -0.0159165)
(0.0223191 -0.0191652 -0.0144329)
(0.0223232 -0.0201272 -0.0131987)
(0.0177735 -0.0266477 -0.0128228)
(0.0182185 -0.0245814 -0.0111886)
(0.0195782 -0.024678 -0.0122914)
(0.0180734 -0.025207 -0.0111116)
(0.0184606 -0.0265242 -0.0140227)
(0.0184068 -0.0241258 -0.0129356)
(0.0150455 -0.0278476 -0.0128754)
(0.0118837 -0.0261179 -0.0101329)
(0.0138696 -0.0294297 -0.0144359)
(0.0131872 -0.0273898 -0.0106612)
(0.0152787 -0.026461 -0.0106055)
(0.0123724 -0.0269344 -0.0122953)
(0.00588237 -0.0254594 -0.0058917)
(0.00647032 -0.0224847 -0.00598884)
(0.00772128 -0.0234815 -0.00394954)
(0.00505187 -0.0228754 -0.00770871)
(0.0043996 -0.0243236 -0.00781846)
(0.00614084 -0.0249738 -0.00496205)
(0.0106693 -0.0236096 -0.00230576)
(0.00819968 -0.0227889 -0.00147921)
(0.00944576 -0.022477 -0.00110695)
(0.0117058 -0.0231663 -0.00133366)
(0.00931455 -0.0239753 -0.00276647)
(0.00778155 -0.0241707 -0.00287943)
(0.0112046 -0.0299357 -0.0196796)
(0.0117387 -0.028927 -0.0167726)
(0.013015 -0.0294863 -0.0157763)
(0.0141112 -0.0296424 -0.0152031)
(0.0100311 -0.0260182 -0.0157714)
(0.0115903 -0.0275202 -0.0165955)
(0.00728907 -0.0254785 -0.0166723)
(0.00666424 -0.0258257 -0.0159759)
(0.00720517 -0.0243212 -0.0194831)
(0.0111183 -0.0296506 -0.0195685)
(0.00621887 -0.0241065 -0.0163481)
(0.0102224 -0.00915216 -0.037804)
(0.0101312 -0.0107002 -0.0336509)
(0.0107281 -0.00916517 -0.0327937)
(0.012704 -0.00795886 -0.034982)
(0.0164298 -0.0114483 -0.0387989)
(0.0154351 -0.012694 -0.0411337)
(0.0224665 -0.0155747 -0.0315498)
(0.0202641 -0.0139472 -0.0275352)
(0.0225688 -0.0139251 -0.032974)
(0.0220773 -0.0143716 -0.0321911)
(0.0223837 -0.0134568 -0.0303146)
(0.0241326 -0.0172576 -0.0325932)
(0.0243772 -0.01796 -0.0287901)
(0.0232084 -0.0162593 -0.0300925)
(0.0242107 -0.0181335 -0.0295156)
(0.0220327 -0.0188947 -0.0287292)
(0.0216028 -0.0179939 -0.0262257)
(0.0229405 -0.0159541 -0.0290587)
(0.0257474 -0.0167458 -0.036449)
(0.0265545 -0.020157 -0.0362908)
(0.0272605 -0.0179137 -0.0387692)
(0.0280192 -0.0200059 -0.0369089)
(0.026748 -0.015618 -0.0393564)
(0.0277712 -0.0217738 -0.0354275)
(0.0208059 -0.021811 -0.0126302)
(0.0239993 -0.022473 -0.0180953)
(0.0225574 -0.0254655 -0.0182019)
(0.0198703 -0.0215663 -0.0138156)
(0.0206817 -0.0238528 -0.0134964)
(0.0206213 -0.021948 -0.0152185)
(0.0266165 -0.0231967 -0.0260842)
(0.0263618 -0.0267672 -0.0268281)
(0.0282472 -0.0246725 -0.0301155)
(0.0260857 -0.0254301 -0.0281694)
(0.02822 -0.0239585 -0.0289393)
(0.0260827 -0.0264424 -0.0266561)
(0.0256504 -0.0197083 -0.0287235)
(0.0249186 -0.0195819 -0.0288994)
(0.0243591 -0.0208349 -0.0272995)
(0.0257714 -0.0218207 -0.029925)
(0.0248116 -0.0198651 -0.0290092)
(0.0259492 -0.0208995 -0.028794)
(0.0265293 -0.0230293 -0.0317084)
(0.0266517 -0.0217933 -0.0292085)
(0.0279089 -0.0231741 -0.0329144)
(0.0287629 -0.0223952 -0.0310153)
(0.0279357 -0.0228358 -0.031464)
(0.0271069 -0.0239593 -0.0302932)
(0.0263529 -0.0219905 -0.0319764)
(0.0279393 -0.0235372 -0.0336492)
(0.0256145 -0.0236846 -0.0317353)
(0.0289496 -0.0210345 -0.0362313)
(0.0266079 -0.0194847 -0.0315504)
(0.0272339 -0.0204449 -0.0337765)
(0.00128463 -0.0224484 -0.0131913)
(0.000116366 -0.0204481 -0.0103906)
(-0.000605324 -0.0180211 -0.010483)
(-0.00066438 -0.0178027 -0.00845839)
(0.00178754 -0.0205925 -0.0126436)
(0.00258224 -0.02366 -0.0140212)
(0.00343901 -0.0234529 -0.015419)
(0.00432149 -0.0252606 -0.0151893)
(0.00484082 -0.0250515 -0.0121579)
(0.0064695 -0.0251711 -0.0195052)
(0.0057266 -0.0239148 -0.0200394)
(0.0038774 -0.0226899 -0.0170881)
(0.00532361 -0.0245105 -0.01712)
(0.00488711 -0.024813 -0.0181568)
(0.00643135 -0.0233053 -0.0219606)
(0.00791437 -0.0253059 -0.0224618)
(0.00678152 -0.0253579 -0.0189085)
(0.00661532 -0.0253664 -0.0199207)
(0.00753584 -0.0233762 -0.0247153)
(0.00944683 -0.0260681 -0.025037)
(0.0256296 -0.0220117 -0.0408581)
(0.0252355 -0.0179834 -0.0377583)
(0.0237811 -0.0174301 -0.0438782)
(0.0259822 -0.0192422 -0.0373806)
(0.0259316 -0.0212221 -0.041455)
(0.0226677 -0.0168829 -0.0439249)
(0.0256422 -0.0248588 -0.0306242)
(0.0246234 -0.0235074 -0.0359617)
(0.0265772 -0.0249036 -0.031189)
(0.0247857 -0.0235433 -0.0344871)
(0.0243457 -0.0203156 -0.0322934)
(0.0234709 -0.0228482 -0.0322571)
(0.0142674 -0.0122308 -0.0408654)
(0.016164 -0.0107086 -0.0425893)
(0.0119064 -0.0124225 -0.0400756)
(0.00918622 -0.0118396 -0.036413)
(0.0136161 -0.0100115 -0.0405876)
(0.0113915 -0.0114065 -0.038884)
(0.0250689 -0.0145845 -0.0421227)
(0.0204389 -0.0124194 -0.0437291)
(0.0254767 -0.0149129 -0.039741)
(0.0244711 -0.0151632 -0.0424231)
(0.0216099 -0.0123923 -0.0432536)
(0.0257394 -0.020121 -0.0440184)
(0.0314945 -0.00305956 -0.0405088)
(0.0259509 0.000962178 -0.0441265)
(0.0293622 -0.00405182 -0.0493372)
(0.0276338 -0.00470911 -0.0499963)
(0.0274276 0.000265931 -0.0398289)
(0.0325513 -0.00141919 -0.0463395)
(0.0265241 -0.00505545 -0.0483701)
(0.0225758 0.000599912 -0.0389698)
(0.0259443 -0.00409276 -0.0437275)
(0.0263411 0.0032811 -0.0366491)
(0.0210534 0.00112498 -0.0314223)
(0.0223189 -0.000469015 -0.029668)
(0.0268573 -0.00100486 -0.0434913)
(-0.00327433 0.00362073 0.00390962)
(-0.0034951 0.00349448 0.00395473)
(-0.0032805 0.00338011 0.00369329)
(-0.00369378 0.00365017 0.00410725)
(-0.00345096 0.00364807 0.00387473)
(-0.00355255 0.00395273 0.00430288)
(0.00674862 -0.000505318 -0.00524175)
(0.00154859 0.000889466 -0.000153896)
(0.00500248 -0.000115215 -0.00351328)
(0.00288887 0.000490893 -0.00130124)
(0.0028997 4.01635e-05 -0.00164981)
(0.00567842 -0.000314895 -0.00407553)
(0.000106753 -0.00292845 -0.00523225)
(0.000165425 -0.004396 -0.00804068)
(0.000735521 -0.00444607 -0.00738014)
(0.00128422 -0.00711219 -0.0156614)
(0.00181174 -0.00668529 -0.0124011)
(0.00182994 -0.00694027 -0.0124561)
(-0.00417935 0.00757812 0.00429837)
(-0.00168686 0.00653288 0.00437073)
(-0.00284865 0.00467243 0.00347038)
(0.00243452 -0.0147154 0.0048431)
(-0.00426482 0.00918441 0.00323589)
(-0.00730593 0.000353606 -0.000192108)
(-0.00649025 0.0134953 0.00614679)
(0.0335301 -0.00714787 -0.0544845)
(0.0321986 -0.010041 -0.0541397)
(0.028877 -0.0089468 -0.0513242)
(0.0336843 -0.00307744 -0.046799)
(0.0370599 -0.00650661 -0.0469412)
(0.0375769 -0.0109466 -0.0516728)
(0.0285768 -0.0217506 -0.0444539)
(0.0274562 -0.0200352 -0.0459348)
(0.0315521 -0.0210461 -0.0434253)
(0.0349774 -0.0172808 -0.0471198)
(0.0293488 -0.0138296 -0.0475812)
(0.0374067 -0.0188813 -0.0470316)
(0.0228049 -0.00469403 -0.0210705)
(0.0313519 -0.00867389 -0.0271663)
(0.0322486 -0.00429938 -0.0354529)
(0.0269549 -0.00667746 -0.0226295)
(0.0284994 -0.00255981 -0.0288535)
(0.0325417 -0.00698532 -0.0333579)
(0.0221982 -0.000717908 -0.0247716)
(0.0180067 -0.00380656 -0.0154609)
(0.018654 2.16508e-05 -0.0192977)
(0.0197663 -0.00190668 -0.0177797)
(0.0168201 -0.0017552 -0.0147714)
(0.0249958 -0.00270289 -0.0264157)
(0.00323856 0.000127739 -0.00185314)
(0.00144305 0.000762346 -0.00042516)
(0.00332918 0.000326974 -0.00182387)
(0.00823931 -0.00135332 -0.00653646)
(0.00592638 -0.000737007 -0.00430622)
(0.00792169 -0.00173392 -0.00584464)
(0.0412423 -0.0136744 -0.0406473)
(0.0393283 -0.0133074 -0.0417403)
(0.0364042 -0.0133513 -0.0306498)
(0.0398498 -0.0191312 -0.0306734)
(0.045362 -0.0260457 -0.034437)
(0.0417088 -0.0166583 -0.0418068)
(0.0401981 -0.025806 -0.0378969)
(0.0353962 -0.0319897 -0.0325343)
(0.0374255 -0.0285566 -0.0303774)
(0.0445673 -0.03174 -0.0329092)
(0.0448911 -0.0369289 -0.0305193)
(0.0372444 -0.026542 -0.0387426)
(0.0188332 -0.0241544 -0.0308516)
(0.0156914 -0.0238245 -0.0304326)
(0.0180031 -0.0237571 -0.0341689)
(0.0217484 -0.0226135 -0.0378994)
(0.0242333 -0.0270484 -0.0320941)
(0.0267665 -0.0236309 -0.0371258)
(0.00805959 -0.0228778 -0.0256095)
(0.0128328 -0.0226807 -0.0321565)
(0.0117897 -0.0254924 -0.0282712)
(0.00952477 -0.0253346 -0.0255126)
(0.0109283 -0.0232931 -0.0269906)
(0.0186746 -0.0262212 -0.0263327)
(0.024308 -0.0297481 -0.0275379)
(0.0162824 -0.0289879 -0.0221384)
(0.0281735 -0.0297209 -0.0271169)
(0.00680785 -0.0247906 -0.0188091)
(0.00970715 -0.027774 -0.0171503)
(0.0231233 -0.0208809 -0.0183513)
(0.0225513 -0.0223792 -0.0218168)
(0.0232734 -0.0196956 -0.0207057)
(0.0237525 -0.0204461 -0.0237793)
(0.0230936 -0.0216164 -0.0198908)
(0.022872 -0.0215051 -0.0249399)
(0.0205308 -0.0190375 -0.0104705)
(0.0220642 -0.0189345 -0.0152597)
(0.0219971 -0.018372 -0.0101774)
(0.0207252 -0.0225838 -0.0091067)
(0.0222535 -0.0222042 -0.0135498)
(0.00276762 -0.0125513 -0.0189568)
(0.000781042 -0.00600376 -0.00701512)
(0.000784246 -0.00591276 -0.00885662)
(0.00245896 -0.0116364 -0.0151346)
(0.00193237 -0.00872599 -0.0105652)
(0.0052986 -0.0140788 0.00551895)
(0.00758023 -0.0124498 0.00545433)
(0.00679241 -0.0147633 0.00663239)
(0.00442305 -0.0138258 0.00480324)
(0.00508764 -0.0124361 0.00372832)
(0.00709453 -0.0120428 0.00420783)
(0.0125001 -0.0127144 0.00184549)
(0.0103091 -0.011637 0.00385148)
(0.0110052 -0.0135532 0.00417253)
(0.00925594 -0.012124 0.00355954)
(0.012717 -0.0123152 0.00209912)
(0.0103097 -0.0132786 0.00290945)
(0.0189682 -0.0183029 -0.0030555)
(0.0191856 -0.021372 -0.00523981)
(0.0159212 -0.0153132 -9.55108e-05)
(0.0148212 -0.0158567 0.00323934)
(0.0163633 -0.0167212 0.00167005)
(0.0180119 -0.0169099 -0.000688665)
(0.0153364 -0.0144101 0.00106083)
(0.0140729 -0.0158416 0.00355178)
(0.0149841 -0.028496 -0.0221386)
(0.014259 -0.0294186 -0.0229401)
(0.016427 -0.0306873 -0.0219211)
(0.0142345 -0.0276383 -0.0187789)
(0.0124024 -0.0284049 -0.0223891)
(0.0140776 -0.0300172 -0.024494)
(0.0136195 -0.0233755 -0.0345228)
(0.0171468 -0.024984 -0.037258)
(0.0158484 -0.0266319 -0.0336885)
(0.0179905 -0.0266771 -0.0363685)
(0.016591 -0.0287295 -0.03254)
(0.0162032 -0.0260088 -0.0343983)
(0.0169871 -0.00932311 -0.0317164)
(0.0161006 -0.0126165 -0.0295674)
(0.0167912 -0.0136491 -0.0313794)
(0.0173898 -0.0128347 -0.0328764)
(0.0175735 -0.00936336 -0.033284)
(0.0163336 -0.0107734 -0.0296503)
(0.0184584 -0.0267434 -0.0360449)
(0.0167683 -0.0240039 -0.0371927)
(0.0174448 -0.0232015 -0.0385847)
(0.0195204 -0.0263524 -0.0362769)
(0.0186409 -0.0247962 -0.0366549)
(0.0166465 -0.0246657 -0.0345039)
(0.0184579 -0.0243145 -0.030769)
(0.0195809 -0.0256069 -0.0320784)
(0.0193008 -0.0258131 -0.0349251)
(0.0176792 -0.0253853 -0.0330831)
(0.0211152 -0.0264213 -0.0350714)
(0.0215896 -0.0276549 -0.0340477)
(-0.00282104 0.00313745 0.00352263)
(-0.00256135 0.0033265 0.00388712)
(-0.00287669 0.00351273 0.00397653)
(-0.00209926 0.00255407 0.00306122)
(-0.00219864 0.00287758 0.00347668)
(-0.00231234 0.00263012 0.00303289)
(0.0127424 -0.00866177 -0.0279912)
(0.0115325 -0.00639173 -0.0290712)
(0.0125729 -0.00693384 -0.0295653)
(0.00910247 -0.00620154 -0.0252739)
(0.0100727 -0.00750644 -0.026003)
(0.00773043 -0.00557338 -0.0223425)
(0.000158675 -0.00244936 -0.00576753)
(0.00227866 -0.00455674 -0.010371)
(0.00166784 -0.00345972 -0.0082834)
(0.000556866 -0.00226619 -0.00536111)
(0.00137997 -0.00387063 -0.00902204)
(4.53391e-05 -0.00166236 -0.0040931)
(0.00344732 -0.00487983 -0.015373)
(0.00510057 -0.00579137 -0.0206102)
(0.00557711 -0.00585475 -0.0224814)
(0.00617332 -0.00673645 -0.0191441)
(0.00387761 -0.00537044 -0.0155027)
(0.00258485 -0.00391366 -0.0123087)
(0.00328689 -0.00415677 -0.0115582)
(0.00569591 -0.0055531 -0.0166837)
(0.00510237 -0.00498258 -0.0164504)
(0.00433309 -0.00531185 -0.0136878)
(0.00399872 -0.00476956 -0.0136798)
(0.00624769 -0.00556659 -0.0190087)
(0.00816683 -0.00638019 -0.0195922)
(0.0125271 -0.00818915 -0.0251784)
(0.0111877 -0.00703813 -0.0237817)
(0.00940784 -0.00709751 -0.0220289)
(-0.00122799 0.00151307 0.00186518)
(-0.00153518 0.00221687 0.00278792)
(-0.0012813 0.00157524 0.00185)
(-0.00148625 0.00195242 0.00252462)
(-0.00138489 0.00215007 0.00245213)
(-0.00120617 0.00180045 0.00209574)
(4.03191e-05 -0.00137736 -0.00349058)
(0.00110427 -0.00266792 -0.00742987)
(0.00218881 -0.00365593 -0.00809195)
(0.00208377 -0.00381894 -0.00973984)
(0.00094403 -0.00244612 -0.0056115)
(0.000546486 -0.00194871 -0.00476531)
(-0.000889283 0.00179698 0.0021009)
(-0.000536997 0.0014095 0.00155223)
(-0.000746482 0.0014862 0.00175112)
(0.0176983 -0.0189574 -0.0236552)
(0.0161321 -0.0175625 -0.0219394)
(0.016835 -0.0183324 -0.0232547)
(0.0151769 -0.017942 -0.0219795)
(0.0195745 -0.0185063 -0.0249489)
(0.017879 -0.0186642 -0.0238237)
(0.0188466 -0.0220705 -0.0284)
(0.0169282 -0.0205372 -0.0258592)
(0.0185076 -0.0230938 -0.0299435)
(0.0172025 -0.0215226 -0.0279685)
(0.0177512 -0.0219068 -0.0289886)
(0.0170402 -0.0218775 -0.0283031)
(0.0175493 -0.02257 -0.028381)
(0.0210724 -0.0190372 -0.0258985)
(0.0203385 -0.0180251 -0.0250457)
(0.01992 -0.0210686 -0.0268029)
(0.0233764 -0.0207954 -0.0280364)
(0.0190778 -0.0177765 -0.0244072)
(0.0189752 -0.0200577 -0.0256398)
(0.023532 -0.0238501 -0.0297881)
(0.0236806 -0.019258 -0.0276552)
(0.0233565 -0.0230019 -0.0291852)
(0.0219767 -0.0188846 -0.0250386)
(0.0244084 -0.0221159 -0.0301099)
(0.0208991 -0.0215976 -0.0271733)
(-0.00294118 0.00287983 0.00331385)
(-0.00336691 0.00359113 0.00410003)
(-0.00321686 0.00320168 0.00366132)
(-0.00346172 0.00340902 0.00396501)
(-0.00321183 0.00371329 0.00420173)
(0.00905759 -0.00662016 -0.029181)
(0.0131019 -0.0082945 -0.0336026)
(0.0081274 -0.00647087 -0.0260854)
(0.0117672 -0.00799244 -0.0298992)
(0.00934439 -0.00677949 -0.0296955)
(0.0130026 -0.00742155 -0.0312072)
(0.0238971 -0.0153861 -0.0292635)
(0.0214336 -0.0170986 -0.027886)
(0.0196317 -0.0157806 -0.0262806)
(0.0207695 -0.0182246 -0.0264841)
(0.0218709 -0.0187936 -0.0279058)
(0.0161933 -0.0144614 -0.0278917)
(0.0156362 -0.0119219 -0.0277326)
(0.0165224 -0.0156398 -0.026756)
(0.0151245 -0.0126251 -0.0256854)
(0.0151565 -0.0130947 -0.0274679)
(0.0145867 -0.0111014 -0.0260599)
(0.0163148 -0.0205535 -0.0273015)
(0.0151862 -0.0190277 -0.0259278)
(0.0172271 -0.0228223 -0.0317683)
(0.0191255 -0.0227409 -0.0303488)
(0.0177078 -0.0222807 -0.0292883)
(0.0157715 -0.0203315 -0.0282011)
(0.0150753 -0.0187626 -0.0244039)
(0.0140561 -0.0171253 -0.022202)
(0.0111279 -0.00422321 -0.0141967)
(0.0124608 -0.00398471 -0.016687)
(0.0137919 -0.00568519 -0.0200416)
(0.00464597 -0.00641938 -0.0205681)
(0.00625995 -0.00743758 -0.0236334)
(0.0059862 -0.00833637 -0.024074)
(0.00322297 -0.00641753 -0.0188714)
(0.00296706 -0.00597524 -0.0157718)
(0.00339761 -0.0063296 -0.0180337)
(0.000117374 -0.00238289 -0.0056232)
(0.00188207 -0.00538568 -0.0121637)
(4.08119e-05 -0.00206759 -0.00448023)
(0.00075922 -0.00375636 -0.0069886)
(0.00168417 -0.005586 -0.0113363)
(0.000926049 -0.00378679 -0.00934864)
(0.00629457 -0.011771 -0.0295369)
(0.00378599 -0.00898016 -0.0194304)
(0.00701166 -0.0103606 -0.0302484)
(0.00507302 -0.00820956 -0.024878)
(0.0040187 -0.00811559 -0.0201396)
(0.00412229 -0.0101885 -0.0239147)
(-0.00130405 0.00240125 0.00247702)
(-0.0013669 0.002399 0.00255714)
(-0.00214063 0.00278856 0.00320338)
(-0.00223824 0.00296904 0.00343765)
(-0.0018945 0.00265758 0.00319153)
(-0.0012157 0.00226158 0.00237219)
(0.00151567 8.16441e-05 -0.000757164)
(-3.39656e-05 0.00124252 0.0010316)
(-0.000934002 0.00219667 0.00213709)
(0.000953315 0.000930293 0.00013689)
(0.00201514 0.000159551 -0.00107289)
(0.000769812 0.000688745 0.000199989)
(-0.00286109 0.0032181 0.00378081)
(-0.00299458 0.00324988 0.00397219)
(-0.00342786 0.00372297 0.00421927)
(-0.00354852 0.00364661 0.00411075)
(-0.00327852 0.00392805 0.00436481)
(-0.00292652 0.00353537 0.0041035)
(0.00674402 -0.000451235 -0.00554167)
(0.00336104 0.00100013 -0.00161516)
(0.00513978 0.000448485 -0.00345582)
(0.00340018 0.000802821 -0.00163411)
(0.00223247 0.00119063 -0.000550701)
(0.00560616 0.000581196 -0.00410191)
(0.0185107 -0.0204681 -0.0416008)
(0.0191436 -0.0201446 -0.0396329)
(0.0177621 -0.0161647 -0.0413329)
(0.0192347 -0.0191946 -0.0429151)
(0.0173707 -0.0200796 -0.0390612)
(0.0181859 -0.0142652 -0.0436052)
(0.0167963 -0.0232871 -0.0344668)
(0.0174101 -0.0241402 -0.0348897)
(0.0184113 -0.0239766 -0.0368942)
(0.0177617 -0.0223791 -0.0368981)
(0.0172485 -0.0225475 -0.0332502)
(0.0159688 -0.0199908 -0.0322812)
(0.0170354 -0.0214521 -0.0337318)
(0.021065 -0.00545808 -0.04012)
(0.0200739 -0.0105652 -0.0422287)
(0.0195895 -0.0105845 -0.0438755)
(0.0213611 -0.0082189 -0.0422229)
(0.0192801 -0.0081971 -0.0425548)
(0.0201915 -0.00519771 -0.0427372)
(0.0176663 -0.00915939 -0.0340034)
(0.0172407 -0.0107157 -0.0361178)
(0.0181472 -0.00621992 -0.0374252)
(0.0185959 -0.00759193 -0.0351886)
(0.0183297 -0.0127395 -0.0379418)
(0.0185103 -0.0105089 -0.0383373)
(0.0155412 -0.0255701 -0.0372361)
(0.0152618 -0.0287852 -0.0301493)
(0.013164 -0.0254165 -0.0325981)
(0.0135046 -0.0264689 -0.0305777)
(0.0127596 -0.0240205 -0.0344873)
(0.0149092 -0.0260768 -0.0342745)
(0.0177919 -0.0202123 -0.0432475)
(0.018286 -0.0242149 -0.0413412)
(0.0146162 -0.0192442 -0.0392373)
(0.0167164 -0.0179014 -0.0427942)
(0.0144293 -0.0216699 -0.0386017)
(-0.00615103 -0.0646211 0.00352119)
(0.0132042 -0.04245 -0.0303824)
(0.0103862 -0.0371288 -0.0326767)
(0.0152353 -0.034496 -0.0392799)
(0.0176402 -0.0351166 -0.0364345)
(0.014404 -0.0414218 -0.0398063)
(0.00329876 -0.00538452 0.00118081)
(0.0176011 -0.0125335 -0.00209292)
(0.00810126 -0.00980902 0.00379864)
(0.0252138 -0.0379089 0.0353383)
(0.0256353 -0.0147594 -0.0151577)
(0.0415517 -0.0322329 -0.00783726)
(0.0234166 -0.0212054 -0.0091612)
(0.0345537 -0.0176178 -0.0203391)
(0.0360583 -0.0267242 -0.0173822)
(0.0362933 -0.0280333 -0.00987699)
(-0.00283618 0.0125239 -0.00117551)
(-0.00316752 0.0116456 0.00574541)
(0.000270285 0.00390661 8.3848e-05)
(-0.00318257 -0.0325096 0.0250792)
(-0.00546521 0.00650456 0.00200532)
(-0.00235134 0.00968083 -0.000360589)
(0.0123066 -0.00326636 -0.00955361)
(0.00924319 -0.00886101 -0.00466483)
(0.0135343 -0.00511312 -0.00875577)
(0.00501267 -0.00432893 -0.00210503)
(0.00296527 0.000451629 -0.00219679)
(0.00796803 -0.00290408 -0.00610878)
(0.0124897 -0.0201869 -0.00303947)
(0.0136867 -0.0216193 -0.00203906)
(0.0148444 -0.0193623 -0.00419757)
(0.0136353 -0.0212806 -0.00159594)
(0.0144406 -0.0196019 -0.00296939)
(0.0114737 -0.020886 -0.00230893)
(0.0123152 -0.0184779 -0.00394279)
(0.000975003 0.000257164 -0.000358732)
(-0.00124808 0.00161583 0.00113602)
(-0.00213443 0.00233055 0.00196469)
(-0.00355171 0.0034317 0.00261606)
(-0.00181973 -0.0133899 0.00932307)
(-0.00316315 0.00279315 0.00262379)
(-0.00310104 0.00474947 0.00296501)
(0.0192385 -0.00784329 -0.0141768)
(0.0261439 -0.031406 0.00703475)
(0.0156415 -0.0141227 -0.00534806)
(0.016193 -0.0208659 0.00383359)
(0.00362689 -0.0360094 0.0367474)
(0.0191687 -0.0309275 -0.0256282)
(0.0169792 -0.0386721 -0.0237237)
(0.0158554 -0.0364291 -0.0276951)
(0.0181879 -0.0341961 -0.0273814)
(0.0164834 -0.0308986 -0.031148)
(-0.00315454 -0.0647753 -0.0108406)
(0.00699744 -0.0698907 -0.0153002)
(0.00851159 -0.0377206 -0.0409382)
(0.0111127 -0.0553586 -0.0264637)
(0.0134571 -0.0414263 -0.0429875)
(0.0117281 -0.0493353 -0.0353614)
(0.00132724 -0.0162345 0.00452678)
(0.0195035 -0.0239124 -0.0391601)
(0.0187937 -0.0282292 -0.0273981)
(0.0187173 -0.0314032 -0.0262359)
(0.0182643 -0.0299859 -0.0208437)
(0.0176996 -0.0304158 -0.0243391)
(0.0163454 -0.0283892 -0.0214804)
(0.0147746 -0.0283991 -0.0225305)
(0.0171405 -0.0290527 -0.0243992)
(0.0164807 -0.0297963 -0.0274572)
(-0.000518638 0.00209016 0.00189168)
(0.000243253 0.00164861 0.0011732)
(0.000694076 0.00169418 0.000919333)
(0.00226138 0.00130346 -0.000545228)
(0.00361382 0.000701373 -0.00202507)
(0.0053721 -0.000111913 -0.00430393)
(0.00532801 -0.000535276 -0.00446016)
(-0.00164452 0.00237499 0.00264427)
(-0.00241532 0.00268611 0.00336786)
(0.00279873 0.000459897 -0.00161811)
(0.00404572 -0.000132572 -0.00283856)
(0.000151685 0.00186853 0.00136949)
(0.00313685 -0.00046813 -0.0024329)
(-0.000471319 0.00170235 0.0017515)
(-0.00261421 0.00330154 0.00389628)
(-0.00183237 0.00263057 0.00291678)
(-0.000863879 0.0021657 0.00212876)
(-0.00233389 0.00277465 0.00320868)
(0.00252693 -0.00747945 -0.0144198)
(0.00119983 -0.00439253 -0.0116414)
(0.00276068 -0.00629577 -0.0163265)
(0.00590248 -0.00804429 -0.0279613)
(0.0145057 -0.000827513 -0.0187929)
(0.0115161 -0.000322607 -0.0138011)
(0.00751809 4.81822e-05 -0.00699215)
(0.00897919 -0.000866195 -0.00849187)
(0.00860496 -0.000921294 -0.00907833)
(0.0129902 -0.000482027 -0.0146176)
(0.0185258 -0.0224395 -0.0271933)
(0.016272 -0.0205 -0.0264788)
(0.0159401 -0.0201079 -0.0267015)
(0.0163658 -0.0185387 -0.0256088)
(0.014816 -0.0178713 -0.0274043)
(0.0143464 -0.0178349 -0.0260529)
(0.0167973 -0.0202448 -0.0275425)
(0.0159692 -0.0188328 -0.027451)
(0.017185 -0.021633 -0.0279564)
(0.0178169 -0.0210677 -0.0263504)
(0.0182776 -0.0196139 -0.0272873)
(0.0144326 -0.0153725 -0.024739)
(0.0152141 -0.0159073 -0.0240873)
(0.015794 -0.0103278 -0.0277463)
(0.0143423 -0.0100073 -0.0236133)
(0.0138084 -0.0093349 -0.0221824)
(0.0147968 -0.00639074 -0.0262415)
(0.014787 -0.00885125 -0.0243343)
(0.0143161 -0.00195252 -0.0196969)
(0.0132126 -0.00268075 -0.0179152)
(0.0156556 -0.00572603 -0.0274987)
(0.0143206 -0.00556088 -0.0229531)
(0.0167854 -0.00451301 -0.0252919)
(0.0128462 -0.00378301 -0.0198234)
(0.0127532 -0.00338499 -0.017656)
(0.0147885 -0.00613878 -0.0228515)
(0.0186325 -0.0176995 -0.0252189)
(0.0187186 -0.0172309 -0.0242762)
(-0.000936021 -0.000377871 -0.00142254)
(-0.00140164 -9.80037e-05 -0.00107957)
(-0.000807895 -0.00137199 -0.00268847)
(0.000500879 -0.00357178 -0.00602161)
(-0.00324142 0.00367861 0.00404989)
(-0.00256023 0.00187952 0.00179684)
(-0.00253865 0.00244207 0.00268471)
(-0.00366425 0.00372269 0.00418397)
(0.0193368 -0.0234672 -0.0281228)
(0.0215275 -0.0245148 -0.0298797)
(0.0213838 -0.0259855 -0.0317547)
(0.0206207 -0.024825 -0.0332947)
(0.0183827 -0.0225842 -0.0281415)
(0.0186025 -0.0237786 -0.029372)
(0.0184095 -0.0235498 -0.0306996)
(0.0214428 -0.0263584 -0.0326135)
(0.023233 -0.0265515 -0.0333874)
(0.0213355 -0.0254784 -0.0316437)
(0.020057 -0.0257326 -0.0330362)
(0.0190257 -0.024576 -0.0320513)
(0.0190884 -0.024305 -0.0322232)
(0.020289 -0.025026 -0.0323963)
(0.0204418 -0.0248296 -0.028833)
(0.0209846 -0.0261035 -0.0330436)
(0.0218738 -0.0244833 -0.0291128)
(0.0216307 -0.0247121 -0.0305448)
(0.0193476 -0.0238713 -0.029863)
(0.0192162 -0.0244564 -0.0289305)
(0.0226564 -0.0230553 -0.0287368)
(0.0232482 -0.0256719 -0.0322305)
(0.0241122 -0.0232147 -0.0281873)
(0.0235148 -0.0253169 -0.0301569)
(0.0225463 -0.0211822 -0.0272836)
(0.023401 -0.0244143 -0.0293824)
(0.0241595 -0.0250192 -0.0309627)
(0.0231062 -0.0211852 -0.0264796)
(0.0235635 -0.0238977 -0.0309331)
(0.0226243 -0.0188166 -0.0259488)
(0.0196234 -0.0194568 -0.0254452)
(0.018671 -0.0247463 -0.0292273)
(0.0156736 -0.0166309 -0.0247165)
(0.014097 -0.0160537 -0.0249319)
(0.0163948 -0.0184844 -0.0271322)
(0.0153427 -0.0173348 -0.0274461)
(0.0141245 -0.0167044 -0.0258557)
(0.0151104 -0.0170324 -0.0227209)
(0.014955 -0.0164333 -0.0253772)
(0.0177941 -0.0193628 -0.0240767)
(0.0183666 -0.0193462 -0.0267576)
(0.0178185 -0.018674 -0.0248196)
(0.017383 -0.0186576 -0.0239587)
(0.0179827 -0.0320276 -0.0228263)
(0.018709 -0.0309111 -0.0213392)
(0.020399 -0.0259082 -0.0173652)
(0.0166147 -0.0208509 -0.0274878)
(0.0162354 -0.0201662 -0.0267027)
(0.0192624 -0.0228698 -0.0287961)
(0.0171449 -0.0195563 -0.0236189)
(0.0211877 -0.0230756 -0.0282833)
(0.0211264 -0.0240996 -0.0297615)
(0.0201324 -0.0213324 -0.0268083)
(0.019012 -0.0213438 -0.0257901)
(0.0188512 -0.0214041 -0.0263078)
(0.01975 -0.0221046 -0.0266861)
(0.0183839 -0.0210195 -0.0264377)
(0.0187614 -0.0215054 -0.0277266)
(0.0188558 -0.0200039 -0.0250734)
(0.0190719 -0.01985 -0.0250459)
(0.0188482 -0.0192237 -0.0241926)
(0.0195859 -0.0197135 -0.0253309)
(0.0195015 -0.0211053 -0.0266893)
(0.0192343 -0.0204903 -0.0258307)
(0.0193645 -0.020182 -0.0248798)
(0.020048 -0.0206682 -0.0256162)
(0.0195354 -0.0167708 -0.024881)
(0.0208079 -0.0188426 -0.0267088)
(0.0189422 -0.0185246 -0.0249181)
(0.0179915 -0.0183022 -0.0246395)
(0.0200652 -0.0163346 -0.0252869)
(0.0208328 -0.0186354 -0.02662)
(0.0187713 -0.017192 -0.0242071)
(0.0177944 -0.0178174 -0.0247461)
(0.0174794 -0.015472 -0.0230269)
(0.0192416 -0.0152082 -0.0237079)
(0.00441611 -0.000743141 -0.00348964)
(-0.00120998 0.00221258 0.00247518)
(0.00390873 -0.00118635 -0.00364196)
(0.00594714 -0.00184356 -0.00566981)