/*--------------------------------*- C++ -*----------------------------------*\
| =========                 |                                                 |
| \\      /  F ield         | OpenFOAM: The Open Source CFD Toolbox           |
|  \\    /   O peration     | Version:  v1612+                                |
|   \\  /    A nd           | Web:      www.OpenFOAM.com                      |
|    \\/     M anipulation  |                                                 |
\*---------------------------------------------------------------------------*/
FoamFile
{
    version     2.0;
    format      ascii;
    class       volScalarField;
    location    "50";
    object      p;
}
// * * * * * * * * * * * * * * * * * * * * * * * * * * * * * * * * * * * * * //

dimensions      [0 2 -2 0 0 0 0];

internalField   nonuniform List<scalar> 
16762
(
2.01939
2.01514
2.02234
2.0207
2.02022
2.02263
2.02076
2.0163
2.02332
2.02464
2.02406
2.01202
2.02261
2.02194
2.0131
2.015
2.0163
2.0156
1.94046
1.93984
1.93461
1.93921
1.94024
1.93158
1.94691
1.95019
1.94013
1.9433
1.9337
1.94897
1.94464
1.94214
1.94283
1.93936
1.94414
1.94668
1.94493
1.94695
2.01131
2.0096
2.01374
2.01733
2.01074
2.01656
2.01933
2.01403
2.01663
2.01224
2.0123
2.01184
2.01227
2.02222
2.01737
2.01465
2.01072
2.01312
2.0151
2.00513
2.01843
2.01105
1.92749
1.93379
1.92108
1.92567
1.92661
1.98535
1.98001
1.98493
1.98623
1.97712
1.97432
1.98356
1.97417
1.97073
1.93732
1.94457
1.93538
1.937
1.9435
1.94152
1.93657
1.94164
1.941
1.94417
1.94273
1.94428
1.9395
1.9336
1.92733
1.94199
2.0065
1.9994
2.01444
2.00401
1.99744
2.00693
2.01133
2.01648
2.00909
2.01221
2.01332
2.016
1.99765
2.00672
2.01679
2.02391
2.02688
2.02342
2.02054
2.03398
2.02879
2.02814
2.02277
2.0307
2.0264
2.02341
2.01887
2.02425
2.02412
2.02629
1.9984
1.99651
2.01137
2.01243
1.99058
1.99309
1.99222
1.99456
1.98992
2.00706
1.99297
1.99179
1.9873
2.00694
2.00717
1.99813
1.93287
1.93331
1.93375
1.94081
1.95489
1.94105
1.93541
1.94621
1.94803
1.94151
1.95451
1.95068
1.94658
1.95322
1.9448
2.02954
2.0274
2.0384
2.04135
2.03801
2.03769
2.02484
2.0392
2.03852
2.03519
2.03407
2.03675
2.02938
2.04376
2.01641
2.01611
2.01977
2.02456
2.02864
2.01667
2.01867
2.01334
2.02177
2.01536
2.02137
2.01694
2.0161
2.02417
2.0206
2.02594
2.01208
2.02105
2.0301
2.01774
1.94076
1.94539
1.94756
1.94089
1.95179
1.95526
1.94404
1.96981
1.9727
1.97225
1.9592
1.94394
1.94329
1.96416
1.94966
1.97481
1.96281
1.94612
1.94511
1.95785
1.95859
1.96285
1.96366
1.96066
2.02525
2.02323
2.01271
2.02878
2.02353
2.02951
2.02137
2.01169
2.0295
2.02458
2.02745
2.01554
2.02166
2.01825
2.01644
2.02503
2.02809
2.01964
2.02185
2.02582
2.03596
2.03852
2.03769
2.03746
2.03497
2.038
2.04577
2.04564
2.03541
2.04344
2.04377
2.044
2.01706
2.01786
2.01714
2.01785
2.0184
2.01667
2.01436
2.01557
2.01409
2.01692
2.01792
2.01893
2.00956
2.00889
2.02027
2.00697
2.01739
2.01465
2.01646
2.01523
2.01425
2.01758
1.96908
1.96448
1.9731
1.96898
1.97287
1.97243
1.96067
1.96128
1.96765
1.97244
1.97416
1.97066
1.96031
1.97749
1.97173
1.97013
1.96256
1.97015
1.96463
1.95865
2.01464
2.01119
2.00899
2.01219
2.01171
2.01462
2.01672
2.01425
2.00906
2.00422
2.01035
2.01648
2.01394
2.0138
2.01064
2.01195
2.02672
2.02814
2.02903
2.02802
2.02908
2.02491
2.02585
2.03028
2.0292
2.00657
2.00544
2.00577
1.99799
2.0069
2.01382
2.00277
2.00041
2.0063
2.01183
2.00689
2.0049
2.00828
2.00653
2.00956
1.95114
1.95692
1.94375
1.9448
1.94801
1.94634
1.95262
1.95773
1.94764
1.94207
1.94531
1.95545
1.95593
1.95963
1.95796
1.95459
1.95536
1.95248
1.9545
1.96106
1.95809
1.95543
2.0001
2.00813
1.99279
1.99801
2.00537
2.00624
2.005
2.00839
1.94326
1.93732
1.94493
1.94934
1.94087
1.94605
1.94059
1.93953
1.93622
1.94361
1.94293
1.94205
2.00087
1.99811
2.00256
2.00119
2.00763
2.00591
2.00474
2.01311
2.00091
1.99898
1.9955
1.99985
2.00091
2.01205
2.00595
2.0102
2.00047
2.00842
2.00948
2.00694
2.02334
2.01956
2.01326
2.00738
2.01363
2.01339
2.00989
2.00761
2.01689
2.00522
2.00666
2.00657
2.00479
2.00373
2.00171
1.99894
2.00598
1.99566
2.004
2.00876
2.00259
2.00524
2.00292
2.00984
2.00569
1.99182
1.99114
1.99614
1.99658
2.00158
1.99814
1.98817
1.99554
1.9962
2.00081
1.99939
2.01236
2.00669
2.01159
2.0066
2.00989
2.01495
2.02071
2.0204
2.01861
2.0171
2.01739
2.02201
2.01815
2.0184
2.02618
2.00953
2.02493
2.02563
2.01907
2.02373
2.01896
2.01852
2.01054
2.01731
2.01955
2.01778
2.02226
2.02041
2.01734
2.02076
2.01639
2.02151
2.01874
2.01763
2.01404
2.01465
2.02225
2.02199
2.02203
2.00577
2.01009
2.00688
2.00527
2.0092
2.00984
1.97509
1.95786
1.95709
1.98604
1.99225
1.97529
1.9705
1.95996
1.95798
1.97353
1.9594
1.96064
1.97113
1.97578
2.00673
2.00904
2.00972
2.01288
2.01014
1.99145
2.00672
2.00484
2.00875
2.00815
2.00926
2.00571
1.99673
2.00966
2.00775
2.00591
2.01438
2.01188
2.00285
1.99777
2.01234
2.0171
2.01057
2.01198
2.01081
2.00185
2.00409
2.0087
2.01205
2.00377
2.00722
1.94746
1.94669
1.94346
1.93698
1.932
1.93179
1.94692
1.93678
1.94885
1.93718
1.93057
2.02886
2.03527
2.03316
2.03326
2.03129
2.02228
2.03194
2.02455
2.01907
2.0208
2.03371
2.02505
2.02651
2.02331
2.0238
1.94639
1.94892
1.94699
1.93688
1.93879
1.95485
1.94962
1.93199
1.93493
1.93752
1.9411
1.93714
1.93624
1.93488
1.9323
1.94352
1.94172
1.93656
1.93924
2.01764
2.0155
2.01767
2.01653
2.00514
2.0126
2.01896
2.01645
2.00495
2.01565
2.00892
2.01405
2.0058
2.00837
2.00317
2.0129
2.01646
2.02228
2.00857
2.01221
2.00685
2.02154
2.02604
2.02482
2.02953
2.02533
2.02048
2.02212
2.01737
2.01806
2.01985
2.02212
2.01952
2.01937
2.01425
2.0182
2.02773
2.02296
2.02503
2.02172
2.00732
2.00617
1.99679
2.00635
2.00661
1.99664
1.9869
1.98967
1.9957
1.99689
1.99438
1.98916
2.0432
2.04869
2.04306
2.0377
2.03969
2.0489
2.04571
2.04145
2.04509
2.04371
2.04298
2.04183
2.03698
2.03405
2.04369
2.0267
2.02954
2.03358
2.03788
2.02527
2.02676
2.0328
2.03031
2.02638
2.03557
2.02737
2.03662
2.03486
2.02832
2.03458
2.02728
2.0207
2.02555
2.00382
1.99644
2.0022
1.99291
1.98828
2.00105
2.00692
2.00551
1.99682
2.01298
2.01009
2.00046
2.00241
2.00007
2.00232
2.0007
1.99667
2.00779
1.94704
1.94496
1.94765
1.94141
1.94633
1.95077
1.94385
1.94192
1.95457
1.94325
1.94753
1.99878
2.00328
2.00759
2.00074
2.00397
2.00501
1.99878
2.00849
2.00713
2.00641
2.00941
2.00937
2.00573
2.0045
2.00499
2.00503
2.00439
2.00058
1.998
2.008
2.00819
2.00501
2.00266
2.01402
2.00581
2.00099
2.0028
2.01288
2.0028
1.99797
1.99867
2.00381
2.00695
1.98
1.98082
1.97773
1.97842
1.98289
1.98216
1.97293
1.97322
1.97487
1.98153
1.9826
1.97777
1.97624
1.97475
1.98472
1.97909
1.97755
1.97341
1.9787
1.98301
1.97986
1.98388
1.9526
1.94878
1.94965
1.95258
1.95946
1.95065
1.94666
1.94707
1.95912
1.94646
1.95673
1.95698
1.95415
1.95933
1.95193
1.9495
1.96278
1.95716
1.97516
1.97101
1.9786
1.98406
1.97477
1.98669
1.96899
1.97612
1.96699
1.97088
1.96261
1.97426
1.97974
1.97921
1.96684
1.9654
1.97751
1.97581
1.97609
1.95996
1.95953
1.9715
1.96103
1.96171
1.9643
1.96836
1.96687
1.96758
1.96819
1.98124
1.97369
1.96167
1.96053
1.96811
1.97583
1.97302
1.97353
1.96934
1.97409
1.9732
1.96354
1.97374
1.96167
1.95999
1.95996
1.9653
1.96236
1.96036
1.96883
1.96091
1.96777
1.96766
1.95887
1.96722
1.95412
1.97859
1.97443
1.96965
1.95701
1.97556
1.97452
1.95715
1.95824
2.00994
2.00273
2.00299
2.00623
2.00546
2.00016
2.0112
2.01132
1.99864
2.00273
2.00242
2.01103
2.00505
2.0079
2.00216
1.99926
2.01133
2.01245
1.99859
2.00811
2.01142
1.94365
1.95023
1.95487
1.94839
1.94706
1.93674
1.93853
1.94929
1.94266
1.94184
1.9476
2.04023
2.03688
2.03286
2.03336
2.0331
2.03592
1.93792
1.93934
1.92905
1.97158
1.97371
1.94376
1.94407
1.98617
1.98489
1.90622
1.9073
2.02312
2.02368
2.01871
1.97129
1.96602
2.03151
2.02873
1.94236
1.94566
1.9387
1.9443
1.97388
1.97295
1.96739
1.96187
1.9589
1.92743
2.0107
2.00371
1.98558
1.98589
1.92603
1.929
1.95966
1.9543
1.95947
2.0248
2.02753
2.02622
1.97716
1.97674
1.96915
2.00386
2.00891
2.00813
2.00942
2.01121
2.01695
1.96096
1.9546
1.96373
1.99149
1.99204
1.99521
1.99834
2.00179
2.02375
2.0171
2.01811
2.02646
2.02766
2.02146
2.02025
1.98031
1.98027
1.97665
1.97372
2.00682
2.00334
2.00472
2.01784
2.01394
2.01325
2.02525
2.02296
2.01935
2.01697
2.00251
2.00764
2.00829
2.02249
2.01092
2.01665
2.01614
2.00731
2.0061
2.00792
1.99963
2.00304
2.00012
2.02543
2.02163
2.02555
2.02375
2.02779
2.02653
2.022
2.0191
2.01461
2.01166
2.00334
1.99776
2.00029
2.03036
2.03728
2.03543
2.02059
2.01979
2.0277
2.01312
2.00711
2.00846
2.03985
2.03199
2.03781
2.02611
2.02322
2.01633
2.01266
2.03402
2.02659
2.02773
2.04673
2.04344
2.02405
2.024
2.01693
2.01824
2.02062
2.01614
2.01499
2.01384
2.0396
2.04772
2.04769
2.02854
2.02498
2.02373
2.02516
2.01811
2.0189
2.06042
2.05606
2.05087
2.03912
2.03902
2.05245
2.05481
1.9712
1.97494
1.97771
1.9691
1.9931
2.02404
2.02701
2.02739
1.96065
1.95542
1.9613
2.02165
2.0174
2.02001
2.01351
2.01782
2.01955
1.97849
1.98407
1.97433
1.97516
1.9762
2.01521
2.01277
2.01234
2.03072
2.03169
2.02846
2.02623
2.02283
1.99463
1.99241
1.999
2.02623
2.02283
2.02011
2.01004
2.00603
1.99926
2.01201
2.00459
2.00634
2.01486
2.01169
2.00877
2.01294
2.01115
1.98523
1.98146
1.98346
1.98781
1.99427
1.99266
1.98921
1.96389
1.96592
1.96221
1.96385
1.97138
1.9722
1.97338
1.9715
1.97115
1.97569
1.97527
1.97206
1.97007
1.97216
1.96057
1.96343
1.97338
1.9751
1.98113
1.98707
1.98286
1.97959
1.98718
1.98816
1.98306
1.97416
1.97405
1.97157
1.97894
1.98333
1.98021
2.01245
2.00714
2.0117
2.02222
2.02257
2.01812
2.01627
2.02216
2.01864
2.01898
2.01672
2.02686
2.02366
2.02115
2.02215
2.0007
2.00902
2.00745
2.00985
2.02034
2.02332
2.0208
2.027
2.02138
2.01403
2.0143
2.01161
2.00844
2.01195
2.02063
2.02041
2.01768
2.01995
2.01957
2.01954
2.01765
2.01508
2.01997
2.01662
2.02056
2.01705
2.01878
1.94829
1.94757
1.96248
1.957
1.96055
1.9538
1.96261
1.96682
1.96645
1.96526
1.9561
1.96139
1.95225
1.95933
1.95106
1.94668
1.9523
1.95264
1.95205
1.95441
2.02428
2.02643
2.02609
2.02427
2.02934
2.02673
2.01928
2.02301
2.02074
2.02326
2.02216
2.02729
2.02223
2.03002
2.02113
2.02193
2.02359
2.02237
2.02701
2.01892
2.02492
2.02636
2.02255
1.97239
1.97166
1.98138
1.99031
1.99369
1.9895
1.98653
1.99868
1.996
1.99457
1.99144
1.99058
1.98722
1.98428
1.98961
1.98517
1.9904
1.98867
1.98152
1.98045
1.97257
1.97822
1.9698
1.97651
1.97993
1.97568
1.97717
1.98538
1.98182
1.98051
1.9821
1.97796
1.98043
1.97696
1.97874
2.01973
2.02308
2.05603
2.05398
2.04212
2.03241
2.04315
2.03624
2.04319
2.04011
2.03826
2.03033
2.03816
2.03323
2.04463
2.04134
2.0503
2.05669
2.05203
2.0533
2.04857
2.05266
2.04655
2.03143
2.03723
2.0379
2.03385
2.03621
2.03556
2.03954
2.04218
2.04233
2.044
2.04166
2.0396
2.03978
2.03304
2.03252
2.03391
2.0292
2.03597
2.05646
2.05809
2.05333
2.05562
2.04484
2.05275
2.05189
2.04523
2.05702
2.05882
2.054
2.05385
2.05922
2.05149
2.05385
2.05409
2.01026
2.01893
2.01677
2.02005
2.01423
2.02024
2.02497
2.02098
2.01769
2.01563
2.01837
2.01813
2.01889
2.01787
2.01844
2.01847
2.0185
2.0212
2.02713
2.02735
2.03153
2.03138
2.03261
2.03143
2.02335
2.02524
2.02286
2.02506
2.02775
2.03117
2.02364
2.02572
2.02873
2.02426
2.02738
2.02244
2.02532
2.02393
2.02863
2.02617
2.02662
2.04414
2.0482
2.04338
2.04717
2.04599
2.03761
2.03076
2.03951
2.03845
2.05352
2.04765
2.042
2.05308
2.05626
2.04203
2.038
2.03618
2.04469
2.03366
2.03718
2.04156
2.04326
2.01852
2.02451
2.02207
2.01321
2.01729
2.01176
2.01382
2.01259
2.01615
2.01508
2.02381
2.02174
2.01751
2.01962
2.01188
2.01394
2.02082
2.01551
2.01721
2.01733
2.01665
2.01806
2.01933
2.02168
2.01536
2.01738
2.01974
2.02302
2.0162
2.01615
2.0138
2.01845
2.01699
2.01436
2.01372
2.00356
2.01306
2.02161
2.02032
2.00966
2.01437
2.01501
2.01673
2.01482
2.01262
2.0141
2.01532
2.01257
2.02018
2.02073
2.01683
2.01755
2.02489
2.02758
2.02821
2.02418
2.02153
2.02916
2.02808
2.0291
2.03986
2.04149
2.03841
2.04364
2.04169
2.04121
2.03902
2.04323
2.04717
2.05116
2.04905
2.05222
2.04793
2.03747
2.0397
2.0517
2.04545
2.0474
2.04736
2.02052
2.02108
2.02798
2.02814
2.02467
2.02653
2.02505
2.0277
2.03238
2.03089
2.02639
2.03715
2.03238
2.03321
2.03734
2.03683
2.03361
2.03233
2.03038
2.0124
2.00897
2.01257
2.0083
2.01259
2.015
2.01754
2.01053
2.01132
2.01459
2.01771
2.01546
2.01344
2.01175
2.01645
2.01546
2.01161
2.01238
2.01226
2.00889
2.00729
2.01164
2.00815
2.01976
2.02282
2.02675
2.02279
2.03407
2.02788
2.01863
2.02163
2.01373
2.01353
2.01565
2.01816
2.0163
2.03264
2.02746
2.0121
2.02008
2.01388
2.02384
2.02308
2.02568
2.01687
2.01727
2.01933
2.0127
2.01178
2.02457
2.02423
2.03925
2.0362
2.03229
2.03655
2.04171
2.03399
2.03932
2.03609
2.03202
2.0379
2.03318
2.03429
2.02873
2.02928
2.0411
2.03929
2.03382
2.04451
2.04289
2.04634
2.03284
2.03329
2.03472
2.03387
2.03017
2.02576
2.02808
2.00447
2.00993
2.00951
2.00641
2.00897
2.01264
2.01313
2.00973
2.0085
2.00907
2.01407
2.01396
2.01077
2.01632
2.0141
2.01158
2.01326
2.01369
2.02311
2.02734
2.02611
2.02082
2.02586
2.01912
2.02071
2.02042
2.02605
2.02365
2.0206
2.02288
2.0215
2.01861
2.02325
2.02477
2.02301
2.01806
2.02096
2.01985
2.0212
2.0233
2.02046
2.02696
2.03048
2.02954
2.02604
2.03504
2.03103
2.03963
2.04313
2.0403
2.04046
2.04219
2.03826
2.03989
2.03212
2.03576
2.03078
2.03674
2.03104
2.03428
2.02856
2.02951
2.02646
2.02604
2.02599
2.03376
2.02914
2.03104
2.03275
2.02917
2.03578
2.02792
2.03099
2.03365
2.03425
1.99728
2.0036
1.99724
2.00311
2.0032
1.99784
1.998
1.99852
1.98908
2.00041
1.99182
1.99913
1.99858
1.99499
1.99464
1.99349
1.99587
1.99113
1.99878
1.9966
1.99791
1.99692
1.99451
2.00591
1.99787
2.0015
1.99991
1.99629
2.00526
2.00146
2.00824
2.01485
2.01411
2.01314
2.01294
2.01434
2.01719
2.01919
2.01358
2.01081
2.01711
2.01599
2.0178
2.01525
2.01036
2.01102
2.01206
2.01632
2.01477
2.0161
2.0153
2.01718
2.01398
2.0142
2.01472
2.01673
2.01726
2.02184
2.0209
2.01979
2.02478
2.0198
2.02409
2.01602
2.02585
2.02452
2.02597
2.02376
2.01303
2.01577
2.0223
2.02151
2.0235
2.02146
2.02174
2.02379
2.02167
2.02323
2.02421
2.02698
2.02154
1.99556
1.99348
2.00366
1.9993
1.99707
1.99877
2.00125
1.98439
1.98692
1.98177
1.99413
1.99421
1.99597
1.99424
2.01559
2.01827
2.01847
2.01812
2.01394
2.00703
2.0027
1.9901
1.99201
1.9978
2.00316
1.99863
2.00024
2.00063
1.9982
1.99925
2.00064
1.99791
2.00607
2.00321
1.99608
1.99824
2.00043
2.00207
2.0015
2.01041
2.00938
2.00783
2.00897
2.00698
2.00844
2.01347
2.01161
2.01118
2.01078
2.00659
2.00501
2.01273
2.01088
2.00953
2.0085
2.00525
2.0117
2.00826
2.01507
2.01213
2.01088
2.01544
2.01213
2.01262
2.01176
2.02157
2.01885
2.02061
2.01929
2.01653
2.01927
2.02248
2.02399
2.01619
2.01824
2.00224
2.00185
2.01074
2.01067
2.00844
2.01022
2.00927
2.01092
2.00761
2.00859
2.01163
2.01465
2.00875
2.01063
2.011
2.0078
2.00546
2.00751
2.00583
2.00861
2.0113
2.01142
2.0212
2.0299
2.02335
2.01241
2.01549
2.01444
2.02206
2.02154
2.02172
2.02388
2.02574
2.02332
2.03469
2.02347
2.02106
2.0194
2.0125
2.01158
2.01888
2.01577
2.00591
2.01291
2.01237
2.00742
2.01326
2.01168
2.00019
2.00146
1.99582
1.98934
1.99873
1.99718
1.99595
1.99649
1.99775
1.99732
2.00015
2.00476
2.00249
2.00592
2.00607
1.99942
1.99571
1.99406
1.9664
1.96948
1.97873
1.97228
1.97561
1.97089
1.98385
1.97369
1.97101
1.97868
1.98641
1.98298
1.97375
1.97547
1.98117
1.96903
1.98987
1.97717
1.97911
1.96932
1.98028
1.97463
1.9755
1.97233
1.97539
1.97115
1.98532
1.98409
1.98108
1.99129
1.98972
1.99022
1.98713
1.98962
1.98768
2.02569
2.02232
2.02516
2.02273
2.02111
2.01752
2.02521
2.0195
2.01993
2.01718
2.01943
2.02195
2.02052
2.01917
2.01798
2.02238
2.02271
2.02674
2.02416
2.00537
2.01254
2.00847
2.00676
2.00347
1.99821
2.00041
2.00008
2.00571
2.00777
1.98488
1.98652
1.98785
1.98301
1.98239
1.99317
1.9908
1.99266
1.99046
1.9866
1.99056
1.99427
1.98525
1.98913
1.99059
1.99245
1.98738
1.98788
1.98647
1.98987
1.98878
1.97849
1.98246
1.97462
1.98237
1.99234
1.99344
1.99544
1.97928
1.99424
1.9941
1.98912
1.98274
1.98731
1.98197
1.98176
1.98378
1.98226
1.98674
1.98838
1.95061
1.95116
1.9549
1.96103
1.9558
1.95757
1.95473
1.95873
1.95079
1.95519
1.95602
1.95191
1.94805
1.9495
1.96306
1.96733
1.94933
1.94651
1.97192
1.97702
1.97455
1.9728
1.96294
1.9675
1.9627
1.97169
1.96677
1.96122
2.01783
2.01216
2.00807
2.01648
2.01034
2.00667
1.9942
2.00372
1.9986
1.99699
1.99905
2.00674
2.00164
2.00087
2.00037
2.00979
2.00683
2.0073
2.00712
2.00482
1.99861
1.99485
2.00238
1.99775
2.00432
2.00552
1.99907
2.00736
2.0011
2.00504
2.00186
2.0046
2.00577
2.00465
2.01136
2.01155
1.96671
1.96394
1.9689
1.96733
1.96716
1.95556
1.95868
2.02885
2.02122
2.02415
2.02446
2.02697
2.02915
2.02785
2.02795
2.02294
2.0255
2.02406
2.0276
2.02582
2.0309
2.02464
2.03078
2.02642
2.02656
2.02864
2.02413
2.02346
2.02456
1.94685
1.94859
1.95458
1.96598
1.96272
1.9694
1.96889
1.96399
1.96109
1.91539
1.91687
1.91663
1.92669
1.92679
1.92935
1.93189
1.92855
1.92338
1.92434
1.92533
1.92142
1.92418
1.92097
1.92909
1.92434
1.92723
1.98918
1.98701
1.99227
1.99162
1.99329
1.99438
2.0072
2.00331
1.9966
1.99444
1.99735
1.99412
1.99998
1.98757
1.9999
2.00114
2.01411
2.02314
2.0201
2.02313
1.99729
1.9908
2.00241
2.00164
1.99239
1.99042
1.98999
2.00098
1.99841
2.0034
2.00476
2.01295
2.00307
2.00134
1.99811
2.01587
2.01206
2.01629
2.01299
2.00707
2.01103
2.01943
2.01513
2.01584
2.01456
2.01171
1.93245
1.9274
1.94822
1.93319
1.9447
1.94813
1.95946
1.96174
1.96232
1.95647
1.95441
1.95993
1.95702
1.95948
1.99217
1.98262
1.96412
1.98939
1.9765
1.9779
1.97394
1.98331
1.98527
1.97196
1.97239
1.97039
1.96862
1.96321
1.96374
1.94442
1.95916
1.95162
1.94874
1.9552
1.94933
1.95711
1.96172
1.96647
1.9622
1.96347
2.02931
2.02909
2.02399
2.03138
2.0232
2.02917
2.03293
2.02797
2.02219
2.03039
2.02697
2.02435
2.02605
2.02795
2.0267
2.02978
2.02597
2.03364
2.02607
2.02656
2.0237
2.02501
2.02794
2.02537
2.02862
2.02709
2.03135
2.02527
2.02739
2.02745
2.02612
2.02612
2.03181
2.02473
1.97949
1.96734
1.96955
1.9792
1.9734
2.00681
2.00547
2.0125
2.01628
2.01177
2.01724
2.02024
2.00926
2.0116
2.00973
2.00842
2.015
2.01651
1.90971
1.90041
1.9059
1.89772
1.90151
1.89821
1.8998
1.9015
1.89674
1.90222
1.90122
1.90276
1.91383
1.90432
1.9095
1.90749
1.91011
1.90444
1.90141
1.92221
1.92927
1.91672
1.92209
1.92622
1.91782
1.91388
1.91638
1.9151
1.92111
1.91262
1.90788
1.90934
1.90575
1.9003
1.90292
1.92613
1.92154
1.93016
1.93692
1.93244
1.92646
1.92752
1.93599
1.93575
1.93074
1.93392
2.02774
2.02838
2.03383
2.03792
2.03313
2.03253
2.02796
2.02398
2.03471
2.03451
2.03568
2.03372
1.98594
1.97639
1.98001
1.9829
1.98089
1.92869
1.92349
1.93412
2.03429
2.02991
2.02957
2.02515
2.03428
2.02794
2.02881
2.02751
2.0298
2.02698
2.02393
2.02093
2.02305
2.02643
1.93842
1.94306
1.93795
1.93536
1.93024
1.91098
1.91076
1.90825
1.90551
1.90788
1.91676
1.91209
1.91816
1.91509
1.9207
1.92383
1.92953
1.93058
1.93176
1.91999
1.92033
1.9269
1.92505
1.92112
1.91754
1.91865
1.91716
1.92384
1.9267
2.02317
2.02392
2.01495
2.02128
2.00976
2.00537
2.00421
1.99005
2.00072
2.00023
1.99174
1.98647
2.0273
2.02458
2.02911
2.02403
2.02559
2.02603
1.9634
1.97271
1.97059
1.96567
1.96104
1.96832
1.9669
1.96077
1.95924
1.94944
1.95437
1.94722
1.94057
1.93867
1.93829
1.94688
1.93838
1.93606
2.00727
2.00952
2.01815
2.0192
2.01293
2.00983
2.00976
2.00992
2.02333
2.01925
2.02027
2.01812
2.02319
2.01917
2.01528
2.02122
2.01833
2.0154
1.98979
1.99906
2.00215
1.99695
1.99673
1.99262
1.99868
1.99907
2.00259
2.00339
2.00561
2.00288
1.93707
1.93123
1.92505
1.93605
1.92946
1.93266
1.93057
1.9824
1.97611
1.97991
1.97252
1.97177
1.96687
1.97661
1.9806
1.98177
1.98375
1.9809
1.97647
1.97821
2.02072
2.02581
2.02205
2.0247
2.02872
2.02499
2.0228
2.02328
2.02522
2.02553
2.02811
2.02697
2.0226
2.02268
2.02427
2.02427
2.01252
2.02375
2.01964
2.02014
2.02317
2.0216
2.02096
2.01989
2.0182
2.02374
2.03161
2.02611
2.02858
2.01992
2.02691
2.02399
2.0225
2.02303
2.02416
2.02276
2.02235
1.9931
2.00129
1.9945
1.99848
2.02254
2.01635
2.01276
2.01412
2.02053
2.01343
2.01886
2.01542
2.01478
2.01698
2.0173
2.0237
2.0212
2.01869
2.02328
2.01831
2.01912
2.03222
2.03239
2.02863
2.0258
2.02044
2.0189
2.02307
2.01861
2.0222
2.02396
2.01937
2.01773
2.0199
2.02629
2.02095
2.02275
2.02321
2.02521
2.03175
1.96073
1.96495
1.96339
1.96121
1.96937
1.96623
2.02595
2.03111
2.03398
2.02101
2.02197
2.03211
2.02941
2.03038
2.02443
2.02592
2.01857
2.03017
2.02661
2.02047
2.02461
2.0253
2.01019
2.01078
2.01221
2.01337
2.01415
2.01287
2.00184
2.0092
2.01359
2.00949
2.0106
2.00986
2.00953
2.00383
1.99937
2.00217
1.9982
2.00065
2.00688
2.00939
2.00799
2.00697
2.00324
2.00374
2.0115
2.00952
1.99603
1.99168
1.99227
1.99847
1.99811
1.9937
1.99017
1.99241
1.99527
1.99519
1.99831
1.99716
1.99425
1.99322
1.99568
1.99044
1.99474
1.996
1.99908
1.9984
1.99265
1.99223
2.0005
2.00533
2.00623
1.99691
1.99488
1.99333
2.00157
2.00273
1.9951
1.99429
1.97833
1.98687
1.98311
1.9737
1.97565
1.98865
1.98623
1.98492
1.99598
1.9773
1.97875
2.02109
2.02006
2.01769
2.0184
2.01987
2.01787
2.02223
2.02055
2.01788
2.02599
2.01982
2.02121
2.02695
2.02754
2.02517
2.02209
2.02335
2.02202
2.01848
2.01908
2.02131
2.0171
2.01113
1.9851
1.9866
1.99415
1.98726
1.98883
1.9881
1.99089
1.99102
1.99427
1.99101
2.01129
2.00436
2.00217
2.00629
2.01015
2.00564
2.03068
2.03069
2.02574
2.02747
2.03041
2.03003
2.02719
2.03044
2.02914
2.02606
2.02496
2.02247
2.01708
2.02402
2.01326
2.01693
2.01957
2.0172
2.02242
2.01689
2.01869
2.02183
2.02081
2.02101
2.01814
2.02153
2.01703
2.01597
2.01957
2.01825
2.02047
2.01717
2.01651
2.01741
2.02021
2.00448
2.01122
2.01336
2.00522
2.00776
2.00784
2.00874
2.01089
2.01103
1.99833
1.99832
1.99548
2.00107
2.0017
2.00206
1.99888
2.00259
2.0042
2.00269
2.00116
1.99577
2.00231
2.00286
2.00664
2.00296
2.00398
1.99958
1.99977
2.00349
2.00861
2.00952
2.00796
2.00656
2.00146
2.0068
2.01237
2.00527
2.00803
2.00439
2.01605
2.013
2.01467
2.0072
2.00234
2.00405
2.00412
2.00825
2.00674
2.03172
2.02523
2.02497
2.02393
2.0254
2.02211
2.02131
2.01922
2.00606
2.00745
2.00834
2.00957
2.01455
2.01239
2.01134
2.01077
2.01126
2.01087
2.01095
2.01171
2.02954
2.02182
2.03432
2.03037
2.02905
2.02221
2.02648
2.02413
2.02938
2.02684
2.02789
2.03309
2.03073
2.02973
2.02734
2.02726
2.02028
2.02825
2.02727
2.00774
2.00422
2.00516
2.0064
2.00527
2.01226
2.01066
2.0091
2.00368
2.00098
2.00613
2.00206
2.00126
2.00685
2.0371
2.03327
2.03015
2.02568
2.02518
2.02638
2.02488
2.0262
2.0241
2.02904
2.02853
2.03746
2.03405
2.0351
2.03394
2.03773
2.03646
2.01547
2.01363
2.01649
2.01069
2.01872
2.01774
2.01328
2.01115
2.01566
2.01172
2.0149
2.01132
2.02759
2.03063
2.02257
2.02214
2.0134
2.01239
2.0145
2.01647
2.0194
2.01927
2.02643
2.02464
2.02058
2.01849
2.01962
2.02229
2.02482
2.02331
2.0235
2.02424
2.02016
2.05586
2.05326
2.04888
2.05865
2.04981
2.05014
2.05736
2.05268
2.0515
2.05348
2.05509
2.04816
2.04658
2.04891
2.04255
2.04611
2.04387
2.04484
2.04819
2.04477
2.04556
2.03887
2.03213
2.0334
2.03665
2.03544
2.03006
2.0296
2.03247
2.03518
2.04128
2.03343
2.03862
2.03871
2.05022
2.05108
2.05064
2.05103
2.04859
2.05014
2.04296
2.05374
2.04806
2.04714
2.05103
2.0451
2.05168
2.03875
2.04083
2.04118
2.04096
2.04495
2.0463
2.04159
2.04446
2.03557
2.03395
2.03496
2.03551
2.04031
2.04435
2.02124
2.02504
2.02351
2.02437
2.02329
2.02455
2.02215
2.01595
2.01805
2.01759
2.01957
2.02412
2.02371
2.02318
2.02367
2.01841
2.02737
2.03111
2.03127
2.02998
2.02865
2.02732
2.02736
2.02966
2.02462
2.02502
2.0318
2.02834
2.0326
2.03906
2.03249
2.02684
2.02238
2.02212
2.0193
2.0276
2.02176
2.02596
2.02192
2.02611
2.05102
2.04581
2.04059
2.04613
2.04692
2.04893
2.0513
2.04811
2.05203
2.04617
2.05202
2.04978
2.04099
2.03997
2.04857
2.05028
2.04513
2.04535
2.02849
2.05765
2.05527
2.05572
2.05508
2.02491
2.02744
2.02461
2.02631
2.02213
2.02096
2.02188
2.02208
2.02389
2.02566
2.02624
2.02419
2.02246
2.02035
2.02005
2.02539
2.02036
2.02909
1.94774
1.95125
1.9453
1.95198
1.95296
1.95124
1.94169
1.93868
1.93736
1.94441
1.94135
1.94589
1.9392
1.9466
1.94369
1.94487
1.94658
1.94374
1.94669
1.945
1.9405
1.95472
1.94584
1.94269
1.92647
1.9288
1.9386
1.93524
1.94109
1.929
1.93274
1.94093
1.94156
1.93883
1.94191
1.94114
2.01391
2.00589
2.01422
2.01325
2.00899
2.01934
2.01899
2.01402
2.01181
2.01015
2.0066
2.00928
2.00901
2.00975
2.01136
2.01524
2.01531
2.0184
2.02568
2.01975
2.02028
2.02191
2.02148
2.02063
2.01707
2.02055
2.02103
2.02267
2.01927
2.01551
2.01957
2.02115
2.01838
2.01982
2.02285
1.98859
1.98484
1.98526
1.98553
1.98129
1.9765
1.98683
1.98706
2.01624
2.01385
2.00903
2.00673
2.015
2.01782
2.01495
2.02075
2.0204
2.02732
2.02705
2.02965
2.02257
2.02705
2.02525
2.00451
2.00276
2.00455
1.99427
1.99748
1.99205
2.01914
2.02554
2.01882
2.02579
2.02062
2.01877
2.02158
2.01865
2.01991
1.93466
1.93401
1.931
1.94199
1.93696
1.93571
2.01153
2.01362
2.01688
2.01633
2.01704
2.01716
2.01792
2.01029
2.01534
2.02961
2.02917
2.03065
2.03514
2.02962
2.02994
2.02647
2.02886
2.02908
2.02825
2.02333
2.02422
2.02869
2.02493
2.02494
2.02327
1.99805
2.00278
2.00489
2.0053
1.99727
1.99893
2.00608
2.0014
1.99698
1.99603
2.02179
2.02182
2.02674
2.02216
2.02087
2.01991
2.02163
2.02435
2.02134
2.02107
2.01786
2.01912
2.02027
2.02322
2.02564
2.0256
2.02329
2.01956
2.0213
2.02605
2.01564
2.01645
2.02436
2.02054
2.02055
2.02645
2.02259
2.02277
2.02088
2.01835
2.0277
2.02154
2.02356
2.01816
2.02446
2.02453
2.02359
2.02667
2.02833
2.02742
2.02464
2.02284
2.02158
2.02916
2.02025
2.02316
2.02648
2.02226
2.02752
2.02924
2.02908
2.02942
1.95672
1.95106
1.95662
1.9457
1.96776
1.94414
1.94887
1.94965
1.9455
1.96649
1.97142
1.9694
1.95351
1.95884
1.95647
1.98724
1.98966
1.97798
1.98431
1.98013
1.97802
1.98672
1.99744
1.9908
1.97329
1.99113
1.99042
1.98215
1.98145
1.99209
1.99106
1.98638
1.98431
1.98498
1.98858
1.99031
2.02327
2.02505
2.01931
2.02017
2.02461
2.02597
2.02253
2.02125
2.02508
2.02554
2.01998
2.01522
2.00922
2.01195
2.01378
2.01207
2.01882
2.01698
2.00771
2.01682
2.01884
2.01739
2.02028
2.01803
2.00958
2.01162
2.01611
2.0133
2.01402
2.01438
2.00989
2.01548
1.96447
1.95879
1.96777
1.97378
1.96415
1.96691
1.95906
1.96827
1.97296
1.95421
1.94841
1.95567
1.95322
1.94319
1.9568
1.9487
1.95551
1.949
1.94264
1.94475
2.02499
2.02396
2.02577
2.02201
2.02435
2.02221
2.02292
2.02366
2.02762
2.02287
2.02422
2.02597
2.02482
2.02383
2.02531
2.02065
2.02237
2.02059
2.02039
2.02267
2.02134
2.02235
2.02099
2.02306
2.02159
2.02439
2.02211
1.98905
2.00447
1.99868
1.99953
1.99256
1.99787
1.97405
1.9791
1.97796
1.98424
1.97715
1.97464
1.9914
1.98487
1.98044
1.98154
1.98804
1.98703
1.9819
2.03855
2.0414
2.04069
2.03597
2.04213
2.02142
2.01611
2.03884
2.04068
2.03971
2.03741
2.04695
2.04271
2.04685
2.02894
2.0356
2.04026
2.04403
2.02014
2.01477
2.01982
2.02284
2.02422
2.0318
2.01969
2.02848
2.02646
2.02013
2.0199
2.03055
2.0287
2.01968
2.03731
2.04005
2.03727
2.03948
2.03604
2.04368
2.04224
2.0485
2.04767
2.04717
2.04582
2.03814
2.0361
2.03029
2.02762
2.02976
2.03717
2.03565
2.04333
2.0391
2.03367
2.02798
2.0346
2.02844
2.03437
2.0293
2.02482
2.02284
2.0256
2.00158
2.00488
1.99589
2.01601
2.01243
2.01257
2.00874
2.01136
2.01309
2.00809
2.01314
2.01315
2.01714
2.01156
2.01344
2.00641
2.01128
2.00636
2.01144
2.0084
2.00561
2.01276
2.00857
2.00559
2.01491
2.01593
2.01958
2.01875
2.01755
2.01116
2.01298
2.01902
2.01769
2.0186
1.99483
1.99482
1.99618
1.98943
1.99317
1.99792
1.9974
1.98583
1.98631
1.98481
1.99799
2.01489
2.02354
2.00849
2.02606
1.99616
1.99333
1.9963
1.99634
1.99291
1.99207
1.99568
1.995
1.98628
2.01809
2.01194
2.01525
2.00873
2.0137
2.01735
2.01428
2.01253
2.01268
2.002
2.00808
2.00836
2.01491
2.00719
2.01346
2.00881
2.01088
2.01068
2.01878
2.00717
1.99281
2.00024
2.00477
2.00364
1.96409
1.95806
1.96152
1.96017
1.96795
1.96563
1.96413
1.96115
1.96805
1.96706
1.96947
1.97554
1.96761
1.9727
1.97301
1.97778
1.97656
1.97757
1.98194
1.97692
1.97541
1.98023
2.02178
2.02319
2.01814
2.01974
2.02463
2.01918
2.01811
2.01981
2.02433
2.01718
2.01732
2.01878
2.02303
2.01453
2.01123
2.01736
2.01379
2.01892
2.01192
2.01394
2.01345
2.01158
2.01333
1.99333
1.99579
1.99658
1.99495
2.00811
2.0001
2.00404
1.99909
2.00171
1.99825
1.99932
2.00082
2.00594
2.0059
2.00336
2.00855
2.00154
2.00868
2.00346
2.00492
2.00759
1.98218
1.99144
1.99082
1.98131
1.97897
1.98818
1.99262
1.98935
1.96643
2.01863
2.01851
2.01498
2.01954
2.01297
2.01759
2.01944
2.0167
2.01703
2.0018
2.00153
2.00332
2.00518
2.00178
2.00121
2.00436
2.00614
2.00073
2.0037
1.99808
1.99675
1.99691
1.99441
1.99853
1.99756
1.99495
1.98939
1.98798
1.98707
1.99459
1.99613
2.0095
2.00528
2.01129
2.00714
1.95732
1.95233
1.94232
1.94668
1.95674
1.95862
1.95403
1.95185
1.9536
1.95009
1.9554
1.95807
1.95879
1.95897
1.96012
1.92782
1.93118
1.93291
1.98095
1.97899
1.97995
1.97722
1.97703
1.97342
1.97085
1.9663
1.97146
1.96903
1.96912
1.97929
1.98322
1.97663
1.97886
1.97965
2.00018
1.99319
1.99651
1.98895
1.99403
1.99682
1.98415
1.98271
1.98454
1.98182
1.9783
1.97481
1.99056
1.98529
2.01428
2.01338
2.01186
2.00965
2.01191
2.0178
2.01261
2.02176
2.01441
2.00768
2.01493
2.01499
2.01385
2.01012
2.00934
2.00975
2.00772
1.95434
1.95566
1.94649
1.9522
1.95942
1.96676
1.95015
1.94479
1.94134
1.95458
1.95254
1.94652
1.94956
2.01216
2.02304
2.01808
2.01698
2.01564
2.02499
2.02287
2.02305
2.02338
2.02696
2.0263
2.0253
2.02239
2.02516
2.02249
2.02229
2.02571
2.02494
2.02448
2.02491
2.02112
1.9054
1.91256
1.91351
1.91231
1.91586
1.90209
1.90601
1.9041
1.90398
1.90268
1.91805
1.91863
1.92012
1.92485
1.92521
1.91724
1.91585
1.92924
1.92642
1.92613
1.92745
1.9238
1.92423
1.92102
1.90972
1.9149
1.91807
1.96148
1.96045
1.92234
1.94102
1.93829
1.92107
1.92074
1.92637
1.92419
1.92229
1.92102
1.9324
1.91061
1.91649
1.92619
1.92922
1.92545
1.93764
1.93633
1.93699
1.92835
1.93009
1.94387
1.93982
1.93312
1.99864
2.00053
1.99467
1.9166
1.91249
1.91357
1.90636
2.0223
2.02645
2.02103
2.02852
2.02689
2.02568
2.02667
2.02939
2.03062
2.02647
1.93557
1.9422
1.93943
1.92879
1.93168
1.93181
1.93753
1.93495
1.9276
1.9157
2.00346
2.0076
2.00409
2.00154
2.00851
2.00332
2.00838
2.00773
2.00671
2.00498
1.9881
1.98717
1.97957
1.98144
2.0276
2.02625
2.01716
2.02497
2.00391
1.99077
1.99089
2.01548
2.02155
2.01967
2.0232
2.01912
2.01612
2.01265
2.01939
2.01339
2.01768
2.02956
2.01846
2.01811
2.03163
2.03024
2.03268
2.0283
2.03426
2.03101
2.03347
2.03476
2.03388
2.03678
2.02373
2.01814
2.01912
2.01535
2.02658