/*--------------------------------*- C++ -*----------------------------------*\
| =========                 |                                                 |
| \\      /  F ield         | OpenFOAM: The Open Source CFD Toolbox           |
|  \\    /   O peration     | Version:  v1612+                                |
|   \\  /    A nd           | Web:      www.OpenFOAM.com                      |
|    \\/     M anipulation  |                                                 |
\*---------------------------------------------------------------------------*/
FoamFile
{
    version     2.0;
    format      ascii;
    class       volVectorField;
    location    "50";
    object      wallShearStress;
}
// * * * * * * * * * * * * * * * * * * * * * * * * * * * * * * * * * * * * * //

dimensions      [0 2 -2 0 0 0 0];

internalField   uniform (0 0 0);

boundaryField
{
    WALL
    {
        type            calculated;
        value           nonuniform List<vector> 
1487
(
(0.000892984 -0.00714644 0.00552685)
(0.000718482 -0.0069464 0.00548998)
(0.00113008 -0.0104169 0.00539392)
(0.000715314 -0.0109222 0.0055703)
(0.00290354 -0.00593372 0.00527843)
(0.00390608 -0.00563456 0.00612588)
(0.000541794 -0.00452099 0.00930782)
(0.00146632 -0.0044206 0.00978418)
(-0.000735639 -0.00495697 0.00530474)
(-0.000649145 -0.00477268 0.00503006)
(0.000482106 -0.0125663 0.0124751)
(-0.000404698 -0.0115862 0.0126204)
(0.000520063 -0.00686729 0.00538152)
(0.000449885 -0.00657826 0.00552421)
(0.00181619 -0.0129407 0.00662543)
(0.00211625 -0.0135498 0.00698129)
(-0.000172256 -0.00662623 0.00523397)
(-0.000335344 -0.00644754 0.00509284)
(0.00137508 -0.010638 0.00587004)
(0.00175928 -0.0112244 0.00646085)
(0.00142927 -0.011881 0.00853876)
(0.00160717 -0.0121666 0.00862979)
(-0.000897455 -0.00504748 0.00581013)
(-0.000979615 -0.0054585 0.00556977)
(0.00244835 -0.0127711 0.00824192)
(0.00254979 -0.0128114 0.00875242)
(0.00106083 -0.0136322 0.0112975)
(0.000840561 -0.0143583 0.0114734)
(0.000492434 -0.00841782 0.00499739)
(0.00011507 -0.00782597 0.00459385)
(-0.00112159 -0.00541085 0.00551516)
(-0.00102759 -0.00547069 0.00560863)
(-0.000689585 -0.00459122 0.00643547)
(-0.000278755 -0.00435863 0.00666739)
(0.00445734 -0.00554095 0.00838992)
(0.00449791 -0.00513894 0.0080972)
(8.03685e-05 -0.0134034 0.00902934)
(0.000250723 -0.0134297 0.00865017)
(0.00156154 -0.00687722 0.00594087)
(0.00107108 -0.00638906 0.00579787)
(0.00107042 -0.00515468 0.00660943)
(0.00207238 -0.00641771 0.00717734)
(0.00272873 -0.00492372 0.0110264)
(0.00300447 -0.00380376 0.0126659)
(-0.00159817 -0.00421012 0.00721989)
(-0.00116926 -0.00457716 0.00603391)
(-0.00108816 -0.00406076 0.00817285)
(0.00079587 -0.0123546 0.0108597)
(0.00110471 -0.0142503 0.011817)
(0.00239252 -0.0137729 0.0070894)
(0.00251128 -0.012694 0.00790332)
(0.00657922 -0.0112292 0.011232)
(0.00536935 -0.012219 0.0104295)
(0.00483925 -0.0128878 0.0100295)
(0.00465418 -0.0115069 0.00924892)
(0.00493594 -0.0123913 0.00998561)
(0.00531951 -0.0112437 0.010056)
(0.00511471 -0.0117763 0.00987019)
(0.000255502 -0.00759339 0.00597914)
(0.000353078 -0.00704939 0.00575435)
(0.000186099 -0.00737407 0.00588852)
(0.000793743 -0.00691404 0.0053594)
(0.000389985 -0.0071242 0.00557896)
(0.000678968 -0.00746122 0.00593765)
(0.00102408 -0.00740231 0.00568921)
(0.000508845 -0.00725813 0.0057985)
(-0.000707233 -0.00716227 0.00511788)
(-0.000581376 -0.00725283 0.00500449)
(-0.000768608 -0.00746417 0.00482382)
(-0.000510371 -0.00706471 0.00488506)
(-0.000480909 -0.00777417 0.00497873)
(-0.000695963 -0.00755306 0.0050546)
(0.00253223 -0.0140195 0.00764801)
(0.00252062 -0.0131601 0.00770367)
(0.00259672 -0.0136839 0.00791657)
(0.00279667 -0.0138717 0.00803)
(0.00257282 -0.0141239 0.00831367)
(0.00236278 -0.0132311 0.00766827)
(0.00193061 -0.0122017 0.00662372)
(0.00234399 -0.0133696 0.00750683)
(0.00233325 -0.0128995 0.00776931)
(0.00219749 -0.0116026 0.00689679)
(0.00239786 -0.0123063 0.00765785)
(-8.09746e-05 -0.0123689 0.00816058)
(-1.95929e-05 -0.0122379 0.00854926)
(0.00342655 -0.00524163 0.0121924)
(0.00309844 -0.00502122 0.0131563)
(0.00346044 -0.00366574 0.0127731)
(0.00314969 -0.00367423 0.0133464)
(0.00403206 -0.00439319 0.0120807)
(0.00377318 -0.00466338 0.0119366)
(0.00490295 -0.00479807 0.00784673)
(0.00452031 -0.00486324 0.00681153)
(0.00436597 -0.00519222 0.00688798)
(0.0050298 -0.00457885 0.00841518)
(0.0044871 -0.005552 0.00738943)
(0.0036834 -0.010342 0.00778154)
(0.00317504 -0.00957429 0.00733199)
(0.0033402 -0.00965365 0.00755329)
(0.00343684 -0.0104892 0.00768727)
(0.00377516 -0.0104438 0.00815047)
(0.00353613 -0.00928279 0.00775722)
(0.00116937 -0.0148707 0.0122982)
(0.00132382 -0.0133967 0.0108346)
(0.00227951 -0.0142329 0.0115556)
(0.00231708 -0.0138217 0.0108033)
(0.00191573 -0.0139596 0.0110122)
(0.00143276 -0.0140067 0.0117825)
(0.00207563 -0.00396482 0.0125766)
(0.000994291 -0.00305259 0.0122126)
(-0.00126819 -0.00385664 0.00689676)
(-0.0012453 -0.0042924 0.00819571)
(-0.00120862 -0.00410273 0.00630301)
(-0.00127411 -0.00425591 0.00683719)
(-0.00148702 -0.00375376 0.00771202)
(1.70426e-06 -0.0039471 0.0101483)
(5.83477e-05 -0.00346223 0.0106035)
(-0.000423606 -0.00387835 0.00930533)
(-0.000226399 -0.00358091 0.0106672)
(-0.000830729 -0.00352648 0.00908584)
(-0.000953859 -0.00332374 0.00968965)
(0.00123377 -0.0134375 0.0118848)
(0.00156919 -0.0127227 0.011595)
(0.000738314 -0.0131315 0.012131)
(0.000962478 -0.0125962 0.0115407)
(0.000218286 -0.0116231 0.0120879)
(0.000920937 -0.0120141 0.0117828)
(0.00568815 -0.0123892 0.0108469)
(0.00602465 -0.0127125 0.0114343)
(0.00529829 -0.0129107 0.0111005)
(0.00497169 -0.0126842 0.01044)
(0.00619562 -0.0118523 0.0109264)
(0.00485993 -0.0135919 0.010983)
(0.00255237 -0.0135541 0.0111496)
(0.00331181 -0.0136547 0.0113895)
(0.00370603 -0.0129984 0.010694)
(0.00307359 -0.0135861 0.0109262)
(0.00399224 -0.0138672 0.0109562)
(0.00282962 -0.0129126 0.0107842)
(0.00414674 -0.00816055 0.00860562)
(0.00373512 -0.00734583 0.00825783)
(0.00420301 -0.00829124 0.00831914)
(0.00398097 -0.00856794 0.00806755)
(0.00378971 -0.00684314 0.00824057)
(0.00370189 -0.0084485 0.00810039)
(-7.55285e-05 -0.00482092 0.00660018)
(0.000328473 -0.00512309 0.00700063)
(-0.00015194 -0.00435116 0.007426)
(-0.00039965 -0.00458301 0.00658805)
(-0.000421038 -0.00454405 0.00663078)
(2.63161e-05 -0.00431549 0.00751281)
(0.0028236 -0.00587227 0.00791849)
(0.0035533 -0.00627922 0.0088555)
(0.00337558 -0.00589102 0.00945083)
(0.00268604 -0.0057738 0.00845833)
(0.00274218 -0.0053993 0.00872843)
(0.00352153 -0.00648988 0.00838827)
(0.00283194 -0.00726064 0.00748065)
(0.00350835 -0.00770383 0.00744668)
(0.00263477 -0.00772931 0.00705293)
(0.00269516 -0.00682963 0.00714808)
(0.00287266 -0.00810443 0.00690334)
(0.00330907 -0.00806214 0.00761359)
(0.00159515 -0.00620707 0.00644369)
(0.00155549 -0.00589805 0.00714064)
(0.0017207 -0.0064856 0.00652812)
(0.00146281 -0.00626729 0.00620352)
(0.0015307 -0.00728612 0.00557176)
(0.00103177 -0.00667517 0.00568684)
(0.00134894 -0.0069496 0.00577964)
(0.001449 -0.00673958 0.00540642)
(0.00135873 -0.00675451 0.00552922)
(0.00092303 -0.0103333 0.00495729)
(0.00133193 -0.0104561 0.00515487)
(0.0014105 -0.00919401 0.00476549)
(0.00143433 -0.0100723 0.00549412)
(0.00097482 -0.00997123 0.00512984)
(0.00140832 -0.00967264 0.00495415)
(0.00109354 -0.0105714 0.00514949)
(0.001398 -0.0120296 0.00657786)
(0.00113156 -0.0117893 0.00639625)
(0.000937062 -0.0105487 0.00528891)
(0.00118322 -0.0113643 0.00594503)
(0.0013242 -0.0111685 0.00608048)
(0.000976727 -0.0119954 0.00638871)
(0.000657781 -0.0114489 0.00589073)
(0.000936833 -0.0111689 0.00590414)
(0.0021219 -0.0123263 0.00763279)
(0.00208374 -0.0131798 0.00823734)
(0.00229884 -0.0124809 0.00768075)
(0.00184155 -0.0127354 0.00805898)
(0.00180719 -0.0123481 0.00756843)
(0.00152266 -0.0132005 0.00816566)
(0.000842927 -0.0137426 0.00853558)
(0.000532386 -0.0127549 0.00779203)
(0.00048379 -0.014283 0.00874658)
(0.000875335 -0.0135796 0.00791098)
(0.000700198 -0.0123609 0.00733548)
(0.00124881 -0.0131212 0.0077817)
(0.0010411 -0.0136195 0.00818707)
(0.001215 -0.012825 0.00738811)
(0.00199289 -0.0120338 0.00723002)
(0.00151864 -0.0122596 0.00727886)
(0.0013381 -0.0120436 0.00684848)
(0.00132968 -0.0123082 0.00708337)
(0.00189361 -0.0115661 0.00697292)
(0.00169561 -0.00796481 0.00614382)
(0.00161204 -0.00718852 0.00561994)
(0.00145953 -0.00700573 0.00559397)
(0.00177389 -0.00796964 0.00581672)
(0.00179493 -0.0071875 0.00637743)
(0.000381048 -0.0136666 0.00943623)
(0.000452036 -0.0140232 0.00930315)
(0.000193168 -0.0139806 0.00952421)
(0.000803444 -0.0146115 0.00941198)
(0.000614341 -0.0139658 0.0096949)
(0.000577576 -0.0142143 0.009523)
(0.000715575 -0.0136413 0.00890739)
(0.000896306 -0.0134647 0.00862787)
(0.00123382 -0.0135319 0.00850874)
(0.00122536 -0.0142119 0.00911959)
(0.0013803 -0.0136661 0.00862596)
(-0.000428286 -0.0121966 0.00748387)
(-0.000379561 -0.012388 0.00772477)
(-0.000413987 -0.0121709 0.00780867)
(-0.00021692 -0.0121707 0.00758606)
(-0.000461243 -0.0120277 0.00719105)
(-0.000453345 -0.0121351 0.00724506)
(-0.000694316 -0.011813 0.00629094)
(-0.00061358 -0.0120398 0.00617731)
(-0.00027298 -0.0120038 0.00674514)
(-0.000221226 -0.011976 0.00652223)
(-0.000211787 -0.011615 0.00620929)
(-0.000466312 -0.0120674 0.0067002)
(0.00526836 -0.00344267 0.00796244)
(0.00515361 -0.00384854 0.00864216)
(0.00490763 -0.00327742 0.00910793)
(0.00360678 -0.00503939 0.00516438)
(0.00302769 -0.00548189 0.0050525)
(0.0039664 -0.00557172 0.00591738)
(0.00428401 -0.00445307 0.00576327)
(0.00426489 -0.00504662 0.00649676)
(0.00371753 -0.00486061 0.00526409)
(0.00468681 -0.00474303 0.0065175)
(0.00329174 -0.00591907 0.00549409)
(0.00444734 -0.00442228 0.0105529)
(0.00462132 -0.00503442 0.00949238)
(0.00444211 -0.00483764 0.0109186)
(0.00495669 -0.00482915 0.00966604)
(0.00480283 -0.00399022 0.0100619)
(0.00446152 -0.0052658 0.010176)
(0.000967757 -0.00535178 0.0147883)
(0.00260432 -0.00463492 0.0146848)
(0.0015479 -0.00550739 0.0143446)
(0.00204205 -0.00410505 0.0140236)
(-0.0012207 -0.00462602 0.00578831)
(-0.00131857 -0.00470167 0.00668711)
(-0.00107021 -0.00520011 0.00588837)
(-0.00116574 -0.00463096 0.00616348)
(-0.00123604 -0.00505709 0.00596452)
(-0.00130469 -0.00448903 0.00643903)
(-0.000323506 -0.00604676 0.00469329)
(0.000125875 -0.00591617 0.00432382)
(-0.000236079 -0.00598597 0.00462675)
(3.99262e-05 -0.00610548 0.00460326)
(0.000104248 -0.00641688 0.00449216)
(0.000192505 -0.00644045 0.00451918)
(0.000774842 -0.00570177 0.00448481)
(0.000933411 -0.00586465 0.00444457)
(0.000190706 -0.00583557 0.00439399)
(0.00106471 -0.00606076 0.00448071)
(0.00033123 -0.00571755 0.00444977)
(0.000644583 -0.00621318 0.00444865)
(0.00178858 -0.00531313 0.00434838)
(0.00138801 -0.00555432 0.00435562)
(0.00136971 -0.00536347 0.00430165)
(0.00211574 -0.0052083 0.00427161)
(0.00173874 -0.00600763 0.00459413)
(0.000106193 -0.00474164 0.00425371)
(0.000176638 -0.0046816 0.00431018)
(0.00105309 -0.00436682 0.00375588)
(0.000919097 -0.0050181 0.0042033)
(0.000669016 -0.00496602 0.0042156)
(0.00126945 -0.00482081 0.00403239)
(0.000584726 -0.00455825 0.0040882)
(0.00126383 -0.00816894 0.00486515)
(0.00167233 -0.00837334 0.00536269)
(0.00142189 -0.00962232 0.0058495)
(0.000944931 -0.00910788 0.00516185)
(0.00198896 -0.00916271 0.00590058)
(0.000637486 -0.00849869 0.00494127)
(-0.000707932 -0.00698957 0.00481227)
(-0.000461837 -0.00758578 0.00474344)
(-0.00013812 -0.00718716 0.00454958)
(-0.000655135 -0.00682437 0.00464588)
(-0.000501969 -0.00687046 0.00462074)
(-0.000326822 -0.00752859 0.00478426)
(0.000545089 -0.00869622 0.00490969)
(9.07852e-05 -0.00796416 0.00468755)
(0.000325313 -0.00840938 0.00463742)
(0.000658816 -0.00812896 0.00477687)
(0.00059842 -0.00822842 0.00475574)
(0.000174329 -0.00813897 0.00491606)
(0.00143346 -0.00705943 0.0049132)
(0.0016198 -0.00677197 0.00478347)
(0.00131728 -0.006712 0.00475242)
(0.000771295 -0.00689905 0.00449123)
(0.00062413 -0.00670314 0.00449654)
(0.000773536 -0.00649901 0.00453097)
(0.00362832 -0.00724019 0.00741466)
(0.00352236 -0.00777683 0.00728618)
(0.00376416 -0.00756733 0.0077659)
(0.00329562 -0.0078168 0.00684849)
(0.00377295 -0.00703595 0.00728174)
(0.00369062 -0.00732836 0.0069277)
(0.00244154 -0.00794464 0.00584263)
(0.00293041 -0.00830664 0.00662698)
(0.00233635 -0.00834782 0.00583526)
(0.00219781 -0.00817871 0.00580731)
(0.00268488 -0.00875855 0.00668361)
(0.00308445 -0.00828236 0.00683196)
(0.00181062 -0.00621731 0.00467116)
(0.00252924 -0.0065088 0.00524359)
(0.00199651 -0.0066718 0.00494731)
(0.00256733 -0.00632493 0.00518189)
(0.00286717 -0.00652047 0.00540378)
(0.00202514 -0.00613366 0.00469802)
(0.000863602 -0.00914842 0.0133577)
(0.000818553 -0.0102023 0.0131825)
(0.00113275 -0.0101554 0.0129259)
(0.000767667 -0.0107005 0.0135427)
(0.00139359 -0.00968044 0.0137147)
(0.00127746 -0.00973208 0.0141808)
(0.000847681 -0.0139872 0.0108603)
(0.000909079 -0.0133507 0.0110019)
(0.000957364 -0.0146232 0.0116388)
(0.000623775 -0.0137756 0.0107803)
(0.0010093 -0.0137246 0.0118286)
(0.000882411 -0.0141067 0.0113962)
(0.00112937 -0.014013 0.0117737)
(0.000754183 -0.013017 0.0116698)
(0.000973326 -0.0130339 0.0112201)
(0.000552053 -0.0120454 0.0117674)
(0.000691508 -0.0136581 0.0126358)
(0.000773716 -0.0131643 0.0116034)
(0.000988358 -0.0130296 0.0122544)
(0.00074159 -0.0136004 0.0114601)
(0.000436186 -0.0116747 0.0120226)
(0.00024757 -0.011621 0.011931)
(0.000620779 -0.0121402 0.0127909)
(0.000503971 -0.0115336 0.0121277)
(0.000590009 -0.0110299 0.0122873)
(0.000448154 -0.0111074 0.012579)
(0.004027 -0.00824553 0.00934916)
(0.00395608 -0.00724293 0.0099571)
(0.00414826 -0.00798193 0.0101681)
(0.00385884 -0.00711113 0.00884135)
(0.00369447 -0.00771901 0.00839014)
(0.00370247 -0.00872371 0.010493)
(0.00359603 -0.00941542 0.0117624)
(0.00294179 -0.0096538 0.0106161)
(0.00329839 -0.00975023 0.00988426)
(0.00334442 -0.00967707 0.00969546)
(0.00357534 -0.00895666 0.009591)
(0.00246895 -0.0113121 0.0127203)
(0.00210994 -0.0101292 0.0120925)
(0.00202246 -0.00882701 0.0128404)
(0.00298862 -0.00894361 0.0125137)
(0.00273405 -0.0102554 0.0127421)
(0.00238303 -0.00835573 0.0126881)
(0.00355159 -0.00958747 0.00872168)
(0.00317745 -0.00892991 0.00751645)
(0.00316693 -0.00887724 0.00757543)
(0.00366471 -0.00834528 0.00824429)
(0.00352016 -0.00846695 0.00766039)
(0.00367033 -0.00898137 0.00874696)
(0.00182292 -0.0119695 0.0118944)
(0.00184347 -0.0110228 0.011736)
(0.00199407 -0.0114048 0.0127583)
(0.00167526 -0.0115792 0.0124999)
(0.00203819 -0.0119225 0.0131338)
(0.00173334 -0.0126692 0.012133)
(0.001165 -0.0123504 0.0123836)
(0.00124385 -0.0126883 0.0114375)
(0.000927426 -0.0129596 0.0118783)
(0.00137931 -0.0130961 0.0123856)
(0.00125397 -0.0131866 0.011554)
(0.00137728 -0.0128143 0.0118158)
(0.00173357 -0.0132688 0.0102709)
(0.00227713 -0.0134913 0.0107472)
(0.00209036 -0.0137503 0.0110387)
(0.00212297 -0.0134342 0.0101695)
(0.00207753 -0.014424 0.0111445)
(0.00207371 -0.0130951 0.0105176)
(0.00312037 -0.0111024 0.0100506)
(0.00266711 -0.0115988 0.011236)
(0.00288888 -0.0122509 0.0111083)
(0.00247328 -0.0107885 0.0112183)
(0.00286248 -0.0117962 0.0110214)
(0.00301106 -0.0121981 0.0105548)
(0.00251455 -0.0135021 0.00918506)
(0.00226824 -0.014371 0.0112144)
(0.00237206 -0.0132665 0.00996062)
(0.00276259 -0.0134929 0.00874544)
(0.00234086 -0.0138476 0.01005)
(0.00256672 -0.0149754 0.0103208)
(0.000596253 -0.00635285 0.0051532)
(0.000504416 -0.00619419 0.00525169)
(0.000546776 -0.00601374 0.00512274)
(0.000799552 -0.0061098 0.00497126)
(0.000909456 -0.00665918 0.00536752)
(0.000918756 -0.00611793 0.00502255)
(0.000239862 -0.00570883 0.00488307)
(0.000282333 -0.00618871 0.00521925)
(-4.32837e-05 -0.00648531 0.00553054)
(-7.80739e-05 -0.00634927 0.00526863)
(-0.000102448 -0.00623333 0.00533335)
(-5.69828e-05 -0.00591061 0.00524206)
(-0.000290195 -0.0073685 0.00568455)
(-0.000216208 -0.00685593 0.00556258)
(0.000146732 -0.0069795 0.00537872)
(-0.000157946 -0.00721875 0.00574843)
(-0.000329272 -0.00736286 0.00563896)
(-0.000486986 -0.00707373 0.00555215)
(-0.000175284 -0.00543159 0.00549287)
(-0.00014498 -0.00535083 0.0057425)
(0.000281593 -0.0058331 0.00574956)
(-5.20199e-05 -0.00521967 0.00517027)
(0.000122464 -0.00533087 0.00584244)
(-5.59439e-05 -0.00529545 0.00604479)
(-0.000851995 -0.00582656 0.00531726)
(-0.000816203 -0.00592433 0.00528512)
(-0.00104556 -0.00539043 0.00566545)
(-0.000834927 -0.00507449 0.00546123)
(-0.00107471 -0.00560004 0.00531516)
(-0.000538999 -0.00626727 0.00501617)
(-0.000486162 -0.00655541 0.00496355)
(-0.00066186 -0.00615199 0.00511505)
(-0.000522223 -0.0066638 0.0050314)
(-0.000416224 -0.0069738 0.00511115)
(-0.000507505 -0.00626536 0.00468182)
(0.0027057 -0.00470003 0.00443243)
(0.00235199 -0.00440325 0.0039954)
(0.00198191 -0.004687 0.00403417)
(0.00238587 -0.00500408 0.0042938)
(0.00319958 -0.00465461 0.00472448)
(0.00201219 -0.0131503 0.00941)
(0.00163103 -0.0134596 0.0100923)
(0.00208309 -0.0132301 0.00924965)
(0.00190353 -0.0131915 0.00947649)
(0.00179535 -0.0136197 0.00971012)
(0.00143191 -0.013047 0.00991547)
(0.0018754 -0.0122394 0.00903388)
(0.00182593 -0.0122501 0.00924513)
(0.00203205 -0.0121139 0.00860628)
(0.00230523 -0.0126211 0.00844367)
(0.00117014 -0.012405 0.00902294)
(0.000502501 -0.0139261 0.00996219)
(0.000108644 -0.0139891 0.0102449)
(-9.68173e-07 -0.0131337 0.00908283)
(0.000315554 -0.0131471 0.0088358)
(0.000576298 -0.0139199 0.0095981)
(5.18213e-06 -0.0129377 0.0092976)
(0.00112763 -0.0133101 0.00998971)
(0.000560901 -0.0129305 0.00940468)
(0.000438118 -0.0130777 0.00959285)
(0.00111121 -0.0134002 0.00981219)
(0.000746023 -0.0124589 0.00936691)
(0.000788118 -0.0130342 0.00959743)
(-0.000812374 -0.00953207 0.00617998)
(-0.000616355 -0.00967619 0.00652678)
(-0.00095639 -0.0108539 0.00579795)
(-0.000826886 -0.0108078 0.00611089)
(-0.000944603 -0.0104603 0.00601842)
(0.000608931 -0.0130041 0.00593713)
(0.00047556 -0.0133566 0.00605703)
(0.000853921 -0.0128977 0.00598704)
(0.00104283 -0.0136217 0.00610408)
(0.000912537 -0.0133212 0.00607385)
(0.00114827 -0.0130656 0.00583721)
(-0.000511185 -0.0108954 0.00561986)
(-0.000403798 -0.0116913 0.00602517)
(-0.000118086 -0.0113826 0.00571541)
(-0.000689656 -0.0113737 0.00578194)
(-0.000680323 -0.0105461 0.0055434)
(-0.000777415 -0.0110394 0.00599496)
(-0.000898373 -0.00934538 0.00611609)
(-0.000791257 -0.0100272 0.00597579)
(-0.000672952 -0.00893411 0.0058597)
(-0.0009068 -0.00910933 0.00576345)
(-0.000647296 -0.00994985 0.00583385)
(-0.0009321 -0.00971776 0.00595098)
(0.00168074 -0.0114743 0.00620229)
(0.00189681 -0.011076 0.00632814)
(0.000939711 -0.0108071 0.00550782)
(0.00110857 -0.0106511 0.00568031)
(0.00136903 -0.0114456 0.00589443)
(0.00263999 -0.0136602 0.00858599)
(0.00203587 -0.0128103 0.00932486)
(0.0025539 -0.0145976 0.00960772)
(0.00259671 -0.0140324 0.00951118)
(0.00235099 -0.0133314 0.00905691)
(0.00236551 -0.0128139 0.00756216)
(0.00212177 -0.0134263 0.00713309)
(0.00239306 -0.0132625 0.00773361)
(0.00246914 -0.0123828 0.00773871)
(0.00245593 -0.0130575 0.0080021)
(0.00198032 -0.0136196 0.00650858)
(0.00136548 -0.0130743 0.00575067)
(0.00163889 -0.013619 0.00617855)
(0.00158424 -0.0131826 0.00608583)
(-0.00060197 -0.0085177 0.00524324)
(-0.00057221 -0.00863801 0.00490388)
(-0.000500907 -0.00824188 0.00485902)
(-0.000799586 -0.00771352 0.00482652)
(-0.0007584 -0.0081591 0.00494783)
(-0.000309173 -0.00874489 0.00496743)
(0.000131988 -0.0080916 0.00474451)
(2.601e-06 -0.00905688 0.00518407)
(-0.000346314 -0.00792259 0.00470045)
(-0.000538765 -0.00819893 0.00488986)
(0.000188111 -0.00855749 0.0048236)
(-0.000366328 -0.00820444 0.0060823)
(-0.000158725 -0.00849166 0.00628515)
(-0.000512424 -0.00894254 0.00622797)
(-0.000524657 -0.00858017 0.00597102)
(-0.000223448 -0.00807837 0.00603872)
(-0.000467586 -0.00893841 0.00641568)
(0.00137739 -0.0124653 0.00622864)
(0.0015912 -0.0124085 0.00623586)
(0.00157069 -0.0126509 0.00607163)
(0.0011169 -0.0123803 0.00596876)
(0.00155713 -0.0120031 0.00614743)
(8.22528e-05 -0.0102503 0.00523579)
(0.00039239 -0.0106737 0.00521455)
(0.000312393 -0.0112315 0.00552172)
(0.000176987 -0.01103 0.00545069)
(9.82801e-05 -0.0106395 0.00553255)
(0.000255226 -0.0105575 0.00539819)
(0.000446337 -0.0107088 0.005354)
(0.000203033 -0.0109837 0.00546307)
(0.000955577 -0.0115151 0.00577178)
(0.000427605 -0.0107738 0.00515518)
(0.000709878 -0.0112708 0.00561721)
(0.00081115 -0.0117104 0.00581556)
(0.000288927 -0.00739161 0.00584491)
(0.00050368 -0.00767184 0.00611609)
(6.76736e-06 -0.00779406 0.00617602)
(-0.000656957 -0.00542138 0.00507461)
(-0.000635185 -0.00573162 0.00491026)
(-0.00026002 -0.00541893 0.0045718)
(-0.000882521 -0.00521491 0.00517242)
(-0.000262404 -0.00555898 0.00452255)
(-0.000560216 -0.00542609 0.00511721)
(0.000367436 -0.00538719 0.00444415)
(-0.000236293 -0.00494767 0.00462276)
(0.000250444 -0.00544297 0.00459147)
(-2.27202e-05 -0.00544482 0.00454672)
(-0.000322004 -0.00519856 0.00472759)
(0.0014696 -0.0109101 0.00582616)
(0.00131977 -0.0103442 0.00534174)
(0.0017076 -0.00937456 0.00546674)
(0.0020185 -0.0104099 0.00618152)
(0.00167834 -0.0104681 0.00588452)
(0.00116957 -0.00983149 0.00480245)
(0.00142605 -0.00807006 0.00488498)
(0.001589 -0.00823807 0.00486526)
(0.00195342 -0.00879261 0.00576591)
(0.0015925 -0.00787681 0.00491948)
(0.00160716 -0.00881154 0.00501609)
(0.00177473 -0.00804782 0.0052349)
(0.00157679 -0.00889797 0.00543617)
(0.0013156 -0.00472594 0.00915743)
(0.0016312 -0.00518164 0.00904656)
(0.000602199 -0.00414259 0.00773988)
(0.00053328 -0.00469746 0.00797521)
(0.000454869 -0.0044564 0.00860018)
(0.00117354 -0.00487588 0.00837706)
(0.00173011 -0.00464797 0.00952013)
(0.00260677 -0.00477197 0.00967128)
(0.00242487 -0.00520805 0.00997781)
(0.00211782 -0.00436057 0.0100264)
(0.00262291 -0.00431099 0.0104052)
(0.0043691 -0.0110933 0.00883118)
(0.00410852 -0.00991444 0.00826217)
(0.00476066 -0.01061 0.00902239)
(0.00375609 -0.0112381 0.00841235)
(0.00352892 -0.011832 0.00853827)
(0.00453714 -0.00924248 0.00840968)
(0.00101398 -0.0146419 0.0116289)
(0.000951486 -0.0141326 0.0108261)
(0.00163016 -0.0141886 0.0108287)
(0.00125161 -0.0140141 0.0106537)
(0.00114109 -0.0137092 0.0109988)
(0.0012218 -0.0143844 0.0108044)
(0.000203179 -0.0138667 0.00991909)
(0.00062093 -0.0142872 0.0106405)
(0.000607313 -0.0134591 0.00976947)
(0.000627068 -0.0140672 0.0105513)
(0.000445524 -0.0144715 0.0104246)
(0.000446152 -0.0139525 0.00965477)
(0.000966788 -0.0140591 0.0106767)
(0.000623465 -0.0145713 0.0110519)
(0.00397374 -0.0143369 0.0108482)
(0.00349755 -0.0132856 0.00991216)
(0.00351665 -0.0137567 0.0102194)
(0.00374078 -0.0137321 0.0101496)
(0.00325635 -0.0144115 0.0102355)
(0.00329327 -0.0138421 0.0095586)
(0.00316518 -0.0135142 0.00953331)
(0.00321567 -0.0127938 0.00880738)
(0.00362258 -0.0132284 0.00922727)
(0.00355593 -0.0121364 0.00861241)
(0.0049326 -0.00952892 0.00939493)
(0.00487147 -0.00957381 0.00910878)
(0.00506843 -0.0087708 0.00966355)
(0.00542707 -0.00785979 0.010096)
(0.00550949 -0.0085781 0.0101402)
(-0.000213999 -0.00409304 0.00871658)
(-0.000237408 -0.00371497 0.00906001)
(0.000221387 -0.0040263 0.0100767)
(0.00188021 -0.00515055 0.00842168)
(-9.19436e-05 -0.0036006 0.00881757)
(2.90112e-05 -0.00412643 0.00832223)
(0.00252219 -0.00505047 0.00914835)
(0.0018712 -0.00506527 0.00913065)
(0.00112897 -0.00968599 0.00491993)
(0.00177121 -0.00992701 0.00597731)
(0.0020202 -0.0105456 0.0064164)
(0.00156226 -0.0109882 0.00636688)
(0.00170297 -0.0108138 0.00637863)
(0.00159436 -0.011269 0.00627924)
(0.0018037 -0.0100201 0.00614763)
(0.0018788 -0.0092036 0.00594801)
(0.00202567 -0.00948932 0.00621616)
(0.00189748 -0.00999586 0.0057496)
(0.00197458 -0.00861771 0.00570403)
(0.00175766 -0.00853916 0.0056652)
(0.00193819 -0.00816956 0.00598052)
(0.0023943 -0.00835474 0.00638163)
(0.00195185 -0.00879945 0.00584848)
(0.00218518 -0.00876037 0.00606876)
(0.00271001 -0.00921847 0.00688081)
(0.00240517 -0.00841097 0.00628511)
(0.00238771 -0.0107457 0.00669007)
(0.00206013 -0.0096646 0.00605117)
(0.00221231 -0.0099886 0.00629138)
(0.00262647 -0.00947197 0.00681325)
(0.00245857 -0.0105473 0.00677437)
(0.00271678 -0.0101133 0.00693867)
(0.000493682 -0.0123903 0.0119559)
(0.000131733 -0.00749838 0.00596795)
(3.00175e-06 -0.00756353 0.00585193)
(-6.07892e-05 -0.00776471 0.00600714)
(-9.69979e-05 -0.00799209 0.00615247)
(0.000724413 -0.00723362 0.00555172)
(-5.7501e-06 -0.0072192 0.00568567)
(0.00114252 -0.00724444 0.00535627)
(0.00133776 -0.00749038 0.00566128)
(0.00119229 -0.00742509 0.00539036)
(0.00107915 -0.00693642 0.00514691)
(0.0014051 -0.00747372 0.00545988)
(0.00125791 -0.00732336 0.00517926)
(0.00119214 -0.00688253 0.00507856)
(0.00116084 -0.00693556 0.00491085)
(0.001167 -0.00715535 0.0056099)
(0.00104888 -0.00671207 0.00525155)
(0.000439935 -0.0107671 0.00514969)
(0.000130054 -0.010235 0.00517774)
(0.000591442 -0.0111625 0.00505112)
(0.000829768 -0.0120251 0.00527388)
(0.000516258 -0.0120318 0.0052423)
(0.000896377 -0.0114468 0.00543893)
(0.00116871 -0.0117448 0.00595069)
(0.00202978 -0.0131302 0.00658256)
(0.00234049 -0.0132408 0.00694466)
(0.00111263 -0.012791 0.00605766)
(0.0015526 -0.0126699 0.00623849)
(0.00215923 -0.013685 0.00708108)
(0.000588341 -0.0117061 0.00557435)
(0.000718796 -0.011845 0.00580127)
(-3.76256e-05 -0.011702 0.0058316)
(0.00121375 -0.0125738 0.00575187)
(0.00144416 -0.0130718 0.0060747)
(0.000854867 -0.012161 0.00531991)
(0.000685567 -0.0123165 0.00552511)
(0.00112529 -0.0130743 0.00592101)
(0.00148414 -0.0130743 0.00590228)
(0.00161453 -0.0136571 0.00618826)
(0.00135567 -0.0130123 0.00595655)
(0.00121252 -0.0127079 0.00568564)
(0.00179206 -0.0132739 0.00655838)
(0.000828337 -0.0125939 0.006036)
(0.000667139 -0.012635 0.00566947)
(0.000940154 -0.0125716 0.00585426)
(0.000931983 -0.0129687 0.00598922)
(9.82454e-05 -0.012014 0.00567237)
(0.000303818 -0.012442 0.00587688)
(0.000592643 -0.0121296 0.00571443)
(0.000497169 -0.0126351 0.00574812)
(0.000171209 -0.0123013 0.00600205)
(0.000432777 -0.012393 0.00572694)
(-0.000774355 -0.00754353 0.00504151)
(-0.000623034 -0.00733759 0.00524776)
(-0.000545799 -0.00720896 0.00529693)
(-0.000601571 -0.00795938 0.00522072)
(-0.000800708 -0.00902903 0.00566577)
(-0.000737964 -0.0087027 0.00556817)
(-0.000605181 -0.00830432 0.00573247)
(-0.000456858 -0.00761667 0.00544213)
(-0.000739329 -0.00831532 0.00567335)
(-0.000527958 -0.00796347 0.00537437)
(-0.000246796 -0.00793014 0.00587377)
(-0.000387078 -0.00829665 0.00610633)
(-6.95561e-05 -0.00778378 0.00606986)
(-0.000486584 -0.00839902 0.00582171)
(-0.000485535 -0.00863821 0.00595543)
(-0.000555497 -0.0088359 0.00597239)
(-0.00074634 -0.00878579 0.00559923)
(-0.000609704 -0.00692189 0.00497604)
(-0.000423935 -0.0071081 0.00541565)
(-0.000570063 -0.00649979 0.00495655)
(-0.000503361 -0.00668546 0.00521091)
(-0.000556975 -0.00626103 0.0049255)
(-0.000379284 -0.0063 0.00510807)
(0.00181491 -0.0133604 0.00639534)
(0.00189501 -0.0134506 0.00698453)
(0.00175539 -0.0133254 0.00623085)
(0.0020093 -0.0129576 0.0064496)
(0.0023179 -0.0141841 0.00692796)
(0.0023281 -0.0137799 0.00748436)
(0.00237727 -0.0127507 0.00737832)
(0.00226507 -0.0131565 0.00797433)
(0.00255019 -0.013189 0.00803485)
(0.00231315 -0.0126797 0.008127)
(0.00221554 -0.0129221 0.00909542)
(0.00179514 -0.0115788 0.0062316)
(0.000929577 -0.0107384 0.00542416)
(-0.000655944 -0.00945615 0.00550991)
(-0.000587569 -0.00866716 0.00535859)
(-0.000631545 -0.00891289 0.0055544)
(-0.000785329 -0.00934121 0.00625159)
(-0.00016731 -0.00880751 0.00510081)
(-0.000209905 -0.0102045 0.00546667)
(-0.000520515 -0.00931522 0.00513813)
(-0.000456154 -0.0101086 0.00551456)
(-0.000541923 -0.00966676 0.00548316)
(-0.000161225 -0.00989004 0.005189)
(1.47387e-05 -0.0102937 0.00536295)
(-0.000485601 -0.00949398 0.0051247)
(-5.31604e-05 -0.00907885 0.00491747)
(-4.4957e-05 -0.0104032 0.00540568)
(-0.000255923 -0.0103916 0.00576064)
(-0.000195292 -0.0117593 0.00566636)
(-0.000489759 -0.00985004 0.00544217)
(-0.00067974 -0.00961889 0.00552541)
(-0.000666277 -0.00965843 0.00548864)
(-0.000673266 -0.00968619 0.00581959)
(-0.000896273 -0.00891226 0.00535285)
(0.000709598 -0.0102034 0.00528154)
(0.000384514 -0.00983502 0.00505701)
(0.000218178 -0.010215 0.00522788)
(0.00013562 -0.00987973 0.00509966)
(8.44889e-05 -0.0094164 0.00514136)
(0.0011619 -0.0130906 0.00572809)
(0.00137669 -0.013443 0.00604569)
(0.000194542 -0.0129513 0.00586674)
(0.00010201 -0.0131829 0.00583012)
(-0.000987369 -0.0101036 0.00623873)
(-0.000747748 -0.0104492 0.00578098)
(-0.000652516 -0.0115152 0.0059205)
(0.000837368 -0.0140114 0.0106678)
(0.000515567 -0.0138511 0.0101886)
(0.000679428 -0.0140702 0.0107102)
(0.000905534 -0.014459 0.0105804)
(0.00062497 -0.0132198 0.00957164)
(0.000408413 -0.0139528 0.0101756)
(0.000838678 -0.0143603 0.0108405)
(0.000549838 -0.0140055 0.0104158)
(3.21423e-05 -0.0118279 0.00811886)
(0.000153968 -0.0128069 0.00893218)
(0.000392829 -0.0121193 0.0087274)
(0.000265551 -0.0118705 0.00879235)
(0.00163638 -0.0134199 0.0102326)
(0.00137268 -0.0141074 0.0107354)
(0.00119849 -0.0138052 0.0104214)
(0.000489491 -0.0131751 0.00928207)
(0.000130475 -0.0128286 0.00902269)
(0.000571643 -0.0120457 0.00889573)
(0.000687369 -0.0119098 0.00939299)
(0.000535653 -0.0115995 0.00873421)
(0.000677786 -0.011867 0.00897528)
(0.00134347 -0.012739 0.00934255)
(0.000912308 -0.0123085 0.00919089)
(0.00179094 -0.0130362 0.00924081)
(0.000926246 -0.0122276 0.00952387)
(0.00174739 -0.012112 0.00854013)
(0.00218914 -0.0130108 0.00872416)
(0.00249441 -0.0132985 0.00846237)
(0.00196992 -0.0124747 0.00876234)
(0.00231017 -0.0125721 0.00767794)
(0.00230984 -0.0130372 0.0087202)
(0.00243536 -0.0129028 0.0084143)
(0.00154746 -0.0141263 0.0102388)
(0.00136711 -0.0133839 0.00986305)
(0.001321 -0.0130958 0.00976077)
(0.00219193 -0.0136913 0.0100333)
(0.00202922 -0.0139293 0.0101206)
(0.00172426 -0.0136512 0.0100703)
(0.00155216 -0.0125227 0.00908005)
(0.00150199 -0.0124851 0.00954081)
(0.00144542 -0.0124159 0.00897998)
(0.00218538 -0.0132409 0.0089713)
(0.00230075 -0.01331 0.00878459)