/*--------------------------------*- C++ -*----------------------------------*\
| =========                 |                                                 |
| \\      /  F ield         | OpenFOAM: The Open Source CFD Toolbox           |
|  \\    /   O peration     | Version:  v1612+                                |
|   \\  /    A nd           | Web:      www.OpenFOAM.com                      |
|    \\/     M anipulation  |                                                 |
\*---------------------------------------------------------------------------*/
FoamFile
{
    version     2.0;
    format      ascii;
    class       volScalarField;
    location    "150";
    object      p;
}
// * * * * * * * * * * * * * * * * * * * * * * * * * * * * * * * * * * * * * //

dimensions      [0 2 -2 0 0 0 0];

internalField   nonuniform List<scalar> 
17062
(
1.99908
1.9395
1.91637
1.95094
1.94559
1.94716
1.94516
1.95567
1.95507
1.95164
1.94755
1.94979
1.95415
1.95519
1.9539
1.95518
1.95297
1.95157
1.92344
1.92447
1.93094
1.93229
1.93076
1.92822
1.93407
1.93403
1.9365
1.92912
1.92696
1.93414
1.93041
1.93252
1.92943
1.93138
1.99909
2.00914
2.00823
1.98092
1.99565
2.01809
2.01605
1.98367
1.99914
1.98501
2.02739
2.02285
2.01348
2.02327
2.02638
2.01847
2.0123
2.01474
2.02212
2.00264
1.97023
1.97375
1.97105
1.96796
1.95932
1.96737
1.96393
1.97472
1.98225
1.97318
1.9584
1.97175
1.98926
1.98335
1.95547
1.97683
1.97462
2.0185
2.02414
2.02839
2.00582
2.00138
2.02131
2.00677
2.00506
2.02643
2.00462
2.01261
2.01806
2.02393
1.99852
1.98951
1.99373
1.99173
2.00082
2.11043
2.09801
2.14114
2.13698
2.12192
2.11359
2.0951
2.15403
2.16859
2.13444
2.12216
2.15233
2.14569
2.13151
1.93415
1.93154
1.92665
1.92799
1.9206
1.92378
1.92584
1.93385
1.94919
1.94969
1.9166
1.93517
1.9267
1.93856
1.95084
1.93572
1.94345
1.93156
1.94619
1.94965
1.97705
1.98025
1.95559
1.95238
1.98234
1.96819
1.96148
1.95943
1.97704
1.96405
1.97153
1.97517
1.9585
1.9758
1.95952
1.95467
1.96473
2.00987
2.01756
2.02394
2.03075
2.0114
2.01728
1.99918
1.99849
1.96827
1.97892
1.98514
1.98971
1.98202
1.95615
2.08879
2.11172
2.10099
2.05405
2.11526
2.09386
2.05799
2.08474
2.06285
2.09082
2.05588
2.10099
1.92858
1.93306
1.92622
1.92008
1.92308
1.93023
1.92647
1.91487
1.91653
1.9157
1.91352
1.92185
1.92533
1.91967
1.90914
1.91205
1.9236
1.91065
1.916
1.98577
1.98757
1.98431
1.97554
1.97469
1.97205
1.98164
1.95398
1.9612
1.97685
1.97859
1.98302
1.98001
1.9578
1.95756
1.97727
1.96409
1.94892
1.94448
1.95202
1.9476
1.9435
1.93323
1.93424
1.94557
1.95228
1.94383
1.94762
1.9478
1.95164
1.94153
1.94624
1.96298
1.96366
1.96542
1.96404
1.96795
1.9649
1.96907
1.96535
1.96319
1.95941
1.9608
1.97093
1.96658
1.97008
1.97051
1.9737
1.97624
1.97036
1.9675
1.97677
1.97359
1.97025
1.97258
1.97185
1.96432
1.97479
1.97365
1.97526
1.97282
1.97629
1.96972
1.96511
1.96579
1.9764
1.97327
1.97126
2.12367
2.1405
2.12665
2.14606
2.14934
2.15623
2.1516
2.11012
2.11752
2.14363
2.15784
2.16514
2.16242
2.17161
2.2566
2.25223
2.22995
2.2513
2.23927
2.25113
2.21806
2.21927
2.23422
2.23232
2.22488
2.21306
2.20585
2.21086
1.95706
1.95297
1.95689
1.95535
1.955
1.96035
1.95946
1.95444
1.96082
1.96057
1.95892
1.96122
1.95591
2.13762
2.13006
2.14244
2.15759
2.14823
2.14611
2.15342
2.13064
2.14805
2.14055
2.15067
2.13377
2.11652
2.11737
2.12074
2.10405
2.1968
2.18909
2.18924
2.23773
2.24204
2.22339
2.22415
2.21837
2.20484
2.24232
2.2568
2.20251
2.22928
2.24052
2.24701
2.07547
2.05072
2.05721
2.0856
2.06862
2.04309
2.04378
2.02589
2.03366
2.04619
2.02641
2.03419
2.02376
2.05084
2.05255
2.04843
2.07387
2.08561
2.06237
2.0784
2.08635
1.96162
1.96123
1.96053
1.96432
1.96319
1.96153
1.96401
1.97004
1.9602
1.96372
1.96803
1.96835
1.96591
1.99224
2.00222
1.98568
1.99832
1.99539
2.00233
1.9824
1.8882
1.89144
1.88989
1.89281
1.89244
1.89548
1.89361
1.89635
1.8957
1.89741
1.89659
2.08353
2.10242
2.0658
2.06287
2.07299
2.09918
2.11129
2.08829
2.11308
2.10758
2.08727
1.9992
1.99939
1.98084
1.97537
1.99797
2.00023
2.00696
2.03769
2.02538
1.99307
1.99361
2.00356
2.01032
2.02389
2.03275
2.03632
2.00899
2.0236
2.01807
2.00866
1.93373
1.92691
1.92301
1.92845
1.93926
1.92693
1.93484
1.93241
1.93475
1.92692
1.91575
1.92093
1.92778
1.93436
1.92497
1.92939
1.92639
1.92298
1.91853
1.92336
1.92596
1.92736
1.92776
1.93058
1.9812
1.96346
1.9696
1.98935
1.97056
1.98817
1.97846
1.98097
1.98094
1.95822
1.95931
1.9686
1.98277
1.96924
1.98131
1.98995
1.99257
1.99202
2.03296
2.0493
2.01172
2.00031
2.03301
2.03091
2.00901
2.01982
2.00001
2.0142
2.02579
2.02608
2.02271
2.01684
2.0152
2.00719
2.05089
2.0213
2.02693
1.89852
1.89358
1.90158
1.89691
1.89339
1.8954
1.89616
1.89468
1.89178
1.89202
1.88779
1.89927
1.89351
1.89287
1.96263
1.97158
1.97445
1.95238
1.96292
1.98734
1.98223
1.97233
1.99272
1.97033
1.96352
1.9893
1.98969
1.96677
1.99195
1.98542
2.00467
2.01495
2.00642
2.01191
2.02246
1.98296
1.97545
1.97845
1.98025
1.99852
1.99529
2.01508
1.99824
1.99239
2.02188
2.02058
2.008
1.99951
2.01527
2.01099
1.96341
1.95528
1.9616
1.95448
1.95406
1.94733
1.94341
1.95519
1.93863
1.94597
1.95006
1.94789
1.93228
1.93985
1.93842
1.95922
1.95932
1.95889
1.95788
1.9642
1.95887
1.95977
1.96532
1.95661
1.95133
1.95586
1.95088
1.95338
1.9475
1.95526
1.96468
1.955
1.95644
1.95643
1.94905
1.95906
1.94198
1.93931
1.94116
1.93923
1.94724
1.9413
1.94332
1.94235
1.94204
1.94547
1.94468
1.9503
1.95201
1.94704
1.94768
1.94809
2.11164
2.13146
2.13671
2.10382
2.11419
2.12157
2.13509
2.11876
2.1025
2.09092
2.08528
2.14266
2.10731
2.09874
2.13568
2.13151
1.99136
2.00353
2.01219
2.0338
2.01152
2.01612
2.01879
2.02215
1.9933
1.99203
2.0102
1.98114
1.97913
1.98879
1.9932
1.99387
2.00069
1.97906
1.9831
1.98933
1.98225
1.95127
1.94499
1.93631
1.94898
1.94058
1.93829
1.92227
1.93251
1.91801
1.94548
1.94812
1.93854
1.93189
1.92682
1.92299
2.20375
2.21518
2.17766
2.19113
2.22197
2.2365
2.20815
2.22261
2.23609
2.16484
2.19006
2.18058
2.23488
2.22549
2.1716
2.17665
2.18005
2.21027
2.2008
2.09246
2.10212
2.12185
2.11276
2.06869
1.97053
1.99882
1.99356
1.99014
1.98734
1.99315
1.97877
1.9876
1.97794
1.99817
1.99485
1.99113
1.99378
1.98016
1.98759
1.98979
1.99502
1.99189
1.99984
1.99753
1.98372
1.98105
1.9769
1.97546
1.97401
1.97402
1.9729
1.97081
1.97161
1.97754
1.97641
1.97664
1.97536
1.9719
1.9713
2.06699
2.06615
2.11334
2.10818
2.1126
2.08038
2.06829
2.1234
2.12179
2.06737
2.09664
2.08243
2.10494
2.11222
2.12407
2.11967
2.13028
2.09052
2.07743
2.11345
2.11149
2.12374
2.12918
2.0998
2.0959
2.08322
2.08464
2.1143
2.09845
2.09498
2.12042
2.08698
2.10013
2.14473
2.17542
2.16768
2.15667
2.14536
2.17654
2.18877
2.20821
2.17498
2.17341
2.1984
2.21411
2.1748
2.20059
2.17815
2.18113
2.22059
2.21073
2.18157
2.20182
2.08968
2.08934
2.10197
2.09783
2.11022
2.10435
2.10207
2.18643
2.15641
2.14788
2.15083
2.12709
2.16806
2.16484
2.1188
2.0976
2.13829
2.12903
2.16938
2.15246
2.1327
2.02629
2.0403
2.05281
2.06384
2.03496
2.05984
2.07479
2.04765
2.03242
2.04898
2.0614
2.03155
2.03894
2.0477
2.06587
2.06614
2.04092
2.06043
1.99576
1.98512
2.00617
2.00632
1.99367
1.99674
1.99858
1.9827
1.97782
1.99351
1.91854
1.91798
1.9113
1.9184
1.91088
1.91786
1.92497
1.91742
1.91834
1.9091
1.92582
1.91934
1.92058
1.9269
1.92642
2.01414
1.98807
1.99072
1.98925
1.99432
1.98039
2.02052
1.99477
1.99697
2.03104
1.99653
2.0116
2.01886
2.01001
1.95758
1.94928
1.95079
1.95811
1.96988
1.96321
1.94798
1.95547
1.95526
1.97379
1.97146
1.96849
1.97145
1.98075
1.9744
2.02857
2.03259
2.03029
2.04196
2.04516
2.03853
2.02474
2.04737
2.05741
2.03236
2.03743
2.03538
2.01963
2.02144
2.04599
2.05774
2.05
2.06033
2.02768
2.03965
1.94011
1.94544
1.94562
1.94349
1.95116
1.95505
1.94075
1.94551
1.94027
1.94565
1.94297
1.9544
1.95369
1.95189
1.94985
1.94939
1.94232
1.94045
1.95258
1.93883
1.94034
1.94158
1.93881
1.91794
1.92946
1.92589
1.94206
1.94197
1.90991
1.91569
1.91635
1.91796
1.93446
1.9259
1.92172
1.92318
1.91813
1.924
1.92895
1.92487
1.93547
1.93575
1.92791
1.92594
1.92856
1.93434
1.92448
1.92649
1.92989
1.93089
1.92762
1.92478
1.92636
1.92515
2.01966
2.02208
2.00048
2.00824
2.00479
2.01024
2.03271
2.02786
2.02888
2.0323
2.012
2.01835
2.04707
2.04121
2.03481
2.0235
2.02222
2.03166
2.03686
2.05101
2.05708
2.04638
2.04578
2.05638
2.02537
2.0414
2.03539
1.95651
1.96551
1.93481
1.9464
1.95633
1.95703
1.95522
1.95187
1.96197
1.96651
1.95562
1.96116
1.9442
1.95018
1.95573
1.96904
1.96337
1.9655
1.96471
1.97315
1.96387
1.96444
1.97178
1.96959
1.96676
1.96875
1.96692
1.96613
1.96438
1.96359
1.9628
1.97178
1.97135
1.96769
1.96365
1.96393
1.96445
1.91784
1.91563
1.91205
1.91409
1.91794
1.91886
1.91151
1.91873
1.91815
1.9087
1.91033
1.90954
1.91952
1.91087
1.91517
1.91632
1.90966
1.91351
1.91113
1.91098
1.90191
1.89831
1.90689
1.98291
1.98021
1.8847
1.88614
1.88375
2.02507
2.02792
1.92439
1.92252
1.9132
1.96249
1.95965
1.96265
1.8922
1.89262
1.88666
1.89298
1.89609
2.01932
2.02
2.01552
2.00316
1.90944
1.90484
1.90767
1.9006
2.03604
2.03472
2.03483
1.9201
1.9067
1.91104
1.91977
1.91357
1.90589
1.90786
1.8961
1.89939
1.89677
1.97357
1.98141
1.90313
1.90061
1.8978
1.91712
1.92212
1.92455
1.91268
1.90662
1.90684
1.94237
1.94222
2.02327
2.02784
1.9046
1.90405
1.90845
1.91076
1.9149
1.90993
2.04486
2.04603
1.9162
1.9168
1.90967
1.91263
1.90903
1.9095
1.90868
2.05391
2.04907
1.96088
1.96077
2.06585
2.06694
1.92176
1.91914
1.92083
1.91816
1.91002
1.91443
1.91388
1.91888
1.91804
1.92189
1.92182
1.9892
1.97841
1.97654
1.97317
1.96582
1.94786
1.93971
1.93415
2.03707
2.03672
1.94291
1.95637
1.94807
1.9515
1.97223
1.98195
1.9835
2.07533
2.07656
2.06662
2.08048
2.07927
1.92266
1.92883
1.92281
1.93565
1.9337
1.93306
1.92791
1.92988
1.93398
1.93391
1.93869
2.02732
2.02872
2.0236
2.00381
2.01598
2.05868
2.03884
2.03129
2.04109
1.94337
1.94537
1.9426
1.94245
1.99163
1.98233
1.99442
1.93583
1.93059
1.92861
2.09661
2.09766
2.09769
2.0953
2.0854
2.08778
2.07088
2.07089
1.94039
1.94042
1.93049
1.93758
2.03198
2.0262
2.04101
2.03544
2.04615
1.96607
1.96795
1.9546
1.95067
1.93999
1.94222
1.95061
1.95356
1.9499
1.95169
1.94819
2.10772
2.10652
2.11154
2.09036
1.95914
1.95754
1.9517
1.94998
1.95193
1.95777
1.95529
1.98728
1.98308
1.99129
2.06862
2.0864
2.09551
2.09328
2.06423
2.06524
1.98111
1.97404
1.98124
1.94005
1.93292
1.95556
1.96116
2.15489
2.15281
2.13844
2.14382
1.95205
1.95064
1.96353
1.96201
2.12869
2.12675
2.06588
2.06682
2.10443
2.11501
2.11152
1.98165
1.96737
1.9878
1.99097
1.94748
1.95564
1.95282
2.16197
2.16078
2.15358
2.15821
2.15091
1.97215
1.97085
1.96937
1.96512
1.9623
1.96383
2.05188
2.06007
1.95977
1.95629
1.99143
1.98736
1.98548
1.9717
2.17126
2.1762
1.94579
1.94647
1.95464
1.98824
1.98546
2.11881
2.11593
2.11512
2.14536
2.19857
2.19738
1.96756
1.96757
1.95975
1.96215
2.17374
2.16802
1.98498
1.98187
1.99595
2.00117
2.0011
2.0323
2.01924
2.0183
2.18547
2.1719
2.17287
1.97758
1.97748
1.98211
1.97544
1.97496
1.97361
1.97244
2.13946
2.14994
2.14566
2.00239
1.99517
1.99246
2.25125
2.23943
2.24013
2.21747
2.20135
2.18049
2.18467
2.26614
2.26116
2.23852
2.2231
2.21093
2.24364
2.16061
2.13669
2.15522
2.06246
2.06042
2.02149
2.02232
2.03799
2.22242
2.22507
2.23964
2.24799
2.2418
2.232
2.23386
2.25336
2.23533
2.24895
2.23349
2.26246
2.27579
2.2505
2.2321
2.24621
2.25769
2.24816
2.0283
2.04751
2.01933
2.01702
2.03206
2.0524
2.0196
1.9996
2.01437
2.01607
1.97659
1.97667
1.98019
1.97969
1.98485
2.16235
2.17664
2.17115
2.19312
2.16872
2.14293
2.13767
2.11882
2.15349
2.15377
2.15355
2.15682
1.99403
1.99652
1.985
1.98774
1.98288
1.99515
1.99262
1.99314
2.22884
2.20985
2.22866
2.21011
2.1718
2.21808
2.20171
2.19412
2.19947
2.22424
2.21543
2.21047
2.19359
2.22237
2.22147
1.96653
1.97542
1.98285
1.97514
1.95675
1.94719
1.96779
1.9674
2.09332
2.08211
2.10004
2.11143
2.12993
2.09182
2.10244
2.11907
2.13224
2.13594
2.17997
2.17022
2.17381
2.19834
2.13494
2.13821
2.15757
2.14979
1.96842
1.96968
1.97159
1.96291
1.95777
1.96135
1.96862
1.97217
1.96748
1.96515
1.96609
1.96969
1.97328
1.97511
1.98285
1.96999
1.97337
1.99906
1.97857
1.97845
1.97368
1.97417
1.97663
1.97476
1.97421
1.97756
1.9777
1.97298
1.97372
2.08035
2.08216
2.09936
2.01323
2.00632
1.98822
1.99719
2.00107
2.04104
2.02666
2.00615
2.03065
2.04702
1.97495
1.97842
1.9778
1.98528
1.98329
1.98445
1.98375
1.97915
1.97741
1.97853
1.98218
1.98487
2.13889
2.14203
2.15742
2.19805
2.18716
2.1814
2.19176
2.20648
2.15077
2.15765
2.17992
2.16531
2.17013
2.19158
2.20508
2.17482
2.19878
2.18051
1.96198
1.9682
1.96215
1.96596
1.96576
1.96091
1.9682
2.11109
2.1458
2.10518
2.13075
2.13527
2.06501
2.06514
2.09465
2.09032
2.08298
2.09714
2.09754
1.94675
1.93885
1.93142
1.94892
2.1667
2.15541
2.18141
2.19414
2.19645
2.18064
2.17206
2.18049
2.16915
1.97658
1.98065
1.98548
1.97261
1.96419
2.08104
2.07047
2.08166
2.10417
2.08914
2.10455
2.07384
2.06804
1.95858
1.96029
1.96412
1.96399
1.961
1.96237
1.96478
1.96022
1.96781
1.96756
1.96709
1.97117
1.96763
1.96715
1.97025
1.97272
1.97459
1.97283
1.97267
1.97392
2.11593
2.15462
2.13706
2.16298
2.14879
2.16219
2.16687
2.17694
2.16458
2.17859
2.1493
2.15174
2.12704
2.14136
2.12717
2.11561
2.13729
2.09031
2.10019
2.13694
2.13831
1.94329
1.94975
1.94898
1.9441
1.93582
2.02723
2.03794
2.04757
2.05509
2.10838
2.10643
2.09267
2.08279
2.06841
2.08241
2.08832
2.07151
2.0578
2.14067
2.1326
2.13438
2.11869
2.10468
2.1318
2.11621
1.94361
1.94448
1.94902
1.94667
1.95066
2.10902
2.12577
2.12937
2.12852
2.12116
2.13354
2.13871
2.13895
2.15029
1.93048
1.93548
1.9247
1.92976
1.99036
2.00829
2.00585
2.02784
2.02314
2.03643
2.03818
2.08887
2.09933
2.09325
2.07706
2.06526
2.06719
2.06726
2.06406
2.04303
2.00575
2.01935
2.09228
2.10791
2.06557
2.06532
2.09714
2.08076
2.08292
2.07993
2.06636
1.96256
1.96377
1.95596
1.95263
2.01131
2.0218
2.01967
1.98904
1.99175
2.01278
1.99973
1.99696
1.93493
1.93118
1.94394
1.94574
1.94242
1.93167
1.94552
1.93209
1.94093
1.95206
1.95226
1.99183
2.00665
2.02151
1.99756
1.95602
1.94779
1.9561
1.95742
1.95667
1.94549
1.95538
1.95887
1.96007
1.95487
2.09135
2.08307
2.10649
2.08959
2.1097
1.9423
1.94499
1.94296
1.93828
1.94863
1.94693
1.94609
1.94856
1.95067
1.95337
1.95564
1.96032
1.95514
1.95498
1.96073
1.96081
1.9583
1.93646
1.93526
1.93031
1.93485
1.93507
1.93967
2.01157
2.01696
2.01884
2.00232
2.01663
1.99251
1.99501
1.92753
1.92039
1.92723
1.93986
1.93814
1.93307
1.94025
1.93244
1.93491
1.93058
1.92782
1.93701
1.92929
2.0437
2.06444
2.08193
2.06633
2.05684
2.07692
2.05441
2.07547
2.07658
2.08225
2.09604
2.0864
2.08722
2.09841
2.0852
2.09921
2.08874
2.09019
2.08105
2.07149
2.0769
2.06726
2.07157
2.0733
2.07261
2.0709
2.09204
2.07738
2.08666
2.07418
2.08562
2.06962
2.07466
2.07931
2.11781
2.08106
2.10678
2.10949
2.11871
2.09339
2.1093
2.09667
2.08263
2.09476
2.08253
2.09555
2.08313
2.08467
2.09526
2.09127
1.93029
1.92448
1.93072
1.92913
1.92346
1.92414
1.92114
1.92221
1.92164
1.93018
1.93001
1.92747
1.93186
1.93391
1.97504
1.98284
1.96883
1.98384
1.97727
2.01785
2.03395
2.01465
2.01572
2.00723
1.99756
1.94035
1.93635
1.95273
1.9611
1.96395
1.94228
1.93733
1.9396
1.94172
1.99116
2.00105
1.98022
1.9707
1.97057
1.97108
1.97118
1.95593
1.96479
1.93704
1.93995
1.94959
1.94942
1.95325
1.94879
1.93513
2.02259
2.02543
2.01988
2.04591
2.05641
2.06878
2.05378
2.06721
2.05804
2.05353
2.04147
2.01671
2.02305
2.02495
2.01776
1.98293
2.00925
2.01121
1.99228
2.00808
2.01405
1.99662
2.00042
2.02847
2.01545
2.02814
2.01679
2.01749
2.00902
2.03854
2.05225
2.03979
2.01972
2.02605
2.0218
2.01736
2.05325
2.05119
2.0206
2.02461
1.92283
1.92671
1.92988
1.92876
1.93121
1.92692
1.93072
1.93051
1.92419
1.93017
1.93159
1.92542
1.93595
1.93969
1.93909
1.94062
1.94179
1.93093
1.92941
1.93534
1.93672
2.05386
2.05796
2.05903
2.07235
2.05996
2.06987
2.05466
2.08255
2.06837
2.08952
2.08274
2.07274
2.06317
2.05712
2.07432
2.06436
2.08353
2.07877
2.07899
2.07982
2.077
2.06823
2.07251
2.06246
2.06663
2.05233
2.0774
2.06607
2.07364
2.06436
2.07911
2.0649
2.06803
2.07079
2.08575
2.07504
2.08294
2.08925
2.07311
2.06857
2.07831
2.08473
2.07508
1.96341
1.95166
1.96007
1.96189
1.96281
2.00039
1.99558
1.99492
2.00308
1.98439
2.00163
2.00077
1.99368
2.00962
2.00789
1.97767
1.99205
1.94589
1.94777
1.96121
1.93846
1.94076
1.93891
2.02831
2.02646
2.06688
2.05155
2.06365
2.0432
2.04822
2.0328
1.98605
1.98755
1.97533
1.97658
1.98562
1.97613
1.96925
1.97887
1.99701
2.00764
2.00151
2.00815
1.99161
1.99418
1.9181
1.90705
1.91941
1.91867
1.91882
1.91035
1.91805
1.91686
1.91386
1.91839
1.91927
1.91355
1.91638
1.91364
1.91287
1.903
1.90746
1.9132
1.9118
1.90739
1.91342
1.92644
1.93695
1.93711
1.93569
1.91778
1.91904
1.92554
1.93175
1.91152
1.91526
1.91224
1.91203
1.91612
1.91744
1.91797
2.05336
2.06559
2.05533
2.07027
2.0673
2.05884
2.05625
2.05891
2.06816
2.06079
2.0494
2.05807
2.05518
2.04952
2.05577
2.05064
2.06698
2.01714
2.03005
2.01404
2.02379
2.04075
2.04024
2.03649
2.04243
2.05649
2.0482
2.04667
2.03844
2.0354
2.05538
2.04569
2.06064
2.05096
2.06066
1.90684
1.91103
1.90515
1.90718
1.90708
1.90669
1.91241
1.91276
1.92655
1.93141
1.9301
1.93069
1.92544
1.9149
1.93179
2.04244
2.05134
2.04567
2.03498
2.03918
2.02354
2.04753
2.03203
2.04062
2.03322
2.0425
2.03453
2.04733
2.03469
2.04907
2.04078
1.90529
1.9045
1.90011
1.90278
1.90742
2.00174
2.01057
1.99868
1.99112
2.00509
2.00351
1.98825
2.0076
2.00172
2.00532
2.01152
2.03878
2.04252
2.04816
2.0425
2.03107
2.02187
1.94276
1.93281
1.93706
1.92728
1.90539
1.91793
1.90802
1.92401
1.92534
1.91765
1.90325
1.92154
1.91309
1.91571
1.92061
1.92497
1.99334
1.99551
1.97785
1.95503
1.96336
1.96773
1.95067
1.9416
1.90106
1.90597
1.90122
1.90469
1.90788
1.90716
1.90997
1.90764
1.9144
1.9179
1.91073
1.91808
1.91061
1.96005
1.95144
1.95301
1.93814
1.94288
1.93468
1.91398
1.91446
1.92317
1.92824
1.91494
1.91832
1.91262
1.90852
1.90806
1.90868
1.90171
1.90874
1.90913
1.90857
1.9051
1.90207
1.90547
1.90184
1.90753
1.90709
1.90428
1.89882
1.89783
1.89996
1.89571
1.89724
1.9003
1.90491
1.90624
1.90761
1.90181
1.9058
1.90455
1.97555
1.98322
1.97451
1.97889
1.99112
1.99218
2.00023
1.99424
1.9857
2.00477
2.01004
1.98601
1.99458
2.00222
2.01979
2.00995
1.99757
1.98581
2.01587
2.00898
1.96101
1.95677
1.94464
1.94825
1.97249
1.97132
1.89414
1.89987
1.89316
1.89682
1.8949
1.89718
1.90383
1.90235
1.89677
1.90592
1.90239
1.89805
2.01606
2.04167
2.03225
2.03827
2.03871
2.0333
2.03321
2.03606
2.04461
2.02626
2.04587
2.04362
2.05587
1.90849
1.90576
1.91762
1.90231
1.91006
1.91078
1.90952
1.90847
1.90763
1.90282
2.01045
2.01201
2.02161
2.03083
2.00087
2.01033
2.01998
2.01364
2.03334
2.01596
2.01402
2.02826
2.01189
2.02823
2.01863
2.01042
1.99869
2.02633
2.02394
2.01383
2.01876
2.03975
2.02293
2.04306
2.03668
2.03313
2.02856
2.02963
2.01166
2.02006
2.02858
2.02611
2.02668
2.01873
1.88576
1.88426
1.88899
1.88525
1.89162
1.88773
1.8888
1.88665
1.89179
1.88766
1.88914
1.97313
1.96039
1.97057
1.95525
1.95186
1.89466
1.89286
1.89672
1.90221
1.90224
2.0345
2.03787
2.02724
2.03446
2.03422
2.02404
2.01932
2.01571
2.01789
2.03441
2.02374
2.02951
2.02797
2.02238
2.0101
2.00929
2.02027
2.01946
2.01694
1.87384
1.89438
1.88993
1.89551
1.89916
1.89784
1.89682
1.89902
1.89023
1.88805
1.87882
1.87832
1.88253
1.88213
1.88309
1.88872
1.88661
1.88829
1.88913
1.88985
1.88865
1.88387
1.88678
1.8866
1.88826
1.88915
1.88546
1.88597
1.8955
1.8935
1.89534
1.8876
1.88841
1.88651
1.88729
1.89047
1.89335
1.89271
1.89027
1.89069
1.89266
1.89216
1.89512
1.94037
1.94735
1.93222
1.92806
1.92764
1.93612
1.93976
1.94435
1.94381
1.94057
1.95009
1.99398
2.00131
1.9725
1.98752
1.98012
1.99749
1.99581
2.00067
1.99899
2.01003
2.00703
1.98526
1.99476
1.99699
1.98774
1.92352
1.90704
1.92617
1.92726
1.91298
1.909
1.90702
1.90864
1.91117
1.90835
1.95414
1.94758
1.94603
1.92239
1.92428
1.93486
1.92561
1.93389
1.93104
2.00156
1.98783
1.98349
1.97503
1.97969
1.99117
1.99265
1.9881
1.98116
1.97466
1.9867
1.99536
1.93194
1.87681
1.87662
1.88203
1.88151
2.01808
2.01542
1.90753
1.9132
1.90043
1.89683
1.89918
1.89888
2.03812
2.0328
2.03709
2.03267
2.02305
2.02993
2.02644
2.01827
2.01561
2.02078
2.02734
2.03368
2.02797
2.02038
2.02308
2.03536
2.02877
2.01805
2.02416
2.01633
2.01606
2.03023
2.02367
2.02648
1.89537
1.8858
1.89079
1.89149
1.89164
1.88724
1.90025
1.89246
1.89919
1.88802
1.89091
1.89843
1.89501
1.89937
1.90007
1.89976
1.9789
1.96688
1.99331
1.98496
2.00549
1.99822
1.98981
1.96995
1.98127
2.00544
2.008
1.94031
1.96349
1.95409
1.95182
1.93762
1.93052
1.93333
1.92742
1.9268
1.92986
1.92896
1.93045
2.00736
1.99895
1.98608
2.01169
2.00834
1.99131
1.99546
1.98961
1.96106
1.96971
1.98931
1.97759
1.96903
2.02197
2.01846
2.03225
2.00738
2.01918
2.0344
2.02328
2.02355
2.01893
2.013
1.93886
1.94004
1.93375
1.93619
1.93252
1.94329
1.94448
1.94095
1.94619
1.95083
1.92054
1.9256
1.91855
1.92075
1.9203
1.92481
1.92656
1.92182
1.93254
1.93407
1.92939
1.92731
1.93226
1.92667
1.92973
1.92712
2.00276
1.98927
2.00043
1.98656
2.01862
2.01358
2.01109
1.99655
2.00803
1.99242
2.02151
2.02313
2.02489
2.01275
2.00487
1.99883
2.00196
2.0134
2.0197
2.00008
2.00275
1.98633
1.98741
1.97872
1.97901
1.97053
1.95704
1.94084
1.96163
1.945
1.99888
2.0007
1.99397
1.98801
2.01346
1.99336
1.99196
2.01432
1.99933
2.00215
2.02269
2.05311
2.0633
2.05515
2.07606
2.06474
2.06943
2.05759
2.05108
2.06174
2.05883
2.06635
2.06704
2.07209
2.0182
2.03321
2.02618
2.04191
2.04219
2.03973
2.03649
2.04702
2.04398
2.03266
2.02373
2.01462
2.01915
1.93772
1.94421
1.94118
1.93736
1.93883
1.93426
1.93053
1.94066
1.93931
1.92319
1.91962
1.92491
1.91962
1.92502
1.92714
1.92502
1.92291
1.92216
1.91872
1.92159
1.92794
1.92719
1.92583
1.92675
1.92453
1.91893
1.92146
1.92256
1.91885
1.92241
2.03038
2.03501
2.02907
2.01982
2.032
2.04274
2.04406
2.04295
2.04328
2.00282
2.00915
1.99168
2.02315
2.0179
2.02843
2.02115
2.02575
2.02146
1.94432
1.96189
1.95382
1.95367
1.95177
1.96082
1.96146
1.96249
2.05316
2.05094
2.06727
2.06548
2.06593
1.93894
1.94023
1.94654
1.94191
1.94502
1.93563
1.93927
1.9386
1.93738
1.94185
1.94343
1.94495
1.94718
2.04325
2.05093
2.03352
2.02637
2.03586
2.03453
2.04498
2.03205
2.03338
2.04901
2.04879
2.0591
2.12381
2.122
2.10168
2.11322
2.09937
2.10458
2.0912
2.11506
2.0906
2.11826
2.09674
1.93492
1.94194
1.93979
1.94191
1.93386
1.94308
1.9417
1.932
1.94533
1.94191
1.94438
2.02518
2.01863
2.04213
2.04614
2.02731
1.99341
2.01487
2.00276
2.01345
2.01297
2.00629
1.98975
1.98407
2.00819
1.99894
2.0104
2.01919
2.02501
1.99638
1.99415
2.12299
2.13135
2.13347
2.11994
2.11814
2.09234
2.12332
2.10409
2.11712
2.10126
2.08867
2.08175
2.09061
2.08886
2.11318
2.12066
2.11086
2.11662
2.10586
1.95011
1.95037
1.94915
1.95141
1.95404
1.95735
1.95237
1.95313
1.95682
1.95426
1.95598
1.95847
1.95564
1.96292
1.9455
1.93998
1.93795
1.93659
1.94054
1.94341
2.01226
1.99613
2.02956
2.01644
2.03302
2.03406
2.02415
2.02927
1.97956
1.96988
2.00397
1.99458
1.98458
1.98891
2.00126
2.0152
2.01683
1.97818
1.97699
2.01968
2.0183
2.0203
2.02808
2.05526
2.05301
2.05258
2.06084
2.08377
2.06723
2.08623
2.10511
2.10566
2.10186
2.10745
1.94171
1.94618
1.95829
1.95868
1.95407
1.9597
1.96344
1.96494
1.96895
1.94612
1.94382
1.94916
1.94665
2.02137
2.02358
2.03868
2.03305
2.01072
2.02461
2.0347
2.02401
1.97067
1.96433
1.95844
1.96164
2.19476
2.18505
2.18461
2.15627
2.14333
2.15883
2.18412
2.18833
2.19162
2.19074
2.2075
2.22123
2.19614
2.22579
2.20794
2.19029
2.0643
2.08356
2.09338
2.09408
2.10478
2.07782
2.05827
2.05442
2.05655
2.05449
2.20331
2.18766
2.22921
2.20756
2.23197
2.21393
2.20559
2.08252
2.07843
2.08272
2.05747
2.1019
2.10087
1.93983
1.9362
1.93026
1.92409
1.94008
1.9353
1.94671
1.9363
1.93773
1.94318
1.93029
1.94586
1.95144
1.89858
1.89745
1.9047
1.89954
1.89767
1.90174
1.8994
1.89896
1.91032
1.91313
1.91119
1.91441
1.91904
1.91413
1.91758
1.9183
1.92036
1.9172
1.91984
1.92268
1.92326
1.91626
1.91599
1.92202
1.91982
1.9162
1.91596
1.91747
1.917
1.92095
1.92679
1.92104
1.92398
1.92455
1.92605
1.9348
1.93267
1.93062
1.93075
1.9322
1.93135
1.98042
1.94682
1.94211
1.99027
1.94996
1.98049
1.95324
1.95475
1.9732
1.95624
1.95798
1.94868
1.9484
1.95778
1.93894
1.94189
1.94199
1.94419
1.94045
1.94324
1.94098
1.93857
1.93551
1.93676
1.93382
1.93668
1.93618
1.93699
1.95014
1.95141
1.9463
1.95173
1.947
1.94573
1.94051
1.94506
1.95203
1.94776
1.95291
1.94722
1.95008
1.95323
1.94781
1.94888
1.94646
1.94513
1.95601
1.96863
1.95959
1.9579
1.96533
1.9603
1.96295
1.95594
1.95606
1.96362
1.95951
1.96515
1.96666
1.9598
1.95257
1.9528
1.95472
1.9591
1.96305
1.96206
1.95514
1.95339
1.95863
1.96122
1.95625
1.95623
1.9634
1.9714
1.96657
1.96985
1.96694
1.97865
1.97247
1.98457
1.96742
1.9431
1.95406
1.9595
1.95701
2.13264
2.12479
2.13922
2.14787
2.14798
2.1192
2.12077
2.14151
2.15478
2.13809
2.15531
2.14159
2.12781
1.96357
1.95557
1.9617
1.96825
2.04599
2.04928
2.05499
2.03938
2.04487
2.03776
1.97209
1.97833
1.96926
1.96723
1.97111
1.97038
1.96832
1.96091
1.96871
1.95397
1.94746
1.95398
1.94609
1.9515
1.94563
1.95946
1.95705
1.95344
1.94728
1.94614
1.94694
1.94195
1.94973
1.95152
1.95226
1.95888
1.96294
1.95812
1.96424
1.95157
1.95355
1.95073
1.96043
1.95917
1.95414
1.95959
1.96077
1.95573
1.96016
1.99066
1.99077
1.97693
1.97633
1.98853
1.98113
1.98089
1.96684
1.97694
1.97868
1.98594
1.98899
1.99925
2.13924
2.17297
2.15233
2.19186
2.17688
1.96697
1.97008
1.97123
1.9667
1.96479
1.97075
1.9634
1.96463
1.96908
1.96969
1.96267
2.19999
2.2281
2.24577
2.23755
2.25098
2.27091
2.26485
2.20277
2.20649
2.23538
2.23567
2.22777
2.2103
2.21385
2.22846
2.24273
2.23279
1.99045
2.00044
1.97909
1.9772
1.97655
1.98104
1.97814
1.97982
1.98213
1.98018
1.98418
1.98061
1.98189
2.10198
2.14143
2.14623
2.13625
2.13034
2.11226
2.1392
2.14918
1.9834
1.98351
1.99155
2.01001
2.00626
2.00932
2.0002
2.00143
2.00521
1.98431
1.98058
1.9839
2.15314
2.12812
2.1563
2.1784
2.15113
2.18616
2.18649
2.17795
1.9705
1.96981
1.97031
1.9759
1.9791
1.97287
1.96986
1.97378
1.97333
1.9741
1.96919
1.97721
1.99364
1.97868
1.97368
1.98384
1.97595
1.9844
1.99509
1.99606
1.98301
1.97328
1.97508
1.98251
1.979
1.9795
1.97892
1.98208
1.9808
1.97699
1.98159
2.04959
2.05188
2.05823
2.0214
2.04598
2.04431
2.04919
2.04611
2.03686
2.02983
2.01935
2.01589
2.01179
1.95789
1.95256
1.95224
1.9769
1.97084
1.96145
1.9618
1.95893
1.97503
1.97244
1.95647
1.9732
1.98864
2.13187
2.18745
2.20715
2.1898
2.16889
2.21323
2.20324
2.19624
2.1643
2.15907
2.1519
2.14355
2.11158
2.14749
2.15242
2.15403
2.13296
1.95988
1.96193
1.96143
1.96188
1.95714
1.95161
1.95656
1.9612
1.96231
1.96925
1.96462
1.96893
2.10553
2.07341
2.06213
2.06744
2.04493
2.06962
2.05056
2.06962
2.05623
2.05606
2.04211
2.04844
2.07456
2.08117
2.07833
2.09057
2.10657
2.14932
2.14828
2.15883
2.16211
2.14987
2.15044
2.13368
2.1377
2.10966
2.13601
2.15463
2.14267
2.15912
2.15152
2.14019
1.96283
1.95861
1.95855
1.97006
1.96215
1.96093
1.96496
1.95827
1.96642
1.97095
1.9653
1.96788
1.96485
1.95757
1.97179
1.97518
1.9735
1.97312
1.97003
1.97205
1.96975
2.11847
2.12508
2.13198
2.14444
2.13719
2.1323
2.14515
2.13648
2.06854
2.05788
2.06688
2.08202
2.0753
2.04376
2.06015
2.05907
2.042
2.04655
2.04903
2.04446
2.03062
2.03754
2.0314
2.01974
2.02292
1.95034
1.94854
1.94484
1.9488
1.95352
1.94411
1.94719
1.9551
1.95755
1.95343
1.95522
1.94796
2.13313
2.12981
2.12388
2.12274
2.12264
2.12474
2.1082
2.11141
2.13621
2.12274
2.10831
2.10716
2.11262
2.0683
2.02439
2.01507
2.03344
1.99354
2.01325
2.02279
1.99941
1.95904
1.99223
2.00216
2.00907
1.98034
1.96291
2.01609
1.95235
1.95902
1.97405
1.95625
1.97705
1.98037
1.99299
1.98282
1.96696
1.91322
1.91812
1.91829
1.92475
1.92694
1.92086
1.92119
1.92153
1.92545
1.93053
1.92244
2.02281
2.04951
2.0274
2.04663
2.04632
2.04309
2.04958
2.02304
2.03777
2.05205
2.05188
2.05989
2.05748
1.92705
1.92255
1.9308
1.92736
2.03103
2.03011
2.02368
2.01294
2.01739
2.04315
2.03415
2.01813
2.05008
2.04026
2.03767
2.02135
2.02473
2.03222
2.05815
2.05293
2.05393
2.05672
2.04268
2.04475
2.03318
1.93637
1.93789
1.94782
1.95324
2.04237
2.04322
2.0636
2.05576
2.06762
2.07148
2.05441
2.04249
2.05031
2.0535
2.04187
2.07468
2.07635
1.96648
1.97029
1.95331
1.96162
1.98003
1.9674
1.96979
1.95781
1.97205
1.99783
1.99178
1.98375
1.97605
2.02348
2.02952
2.02282
2.02364
2.03995
2.03113
1.91818
2.0478
2.0507
2.04996
1.90633
1.89633
1.90726
1.9096
1.90487
1.90699
1.90134
1.90237
1.90194
1.90474
1.90552
1.90163
1.89841
1.91555
1.91227
1.91907
1.91471
1.91281
1.91261
1.90864
1.91474
1.9278
1.9274
1.92604
2.03549
2.02993
2.04139
2.04927
2.04226
2.04169
2.03565
2.02008
1.95978
1.97881
1.97143
1.95794
1.96467
1.96328
1.97203
1.96569
1.96734
1.98457
1.98394
1.97784
1.9875
1.98581
1.98567
1.98705
1.94214
1.93092
1.91765
1.92432
1.93915
1.94084
1.93482
1.92404
1.91996
1.92217
1.90527
1.91649
1.9103
1.97141
1.9754
1.96764
1.96989
1.96141
1.97943
1.97782
1.97723
1.95763
1.96076
1.97972
1.96549
1.98179
1.98395
1.89877
1.89971
1.89169
1.8928
1.89833
1.89715
1.89921
1.90099
1.89307
1.89519
1.89966
1.90012
1.89548
1.89461
1.90803
1.95831
1.96661
1.96385
1.95727
1.95669
1.94807
1.94093
1.93017
1.95102
1.94892
1.94079
1.94674
1.95143
1.9428
1.88682
1.89393
1.89174
1.89341
1.9069
1.89681
1.90739
1.90641
1.89956
1.90219
1.89917
1.90861
1.9022
2.03348
2.02857
2.02005
2.0362
2.02094
2.03442
2.00009
1.89047
1.88901
1.88968
2.00823
2.00626
2.02969
1.90995
1.90861
1.91034
1.91477
1.91184
1.90924
1.92387
1.92264
1.93195
1.92642
1.91935
1.91284
1.92005
1.96564
1.95618
1.95393
1.97703
1.96752
1.97267
1.95108
1.96464
1.96441
1.94523
1.95064
1.97307
1.98119
1.97255
1.97144
1.99376
1.99179
1.98849
1.97648
2.0025
2.00487
2.00033
1.88759
1.88361
1.88482
1.89516
1.88747
1.88307
1.88298
1.88377
2.00624
2.0037
1.89944
2.01348
2.0136
2.01409
1.99419
1.98851
1.98722
1.99679
2.00417
1.99585
2.00751
2.00627
2.01348
2.00276
2.00967
1.93331
1.93176
1.94025
1.93123
1.92942
1.92202
1.9338
1.92797
1.93193
1.92809
1.91988
1.91702
1.92128
1.92315
1.92302
1.92129
1.91868
1.91514
1.91968
1.92606
1.91479
1.91816
1.91578
2.02303
2.04615
2.03546
2.01896
2.03009
2.02929
2.04371
2.02947
2.02941
2.03203
2.02145
2.00998
2.02811
2.02457
2.03004
2.02492
2.01323
2.0193
2.03415
2.03305
2.03402
2.02245
1.92452
1.94032
1.93218
1.92919
1.92976
1.92595
1.92381
1.92024
1.92978
1.91718
1.92854
1.92305
1.91895
1.92514
1.92753
1.91919
1.92398
1.91548
1.92177
1.92444
1.92334
1.92191
1.92357
1.9201
1.92034
1.92096
1.91846
1.91078
1.92393