/*--------------------------------*- C++ -*----------------------------------*\
| =========                 |                                                 |
| \\      /  F ield         | OpenFOAM: The Open Source CFD Toolbox           |
|  \\    /   O peration     | Version:  v1612+                                |
|   \\  /    A nd           | Web:      www.OpenFOAM.com                      |
|    \\/     M anipulation  |                                                 |
\*---------------------------------------------------------------------------*/
FoamFile
{
    version     2.0;
    format      ascii;
    class       surfaceScalarField;
    location    "150";
    object      phi;
}
// * * * * * * * * * * * * * * * * * * * * * * * * * * * * * * * * * * * * * //

dimensions      [0 3 -1 0 0 0 0];

internalField   nonuniform List<scalar> 
37564
(
5.67628e-09
-6.79489e-09
1.27161e-08
-1.15974e-08
-3.24588e-09
3.92567e-09
-3.67852e-09
2.99884e-09
-2.63112e-10
8.93468e-09
-8.03124e-10
-7.8684e-09
-1.35418e-09
-2.49088e-09
6.92208e-10
3.15288e-09
-5.91083e-09
4.95238e-09
-3.9568e-10
-6.75325e-10
-4.86445e-09
-3.71049e-10
-2.5568e-09
-6.09381e-10
3.66113e-09
1.9953e-09
-2.11289e-09
-3.54346e-09
-1.16063e-09
-9.48802e-09
4.79113e-09
5.85753e-09
-2.58368e-09
3.86082e-09
-5.84907e-10
2.90228e-09
-2.97069e-09
-4.79603e-09
-3.73858e-09
-3.11847e-09
9.75937e-09
5.65323e-09
1.53804e-09
-3.5301e-09
2.63776e-09
1.85482e-09
2.64115e-09
-5.65764e-09
4.58334e-11
6.63736e-10
-5.79382e-10
-2.66685e-09
2.72094e-09
-4.6507e-10
-3.84427e-09
-2.60559e-09
7.75005e-10
5.67484e-09
-3.63207e-09
-7.74762e-10
5.62571e-10
-6.4373e-09
-5.40544e-10
4.37224e-09
-1.5214e-09
-3.19608e-09
-1.71982e-09
-3.21127e-09
-1.94215e-09
-1.21572e-09
4.65239e-09
-2.66163e-09
-5.80746e-09
2.22057e-09
3.04636e-09
-6.21349e-09
-1.46956e-09
1.8756e-09
-3.35485e-09
-6.05466e-09
-3.37682e-09
4.3817e-09
-3.07041e-09
-2.45241e-09
2.14603e-09
-4.69284e-09
1.52841e-10
5.46722e-10
2.16439e-09
-2.42452e-09
-2.86557e-10
1.67328e-09
-3.66923e-09
-2.69688e-09
-2.32396e-10
-7.24405e-09
2.19978e-10
5.36636e-09
-9.01566e-09
-6.03717e-09
9.68651e-09
-1.5375e-09
6.58085e-09
3.23062e-10
-3.68546e-10
2.6665e-11
-8.67375e-09
-1.02979e-08
6.99054e-09
1.68181e-09
1.62557e-09
6.40825e-10
-1.13072e-08
6.7661e-09
-3.80397e-10
-6.359e-09
5.00003e-09
2.28602e-10
1.02595e-08
-4.45335e-09
1.18442e-09
-1.53796e-08
8.78805e-09
1.68511e-08
-1.44791e-08
-5.35382e-09
7.17165e-09
-8.69545e-09
1.06737e-08
-9.14989e-09
5.27165e-09
1.64566e-09
2.54337e-10
1.04667e-09
1.40054e-08
-1.44113e-08
-8.02916e-09
-1.46057e-08
9.61982e-09
1.02576e-08
-3.45239e-09
-4.79641e-10
-3.92605e-09
6.35347e-09
2.92232e-10
-2.37676e-09
2.07847e-08
9.72416e-09
-5.74743e-09
-2.42547e-09
2.20255e-09
1.09737e-08
-1.07508e-08
5.15006e-09
-8.56172e-10
-6.71936e-09
6.94669e-10
9.41835e-09
-2.05408e-09
-8.05896e-09
1.37787e-08
-1.08815e-08
1.77178e-09
1.81215e-08
-6.11468e-09
1.31951e-08
-2.00495e-09
-1.01225e-09
1.05331e-08
1.45285e-09
4.09899e-09
3.88187e-11
-1.31392e-09
8.40602e-09
-9.14619e-09
6.3744e-09
-8.54448e-09
-1.04343e-09
4.33054e-09
1.48344e-08
2.59009e-09
9.56154e-09
-3.3869e-09
7.10998e-09
4.68296e-09
3.11705e-09
-1.29541e-10
1.35788e-08
1.28481e-09
6.95737e-09
2.58689e-10
7.54432e-09
2.15575e-09
3.2966e-09
-4.59852e-09
6.11462e-09
-4.81271e-09
-3.08743e-09
5.89024e-09
4.93788e-10
-4.86259e-09
1.61725e-09
1.579e-10
1.13667e-09
-7.90554e-09
6.23547e-09
5.33429e-10
-6.13749e-09
5.45871e-09
1.81546e-09
-8.01374e-10
-4.98045e-09
9.19225e-10
1.25822e-09
-2.70486e-10
-8.89326e-09
-5.33128e-09
4.5202e-10
-3.42146e-09
1.99631e-09
3.0424e-09
-3.43139e-09
6.52299e-09
2.36711e-09
2.61962e-10
2.54212e-09
5.78829e-09
-6.86016e-09
2.62879e-09
6.37021e-09
1.20976e-09
-6.46559e-09
-1.11441e-09
6.32533e-09
-5.68907e-09
-1.21013e-08
-2.67671e-09
-7.23937e-09
-8.54826e-09
5.79388e-09
-1.13606e-08
1.62505e-09
1.5243e-09
-1.47505e-08
1.16013e-08
2.53593e-09
-1.25692e-08
1.16584e-08
-2.27028e-09
-1.12978e-08
7.72449e-10
1.27957e-08
-9.47509e-09
8.72914e-09
1.57466e-09
-9.17423e-09
1.01355e-08
6.82612e-09
-1.68439e-09
-1.98922e-08
3.60606e-09
-9.3492e-09
4.31747e-09
-1.09513e-08
-2.84126e-09
-8.51279e-09
1.53248e-09
-9.4326e-09
1.17797e-08
-1.22209e-09
-4.3461e-09
4.02337e-09
-1.6659e-08
4.95245e-09
-9.44188e-09
-5.70224e-09
3.84034e-09
3.17488e-09
-8.22036e-09
1.20511e-09
7.7307e-09
-7.43207e-09
3.54168e-09
2.14899e-09
-5.24695e-09
6.27283e-09
-5.29513e-09
1.51748e-08
-5.77703e-09
-1.27267e-08
1.2648e-08
5.85569e-09
-1.14122e-08
-1.79689e-09
7.24109e-09
-3.67608e-09
-1.62917e-08
7.20436e-10
-4.89157e-09
6.3349e-09
-3.28332e-09
9.71578e-09
-1.27674e-08
1.05279e-08
-3.47257e-09
-4.23866e-09
1.15915e-08
-6.12272e-09
-1.39547e-08
7.35302e-09
1.27244e-08
-1.66761e-08
6.31472e-09
9.02265e-09
-1.59821e-08
6.36048e-09
8.11608e-09
-4.76078e-09
1.41763e-09
-9.07109e-09
-6.17661e-09
-8.15325e-09
1.02593e-08
2.06208e-09
2.45447e-10
2.0249e-09
2.18283e-08
-1.334e-08
-1.57108e-08
7.22247e-09
1.37997e-08
9.4529e-09
-1.42435e-09
-1.05654e-08
-1.85458e-09
1.53009e-09
1.08901e-08
-1.13549e-08
1.75088e-08
-1.67193e-08
-1.55084e-08
3.12423e-08
-1.93421e-09
6.93197e-09
-1.46415e-08
-7.79877e-09
-9.48286e-09
-4.17002e-10
2.16111e-08
-1.1711e-08
-1.2651e-08
1.74208e-09
1.42613e-09
1.71504e-08
6.71311e-09
-1.44106e-08
6.95667e-09
3.44361e-09
-1.51787e-08
4.77846e-09
-5.19175e-09
7.88576e-09
4.26253e-09
1.60662e-09
1.40452e-08
1.55905e-08
-8.03852e-09
1.87367e-08
-1.11151e-08
1.07185e-08
1.92573e-09
-9.83693e-09
-2.20922e-08
2.34864e-08
-1.32345e-08
4.25736e-09
1.49748e-08
-3.06016e-10
-1.89262e-08
1.29621e-08
-1.40585e-08
-2.02075e-09
2.42327e-08
-7.23706e-09
2.08472e-08
-9.90586e-09
3.86213e-09
1.28268e-08
7.54387e-09
1.40615e-08
1.06479e-08
-3.46336e-09
7.93212e-09
9.59285e-09
4.07102e-09
9.31679e-09
-1.41697e-08
7.51035e-10
-2.01539e-09
1.54342e-08
3.53033e-09
1.37455e-08
-1.75818e-08
1.42753e-08
-9.5605e-09
-3.74135e-09
8.36694e-10
1.57315e-08
-4.16557e-09
8.97843e-10
1.41285e-08
4.52224e-09
1.38817e-08
-1.32732e-08
-5.13076e-09
-1.87109e-09
1.51703e-08
-8.77701e-09
1.45902e-08
-1.21065e-08
-4.3548e-09
8.32709e-09
1.00466e-08
-7.06254e-09
-1.13112e-08
-1.46955e-09
1.28646e-08
3.77519e-09
1.23432e-08
7.77484e-10
-1.34689e-08
8.24695e-09
1.3549e-08
-4.3296e-09
4.74233e-09
-2.36375e-09
1.02424e-08
2.16799e-09
-1.37115e-09
1.13506e-08
1.41383e-08
-3.63859e-09
-2.57347e-10
7.94551e-09
1.89084e-09
3.02825e-09
-1.93223e-08
1.90846e-09
1.5674e-09
1.58464e-08
-1.34513e-08
2.04401e-09
-7.91499e-09
-1.09775e-08
3.14049e-09
9.74541e-09
-9.92275e-09
3.08293e-09
-4.13765e-09
-1.00234e-08
-1.33507e-08
1.5544e-08
-8.46472e-09
-5.03526e-09
3.22105e-09
1.38904e-08
-1.32512e-08
2.6553e-09
1.37364e-08
-6.97735e-09
-3.19095e-09
9.83997e-09
-6.95051e-09
1.36088e-08
-1.64981e-08
4.26801e-09
-1.40536e-09
9.99257e-09
-2.69664e-08
1.17831e-08
-1.1794e-08
-8.45382e-09
1.26738e-08
2.3304e-09
-1.19397e-08
1.1968e-08
4.23983e-09
3.68792e-09
-2.01893e-09
7.90942e-09
-9.71086e-09
1.48916e-08
-2.68331e-10
9.01965e-10
1.06954e-08
1.15142e-08
5.89734e-10
-4.5922e-09
-7.51178e-09
-3.62022e-10
1.13155e-09
1.07446e-08
-2.3164e-09
-4.19011e-09
7.09622e-09
1.05414e-08
-3.06016e-09
-1.20735e-08
9.70569e-09
4.73688e-10
-1.17941e-08
-4.59644e-09
2.56192e-09
1.38287e-08
-3.68184e-09
-6.17998e-09
-1.93232e-09
-1.17509e-08
-5.88865e-09
1.3043e-08
-1.25387e-08
-2.89396e-09
4.32363e-09
6.83357e-09
-1.42174e-08
7.16782e-09
-5.16059e-09
7.34086e-09
-6.35301e-09
-7.66792e-10
1.06696e-08
-1.13572e-08
-4.05297e-10
5.87376e-09
-1.70623e-08
-3.40516e-09
1.16175e-08
-8.9792e-09
5.89521e-09
-9.18383e-09
2.74427e-09
9.41312e-09
-2.97349e-09
6.91986e-09
-1.05647e-08
1.14118e-08
-7.76681e-09
-2.45088e-09
1.87018e-10
-3.2788e-10
1.08563e-08
-4.03596e-09
-6.4925e-09
5.77864e-09
-1.71947e-08
1.44261e-08
-3.00987e-09
-6.72284e-09
1.61067e-08
-8.63222e-09
-7.51513e-10
1.07443e-08
-6.31827e-09
-1.03491e-09
-3.39102e-09
-5.61131e-09
8.02772e-09
5.00012e-09
-8.17945e-09
7.2855e-10
5.08041e-09
-5.42734e-09
-8.38955e-09
8.73653e-09
-8.65979e-10
-1.19469e-09
7.14109e-09
-4.60372e-09
3.99252e-09
4.4465e-09
-7.64256e-09
-4.98332e-09
-1.0302e-08
-1.84815e-09
-1.02316e-09
-2.62662e-09
-1.02929e-09
-3.64765e-09
7.30354e-09
-2.53762e-09
-5.20959e-09
5.1206e-09
7.82193e-10
-8.32609e-09
5.0063e-09
-2.75734e-09
-1.85912e-09
-5.931e-10
4.29399e-09
-9.91784e-09
6.40602e-09
-3.59615e-09
6.86081e-09
-6.63265e-09
-4.45079e-09
-3.00066e-09
-3.99343e-09
3.34643e-09
-4.20374e-09
-6.56053e-10
1.16903e-09
-9.05872e-09
4.2935e-09
3.99392e-09
-6.81834e-09
2.66708e-09
2.65315e-10
-8.47924e-09
5.54685e-09
1.02031e-09
-7.41195e-09
-2.80057e-09
-6.09698e-09
-1.54111e-09
-7.8921e-09
2.42532e-09
-3.7011e-09
-1.24987e-09
-5.28552e-10
-2.90145e-09
-6.2911e-10
8.63559e-10
2.66705e-09
-2.49578e-09
8.20993e-12
-4.13853e-10
-6.61121e-10
-2.61862e-09
3.37668e-09
-9.68754e-11
-2.76663e-09
-3.90254e-10
-1.68129e-09
-3.6116e-09
3.37431e-09
1.91863e-09
-5.25549e-10
-3.77433e-09
4.48852e-10
2.2988e-09
1.98609e-10
6.44384e-09
-5.77886e-09
7.99721e-10
-4.09189e-09
6.73612e-10
-2.87581e-10
-4.1603e-09
-7.11958e-11
-2.86677e-09
1.27819e-09
2.54508e-09
1.16102e-09
4.63543e-09
-4.51817e-09
7.84684e-09
-6.48713e-09
4.09306e-09
-4.66507e-09
1.06092e-09
-4.88895e-10
3.66309e-09
-5.45706e-10
9.75688e-10
-3.57268e-10
-6.29703e-09
8.573e-09
-1.97065e-09
-7.97287e-09
9.58631e-09
-5.88066e-09
4.70973e-09
3.02613e-09
-8.10001e-09
5.06764e-09
6.18928e-12
-5.03839e-09
8.86484e-10
7.17801e-09
1.73293e-09
-3.81308e-09
-6.62312e-09
8.70325e-09
-2.99603e-09
-5.147e-09
9.87593e-09
4.48149e-09
5.75073e-09
-5.68953e-09
-1.09984e-09
5.42896e-10
-5.3853e-09
9.8488e-09
-3.57705e-09
-4.55008e-09
2.20079e-09
-3.40971e-09
-4.95347e-09
9.45504e-10
5.62116e-09
4.09805e-09
-8.77375e-09
3.92999e-09
5.91338e-10
7.74963e-09
6.2943e-09
-5.98116e-11
6.6491e-09
9.0181e-10
6.87021e-09
1.13392e-09
-8.06399e-09
-5.94878e-09
-8.93679e-09
7.61856e-09
7.26694e-09
5.71149e-10
-7.43794e-09
9.17952e-10
-6.42956e-09
6.40693e-09
6.89282e-09
7.90675e-10
8.64058e-09
6.5864e-09
-3.27947e-09
-6.6332e-09
-2.26371e-09
-3.98978e-11
-5.75438e-09
-2.03448e-09
-3.35435e-09
1.17957e-08
-3.89322e-09
9.4773e-09
1.0707e-08
-3.55124e-09
2.26929e-09
4.5445e-09
7.55546e-09
3.56964e-09
3.48448e-09
-1.48783e-09
-5.56626e-09
8.67399e-10
3.36743e-09
-6.65138e-10
-2.42513e-09
3.82638e-09
-5.33829e-10
4.29749e-09
1.68532e-09
-2.49831e-09
3.0748e-09
4.59014e-09
-3.31109e-09
4.07623e-09
-7.2175e-09
6.45243e-09
-7.54343e-09
2.20557e-10
4.01182e-09
-3.41646e-09
-4.75491e-09
1.1334e-09
5.06252e-10
3.11537e-09
-3.58396e-09
-3.59607e-09
-8.10921e-09
3.03747e-09
1.77631e-09
-7.86033e-09
-1.53991e-09
-4.31817e-09
1.22459e-08
1.82753e-09
-1.32996e-09
-1.27435e-08
-8.22731e-09
9.46289e-09
1.10103e-08
2.04909e-10
-6.60471e-09
-5.76948e-10
-7.91465e-09
8.6965e-09
-4.30371e-10
-5.55859e-09
5.412e-09
-4.65428e-09
6.08695e-09
6.18499e-09
-7.61769e-09
4.97997e-11
-5.29889e-09
5.94817e-10
-4.9674e-09
2.86657e-09
-5.06043e-09
7.16124e-09
-5.50948e-09
5.91874e-10
2.82216e-10
1.78702e-10
-8.76344e-09
8.3025e-09
-6.49394e-09
6.34578e-09
-4.0312e-09
1.29847e-08
-2.75178e-09
4.82213e-09
-7.1308e-09
9.36063e-09
-1.05119e-08
-4.74438e-09
1.01761e-08
1.86446e-09
3.30397e-09
9.96195e-09
-1.23105e-09
-1.20349e-08
7.64121e-09
2.96437e-09
-7.30165e-09
1.09207e-08
6.68252e-09
-2.15615e-09
2.50613e-09
6.3793e-09
-6.72922e-09
1.05157e-08
-1.39028e-08
-2.62103e-09
-7.89805e-11
7.77001e-09
-5.06999e-09
9.17196e-09
-9.28685e-09
-4.82447e-09
-8.17865e-09
8.06239e-09
4.94081e-09
2.42648e-09
3.66969e-09
1.45673e-09
8.80402e-10
6.23025e-09
1.60584e-09
-5.7049e-09
8.59027e-09
-5.0845e-09
6.92595e-09
5.92856e-09
2.22623e-09
1.86129e-09
6.28822e-09
2.16828e-09
9.88774e-10
3.03897e-09
-1.05048e-08
6.47698e-09
-1.06295e-09
9.9134e-09
-1.06774e-08
1.82697e-09
-8.30919e-09
6.94342e-09
3.02796e-10
-9.41232e-09
2.63654e-10
8.39428e-10
5.94244e-09
-1.4366e-08
-3.66434e-10
6.71833e-09
3.56149e-09
4.9887e-09
-9.72366e-09
3.07556e-09
-8.41239e-09
4.97039e-09
1.76078e-09
-3.47701e-09
4.79179e-09
-2.23478e-09
7.25116e-09
-3.25565e-09
1.08015e-09
-4.50384e-09
-1.19291e-08
-4.10061e-10
8.86219e-09
-3.95905e-09
-6.88992e-09
1.49439e-08
-5.82825e-09
-1.30747e-08
1.59003e-08
-3.66078e-09
2.70433e-09
3.86875e-09
1.16215e-08
5.88265e-09
-8.67193e-09
9.6655e-09
-1.18651e-08
-6.6357e-09
8.83531e-09
1.12995e-08
3.29909e-09
-1.07723e-09
-3.67323e-09
-4.89282e-09
-3.65388e-09
-7.79246e-10
-1.25533e-09
5.68832e-09
-1.74247e-09
-5.76809e-09
3.85654e-09
4.18139e-09
-4.75102e-10
-4.48559e-09
2.88924e-09
4.87444e-09
-7.40204e-09
-3.61771e-10
3.93318e-09
3.13728e-09
-1.09174e-09
-7.77636e-10
5.87715e-09
-4.00834e-09
-2.0877e-09
4.3638e-09
-1.3939e-09
-8.82543e-10
2.47544e-09
-4.43067e-09
2.12646e-10
3.82269e-09
-9.8255e-10
-3.61831e-09
3.75845e-09
4.73392e-09
1.76938e-09
-4.78743e-09
-4.38411e-09
1.23891e-09
-8.51464e-10
-6.10056e-10
1.03878e-08
-8.65962e-09
8.72689e-11
-1.0329e-08
8.89404e-09
1.96835e-09
3.76212e-09
-6.89712e-09
1.35228e-08
9.60055e-10
9.32502e-09
5.68022e-09
-1.52348e-09
5.26233e-09
-9.41911e-09
1.19027e-08
-9.31296e-09
3.09043e-09
4.42042e-09
-1.11846e-08
5.24068e-09
-4.46217e-09
-2.15412e-09
-2.42814e-09
-3.94459e-09
-6.20737e-09
-4.15449e-09
-2.15705e-10
4.25618e-10
-4.72079e-09
7.51723e-10
9.64854e-10
3.00427e-09
-2.93478e-09
-6.4134e-09
4.6274e-09
-3.97044e-09
-6.06192e-09
4.22991e-09
-2.07867e-09
-6.30574e-09
-2.98585e-09
1.00837e-09
-4.79855e-09
1.57983e-09
-3.06347e-09
-5.21089e-09
3.47581e-09
-8.07694e-09
5.55189e-09
1.02735e-09
2.57028e-09
-9.14959e-09
3.96126e-09
-4.908e-09
6.49861e-09
1.4638e-08
-4.10323e-10
-8.5801e-09
-5.64767e-09
-1.09595e-08
-1.72573e-09
1.66464e-08
4.70582e-09
4.53342e-09
2.66085e-09
6.34146e-09
-8.43116e-09
1.18403e-08
-5.90927e-09
-8.34538e-09
8.50499e-09
-2.63135e-09
1.44411e-08
-4.32647e-09
-7.79518e-09
1.46873e-08
5.25899e-10
-7.41818e-09
9.07453e-09
3.31126e-10
-1.72009e-08
1.20888e-08
1.26629e-08
-1.00645e-08
-1.21939e-08
1.85935e-08
5.68909e-09
5.93743e-09
-9.05682e-09
-7.04876e-09
1.364e-08
-6.06541e-09
8.39313e-09
-1.51108e-08
-1.86085e-08
3.23653e-09
1.39613e-08
1.41054e-09
1.06379e-08
-2.08533e-08
-3.29946e-10
1.51224e-09
1.14804e-08
1.38639e-09
1.68771e-08
-1.80197e-09
1.21867e-08
-4.44736e-09
1.28855e-08
3.991e-09
1.64589e-08
-7.62298e-09
-1.477e-09
1.39665e-08
1.47169e-09
1.51896e-08
-2.0782e-10
4.84964e-10
1.30881e-08
9.58835e-10
-1.57261e-09
1.45802e-08
1.66334e-08
1.28251e-08
-2.38196e-09
9.90848e-09
-8.35793e-09
8.3133e-10
8.67377e-09
-1.95537e-09
-9.10038e-09
1.8914e-10
3.90309e-09
5.81622e-09
3.4911e-09
5.37181e-09
-1.05038e-08
-3.39324e-09
1.01815e-08
3.71548e-09
-4.41814e-09
3.02667e-09
-9.11254e-09
5.58135e-09
-1.78024e-09
-8.21931e-09
-8.20627e-10
3.00868e-09
-5.94435e-10
-2.94453e-09
-4.81898e-09
2.94221e-09
-5.57312e-09
6.1219e-09
2.57817e-09
-5.07113e-09
6.39583e-09
-3.11894e-09
8.63925e-09
9.81803e-10
3.62635e-09
1.10355e-09
-6.92085e-09
4.03701e-09
7.53532e-09
-5.86193e-09
1.35311e-09
5.86695e-09
2.6501e-09
6.95326e-09
-5.52656e-09
-2.02117e-09
8.65306e-09
-8.38491e-09
6.68501e-09
-1.66098e-09
-6.23189e-09
4.77364e-09
1.92083e-09
-1.0343e-08
3.60901e-09
-1.65089e-09
-8.94463e-09
-6.925e-09
9.7759e-09
-1.01409e-08
-1.16e-08
3.75885e-09
-1.3837e-08
6.80077e-09
9.9553e-09
-2.91915e-09
-3.54589e-10
-4.65427e-09
1.29748e-08
-7.966e-09
5.48234e-09
-1.07567e-08
-1.11582e-08
1.64325e-08
-4.02603e-09
-4.32871e-09
6.27653e-09
-8.04205e-09
1.28415e-08
-1.10761e-08
-2.76459e-09
1.77013e-08
-8.66018e-09
5.26697e-09
4.05987e-09
-1.7369e-08
8.59708e-09
1.08591e-08
-1.41893e-08
-4.54524e-09
1.09914e-08
1.02729e-08
-1.23466e-08
-5.33915e-09
7.41283e-09
-3.98282e-09
9.60139e-09
-1.90435e-08
1.50136e-08
-9.18114e-09
-3.44421e-09
1.23029e-08
1.0786e-09
1.31784e-08
1.337e-08
-6.53707e-09
4.62454e-09
1.14676e-08
1.34493e-08
-6.09966e-09
6.20173e-09
6.61624e-09
-4.36703e-09
9.4322e-11
-6.3186e-09
8.56631e-09
-7.00415e-09
4.75645e-09
-1.36757e-08
8.48209e-09
-1.12497e-09
2.3067e-09
1.47345e-09
-1.35038e-08
3.2166e-09
7.72524e-09
-8.63513e-09
-2.23737e-09
-1.02238e-09
-1.04159e-08
1.26722e-08
-1.34361e-08
4.5662e-09
-1.02597e-09
4.94184e-09
3.90588e-09
9.22662e-09
-5.66079e-10
-3.4601e-09
1.02279e-08
8.31019e-09
1.16417e-09
9.13583e-09
-6.94163e-09
-2.62078e-09
-6.19357e-09
5.3542e-09
-8.6917e-09
5.04498e-09
3.24673e-09
1.11458e-10
3.21401e-09
-2.76988e-09
2.67162e-10
4.563e-09
-6.73968e-09
-5.85363e-09
-7.40793e-09
5.72463e-09
-8.03503e-09
-3.84196e-09
-2.99045e-09
-1.84569e-09
-1.2302e-08
-3.31796e-10
-1.53574e-09
-4.32728e-09
2.8565e-09
7.15486e-09
-5.68425e-09
3.91307e-09
-1.00861e-08
-3.12162e-09
8.83157e-09
-2.85352e-09
5.58105e-09
-4.78968e-09
-2.75896e-09
1.25291e-08
-9.38674e-10
-7.05887e-09
-3.10327e-09
5.79078e-09
-2.47791e-09
8.66639e-09
-1.80969e-09
-1.84444e-08
-9.95092e-11
1.50669e-08
3.4769e-09
-1.04663e-08
1.16645e-08
-1.96426e-08
1.3434e-08
4.14441e-09
-2.80448e-08
-1.60743e-08
1.17305e-08
4.24429e-09
9.29304e-09
-1.19335e-08
-1.26333e-08
9.50654e-09
1.85539e-09
1.27128e-09
1.54107e-08
-7.76558e-10
-2.96972e-09
1.99291e-08
1.05485e-08
9.59387e-09
1.1557e-08
-1.70065e-08
1.08034e-08
-1.69049e-09
1.80121e-10
9.61292e-09
1.2921e-08
3.36923e-10
-1.29136e-08
-5.66096e-11
-1.05833e-08
-1.19408e-10
1.10396e-08
1.35781e-08
-2.55668e-09
-1.40855e-09
-4.09635e-09
-7.16921e-10
2.50723e-09
-1.03181e-08
9.99999e-09
-2.18916e-09
-5.22222e-09
7.25104e-09
4.78407e-10
-9.36587e-10
-8.99412e-09
-3.87424e-10
5.98148e-09
-9.96394e-10
-5.92168e-09
7.52242e-10
7.01671e-12
1.2311e-08
-9.4213e-09
-3.05236e-10
-2.58443e-09
-5.64814e-09
6.35104e-09
1.16081e-08
-1.0973e-08
4.74422e-10
4.85043e-09
-8.77676e-09
-5.09028e-09
4.15926e-09
8.18208e-09
5.38414e-09
5.09563e-09
-2.76369e-10
-5.81567e-09
-6.54935e-09
2.06104e-09
1.08393e-08
-1.57258e-09
-5.28201e-09
5.58073e-09
4.95793e-09
-5.44301e-09
6.2295e-09
1.0346e-10
-5.52596e-09
3.02568e-10
4.94702e-09
-5.90658e-09
1.21269e-08
-6.62123e-09
6.94414e-09
-1.07299e-09
-5.90313e-10
-6.5861e-09
1.00854e-08
8.88285e-09
-1.23823e-08
8.95854e-09
9.55518e-10
-1.65002e-08
-3.21555e-09
1.51524e-08
-1.8515e-09
-4.21517e-09
9.95814e-09
7.69028e-09
1.32392e-09
-1.314e-10
-8.21419e-09
6.52335e-09
5.37424e-09
-3.68342e-09
1.15769e-08
-1.88356e-08
7.88502e-09
1.49577e-08
-4.37641e-09
-1.57511e-09
-6.54852e-09
2.47952e-09
5.89612e-09
-1.27522e-08
8.78944e-09
8.11e-09
-2.62752e-10
-1.04341e-08
1.30641e-08
2.74422e-09
-8.05633e-09
9.19912e-09
1.46256e-08
9.24755e-09
-7.67815e-09
5.38972e-09
-6.95921e-09
1.05074e-08
5.34165e-10
-1.79431e-09
-2.02851e-09
1.21721e-08
3.63786e-10
-1.04971e-08
9.30806e-09
-8.39555e-10
4.7764e-09
-2.68152e-10
-1.21868e-08
-3.65105e-09
-1.45627e-09
-9.55077e-09
1.19143e-08
-1.82965e-09
-6.7065e-09
1.93201e-09
1.02498e-08
-2.44568e-09
4.11004e-09
-4.20475e-09
1.08929e-08
3.56119e-09
1.71948e-09
1.09712e-09
6.49095e-09
9.6868e-09
-5.60632e-10
5.43114e-09
-1.08194e-08
5.94852e-09
9.21348e-09
-1.18746e-08
-1.25068e-09
3.91161e-09
-2.52246e-09
8.38195e-09
3.35371e-09
5.77326e-09
3.26654e-09
-9.30814e-09
5.94486e-09
-5.74934e-09
4.32391e-09
-1.08051e-08
-6.81885e-09
-3.9723e-09
-8.88019e-10
-5.2473e-09
4.54149e-09
-2.07547e-09
1.78066e-09
-3.52391e-09
3.81897e-09
2.76312e-09
7.38141e-10
-5.57615e-09
4.29251e-09
-4.83756e-09
3.30809e-09
-2.40114e-09
8.47414e-09
3.73579e-09
1.27571e-08
-4.35284e-09
-1.21401e-08
3.57613e-09
6.15705e-09
2.69362e-10
-1.00025e-08
2.54879e-09
-2.49653e-09
3.07277e-09
-7.01862e-09
-8.91846e-10
4.4072e-09
3.71341e-09
1.33291e-09
-9.01726e-09
3.97093e-09
4.13854e-09
-1.8533e-09
1.4281e-09
4.7501e-09
-8.33964e-09
4.92249e-09
4.48779e-09
-2.2406e-09
2.50285e-09
3.60339e-09
-6.36291e-09
6.89805e-09
-2.38782e-10
-1.59249e-09
5.43466e-09
-2.76958e-09
-1.5668e-09
7.9389e-09
3.76342e-09
1.81898e-09
-8.1668e-10
1.07774e-08
-7.11236e-09
8.21574e-09
7.15612e-10
2.08453e-09
-7.43076e-09
3.7795e-09
-5.97063e-09
6.85173e-09
1.20344e-09
-7.01948e-09
-7.76019e-09
8.80907e-09
-6.62351e-09
-1.1631e-09
7.67142e-10
1.00672e-08
-1.0627e-08
-6.06371e-09
-1.81679e-09
4.12384e-09
8.71892e-09
-1.54829e-08
4.94722e-09
-8.49399e-09
9.78212e-09
-9.01875e-09
7.43288e-10
7.93121e-09
-2.7476e-09
-2.06665e-08
-4.9089e-09
-3.53826e-09
-1.11827e-08
-1.69129e-08
-3.66571e-09
1.22445e-08
-1.58059e-08
7.227e-09
8.31621e-09
1.07871e-08
-2.27691e-08
-5.9558e-09
7.67948e-09
6.59246e-09
1.44428e-08
-3.88875e-10
6.91914e-09
-2.09732e-08
-2.38455e-08
2.22029e-09
1.8735e-08
2.89019e-09
-2.03704e-08
-1.42012e-10
-3.33309e-09
1.62298e-08
-2.03017e-08
1.4859e-08
-3.68558e-09
4.26113e-09
1.38671e-08
-3.58262e-09
-1.13559e-08
1.63745e-08
-1.436e-09
-1.74771e-08
1.61147e-08
-4.19334e-10
-3.7213e-09
1.73657e-08
-1.48581e-08
4.22648e-09
-6.73416e-09
-7.89267e-09
1.399e-08
1.12684e-08
-1.61933e-08
-1.39988e-08
1.27149e-08
-1.36457e-08
-2.96693e-09
1.53947e-08
-1.72738e-08
-1.29791e-08
3.81642e-09
1.47716e-08
-7.08546e-09
-3.45988e-09
1.74056e-08
1.88924e-08
-2.02938e-08
-2.19189e-09
-5.74541e-09
-5.78251e-09
-4.5165e-09
1.60444e-08
1.41093e-08
-1.2796e-08
-7.05876e-09
8.21989e-09
6.73124e-09
-8.41873e-10
1.12005e-08
-8.50383e-09
1.68965e-09
-4.38642e-09
1.75665e-08
-9.90843e-09
3.54244e-09
-4.11488e-09
-1.58858e-08
7.20467e-09
-1.55516e-08
2.65365e-09
1.03346e-08
2.56314e-09
5.12063e-09
-1.46149e-08
4.46265e-10
9.04783e-09
-1.68628e-08
6.43177e-09
-1.28263e-08
2.40123e-09
1.92115e-09
-9.98385e-09
-8.62503e-09
4.02315e-09
-1.81219e-08
1.04044e-08
-2.09962e-08
5.87283e-09
-1.23313e-08
-7.48931e-09
-7.8883e-10
1.41508e-08
6.19658e-09
-6.383e-09
-1.63253e-09
1.81896e-09
-7.47425e-09
6.39708e-09
7.27379e-09
8.39364e-09
-1.10903e-08
-5.13387e-09
7.83048e-09
-5.04488e-10
-1.05557e-08
1.94538e-08
9.32979e-09
-6.2355e-09
1.02244e-09
8.33099e-10
-8.83292e-09
1.47255e-08
-8.34652e-09
-8.44936e-09
7.96301e-09
-8.08333e-09
7.59237e-10
-6.2876e-09
-4.01933e-10
-4.40077e-09
-8.87074e-09
2.1043e-09
-8.29214e-09
1.27733e-08
-1.50368e-08
8.46464e-09
-4.75223e-09
-2.06704e-09
2.08237e-09
-9.70567e-09
-5.45268e-09
5.4051e-09
-1.05663e-08
-3.85849e-09
-6.05976e-09
1.53233e-08
-1.34147e-08
3.0555e-09
-9.7178e-09
-2.61419e-09
-4.3157e-09
-1.78882e-09
8.71873e-09
-7.72667e-09
1.16111e-08
6.57926e-10
1.20391e-10
1.91302e-10
5.66597e-09
-9.96217e-09
-1.28199e-10
6.95232e-09
3.13799e-09
-8.66095e-09
7.87974e-09
-3.57747e-09
4.35857e-09
-8.95533e-09
-2.65737e-10
5.59995e-10
5.03637e-10
9.92223e-09
-2.54614e-09
-6.56204e-09
-3.7967e-09
8.3178e-09
2.04088e-09
-5.45282e-09
2.36238e-09
-3.47164e-09
-5.35843e-11
-4.7302e-09
-5.17853e-09
-4.99672e-09
-6.06836e-09
1.10113e-08
5.50159e-10
-5.37734e-09
4.69893e-09
3.90099e-09
-7.10194e-09
-5.75446e-09
6.7018e-10
-3.46865e-10
-3.93709e-09
4.99089e-09
5.5773e-09
-1.46881e-09
-9.56145e-09
-2.94964e-09
-4.27702e-09
7.21744e-09
-1.36841e-09
-5.46334e-10
-2.77636e-09
-4.90648e-10
-2.17749e-09
-9.92127e-09
3.60471e-09
-7.25108e-09
-5.40105e-10
3.75879e-09
-8.23701e-10
-3.0062e-09
-4.40318e-09
3.61901e-09
4.54297e-09
-5.96534e-10
-4.63034e-09
3.13644e-09
2.39524e-09
-2.85126e-09
-2.68036e-09
2.22131e-09
6.54773e-10
2.60419e-10
-3.06505e-09
2.92957e-09
2.35688e-09
-3.17034e-10
-3.52743e-10
-2.48858e-09
2.50017e-10
5.16818e-09
-2.57557e-09
2.38579e-09
7.14624e-11
-3.51924e-09
2.31103e-09
-2.52715e-09
2.59146e-09
-3.77287e-10
2.78318e-09
1.49061e-09
-3.01124e-10
5.57828e-09
-1.77464e-08
-7.53135e-09
1.14346e-08
1.38432e-08
-7.11371e-09
-7.3284e-09
-3.30422e-09
6.32876e-09
6.88164e-10
-1.45482e-08
-1.07294e-08
5.95212e-09
-9.03268e-09
1.381e-08
-4.19015e-09
-2.10488e-10
2.51735e-08
-7.78675e-09
-8.91963e-09
-1.29783e-08
-9.52224e-10
2.28502e-08
-1.06734e-08
-2.72582e-09
4.3665e-09
-1.06205e-08
-4.24298e-09
-8.5505e-09
-7.48284e-09
-1.87378e-08
6.60047e-09
9.41162e-09
-1.9407e-08
-1.23092e-08
-1.50046e-08
7.10215e-09
-2.71805e-09
9.56044e-09
-7.13312e-09
-1.79731e-10
-2.24762e-09
-4.42016e-09
6.38488e-09
7.59571e-09
5.18656e-09
1.25357e-09
-6.67483e-10
-5.77266e-09
1.0465e-09
3.88569e-09
2.54362e-10
1.02442e-08
-3.41556e-10
-4.3472e-10
-9.46802e-09
6.04133e-09
8.63654e-11
4.11654e-09
9.10465e-09
-8.19265e-09
8.24539e-09
1.90572e-09
5.68346e-09
-5.07394e-09
-7.74264e-09
8.07227e-10
4.56066e-10
7.2937e-09
-5.75579e-09
-1.71766e-09
1.26727e-09
1.24113e-08
-1.59587e-09
4.67622e-09
2.96097e-09
-8.49415e-09
1.14248e-09
5.16617e-10
-6.25805e-09
-8.41225e-09
4.49004e-09
3.84169e-09
4.34508e-09
3.47821e-10
-3.16776e-09
9.11124e-09
5.66735e-09
1.23105e-08
-1.82155e-09
-1.23839e-08
1.89512e-09
5.85288e-09
-7.14353e-09
1.36012e-08
1.55014e-08
1.73844e-09
-4.37676e-09
8.24222e-09
-2.23146e-11
7.28153e-09
6.41713e-09
3.49973e-12
2.22991e-10
1.20471e-08
-7.39056e-09
-6.43297e-09
5.78593e-09
8.03764e-09
1.05911e-09
-9.16573e-09
7.16149e-10
-1.36313e-08
7.17604e-09
-3.56749e-09
-7.78807e-09
6.01152e-09
-5.18423e-09
6.96085e-09
-7.42789e-09
6.98959e-10
8.04225e-09
-9.79336e-09
-1.06327e-08
-1.10527e-09
2.00403e-09
1.20205e-08
-4.42691e-09
7.88252e-09
-8.18926e-09
-7.12109e-09
1.59306e-09
1.65728e-10
2.2137e-08
-1.0779e-10
-9.37164e-09
-1.26575e-08
-7.76005e-10
1.07792e-08
1.21339e-08
2.42759e-08
4.18507e-09
-1.16987e-08
-1.67622e-08
1.12071e-08
1.22929e-08
-1.98541e-08
1.3183e-08
-4.73493e-09
1.1406e-08
-9.15411e-09
-1.08077e-08
4.83126e-09
1.9131e-08
6.41258e-09
3.87807e-09
-1.09796e-08
6.89031e-10
-2.72562e-09
-5.70574e-09
-8.62409e-09
1.70554e-08
-2.08553e-08
8.78448e-09
7.3359e-09
-1.16802e-08
-1.19007e-08
-8.12966e-09
-1.06572e-08
2.2972e-08
-1.74053e-08
1.07871e-08
6.35375e-09
2.64532e-10
-1.08644e-08
-1.22467e-08
5.81829e-09
1.9251e-08
-1.38621e-08
-4.78439e-09
-1.6286e-08
-5.49213e-09
-1.53422e-08
-6.22661e-09
1.68762e-08
1.79721e-08
-1.34117e-08
-5.65531e-09
-1.33387e-08
-1.59318e-08
5.04728e-09
-7.63497e-09
8.36198e-09
-5.77425e-09
-3.65208e-10
1.12459e-08
-5.8334e-09
-9.34025e-09
-6.95774e-09
6.37594e-09
9.92207e-09
-1.11251e-08
1.66316e-09
1.21662e-10
-9.24079e-09
-6.30455e-09
-6.09301e-09
2.16384e-08
8.07378e-09
6.74138e-09
-6.17944e-09
-8.63569e-09
-3.63934e-09
5.88049e-10
4.48588e-10
-6.64931e-10
-6.67807e-09
-5.0828e-10
-7.07957e-09
1.30903e-08
-6.89847e-09
1.48206e-09
-5.13462e-09
-1.07842e-08
1.14873e-08
-7.89423e-09
-9.89763e-09
-1.11812e-10
2.03e-09
9.56914e-09
9.42685e-09
2.74508e-10
-1.58808e-08
8.42493e-09
-2.63741e-09
-1.27543e-08
1.41465e-09
1.71214e-08
6.7832e-11
-7.87424e-09
-9.31494e-09
9.12761e-10
2.34707e-09
1.38616e-08
1.6304e-08
-6.92967e-09
-9.30652e-09
1.56289e-08
-4.3859e-09
5.0611e-09
3.2994e-09
1.32422e-08
8.63872e-09
-8.77385e-09
-6.79451e-09
3.91227e-09
3.40565e-10
4.12375e-09
-8.39756e-09
3.82299e-09
4.50787e-10
-7.03623e-09
7.93299e-09
2.40264e-09
9.99814e-10
-5.4802e-09
7.98574e-10
5.19468e-09
-5.12941e-10
5.1009e-09
-2.88292e-09
-7.69818e-09
1.85118e-09
-4.17266e-09
7.42242e-09
3.22218e-09
6.65296e-09
-2.78846e-09
-7.08666e-09
8.93903e-09
-3.86564e-09
-6.53192e-09
-7.45429e-10
-6.66458e-09
1.3942e-08
-6.45721e-09
-8.45554e-09
8.38092e-09
-9.8254e-10
6.37842e-09
3.54319e-09
4.39995e-09
1.2705e-09
1.26051e-08
-6.97206e-09
4.06182e-09
-9.73322e-09
-5.49062e-09
-1.68045e-10
-9.02448e-10
-1.36212e-09
-5.80419e-09
-3.55379e-09
-7.233e-09
-2.04093e-09
3.70692e-09
1.2758e-08
-1.44241e-08
8.23851e-10
6.21745e-09
-9.0823e-09
1.42023e-09
9.12002e-09
-1.11661e-08
6.25887e-10
9.82693e-09
1.5195e-09
-9.92623e-09
-3.05169e-09
8.1149e-10
1.13601e-08
7.59908e-09
-8.80699e-09
1.2424e-09
1.12715e-08
-4.0969e-09
5.07438e-09
-1.21436e-08
5.75686e-09
-5.80793e-09
5.09603e-09
-1.48862e-09
2.90943e-09
-5.34156e-09
7.39543e-09
1.75678e-09
-9.68555e-11
3.73326e-09
1.32297e-10
1.48444e-10
1.57077e-08
1.94427e-09
-1.20289e-08
-5.62307e-09
-6.46588e-09
1.76158e-08
-3.12672e-10
-1.08373e-08
1.69541e-08
-7.71236e-09
-6.94367e-09
9.04763e-09
1.6331e-08
-1.8435e-08
7.27784e-10
3.9078e-09
-1.15793e-08
4.35606e-09
-1.41194e-08
9.11278e-10
8.85201e-09
-6.79714e-09
7.70906e-09
1.67038e-08
8.4447e-09
1.71226e-09
-1.52765e-09
8.96277e-09
6.47288e-09
-1.10796e-08
2.73348e-09
6.95707e-09
8.32379e-09
-1.61956e-08
-4.17734e-09
1.20491e-08
8.38536e-09
-1.06394e-08
1.05778e-08
4.65455e-09
-1.0993e-08
1.28113e-08
-9.5968e-09
6.73322e-09
1.00145e-08
-6.5943e-09
-1.01534e-08
2.85122e-09
-4.79597e-09
8.67794e-09
-7.81835e-09
-3.7731e-09
1.44427e-08
-1.99571e-09
-5.75948e-09
-6.31761e-11
-6.71849e-09
-7.31953e-11
-5.58802e-09
1.33462e-08
9.19755e-10
-2.5626e-09
6.98906e-09
-7.1089e-09
-4.53867e-10
4.37673e-12
7.55839e-09
-7.03419e-09
6.17977e-09
-6.25448e-09
-5.7055e-09
9.03735e-09
-7.10494e-09
-7.59972e-09
7.50811e-09
-3.62239e-10
-2.83896e-10
2.71168e-09
-1.00275e-08
3.73746e-09
-1.07018e-08
3.70104e-10
5.54008e-09
2.43319e-09
-1.00311e-08
-2.55545e-09
-4.59186e-09
3.0656e-10
-9.79773e-09
2.47964e-09
6.57715e-09
-7.05555e-10
3.08171e-10
7.5451e-10
-8.74466e-09
-6.80077e-09
-2.47582e-09
3.3894e-09
-8.52568e-09
-4.39924e-09
9.53559e-09
1.75632e-08
-1.13527e-08
-2.82091e-09
4.30167e-09
5.05975e-09
8.20172e-09
5.03413e-09
-2.80931e-09
-1.07504e-08
3.88527e-09
-1.02038e-08
-2.42542e-09
-8.4917e-09
1.48023e-08
-1.39973e-08
4.9552e-09
6.53799e-09
2.50398e-09
-1.38537e-09
-7.91744e-09
-4.69472e-09
-1.24147e-08
1.01359e-08
7.23402e-09
-5.81363e-09
-7.98649e-09
-6.06384e-10
-1.68006e-09
1.33841e-08
-1.10977e-08
-9.28235e-09
-6.81533e-09
1.52934e-08
8.04116e-10
-6.42095e-09
-5.28694e-09
-1.88768e-09
1.26766e-08
-1.13954e-08
1.09593e-08
-3.31331e-09
-1.44615e-08
-1.03924e-08
1.76951e-09
-1.27794e-08
-1.47289e-09
1.25722e-08
-2.84744e-09
2.04018e-10
-8.43859e-11
1.34901e-08
1.31009e-08
4.3964e-09
1.15437e-08
-7.31257e-09
1.12543e-08
-1.23907e-08
8.44887e-09
5.63201e-09
-1.29926e-08
4.80993e-11
3.27047e-09
-1.16096e-08
-4.5208e-09
1.28599e-08
-1.1705e-09
1.56952e-08
-5.61367e-09
-3.63904e-10
1.32629e-08
-1.22986e-08
-1.3957e-08
1.82289e-09
-9.50702e-10
-2.68843e-09
-1.16491e-08
9.81677e-09
-2.64774e-10
2.31624e-09
-1.16884e-08
9.63683e-09
-1.48318e-08
1.18785e-08
-4.517e-09
-1.27458e-08
-1.53358e-08
1.86838e-09
1.16876e-09
-6.14639e-09
1.15571e-08
5.68202e-09
-1.10929e-08
3.03077e-09
-8.7891e-09
-3.8808e-10
1.27029e-08
8.26608e-09
-1.38326e-08
-9.2653e-09
-3.91485e-10
1.63727e-09
-7.4408e-09
-2.98559e-09
-1.03297e-08
-1.8656e-09
-6.03061e-10
-3.32091e-09
5.79958e-09
1.68573e-09
-2.13592e-09
-2.39872e-09
3.04582e-09
3.73478e-09
-4.76426e-11
-2.05029e-10
-1.62204e-09