/*--------------------------------*- C++ -*----------------------------------*\
| =========                 |                                                 |
| \\      /  F ield         | OpenFOAM: The Open Source CFD Toolbox           |
|  \\    /   O peration     | Version:  v1612+                                |
|   \\  /    A nd           | Web:      www.OpenFOAM.com                      |
|    \\/     M anipulation  |                                                 |
\*---------------------------------------------------------------------------*/
FoamFile
{
    version     2.0;
    format      ascii;
    class       surfaceScalarField;
    location    "100";
    object      phi;
}
// * * * * * * * * * * * * * * * * * * * * * * * * * * * * * * * * * * * * * //

dimensions      [0 3 -1 0 0 0 0];

internalField   nonuniform List<scalar> 
37544
(
2.28754e-09
-1.23903e-08
1.49492e-08
-4.84641e-09
-1.57998e-09
-4.44042e-09
7.40413e-10
5.27994e-09
-1.5585e-10
3.28308e-09
-7.23627e-09
4.10897e-09
2.81985e-10
4.537e-09
-4.61891e-09
-2.00062e-10
-1.05273e-08
3.15389e-09
-3.09271e-09
1.04661e-08
8.58702e-10
8.05495e-09
-9.0464e-10
-8.00897e-09
6.59289e-09
4.98031e-10
-6.23221e-09
1.69069e-09
7.91437e-09
-3.01217e-09
9.01312e-09
-1.60673e-09
-5.71569e-09
1.23531e-09
6.12783e-09
5.51261e-10
1.57379e-09
1.20055e-08
-1.83308e-09
-1.17462e-08
1.07504e-08
-2.59096e-09
-1.04469e-10
2.24308e-09
-1.02676e-09
9.92383e-09
-1.11401e-08
-1.87204e-09
-1.26534e-08
1.60992e-08
1.01137e-08
2.62297e-09
-1.30333e-08
9.41734e-09
-7.02747e-09
-2.75528e-09
3.65384e-10
-3.86432e-09
1.3466e-08
-1.84336e-10
3.50082e-09
4.28081e-09
4.22391e-09
-1.17627e-08
8.23607e-09
9.0159e-09
-8.61359e-09
-3.15759e-09
-2.78428e-09
7.93587e-09
3.28961e-09
2.04783e-09
-4.21824e-09
-1.11919e-09
-8.94407e-09
3.62008e-09
1.2496e-08
-5.72875e-09
-8.94984e-09
2.18268e-09
-2.33193e-09
6.73283e-09
4.61225e-09
-6.925e-09
-2.78988e-09
-5.32197e-09
-3.08918e-10
-3.31319e-09
-4.54402e-09
-4.9962e-09
-4.00767e-09
2.51156e-10
4.62285e-09
-8.66317e-10
3.66451e-09
-2.6043e-09
-5.06788e-09
6.93655e-09
-1.23435e-09
-5.45101e-09
-5.8124e-09
7.2038e-09
3.23147e-09
1.66664e-09
-3.81454e-09
-6.05543e-09
4.4202e-09
6.79719e-09
5.8605e-09
2.33699e-09
-9.93664e-10
6.44253e-09
-8.51168e-09
-7.15113e-10
8.91113e-09
-8.15966e-09
1.78726e-09
-2.53877e-09
-5.37624e-09
3.90397e-09
1.03834e-08
-1.0967e-09
-3.89549e-09
1.0439e-08
-5.44687e-09
-3.19016e-09
-6.06622e-09
3.11443e-09
4.45443e-09
7.19068e-10
-8.28794e-09
5.95179e-09
-6.73285e-09
1.13797e-09
3.92483e-09
4.84132e-09
1.99635e-09
-2.38323e-09
4.1466e-11
4.35942e-09
4.40436e-10
-4.15936e-09
-3.60879e-10
8.42421e-09
-2.71085e-09
3.38755e-10
3.99687e-09
-6.46796e-09
5.74883e-09
2.44424e-10
3.59628e-09
3.29052e-09
-2.95594e-09
3.62343e-09
3.69193e-09
-1.13094e-09
1.7136e-10
6.85882e-09
1.55082e-10
-6.76402e-09
2.30327e-09
1.48266e-09
2.97807e-09
-3.22092e-09
2.5623e-09
-6.1054e-09
-2.77652e-09
3.7525e-11
4.00329e-09
-1.26432e-09
1.83506e-10
-6.18097e-09
-6.86856e-09
3.16525e-09
6.00658e-09
-1.37036e-09
-2.93591e-09
1.60564e-09
1.97424e-09
-3.3964e-09
2.26257e-09
-6.19421e-10
2.04688e-09
3.43902e-09
3.35035e-09
-2.74649e-09
-1.55557e-09
-2.20306e-09
-4.74993e-10
4.23343e-09
-4.17298e-10
9.08356e-10
-2.61394e-09
-6.48553e-12
-3.55291e-09
6.24316e-09
5.3261e-10
-7.35191e-10
1.81233e-10
-6.12224e-09
-2.54018e-09
8.50661e-09
1.55777e-10
-7.13915e-09
7.30906e-09
-6.29216e-09
3.09027e-09
1.63576e-09
-1.18652e-08
3.54011e-09
-2.99003e-09
3.18922e-09
-6.28305e-10
-6.76656e-09
4.2055e-09
-8.56471e-09
2.08206e-09
9.6718e-09
8.41696e-09
-1.18108e-09
7.3159e-11
-2.65554e-09
1.81765e-09
-9.1799e-09
1.00177e-08
-7.04191e-09
3.75805e-09
9.74479e-09
4.31445e-09
-1.24235e-08
4.32188e-09
-6.61511e-09
-4.47337e-09
-4.46197e-09
2.19132e-10
-8.16391e-09
1.20636e-08
-4.73413e-09
4.98718e-09
-6.89496e-10
9.01647e-09
-4.5279e-10
6.93542e-09
-8.88219e-09
-5.09514e-09
6.77198e-09
-4.53799e-10
-4.11394e-09
-3.5288e-09
-4.20956e-09
4.75303e-09
-4.1025e-10
-1.33205e-10
-3.92622e-09
-5.40239e-09
5.11905e-09
-1.37172e-09
-1.74679e-09
-4.61896e-10
3.58031e-09
-7.73034e-10
-1.64127e-09
1.04247e-09
-1.85918e-09
-6.60682e-10
-2.06594e-09
3.04101e-10
1.20564e-10
-8.21206e-12
1.76939e-09
-3.82712e-09
3.13696e-09
5.75245e-09
-4.13639e-09
3.19584e-09
-7.13027e-09
-6.29047e-10
5.3926e-10
-3.27548e-09
3.32479e-09
-6.78344e-10
-4.89883e-10
5.99986e-09
-1.59209e-08
-2.1748e-08
3.4683e-09
-1.41331e-08
-2.15247e-08
1.00501e-08
-1.37005e-08
2.8501e-09
-3.28256e-09
1.84987e-08
2.21501e-09
-3.44142e-08
2.7319e-09
-2.04616e-08
-1.34713e-08
1.40903e-09
-1.55162e-08
-2.08662e-08
2.01062e-08
-3.34073e-08
-9.51202e-09
5.58175e-09
-9.25861e-09
8.16442e-09
-4.48751e-09
-1.30256e-08
1.62939e-08
2.3135e-09
1.22787e-08
-4.15272e-09
3.8586e-09
-4.60551e-09
-3.30954e-09
2.5953e-09
7.14038e-09
2.01508e-09
-1.53331e-09
-1.11635e-08
6.86873e-09
5.82813e-09
8.67358e-09
6.08699e-09
1.20542e-08
-7.97509e-09
-2.31565e-09
-1.76348e-09
2.53606e-09
-7.7537e-10
1.02936e-08
7.20959e-09
-9.36962e-09
-5.815e-09
-1.06849e-09
7.90041e-09
3.77679e-10
2.01813e-09
6.1986e-09
-4.75621e-09
7.77308e-09
4.95362e-09
-6.5281e-09
6.44834e-09
2.56238e-10
-1.43166e-10
-2.85593e-09
1.12287e-08
-2.29679e-10
-6.29237e-09
7.38683e-09
5.35385e-09
-1.48191e-09
3.97906e-10
-1.74059e-09
8.21138e-09
-1.78157e-09
1.0853e-08
-1.34445e-08
1.4199e-08
-4.53148e-09
1.07032e-09
6.05471e-09
6.71656e-09
8.42685e-09
4.09426e-09
-5.13748e-09
-7.38362e-09
7.29525e-09
2.94935e-09
-1.81773e-09
-2.63826e-09
4.6779e-09
5.25563e-09
1.26568e-09
1.90341e-10
4.29521e-09
-2.10241e-10
6.5792e-09
-1.06641e-08
5.18058e-10
-9.08678e-09
3.43122e-09
1.94787e-09
-7.5279e-10
-3.13108e-09
1.93565e-09
-2.52615e-09
-1.1804e-09
5.65445e-09
-3.37393e-09
9.50129e-11
7.79273e-09
-1.2454e-08
4.87496e-09
7.3688e-09
-2.39403e-09
-9.09018e-09
-9.6977e-10
-2.51645e-09
4.08205e-10
4.54134e-09
-6.41731e-09
-6.293e-09
8.03689e-09
-4.2681e-09
6.26532e-09
-1.56848e-08
-8.31383e-09
1.77334e-08
-1.6153e-08
-2.22271e-09
2.46411e-08
-2.62714e-09
-1.76203e-08
4.09441e-09
-1.96622e-08
1.35028e-09
-2.04823e-08
-9.713e-09
2.79727e-08
1.16485e-08
-1.93033e-08
-1.28273e-08
-8.06278e-09
9.99834e-09
1.57323e-09
1.68206e-08
1.3385e-08
-3.17787e-08
1.13062e-08
1.29084e-08
-2.26413e-08
-1.11779e-08
-3.25997e-09
-3.18233e-09
1.68233e-08
-1.6695e-08
-2.42778e-09
-1.72037e-08
1.13177e-08
-2.54026e-10
-2.58482e-09
-2.09397e-09
2.10731e-08
-2.15846e-09
1.5169e-08
-4.35457e-09
1.05826e-08
-9.17825e-09
-2.28862e-09
-1.83199e-09
-1.63223e-08
6.32416e-09
1.18302e-08
2.19373e-08
6.07455e-09
-8.68663e-09
-1.93251e-08
2.24091e-08
-6.00972e-09
5.5379e-09
1.51438e-08
5.43328e-09
-1.57562e-08
2.54851e-08
5.41486e-09
1.28815e-09
-1.93805e-08
8.17248e-09
9.91979e-09
-2.32531e-08
1.20353e-08
1.2506e-08
2.20639e-08
-2.78129e-09
-1.3208e-08
1.69117e-08
-8.57573e-10
1.57728e-09
-1.30504e-08
-4.84918e-09
-1.59534e-08
-5.7224e-09
-1.02143e-08
1.13699e-08
-2.0242e-09
-1.97128e-08
1.62377e-08
-1.51332e-08
-1.7058e-08
-1.20129e-08
8.87006e-09
-2.53969e-08
3.16969e-09
-8.91397e-09
-1.92642e-08
-2.60713e-08
-6.92443e-11
2.39754e-09
-6.03268e-09
3.7044e-09
6.03954e-09
-9.60905e-09
3.50027e-09
-4.53915e-09
6.46661e-09
4.70079e-10
-3.86501e-09
-5.94332e-10
-1.57333e-09
4.02652e-09
1.50605e-09
3.15671e-09
-8.68927e-09
1.08185e-09
-9.20323e-10
-5.69727e-09
6.40491e-09
3.74227e-10
5.35062e-09
-9.54183e-09
4.2465e-10
1.44111e-09
1.9194e-09
-5.45322e-09
6.69054e-09
-2.71785e-09
9.98787e-09
2.76206e-09
5.05345e-10
1.29332e-08
-1.62007e-08
-3.70926e-09
-1.53619e-09
9.08635e-09
-3.84093e-09
-6.97248e-09
8.33334e-09
-3.79841e-09
2.4375e-09
-1.25552e-08
1.93198e-09
1.33852e-08
-2.97024e-09
-1.63837e-08
5.45452e-09
1.38993e-08
1.69186e-09
-1.16346e-08
-1.21616e-08
-3.52575e-09
3.13211e-09
3.45143e-09
6.34488e-09
-8.1045e-09
-8.09347e-10
-3.79681e-09
8.05748e-09
-4.32676e-09
8.37448e-09
1.08248e-10
-4.15609e-09
-1.69116e-09
-1.90722e-11
1.14673e-08
-9.51633e-09
-1.73535e-09
1.00907e-08
2.78921e-09
-1.14663e-08
9.1824e-09
-3.51362e-09
2.5004e-10
3.84667e-09
-5.831e-10
3.8475e-09
1.14395e-09
-8.50508e-09
-5.60506e-09
5.902e-09
-4.68941e-11
3.67733e-09
-5.43489e-09
-6.90824e-09
-7.02501e-09
5.41157e-09
8.52171e-09
-7.28037e-09
3.85448e-10
-1.32813e-11
-1.71926e-09
-2.3128e-09
-2.99294e-09
-3.51826e-09
-5.48136e-09
6.2257e-09
-4.69184e-09
-2.77783e-09
4.0613e-09
4.61852e-09
6.30382e-10
2.69115e-10
-3.73703e-09
-1.48716e-09
1.06358e-08
-3.5255e-09
1.73939e-10
3.31527e-09
-5.68957e-09
8.79984e-09
4.20157e-10
-1.64748e-08
6.56757e-09
6.01222e-09
3.89503e-09
-6.0354e-09
-6.5432e-09
-3.89613e-09
-1.43283e-08
-3.29814e-09
5.26802e-09
1.23585e-08
1.58848e-08
-2.36455e-08
4.52155e-09
8.06519e-09
7.16266e-10
5.49986e-09
-2.03868e-10
-5.92247e-09
6.11205e-09
5.26731e-10
-5.81815e-09
1.1682e-08
-1.34225e-09
2.07416e-08
-1.02667e-08
-1.6293e-08
-2.11003e-09
6.28447e-09
7.50757e-09
1.04526e-08
8.17892e-09
1.82258e-09
8.94531e-09
-1.22941e-08
5.4558e-09
1.11089e-08
1.35629e-08
8.96982e-10
-1.47855e-09
-1.67605e-09
2.25756e-09
-2.03597e-09
2.92589e-09
7.03201e-12
8.32267e-10
4.94819e-09
-1.54525e-09
-4.23533e-09
2.8477e-09
-2.01378e-09
-1.71837e-12
6.66337e-11
-2.18588e-09
7.06735e-09
-1.27734e-09
4.19162e-09
-1.14224e-08
1.07717e-08
-1.53531e-09
-4.05304e-09
-5.27031e-09
-2.09911e-09
-1.9457e-09
2.97414e-09
-3.06452e-09
2.46349e-09
-5.88777e-09
-3.6062e-10
-1.08471e-09
-4.01443e-09
5.45968e-09
9.41354e-10
-2.92757e-11
-5.33514e-09
-5.22111e-09
6.50311e-09
3.67164e-09
-1.05813e-09
-3.27389e-09
3.01203e-09
-1.01564e-09
1.33908e-09
-4.28175e-09
-4.62214e-09
1.79498e-09
7.10898e-09
-4.61417e-09
-1.42215e-10
4.74691e-10
-7.79257e-10
-3.41095e-09
-4.31918e-10
-3.72479e-09
-1.66862e-09
-2.09577e-09
-6.58969e-10
4.54975e-09
-2.40998e-09
1.72008e-10
1.72105e-09
-2.44438e-09
-3.00146e-09
8.08527e-09
-1.80665e-09
5.42342e-10
-6.82095e-09
2.02836e-09
2.64597e-09
5.22044e-10
-2.50864e-09
2.266e-09
-2.79378e-10
-1.66879e-10
6.4628e-09
-4.02753e-09
-3.09423e-09
6.05241e-10
-4.85626e-09
7.73219e-09
-1.54509e-09
-5.64475e-09
5.55377e-09
4.2068e-09
-1.90489e-09
-3.65319e-09
4.013e-09
-3.80828e-09
1.14015e-08
-1.60711e-08
1.16288e-08
-6.95929e-09
1.70638e-08
-6.84116e-09
1.43569e-08
-2.45795e-08
-2.04648e-09
3.03432e-09
-8.19747e-09
7.20963e-09
3.02652e-09
-1.03792e-08
5.30612e-09
1.24725e-08
-2.69958e-09
6.94858e-09
-1.67215e-08
3.23868e-09
2.62976e-08
4.57577e-09
-8.41449e-09
6.86523e-09
1.08488e-08
3.14991e-09
-8.76407e-09
7.70869e-09
-2.09455e-09
-9.02374e-09
1.09346e-08
1.23901e-09
5.50776e-09
-1.14333e-08
-2.83858e-09
2.01381e-09
-5.5298e-09
4.39587e-09
1.6446e-10
-6.57298e-09
9.31015e-09
1.98432e-09
-4.65479e-09
1.26553e-08
-5.5255e-09
-5.11599e-09
-2.03431e-09
3.38274e-09
-6.27034e-09
-8.39954e-09
3.63046e-09
1.10394e-08
8.22542e-10
-8.55035e-09
1.45746e-09
5.27637e-09
3.38369e-09
-4.54842e-09
-4.11163e-09
5.02516e-09
1.07378e-09
-1.05758e-08
-3.25414e-09
5.43037e-09
-8.1709e-09
-1.09553e-08
-4.22706e-09
3.12024e-09
6.13198e-09
-1.12875e-09
2.85394e-10
-3.66868e-09
1.02402e-09
-6.09503e-10
-1.55098e-09
-1.02886e-08
-2.70042e-09
9.4511e-09
2.20274e-09
-8.30215e-09
-2.82938e-09
-4.48234e-09
4.61129e-09
-4.09942e-09
1.41272e-10
2.78499e-09
-4.68167e-09
-6.73318e-10
-1.78109e-08
1.12141e-08
1.14243e-08
-4.82751e-09
4.21759e-09
-1.84669e-08
-3.56154e-09
-1.03865e-08
6.6222e-09
1.49784e-08
-7.01456e-09
8.45707e-10
-2.59341e-09
-1.44041e-08
-1.46938e-09
8.42619e-09
-2.63905e-09
-8.38052e-09
6.87445e-10
7.24216e-10
-8.06882e-09
1.04346e-08
-3.62661e-09
1.26086e-09
-2.3251e-09
-8.38277e-09
1.00031e-08
1.11897e-09
1.89303e-08
-8.74924e-09
-4.01397e-09
-6.16701e-09
1.71185e-09
1.57433e-09
1.56441e-08
1.81985e-08
-1.56106e-08
-1.13371e-08
1.35922e-08
1.3891e-08
-9.28478e-09
-1.33118e-08
2.3129e-09
1.27108e-08
-1.09996e-08
-6.32616e-09
1.18363e-08
1.5915e-09
-1.57529e-08
-2.78991e-09
1.02442e-09
1.12916e-08
-1.96241e-09
9.60904e-09
1.32042e-08
-1.97479e-08
5.72881e-09
1.57007e-09
-1.54858e-09
-8.29387e-09
8.27243e-09
4.51385e-10
-4.68339e-09
5.80208e-09
7.011e-10
-3.02677e-09
1.22459e-08
-9.92019e-09
5.36427e-09
-4.21177e-09
4.25256e-09
8.22351e-09
-8.46394e-09
-4.0121e-09
1.29598e-08
-8.83683e-09
1.29603e-10
1.61244e-09
9.79885e-09
9.42016e-10
-1.01237e-09
-3.9056e-09
1.64241e-10
-1.51661e-08
1.37518e-08
-6.27976e-09
-4.69679e-11
-4.18807e-09
1.05149e-08
-1.09969e-09
1.83487e-09
-9.57198e-09
2.30689e-11
-9.58669e-09
4.43247e-09
-5.38509e-09
-5.32714e-09
-9.19236e-10
5.1198e-09
2.31958e-10
6.11212e-10
4.772e-09
-5.36011e-09
6.65869e-12
-4.78053e-09
-9.73504e-09
-5.47805e-09
-7.89349e-09
-5.2821e-11
6.20703e-10
-6.27438e-09
5.89529e-09
-2.41563e-10
-3.35181e-09
3.8977e-09
7.48534e-11
3.65106e-09
-1.04629e-08
1.17224e-09
5.63958e-09
-9.66703e-09
7.04372e-09
-1.03351e-08
-9.85011e-10
1.65306e-09
-3.10372e-09
-4.52659e-09
3.7529e-09
3.87742e-09
-3.33562e-09
5.4801e-10
-3.16099e-10
-9.45858e-09
-8.05148e-10
-1.99113e-10
-1.49325e-08
-4.86119e-09
5.23333e-09
-5.55248e-09
-3.01647e-09
-9.84041e-11
-3.79263e-09
-4.63857e-09
5.07939e-09
-3.09349e-09
-1.51143e-10
-5.31661e-09
-3.06971e-10
-5.1774e-09
-3.23269e-09
1.32795e-09
-9.99162e-11
-9.89442e-09
8.66643e-09
-3.93419e-09
4.21721e-09
1.04492e-09
9.93736e-09
-1.0003e-08
2.17887e-10
-1.52263e-10
7.08449e-09
8.60843e-09
-5.75555e-09
-1.48648e-09
-7.34262e-09
-1.17385e-09
1.07164e-08
-2.36329e-09
-1.17346e-08
3.38142e-09
5.38564e-09
4.99582e-09
3.35028e-10
-5.1396e-10
7.90978e-09
-2.01009e-09
9.39611e-09
-6.50914e-09
-3.4009e-09
6.96227e-09
8.47606e-10
-1.3772e-09
8.78898e-10
-4.89685e-09
-4.14539e-10
-6.91293e-09
7.03749e-09
9.33553e-11
-2.4439e-09
-5.95549e-09
5.3589e-09
1.38095e-09
4.1187e-09
-5.26894e-09
-1.08379e-09
5.47796e-09
2.69035e-09
8.34136e-10
-1.46106e-09
7.66444e-09
3.87655e-09
-4.9395e-09
-6.25759e-10
-1.52376e-10
-3.53226e-09
4.457e-09
-9.05864e-11
-2.81451e-10
-2.72064e-09
-3.49718e-09
2.88121e-09
3.33658e-09
-2.76397e-09
1.77729e-10
-1.34407e-10
3.47805e-09
-3.05458e-09
-3.18745e-09
-4.9365e-10
4.74519e-10
-1.58683e-09
-4.10324e-10
4.87836e-09
-2.85842e-09
-1.48685e-09
2.75841e-09
-2.59142e-09
-8.92709e-11
4.4849e-09
-5.24261e-09
2.64046e-10
1.71799e-10
4.61301e-09
-4.19252e-09
-5.92284e-10
-2.3255e-09
-9.41081e-11
6.53332e-09
-2.45875e-09
2.20766e-09
9.18489e-10
1.07864e-09
-5.43986e-09
1.30662e-09
-1.62849e-09
3.9161e-10
-2.95564e-09
-2.87535e-09
-3.39684e-09
-2.39564e-09
6.18407e-09
1.92028e-08
-3.54837e-09
-1.23231e-08
-3.33127e-09
1.16828e-09
7.51645e-09
1.05179e-08
2.18477e-09
1.11397e-08
-4.51335e-09
-8.81122e-09
4.96829e-09
2.75996e-09
-1.04505e-08
2.72224e-09
4.93083e-09
9.28603e-09
-9.24864e-09
1.19727e-08
-4.85717e-09
1.20477e-08
-5.00677e-09
-1.05893e-08
7.88083e-09
-1.52222e-08
9.97832e-09
-4.73815e-10
8.11894e-10
-8.53893e-09
-3.94441e-11
6.77204e-09
-9.01887e-09
-3.37639e-10
8.16595e-09
-5.93561e-09
5.00187e-09
2.55802e-09
-1.62433e-09
1.41847e-08
-7.87939e-09
-1.22409e-08
3.00612e-09
1.61804e-08
-8.72234e-09
1.4016e-08
-3.54733e-09
1.02374e-08
-7.83943e-09
1.14932e-09
-1.58394e-09
9.33329e-09
-1.12967e-08
7.79163e-10
-7.91274e-09
-7.4579e-10
-8.72419e-09
7.81009e-10
-1.22496e-08
2.75289e-09
1.29405e-08
5.66823e-09
-8.09007e-09
-1.05186e-08
-7.30982e-09
3.70509e-09
-8.78562e-09
2.80738e-09
1.20209e-10
3.41648e-09
6.98192e-09
-4.05721e-09
3.30754e-09
-6.23218e-09
8.03818e-09
-1.65766e-09
6.01471e-10
-2.18992e-09
-8.73794e-09
9.20676e-09
1.72124e-09
7.24516e-09
-1.39685e-09
3.74737e-09
-1.45088e-09
-6.35362e-09
6.46505e-09
-7.9498e-10
-1.92262e-09
5.91571e-09
-1.10829e-09
-2.47334e-09
-2.957e-09
-3.29373e-09
-1.003e-08
-6.99817e-10
1.40236e-08
-2.40377e-09
-7.51339e-09
6.6235e-09
-6.04406e-10
5.44585e-09
2.66015e-09
5.94226e-09
3.99597e-09
5.01059e-09
-1.04573e-08
7.74724e-09
-4.54618e-09
-3.5266e-10
-1.24497e-09
-7.67897e-09
-2.70364e-09
-7.62296e-09
9.58334e-09
7.04915e-09
-4.5118e-09
-2.63061e-09
2.05686e-09
-2.56235e-09
-7.72622e-10
-2.75652e-09
-4.71414e-09
8.24328e-09
-3.12677e-09
-5.24298e-09
7.59711e-09
-1.76787e-10
4.52014e-09
-7.47012e-09
-7.35507e-09
4.42178e-09
-4.72051e-09
-4.98027e-10
-2.44345e-11
-4.55567e-09
-7.43844e-09
7.27998e-09
-4.2997e-09
-3.47907e-10
9.19599e-11
-6.4344e-09
-2.72552e-09
1.72147e-09
-4.82952e-09
-5.90459e-09
5.76402e-09
-9.56473e-09
1.07518e-09
-9.85162e-09
8.26057e-09
-5.2624e-09
1.93975e-10
7.07842e-09
-1.35829e-08
-3.0602e-09
2.16133e-09
-4.93451e-09
3.20146e-09
4.01354e-09
-4.31007e-09
-2.90493e-09
-2.39263e-09
3.31686e-10
-1.19483e-09
7.36971e-09
5.08253e-09
4.0424e-10
2.09361e-09
-7.58034e-09
5.85468e-09
-1.26263e-09
4.90518e-10
5.05872e-09
-1.46696e-08
1.00152e-08
5.11634e-09
-7.13181e-09
-7.95502e-09
9.97053e-09
-1.30096e-09
5.91565e-09
5.01689e-10
1.59208e-09
-6.63025e-09
3.48056e-09
1.55625e-08
-1.39843e-08
4.39891e-09
1.54883e-10
6.38492e-09
-6.02588e-09
1.25467e-09
-1.61353e-09
-1.72988e-09
1.51053e-08
-6.99048e-09
1.22817e-08
-7.20903e-09
4.2735e-09
3.61465e-09
7.6744e-09
4.54783e-09
9.76878e-09
-1.00431e-08
7.21687e-09
9.87049e-09
7.90181e-09
-1.09177e-09
-6.36332e-10
-6.17374e-09
-8.15303e-10
-7.15105e-10
9.43219e-09
-1.10711e-08
-1.60689e-09
1.18626e-08
-9.50474e-09
-2.65813e-09
-3.1193e-09
-6.33255e-09
5.24106e-09
4.21075e-09
-1.03311e-09
1.2147e-10
-1.58804e-09
-5.77761e-09
-1.32329e-09
-9.58993e-09
1.40845e-09
-1.21665e-08
-8.12834e-10
1.13724e-08
-7.85159e-09
-6.21664e-09
1.90165e-09
-1.41595e-09
5.94189e-09
4.96922e-10
9.05375e-09
-1.12826e-08
-7.34696e-09
6.25583e-09
6.45615e-09
-1.79389e-09
-4.67233e-09
1.01331e-11
5.10206e-09
5.67386e-09
-5.07818e-09
-5.69775e-09
6.12488e-09
-1.80715e-09
7.84345e-10
1.18207e-08
7.34195e-10
-8.4933e-09
-4.0615e-09
1.80523e-09
8.46817e-09
1.54725e-09
9.35741e-09
7.2044e-09
8.27791e-09
4.10566e-09
5.43334e-10
6.4077e-09
5.66642e-09
-2.30859e-09
-9.76545e-09
6.71663e-09
-2.1028e-09
3.07125e-09
-6.27238e-09
-5.29214e-09
1.66999e-09
7.33965e-09
-8.79672e-09
3.04841e-10
1.16113e-08
-3.11947e-09
-6.65559e-09
-5.47972e-10
-1.59317e-09
1.68469e-09
-1.62364e-09
5.53836e-09
2.51981e-10
-2.02951e-09
1.07672e-08
7.5132e-09
-1.09512e-08
-6.47886e-09
3.52774e-08
-1.78474e-08
-1.18334e-08
1.2802e-08
-1.19198e-08
6.65413e-09
-1.4711e-08
2.76929e-09
5.28759e-09
-2.90183e-08
1.38087e-08
2.18636e-08
-3.36213e-08
-1.19567e-08
1.65598e-08
-2.7192e-08
-2.11403e-08
-2.19412e-08
2.92711e-08
-1.91246e-08
-2.70378e-08
3.0853e-08
1.53094e-08
-1.28335e-08
3.76942e-09
8.80099e-09
-1.16028e-08
-2.43902e-08
8.6499e-10
-4.02065e-09
1.6433e-08
-3.22018e-08
6.35202e-09
9.41672e-09
-2.84396e-08
2.29313e-08
-1.31809e-08
-9.82958e-09
1.0177e-08
1.06764e-09
-2.58513e-08
-1.68674e-08
-1.07072e-08
-1.66492e-08
-3.242e-08
-3.47062e-08
-7.85954e-10
2.12836e-08
-3.82593e-09
-1.66717e-08
2.44301e-08
-4.68521e-09
-2.05308e-08
7.8668e-09
2.31912e-08
-6.62785e-09
2.56263e-08
3.52415e-09
-4.55254e-09
1.73683e-08
-1.66416e-08
8.43322e-10
2.00002e-08
-2.5396e-08
2.0106e-08
-2.39478e-08
2.34657e-08
-4.01246e-09
6.17297e-09
6.69207e-09
1.90587e-08
-5.75053e-09
3.23367e-09
2.08267e-08
7.55248e-09
-5.20376e-10
1.61591e-08
5.93622e-09
2.5082e-08
-2.26115e-08
6.7302e-09
1.5361e-08
1.56801e-08
-1.81856e-08
3.43583e-08
-3.83067e-09
-1.48474e-08
1.25096e-08
2.85789e-08
-3.51008e-08
3.66443e-09
4.39459e-08
-1.98728e-08
3.24994e-08
-2.28988e-08
-8.38658e-09
3.4669e-09
2.44402e-08
-1.95206e-08
5.81519e-09
-1.5985e-08
2.85673e-09
7.31298e-09
2.57884e-08
-2.80105e-08
1.93026e-08
1.63487e-08
1.05309e-09
8.18846e-10
-5.21429e-09
1.8529e-08
-8.00737e-09
-1.99551e-09
1.08217e-08
-8.60381e-09
1.52661e-08
-3.19545e-09
-1.06212e-08
7.83255e-09
5.68179e-09
-2.19396e-09
5.34447e-09
-7.70808e-09
4.05079e-10
-5.00718e-09
7.55127e-09
9.91754e-09
-1.24617e-08
2.07119e-08
-2.72766e-09
-2.40869e-08
6.10263e-09
1.95124e-08
3.47182e-09
-2.27233e-09
1.95777e-08
-4.44979e-09
-1.20418e-08
-3.08609e-09
5.51194e-09
9.0586e-09
1.13366e-08
8.00955e-09
1.66273e-10
4.7035e-09
1.41843e-08
-4.34552e-09
1.76586e-08
-1.77629e-08
1.82087e-08
-2.52819e-08
-1.62647e-08
-4.66514e-09
2.56333e-08
-1.77282e-08
9.47306e-09
1.5948e-08
1.88013e-08
-1.70908e-08
1.11616e-08
1.02984e-08
6.68362e-09
-6.20323e-09
-2.72893e-08
3.37857e-08
-1.80442e-09
1.48478e-09
-1.04436e-08
-1.03338e-08
1.92927e-08
-9.81929e-09
-9.21692e-09
2.0521e-08
1.31022e-09
-2.84453e-08
1.66916e-08
1.00474e-08
-2.48948e-08
1.61577e-08
-1.70774e-08
1.73055e-08
-4.89487e-09
-1.8926e-08
1.46041e-08
-7.9088e-09
-2.78399e-08
2.5415e-08
-2.79378e-08
1.51342e-08
-3.41676e-09
-1.32818e-08
-1.17466e-08
-1.46159e-08
-1.36955e-08
3.76898e-09
-1.63466e-08
-4.49965e-09
-1.28436e-08
1.01933e-08
-1.97326e-08
-1.83005e-08
-1.27991e-08
-4.94541e-09
-9.32192e-09
-2.16405e-08
-1.39768e-08
-1.16657e-08
-7.62504e-09
-2.53892e-08
7.77168e-09
-1.41984e-10
-6.24055e-09
-1.38915e-09
-6.78707e-09
-2.06287e-09
1.03258e-08
-1.47586e-09
2.5761e-09
4.19727e-09
1.25748e-09
-8.03084e-09
6.99219e-09
3.63271e-09
-8.04882e-09
-9.23034e-11
-6.84417e-09
1.49385e-10
2.93393e-09
1.79719e-09
-1.10577e-08
6.32652e-09
9.67994e-09
-1.29474e-08
6.20133e-09
-9.96347e-09
1.63844e-08
3.25892e-09
9.00319e-09
9.71458e-10
-2.20293e-09
8.64286e-09
4.55758e-09
1.24648e-08
-4.16055e-09
2.8754e-09
-1.11797e-08
-1.24906e-09
7.47299e-09
-9.71164e-09
3.48774e-09
9.00182e-09
-9.18815e-09
9.40086e-11
3.67821e-09
-4.16084e-09
-7.26953e-09
9.84242e-10
1.25896e-08
3.04549e-09
-9.63561e-11
1.82862e-09
-1.61198e-08
7.38971e-09
6.23532e-09
-1.39428e-08
-8.4124e-09
-1.36946e-08
1.74856e-08
3.59869e-09
-7.48433e-09
2.50424e-11
-3.40038e-09
-1.03574e-08
-1.85003e-10
-6.79923e-11
1.15707e-08
-1.49031e-08
1.4859e-08
-1.90876e-08
9.46677e-09
-5.38047e-09
-1.16492e-08
1.36873e-08
7.42864e-09
-9.51139e-10
-4.30308e-10
1.77107e-10
2.95242e-08
-2.19369e-10
3.50665e-08
-2.15648e-09
2.41415e-08
-1.82156e-08
-2.22883e-08
2.54194e-08
2.12786e-10
-1.59886e-10
1.50016e-08
-1.50545e-08
-1.97239e-11
3.44983e-08
-3.42658e-08
-2.2439e-08
2.20598e-08
1.15382e-08
1.61651e-09
1.09868e-08
1.90118e-09
-2.63541e-08
2.65115e-08
-1.21839e-08
7.69343e-09
-1.68152e-08
9.70216e-09
8.72958e-09
-1.48139e-08
9.18949e-09
-1.11908e-08
-8.12741e-09
-2.49021e-08
-1.46004e-08
9.66388e-09
1.46387e-08
-2.25118e-09
-3.15976e-09
1.49119e-08
1.28487e-08
-5.89506e-09
-2.18656e-08
1.64286e-08
-3.7679e-09
2.39258e-08
-1.86345e-08
7.55741e-09
1.22654e-08
1.69899e-08
-5.32945e-09
-2.3852e-08
9.6065e-09
2.11715e-08
1.2886e-08
6.7116e-09
-2.05031e-08
9.05487e-10
-1.07687e-08
9.91222e-09
1.37425e-08
-8.05647e-09
-3.35938e-09
-1.53548e-09
1.29514e-08
-5.90771e-09
4.56287e-09
-3.96594e-09
-3.74345e-09
-3.05925e-09
-1.10919e-08
-1.33771e-08
-3.70701e-09
1.02599e-08
8.86309e-09
-1.8837e-08
-4.34243e-09
1.43164e-08
-1.27575e-08
2.00851e-08
7.03355e-09
-1.68958e-08
3.95459e-09
-1.13475e-08
5.62358e-09
-1.8894e-08
-1.12905e-08
-1.91432e-09
6.04044e-09
-1.5218e-08
1.31153e-08
6.38317e-09
-2.14127e-08
1.12343e-08
-1.86245e-09
-8.45287e-10
-1.00101e-08
1.35901e-08
7.51945e-09
-1.47264e-08
1.3563e-08
1.12614e-08
5.51359e-09
-1.22198e-08
1.32817e-08
1.51926e-08
-1.79563e-08
-1.79648e-08
-4.00798e-09
9.64968e-09
8.14948e-09
-6.37964e-10
3.07594e-09
-1.38035e-10
7.8673e-09
4.20242e-10
-1.12002e-08
4.72853e-10
3.52424e-09
-6.8506e-09
2.49488e-10
-8.88235e-10
7.48936e-09
4.30933e-09
-8.5123e-09
2.99267e-09
1.88013e-08
6.86645e-10
5.94194e-09
-1.5141e-08
-6.93584e-09
5.51093e-09
-1.35414e-08
1.49662e-08
5.12133e-09
-1.13705e-08
9.01759e-09
-9.00825e-10
-8.4137e-09
1.07275e-08
-9.03069e-09
1.75343e-08
-2.89329e-09
1.55161e-09
-1.21997e-08
-6.42019e-09
-2.95909e-10
-3.87534e-09
2.32744e-08
-1.18189e-08
-7.58012e-09
-1.25985e-08
2.09986e-08
-1.22755e-08
9.2886e-09
-1.00279e-08
-1.18591e-08
-6.78742e-09
1.62885e-08
-2.1246e-10
1.28074e-08
8.74111e-09
-3.15764e-08
1.62966e-08
-1.02766e-08
-3.07383e-09
1.11857e-08
1.51626e-08
8.67298e-09
9.25182e-09
2.81296e-09
-3.6715e-09
-1.49603e-08
1.58189e-08
-9.65599e-09
-2.43323e-09
1.49022e-08
-1.0294e-08
9.31106e-09
6.18675e-09
-1.92209e-10
-1.85167e-08
1.54389e-08
-3.43762e-09
1.21901e-08
1.06899e-08
-1.7799e-08
-1.61916e-08
7.41803e-09
-4.15742e-09
4.26249e-09
-4.4664e-09
8.36736e-09
1.61842e-08
3.19248e-09
6.65758e-09
1.04933e-08
-1.08025e-08
3.50167e-09
-1.9111e-08
3.36663e-09
2.62377e-08
1.32949e-08
-1.32909e-08
-1.08065e-08
-1.22899e-08
6.47384e-09
-1.33678e-08
4.81338e-09
1.69218e-08
4.7925e-09
7.24704e-09
-1.77968e-09
4.37606e-09
-1.15679e-08
1.03198e-08
-1.80972e-08
2.09575e-09
-4.06575e-09
-2.22513e-09
6.96828e-09
-1.16357e-08
-2.45787e-09
7.12528e-09
2.66985e-09
-6.33844e-09
1.06369e-08
-3.73147e-09
-4.09761e-09
1.04989e-08
4.35067e-09
-1.10241e-08
-4.96226e-09
-3.36788e-09
1.38013e-09
-6.57076e-09
-9.21613e-09
1.20555e-08
-1.71338e-08
8.10519e-09
5.56873e-09
3.32222e-09
3.65746e-09
-1.25484e-08
6.76883e-09
6.34483e-09
-7.54491e-09
2.87428e-09
-7.57637e-09
1.33426e-09
-5.97947e-09
4.75617e-09
1.1584e-09
6.32353e-09
-7.13049e-10
-6.48603e-09
6.80961e-11
4.88393e-09
-1.24502e-08
-9.56755e-09
-4.95528e-09
6.23074e-10
4.86059e-09
-8.02442e-09
2.32309e-09
5.81787e-09
-4.48344e-09
1.01531e-08
-1.48518e-09
-4.45036e-10
-5.71849e-09
-7.07736e-09
-3.97952e-09
4.3236e-09
1.21827e-09
2.63655e-08
8.20729e-10
-1.46347e-08
-1.25515e-08
7.63263e-09
4.96807e-09
1.37648e-08
-9.56339e-09
4.56473e-09
4.7691e-09
2.29505e-10
-3.20128e-09
2.91077e-10
-6.65321e-09
1.78144e-08
-8.01091e-09
-8.98275e-09
8.43285e-09
1.70142e-08
-1.27004e-08
1.32737e-08
3.99142e-09
-1.14613e-08
-4.44046e-09
6.96669e-09
4.29354e-09
2.01348e-09
6.43649e-09
-5.34741e-09
5.87761e-09
8.31581e-09
-8.94787e-09
-1.40026e-08
8.18528e-09
-2.32381e-09
-5.57039e-09
1.08276e-08
2.12672e-09
-5.17406e-09
-9.5628e-10
1.25669e-08
7.55234e-09
1.44598e-08
-4.29127e-09
-1.85269e-09
7.12567e-09
1.23022e-08
2.94844e-09
-1.43991e-08
2.50278e-09
9.55026e-09
-8.92562e-09
8.84183e-09
-3.58282e-09
3.13615e-09
2.34408e-09
7.74651e-09
4.23149e-09
1.39159e-08
-1.57548e-09
-8.0441e-09
6.02494e-09
3.5947e-09
1.04608e-09
8.12432e-09
-3.61246e-09
-5.55792e-09
-1.18554e-08
6.37782e-09
3.90209e-09
-3.57417e-09
-9.40614e-09
2.42113e-09
1.05592e-08
1.56148e-08
5.9581e-09
-1.48641e-08
-6.70872e-09
1.16992e-08
2.4089e-09
1.50666e-09
-5.79172e-09
-2.36682e-09
1.14465e-10
-1.40303e-08
1.38741e-08
-1.69966e-09
-6.3725e-09
6.03718e-09
1.97194e-09
-5.60021e-09
-3.98663e-09
-3.50474e-09
-9.15583e-09
5.38624e-09
3.35174e-09
4.17855e-10
7.32997e-10
-8.06312e-09
-1.8257e-09
1.0549e-08
-1.33736e-09
-8.47863e-09
9.87942e-09
6.0558e-09
-1.03641e-09
-5.17919e-09
2.16086e-09
4.05474e-09
-5.43807e-10
4.99289e-09
6.14293e-11
-4.51052e-09
-2.13121e-09
-5.939e-09
-2.76764e-10
-1.01424e-08
-3.35707e-09
3.25371e-09
-2.25589e-09
-1.1928e-09
9.16494e-11
-4.62645e-09
-1.26577e-11
-5.93962e-09
2.20662e-10
1.05824e-09
4.99147e-09
6.04606e-09
1.67734e-09
-2.5041e-09
-2.73018e-09
5.89142e-09
2.88482e-09
1.61886e-09
7.83436e-09
8.23428e-10
-2.55471e-10
-8.03836e-10
-7.58279e-10
7.45356e-09
-3.47207e-09
3.72647e-09
-7.05842e-11
-9.03696e-09
9.89752e-09
-1.34668e-09
1.04452e-08
1.75404e-09
-1.22629e-08
6.36362e-11
-1.00234e-08
1.04233e-08
1.00453e-08
-9.2242e-09
2.29508e-11
-9.1284e-09
-1.03844e-08
-1.16295e-09
-2.80123e-10
-1.08198e-08
1.83527e-08
-1.25982e-09
-1.82558e-08
1.47306e-09
6.85621e-09
-9.60092e-10
-8.44844e-09
-2.08406e-10
-1.3872e-08
1.28206e-08
9.02552e-09
-1.0194e-08
1.66016e-08
1.32159e-09
-1.12137e-08
-6.70943e-09
7.69826e-09
-8.05846e-09
9.38571e-09
2.52954e-09
4.55922e-09
-5.51764e-09
1.46993e-10
1.8258e-08
-1.28874e-08
-1.92934e-09
9.85788e-09
-1.34462e-08
-4.79721e-09
1.67031e-08
-1.17589e-08
6.93443e-09
-1.3661e-08
1.06922e-08
8.74805e-09
-1.25058e-08
-1.65659e-10
8.26546e-09
2.59239e-09
6.44142e-09
2.14098e-09
-8.47522e-09
-7.33014e-09
1.64284e-08
9.35452e-09
-7.97187e-09
1.45684e-08
-3.64057e-09
7.16192e-09
8.5499e-09
9.91216e-10
7.41646e-09
-5.54431e-09
9.86967e-09
1.2103e-08
3.33872e-09
4.71467e-10
1.14767e-08
1.16416e-08
8.33198e-09
1.44817e-09
1.87587e-08
-3.01023e-09
-5.37721e-09
4.7026e-09
4.23867e-09
-3.56394e-09
1.12182e-08
-4.02509e-10
-1.61928e-08
-1.03369e-08
-3.06978e-09
1.48077e-08
-1.40102e-09
-7.53585e-09
9.42283e-09
-1.22239e-08
-1.20462e-08
1.12189e-08
5.52999e-09
-3.89787e-09
3.08084e-09
-1.10192e-08
2.92353e-09
-9.52643e-09
9.46179e-09
-2.85887e-09
7.58075e-09
-5.32305e-09
6.65803e-10
9.46084e-10
-6.23381e-09
7.83646e-09
-3.80953e-09
-6.3716e-09
1.28804e-08
8.29881e-09
-1.62664e-09
4.67785e-09
-1.29113e-08
8.27382e-09
1.22182e-08
-3.27624e-09
-1.73308e-10
-8.43767e-10
3.35716e-09
1.44333e-10
5.16467e-09
5.90993e-09
6.39599e-09
6.62875e-09
-1.38196e-09
1.74091e-08
-7.75336e-09
1.22821e-08
-7.26807e-09
-3.7548e-09
3.83707e-09
3.06991e-09
-3.15218e-09
-2.47987e-09
7.48467e-10
-2.02342e-09
1.00208e-09
2.63987e-09
-6.12182e-09
2.02408e-09
2.11104e-09
-3.13305e-09
-7.1383e-10
5.41343e-09
-2.05973e-09
-2.60975e-09
3.92001e-09
3.07851e-09
-2.19002e-10
2.68807e-09
6.18596e-10
1.30122e-09
-4.60786e-09
2.58529e-09
2.86328e-09
-2.76051e-09
-7.36665e-09
5.61843e-09
5.72498e-09
-7.67819e-09
2.54514e-09
6.40425e-10
-1.07062e-10
-8.50021e-10
8.54122e-10
3.83297e-09
1.90338e-09
-2.08257e-10
-7.5932e-09
1.14395e-08
1.77216e-09
1.2017e-09
2.05182e-09
2.43685e-09
2.00585e-08
-1.35653e-08
3.18099e-09
-9.67418e-09
4.90468e-09
2.02781e-08
-5.12426e-09
-6.05166e-09
-1.27668e-08
5.25313e-09
-1.25619e-08
4.31921e-09
-1.29917e-09
-1.24054e-08
6.88729e-09
-1.22071e-08
-4.18655e-10
1.75305e-08
-6.57789e-09
-2.44824e-09
6.30995e-09
-1.11894e-08
1.96717e-09
-2.2351e-09
3.21887e-09
6.99562e-09
-6.799e-09
9.59923e-09
-1.15554e-11
-4.82027e-09
2.06702e-09
-7.54114e-09
-6.7404e-09
1.22145e-08
-6.11346e-09
-6.08447e-09
1.42649e-08
1.06582e-08
-9.06163e-09
2.15522e-09
-3.75178e-09
-7.57507e-09
9.75462e-09
-3.5126e-09
-1.01734e-08
6.1449e-09
-5.52822e-09
-4.10862e-09
2.89642e-09
1.28158e-08
-2.34133e-08
7.08487e-09
-1.48266e-08
2.1529e-08
2.57915e-08
7.03208e-09
-1.89808e-08
-1.38428e-08
-1.58339e-09
1.25483e-08
1.15863e-08
-4.54572e-09
-1.61022e-08
5.00392e-09
-9.92694e-10
1.10321e-08
-6.89948e-09
-1.97743e-09
-4.66953e-09
-4.46517e-09
-7.9519e-09
6.33259e-09
1.18082e-09
5.67007e-09
1.1902e-08
-2.21178e-08
1.30107e-08
-1.42402e-08
-3.37052e-09
8.06897e-09
-1.51478e-08
-1.5814e-08
6.27871e-09
-2.74111e-09
1.56823e-08
2.36355e-09
-1.40734e-09
-1.66385e-08
5.70184e-10
1.58846e-08
-7.72478e-10
-1.14218e-08
1.18301e-08
1.61847e-10