/*--------------------------------*- C++ -*----------------------------------*\
| =========                 |                                                 |
| \\      /  F ield         | OpenFOAM: The Open Source CFD Toolbox           |
|  \\    /   O peration     | Version:  v1612+                                |
|   \\  /    A nd           | Web:      www.OpenFOAM.com                      |
|    \\/     M anipulation  |                                                 |
\*---------------------------------------------------------------------------*/
FoamFile
{
    version     2.0;
    format      ascii;
    class       volScalarField;
    location    "100";
    object      p;
}
// * * * * * * * * * * * * * * * * * * * * * * * * * * * * * * * * * * * * * //

dimensions      [0 2 -2 0 0 0 0];

internalField   nonuniform List<scalar> 
21398
(
3.28632
3.31014
3.30022
3.31652
3.32023
3.32515
3.32689
3.25788
3.31882
3.30542
3.27238
3.27713
3.30135
3.27332
3.25505
3.28457
3.28089
3.32339
3.29129
3.30833
3.34668
3.27012
3.32185
3.31691
3.252
3.30107
3.34251
3.29256
3.28879
3.29029
3.31404
3.26201
3.29989
3.25303
3.26526
3.33356
3.33829
3.27642
3.29882
3.30922
3.28444
3.29256
3.28832
3.27654
3.30587
3.33097
3.32541
3.3357
3.30882
3.3073
3.30188
3.27254
3.32098
3.32527
3.26866
3.26821
3.29419
3.31755
3.29321
3.30879
3.29936
3.30964
3.31097
3.29221
3.25394
3.30406
3.29374
3.30415
3.24753
3.31555
3.31533
3.30153
3.25637
3.26019
3.26108
3.30142
3.33253
3.2597
3.26537
3.30859
3.30851
3.29642
3.25796
3.34067
3.2702
3.26636
3.27133
3.27776
3.26898
3.29505
3.28971
3.28363
3.29255
3.28554
3.31795
3.31464
3.31702
3.31269
3.30993
3.28939
3.25803
3.32336
3.32833
3.27142
3.28931
3.28479
3.30484
3.27219
3.2741
3.25881
3.3425
3.30808
3.29185
3.27464
3.26052
3.31118
3.30646
3.30067
3.31222
3.30252
3.34811
3.34655
3.29879
3.28771
3.2766
3.3364
3.25747
3.31094
3.29899
3.29951
3.29801
3.29617
3.34659
3.33986
3.33202
3.27434
3.27493
3.3123
3.26556
3.26734
3.31546
3.31547
3.31827
3.3044
3.27535
3.28946
3.27174
3.26327
3.26702
3.26875
3.27924
3.27155
3.27064
3.32751
3.31759
3.32347
3.26856
3.26386
3.29449
3.2844
3.2795
3.2748
3.31573
3.33302
3.32968
3.31346
3.3002
3.30677
3.29622
3.33922
3.3408
3.26089
3.26275
3.31125
3.32947
3.27032
3.26815
3.27555
3.27446
3.26578
3.26624
3.32609
3.29234
3.29232
3.2933
3.2973
3.33166
3.32986
3.2961
3.28631
3.33588
3.33163
3.33611
3.26483
3.26774
3.25602
3.28451
3.26978
3.34839
3.34436
3.32255
3.32226
3.30222
3.30002
3.26878
3.29398
3.28613
3.28369
3.3124
3.30575
3.31693
3.28596
3.27304
3.2716
3.34056
3.34335
3.30093
3.31515
3.28648
3.28657
3.27864
3.26436
3.26598
3.27407
3.31732
3.31863
3.25535
3.31241
3.24667
3.27708
3.27932
3.31957
3.29521
3.32986
3.33519
3.31946
3.31715
3.32591
3.32143
3.31368
3.29536
3.34848
3.32777
3.33153
3.33382
3.33595
3.34442
3.34093
3.33052
3.32205
3.32408
3.33963
3.33784
3.33268
3.33533
3.28224
3.29648
3.28934
3.27947
3.27246
3.26973
3.31488
3.33507
3.33501
3.33347
3.28509
3.34201
3.3469
3.31913
3.32148
3.34108
3.29542
3.29695
3.29483
3.29275
3.29635
3.28897
3.2944
3.2921
3.29285
3.30714
3.28044
3.30079
3.2917
3.29483
3.29236
3.29876
3.28502
3.33257
3.3202
3.31918
3.30981
3.31401
3.33742
3.34288
3.28558
3.296
3.29397
3.2909
3.31837
3.31732
3.269
3.26569
3.27505
3.2799
3.32352
3.26285
3.31115
3.33791
3.33149
3.29938
3.30857
3.32434
3.32635
3.32611
3.31937
3.30268
3.34808
3.25865
3.2552
3.25264
3.33565
3.34328
3.3378
3.34219
3.33979
3.33641
3.32873
3.33889
3.33735
3.33133
3.32966
3.33635
3.32152
3.27518
3.31654
3.33561
3.34764
3.33473
3.34123
3.32969
3.33099
3.28785
3.28065
3.28104
3.26576
3.26437
3.33136
3.33189
3.34176
3.28376
3.31331
3.33582
3.32463
3.34448
3.33098
3.30751
3.31982
3.31525
3.31978
3.31354
3.27459
3.32574
3.32392
3.32392
3.28543
3.28167
3.32795
3.33613
3.32845
3.25794
3.25154
3.30826
3.30703
3.30745
3.34625
3.33092
3.31418
3.31908
3.25604
3.30025
3.31917
3.32267
3.32442
3.30945
3.30878
3.28205
3.32212
3.34411
3.32056
3.30534
3.28993
3.29272
3.29494
3.28731
3.28628
3.2633
3.29279
3.29652
3.30479
3.27494
3.34795
3.31289
3.28937
3.33196
3.26494
3.26078
3.28886
3.33907
3.33321
3.25922
3.34437
3.27837
3.33163
3.32272
3.31108
3.32536
3.29449
3.32725
3.25052
3.34725
3.31917
3.27331
3.2721
3.27577
3.30432
3.2568
3.26253
3.25567
3.2571
3.25448
3.34117
3.28683
3.28763
3.29899
3.26349
3.26559
3.28692
3.28387
3.27975
3.28617
3.29628
3.30495
3.3044
3.31975
3.3195
3.29443
3.25999
3.30004
3.29759
3.29568
3.29918
3.25494
3.25764
3.2633
3.31059
3.31045
3.26011
3.28307
3.28624
3.29189
3.28332
3.26157
3.30077
3.3098
3.30543
3.3402
3.31515
3.28775
3.32633
3.33655
3.33479
3.32853
3.29346
3.26727
3.28205
3.32476
3.29421
3.28584
3.34694
3.25827
3.27436
3.27597
3.31881
3.28054
3.31333
3.32372
3.2899
3.33945
3.34317
3.34402
3.3304
3.30241
3.30906
3.28086
3.33318
3.29976
3.30918
3.31075
3.31237
3.29724
3.28895
3.29951
3.26866
3.27442
3.26739
3.28647
3.28158
3.338
3.28099
3.33119
3.31077
3.30556
3.31619
3.29369
3.29976
3.29601
3.29356
3.31068
3.26352
3.26506
3.31841
3.28096
3.33161
3.33588
3.33092
3.32666
3.29847
3.30191
3.34119
3.34355
3.27766
3.29091
3.28342
3.27259
3.27984
3.27008
3.27349
3.27297
3.26494
3.2888
3.26083
3.28868
3.28913
3.28934
3.25835
3.26164
3.28395
3.28877
3.27429
3.26951
3.26676
3.28317
3.30872
3.34289
3.31703
3.27538
3.28655
3.29107
3.28202
3.28362
3.26626
3.26955
3.29592
3.26132
3.26221
3.2591
3.3379
3.29797
3.29805
3.2609
3.27977
3.30503
3.3068
3.28817
3.33361
3.33057
3.33045
3.28358
3.28316
3.25546
3.26219
3.31202
3.28492
3.33309
3.33763
3.33501
3.34448
3.34103
3.34314
3.34508
3.32404
3.29348
3.27768
3.26881
3.26894
3.25555
3.3192
3.3051
3.32992
3.33256
3.30705
3.3418
3.33911
3.33393
3.26508
3.29315
3.26723
3.28792
3.3128
3.29746
3.31323
3.31575
3.332
3.31698
3.34029
3.32363
3.30773
3.25481
3.25403
3.26968
3.2628
3.27884
3.27487
3.26528
3.27633
3.24725
3.26197
3.27376
3.26822
3.26709
3.26264
3.28214
3.28263
3.27846
3.28132
3.28332
3.30666
3.26299
3.27374
3.27207
3.2615
3.27231
3.27545
3.26107
3.25882
3.26206
3.25748
3.26706
3.25988
3.28804
3.29543
3.31433
3.2962
3.25473
3.26257
3.26081
3.25969
3.33668
3.32547
3.32383
3.33676
3.32782
3.32775
3.34518
3.34071
3.30074
3.30049
3.28771
3.30287
3.29522
3.32755
3.30548
3.32281
3.32181
3.32173
3.31347
3.33212
3.33722
3.31912
3.32775
3.3308
3.33038
3.32027
3.32
3.3405
3.32811
3.33609
3.34121
3.32945
3.31516
3.30526
3.30711
3.31603
3.30587
3.3046
3.31745
3.32478
3.3394
3.34049
3.34725
3.33706
3.33455
3.33809
3.33966
3.34076
3.34132
3.34935
3.28418
3.27631
3.26972
3.27003
3.28175
3.2755
3.27047
3.29445
3.27835
3.27949
3.27258
3.26115
3.27885
3.2728
3.26807
3.31635
3.3208
3.3294
3.32648
3.29792
3.28975
3.28137
3.29456
3.28588
3.28422
3.29347
3.29535
3.30637
3.31012
3.30577
3.31637
3.29859
3.30349
3.31076
3.30018
3.29356
3.30196
3.30969
3.30687
3.29662
3.30309
3.30677
3.33368
3.34751
3.3386
3.32159
3.33899
3.33485
3.31699
3.32201
3.32587
3.31774
3.3223
3.32394
3.32264
3.31928
3.29498
3.28671
3.28299
3.29013
3.28432
3.28406
3.27808
3.28407
3.30949
3.30581
3.3062
3.29127
3.29484
3.29081
3.29296
3.27511
3.28393
3.29149
3.2873
3.28508
3.28668
3.26824
3.26831
3.26159
3.272
3.27147
3.27535
3.27142
3.2759
3.27656
3.26792
3.27081
3.2704
3.31153
3.29427
3.29417
3.28778
3.29418
3.29487
3.29059
3.30784
3.25689
3.25653
3.25676
3.25709
3.32155
3.32335
3.31479
3.32027
3.31836
3.32256
3.32919
3.32662
3.29814
3.30269
3.3044
3.30507
3.29816
3.30112
3.30109
3.31798
3.31639
3.3217
3.32469
3.32445
3.32667
3.3258
3.32663
3.32579
3.33348
3.32499
3.33039
3.32728
3.33314
3.33267
3.32758
3.31754
3.30955
3.3191
3.3108
3.31075
3.33943
3.34637
3.34578
3.3454
3.33762
3.34112
3.33452
3.33849
3.33887
3.33948
3.33828
3.33553
3.34023
3.33226
3.33686
3.33194
3.33684
3.33458
3.25973
3.26476
3.25692
3.26316
3.26375
3.26528
3.26043
3.28752
3.28253
3.2866
3.2882
3.28961
3.2843
3.28874
3.27735
3.28091
3.27178
3.27313
3.28637
3.29602
3.28941
3.29475
3.28912
3.28951
3.29454
3.31533
3.31169
3.31957
3.31468
3.31222
3.31374
3.3175
3.2952
3.29956
3.29114
3.29672
3.29233
3.30213
3.29219
3.29406
3.30026
3.28647
3.31831
3.31192
3.32113
3.31544
3.31471
3.313
3.31637
3.34818
3.32372
3.32527
3.32642
3.32583
3.32627
3.32788
3.31592
3.32021
3.25813
3.3008
3.30316
3.31153
3.30706
3.32344
3.31569
3.3256
3.31476
3.32161
3.31972
3.31967
3.31699
3.31344
3.31079
3.30985
3.307
3.32585
3.31785
3.33326
3.34648
3.25838
3.30095
3.30527
3.30131
3.29779
3.30868
3.32015
3.31095
3.32238
3.3136
3.32253
3.32038
3.31224
3.30943
3.31489
3.30992
3.30248
3.3105
3.31462
3.30693
3.31507
3.31338
3.34745
3.25546
3.25943
3.26525
3.26914
3.26047
3.25089
3.25756
3.2557
3.25824
3.26062
3.28815
3.28399
3.28068
3.28219
3.27598
3.27428
3.2814
3.28644
3.27741
3.28104
3.29018
3.26482
3.26553
3.25492
3.25943
3.26195
3.2613
3.25749
3.2684
3.27316
3.27847
3.27197
3.27064
3.26926
3.27369
3.27759
3.27324
3.28168
3.28122
3.27298
3.26536
3.26373
3.26822
3.26217
3.26296
3.26742
3.27253
3.25541
3.27045
3.26554
3.26947
3.26616
3.27864
3.26778
3.27163
3.27211
3.27224
3.26825
3.2606
3.25256
3.2565
3.25928
3.28362
3.25614
3.26276
3.2568
3.26007
3.25918
3.2631
3.25741
3.27117
3.28947
3.28092
3.2818
3.28048
3.26635
3.27132
3.2689
3.26141
3.27965
3.27163
3.2738
3.26255
3.26128
3.25697
3.27603
3.27108
3.28114
3.27748
3.2783
3.26723
3.27189
3.27738
3.27907
3.27675
3.28344
3.28245
3.28547
3.2807
3.27012
3.2798
3.27705
3.27745
3.27614
3.27717
3.27807
3.2847
3.29085
3.2835
3.28625
3.28795
3.29021
3.27943
3.27786
3.27802
3.27579
3.27783
3.27105
3.27288
3.28061
3.28164
3.28526
3.27558
3.28028
3.2854
3.2866
3.28092
3.28181
3.28894
3.27757
3.27496
3.28355
3.28166
3.27722
3.28396
3.29414
3.28331
3.30205
3.30835
3.29874
3.30354
3.29194
3.30083
3.29775
3.30284
3.29104
3.29644
3.29217
3.28858
3.27992
3.29254
3.2855
3.29569
3.29484
3.26009
3.26055
3.25738
3.26253
3.25645
3.25723
3.26197
3.2751
3.27907
3.2784
3.27931
3.27126
3.27126
3.27867
3.26806
3.27347
3.26966
3.26948
3.27341
3.27478
3.26772
3.27545
3.266
3.26655
3.26925
3.27147
3.2671
3.26847
3.26163
3.26962
3.2676
3.2683
3.26429
3.26587
3.2668
3.26262
3.27423
3.27094
3.27091
3.26957
3.26837
3.26859
3.27229
3.26638
3.26228
3.26569
3.26854
3.26476
3.26716
3.25663
3.25815
3.26931
3.26861
3.26541
3.27313
3.27171
3.25375
3.25776
3.26252
3.25697
3.25927
3.25725
3.27378
3.27884
3.27111
3.27081
3.27597
3.26536
3.27176
3.25597
3.25529
3.25974
3.2679
3.26271
3.26246
3.26628
3.26947
3.25962
3.26631
3.26519
3.26133
3.26424
3.26429
3.26288
3.26161
3.25691
3.2601
3.25781
3.25979
3.27497
3.26405
3.25967
3.29849
3.29579
3.28277
3.28084
3.27351
3.27642
3.29555
3.28432
3.28534
3.28754
3.29419
3.30232
3.29615
3.28817
3.30471
3.25557
3.26439
3.25752
3.28104
3.28916
3.30283
3.29019
3.29765
3.29603
3.29686
3.30367
3.28526
3.29521
3.32024
3.29647
3.29949
3.30381
3.29152
3.25452
3.25677
3.26567
3.26977
3.26178
3.25912
3.26253
3.25639
3.25766
3.25714
3.25941
3.2557
3.26702
3.25344
3.26711
3.25665
3.25617
3.25684
3.26023
3.25984
3.25282
3.2747
3.26369
3.26168
3.26429
3.25842
3.2694
3.26397
3.25802
3.26098
3.26707
3.25894
3.26361
3.25769
3.26065
3.2638
3.26202
3.26141
3.33676
3.3334
3.34541
3.34119
3.33594
3.33735
3.34418
3.33353
3.33062
3.33056
3.32871
3.33023
3.32856
3.33
3.33668
3.33471
3.33829
3.33952
3.32448
3.32171
3.32317
3.32629
3.32119
3.31926
3.3296
3.33432
3.33776
3.34144
3.33556
3.33819
3.33769
3.33481
3.32562
3.32486
3.33501
3.3288
3.32827
3.32822
3.33072
3.32857
3.33686
3.3324
3.32591
3.33271
3.347
3.34013
3.3428
3.34592
3.33107
3.34407
3.33896
3.3412
3.34013
3.33479
3.34334
3.33782
3.33569
3.29093
3.30153
3.2987
3.29674
3.29473
3.29766
3.2948
3.30603
3.31063
3.30714
3.31031
3.2875
3.28487
3.28846
3.28057
3.28466
3.28289
3.30536
3.2941
3.29807
3.29988
3.29851
3.29976
3.30171
3.29953
3.29226
3.29701
3.2981
3.29851
3.294
3.30353
3.31164
3.30199
3.30099
3.30525
3.30377
3.30373
3.29604
3.29203
3.28905
3.29316
3.29211
3.29044
3.29322
3.31661
3.32475
3.32738
3.32281
3.32188
3.32354
3.32226
3.33448
3.33821
3.30955
3.31626
3.30148
3.30826
3.30842
3.30469
3.3172
3.32175
3.30808
3.31928
3.31611
3.32479
3.32093
3.31418
3.32057
3.32089
3.31962
3.31671
3.32384
3.3256
3.3236
3.32255
3.32765
3.32497
3.31586
3.31438
3.31315
3.31659
3.31408
3.30597
3.31629
3.31944
3.32678
3.32193
3.31486
3.31944
3.32317
3.33235
3.3349
3.34426
3.34103
3.33632
3.33541
3.33826
3.3163
3.32126
3.30959
3.31547
3.31888
3.31707
3.31548
3.33073
3.33178
3.32071
3.32568
3.32723
3.32883
3.32397
3.3272
3.32997
3.32098
3.32485
3.32345
3.32796
3.32275
3.3279
3.33367
3.3316
3.32906
3.33268
3.33338
3.32889
3.32549
3.31917
3.31661
3.32195
3.31821
3.31775
3.3226
3.32892
3.32384
3.32073
3.32727
3.32287
3.33382
3.33853
3.33536
3.33775
3.34116
3.34581
3.3393
3.34191
3.34373
3.33891
3.33967
3.33058
3.33343
3.33164
3.33547
3.33456
3.33495
3.32747
3.33829
3.33108
3.33078
3.33489
3.3279
3.33523
3.32755
3.33177
3.32642
3.33445
3.33128
3.33983
3.33349
3.33016
3.33178
3.33581
3.33631
3.33499
3.31866
3.31806
3.32099
3.31621
3.3222
3.32174
3.31664
3.30382
3.29894
3.29935
3.30074
3.30481
3.30508
3.30101
3.31048
3.30462
3.30819
3.31122
3.30654
3.30517
3.31204
3.30467
3.3124
3.31591
3.31127
3.30653
3.30798
3.3114
3.31672
3.30843
3.31137
3.31019
3.3142
3.31258
3.31246
3.31584
3.30565
3.30819
3.30861
3.30906
3.30815
3.31117
3.30629
3.31491
3.3173
3.31297
3.31262
3.31331
3.31264
3.32925
3.33543
3.33025
3.32678
3.32843
3.33062
3.33651
3.33026
3.33104
3.3397
3.33319
3.3345
3.33174
3.33876
3.33902
3.33151
3.33126
3.33479
3.34339
3.34574
3.34695
3.34084
3.3418
3.34191
3.33962
3.34747
3.34471
3.34426
3.34208
3.34695
3.33809
3.33778
3.34394
3.34398
3.34158
3.34167
3.33718
3.34948
3.3479
3.34198
3.34082
3.34211
3.33081
3.33573
3.33785
3.33776
3.33451
3.33872
3.34657
3.34278
3.34554
3.34698
3.34256
3.33629
3.34028
3.34368
3.3386
3.33837
3.34398
3.33832
3.34646
3.34416
3.34283
3.34379
3.34514
3.33648
3.33465
3.34667
3.34343
3.33845
3.34649
3.33929
3.34515
3.34421
3.33331
3.34057
3.33951
3.3411
3.33908
3.34495
3.34738
3.34912
3.34549
3.345
3.34745
3.34324
3.34318
3.34581
3.29152
3.28145
3.28027
3.29086
3.28638
3.28422
3.2817
3.28642
3.28531
3.2805
3.28515
3.27921
3.28078
3.27891
3.27894
3.28035
3.27379
3.27195
3.27217
3.2761
3.27666
3.27492
3.27373
3.26916
3.26646
3.27296
3.26792
3.26787
3.27293
3.27876
3.28442
3.28147
3.2787
3.28376
3.28404
3.27832
3.27243
3.27228
3.28347
3.27686
3.27705
3.27652
3.27738
3.27363
3.26796
3.27899
3.27467
3.27453
3.272
3.27605
3.27098
3.27511
3.27011
3.26111
3.25483
3.25858
3.25531
3.25457
3.25993
3.26833
3.26319
3.26562
3.26634
3.26875
3.2724
3.26567
3.27092
3.2652
3.30157
3.29099
3.29039
3.29263
3.29588
3.2897
3.28869
3.28657
3.2942
3.29526
3.29711
3.28618
3.28528
3.28702
3.29337
3.28144
3.28016
3.27938
3.27873
3.279
3.27838
3.27847
3.26191
3.26463
3.25811
3.26328
3.26361
3.26318
3.26081
3.2838
3.27949
3.28215
3.28649
3.28418
3.28174
3.28465
3.26769
3.28237
3.27159
3.26233
3.27725
3.27437
3.27136
3.28249
3.27523
3.27905
3.27567
3.2773
3.26799
3.26965
3.26979
3.27168
3.26816
3.27018
3.27318
3.27784
3.27244
3.28262
3.27966
3.28189
3.28175
3.28025
3.30834
3.31456
3.31573
3.31074
3.31168
3.32158
3.33024
3.32351
3.32803
3.31991
3.32275
3.32592
3.32985
3.33493
3.33443
3.32732
3.32601
3.32458
3.32912
3.32614
3.31961
3.31974
3.3259
3.32031
3.32105
3.32905
3.31852
3.32181
3.31993
3.31836
3.31754
3.33479
3.31746
3.32446
3.32536
3.27987
3.29538
3.29858
3.30338
3.29594
3.30089
3.2996
3.29404
3.29247
3.2824
3.28714
3.28222
3.2901
3.28853
3.28457
3.28551
3.28071
3.27585
3.28382
3.2784
3.27863
3.28397
3.28356
3.29179
3.28969
3.28975
3.28555
3.28773
3.28819
3.29701
3.29091
3.28746
3.28899
3.29256
3.29041
3.28965
3.29493
3.28694
3.28986
3.2885
3.29285
3.29104
3.29015
3.28273
3.29002
3.29205
3.29018
3.2854
3.28768
3.28905
3.29368
3.29739
3.29203
3.29419
3.29818
3.28856
3.29578
3.29754
3.29957
3.2936
3.2992
3.29837
3.30939
3.30842
3.30528
3.30943
3.30657
3.30233
3.296
3.29653
3.29989
3.29194
3.29377
3.29886
3.3106
3.29843
3.30238
3.30666
3.29512
3.29943
3.29841
3.29999
3.29938
3.31476
3.31409
3.32393
3.31634
3.31645
3.31491
3.32095
3.31942
3.3141
3.30597
3.29966
3.30637
3.31022
3.30553
3.30523
3.30067
3.30154
3.30251
3.313
3.31511
3.31136
3.31382
3.31649
3.30502
3.30347
3.30921
3.31307
3.30733
3.30803
3.30749
3.30097
3.31118
3.30545
3.30482
3.305
3.30939
3.31113
3.3107
3.32161
3.31918
3.31658
3.31679
3.32096
3.30763
3.30377
3.29566
3.30481
3.3067
3.31987
3.30413
3.30238
3.30302
3.30568
3.29532
3.29712
3.28554
3.29239
3.29176
3.29529
3.29206
3.2924
3.2986
3.29506
3.29843
3.29771
3.30003
3.29769
3.29826
3.30579
3.30705
3.30743
3.30271
3.3041
3.30313
3.30465
3.30799
3.31171
3.30591
3.31085
3.31085
3.30594
3.29995
3.29398
3.29651
3.29948
3.2953
3.2941
3.30035
3.30614
3.30561
3.29488
3.30163
3.30128
3.30203
3.30029
3.30558
3.30926
3.29828
3.30328
3.30495
3.30656
3.30232
3.33031
3.32351
3.32396
3.32054
3.33412
3.32279
3.32404
3.32961
3.32556
3.33188
3.3295
3.33273
3.32977
3.33876
3.34041
3.35398
3.3496
3.33345
3.34033
3.3411
3.33849
3.33022
3.33396
3.33992
3.33818
3.33658
3.33802
3.34249
3.33693
3.3267
3.3258
3.33434
3.33123
3.32892
3.30089
3.30907
3.30532
3.28209
3.28418
3.30385
3.29338
3.30177
3.29713
3.29033
3.31905
3.345
3.33625
3.34602
3.33931
3.33922
3.34325
3.32468
3.33207
3.33614
3.34043
3.34727
3.34277
3.30606
3.3134
3.34605
3.33826
3.32308
3.30655
3.31975
3.32928
3.3325
3.32971
3.32194
3.32208
3.34509
3.34461
3.34735
3.25735
3.27357
3.26856
3.25847
3.26384
3.2638
3.27794
3.27067
3.32323
3.32121
3.31977
3.29756
3.30007
3.2847
3.28833
3.27909
3.27437
3.28926
3.26588
3.28987
3.30194
3.29383
3.29357
3.29421
3.29482
3.29188
3.27575
3.27832
3.28153
3.28137
3.27754
3.26527
3.26706
3.27407
3.27225
3.2777
3.26677
3.28077
3.26643
3.26807
3.2659
3.27147
3.26418
3.26881
3.26811
3.27112
3.2683
3.29841
3.25525
3.25298
3.25621
3.25686
3.25593
3.2559
3.31831
3.31516
3.32127
3.31482
3.31832
3.31591
3.32062
3.31294
3.30923
3.30771
3.30436
3.3099
3.30719
3.30704
3.32275
3.32805
3.33576
3.33285
3.33164
3.33114
3.33363
3.33289
3.33203
3.32937
3.32941
3.32805
3.33181
3.33112
3.33182
3.33121
3.30801
3.30845
3.31007
3.33202
3.34047
3.34316
3.34456
3.34365
3.34241
3.34267
3.34322
3.33704
3.3377
3.33154
3.33711
3.33694
3.3329
3.33291
3.33853
3.33426
3.33393
3.33233
3.33439
3.26644
3.26196
3.26797
3.26503
3.26528
3.26335
3.26686
3.29154
3.28515
3.28886
3.26285
3.32295
3.31819
3.32268
3.32143
3.28896
3.28988
3.29218
3.29034
3.29073
3.29042
3.29085
3.31783
3.30486
3.31299
3.31186
3.301
3.30251
3.28933
3.31169
3.31518
3.31023
3.31345
3.31247
3.3134
3.31157
3.34216
3.32661
3.31911
3.31678
3.32294
3.31337
3.31103
3.31709
3.32371
3.32552
3.31474
3.32028
3.31373
3.3175
3.32137
3.31891
3.31436
3.31807
3.31815
3.34815
3.34923
3.26285
3.32095
3.31996
3.3209
3.31621
3.31775
3.30867
3.30895
3.30494
3.30498
3.27136
3.2617
3.26307
3.26568
3.25998
3.24958
3.27342
3.26768
3.27439
3.27077
3.27596
3.26974
3.25783
3.2596
3.26146
3.25835
3.25624
3.2596
3.25945
3.27985
3.2757
3.28208
3.28065
3.27776
3.27592
3.27836
3.27501
3.27032
3.27207
3.27393
3.275
3.27433
3.2744
3.26556
3.26633
3.26254
3.26837
3.26542
3.27152
3.26775
3.26736
3.26738
3.27028
3.27306
3.27374
3.27305
3.26954
3.27241
3.27343
3.25578
3.26155
3.25666
3.26014
3.25643
3.25334
3.26462
3.28514
3.28484
3.25545
3.25253
3.25983
3.25925
3.25833
3.25219
3.26166
3.28561
3.2854
3.28616
3.26638
3.26789
3.27775
3.27205
3.26816
3.27848
3.27707
3.27065
3.27079
3.26868
3.26615
3.26651
3.26797
3.26537
3.26795
3.31602
3.31244
3.31288
3.27537
3.28
3.28879
3.28849
3.28462
3.28818
3.29104
3.28888
3.28751
3.28183
3.27973
3.28572
3.28436
3.28329
3.28458
3.28256
3.28976
3.28539
3.28964
3.2889
3.27633
3.28052
3.27855
3.27658
3.27485
3.27578
3.27468
3.27838
3.28003
3.27853
3.28339
3.27913
3.27966
3.28068
3.28462
3.28071
3.27537
3.27786
3.27119
3.2867
3.29384
3.30376
3.30689
3.31288
3.30593
3.30802
3.30225
3.30679
3.29671
3.2738
3.26798
3.27272
3.27478
3.27494
3.27911
3.29798
3.2975
3.29171
3.28486
3.28514
3.26153
3.26416
3.26575
3.264
3.26294
3.26294
3.264
3.27372
3.2773
3.27611
3.27209
3.27647
3.27499
3.27269
3.27072
3.2648
3.27264
3.26724
3.27077
3.26666
3.26482
3.26148
3.26634
3.2606
3.2597
3.26324
3.2639
3.26263
3.27174
3.26934
3.2756
3.27251
3.27243
3.27153
3.27369
3.27353
3.27071
3.27706
3.27371
3.2738
3.27253
3.27624
3.26059
3.26464
3.25804
3.26101
3.26164
3.26411
3.26041
3.2601
3.25719
3.26296
3.25946
3.26164
3.2598
3.26361
3.25701
3.26386
3.25882
3.24756
3.25188
3.25461
3.26483
3.27016
3.25923
3.26897
3.26844
3.27695
3.263
3.25983
3.26075
3.26074
3.26232
3.26124
3.2607
3.2697
3.27303
3.27299
3.26807
3.26547
3.25875
3.2661
3.2627
3.26504
3.2638
3.26147
3.2573
3.25926
3.25635
3.25767
3.2584
3.26705
3.2633
3.27992
3.27954
3.27979
3.27995
3.28114
3.27957
3.30583
3.30397
3.30757
3.30875
3.28173
3.28284
3.28242
3.28645
3.28198
3.28707
3.29486
3.29045
3.2989
3.3218
3.31369
3.31332
3.3184
3.29869
3.30372
3.30505
3.30026
3.2549
3.2638
3.26439
3.25733
3.26225
3.26287
3.26424
3.26373
3.26398
3.25542
3.25126
3.26828
3.26366
3.26169
3.26537
3.25529
3.25381
3.253
3.25887
3.2514
3.263
3.27177
3.27278
3.26358
3.26642
3.26411
3.26271
3.26114
3.26421
3.26336
3.26241
3.25761
3.25633
3.26217
3.25901
3.25743
3.2592
3.25795
3.25962
3.3424
3.34095
3.33897
3.33768
3.34165
3.33946
3.33933
3.31973
3.32268
3.32435
3.32481
3.32161
3.32283
3.32264
3.3287
3.32692
3.32552
3.3277
3.32835
3.32692
3.33961
3.33508
3.33528
3.33307
3.33575
3.33261
3.33712
3.33456
3.33124
3.33456
3.33193
3.33368
3.33213
3.33001
3.33436
3.33031
3.32788
3.32944
3.33318
3.3307
3.33092
3.34381
3.34156
3.34669
3.34543
3.34498
3.34193
3.34521
3.34158
3.33957
3.33972
3.34422
3.34332
3.34135
3.34617
3.30312
3.29953
3.30325
3.30171
3.3023
3.29722
3.30168
3.31308
3.30555
3.31177
3.3102
3.28874
3.28947
3.28672
3.28986
3.28344
3.2906
3.28559
3.29755
3.29898
3.30026
3.30032
3.299
3.29981
3.30055
3.29639
3.28769
3.29622
3.30331
3.30336
3.29326
3.29553
3.29816
3.29754
3.29669
3.29759
3.29723
3.32895
3.32593
3.33018
3.32693
3.32917
3.32522
3.32842
3.32186
3.32899
3.32941
3.3023
3.30835
3.30699
3.30569
3.30245
3.31095
3.30322
3.31668
3.31951
3.32101
3.31804
3.31803
3.31775
3.3209
3.32107
3.32181
3.31475
3.32476
3.32771
3.32249
3.31707
3.31688
3.3186
3.31941
3.31617
3.31584
3.3192
3.31904
3.31838
3.31738
3.31844
3.32938
3.32695
3.33841
3.3414
3.33573
3.33791
3.3386
3.33885
3.33718
3.31175
3.31471
3.31612
3.31719
3.31609
3.31608
3.31638
3.32224
3.32519
3.3237
3.32551
3.32267
3.32502
3.32398
3.32601
3.32685
3.32657
3.32914
3.32463
3.32641
3.32594
3.32882
3.32658
3.32773
3.32993
3.32911
3.32837
3.32891
3.31866
3.32314
3.32113
3.32155
3.3213
3.32169
3.32102
3.32612
3.32625
3.32403
3.32991
3.33528
3.33325
3.33417
3.33504
3.33631
3.34261
3.33798
3.33941
3.33991
3.34052
3.34031
3.34035
3.32947
3.33108
3.32525
3.32801
3.32904
3.32886
3.3262
3.33744
3.33583
3.34511
3.33885
3.34025
3.33533
3.33733
3.33601
3.34377
3.34051
3.3378
3.33554
3.33695
3.32823
3.33054
3.32522
3.32908
3.32827
3.32874
3.32624
3.31658
3.31422
3.31251
3.31477
3.31512
3.31533
3.31483
3.30145
3.30079
3.30215
3.30563
3.30713
3.30715
3.30594
3.3083
3.31114
3.30974
3.30971
3.31057
3.31104
3.31071
3.31736
3.31425
3.31958
3.31543
3.31698
3.314
3.31667
3.30745
3.30876
3.30342
3.30593
3.30696
3.30754
3.30481
3.30553
3.30839
3.30293
3.30481
3.30556
3.30596
3.30324
3.31857
3.3145
3.31963
3.31733
3.31821
3.31586
3.31827
3.33011
3.33775
3.33504
3.33654
3.33753
3.33663
3.33661
3.33768
3.33951
3.34336
3.34382
3.33294
3.34525
3.34881
3.34756
3.34
3.33724
3.33745
3.33861
3.34287
3.33647
3.33642
3.33795
3.33316
3.33772
3.33698
3.3396
3.33891
3.34853
3.33225
3.33538
3.33299
3.33428
3.33258
3.33535
3.33411
3.3473
3.3465
3.34115
3.34388
3.34177
3.34377
3.34307
3.34295
3.34368
3.34212
3.34643
3.34399
3.34219
3.34687
3.34514
3.34649
3.34654
3.33949
3.33953
3.33955
3.33606
3.34376
3.34294
3.33601
3.34038
3.33891
3.34061
3.33768
3.3395
3.33885
3.35015
3.28458
3.28922
3.28884
3.28677
3.28805
3.28484
3.28783
3.28665
3.28721
3.27092
3.27537
3.27349
3.27551
3.27238
3.27275
3.2736
3.26824
3.27085
3.26561
3.26959
3.26837
3.26938
3.26697
3.26881
3.27318
3.27119
3.27175
3.27149
3.27193
3.27154
3.28031
3.27766
3.279
3.28028
3.27983
3.27974
3.28035
3.28083
3.27687
3.27855
3.27642
3.2792
3.27738
3.27833
3.27628
3.27458
3.27337
3.27172
3.27426
3.27436
3.27349
3.27433
3.27664
3.25443
3.26104
3.25648
3.26069
3.26523
3.274
3.27908
3.26138
3.26605
3.27095
3.25916
3.2657
3.27394
3.27221
3.26807
3.27691
3.27495
3.29105
3.28872
3.28906
3.29121
3.29078
3.29145
3.29129
3.27309
3.27516
3.28409
3.28751
3.29811
3.29802
3.29152
3.28426
3.27718
3.28489
3.28193
3.28656
3.28038
3.27535
3.27629
3.27064
3.27321
3.27296
3.27391
3.27334
3.25975
3.25556
3.26237
3.26048
3.26367
3.26494
3.26028
3.28978
3.28673
3.27485
3.27773
3.2743
3.27682
3.27861
3.27586
3.27414
3.27232
3.27615
3.27536
3.27467
3.27093
3.27349
3.27207
3.2725
3.27232
3.27124
3.27157
3.27633
3.27568
3.27821
3.28601
3.27644
3.2833
3.31568
3.32044
3.31768
3.31578
3.31398
3.31501
3.31432
3.3236
3.32418
3.31963
3.32051
3.32233
3.32662
3.31516
3.32612
3.32218
3.32355
3.33223
3.32621
3.32733
3.32507
3.32851
3.32255
3.32886
3.33056
3.32638
3.32658
3.32791
3.32989
3.31543
3.2978
3.29546
3.29667
3.2936
3.2933
3.29368
3.29647
3.28789
3.28652
3.28566
3.28827
3.28718
3.2882
3.28727
3.28032
3.28395
3.28243
3.28315
3.28378
3.2832
3.28339
3.29346
3.29187
3.29736
3.29464
3.29391
3.29258
3.29528
3.28501
3.28741
3.2815
3.2851
3.28461
3.28572
3.28434
3.2852
3.28713
3.28107
3.28431
3.28447
3.28616
3.28303
3.29481
3.29212
3.29763
3.29393
3.29442
3.29229
3.29554
3.28153
3.29625
3.29322
3.29472
3.29211
3.30368
3.30627
3.30226
3.30829
3.30587
3.30453
3.30156
3.30641
3.30809
3.30308
3.30686
3.30498
3.30485
3.30676
3.30685
3.29652
3.29521
3.29715
3.3012
3.30809
3.30429
3.29972
3.30148
3.30433
3.30331
3.30236
3.30226
3.30343
3.32248
3.31902
3.32036
3.31994
3.32182
3.3166
3.29853
3.30594
3.29863
3.30134
3.30199
3.30337
3.30087
3.3034
3.30649
3.30401
3.30285
3.30235
3.30409
3.30212
3.31427
3.31425
3.31429
3.31563
3.31271
3.31865
3.31195
3.31387
3.3152
3.30872
3.30638
3.30553
3.30601
3.30789
3.30385
3.30722
3.31814
3.31126
3.30854
3.32071
3.31034
3.30724
3.29959
3.30327
3.30782
3.30753
3.303
3.30806
3.29849
3.28729
3.29069
3.29037
3.29243
3.29028
3.29091
3.29158
3.30771
3.30491
3.30512
3.30268
3.30509
3.30476
3.30532
3.31044
3.30701
3.31276
3.31101
3.30951
3.30925
3.31297
3.30867
3.30442
3.30611
3.30597
3.30702
3.30581
3.30727
3.29805
3.30082
3.29942
3.29875
3.29934
3.2992
3.29882
3.29759
3.30171
3.30061
3.30201
3.29932
3.3012
3.30052
3.301
3.30325
3.30363
3.30636
3.30382
3.30454
3.30409
3.31753
3.32176
3.34018
3.33568
3.33578
3.33662
3.34024
3.33997
3.33345
3.32856
3.32838
3.3362
3.34351
3.33448
3.33925
3.31983
3.33672
3.33997
3.33747
3.34077
3.33763
3.33294
3.30353
3.31377
3.30696
3.29085
3.30201
3.2984
3.2934
3.30322
3.33368
3.34035
3.32317
3.32761
3.32572
3.32907
3.34221
3.34296
3.34618
3.34094
3.34759
3.33722
3.3444
3.32937
3.33626
3.33282
3.32719
3.32944
3.33586
3.32833
3.32862
3.33637
3.33438
3.31225
3.30811
3.30626
3.30316
3.31243
3.33313
3.33453
3.32866
3.33432
3.30563
3.31056
3.30877
3.31457
3.32591
3.33244
3.33117
3.32776
3.33797
3.34378
3.34325
3.26088
3.26111
3.2691
3.26535
3.26639
3.26534
3.32731
3.32389
3.32595
3.32376
3.32497
3.32483
3.32544
3.3296
3.32836
3.32884
3.32605
3.32787
3.32962
3.32734
3.31597
3.31748
3.3138
3.31798
3.31717
3.31649
3.31495
3.32333
3.32146
3.31914
3.32074
3.32235
3.32379
3.31741
3.32251
3.32733
3.32166
3.32342
3.3227
3.32476
3.32035
3.32174
3.32144
3.32601
3.32615
3.32543
3.32612
3.32616
3.32206
3.31635
3.31956
3.31878
3.3195
3.32026
3.32024
3.33785
3.33185
3.25336
3.27868
3.29034
3.30781
3.30239
3.29674
3.28158
3.28029
3.28477
3.28301
3.28075
3.28377
3.28532
3.27602
3.27861
3.28241
3.27831
3.2758
3.27923
3.27988
3.28649
3.29519
3.29142
3.28648
3.28367
3.28936
3.28374
3.27727
3.28633
3.28036
3.28483
3.28211
3.28663
3.28317
3.28429
3.28008
3.28329
3.28027
3.27795
3.28106
3.27901
3.28405
3.28026
3.27706
3.2835
3.28575
3.28666
3.28396
3.28338
3.28691
3.25597
3.25521
3.31864
3.32403
3.31563
3.31497
3.30586
3.30898
3.30593
3.31449
3.30966
3.31183
3.30284
3.28658
3.28973
3.28195
3.29169
3.28656
3.28953
3.28882
3.29256
3.28999
3.29022
3.29207
3.28317
3.29038
3.29571
3.28738
3.28447
3.28702
3.29789
3.30335
3.29623
3.30355
3.29172
3.29222
3.30259
3.29393
3.29333
3.29223
3.30258
3.28697
3.29128
3.28575
3.29036
3.29223
3.2875
3.29251
3.28912
3.28636
3.28951
3.29055
3.2932
3.28866
3.29335
3.30027
3.29728
3.3001
3.29762
3.29891
3.3001
3.27967
3.28845
3.28458
3.28224
3.28357
3.28227
3.28372
3.28482
3.28439
3.28638
3.27948
3.28593
3.28355
3.29037
3.29028
3.29262
3.29213
3.29014
3.29335
3.28714
3.28036
3.2891
3.28736
3.28468
3.28226
3.28488
3.29133
3.28859
3.28984
3.28158
3.27988
3.2866
3.28549
3.28374
3.28458
3.28653
3.27978
3.28573
3.26613
3.27101
3.25992
3.26391
3.261
3.26138
3.26289
3.262
3.26028
3.25929
3.26114
3.26402
3.26966
3.26576
3.27097
3.27061
3.2661
3.26722
3.26778
3.26533
3.26141
3.26366
3.25664
3.27127
3.26631
3.26859
3.26586
3.26911
3.26655
3.26619
3.26553
3.26395
3.26661
3.26514
3.27249
3.26811
3.26448
3.26569
3.26716
3.27342
3.27854
3.27676
3.26884
3.27641
3.26755
3.27357
3.27859
3.27233
3.26815
3.26769
3.26702
3.26957
3.2637
3.26861
3.27069
3.27299
3.27312
3.27098
3.26965
3.27291
3.27607
3.27484
3.27353
3.26917
3.2762
3.26327
3.27235
3.26933
3.26529
3.27298
3.27727
3.27631
3.2742
3.27663
3.27686
3.27217
3.26787
3.27436
3.27226
3.26962
3.27061
3.27413
3.27363
3.27135
3.26935
3.26715
3.27773
3.27465
3.27026
3.26649
3.26464
3.26501
3.27456
3.27692
3.27881
3.27286
3.27237
3.27241
3.27537
3.27334
3.27588
3.28255
3.27855
3.27675
3.2739
3.27262
3.27338
3.29477
3.30687
3.29464
3.30368
3.30336
3.29167
3.30213
3.30537
3.31459
3.29726
3.28468
3.30344
3.30083
3.30141
3.30319
3.30572
3.30857
3.28871
3.28892
3.28602
3.2884
3.28794
3.29042
3.28424
3.2946
3.29654
3.28742
3.29541
3.29169
3.29756
3.291
3.2875
3.28597
3.28707
3.29095
3.28969
3.29067
3.29262
3.29155
3.29811
3.29433
3.30077
3.29416
3.29735
3.29696
3.29815
3.2904
3.31265
3.30665
3.31037
3.30598
3.30542
3.25509
3.2576
3.25964
3.25855
3.25826
3.25842
3.25845
3.25708
3.25468
3.2536
3.25473
3.25439
3.25572
3.2552
3.25473
3.25544
3.25427
3.25224
3.25428
3.25706
3.25394
3.25563
3.25484
3.25421
3.2556
3.25875