/*--------------------------------*- C++ -*----------------------------------*\
| =========                 |                                                 |
| \\      /  F ield         | OpenFOAM: The Open Source CFD Toolbox           |
|  \\    /   O peration     | Version:  v1612+                                |
|   \\  /    A nd           | Web:      www.OpenFOAM.com                      |
|    \\/     M anipulation  |                                                 |
\*---------------------------------------------------------------------------*/
FoamFile
{
    version     2.0;
    format      ascii;
    class       volVectorField;
    location    "100";
    object      U;
}
// * * * * * * * * * * * * * * * * * * * * * * * * * * * * * * * * * * * * * //

dimensions      [0 1 -1 0 0 0 0];

internalField   nonuniform List<vector> 
21398
(
(0.172293 0.782275 -0.223975)
(0.165611 0.700755 -0.200426)
(0.186951 0.841397 -0.224635)
(0.148442 0.678021 -0.188824)
(0.142731 0.62509 -0.173756)
(0.195767 0.84259 -0.228395)
(0.187573 0.82068 -0.227263)
(0.149944 0.667556 -0.196673)
(0.145844 0.649994 -0.170992)
(0.181759 0.822514 -0.233067)
(0.126793 0.562226 -0.160156)
(0.141171 0.588039 -0.159026)
(0.118564 0.540255 -0.145171)
(0.124913 0.569174 -0.158037)
(0.164614 0.731365 -0.204985)
(0.116266 0.580656 -0.162568)
(0.183138 0.834394 -0.221538)
(0.153461 0.676343 -0.189028)
(0.146801 0.655466 -0.176894)
(0.147801 0.659567 -0.18027)
(0.139536 0.658713 -0.18359)
(0.171548 0.79774 -0.217794)
(0.149789 0.684589 -0.186332)
(0.150089 0.708812 -0.197237)
(0.132199 0.593468 -0.152386)
(0.160515 0.731947 -0.211126)
(0.148505 0.682203 -0.184615)
(0.144907 0.640935 -0.175634)
(0.156736 0.68213 -0.192)
(0.142174 0.629076 -0.173552)
(0.139662 0.616024 -0.167471)
(0.137123 0.619801 -0.169318)
(0.172395 0.772911 -0.21516)
(0.144556 0.672168 -0.185748)
(0.157861 0.696652 -0.189958)
(0.1541 0.690201 -0.186117)
(0.153759 0.694586 -0.195813)
(0.131584 0.587037 -0.165207)
(0.146238 0.663019 -0.187321)
(0.170111 0.70635 -0.194765)
(0.119856 0.545652 -0.150643)
(0.140499 0.62251 -0.168858)
(0.167521 0.767463 -0.219831)
(0.147836 0.618115 -0.185719)
(0.169024 0.759063 -0.198963)
(0.156029 0.719408 -0.202708)
(0.134628 0.638712 -0.176522)
(0.129158 0.618124 -0.172482)
(0.141668 0.67044 -0.19235)
(0.161618 0.738892 -0.210869)
(0.14553 0.646253 -0.18784)
(0.134274 0.609743 -0.166379)
(0.173836 0.791633 -0.219858)
(0.157222 0.655842 -0.174125)
(0.142929 0.657191 -0.188735)
(0.187271 0.811511 -0.222688)
(0.153489 0.701022 -0.19767)
(0.159926 0.708661 -0.188309)
(0.152425 0.705796 -0.191801)
(0.138078 0.669751 -0.181134)
(0.14437 0.620209 -0.175218)
(0.165046 0.757683 -0.208189)
(0.133352 0.607771 -0.166195)
(0.145931 0.643878 -0.171037)
(0.163282 0.695018 -0.186814)
(0.150612 0.719684 -0.195519)
(0.157709 0.72062 -0.20195)
(0.156071 0.670112 -0.187516)
(0.142388 0.622872 -0.190391)
(0.152516 0.67023 -0.18346)
(0.123428 0.55163 -0.156811)
(0.131872 0.621547 -0.168138)
(0.174421 0.750234 -0.206384)
(0.160949 0.705775 -0.196196)
(0.132424 0.595249 -0.158164)
(0.15691 0.715884 -0.201371)
(0.145733 0.668164 -0.171969)
(0.14755 0.664197 -0.180238)
(0.138738 0.64579 -0.17468)
(0.149893 0.68507 -0.180491)
(0.135162 0.625618 -0.167058)
(0.129626 0.541092 -0.153349)
(0.132148 0.635444 -0.175778)
(0.14602 0.685389 -0.180083)
(0.141048 0.655314 -0.191482)
(0.143061 0.655789 -0.186763)
(0.12622 0.571769 -0.149907)
(0.142626 0.612302 -0.169076)
(0.150865 0.677127 -0.175819)
(0.132687 0.616685 -0.173584)
(0.16414 0.728096 -0.195096)
(0.178661 0.789038 -0.21791)
(0.150851 0.634169 -0.185231)
(0.143222 0.617338 -0.165341)
(0.185369 0.836906 -0.228033)
(0.147372 0.663906 -0.182395)
(0.136421 0.605195 -0.169993)
(0.180352 0.792887 -0.214246)
(0.137279 0.611081 -0.175427)
(0.11146 0.529303 -0.151319)
(0.143079 0.622806 -0.178941)
(0.156626 0.68781 -0.195454)
(0.130268 0.618427 -0.157587)
(0.121322 0.586519 -0.163303)
(0.125796 0.601321 -0.162167)
(0.1494 0.666576 -0.183533)
(0.144726 0.642898 -0.168603)
(0.150945 0.66255 -0.184068)
(0.159755 0.69121 -0.189148)
(0.162399 0.719131 -0.201686)
(0.159392 0.728519 -0.201145)
(0.14064 0.661562 -0.183945)
(0.14423 0.641249 -0.175922)
(0.139541 0.629821 -0.172748)
(0.160497 0.739272 -0.205354)
(0.126322 0.577569 -0.161245)
(0.140159 0.640762 -0.180037)
(0.151622 0.694388 -0.199123)
(0.140339 0.615452 -0.17582)
(0.129686 0.63828 -0.181039)
(0.148012 0.703798 -0.192695)
(0.127208 0.578205 -0.157179)
(0.150258 0.63364 -0.168485)
(0.184484 0.824618 -0.227607)
(0.189755 0.859426 -0.241815)
(0.13611 0.591305 -0.160512)
(0.134503 0.639845 -0.176465)
(0.147473 0.65637 -0.176146)
(0.15727 0.666327 -0.178444)
(0.123141 0.558337 -0.152873)
(0.113519 0.511344 -0.13277)
(0.151297 0.680026 -0.187953)
(0.14645 0.659216 -0.182329)
(0.133205 0.59673 -0.170971)
(0.143189 0.608524 -0.173832)
(0.145532 0.655222 -0.189281)
(0.153212 0.709213 -0.196879)
(0.140245 0.611606 -0.17424)
(0.144609 0.646313 -0.182921)
(0.163606 0.746919 -0.203128)
(0.16195 0.736636 -0.205746)
(0.140349 0.658491 -0.180568)
(0.15334 0.725132 -0.194784)
(0.145689 0.633833 -0.177276)
(0.160732 0.702164 -0.189444)
(0.137371 0.634232 -0.175294)
(0.148071 0.68006 -0.189747)
(0.146112 0.627495 -0.169981)
(0.136307 0.646871 -0.186609)
(0.158406 0.708782 -0.196893)
(0.151755 0.646953 -0.172017)
(0.147194 0.613179 -0.170283)
(0.121575 0.520648 -0.146652)
(0.155702 0.709766 -0.197818)
(0.143573 0.652734 -0.176147)
(0.158579 0.709733 -0.196591)
(0.124061 0.571367 -0.158998)
(0.124337 0.613947 -0.175145)
(0.152334 0.672482 -0.187275)
(0.118013 0.559696 -0.15734)
(0.113997 0.534271 -0.150635)
(0.137913 0.612321 -0.171693)
(0.136079 0.585924 -0.16619)
(0.146314 0.614947 -0.179433)
(0.153471 0.67964 -0.191181)
(0.151291 0.68069 -0.173556)
(0.142373 0.648711 -0.177814)
(0.125531 0.561354 -0.153879)
(0.132607 0.6435 -0.174408)
(0.138335 0.604288 -0.171338)
(0.153403 0.703326 -0.194321)
(0.143823 0.668851 -0.180477)
(0.143734 0.651854 -0.18128)
(0.138425 0.623123 -0.178739)
(0.139345 0.628311 -0.171563)
(0.148667 0.637071 -0.179882)
(0.160917 0.702819 -0.186055)
(0.127305 0.59409 -0.179363)
(0.13729 0.608581 -0.172472)
(0.132045 0.598691 -0.167132)
(0.12155 0.564488 -0.16077)
(0.127919 0.595712 -0.170159)
(0.143156 0.64514 -0.173859)
(0.145942 0.665742 -0.186643)
(0.143304 0.656801 -0.180798)
(0.173045 0.78414 -0.217856)
(0.132662 0.613245 -0.174716)
(0.154485 0.690228 -0.192114)
(0.132372 0.600928 -0.167195)
(0.133139 0.628184 -0.174573)
(0.152271 0.648322 -0.181679)
(0.150804 0.660369 -0.189065)
(0.160889 0.712674 -0.202474)
(0.137492 0.645467 -0.180268)
(0.122058 0.576138 -0.146692)
(0.131899 0.531637 -0.144501)
(0.120453 0.575773 -0.157728)
(0.167593 0.717755 -0.199403)
(0.127847 0.595812 -0.166833)
(0.130701 0.626475 -0.172236)
(0.135955 0.592409 -0.156425)
(0.153225 0.667574 -0.186878)
(0.135334 0.629813 -0.174614)
(0.125544 0.561701 -0.158667)
(0.135543 0.590592 -0.163494)
(0.158261 0.684878 -0.196822)
(0.142258 0.621871 -0.167795)
(0.128496 0.577501 -0.149934)
(0.148701 0.627864 -0.175965)
(0.149323 0.665549 -0.184034)
(0.120482 0.502558 -0.130253)
(0.145358 0.655188 -0.178327)
(0.149475 0.64067 -0.183111)
(0.138143 0.603621 -0.167928)
(0.133962 0.58114 -0.168057)
(0.155688 0.695535 -0.189418)
(0.138745 0.616698 -0.175333)
(0.164562 0.763846 -0.21787)
(0.142594 0.648245 -0.180215)
(0.138959 0.619937 -0.17291)
(0.145775 0.653724 -0.178091)
(0.142468 0.645437 -0.183532)
(0.15122 0.662939 -0.193314)
(0.14569 0.676114 -0.194089)
(0.146532 0.610555 -0.170598)
(0.134171 0.605341 -0.172067)
(0.151239 0.649079 -0.181418)
(0.154953 0.725088 -0.205951)
(0.138112 0.602311 -0.152858)
(0.14364 0.630689 -0.176897)
(0.129195 0.611102 -0.163732)
(0.14659 0.676336 -0.194137)
(0.163243 0.711875 -0.196761)
(0.146318 0.69052 -0.191332)
(0.146553 0.682396 -0.192731)
(0.132386 0.609063 -0.16856)
(0.156469 0.724161 -0.19905)
(0.121528 0.581729 -0.167412)
(0.137088 0.618742 -0.178521)
(0.149896 0.688122 -0.198562)
(0.155491 0.686896 -0.184453)
(0.142607 0.627603 -0.181312)
(0.147374 0.686525 -0.190685)
(0.122994 0.565862 -0.15755)
(0.142248 0.656865 -0.181211)
(0.140515 0.653743 -0.185779)
(0.145823 0.670816 -0.18188)
(0.155421 0.691614 -0.190897)
(0.17039 0.768215 -0.209817)
(0.146196 0.681855 -0.179887)
(0.163139 0.741027 -0.202921)
(0.153462 0.66862 -0.184579)
(0.15041 0.669783 -0.182176)
(0.127701 0.581341 -0.164458)
(0.151501 0.68593 -0.185399)
(0.152037 0.696959 -0.19968)
(0.134561 0.605712 -0.172957)
(0.129756 0.557303 -0.160925)
(0.151447 0.672953 -0.187375)
(0.139065 0.614241 -0.174867)
(0.146541 0.650165 -0.165918)
(0.151875 0.671004 -0.190749)
(0.132044 0.572321 -0.164474)
(0.128525 0.565724 -0.146384)
(0.135061 0.560649 -0.154101)
(0.148751 0.653022 -0.184193)
(0.157378 0.685459 -0.185425)
(0.148296 0.659351 -0.181121)
(0.127813 0.625276 -0.170321)
(0.119185 0.558633 -0.15971)
(0.133098 0.599105 -0.162945)
(0.131523 0.599578 -0.166507)
(0.174255 0.770685 -0.2269)
(0.137998 0.571396 -0.166045)
(0.180265 0.799313 -0.221965)
(0.153229 0.698575 -0.201781)
(0.140682 0.578511 -0.164452)
(0.149946 0.706503 -0.198931)
(0.148634 0.653377 -0.176856)
(0.136381 0.612727 -0.163289)
(0.133076 0.597307 -0.154896)
(0.130884 0.583439 -0.153661)
(0.144646 0.638059 -0.170063)
(0.155647 0.67804 -0.191567)
(0.170378 0.791285 -0.220084)
(0.148746 0.646657 -0.17785)
(0.139037 0.650515 -0.179855)
(0.1343 0.586134 -0.172287)
(0.146 0.650778 -0.175031)
(0.157831 0.701302 -0.192116)
(0.163716 0.722829 -0.198794)
(0.155538 0.700419 -0.188552)
(0.138428 0.642357 -0.179336)
(0.162265 0.719776 -0.202972)
(0.138475 0.643731 -0.171614)
(0.161848 0.712154 -0.195458)
(0.157073 0.694033 -0.185369)
(0.136168 0.638388 -0.173738)
(0.1551 0.685612 -0.188912)
(0.150058 0.683798 -0.188089)
(0.134544 0.616607 -0.172735)
(0.145827 0.647131 -0.176647)
(0.155645 0.654798 -0.185815)
(0.1449 0.604432 -0.169687)
(0.129632 0.549256 -0.157935)
(0.146387 0.661591 -0.186527)
(0.141606 0.645435 -0.178106)
(0.147547 0.657834 -0.177936)
(0.144398 0.629851 -0.172763)
(0.136903 0.604167 -0.167841)
(0.152039 0.682651 -0.187939)
(0.167732 0.73452 -0.196404)
(0.129277 0.604108 -0.163277)
(0.150969 0.676252 -0.182185)
(0.15537 0.67799 -0.193092)
(0.151309 0.655353 -0.172958)
(0.147121 0.678347 -0.191219)
(0.140041 0.634145 -0.171885)
(0.148492 0.669264 -0.180815)
(0.129953 0.586961 -0.177646)
(0.127559 0.597728 -0.172715)
(0.12585 0.584464 -0.168743)
(0.141708 0.660043 -0.177725)
(0.118695 0.568934 -0.15734)
(0.128936 0.607033 -0.16438)
(0.152828 0.691549 -0.186432)
(0.149797 0.677583 -0.18217)
(0.150202 0.688912 -0.188479)
(0.135615 0.634948 -0.167738)
(0.159839 0.683609 -0.18839)
(0.139085 0.65011 -0.175781)
(0.144813 0.622401 -0.171854)
(0.140505 0.598842 -0.165049)
(0.146145 0.664691 -0.188514)
(0.140638 0.621444 -0.167293)
(0.147938 0.660349 -0.179668)
(0.122271 0.587549 -0.159474)
(0.119918 0.582218 -0.163292)
(0.14398 0.646746 -0.174554)
(0.131848 0.57656 -0.154579)
(0.115314 0.57656 -0.166347)
(0.121359 0.58436 -0.154142)
(0.14909 0.696397 -0.194442)
(0.130148 0.60872 -0.165348)
(0.144499 0.658918 -0.178539)
(0.13714 0.564991 -0.16085)
(0.134282 0.591852 -0.162287)
(0.146239 0.649242 -0.170409)
(0.131178 0.596122 -0.155309)
(0.128326 0.570548 -0.153062)
(0.140479 0.635779 -0.173211)
(0.151857 0.688068 -0.195831)
(0.135177 0.591525 -0.161057)
(0.131458 0.575352 -0.156275)
(0.13422 0.596588 -0.15946)
(0.142657 0.595407 -0.165948)
(0.134283 0.652104 -0.175141)
(0.123831 0.581162 -0.159318)
(0.133004 0.61199 -0.170954)
(0.141119 0.649247 -0.183332)
(0.130685 0.63572 -0.178268)
(0.164531 0.706979 -0.193715)
(0.141307 0.614432 -0.171977)
(0.132011 0.598639 -0.166165)
(0.129284 0.582517 -0.16254)
(0.160323 0.754995 -0.20195)
(0.153954 0.673201 -0.184315)
(0.152822 0.652841 -0.182802)
(0.152962 0.69833 -0.185874)
(0.168349 0.737166 -0.207974)
(0.128193 0.591497 -0.16948)
(0.140133 0.583938 -0.164427)
(0.140426 0.626902 -0.16723)
(0.151041 0.687769 -0.190735)
(0.166716 0.741906 -0.20877)
(0.150914 0.683813 -0.189678)
(0.135443 0.622839 -0.17501)
(0.127093 0.589172 -0.173511)
(0.127145 0.582531 -0.171008)
(0.128354 0.591269 -0.174557)
(0.135791 0.645123 -0.184089)
(0.138663 0.589351 -0.163806)
(0.139786 0.634403 -0.171903)
(0.147147 0.649762 -0.179086)
(0.142507 0.592199 -0.167339)
(0.148309 0.688528 -0.183135)
(0.150967 0.690954 -0.194797)
(0.134934 0.612648 -0.16464)
(0.146997 0.615561 -0.170407)
(0.143292 0.64614 -0.175153)
(0.150885 0.667321 -0.186967)
(0.164119 0.719938 -0.193353)
(0.135685 0.578749 -0.156891)
(0.137117 0.610666 -0.170455)
(0.152312 0.702909 -0.193904)
(0.164508 0.738581 -0.203718)
(0.121163 0.563001 -0.160141)
(0.134917 0.600399 -0.168106)
(0.138095 0.629717 -0.1795)
(0.15759 0.685024 -0.1916)
(0.148265 0.708622 -0.196463)
(0.130411 0.591222 -0.161625)
(0.151787 0.725641 -0.201801)
(0.152177 0.696979 -0.194213)
(0.132748 0.577726 -0.16508)
(0.139763 0.640531 -0.180817)
(0.143267 0.644377 -0.177983)
(0.125876 0.606013 -0.170672)
(0.147105 0.635882 -0.18133)
(0.116511 0.546703 -0.157065)
(0.138108 0.658676 -0.174004)
(0.148538 0.655638 -0.180763)
(0.125491 0.584914 -0.158406)
(0.143351 0.58979 -0.165529)
(0.140471 0.628105 -0.169781)
(0.129903 0.568959 -0.161669)
(0.148715 0.59562 -0.166235)
(0.129541 0.583629 -0.166028)
(0.15284 0.641083 -0.181694)
(0.129056 0.580874 -0.161677)
(0.132621 0.605856 -0.159631)
(0.13332 0.584577 -0.161765)
(0.114302 0.5455 -0.157098)
(0.109625 0.53853 -0.153828)
(0.157462 0.699882 -0.193578)
(0.155861 0.682753 -0.194317)
(0.118165 0.542685 -0.142953)
(0.130434 0.56559 -0.149626)
(0.124839 0.577292 -0.153963)
(0.138011 0.616875 -0.172561)
(0.180953 0.793582 -0.211695)
(0.130952 0.566272 -0.159278)
(0.141625 0.603775 -0.17444)
(0.143035 0.667094 -0.185788)
(0.131775 0.618625 -0.172031)
(0.150114 0.688362 -0.189626)
(0.143553 0.661115 -0.187531)
(0.124727 0.581367 -0.157116)
(0.117825 0.57213 -0.16315)
(0.123732 0.568719 -0.153573)
(0.14304 0.682098 -0.193659)
(0.129916 0.579479 -0.153922)
(0.137587 0.606204 -0.169186)
(0.149938 0.670256 -0.179596)
(0.136554 0.613709 -0.180087)
(0.129066 0.572562 -0.157023)
(0.11935 0.53395 -0.153765)
(0.131255 0.611432 -0.17322)
(0.129737 0.574188 -0.169299)
(0.148588 0.652197 -0.173536)
(0.123094 0.566966 -0.154682)
(0.139799 0.64277 -0.17173)
(0.132016 0.609325 -0.162548)
(0.133204 0.590169 -0.160053)
(0.131278 0.607766 -0.156455)
(0.137687 0.656134 -0.182031)
(0.11951 0.564126 -0.158487)
(0.128347 0.592583 -0.162327)
(0.155536 0.666397 -0.189722)
(0.147222 0.628347 -0.185279)
(0.130876 0.557274 -0.163134)
(0.14821 0.632124 -0.172207)
(0.136818 0.615784 -0.175628)
(0.116307 0.538185 -0.156557)
(0.134761 0.634304 -0.1833)
(0.111153 0.528106 -0.14829)
(0.143617 0.673622 -0.182687)
(0.142117 0.588829 -0.166451)
(0.128849 0.546317 -0.154419)
(0.122248 0.576695 -0.158274)
(0.139343 0.668964 -0.183395)
(0.150671 0.682222 -0.190128)
(0.129053 0.584054 -0.168206)
(0.163711 0.71533 -0.20257)
(0.149331 0.690841 -0.190272)
(0.136838 0.606763 -0.171347)
(0.138208 0.640278 -0.174127)
(0.157237 0.709412 -0.199153)
(0.132768 0.611277 -0.175054)
(0.138567 0.626112 -0.169256)
(0.142237 0.607757 -0.162643)
(0.15306 0.660054 -0.186735)
(0.123839 0.589415 -0.157661)
(0.139379 0.585846 -0.169561)
(0.164386 0.730008 -0.197148)
(0.142439 0.605258 -0.173835)
(0.132752 0.602344 -0.172381)
(0.129068 0.593016 -0.163535)
(0.140843 0.617906 -0.169863)
(0.144298 0.600299 -0.172933)
(0.142802 0.609283 -0.176118)
(0.146866 0.608637 -0.170054)
(0.134255 0.574027 -0.154288)
(0.162128 0.70361 -0.191325)
(0.146879 0.64298 -0.182687)
(0.139343 0.656568 -0.181547)
(0.134452 0.63909 -0.187513)
(0.134737 0.604285 -0.180968)
(0.144857 0.636399 -0.180504)
(0.154278 0.683427 -0.195807)
(0.140327 0.647827 -0.187033)
(0.121158 0.553555 -0.154951)
(0.132472 0.62995 -0.176457)
(0.144388 0.626761 -0.181963)
(0.1419 0.626018 -0.177098)
(0.120205 0.643171 -0.189774)
(0.15409 0.670968 -0.187943)
(0.149817 0.689773 -0.195778)
(0.114623 0.553598 -0.160907)
(0.134858 0.605064 -0.166673)
(0.120209 0.56715 -0.158033)
(0.140378 0.651384 -0.17848)
(0.14208 0.638511 -0.173277)
(0.139261 0.633314 -0.177644)
(0.135432 0.62771 -0.180338)
(0.13027 0.587037 -0.171636)
(0.147059 0.661173 -0.184081)
(0.118379 0.592518 -0.180195)
(0.133531 0.600636 -0.166698)
(0.109876 0.504279 -0.129293)
(0.128486 0.575453 -0.156376)
(0.139532 0.611348 -0.167507)
(0.16268 0.718591 -0.198705)
(0.116887 0.51625 -0.136125)
(0.123113 0.542798 -0.147935)
(0.134458 0.642248 -0.186145)
(0.126286 0.580058 -0.156475)
(0.13807 0.627036 -0.178579)
(0.125501 0.569869 -0.167952)
(0.145816 0.635051 -0.179024)
(0.158439 0.684966 -0.192005)
(0.141059 0.606199 -0.154704)
(0.128155 0.570552 -0.150978)
(0.171338 0.758342 -0.207245)
(0.153936 0.708517 -0.194968)
(0.163865 0.741751 -0.20625)
(0.132247 0.599713 -0.169014)
(0.148471 0.647888 -0.177374)
(0.137736 0.620898 -0.176259)
(0.132577 0.577104 -0.169023)
(0.131062 0.598938 -0.163194)
(0.146536 0.640977 -0.170321)
(0.145301 0.652033 -0.182289)
(0.134423 0.579518 -0.163128)
(0.143026 0.642327 -0.179598)
(0.14412 0.648071 -0.176183)
(0.161214 0.746251 -0.204389)
(0.153575 0.684585 -0.189143)
(0.133957 0.611197 -0.170456)
(0.166621 0.723751 -0.198255)
(0.144883 0.66066 -0.183276)
(0.14187 0.625699 -0.17542)
(0.122209 0.567858 -0.160099)
(0.120963 0.573869 -0.147357)
(0.1574 0.675446 -0.188925)
(0.137214 0.618334 -0.165494)
(0.138 0.607679 -0.176747)
(0.132508 0.614546 -0.166383)
(0.143297 0.635372 -0.182213)
(0.130447 0.579562 -0.15118)
(0.144849 0.632395 -0.180451)
(0.144251 0.651581 -0.177128)
(0.133687 0.569191 -0.158845)
(0.149804 0.635745 -0.179419)
(0.12179 0.550775 -0.157038)
(0.147815 0.597475 -0.168597)
(0.149548 0.634195 -0.170037)
(0.140482 0.632272 -0.181846)
(0.12346 0.552691 -0.153256)
(0.153178 0.694095 -0.194242)
(0.144403 0.607182 -0.16814)
(0.134633 0.622957 -0.167787)
(0.126742 0.549897 -0.153485)
(0.136014 0.630241 -0.17079)
(0.134447 0.634319 -0.172663)
(0.127346 0.554648 -0.159566)
(0.15538 0.689683 -0.192309)
(0.124725 0.559645 -0.149206)
(0.140036 0.635947 -0.170313)
(0.139634 0.643933 -0.167814)
(0.133681 0.58554 -0.15925)
(0.158091 0.705623 -0.193819)
(0.151111 0.66143 -0.184846)
(0.120249 0.568331 -0.150684)
(0.1449 0.637332 -0.172735)
(0.174576 0.759279 -0.212768)
(0.136314 0.595827 -0.166382)
(0.140718 0.589168 -0.165333)
(0.1536 0.706896 -0.197974)
(0.165288 0.715734 -0.195685)
(0.138956 0.628581 -0.16722)
(0.147237 0.663078 -0.180137)
(0.192723 0.877406 -0.239111)
(0.15071 0.672692 -0.183558)
(0.149634 0.67061 -0.186296)
(0.199139 0.901649 -0.251285)
(0.183561 0.83193 -0.224759)
(0.195413 0.859718 -0.230021)
(0.163034 0.740129 -0.205571)
(0.223746 1.0232 -0.2754)
(0.21046 0.962749 -0.258711)
(0.156906 0.730299 -0.203077)
(0.21988 0.983756 -0.263311)
(0.148896 0.613155 -0.168696)
(0.174267 0.779919 -0.217089)
(0.221053 1.02195 -0.276054)
(0.155989 0.693781 -0.193374)
(0.15871 0.706851 -0.187238)
(0.215446 0.99138 -0.265936)
(0.148281 0.661705 -0.184421)
(0.147096 0.682808 -0.187651)
(0.219835 1.01223 -0.274698)
(0.14974 0.618265 -0.178683)
(0.132278 0.620618 -0.176734)
(0.14181 0.620518 -0.167236)
(0.135293 0.642343 -0.177698)
(0.142701 0.629952 -0.171417)
(0.127019 0.536769 -0.152957)
(0.123572 0.584351 -0.164477)
(0.147325 0.667148 -0.18598)
(0.121006 0.585261 -0.166216)
(0.172365 0.780857 -0.209648)
(0.169825 0.785326 -0.218145)
(0.160289 0.702009 -0.18973)
(0.141215 0.656284 -0.179746)
(0.20159 0.927009 -0.250289)
(0.136298 0.62023 -0.157288)
(0.131176 0.624245 -0.165757)
(0.131917 0.579102 -0.149809)
(0.128775 0.579016 -0.157904)
(0.163549 0.720597 -0.202684)
(0.161442 0.738379 -0.195103)
(0.182745 0.808681 -0.222526)
(0.199691 0.873186 -0.243557)
(0.20977 0.9454 -0.254775)
(0.211024 0.949022 -0.256326)
(0.143232 0.623376 -0.172149)
(0.136519 0.632542 -0.176629)
(0.21957 1.015 -0.274353)
(0.195626 0.880925 -0.236028)
(0.200524 0.887037 -0.2382)
(0.18876 0.855816 -0.238719)
(0.223044 1.02116 -0.275471)
(0.218387 0.97872 -0.262975)
(0.204536 0.914852 -0.249613)
(0.18183 0.827118 -0.234076)
(0.156882 0.673263 -0.180566)
(0.206636 0.948954 -0.265861)
(0.159326 0.72704 -0.197987)
(0.213599 0.98429 -0.269113)
(0.123796 0.598331 -0.165062)
(0.129064 0.579769 -0.171428)
(0.129436 0.600951 -0.169638)
(0.135322 0.639758 -0.178943)
(0.135343 0.63256 -0.160845)
(0.181536 0.842084 -0.232743)
(0.19977 0.917167 -0.254809)
(0.219518 1.00162 -0.271799)
(0.220408 0.986452 -0.26582)
(0.224557 1.02198 -0.27396)
(0.202485 0.893111 -0.24114)
(0.210215 0.954204 -0.258852)
(0.205841 0.927498 -0.25584)
(0.154176 0.680587 -0.18973)
(0.17826 0.836894 -0.232975)
(0.137101 0.626476 -0.173235)
(0.180669 0.850939 -0.231934)
(0.132356 0.595241 -0.156587)
(0.156525 0.694924 -0.20468)
(0.208276 0.945123 -0.261702)
(0.20989 0.96173 -0.263391)
(0.199779 0.91941 -0.245495)
(0.130883 0.611965 -0.165861)
(0.163409 0.758223 -0.207691)
(0.132508 0.613108 -0.161192)
(0.144816 0.672536 -0.180653)
(0.190172 0.863644 -0.234019)
(0.163809 0.762826 -0.214137)
(0.214833 0.967871 -0.264916)
(0.216936 0.951749 -0.260133)
(0.217939 1.00276 -0.270656)
(0.17585 0.7737 -0.21913)
(0.210933 0.934282 -0.253769)
(0.218213 1.00131 -0.270399)
(0.124658 0.578953 -0.157053)
(0.213858 0.986927 -0.266059)
(0.202846 0.946667 -0.254878)
(0.120119 0.554527 -0.155812)
(0.185909 0.843304 -0.225398)
(0.211849 0.980046 -0.263699)
(0.213675 0.984358 -0.26605)
(0.18535 0.839231 -0.228968)
(0.199387 0.895316 -0.247726)
(0.196295 0.903418 -0.247569)
(0.217495 1.01098 -0.271567)
(0.209469 0.96713 -0.262908)
(0.206993 0.946748 -0.258665)
(0.148388 0.612668 -0.169237)
(0.22147 1.02197 -0.274842)
(0.143927 0.656788 -0.184484)
(0.219477 0.990299 -0.267945)
(0.194253 0.847963 -0.234578)
(0.210723 0.938077 -0.257204)
(0.205882 0.917509 -0.248976)
(0.191365 0.873912 -0.236739)
(0.194049 0.858087 -0.232067)
(0.221131 1.02418 -0.275072)
(0.221057 1.01998 -0.274165)
(0.212861 0.973556 -0.261738)
(0.2157 0.994968 -0.27281)
(0.215182 0.995952 -0.270599)
(0.216768 0.988397 -0.266472)
(0.221197 1.02346 -0.274549)
(0.222691 1.02568 -0.276858)
(0.209743 0.972039 -0.261924)
(0.189482 0.82558 -0.232904)
(0.144798 0.616176 -0.15352)
(0.144487 0.675322 -0.190295)
(0.196737 0.869612 -0.242663)
(0.177089 0.783867 -0.218069)
(0.131962 0.592099 -0.156215)
(0.213958 0.969748 -0.263746)
(0.184529 0.817906 -0.224996)
(0.198804 0.892985 -0.245517)
(0.185368 0.852298 -0.231523)
(0.184953 0.819121 -0.222148)
(0.169884 0.760064 -0.207936)
(0.21934 0.991122 -0.266345)
(0.218611 1.01399 -0.274656)
(0.208315 0.962747 -0.262882)
(0.219896 1.01811 -0.273662)
(0.222803 1.00652 -0.270997)
(0.222591 1.02668 -0.274547)
(0.214051 0.991447 -0.268873)
(0.144165 0.642758 -0.174716)
(0.190885 0.85406 -0.234765)
(0.179109 0.805102 -0.225343)
(0.210823 0.963037 -0.265314)
(0.169247 0.768904 -0.218002)
(0.142168 0.671446 -0.183326)
(0.208967 0.938196 -0.255721)
(0.137807 0.615687 -0.169462)
(0.142953 0.65912 -0.180114)
(0.214263 0.978659 -0.271082)
(0.213083 0.969675 -0.263638)
(0.222665 1.01068 -0.273554)
(0.213828 0.992103 -0.272532)
(0.220262 1.02204 -0.274558)
(0.218567 1.01405 -0.271938)
(0.215057 0.985024 -0.270588)
(0.161481 0.730683 -0.195712)
(0.146219 0.640262 -0.175887)
(0.183408 0.809627 -0.230161)
(0.140873 0.616979 -0.179377)
(0.133498 0.601844 -0.172979)
(0.143927 0.62682 -0.176278)
(0.149059 0.676503 -0.185721)
(0.21061 0.953531 -0.26153)
(0.185745 0.848018 -0.2309)
(0.207783 0.94164 -0.25723)
(0.184487 0.830555 -0.221925)
(0.188189 0.846726 -0.234794)
(0.172758 0.777285 -0.217337)
(0.194059 0.872244 -0.238935)
(0.130147 0.603881 -0.162315)
(0.187216 0.848526 -0.230068)
(0.183351 0.832178 -0.226229)
(0.177439 0.796332 -0.215804)
(0.15596 0.723877 -0.189769)
(0.165366 0.761605 -0.203032)
(0.150009 0.698867 -0.192891)
(0.16673 0.746175 -0.20282)
(0.160904 0.692627 -0.192636)
(0.128142 0.557221 -0.152966)
(0.139804 0.651597 -0.18093)
(0.160041 0.71709 -0.200288)
(0.128047 0.579776 -0.160816)
(0.184864 0.815257 -0.224378)
(0.189346 0.842609 -0.228626)
(0.137245 0.62216 -0.173914)
(0.146842 0.65352 -0.174973)
(0.189939 0.831619 -0.228122)
(0.185459 0.809421 -0.22665)
(0.141503 0.598749 -0.165802)
(0.159322 0.722156 -0.204552)
(0.146859 0.650994 -0.184514)
(0.166863 0.746571 -0.212817)
(0.141277 0.618649 -0.170769)
(0.178913 0.832364 -0.225954)
(0.127943 0.572539 -0.165263)
(0.162614 0.76447 -0.208458)
(0.12821 0.539197 -0.152861)
(0.163032 0.699134 -0.19405)
(0.16582 0.734874 -0.200156)
(0.175991 0.785483 -0.219014)
(0.184972 0.840627 -0.226585)
(0.157969 0.689571 -0.189647)
(0.115945 0.546332 -0.153261)
(0.131592 0.612789 -0.168476)
(0.121083 0.5821 -0.15948)
(0.176677 0.803269 -0.221651)
(0.17689 0.805488 -0.220466)
(0.151874 0.673511 -0.184782)
(0.169116 0.782786 -0.206085)
(0.137224 0.641505 -0.18121)
(0.213876 0.984656 -0.267138)
(0.200766 0.924793 -0.249146)
(0.198017 0.900648 -0.246611)
(0.217433 1.0098 -0.273708)
(0.132851 0.607444 -0.166278)
(0.173218 0.758717 -0.213443)
(0.142877 0.670766 -0.19044)
(0.178552 0.790587 -0.219461)
(0.133651 0.62436 -0.173042)
(0.171702 0.788387 -0.213321)
(0.135895 0.635904 -0.177149)
(0.114131 0.532827 -0.152877)
(0.169443 0.754443 -0.209683)
(0.21567 0.972574 -0.263232)
(0.169406 0.752296 -0.210095)
(0.208055 0.924322 -0.254721)
(0.176312 0.785184 -0.217674)
(0.18542 0.823086 -0.231122)
(0.201816 0.87618 -0.242809)
(0.16347 0.732586 -0.196186)
(0.135805 0.641459 -0.175698)
(0.223072 1.02319 -0.276974)
(0.219351 1.01346 -0.27294)
(0.221168 1.01947 -0.277205)
(0.220052 1.01843 -0.274024)
(0.222837 1.02625 -0.275326)
(0.222946 1.025 -0.274628)
(0.221575 1.02229 -0.275847)
(0.221363 1.02308 -0.27449)
(0.216841 1.00047 -0.268638)
(0.220116 1.01518 -0.274466)
(0.217685 1.00205 -0.270303)
(0.217655 1.00632 -0.269343)
(0.216552 0.996237 -0.268033)
(0.218443 1.0095 -0.271719)
(0.161569 0.743044 -0.208655)
(0.138618 0.660526 -0.180664)
(0.148725 0.680198 -0.190817)
(0.162883 0.726088 -0.199393)
(0.166479 0.77944 -0.213998)
(0.131327 0.590771 -0.152781)
(0.176023 0.770231 -0.211227)
(0.207918 0.922539 -0.252505)
(0.216528 0.954632 -0.255042)
(0.193744 0.861319 -0.238497)
(0.208444 0.939199 -0.257462)
(0.203691 0.917334 -0.253924)
(0.199179 0.895386 -0.247906)
(0.171776 0.787177 -0.219431)
(0.168936 0.772219 -0.215462)
(0.204586 0.921968 -0.256241)
(0.144047 0.629503 -0.176917)
(0.20858 0.937366 -0.258528)
(0.187699 0.846394 -0.237003)
(0.207624 0.939363 -0.257751)
(0.167947 0.722218 -0.202498)
(0.17737 0.778324 -0.216599)
(0.202549 0.916263 -0.252077)
(0.217423 1.00525 -0.271342)
(0.212975 0.964579 -0.259217)
(0.218482 1.00548 -0.271012)
(0.218081 0.988021 -0.267924)
(0.219764 1.01592 -0.273878)
(0.219756 1.014 -0.273801)
(0.21668 0.984819 -0.266035)
(0.205333 0.9377 -0.259511)
(0.157521 0.700632 -0.20045)
(0.188836 0.858396 -0.235031)
(0.13803 0.628508 -0.171204)
(0.190336 0.852317 -0.239538)
(0.166049 0.737773 -0.206366)
(0.139223 0.610452 -0.169005)
(0.12383 0.548618 -0.15217)
(0.12074 0.546146 -0.153734)
(0.123743 0.528197 -0.144243)
(0.140901 0.637602 -0.173287)
(0.194644 0.886825 -0.240398)
(0.211275 0.97622 -0.26237)
(0.187803 0.849608 -0.22882)
(0.208897 0.970161 -0.260871)
(0.212357 0.979633 -0.264059)
(0.21403 0.992688 -0.265762)
(0.207084 0.954936 -0.257267)
(0.209226 0.956506 -0.263919)
(0.199297 0.907217 -0.254293)
(0.210052 0.955801 -0.265007)
(0.19507 0.880379 -0.250166)
(0.195552 0.868993 -0.243785)
(0.188084 0.849519 -0.240418)
(0.20494 0.928914 -0.258381)
(0.189542 0.869189 -0.241352)
(0.175889 0.816917 -0.226064)
(0.176989 0.798963 -0.229627)
(0.156385 0.726507 -0.196962)
(0.172398 0.741161 -0.206237)
(0.164529 0.751249 -0.206714)
(0.17024 0.779209 -0.210404)
(0.16503 0.734755 -0.196027)
(0.170669 0.76735 -0.207674)
(0.156195 0.686667 -0.188022)
(0.220823 1.01847 -0.277316)
(0.207448 0.950611 -0.266049)
(0.218877 1.00718 -0.276468)
(0.212451 0.980752 -0.270669)
(0.221196 1.0203 -0.277124)
(0.22029 1.0193 -0.276272)
(0.212839 0.984746 -0.271143)
(0.142656 0.638598 -0.16771)
(0.161599 0.72054 -0.201651)
(0.140454 0.57766 -0.173371)
(0.188713 0.845889 -0.232494)
(0.147433 0.620365 -0.175497)
(0.173416 0.773051 -0.216277)
(0.132572 0.572972 -0.16229)
(0.137083 0.610498 -0.173717)
(0.142981 0.648124 -0.182414)
(0.155895 0.673678 -0.187892)
(0.169694 0.763167 -0.208722)
(0.179513 0.81969 -0.218871)
(0.137903 0.613204 -0.165497)
(0.148239 0.655922 -0.183552)
(0.128549 0.60942 -0.162125)
(0.121624 0.56076 -0.157063)
(0.168769 0.736664 -0.198025)
(0.11782 0.557162 -0.150264)
(0.179197 0.790217 -0.215628)
(0.179027 0.779769 -0.21772)
(0.12698 0.550407 -0.144186)
(0.135941 0.60922 -0.169142)
(0.164735 0.742441 -0.20438)
(0.157572 0.649576 -0.17701)
(0.135344 0.618625 -0.169787)
(0.157932 0.680426 -0.192595)
(0.126621 0.553264 -0.148927)
(0.138805 0.603515 -0.153812)
(0.124772 0.574828 -0.160109)
(0.144686 0.662372 -0.181804)
(0.147701 0.619773 -0.169754)
(0.172747 0.783806 -0.21186)
(0.141256 0.630873 -0.172074)
(0.157216 0.704978 -0.194892)
(0.141884 0.634328 -0.174307)
(0.149614 0.658768 -0.179586)
(0.180858 0.815854 -0.228073)
(0.183344 0.822633 -0.231231)
(0.162828 0.700754 -0.199423)
(0.173051 0.771552 -0.216498)
(0.180423 0.799056 -0.22219)
(0.178686 0.780539 -0.220961)
(0.16809 0.760472 -0.211484)
(0.140055 0.597342 -0.165895)
(0.144366 0.619262 -0.180289)
(0.146717 0.641261 -0.175479)
(0.173215 0.734005 -0.206526)
(0.148371 0.658671 -0.18614)
(0.141658 0.640291 -0.181173)
(0.178092 0.784185 -0.21925)
(0.15002 0.658359 -0.183638)
(0.14094 0.615236 -0.174269)
(0.138916 0.672686 -0.194811)
(0.207905 0.958467 -0.263532)
(0.197477 0.894894 -0.251658)
(0.122348 0.576431 -0.16947)
(0.152981 0.679884 -0.193367)
(0.137308 0.632525 -0.181424)
(0.110839 0.511678 -0.148347)
(0.205255 0.942956 -0.260804)
(0.195553 0.897021 -0.249451)
(0.159595 0.750284 -0.206376)
(0.155774 0.712159 -0.202758)
(0.141617 0.639078 -0.172358)
(0.152486 0.686789 -0.190655)
(0.157495 0.732723 -0.205256)
(0.123337 0.555517 -0.153073)
(0.136426 0.659029 -0.185023)
(0.133822 0.61158 -0.167443)
(0.137871 0.656604 -0.181314)
(0.126947 0.583193 -0.168238)
(0.136514 0.617586 -0.175137)