/*--------------------------------*- C++ -*----------------------------------*\
| =========                 |                                                 |
| \\      /  F ield         | OpenFOAM: The Open Source CFD Toolbox           |
|  \\    /   O peration     | Version:  v1612+                                |
|   \\  /    A nd           | Web:      www.OpenFOAM.com                      |
|    \\/     M anipulation  |                                                 |
\*---------------------------------------------------------------------------*/
FoamFile
{
    version     2.0;
    format      ascii;
    class       volScalarField;
    location    "50";
    object      p;
}
// * * * * * * * * * * * * * * * * * * * * * * * * * * * * * * * * * * * * * //

dimensions      [0 2 -2 0 0 0 0];

internalField   nonuniform List<scalar> 
16940
(
2.44014
2.42443
2.40295
2.47615
2.48867
2.46244
2.4677
2.46777
2.49239
2.49492
2.49944
2.48998
2.47012
2.50073
2.50698
2.5036
2.50438
2.48841
2.48427
2.48029
2.50504
2.45394
2.46292
2.47421
2.47369
2.45728
2.46513
2.46166
2.45838
2.46826
2.47167
2.46273
2.45858
2.46936
2.46702
2.37621
2.37232
2.37173
2.37016
2.3735
2.37001
2.36926
2.36762
2.3745
2.37426
2.50181
2.5045
2.50298
2.49243
2.50305
2.50509
2.49909
2.50337
2.50894
2.49294
2.50107
2.49548
2.51563
2.51445
2.5019
2.50852
2.50007
2.51143
2.37456
2.37357
2.37429
2.3762
2.37687
2.37748
2.37736
2.37763
2.3734
2.37903
2.37578
2.37569
2.36893
2.37784
2.3715
2.3792
2.37512
2.37403
2.3725
2.37406
2.37921
2.377
2.37877
2.38065
2.3288
2.33255
2.33727
2.33772
2.32614
2.33071
2.33858
2.32167
2.33559
2.34603
2.34062
2.32735
2.33335
2.33478
2.33444
2.33544
2.33637
2.33753
2.41374
2.41185
2.42323
2.42776
2.42896
2.42531
2.42001
2.42275
2.42439
2.42076
2.4171
2.41833
2.41741
2.42617
2.41755
2.41927
2.41924
2.4244
2.43283
2.42116
2.41978
2.41405
2.41803
2.4198
2.41924
2.42151
2.41144
2.4196
2.41287
2.42363
2.42856
2.42187
2.42186
2.41872
2.42001
2.4228
2.41694
2.49251
2.48915
2.47898
2.47467
2.49457
2.50717
2.49726
2.50607
2.48252
2.48933
2.49631
2.50075
2.48998
2.49297
2.49271
2.49379
2.48926
2.49136
2.40598
2.3969
2.4104
2.37392
2.38964
2.39506
2.39916
2.3748
2.36687
2.39233
2.36425
2.37346
2.52055
2.5142
2.51441
2.51662
2.50818
2.50463
2.50816
2.50751
2.51402
2.51489
2.51896
2.50775
2.51326
2.44668
2.45011
2.4427
2.43358
2.44472
2.45348
2.44677
2.46246
2.47735
2.45263
2.44433
2.45323
2.45037
2.43446
2.43014
2.42992
2.42434
2.42165
2.42932
2.42738
2.43297
2.43143
2.42526
2.42722
2.43406
2.43676
2.43151
2.43244
2.43473
2.42879
2.43674
2.43989
2.4151
2.41246
2.43226
2.43696
2.43836
2.44102
2.41923
2.42346
2.4123
2.41383
2.43586
2.43764
2.43483
2.42434
2.42738
2.4305
2.42439
2.48523
2.46956
2.48983
2.4944
2.48867
2.47662
2.50034
2.48999
2.48387
2.48868
2.47493
2.49797
2.47371
2.48444
2.4226
2.42746
2.42202
2.42512
2.42266
2.42397
2.4257
2.42425
2.42171
2.4263
2.43235
2.43239
2.42747
2.42685
2.43155
2.42963
2.4333
2.43435
2.37177
2.386
2.39392
2.37419
2.39042
2.39549
2.38415
2.37638
2.40334
2.38006
2.38384
2.39675
2.41102
2.39721
2.38187
2.40803
2.50373
2.4979
2.47633
2.48232
2.50266
2.48423
2.49595
2.48649
2.49127
2.49164
2.38526
2.38139
2.37775
2.38107
2.38245
2.39504
2.39506
2.38374
2.38696
2.38823
2.38962
2.38146
2.38955
2.39291
2.38479
2.38961
2.38635
2.39316
2.39069
2.4823
2.48107
2.47851
2.47602
2.47105
2.47759
2.469
2.46801
2.47054
2.4621
2.46834
2.46587
2.4688
2.46899
2.47173
2.4603
2.46669
2.46537
2.48423
2.49112
2.49328
2.48509
2.51168
2.4992
2.51272
2.49409
2.49105
2.49789
2.49758
2.5093
2.50455
2.49726
2.50497
2.50935
2.50916
2.34526
2.35618
2.35576
2.35166
2.35068
2.3475
2.35248
2.35392
2.34562
2.34756
2.34101
2.34194
2.34697
2.34282
2.34149
2.3458
2.3396
2.34337
2.38079
2.38558
2.38243
2.38553
2.3786
2.38043
2.38196
2.3765
2.3705
2.37129
2.36998
2.3729
2.38319
2.37668
2.33017
2.33242
2.34016
2.33649
2.3365
2.33462
2.34058
2.33625
2.32969
2.34345
2.46017
2.45813
2.46129
2.45699
2.46655
2.46403
2.46913
2.46786
2.47096
2.4773
2.46456
2.47596
2.47318
2.47949
2.47197
2.48338
2.35504
2.36086
2.37061
2.36724
2.35901
2.35872
2.36876
2.36551
2.36478
2.37296
2.37009
2.37342
2.36669
2.36417
2.36771
2.3621
2.3656
2.3613
2.37216
2.36838
2.37175
2.36331
2.36004
2.35969
2.36165
2.36461
2.36957
2.37544
2.36528
2.37299
2.36321
2.36648
2.3744
2.36159
2.36948
2.36196
2.36915
2.37653
2.36589
2.37703
2.37248
2.45716
2.45482
2.46448
2.46841
2.46861
2.47058
2.47095
2.52776
2.52951
2.51978
2.52303
2.52641
2.52085
2.5279
2.50907
2.51755
2.51615
2.51772
2.51417
2.52935
2.51996
2.52285
2.52005
2.51559
2.51688
2.52337
2.52711
2.42212
2.41879
2.42265
2.41387
2.42181
2.41982
2.41273
2.41298
2.40782
2.41156
2.41565
2.40579
2.42483
2.40683
2.40629
2.40135
2.35243
2.34701
2.34406
2.36692
2.35738
2.36175
2.36627
2.36297
2.35681
2.36329
2.35795
2.36327
2.34462
2.3536
2.35652
2.3487
2.35493
2.35341
2.35145
2.36445
2.50528
2.50441
2.50502
2.50786
2.49168
2.50758
2.49645
2.49549
2.50153
2.50123
2.48276
2.48291
2.48565
2.4801
2.49813
2.49096
2.49805
2.50042
2.50118
2.49094
2.47849
2.48914
2.42605
2.42709
2.42002
2.42791
2.42687
2.42803
2.43252
2.43423
2.42736
2.4277
2.43459
2.42313
2.42387
2.41988
2.42096
2.4159
2.43003
2.43111
2.42248
2.42327
2.42059
2.42535
2.42079
2.4261
2.41838
2.40782
2.41868
2.41024
2.40749
2.41937
2.41641
2.41504
2.4024
2.40989
2.41546
2.4026
2.41505
2.40842
2.40946
2.41448
2.42339
2.42615
2.41984
2.42312
2.40268
2.40582
2.42212
2.41224
2.41439
2.41185
2.41014
2.4044
2.40828
2.4103
2.40654
2.40909
2.39759
2.41576
2.41186
2.40064
2.39707
2.42043
2.41442
2.41567
2.42296
2.39628
2.40163
2.41084
2.40643
2.4147
2.40812
2.40318
2.42516
2.42234
2.41584
2.41941
2.4242
2.42426
2.42962
2.41509
2.41012
2.42029
2.41958
2.41678
2.40987
2.42088
2.50054
2.49517
2.5119
2.50473
2.51219
2.50915
2.50432
2.50965
2.48784
2.49515
2.49155
2.48501
2.49081
2.50838
2.49565
2.49987
2.50196
2.49952
2.49129
2.50778
2.50279
2.42153
2.43067
2.4174
2.41868
2.41736
2.41913
2.41802
2.42734
2.41273
2.4466
2.42786
2.429
2.43102
2.42414
2.4472
2.43227
2.44568
2.47503
2.47573
2.47281
2.48047
2.46551
2.48957
2.48154
2.47107
2.47639
2.48227
2.46601
2.4555
2.47883
2.47645
2.48041
2.47048
2.49328
2.47974
2.42954
2.44316
2.44156
2.43852
2.43198
2.45193
2.44442
2.45149
2.43425
2.4417
2.44983
2.45317
2.45431
2.44239
2.48545
2.49905
2.49843
2.49282
2.49388
2.48894
2.49147
2.47464
2.48176
2.47732
2.47861
2.47051
2.47399
2.47566
2.46588
2.47374
2.48428
2.47638
2.4756
2.47991
2.47225
2.47101
2.47508
2.48122
2.50108
2.50143
2.50371
2.50363
2.50856
2.51104
2.50065
2.50193
2.5196
2.5146
2.51578
2.5089
2.50778
2.51628
2.51887
2.51921
2.50509
2.51765
2.52334
2.51762
2.51092
2.51661
2.51484
2.52514
2.52143
2.52291
2.52484
2.5088
2.50679
2.50271
2.50211
2.51179
2.52618
2.50806
2.50065
2.49822
2.5043
2.51115
2.50135
2.50629
2.37295
2.37085
2.36997
2.37181
2.37337
2.37123
2.37599
2.37146
2.37476
2.36695
2.37082
2.37473
2.37012
2.47212
2.46675
2.48009
2.47945
2.43492
2.43625
2.46058
2.46014
2.48533
2.47543
2.48486
2.45766
2.45209
2.44102
2.44942
2.46896
2.46865
2.46856
2.47843
2.4811
2.45435
2.45732
2.4522
2.45892
2.4356
2.44308
2.43047
2.42211
2.4545
2.43368
2.43275
2.4571
2.46038
2.42872
2.44151
2.43376
2.44392
2.4364
2.44207
2.44357
2.50142
2.50227
2.50992
2.51114
2.50766
2.50496
2.49323
2.50141
2.4892
2.50338
2.49239
2.50032
2.5059
2.4949
2.50167
2.34357
2.32987
2.33793
2.33267
2.33508
2.33866
2.33465
2.33893
2.33651
2.34242
2.34619
2.33272
2.34387
2.34093
2.34366
2.34457
2.48781
2.47693
2.47185
2.48356
2.48888
2.478
2.48979
2.47269
2.48072
2.48888
2.50213
2.49536
2.50119
2.47553
2.48753
2.49594
2.48663
2.35683
2.36084
2.36081
2.35298
2.35487
2.36241
2.35225
2.35337
2.35662
2.36528
2.36342
2.35315
2.35832
2.34965
2.45706
2.45398
2.47226
2.45465
2.44762
2.45329
2.4459
2.44409
2.4644
2.46019
2.46466
2.45522
2.32351
2.32272
2.32471
2.31832
2.32068
2.32185
2.33069
2.33959
2.33854
2.33458
2.34449
2.34389
2.3373
2.37146
2.37186
2.34793
2.33857
2.33998
2.34
2.34438
2.35094
2.35138
2.40884
2.39853
2.39773
2.49098
2.47717
2.47928
2.48503
2.3575
2.35358
2.3512
2.34768
2.44529
2.44856
2.50343
2.50121
2.40943
2.39216
2.39461
2.39752
2.39276
2.36715
2.3629
2.35985
2.35342
2.49583
2.48675
2.48473
2.5067
2.50782
2.50908
2.43097
2.41895
2.41276
2.45654
2.45145
2.4418
2.36651
2.36195
2.36839
2.36491
2.39092
2.38883
2.37208
2.37014
2.4614
2.46248
2.50302
2.50342
2.50856
2.36633
2.36972
2.36388
2.3647
2.5039
2.49465
2.50422
2.49597
2.40467
2.3982
2.52327
2.52082
2.45451
2.45115
2.37612
2.38107
2.37717
2.37951
2.51036
2.51368
2.42539
2.4235
2.3752
2.37732
2.38155
2.41312
2.41421
2.40431
2.39541
2.39161
2.50176
2.49284
2.48599
2.48869
2.40076
2.39342
2.39796
2.44856
2.44398
2.4426
2.48908
2.49992
2.48864
2.44742
2.4512
2.3875
2.39234
2.39169
2.42703
2.42874
2.39889
2.40663
2.40743
2.49533
2.49189
2.48433
2.52489
2.52139
2.40185
2.40084
2.39667
2.45164
2.45165
2.51872
2.52058
2.5071
2.49366
2.5051
2.40588
2.40515
2.41334
2.42232
2.42228
2.43873
2.43867
2.4313
2.53041
2.53087
2.49991
2.50177
2.51307
2.50824
2.41449
2.41333
2.41122
2.53063
2.52454
2.52415
2.51724
2.42506
2.42413
2.49252
2.49294
2.48392
2.45019
2.44914
2.4417
2.41534
2.4189
2.41548
2.54032
2.53091
2.53314
2.53843
2.53124
2.46317
2.46198
2.46265
2.46263
2.4633
2.47462
2.47119
2.47384
2.50188
2.54093
2.53636
2.53609
2.54247
2.53668
2.53328
2.46581
2.47766
2.47263
2.48264
2.46516
2.50554
2.50774
2.47858
2.47648
2.48212
2.47117
2.48219
2.47144
2.46675
2.42224
2.41874
2.42048
2.42688
2.4257
2.42356
2.4448
2.4464
2.47013
2.47618
2.47579
2.45427
2.459
2.45992
2.4546
2.41441
2.42363
2.41412
2.41452
2.42128
2.42239
2.42526
2.43115
2.42831
2.42604
2.42538
2.41969
2.42141
2.42115
2.42379
2.41663
2.42445
2.42059
2.42235
2.42868
2.42767
2.42833
2.42316
2.42456
2.52655
2.52767
2.52494
2.53426
2.53689
2.52632
2.52859
2.52501
2.53561
2.52921
2.53191
2.53015
2.52476
2.52805
2.52244
2.52949
2.53409
2.41372
2.40609
2.40893
2.41434
2.41433
2.41135
2.41321
2.41442
2.41578
2.41065
2.41381
2.44693
2.45095
2.44596
2.435
2.43686
2.43944
2.44237
2.42727
2.4335
2.45509
2.45377
2.45157
2.4707
2.47697
2.47224
2.47991
2.50748
2.51031
2.50062
2.47465
2.46927
2.466
2.46281
2.46284
2.47961
2.47781
2.51006
2.50939
2.50598
2.4982
2.4963
2.49979
2.41349
2.4221
2.41612
2.42017
2.41267
2.41497
2.41971
2.42292
2.42013
2.41918
2.43249
2.44049
2.43074
2.42651
2.42582
2.42757
2.44181
2.43787
2.43123
2.4304
2.43001
2.53531
2.52976
2.53009
2.5196
2.51108
2.50808
2.51916
2.51327
2.52685
2.51197
2.50568
2.51408
2.51187
2.50206
2.49942
2.50776
2.50617
2.51666
2.51721
2.53067
2.52854
2.52905
2.5232
2.40918
2.41039
2.39802
2.40946
2.40931
2.41105
2.40634
2.41062
2.41474
2.41108
2.40983
2.41286
2.41363
2.42274
2.41447
2.41475
2.41562
2.41671
2.47713
2.48008
2.49058
2.50354
2.51121
2.50466
2.49812
2.47384
2.4847
2.50221
2.46817
2.48945
2.49863
2.49989
2.48847
2.48284
2.48774
2.48739
2.48321
2.47965
2.47369
2.48832
2.48979
2.52982
2.52569
2.52264
2.52785
2.51389
2.51477
2.52802
2.51535
2.52043
2.53069
2.52645
2.53022
2.52826
2.52614
2.52312
2.53351
2.52846
2.52644
2.52858
2.52292
2.5213
2.52576
2.53448
2.53282
2.53083
2.53167
2.53613
2.52668
2.53584
2.53465
2.53959
2.53043
2.52969
2.53028
2.52859
2.52704
2.52655
2.41449
2.41981
2.41953
2.43103
2.43034
2.42768
2.44978
2.44167
2.4318
2.43459
2.44197
2.43756
2.44401
2.43363
2.43474
2.43363
2.43073
2.44636
2.46047
2.44704
2.44288
2.4431
2.44357
2.40752
2.40999
2.42751
2.42136
2.42381
2.3969
2.40289
2.39648
2.40547
2.39998
2.40206
2.40125
2.40732
2.40645
2.39938
2.40237
2.48474
2.49177
2.49101
2.50133
2.51381
2.51061
2.50548
2.52093
2.51979
2.50243
2.50375
2.4649
2.46719
2.48543
2.48637
2.47697
2.49314
2.49148
2.47537
2.48012
2.47134
2.47978
2.48801
2.47994
2.48526
2.4875
2.5204
2.51582
2.41719
2.42492
2.41935
2.46088
2.44938
2.45496
2.44991
2.46883
2.44465
2.4421
2.42962
2.43012
2.44114
2.44683
2.43608
2.42555
2.43515
2.43645
2.43741
2.43915
2.43453
2.43139
2.42471
2.42154
2.45799
2.45878
2.46848
2.47392
2.46632
2.46373
2.47563
2.47798
2.47184
2.45913
2.45779
2.4622
2.45962
2.45775
2.46653
2.46208
2.39188
2.39613
2.39708
2.39762
2.39461
2.40412
2.40116
2.3976
2.39748
2.40208
2.40384
2.39388
2.39544
2.4018
2.4006
2.39695
2.40608
2.40525
2.40634
2.39965
2.40253
2.51612
2.52107
2.51945
2.5202
2.522
2.52359
2.52146
2.52537
2.51818
2.529
2.51657
2.51872
2.52516
2.51941
2.52076
2.5224
2.51096
2.52001
2.52122
2.52406
2.51676
2.51747
2.52037
2.5162
2.52158
2.51239
2.45874
2.47237
2.48071
2.45918
2.45562
2.46766
2.45413
2.48243
2.47453
2.47458
2.47792
2.48078
2.47953
2.49718
2.48414
2.48443
2.48042
2.48561
2.48156
2.49026
2.49632
2.50485
2.50371
2.49859
2.49516
2.49729
2.41407
2.42527
2.41298
2.41048
2.42408
2.42348
2.40835
2.41491
2.40542
2.41468
2.41712
2.4158
2.41156
2.40582
2.40591
2.38538
2.39419
2.39317
2.39891
2.4012
2.40459
2.40307
2.41144
2.41075
2.40616
2.39953
2.39713
2.39894
2.39907
2.39627
2.45051
2.46138
2.45077
2.46055
2.41733
2.41604
2.42512
2.41946
2.41613
2.44754
2.43644
2.43644
2.43301
2.38678
2.38197
2.38769
2.38333
2.38289
2.38554
2.38069
2.38669
2.38591
2.3882
2.3896
2.39383
2.39094
2.39343
2.38728
2.38733
2.39312
2.39474
2.38758
2.38953
2.38633
2.3859
2.39751
2.39894
2.42489
2.43782
2.43798
2.43945
2.43544
2.43434
2.43718
2.43795
2.49316
2.49422
2.46737
2.48055
2.48199
2.48683
2.48092
2.48674
2.48776
2.48019
2.49638
2.50174
2.48882
2.49197
2.48532
2.48441
2.49461
2.48534
2.50765
2.51737
2.52137
2.51239
2.50726
2.50658
2.4966
2.49548
2.50027
2.49926
2.40268
2.41521
2.41697
2.40404
2.41621
2.42353
2.42195
2.43701
2.43586
2.43708
2.42646
2.42148
2.43818
2.43813
2.4481
2.44107
2.45814
2.45396
2.43943
2.44787
2.4445
2.44133
2.44206
2.39678
2.39889
2.39395
2.38733
2.39575
2.39501
2.39319
2.39065
2.38506
2.39007
2.39024
2.38916
2.38402
2.38653
2.40188
2.40823
2.40481
2.47763
2.47146
2.48688
2.4803
2.37733
2.38195
2.37022
2.3852
2.39236
2.39634
2.4
2.40263
2.39435
2.39983
2.40109
2.39808
2.39813
2.40018
2.3885
2.38999
2.38753
2.39171
2.38702
2.40578
2.39311
2.40045
2.40226
2.39594
2.40787
2.40602
2.40968
2.40794
2.41121
2.39707
2.40022
2.4016
2.40778
2.41206
2.40683
2.40271
2.39807
2.39767
2.39684
2.39022
2.39469
2.38877
2.39273
2.39144
2.41217
2.43198
2.41312
2.41278
2.40875
2.40475
2.40688
2.3995
2.36592
2.3671
2.37536
2.38533
2.37462
2.38183
2.38286
2.38189
2.38035
2.38333
2.38487
2.38621
2.38686
2.38343
2.3871
2.38752
2.38735
2.38758
2.37962
2.3804
2.37665
2.38232
2.38033
2.38093
2.38616
2.38461
2.46068
2.45776
2.45125
2.42203
2.42333
2.43007
2.4219
2.39651
2.40187
2.41119
2.41502
2.4122
2.40102
2.39048
2.41297
2.41967
2.50443
2.50355
2.51631
2.49892
2.49386
2.49835
2.51044
2.49011
2.50053
2.50013
2.49905
2.51688
2.51272
2.5065
2.49113
2.49094
2.495
2.49265
2.49866
2.49839
2.37376
2.37817
2.37748
2.37466
2.37728
2.3707
2.3695
2.3694
2.37472
2.37654
2.38229
2.38671
2.38978
2.38422
2.38176
2.38879
2.38574
2.38609
2.38134
2.37865
2.38415
2.3842
2.4121
2.43009
2.4317
2.41291
2.4104
2.43141
2.43924
2.45452
2.45752
2.45679
2.46866
2.4679
2.46006
2.47371
2.4819
2.48846
2.47356
2.45654
2.45947
2.46663
2.46008
2.44074
2.42611
2.43876
2.43818
2.43458
2.43779
2.44587
2.43872
2.46077
2.4475
2.44743
2.46502
2.465
2.52232
2.51653
2.50956
2.51463
2.51717
2.51371
2.51175
2.52001
2.5106
2.51364
2.51482
2.51422
2.51637
2.37439
2.37527
2.38199
2.39822
2.40289
2.4027
2.41083
2.41088
2.40435
2.4193
2.39538
2.40077
2.4047
2.39858
2.39937
2.39737
2.39932
2.4072
2.41265
2.40852
2.41057
2.48469
2.49289
2.47269
2.47872
2.48033
2.48758
2.49096
2.49696
2.49097
2.49368
2.48646
2.48765
2.49854
2.49672
2.48764
2.3576
2.36018
2.36338
2.3632
2.36083
2.48617
2.4917
2.46623
2.47835
2.48391
2.48755
2.49753
2.49281
2.49804
2.48634
2.50493
2.49885
2.49394
2.48965
2.50294
2.49446
2.51747
2.52112
2.51449
2.51984
2.51542
2.5095
2.51618
2.50616
2.44372
2.45947
2.46966
2.36081
2.37589
2.37735
2.38249
2.3841
2.36451
2.3638
2.36024
2.36494
2.36473
2.35722
2.35901
2.3635
2.36233
2.36332
2.35847
2.35933
2.36036
2.36359
2.43206
2.4461
2.4502
2.43366
2.41615
2.41628
2.45817
2.46194
2.45003
2.44102
2.43876
2.44981
2.44552
2.45269
2.44763
2.45552
2.45202
2.46273
2.4611
2.46756
2.42466
2.41922
2.42775
2.44042
2.44333
2.50698
2.5053
2.49483
2.49569
2.50758
2.50257
2.50285
2.50856
2.49987
2.50174
2.50139
2.50196
2.50532
2.50558
2.51536
2.51575
2.48354
2.49095
2.48514
2.47514
2.47772
2.47707
2.46338
2.4763
2.47832
2.47551
2.47888
2.47814
2.46287
2.46023
2.46591
2.46341
2.47889
2.48311
2.46704
2.467
2.35105
2.34598
2.34981
2.35664
2.35095
2.3633
2.3543
2.36222
2.36071
2.35459
2.40701
2.41314
2.40048
2.39373
2.37782
2.39401
2.39522
2.41242
2.42325
2.40141
2.40587
2.40488
2.40394
2.39945
2.41335
2.38945
2.39527
2.37098
2.37362
2.36531
2.36184
2.37662
2.49677
2.46419
2.45859
2.44285
2.45094
2.47376
2.46164
2.34186
2.343
2.3437
2.34748
2.34956
2.43687
2.44371
2.44729
2.44372
2.4378
2.44452
2.47187
2.47675
2.45342
2.4605
2.50568
2.505
2.49755
2.50264
2.49198
2.48898
2.36131
2.37566
2.37771
2.3806
2.38604
2.39173
2.38895
2.40326
2.38933
2.38569
2.38292
2.33942
2.34592
2.34183
2.34428
2.3456
2.34002
2.34169
2.34858
2.34429
2.34764
2.34959
2.35476
2.35118
2.34799
2.346
2.35276
2.34847
2.36074
2.35396
2.36562
2.34211
2.35558
2.34998
2.33029
2.33368
2.32799
2.33121
2.3392
2.33348
2.33354
2.33787
2.33544
2.33136
2.33498
2.34068
2.33833
2.33802
2.34598
2.34327
2.34283
2.35213
2.3441
2.34731
2.34946
2.35008
2.34729
2.35037
2.35569
2.35377
2.34976
2.34693
2.34702
2.34408
2.35134
2.35465
2.35629
2.34633
2.34509
2.34919
2.34373
2.33994
2.34951
2.36196
2.35727
2.35665
2.36067
2.35577
2.36307
2.37503
2.3845
2.37758
2.38418
2.37818
2.37594
2.38695
2.39145
2.38628
2.33196
2.32639
2.33511
2.33583
2.34489
2.34019
2.32725
2.32901
2.32813
2.33415
2.33692
2.33141
2.33421
2.35212
2.35763
2.3549
2.31371
2.32169
2.3178
2.31759
2.31294
2.32758
2.32691
2.32985
2.33429
2.32799
2.33194
2.33162
2.33009
2.33516
2.33215
2.33748
2.33275
2.32632
2.32951
2.3382
2.33966
2.3355
2.33485
2.33434
2.33421
2.33494
2.33583
2.32984
2.31731
2.31161
2.31609
2.31749
2.37316
2.36016
2.37099
2.37572
2.36775
2.3586
2.32865
2.32956
2.32298
2.33135
2.32631
2.32684
2.32893
2.33307
2.32333
2.32403
2.32815
2.33077
2.34461
2.35705
2.35952
2.35562
2.35157
2.35043
2.35491
2.35632
2.33442
2.3361
2.34
2.34435
2.34242
2.34436
2.34484
2.34416
2.34702
2.33438
2.32995
2.32735
2.3324
2.33086
2.33486
2.33368
2.33206
2.33387
2.32962
2.32547
2.32342
2.34265
2.36193
2.36807
2.34738
2.35095
2.36192
2.35239
2.35609
2.35049
2.36303
2.35712
2.35534
2.36061
2.35656
2.35035
2.35469
2.36041
2.35917
2.35381
2.35119
2.34588
2.34802
2.35053
2.347
2.3456
2.34275
2.3466
2.34507
2.43071
2.44069
2.4305
2.4191
2.40424
2.41932
2.41069
2.37597
2.37686
2.50744
2.49729
2.50693
2.50298
2.49694
2.50974
2.51232
2.4894
2.35846
2.36176
2.36296
2.37181
2.34508
2.36645
2.35267
2.33928
2.34039
2.35737
2.36827
2.36857
2.35796
2.35616
2.35716
2.35975
2.38183
2.38338
2.36985
2.36744
2.4774
2.48204
2.47735
2.51225
2.5042
2.5029
2.50928
2.49812
2.51262
2.51009
2.50783
2.50895
2.51423
2.50702
2.50944
2.51392
2.50613
2.50489
2.51039
2.51788
2.51394
2.51262
2.51671
2.51286
2.42767
2.42367
2.4259
2.41235
2.41032
2.4101
2.43855
2.43866
2.4385
2.43226
2.43603
2.40682
2.41485
2.41256
2.40924
2.41097
2.41231
2.39111
2.39053
2.39208
2.39347
2.39237
2.35605
2.35183
2.35022
2.34822
2.35719
2.35911
2.35675
2.35073
2.35053
2.37142
2.36585
2.365
2.36103
2.36158
2.3576
2.35491
2.37174
2.37059
2.36912
2.36133
2.38153
2.36649
2.37958
2.37565
2.3693
2.36502
2.37336
2.38391
2.38591
2.37669
2.35067
2.35244
2.35407
2.35786
2.35865
2.3603
2.35795
2.36032
2.35235
2.34887
2.35565
2.35324
2.35654
2.36476
2.36745
2.36753
2.36556
2.36424
2.48989
2.47842
2.48039
2.4965
2.48632
2.48791
2.4843
2.48824
2.49132
2.49122
2.48765
2.50629
2.50928
2.49709
2.48909
2.49718
2.48876
2.48328
2.48802
2.48394
2.49353
2.49523
2.50322
2.50136
2.37007
2.37054
2.36973
2.36772
2.373
2.36481
2.37112
2.37169
2.36698
2.36498
2.37557
2.36771
2.36513
2.37192
2.37101
2.35473
2.36029
2.37245
2.36747
2.36328
2.36385
2.36124
2.36799
2.3646
2.36896
2.36943
2.36537
2.51396
2.51164
2.51665
2.50353
2.50585
2.50026
2.4965
2.50324
2.49734
2.51101
2.51261
2.50276
2.5003
2.49959
2.50517
2.50293
2.50038
2.50028
2.4983
2.50856
2.50233
2.51359
2.51417
2.51715
2.51655
2.5246
2.51676
2.52256
2.52662
2.51535
2.52338
2.51843
2.51234
2.51432
2.4662
2.46879
2.45485
2.45221
2.47987
2.45446
2.46529
2.46352
2.43609
2.43694
2.44365
2.43892
2.44093
2.44795
2.43513
2.43478
2.44958
2.45282
2.45418
2.43209
2.43733
2.45778
2.45429
2.44192
2.43479
2.44069
2.45535
2.48596
2.47306
2.47504
2.46017
2.49016
2.48888
2.38102
2.368
2.37742
2.37984
2.38
2.37228
2.37069
2.37389
2.377
2.3798
2.37788
2.38766
2.39063
2.39466
2.39782
2.38625
2.40554
2.40596
2.40028
2.40007
2.39768
2.39635
2.38907
2.3794
2.37872
2.38508
2.38421
2.38332
2.38821
2.38674
2.39878
2.3949
2.39826
2.39685
2.38687
2.39541
2.37723
2.39069
2.39852
2.39749
2.39687
2.40099
2.40585
2.39983
2.40127
2.40256
2.40086
2.41061
2.40799
2.38476
2.3779
2.378
2.38376
2.38221
2.37529
2.38167
2.38067
2.38234
2.37851
2.37959
2.37962
2.38253
2.4614
2.4506
2.44392
2.44291
2.45264
2.44113
2.43891
2.44449
2.43937
2.46317
2.47535
2.47752
2.48105
2.48294
2.46983
2.46638
2.47368
2.46871
2.47853
2.47302
2.38739
2.39121
2.39357
2.39041
2.39441
2.39462
2.3899
2.3916
2.37369
2.37675
2.38154
2.38053
2.38257
2.37645
2.37888
2.38
2.37923
2.38212
2.38223
2.37808
2.38163
2.38048
2.45353
2.46153
2.46192
2.45209
2.4507
2.45656
2.46603
2.44906
2.44385
2.45528
2.45679
2.46701
2.46562
2.47156
2.45522
2.44979
2.47206
2.46898
2.47274
2.48126
2.4811
2.47405
2.47482
2.47177
2.49752
2.50946
2.49706
2.50837
2.51438
2.50827
2.50857
2.49812
2.49968
2.51071
2.51218
2.51559
2.51135
2.50398
2.502
2.51775
2.51168
2.49412
2.50227
2.4997
2.50557
2.49071
2.49605
2.50113
2.50483
2.50528
2.40679
2.40538
2.41444
2.40671
2.40809
2.40437
2.41083
2.47173
2.4798
2.4877
2.46948
2.46267
2.46864
2.45882
2.45988
2.45455
2.45721
2.45399
2.44135
2.41348
2.40834
2.41665
2.42173
2.42215
2.4136
2.4139
2.41622
2.41905
2.41672
2.40807
2.41392
2.41781
2.40884
2.41876
2.41337
2.40789
2.4108
2.50496
2.51572
2.51157
2.51792
2.49422
2.49704
2.51762
2.51211
2.50413
2.50182
2.50042
2.50529
2.50281
2.50615
2.514
2.51349
2.47748
2.47939
2.48709
2.48391
2.48436
2.4801
2.48554
2.49539
2.49208
2.49279
2.49828
2.45802
2.46311
2.45833
2.46442
2.46386
2.47647
2.47626
2.46384
2.46435
2.47533
2.47131
2.46552
2.47959
2.48396
2.51381
2.52716
2.52347
2.51725
2.53285
2.52165
2.52862
2.51746
2.52226
2.52021
2.45262
2.46242
2.45821
2.45713
2.4624
2.44863
2.44614
2.44966
2.44481
2.44223
2.44907
2.45373
2.45346
2.4645
2.46451
2.46534
2.46964
2.46071
2.45314
2.46547
2.46812
2.43287
2.43154
2.43289
2.4342
2.4326
2.43188
2.4392
2.43334
2.42239
2.42435
2.4285
2.539
2.53745
2.53864
2.54185
2.53457
2.53514
2.53456
2.5282
2.53314
2.53298
2.5327
2.52513
2.5308
2.52205
2.53672
2.53059
2.52797
2.52362
2.52497
2.52436
2.53602
2.52787
2.52778
2.52418
2.53055
2.52427
2.40252
2.39951
2.40537
2.40573
2.40943
2.40556
2.40963
2.408
2.4032
2.40266
2.40649
2.41275
2.40486
2.40399
2.40934
2.39996
2.40434
2.40213
2.4053
2.40003
2.4014
2.40681
2.40521
2.40728
2.40738
2.40649
2.40278
2.51617
2.51891
2.50944
2.52176
2.52141
2.52296
2.51496
2.50821
2.53085
2.52295
2.5197
2.52585
2.52742
2.52028
2.51837
2.52559
2.52979
2.53603
2.53796
2.54169
2.53629
2.53789
2.53281
2.53049
2.53347
2.44087
2.44108
2.44059
2.43798
2.42887
2.43138
2.43336
2.43225
2.43176
2.43187
2.43602
2.43265
2.43563
2.43249
2.42849
2.43751
2.42725
2.41749
2.41588
2.42686
2.41697
2.42371
2.4264
2.41482
2.40918
2.41235
2.41589
2.49101
2.50068
2.50586
2.50314
2.49946
2.49492
2.50255
2.51567
2.50764
2.50644
2.51342
2.50512
2.50318
2.50199
2.51822
2.51248
2.52341
2.52465
2.51579
2.50778
2.50631
2.51354
2.50475
2.5164
2.51622
2.52072
2.43538
2.44345
2.44034
2.43576
2.44361
2.44688
2.45309
2.45632
2.44745
2.48013
2.47595
2.4856
2.48893
2.45369
2.46123
2.46509
2.46038
2.46285
2.43482
2.42809
2.42998
2.4318
2.42543
2.43636
2.4386
2.42643
2.42768
2.42353
2.42798
2.48972
2.48983
2.47304
2.47577
2.47826
2.47426
2.49925
2.52251
2.52151
2.52825
2.52849
2.51184
2.51077
2.51627
2.51585
2.51124
2.50277
2.49448
2.51192
2.50825
2.51018
2.51603
2.51734
2.53903
2.5444
2.54028
2.53026
2.52961
2.52685
2.52789
2.52233
2.52838
2.52846
2.48913
2.49029
2.49512
2.49838
2.48647
2.48399
2.4893
2.50208
2.48879
2.48583
2.45376
2.454
2.45549
2.46909
2.46416
2.46208
2.45814
2.46462
2.46359
2.46845
2.50821
2.51677
2.51262
2.51568
2.50996
2.51249
2.51479
2.51464
2.51171
2.51555
2.51318
2.37347
2.37089
2.3842
2.38148
2.38339
2.38894
2.39891
2.4036
2.39584
2.39792
2.39144
2.39733
2.38487
2.3837
2.38939
2.39068
2.51498
2.50402
2.51807
2.51582
2.48382
2.48454
2.48279
2.49109
2.48935
2.49032
2.48785
2.49494
2.49522
2.48183
2.48376
2.48122
2.47436
2.47692
2.463
2.46217
2.45009
2.45634
2.45257
2.45645
2.448
2.44524
2.44136
2.45694
2.46148
2.4496
2.44468
2.42722
2.42535
2.42633
2.41595
2.41276
2.4199
2.41247
2.41388
2.41715
2.42102
2.41723
2.41973
2.44666
2.44017
2.44788
2.43754
2.44232
2.51319
2.51393
2.5248
2.51764
2.52949
2.52834
2.51773
2.52216
2.51934
2.52355
2.51678
2.4675
2.4637
2.4552
2.41666
2.41598
2.42135
2.42338
2.42061
2.41911
2.42566
2.42412
2.42224
2.42108
2.41953
2.41391
2.42135
2.40836
2.4131
2.41409
2.41543
2.41467
2.41239
2.41328
2.41775
2.41999
2.41452
2.42233
2.41364
2.41444
2.50861
2.49957
2.50396
2.51116
2.52564
2.50415
2.51829
2.51079
2.50759
2.51375
2.52412
2.51954
2.43186
2.41191
2.40891
2.41691
2.41281
2.43376
2.42527
2.42303
2.43098
2.42954
2.4342
2.39287
2.39097
2.39596
2.39363
2.39579
2.39687
2.39501
2.39811
2.39942
2.40068
2.4006
2.39887
2.40068
2.44558
2.43864
2.43464
2.44226
2.4484
2.44374
2.44505
2.44304
2.4403
2.45235
2.44951
2.45362
2.43484
2.4429
2.44637
2.44943
2.4396
2.44494
2.44299
2.45013
2.44585
2.44243
2.43518
2.42851
2.38952
2.38795
2.38671
2.38379
2.38894
2.39439
2.39469
2.39185
2.3935
2.39203
2.39278
2.51518
2.52642
2.51877
2.52496
2.52255
2.5206
2.52221
2.5231
2.52127
2.5304
2.52641
2.41494
2.41196
2.40484
2.4108
2.41666
2.40833
2.4104
2.3991
2.40622
2.40469
2.41858
2.41718
2.40695
2.40514
2.40521
2.40194
2.41243
2.41093
2.42183
2.41948
2.41236
2.41548
2.40833
2.40596
2.41442
2.41307
2.42239
2.41849
2.39053
2.38812
2.39195
2.51219
2.50504
2.4324
2.43611
2.44446
2.44209
2.44158
2.43392
2.43402
2.43185
2.42799
2.42358
2.42689
2.43259
2.42495
2.40712
2.40157
2.40149
2.40225
2.39457
2.39783
2.3938
2.39934
2.40314
2.40074
2.39471
2.39553
2.39658
2.39946
2.3839
2.386
2.38829
2.38621
2.3873
2.38499
2.38918
2.3946
2.39122
2.3963
2.39332
2.3839
2.44008
2.42518
2.4344
2.44698
2.43958
2.4429
2.44975
2.44063
2.43758
2.43652
2.40114
2.40076
2.40326
2.39771
2.41328
2.42198
2.40492
2.41086
2.41782
2.41256
2.4192
2.425
2.48268
2.47888
2.49294
2.50394
2.49289
2.4971
2.49401
2.47779
2.47487
2.47951
2.36984
2.36722
2.368
2.36846
2.37504
2.37203
2.37333
2.37315
2.37582
2.38391
2.39528
2.39139
2.37782
2.38246
2.3898
2.38954
2.39205
2.38639
2.38722
2.44619
2.43813
2.4448
2.44714
2.44726
2.4364
2.43298
2.43716
2.4485
2.45241
2.42905
2.43146
2.49372
2.48444
2.50365
2.51525
2.38129
2.38763
2.39236
2.39106
2.38802
2.39117
2.39656
2.3941
2.39585
2.39127
2.40838
2.4075
2.40071
2.39692
2.39826
2.40256
2.40189
2.39597
2.47799
2.48415
2.46497
2.46556
2.47119
2.47882
2.48779
2.47162
2.46238
2.48101
2.488
2.47302
2.45089
2.45826
2.46483
2.48153
2.4795
2.48188
2.46086
2.46879
2.47687
2.48505
2.47369
2.46487
2.35651
2.35561
2.44164
2.42966
2.42692
2.43521
2.42166
2.43121
2.45292
2.44297
2.44906
2.45052
2.45766
2.43304
2.43847
2.43064
2.4315
2.4958
2.49244
2.48537
2.4906
2.48915
2.48165
2.48601
2.45773
2.45591
2.45701
2.4512
2.43903
2.44635
2.4417
2.44354
2.45078
2.42665
2.43051
2.40812
2.42866
2.36191
2.38092
2.37176
2.36732
2.36624
2.38523
2.38189
2.38498
2.37799
2.371
2.38451
2.39124
2.39329
2.38586
2.38277
2.38083
2.38014
2.38101
2.37081
2.37345
2.49988
2.50087
2.50309
2.50618
2.50537
2.50226
2.49239
2.48956
2.49268
2.50292
2.49651
2.49042
2.49528
2.45715
2.44465
2.44566
2.42783
2.42275
2.42406
2.42271
2.40845
2.41328
2.43471
2.43809
2.44212
2.43041
2.43468
2.42031
2.45279
2.44683
2.45447
2.45079
2.46277
2.45418
2.46224
2.45603
2.33861
2.33006
2.3528
2.349
2.35104
2.37478
2.36757
2.36444
2.35419
2.36507
2.35942
2.35302
2.35509
2.36667
2.37128
2.35175
2.35879
2.36882
2.36511
2.375
2.37822
2.31943
2.3237
2.32483
2.32382
2.32037
2.32485
2.31335
2.32345
2.31861
2.3227
2.31637
2.32807
2.33128
2.33184
2.33223
2.33742
2.33933
2.33686
2.33234
2.33861
2.34044
2.34058
2.33666
2.33314
2.33255
2.33578
2.44934
2.47378
2.46168
2.33636
2.33233
2.32999
2.33817
2.33505
2.33385
2.32913
2.33479
2.33546
2.33378
2.3339
2.34675
2.34145
2.33652
2.33767
2.33979
2.33861
2.34763
2.34618
2.34219
2.33793
2.34079
2.33829
2.34356
2.34277
2.34882
2.35099
2.35625
2.34332
2.34657
2.34531
2.34426
2.34466
2.3445
2.33577
2.33832
2.34361
2.34401
2.32988
2.33425
2.38426
2.39626
2.40728
2.39301
2.4326
2.41933
2.40323
2.41591
2.40601
2.40843
2.38899
2.39221
2.40093
2.39529
2.4927
2.49347
2.49149
2.37547
2.37909
2.37908
2.37329
2.3792
2.37073
2.36578
2.3625
2.35677
2.35054
2.34194
2.35289
2.35022
2.3545
2.34888
2.49263
2.50767
2.50569
2.49585
2.50102
2.5033
2.49434
2.49382
2.49922
2.49817
2.49206
2.50721
2.51502
2.42345
2.41364
2.42398
2.4186
2.39153
2.40224
2.41092
2.39274
2.39599
2.40917
2.40897
2.40792
2.40286
2.39678
2.38558
2.39153
2.36609
2.36488
2.3637
2.36374
2.36483
2.35995
2.35963
2.36189
2.36185
2.35532
2.35849
2.36113
2.36242
2.45586
2.47509
2.473
2.48315
2.46677
2.455
2.48257
2.47933
2.48597
2.48596
2.49028
2.37878
2.38575
2.38277
2.39064
2.3921
2.3766
2.38063
2.37793
2.39332
2.38352
2.38432
2.37964
2.37139
2.36687
2.50115
2.49994
2.49996
2.51488
2.51439
2.50341
2.50544
2.51031
2.50841
2.51924
2.51914
2.51706
2.50452
2.51192
2.5116
2.51589
2.51362
2.51482
2.51754
2.52815
2.52276
2.52116
2.51809
2.51218
2.48791
2.46952
2.46377
2.46923
2.46807
2.48356
2.48393
2.47573
2.47248
2.3787
2.37481
2.37933
2.37473
2.37728
2.377
2.38142
2.38633
2.37438
2.38251
2.38663
2.36801
2.37308
2.45918
2.43892
2.44322
2.44967
2.45183
2.51183
2.50272
2.49999
2.5047
2.49867
2.50923
2.50716
2.50312
2.51173
2.51034
2.40951
2.41243
2.41514
2.41931
2.40575
2.41778