/*--------------------------------*- C++ -*----------------------------------*\
| =========                 |                                                 |
| \\      /  F ield         | OpenFOAM: The Open Source CFD Toolbox           |
|  \\    /   O peration     | Version:  v1612+                                |
|   \\  /    A nd           | Web:      www.OpenFOAM.com                      |
|    \\/     M anipulation  |                                                 |
\*---------------------------------------------------------------------------*/
FoamFile
{
    version     2.0;
    format      ascii;
    class       volVectorField;
    location    "50";
    object      wallShearStress;
}
// * * * * * * * * * * * * * * * * * * * * * * * * * * * * * * * * * * * * * //

dimensions      [0 2 -2 0 0 0 0];

internalField   uniform (0 0 0);

boundaryField
{
    WALL
    {
        type            calculated;
        value           nonuniform List<vector> 
1491
(
(0.0155208 -0.00641826 0.000877146)
(0.00948229 -0.00367008 0.00853281)
(0.0100792 -0.00422422 0.00918888)
(0.0113621 -0.00517682 0.00229044)
(0.0116354 -0.00432906 0.00209121)
(0.0117387 -0.00978689 0.00246488)
(0.011881 -0.0104643 0.00199774)
(0.0138254 -0.00838273 0.00505312)
(0.0144584 -0.00794179 0.00370634)
(0.0129724 -0.012904 -0.00119344)
(0.0135372 -0.010899 -0.00165078)
(0.00914312 -0.0157498 0.00113339)
(0.0104439 -0.0145299 -0.000370998)
(0.0130841 -0.00941672 -0.00120528)
(0.0126217 -0.00727849 0.000111744)
(0.0081007 -0.00266234 0.00935665)
(0.00850817 -0.00235917 0.0092165)
(0.00937849 -0.00964342 0.00841634)
(0.00886047 -0.00854767 0.00936097)
(0.00878516 -0.00876478 0.00782013)
(0.0081198 -0.00797867 0.00884368)
(0.0089844 -0.00106472 0.00533538)
(0.00960788 -0.000918078 0.00426578)
(0.0111563 -0.00323026 0.00225547)
(0.012095 -0.0122801 0.00129374)
(0.0113778 -0.0128251 0.00263275)
(0.0089292 -0.00346424 0.00788639)
(0.0091917 -0.00440841 0.00825246)
(0.0128574 -0.00710879 0.000187377)
(0.0118588 -0.00816301 0.000544146)
(0.00944068 -0.00813692 0.00991248)
(0.0102538 -0.00931828 0.0103931)
(0.011065 -0.00682211 0.0104671)
(0.0108857 -0.00783959 0.011077)
(0.0118304 -0.013115 0.000581405)
(0.0122919 -0.0128178 0.00132078)
(0.0156347 -0.00651941 0.00277056)
(0.0150867 -0.00603998 0.00236428)
(0.0130121 -0.0113515 -0.000975062)
(0.0134935 -0.0111183 -0.000614199)
(0.0154366 -0.00396711 0.00762388)
(0.015011 -0.00368138 0.00659573)
(0.012047 -0.00556894 0.000769772)
(0.0121876 -0.00677077 0.000919593)
(0.0140019 -0.0101151 0.00127788)
(0.0131132 -0.0105585 0.00257489)
(0.0150209 -0.0059028 0.003653)
(0.013972 -0.00724764 0.00405811)
(0.00856836 -0.00691894 0.00704337)
(0.00737593 -0.00664457 0.00795272)
(0.0087878 -0.00608538 0.00729193)
(0.00762116 -0.00597554 0.00796889)
(0.00880509 -0.00719971 0.00793034)
(0.00826059 -0.00570515 0.00768351)
(0.0104067 -0.00410773 0.00988265)
(0.0106003 -0.00515524 0.00984458)
(0.0103341 -0.00514444 0.0100163)
(0.00988182 -0.00629244 0.0105792)
(0.0102616 -0.00390797 0.0096888)
(0.0099707 -0.00378465 0.00924211)
(0.0106524 -0.00532641 0.00849934)
(0.00958766 -0.00379543 0.00829742)
(0.00971809 -0.00444851 0.00888083)
(0.0103483 -0.00476771 0.00899925)
(0.0100138 -0.00445033 0.00847873)
(0.010957 -0.00574615 0.00916111)
(0.0110746 -0.00593503 0.00361192)
(0.011579 -0.00536696 0.00350245)
(0.0115077 -0.00594007 0.00371408)
(0.0115805 -0.00508644 0.00300013)
(0.0112824 -0.00538483 0.00269366)
(0.011577 -0.00578017 0.00336145)
(0.00926889 -0.00245591 0.00824266)
(0.00962525 -0.00215965 0.00809665)
(0.00869067 -0.0016895 0.00721163)
(0.00977237 -0.00453799 0.00894605)
(0.00943553 -0.00278259 0.00808591)
(0.00912868 -0.00166368 0.00746649)
(0.0089351 -0.00353929 0.00850054)
(0.00939062 -0.00332002 0.00893879)
(0.0128161 -0.011264 0.000983567)
(0.0137865 -0.0109636 0.000776435)
(0.0124561 -0.0115012 0.00317266)
(0.012943 -0.0105909 0.000206796)
(0.0119002 -0.0115703 0.00187557)
(0.0130402 -0.00980639 0.00617022)
(0.0124289 -0.0098114 0.00637728)
(0.0114658 -0.0100436 0.00670387)
(0.0117502 -0.00946638 0.00654225)
(0.0117472 -0.00983088 0.00516364)
(0.00995189 -0.00266485 0.00447357)
(0.00962502 -0.00277198 0.00431742)
(0.00912174 -0.0024 0.00463641)
(0.00926047 -0.00265994 0.00498578)
(0.0092405 -0.00298076 0.00500356)
(0.00900912 -0.00292528 0.00526936)
(0.00994789 -0.00807301 0.00526136)
(0.00943859 -0.00926169 0.0057418)
(0.00979168 -0.00873599 0.00455831)
(0.00925233 -0.00822314 0.00400062)
(0.00890616 -0.00892033 0.00494917)
(0.0125846 -0.00552794 0.000446301)
(0.0123827 -0.00569637 0.00039892)
(0.0120797 -0.00566688 0.000589159)
(0.00924337 -0.0117321 0.00913932)
(0.00887156 -0.00941907 0.00953767)
(0.00942105 -0.0104383 0.00877414)
(0.00851792 -0.00935661 0.00967031)
(0.00988735 -0.010954 0.00982652)
(0.00876409 -0.00913274 0.00977313)
(0.0170079 -0.00426812 0.00335766)
(0.0154252 -0.00373826 0.00598699)
(0.0144603 -0.00360313 0.00476706)
(0.0148411 -0.0037925 0.00390997)
(0.0166163 -0.00426218 0.00410226)
(0.00897807 -0.0148481 0.00627701)
(0.0104012 -0.0149024 0.00564936)
(0.00984877 -0.0151626 0.00781086)
(0.00911474 -0.0147127 0.00519839)
(0.0104057 -0.0147078 0.00692232)
(0.00936792 -0.0143978 0.00775129)
(0.0130133 -0.00688028 0.000581492)
(0.0125924 -0.00564327 0.00116173)
(0.0126256 -0.00581603 0.000856082)
(0.0125879 -0.00648415 0.000788382)
(0.0121723 -0.00537245 0.000890327)
(0.0148007 -0.00395426 0.00244976)
(0.0151699 -0.00401358 0.0026992)
(0.0147968 -0.0057066 0.0026889)
(0.0152704 -0.00499899 0.00279471)
(0.0152643 -0.00471743 0.00276683)
(0.0157354 -0.00301158 0.00305347)
(0.0157696 -0.00153345 0.00402628)
(0.0156964 -0.00270237 0.00323944)
(0.0153621 -0.0018341 0.00367313)
(0.0152509 -0.00215117 0.00381869)
(0.0147016 -0.00140615 0.00437746)
(0.0124444 -0.00087518 0.00847553)
(0.0126737 -0.00126445 0.00939651)
(0.0126008 -0.00157935 0.00977473)
(0.0132773 -0.000769348 0.00763915)
(0.0126762 -0.00125894 0.0085482)
(0.013676 -0.000551331 0.00776035)
(0.0100016 -0.00125854 0.00936146)
(0.0106983 -0.000851813 0.00859168)
(0.00971815 -0.00204422 0.00947909)
(0.0111314 -0.000879653 0.00887074)
(0.00954129 -0.00234215 0.00972312)
(0.01093 -0.00184288 0.00988497)
(0.0130457 -0.00801154 -0.00023984)
(0.0128098 -0.0121973 -0.000680846)
(0.0136021 -0.00915162 -0.000356407)
(0.0133341 -0.0105187 -0.000500316)
(0.012893 -0.00861834 -8.58995e-05)
(0.0133266 -0.0102918 -0.000345211)
(0.0114914 -0.0126366 0.00131334)
(0.0122358 -0.0116088 0.00105059)
(0.0120453 -0.0113858 -7.24714e-05)
(0.0123891 -0.0123712 9.11349e-05)
(0.0113859 -0.0133439 0.00137029)
(0.00986573 -0.0148674 0.00261324)
(0.0104321 -0.0145906 0.00362526)
(0.0111138 -0.015237 0.00210502)
(0.0106341 -0.0141604 0.00160334)
(0.0113816 -0.0137589 0.00309808)
(0.00971169 -0.0146536 0.00350701)
(0.0107306 -0.0167664 0.00491108)
(0.00897429 -0.0164239 0.00721593)
(0.00970479 -0.0175659 0.00513448)
(0.0100576 -0.0168796 0.00532291)
(0.00971725 -0.0170398 0.00643546)
(0.00962182 -0.0158466 0.00736068)
(0.00924442 -0.0165076 0.00629776)
(0.00969234 -0.00870412 0.010559)
(0.0112477 -0.00714173 0.0102099)
(0.0116143 -0.00614576 0.0100424)
(0.0117665 -0.00594759 0.00969727)
(0.0106234 -0.00794613 0.0105366)
(0.0107352 -0.00811826 0.0109339)
(0.00977909 -0.0102534 0.0106266)
(0.010408 -0.00812382 0.010454)
(0.00968629 -0.00972371 0.0103218)
(0.00924497 -0.0111714 0.0108563)
(0.0107445 -0.00845992 0.0113801)
(0.00906954 -0.00872526 0.0102263)
(0.0105728 -0.00727666 0.0106528)
(0.00931053 -0.00912765 0.0108701)
(0.0100391 -0.00862743 0.0108772)
(0.012511 -0.00196829 0.00729603)
(0.0126045 -0.00139126 0.0062739)
(0.012939 -0.00201972 0.00577979)
(0.0132897 -0.00175649 0.00569856)
(0.0120661 -0.00214567 0.00708267)
(0.0135781 -0.00148683 0.00497551)
(0.0159487 -0.00313086 0.00454329)
(0.0144652 -0.00287613 0.00644743)
(0.0154209 -0.00304453 0.00528601)
(0.0148584 -0.00336623 0.00525864)
(0.0143204 -0.0033444 0.00747225)
(0.0106414 -0.00487514 0.0101139)
(0.0115584 -0.00330624 0.00897297)
(0.0116431 -0.00373415 0.00960089)
(0.0103153 -0.00497718 0.0101574)
(0.0106753 -0.00451361 0.00980066)
(0.0102777 -0.00369565 0.00922191)
(0.0118231 -0.0139528 -0.000210617)
(0.0111255 -0.0141094 -0.000198998)
(0.00989295 -0.0149192 0.000731438)
(0.00994254 -0.0146219 0.00032419)
(0.0116336 -0.0135494 -0.000764584)
(0.0108573 -0.0146847 0.000405572)
(0.0105008 -0.0127214 0.00273703)
(0.00944464 -0.0138103 0.00358925)
(0.00877221 -0.0122522 0.00331905)
(0.00962571 -0.0130952 0.00272475)
(0.00925927 -0.0134727 0.00136402)
(0.00814807 -0.0142774 0.00235234)
(0.00766582 -0.0145451 0.00374165)
(0.00896542 -0.0138267 0.00370094)
(0.0072198 -0.0135998 0.00401829)
(0.00858558 -0.0154191 0.00193554)
(0.00833427 -0.01531 0.00273339)
(0.0168187 -0.00541652 0.00120864)
(0.0160566 -0.00641019 9.54122e-05)
(0.0163691 -0.00493875 0.000745484)
(0.016276 -0.00606424 0.000401324)
(0.0160675 -0.00459029 0.00140582)
(0.0158193 -0.00550868 0.00031375)
(0.0155308 -0.00994615 -0.0010591)
(0.0154746 -0.0082827 -0.00149588)
(0.0152342 -0.0082746 -0.000938385)
(0.0148589 -0.00858603 -0.000926)
(0.0140875 -0.0100676 -0.00145097)
(0.0151869 -0.0077418 -0.00127286)
(0.0151353 -0.0084778 -0.00146435)
(0.0147985 -0.00541934 -0.00074042)
(0.0155362 -0.0065353 -0.000215838)
(0.0158074 -0.00666053 2.82374e-05)
(0.0162866 -0.00830837 -0.00103547)
(0.0153324 -0.00580298 -0.000524781)
(0.0100101 -0.011052 0.011039)
(0.00891257 -0.0112739 0.0100128)
(0.00813261 -0.0119283 0.00994115)
(0.0098673 -0.0100477 0.010832)
(0.010138 -0.0101559 0.0106591)
(0.00834456 -0.0137412 0.00978162)
(0.00898178 -0.0142435 0.0094293)
(0.00909539 -0.0125058 0.0104745)
(0.00913073 -0.015127 0.00960141)
(0.00920279 -0.0121996 0.0104734)
(0.0101473 -0.0131491 0.0106115)
(0.00923393 -0.0063496 0.0100731)
(0.00884437 -0.00652818 0.00969612)
(0.00905135 -0.00663015 0.00998068)
(0.00944154 -0.0089507 0.0103323)
(0.00974742 -0.00784898 0.00971089)
(0.00985822 -0.00805081 0.0105282)
(0.00937745 -0.0122916 0.00858452)
(0.00906193 -0.0123167 0.00928291)
(0.00873689 -0.0133655 0.00706981)
(0.00894458 -0.0126309 0.00719971)
(0.00944665 -0.012663 0.00799775)
(0.00841223 -0.0117057 0.00865877)
(0.011735 -0.00411391 0.00130975)
(0.0114853 -0.00249744 0.00188839)
(0.011474 -0.00293138 0.00169583)
(0.0116464 -0.00363176 0.0014765)
(0.0114682 -0.00292808 0.00171967)
(0.0116565 -0.00371017 0.0012806)
(0.0113869 -0.00278009 0.00160332)
(0.0111644 -0.00295542 0.00133055)
(0.0114767 -0.0035991 0.000892591)
(0.0120094 -0.00400871 0.00111547)
(0.0117134 -0.00299793 0.00142319)
(0.0125025 -0.00370865 0.00162695)
(0.0116869 -0.00587643 0.00199675)
(0.0117205 -0.00611968 0.00142222)
(0.0116632 -0.00668226 0.00180893)
(0.0116315 -0.00524277 0.0013954)
(0.0120992 -0.00511765 0.00153469)
(0.0116809 -0.00549264 0.00146378)
(0.0114343 -0.00312802 0.00166033)
(0.0118609 -0.00373267 0.00186513)
(0.0112689 -0.00474494 0.00172784)
(0.0113747 -0.00274288 0.00195013)
(0.0113775 -0.003184 0.00219562)
(0.0111907 -0.00416293 0.00166561)
(0.0115308 -0.00399448 0.00187822)
(0.0117336 -0.0048783 0.00235658)
(0.0104818 -0.0109797 0.00609256)
(0.0101053 -0.011916 0.00488679)
(0.00944774 -0.0117258 0.00523803)
(0.00904522 -0.0117017 0.0059521)
(0.00966977 -0.0112247 0.00452769)
(0.00918883 -0.0111458 0.00617485)
(0.00891408 -0.00809276 0.00771755)
(0.00896009 -0.00933173 0.00756138)
(0.00941048 -0.00947532 0.0072191)
(0.00931647 -0.0086439 0.00868271)
(0.0091096 -0.00910979 0.00868263)
(0.00915352 -0.00927901 0.00712117)
(0.00912542 -0.0076084 0.00663142)
(0.00872125 -0.00778126 0.0070998)
(0.00934169 -0.00811306 0.0055601)
(0.00973812 -0.0083471 0.00660963)
(0.00957298 -0.00715176 0.00591514)
(0.00845437 -0.00795332 0.0067161)
(0.0108578 -0.00698436 0.00420245)
(0.00980888 -0.00755526 0.00428027)
(0.0107961 -0.00690058 0.00340375)
(0.0105808 -0.00735844 0.00465844)
(0.0107829 -0.00771355 0.00398211)
(0.0105344 -0.00737637 0.00318317)
(0.00943707 -0.011507 0.00824152)
(0.0100291 -0.0105459 0.00981141)
(0.00970278 -0.0106541 0.00896686)
(0.0095712 -0.0101699 0.00952405)
(0.00907527 -0.0106033 0.00841251)
(0.00906351 -0.0106648 0.00779896)
(0.00981577 -0.00706535 0.0102961)
(0.00997008 -0.00798343 0.0109241)
(0.00873868 -0.00907028 0.00913416)
(0.00981778 -0.00843218 0.0105276)
(0.00902223 -0.0090974 0.00949022)
(0.00946477 -0.00817727 0.00954572)
(0.00680628 -0.0113406 0.00557292)
(0.00574789 -0.01166 0.00514819)
(0.00654137 -0.00893254 0.00636194)
(0.00580496 -0.0097884 0.00647051)
(0.00665034 -0.00992 0.00585314)
(0.00619147 -0.0111182 0.00631917)
(0.00486938 -0.00989463 0.00638549)
(0.00587382 -0.0113468 0.00660867)
(0.00477714 -0.00879967 0.00643494)
(0.00519186 -0.0110712 0.00602383)
(0.0060597 -0.00962539 0.00672129)
(0.00547074 -0.00854648 0.00655389)
(0.00980388 -0.00242333 0.00288043)
(0.0101788 -0.00243824 0.00244133)
(0.00949072 -0.00209307 0.00363795)
(0.0101007 -0.00229807 0.00330675)
(0.00986194 -0.00226414 0.00312914)
(0.00949008 -0.00203824 0.00365108)
(0.00820981 -0.0037858 0.00501606)
(0.0083103 -0.00367117 0.00544874)
(0.0111431 -0.00428789 0.00235449)
(0.0112749 -0.00471202 0.0017081)
(0.0108694 -0.00400083 0.00299059)
(0.0113063 -0.00386511 0.00336163)
(0.0115498 -0.0044455 0.00258033)
(0.0128725 -0.00884217 0.000510587)
(0.0129152 -0.0098402 0.00014254)
(0.0125941 -0.00933798 3.47968e-05)
(0.0134796 -0.0080219 0.000195372)
(0.0126714 -0.0078994 0.000277842)
(0.0123119 -0.00667902 0.000262592)
(0.0127469 -0.00481145 0.000648245)
(0.0130649 -0.0053557 0.000530332)
(0.01262 -0.00570047 0.000721172)
(0.0131702 -0.0050029 0.000949885)
(0.0124825 -0.00638857 0.000474068)
(0.013199 -0.00585389 0.000949951)
(0.00997704 -0.00725894 0.00785127)
(0.00938841 -0.00607607 0.00835506)
(0.00918361 -0.00595468 0.00816149)
(0.0100795 -0.00674484 0.00846496)
(0.00995868 -0.00640644 0.00821346)
(0.0105294 -0.00783652 0.00850342)
(0.00841159 -0.00259822 0.00612634)
(0.00883434 -0.00212322 0.00608385)
(0.00872771 -0.00163159 0.00557183)
(0.0086172 -0.0028809 0.00690854)
(0.00881644 -0.00198376 0.00602226)
(0.00874215 -0.00235136 0.00616823)
(0.00903794 -0.00418241 0.00758745)
(0.00873558 -0.00356689 0.00749196)
(0.00886269 -0.00475688 0.00723596)
(0.00921009 -0.00545739 0.00835592)
(0.00929054 -0.00400865 0.00748648)
(0.0086667 -0.00385596 0.00778347)
(0.0093399 -0.00605089 0.00780675)
(0.00920097 -0.00520245 0.00795264)
(0.00979279 -0.00644507 0.00860332)
(0.00941577 -0.00551611 0.00845427)
(0.00911188 -0.00491554 0.00842883)
(0.00819807 -0.00386982 0.00645203)
(0.00923981 -0.00262272 0.00643358)
(0.00881123 -0.00338949 0.00669381)
(0.00874028 -0.00300624 0.00656105)
(0.00861364 -0.00434809 0.00736745)
(0.00881349 -0.00318401 0.0063618)
(0.0112116 -0.00950589 0.00689015)
(0.00931938 -0.00857816 0.0066371)
(0.0112573 -0.0102618 0.0062138)
(0.0100925 -0.00871227 0.00686023)
(0.0103379 -0.00944135 0.00666492)
(0.0104997 -0.00955145 0.00575843)
(0.0142563 -0.00921472 -0.00157063)
(0.0136443 -0.0101949 -0.00152557)
(0.0130605 -0.0115198 -0.00105167)
(0.0141746 -0.0107692 -0.000732469)
(0.0144008 -0.00951393 -0.00102106)
(0.0130736 -0.0116145 -0.00170378)
(0.0118696 -0.0107057 0.00492068)
(0.0124743 -0.0108497 0.0039071)
(0.0128307 -0.0105213 0.00450446)
(0.0127204 -0.0105944 0.00328089)
(0.0123222 -0.0111059 0.00482405)
(0.0134995 -0.0108875 0.0040224)
(0.0110473 -0.000643108 0.0034756)
(0.0105455 -0.000243694 0.00350083)
(0.0105844 -1.35167e-05 0.0042935)
(0.0102808 -0.000349447 0.00330983)
(0.00981857 1.91626e-05 0.00492267)
(0.0103204 -0.000141719 0.00470135)
(0.0110566 -0.000221981 0.00435288)
(0.00992558 -0.000149681 0.00425519)
(0.00879126 -0.00157949 0.00585174)
(0.00924913 -0.00131633 0.00601838)
(0.00935345 -0.000916713 0.00470985)
(0.0102788 -0.000652844 0.00424883)
(0.00920857 -0.00111551 0.00485851)
(0.00941767 -0.000882004 0.00540631)
(0.00917318 -0.00128987 0.00524608)
(0.0103277 -0.000538458 0.00424908)
(0.0105652 -0.000276041 0.00479746)
(0.0106231 -0.00038477 0.00435486)
(0.0102481 -0.00060535 0.00360467)
(0.00978635 -0.000373683 0.00447285)
(0.0112908 -0.00154327 0.00264787)
(0.0109449 -0.00124919 0.00332329)
(0.0113078 -0.001923 0.00229869)
(0.0107088 -0.000892612 0.00350463)
(0.0108881 -0.00117916 0.00292606)
(0.010937 -0.00164262 0.00237807)
(0.0116373 -0.00331998 0.00220712)
(0.0118231 -0.00364967 0.00175559)
(0.0122028 -0.00422428 0.0016148)
(0.0116617 -0.00318626 0.0018527)
(0.0120226 -0.00377789 0.00187579)
(0.00880764 -0.00606583 0.00992419)
(0.00934015 -0.00740469 0.00985049)
(0.0094162 -0.00557523 0.0103492)
(0.00899746 -0.00625094 0.0103557)
(0.00973986 -0.00720827 0.0104182)
(0.00950467 -0.00772108 0.0100923)
(0.00832041 -0.00540434 0.0100875)
(0.00955682 -0.00479955 0.0107939)
(0.0083784 -0.00506894 0.00994183)
(0.00805148 -0.00414433 0.00996973)
(0.00940387 -0.00339672 0.0103062)
(0.0147073 -0.00861818 0.00325174)
(0.0141274 -0.0099643 0.00425958)
(0.0152983 -0.00938459 0.0041771)
(0.014745 -0.00910541 0.00413702)
(0.0140201 -0.00951577 0.00456627)
(0.0149938 -0.00883717 0.00345929)
(0.0155402 -0.00440508 0.0016496)
(0.0149197 -0.00552497 0.00218629)
(0.0148758 -0.00439903 0.00234153)
(0.0155845 -0.00574483 0.00211027)
(0.0156354 -0.0043646 0.00205236)
(0.0144961 -0.0050756 0.00118457)
(0.0159156 -0.00825185 0.00301309)
(0.015966 -0.0077412 0.00237101)
(0.0155286 -0.00741556 0.00188698)
(0.0151249 -0.00879852 0.0029991)
(0.0157918 -0.0084225 0.00233912)
(0.0151152 -0.0091207 0.00235957)
(0.0136134 -0.00931715 0.0048913)
(0.0135905 -0.00929499 0.00514566)
(0.0131906 -0.00978084 0.00646561)
(0.0137738 -0.00952032 0.00577855)
(0.0123997 -0.00950261 0.00631047)
(0.0135227 -0.00916914 0.00591394)
(0.0111045 -0.00785996 0.00825804)
(0.0117222 -0.00895534 0.00769172)
(0.0101569 -0.00696154 0.0079149)
(0.0110213 -0.00814171 0.00733525)
(0.00957077 -0.0071476 0.00786895)
(0.0111191 -0.00785979 0.00805927)
(0.0144357 -0.0077194 0.00502347)
(0.013885 -0.00906302 0.00460655)
(0.0132064 -0.0082183 0.00492949)
(0.0137645 -0.00873949 0.00593179)
(0.0138257 -0.00850882 0.00575926)
(0.0145768 -0.00802141 0.00460084)
(0.0147447 -0.00575571 0.00279766)
(0.0149982 -0.00653615 0.00303992)
(0.0149787 -0.00700636 0.00344874)
(0.0147133 -0.00682539 0.00389388)
(0.0150092 -0.0056439 0.00317275)
(0.0106192 -0.00826414 0.00731057)
(0.0111756 -0.00761776 0.00732403)
(0.0120417 -0.00870915 0.00640297)
(0.012504 -0.00902714 0.00670219)
(0.0113713 -0.00823878 0.00686024)
(0.0125161 -0.00871257 0.00756686)
(0.00907202 -0.00159634 0.00805973)
(0.0096114 -0.00132355 0.00800994)
(0.00953733 -0.000689155 0.0069266)
(0.00931951 -0.00121876 0.00763116)
(0.00919559 -0.000923949 0.00757085)
(0.00999525 -0.000606982 0.0076883)
(0.00957119 5.99217e-05 0.00565398)
(0.0101166 8.76893e-05 0.0053998)
(0.0102116 0.000170315 0.00687031)
(0.00977628 -4.43785e-05 0.006439)
(0.0103739 -0.00448036 0.009634)
(0.00927385 -0.00265425 0.00814194)
(0.00963846 -0.00372151 0.00920086)
(0.00951177 -0.00344001 0.00845525)
(0.0102192 -0.00436358 0.0089732)
(0.00957274 -0.00319519 0.00902741)
(0.0155872 -0.00157904 0.00463736)
(0.0140738 -0.00137502 0.00557002)
(0.0140335 -0.00121996 0.00751566)
(0.01385 -0.00135018 0.00747044)
(0.0140289 -0.000927329 0.00598554)
(0.0143144 -0.00132641 0.00482351)
(0.0138965 -0.00126662 0.00466669)
(0.0116903 -0.00280021 0.00916441)
(0.012106 -0.00182071 0.00740617)
(0.0110185 -0.00272734 0.00886772)
(0.0128013 -0.00200505 0.00841362)
(0.0114017 -0.00235113 0.008116)
(0.0140331 -0.00227952 0.00185373)
(0.0138499 -0.00149412 0.00425736)
(0.0134808 -0.00176331 0.00457956)
(0.0142256 -0.00178815 0.00385875)
(0.014894 -0.0023346 0.003627)
(0.0158582 -0.00370403 0.0019389)
(0.0153247 -0.00377196 0.00111326)
(0.0149159 -0.00469603 0.000848547)
(0.0161722 -0.00492652 0.00152439)
(0.0162928 -0.00291117 0.00317236)
(0.0148651 -0.00296476 0.00280595)
(0.0152308 -0.0069499 0.000953981)
(0.0148358 -0.00778922 0.000457925)
(0.0166182 -0.00486407 0.00208784)
(0.0161017 -0.00671463 0.00165409)
(0.0147212 -0.00759947 0.000838674)
(0.0125359 -0.0148286 0.000603098)
(0.0127209 -0.0142542 0.000143105)
(0.0131961 -0.0127137 -0.000747118)
(0.0130357 -0.0135068 -0.000624934)
(0.0125847 -0.0141885 0.000353777)
(0.0129152 -0.0130547 -0.000672704)
(0.0105385 -0.0176517 0.0031354)
(0.0110689 -0.0174253 0.00270119)
(0.0117626 -0.0164774 0.00192475)
(0.0114978 -0.0159863 0.000992432)
(0.00778126 -0.0101841 0.00531701)
(0.00807702 -0.0118804 0.00572765)
(0.00805303 -0.0107445 0.00635376)
(0.00870467 -0.0114312 0.00521873)
(0.00827418 -0.012399 0.00494205)
(0.00843404 -0.00970607 0.00648605)
(0.0116505 -0.0110984 0.00199763)
(0.0112186 -0.0115099 0.00269437)
(0.0117246 -0.0104661 0.0028064)
(0.0124481 -0.00917534 0.00166976)
(0.0107288 -0.0111756 0.00324472)
(0.0107652 -0.0115782 0.00344311)
(0.0148555 -0.00104024 0.00438864)
(0.0143732 -0.000182221 0.00535292)
(0.0146392 -0.00131886 0.00404767)
(0.0145024 -0.00126924 0.00421525)
(0.0141324 -0.000235549 0.00518577)
(0.0132979 -0.000794612 0.0038284)
(0.0146994 -0.00152204 0.00388539)
(0.0144521 -0.00170794 0.00330954)
(0.0148691 -0.00289075 0.00275854)
(0.0146034 -0.00281657 0.00277365)
(0.0160256 -0.00205238 0.0040014)
(0.0149466 -0.00210225 0.00332045)
(0.0150514 -0.00114472 0.00437579)
(0.0152556 -0.00180684 0.00351637)
(0.0148292 -0.000737177 0.00528192)
(0.0131391 -0.000151413 0.00772101)
(0.0141984 -0.000147903 0.00583753)
(0.0138212 -0.000222021 0.00630254)
(0.0118682 -0.000268665 0.00761802)
(0.0127356 0.000124064 0.00704665)
(0.0108608 -0.000151616 0.00790814)
(0.0105674 -0.000450605 0.0083657)
(0.0146602 -0.000903566 0.00447554)
(0.0155862 -0.0018031 0.00405926)
(0.0112008 -4.06923e-05 0.00811715)
(0.012305 -2.79538e-05 0.00747663)
(0.0106675 0.000292719 0.00720603)
(0.0110438 2.419e-06 0.00833442)
(0.0139974 -8.79411e-05 0.0055209)
(0.0143387 -0.000739417 0.00468886)
(0.0119636 0.000157498 0.00666367)
(0.0139192 -0.000183618 0.00586552)
(0.0128568 0.000345057 0.00624559)
(0.0146642 -0.00106168 0.00417805)
(0.0145068 -0.00200792 0.00369833)
(0.0104906 -0.0158723 0.00379271)
(0.0103642 -0.0104975 0.00615635)
(0.00978669 -0.0108776 0.00553604)
(0.0149038 -0.0071552 0.00345953)
(0.0150728 -0.00821286 0.00341968)
(0.0155037 -0.0074642 0.00314258)
(0.0148182 -0.00834792 0.00401351)
(0.00868499 -0.0099719 0.00564996)
(0.00637707 -0.013886 0.00606059)
(0.00585738 -0.0143062 0.00551373)
(0.00783194 -0.0151153 0.00263991)
(0.00817135 -0.0156385 0.00211215)
(0.00846545 -0.0154614 0.002083)
(0.00706126 -0.0148644 0.00373846)
(0.00620605 -0.0150794 0.00447491)
(0.00698307 -0.0154927 0.00260004)
(0.0122298 -0.0131567 -0.00145445)
(0.0121023 -0.0134938 -0.0013836)
(0.0127148 -0.0116664 -0.00131816)
(0.0141914 -0.0118664 -0.00153128)
(0.0137336 -0.0117028 -0.00135992)
(0.012139 -0.0135079 -0.000843361)
(0.00963671 -0.0160415 0.000689141)
(0.00551554 -0.00809918 0.00723523)
(0.00558793 -0.0078529 0.00772469)
(0.0123185 -0.00677022 0.000244969)
(0.0138435 -0.00822915 0.000261187)
(0.0135478 -0.0080635 0.000825213)
(0.0126024 -0.00628779 0.000818681)
(0.0133165 -0.0121294 -0.000620058)
(0.0129824 -0.00736537 0.000359618)
(0.0133962 -0.00884661 2.22995e-05)
(0.0142002 -0.01069 -0.000570753)
(0.0139654 -0.0117076 -0.00124709)
(0.0120297 -0.0149271 0.000433679)
(0.0148686 -0.00482946 0.000573262)
(0.0154154 -0.00699998 0.000146988)
(0.0150419 -0.00604649 -0.000109696)
(0.0148283 -0.00311335 0.00129917)
(0.0146203 -0.00204204 0.0038404)
(0.0150116 -0.00184612 0.00384486)
(0.0133222 -0.00134513 0.00581383)
(0.0126079 -0.00185545 0.00666279)
(0.00981919 -0.00591708 0.011032)
(0.00960304 -0.0059728 0.0100961)
(0.00903427 -0.00682007 0.0104657)
(0.00889921 -0.00665027 0.00990021)
(0.0128095 -0.00188536 0.00791173)
(0.0116293 -0.00320157 0.0100085)
(0.0125957 -0.00205916 0.00906419)
(0.0117795 -0.0030123 0.00988328)
(0.0124686 -0.00196856 0.00901176)
(0.0125366 -0.00113905 0.00792511)
(0.0112119 -0.00225889 0.00941587)
(0.0109255 -0.00444113 0.0105899)
(0.0111961 -0.00363824 0.0104469)
(0.0116222 -0.00337666 0.0103243)
(0.0104282 -0.00497937 0.0106776)
(0.0103701 -0.00533979 0.0110216)
(0.0103344 -0.00396577 0.0104581)
(0.00947612 -0.0047496 0.00857301)
(0.00984193 -0.00515095 0.0088306)
(0.0086957 -0.00266514 0.00829098)
(0.00984634 -0.0033097 0.00900668)
(0.00958335 -0.00234115 0.0088962)
(0.00943307 -0.00211394 0.0081729)
(0.00981832 -0.00164105 0.00861037)
(0.010671 -0.0066765 0.00886679)
(0.0105504 -0.00698791 0.00834965)
(0.0108695 -0.00551682 0.0092539)
(0.0105889 -0.00578813 0.00912744)
(0.0100734 -0.00567158 0.00804985)
(0.0106311 -0.00686451 0.00746274)
(0.0109269 -0.00604461 0.0081701)
(0.0110477 -0.00713549 0.00766578)
(0.0115317 -0.00645715 0.00829856)
(0.0102664 -0.00600485 0.00803065)
(0.0117299 -0.00697464 0.00853198)
(0.0109352 -0.00599948 0.00835671)
(0.0096329 -0.000911394 0.00778072)
(0.011884 -0.0073898 0.00743288)
(0.0125313 -0.00769004 0.00734612)
(0.0147928 -0.00629798 0.00295236)
(0.0123161 -0.00819872 0.00622925)
(0.0143736 -0.00794483 0.00351128)
(0.0126236 -0.00900475 0.00609653)
(0.0115877 -0.0078726 0.00846866)
(0.0147441 -0.00867525 0.00423232)
(0.0133614 -0.00883095 0.00632668)
(0.0124488 -0.00894357 0.00723382)
(0.0153089 -0.0078208 0.00208961)
(0.0165779 -0.00702617 0.00201605)
(0.0151121 -0.00658083 0.00224464)
(0.0155891 -0.00700252 0.00195585)
(0.0154379 -0.00904387 0.00391575)
(0.0158008 -0.00753252 0.00294797)
(0.0151563 -0.00826318 0.00311831)
(0.01557 -0.00797401 0.00333386)
(0.0156184 -0.00709099 0.00277384)
(0.0145875 -0.00900073 0.00461535)
(0.0135957 -0.00959177 0.00519355)
(0.00784936 -0.00528828 0.00911907)
(0.0081618 -0.00357099 0.00952294)
(0.00807619 -0.00426552 0.00970527)
(0.00837436 -0.00486423 0.00958332)
(0.00926386 -0.00716003 0.0102679)
(0.00982137 -0.00544483 0.0107045)
(0.00851094 -0.00634418 0.00895241)
(0.00881416 -0.00780249 0.00876828)
(0.00859008 -0.00686504 0.00934399)
(0.00844209 -0.00743888 0.00904267)
(0.008798 -0.00615924 0.00964749)
(0.00852477 -0.0063373 0.0101135)
(0.00802343 -0.00530349 0.00950341)
(0.00855969 -0.00665531 0.00991996)
(0.0115462 -0.00206233 0.009517)
(0.0103207 -0.00350415 0.0101)
(0.0106301 -0.00277293 0.0104461)
(0.0105985 -0.00267195 0.0100556)
(0.00948541 -0.00410742 0.0103389)
(0.00997908 -0.00304423 0.0104346)
(0.00948541 -0.00416327 0.0104539)
(0.00949718 -0.00478629 0.0107334)
(0.00788741 -0.00277976 0.00956381)
(0.00826318 -0.00382682 0.00935707)
(0.00762096 -0.00292699 0.00897598)
(0.00738877 -0.0046324 0.00919641)
(0.00754222 -0.00554378 0.00923188)
(0.00765565 -0.0056922 0.00893204)
(0.00990418 -0.00101747 0.00322739)
(0.0101733 -0.000990672 0.00364369)
(0.0099604 -0.000701037 0.00380002)
(0.0114255 -0.00175228 0.0024309)
(0.0113634 -0.00108675 0.00318228)
(0.0115387 -0.000790336 0.0034102)
(0.010091 -0.000488841 0.00301555)
(0.0110423 -0.000619862 0.00357214)
(0.0107853 -0.00125108 0.00265337)
(0.0111141 -0.00117227 0.00288119)
(0.0112131 -0.00142271 0.00261124)
(0.0114002 -0.00107636 0.00298346)
(0.011944 -0.00199409 0.0024829)
(0.0119166 -0.00312718 0.00257191)
(0.0117682 -0.0039315 0.00227291)
(0.0118038 -0.00244483 0.00242379)
(0.012023 -0.00280272 0.00265754)
(0.0116137 -0.00429608 0.00247933)
(0.0113768 -0.00411883 0.0029866)
(0.0115369 -0.00366753 0.00266455)
(0.0105029 0.000117796 0.00454316)
(0.0108764 -0.00112508 0.00287173)
(0.0108475 -0.000879088 0.00312559)
(0.0105219 -0.00042305 0.00367014)
(0.0108005 -0.000864669 0.00321814)
(0.0107052 -0.00154065 0.00307262)
(0.0110609 -0.00146657 0.00310884)
(0.0112206 -0.00175198 0.00271677)
(0.00904974 -0.00180684 0.00722135)
(0.00856089 -0.00191224 0.00695399)
(0.00894843 -0.00163996 0.0067421)
(0.00984651 -0.000247225 0.00681358)
(0.00919776 -0.00069405 0.00677758)
(0.00931289 -0.000433039 0.00624172)
(0.00915268 -0.000643342 0.00617175)
(0.00943734 -0.00127297 0.00724443)
(0.00913953 -0.00133364 0.00676476)
(0.010203 -0.00027098 0.00629887)
(0.00936361 -0.00477629 0.00841998)
(0.0101956 -0.00617608 0.00820937)
(0.0101364 -0.00543834 0.00856343)
(0.00953043 -0.00600184 0.00858072)
(0.00972889 -0.00545899 0.00896097)
(0.013183 -0.0093785 0.00662295)
(0.0115797 -0.00899148 0.00708133)
(0.00967918 -0.000696002 0.00491811)
(0.00906217 -0.00121066 0.00595447)
(0.00994668 -0.000688516 0.00595644)
(0.0100384 -0.000503873 0.00521446)
(0.00960715 -0.000887502 0.0064214)
(0.00981646 -0.00127396 0.00332233)
(0.0095947 -0.00115032 0.00392217)
(0.00949107 -0.00137287 0.00455859)
(0.00926376 -0.0015613 0.00533161)
(0.00962673 -0.00116216 0.00461183)
(0.0148394 -0.00839093 0.000650358)
(0.0149255 -0.00916879 0.00145068)
(0.0144731 -0.00880131 0.00207373)
(0.0138646 -0.0080816 -0.000406731)
(0.0140694 -0.00796541 0.000334562)
(0.011092 -0.0115417 0.00334941)
(0.0130025 -0.0120211 -0.00122754)
(0.012353 -0.0127808 -0.000415844)
(0.0113201 -0.00973514 0.00724472)
(0.0106309 -0.0108876 0.00473883)
(0.0104072 -0.0108804 0.00368701)
(0.0101234 -0.0108812 0.00531565)
(0.0118619 -0.0106149 0.00487553)
(0.0105408 -0.00989593 0.00532273)
(0.0128548 -0.00944861 0.00733726)
(0.0118534 -0.00932371 0.00574953)
(0.0131649 -0.00949083 0.00582732)
(0.0144402 -0.00983221 0.00322261)
(0.0147264 -0.0095961 0.00269508)
(0.0140778 -0.0094441 0.00220995)
(0.0138087 -0.0107494 0.00340831)
(0.0144391 -0.00957191 0.00347196)
(0.0147428 -0.00958591 0.00422846)
(0.0133791 -0.0100479 0.0036701)
(0.0133631 -0.010336 0.00548498)
(0.0141281 -0.0103975 0.00496659)
(0.0141955 -0.009885 0.00479754)
(0.00883071 -0.00490531 0.00801992)
(0.00870406 -0.00585909 0.00831416)
(0.0084206 -0.00428654 0.00697109)
(0.00840183 -0.00478394 0.00715603)
(0.00826187 -0.00589216 0.00690789)
(0.00795766 -0.00518943 0.00682035)
(0.00785604 -0.00461533 0.00672324)
(0.00838809 -0.00377792 0.00686551)
(0.00834945 -0.00332939 0.00637839)
(0.00919153 -0.00531669 0.00799429)
(0.00894278 -0.00551014 0.00767302)
(0.00867866 -0.00627575 0.00764894)
(0.00878868 -0.00598895 0.00774571)
(0.00836188 -0.0054802 0.00722455)
(0.00933532 -0.00139737 0.00330526)
(0.00885442 -0.00121369 0.00357799)
(0.00965626 -0.00135621 0.00449307)
(0.00924721 -0.00144148 0.00474325)
(0.00863421 -0.00278004 0.00573764)