/*--------------------------------*- C++ -*----------------------------------*\
| =========                 |                                                 |
| \\      /  F ield         | OpenFOAM: The Open Source CFD Toolbox           |
|  \\    /   O peration     | Version:  v1612+                                |
|   \\  /    A nd           | Web:      www.OpenFOAM.com                      |
|    \\/     M anipulation  |                                                 |
\*---------------------------------------------------------------------------*/
FoamFile
{
    version     2.0;
    format      ascii;
    class       volScalarField;
    location    "100";
    object      p;
}
// * * * * * * * * * * * * * * * * * * * * * * * * * * * * * * * * * * * * * //

dimensions      [0 2 -2 0 0 0 0];

internalField   nonuniform List<scalar> 
16902
(
3.21386
3.2133
3.2862
3.2691
3.24581
3.19101
3.18804
3.19024
3.19114
3.18807
3.19807
3.18583
3.19287
3.19168
3.18667
3.19283
3.19278
3.19403
3.19027
3.19425
3.19791
3.19406
3.19283
3.19751
3.1957
3.19273
3.18705
3.20363
3.2012
3.19745
3.20095
3.20442
3.2066
3.20899
3.2054
3.19699
3.19433
3.20004
3.20493
3.20102
3.20741
3.19982
3.20152
3.23706
3.22989
3.23574
3.23209
3.24229
3.23006
3.22494
3.23493
3.22639
3.27787
3.23782
3.27337
3.23656
3.23714
3.20922
3.20853
3.20953
3.20931
3.20755
3.2063
3.20071
3.20659
3.20882
3.20889
3.2049
3.20665
3.20618
3.20419
3.20863
3.21463
3.21895
3.21511
3.21629
3.21693
3.21603
3.2133
3.209
3.21354
3.21677
3.21204
3.21272
3.21282
3.17694
3.17216
3.17157
3.15592
3.48727
3.49062
3.47696
3.47233
3.46828
3.45503
3.47848
3.47004
3.46434
3.47239
3.21871
3.21892
3.21887
3.21798
3.22226
3.22033
3.22106
3.22095
3.21905
3.21712
3.2179
3.21418
3.21804
3.22057
3.21624
3.21809
3.4731
3.45733
3.47211
3.46347
3.47146
3.45909
3.46639
3.47065
3.47456
3.48178
3.48672
3.47727
3.46124
3.45061
3.2265
3.23386
3.24139
3.26024
3.21646
3.21165
3.22278
3.23066
3.24273
3.24307
3.23903
3.25246
3.24774
3.22712
3.2407
3.22519
3.21579
3.21913
3.21673
3.21875
3.21181
3.22171
3.22138
3.22195
3.21778
3.2204
3.21957
3.21887
3.22013
3.22065
3.21244
3.21135
3.2376
3.22358
3.21659
3.21393
3.2116
3.23059
3.24453
3.2244
3.22816
3.22595
3.21884
3.22742
3.23477
3.2341
3.22754
3.21656
3.22456
3.23093
3.22143
3.23887
3.23277
3.27051
3.28078
3.28287
3.2932
3.27083
3.24987
3.26223
3.25305
3.2527
3.30465
3.29256
3.27728
3.26155
3.2702
3.2655
3.29327
3.39114
3.40942
3.39959
3.38546
3.39993
3.38797
3.41614
3.38098
3.38853
3.42812
3.42019
3.37894
3.41756
3.42137
3.37827
3.21077
3.20703
3.20343
3.21106
3.20837
3.20953
3.2104
3.20255
3.20882
3.21559
3.2157
3.20641
3.44376
3.45784
3.28812
3.30258
3.27886
3.26594
3.25504
3.24402
3.26433
3.25187
3.27366
3.27253
3.24099
3.2207
3.23104
3.22634
3.21767
3.2516
3.23352
3.24098
3.23179
3.22676
3.22274
3.22139
3.20296
3.20957
3.21785
3.2153
3.21017
3.20107
3.20429
3.21171
3.19981
3.20952
3.20416
3.21088
3.21164
3.21092
3.22237
3.21189
3.21199
3.19479
3.19424
3.19071
3.19462
3.19156
3.19841
3.20207
3.20059
3.19901
3.19955
3.20067
3.19275
3.18633
3.18771
3.21171
3.2075
3.2347
3.23476
3.22927
3.2238
3.19754
3.19907
3.18876
3.20633
3.20693
3.19913
3.19277
3.2071
3.21789
3.22171
3.2261
3.21975
3.21647
3.21898
3.21952
3.22087
3.22041
3.2253
3.21067
3.21207
3.213
3.21931
3.2155
3.21741
3.20931
3.21198
3.23471
3.22198
3.23185
3.21755
3.2288
3.22586
3.23029
3.22469
3.23942
3.23325
3.23343
3.23862
3.24189
3.2358
3.2377
3.22702
3.2353
3.23055
3.24093
3.24054
3.23457
3.23693
3.18248
3.18585
3.18276
3.17745
3.17553
3.18151
3.19093
3.18633
3.17867
3.18986
3.17528
3.14787
3.15513
3.14573
3.14241
3.16656
3.16852
3.17048
3.17301
3.14588
3.14638
3.1148
3.13417
3.14345
3.16197
3.15432
3.16163
3.13181
3.13064
3.15758
3.16654
3.1461
3.14289
3.1471
3.15323
3.20753
3.20726
3.2143
3.21457
3.2175
3.21838
3.20348
3.20693
3.20841
3.20928
3.20746
3.21128
3.21388
3.21739
3.2164
3.21918
3.20584
3.21195
3.2109
3.21211
3.21704
3.21872
3.21316
3.21364
3.22203
3.21932
3.21579
3.21574
3.21921
3.21844
3.2149
3.21352
3.21934
3.21981
3.21869
3.21996
3.24641
3.23862
3.23915
3.22539
3.23778
3.23602
3.2357
3.22646
3.23764
3.23006
3.21831
3.2181
3.22174
3.23006
3.23191
3.2199
3.2136
3.21424
3.21227
3.21959
3.18939
3.18776
3.18381
3.18394
3.19177
3.19486
3.19093
3.17539
3.19428
3.1806
3.18331
3.22865
3.23832
3.23372
3.22473
3.24409
3.24395
3.22316
3.23415
3.23207
3.24133
3.22159
3.21872
3.22523
3.2236
3.22004
3.22099
3.21664
3.2257
3.22547
3.22451
3.22061
3.22254
3.22127
3.23279
3.23797
3.24529
3.24058
3.21945
3.2145
3.21274
3.23661
3.22969
3.22631
3.21763
3.23188
3.23057
3.19664
3.18907
3.19569
3.19855
3.19526
3.19446
3.19684
3.19391
3.18785
3.18754
3.19941
3.18989
3.19734
3.20108
3.19305
3.19599
3.19898
3.1869
3.19313
3.20277
3.22409
3.21627
3.21518
3.21722
3.20788
3.223
3.2128
3.21932
3.22688
3.22179
3.21948
3.22599
3.17817
3.17697
3.18071
3.18096
3.16583
3.17685
3.17767
3.16664
3.16979
3.17714
3.17986
3.17686
3.16787
3.16097
3.17515
3.17223
3.17708
3.16996
3.16131
3.14861
3.16093
3.18572
3.19259
3.18756
3.17436
3.1808
3.19556
3.20597
3.18523
3.19083
3.1679
3.1686
3.17762
3.18439
3.18668
3.20078
3.20051
3.2035
3.20647
3.20661
3.20906
3.20658
3.20501
3.20796
3.20369
3.20312
3.20599
3.20553
3.20368
3.20993
3.19734
3.19757
3.19464
3.1954
3.19707
3.19687
3.43032
3.42318
3.42103
3.38988
3.38795
3.44144
3.38104
3.41399
3.43508
3.22016
3.21604
3.21951
3.22254
3.21708
3.2259
3.22606
3.22391
3.21622
3.22315
3.22619
3.22075
3.22236
3.21871
3.22187
3.22376
3.21264
3.21924
3.45147
3.46227
3.45274
3.454
3.46281
3.47576
3.48215
3.48412
3.47434
3.47133
3.48227
3.46427
3.48151
3.49021
3.23482
3.2362
3.22832
3.23703
3.2155
3.21124
3.23377
3.23258
3.21864
3.22348
3.23618
3.24498
3.23186
3.24349
3.24266
3.26365
3.24111
3.24384
3.25399
3.25461
3.24558
3.24411
3.25908
3.23259
3.22232
3.21511
3.23244
3.24439
3.23927
3.23174
3.23081
3.2329
3.22928
3.19003
3.18951
3.19657
3.20805
3.18737
3.18414
3.20789
3.19592
3.20871
3.18607
3.19003
3.18258
3.18898
3.19733
3.43627
3.44916
3.41483
3.41964
3.44117
3.44463
3.44707
3.44332
3.43052
3.41594
3.42432
3.4291
3.43981
3.43344
3.4525
3.4463
3.4593
3.45524
3.421
3.45655
3.46155
3.45792
3.23453
3.25827
3.26764
3.27248
3.24949
3.2293
3.23833
3.26066
3.23957
3.2551
3.24667
3.38361
3.38683
3.34271
3.38457
3.37127
3.3725
3.35704
3.3689
3.38475
3.40891
3.38256
3.38357
3.38919
3.40173
3.22974
3.23087
3.22028
3.23632
3.22312
3.22619
3.2127
3.21222
3.21343
3.21917
3.21641
3.21193
3.22413
3.22494
3.22469
3.2235
3.22042
3.22079
3.22228
3.22265
3.22118
3.2217
3.22081
3.21906
3.22294
3.21992
3.20896
3.20838
3.21316
3.20764
3.20689
3.20636
3.21097
3.21502
3.21382
3.21336
3.21489
3.20834
3.20937
3.21054
3.21355
3.21497
3.2107
3.21497
3.17785
3.17929
3.18358
3.18908
3.18417
3.19229
3.17625
3.19501
3.18674
3.17458
3.17029
3.18837
3.17607
3.17977
3.16459
3.17668
3.20691
3.20691
3.21098
3.20787
3.20822
3.20606
3.20138
3.20346
3.20575
3.20713
3.2061
3.20483
3.20375
3.21144
3.2057
3.20215
3.20985
3.20461
3.20843
3.19973
3.20754
3.21129
3.20664
3.20531
3.30188
3.28818
3.29072
3.2811
3.2905
3.3035
3.30399
3.29874
3.29661
3.27514
3.29589
3.28027
3.29723
3.27632
3.29556
3.30219
3.19343
3.19089
3.19447
3.19308
3.20892
3.20305
3.20157
3.20613
3.1866
3.18791
3.19662
3.20725
3.21204
3.19145
3.20063
3.19249
3.19573
3.20096
3.19863
3.19589
3.20965
3.20161
3.19984
3.20404
3.20307
3.20619
3.20891
3.12984
3.13201
3.14015
3.13881
3.20613
3.21335
3.22805
3.22348
3.23343
3.24053
3.19719
3.20763
3.23018
3.23017
3.24131
3.21588
3.22381
3.2317
3.21693
3.27091
3.26853
3.25113
3.24235
3.26343
3.2455
3.20199
3.19733
3.21575
3.21018
3.21298
3.21785
3.19966
3.19118
3.19414
3.20516
3.198
3.20766
3.21928
3.21392
3.20834
3.21923
3.20727
3.21209
3.22159
3.40317
3.38673
3.40832
3.3962
3.42193
3.43321
3.42809
3.40516
3.39037
3.38558
3.3813
3.37591
3.42456
3.40664
3.42315
3.42273
3.38972
3.41555
3.38946
3.4046
3.41466
3.05839
3.05137
3.05356
3.10939
3.11753
3.10511
3.21173
3.10331
3.11175
3.09944
3.19726
3.19839
3.19697
3.19197
3.23892
3.24007
3.2467
3.20531
3.19413
3.20132
3.19242
3.20417
3.20493
3.22083
3.21891
3.11316
3.11085
3.11943
3.14962
3.15399
3.24738
3.24732
3.20209
3.20876
3.20126
3.19904
3.19855
3.1361
3.15022
3.14781
3.21659
3.21657
3.21697
3.19633
3.19482
3.19097
3.24733
3.24483
3.24999
3.21676
3.21491
3.21437
3.18688
3.19025
3.19737
3.25973
3.25285
3.16327
3.15695
3.22681
3.22457
3.22535
3.25454
3.25177
3.17155
3.17634
3.16325
3.1785
3.20592
3.20606
3.20406
3.28666
3.28809
3.22176
3.22222
3.22028
3.23278
3.23147
3.15521
3.15523
3.26404
3.25858
3.26525
3.26683
3.19338
3.18932
3.22011
3.21831
3.21841
3.32581
3.32626
3.22443
3.22524
3.22564
3.22055
3.20875
3.19904
3.20342
3.36705
3.37335
3.25179
3.2653
3.25734
3.33015
3.31253
3.3207
3.21393
3.21515
3.22263
3.22126
3.22258
3.21163
3.21494
3.23472
3.24244
3.23801
3.30821
3.32873
3.32552
3.21737
3.21543
3.21431
3.21481
3.40066
3.40092
3.39075
3.39682
3.2072
3.20618
3.2029
3.41259
3.39888
3.40603
3.21977
3.21955
3.21892
3.2212
3.25897
3.27804
3.27827
3.27353
3.26109
3.22753
3.22452
3.21935
3.2204
3.21222
3.21085
3.21416
3.21334
3.21286
3.40024
3.38174
3.37594
3.21924
3.21959
3.20642
3.2038
3.20891
3.20867
3.47585
3.46956
3.47923
3.47247
3.47491
3.31142
3.31688
3.25071
3.24624
3.24488
3.49671
3.49495
3.48853
3.44478
3.45697
3.44486
3.43421
3.3078
3.31649
3.32845
3.33101
3.46078
3.44804
3.46057
3.4937
3.4942
3.47933
3.474
3.46028
3.49363
3.49352
3.49287
3.48974
3.44799
3.46442
3.44677
3.45258
3.39951
3.40997
3.43279
3.43162
3.42957
3.41269
3.23642
3.38465
3.37256
3.366
3.36047
3.32046
3.29728
3.31591
3.30903
3.31689
3.2673
3.28465
3.28377
3.29569
3.46849
3.46963
3.46092
3.48115
3.45503
3.47075
3.47228
3.46096
3.46157
3.44532
3.41837
3.41452
3.43313
3.44086
3.44817
3.44768
3.44778
3.43955
3.44651
3.41837
3.41333
3.42129
3.42245
3.20948
3.22419
3.22164
3.21839
3.22406
3.37287
3.38135
3.38368
3.46982
3.47865
3.47536
3.4723
3.46332
3.43471
3.45054
3.45403
3.45841
3.45112
3.46039
3.46431
3.48794
3.47974
3.48417
3.48129
3.46853
3.48153
3.45756
3.4875
3.4764
3.4764
3.48675
3.46924
3.49884
3.49513
3.4832
3.49596
3.47835
3.49522
3.48567
3.22839
3.23507
3.23873
3.25597
3.23481
3.23445
3.20719
3.20829
3.21369
3.21555
3.21369
3.21602
3.21595
3.21305
3.20915
3.20798
3.22005
3.23325
3.24335
3.23845
3.24274
3.23722
3.23311
3.27028
3.27288
3.2589
3.23946
3.24737
3.26105
3.25164
3.23339
3.23647
3.22679
3.22503
3.23497
3.23064
3.23274
3.23382
3.24181
3.23666
3.2395
3.23522
3.23187
3.28541
3.29151
3.26751
3.27543
3.23328
3.28878
3.27428
3.24638
3.27728
3.28742
3.26538
3.25243
3.31229
3.30331
3.32795
3.32877
3.3221
3.3445
3.36819
3.44782
3.44717
3.45527
3.46077
3.45046
3.45902
3.40993
3.39937
3.44352
3.44992
3.44479
3.44179
3.4457
3.44681
3.21609
3.21115
3.21405
3.21213
3.20858
3.2135
3.21615
3.21143
3.21006
3.2101
3.20699
3.21359
3.21393
3.2147
3.20098
3.20706
3.21089
3.21014
3.21256
3.22833
3.22963
3.23865
3.22131
3.2247
3.29327
3.31384
3.32074
3.31112
3.37353
3.37639
3.37206
3.35362
3.38049
3.42191
3.40996
3.37785
3.3766
3.4072
3.38568
3.39493
3.38046
3.21199
3.21323
3.21836
3.21694
3.21739
3.21633
3.21973
3.211
3.20802
3.20898
3.20827
3.21793
3.21609
3.21665
3.21728
3.21876
3.21627
3.21716
3.21718
3.22355
3.2258
3.22375
3.22329
3.22644
3.21811
3.22251
3.22838
3.22349
3.22716
3.22911
3.22881
3.22575
3.22075
3.22089
3.2154
3.22109
3.21848
3.2222
3.22007
3.21412
3.21679
3.21795
3.22067
3.25152
3.3276
3.33281
3.32046
3.28963
3.30709
3.30843
3.29114
3.31289
3.31701
3.31567
3.31981
3.29177
3.29881
3.2664
3.27236
3.26915
3.25201
3.28679
3.30681
3.30676
3.30098
3.26591
3.27182
3.29736
3.30485
3.28549
3.28577
3.27755
3.2212
3.21897
3.22109
3.22064
3.22123
3.32192
3.35114
3.35697
3.32745
3.35675
3.36793
3.20169
3.21026
3.20716
3.21143
3.20848
3.20326
3.20367
3.18943
3.2006
3.20351
3.19961
3.20097
3.19874
3.20248
3.20647
3.20927
3.20829
3.20563
3.21049
3.2082
3.20507
3.20896
3.20721
3.2009
3.20753
3.21292
3.2123
3.22471
3.218
3.22755
3.34745
3.32215
3.3682
3.36784
3.37724
3.37502
3.37349
3.35853
3.41653
3.431
3.42079
3.4225
3.40594
3.21379
3.21623
3.21485
3.21607
3.29002
3.28325
3.28407
3.30578
3.28854
3.29219
3.28874
3.26882
3.28716
3.28227
3.28374
3.27346
3.2958
3.29577
3.27252
3.28569
3.2398
3.23618
3.24393
3.23674
3.23034
3.23112
3.2237
3.23076
3.23138
3.24723
3.25471
3.25952
3.24924
3.24444
3.23793
3.23897
3.24427
3.26431
3.27125
3.1798
3.20151
3.20588
3.20211
3.20102
3.19369
3.22107
3.22256
3.22248
3.22304
3.22201
3.22404
3.22364
3.22178
3.22225
3.21914
3.22766
3.22487
3.22593
3.22427
3.21531
3.21247
3.21217
3.21396
3.21362
3.2161
3.21627
3.21527
3.21149
3.21208
3.20664
3.21199
3.21159
3.21447
3.20838
3.20759
3.20769
3.21419
3.21772
3.21753
3.21617
3.21749
3.37412
3.36491
3.26947
3.26799
3.27922
3.28254
3.41643
3.42351
3.40128
3.39124
3.38168
3.37914
3.37614
3.37086
3.34612
3.38454
3.36382
3.27892
3.28242
3.2992
3.27435
3.23647
3.24271
3.24099
3.24874
3.24556
3.24098
3.2347
3.23599
3.22707
3.24456
3.24091
3.23798
3.26203
3.27136
3.27706
3.28106
3.25093
3.25585
3.25061
3.33944
3.34513
3.33119
3.33739
3.32961
3.36635
3.37887
3.35863
3.34799
3.37365
3.36548
3.3763
3.36402
3.31158
3.30543
3.32772
3.34364
3.34322
3.3343
3.33841
3.33531
3.3503
3.34878
3.36537
3.39527
3.36886
3.39997
3.38775
3.40021
3.37455
3.39741
3.18574
3.19408
3.16747
3.17157
3.17372
3.17591
3.17192
3.1859
3.17827
3.18131
3.18423
3.17333
3.21793
3.2223
3.23239
3.20211
3.19405
3.23345
3.24266
3.18371
3.18449
3.1735
3.17404
3.2226
3.22181
3.22332
3.22974
3.23283
3.23015
3.22609
3.22817
3.22635
3.23169
3.2235
3.22452
3.22763
3.22393
3.22555
3.22634
3.22898
3.22677
3.22447
3.22648
3.22364
3.2237
3.3225
3.31537
3.33022
3.31746
3.32033
3.32715
3.31224
3.31258
3.30934
3.30452
3.28761
3.28041
3.31408
3.29787
3.21118
3.20672
3.21174
3.21642
3.21621
3.21903
3.21585
3.21724
3.21528
3.21622
3.18413
3.19586
3.1956
3.18041
3.18911
3.1835
3.1708
3.19073
3.19115
3.18486
3.20756
3.2028
3.2047
3.20674
3.20608
3.20039
3.19858
3.25553
3.26821
3.25718
3.2489
3.22514
3.24349
3.2373
3.24576
3.22593
3.23535
3.29916
3.26837
3.31375
3.29077
3.26804
3.27834
3.30337
3.29346
3.28617
3.29962
3.30013
3.27229
3.2906
3.26045
3.29668
3.27629
3.26412
3.26512
3.17305
3.17886
3.18208
3.18675
3.17392
3.17222
3.13471
3.13577
3.14725
3.17415
3.17861
3.18679
3.17623
3.18025
3.16706
3.17043
3.18568
3.19015
3.18532
3.18949
3.14871
3.16078
3.17292
3.15527
3.14685
3.16166
3.15929
3.16823
3.15764
3.22793
3.23098
3.22916
3.23292
3.2375
3.24682
3.25225
3.24138
3.22769
3.22452
3.2321
3.23333
3.23837
3.24233
3.23376
3.2346
3.23032
3.23066
3.23218
3.22929
3.23611
3.2292
3.22191
3.22889
3.22206
3.22063
3.2213
3.22344
3.22328
3.22352
3.2205
3.22603
3.22465
3.22042
3.22025
3.22189
3.22112
3.22768
3.22042
3.2199
3.22016
3.26218
3.26263
3.2816
3.28404
3.28243
3.28391
3.27256
3.27313
3.27435
3.19743
3.20233
3.20477
3.20339
3.20265
3.20161
3.21056
3.21344
3.21484
3.20973
3.21386
3.21145
3.20549
3.20575
3.20752
3.20745
3.20947
3.20925
3.21007
3.21086
3.21029
3.2141
3.21371
3.14789
3.15891
3.152
3.15916
3.13516
3.13028
3.16013
3.14105
3.15632
3.13892
3.14677
3.19065
3.20369
3.18628
3.18337
3.17695
3.21236
3.21567
3.25544
3.26606
3.2554
3.25192
3.24442
3.24287
3.24933
3.25649
3.26632
3.2509
3.26036
3.25491
3.25457
3.24945
3.23037
3.23363
3.24135
3.24329
3.22678
3.23994
3.23517
3.24422
3.24378
3.23204
3.23217
3.24415
3.23956
3.23957
3.23312
3.2394
3.24808
3.23358
3.22788
3.22797
3.22791
3.22235
3.21813
3.22502
3.22076
3.22311
3.22146
3.22965
3.22671
3.22379
3.22335
3.2241
3.22399
3.22941
3.23181
3.21952
3.22183
3.2254
3.22428
3.11786
3.13086
3.12336
3.13907
3.21733
3.23185
3.24185
3.23426
3.25048
3.25023
3.25107
3.23644
3.18848
3.1918
3.19244
3.19408
3.19933
3.19717
3.19664
3.19941
3.20328
3.20156
3.19315
3.19672
3.19475
3.19316
3.19619
3.18694
3.18744
3.17782
3.19022
3.19444
3.20841
3.20828
3.21239
3.21489
3.21492
3.214
3.2175
3.21819
3.21682
3.21885
3.21453
3.21596
3.21751
3.2178
3.2176
3.21916
3.2114
3.21572
3.2137
3.21777
3.21723
3.21456
3.21468
3.23543
3.25087
3.25757
3.25712
3.25014
3.23838
3.23599
3.24232
3.24111
3.24939
3.24181
3.24891
3.24372
3.24034
3.24132
3.2462
3.23622
3.24723
3.24355
3.18514
3.15981
3.17569
3.17906
3.15912
3.17256
3.22112
3.20121
3.24355
3.25012
3.24807
3.22589
3.22614
3.21095
3.21392
3.21077
3.22056
3.21726
3.22231
3.22049
3.21529
3.21248
3.21613
3.21594
3.21673
3.22209
3.22393
3.21521
3.22094
3.08736
3.09676
3.10899
3.10228
3.12437
3.13446
3.1184
3.16869
3.17212
3.15986
3.15715
3.1587
3.15447
3.15157
3.13607
3.15579
3.15043
3.15677
3.16251
3.15168
3.14676
3.12201
3.12912
3.12517
3.11654
3.1173
3.10519
3.10714
3.12947
3.1252
3.13798
3.10721
3.12151
3.19324
3.19833
3.19799
3.19793
3.201
3.20586
3.20121
3.203
3.20256
3.20388
3.20007
3.20471
3.20407
3.20532
3.2075
3.1549
3.16782
3.17574
3.18431
3.1753
3.19017
3.17897
3.17166
3.19739
3.19462
3.19201
3.20291
3.18235
3.19246
3.18076
3.17598
3.2179
3.23443
3.21879
3.20686
3.20876
3.21138
3.2309
3.23284
3.2367
3.23908
3.21789
3.21264
3.22867
3.23483
3.23311
3.24382
3.22505
3.24145
3.23833
3.24368
3.23684
3.24498
3.22981
3.23683
3.23462
3.23696
3.17393
3.17468
3.16768
3.14189
3.14213
3.14945
3.14332
3.12804
3.12774
3.17407
3.17419
3.17401
3.16383
3.16541
3.0811
3.07874
3.10323
3.10582
3.11519
3.09844
3.11533
3.1205
3.21495
3.21568
3.20805
3.21224
3.21502
3.21532
3.21209
3.22165
3.2176
3.21877
3.21757
3.22195
3.20444
3.21409
3.21368
3.19941
3.20413
3.20499
3.20404
3.20357
3.20373
3.20448
3.20184
3.20332
3.19689
3.2031
3.20266
3.20902
3.20636
3.208
3.20084
3.19887
3.2039
3.20274
3.16293
3.16021
3.18394
3.18082
3.18511
3.17739
3.16647
3.2352
3.22739
3.22351
3.21179
3.24175
3.21885
3.22364
3.22115
3.228
3.22418
3.21578
3.20753
3.22274
3.20611
3.22967
3.21972
3.21999
3.22358
3.22646
3.21224
3.21706
3.23137
3.23359
3.23755
3.24266
3.23965
3.23296
3.21814
3.22717
3.19123
3.19219
3.19668
3.19558
3.19344
3.19126
3.19355
3.19179
3.18939
3.19255
3.19412
3.18985
3.1823
3.18685
3.18819
3.07385
3.08569
3.08645
3.08332
3.09259
3.08811
3.10724
3.21828
3.20497
3.21149
3.21531
3.21657
3.20891
3.20125
3.20801
3.2078
3.07473
3.11269
3.08621
3.07588
3.08824
3.07355
3.08265
3.1038
3.07398
3.10815
3.08834
3.08318
3.09279
3.18313
3.17877
3.1677
3.17224
3.16823
3.14567
3.15249
3.1493
3.13884
3.1338
3.05562
3.0516
3.06385
3.05337
3.06251
3.07005
3.06309
3.05333
3.06143
3.06672
3.07171
3.07483
3.06266
3.06877
3.06657
3.06897
3.07933
3.16914
3.19861
3.20941
3.12258
3.11733
3.12951
3.15029
3.14544
3.10175
3.10968
3.10073
3.09709
3.10751
3.11355
3.1008
3.07432
3.08104
3.20072
3.1943
3.19431
3.21245
3.21628
3.20525
3.19175
3.20292
3.18755
3.21179
3.20909
3.20002
3.15442
3.15203
3.16235
3.16133
3.16376
3.15655
3.16024
3.16941
3.17193
3.16725
3.17093
3.17488
3.22911
3.20879
3.22909
3.21342
3.2239
3.09004
3.07874
3.07326
3.08702
3.06149
3.06084
3.06439
3.07424
3.05952
3.06899
3.062
3.06847
3.05787
3.07182
3.06028
3.06717
3.08087
3.06963
3.07916
3.07261
3.0796
3.20294
3.22262
3.21803
3.21309
3.21559
3.21407
3.20762
3.20543
3.21061
3.21151
3.2069
3.20787
3.20641
3.10154
3.09358
3.23193
3.23609
3.22575
3.23919
3.24238
3.23426
3.24341
3.23317
3.23516
3.22971
3.22262
3.22979
3.22582
3.22444
3.22308
3.21855
3.23668
3.22806
3.23693
3.23206
3.23466
3.22599
3.24225
3.23981
3.23399
3.23139
3.24983
3.24006
3.22606
3.22312
3.22683
3.23654
3.2471
3.2408
3.25875
3.24301
3.24558
3.23446
3.24352
3.23623
3.22333
3.23011
3.21828
3.23646
3.21506
3.22253
3.23782
3.22829
3.21984
3.2176
3.22943
3.23409
3.21633
3.21632
3.20577
3.22839
3.2201
3.2178
3.21075
3.21061
3.21952
3.22964
3.22114
3.23234
3.22523
3.19405
3.19448
3.19705
3.1971
3.19762
3.19473
3.19563
3.19911
3.20039
3.19781
3.19842
3.19118
3.18714
3.19075
3.19416
3.19076
3.17752
3.18285
3.18584
3.18766
3.19115
3.12754
3.10525
3.10849
3.11128
3.09412
3.09712
3.09796
3.10479
3.10016
3.1109
3.09956
3.11364
3.12431
3.12812
3.11982
3.11569
3.11072
3.08886
3.09241
3.09795
3.08316
3.07337
3.11151
3.10557
3.08536
3.08515
3.08059
3.07462
3.08098
3.09687
3.08579
3.10479
3.08692
3.08023
3.092
3.08349
3.10379
3.22682
3.21437
3.22148
3.21496
3.22002
3.2168
3.20737
3.20925
3.21225
3.20408
3.20903
3.20665
3.20763
3.20446
3.20769
3.2084
3.20456
3.13359
3.15525
3.12377
3.13223
3.14095
3.14612
3.13888
3.13434
3.15056
3.1653
3.13878
3.15251
3.13529
3.15438
3.1404
3.14357
3.16642
3.17444
3.23204
3.24403
3.24006
3.23213
3.23598
3.25273
3.24265
3.25203
3.23998
3.22769
3.25002
3.25413
3.23643
3.23904
3.23563
3.24322
3.23667
3.24466
3.23889
3.23167
3.23096
3.23644
3.22206
3.22567
3.24353
3.24558
3.23139
3.24
3.23058
3.25086
3.24253
3.21138
3.21226
3.2103
3.21141
3.21092
3.21378
3.20966
3.21036
3.21182
3.21263
3.20969
3.20529
3.19782
3.1993
3.19766
3.19711
3.19443
3.19094
3.19066
3.18436
3.1925
3.19386
3.18997
3.18687
3.19076
3.17245
3.18565
3.18545
3.18784
3.17323
3.1717
3.18309
3.18857
3.1974
3.18883
3.19446
3.1913
3.19438
3.19075
3.19241
3.19117
3.23751
3.25213
3.2496
3.26517
3.26255
3.24924
3.23855
3.23754
3.24109
3.21333
3.22202
3.24059
3.22326
3.22592
3.21221
3.24599
3.23278
3.20164
3.22261
3.20532
3.20946
3.22183
3.2191
3.22597
3.24135
3.21935
3.2245
3.24648
3.23459
3.24022
3.23846
3.14825
3.1424
3.1453
3.13882
3.13732
3.14282
3.13695
3.13237
3.12727
3.14539
3.15393
3.22944
3.23299
3.22928
3.23142
3.22782
3.22106
3.22541
3.23187
3.2249
3.22624
3.21371
3.2303
3.2266
3.22018
3.22351
3.223
3.22464
3.21939
3.21763
3.2184
3.2205
3.22879
3.21951
3.22969
3.22474
3.22221
3.22666
3.23182
3.22162
3.21647
3.23125
3.22338
3.22841
3.22184
3.21961
3.21624
3.22887
3.21912
3.21932
3.22331
3.21932
3.22972
3.22363
3.22118
3.21386
3.2253
3.23471
3.2227
3.22355
3.22698
3.23251
3.22956
3.2468
3.24464
3.25603
3.25922
3.23688
3.25565
3.2596
3.24388
3.24359
3.25254
3.24973
3.25704
3.26433
3.24911
3.2389
3.23448
3.23335
3.25954
3.25212
3.2623
3.27213
3.28404
3.25515
3.27178
3.26723
3.27517
3.26903
3.25182
3.25276
3.25587
3.25012
3.288
3.2576
3.28512
3.26278
3.29933
3.29811
3.27831
3.27494
3.25913
3.25738
3.22163
3.22053
3.22238
3.22064
3.2301
3.22481
3.21928
3.22676
3.22545
3.22649
3.22663
3.22386
3.22666
3.23156
3.22967
3.23103
3.22528
3.23052
3.22559
3.22248
3.22045
3.23102
3.13039
3.1286
3.12976
3.1115
3.12999
3.12951
3.12882
3.13932
3.13268
3.16364
3.18126
3.22609
3.23205
3.19452
3.2099
3.20512
3.21385
3.20221
3.22593
3.30363
3.29597
3.30996
3.30957
3.30309
3.29921
3.29606
3.27645
3.2221
3.22573
3.22823
3.2286
3.23043
3.22465
3.22104
3.22501
3.22388
3.22502
3.22552
3.22226
3.22118
3.22354
3.18825
3.19819
3.23348
3.20709
3.19231
3.19673
3.20728
3.21309
3.21708
3.22221
3.16828
3.16564
3.1672
3.15772
3.14603
3.16143
3.17826
3.17335
3.17717
3.19054
3.17662
3.16286
3.16262
3.19871
3.1973
3.19641
3.18993
3.19275
3.19278
3.19281
3.35388
3.36346
3.36385
3.3508
3.36863
3.38467
3.35314
3.3427
3.37955
3.38704
3.39708
3.38781
3.34192
3.35184
3.34541
3.33934
3.31017
3.35021
3.3402
3.35428
3.34055
3.34764
3.22293
3.23163
3.23382
3.23779
3.24743
3.23873
3.24301
3.24613
3.23445
3.22646
3.2435
3.2488
3.26492
3.25868
3.28
3.27918
3.27811
3.27806
3.27174
3.26871
3.28809
3.27964
3.26845
3.24273
3.25231
3.27604
3.27237
3.2695
3.24061
3.27685
3.25998
3.2452
3.37164
3.36885
3.37548
3.38738
3.39457
3.39667
3.40797
3.40416
3.38136
3.21694
3.21792
3.21903
3.21978
3.2184
3.21749
3.22003
3.21612
3.21391
3.21787
3.21383
3.21115
3.21356
3.20833
3.21346
3.21375
3.21713
3.21624
3.21547
3.21203
3.21027
3.2222
3.22274
3.22164
3.22219
3.22418
3.22035
3.21982
3.22405
3.22124
3.22071
3.22226
3.22159
3.21879
3.22076
3.22423
3.22566
3.22366
3.22478
3.2232
3.22097
3.22611
3.22187
3.22079
3.22065
3.22636
3.22213
3.22589
3.22441
3.22425
3.22287
3.22384
3.22213
3.22527
3.22369
3.22417
3.2244
3.22131
3.22312
3.22214
3.2239
3.22198
3.22278
3.22245
3.22002
3.2228
3.21946
3.21867
3.21902
3.22258
3.21958
3.22068
3.2212
3.22225
3.22083
3.21946
3.22027
3.22068
3.21717
3.21964
3.2214
3.22074
3.22151
3.22126
3.25976
3.28854
3.29019
3.30257
3.26399
3.25016
3.26704
3.24299
3.23313
3.25652
3.24825
3.26038
3.25369
3.25003
3.2469
3.24948
3.24463
3.24257
3.25232
3.23169
3.24472
3.2329
3.24973
3.25038
3.23667
3.23469
3.23256
3.23211
3.23543
3.23528
3.23059
3.23889
3.2381
3.23195
3.22906
3.24906
3.25117
3.23482
3.24506
3.2304
3.22385
3.22331
3.40679
3.41229
3.39719
3.23116
3.23046
3.23245
3.23458
3.22391
3.23234
3.22949
3.227
3.22106
3.21916
3.22095
3.2199
3.21791
3.2182
3.2205
3.22152
3.22005
3.21754
3.21743
3.21808
3.21973
3.36401
3.35433
3.35785
3.36064
3.30756
3.35053
3.35655
3.34664
3.35228
3.32456
3.21753
3.2065
3.21449
3.20977
3.20958
3.21138
3.21308
3.45909
3.45317
3.45438
3.4487
3.42264
3.4662
3.47084
3.4443
3.43214
3.42405
3.42076
3.42867
3.4006
3.3969
3.43541
3.42561
3.43863
3.41884
3.40807
3.40654
3.43289
3.42348
3.22029
3.21941
3.2183
3.22099
3.21677
3.22203
3.2169
3.21619
3.22371
3.2213
3.22301
3.22357
3.22229
3.21956
3.49384
3.48853
3.48388
3.48947
3.38128
3.36594
3.33349
3.38379
3.38127
3.36711
3.35599
3.34007
3.34204
3.40928
3.38501
3.37277
3.39898
3.40723
3.415
3.4179
3.39592
3.3972
3.41276
3.40518
3.37814
3.3732
3.41663
3.41606
3.47417
3.47943
3.47922
3.49114
3.48476
3.46891
3.47062
3.4921
3.48738
3.48185
3.47919
3.48751
3.4736
3.24219
3.23764
3.25015
3.26825
3.24055
3.24357
3.24237
3.23975
3.23666
3.33945
3.33374
3.36641
3.36378
3.37619
3.37105
3.38495
3.39347
3.34505
3.36327
3.35515
3.35525
3.35136
3.21419
3.21362
3.21169
3.49808
3.48849
3.48603
3.49474
3.48422
3.48779
3.50113
3.4921
3.49891
3.48948
3.49316
3.48682
3.48228
3.42723
3.41867
3.42454
3.40682
3.41416
3.41762
3.42047
3.41422
3.41369
3.23977
3.23538
3.2314
3.23106
3.23096
3.236
3.2333
3.30859
3.29685
3.30625
3.30814
3.27743
3.25051
3.29422
3.28058
3.22151
3.2277
3.22601
3.22312
3.21902
3.22848
3.22561
3.22462
3.22341
3.22364
3.11028
3.12994
3.10489
3.10308
3.09692
3.1261
3.10859
3.11133
3.11195
3.12643
3.11935
3.10525
3.09997
3.11961
3.1134
3.21727
3.21899
3.21873
3.21773
3.21678
3.21886
3.2192
3.21751
3.21702
3.22085
3.29446
3.27888
3.30405
3.3109
3.3013
3.33219
3.30962
3.28598
3.31394
3.31572
3.32366
3.31998
3.32109
3.3191
3.11734
3.11509
3.13794
3.14986
3.1508
3.13067
3.11028
3.10261
3.11943
3.13063
3.12722
3.12035
3.21974
3.2252
3.23491
3.22648
3.23314
3.2297
3.2147
3.23851
3.22106
3.22775
3.22253
3.40413
3.42229
3.4085
3.43046
3.27087
3.28025
3.29692
3.2784
3.28771
3.26376
3.26722
3.28843
3.30082
3.29475
3.29718
3.27062
3.26435
3.25885
3.25236
3.25913
3.26259
3.36103
3.39083
3.36971
3.39931
3.41298
3.4264
3.40981
3.47614
3.47537
3.4604
3.46644
3.4759
3.48247
3.48358
3.46371
3.45699
3.48596
3.48042
3.46
3.47717
3.47269
3.22728
3.2279
3.22736
3.22558
3.21821
3.21413
3.21434
3.21556
3.22097
3.21751
3.22422
3.21447
3.21628
3.2166
3.22617
3.22735
3.22913
3.22507
3.30328
3.30052
3.31073
3.33958
3.21906
3.21253
3.20308
3.20662
3.22533
3.20557
3.20211
3.21105
3.21043
3.21186
3.21453
3.21103
3.21011
3.21532
3.21792
3.21181
3.21069
3.21675
3.21354
3.22224
3.21572
3.21873
3.21286
3.21353
3.21777
3.21463
3.22058
3.31485
3.33894
3.334
3.33909
3.336
3.35435
3.35356
3.33582
3.35863
3.35787
3.33212
3.21915
3.21995
3.21806
3.21484
3.22235
3.21983
3.22038
3.22082
3.22163
3.19902
3.20933
3.35548
3.24579
3.23314
3.24217
3.2417
3.24681
3.24082
3.2335
3.25063
3.238
3.2381
3.23479
3.22263
3.21325
3.19868
3.20659
3.20196
3.19698
3.19975
3.1969
3.20442
3.20355
3.20421
3.20642
3.19739
3.19895
3.21759
3.21514
3.21668
3.2192
3.21809
3.21597
3.21984
3.21923
3.21722
3.21428
3.21727
3.21742
3.24455
3.26926
3.25815
3.26417
3.24847
3.25496
3.25169
3.25789
3.25979
3.24749
3.25831
3.26451
3.25449
3.33227
3.32902
3.35028
3.3107
3.30985
3.35695
3.32511
3.32895
3.31451
3.31513
3.29823
3.30496
3.32103
3.33711
3.31869
3.31618
3.19656
3.19328
3.18073
3.19913
3.19838
3.18079
3.1871
3.18292
3.19762
3.19917
3.19803
3.19482
3.20748
3.19145
3.2532
3.27274
3.25535
3.32146
3.28971
3.26509
3.29064
3.29927
3.21998
3.22236
3.31915
3.30556
3.21695
3.21183
3.21072
3.21465
3.21577
3.21292
3.21261
3.2151
3.21133
3.21099
3.20281
3.19689
3.20298
3.19469
3.19577
3.20647
3.21172
3.19573
3.1992
3.20441
3.20459
3.17714
3.18442
3.17031
3.17506
3.17774
3.18339
3.16833
3.17349
3.17549
3.17513
3.1679
3.17142
3.2202
3.21766
3.28199
3.27498
3.28459
3.27818
3.2903
3.28849
3.29276
3.27381
3.2723
3.27757
3.26668
3.2657
3.27734
3.27272
3.2726
3.27023
3.28339
3.26248
3.26063
3.20669
3.21597
3.20817
3.23189
3.24151
3.23354
3.21682
3.22699
3.22684
3.22179
3.22281
3.23514
3.22063
3.23134
3.2277
3.23443
3.23385
3.21891
3.21418
3.21968
3.2257
3.22005
3.2225
3.21669
3.2241
3.23026
3.22573
3.2213
3.22133
3.22387
3.22827
3.22497
3.22826
3.23421
3.23875
3.25057
3.23307
3.23835
3.25479
3.24369
3.26019
3.24546
3.21085
3.21154
3.21309
3.21379
3.21225
3.2125
3.20873
3.20971
3.21486
3.21416
3.21883
3.21808
3.21965
3.21783
3.22012
3.21757
3.21953
3.21456
3.21623
3.21609
3.21819
3.21847
3.2185
3.21809
3.2156
3.21722
3.21091
3.21606
3.21741
3.21328
3.19712
3.21394
3.21531
3.20644
3.18347
3.21232
3.21559
3.20071
3.20591
3.2062
3.19792
3.21739
3.21903
3.21964
3.21407
3.21987
3.22162
3.21966
3.21946
3.2196
3.22104
3.22041
3.17696
3.17572
3.16634
3.16576
3.18103
3.17582
3.1826
3.17785
3.19147
3.16279
3.16716
3.17951
3.18032
3.18562
3.19008
3.17237
3.18093
3.18581
3.18856
3.16331
3.16659
3.18014
3.16331
3.16368
3.17727
3.18603
3.17579
3.17594
3.13173
3.11711
3.1941
3.20164
3.23676
3.22065
3.22677
3.21738
3.23014
3.23525
3.22318
3.23253
3.21957
3.23693
3.22533
3.10701
3.09209
3.09718
3.08275
3.08253
3.08929
3.08627
3.10427
3.09916
3.11318
3.20163
3.20086
3.19539
3.19559
3.20233
3.20123
3.19863
3.20113
3.2009
3.21471
3.20723
3.20924
3.20701
3.21037
3.2109
3.21018
3.20833
3.204
3.19928
3.21881
3.22932
3.21668
3.21767
3.22907
3.22012
3.1719
3.18508
3.18439
3.1755
3.18367
3.18903
3.18677
3.19036
3.15849
3.14485
3.14452
3.12582
3.13703
3.18118
3.16114
3.19688
3.18591
3.18229
3.17203
3.17744
3.16471
3.16578
3.16805
3.18469
3.18891
3.20111
3.20755
3.21058
3.08759
3.089
3.20472
3.20508
3.20967
3.21169
3.20435
3.20541
3.20625
3.211
3.21122
3.20734
3.20479
3.20721
3.20445
3.20106
3.205
3.08819
3.10203
3.10133
3.12258
3.09302
3.11102
3.0922
3.10407
3.10393
3.11711
3.11406
3.11138
3.12796
3.1321
3.12192
3.20593
3.20823
3.21249
3.2235
3.22848
3.22995
3.2368
3.22808
3.22299
3.23704
3.23804
3.24455
3.23396
3.22311
3.21309
3.20979
3.21186