/*--------------------------------*- C++ -*----------------------------------*\
| =========                 |                                                 |
| \\      /  F ield         | OpenFOAM: The Open Source CFD Toolbox           |
|  \\    /   O peration     | Version:  v1612+                                |
|   \\  /    A nd           | Web:      www.OpenFOAM.com                      |
|    \\/     M anipulation  |                                                 |
\*---------------------------------------------------------------------------*/
FoamFile
{
    version     2.0;
    format      ascii;
    class       surfaceScalarField;
    location    "100";
    object      phi;
}
// * * * * * * * * * * * * * * * * * * * * * * * * * * * * * * * * * * * * * //

dimensions      [0 3 -1 0 0 0 0];

internalField   nonuniform List<scalar> 
37175
(
4.1333e-09
-2.03234e-09
2.12265e-09
-4.22363e-09
1.91939e-09
-2.71203e-09
-1.20718e-09
1.99987e-09
-8.01938e-10
-2.48999e-09
2.08526e-08
-1.75607e-08
-4.89615e-09
-4.79963e-09
4.80221e-09
4.89358e-09
-9.2155e-09
-5.78041e-09
7.97091e-09
7.02494e-09
-4.49088e-09
-6.09621e-09
1.51459e-09
9.07241e-09
-6.94989e-09
-2.44736e-09
4.90633e-09
-6.84553e-09
-6.13894e-09
6.88816e-09
-1.32789e-08
-5.16646e-10
2.63927e-09
-9.3763e-09
4.28953e-09
-4.30262e-09
1.77255e-10
-2.01374e-09
-1.00155e-08
-4.72651e-09
1.46306e-09
-3.85079e-09
-1.04673e-08
-4.92633e-10
8.5297e-09
-6.00041e-09
-2.03683e-09
4.27826e-09
-7.03823e-09
5.39925e-09
-4.25614e-09
1.00489e-08
-6.15147e-09
4.2982e-09
-2.8733e-09
-5.792e-10
-9.42312e-09
9.19769e-09
-6.921e-09
2.53711e-09
-4.81404e-09
1.24447e-08
-3.73975e-09
4.41379e-09
-2.9414e-09
-1.29527e-09
-5.41352e-09
5.57114e-09
-8.73485e-10
3.9896e-09
-3.6953e-09
-5.24666e-09
-1.11955e-08
-2.54101e-09
4.533e-09
6.54625e-09
-1.67915e-09
-7.24908e-09
2.38202e-09
4.48386e-09
4.74348e-10
1.58809e-09
-4.02615e-09
2.79887e-09
1.05271e-08
-9.29969e-09
-1.14207e-09
5.00349e-09
6.22476e-10
3.23263e-09
-4.33318e-11
-4.86845e-09
2.46598e-09
-3.75412e-10
8.33734e-09
-1.38115e-09
-6.07299e-09
-8.83117e-10
6.24433e-10
3.68684e-09
-1.02409e-09
8.82646e-09
-3.26827e-09
-4.22573e-09
2.95226e-09
4.54184e-09
-3.99006e-09
1.00042e-09
-2.78553e-10
5.4796e-09
-3.6382e-09
-5.83142e-09
1.87832e-09
-5.06267e-09
-3.73904e-09
5.66721e-09
-2.72629e-10
1.40081e-08
-2.36949e-09
-1.24405e-08
4.11423e-09
-9.42421e-09
4.07812e-09
1.23184e-09
1.44204e-08
3.70188e-09
-2.69346e-09
-9.10028e-09
8.45757e-09
-9.16783e-09
1.51306e-08
7.39912e-09
-7.63693e-09
-2.45568e-09
7.70822e-09
3.76898e-09
5.17857e-09
-2.3919e-09
4.92145e-09
-5.11898e-09
1.63519e-09
-7.22283e-09
1.07065e-08
8.27186e-09
-1.11486e-08
3.86751e-10
-1.94031e-09
-4.80698e-09
1.62824e-09
9.70127e-09
7.10834e-09
-8.53778e-09
1.52713e-08
-4.9244e-09
5.92097e-10
-3.15459e-10
6.418e-10
-1.56882e-09
1.24223e-09
5.43239e-10
1.12902e-10
-9.71714e-10
5.91905e-10
-2.57696e-11
-2.3007e-11
-3.53264e-10
2.7003e-09
-1.70548e-09
-6.14965e-10
-1.42892e-09
1.69047e-09
7.3647e-10
-1.23863e-09
2.22864e-09
-1.36213e-09
-1.13741e-09
2.70738e-10
4.91132e-10
3.44584e-09
-1.70859e-09
8.57602e-10
1.30147e-09
5.40788e-10
8.21747e-10
1.40714e-09
-1.37137e-09
2.9382e-10
-9.19524e-10
2.64973e-10
-4.87567e-10
1.04413e-09
-5.96505e-10
1.35249e-09
-9.31792e-10
-1.52363e-10
-4.60947e-11
2.30654e-09
1.19464e-10
-3.42233e-09
9.96316e-10
-7.64193e-10
1.991e-10
2.87162e-09
-1.92879e-09
1.42953e-09
6.18759e-10
-2.71563e-09
4.58957e-09
2.20983e-09
-4.08376e-09
9.24107e-10
-1.94911e-09
-1.69059e-09
7.14355e-10
1.0909e-09
-3.36617e-09
1.56095e-09
3.5062e-09
-1.91759e-09
-6.64496e-10
-2.43953e-09
5.18915e-10
8.7616e-10
1.04438e-09
-2.25009e-09
-2.17061e-09
1.98118e-09
2.40208e-09
2.90182e-09
2.0821e-09
1.94296e-09
2.45582e-10
3.07006e-09
-1.90151e-09
-1.41411e-09
4.72974e-09
-7.11454e-09
-3.38729e-10
-2.98903e-09
-7.54858e-09
-3.6528e-09
-1.16642e-08
-5.19922e-09
-1.42745e-08
-4.86172e-09
1.85991e-09
5.44563e-09
-4.25883e-10
-6.87959e-09
4.09261e-09
-3.36222e-09
1.1296e-09
6.88675e-09
-1.89731e-09
4.56204e-10
-2.70594e-09
3.56924e-09
6.02351e-09
9.98739e-09
-1.8877e-09
-9.99694e-09
3.95354e-09
-1.36167e-09
7.39552e-09
5.70452e-10
8.16282e-10
-5.86049e-10
8.10885e-09
-2.50989e-09
-2.45673e-09
4.38062e-09
-2.65716e-09
7.17771e-10
2.825e-09
2.78154e-09
-2.351e-10
-5.37142e-09
2.15801e-09
1.61453e-09
-9.47548e-10
-4.62449e-09
5.11373e-09
1.66872e-09
2.77507e-09
-4.61788e-09
5.75897e-10
-1.41693e-09
1.24226e-09
-4.01161e-10
2.5622e-09
-3.71757e-10
1.30781e-09
-2.95982e-09
-1.02252e-09
1.30522e-09
4.83103e-09
7.8225e-09
-1.17834e-09
-3.86904e-09
-9.36707e-11
6.89367e-09
2.52866e-10
3.61459e-09
5.81026e-09
-2.31689e-09
-4.67168e-09
7.2835e-10
4.9883e-09
-2.28849e-09
2.8116e-09
7.19174e-10
-3.29757e-09
3.79282e-09
2.62493e-09
-2.89646e-09
-3.2684e-09
3.54e-09
-1.82845e-09
-3.36926e-09
7.82266e-09
-1.36016e-09
-4.30648e-09
2.77026e-09
-1.48415e-09
-3.46578e-09
3.12163e-09
-3.94924e-09
1.10512e-09
-2.7786e-09
7.08324e-09
-8.77069e-09
2.7237e-09
-1.96039e-09
3.25119e-09
4.03229e-09
-7.35442e-09
1.36172e-09
-2.0575e-09
-2.62735e-09
7.35716e-10
2.56403e-09
-4.98513e-09
3.63633e-10
1.14954e-09
8.4022e-10
4.82786e-09
2.42699e-09
3.24391e-09
1.01931e-09
1.18582e-08
-3.09081e-09
-9.78669e-09
-1.8124e-09
1.59719e-08
-1.31402e-08
1.29826e-08
-1.52267e-09
-1.32723e-08
9.52292e-09
4.8775e-09
-1.4179e-09
-4.10333e-09
-6.08761e-09
5.02351e-10
9.6886e-09
1.14417e-08
-7.42884e-09
7.49876e-09
1.13718e-08
7.32978e-09
1.21316e-09
9.28737e-09
7.56534e-09
7.42601e-09
2.06255e-09
-1.10112e-08
1.51458e-08
-2.15656e-09
-8.97496e-09
1.41194e-09
8.3407e-09
-9.88969e-09
5.55183e-09
-6.58008e-09
-7.27104e-11
-6.869e-10
-6.08494e-10
2.6978e-10
-7.5892e-09
1.12483e-08
-3.92884e-09
-8.97754e-09
5.02524e-09
-9.47415e-09
1.34265e-08
-9.94151e-09
-1.53128e-09
2.49524e-09
3.50328e-09
-6.69539e-09
1.63633e-09
1.55585e-09
8.79831e-09
-5.65958e-09
-1.71092e-09
-2.18704e-10
-9.3216e-09
2.0498e-10
-3.57506e-10
-6.91817e-09
-1.23449e-08
-6.73135e-09
-4.59513e-10
-1.7703e-09
2.48869e-09
-7.4497e-09
2.25051e-09
-1.09389e-08
1.25154e-09
6.39662e-09
-5.39761e-09
-2.6371e-09
6.37736e-09
-9.37831e-11
-3.60958e-08
5.01939e-09
1.36147e-09
2.97149e-08
-1.27783e-08
-5.79073e-09
-1.75268e-08
1.5967e-08
2.57294e-08
-5.50391e-09
-3.61926e-08
1.77466e-08
6.28846e-09
-8.06808e-09
1.49767e-08
-8.63696e-09
-1.91181e-08
1.21446e-08
4.96454e-09
-2.1324e-09
1.39037e-08
3.26032e-09
-1.64358e-09
1.91596e-08
2.30467e-10
2.65954e-08
-2.50957e-09
2.27359e-09
-1.26936e-08
1.41301e-08
-3.71016e-09
2.39547e-08
-2.52143e-09
-1.44057e-09
-1.40297e-08
8.66267e-09
1.94972e-08
-2.44367e-09
1.23686e-08
9.99995e-09
-2.14807e-08
9.03707e-09
1.26628e-08
-2.17314e-08
1.90686e-08
1.64238e-08
-3.05647e-08
8.2177e-09
2.79678e-08
-2.22818e-08
3.80124e-08
-2.73793e-08
9.99023e-09
2.96511e-09
2.5057e-08
2.95431e-08
1.61731e-08
-1.10584e-08
4.43194e-09
1.36182e-08
-2.38598e-08
-6.4492e-09
1.66908e-08
-2.29159e-08
3.20166e-08
4.51749e-09
-1.9122e-09
-7.79945e-09
-1.41481e-08
-9.66502e-09
-1.5163e-08
-5.34231e-09
-1.82539e-08
2.17866e-08
1.80971e-09
-1.67774e-08
-5.86067e-09
1.72958e-08
4.79707e-09
-5.62596e-09
-1.7425e-08
-2.67472e-09
-9.30559e-09
-1.65054e-08
5.08078e-09
4.97541e-09
-1.9878e-08
2.15226e-08
-1.13097e-08
-1.62372e-09
1.04555e-08
-1.66313e-08
-8.30609e-09
9.33478e-09
2.07579e-08
-1.63682e-09
1.15209e-08
-1.25588e-08
1.93301e-08
-2.65929e-08
-1.91326e-08
-4.13901e-09
1.05933e-08
-7.53541e-09
4.03013e-09
-7.08806e-09
9.12235e-09
-4.1362e-10
1.88453e-09
3.65147e-09
8.13181e-09
4.82808e-09
-1.66114e-08
7.19434e-09
8.28543e-09
-1.18283e-08
7.88096e-09
1.33904e-08
-1.31396e-08
-5.86987e-09
2.09451e-08
9.4826e-09
-1.21899e-08
9.04837e-09
-3.63835e-09
-1.37993e-09
1.18761e-08
6.29455e-09
1.04947e-08
4.79409e-09
-5.80623e-09
1.81477e-09
8.26628e-09
8.02764e-09
-3.38062e-09
7.91546e-09
6.61772e-09
-1.14285e-09
-1.17037e-09
1.38799e-08
1.35957e-08
-1.19507e-08
6.38263e-09
8.88015e-09
1.15602e-09
1.08528e-09
-1.11215e-08
-1.33685e-09
2.27778e-09
7.9391e-09
1.41057e-09
5.7527e-09
-8.54025e-10
-6.30925e-09
1.40496e-09
-4.88666e-09
4.6377e-09
-7.07859e-09
9.58996e-09
-6.54709e-09
4.03573e-09
-7.05298e-09
-2.12323e-09
2.09756e-09
2.7973e-09
-1.79561e-08
1.62441e-08
1.16827e-08
-1.03853e-08
1.13193e-10
8.63285e-09
-5.85997e-10
1.54304e-09
-9.91016e-10
-4.657e-09
1.42555e-08
-1.24491e-08
-2.61229e-09
1.03207e-08
-3.80817e-09
5.32606e-09
7.37267e-10
1.28024e-08
-9.7959e-09
1.34094e-08
-1.64158e-08
-1.44824e-09
-6.72159e-09
2.09723e-08
1.00379e-08
-2.66692e-08
6.8354e-09
6.57887e-09
-2.46377e-09
9.29437e-09
-5.80734e-09
1.69102e-08
-4.52404e-09
-1.55507e-08
2.22316e-08
-1.24882e-08
-1.08804e-08
1.93291e-08
7.43698e-09
-1.58857e-08
7.61457e-09
-5.70686e-09
-1.27881e-08
1.49969e-09
3.74161e-09
-1.99833e-08
1.47421e-08
1.54996e-08
4.15643e-09
-1.81564e-08
1.04713e-08
-1.59841e-08
-4.39163e-09
2.02268e-08
6.39645e-09
1.13629e-08
1.15577e-09
-1.94002e-08
-3.69248e-09
4.06388e-09
1.90289e-08
-2.58771e-09
3.41436e-09
1.61247e-08
-3.01501e-09
6.21948e-09
-4.53216e-10
1.99038e-08
-3.32589e-09
9.76482e-10
1.12229e-08
3.30026e-09
2.17038e-08
-3.61798e-09
8.6469e-09
1.99748e-08
-8.58598e-10
2.35854e-08
-1.27052e-08
1.43465e-08
4.13208e-09
-5.77339e-09
-1.4735e-08
9.12007e-09
-7.09036e-09
-6.43082e-09
8.57408e-09
7.09753e-09
-9.24087e-09
-7.20076e-09
-1.6422e-09
2.4121e-09
-3.98377e-09
-1.19439e-08
1.1926e-09
4.3009e-09
6.66937e-10
4.15223e-09
6.97241e-09
1.1675e-08
1.46656e-09
-2.7956e-09
-2.93726e-09
4.26618e-09
-3.10615e-09
-1.31088e-09
5.88343e-09
-1.5493e-09
-4.3525e-09
1.42356e-08
-8.40667e-10
-9.77496e-09
3.41481e-09
7.70153e-09
-3.90225e-09
-7.78316e-09
3.34641e-09
5.02202e-09
-3.0057e-09
3.41482e-09
-4.02965e-09
-1.80175e-09
2.82563e-09
-8.77261e-09
-6.10473e-09
-7.38035e-09
1.98273e-09
1.15022e-08
-3.67405e-09
-4.09549e-09
1.6647e-09
-7.65767e-09
4.26685e-09
-8.32985e-09
-3.00205e-09
-4.98128e-09
-5.38551e-09
-5.39976e-09
-4.92354e-09
5.1404e-09
5.18275e-09
-6.55235e-10
-4.77056e-09
2.59105e-11
-4.75128e-09
4.85068e-13
-8.1517e-09
-1.58093e-09
-5.66375e-09
-5.5521e-10
-5.82791e-09
-4.60648e-09
1.26943e-08
-7.02096e-10
4.28343e-09
9.5322e-09
-1.31135e-08
1.14949e-08
4.30926e-09
-1.65062e-08
-2.28649e-08
-1.23604e-08
2.28193e-08
1.24061e-08
-2.53553e-08
1.76596e-08
-1.51691e-08
-1.00182e-08
-2.03563e-09
2.03742e-08
-8.32021e-09
1.35086e-08
-6.37932e-09
-1.71475e-08
1.02812e-08
-7.9172e-09
-2.77192e-08
-4.11481e-09
3.67113e-09
-1.48628e-08
1.54752e-08
-1.47456e-08
2.14373e-08
-3.02053e-09
1.03106e-08
4.39151e-09
2.95755e-09
1.83843e-08
1.69263e-08
-7.36207e-09
-2.22659e-08
1.27017e-08
1.32887e-08
5.72918e-09
-2.09157e-09
5.57097e-09
1.21092e-08
-5.14179e-09
-5.74474e-09
1.67218e-08
-5.83526e-09
-9.26839e-09
1.47798e-08
-9.01514e-10
-2.16586e-08
1.06088e-09
7.60697e-10
-4.23528e-09
2.41359e-09
1.44366e-09
8.69038e-11
1.51928e-09
-3.05073e-09
1.29431e-09
2.94135e-09
-2.79203e-09
-1.72279e-10
3.58524e-09
-3.17542e-09
-2.37707e-10
-2.47316e-09
2.38042e-09
-7.96127e-11
2.24188e-09
1.42974e-09
-2.61083e-09
-3.58983e-11
-1.95512e-10
6.52159e-09
2.58048e-09
-4.04132e-09
-5.06088e-09
-7.99847e-10
1.07557e-09
6.24578e-09
1.86747e-09
1.05014e-09
2.62452e-09
-1.17632e-10
4.75294e-09
-2.51401e-09
7.6824e-10
-4.12047e-09
8.39831e-10
5.84031e-09
-4.88248e-09
-4.76866e-10
-8.649e-09
-7.09106e-10
9.83503e-09
-5.94991e-09
-1.34752e-09
6.8206e-09
2.60743e-09
-7.0239e-09
-4.2325e-09
-3.15943e-09
-1.83027e-10
-3.74476e-09
4.22422e-11
7.98106e-09
-4.27847e-09
-1.07447e-09
6.48502e-09
-9.1553e-09
-2.49831e-09
-5.89334e-09
4.49666e-09
3.89502e-09
-6.89677e-09
1.23906e-09
3.74849e-09
3.75822e-09
-8.58115e-09
5.31526e-09
-1.52449e-09
3.09275e-09
-4.67426e-09
-2.40782e-09
-3.92686e-10
5.80145e-09
4.05166e-09
-6.09485e-09
4.05821e-09
-6.64588e-10
2.39474e-09
-1.43754e-09
6.49862e-09
2.38115e-09
-8.15178e-09
-8.75623e-10
8.31832e-09
-2.09169e-09
5.24086e-09
6.34561e-09
3.34152e-10
-2.62808e-09
6.8982e-09
3.50565e-09
-1.319e-09
3.93091e-09
-1.00361e-08
2.959e-09
1.09381e-09
5.98315e-09
-1.67818e-10
2.56322e-10
-1.01246e-08
-9.13243e-09
1.10557e-10
-3.98317e-09
1.3005e-08
5.50905e-09
-5.40207e-09
-2.74841e-10
5.05903e-09
3.40901e-09
2.2255e-09
-1.02641e-08
2.48392e-09
7.24479e-09
-9.49156e-09
-2.37242e-10
-6.95725e-09
9.12574e-09
3.15389e-10
-7.54115e-09
1.231e-08
-4.65833e-09
7.5054e-09
-4.33062e-12
5.94738e-09
4.40049e-09
6.05923e-09
-5.31192e-09
-5.14781e-09
9.70905e-09
-4.40641e-09
-9.02142e-10
7.04237e-09
-1.29481e-09
3.11688e-10
6.70175e-09
1.00497e-08
-1.23986e-08
8.55143e-10
6.40017e-09
5.1433e-09
-6.66997e-10
-1.16959e-09
-1.0562e-08
8.7598e-09
-2.19535e-09
-7.23147e-09
1.0742e-08
-9.41215e-09
7.42999e-09
-2.67373e-12
3.87024e-09
-1.13853e-08
7.51767e-09
8.42404e-09
-1.28331e-08
-4.37763e-09
1.01239e-08
-6.08091e-09
3.34703e-10
-1.01652e-08
4.57829e-09
2.74942e-10
-7.69858e-09
6.36629e-09
5.20249e-09
1.23726e-08
-1.13086e-09
-1.24114e-08
9.26037e-09
-4.58634e-09
6.44929e-09
-3.32997e-09
-1.0524e-08
2.46869e-09
-1.70139e-08
-6.51809e-10
1.43357e-08
7.32164e-09
-1.79783e-09
-7.71918e-09
-1.78758e-09
-3.02954e-10
-8.28474e-10
-1.08265e-08
9.12193e-10
-1.87546e-08
1.13107e-08
-1.21963e-08
-6.42064e-10
3.55821e-09
-4.38799e-09
-4.54562e-09
5.3754e-09
-8.12017e-10
1.26704e-09
3.10322e-09
2.03296e-09
1.59164e-10
-3.00417e-09
8.86778e-10
1.1044e-09
-4.46756e-09
2.4762e-09
2.39801e-11
-2.65812e-09
2.68777e-09
-5.37466e-11
9.98864e-10
1.21823e-09
-2.15979e-09
-5.75162e-11
3.88387e-09
-3.43153e-09
1.34635e-09
-1.79882e-09
2.26599e-10
6.52034e-09
-2.86307e-09
1.07199e-09
-4.5732e-09
4.10111e-09
-3.77188e-10
-2.65203e-09
-1.97059e-10
8.66569e-10
-1.6351e-09
-2.19284e-09
2.3187e-09
1.50929e-09
-2.59717e-09
1.13473e-09
-1.72973e-10
8.38937e-10
1.31057e-09
1.3671e-09
-1.57336e-09
-6.83364e-11
-2.65211e-09
5.19728e-09
-2.27206e-09
7.54547e-10
3.48678e-09
-2.49692e-09
1.01744e-09
-1.13204e-09
-5.9669e-09
8.12083e-10
6.28691e-09
-6.14248e-09
-4.12977e-10
5.42345e-09
-9.92861e-09
4.42877e-09
-4.76232e-09
1.02622e-08
-8.99916e-09
1.43642e-09
-2.36586e-09
4.23436e-11
-6.32244e-09
3.28733e-09
2.99283e-09
-5.80137e-09
1.00659e-08
1.64257e-10
-6.96588e-09
2.24592e-09
-4.80049e-09
-1.11645e-08
-8.78842e-09
7.3936e-10
2.2477e-09
-6.1715e-09
-1.1805e-09
3.37216e-09
-1.85739e-09
-7.68624e-09
1.52226e-09
6.86258e-09
-5.01267e-09
-1.24522e-09
-3.37499e-09
-2.61693e-09
-4.95072e-09
1.63505e-09
-9.2748e-09
-4.1272e-09
3.87171e-09
3.57623e-11
2.19758e-10
2.10629e-09
-2.44826e-09
-3.78522e-09
-1.05523e-09
4.87895e-09
4.79945e-11
4.90237e-09
1.20423e-09
-4.0003e-09
3.78485e-09
6.23155e-11
4.78307e-09
1.98856e-10
-7.43013e-09
4.59814e-09
2.20718e-10
-1.79269e-09
2.59893e-09
4.07272e-09
-6.50508e-09
5.24647e-09
5.04346e-09
-3.61391e-09
-1.68692e-09
-6.22556e-09
5.77759e-09
-6.80604e-09
7.25408e-09
-1.05599e-08
4.53316e-09
1.1612e-09
1.64428e-09
-1.81108e-09
-4.70591e-10
4.88063e-09
-8.06997e-10
4.24243e-09
1.67195e-09
5.34959e-09
-7.82842e-09
1.42478e-09
7.31048e-09
-2.95765e-09
2.51139e-09
7.45975e-11
4.6964e-09
5.12549e-09
5.89775e-09
1.83384e-08
6.333e-09
-7.62626e-09
-1.70452e-08
4.9878e-09
5.01083e-09
8.33978e-09
3.13942e-09
9.07707e-09
-7.9271e-09
1.63135e-08
-1.94832e-09
-8.03218e-09
1.11068e-08
1.01944e-08
5.14695e-09
-1.30715e-08
2.98271e-10
-7.71477e-09
1.03207e-08
-7.11627e-09
1.53271e-08
-2.81164e-09
1.18925e-08
-6.55975e-09
-7.28114e-09
1.04073e-08
6.01812e-09
1.43978e-08
-1.11076e-09
-1.03196e-08
-4.27828e-09
1.57086e-08
-9.12985e-09
2.62585e-08
-1.82395e-08
-3.47499e-09
1.60917e-08
-1.94883e-08
6.87158e-09
1.02436e-08
-1.87238e-08
5.00523e-09
1.15037e-08
-8.91541e-09
1.35035e-08
-1.98649e-08
-4.1622e-10
1.11512e-08
-1.76669e-08
4.51886e-09
2.82844e-09
1.02587e-08
1.4125e-08
-3.90104e-09
-2.04826e-08
1.55503e-08
-2.16489e-08
1.63422e-08
1.89748e-09
-1.47096e-08
2.19735e-08
6.86099e-09
1.29032e-08
-1.26849e-08
-1.49278e-08
9.59526e-09
1.1962e-08
-2.19251e-08
2.72421e-08
-4.70733e-09
-4.31462e-09
-6.82388e-09
1.12212e-08
-7.62794e-09
-1.02803e-08
6.68709e-09
-5.14254e-09
-2.01715e-09
1.83809e-08
-1.09887e-08
-5.24661e-09
1.10928e-08
-1.51256e-08
-3.49095e-09
-7.02572e-09
-5.51596e-09
1.05246e-08
1.50293e-09
-1.17197e-08
3.19111e-09
-1.35897e-08
4.81234e-09
-7.61103e-10
-1.773e-08
1.32445e-08
-1.97017e-08
5.81691e-09
1.31237e-08
4.99325e-09
-1.81596e-08
-4.56364e-09
-1.55509e-08
8.4251e-10
1.16502e-09
-7.2949e-09
-5.58985e-09
-6.84233e-09
-5.58235e-09
-1.07217e-08
1.10227e-08
3.14963e-09
-4.5977e-09
-1.67115e-08
-9.13019e-10
-1.14883e-08
-6.70082e-09
-1.52671e-08
-2.89621e-09
-8.73851e-09
1.68711e-09
-1.29856e-08
-8.50398e-09
2.31572e-09
1.48802e-08
-1.88325e-09
-1.53128e-08
1.22128e-09
-1.28848e-08
1.39792e-08
1.00112e-08
2.25694e-09
2.61207e-09
1.23535e-09
3.01444e-09
3.02968e-09
-7.27955e-09
6.6523e-09
-1.25356e-08
7.11857e-09
-4.77505e-10
1.51437e-08
-1.3445e-08
1.30069e-08
-3.09672e-10
-1.31748e-08
-8.52945e-10
6.66223e-09
-7.69261e-09
5.38606e-09
2.26399e-10
-1.21722e-08
1.03285e-09
-7.15693e-09
1.27763e-08
-1.79712e-09
5.84441e-09
-1.13179e-08
-7.3379e-09
1.14988e-08
5.84357e-09
-4.15457e-09
-2.65893e-09
-4.03307e-09
-7.8353e-09
1.14242e-08
-4.4303e-09
6.60615e-09
6.80426e-09
-7.96689e-09
1.34602e-09
8.8588e-10
2.22307e-09
5.92721e-09
7.44963e-09
-6.52005e-09
-1.17508e-10
1.17978e-09
6.69975e-09
-4.29873e-10
2.19905e-09
-2.64879e-09
-1.02412e-08
1.06909e-08
-5.01586e-10
-1.01942e-08
1.28949e-08
8.66849e-09
-1.25139e-09
4.06085e-10
-5.29109e-09
-7.90175e-09
8.57997e-09
7.09488e-09
-1.08539e-08
-6.4821e-09
-3.82659e-09
7.2725e-10
-8.66789e-09
-3.06043e-09
2.35709e-09
-1.09633e-08
-5.90468e-09
-2.72789e-09
1.02409e-08
2.40518e-09
-9.91835e-09
8.60236e-09
-2.91238e-10
-1.10392e-08
3.76706e-09
8.61082e-09
-3.77576e-09
1.40364e-08
-2.84466e-11
-1.8803e-09
1.76674e-08
-1.3382e-08
-9.70942e-10
1.3659e-08
-4.07745e-09
1.55132e-08
-1.60435e-08
9.55908e-09
-9.02889e-09
-6.70697e-09
1.66469e-08
5.57306e-09
-3.16365e-09
1.6204e-08
-1.49209e-08
9.05459e-09
-1.25095e-08
5.56582e-09
-1.25548e-08
-2.11221e-09
-1.10079e-08
-1.99114e-09
5.70045e-09
7.2985e-09
-1.27185e-08
1.93779e-08
-5.02109e-09
1.17361e-08
6.94386e-09
7.0241e-09
1.45527e-08
-4.21578e-09
-7.7798e-10
1.89817e-08
1.22179e-08
1.3505e-08
-1.51684e-09
1.48942e-08
3.80185e-10
-1.7695e-09
2.11464e-08
-9.11768e-09
2.86539e-09
-1.22132e-10
-8.87789e-09
8.48793e-10
-9.50056e-09
3.46796e-10
-9.88483e-10
-1.09839e-09
-1.12902e-08
1.3377e-08
-8.20524e-09
-1.12121e-08
6.82705e-09
-4.82027e-09
-1.22629e-08
2.88692e-09
-1.31901e-08
-5.83213e-10
-9.34544e-09
2.73177e-09
1.30502e-08
-9.16295e-10
-1.31225e-08
-1.13705e-09
4.84183e-09
-1.63811e-08
4.3507e-09
8.1825e-10
-2.63045e-09
-1.48491e-08
-1.453e-08
6.2934e-09
-1.42536e-08
3.73473e-09
-4.01132e-09
-1.42695e-10
-1.67414e-08
-1.17826e-08
2.32715e-09
-1.28416e-08
-4.52511e-09
1.86502e-09
7.41212e-10
1.91854e-09
1.25577e-09
-1.69753e-09
-4.08339e-09
-1.4629e-09
1.08961e-09
3.35027e-09
-2.97713e-09
-6.47605e-10
-2.52087e-09
5.29592e-09
-2.95058e-09
2.30502e-09
4.8559e-09
2.32318e-09
2.32851e-09
3.18508e-09
-2.50305e-09
-1.98325e-09
1.30113e-09
2.32977e-09
1.59639e-09
-2.90177e-10
-3.91047e-09
-3.16368e-10
4.94451e-09
4.10778e-09
-2.09447e-09
-2.36674e-09
3.71824e-10
4.4297e-10
1.85821e-09
-2.67296e-09
2.0335e-09
-2.19862e-09
5.36419e-10
-1.31373e-09
-2.91854e-09
-1.93926e-10
-3.52623e-09
5.53074e-10
-7.7255e-10
-5.30363e-11
4.78596e-09
-1.37606e-08
1.16017e-08
-2.62711e-09
-6.37563e-09
1.38633e-08
-2.70176e-09
1.56492e-08
-1.09442e-08
1.27632e-08
1.55915e-08
1.22426e-09
-1.24509e-08
1.36003e-08
1.16138e-08
-1.08631e-08
9.48308e-09
8.35849e-09
-3.7502e-10
-1.04244e-08
8.63973e-09
1.73762e-08
2.53359e-09
-1.12874e-08
-1.29918e-09
2.0861e-09
1.05006e-08
-3.28881e-09
-5.59434e-09
-2.40428e-09
5.63053e-09
3.04432e-09
-2.27126e-09
-6.40354e-09
-8.41055e-11
2.42589e-09
3.51743e-10
-6.11399e-09
8.80659e-09
1.25239e-08
-9.412e-09
-8.70624e-09
-1.99575e-08
2.83769e-09
1.58207e-08
-1.10499e-08
3.61623e-09
7.96923e-09
-3.12578e-09
3.37645e-09
-8.21986e-09
6.45227e-10
-1.23285e-08
-1.2749e-08
-6.70108e-09
8.40022e-09
3.17108e-10
9.73824e-09
-1.06257e-08
7.39275e-09
1.07194e-10
-2.88003e-09
-7.39392e-09
3.1106e-09
-1.52144e-08
1.52747e-09
1.75901e-08
-1.62799e-08
9.23732e-09
-8.55581e-09
8.78636e-09
-8.20034e-09
-1.05345e-09
2.52951e-09
6.72428e-09
3.09771e-09
-3.83127e-09
-2.82313e-09
7.03389e-09
-2.14164e-13
6.51902e-09
1.14338e-09
-8.71585e-09
4.1125e-09
-2.55896e-09
-2.06674e-09
2.68649e-09
-1.40978e-09
7.90055e-10
1.12913e-09
9.16634e-10
9.91558e-09
1.58822e-09
-5.91629e-09
-5.58755e-09
4.83022e-09
3.28718e-09
1.7982e-09
2.49963e-11
3.0855e-09
2.89548e-09
-2.44599e-09
6.79628e-10
5.78344e-09
1.5763e-09
5.662e-09
-1.86045e-09
-2.21334e-09
3.96924e-09
4.97997e-09
-2.00272e-09
3.89525e-09
2.98811e-09
2.14612e-09
-7.61242e-11
-3.06596e-09
3.28715e-09
5.40307e-09
-5.62424e-09
6.64347e-10
-3.55402e-09
-1.76281e-10
-2.19454e-09
1.82391e-09
6.26839e-09
3.43975e-10
2.58701e-09
2.8245e-09
-1.40337e-11
4.03895e-10
5.31529e-09
8.87476e-10
2.74371e-09
4.11589e-09
-7.24632e-09
9.14667e-09
-7.32744e-09
5.42711e-09
2.51551e-09
-9.64515e-09
-1.16719e-10
-5.46385e-09
3.52864e-09
1.10819e-08
-4.7379e-09
1.78955e-09
2.38204e-09
-6.51398e-09
-5.51323e-09
-5.15665e-09
1.37117e-08
-3.07975e-09
-5.47537e-09
1.27962e-08
-6.71673e-09
-3.69742e-09
1.74356e-09
6.31468e-09
8.22772e-09
-1.64718e-09
-1.11558e-08
4.57521e-09
9.26678e-09
-6.19573e-09
-1.20722e-08
-2.27982e-09
8.02279e-09
6.32922e-09
1.45531e-09
-4.26075e-09
4.10439e-09
6.22601e-09
5.09908e-09
-9.58155e-09
8.58735e-09
-1.03463e-08
1.28527e-08
-1.10937e-08
1.36174e-08
-4.30282e-09
-4.78737e-09
-3.5383e-09
1.18543e-08
-5.9794e-09
9.21481e-09
-3.8011e-09
-7.22994e-10
-7.34507e-09
1.00328e-08
-1.68981e-08
4.90459e-09
4.29821e-09
4.75336e-09
1.05705e-08
3.35761e-09
-6.11724e-09
-2.12153e-09
4.8812e-09
-1.34918e-09
-4.39483e-09
-2.65327e-09
-7.72834e-09
4.26434e-09
5.44892e-09
-9.1682e-09
1.066e-09
-3.87656e-09
-4.52621e-09
-7.46613e-09
1.46805e-09
4.79136e-09
-3.73727e-09
-5.42915e-09
-1.24406e-10
-2.1748e-09
-1.08516e-08
-3.74577e-09
-4.15553e-09
-3.435e-09
9.55916e-09
5.64414e-09
-1.32406e-08
-1.96276e-09
-2.40315e-09
7.79343e-09
4.16884e-09
-9.14592e-10
5.29872e-09
-2.03153e-09
5.97649e-10
4.68233e-09
-5.06644e-09
-2.13565e-10
3.38472e-09
-3.51909e-09
7.32001e-10
5.20084e-09
2.67906e-09
-3.19764e-09
-3.11096e-09
3.89871e-09
4.41305e-09
-5.52924e-10
8.26671e-10
8.19011e-10
1.02526e-09
-6.91071e-09
-3.45307e-09
7.52976e-10
-1.90269e-09
7.81258e-09
6.09135e-10
5.56455e-09
-6.44199e-09
2.62886e-09
-1.60037e-09
1.64998e-09
-7.90652e-10
7.3182e-09
1.24075e-09
7.67178e-09
-3.34802e-09
1.17559e-08
-2.70258e-09
-2.57471e-09
-2.68667e-09
4.47067e-09
-4.41527e-09
8.70867e-09
-6.86809e-09
-3.80201e-09
5.62404e-10
3.73963e-10
-4.78337e-09
6.07393e-10
-2.34489e-09
9.68546e-09
3.72645e-09
-2.24534e-09
5.81463e-09
9.01401e-10
8.51099e-11
6.37823e-09
8.11343e-09
-6.76749e-09
-7.36797e-10
1.63991e-09
6.96205e-09
-1.1694e-10
-8.48502e-09
5.36248e-09
2.79187e-09
-9.50571e-10
-7.20377e-09
6.50212e-09
-7.71379e-09
-7.94737e-09
9.15905e-09
9.37734e-09
2.48725e-09
1.25438e-08
1.11219e-08
-1.50093e-08
-8.65642e-09
1.3022e-08
1.16165e-09
8.18653e-09
1.5674e-09
6.35338e-10
1.27966e-08
-4.05467e-09
-2.52561e-09
3.3746e-09
1.2173e-08
7.33536e-09
1.2609e-09
1.21965e-08
-1.90201e-08
1.52936e-08
1.06766e-08
-6.95015e-09
-4.60334e-09
-1.23339e-08
-2.08278e-09
5.2607e-09
1.35396e-08
-1.73799e-08
-1.42026e-09
5.30626e-09
1.5248e-08
1.30064e-08
-1.78962e-08
6.20533e-10
4.26919e-09
9.41209e-09
-1.17036e-08
1.52979e-08
-4.78678e-09
-2.32959e-08
9.6672e-09
1.84154e-08
9.75892e-10
1.37987e-08
-5.36249e-09
1.68142e-08
-1.05321e-08
-9.64791e-09
1.46037e-09
-3.51609e-09
-1.39392e-08
-1.36049e-08
-6.14095e-09
-6.40883e-09
7.94647e-09
3.78729e-09
-2.25132e-08
-1.5942e-08
1.35883e-08
-6.66039e-10
2.69338e-10
-6.18331e-09
6.35275e-09
1.63643e-10
-7.18241e-09
-9.50694e-09
7.23635e-10
4.78504e-09
-5.2393e-09
5.2136e-09
-4.32631e-09
5.90485e-09
4.90432e-09
-6.02409e-09
9.25725e-10
5.11182e-09
-1.32677e-10
4.81127e-09
-4.66031e-09
-9.44023e-11
5.10235e-09
-8.06553e-10
5.69311e-09
4.52106e-09
8.07377e-09
1.53764e-09
-6.74694e-10
1.29654e-09
-2.15943e-09
6.45493e-11
1.66337e-09
-1.90216e-10
-1.50434e-09
1.74268e-09
-1.73731e-10
7.49748e-10
-2.92877e-09
2.15431e-09
-4.36439e-09
3.66939e-10
-1.51015e-09
-1.09849e-10
-1.75311e-09
2.05483e-09
-1.91783e-10
1.65853e-09
-1.05027e-10
9.20217e-10
-1.37667e-09
1.0984e-09
2.43133e-10
-2.07781e-09
-5.113e-10
3.30831e-09
-7.90631e-10
1.40627e-09
1.35069e-09
2.94983e-09
-2.83791e-10
-3.32021e-09
-4.23799e-10
4.02765e-09
-3.88863e-09
4.47131e-09
1.12079e-09
-2.11882e-09
2.01523e-09
-2.05635e-09
-2.565e-09
7.32631e-10
-2.68898e-09
-3.76864e-09
3.13731e-09
-5.34673e-09
6.01067e-10
-2.50963e-09
3.2065e-09
2.33083e-09
-2.13178e-09
-2.69604e-09
4.015e-10
-1.89626e-10
-2.43003e-09
-1.83309e-09
1.75339e-09
-1.84443e-09
-1.84235e-10
-3.06852e-09
-2.14854e-09
-1.13961e-09
-3.96592e-10
-2.23262e-09
-1.76921e-09
-4.71716e-09
-1.54641e-09
-6.83733e-10
-1.59479e-09
-1.79606e-09
-3.00666e-10
-4.53712e-09
-4.02727e-09
2.19085e-09
-2.04107e-09
6.1136e-09
-6.26339e-09
8.5299e-09
-7.40984e-10
-5.59804e-09
6.05572e-09
4.08737e-10
-8.50548e-09
1.07167e-10
-5.5067e-09
-1.2984e-09
6.69795e-09
-3.33908e-09
-5.73405e-10
4.01969e-09
-1.07711e-09
3.85164e-09
3.86041e-09
3.59239e-09
2.13029e-09
-1.58124e-09
2.97052e-09
7.28751e-09
-9.84926e-09
8.80066e-09
-6.5711e-09
-5.06313e-09
5.81823e-09
-4.33765e-10
-3.2121e-10
8.25699e-09
1.16085e-09
-3.99077e-09
-6.2928e-09
9.69085e-10
9.31457e-09
-3.58574e-09
7.85198e-09
-7.45301e-09
6.25031e-09
-4.94514e-09
1.55995e-09
-1.79763e-09
5.04726e-10
-2.67139e-10
-1.68606e-09
2.23566e-09
1.0103e-09
-3.86724e-10
2.60041e-09
-2.2712e-09
5.74422e-11
1.87631e-09
-2.13882e-09
-1.24288e-10
1.90393e-09
-1.9718e-09
-1.72987e-09
2.77041e-10
-5.92435e-11
-2.15233e-09
2.68233e-09
2.07036e-09
1.00527e-12
5.31945e-10
3.85196e-10
1.31847e-09
1.0698e-10
1.12573e-10
-2.35844e-09
4.77289e-10
-2.64163e-09
-4.88138e-10
-4.66515e-09
2.84369e-09
2.30952e-09
2.57677e-09
-4.4228e-09
1.35786e-09
7.1121e-09
5.75661e-11
-9.1217e-10
-6.25752e-09
-1.2503e-09
3.69724e-09
2.11726e-10
-8.17295e-10
3.18231e-09
-8.55083e-10
-2.6899e-09
-2.13675e-09
-4.84013e-11
2.25022e-09
3.45047e-10
-2.20431e-09
-3.99782e-09
6.10779e-10
-3.59521e-09
-4.85769e-09
6.33419e-09
4.21802e-09
-6.70006e-09
-3.85214e-09
7.56092e-09
2.06916e-09
-3.29588e-09
2.40142e-09
-6.73875e-10
-1.06998e-08
8.97219e-09
1.58667e-09
-8.07725e-09
8.89199e-09
-5.75652e-09
3.59359e-09
9.72387e-09
-2.3337e-09
7.95207e-10
8.79018e-10
-8.25297e-09
4.33937e-10
9.8961e-09
-8.7434e-09
1.20732e-08
-1.41497e-09
-1.02243e-08
-1.16753e-08
1.01852e-08
1.13862e-08
4.81302e-09
-4.41516e-09
-2.50615e-09
1.30193e-08
-6.91955e-09
5.28483e-09
-5.82078e-09
-6.32502e-09
1.40041e-08
-2.42378e-09
9.11782e-10
5.27349e-10
7.39854e-09
-5.38074e-09
5.46209e-09
-7.47999e-09
-2.52416e-09
8.24656e-09
1.67592e-09
-4.88021e-09
3.72595e-09
-1.37027e-09
-1.63272e-09
-8.62822e-09
5.14736e-09
-4.16763e-09
-2.89388e-09
1.91396e-09
3.78201e-09
4.6828e-10
-1.06103e-09
-3.18955e-09
-7.8194e-10
2.18941e-09
2.37439e-09
2.19571e-09
2.16945e-09
-8.00808e-09
5.24001e-09
1.10145e-08
-6.17314e-10
-1.92878e-09
4.71864e-09
-5.24395e-10
-1.26969e-09
-1.04891e-09
-1.84903e-09
-5.49791e-09
3.13497e-09
2.11561e-09
2.4717e-10
-1.93193e-09
-9.84625e-10
5.1056e-09
-3.10425e-09
3.36773e-09
8.97394e-09
-4.70496e-10
-3.25109e-09
1.29041e-09
3.08333e-09
-3.62251e-09
-7.51408e-10
8.41307e-10
2.79043e-09
-2.3416e-09
-1.62225e-09
-7.42113e-10
2.18551e-09
-1.54317e-09
-3.24259e-10
-3.18111e-10
-3.23509e-09
-2.88087e-09
3.23801e-09
-4.70898e-09
-1.19133e-09
-3.46593e-09
1.54727e-09
1.73948e-09
-2.12204e-09
-1.02063e-09
-1.20944e-10
-1.0095e-10
3.2572e-09
3.27385e-09
-1.43471e-08
4.40329e-09
-1.21534e-08
-7.956e-10
-8.19198e-09
-8.41641e-09
7.61472e-09
-4.81515e-09
-6.83238e-09
4.03281e-09
1.0943e-09
6.3782e-09
1.42173e-10
-2.48756e-09
-4.64126e-09
5.43961e-09
1.68918e-09
-4.55612e-09
3.16284e-09
5.10238e-09
-5.16555e-09
-4.49294e-09
2.00862e-10
2.60264e-10
7.51681e-09
-5.41017e-09
-7.30128e-09
5.19464e-09
8.67483e-09
-2.28447e-09
1.12646e-09
2.5946e-09
-9.36988e-10
-6.82317e-09
4.98123e-09
1.67714e-09
-4.06377e-09
4.98726e-09
1.9484e-10
1.90448e-09
-7.65662e-09
6.17757e-09
-1.22523e-09
-3.2752e-09
5.86061e-09
5.30421e-09
-4.73091e-09
-5.64249e-09
-6.0484e-10
7.38924e-09
-1.14188e-09
-2.1783e-09
5.86837e-09
4.8823e-10
3.24509e-10
3.99141e-09
-1.55206e-09
5.16057e-09
2.85245e-09
5.91976e-09
5.16855e-09
-5.13444e-09
-7.60788e-10
5.37063e-09
1.94428e-09
-8.86677e-10
-6.19206e-09
-2.02469e-09
-3.48898e-09
5.5871e-09
-7.3345e-11
5.17006e-09
5.47063e-10
-6.47798e-09
-4.59714e-09
5.16424e-09
4.603e-09
2.86126e-10
-4.74259e-09
-1.40697e-10
6.0917e-09
-1.77705e-09
-8.23385e-11
-4.23236e-09
-5.35357e-09
5.5355e-09
5.90973e-09
-5.18636e-09
1.15813e-09
5.71274e-10
3.43481e-09
4.96599e-09
1.56269e-09
9.13461e-10
-7.43358e-09
5.63346e-09
-6.08746e-09
6.17239e-09
-4.21964e-10
3.37011e-10
-1.05069e-09
-5.11907e-09
-4.39193e-09
1.1666e-09
3.7966e-09
-4.26489e-09
1.59056e-10
6.76495e-09
5.74021e-10
4.55228e-09
-4.68952e-09
-1.34575e-10
4.51467e-09
3.48049e-09
2.79916e-09
-1.07942e-08
3.32062e-09
5.90572e-09
-4.71165e-09
1.2272e-08
8.63825e-09
-1.74298e-08
6.70268e-09
1.27973e-08
-7.22791e-09
4.8117e-09
3.76887e-09
-5.78139e-09
-3.2253e-09
-2.41937e-09
8.56871e-09
-2.92404e-09
5.62074e-09
-4.03433e-09
1.12139e-09
6.11692e-09
-3.46941e-09
7.39739e-09
-2.95539e-09
2.02561e-09
-1.29136e-08
5.85545e-10
1.03025e-08
-3.0155e-10
9.05505e-09
-6.72789e-09
1.10321e-08
1.57626e-09
9.1508e-09
-2.93191e-09
1.25212e-08
9.42681e-09
-5.40763e-09
6.72753e-09
7.24882e-09
-8.64135e-10
1.07724e-09
-4.2329e-09
5.60219e-09
6.02809e-09
1.0199e-09
-4.58267e-09
2.70117e-09
2.09908e-09
1.10077e-08
8.52505e-09
4.34733e-09
6.14557e-09
-9.60135e-09
-8.91537e-10
9.72817e-09
-4.97172e-09
-4.09106e-10
9.52773e-09
-3.08502e-09
-2.97161e-10
6.13684e-09
8.82277e-09
-1.46186e-08
-3.40962e-10
-8.7338e-09
1.45963e-08
2.7426e-10
-9.64431e-09
1.7867e-08
6.00054e-10
2.80676e-10
-2.95717e-09
3.10126e-09
-4.248e-10
-3.4196e-09
-4.57218e-09
-7.25743e-10
-8.75597e-09
6.51833e-09
-1.18198e-09
5.84131e-09
-9.25057e-09
-1.16292e-09