/*--------------------------------*- C++ -*----------------------------------*\
| =========                 |                                                 |
| \\      /  F ield         | OpenFOAM: The Open Source CFD Toolbox           |
|  \\    /   O peration     | Version:  v1612+                                |
|   \\  /    A nd           | Web:      www.OpenFOAM.com                      |
|    \\/     M anipulation  |                                                 |
\*---------------------------------------------------------------------------*/
FoamFile
{
    version     2.0;
    format      ascii;
    class       volScalarField;
    location    "50";
    object      p;
}
// * * * * * * * * * * * * * * * * * * * * * * * * * * * * * * * * * * * * * //

dimensions      [0 2 -2 0 0 0 0];

internalField   nonuniform List<scalar> 
21136
(
1.48447
1.44232
1.59131
1.61816
1.52195
1.43206
1.45236
1.68385
1.54519
1.47327
1.72208
1.68948
1.4597
1.63489
1.44537
1.44091
1.45006
1.4324
1.56339
1.55986
1.51741
1.65752
1.43988
1.50562
1.49272
1.46876
1.46691
1.43245
1.53764
1.55405
1.55206
1.62538
1.43596
1.47506
1.44099
1.43371
1.48726
1.56278
1.50277
1.48411
1.49162
1.56083
1.45067
1.45418
1.43738
1.49143
1.4468
1.71013
1.66869
1.67895
1.50085
1.50592
1.4709
1.43686
1.47747
1.4287
1.57355
1.71112
1.52024
1.49403
1.70921
1.52391
1.51426
1.51581
1.54609
1.44315
1.45443
1.45275
1.52688
1.52827
1.49582
1.50315
1.6464
1.74258
1.49834
1.49379
1.45118
1.52461
1.50146
1.44088
1.6057
1.47886
1.47251
1.48234
1.47026
1.4766
1.48871
1.59428
1.60539
1.44971
1.4491
1.45612
1.53983
1.52844
1.47573
1.68815
1.66843
1.44858
1.45065
1.44465
1.44323
1.46999
1.56586
1.57002
1.43988
1.47443
1.51834
1.4402
1.53205
1.61293
1.7206
1.63484
1.62486
1.44817
1.52656
1.64778
1.48068
1.44161
1.44514
1.43318
1.44602
1.42329
1.47799
1.43219
1.43451
1.43346
1.44483
1.44288
1.52972
1.48377
1.46187
1.42365
1.5316
1.50923
1.66634
1.69353
1.47692
1.65868
1.63188
1.4666
1.46567
1.42571
1.44172
1.4255
1.45241
1.7341
1.44419
1.44732
1.44409
1.44504
1.44618
1.43742
1.46269
1.44655
1.45455
1.50958
1.55766
1.4371
1.47898
1.49143
1.58769
1.44516
1.5066
1.50557
1.48272
1.47116
1.49507
1.68997
1.43984
1.43861
1.4456
1.44704
1.44097
1.57901
1.47816
1.53043
1.52002
1.5159
1.5045
1.66505
1.67258
1.71357
1.48705
1.47871
1.44346
1.46051
1.43812
1.70974
1.6573
1.66378
1.70586
1.62743
1.42095
1.42836
1.51598
1.48942
1.4848
1.4402
1.46924
1.68831
1.44212
1.46257
1.46888
1.44353
1.48753
1.43687
1.43665
1.56009
1.57968
1.42413
1.42696
1.4322
1.61261
1.60864
1.44256
1.43914
1.43308
1.59156
1.48159
1.44798
1.5338
1.48036
1.43461
1.43048
1.42887
1.44079
1.47005
1.63229
1.44844
1.51811
1.46051
1.44383
1.4497
1.44353
1.43867
1.48319
1.72924
1.71465
1.49962
1.54223
1.54186
1.49813
1.4869
1.47732
1.44357
1.44857
1.44399
1.63609
1.44515
1.69374
1.71569
1.63702
1.63038
1.44445
1.44138
1.45032
1.45154
1.47658
1.47431
1.54464
1.61985
1.45203
1.44421
1.44317
1.44257
1.42697
1.63714
1.6502
1.65131
1.4658
1.43492
1.44972
1.45758
1.44533
1.44586
1.4523
1.45708
1.67045
1.49222
1.50203
1.49977
1.5012
1.56768
1.54715
1.56635
1.56228
1.52417
1.52411
1.44227
1.44743
1.44185
1.44315
1.44624
1.4402
1.47846
1.44974
1.43577
1.49896
1.43979
1.45523
1.44237
1.441
1.6961
1.6877
1.6988
1.41841
1.4312
1.42938
1.57949
1.58722
1.59661
1.61802
1.40936
1.4439
1.44643
1.4463
1.56843
1.63662
1.44149
1.46653
1.45066
1.44658
1.63896
1.61621
1.58326
1.60581
1.60458
1.50011
1.44985
1.45113
1.44406
1.44648
1.4386
1.57663
1.44061
1.54286
1.54008
1.52492
1.43412
1.66818
1.64723
1.50066
1.5842
1.55894
1.57627
1.55774
1.51441
1.54817
1.52981
1.46274
1.46185
1.50263
1.52133
1.50289
1.52282
1.4906
1.53289
1.50837
1.66329
1.6841
1.68486
1.67047
1.67324
1.68835
1.58704
1.43672
1.43898
1.55305
1.53416
1.42325
1.4395
1.44968
1.44103
1.44156
1.43665
1.43947
1.58343
1.44743
1.44985
1.59729
1.4454
1.44789
1.4242
1.42618
1.54242
1.47627
1.52248
1.44946
1.70216
1.48594
1.44879
1.44339
1.50313
1.69155
1.43634
1.70425
1.68978
1.43349
1.43373
1.47703
1.44236
1.4354
1.46945
1.46815
1.63423
1.46235
1.53486
1.52953
1.42584
1.46106
1.46223
1.47089
1.498
1.65512
1.60198
1.46541
1.47184
1.60807
1.63553
1.63787
1.47966
1.46926
1.42458
1.66745
1.44096
1.73992
1.43392
1.44746
1.449
1.45108
1.50606
1.4383
1.44239
1.53202
1.52468
1.52063
1.56764
1.58452
1.47512
1.47535
1.55298
1.64901
1.66025
1.47208
1.47559
1.41633
1.41874
1.44641
1.44775
1.457
1.41235
1.41596
1.48379
1.48956
1.47571
1.48536
1.44287
1.43781
1.44369
1.63222
1.44961
1.43453
1.43644
1.46923
1.45506
1.44866
1.43612
1.4353
1.70593
1.4394
1.57097
1.47737
1.74642
1.44255
1.48893
1.44417
1.43873
1.44252
1.44843
1.4773
1.4961
1.45118
1.52742
1.46357
1.52045
1.4226
1.4781
1.44941
1.44394
1.46415
1.46393
1.55664
1.57579
1.64777
1.4319
1.62335
1.61112
1.4476
1.44732
1.43982
1.51237
1.51385
1.4582
1.44425
1.60881
1.62031
1.44867
1.44052
1.45425
1.62485
1.57884
1.45991
1.53166
1.72209
1.54303
1.44003
1.73304
1.44486
1.67136
1.55626
1.56779
1.44637
1.44007
1.43361
1.44797
1.43739
1.4441
1.74016
1.4382
1.58756
1.7074
1.70341
1.71213
1.5167
1.52366
1.44254
1.57339
1.49096
1.69904
1.57344
1.47914
1.47905
1.56981
1.43606
1.48361
1.47976
1.48442
1.50835
1.47896
1.4954
1.43647
1.48756
1.45181
1.43095
1.51505
1.45247
1.44706
1.44756
1.59215
1.60764
1.71501
1.69811
1.67788
1.6811
1.67778
1.65935
1.67342
1.46908
1.43745
1.4424
1.55278
1.54699
1.55657
1.4443
1.46508
1.5513
1.44354
1.47355
1.48089
1.50667
1.47685
1.48846
1.57231
1.66149
1.47597
1.6107
1.51855
1.62312
1.45915
1.60312
1.56631
1.61703
1.62736
1.43094
1.45606
1.45611
1.45721
1.50147
1.40906
1.42211
1.44514
1.45567
1.48507
1.54818
1.46472
1.49746
1.52744
1.50817
1.45901
1.54628
1.55542
1.49157
1.53809
1.58218
1.59553
1.48547
1.44419
1.44137
1.45637
1.50693
1.45007
1.45144
1.45139
1.51238
1.48395
1.50461
1.50328
1.46314
1.45089
1.50887
1.48377
1.45452
1.46837
1.46839
1.47044
1.4464
1.48595
1.45039
1.45812
1.47692
1.53259
1.50033
1.49914
1.49756
1.46791
1.52406
1.48568
1.50605
1.4883
1.50537
1.46742
1.4498
1.48442
1.46018
1.45559
1.49179
1.54845
1.72237
1.51731
1.58906
1.60444
1.53109
1.51483
1.64244
1.64729
1.71575
1.72426
1.57842
1.52451
1.62928
1.627
1.54305
1.5538
1.6747
1.63495
1.66031
1.71125
1.70574
1.56135
1.543
1.43873
1.50379
1.53113
1.50848
1.48141
1.44889
1.44673
1.48534
1.54429
1.49618
1.54341
1.53949
1.51761
1.506
1.56587
1.56632
1.48894
1.54976
1.49261
1.53077
1.6094
1.57924
1.46574
1.51414
1.44077
1.4482
1.49322
1.50292
1.44449
1.48983
1.45761
1.51875
1.44594
1.45718
1.4424
1.48028
1.60585
1.55755
1.4749
1.49178
1.50023
1.64603
1.59662
1.66232
1.61099
1.65847
1.69377
1.42448
1.43102
1.42109
1.43035
1.41701
1.42769
1.43099
1.43551
1.44765
1.43813
1.44089
1.43972
1.43826
1.44153
1.44393
1.44229
1.43192
1.44512
1.43983
1.43403
1.44434
1.43614
1.43788
1.43535
1.44266
1.43862
1.43336
1.44156
1.44805
1.43086
1.45917
1.45536
1.44941
1.46725
1.45338
1.44605
1.44112
1.45704
1.45068
1.45046
1.46538
1.45979
1.45708
1.45808
1.46133
1.52741
1.60444
1.5576
1.56751
1.44973
1.44376
1.44422
1.43983
1.53728
1.48725
1.47893
1.53287
1.46409
1.46901
1.44799
1.4397
1.44994
1.45266
1.45744
1.46232
1.44828
1.49543
1.50053
1.47987
1.47991
1.4978
1.48624
1.49036
1.48732
1.49895
1.48655
1.49024
1.48514
1.48422
1.48098
1.48796
1.48534
1.48234
1.49571
1.48772
1.48357
1.45044
1.48125
1.45207
1.45533
1.62286
1.63944
1.62157
1.61257
1.59831
1.59104
1.62003
1.67397
1.64621
1.64826
1.63941
1.687
1.67685
1.64713
1.44171
1.47983
1.44516
1.47182
1.46381
1.46836
1.46644
1.63341
1.58755
1.64008
1.60723
1.53376
1.53209
1.5089
1.52536
1.52217
1.60093
1.58935
1.60782
1.60588
1.61518
1.60522
1.44975
1.43941
1.44497
1.43981
1.44736
1.44854
1.44188
1.56138
1.60988
1.58198
1.58526
1.54508
1.54956
1.57307
1.56751
1.55163
1.54676
1.56734
1.64168
1.60814
1.61273
1.65028
1.61687
1.63368
1.6389
1.65974
1.64147
1.64681
1.64751
1.43983
1.4414
1.43811
1.43821
1.42823
1.42681
1.43742
1.43485
1.43324
1.45927
1.44862
1.46874
1.45227
1.45527
1.4524
1.4577
1.45418
1.44208
1.45921
1.44876
1.44562
1.44206
1.45443
1.43356
1.44146
1.43259
1.43281
1.45014
1.46346
1.42244
1.43322
1.42116
1.42234
1.42257
1.44416
1.43334
1.44634
1.46181
1.49703
1.44514
1.43093
1.42497
1.4322
1.43081
1.42833
1.4973
1.47061
1.4971
1.47158
1.48153
1.46355
1.45298
1.47427
1.44583
1.4501
1.45326
1.4564
1.44244
1.45517
1.44862
1.42414
1.44074
1.43391
1.43797
1.43803
1.4686
1.45343
1.45222
1.46706
1.47088
1.4514
1.43357
1.44057
1.42557
1.43676
1.57303
1.48622
1.52988
1.54359
1.53284
1.54549
1.58371
1.58313
1.55785
1.56462
1.56802
1.567
1.5648
1.43934
1.46545
1.44663
1.43612
1.4482
1.43951
1.49906
1.50269
1.44933
1.47934
1.4659
1.47595
1.46826
1.52802
1.56334
1.4788
1.49974
1.52963
1.54253
1.48366
1.50625
1.51398
1.56532
1.51069
1.55198
1.54295
1.52044
1.4585
1.44722
1.45948
1.47146
1.43518
1.44338
1.47635
1.60382
1.61671
1.63544
1.62868
1.60708
1.60065
1.5922
1.59239
1.55056
1.56422
1.61331
1.6005
1.61504
1.58646
1.58436
1.57336
1.59981
1.47459
1.48579
1.45118
1.45357
1.58832
1.57008
1.48841
1.54197
1.5512
1.55204
1.5373
1.5409
1.58609
1.51636
1.55662
1.54697
1.5542
1.54283
1.55065
1.60607
1.59328
1.57414
1.58642
1.59704
1.56557
1.47777
1.5009
1.52557
1.53319
1.44084
1.44151
1.44052
1.43534
1.43543
1.43552
1.44816
1.44178
1.44296
1.43483
1.44453
1.43944
1.44903
1.44687
1.44431
1.4411
1.447
1.44153
1.44473
1.44657
1.44593
1.4444
1.44715
1.44389
1.4465
1.44395
1.42781
1.41575
1.41306
1.43793
1.41873
1.48026
1.47096
1.43399
1.43168
1.43267
1.45361
1.4734
1.4734
1.4712
1.44445
1.45455
1.44727
1.45203
1.44271
1.43828
1.52832
1.51203
1.44892
1.45511
1.45118
1.44494
1.45327
1.45649
1.45109
1.46067
1.44657
1.43298
1.44201
1.4512
1.45088
1.45653
1.47393
1.44836
1.55776
1.47244
1.44088
1.46041
1.46302
1.54003
1.54003
1.52144
1.48637
1.45792
1.48801
1.47289
1.5019
1.46975
1.49426
1.47881
1.46196
1.47758
1.47593
1.51987
1.48843
1.52324
1.56477
1.48102
1.53561
1.51531
1.50407
1.61993
1.49937
1.47856
1.48176
1.47041
1.4517
1.51452
1.5116
1.54944
1.54064
1.53025
1.46618
1.4852
1.46226
1.47872
1.47073
1.46828
1.47508
1.43573
1.46739
1.45791
1.45234
1.45901
1.45343
1.47632
1.45383
1.43741
1.45667
1.45328
1.44907
1.46015
1.47715
1.51387
1.50954
1.48704
1.50265
1.50696
1.48341
1.46004
1.47029
1.50788
1.47863
1.4762
1.47873
1.48527
1.47697
1.43516
1.47912
1.46443
1.46096
1.45412
1.47774
1.4725
1.47586
1.4701
1.47476
1.47059
1.46778
1.46444
1.47775
1.47168
1.46367
1.47618
1.47671
1.46225
1.45046
1.44521
1.44712
1.45211
1.46088
1.4647
1.45015
1.44554
1.44366
1.44563
1.43535
1.4373
1.44454
1.45786
1.48583
1.46863
1.47205
1.46698
1.47463
1.46644
1.47595
1.45428
1.45104
1.45853
1.46335
1.46016
1.4626
1.48678
1.47061
1.45689
1.46512
1.47268
1.47156
1.46634
1.45006
1.46706
1.46277
1.46453
1.4532
1.45561
1.46203
1.51298
1.52607
1.51695
1.52895
1.52089
1.50382
1.50038
1.51583
1.51159
1.51071
1.51374
1.53223
1.51996
1.52243
1.49023
1.49412
1.49374
1.52896
1.49912
1.51683
1.51596
1.51102
1.52267
1.47557
1.48103
1.46219
1.46951
1.47321
1.47413
1.46879
1.54454
1.52026
1.54565
1.54204
1.48811
1.47525
1.50839
1.49825
1.49112
1.48325
1.50283
1.49716
1.50122
1.53732
1.51108
1.51891
1.51418
1.51418
1.48493
1.47407
1.49677
1.49664
1.47961
1.47556
1.49829
1.51215
1.52846
1.51135
1.52479
1.52318
1.51553
1.47734
1.47618
1.47289
1.4845
1.4827
1.47486
1.44735
1.44985
1.46415
1.45917
1.47052
1.48113
1.48002
1.47576
1.45886
1.47379
1.47887
1.47239
1.48487
1.47789
1.45401
1.45658
1.46875
1.46046
1.45688
1.46784
1.47692
1.48981
1.48357
1.66464
1.65798
1.65472
1.69575
1.62353
1.53228
1.53511
1.59575
1.74626
1.64029
1.49423
1.48345
1.45938
1.47234
1.50433
1.51555
1.45743
1.55485
1.60856
1.61184
1.56627
1.5559
1.6235
1.52352
1.56717
1.62014
1.58779
1.57001
1.57052
1.58517
1.62048
1.58484
1.59393
1.59633
1.51941
1.53456
1.558
1.55784
1.53758
1.574
1.55884
1.63115
1.61467
1.60806
1.62067
1.60003
1.70202
1.65721
1.63354
1.68925
1.66198
1.65712
1.7528
1.71356
1.67506
1.6816
1.68033
1.68029
1.68078
1.7231
1.64023
1.61555
1.59512
1.58642
1.63575
1.62772
1.59484
1.47781
1.49343
1.45486
1.47881
1.50361
1.52354
1.46335
1.62234
1.61285
1.66085
1.56572
1.61598
1.61972
1.60746
1.53513
1.60653
1.59232
1.58994
1.5838
1.606
1.61084
1.54134
1.5256
1.57018
1.55759
1.54627
1.58286
1.6117
1.68695
1.65252
1.63452
1.62066
1.67663
1.62338
1.64942
1.66148
1.76597
1.73282
1.7124
1.64954
1.70189
1.6983
1.68466
1.67883
1.70728
1.67856
1.71745
1.72087
1.65124
1.66535
1.70064
1.64758
1.65304
1.69471
1.73615
1.71449
1.72678
1.72233
1.51672
1.53833
1.57972
1.55266
1.54186
1.54296
1.5585
1.59113
1.54696
1.59646
1.55578
1.55748
1.55133
1.56297
1.48339
1.45704
1.44238
1.44856
1.44762
1.44407
1.45856
1.50101
1.50343
1.45928
1.49548
1.47229
1.48218
1.48444
1.53063
1.55619
1.50287
1.51556
1.54063
1.54635
1.50596
1.50941
1.51059
1.55608
1.51813
1.54093
1.53264
1.52522
1.46966
1.45899
1.50018
1.49303
1.46269
1.46024
1.49848
1.48255
1.44325
1.45349
1.46175
1.46405
1.45569
1.50246
1.51097
1.5189
1.50158
1.48045
1.48253
1.48643
1.45803
1.46645
1.46703
1.46595
1.51703
1.49428
1.4905
1.46846
1.52861
1.54662
1.55611
1.58786
1.55983
1.57945
1.55468
1.59048
1.58201
1.56533
1.48264
1.48509
1.4642
1.47929
1.49495
1.49956
1.47172
1.56381
1.53712
1.56907
1.55651
1.56406
1.56998
1.51277
1.52035
1.56317
1.53896
1.5264
1.52525
1.53971
1.5529
1.518
1.55976
1.54027
1.55224
1.54601
1.54579
1.5314
1.5014
1.50837
1.52465
1.51595
1.51024
1.53273
1.53511
1.55834
1.5827
1.55497
1.56289
1.56449
1.55224
1.54321
1.60062
1.56545
1.57384
1.57964
1.56518
1.49761
1.48578
1.46374
1.49008
1.47165
1.4736
1.48545
1.50163
1.51748
1.52526
1.51101
1.53056
1.54593
1.53292
1.51219
1.53426
1.54059
1.49546
1.5147
1.52709
1.52844
1.49937
1.50901
1.52386
1.55225
1.54752
1.56797
1.58852
1.57962
1.59128
1.57398
1.59958
1.59354
1.58468
1.58838
1.57213
1.44116
1.44543
1.45271
1.46294
1.44201
1.44106
1.45576
1.53696
1.53755
1.56459
1.55114
1.52407
1.51345
1.56041
1.43962
1.44889
1.44426
1.43877
1.43518
1.43596
1.44317
1.48978
1.46908
1.44654
1.45586
1.45751
1.45935
1.45603
1.45015
1.49667
1.44559
1.46079
1.45989
1.46623
1.45823
1.45607
1.50719
1.50586
1.47645
1.48571
1.49609
1.47014
1.45101
1.44667
1.44214
1.44509
1.44342
1.44239
1.44911
1.51522
1.4904
1.49066
1.44998
1.45392
1.43651
1.43961
1.45149
1.45814
1.44407
1.44748
1.45293
1.58093
1.51238
1.51758
1.57272
1.52567
1.55229
1.54064
1.53359
1.45596
1.43675
1.44287
1.44043
1.45301
1.44035
1.43658
1.46685
1.44117
1.43781
1.45053
1.44524
1.43778
1.45123
1.44421
1.45959
1.45466
1.50598
1.47832
1.48015
1.46559
1.5078
1.49772
1.47045
1.50573
1.46723
1.44882
1.46373
1.44575
1.46144
1.4701
1.49654
1.46576
1.4517
1.45143
1.45988
1.53088
1.6141
1.58463
1.56847
1.56427
1.58078
1.5027
1.45422
1.43716
1.45184
1.45751
1.43903
1.50818
1.5194
1.56563
1.5751
1.52637
1.52858
1.47462
1.50927
1.50291
1.473
1.46439
1.5135
1.47692
1.44916
1.48878
1.4572
1.46258
1.45768
1.46589
1.45649
1.50863
1.51747
1.54148
1.53426
1.50486
1.468
1.47745
1.48762
1.49422
1.50325
1.4866
1.4741
1.47536
1.49585
1.62647
1.65517
1.65839
1.58248
1.61014
1.58357
1.5896
1.60271
1.61609
1.64581
1.61232
1.62457
1.65828
1.6239
1.63278
1.67781
1.6441
1.62326
1.62062
1.61258
1.61831
1.65555
1.67079
1.63459
1.67352
1.67118
1.66636
1.67416
1.62945
1.68717
1.63593
1.67183
1.67818
1.70092
1.68076
1.67763
1.68567
1.68306
1.58645
1.6487
1.61501
1.61399
1.44888
1.43852
1.44516
1.44941
1.41983
1.4293
1.4241
1.42684
1.42267
1.4277
1.42149
1.42715
1.42662
1.42956
1.42383
1.4267
1.42213
1.42624
1.42714
1.41539
1.41332
1.41742
1.41588
1.42018
1.43126
1.42677
1.42466
1.42414
1.42925
1.42488
1.42097
1.43015
1.42167
1.42708
1.42768
1.41603
1.43905
1.43373
1.44335
1.43377
1.4334
1.43937
1.44385
1.44461
1.47142
1.47484
1.43836
1.45216
1.45141
1.45097
1.44013
1.44918
1.44252
1.43722
1.43327
1.43814
1.43455
1.43917
1.45189
1.44494
1.43608
1.44286
1.44652
1.44638
1.44612
1.44662
1.43965
1.44302
1.4451
1.46131
1.47183
1.47374
1.45828
1.4575
1.45116
1.44916
1.44702
1.44942
1.44422
1.46356
1.44989
1.43427
1.4406
1.44395
1.4405
1.4285
1.42785
1.43714
1.42881
1.43006
1.44232
1.43316
1.44529
1.43672
1.43645
1.44062
1.42591
1.44105
1.43268
1.44828
1.44705
1.44881
1.44173
1.45252
1.45173
1.44184
1.43748
1.43212
1.4269
1.43418
1.43337
1.42779
1.43323
1.43699
1.44769
1.43191
1.43874
1.43961
1.43953
1.43859
1.44233
1.44491
1.4376
1.43722
1.44046
1.44294
1.44194
1.43291
1.43801
1.43829
1.43137
1.43906
1.43807
1.43944
1.44273
1.43953
1.43929
1.44822
1.44379
1.43385
1.44015
1.44478
1.43659
1.43996
1.43823
1.4425
1.44502
1.43582
1.44077
1.43899
1.43299
1.4337
1.4385
1.43609
1.45012
1.44526
1.45317
1.45008
1.4657
1.43322
1.4429
1.43465
1.44108
1.43083
1.43737
1.42622
1.43779
1.44315
1.43477
1.43774
1.43257
1.43579
1.43688
1.44087
1.43966
1.4452
1.43202
1.44534
1.44564
1.44418
1.44024
1.44372
1.43917
1.43723
1.42828
1.43146
1.4293
1.43614
1.42416
1.42808
1.42582
1.43164
1.41918
1.43112
1.42732
1.44121
1.44025
1.43627
1.43732
1.43889
1.44592
1.44078
1.43869
1.4445
1.43469
1.44217
1.44209
1.43124
1.43276
1.4345
1.43195
1.43605
1.45553
1.47121
1.47347
1.46886
1.44198
1.4517
1.43987
1.44499
1.44441
1.44838
1.43992
1.48015
1.48786
1.45901
1.47313
1.47442
1.47732
1.47186
1.58477
1.60829
1.59726
1.43946
1.44462
1.43958
1.44204
1.44414
1.44547
1.44514
1.49374
1.50153
1.49169
1.47589
1.47167
1.47353
1.48666
1.48154
1.48025
1.4888
1.49559
1.48948
1.48935
1.49485
1.492
1.4887
1.50616
1.49886
1.50013
1.49812
1.49904
1.5011
1.49855
1.46135
1.46665
1.47388
1.47159
1.46622
1.46618
1.46946
1.46407
1.47436
1.46984
1.46783
1.50978
1.54501
1.52839
1.50904
1.51888
1.54431
1.57247
1.57966
1.57173
1.55099
1.56122
1.56339
1.62978
1.62957
1.6385
1.65397
1.63137
1.64018
1.64549
1.49725
1.47686
1.49753
1.48379
1.48876
1.48229
1.48879
1.50264
1.50258
1.50691
1.58247
1.59797
1.58848
1.58409
1.50125
1.50872
1.51881
1.51838
1.50586
1.51387
1.51547
1.5338
1.63146
1.61143
1.48556
1.45554
1.45786
1.46046
1.48084
1.46952
1.46658
1.64037
1.61911
1.59268
1.61962
1.58936
1.59822
1.54082
1.70769
1.62251
1.62282
1.64628
1.6292
1.63246
1.62226
1.63753
1.60576
1.61339
1.63315
1.62683
1.61897
1.61863
1.62962
1.43543
1.43135
1.4353
1.42813
1.43284
1.42732
1.4253
1.44399
1.43917
1.43697
1.4539
1.45813
1.44842
1.4539
1.45258
1.45747
1.45106
1.46232
1.451
1.45381
1.46226
1.43983
1.46372
1.5789
1.47944
1.50836
1.43403
1.42248
1.41564
1.41523
1.44927
1.4575
1.43113
1.46003
1.53556
1.51303
1.48195
1.50334
1.40497
1.41456
1.42546
1.41129
1.41919
1.4187
1.42026
1.41516
1.44951
1.4519
1.46564
1.44423
1.45062
1.45329
1.4324
1.4432
1.44049
1.44081
1.43631
1.44001
1.43895
1.44971
1.44739
1.44478
1.45124
1.44746
1.44968
1.44781
1.43613
1.44405
1.44562
1.44584
1.44389
1.45387
1.51638
1.51596
1.47997
1.48524
1.49612
1.51414
1.51911
1.54427
1.53572
1.52626
1.52726
1.53411
1.44988
1.45029
1.4553
1.46787
1.46088
1.48813
1.49177
1.49604
1.46826
1.48011
1.48199
1.47801
1.4924
1.4923
1.51658
1.47992
1.49919
1.49802
1.53086
1.49574
1.49715
1.50412
1.52114
1.51163
1.51204
1.47859
1.4852
1.48932
1.4656
1.48079
1.47142
1.47335
1.51789
1.54486
1.52179
1.53258
1.51571
1.52281
1.55259
1.55135
1.55466
1.53101
1.54399
1.54387
1.47048
1.4875
1.48359
1.48988
1.47783
1.49024
1.4979
1.53403
1.50769
1.52466
1.51133
1.52406
1.51529
1.57127
1.56308
1.57609
1.57482
1.57606
1.57133
1.59025
1.56945
1.58852
1.59573
1.5836
1.59529
1.49468
1.52204
1.49542
1.50215
1.50542
1.51294
1.4956
1.44298
1.44272
1.44365
1.43737
1.43746
1.44072
1.44345
1.43755
1.44055
1.4398
1.44149
1.43559
1.43317
1.4382
1.44592
1.44525
1.44586
1.44094
1.43504
1.44784
1.44537
1.43851
1.44432
1.43584
1.4443
1.43709
1.44859
1.45044
1.44507
1.44719
1.44589
1.44831
1.44614
1.44425
1.44772
1.44556
1.42422
1.42414
1.40805
1.4148
1.4114
1.4124
1.47455
1.46966
1.46344
1.47192
1.45837
1.45547
1.44508
1.43621
1.44493
1.43993
1.43376
1.45055
1.44314
1.45207
1.48507
1.46785
1.49529
1.48359
1.4923
1.48611
1.44818
1.44644
1.43983
1.4464
1.4445
1.44808
1.45554
1.45613
1.46924
1.45724
1.46358
1.45908
1.46142
1.44856
1.44425
1.45402
1.44629
1.46131
1.44781
1.45352
1.45433
1.46193
1.45701
1.45372
1.45059
1.46035
1.48342
1.50951
1.48809
1.47641
1.49252
1.50855
1.48678
1.49287
1.47266
1.48701
1.48319
1.48703
1.48585
1.48226
1.48658
1.50527
1.50235
1.49045
1.53033
1.48652
1.49475
1.46845
1.48575
1.47604
1.46153
1.45292
1.44851
1.45392
1.4618
1.54122
1.5355
1.53678
1.51131
1.5051
1.45296
1.46168
1.49691
1.45987
1.479
1.47268
1.47129
1.45167
1.46154
1.45698
1.45781
1.45237
1.45362
1.45753
1.50601
1.48858
1.50591
1.50222
1.49888
1.49306
1.50449
1.50249
1.48302
1.49994
1.48898
1.49536
1.48836
1.49369
1.45517
1.46564
1.45348
1.46752
1.45372
1.47458
1.48403
1.46335
1.46703
1.46581
1.46198
1.46301
1.45931
1.45768
1.46462
1.46054
1.46375
1.46233
1.47888
1.46806
1.4648
1.46937
1.47578
1.47457
1.47248
1.43645
1.44786
1.44897
1.44881
1.44395
1.44566
1.4446
1.47888
1.47364
1.48594
1.48354
1.48039
1.47696
1.48424
1.44803
1.45704
1.44494
1.45209
1.45047
1.45474
1.44649
1.45313
1.46037
1.44761
1.45445
1.45329
1.45585
1.45183
1.47291
1.47105
1.48488
1.47635
1.4743
1.47268
1.47797
1.53381
1.53153
1.52834
1.53519
1.53335
1.53549
1.52417
1.52189
1.50269
1.49792
1.50161
1.50011
1.49947
1.52228
1.52237
1.51863
1.49797
1.49027
1.50568
1.50467
1.49106
1.50721
1.5166
1.49801
1.50141
1.50802
1.50804
1.50098
1.45723
1.45406
1.469
1.46291
1.45933
1.4592
1.46347
1.54151
1.51986
1.53357
1.52985
1.5283
1.51115
1.50116
1.49979
1.49428
1.48995
1.49972
1.49712
1.49448
1.52287
1.50644
1.50908
1.50686
1.51805
1.51283
1.51459
1.50139
1.50206
1.50476
1.49235
1.50177
1.49798
1.49873
1.5121
1.50418
1.49871
1.5034
1.50819
1.50833
1.5057
1.46467
1.47007
1.45903
1.46547
1.46476
1.46911
1.46379
1.4504
1.43907
1.44982
1.44557
1.44521
1.44435
1.44826
1.48963
1.47985
1.48874
1.48562
1.4876
1.48505
1.49019
1.47635
1.46905
1.46378
1.46491
1.46858
1.45782
1.46851
1.45792
1.46074
1.4637
1.45877
1.489
1.4855
1.4918
1.49177
1.48899
1.48777
1.4971
1.64099
1.66194
1.5926
1.58133
1.55907
1.73676
1.51311
1.47967
1.51264
1.49855
1.4996
1.48547
1.51161
1.61163
1.62442
1.61987
1.59951
1.6156
1.60839
1.60706
1.63059
1.60361
1.6417
1.6166
1.62385
1.61639
1.62615
1.55626
1.56438
1.51492
1.54037
1.54786
1.55203
1.5371
1.5204
1.5546
1.5058
1.52449
1.5285
1.54603
1.5104
1.65369
1.61601
1.65386
1.63556
1.64138
1.62569
1.65317
1.63842
1.66705
1.6466
1.65153
1.65642
1.65962
1.64916
1.6941
1.71888
1.68062
1.70922
1.69982
1.70395
1.71566
1.72543
1.70663
1.71744
1.68654
1.71017
1.69939
1.71525
1.69486
1.57101
1.57585
1.54245
1.56693
1.56255
1.57795
1.55248
1.49235
1.53052
1.51208
1.50152
1.53165
1.69214
1.68427
1.66393
1.62626
1.65176
1.63927
1.65084
1.63921
1.64666
1.58292
1.55385
1.55674
1.56479
1.52978
1.57585
1.56857
1.54077
1.55927
1.52339
1.67166
1.63831
1.66062
1.66052
1.65597
1.65184
1.66329
1.62904
1.62462
1.66413
1.64101
1.63823
1.62442
1.65258
1.72876
1.72955
1.68877
1.69484
1.671
1.676
1.68489
1.6823
1.6764
1.72042
1.71676
1.71993
1.70471
1.70896
1.70854
1.70664
1.72352
1.71137
1.68728
1.69884
1.7066
1.71141
1.69399
1.57236
1.56237
1.58323
1.56658
1.57453
1.56613
1.57326
1.52035
1.54591
1.52123
1.53455
1.52764
1.53476
1.52899
1.4338
1.44358
1.43266
1.43288
1.43526
1.43933
1.431
1.48259
1.50279
1.50454
1.50355
1.48859
1.49669
1.49821
1.50184
1.50591
1.50157
1.52274
1.50131
1.51449
1.51223
1.53166
1.50673
1.50329
1.50735
1.52452
1.5172
1.51655
1.50253
1.50156
1.50371
1.48841
1.50373
1.49605
1.4976
1.44406
1.45122
1.44033
1.44811
1.44011
1.44468
1.43513
1.47108
1.48132
1.48708
1.47895
1.47361
1.45626
1.47182
1.49097
1.50042
1.48797
1.4722
1.46302
1.46711
1.55888
1.57511
1.5757
1.57642
1.57855
1.55218
1.5489
1.5267
1.53995
1.54284
1.54792
1.53186
1.49196
1.47914
1.49713
1.49161
1.49034
1.4831
1.49596
1.56167
1.53748
1.56558
1.55269
1.55639
1.54724
1.56121
1.54648
1.55167
1.54724
1.55134
1.53774
1.53401
1.51756
1.52296
1.52891
1.52829
1.52294
1.50845
1.52512
1.50877
1.51424
1.51615
1.51976
1.50811
1.57492
1.5539
1.56889
1.5641
1.56956
1.56071
1.56927
1.56421
1.57536
1.57655
1.47727
1.49478
1.49023
1.49074
1.48266
1.4896
1.48559
1.53387
1.53437
1.55833
1.54612
1.53923
1.53475
1.54566
1.51595
1.52879
1.51405
1.52796
1.49528
1.51669
1.50096
1.52409
1.54479
1.53684
1.55266
1.53972
1.54675
1.53424
1.54549
1.59026
1.5846
1.58956
1.59178
1.5895
1.59422
1.58796
1.59698
1.591
1.57072
1.57788
1.58747
1.58664
1.5827
1.46797
1.46704
1.48762
1.47487
1.47591
1.46782
1.48253
1.51671
1.54553
1.51329
1.52584
1.52795
1.53926
1.51475
1.4435
1.44541
1.44184
1.44146
1.43534
1.44185
1.44354
1.45042
1.4399
1.44407
1.44334
1.44302
1.4432
1.46241
1.46521
1.48632
1.48192
1.47311
1.4741
1.47957
1.50363
1.47726
1.49754
1.49006
1.49192
1.48252
1.4985
1.44332
1.44745
1.44218
1.44086
1.44315
1.4471
1.44293
1.44202
1.4624
1.49062
1.44364
1.45246
1.43436
1.45104
1.45095
1.49122
1.63802
1.54961
1.52751
1.5288
1.55354
1.5251
1.54697
1.51525
1.51832
1.51653
1.53754
1.5283
1.52897
1.43204
1.43039
1.43877
1.44192
1.46571
1.47807
1.47917
1.45623
1.45699
1.43899
1.44679
1.44935
1.45489
1.44375
1.44668
1.44482
1.43437
1.43508
1.43704
1.44024
1.43419
1.49788
1.47088
1.50472
1.47503
1.48813
1.47991
1.4926
1.62048
1.59826
1.61138
1.61394
1.60587
1.63617
1.4373
1.45191
1.52615
1.53814
1.58466
1.55028
1.55274
1.58002
1.5592
1.53056
1.50777
1.51014
1.53605
1.47443
1.47139
1.4956
1.48721
1.48101
1.47898
1.48585
1.50774
1.50294
1.52612
1.5202
1.49164
1.47983
1.50693
1.50078
1.68438
1.65899
1.66607
1.6202
1.61485
1.61786
1.63876
1.62114
1.62984
1.62922
1.5972
1.60194
1.60728
1.59889
1.63925
1.62638
1.65006
1.65147
1.65021
1.66333
1.6179
1.60923
1.60664
1.60746
1.59214
1.59791
1.62058
1.6775
1.63612
1.66719
1.63635
1.65168
1.64496
1.65226
1.64508
1.71776
1.70814
1.70466
1.71268
1.70327
1.68839
1.59765
1.60881
1.60236
1.5836
1.64744
1.43328
1.42963
1.42997
1.42855
1.42985
1.43082
1.43189
1.4262
1.4354
1.42991
1.43233
1.42945
1.43235
1.41872
1.41784
1.41931
1.41841
1.42001
1.4163
1.42714
1.42287
1.42223
1.42615
1.42529
1.43443
1.42993
1.42856
1.4268
1.43272
1.44205
1.43923
1.43902
1.43303
1.44162
1.43412
1.43208
1.45603
1.45738
1.45385
1.46484
1.45818
1.44269
1.43854
1.43426
1.43881
1.44087
1.42882
1.44056
1.43922
1.439
1.44626
1.43393
1.43667
1.44094
1.44457
1.43074
1.4375
1.44273
1.43893
1.44574
1.44598
1.44238
1.45731
1.46227
1.46458
1.45613
1.44347
1.4404
1.44572
1.44146
1.44178
1.4384
1.44721
1.44446
1.44675
1.44158
1.4336
1.43731
1.43282
1.43182
1.4358
1.45023
1.44732
1.44904
1.44357
1.45015
1.44468
1.44613
1.44387
1.4408
1.43959
1.4382
1.43964
1.44172
1.44041
1.43066
1.43576
1.43605
1.43423
1.43361
1.43498
1.434
1.43434
1.4383
1.44035
1.44119
1.43865
1.43909
1.44009
1.43227
1.43604
1.43477
1.43976
1.43763
1.43787
1.43942
1.4401
1.43845
1.43816
1.44197
1.43525
1.44532
1.44245
1.44352
1.44202
1.44385
1.44209
1.44045
1.44208
1.43883
1.44304
1.43651
1.43889
1.44053
1.43358
1.4403
1.43763
1.44104
1.4379
1.44003
1.4367
1.43779
1.43999
1.43507
1.43314
1.43579
1.4375
1.43883
1.43296
1.44124
1.43771
1.43783
1.44027
1.43607
1.44221
1.44367
1.44329
1.43976
1.439
1.43832
1.42639
1.44543
1.43511
1.44458
1.44179
1.4347
1.43495
1.43088
1.44126
1.43986
1.43946
1.44189
1.43665
1.44147
1.44401
1.44571
1.4438
1.44623
1.4451
1.43442
1.44399
1.44552
1.44006
1.43277
1.42524
1.43421
1.43395
1.43159
1.43528
1.44103
1.44018
1.44097
1.4416
1.44506
1.43701
1.43796
1.4355
1.44293
1.4833
1.46237
1.46515
1.47442
1.44253
1.44507
1.44518
1.45098
1.44085
1.44639
1.44554
1.4358
1.44124
1.43852
1.44379
1.43093
1.43629
1.4399
1.46402
1.46205
1.47845
1.46989
1.46917
1.46184
1.47424
1.4461
1.44081
1.45568
1.44956
1.44667
1.44475
1.44984
1.45307
1.4421
1.45828
1.44797
1.45194
1.4469
1.45176
1.44728
1.43477
1.43819
1.44156
1.44343
1.44014
1.44329
1.45042
1.46017
1.4627
1.4587
1.45421
1.45639
1.4579
1.44697
1.45463
1.44682
1.45198
1.44848
1.44493
1.44464
1.44984
1.44721
1.44993
1.45122
1.45222
1.45066
1.49398
1.46603
1.4965
1.47782
1.48425
1.47938
1.48644
1.46113
1.45559
1.4791
1.46373
1.46872
1.46048
1.47572
1.4589
1.45214
1.46012
1.45424
1.45254
1.44889
1.46259
1.45885
1.45593
1.45191
1.45431
1.4563
1.4615
1.45048
1.46157
1.48197
1.46288
1.47046
1.46884
1.47597
1.46443
1.52239
1.52131
1.49053
1.52528
1.60827
1.57582
1.61298
1.59893
1.60059
1.58615
1.61155
1.56406
1.61525
1.57383
1.54479
1.55927
1.60638
1.55316
1.59511
1.5673
1.56954
1.58032
1.52617
1.59657
1.61139
1.59728
1.58217
1.5864
1.59221
1.58657
1.44647
1.44688
1.44598
1.44707
1.43965
1.44855
1.44551
1.44789
1.4433
1.44873
1.44703
1.44505
1.44571
1.44144
1.44901
1.44451
1.44354
1.44792
1.44977
1.4465
1.4483
1.44697
1.5454
1.51218
1.5245
1.50725
1.52036
1.53366
1.54449
1.54062
1.5169
1.52741
1.51673
1.48074
1.47801
1.48878
1.47715
1.48776
1.47873
1.48617
1.49624
1.4921
1.48968
1.48534
1.48899
1.57026
1.49459
1.5222
1.51447
1.56786
1.60041
1.55692
1.58133
1.55119
1.57081
1.55519
1.5999
1.46437
1.45172
1.4612
1.46164
1.45952
1.45785
1.45963
1.4612
1.47105
1.46666
1.47258
1.46755
1.46794
1.46541
1.44572
1.45769
1.44599
1.44904
1.44714
1.45355
1.44458
1.43847
1.44315
1.45134
1.44053
1.43959
1.44231
1.44567
1.4632
1.4476
1.45294
1.4499
1.45892
1.45205
1.45467
1.46854
1.46608
1.47111
1.45763
1.46834
1.46127
1.46456
1.44558
1.44328
1.44707
1.45352
1.44601
1.44584
1.44906
1.44483
1.45821
1.44344
1.45616
1.45115
1.45528
1.45149
1.46428
1.46692
1.45144
1.45553
1.46017
1.46005
1.4557
1.4741
1.47164
1.46003
1.4697
1.47091
1.47542
1.47116
1.48929
1.48254
1.491
1.49397
1.48752
1.48917
1.49481
1.50078
1.5012
1.4985
1.50251
1.49479
1.4861
1.49391
1.50089
1.49538
1.49065
1.49206
1.49502
1.49556
1.48142
1.48881
1.47813
1.48356
1.48067
1.49439
1.48896
1.4803
1.48112
1.49147
1.49051
1.48447
1.48341
1.47894
1.49701
1.48903
1.49846
1.49316
1.49194
1.49299
1.49078
1.50525
1.4897
1.49328
1.49308
1.49502
1.48265
1.48403
1.48509
1.48791
1.4867
1.48206
1.50034
1.49654
1.50164
1.49467
1.50043
1.49831
1.49152
1.49037
1.49148
1.48435
1.49467
1.49461
1.48692
1.50278
1.48853
1.5008
1.49279
1.49649
1.4973
1.48947
1.49837
1.49988
1.48896
1.50271
1.49515
1.49382
1.49575
1.49729
1.49263
1.50095
1.48422
1.48716
1.49048
1.4927
1.4872
1.47507
1.47966
1.47182
1.4761
1.47116
1.47935
1.48144
1.48207
1.47789
1.47203
1.47777
1.47634
1.47798
1.47427
1.48929
1.4975
1.4893
1.49356
1.49235
1.48445
1.48356
1.4807
1.49584
1.48881
1.48673
1.48249
1.49259