/*--------------------------------*- C++ -*----------------------------------*\
| =========                 |                                                 |
| \\      /  F ield         | OpenFOAM: The Open Source CFD Toolbox           |
|  \\    /   O peration     | Version:  v1612+                                |
|   \\  /    A nd           | Web:      www.OpenFOAM.com                      |
|    \\/     M anipulation  |                                                 |
\*---------------------------------------------------------------------------*/
FoamFile
{
    version     2.0;
    format      ascii;
    class       volScalarField;
    location    "100";
    object      p;
}
// * * * * * * * * * * * * * * * * * * * * * * * * * * * * * * * * * * * * * //

dimensions      [0 2 -2 0 0 0 0];

internalField   nonuniform List<scalar> 
16891
(
3.49439
3.50052
3.52638
3.48054
3.52183
3.52163
3.52817
3.52707
3.52552
3.52837
3.52543
3.52915
3.53008
3.52775
3.52791
3.52933
3.52024
3.52643
3.52553
3.52447
3.52623
3.51307
3.50935
3.51223
3.51734
3.51148
3.51393
3.51303
3.51101
3.50998
3.51277
3.51478
3.50814
3.511
3.51193
3.51045
3.51608
3.51288
3.51431
3.50866
3.51376
3.51811
3.50972
3.50998
3.51443
3.51137
3.52005
3.51471
3.51222
3.51616
3.51878
3.50879
3.51452
3.51527
3.51284
3.51397
3.51362
3.5116
3.51046
3.50478
3.51547
3.51777
3.50947
3.51355
3.51262
3.51155
3.51026
3.51267
3.50689
3.50976
3.51582
3.5142
3.50304
3.51402
3.51655
3.50586
3.50725
3.51033
3.50766
3.5054
3.51139
3.51339
3.51037
3.51209
3.51005
3.50343
3.50728
3.50693
3.5071
3.50361
3.50108
3.50121
3.50242
3.50861
3.50349
3.49918
3.50382
3.50274
3.50059
3.49349
3.50207
3.49165
3.50117
3.4994
3.50793
3.49547
3.49707
3.50383
3.49985
3.52765
3.52787
3.52686
3.52797
3.53272
3.53358
3.52923
3.52827
3.52958
3.52102
3.52713
3.52883
3.53382
3.53233
3.53166
3.53112
3.5269
3.53254
3.53033
3.52952
3.49116
3.50472
3.50215
3.5
3.50436
3.50618
3.49963
3.50233
3.49964
3.49866
3.49795
3.49963
3.50516
3.50259
3.50646
3.50482
3.51485
3.51458
3.51402
3.5172
3.51024
3.51085
3.51137
3.51259
3.51058
3.50973
3.50797
3.51095
3.50496
3.50753
3.50537
3.50858
3.51149
3.50706
3.47943
3.47879
3.47296
3.48286
3.47929
3.48442
3.4806
3.47447
3.4743
3.48177
3.48704
3.49464
3.4746
3.4825
3.47544
3.47849
3.52442
3.5244
3.52573
3.51929
3.5189
3.52323
3.51635
3.52566
3.52324
3.52653
3.53186
3.52477
3.52045
3.52291
3.52048
3.52193
3.51819
3.51296
3.51902
3.52498
3.49772
3.49019
3.50742
3.50123
3.49265
3.49186
3.49696
3.50356
3.50154
3.50621
3.49823
3.49736
3.49863
3.50332
3.49784
3.50431
3.50339
3.49695
3.50131
3.50159
3.51207
3.51296
3.5136
3.51307
3.51378
3.51397
3.51215
3.51452
3.51477
3.51683
3.51966
3.5201
3.51766
3.51811
3.54022
3.53896
3.54531
3.54503
3.54525
3.54602
3.54381
3.54155
3.54012
3.54068
3.54179
3.53984
3.53818
3.53856
3.54081
3.53908
3.54493
3.54474
3.53631
3.5333
3.53998
3.54159
3.47561
3.47777
3.47933
3.47863
3.47913
3.48065
3.48758
3.48038
3.48258
3.47811
3.48423
3.48397
3.47686
3.48273
3.48699
3.47611
3.47754
3.48165
3.48317
3.48197
3.48016
3.47616
3.48012
3.47984
3.47624
3.48173
3.48718
3.47899
3.48645
3.47694
3.47901
3.49586
3.4959
3.4998
3.49958
3.492
3.494
3.49369
3.50018
3.49308
3.4939
3.49312
3.5009
3.50257
3.4963
3.50254
3.49398
3.49737
3.50096
3.49681
3.49997
3.49072
3.4949
3.49363
3.49994
3.50117
3.49409
3.49547
3.50456
3.49888
3.4938
3.49546
3.49956
3.50031
3.50262
3.50086
3.48312
3.4858
3.48102
3.48457
3.48412
3.47951
3.48523
3.48294
3.48616
3.48616
3.48362
3.4822
3.48353
3.476
3.48885
3.51205
3.512
3.50921
3.50607
3.50525
3.50519
3.51089
3.50647
3.50844
3.51029
3.50387
3.50557
3.51398
3.51374
3.50442
3.51158
3.49966
3.50053
3.51004
3.50518
3.50167
3.50542
3.5053
3.50549
3.5031
3.49429
3.49926
3.5027
3.50834
3.50161
3.49739
3.50329
3.49748
3.50333
3.54099
3.53479
3.53865
3.53014
3.53418
3.54259
3.53998
3.53742
3.53684
3.54042
3.5377
3.54092
3.54228
3.53837
3.54107
3.54083
3.54326
3.54083
3.49933
3.50303
3.50077
3.50632
3.50072
3.50344
3.50426
3.50593
3.50309
3.50869
3.49995
3.50168
3.50249
3.49891
3.50324
3.50213
3.50427
3.50203
3.50108
3.50976
3.50374
3.50803
3.48252
3.48305
3.48224
3.47289
3.47768
3.48267
3.48457
3.47898
3.48139
3.46699
3.4817
3.47962
3.48385
3.47651
3.48397
3.48189
3.48371
3.48996
3.4837
3.48088
3.48617
3.48681
3.48571
3.4933
3.48208
3.48555
3.48584
3.48445
3.48266
3.48457
3.51934
3.523
3.52397
3.51975
3.51845
3.51853
3.52163
3.52249
3.51989
3.51934
3.52439
3.51792
3.52146
3.5194
3.5178
3.48653
3.48627
3.48049
3.48183
3.48861
3.48838
3.47916
3.49262
3.488
3.48382
3.49027
3.49229
3.49504
3.49178
3.48939
3.49022
3.48812
3.4835
3.48853
3.49251
3.4895
3.48863
3.52684
3.52217
3.52325
3.52057
3.51893
3.52317
3.51918
3.51671
3.51591
3.52699
3.52672
3.52089
3.51847
3.52285
3.5238
3.51817
3.51399
3.51752
3.51357
3.51891
3.54176
3.546
3.54619
3.54492
3.54664
3.5414
3.5421
3.54948
3.54274
3.5428
3.541
3.54349
3.54493
3.5398
3.53982
3.54338
3.49006
3.48845
3.48725
3.49409
3.49147
3.48964
3.49276
3.49289
3.48849
3.48597
3.48541
3.49182
3.49382
3.48441
3.49341
3.49174
3.51941
3.51935
3.51912
3.52354
3.52207
3.51641
3.51834
3.52391
3.5278
3.52541
3.51775
3.52727
3.52339
3.51722
3.52273
3.5173
3.51839
3.52219
3.52181
3.52242
3.5342
3.53368
3.53219
3.54078
3.53469
3.5301
3.53824
3.53652
3.53512
3.53609
3.54042
3.53383
3.53397
3.5391
3.533
3.53305
3.5378
3.53678
3.53806
3.54066
3.53836
3.48929
3.48754
3.48702
3.47779
3.48635
3.48813
3.48515
3.48757
3.48816
3.49216
3.49576
3.48733
3.48753
3.49356
3.49289
3.48976
3.48766
3.48914
3.49143
3.49061
3.49004
3.49085
3.48857
3.48868
3.48493
3.48815
3.4864
3.48836
3.48471
3.48801
3.48269
3.48601
3.49264
3.49567
3.49184
3.48949
3.48925
3.48297
3.49059
3.49261
3.48854
3.54586
3.54345
3.54573
3.54122
3.54255
3.54457
3.54294
3.54326
3.54386
3.54089
3.54241
3.53697
3.53955
3.54255
3.5413
3.54127
3.54192
3.53732
3.50728
3.50868
3.50554
3.50663
3.50511
3.51103
3.48872
3.49396
3.49341
3.49453
3.49697
3.49056
3.49711
3.49908
3.48859
3.49199
3.49306
3.53846
3.53616
3.53666
3.53755
3.52809
3.53338
3.5352
3.53677
3.54131
3.53168
3.53306
3.53825
3.5304
3.5332
3.53237
3.53454
3.5277
3.53053
3.53043
3.51708
3.52007
3.52224
3.51882
3.51483
3.51927
3.52406
3.52456
3.52493
3.5198
3.52438
3.51808
3.52057
3.52066
3.52255
3.51949
3.51946
3.48359
3.48266
3.48044
3.4821
3.47345
3.47858
3.48587
3.48662
3.48203
3.49056
3.48685
3.48445
3.48574
3.48218
3.47914
3.48501
3.48858
3.49076
3.48775
3.47881
3.48853
3.48302
3.49006
3.48792
3.47831
3.48331
3.49001
3.4855
3.48155
3.50149
3.50324
3.50788
3.50894
3.50809
3.50784
3.50762
3.50819
3.51062
3.50822
3.50494
3.50156
3.50347
3.50493
3.50705
3.50823
3.50599
3.50783
3.55258
3.54889
3.54986
3.54416
3.54531
3.54989
3.54722
3.54336
3.54558
3.54591
3.54439
3.55097
3.55066
3.54749
3.54734
3.54529
3.54008
3.54278
3.53698
3.53716
3.54613
3.53723
3.53734
3.54848
3.54977
3.55071
3.54525
3.54603
3.54876
3.55137
3.54715
3.54924
3.55128
3.54591
3.53954
3.55478
3.55409
3.54664
3.54549
3.54842
3.55078
3.55115
3.55032
3.55033
3.55476
3.49359
3.49604
3.49343
3.49174
3.49452
3.4923
3.49484
3.48868
3.49717
3.49192
3.49322
3.48887
3.49269
3.49435
3.49401
3.48895
3.48716
3.49307
3.48827
3.48533
3.49725
3.49793
3.51665
3.5148
3.51521
3.51553
3.51575
3.51849
3.51581
3.5095
3.51355
3.51439
3.51501
3.51579
3.51984
3.51621
3.51605
3.52261
3.51821
3.51725
3.51157
3.5185
3.51717
3.51242
3.53316
3.53124
3.52826
3.5295
3.52738
3.52997
3.53106
3.52733
3.52977
3.53032
3.52769
3.5326
3.52791
3.53004
3.52885
3.52949
3.52544
3.52554
3.51476
3.51579
3.5173
3.5141
3.51905
3.51097
3.51546
3.51164
3.51573
3.48551
3.48836
3.48938
3.48659
3.48954
3.49137
3.48587
3.48662
3.48294
3.48995
3.48285
3.48156
3.47974
3.48646
3.53846
3.5396
3.52841
3.53664
3.54414
3.54231
3.53967
3.53529
3.53001
3.5348
3.53127
3.53975
3.54071
3.53454
3.52978
3.53865
3.53843
3.49795
3.5029
3.50003
3.49811
3.49853
3.50122
3.49777
3.50359
3.4969
3.50344
3.5035
3.50017
3.49577
3.49567
3.49673
3.49721
3.49386
3.49629
3.50063
3.49501
3.4938
3.49781
3.4834
3.48594
3.48504
3.47996
3.47874
3.4801
3.48527
3.48568
3.48982
3.48664
3.4877
3.48391
3.47827
3.48481
3.4878
3.49219
3.48636
3.48655
3.49077
3.48436
3.47811
3.48196
3.48592
3.48658
3.52128
3.51985
3.51726
3.51635
3.51685
3.51993
3.51558
3.5206
3.51994
3.52209
3.517
3.48338
3.4904
3.48375
3.48037
3.48887
3.48673
3.48485
3.48
3.48463
3.48645
3.48536
3.48707
3.48483
3.48376
3.48039
3.48602
3.47291
3.47514
3.4787
3.47431
3.48233
3.47787
3.47876
3.47845
3.48182
3.4829
3.48769
3.48311
3.48754
3.48067
3.48133
3.48514
3.47552
3.48212
3.48084
3.48156
3.47903
3.48495
3.47834
3.48192
3.48566
3.48045
3.48131
3.48713
3.48709
3.48307
3.47766
3.48076
3.48706
3.48447
3.48996
3.48463
3.48638
3.48707
3.48463
3.48465
3.4947
3.48688
3.48688
3.48748
3.48797
3.48602
3.48637
3.49408
3.49121
3.48823
3.48364
3.48297
3.49378
3.48797
3.49043
3.49217
3.49145
3.49498
3.49066
3.48921
3.49724
3.49116
3.4908
3.49548
3.49352
3.49024
3.49119
3.49116
3.49398
3.49459
3.49947
3.49399
3.49695
3.50013
3.49669
3.49378
3.49692
3.50309
3.49664
3.49594
3.50138
3.50333
3.50009
3.48941
3.50026
3.50019
3.50592
3.50307
3.51055
3.50733
3.50239
3.50295
3.50606
3.50464
3.49856
3.50735
3.50896
3.50368
3.50757
3.51063
3.50514
3.50804
3.50947
3.51364
3.51019
3.50637
3.51526
3.5062
3.50659
3.51127
3.5105
3.5102
3.51814
3.51168
3.51585
3.51354
3.50948
3.50963
3.52013
3.51409
3.51604
3.51799
3.51293
3.51887
3.51655
3.51792
3.51641
3.52427
3.51838
3.51556
3.5269
3.52783
3.52146
3.52448
3.52512
3.52146
3.524
3.5214
3.52305
3.52362
3.52312
3.52305
3.52807
3.52591
3.52605
3.52307
3.53106
3.53282
3.53523
3.5365
3.53282
3.53324
3.52982
3.52782
3.53201
3.53471
3.53084
3.52988
3.52738
3.53104
3.52866
3.53119
3.53203
3.53825
3.53756
3.53167
3.54037
3.53688
3.53199
3.53462
3.53921
3.53617
3.53789
3.54281
3.54281
3.54184
3.53612
3.53912
3.54233
3.54291
3.5378
3.53904
3.54003
3.54211
3.54132
3.54824
3.55301
3.55359
3.55419
3.55332
3.54949
3.55241
3.5477
3.55121
3.54841
3.54652
3.54741
3.54574
3.54922
3.54533
3.54605
3.54499
3.55103
3.54711
3.54603
3.55071
3.54698
3.54777
3.54494
3.55184
3.54724
3.54711
3.55271
3.54284
3.54526
3.55241
3.55228
3.54858
3.54724
3.54296
3.54963
3.54916
3.53989
3.54824
3.54468
3.543
3.54731
3.53889
3.53846
3.53886
3.54739
3.54909
3.53895
3.54609
3.54177
3.55023
3.54673
3.54634
3.54735
3.54817
3.54328
3.5457
3.54482
3.54419
3.54243
3.54383
3.5411
3.54928
3.54474
3.54489
3.5406
3.5531
3.54583
3.5465
3.54122
3.5422
3.54046
3.53903
3.54591
3.53905
3.55112
3.54423
3.54358
3.54648
3.5419
3.53808
3.53559
3.54269
3.53921
3.53891
3.54513
3.54263
3.53918
3.54239
3.54189
3.54154
3.54276
3.54127
3.54233
3.54727
3.54149
3.5433
3.55147
3.54274
3.54281
3.54089
3.54458
3.54248
3.53941
3.54718
3.5453
3.54209
3.54396
3.54402
3.54583
3.54288
3.54605
3.54236
3.5325
3.53923
3.53199
3.53589
3.54364
3.53441
3.53472
3.53259
3.54155
3.53832
3.54089
3.53656
3.54214
3.54395
3.54073
3.53749
3.54069
3.54153
3.53194
3.53784
3.54792
3.54257
3.5438
3.54442
3.54667
3.53826
3.54484
3.53661
3.54217
3.54261
3.53724
3.53414
3.53173
3.53989
3.53596
3.53559
3.52944
3.53703
3.53279
3.53805
3.54252
3.54067
3.54549
3.54069
3.54081
3.54115
3.54149
3.53982
3.53721
3.54395
3.54768
3.54697
3.54559
3.53993
3.54005
3.53461
3.5394
3.5312
3.53278
3.54573
3.54147
3.53945
3.53775
3.53544
3.53533
3.54134
3.53848
3.54349
3.53616
3.53438
3.53787
3.53947
3.5277
3.53763
3.53698
3.53816
3.5355
3.53765
3.53725
3.53493
3.53484
3.52768
3.53616
3.53769
3.53427
3.53711
3.53947
3.53977
3.53805
3.54315
3.53762
3.53998
3.53618
3.53789
3.54203
3.5327
3.53299
3.53112
3.54542
3.54638
3.5341
3.5341
3.53228
3.53728
3.53574
3.53558
3.53738
3.54007
3.53644
3.53863
3.52688
3.52877
3.53234
3.52802
3.52365
3.52968
3.52806
3.5331
3.52916
3.5395
3.52485
3.53221
3.53574
3.52519
3.52487
3.52769
3.53306
3.54219
3.53655
3.53519
3.523
3.53399
3.53431
3.5316
3.52518
3.53022
3.52373
3.52805
3.52377
3.52452
3.5296
3.52514
3.52797
3.53027
3.52835
3.53431
3.53329
3.52888
3.53037
3.52317
3.52506
3.526
3.52702
3.52989
3.53148
3.53377
3.53122
3.53932
3.53165
3.53532
3.53126
3.52807
3.52886
3.53121
3.52698
3.53537
3.53379
3.53034
3.52785
3.52736
3.53322
3.5301
3.53232
3.52994
3.53434
3.53284
3.52869
3.52525
3.53465
3.52834
3.52315
3.52695
3.53381
3.53036
3.52651
3.53163
3.53025
3.53416
3.53207
3.53171
3.52903
3.53228
3.52426
3.52485
3.53147
3.5277
3.52793
3.52698
3.52936
3.52879
3.53277
3.53715
3.52543
3.53716
3.53323
3.5376
3.53186
3.52345
3.5194
3.52599
3.5268
3.52308
3.53185
3.52695
3.52121
3.52311
3.52344
3.52334
3.52654
3.52374
3.52335
3.5212
3.53149
3.52443
3.52428
3.52442
3.53081
3.5295
3.53248
3.52721
3.53276
3.5272
3.52525
3.52798
3.52608
3.53634
3.52963
3.53177
3.52905
3.52112
3.528
3.52254
3.5195
3.52297
3.52786
3.52235
3.52409
3.5272
3.52731
3.52337
3.5212
3.51675
3.52473
3.52689
3.52058
3.52181
3.52244
3.52449
3.52376
3.52449
3.52535
3.52279
3.52346
3.53266
3.53265
3.51647
3.52365
3.52748
3.52145
3.52215
3.53119
3.52338
3.5239
3.52605
3.53058
3.52439
3.5252
3.52341
3.53327
3.52562
3.52998
3.52587
3.51829
3.51724
3.51612
3.52322
3.52163
3.53029
3.52594
3.52435
3.52997
3.5313
3.51392
3.51944
3.51777
3.51678
3.52414
3.5222
3.51966
3.52795
3.52283
3.52193
3.52511
3.52235
3.52949
3.52401
3.52141
3.52526
3.52352
3.51595
3.51651
3.52968
3.52747
3.51932
3.52269
3.52274
3.52061
3.52167
3.52164
3.52565
3.52781
3.52262
3.52609
3.53
3.52637
3.52219
3.52339
3.51753
3.51609
3.51416
3.5242
3.52071
3.52253
3.52117
3.51935
3.52018
3.51336
3.5213
3.51929
3.52537
3.52273
3.51885
3.51604
3.52087
3.51975
3.52404
3.52365
3.52108
3.52867
3.53194
3.52985
3.53009
3.52294
3.52901
3.5204
3.52666
3.5245
3.52116
3.51963
3.51969
3.52664
3.52342
3.52728
3.52446
3.52512
3.52247
3.52705
3.52562
3.52657
3.52548
3.52429
3.52375
3.52732
3.52575
3.53062
3.52263
3.52237
3.52101
3.52324
3.52097
3.51437
3.51284
3.51764
3.51658
3.51936
3.52448
3.52048
3.52159
3.52352
3.51938
3.52002
3.51314
3.51938
3.52551
3.51471
3.51507
3.516
3.51646
3.52277
3.5145
3.51633
3.5164
3.51875
3.51962
3.51742
3.50848
3.51879
3.52004
3.51616
3.52409
3.52878
3.52286
3.52373
3.52101
3.51599
3.51788
3.51462
3.51428
3.52038
3.51454
3.51365
3.51546
3.5167
3.51726
3.52029
3.52168
3.52476
3.52709
3.52277
3.52084
3.51967
3.51996
3.51244
3.5131
3.51392
3.50671
3.51201
3.51837
3.5222
3.51455
3.51312
3.52101
3.50921
3.50763
3.51487
3.50673
3.51641
3.52035
3.51133
3.50995
3.50729
3.51425
3.51392
3.51697
3.51018
3.50805
3.50723
3.51181
3.51564
3.50853
3.51058
3.51852
3.51245
3.51437
3.51612
3.51156
3.51148
3.51733
3.51833
3.51486
3.51303
3.5229
3.52003
3.51823
3.50867
3.51686
3.5126
3.51089
3.51517
3.51758
3.51471
3.50631
3.50314
3.51005
3.51297
3.50547
3.50864
3.51246
3.51675
3.51459
3.50923
3.51007
3.50545
3.50673
3.50729
3.50409
3.51298
3.50976
3.50772
3.50734
3.51467
3.50978
3.51432
3.5112
3.52095
3.51838
3.51487
3.51739
3.50974
3.51601
3.51332
3.51302
3.50931
3.51501
3.50889
3.50394
3.50955
3.515
3.51323
3.50962
3.52363
3.51934
3.51989
3.51845
3.51543
3.51516
3.51318
3.51381
3.5115
3.50832
3.51425
3.51107
3.51129
3.518
3.51448
3.51692
3.50571
3.5134
3.50858
3.5107
3.51062
3.50609
3.50452
3.50584
3.51227
3.51552
3.51314
3.51287
3.51476
3.5166
3.51069
3.51259
3.51509
3.5123
3.51328
3.50793
3.50805
3.50955
3.51243
3.50548
3.50799
3.50356
3.50556
3.51157
3.51071
3.51258
3.51223
3.51066
3.50426
3.50486
3.51078
3.50388
3.50516
3.50559
3.50733
3.50524
3.50583
3.51373
3.51329
3.51148
3.50656
3.51432
3.50928
3.50655
3.50849
3.51049
3.49752
3.50468
3.50369
3.50891
3.50279
3.5048
3.51377
3.50891
3.50806
3.51409
3.51077
3.50137
3.49872
3.50646
3.5012
3.50904
3.50922
3.50223
3.50253
3.50319
3.50666
3.50683
3.5022
3.5083
3.50498
3.50304
3.50406
3.50871
3.50437
3.50892
3.50756
3.50687
3.5109
3.50558
3.50135
3.50831
3.50752
3.50528
3.50538
3.51258
3.50797
3.50231
3.50236
3.50017
3.5019
3.50593
3.50266
3.49989
3.50502
3.50886
3.50609
3.50887
3.50382
3.50294
3.4992
3.50001
3.50701
3.50435
3.50621
3.50383
3.50821
3.50869
3.50101
3.49958
3.50777
3.50299
3.49521
3.4973
3.50418
3.50542
3.50168
3.50143
3.49813
3.50392
3.50108
3.49858
3.50496
3.51063
3.50828
3.50643
3.51254
3.50571
3.50958
3.50684
3.5066
3.50646
3.50666
3.49609
3.49796
3.50391
3.50096
3.50393
3.50124
3.50203
3.50267
3.50923
3.50366
3.50175
3.50092
3.50713
3.5063
3.49634
3.49986
3.50341
3.50073
3.50367
3.50322
3.5117
3.51043
3.51351
3.50864
3.50425
3.50333
3.50357
3.50849
3.50837
3.50505
3.50146
3.50241
3.50372
3.5057
3.49711
3.49353
3.49867
3.4937
3.50068
3.49425
3.50383
3.50006
3.49657
3.49637
3.50537
3.50729
3.50509
3.49543
3.49234
3.49863
3.49923
3.50093
3.49905
3.50115
3.50562
3.50403
3.50746
3.49421
3.50063
3.49782
3.49203
3.49499
3.49706
3.50034
3.49412
3.50052
3.49532
3.5009
3.48953
3.49862
3.49935
3.50661
3.49762
3.50213
3.50721
3.50058
3.50369
3.49621
3.50631
3.50368
3.50354
3.50157
3.5036
3.50468
3.4952
3.49697
3.4936
3.50519
3.49777
3.49441
3.50292
3.50123
3.50213
3.50394
3.50447
3.50173
3.4993
3.49431
3.49359
3.49761
3.49256
3.49535
3.49605
3.50108
3.49172
3.49709
3.49562
3.48893
3.50299
3.49955
3.49322
3.50399
3.49885
3.50408
3.50086
3.49693
3.49909
3.49521
3.50457
3.50309
3.49791
3.496
3.49576
3.49581
3.49387
3.49111
3.49574
3.4967
3.49523
3.49161
3.49543
3.48583
3.48789
3.49821
3.49422
3.48968
3.49792
3.50291
3.50256
3.49078
3.49073
3.49573
3.49697
3.49542
3.50047
3.50172
3.5028
3.49979
3.49365
3.4927
3.49373
3.49822
3.49877
3.50013
3.49832
3.49057
3.49577
3.49322
3.49272
3.4877
3.48849
3.4967
3.4987
3.49555
3.49545
3.49591
3.49475
3.4964
3.48651
3.49506
3.49647
3.49567
3.49425
3.49778
3.49557
3.49661
3.49344
3.4935
3.49926
3.48914
3.48297
3.49116
3.48985
3.4909
3.4877
3.48924
3.48419
3.48363
3.49515
3.48954
3.49017
3.49023
3.48647
3.492
3.48791
3.49032
3.48958
3.49631
3.48984
3.48908
3.49975
3.50067
3.49968
3.49541
3.49323
3.49082
3.4924
3.48301
3.48756
3.4942
3.49299
3.49553
3.48968
3.49214
3.4973
3.492
3.49141
3.50191
3.49296
3.49302
3.49477
3.49184
3.50355
3.5002
3.49924
3.48983
3.48961
3.48851
3.49248
3.49285
3.48888
3.48974
3.49204
3.49424
3.49842
3.49654
3.49382
3.49019
3.49829
3.49423
3.48257
3.48712
3.49226
3.4895
3.49143
3.48498
3.48907
3.48393
3.4884
3.48578
3.48495
3.48909
3.4908
3.48885
3.49446
3.49274
3.499
3.49265
3.49756
3.49548
3.49209
3.49483
3.49543
3.49087
3.49226
3.48679
3.48511
3.49594
3.49092
3.49052
3.48813
3.49181
3.49051
3.49449
3.49287
3.49147
3.48553
3.48997
3.48405
3.48748
3.48897
3.48134
3.48307
3.48767
3.4845
3.48455
3.48568
3.48905
3.48328
3.48887
3.49183
3.48895
3.48659
3.48128
3.48255
3.48853
3.48847
3.4818
3.48075
3.4816
3.48478
3.49063
3.48055
3.48607
3.48232
3.48469
3.48249
3.48678
3.49193
3.48622
3.48914
3.48383
3.48895
3.48461
3.4837
3.49289
3.49004
3.48666
3.48858
3.48649
3.49075
3.4906
3.48569
3.48727
3.48349
3.48769
3.48164
3.49315
3.48435
3.49179
3.4883
3.48412
3.48966
3.49174
3.49659
3.48965
3.49225
3.48258
3.48445
3.48786
3.48444
3.48374
3.48651
3.48371
3.48513
3.48503
3.49255
3.4873
3.49023
3.48482
3.4843
3.47669
3.47791
3.4742
3.48679
3.48131
3.48594
3.48116
3.4867
3.48534
3.49172
3.48628
3.48755
3.48488
3.48815
3.48835
3.48736
3.49347
3.48706
3.4866
3.48937
3.48854
3.49005
3.48988
3.48586
3.49468
3.48634
3.49276
3.49262
3.49069
3.48785
3.48204
3.49199
3.48724
3.49063
3.4948
3.49106
3.49014
3.48897
3.48767
3.48536
3.48953
3.48801
3.48379
3.48762
3.48085
3.47982
3.48547
3.48134
3.48287
3.48268
3.47841
3.47857
3.47517
3.4847
3.48225
3.4838
3.48484
3.48384
3.49327
3.49018
3.4913
3.48693
3.49038
3.48642
3.48372
3.48465
3.48135
3.47291
3.48462
3.48173
3.48001
3.47286
3.48509
3.48388
3.47911
3.47947
3.47748
3.47602
3.47898
3.48031
3.47869
3.47975
3.48569
3.48728
3.4854
3.48867
3.48745
3.48717
3.48173
3.48842
3.48316
3.48086
3.48208
3.48287
3.48728
3.47924
3.48327
3.48198
3.48486
3.48554
3.48324
3.48055
3.48288
3.48587
3.48489
3.48896
3.48571
3.48259
3.47774
3.47823
3.48192
3.48271
3.48776
3.477
3.4778
3.48098
3.47946
3.47708
3.48213
3.48237
3.48223
3.47645
3.48099
3.47857
3.47667
3.48087
3.47384
3.4734
3.47975
3.48171
3.47836
3.48535
3.483
3.47956
3.47779
3.48135
3.47932
3.47789
3.48326
3.48144
3.48584
3.4796
3.47935
3.48043
3.48047
3.48839
3.48083
3.47598
3.47557
3.48331
3.48528
3.48188
3.48178
3.48461
3.47787
3.48898
3.48785
3.48766
3.48355
3.48124
3.48675
3.48143
3.48605
3.4847
3.48154
3.47589
3.48562
3.48598
3.47674
3.48323
3.47885
3.48133
3.48338
3.48116
3.48463
3.4812
3.47994
3.48014
3.482
3.47381
3.48458
3.48194
3.48329
3.48537
3.48342
3.47719
3.4772
3.47904
3.48074
3.48125
3.47808
3.48326
3.47892
3.48631
3.48309
3.48045
3.49427
3.48864
3.48455
3.48554
3.48466
3.48441
3.49319
3.4885
3.49447
3.49102
3.48723
3.48839
3.49346
3.48931
3.48792
3.48994
3.49505
3.48782
3.49377
3.48324
3.48492
3.48927
3.48895
3.49535
3.49321
3.49521
3.49109
3.49173
3.49706
3.49112
3.49032
3.48724
3.49127
3.49062
3.48982
3.48837
3.48079
3.48228
3.47709
3.48593
3.4826
3.49006
3.47862
3.48775
3.48219
3.48205
3.48356
3.48081
3.48512
3.48363
3.48227
3.48552
3.47994
3.48175
3.48294
3.48246
3.48372
3.49558
3.49304
3.49293
3.48907
3.50027
3.49524
3.49167
3.4922
3.48469
3.4891
3.4974
3.49969
3.49885
3.49599
3.48646
3.48651
3.49111
3.4872
3.49502
3.48039
3.47865
3.48623
3.48015
3.47773
3.48419
3.48212
3.48528
3.47495
3.47344
3.48709
3.48418
3.48438
3.48835
3.48343
3.48347
3.48387
3.48581
3.49374
3.49152
3.4907
3.49506
3.50369
3.5015
3.49693
3.49755
3.49228
3.48926
3.49895
3.49276
3.4944
3.48962
3.48949
3.49266
3.49144
3.49363
3.48893
3.48876
3.4843
3.48378
3.48714
3.49294
3.49659
3.49867
3.48682
3.48663
3.49073
3.48997
3.48635
3.48877
3.49099
3.48643
3.49248
3.49156
3.48688
3.49458
3.49189
3.49247
3.49465
3.49333
3.49352
3.49166
3.49533
3.49214
3.49098
3.50173
3.49646
3.49856
3.49754
3.50265
3.49784
3.49265
3.50212
3.5022
3.49663
3.4975
3.49675
3.49998
3.4905
3.50314
3.49882
3.50047
3.49733
3.49546
3.49244
3.49158
3.48704
3.49564
3.49345
3.49222
3.48649
3.48408
3.48958
3.48789
3.50727
3.496
3.48
3.49543
3.49661
3.49621
3.48868
3.49462
3.49632
3.49393
3.49624
3.49508
3.50317
3.4991
3.49507
3.50528
3.49868
3.49784
3.49828
3.49636
3.50154
3.49996
3.50116
3.49615
3.49956
3.49748
3.50546
3.50078
3.50122
3.49999
3.49961
3.49905
3.50169
3.49749
3.49935
3.49731
3.49584
3.50548
3.4977
3.4963
3.49417
3.50797
3.5046
3.50168
3.50939
3.5071
3.50443
3.50428
3.50462
3.50542
3.50263
3.50165
3.5101
3.51749
3.51473
3.51176
3.51134
3.50782
3.50786
3.51261
3.50511
3.51243
3.51639
3.50997
3.50652
3.50625
3.5047
3.50285
3.51105
3.51205
3.5149
3.51124
3.51029
3.5125
3.50728
3.51254
3.50773
3.51028
3.50973
3.51199
3.5158
3.5091
3.51408
3.51023
3.50893
3.50795
3.50767
3.50961
3.51199
3.51167
3.51071
3.51079
3.5105
3.51929
3.51576
3.51761
3.51483
3.51596
3.52193
3.51999
3.52115
3.51897
3.5166
3.50757
3.51557
3.51223
3.51934
3.51407
3.515
3.51521
3.51454
3.51296
3.51129
3.51167
3.50519
3.50339
3.50824
3.50899
3.50861
3.50762
3.50353
3.51847
3.52238
3.52113
3.52367
3.51961
3.52018
3.52015
3.52006
3.5178
3.51555
3.51358
3.51208
3.50372
3.51255
3.5091
3.51162
3.51179
3.50858
3.51518
3.5127
3.51177
3.52331
3.52124
3.52094
3.52311
3.52019
3.51852
3.52573
3.52678
3.52776
3.52368
3.51847
3.51965
3.51629
3.5221
3.52243
3.52836
3.51841
3.52022
3.51989
3.51657
3.51644
3.51983
3.52039
3.51809
3.51627
3.51678
3.51462
3.51563
3.51608
3.52183
3.52045
3.5223
3.51951
3.52034
3.51414
3.51231
3.51839
3.51432
3.51336
3.51695
3.51194
3.51531
3.53121
3.52496
3.52652
3.52999
3.52413
3.52255
3.51911
3.5176
3.51686
3.52515
3.52932
3.53563
3.53517
3.52536
3.53385
3.53173
3.53118
3.52559
3.53152
3.53283
3.52921
3.53558
3.52843
3.52968
3.51725
3.51386
3.51773
3.51553
3.52082
3.51907
3.5163
3.518
3.51179
3.51394
3.53263
3.53176
3.53448
3.52886
3.52995
3.52599
3.52735
3.53081
3.5295
3.52691
3.52439
3.52047
3.52274
3.52467
3.52558
3.52094
3.51663
3.5288
3.52063
3.5174
3.52334
3.52354
3.5247
3.53127
3.52642
3.52457
3.52333
3.52956
3.52854
3.5304
3.52875
3.52486
3.52627
3.52088
3.52281
3.5343
3.52906
3.52746
3.52932
3.5278
3.52971
3.53362
3.53503
3.52712
3.52795
3.52778
3.52541
3.53867
3.52735
3.53272
3.52854
3.53423
3.53158
3.52958
3.53048
3.53517
3.53196
3.53054
3.52498
3.52089
3.52785
3.52661
3.52473
3.52176
3.52786
3.52436
3.53067
3.52178
3.52348
3.53049
3.53241
3.53252
3.53389
3.51978
3.53166
3.53587
3.52939
3.53245
3.53298
3.52764
3.52597
3.51954
3.52183
3.52035
3.52149
3.52746
3.52484
3.52469
3.52354
3.52686
3.52259
3.5293
3.52583
3.52659
3.52309
3.53755
3.53422
3.54135
3.53637
3.53625
3.53991
3.53281
3.54177
3.54201
3.54592
3.54094
3.53767
3.53652
3.53831
3.53802
3.53776
3.54086
3.53015
3.53124
3.53893
3.53855
3.54179
3.54192
3.53941
3.54896
3.54755
3.54863
3.53517
3.53698
3.53657
3.53561
3.53573
3.54139
3.54403
3.53824
3.53555
3.54012
3.54144
3.54024
3.53386
3.5342
3.53117
3.5336
3.53593
3.53496
3.54023
3.53527
3.53618
3.53722
3.54283
3.54084
3.53816
3.53739
3.53862
3.53487
3.54284
3.53693
3.53504
3.53861
3.53844
3.53639
3.53744
3.54084
3.54005
3.54223
3.54138
3.53992
3.54039
3.53644
3.5422
3.53892
3.53529
3.53864
3.54386
3.54317
3.54313
3.54461
3.54452
3.5434
3.54396
3.55038
3.54909
3.55399
3.55055
3.54516
3.54735
3.54959
3.54017
3.54453
3.54479
3.55135
3.54318
3.54035
3.55128
3.54283
3.54175
3.54539
3.54245
3.54265
3.54174
3.54078
3.54277
3.54285
3.5427
3.54135
3.5345
3.5382
3.53508
3.53609
3.5348
3.53469
3.53539
3.53101
3.52614
3.53252
3.53177
3.53922
3.53694
3.53465
3.53956
3.53626
3.53442
3.53059
3.53877
3.53735
3.53173
3.53304
3.5388
3.53176
3.53425
3.53722
3.54017
3.51431
3.51654
3.51838
3.51777
3.51807
3.51428
3.52215
3.51738
3.5138
3.49631
3.49843
3.50034
3.49709
3.498
3.49873
3.50416
3.50387
3.50146
3.50164
3.50102
3.49801
3.50011
3.50218
3.50503
3.5028
3.50343
3.50273
3.50083
3.50035
3.50726
3.50776
3.50421
3.49774
3.50631
3.50135
3.50054
3.51262
3.50652
3.50265
3.50028
3.5062
3.50034
3.49838
3.51219
3.51208
3.47914
3.48203
3.48407
3.48146
3.47717
3.48177
3.54117
3.5386
3.5489
3.54506
3.53943
3.54157
3.54756
3.55095
3.546
3.54604
3.54206
3.54434
3.5407
3.54053
3.53908
3.54298
3.54803
3.54698
3.53945
3.54798
3.5493
3.54786
3.55222
3.54879
3.55026
3.55021
3.54079
3.54062
3.54109
3.54296
3.54407
3.54268
3.54102
3.54042
3.55225
3.53726
3.53702
3.53907
3.54475
3.5444
3.54144
3.54277
3.53886
3.53823
3.54168
3.54152
3.53861
3.54466
3.54534
3.54073
3.53754
3.53917
3.54185
3.5405
3.53843
3.53691
3.53456
3.54578
3.53806
3.54021
3.54314
3.53876
3.54281
3.5394
3.5428
3.54114
3.5441
3.54095
3.53804
3.53817
3.53751
3.53215
3.5413
3.54372
3.53871
3.5395
3.54503
3.54173
3.53872
3.53544
3.5403
3.5439
3.54325
3.53912
3.54232
3.53192
3.53293
3.532
3.53401
3.52855
3.53534
3.53566
3.53638
3.53133
3.52744
3.52951
3.52715
3.53277
3.53404
3.53401
3.53417
3.53177
3.53179
3.53244
3.53113
3.5351
3.53109
3.53042
3.53613
3.53225
3.53361
3.5303
3.53087
3.53336
3.53152
3.53417
3.53383
3.53329
3.52212
3.53225
3.52853
3.53295
3.53085
3.52767
3.52985
3.53481
3.53358
3.53106
3.53571
3.53258
3.52854
3.53746
3.53598
3.53521
3.53611
3.53237
3.53127
3.52473
3.52983
3.51823
3.5309
3.53367
3.5323
3.52639
3.52592
3.52137
3.51498
3.52122
3.51789
3.51781
3.52466
3.52131
3.52235
3.51754
3.5193
3.52541
3.52676
3.53531
3.52528
3.52666
3.52443
3.5207
3.52277
3.53208
3.53001
3.52837
3.53167
3.52343
3.52541
3.527
3.52114
3.52338
3.52523
3.52174
3.5262
3.52574
3.52178
3.5333
3.53372
3.53285
3.53127
3.52829
3.53009
3.52847
3.52933
3.52954
3.52664
3.5202
3.52162
3.52344
3.52862
3.52631
3.5333
3.5324
3.53423
3.53273
3.52706
3.52824
3.52756
3.52598
3.5219
3.51429
3.51072
3.51521
3.51689
3.5188
3.51601
3.52039
3.51446
3.51695
3.52398
3.51743
3.5169
3.51805
3.51602
3.51785
3.51787
3.51569
3.5132
3.51764
3.51705
3.51714
3.52473
3.52963
3.52458
3.52511
3.50875
3.5067
3.50969
3.51038
3.50379
3.51537
3.51669
3.51631
3.51363
3.5136
3.51198
3.51731
3.51787
3.51722
3.51883
3.52044
3.51496
3.51854
3.51224
3.50898
3.5097
3.50893
3.51412
3.5129
3.51477
3.514
3.51481
3.51253
3.51279
3.50545
3.51433
3.50972
3.50564
3.50458
3.50928
3.50487
3.50827
3.51034
3.50914
3.50525
3.50906
3.51108
3.51805
3.52182
3.51623
3.52199
3.5149
3.51423
3.51961
3.52024
3.51504
3.51582
3.51436
3.51426
3.51949
3.51727
3.51444
3.51238
3.51507
3.51355
3.51186
3.50833
3.50923
3.51034
3.51444
3.51131
3.51416
3.51133
3.51597
3.51131
3.51354
3.51044
3.51579
3.51446
3.51079
3.50801
3.51239
3.51284
3.51505
3.50927
3.51114
3.50975
3.51546
3.50778
3.50946
3.51066
3.50675
3.51392
3.51004
3.50335
3.50648
3.50798
3.49982
3.50316
3.50365
3.50154
3.49975
3.50061
3.504
3.50324
3.50805
3.50439
3.50846
3.5057
3.50222
3.50181
3.52004
3.51611
3.51694
3.51566
3.51763
3.51931
3.5056
3.514
3.51142
3.51046
3.51299
3.51409
3.51253
3.5094
3.51444
3.5083
3.51522
3.50624
3.51114
3.50917
3.51004
3.50878
3.50419
3.50898
3.50833
3.50977
3.5088
3.51096
3.5071
3.50458
3.50403
3.50116
3.5074
3.50797
3.50596
3.50364
3.51102
3.50732
3.49844
3.50129
3.50148
3.50103
3.50026
3.49912
3.50043
3.50344
3.5114
3.50944
3.50684
3.50606
3.50812
3.50372
3.50562
3.50943
3.50338
3.49948
3.49774
3.49919
3.50367
3.50737
3.50838
3.50611
3.50245
3.50367
3.5094
3.51095
3.50502
3.50611
3.50344
3.50246
3.49928
3.49601
3.49874
3.50098
3.49737
3.49824
3.49335
3.49002
3.5002
3.49626
3.49553
3.50093
3.50332
3.49837
3.50035
3.49662
3.4966
3.49969
3.49872
3.50301
3.50119
3.50127
3.50002
3.50103
3.49779
3.4952
3.49186
3.49714
3.4983
3.49753
3.49861
3.50107
3.49628
3.48539
3.49647
3.50101
3.49332
3.49398
3.48836
3.49184
3.48313
3.48394
3.48625
3.48827
3.48829
3.48763
3.48696
3.48701
3.48484
3.48068
3.48915
3.49124
3.48719
3.48503
3.48547
3.48833
3.48533
3.49176
3.49088
3.48559
3.48307
3.5082
3.49614
3.49593
3.49907
3.4934
3.49709
3.50119
3.50357
3.50137
3.50217
3.50173
3.49917
3.50374
3.50266
3.50517
3.50801
3.50089
3.5019
3.48473
3.48735
3.49281
3.4893
3.49151
3.48873
3.48956
3.48815
3.49359
3.4972
3.49068
3.50124
3.50055
3.49788
3.49671
3.49375
3.49544
3.4889
3.48965
3.49204
3.48999
3.47828
3.4807
3.47335
3.47989
3.47743
3.47683
3.4812
3.48258
3.48182
3.48224
3.48131
3.48057
3.4861
3.48716
3.48615
3.48917
3.48383
3.48296
3.4889
3.48122
3.48644
3.48862
3.4892
3.48608
3.48481
3.48481
3.49055
3.48424
3.48788
3.48587
3.49009
3.48339
3.48808
3.48659
3.47805
3.49023
3.48908
3.48391
3.48358
3.48099
3.48063
3.4743
3.47539
3.48293
3.48661
3.48209
3.48913
3.47748
3.48097
3.48518
3.48326
3.4885
3.48778
3.48636
3.48458
3.47794
3.47562