/*--------------------------------*- C++ -*----------------------------------*\
| =========                 |                                                 |
| \\      /  F ield         | OpenFOAM: The Open Source CFD Toolbox           |
|  \\    /   O peration     | Version:  v1612+                                |
|   \\  /    A nd           | Web:      www.OpenFOAM.com                      |
|    \\/     M anipulation  |                                                 |
\*---------------------------------------------------------------------------*/
FoamFile
{
    version     2.0;
    format      ascii;
    class       volVectorField;
    location    "100";
    object      U;
}
// * * * * * * * * * * * * * * * * * * * * * * * * * * * * * * * * * * * * * //

dimensions      [0 1 -1 0 0 0 0];

internalField   nonuniform List<vector> 
16891
(
(-0.241913 0.304579 -0.537534)
(-0.232231 0.299103 -0.54403)
(-0.232258 0.29875 -0.527029)
(-0.228938 0.284608 -0.522884)
(-0.395098 0.46714 -0.892597)
(-0.366577 0.437023 -0.810652)
(-0.337561 0.406172 -0.75963)
(-0.332308 0.402054 -0.750386)
(-0.348424 0.424038 -0.793082)
(-0.348567 0.427587 -0.801369)
(-0.417116 0.502572 -0.948983)
(-0.383138 0.45069 -0.849951)
(-0.359389 0.423315 -0.806246)
(-0.346274 0.415674 -0.781711)
(-0.38958 0.463528 -0.870902)
(-0.364907 0.4329 -0.821752)
(-0.395632 0.473117 -0.892884)
(-0.354006 0.423438 -0.799375)
(-0.37356 0.448144 -0.84448)
(-0.411231 0.492008 -0.936381)
(-0.423896 0.501854 -0.953412)
(-0.302257 0.381057 -0.685529)
(-0.276997 0.350292 -0.625317)
(-0.290703 0.36817 -0.666594)
(-0.285822 0.366699 -0.650733)
(-0.282022 0.358373 -0.647047)
(-0.228952 0.28735 -0.509057)
(-0.240473 0.298146 -0.538385)
(-0.23688 0.30767 -0.543193)
(-0.235318 0.297068 -0.526348)
(-0.227446 0.278626 -0.505296)
(-0.210887 0.263821 -0.471563)
(-0.212288 0.272409 -0.47946)
(-0.232794 0.294171 -0.526478)
(-0.206688 0.257161 -0.46409)
(-0.192435 0.244574 -0.438252)
(-0.223852 0.290203 -0.530015)
(-0.192179 0.251887 -0.461188)
(-0.215147 0.273051 -0.51167)
(-0.251822 0.318546 -0.605971)
(-0.275164 0.365045 -0.652181)
(-0.300154 0.396027 -0.70767)
(-0.226596 0.282852 -0.537433)
(-0.22508 0.294834 -0.538518)
(-0.217507 0.275449 -0.513151)
(-0.223237 0.277709 -0.540157)
(-0.291615 0.373527 -0.69608)
(-0.285601 0.363915 -0.671216)
(-0.278149 0.355561 -0.644708)
(-0.234474 0.292168 -0.553895)
(-0.270322 0.355377 -0.6408)
(-0.381707 0.472617 -0.858471)
(-0.401057 0.510776 -0.913864)
(-0.408061 0.516464 -0.937006)
(-0.415874 0.523098 -0.951094)
(-0.394797 0.492088 -0.89483)
(-0.398637 0.495909 -0.898435)
(-0.38222 0.474467 -0.855669)
(-0.371782 0.459744 -0.835839)
(-0.360502 0.454662 -0.816792)
(-0.364095 0.460968 -0.829497)
(-0.379671 0.474489 -0.861561)
(-0.334237 0.424075 -0.756574)
(-0.334202 0.428737 -0.767785)
(-0.343827 0.428933 -0.773633)
(-0.343736 0.433212 -0.7845)
(-0.382016 0.476329 -0.859933)
(-0.383339 0.465372 -0.85195)
(-0.366919 0.457926 -0.825588)
(-0.339965 0.424449 -0.763842)
(-0.372243 0.467608 -0.853838)
(-0.385171 0.481769 -0.871438)
(-0.31634 0.395456 -0.720228)
(-0.3091 0.371528 -0.710902)
(-0.295776 0.365918 -0.676284)
(-0.31086 0.372055 -0.683626)
(-0.294308 0.350953 -0.651697)
(-0.377446 0.464884 -0.859643)
(-0.333793 0.402107 -0.739902)
(-0.358006 0.444941 -0.815361)
(-0.359213 0.441989 -0.813482)
(-0.362228 0.445076 -0.823933)
(-0.296264 0.378352 -0.678227)
(-0.315289 0.400169 -0.73696)
(-0.281375 0.350354 -0.657855)
(-0.296289 0.364478 -0.68098)
(-0.357275 0.447746 -0.817148)
(-0.317613 0.402619 -0.73366)
(-0.293445 0.371989 -0.677807)
(-0.403253 0.494857 -0.900994)
(-0.383483 0.482673 -0.873609)
(-0.409348 0.506328 -0.91672)
(-0.390763 0.480908 -0.880667)
(-0.4015 0.495086 -0.896596)
(-0.379631 0.460348 -0.8428)
(-0.347003 0.412697 -0.76381)
(-0.389221 0.473755 -0.876238)
(-0.382255 0.474669 -0.856116)
(-0.353795 0.414367 -0.753057)
(-0.35902 0.443009 -0.810467)
(-0.369378 0.436149 -0.811494)
(-0.336629 0.412687 -0.749235)
(-0.310686 0.396659 -0.712661)
(-0.309462 0.373315 -0.697671)
(-0.368057 0.458609 -0.844746)
(-0.386063 0.469267 -0.864576)
(-0.377814 0.462885 -0.847078)
(-0.340379 0.410167 -0.763903)
(-0.325508 0.398942 -0.737299)
(-0.40688 0.468353 -0.901045)
(-0.399598 0.454319 -0.877446)
(-0.410275 0.471445 -0.908093)
(-0.410171 0.467899 -0.901069)
(-0.40432 0.46552 -0.897477)
(-0.394039 0.453253 -0.872974)
(-0.398639 0.457365 -0.880678)
(-0.42152 0.48328 -0.946569)
(-0.416596 0.47779 -0.924612)
(-0.366219 0.423431 -0.822407)
(-0.370877 0.420262 -0.816644)
(-0.409684 0.483683 -0.941526)
(-0.361285 0.412775 -0.81024)
(-0.421104 0.484006 -0.952077)
(-0.403615 0.472866 -0.90637)
(-0.363099 0.410523 -0.805875)
(-0.365107 0.414378 -0.800823)
(-0.394429 0.455141 -0.889282)
(-0.375727 0.425781 -0.83796)
(-0.353663 0.392461 -0.781209)
(-0.312269 0.385625 -0.686953)
(-0.334886 0.401205 -0.729783)
(-0.348947 0.422892 -0.780515)
(-0.323898 0.390972 -0.709154)
(-0.385337 0.469775 -0.863303)
(-0.393921 0.465156 -0.862358)
(-0.299048 0.373846 -0.662415)
(-0.295813 0.354532 -0.648344)
(-0.284195 0.348457 -0.636653)
(-0.263635 0.332822 -0.606942)
(-0.30602 0.367675 -0.678059)
(-0.297874 0.356738 -0.663841)
(-0.321584 0.384395 -0.708811)
(-0.313175 0.39578 -0.700328)
(-0.288816 0.357405 -0.634473)
(-0.299108 0.356924 -0.651846)
(-0.441496 0.548286 -1.00638)
(-0.434148 0.533589 -0.980757)
(-0.457356 0.561335 -1.02758)
(-0.453128 0.562757 -1.02985)
(-0.4565 0.565987 -1.04105)
(-0.454407 0.556784 -1.02873)
(-0.439295 0.540042 -0.99275)
(-0.440032 0.538099 -0.991495)
(-0.46122 0.570242 -1.0493)
(-0.452189 0.558605 -1.02922)
(-0.399169 0.496075 -0.902605)
(-0.402334 0.49079 -0.907714)
(-0.429313 0.530995 -0.975541)
(-0.450543 0.549759 -1.01039)
(-0.424529 0.522902 -0.959095)
(-0.446144 0.554926 -1.0134)
(-0.428907 0.526535 -0.972919)
(-0.43697 0.540288 -0.987037)
(-0.363528 0.425567 -0.793525)
(-0.365084 0.434052 -0.797312)
(-0.305303 0.384514 -0.699305)
(-0.373522 0.453415 -0.832903)
(-0.378565 0.450652 -0.845287)
(-0.343242 0.421287 -0.759326)
(-0.29945 0.389748 -0.697252)
(-0.368564 0.436339 -0.815259)
(-0.344671 0.413242 -0.762372)
(-0.312819 0.390988 -0.705617)
(-0.33088 0.382909 -0.712072)
(-0.320312 0.399932 -0.72985)
(-0.307682 0.357594 -0.667848)
(-0.30317 0.364984 -0.687131)
(-0.310741 0.359231 -0.672781)
(-0.352186 0.402459 -0.747846)
(-0.368095 0.445977 -0.831933)
(-0.331176 0.402289 -0.755736)
(-0.377052 0.456244 -0.853038)
(-0.325134 0.398451 -0.75166)
(-0.362564 0.437477 -0.826998)
(-0.330002 0.39474 -0.75263)
(-0.308437 0.388693 -0.733231)
(-0.354807 0.437028 -0.828271)
(-0.324427 0.399953 -0.748989)
(-0.386749 0.485643 -0.901511)
(-0.36244 0.427852 -0.810907)
(-0.310361 0.378093 -0.709766)
(-0.370276 0.459457 -0.855442)
(-0.299334 0.373419 -0.701816)
(-0.294245 0.358893 -0.680277)
(-0.317246 0.378791 -0.714708)
(-0.324161 0.388795 -0.73476)
(-0.261498 0.324974 -0.617352)
(-0.327062 0.389387 -0.73664)
(-0.296616 0.376771 -0.701993)
(-0.334133 0.393922 -0.739071)
(-0.269806 0.330904 -0.606891)
(-0.346815 0.447889 -0.804665)
(-0.310934 0.384604 -0.708871)
(-0.308541 0.37078 -0.67799)
(-0.25979 0.345632 -0.597076)
(-0.304601 0.387119 -0.697531)
(-0.359928 0.446764 -0.813709)
(-0.358282 0.445546 -0.820902)
(-0.298819 0.382601 -0.693588)
(-0.346115 0.422008 -0.776724)
(-0.307977 0.386118 -0.707339)
(-0.296028 0.366497 -0.673315)
(-0.377913 0.460088 -0.842187)
(-0.36243 0.451624 -0.827687)
(-0.300244 0.384204 -0.693034)
(-0.370937 0.454748 -0.836725)
(-0.322203 0.392864 -0.720529)
(-0.323424 0.395787 -0.714802)
(-0.312177 0.388442 -0.708797)
(-0.311606 0.381242 -0.708728)
(-0.293242 0.367906 -0.678742)
(-0.302739 0.377274 -0.704585)
(-0.319448 0.393733 -0.736568)
(-0.29895 0.366439 -0.677676)
(-0.343898 0.432004 -0.795645)
(-0.330809 0.40521 -0.748294)
(-0.370808 0.457118 -0.855584)
(-0.36763 0.447621 -0.840088)
(-0.374861 0.452302 -0.845468)
(-0.306225 0.377878 -0.697746)
(-0.318524 0.392103 -0.736545)
(-0.345015 0.423173 -0.786322)
(-0.33451 0.408802 -0.755554)
(-0.367302 0.445896 -0.815318)
(-0.372317 0.457986 -0.837651)
(-0.303896 0.374679 -0.680083)
(-0.317203 0.391768 -0.706567)
(-0.30133 0.377148 -0.685745)
(-0.318185 0.396074 -0.712701)
(-0.384014 0.458898 -0.859994)
(-0.378585 0.458281 -0.846273)
(-0.372798 0.455382 -0.84711)
(-0.348053 0.418123 -0.768522)
(-0.355857 0.443126 -0.796628)
(-0.327277 0.398178 -0.741641)
(-0.302462 0.376539 -0.696204)
(-0.355808 0.433108 -0.790244)
(-0.351971 0.435471 -0.805174)
(-0.311037 0.39708 -0.709293)
(-0.385038 0.46121 -0.855799)
(-0.291918 0.366672 -0.676807)
(-0.262428 0.338634 -0.610219)
(-0.276906 0.358629 -0.652153)
(-0.327026 0.403673 -0.734688)
(-0.326142 0.402836 -0.738549)
(-0.301148 0.356106 -0.674514)
(-0.302751 0.346954 -0.660733)
(-0.314053 0.398685 -0.727166)
(-0.322461 0.403114 -0.732843)
(-0.306931 0.37968 -0.697019)
(-0.299003 0.376489 -0.696957)
(-0.306174 0.371358 -0.692413)
(-0.327044 0.406603 -0.742819)
(-0.358166 0.448179 -0.798885)
(-0.311541 0.381372 -0.699284)
(-0.316908 0.376835 -0.691008)
(-0.291597 0.370397 -0.676817)
(-0.30863 0.372959 -0.690068)
(-0.300882 0.373221 -0.670812)
(-0.287648 0.366964 -0.658934)
(-0.295242 0.351723 -0.6515)
(-0.315399 0.373261 -0.699687)
(-0.368861 0.446149 -0.827695)
(-0.371363 0.455646 -0.841058)
(-0.369135 0.44944 -0.842133)
(-0.331191 0.398646 -0.730761)
(-0.299663 0.358499 -0.66512)
(-0.362296 0.438734 -0.815928)
(-0.325887 0.399069 -0.745201)
(-0.373412 0.451086 -0.840538)
(-0.369834 0.451231 -0.839951)
(-0.33043 0.403854 -0.736009)
(-0.298995 0.360451 -0.666914)
(-0.371271 0.45015 -0.830562)
(-0.320778 0.383876 -0.716476)
(-0.316844 0.381312 -0.701701)
(-0.44485 0.54068 -0.99322)
(-0.449706 0.55055 -1.01211)
(-0.441101 0.542497 -0.995148)
(-0.436459 0.536838 -0.979361)
(-0.439765 0.536945 -0.978272)
(-0.440483 0.532688 -0.971332)
(-0.451362 0.553781 -1.01473)
(-0.448587 0.557453 -1.01876)
(-0.43992 0.53351 -0.984619)
(-0.427591 0.524234 -0.956571)
(-0.458557 0.56334 -1.03564)
(-0.4227 0.518643 -0.950962)
(-0.446362 0.545867 -1.00532)
(-0.458565 0.564867 -1.03403)
(-0.449439 0.558559 -1.01586)
(-0.452902 0.548493 -1.0141)
(-0.424651 0.516393 -0.943961)
(-0.438406 0.529249 -0.973581)
(-0.447917 0.543744 -0.999651)
(-0.256958 0.304053 -0.542908)
(-0.243385 0.287848 -0.53412)
(-0.254694 0.303502 -0.548165)
(-0.256431 0.308782 -0.566496)
(-0.266883 0.326388 -0.593942)
(-0.328194 0.391541 -0.704454)
(-0.312471 0.381693 -0.690455)
(-0.294213 0.362311 -0.654167)
(-0.284689 0.337626 -0.614483)
(-0.267117 0.322874 -0.592418)
(-0.331832 0.393742 -0.729786)
(-0.313426 0.376481 -0.690612)
(-0.300394 0.36609 -0.665275)
(-0.330774 0.404349 -0.732948)
(-0.365287 0.438169 -0.814009)
(-0.357158 0.430155 -0.795895)
(-0.320235 0.387442 -0.717749)
(-0.348409 0.42039 -0.773522)
(-0.34991 0.425748 -0.774247)
(-0.386918 0.460425 -0.858978)
(-0.401889 0.476301 -0.892132)
(-0.377765 0.448257 -0.835629)
(-0.342683 0.404992 -0.76325)
(-0.343733 0.410134 -0.764663)
(-0.418478 0.498123 -0.930105)
(-0.409073 0.486229 -0.905055)
(-0.407217 0.48213 -0.897004)
(-0.416727 0.500465 -0.919874)
(-0.414967 0.492749 -0.917953)
(-0.377675 0.455292 -0.832838)
(-0.397457 0.475122 -0.882899)
(-0.371571 0.467585 -0.844756)
(-0.367622 0.463206 -0.837529)
(-0.360666 0.457989 -0.813503)
(-0.314549 0.398134 -0.718293)
(-0.294896 0.375756 -0.670117)
(-0.26194 0.326769 -0.589776)
(-0.270687 0.338312 -0.615289)
(-0.298401 0.385063 -0.670906)
(-0.289143 0.360885 -0.641369)
(-0.335892 0.431583 -0.755506)
(-0.322384 0.408688 -0.721009)
(-0.318749 0.397362 -0.705116)
(-0.32215 0.403716 -0.72124)
(-0.303263 0.396341 -0.699922)
(-0.24863 0.324698 -0.563282)
(-0.258807 0.338938 -0.595081)
(-0.28888 0.37127 -0.637804)
(-0.274881 0.33051 -0.58542)
(-0.292143 0.359599 -0.658267)
(-0.240697 0.293956 -0.547852)
(-0.284277 0.33461 -0.616052)
(-0.250374 0.308425 -0.557578)
(-0.221103 0.276989 -0.503605)
(-0.229912 0.286571 -0.527331)
(-0.248592 0.303583 -0.556217)
(-0.239338 0.289928 -0.512914)
(-0.223655 0.276897 -0.506727)
(-0.225383 0.284523 -0.507478)
(-0.217015 0.265031 -0.482821)
(-0.241938 0.284423 -0.514373)
(-0.205826 0.24873 -0.454483)
(-0.240339 0.299425 -0.548725)
(-0.268061 0.339274 -0.6105)
(-0.208396 0.256079 -0.46961)
(-0.343127 0.406542 -0.768051)
(-0.298948 0.347965 -0.661131)
(-0.289889 0.340135 -0.650011)
(-0.294039 0.351319 -0.670815)
(-0.28275 0.331734 -0.651387)
(-0.354873 0.418046 -0.793254)
(-0.357664 0.423227 -0.810815)
(-0.328356 0.387944 -0.741816)
(-0.298687 0.354774 -0.676508)
(-0.351631 0.41618 -0.785047)
(-0.352945 0.416325 -0.79152)
(-0.296883 0.350191 -0.658302)
(-0.281005 0.328178 -0.622306)
(-0.279228 0.331922 -0.630066)
(-0.319192 0.375785 -0.712235)
(-0.313878 0.367277 -0.694354)
(-0.281252 0.333777 -0.630386)
(-0.29933 0.349839 -0.662596)
(-0.295504 0.374006 -0.679354)
(-0.295398 0.358876 -0.656448)
(-0.395765 0.487069 -0.886089)
(-0.390265 0.481964 -0.872256)
(-0.373178 0.462801 -0.843948)
(-0.389408 0.478918 -0.884767)
(-0.35811 0.452553 -0.811492)
(-0.37684 0.469479 -0.859584)
(-0.341433 0.433821 -0.781604)
(-0.349813 0.442114 -0.802691)
(-0.319993 0.400968 -0.731982)
(-0.329204 0.408247 -0.751634)
(-0.301113 0.375704 -0.686121)
(-0.386835 0.47988 -0.863043)
(-0.376466 0.462117 -0.842932)
(-0.377324 0.473026 -0.85002)
(-0.303759 0.38146 -0.688702)
(-0.278074 0.359442 -0.640328)
(-0.289977 0.372369 -0.663943)
(-0.321316 0.400315 -0.728195)
(-0.29804 0.382951 -0.687624)
(-0.327282 0.411416 -0.750085)
(-0.245566 0.290323 -0.527638)
(-0.249217 0.291407 -0.544275)
(-0.226594 0.268552 -0.492183)
(-0.285309 0.340804 -0.638517)
(-0.267682 0.320231 -0.608192)
(-0.283459 0.351036 -0.653936)
(-0.28996 0.351119 -0.656302)
(-0.225874 0.270083 -0.490773)
(-0.234287 0.290391 -0.531575)
(-0.244327 0.289543 -0.534055)
(-0.22657 0.270123 -0.511748)
(-0.192309 0.240563 -0.437316)
(-0.228752 0.26054 -0.497924)
(-0.281771 0.350471 -0.642374)
(-0.260457 0.314117 -0.586809)
(-0.219963 0.271086 -0.491211)
(-0.210108 0.250576 -0.446243)
(-0.210099 0.265629 -0.468769)
(-0.257361 0.292719 -0.572588)
(-0.207278 0.258081 -0.49003)
(-0.25774 0.323301 -0.609849)
(-0.255283 0.305393 -0.572196)
(-0.316831 0.387933 -0.720127)
(-0.332152 0.403039 -0.736885)
(-0.349277 0.40308 -0.744976)
(-0.271729 0.328413 -0.614889)
(-0.328896 0.384877 -0.706262)
(-0.329152 0.381336 -0.715656)
(-0.242919 0.291079 -0.535322)
(-0.298869 0.359231 -0.656069)
(-0.438803 0.540373 -1.03077)
(-0.443499 0.53767 -1.02107)
(-0.440588 0.529212 -1.01635)
(-0.44428 0.542578 -1.02216)
(-0.434187 0.530261 -0.995654)
(-0.433865 0.531818 -1.00113)
(-0.432504 0.528593 -0.991968)
(-0.405667 0.490694 -0.924069)
(-0.426631 0.524112 -0.980242)
(-0.415003 0.510901 -0.947228)
(-0.415332 0.510085 -0.963825)
(-0.389861 0.480011 -0.898627)
(-0.392467 0.4842 -0.911388)
(-0.394203 0.477762 -0.900062)
(-0.422749 0.520124 -0.976912)
(-0.447327 0.533026 -0.993056)
(-0.43233 0.515909 -0.958784)
(-0.391045 0.47166 -0.870092)
(-0.400772 0.480877 -0.886877)
(-0.442584 0.53292 -0.987253)
(-0.453437 0.549503 -1.01045)
(-0.418935 0.497896 -0.922703)
(-0.401247 0.469163 -0.87356)
(-0.38911 0.46925 -0.86152)
(-0.397894 0.475136 -0.877395)
(-0.420937 0.515723 -0.945616)
(-0.440436 0.530839 -0.978611)
(-0.451192 0.535776 -0.998963)
(-0.444197 0.534915 -0.984076)
(-0.40248 0.471594 -0.876532)
(-0.394082 0.460175 -0.856832)
(-0.44458 0.533556 -0.9959)
(-0.430393 0.512549 -0.952627)
(-0.410995 0.496869 -0.918236)
(-0.441055 0.529841 -0.985022)
(-0.412363 0.499515 -0.92266)
(-0.432208 0.521759 -0.963467)
(-0.33629 0.406453 -0.768769)
(-0.327187 0.394234 -0.762525)
(-0.382225 0.47259 -0.906477)
(-0.389155 0.476123 -0.89682)
(-0.313894 0.370335 -0.727111)
(-0.332824 0.40234 -0.761251)
(-0.413584 0.501747 -0.950433)
(-0.34063 0.399092 -0.757551)
(-0.308908 0.379991 -0.72855)
(-0.373813 0.441314 -0.852199)
(-0.383312 0.457714 -0.873701)
(-0.34864 0.437816 -0.838824)
(-0.318248 0.388471 -0.751847)
(-0.411763 0.505392 -0.945039)
(-0.428878 0.527803 -0.974434)
(-0.372999 0.469787 -0.88656)
(-0.355505 0.430389 -0.816378)
(-0.35183 0.432983 -0.826774)
(-0.363346 0.423106 -0.824353)
(-0.393826 0.477824 -0.907401)
(-0.294947 0.34584 -0.646984)
(-0.344931 0.402755 -0.766849)
(-0.333056 0.385313 -0.731648)
(-0.290991 0.332793 -0.633118)
(-0.318927 0.369578 -0.700215)
(-0.28124 0.327206 -0.621895)
(-0.326659 0.372517 -0.719387)
(-0.315958 0.35943 -0.6863)
(-0.3726 0.432414 -0.825215)
(-0.365305 0.431462 -0.814585)
(-0.363563 0.423421 -0.806457)
(-0.374381 0.432237 -0.824418)
(-0.307219 0.361166 -0.679904)
(-0.305255 0.352294 -0.673564)
(-0.31981 0.370438 -0.713089)
(-0.333499 0.378671 -0.737511)
(-0.329673 0.403206 -0.737851)
(-0.306388 0.377788 -0.676562)
(-0.313776 0.39058 -0.697693)
(-0.311327 0.385914 -0.68738)
(-0.343395 0.416126 -0.744735)
(-0.297546 0.360146 -0.671405)
(-0.323559 0.387638 -0.705093)
(-0.305054 0.365338 -0.67272)
(-0.342169 0.410599 -0.750797)
(-0.335583 0.40771 -0.742235)
(-0.319317 0.386156 -0.69757)
(-0.382868 0.464152 -0.866454)
(-0.336893 0.412667 -0.762201)
(-0.347405 0.429293 -0.781736)
(-0.377622 0.462285 -0.845819)
(-0.350454 0.423796 -0.760668)
(-0.329865 0.405441 -0.746477)
(-0.331079 0.398757 -0.743882)
(-0.32791 0.403567 -0.749889)
(-0.329937 0.394662 -0.732778)
(-0.32138 0.401825 -0.724614)
(-0.235081 0.275181 -0.521746)
(-0.223066 0.268976 -0.50425)
(-0.229538 0.287903 -0.53916)
(-0.22985 0.285245 -0.52646)
(-0.325663 0.39041 -0.73761)
(-0.316743 0.375899 -0.70027)
(-0.255393 0.316609 -0.586432)
(-0.250296 0.303062 -0.562075)
(-0.23654 0.282111 -0.534897)
(-0.229081 0.293556 -0.522607)
(-0.2532 0.319206 -0.582494)
(-0.249892 0.313489 -0.555867)
(-0.286398 0.354023 -0.647344)
(-0.281101 0.346016 -0.64073)
(-0.317885 0.387302 -0.715317)
(-0.361317 0.431855 -0.813601)
(-0.37111 0.438076 -0.83325)
(-0.323953 0.379863 -0.720935)
(-0.340359 0.397051 -0.757801)
(-0.315354 0.377037 -0.72017)
(-0.320892 0.369555 -0.717446)
(-0.365471 0.435729 -0.821154)
(-0.277488 0.323959 -0.620313)
(-0.27662 0.326546 -0.615973)
(-0.358581 0.415428 -0.797915)
(-0.30636 0.356217 -0.680604)
(-0.286324 0.336898 -0.638186)
(-0.294997 0.345698 -0.668514)
(-0.33246 0.385975 -0.737499)
(-0.326681 0.377528 -0.719925)
(-0.277672 0.331155 -0.638063)
(-0.274797 0.320659 -0.607215)
(-0.26351 0.307472 -0.586611)
(-0.302839 0.356329 -0.677931)
(-0.287854 0.3374 -0.646397)
(-0.315845 0.372806 -0.703024)
(-0.25153 0.311795 -0.574489)
(-0.230657 0.284351 -0.509029)
(-0.229883 0.29063 -0.529385)
(-0.254624 0.299298 -0.557367)
(-0.244132 0.304896 -0.54486)
(-0.265981 0.329186 -0.584044)
(-0.269997 0.341898 -0.625546)
(-0.327019 0.39799 -0.740273)
(-0.323919 0.397357 -0.728035)
(-0.2688 0.333626 -0.59899)
(-0.281048 0.349405 -0.629799)
(-0.335429 0.411183 -0.746106)
(-0.321319 0.38645 -0.714888)
(-0.33138 0.405462 -0.736629)
(-0.307046 0.374699 -0.68742)
(-0.317843 0.383008 -0.709788)
(-0.342708 0.413248 -0.763676)
(-0.318929 0.377089 -0.705817)
(-0.353356 0.423588 -0.780312)
(-0.33275 0.397031 -0.742892)
(-0.375091 0.462076 -0.842548)
(-0.369325 0.456984 -0.830764)
(-0.376678 0.45199 -0.838533)
(-0.364518 0.431833 -0.809522)
(-0.371876 0.447591 -0.835902)
(-0.377234 0.449594 -0.841619)
(-0.405986 0.484711 -0.90769)
(-0.416284 0.508938 -0.946309)
(-0.374727 0.448934 -0.838183)
(-0.362976 0.431189 -0.795725)
(-0.352154 0.428338 -0.806008)
(-0.338441 0.417787 -0.770143)
(-0.369957 0.448916 -0.825957)
(-0.367135 0.444616 -0.826154)
(-0.422069 0.50875 -0.947402)
(-0.413871 0.499793 -0.930236)
(-0.366383 0.438443 -0.805545)
(-0.343562 0.403933 -0.756598)
(-0.374778 0.451925 -0.831615)
(-0.384713 0.47457 -0.86326)
(-0.33931 0.421188 -0.767684)
(-0.425655 0.488918 -0.941199)
(-0.417632 0.479082 -0.922992)
(-0.441076 0.508575 -0.974713)
(-0.420696 0.474704 -0.921703)
(-0.440047 0.504606 -0.973545)
(-0.427819 0.495462 -0.953897)
(-0.476139 0.561355 -1.0634)
(-0.460203 0.537518 -1.01701)
(-0.430226 0.494784 -0.956499)
(-0.447187 0.50653 -0.973326)
(-0.445657 0.502154 -0.975333)
(-0.459254 0.53436 -1.0153)
(-0.454238 0.520064 -0.98912)
(-0.476098 0.543245 -1.03152)
(-0.433484 0.501993 -0.970355)
(-0.462067 0.533323 -1.02302)
(-0.455731 0.523959 -1.01412)
(-0.445124 0.510588 -0.987767)
(-0.381718 0.476974 -0.876274)
(-0.409144 0.516208 -0.939394)
(-0.415694 0.515506 -0.942329)
(-0.419029 0.520802 -0.947183)
(-0.402061 0.501655 -0.908809)
(-0.396014 0.493008 -0.878644)
(-0.311595 0.383666 -0.696926)
(-0.319142 0.385136 -0.701897)
(-0.346904 0.415522 -0.779187)
(-0.360609 0.440969 -0.804046)
(-0.342795 0.40933 -0.752264)
(-0.320026 0.383655 -0.702849)
(-0.312054 0.383823 -0.707082)
(-0.300483 0.366014 -0.671532)
(-0.324898 0.401377 -0.721112)
(-0.350934 0.433236 -0.79007)
(-0.366801 0.454217 -0.816696)
(-0.258297 0.309363 -0.576081)
(-0.234965 0.285671 -0.535061)
(-0.245897 0.294815 -0.548308)
(-0.233471 0.280472 -0.531441)
(-0.257695 0.308545 -0.59003)
(-0.246637 0.293878 -0.565132)
(-0.215096 0.261266 -0.481371)
(-0.234638 0.27533 -0.512131)
(-0.224619 0.264943 -0.50299)
(-0.236601 0.288354 -0.544074)
(-0.26834 0.314753 -0.604196)
(-0.273539 0.33725 -0.640278)
(-0.266844 0.331027 -0.633075)
(-0.226497 0.278175 -0.524996)
(-0.209746 0.249238 -0.453798)
(-0.248926 0.298406 -0.574289)
(-0.265958 0.308127 -0.598776)
(-0.246842 0.298489 -0.564706)
(-0.229573 0.274917 -0.518521)
(-0.21201 0.242677 -0.49781)
(-0.207596 0.23313 -0.464231)
(-0.222311 0.243295 -0.476624)
(-0.192367 0.207866 -0.417619)
(-0.24353 0.269373 -0.542873)
(-0.227362 0.255963 -0.507466)
(-0.219986 0.270739 -0.518129)
(-0.201476 0.240414 -0.471325)
(-0.195597 0.208962 -0.42788)
(-0.220717 0.260637 -0.507607)
(-0.23709 0.282475 -0.535241)
(-0.280356 0.336946 -0.630558)
(-0.17905 0.206419 -0.409909)
(-0.27725 0.339023 -0.632626)
(-0.293712 0.357349 -0.681237)
(-0.203284 0.242089 -0.468798)
(-0.232552 0.27125 -0.54336)
(-0.312816 0.367342 -0.687424)
(-0.332252 0.395118 -0.722438)
(-0.340026 0.408364 -0.740136)
(-0.347556 0.408178 -0.760693)
(-0.374822 0.44415 -0.824189)
(-0.390743 0.467189 -0.866532)
(-0.255752 0.305918 -0.566559)
(-0.239783 0.295246 -0.56201)
(-0.357257 0.446739 -0.814891)
(-0.359789 0.45641 -0.835696)
(-0.324799 0.405776 -0.733505)
(-0.298389 0.364069 -0.664069)
(-0.307943 0.377635 -0.700292)
(-0.266093 0.33846 -0.61427)
(-0.261889 0.321766 -0.580957)
(-0.252945 0.309223 -0.57003)
(-0.263818 0.332781 -0.6058)
(-0.275341 0.344273 -0.633929)
(-0.274332 0.336531 -0.618516)
(-0.346914 0.429496 -0.788487)
(-0.365242 0.456611 -0.823227)
(-0.312696 0.385199 -0.710962)
(-0.322924 0.400938 -0.728481)
(-0.330379 0.414134 -0.749639)
(-0.287256 0.347172 -0.652043)
(-0.314665 0.381689 -0.708121)
(-0.322073 0.393112 -0.719908)
(-0.335792 0.411877 -0.745937)
(-0.338809 0.409707 -0.758879)
(-0.31054 0.380405 -0.6918)
(-0.326817 0.400413 -0.733644)
(-0.368968 0.45407 -0.834344)
(-0.333385 0.408932 -0.750263)
(-0.368432 0.455377 -0.826589)
(-0.356969 0.429786 -0.793652)
(-0.314733 0.387034 -0.70777)
(-0.30204 0.375943 -0.680502)
(-0.371819 0.454653 -0.837698)
(-0.324365 0.411282 -0.753744)
(-0.369591 0.457153 -0.836813)
(-0.313944 0.390031 -0.710288)
(-0.337095 0.408042 -0.754464)
(-0.370991 0.457445 -0.832468)
(-0.356044 0.437624 -0.799437)
(-0.367764 0.456218 -0.831251)
(-0.320731 0.393296 -0.721383)
(-0.30103 0.381486 -0.681649)
(-0.29639 0.357146 -0.6373)
(-0.291673 0.349115 -0.619791)
(-0.266538 0.313605 -0.569255)
(-0.251806 0.301615 -0.536783)
(-0.230344 0.272512 -0.498189)
(-0.26665 0.318566 -0.574722)
(-0.227842 0.265632 -0.491799)
(-0.236312 0.291373 -0.517243)
(-0.215531 0.261354 -0.462926)
(-0.235101 0.296669 -0.535847)
(-0.206193 0.259491 -0.482551)
(-0.244537 0.298724 -0.53132)
(-0.222613 0.275379 -0.497532)
(-0.263658 0.325555 -0.585627)
(-0.237294 0.285704 -0.530447)
(-0.253953 0.308244 -0.550879)
(-0.241443 0.313488 -0.543275)
(-0.230491 0.28778 -0.521875)
(-0.239825 0.302107 -0.546121)
(-0.225826 0.285496 -0.498036)
(-0.214577 0.256475 -0.46768)
(-0.224179 0.282388 -0.513222)
(-0.2067 0.259219 -0.457665)
(-0.25894 0.297804 -0.571772)
(-0.257505 0.305715 -0.583308)
(-0.313679 0.362051 -0.701685)
(-0.29861 0.348826 -0.663821)
(-0.219378 0.269518 -0.507651)
(-0.221197 0.266021 -0.493474)
(-0.221017 0.264325 -0.48802)
(-0.31196 0.37572 -0.710738)
(-0.316294 0.373357 -0.716813)
(-0.308931 0.356659 -0.689098)
(-0.311909 0.369783 -0.696185)
(-0.239982 0.278181 -0.530589)
(-0.232669 0.276563 -0.516584)
(-0.223387 0.266898 -0.504278)
(-0.24419 0.277992 -0.531618)
(-0.208864 0.231458 -0.465869)
(-0.288062 0.337025 -0.644843)
(-0.319105 0.381761 -0.714876)
(-0.274308 0.313059 -0.596931)
(-0.24315 0.281944 -0.532797)
(-0.308613 0.366264 -0.682601)
(-0.260682 0.30551 -0.573897)
(-0.283352 0.355387 -0.644729)
(-0.298062 0.370542 -0.661691)
(-0.207569 0.257856 -0.465169)
(-0.246145 0.295463 -0.537224)
(-0.28627 0.35555 -0.647067)
(-0.283455 0.352463 -0.641362)
(-0.252609 0.305295 -0.567537)
(-0.208931 0.255719 -0.471468)
(-0.288578 0.353524 -0.620428)
(-0.243228 0.298928 -0.543637)
(-0.241533 0.29501 -0.552046)
(-0.212112 0.267911 -0.479867)
(-0.216936 0.270392 -0.484883)
(-0.232001 0.285749 -0.522374)
(-0.237243 0.296041 -0.530753)
(-0.22834 0.274018 -0.508917)
(-0.19797 0.231293 -0.419148)
(-0.214871 0.271615 -0.489104)
(-0.215514 0.269094 -0.493206)
(-0.189161 0.246064 -0.420204)
(-0.203389 0.252609 -0.451266)
(-0.20682 0.25933 -0.455895)
(-0.30221 0.377052 -0.695487)
(-0.293496 0.364563 -0.670945)
(-0.319679 0.394778 -0.727525)
(-0.330971 0.410828 -0.754636)
(-0.315103 0.39142 -0.731004)
(-0.285209 0.356668 -0.659509)
(-0.307328 0.380878 -0.7023)
(-0.296257 0.369004 -0.677421)
(-0.292537 0.370464 -0.673696)
(-0.243941 0.298488 -0.553274)
(-0.241846 0.293781 -0.548024)
(-0.2156 0.277405 -0.512235)
(-0.285911 0.353583 -0.676164)
(-0.267911 0.34198 -0.636058)
(-0.227561 0.283561 -0.536274)
(-0.251364 0.321636 -0.60309)
(-0.239377 0.288239 -0.53993)
(-0.212808 0.257001 -0.494889)
(-0.241993 0.293368 -0.54921)
(-0.242376 0.309281 -0.577943)
(-0.241176 0.287101 -0.553031)
(-0.194642 0.24405 -0.470635)
(-0.28253 0.337718 -0.633734)
(-0.287203 0.330335 -0.616374)
(-0.278797 0.327758 -0.609087)
(-0.239061 0.296682 -0.534148)
(-0.211828 0.25339 -0.470812)
(-0.239417 0.280401 -0.521243)
(-0.289107 0.343326 -0.649687)
(-0.285833 0.329801 -0.619888)
(-0.249228 0.292076 -0.535539)
(-0.233512 0.270773 -0.502287)
(-0.217027 0.257929 -0.471332)
(-0.207537 0.246963 -0.450894)
(-0.21862 0.263164 -0.484458)
(-0.202924 0.241372 -0.442983)
(-0.254519 0.293688 -0.558737)
(-0.247847 0.29645 -0.551648)
(-0.220873 0.266168 -0.497682)
(-0.188651 0.220941 -0.411198)
(-0.313712 0.391683 -0.708835)
(-0.33237 0.416738 -0.746464)
(-0.370577 0.452932 -0.837413)
(-0.31043 0.390518 -0.707202)
(-0.382077 0.475742 -0.867553)
(-0.371176 0.471761 -0.85314)
(-0.363779 0.469858 -0.842499)
(-0.320972 0.40714 -0.729932)
(-0.325109 0.406979 -0.739396)
(-0.281245 0.340385 -0.627579)
(-0.290519 0.354166 -0.653866)
(-0.245279 0.299374 -0.553896)
(-0.21749 0.270223 -0.496207)
(-0.217597 0.259839 -0.492174)
(-0.232905 0.287575 -0.536212)
(-0.213934 0.261457 -0.482349)
(-0.195374 0.227728 -0.428646)
(-0.283388 0.343259 -0.640041)
(-0.200624 0.248806 -0.459446)
(-0.239918 0.305107 -0.551472)
(-0.210442 0.253834 -0.469689)
(-0.17596 0.221653 -0.418045)
(-0.292024 0.353859 -0.653835)
(-0.258618 0.316287 -0.580037)
(-0.245828 0.297178 -0.552066)
(-0.249421 0.324092 -0.575931)
(-0.257635 0.329216 -0.591766)
(-0.254055 0.307904 -0.556279)
(-0.230083 0.279951 -0.514502)
(-0.302463 0.372563 -0.678609)
(-0.299207 0.3676 -0.691893)
(-0.29226 0.356365 -0.648404)
(-0.255336 0.308542 -0.57368)
(-0.222791 0.277763 -0.521879)
(-0.244034 0.297438 -0.545592)
(-0.247 0.314625 -0.56506)
(-0.210625 0.235263 -0.468872)
(-0.257008 0.327094 -0.582643)
(-0.239232 0.292074 -0.535461)
(-0.224256 0.258001 -0.497121)
(-0.246269 0.304723 -0.545831)
(-0.249885 0.318722 -0.559038)
(-0.230955 0.287267 -0.516903)
(-0.237166 0.300132 -0.52464)
(-0.225054 0.285886 -0.495653)
(-0.307276 0.383754 -0.682553)
(-0.295906 0.375769 -0.669349)
(-0.328138 0.414964 -0.744287)
(-0.296813 0.370359 -0.674271)
(-0.242248 0.302698 -0.531963)
(-0.228576 0.289182 -0.508498)
(-0.249916 0.302866 -0.561488)
(-0.212426 0.273614 -0.477888)
(-0.250827 0.314382 -0.559662)
(-0.336118 0.423512 -0.757152)
(-0.308906 0.393998 -0.709236)
(-0.236829 0.301355 -0.524637)
(-0.29208 0.364458 -0.662466)
(-0.303305 0.386468 -0.684882)
(-0.320657 0.401797 -0.718513)
(-0.256857 0.319751 -0.56493)
(-0.30693 0.380132 -0.682549)
(-0.370432 0.449182 -0.832576)
(-0.355976 0.422094 -0.783562)
(-0.364306 0.434458 -0.793148)
(-0.36652 0.439464 -0.82245)
(-0.289784 0.346552 -0.638844)
(-0.315843 0.373629 -0.693959)
(-0.391463 0.465568 -0.862954)
(-0.297922 0.365121 -0.65301)
(-0.318836 0.380898 -0.699268)
(-0.290143 0.353385 -0.637328)
(-0.359453 0.435607 -0.813187)
(-0.346568 0.424589 -0.791312)
(-0.302171 0.365664 -0.672541)
(-0.37135 0.447394 -0.829342)
(-0.309473 0.362995 -0.667424)
(-0.319117 0.386202 -0.710513)
(-0.291569 0.359776 -0.659501)
(-0.316716 0.379248 -0.697853)
(-0.326522 0.403189 -0.732215)
(-0.318813 0.372444 -0.691816)
(-0.300436 0.364083 -0.678089)
(-0.270256 0.330568 -0.60107)
(-0.302156 0.367441 -0.670795)
(-0.31657 0.376333 -0.692952)
(-0.224723 0.281806 -0.516894)
(-0.274598 0.340242 -0.633637)
(-0.271189 0.345946 -0.638385)
(-0.225074 0.277591 -0.516871)
(-0.195483 0.250185 -0.450918)
(-0.241185 0.298674 -0.551136)
(-0.217672 0.269344 -0.494681)
(-0.204611 0.259364 -0.476116)
(-0.256727 0.308292 -0.577345)
(-0.290924 0.363466 -0.662559)
(-0.247509 0.318732 -0.58143)
(-0.311439 0.374185 -0.693206)
(-0.349393 0.413058 -0.781889)
(-0.307067 0.369842 -0.692882)
(-0.283058 0.338675 -0.616086)
(-0.388699 0.462374 -0.86153)
(-0.386105 0.458984 -0.841862)
(-0.334188 0.402949 -0.737231)
(-0.381446 0.449823 -0.836548)
(-0.387529 0.463442 -0.864758)
(-0.38223 0.44387 -0.83094)
(-0.367088 0.43986 -0.818184)
(-0.292816 0.357551 -0.657286)
(-0.331167 0.394591 -0.740769)
(-0.298338 0.367591 -0.68158)
(-0.373581 0.455222 -0.835766)
(-0.325294 0.388157 -0.722264)
(-0.239764 0.297039 -0.538416)
(-0.226465 0.275995 -0.498122)