/*--------------------------------*- C++ -*----------------------------------*\
| =========                 |                                                 |
| \\      /  F ield         | OpenFOAM: The Open Source CFD Toolbox           |
|  \\    /   O peration     | Version:  v1612+                                |
|   \\  /    A nd           | Web:      www.OpenFOAM.com                      |
|    \\/     M anipulation  |                                                 |
\*---------------------------------------------------------------------------*/
FoamFile
{
    version     2.0;
    format      ascii;
    class       volScalarField;
    location    "150";
    object      p;
}
// * * * * * * * * * * * * * * * * * * * * * * * * * * * * * * * * * * * * * //

dimensions      [0 2 -2 0 0 0 0];

internalField   nonuniform List<scalar> 
18942
(
0.329433
0.268175
0.291765
0.353439
0.352552
0.353178
0.351521
0.349208
0.345757
0.351079
0.349719
0.346669
0.349602
0.346683
0.352393
0.343402
0.349711
0.353154
0.342631
0.345971
0.353281
0.344186
0.346572
0.339606
0.337571
0.339409
0.348214
0.348745
0.346932
0.337095
0.340918
0.340102
0.34011
0.345392
0.341409
0.335871
0.336087
0.33659
0.339545
0.311605
0.307424
0.311716
0.311424
0.309787
0.308362
0.308719
0.312424
0.308862
0.305284
0.311813
0.305791
0.308765
0.349481
0.350932
0.343796
0.334861
0.341207
0.342996
0.347037
0.336163
0.337952
0.346069
0.348245
0.335601
0.339247
0.33771
0.337648
0.268733
0.270309
0.266057
0.26818
0.267653
0.269491
0.27057
0.26665
0.268529
0.270018
0.267102
0.26853
0.265957
0.266604
0.317388
0.315032
0.325945
0.312599
0.317733
0.317482
0.325416
0.32525
0.314226
0.320412
0.325373
0.307426
0.324126
0.323892
0.314493
0.330853
0.31666
0.36411
0.372104
0.366453
0.370728
0.36574
0.362766
0.363254
0.370849
0.378924
0.365577
0.36922
0.369908
0.366991
0.376056
0.324521
0.322334
0.31434
0.318304
0.322432
0.320818
0.321327
0.320593
0.32657
0.325976
0.32259
0.327445
0.316986
0.325285
0.324118
0.318349
0.325917
0.325103
0.25886
0.263082
0.255049
0.259427
0.262002
0.257085
0.268004
0.262406
0.260717
0.257763
0.265395
0.266877
0.280779
0.280612
0.279365
0.278644
0.278176
0.278342
0.271286
0.272049
0.271069
0.272392
0.273218
0.272125
0.281537
0.271266
0.268039
0.271999
0.275511
0.27188
0.269437
0.273291
0.27931
0.277004
0.279771
0.274618
0.302316
0.302642
0.309324
0.309154
0.301809
0.304594
0.295793
0.301322
0.311332
0.310459
0.307003
0.311082
0.309007
0.306327
0.303773
0.299295
0.299165
0.301487
0.297785
0.256664
0.259436
0.263606
0.264997
0.263107
0.261279
0.262367
0.264505
0.259558
0.265501
0.310067
0.308473
0.303787
0.3027
0.299138
0.304536
0.300489
0.301083
0.304317
0.319574
0.310822
0.304167
0.308244
0.31118
0.302685
0.311458
0.304317
0.310493
0.309056
0.301663
0.304643
0.319479
0.319362
0.324278
0.324083
0.317219
0.316238
0.32137
0.318623
0.322912
0.322881
0.317525
0.32042
0.313172
0.313875
0.364792
0.362283
0.364826
0.372233
0.369885
0.358161
0.361831
0.363688
0.358282
0.365232
0.364069
0.366572
0.369571
0.375422
0.356104
0.365028
0.359952
0.359213
0.362994
0.35945
0.351133
0.352886
0.322211
0.319792
0.326524
0.327278
0.318944
0.312861
0.318987
0.323423
0.325091
0.324571
0.322244
0.314218
0.31189
0.31839
0.312501
0.317253
0.309648
0.318467
0.354523
0.356319
0.348486
0.354523
0.354105
0.361624
0.354162
0.356342
0.349094
0.356287
0.355649
0.358231
0.358215
0.362644
0.357189
0.359483
0.352092
0.355149
0.35274
0.352884
0.357225
0.361757
0.357922
0.350945
0.354032
0.343368
0.358106
0.353358
0.361244
0.357379
0.367763
0.353329
0.358806
0.359303
0.354889
0.3572
0.358586
0.35407
0.366766
0.373848
0.367424
0.367669
0.375862
0.378429
0.376724
0.376633
0.376913
0.379575
0.38346
0.374286
0.376799
0.376747
0.375933
0.373075
0.374087
0.376873
0.383167
0.385062
0.388689
0.386361
0.389483
0.387527
0.385235
0.383889
0.383278
0.384163
0.382453
0.386367
0.386151
0.381311
0.385544
0.382937
0.384841
0.386905
0.385586
0.383292
0.255104
0.264303
0.264261
0.265538
0.263026
0.262365
0.259723
0.259342
0.257029
0.259398
0.266702
0.264942
0.263756
0.264952
0.265819
0.266443
0.264697
0.263913
0.264407
0.265712
0.265322
0.274816
0.273356
0.269868
0.26607
0.259811
0.341936
0.341127
0.342918
0.343881
0.34032
0.34305
0.356626
0.34536
0.349263
0.348603
0.344835
0.341499
0.35068
0.351595
0.351704
0.351347
0.353716
0.350363
0.351403
0.275503
0.277852
0.273192
0.276114
0.276891
0.271024
0.275119
0.271427
0.273498
0.277153
0.276968
0.276208
0.273293
0.27447
0.2731
0.274647
0.272238
0.273057
0.369492
0.366137
0.36945
0.37144
0.372033
0.369432
0.375009
0.375406
0.368896
0.362306
0.372651
0.371124
0.3678
0.37731
0.379612
0.378164
0.363263
0.377043
0.373553
0.366769
0.309679
0.31466
0.321336
0.319526
0.315938
0.31746
0.259135
0.267227
0.256783
0.259661
0.327296
0.327881
0.324429
0.328415
0.328496
0.322709
0.327331
0.329
0.321608
0.315473
0.323163
0.334394
0.335853
0.336937
0.327096
0.317184
0.320412
0.319367
0.318325
0.332686
0.330057
0.327573
0.330206
0.328423
0.328927
0.330494
0.327293
0.255733
0.261531
0.259814
0.273011
0.282331
0.278539
0.268668
0.279234
0.277231
0.277223
0.27738
0.280738
0.284638
0.284135
0.278112
0.274208
0.283677
0.277471
0.276257
0.272594
0.284781
0.285568
0.28512
0.283129
0.307913
0.298474
0.295788
0.299336
0.290424
0.284169
0.300786
0.29784
0.296961
0.293467
0.294282
0.287389
0.290319
0.289388
0.286601
0.290467
0.295975
0.286074
0.28678
0.291683
0.287974
0.287639
0.289433
0.291544
0.294183
0.297188
0.292014
0.292122
0.290285
0.288943
0.29382
0.292282
0.291608
0.285658
0.290665
0.298618
0.290897
0.263339
0.322816
0.326763
0.320238
0.32322
0.332054
0.31758
0.323183
0.326943
0.32418
0.326544
0.328385
0.326728
0.322014
0.328809
0.32553
0.324702
0.328785
0.320299
0.31407
0.316669
0.319563
0.318399
0.318971
0.31957
0.322506
0.31748
0.318346
0.31967
0.322449
0.317521
0.322674
0.31551
0.319308
0.315353
0.316785
0.261366
0.264349
0.267234
0.265815
0.264514
0.259455
0.264204
0.262351
0.263756
0.266519
0.267674
0.263494
0.26738
0.26905
0.266447
0.268975
0.269626
0.264261
0.265656
0.26431
0.341961
0.326813
0.338022
0.340721
0.333612
0.329742
0.329558
0.330531
0.335332
0.338883
0.326704
0.323089
0.32923
0.326787
0.325904
0.33246
0.33083
0.332246
0.330484
0.327015
0.301398
0.297829
0.301036
0.3049
0.309094
0.302522
0.307054
0.306942
0.304259
0.306998
0.307332
0.310287
0.306536
0.30375
0.305531
0.302767
0.31069
0.311518
0.309549
0.309191
0.309806
0.312596
0.307654
0.307728
0.3174
0.312341
0.312782
0.31465
0.31689
0.308356
0.309684
0.268221
0.271704
0.268278
0.274227
0.271604
0.275361
0.273214
0.273346
0.276545
0.278093
0.282475
0.281022
0.299336
0.297794
0.300097
0.298884
0.299221
0.30078
0.302011
0.304524
0.30192
0.299366
0.299499
0.299719
0.300949
0.301051
0.303693
0.3005
0.295411
0.298579
0.30359
0.300858
0.308503
0.303992
0.296265
0.296727
0.2919
0.292849
0.297095
0.296633
0.295429
0.298996
0.297228
0.299898
0.297375
0.299831
0.299897
0.299921
0.297679
0.295064
0.301674
0.295907
0.299116
0.298008
0.294872
0.299161
0.304058
0.30061
0.267177
0.279667
0.274941
0.264114
0.268423
0.274345
0.271747
0.271473
0.258752
0.270046
0.267811
0.268689
0.268732
0.270519
0.272189
0.27176
0.267909
0.304998
0.303592
0.303277
0.301344
0.305223
0.302855
0.304462
0.305869
0.294663
0.29926
0.3027
0.298753
0.298487
0.30013
0.306393
0.281282
0.280665
0.282371
0.279342
0.282615
0.285102
0.28161
0.279462
0.277008
0.277785
0.286293
0.289313
0.278701
0.274178
0.285376
0.283701
0.285178
0.280006
0.284894
0.282704
0.269171
0.274814
0.26998
0.273642
0.269063
0.268159
0.271017
0.26852
0.264472
0.271477
0.262604
0.255621
0.275678
0.271363
0.269242
0.267124
0.260824
0.312043
0.311688
0.313605
0.313085
0.31382
0.311636
0.31359
0.314949
0.312357
0.312857
0.308122
0.315231
0.316811
0.313542
0.315111
0.313374
0.311496
0.31092
0.314534
0.316086
0.277951
0.284974
0.288861
0.284659
0.280961
0.28189
0.284861
0.284681
0.284619
0.278971
0.287458
0.286642
0.281711
0.290411
0.273541
0.277891
0.278611
0.280153
0.286069
0.275649
0.280263
0.278184
0.337379
0.335229
0.336692
0.334226
0.341535
0.345347
0.329251
0.338279
0.33601
0.335947
0.345117
0.34142
0.340038
0.330416
0.328685
0.327544
0.326193
0.343092
0.336394
0.327125
0.285255
0.29377
0.28945
0.284958
0.288339
0.286089
0.285583
0.286785
0.287626
0.287829
0.291556
0.289228
0.291122
0.288696
0.289275
0.287013
0.289365
0.286582
0.288798
0.286365
0.301013
0.302201
0.303319
0.30064
0.299104
0.29921
0.299342
0.300914
0.297988
0.2965
0.301157
0.297533
0.302595
0.300709
0.301027
0.303581
0.305704
0.2988
0.299624
0.33959
0.342942
0.34229
0.341998
0.349944
0.347581
0.345543
0.355451
0.344753
0.348615
0.356358
0.356633
0.347431
0.353877
0.356622
0.351212
0.340958
0.354703
0.352394
0.344047
0.349888
0.348696
0.333344
0.342514
0.331859
0.337591
0.337977
0.325911
0.33259
0.326918
0.341439
0.347141
0.352127
0.341063
0.346453
0.343299
0.341605
0.353128
0.343244
0.31442
0.313138
0.312666
0.307232
0.313067
0.319045
0.313507
0.313361
0.306087
0.308149
0.308768
0.309386
0.310777
0.307239
0.307588
0.309322
0.303837
0.310955
0.307215
0.313123
0.333113
0.329985
0.336567
0.334681
0.337913
0.334547
0.335829
0.334272
0.339406
0.330036
0.331792
0.332543
0.332419
0.334156
0.336761
0.337251
0.321351
0.317944
0.322363
0.314048
0.31697
0.318343
0.326788
0.329039
0.321563
0.320794
0.31987
0.321925
0.323713
0.329689
0.330541
0.33134
0.331789
0.322121
0.325064
0.327721
0.32713
0.333096
0.332342
0.329518
0.331619
0.331252
0.320326
0.321947
0.323616
0.322203
0.320883
0.321787
0.32469
0.323823
0.348494
0.341807
0.346256
0.350141
0.348472
0.350877
0.352829
0.345886
0.349934
0.355008
0.348408
0.348796
0.325147
0.332891
0.340409
0.341702
0.340393
0.335523
0.331753
0.334886
0.331181
0.32917
0.331843
0.332447
0.324897
0.367459
0.369283
0.370478
0.366846
0.366792
0.370969
0.365083
0.371285
0.368715
0.367942
0.369216
0.371075
0.370576
0.373484
0.375829
0.36833
0.371884
0.37443
0.375959
0.37477
0.377537
0.373493
0.37514
0.375184
0.376682
0.375568
0.370378
0.376715
0.374493
0.372976
0.373723
0.269894
0.269921
0.272095
0.267241
0.265663
0.269274
0.271422
0.265858
0.264043
0.267809
0.266606
0.268044
0.272892
0.277536
0.275182
0.268816
0.272456
0.27754
0.271269
0.268981
0.280181
0.280523
0.275436
0.278355
0.274348
0.270742
0.279924
0.275816
0.279457
0.279724
0.276526
0.281892
0.274811
0.277849
0.279408
0.281248
0.282826
0.27348
0.268145
0.270828
0.272364
0.271346
0.272401
0.276894
0.274363
0.266065
0.26795
0.271005
0.261533
0.268998
0.262846
0.324818
0.360601
0.359618
0.382723
0.385556
0.332287
0.333563
0.337527
0.380812
0.38573
0.386041
0.323325
0.325862
0.320989
0.365938
0.369039
0.382762
0.383755
0.378167
0.376505
0.381293
0.310325
0.308932
0.335464
0.330543
0.337312
0.335321
0.377444
0.379115
0.379677
0.318361
0.366447
0.364297
0.36652
0.369923
0.369866
0.371733
0.374403
0.372952
0.374854
0.345418
0.35243
0.350538
0.349096
0.347796
0.352739
0.317004
0.319279
0.354916
0.359798
0.358833
0.339465
0.343635
0.336013
0.341406
0.31733
0.313
0.31343
0.311926
0.307307
0.300579
0.361345
0.357451
0.360506
0.348127
0.341867
0.342031
0.347722
0.34689
0.31197
0.311682
0.312013
0.324709
0.32073
0.342248
0.343327
0.311048
0.307646
0.301635
0.331234
0.330984
0.337448
0.3419
0.341133
0.339169
0.342465
0.335982
0.31281
0.308658
0.305562
0.305825
0.306348
0.341351
0.340588
0.317539
0.327257
0.324871
0.303292
0.3045
0.29982
0.308422
0.316567
0.319868
0.324035
0.300197
0.298951
0.326789
0.3258
0.324114
0.329213
0.326777
0.294275
0.297666
0.301508
0.304257
0.311361
0.310769
0.305813
0.316379
0.314196
0.311394
0.313031
0.32364
0.319375
0.295491
0.292256
0.303401
0.316619
0.312723
0.312888
0.315774
0.286843
0.28219
0.289987
0.295845
0.295456
0.291278
0.291695
0.301964
0.303869
0.290612
0.298153
0.296255
0.304487
0.302477
0.283251
0.292361
0.284559
0.291646
0.278888
0.27997
0.286468
0.286169
0.291611
0.292672
0.277278
0.279935
0.283916
0.285265
0.283254
0.289492
0.287342
0.286918
0.292842
0.275192
0.278281
0.271933
0.285243
0.28238
0.279658
0.276394
0.280113
0.274321
0.27857
0.267068
0.273264
0.272491
0.275492
0.267912
0.263647
0.261711
0.268639
0.269253
0.270242
0.270038
0.268735
0.2716
0.263556
0.270896
0.276635
0.275211
0.278701
0.27996
0.278551
0.26728
0.268702
0.270567
0.260066
0.266501
0.262632
0.263868
0.263153
0.268422
0.276784
0.271516
0.26802
0.267725
0.263358
0.262323
0.274218
0.270447
0.267256
0.274977
0.272198
0.277501
0.272647
0.263934
0.265846
0.269583
0.268896
0.269207
0.264099
0.27078
0.267247
0.255994
0.265726
0.266996
0.266467
0.264419
0.262771
0.272325
0.268957
0.267673
0.268277
0.277028
0.271784
0.2761
0.272532
0.266909
0.265325
0.269264
0.272887
0.26319
0.266676
0.269563
0.263858
0.265223
0.265808
0.267839
0.267071
0.265832
0.264782
0.266848
0.268845
0.269891
0.255383
0.259634
0.270718
0.274267
0.272546
0.27924
0.277057
0.277453
0.267956
0.270266
0.269499
0.264966
0.265886
0.265675
0.269939
0.26882
0.269246
0.267834
0.281484
0.279042
0.267526
0.268743
0.270761
0.274319
0.269321
0.267109
0.275356
0.277482
0.272542
0.270525
0.276692
0.270236
0.270146
0.273508
0.269897
0.272418
0.26346
0.267593
0.270328
0.270154
0.277452
0.276526
0.262085
0.258943
0.262123
0.262557
0.268411
0.259949
0.26808
0.269052
0.271603
0.269708
0.263007
0.272513
0.26663
0.269346
0.270696
0.261437
0.266246
0.265399
0.264382
0.28632
0.283727
0.275163
0.280065
0.283548
0.282076
0.268651
0.284524
0.281151
0.270675
0.268916
0.279252
0.27892
0.27603
0.272674
0.278699
0.273444
0.28015
0.274279
0.27318
0.275997
0.272156
0.26664
0.265274
0.271231
0.265962
0.26935
0.267942
0.266257
0.272081
0.273278
0.263971
0.267933
0.268925
0.274649
0.2687
0.271711
0.267746
0.273328
0.270279
0.282981
0.279718
0.277402
0.275291
0.277696
0.26988
0.274543
0.274858
0.275524
0.277139
0.281293
0.287891
0.273635
0.27286
0.276747
0.275804
0.27446
0.265159
0.26937
0.271692
0.269815
0.262635
0.284665
0.286901
0.282514
0.283431
0.281086
0.289466
0.287621
0.279252
0.282719
0.277416
0.28701
0.285287
0.2853
0.288171
0.27887
0.273149
0.270665
0.274917
0.27442
0.274994
0.276343
0.279831
0.277152
0.28292
0.280748
0.278355
0.280652
0.285751
0.287114
0.288153
0.279147
0.281136
0.294901
0.290352
0.290106
0.297124
0.284649
0.285309
0.284631
0.285225
0.290737
0.289351
0.290189
0.279852
0.272593
0.272393
0.277174
0.280647
0.285133
0.27886
0.276492
0.282176
0.276601
0.274248
0.273577
0.283204
0.279491
0.279518
0.266559
0.284404
0.279589
0.280714
0.270985
0.279299
0.282412
0.276791
0.276966
0.278949
0.2806
0.300503
0.296407
0.296887
0.29825
0.295608
0.284846
0.284435
0.279226
0.276679
0.281424
0.278297
0.281777
0.279958
0.27986
0.283589
0.284595
0.285651
0.284195
0.299157
0.301867
0.300926
0.295588
0.289654
0.29677
0.29649
0.288568
0.287661
0.292379
0.282741
0.28882
0.295567
0.294813
0.29372
0.2868
0.282187
0.294134
0.290049
0.288281
0.279067
0.286622
0.284206
0.279785
0.282544
0.283027
0.283463
0.284373
0.282718
0.278143
0.281409
0.277229
0.277908
0.286607
0.284979
0.291526
0.282688
0.278798
0.281959
0.281789
0.28547
0.280552
0.286517
0.271385
0.279123
0.273907
0.283073
0.275955
0.269825
0.27232
0.283192
0.274219
0.279307
0.277745
0.276596
0.27682
0.284234
0.281799
0.280834
0.281348
0.304196
0.293075
0.303932
0.294425
0.293118
0.29497
0.290513
0.291498
0.291616
0.287003
0.286973
0.293216
0.288729
0.287532
0.28875
0.283628
0.290681
0.295807
0.295133
0.290148
0.281577
0.283663
0.288694
0.285754
0.281026
0.27893
0.284918
0.283483
0.281752
0.28516
0.287557
0.289625
0.281352
0.276062
0.279968
0.276672
0.277582
0.282356
0.276359
0.276142
0.280169
0.274819
0.277526
0.275161
0.277815
0.277675
0.274005
0.295091
0.29424
0.299067
0.29246
0.295028
0.291868
0.289516
0.29369
0.283883
0.282683
0.284427
0.288217
0.294939
0.290041
0.293696
0.293471
0.30725
0.309189
0.309404
0.309161
0.310278
0.307462
0.300575
0.306094
0.304808
0.306406
0.308774
0.302819
0.313354
0.308934
0.302903
0.302874
0.295103
0.299957
0.29794
0.299015
0.302116
0.303495
0.299167
0.29758
0.302411
0.306113
0.300298
0.306304
0.302607
0.298289
0.298306
0.294396
0.30541
0.297455
0.309752
0.293734
0.300743
0.302205
0.300194
0.285274
0.29228
0.291556
0.286087
0.286666
0.286487
0.283919
0.315644
0.315204
0.310557
0.30421
0.304173
0.309922
0.300516
0.306929
0.311897
0.306522
0.308812
0.304574
0.308666
0.307208
0.297201
0.302553
0.306493
0.304991
0.303272
0.303831
0.298718
0.294101
0.292312
0.297654
0.295744
0.296825
0.303069
0.30345
0.30349
0.299091
0.297929
0.300839
0.302863
0.299979
0.294104
0.298617
0.283668
0.29575
0.295687
0.292258
0.288852
0.295125
0.295107
0.294997
0.300188
0.304164
0.300244
0.293115
0.292053
0.295232
0.293916
0.286918
0.289633
0.286399
0.286653
0.290697
0.288881
0.284747
0.280679
0.286733
0.284092
0.288569
0.288164
0.292228
0.287385
0.292205
0.291081
0.287024
0.283502
0.293791
0.284764
0.288638
0.292113
0.290774
0.288168
0.293781
0.299072
0.295046
0.293709
0.296104
0.292559
0.30215
0.301319
0.29582
0.293139
0.294898
0.29215
0.303696
0.284235
0.288696
0.291553
0.291418
0.290547
0.291253
0.289101
0.290871
0.293041
0.299221
0.293959
0.294482
0.296932
0.294666
0.295317
0.30047
0.311157
0.297545
0.296033
0.290696
0.294017
0.294816
0.291189
0.286655
0.282519
0.279926
0.287152
0.286358
0.292191
0.319009
0.317348
0.315203
0.31161
0.311309
0.311111
0.311034
0.310036
0.310071
0.304229
0.316705
0.31248
0.305779
0.302519
0.311252
0.31275
0.311803
0.309996
0.287481
0.303276
0.298123
0.295963
0.294589
0.305167
0.296561
0.297932
0.298033
0.292661
0.294821
0.299418
0.291548
0.295486
0.294774
0.328337
0.327482
0.32371
0.32019
0.317381
0.327046
0.324988
0.314151
0.309897
0.312308
0.320139
0.313956
0.31521
0.317286
0.31856
0.325436
0.316175
0.317244
0.31388
0.312156
0.306783
0.308342
0.31515
0.307392
0.308556
0.311973
0.308766
0.320416
0.318225
0.315346
0.315882
0.306671
0.313234
0.32685
0.32619
0.320531
0.319476
0.318321
0.322226
0.312403
0.307522
0.31506
0.31572
0.313635
0.313242
0.301982
0.310198
0.301868
0.294919
0.29796
0.302662
0.302461
0.300834
0.304353
0.307725
0.30662
0.306843
0.305605
0.307366
0.30085
0.305941
0.312855
0.305852
0.315768
0.31102
0.31069
0.316087
0.315292
0.305172
0.309372
0.307586
0.306246
0.304629
0.296082
0.302719
0.302025
0.327868
0.328455
0.327339
0.329299
0.329144
0.331423
0.332919
0.327826
0.331587
0.315142
0.317409
0.321943
0.322917
0.317405
0.31158
0.323666
0.321525
0.322103
0.314589
0.314417
0.336308
0.326877
0.325912
0.327287
0.334516
0.330626
0.328287
0.328946
0.315806
0.318638
0.318178
0.321914
0.316348
0.326581
0.321561
0.32389
0.316265
0.322779
0.317844
0.320252
0.302385
0.305601
0.306037
0.30234
0.309419
0.297815
0.300235
0.306481
0.303588
0.306573
0.308632
0.304185
0.302107
0.289578
0.297614
0.29582
0.299212
0.298667
0.301337
0.298731
0.305356
0.296625
0.301525
0.302187
0.303516
0.30313
0.335365
0.325642
0.323475
0.326303
0.31466
0.329043
0.33957
0.326475
0.313655
0.319855
0.315427
0.316914
0.31296
0.318489
0.309651
0.316073
0.307374
0.310592
0.312452
0.30275
0.313865
0.308825
0.303311
0.312261
0.308814
0.30447
0.304889
0.313403
0.311716
0.305095
0.306792
0.30698
0.30801
0.306485
0.312912
0.304516
0.293665
0.2983
0.305545
0.29973
0.30107
0.296338
0.299442
0.331507
0.33231
0.335076
0.326784
0.318079
0.324471
0.31723
0.314084
0.313188
0.322005
0.316554
0.321898
0.311127
0.311335
0.310726
0.321211
0.318189
0.315624
0.312012
0.310541
0.308777
0.314984
0.344134
0.343299
0.341144
0.340441
0.338758
0.336145
0.335885
0.305481
0.304896
0.304277
0.309131
0.311786
0.309446
0.30646
0.299584
0.302106
0.302728
0.302412
0.306672
0.306196
0.316614
0.307636
0.312747
0.30909
0.310766
0.304244
0.303461
0.305366
0.315818
0.314343
0.311081
0.302756
0.310971
0.311524
0.31665
0.31056
0.311951
0.315214
0.303701
0.308033
0.30851
0.314822
0.30721
0.303692
0.306729
0.311105
0.343641
0.341694
0.353993
0.34114
0.343582
0.347621
0.341872
0.344515
0.347323
0.341895
0.331914
0.331096
0.334928
0.332691
0.331941
0.338341
0.338092
0.338403
0.343807
0.341133
0.338691
0.340389
0.345886
0.342752
0.334571
0.339654
0.337977
0.340659
0.338051
0.351744
0.348108
0.347209
0.341998
0.342499
0.329957
0.336467
0.334121
0.33169
0.328894
0.329675
0.32422
0.328181
0.337389
0.345636
0.330371
0.339564
0.340474
0.340418
0.322625
0.318542
0.317786
0.334661
0.327383
0.33354
0.330153
0.33326
0.336124
0.32905
0.321721
0.326134
0.319312
0.322058
0.325849
0.328204
0.324201
0.323288
0.32129
0.331732
0.326338
0.326926
0.32888
0.331395
0.310978
0.30571
0.310976
0.304447
0.304189
0.308151
0.309326
0.316249
0.304528
0.304724
0.301781
0.311579
0.311881
0.306011
0.308413
0.308059
0.309953
0.306647
0.309874
0.305944
0.30456
0.306142
0.305771
0.306192
0.309974
0.349249
0.347109
0.324221
0.335561
0.339226
0.327671
0.326991
0.336912
0.334379
0.335613
0.337399
0.32953
0.332853
0.33631
0.331922
0.326377
0.320593
0.322161
0.322657
0.319016
0.334177
0.334931
0.319639
0.315596
0.31919
0.324386
0.31726
0.31908
0.321797
0.320289
0.316117
0.32568
0.329741
0.321833
0.324764
0.316027
0.308536
0.308422
0.310012
0.315758
0.315198
0.314627
0.314741
0.313772
0.316057
0.307551
0.312978
0.301877
0.306979
0.31028
0.314132
0.309828
0.310914
0.311874
0.355874
0.353819
0.350184
0.348577
0.353522
0.350218
0.349161
0.346653
0.361117
0.354775
0.35233
0.352781
0.349096
0.356047
0.355054
0.341369
0.347591
0.345632
0.343692
0.344275
0.351498
0.34813
0.343785
0.343496
0.340821
0.341032
0.354579
0.355361
0.347025
0.341272
0.343008
0.346769
0.349134
0.333484
0.340787
0.341208
0.344161
0.343112
0.342792
0.338933
0.337488
0.333565
0.334829
0.341288
0.336416
0.338963
0.364266
0.35988
0.364252
0.35867
0.353711
0.358975
0.361646
0.358213
0.356127
0.355454
0.360731
0.354767
0.360633
0.356991
0.354876
0.360289
0.359494
0.352743
0.351128
0.342371
0.346139
0.345356
0.349112
0.344787
0.344441
0.342876
0.34462
0.347786
0.349942
0.308206
0.305449
0.308822
0.305275
0.307121
0.31226
0.313504
0.303525
0.313578
0.3059
0.305703
0.307006
0.308223
0.309306
0.306954
0.310975
0.30755
0.310402
0.329192
0.323733
0.32433
0.321702
0.319814
0.312273
0.317453
0.315134
0.31883
0.314639
0.315855
0.313756
0.355286
0.348618
0.350157
0.340885
0.341154
0.342774
0.347888
0.34206
0.343954
0.337691
0.344832
0.350909
0.336899
0.334407
0.332636
0.338036
0.334513
0.326338
0.36671
0.362701
0.36471
0.356002
0.363067
0.362803
0.363258
0.359234
0.357146
0.361382
0.357751
0.361615
0.362773
0.362861
0.358009
0.359394
0.352367
0.349889
0.354237
0.356407
0.352713
0.35261
0.329639
0.329987
0.331905
0.318374
0.320861
0.31794
0.314093
0.310377
0.312685
0.315333
0.312414
0.319491
0.31571
0.318164
0.312038
0.316272
0.309259
0.317486
0.31339
0.305724
0.301571
0.311431
0.311359
0.311311
0.314948
0.31308
0.358876
0.354576
0.354795
0.346206
0.354023
0.352262
0.355587
0.351501
0.343042
0.34264
0.343076
0.357429
0.350193
0.345217
0.343927
0.334706
0.340565
0.343409
0.340033
0.345184
0.342396
0.342193
0.346819
0.364806
0.361055
0.362488
0.34785
0.355457
0.347845
0.356509
0.347284
0.357332
0.356974
0.381169
0.378058
0.377665
0.374535
0.373469
0.375396
0.379588
0.376699
0.374634
0.374998
0.372137
0.371397
0.370764
0.370572
0.374064
0.371037
0.376674
0.376731
0.375269
0.372961
0.372692
0.366585
0.365922
0.353194
0.361005
0.356936
0.356201
0.359788
0.362525
0.367702
0.368853
0.367022
0.367285
0.364287
0.370636
0.361336
0.374827
0.322768
0.315557
0.316071
0.316005
0.313175
0.308302
0.3061
0.308891
0.310736
0.312257
0.322944
0.318751
0.326233
0.322275
0.318282
0.316107
0.321994
0.382023
0.383336
0.384489
0.378646
0.377268
0.380352
0.377478
0.369307
0.375225
0.374205
0.368876
0.369678
0.372848
0.369068
0.368684
0.329828
0.322946
0.327181
0.327613
0.329774
0.327159
0.344528
0.340643
0.335435
0.340649
0.323673
0.325471
0.331774
0.328647
0.329747
0.32518
0.313538
0.315396
0.302402
0.314791
0.31641
0.305124
0.313638
0.312524
0.31358
0.315019
0.313757
0.385903
0.381554
0.373113
0.374681
0.374639
0.383566
0.384457
0.386281
0.384495
0.388306
0.382956
0.384651
0.378626
0.377163
0.378909
0.378164
0.377286
0.369664
0.372053
0.3717
0.374475
0.374643
0.375783
0.375072
0.371568
0.379457
0.374268
0.379605
0.380312
0.375256
0.368371
0.373862
0.376559
0.381708
0.376928
0.374892
0.377591
0.376831
0.346278
0.351908
0.361561
0.35688
0.357909
0.35394
0.3571
0.362739
0.359553
0.363136
0.379239
0.373988
0.368746
0.324856
0.327661
0.318015
0.330917
0.335076
0.330698
0.327612
0.333419
0.331617
0.386886
0.386507
0.38354
0.379118
0.380846
0.383782
0.384065
0.384113
0.38225
0.380804
0.381934
0.338611
0.334913
0.33873
0.334761
0.338386
0.333941
0.323026
0.319327
0.328659
0.333897
0.319012
0.324208
0.331386
0.330096
0.31848
0.317703
0.320992
0.319468
0.323742
0.325834
0.346591
0.346039
0.344325
0.33722
0.338122
0.384099
0.383767
0.385155
0.385241
0.382197
0.382353
0.374122
0.379145
0.380983
0.380936
0.347549
0.355417
0.351476
0.357355
0.366982
0.3607
0.353695
0.358213
0.358148
0.367288
0.356696
0.354256
0.363992
0.361321
0.328519
0.32359
0.319533
0.320275
0.320034
0.314853
0.324987
0.3186
0.332792
0.318305
0.358191
0.369215
0.364823
0.365779
0.359336
0.362302
0.375302
0.37718
0.373279
0.346501
0.338309
0.338098
0.341361
0.351065
0.347618
0.348252
0.348322
0.348192
0.348222
0.341326
0.356875
0.362518
0.364084
0.366817
0.374292
0.37399
0.355719
0.362688
0.359694
0.367298
0.336166
0.337507
0.334989
0.344943
0.381614
0.384049
0.387111
0.389117
0.389134
0.390596
0.38421
0.384262
0.384889
0.332164
0.330203
0.373251
0.377081
0.377894
0.377621
0.37478
0.372759
0.377985
0.370437
0.372652
0.369406
0.364148
0.375526
0.373269
0.370212
0.370965
0.368569
0.366096
0.32194
0.323565
0.315079
0.310919
0.312299
0.312037
0.316279
0.316372
0.321058
0.328163
0.320473
0.318723
0.333751
0.325773
0.325847
0.327641
0.331433
0.329881
0.367408
0.37125
0.370149
0.366738
0.366106
0.368246
0.373137
0.371789
0.373746
0.372663
0.371844
0.307927
0.311297
0.304648
0.311835
0.312743
0.308587
0.305458
0.358558
0.36432
0.36081
0.358334
0.355597
0.366119
0.365764
0.362167
0.358307
0.367197
0.359805
0.359882
0.359491
0.36457
0.365925
0.369018
0.366442
0.365335
0.361123
0.374719
0.380954
0.379971
0.383498
0.382704
0.380543
0.37901
0.380435
0.379668
0.384585
0.384051
0.352158
0.355496
0.35961
0.355372
0.355718
0.349895
0.354942
0.349832
0.354261
0.35768
0.369588
0.364319
0.359892
0.360087
0.375592
0.370092
0.364027
0.371052
0.369597
0.329584
0.341265
0.365484
0.359647
0.353479
0.360957
0.358101
0.353297
0.354186
0.315811
0.327652
0.321476
0.322367
0.326337
0.327048
0.326055
0.32363
0.31897
0.317185
0.319571
0.327461
0.340116
0.332746
0.329182
0.327318
0.336352
0.337966
0.323706
0.351698
0.3482
0.343704
0.35338
0.352303
0.342116
0.347774
0.346232
0.342072
0.311233
0.310688
0.308584
0.312585
0.311818
0.311845
0.312133
0.32077
0.317206
0.317302
0.315253
0.320057
0.322944
0.327951
0.32001
0.319357
0.325728
0.331043
0.322713
0.322637
0.322111
0.330881
0.327333
0.328951
0.326593
0.317857
0.327564
0.326924
0.32316
0.324664
0.307455
0.309669
0.308392
0.313383
0.312742
0.310025
0.313951
0.309606
0.313315
0.308273
0.314409
0.310918
0.317193
0.3165
0.323497
0.320276
0.32489
0.31736
0.315805
0.31622
0.316045
0.321088
0.315903
0.312502
0.316303
0.342044
0.351242
0.347046
0.339066
0.344906
0.343267
0.346755
0.347297
0.342758
0.341371
0.336407
0.325989
0.33077
0.335345
0.33702
0.333906
0.337815
0.333646
0.332462
0.333289
0.33331
0.318514
0.309448
0.308931
0.317226
0.31421
0.314737
0.309526
0.312748
0.310921
0.314368
0.314653
0.309893
0.318162
0.315652
0.309518
0.306059
0.318714
0.319449
0.335678
0.334915
0.328805
0.331581
0.334653
0.334448
0.333004
0.33334
0.334978
0.300414
0.307527
0.30369
0.29938
0.29756
0.304732
0.306925
0.30203
0.304038
0.299022
0.301088
0.30122
0.307323
0.305366
0.315455
0.306925
0.307737
0.314758
0.314787
0.311541
0.310101
0.3164
0.315997
0.310117
0.312221
0.318604
0.313583
0.316191
0.317657
0.32545
0.333094
0.324504
0.324011
0.325863
0.325045
0.332355
0.334145
0.331218
0.33141
0.327293
0.328868
0.327164
0.329049
0.338549
0.335795
0.336457
0.335436
0.295316
0.297961
0.294813
0.30276
0.299333
0.300079
0.299145
0.301886
0.299458
0.298945
0.298129
0.299398
0.303748
0.30355
0.299896
0.308389
0.306281
0.300198
0.308875
0.305548
0.312088
0.305934
0.30541
0.299301
0.305375
0.300734
0.30046
0.303423
0.305834
0.31082
0.31375
0.304942
0.311329
0.312799
0.312267
0.305609
0.304106
0.30688
0.306639
0.30684
0.306506
0.307397
0.302557
0.300893
0.30994
0.30354
0.307219
0.314225
0.307006
0.299307
0.307604
0.304626
0.299423
0.300888
0.300527
0.298523
0.301714
0.310259
0.309035
0.300185
0.301359
0.308991
0.312591
0.310937
0.299263
0.300471
0.304728
0.305604
0.307299
0.313254
0.312663
0.307205
0.306468
0.310191
0.311163
0.310962
0.310321
0.289517
0.294825
0.29258
0.288751
0.286239
0.294528
0.293737
0.273714
0.274973
0.285993
0.273651
0.273608
0.286389
0.284933
0.281101
0.284268
0.28492
0.28084
0.282358
0.295108
0.294571
0.291692
0.297167
0.296043
0.295684
0.296793
0.297631
0.29317
0.294953
0.298152
0.301722
0.297747
0.310492
0.307868
0.306023
0.305736
0.303575
0.304639
0.303436
0.310254
0.30559
0.305968
0.300884
0.306781
0.302398
0.290946
0.300737
0.29499
0.299774
0.303003
0.297357
0.300956
0.298636
0.298291
0.300843
0.309561
0.311383
0.307555
0.310699
0.308671
0.306418
0.299835
0.302171
0.305555
0.309104
0.309788
0.297106
0.301702
0.303178
0.299085
0.298943
0.296372
0.301086
0.300217
0.282976
0.284668
0.283151
0.278224
0.276667
0.269857
0.271542
0.268511
0.278671
0.273923
0.274328
0.2748
0.272744
0.270502
0.281216
0.278312
0.280155
0.279947
0.282234
0.280783
0.276488
0.274395
0.277359
0.274059
0.27414
0.27536
0.28506
0.286281
0.284727
0.289231
0.291102
0.289262
0.293513
0.290309
0.292766
0.286386
0.296884
0.295486
0.290324
0.287302
0.287487
0.290762
0.29156
0.291155
0.29018
0.269062
0.272495
0.26997
0.275313
0.273712
0.272977
0.275937
0.275597
0.276715
0.268478
0.273633
0.266455
0.266805
0.290816
0.28678
0.289329
0.292835
0.280714
0.281784
0.28453
0.28566
0.283215
0.278161
0.284999
0.284682
0.289159
0.28571
0.28603
0.283555
0.285254
0.285315
0.278892
0.28653
0.286895
0.28826
0.284829
0.283571
0.283465
0.281258
0.277402
0.276499
0.278655
0.281084
0.27537
0.27406
0.272049
0.284612
0.28102
0.280945
0.282408
0.294416
0.290747
0.282453
0.294692
0.297181