/*--------------------------------*- C++ -*----------------------------------*\
| =========                 |                                                 |
| \\      /  F ield         | OpenFOAM: The Open Source CFD Toolbox           |
|  \\    /   O peration     | Version:  v1612+                                |
|   \\  /    A nd           | Web:      www.OpenFOAM.com                      |
|    \\/     M anipulation  |                                                 |
\*---------------------------------------------------------------------------*/
FoamFile
{
    version     2.0;
    format      ascii;
    class       surfaceScalarField;
    location    "150";
    object      phi;
}
// * * * * * * * * * * * * * * * * * * * * * * * * * * * * * * * * * * * * * //

dimensions      [0 3 -1 0 0 0 0];

internalField   nonuniform List<scalar> 
41652
(
-5.74269e-09
4.95504e-10
-8.07003e-10
6.05415e-09
4.84482e-09
7.56067e-09
-1.12231e-08
-1.18237e-09
-7.4844e-09
7.14837e-09
1.03626e-08
-1.00265e-08
-8.62052e-09
1.11763e-08
4.20374e-09
-6.75956e-09
-7.35611e-09
5.88471e-09
-7.14915e-09
-4.27669e-09
8.56829e-09
-1.19258e-08
8.47416e-09
1.46279e-08
-6.80868e-10
-5.36022e-09
-3.79281e-09
-3.90503e-09
1.06922e-09
6.62859e-09
-8.59751e-09
-1.74353e-09
6.5482e-09
1.7107e-09
3.86769e-09
7.62893e-09
5.29656e-09
-8.49374e-09
-4.43176e-09
7.86414e-10
-8.19997e-09
-1.18397e-09
-3.3371e-09
2.18472e-10
-4.85991e-09
-4.02094e-09
-3.58167e-09
-3.20429e-09
7.85517e-09
3.14897e-09
3.78779e-09
-6.93701e-09
-3.88537e-09
8.31001e-09
-5.86816e-10
-3.22309e-09
-7.54811e-11
-1.36124e-10
7.61119e-09
-3.07681e-10
-5.99877e-09
-1.30474e-09
-3.61417e-09
6.10446e-09
5.12091e-09
-9.58369e-09
1.15981e-08
-2.32206e-09
-3.40706e-09
5.06904e-09
-1.12457e-08
-1.05213e-09
-7.32968e-09
6.79023e-09
1.5916e-09
3.30437e-09
-4.44591e-09
8.94171e-11
4.68925e-09
-4.35618e-09
-6.33183e-09
1.19046e-09
-1.15376e-10
4.62393e-09
-4.2466e-09
1.12207e-08
4.4087e-09
8.61416e-11
-4.1916e-09
1.63218e-09
-4.77026e-09
-1.89499e-09
-6.74252e-09
-9.65822e-09
-5.97766e-10
1.13262e-08
-3.92449e-09
7.73542e-09
-2.77154e-09
5.63728e-09
1.22915e-08
-5.59027e-09
5.27336e-09
8.07269e-09
1.05519e-08
-1.20392e-08
-6.5854e-09
1.12138e-08
-9.37765e-09
6.23653e-09
-1.13696e-09
2.14081e-10
1.21367e-08
9.63907e-09
-2.24137e-10
6.2194e-09
1.67109e-10
-4.31832e-09
-2.06819e-09
5.90921e-09
-3.80323e-09
4.11343e-09
-2.84193e-09
-6.36861e-09
-1.55456e-09
-1.33265e-08
6.70787e-09
-5.84577e-10
2.19413e-09
-5.68238e-09
-3.14984e-10
3.44366e-09
-7.00299e-09
-4.98875e-09
8.54809e-09
5.64217e-09
-4.38949e-12
-1.01101e-08
1.55257e-09
-2.20851e-09
9.67392e-09
-1.21015e-08
4.63611e-09
3.58603e-09
3.18367e-09
4.34066e-09
5.33911e-09
8.69558e-09
-5.21919e-09
1.82015e-09
-1.05201e-09
8.95908e-09
7.88522e-10
1.20535e-08
7.52148e-09
-9.90108e-09
7.92754e-09
8.09199e-09
-3.96605e-09
8.64879e-09
-5.40256e-09
8.23649e-10
-4.06989e-09
-6.46082e-10
8.06877e-09
1.2261e-09
4.97926e-09
5.94172e-09
-5.611e-10
-4.01371e-10
7.6453e-11
-1.33105e-08
6.05403e-09
1.51841e-08
-4.96542e-09
1.59429e-08
-1.11528e-08
1.33686e-08
-4.97378e-10
-1.71838e-09
-7.85637e-09
9.59818e-09
-1.28947e-08
1.20163e-09
4.03182e-09
-1.30898e-08
5.63764e-09
2.97642e-09
-7.41243e-09
-4.23532e-09
4.83754e-09
1.27664e-08
6.35898e-10
4.72688e-09
6.54214e-09
-1.40189e-09
1.27653e-09
9.68181e-09
-6.92656e-09
7.22741e-09
-2.97446e-09
5.24038e-09
5.07729e-09
6.97338e-10
-5.8834e-09
1.04264e-08
-5.56109e-09
1.1096e-08
-6.26747e-10
1.60779e-09
7.17254e-10
6.42959e-09
7.46698e-09
-1.37201e-08
-1.76373e-10
-1.67284e-08
1.05878e-08
1.25702e-08
8.45203e-09
5.64459e-10
-1.54948e-09
-4.28451e-09
9.93575e-09
2.80081e-09
7.47384e-09
-7.02815e-09
-1.41659e-08
-4.22737e-09
-5.02723e-09
1.00167e-08
-7.01126e-09
-2.441e-09
-4.41152e-09
1.01437e-08
-1.0793e-08
1.12176e-08
-4.65207e-09
2.43847e-10
5.31895e-09
-1.63559e-08
3.62651e-09
-1.04108e-08
-1.38204e-08
1.62867e-08
2.99779e-09
-5.46391e-09
1.61324e-08
-8.84787e-09
-1.42958e-08
9.48963e-09
2.23129e-09
2.20525e-09
-4.80804e-09
-2.28998e-09
-2.93144e-09
-1.04395e-08
1.34684e-08
9.03377e-10
6.6623e-09
-2.74293e-09
-4.82269e-09
4.97845e-09
-3.15891e-09
-9.1609e-10
2.91457e-09
8.72618e-09
-8.42597e-09
2.11534e-09
3.15174e-09
7.92115e-09
-2.51112e-09
-1.3836e-08
-1.20053e-08
5.94165e-09
8.17899e-09
1.18826e-09
-5.27238e-09
-5.07587e-09
-2.17249e-09
1.0163e-08
-2.95499e-09
1.80482e-09
-3.9257e-09
-6.59368e-09
1.03628e-08
-9.30549e-09
-2.28683e-09
4.99866e-09
-1.11604e-08
4.20905e-09
4.44019e-09
-3.69402e-09
-4.4232e-09
1.59584e-09
-6.83766e-09
5.29171e-09
-4.50878e-10
2.73766e-10
-5.11468e-09
3.76505e-10
5.07822e-09
-1.63045e-10
-5.3395e-10
-4.9171e-09
-8.52247e-10
6.30332e-09
-2.73144e-09
3.21138e-09
-1.01387e-09
8.86737e-10
-4.66977e-09
-1.13411e-09
-1.89518e-09
5.04492e-11
-4.50343e-09
2.10143e-10
-2.32405e-10
-4.7219e-09
2.63209e-09
1.1458e-11
-2.87599e-09
9.19861e-10
-1.83001e-10
-3.78404e-09
6.52243e-09
2.3398e-09
-1.86612e-10
-3.32365e-09
7.32893e-09
-1.65871e-09
9.8962e-10
-3.59454e-09
2.8706e-09
-2.65684e-10
-1.94024e-09
2.96618e-09
-1.06086e-10
3.4245e-09
-4.84052e-09
1.36648e-09
4.95611e-11
5.76728e-10
3.91016e-09
-4.47543e-09
-5.74812e-09
6.13824e-09
-1.76182e-08
-7.13036e-09
7.77159e-09
1.6977e-08
-6.72853e-09
-2.91269e-09
-7.97704e-09
9.28093e-09
-5.1553e-09
-1.08542e-08
1.05095e-08
-6.71193e-09
5.48336e-09
3.79743e-09
7.72237e-09
-1.86502e-08
2.16603e-09
8.48615e-09
-1.27508e-10
7.76799e-09
-1.61266e-08
9.68478e-09
1.38131e-09
-1.7778e-08
5.13866e-09
6.88155e-09
-8.22278e-09
-7.16879e-09
6.05786e-09
7.36741e-09
-1.52359e-08
1.81063e-09
8.57385e-09
3.56474e-09
6.22479e-09
-5.61988e-09
-4.16967e-09
6.11061e-09
-1.39946e-09
-1.14644e-09
6.18389e-09
-5.30483e-09
5.13313e-09
-6.0122e-09
-6.62237e-10
6.66965e-09
1.76465e-10
-5.51875e-09
7.01395e-09
4.61541e-09
4.3791e-11
7.37035e-10
-7.50715e-09
1.76508e-09
5.00502e-09
2.26267e-09
5.14401e-09
-9.68182e-09
-4.53253e-09
1.40933e-09
1.2805e-08
-4.68676e-09
-7.87481e-09
2.87974e-09
6.01896e-09
-1.41301e-08
3.42441e-09
6.1429e-09
-7.22721e-09
7.10325e-09
-1.13715e-09
-9.78757e-09
1.37453e-10
-2.51147e-09
1.73412e-09
7.54248e-09
-8.93587e-09
6.1684e-09
-1.00244e-08
-6.78631e-09
9.28634e-09
3.47682e-09
-6.35807e-09
-4.34598e-09
-8.6092e-09
-2.04409e-09
-5.87003e-09
-1.88751e-09
4.72771e-09
-1.17349e-08
6.63821e-09
-1.05197e-08
-3.24869e-09
-7.68881e-09
1.04824e-08
8.15052e-09
-1.09442e-08
6.77346e-11
-1.2715e-08
4.95847e-09
6.95635e-09
-2.49381e-09
1.07389e-08
-1.52014e-08
2.68775e-10
1.29983e-08
-6.31077e-09
-3.05931e-09
1.22013e-08
-1.25156e-08
3.37362e-09
-1.31315e-08
4.84255e-10
9.58794e-09
1.03151e-08
7.44459e-10
1.1417e-09
6.33171e-10
1.19633e-08
-2.11399e-09
4.978e-09
5.99785e-09
-1.34697e-08
9.24588e-09
-3.99913e-09
-5.62218e-10
9.95991e-09
1.34123e-09
9.76436e-10
1.14597e-08
4.80602e-09
-8.18001e-09
-9.1416e-09
-3.48691e-09
-4.8386e-09
-5.63639e-09
1.13953e-08
-1.04548e-08
1.25044e-08
-1.41644e-09
1.00819e-08
-1.22641e-08
6.43228e-09
-6.92719e-09
2.41768e-09
1.40966e-08
-2.40535e-09
-3.40182e-09
-6.00094e-11
-9.35168e-09
-8.9991e-09
-9.52861e-09
-2.2284e-09
5.28161e-09
3.23266e-09
-9.62451e-11
-8.41804e-09
-7.33354e-10
-4.80001e-09
-9.72984e-11
-4.1018e-09
1.8739e-09
-5.20016e-09
3.29725e-09
-5.03372e-09
-2.85778e-09
-6.16029e-09
-9.08703e-09
9.89297e-09
5.35435e-09
-9.00863e-09
2.68197e-09
1.66364e-10
7.86097e-09
-7.44748e-09
-9.42213e-09
1.9495e-09
-3.17556e-09
7.5951e-11
1.02525e-08
-4.35511e-10
-1.12986e-08
4.82625e-10
-8.02825e-10
1.16188e-08
-1.01064e-08
-1.65781e-09
4.65605e-10
-9.54182e-09
1.01004e-08
-7.41423e-09
5.54379e-10
-7.07543e-09
1.1486e-09
-1.52065e-09
4.93822e-09
1.44746e-09
-1.34611e-08
-6.89633e-09
-1.04671e-09
9.89254e-09
-8.97714e-10
-9.89874e-09
6.90069e-10
-8.37193e-09
5.99857e-11
7.08203e-09
4.93279e-09
-7.0766e-09
-1.41295e-10
-1.0755e-08
9.82486e-09
1.27312e-10
-1.05422e-08
-1.87056e-09
4.75775e-09
-1.02066e-08
5.78749e-10
-5.5447e-09
-5.20574e-09
-4.96776e-09
-8.92779e-09
1.71598e-09
1.21796e-08
-1.24245e-08
-6.34407e-11
7.52018e-09
7.93233e-09
6.33944e-09
-9.43897e-09
-4.8328e-09
6.56226e-09
-4.18796e-09
5.55803e-09
1.71851e-09
-7.80357e-09
-3.39887e-09
-3.81041e-09
2.66791e-09
3.83092e-09
-3.66728e-09
8.05117e-09
-3.10642e-09
5.22549e-09
3.48027e-09
-5.59934e-09
-5.94502e-09
3.31732e-09
-4.7872e-10
5.70977e-10
-4.48288e-09
-2.76057e-10
-1.19721e-08
-5.57395e-11
6.08283e-09
-3.94253e-09
5.50073e-09
-5.42358e-11
7.09007e-09
-3.64779e-10
-9.10877e-09
2.38348e-09
1.81667e-09
1.02721e-08
-5.93417e-09
1.09034e-08
-3.15252e-09
-5.8285e-09
1.26497e-09
-1.37063e-09
1.47169e-09
-7.66496e-09
-5.5918e-09
3.06094e-09
-3.31351e-09
5.84439e-09
-9.21186e-10
-4.8429e-09
1.72303e-10
8.80188e-09
2.14943e-09
-6.7921e-10
-4.96359e-09
-8.42725e-11
8.1088e-09
-5.08275e-09
-4.3024e-09
4.42158e-09
-5.98202e-09
-2.18981e-11
2.85275e-09
3.74822e-09
4.70212e-09
1.70018e-09
-4.93061e-09
-1.49341e-11
4.23418e-10
5.54738e-09
-9.2843e-09
5.36535e-09
6.28929e-09
-3.50523e-09
8.78632e-09
-9.70727e-09
6.62547e-09
-1.46995e-09
-5.18448e-10
-7.17351e-09
9.1619e-09
-5.95557e-09
6.1858e-09
-9.09733e-09
8.55774e-09
-9.16772e-09
-7.17844e-09
-2.43733e-09
-9.82339e-09
-3.7697e-09
8.76925e-09
4.82382e-09
-1.67498e-09
8.07534e-10
-8.95594e-09
1.13698e-08
-2.39841e-09
-1.06464e-08
2.88281e-09
4.71731e-09
-2.1524e-09
1.59747e-09
9.42178e-09
-8.86685e-09
5.30582e-09
-1.07703e-09
-6.38119e-09
1.51372e-08
-1.27322e-08
5.98844e-09
4.19081e-09
4.95799e-09
9.88474e-09
4.87295e-09
-1.23043e-08
6.57811e-09
8.60902e-09
-2.41598e-10
-1.44611e-08
-5.47696e-09
9.41544e-09
5.48329e-09
-2.30668e-11
-1.48073e-10
8.2736e-09
5.33264e-09
5.85086e-09
-7.16949e-09
-2.09874e-10
9.03856e-11
6.69759e-09
-6.02631e-09
6.11079e-09
-2.9436e-10
-1.98521e-10
3.75242e-09
-1.11775e-08
2.95341e-09
4.47161e-09
-1.19755e-08
4.62145e-09
1.11065e-08
-3.44525e-09
-1.00613e-08
1.53105e-09
-1.06408e-08
-3.98192e-09
-1.26864e-09
1.79655e-09
-1.05893e-08
4.31301e-09
-5.55952e-09
-2.21357e-11
-3.35404e-09
-7.64111e-10
8.53109e-09
-4.41296e-09
-5.01946e-09
4.61883e-09
-5.15898e-09
9.01631e-09
-7.57274e-09
2.12193e-09
4.31339e-10
-9.99943e-10
1.53969e-10
2.75115e-09
-9.53266e-09
-3.85928e-09
-3.56016e-09
-1.26143e-09
-4.07541e-09
4.64335e-09
-7.00695e-09
6.43901e-09
4.96371e-09
-2.59369e-09
3.98436e-09
-1.11654e-10
-4.97083e-09
1.75319e-09
-3.12203e-09
6.33975e-09
-3.06246e-10
-4.15623e-09
-5.08301e-10
-5.72887e-10
8.98178e-09
-1.19708e-08
3.56201e-09
-9.35861e-09
6.5819e-09
2.20385e-09
5.77427e-10
-1.05705e-08
6.34521e-10
5.50182e-09
-5.77397e-09
8.49613e-10
-2.2606e-09
-7.99287e-12
8.85053e-09
-2.74266e-09
9.46388e-09
5.92285e-09
-7.27253e-10
7.66806e-09
-6.39129e-09
-2.5153e-09
5.7846e-09
-6.70614e-09
-3.84135e-09
-4.46206e-09
2.07475e-09
-3.38663e-09
4.98763e-09
4.4848e-10
-9.89813e-09
-1.8685e-09
-2.76285e-09
3.66662e-09
-9.24947e-09
3.70649e-09
-7.30157e-09
4.0436e-09
-2.37125e-10
4.56699e-09
-6.84512e-09
-2.38003e-09
-5.92415e-09
7.37013e-09
-6.04367e-09
8.18695e-09
-6.84654e-10
-1.32153e-10
5.20718e-09
9.69683e-09
-3.15248e-10
-5.3448e-09
-4.03677e-09
2.38137e-10
2.46941e-09
6.9893e-09
-8.51433e-09
6.52263e-09
2.22986e-09
-5.10635e-09
-3.72322e-09
-4.17716e-09
1.74357e-09
4.90302e-09
3.31248e-09
-3.92614e-09
-4.73114e-09
-7.99938e-10
-6.47393e-11
4.63263e-10
5.2259e-09
-4.999e-09
-6.90168e-10
-3.09055e-09
3.58197e-09
-2.81469e-11
3.72908e-09
-1.13514e-09
2.16346e-09
-1.614e-10
6.09715e-09
-3.47206e-09
-8.81496e-10
6.66401e-10
7.62452e-10
3.79705e-09
1.74767e-09
7.765e-10
-3.61204e-09
-6.74688e-09
1.94099e-09
5.4723e-09
2.23803e-09
-5.59672e-09
-3.73236e-09
4.47714e-09
-3.24553e-09
-4.21567e-09
2.98419e-09
-1.61897e-09
3.87905e-09
2.21713e-09
2.35626e-09
-7.31652e-10
-4.87e-09
8.42658e-10
-1.05261e-10
4.27659e-10
9.3408e-10
-2.09344e-09
1.63846e-09
2.27278e-09
-3.48352e-09
-1.37261e-09
3.62328e-09
-1.31664e-09
3.68438e-09
-3.41851e-09
9.38982e-10
2.42531e-09
5.14914e-10
-9.80458e-10
1.82115e-09
2.09759e-12
-3.71927e-09
1.65361e-09
3.30402e-09
-1.23815e-09
-1.71818e-09
-1.07233e-09
-9.28599e-10
1.42697e-09
-1.34631e-10
2.80753e-10
2.4009e-09
9.41632e-10
2.51496e-09
1.45021e-09
7.40088e-10
2.02015e-09
-3.55216e-09
5.10397e-10
4.69546e-09
-2.86945e-09
2.21883e-09
1.72313e-09
3.46936e-09
-2.62179e-09
-9.32581e-09
4.89562e-09
-5.83543e-09
-9.85244e-09
1.09464e-08
-1.02908e-08
4.86269e-09
4.47438e-09
-1.91895e-08
1.22585e-08
5.98429e-09
-1.33801e-08
2.94694e-09
-7.34534e-09
5.20511e-09
-1.00378e-08
-5.11579e-09
3.19246e-10
-8.00089e-09
-6.75585e-09
1.4408e-08
-9.50421e-09
2.96836e-09
-7.87204e-09
1.37079e-08
-9.61623e-09
1.03163e-08
7.67276e-09
1.50802e-08
-2.45545e-08
1.80148e-09
1.65292e-08
-1.79506e-08
9.09421e-09
9.3423e-09
2.43499e-08
-1.99842e-08
-5.98374e-09
-2.65703e-08
1.95565e-08
1.29976e-08
1.20071e-08
-2.0242e-08
-7.95815e-09
5.00506e-09
-3.71737e-09
1.08395e-08
-1.01705e-08
-1.32373e-08
5.4572e-09
1.66163e-08
-4.07024e-09
-2.27166e-08
-5.97016e-09
-1.96808e-09
1.62207e-08
-2.62747e-08
1.72464e-08
-6.99585e-09
8.37369e-09
-1.56438e-09
1.93464e-10
-4.59448e-09
5.96547e-09
7.92282e-11
-8.44993e-09
6.80627e-09
-6.1605e-10
5.89436e-09
-5.84474e-09
5.6648e-10
2.69527e-09
-3.1796e-09
-1.31708e-10
1.04504e-09
4.92857e-09
-2.58366e-09
3.82218e-09
8.11077e-09
1.86001e-09
-6.82127e-09
-3.14945e-09
-4.42508e-09
7.9414e-09
-5.46554e-10
-2.01844e-09
1.49203e-09
-5.51174e-09
-4.43018e-09
-2.34159e-09
-2.01113e-09
-2.57955e-09
2.69116e-09
2.92598e-09
-2.71212e-09
-2.55545e-09
-3.53231e-10
9.96113e-11
2.9626e-09
-2.02628e-09
2.39827e-09
-3.33458e-09
2.54964e-09
5.97401e-11
-5.20995e-09
4.71557e-10
2.63735e-09
-7.85626e-10
2.60743e-09
-2.71863e-09
-5.68804e-09
5.12583e-09
3.28082e-09
-3.85684e-09
1.17029e-09
-3.20855e-11
-3.66205e-09
3.51529e-10
-2.37751e-09
-2.77176e-09
-4.74714e-09
-5.96422e-09
2.69962e-09
-3.9261e-09
7.19065e-09
-7.47184e-09
-1.50858e-09
3.01618e-09
2.42438e-09
-6.55951e-09
-3.39877e-09
7.53392e-09
-2.25156e-09
9.80176e-09
-3.79764e-09
-3.46994e-09
5.01601e-09
7.22714e-11
-3.91804e-09
-2.28994e-09
-5.15209e-09
1.11528e-09
1.10681e-10
-7.27156e-09
-5.35238e-09
-6.24517e-10
4.34524e-09
-2.22612e-09
1.64684e-09
-3.33877e-09
-6.50646e-09
-7.69849e-09
3.6752e-09
-3.03545e-09
-4.98263e-09
-7.09102e-09
-3.3808e-09
1.54537e-08
-3.48546e-09
-7.91074e-09
6.41305e-09
-8.33438e-09
-6.91285e-09
8.15594e-09
-8.27013e-09
-7.32116e-10
6.67632e-10
-5.67191e-09
-5.15797e-09
7.44893e-09
-7.10104e-09
-2.0566e-09
-7.48144e-09
5.2253e-09
2.30184e-09
-4.59198e-11
5.57186e-09
-5.48724e-09
-7.56618e-09
1.00079e-08
-6.80389e-09
-1.14743e-08
3.3088e-09
-2.13981e-10
-5.3485e-09
-5.41715e-10
8.6949e-09
-1.42901e-09
-1.69419e-09
6.81912e-09
-5.34585e-09
2.29915e-09
2.51869e-09
-3.27546e-10
2.06424e-11
-8.52275e-09
3.92062e-09
2.96502e-09
6.81068e-09
-3.14118e-09
-1.0158e-08
-4.26592e-09
1.37361e-08
6.87811e-10
-1.70744e-08
1.58616e-08
-8.94524e-09
5.55925e-09
1.09919e-08
-1.32739e-08
-3.2773e-09
-1.8065e-09
-9.70864e-09
-1.39831e-08
1.18306e-08
-2.11339e-09
1.28011e-10
-3.11919e-09
5.68979e-09
1.20767e-08
-1.68697e-08
-8.96764e-10
-3.37196e-09
-1.229e-09
-9.78979e-09
-1.84003e-08
-1.38116e-08
1.01875e-08
-1.5529e-08
1.36778e-08
-8.33629e-09
-1.18086e-08
2.40534e-08
-2.05736e-09
-1.64686e-08
-3.5505e-09
1.80035e-08
2.01554e-09
-3.0034e-09
-1.35297e-09
-1.21122e-08
1.55746e-08
-1.27157e-08
-5.86231e-09
1.21865e-08
-1.62475e-10
3.56754e-09
-3.50001e-09
-1.55965e-08
-9.59401e-09
5.55125e-09
7.14011e-09
1.1362e-08
9.6829e-09
9.54617e-09
9.92219e-09
1.52214e-08
1.40663e-08
-3.52077e-09
-1.58191e-08
5.27356e-09
4.00706e-09
1.1559e-08
-1.49984e-09
1.31509e-08
7.09846e-10
-1.73816e-08
1.51918e-08
1.96627e-09
-1.1242e-08
7.53516e-10
2.04106e-08
-8.12654e-09
9.07103e-09
1.0939e-08
-2.45819e-09
1.20206e-09
-8.91943e-09
2.0612e-08
1.90206e-08
1.18212e-09
-8.64376e-09
1.07286e-08
-1.35187e-08
4.09176e-09
1.4992e-08
-3.89198e-09
1.51557e-08
-3.35313e-10
1.48672e-08
-2.16965e-09
-9.91642e-09
1.58641e-08
-4.53858e-09
9.61416e-09
6.35544e-09
-1.37109e-09
1.07382e-09
1.56425e-09
-5.09135e-09
-4.81722e-09
1.71741e-08
-1.07927e-08
-1.51799e-08
-8.94595e-10
-9.54867e-10
1.70294e-08
-8.04184e-09
-1.9558e-08
1.24199e-08
1.10439e-08
-2.75634e-08
8.47774e-09
-1.60887e-08
-2.25508e-09
1.74492e-08
2.12363e-08
-2.62811e-08
1.27028e-08
8.97007e-10
-1.41195e-08
5.19693e-10
-1.15172e-08
1.48559e-08
9.36417e-09
-2.03986e-08
1.73758e-09
-7.12529e-09
-2.03652e-08
-7.29229e-11
7.24196e-09
-1.22625e-08
-9.09895e-09
1.64578e-08
-7.8908e-09
-1.325e-09
1.75653e-08
2.46999e-09
-1.30397e-08
-6.99557e-09
-5.92126e-10
1.59024e-08
8.39643e-09
-3.45591e-09
1.41464e-08
-3.27997e-09
6.27658e-10
1.29266e-08
1.45286e-08
-5.57194e-09
-2.1952e-08
1.53296e-09
-1.93674e-08
5.18419e-09
-1.1542e-08
-1.47724e-08
6.91683e-09
-4.69773e-09
-7.98573e-09
1.50596e-08
-2.37608e-09
-8.7038e-09
-6.3553e-09
1.03614e-08
-3.67873e-09
8.93614e-09
-1.32431e-08
4.96566e-09
-1.73482e-08
-4.67852e-09
-8.82924e-09
-8.74277e-11
1.35953e-08
1.85331e-11
-1.76979e-08
1.30009e-08
1.4326e-08
8.2029e-09
-1.75632e-08
1.16692e-08
-1.36769e-09
4.02448e-09
-8.00887e-10
8.20961e-09
7.65096e-09
6.45753e-09
5.89601e-09
-1.31544e-08
-9.60693e-09
8.98732e-09
9.13472e-09
-9.80547e-09
4.77521e-09
-1.4849e-08
1.00924e-08
1.11453e-08
-6.91289e-11
-8.49394e-09
-1.84281e-08
1.52484e-08
-1.02943e-08
-8.12489e-09
6.72385e-11
-2.93414e-09
1.09918e-08
2.36794e-09
-8.84347e-09
-1.64938e-09
1.14812e-08
-6.18645e-09
-2.94528e-10
-5.0002e-09
2.75033e-09
-2.92163e-09
1.16525e-08
-8.58537e-09
1.1403e-08
-7.70536e-09
1.48793e-09
2.45245e-09
-7.90402e-09
-7.34879e-10
-7.20673e-09
1.95383e-09
8.30824e-09
-1.42315e-08
6.04782e-09
-1.24538e-10
-8.53552e-09
8.00027e-09
-9.00245e-10
-1.06132e-08
8.57931e-09
-1.27218e-08
8.89998e-09
-6.92911e-09
-6.08724e-09
8.43227e-09
-4.3785e-09
-1.19578e-08
2.68796e-09
-1.46241e-09
4.76095e-09
-9.41687e-09
-9.5756e-09
-1.08662e-09
-9.93414e-09
5.36875e-09
6.72419e-09
-2.05196e-08
-1.01391e-08
-1.20297e-08
2.27008e-09
-1.86409e-08
1.02764e-09
-2.81913e-09
2.04324e-08
-5.21643e-09
-1.15911e-08
-1.83344e-09
1.73733e-10
1.11719e-08
-1.14577e-08
1.1209e-10
1.11849e-08
-1.13289e-08
3.17731e-10
-3.24999e-09
2.12766e-09
1.23072e-08
-1.89706e-09
9.81903e-09
1.07355e-08
-1.09793e-08
-4.97266e-09
1.38908e-08
-1.25323e-08
-1.44332e-09
1.11565e-08
-1.28074e-08
-1.13161e-08
-3.11442e-09
2.79097e-10
-8.49358e-09
-3.25058e-09
-1.13216e-08
-1.47429e-08
1.14025e-08
-1.79757e-08
-1.77144e-11
-8.1716e-09
-2.52858e-09
2.16378e-09
1.08149e-08
-6.71517e-10
1.03805e-08
9.43332e-10
-9.16009e-09
1.87878e-08
-1.06473e-08
-2.59574e-09
-5.54479e-09
6.70648e-09
1.85976e-08
-6.51626e-09
3.08264e-09
1.46127e-08
-2.50199e-09
-1.51933e-08
-1.08392e-08
-1.25089e-08
1.27008e-08
-6.74168e-10
1.16761e-08
-1.87046e-10
1.13125e-08
-1.60614e-09
-1.66165e-08
-6.12316e-09
1.52445e-08
7.49516e-09
-7.53607e-09
1.44544e-08
-8.71663e-09
-2.33061e-08
1.75684e-08
3.17102e-09
2.11862e-09
9.16475e-09
-2.38004e-09
-5.39326e-09
-1.38699e-08
2.91206e-09
4.8347e-09
1.09939e-08
-1.35513e-08
-6.67718e-10
2.26187e-08
-1.33106e-08
7.95885e-09
8.26384e-09
8.54236e-10
1.03738e-08
-1.62455e-08
-6.59213e-10
4.46287e-09
1.24418e-08
-9.73165e-09
-1.78696e-09
-2.2488e-08
4.50882e-09
1.73201e-08
-1.53259e-08
-6.2849e-09
-8.77123e-10
4.19592e-09
-1.61968e-08
-1.40685e-08
2.44588e-09
1.61315e-08
-1.24257e-08
-1.26319e-08
-1.4223e-08
-4.6627e-09
-1.42487e-08
-6.25915e-09
-1.17585e-08
-1.79447e-08
5.01343e-09
2.81079e-09
1.01205e-08
-1.40369e-08
-1.68572e-08
1.29494e-08
2.5596e-09
-1.17598e-09
-1.56324e-08
-1.85129e-08
1.18722e-08
1.97803e-09
1.5614e-09
-1.75147e-08
-1.37071e-08
6.962e-09
2.1815e-09
-1.57832e-08
-1.70076e-08
1.51726e-08
-1.6051e-09
-1.38411e-08
-1.34606e-08
3.7268e-09
6.07308e-09
-9.48494e-09
-3.14937e-10
9.92667e-09
-6.8861e-09
-3.71207e-09
6.71534e-10
4.77335e-09
9.5571e-09
-6.28261e-09
-8.04784e-09
8.38725e-09
1.12889e-10
1.28512e-09
2.03427e-08
-1.11654e-08
-1.04624e-08
9.32855e-09
-4.10359e-09
-3.9398e-09
-6.87447e-09
7.50554e-09
8.69745e-09
7.6079e-09
5.8603e-09
5.41355e-09
3.99612e-11
7.26433e-09
6.53647e-09
1.7041e-08
1.60138e-10
-1.48639e-09
-1.57148e-08
4.45136e-09
-4.70334e-10
1.30599e-08
-2.60413e-09
-4.25457e-10
1.05351e-08
9.45513e-09
1.13738e-08
-1.03723e-08
-8.4139e-10
2.63057e-09
8.27293e-09
7.7255e-10
-1.2182e-09
7.1213e-09
-2.75679e-10
2.70734e-09
7.04451e-09
9.54622e-09
5.0874e-09
-2.18153e-09
-5.51035e-09
2.6045e-09
-6.76827e-09
1.13927e-08
4.62998e-10
-1.60573e-09
-7.34406e-09
8.25126e-09
1.55185e-08
-7.61626e-09
-1.61534e-08
4.92022e-09
6.29388e-10
2.7017e-09
1.49283e-08
-5.74826e-09
9.33679e-09
6.71427e-09
-1.03028e-08
1.24646e-09
6.21561e-09
-1.32103e-08
-1.33188e-08
6.94896e-09
-9.11951e-09
3.06891e-09
6.67998e-09
1.39345e-09
1.21671e-08
-4.22378e-09
-1.51047e-09
5.07917e-09
1.62684e-10
1.47244e-09
8.10905e-09
9.13724e-09
-1.37167e-09
-5.21128e-09
1.08806e-09
5.4949e-09
-6.99706e-09
-3.54761e-11
5.66088e-09
3.66654e-09
-4.25543e-09
-6.40816e-09
-1.66066e-09
1.15911e-10
-4.93813e-09
-4.53274e-10
6.47947e-09
-3.71999e-09
-5.11093e-09
3.89278e-09
-5.25658e-09
-1.24068e-10
9.02044e-10
3.41381e-10
-6.35434e-09
-1.68219e-09
-6.19993e-09
7.42887e-09
-8.73624e-09
7.01859e-09
-6.63357e-09
1.33568e-09
-1.098e-08
4.55149e-09
-2.05078e-10
-2.20973e-09
8.17526e-09
-1.69455e-08
-3.89048e-09
-4.1527e-09
3.6211e-09
4.42206e-09
-1.18684e-08
5.76822e-09
-1.14848e-08
7.30003e-09
-4.02203e-09
7.12487e-10
-4.95456e-09
-1.21652e-09
2.35479e-10
5.9356e-09
-3.33924e-09
-1.67665e-09
6.13356e-11
-9.09968e-10
4.88867e-09
-5.19522e-09
7.65452e-09
-1.22702e-09
-6.19201e-09
-7.63388e-09
5.74727e-09
9.7662e-10
-1.43346e-10
-8.24565e-10
6.28387e-09
-5.31595e-09
-2.99125e-09
2.51254e-10
-2.306e-09
5.046e-09
-5.14216e-09
4.76874e-09
-2.61784e-09
-7.80559e-09
-1.33348e-09
8.99573e-09
-4.0855e-09
-3.29711e-09
1.27076e-09
-7.31521e-09
4.51147e-09
1.53298e-09
-1.06203e-08
-9.4905e-09
9.07192e-09
-3.11235e-09
3.53094e-09
-1.36569e-08
1.05962e-08
-6.42989e-09
-3.65383e-09
-2.0933e-10
-9.7937e-09
-5.86988e-09
3.90911e-09
1.10327e-08
-1.5476e-09
6.27397e-09
-9.64069e-09
5.80217e-09
7.26155e-10
-1.10648e-09
-1.2188e-08
9.39559e-09
-8.89778e-09
-6.16462e-09
5.6668e-09
5.03366e-09
2.81433e-09
-3.0778e-09
6.8875e-10
6.29817e-09
1.20943e-09
-7.68111e-09
3.39387e-09
-4.06716e-09
-3.81076e-09
8.56667e-09
-7.83762e-09
4.97991e-09
-2.56512e-09
-6.542e-09
-5.65019e-10
-1.31392e-09
-1.77634e-09
-7.85145e-09
1.79017e-09
-4.55233e-09
4.27066e-09
-3.52909e-09
-6.2635e-09
-6.5166e-11
5.26254e-09
-8.93414e-09
-6.37495e-09
-2.04152e-09
-6.38131e-09
1.78973e-10
-6.11718e-11
-7.49372e-09
-1.079e-08
-1.47567e-11
-2.57708e-09
1.33818e-08
-2.27194e-09
-8.23855e-09
-2.79515e-10
1.87344e-09
-8.33208e-09
-2.1939e-10
6.67802e-09
1.99861e-09
-8.95062e-09
8.82545e-09
-9.36731e-09
1.13512e-08
-7.04157e-09
-9.56346e-09
7.2377e-09
-9.744e-09
4.30489e-10
1.27071e-08
-1.01731e-08
-1.07726e-08
-2.05453e-09
1.21845e-08
2.8819e-09
-8.71001e-09
-2.50398e-09
-6.21158e-09
1.42845e-10
7.77482e-09
-1.01143e-08
-7.40457e-09
-1.9375e-09
1.48856e-10
8.85322e-09
-7.4988e-09
5.53996e-09
-6.89439e-09
-1.16413e-08
1.03215e-08
-9.77452e-09
7.5006e-09
-8.06559e-09
-8.35008e-11
-7.97839e-09
6.96514e-10
-4.35948e-09
-3.45911e-10
-1.51313e-08
-7.81416e-10
-3.45315e-09
-5.31463e-09
-4.1768e-09
-4.93488e-09
-8.44535e-09
-6.19543e-09
-3.22232e-09
-1.14762e-08
-5.0388e-09
9.26013e-09
2.26648e-08
-2.68861e-08
1.08739e-09
1.77117e-08
2.43723e-09
1.53007e-08
3.23583e-09
-2.50823e-08
3.65207e-09
1.63915e-08
-1.7013e-08
9.64246e-09
-1.67372e-08
2.14913e-08
-1.35751e-08
8.82097e-09
-1.78541e-08
3.71328e-09
2.65607e-08
-1.61102e-08
-9.25052e-09
7.50663e-09
6.59625e-09
1.23566e-08
-2.3163e-08
8.30328e-09
2.14586e-09
1.27138e-08
-7.14868e-09
-1.2301e-08
-1.54081e-08
1.22485e-08
1.75461e-08
3.54991e-10
2.11536e-08
1.22864e-08
1.64203e-08
9.4101e-09
1.99057e-08
1.63613e-08
4.14019e-10
-1.32572e-08
1.41844e-08
-9.06557e-09
1.02448e-08
-7.6507e-10
3.04443e-09
-1.04133e-08
-1.69666e-09
1.02851e-10
-1.03156e-08
1.12783e-08
-6.18074e-09
5.14732e-09
-6.02162e-09
1.74855e-09
1.55514e-08
1.23561e-09
5.93219e-09
-3.91214e-10
-1.17217e-08
5.32453e-09
-1.52134e-08
1.11245e-08
-1.22628e-08
1.93359e-08
4.16418e-09
1.3171e-08
-1.50481e-08
-2.28701e-09
1.33689e-08
-9.1019e-09
-1.39098e-08
7.57919e-09
-9.60716e-10
-8.83786e-10
-1.69959e-09
-9.85689e-09
-1.3869e-08
1.30627e-08
1.06632e-08
-1.0008e-08
1.23896e-09
-1.08774e-09
1.63771e-08
-1.10342e-08
-1.53509e-08
3.29807e-09
-7.8994e-10
-1.44888e-08
7.84764e-09
2.62014e-09
4.02112e-09
6.1107e-10
-2.36694e-09
-1.2733e-08
-1.12862e-08
1.05207e-08
8.6132e-09
-1.02925e-09
-9.64594e-09
-5.85616e-09
1.84785e-08
4.4041e-10
2.74275e-09
1.1076e-08
5.67636e-09
1.38303e-08
-1.14341e-08
-8.07259e-09
-1.33739e-08
-3.07295e-09
2.21231e-08
1.72972e-08
-2.22793e-09
1.76537e-08
-6.21264e-09
-4.47417e-10
2.71741e-09
-1.56439e-08
1.51879e-09
-1.34003e-08
1.37005e-08
-1.335e-08
1.09799e-08
5.34067e-09
-1.05447e-08
1.00714e-08
5.02016e-09
-4.11161e-09
-2.09671e-08
4.61946e-09
1.27457e-08
3.602e-09
-1.2932e-08
-2.98458e-09
-5.0505e-09
-1.14786e-08
2.07156e-08
-1.56618e-08
6.42471e-09
-1.83588e-08
-5.42073e-09
-9.83157e-09
1.62558e-08
6.2896e-09
-2.52665e-09
1.34107e-08
1.44054e-08
-1.15382e-08
-2.1226e-08
2.74965e-09
-4.006e-09
1.22958e-09
2.39956e-08
-8.96936e-09
-1.69646e-08
-1.20451e-08
1.60777e-08
1.78506e-08
-1.48509e-08
-5.98423e-09
7.33079e-09
1.51392e-08
1.34186e-08
2.87738e-09
-2.78343e-08
-7.96355e-10
1.91329e-08
-3.16636e-08
-9.29311e-09
2.61065e-08
-7.76512e-09
3.60863e-09
-6.47439e-09
1.06309e-08
-6.03125e-11
-1.08894e-08
3.18455e-09
-5.36334e-09
4.45576e-09
-3.31542e-09
4.22299e-09
8.49064e-10
-6.03696e-09
-1.75447e-10
-4.31653e-09
-7.30602e-10
8.65575e-09
-6.16548e-09
1.78862e-09
6.75956e-09
-7.28128e-09
-1.03676e-08
-1.19209e-09
1.47726e-09
-6.70916e-09
4.9107e-09
-4.64448e-09
6.44293e-09
-5.81083e-09
-4.92743e-11
8.63586e-09
-5.92871e-09
1.4212e-09
-5.79237e-09
-6.17329e-09
1.01583e-08
-9.94906e-09
-6.02004e-09
6.99066e-10
4.81471e-09
1.17316e-08
-5.26017e-10
-2.46723e-09
-8.7384e-09
6.26522e-09
-1.69795e-09
-6.10935e-09
-1.12058e-09
-1.12957e-08
-8.61091e-09
4.99865e-09
-3.86516e-09
2.39801e-09
-3.53151e-09
6.19741e-09
2.28075e-10
-9.68362e-09
3.25812e-09
2.29283e-09
8.90324e-09
3.53313e-09
-1.12812e-09
-1.12189e-10
6.06464e-09
5.77477e-09
-2.93617e-09
5.96256e-09
3.6352e-09
-8.13231e-09
7.54189e-09
-4.4275e-11
6.34689e-10
3.86665e-09
-6.98859e-09
-5.01037e-09
-3.60886e-09
7.12164e-09
4.02909e-09
5.45725e-10
-2.87929e-10
1.94304e-09
3.90933e-09
-5.62429e-09
-2.09083e-09
1.04277e-08
-6.54091e-09
-1.79598e-09
-7.13639e-09
2.97486e-09
-1.93655e-10
-4.13878e-11
-3.16515e-10
6.13267e-09
-3.02156e-10
6.22332e-09
-3.60609e-09
-2.53536e-10
3.55746e-09
-8.55075e-11
9.33254e-09
1.05089e-09
2.09875e-10
6.65823e-09
5.03376e-10
9.03903e-09
7.54891e-09
-7.36206e-09
3.99497e-09
-1.36094e-09
9.76854e-09
-1.24024e-08
-1.81157e-10
1.20442e-08
-7.86803e-09
2.03568e-09
-1.95108e-09
9.47329e-09
-9.55778e-09
9.20915e-09
-7.3546e-09
1.15035e-08
-1.48155e-08
-3.34135e-09
1.39512e-08
-8.41268e-10
1.50882e-08
1.34636e-08
-1.65076e-08
1.05447e-08
-9.40713e-10
5.48431e-09
1.32712e-09
1.07776e-08
-2.89553e-09
1.26994e-08
-1.89895e-09
1.17242e-08
-1.48262e-09
9.92111e-09
3.28585e-09
8.49793e-09
2.71899e-09
-7.60885e-09
-7.16261e-09
-5.09141e-09
1.9863e-08
-1.21397e-08
1.30289e-08
1.06996e-08
1.90063e-09
8.63567e-10
1.40817e-08
8.56304e-09
4.44747e-09
1.33927e-08
5.38585e-10
-1.33711e-09
5.25499e-09
-5.21013e-09
1.29225e-09
-3.93315e-09
2.53875e-09
5.72898e-11
2.82288e-11
-4.81527e-09
-6.41349e-10
5.4284e-09
-3.94121e-09
-6.28892e-10
4.59833e-09
-5.90635e-09
6.34607e-09
-3.6522e-09
2.03269e-09
-3.59062e-09
-2.05178e-09
-5.53358e-09
-1.41172e-09
9.26469e-12
2.30743e-10
-6.38613e-09
5.51405e-09
-5.54897e-09
5.15082e-09
-3.03246e-09
-6.91836e-09
4.40186e-09
-4.16946e-09
-2.74705e-10
-5.38122e-09
-3.09627e-10
-1.2275e-09
-3.45341e-09
-6.09727e-09
7.29463e-09
5.21056e-09
-2.78733e-09
-9.71786e-09
8.66042e-09
-1.6754e-09
-1.79315e-09
-2.0805e-09
-4.84318e-09
7.11747e-09
-1.42576e-09
-8.29252e-09
-1.25909e-08
5.38983e-10
-1.19626e-09
1.32482e-08
-3.66684e-09
6.45799e-09
-1.5382e-08
-1.68081e-09
-9.19777e-09
1.0117e-08
7.61545e-10
6.69806e-09
-7.8781e-09
-5.00763e-10
-1.04059e-08
-4.50686e-10
1.13956e-08
-7.07989e-11
-3.63709e-09
9.99093e-09
-1.53246e-08
1.66688e-09
-5.30725e-10
9.32543e-09
7.71357e-09
-1.87973e-08
1.37855e-08
-2.70173e-09
-1.10397e-08
1.2427e-08
6.32625e-09
6.38404e-10
-9.43144e-12
-9.82674e-09
8.51997e-10
-8.09169e-09
-1.05943e-09
1.07258e-08
-2.48665e-10
-1.37881e-08
1.48888e-08
-1.011e-09
-1.45623e-08
-5.78801e-10
-1.92295e-08
-1.16279e-08
-1.09312e-09
1.24607e-08
1.21617e-08
-5.92082e-09
4.77376e-09
-1.29824e-08
1.41295e-08
-1.43648e-08
3.83621e-10
8.06035e-09
1.77053e-09
-5.05196e-09
-4.49503e-09
7.77643e-09
-5.73795e-09
1.22822e-08
4.03136e-09
3.32641e-09
-1.24867e-08
5.12891e-09
-7.57882e-09
6.55818e-09
4.39455e-09
-1.26157e-08
-6.14384e-09
-7.40579e-09
-9.9257e-09
5.81429e-09
-1.0646e-08
8.23445e-09
-2.84824e-09
-5.26388e-09
5.33281e-10
-1.26561e-08
-2.67885e-09
5.93976e-09
-7.38635e-09
-1.11691e-08
-2.50509e-09
-1.48082e-09
-7.24841e-09
-5.20577e-10
4.98959e-09
-4.58375e-09
-7.65422e-09
-6.42368e-10
-1.21726e-08
2.16899e-09
-4.10996e-09
-3.55659e-09
3.71622e-09
-1.56863e-08
-9.54798e-09
-7.5013e-09
-8.78129e-09
-1.33331e-08
-1.00036e-08
-7.68959e-09
5.90824e-09
1.17849e-08
-1.05073e-08
3.84661e-11
4.65243e-10
-2.06728e-08
7.80737e-10
1.22025e-08
-7.00782e-09
-8.12032e-09
-5.54473e-09
1.33583e-08
7.78848e-10
-8.22886e-09
1.56915e-08
-1.41696e-08
-8.52964e-09
1.66843e-08
-1.17012e-08
1.07083e-08
1.11209e-08
6.34416e-09
-8.71885e-09
-9.90876e-09
1.57578e-08
-1.18446e-08
-1.35379e-08
9.62469e-09
4.50942e-09
4.44116e-09
6.80724e-09
1.40947e-08
-2.06252e-08
-7.63915e-09
3.84436e-09
-1.45079e-09
4.29757e-09
-7.13095e-09
-5.88546e-09
-1.32759e-08
7.72314e-09
1.00622e-08
1.04037e-11
-7.55743e-09
1.58146e-09
-1.1013e-08
4.5044e-09
4.02937e-09
-1.16462e-09
-7.36915e-09
4.91079e-09
7.5675e-10
-1.16315e-09
3.41813e-10
7.11961e-09
-3.43206e-09
8.57605e-09
-3.32345e-09
4.13871e-09
2.83118e-09
-8.13451e-09
5.02131e-09
-1.25854e-10
8.53612e-09
1.36532e-08
-1.50697e-08
6.61533e-09
2.78188e-09
-8.21161e-10
4.35005e-09
9.46741e-10
-2.7548e-10