/*--------------------------------*- C++ -*----------------------------------*\
| =========                 |                                                 |
| \\      /  F ield         | OpenFOAM: The Open Source CFD Toolbox           |
|  \\    /   O peration     | Version:  v1612+                                |
|   \\  /    A nd           | Web:      www.OpenFOAM.com                      |
|    \\/     M anipulation  |                                                 |
\*---------------------------------------------------------------------------*/
FoamFile
{
    version     2.0;
    format      ascii;
    class       volVectorField;
    location    "150";
    object      U;
}
// * * * * * * * * * * * * * * * * * * * * * * * * * * * * * * * * * * * * * //

dimensions      [0 1 -1 0 0 0 0];

internalField   nonuniform List<vector> 
18942
(
(0.588841 0.733565 -0.353736)
(0.443333 0.708299 -0.258522)
(0.499397 0.710201 -0.224726)
(0.561854 0.764686 -0.438824)
(0.566359 0.73566 -0.440523)
(0.577505 0.753353 -0.451689)
(0.576051 0.741047 -0.452928)
(0.575624 0.721074 -0.43948)
(0.561036 0.705533 -0.434573)
(0.588916 0.742885 -0.455538)
(0.578893 0.73555 -0.4617)
(0.579129 0.781689 -0.463809)
(0.575993 0.69678 -0.446896)
(0.523333 0.655752 -0.407599)
(0.582982 0.72659 -0.460014)
(0.565366 0.749765 -0.446671)
(0.5809 0.748233 -0.452507)
(0.568322 0.717478 -0.454077)
(0.553101 0.742182 -0.439211)
(0.508608 0.671087 -0.394477)
(0.54203 0.694348 -0.426006)
(0.51566 0.665031 -0.360133)
(0.503065 0.643625 -0.345377)
(0.563975 0.729512 -0.388579)
(0.581529 0.731788 -0.390349)
(0.535622 0.659765 -0.338058)
(0.515055 0.646127 -0.332802)
(0.520635 0.648767 -0.348896)
(0.488612 0.613385 -0.318996)
(0.570023 0.733074 -0.388107)
(0.475884 0.594563 -0.29944)
(0.569598 0.68642 -0.355822)
(0.532696 0.655201 -0.342333)
(0.559388 0.699592 -0.377373)
(0.5464 0.699824 -0.368764)
(0.526993 0.654514 -0.337772)
(0.56939 0.700929 -0.367352)
(0.596008 0.73941 -0.384071)
(0.593831 0.73636 -0.38138)
(0.600421 0.840842 -0.265946)
(0.590893 0.838096 -0.279379)
(0.593291 0.833704 -0.277243)
(0.597352 0.839157 -0.26464)
(0.563736 0.806629 -0.276006)
(0.543271 0.770673 -0.261156)
(0.584905 0.834347 -0.285628)
(0.591793 0.829382 -0.274822)
(0.559453 0.78808 -0.263277)
(0.502017 0.707295 -0.236426)
(0.588256 0.792947 -0.278431)
(0.51336 0.718026 -0.24228)
(0.569024 0.799025 -0.276506)
(0.563912 0.793829 -0.421676)
(0.583811 0.823227 -0.466587)
(0.570066 0.771298 -0.459824)
(0.557103 0.773744 -0.437806)
(0.558839 0.758612 -0.426483)
(0.544769 0.777017 -0.420705)
(0.553789 0.772763 -0.418664)
(0.577303 0.819824 -0.43282)
(0.573859 0.815398 -0.432346)
(0.566538 0.800182 -0.447189)
(0.559661 0.769218 -0.437238)
(0.531321 0.747465 -0.410555)
(0.56225 0.80657 -0.41776)
(0.564293 0.830291 -0.421963)
(0.563029 0.796912 -0.428842)
(0.515343 0.769688 -0.24268)
(0.536145 0.806072 -0.250759)
(0.528107 0.792663 -0.242564)
(0.519095 0.752687 -0.238646)
(0.532927 0.801548 -0.253107)
(0.543299 0.810017 -0.255736)
(0.506329 0.739193 -0.238141)
(0.542243 0.803419 -0.237405)
(0.543182 0.788474 -0.244082)
(0.550932 0.82058 -0.243376)
(0.541417 0.794041 -0.245498)
(0.529958 0.778907 -0.242256)
(0.494397 0.7146 -0.226425)
(0.535585 0.769879 -0.242271)
(0.464905 0.782366 -0.27889)
(0.485197 0.779825 -0.293391)
(0.46533 0.78745 -0.283865)
(0.436911 0.778929 -0.233899)
(0.46956 0.777552 -0.287991)
(0.49521 0.762533 -0.274433)
(0.384921 0.711612 -0.202257)
(0.384652 0.715294 -0.181848)
(0.454926 0.73847 -0.205286)
(0.436702 0.732823 -0.199399)
(0.436163 0.738736 -0.215078)
(0.430776 0.73369 -0.170076)
(0.36382 0.68853 -0.149206)
(0.357876 0.687044 -0.143141)
(0.462655 0.739965 -0.199531)
(0.415866 0.745439 -0.17264)
(0.390149 0.708673 -0.143752)
(0.350569 0.611926 -0.309246)
(0.408179 0.660392 -0.306881)
(0.377458 0.624581 -0.309971)
(0.442235 0.694436 -0.326813)
(0.431832 0.683868 -0.329629)
(0.453679 0.700347 -0.337483)
(0.456503 0.691616 -0.346951)
(0.397709 0.646867 -0.334904)
(0.396695 0.643064 -0.348824)
(0.445055 0.691904 -0.35194)
(0.446133 0.672021 -0.378511)
(0.406018 0.650832 -0.352562)
(0.464647 0.678104 -0.379468)
(0.415499 0.642978 -0.359396)
(0.314071 0.440697 -0.101885)
(0.321064 0.440344 -0.105201)
(0.290223 0.406492 -0.0994701)
(0.269818 0.385481 -0.102112)
(0.298334 0.394987 -0.0970398)
(0.259233 0.35252 -0.0945526)
(0.298402 0.401607 -0.0987261)
(0.288325 0.392605 -0.0972465)
(0.25774 0.366263 -0.097079)
(0.241471 0.347409 -0.0965267)
(0.320747 0.462538 -0.108262)
(0.306192 0.467913 -0.110119)
(0.310813 0.456336 -0.114935)
(0.248292 0.38472 -0.125589)
(0.247075 0.354826 -0.106612)
(0.281708 0.427672 -0.123789)
(0.276096 0.420792 -0.123098)
(0.29825 0.474969 -0.125173)
(0.50922 0.777124 -0.250355)
(0.497103 0.760284 -0.220322)
(0.523227 0.777406 -0.229522)
(0.557707 0.78134 -0.240755)
(0.542139 0.801988 -0.295541)
(0.541526 0.782981 -0.249143)
(0.559281 0.771012 -0.295329)
(0.570729 0.765575 -0.261087)
(0.55879 0.779677 -0.320341)
(0.566312 0.764637 -0.287322)
(0.549345 0.729932 -0.296689)
(0.570609 0.747179 -0.26753)
(0.403222 0.512787 -0.154918)
(0.415397 0.52001 -0.157166)
(0.424793 0.535536 -0.169527)
(0.39332 0.50489 -0.160727)
(0.402089 0.513088 -0.157478)
(0.378824 0.484077 -0.151849)
(0.432286 0.550229 -0.170343)
(0.413502 0.525028 -0.163649)
(0.512142 0.646147 -0.198521)
(0.529146 0.668778 -0.200772)
(0.495449 0.631164 -0.177847)
(0.463865 0.602513 -0.163039)
(0.42984 0.539448 -0.163743)
(0.438296 0.555207 -0.174414)
(0.410131 0.521901 -0.158644)
(0.507322 0.643803 -0.200229)
(0.533787 0.673184 -0.209286)
(0.469722 0.607128 -0.174674)
(0.440377 0.582854 -0.159847)
(0.491138 0.632811 -0.178207)
(0.465493 0.590313 -0.17617)
(0.460488 0.587838 -0.179366)
(0.531073 0.668277 -0.193284)
(0.507176 0.641289 -0.196051)
(0.584676 0.697589 -0.308468)
(0.561832 0.672048 -0.29568)
(0.575265 0.727219 -0.319735)
(0.589954 0.707608 -0.32024)
(0.563986 0.739341 -0.344504)
(0.544847 0.696121 -0.324552)
(0.571671 0.73215 -0.332937)
(0.578471 0.697574 -0.306515)
(0.585858 0.72859 -0.321294)
(0.588138 0.711467 -0.325038)
(0.589686 0.722662 -0.325725)
(0.582044 0.704654 -0.315315)
(0.561132 0.739491 -0.339456)
(0.542119 0.691314 -0.32068)
(0.54944 0.668632 -0.307939)
(0.578243 0.726983 -0.303775)
(0.563017 0.729328 -0.330349)
(0.579314 0.722715 -0.2946)
(0.574501 0.731921 -0.315642)
(0.470656 0.675045 -0.22235)
(0.506766 0.745932 -0.236459)
(0.522578 0.767617 -0.234336)
(0.44845 0.649119 -0.206811)
(0.432144 0.618581 -0.203267)
(0.501042 0.735995 -0.236628)
(0.501232 0.737798 -0.234196)
(0.424773 0.620518 -0.200104)
(0.392735 0.586635 -0.190277)
(0.449584 0.666245 -0.214902)
(0.569564 0.720941 -0.279263)
(0.551583 0.692876 -0.261211)
(0.57379 0.721929 -0.272508)
(0.568836 0.722655 -0.279835)
(0.558984 0.720041 -0.277903)
(0.576176 0.741438 -0.257837)
(0.544771 0.722891 -0.251779)
(0.538435 0.702149 -0.248248)
(0.515063 0.681664 -0.243746)
(0.619507 0.798031 -0.296227)
(0.5992 0.764342 -0.284229)
(0.623318 0.793918 -0.307586)
(0.546743 0.710125 -0.253895)
(0.520564 0.702633 -0.244703)
(0.540251 0.708273 -0.249074)
(0.533757 0.712573 -0.261168)
(0.626089 0.790829 -0.278541)
(0.627087 0.807096 -0.276281)
(0.643029 0.81453 -0.30453)
(0.561897 0.722657 -0.24733)
(0.619238 0.793416 -0.286451)
(0.536274 0.79888 -0.36799)
(0.547915 0.797514 -0.382019)
(0.540288 0.793582 -0.387657)
(0.511905 0.756447 -0.353047)
(0.549181 0.809174 -0.390061)
(0.529959 0.812087 -0.366084)
(0.526404 0.765406 -0.355973)
(0.513418 0.772329 -0.355502)
(0.542286 0.80514 -0.373073)
(0.501878 0.764352 -0.345186)
(0.460799 0.683562 -0.308828)
(0.519147 0.781895 -0.359814)
(0.487887 0.751122 -0.342216)
(0.436184 0.683148 -0.292188)
(0.489737 0.679802 -0.390761)
(0.461496 0.662105 -0.382888)
(0.424041 0.606447 -0.357942)
(0.437306 0.607159 -0.368977)
(0.460167 0.63114 -0.378396)
(0.473142 0.613631 -0.361461)
(0.435058 0.564188 -0.328456)
(0.487736 0.695696 -0.385978)
(0.448726 0.612472 -0.352932)
(0.432533 0.609476 -0.35147)
(0.429223 0.564987 -0.333171)
(0.420955 0.617385 -0.366688)
(0.461497 0.600509 -0.362775)
(0.439969 0.602824 -0.364409)
(0.514737 0.670823 -0.392503)
(0.453876 0.662832 -0.382267)
(0.493362 0.685023 -0.389231)
(0.541071 0.724994 -0.413738)
(0.516721 0.663893 -0.38869)
(0.476847 0.605959 -0.358102)
(0.548149 0.718371 -0.414322)
(0.560085 0.707224 -0.41344)
(0.653465 0.836606 -0.311747)
(0.665415 0.84753 -0.312412)
(0.670625 0.836361 -0.325127)
(0.673029 0.841496 -0.328647)
(0.654462 0.87071 -0.331181)
(0.640245 0.838466 -0.321354)
(0.661054 0.868201 -0.323984)
(0.665328 0.876533 -0.319984)
(0.670493 0.865805 -0.319475)
(0.681043 0.851332 -0.336002)
(0.663472 0.831555 -0.332126)
(0.636249 0.837713 -0.319874)
(0.604424 0.789591 -0.303212)
(0.661208 0.874573 -0.321548)
(0.630344 0.806915 -0.3132)
(0.648648 0.82477 -0.324054)
(0.583597 0.751751 -0.29351)
(0.619165 0.794969 -0.317602)
(0.650937 0.733118 -0.392358)
(0.655338 0.743823 -0.399274)
(0.641808 0.719648 -0.394608)
(0.646072 0.726913 -0.391047)
(0.651674 0.728759 -0.414187)
(0.607715 0.682569 -0.39527)
(0.593112 0.689239 -0.403267)
(0.617614 0.712661 -0.403859)
(0.610188 0.683884 -0.393665)
(0.585954 0.690117 -0.404315)
(0.548772 0.618353 -0.36318)
(0.6358 0.720552 -0.396204)
(0.598819 0.700672 -0.402448)
(0.568707 0.652656 -0.399798)
(0.584287 0.648977 -0.405057)
(0.539234 0.608852 -0.371968)
(0.271161 0.485601 -0.198209)
(0.283542 0.470966 -0.18698)
(0.377635 0.674774 -0.26049)
(0.325165 0.60781 -0.20486)
(0.333645 0.603984 -0.218074)
(0.309881 0.565287 -0.210051)
(0.341561 0.640261 -0.231079)
(0.373841 0.654031 -0.261323)
(0.311642 0.561473 -0.196617)
(0.29666 0.525152 -0.188324)
(0.30067 0.506024 -0.22847)
(0.287635 0.475124 -0.209762)
(0.304194 0.554563 -0.21125)
(0.319681 0.574223 -0.231369)
(0.322239 0.554801 -0.241957)
(0.333557 0.610811 -0.225659)
(0.349594 0.598199 -0.280964)
(0.338844 0.556034 -0.244124)
(0.388898 0.671028 -0.276546)
(0.387955 0.663471 -0.3008)
(0.38339 0.639253 -0.295463)
(0.383598 0.642462 -0.293254)
(0.460706 0.61358 -0.387916)
(0.463804 0.628393 -0.394711)
(0.480809 0.667956 -0.396093)
(0.492719 0.685662 -0.396543)
(0.427577 0.585876 -0.369551)
(0.434656 0.593139 -0.383264)
(0.390934 0.536661 -0.339028)
(0.369385 0.536891 -0.337542)
(0.371643 0.515512 -0.333165)
(0.412039 0.568482 -0.368672)
(0.390489 0.547727 -0.347695)
(0.400653 0.581692 -0.354805)
(0.376132 0.558966 -0.336261)
(0.43266 0.613487 -0.385167)
(0.391369 0.570415 -0.355333)
(0.427686 0.632243 -0.376521)
(0.469935 0.663233 -0.396238)
(0.445233 0.64999 -0.389565)
(0.192848 0.290146 -0.0949424)
(0.184919 0.276034 -0.0929459)
(0.172315 0.285401 -0.10205)
(0.161729 0.253838 -0.0962005)
(0.192154 0.307454 -0.107428)
(0.185251 0.299824 -0.117345)
(0.2083 0.355196 -0.132298)
(0.186905 0.321724 -0.130342)
(0.189426 0.288784 -0.0866436)
(0.151605 0.237165 -0.0981252)
(0.213297 0.35484 -0.107331)
(0.217937 0.373474 -0.113051)
(0.162255 0.261107 -0.108096)
(0.204361 0.350751 -0.135924)
(0.190717 0.333361 -0.129662)
(0.172088 0.269238 -0.0912985)
(0.21682 0.362987 -0.123025)
(0.221698 0.377109 -0.133604)
(0.178422 0.306703 -0.121919)
(0.187318 0.310593 -0.113247)
(0.455512 0.641241 -0.211456)
(0.425947 0.614741 -0.19888)
(0.550326 0.798095 -0.230563)
(0.588698 0.825185 -0.250125)
(0.588726 0.806104 -0.266765)
(0.592909 0.812786 -0.273991)
(0.575576 0.82173 -0.247176)
(0.547854 0.799583 -0.231781)
(0.585271 0.790756 -0.269488)
(0.577663 0.800409 -0.262152)
(0.561051 0.731298 -0.220418)
(0.568053 0.747827 -0.247703)
(0.461804 0.747997 -0.142429)
(0.467258 0.735054 -0.141905)
(0.549128 0.737862 -0.212641)
(0.53519 0.768484 -0.247042)
(0.560987 0.756127 -0.258448)
(0.471063 0.751736 -0.148899)
(0.484722 0.766018 -0.16977)
(0.467825 0.739039 -0.153891)
(0.521378 0.760262 -0.197736)
(0.465341 0.731558 -0.14199)
(0.468661 0.748944 -0.159839)
(0.481256 0.744241 -0.1857)
(0.48367 0.757367 -0.190493)
(0.465596 0.759576 -0.186293)
(0.312629 0.538673 -0.195984)
(0.336018 0.566066 -0.223704)
(0.300946 0.493332 -0.199053)
(0.260028 0.423868 -0.162446)
(0.305809 0.509316 -0.195465)
(0.282217 0.47646 -0.172128)
(0.3078 0.573049 -0.192719)
(0.299747 0.541517 -0.18819)
(0.275395 0.483121 -0.160669)
(0.337882 0.579701 -0.231457)
(0.311717 0.517686 -0.208589)
(0.257068 0.42438 -0.151778)
(0.275205 0.457057 -0.179636)
(0.257441 0.424348 -0.162861)
(0.243909 0.416063 -0.164196)
(0.233727 0.388329 -0.159099)
(0.284216 0.488038 -0.197346)
(0.241434 0.417461 -0.15157)
(0.242604 0.403779 -0.148672)
(0.432249 0.604143 -0.248513)
(0.409662 0.580562 -0.234465)
(0.446834 0.626794 -0.258347)
(0.434629 0.617197 -0.247866)
(0.432363 0.637305 -0.259232)
(0.445775 0.648752 -0.269816)
(0.49072 0.710002 -0.291717)
(0.448259 0.636413 -0.259399)
(0.424136 0.619535 -0.24975)
(0.396742 0.57749 -0.231286)
(0.507884 0.715508 -0.29936)
(0.421323 0.627788 -0.253187)
(0.441488 0.658815 -0.271996)
(0.460369 0.673169 -0.271133)
(0.501407 0.714629 -0.289004)
(0.458257 0.650615 -0.256323)
(0.482271 0.711415 -0.283422)
(0.491843 0.721152 -0.291959)
(0.34115 0.535265 -0.107753)
(0.311694 0.538882 -0.0908668)
(0.427449 0.550699 -0.150634)
(0.392882 0.510081 -0.13517)
(0.288276 0.477006 -0.0887885)
(0.269301 0.489094 -0.086414)
(0.245903 0.431763 -0.0837123)
(0.26901 0.44538 -0.0952968)
(0.422675 0.541488 -0.149268)
(0.435202 0.562523 -0.150382)
(0.288456 0.440603 -0.0911931)
(0.287296 0.519252 -0.0977558)
(0.277834 0.478133 -0.085624)
(0.276032 0.436205 -0.0883196)
(0.26805 0.447057 -0.0969615)
(0.297845 0.430635 -0.0927519)
(0.361388 0.556472 -0.115608)
(0.333297 0.513002 -0.109178)
(0.317589 0.488303 -0.101194)
(0.302024 0.529884 -0.087206)
(0.532846 0.753697 -0.351566)
(0.492466 0.740187 -0.31258)
(0.539119 0.774998 -0.376628)
(0.516971 0.757414 -0.338068)
(0.540536 0.763035 -0.373815)
(0.540225 0.764192 -0.373278)
(0.507312 0.775251 -0.201838)
(0.504214 0.767598 -0.205871)
(0.535821 0.797034 -0.225416)
(0.487963 0.775373 -0.187812)
(0.525521 0.680843 -0.305022)
(0.456599 0.682347 -0.262371)
(0.369611 0.64121 -0.14611)
(0.393093 0.646504 -0.187249)
(0.38817 0.638286 -0.135047)
(0.362615 0.628383 -0.127175)
(0.472323 0.660114 -0.255616)
(0.383592 0.642523 -0.202501)
(0.459081 0.669081 -0.252274)
(0.509378 0.684306 -0.293121)
(0.405408 0.652339 -0.207871)
(0.505694 0.653679 -0.212254)
(0.524005 0.652221 -0.212396)
(0.540071 0.653745 -0.242398)
(0.516597 0.656979 -0.231026)
(0.431209 0.658707 -0.172379)
(0.416408 0.663724 -0.145253)
(0.520012 0.682479 -0.299856)
(0.525619 0.689017 -0.251387)
(0.457706 0.648379 -0.170261)
(0.53652 0.687845 -0.287478)
(0.558392 0.658208 -0.247668)
(0.545291 0.674315 -0.267868)
(0.563199 0.67748 -0.284965)
(0.559617 0.687547 -0.261905)
(0.52581 0.651744 -0.2128)
(0.489527 0.669381 -0.166577)
(0.513307 0.780807 -0.251661)
(0.449553 0.758251 -0.156362)
(0.467557 0.765047 -0.186628)
(0.51824 0.8197 -0.289633)
(0.551115 0.843825 -0.303046)
(0.505501 0.834228 -0.257528)
(0.450169 0.777862 -0.211389)
(0.469887 0.798864 -0.222611)
(0.517734 0.783888 -0.321992)
(0.512683 0.794611 -0.322322)
(0.53802 0.817077 -0.319042)
(0.51178 0.816176 -0.250849)
(0.507344 0.784349 -0.320699)
(0.492972 0.779211 -0.302383)
(0.448644 0.757331 -0.230001)
(0.451593 0.757211 -0.248532)
(0.494461 0.779535 -0.30465)
(0.455898 0.748708 -0.274673)
(0.472052 0.773181 -0.280531)
(0.499777 0.780571 -0.311453)
(0.540253 0.842083 -0.311251)
(0.513521 0.805173 -0.31658)
(0.486485 0.78918 -0.289674)
(0.46926 0.794919 -0.264057)
(0.419194 0.66329 -0.112342)
(0.437348 0.626733 -0.118904)
(0.450296 0.678521 -0.118654)
(0.482693 0.666912 -0.132888)
(0.461168 0.704382 -0.127268)
(0.475223 0.719116 -0.140074)
(0.533771 0.680761 -0.179853)
(0.53394 0.659111 -0.169198)
(0.435905 0.658987 -0.121458)
(0.463171 0.634636 -0.128619)
(0.428276 0.685156 -0.11371)
(0.442327 0.709107 -0.109026)
(0.559778 0.712121 -0.193065)
(0.491383 0.679309 -0.151169)
(0.467272 0.720053 -0.152675)
(0.551688 0.706232 -0.196135)
(0.560882 0.722369 -0.208686)
(0.511863 0.795683 -0.303397)
(0.503068 0.782747 -0.293238)
(0.51925 0.779868 -0.321924)
(0.513887 0.78178 -0.312997)
(0.520032 0.793123 -0.307722)
(0.51305 0.77924 -0.302458)
(0.509737 0.789636 -0.318891)
(0.518536 0.780093 -0.31056)
(0.536017 0.85165 -0.298959)
(0.505621 0.787371 -0.289799)
(0.521364 0.815769 -0.303217)
(0.499741 0.77232 -0.293915)
(0.498525 0.772444 -0.291821)
(0.513673 0.792241 -0.316366)
(0.504474 0.76754 -0.298483)
(0.512172 0.798933 -0.291044)
(0.482755 0.725351 -0.279515)
(0.509178 0.808101 -0.289939)
(0.51986 0.809155 -0.304661)
(0.48258 0.779672 -0.280235)
(0.54115 0.77553 -0.249302)
(0.379213 0.649023 -0.168114)
(0.376693 0.648479 -0.157373)
(0.494602 0.788499 -0.290214)
(0.462395 0.743984 -0.282115)
(0.473928 0.762523 -0.272023)
(0.488659 0.781282 -0.267241)
(0.406691 0.671543 -0.2331)
(0.404747 0.677478 -0.221401)
(0.368802 0.641408 -0.138765)
(0.378366 0.635439 -0.136212)
(0.464855 0.745694 -0.276141)
(0.489671 0.780408 -0.273483)
(0.434352 0.713369 -0.210125)
(0.444813 0.714136 -0.216599)
(0.410421 0.678071 -0.214396)
(0.462784 0.74814 -0.261647)
(0.49748 0.790449 -0.329492)
(0.412173 0.691654 -0.199985)
(0.405348 0.686433 -0.192981)
(0.431967 0.690526 -0.258802)
(0.381389 0.662746 -0.189602)
(0.479959 0.770589 -0.290327)
(0.481698 0.773806 -0.309573)
(0.486263 0.789298 -0.290781)
(0.463996 0.752088 -0.246796)
(0.458075 0.72343 -0.297128)
(0.459858 0.712472 -0.291213)
(0.422881 0.703715 -0.282978)
(0.431566 0.700479 -0.26258)
(0.521853 0.82081 -0.34435)
(0.517387 0.814265 -0.338358)
(0.43841 0.712128 -0.251919)
(0.507482 0.7999 -0.338454)
(0.498291 0.780192 -0.328013)
(0.476716 0.761113 -0.31274)
(0.527238 0.801961 -0.243935)
(0.530424 0.811189 -0.24552)
(0.496361 0.79044 -0.220079)
(0.488929 0.793471 -0.222905)
(0.531513 0.80916 -0.230288)
(0.445364 0.756684 -0.177855)
(0.503891 0.798414 -0.22166)
(0.444654 0.755401 -0.181889)
(0.45243 0.748727 -0.183849)
(0.497167 0.793065 -0.20518)
(0.519144 0.797264 -0.212406)
(0.516513 0.789725 -0.208655)
(0.440472 0.753985 -0.172872)
(0.421234 0.753431 -0.15172)
(0.443768 0.748483 -0.159709)
(0.475568 0.757581 -0.168167)
(0.476885 0.758012 -0.182362)
(0.459628 0.755373 -0.160805)
(0.494598 0.754902 -0.174401)
(0.469679 0.761169 -0.186645)
(0.487881 0.652616 -0.332291)
(0.537082 0.686057 -0.343703)
(0.498266 0.679692 -0.352592)
(0.475271 0.629708 -0.322766)
(0.561243 0.764012 -0.370267)
(0.493258 0.712403 -0.357389)
(0.528001 0.741905 -0.368863)
(0.58196 0.775465 -0.379848)
(0.497144 0.687314 -0.362095)
(0.481227 0.655999 -0.338742)
(0.591608 0.764183 -0.365344)
(0.573247 0.749144 -0.365202)
(0.534722 0.734866 -0.356994)
(0.5795 0.785822 -0.368192)
(0.521721 0.6735 -0.32877)
(0.528482 0.687023 -0.338142)
(0.522678 0.676068 -0.339571)
(0.462628 0.620131 -0.296081)
(0.491708 0.646484 -0.31363)
(0.498216 0.676425 -0.343661)
(0.531123 0.834248 -0.274513)
(0.532189 0.817795 -0.281042)
(0.527963 0.808203 -0.283644)
(0.545226 0.839457 -0.272812)
(0.537229 0.841698 -0.259624)
(0.5407 0.842994 -0.263491)
(0.534735 0.83709 -0.300996)
(0.52649 0.829592 -0.278415)
(0.525169 0.82099 -0.281239)
(0.517067 0.816522 -0.277061)
(0.535369 0.844231 -0.308464)
(0.519641 0.82448 -0.282748)
(0.526238 0.812723 -0.295217)
(0.533475 0.839382 -0.306446)
(0.413022 0.603164 -0.256977)
(0.438701 0.645544 -0.279292)
(0.429696 0.616516 -0.268446)
(0.394927 0.574973 -0.241024)
(0.437251 0.647422 -0.272712)
(0.401867 0.603803 -0.256685)
(0.385733 0.5644 -0.230514)
(0.40603 0.627965 -0.27061)
(0.477978 0.716668 -0.308156)
(0.485534 0.720607 -0.315485)
(0.474536 0.73681 -0.32258)
(0.496159 0.753181 -0.336506)
(0.488057 0.740414 -0.331145)
(0.40691 0.595217 -0.257121)
(0.428089 0.638244 -0.279405)
(0.499784 0.750439 -0.332481)
(0.506003 0.725022 -0.329574)
(0.43366 0.588592 -0.227425)
(0.403966 0.546612 -0.213652)
(0.457715 0.619958 -0.244608)
(0.493511 0.666616 -0.26262)
(0.547046 0.722044 -0.283138)
(0.476441 0.651238 -0.268175)
(0.466997 0.622581 -0.23976)
(0.438938 0.595941 -0.229407)
(0.547052 0.736904 -0.306168)
(0.550945 0.730281 -0.287463)
(0.487957 0.660981 -0.27069)
(0.546256 0.731135 -0.302098)
(0.529581 0.797333 -0.334843)
(0.515051 0.797539 -0.321149)
(0.521621 0.781508 -0.331021)
(0.521294 0.790019 -0.324488)
(0.509621 0.774631 -0.313377)
(0.526403 0.779409 -0.337752)
(0.522964 0.775065 -0.339179)
(0.465481 0.705109 -0.288763)
(0.485386 0.719384 -0.295399)
(0.519297 0.764924 -0.321544)
(0.519143 0.756063 -0.331516)
(0.484517 0.710238 -0.301725)
(0.482508 0.698377 -0.302927)
(0.491932 0.734082 -0.304351)
(0.522412 0.761681 -0.33406)
(0.458385 0.663513 -0.283068)
(0.452889 0.667861 -0.283395)
(0.435775 0.63164 -0.266176)
(0.490422 0.714701 -0.300958)
(0.481248 0.691284 -0.302669)
(0.457968 0.665016 -0.282065)
(0.464769 0.677111 -0.285499)
(0.593294 0.78994 -0.261296)
(0.596396 0.795657 -0.261392)
(0.524936 0.685907 -0.253026)
(0.51726 0.672116 -0.23936)
(0.557126 0.73089 -0.253608)
(0.525575 0.707687 -0.238169)
(0.531705 0.719027 -0.239499)
(0.6207 0.819817 -0.269218)
(0.62731 0.820244 -0.275993)
(0.526491 0.682127 -0.250352)
(0.497537 0.65285 -0.233905)
(0.53396 0.715813 -0.236877)
(0.504961 0.674895 -0.228515)
(0.637642 0.816375 -0.265645)
(0.62997 0.814613 -0.275467)
(0.612395 0.782931 -0.270828)
(0.51004 0.667229 -0.23815)
(0.608226 0.811971 -0.273145)
(0.631241 0.812015 -0.277291)
(0.615644 0.794283 -0.28545)
(0.534995 0.692484 -0.246235)
(0.526948 0.690727 -0.238523)
(0.583102 0.767651 -0.267757)
(0.546925 0.723792 -0.245036)
(0.443456 0.776031 -0.17048)
(0.49994 0.814587 -0.253846)
(0.481727 0.797162 -0.24201)
(0.461507 0.801195 -0.199658)
(0.451603 0.794057 -0.188993)
(0.48892 0.791812 -0.201662)
(0.553952 0.823618 -0.319682)
(0.570184 0.809514 -0.330016)
(0.466402 0.793586 -0.201734)
(0.583264 0.845605 -0.304444)
(0.57891 0.840844 -0.28884)
(0.516119 0.83618 -0.236581)
(0.535429 0.830694 -0.240954)
(0.49871 0.809174 -0.226277)
(0.568841 0.829721 -0.315582)
(0.547708 0.836011 -0.312754)
(0.5033 0.813981 -0.26165)
(0.561821 0.708541 -0.280056)
(0.582128 0.701731 -0.257922)
(0.573458 0.711199 -0.235816)
(0.540644 0.71044 -0.266765)
(0.566921 0.705017 -0.234064)
(0.557445 0.709751 -0.238477)
(0.557878 0.709873 -0.27635)
(0.535498 0.704377 -0.200184)
(0.46285 0.704612 -0.202034)
(0.505434 0.712482 -0.208136)
(0.477946 0.692648 -0.173763)
(0.471084 0.694401 -0.215299)
(0.474907 0.701473 -0.167311)
(0.451039 0.703873 -0.205445)
(0.448704 0.698545 -0.16826)
(0.522562 0.800358 -0.26515)
(0.521582 0.807155 -0.274505)
(0.521821 0.804104 -0.265481)
(0.500431 0.775787 -0.256328)
(0.543372 0.817786 -0.240762)
(0.528555 0.8005 -0.241886)
(0.532063 0.801201 -0.244443)
(0.516894 0.787069 -0.250331)
(0.515577 0.805981 -0.262406)
(0.527474 0.800242 -0.255046)
(0.480634 0.792996 -0.236399)
(0.471748 0.766451 -0.199434)
(0.496175 0.800435 -0.256042)
(0.501516 0.810333 -0.24754)
(0.497364 0.792125 -0.217989)
(0.497048 0.790801 -0.247138)
(0.515509 0.804271 -0.223013)
(0.529714 0.806515 -0.230636)
(0.532465 0.824642 -0.255993)
(0.52335 0.814513 -0.220799)
(0.565714 0.79749 -0.253258)
(0.555827 0.790764 -0.228899)
(0.593279 0.821184 -0.30081)
(0.625837 0.85061 -0.322263)
(0.597636 0.848013 -0.310104)
(0.588396 0.808132 -0.301101)
(0.588603 0.83214 -0.282437)
(0.556489 0.765435 -0.281041)
(0.592739 0.832465 -0.299291)
(0.586943 0.797899 -0.265902)
(0.491692 0.77926 -0.180188)
(0.498504 0.765021 -0.196681)
(0.578514 0.808982 -0.259106)
(0.569112 0.79947 -0.266926)
(0.517288 0.798273 -0.221193)
(0.501634 0.7752 -0.200782)
(0.540041 0.817977 -0.239544)
(0.526568 0.800117 -0.347467)
(0.534483 0.812958 -0.357078)
(0.479127 0.718715 -0.308274)
(0.459945 0.699423 -0.298776)
(0.533519 0.812502 -0.346839)
(0.539836 0.822422 -0.346878)
(0.52705 0.80407 -0.356394)
(0.524141 0.781966 -0.344947)
(0.474366 0.737721 -0.300822)
(0.453211 0.694624 -0.279642)
(0.491501 0.748801 -0.315865)
(0.496997 0.750142 -0.334083)
(0.492416 0.737486 -0.32433)
(0.493289 0.758259 -0.310001)
(0.522298 0.801602 -0.32998)
(0.538845 0.833687 -0.345407)
(0.537471 0.822697 -0.345715)
(0.516174 0.7866 -0.343515)
(0.52696 0.80262 -0.340488)
(0.515264 0.768282 -0.342162)
(0.380816 0.575119 -0.225326)
(0.426626 0.64205 -0.257193)
(0.413249 0.624197 -0.236752)
(0.373308 0.55522 -0.205204)
(0.41211 0.62078 -0.246188)
(0.402704 0.60335 -0.235742)
(0.368487 0.579169 -0.22316)
(0.360359 0.568364 -0.212823)
(0.377021 0.58795 -0.220108)
(0.333321 0.51292 -0.189097)
(0.387045 0.580789 -0.22431)
(0.434689 0.677567 -0.265225)
(0.372114 0.584967 -0.227295)
(0.373681 0.564541 -0.216704)
(0.413736 0.639023 -0.248597)
(0.398597 0.616984 -0.238958)
(0.359009 0.547326 -0.212737)
(0.341934 0.512919 -0.194624)
(0.427853 0.672426 -0.262912)
(0.36554 0.561858 -0.209505)
(0.435544 0.6643 -0.259157)
(0.457439 0.703317 -0.274121)
(0.396144 0.711264 -0.201122)
(0.439547 0.740802 -0.240865)
(0.461857 0.765445 -0.317589)
(0.487825 0.757028 -0.309751)
(0.440297 0.743879 -0.293671)
(0.387153 0.699905 -0.207868)
(0.421682 0.710494 -0.209248)
(0.427606 0.724614 -0.204679)
(0.490245 0.763417 -0.334092)
(0.470295 0.755907 -0.333581)
(0.412034 0.724545 -0.262708)
(0.428068 0.739559 -0.296579)
(0.461778 0.763996 -0.325858)
(0.450499 0.756252 -0.2653)
(0.461327 0.76755 -0.315527)
(0.437091 0.712482 -0.221934)
(0.428072 0.723987 -0.207676)
(0.387118 0.704292 -0.202017)
(0.417127 0.743796 -0.245878)
(0.500257 0.759696 -0.31413)
(0.434973 0.597139 -0.245612)
(0.424388 0.589202 -0.24484)
(0.497633 0.678546 -0.282425)
(0.43273 0.597749 -0.249168)
(0.508733 0.685825 -0.28174)
(0.478581 0.646909 -0.266992)
(0.445879 0.603965 -0.24931)
(0.383913 0.535192 -0.216546)
(0.503173 0.703499 -0.305442)
(0.456926 0.642081 -0.266663)
(0.429799 0.608399 -0.250571)
(0.394335 0.556306 -0.226041)
(0.453402 0.64334 -0.275169)
(0.429487 0.602362 -0.254276)
(0.527438 0.722102 -0.308582)
(0.512673 0.712511 -0.303332)
(0.540191 0.726724 -0.314315)
(0.532818 0.734364 -0.318945)
(0.547129 0.741687 -0.316984)
(0.45067 0.633575 -0.264694)
(0.545707 0.828293 -0.249047)
(0.536986 0.817916 -0.247359)
(0.572255 0.825693 -0.25093)
(0.558053 0.812404 -0.257773)
(0.554438 0.82431 -0.253917)
(0.549117 0.804138 -0.25194)
(0.502425 0.78319 -0.221879)
(0.514993 0.792527 -0.227467)
(0.507828 0.764456 -0.203375)
(0.556821 0.796675 -0.221751)
(0.577892 0.832814 -0.246404)
(0.566014 0.82229 -0.25594)
(0.567436 0.826862 -0.249606)
(0.545297 0.824595 -0.249643)
(0.514604 0.792948 -0.226123)
(0.534503 0.789465 -0.223164)
(0.591159 0.82208 -0.240716)
(0.554704 0.793677 -0.222604)
(0.525458 0.778384 -0.21109)
(0.423093 0.588217 -0.122474)
(0.343006 0.538638 -0.0638287)
(0.399665 0.547814 -0.103813)
(0.455575 0.57688 -0.132854)
(0.472031 0.513449 -0.151168)
(0.453625 0.513787 -0.131057)
(0.35164 0.555765 -0.0825418)
(0.47004 0.616049 -0.158715)
(0.359964 0.542607 -0.0902019)
(0.536549 0.578342 -0.17647)
(0.410707 0.497338 -0.118055)
(0.468362 0.503932 -0.146906)
(0.376186 0.55025 -0.105041)
(0.365325 0.513436 -0.0982905)
(0.396611 0.501549 -0.110471)
(0.420488 0.510914 -0.119677)
(0.534158 0.592037 -0.187636)
(0.472384 0.522772 -0.144448)
(0.439487 0.549864 -0.126864)
(0.491224 0.582908 -0.155139)
(0.545265 0.581694 -0.188034)
(0.487923 0.581548 -0.147415)
(0.589915 0.708148 -0.399976)
(0.609327 0.699502 -0.413347)
(0.557247 0.694465 -0.365732)
(0.554504 0.723502 -0.383423)
(0.6041 0.669477 -0.374291)
(0.478786 0.651966 -0.300819)
(0.515505 0.67506 -0.305402)
(0.52089 0.681016 -0.310306)
(0.591342 0.711127 -0.411217)
(0.597047 0.63868 -0.370934)
(0.610136 0.652491 -0.377293)
(0.5365 0.67121 -0.328664)
(0.534269 0.681523 -0.295552)
(0.586712 0.680894 -0.391713)
(0.612823 0.656716 -0.361207)
(0.63404 0.690669 -0.398038)
(0.578711 0.650538 -0.337843)
(0.540286 0.819085 -0.313629)
(0.519678 0.795165 -0.317238)
(0.545886 0.836523 -0.312236)
(0.509488 0.78074 -0.308696)
(0.525171 0.801793 -0.2966)
(0.520021 0.791505 -0.309828)
(0.562766 0.867861 -0.33532)
(0.528006 0.808465 -0.321737)
(0.478464 0.734051 -0.266169)
(0.510028 0.784657 -0.298923)
(0.566888 0.862595 -0.321119)
(0.552981 0.861397 -0.326782)
(0.540904 0.805868 -0.292964)
(0.486116 0.733168 -0.263489)
(0.557455 0.828366 -0.310366)
(0.560256 0.848259 -0.299824)
(0.575474 0.866597 -0.303687)
(0.540391 0.829499 -0.302293)
(0.508645 0.777685 -0.279168)
(0.564428 0.844514 -0.310213)
(0.429296 0.470482 -0.126961)
(0.383912 0.4274 -0.11992)
(0.380281 0.422228 -0.112645)
(0.318314 0.37166 -0.0936639)
(0.327876 0.382031 -0.097692)
(0.373744 0.425033 -0.115044)
(0.406163 0.461566 -0.124331)
(0.431263 0.500587 -0.119722)
(0.306491 0.358478 -0.0910947)
(0.379305 0.457287 -0.107561)
(0.293713 0.372344 -0.0904658)
(0.290412 0.383605 -0.0880803)
(0.332843 0.414119 -0.105177)
(0.304777 0.380382 -0.0904522)
(0.289055 0.370969 -0.0902722)
(0.292867 0.355872 -0.0887409)
(0.542735 0.798423 -0.384703)
(0.532633 0.761322 -0.379269)
(0.54743 0.79984 -0.394524)
(0.489798 0.707155 -0.339589)
(0.51018 0.785748 -0.351251)
(0.556313 0.833394 -0.386547)
(0.538455 0.784287 -0.380427)
(0.525528 0.763443 -0.371093)
(0.548673 0.836659 -0.387377)
(0.526142 0.793072 -0.35812)
(0.485298 0.721667 -0.318755)
(0.497065 0.742812 -0.347372)
(0.551555 0.828824 -0.388881)
(0.473126 0.499281 -0.166043)
(0.484574 0.494254 -0.182375)
(0.560251 0.592625 -0.205509)
(0.490133 0.538325 -0.169615)
(0.501956 0.539268 -0.21489)
(0.529825 0.569765 -0.231034)
(0.48869 0.529343 -0.204171)
(0.451384 0.487356 -0.183676)
(0.465563 0.497001 -0.170892)
(0.456327 0.482376 -0.178522)
(0.536492 0.54418 -0.213906)
(0.554553 0.603456 -0.201214)
(0.58321 0.642308 -0.212089)
(0.577094 0.636432 -0.22194)
(0.582002 0.639393 -0.230749)
(0.538631 0.577607 -0.226876)
(0.400034 0.442307 -0.158723)
(0.560945 0.61707 -0.217615)
(0.475512 0.516344 -0.193745)
(0.475846 0.513877 -0.162111)
(0.497584 0.544026 -0.183893)
(0.355714 0.602939 -0.244731)
(0.342102 0.569284 -0.247882)
(0.342132 0.565668 -0.23764)
(0.337581 0.548229 -0.244194)
(0.323047 0.523589 -0.230672)
(0.260511 0.431985 -0.176563)
(0.27524 0.469587 -0.196356)
(0.306405 0.500218 -0.211766)
(0.309435 0.49413 -0.213679)
(0.299453 0.491875 -0.209159)