/*--------------------------------*- C++ -*----------------------------------*\
| =========                 |                                                 |
| \\      /  F ield         | OpenFOAM: The Open Source CFD Toolbox           |
|  \\    /   O peration     | Version:  v1612+                                |
|   \\  /    A nd           | Web:      www.OpenFOAM.com                      |
|    \\/     M anipulation  |                                                 |
\*---------------------------------------------------------------------------*/
FoamFile
{
    version     2.0;
    format      ascii;
    class       volVectorField;
    location    "150";
    object      wallShearStress;
}
// * * * * * * * * * * * * * * * * * * * * * * * * * * * * * * * * * * * * * //

dimensions      [0 2 -2 0 0 0 0];

internalField   uniform (0 0 0);

boundaryField
{
    WALL
    {
        type            calculated;
        value           nonuniform List<vector> 
1668
(
(-0.0095505 -0.0142455 0.0039959)
(-0.00946867 -0.0148755 0.0037888)
(-0.00891262 -0.0134272 0.00450343)
(-0.00878044 -0.0129835 0.00382926)
(-0.0152613 -0.0201122 0.00731318)
(-0.00945146 -0.0138003 0.0045376)
(-0.00874708 -0.0136536 0.00364411)
(-0.00733976 -0.0108911 0.00341049)
(-0.00723152 -0.0105358 0.00307862)
(-0.00737649 -0.0100417 0.00295738)
(-0.0073899 -0.00959134 0.00277644)
(-0.00875392 -0.0131749 0.00385248)
(-0.00900897 -0.0128107 0.00496004)
(-0.00874116 -0.0123034 0.00447685)
(-0.00751245 -0.0107641 0.00314438)
(-0.00722664 -0.010069 0.00305352)
(-0.00985215 -0.0150467 0.00493784)
(-0.00952016 -0.0142117 0.00446891)
(-0.00882515 -0.0127937 0.00393779)
(-0.0094271 -0.0127942 0.00353118)
(-0.00813553 -0.0125067 0.00403342)
(-0.00871089 -0.012707 0.00407712)
(-0.00859903 -0.0128506 0.00408141)
(-0.00937887 -0.0132832 0.00400647)
(-0.0102753 -0.0141711 0.0040754)
(-0.00888644 -0.0132941 0.00402042)
(-0.0101441 -0.0151081 0.00483162)
(-0.0121743 -0.0161033 0.00470748)
(-0.0102971 -0.0137496 0.00510801)
(-0.0101136 -0.013782 0.00495762)
(-0.00923548 -0.013111 0.00497886)
(-0.00923869 -0.0133073 0.00521709)
(-0.00583904 -0.00884922 0.00303203)
(-0.00636034 -0.00871992 0.0023485)
(-0.0106848 -0.0145631 0.00559112)
(-0.0107605 -0.0145699 0.00615834)
(-0.00682779 -0.00982213 0.00300881)
(-0.0067676 -0.0100242 0.00311304)
(-0.00523313 -0.00841792 0.00281123)
(-0.00509822 -0.00795535 0.00266685)
(-0.0048256 -0.00777531 0.00297814)
(-0.00537348 -0.00739469 0.00217437)
(-0.0103538 -0.0143302 0.00369623)
(-0.00947314 -0.0132565 0.00381202)
(-0.00861189 -0.0134492 0.00445304)
(-0.0094826 -0.0127072 0.0035884)
(-0.00669949 -0.0101311 0.00308125)
(-0.00733647 -0.0103918 0.00304867)
(-0.00755215 -0.010677 0.00279151)
(-0.00788994 -0.0113741 0.00333322)
(-0.00939227 -0.0135809 0.00444223)
(-0.00829657 -0.0125683 0.00419147)
(-0.00985527 -0.014184 0.0040397)
(-0.00993678 -0.0141131 0.00370729)
(-0.00806792 -0.0108616 0.00343535)
(-0.00811234 -0.0110624 0.00347822)
(-0.00841908 -0.0108129 0.00315775)
(-0.00805328 -0.0103246 0.002974)
(-0.00766748 -0.0100181 0.00287958)
(-0.010132 -0.0148274 0.00383055)
(-0.0106769 -0.0154227 0.00438327)
(-0.0102997 -0.0152615 0.00406532)
(-0.0113733 -0.016227 0.00473344)
(-0.0106186 -0.0155161 0.00449834)
(-0.00847512 -0.0128726 0.00412837)
(-0.00920311 -0.0128954 0.00398873)
(-0.00870428 -0.012832 0.00389286)
(-0.00863391 -0.0133319 0.00444839)
(-0.00913181 -0.0136888 0.00445291)
(-0.0102658 -0.013633 0.00633443)
(-0.00925442 -0.0120853 0.00587024)
(-0.0100644 -0.0145869 0.0048624)
(-0.00865953 -0.0126121 0.00387081)
(-0.00955513 -0.0141736 0.00439664)
(-0.00936562 -0.0137057 0.00440139)
(-0.00892271 -0.0136147 0.00417656)
(-0.00952808 -0.0137568 0.00450664)
(-0.00930328 -0.0134227 0.00440093)
(-0.00917337 -0.0131893 0.0040643)
(-0.00949321 -0.0142994 0.00426388)
(-0.00895525 -0.0126581 0.00429255)
(-0.00923251 -0.0137725 0.00437548)
(-0.00952637 -0.0140009 0.00465807)
(-0.00774791 -0.0112491 0.00328368)
(-0.0075166 -0.0113742 0.00363131)
(-0.00746849 -0.0115359 0.00389947)
(-0.00840585 -0.0127965 0.0039281)
(-0.00752793 -0.0109848 0.00330604)
(-0.00753491 -0.0109668 0.00323414)
(-0.00862717 -0.0125886 0.00417405)
(-0.00882138 -0.0131675 0.00411242)
(-0.00866366 -0.0127418 0.00428542)
(-0.00881961 -0.0128549 0.00439793)
(-0.00839029 -0.0122047 0.00401021)
(-0.00834592 -0.0124936 0.00371772)
(-0.010167 -0.0128234 0.00479214)
(-0.00969932 -0.0134336 0.00475449)
(-0.0102252 -0.0133787 0.00502821)
(-0.00998962 -0.0132197 0.00463829)
(-0.0104755 -0.0126711 0.00486678)
(-0.0101729 -0.0136036 0.0049849)
(-0.00853087 -0.0129641 0.00427724)
(-0.00849531 -0.0128384 0.00396802)
(-0.00914293 -0.0137913 0.00444496)
(-0.00927202 -0.0137164 0.00422199)
(-0.00871626 -0.0131255 0.00431188)
(-0.00877147 -0.0133486 0.00427275)
(-0.00690324 -0.00961437 0.0027547)
(-0.00679185 -0.0100331 0.00307742)
(-0.00684306 -0.0097963 0.00281168)
(-0.00672206 -0.00951289 0.00269311)
(-0.0068877 -0.00938691 0.0026373)
(-0.00692254 -0.00997823 0.00301511)
(-0.00773792 -0.00887202 0.00318753)
(-0.00863387 -0.00951235 0.00357136)
(-0.00892221 -0.00972875 0.00405517)
(-0.00653495 -0.00817845 0.0028083)
(-0.0070678 -0.00753204 0.00278787)
(-0.00854152 -0.009177 0.00360623)
(-0.00812365 -0.0117117 0.00339573)
(-0.00757374 -0.0110342 0.003315)
(-0.00720436 -0.0106463 0.00338595)
(-0.0074996 -0.0110638 0.00331528)
(-0.00804754 -0.0118933 0.00357471)
(-0.00743929 -0.0107549 0.00325192)
(-0.00708303 -0.0110769 0.00349876)
(-0.00570245 -0.00880446 0.00324755)
(-0.00678862 -0.0100757 0.00325268)
(-0.00673014 -0.0101462 0.00342447)
(-0.00740186 -0.011391 0.0035229)
(-0.00621803 -0.00959237 0.00295496)
(-0.0088571 -0.0129007 0.0037503)
(-0.00914182 -0.0137057 0.00362978)
(-0.0087822 -0.0128734 0.00379818)
(-0.00881367 -0.0130235 0.0036519)
(-0.00901738 -0.0131729 0.00388683)
(-0.00906866 -0.0134085 0.00376471)
(-0.00770274 -0.011446 0.00359896)
(-0.00831726 -0.0123613 0.00371589)
(-0.00777673 -0.0113758 0.00358925)
(-0.00830149 -0.0122324 0.00376205)
(-0.00785852 -0.011444 0.00349296)
(-0.00737071 -0.0110702 0.00363928)
(-0.00865663 -0.0129339 0.00343969)
(-0.00856886 -0.0129702 0.00394298)
(-0.00864316 -0.0130639 0.00376162)
(-0.00778623 -0.0117433 0.00376564)
(-0.00808017 -0.0121971 0.00335701)
(-0.00859274 -0.0127893 0.00378557)
(-0.00822326 -0.0122165 0.00372809)
(-0.00845435 -0.0124207 0.00380906)
(-0.00887252 -0.0133386 0.00350805)
(-0.00862596 -0.0125767 0.00374275)
(-0.00877349 -0.0130124 0.00388733)
(-0.00889198 -0.0133737 0.00389489)
(-0.00919038 -0.0139315 0.00394612)
(-0.00906718 -0.0135224 0.00391402)
(-0.00882367 -0.0131345 0.00366695)
(-0.00908728 -0.0139402 0.00359045)
(-0.00896618 -0.0134053 0.00392944)
(-0.00927929 -0.0140143 0.00389016)
(-0.00912684 -0.0134556 0.00348373)
(-0.00898327 -0.0134733 0.00378479)
(-0.00917058 -0.0137481 0.00368498)
(-0.00921937 -0.0137995 0.00374591)
(-0.00935537 -0.0138578 0.00373866)
(-0.0101162 -0.0159307 0.00444311)
(-0.0110073 -0.016337 0.00496105)
(-0.0106877 -0.0172743 0.0048193)
(-0.00960036 -0.0154036 0.00394529)
(-0.0107029 -0.0174198 0.00512446)
(-0.0107456 -0.0161873 0.00509131)
(-0.00947294 -0.0141929 0.00402682)
(-0.009514 -0.0149258 0.00367456)
(-0.0100605 -0.0153178 0.00426288)
(-0.0100856 -0.0150523 0.00429486)
(-0.0105388 -0.0155155 0.00506245)
(-0.0105994 -0.0157982 0.00487122)
(-0.0109772 -0.0170939 0.00517411)
(-0.0105523 -0.0164002 0.00439737)
(-0.0127784 -0.0186794 0.00665237)
(-0.0124937 -0.0189257 0.00632698)
(-0.0116606 -0.0168063 0.00579412)
(-0.0113572 -0.0171293 0.00571138)
(-0.0118572 -0.0181606 0.00533703)
(-0.010364 -0.0163982 0.0049525)
(-0.0108211 -0.017606 0.004938)
(-0.00967618 -0.0159778 0.00430704)
(-0.00918363 -0.0155253 0.00392457)
(-0.00981028 -0.0159081 0.00448732)
(-0.00983747 -0.0169926 0.00471473)
(-0.00922843 -0.0154023 0.0041978)
(-0.010038 -0.0164195 0.00456382)
(-0.00475187 -0.00664732 0.00302986)
(-0.00446543 -0.00635583 0.00280348)
(-0.00443002 -0.00678855 0.0029788)
(-0.00463562 -0.00659929 0.00306307)
(-0.00483027 -0.00728971 0.0033699)
(-0.00517986 -0.00773914 0.00331019)
(-0.00434236 -0.00633573 0.00215036)
(-0.00449989 -0.00655313 0.00225496)
(-0.00472996 -0.00640071 0.00198091)
(-0.00450157 -0.0064174 0.00211715)
(-0.00473849 -0.0066007 0.00206614)
(-0.00739889 -0.00817484 0.00353448)
(-0.00721805 -0.00742628 0.00326066)
(-0.00750732 -0.00801285 0.00397891)
(-0.00630393 -0.00684023 0.00304558)
(-0.00742159 -0.0080894 0.00382215)
(-0.00534477 -0.00664675 0.00197133)
(-0.00660152 -0.00803492 0.00248445)
(-0.00692113 -0.0084163 0.0027615)
(-0.00482648 -0.00771063 0.00304272)
(-0.00480124 -0.00702034 0.00278336)
(-0.00449952 -0.00729061 0.00270046)
(-0.00443229 -0.00664122 0.00242061)
(-0.0046491 -0.00682556 0.0026296)
(-0.00545481 -0.00854713 0.0030847)
(-0.00736962 -0.00972732 0.00287845)
(-0.00729152 -0.00981616 0.00278265)
(-0.00774179 -0.0105687 0.00290769)
(-0.00802488 -0.0105278 0.00302091)
(-0.00753713 -0.011095 0.00319138)
(-0.00734334 -0.00988214 0.00288929)
(-0.00695173 -0.00950175 0.00266732)
(-0.00713346 -0.00940691 0.00246062)
(-0.00729703 -0.0104216 0.00302275)
(-0.00680476 -0.00996908 0.00296983)
(-0.00716882 -0.00992287 0.00277007)
(-0.00728635 -0.00995442 0.00276018)
(-0.00962167 -0.0132364 0.00407923)
(-0.0089 -0.0122396 0.00395786)
(-0.00934327 -0.0120805 0.0041083)
(-0.00919711 -0.0120303 0.00387585)
(-0.00939691 -0.0124774 0.00429296)
(-0.0077551 -0.00968087 0.00271677)
(-0.00734065 -0.00961468 0.00288263)
(-0.00726125 -0.00962002 0.0028126)
(-0.00653826 -0.00874427 0.00255546)
(-0.00705092 -0.0086016 0.00222562)
(-0.00971026 -0.0125323 0.00430911)
(-0.00914099 -0.0112534 0.00390761)
(-0.00983341 -0.0124093 0.00441469)
(-0.00790373 -0.00938555 0.00292933)
(-0.00989205 -0.0118657 0.00380059)
(-0.00864976 -0.0105598 0.00321369)
(-0.00806863 -0.0100718 0.00297963)
(-0.00797174 -0.0100619 0.00330863)
(-0.00902359 -0.010652 0.00346184)
(-0.0102337 -0.0136932 0.00476907)
(-0.00921646 -0.0134955 0.0041769)
(-0.00899667 -0.0130853 0.00412819)
(-0.00903048 -0.0121847 0.00418204)
(-0.00920319 -0.0124972 0.004453)
(-0.00877015 -0.0125059 0.00420574)
(-0.00922572 -0.0124505 0.00415173)
(-0.00909015 -0.0123497 0.00440033)
(-0.00909231 -0.0128252 0.00412803)
(-0.00873049 -0.0121021 0.00405207)
(-0.00912129 -0.0124621 0.00417661)
(-0.00930317 -0.0126066 0.00431081)
(-0.00907956 -0.012922 0.00425868)
(-0.0099742 -0.013262 0.0051319)
(-0.00931443 -0.0128316 0.00466879)
(-0.00916869 -0.0130508 0.00448456)
(-0.00983493 -0.0133727 0.00494079)
(-0.00873019 -0.0122931 0.0042163)
(-0.00890455 -0.0129588 0.00468764)
(-0.00925243 -0.0134914 0.00501432)
(-0.00891718 -0.0128543 0.00479241)
(-0.00862992 -0.0123224 0.0045103)
(-0.00943997 -0.0133981 0.00482127)
(-0.00932877 -0.0132727 0.00541084)
(-0.00910402 -0.0136807 0.00407222)
(-0.00820188 -0.0130822 0.00479406)
(-0.0092625 -0.0143285 0.00476562)
(-0.00964362 -0.0144467 0.00496467)
(-0.00965473 -0.0137252 0.00424787)
(-0.0088409 -0.0131762 0.004695)
(-0.00931273 -0.0138031 0.00475044)
(-0.00931581 -0.0139122 0.00476308)
(-0.00953518 -0.0138946 0.0049544)
(-0.00865745 -0.0130391 0.00467135)
(-0.00909713 -0.013482 0.00475325)
(-0.00893321 -0.0135086 0.00466617)
(-0.00903774 -0.0134365 0.00443722)
(-0.00898898 -0.0134082 0.00458641)
(-0.0092283 -0.013541 0.0043737)
(-0.0089405 -0.0134258 0.00434208)
(-0.00855891 -0.0128443 0.00434395)
(-0.00914136 -0.0136742 0.00424419)
(-0.0101999 -0.0147007 0.00478283)
(-0.00946561 -0.0139491 0.00447499)
(-0.00908695 -0.0135985 0.00438203)
(-0.00976803 -0.0143311 0.00456132)
(-0.00967641 -0.013926 0.00454737)
(-0.00962528 -0.0141715 0.00449895)
(-0.00969471 -0.013151 0.00496693)
(-0.00946042 -0.0139005 0.0046112)
(-0.00954736 -0.0139684 0.00418543)
(-0.0112662 -0.0148334 0.00534533)
(-0.00965491 -0.0137797 0.00458423)
(-0.0100732 -0.0129294 0.00444846)
(-0.0101665 -0.0116489 0.00419641)
(-0.00953997 -0.0113819 0.0044448)
(-0.00997191 -0.0123234 0.00469457)
(-0.00953865 -0.0110365 0.0041456)
(-0.00980367 -0.0121944 0.00457088)
(-0.0106044 -0.0154064 0.00437402)
(-0.0100151 -0.0150404 0.00435877)
(-0.0094384 -0.0140083 0.00416984)
(-0.0108143 -0.0155613 0.00481775)
(-0.0101872 -0.0151126 0.00471424)
(-0.00985013 -0.014578 0.00423491)
(-0.0101106 -0.0135855 0.00496376)
(-0.0104071 -0.014453 0.00554701)
(-0.00938379 -0.0139639 0.00429257)
(-0.00970521 -0.0139611 0.00457141)
(-0.0101705 -0.0149464 0.00450434)
(-0.0103577 -0.0150323 0.005111)
(-0.00867928 -0.0127002 0.00462143)
(-0.00854459 -0.0121923 0.00440054)
(-0.00909566 -0.0127184 0.00457917)
(-0.00873636 -0.0124819 0.004435)
(-0.00920285 -0.0129017 0.00486086)
(-0.00913479 -0.0132755 0.0041979)
(-0.00914597 -0.0136419 0.00443912)
(-0.00856007 -0.0126516 0.00404442)
(-0.00873692 -0.0130224 0.00429446)
(-0.00847077 -0.0130078 0.00428238)
(-0.00851089 -0.0133246 0.00456605)
(-0.0088233 -0.013481 0.00439351)
(-0.008378 -0.0126415 0.00402046)
(-0.00937029 -0.0141586 0.00453902)
(-0.00968347 -0.0139318 0.00441125)
(-0.00951445 -0.0141918 0.00518363)
(-0.00854896 -0.0129316 0.00487497)
(-0.00816779 -0.0128308 0.0045963)
(-0.00905611 -0.0137321 0.0044481)
(-0.00935822 -0.0124653 0.00457542)
(-0.00920804 -0.0122804 0.0045101)
(-0.00929706 -0.0124825 0.00435913)
(-0.00926041 -0.01257 0.00442594)
(-0.00912984 -0.012817 0.0042813)
(-0.00862971 -0.0122162 0.00421469)
(-0.0164348 -0.0218336 0.00898224)
(-0.0148623 -0.0210761 0.00883129)
(-0.0105447 -0.015012 0.00535185)
(-0.0107505 -0.015723 0.0045621)
(-0.00988321 -0.0146989 0.00451535)
(-0.00990743 -0.0140671 0.00498521)
(-0.0104533 -0.0150195 0.00539053)
(-0.0114966 -0.0161658 0.00568621)
(-0.0111162 -0.0157787 0.00576635)
(-0.0105092 -0.0148113 0.00533366)
(-0.0109708 -0.0149153 0.00598802)
(-0.0110316 -0.0149516 0.00593484)
(-0.0111837 -0.0157622 0.00560692)
(-0.0118043 -0.0152114 0.00724893)
(-0.0122353 -0.0160702 0.00718439)
(-0.0126298 -0.0161521 0.00730649)
(-0.0133196 -0.0173602 0.0077757)
(-0.0128338 -0.0165435 0.00741353)
(-0.0130526 -0.0166742 0.00807756)
(-0.0107398 -0.0164037 0.00558076)
(-0.012348 -0.0189568 0.00699743)
(-0.0118657 -0.0178436 0.006416)
(-0.0113865 -0.0174636 0.00601882)
(-0.0110876 -0.0165974 0.00548059)
(-0.0129744 -0.0185717 0.00680587)
(-0.0135257 -0.0182957 0.00530069)
(-0.0140748 -0.0193589 0.00647678)
(-0.0153023 -0.0195062 0.00641057)
(-0.0148849 -0.0200696 0.00709202)
(-0.0136887 -0.0184129 0.00687525)
(-0.0115206 -0.0168884 0.00579494)
(-0.00983301 -0.0142614 0.00450922)
(-0.00981119 -0.0142643 0.00442823)
(-0.00941447 -0.0139264 0.00423414)
(-0.0092596 -0.0134335 0.00394928)
(-0.00883635 -0.0128698 0.00406158)
(-0.0102769 -0.0143221 0.00439239)
(-0.0102883 -0.014154 0.00344315)
(-0.00956458 -0.0140509 0.00405299)
(-0.009647 -0.0136601 0.00369615)
(-0.00945617 -0.0134543 0.00385616)
(-0.0102537 -0.0143726 0.00416088)
(-0.0100633 -0.0142975 0.0042495)
(-0.00968104 -0.0135501 0.00389464)
(-0.0085366 -0.0129234 0.00425102)
(-0.0085885 -0.0134956 0.00443699)
(-0.00845725 -0.0123535 0.00383137)
(-0.00955523 -0.0138091 0.00377028)
(-0.00863909 -0.0128213 0.00389101)
(-0.00879251 -0.0131377 0.00394704)
(-0.00916919 -0.0133059 0.00429718)
(-0.00953786 -0.013878 0.00351693)
(-0.00856811 -0.0125217 0.00389281)
(-0.00904576 -0.0131515 0.00356182)
(-0.0086354 -0.0135869 0.00407409)
(-0.0096575 -0.0146164 0.00462184)
(-0.0084881 -0.014289 0.00394382)
(-0.00931001 -0.0146499 0.00420106)
(-0.00906232 -0.0155913 0.00445608)
(-0.00859176 -0.0143742 0.00427456)
(-0.00843864 -0.0146135 0.00432719)
(-0.00921224 -0.0166154 0.00474376)
(-0.00968006 -0.016666 0.00474789)
(-0.0094933 -0.015747 0.00483096)
(-0.00911166 -0.0149178 0.00429861)
(-0.00932109 -0.0151892 0.00469096)
(-0.00934644 -0.0135617 0.00414149)
(-0.00895108 -0.0126612 0.00387832)
(-0.00950492 -0.0128276 0.00379014)
(-0.00865913 -0.0129267 0.00388038)
(-0.00868861 -0.012493 0.00395226)
(-0.00937932 -0.0136828 0.0042522)
(-0.00896392 -0.0129839 0.00411107)
(-0.00909427 -0.0136797 0.00415378)
(-0.00914361 -0.0130726 0.0040456)
(-0.00869545 -0.013418 0.00426328)
(-0.00865503 -0.0127124 0.00379488)
(-0.00909775 -0.0137296 0.00444802)
(-0.00838453 -0.0127555 0.00429318)
(-0.00873157 -0.013371 0.00466471)
(-0.00900779 -0.013413 0.00400004)
(-0.00979309 -0.0140248 0.00444716)
(-0.00893597 -0.0137249 0.00446127)
(-0.0087427 -0.0127076 0.00408655)
(-0.00894006 -0.0131032 0.00415028)
(-0.00843598 -0.012917 0.00418129)
(-0.00890981 -0.0133455 0.00424363)
(-0.00822576 -0.0122394 0.00374495)
(-0.00903547 -0.013082 0.00415228)
(-0.00855036 -0.0124634 0.00364595)
(-0.00884582 -0.0127158 0.00374673)
(-0.00901751 -0.0132574 0.00403661)
(-0.00909532 -0.0128515 0.00389707)
(-0.00880354 -0.0130761 0.00398077)
(-0.00873249 -0.0124864 0.00380746)
(-0.00883175 -0.0133779 0.00417876)
(-0.00918343 -0.0145117 0.00435831)
(-0.00869124 -0.0136397 0.00410289)
(-0.00899378 -0.01353 0.00417573)
(-0.00869025 -0.0133204 0.00409668)
(-0.00868665 -0.0130938 0.00411642)
(-0.00976126 -0.015392 0.00468682)
(-0.00949084 -0.0148784 0.00474037)
(-0.00943775 -0.0151458 0.00484399)
(-0.0106341 -0.0163621 0.00529048)
(-0.0107515 -0.0178007 0.00590237)
(-0.010348 -0.0158251 0.00518606)
(-0.00872989 -0.0133521 0.00420472)
(-0.00859503 -0.0129046 0.00404054)
(-0.00850225 -0.0133915 0.00418944)
(-0.00817815 -0.0128843 0.003966)
(-0.00866172 -0.0131995 0.00411931)
(-0.00863957 -0.0130405 0.00402506)
(-0.00734576 -0.0110641 0.00347988)
(-0.00722153 -0.0104301 0.00316037)
(-0.00716283 -0.0105147 0.00324369)
(-0.00761768 -0.011013 0.00321574)
(-0.00759918 -0.0108191 0.0028495)
(-0.0068195 -0.00973881 0.0027792)
(-0.00763751 -0.0112905 0.00346935)
(-0.00759327 -0.0108822 0.00304713)
(-0.00696387 -0.0100437 0.00324598)
(-0.00746764 -0.0108793 0.0032291)
(-0.0070522 -0.0103369 0.003195)
(-0.00785261 -0.0115575 0.00333796)
(-0.00749582 -0.01107 0.00331051)
(-0.0080007 -0.0113107 0.00299369)
(-0.00716391 -0.0101151 0.00276351)
(-0.00891691 -0.0130538 0.00430914)
(-0.00836791 -0.0122394 0.00413515)
(-0.00796786 -0.0117827 0.00386927)
(-0.00861798 -0.0129865 0.00413535)
(-0.0081773 -0.0120287 0.00393329)
(-0.00841931 -0.01202 0.00426409)
(-0.00848915 -0.0126254 0.00403619)
(-0.00895825 -0.0132243 0.00371176)
(-0.00802684 -0.0120684 0.00396222)
(-0.008804 -0.0131893 0.0033948)
(-0.00812993 -0.0120755 0.00391637)
(-0.00903857 -0.0137286 0.00448598)
(-0.00809304 -0.012175 0.00367727)
(-0.00882462 -0.0129973 0.00383056)
(-0.00794805 -0.011852 0.00419408)
(-0.00782085 -0.0113378 0.00381004)
(-0.00786348 -0.0113973 0.00403722)
(-0.00813831 -0.0117963 0.00411262)
(-0.0076989 -0.011506 0.00378516)
(-0.00886204 -0.0127971 0.00379258)
(-0.00895872 -0.013713 0.00390044)
(-0.00781814 -0.0112731 0.00373858)
(-0.00788072 -0.0119578 0.00396117)
(-0.00767126 -0.0112951 0.0034891)
(-0.007791 -0.0114189 0.00352672)
(-0.00849602 -0.012596 0.00401433)
(-0.00788137 -0.0117021 0.00352316)
(-0.00766117 -0.0114414 0.00347499)
(-0.00792013 -0.0120713 0.003856)
(-0.00710937 -0.0105103 0.00333079)
(-0.00713727 -0.0101023 0.00285858)
(-0.00702318 -0.0103902 0.00329789)
(-0.00728846 -0.0107229 0.00329041)
(-0.00736171 -0.0106549 0.00333349)
(-0.00755119 -0.0105371 0.00300594)
(-0.00923028 -0.0128869 0.00387126)
(-0.00851152 -0.0109321 0.00344301)
(-0.007837 -0.0115733 0.00370265)
(-0.00782789 -0.0112706 0.00368572)
(-0.00817303 -0.0125607 0.00401792)
(-0.00897421 -0.0117095 0.00365539)
(-0.0076455 -0.0109228 0.00334966)
(-0.00752508 -0.01034 0.00324398)
(-0.00779479 -0.0109839 0.00340119)
(-0.00764679 -0.0110123 0.00341012)
(-0.00820705 -0.0127076 0.00428808)
(-0.00868192 -0.0133711 0.00467681)
(-0.00848029 -0.0126436 0.00432308)
(-0.00868399 -0.012524 0.00431407)
(-0.0094568 -0.0129594 0.00477417)
(-0.00892117 -0.0124456 0.0043215)
(-0.00946357 -0.0139599 0.00447781)
(-0.0096093 -0.0143764 0.00453461)
(-0.00964818 -0.0135639 0.00444594)
(-0.00945785 -0.0142466 0.00450263)
(-0.00960956 -0.0138753 0.00445964)
(-0.00861303 -0.01309 0.00394606)
(-0.00862632 -0.0134577 0.00362498)
(-0.00906437 -0.0139608 0.00432437)
(-0.00905727 -0.01383 0.00401941)
(-0.00901326 -0.0142354 0.00401792)
(-0.00935361 -0.0138423 0.00436735)
(-0.00931309 -0.0145048 0.00408113)
(-0.00941853 -0.0142556 0.00399468)
(-0.00997486 -0.0148235 0.00476155)
(-0.0083158 -0.0121382 0.00389949)
(-0.00914278 -0.0139808 0.00411683)
(-0.00920425 -0.0134864 0.00448958)
(-0.00891827 -0.0129695 0.00438535)
(-0.00923556 -0.0133386 0.00434121)
(-0.0091311 -0.0138936 0.00424883)
(-0.00989696 -0.0142344 0.00464193)
(-0.00905492 -0.0139246 0.0039553)
(-0.00929292 -0.0145201 0.00425888)
(-0.00910892 -0.014748 0.00396731)
(-0.0105738 -0.0149616 0.00516242)
(-0.0094845 -0.0150731 0.00446187)
(-0.00917236 -0.0126259 0.00405445)
(-0.0102264 -0.0140435 0.00450183)
(-0.0092676 -0.0129608 0.00432267)
(-0.00906623 -0.0135251 0.00442526)
(-0.00914663 -0.0134141 0.00396297)
(-0.00901163 -0.0133953 0.00429185)
(-0.00913923 -0.0116646 0.00365551)
(-0.00944727 -0.0128979 0.00405506)
(-0.00893367 -0.0127723 0.00412376)
(-0.0097572 -0.0138844 0.00466517)
(-0.00831108 -0.0108896 0.00517139)
(-0.00741289 -0.00988912 0.00482561)
(-0.00794537 -0.0105344 0.00502992)
(-0.00753022 -0.00994793 0.004673)
(-0.00902141 -0.0149475 0.00367123)
(-0.0105352 -0.0174998 0.00459942)
(-0.00971937 -0.0146663 0.00432199)
(-0.0099626 -0.0155625 0.00447076)
(-0.00960367 -0.0165737 0.00398322)
(-0.0108026 -0.0163305 0.00448593)
(-0.00888792 -0.0130153 0.00406403)
(-0.00924075 -0.0130639 0.00381565)
(-0.0088087 -0.0128997 0.00411956)
(-0.00888918 -0.0118137 0.00360262)
(-0.00976269 -0.0131035 0.00428319)
(-0.00932366 -0.0129777 0.00384789)
(-0.00904483 -0.0124143 0.00479487)
(-0.00893666 -0.0127241 0.00428901)
(-0.010987 -0.0161274 0.00502467)
(-0.0107152 -0.0155182 0.00436698)
(-0.0110273 -0.0160577 0.00436065)
(-0.0111481 -0.0165408 0.00505228)
(-0.0103197 -0.015299 0.00432715)
(-0.00988647 -0.0147642 0.00445611)
(-0.00996158 -0.0147173 0.00448411)
(-0.0104335 -0.0155153 0.00412327)
(-0.00991801 -0.0146476 0.00417729)
(-0.0104549 -0.015488 0.0041897)
(-0.0104267 -0.0153067 0.00428373)
(-0.0100666 -0.0146203 0.00409807)
(-0.00997275 -0.0147599 0.0041254)
(-0.0108307 -0.0154753 0.00423124)
(-0.0104555 -0.0153923 0.00427718)
(-0.0106482 -0.0152738 0.00409251)
(-0.0104416 -0.0151748 0.00413286)
(-0.00952069 -0.0135471 0.0045822)
(-0.0093936 -0.0132586 0.00487993)
(-0.0099727 -0.0141071 0.00509575)
(-0.00899124 -0.0128347 0.00447378)
(-0.0091745 -0.0132905 0.00463379)
(-0.00953647 -0.0137437 0.00476965)
(-0.00955319 -0.0140296 0.00473253)
(-0.00906903 -0.0134283 0.00467578)
(-0.00901932 -0.0134793 0.00492992)
(-0.00895993 -0.0134787 0.00473851)
(-0.00920297 -0.0138103 0.00434573)
(-0.00868209 -0.0128986 0.00437871)
(-0.00946665 -0.013694 0.0045073)
(-0.00947993 -0.0134096 0.00501147)
(-0.0095956 -0.0137773 0.00470973)
(-0.00887831 -0.013091 0.00445783)
(-0.00913128 -0.0134576 0.00461565)
(-0.00916015 -0.0124085 0.00470713)
(-0.00921205 -0.0136237 0.00456305)
(-0.0102453 -0.0140163 0.00527573)
(-0.00869877 -0.0128263 0.00397808)
(-0.00977512 -0.0134664 0.00486302)
(-0.00952203 -0.0129353 0.00494174)
(-0.00698967 -0.00973343 0.00291153)
(-0.00735772 -0.010048 0.00292267)
(-0.00695732 -0.00940717 0.00261417)
(-0.00687033 -0.00947169 0.00265929)
(-0.00684012 -0.0096985 0.00282359)
(-0.0101616 -0.0167285 0.00455382)
(-0.0106013 -0.0168751 0.00500769)
(-0.0104153 -0.017696 0.00479235)
(-0.0102455 -0.0161904 0.00489967)
(-0.0106307 -0.0177156 0.0052686)
(-0.0108896 -0.0180794 0.00528208)
(-0.00729241 -0.0106144 0.00309277)
(-0.00772423 -0.0112745 0.00322297)
(-0.00759285 -0.0113566 0.00342529)
(-0.00836536 -0.0124823 0.00338173)
(-0.00851109 -0.0122987 0.00345883)
(-0.0110821 -0.0178103 0.00570801)
(-0.0129279 -0.0193285 0.00655617)
(-0.011902 -0.019752 0.00607115)
(-0.0124552 -0.0195587 0.00700522)
(-0.0129311 -0.0203689 0.00711724)
(-0.0137677 -0.0208525 0.00769723)
(-0.0135164 -0.0196381 0.0073507)
(-0.0126667 -0.0182615 0.00700367)
(-0.0151202 -0.0219857 0.00862447)
(-0.0133996 -0.0190998 0.00728645)
(-0.0135819 -0.0224532 0.00859041)
(-0.0122672 -0.0181908 0.00652084)
(-0.0127176 -0.0189099 0.00671868)
(-0.0098949 -0.0136687 0.0048065)
(-0.00970172 -0.0136505 0.00496419)
(-0.00910566 -0.0131007 0.00478143)
(-0.0086307 -0.0122305 0.00443864)
(-0.00887144 -0.0131849 0.00405853)
(-0.00900806 -0.0132997 0.00462936)
(-0.00884998 -0.0131537 0.00465307)
(-0.00969681 -0.0138134 0.00445432)
(-0.00968008 -0.0132017 0.00490909)
(-0.00964653 -0.0141218 0.00478439)
(-0.00976486 -0.0140585 0.00491922)
(-0.00956988 -0.0140056 0.0045612)
(-0.00975398 -0.0142556 0.00457093)
(-0.00940268 -0.0139632 0.00458793)
(-0.00961712 -0.0140739 0.00457597)
(-0.00939754 -0.0139307 0.00445985)
(-0.0126922 -0.0175572 0.0051753)
(-0.0137554 -0.0188268 0.00633289)
(-0.00983257 -0.0143698 0.00409524)
(-0.00916643 -0.0134348 0.00431245)
(-0.00923904 -0.0131821 0.00411973)
(-0.00897654 -0.0135948 0.00434882)
(-0.00915783 -0.0130384 0.00418758)
(-0.0090923 -0.0123074 0.00477005)
(-0.00937826 -0.0123728 0.00577357)
(-0.00940429 -0.013433 0.00451653)
(-0.00846302 -0.0114875 0.00341294)
(-0.00902077 -0.0124195 0.00362843)
(-0.00894925 -0.0118244 0.00393827)
(-0.00905705 -0.0139066 0.0045598)
(-0.00930423 -0.0127184 0.004043)
(-0.00876859 -0.0132081 0.00431984)
(-0.00943799 -0.0123392 0.00419589)
(-0.00860039 -0.0120078 0.00375951)
(-0.00903348 -0.0139652 0.00390684)
(-0.00816713 -0.0120656 0.00361474)
(-0.00807388 -0.0119446 0.00356616)
(-0.00901694 -0.0129806 0.00429825)
(-0.00959841 -0.0133625 0.00469111)
(-0.00905471 -0.0135245 0.00418136)
(-0.00898564 -0.0129946 0.00414499)
(-0.00939239 -0.0129626 0.00455519)
(-0.00969669 -0.0135611 0.00467537)
(-0.00962678 -0.0139857 0.00456066)
(-0.00958748 -0.0141998 0.00487651)
(-0.00875786 -0.0132458 0.00399202)
(-0.0090372 -0.0140376 0.00422363)
(-0.00831489 -0.0122818 0.00410631)
(-0.00892027 -0.0126065 0.00464535)
(-0.00968792 -0.0132988 0.00512113)
(-0.00885112 -0.0131593 0.00384933)
(-0.00876111 -0.0130311 0.00376967)
(-0.00867858 -0.0128067 0.00381235)
(-0.0085834 -0.0123722 0.00373698)
(-0.00903532 -0.0131467 0.00370577)
(-0.00844651 -0.0124478 0.0036117)
(-0.00808455 -0.0121213 0.0038279)
(-0.00848469 -0.012669 0.00395387)
(-0.00892139 -0.013449 0.00413991)
(-0.00911031 -0.0136529 0.00423069)
(-0.00923472 -0.0134537 0.00421191)
(-0.00948896 -0.0140297 0.00420183)
(-0.00866917 -0.0124168 0.00398978)
(-0.00949963 -0.013252 0.0044081)
(-0.00947008 -0.013119 0.00429653)
(-0.00857265 -0.0123393 0.00405994)
(-0.00904179 -0.0130159 0.00440773)
(-0.00895909 -0.0124636 0.00431603)
(-0.00909096 -0.0129423 0.00444719)
(-0.00885654 -0.0124254 0.00432172)
(-0.00879241 -0.0125654 0.00424581)
(-0.00893052 -0.013259 0.00432085)
(-0.00894203 -0.0129618 0.00446644)
(-0.0089152 -0.012821 0.00426265)
(-0.00865521 -0.0125636 0.00423591)
(-0.00885042 -0.0123842 0.00455366)
(-0.00871963 -0.013095 0.00447775)
(-0.00906723 -0.0135246 0.00504828)
(-0.00885261 -0.0134193 0.00473976)
(-0.00846206 -0.0126888 0.00443447)
(-0.00870677 -0.0121175 0.00396431)
(-0.00789812 -0.0109372 0.00335221)
(-0.00759599 -0.0107063 0.0034162)
(-0.00724729 -0.0110748 0.00348788)
(-0.00850278 -0.010717 0.00410813)
(-0.00969357 -0.0117924 0.00437318)
(-0.00869049 -0.0132744 0.00369595)
(-0.00894176 -0.0132108 0.00394504)
(-0.00828251 -0.0122673 0.00389898)
(-0.00860857 -0.0130785 0.00397966)
(-0.00732387 -0.0106172 0.00291859)
(-0.00731704 -0.0106459 0.00328664)
(-0.0075062 -0.0109162 0.003215)
(-0.00884065 -0.0133328 0.0039949)
(-0.00910627 -0.0134632 0.00407249)
(-0.00983289 -0.0138753 0.00431291)
(-0.00906338 -0.0131576 0.00414748)
(-0.00988873 -0.0142809 0.00460094)
(-0.0100295 -0.0141087 0.00485112)
(-0.00905496 -0.0126606 0.00414784)
(-0.00805564 -0.0120122 0.00351618)
(-0.00836553 -0.012856 0.00402219)
(-0.00859969 -0.0126094 0.00375318)
(-0.00849105 -0.0129799 0.00384598)
(-0.00946468 -0.0136304 0.00433)
(-0.0100079 -0.0141829 0.00427002)
(-0.0111921 -0.0139757 0.00507442)
(-0.00916667 -0.0131272 0.00438719)
(-0.00965997 -0.0129612 0.0044322)
(-0.00939969 -0.0126136 0.00434626)
(-0.00871999 -0.012524 0.00395236)
(-0.00989527 -0.0129665 0.00451112)
(-0.00947611 -0.0127066 0.0043677)
(-0.00917436 -0.0129582 0.0045507)
(-0.00912117 -0.01265 0.0044733)
(-0.00975479 -0.0136803 0.0047994)
(-0.00904197 -0.0126048 0.00437962)
(-0.00914941 -0.0136039 0.00435407)
(-0.00871318 -0.0127883 0.00399259)
(-0.00922096 -0.0129634 0.00429754)
(-0.00883969 -0.0128081 0.00415565)
(-0.00980356 -0.0131777 0.00457982)
(-0.00915282 -0.0126425 0.00432648)
(-0.0076348 -0.0111723 0.00324814)
(-0.00730316 -0.011079 0.00350477)
(-0.00740709 -0.0102178 0.00319478)
(-0.00676126 -0.0101305 0.00308988)
(-0.00736937 -0.0109163 0.00329342)
(-0.00683216 -0.00998733 0.00309185)
(-0.00898393 -0.0141699 0.00434095)
(-0.00883525 -0.0142105 0.00455712)
(-0.0112691 -0.0183289 0.00635334)
(-0.0119337 -0.0182291 0.00640691)
(-0.00946723 -0.0146759 0.00456693)
(-0.00988928 -0.0153888 0.00508609)
(-0.00940914 -0.0128904 0.00358643)
(-0.0100609 -0.0131057 0.00400049)
(-0.009638 -0.0143739 0.00463152)
(-0.0101461 -0.015357 0.00507365)
(-0.00943975 -0.0146409 0.00477919)
(-0.00893266 -0.0136764 0.00393758)
(-0.0102461 -0.0149128 0.00448272)
(-0.00882171 -0.0139186 0.00435602)
(-0.00827536 -0.0137797 0.00417279)
(-0.00855403 -0.0140464 0.0043769)
(-0.00892917 -0.0137544 0.0042823)
(-0.00866605 -0.0143596 0.00456083)
(-0.00970684 -0.014313 0.0045509)
(-0.00934917 -0.0135025 0.0038153)
(-0.00925655 -0.0130463 0.00393885)
(-0.00890821 -0.0133847 0.0040721)
(-0.00955533 -0.0144007 0.00474918)
(-0.00955726 -0.0144803 0.00471937)
(-0.00882416 -0.0133974 0.00425558)
(-0.00921477 -0.0135798 0.00445776)
(-0.0103351 -0.0147695 0.00445846)
(-0.0087689 -0.0125769 0.00363413)
(-0.00920739 -0.0126549 0.00376776)
(-0.00886734 -0.0141527 0.00445615)
(-0.00936517 -0.0126865 0.00371027)
(-0.00886203 -0.0122703 0.00343494)
(-0.00860932 -0.0126826 0.00390276)
(-0.00911544 -0.0126833 0.00366439)
(-0.00868144 -0.0128787 0.00410889)
(-0.00905576 -0.0133208 0.00406406)
(-0.00871777 -0.0136219 0.0044352)
(-0.00894089 -0.01351 0.00441917)
(-0.00908034 -0.0132099 0.0038611)
(-0.00905966 -0.0142608 0.00495096)