/*--------------------------------*- C++ -*----------------------------------*\
| =========                 |                                                 |
| \\      /  F ield         | OpenFOAM: The Open Source CFD Toolbox           |
|  \\    /   O peration     | Version:  v1612+                                |
|   \\  /    A nd           | Web:      www.OpenFOAM.com                      |
|    \\/     M anipulation  |                                                 |
\*---------------------------------------------------------------------------*/
FoamFile
{
    version     2.0;
    format      ascii;
    class       surfaceScalarField;
    location    "118";
    object      phi;
}
// * * * * * * * * * * * * * * * * * * * * * * * * * * * * * * * * * * * * * //

dimensions      [0 3 -1 0 0 0 0];

internalField   nonuniform List<scalar> 
46288
(
-1.70624e-09
-2.94899e-09
3.16893e-09
1.48626e-09
1.1895e-09
8.16902e-10
-2.02968e-09
2.32739e-11
-3.62308e-09
-3.98727e-09
3.89533e-10
7.22082e-09
-1.21242e-09
2.97298e-09
-1.61914e-09
-1.41453e-10
4.47355e-09
4.2938e-09
-3.12155e-09
-5.64582e-09
-9.30576e-09
-1.33588e-09
4.1417e-09
6.49994e-09
4.42612e-09
4.22145e-09
-4.46841e-09
-4.17916e-09
4.82313e-09
-1.28467e-08
1.66415e-08
-8.61794e-09
-3.77497e-09
8.55747e-09
-4.04215e-09
-7.40386e-10
1.79565e-09
1.54926e-09
-7.54924e-09
4.20453e-09
2.92648e-09
-2.28163e-09
-2.99555e-09
2.35069e-09
4.53173e-10
-2.87343e-09
2.4795e-09
-5.92156e-11
1.29248e-09
-6.60176e-10
-1.83611e-09
1.20394e-09
3.07168e-09
-5.31024e-09
-5.88075e-09
8.11924e-09
3.14379e-09
8.97112e-10
-4.72167e-09
6.80746e-10
3.10808e-09
-8.26807e-09
7.46329e-09
-2.30331e-09
4.129e-09
-5.86661e-09
7.43938e-10
9.93587e-10
-1.03876e-09
3.35549e-09
-2.56276e-09
2.46009e-10
-1.73859e-09
-2.07788e-09
2.63791e-09
1.1786e-09
3.77751e-09
3.16907e-10
-9.3639e-10
-3.15802e-09
5.07831e-09
-4.79301e-09
-1.99448e-10
-8.58479e-11
3.96769e-09
-4.14935e-09
-2.7961e-11
2.09616e-10
8.51501e-10
-8.03584e-10
-5.51058e-09
5.46262e-09
-3.23904e-09
-3.47908e-09
6.52155e-09
1.96505e-10
6.39474e-09
1.2235e-09
-3.89896e-09
-3.71928e-09
2.22588e-09
-6.66054e-09
2.24761e-09
2.18704e-09
-6.40273e-09
2.90112e-09
1.79535e-09
-5.75572e-09
5.24926e-09
4.71704e-09
-4.21059e-09
6.75286e-09
5.62475e-09
-7.83956e-09
-4.53803e-09
-2.67144e-09
4.39566e-09
-1.79775e-09
7.35045e-11
-1.84885e-09
1.07912e-09
8.61844e-10
-9.21778e-11
9.23828e-10
-3.28234e-09
-2.95572e-09
5.31423e-09
3.69788e-09
-4.1668e-09
5.256e-10
-5.6688e-11
1.15564e-09
-6.6822e-09
-1.21934e-09
6.74591e-09
-5.50015e-09
-1.69894e-09
8.68982e-09
-1.49074e-09
-2.5526e-09
8.04866e-09
-4.07664e-09
-1.41942e-09
-2.54047e-09
6.43204e-09
-7.38609e-09
3.49451e-09
-3.76813e-09
1.16527e-09
3.47865e-10
2.25499e-09
-9.84047e-09
1.06666e-08
4.6702e-09
-5.49629e-09
7.4578e-09
-1.43675e-10
-7.38055e-09
6.64182e-11
-6.34114e-09
4.33269e-09
-3.75775e-09
-3.83908e-09
-7.26823e-09
4.93907e-09
6.16827e-09
-6.94959e-09
2.5171e-09
4.68473e-09
-2.52256e-10
8.70706e-09
2.78879e-09
-9.51282e-09
-1.98309e-09
2.96231e-09
-2.88558e-09
7.56952e-12
-8.43018e-11
1.99204e-09
4.67616e-09
-2.14421e-09
-4.52399e-09
-7.71973e-09
8.5709e-09
-1.7867e-09
9.35507e-10
1.69953e-08
6.45915e-09
-1.12124e-08
-1.22421e-08
-3.95742e-10
1.97103e-10
-2.78968e-09
2.98805e-09
6.22386e-09
-2.87139e-09
9.09566e-09
-1.24481e-08
-2.40354e-09
4.66463e-09
-3.92641e-09
1.66535e-09
-9.07077e-09
6.6201e-09
4.71644e-11
-5.81499e-09
-3.26208e-09
2.38443e-09
6.69264e-09
-1.3039e-09
2.67522e-09
2.38199e-09
-3.75333e-09
1.22386e-09
2.91593e-09
-3.75159e-09
-3.883e-10
4.69715e-09
-3.77734e-09
-4.68794e-09
3.74522e-09
2.7386e-09
-5.31854e-09
1.65179e-09
-4.50504e-09
7.5504e-09
-5.39639e-09
3.75211e-09
4.00533e-11
1.60429e-09
4.41846e-09
-6.62231e-09
4.06718e-09
-1.86325e-09
4.78607e-10
-2.81939e-09
3.9199e-09
-1.57912e-09
-3.44158e-09
3.88712e-09
-5.94582e-10
1.49045e-10
-6.40012e-09
-5.97974e-09
4.45278e-09
3.64561e-09
1.12756e-09
1.58901e-09
-6.36218e-09
1.87778e-09
-6.72463e-09
3.8498e-09
9.97123e-10
-9.84961e-09
7.2607e-09
-1.33794e-11
2.60232e-09
3.2132e-10
-3.42268e-09
3.24192e-09
-1.40705e-10
-1.7012e-09
3.30124e-10
1.42219e-09
-5.11269e-11
-2.76522e-09
5.92073e-09
-4.30918e-09
1.15362e-09
3.68448e-09
-8.31888e-10
-3.05354e-09
2.0094e-10
-7.57368e-09
4.21362e-09
6.40207e-11
3.29604e-09
-2.63235e-10
-1.76508e-09
2.15182e-09
-1.23505e-10
-6.82364e-09
3.68625e-09
3.52206e-09
-3.847e-10
-1.06627e-08
1.14917e-08
3.02626e-09
-3.85529e-09
8.11751e-09
-1.06671e-08
7.52877e-09
-4.97923e-09
4.75705e-09
-1.28049e-09
-5.06679e-09
1.59018e-09
1.07398e-09
1.09681e-09
-4.43231e-09
1.90341e-09
-3.70578e-09
-5.85577e-09
4.37287e-09
3.02408e-09
-5.65011e-09
-1.74682e-09
1.93184e-09
-2.98353e-09
9.31536e-10
1.20163e-10
4.04304e-09
-3.63786e-10
-1.92875e-09
-1.75053e-09
3.84808e-09
6.61905e-10
5.06601e-09
-9.57601e-09
4.32945e-09
-4.23589e-10
-3.90462e-09
-1.24962e-12
1.69607e-10
-4.53888e-09
4.31295e-09
5.6316e-11
3.95194e-09
-6.69128e-10
-4.55099e-09
1.26816e-09
6.22145e-09
3.52403e-09
-1.03843e-09
9.81321e-11
1.61263e-08
-1.0003e-08
-2.77619e-09
1.30057e-09
1.51406e-09
-3.85499e-11
-1.38857e-09
-4.16204e-10
1.75496e-09
4.98072e-11
-6.44477e-09
9.77267e-09
-4.21229e-09
8.8436e-10
-4.74663e-09
-6.3538e-09
1.34174e-08
-2.31695e-09
-7.37563e-09
-1.12714e-09
6.92528e-09
1.57746e-09
7.42196e-09
-5.19806e-09
-4.53116e-09
2.30726e-09
5.4993e-09
2.49876e-11
-5.35263e-09
-1.7167e-10
-9.96144e-09
5.956e-09
1.00045e-08
-5.99911e-09
4.59465e-09
2.99391e-09
-2.08928e-09
-8.3256e-09
8.78783e-09
-6.40401e-10
1.78145e-10
9.11117e-11
3.10812e-09
-3.02118e-09
-1.78018e-10
-4.85359e-09
-3.02344e-09
5.35575e-09
2.52128e-09
-6.36672e-10
5.22967e-09
-2.74476e-09
-1.8482e-09
7.32111e-09
3.24867e-10
-1.82897e-10
-7.46311e-09
-2.29389e-09
5.93207e-11
-4.8676e-09
7.10217e-09
-2.30256e-09
-6.90093e-09
6.90959e-09
4.8888e-09
-3.46332e-09
-6.3383e-09
4.91281e-09
-1.5272e-09
-1.03041e-08
1.03947e-08
1.4366e-09
9.79109e-10
-2.88483e-09
-1.64566e-09
3.55143e-09
-2.43047e-10
-5.26445e-09
-3.82608e-09
9.33357e-09
1.16404e-08
-1.9807e-09
-7.73492e-09
-1.92477e-09
-1.3525e-09
-2.65934e-09
8.99453e-10
3.11241e-09
3.79057e-09
2.73214e-09
-5.91502e-09
-6.07694e-10
4.71368e-09
-7.02806e-09
2.49298e-09
-1.78602e-10
2.13808e-09
2.06237e-09
-5.223e-09
1.0225e-09
-1.95858e-09
2.02956e-09
4.23991e-09
-4.31092e-09
9.58487e-10
-8.4417e-09
7.39149e-09
9.17152e-11
2.59108e-09
-9.36204e-09
7.38006e-09
-6.0911e-10
-3.38106e-09
-3.94364e-09
2.50887e-09
4.8158e-09
-3.23924e-09
3.96598e-10
2.26898e-10
2.61574e-09
6.14937e-09
4.41571e-09
-6.62525e-09
-3.93984e-09
-4.78691e-10
5.43008e-09
-4.9193e-09
-3.2079e-11
3.225e-09
6.47119e-10
-2.49623e-09
-1.37588e-09
-2.19756e-09
-7.76559e-09
7.67839e-09
2.28469e-09
-2.55511e-09
-3.51344e-09
2.4322e-09
3.63635e-09
4.3095e-09
1.62997e-10
-5.10423e-09
6.31733e-10
2.48352e-09
-4.42084e-10
-8.96341e-10
-1.14502e-09
6.63938e-09
-1.84373e-09
-4.89844e-09
1.02789e-10
-4.52234e-09
-1.08331e-09
1.76659e-09
2.32819e-09
-6.13503e-09
3.90415e-09
-9.73098e-11
-4.1826e-09
6.45608e-09
5.47135e-11
-9.41513e-09
-2.03571e-09
2.16299e-10
-1.04697e-09
9.19572e-10
-8.88526e-11
-3.99769e-09
4.81479e-09
3.43725e-11
7.78289e-09
1.2941e-09
-5.12508e-09
2.67414e-09
-1.23355e-09
2.54456e-09
-3.98517e-09
5.17344e-09
1.38707e-09
-6.43181e-09
-1.28745e-10
-3.43931e-09
4.39624e-09
2.72755e-09
-3.14923e-09
2.19838e-09
1.18933e-10
2.48274e-09
2.41047e-09
-1.04701e-09
-3.84651e-09
2.63497e-09
-2.80609e-09
-2.97816e-09
1.80259e-09
3.14655e-09
-5.48787e-09
5.38703e-10
6.14265e-09
4.22861e-09
-5.70828e-09
-4.66298e-09
3.76197e-09
5.73752e-09
-2.1359e-09
-7.36359e-09
-4.51084e-09
-4.4226e-09
8.69386e-09
2.39555e-10
-3.53065e-09
1.07868e-09
-1.45912e-09
3.9111e-09
-8.9189e-10
-2.97672e-09
1.26576e-09
2.6029e-09
3.32619e-09
-2.1105e-10
-7.24483e-09
4.12966e-09
2.84575e-09
-5.79661e-09
1.79581e-09
1.15505e-09
5.62387e-09
-7.5771e-09
-3.69397e-10
2.3226e-09
-2.23835e-09
2.88189e-09
1.36085e-09
-2.00443e-09
-3.16578e-09
-7.23583e-10
-1.69055e-09
5.5799e-09
-4.04201e-09
2.8513e-09
-1.97507e-09
7.81978e-10
-6.92303e-09
1.41603e-09
4.72501e-09
6.41288e-10
-6.36706e-09
9.139e-09
-3.41323e-09
-3.49522e-09
-2.08822e-09
-3.38091e-09
8.96435e-09
3.3437e-09
-1.1039e-09
-1.4528e-09
-7.87025e-10
-1.36739e-09
1.83706e-09
-3.57295e-09
3.10328e-09
2.0356e-09
-3.01884e-09
-2.512e-09
3.55931e-09
-4.83e-09
-2.41116e-09
3.68186e-09
7.99703e-10
1.97844e-09
7.84301e-10
-3.56244e-09
-6.22816e-10
-2.80753e-09
3.77986e-09
-3.4952e-10
1.66375e-09
5.27405e-09
-6.36022e-10
-6.3018e-09
7.24082e-09
-1.05062e-08
2.19585e-09
1.06956e-09
-3.21473e-09
2.62138e-09
-7.5432e-09
8.13654e-09
5.14488e-10
-4.86346e-09
5.30745e-09
5.07019e-09
-4.71909e-09
-1.38985e-10
-2.12096e-10
3.86006e-09
-2.3557e-09
-4.47588e-09
2.97156e-09
1.82491e-09
-2.33567e-09
4.37082e-09
-7.35502e-09
6.74493e-09
-3.67821e-09
4.28831e-09
-4.87712e-09
-5.8432e-09
4.30206e-09
6.41823e-09
2.82837e-09
-2.45177e-09
1.21752e-09
-1.59417e-09
-2.3336e-09
-2.81459e-10
-1.99865e-09
4.61372e-09
-9.54734e-10
2.15014e-09
3.58327e-09
-4.77867e-09
-2.55635e-09
8.18243e-10
8.16946e-10
9.21152e-10
-1.96172e-09
-4.77149e-09
7.52018e-09
-7.87001e-10
3.44791e-09
-1.34119e-10
-5.80586e-09
2.49204e-09
-1.49526e-09
6.61296e-09
1.05297e-08
-6.98106e-09
-1.00248e-08
6.47603e-09
-1.23637e-09
-3.67417e-09
2.54997e-09
9.15385e-10
-9.84705e-09
1.06455e-08
-1.71387e-09
-9.30046e-09
-2.8518e-09
3.54966e-09
8.60257e-09
-4.05033e-09
4.99566e-09
-2.99414e-11
-1.44832e-09
-2.69303e-09
4.04116e-09
1.00173e-10
4.92485e-10
4.26363e-09
-4.76509e-09
8.97641e-12
6.40337e-09
1.83389e-09
-6.60218e-09
-1.6351e-09
9.20887e-09
-5.51755e-09
-3.18351e-09
-5.07786e-10
-2.11451e-10
3.5227e-09
-3.27352e-09
-3.77355e-11
2.8286e-09
3.11016e-09
-2.99499e-09
-2.94377e-09
-7.9409e-10
-3.33935e-09
4.1837e-09
-5.02495e-11
3.91414e-09
6.02553e-10
-7.84518e-09
3.32846e-09
-2.50839e-10
-8.09024e-10
-2.85224e-09
3.9121e-09
5.5301e-09
-1.17844e-09
-4.6025e-09
-9.82048e-10
4.2192e-09
-2.74498e-09
-4.92175e-10
2.86585e-09
-2.55447e-09
-3.7638e-10
6.49867e-11
3.52468e-09
-6.2833e-09
-4.31834e-09
7.07695e-09
3.95564e-09
-4.04211e-09
1.37223e-10
-5.07484e-11
-6.34717e-09
1.0804e-08
-4.69982e-09
7.27313e-09
-4.73e-09
-7.85496e-09
5.31181e-09
-1.18855e-08
1.22894e-08
7.43025e-09
-7.83415e-09
8.53624e-09
-2.00673e-09
-4.89772e-09
-1.63181e-09
9.65147e-10
3.76278e-10
-1.29396e-09
-4.73858e-11
-8.52891e-10
-2.80487e-09
1.80608e-09
1.85168e-09
1.17881e-09
-2.59868e-09
-7.81437e-10
2.2013e-09
-5.15684e-09
-1.6279e-09
4.76317e-09
2.02158e-09
-4.51887e-09
-1.47209e-09
8.34118e-10
2.15724e-09
-1.36499e-09
-5.03501e-09
4.24277e-09
3.56069e-10
-3.01509e-11
6.17379e-09
-2.36211e-09
-4.05601e-09
2.44323e-10
4.69323e-11
2.83345e-09
2.25781e-09
-6.30944e-09
3.07204e-09
9.19965e-09
-5.96229e-09
4.82504e-09
3.41223e-09
-7.74688e-09
-4.90374e-10
-2.77826e-09
8.5852e-09
-6.07005e-09
2.63134e-10
-9.28519e-09
-7.67686e-09
2.0684e-09
1.48937e-08
-2.99772e-10
4.56626e-09
-2.54998e-09
-1.71651e-09
5.60266e-10
-4.5099e-09
-1.38504e-09
5.33466e-09
-2.84627e-09
-2.80007e-09
7.00854e-09
-1.36222e-09
6.26443e-10
-6.01319e-09
-3.229e-09
2.67551e-09
-9.54576e-10
1.50808e-09
3.83825e-09
-5.69744e-09
2.01552e-09
-1.56337e-10
7.70228e-09
-4.6667e-09
-3.31208e-09
2.76485e-10
-6.9604e-10
-1.83357e-09
2.23226e-09
2.97309e-10
3.20098e-09
9.39989e-10
-5.82575e-09
1.68476e-09
-5.21845e-09
-4.31285e-09
2.25526e-10
3.99382e-09
-4.43834e-09
4.87683e-11
-3.63919e-09
-1.66792e-09
5.28256e-09
2.45148e-11
9.04224e-09
-1.1493e-08
-3.16396e-09
5.61474e-09
4.21188e-09
-1.36381e-09
2.09631e-09
-4.94436e-09
-7.79483e-10
4.7525e-09
2.38964e-10
3.56037e-09
4.66365e-09
-6.25672e-09
-1.9673e-09
7.19425e-09
-5.09199e-09
1.42175e-09
9.4454e-09
-3.40565e-09
-6.09783e-09
5.80707e-11
1.09578e-09
-2.06604e-09
-2.81733e-09
3.78758e-09
-4.85793e-09
7.95839e-09
-1.17679e-08
8.66741e-09
-3.63023e-09
-2.93904e-10
-4.49079e-10
4.3732e-09
3.86203e-09
-6.71185e-09
3.0264e-09
-1.76586e-10
5.14262e-09
3.02515e-09
-4.52216e-09
5.11061e-09
-8.39999e-11
-1.88281e-09
-1.08493e-12
2.92934e-09
-2.88447e-09
-4.38055e-11
1.27797e-10
1.65371e-09
-1.588e-09
-1.93506e-10
-3.64356e-09
6.28809e-09
-3.67271e-09
1.0282e-09
-1.22086e-10
3.14294e-10
8.93597e-09
-9.12818e-09
-3.14735e-09
-1.99426e-10
3.31645e-09
3.03273e-11
1.70004e-09
-6.70522e-09
3.4239e-09
1.58127e-09
2.38768e-10
5.69846e-09
-5.97349e-09
3.62626e-11
6.64392e-10
-2.03428e-09
1.48969e-09
-1.19701e-10
-3.71308e-09
7.51743e-09
-4.00746e-09
2.03101e-10
-3.99017e-09
-1.97165e-09
6.49951e-09
-5.37691e-10
3.48669e-09
-5.33655e-09
2.14041e-09
-2.90575e-10
8.94268e-10
2.94377e-09
-1.05253e-08
6.68725e-09
-2.10663e-09
4.13665e-09
-7.19962e-10
-1.31006e-09
1.23054e-09
6.37463e-10
-1.3266e-09
-5.41395e-10
-2.12431e-09
2.83252e-09
-2.81482e-09
-3.43201e-09
2.2293e-09
1.36209e-09
-1.59372e-10
-4.31101e-09
5.37093e-09
-3.44414e-09
2.38422e-09
2.45544e-09
3.42168e-09
-5.70466e-09
-1.72456e-10
-5.02773e-09
2.54481e-09
-1.82809e-09
-8.97047e-10
1.93669e-11
5.25053e-09
2.31133e-09
-2.64223e-09
2.55436e-10
7.54148e-11
3.62239e-09
2.8037e-10
-4.06748e-09
1.64657e-10
-1.40656e-09
-4.19803e-10
5.00001e-09
-3.17362e-09
5.81402e-09
-3.03288e-09
-1.90071e-10
-2.39738e-09
6.81714e-10
-5.46478e-09
7.18043e-09
-5.02948e-09
1.73683e-09
4.71028e-09
-1.41765e-09
2.24107e-09
-5.82604e-09
6.29937e-09
-2.71439e-09
3.11123e-09
4.19702e-09
-3.21167e-09
-4.09658e-09
-1.23264e-09
2.28467e-09
-3.62895e-09
2.57691e-09
-8.67133e-10
-2.6459e-09
-1.76186e-11
3.65315e-09
1.63014e-09
-3.83781e-09
-1.44547e-09
5.69544e-09
3.80514e-09
-7.76314e-09
-1.73746e-09
-2.29228e-09
5.17071e-10
1.91568e-09
-1.40471e-10
-4.36581e-10
-1.9204e-09
6.47009e-11
5.61842e-09
-1.19828e-09
-7.66979e-10
2.0295e-09
7.42467e-09
-3.75874e-09
-2.4508e-09
3.08027e-09
-6.25305e-10
-4.11631e-12
-3.5466e-09
9.45102e-09
2.12464e-09
-8.02908e-09
-4.16326e-09
4.74105e-09
1.74331e-09
-2.32107e-09
-3.18887e-09
9.34593e-12
-9.83716e-10
6.67945e-09
3.49027e-09
-3.37392e-10
-9.83237e-09
-4.3667e-09
4.49375e-09
-1.90204e-10
6.31393e-11
-2.43208e-09
1.6432e-09
5.31602e-09
-4.52716e-09
-3.9639e-10
4.99082e-09
-4.46664e-09
7.73376e-09
-2.5953e-10
-5.58193e-09
-1.8923e-09
5.64537e-09
-5.46761e-09
7.55599e-09
-1.84835e-09
9.09616e-11
-1.68421e-09
-5.8823e-09
5.89866e-09
1.13934e-09
1.36323e-09
-9.53693e-09
1.49151e-09
-8.67731e-09
-7.30582e-09
9.50604e-09
6.47709e-09
-4.75671e-09
6.4805e-09
-1.74636e-09
2.25707e-11
1.23125e-09
-9.41819e-09
2.69606e-09
5.49088e-09
-7.68673e-09
4.24171e-09
-5.03458e-09
8.47962e-09
-3.78967e-09
3.90468e-09
2.11394e-10
-3.26425e-10
4.53692e-09
1.23613e-09
-2.865e-09
-2.90805e-09
-2.38775e-09
-3.2733e-10
2.6771e-09
3.79841e-11
-4.65576e-09
2.95376e-09
6.78031e-09
1.50645e-09
-6.2838e-09
4.81763e-09
-4.02653e-11
2.68491e-09
-1.38336e-10
-3.84059e-09
2.83737e-09
1.15562e-09
-1.52421e-10
5.51311e-09
1.72978e-10
-3.17088e-09
-1.84329e-09
7.36791e-10
4.27738e-09
-1.98563e-09
1.15988e-08
-6.32799e-09
-3.28513e-09
5.31754e-09
-2.15527e-10
-3.18163e-11
3.96883e-09
2.41412e-09
-6.09552e-09
-2.87443e-10
-2.56801e-09
-1.25655e-09
3.98031e-09
-1.55745e-10
3.56565e-09
-6.48395e-09
-3.41328e-09
6.33156e-09
5.80075e-09
-4.05922e-09
-5.82021e-09
4.07869e-09
-3.60401e-09
7.36962e-10
-2.89715e-09
5.76417e-09
-4.44611e-09
1.17117e-09
3.33625e-09
-6.13507e-11
-3.23465e-09
1.60068e-09
1.64951e-09
-1.5295e-11
2.66148e-09
-2.0374e-09
1.7276e-09
-2.3517e-09
-8.24577e-09
2.3713e-09
5.99797e-09
-1.23497e-10
-1.99588e-09
3.06948e-09
-1.11156e-09
3.78831e-11
2.44656e-09
-9.21348e-10
-5.6946e-10
-9.55881e-10
2.66809e-09
3.63334e-09
-2.78818e-09
-3.51319e-09
-3.95889e-09
1.16945e-08
-7.92076e-09
1.85076e-10
6.19757e-10
-1.8322e-09
-2.39414e-11
2.30421e-09
-1.82042e-09
-1.64479e-09
1.16101e-09
-3.56486e-09
4.72283e-09
1.34516e-10
1.68923e-09
-3.37251e-09
1.78001e-09
-9.67378e-11
6.25022e-10
-1.42929e-09
8.41378e-10
-3.70474e-11
-2.3633e-09
-4.67343e-09
1.42303e-09
-1.81526e-09
3.42372e-09
-1.6526e-09
4.40631e-11
-8.93308e-10
-1.27684e-09
-1.05799e-09
3.228e-09
3.26082e-09
1.75124e-09
-4.92425e-09
-8.78205e-11
4.21145e-09
-4.08254e-09
-4.22181e-11
-8.66886e-11
-5.08887e-11
4.40865e-09
-1.15686e-09
-3.20089e-09
-2.12005e-09
-1.62205e-09
3.91271e-09
-1.7062e-10
-7.8479e-09
2.80938e-09
8.09251e-10
4.22927e-09
2.90199e-09
6.64364e-10
-1.38345e-09
-2.18292e-09
2.22387e-09
4.95174e-09
-5.37302e-09
-3.78827e-09
5.84266e-10
-4.7711e-10
-7.23769e-10
3.48351e-09
-2.67374e-09
-8.59859e-11
-1.5129e-09
2.31766e-09
5.3368e-09
-6.14157e-09
-5.5015e-10
-2.16369e-09
4.95493e-09
-4.13139e-09
-5.00946e-10
4.77364e-09
-1.41295e-10
3.62833e-09
6.43174e-09
-9.82204e-09
-2.38032e-10
5.21195e-09
3.25598e-09
-8.37915e-09
-8.8775e-11
4.12051e-09
1.6773e-11
-1.79776e-10
7.36909e-09
-2.18447e-09
-5.00489e-09
1.79348e-09
-1.21079e-10
-1.69753e-09
2.5128e-11
4.05204e-09
-3.22757e-09
8.01104e-10
-1.62559e-09
-1.61095e-09
6.13159e-10
1.05042e-09
-5.26558e-11
-1.1508e-09
3.42461e-09
-4.48865e-10
-1.04838e-09
-3.31908e-09
6.93277e-10
8.71909e-09
-1.66303e-09
-6.93283e-09
-1.2324e-10
2.77063e-09
-5.93734e-10
-7.24016e-09
5.06327e-09
-3.96832e-09
2.32836e-09
1.63911e-09
8.64057e-13
-4.12832e-09
3.75707e-09
3.14189e-09
1.76788e-09
-1.60019e-09
2.93399e-11
8.47254e-09
-5.03558e-09
-7.20024e-10
-2.71694e-09
-3.87211e-09
-2.8998e-09
6.63856e-09
1.33299e-10
-7.12882e-10
3.14067e-09
-6.76306e-10
-1.7515e-09
7.211e-10
-8.37233e-09
-1.71081e-09
4.5215e-10
-6.02802e-09
5.89633e-09
-3.2045e-10
-2.26838e-09
2.08894e-09
-3.03529e-09
1.11029e-08
-9.23103e-09
-5.18276e-09
3.31089e-09
3.03249e-09
-9.88902e-09
-2.85335e-09
9.70989e-09
-1.3536e-10
1.84769e-09
-1.66467e-09
-4.76697e-11
4.19413e-09
-2.03304e-10
-3.99962e-09
8.77229e-12
-6.76357e-09
4.89037e-09
2.41588e-09
-5.42688e-10
-1.99436e-09
3.42479e-09
-2.49951e-09
1.06902e-09
5.71333e-09
-1.68212e-09
-4.28706e-09
2.55846e-10
-2.55018e-09
-1.39379e-09
3.76605e-09
1.77908e-10
-5.6299e-09
2.36375e-09
-3.49744e-09
3.93318e-10
-6.54191e-09
-1.67946e-10
6.31652e-09
-8.86422e-10
-1.6287e-09
2.56245e-09
-4.72847e-11
1.42691e-09
3.53908e-09
-4.78997e-09
-1.76057e-10
8.23639e-09
-6.92067e-09
-9.93628e-10
-3.22133e-10
6.91343e-09
-6.05537e-09
-4.82406e-09
3.96603e-09
1.01751e-09
2.78338e-09
-3.72807e-09
-7.28034e-11
5.2801e-09
6.90907e-10
-5.88047e-09
-9.05523e-11
-4.8246e-09
4.26782e-09
-3.07471e-09
3.63145e-09
-4.79988e-09
1.80072e-09
6.96798e-09
-2.21456e-09
-2.69774e-09
3.55916e-09
1.3531e-09
-8.97166e-10
-5.33261e-10
3.73463e-09
1.05914e-09
3.57625e-09
-6.1273e-09
1.4919e-09
1.77328e-09
-1.3029e-09
1.741e-09
-2.2114e-09
1.82554e-09
1.76356e-09
-3.61309e-09
2.40247e-11
8.86548e-10
9.20113e-10
-3.33842e-11
-1.95547e-09
-2.27936e-09
2.88096e-09
1.3538e-09
9.90637e-10
-1.84649e-09
-3.60478e-11
-2.85376e-09
4.36646e-09
7.43182e-09
-8.94451e-09
-8.66084e-10
2.29874e-09
-1.2489e-09
-1.83774e-10
-2.41595e-09
-3.55206e-09
-9.81613e-10
-6.09164e-09
6.19652e-10
3.14843e-09
2.32354e-09
-1.60973e-09
-7.32141e-09
6.34628e-09
2.58486e-09
2.30148e-09
4.13266e-09
-6.2761e-09
-1.58054e-10
5.54175e-09
-3.7454e-09
-1.9284e-09
1.32031e-10
3.55974e-09
-9.71867e-09
1.1571e-08
-5.41207e-09
3.00416e-09
-5.30249e-09
6.88593e-10
7.13215e-09
-6.12579e-09
-8.32777e-09
5.94899e-10
6.63945e-09
-1.02186e-10
2.1182e-09
-4.43463e-09
7.03011e-09
5.21555e-10
-2.68826e-09
6.92373e-09
-1.93536e-09
7.10169e-10
1.24342e-09
-1.82518e-11
-4.32063e-09
5.76733e-09
-1.06703e-08
9.22358e-09
6.1359e-09
-5.841e-09
-9.33714e-09
9.04226e-09
-1.43126e-08
-7.08804e-09
1.36809e-08
2.4093e-09
1.22485e-10
-6.47082e-09
3.93905e-09
3.09319e-09
7.17056e-09
-7.85445e-09
-4.74464e-11
3.23066e-09
2.73582e-11
-3.21058e-09
-5.90026e-09
6.40166e-09
1.79938e-09
-2.30081e-09
2.46846e-09
2.58349e-09
-2.47028e-09
7.21989e-10
-3.48902e-09
7.63032e-10
2.004e-09
-1.73734e-09
-7.62264e-09
1.15728e-08
-2.21278e-09
3.02349e-09
5.95925e-09
-8.70363e-09
-2.79141e-10
-3.0673e-09
4.5082e-09
-1.40048e-11
2.81806e-09
9.51757e-10
-2.48398e-09
-1.28593e-09
-2.41428e-09
6.27764e-09
-1.01404e-10
6.66505e-10
-4.50631e-09
-2.02225e-10
8.44466e-10
2.90556e-09
9.8043e-11
-3.47415e-09
-2.45473e-10
3.5705e-09
1.49115e-10
4.40436e-09
5.55557e-09
-9.29801e-09
3.49161e-09
-8.79871e-10
-5.58486e-09
2.97313e-09
-2.99548e-09
3.44083e-09
3.46878e-09
-3.06746e-10
6.05786e-09
-5.81197e-09
6.08243e-11
1.90663e-09
1.67327e-09
-1.03863e-09
-2.54126e-09
-5.9598e-09
5.97888e-09
4.93014e-09
-4.94922e-09
1.30708e-09
-1.5833e-09
-5.68358e-09
4.74575e-09
-1.21602e-09
-1.28283e-09
-2.24689e-09
4.17524e-09
-2.83547e-09
-5.128e-09
-4.08158e-09
4.37431e-09
-9.85504e-10
6.92783e-10
7.42277e-10
3.18596e-09
-3.93785e-09
9.58944e-12
6.67317e-10
-4.6867e-09
3.91172e-09
1.07653e-10
-1.39306e-09
-2.20115e-09
1.80664e-09
1.78762e-09
-5.74983e-10
-1.7928e-09
1.21176e-11
1.00877e-09
-1.60604e-09
2.06655e-09
-1.46939e-09
2.00817e-09
-9.93225e-10
1.37474e-09
-2.39034e-09
-4.38555e-09
-4.61259e-10
4.96903e-09
-1.22228e-10
-4.25192e-09
-3.52373e-10
4.5432e-09
6.10725e-11
-8.05641e-09
-3.3226e-10
5.60612e-09
2.78253e-09
-1.1615e-09
-2.7371e-09
3.95744e-09
-5.88665e-11
-5.87524e-09
3.65061e-09
2.22915e-09
-4.51587e-12
3.45106e-09
-3.32432e-09
-1.27848e-10
-1.46347e-10
3.25794e-09
-3.01429e-09
-9.73277e-11
-5.1115e-09
1.41744e-09
3.74787e-09
-5.38217e-11
-3.36907e-09
3.5718e-09
2.4501e-09
-2.65283e-09
1.87434e-09
-1.77977e-09
3.62912e-09
-3.7237e-09
2.42112e-09
-3.18575e-09
4.26872e-09
-3.5041e-09
-8.70606e-09
2.12986e-09
6.77242e-09
-1.96213e-10
2.05201e-09
-6.74094e-09
-4.94238e-10
5.18317e-09
-3.57764e-10
3.25812e-09
6.19472e-11
1.09244e-09
2.33005e-09
-3.28635e-09
-1.36152e-10
2.54651e-09
-2.36576e-09
-1.7626e-09
1.58181e-09
-2.052e-09
-3.41632e-09
3.4129e-09
2.05542e-09
1.58089e-09
-7.084e-10
1.40844e-11
-5.76347e-09
2.12886e-09
3.66917e-09
-3.45888e-11
1.08955e-09
-2.27289e-09
-1.57091e-09
2.75425e-09
-5.44549e-09
-4.93905e-09
5.35097e-09
5.03357e-09
-2.02512e-09
6.05387e-09
-4.62203e-09
5.93241e-10
-1.39144e-09
-8.17198e-09
5.39761e-09
4.16581e-09
-9.01014e-09
5.24388e-09
2.77795e-09
9.88259e-10
1.0425e-08
-3.01287e-09
-6.68463e-09
-7.2746e-10
2.86127e-09
-2.31868e-09
-9.27979e-09
8.73716e-09
-1.28411e-10
-1.35409e-09
1.54678e-09
-6.42754e-11
7.84702e-10
5.28872e-09
-1.66913e-09
-4.40433e-09
-1.01857e-09
3.08375e-09
-1.24922e-10
-1.94025e-09
1.45689e-10
2.00044e-09
-2.14257e-09
-3.55068e-12
3.09818e-09
3.17371e-09
-3.7136e-09
-2.55828e-09
1.59185e-08
3.27766e-09
-7.78902e-09
-1.14072e-08
1.33855e-09
-4.56082e-09
3.44991e-09
-2.27643e-10
-5.73493e-09
2.0635e-09
3.65318e-09
1.82394e-11
2.62931e-09
-3.1829e-09
9.50366e-10
-3.96771e-10
-3.36174e-09
-2.35386e-09
-3.45163e-09
9.16723e-09
-2.75963e-09
3.82747e-09
-1.0552e-09
-1.26359e-11
-4.02701e-09
5.043e-09
-1.72887e-09
-2.60818e-09
4.64048e-09
-1.81536e-09
-2.16952e-10
5.99775e-09
-2.27762e-09
2.50893e-11
-2.12582e-09
1.2629e-09
8.95135e-10
-3.23377e-11
2.1214e-09
-7.18429e-10
6.52384e-10
-2.0552e-09
2.62204e-09
4.92043e-09
-3.4824e-10
-1.33791e-09
5.24152e-09
1.39427e-10
-4.61654e-10
3.95101e-09
3.53124e-11
2.29055e-10
-6.11446e-09
5.6779e-09
2.07492e-10
-3.83691e-09
1.90346e-09
2e-09
-6.65397e-11
1.7526e-09
-2.43731e-09
2.90101e-09
-2.21636e-09
-4.14622e-09
-4.97602e-09
1.08748e-08
-6.71061e-10
7.49579e-10
4.52336e-09
-4.60191e-09
-1.7627e-09
-9.89894e-10
1.97485e-10
-5.41777e-09
5.79164e-09
-1.60663e-09
1.23273e-09
-4.89372e-09
3.66191e-09
6.57162e-09
-5.33982e-09
1.59473e-09
-3.6254e-09
-4.81779e-09
6.84845e-09
5.13682e-09
8.55268e-10
-4.89966e-09
-4.2063e-09
-7.7223e-10
2.2679e-09
6.13827e-09
-9.48753e-09
5.46445e-09
-1.68546e-09
-3.95879e-09
1.6372e-09
1.55864e-09
-2.69353e-10
-7.1916e-10
-2.09969e-09
-5.80388e-09
8.62273e-09
4.73777e-10
2.35557e-09
-6.45957e-09
-5.69368e-09
2.16558e-09
3.65908e-09
-1.30996e-10
-7.70385e-10
-1.46841e-09
2.436e-09
-1.97208e-10
2.06566e-09
-3.51152e-09
1.19699e-09
2.48874e-10
4.38151e-09
-6.59714e-09
2.79107e-09
-5.7543e-10
-1.56512e-09
1.337e-09
2.93431e-10
-6.52906e-11
-3.57524e-09
1.31562e-09
9.56708e-10
-1.16368e-09
3.55227e-09
4.20907e-09
-6.59768e-09
1.85701e-10
4.86278e-09
-3.98701e-09
-1.06147e-09
2.24051e-09
-1.90683e-09
-1.4798e-10
-8.90843e-09
-4.93069e-09
8.71532e-09
5.1238e-09
2.1045e-09
2.5175e-10
-2.49929e-09
1.43029e-10
1.04771e-09
2.85651e-09
-1.14933e-10
6.66439e-11
-3.75695e-10
-2.93018e-09
-7.95302e-11
1.17659e-09
-1.83751e-11
4.19373e-09
-8.17793e-09
6.6135e-09
-5.56866e-09
-1.7898e-09
4.3363e-09
3.02214e-09
3.54587e-09
-1.0431e-09
-1.62137e-10
-2.34061e-09
-1.91773e-09
3.05066e-09
2.41298e-09
-7.04124e-09
5.4118e-09
-4.64171e-09
6.27112e-09
3.43883e-09
8.58444e-10
3.82017e-09
3.96888e-09
-2.65514e-09
-1.24357e-09
-7.01524e-11
-5.95924e-09
5.63966e-09
3.46426e-10
-2.68494e-11
2.71746e-09
-8.06032e-10
2.19574e-09
-4.10717e-09
-3.65783e-09
1.32122e-09
2.67837e-09
-3.41774e-10
1.50774e-09
3.8399e-11
-1.5093e-09
-3.68443e-11
7.8172e-09
8.25569e-10
2.24525e-09
-1.0888e-08
-4.02917e-09
5.62962e-09
-2.81288e-09
1.31482e-09
2.58391e-09
-6.36408e-09
2.46538e-09
1.86195e-09
-1.51078e-09
-1.2009e-09
8.49651e-10
3.65458e-09
-1.50033e-09
-3.55474e-09
1.40051e-09
-3.64574e-09
1.46412e-09
2.22041e-09
-3.87533e-11
7.68215e-10
-2.7403e-09
2.06765e-09
-9.55583e-11
-4.44907e-09
1.75024e-09
7.12496e-09
-8.69323e-09
9.32755e-09
-4.13154e-10
-2.21163e-10
3.60563e-09
-1.66045e-08
1.65457e-09
1.13443e-08
2.10228e-09
-3.29936e-09
1.64962e-09
-4.52551e-10
-1.55235e-09
-2.32545e-09
4.0422e-09
-1.64389e-10
-2.70232e-09
-1.9787e-09
4.84091e-09
-1.59871e-10
5.91066e-11
-2.72087e-09
2.6336e-09
2.81648e-11
-5.66734e-09
3.59085e-09
2.07392e-09
2.57879e-12
-8.29179e-09
6.33164e-10
7.64074e-09
1.78854e-11
-6.60486e-09
3.32656e-09
1.07003e-08
4.13534e-09
-1.00862e-09
2.78865e-09
-5.9154e-09
-6.54088e-09
2.22541e-09
4.63327e-09
-3.17792e-10
4.80076e-11
-4.48225e-09
6.74979e-11
4.47666e-09
-3.36619e-10
-4.0898e-09
-5.02383e-11
3.45443e-10
6.01426e-09
-3.25164e-09
-5.29842e-09
7.04946e-09
-4.10349e-09
2.35243e-09
7.48778e-09
7.59069e-09
-8.88331e-09
-6.19515e-09
-2.84201e-09
1.54446e-09
1.61686e-09
-3.1935e-10
-3.07913e-09
-1.25104e-09
1.10257e-09
1.73878e-09
-1.71832e-09
-9.81046e-10
9.60586e-10
9.29312e-10
-3.5797e-10
-5.34134e-10
-3.71862e-11
4.09452e-09
-1.47753e-09
-2.49822e-09
-1.18786e-10
-3.96723e-09
2.92048e-09
1.44661e-09
-3.99885e-10
-4.36936e-10
2.65292e-09
2.72439e-09
-4.9404e-09
4.81627e-09
2.7815e-09
-9.18339e-10
3.32181e-09
-3.49765e-09
-3.56142e-11
-4.99918e-09
3.86725e-10
4.86757e-09
-2.55129e-10
2.57771e-10
3.67543e-09
-6.19601e-10
-3.31366e-09
-1.569e-09
7.94576e-09
-1.45712e-09
-4.91962e-09
2.97055e-09
-2.77347e-09
-5.9421e-09
5.74503e-09
1.49689e-09
-2.55553e-09
-1.01025e-09
2.34852e-09
1.0004e-10
-1.43833e-09
-1.759e-09
8.26115e-10
9.37248e-10
-4.57799e-12
4.63171e-09
-1.66601e-09
-6.74958e-09
3.78378e-09
1.33685e-09
-2.55783e-09
1.09284e-09
1.28073e-10
5.71956e-09
-4.06855e-09
9.91376e-10
-3.50616e-09
1.75517e-09
7.59609e-10
3.42833e-09
-5.03644e-10
1.28677e-09
-3.61724e-09
6.05888e-10
-1.46452e-09
1.71845e-09
-2.22408e-09
5.2647e-10
-2.07648e-11
1.6721e-09
2.75139e-09
-4.52099e-09
9.75155e-11
-8.1419e-09
-4.74741e-09
7.84969e-09
5.03956e-09
5.28832e-09
2.73014e-09
-5.34431e-09
-9.38884e-10
1.95798e-09
-2.84504e-11
-7.11477e-09
-4.96404e-09
9.3468e-09
2.73201e-09
3.69063e-10
-1.22926e-09
-9.45198e-11
5.52211e-09
-3.88415e-09
-2.36155e-09
5.91433e-09
-6.57978e-09
5.29306e-10
1.36173e-10
-3.19892e-09
3.18014e-09
2.7227e-09
-7.15569e-09
5.78475e-09
-1.35176e-09
9.9272e-10
-3.34701e-09
2.251e-09
1.03299e-10
-9.92136e-09
9.69496e-09
-6.684e-09
6.11346e-09
-6.58611e-10
1.22913e-09
-3.46775e-09
-5.13125e-10
1.2507e-09
2.73015e-09
-4.07239e-09
3.3958e-09
6.03879e-10
7.27203e-11
1.31136e-09
-2.95577e-09
1.65938e-09
-1.49469e-11
2.77407e-09
-4.87189e-09
-5.10351e-10
2.72788e-09
7.6038e-11
-2.38316e-09
-4.2074e-10
1.73874e-09
-2.16106e-09
5.71661e-10
-1.49323e-10
7.21551e-09
-5.02249e-09
-7.66051e-10
-1.42696e-09
-7.75684e-09
2.40537e-09
-1.85618e-09
7.20767e-09
3.47754e-09
-5.51901e-09
-3.55932e-10
-1.60099e-09
-1.04866e-08
5.38789e-09
6.69966e-09
-4.5206e-09
5.73836e-09
-6.57506e-10
-8.83662e-09
6.89602e-09
5.91071e-09
5.24685e-10
-2.25521e-09
-1.17834e-10
-1.48977e-10
1.47965e-09
-3.15381e-09
1.73726e-09
-6.2737e-11
6.07889e-09
8.66227e-10
-1.16007e-09
-2.13377e-09
5.17756e-09
4.17173e-09
3.09419e-09
-1.18529e-09
-5.22492e-09
3.31602e-09
3.25568e-09
-3.61094e-09
-1.06398e-10
4.11133e-09
-3.44711e-09
2.27124e-12
3.04551e-09
7.54808e-09
-1.06246e-08
3.10489e-11
5.88017e-09
9.73207e-09
3.51944e-09
5.46343e-09
-9.64302e-09
6.60137e-10
-4.28756e-10
-4.48145e-09
4.96856e-09
-5.83696e-11
4.91863e-09
-5.26607e-09
-8.13319e-11
7.1117e-09
-2.88111e-09
-4.11454e-09
-1.16105e-10
1.58423e-09
1.99105e-11
-4.8855e-09
-3.95439e-09
3.79892e-09
5.04096e-09
-1.02482e-09
-2.52608e-09
-2.4355e-09
5.98639e-09
-3.49522e-09
-4.35668e-10
3.8754e-09
5.54672e-11
4.66863e-10
-1.13686e-09
-5.37635e-09
6.04632e-09
-2.47898e-09
6.19347e-09
-9.40835e-09
5.69384e-09
2.4909e-09
1.88124e-09
-4.03276e-10
1.31132e-08
-2.41226e-09
-2.53731e-09
-8.16366e-09
1.17303e-09
1.15714e-08
-8.17076e-09
-4.57371e-09
-9.43121e-10
2.71009e-09
5.49003e-11
-1.82181e-09
7.45765e-09
1.81832e-09
-3.70042e-09
-5.57561e-09
7.31585e-10
7.94722e-09
3.70337e-09
-4.30297e-09
-5.29257e-09
3.83981e-09
2.57299e-09
-8.04406e-09
6.25303e-09
2.75605e-09
-2.73664e-10
-2.84015e-09
-1.04917e-08
-4.24271e-09
2.82636e-09
1.19081e-08
1.19559e-08
-3.85438e-09
3.0663e-09
-1.11678e-08
4.34807e-09
-8.68717e-09
2.35024e-09
1.98886e-09
6.5852e-09
4.33064e-09
-7.37765e-09
-3.53822e-09
1.12748e-08
-7.41599e-09
-3.13256e-09
-7.26213e-10
2.88042e-09
-2.06672e-09
-5.38455e-09
4.5708e-09
6.95577e-09
-5.0759e-09
2.6655e-09
-4.54538e-09
-4.90273e-09
1.2749e-08
-1.02895e-08
2.44322e-09
7.29546e-09
2.46673e-09
-8.74088e-09
-1.02133e-09
-7.99496e-09
3.02224e-09
-5.12588e-09
1.00986e-08
-1.25074e-09
-9.50478e-09
-7.83077e-09
1.03543e-08
-2.55876e-09
3.52227e-11
-1.46232e-09
1.06439e-08
-2.87842e-09
-6.30312e-09
-7.50897e-09
4.29278e-10
9.7569e-09
-2.67716e-09
-4.30256e-09
8.57183e-09
-6.61648e-09
2.34722e-09
4.42072e-09
-9.33999e-09
6.64971e-09
-1.73045e-09
4.62421e-09
-2.59152e-09
1.02855e-08
-1.23181e-08
-7.56006e-09
-4.22733e-09
1.4886e-09
1.02989e-08
-9.67178e-09
4.45189e-09
8.35391e-09
-6.663e-09
-3.24824e-09
1.55732e-09
8.52993e-09