/*--------------------------------*- C++ -*----------------------------------*\
| =========                 |                                                 |
| \\      /  F ield         | OpenFOAM: The Open Source CFD Toolbox           |
|  \\    /   O peration     | Version:  v1612+                                |
|   \\  /    A nd           | Web:      www.OpenFOAM.com                      |
|    \\/     M anipulation  |                                                 |
\*---------------------------------------------------------------------------*/
FoamFile
{
    version     2.0;
    format      ascii;
    class       volScalarField;
    location    "150";
    object      p;
}
// * * * * * * * * * * * * * * * * * * * * * * * * * * * * * * * * * * * * * //

dimensions      [0 2 -2 0 0 0 0];

internalField   nonuniform List<scalar> 
16798
(
3.9204
3.90715
3.84941
3.84889
3.84918
3.85238
3.85284
3.85401
3.85067
3.84151
3.84588
3.85018
3.88753
3.89086
3.89035
3.89012
3.88978
3.8919
3.88361
3.88362
3.88613
3.88329
3.88375
3.89017
3.88437
3.88456
3.88132
3.88444
3.88497
3.88892
3.88702
3.85265
3.84887
3.84958
3.85002
3.84617
3.8548
3.84708
3.8503
3.85478
3.85179
3.8508
3.85123
3.8493
3.85601
3.84433
3.84745
3.85384
3.93879
3.93506
3.93466
3.9342
3.93694
3.93412
3.89376
3.89008
3.8985
3.89553
3.89565
3.89109
3.88958
3.89521
3.89438
3.89839
3.8967
3.89054
3.89562
3.89518
3.89239
3.89142
3.88608
3.89675
3.88976
3.89394
3.89804
3.89401
3.89776
3.89848
3.89598
3.89647
3.89221
3.89084
3.89427
3.89411
3.89137
3.89464
3.89525
3.8937
3.8966
3.89296
3.89098
3.89333
3.88011
3.88056
3.88132
3.87711
3.88249
3.87718
3.88121
3.87863
3.87616
3.88034
3.8806
3.87808
3.90795
3.9203
3.91759
3.91522
3.9151
3.91566
3.91451
3.91182
3.91301
3.91486
3.91101
3.91712
3.91282
3.91251
3.91668
3.91863
3.92084
3.91343
3.90451
3.90994
3.90643
3.9049
3.91107
3.9079
3.90692
3.90557
3.90405
3.90503
3.90631
3.90578
3.90162
3.89769
3.89885
3.89649
3.89665
3.89783
3.90435
3.90027
3.93952
3.93796
3.93698
3.94039
3.93822
3.93931
3.9389
3.9368
3.93867
3.93725
3.93915
3.93876
3.93492
3.93427
3.93447
3.93548
3.93336
3.93642
3.90706
3.90731
3.90482
3.90318
3.90617
3.91097
3.91551
3.90601
3.91244
3.91641
3.90483
3.90612
3.90997
3.91151
3.90813
3.94008
3.93748
3.9423
3.94229
3.93746
3.93959
3.93774
3.93939
3.93866
3.94211
3.86333
3.86035
3.86586
3.86532
3.86041
3.86109
3.86325
3.85974
3.86627
3.86552
3.8686
3.86817
3.85983
3.86703
3.86221
3.85907
3.8588
3.86196
3.8612
3.86569
3.85575
3.85738
3.91534
3.91196
3.91238
3.90639
3.91186
3.90975
3.90921
3.91297
3.90685
3.90774
3.90775
3.91476
3.91169
3.91198
3.91211
3.9104
3.9097
3.9152
3.84949
3.84904
3.84795
3.848
3.84941
3.84925
3.84979
3.84943
3.85228
3.85035
3.85053
3.84478
3.85226
3.85281
3.90431
3.90514
3.90814
3.90793
3.90567
3.90642
3.91147
3.90833
3.91357
3.90969
3.9145
3.91283
3.91116
3.90995
3.91555
3.93725
3.93556
3.93946
3.92864
3.93636
3.93699
3.93525
3.86734
3.86626
3.86173
3.86135
3.86957
3.86893
3.86505
3.86215
3.86399
3.85881
3.86617
3.86802
3.863
3.86105
3.86309
3.86675
3.86154
3.86785
3.88128
3.88426
3.88122
3.88297
3.8843
3.88067
3.88276
3.93762
3.93721
3.93886
3.94001
3.93747
3.93724
3.93707
3.94015
3.94036
3.94098
3.93923
3.94112
3.94124
3.93477
3.93775
3.93947
3.93995
3.94038
3.94016
3.85467
3.85978
3.86609
3.85923
3.86442
3.85824
3.85663
3.85709
3.86279
3.86703
3.86432
3.86521
3.86045
3.85439
3.85611
3.86364
3.86269
3.85721
3.8579
3.85691
3.85803
3.86014
3.85882
3.8577
3.85166
3.85653
3.85893
3.85666
3.85954
3.86253
3.85905
3.86331
3.86741
3.85568
3.85713
3.86466
3.86654
3.86574
3.85508
3.86819
3.86668
3.85807
3.86162
3.93725
3.93691
3.9382
3.93726
3.93553
3.93669
3.94012
3.93626
3.93607
3.94036
3.9399
3.9373
3.94256
3.94041
3.93851
3.94079
3.93604
3.9403
3.93895
3.94327
3.91647
3.91875
3.91817
3.91657
3.91814
3.91842
3.9214
3.92275
3.91851
3.92094
3.92289
3.92078
3.92204
3.92575
3.9241
3.91936
3.92224
3.91371
3.92346
3.93451
3.93754
3.93393
3.93549
3.93395
3.93331
3.93303
3.93745
3.92611
3.93204
3.93665
3.93053
3.93108
3.93386
3.93629
3.92978
3.92675
3.93893
3.93683
3.93506
3.93442
3.93247
3.93252
3.93124
3.93385
3.93294
3.93709
3.93376
3.9371
3.93545
3.93389
3.93438
3.93282
3.93521
3.9346
3.93261
3.93177
3.93347
3.92826
3.93047
3.92633
3.90128
3.90305
3.90268
3.89818
3.9042
3.90315
3.90683
3.90804
3.90588
3.90155
3.90384
3.90416
3.90292
3.90586
3.93358
3.93159
3.93428
3.92742
3.93246
3.93353
3.93438
3.93459
3.93482
3.94251
3.93639
3.93426
3.93272
3.93458
3.9343
3.93307
3.93303
3.89685
3.89711
3.89698
3.90042
3.89629
3.8959
3.90693
3.89875
3.90552
3.9028
3.88791
3.89576
3.90299
3.9011
3.89456
3.90479
3.89995
3.86981
3.87483
3.87459
3.86878
3.86813
3.87129
3.86898
3.8738
3.87161
3.87276
3.87179
3.87655
3.877
3.87772
3.8764
3.8758
3.87721
3.87718
3.87685
3.90637
3.90259
3.90496
3.91233
3.90668
3.90625
3.90818
3.90737
3.90373
3.91141
3.90253
3.90774
3.90998
3.90917
3.9092
3.91146
3.91035
3.90567
3.90573
3.85106
3.8536
3.85669
3.84646
3.85199
3.84961
3.85305
3.86297
3.84949
3.85176
3.84849
3.85263
3.85783
3.85249
3.85425
3.84851
3.84985
3.85669
3.85761
3.85492
3.85292
3.8548
3.84903
3.85752
3.89432
3.89833
3.88961
3.89174
3.88892
3.88319
3.87716
3.8913
3.89207
3.89413
3.89208
3.88721
3.8901
3.89133
3.89158
3.88123
3.88334
3.8919
3.88209
3.88611
3.88513
3.89161
3.89455
3.88803
3.88589
3.89229
3.89374
3.89536
3.89887
3.89821
3.89314
3.88993
3.89691
3.89579
3.90004
3.89475
3.89931
3.89541
3.9009
3.90063
3.89549
3.89709
3.90152
3.89891
3.93494
3.93384
3.931
3.92894
3.93363
3.93658
3.93347
3.93218
3.93353
3.92969
3.93095
3.92897
3.92892
3.93573
3.93922
3.93456
3.93418
3.9265
3.93907
3.93772
3.93359
3.93825
3.93395
3.93928
3.93149
3.93181
3.93623
3.93508
3.93424
3.93362
3.91331
3.9099
3.91613
3.91502
3.91562
3.92343
3.91234
3.91726
3.91302
3.90481
3.89971
3.91437
3.91313
3.91438
3.91532
3.909
3.91665
3.91228
3.92537
3.92783
3.92535
3.9221
3.92702
3.92606
3.92526
3.91751
3.92448
3.9177
3.92755
3.92605
3.9213
3.91962
3.92273
3.92077
3.92421
3.923
3.92077
3.92073
3.94377
3.94092
3.93813
3.93548
3.94265
3.93615
3.94326
3.93538
3.93998
3.93829
3.9369
3.93423
3.93194
3.93158
3.92804
3.93003
3.93503
3.93752
3.92504
3.9258
3.9344
3.93657
3.92782
3.93249
3.93194
3.93304
3.92608
3.92879
3.92827
3.92084
3.92412
3.92244
3.92355
3.92119
3.9232
3.92118
3.9185
3.92251
3.92091
3.92006
3.91722
3.92637
3.92689
3.92288
3.92102
3.92627
3.92346
3.92288
3.91828
3.92195
3.92247
3.91859
3.91887
3.92531
3.92796
3.92737
3.91938
3.92079
3.91625
3.92347
3.9202
3.90183
3.89693
3.89688
3.89514
3.90091
3.90161
3.89776
3.89876
3.894
3.89776
3.88312
3.88142
3.8765
3.8814
3.88273
3.87863
3.87683
3.8834
3.88226
3.88055
3.88022
3.87959
3.87901
3.87015
3.88161
3.87974
3.88027
3.88103
3.88235
3.8803
3.85198
3.85343
3.84951
3.84326
3.85449
3.85453
3.85365
3.85219
3.84914
3.84971
3.85369
3.8517
3.85315
3.853
3.89836
3.90163
3.89358
3.89392
3.90337
3.8966
3.89973
3.90458
3.89297
3.89503
3.90392
3.89489
3.8931
3.90439
3.90174
3.89813
3.89969
3.90316
3.88618
3.88512
3.89026
3.88605
3.88726
3.88649
3.88404
3.88285
3.88339
3.88147
3.88926
3.8804
3.88704
3.88096
3.88067
3.88604
3.88558
3.88201
3.8612
3.86226
3.86758
3.86061
3.86529
3.86812
3.86203
3.86553
3.86278
3.85931
3.85412
3.8539
3.86031
3.86269
3.85953
3.8599
3.8618
3.85923
3.86288
3.86127
3.86723
3.86341
3.86569
3.86019
3.86566
3.86124
3.86006
3.85586
3.86028
3.85567
3.86839
3.86649
3.86552
3.86416
3.86057
3.86147
3.87208
3.86941
3.86856
3.87268
3.87409
3.87129
3.86912
3.86876
3.87129
3.86918
3.86862
3.8746
3.86959
3.87028
3.87253
3.86828
3.86961
3.87014
3.88562
3.88756
3.8863
3.8867
3.8842
3.88645
3.88376
3.88261
3.88798
3.88515
3.89156
3.88784
3.89091
3.88665
3.88309
3.87822
3.88344
3.92904
3.92734
3.93079
3.92492
3.92992
3.93207
3.92361
3.92541
3.92397
3.92644
3.93088
3.9338
3.93618
3.92708
3.92669
3.93239
3.92695
3.92772
3.92919
3.92887
3.85015
3.84982
3.84917
3.84974
3.85737
3.84999
3.85076
3.85976
3.85533
3.85685
3.85555
3.85834
3.86504
3.86688
3.85903
3.8576
3.8628
3.85503
3.85594
3.86289
3.86185
3.86759
3.85368
3.86264
3.86074
3.8643
3.8595
3.8567
3.86351
3.86814
3.86817
3.86997
3.86804
3.86788
3.86949
3.86456
3.866
3.86485
3.86555
3.87237
3.87449
3.86808
3.87447
3.87263
3.86994
3.87205
3.88237
3.87786
3.87637
3.8799
3.87492
3.8726
3.88331
3.87708
3.87987
3.87683
3.87838
3.87825
3.8744
3.87707
3.87924
3.89245
3.88522
3.88477
3.88188
3.88356
3.88781
3.88115
3.88332
3.88416
3.88424
3.87949
3.88431
3.88477
3.88417
3.88425
3.89855
3.89403
3.89692
3.89094
3.89284
3.89279
3.89996
3.89384
3.89714
3.89129
3.89166
3.89621
3.88861
3.89277
3.89282
3.89555
3.89453
3.90147
3.89996
3.89576
3.89463
3.89429
3.89544
3.90056
3.90108
3.90407
3.90438
3.90175
3.90147
3.9059
3.90244
3.90751
3.90654
3.90327
3.90774
3.90256
3.90919
3.90497
3.90527
3.90467
3.90699
3.90456
3.90761
3.9208
3.91637
3.91357
3.90935
3.91267
3.91394
3.91476
3.91052
3.91084
3.91347
3.91778
3.91428
3.9114
3.91311
3.91416
3.91825
3.91551
3.9124
3.91643
3.92481
3.92192
3.91902
3.91854
3.91752
3.91844
3.92319
3.9209
3.91722
3.919
3.9245
3.92433
3.92351
3.92935
3.9312
3.93191
3.92828
3.92657
3.9255
3.93375
3.92951
3.92501
3.92864
3.92428
3.92857
3.9344
3.92629
3.92676
3.93178
3.93522
3.92964
3.93253
3.93023
3.93506
3.93157
3.9333
3.93114
3.93462
3.93767
3.94221
3.93542
3.93885
3.93158
3.94321
3.93787
3.93392
3.94073
3.93785
3.94338
3.9414
3.94089
3.94482
3.93652
3.94313
3.936
3.93432
3.93637
3.93163
3.93425
3.93974
3.93743
3.94283
3.93978
3.94242
3.93542
3.93614
3.93781
3.93757
3.93329
3.94007
3.94806
3.94046
3.94567
3.94202
3.94247
3.92898
3.93484
3.92977
3.94177
3.9381
3.94225
3.94246
3.94469
3.93974
3.94578
3.94381
3.93844
3.9441
3.94122
3.93583
3.93632
3.9354
3.93553
3.93447
3.94508
3.93306
3.93878
3.93794
3.94054
3.93615
3.93412
3.94016
3.9383
3.93835
3.94522
3.93901
3.93909
3.94404
3.93616
3.92908
3.93686
3.92918
3.93721
3.93036
3.94104
3.93227
3.93815
3.93482
3.93563
3.9355
3.93533
3.93376
3.92764
3.93593
3.9289
3.9373
3.93172
3.92971
3.93123
3.94098
3.93855
3.93073
3.93263
3.93446
3.9351
3.92983
3.93749
3.93588
3.93128
3.93685
3.93338
3.9302
3.93707
3.93697
3.93818
3.93467
3.93405
3.9258
3.92411
3.93157
3.9323
3.9313
3.93388
3.93184
3.92365
3.92428
3.92542
3.92831
3.92985
3.92897
3.92813
3.93859
3.93655
3.93583
3.93534
3.94369
3.94122
3.92975
3.932
3.93555
3.92845
3.93733
3.93389
3.94005
3.93944
3.93783
3.93723
3.92364
3.92906
3.92499
3.93574
3.93341
3.92739
3.93161
3.92918
3.92765
3.93694
3.93332
3.93458
3.92363
3.92691
3.9327
3.93122
3.93131
3.93424
3.93362
3.92383
3.926
3.9289
3.92679
3.92561
3.9375
3.93073
3.93585
3.92489
3.92962
3.92708
3.9265
3.92876
3.93532
3.92468
3.92815
3.92826
3.91553
3.92362
3.92327
3.92639
3.92338
3.92692
3.91808
3.93093
3.92186
3.9331
3.92828
3.9347
3.93293
3.93493
3.9312
3.92596
3.92775
3.92843
3.92495
3.92338
3.92326
3.91778
3.93039
3.92734
3.92225
3.92347
3.91414
3.92173
3.92106
3.91858
3.91991
3.92693
3.93001
3.92806
3.92926
3.92595
3.92858
3.92528
3.93006
3.92958
3.92361
3.92672
3.92288
3.91746
3.92334
3.92271
3.91463
3.9213
3.91669
3.92227
3.92172
3.91709
3.91865
3.93654
3.9321
3.93464
3.92977
3.92752
3.9263
3.93037
3.92458
3.93338
3.92652
3.92361
3.93324
3.93235
3.92121
3.92642
3.92318
3.92313
3.9203
3.92795
3.92531
3.9392
3.9329
3.92808
3.9349
3.93184
3.91448
3.9143
3.92328
3.91945
3.91993
3.92508
3.92173
3.92179
3.91706
3.92327
3.92262
3.92934
3.9243
3.91361
3.92301
3.91859
3.91784
3.93529
3.92917
3.92467
3.92768
3.93133
3.93325
3.93481
3.92164
3.92175
3.92911
3.92051
3.92552
3.92449
3.92364
3.92128
3.92552
3.91643
3.91262
3.9154
3.91993
3.91694
3.92326
3.91957
3.91188
3.9196
3.91749
3.91854
3.91664
3.91848
3.91271
3.91117
3.91849
3.92246
3.91522
3.91708
3.91398
3.90979
3.91631
3.91813
3.91984
3.91921
3.91329
3.91425
3.91808
3.91477
3.92178
3.91595
3.9179
3.91808
3.91657
3.91317
3.91617
3.91554
3.91765
3.92378
3.91366
3.91705
3.9216
3.91876
3.9189
3.91552
3.92107
3.92151
3.91851
3.92304
3.93048
3.92755
3.92045
3.91104
3.92203
3.91638
3.91636
3.91107
3.91508
3.9244
3.92527
3.92842
3.92117
3.9216
3.92393
3.91887
3.92007
3.92283
3.92111
3.91777
3.92491
3.92517
3.92131
3.92205
3.9218
3.92922
3.92656
3.91129
3.91704
3.91283
3.91049
3.9123
3.91245
3.92405
3.9208
3.91344
3.92351
3.92164
3.92683
3.91536
3.91105
3.91877
3.92013
3.90351
3.90393
3.91186
3.91547
3.90877
3.91646
3.91226
3.90462
3.90538
3.91103
3.90601
3.91108
3.90913
3.90667
3.91378
3.91209
3.90929
3.91063
3.91131
3.91596
3.91386
3.91905
3.92038
3.91368
3.91398
3.91236
3.91169
3.91691
3.91541
3.91493
3.91698
3.91248
3.90616
3.91337
3.91272
3.90953
3.90555
3.91164
3.9177
3.91063
3.90911
3.91188
3.91142
3.91419
3.90272
3.90626
3.90882
3.9095
3.90015
3.90082
3.91147
3.90866
3.90954
3.90778
3.90795
3.9024
3.90807
3.90115
3.90488
3.91262
3.91345
3.91802
3.91603
3.90642
3.91154
3.90784
3.90863
3.90701
3.90786
3.91879
3.92037
3.91681
3.91422
3.90907
3.91799
3.91141
3.9055
3.90504
3.91686
3.91655
3.91909
3.91423
3.91561
3.90851
3.90595
3.89924
3.91154
3.90915
3.91602
3.92063
3.91988
3.92287
3.91987
3.91811
3.9135
3.91571
3.91543
3.91699
3.90922
3.91714
3.91566
3.91203
3.91378
3.91179
3.91341
3.90685
3.91266
3.90823
3.90839
3.91488
3.91001
3.91729
3.91827
3.91186
3.91463
3.91444
3.92116
3.91393
3.91879
3.92065
3.91953
3.91925
3.89646
3.90278
3.89673
3.8997
3.89897
3.90074
3.89934
3.90301
3.90117
3.89677
3.89968
3.90288
3.90371
3.90109
3.89759
3.90022
3.9092
3.90935
3.91111
3.90535
3.9149
3.91298
3.91498
3.90796
3.90903
3.90786
3.90621
3.91012
3.91246
3.90019
3.89346
3.90315
3.90028
3.90703
3.90297
3.9022
3.90217
3.90754
3.90248
3.90569
3.90648
3.90041
3.89865
3.90272
3.90024
3.89463
3.8943
3.9072
3.91304
3.90927
3.91087
3.91066
3.90979
3.89404
3.90044
3.90296
3.89779
3.90175
3.8948
3.90316
3.90151
3.90248
3.8997
3.90511
3.90271
3.90956
3.91299
3.91157
3.90895
3.90955
3.90968
3.90527
3.91107
3.91557
3.91157
3.91218
3.89248
3.89985
3.89539
3.90181
3.89867
3.90267
3.89741
3.89776
3.89436
3.90045
3.90016
3.89594
3.89644
3.90163
3.91101
3.90956
3.90204
3.9008
3.90019
3.89933
3.90469
3.90697
3.90592
3.90304
3.90205
3.90345
3.89724
3.8991
3.90095
3.89971
3.89439
3.90788
3.90359
3.90113
3.89935
3.89929
3.89932
3.89655
3.90362
3.90074
3.90089
3.90629
3.90684
3.91233
3.91466
3.91016
3.90662
3.90493
3.90409
3.90581
3.9
3.89849
3.89939
3.90097
3.88794
3.88566
3.88438
3.89184
3.88911
3.89349
3.88956
3.88754
3.89088
3.89198
3.89224
3.89195
3.89215
3.89235
3.89867
3.89028
3.90171
3.89452
3.89533
3.89512
3.89104
3.8971
3.89594
3.8966
3.89356
3.88938
3.89684
3.89398
3.89299
3.89684
3.89753
3.89999
3.89482
3.89266
3.89379
3.89102
3.8957
3.89368
3.90125
3.90382
3.89282
3.89532
3.89373
3.88405
3.88901
3.88683
3.8939
3.89777
3.89352
3.90476
3.90022
3.89882
3.892
3.89529
3.88463
3.88645
3.8935
3.897
3.89038
3.89049
3.88205
3.89399
3.89161
3.89232
3.88976
3.88059
3.88985
3.88271
3.88586
3.89321
3.89002
3.9001
3.89585
3.90445
3.89096
3.90221
3.89793
3.88447
3.88748
3.88589
3.88627
3.89056
3.89065
3.89719
3.8923
3.90015
3.89955
3.89856
3.89374
3.89283
3.90225
3.89732
3.88723
3.88789
3.88479
3.89036
3.88669
3.88418
3.89255
3.88886
3.8891
3.90046
3.89738
3.88914
3.89547
3.89733
3.8933
3.88699
3.88904
3.89185
3.89394
3.88735
3.88192
3.884
3.88948
3.88529
3.88695
3.88607
3.88726
3.8906
3.88867
3.89065
3.88618
3.89509
3.89131
3.8916
3.89616
3.89107
3.89851
3.8998
3.89782
3.90437
3.89851
3.90083
3.89601
3.89305
3.90057
3.89965
3.89236
3.89525
3.89852
3.89148
3.88134
3.87571
3.87794
3.88257
3.87758
3.87528
3.88558
3.8809
3.8776
3.88114
3.88314
3.89018
3.87945
3.87577
3.87926
3.87515
3.88414
3.88771
3.88118
3.87955
3.88126
3.88172
3.88658
3.88802
3.89531
3.89066
3.89173
3.88729
3.88495
3.88353
3.88601
3.88675
3.88943
3.88758
3.87755
3.87788
3.88479
3.88017
3.87828
3.87839
3.8784
3.8801
3.87985
3.87738
3.87822
3.88175
3.88287
3.87902
3.87839
3.8753
3.87864
3.88558
3.88137
3.8803
3.87922
3.87748
3.87718
3.87503
3.88398
3.87796
3.87983
3.87888
3.88022
3.88119
3.87904
3.87625
3.87429
3.87894
3.87756
3.87981
3.87106
3.88072
3.87851
3.87808
3.88396
3.88099
3.88025
3.87441
3.87996
3.88044
3.87073
3.87546
3.8725
3.88315
3.87955
3.88606
3.8821
3.88179
3.8878
3.88789
3.87901
3.88439
3.87988
3.88636
3.88327
3.88359
3.8804
3.884
3.86319
3.86195
3.87107
3.86884
3.87306
3.87925
3.8803
3.86752
3.86761
3.87201
3.87397
3.87733
3.87839
3.87814
3.8714
3.86906
3.86827
3.88016
3.87141
3.87088
3.87556
3.87668
3.87371
3.86671
3.88379
3.88707
3.88835
3.8819
3.87933
3.87723
3.87532
3.87519
3.87581
3.87593
3.87317
3.86776
3.87827
3.8742
3.87531
3.87536
3.8719
3.87095
3.87309
3.87355
3.87424
3.87473
3.87191
3.87659
3.87367
3.87649
3.87361
3.87456
3.88152
3.87807
3.87269
3.8742
3.87927
3.87801
3.88074
3.88657
3.86623
3.87377
3.86655
3.87202
3.87852
3.87202
3.87266
3.87751
3.87741
3.87618
3.87413
3.87385
3.8742
3.87153
3.87068
3.87339
3.87728
3.87783
3.87436
3.88003
3.87986
3.88095
3.87483
3.87662
3.88135
3.879
3.87794
3.87706
3.87699
3.87625
3.87981
3.88622
3.88065
3.88508
3.88071
3.87837
3.88391
3.87709
3.88318
3.88369
3.87685
3.88378
3.88036
3.88303
3.87992
3.87832
3.87345
3.88579
3.88443
3.88394
3.88594
3.88973
3.88579
3.88236
3.88858
3.89279
3.88259
3.88373
3.86784
3.86314
3.87033
3.86152
3.87004
3.87195
3.86918
3.86803
3.87292
3.87994
3.87561
3.87385
3.87801
3.87736
3.88279
3.878
3.87847
3.87419
3.87769
3.8747
3.87912
3.8769
3.86669
3.87002
3.87055
3.86984
3.86926
3.87216
3.87368
3.87415
3.87404
3.87504
3.87422
3.86635
3.87317
3.86617
3.87077
3.87177
3.86507
3.8711
3.86827
3.86581
3.86741
3.8649
3.87229
3.86289
3.86994
3.87025
3.86562
3.87525
3.87597
3.87271
3.87666
3.87646
3.87726
3.87465
3.85828
3.85912
3.86063
3.86476
3.86934
3.86596
3.86461
3.86037
3.86442
3.86245
3.86032
3.85744
3.86141
3.86322
3.87296
3.86667
3.86822
3.86884
3.86595
3.86571
3.86522
3.86279
3.86379
3.86872
3.85957
3.85271
3.86133
3.86166
3.86684
3.86571
3.86195
3.86008
3.86381
3.85915
3.8561
3.86521
3.86327
3.86909
3.86524
3.86337
3.86454
3.86634
3.86511
3.86808
3.87092
3.87245
3.8692
3.86844
3.86922
3.85866
3.86372
3.866
3.86659
3.86325
3.85903
3.86038
3.85749
3.85889
3.86139
3.86373
3.85854
3.85926
3.85926
3.86448
3.86039
3.86173
3.86412
3.86881
3.86384
3.85711
3.85998
3.86093
3.86169
3.86385
3.85372
3.85643
3.855
3.86062
3.86082
3.86286
3.85923
3.86082
3.85427
3.86558
3.85458
3.85948
3.8553
3.86095
3.85825
3.85875
3.86049
3.86099
3.86284
3.86455
3.86413
3.86144
3.86526
3.86449
3.87254
3.87176
3.86782
3.87442
3.86983
3.85817
3.86337
3.86299
3.85681
3.85575
3.86171
3.85711
3.84988
3.86274
3.86117
3.85531
3.85278
3.85533
3.85302
3.85137
3.85098
3.85715
3.86033
3.85817
3.85169
3.86315
3.84916
3.8527
3.85462
3.8535
3.85583
3.86194
3.86557
3.86202
3.86201
3.85676
3.85361
3.8558
3.86706
3.86093
3.86557
3.86178
3.86778
3.86413
3.85762
3.85484
3.86169
3.85763
3.85713
3.85694
3.85638
3.8709
3.86542
3.8637
3.86066
3.86445
3.85721
3.86213
3.86179
3.8666
3.86371
3.86223
3.86267
3.85425
3.85617
3.85795
3.85198
3.85352
3.85096
3.85669
3.85332
3.85346
3.85476
3.85232
3.85715
3.85431
3.85437
3.85424
3.8612
3.85638
3.84728
3.85438
3.85758
3.85318
3.85557
3.85211
3.85176
3.85735
3.86871
3.86072
3.86164
3.85812
3.85703
3.86667
3.86112
3.86067
3.85955
3.85962
3.85666
3.86033
3.85266
3.85692
3.85689
3.85846
3.85489
3.84987
3.84583
3.85401
3.85087
3.84559
3.84937
3.84851
3.85352
3.85422
3.86463
3.85481
3.85785
3.86004
3.86002
3.85874
3.85753
3.85671
3.85485
3.86809
3.86474
3.85973
3.86075
3.85652
3.85934
3.85386
3.85203
3.8566
3.86167
3.85731
3.85451
3.85783
3.85129
3.84913
3.84618
3.84817
3.85961
3.84804
3.85143
3.86102
3.85961
3.85677
3.85645
3.85204
3.85134
3.8525
3.85092
3.85007
3.84966
3.85531
3.85132
3.85279
3.85054
3.85875
3.8578
3.85328
3.8485
3.85043
3.84961
3.84251
3.85471
3.85341
3.85199
3.84878
3.85841
3.85093
3.85329
3.84997
3.8498
3.84642
3.84832
3.8479
3.85015
3.84534
3.85533
3.85096
3.85121
3.84577
3.85355
3.84721
3.85426
3.85249
3.85063
3.84875
3.84914
3.84888
3.85281
3.85025
3.85897
3.85792
3.85734
3.85488
3.84983
3.84737
3.84639
3.85263
3.84638
3.85086
3.84957
3.85082
3.85155
3.84984
3.84973
3.85723
3.85587
3.85036
3.85907
3.85445
3.85765
3.85611
3.85046
3.85174
3.85364
3.86462
3.85912
3.85842
3.86872
3.86251
3.86076
3.86115
3.87137
3.86754
3.86856
3.86926
3.85341
3.85568
3.85711
3.85243
3.85112
3.8535
3.8509
3.85967
3.85979
3.86164
3.86086
3.86026
3.86127
3.8624
3.86082
3.85913
3.85306
3.85144
3.84687
3.85808
3.85585
3.85543
3.85318
3.844
3.85386
3.85756
3.85137
3.85283
3.85551
3.85318
3.84989
3.86291
3.86249
3.85479
3.86659
3.86368
3.85768
3.85954
3.86046
3.85938
3.86052
3.86404
3.86121
3.86122
3.86098
3.85896
3.86301
3.86604
3.86677
3.86105
3.85883
3.86521
3.86529
3.87077
3.87898
3.87338
3.86919
3.87616
3.87552
3.87222
3.87671
3.86951
3.85741
3.8609
3.87228
3.86866
3.8717
3.87002
3.86204
3.87595
3.88024
3.879
3.88306
3.88081
3.88031
3.8833
3.87309
3.87697
3.86939
3.87271
3.86821
3.87737
3.87428
3.86958
3.86902
3.87009
3.86989
3.87291
3.86929
3.88265
3.88346
3.88007
3.87398
3.87222
3.87036
3.86723
3.87294
3.87067
3.872
3.86464
3.86657
3.87
3.87185
3.86655
3.8704
3.86942
3.86915
3.87502
3.87356
3.87312
3.8818
3.88259
3.87509
3.8749
3.87875
3.87288
3.88576
3.88041
3.87921
3.87466
3.87542
3.89433
3.89233
3.88862
3.88407
3.88979
3.88463
3.89497
3.8914
3.86856
3.86702
3.87817
3.86657
3.86568
3.87413
3.87103
3.87588
3.88289
3.88333
3.88335
3.88408
3.89009
3.889
3.8841
3.89053
3.87959
3.88884
3.88557
3.88531
3.88218
3.88759
3.88822
3.88208
3.88285
3.88108
3.88642
3.88142
3.88555
3.88823
3.88627
3.90522
3.90835
3.89927
3.90345
3.90427
3.89444
3.89548
3.89113
3.88865
3.89375
3.89317
3.89321
3.891
3.88908
3.89042
3.8832
3.89006
3.89378
3.89449
3.89453
3.88723
3.89013
3.90207
3.90487
3.90491
3.89918
3.90197
3.89683
3.90361
3.89792
3.89812
3.89602
3.89222
3.88658
3.89555
3.89435
3.88757
3.88463
3.88789
3.88837
3.88463
3.89087
3.88018
3.88059
3.88254
3.88261
3.8876
3.88916
3.90788
3.90428
3.90089
3.90453
3.90132
3.89052
3.88709
3.88516
3.88368
3.89204
3.88648
3.8828
3.88431
3.89249
3.89223
3.90036
3.90182
3.9024
3.90188
3.90108
3.89758
3.89664
3.89664
3.89854
3.90068
3.89975
3.88462
3.89034
3.88252
3.88711
3.89627
3.89187
3.89214
3.89566
3.89428
3.90909
3.90953
3.91356
3.91138
3.9039
3.90518
3.90982
3.90684
3.90236
3.91745
3.90872
3.91061
3.90858
3.90584
3.90989
3.90341
3.90508
3.90587
3.90724
3.90903
3.90443
3.9029
3.90287
3.90755
3.90842
3.91248
3.90675
3.90144
3.9097
3.90106
3.90421
3.90178
3.90694
3.90409
3.90545
3.91023
3.9111
3.90598
3.90258
3.89847
3.91028
3.90637
3.90817
3.90616
3.89752
3.90432
3.90337
3.89629
3.90125
3.89899
3.92768
3.92225
3.91867
3.91857
3.91521
3.92066
3.91934
3.92602
3.92378
3.92684
3.92593
3.90079
3.89987
3.9029
3.89934
3.90165
3.90241
3.89621
3.89901
3.90195
3.90141
3.92272
3.91607
3.92012
3.91654
3.91311
3.91543
3.92145
3.91898
3.92022
3.91781
3.91733
3.9141
3.91663
3.91115
3.92107
3.91251
3.91777
3.91308
3.91778
3.92091
3.91442
3.9013
3.90319
3.90437
3.91138
3.9024
3.90589
3.90817
3.90248
3.90477
3.90709
3.90999
3.90854
3.90617
3.90809
3.90967
3.90842
3.91837
3.91637
3.91734
3.92307
3.92139
3.92097
3.92193
3.92669
3.92643
3.92905
3.92429
3.92224
3.92709
3.92313
3.91736
3.916
3.91102
3.91063
3.90981
3.91088
3.90895
3.91294
3.909
3.92996
3.93446
3.92769
3.92993
3.93045
3.92999
3.93166
3.92635
3.92553
3.93523
3.93594
3.93136
3.93005
3.92719
3.92354
3.93026
3.93119
3.92597
3.92416
3.91342
3.92535
3.92248
3.92263
3.92213
3.92417
3.92254
3.94216
3.93952
3.94188
3.94186
3.9404
3.93458
3.93186
3.94003
3.93809
3.92088
3.92442
3.9153
3.91974
3.92277
3.91941
3.92269
3.92427
3.92773
3.92399
3.92444
3.92571
3.93815
3.9393
3.93072
3.92955
3.92905
3.93163
3.92352
3.92421
3.92163
3.92349
3.92659
3.93654
3.93899
3.94317
3.93864
3.94372
3.939
3.93739
3.94013
3.94179
3.93694
3.94192
3.93721
3.94269
3.93788
3.93909
3.94175
3.93809
3.93762
3.93538
3.93716
3.93864
3.93282
3.93274
3.93664
3.93943
3.93844
3.93297
3.93628
3.93503
3.93607
3.93274
3.93839
3.93544
3.93187
3.93059
3.92946
3.92826
3.92785
3.92937
3.94168
3.94538
3.93939
3.93778
3.93619
3.94111
3.93274
3.94146
3.94049
3.89607
3.89248
3.89452
3.89234
3.89658
3.89335
3.88995
3.88816
3.89332
3.89017
3.89279
3.89003
3.89753
3.89703
3.89246
3.89874
3.89777
3.89338
3.89212
3.90157
3.90525
3.90076
3.90256
3.90252
3.90281
3.89653
3.89486
3.89426
3.89796
3.88837
3.8911
3.88872
3.89434
3.88986
3.88974
3.89287
3.89378
3.88976
3.88933
3.89294
3.89396
3.87673
3.87332
3.87617
3.87402
3.87413
3.86776
3.87466
3.87035
3.87928
3.87293
3.87939
3.87604
3.86386
3.87034
3.8703
3.86405
3.86495
3.86634
3.86503
3.87035
3.87132
3.89946
3.90383
3.90521
3.90258
3.90604
3.90404
3.89921
3.89903
3.90093
3.90204
3.90354
3.90724
3.90457
3.90612
3.90682
3.90375
3.89922
3.90849
3.90559
3.90869
3.90825
3.90694
3.90432
3.90652
3.92412
3.93463
3.93461
3.9339
3.92671
3.92824
3.93683
3.92649
3.92903
3.93396
3.93439
3.93763
3.9289
3.93238
3.93719
3.93559
3.93428
3.93823
3.93411
3.94064
3.93451
3.93489
3.9333
3.93977
3.93601
3.93492
3.93421
3.93567
3.93663
3.93437
3.93315
3.93757
3.93688
3.93744
3.93804
3.93344
3.93244
3.93506
3.93697
3.93496
3.94414
3.93765
3.93802
3.94456
3.93933
3.93633
3.93879
3.94037
3.94108
3.94058
3.92727
3.92997
3.92858
3.92543
3.93624
3.93452
3.92918
3.93316
3.93597
3.93121
3.92671
3.92396
3.9182
3.9208
3.91904
3.92169
3.92828
3.92711
3.9283
3.92639
3.91605
3.91638
3.91384
3.92268
3.92733
3.92554
3.92705
3.9311
3.93084
3.93343
3.93512
3.93518
3.93851
3.933
3.93944
3.93368
3.93211
3.93667
3.93396
3.91736
3.91762
3.92268
3.91753
3.91106
3.91761
3.91633
3.91492
3.92201
3.91985
3.91329
3.91398
3.9171
3.92646
3.93007
3.92421
3.93116
3.92964
3.92831
3.92953
3.92925
3.92139
3.92774
3.93053
3.92647
3.92461
3.92309
3.92323
3.92391
3.91616
3.91395
3.91258
3.91168
3.91431
3.91525
3.92002
3.91847
3.90371
3.90542
3.90037
3.90463
3.90564
3.89838
3.90114
3.90797
3.90975
3.90919
3.90581
3.91162
3.90836
3.91969
3.90979
3.91334
3.90977
3.91246
3.9179
3.91744
3.91782
3.91334
3.91335
3.90083
3.90886
3.89695
3.90096
3.90661
3.90991
3.90978
3.90893
3.90016
3.9015
3.90652
3.90717
3.90992
3.91151
3.90501
3.90089
3.90183
3.90518
3.8893
3.89761
3.90619
3.8997
3.90044
3.89944
3.90166
3.90153
3.89997
3.88816
3.89798
3.89547
3.89533
3.8962
3.89796
3.897
3.89578
3.89577
3.89755
3.89227
3.89561
3.89416
3.89805
3.8964
3.89742
3.89626
3.8935
3.89597
3.89806
3.89598
3.88694
3.89262
3.88797
3.89766
3.88849
3.89267
3.88756
3.88714
3.88786
3.89582
3.89863
3.89574
3.88402
3.89678
3.89357
3.89092
3.88913
3.89934
3.89656
3.89201
3.89236
3.89593
3.89467
3.88785
3.90019
3.89533
3.88966
3.89367
3.89338
3.90143
3.89889
3.90272
3.8994
3.90208
3.89689
3.90394
3.89671
3.90088
3.89743
3.89744
3.89839
3.89988
3.90124
3.89781
3.90516
3.88224
3.87829
3.88548
3.88697
3.88115
3.88013
3.88368
3.88348
3.88203
3.8866
3.88751
3.89182
3.89067
3.89013
3.89064
3.86837
3.86801
3.87189
3.87819
3.87494
3.87315
3.87502
3.87232
3.87012
3.87687
3.8762
3.87604
3.87768
3.87654
3.8817
3.8818
3.87547
3.86327
3.86565
3.86637
3.86951
3.86674
3.8705
3.88737
3.88398
3.88302
3.89048
3.88612
3.88218
3.88429
3.88147
3.87364
3.88012
3.87661
3.88661
3.88363
3.88386
3.883
3.88593
3.88235
3.88678
3.88467
3.88269
3.87808
3.888
3.88973
3.88421
3.88047
3.88207
3.88399
3.87222
3.87546
3.87964
3.88071
3.87828
3.87764
3.88219
3.87529
3.87491
3.89029
3.89008
3.88991
3.89162
3.89044
3.8918
3.8871
3.88604
3.88519
3.88823
3.88762
3.88944
3.88566
3.88765
3.88467
3.88321
3.8774
3.88276
3.88784
3.88543
3.87951
3.88551
3.87836
3.88473
3.88491
3.88418
3.88333
3.88186
3.87944
3.88261
3.88403
3.87754
3.87789
3.87888
3.8774
3.8763
3.87885
3.87738
3.88127
3.88182
3.87958
3.87467
3.88831
3.87806
3.87773
3.88393
3.88466
3.88252
3.86794
3.8755
3.87067
3.86905
3.86895
3.86436
3.87328
3.86902
3.86449
3.8689
3.86998
3.86529
3.86968
3.86727
3.87559
3.87331
3.86695
3.86612
3.86197
3.86571
3.86833
3.86962
3.86755
3.86634
3.86724
3.8691
3.86211
3.86085
3.85618
3.8488
3.86253
3.86294
3.86643
3.86497
3.85955
3.86049
3.86787
3.86819
3.8596
3.86457
3.86817
3.86807
3.86525
3.8646
3.86276
3.86493
3.85939
3.85423
3.86673
3.87089
3.87035
3.87091
3.86476
3.87315
3.8736
3.87118
3.87419
3.86867
3.8683
3.85442
3.85312
3.85758
3.8467
3.8536
3.85138
3.8507
3.8593
3.85968
3.854
3.85071
3.84415
3.84933
3.84826
3.85149
3.85757
3.85102
3.84754
3.84742
3.85681
3.85678
3.85867
3.85695
3.8584
3.85678
3.87014
3.87124
3.86448
3.8727
3.86812
3.8747
3.86927
3.87038
3.87114
3.87246
3.86872
3.86841
3.87289
3.86992
3.87636
3.86552
3.8713
3.8715
3.86734
3.86925
3.87181
3.86911
3.86039
3.85709
3.85326
3.86018
3.86282
3.8584
3.85952
3.85247
3.86055
3.85656
3.85449
3.85587
3.85674
3.85575
3.8491
3.84903
3.85235
3.85105
3.85772
3.86106
3.86097
3.85334
3.85296
3.85884
3.85736
3.86174
3.85667
3.85878
3.8542
3.85739
3.86193
3.85498
3.86328
3.85534
3.84877
3.85463
3.85344
3.85328
3.85254
3.84999
3.85753
3.85756
3.85503
3.85977
3.86639
3.86743
3.86552
3.86396
3.86492
3.86353
3.86828
3.85527
3.84624
3.85117
3.84996
3.84084
3.85229
3.84881
3.85004
3.84785
3.84732
3.84649
3.8516
3.85618
3.84731
3.84848
3.8519
3.85121
3.8613
3.85858
3.8616
3.86374
3.85437
3.85438
3.85387
3.85156
3.85588
3.85356
3.85328
3.86163
3.85831
3.85428
3.8562
3.8722
3.86853
3.87084
3.87119
3.85897
3.86427
3.86089
3.86603
3.86576
3.86961
3.86949
3.86601
3.86433
3.86305
3.86384
3.86657
3.86844
3.86693
3.86824
3.86571
3.87129
3.86807
3.8664
3.86696
3.86864
3.86625
3.86466
3.8643
3.86514
3.86521
3.86707
3.87036
3.86912
3.86137
3.8777
3.87375
3.86852
3.88231
3.88436
3.88796
3.88597
3.87386
3.87897
3.88155
3.8917
3.88566
3.88316
3.88473
3.8852
3.88425
3.8837
3.88335
3.90872
3.8998
3.9048
3.90513
3.89891
3.90112
3.9038
3.90622
3.89581
3.89966
3.89212
3.88696
3.88966
3.87937
3.90966
3.91126
3.91266
3.91427
3.9045
3.90987
3.92503
3.92501
3.92409
3.92387
3.92251
3.92521
3.92152
3.92076
3.92251
3.91935
3.91378
3.91566
3.91571
3.9185
3.9232
3.92051
3.91899
3.91941
3.91857
3.91731
3.9173
3.90537
3.90692
3.91679
3.9099
3.90951
3.91395
3.91137
3.91009
3.90827
3.91013
3.91472
3.92532
3.92531
3.93375
3.93126
3.92569
3.92516
3.91776
3.92245
3.93006
3.92526
3.92508
3.92205
3.92467
3.92453
3.92678
3.92767
3.91661
3.91686
3.92137
3.91388
3.91811
3.91545
3.91262
3.92146
3.91714
3.91351
3.91066
3.91169
3.91361
3.91799
3.9206
3.92522
3.92648
3.93297
3.92098
3.91937
3.92776
3.92703