/*--------------------------------*- C++ -*----------------------------------*\
| =========                 |                                                 |
| \\      /  F ield         | OpenFOAM: The Open Source CFD Toolbox           |
|  \\    /   O peration     | Version:  v1612+                                |
|   \\  /    A nd           | Web:      www.OpenFOAM.com                      |
|    \\/     M anipulation  |                                                 |
\*---------------------------------------------------------------------------*/
FoamFile
{
    version     2.0;
    format      ascii;
    class       volScalarField;
    location    "50";
    object      p;
}
// * * * * * * * * * * * * * * * * * * * * * * * * * * * * * * * * * * * * * //

dimensions      [0 2 -2 0 0 0 0];

internalField   nonuniform List<scalar> 
16797
(
3.32351
3.29245
3.29272
3.29297
3.29239
3.2939
3.29082
3.28994
3.29089
3.29056
3.29075
3.28724
3.28622
3.28959
3.29009
3.28539
3.28971
3.29415
3.2936
3.28963
3.31086
3.31648
3.30691
3.30848
3.31085
3.31534
3.31486
3.30591
3.30996
3.30553
3.3047
3.30613
3.30876
3.3076
3.3061
3.30894
3.2764
3.27747
3.27197
3.27378
3.27436
3.27726
3.27439
3.27471
3.27837
3.27951
3.27538
3.27259
3.27682
3.27649
3.27259
3.27896
3.29114
3.29104
3.28566
3.28919
3.29022
3.29208
3.28694
3.28812
3.28792
3.28717
3.29145
3.28554
3.2938
3.29112
3.29227
3.29025
3.29213
3.26092
3.25762
3.26425
3.26331
3.27075
3.26457
3.2634
3.25635
3.26203
3.26376
3.25638
3.25389
3.26117
3.25904
3.26061
3.26877
3.27058
3.26445
3.27085
3.2707
3.27336
3.26928
3.26903
3.27084
3.27502
3.27636
3.27168
3.27074
3.26862
3.27357
3.27395
3.27682
3.27191
3.26466
3.27073
3.2698
3.26939
3.26989
3.27175
3.2675
3.26925
3.26129
3.26765
3.27007
3.27265
3.27293
3.27155
3.26859
3.26659
3.26244
3.32535
3.32399
3.31964
3.32664
3.32321
3.32388
3.32687
3.32235
3.32712
3.33472
3.32391
3.32171
3.32528
3.31962
3.3161
3.32215
3.31795
3.3198
3.32112
3.32032
3.32271
3.31553
3.31533
3.31007
3.31412
3.31331
3.31773
3.32196
3.31808
3.32023
3.31621
3.3136
3.30786
3.31198
3.31247
3.31616
3.3151
3.31727
3.31925
3.31134
3.31732
3.31331
3.32016
3.31289
3.30981
3.3102
3.31689
3.30077
3.29949
3.30341
3.30735
3.30333
3.29928
3.3068
3.30701
3.30668
3.30194
3.30547
3.30535
3.30537
3.30707
3.3045
3.31146
3.31102
3.29899
3.30018
3.30864
3.30705
3.30533
3.29754
3.30173
3.30783
3.30108
3.30196
3.30327
3.30181
3.30509
3.30552
3.29848
3.30024
3.28022
3.2765
3.27266
3.27586
3.26903
3.27202
3.27585
3.28012
3.27469
3.26759
3.26736
3.27146
3.27209
3.29678
3.30352
3.29021
3.29835
3.29698
3.29648
3.30164
3.30388
3.29548
3.29207
3.30307
3.30187
3.29825
3.2973
3.30056
3.29975
3.29646
3.29828
3.30475
3.30347
3.30408
3.30511
3.31007
3.31
3.30758
3.30486
3.30811
3.30811
3.31347
3.31442
3.31031
3.31
3.30392
3.30575
3.31195
3.30515
3.31338
3.31301
3.30843
3.28228
3.28113
3.27969
3.27951
3.28121
3.28162
3.27745
3.28216
3.2847
3.28394
3.28181
3.27925
3.28191
3.279
3.28264
3.28448
3.28272
3.2821
3.27976
3.27696
3.27775
3.28391
3.28052
3.27734
3.27592
3.27872
3.2825
3.28028
3.27788
3.28383
3.28207
3.27958
3.277
3.28213
3.28882
3.2802
3.28012
3.28121
3.28441
3.28175
3.27805
3.31077
3.31394
3.30509
3.30702
3.31282
3.31255
3.30942
3.30424
3.30744
3.31486
3.31205
3.31409
3.30587
3.30776
3.30255
3.30049
3.30313
3.30251
3.30271
3.30291
3.3024
3.29917
3.29783
3.29963
3.30488
3.29865
3.30208
3.30074
3.29592
3.30078
3.29874
3.29851
3.30058
3.29932
3.32555
3.32713
3.31992
3.31583
3.32067
3.31931
3.3294
3.32014
3.3196
3.31787
3.31961
3.31046
3.31866
3.32999
3.32059
3.3246
3.31979
3.3262
3.31782
3.31851
3.32359
3.33107
3.32865
3.32478
3.29205
3.29868
3.30477
3.3001
3.29647
3.30059
3.30108
3.29961
3.31649
3.31512
3.31213
3.3155
3.30539
3.31311
3.30904
3.31156
3.30567
3.31154
3.32175
3.3112
3.31263
3.30967
3.31725
3.30839
3.30961
3.30863
3.32419
3.31954
3.31408
3.27875
3.28161
3.28188
3.27824
3.28082
3.28011
3.27835
3.27871
3.28356
3.28041
3.28089
3.27819
3.2887
3.27845
3.28287
3.28227
3.28011
3.28013
3.28211
3.28181
3.28071
3.28186
3.26424
3.27254
3.26823
3.27152
3.26732
3.25751
3.26787
3.25608
3.28569
3.28034
3.28792
3.29084
3.28662
3.28697
3.28132
3.28743
3.27362
3.27946
3.28122
3.28503
3.28526
3.28133
3.27911
3.27684
3.27933
3.27508
3.28045
3.28937
3.28499
3.28637
3.28605
3.28019
3.303
3.30231
3.2934
3.30449
3.31244
3.29983
3.30085
3.30269
3.3016
3.30019
3.30368
3.30111
3.30287
3.30316
3.29564
3.30253
3.30226
3.30527
3.3022
3.30439
3.27235
3.27243
3.27684
3.27557
3.27495
3.27479
3.27388
3.27301
3.26968
3.27312
3.27419
3.27585
3.27784
3.27674
3.27812
3.27428
3.27318
3.27317
3.2734
3.26643
3.27121
3.2698
3.31448
3.31499
3.30774
3.31682
3.31672
3.31502
3.31481
3.31826
3.31136
3.31827
3.3193
3.31494
3.31701
3.31363
3.31246
3.31744
3.30776
3.3197
3.31106
3.31233
3.29014
3.2892
3.2953
3.29377
3.28974
3.29541
3.29925
3.29377
3.29437
3.29586
3.29448
3.29813
3.2979
3.29437
3.29397
3.28968
3.29294
3.29058
3.31014
3.31486
3.31525
3.31454
3.31064
3.31885
3.3207
3.31583
3.31265
3.31144
3.31171
3.31546
3.31155
3.31035
3.30717
3.31011
3.29011
3.28444
3.28523
3.27384
3.28208
3.28513
3.28657
3.28301
3.28423
3.28343
3.28864
3.28963
3.28532
3.28578
3.28356
3.27964
3.30833
3.3078
3.30795
3.30719
3.30882
3.30447
3.30123
3.3071
3.30445
3.31328
3.30389
3.31059
3.30602
3.31054
3.30919
3.30908
3.30609
3.30244
3.30272
3.30787
3.30733
3.30234
3.28701
3.28314
3.28919
3.28209
3.28653
3.28984
3.28725
3.28792
3.2858
3.288
3.27758
3.27937
3.27883
3.28169
3.27847
3.28057
3.31067
3.30761
3.30755
3.30976
3.31194
3.30759
3.31273
3.31736
3.31382
3.30552
3.31433
3.31279
3.31456
3.31696
3.30236
3.31067
3.313
3.31791
3.31535
3.31419
3.28644
3.28441
3.28038
3.28301
3.28379
3.29011
3.28517
3.28678
3.28255
3.28447
3.2814
3.28586
3.28553
3.27903
3.28243
3.28454
3.28184
3.2912
3.27976
3.28026
3.28349
3.27808
3.2795
3.27815
3.28247
3.27299
3.28225
3.2813
3.27627
3.25698
3.25221
3.26569
3.25381
3.25653
3.26586
3.26223
3.25273
3.26098
3.26726
3.256
3.26038
3.26291
3.26057
3.29559
3.2882
3.29224
3.29703
3.29776
3.29947
3.29508
3.28708
3.29378
3.29173
3.26913
3.26623
3.26755
3.26241
3.26528
3.26676
3.26506
3.26566
3.26714
3.26826
3.26719
3.27063
3.26785
3.26459
3.26648
3.26574
3.29782
3.29556
3.2967
3.29059
3.29816
3.29919
3.29948
3.29625
3.2986
3.30063
3.29795
3.29155
3.29378
3.29181
3.30031
3.29988
3.30081
3.29641
3.2965
3.2961
3.26353
3.2691
3.26466
3.27748
3.26299
3.2662
3.26683
3.2694
3.26675
3.26813
3.30734
3.30649
3.31113
3.30927
3.30881
3.3102
3.31774
3.31496
3.29531
3.3064
3.31464
3.31694
3.31003
3.31143
3.31051
3.3177
3.31245
3.27642
3.27819
3.27768
3.27023
3.2824
3.27484
3.27315
3.27674
3.27311
3.27047
3.26608
3.26773
3.26959
3.26997
3.27597
3.27495
3.27498
3.27191
3.27744
3.27765
3.27235
3.27413
3.27392
3.32458
3.32479
3.32456
3.32431
3.32075
3.31947
3.31898
3.32381
3.32234
3.32612
3.31855
3.31607
3.31707
3.31786
3.314
3.32309
3.32335
3.31902
3.31588
3.31411
3.29632
3.29976
3.29756
3.29884
3.29783
3.29923
3.30347
3.29494
3.29866
3.30815
3.29805
3.30218
3.30097
3.30239
3.29957
3.30068
3.3014
3.26646
3.26716
3.26445
3.25873
3.25701
3.27566
3.26867
3.27128
3.26526
3.25569
3.26349
3.26336
3.26703
3.27199
3.26507
3.27049
3.27111
3.26811
3.27506
3.27782
3.27262
3.27378
3.27197
3.26577
3.2642
3.27012
3.26527
3.26816
3.26672
3.27502
3.27344
3.2733
3.27595
3.27287
3.2762
3.2766
3.27416
3.28088
3.26077
3.26442
3.28356
3.2808
3.27634
3.27322
3.27376
3.27796
3.28197
3.27951
3.28208
3.27975
3.28374
3.2767
3.28226
3.28179
3.27324
3.27736
3.28023
3.28671
3.28034
3.28705
3.28295
3.28064
3.27852
3.28814
3.28444
3.28165
3.28162
3.27958
3.28473
3.28182
3.2841
3.28868
3.28898
3.2831
3.28594
3.27893
3.29175
3.28553
3.28805
3.29067
3.28659
3.2901
3.28864
3.29592
3.29025
3.29175
3.29026
3.28607
3.29095
3.28568
3.29245
3.29175
3.29223
3.29063
3.29038
3.28992
3.29224
3.29351
3.29273
3.29215
3.29964
3.29031
3.29297
3.30093
3.29704
3.29589
3.30299
3.29462
3.30124
3.29608
3.29816
3.29774
3.30255
3.30038
3.3035
3.29963
3.30165
3.29667
3.30247
3.30291
3.29811
3.305
3.30083
3.29956
3.29946
3.30768
3.30262
3.30338
3.30078
3.29912
3.30829
3.30282
3.30355
3.30473
3.31087
3.30521
3.30299
3.30923
3.30722
3.3055
3.30937
3.31139
3.30858
3.30812
3.31997
3.31805
3.31721
3.31411
3.31161
3.3104
3.31359
3.30637
3.30729
3.31571
3.3168
3.3088
3.31676
3.31148
3.31167
3.31412
3.31733
3.31878
3.31631
3.31749
3.31087
3.3102
3.32254
3.32049
3.31601
3.31902
3.31765
3.31967
3.31555
3.31735
3.32005
3.32241
3.32437
3.32531
3.32899
3.32115
3.31626
3.32108
3.32421
3.32269
3.31566
3.328
3.32897
3.32644
3.32623
3.33146
3.33126
3.32594
3.32768
3.32128
3.32541
3.32861
3.3218
3.32717
3.32644
3.33094
3.32464
3.32614
3.32342
3.3275
3.32548
3.33012
3.32736
3.3306
3.32732
3.32596
3.32449
3.32489
3.32651
3.32249
3.32979
3.3299
3.33251
3.31422
3.32368
3.32193
3.31607
3.32593
3.32817
3.32566
3.32246
3.32152
3.32512
3.32012
3.32117
3.32499
3.32292
3.32372
3.322
3.31992
3.32842
3.3228
3.3258
3.32539
3.32298
3.32219
3.33244
3.32879
3.32678
3.32861
3.33053
3.31658
3.32459
3.3193
3.32152
3.32305
3.31913
3.32371
3.3275
3.32589
3.32753
3.33031
3.33155
3.32326
3.3265
3.32326
3.3226
3.32364
3.32619
3.33056
3.32429
3.32965
3.32361
3.32445
3.32387
3.32566
3.32821
3.32698
3.32865
3.3248
3.33159
3.32385
3.32023
3.32635
3.32229
3.32602
3.3273
3.32384
3.33019
3.32456
3.323
3.32491
3.3099
3.31949
3.32155
3.31696
3.32019
3.31171
3.31222
3.31601
3.32101
3.31964
3.3146
3.31393
3.31497
3.31444
3.31566
3.31611
3.31036
3.32263
3.31904
3.31421
3.31332
3.31664
3.31697
3.31458
3.31306
3.3196
3.31661
3.31411
3.31219
3.32295
3.3187
3.31753
3.31574
3.32159
3.3246
3.32144
3.32139
3.32406
3.32182
3.32341
3.32514
3.32056
3.32203
3.3221
3.32309
3.32294
3.32994
3.32593
3.324
3.32118
3.32487
3.32548
3.31944
3.32043
3.32247
3.32328
3.32232
3.32032
3.30859
3.31743
3.32326
3.32065
3.31536
3.31725
3.32295
3.32185
3.32207
3.31986
3.31101
3.31203
3.31474
3.31637
3.32217
3.31395
3.31467
3.31744
3.32018
3.3126
3.30861
3.31865
3.31619
3.32139
3.32048
3.31938
3.31686
3.32113
3.32108
3.32856
3.32876
3.32789
3.32184
3.32263
3.30785
3.30819
3.31013
3.31782
3.31247
3.31672
3.31637
3.31759
3.31901
3.30916
3.31653
3.31674
3.3183
3.31734
3.30777
3.31536
3.31559
3.31648
3.31825
3.31472
3.30957
3.32141
3.31608
3.3214
3.31927
3.31091
3.31997
3.31303
3.31188
3.31818
3.3116
3.31887
3.31594
3.30589
3.30754
3.31694
3.31393
3.31237
3.30818
3.31242
3.31224
3.3099
3.3039
3.30812
3.30085
3.30827
3.30152
3.30513
3.30802
3.30855
3.30266
3.30243
3.30629
3.30303
3.30625
3.30742
3.30992
3.30846
3.31421
3.3163
3.31079
3.30818
3.31234
3.30801
3.31527
3.30602
3.30458
3.30684
3.30948
3.30816
3.30855
3.30457
3.3069
3.30241
3.30842
3.31039
3.3006
3.31235
3.31266
3.31661
3.31751
3.31225
3.30986
3.31142
3.31393
3.30715
3.30721
3.30981
3.31707
3.31089
3.30704
3.31222
3.31111
3.31032
3.31217
3.31405
3.30694
3.31301
3.30367
3.31235
3.31615
3.31364
3.30912
3.30734
3.3153
3.31199
3.30807
3.31126
3.31278
3.30937
3.31232
3.32062
3.3236
3.3208
3.31263
3.31357
3.32072
3.31504
3.3165
3.31349
3.31577
3.32287
3.31514
3.31589
3.31693
3.3154
3.3158
3.31302
3.31166
3.31444
3.31741
3.31401
3.3133
3.3123
3.32271
3.32685
3.32664
3.32734
3.31685
3.32039
3.31702
3.32179
3.32493
3.3225
3.31573
3.30876
3.31468
3.31515
3.31646
3.31941
3.31223
3.30628
3.30168
3.31078
3.30226
3.30919
3.30557
3.3068
3.31388
3.31118
3.31599
3.3133
3.30911
3.30277
3.30282
3.30957
3.3083
3.31597
3.31255
3.31334
3.31599
3.31088
3.30468
3.31364
3.3138
3.31293
3.315
3.31347
3.31422
3.30814
3.30914
3.30472
3.30609
3.30352
3.3038
3.30304
3.30589
3.3081
3.30966
3.30765
3.31715
3.32224
3.31441
3.31328
3.31743
3.31639
3.30506
3.31065
3.3086
3.31133
3.30855
3.31027
3.31068
3.30334
3.30183
3.30478
3.31084
3.3073
3.30545
3.30406
3.30525
3.30979
3.3082
3.30124
3.3044
3.30693
3.29775
3.29849
3.30477
3.29894
3.30484
3.2985
3.30166
3.30518
3.30027
3.29958
3.29977
3.30735
3.30728
3.30031
3.30753
3.3063
3.30902
3.30452
3.30446
3.31025
3.30583
3.31032
3.30915
3.30167
3.30727
3.30776
3.30478
3.30249
3.29874
3.30244
3.299
3.30581
3.30436
3.30185
3.29942
3.29923
3.30016
3.30218
3.29753
3.30448
3.30909
3.29887
3.29948
3.2954
3.30227
3.29824
3.30556
3.30684
3.2985
3.29891
3.30003
3.30201
3.30418
3.30283
3.30123
3.30405
3.30004
3.29534
3.30544
3.30391
3.31052
3.31048
3.30928
3.3058
3.3052
3.308
3.30897
3.30245
3.30238
3.29937
3.29784
3.29966
3.29758
3.29338
3.28926
3.29772
3.29851
3.29512
3.29987
3.29795
3.30636
3.31019
3.31374
3.30039
3.29916
3.2995
3.29865
3.2979
3.29786
3.30031
3.29459
3.30278
3.29954
3.3024
3.29472
3.29981
3.29805
3.30876
3.29897
3.30461
3.30298
3.29686
3.2947
3.29845
3.30045
3.31043
3.30628
3.30832
3.30653
3.302
3.29645
3.30121
3.3008
3.29928
3.29744
3.29592
3.29255
3.29612
3.298
3.30402
3.2947
3.29296
3.30199
3.29636
3.30568
3.29952
3.30338
3.29754
3.30481
3.30103
3.30283
3.29753
3.29741
3.30454
3.30681
3.30264
3.29907
3.3005
3.29832
3.29923
3.30332
3.30116
3.30322
3.28742
3.28678
3.29797
3.2971
3.29291
3.29263
3.2926
3.29919
3.29402
3.29711
3.29428
3.29403
3.29098
3.3054
3.30324
3.3062
3.30326
3.29762
3.29941
3.30232
3.29649
3.30217
3.29951
3.29349
3.29569
3.29402
3.29846
3.29052
3.28991
3.29767
3.29498
3.29363
3.2954
3.29632
3.30081
3.30136
3.2979
3.30124
3.29018
3.28621
3.29288
3.29706
3.2993
3.29526
3.30136
3.30002
3.29848
3.29336
3.2931
3.28741
3.28771
3.29461
3.2854
3.28402
3.28503
3.28447
3.29241
3.28957
3.29014
3.29777
3.29364
3.2899
3.28961
3.29065
3.29047
3.29451
3.29329
3.29386
3.2943
3.29758
3.29343
3.2935
3.29165
3.28634
3.29057
3.29047
3.29101
3.29533
3.29904
3.2946
3.29325
3.29269
3.2858
3.28828
3.29093
3.28616
3.28342
3.29044
3.2893
3.2867
3.28961
3.28253
3.28582
3.28449
3.29379
3.29807
3.28834
3.29072
3.29802
3.2957
3.28603
3.29209
3.29482
3.29373
3.28603
3.28956
3.29032
3.29146
3.28858
3.2884
3.2943
3.29212
3.28991
3.29211
3.28961
3.29257
3.29956
3.2912
3.29393
3.29583
3.29525
3.29152
3.28921
3.28934
3.29166
3.2906
3.29953
3.2916
3.29665
3.28847
3.29119
3.29481
3.29521
3.29464
3.29918
3.29369
3.29101
3.29899
3.29404
3.2843
3.2919
3.29517
3.28903
3.28959
3.29234
3.28632
3.28587
3.29453
3.29883
3.29654
3.29172
3.29136
3.28734
3.28851
3.29347
3.29505
3.29323
3.29414
3.28792
3.29108
3.28689
3.28962
3.28508
3.29141
3.29262
3.29958
3.29469
3.29566
3.29167
3.30108
3.28978
3.28833
3.294
3.29923
3.29563
3.29733
3.29063
3.28138
3.28511
3.28022
3.28501
3.28204
3.28494
3.28982
3.29086
3.28574
3.28941
3.29088
3.28183
3.28912
3.29328
3.29177
3.2886
3.28697
3.28007
3.28218
3.29391
3.29888
3.29644
3.29719
3.29618
3.29202
3.2886
3.29013
3.28891
3.28734
3.28001
3.29256
3.29113
3.28688
3.28725
3.28771
3.29052
3.28811
3.28387
3.28059
3.29039
3.29158
3.28559
3.28907
3.2859
3.28829
3.2881
3.29267
3.28279
3.28757
3.28886
3.28764
3.28428
3.28346
3.28662
3.28898
3.28458
3.27853
3.2817
3.27359
3.27677
3.28623
3.28262
3.28578
3.28855
3.28468
3.29145
3.29044
3.28356
3.28251
3.2777
3.27759
3.2822
3.27952
3.27993
3.28391
3.28538
3.28588
3.27995
3.28491
3.28548
3.28026
3.28141
3.27665
3.2789
3.28224
3.28291
3.28228
3.2834
3.28106
3.2843
3.269
3.28033
3.279
3.28302
3.2784
3.27445
3.28147
3.27499
3.27567
3.27945
3.27938
3.28806
3.28165
3.28454
3.28973
3.29012
3.27327
3.27617
3.27459
3.27911
3.28376
3.27959
3.27622
3.28395
3.28304
3.28246
3.27559
3.27724
3.27856
3.27461
3.28116
3.27534
3.27531
3.28248
3.27802
3.28017
3.27606
3.28462
3.28168
3.28648
3.28395
3.28218
3.28095
3.28571
3.28229
3.27964
3.28004
3.2844
3.28667
3.28313
3.2858
3.28009
3.28839
3.2822
3.28291
3.27927
3.28291
3.28526
3.28199
3.28118
3.28983
3.29003
3.29052
3.28967
3.28814
3.27898
3.28475
3.28346
3.28045
3.28299
3.28348
3.28354
3.28567
3.27557
3.28304
3.28525
3.27951
3.27961
3.27808
3.28501
3.27984
3.27771
3.2754
3.27748
3.28031
3.27847
3.27006
3.27025
3.27789
3.27268
3.27608
3.27469
3.27856
3.27515
3.26719
3.27167
3.27038
3.27362
3.27175
3.27581
3.28507
3.28116
3.27905
3.27401
3.27767
3.27634
3.28477
3.28202
3.28141
3.2875
3.28365
3.28266
3.28404
3.28145
3.2814
3.27975
3.27104
3.27569
3.27574
3.2783
3.27414
3.27711
3.28358
3.28251
3.28394
3.28556
3.27742
3.27401
3.28116
3.28303
3.27991
3.28146
3.28243
3.28324
3.27269
3.27363
3.28038
3.27875
3.28561
3.28621
3.28005
3.27841
3.28704
3.28535
3.27567
3.27267
3.27221
3.27638
3.27755
3.27403
3.27397
3.27565
3.26975
3.27659
3.28178
3.27807
3.27974
3.27994
3.27665
3.26693
3.27443
3.27009
3.26833
3.27662
3.27105
3.27113
3.26733
3.27827
3.27537
3.27272
3.27483
3.28099
3.27736
3.27785
3.2701
3.27159
3.27888
3.27671
3.27732
3.28055
3.27796
3.25885
3.26613
3.26907
3.26535
3.26455
3.26731
3.25818
3.26726
3.25959
3.26234
3.27047
3.26855
3.26907
3.26569
3.27016
3.27504
3.27234
3.27627
3.26821
3.27733
3.2717
3.28111
3.28076
3.27743
3.27973
3.27883
3.26852
3.27118
3.27544
3.27029
3.27479
3.26705
3.27214
3.27119
3.27948
3.27157
3.2751
3.27506
3.27668
3.26897
3.27149
3.27121
3.27824
3.27367
3.27653
3.27645
3.2729
3.2754
3.27963
3.28477
3.28438
3.27441
3.27497
3.27523
3.27696
3.27348
3.27417
3.27452
3.2745
3.26928
3.26447
3.26028
3.27098
3.27042
3.27331
3.27311
3.27596
3.27029
3.2768
3.26973
3.27519
3.27705
3.27222
3.26886
3.27842
3.27333
3.27377
3.27378
3.28062
3.27723
3.27301
3.28291
3.27939
3.27971
3.27434
3.27389
3.28029
3.27546
3.2751
3.27738
3.25927
3.25833
3.26737
3.26439
3.27205
3.26791
3.27865
3.27265
3.26913
3.27457
3.26853
3.27285
3.27403
3.27313
3.26229
3.26618
3.26526
3.26835
3.2682
3.26655
3.26651
3.2646
3.26796
3.27433
3.27131
3.26941
3.26861
3.26799
3.25548
3.25781
3.26547
3.26569
3.26172
3.26392
3.26292
3.26674
3.26783
3.26984
3.26727
3.26223
3.26311
3.26645
3.26456
3.26414
3.26887
3.2687
3.26989
3.26466
3.26775
3.2699
3.26619
3.26947
3.26707
3.27373
3.27974
3.27144
3.27089
3.27488
3.27119
3.26556
3.27354
3.27423
3.26974
3.27625
3.27156
3.26751
3.27034
3.26541
3.27251
3.27424
3.27736
3.27181
3.27296
3.27562
3.27057
3.27561
3.27697
3.27716
3.26862
3.2705
3.26786
3.26921
3.27232
3.26711
3.26867
3.2729
3.26764
3.27163
3.27169
3.27783
3.27276
3.27779
3.27148
3.27022
3.27006
3.26509
3.26641
3.26522
3.26784
3.26458
3.27107
3.26479
3.26582
3.27354
3.26967
3.27098
3.27143
3.2663
3.27082
3.26769
3.27504
3.26431
3.27503
3.27274
3.26904
3.26978
3.26703
3.26522
3.26308
3.26643
3.26599
3.26009
3.26732
3.26755
3.2716
3.2672
3.27369
3.26759
3.2656
3.26201
3.27034
3.2722
3.26979
3.26916
3.25816
3.26439
3.26156
3.25877
3.25755
3.25685
3.25613
3.25762
3.26035
3.25555
3.25606
3.25918
3.25387
3.2506
3.26254
3.26781
3.26596
3.26037
3.26247
3.2653
3.2685
3.2654
3.26952
3.2718
3.27015
3.26512
3.26892
3.26899
3.26612
3.26641
3.27425
3.27042
3.26999
3.27019
3.26809
3.26596
3.26986
3.27002
3.26094
3.25993
3.25954
3.25231
3.2517
3.2522
3.25584
3.26089
3.26345
3.26952
3.26628
3.26161
3.25828
3.25546
3.26313
3.26406
3.26368
3.26501
3.25865
3.25936
3.26587
3.26234
3.26324
3.26015
3.25968
3.2634
3.27085
3.27585
3.27512
3.27067
3.26747
3.27205
3.27205
3.267
3.27175
3.27015
3.27037
3.2681
3.27441
3.27547
3.27385
3.27206
3.26653
3.27758
3.27349
3.27173
3.26762
3.26699
3.26723
3.27044
3.27252
3.27064
3.2584
3.25891
3.2576
3.257
3.25979
3.26485
3.25978
3.25222
3.2651
3.26449
3.27134
3.26454
3.27243
3.26856
3.26561
3.26637
3.26894
3.26676
3.26712
3.27352
3.26885
3.26796
3.26534
3.26489
3.26937
3.26855
3.26887
3.26788
3.2781
3.27323
3.27002
3.27297
3.27627
3.278
3.2747
3.27725
3.27611
3.28226
3.28191
3.27562
3.271
3.2759
3.27263
3.27331
3.26535
3.26571
3.26597
3.26702
3.26669
3.26471
3.27174
3.26673
3.26904
3.26352
3.25769
3.2596
3.26222
3.25834
3.25867
3.27448
3.27119
3.27103
3.27162
3.2657
3.26503
3.26875
3.26507
3.26857
3.27168
3.26813
3.26759
3.27367
3.26837
3.26615
3.2667
3.26467
3.26389
3.26497
3.26687
3.25849
3.26551
3.26553
3.26328
3.26443
3.25994
3.26216
3.26455
3.27905
3.2788
3.2827
3.27371
3.27546
3.27792
3.27609
3.27744
3.27474
3.27214
3.27814
3.27913
3.2776
3.28097
3.27433
3.27574
3.27794
3.26735
3.27618
3.27197
3.27263
3.27106
3.2726
3.27397
3.27231
3.27176
3.26531
3.26311
3.25612
3.26601
3.2639
3.26647
3.26288
3.26638
3.26575
3.27116
3.26922
3.26467
3.27118
3.27192
3.2751
3.27181
3.27136
3.26976
3.27653
3.27829
3.27775
3.27908
3.27997
3.27909
3.27896
3.27988
3.28638
3.28729
3.28703
3.29031
3.28712
3.28592
3.28586
3.28674
3.28584
3.28368
3.28396
3.28937
3.28988
3.28954
3.29395
3.29194
3.28955
3.28499
3.29437
3.29235
3.29088
3.28882
3.26894
3.27701
3.27139
3.27805
3.27962
3.27871
3.27274
3.27716
3.27867
3.27931
3.27709
3.28093
3.27991
3.27904
3.27677
3.27763
3.27334
3.28525
3.27976
3.27863
3.28863
3.27989
3.28849
3.26779
3.26799
3.26948
3.27616
3.2714
3.26782
3.27342
3.27113
3.27254
3.26628
3.26876
3.27217
3.26641
3.28331
3.28
3.27953
3.27875
3.27488
3.28407
3.27704
3.27815
3.27652
3.27244
3.27312
3.27733
3.28286
3.28649
3.27847
3.28007
3.2821
3.27096
3.27093
3.27667
3.28028
3.28517
3.27624
3.27701
3.27822
3.27508
3.28653
3.29243
3.28957
3.2817
3.28653
3.28598
3.28843
3.28876
3.28791
3.29157
3.29032
3.2814
3.27878
3.28571
3.28798
3.285
3.28764
3.28068
3.28792
3.28411
3.28849
3.28779
3.27993
3.27913
3.2802
3.28013
3.28145
3.27786
3.27459
3.27905
3.27905
3.27839
3.28263
3.28404
3.2816
3.28116
3.2817
3.2852
3.27883
3.28236
3.2841
3.28326
3.2848
3.28942
3.28758
3.27944
3.2791
3.28199
3.29795
3.29541
3.29771
3.2982
3.29548
3.29415
3.29054
3.29562
3.30043
3.29568
3.29749
3.29622
3.29161
3.29205
3.29201
3.29493
3.29758
3.30004
3.29993
3.29953
3.29581
3.29916
3.29261
3.29125
3.29388
3.29382
3.2948
3.29641
3.30557
3.30409
3.2981
3.29556
3.29615
3.29544
3.29828
3.29754
3.29787
3.30109
3.29433
3.29123
3.29341
3.29504
3.28867
3.29069
3.29187
3.28476
3.28712
3.29649
3.29342
3.29264
3.29049
3.29143
3.29397
3.29465
3.29276
3.29021
3.29344
3.28548
3.29174
3.28322
3.28339
3.2886
3.28488
3.28696
3.28303
3.28823
3.28931
3.28782
3.28691
3.28619
3.28916
3.28853
3.28621
3.28562
3.28794
3.28789
3.2876
3.28666
3.29019
3.29299
3.2934
3.29352
3.2966
3.29262
3.29184
3.29676
3.30232
3.29958
3.29553
3.29111
3.29009
3.29382
3.29613
3.29375
3.29588
3.29397
3.29523
3.2931
3.29486
3.29443
3.30111
3.29664
3.29794
3.28394
3.29281
3.28214
3.28616
3.28867
3.29253
3.28948
3.28855
3.29412
3.29107
3.29245
3.29736
3.30084
3.29867
3.29118
3.29603
3.29661
3.29563
3.29746
3.29177
3.29073
3.30235
3.29798
3.29727
3.29674
3.30038
3.29827
3.29878
3.2986
3.30285
3.30571
3.30112
3.31197
3.31895
3.31537
3.31489
3.31448
3.30542
3.30187
3.30701
3.3034
3.31016
3.30611
3.3089
3.30869
3.30869
3.3103
3.31123
3.31095
3.30767
3.30802
3.30248
3.30159
3.30924
3.30532
3.30259
3.2996
3.30547
3.30545
3.3064
3.3086
3.30473
3.30746
3.29953
3.30548
3.30401
3.30034
3.29992
3.30152
3.29865
3.29406
3.29587
3.30135
3.29899
3.30038
3.29369
3.29715
3.29832
3.29461
3.29726
3.2979
3.29708
3.29891
3.29928
3.30437
3.30291
3.30104
3.30356
3.29997
3.29926
3.29886
3.29674
3.29983
3.30091
3.30202
3.30283
3.30122
3.30604
3.3013
3.30295
3.29952
3.29952
3.30326
3.30098
3.30662
3.30984
3.30263
3.30024
3.30817
3.30979
3.30452
3.30988
3.30731
3.31308
3.30846
3.30914
3.30682
3.30526
3.3106
3.30903
3.32063
3.32529
3.31981
3.31748
3.32278
3.31557
3.32045
3.31975
3.32488
3.32198
3.32199
3.32067
3.32365
3.32151
3.32213
3.3232
3.32402
3.32404
3.32542
3.32296
3.31998
3.31957
3.33002
3.32842
3.32649
3.30475
3.30941
3.30904
3.30822
3.31436
3.30915
3.3044
3.30424
3.30943
3.30744
3.30983
3.30879
3.3189
3.31443
3.31511
3.31507
3.32016
3.31526
3.31712
3.31254
3.32187
3.31889
3.31186
3.31022
3.31401
3.31675
3.30774
3.30724
3.30833
3.3117
3.30855
3.3107
3.29915
3.30634
3.30198
3.30073
3.30516
3.31878
3.3152
3.31674
3.3131
3.30806
3.31471
3.31158
3.31415
3.31524
3.31156
3.31051
3.30759
3.3148
3.31549
3.30811
3.31116
3.31526
3.31136
3.31943
3.31738
3.31889
3.31678
3.31296
3.31359
3.31197
3.32125
3.31841
3.30846
3.31111
3.30667
3.3085
3.31249
3.31035
3.32598
3.32337
3.32411
3.32189
3.3249
3.32657
3.31973
3.32347
3.32238
3.31962
3.32594
3.31875
3.32313
3.32078
3.32124
3.32568
3.32571
3.32846
3.32738
3.31919
3.32364
3.31967
3.3171
3.31282
3.31529
3.31801
3.32334
3.31637
3.3223
3.32366
3.32023
3.319
3.3247
3.32676
3.32837
3.32809
3.31871
3.32008
3.31667
3.31181
3.32409
3.32096
3.31287
3.3157
3.31955
3.31776
3.3161
3.31956
3.32578
3.31907
3.32155
3.32048
3.32255
3.31356
3.31306
3.30633
3.3164
3.31416
3.31229
3.3131
3.30988
3.30814
3.31056
3.30972
3.31539
3.3122
3.32326
3.328
3.32064
3.31921
3.32348
3.32227
3.32716
3.32364
3.3203
3.32394
3.32425
3.32418
3.31755
3.32031
3.3219
3.32154
3.31671
3.3171
3.3125
3.31736
3.32149
3.32018
3.31935
3.31824
3.31679
3.31608
3.31986
3.31601
3.3188
3.31931
3.31844
3.31742
3.31905
3.31857
3.3188
3.319
3.32288
3.33326
3.32668
3.33047
3.32881
3.33043
3.32271
3.31937
3.32263
3.32143
3.32762
3.32865
3.32803
3.32586
3.32699
3.32722
3.32919
3.32258
3.32318
3.32209
3.32235
3.32064
3.32184
3.32828
3.32634
3.33809
3.32741
3.32751
3.32676
3.32761
3.32372
3.33224
3.32437
3.32555
3.32841
3.32757
3.32369
3.32609
3.32952
3.3284
3.32462
3.32268
3.32346
3.3271
3.32287
3.32211
3.32211
3.3249
3.32179
3.32464
3.3208
3.32588
3.32042
3.32571
3.3211
3.31953
3.32633
3.32142
3.32586
3.32524
3.32628
3.30981
3.30857
3.31148
3.3127
3.31033
3.30756
3.31244
3.31036
3.30553
3.31386
3.311
3.31472
3.30443
3.30689
3.3064
3.30864
3.30444
3.30668
3.30599
3.30493
3.30336
3.30088
3.30151
3.29637
3.29896
3.29949
3.30068
3.30201
3.29618
3.29371
3.29376
3.29038
3.29123
3.28759
3.28559
3.2856
3.28852
3.28447
3.28575
3.28232
3.2787
3.28366
3.28469
3.28598
3.28657
3.27619
3.27482
3.27801
3.2753
3.2829
3.28343
3.28187
3.27572
3.27305
3.27286
3.27324
3.27142
3.27271
3.27485
3.27528
3.27546
3.28002
3.27675
3.27861
3.27793
3.27181
3.28036
3.27811
3.28196
3.27509
3.27263
3.2702
3.27289
3.25171
3.26124
3.25933
3.26318
3.26538
3.26587
3.26553
3.26105
3.25734
3.25714
3.32128
3.31839
3.31934
3.31805
3.31534
3.31568
3.31577
3.3156
3.31529
3.31376
3.31709
3.31981
3.31841
3.32335
3.31955
3.31991
3.32718
3.32846
3.32014
3.32155
3.32145
3.32113
3.32971
3.32776
3.32488
3.32068
3.32744
3.32245
3.3265
3.32634
3.32091
3.3209
3.31661
3.31966
3.32288
3.32644
3.32649
3.31772
3.32519
3.33009
3.32648
3.32508
3.33017
3.33244
3.33443
3.33395
3.31765
3.32618
3.32832
3.3068
3.31297
3.30959
3.30873
3.31248
3.31333
3.30713
3.30602
3.3079
3.30953
3.31432
3.30908
3.30882
3.31005
3.30723
3.30782
3.31528
3.31707
3.31014
3.30877
3.30303
3.3052
3.32136
3.30499
3.31636
3.3092
3.31337
3.31121
3.31107
3.31164
3.3122
3.3121
3.30922
3.31224
3.31358
3.31708
3.31535
3.30676
3.3202
3.31484
3.31502
3.30953
3.31018
3.31789
3.31484
3.31766
3.31269
3.3083
3.3106
3.30812
3.30285
3.30918
3.31097
3.30905
3.32021
3.31964
3.3227
3.30908
3.31551
3.32019
3.32141
3.32188
3.32217
3.32062
3.3043
3.30876
3.3077
3.30751
3.30697
3.31278
3.31292
3.30726
3.30542
3.30843
3.30535
3.30651
3.29661
3.30162
3.30111
3.29764
3.29418
3.30068
3.29969
3.30158
3.30389
3.29989
3.30479
3.30677
3.30806
3.30939
3.30554
3.30277
3.30092
3.29875
3.30191
3.30078
3.29729
3.29551
3.29519
3.29662
3.29878
3.30168
3.29934
3.30247
3.30856
3.3047
3.30379
3.29601
3.29761
3.29327
3.29698
3.29597
3.29345
3.3016
3.29974
3.29815
3.29162
3.29326
3.3057
3.3008
3.30618
3.30135
3.297
3.29595
3.29907
3.30125
3.29599
3.29784
3.29343
3.29279
3.29206
3.2971
3.30129
3.29318
3.28912
3.3082
3.30539
3.30595
3.306
3.30708
3.31141
3.30689
3.30508
3.30856
3.30647
3.3047
3.30905
3.30184
3.29691
3.3073
3.30532
3.31047
3.30808
3.31294
3.31131
3.31218
3.30266
3.30075
3.31094
3.30611
3.29554
3.30441
3.3014
3.30049
3.30146
3.30842
3.30305
3.30093
3.30218
3.30398
3.29258
3.29406
3.29023
3.29579
3.29612
3.2968
3.30112
3.30004
3.29945
3.2981
3.30042
3.30021
3.29826
3.2965
3.30449
3.30554
3.29843
3.30364
3.30271
3.29882
3.30914
3.30565
3.30322
3.3039
3.29959
3.30329
3.2918
3.29354
3.29445
3.29015
3.29901
3.29977
3.29493
3.30154
3.30002
3.29767
3.29272
3.29102
3.29484
3.29429
3.2945
3.29204
3.29578
3.2937
3.29482
3.29641
3.29361
3.29677
3.29096
3.29279
3.29434
3.28619
3.29538
3.29446
3.2938
3.29242
3.2978
3.29453
3.2896
3.28896
3.29121
3.29339
3.29023
3.2888
3.29239
3.28968
3.29288
3.29122
3.29121
3.29406
3.2998
3.30543
3.2879
3.28812
3.28776
3.2884
3.2949
3.29564
3.28664
3.28695
3.28891
3.29108
3.28805
3.29038
3.29173
3.29413
3.29244
3.29189
3.27676
3.28034
3.28305
3.28254
3.27911
3.28281
3.27853
3.28165
3.2766
3.27451
3.2854
3.28355
3.28085
3.28037
3.28847
3.28721
3.292
3.2962
3.29783
3.2981
3.29828
3.29461
3.29405
3.29435
3.29215
3.30056
3.29922
3.29419
3.29749
3.3001
3.28519
3.28706
3.29566
3.28279
3.27701
3.27795
3.28062
3.27897
3.27879
3.2835
3.27958
3.28695
3.28438
3.28522
3.27905
3.27651
3.28004
3.28315
3.27655
3.27927
3.27536
3.27565
3.28774
3.28212
3.28359
3.28364
3.28745
3.28445
3.28673
3.29008
3.28637
3.29122
3.28564
3.28326
3.28654
3.28437
3.28683
3.28747
3.28682
3.28999
3.28851
3.27675
3.27755
3.27636
3.27282
3.27759
3.27703
3.27832
3.27593
3.28719
3.28587
3.28497
3.28212
3.28577
3.28441
3.28935
3.2889
3.28799
3.28494
3.28473
3.2852
3.29226
3.29005
3.27912
3.27933
3.28049
3.28447
3.27825
3.27731
3.27482
3.27948
3.2769
3.28171
3.28358
3.28441
3.2827
3.27124
3.27108
3.26349
3.28021
3.27443
3.27768
3.2806
3.2817
3.27743
3.27784
3.28015
3.28518
3.28189
3.28443
3.28215
3.26585
3.27293
3.26852
3.27174
3.26704
3.2701
3.26275
3.26782
3.26686
3.27382
3.27155
3.26563
3.26833
3.26659
3.27532
3.26848
3.27406
3.274
3.27249
3.27237
3.27178
3.2729
3.26707
3.26925
3.25553
3.26155
3.2539
3.26323
3.25865
3.27207
3.27252
3.27049
3.27224
3.27275
3.27301
3.27462
3.26734
3.27547
3.2709
3.26575
3.27311
3.27084
3.27666
3.2769
3.26985
3.27452
3.26941
3.26582
3.26842
3.27199
3.27077
3.27141
3.26471
3.25834
3.26161
3.26531
3.2622
3.26338
3.25962
3.26552
3.26265
3.26371
3.26302
3.26431
3.27245
3.27143
3.2582
3.24991
3.26176
3.25499
3.25833
3.26069
3.27289
3.27034
3.27006
3.27156
3.27032
3.26923
3.26762
3.27412
3.26471
3.25977
3.2695
3.25995
3.26167
3.26675
3.25788
3.25699
3.26759
3.26335
3.26358
3.26401
3.26362
3.26344
3.26554
3.26668
3.25693
3.27088
3.26977
3.26764
3.27389
3.27009
3.26826
3.2692
3.27048
3.26634
3.2692
3.27245
3.27079
3.26935
3.27206
3.26971
3.26675
3.26258
3.27555
3.26205
3.26747
3.27092
3.26646
3.27205
3.27361
3.28048
3.275
3.27441
3.27386
3.27458
3.27412
3.27826
3.27176
3.27155
3.28108
3.28609
3.26946
3.27125
3.29175
3.29403
3.28877
3.27683
3.27565
3.27941
3.27977
3.27904
3.29082
3.28451
3.2885
3.28697
3.28633
3.28785
3.28668
3.28806
3.2912
3.28447
3.28915
3.29332
3.28896