/*--------------------------------*- C++ -*----------------------------------*\
| =========                 |                                                 |
| \\      /  F ield         | OpenFOAM: The Open Source CFD Toolbox           |
|  \\    /   O peration     | Version:  v1612+                                |
|   \\  /    A nd           | Web:      www.OpenFOAM.com                      |
|    \\/     M anipulation  |                                                 |
\*---------------------------------------------------------------------------*/
FoamFile
{
    version     2.0;
    format      ascii;
    class       surfaceScalarField;
    location    "50";
    object      phi;
}
// * * * * * * * * * * * * * * * * * * * * * * * * * * * * * * * * * * * * * //

dimensions      [0 3 -1 0 0 0 0];

internalField   nonuniform List<scalar> 
36911
(
-4.95627e-10
4.28136e-09
-2.39688e-10
-3.54607e-09
4.07499e-09
-4.08356e-09
4.84484e-09
-4.83628e-09
1.26727e-09
2.95034e-09
-1.42568e-10
1.17176e-09
3.3869e-10
-5.594e-09
5.02358e-09
-2.50125e-10
-3.60166e-09
2.85699e-09
5.49907e-09
-3.33241e-09
4.11993e-09
4.33994e-12
-5.24175e-09
5.39485e-09
2.79724e-09
7.09895e-10
-1.10676e-09
1.94636e-09
7.92288e-09
-9.53058e-09
8.31687e-09
-6.62062e-09
-7.83745e-11
-7.58335e-10
4.95666e-09
-1.87743e-09
7.88965e-09
2.30465e-09
7.0352e-09
-9.89728e-10
-6.6878e-09
7.93692e-09
-1.32748e-09
4.60593e-11
-1.23476e-09
-9.46254e-10
5.58275e-09
8.49575e-09
-7.50648e-10
-1.70024e-09
9.63596e-09
6.60416e-09
9.4537e-10
2.27832e-09
1.62176e-08
-3.14999e-09
-1.53459e-08
2.03038e-08
-3.15265e-09
-1.48729e-08
1.8463e-08
6.73218e-10
1.16754e-09
-7.99802e-09
1.12698e-08
1.51912e-08
7.15206e-09
1.06748e-09
-1.18897e-09
8.72911e-09
-1.06928e-08
6.67224e-09
-1.10112e-08
-1.20354e-08
9.18259e-09
-5.20983e-10
3.3738e-09
6.08116e-09
-1.14443e-08
1.29609e-08
-1.40124e-08
1.72463e-09
8.80941e-09
7.52516e-09
-7.64788e-09
2.7727e-08
-9.87519e-09
1.51882e-08
1.34451e-08
-2.97659e-09
-4.38732e-09
3.04889e-09
-8.25988e-09
-5.00041e-09
1.11102e-09
3.8391e-09
5.03086e-11
2.58047e-09
-5.01368e-09
-2.56719e-09
5.11822e-09
-8.24295e-09
7.8204e-09
-4.69565e-09
6.04865e-09
1.80586e-10
-2.03561e-09
3.38246e-09
2.49225e-09
8.37017e-10
-2.92149e-10
-1.33414e-09
2.86062e-09
4.52219e-09
3.24483e-09
-1.14655e-08
6.88655e-09
-2.74855e-09
3.13459e-09
1.25372e-09
-1.63973e-09
1.40215e-09
-4.25861e-09
1.07926e-10
-8.5464e-10
-1.76762e-09
2.31302e-09
3.09244e-10
-2.1996e-09
8.92292e-10
4.52737e-10
4.47546e-09
9.05392e-09
-9.94007e-09
4.13099e-09
-1.92997e-09
1.00997e-09
4.05468e-09
-1.08863e-10
-2.99081e-09
6.10717e-09
3.19074e-09
-6.30707e-09
1.09784e-09
-4.03656e-09
-5.20299e-11
-1.44773e-09
1.16068e-09
-3.46543e-09
3.75249e-09
1.94716e-10
4.46476e-09
2.64694e-09
-1.02896e-08
7.83732e-09
8.26172e-10
-9.08681e-09
1.09076e-08
-4.14575e-09
4.7222e-09
5.00629e-09
-1.37164e-09
2.31382e-11
6.70903e-09
-2.40711e-09
3.95355e-11
-2.11237e-09
-1.13168e-08
1.26786e-08
5.73254e-09
-8.21519e-09
-3.7507e-09
-2.80267e-11
-8.32442e-09
-1.49801e-09
1.37064e-09
8.45181e-09
-9.14595e-10
-9.5222e-09
-5.24724e-10
-4.33272e-09
-6.18573e-09
4.74642e-09
3.14914e-09
2.9831e-09
3.62797e-09
-9.76021e-09
4.49778e-10
5.60849e-09
-2.90912e-09
6.24116e-09
5.59421e-09
-8.85227e-09
1.101e-08
-4.319e-09
-6.17801e-09
1.06154e-08
1.15683e-09
-7.58221e-09
5.03218e-09
4.19949e-09
1.12332e-08
-9.82423e-09
1.08818e-08
-3.96334e-09
-2.71894e-09
-1.07891e-08
9.96625e-10
5.89699e-09
3.89555e-09
4.08823e-09
-4.26197e-09
1.55109e-09
-6.11598e-09
1.57982e-08
-4.80208e-09
5.8906e-09
-8.57997e-09
9.4858e-10
-5.44031e-09
-2.64601e-09
-5.28469e-10
7.50691e-09
-4.3324e-09
3.30572e-09
-5.14029e-09
5.06596e-09
-3.23133e-09
-5.35303e-10
6.90375e-09
-3.0627e-09
6.70741e-09
-1.51334e-09
-1.34534e-08
8.25935e-09
-6.07128e-09
1.22434e-08
9.90764e-09
-4.02762e-09
-1.1831e-09
-4.69689e-09
-2.64825e-09
6.48461e-09
-6.53451e-09
6.02475e-09
-2.13622e-09
-1.10434e-08
4.38978e-09
-2.42946e-09
5.4921e-09
-3.6437e-09
5.81088e-10
-1.04482e-09
-7.91915e-09
2.04651e-09
-6.35982e-09
1.66505e-09
-6.13278e-09
1.11418e-09
-1.34581e-08
-9.30421e-09
9.30891e-09
-1.36089e-08
-3.87669e-09
5.71024e-09
-9.25089e-09
2.49587e-09
-1.31626e-08
-2.27436e-09
-2.10613e-08
-2.1953e-08
-1.91539e-08
1.1475e-08
2.96318e-08
-2.49618e-08
-3.47509e-09
1.12044e-09
-1.31389e-08
-7.56252e-10
-1.10667e-08
-2.01271e-08
9.7053e-09
1.42032e-09
9.00148e-09
-8.61958e-09
-6.98707e-09
-4.52041e-09
-1.16156e-08
-1.89569e-08
-1.49221e-08
-2.51321e-09
1.89825e-09
-1.08405e-08
-1.94206e-08
1.71222e-08
-9.7447e-09
-8.6702e-09
1.76587e-08
-1.06531e-08
5.43626e-09
-3.01204e-09
-1.34355e-09
-6.48481e-09
5.57073e-10
-1.51847e-08
7.03343e-09
-7.81989e-09
1.22522e-08
-1.22059e-08
-8.14553e-09
6.17271e-09
-1.31872e-08
5.89803e-09
4.60916e-10
-1.58208e-09
1.70949e-08
3.07256e-09
-4.88593e-09
-1.52816e-08
1.08324e-08
8.66821e-09
-2.40571e-09
-1.38692e-08
-1.3665e-08
1.98457e-08
7.68849e-09
2.97425e-09
1.39655e-09
-1.82401e-08
5.31229e-09
-1.60031e-08
-1.40982e-08
2.78852e-08
-2.95459e-09
-1.7722e-08
1.89273e-08
-1.53035e-08
1.39337e-08
-6.78465e-10
-1.01827e-08
1.78034e-08
4.79845e-09
-2.12114e-08
2.00489e-08
-1.54151e-08
-1.86497e-08
-7.46979e-09
1.89047e-08
7.21455e-09
-1.41451e-08
1.53411e-08
6.56864e-09
2.22252e-08
-9.08664e-10
5.83891e-09
1.9657e-08
2.15361e-09
1.04254e-08
-8.03815e-09
2.31655e-08
7.09775e-09
1.19188e-08
5.28409e-09
-8.13853e-09
1.165e-08
-8.79558e-09
1.09524e-08
-1.30496e-09
-4.36339e-09
1.5746e-08
-3.07305e-08
6.84595e-09
1.557e-08
-8.28243e-09
4.3624e-09
8.72981e-09
-1.91624e-09
8.75647e-09
-1.08534e-08
1.431e-08
5.27323e-09
-7.36913e-10
-7.60461e-09
2.17747e-09
6.16396e-09
1.40159e-09
8.81382e-09
2.09058e-08
-1.34422e-08
8.73106e-09
1.53253e-09
8.77148e-09
-1.9035e-08
1.29584e-08
-1.18319e-08
1.15849e-08
1.36327e-08
-7.18146e-09
-4.48055e-09
-1.97071e-09
-9.95033e-09
8.67487e-09
1.49081e-08
-1.02111e-08
-8.95811e-10
1.15656e-09
-6.87287e-09
-1.05197e-08
-1.16037e-09
1.60615e-08
-6.2263e-09
-9.12332e-09
7.57697e-10
4.534e-09
3.83162e-09
-3.44763e-09
2.07552e-09
-7.75123e-09
-1.29654e-09
-9.84528e-09
7.69416e-09
-7.4204e-09
4.23898e-09
3.93912e-09
-2.78813e-10
-5.06606e-09
-9.28863e-09
1.65331e-09
1.16951e-09
6.46583e-09
-3.11165e-09
-6.45581e-09
7.85465e-09
-2.1821e-09
-8.78421e-09
6.801e-09
2.70695e-09
-5.51046e-09
8.54523e-09
-4.19514e-09
3.94724e-10
-1.03515e-08
-8.77831e-10
-4.64712e-09
1.02265e-09
4.50222e-09
3.16659e-10
3.46776e-09
-4.66234e-09
1.22815e-09
-6.57122e-09
5.65959e-09
-3.28629e-11
-7.79817e-09
9.0592e-09
-1.40252e-09
-3.28283e-09
3.82358e-11
-5.28187e-09
6.27166e-09
-6.78526e-09
7.23413e-10
-1.7363e-09
-1.49038e-09
-5.19397e-09
6.4708e-09
-9.26494e-09
-3.99115e-09
-6.52747e-09
6.42705e-09
-2.55719e-10
-3.42847e-10
-5.92888e-09
-6.06472e-10
-8.91417e-09
6.20569e-10
-2.22255e-10
-5.37713e-09
4.97885e-09
-4.4513e-09
4.72904e-09
-6.20672e-09
5.37804e-09
3.00365e-09
4.4439e-09
-4.07262e-09
-3.37495e-09
3.08451e-09
-1.29074e-10
4.82056e-11
-2.40236e-10
4.38076e-09
3.03361e-10
2.79998e-09
4.42848e-11
1.92666e-09
1.48715e-09
-7.48639e-09
3.03225e-09
2.52938e-09
-3.63497e-09
2.92861e-09
-2.54443e-11
-5.78845e-09
1.00584e-09
6.25558e-11
4.72006e-09
7.221e-09
-6.41835e-09
-6.59112e-09
1.25146e-09
6.97536e-09
6.71693e-10
4.96053e-09
-8.57998e-11
3.55748e-09
2.80939e-09
-7.74059e-09
-4.28564e-09
3.86909e-09
3.34516e-09
4.59846e-10
-2.2161e-09
5.76107e-09
-2.49184e-09
1.08089e-09
4.74272e-09
4.86419e-09
-4.99832e-10
5.08833e-09
-3.60563e-10
-4.22793e-09
-2.52308e-09
2.5633e-09
-5.40071e-10
2.93738e-09
-2.0516e-10
-5.25529e-09
-8.0907e-09
3.45038e-09
7.57769e-09
-1.93393e-09
3.09753e-09
3.92472e-09
2.39561e-10
3.89786e-10
2.15905e-09
-4.58377e-09
2.21959e-09
2.42208e-09
-2.24233e-10
-3.87727e-11
2.20367e-09
4.57957e-10
7.92925e-10
3.52625e-10
3.31427e-09
-4.45979e-09
2.1034e-09
8.93176e-10
-1.00016e-09
4.5794e-09
-1.47584e-09
4.14387e-09
-1.33175e-08
6.43704e-09
5.35986e-09
1.52058e-09
-4.88114e-09
-8.49e-09
2.01082e-08
-6.73707e-09
1.23774e-08
-9.29216e-09
-7.96634e-09
-6.46213e-09
5.52203e-09
-1.09388e-09
-5.21596e-09
1.44724e-08
-8.16261e-09
-4.66896e-09
1.00121e-08
7.81663e-09
-8.317e-09
-8.7918e-09
6.00945e-10
7.53545e-10
-1.61602e-09
-9.52286e-09
5.92286e-09
-7.3714e-09
1.08637e-09
6.00455e-09
1.72311e-09
-1.60447e-08
9.08456e-09
4.97556e-09
-8.05558e-09
8.72668e-09
9.58816e-10
-8.68958e-09
1.32724e-09
-2.16054e-09
6.04315e-09
-1.27132e-08
8.3931e-09
9.40054e-09
-1.53349e-09
-2.89151e-09
1.07558e-08
-4.17994e-09
4.14133e-09
4.01916e-09
1.42045e-08
-2.23652e-08
8.25277e-09
-3.55116e-08
3.14e-08
2.39997e-09
-1.54252e-08
1.70444e-08
-2.67847e-08
3.74374e-08
-8.48278e-09
-7.7066e-09
-4.26874e-09
2.04582e-08
-1.60219e-08
-1.9586e-08
2.71251e-08
-2.89228e-08
1.03997e-08
-1.69885e-08
-1.80413e-08
-2.37251e-08
1.49816e-08
-3.77429e-10
1.56215e-08
-2.02627e-08
5.01853e-09
-2.40986e-08
5.67991e-09
-1.73938e-08
7.20689e-09
2.48029e-09
1.95322e-08
-1.08873e-08
-2.60387e-08
-9.35973e-09
-9.44276e-09
-4.92266e-09
-1.38012e-08
-2.44814e-08
-1.71843e-08
1.73805e-08
-9.37796e-09
-5.31639e-09
-5.5684e-09
-1.89523e-08
-1.45243e-08
2.23898e-08
-8.17396e-09
1.24124e-08
1.47776e-08
-3.45857e-08
8.92086e-09
-1.36174e-08
1.68317e-09
-3.55645e-09
7.96094e-09
-6.08758e-09
-3.08571e-09
7.26175e-09
-2.49283e-09
5.06706e-09
-8.90391e-09
1.44498e-09
2.39185e-09
-2.25877e-09
1.2908e-09
6.03502e-09
6.14483e-09
-4.99175e-10
-5.06055e-09
-5.85093e-10
-8.21587e-10
4.70767e-09
5.21915e-09
-1.36594e-09
-1.34243e-09
-2.51068e-09
8.28314e-10
3.56935e-09
-3.48721e-10
3.02326e-09
-6.23092e-09
2.73838e-09
-6.17279e-09
1.1139e-08
1.478e-09
-5.35522e-09
-1.44212e-09
6.77426e-09
5.8097e-09
1.04618e-08
-2.39677e-09
3.88885e-09
4.22435e-09
-5.37478e-09
-2.21222e-09
7.57909e-09
7.63294e-09
-4.77448e-09
5.77031e-09
2.69104e-09
-3.37969e-09
1.28142e-09
-7.51991e-09
-9.33567e-09
1.5574e-08
-1.16875e-08
-1.10782e-08
2.40471e-08
1.05434e-08
1.02171e-09
-1.95499e-08
7.98475e-09
-1.24797e-08
1.13355e-08
5.84059e-09
-2.23163e-08
8.95572e-09
-2.17107e-08
1.6473e-08
-7.69397e-09
-2.62016e-08
2.45599e-08
-1.14251e-08
4.75287e-09
6.98264e-09
-2.02951e-08
8.32733e-10
-2.23143e-08
7.58627e-09
-1.74167e-08
5.44472e-09
-8.32311e-09
-7.08384e-09
1.4072e-08
-2.44049e-08
-2.10285e-08
-2.18257e-08
1.66525e-08
-2.36305e-08
-8.82316e-09
1.87825e-08
1.47748e-08
-4.06411e-08
1.08446e-08
-1.56926e-08
3.18083e-08
1.62427e-08
-3.32762e-08
1.06838e-09
8.91419e-09
2.23544e-09
-1.04778e-08
-3.26056e-09
3.12787e-08
-1.28006e-08
1.00307e-08
-6.77858e-09
2.39025e-08
-1.58367e-08
-1.28719e-09
-3.38357e-09
1.85087e-08
-2.19037e-08
-1.76877e-08
1.32834e-09
2.5556e-08
-9.19668e-09
-1.22944e-08
-9.66205e-09
1.32908e-08
-2.21212e-08
5.44672e-09
1.37744e-09
1.99042e-08
2.62082e-09
3.86426e-09
5.5766e-09
-1.35168e-08
6.973e-09
9.67089e-10
-1.25536e-08
1.94585e-08
7.01602e-09
-6.01959e-09
-1.98817e-08
-6.79011e-09
1.41182e-08
6.95759e-10
-1.35614e-08
1.26843e-08
7.89325e-09
-2.73677e-08
1.90718e-08
-1.03561e-08
-9.69917e-09
1.4113e-08
5.94224e-09
1.73124e-09
-4.3216e-09
-7.76569e-09
4.02118e-09
1.54385e-08
-1.22496e-08
-7.21012e-09
1.01491e-08
-4.39676e-09
-7.89869e-09
1.16823e-08
6.36554e-09
8.8143e-09
-1.27452e-09
1.00924e-08
-8.73995e-09
-1.10515e-08
3.45504e-09
1.57327e-09
6.65398e-09
-1.09238e-08
-2.3654e-08
1.36139e-08
2.09639e-08
-1.96249e-08
2.1174e-09
6.58372e-09
8.90688e-10
-1.44523e-08
-7.52563e-09
-1.12085e-08
1.16155e-08
-1.65125e-08
7.01438e-09
-5.05202e-09
8.10234e-10
1.58573e-08
-1.18012e-08
1.02043e-08
-2.35888e-09
-6.28047e-10
5.51999e-09
1.01663e-08
1.99441e-08
1.54039e-08
-1.46616e-08
-8.26792e-09
-3.46739e-09
1.20352e-08
1.00422e-08
-8.35468e-09
-1.37227e-08
1.60539e-08
-5.95437e-09
1.93568e-09
-1.3103e-08
2.02469e-09
1.01696e-08
-6.01536e-09
4.57648e-09
1.35021e-08
9.45555e-09
-1.4373e-10
-1.52662e-08
1.39771e-08
1.6353e-08
-1.77419e-08
-1.25882e-08
-1.76326e-08
4.24258e-09
1.79664e-08
-1.06279e-08
2.45088e-09
1.73809e-09
2.00011e-08
-1.59004e-08
-1.69464e-08
2.2927e-08
5.94589e-09
-1.01997e-08
-1.10497e-08
-4.34054e-10
2.0357e-08
1.85066e-08
3.19689e-09
-5.35045e-09
-1.38875e-08
4.76491e-09
-7.82391e-09
-6.00881e-09
6.16866e-09
3.71102e-09
-2.37242e-09
-1.49248e-09
4.92805e-09
-5.5368e-09
2.10133e-09
6.60603e-09
-1.92985e-09
1.43276e-08
-2.79353e-09
7.84098e-09
-2.26507e-09
1.7394e-09
7.16697e-09
2.01118e-09
4.31096e-09
1.73767e-08
3.31258e-09
6.5396e-09
-1.18585e-08
2.00153e-09
1.01179e-08
-2.60947e-10
-8.84055e-09
1.22415e-08
-1.52595e-08
2.36418e-09
-1.37157e-08
-1.36168e-09
-1.2313e-08
-2.8558e-09
1.6496e-08
-1.27824e-08
1.54968e-08
-1.50274e-08
-1.21926e-08
1.59441e-08
-1.38743e-09
-1.30224e-08
1.21681e-08
-6.65481e-09
-1.915e-08
-1.49377e-08
1.51506e-08
-4.54795e-09
4.33498e-09
-2.72093e-09
-1.94871e-10
-1.20219e-08
4.97138e-10
-5.78785e-09
1.21306e-09
4.07751e-09
-9.20948e-09
6.84746e-09
2.85915e-09
6.67369e-09
-7.32544e-10
8.65645e-09
-1.88301e-09
-9.49441e-09
-1.67935e-09
1.36955e-09
-2.50483e-09
-6.55406e-09
7.68924e-09
-8.02464e-09
1.06482e-08
-1.254e-09
-1.65103e-08
1.0486e-08
1.2698e-08
-3.44605e-09
-1.32592e-08
-5.48363e-09
4.19174e-09
4.19694e-09
-1.2601e-08
3.7935e-10
-5.09017e-09
2.73302e-09
1.09397e-08
3.41918e-09
-4.89931e-10
-1.3869e-08
9.211e-09
2.22037e-09
-4.91726e-10
-8.31448e-09
-2.25936e-09
-1.00848e-08
6.69484e-09
-1.01117e-08
-7.95691e-09
1.86277e-09
-1.03299e-08
4.36466e-09
-8.6201e-09
3.32828e-09
9.271e-10
4.51348e-09
-6.08895e-09
5.94013e-09
-9.10378e-10
-5.14267e-10
5.93811e-09
-6.16472e-10
-5.83327e-09
5.53934e-09
-3.78693e-09
3.19961e-09
-2.70101e-09
3.28833e-09
-3.20199e-10
-3.44134e-09
-2.54027e-11
8.16954e-10
-4.32064e-09
2.8872e-09
3.5023e-09
6.31197e-09
-5.54642e-09
-9.38565e-09
-8.07655e-10
1.03067e-09
-5.70884e-09
3.20384e-09
-8.5687e-09
-1.44034e-09
4.30019e-09
1.55791e-09
-1.13199e-09
-8.99463e-09
7.83264e-09
-1.70173e-10
-6.10457e-09
4.15002e-09
2.24226e-09
-3.17246e-09
3.00183e-09
-3.41086e-09
-8.18075e-11
-4.31786e-09
8.09185e-10
-4.02562e-09
-3.73359e-09
6.05138e-10
-7.28357e-09
-7.84718e-10
-2.79632e-09
-4.2052e-09
1.04925e-08
-6.57117e-09
2.80589e-09
-6.72725e-09
-3.30081e-09
1.3923e-09
7.46068e-09
-1.26115e-08
6.98887e-09
-2.829e-09
-6.63638e-09
-6.46825e-10
-6.30733e-09
-9.16889e-09
-1.6472e-08
-1.32508e-08
-1.20531e-08
8.47342e-09
-5.85396e-09
1.06612e-08
-1.32806e-08
1.0078e-08
-6.07158e-11
-1.54382e-09
1.08078e-09
6.32179e-10
-7.56689e-09
7.5496e-10
5.84015e-09
-5.51435e-09
-9.52105e-10
-4.36566e-09
6.07274e-09
5.77082e-09
-6.09077e-09
-1.0667e-08
1.22628e-08
8.48219e-09
5.47999e-09
-5.48581e-09
-4.30125e-09
-2.82231e-10
4.40103e-10
4.14339e-09
-1.70733e-09
-2.55408e-09
-3.98113e-11
5.93338e-09
-7.25109e-10
6.31873e-10
5.67482e-09
4.99021e-09
-4.89422e-09
6.65082e-09
-1.03675e-09
-1.17147e-08
-3.00776e-10
-3.59823e-10
1.23753e-08
-3.01326e-10
-3.55453e-09
-8.29152e-11
3.35521e-09
-4.97748e-09
-2.8437e-10
-5.44561e-09
5.58496e-09
-2.00845e-09
-5.99126e-09
-1.36182e-09
-3.89615e-09
2.80475e-10
-3.58009e-09
6.7e-09
3.53087e-09
4.83077e-11
-3.14132e-10
1.2217e-08
6.30294e-09
-1.3763e-08
3.78829e-09
1.48787e-08
-4.90402e-09
-9.41694e-09
-1.1869e-08
7.5229e-09
1.56978e-08
-9.37567e-09
-1.0297e-08
3.9748e-09
2.66958e-09
1.20753e-08
9.52922e-10
1.43877e-08
3.56813e-09
-4.58218e-09
-1.33735e-08
-9.80471e-09
9.75322e-09
1.44393e-08
-7.92036e-10
-5.44445e-09
4.47499e-09
-7.8041e-10
-1.04274e-08
6.73283e-09
-1.45117e-09
-1.25479e-08
-9.21095e-09
3.30669e-09
8.57387e-09
2.7582e-09
-1.16612e-08
-3.08041e-10
-7.65521e-09
1.72014e-09
-3.4406e-09
-7.16545e-10
1.42581e-08
8.41599e-09
-7.90388e-09
2.2461e-09
1.10061e-08
-4.2209e-09
-1.47191e-08
8.49419e-09
3.11287e-09
-1.22192e-08
-8.29008e-09
-1.65089e-09
-9.3981e-09
-4.98461e-09
3.78738e-10
2.67597e-09
4.88529e-09
-5.36355e-09
-4.50635e-09
7.96226e-09
-7.15434e-09
-8.54014e-09
7.73224e-09
5.7185e-09
2.62252e-09
-3.91185e-09
3.22747e-09
3.36036e-09
1.26883e-09
-2.95374e-10
4.1496e-09
9.11324e-09
-7.54434e-09
6.25533e-09
6.62326e-09
-2.33876e-09
-1.05398e-08
-4.41111e-09
3.19106e-09
4.44752e-09
-3.08824e-09
-5.40335e-11
9.80295e-10
-9.24946e-09
2.90559e-09
4.15115e-09
-1.03252e-08
-2.02316e-09
-3.26653e-09
5.10169e-09
1.88003e-10
1.5426e-10
1.02507e-08
1.80262e-09
-4.77529e-09
-1.15578e-10
3.17796e-09
-5.88298e-09
6.21395e-09
-3.50894e-09
4.99251e-09
-1.19304e-11
1.66565e-10
-3.51213e-09
7.49671e-09
-2.48442e-09
-3.23199e-09
-5.10246e-09
8.4478e-09
-4.56702e-09
4.45709e-09
5.64919e-10
1.082e-09
-2.80816e-09
-8.562e-09
7.50789e-09
3.86227e-09
-1.02353e-08
6.9626e-09
4.64576e-10
-6.20244e-09
1.7448e-09
4.87428e-09
-4.16631e-10
-7.10087e-09
-2.54395e-09
3.44235e-09
-3.41338e-09
-6.29758e-09
6.77748e-09
2.93345e-09
-5.52332e-09
2.21329e-09
-1.0339e-10
4.35587e-09
-6.22685e-09
-3.65233e-09
-1.56009e-09
-3.81616e-10
-1.27094e-08
9.38227e-10
3.20913e-09
-2.08331e-09
4.11459e-09
-1.47407e-08
8.79126e-09
1.88622e-09
-1.27608e-08
8.87481e-09
-1.64363e-09
9.54951e-10
-7.07569e-09
-2.24237e-09
-9.32452e-11
9.8435e-09
6.46505e-09
-2.22638e-09
-3.91953e-09
1.83096e-09
6.01105e-09
-1.06453e-09
-6.56702e-09
6.58584e-09
3.2272e-09
8.32356e-09
-3.2975e-09
-1.31604e-08
2.89607e-09
1.35618e-08
-7.22079e-10
-1.10299e-08
8.45444e-09
-3.30773e-09
-1.62353e-08
1.30175e-10
1.94129e-08
-2.60589e-09
-8.36484e-09
7.66299e-09
-1.04668e-08
7.13883e-09
-8.99774e-09
-2.24239e-09
2.10262e-10
-4.73624e-09
-1.098e-08
2.55585e-09
-1.20595e-08
-1.67444e-09
7.29041e-09
-9.59941e-09
-6.05584e-09
-6.66541e-09
-2.27944e-09
-1.58062e-08
1.88324e-08
-1.03623e-08
-2.34695e-09
1.22415e-09
-7.72276e-10
-1.14318e-08
5.1265e-10
-1.1348e-08
-1.15746e-08
-1.0897e-08
-7.72897e-10
-9.07674e-09
5.50111e-10
-1.2897e-08
-9.8222e-09
-1.77149e-08
1.19208e-10
-3.01667e-09
2.06124e-08
2.72464e-08
-4.4731e-09
1.81159e-08
-4.08893e-08
-2.07691e-08
3.03006e-08
7.56863e-09
1.46034e-08
-3.59732e-08
-1.28526e-08
1.54986e-08
2.80756e-08
-1.21534e-08
-2.90441e-08
1.31219e-08
2.99869e-08
-1.02385e-08
8.32718e-09
2.45478e-08
-4.11743e-08
2.86664e-08
-3.99949e-09
-9.8957e-09
-1.61758e-08
-8.51427e-09
-2.69872e-08
3.52074e-08
-1.29179e-09
2.66497e-08
3.3085e-09
2.67039e-08
1.99125e-09
8.86123e-09
3.274e-09
1.45687e-08
2.26583e-08
1.91795e-08
-2.95229e-08
-5.14739e-09
9.48216e-09
3.31111e-09
-7.64587e-09
-8.16829e-09
2.95382e-09
6.71045e-11
2.75666e-09
-4.72897e-09
-6.19597e-09
4.48512e-09
9.40934e-09
-4.41229e-09
-2.03936e-09
5.9424e-10
4.20181e-09
6.6297e-09
-1.31766e-08
1.74761e-09
4.79928e-09
-6.15374e-09
-1.07483e-08
6.64944e-09
1.02526e-08
1.45669e-09
1.63813e-08
-7.12396e-09
-1.07141e-08
-8.22519e-09
1.4167e-08
-3.02389e-10
-5.52e-09
-9.80807e-09
1.56305e-08
-4.41063e-09
9.32698e-09
-1.33387e-08
8.42233e-09
2.85712e-09
-1.1672e-08
4.40424e-09
-6.27107e-09
8.72062e-09
-1.06748e-08
2.42839e-08
-1.52593e-08
9.46795e-09
8.54485e-09
-8.81663e-09
8.06148e-09
-1.18029e-10
1.99287e-10
-8.14283e-09
-6.19926e-10
7.74082e-09
9.40606e-10
-7.92834e-09
6.64006e-09
6.68279e-10
-6.93782e-11
-7.977e-09
5.96019e-09
7.31644e-11
-5.83411e-09
5.06615e-09
6.86366e-10
2.0764e-10
6.03772e-09
6.76924e-09
6.55421e-09
8.60998e-11
-6.70971e-09
7.05201e-09
6.14222e-09
-4.25713e-09
4.24848e-09
6.94973e-10
-8.99061e-11
-4.09405e-09
1.6107e-10
4.98508e-09
-5.06002e-09
4.7984e-09
-4.72724e-09
-1.92767e-09
5.0202e-09
1.89256e-09
2.8685e-09
2.21262e-12
2.51605e-09
3.96983e-09
-2.23745e-09
5.2692e-09
1.15325e-10
-4.27717e-10
2.62083e-10
5.4348e-09
-1.59303e-10
3.70137e-09
5.54857e-10
5.32346e-09
1.99763e-10
7.40703e-09
5.48203e-09
1.16049e-09
3.5482e-10
-8.58668e-09
7.07144e-09
3.42581e-10
-5.41299e-09
3.58474e-09
-6.2856e-09
-9.59307e-09
1.22939e-08
-1.92323e-09
-1.17285e-09
6.68086e-09
3.89906e-09
-4.40258e-09
3.44983e-09
-2.94628e-09
3.02122e-10
3.50255e-09
9.44261e-11
8.02244e-10
4.78607e-09
-5.2335e-09
-3.25775e-09
3.94732e-09
5.0486e-09
-4.20983e-09
4.12445e-09
1.24992e-10
2.24922e-10
-1.547e-10
3.68112e-09
4.63624e-11
3.47335e-09
-3.47984e-10
4.73582e-09
2.86201e-09
-7.14138e-10
3.81019e-09
4.26228e-09
-2.40587e-10
3.94594e-09
1.65227e-10
-1.00168e-08
5.90559e-09
2.57274e-09
-4.82122e-09
6.19446e-09
3.9242e-10
6.36608e-09
-4.18577e-09
5.45243e-09
-1.35471e-08
3.30788e-09
-9.7453e-09
1.18898e-08
-5.96826e-09
9.66857e-09
1.66811e-08
-5.06381e-09
-5.53181e-10
-1.10641e-08
4.13523e-09
2.80058e-09
2.32225e-10
-8.11239e-09
-2.13658e-09
-3.76412e-09
-8.24885e-10
-9.80733e-09
1.77688e-09
4.26634e-09
3.96007e-09
-4.82214e-09
-5.75543e-09
6.61753e-09
-3.08353e-09
-2.76372e-09
3.80106e-09
4.41682e-10
-9.06489e-09
7.33888e-09
-8.60163e-09
-4.69502e-09
-9.40525e-09
-7.13823e-09
1.69144e-09
-5.2144e-10
4.33588e-09
3.07951e-09
-5.72137e-09
-9.72788e-09
2.77735e-09
7.18026e-09
-3.2486e-09
-1.23163e-09
3.96332e-09
4.56175e-11
-1.38934e-09
-3.89761e-09
1.44612e-09
3.84082e-09
6.70757e-10
4.08775e-09
-6.14784e-09
-2.52632e-09
-1.38673e-09
1.54529e-11
-5.46543e-12
-3.28158e-09
2.4334e-10
-9.85282e-09
1.2891e-08
-1.01342e-08
7.52342e-09
-4.9864e-09
4.58112e-09
4.3686e-09
3.2002e-10
1.87384e-09
6.27058e-09
-4.91117e-09
-1.38104e-09
6.40305e-09
-1.10801e-10
-4.55241e-09
4.10601e-09
-6.44188e-09
-8.0481e-09
4.6372e-09
-6.49749e-09
-1.00786e-08
3.17955e-09
3.13101e-09
1.29175e-08
-7.58868e-09
-8.4599e-09
1.00932e-08
-1.39035e-09
-5.5719e-09
1.31831e-08
1.11567e-08
-1.42467e-08
-2.83846e-09
6.83513e-09
9.1864e-09
3.74846e-09
4.56972e-09
1.23654e-08
-1.0426e-08
-5.19993e-09
8.41855e-09
5.33167e-09
-1.6422e-08
5.53541e-09
-8.73625e-09
1.96228e-08
-1.45177e-08
6.08043e-09
5.03494e-09
1.02187e-08
2.19059e-08
6.08331e-09
-8.23563e-09
1.09552e-09
-2.31565e-08
8.86519e-09
-1.74448e-09
-4.7023e-10
-1.1791e-08
-1.08952e-08
2.50178e-08
-1.21373e-08
-1.33508e-08
7.20569e-09
3.29038e-08
3.35318e-09
-2.31749e-08
-1.3082e-08
-2.10495e-08
5.68069e-09
1.36243e-08
-1.81621e-08
-1.46784e-08
-1.66248e-08
-5.18597e-09
-1.46257e-08
-4.25407e-08
2.10957e-08
1.52181e-08
6.22697e-09
-7.35079e-09
-1.46649e-08
-1.10624e-08
9.39223e-09
-8.0078e-09
3.26887e-09
-9.92608e-09
-1.19559e-09
-1.78746e-08
2.98675e-09
2.61885e-09
-7.27458e-09
1.66903e-09
5.2936e-09
-1.22109e-09
-1.08574e-09
-3.45554e-09
4.20809e-09
5.83453e-09
-6.58706e-09
4.27357e-10
-5.20074e-09
1.31788e-09
6.0576e-09
-8.28164e-09
4.84289e-09
6.51189e-09
-5.42199e-09
4.20369e-09
2.11025e-09
8.60975e-09
-8.08305e-10
3.40922e-09
3.45668e-09
2.78406e-09
1.48084e-09
-5.07321e-09
8.98519e-09
-4.09088e-09
-3.50347e-10
-2.20961e-09
-9.27603e-09
-2.12023e-09
1.02243e-08
-8.4544e-09
-2.1075e-09
8.19059e-09
-8.29267e-09
-2.68787e-10
5.76831e-09
-7.607e-09
1.44714e-09
4.70844e-09
-6.42434e-09
5.68676e-09
-6.35986e-09
5.41089e-10
1.8218e-09
-8.79023e-10
2.33851e-10
5.41166e-09
-5.22337e-10
1.46524e-09
-1.23396e-09
-3.28405e-09
2.11238e-10
1.43969e-09
-1.52976e-11
3.04318e-09
5.45984e-09
-2.81623e-09
4.46389e-09
1.89778e-11
4.87215e-09
1.12875e-09
3.43415e-10
7.34887e-09
-2.91167e-09
-4.78061e-09
6.93342e-09
-2.482e-09
-4.10799e-09
-4.77337e-11
-7.24773e-09
5.46824e-09
1.82725e-09
-4.89505e-09
3.84146e-09
1.00592e-09
3.98545e-09
2.11695e-09
1.24651e-09
6.02383e-09
-2.05101e-09
5.34155e-09
-6.20218e-09
6.90068e-09
3.91342e-09
-1.2865e-08
6.1959e-09
1.10495e-08
-1.03447e-08
7.99083e-09
-6.55939e-09
8.22179e-10
-7.90686e-11
-1.28635e-10
-4.1421e-09
8.11221e-09
-5.90036e-09
1.124e-08
1.63773e-09
8.95077e-09
-5.24693e-09
1.33499e-08
-5.51622e-09
-4.87259e-09
2.84746e-09
-1.50489e-09
5.58309e-09
5.80139e-09
6.04363e-09
1.07821e-08
1.08963e-09
1.06831e-08
-6.35027e-09
1.38463e-08
-6.33918e-09
-6.19866e-09
-1.36115e-09
1.20953e-09
-5.83469e-09
-9.41924e-09
8.02646e-09
7.22747e-09
-1.47243e-12
-5.54011e-09
-2.93113e-10
-1.386e-09
7.4163e-09
-1.2229e-08
1.86514e-08
-6.66743e-09
-9.55095e-09
-2.43301e-09
8.4131e-09
-6.66702e-09
-4.78959e-10
-4.36233e-10
9.59849e-09
-1.45847e-08
-1.68128e-09
-6.82875e-09
-7.23845e-10
-7.25677e-09
8.92129e-09
-7.94472e-09
7.88918e-09
8.359e-09
1.16996e-08
-1.17696e-08
-8.28899e-09
1.14867e-08
-3.38429e-09
2.56585e-10
6.11812e-09
2.51682e-09
3.06468e-09
9.62785e-09
-1.07619e-08
5.33396e-09
1.43038e-08
-1.71724e-08
1.21272e-08
-7.72746e-09
-3.70399e-09
1.89887e-08
-3.60677e-09
9.50423e-09
2.26586e-09
-8.16326e-09
-3.16307e-11
-1.53448e-08
6.8683e-09
-7.48346e-10
2.723e-09
-1.19853e-08
9.23067e-09
1.16837e-08
-4.33559e-09
3.06105e-09
1.67547e-08
-1.012e-08
5.01023e-09
-1.16449e-08
5.04537e-09
1.03551e-08
1.35428e-09
-5.40244e-09
1.31951e-08
-1.85682e-08
1.07756e-08
1.32157e-08
7.43502e-09
-2.60532e-08
1.46583e-08
-6.74214e-09
-1.80362e-08
1.47241e-08
4.97956e-09
1.09188e-08
-9.16175e-10
-4.99236e-09
1.39162e-08
7.35767e-09
-7.71547e-09
-1.05772e-08
-2.28391e-10
1.85211e-08
-2.63605e-09
8.11565e-09
6.40302e-09
4.87711e-09
-1.81577e-08
7.41149e-09
1.71492e-08
-1.07847e-08
1.34232e-08
-8.07127e-09
-1.14131e-08
-9.7787e-09
2.95805e-09
1.7501e-08
-1.06803e-08
9.99524e-10
-1.75204e-08
-3.90503e-09
4.71515e-10
-1.00497e-08
1.72328e-08
1.05993e-08
-1.92314e-08
9.63159e-09
2.50295e-08
-1.14721e-08
1.57995e-08
-2.20354e-09
3.62718e-09
1.06177e-08
9.37704e-09
1.86019e-09
1.33791e-09
1.52852e-08
-1.84835e-08
3.47107e-09
1.85009e-08
-2.01119e-08
3.75218e-09
2.05117e-08
-2.29261e-08
2.11984e-08
1.20124e-09
-1.86475e-08
-1.62444e-08
3.34154e-08
-1.45697e-08
-2.60125e-09
2.1442e-08
-1.6488e-08
2.15247e-08
-1.68523e-08
-8.11249e-09
3.10861e-08
2.88384e-08
-1.845e-08
2.15153e-08
1.82309e-08
-1.09078e-08
-4.40073e-09
1.30819e-08
1.28341e-08
-1.84936e-08
-6.22561e-10
3.71632e-09
1.53998e-08
-1.92321e-08
2.12502e-08
1.62818e-08
4.53758e-09
1.86576e-08
3.10395e-08
1.71648e-08
-1.02098e-08
1.25403e-08
3.50627e-08
3.32911e-10
1.39554e-08
3.41891e-08
-8.27624e-09
-4.62102e-09
-3.19106e-09
3.70415e-09
5.74327e-11
-4.52858e-09
-1.49852e-10
-4.47535e-09
-4.37869e-09
4.07346e-09
-4.24444e-09
-1.73501e-10
-4.75637e-09
4.32243e-10
1.1331e-09
-5.30942e-09
-3.97552e-09
-8.69338e-09
5.08201e-10
3.8065e-09
-1.94548e-09
-6.95397e-10
-6.05252e-09
-2.27223e-09
-3.91774e-09
1.10635e-08
-3.18501e-09
5.36957e-09
-3.47586e-10
-7.23404e-09
2.08715e-09
5.84177e-09
-8.27632e-09
1.09775e-08
-8.12874e-09
2.00164e-09
-2.19164e-09
-9.52788e-11
-4.07913e-09
-1.58214e-09
-3.16738e-09
3.59549e-11
-4.59147e-09
3.18779e-09
-1.78483e-10
4.45658e-09
-4.21574e-09
-3.09827e-10
6.9002e-11
5.03019e-10
3.99748e-09
-4.39243e-11
-3.57413e-09
4.10336e-09
-2.62079e-11
4.28212e-09
-4.48347e-09
3.2942e-11
1.68425e-10
-1.05023e-09
3.93691e-09
-2.74443e-09
-1.42202e-10
3.42461e-09
-1.92717e-10
-8.21643e-11
3.54926e-09
-4.24665e-11
-5.10888e-09
-1.62334e-11
7.44071e-11
-1.11347e-09
-4.20542e-09
2.10021e-10
-5.07242e-09
7.57886e-11
-2.9406e-09
4.48342e-09
-1.47654e-09
-6.62757e-11
1.55241e-09
-4.36621e-09
-1.26797e-10
-2.66825e-09
4.2005e-09
2.01472e-11
-4.31101e-09
1.71792e-09
-7.51813e-11
8.01881e-10
3.93524e-09
-4.52345e-09
-2.13618e-10
-3.14008e-09
4.10331e-09
-1.61345e-10
1.72118e-09
-4.59625e-09
-2.6494e-10
3.10134e-09
-2.16807e-10
-2.887e-09
2.44321e-12
7.29531e-11
3.0632e-09
-3.48336e-11
2.4496e-09
-2.34665e-09
-2.99942e-11
3.82321e-09
-1.41983e-09
4.62354e-11
2.20808e-09
-6.16587e-09
4.15316e-09
-1.95387e-10
-2.43826e-09
4.67045e-09
-2.40967e-11
3.46964e-09
-5.68949e-09
-2.18401e-10
-1.67513e-09
5.12554e-09
1.92277e-11
-3.20435e-10
-4.12716e-09
4.35785e-09
8.97251e-11
-5.18852e-09
4.8061e-09
6.19743e-11
-4.0142e-09
-1.4129e-09
2.38614e-10
-1.69093e-09
4.98149e-09
-3.25714e-09
-3.34328e-11
-4.95854e-09
-2.41326e-10
3.66865e-09
2.28629e-09
-5.80028e-09
-1.54606e-10
-2.33768e-09
5.90659e-09
9.97052e-11
3.82987e-09
-6.06552e-09
-1.02035e-10
2.464e-10
3.03625e-09
-3.24962e-09
-3.30241e-11
-3.05026e-09
3.2675e-09
2.91386e-11
-3.39064e-09
3.3722e-10
3.15053e-12
-2.52827e-10
3.90031e-09
-2.82625e-09
-8.21202e-10
3.63499e-09
-3.12893e-09
-7.58865e-10
6.62135e-10
3.67486e-09
-4.26137e-09
-7.55886e-11
-4.39002e-09
3.84814e-11
-3.58008e-10
4.06231e-09
-2.94345e-11
-3.74211e-10
4.738e-09
-4.3173e-09
-4.64663e-11
-4.96702e-09
4.70193e-09
-1.09089e-10
-3.36744e-09
5.20967e-09
-2.0058e-09
1.63593e-10
1.789e-09
-5.09858e-09
-5.78507e-11
5.11744e-09
-3.43267e-09
1.04231e-10
2.35454e-09
-4.26203e-09
2.01062e-09
-1.03158e-10
-1.88176e-09
4.12189e-09
1.14386e-10
2.39415e-09
-4.28347e-09
7.55142e-12
-2.24745e-09
4.55084e-09
9.07486e-11
2.92736e-10
-4.00909e-09
-1.72445e-11
4.09753e-09
-3.80843e-09
3.63643e-12
-3.10558e-10
-3.62609e-09
3.91231e-09
2.42924e-11
3.6394e-09
-3.96592e-09
1.59195e-11
4.84002e-10
-4.10423e-09
-5.89971e-12
1.90457e-09
2.8233e-09
-4.57784e-09
-1.50062e-10
-2.69362e-09
4.58294e-09
1.52239e-11
1.91167e-09
-4.6027e-09
-2.62682e-12
1.7517e-09
2.54667e-09
-4.25011e-09
-4.82047e-11
4.78593e-09
-3.10776e-09
7.35358e-11
-2.28868e-09
4.74028e-09
9.50846e-11
1.3669e-09
3.60703e-09
-4.96672e-09
-7.22859e-12
4.83361e-09
6.41434e-11
-1.69581e-09
5.21086e-09
9.19832e-11
3.05293e-10
2.6783e-09
-1.21552e-10
-1.79542e-09
2.16459e-09
-6.38308e-11
-2.96626e-09
1.31138e-09
-1.40482e-10
-1.36787e-09
4.92646e-09
-3.56464e-09
6.05286e-12
-5.56842e-09
4.37375e-09
-1.73181e-10
3.98993e-09
-4.89698e-09
2.7898e-10
6.2808e-10
3.80571e-09
-3.83488e-09
4.66452e-11
-1.74789e-11
3.99418e-10
3.41584e-09
-9.54694e-12
3.83768e-09
-3.48478e-09
4.65802e-11
2.90725e-10
3.57565e-09
-2.85688e-11
1.27834e-09
3.25873e-09
-4.38717e-09
-1.49885e-10
-8.33194e-11
4.9347e-09
-1.66947e-09
-6.48518e-12
1.03518e-09
2.63837e-09
-3.31036e-09
-3.63191e-10
4.04821e-09
-2.56473e-09
-4.48314e-10
4.92681e-09
-2.44146e-09
1.53021e-10
-2.01937e-09
-2.97274e-09
4.90547e-09
8.66014e-11
3.0973e-09
-5.13286e-09
1.61775e-11
-1.69634e-09
4.59421e-09
1.99412e-10
3.15432e-09
-4.89047e-09
3.97988e-11
3.97814e-09
-6.05273e-09
2.16736e-09
-9.27122e-11
-1.3879e-09
5.37625e-09
-1.01902e-11
3.66028e-09
-4.90707e-09
-1.41099e-10
5.62673e-09
-2.00659e-09
4.0115e-11
-1.43676e-09
-3.44093e-09
4.90506e-09
-2.73739e-11
3.77853e-09
-4.97152e-09
-2.43742e-10
1.61442e-09
2.76825e-09
-4.25927e-09
-1.23427e-10
4.48849e-09
-2.89234e-09
1.82576e-11
6.47071e-11
-4.59534e-09
4.52213e-09
8.48138e-12
-4.27508e-09
4.34703e-09
-7.23757e-12
-1.60542e-09
4.6918e-09
-3.30335e-09
2.17044e-10
-5.02905e-09
9.12847e-11
-1.82072e-10
-3.15069e-09
3.31169e-09
2.11216e-11
-3.43094e-09
3.2625e-09
-1.35711e-11
4.1431e-10
-3.62419e-09
5.92002e-11
-1.32062e-10
-3.78988e-09
3.92958e-09
-7.65036e-12
3.76965e-09
-3.89139e-09
-1.03364e-11
3.30218e-09
1.64281e-09
-4.79774e-09
-1.4723e-10