/*--------------------------------*- C++ -*----------------------------------*\
| =========                 |                                                 |
| \\      /  F ield         | OpenFOAM: The Open Source CFD Toolbox           |
|  \\    /   O peration     | Version:  v1612+                                |
|   \\  /    A nd           | Web:      www.OpenFOAM.com                      |
|    \\/     M anipulation  |                                                 |
\*---------------------------------------------------------------------------*/
FoamFile
{
    version     2.0;
    format      ascii;
    class       volVectorField;
    location    "50";
    object      wallShearStress;
}
// * * * * * * * * * * * * * * * * * * * * * * * * * * * * * * * * * * * * * //

dimensions      [0 2 -2 0 0 0 0];

internalField   uniform (0 0 0);

boundaryField
{
    WALL
    {
        type            calculated;
        value           nonuniform List<vector> 
1496
(
(0.00386485 -0.00561041 0.00987188)
(0.00434294 -0.00529053 0.00974067)
(0.00412748 -0.00506504 0.00934365)
(0.00420078 -0.00530614 0.00985724)
(0.00450994 -0.00520769 0.00974887)
(0.0046096 -0.00518809 0.0102153)
(0.00436683 -0.00528424 0.00968338)
(0.00448259 -0.00544944 0.0102156)
(0.00418056 -0.00526407 0.0109644)
(0.00419285 -0.00520054 0.00925742)
(0.00405037 -0.00553617 0.00929299)
(0.00440179 -0.00495765 0.00932569)
(0.00423964 -0.00529402 0.00951515)
(0.00428595 -0.00541499 0.00979886)
(0.00420902 -0.00545646 0.00979286)
(0.00411734 -0.00495244 0.00935984)
(0.00412471 -0.00505153 0.00937928)
(0.00450313 -0.00496426 0.00964789)
(0.00443238 -0.00521041 0.00984115)
(0.00420945 -0.00511847 0.00945147)
(0.00402819 -0.00494711 0.00937024)
(0.00452164 -0.00534171 0.00994056)
(0.00432149 -0.00539615 0.00982916)
(0.00425717 -0.00603412 0.0102856)
(0.00465112 -0.00545767 0.0101121)
(0.00395392 -0.00533683 0.00957588)
(0.00418668 -0.00471788 0.00924361)
(0.00402693 -0.00575959 0.00970825)
(0.00431774 -0.00555884 0.0101435)
(0.00451172 -0.00521716 0.00982339)
(0.00449416 -0.00508534 0.00968514)
(0.00441929 -0.00549173 0.0100696)
(0.00434014 -0.0052864 0.00985493)
(0.00430831 -0.00522913 0.00959045)
(0.00455853 -0.00550399 0.0105093)
(0.00440375 -0.00535058 0.0102697)
(0.00431815 -0.00618322 0.0109744)
(0.00402818 -0.00578639 0.010399)
(0.00416619 -0.00547999 0.00993084)
(0.00383361 -0.00567881 0.0101904)
(0.00431859 -0.00571102 0.0101415)
(0.00386426 -0.0056088 0.0102551)
(0.00446776 -0.00536902 0.0101922)
(0.00468485 -0.00562076 0.0104958)
(0.00446483 -0.00546324 0.010013)
(0.00440752 -0.00543617 0.0102947)
(0.00423683 -0.00525884 0.00969265)
(0.00432975 -0.00539156 0.0101692)
(0.00434274 -0.00538267 0.0099941)
(0.00459186 -0.00520103 0.0108832)
(0.00472578 -0.00607182 0.0102839)
(0.00447895 -0.00531761 0.0103857)
(0.00438301 -0.00511318 0.00960428)
(0.00425979 -0.00485392 0.00914153)
(0.00443679 -0.00518607 0.00968754)
(0.00451975 -0.00475794 0.00915695)
(0.00448233 -0.00503263 0.00957924)
(0.0041432 -0.00516718 0.00939939)
(0.0039571 -0.00485921 0.00920021)
(0.00417782 -0.00517482 0.00952635)
(0.00386878 -0.00509171 0.0096884)
(0.00378559 -0.00507133 0.00927304)
(0.00418971 -0.00521849 0.00962461)
(0.00363781 -0.00473375 0.00911853)
(0.00447574 -0.0053062 0.00973156)
(0.00418232 -0.00537372 0.00990023)
(0.00409539 -0.00533401 0.00972341)
(0.0041307 -0.00532115 0.00971545)
(0.00421303 -0.00536887 0.00975972)
(0.00414346 -0.00528235 0.00963891)
(0.00391494 -0.00439072 0.00882684)
(0.00396007 -0.00485575 0.00927131)
(0.00411385 -0.00483738 0.00931988)
(0.00403465 -0.00443623 0.00947691)
(0.00396361 -0.00471181 0.00936593)
(0.00395151 -0.00457258 0.00922013)
(0.00431714 -0.00520507 0.00948292)
(0.0043102 -0.00520248 0.00961019)
(0.00426253 -0.00522854 0.00956861)
(0.00440324 -0.00558624 0.00990244)
(0.00436585 -0.00516275 0.00947386)
(0.00425742 -0.00523735 0.00970842)
(0.00421871 -0.00576127 0.0111819)
(0.00393799 -0.00535391 0.0104903)
(0.00436206 -0.00598482 0.0113038)
(0.00398803 -0.00465662 0.00896186)
(0.00412469 -0.00464569 0.00915569)
(0.00433461 -0.0049439 0.00960966)
(0.00423553 -0.0047847 0.00926265)
(0.0042529 -0.0047131 0.00941882)
(0.00427217 -0.00519324 0.00959518)
(0.00458479 -0.00498743 0.00985539)
(0.00474232 -0.00529434 0.0103949)
(0.00441118 -0.00541158 0.00978327)
(0.00465348 -0.00482163 0.00998968)
(0.00454029 -0.00540459 0.0101787)
(0.00430516 -0.00548038 0.00995721)
(0.00446097 -0.00543895 0.0100269)
(0.00450272 -0.00540213 0.0106445)
(0.00436767 -0.00515985 0.0103658)
(0.00449232 -0.00548846 0.0102722)
(0.00400908 -0.00499152 0.0102614)
(0.00447526 -0.00540763 0.0102892)
(0.00443821 -0.00536832 0.0104008)
(0.00432842 -0.00498593 0.0102015)
(0.00419326 -0.00515261 0.0103414)
(0.00412949 -0.0050991 0.00995822)
(0.00400529 -0.00523132 0.0099833)
(0.00470657 -0.00548647 0.0101787)
(0.00502722 -0.0058007 0.0112632)
(0.00465303 -0.0056652 0.0105729)
(0.00432876 -0.00557424 0.0108922)
(0.00459339 -0.00535933 0.0106059)
(0.00461003 -0.00569288 0.0104472)
(0.00486855 -0.00577732 0.0111265)
(0.00428711 -0.00513923 0.0106569)
(0.00470092 -0.0055641 0.0102445)
(0.00472537 -0.00556888 0.0102416)
(0.00476498 -0.00531679 0.0100917)
(0.00465916 -0.00555938 0.010211)
(0.00441385 -0.00525366 0.00992137)
(0.0044801 -0.00551894 0.0101239)
(0.00445863 -0.00536538 0.00989514)
(0.0043558 -0.00522128 0.00935703)
(0.00412608 -0.00545235 0.00970089)
(0.00461524 -0.00552472 0.0102609)
(0.00477976 -0.00547543 0.0101913)
(0.00451905 -0.00568515 0.0101016)
(0.00461468 -0.00520011 0.00980109)
(0.00457942 -0.00517404 0.010033)
(0.00443201 -0.00498458 0.00934094)
(0.0042337 -0.00550169 0.00980428)
(0.00461833 -0.00537486 0.0100276)
(0.00439037 -0.00552301 0.00991929)
(0.00453641 -0.00546929 0.0103545)
(0.00434788 -0.00510586 0.0096415)
(0.00464196 -0.00552463 0.0103498)
(0.00445509 -0.00487722 0.00960313)
(0.00458989 -0.00507229 0.0103122)
(0.00439704 -0.00551462 0.00987064)
(0.00494563 -0.00552742 0.0107627)
(0.00448737 -0.00574717 0.0103952)
(0.00477441 -0.00563158 0.0103979)
(0.00447264 -0.00559911 0.0100692)
(0.00453119 -0.00516651 0.0102295)
(0.0046392 -0.00582063 0.0109791)
(0.00428117 -0.00509861 0.0103086)
(0.00433195 -0.00490491 0.0102235)
(0.00437267 -0.00520618 0.0103355)
(0.00455829 -0.00561615 0.0114858)
(0.00444294 -0.00522503 0.010689)
(0.00412223 -0.00533785 0.00945237)
(0.00457118 -0.00517382 0.00965865)
(0.00426103 -0.00563123 0.00970943)
(0.00429025 -0.00527946 0.00966397)
(0.00426218 -0.00511375 0.00965884)
(0.00403565 -0.00482133 0.00896977)
(0.00378075 -0.00440183 0.00845972)
(0.00400454 -0.00460727 0.00906672)
(0.00414262 -0.00486707 0.00949962)
(0.00414126 -0.00511509 0.00961015)
(0.00414785 -0.00490138 0.00969004)
(0.00422608 -0.005073 0.00982642)
(0.00413675 -0.00602723 0.0100211)
(0.0047063 -0.00596938 0.0108544)
(0.00479813 -0.00522793 0.010209)
(0.00476382 -0.00579195 0.0107048)
(0.00468067 -0.00536173 0.0102837)
(0.00448588 -0.00592082 0.01055)
(0.00430491 -0.00545309 0.00991202)
(0.00429997 -0.00549368 0.00991376)
(0.00435455 -0.00556403 0.0100669)
(0.0042471 -0.00547573 0.00977785)
(0.00425691 -0.0055203 0.00991879)
(0.00421587 -0.00550277 0.00978567)
(0.00446304 -0.00491255 0.00973306)
(0.00424607 -0.0051847 0.00977899)
(0.00433134 -0.00483684 0.00962336)
(0.00481598 -0.00571118 0.0113809)
(0.0043812 -0.00505314 0.00999298)
(0.00438617 -0.00506542 0.00956068)
(0.00435951 -0.00511792 0.00968679)
(0.0041934 -0.00514485 0.00950075)
(0.0044434 -0.00531058 0.00994168)
(0.00427912 -0.00514898 0.00955772)
(0.00439692 -0.00502123 0.00986727)
(0.00435648 -0.00494893 0.00967321)
(0.00440323 -0.00557335 0.0100644)
(0.00456548 -0.00583345 0.0103749)
(0.00428393 -0.00551513 0.00989978)
(0.00474585 -0.00514496 0.0106705)
(0.00432884 -0.00561978 0.0100085)
(0.00450205 -0.00560092 0.0100966)
(0.00378008 -0.00492662 0.0102877)
(0.00412794 -0.00521479 0.0101998)
(0.00373907 -0.00513916 0.0104953)
(0.00380427 -0.00496709 0.00987252)
(0.00399166 -0.00526456 0.0104423)
(0.00427766 -0.00534059 0.0102643)
(0.00375307 -0.00525054 0.0103901)
(0.00401823 -0.00511822 0.00975771)
(0.00418994 -0.00541385 0.010025)
(0.00382664 -0.00512899 0.0099479)
(0.00394849 -0.00529502 0.0104895)
(0.00441588 -0.0057255 0.0105751)
(0.00354133 -0.00427971 0.00866117)
(0.00362093 -0.00398896 0.00876883)
(0.00386943 -0.00433393 0.00886285)
(0.00354569 -0.00375688 0.00860778)
(0.00377402 -0.00440417 0.00971869)
(0.00386407 -0.00397769 0.00890125)
(0.00424782 -0.00494968 0.00932982)
(0.00423465 -0.00511589 0.00956714)
(0.00415803 -0.00506811 0.00931304)
(0.00412495 -0.00479003 0.00916955)
(0.00433349 -0.00512119 0.00959926)
(0.00379166 -0.00526116 0.00962078)
(0.00393541 -0.00523897 0.00962815)
(0.00385081 -0.00526236 0.00954697)
(0.00402555 -0.00516697 0.0094903)
(0.00403072 -0.0053785 0.0097462)
(0.00403767 -0.0052419 0.00959265)
(0.00397349 -0.00520436 0.00873861)
(0.00453422 -0.00535994 0.00994299)
(0.0041447 -0.00534349 0.00902989)
(0.00403356 -0.00551847 0.00915472)
(0.00380136 -0.00588593 0.00908652)
(0.00462199 -0.00593566 0.0109363)
(0.00405235 -0.00463345 0.00883053)
(0.00419502 -0.00556768 0.00985647)
(0.00447953 -0.00479737 0.00956427)
(0.00393511 -0.00493903 0.00891017)
(0.00434755 -0.00502375 0.0091303)
(0.00435283 -0.00493738 0.00951456)
(0.00460467 -0.00487756 0.00984584)
(0.00426312 -0.00511682 0.0097468)
(0.00457671 -0.00504183 0.00998462)
(0.00486883 -0.00524339 0.0109696)
(0.00479874 -0.00500475 0.0105592)
(0.00402927 -0.00516351 0.00939161)
(0.00417676 -0.00514857 0.0095949)
(0.00427855 -0.0052721 0.00970755)
(0.00427864 -0.0054616 0.00995788)
(0.004275 -0.00520316 0.00983505)
(0.0040279 -0.00515206 0.0097037)
(0.00441694 -0.00497695 0.009595)
(0.00437841 -0.00505753 0.00959802)
(0.00459812 -0.00488535 0.00978351)
(0.00464288 -0.00513602 0.00985875)
(0.00459696 -0.00523604 0.0100493)
(0.00431721 -0.00515791 0.00966682)
(0.00429108 -0.00530397 0.0097662)
(0.00431796 -0.00540325 0.00995573)
(0.00438583 -0.00529757 0.00979158)
(0.00444677 -0.00534579 0.00988522)
(0.00457971 -0.00537227 0.00987814)
(0.00435123 -0.00544845 0.00988104)
(0.00417203 -0.00554405 0.0101527)
(0.00413529 -0.00517038 0.00958742)
(0.00414996 -0.00522821 0.00970151)
(0.00409816 -0.0052297 0.00955582)
(0.00437885 -0.00531973 0.0100292)
(0.00443254 -0.00530804 0.0098036)
(0.00374845 -0.00544413 0.0103252)
(0.00405202 -0.00528811 0.00973149)
(0.0038803 -0.00508724 0.00974149)
(0.00371619 -0.0051304 0.00977069)
(0.00371023 -0.00487133 0.00945718)
(0.00364079 -0.00499067 0.00955778)
(0.00453632 -0.00544879 0.0101126)
(0.00387117 -0.00560916 0.0104903)
(0.00424192 -0.00532158 0.00964877)
(0.00439535 -0.00555142 0.0100317)
(0.00385612 -0.00507334 0.00968187)
(0.00395132 -0.00523638 0.00975311)
(0.00419671 -0.00524723 0.0102638)
(0.00433062 -0.00528822 0.0100453)
(0.00415706 -0.00512952 0.0104015)
(0.00446364 -0.0055285 0.0103296)
(0.00402924 -0.00523145 0.010432)
(0.00429568 -0.00537909 0.010328)
(0.00446869 -0.00530011 0.0109657)
(0.0043523 -0.00514521 0.00955262)
(0.00398502 -0.00521094 0.0092159)
(0.00477722 -0.00542251 0.0102624)
(0.00410217 -0.00477938 0.00953996)
(0.0042513 -0.00495868 0.00931546)
(0.00482524 -0.00587636 0.0102958)
(0.00435266 -0.00534971 0.00941526)
(0.00448552 -0.00467893 0.00987656)
(0.00410318 -0.00474462 0.00907973)
(0.00421297 -0.00454971 0.00973837)
(0.00499224 -0.00566208 0.0109223)
(0.00481454 -0.00553698 0.0107249)
(0.00414434 -0.00481897 0.0104325)
(0.00455467 -0.00547679 0.0100905)
(0.00407444 -0.00470024 0.00941295)
(0.00454197 -0.00539602 0.0109175)
(0.00444561 -0.00547048 0.0103608)
(0.00437941 -0.00453279 0.00955672)
(0.00440124 -0.00493277 0.00957658)
(0.00419355 -0.00501708 0.00937703)
(0.00435985 -0.00444501 0.00934743)
(0.00404881 -0.005221 0.00946458)
(0.00451913 -0.00503366 0.00981707)
(0.00440206 -0.00478851 0.00979205)
(0.00462026 -0.00546935 0.0104997)
(0.00426844 -0.00486267 0.00947397)
(0.00429855 -0.00517115 0.00966998)
(0.00469021 -0.00488706 0.0103273)
(0.00434849 -0.00482516 0.00950951)
(0.00442798 -0.0052032 0.00993459)
(0.00463764 -0.00518406 0.00999753)
(0.00438894 -0.00513815 0.00957393)
(0.00453346 -0.00529928 0.00994229)
(0.00422804 -0.00521647 0.0096202)
(0.00428878 -0.00516266 0.0097043)
(0.00438074 -0.00528134 0.00970546)
(0.00420101 -0.00498786 0.00934828)
(0.00430305 -0.00539617 0.0106123)
(0.0045218 -0.00545189 0.0105613)
(0.00457765 -0.0053203 0.010091)
(0.00444822 -0.0053667 0.00995682)
(0.00446009 -0.00535395 0.00986826)
(0.00424374 -0.00516503 0.00964804)
(0.0039282 -0.00509288 0.0097574)
(0.00424195 -0.00504298 0.00966512)
(0.0040894 -0.00515186 0.0098665)
(0.00426226 -0.00523186 0.00991789)
(0.00429204 -0.00547191 0.010412)
(0.00430396 -0.00524008 0.010107)
(0.00474239 -0.00564458 0.0105394)
(0.00458281 -0.00546038 0.0107151)
(0.0042506 -0.0049954 0.0103866)
(0.00466148 -0.00582371 0.0104397)
(0.00428062 -0.00510618 0.0103188)
(0.00460644 -0.00584056 0.0108939)
(0.00445194 -0.00557746 0.0104671)
(0.00486039 -0.00582728 0.0110104)
(0.00456951 -0.00527166 0.0100907)
(0.00430367 -0.00535099 0.0107236)
(0.00454183 -0.00521065 0.0108208)
(0.00472931 -0.00557419 0.010257)
(0.00444803 -0.00526047 0.0094638)
(0.00383353 -0.00481224 0.00898353)
(0.00401131 -0.00506686 0.00931756)
(0.00440774 -0.00520173 0.00963772)
(0.00386561 -0.00532395 0.00983431)
(0.0042016 -0.00514463 0.00922213)
(0.0042168 -0.00498653 0.00933538)
(0.00417222 -0.00481111 0.00896076)
(0.0042388 -0.00511944 0.00940173)
(0.00426756 -0.00493942 0.0091599)
(0.00417111 -0.00505432 0.00925887)
(0.00400412 -0.00501788 0.00916799)
(0.00428229 -0.00513689 0.00946241)
(0.00441731 -0.00527907 0.00981518)
(0.00448119 -0.00534073 0.00991475)
(0.00444446 -0.00548161 0.0100228)
(0.00449165 -0.00538968 0.0101092)
(0.00439818 -0.00518589 0.00973292)
(0.00432652 -0.00537117 0.0101467)
(0.00456937 -0.00540639 0.00979675)
(0.00471656 -0.00543168 0.00979368)
(0.00467377 -0.00545381 0.0101513)
(0.00433259 -0.00517343 0.00956646)
(0.00492674 -0.00547352 0.0103465)
(0.00464036 -0.00558407 0.0103228)
(0.00443998 -0.00535162 0.00979528)
(0.00451202 -0.0055498 0.0101984)
(0.00460816 -0.00548941 0.0102678)
(0.00438598 -0.00552322 0.0101033)
(0.0044119 -0.00561799 0.0104659)
(0.00451814 -0.00553329 0.0105645)
(0.00426364 -0.00524644 0.00957557)
(0.0045568 -0.00565251 0.0100991)
(0.00480888 -0.00553797 0.010222)
(0.00454602 -0.00549928 0.0101904)
(0.00513388 -0.0058682 0.0105685)
(0.00403409 -0.0050678 0.00931141)
(0.00410461 -0.00514237 0.00936762)
(0.00429519 -0.00529379 0.00976354)
(0.00466892 -0.00541869 0.0104846)
(0.00467138 -0.00538251 0.0106465)
(0.00450007 -0.00554674 0.010407)
(0.00439288 -0.0050769 0.00993652)
(0.0047356 -0.00533031 0.0107447)
(0.00467323 -0.0053419 0.0106092)
(0.0044692 -0.00555972 0.010695)
(0.00442082 -0.00556411 0.0100033)
(0.00438287 -0.00574371 0.0104546)
(0.00410386 -0.00533253 0.0104665)
(0.00408184 -0.00523719 0.00996146)
(0.00441438 -0.00544458 0.00978419)
(0.00411758 -0.0053045 0.00995503)
(0.00428072 -0.00524558 0.00973415)
(0.00414589 -0.00529047 0.00977712)
(0.00436679 -0.00537963 0.0100172)
(0.00410133 -0.00520215 0.00984196)
(0.00405428 -0.00523845 0.0097875)
(0.00465292 -0.00546748 0.010112)
(0.00458674 -0.00542142 0.0102523)
(0.00486754 -0.00522116 0.0107383)
(0.00460566 -0.00563001 0.0101595)
(0.00454831 -0.00512208 0.0101058)
(0.00453462 -0.00551962 0.0101565)
(0.00518611 -0.00585 0.0109451)
(0.00489765 -0.00579047 0.0110325)
(0.00513426 -0.00571975 0.0110106)
(0.00449793 -0.00542912 0.00971334)
(0.00485935 -0.00572625 0.0108795)
(0.00482838 -0.00562299 0.0109805)
(0.00472864 -0.00538846 0.0106318)
(0.00457519 -0.00550167 0.0107085)
(0.00448659 -0.00506289 0.0105894)
(0.00466392 -0.00549341 0.0106499)
(0.00455314 -0.00528484 0.0106703)
(0.00447577 -0.00513098 0.0101418)
(0.0044532 -0.00553429 0.010256)
(0.0046953 -0.00580332 0.0108951)
(0.00451595 -0.00524309 0.0108064)
(0.00489586 -0.00565866 0.0109137)
(0.00468931 -0.00568915 0.0106492)
(0.00397641 -0.00523863 0.0105011)
(0.00473612 -0.00536777 0.0108043)
(0.00430565 -0.00520487 0.0106794)
(0.00476031 -0.0055774 0.0105675)
(0.00472781 -0.00562853 0.0106685)
(0.00495917 -0.00577849 0.0108888)
(0.00488984 -0.00600503 0.0110079)
(0.00402305 -0.0056629 0.0108236)
(0.00411817 -0.00532812 0.0110568)
(0.00440067 -0.00560315 0.0105625)
(0.004218 -0.00548618 0.0111078)
(0.00391928 -0.00507491 0.0103579)
(0.00423103 -0.00544786 0.0100355)
(0.00410181 -0.00507637 0.00917447)
(0.00368447 -0.004994 0.00887037)
(0.00359373 -0.00515119 0.00921469)
(0.00367992 -0.00481888 0.00881712)
(0.00382796 -0.00486035 0.00890239)
(0.00373116 -0.00505243 0.00906406)
(0.0037318 -0.00506925 0.00938068)
(0.00363285 -0.00510196 0.00915838)
(0.00373007 -0.00490666 0.00918113)
(0.00515904 -0.00611068 0.0115107)
(0.0046993 -0.00552972 0.0110307)
(0.00435509 -0.00477101 0.0107174)
(0.00482368 -0.00557716 0.0109227)
(0.00456599 -0.00534093 0.0107481)
(0.00468179 -0.00563258 0.0107991)
(0.00424113 -0.00523717 0.0108686)
(0.00410509 -0.00496731 0.0107065)
(0.00431996 -0.00506974 0.0106863)
(0.00448918 -0.00510883 0.00987115)
(0.0048891 -0.00491524 0.0111966)
(0.00440352 -0.00521809 0.0100763)
(0.00446091 -0.00477083 0.0104968)
(0.00536747 -0.0059569 0.0115871)
(0.00506487 -0.00599792 0.0110596)
(0.00377243 -0.00497905 0.00953991)
(0.00352779 -0.00504399 0.00962045)
(0.00373213 -0.0052913 0.00994745)
(0.00374566 -0.00519691 0.0100049)
(0.00367931 -0.00494768 0.00929415)
(0.00367461 -0.00516422 0.00998566)
(0.0040551 -0.00550779 0.0112892)
(0.00406783 -0.00529344 0.0108528)
(0.00402093 -0.00540832 0.0108477)
(0.00413316 -0.00517192 0.0104755)
(0.00408124 -0.00515632 0.0106979)
(0.0039289 -0.00504507 0.011023)
(0.00451501 -0.00545791 0.0108661)
(0.00381835 -0.00492696 0.0105057)
(0.00429101 -0.00532846 0.010394)
(0.00420895 -0.00481571 0.00938613)
(0.00399217 -0.00479079 0.00895854)
(0.00417658 -0.00511935 0.00914204)
(0.00419958 -0.00513104 0.00952615)
(0.00440883 -0.00546841 0.00983117)
(0.00416152 -0.00464234 0.00899793)
(0.00419035 -0.00602974 0.010902)
(0.00386126 -0.00533 0.0101728)
(0.00435832 -0.00603407 0.0111768)
(0.00396186 -0.00577589 0.0106288)
(0.0040455 -0.00589704 0.0108933)
(0.00391744 -0.00571774 0.0106794)
(0.00388286 -0.00601057 0.0106075)
(0.00391862 -0.00596027 0.0107472)
(0.00417653 -0.00597109 0.0106751)
(0.003833 -0.00623483 0.0111149)
(0.0041265 -0.00525025 0.0114177)
(0.00359331 -0.00503783 0.0100778)
(0.00378733 -0.00533771 0.0103598)
(0.00375014 -0.00513702 0.00979654)
(0.00355263 -0.00507873 0.00961448)
(0.00348879 -0.00494601 0.00946718)
(0.00413654 -0.00534305 0.0106169)
(0.0042453 -0.00515979 0.0100946)
(0.00452915 -0.00557241 0.0106577)
(0.00453244 -0.0057024 0.01138)
(0.00417517 -0.00494158 0.010691)
(0.00465054 -0.00552422 0.0108139)
(0.00445735 -0.00550849 0.0103867)
(0.00442609 -0.00541745 0.0107649)
(0.0048123 -0.00582173 0.0110517)
(0.00496786 -0.00604606 0.0110952)
(0.00435878 -0.00581977 0.0102785)
(0.00448543 -0.00585071 0.01049)
(0.00429925 -0.00603309 0.0105708)
(0.0047211 -0.005491 0.0107742)
(0.00489939 -0.00573981 0.0109567)
(0.00350593 -0.00514024 0.00967776)
(0.00407772 -0.0053173 0.00997383)
(0.00351045 -0.00493152 0.00943488)
(0.00364768 -0.00505226 0.00941379)
(0.00375656 -0.00519956 0.009605)
(0.00388025 -0.00509034 0.00933966)
(0.00347184 -0.00523348 0.00993604)
(0.0036037 -0.00484125 0.00856974)
(0.00364067 -0.00499113 0.0089313)
(0.00360574 -0.00489207 0.00877665)
(0.00383532 -0.00512445 0.00924086)
(0.00389792 -0.00513156 0.00935571)
(0.00367176 -0.00513635 0.0092472)
(0.00357102 -0.00514042 0.00913654)
(0.00367432 -0.00504614 0.0092195)
(0.0041232 -0.00540983 0.00978403)
(0.00422429 -0.00525243 0.00960733)
(0.00411714 -0.00464669 0.00889356)
(0.00391451 -0.00503451 0.0090719)
(0.00397854 -0.00501871 0.00900603)
(0.00385527 -0.00492394 0.00901121)
(0.00354691 -0.00491999 0.00854777)
(0.00379129 -0.00461922 0.00846774)
(0.0038046 -0.00477406 0.00862335)
(0.00497265 -0.0054894 0.0113724)
(0.0041699 -0.00531353 0.0105702)
(0.0045044 -0.00525293 0.0106535)
(0.00462508 -0.00516676 0.0105965)
(0.00401252 -0.0050533 0.00963558)
(0.00363719 -0.00503736 0.00970973)
(0.00429846 -0.00535639 0.0105528)
(0.00410441 -0.00497091 0.00975285)
(0.00479003 -0.00568341 0.0104041)
(0.00432287 -0.0054721 0.0100739)
(0.00465642 -0.00561611 0.0101415)
(0.00484312 -0.00591994 0.0107587)
(0.00448157 -0.00529062 0.0109521)
(0.00492175 -0.00597935 0.0107987)
(0.00454742 -0.00565127 0.0110147)
(0.00424929 -0.0054892 0.0105944)
(0.00482765 -0.00589645 0.0108305)
(0.00494032 -0.00584426 0.0108582)
(0.00490311 -0.00596576 0.0109673)
(0.00451305 -0.00584773 0.0112778)
(0.0045578 -0.005672 0.0111408)
(0.00442219 -0.00542197 0.0107022)
(0.00490308 -0.00577031 0.0105504)
(0.00417662 -0.00543926 0.0102656)
(0.00426743 -0.0055024 0.00973189)
(0.00480738 -0.00552177 0.0107784)
(0.00397404 -0.00495385 0.0101146)
(0.00449411 -0.00558188 0.0102723)
(0.00462961 -0.00564198 0.0103397)
(0.00463472 -0.00576086 0.0104147)
(0.00445283 -0.00516789 0.010309)
(0.00416832 -0.00502029 0.00976066)
(0.00445433 -0.00512519 0.0101614)
(0.00467861 -0.00565608 0.0101521)
(0.00429864 -0.00540011 0.0100017)
(0.00463673 -0.00524955 0.0103666)
(0.0045368 -0.00509861 0.0103054)
(0.00470643 -0.00540624 0.0104477)
(0.00446887 -0.00490616 0.00996145)
(0.00474274 -0.00529419 0.0104061)
(0.00449683 -0.00549315 0.0100901)
(0.00425684 -0.00547861 0.0096954)
(0.00438257 -0.00519563 0.00964484)
(0.00449112 -0.00538426 0.00988684)
(0.00406634 -0.00510708 0.00962901)
(0.00413702 -0.00525008 0.00950771)
(0.00392772 -0.00499404 0.00913162)
(0.00406083 -0.00516777 0.00970337)
(0.00465297 -0.00556949 0.0102721)
(0.00444473 -0.00538193 0.00979588)
(0.00440447 -0.00549071 0.00992521)
(0.00421907 -0.00541741 0.00989963)
(0.00421897 -0.00531011 0.00971098)
(0.00419 -0.00536113 0.00964744)
(0.00427836 -0.00539289 0.00976453)
(0.00435795 -0.00549688 0.0101199)
(0.00399706 -0.0052174 0.00962102)
(0.00436121 -0.00532942 0.0100321)
(0.00457797 -0.00590293 0.0109473)
(0.00430781 -0.0053299 0.0101483)
(0.00484678 -0.00579704 0.0111629)
(0.00425866 -0.00542376 0.0100817)
(0.00432444 -0.00550979 0.0104038)
(0.00444463 -0.00550713 0.0101354)
(0.00446498 -0.00492961 0.00911913)
(0.00378399 -0.00496106 0.00907239)
(0.0044072 -0.00565237 0.0103023)
(0.00389661 -0.00493812 0.00920872)
(0.00411817 -0.00506167 0.0106211)
(0.00383655 -0.0048591 0.00943438)
(0.00413196 -0.00493549 0.00994109)
(0.00377857 -0.005089 0.00975714)
(0.004225 -0.00528164 0.00950821)
(0.00433343 -0.00505774 0.009556)
(0.00428168 -0.00514694 0.00961848)
(0.00437273 -0.00506143 0.00927534)
(0.00421614 -0.00516024 0.00960917)
(0.00445325 -0.00525056 0.0099974)
(0.00408049 -0.00498199 0.00968922)
(0.00431593 -0.0054154 0.010417)
(0.00440331 -0.00518234 0.00959234)
(0.00462989 -0.00522969 0.00988487)
(0.00431284 -0.00525381 0.00953477)
(0.00452352 -0.00548797 0.0102985)
(0.00437379 -0.00565561 0.00982782)
(0.00418417 -0.00480845 0.00925783)
(0.00441924 -0.00505423 0.00953472)
(0.00452961 -0.0048607 0.0095476)
(0.00438664 -0.00538002 0.00976813)
(0.00428815 -0.00520835 0.00937842)
(0.00472135 -0.00492988 0.00967325)
(0.00414126 -0.00479203 0.00897555)
(0.00418321 -0.00519657 0.00946873)
(0.00432868 -0.00509436 0.00965131)
(0.00435844 -0.00509195 0.00949235)
(0.00461715 -0.00503202 0.00939929)
(0.00458849 -0.00489286 0.00964695)
(0.00431005 -0.00492824 0.00921564)
(0.00440871 -0.00508995 0.00958572)
(0.00457996 -0.00525308 0.00984977)
(0.00422518 -0.00510113 0.00973439)
(0.00426736 -0.00492784 0.00934519)
(0.00427294 -0.00487556 0.00927455)
(0.00448057 -0.00527059 0.00975231)
(0.00440357 -0.00505661 0.009467)
(0.00432003 -0.00514822 0.00959123)
(0.0042983 -0.00467883 0.00907399)
(0.00417287 -0.00500828 0.00934674)
(0.00417646 -0.00497855 0.00933645)
(0.00465515 -0.00501341 0.00973675)
(0.00435562 -0.00493921 0.00943171)
(0.00464274 -0.00465064 0.00935334)
(0.00423211 -0.0048366 0.00912877)
(0.00424194 -0.00517244 0.00954001)
(0.00446101 -0.00544405 0.0098341)
(0.00442002 -0.00490549 0.00938575)
(0.00425568 -0.00498099 0.00922357)
(0.00421418 -0.00476025 0.00909771)
(0.00439098 -0.00509442 0.00965065)
(0.00420344 -0.00487968 0.00906432)
(0.00421035 -0.00509986 0.00957003)
(0.00412654 -0.00498638 0.00930906)
(0.00409359 -0.00493254 0.00914425)
(0.00457125 -0.00511462 0.0100689)
(0.00454252 -0.00484263 0.00976931)
(0.00464584 -0.00472664 0.00968099)
(0.00422511 -0.00479877 0.00937557)
(0.0045149 -0.00475026 0.00929624)
(0.00468339 -0.00459522 0.00949846)
(0.00458248 -0.0050525 0.00978272)
(0.00457305 -0.00518498 0.00998047)
(0.00451199 -0.00502883 0.0100613)
(0.00437157 -0.00478594 0.00966374)
(0.00478751 -0.00598266 0.0108786)
(0.00435017 -0.00549489 0.010376)
(0.00420165 -0.00543633 0.0109443)
(0.00398957 -0.00496929 0.0100579)
(0.00423776 -0.00461693 0.00970093)
(0.00450866 -0.00559528 0.0107807)
(0.00412464 -0.00481328 0.0103217)
(0.00413168 -0.00475223 0.010337)
(0.00452762 -0.005219 0.0107545)
(0.00451404 -0.00538037 0.0104598)
(0.00434818 -0.00540844 0.0106468)
(0.00404046 -0.00501297 0.00992187)
(0.00404234 -0.00498749 0.0103606)
(0.00410075 -0.00505162 0.01039)
(0.00404091 -0.00482553 0.00989368)
(0.00497471 -0.00590956 0.0109451)
(0.00436963 -0.00535198 0.0111804)
(0.00472321 -0.0054784 0.00977106)
(0.0043683 -0.00561017 0.00990774)
(0.00483826 -0.00515359 0.0107448)
(0.0042197 -0.00456429 0.00950918)
(0.00463836 -0.00564008 0.0111637)
(0.00430053 -0.00546009 0.0103386)
(0.00481733 -0.00592774 0.0108376)
(0.0049607 -0.00618347 0.0112799)
(0.00447067 -0.00551039 0.0101571)
(0.00417156 -0.0051805 0.0101649)
(0.00450816 -0.00546285 0.0100028)
(0.00383468 -0.00509808 0.0100956)
(0.00379074 -0.00487688 0.00996014)
(0.00409222 -0.00512037 0.00986133)
(0.00425508 -0.00502053 0.0104221)
(0.0041612 -0.00507602 0.0102586)
(0.00418217 -0.00504298 0.00978942)
(0.00444135 -0.00544815 0.0103794)
(0.00392783 -0.00481346 0.00954151)
(0.00394722 -0.0050553 0.0101507)
(0.00420549 -0.00524518 0.0103409)
(0.00428075 -0.00525815 0.00996832)
(0.00376634 -0.00494021 0.0103051)
(0.00418218 -0.00501949 0.00983993)
(0.00422423 -0.00537067 0.0100303)
(0.00410627 -0.00515672 0.0100991)
(0.00421984 -0.00508341 0.00968817)
(0.00429545 -0.00512069 0.0100911)
(0.00444675 -0.00537021 0.0105171)
(0.00418978 -0.00493694 0.00996204)
(0.0040938 -0.0047654 0.0103263)
(0.00438962 -0.00516119 0.0100734)
(0.00465922 -0.00536532 0.0101585)
(0.00434263 -0.00474863 0.0102253)
(0.00433648 -0.00539123 0.0103697)
(0.004359 -0.00535904 0.0103154)
(0.00439846 -0.00509475 0.0100414)
(0.00447877 -0.00538221 0.0103254)
(0.00482317 -0.00545363 0.0106686)
(0.00463646 -0.00554811 0.0102894)
(0.00465701 -0.00571206 0.0111646)
(0.00424815 -0.00518048 0.0105376)
(0.00454835 -0.00559092 0.0109245)
(0.00463141 -0.00589205 0.010975)
(0.00427842 -0.00508124 0.0104868)
(0.0046117 -0.00542583 0.0108647)
(0.00458652 -0.00546929 0.0103117)
(0.00454203 -0.00546442 0.0107206)
(0.00382633 -0.00511937 0.00960503)
(0.00402628 -0.00486084 0.00935111)
(0.00421408 -0.00546249 0.0109098)
(0.00405734 -0.00536721 0.00999119)
(0.00424226 -0.00525983 0.0100068)
(0.00422289 -0.00522212 0.00975703)
(0.00393511 -0.00509162 0.00992872)
(0.00411804 -0.00502782 0.00953679)
(0.00408529 -0.00506808 0.0093457)
(0.00395642 -0.00507067 0.00955714)
(0.0041208 -0.00494935 0.00919688)
(0.00409601 -0.00518557 0.00963609)
(0.00447346 -0.00529384 0.00995509)
(0.00406909 -0.00511952 0.00945248)
(0.0042584 -0.00563415 0.0102198)
(0.00432824 -0.00536568 0.00999376)
(0.00435889 -0.00503213 0.00950572)
(0.00423146 -0.00544168 0.00988744)
(0.00420027 -0.00522491 0.00963261)
(0.00416953 -0.00513581 0.00959861)
(0.00421522 -0.00500792 0.00922991)
(0.00436102 -0.00525954 0.00964037)
(0.00429741 -0.00536213 0.0099976)
(0.0045233 -0.00505774 0.0101377)
(0.00491484 -0.00543794 0.0106331)
(0.00444895 -0.00572022 0.0101238)
(0.00468738 -0.00532684 0.0102696)
(0.00459374 -0.00564055 0.0107918)
(0.00412894 -0.00549057 0.00966521)
(0.00445513 -0.00549336 0.0104089)
(0.00428993 -0.00482758 0.00927456)
(0.00434979 -0.00484344 0.00943065)
(0.00405118 -0.00534972 0.00936483)
(0.00379668 -0.00510943 0.00967057)
(0.00400291 -0.00506897 0.00934793)
(0.00413733 -0.00558284 0.0099277)
(0.004128 -0.00558068 0.00996734)
(0.00408743 -0.00533834 0.00965654)
(0.00408813 -0.00525518 0.00920157)
(0.00442316 -0.00542546 0.00984108)
(0.00396423 -0.00527585 0.00951164)
(0.00456537 -0.00524111 0.0098247)
(0.00398029 -0.00519777 0.00964002)
(0.00407638 -0.00512668 0.00966722)
(0.00415985 -0.00520218 0.00954085)
(0.00440142 -0.00508947 0.00938648)
(0.00447511 -0.00522237 0.00956318)
(0.00429975 -0.00548409 0.00993851)
(0.0045779 -0.00543613 0.0102459)
(0.00404948 -0.00492927 0.00902291)
(0.00421242 -0.00490948 0.00907215)
(0.004252 -0.00490405 0.00932048)
(0.00455769 -0.00513865 0.00979238)
(0.0045428 -0.00496194 0.00954213)
(0.00421173 -0.0050771 0.00934587)
(0.00450683 -0.00550467 0.0102398)
(0.0044777 -0.00540676 0.0100279)
(0.00415623 -0.00545039 0.00998318)
(0.00432714 -0.00554896 0.0103055)
(0.00444207 -0.00515977 0.00965598)
(0.00445994 -0.00508541 0.00952117)
(0.00431139 -0.00528085 0.00977801)
(0.0044359 -0.00519183 0.00959795)
(0.00451967 -0.00533826 0.00972964)
(0.00443419 -0.00525764 0.00990202)
(0.00428526 -0.00553924 0.0107848)
(0.00387117 -0.00491421 0.0102507)
(0.00364329 -0.0047644 0.0101312)
(0.0037253 -0.00506269 0.0108056)
(0.00395242 -0.00520494 0.00971276)
(0.00439868 -0.00554406 0.0103252)
(0.00408694 -0.00546101 0.0111894)
(0.00408778 -0.00467613 0.00915458)
(0.00388883 -0.0045476 0.00959112)
(0.00392266 -0.00477766 0.00976508)
(0.00419462 -0.00490633 0.00949441)
(0.00432688 -0.00540723 0.0103972)
(0.00439066 -0.00499256 0.0102409)
(0.00402218 -0.0049042 0.00947131)
(0.00439436 -0.00512178 0.0100091)
(0.00397759 -0.00480948 0.0103319)
(0.00390403 -0.00449101 0.00959031)
(0.00391697 -0.00490231 0.00995597)
(0.00403551 -0.00481624 0.00992456)
(0.00409974 -0.00491123 0.00998268)
(0.00409996 -0.00492243 0.0100872)
(0.00421511 -0.0052014 0.0107027)
(0.00411085 -0.00485421 0.00989056)
(0.00460038 -0.00590734 0.0102771)