/*--------------------------------*- C++ -*----------------------------------*\
| =========                 |                                                 |
| \\      /  F ield         | OpenFOAM: The Open Source CFD Toolbox           |
|  \\    /   O peration     | Version:  v1612+                                |
|   \\  /    A nd           | Web:      www.OpenFOAM.com                      |
|    \\/     M anipulation  |                                                 |
\*---------------------------------------------------------------------------*/
FoamFile
{
    version     2.0;
    format      ascii;
    class       surfaceScalarField;
    location    "166";
    object      phi;
}
// * * * * * * * * * * * * * * * * * * * * * * * * * * * * * * * * * * * * * //

dimensions      [0 3 -1 0 0 0 0];

internalField   nonuniform List<scalar> 
37439
(
-1.27201e-09
-3.80897e-09
5.1617e-09
-8.07101e-11
-1.50381e-09
-4.95657e-09
7.09451e-10
5.75093e-09
-4.82833e-09
4.66891e-09
7.27383e-09
-7.11441e-09
-3.08437e-09
7.49843e-09
-1.18975e-08
7.4834e-09
-1.08432e-08
-8.17047e-11
-4.99761e-09
-5.69673e-09
-1.737e-08
7.54722e-09
-2.40962e-08
2.31619e-08
-3.64471e-08
2.08324e-08
3.41123e-08
-2.05477e-08
4.1029e-09
-2.90447e-09
-7.50405e-09
6.30559e-09
1.10437e-11
4.05419e-09
3.76357e-11
3.0352e-09
-5.05782e-09
-5.48743e-09
7.51004e-09
-1.1585e-10
3.21318e-09
-6.21374e-11
1.01141e-10
2.01457e-09
3.82971e-09
-5.94542e-09
1.99827e-09
-5.9993e-09
4.10217e-09
4.6059e-09
-4.41459e-09
1.27726e-09
-1.46858e-09
2.28018e-09
6.94209e-09
-4.61637e-09
3.52044e-09
7.66054e-10
-7.19098e-09
3.34346e-09
1.88009e-10
4.6563e-09
-8.94806e-09
1.01124e-09
-3.26253e-09
4.26587e-09
5.28968e-09
-1.54513e-09
-8.29994e-10
-3.62419e-09
-1.30343e-09
-3.49274e-11
-3.49729e-09
-1.43165e-08
4.05146e-09
1.37623e-08
-1.29158e-08
2.03664e-09
7.38187e-09
3.25712e-09
-2.06412e-09
-7.7817e-09
6.58871e-09
-5.12545e-10
-1.05468e-08
-3.16141e-09
-1.02669e-08
-1.01136e-09
1.007e-08
-5.00716e-09
3.33523e-09
-5.95737e-09
4.65879e-09
-3.81622e-09
6.14009e-09
4.13919e-09
9.84206e-10
-7.18751e-09
1.84237e-09
2.44665e-09
-1.49824e-10
2.07967e-09
-5.10532e-09
-2.93171e-09
1.0582e-10
-7.28252e-09
-2.69177e-09
4.34881e-09
1.24236e-10
-1.78127e-09
4.30358e-09
-2.60174e-09
-2.69866e-09
4.54641e-09
2.50106e-09
1.7208e-09
-1.15876e-10
-4.42523e-09
2.4275e-09
-3.00457e-09
5.00231e-09
-2.69564e-09
-8.79088e-12
3.5536e-09
3.25757e-10
-8.2112e-10
7.79503e-09
-3.5009e-09
-4.94491e-10
9.90821e-10
3.37689e-09
2.14151e-09
-6.01289e-09
3.96465e-09
1.16956e-08
-1.22833e-08
3.9108e-09
5.36746e-09
6.54471e-09
-2.50967e-09
9.68824e-09
-1.25246e-08
-2.8367e-09
2.10385e-08
-5.67716e-09
-3.85392e-09
1.73263e-09
-1.04033e-08
-9.16852e-09
1.21685e-08
-5.83666e-09
-3.09146e-09
-9.93098e-09
3.43449e-09
-5.78515e-09
3.38348e-09
-1.03283e-09
-3.81315e-09
2.21945e-09
5.02819e-09
2.73434e-09
-5.29599e-09
-3.2235e-09
-1.0974e-09
1.85969e-11
1.10061e-08
-1.90974e-09
-7.36366e-09
2.80289e-09
1.55664e-08
-7.36319e-09
6.1497e-10
-9.00243e-09
4.63325e-09
-3.27224e-09
-5.68616e-09
4.32516e-09
9.6556e-09
4.26469e-09
2.84345e-09
-6.49316e-09
-1.04954e-10
-4.75244e-09
-8.76536e-10
8.21074e-09
6.2739e-09
-1.36081e-08
4.51298e-09
-1.14402e-08
6.05071e-09
-8.95588e-09
5.983e-09
3.15333e-09
-1.80533e-10
-1.29127e-08
1.59659e-08
-5.86502e-09
2.81184e-09
2.00569e-09
6.60433e-09
-4.09704e-09
1.56511e-08
-7.96721e-09
-5.67816e-09
1.95455e-09
-2.6997e-09
3.79601e-09
-1.05764e-09
1.82051e-09
-5.88724e-09
-6.13434e-09
-7.29703e-09
1.04499e-08
-1.48889e-09
-7.00646e-09
-5.67766e-09
3.33931e-09
-4.75868e-09
7.65494e-10
1.24731e-09
-6.77151e-09
1.69215e-09
9.21547e-09
-1.17854e-08
-1.08312e-08
1.34011e-08
-8.36748e-09
-4.29644e-09
2.18794e-08
7.116e-09
-9.35465e-09
-9.54672e-09
-4.03649e-09
2.78502e-09
-3.86957e-09
-8.7921e-09
8.36524e-09
5.74982e-09
8.90791e-09
-1.20197e-08
-2.63807e-09
9.20573e-09
-1.11744e-09
-2.33846e-09
8.07692e-10
7.46235e-09
9.35688e-10
7.52546e-09
2.19016e-09
-4.43716e-10
-3.85654e-09
2.58989e-09
-4.70434e-09
-9.98338e-09
-5.01025e-09
-5.46183e-09
-1.77916e-08
-7.04864e-09
9.95314e-09
1.48871e-08
-4.80843e-09
-1.01527e-08
-2.83047e-09
1.60189e-08
-1.54571e-08
-5.37021e-09
1.22483e-08
-1.09061e-08
1.46767e-08
8.83223e-09
-1.06648e-08
-8.32011e-09
2.55046e-09
-7.66873e-10
-1.54534e-09
2.37468e-08
6.50594e-09
-1.62001e-08
-5.76295e-09
-7.7916e-09
3.3914e-09
-1.29398e-09
-1.15059e-08
1.60175e-08
-3.21765e-09
-1.1291e-08
-9.96051e-09
1.97062e-08
-1.87561e-08
5.72396e-09
5.2405e-09
-3.26104e-09
-8.69771e-09
1.22157e-08
1.62803e-08
-2.40636e-08
-4.43238e-09
2.5431e-10
-2.26222e-08
3.6118e-09
-1.92068e-08
6.64861e-09
-7.17964e-09
7.09185e-09
3.94975e-10
-3.07188e-10
-2.5535e-09
8.336e-09
-1.29621e-08
3.58957e-09
-9.63412e-09
3.49105e-09
3.25522e-09
4.62931e-09
-4.29495e-09
2.72833e-09
5.68337e-10
-4.14482e-11
7.10207e-09
4.21894e-09
-2.98501e-09
6.5333e-09
7.66063e-09
4.41962e-09
1.10999e-10
-4.13564e-09
-3.86226e-09
4.46212e-09
2.12848e-09
1.98045e-09
-1.2134e-09
-4.60016e-09
-1.1167e-09
-1.08971e-09
6.80658e-09
-9.52557e-10
-4.40507e-09
7.57475e-10
3.49051e-09
-2.99427e-09
7.21068e-11
6.35315e-09
-7.72398e-10
-1.77977e-09
7.01622e-09
6.63117e-09
-4.31783e-10
-2.19886e-10
2.34434e-10
-3.69455e-10
1.42323e-09
3.40835e-09
4.48194e-09
-3.30459e-09
3.63811e-09
-3.39664e-11
-1.03369e-08
9.00146e-09
-5.25894e-09
6.59441e-09
5.24082e-09
-8.75067e-09
-6.82711e-09
-1.36957e-09
1.14889e-09
9.22212e-09
-1.22084e-08
1.70387e-09
9.13493e-09
-5.36845e-09
-1.59916e-09
3.70583e-09
-1.72531e-09
-7.23947e-09
-5.94839e-10
-5.57358e-09
7.31729e-09
-8.25252e-09
9.36152e-09
9.75562e-11
-1.96532e-09
7.28829e-09
-6.16688e-09
-6.48988e-09
5.5389e-09
-6.50315e-09
3.98967e-09
1.00165e-08
-9.36902e-09
-4.63714e-09
4.65435e-09
-6.83067e-10
1.83786e-11
-3.06555e-09
3.41707e-09
4.30282e-09
1.33623e-09
5.61469e-09
-1.44273e-09
1.27458e-09
-9.20088e-09
4.13308e-09
-6.11517e-10
-4.9643e-09
3.48238e-09
-3.2367e-11
1.21928e-08
-1.00168e-09
-9.9165e-09
5.41866e-09
8.11032e-09
-4.13211e-09
3.25227e-09
4.2969e-09
-6.69118e-10
1.93758e-11
-3.60424e-10
1.88051e-09
-9.75589e-09
8.23579e-09
-5.39883e-09
4.42688e-09
-1.71126e-09
4.55515e-09
-3.84558e-09
1.01593e-08
-9.99002e-09
-5.19621e-09
1.08435e-08
-1.09218e-09
1.13015e-08
-6.33851e-09
-2.77772e-09
3.37445e-09
-3.77795e-09
3.18122e-09
-3.39411e-09
-5.27325e-11
-1.10096e-09
7.72767e-09
-5.24539e-09
5.33498e-09
1.07539e-08
6.34211e-11
5.99273e-09
4.51811e-09
-8.23265e-09
9.65267e-09
-9.18831e-09
1.25991e-08
-2.93212e-09
-4.78667e-10
-3.78653e-09
4.96847e-09
1.90244e-08
-2.02064e-08
-1.07856e-10
6.64401e-09
-1.03227e-08
-3.23995e-09
3.25117e-09
-9.19956e-09
2.31055e-09
-1.62619e-08
1.07114e-08
-6.20508e-09
5.33919e-09
1.39338e-10
7.26551e-10
-7.60623e-10
-1.32723e-09
-4.11723e-09
1.37962e-09
1.61879e-08
9.12298e-09
-6.63243e-09
9.13112e-09
5.33104e-09
4.52009e-09
9.34423e-09
-1.15538e-08
-1.25223e-08
1.10847e-08
1.57697e-09
-9.32949e-09
3.14628e-09
6.0901e-09
2.83489e-09
1.13961e-08
1.33456e-08
-2.89671e-09
-7.3843e-10
1.18369e-08
-8.20179e-09
-1.74302e-09
-1.61136e-08
1.49599e-08
3.02131e-09
9.1803e-09
-1.39446e-08
9.42978e-09
-7.1469e-09
-9.22551e-11
1.12198e-08
-1.69775e-09
-7.29612e-09
8.48112e-09
1.08029e-08
4.98865e-09
-3.95465e-09
1.00517e-08
-8.16754e-09
1.02754e-08
1.55866e-09
-6.14279e-10
-9.44291e-09
1.56594e-08
-1.34132e-08
7.1967e-09
-2.79493e-09
4.33129e-09
-1.09793e-08
-5.72271e-09
1.12402e-08
4.75785e-09
4.18099e-09
-1.42263e-09
1.40693e-09
1.09547e-08
5.21023e-09
2.04654e-09
-7.55261e-09
1.70709e-08
1.72198e-09
1.83859e-09
7.74961e-09
-6.20193e-09
-1.50197e-09
-4.57095e-11
5.00305e-09
5.95588e-09
-3.20932e-09
-3.25883e-09
-1.4108e-08
1.11649e-08
5.47169e-09
5.12302e-09
-8.88723e-09
-1.70747e-09
6.67034e-09
-1.39725e-08
4.04336e-09
1.97786e-09
8.49689e-09
1.46994e-08
-1.23969e-08
-2.2268e-09
-7.567e-11
-7.82596e-09
1.82652e-08
-8.46141e-09
-4.96583e-09
-5.69059e-09
3.96203e-09
1.71775e-09
9.01961e-09
6.52807e-09
1.56992e-08
1.23298e-08
-1.24293e-08
-4.86632e-09
-8.52855e-09
3.68196e-09
-9.44089e-09
-1.64376e-09
-3.20282e-09
-8.6982e-09
-7.45371e-09
1.86278e-08
-2.47585e-09
-1.12378e-08
-1.3382e-08
1.59216e-08
7.78968e-09
-3.44444e-09
-1.55831e-08
4.95916e-09
-4.6232e-09
-1.81382e-08
2.43604e-09
1.56935e-08
8.60158e-12
-8.13648e-09
1.05335e-08
-2.05352e-08
2.2767e-09
1.87315e-08
-2.38048e-09
-5.51668e-09
1.45467e-08
-4.07092e-09
1.29779e-08
-2.45588e-08
1.27017e-08
2.71225e-09
-1.04279e-08
9.09476e-09
1.70267e-08
-5.41109e-09
1.64889e-08
3.34544e-10
-2.43305e-08
2.36457e-08
-1.67359e-09
2.35841e-09
-1.46788e-08
3.05e-09
-3.22182e-09
4.12972e-09
2.50045e-09
-1.12577e-09
3.24293e-11
1.65784e-09
4.93971e-09
-2.23872e-09
-4.35881e-09
3.74639e-09
-2.11883e-09
3.02844e-11
-5.7698e-09
7.76865e-09
1.74755e-09
-3.26057e-09
2.43048e-09
-3.1799e-09
-6.46895e-11
7.41347e-09
-5.38637e-09
-2.45887e-09
-4.31149e-09
5.29441e-09
3.49902e-09
-1.58594e-10
-1.08576e-08
1.13216e-09
1.03316e-08
-6.06202e-10
-4.62655e-10
8.65549e-10
-1.12605e-08
5.79366e-09
5.13441e-09
-6.81302e-09
-4.11504e-09
6.87966e-09
4.61624e-11
6.39387e-10
1.22435e-08
-1.33455e-08
8.51777e-09
7.97137e-10
-8.67552e-09
-2.4901e-10
8.82787e-09
-6.10782e-11
-4.61791e-09
6.90655e-09
4.59102e-09
4.51909e-10
6.45959e-11
-5.02627e-09
-1.93515e-10
1.35358e-09
3.86621e-09
-4.70647e-09
1.3211e-10
5.81244e-09
-5.48371e-09
4.68411e-10
5.91794e-09
-5.97886e-09
-1.8809e-10
5.98484e-10
-5.31773e-09
1.27921e-11
-6.1763e-09
2.28835e-10
-6.85124e-09
1.20478e-08
5.1351e-09
8.03718e-09
-2.64494e-09
1.66155e-09
5.05148e-09
1.72695e-09
5.54458e-09
-3.29775e-09
9.72947e-09
1.60546e-09
5.85552e-09
-3.25396e-10
-9.30999e-10
-1.05275e-09
1.17132e-08
1.27783e-08
6.52972e-09
8.22551e-09
5.87457e-09
-4.66686e-09
-9.4332e-09
6.67101e-09
-1.80057e-09
3.35507e-09
-1.61089e-09
1.95543e-09
6.32649e-09
1.16086e-09
3.10283e-09
3.21651e-09
-1.14724e-10
1.5625e-09
-1.46571e-10
-2.39106e-09
2.32842e-10
4.11366e-09
4.46043e-09
2.90276e-09
-4.17615e-09
-3.18703e-09
-5.10015e-10
3.63099e-09
1.33947e-09
-8.56602e-10
2.80483e-11
3.19512e-09
7.40149e-10
-4.44527e-09
1.91956e-09
2.43643e-09
-2.73288e-09
4.88529e-09
-2.14714e-09
3.04525e-09
-1.0097e-10
-2.1195e-10
7.52465e-09
-4.35613e-09
-2.95656e-09
2.50312e-09
1.13746e-08
-1.45103e-08
6.32544e-10
6.75489e-09
-4.46373e-09
5.86516e-09
5.33614e-09
-3.67666e-09
8.60431e-09
-1.36668e-08
1.18174e-08
1.26799e-09
6.42371e-12
7.32985e-09
-4.30463e-09
8.03244e-09
2.13735e-09
9.55614e-09
-1.73213e-09
-1.21287e-08
5.06446e-09
6.50024e-09
-1.90104e-10
8.63483e-09
5.98574e-09
6.45648e-09
1.47636e-10
-4.12013e-09
-5.73898e-09
1.84939e-08
9.98173e-09
-7.60164e-09
8.74993e-09
-9.26954e-09
-2.97195e-09
5.92432e-09
6.31715e-09
-1.18723e-09
-1.05606e-09
-7.02625e-09
-1.02766e-08
5.12443e-09
2.18024e-09
-1.6929e-09
-9.77098e-09
1.66654e-09
-6.81147e-10
3.18403e-09
-4.16941e-09
5.65858e-09
-5.04811e-09
-4.3957e-10
5.58856e-09
-6.84189e-09
3.42244e-09
-4.54316e-09
-1.98999e-09
4.8994e-09
2.74919e-09
1.21999e-09
-2.59409e-11
-6.57702e-10
5.36295e-09
8.83305e-10
2.65879e-09
1.05956e-10
9.64108e-09
1.18264e-09
6.27656e-09
4.21081e-09
3.78706e-09
9.17185e-11
-6.35423e-09
-1.05866e-08
1.134e-08
5.60081e-09
3.00511e-09
-1.35466e-09
-8.00467e-09
8.65823e-09
-7.23117e-09
-1.20136e-08
4.44218e-09
-2.14676e-09
9.04458e-09
1.78031e-08
-1.00528e-09
-8.1396e-09
2.48015e-09
1.97651e-08
7.52698e-09
-3.83676e-09
-6.85115e-10
1.33626e-09
4.04397e-09
3.95774e-09
-7.24551e-09
4.62404e-09
2.16729e-09
-9.54618e-09
1.13366e-08
-1.4576e-08
1.92234e-08
-7.79745e-09
-7.78383e-09
3.43042e-09
-9.08384e-09
4.3299e-09
1.32352e-09
7.67836e-09
-1.88319e-09
-2.36477e-09
-1.56381e-09
-5.97663e-09
2.94938e-10
-9.56341e-09
-1.54657e-09
-2.13503e-09
1.82207e-09
1.12592e-09
-1.07454e-08
4.0262e-09
-1.17675e-08
1.47577e-08
7.79245e-10
-2.52839e-08
9.74692e-09
-1.09938e-08
5.99259e-09
1.81414e-08
-2.96793e-08
-1.17831e-08
2.06365e-08
9.25003e-09
-7.54675e-09
-2.23398e-08
-2.90511e-09
1.76726e-08
5.86906e-09
3.51969e-08
2.00594e-09
-2.79529e-08
2.49902e-08
8.097e-09
2.10967e-09
4.3496e-09
-1.73405e-08
1.67697e-08
-3.7788e-09
-1.28406e-08
1.75941e-08
-4.03891e-10
-1.93633e-08
3.61759e-09
-9.67453e-10
-2.59426e-08
2.11707e-08
2.14921e-08
3.21479e-08
-6.79214e-09
-2.33499e-08
2.96794e-08
1.05655e-08
-1.72174e-08
1.25736e-08
-1.26967e-08
1.9738e-08
-1.087e-08
7.90169e-09
6.22871e-09
-2.44136e-08
-1.12568e-10
4.86316e-09
1.49874e-08
4.21312e-09
1.32684e-08
-9.63108e-09
8.71476e-09
2.2087e-08
1.04356e-08
9.61275e-09
2.03204e-09
-3.28493e-10
1.92593e-08
-1.98227e-08
9.10514e-10
-1.30103e-08
1.69629e-08
1.38384e-08
2.16919e-08
-4.00594e-10
1.91172e-08
-2.61855e-08
-3.02414e-09
1.33572e-08
1.58524e-08
1.04665e-08
-9.19197e-09
-2.74601e-08
-1.05249e-08
2.1303e-08
-7.43859e-09
-3.33961e-09
-1.3818e-08
-1.37043e-08
1.69974e-08
1.48828e-08
-2.09579e-09
8.51611e-09
6.88468e-09
1.21428e-08
-2.06381e-08
1.61061e-09
2.62914e-08
5.90951e-10
-1.64159e-08
1.07007e-08
1.25666e-08
6.59829e-09
2.73079e-09
-2.31471e-08
-1.00323e-08
9.65626e-09
1.21112e-08
2.27334e-08
-7.90404e-09
-1.42385e-08
2.06322e-08
1.2802e-08
2.31841e-08
-1.61166e-08
-1.04373e-08
3.36975e-09
1.11075e-08
2.09464e-08
-8.86972e-09
5.92158e-09
1.70919e-08
2.51971e-08
-1.00684e-08
-2.30327e-08
1.22516e-08
3.35776e-08
-2.34543e-08
2.92807e-08
-6.27407e-09
2.79751e-08
-5.77982e-09
-1.59212e-08
3.1634e-09
-1.67701e-08
1.90992e-08
-5.49247e-09
-2.15886e-08
4.33814e-11
1.49279e-08
6.61735e-09
1.16073e-08
-2.58382e-08
-7.35771e-09
-2.91327e-10
1.92125e-08
-7.31383e-09
1.84054e-08
-7.44647e-09
-1.12503e-08
-7.60624e-09
2.06657e-08
-1.93335e-08
-1.00385e-09
1.12811e-08
8.93522e-09
9.79533e-09
1.547e-08
9.64943e-09
-1.35819e-08
-1.15376e-08
7.41926e-09
-4.38515e-09
1.24359e-08
-2.70712e-09
6.03227e-09
4.09411e-09
1.08589e-08
2.239e-09
-1.5805e-08
-1.41788e-08
1.07686e-09
8.71675e-09
1.36032e-09
-5.88971e-09
-9.00096e-09
-3.71816e-09
1.87514e-08
-1.41999e-08
1.60578e-08
-1.5879e-08
-5.88628e-10
1.27374e-08
3.73023e-09
-3.03504e-09
-3.55235e-09
-9.29163e-09
-1.15043e-08
4.87915e-09
7.70195e-09
-5.8932e-09
-4.25077e-09
-1.15902e-08
1.27511e-08
1.83947e-08
-1.45362e-08
-6.89355e-09
3.60617e-09
9.13841e-09
-5.10426e-09
-7.58651e-09
1.02856e-08
-6.56214e-09
-4.43533e-09
8.41088e-09
-1.83874e-08
3.10404e-11
9.94551e-09
-9.42669e-09
1.87059e-08
-8.68326e-10
-1.6418e-08
-1.90306e-08
1.70612e-08
-1.326e-08
-4.57943e-09
1.42148e-09
-1.95797e-08
1.06859e-08
8.9248e-09
-1.37107e-08
8.19404e-09
-1.4063e-08
5.53905e-09
-7.91258e-09
-1.13372e-08
3.09675e-09
-9.13736e-09
-7.21939e-09
-1.03948e-08
1.94858e-08
-1.2674e-09
-5.18602e-09
-1.30324e-08
-1.14913e-08
-5.71922e-09
-1.49448e-08
-6.46284e-09
1.53363e-08
1.06124e-08
7.65864e-09
-1.45169e-08
-5.08633e-10
7.36692e-09
1.58026e-08
-4.25722e-09
-3.88675e-09
3.62057e-09
1.1419e-08
-1.11511e-08
-1.44087e-08
1.41408e-08
-2.35812e-09
-9.84095e-11
1.38755e-08
1.70648e-08
-3.41738e-09
1.44898e-08
-2.81372e-08
2.90944e-09
2.09631e-08
-6.80775e-09
9.16269e-09
6.06287e-09
-1.8643e-08
1.26584e-08
-5.86327e-10
-2.37981e-09
1.39817e-08
-1.18946e-08
2.92716e-10
1.0557e-08
-1.10323e-08
-1.90452e-09
-2.20116e-09
1.25015e-08
-1.1575e-08
1.68424e-08
1.56956e-08
7.87711e-09
-4.96234e-09
4.67422e-09
-9.76245e-09
-2.24295e-09
1.47943e-08
1.53596e-08
2.392e-09
-9.09213e-10
1.04597e-08
-1.79235e-08
-2.23354e-08
2.97992e-08
-3.49129e-09
-4.48221e-09
1.84332e-08
-1.92616e-08
4.9007e-09
1.68987e-08
-2.53777e-09
2.29794e-08
-1.5268e-08
-1.33956e-08
5.68427e-09
-1.80973e-08
3.48992e-08
6.17748e-09
1.5803e-08
-1.27917e-08
-2.09348e-08
1.19125e-08
-1.53711e-08
4.04454e-09
-1.20403e-09
-1.56322e-08
-4.64519e-09
-1.414e-08
2.28298e-08
4.39752e-09
1.27694e-08
-1.8371e-08
2.03407e-08
-2.05883e-08
1.87827e-08
-1.37101e-08
6.64924e-09
-5.96385e-09
-4.11744e-09
3.77665e-09
7.72776e-09
-1.98578e-09
-9.51863e-09
9.63575e-09
-7.57326e-09
1.71417e-09
4.62428e-09
4.60306e-11
1.04647e-08
-1.51351e-08
1.17433e-08
3.56626e-10
-7.47563e-09
3.02933e-09
1.19727e-08
-3.25874e-09
1.84013e-08
-1.48585e-08
-5.13432e-10
7.23571e-09
-1.10184e-09
5.83881e-09
-1.47114e-08
1.66391e-10
2.17807e-08
-3.19528e-09
5.01544e-09
7.81559e-09
3.43063e-09
1.92303e-09
-2.06629e-10
-9.28967e-09
-3.33866e-09
-4.46909e-09
8.16435e-09
7.22745e-09
-1.05201e-08
-1.1928e-08
1.56179e-08
1.0622e-08
-1.50159e-08
4.41316e-09
8.70438e-09
-5.8901e-09
6.90335e-09
-5.67166e-10
-9.7657e-09
1.49475e-08
1.37573e-09
-2.68168e-09
1.25518e-08
-2.47165e-09
9.68941e-09
-6.28529e-09
-9.97648e-10
1.22207e-08
-4.93782e-09
1.41949e-08
-4.83095e-09
-1.56493e-08
5.19574e-09
-2.20257e-09
6.66866e-09
-9.66185e-09
8.69822e-09
-4.50012e-09
4.61469e-09
9.97295e-09
-3.9272e-10
1.11205e-08
5.71497e-09
7.71718e-09
-1.47507e-08
-2.95148e-09
1.01938e-08
-5.73652e-10
1.13426e-08
-5.59586e-09
5.29943e-09
-5.24137e-10
6.34521e-09
-9.19864e-09
5.48503e-10
1.39496e-08
-3.93844e-09
4.71275e-09
7.80727e-09
6.58502e-09
-6.67511e-09
5.97579e-09
3.61047e-09
6.07524e-10
6.95542e-09
1.0363e-08
-3.42851e-09
-5.63299e-09
9.61005e-09
3.0028e-09
1.72509e-09
2.14373e-09
8.61408e-09
1.58141e-09
4.70617e-09
-7.32527e-09
-1.1283e-08
-7.54381e-09
-1.18992e-08
-2.08611e-08
-1.63552e-09
-2.16219e-08
1.17706e-08
-2.53178e-08
-1.94567e-08
1.3518e-08
5.25055e-09
6.88138e-10
2.99445e-11
-4.47793e-09
-1.50087e-08
4.81348e-10
-4.51275e-09
-8.85755e-09
1.2889e-08
-7.77791e-09
-3.39849e-09
1.16578e-08
-3.31064e-09
-1.10666e-08
1.44072e-08
-1.19507e-09
1.19186e-08
-1.52015e-08
-2.43299e-09
-8.50929e-09
7.63165e-09
-1.16658e-08
8.03772e-09
-1.43846e-08
-1.78919e-09
1.1661e-08
8.67104e-10
-9.53238e-09
-1.92271e-10
-7.10259e-09
1.91786e-10
1.10811e-08
-8.69488e-09
1.02146e-08
3.76803e-09
-1.08686e-08
5.31142e-09
9.44387e-09
-9.07433e-09
1.09308e-10
-9.605e-09
2.3931e-09
-6.62539e-10
-1.02585e-08
5.24286e-11
-9.4684e-09
-1.76327e-08
1.59394e-08
-1.69383e-08
3.80959e-09
1.20711e-08
-3.44662e-09
1.47466e-08
7.45139e-09
-8.37559e-09
-1.49907e-09
1.32139e-08
-7.659e-09
9.75541e-10
-1.29282e-08
1.30629e-08
5.05349e-09
-5.18821e-09
-1.08513e-08
7.73163e-09
-9.8085e-09
1.39159e-08
-4.73899e-09
-2.61152e-08
2.40105e-09
-1.6699e-08
-7.96047e-09
1.0271e-08
-5.79711e-09
1.08995e-08
1.25439e-09
6.80105e-10
7.08967e-09
-8.78566e-09
6.85051e-10
-1.01925e-08
2.4003e-09
1.38701e-09
6.40516e-09
4.56236e-09
-5.66962e-09
-9.08523e-09
8.54419e-10
7.07932e-09
-1.03128e-08
2.37909e-09
1.01044e-08
-7.96188e-09
7.56001e-10
-2.89851e-09
-6.64653e-09
2.75762e-09
6.28919e-09
-2.30749e-09
2.23315e-10
2.28703e-09
-6.64689e-09
5.21426e-09
1.06035e-09
-6.30372e-09
9.50261e-09
-4.25926e-09
3.87413e-09
7.61724e-09
6.22906e-09
1.73646e-09
-5.6785e-09
4.00452e-09
-8.29677e-11
5.59932e-10
1.28314e-08
-9.5172e-09
7.5716e-09
-4.7748e-09
6.77339e-09
4.80272e-09
1.00909e-08
5.19997e-09
-6.2378e-10
-1.70782e-09
-2.86837e-09
6.5592e-09
-1.03015e-09
-5.38141e-09
6.3513e-09
8.68499e-10
-6.60591e-10
-1.79036e-09
-5.77507e-10
8.71918e-09
-7.29329e-09
-3.05065e-09
-6.27295e-09
-1.51834e-10
-9.26771e-10
-3.77512e-09
6.83924e-09
2.54017e-09
2.34033e-09
-8.55714e-09
1.06815e-08
-2.50906e-09
-5.95915e-09
3.62078e-09
-7.12288e-10
-7.03214e-09
1.30284e-08
-1.15458e-09
-2.1747e-08
9.87322e-09
-2.71315e-09
1.42625e-09
-1.18087e-09
-1.64895e-08
-7.79017e-09
-1.04685e-08
-1.18047e-08
-1.18395e-08
-2.28121e-08
7.94575e-09
-1.95688e-08
-2.47549e-08
-8.02827e-09
-7.41328e-09
5.46483e-09
1.2298e-08
1.35785e-09
-1.09578e-08
-2.69813e-09
-5.92717e-09
6.71642e-09
-9.95306e-09
-1.24248e-08
-4.14227e-09
-5.31293e-09
-4.97851e-10
-9.06019e-09
-9.99216e-10
-1.01528e-08
-6.93088e-10
4.91875e-09
-5.15536e-09
-7.01519e-09
1.17492e-08
-5.41163e-09
-1.57025e-08
9.36494e-09
5.97573e-09
-3.28676e-09
-7.26832e-09
-1.38423e-08
-1.78353e-08
2.02621e-09
4.02796e-09
2.22359e-10
-1.66692e-08
1.12481e-08
2.13924e-09
3.28184e-09
-7.98377e-09
6.94355e-09
-1.5629e-08
-1.57633e-08
9.95974e-09
-5.09385e-09
1.40703e-08
-1.32415e-08
4.26503e-09
1.47614e-09
-4.54381e-09
-1.48607e-08
1.41741e-08
1.19346e-08
-1.51108e-09
-6.40607e-09
-1.05107e-08
4.71578e-09
9.06196e-09
-3.26701e-09
-4.13038e-10
-4.56636e-10
9.83429e-09
-9.55597e-09
-6.91364e-10
1.25619e-08
1.98813e-09
-4.7499e-09
-7.14514e-09
5.78388e-09
1.04732e-09
3.13951e-10
1.16593e-09
-1.95794e-09
-6.35313e-09
8.12288e-09
-2.01276e-08
1.1801e-08
2.03694e-10
1.3102e-09
1.51779e-08
-8.92034e-09
1.06697e-08
-5.8346e-10
9.49027e-09
-1.07668e-08
-1.25893e-08
1.38658e-08
-4.74454e-09
1.18182e-08
-5.76345e-09
-4.3507e-09
9.98374e-09
1.50841e-10
-1.35935e-08
-3.94417e-09
-1.08459e-08
1.15531e-08
-5.05789e-09
-1.18682e-08
-5.3078e-09
1.0547e-08
2.19825e-09
-1.36016e-08
5.8016e-09
-7.37714e-10
3.87989e-09
8.01838e-09
2.52412e-09
5.01106e-09
1.2737e-09
-5.12316e-09
6.37358e-09
-4.94175e-09
1.00953e-08
6.12756e-09
-5.35739e-09
-7.62427e-09
1.26766e-08
4.03281e-10
-1.55422e-09
-7.82241e-09
2.35981e-08
-2.76847e-08
1.19091e-08
1.47703e-08
-2.25759e-08
-1.68126e-11
-1.49162e-08
1.05068e-08
-7.92557e-09
1.2335e-08
-4.24716e-10
-1.15202e-08
-2.97124e-09
-1.27457e-08
3.06373e-09
3.32801e-08
-6.36438e-09
8.38893e-09
1.926e-08
-5.4369e-09
-1.48785e-08
1.05545e-09
-8.39277e-09
3.07165e-08
1.41892e-08
-1.15538e-08
-3.06011e-09
1.63033e-08
-8.55957e-09
-2.94139e-08
1.02887e-08
-1.67097e-08
2.02104e-08
-1.60865e-08
1.25858e-08
-1.92363e-08
-8.99361e-09
5.92045e-09
-1.31761e-08
-3.81468e-09
-2.34148e-08
-2.32889e-11
-1.4353e-08
5.80209e-09
-2.0863e-08
-7.05344e-09
-2.98754e-08
-3.53133e-09
-6.76935e-09
-5.78583e-09
-1.08282e-08
-1.19394e-08
-6.54923e-09
-1.10635e-08
-1.94595e-09
-1.18769e-08
7.68617e-09
-2.04603e-08
-1.20391e-08
5.55978e-09
-3.10128e-09
-6.57314e-09
4.11464e-09
-5.35752e-10
5.60367e-09
4.91845e-10
3.81877e-09
-3.7528e-12
-6.9163e-09
3.26875e-09
1.42579e-11
-4.83556e-09
-1.09944e-10
4.22881e-09
7.16683e-10
-4.6973e-09
3.65807e-09
-3.79634e-09
-7.7207e-09
6.57809e-09
1.03266e-09
-4.05118e-09
3.9456e-09
-7.61513e-09
5.36667e-09
3.30902e-10
-9.39209e-11
-4.45038e-10
3.66025e-09
5.35258e-11
-8.75223e-09
-3.25671e-09
4.07877e-09
3.40674e-09
-4.36902e-11
-7.57662e-09
7.55873e-09
7.83224e-09
-7.81437e-09
-4.84647e-10
-3.47883e-09
-3.61317e-09
6.06047e-09
-2.59952e-09
6.41956e-09
6.21899e-09
2.47713e-09
6.10726e-12
5.07543e-09
8.79171e-10
8.01752e-09
4.44787e-09
4.57904e-09
-1.59203e-09
6.54993e-09
2.8619e-09
-2.87802e-09
-8.02101e-10
5.78031e-09
-2.10023e-09
-3.07799e-09
3.39425e-10
-1.39504e-10
5.41312e-09
1.29717e-09
-1.60372e-10
-4.51286e-10
4.94724e-10
5.36966e-09
7.67342e-09
1.64125e-09
-2.08103e-09
5.37536e-09
4.37906e-09
-2.83416e-09
-2.57823e-10
1.39685e-11
3.20834e-09
6.34403e-10
-4.00313e-09
-7.71049e-11
-1.19199e-08
3.27675e-09
8.05637e-10
-1.10843e-08
-3.11068e-09
4.54489e-09
-5.99941e-09
4.56518e-09
-3.25277e-09
-1.15749e-10
-3.8339e-09
7.57668e-09
8.14366e-09
-5.18778e-10
-6.81926e-09
1.35459e-09
-3.97297e-09
-5.1636e-09
9.59425e-09
2.24525e-09
-1.80619e-08
6.22242e-09
-1.39983e-08
1.67273e-08
6.86528e-09
-1.16377e-08
-1.74569e-08
2.40033e-08
5.09131e-09
-1.71969e-08
7.80442e-09
-2.35573e-09
-1.19058e-08
2.63225e-10
-1.71398e-08
-3.2779e-09
3.15535e-09
-1.09318e-08
-9.4204e-09
-5.17594e-09
-9.12565e-09
1.32606e-08
1.13612e-08
-1.20626e-08
-1.25591e-08
3.19861e-09
-3.35776e-09
-1.69806e-08
-8.14437e-09
-5.62821e-10
-5.35603e-10
-1.74803e-08
1.37246e-08
4.29131e-09
-1.48252e-08
-3.60921e-09
-2.2015e-09
5.7364e-09
7.43091e-11
-2.7414e-09
-9.22635e-10
5.48383e-11
6.23411e-10
-3.3135e-09
-5.13147e-11
-5.60905e-09
6.29779e-10
5.60268e-09
-2.92375e-09
-3.59115e-09
4.31341e-09
-3.7769e-09
-6.94847e-11
2.3837e-09
-4.2146e-10
-5.27574e-09
-5.76565e-09
2.5403e-09
-5.57448e-09
-1.49586e-09
3.47919e-09
-4.18875e-09
-5.16262e-09
2.90743e-09
-7.51764e-09
1.00981e-08
-8.78097e-09
1.59031e-09
-3.88433e-09
1.18462e-08
3.45428e-09
-1.14161e-08
4.71792e-09
7.94895e-09
4.28281e-09
7.29902e-09
-1.84631e-09
2.49622e-09
8.07364e-09
-2.41353e-09
-3.82156e-09
-3.26071e-09
2.49351e-09
8.84084e-09
4.4662e-10
4.5438e-09
3.20184e-09
2.42027e-09
-6.87898e-13
6.27936e-09
-5.12803e-09
-2.11866e-09
9.67356e-10
-4.02567e-09
6.14553e-09
4.15951e-09
-1.31919e-08
9.81853e-09
1.12655e-10
-9.12546e-09
-7.88801e-09
-5.2314e-12
7.04254e-09
-1.35462e-09
3.73776e-09
3.71222e-11
5.23727e-09
-6.53559e-09
-1.43014e-10
2.26766e-09
6.50922e-09
-2.63135e-09
-1.12382e-08
6.21487e-09
6.00019e-09
9.05227e-09
-1.55278e-09
-5.53399e-09
-1.96551e-09
-2.30066e-09
3.66785e-09
7.68508e-09
-4.87226e-09
4.46093e-09
-2.90336e-09
3.3147e-09
-5.01263e-09
-1.41241e-09
1.15729e-08
-8.17536e-09
-8.93155e-09
2.20474e-09
7.06751e-09
-2.26616e-09
7.96338e-09
-2.14129e-10
-5.48309e-09
-1.62113e-09
-8.82038e-09
9.77873e-10
7.15091e-09
3.1027e-09
-3.37736e-09
-4.73795e-09
2.29852e-10
-3.05134e-11
4.01045e-09
6.15768e-09
1.11458e-09
-6.11307e-09
-3.88449e-09
-3.77792e-09
8.64029e-09
-4.6958e-09
-2.87003e-09
3.68135e-09
-1.1547e-09
1.38724e-09
-5.44159e-09
-4.08908e-10
1.71164e-09
2.62235e-09
-3.21941e-09
-3.94408e-09
-1.78266e-11
6.99962e-09
1.16632e-08
-8.60485e-09
-1.0058e-08
-6.98477e-09
-4.29119e-09
1.82756e-08
7.30823e-09
3.41884e-09
9.36095e-10
-1.78918e-09
3.78583e-09
9.55384e-09
-1.15505e-08
7.7163e-09
1.53801e-08
-1.57882e-08
-1.27363e-09
-5.99824e-10
1.01552e-08
-8.28172e-09
7.82433e-09
-7.05457e-09
2.64908e-09
-2.63081e-10
6.81378e-09
1.21261e-09
9.86892e-10
-1.08044e-08
2.46007e-09
-8.23224e-09
-1.98964e-09
-6.85709e-09
1.79216e-09
3.38489e-09
-5.31847e-09
-5.60661e-11
-5.32648e-09
7.13114e-10
4.35028e-09
-2.05547e-09
1.13866e-10
-5.77391e-09
-1.19757e-09
6.37166e-09
-1.01733e-08
2.61017e-09
-1.6862e-09
8.30919e-10
-4.4632e-09
-7.55641e-09
-3.39802e-09
6.98256e-09
-6.85793e-09
3.27336e-09
-5.35179e-09
-1.01719e-10
6.49811e-09
1.21257e-09
-8.92577e-09
-1.13535e-10
-4.40734e-09
-5.75891e-09
8.37121e-09
2.23057e-10
-6.26731e-09
-2.32695e-09
1.04305e-09
8.32531e-09
-9.97141e-10
-2.93477e-09
-9.59465e-09
1.27525e-08
-6.04831e-09
2.09428e-10
6.88195e-09
3.8558e-09
-5.37105e-09
-1.66064e-09
-5.31864e-10
4.31258e-09
7.02821e-09
-4.63368e-09
-1.19786e-09
9.52851e-09
-8.12122e-09
-1.10654e-08
1.06329e-08
-7.6539e-10
-2.28598e-09
-9.62086e-09
8.41469e-10
3.08941e-09
3.29319e-09
-2.00036e-09
-4.38224e-09
5.14397e-09
-2.73968e-09
-1.50171e-09
5.02221e-09
1.62348e-09
1.88104e-09
-8.9558e-11
2.57969e-09
6.4865e-09
3.28501e-09
-7.4204e-09
-4.22518e-09
5.41439e-09
-8.94269e-10
3.39873e-09
-4.33891e-09
-3.30134e-09
6.82914e-09
-9.48112e-10
-1.39041e-09
-2.98907e-11
-2.1464e-09
2.65519e-09
4.90559e-09
-1.38094e-10
9.88889e-09
3.1807e-09
-5.06338e-09
-8.00623e-09
9.80852e-09
-8.83578e-10
9.63945e-10
1.11409e-08
-2.34889e-09
-5.61131e-09
9.21085e-09
1.17386e-08
1.01004e-08
-8.31027e-10
-1.43327e-08
9.14065e-09
7.61438e-11
-6.39561e-09
1.19525e-08
-7.90578e-09
-1.98613e-08
1.26346e-08
1.41213e-09
1.94301e-09
5.85578e-09
2.22257e-09
-1.09507e-08
1.01403e-08
-4.15077e-10
-1.30285e-08
1.56662e-08
-1.09781e-08
1.2506e-08
-8.44598e-09
2.69992e-09
-4.51001e-09
-8.28674e-10
-9.49994e-09
-1.50186e-08
-1.46186e-09
1.94045e-09
1.454e-08
-3.06326e-10
-1.21754e-08
-2.53689e-09
-1.20297e-08
6.54659e-10
9.9132e-09
-2.02603e-09
-6.22824e-09
-3.77544e-09
-1.18401e-08
1.46818e-08
-9.01247e-10
-2.59537e-09
-9.55104e-09
-7.47175e-09
-6.72965e-09
2.13765e-10
-1.66322e-08
8.94664e-09
-7.63559e-09
1.04201e-09
9.79356e-11
6.49565e-09
6.29756e-09
-1.37194e-08
7.18508e-09
-7.11576e-09
-7.20492e-09
6.53005e-09
1.32953e-09
1.57491e-08
-1.52869e-08
-4.34364e-09
3.8814e-09
-9.91922e-09
1.54477e-08
1.02206e-08
-8.0707e-09
-6.11097e-10
5.64857e-09
3.03324e-09
-2.11956e-09
-7.33521e-09
9.78562e-09
-3.30851e-10
-1.9681e-09
-5.34698e-09
5.19553e-09
-3.69879e-09
-7.43695e-09
3.80052e-09
3.20703e-09
-6.6137e-09
-2.9212e-10
8.44011e-09
-8.86401e-09
-1.4863e-08
1.15484e-09
-2.63395e-09
-1.12317e-08
-1.18268e-09
-3.3105e-09
6.82554e-09
-6.75625e-09
3.24122e-09
2.18861e-09
-5.414e-09
-8.5106e-11
4.24634e-09
4.86646e-11
4.29969e-09
-4.80654e-09
-6.10686e-09
-1.98241e-09
5.95276e-09
-5.0615e-10
-1.43106e-08
-3.53871e-09
-3.85161e-11
-3.17901e-09
-3.52029e-09
-5.43243e-09
-5.31741e-09
-8.83297e-09
-6.62208e-09
-8.19636e-10
6.91458e-09
5.27139e-10
-7.93215e-11
-1.4159e-09
-5.12687e-09
4.91875e-09
-1.17465e-09
-3.82344e-09
4.17119e-09
-7.20822e-11
-6.38711e-10
4.8363e-09
-2.64062e-11
-4.50433e-09
5.92009e-09
-5.26877e-09
-5.04708e-09
-9.59703e-11
5.58832e-09
-4.81838e-10
1.80811e-09
-7.77099e-10
8.74382e-10
-8.70823e-10
-1.09911e-10
-4.78909e-09
-3.89536e-10
-9.01642e-11
-5.53268e-09
-4.30351e-09
7.30667e-09
-1.07779e-09
-7.64477e-09
5.56845e-09
1.25639e-09
-1.19392e-09
-5.5134e-09
3.47448e-10
-6.49888e-09
-7.10775e-09
5.81006e-09
-8.08178e-09
-9.11083e-09
2.24306e-10
-1.37766e-09
1.02642e-08
-9.37863e-09
6.07785e-09
-7.0613e-10
2.09853e-09
-1.05592e-09
-8.76564e-09
7.72304e-09
5.00431e-09
-4.23285e-09
-7.49728e-10
-2.17296e-11
-9.27874e-09
8.00545e-09
9.6193e-10
3.11362e-10
-8.60374e-09
1.42353e-09
3.52027e-09
-4.7239e-09
1.47701e-10
2.03319e-09
6.08157e-09
7.5411e-09
1.02382e-09
-7.60298e-09
2.94286e-09
6.29673e-10
-5.22515e-11
-2.22387e-09
-3.6679e-09
5.70122e-10
5.32165e-09
7.35042e-09
5.79894e-09
-9.43728e-10
-5.87077e-09
1.01556e-09
5.54627e-09
-5.77951e-09
-2.46931e-10
4.80173e-10
-6.24512e-09
1.64236e-09
7.42343e-09
-2.82067e-09
1.76013e-10
-8.7486e-10
-3.68103e-10
-3.56934e-10
-1.46196e-09
1.48139e-09
-4.48033e-09
6.69281e-09
-3.826e-09
-4.78318e-10
-3.70435e-09
-4.89753e-10
-1.89957e-09
5.08039e-09
-3.19342e-09
1.2602e-11
3.04008e-09
-4.86244e-09
-7.72028e-11
-1.60875e-09
4.60284e-09
4.59986e-11
4.2717e-10
-4.78936e-09
4.41765e-09
-5.54693e-11
-4.19977e-09
4.65615e-09
-2.92203e-11
-1.68771e-09
-3.49982e-09
5.18337e-09
4.16538e-12
-2.72513e-09
-1.8315e-09
4.42538e-09
1.31261e-10
-4.30427e-09
-1.08563e-10
3.43908e-09
-5.27922e-09
8.64633e-12
5.18947e-10
-5.1588e-09
4.73641e-09
-9.65724e-11
5.0938e-09
-9.67777e-12
-2.20521e-09
5.316e-09
7.04236e-11
-5.26042e-09
3.21559e-09
-1.60394e-10
-2.38306e-11
5.33522e-09
4.60929e-12
-1.88004e-09
7.73454e-09
-6.16222e-09
3.07721e-10
-4.83515e-09
3.03491e-09
-7.98147e-11
-4.94113e-10
-3.79891e-09
-1.05022e-11
3.96287e-09
-4.42356e-09
-3.34415e-11
-2.0147e-09
-2.56025e-09
4.52966e-09
4.5298e-11
-5.76156e-09
3.91214e-09
-1.65275e-10
-5.81261e-09
3.36913e-09
-1.16753e-10
1.00724e-09
-4.86908e-09
3.90656e-09
-4.47453e-11
5.13346e-09
-4.24543e-09
1.19209e-10
-1.91191e-09
-2.98552e-09