/*--------------------------------*- C++ -*----------------------------------*\
| =========                 |                                                 |
| \\      /  F ield         | OpenFOAM: The Open Source CFD Toolbox           |
|  \\    /   O peration     | Version:  v1612+                                |
|   \\  /    A nd           | Web:      www.OpenFOAM.com                      |
|    \\/     M anipulation  |                                                 |
\*---------------------------------------------------------------------------*/
FoamFile
{
    version     2.0;
    format      ascii;
    class       volVectorField;
    location    "166";
    object      wallShearStress;
}
// * * * * * * * * * * * * * * * * * * * * * * * * * * * * * * * * * * * * * //

dimensions      [0 2 -2 0 0 0 0];

internalField   uniform (0 0 0);

boundaryField
{
    WALL
    {
        type            calculated;
        value           nonuniform List<vector> 
1511
(
(0.00219792 -0.0125531 0.00458563)
(0.00235019 -0.012687 0.00485318)
(0.00203685 -0.0126367 0.00473081)
(0.00227405 -0.0129559 0.00466372)
(0.00201865 -0.0131693 0.0048603)
(0.00219267 -0.0129543 0.0047226)
(0.0021434 -0.0126355 0.00471319)
(0.00195833 -0.0126609 0.0050436)
(0.00215821 -0.0130493 0.00498851)
(0.00207188 -0.0126361 0.00467886)
(0.00217589 -0.0124552 0.00473687)
(0.002178 -0.0122721 0.00445957)
(0.00218549 -0.0128227 0.00498488)
(0.00225126 -0.0125917 0.00452965)
(0.00206862 -0.0126793 0.00482325)
(0.00210932 -0.0126712 0.00474669)
(0.00205902 -0.0126013 0.00462358)
(0.00213762 -0.012604 0.00463659)
(0.0020745 -0.0123418 0.00505093)
(0.00202039 -0.0129888 0.00483283)
(0.00241672 -0.0133004 0.00477751)
(0.00224844 -0.0127875 0.00483822)
(0.0021496 -0.0126379 0.00459228)
(0.00223145 -0.0133392 0.00476127)
(0.00220617 -0.0128022 0.00498815)
(0.00225317 -0.0129923 0.00472857)
(0.00208582 -0.0125393 0.00465779)
(0.00225679 -0.0127603 0.00456776)
(0.00214858 -0.0128021 0.00476752)
(0.0020843 -0.0121985 0.0045986)
(0.00230993 -0.0127236 0.00506929)
(0.00201217 -0.0122195 0.00442993)
(0.00237423 -0.0131473 0.00531794)
(0.00232721 -0.0129803 0.00518025)
(0.00203763 -0.0129135 0.00474756)
(0.00214727 -0.0127842 0.00491308)
(0.0021274 -0.0125236 0.00475242)
(0.00211024 -0.012996 0.00504475)
(0.00222791 -0.0127671 0.00466038)
(0.00228485 -0.012984 0.00456751)
(0.00257551 -0.013627 0.00502559)
(0.00219625 -0.0125844 0.00452546)
(0.00240251 -0.0129646 0.00483531)
(0.00218945 -0.0126664 0.0046029)
(0.00216984 -0.0128853 0.0047253)
(0.00240748 -0.0128951 0.00495248)
(0.00199367 -0.0126467 0.0047706)
(0.00189984 -0.012475 0.00466007)
(0.00200424 -0.0126866 0.00465395)
(0.00223432 -0.0125743 0.00484808)
(0.00234576 -0.0127895 0.00491813)
(0.00199702 -0.0122905 0.00452688)
(0.00221873 -0.0127861 0.00493135)
(0.00194916 -0.0124835 0.00449221)
(0.00185212 -0.0122703 0.00421146)
(0.00196469 -0.0131938 0.00472365)
(0.00243887 -0.0126972 0.00477785)
(0.00221021 -0.0125172 0.00454242)
(0.00219496 -0.0126822 0.00445469)
(0.00202695 -0.0123705 0.00448768)
(0.00205227 -0.0119153 0.00421418)
(0.00204557 -0.0124406 0.00452805)
(0.00220184 -0.0126443 0.00440788)
(0.00220912 -0.0124956 0.00437262)
(0.0020203 -0.0125445 0.00465267)
(0.00214808 -0.0127908 0.00476476)
(0.00207385 -0.0124962 0.00462584)
(0.00197983 -0.0124976 0.00460909)
(0.00210571 -0.0126831 0.00469555)
(0.00205302 -0.0127092 0.00477027)
(0.00216106 -0.0129088 0.00500003)
(0.00206465 -0.0123111 0.00469919)
(0.0022424 -0.0126273 0.00456921)
(0.00206209 -0.012819 0.0051499)
(0.00213491 -0.0125929 0.00462511)
(0.00211581 -0.0123942 0.00468612)
(0.00225268 -0.0129327 0.00464629)
(0.00209154 -0.0127371 0.00481248)
(0.00230982 -0.0129498 0.00438765)
(0.00212981 -0.0126806 0.00472168)
(0.00228427 -0.0126673 0.00447879)
(0.00209387 -0.0128768 0.00474629)
(0.0024592 -0.0136054 0.004742)
(0.00223452 -0.0127883 0.00457599)
(0.00232866 -0.0132554 0.00463618)
(0.00217638 -0.0128507 0.00455165)
(0.00225672 -0.0128676 0.00465503)
(0.00240797 -0.0134383 0.00494778)
(0.00215191 -0.0122474 0.00446773)
(0.0019922 -0.0131181 0.00427925)
(0.00218976 -0.0128088 0.00481085)
(0.0020365 -0.0122556 0.00458934)
(0.0019445 -0.0123617 0.00434462)
(0.00226475 -0.0134632 0.00498879)
(0.00220747 -0.0127579 0.00503569)
(0.00237237 -0.0133038 0.00505627)
(0.00205668 -0.0121319 0.00448986)
(0.00257576 -0.0139897 0.00513146)
(0.00236396 -0.0130092 0.0045602)
(0.00222676 -0.0128797 0.00476935)
(0.00225084 -0.0127921 0.00481134)
(0.00225351 -0.0124508 0.00441858)
(0.00213642 -0.0129054 0.00467902)
(0.00200095 -0.0127711 0.0049034)
(0.00218303 -0.012871 0.00484497)
(0.0022928 -0.0128365 0.00491659)
(0.00217865 -0.0132917 0.0049731)
(0.00208937 -0.0124874 0.00486553)
(0.00216809 -0.0128666 0.00471139)
(0.00224936 -0.0130275 0.00499601)
(0.0022948 -0.0130819 0.0048618)
(0.00205846 -0.0127596 0.00469632)
(0.00219146 -0.0128869 0.0047886)
(0.00225215 -0.0131563 0.00485111)
(0.0021611 -0.0128982 0.00485136)
(0.00215694 -0.012748 0.00476061)
(0.00221438 -0.0131688 0.00488906)
(0.00212679 -0.0129642 0.00480842)
(0.0024042 -0.0126293 0.00474126)
(0.00209402 -0.0130418 0.00480867)
(0.00212208 -0.0133404 0.00507816)
(0.00230191 -0.012838 0.00481839)
(0.00220895 -0.013631 0.00509214)
(0.00226337 -0.0130749 0.00489343)
(0.00214402 -0.0132979 0.00487761)
(0.00226352 -0.0136046 0.0049268)
(0.00200161 -0.0131981 0.00482525)
(0.00220814 -0.0126725 0.00468173)
(0.00245768 -0.013018 0.0048368)
(0.00207913 -0.0133259 0.00498624)
(0.00213537 -0.012999 0.00479619)
(0.00194358 -0.0125073 0.00453806)
(0.00216746 -0.0126703 0.00460415)
(0.00202702 -0.0129259 0.00473926)
(0.00203284 -0.0122701 0.00439071)
(0.00206407 -0.0124529 0.004779)
(0.00212459 -0.0125292 0.00459932)
(0.0021441 -0.012941 0.00472613)
(0.0022101 -0.0128164 0.00491916)
(0.00224009 -0.0128008 0.0047937)
(0.00202161 -0.0130764 0.00460644)
(0.00206168 -0.0125341 0.00452964)
(0.00211254 -0.0123458 0.00434517)
(0.00208297 -0.0124578 0.00451964)
(0.00219085 -0.0127632 0.00506194)
(0.0020829 -0.0124741 0.00461166)
(0.00211895 -0.0128704 0.00486916)
(0.00210939 -0.012754 0.00465847)
(0.00211712 -0.0119536 0.00452092)
(0.00211862 -0.012254 0.00463059)
(0.00197419 -0.0125007 0.00454466)
(0.00192763 -0.0128727 0.00471887)
(0.0018085 -0.0121581 0.00442741)
(0.00196805 -0.0121074 0.00463439)
(0.00203886 -0.0123612 0.00449978)
(0.00239069 -0.0126337 0.00504712)
(0.00217106 -0.0127295 0.00478357)
(0.00211559 -0.0123015 0.00460081)
(0.0023841 -0.0124152 0.00476355)
(0.00235036 -0.0129431 0.00491645)
(0.00210906 -0.0126743 0.00481)
(0.00226341 -0.0124107 0.00483815)
(0.00227004 -0.0121878 0.00458474)
(0.00218665 -0.0121305 0.00478257)
(0.00228021 -0.0127998 0.00501761)
(0.00216578 -0.0127706 0.00488195)
(0.00220265 -0.0128596 0.00498393)
(0.00202564 -0.0123274 0.00469194)
(0.00213458 -0.012746 0.00461813)
(0.00208955 -0.0127914 0.00426402)
(0.00199716 -0.011854 0.00417233)
(0.00194119 -0.0124958 0.00448252)
(0.00213817 -0.0127048 0.00446175)
(0.00193131 -0.0132029 0.00439498)
(0.00210229 -0.0126589 0.00456021)
(0.00208517 -0.0130989 0.00483316)
(0.00204719 -0.0128806 0.00458036)
(0.00206694 -0.0129787 0.00466093)
(0.00217061 -0.0124169 0.00462094)
(0.00218147 -0.0131034 0.00485503)
(0.00219129 -0.0123555 0.00466087)
(0.00206001 -0.0123598 0.00470017)
(0.00211186 -0.0128662 0.0048014)
(0.00206924 -0.0125671 0.00492099)
(0.00205239 -0.0130683 0.00471401)
(0.00217153 -0.0121784 0.00504961)
(0.0021223 -0.0127445 0.00487615)
(0.00221838 -0.0125697 0.00461317)
(0.00223978 -0.0125598 0.00445355)
(0.00225292 -0.0124156 0.00452967)
(0.00230701 -0.0132875 0.00493067)
(0.00220222 -0.0126204 0.00466838)
(0.00206825 -0.0128985 0.00478793)
(0.00203963 -0.0124714 0.00470096)
(0.00235929 -0.0128364 0.00440735)
(0.00221041 -0.0126037 0.00450567)
(0.00207515 -0.0128969 0.00493284)
(0.00239203 -0.0128668 0.0044352)
(0.00205127 -0.0124199 0.0048278)
(0.00230163 -0.012706 0.00460564)
(0.00215701 -0.0131482 0.00481965)
(0.00182639 -0.0127926 0.00467393)
(0.00230764 -0.0135212 0.00494052)
(0.00233994 -0.0131594 0.00486607)
(0.00226352 -0.0130774 0.0048153)
(0.00199929 -0.0127129 0.00469819)
(0.00219774 -0.0128241 0.00480871)
(0.00203954 -0.0124092 0.00468333)
(0.00221674 -0.0127517 0.00463793)
(0.00217039 -0.0122626 0.00459746)
(0.00194911 -0.012602 0.00463608)
(0.0021063 -0.0123436 0.00452381)
(0.00245102 -0.0124177 0.00465567)
(0.00209401 -0.0126657 0.00460669)
(0.00210304 -0.0127309 0.00485791)
(0.00201849 -0.0125954 0.00467326)
(0.00202239 -0.0129088 0.00490787)
(0.00216615 -0.0130613 0.00475434)
(0.00216299 -0.0130612 0.00474937)
(0.00211793 -0.0125908 0.00471843)
(0.0020555 -0.0129809 0.00485612)
(0.00203034 -0.0127095 0.00475165)
(0.00202244 -0.0125468 0.00476077)
(0.00205955 -0.0125754 0.00469917)
(0.00223466 -0.0127968 0.00468759)
(0.00222894 -0.0128163 0.00469354)
(0.00211737 -0.0128264 0.00489956)
(0.00225424 -0.0130637 0.00477687)
(0.00213655 -0.0126373 0.00463748)
(0.00223703 -0.0124257 0.00446937)
(0.00226225 -0.0128765 0.00470135)
(0.00228236 -0.0131278 0.00458015)
(0.00213735 -0.0126836 0.00459701)
(0.00222494 -0.0128996 0.00457119)
(0.00220535 -0.0129703 0.00467001)
(0.00230191 -0.0132247 0.00473621)
(0.00204171 -0.0128126 0.00511142)
(0.00205393 -0.0121508 0.00458635)
(0.0022215 -0.0126231 0.00444379)
(0.0021507 -0.012673 0.00477673)
(0.0025745 -0.0140224 0.0055436)
(0.0021935 -0.0125436 0.00469828)
(0.00217289 -0.0133632 0.00487736)
(0.00234736 -0.0129561 0.00504988)
(0.00215622 -0.0131338 0.00454386)
(0.00205552 -0.0122941 0.00445732)
(0.00203236 -0.0125385 0.00449883)
(0.0020771 -0.0126522 0.0042392)
(0.00212191 -0.0126562 0.0042958)
(0.00200654 -0.0120044 0.00441118)
(0.00197123 -0.0125564 0.00457785)
(0.00200094 -0.0119872 0.00456542)
(0.00203215 -0.0119249 0.00459102)
(0.00203064 -0.0122109 0.00454919)
(0.00210677 -0.0127727 0.0047878)
(0.0020893 -0.012376 0.00464661)
(0.0019648 -0.0126645 0.00480333)
(0.00202444 -0.0123531 0.00475722)
(0.00205789 -0.0126242 0.00483652)
(0.0021673 -0.0127867 0.0047056)
(0.00206971 -0.0125103 0.00473249)
(0.00196185 -0.0121373 0.00444254)
(0.00220231 -0.0122363 0.00443944)
(0.00201124 -0.0121349 0.00441543)
(0.00215127 -0.0125356 0.00463697)
(0.00203577 -0.0128845 0.00473651)
(0.00230971 -0.0128725 0.00505864)
(0.00218882 -0.0124464 0.00466116)
(0.00231432 -0.0131981 0.00508228)
(0.00217843 -0.0130362 0.00482045)
(0.00234444 -0.0131526 0.00503696)
(0.00190227 -0.0128481 0.00446693)
(0.00204902 -0.0128148 0.00478835)
(0.00197203 -0.0126056 0.00455669)
(0.00201004 -0.0126822 0.00451119)
(0.00204443 -0.0128516 0.00465976)
(0.00210631 -0.013793 0.00501371)
(0.00223375 -0.0129256 0.00482745)
(0.00230661 -0.0128397 0.00471011)
(0.00238597 -0.0131383 0.00478872)
(0.00233237 -0.0128741 0.00469281)
(0.00225503 -0.0128 0.00478904)
(0.00233548 -0.012682 0.0046918)
(0.00223936 -0.0123547 0.00454843)
(0.0021253 -0.012299 0.00451853)
(0.00194845 -0.0128135 0.0047417)
(0.00212328 -0.0124821 0.00458543)
(0.00218276 -0.0123784 0.00462303)
(0.00217656 -0.0126146 0.00468843)
(0.00200743 -0.0125277 0.00460744)
(0.00221122 -0.0123664 0.00454623)
(0.00185117 -0.0127031 0.00471752)
(0.00195769 -0.0126478 0.00459386)
(0.00247885 -0.012789 0.00480918)
(0.00194366 -0.0123805 0.00450024)
(0.00198506 -0.0129557 0.00484454)
(0.00196059 -0.0128196 0.00478671)
(0.00205328 -0.0125095 0.00452534)
(0.00210199 -0.0130912 0.00477882)
(0.00208598 -0.0124327 0.00475563)
(0.00224492 -0.013007 0.00499027)
(0.00244655 -0.0128899 0.00481313)
(0.00195591 -0.0128492 0.00476761)
(0.00222154 -0.0126858 0.00463747)
(0.00229004 -0.0127457 0.00468996)
(0.00215666 -0.0132066 0.00494927)
(0.00203297 -0.0125257 0.00452155)
(0.0019738 -0.0125806 0.00466323)
(0.00206473 -0.0132418 0.00500792)
(0.00225346 -0.0127218 0.00478402)
(0.00200256 -0.0123029 0.00453644)
(0.0018061 -0.0125275 0.00462135)
(0.00217202 -0.0131592 0.00496438)
(0.00196064 -0.0129397 0.00484984)
(0.00220888 -0.0122562 0.00459249)
(0.00211487 -0.0129464 0.00479992)
(0.00230849 -0.0128655 0.00482067)
(0.00210075 -0.0130204 0.00483118)
(0.00227585 -0.0131088 0.00464503)
(0.00213796 -0.0130855 0.0049998)
(0.00208957 -0.0124772 0.00453393)
(0.00233868 -0.013183 0.00484585)
(0.00227946 -0.0127473 0.00497107)
(0.00219077 -0.0127474 0.00464169)
(0.00182391 -0.0119601 0.00443584)
(0.00195461 -0.0122495 0.00464104)
(0.00200149 -0.0126587 0.0046957)
(0.00182566 -0.0122293 0.00462637)
(0.00180313 -0.0120843 0.00441276)
(0.00213661 -0.0128165 0.00470706)
(0.00193898 -0.0121074 0.00460995)
(0.00202332 -0.0129794 0.00483971)
(0.00199998 -0.012611 0.00469188)
(0.00187827 -0.0121329 0.00457588)
(0.00190887 -0.0124767 0.00462993)
(0.00237093 -0.0126818 0.00463992)
(0.0020355 -0.0125579 0.00460997)
(0.00218538 -0.0130047 0.00481233)
(0.00204544 -0.0125894 0.00477899)
(0.00216959 -0.0126072 0.00493712)
(0.00222523 -0.0128457 0.0045032)
(0.00216469 -0.0130723 0.00501451)
(0.00206542 -0.0124842 0.00475765)
(0.00212735 -0.0125694 0.00471529)
(0.00213858 -0.0128082 0.00474493)
(0.00212383 -0.0125028 0.0046298)
(0.00207964 -0.0127369 0.00481211)
(0.00219876 -0.012706 0.00476091)
(0.0023401 -0.0129599 0.00458187)
(0.0023066 -0.0130331 0.00464376)
(0.00218288 -0.0129567 0.00473154)
(0.00223405 -0.0127675 0.00458068)
(0.00228994 -0.0132861 0.00491826)
(0.00215397 -0.0127936 0.00472901)
(0.00202707 -0.0127453 0.00467474)
(0.00213061 -0.0125956 0.00471353)
(0.00222366 -0.0128847 0.00471843)
(0.001955 -0.0127004 0.00481921)
(0.00221479 -0.0129151 0.00479662)
(0.00204396 -0.0128616 0.00477144)
(0.00202631 -0.0125233 0.00470572)
(0.0021991 -0.0126877 0.00486959)
(0.00203608 -0.0126485 0.00462843)
(0.00218679 -0.0132488 0.00488369)
(0.00237624 -0.012504 0.0048096)
(0.00262583 -0.0126859 0.00485195)
(0.00235194 -0.0134542 0.0049959)
(0.00202886 -0.0126115 0.00469451)
(0.00229172 -0.0127992 0.0047585)
(0.00227045 -0.0129641 0.0048486)
(0.00233893 -0.0128978 0.00473483)
(0.00205511 -0.0128965 0.00485966)
(0.0018712 -0.0126626 0.00464949)
(0.00193733 -0.0128888 0.00466242)
(0.00216955 -0.0125267 0.00465278)
(0.00209601 -0.0123371 0.00459182)
(0.00205093 -0.0129483 0.00485976)
(0.00195087 -0.0121254 0.00458174)
(0.0020005 -0.0126108 0.00450602)
(0.00219894 -0.0125535 0.00495103)
(0.00219628 -0.0131689 0.00485462)
(0.00207148 -0.0128694 0.00452498)
(0.00224785 -0.0125567 0.00474036)
(0.00201697 -0.0128994 0.00479614)
(0.00232182 -0.0124229 0.00471773)
(0.00220151 -0.0124223 0.00470186)
(0.00210824 -0.0121886 0.00465889)
(0.00206 -0.012314 0.00457817)
(0.00202986 -0.0128184 0.00474694)
(0.00219898 -0.0126207 0.00487919)
(0.00216353 -0.0123373 0.00462756)
(0.00203551 -0.0130322 0.00474076)
(0.0022915 -0.0129964 0.00475473)
(0.00225876 -0.013075 0.00475304)
(0.00227309 -0.0134477 0.00497178)
(0.00244413 -0.0128155 0.00497727)
(0.00232168 -0.013118 0.00494919)
(0.00258048 -0.0131214 0.00494786)
(0.00204986 -0.0131644 0.00489081)
(0.00203564 -0.0128997 0.00476802)
(0.0020456 -0.0127491 0.00469312)
(0.00199914 -0.0125264 0.00457938)
(0.00202816 -0.0127103 0.00472373)
(0.0020647 -0.0125052 0.00450414)
(0.00200957 -0.0131022 0.00484375)
(0.00230167 -0.0127357 0.00473614)
(0.00224364 -0.012361 0.00462439)
(0.00224298 -0.0126053 0.00472072)
(0.00215696 -0.0128273 0.00487796)
(0.00204017 -0.0124403 0.00459414)
(0.00203954 -0.0126093 0.00463251)
(0.00197875 -0.0127653 0.00483233)
(0.00207368 -0.0125368 0.0046822)
(0.00208536 -0.0129147 0.00490802)
(0.00212666 -0.012657 0.00460805)
(0.00221941 -0.0127859 0.00474986)
(0.00227105 -0.0131052 0.00482292)
(0.00208739 -0.0128124 0.00473257)
(0.00223589 -0.0128178 0.00472913)
(0.00219795 -0.0128382 0.00476075)
(0.00228065 -0.0126079 0.00463556)
(0.00214292 -0.012946 0.00477238)
(0.00233343 -0.0128185 0.00484825)
(0.00238247 -0.0128911 0.00478768)
(0.00204902 -0.0127947 0.00476405)
(0.00246199 -0.0131533 0.00493002)
(0.00197769 -0.0127101 0.00472625)
(0.00204774 -0.0127833 0.0048414)
(0.00219398 -0.0127397 0.00467411)
(0.00216965 -0.0126368 0.00465896)
(0.00212535 -0.0123871 0.0045155)
(0.00197674 -0.0127741 0.00477343)
(0.00213384 -0.0126307 0.00470001)
(0.00235961 -0.0128257 0.00481017)
(0.00235055 -0.0132052 0.00486628)
(0.00229609 -0.0129713 0.00494972)
(0.00251013 -0.0129675 0.00487095)
(0.00226353 -0.0132774 0.00481079)
(0.00218348 -0.0125239 0.00469123)
(0.00196821 -0.0125413 0.00476124)
(0.00199045 -0.0122476 0.00481675)
(0.00230968 -0.0127119 0.00472654)
(0.00230339 -0.0127062 0.00456474)
(0.00217816 -0.012451 0.00451678)
(0.00205289 -0.0132157 0.00475489)
(0.00204211 -0.013223 0.00491132)
(0.00248874 -0.0144231 0.00481339)
(0.00191604 -0.0121949 0.00469048)
(0.00252729 -0.0142414 0.00515877)
(0.00208242 -0.0126433 0.00491236)
(0.00204101 -0.0126559 0.00474323)
(0.00220266 -0.0128234 0.00483534)
(0.00216064 -0.0127925 0.00479288)
(0.00214497 -0.0128438 0.00468016)
(0.00203529 -0.0127344 0.00483992)
(0.00210245 -0.0126816 0.00485002)
(0.00213337 -0.0126942 0.00476104)
(0.00218211 -0.0128261 0.00480193)
(0.00222763 -0.012809 0.0047827)
(0.00232514 -0.0128566 0.00480127)
(0.00230199 -0.0126546 0.00466068)
(0.00207913 -0.0128455 0.00491304)
(0.00227448 -0.0128292 0.0046444)
(0.00216344 -0.0127449 0.00469541)
(0.00217762 -0.0126677 0.00456182)
(0.00233027 -0.013071 0.00477917)
(0.00225002 -0.0129314 0.00477201)
(0.00221882 -0.0128774 0.00467828)
(0.00221264 -0.0127081 0.00455292)
(0.00219577 -0.0124522 0.00453172)
(0.00218282 -0.0126297 0.00458601)
(0.00215081 -0.0128538 0.00470876)
(0.00200712 -0.0132774 0.00458574)
(0.00216668 -0.013176 0.00471861)
(0.00242907 -0.0137317 0.0052544)
(0.0023132 -0.0136912 0.0049971)
(0.00234285 -0.0126327 0.00503631)
(0.00204487 -0.0128823 0.0047214)
(0.00210511 -0.0129031 0.00460826)
(0.0021416 -0.01236 0.00462705)
(0.00220077 -0.0128687 0.00473219)
(0.00216665 -0.0131761 0.00485853)
(0.00234749 -0.0130636 0.00494925)
(0.00222861 -0.0133797 0.00480341)
(0.00213325 -0.0123155 0.00445932)
(0.0020691 -0.0122434 0.00451986)
(0.00217428 -0.0127244 0.00478857)
(0.00217191 -0.0124516 0.00449367)
(0.00221847 -0.0127128 0.00454454)
(0.00208492 -0.0125498 0.00469857)
(0.00215157 -0.0125559 0.00472941)
(0.00231333 -0.0129326 0.00469161)
(0.00224532 -0.0127726 0.00473343)
(0.00214062 -0.0128689 0.00514807)
(0.00211148 -0.0123749 0.00465211)
(0.0020664 -0.0127054 0.0049254)
(0.00208303 -0.0128564 0.00474691)
(0.00191031 -0.012796 0.00460192)
(0.00213341 -0.012896 0.00467961)
(0.00196625 -0.013212 0.00468202)
(0.00243057 -0.0130916 0.00481414)
(0.00211584 -0.0124854 0.00456533)
(0.00201301 -0.0124249 0.00447652)
(0.00202153 -0.0123051 0.00446414)
(0.00207892 -0.0122089 0.00456868)
(0.00196077 -0.0120403 0.00448288)
(0.00214998 -0.0124309 0.00461246)
(0.00227219 -0.0126861 0.00473665)
(0.00224438 -0.0127923 0.00485818)
(0.00208122 -0.0120368 0.00465437)
(0.00202415 -0.0125727 0.00448289)
(0.00195048 -0.0121105 0.0043909)
(0.0020344 -0.0124379 0.00449082)
(0.001952 -0.0126459 0.00446537)
(0.00216779 -0.012659 0.00464557)
(0.00200924 -0.0125446 0.00449005)
(0.00214983 -0.0124207 0.00453089)
(0.00215727 -0.0123663 0.00465889)
(0.00192023 -0.0120585 0.00421726)
(0.00209225 -0.0119984 0.00445238)
(0.00208807 -0.0122904 0.00442259)
(0.00216123 -0.0129107 0.00481917)
(0.0021901 -0.0127932 0.00474436)
(0.00208333 -0.013073 0.00459462)
(0.00221906 -0.0127499 0.00491117)
(0.00226559 -0.0131349 0.00471729)
(0.00222973 -0.012654 0.00460941)
(0.00200373 -0.0124216 0.00447589)
(0.00204084 -0.0127212 0.00492996)
(0.00203262 -0.0130673 0.00468093)
(0.00210734 -0.0124131 0.00456109)
(0.00203474 -0.0124747 0.00492519)
(0.00205904 -0.0133389 0.00471465)
(0.00221012 -0.0127059 0.00462148)
(0.00203449 -0.0133208 0.00462745)
(0.00213604 -0.012929 0.00466322)
(0.00205038 -0.0132095 0.00509283)
(0.0020063 -0.0124154 0.00456345)
(0.00221477 -0.0127517 0.00466094)
(0.00204137 -0.0124066 0.0047281)
(0.00205227 -0.012566 0.00476501)
(0.00189413 -0.0125515 0.00466389)
(0.00217249 -0.0121599 0.00444995)
(0.00207732 -0.0118465 0.00455594)
(0.00201742 -0.0116326 0.00423716)
(0.00227763 -0.0130456 0.00471996)
(0.00197454 -0.0119827 0.00462053)
(0.00193986 -0.012214 0.00467894)
(0.00211064 -0.0127017 0.00475877)
(0.0020911 -0.0121921 0.00464803)
(0.00210096 -0.0127936 0.00492733)
(0.00224184 -0.0119099 0.00459367)
(0.00203303 -0.0124291 0.00464366)
(0.00227479 -0.0122769 0.00453086)
(0.00200546 -0.0122 0.0045862)
(0.00198544 -0.0124368 0.00459092)
(0.00202776 -0.0123411 0.0046575)
(0.00196905 -0.0134317 0.00481316)
(0.00210475 -0.0123489 0.0046129)
(0.00210818 -0.0133363 0.00493453)
(0.00226081 -0.0129283 0.00483474)
(0.00229771 -0.0128861 0.00501815)
(0.00207513 -0.0128577 0.00471156)
(0.00214732 -0.0130995 0.00489671)
(0.00193637 -0.0127865 0.00504208)
(0.00229039 -0.0130279 0.00486388)
(0.00211193 -0.012873 0.00480615)
(0.00192454 -0.0127738 0.00497208)
(0.00221244 -0.0133245 0.005088)
(0.00220804 -0.0127401 0.00487906)
(0.00217379 -0.0132907 0.00495765)
(0.00221048 -0.0133666 0.00487034)
(0.00206487 -0.0126332 0.00463571)
(0.0021771 -0.013007 0.00476772)
(0.00228069 -0.0129167 0.00479526)
(0.00227776 -0.0128139 0.00473406)
(0.00233964 -0.0127093 0.00467969)
(0.00217221 -0.012658 0.00464283)
(0.00227928 -0.0127601 0.00466991)
(0.00213417 -0.012612 0.00476143)
(0.00225099 -0.0126725 0.00470353)
(0.00220974 -0.0125912 0.00461906)
(0.00205511 -0.0125195 0.00464522)
(0.00210603 -0.0128367 0.00471522)
(0.00188165 -0.0126035 0.00464073)
(0.0021446 -0.0131007 0.00475073)
(0.00219532 -0.0130038 0.00478224)
(0.00224123 -0.0128902 0.00487479)
(0.00201695 -0.0128253 0.00484872)
(0.00216945 -0.0127342 0.00462703)
(0.002238 -0.0122226 0.00453121)
(0.00187166 -0.0122135 0.00444948)
(0.00239443 -0.0125822 0.00469666)
(0.0021031 -0.012643 0.00459073)
(0.0020762 -0.0123748 0.0046507)
(0.00203662 -0.0126501 0.0048601)
(0.00218229 -0.0128591 0.00472892)
(0.00212259 -0.0126074 0.0047103)
(0.00215655 -0.0128081 0.00485403)
(0.00211276 -0.0126143 0.00474822)
(0.00232756 -0.012836 0.00473099)
(0.00213488 -0.0130838 0.00479298)
(0.00208373 -0.0128166 0.00460211)
(0.0021591 -0.0132388 0.00501572)
(0.00198073 -0.0130275 0.00494051)
(0.00214457 -0.0130174 0.00485119)
(0.0021318 -0.0128933 0.00484286)
(0.00207919 -0.0127272 0.0047163)
(0.00205256 -0.0125304 0.00467472)
(0.00192861 -0.0126821 0.00480839)
(0.00221773 -0.0123139 0.00459402)
(0.00210315 -0.0124156 0.00456581)
(0.00211104 -0.0125934 0.00462463)
(0.00210485 -0.0125847 0.00466961)
(0.00203954 -0.0127336 0.00478038)
(0.00210533 -0.012709 0.00456904)
(0.00172092 -0.0125177 0.00426966)
(0.00228473 -0.0128052 0.00480987)
(0.00228846 -0.0130465 0.00513046)
(0.00229891 -0.0136826 0.00478054)
(0.00209091 -0.0128452 0.00479964)
(0.00192078 -0.0126554 0.00443477)
(0.00243814 -0.0127789 0.0049942)
(0.00211261 -0.0125536 0.00487385)
(0.00196286 -0.0126091 0.00457647)
(0.00230322 -0.0125868 0.0048452)
(0.00204863 -0.0123074 0.00460179)
(0.00226469 -0.012635 0.00471248)
(0.00223112 -0.0126791 0.00472392)
(0.00210884 -0.0121884 0.004633)
(0.00216068 -0.0117524 0.00462828)
(0.00208249 -0.0116349 0.00449725)
(0.00210151 -0.0121988 0.00449699)
(0.00203113 -0.0123057 0.0044725)
(0.0020096 -0.0122399 0.00453642)
(0.00201394 -0.0123925 0.00445267)
(0.00195563 -0.0118505 0.00440186)
(0.00193474 -0.0118616 0.00427456)
(0.00199255 -0.0118145 0.00448441)
(0.00185934 -0.011871 0.00440444)
(0.00202687 -0.0127212 0.00439092)
(0.00193579 -0.0124056 0.00452308)
(0.00218147 -0.012729 0.00465554)
(0.0021401 -0.0126619 0.00461052)
(0.00223351 -0.0124501 0.00436835)
(0.00221301 -0.0125155 0.00437661)
(0.00196804 -0.0119232 0.00474483)
(0.00213736 -0.012614 0.00455749)
(0.00226954 -0.0132714 0.00473291)
(0.00202912 -0.0125934 0.00484595)
(0.00237103 -0.0131438 0.00479259)
(0.00235908 -0.0124216 0.00460744)
(0.00198315 -0.0123517 0.00448131)
(0.00224089 -0.0120193 0.00477256)
(0.00202379 -0.0119227 0.00444076)
(0.00197396 -0.0116338 0.00444712)
(0.00193133 -0.0119093 0.00463055)
(0.00219021 -0.0124412 0.00458213)
(0.00212322 -0.0124784 0.0048522)
(0.00208193 -0.0124899 0.00469022)
(0.00194509 -0.0120458 0.0042707)
(0.00189387 -0.0120862 0.00465347)
(0.00224282 -0.0123313 0.00514704)
(0.00227705 -0.0125578 0.00481263)
(0.00222685 -0.0127837 0.00472479)
(0.00223808 -0.0127079 0.00474649)
(0.00210632 -0.0123402 0.00462252)
(0.00214129 -0.0124399 0.00466915)
(0.00217153 -0.0126057 0.00479543)
(0.00189084 -0.0119294 0.00451932)
(0.00190584 -0.0119691 0.00463657)
(0.00207341 -0.0119968 0.00459527)
(0.00234366 -0.0129231 0.00475118)
(0.00230653 -0.0132642 0.00481854)
(0.00186561 -0.0120751 0.00431439)
(0.00213818 -0.012872 0.00457896)
(0.00229231 -0.0132084 0.00490641)
(0.00201253 -0.0128804 0.0047694)
(0.0022113 -0.0125128 0.00491769)
(0.00214135 -0.0125877 0.00474322)
(0.00209845 -0.012817 0.00473441)
(0.0025466 -0.0133148 0.0051173)
(0.00205732 -0.0129968 0.00483824)
(0.00210098 -0.0130789 0.00470769)
(0.00219742 -0.0131393 0.00484271)
(0.00233249 -0.0130473 0.00498365)
(0.00200028 -0.0120117 0.00432119)
(0.0020248 -0.0125043 0.00438405)
(0.00228307 -0.0127644 0.00483956)
(0.00187572 -0.0122461 0.00492473)
(0.00208014 -0.0127245 0.00491687)
(0.00202334 -0.0123708 0.00479838)
(0.00213623 -0.0125699 0.00469214)
(0.00215549 -0.0125567 0.00460532)
(0.00216505 -0.0129283 0.00480386)
(0.00213635 -0.0125115 0.00479598)
(0.00214848 -0.0126104 0.00491391)
(0.00214211 -0.0126308 0.00474797)
(0.00213992 -0.0127411 0.00485811)
(0.00216942 -0.012888 0.00499802)
(0.00202035 -0.012273 0.00471819)
(0.00199414 -0.0126016 0.00487398)
(0.00198317 -0.0123627 0.00483607)
(0.00204112 -0.0124393 0.004824)
(0.002027 -0.0123894 0.00473764)
(0.00218434 -0.0125163 0.0046605)
(0.00212619 -0.0125323 0.00457937)
(0.0018341 -0.0124045 0.00436581)
(0.00216783 -0.0126874 0.00475611)
(0.00223451 -0.0126158 0.0046914)
(0.00212766 -0.0124422 0.00473937)
(0.00217866 -0.0130038 0.00488199)
(0.00212875 -0.0128424 0.00481491)
(0.00230299 -0.0129923 0.00475879)
(0.00207825 -0.0126131 0.00471171)
(0.00209053 -0.0126634 0.0042491)
(0.00213161 -0.0131263 0.00478735)
(0.0022163 -0.0127907 0.00481867)
(0.00217791 -0.0124783 0.00469739)
(0.00211341 -0.0126912 0.0047707)
(0.00203753 -0.0128686 0.00492323)
(0.00219681 -0.0125959 0.0046799)
(0.00221695 -0.0127917 0.00479608)
(0.00200914 -0.0126579 0.0046916)
(0.0019771 -0.0124263 0.00476085)
(0.00199849 -0.0123211 0.0046244)
(0.00243018 -0.0128987 0.0050098)
(0.00196738 -0.0128866 0.00474986)
(0.00225136 -0.0122974 0.00458335)
(0.0021568 -0.0124952 0.00466445)
(0.00236757 -0.0130092 0.00501576)
(0.00237719 -0.01275 0.00488762)
(0.00201154 -0.0122627 0.00445436)
(0.00225536 -0.0133124 0.00473297)
(0.00223605 -0.0129786 0.00502631)
(0.00218652 -0.0129077 0.00473956)
(0.00202343 -0.0133149 0.00490463)
(0.00215338 -0.01238 0.00455141)
(0.00223029 -0.0127732 0.00463335)
(0.00226843 -0.0131479 0.00484019)
(0.00203274 -0.0121135 0.00448054)
(0.00214131 -0.0119503 0.00457078)
(0.00202021 -0.0119714 0.00459198)
(0.00189337 -0.012646 0.00462891)
(0.00203468 -0.0126142 0.00479261)
(0.00205957 -0.012123 0.00456554)
(0.00198926 -0.012558 0.00474802)
(0.00197452 -0.0117255 0.00441907)
(0.00203979 -0.0113945 0.00443544)
(0.0019085 -0.0116879 0.00421587)
(0.002212 -0.0117972 0.00453763)
(0.00206733 -0.0119412 0.00436804)
(0.00248011 -0.0124853 0.00473833)
(0.0021896 -0.0126356 0.00450889)
(0.00224462 -0.0121314 0.00459031)
(0.00191941 -0.0116974 0.00423572)
(0.00217544 -0.0122033 0.00470275)
(0.00197719 -0.0117853 0.0045035)
(0.00228796 -0.0123789 0.00487219)
(0.00213904 -0.0121285 0.00457103)
(0.00216176 -0.0123886 0.00465748)
(0.00220419 -0.0121501 0.0047334)
(0.00249249 -0.0135023 0.00504329)
(0.00229725 -0.0126494 0.00478991)
(0.00202862 -0.0131403 0.00472461)
(0.00207514 -0.0128211 0.00473027)
(0.00204965 -0.0128533 0.00477542)
(0.00225895 -0.0130626 0.00494771)
(0.00210103 -0.0126817 0.004643)
(0.00217563 -0.0127499 0.00471805)
(0.00215571 -0.0129701 0.00487666)
(0.00227362 -0.0127501 0.0046146)
(0.00222003 -0.012857 0.00479275)
(0.00221418 -0.012636 0.00462748)
(0.00223736 -0.0128161 0.00480184)
(0.0022397 -0.0126587 0.0045978)
(0.00214688 -0.0127659 0.00473619)
(0.00230727 -0.0129091 0.00477961)
(0.00227071 -0.0129486 0.00489346)
(0.00192006 -0.0126431 0.0046444)
(0.00181426 -0.0127949 0.00469438)
(0.00216445 -0.012307 0.00451708)
(0.00220497 -0.0127988 0.00472962)
(0.00208561 -0.0125468 0.00458368)
(0.00202591 -0.0125362 0.00474724)
(0.00197957 -0.0125383 0.00467033)
(0.00211804 -0.0130861 0.00489174)
(0.00222636 -0.0131688 0.00490267)
(0.00220421 -0.0127902 0.00479878)
(0.0022438 -0.0128375 0.00479276)
(0.00220639 -0.0129839 0.00485714)
(0.00208605 -0.0128007 0.00474423)
(0.00219179 -0.0123389 0.00450808)
(0.00215421 -0.0125087 0.00465691)
(0.00206429 -0.0127168 0.00482821)
(0.00203519 -0.0123354 0.00454815)
(0.00229173 -0.0126279 0.00479667)
(0.00211614 -0.0123099 0.0045341)
(0.00224931 -0.012792 0.00492173)
(0.00227783 -0.0129641 0.00475918)
(0.00216816 -0.0127415 0.00470136)
(0.00210616 -0.012635 0.00470525)
(0.00216811 -0.0131133 0.00486718)
(0.00227444 -0.0135669 0.00508672)
(0.00205726 -0.012683 0.00462492)
(0.00199817 -0.0127127 0.00471363)
(0.0021684 -0.013094 0.00471964)
(0.00225501 -0.0132347 0.00507679)
(0.00205678 -0.0130991 0.00492619)
(0.00230362 -0.0125672 0.0046108)
(0.00209893 -0.0121655 0.00455241)
(0.00233511 -0.0124408 0.00476356)
(0.00225958 -0.013116 0.0048099)
(0.00244606 -0.0130884 0.00481058)
(0.00226502 -0.0127328 0.00479124)
(0.00206465 -0.0123651 0.00456036)
(0.00203123 -0.0130309 0.00472397)
(0.00230559 -0.0129543 0.00482114)
(0.00213088 -0.0132923 0.00495524)
(0.00226212 -0.0135241 0.00482775)
(0.00209465 -0.012922 0.00474309)
(0.00215853 -0.0131488 0.00476939)
(0.00211905 -0.012828 0.00474603)
(0.0020376 -0.0122899 0.00463287)
(0.00210123 -0.0125127 0.00471511)
(0.00195141 -0.0127476 0.00446554)
(0.00219952 -0.0127872 0.0048395)
(0.00206331 -0.0128991 0.00479345)
(0.00219687 -0.0126863 0.00470281)
(0.00213499 -0.0126016 0.00471933)
(0.00201353 -0.0123792 0.00464652)
(0.00231147 -0.0122727 0.00458762)
(0.00213516 -0.012061 0.00463012)
(0.00218069 -0.0119225 0.00450221)
(0.00207232 -0.0122587 0.00447729)
(0.00218224 -0.0132563 0.00483434)