/*--------------------------------*- C++ -*----------------------------------*\
| =========                 |                                                 |
| \\      /  F ield         | OpenFOAM: The Open Source CFD Toolbox           |
|  \\    /   O peration     | Version:  v1612+                                |
|   \\  /    A nd           | Web:      www.OpenFOAM.com                      |
|    \\/     M anipulation  |                                                 |
\*---------------------------------------------------------------------------*/
FoamFile
{
    version     2.0;
    format      ascii;
    class       volScalarField;
    location    "239";
    object      p;
}
// * * * * * * * * * * * * * * * * * * * * * * * * * * * * * * * * * * * * * //

dimensions      [0 2 -2 0 0 0 0];

internalField   nonuniform List<scalar> 
16982
(
0.937097
0.952343
1.01201
1.00597
1.01917
1.00816
1.018
1.02946
1.00841
1.02058
0.989671
0.988396
0.99375
1.01213
1.00034
0.981729
0.989515
0.988791
1.00666
0.992796
0.997714
0.979864
0.990415
0.980664
0.970823
0.949443
0.985185
0.984911
0.992228
0.973024
0.955505
0.970462
0.973498
0.979758
0.974067
0.954585
0.975091
0.980142
0.964184
0.981256
0.990427
0.963544
0.984816
0.967832
0.980151
0.983686
0.959403
0.965309
0.975714
0.975255
0.980405
0.966392
0.962463
0.961764
0.961806
0.963915
0.966938
1.15413
1.18018
1.15194
1.16112
1.14887
1.13427
1.17166
1.18005
1.12339
1.14904
1.15849
1.20393
1.21636
1.20616
1.21201
1.21834
1.19836
1.20998
1.18899
1.18802
1.22098
1.23262
1.20302
1.20884
1.20635
1.20627
1.18638
1.19405
1.21437
1.20513
1.22074
0.953315
0.949073
0.951704
0.950354
0.952437
0.955739
0.952773
0.952705
0.950537
0.954153
0.952902
0.953622
0.953838
0.952862
1.00077
0.992036
0.996315
1.00757
0.988943
0.997082
1.01547
1.01438
1.00079
0.998145
1.01964
0.987457
1.00367
1.00785
0.998934
1.01644
0.979664
0.979217
1.01364
1.0275
1.00392
0.984296
1.01338
1.02635
1.02542
1.00549
0.987417
0.982983
0.999045
1.00616
0.989353
0.95629
0.955886
0.960637
0.955354
0.953456
0.950467
0.95438
0.95784
0.9573
0.955036
0.952537
0.950749
0.952436
0.955161
0.999465
0.986599
0.989281
0.987307
0.985924
0.986624
1.01122
0.99457
0.995905
1.01643
1.0141
1.01065
1.00574
0.99914
1.00048
1.0083
0.909063
0.906754
0.908463
0.894495
0.907204
0.902627
0.90558
0.903628
0.908819
0.90887
0.898371
0.909596
0.896253
0.900801
0.901797
0.89604
0.880745
0.900654
0.915971
0.918487
0.919209
0.913199
0.915165
0.918038
0.921455
0.918788
0.919271
0.914311
0.91621
0.926667
0.922306
0.925278
0.929229
0.924004
0.91914
0.919143
1.04852
1.05013
1.02453
1.01974
1.035
1.04253
1.02903
1.02406
1.03378
1.02219
1.03139
1.03021
1.01602
1.0315
1.00913
1.01815
1.02501
1.02444
1.01099
1.00865
0.92403
0.921543
0.929816
0.937625
0.931802
0.930649
0.935895
0.932219
0.933501
1.01445
1.01757
1.0106
1.02006
1.02647
1.01251
1.02126
1.02075
1.02653
1.02063
1.01472
1.03192
1.00473
1.01216
1.02343
1.02612
0.93603
0.936058
0.933435
0.932068
0.934864
0.933177
0.932476
0.934493
0.951902
0.943287
0.944373
0.949636
0.9319
0.934022
0.946011
0.948986
0.938211
0.938356
0.984327
0.990813
0.985003
0.981159
0.980983
0.987594
0.986747
0.984378
0.986769
0.988993
0.995324
0.995444
1.15235
1.14964
1.13389
1.14267
1.15371
1.15699
1.14687
1.15076
1.16382
1.15405
1.15443
1.1686
1.17355
1.17401
1.18548
0.943015
0.943481
0.943143
0.945014
0.945522
0.941572
0.942317
0.943548
0.940659
0.948601
0.945666
0.941348
0.94428
0.944167
0.947192
0.947844
0.964056
0.966502
0.970081
0.961443
0.958695
0.975915
0.976604
0.969724
0.972729
0.961001
0.979487
0.9788
0.95865
0.967446
0.952079
0.95106
0.955549
0.947386
0.946159
0.957819
0.975728
0.966154
0.961217
0.959019
0.953356
0.974821
0.978175
0.947417
0.955431
0.958768
0.953029
0.964927
0.974034
0.965625
0.976727
0.979457
0.966847
0.980424
0.981093
0.977104
0.974689
1.02601
1.01997
0.988595
0.997529
0.996292
0.984639
1.00441
0.995539
1.00984
1.02471
1.0281
0.996747
1.00656
1.01772
1.01264
1.00019
0.998953
0.993958
0.999023
0.975464
0.983562
0.970743
0.976985
0.974717
0.979579
0.976348
0.967705
0.964264
0.966435
0.966321
0.966944
0.960368
1.10753
1.09813
1.12676
1.09785
1.11447
1.10855
1.12345
1.12192
1.13183
1.13551
1.18022
1.202
1.19753
1.14477
1.14184
1.19831
1.16521
1.1948
1.20228
1.18498
1.18292
1.17372
1.19117
1.19534
1.17749
0.963685
0.971015
0.970711
0.963407
0.95408
0.947918
0.954288
0.96241
0.966352
0.965732
1.04651
1.06744
1.0527
1.06837
1.04793
1.06008
1.06832
1.06295
1.0854
1.08278
1.08822
1.05622
1.06405
1.102
1.11358
1.11668
1.09491
1.07171
1.08251
1.06122
1.06584
1.08878
1.09163
1.06726
1.0765
1.08868
1.01045
1.01797
1.02944
1.03861
1.0183
1.0326
1.0081
1.0223
1.02523
1.02501
1.00402
1.0164
1.00319
1.01822
1.00195
0.995572
1.01187
1.00908
1.00859
1.00441
0.925791
0.924705
0.936894
0.930075
0.939553
0.915787
0.921256
0.933113
0.927143
0.921094
0.916285
0.928026
0.908247
0.914777
0.917311
0.918343
0.91171
0.921694
0.918269
0.919707
0.920686
0.92189
0.912439
0.913747
1.01814
1.01521
1.03825
1.03626
1.02644
1.03967
1.00509
1.04143
1.04921
1.01755
1.00815
0.994596
1.02047
1.02734
1.03207
1.00113
1.01731
1.03614
1.02718
1.03379
1.03124
1.03632
1.04226
1.04658
1.04547
1.04107
1.03765
1.03875
1.04986
1.0683
1.05063
1.08282
1.07461
1.0861
1.05755
1.04348
1.04649
1.05521
1.08511
1.05964
1.05613
1.06847
0.952456
0.956439
0.960731
0.949395
0.963735
0.957207
0.961184
0.961582
0.961922
0.962179
0.959537
0.957868
0.96504
0.963215
0.957182
0.959667
0.965641
0.962985
0.929798
0.925793
0.927839
0.927097
0.926894
0.92869
0.931879
0.9272
0.926691
0.924558
0.924026
0.925516
0.926296
0.927144
0.928617
0.928236
0.929194
0.929171
0.929049
0.933708
0.92575
0.92956
0.929664
0.923541
0.928
0.926327
0.926824
0.930755
0.924582
0.927074
0.927241
0.925505
0.922409
0.930503
0.928238
0.92613
0.930385
0.923311
0.92602
0.92526
0.924014
0.931236
0.931613
0.932499
0.938156
0.933371
0.938704
0.942039
0.942227
0.946926
0.945911
0.944113
0.939562
0.952932
0.942525
0.984567
0.986178
0.981292
0.975934
0.980471
0.978432
0.980034
0.973341
0.980125
0.962752
0.968163
1.00229
1.00418
1.01195
0.997114
1.02195
1.01309
1.01459
1.00812
1.00315
0.99678
1.00878
1.02105
0.998808
1.01782
0.999983
1.00724
1.01258
0.991912
0.990113
0.995602
0.945318
0.940489
0.957409
0.967373
0.951578
0.945807
0.95268
0.944775
0.947551
0.969052
0.967849
0.939651
0.939609
0.95306
0.949523
0.969798
0.954749
0.942344
0.961355
0.938402
0.954108
0.943545
0.927888
0.952352
0.956616
0.941222
0.929686
0.934838
0.947219
0.944742
0.9409
0.942878
0.956785
0.953226
0.940074
1.06057
1.06845
1.07743
1.08378
1.08369
1.09251
1.06221
1.04621
1.08702
1.09004
1.08038
1.07335
1.08102
1.10016
1.06626
1.08963
1.00573
1.00336
0.997183
0.996649
1.01901
1.01187
1.00262
0.999879
0.983529
0.987976
1.00278
0.985658
1.01694
1.00643
0.987352
1.02035
1.01573
1.02991
0.985184
0.977561
1.00765
1.00868
0.965444
0.966272
0.966791
0.973818
1.00207
0.985224
0.98391
0.989247
0.97122
0.96498
0.971329
0.964366
0.996099
0.977828
0.983874
1.119
1.12533
1.11055
1.10469
1.113
1.09165
1.11169
1.13443
1.14719
1.12158
1.13459
1.09583
1.07823
1.10162
1.11423
1.14559
1.11485
1.12745
1.1342
1.12512
0.938648
0.934587
0.941984
0.944694
0.928052
0.940147
0.938536
0.945194
0.943899
0.929487
0.931736
0.947767
0.945106
0.98072
0.976429
0.973613
0.977834
0.957722
0.954711
0.970239
0.967874
0.981079
0.975025
0.963543
0.959154
0.960517
0.952072
0.960926
0.957383
0.964696
0.963753
0.968788
0.95568
0.962167
0.95282
1.00166
1.00813
0.993004
1.00285
0.976571
0.968177
1.00923
1.00203
0.973259
0.971448
0.985013
0.978833
0.973414
0.986346
0.989162
0.981611
0.975561
1.00399
0.987675
0.986573
0.970129
1.00063
1.01865
0.969801
0.974987
0.971562
0.971902
1.00196
1.01993
0.999731
0.988338
0.98239
1.00301
0.989704
0.997381
0.998858
1.0093
1.01654
1.01127
1.02011
0.984009
0.986858
0.995593
0.992789
1.01318
1.01073
1.00018
0.971516
0.975524
0.964566
0.962254
0.95537
0.950972
0.964729
1.09311
1.10184
1.08347
1.10484
0.990735
0.991705
0.951874
1.24227
1.23224
1.23854
1.24172
1.02906
1.02774
1.03929
0.954607
0.960568
0.957659
1.1654
1.15615
1.13192
0.943184
0.945042
1.12408
1.11894
1.1389
1.20331
1.21265
1.20688
0.94695
0.950308
1.02275
1.02175
1.02529
1.02254
0.942983
0.947224
1.20401
1.21143
1.13878
1.1592
1.15294
1.17366
0.951157
0.949474
0.960193
0.960761
0.964277
0.959212
0.953903
0.954679
1.19087
1.1918
1.07358
1.07817
1.08148
0.942376
0.942865
0.940793
0.942041
1.06011
1.05727
1.07603
1.06695
1.10602
1.08293
1.09089
1.10513
1.09103
0.955797
0.95775
0.952701
0.955022
0.948476
0.948322
0.947429
0.959803
0.96006
0.968395
1.13655
1.14426
0.93546
0.932007
0.992349
0.998964
0.979139
1.02612
1.03274
1.00848
1.14273
1.14469
1.05214
1.04501
0.936151
0.935778
0.941073
0.946459
0.947751
0.943729
0.948164
0.948589
0.955769
0.941007
1.11216
1.10157
1.10436
0.96552
0.967512
0.943672
0.958462
0.955575
0.92711
0.927446
0.928487
1.09236
1.08798
1.11192
1.0833
0.943496
0.942132
1.04376
1.0344
1.03643
0.975728
0.977404
0.948804
0.948656
0.935932
0.937158
1.06447
1.07459
1.06813
0.922651
0.930646
0.930375
0.934566
0.924938
0.924449
0.927431
1.03823
1.04236
1.02621
0.98904
0.992291
0.977762
0.999393
0.930862
0.935863
0.934638
0.961779
0.964615
1.05812
1.05373
0.932125
0.933881
0.928654
0.929546
0.932516
1.03934
1.04898
1.04482
0.954941
0.955625
0.998924
1.0015
0.924598
0.925746
0.920522
0.992249
0.989459
0.926718
0.930443
0.930524
0.926005
0.922717
0.923735
1.01949
1.02141
0.979338
0.982357
0.946324
0.939379
0.956265
0.912139
0.913617
0.993974
0.993468
0.996685
0.964272
0.970923
0.973026
0.983101
0.91349
0.908408
0.950109
0.95153
0.896552
0.894532
0.909049
0.893585
0.908061
0.938384
0.939353
0.9234
0.940554
0.937746
0.927776
0.918794
0.93772
0.940863
0.930869
0.994476
0.980194
0.982375
0.966386
0.938734
0.933863
0.917802
0.932525
0.91332
0.909602
0.914017
0.916788
0.920274
0.905075
0.915
0.913335
0.903573
0.914471
0.908764
0.914363
0.929645
0.912007
0.902358
0.930464
0.928676
0.902645
0.90728
0.90162
0.894664
0.90819
0.908332
0.905368
0.896257
0.889845
0.899289
0.894246
0.892277
0.896875
0.896776
1.00426
1.01299
1.00482
1.01238
1.00172
1.00169
0.986278
0.986993
0.975773
0.960563
0.966945
0.949109
0.974676
0.971952
0.9504
0.943827
1.01268
1.01833
1.00821
1.00621
1.00493
0.999343
0.997428
0.990458
1.00285
0.995377
1.00268
1.00647
0.991287
1.00096
0.999682
0.983279
0.973423
0.983622
0.923927
0.920961
0.920287
0.909679
0.901543
0.904391
0.91399
0.908172
0.908882
0.900263
0.89856
0.925598
0.924025
0.921503
0.923432
0.922102
0.920866
0.921542
0.94295
0.945666
0.948357
0.942083
0.988552
0.979247
0.970368
0.978265
0.989766
0.9906
0.966189
0.967889
0.969283
1.00415
0.994233
0.986628
0.996775
0.993276
0.982039
0.988016
0.989923
0.989752
0.985365
0.984327
0.983927
1.04274
1.0353
1.04108
1.03374
1.02301
1.03218
1.02619
1.02426
1.02626
1.022
0.996861
0.99641
1.01115
1.0025
1.01296
1.01603
1.01079
1.00659
1.00746
1.00309
1.00413
1.01095
1.01642
1.01236
1.01221
1.01233
0.927932
0.923296
0.925265
0.923388
0.928599
0.924628
0.926254
0.924442
0.924267
0.920093
0.922893
0.923979
0.926964
0.923441
0.924461
0.926226
0.91982
0.919035
0.919717
0.918302
0.92001
0.925654
0.926759
0.925027
0.919897
0.924584
0.920845
0.918827
0.920722
0.920758
0.936828
0.938093
0.936562
0.935743
0.937837
0.93264
0.928307
0.926814
0.93261
0.933787
1.02505
1.01519
1.00406
1.0368
1.03385
1.02049
1.00761
1.01073
1.00816
0.994497
0.922712
0.92344
0.913493
0.919742
0.920863
0.921942
0.928242
0.924026
0.921761
0.925418
0.924067
0.92395
0.918397
0.910887
0.917036
0.926856
0.918236
0.91974
0.921696
0.921042
0.989499
0.998866
0.996408
0.983242
0.978361
0.993473
0.987947
0.999264
0.996975
1.02875
0.99919
1.02121
1.01473
1.00129
1.01228
1.00239
1.03651
1.02239
1.00591
1.02172
0.962323
0.963127
0.95411
0.954442
0.973228
0.977803
0.964381
0.940747
0.935342
0.937437
0.934701
0.940117
0.970461
0.96905
0.963934
0.97752
0.972841
0.958279
0.963322
0.979054
0.974234
0.982114
0.987747
0.987775
0.95339
0.94909
0.973019
0.97533
0.963868
0.961961
0.967046
0.952024
0.973159
0.971127
0.975128
0.969075
0.956258
0.95797
0.961287
0.957469
1.04001
1.03742
1.06358
1.05659
1.05865
1.05497
1.05943
1.0497
1.07036
1.0476
1.06294
1.05231
1.06764
1.06061
1.04734
0.937798
0.937134
0.933543
0.934007
0.932783
0.954608
0.957351
0.944205
0.924121
0.92391
0.926374
0.92542
0.931071
0.930086
0.929082
0.928659
0.932479
0.932998
1.07647
1.07674
1.0638
1.06809
1.06973
1.05601
1.02477
1.0479
1.03746
1.03241
1.05228
1.04931
1.05211
1.05416
1.05409
1.02885
1.02393
1.03334
1.0248
1.05686
1.05334
0.99682
0.992236
0.987482
0.992236
1.01207
0.97609
0.971213
0.997299
0.991176
1.01326
1.01927
0.949091
0.94363
0.93663
0.938706
0.96817
0.997863
0.989285
0.97903
0.978912
0.972067
0.998744
0.972653
0.983992
0.977913
0.966777
0.950039
0.959049
0.934233
0.927619
0.945282
0.932802
0.938263
0.93258
0.930144
0.935623
0.94044
0.936504
0.935756
0.936176
0.93507
0.937998
0.938774
0.941039
0.937136
0.937441
0.940864
0.936796
0.931314
0.93844
0.939305
0.936925
0.93596
0.934204
0.93423
0.931785
0.932504
0.931365
0.932787
0.936023
0.931056
0.933771
0.93268
0.932327
0.929574
0.933116
0.932399
0.930416
0.930095
0.932405
0.930318
0.932683
0.927737
0.928964
0.932877
0.926951
0.9262
0.927006
0.929015
0.929965
0.924788
0.927011
1.00079
0.98989
0.985137
1.01042
1.00285
0.988886
1.07688
1.06744
1.06654
1.05393
1.07027
1.06395
1.04965
1.058
1.05341
1.04982
1.0526
1.05028
1.04836
1.01749
1.02832
1.04506
1.05086
1.01261
1.00278
0.995402
1.01167
1.0014
0.918945
0.922276
0.92809
0.924564
0.926623
0.923127
0.926474
0.931385
0.930712
0.926844
0.926652
0.927677
0.924766
0.926488
0.933636
0.940712
0.93798
0.939793
0.94403
0.93757
0.930682
0.9285
0.932384
0.938476
0.936963
0.930939
0.92646
0.931044
0.924023
0.92503
0.9242
0.919835
0.925137
0.922833
0.930578
0.930703
0.932546
0.924382
0.922985
1.06864
1.06267
1.04489
1.04123
1.06793
1.06307
1.03767
1.0475
1.03791
1.04416
1.02415
1.02613
1.01753
1.04966
1.05182
1.04546
1.04319
1.02575
1.1029
1.09863
1.08565
1.06006
1.08008
1.06503
1.07179
1.09161
1.08337
1.07258
1.07019
1.07728
1.10486
1.08685
1.07617
0.939126
0.941363
0.942419
0.940898
0.938924
0.938769
0.937179
0.941648
0.939169
0.940627
0.929688
0.930035
0.931914
0.935176
0.935411
0.933368
0.931028
0.932605
0.949099
0.941161
0.95078
0.951182
0.954492
0.945094
0.945063
0.944149
0.960496
0.953015
0.953831
0.949875
0.94226
0.935093
0.951668
0.947265
0.946477
0.950356
0.951973
0.953278
0.945979
0.950382
0.954528
0.951422
0.950136
1.03353
1.01721
1.01526
0.976741
0.978762
0.978409
0.959408
0.959775
0.95969
1.00045
1.01107
1.00347
0.99711
0.988005
0.983117
0.979262
0.984291
0.98695
0.994934
0.990558
0.966123
0.957839
0.962605
0.95436
0.94678
0.961741
0.969236
1.061
1.05482
1.05422
1.05559
1.03408
1.04382
1.10775
1.0933
1.10736
1.08474
1.07152
1.10051
1.1246
1.12998
1.12666
1.12067
1.11312
1.11494
1.10567
1.11134
1.11198
1.09347
1.07478
1.07264
1.06959
1.05934
1.05544
1.02313
1.07523
1.06602
0.929776
0.926065
0.93452
0.932105
0.927888
0.925524
0.928781
0.923783
0.929439
0.927834
0.931014
0.930442
0.968425
0.95666
0.950703
0.969744
0.956992
0.950433
0.965125
0.968074
0.95526
0.978199
0.98713
1.00066
0.977144
0.965368
0.993417
0.997089
0.975757
0.981676
0.991374
0.97786
1.00677
0.999932
0.951235
0.960695
0.952725
0.940939
0.959323
0.952733
0.962436
0.967688
0.963536
0.960994
0.978057
0.984293
1
0.987948
0.990399
0.979167
1.01511
1.14901
1.14092
1.15259
1.0893
1.07653
1.08628
1.09313
1.09438
1.13025
1.11966
1.09705
1.12538
1.09864
1.08718
1.0924
1.11554
1.10031
1.0951
0.932685
0.93833
0.934123
0.938168
0.944713
0.930597
0.943043
0.94001
0.943973
0.929522
0.927365
0.948882
0.945486
0.931949
0.930525
0.942525
0.941234
0.947486
0.948158
0.945207
0.942936
0.946085
0.947764
0.950963
0.951633
0.949584
0.947331
0.948848
0.947493
0.949494
0.939875
0.931999
0.932095
0.930256
0.941142
0.9409
0.940919
0.941376
0.943374
0.945011
0.932278
0.931507
0.935176
0.930559
0.926038
0.936508
0.930091
0.926858
0.934214
0.939309
0.938293
0.935075
0.934139
0.934315
1.02024
1.02288
1.03973
1.04279
1.03791
1.00438
1.00217
1.101
1.0952
1.07455
1.07278
1.06015
1.12357
1.11192
1.13376
1.13316
1.13788
1.1344
1.17843
1.16888
1.16961
1.1571
1.1393
1.16367
1.15471
1.16085
1.14716
1.13509
1.13371
1.14196
1.13317
1.14131
1.13009
1.11812
1.13041
1.11406
1.00495
1.01207
0.975125
0.995708
0.995082
0.998865
1.00228
0.988601
0.974461
0.987328
0.976274
1.00687
1.01257
1.08659
1.06692
1.0623
1.0521
1.04012
0.973901
0.975508
0.989059
1.0147
1.01371
0.990891
0.994667
1.0005
1.00109
1.001
0.996566
0.987132
1.00211
0.998206
1.00938
1.00808
0.937926
0.936618
1.11175
1.11692
1.13614
1.16236
1.15549
1.16774
1.12901
1.1265
1.13784
1.13634
1.16831
1.16924
1.13956
1.15622
1.16127
1.16225
1.14682
1.15629
1.13626
1.13709
1.122
1.12547
1.13699
1.14452
1.14829
1.12514
1.14562
1.13229
0.989272
0.985
0.968194
0.968635
0.966047
0.953646
0.95131
0.949112
0.948199
0.948272
0.949061
0.948137
0.944287
0.958067
0.955583
0.955833
0.957998
0.956539
0.956763
0.952772
0.955096
0.958252
0.959765
0.957754
0.955511
0.948702
0.951903
0.950541
0.948678
0.951289
0.952358
0.953735
0.952267
0.961779
0.960189
0.956519
0.962517
0.95617
0.956559
1.1377
1.12624
1.12093
1.09201
1.13915
1.1169
1.1241
1.15727
1.10853
1.1369
1.1164
1.06058
1.05511
1.03867
1.05829
1.04525
1.04471
1.06838
1.07184
1.0474
1.0242
1.01009
1.03807
1.02365
1.00206
1.01088
1.09312
1.07996
1.0828
1.09042
1.07981
1.09179
1.12789
1.1321
1.11103
1.09958
1.10782
1.09556
1.05852
1.03727
1.06638
1.0704
1.0652
1.05768
1.06577
1.04724
1.08416
1.07122
1.10453
1.10324
1.02583
1.03653
1.03188
1.01049
1.00951
0.997572
1.00906
1.04042
1.02258
1.03331
1.01232
1.00739
1.01169
1.0376
1.04598
0.938916
0.941503
0.937497
0.937337
0.94106
0.937392
0.938479
0.943039
0.939817
0.940962
0.936673
0.933936
0.934985
1.16022
1.15125
1.13642
1.14675
1.08033
1.10066
1.07936
1.07172
1.00884
1.00753
1.19675
1.19812
1.18128
1.20943
1.20995
1.19489
1.18465
1.19133
1.18766
1.19089
1.18265
1.18469
1.1806
1.18902
0.956285
0.954457
0.951087
0.953179
0.94613
0.943671
0.948097
0.94741
0.948273
0.97618
0.970748
0.975394
0.964909
0.96
0.961567
0.962187
0.96414
0.96324
0.964592
0.960963
0.964693
0.946848
0.944458
0.948066
0.943878
0.938916
0.937443
0.936988
0.934379
0.942961
0.938449
0.93577
0.944468
0.941637
0.939112
0.939955
0.955749
0.951413
0.96182
0.956419
0.955791
0.963909
0.964881
1.16527
1.15855
1.12366
1.12388
1.13214
1.10759
1.13532
1.13033
1.14334
1.11891
1.11183
1.11572
1.15502
1.14119
1.14815
1.15295
1.23582
1.22878
1.23074
1.23118
1.15838
1.13694
1.13278
1.17018
1.20929
1.21495
1.21844
1.20613
1.22607
1.21236
1.2073
0.935906
0.942813
0.930671
0.93542
0.937969
0.941794
0.936243
0.940933
0.933877
0.937984
0.931834
0.934515
1.07167
1.06829
1.02047
1.02246
1.01786
1.00672
1.05285
1.07052
1.06616
1.04829
1.0334
1.00788
0.998684
0.987711
1.00016
1.00606
1.01108
1.05097
1.04802
1.06156
1.01877
1.03249
1.01482
1.01251
1.02256
1.03356
1.01971
1.01296
1.06273
1.07439
0.999398
0.982992
1.00648
1.00173
1.00632
1.00437
1.0071
0.987491
0.980976
0.948224
0.938839
0.951137
0.94261
0.944593
1.18955
1.17389
1.16937
1.19927
1.1969
1.18744
1.19663
1.18627
1.17121
1.19028
1.22509
1.21383
1.19773
1.21161
1.19328
1.215
1.20909
1.19585
1.21138
1.19734
1.13424
1.13979
1.13269
1.12315
1.1441
1.13471
1.14554
1.15234
1.1554
1.13881
1.16136
1.1684
1.12893
1.08977
1.10538
1.11583
1.08013
1.10073
1.11176
1.11493
1.11935
1.12462
1.07419
1.10412
1.09206
1.09582
1.07455
1.09913
1.10748
1.23375
1.22659
1.21596
1.22005
1.08084
1.06742
1.09095
1.08934
1.08674
1.10411
1.09109
1.13259
1.12407
1.12151
1.13179
1.09337
1.13895
1.13838
1.18684
1.19886
1.20515
1.19999
1.18505
1.15771
1.14687
1.18251
1.19422
1.16906
1.15236
1.20013
1.20327
1.21939
1.21559
1.17624
1.18608
1.21262
1.20273
1.19144
1.1936
1.18315
1.18072
1.19016
1.17613
0.958412
0.955513
0.959662
0.95051
0.94922
0.950846
0.947695
0.95283
0.961608
0.962951
0.955892
0.96055
0.960166
0.956847
0.959675
0.979544
0.974055
0.970322
0.973838
1.00407
1.00998
1.03677
1.02341
1.0282
1.0502
1.03844
1.01541
1.04153
1.02319
1.0416
1.04954
1.02724
1.02232
1.23332
1.22166
1.24078
1.23817
1.23185
1.23719
1.22935
1.24228
1.24943
1.23689
1.22773
1.23629
1.22354
1.23602
1.2292
1.23515
1.21043
1.23136
1.23287
1.22368
1.22787
1.23932
1.21204
1.22102
1.232
0.955658
0.955574
0.95489
0.943984
0.95129
0.975018
0.989132
0.972341
0.992237
0.983672
0.972907
0.972969
0.972748
0.982454
1.02774
1.04725
1.06015
0.965734
0.960212
0.96462
0.96507
0.971047
0.957836
0.973356
0.965961
0.972142
0.962468
0.965976
0.965479
0.964803
0.966374
0.961215
0.951848
0.953206
0.95464
0.956597
0.957555
0.963695
0.956686
0.978454
0.986176
0.983375
0.981679
0.981085
0.988539
0.995089
0.990281
0.987163
0.969496
0.971765
0.9794
0.975396
0.982417
0.974913
0.969052
0.968013
0.977416
0.976545
0.980289
0.973036
0.970035
0.964118
0.962004
0.969961
0.962889
0.960822
0.96854
0.968012
0.963926
0.967975
1.07567
1.1273
1.03171
1.04148
1.14754
1.11339
1.13922
1.14347
1.12739
0.943584
0.946197
0.959186
0.965514
0.960617
0.966247
0.961027
0.960823
0.958465
0.958542
0.95208
0.966115
0.959551
0.957562
0.947685
0.959415
0.953844
0.952089
0.951667
0.944528
0.955499
1.19428
1.20564
1.21676
1.2079
1.1928
1.19299
1.1964
1.02293
1.01781
1.00313
0.978708
0.98183
0.978662
0.986965
0.983866
0.966953
0.970158
0.974703
0.970181
0.977046
0.968471
0.96769
0.971779
0.97233
0.9881
0.976311
0.974366
0.985852
0.986297
0.984404
0.975867
0.965943
0.976786
0.978513
0.979367
0.96602
0.960412
0.966359
0.958139
0.956216
0.963418
0.961755
0.961691
0.964842
0.964062
0.965622
0.958209
0.959967
1.04885
1.06185
1.05705
1.074
1.07233
1.06969
1.07992
1.078
1.08111
1.08658
1.20864
1.23205
1.22283
1.22126
1.20854
1.22694
1.21685
1.20438
1.218
1.21108
1.2297
1.21874
1.23472
1.22685
1.22251
1.20317
1.21615
1.22174
1.21701
1.16867
1.1763
1.17046
1.163
1.14881
1.18882
1.18219
1.15597
1.1421
1.17793
1.18294
1.15764
1.15867
1.15434
1.15042
1.18628
1.1875
1.18648
1.17211
1.164
1.16623
0.938027
0.9363
0.937469
0.93782
0.942032
0.935624
0.94193
0.941359
0.943638
0.944965
0.939227
0.940061
0.940939
0.939039
0.948375
0.937644
0.941752
0.949714
0.951398
0.954322
0.955717
0.942208
0.949577
0.945782
0.949636
0.943214
0.947673
1.11846
1.10798
1.09396
1.07531
1.06742
1.06315
1.06018
1.08404
1.11272
1.13064
1.12324
1.09572
1.05899
1.07436
1.04837
1.04413
1.07854
1.05688
0.99452
0.981878
0.985059
0.970585
1.18844
1.18123
1.18031
1.15836
1.12844
1.13258
1.12361
1.14881
1.14827
1.15389
1.14608
1.15362
1.18338
1.19215
1.19299
1.18174
1.17764
1.16518
1.19223
1.17814
1.1868
1.16075
1.17184
1.16161
1.15691
1.16555
0.972141
0.965429
0.966201
0.965978
0.965049
0.959777
0.971178
0.96385
0.957622
0.984524
0.971761
0.962224
0.968693
0.973
0.965161
0.954849
0.974385
0.965029
0.970594
0.964591
0.954446
0.954938
0.953382
0.953413
0.952467
0.957379
0.961349
0.96322
0.96433
0.966336
0.967147
0.967006
0.966433
0.960055
0.96183
0.977117
0.977606
0.983303
0.973842
0.981509
0.975151
0.97318
0.981674
0.995731
1.17134
1.17278
1.16493
1.17915
1.17245
1.18036
1.18012
1.18851
1.16526
1.1768
1.1655
1.16126
1.16532
1.18324
1.20169
1.16093
1.15776
1.16985
1.16939
1.17689
1.18094
1.20052
1.19221
1.19549
1.19704
1.19288
1.1898
1.195
1.20872
1.20365
1.2002
1.1997
1.18851
1.18233
1.19259
1.1838
1.19389
1.09869
1.12659
1.13449
1.13983
1.12611
1.13274
1.12793
1.12747
1.10744
1.13471
1.13807
1.13801
1.14278
1.14602
1.10906
1.08653
1.15058
1.15048
1.0098
0.998278
1.01266
1.0032
1.00365
1.00713
1.00674
1.01792
1.02449
1.06546
1.05451
1.0653
1.07349
1.07917
1.07456
1.08111
1.08259
1.07362
1.08129
1.09004
0.935004
0.933346
0.942219
0.940352
0.942851
0.946563
0.946879
0.946202
0.951383
0.946469
1.03838
1.04559
1.04996
1.06607
1.03561
1.02254
1.04184
1.05985
1.05529
1.06039
1.01947
1.03259
0.952002
0.947053
0.960422
0.945122
0.95223
0.954618
0.950918
0.96704
0.979171
0.978789
0.975986
0.969393
1.16844
1.16417
1.15917
1.15573
1.14765
1.14735
1.16267
1.16038
1.03235
1.02437
1.01292
0.949553
0.943358
0.947105
0.950169
0.948232
0.948056
0.947156
0.94721
0.94251
0.946394
0.944354
0.949724
0.945994
0.950061
0.951889
0.944734
0.946682
0.951607
0.948774
0.930116
0.927332
0.931325
0.927754
0.929368
0.938835
0.931707
0.93921
0.929488
0.930018
0.926176
0.928626
0.938285
0.942511
0.945486
0.959221
0.954657
0.946075
0.947098
0.939185
0.959319
0.96276
0.95741
0.943858
0.94691
0.93764
0.931213
0.960108
0.963831
1.13378
1.15053
1.14318
1.13725
1.11742
1.12779
1.13818
1.13641
1.13189
1.11587
1.13022
1.08644
1.09539
1.08771
1.09229
1.0898
1.10085
1.09558
1.11187
1.10999
1.11027
1.12156
1.11289
1.04109
1.03305
1.04106
1.05353
1.0694
1.03255
1.07221
1.04415
1.05127
1.06482
1.04317
1.04264
1.07882
1.10346
1.09962
1.08696
1.10167
1.10068
1.10281
1.09762
1.11517
1.11826
1.12213
1.09838
1.10799
1.09241
1.10204
1.12188
1.11599
1.10862
1.11429
1.10818
1.11133
1.06733
1.07863
1.05925
1.08463
1.08638
1.06411
1.12072
1.12919
1.1281
1.11395
1.12419
1.10789
1.104
1.12471
1.10826
1.12379
1.12329
1.11021
1.10216
1.09508
1.07991
1.05568
1.05687
1.04364
1.07206
1.07459
1.04302
1.04129
1.00755
1.01749
1.02269
0.999516
1.00579
0.999838
1.01515
0.994601
1.0042
0.978535
0.995457
0.979882
0.998035
1.0064
0.99764
1.00389
0.98882
1.00117
0.995944
1.01106
1.03667
1.02267
1.0203
1.02221
1.03306
1.03758
1.03738
1.04189
1.0445
1.02996
1.03179
1.01188
1.01359
0.934341
0.939321
0.935276
0.933333
0.933268
0.9342
0.938418
0.935136
0.936897
0.938185
0.931987
0.923171
0.920613
0.923582
0.93014
0.923841
0.924075
0.922283
0.919687
0.922249
0.929298
0.924776
0.929683
0.931181
0.92274
0.920784
0.9259
0.919003
0.941278
0.939113
0.940649
0.945385
0.940784
0.938763
0.937457
0.938554
1.06673
1.08273
1.06237
1.0855
1.07628
1.09384
1.08971
0.942143
0.950565
0.941817
0.944367
0.935672
0.938069
0.937315
0.956431
0.956375
0.974855
0.963964
0.974272
0.984485
0.979021
0.974719
0.966029
0.98455
0.990402
0.984224
0.955114
0.960299
1.03636
1.04417
1.0442
1.0434
1.04379
1.03493
1.0389
1.04008
1.04066
1.03801
1.03096
1.04003
1.01631
1.01888
1.0125
1.00314
0.99146
1.00775
1.01318
1.00906
0.995779
0.997253
0.919522
0.922391
0.922019
0.919257
0.917694
0.924173
0.922199
0.923251
0.9274
0.924023
0.924421
0.921133
0.922219
1.03935
1.03583
1.02038
1.03287
1.03457
1.03527
1.02212
1.01374
1.01343
1.01254
1.01038
1.02018
1.0273
1.01104
1.02998
1.03397
1.02786
1.0328
1.01141
1.01149
1.02748
1.02561
1.02628
1.0164
0.999077
1.0041
0.995963
0.994675
1.00797
1.01043
1.00737
0.988963
0.942119
0.968453
0.963182
0.959036
0.951332
0.956501
0.96121
0.963156
0.964695
0.965669
0.954857
0.950023
0.947519
0.946369
0.938308
0.946377
0.92648
0.941127
0.937592
0.942174
0.932436
0.935781
0.924894
0.925649
0.92475
0.919496
0.928344
0.92514
0.923634
0.921239
0.924923
0.924554
0.925634
0.930726
0.933467
0.92816
0.925474
0.925775
0.922392
0.925202
0.924124
0.922483
0.920264
0.923239
0.92536
0.973963
0.984086
0.971516
0.982043
0.991334
0.994585
0.994318
0.988409
0.991395
0.98668
0.92981
0.938031
0.942766
0.924962
0.930387
0.926173
0.928769
0.959596
0.951248
0.957699
0.966839
1.05488
1.06781
1.06083
1.05432
1.04805
1.05144
1.04736
1.03724
1.03541
1.03151
1.04
1.1625
1.17157
1.15503
1.16201
1.17302
1.183
1.16488
0.968321
0.972879
0.97114
0.968294
0.969481
0.97486
0.971606
0.971059
0.968822
0.9746
0.965237
0.968393
0.973216
0.975543
0.965703
0.956448
0.962985
0.954824
0.956499
0.964047
0.996262
0.997459
1.02158
0.997504
1.00041
0.988208
1.01749
0.998785
0.964061
0.963455
0.962212
0.957911
0.959508
0.959263
0.964153
0.964271
0.971451
0.965451
0.965235
0.961604
0.971278
0.964287
0.884742
0.89082
0.890579
0.895537
0.889977
0.894495
0.894259
0.914259
0.918484
0.918549
0.91725
0.918129
0.934467
0.923722
0.926249
0.918849
0.919127
0.913767
0.8952
0.909056
0.898284
0.911442
0.926649
0.927181
0.918939
0.91113
0.920058
0.920733
0.920091
0.916922
0.985153
0.989772
0.980623
0.994377
0.978902
0.97911
0.959588
0.966605
0.97017
0.966073
0.989833
0.988134
1.00717
1.00207
1.00973
1.00912
1.00423
1.00294
0.993557
1.01277
1.00816
0.998131
0.997757
0.995651
0.996738
0.989386
0.919542
0.91954
0.917125
0.91763
0.916072
0.917904
0.916989
0.915005
0.91273
1.01491
1.02097
1.0052
1.01262
1.00579
1.01951
1.02279
1.02391
1.02522
1.02268
1.01399
1.0106
1.01335
1.0243
1.02283
0.943582
0.945027
0.939009
0.940492
0.942991
0.945412
0.956315
1.01146
0.93185
0.935048
0.939757
0.940012
0.936081
0.93397
0.929888
0.938091
0.936505
0.922965
0.925692
0.931274
0.929046
0.92726
0.928486
0.923467
0.931853
0.929854
0.931726
0.932248
0.93384
0.931844
0.934454
0.931297
0.930957
1.01885
1.02405
1.0108
1.024
0.998586
1.00422
1.0023
1.00525
1.01347
1.01584
1.00758
0.919979
0.921373
0.92232
0.923941
0.921598
0.92441
0.921561
0.925518
0.920655
0.922412
0.923232
1.03836
1.03223
0.949374
0.946971
0.940371
0.975303
0.968682
0.953617
0.9614
0.967088
0.960446
0.955823
0.968817
0.978146
0.977057
0.966731
0.960328
0.971846
1.088
1.08519
1.06468
1.08415
1.07938
1.08171
1.06458
1.05849
1.08505
1.06918
1.09132
1.07552
1.08712
1.07349
1.09387
1.0806
1.08616
1.07601
1.08029
1.07344
1.08112
1.07858
0.990546
0.992697
0.976967
0.942703
0.945957
0.942779
0.94395
0.942879
0.946
0.946935
0.944787
0.9435
0.927532
0.923776
0.932739
0.934007
0.930832
0.934388
0.936575
0.930266
0.932276
0.93261
0.932349
0.930136
0.93383
0.931236
0.927666
0.927982
0.92959
0.929791
0.926766
0.929062
0.930097
0.933891
0.933634
0.932529
1.15656
1.12471
1.14654
1.1268
1.1366
1.15047
1.1527
1.13871
1.131
1.15739
1.14869
1.15792
1.14891
1.1466
1.12955
1.12519
1.11592
1.11861
0.933919
0.926908
0.936247
0.933282
0.933893
0.933942
0.937974
0.937595
0.936251
0.938589
0.935986
0.936074
0.971398
0.983814
0.993845
0.994906
1.00852
1.00272
1.00475
0.992016
0.987758
0.981704
0.977832
0.976482
0.971816
0.974617
0.946986
0.952294
0.952317
0.953899
0.948266
0.944017
0.952288
0.953767
0.953941
0.956833
0.953243
0.951649
0.953354
0.960831
0.952506
0.961155
0.961678
0.954379
0.956183
0.955291
0.955506
0.960453
0.957775
0.960342
0.964593
1.07755
0.946149
0.944356
0.946681
0.945211
0.939578
0.944145
1.07555
1.12836
1.08898
1.09738
1.10003
1.12459
1.12689
1.10555
1.10979
1.12311
1.16127
1.16573
1.17291
1.16478