/*--------------------------------*- C++ -*----------------------------------*\
| =========                 |                                                 |
| \\      /  F ield         | OpenFOAM: The Open Source CFD Toolbox           |
|  \\    /   O peration     | Version:  v1612+                                |
|   \\  /    A nd           | Web:      www.OpenFOAM.com                      |
|    \\/     M anipulation  |                                                 |
\*---------------------------------------------------------------------------*/
FoamFile
{
    version     2.0;
    format      ascii;
    class       volScalarField;
    location    "166";
    object      p;
}
// * * * * * * * * * * * * * * * * * * * * * * * * * * * * * * * * * * * * * //

dimensions      [0 2 -2 0 0 0 0];

internalField   nonuniform List<scalar> 
17111
(
0.019314
0.0746178
0.0732248
0.0707685
0.0777231
0.0768967
0.0797591
0.0802244
0.0755965
0.0749816
0.0789621
0.0810002
0.0789902
0.0661371
0.0625716
0.0684996
0.0663108
0.0677686
0.0666097
0.0682413
0.0709694
0.0634802
0.0612466
0.0613581
0.0605174
0.0679409
0.0676391
0.066553
0.0713231
0.0431713
0.0481524
0.0400171
0.0437013
0.0446515
0.0436408
0.0445057
0.0426042
0.0435525
0.04503
0.0454115
0.0471743
0.0511927
0.045398
0.0462746
0.0426579
0.041065
0.0461806
0.0498143
0.0450242
0.0133277
0.015104
0.011558
0.0125933
0.0127944
0.0148772
0.0132674
0.0115091
0.00861009
0.00667974
0.0124132
0.00696368
0.00535723
0.00804647
0.00532176
0.0127333
0.0798543
0.0806128
0.0784373
0.0791089
0.0782839
0.0794481
0.0780619
0.0774216
0.078345
0.0767567
0.0666547
0.0668221
0.0647683
0.0668073
0.0697367
0.0716819
0.0729905
0.0688471
0.0648923
0.0697238
0.0709979
0.0662507
0.0690963
0.0694439
0.0716267
0.0673964
0.0675187
0.0675023
0.0675054
0.0673385
0.0670003
0.0725185
0.0757108
0.0762158
0.0787526
0.0767112
0.0741044
0.0763704
0.0776847
0.0770535
0.0774022
0.0778657
0.00453868
0.00251583
0.00365038
0.00907548
0.00300324
0.00532708
0.00792471
0.00266714
-0.00011116
0.00731643
-9.73814e-05
0.00620051
0.00559866
0.00848237
0.00720642
0.0647919
0.0636828
0.0604635
0.0530977
0.0646947
0.0641376
0.0640565
0.0606913
0.0632613
0.0642339
0.0597579
0.0646008
0.0716658
0.0655941
0.0628266
0.0619867
0.0644866
0.0701157
0.0623369
0.0666331
0.071081
0.0669392
0.0362714
0.0375095
0.03306
0.0365699
0.0366181
0.0348001
0.0354155
0.0396225
0.0390975
0.0411128
0.0306673
0.0312896
0.0383175
0.0331563
0.0236501
0.0271168
0.0243798
0.0368517
0.0377955
0.0277262
0.0345402
0.0226957
0.0240221
0.0263572
0.0350963
0.0305831
0.0254707
0.0324872
0.0298045
0.0298884
0.0338601
0.0221645
0.0262227
0.0250691
0.0213256
0.0251699
0.0303112
0.0241533
0.0189175
0.0224626
0.0232493
0.0184144
0.0271094
0.0242999
0.0243148
0.0241773
0.0238566
0.0199404
0.0232156
0.0172936
0.0238001
0.0240291
0.0268831
0.0240915
0.0313489
0.0306523
0.0305571
0.0293369
0.0271989
0.0307643
0.0303758
0.0333086
0.0363898
0.0298312
0.0262699
0.0357215
0.037983
0.0313898
0.032775
0.0309828
0.027525
0.00517879
0.00161636
0.00544647
0.00319682
0.00382779
0.00259162
-0.000357348
0.00433324
0.0031736
0.0023571
0.0059451
0.00419609
0.000792701
0.000576146
0.00164645
0.00204154
-0.000640488
0.00226888
0.0324966
0.0264778
0.03507
0.0331308
0.0308217
0.0311793
0.0350108
0.0330884
0.0357798
0.0346689
0.0356293
0.0329585
0.0330904
0.0329425
0.0336218
0.0301123
0.0327663
0.0285852
0.0332385
0.0369774
0.0347475
0.0296533
0.0168227
0.0122107
0.0168795
0.0164775
0.0178995
0.0181228
0.016959
0.0235003
0.0155103
0.0231107
0.0232422
0.0186315
0.0214676
0.0167344
0.0107063
0.0184093
0.0171873
0.0154487
0.014563
0.00796659
0.0164495
0.0520438
0.052714
0.0488215
0.0464208
0.0505536
0.0463236
0.0515561
0.0526816
0.0489424
0.0560038
0.0555475
0.0588996
0.0535173
0.054505
0.0533718
0.0550654
0.0567723
0.0551951
0.0745228
0.0682166
0.0759921
0.0771061
0.0731099
0.0714356
0.0726595
0.0692747
0.0769525
0.0796642
0.0759134
0.0739292
0.0699725
0.0748616
0.0671998
0.0689505
0.0732969
0.0573803
0.054868
0.0572783
0.0541097
0.05163
0.0610285
0.0581415
0.0614047
0.0572086
0.0537855
0.0456112
0.056587
0.051505
0.058207
0.0573526
0.0639075
0.042704
0.0491111
0.0461548
0.0516872
0.0393447
0.0389944
0.038892
0.0387045
0.0490916
0.0499877
0.0443566
0.0406836
0.0474228
0.0406318
0.0478359
0.046269
0.0452009
0.0469964
0.0474473
0.0432104
0.0406965
0.0362515
0.039919
0.023748
0.02376
0.0233763
0.0252421
0.0227573
0.0266255
0.0283833
0.0227064
0.0270434
0.0302984
0.0283031
0.0241951
0.0262259
0.0313355
0.0317433
0.0298686
0.0237813
0.0222065
0.0311473
0.0272499
0.0337422
0.028053
0.0282799
0.0333429
0.0488836
0.0440773
0.0442488
0.0466077
0.0418909
0.0436483
0.0393864
0.0444545
0.0459388
0.0424881
0.0422376
0.0433695
0.0447296
0.044745
0.0405581
0.0397856
0.043682
0.0408075
0.0434884
0.0422385
0.0435997
0.041632
0.0403808
0.0423482
0.0434101
0.0459228
0.0464909
0.0448355
0.0422217
0.0469222
0.0410146
0.0400243
0.0428623
0.0442156
0.0451262
0.0450584
0.0396882
0.0443096
0.0445712
0.0457297
0.0502303
0.0411394
0.0462072
0.0341073
0.0343499
0.0284531
0.0317575
0.0358793
0.0353744
0.0335207
0.0322274
0.0355721
0.0381092
0.0336037
0.0345293
0.0322851
0.0365013
0.0386304
0.00845523
0.0117963
0.00638686
0.00699359
0.00573143
0.00459467
0.00344847
0.0057944
0.00347429
0.00458647
0.00289019
0.00624874
-0.00115391
-0.00131059
0.000895727
0.00299304
0.0745565
0.0780494
0.0798355
0.0789706
0.0790707
0.0232007
0.02336
0.0158815
0.0226926
0.020086
0.0198412
0.0276571
0.0306641
0.0253096
0.0248152
0.0227124
0.0223972
0.0228512
0.0222661
0.0272634
0.0269656
0.028494
0.021406
0.0232862
0.0268371
0.0447637
0.0472577
0.0444399
0.0432746
0.0370632
0.0389298
0.0365561
0.078303
0.075702
0.0838646
0.0783889
0.072094
0.0725625
0.0634061
0.066824
0.0612726
0.058457
0.0556535
0.0611214
0.0597724
0.0602244
0.0599706
0.058515
0.0663892
0.0610868
0.0597252
0.0661465
0.0587964
0.0648521
0.0622525
0.0580156
0.023526
0.0241442
0.0153985
0.0260725
0.0206003
0.0308204
0.0258901
0.0723749
0.0732198
0.0756817
0.0736024
0.0653267
0.071144
0.0699664
0.0695022
0.069654
0.0755017
0.0726564
0.011586
0.0133555
0.0167501
0.0119558
0.0151627
0.0121544
0.009857
0.0114959
0.010725
0.013586
0.00880551
0.0130765
0.0117865
0.0128517
0.010975
0.0074846
0.0097918
0.00848663
0.00883069
0.0073169
0.00586654
0.00198835
0.0092818
0.0104999
0.00216908
0.0111182
0.0263744
0.0241523
0.0252419
0.0284065
0.0265912
0.0205248
0.0212528
0.021727
0.0204973
0.0279488
0.0274676
0.0287554
0.0219818
0.0196296
0.0213331
0.0221283
-0.00369532
-0.000128354
0.00184128
0.00449831
5.99144e-06
-0.00259469
0.00030964
0.00115385
0.00452422
0.00137397
0.00254927
0.0040471
0.00459362
0.00580771
0.00255458
0.0042333
0.00686159
0.0048241
-0.00124752
0.0065969
0.0429741
0.0366984
0.0373327
0.0378916
0.0382946
0.0334219
0.0402667
0.0312416
0.0330965
0.038681
0.0384376
0.0421883
0.0335799
0.0353692
0.0414725
0.0419863
0.0362769
0.0341083
0.0354954
0.0430756
0.032927
0.03534
-4.14199e-05
0.00634471
0.00463379
0.00165665
0.00416765
0.00747827
0.00188395
0.00551251
0.00740542
0.00906681
0.00968005
0.00932425
0.00819012
-0.00244392
0.00272618
0.00126627
0.0720839
0.0714216
0.0694614
0.069715
0.0720328
0.0732651
0.0704518
0.072097
0.0716963
0.0706518
0.0664809
0.0632182
0.0705405
0.0671522
0.0260941
0.0310119
0.0245169
0.0226717
0.0244782
0.0244699
0.0302615
0.0245022
0.0243874
0.0195872
0.0244518
0.0172697
0.0194019
0.020601
0.0158946
0.0153998
0.0226779
0.0165384
0.0166755
0.0172104
0.0244151
0.0256093
0.0268332
0.0314005
0.0291256
0.0374337
0.0391331
0.0288583
0.0349076
0.034627
0.0367469
0.0345253
0.0305193
0.033161
0.0140579
0.0150785
0.0154557
0.0133634
0.012053
0.0103738
0.00960366
0.0106429
0.00868763
0.0123575
0.0183536
0.00770219
0.00993176
0.0152054
0.0123377
0.00439135
0.0119454
0.0129275
0.0111604
0.0426454
0.0417501
0.0405739
0.0369285
0.0420967
0.0456719
0.0401966
0.0429923
0.0426367
0.0441259
0.0411353
0.0425742
0.041214
0.0396832
0.0442968
0.0379014
0.0426152
0.0397322
0.0477046
0.0150892
0.0167751
0.0180917
0.0162577
0.0116795
0.0160419
0.0167771
0.0121768
0.0137142
0.0133826
0.0143434
0.0457918
0.0469154
0.0500788
0.0481673
0.051883
0.0458842
0.0429021
0.0460846
0.0487468
0.0448312
0.0447194
0.0464392
0.0440576
0.0395385
0.040252
0.0408234
0.0467532
0.0413605
0.0361805
0.0453647
0.0388979
0.0361245
0.0106069
0.00831291
0.00585078
0.0091201
0.00998056
0.0106244
0.0114915
0.00971191
0.00206944
0.00999934
0.000112246
0.0107687
0.00197332
0.00532242
0.0084093
0.00825546
0.00528454
-0.00186755
0.0110111
0.00661625
0.00455374
0.00665679
0.00997836
0.0251715
0.0230146
0.0224709
0.0248377
0.0237862
0.0232003
0.0218915
0.0232947
0.017642
0.0181863
0.0199322
0.0191303
0.024386
0.0266283
0.0217123
0.022322
0.0272728
0.0266637
0.0249107
0.0250549
0.00400539
0.00668323
0.00336888
0.00452775
0.00123837
0.00339897
0.00316423
0.00612151
0.00297645
0.00307226
0.00397714
0.00442152
0.00204812
0.00358052
0.00404473
0.00597573
0.0045425
0.00466503
0.00307152
0.00239477
0.00219143
0.00209746
0.00306825
0.0023804
0.00215116
0.0772281
0.0779119
0.0505341
0.051143
0.0503455
0.0783794
0.00234673
-5.27848e-05
0.00111082
0.00182179
-0.00111051
0.00765528
0.0017378
0.00672282
0.0580015
0.0630347
0.0638924
0.0699071
0.0393019
0.0433813
0.0393943
-0.000465938
0.00216906
0.00274046
0.00340418
-0.00496148
1.16296e-05
0.000640162
0.0166637
0.0194368
0.015744
0.00641222
0.00398535
0.00693067
0.0266235
0.0235697
0.0214937
0.0298646
0.0250625
0.0259086
0.0514682
0.0468186
0.0448271
0.0156149
0.0102687
0.0179367
0.00317019
-0.000856392
0.0045937
-0.00455449
-0.000988661
-0.006351
-0.00366881
0.00318835
0.0292857
0.0238272
0.0547038
0.051043
0.0653196
0.0616995
0.0606076
0.0402309
0.0375921
0.0561337
0.052393
0.0498231
0.0559457
0.0552544
0.0640513
0.0565865
0.019046
0.0159249
0.0124581
-0.00020939
0.00659465
0.00316288
-0.00175905
-0.00307575
0.000448414
-0.0050401
-0.00337086
0.00161908
0.00388748
-0.00197794
-0.00276695
0.00132754
0.0837025
0.0797094
0.0758822
0.0348598
0.036979
0.0414746
0.0597243
0.0632885
0.0671612
0.00868922
0.00458087
0.00669415
0.0125795
0.00654798
0.0161001
0.00637769
0.010642
0.00260466
0.00119309
0.076842
0.0740932
0.0796169
0.0795894
0.0278297
0.0310811
0.0337265
0.0031784
0.0049123
-0.00386544
-0.00227603
0.000984476
-0.00174882
0.00398733
-0.00435398
-0.00508446
0.0731479
0.0761632
0.0793382
0.0286907
0.0228579
0.0192682
0.00950524
0.00968978
0.0567146
0.0617206
0.0570206
0.0702002
0.0745967
0.0775483
0.0748185
0.0739234
0.0710442
0.0387325
0.0442917
0.0448233
0.0702457
0.0660594
0.0724291
0.0395085
0.0446819
0.0400357
0.0318749
0.03036
0.00841244
0.00390236
0.00251863
0.0054739
0.0139996
0.0165736
0.00869352
0.0634964
0.0634914
0.0714572
0.000485494
0.0231241
0.0248797
0.0476359
0.0470473
0.0561104
0.0621985
0.0576247
0.0625872
0.0577715
0.00033975
0.00119054
0.0019862
0.00866033
0.00654262
0.000750921
0.00240826
-0.00398001
-0.00364041
-0.00283555
0.0125003
0.010634
-0.000332636
0.000772559
-0.00391087
-0.00180935
0.00360185
0.00260728
0.00418284
-0.000991508
0.00443356
-0.000993626
-0.00267863
0.00227352
-0.00482246
0.018085
0.0233857
0.017978
0.00379166
0.00901941
0.00170457
-0.000138705
-0.00257764
0.0051212
-0.00187273
0.00145251
-0.00459809
-0.00242793
-0.00350806
0.00419901
0.0776156
0.0802334
0.074431
-0.00329001
-0.00192327
0.00258459
0.00366041
-0.00309906
-0.000563042
0.00185073
0.00675679
0.00256492
0.0020925
0.0230887
0.0217664
0.0630912
0.0670139
0.0634527
0.0472041
0.0550099
0.0548685
0.0075772
0.00386008
0.00305481
0.000186254
0.000483344
-0.00324407
0.00645967
0.000737275
0.00596321
-0.00176355
0.0023828
-0.0010044
-0.00252891
-0.000680703
0.00554945
-0.00382788
0.00261945
0.0031288
0.00709497
0.00772976
0.00538623
0.004245
-0.00101303
0.00389503
-0.00195009
0.00106143
0.00592815
0.00432832
0.00237304
0.00156744
0.00239721
-0.00235368
4.43606e-05
0.00221571
0.00852847
0.00312731
0.0057092
0.0473644
0.0442771
0.0489489
0.0421668
0.0144739
0.00861891
0.014278
0.072202
0.0642445
0.0733344
0.0652139
0.0252484
0.022904
0.0328344
0.0299761
0.0297115
0.0231619
0.0260162
0.0171534
-0.00240954
0.00191497
0.00296959
0.00238694
0.00708441
0.00463761
-0.00343675
-0.00234046
0.00112774
0.00257103
-0.00185773
-0.00327553
-0.000496196
0.0027424
0.00124663
0.00362806
0.00515002
-0.000306183
0.0368584
0.0375388
0.0422681
0.0383146
0.0384266
0.0285905
0.0360435
0.0321488
0.0267436
0.0381989
0.0319684
0.0339163
0.0312118
0.0438876
0.0397773
0.0365623
0.0376058
0.0380238
0.0439605
0.0415556
0.0463578
0.0405069
0.0434715
0.0313939
0.0295729
0.0367709
0.0371672
0.0343918
0.0340796
0.0338092
0.0381714
0.0330229
0.0193322
0.0236331
0.0202645
0.0176597
0.0194351
0.026566
0.0312944
0.0254487
0.0260568
0.0274072
0.0281068
0.0332167
0.0215184
0.0213198
0.0216876
0.027812
0.0268227
0.0258347
0.0190488
0.0220308
0.0213193
0.0214268
0.0198661
0.0216774
0.0270758
0.0238883
0.014549
0.0215214
0.0211959
0.0187205
0.0240526
0.0180744
0.0184663
0.0218982
0.026823
0.0270434
0.0243046
0.0225439
0.0234523
0.0228832
0.0210394
0.0393414
0.0340959
0.0265127
0.0308584
0.0156771
0.0252654
0.0245903
0.0233242
0.0225412
0.0278671
0.02416
0.0186638
0.0274632
0.0221224
0.0206596
0.02473
0.062581
0.0706728
0.0629122
0.0639479
0.0683744
0.066143
0.074855
0.0691164
0.0721457
0.0791232
0.076226
0.0720847
0.0664092
0.0675719
0.0676492
0.0630602
0.0603304
0.0712689
0.0659638
0.0756803
0.0739201
0.0728062
0.00122284
-0.00122512
-0.000481542
3.50964e-05
0.00759569
0.0144273
0.0092508
0.008608
0.0185558
0.0227637
0.00859462
0.00998152
0.0049221
0.00710396
0.0146726
0.0185587
0.0186994
0.0157968
0.0169089
0.0146261
0.00605813
0.00848908
0.0130617
0.0148831
0.0170024
0.0772064
0.0754936
0.0859763
0.0853122
0.0479978
0.0490678
0.0505881
0.0387583
0.042417
0.0396423
0.0398954
0.0462616
0.038505
0.058873
0.0519252
0.0502921
0.047598
0.0436952
0.053505
0.0462043
0.0480824
0.0467947
0.0454146
0.04199
0.0302495
0.0424587
0.0397898
0.0409606
0.0407398
0.0379161
0.042954
0.044952
0.0412373
0.0509353
0.0511125
0.0389168
0.0395948
0.00909335
0.00943353
0.00482504
0.00394282
0.00301495
-0.000331902
0.00505343
0.00428536
0.0115091
0.00675574
0.00773877
0.00234181
0.00629229
0.00992024
0.0063142
0.0188725
0.0137655
0.0078497
0.00386483
0.00788685
0.0097811
0.006956
0.0152425
0.0130871
0.00939335
0.0101062
0.00924464
0.00724649
0.00949739
0.00176156
0.00298298
0.00861012
0.00010063
0.0113262
0.0013117
0.00165086
0.00503095
0.00261965
0.00342522
-0.000807187
0.00211645
0.00417759
0.00606597
-0.00105394
-0.00235988
0.00101049
-0.000850254
-0.00178724
0.00506855
0.00208383
0.00919226
0.00534125
0.00654436
0.00956648
0.00628996
0.000142415
0.000593773
0.0515987
0.0395765
0.0511846
0.0524582
0.0506254
0.0585332
0.0462865
0.0490177
0.0512092
0.0535479
0.0533919
0.0565134
0.0587664
0.0537884
0.0476514
0.0557103
0.0662228
0.0545069
0.0530293
0.0547145
0.0573768
0.061117
0.0624546
0.071506
0.0718512
0.0594806
0.0641833
0.0613147
0.0637382
0.0762444
0.0698673
0.0712879
0.0541719
0.0638199
0.0553333
0.0635409
0.0621372
0.0610983
0.069427
0.0733688
0.0633073
0.0609534
0.064584
0.0710521
0.0678678
0.0670067
0.067127
0.0667387
0.0271464
0.0199766
0.0246346
0.0126006
0.0203666
0.0175277
0.0279716
0.025582
0.0232231
0.0209161
0.0242619
0.0205525
0.0172942
0.0207915
0.0219029
0.0197864
0.016469
0.0160723
0.021698
0.0137197
0.0161588
0.0159578
0.0215715
0.0292247
0.0240512
0.0179635
0.0170621
0.0215292
0.026724
0.0202749
0.0204103
0.0214757
0.0805317
0.0805866
0.0802874
0.0777769
0.071741
0.0807259
0.0760189
-0.0011745
0.00524092
0.00236667
0.00730789
0.00391971
0.000756793
0.00345662
0.00528063
0.00161053
0.00727971
0.00726437
0.00609474
0.00714017
0.000822195
0.00164313
-0.00090372
0.0274064
0.0262605
0.0231534
0.0293198
0.0284346
0.0245806
0.0228129
0.02213
0.0235123
0.0238223
0.0216674
0.0270083
0.0285306
0.0244237
0.015708
0.0182599
0.0205152
0.0119199
0.0182692
0.0155087
0.0239532
0.0173897
0.020818
0.0249084
0.0178301
0.0208364
0.01933
0.0218794
0.0203371
0.0279939
0.0210812
0.019212
0.0222338
0.0211202
0.0229259
0.0109184
0.0211446
0.0230023
0.0187965
0.0204059
0.0177217
0.0175381
0.0200541
0.017952
0.012683
0.00214761
-8.26873e-05
0.00827052
0.00499065
0.00535162
0.00185389
-0.00199072
-0.000611259
0.000366609
0.00198799
0.00148356
0.00311422
0.00304494
-0.00123011
0.00488317
-0.00111051
-0.00331786
-0.00430747
-6.36325e-05
0.00442597
0.0123061
0.00655626
0.0157576
0.0116856
0.0153757
0.0168791
0.00984079
0.0113826
0.0143743
0.0172871
0.0183857
0.0147004
0.0129144
0.0137844
0.0150823
0.00156544
0.000308616
-0.00110259
0.00183378
-0.00149024
0.00327586
-0.000479718
1.874e-05
0.00220366
0.00409959
0.00445192
0.0508578
0.0527887
0.0625745
0.060243
0.0549244
0.05883
0.0571726
0.0487139
0.0510068
0.0590338
0.0655411
0.0581603
0.0564659
0.0651829
0.0614406
0.0553462
0.0540952
0.0586705
0.0559002
0.0519229
0.0542952
0.0539087
0.0503481
0.0603326
0.0621284
0.0612601
0.0595696
0.0638252
0.0635968
0.0627921
0.0613969
0.0549582
0.0561636
0.0449783
0.0471747
0.0528797
0.0541183
0.0554297
0.0417559
0.0400644
0.0283355
0.0279807
0.0254359
0.019873
0.0323192
0.0285852
0.0293771
0.0267922
0.0259738
0.0292406
0.0252635
0.0294927
0.0262103
0.0249145
0.0169965
0.0301105
0.0261345
0.0279996
0.02697
0.0305614
0.0282468
0.0273515
0.0230769
0.0229746
0.023885
0.0214581
0.0152438
0.0227663
0.0216571
0.0190226
0.0069342
0.000836053
0.0105484
0.00987079
0.00037216
0.00499866
-0.000231591
0.0608723
0.0689945
0.074826
0.0666582
0.0711675
0.0491662
0.0549476
0.0611567
0.0654243
0.0550443
0.0563939
0.0637045
0.0562866
0.073148
0.0701426
0.0688604
0.0671444
0.0603353
0.0617256
0.0660056
0.0656754
0.0104578
0.0058198
0.0135795
0.00926721
0.00697161
0.0173222
0.0181874
0.011648
0.0115165
0.0194622
0.0166153
0.0156456
0.00724871
0.0087186
0.0100241
0.013321
0.0105715
0.0107635
0.0194696
0.0201444
0.0141953
0.00957166
0.00851867
0.0143159
0.0126237
0.0117606
0.0155581
0.0148982
0.00640065
0.00288919
0.00431839
0.00123036
0.00896698
0.0104544
0.00951429
0.00730847
0.0089517
0.00502545
0.00999378
0.0119307
0.00906802
0.00997663
0.00414495
0.00371583
0.00702866
0.00941326
0.0365578
0.0320631
0.0318977
0.0367276
0.0347148
0.0447341
0.0427165
0.0330799
0.0348569
0.0331407
0.0434828
0.0391022
0.0370171
0.0533243
0.0477088
0.0439824
0.0424198
0.045072
0.0455165
0.0797387
0.0776465
0.0780737
0.0694606
0.0800963
0.0750952
0.073145
0.0699292
0.0646621
0.0639215
0.074219
0.0722333
0.0717889
0.0683195
0.0683913
0.0694766
0.0327335
0.0398351
0.0374179
0.0440811
0.0469881
0.0440145
0.0384191
0.0462029
0.0409374
0.0448575
0.0412297
0.0333431
0.0417046
0.044812
0.0410768
0.0298753
0.0324541
0.0379401
0.0385216
0.0381576
0.0350569
0.040956
0.0370491
0.0452505
0.0535422
0.0463795
0.043841
0.0411483
0.0440795
0.0386545
0.0374463
0.0354759
0.0387171
0.0407355
0.0413079
0.0774893
0.0786293
0.0788233
0.0852063
0.0803623
0.0736
0.0716045
0.0674965
0.0692319
0.0626028
0.0673418
0.0720591
0.0720465
0.071372
0.0744833
0.062117
0.0638933
0.0804097
0.073734
0.075177
0.0693263
0.078328
0.0761799
0.0670379
0.0676958
0.0570509
0.0587754
0.0624405
0.0571795
0.0616198
0.056857
0.0592604
0.0638272
0.0557929
0.0605
0.0629367
0.0604829
0.0592937
0.0617229
0.061003
0.046504
0.0564519
0.0564071
0.0548392
0.0566331
0.0599503
0.0559162
0.0540637
0.050749
0.0527711
0.0571279
0.0533464
0.0539842
0.0533771
0.0104489
0.0084738
0.015145
0.00363994
0.00492968
0.00883125
0.0124442
0.0081537
0.00931945
0.00940151
0.015639
0.0171594
0.00864904
0.00940647
0.00832793
0.00697444
0.0115431
0.0283187
0.0335599
0.0202
0.0256426
0.0247741
0.0844685
0.0784879
0.078623
0.0725532
0.0759226
0.0788576
0.0756517
0.0803758
0.0829511
0.0773093
0.0647983
0.0784441
0.0703626
0.0719588
0.0074674
0.00366074
0.0027842
0.00393785
0.000986279
0.000285361
0.00354546
0.00137709
0.011709
0.00169552
-0.00155781
-0.00441858
1.59387e-05
0.00232376
0.0032149
-0.00101438
0.00975947
0.00667791
0.00687738
0.00321929
0.0066792
0.00451692
0.00347315
0.00359538
0.00378734
-0.000665716
0.00705246
0.0043904
0.00699354
0.00350934
0.0368492
0.0333253
0.0302966
0.0313666
0.0336478
0.0306611
0.0301748
0.0339355
0.0327739
0.0324384
0.032043
0.0315032
0.0249331
0.0257517
0.0285822
0.0271322
0.0299374
0.0258244
0.0322446
0.029153
0.0307959
0.0357987
0.0367749
0.0369841
0.0795569
0.0786144
0.0758528
0.0736913
0.0699633
0.0712201
0.0706724
0.0747713
0.0776906
0.0719955
0.0780599
0.077582
0.0754028
0.0726832
0.0771296
0.078983
0.00147622
-0.000860521
0.00314055
-0.0031547
0.00511681
0.00570641
0.0104569
0.00690686
0.00902196
0.015041
0.0128503
0.0168842
0.0118879
0.00531498
0.0089263
0.00759772
0.0104121
0.0129548
0.00826715
0.00629638
0.0142892
0.000719572
-8.0064e-05
0.00225357
0.00554489
0.0015436
0.00325379
0.000475107
0.0562876
0.0573518
0.0582527
0.063779
0.0681239
0.0668223
0.0637734
0.036588
0.0374114
0.0309308
0.0423189
0.0468223
0.0428815
0.0406661
0.0439763
0.0380814
0.034951
0.039758
0.0373792
0.0406784
0.0366121
0.0448081
0.0405266
0.0367224
0.0344223
0.03885
0.0382084
0.0414547
0.0416694
0.0411144
0.0375579
0.0365037
0.0368999
0.042624
0.0376776
0.0384345
0.0781165
0.0763599
0.0740463
0.0751622
0.074177
0.0763137
0.0829345
0.0856981
0.0816587
0.0756408
0.0772062
0.0807338
0.0809384
0.00444185
0.00674202
0.0031506
0.00881428
0.00267547
0.0088003
0.0123667
0.00571101
0.00136259
0.00784604
0.00702319
0.00984164
0.0154764
0.00918604
0.00651443
0.00646118
0.0063034
0.00576174
0.00948265
0.0107919
0.000581862
-0.00275178
0.00128417
-0.000241925
0.00292614
-0.000124404
0.000997945
0.000690315
-0.00034123
-0.000189933
0.00764836
0.0130596
0.0106109
0.00795503
0.00834077
0.0089713
0.011464
0.00983832
0.00934315
0.0129781
0.0159887
0.0137878
0.0207939
0.00764836
0.0116977
0.0118483
0.0106094
0.0163825
0.0146652
0.0144302
0.0194274
0.0161686
0.0225446
0.0458932
0.0569648
0.0570669
0.0558196
0.0595877
0.0534082
0.0580894
0.0641663
0.0644207
0.0603393
0.064944
0.062499
0.0621466
0.0523271
0.0543206
0.061038
0.0583813
0.0604397
0.0616256
0.0594315
0.0627953
0.0444269
0.0510207
0.0454905
0.0477647
0.0493815
0.0488388
0.0455955
0.0457913
0.0525825
0.0593819
0.0577896
0.0568019
0.0536532
0.0357218
0.0283184
0.0308634
0.031179
0.0280539
0.0339357
0.0401431
0.0395358
0.0361036
0.038503
0.0287561
0.0260676
0.0332432
0.0371901
0.0385841
0.039517
0.0380107
0.0295519
0.0298773
0.0366588
0.0391961
0.0328442
0.0345925
0.0349946
0.0359702
0.0391519
0.0384053
0.0281765
0.0277454
0.0270845
0.0589941
0.0628101
0.0604633
0.0575229
0.0617376
0.0599866
0.0670068
0.0639099
0.0602814
0.0694942
0.0626278
0.0638431
0.0640848
0.0501081
0.048783
0.0455487
0.0515673
0.0504151
0.0505655
0.056581
0.0513251
0.0478995
0.0545931
0.05422
0.0548599
0.0610393
0.058725
0.059349
0.0576264
0.0577269
0.0554456
0.0519654
0.0496231
0.0472404
0.0568993
0.0544737
0.0501343
0.0565437
0.0504765
0.052728
0.0529995
0.0284119
0.0246788
0.0247535
0.0320546
0.0259847
0.0281021
0.0315842
0.0291906
0.0349749
0.0282216
0.0280714
0.031872
0.0280913
0.0279121
0.0337031
0.0338308
0.0379937
0.0345627
0.0256946
0.0244529
0.0302994
0.0305167
0.0142669
0.0139503
0.0174828
0.00583586
0.00886083
0.00923657
0.0120866
0.0111123
0.0132076
0.0178836
0.0137507
0.0231108
0.0244374
0.0209745
0.0135678
0.0135893
0.0176884
0.0138665
0.0156684
0.0150281
0.0180524
0.0203013
0.0214469
0.0469211
0.0408015
0.0373359
0.0368544
0.0381744
0.0410874
0.0455948
0.0459506
0.0467232
0.0388419
0.0421831
0.0443022
0.0509102
0.046822
0.0435423
0.0537268
0.0500654
0.0466545
0.0490463
0.0490051
0.0383003
0.0315478
0.0279329
0.028699
0.0287994
0.0239747
0.0249323
0.02401
0.029219
0.0267571
0.022744
0.0315114
0.0266489
0.0191572
0.0203547
0.019361
0.0229666
0.0217673
0.0182877
0.0150777
0.0262182
0.0238237
0.0223184
0.0225921
0.0265342
0.0242595
0.0170633
0.0142624
0.00340429
-0.000838081
-0.00131126
0.00123438
0.000816082
0.00678504
0.0024828
-0.00357174
0.000266998
0.0061875
0.00857064
-0.00149812
0.00165661
0.0079243
0.00389367
0.00590078
0.00476657
0.00375665
0.00352851
0.0082194
0.00631072
0.0069704
0.00785963
0.0118257
0.00860862
0.00777616
0.00549714
0.00799758
0.00499836
0.0177883
0.0173298
0.0114565
0.00834881
0.00777024
0.0151265
0.0139645
0.00616143
0.00730043
0.0464601
0.0461137
0.0283491
0.0389129
0.0359661
0.0339323
0.0392515
0.0319565
0.0366701
0.0309481
0.0355032
0.0347315
0.034845
0.0444613
0.0443707
0.0435354
0.0425787
0.0442794
0.0418517
0.0595886
0.0501011
0.0539241
0.0595906
0.0539665
0.0596262
0.0551709
0.0642262
0.061091
0.07204
0.0697818
0.0692574
0.0640306
0.0656474
0.067848
0.0643828
0.069389
0.066048
0.06753
0.0626121
0.0613358
0.067845
0.0659028
0.0578954
0.0654276
0.0556757
0.0561129
0.0644387
0.0629672
0.0613364
0.0535759
0.0522652
0.0626623
0.0580765
0.0570086
0.0667576
0.0617557
0.0603566
0.0594166
0.00627214
0.00606275
0.00196038
0.00462094
0.00169381
0.00269252
0.00694101
0.0102007
0.00241146
0.00304808
0.0036001
-3.25124e-06
0.00251482
0.00613627
0.00444909
0.0103594
0.00749998
0.00483753
0.00633049
0.00831891
0.00683665
0.00470955
0.00509919
0.00226394
0.000565903
0.0030266
-0.00142875
0.000700612
-0.0037162
0.00915971
0.00620565
0.00175542
0.0058097
0.00309568
0.00621198
0.00364547
0.00675018
0.00208964
0.0026155
0.00222195
0.000387432
-0.000121907
-0.00335508
0.000354442
-0.000249158
0.00356659
0.00157281
0.00179107
0.000588027
0.00322923
0.000964555
0.00244181
0.00155557
0.00158672
0.078058
0.0776602
0.0777511
0.0828349
0.0776245
0.0833472
0.0792098
0.0807999
0.0478789
0.0394387
0.0477351
0.0530841
0.0560005
0.0507329
0.0548613
0.0517776
0.0517459
0.04897
0.0503268
0.0533646
0.0676474
0.0756285
0.0774955
0.0649786
0.0663347
0.077491
0.0740768
0.0745417
0.0751283
0.08062
0.0749623
0.0729113
0.0778735
0.0784397
0.0813727
0.0776756
0.0800037
0.0462561
0.05011
0.00346438
0.00416655
0.0117228
0.0088417
0.00750197
0.00614275
0.00650659
0.00800388
0.000354772
-0.00169487
0.00268868
0.00146875
0.00272597
-0.00194599
0.0010753
-0.000240102
0.0501936
0.0503649
0.0486757
0.0471657
0.0480962
0.0542196
0.0473591
0.0511506
0.0564337
0.0551491
0.0522557
0.0507391
0.0474441
0.0402431
0.0382534
0.0385631
0.0446261
0.0448674
0.0416917
0.0412213
0.0114822
0.0151837
0.0073278
0.0092823
0.00953255
0.0168304
0.0122141
0.0127294
0.0136886
0.0132185
0.00674287
0.00966732
0.00366084
0.00304999
0.00082377
0.000307018
0.00195806
0.0365335
0.0435563
0.0419912
0.0411498
0.0433099
0.0392054
0.0463905
0.0366828
0.021952
0.0199925
0.0245924
0.0222403
0.02905
0.0263395
0.0216937
0.0230157
0.0260773
0.025583
0.0368559
0.0271263
0.0243645
0.0340382
0.0308717
0.0275257
0.0283868
0.0285047
0.027444
0.031442
0.0295227
0.0336288
0.0280679
0.0388707
0.0361365
0.0333441
0.0293967
0.0323331
0.0349797
0.0372992
0.000740685
0.00111202
0.00354955
0.00221205
0.082578
0.0787112
0.0777218
0.077257
0.080884
0.0805507
0.0791697
0.0783649
0.0329337
0.0344875
0.0358871
0.032687
0.035709
0.0244746
0.0276695
0.0357325
0.0336755
0.0335776
0.0280047
0.0310372
0.0276486
0.034523
0.0322238
0.0301755
0.0280123
0.0297472
0.0338111
0.035926
0.0337319
0.0525261
0.0565168
0.048943
0.050681
0.0555711
0.0547408
0.0559803
0.0494304
0.053953
0.054208
0.0559231
0.0533761
-0.000267405
0.00483515
0.00271672
-4.58548e-07
0.000141395
0.00625373
0.00227086
0.000583491
0.00203313
0.00555216
0.000227792
0.0153055
0.0133563
0.0150598
0.0139845
0.010387
0.0128859
0.00938564
0.00792389
0.0111209
0.00938815
0.00381325
0.00943905
0.00805935
0.0107205
0.00484087
0.00496186
0.00407524
0.00623684
0.00391261
0.00951208
0.00437048
0.0120297
0.00467387
0.00854349
0.00876066
0.0141376
0.0135797
0.0122737
0.0153157
0.00985444
0.00746944
0.0115494
0.0158562
0.00541464
0.0127021
0.0112859
0.0118667
0.0107132
0.0659048
0.0782444
0.068682
0.0712034
0.0764653
0.0735131
0.0724338
0.0713824
0.0715623
0.0251656
0.0285142
0.0283845
0.0230843
0.0232562
0.027759
0.0266926
0.0404699
0.0360138
0.0389408
0.0373204
0.0383464
0.0372325
0.0331628
0.0359607
0.0370752
0.0337294
0.0752325
0.0706756
0.0688965
0.0746176
0.0785029
0.0680167
0.0696267
0.0693479
0.0714043
0.0745609
0.0750423
0.0718471
0.0716126
0.0720934
0.0713363
0.072982
0.0717812
0.0787017
0.0771677
0.0139835
0.0163525
0.0122933
0.0140119
0.00928793
0.0184429
0.0179236
0.0446099
0.0524784
0.0507987
0.0500633
0.0474595
0.0472406
0.0458531
0.0452944
0.0485138
0.0505542
0.0497022
0.053952
0.0546803
0.053878
0.0548791
0.0493717
0.0591636
0.0596294
0.0561303
0.0511227
0.0597922
0.0587082
0.0469941
0.0453198
0.0501056
0.0576249
0.0536451
0.052032
0.0513396
0.0557666
0.0547124
0.0628733
0.0653399
0.0634645
0.0636344
0.0592387
0.0578926
0.0607973
0.0757162
0.076391
0.0741154
0.0724006
0.0774075
0.0721764
0.0736673
0.072815
0.0789436
0.0748904
0.0739185
0.0717781
0.0696977
0.0731824
0.0751071
0.0731796
0.0748088
0.0780666
0.0702703
0.073745
0.0725598
0.0553921
0.0530389
0.0484531
0.0507234
0.0533254
0.0526546
0.0468853
0.0465443
0.0694572
0.0656581
0.0722875
0.0731369
0.0767458
0.070366
0.0753344
0.0737652
0.0718265
0.0797216
0.0816099
0.0802869
0.080763
0.0417875
0.0420808
0.0434552
0.03857
0.0358755
0.041661
0.0384588
0.0369822
0.0331107
0.0344288
0.0316923
0.035335
0.030773
0.0335651
0.0290416
0.0338242
0.030969
0.0262752
0.0370005
0.034066
0.0325541
0.0358401
0.0346549
0.019161
0.0217338
0.0201102
0.0170002
0.0135317
0.0225895
0.0211726
0.0194938
0.0116141
0.0180854
0.0167685
0.0686798
0.0662318
0.0726755
0.0779187
0.0778354
0.0706497
0.0664947
0.0672141
0.0702117
0.0612733
0.0610879
0.0613319
0.0610873
0.0635613
0.0637258
0.0639896
0.0657989
0.0633957
0.0650997
0.0593765
0.0565651
0.055606
0.075176
0.082114
0.0812222
0.073618
0.0697598
0.0656411
0.0662809
0.0628984
0.0672878
0.0323262
0.028842
0.0291108
0.0311686
0.0348748
0.0337873
0.0715457
0.0702721
0.0743348
0.0767752
0.0723742
0.0696958
0.0659252
0.0636029
0.0648077
0.0554813
0.0551897
0.054297
0.0540983
0.0519199
0.0546558
0.0543761
0.0642568
0.0623112
0.0628014
0.0605506
0.0617602
0.0560204
0.0506659
0.0589025
0.0590547
0.0610884
0.0586807
0.063849
0.0615903
0.0628886
0.0597815
0.00338436
-0.000424298
-0.00038687
0.0034943
0.00444108
0.00294496
-0.000103527
0.00611927
0.0204049
0.0161415
0.0239164