/*--------------------------------*- C++ -*----------------------------------*\
| =========                 |                                                 |
| \\      /  F ield         | OpenFOAM: The Open Source CFD Toolbox           |
|  \\    /   O peration     | Version:  v1612+                                |
|   \\  /    A nd           | Web:      www.OpenFOAM.com                      |
|    \\/     M anipulation  |                                                 |
\*---------------------------------------------------------------------------*/
FoamFile
{
    version     2.0;
    format      ascii;
    class       volVectorField;
    location    "239";
    object      wallShearStress;
}
// * * * * * * * * * * * * * * * * * * * * * * * * * * * * * * * * * * * * * //

dimensions      [0 2 -2 0 0 0 0];

internalField   uniform (0 0 0);

boundaryField
{
    WALL
    {
        type            calculated;
        value           nonuniform List<vector> 
1547
(
(-0.00430323 0.00044774 0.00952862)
(-0.00347829 0.000170265 0.00940451)
(-0.0110643 0.00322704 0.0263857)
(-0.00846498 0.00263652 0.0263171)
(-0.00734177 0.0148518 0.0214814)
(-0.00883796 0.0157111 0.0219404)
(0.00159255 0.0150618 0.0263354)
(0.00283098 0.0141364 0.027827)
(-0.00564028 0.015537 0.023256)
(-0.00347719 0.0168271 0.0258545)
(-0.00395819 0.0161949 0.0260456)
(-0.00292167 0.0157673 0.0247999)
(-0.00961296 -0.00414037 0.0268738)
(-0.0114295 -0.00238574 0.0263713)
(-0.00167866 0.0173996 0.0275805)
(-0.00115227 0.0164589 0.025664)
(-0.0034295 -0.000186388 0.00963738)
(-0.00335425 3.82111e-05 0.00938132)
(-0.00167713 0.0130856 0.0266089)
(-0.00266327 0.0144214 0.0240586)
(-0.00438148 0.000643318 0.00971251)
(-0.00430427 0.000401365 0.00890634)
(-0.00493333 0.00131556 0.00996278)
(-0.00471983 0.000817364 0.00997754)
(-0.00531353 0.00171445 0.00996982)
(-0.00552519 0.0019315 0.0105219)
(-0.00968478 0.0133371 0.0190302)
(-0.0108189 0.0137243 0.019398)
(-0.00936838 0.0130513 0.0177577)
(-0.0119185 0.0134506 0.0198455)
(-0.0121806 0.0135782 0.020735)
(-0.0109591 0.0132317 0.0198669)
(-0.002035 -0.000914402 0.00806037)
(-0.00196145 -0.00109629 0.00820544)
(-0.00234266 -0.00104868 0.00853571)
(-0.00188018 -0.00109429 0.00830011)
(-0.00234348 -0.000842274 0.00777437)
(-0.00473851 0.00102292 0.010474)
(-0.00406189 0.000529348 0.0101906)
(-0.00380411 0.000589715 0.0099743)
(-0.0043615 0.000813161 0.0103908)
(-0.00495275 0.000835348 0.0106173)
(-0.00433461 0.000597108 0.00993191)
(-0.00699789 0.00290823 0.0254379)
(-0.00698059 0.00279446 0.0259366)
(-0.00795908 0.00277664 0.0247338)
(-0.00755366 0.00235146 0.0262577)
(-0.00907511 0.00260777 0.0253017)
(-0.0069644 0.00658075 0.0146459)
(-0.00758454 0.00816838 0.0159811)
(-0.00742135 0.00971401 0.0178566)
(-0.00782654 0.0114199 0.0190135)
(-0.00781746 0.0100877 0.0171274)
(-0.00730814 0.00792737 0.0162682)
(-0.00988643 0.00921817 0.0158529)
(-0.00923757 0.0119991 0.0181886)
(-0.0097233 0.0100744 0.0171352)
(-0.010259 0.0107452 0.0174503)
(-0.00911622 0.0114974 0.0178647)
(-0.00879202 0.0124919 0.0193478)
(-0.00933699 0.000810523 0.0276358)
(-0.0074434 0.000787661 0.0272952)
(-0.00661544 0.000625994 0.0278799)
(-0.00879761 0.000879312 0.0276886)
(-0.00848646 0.000513908 0.0298667)
(-0.00782759 0.00030514 0.0285079)
(-0.0022233 0.0135405 0.0259868)
(-0.00119137 0.0126577 0.0271966)
(-0.000531245 0.0119634 0.0276767)
(-0.00226716 0.0135584 0.0263091)
(-0.000724004 0.0122741 0.0272113)
(-0.00161981 0.0137955 0.0260534)
(-0.00370763 -6.41939e-05 0.00938381)
(-0.00367987 2.34961e-05 0.00943887)
(-0.00332133 -0.000224734 0.00910177)
(-0.00334857 -0.000397134 0.00874097)
(-0.00315973 -0.000405669 0.00915208)
(-0.000721858 0.00471207 0.0141366)
(-0.000353822 0.00520261 0.0147138)
(-0.000939042 0.00699765 0.0171254)
(-0.000485089 0.0042168 0.0139997)
(-0.00124363 0.00778058 0.0160377)
(-0.000983055 0.00610867 0.014326)
(-0.00289672 0.00646878 0.0256641)
(-0.00328912 0.00630749 0.0256621)
(-0.00245951 0.00882539 0.0258778)
(-0.00229229 0.00880238 0.0255569)
(-0.00301103 0.00743616 0.0257724)
(-0.00256117 0.00783935 0.0264008)
(-0.0105247 -0.00306914 0.0284049)
(-0.00674159 -0.00438935 0.0280773)
(-0.00720359 -0.00450412 0.028437)
(-0.00903835 -0.00360465 0.0289464)
(-0.00823965 -0.00334142 0.0296665)
(0.000655389 -0.0020949 0.00959379)
(-0.000110843 -0.00181511 0.00915026)
(0.000512675 -0.00189939 0.00949812)
(7.46561e-05 -0.00221003 0.00920503)
(-0.000487905 -0.00198355 0.00885406)
(-0.000527969 -0.00186243 0.00877669)
(-0.00918983 -0.00516175 0.0254966)
(-0.00846205 -0.00493599 0.0245689)
(-0.00679026 -0.0062432 0.0250725)
(-0.00584546 -0.00620428 0.0245682)
(-0.00773216 -0.00569662 0.0249831)
(-0.00388794 4.14806e-05 0.0100708)
(-0.00463557 0.000766572 0.0106342)
(-0.00419136 0.00124315 0.0288769)
(-0.00376713 0.0010616 0.0298049)
(-0.00559367 0.000512203 0.0295482)
(-0.00497842 0.000964538 0.0287666)
(-0.00293064 0.00176678 0.029707)
(-0.00519553 0.000470714 0.0298193)
(-0.00231827 0.00404293 0.0292278)
(-0.00130906 0.00460847 0.0300151)
(-0.00143562 0.00543885 0.0299159)
(-0.000868946 0.00592916 0.0293915)
(-0.00253352 0.003178 0.0287684)
(-0.00199895 0.00334992 0.0290277)
(0.000686098 0.000986703 0.0317186)
(0.000818045 0.00022733 0.0318178)
(0.00131364 0.0020397 0.031181)
(0.00179379 0.00153238 0.0312052)
(-0.000253822 -0.000224611 0.0319371)
(0.00217741 0.00286587 0.0313931)
(-0.00330652 0.00133213 0.0103596)
(-0.0034119 0.0014705 0.010769)
(-0.00365594 0.00182683 0.0109729)
(-0.00233399 0.00147217 0.0103199)
(-0.00250803 0.00171736 0.0103475)
(-0.00236269 0.0017699 0.0102941)
(-0.00267399 0.00132889 0.0104971)
(-0.00266485 0.00154219 0.0102101)
(-0.00222636 0.00190482 0.0104772)
(-0.00921037 0.00451477 0.0140148)
(-0.00961126 0.004319 0.0142266)
(-0.00863068 0.00390171 0.0138881)
(-0.00520602 0.0131582 0.024352)
(-0.00484669 0.0128218 0.0236962)
(-0.00704676 0.0131386 0.023847)
(-0.00424167 0.013292 0.0238358)
(-0.00788704 0.0123963 0.0253347)
(-0.00679963 0.0123166 0.0245717)
(0.00297053 0.00263785 0.014116)
(0.00339164 0.00516752 0.0165641)
(0.00303338 0.00603563 0.0169105)
(0.00287541 0.0035333 0.0145619)
(0.0035355 0.00378759 0.0152709)
(0.00277188 0.00485926 0.0156351)
(-0.00300212 -0.000557451 0.00861645)
(-0.00343396 -0.000405644 0.0087443)
(-0.00289601 -0.000817772 0.0083109)
(-0.00363065 -0.000239662 0.00880272)
(-0.00294836 -0.00062619 0.00836421)
(-0.00256999 -0.000903247 0.00837198)
(-0.00576679 0.00273412 0.0129373)
(-0.00649147 0.00489424 0.0142769)
(-0.00638094 0.0041393 0.0129724)
(-0.00558886 0.00221954 0.0119725)
(-0.00600896 0.00300934 0.0121881)
(-0.00616295 0.00396521 0.0138724)
(-0.00416895 0.000343963 0.00966496)
(-0.00468998 0.00101703 0.0102146)
(-0.00512411 0.00156296 0.0107254)
(-0.0039279 7.05891e-05 0.00905599)
(-0.0042665 0.000503279 0.00945487)
(-0.00478718 0.00112588 0.0101695)
(-0.00691016 0.00976213 0.0188702)
(-0.00638377 0.00625838 0.0163785)
(-0.00683275 0.0111465 0.0199385)
(-0.0063747 0.00981814 0.0197223)
(-0.00685186 0.00775282 0.0171066)
(-0.00660002 0.00776635 0.017852)
(0.00327543 -0.00330371 0.0260962)
(0.00220834 -0.00384269 0.0264172)
(0.00424203 -0.00156399 0.0268803)
(0.00286074 -0.0027031 0.0267488)
(0.00444992 -0.0022414 0.0264366)
(0.00515982 -0.000647904 0.0262967)
(0.000380567 0.0166445 0.0269899)
(0.00311981 0.0141516 0.0264312)
(0.00117038 0.0150985 0.0258004)
(0.00420325 0.0125267 0.026932)
(-0.0125928 0.00134414 0.0255527)
(-0.0122544 0.00258916 0.0255778)
(-0.0128738 0.00394967 0.0260843)
(-0.0137804 0.00340419 0.0271872)
(-0.0129516 0.00192841 0.0269132)
(-0.0126338 0.00513503 0.0257682)
(-0.012926 0.00589465 0.0261461)
(-0.013368 0.00266954 0.0257186)
(-0.0134199 0.00159246 0.0274011)
(-0.0123834 -0.000321017 0.0266846)
(-0.0130672 0.000773609 0.0279608)
(-0.0127126 -0.000688422 0.0267376)
(-0.0117994 -0.00197074 0.0275315)
(-0.0101043 -0.00373523 0.0284667)
(-0.0109823 -0.00278504 0.0256905)
(-0.00777687 -0.00491454 0.0278895)
(-0.00905882 -0.00541394 0.0282968)
(-0.0141006 0.00333625 0.0282354)
(-0.0139757 0.00167856 0.0291025)
(-0.0139033 0.000745886 0.0282193)
(-0.0150129 0.00152228 0.030149)
(-0.0151615 0.00306447 0.0288136)
(-0.0141506 0.000562934 0.030004)
(-0.00496666 0.0120195 0.0250815)
(-0.00684005 0.0120726 0.025713)
(-0.00470761 0.0121754 0.0243343)
(-0.00686544 0.0122874 0.0244915)
(-0.0080805 0.0124025 0.0260483)
(-0.00383282 0.0125388 0.0238091)
(-0.00741422 0.0101624 0.0261429)
(-0.00625001 0.011156 0.0259788)
(-0.00554426 0.0117622 0.0257545)
(-0.00685321 0.0117982 0.0245339)
(-0.00807477 0.0108436 0.0260432)
(-0.00518559 0.0121229 0.0252481)
(-0.00995769 0.00886701 0.0267049)
(-0.0115124 0.00825093 0.0252314)
(-0.011277 0.00602271 0.0261508)
(-0.0123106 0.00619476 0.0261217)
(-0.0102456 0.00886059 0.0248816)
(-0.0105168 0.00748229 0.0258233)
(0.00373528 0.00747832 0.021557)
(0.00189885 0.0102202 0.0239193)
(0.00309554 0.00810452 0.0206103)
(0.00130457 0.0103212 0.0227161)
(0.00186231 0.0105143 0.022408)
(0.00293653 0.00892603 0.021048)
(-0.00546353 0.00524897 0.0248529)
(-0.00384742 0.00616914 0.0251416)
(-0.00440261 0.00523212 0.0252229)
(-0.00449219 0.00609553 0.0252665)
(-0.00593534 0.00440105 0.0246034)
(-0.00517959 0.0045963 0.0248116)
(-0.00415794 0.00447086 0.0249499)
(-0.00569672 0.00328726 0.0250825)
(-0.00382947 0.00477469 0.0256057)
(-0.00495933 0.00350947 0.0263392)
(-0.00453623 0.00380674 0.0264324)
(-0.00504331 0.00385423 0.0247313)
(-0.00231141 0.0102224 0.0260847)
(-0.00209234 0.0110154 0.0261119)
(-0.0023525 0.0117236 0.0250781)
(-0.00212241 0.00928559 0.0261582)
(-0.00182623 0.0101448 0.0266975)
(-0.00234886 0.0114699 0.025174)
(-0.00487367 0.0115678 0.0184657)
(-0.0035791 0.010807 0.0178509)
(-0.00393846 0.010887 0.0192223)
(-0.00242273 0.00907601 0.0176373)
(-0.00240725 0.00981089 0.0167758)
(-0.00154245 0.00726934 0.0145467)
(-0.000917705 0.00464377 0.0136451)
(-0.00147326 0.00627735 0.0141331)
(-0.00091639 0.00391567 0.0127098)
(-0.00117076 0.00604717 0.0141292)
(-0.00091696 0.00505469 0.0131228)
(-0.00332146 0.00931905 0.0167057)
(-0.00426881 0.0109563 0.0178855)
(-0.00304334 0.00978167 0.0166162)
(-0.00508834 0.0113633 0.0170978)
(-0.0024525 0.00879636 0.0152449)
(-0.00580749 0.0130906 0.0187969)
(-0.00312401 0.0109058 0.0196219)
(-0.00316653 0.010798 0.0192217)
(-0.0021539 0.010592 0.0184301)
(-0.0019578 0.00970212 0.0184986)
(-0.00424721 0.0117006 0.0196788)
(-8.21924e-05 0.00264193 0.0121766)
(-0.000256741 0.0012727 0.0110817)
(0.000402677 0.0022967 0.0119064)
(4.99889e-05 0.00343484 0.0133789)
(0.000466875 0.00342379 0.0132654)
(-0.000135497 0.00190505 0.0116332)
(-0.00255553 0.000903443 0.0100025)
(-0.00192875 0.00108361 0.0101911)
(-0.00255308 0.000615735 0.0101252)
(-0.00266553 0.000689577 0.00989142)
(-0.00222497 0.00120627 0.0103526)
(-0.00180151 0.00138913 0.0102985)
(-0.00478007 0.000956269 0.00925965)
(-0.00436142 0.000531779 0.00902747)
(-0.00426891 0.00032856 0.00920069)
(-0.00488106 0.000830864 0.00949696)
(-0.00287984 -0.000354824 0.0082371)
(-0.00294222 -0.000806811 0.00837893)
(-0.00294158 -0.000676659 0.00886139)
(-0.00396001 0.000374102 0.00977042)
(-0.00397481 0.00033808 0.00922255)
(-0.0036766 0.000271529 0.00985748)
(-0.00397925 0.00022335 0.00967228)
(-0.00362591 1.0709e-05 0.00928579)
(0.00234601 0.00108551 0.0312962)
(0.00310784 0.000595395 0.0305491)
(0.00163634 -0.00109285 0.0313728)
(0.00133088 -0.000271618 0.0317848)
(0.000278359 -0.00162884 0.0316473)
(0.00328618 0.00176564 0.0309013)
(0.00401514 -0.000765847 0.028377)
(0.00266691 -0.00217936 0.0284135)
(0.00231115 -0.00164828 0.030042)
(0.00122103 -0.00273712 0.0291097)
(0.00350205 -0.000192403 0.0295612)
(0.00430901 0.000416392 0.0287284)
(-0.00358299 -0.00342177 0.0312469)
(-0.000712323 -0.00295475 0.0310427)
(-0.00181721 -0.0031878 0.0308783)
(-0.00185448 -0.00384584 0.0296106)
(-0.00562201 -0.00421105 0.0307954)
(-0.00319467 -0.00408468 0.0301925)
(0.00677784 0.00546102 0.0282881)
(0.00594268 0.00147984 0.0274237)
(0.00608623 0.00324455 0.0281489)
(0.00687661 0.00402745 0.0275502)
(0.0066215 0.00233641 0.0276706)
(0.00650886 0.00482643 0.0285491)
(-0.00249378 -0.00206404 0.0322404)
(-0.0023734 -0.00225102 0.0323136)
(-0.0012844 -0.00224002 0.0314367)
(-0.000943415 -0.00153415 0.0304579)
(-0.00435971 -0.00283543 0.0334101)
(-0.0151009 0.00336017 0.0271392)
(-0.0147827 0.00238595 0.0305196)
(-0.0145882 0.00458858 0.0276256)
(-0.0144591 0.0018702 0.0299586)
(-0.0150419 0.00405232 0.0289043)
(-0.0149177 0.00361023 0.0288201)
(-0.00329129 -0.000105379 0.0317529)
(-0.00362288 0.000477819 0.0310533)
(-0.00510637 3.10722e-05 0.0311208)
(-0.00240588 0.000831669 0.031651)
(-0.00596168 -0.000621059 0.0308248)
(-0.00494724 -0.000605088 0.0318494)
(-0.000617273 0.00193713 0.0313088)
(8.81764e-05 0.00287986 0.03079)
(0.000645788 0.00244159 0.0314456)
(0.000189987 0.00170061 0.0315966)
(0.00105929 0.00389363 0.0314125)
(-0.000894717 0.0011524 0.0313514)
(-0.00102899 0.00384652 0.0301897)
(-0.00176611 0.00274893 0.0298168)
(-0.00118739 0.00239545 0.0308466)
(-0.000246694 0.00470757 0.0306391)
(-0.000713283 0.00320935 0.0307448)
(-0.00196398 0.00177762 0.0299705)
(0.00174199 0.00883364 0.0310539)
(0.00139087 0.00679817 0.0310375)
(0.000889347 0.00743107 0.0312031)
(0.00104847 0.00939049 0.030782)
(0.00131725 0.00991043 0.0302558)
(0.000837668 0.00586664 0.0307181)
(-0.014738 0.00232696 0.0300909)
(-0.0155998 0.0045516 0.0288971)
(-0.0147589 0.00293356 0.0308907)
(-0.0152033 0.00470647 0.0285574)
(-0.0150513 0.00535449 0.0279018)
(-0.015053 0.00296891 0.0302099)
(-0.00195078 -0.000546163 0.0310824)
(-0.00340329 -0.00120676 0.0318372)
(-0.00275139 -0.00158453 0.0321879)
(-0.00448361 -0.0015403 0.0326779)
(-0.00292309 -0.00079226 0.0316851)
(-0.00142019 0.0156448 0.0256695)
(-0.00276786 0.014948 0.024195)
(-0.00348901 0.0151969 0.0238604)
(-0.000846407 0.0149643 0.0261578)
(-0.000428258 0.0167365 0.0282095)
(0.00224086 0.00476225 0.0311398)
(0.00224199 0.00627093 0.0310803)
(0.00213902 0.00799129 0.0311853)
(0.00288963 0.00572896 0.0307444)
(0.00268247 0.00911667 0.0303652)
(0.00266946 0.00705292 0.0321744)
(0.00322175 0.00367159 0.0311137)
(0.00382194 0.0064348 0.0302953)
(0.00439275 0.00774672 0.0313173)
(0.00388393 0.00482665 0.0314032)
(0.00327514 0.00503798 0.0310848)
(0.00419917 0.00656563 0.0317513)
(0.00434476 0.00244227 0.0299561)
(0.005682 0.00579804 0.0303912)
(0.00524077 0.00653039 0.0306314)
(0.00546142 0.00368961 0.0298136)
(0.00476695 0.00430763 0.0305377)
(0.00560279 0.00748339 0.0301)
(-0.000187251 0.0159244 0.0261004)
(0.00195288 0.0146364 0.0272579)
(0.000738612 0.0158264 0.0259582)
(-0.00152692 0.0153402 0.0244063)
(-0.000183551 0.0157018 0.0257246)
(-0.00226186 0.0166763 0.025602)
(-0.00129454 0.0169118 0.0266478)
(0.000567088 0.0155678 0.0257693)
(-0.00688216 0.0143198 0.022151)
(-0.00585015 0.0156568 0.0241553)
(-0.00683559 0.0153747 0.0234917)
(-0.0053388 0.0141353 0.0225269)
(-0.00729302 0.0140418 0.020201)
(-0.0067224 0.0135656 0.0217918)
(-0.00439165 0.0138239 0.0230368)
(-0.00479861 0.0140754 0.0218416)
(-0.00507949 0.0144562 0.0228431)
(-0.00679863 0.0155026 0.0242909)
(-3.98754e-05 0.00710665 0.0303067)
(-4.73662e-05 0.00794643 0.0296447)
(0.000312332 0.010079 0.0291519)
(9.98586e-05 0.00902987 0.0285857)
(0.000549465 0.00915102 0.0297598)
(0.000394567 0.00799103 0.0304762)
(-0.00208517 0.0128612 0.0273638)
(-0.00259224 0.0132814 0.0270555)
(-0.0021302 0.0120443 0.0276262)
(-0.00374656 0.014549 0.0267465)
(-0.00261908 0.014239 0.0258142)
(-0.00357278 0.0146716 0.024824)
(-0.0123104 0.00264111 0.0255524)
(-0.01313 0.00411993 0.0252404)
(-0.0131055 0.00400187 0.0252262)
(-0.00869471 0.00524682 0.0128361)
(-0.0097763 0.00811041 0.0153083)
(-0.00867567 0.00635492 0.0138748)
(-0.00821289 0.00433275 0.0124265)
(-0.0082406 0.00498068 0.0131681)
(-0.0090861 0.00701705 0.0139823)
(-0.0083559 0.00785401 0.0149128)
(-0.00901407 0.00930546 0.016623)
(-0.00823924 0.00863986 0.0160739)
(-0.00873212 0.0110123 0.0174225)
(-0.00830761 0.0106519 0.0175645)
(-0.00869001 0.0122216 0.0191235)
(-0.00978199 0.00197729 0.0288866)
(-0.00738404 0.00169732 0.0272397)
(-0.00845598 0.00133456 0.0258264)
(-0.00918025 0.00195419 0.0286114)
(-0.0072286 0.0019098 0.0278526)
(-0.00827238 0.00185942 0.0266319)
(-0.0133976 0.00954106 0.0200463)
(-0.013101 0.0122545 0.0196402)
(-0.0128663 0.011584 0.0208041)
(-0.0143455 0.00999659 0.0215881)
(-0.0129685 0.0109996 0.020436)
(-0.0135188 0.0103937 0.0207855)
(-0.0118402 0.00396096 0.0219988)
(-0.0105595 0.00322986 0.0248733)
(-0.0107023 0.00326985 0.0238216)
(-0.0114646 0.00404749 0.0230798)
(-0.0123245 0.00412294 0.0231936)
(-0.0144108 0.00915942 0.0204275)
(-0.0134324 0.0089791 0.019373)
(-0.0134415 0.0108846 0.0200392)
(-0.0136304 0.0132103 0.0191912)
(-0.0107081 0.0130018 0.0181771)
(-0.012342 0.0127175 0.0189638)
(-0.00143311 0.00335682 0.0111677)
(-0.00181541 0.00204831 0.0107928)
(-0.00180998 0.00236802 0.0105076)
(-0.00146996 0.00295623 0.0111821)
(-0.00185896 0.00194577 0.0102978)
(-0.00164813 0.00284815 0.0108172)
(-0.00752083 0.00256759 0.0124713)
(-0.00644094 0.0019543 0.0109824)
(-0.00712324 0.00195449 0.0114032)
(-0.00821086 0.00327305 0.011996)
(-0.00785377 0.00283762 0.012358)
(-0.00341961 0.000680928 0.00999455)
(-0.00284369 0.000911035 0.010067)
(-0.00347838 0.00107541 0.0104576)
(-0.00319275 0.00114696 0.0105072)
(-0.00303427 0.000722548 0.00978047)
(-0.00368585 0.000856267 0.0103118)
(0.00071717 0.00264213 0.0130485)
(0.00139733 0.00262626 0.0135577)
(0.000771614 0.00385855 0.01352)
(0.00220604 0.00306233 0.0138424)
(0.00206685 0.0054706 0.0147722)
(0.00207827 0.00468685 0.0150742)
(0.00192976 0.00422648 0.0146676)
(0.00178529 0.00300174 0.0128789)
(-0.00280026 -0.000524675 0.00799041)
(-0.0035439 -0.000236982 0.00873322)
(-0.00370183 7.5412e-05 0.00858139)
(-0.0015122 -0.00139924 0.00855754)
(-0.000592285 -0.00155184 0.00878658)
(-0.00182001 -0.00126224 0.00810834)
(-0.00128137 -0.00126938 0.00856576)
(-0.00069265 -0.00132593 0.00866692)
(-0.00116214 -0.00160295 0.00849443)
(-0.00374391 4.662e-05 0.00921138)
(-0.00442516 0.000418041 0.00929196)
(-0.00426414 0.000580165 0.00911099)
(-0.00385693 -1.01963e-05 0.00849464)
(-0.00678783 0.00210633 0.0108406)
(-0.00605149 0.00157922 0.0103793)
(-0.00592325 0.00111875 0.00988583)
(-0.0129109 0.0108405 0.0228397)
(-0.0113385 0.0127797 0.021763)
(-0.0141279 0.0110837 0.0242071)
(-0.0121375 0.0119848 0.0225453)
(-0.0144164 0.0109837 0.0256941)
(-0.012282 0.0122395 0.0231191)
(-0.0134645 0.0115537 0.0238297)
(-0.0126928 0.0123457 0.0212262)
(-0.0117518 0.0126079 0.0208302)
(-0.0132717 0.0104186 0.0227298)
(-0.0134538 0.011606 0.0208171)
(-0.0131747 0.0102775 0.0217036)
(-0.0118385 0.0120891 0.0221053)
(-0.00238199 0.00802089 0.0130342)
(-0.00359923 0.0104004 0.0143613)
(-0.00285547 0.00967328 0.0142308)
(-0.00397972 0.0109249 0.0156706)
(-0.00272774 0.00888565 0.0135736)
(-0.00497101 0.0157151 0.0224065)
(-0.00442214 0.0154157 0.0228595)
(-0.00390751 0.0142672 0.0233134)
(-0.00637651 0.0142598 0.0207789)
(-0.00670394 0.0144061 0.019595)
(-0.00882786 0.0151041 0.0213023)
(-0.00848412 0.0135215 0.0193374)
(-0.00700923 0.0140932 0.0197322)
(-0.00878129 0.0137038 0.018274)
(-0.00839155 0.0135429 0.0198887)
(-0.00763867 0.0145382 0.0207612)
(-0.00718549 0.0151528 0.0212089)
(-0.00635729 0.00334176 0.0119196)
(-0.00661911 0.00432737 0.0129627)
(-0.00588179 0.0025708 0.0111365)
(-0.00741266 0.00562047 0.0138425)
(-0.00613829 0.0031146 0.0120925)
(-0.00695211 0.0047089 0.0126415)
(-0.00802162 0.00576711 0.0133277)
(-0.0066814 0.00322962 0.011303)
(-0.00689957 0.00375763 0.0122802)
(-0.00875356 0.00699963 0.0143274)
(-0.00757235 0.00440652 0.0124478)
(-0.00753927 0.0052234 0.012986)
(-0.00229173 -0.00659376 0.0244771)
(-0.000699793 -0.00638513 0.0241546)
(-0.00737181 0.00379321 0.0117813)
(-0.00810051 0.00635066 0.0140486)
(-0.00892 0.00479758 0.0123715)
(-0.0101908 0.00720386 0.0144611)
(-0.00988899 0.00605499 0.0140551)
(-0.0109266 0.00434687 0.0246619)
(-0.00961808 0.00426559 0.0243928)
(-0.0113997 0.00412136 0.0227219)
(-0.00991685 0.00379384 0.0244196)
(-0.00598907 0.015365 0.0221834)
(-0.00549157 0.0156933 0.0221399)
(-0.00477742 0.0143663 0.0236986)
(-0.00595492 0.0158077 0.0229961)
(-0.00629806 0.0152238 0.0216222)
(-0.00659947 0.014795 0.020519)
(-0.00527656 0.0149284 0.0212922)
(-0.00479003 0.0144931 0.0225155)
(-0.00431802 0.0137918 0.0228996)
(-0.00132484 0.00950853 0.0284149)
(-0.00137353 0.00779943 0.0281165)
(-0.00467195 0.0115113 0.0153942)
(-0.0060487 0.013184 0.0164681)
(-0.0127924 0.00306129 0.0253595)
(-0.0140644 0.00512041 0.0263594)
(-0.0135564 0.00450258 0.026905)
(-0.0137879 0.00461491 0.0278518)
(-0.0131608 0.00320295 0.0277942)
(-0.0124552 0.00260581 0.0272655)
(-0.012633 0.00291121 0.0263306)
(-0.0115105 0.0015024 0.0273127)
(-0.0126294 0.00264375 0.0278805)
(-0.0150309 0.00912525 0.0256882)
(-0.0146848 0.00799227 0.0258994)
(-0.0150827 0.00738882 0.0270872)
(-0.0145541 0.00543048 0.0269786)
(-0.0147518 0.010032 0.0249388)
(-0.0051216 0.0123288 0.017222)
(-0.0149968 0.00527197 0.0283759)
(-0.0150323 0.00608181 0.0264291)
(-0.0148264 0.00710469 0.027174)
(-0.0148193 0.010061 0.0261235)
(-0.0136105 0.010952 0.0239503)
(-0.0134121 0.0115382 0.025363)
(-0.0118288 0.0124372 0.0248313)
(-0.012237 0.0132861 0.0244554)
(-0.0106272 0.0123392 0.0230735)
(-0.0104712 0.012223 0.0239167)
(-0.00864531 0.0129311 0.0240124)
(-0.00801093 0.0136934 0.0229149)
(-0.0093226 0.0134758 0.0236724)
(-0.0115254 0.0128858 0.0205279)
(-0.00984185 0.0129612 0.0197546)
(-0.00875923 0.0139241 0.0217817)
(-0.00740509 0.0137288 0.0187654)
(-0.0086006 0.0125574 0.0206066)
(-0.00787693 0.00349259 0.0125115)
(-0.00850084 0.00368045 0.0122816)
(-0.00462089 0.00070985 0.00974146)
(-0.00548523 0.00117794 0.0101079)
(-0.00557305 0.00104579 0.0108298)
(-0.00636889 0.0015829 0.0104604)
(-0.00757183 0.00285989 0.0117773)
(-0.00447342 0.000741442 0.00954167)
(-0.00695835 0.00189214 0.0111696)
(-0.00748666 0.00292489 0.0114852)
(-0.00457419 0.000909234 0.00960356)
(-0.00400728 0.000313896 0.00914506)
(-0.00212421 -0.00119393 0.00870222)
(-0.0012895 -0.00118905 0.00854074)
(-0.000360467 -0.0013027 0.0092782)
(-0.000809316 -0.00107335 0.00873218)
(-0.000387114 -0.00113653 0.00917233)
(5.85719e-05 -0.000852413 0.00950053)
(-1.01661e-05 -0.000643067 0.00951589)
(-0.00449704 0.000546541 0.00904338)
(-0.00409332 0.000404493 0.00878672)
(-0.00228598 -0.000940066 0.00842025)
(-0.00301651 -0.000718516 0.00845154)
(-0.00170785 -0.000698793 0.00875838)
(-0.00104841 -0.000938013 0.00838357)
(-0.000587831 -0.000758825 0.00878919)
(-0.000712177 -0.000598845 0.00889601)
(-0.00120694 -0.000639502 0.00910382)
(-0.00123349 -0.000774669 0.00865586)
(-0.00205631 -0.00092593 0.00892248)
(-0.00150164 -0.000993809 0.00875676)
(-0.00172531 -0.000916865 0.00856602)
(-0.00316838 -0.000219162 0.00827602)
(0.00210998 0.00703832 0.0175583)
(0.00247094 0.00555312 0.0161042)
(0.00165231 0.00643151 0.0165491)
(0.00154387 0.00765429 0.0176177)
(0.000705945 0.0092809 0.0208425)
(-4.20186e-05 0.0103606 0.0201151)
(-0.00140346 0.0112249 0.0219339)
(0.00159902 0.00233002 0.0127526)
(-0.00242487 0.0120808 0.0218252)
(-0.00145962 0.0101167 0.0195349)
(-0.00229821 0.0112017 0.020733)
(-0.00134591 0.0100042 0.0184716)
(0.00114245 0.00666604 0.0166383)
(0.000533175 0.00843227 0.0178933)
(0.000102464 0.00921707 0.0198898)
(-0.000629021 0.00828439 0.0182938)
(0.000281397 0.0066368 0.0161901)
(-0.00509579 0.00198303 0.0117606)
(-0.00456429 0.00164522 0.0111987)
(-0.00424301 0.00131413 0.0109273)
(-0.00526248 0.00190919 0.0109976)
(-0.00623694 0.00250689 0.012257)
(-0.00740818 0.00281673 0.0123895)
(-0.00377407 0.00122744 0.0105413)
(-0.00802218 0.00321081 0.012254)
(-0.0070699 0.00233737 0.0126859)
(-0.00911662 0.00430424 0.0127693)
(-0.00796981 0.00289192 0.0120238)
(-0.0066076 0.0127504 0.0168602)
(-0.00698408 0.0123814 0.0182458)
(-0.00204825 0.00231147 0.0105406)
(-0.00414102 0.0113115 0.0161078)
(-0.00947438 0.0040992 0.0248722)
(-0.0103059 0.00236228 0.0272163)
(-0.0106394 0.00153534 0.0278256)
(-0.0105787 0.0015328 0.0264852)
(-0.01141 0.00251969 0.0266868)
(-0.0123163 0.0026074 0.0282642)
(-0.0137008 0.00486135 0.0252999)
(-0.0130797 0.00426069 0.0256561)
(-0.0143169 0.00791524 0.0207698)
(-0.0131618 0.00580325 0.021664)
(-0.0124387 0.00568818 0.0236146)
(-0.0145187 0.0076557 0.022422)
(-0.0117086 0.00303689 0.0235718)
(-0.0127453 0.0056198 0.0226819)
(-0.0118604 0.00415157 0.0214033)
(-0.0100343 0.00338097 0.0243105)
(-0.0119082 0.00318244 0.0253244)
(-0.0128165 0.0124583 0.0203104)
(-0.0129612 0.0136239 0.020403)
(-0.0142951 0.0094605 0.0204233)
(-0.0138786 0.0123433 0.0194564)
(-0.0138626 0.0100647 0.0224122)
(-0.0139616 0.00484354 0.0249145)
(-0.0140269 0.0046782 0.0246162)
(-0.0139158 0.00821645 0.02127)
(-0.0133295 0.00551677 0.0224367)
(-0.013957 0.00850074 0.0222418)
(-0.0137852 0.0078343 0.0227365)
(-0.0138035 0.0061354 0.024112)
(-0.0151222 0.00665989 0.0247656)
(-0.008317 0.00322572 0.0248021)
(-0.00752236 0.00342124 0.0244974)
(-0.00815661 0.00406089 0.0254564)
(-0.00868361 0.00381833 0.0250455)
(-0.00622972 0.00266749 0.0279786)
(-0.00565518 0.00284605 0.0279854)
(-0.00433201 0.00359757 0.0282307)
(-0.00999361 0.00129509 0.0255723)
(-0.0109782 0.00190412 0.0261933)
(-0.00737858 0.00238047 0.0275446)
(-0.00950908 0.00211329 0.0253958)
(-0.0106213 0.00196671 0.026476)
(-0.00953478 0.000945242 0.0271505)
(-0.00657267 0.00121684 0.027014)
(-0.00573089 0.00149444 0.0272905)
(-0.00622307 0.00208738 0.0277512)
(-0.00544768 0.00202673 0.0276347)
(-0.0091854 0.00850908 0.0153439)
(-0.00941915 0.00754793 0.0149353)
(-0.00976285 0.00840954 0.0157979)
(-0.0136455 0.00923577 0.0222442)
(-0.0145097 0.00873112 0.0241065)
(-0.0147294 0.00692126 0.0268575)
(-0.0144798 0.00684356 0.0250621)
(-0.00154464 0.0110667 0.0281156)
(-0.000918005 0.00702825 0.0278758)
(-0.000468921 0.00800539 0.0289805)
(-0.000501424 0.0072259 0.0295481)
(-0.00073333 0.00858004 0.028111)
(-0.00113929 0.0100375 0.0273902)
(-0.0062188 0.0155453 0.0234711)
(-0.00696573 0.0146991 0.0230701)
(-0.00901631 0.0141752 0.0212077)
(-0.00445156 0.0137019 0.0241204)
(-0.00440127 0.0143344 0.0242878)
(-0.00730837 0.0156419 0.0243146)
(-0.00736592 0.0151321 0.0210489)
(-0.0051622 0.0145086 0.021779)
(-0.00482868 0.0140205 0.022315)
(-0.0111166 0.00881369 0.0156294)
(-0.0106515 0.0082721 0.0150436)
(-0.00983128 0.0122821 0.01871)
(-0.0106914 0.00892415 0.0158443)
(-0.0113546 0.0116572 0.0176301)
(-0.0113626 0.0105432 0.0168582)
(-0.0114702 0.00975583 0.0169109)
(-0.0107159 0.0112524 0.0186435)
(-0.0110729 0.0104564 0.0167967)
(-0.0106735 0.0106903 0.0176741)
(-0.0107981 0.00990464 0.0163025)
(-0.0102729 0.0123583 0.0189995)
(-0.00960058 0.0139166 0.0194839)
(-0.0103769 0.0119752 0.017938)
(-0.010762 0.0138364 0.0197554)
(-0.00763806 0.0136597 0.020133)
(-0.00764028 0.0151802 0.0219531)
(-0.00884571 0.0135323 0.0194214)
(-0.0092459 0.0130264 0.0181946)
(-0.00880437 0.0130914 0.0201471)
(-0.00170988 0.0103377 0.0282776)
(-0.00143882 0.00681029 0.0288013)
(-0.001605 0.00727203 0.02806)
(-0.00170095 0.00851851 0.0276604)
(-0.00617141 0.0157826 0.0219778)
(-0.0052012 0.0158773 0.0239416)
(-0.00402728 0.0166775 0.0246985)
(-0.00327343 0.0162478 0.0272029)
(-0.00500998 0.0163847 0.0231606)
(0.00638761 0.0111285 0.026632)
(0.00517338 0.0121041 0.0265756)
(0.00332856 0.0115815 0.0293514)
(0.00298262 0.0126507 0.029133)
(0.00390105 0.00307486 0.0310833)
(0.00485374 0.00966018 0.0311257)
(0.00411843 0.0101808 0.0311024)
(0.0048683 0.0079462 0.03116)
(0.00332202 0.00816849 0.0294972)
(-0.00163894 0.0150654 0.0278662)
(-0.00269855 0.0147623 0.0260271)
(0.00362532 0.0101365 0.0299717)
(0.00339037 0.00782874 0.0319065)
(0.00266889 0.00426844 0.0310377)
(-0.000829414 0.0134009 0.0285692)
(-0.00712216 0.0151554 0.0222745)
(-0.00490898 0.0162908 0.0251849)
(0.00249703 0.0141812 0.0294213)
(0.00123076 0.0154618 0.0285038)
(0.00144766 0.0148714 0.0287294)
(-0.00508638 0.0161684 0.0230021)
(-0.00595004 0.0159218 0.0236999)
(-0.00545866 0.0159838 0.0246682)
(-0.00378188 0.0167263 0.0250023)
(-0.00718377 0.0137799 0.0202638)
(-0.00870484 0.0125122 0.019478)
(-0.00786398 0.0151334 0.0220622)
(-0.00628262 0.0152095 0.0235319)
(-0.00827997 0.0141423 0.0204869)
(-0.00617284 0.0159469 0.0230783)
(-0.00744181 0.0155928 0.0217466)
(-0.00780026 0.0140767 0.0203749)
(-0.00780849 0.0153755 0.0216784)
(-0.00230521 0.0152422 0.0244633)
(-0.00400602 0.0155797 0.0236519)
(-0.00557196 0.0153387 0.0237147)
(-0.00664053 0.0159838 0.0219818)
(-0.00588689 0.0160964 0.0231518)
(-0.0147274 0.00550042 0.0274231)
(-0.0151443 0.00524608 0.0279468)
(-0.0141332 0.00373572 0.0280626)
(-0.0134476 0.00311519 0.0290948)
(-0.0144217 0.00375646 0.0291665)
(-0.0132001 0.00230737 0.0279109)
(-0.0140158 0.00177646 0.0305545)
(-0.0116902 0.00136385 0.027589)
(-0.0117533 0.00120722 0.0279601)
(-0.0119231 0.00148057 0.0277241)
(-0.0118023 0.00124071 0.0297346)
(-0.0105463 0.000206638 0.0283965)
(-0.0111324 0.000181717 0.0298128)
(-0.00965107 9.25715e-05 0.0298931)
(0.000205948 0.0128961 0.0280062)
(0.000106064 0.0115443 0.0293952)
(0.000822816 0.0112692 0.0294281)
(0.000869487 0.0102626 0.0300941)
(0.00210206 0.00989285 0.0302693)
(-0.000633171 0.00529749 0.0301067)
(0.000272442 0.00631374 0.031343)
(0.000312817 0.00424363 0.0312617)
(0.00152515 0.00529118 0.0312551)
(0.00156317 0.00324311 0.0315597)
(-0.00042517 0.000474444 0.032069)
(-0.00151831 0.0015079 0.031138)
(-0.00813248 -0.000535073 0.0297416)
(-0.00671626 -0.000540429 0.031106)
(-0.00258878 0.00127863 0.0303881)
(-0.00200125 0.000286755 0.0316394)
(-0.00548198 3.87582e-05 0.0301272)
(-0.00684984 -0.000108019 0.030578)
(-0.0146673 0.00711952 0.0278674)
(-0.0141609 0.00813176 0.027885)
(-0.0129933 0.000451477 0.0298732)
(-0.0146701 0.00612605 0.0286966)
(-0.0151216 0.00243148 0.0303601)
(-0.0118087 0.0130715 0.0255134)
(-0.00984982 0.0121782 0.0243467)
(-0.0138369 0.00914821 0.0271373)
(-0.0125193 0.0118528 0.0267246)
(-0.0112587 0.0128092 0.0264847)
(-0.0129295 0.0108659 0.0277482)
(-0.0129506 0.0110397 0.0270984)
(-0.0127609 0.0120447 0.0258578)