/*--------------------------------*- C++ -*----------------------------------*\
| =========                 |                                                 |
| \\      /  F ield         | OpenFOAM: The Open Source CFD Toolbox           |
|  \\    /   O peration     | Version:  v1612+                                |
|   \\  /    A nd           | Web:      www.OpenFOAM.com                      |
|    \\/     M anipulation  |                                                 |
\*---------------------------------------------------------------------------*/
FoamFile
{
    version     2.0;
    format      ascii;
    class       volScalarField;
    location    "50";
    object      p;
}
// * * * * * * * * * * * * * * * * * * * * * * * * * * * * * * * * * * * * * //

dimensions      [0 2 -2 0 0 0 0];

internalField   nonuniform List<scalar> 
16986
(
0.0681226
0.126871
0.115596
0.0702066
0.0708571
0.0714188
0.0719537
0.0699687
0.0707944
0.0710538
0.0771053
0.0741476
0.0711592
0.0705494
0.0748549
0.115008
0.110922
0.117606
0.113602
0.114869
0.110922
0.112852
0.111082
0.113105
0.114239
0.120553
0.112084
0.105243
0.11247
0.111271
0.115132
0.11155
0.113778
0.102582
0.10045
0.105575
0.103893
0.106925
0.107847
0.107631
0.108492
0.102922
0.103756
0.105323
0.1035
0.103625
0.100288
0.0990605
0.105283
0.0822687
0.0830597
0.0779273
0.0788857
0.0871238
0.077202
0.0798035
0.078819
0.0830898
0.0872597
0.0769982
0.0716371
0.0735727
0.074654
0.0795207
0.0794387
0.0765754
0.0751098
0.0761327
0.076745
0.106915
0.10789
0.108763
0.106337
0.108349
0.106245
0.106339
0.102702
0.104149
0.103711
0.106751
0.109699
0.106789
0.108668
0.110855
0.105797
0.110622
0.111049
0.115615
0.115043
0.11194
0.114115
0.112225
0.112313
0.115949
0.111004
0.119725
0.111006
0.126131
0.124246
0.123612
0.129746
0.122546
0.0803858
0.0797466
0.0761637
0.0792852
0.0763962
0.0800357
0.0799329
0.127866
0.122997
0.124493
0.123913
0.123539
0.121076
0.1211
0.120041
0.128068
0.119032
0.125675
0.124477
0.120606
0.122325
0.122714
0.119304
0.117553
0.11024
0.108849
0.110169
0.105725
0.117508
0.117036
0.110681
0.115317
0.112474
0.112591
0.112405
0.112926
0.112604
0.112448
0.11279
0.106842
0.117732
0.11791
0.116793
0.116254
0.109503
0.108134
0.108527
0.109328
0.11051
0.110772
0.111201
0.110471
0.114526
0.110313
0.067294
0.0672995
0.0694174
0.0623577
0.067658
0.0626788
0.0652534
0.0651451
0.0639949
0.0583208
0.0630269
0.0694998
0.067353
0.0562156
0.0639009
0.0595267
0.0671585
0.0671389
0.0601517
0.067922
0.114292
0.115059
0.115257
0.111712
0.113825
0.113053
0.114972
0.112524
0.114374
0.111163
0.116103
0.112162
0.117677
0.112042
0.117084
0.0946223
0.0943219
0.0951103
0.0954676
0.0958346
0.0944015
0.0936078
0.0931236
0.094432
0.0927136
0.0965036
0.0980363
0.0996422
0.0905236
0.0915996
0.0893436
0.0987437
0.0923923
0.0955062
0.106626
0.106411
0.104862
0.105741
0.104402
0.106458
0.104869
0.105051
0.106209
0.107987
0.106014
0.108545
0.109656
0.104696
0.109353
0.0978409
0.103652
0.10411
0.104866
0.0990339
0.103986
0.101234
0.110654
0.104567
0.0744711
0.0797717
0.0854446
0.0816519
0.0731765
0.0792181
0.0785395
0.0803605
0.079283
0.0746452
0.077827
0.0780706
0.0772981
0.0792343
0.0787443
0.0799978
0.0775863
0.0789949
0.0787304
0.081575
0.0786827
0.0717782
0.0819162
0.0783728
0.0745397
0.0777958
0.0774244
0.0771256
0.0844336
0.120707
0.118814
0.12056
0.123065
0.12003
0.123172
0.118805
0.120954
0.123352
0.116796
0.122335
0.119107
0.122074
0.124272
0.117904
0.118986
0.127294
0.123501
0.124587
0.119114
0.118796
0.118351
0.120552
0.123872
0.110612
0.12067
0.12072
0.123176
0.121731
0.119884
0.11909
0.121751
0.122825
0.0727719
0.0664335
0.0657838
0.0658576
0.0637871
0.0718014
0.0707451
0.069491
0.0672851
0.0667324
0.0649321
0.0660672
0.0632062
0.06071
0.0666391
0.0648148
0.0629612
0.0680287
0.0670023
0.0609511
0.0740987
0.125046
0.125586
0.117686
0.118393
0.118953
0.117503
0.114286
0.12254
0.126265
0.123528
0.118279
0.121566
0.123769
0.121057
0.123449
0.128782
0.117522
0.12041
0.122832
0.126026
0.120175
0.125361
0.123013
0.122572
0.117658
0.112897
0.114506
0.119593
0.124782
0.117118
0.112471
0.115818
0.115943
0.112888
0.125636
0.122753
0.120475
0.126426
0.122849
0.123731
0.125539
0.124589
0.12595
0.125964
0.121869
0.124913
0.133028
0.120057
0.119881
0.128472
0.128728
0.116642
0.111105
0.119238
0.117753
0.112096
0.117026
0.118292
0.1163
0.119011
0.115912
0.124415
0.117451
0.11874
0.11949
0.117815
0.117678
0.112201
0.119581
0.1223
0.116313
0.126352
0.131842
0.119151
0.131495
0.130153
0.121166
0.124443
0.12538
0.132357
0.122274
0.0973296
0.0940818
0.0978902
0.0962282
0.102443
0.0992369
0.097308
0.104316
0.0972382
0.0988425
0.0910112
0.0945424
0.0960106
0.0977758
0.0970148
0.0935949
0.0925661
0.104176
0.109029
0.102956
0.10267
0.107715
0.106042
0.105712
0.103784
0.106786
0.103259
0.108767
0.105456
0.104694
0.105707
0.107724
0.112921
0.104675
0.107342
0.105762
0.0862115
0.0826226
0.0804141
0.0897701
0.0813154
0.0787684
0.0822453
0.0758043
0.0788741
0.0797802
0.0808629
0.0781521
0.0730621
0.0768627
0.100568
0.102032
0.0996892
0.101586
0.102346
0.104939
0.107755
0.107741
0.101634
0.101354
0.103961
0.0997081
0.101941
0.105352
0.103875
0.0974559
0.0935304
0.102272
0.103287
0.0635254
0.0688702
0.0698897
0.0681193
0.06992
0.0708423
0.0694406
0.0688186
0.0683693
0.0746155
0.0694071
0.0606913
0.0704299
0.0625951
0.0688614
0.063836
0.066242
0.0648096
0.0609709
0.0649403
0.0661583
0.0649858
0.0635301
0.0688088
0.0678703
0.0690459
0.0723519
0.0673283
0.0619268
0.0653432
0.0656928
0.062867
0.0689135
0.0663787
0.0646433
0.0597779
0.062836
0.0724354
0.0717911
0.0716254
0.0670896
0.0620243
0.0634181
0.0671265
0.0678894
0.110425
0.1071
0.111352
0.114025
0.111197
0.111507
0.111992
0.108212
0.105951
0.103615
0.107561
0.109184
0.105584
0.105472
0.1112
0.109599
0.105003
0.0984421
0.108269
0.108109
0.107597
0.109007
0.0766645
0.0693072
0.0759643
0.0710185
0.0729772
0.0829686
0.0743196
0.0776465
0.0794552
0.0797558
0.0749474
0.0791317
0.0816621
0.0786986
0.080766
0.0784172
0.0743719
0.0732891
0.078774
0.0753191
0.114234
0.110659
0.114869
0.109235
0.1147
0.102348
0.108837
0.107729
0.116271
0.114426
0.112757
0.123832
0.119755
0.117085
0.114575
0.124056
0.121408
0.118245
0.119727
0.0967854
0.0979985
0.101659
0.0988332
0.0922528
0.0974885
0.100219
0.0960462
0.100122
0.100685
0.099623
0.0941165
0.0940446
0.10069
0.100074
0.096721
0.100294
0.101366
0.094241
0.0951699
0.0935588
0.0971778
0.116801
0.113798
0.118128
0.117232
0.112853
0.115073
0.116185
0.112195
0.113675
0.12173
0.11563
0.122155
0.114222
0.117887
0.11231
0.116075
0.112817
0.117436
0.113436
0.116597
0.0674123
0.0662515
0.0677327
0.064615
0.0680227
0.0701205
0.0656491
0.0645233
0.0671481
0.0704089
0.0680127
0.0721585
0.0668461
0.0686099
0.0869561
0.0864176
0.0888741
0.0924517
0.0879515
0.0862172
0.0853796
0.0854409
0.0893772
0.0875886
0.0874502
0.0833779
0.082306
0.0872119
0.0813366
0.0792009
0.0829435
0.0865345
0.0813244
0.0879445
0.0874684
0.0812222
0.0832192
0.0876744
0.108226
0.107985
0.107495
0.104614
0.101331
0.101976
0.104572
0.107851
0.106695
0.112992
0.1084
0.109973
0.104284
0.101691
0.109442
0.10544
0.105903
0.104147
0.0751628
0.0709887
0.0715507
0.0738612
0.075092
0.0837596
0.0690107
0.0695639
0.0706495
0.0762636
0.0655519
0.0705071
0.0726823
0.0688155
0.123973
0.127525
0.129385
0.128593
0.127093
0.12551
0.127183
0.122861
0.122871
0.120493
0.12102
0.130378
0.127613
0.119243
0.119897
0.114384
0.125183
0.125311
0.12177
0.127164
0.122685
0.125283
0.127073
0.121412
0.128253
0.124047
0.127649
0.123423
0.126945
0.118822
0.116435
0.120003
0.12003
0.125727
0.120974
0.126833
0.117931
0.120952
0.115282
0.117763
0.116114
0.113127
0.114823
0.119601
0.116401
0.119331
0.111374
0.114288
0.109994
0.110175
0.106173
0.114738
0.113181
0.118412
0.111472
0.110793
0.108701
0.112877
0.107402
0.106041
0.110751
0.110155
0.105055
0.107999
0.112039
0.112472
0.114096
0.110122
0.112017
0.108893
0.106227
0.104329
0.102083
0.105264
0.104228
0.10417
0.104664
0.104692
0.0950036
0.110477
0.10464
0.108951
0.103771
0.102027
0.101436
0.0998841
0.0974509
0.101951
0.104507
0.100647
0.0999096
0.10227
0.0979967
0.101837
0.0949925
0.0908551
0.0901047
0.0983594
0.0994927
0.100702
0.0985941
0.0951461
0.0954991
0.0973062
0.0952547
0.093606
0.0949752
0.0946418
0.101862
0.0965628
0.0917995
0.0881166
0.0889745
0.0891579
0.0901599
0.0864923
0.0888703
0.0863045
0.090735
0.0902676
0.0896591
0.0835599
0.0880567
0.0860269
0.0826677
0.0899254
0.0832329
0.0876074
0.085614
0.0871826
0.0856151
0.0865779
0.0796172
0.0863325
0.0844667
0.088471
0.0879797
0.0880297
0.0842688
0.0844523
0.0823966
0.0885649
0.085333
0.0785923
0.0838164
0.0794371
0.082182
0.0829843
0.0791411
0.0764627
0.0750146
0.0832968
0.08158
0.0720918
0.0771358
0.0777689
0.0764188
0.0753427
0.0797798
0.0777285
0.0743659
0.0774214
0.0725658
0.0766521
0.0744178
0.0751085
0.0735153
0.0705913
0.0730361
0.0752416
0.0710202
0.0691926
0.0700614
0.0733636
0.072757
0.0725163
0.0684191
0.0702876
0.0637597
0.0722293
0.0715392
0.0691224
0.0659946
0.0693438
0.0687777
0.0654233
0.0686419
0.070565
0.0658144
0.0675069
0.0687142
0.0687371
0.064781
0.0669449
0.0655157
0.0646892
0.0660185
0.0623603
0.0662387
0.0633464
0.0672564
0.0653565
0.0638968
0.0620259
0.0713634
0.0656464
0.0647778
0.0706932
0.0686731
0.0638384
0.0679401
0.0714356
0.0657316
0.0684953
0.0683732
0.0683987
0.0720072
0.0660643
0.0670081
0.0680947
0.0673618
0.0752696
0.067854
0.065349
0.0644974
0.0636403
0.0729093
0.073149
0.0663948
0.0665504
0.0641645
0.0675465
0.0674552
0.073668
0.0688713
0.064552
0.0645887
0.0728661
0.0724842
0.0712574
0.0710628
0.0663324
0.0703809
0.0698647
0.0696556
0.0699739
0.0651748
0.0746197
0.0730495
0.06812
0.0664404
0.0716632
0.069112
0.0733715
0.0717497
0.0661154
0.071622
0.0679761
0.0692253
0.0650932
0.0653132
0.0784583
0.0759608
0.0702507
0.072792
0.075416
0.0706948
0.0717926
0.0670202
0.0646799
0.074446
0.0705537
0.0702284
0.0729297
0.0761019
0.0731913
0.0690165
0.0742603
0.0659309
0.0718985
0.0686429
0.0668227
0.0707465
0.0687814
0.064864
0.0729145
0.0628632
0.0672358
0.0710357
0.0706784
0.0711926
0.0642456
0.0651797
0.0657808
0.0678966
0.0702421
0.0656288
0.0622111
0.0694298
0.0709727
0.0676108
0.0658869
0.0784039
0.0731718
0.0753187
0.0772469
0.0732248
0.0781
0.0780424
0.0700545
0.0644999
0.0674327
0.0695346
0.0638889
0.0740681
0.0697202
0.0683378
0.0672429
0.0766125
0.0745501
0.0738493
0.0756896
0.0753584
0.070082
0.0665565
0.0733149
0.0703618
0.0671821
0.0657772
0.0645131
0.0639575
0.0751781
0.0683222
0.0716595
0.0720363
0.0710722
0.0776913
0.0744135
0.0690411
0.0789961
0.0731101
0.07109
0.0718944
0.0657924
0.0640676
0.0664916
0.0686171
0.0725407
0.0657255
0.0680105
0.0714251
0.0717235
0.0741904
0.0699176
0.0647194
0.0620951
0.0686384
0.0709658
0.0717274
0.0708562
0.0683432
0.0730847
0.070698
0.0717004
0.0708776
0.0698932
0.0769036
0.0735082
0.0714247
0.0768638
0.0702916
0.0717457
0.069429
0.0717953
0.0705345
0.0674751
0.072734
0.0723956
0.0827864
0.0797836
0.0771251
0.0720127
0.0742101
0.0768736
0.0697005
0.0713653
0.075883
0.0733429
0.0703161
0.0803462
0.0772009
0.0776247
0.0753959
0.0814221
0.0709849
0.0764586
0.0781797
0.0741726
0.0735586
0.0740605
0.0696591
0.0792073
0.0842624
0.0820766
0.0736432
0.0725021
0.0793702
0.0833034
0.0827385
0.0783131
0.0790289
0.0812425
0.0789645
0.0780267
0.0869664
0.0842761
0.0790437
0.0745141
0.073949
0.0797149
0.0701937
0.0796051
0.0770956
0.0758598
0.085409
0.0825223
0.0819021
0.079445
0.0774859
0.0825552
0.0786557
0.076629
0.0748907
0.0759325
0.0728602
0.0821971
0.0793615
0.0783998
0.0793774
0.0819679
0.0795395
0.0778206
0.0793684
0.0793031
0.0873405
0.0795134
0.0847189
0.0848446
0.0867079
0.0772613
0.0827705
0.0768344
0.0787812
0.0797181
0.0816407
0.078303
0.0772295
0.0757163
0.0721348
0.0856531
0.0785816
0.0812691
0.0841992
0.0705236
0.072083
0.0803237
0.0745728
0.0684636
0.0762306
0.0747954
0.0796319
0.0843667
0.0762865
0.0897445
0.0886905
0.0817398
0.0811818
0.0843949
0.0802913
0.0806189
0.0819419
0.0837411
0.0804429
0.0797934
0.0774029
0.0809484
0.0817551
0.0842642
0.0819064
0.0773889
0.0781257
0.076884
0.0740868
0.0778762
0.0790625
0.0761899
0.0775295
0.0753557
0.0756651
0.0819686
0.0805235
0.0850196
0.0744602
0.0746128
0.0796028
0.0763742
0.0753323
0.0774507
0.0692551
0.0932409
0.083616
0.0851997
0.0836197
0.0813957
0.082888
0.0816398
0.0799691
0.0768839
0.0774525
0.0729111
0.0795907
0.0755595
0.0846974
0.0832404
0.0885082
0.0859074
0.0907962
0.0888462
0.0803663
0.0827274
0.0880219
0.0793324
0.0775345
0.0734229
0.0759629
0.0823833
0.0774559
0.0772912
0.0764408
0.0904782
0.0881092
0.0828688
0.0805453
0.0858642
0.0836068
0.0873822
0.0896258
0.0833227
0.0828435
0.0869314
0.0836143
0.0837283
0.0831008
0.075892
0.0828249
0.0767769
0.0800768
0.0863348
0.0829071
0.0786131
0.0805498
0.0812753
0.0846155
0.0805067
0.0894622
0.0935157
0.0882843
0.0926619
0.0865727
0.0869587
0.0898293
0.0858196
0.0849226
0.0807685
0.081717
0.0849382
0.0811512
0.0819142
0.0938695
0.0875752
0.0884358
0.0906457
0.0851046
0.084447
0.0864283
0.0889612
0.0846985
0.0878866
0.0840754
0.0779197
0.0803903
0.089284
0.0868369
0.0852208
0.0829228
0.0751918
0.0789554
0.0824366
0.0879432
0.0841739
0.0844715
0.0852209
0.0850373
0.0843888
0.0842414
0.0978176
0.095045
0.0941551
0.0868262
0.0846099
0.091499
0.0975486
0.093587
0.086261
0.0887658
0.0886841
0.0835515
0.0843195
0.0845289
0.0844392
0.0837307
0.0822516
0.0873345
0.0850064
0.0833628
0.082451
0.0890013
0.0851381
0.085273
0.0861773
0.0867994
0.0939076
0.0953502
0.0885419
0.0852029
0.0899851
0.0895192
0.0910483
0.0923536
0.0888013
0.0879111
0.0861188
0.0857639
0.0825973
0.0891494
0.0855501
0.0902292
0.0931241
0.0976099
0.0834694
0.0857967
0.0794608
0.0852348
0.0879619
0.0876777
0.0834694
0.0909019
0.0872152
0.0861396
0.0854622
0.0907079
0.0848079
0.0873679
0.0940596
0.0835855
0.0892087
0.0879008
0.087776
0.0846542
0.0905848
0.0922331
0.089195
0.0889575
0.0893126
0.0924037
0.0912819
0.0883146
0.0884543
0.0838115
0.0905476
0.0915485
0.0937465
0.0888449
0.0908355
0.0918696
0.0893065
0.0894501
0.0888382
0.0925228
0.0917772
0.0871703
0.0844191
0.0895317
0.0918876
0.0891841
0.0880968
0.093164
0.0980024
0.0897909
0.0859527
0.0845867
0.0893284
0.0878867
0.0845189
0.0821845
0.0889217
0.0921072
0.0871506
0.0901266
0.0867096
0.087922
0.0851735
0.0846036
0.0969482
0.10241
0.0965261
0.090811
0.100872
0.0956119
0.0907459
0.0887005
0.0901159
0.0975591
0.101662
0.0949792
0.0975459
0.0883585
0.0949358
0.08493
0.0892135
0.0907349
0.0957845
0.0934156
0.0911313
0.0954548
0.0964781
0.0920422
0.0968326
0.0893675
0.0942143
0.092594
0.0901472
0.0903231
0.0928914
0.0897497
0.0928232
0.100021
0.0960126
0.0930014
0.0958641
0.0972055
0.0973323
0.0997134
0.100467
0.0902754
0.0940179
0.0964256
0.0939557
0.0909709
0.102339
0.0989113
0.0944055
0.0923297
0.0927898
0.0882541
0.0971606
0.0962843
0.101662
0.0992917
0.095536
0.0987933
0.100002
0.0954345
0.0980649
0.0941841
0.0973065
0.0956678
0.0958319
0.101279
0.098793
0.0965836
0.0937552
0.0957227
0.0968465
0.103948
0.0988796
0.0920739
0.0966253
0.097611
0.0965158
0.0962071
0.104365
0.0961709
0.100785
0.103573
0.101567
0.100687
0.0994156
0.0992671
0.0977053
0.102683
0.101789
0.100911
0.102131
0.0994168
0.100116
0.100735
0.100676
0.10656
0.101951
0.102263
0.101959
0.103477
0.0924887
0.0976246
0.0996692
0.0983259
0.098942
0.0945116
0.103498
0.102475
0.101509
0.107063
0.101895
0.0990154
0.0965596
0.103544
0.1004
0.0959464
0.096195
0.104788
0.102157
0.0962662
0.0973053
0.0899028
0.0990852
0.0937367
0.0962034
0.0977646
0.0980975
0.101693
0.0976304
0.0985588
0.0933929
0.103693
0.0955087
0.0972441
0.100036
0.0951949
0.0942547
0.0948759
0.0937265
0.0952361
0.0912449
0.0940715
0.0918391
0.0942235
0.109439
0.104594
0.10072
0.103656
0.106804
0.106775
0.102206
0.102102
0.110698
0.103472
0.101622
0.0999095
0.0979945
0.0979807
0.104131
0.101729
0.100922
0.106762
0.103913
0.0996498
0.100254
0.101861
0.102166
0.105442
0.104107
0.108018
0.102141
0.101383
0.1032
0.103668
0.102009
0.105475
0.0998897
0.103604
0.103818
0.109457
0.101348
0.102503
0.0952973
0.0988665
0.0984527
0.0965613
0.10584
0.0997102
0.0967902
0.100924
0.0962567
0.0945837
0.0918546
0.0976395
0.0951515
0.0916956
0.0903765
0.0964802
0.103965
0.0992981
0.0995586
0.101045
0.10088
0.102579
0.108738
0.107332
0.101074
0.104133
0.106295
0.110737
0.10213
0.100013
0.103669
0.103192
0.0972631
0.1001
0.098968
0.0987982
0.0962925
0.104778
0.106361
0.103273
0.100721
0.103282
0.106473
0.107019
0.103209
0.103399
0.0999446
0.0989814
0.114813
0.110552
0.112744
0.109836
0.107068
0.104973
0.11159
0.107258
0.109507
0.111268
0.1054
0.108874
0.100968
0.110415
0.107007
0.101468
0.10643
0.100232
0.0991484
0.105357
0.109422
0.103003
0.107588
0.102338
0.101497
0.103859
0.110949
0.101941
0.105834
0.102548
0.106994
0.10598
0.105012
0.105549
0.11153
0.112192
0.106365
0.10032
0.102975
0.101416
0.107725
0.100615
0.0991431
0.103689
0.100277
0.101747
0.095088
0.102299
0.115279
0.115001
0.11003
0.111007
0.102679
0.10828
0.106988
0.111954
0.1104
0.110999
0.1021
0.110223
0.109744
0.112802
0.109272
0.106953
0.112934
0.120257
0.114087
0.107159
0.114989
0.110381
0.110629
0.107671
0.110147
0.107219
0.108395
0.108266
0.113915
0.107566
0.112968
0.109989
0.105409
0.105769
0.106461
0.107215
0.112969
0.111817
0.113989
0.105416
0.115189
0.111892
0.113455
0.112061
0.116055
0.113876
0.110797
0.108393
0.115461
0.099546
0.107379
0.105421
0.104313
0.103706
0.113212
0.108987
0.105307
0.10754
0.112202
0.116549
0.110761
0.108754
0.111243
0.10688
0.106856
0.109682
0.110738
0.0988815
0.106619
0.103256
0.098467
0.101264
0.0999185
0.104163
0.103611
0.0993599
0.100539
0.101434
0.105804
0.103232
0.116273
0.118638
0.116468
0.114105
0.111224
0.105833
0.10913
0.112162
0.113383
0.108281
0.106501
0.105718
0.107262
0.1122
0.113315
0.1129
0.114887
0.111115
0.110584
0.111177
0.110096
0.112144
0.102425
0.107052
0.10359
0.105821
0.114473
0.107531
0.10314
0.106633
0.125287
0.119531
0.117351
0.11459
0.122082
0.118569
0.117012
0.114005
0.110653
0.117358
0.114774
0.110969
0.118745
0.113147
0.12231
0.107109
0.10995
0.108851
0.102035
0.101707
0.100698
0.100045
0.110176
0.109943
0.104928
0.116268
0.111409
0.107694
0.116461
0.107625
0.111327
0.107077
0.11386
0.117016
0.117779
0.118551
0.108864
0.114245
0.112499
0.111015
0.109361
0.110028
0.122499
0.118671
0.118781
0.117711
0.11825
0.111414
0.118715
0.116878
0.115157
0.117645
0.114085
0.118719
0.112423
0.112179
0.110464
0.109226
0.115938
0.11324
0.110694
0.113287
0.111641
0.116291
0.119773
0.117496
0.120563
0.11481
0.117704
0.112895
0.119049
0.120625
0.11758
0.1119
0.115962
0.118337
0.115795
0.119154
0.119633
0.118467
0.117318
0.127108
0.122718
0.115675
0.12024
0.124092
0.121055
0.112608
0.115493
0.113636
0.11903
0.117205
0.115378
0.117149
0.118939
0.118644
0.123363
0.121507
0.119716
0.118835
0.115633
0.115168
0.117931
0.117506
0.124649
0.125326
0.120797
0.118223
0.115471
0.125728
0.127898
0.117809
0.126275
0.118743
0.117142
0.118675
0.12145
0.122635
0.123943
0.120523
0.12343
0.116538
0.116792
0.123257
0.11991
0.119217
0.120997
0.119356
0.119678
0.116309
0.119269
0.123952
0.117128
0.11594
0.120027
0.11713
0.117492
0.11815
0.117998
0.127085
0.121355
0.124124
0.117731
0.118665
0.117692
0.116599
0.123657
0.124082
0.126092
0.115434
0.119597
0.12337
0.126143
0.12083
0.116999
0.12614
0.124299
0.124073
0.123776
0.126175
0.12148
0.11995
0.120083
0.124019
0.119746
0.120299
0.120289
0.120455
0.113513
0.107979
0.110759
0.119125
0.108689
0.111171
0.11941
0.120452
0.117122
0.117965
0.116502
0.125094
0.124009
0.11933
0.120808
0.120787
0.119431
0.126198
0.122417
0.122927
0.12543
0.123892
0.125053
0.117459
0.118937
0.125684
0.12564
0.122683
0.12104
0.129333
0.125999
0.127208
0.126973
0.128564
0.12247
0.124131
0.12529
0.124515
0.124597
0.123067
0.119871
0.117063
0.117337
0.117507
0.118759
0.117673
0.124569
0.122723
0.128807
0.125238
0.119177
0.124901
0.123608
0.126176
0.128171
0.130965
0.126675
0.132882
0.125162
0.123336
0.12235
0.12278
0.119968
0.114298
0.113099
0.123615
0.123642
0.12527
0.121986
0.119065
0.119054
0.122231
0.126076
0.12244
0.125152
0.128586
0.122626
0.12213
0.120757
0.1247
0.123615
0.12104
0.125461
0.120766
0.118356
0.117253
0.117474
0.122877
0.121767
0.120909
0.128687
0.126429
0.128821
0.123987
0.127283
0.124418
0.123453
0.128069
0.124418
0.124234
0.128053
0.132792
0.125827
0.128437
0.12455
0.13081
0.128432
0.126691
0.123344
0.126087
0.124859
0.127185
0.128315
0.128836
0.131594
0.129717
0.123541
0.123489
0.118672
0.119672
0.121636
0.125439
0.124248
0.127061
0.127217
0.127395
0.125394
0.121534
0.127309
0.119925
0.120622
0.116066
0.120277
0.116685
0.115952
0.116806
0.119985
0.120173
0.119699
0.120378
0.122926
0.119241
0.113265
0.116324
0.119879
0.114233
0.11265
0.119611
0.114202
0.114474
0.113398
0.115518
0.111936
0.124245
0.12109
0.124617
0.126782
0.12582
0.116894
0.121063
0.121682
0.121108
0.124533
0.122316
0.123699
0.120222
0.126184
0.119464
0.120809
0.118974
0.115576
0.1217
0.127125
0.124148
0.122235
0.122714
0.121814
0.123403
0.108227
0.110652
0.11661
0.116047
0.118182
0.113816
0.109631
0.116458
0.12245
0.117456
0.119804
0.115175
0.118838
0.120341
0.122616
0.119741
0.121118
0.118903
0.121979
0.119752
0.117574
0.121024
0.108695
0.105745
0.107506
0.112254
0.111175
0.110555
0.108306
0.10925
0.107974
0.104651
0.11124
0.103401
0.104839
0.119435
0.117777
0.117718
0.115548
0.11499
0.111591
0.11156
0.114416
0.116313
0.1168
0.117082
0.11419
0.111686
0.120002
0.115798
0.117342
0.111574
0.111194
0.107548
0.104545
0.113775
0.113682
0.103199
0.105527
0.100415
0.100963
0.101716
0.10999
0.110141
0.114267
0.107157
0.105779
0.117108
0.118252
0.117981
0.122727
0.115923
0.113402
0.113212
0.120346
0.114628
0.1162
0.117015
0.118614
0.114971
0.113597
0.113361
0.113652
0.113455
0.115274
0.112586
0.114422
0.112826
0.115879
0.117082
0.115618
0.108749
0.110953
0.118225
0.11369
0.114048
0.115338
0.111768
0.102683
0.108674
0.111223
0.104955
0.106926
0.106492
0.109805
0.105713
0.109649
0.109669
0.108642
0.108851
0.114366
0.113779
0.110244
0.107841
0.116631
0.112492
0.108846
0.114652
0.112763
0.115333
0.112825
0.114669
0.113287
0.114345
0.110437
0.114245
0.10795
0.10525
0.109962
0.115887
0.109241
0.113035
0.117017
0.106278
0.106893
0.119601
0.122449
0.102871
0.104833
0.10532
0.108217
0.103734
0.098875
0.101823
0.10193
0.11267
0.110868
0.107144
0.10553
0.108838
0.104775
0.109267
0.11638
0.117085
0.11643
0.111255
0.101025
0.0996134
0.0999947
0.103516
0.102211
0.100002
0.10134
0.103912
0.105045
0.102527
0.109281
0.107238
0.105301
0.102448
0.108359
0.112731
0.116088
0.112093
0.112215
0.111609
0.109159
0.110823
0.108537
0.105619
0.107588
0.110298
0.105857
0.109124
0.107945
0.108437
0.111576
0.11427
0.10839
0.108763
0.111308
0.111332
0.115214
0.112324
0.114875
0.112172
0.108072
0.109742
0.105431
0.111156
0.104975
0.107697
0.107419
0.107001
0.103911
0.0954161
0.0974419
0.101768
0.101033
0.10532
0.0990911
0.101138
0.100419
0.101155
0.102491
0.101901
0.0993386
0.104057
0.100103
0.0920161
0.0909925
0.0895392
0.0988105
0.0955
0.0986732
0.0901909
0.0911501
0.0971335
0.0956177
0.101818
0.102182
0.0986036
0.0971838
0.0962972
0.0918466
0.0939653
0.0978637
0.0945222
0.0902258
0.0901822
0.0963027
0.098041
0.101354
0.108756
0.102202
0.102461
0.103023
0.104511
0.108407
0.105895
0.101226
0.0976884
0.103252
0.105202
0.10307
0.099233
0.104206
0.101358
0.10253
0.101002
0.0990355
0.100477
0.0989187
0.0983504
0.0904402
0.0921075
0.0863688
0.0863025
0.0888855
0.0921084
0.0892438
0.0866077
0.0839142
0.0839672
0.0853259
0.0882614
0.103127
0.102705
0.102217
0.0957948
0.100916
0.0999125
0.101293
0.104063
0.0990681
0.0979372
0.0985612
0.0970293
0.0966426
0.0974063
0.100023
0.0945675
0.0943718
0.0939466
0.096227
0.097857
0.0913235
0.102143
0.0965234
0.0981831
0.108088
0.10111
0.095038
0.103625
0.105732
0.102554
0.0947919
0.101512
0.100032
0.0899317
0.0884128
0.0910256
0.0932458
0.0929105
0.0894838
0.0888467
0.0887029
0.0866745
0.0866007
0.0953547
0.096303
0.0900041
0.0928086
0.0926441
0.0958324
0.093082
0.0928717
0.0917605
0.083171
0.0824965
0.0853366
0.0888388
0.0852028
0.0897255
0.0824975
0.0860608
0.0865473
0.086697
0.0855492
0.0876175
0.0904746
0.0960159
0.0993786
0.092599
0.0937234
0.0879446
0.0890715
0.0799905
0.0825201
0.0767172
0.0790868
0.0854488
0.0859907
0.0817734
0.0929517
0.0967772
0.0903925
0.0900279
0.0903898
0.0950125
0.0941237
0.0958335
0.0943346
0.0867769
0.0879595
0.0888351
0.0936116
0.0926711
0.0864471
0.086441
0.0875746
0.0853817
0.0792211
0.086952
0.0847075
0.0809658
0.0859878
0.0765822
0.0792974
0.0836706
0.0870958
0.0861622
0.092625
0.0914776
0.0918381
0.0897387
0.0888258
0.0880056
0.0925656
0.0950688
0.0917002
0.0914964
0.093274
0.0908805
0.0937138
0.0956168
0.090724
0.0887333
0.0970569
0.0917139
0.0960248
0.0917288
0.0912408
0.0922128
0.0913422
0.0922493
0.0972624
0.0956015
0.0934885
0.0953492
0.0883453
0.0849438
0.08732
0.0881072
0.0839266
0.087974
0.0871639
0.0917721
0.0844438
0.0883482
0.0861796
0.0876069
0.0814705
0.0925261
0.0938347
0.0940802
0.0978302
0.0926963
0.0905454
0.0933645
0.0921134
0.0913286
0.0929597
0.0932762
0.0726526
0.0723939
0.0793369
0.0825619
0.0778055
0.0797948
0.0787113
0.0792999
0.0786171
0.0836393
0.077991
0.0759448
0.0863413
0.0894882
0.0823876
0.0825488
0.0783486
0.0794081
0.0735746
0.070664
0.0809716
0.0765065
0.071823
0.0835534
0.0857687
0.0862735
0.0869551
0.0865286
0.0843076
0.0915854
0.0910412
0.0869704
0.0685129
0.071496
0.078965
0.0759001
0.0729471
0.0786325
0.0800293
0.0760157
0.0657734
0.0719393
0.0790966
0.073409
0.0709726
0.0720382
0.0678478
0.0830529
0.0860552
0.0832091
0.0831846
0.0782956
0.0864865
0.0742245
0.0851892
0.0826138
0.0809499
0.0888282
0.0915672
0.0817339
0.0875552
0.0843415
0.0863169
0.0787154
0.0771219
0.0794888
0.0813751
0.0791574
0.0887025
0.0846719
0.0802082
0.0756832
0.0758617
0.0822093
0.0788608
0.0774705
0.077991
0.081498
0.0782417
0.0763323
0.0782646
0.0845578
0.0760763
0.0777413
0.0861756
0.0803262
0.0821555
0.0842525
0.0798405
0.081226
0.0823265
0.0786893
0.0758558
0.0846357
0.0826403
0.0791814
0.0755646
0.0728649
0.0800262
0.0755159
0.0728368
0.0666169
0.0771667
0.0697181
0.0705699
0.0772059
0.0765978
0.0783281
0.0749412
0.0763124
0.0770052
0.0742789
0.0753737
0.0751405
0.0750211
0.0740713
0.070142
0.0806653
0.0718845
0.0760301
0.0781096
0.0814027
0.0812331
0.0752624
0.0748204
0.0737448
0.0774553
0.0730655
0.0777588
0.0728326
0.0661597
0.0707323
0.0691051
0.0665216
0.0685048
0.0678545
0.0651876
0.0746262
0.0707319
0.0757148
0.0758946
0.0712671
0.0747039
0.0656875
0.0679861
0.073917
0.0687096
0.0657455
0.0743938
0.0776922
0.0659731
0.0691114
0.0703991
0.0740704
0.0697358
0.0757984
0.0748886
0.0711066
0.0659056
0.0707864
0.068127
0.065649
0.0681252
0.0688652
0.070917
0.0715566
0.079816
0.07736
0.0771717
0.0761497
0.0760374
0.0732947
0.0783756
0.0799608
0.0679449
0.0696224
0.066218
0.0663898
0.0655755
0.0723548
0.069317
0.064744
0.0678347
0.0777232
0.0726458
0.0748005
0.0743494
0.0703962
0.0756115
0.0766109
0.0732313
0.0700488
0.0733024
0.0707675
0.0675352
0.072001
0.0749372
0.0738156
0.0722797
0.0689763
0.0762751
0.0709382
0.0751066
0.0732229
0.0596334
0.0658985
0.0627527
0.0629152
0.0647038
0.0669498
0.0685094
0.0670386
0.0686106
0.0653419
0.070218
0.0676621
0.0690892
0.0698223
0.0656317
0.066634
0.0720794
0.0628357
0.0688754
0.0702459
0.0652589
0.0653618
0.0670287
0.0710589
0.0718885
0.0659525
0.0647408
0.0665655
0.0653877
0.0688009
0.0640915
0.0629239
0.0666708
0.0679991
0.0674979
0.070343
0.0657659
0.0677702
0.0661375
0.0643297
0.0619437
0.0642756
0.0652093
0.0687765
0.0638494
0.0649763
0.0640656
0.0632021
0.0654708
0.0664836
0.0642371
0.0597743
0.0622275
0.0748829
0.0744831
0.0724594
0.0646869
0.0713026
0.0709681
0.0744279
0.071002
0.0725335
0.070905
0.0799286
0.0787278
0.0815445
0.0816839
0.0849196
0.0834923
0.0815903
0.0831383
0.0721583
0.0751181
0.0772388
0.0714622
0.0757491
0.0880009
0.0880158
0.0877668
0.0808431
0.0788589
0.0932123
0.090741
0.0856736
0.0855764
0.0831677
0.0840375
0.0819485
0.0796935
0.0939535
0.0905792
0.094609
0.0891256
0.0867505
0.0935618
0.0970886
0.0941044
0.0919702
0.075536
0.0795356
0.0791376
0.0811492
0.0807309
0.0806309
0.0803823
0.0738113
0.079817
0.0767996
0.0752398
0.0763254
0.0812568
0.0732098
0.0790771
0.073314
0.0801028
0.0745328
0.0746421
0.0853566
0.0816647
0.0791838
0.0818282
0.0869452
0.0882308
0.0919225
0.0940035
0.0901276
0.0847455
0.0957074
0.0948047
0.0935507
0.0889899
0.0856616
0.0905027
0.0888718
0.0898739
0.0924302
0.0894713
0.0887553
0.0884877
0.0922418
0.0939443
0.0956437
0.0998565
0.097444
0.103107
0.0992239
0.0987406
0.0972942
0.0989994
0.0979226
0.107182
0.109902
0.108001
0.114751
0.109649
0.10926
0.109466
0.109075
0.117656
0.116439
0.114708
0.109739
0.111138
0.117282
0.118332
0.113216
0.113693
0.124939
0.115909
0.11445
0.114548
0.113687
0.111953
0.112237
0.112667
0.111956
0.111885
0.114933
0.112761
0.117692
0.1208
0.118297
0.0621915
0.0695634
0.0627015
0.0701601
0.0674217
0.0667943
0.065799
0.0702
0.0681566
0.0714778
0.0651559
0.0701778
0.0691541
0.0646687
0.067281
0.062252
0.0655317
0.0680358
0.0754474
0.0648995
0.0668521
0.0673118
0.0642787
0.0678361
0.0664688
0.0650286
0.0625724
0.0714609
0.0652071
0.0688936
0.062763
0.0586504
0.0645327
0.0642568
0.0672202
0.0657872
0.0780523
0.0755001
0.0745841
0.07109
0.0720169
0.0706578
0.0802724
0.0724259
0.0709036
0.0759887
0.0755783
0.0772052
0.0755854
0.0664748
0.066616
0.0640661
0.0644851
0.0685579
0.0649471
0.0661051
0.0613945
0.0668102
0.0645873
0.0676224
0.0673627
0.0653875
0.0729245
0.072869
0.0673714
0.0698296
0.0713825
0.0633639
0.0644797
0.0728215
0.0749283
0.0720983
0.0681699
0.0726342
0.0644385
0.0726758
0.0681028
0.0678903
0.0724686
0.0684453
0.072805
0.0786235
0.076216
0.0768
0.0779476
0.0761984
0.0708392
0.068237
0.0667712
0.0749153
0.0689481
0.0660555
0.0690388
0.0698297
0.0776114
0.0759633
0.0714132
0.0684041
0.0734359
0.0764673
0.0691173
0.0643834
0.0670306
0.0662709
0.0752683
0.0739129
0.0729142
0.0728272
0.0754063
0.0666236
0.0605511
0.0846908
0.08337
0.0735906
0.0852512
0.0856743
0.0801934
0.0792753
0.0805024
0.0822385
0.0764691
0.0757591
0.073881
0.0715586
0.075133
0.0735627
0.0723623
0.068931
0.0738667
0.0689331
0.07856