/*--------------------------------*- C++ -*----------------------------------*\
| =========                 |                                                 |
| \\      /  F ield         | OpenFOAM: The Open Source CFD Toolbox           |
|  \\    /   O peration     | Version:  v1612+                                |
|   \\  /    A nd           | Web:      www.OpenFOAM.com                      |
|    \\/     M anipulation  |                                                 |
\*---------------------------------------------------------------------------*/
FoamFile
{
    version     2.0;
    format      ascii;
    class       volScalarField;
    location    "118";
    object      p;
}
// * * * * * * * * * * * * * * * * * * * * * * * * * * * * * * * * * * * * * //

dimensions      [0 2 -2 0 0 0 0];

internalField   nonuniform List<scalar> 
21213
(
3.93328
3.93483
3.9253
3.7238
3.84583
3.72282
3.72661
3.78832
3.79463
3.86818
3.73249
3.91239
3.91654
3.79961
3.76803
3.79083
3.7714
3.94782
3.92701
3.91306
3.70637
3.77299
3.78598
3.78565
3.76007
3.73837
3.74989
3.75854
3.75738
3.8016
3.74937
3.7641
3.74586
3.71565
3.79662
3.749
3.78814
3.79608
3.79695
3.77847
3.75398
3.76044
3.74006
3.7495
3.782
3.76754
3.74355
3.77509
3.84736
3.84582
3.92346
3.91838
3.73212
3.74017
3.71621
3.75097
3.74607
3.77921
3.75299
3.84599
3.7842
3.77942
3.74021
3.73844
3.74023
3.91706
3.82181
3.91554
3.88956
3.79365
3.80681
3.76224
3.77417
3.74435
3.88505
3.7612
3.75823
3.71773
3.71831
3.75357
3.80955
3.74892
3.77941
3.82057
3.9235
3.74497
3.74433
3.93113
3.79702
3.79188
3.79432
3.8024
3.73969
3.74347
3.80595
3.80885
3.75702
3.75751
3.76269
3.7278
3.83486
3.73909
3.72525
3.78016
3.80784
3.80992
3.73563
3.72979
3.77847
3.80982
3.82178
3.7581
3.82675
3.80467
3.83468
3.79321
3.75136
3.71617
3.71461
3.74384
3.73659
3.74094
3.8978
3.73259
3.7221
3.85935
3.78655
3.78825
3.80897
3.82017
3.77798
3.76721
3.75745
3.74148
3.8978
3.89404
3.73973
3.77833
3.74532
3.74774
3.73372
3.91225
3.83313
3.84383
3.83046
3.83775
3.91233
3.90814
3.79195
3.8066
3.94754
3.7898
3.78851
3.94485
3.94512
3.76808
3.85528
3.85349
3.70833
3.71294
3.86277
3.84054
3.84412
3.77276
3.90455
3.75763
3.72738
3.85336
3.74119
3.74062
3.92009
3.93855
3.74776
3.7823
3.78346
3.79006
3.88162
3.90516
3.71811
3.90398
3.87654
3.83272
3.85204
3.8523
3.82638
3.88253
3.72425
3.76199
3.72963
3.71842
3.78088
3.79114
3.79163
3.79679
3.92267
3.94397
3.91463
3.90975
3.83925
3.83505
3.71177
3.70927
3.71561
3.70699
3.73438
3.79403
3.93776
3.80003
3.79084
3.80033
3.78814
3.78281
3.74993
3.75191
3.76386
3.84186
3.82177
3.75812
3.82955
3.90222
3.94318
3.92014
3.9391
3.92071
3.72562
3.72249
3.77085
3.76333
3.7715
3.85732
3.84774
3.8518
3.94555
3.7761
3.7756
3.78077
3.73751
3.74093
3.76354
3.76724
3.72817
3.7312
3.7606
3.75374
3.75878
3.81854
3.8026
3.80769
3.73597
3.73174
3.7769
3.78423
3.7932
3.82685
3.83577
3.71949
3.71667
3.78029
3.94458
3.71839
3.72173
3.79567
3.91261
3.74766
3.75117
3.77672
3.78128
3.7887
3.78139
3.8035
3.92889
3.93605
3.77217
3.83333
3.86509
3.85032
3.86164
3.86544
3.72066
3.71459
3.72442
3.7281
3.72632
3.7268
3.73498
3.72899
3.72606
3.73311
3.7362
3.71608
3.74699
3.82743
3.82891
3.76092
3.77746
3.82209
3.86121
3.80798
3.83495
3.8197
3.83117
3.83843
3.83668
3.90321
3.92164
3.92477
3.82477
3.82313
3.82523
3.75387
3.8507
3.91465
3.79954
3.80528
3.78893
3.777
3.7824
3.94501
3.91424
3.90497
3.79599
3.71524
3.71937
3.71942
3.81748
3.81352
3.72826
3.72669
3.86799
3.78854
3.7871
3.76968
3.76785
3.7392
3.73861
3.72416
3.76962
3.77834
3.77831
3.87349
3.81509
3.75767
3.7485
3.74575
3.71755
3.70994
3.76019
3.90374
3.91135
3.8759
3.92786
3.81038
3.81081
3.72135
3.71801
3.71994
3.71112
3.77957
3.78146
3.78159
3.7737
3.92729
3.85789
3.85177
3.85339
3.85633
3.81846
3.80697
3.80385
3.80065
3.77095
3.86969
3.85478
3.85127
3.8352
3.83274
3.85417
3.79687
3.80329
3.71439
3.74283
3.77113
3.77916
3.75589
3.77152
3.74629
3.70611
3.89406
3.75506
3.78734
3.82792
3.78684
3.74226
3.80656
3.72614
3.72454
3.82428
3.72175
3.74704
3.79278
3.79269
3.75328
3.76026
3.90759
3.72688
3.73086
3.85804
3.84602
3.86107
3.73126
3.92202
3.75834
3.8767
3.78865
3.79796
3.85135
3.86305
3.76169
3.9048
3.80219
3.75695
3.79079
3.87431
3.79877
3.72033
3.95017
3.90259
3.88551
3.73335
3.79612
3.92111
3.93742
3.96116
3.96159
3.8523
3.80498
3.76624
3.71644
3.78891
3.72676
3.70569
3.88026
3.77303
3.77474
3.8364
3.75692
3.74134
3.74661
3.7123
3.72052
3.73984
3.732
3.79562
3.75277
3.93291
3.7939
3.83049
3.94013
3.91582
3.81095
3.77989
3.78591
3.8042
3.83702
3.8351
3.85322
3.88133
3.85317
3.74428
3.79634
3.7694
3.7667
3.76579
3.88481
3.8774
3.88889
3.88203
3.76322
3.78076
3.85561
3.83626
3.89018
3.90464
3.79272
3.8156
3.76673
3.76724
3.76909
3.71535
3.72838
3.81272
3.81399
3.81558
3.72172
3.73558
3.91302
3.93471
3.92116
3.74903
3.77218
3.87896
3.72603
3.75396
3.75438
3.77464
3.84993
3.74532
3.90492
3.73716
3.79667
3.78905
3.74669
3.74356
3.71486
3.8512
3.73028
3.82151
3.89618
3.86036
3.73318
3.78101
3.73791
3.88789
3.87942
3.74043
3.88388
3.79429
3.76584
3.75798
3.81526
3.72958
3.78195
3.7594
3.76392
3.7936
3.7786
3.7214
3.74256
3.72525
3.79807
3.91798
3.75097
3.74814
3.93657
3.77581
3.77843
3.77093
3.7895
3.72127
3.72752
3.75207
3.7809
3.72341
3.7227
3.81004
3.76451
3.78899
3.79006
3.78902
3.81222
3.81706
3.80182
3.79746
3.76305
3.78517
3.78502
3.79343
3.86926
3.88349
3.77371
3.77514
3.74412
3.74482
3.71904
3.74575
3.77169
3.90708
3.82992
3.71239
3.73365
3.81883
3.84826
3.78567
3.82469
3.82888
3.93848
3.82136
3.87748
3.94455
3.87044
3.89417
3.87823
3.88406
3.88777
3.86967
3.89313
3.88466
3.86866
3.86855
3.89524
3.91041
3.94114
3.79272
3.75904
3.77533
3.81971
3.79161
3.79792
3.78875
3.84786
3.86791
3.82855
3.78018
3.77849
3.80047
3.83207
3.83567
3.78488
3.81343
3.8169
3.81381
3.79952
3.72251
3.74397
3.73107
3.72821
3.72937
3.73153
3.72633
3.73453
3.75632
3.73682
3.71697
3.71663
3.72414
3.73931
3.72642
3.72897
3.74156
3.74408
3.75496
3.73558
3.75794
3.77285
3.75966
3.76959
3.7768
3.75698
3.75597
3.75147
3.77244
3.75678
3.75281
3.76476
3.75728
3.75899
3.87034
3.89296
3.91515
3.90613
3.90385
3.89679
3.8469
3.74985
3.74461
3.76462
3.76995
3.74335
3.71693
3.73712
3.72006
3.71886
3.73435
3.72308
3.72303
3.74102
3.72457
3.73658
3.71221
3.7183
3.71349
3.73253
3.71255
3.72028
3.71533
3.72272
3.72538
3.74359
3.72143
3.72583
3.71813
3.77942
3.79295
3.77635
3.78446
3.80456
3.80943
3.77667
3.79651
3.79986
3.8227
3.84933
3.85497
3.83135
3.857
3.86331
3.8291
3.79865
3.77457
3.79903
3.78096
3.78044
3.79791
3.83599
3.79799
3.8151
3.80305
3.81671
3.83925
3.79233
3.82272
3.80922
3.81838
3.80366
3.92102
3.87033
3.9061
3.93141
3.78541
3.95801
3.89007
3.93524
3.89659
3.89253
3.8298
3.79644
3.90075
3.84653
3.84649
3.88963
3.86319
3.84028
3.85695
3.84538
3.85949
3.85407
3.86155
3.85493
3.90178
3.852
3.89054
3.89404
3.89212
3.88628
3.75664
3.76604
3.75955
3.76754
3.76464
3.76816
3.76483
3.76791
3.78492
3.76622
3.77964
3.7738
3.77684
3.77565
3.80277
3.81315
3.81026
3.81175
3.8044
3.80022
3.81154
3.81587
3.81794
3.83526
3.81821
3.82052
3.79836
3.75022
3.73751
3.75296
3.74158
3.74515
3.74209
3.74436
3.76236
3.75231
3.75957
3.75063
3.75248
3.75029
3.75389
3.70956
3.73219
3.71941
3.71976
3.72563
3.75294
3.76182
3.75576
3.75913
3.7498
3.7497
3.75923
3.76493
3.75463
3.76271
3.7592
3.76727
3.76714
3.75931
3.76229
3.73538
3.72921
3.73996
3.73752
3.73094
3.77918
3.76217
3.77166
3.7832
3.89959
3.88196
3.89336
3.88062
3.88285
3.8826
3.90394
3.90439
3.88258
3.82169
3.834
3.82145
3.73934
3.70847
3.71668
3.71737
3.71478
3.7153
3.71457
3.72203
3.71347
3.71536
3.71015
3.71676
3.71569
3.71219
3.71017
3.7076
3.70757
3.73147
3.71858
3.73122
3.72183
3.73216
3.73133
3.72195
3.71005
3.77335
3.77052
3.76403
3.82069
3.8218
3.83693
3.82811
3.81847
3.81782
3.82917
3.83922
3.82205
3.83359
3.82816
3.84432
3.84396
3.82863
3.78503
3.80199
3.78997
3.7972
3.78574
3.78598
3.79612
3.79111
3.8065
3.80552
3.80153
3.80106
3.80609
3.81881
3.81494
3.82322
3.81415
3.81727
3.82188
3.80682
3.80622
3.82858
3.84249
3.83735
3.83448
3.83887
3.82879
3.83873
3.94294
3.93894
3.89003
3.92295
3.89516
3.92104
3.89753
3.82586
3.82594
3.82711
3.8954
3.90264
3.86248
3.8837
3.85847
3.87842
3.87365
3.87892
3.87219
3.91067
3.87594
3.861
3.86868
3.88073
3.86381
3.86336
3.88253
3.89681
3.89541
3.91526
3.89707
3.90505
3.90258
3.89899
3.87369
3.86694
3.89089
3.88567
3.87943
3.87549
3.88824
3.89229
3.87938
3.92669
3.8941
3.91022
3.89923
3.89852
3.71457
3.71721
3.70756
3.71099
3.71182
3.86096
3.88145
3.87932
3.87795
3.8669
3.87229
3.87464
3.84163
3.85284
3.84934
3.85784
3.85353
3.85776
3.85568
3.89458
3.89349
3.87476
3.87655
3.89891
3.88513
3.88973
3.88655
3.88636
3.87763
3.86204
3.88797
3.87871
3.87915
3.87393
3.88232
3.8786
3.8643
3.85857
3.87447
3.86102
3.86067
3.87467
3.88986
3.89761
3.89131
3.88729
3.89241
3.89338
3.88616
3.93532
3.94381
3.88726
3.90021
3.9126
3.91506
3.89972
3.91005
3.90729
3.9117
3.91332
3.80899
3.79787
3.74869
3.77995
3.76059
3.76799
3.76929
3.77088
3.77224
3.77289
3.77396
3.76906
3.77598
3.78382
3.7931
3.78837
3.78539
3.77908
3.76713
3.75816
3.81438
3.84419
3.81675
3.82408
3.8227
3.82394
3.79736
3.78578
3.78524
3.77854
3.78786
3.77664
3.77839
3.78464
3.80703
3.80415
3.81889
3.8138
3.8092
3.79604
3.80712
3.79851
3.80144
3.78127
3.79944
3.79226
3.78364
3.83613
3.83134
3.83466
3.84591
3.82914
3.82789
3.84642
3.85699
3.86055
3.85163
3.84603
3.86507
3.86521
3.8466
3.82569
3.86535
3.83843
3.82539
3.85624
3.85206
3.84702
3.85427
3.84646
3.85306
3.85414
3.8506
3.85896
3.82675
3.8391
3.8391
3.84407
3.83838
3.84595
3.79217
3.79747
3.77338
3.77329
3.77072
3.77971
3.76932
3.77012
3.7796
3.77436
3.79396
3.79665
3.79003
3.78824
3.79256
3.77729
3.78833
3.79671
3.77751
3.79631
3.78778
3.79052
3.78336
3.78814
3.79568
3.82194
3.80796
3.8242
3.8476
3.85016
3.80358
3.82388
3.82963
3.82138
3.81371
3.81863
3.81943
3.84778
3.82345
3.85107
3.82981
3.83864
3.83249
3.8353
3.79229
3.79148
3.76997
3.78281
3.78273
3.78404
3.78074
3.80885
3.81731
3.79282
3.80894
3.8004
3.80421
3.8042
3.82314
3.82777
3.80052
3.81088
3.81692
3.81839
3.80822
3.81914
3.81928
3.82954
3.81666
3.83166
3.82956
3.81758
3.79486
3.79054
3.79767
3.80345
3.79115
3.79084
3.80394
3.71672
3.71882
3.72081
3.72262
3.73402
3.73476
3.73874
3.72857
3.74239
3.74105
3.73179
3.71954
3.71569
3.72854
3.7269
3.72844
3.74167
3.72575
3.71973
3.7249
3.73687
3.72179
3.72802
3.72887
3.72931
3.7268
3.72217
3.74107
3.73926
3.75482
3.74252
3.74143
3.74671
3.73666
3.74933
3.74992
3.72339
3.70481
3.71288
3.71594
3.71167
3.71367
3.73234
3.7326
3.75014
3.73881
3.73958
3.73794
3.73977
3.71912
3.73285
3.71239
3.72048
3.72061
3.7208
3.72674
3.72073
3.71644
3.71516
3.72158
3.71763
3.71625
3.72936
3.73402
3.7268
3.72422
3.73312
3.73326
3.72426
3.71809
3.74131
3.74274
3.74899
3.73985
3.75149
3.74955
3.74117
3.72841
3.72845
3.7319
3.73723
3.7304
3.74013
3.73256
3.74481
3.72968
3.72765
3.73749
3.73481
3.73426
3.75552
3.7297
3.72798
3.73127
3.74014
3.73916
3.73034
3.74734
3.73718
3.74243
3.7585
3.75252
3.73557
3.7485
3.7516
3.7493
3.74302
3.74491
3.746
3.76289
3.74181
3.74915
3.75292
3.75054
3.75495
3.73954
3.74093
3.74259
3.74889
3.74346
3.74251
3.74002
3.75365
3.75994
3.74753
3.76306
3.7467
3.76128
3.78194
3.78528
3.77332
3.78053
3.79214
3.77762
3.78253
3.76769
3.76382
3.76238
3.77209
3.77144
3.76785
3.75281
3.76211
3.75998
3.77682
3.77089
3.76298
3.76916
3.76142
3.76891
3.73977
3.77205
3.77733
3.77349
3.78397
3.76187
3.77099
3.75811
3.75515
3.75725
3.76482
3.76354
3.75923
3.75717
3.74527
3.7562
3.75698
3.77981
3.77337
3.76584
3.7764
3.77648
3.76409
3.7557
3.75848
3.75816
3.74889
3.76714
3.75797
3.76018
3.75609
3.76232
3.77493
3.74182
3.73863
3.729
3.72459
3.73902
3.72817
3.73336
3.74209
3.7467
3.75693
3.76399
3.75955
3.75282
3.75425
3.75851
3.7569
3.76734
3.76331
3.75654
3.73385
3.74261
3.73893
3.73639
3.74587
3.75906
3.74238
3.74523
3.75049
3.74954
3.75656
3.75654
3.76635
3.74767
3.75289
3.75591
3.75853
3.75003
3.84235
3.88288
3.85472
3.86295
3.85891
3.91123
3.88313
3.92468
3.8937
3.92161
3.88871
3.90762
3.87592
3.92751
3.93486
3.81546
3.82645
3.83626
3.83337
3.91313
3.95698
3.88451
3.91072
3.90741
3.91364
3.92428
3.90951
3.95122
3.89525
3.88239
3.91212
3.92166
3.94944
3.92744
3.90293
3.92535
3.92687
3.93064
3.92672
3.94332
3.89742
3.93432
3.95823
3.90318
3.92961
3.92519
3.90943
3.92961
3.81249
3.83376
3.88333
3.87042
3.86544
3.8742
3.84358
3.85001
3.90467
3.85158
3.85349
3.85946
3.86106
3.75806
3.75329
3.749
3.75929
3.76003
3.74889
3.76157
3.73717
3.74201
3.74772
3.74606
3.75996
3.74499
3.75933
3.76384
3.76876
3.76513
3.76921
3.75662
3.7558
3.76914
3.76356
3.7707
3.76792
3.75517
3.76484
3.7714
3.75665
3.75677
3.76923
3.76483
3.76244
3.75945
3.7624
3.75839
3.77609
3.76791
3.76452
3.7498
3.74899
3.7576
3.75476
3.75604
3.75769
3.75299
3.7595
3.74845
3.75798
3.74147
3.73298
3.75065
3.74348
3.7435
3.73998
3.74611
3.73229
3.72657
3.7294
3.72466
3.72575
3.72571
3.72802
3.74038
3.72533
3.73358
3.72252
3.71792
3.7232
3.72486
3.73115
3.7364
3.74106
3.73211
3.741
3.74106
3.73211
3.7206
3.71803
3.73386
3.72716
3.7243
3.7222
3.72827
3.72774
3.72226
3.73701
3.72892
3.72847
3.72813
3.73054
3.75819
3.74487
3.75054
3.74771
3.75517
3.75198
3.75087
3.72445
3.71423
3.72141
3.72525
3.73617
3.74293
3.74456
3.74417
3.73997
3.74675
3.74883
3.74273
3.74136
3.72852
3.73963
3.73139
3.73251
3.71256
3.70783
3.70968
3.71261
3.7111
3.70774
3.71342
3.70715
3.7212
3.72569
3.72944
3.71555
3.71814
3.72003
3.72147
3.71933
3.72224
3.73662
3.73072
3.74785
3.73728
3.74118
3.73786
3.73991
3.7169
3.72456
3.71858
3.71829
3.71544
3.72121
3.71563
3.71612
3.73214
3.72205
3.72208
3.72059
3.72301
3.71119
3.71672
3.71666
3.72748
3.72703
3.73068
3.72401
3.7329
3.7322
3.72459
3.70974
3.71547
3.71407
3.7244
3.71812
3.72071
3.71585
3.71575
3.72466
3.74168
3.73994
3.73925
3.74545
3.75111
3.74131
3.74925
3.7492
3.74138
3.72907
3.73238
3.72935
3.73487
3.7354
3.73266
3.72055
3.73095
3.73529
3.73317
3.72479
3.72839
3.73091
3.72107
3.73265
3.72973
3.72871
3.72848
3.73011
3.74235
3.73228
3.72835
3.73025
3.73729
3.73609
3.73169
3.71305
3.72486
3.72578
3.7134
3.72018
3.71923
3.71403
3.72043
3.72005
3.72002
3.72143
3.7179
3.75855
3.77336
3.76961
3.76968
3.76236
3.7664
3.76714
3.80113
3.80811
3.79683
3.79701
3.80158
3.75779
3.77423
3.77345
3.78101
3.76059
3.76838
3.76851
3.77117
3.76727
3.78922
3.78275
3.77908
3.78528
3.78664
3.7766
3.76817
3.7599
3.7555
3.76392
3.75958
3.76339
3.79824
3.79925
3.77717
3.79052
3.76927
3.77591
3.77744
3.78092
3.77224
3.78546
3.78567
3.79425
3.78885
3.7939
3.79861
3.81517
3.80519
3.80111
3.81198
3.79916
3.79165
3.78108
3.77335
3.78685
3.7786
3.77843
3.78687
3.80778
3.80631
3.78411
3.79358
3.80056
3.80192
3.79297
3.79999
3.78272
3.79269
3.78681
3.82013
3.81749
3.80938
3.80659
3.87556
3.87478
3.852
3.85248
3.89054
3.84425
3.86176
3.8558
3.84635
3.86045
3.86179
3.84507
3.86357
3.84165
3.83861
3.84091
3.85332
3.85117
3.84468
3.82451
3.84228
3.84113
3.84229
3.82488
3.83872
3.8307
3.85839
3.84083
3.84683
3.83773
3.84647
3.84011
3.85963
3.83768
3.82774
3.83724
3.84256
3.8411
3.84008
3.8004
3.80673
3.80682
3.80074
3.81404
3.81379
3.79967
3.7765
3.78169
3.78021
3.77157
3.76797
3.77958
3.76957
3.7694
3.77972
3.77539
3.7893
3.78873
3.78871
3.7798
3.78245
3.78661
3.80298
3.78475
3.78659
3.79503
3.79265
3.78954
3.79928
3.78661
3.7934
3.7898
3.77513
3.78919
3.79646
3.7905
3.78303
3.78523
3.78945
3.80812
3.82533
3.8319
3.82797
3.81665
3.81968
3.82036
3.86825
3.87123
3.79674
3.79531
3.82032
3.79876
3.80888
3.82552
3.81962
3.82038
3.8593
3.83519
3.8346
3.82275
3.78887
3.80883
3.79595
3.79247
3.81361
3.80243
3.80438
3.79865
3.8048
3.79987
3.83591
3.8233
3.8459
3.83414
3.83436
3.83191
3.83531
3.78547
3.79519
3.77284
3.7856
3.78052
3.78404
3.78114
3.81703
3.83081
3.80311
3.81291
3.81453
3.81841
3.8081
3.81425
3.81469
3.79045
3.80667
3.80357
3.80526
3.80406
3.82411
3.82931
3.81973
3.81611
3.83095
3.83128
3.81583
3.7989
3.79806
3.7908
3.8038
3.791
3.79179
3.8029
3.92334
3.90304
3.8971
3.85
3.85974
3.86059
3.90015
3.90965
3.90038
3.94458
3.88634
3.89055
3.91386
3.91709
3.89488
3.89274
3.91477
3.89258
3.89736
3.88898
3.92364
3.87873
3.90104
3.90205
3.91615
3.91869
3.8551
3.85034
3.81732
3.83712
3.90669
3.89276
3.84531
3.88498
3.85591
3.82496
3.88139
3.91764
3.93173
3.85054
3.85687
3.8545
3.85224
3.88975
3.8826
3.87574
3.89639
3.87838
3.8782
3.89656
3.92978
3.93901
3.93816
3.90222
3.9016
3.92177
3.90717
3.88867
3.92009
3.89765
3.9042
3.89833
3.90487
3.89898
3.89663
3.93717
3.91006
3.90088
3.94044
3.90738
3.89919
3.89216
3.89739
3.89492
3.89802
3.843
3.83162
3.82349
3.80878
3.79763
3.79298
3.82255
3.80786
3.80327
3.8039
3.81792
3.80962
3.80835
3.82164
3.88667
3.87129
3.88446
3.85979
3.85266
3.85621
3.87109
3.86847
3.85904
3.85648
3.83722
3.83547
3.85318
3.83606
3.8327
3.84927
3.87834
3.89189
3.87322
3.87188
3.93959
3.8668
3.85923
3.83222
3.8783
3.85574
3.86088
3.86478
3.86945
3.89809
3.82373
3.83216
3.86677
3.85932
3.84317
3.85605
3.82302
3.86485
3.86439
3.83729
3.72472
3.72592
3.72892
3.73623
3.75037
3.7241
3.78748
3.88667
3.87362
3.88052
3.87195
3.88104
3.87513
3.88023
3.87849
3.87414
3.89024
3.88405
3.87995
3.8766
3.88557
3.78531
3.7772
3.77918
3.77494
3.78036
3.77753
3.77925
3.7746
3.7731
3.78395
3.77628
3.77776
3.77507
3.77945
3.79683
3.79732
3.79694
3.82967
3.84615
3.84605
3.81839
3.80479
3.74153
3.7458
3.73731
3.74318
3.7413
3.74371
3.74019
3.73706
3.74355
3.74037
3.74369
3.73917
3.74239
3.74168
3.71857
3.71832
3.71466
3.72522
3.74334
3.74836
3.74965
3.74759
3.74712
3.74724
3.74751
3.77408
3.76976
3.76616
3.77047
3.77112
3.77135
3.7701
3.75926
3.77608
3.7643
3.84229
3.85016
3.85769
3.89364
3.91307
3.90708
3.82893
3.84502
3.83044
3.72884
3.70991
3.70741
3.71105
3.72951
3.7204
3.78287
3.78519
3.77763
3.82566
3.83373
3.82082
3.8222
3.82593
3.82673
3.82115
3.85105
3.8417
3.83836
3.84649
3.84588
3.84627
3.84548
3.79027
3.78512
3.78483
3.81061
3.82125
3.83976
3.83522
3.8316
3.82864
3.83617
3.8346
3.8318
3.83956
3.84643
3.83367
3.84462
3.83889
3.84534
3.85524
3.85174
3.90837
3.93945
3.89971
3.93628
3.9376
3.89386
3.84658
3.82392
3.82225
3.83848
3.88448
3.8721
3.89006
3.87875
3.88418
3.87517
3.88503
3.93062
3.93167
3.87401
3.88357
3.88141
3.87796
3.87917
3.87886
3.87779
3.90829
3.89305
3.89487
3.89463
3.89819
3.89575
3.89702
3.88959
3.88733
3.88929
3.88335
3.88913
3.88609
3.88725
3.90873
3.89241
3.88937
3.88673
3.89502
3.89382
3.89147
3.88867
3.88296
3.89179
3.88818
3.889
3.88477
3.89068
3.8863
3.87767
3.87343
3.87107
3.87966
3.87806
3.87474
3.89504
3.89332
3.89446
3.89584
3.88516
3.89169
3.88562
3.89164
3.88704
3.89127
3.88219
3.87865
3.87569
3.87261
3.87934
3.8775
3.87567
3.86529
3.8761
3.8726
3.87182
3.8708
3.87191
3.8706
3.89079
3.88604
3.89255
3.89199
3.89011
3.88971
3.89238
3.89679
3.89875
3.8994
3.90157
3.89732
3.89907
3.89997
3.79295
3.80134
3.78677
3.79291
3.79349
3.79663
3.78894
3.74794
3.75721
3.75502
3.75065
3.74386
3.76077
3.76574
3.76439
3.7692
3.77145
3.77066
3.78043
3.77844
3.76761
3.76567
3.83436
3.8205
3.82461
3.82189
3.82647
3.82299
3.8252
3.78347
3.78173
3.78655
3.78111
3.76602
3.77985
3.78816
3.79196
3.79737
3.79302
3.79158
3.79116
3.79294
3.79541
3.79731
3.79483
3.78594
3.79576
3.79675
3.79206
3.79706
3.79896
3.79321
3.79417
3.79897
3.79213
3.7987
3.79431
3.79738
3.83604
3.84887
3.8453
3.84828
3.84649
3.84436
3.84232
3.83942
3.84852
3.84281
3.84047
3.84237
3.83286
3.82882
3.81529
3.86524
3.85492
3.8759
3.86838
3.86486
3.86099
3.87019
3.87512
3.86795
3.83045
3.8375
3.82033
3.82904
3.83018
3.83259
3.82334
3.77845
3.78347
3.78644
3.78293
3.78281
3.78248
3.78302
3.80062
3.81378
3.80169
3.80156
3.79698
3.80481
3.76556
3.77588
3.7717
3.78216
3.77731
3.78632
3.77205
3.79705
3.78393
3.80602
3.79991
3.79763
3.79605
3.80147
3.85958
3.81967
3.8118
3.8136
3.81733
3.80845
3.81255
3.80828
3.83527
3.82472
3.83986
3.83215
3.83454
3.82869
3.83653
3.82926
3.83613
3.82192
3.834
3.82888
3.83378
3.82903
3.77431
3.78274
3.77913
3.78285
3.77726
3.78165
3.77938
3.80056
3.80959
3.81017
3.81239
3.80522
3.80949
3.80938
3.8037
3.80976
3.80646
3.81159
3.80519
3.81016
3.80763
3.81842
3.81133
3.80784
3.81251
3.81396
3.81385
3.81292
3.80305
3.80687
3.80956
3.80487
3.80548
3.8052
3.80586
3.74253
3.73223
3.73902
3.74436
3.74548
3.74328
3.73688
3.73299
3.72807
3.72698
3.73085
3.73151
3.732
3.73066
3.72497
3.72795
3.72799
3.72231
3.72584
3.72285
3.72708
3.72582
3.72939
3.7244
3.7272
3.72671
3.72996
3.72251
3.73111
3.72764
3.72592
3.73385
3.76591
3.7695
3.75142
3.75449
3.74198
3.72104
3.71238
3.70902
3.7452
3.73873
3.74091
3.73699
3.74269
3.73934
3.74017
3.71329
3.71092
3.71852
3.71253
3.72001
3.71146
3.72491
3.72095
3.72276
3.71911
3.72337
3.72076
3.72223
3.71561
3.71985
3.72124
3.71894
3.71843
3.71856
3.71867
3.72396
3.72033
3.72046
3.72517
3.72263
3.72295
3.72679
3.71172
3.74224
3.73754
3.73512
3.73845
3.73946
3.7396
3.73828
3.72529
3.72713
3.72306
3.72188
3.75058
3.74521
3.73613
3.72872
3.72925
3.73102
3.72572
3.72675
3.73846
3.73399
3.73698
3.7384
3.73692
3.73661
3.73777
3.74936
3.74816
3.74565
3.74453
3.75634
3.75128
3.76094
3.75562
3.75562
3.75339
3.75783
3.74437
3.74274
3.73803
3.73325
3.73613
3.73835
3.73494
3.73774
3.73767
3.74144
3.73381
3.76346
3.75113
3.7623
3.7567
3.76121
3.75534
3.76144
3.77829
3.78163
3.77895
3.77547
3.77988
3.77847
3.77734
3.76514
3.77095
3.75874
3.7625
3.75291
3.75824
3.75898
3.7603
3.75503
3.77949
3.77379
3.76845
3.75151
3.75529
3.7585
3.75767
3.7554
3.75972
3.74788
3.75503
3.7812
3.75003
3.75414
3.74492
3.75111
3.74982
3.75231
3.74793
3.74912
3.7536
3.74852
3.75135
3.75435
3.74682
3.77064
3.76454
3.76608
3.76956
3.76851
3.76772
3.76896
3.76753
3.75942
3.76333
3.75932
3.76329
3.76021
3.76075
3.76084
3.75763
3.75573
3.75578
3.75794
3.75698
3.75719
3.75012
3.75268
3.74643
3.75453
3.7621
3.73372
3.7332
3.76842
3.76275
3.77282
3.76573
3.7681
3.76411
3.76933
3.75512
3.74485
3.74933
3.74519
3.74117
3.74785
3.74626
3.74574
3.75045
3.74652
3.74839
3.75189
3.75268
3.75695
3.75711
3.75058
3.75361
3.753
3.88826
3.88354
3.88601
3.87861
3.88545
3.88184
3.8853
3.91426
3.91816
3.89904
3.90218
3.91123
3.91568
3.9015
3.9368
3.94791
3.94814
3.91359
3.92728
3.9021
3.91355
3.91382
3.92322
3.90969
3.81279
3.79179
3.80652
3.79811
3.83232
3.86694
3.89422
3.92214
3.91356
3.90391
3.90825
3.88037
3.91935
3.89339
3.88701
3.96087
3.89981
3.90248
3.92548
3.89061
3.9071
3.90376
3.91163
3.89825
3.91979
3.92715
3.89259
3.90588
3.92059
3.91627
3.90328
3.8184
3.88776
3.90106
3.8758
3.8635
3.86472
3.88594
3.90778
3.85699
3.83655
3.84465
3.84143
3.74818
3.74703
3.74481
3.74751
3.74573
3.747
3.74627
3.75858
3.75984
3.73523
3.73827
3.7562
3.74974
3.75832
3.76376
3.76297
3.76818
3.77099
3.7737
3.7703
3.76791
3.772
3.76388
3.7572
3.76476
3.74643
3.76885
3.76341
3.77351
3.76817
3.76891
3.76603
3.77116
3.76287
3.76393
3.74918
3.75176
3.74223
3.74772
3.7503
3.74968
3.74641
3.72172
3.74581
3.74342
3.74099
3.73942
3.74389
3.74302
3.74113
3.71628
3.71685
3.71788
3.7158
3.71643
3.72767
3.72823
3.71837
3.7252
3.71867
3.7203
3.72463
3.72292
3.72216
3.72256
3.72253
3.72211
3.73564
3.7308
3.7307
3.73257
3.73534
3.73245
3.73445
3.73257
3.72881
3.7279
3.72531
3.73108
3.72841
3.72613
3.73152
3.72794
3.72609
3.72478
3.72872
3.72791
3.72653
3.74367
3.74505
3.73736
3.74095
3.74277
3.74359
3.73968
3.72955
3.71477
3.73511
3.72006
3.74637
3.74609
3.74401
3.75108
3.74312
3.74591
3.74708
3.7253
3.71811
3.71706
3.71544
3.71217
3.71374
3.71486
3.71491
3.71993
3.71119
3.71943
3.71581
3.71552
3.71753
3.71168
3.71817
3.71506
3.71961
3.71404
3.71502
3.71653
3.74094
3.73662
3.73422
3.73357
3.73783
3.73658
3.7351
3.72031
3.7185
3.71622
3.71494
3.71894
3.71784
3.71632
3.72823
3.7221
3.72456
3.72115
3.72515
3.72258
3.72459
3.717
3.71919
3.72117
3.71837
3.71875
3.71842
3.71878
3.72438
3.72093
3.7184
3.72158
3.72222
3.72236
3.72142
3.71144
3.70873
3.71032
3.71232
3.70969
3.71073
3.7241
3.72851
3.72106
3.7134
3.71735
3.74628
3.73968
3.74143
3.74247
3.74337
3.74271
3.74319
3.72574
3.72686
3.71977
3.72287
3.72475
3.72515
3.72155
3.73908
3.73477
3.74147
3.73727
3.7393
3.73431
3.7391
3.73299
3.74097
3.7323
3.73797
3.72414
3.72754
3.71995
3.72512
3.72405
3.72621
3.72251
3.71921
3.72055
3.7234
3.71527
3.71621
3.71531
3.71919
3.71943
3.72004
3.77734
3.77372
3.78538
3.77945
3.77752
3.77484
3.78065
3.80383
3.79415
3.75657
3.76549
3.76881
3.7655
3.76874
3.761
3.76351
3.76607
3.76209
3.76982
3.76604
3.78134
3.77241
3.77547
3.78063
3.77669
3.75899
3.76464
3.76351
3.76224
3.75974
3.76452
3.76153
3.77387
3.7758
3.77831
3.78006
3.775
3.77689
3.77868
3.81778
3.80987
3.80541
3.80604
3.81154
3.81005
3.80749
3.78177
3.79841
3.80263
3.79072
3.8098
3.80493
3.79871
3.80348
3.80517
3.8035
3.80353
3.80538
3.7763
3.78831
3.78714
3.78486
3.78585
3.78525
3.7842
3.78702
3.79133
3.79235
3.7875
3.79104
3.79037
3.78955
3.79406
3.79898
3.79851
3.79339
3.79457
3.79766
3.82978
3.83029
3.84941
3.86821
3.86292
3.85939
3.86067
3.86044
3.86125
3.85204
3.84351
3.8481
3.85084
3.8499
3.8497
3.8511
3.82994
3.83603
3.82098
3.83073
3.82939
3.8329
3.82558
3.85373
3.84933
3.86651
3.85778
3.85528
3.85153
3.85953
3.85811
3.85073
3.86773
3.86204
3.85849
3.85492
3.86383
3.82414
3.83525
3.82047
3.82861
3.8252
3.82998
3.82251
3.80409
3.79602
3.80212
3.79919
3.79952
3.79819
3.77265
3.78065
3.77724
3.77683
3.77636
3.77711
3.77606
3.79738
3.79417
3.80646
3.79881
3.79806
3.79508
3.80068
3.77839
3.78319
3.77215
3.77935
3.77849
3.7814
3.77506
3.78349
3.77131
3.77749
3.7793
3.78029
3.7758
3.80196
3.79444
3.80709
3.79847
3.8016
3.796
3.80259
3.83918
3.83131
3.85329
3.83514
3.83772
3.82842
3.83922
3.85274
3.79869
3.80474
3.81196
3.81234
3.81404
3.80864
3.81025
3.81218
3.8229
3.81231
3.80284
3.8344
3.82287
3.8411
3.82952
3.81996
3.80773
3.80956
3.80704
3.80546
3.80688
3.80793
3.81091
3.80588
3.81983
3.81512
3.81186
3.80915
3.817
3.84381
3.84763
3.83232
3.83947
3.84272
3.84429
3.83667
3.78081
3.78627
3.78904
3.78976
3.78402
3.78635
3.78856
3.80896
3.81265
3.81456
3.81695
3.81026
3.81345
3.81502
3.79707
3.80692
3.80359
3.8074
3.80125
3.80581
3.8035
3.81387
3.81124
3.80782
3.81403
3.81276
3.8139
3.81276
3.79968
3.8072
3.80884
3.80617
3.80501
3.80541
3.80571
3.93178
3.91628
3.91131
3.91945
3.90653
3.91769
3.91698
3.88767
3.88392
3.87877
3.87631
3.8844
3.88378
3.87925
3.91374
3.90804
3.90108
3.90398
3.90767
3.90717
3.90464
3.92435
3.89671
3.90291
3.90781
3.90003
3.90822
3.9047
3.90813
3.90473
3.85178
3.84624
3.85207
3.83932
3.85601
3.87188
3.84962
3.81939
3.81209
3.86565
3.87964
3.87624
3.87021
3.86078
3.90719
3.88886
3.91885
3.89413
3.89101
3.92257
3.89029
3.88983
3.89461
3.88674
3.89984
3.89494
3.89364
3.89377
3.89539
3.94494
3.8934
3.89859
3.88467
3.89595
3.89259
3.89682
3.88985
3.90827
3.88893
3.8968
3.8842
3.89169
3.88942
3.89247
3.88701
3.83499
3.82141
3.82648
3.82706
3.82881
3.82787
3.82852
3.80535
3.79947
3.79785
3.78911
3.79616
3.94338
3.85889
3.83435
3.84335
3.84956
3.83236
3.84509
3.84223
3.84751
3.83924
3.8544
3.84927
3.85396
3.88301
3.87128
3.87717
3.88106
3.88062
3.87857
3.88159
3.88847
3.86898
3.87497
3.86609
3.8763
3.86893
3.8741
3.86848
3.87831
3.865
3.8772
3.88046
3.8403
3.85292
3.94195
3.94511
3.73904
3.72145
3.72299
3.73749
3.72717
3.73248
3.72797
3.78833
3.84169
3.85225
3.83278
3.84021
3.84296
3.84456
3.83597
3.83996
3.87187
3.8576
3.86029
3.85306
3.8631
3.86167
3.8541
3.85011
3.84765
3.85583
3.85433
3.85111
3.86233
3.87273
3.8678
3.86656
3.86707
3.86726
3.86667
3.85085
3.84456
3.84213
3.84905
3.84885
3.84929
3.84905
3.85862
3.87218
3.85202
3.86072
3.85848
3.8626
3.85454
3.8578
3.86277
3.84616
3.85496
3.8572
3.85958
3.85067
3.72395
3.72514
3.90942
3.88999
3.89881
3.89248
3.9014
3.90543
3.94365
3.90176
3.90515
3.91005
3.916
3.90397
3.87104
3.88465
3.86271
3.87072
3.87047
3.87305
3.86553
3.88619
3.89139
3.87584
3.88772
3.886
3.88972
3.88101
3.89546
3.89736
3.89325
3.89505
3.89886
3.88294
3.89729
3.89743
3.91861
3.89989
3.89901
3.89425
3.89836
3.88307
3.87242
3.87879
3.87985
3.87914
3.87813
3.75898
3.76374
3.75239
3.75679
3.75741
3.75945
3.75401
3.76707
3.76358
3.77285
3.76617
3.7663
3.77072
3.7703
3.76946
3.76435
3.762
3.76066
3.7654
3.76463
3.76263
3.76958
3.77459
3.77283
3.77188
3.77213
3.77232
3.77204
3.76228
3.75987
3.75767
3.76184
3.76135
3.76176
3.76136
3.76588
3.77205
3.761
3.76796
3.76622
3.76932
3.76382
3.76724
3.76998
3.75999
3.76481
3.76674
3.76783
3.76243
3.7768
3.77231
3.76615
3.76836
3.77207
3.77211
3.76896
3.79632
3.78672
3.79008
3.7862
3.79184
3.78824
3.79049
3.76913
3.77429
3.76431
3.76722
3.7694
3.77043
3.76556
3.77565
3.78463
3.77338
3.77914
3.77665
3.78062
3.77491
3.77751
3.77852
3.76932
3.77405
3.77634
3.77755
3.7725
3.78081
3.78572
3.78239
3.78085
3.78229
3.78221
3.78129
3.77238
3.77029
3.76764
3.77211
3.77099
3.77206
3.77122
3.8261
3.8126
3.82555
3.82892
3.83514
3.81259
3.80906
3.82599
3.82844
3.83061
3.81274
3.80462
3.81472
3.82684
3.80077
3.79564
3.79421
3.80013
3.79998
3.80009
3.79968
3.81376
3.80526
3.81209
3.81122
3.81102
3.81083
3.81251
3.81678
3.81824
3.81558
3.81606
3.81576
3.81576
3.79107
3.80408
3.80141
3.80641
3.81009
3.80504
3.80678
3.7996
3.80787
3.80437
3.80594
3.80908
3.80737
3.80359
3.80768
3.80742
3.79693
3.80349
3.80212
3.80684
3.80883
3.8064
3.81375
3.8122
3.80892
3.8173
3.82846
3.81841
3.81414
3.82244
3.82064
3.82998
3.82785
3.82453
3.81698
3.82857
3.82427
3.82185
3.8298
3.82835
3.82987
3.83198
3.82093
3.81554
3.80707
3.8182
3.80997
3.80693
3.81888
3.81825
3.81893
3.81779
3.83396
3.81933
3.79223
3.79311
3.81039
3.80056
3.81281
3.79418
3.80961
3.80233
3.80693
3.81729
3.81708
3.81656
3.80376
3.79383
3.79448
3.80282
3.81217
3.79337
3.81156
3.79928
3.79273
3.80573
3.79896
3.74168
3.74551
3.74847
3.74805
3.74376
3.74536
3.7476
3.72877
3.7351
3.73325
3.73557
3.73137
3.73488
3.73298
3.75078
3.74616
3.75545
3.7525
3.75079
3.74878
3.75369
3.74351
3.73705
3.74557
3.74174
3.74278
3.73956
3.7441
3.74336
3.74125
3.74989
3.74496
3.74386
3.74164
3.74615
3.73973
3.73551
3.73737
3.73911
3.73873
3.7386
3.73888
3.74597
3.74861
3.75094
3.74801
3.74846
3.74787
3.74822
3.75699
3.75114
3.76294
3.76117
3.75832
3.75546
3.76119
3.74347
3.75138
3.75061
3.75498
3.75773
3.75808
3.75343
3.75493
3.75688
3.7465
3.74279
3.74622
3.74752
3.7466
3.74635
3.74769
3.75542
3.75143
3.76016
3.75581
3.75791
3.75574
3.75793
3.75298
3.7481
3.75415
3.75005