/*--------------------------------*- C++ -*----------------------------------*\
| =========                 |                                                 |
| \\      /  F ield         | OpenFOAM: The Open Source CFD Toolbox           |
|  \\    /   O peration     | Version:  v1612+                                |
|   \\  /    A nd           | Web:      www.OpenFOAM.com                      |
|    \\/     M anipulation  |                                                 |
\*---------------------------------------------------------------------------*/
FoamFile
{
    version     2.0;
    format      ascii;
    class       volVectorField;
    location    "118";
    object      U;
}
// * * * * * * * * * * * * * * * * * * * * * * * * * * * * * * * * * * * * * //

dimensions      [0 1 -1 0 0 0 0];

internalField   nonuniform List<vector> 
21213
(
(0.167953 0.62237 -0.186913)
(0.125141 0.645424 -0.193592)
(0.116715 0.65521 -0.195382)
(0.152158 0.741657 -0.20065)
(0.208334 0.751126 -0.176661)
(0.150765 0.68794 -0.186686)
(0.162753 0.759481 -0.192052)
(0.166049 0.786154 -0.242924)
(0.16075 0.777838 -0.232234)
(0.214894 0.72282 -0.18436)
(0.149644 0.653164 -0.170729)
(0.216337 0.655619 -0.179555)
(0.134041 0.660466 -0.225036)
(0.15404 0.809541 -0.206562)
(0.157196 0.786151 -0.206622)
(0.166266 0.779007 -0.189051)
(0.192081 0.790554 -0.21301)
(0.143992 0.634888 -0.165861)
(0.0923357 0.71023 -0.181741)
(0.102204 0.699313 -0.194704)
(0.163303 0.744585 -0.206755)
(0.172806 0.716273 -0.193047)
(0.190146 0.790362 -0.20493)
(0.194193 0.798162 -0.205915)
(0.147225 0.733682 -0.194561)
(0.131624 0.714369 -0.200506)
(0.14363 0.688846 -0.192372)
(0.182639 0.757571 -0.199873)
(0.194811 0.824453 -0.220391)
(0.16846 0.727971 -0.226431)
(0.15283 0.751799 -0.224479)
(0.153948 0.730465 -0.214382)
(0.171213 0.799336 -0.229232)
(0.15267 0.732584 -0.207498)
(0.178986 0.783034 -0.238294)
(0.14921 0.759057 -0.203472)
(0.155293 0.712208 -0.177572)
(0.173768 0.812377 -0.194056)
(0.176921 0.801973 -0.194637)
(0.152298 0.723029 -0.212407)
(0.16716 0.819017 -0.216696)
(0.150377 0.652366 -0.168612)
(0.130665 0.651242 -0.171924)
(0.156742 0.751909 -0.201648)
(0.187141 0.779733 -0.231057)
(0.190859 0.77225 -0.214369)
(0.181618 0.788219 -0.204717)
(0.156965 0.795403 -0.220809)
(0.124429 0.762917 -0.21733)
(0.12558 0.769607 -0.221512)
(0.138747 0.662124 -0.140179)
(0.134054 0.666314 -0.243265)
(0.160563 0.690184 -0.177519)
(0.178348 0.771736 -0.196379)
(0.145318 0.632799 -0.180276)
(0.16003 0.670855 -0.183315)
(0.162082 0.733017 -0.185898)
(0.17614 0.741936 -0.191892)
(0.15127 0.734195 -0.192575)
(0.211624 0.737632 -0.209884)
(0.199802 0.784741 -0.216523)
(0.188297 0.755584 -0.200413)
(0.160552 0.744431 -0.21834)
(0.177392 0.757516 -0.212265)
(0.182864 0.776132 -0.220228)
(0.175228 0.658803 -0.148346)
(0.143927 0.793357 -0.204447)
(0.170346 0.647614 -0.229285)
(0.173803 0.697733 -0.245872)
(0.150509 0.792601 -0.218965)
(0.14238 0.782069 -0.206759)
(0.16282 0.725353 -0.214592)
(0.173538 0.726934 -0.206751)
(0.152599 0.709358 -0.204129)
(0.110304 0.722215 -0.226293)
(0.174234 0.741991 -0.208146)
(0.165107 0.749114 -0.191587)
(0.158632 0.723053 -0.206036)
(0.162532 0.761908 -0.217514)
(0.145422 0.69909 -0.185598)
(0.197196 0.753992 -0.196546)
(0.156176 0.709187 -0.180342)
(0.147927 0.744174 -0.213112)
(0.1935 0.770244 -0.182625)
(0.175685 0.630581 -0.17895)
(0.183565 0.765317 -0.204611)
(0.149315 0.622164 -0.168291)
(0.160584 0.630385 -0.16526)
(0.197721 0.759944 -0.206751)
(0.188923 0.752306 -0.204729)
(0.182952 0.736152 -0.193364)
(0.19539 0.77731 -0.215342)
(0.168432 0.717406 -0.202453)
(0.183486 0.778862 -0.222896)
(0.140574 0.792056 -0.227095)
(0.146159 0.787418 -0.194092)
(0.154715 0.702701 -0.20533)
(0.153706 0.694745 -0.20193)
(0.18221 0.798385 -0.202332)
(0.181542 0.823599 -0.235283)
(0.200455 0.755217 -0.182849)
(0.132424 0.657325 -0.183729)
(0.167476 0.774803 -0.223621)
(0.167929 0.724811 -0.177856)
(0.195695 0.749908 -0.207789)
(0.190484 0.722894 -0.208755)
(0.173257 0.719957 -0.196453)
(0.141125 0.664305 -0.172012)
(0.173494 0.717422 -0.196838)
(0.155915 0.79034 -0.187762)
(0.14802 0.798466 -0.184306)
(0.156279 0.762181 -0.223601)
(0.187538 0.708103 -0.21857)
(0.146256 0.775601 -0.199526)
(0.150653 0.783893 -0.172822)
(0.18696 0.756325 -0.224024)
(0.146769 0.690793 -0.198291)
(0.15542 0.673051 -0.179201)
(0.159845 0.678536 -0.176409)
(0.153467 0.710808 -0.181359)
(0.151777 0.690175 -0.177005)
(0.166564 0.775443 -0.201158)
(0.1059 0.700257 -0.234068)
(0.172449 0.716482 -0.187527)
(0.15389 0.680167 -0.18419)
(0.125319 0.766174 -0.226617)
(0.162393 0.742381 -0.225698)
(0.152833 0.694476 -0.21113)
(0.16178 0.781898 -0.240414)
(0.134478 0.753673 -0.210143)
(0.161315 0.763674 -0.224334)
(0.162062 0.756793 -0.225154)
(0.189444 0.781366 -0.22212)
(0.180914 0.755899 -0.20966)
(0.157947 0.740642 -0.128862)
(0.155233 0.729415 -0.129824)
(0.167884 0.775709 -0.224437)
(0.190551 0.76938 -0.221236)
(0.17203 0.767204 -0.231832)
(0.181641 0.790383 -0.232985)
(0.141968 0.627816 -0.181344)
(0.127241 0.700294 -0.23984)
(0.166436 0.758708 -0.164086)
(0.160899 0.761612 -0.161955)
(0.164871 0.775701 -0.172411)
(0.154484 0.773101 -0.171137)
(0.124788 0.705917 -0.127074)
(0.130823 0.720752 -0.127345)
(0.170754 0.752361 -0.187732)
(0.154364 0.735352 -0.177565)
(0.115746 0.642838 -0.174029)
(0.177097 0.732737 -0.192366)
(0.183995 0.750232 -0.207726)
(0.157583 0.62793 -0.196887)
(0.14707 0.627349 -0.198758)
(0.166804 0.759439 -0.183924)
(0.208453 0.728008 -0.197573)
(0.203862 0.71314 -0.200893)
(0.168649 0.734809 -0.199012)
(0.169702 0.70357 -0.180928)
(0.196306 0.700809 -0.209501)
(0.202181 0.744375 -0.23266)
(0.20152 0.728083 -0.229647)
(0.154868 0.752226 -0.187587)
(0.181448 0.661563 -0.224261)
(0.1769 0.73857 -0.209656)
(0.15061 0.661801 -0.18154)
(0.164349 0.768235 -0.155319)
(0.150859 0.749374 -0.213266)
(0.134717 0.693644 -0.200542)
(0.107371 0.674933 -0.180136)
(0.112789 0.657593 -0.181074)
(0.133811 0.636279 -0.18681)
(0.183988 0.711654 -0.192998)
(0.196281 0.790513 -0.222138)
(0.188382 0.733643 -0.200132)
(0.128077 0.74491 -0.154293)
(0.120705 0.721823 -0.152492)
(0.167882 0.725013 -0.197111)
(0.108501 0.713362 -0.190169)
(0.102161 0.759128 -0.208835)
(0.159088 0.752539 -0.249172)
(0.173681 0.737389 -0.254358)
(0.209105 0.722775 -0.211296)
(0.206212 0.760027 -0.21341)
(0.219416 0.701751 -0.219026)
(0.130016 0.643111 -0.175986)
(0.179742 0.740724 -0.217252)
(0.154077 0.674081 -0.177652)
(0.151646 0.69441 -0.176482)
(0.190447 0.751201 -0.197851)
(0.174382 0.728941 -0.183831)
(0.191399 0.771559 -0.191532)
(0.177337 0.757767 -0.194196)
(0.160652 0.635217 -0.191573)
(0.16551 0.628206 -0.209616)
(0.177101 0.658918 -0.254741)
(0.169297 0.663116 -0.237648)
(0.186476 0.768772 -0.16292)
(0.188382 0.768019 -0.165627)
(0.160796 0.703091 -0.179522)
(0.166801 0.735402 -0.192317)
(0.157218 0.688519 -0.174921)
(0.144412 0.624966 -0.165904)
(0.167341 0.766891 -0.19245)
(0.13843 0.732745 -0.200679)
(0.148661 0.635834 -0.150777)
(0.159944 0.770109 -0.18801)
(0.134142 0.711486 -0.203308)
(0.137184 0.771742 -0.221253)
(0.143037 0.765902 -0.227016)
(0.15074 0.780847 -0.230764)
(0.150152 0.755817 -0.200899)
(0.152631 0.682147 -0.176364)
(0.145039 0.683667 -0.173639)
(0.145291 0.783553 -0.179001)
(0.142239 0.788214 -0.197113)
(0.147759 0.648221 -0.188869)
(0.13505 0.788554 -0.201982)
(0.209635 0.675446 -0.219244)
(0.163386 0.627372 -0.176161)
(0.184967 0.638016 -0.188776)
(0.203694 0.626974 -0.202715)
(0.219975 0.640523 -0.198318)
(0.147191 0.714974 -0.194764)
(0.161262 0.75585 -0.199874)
(0.153724 0.778146 -0.22073)
(0.164296 0.817364 -0.23433)
(0.137984 0.6872 -0.200298)
(0.162595 0.740489 -0.256146)
(0.15784 0.745855 -0.25458)
(0.195059 0.761369 -0.15728)
(0.117839 0.658259 -0.151895)
(0.182375 0.751023 -0.199043)
(0.175113 0.694422 -0.186899)
(0.154393 0.7851 -0.204076)
(0.15721 0.65684 -0.186741)
(0.16881 0.740642 -0.191671)
(0.148568 0.701664 -0.178978)
(0.165815 0.782255 -0.196819)
(0.158189 0.708135 -0.204356)
(0.155575 0.719515 -0.206296)
(0.166125 0.698983 -0.178167)
(0.171889 0.707374 -0.190889)
(0.177222 0.752659 -0.206271)
(0.175506 0.75673 -0.241729)
(0.17802 0.782769 -0.244183)
(0.158776 0.723323 -0.228093)
(0.134432 0.67071 -0.184816)
(0.139304 0.67967 -0.184028)
(0.169915 0.720678 -0.211502)
(0.178722 0.733292 -0.215471)
(0.177789 0.739964 -0.226268)
(0.194024 0.773862 -0.182994)
(0.194047 0.762642 -0.1767)
(0.178066 0.776589 -0.22162)
(0.136711 0.651263 -0.172496)
(0.160858 0.785598 -0.20065)
(0.168945 0.631849 -0.15853)
(0.158899 0.744892 -0.207722)
(0.15204 0.703001 -0.200388)
(0.167872 0.676394 -0.171346)
(0.143215 0.693676 -0.130601)
(0.138181 0.64331 -0.1851)
(0.154276 0.739593 -0.213554)
(0.169015 0.758969 -0.183799)
(0.179863 0.764804 -0.190065)
(0.182073 0.789483 -0.191028)
(0.166532 0.716624 -0.181499)
(0.181374 0.782437 -0.183575)
(0.166678 0.673742 -0.123004)
(0.153178 0.634979 -0.157722)
(0.154257 0.77712 -0.208956)
(0.203779 0.744004 -0.194334)
(0.21921 0.721036 -0.19431)
(0.122372 0.772405 -0.213065)
(0.118099 0.761721 -0.228815)
(0.120186 0.756128 -0.214934)
(0.151534 0.727995 -0.198938)
(0.165957 0.77007 -0.206932)
(0.155716 0.660834 -0.18164)
(0.146332 0.64509 -0.18203)
(0.153768 0.657043 -0.178335)
(0.168187 0.70623 -0.193869)
(0.15888 0.671024 -0.18789)
(0.158528 0.669844 -0.183443)
(0.149868 0.642289 -0.168112)
(0.180143 0.788626 -0.220223)
(0.178316 0.724272 -0.208962)
(0.154665 0.668371 -0.191323)
(0.171924 0.768292 -0.225885)
(0.13112 0.770979 -0.200273)
(0.132874 0.75992 -0.195374)
(0.151101 0.730321 -0.198724)
(0.182445 0.766822 -0.194182)
(0.185784 0.779438 -0.17656)
(0.197075 0.749373 -0.157921)
(0.172571 0.716678 -0.179767)
(0.19691 0.758871 -0.174544)
(0.191213 0.744712 -0.182986)
(0.195883 0.761776 -0.176361)
(0.195447 0.750597 -0.172878)
(0.198274 0.745989 -0.1772)
(0.20834 0.668213 -0.195963)
(0.176065 0.635541 -0.191399)
(0.149894 0.628417 -0.172924)
(0.185468 0.752919 -0.171012)
(0.188484 0.743994 -0.179219)
(0.192844 0.749193 -0.179432)
(0.161155 0.773642 -0.199535)
(0.176908 0.738985 -0.25351)
(0.0954305 0.704366 -0.21121)
(0.169852 0.776079 -0.182635)
(0.170375 0.77842 -0.183788)
(0.171703 0.764701 -0.184705)
(0.177998 0.744486 -0.217541)
(0.17486 0.740399 -0.217248)
(0.115277 0.680877 -0.114972)
(0.127655 0.679121 -0.139799)
(0.137362 0.70497 -0.137979)
(0.177411 0.704807 -0.198363)
(0.15267 0.64822 -0.173793)
(0.173667 0.734739 -0.204522)
(0.154252 0.672285 -0.18379)
(0.140672 0.787554 -0.231247)
(0.142363 0.799732 -0.225438)
(0.132533 0.642398 -0.178923)
(0.149191 0.713986 -0.195299)
(0.112307 0.753951 -0.203231)
(0.13564 0.702132 -0.194543)
(0.14241 0.734165 -0.198783)
(0.150702 0.732836 -0.191506)
(0.157251 0.76454 -0.210469)
(0.159441 0.795979 -0.217354)
(0.156902 0.742863 -0.200402)
(0.151744 0.746939 -0.202557)
(0.171284 0.723965 -0.192578)
(0.177878 0.754233 -0.221516)
(0.159588 0.653667 -0.187413)
(0.11775 0.741889 -0.250803)
(0.158505 0.782589 -0.183594)
(0.178707 0.753709 -0.216039)
(0.159981 0.772753 -0.197634)
(0.142144 0.670858 -0.174017)
(0.145581 0.684125 -0.181335)
(0.151214 0.699981 -0.18407)
(0.164212 0.687199 -0.188369)
(0.161639 0.679758 -0.241056)
(0.155171 0.662539 -0.240721)
(0.173355 0.713885 -0.248275)
(0.171831 0.655275 -0.234496)
(0.193435 0.749376 -0.190038)
(0.195683 0.769802 -0.191724)
(0.143062 0.673895 -0.183025)
(0.169226 0.756476 -0.200081)
(0.158524 0.722545 -0.190586)
(0.147794 0.677216 -0.176819)
(0.172801 0.746882 -0.222817)
(0.157843 0.672731 -0.202453)
(0.170986 0.757057 -0.230347)
(0.164483 0.709185 -0.211995)
(0.17482 0.651149 -0.126386)
(0.182391 0.757917 -0.156569)
(0.187452 0.762376 -0.152921)
(0.198795 0.754386 -0.155197)
(0.188984 0.7523 -0.147183)
(0.195521 0.732013 -0.21296)
(0.195514 0.746278 -0.20459)
(0.173446 0.707922 -0.212838)
(0.179257 0.723635 -0.215639)
(0.153125 0.797003 -0.211887)
(0.125834 0.741521 -0.243008)
(0.140799 0.7573 -0.241962)
(0.133019 0.757997 -0.250108)
(0.186999 0.721112 -0.17123)
(0.193948 0.763037 -0.179226)
(0.202573 0.740609 -0.168896)
(0.189656 0.756779 -0.224982)
(0.188763 0.744564 -0.21879)
(0.145987 0.68149 -0.180611)
(0.140682 0.698071 -0.200208)
(0.150666 0.692669 -0.204335)
(0.174496 0.70767 -0.1913)
(0.141837 0.705709 -0.188513)
(0.159187 0.736905 -0.189364)
(0.186487 0.761047 -0.202566)
(0.150578 0.712503 -0.19016)
(0.111343 0.722794 -0.165862)
(0.150423 0.729841 -0.212639)
(0.147488 0.762486 -0.201958)
(0.171926 0.766491 -0.171002)
(0.162724 0.731293 -0.182583)
(0.145006 0.658951 -0.186969)
(0.15786 0.771089 -0.238742)
(0.147145 0.639341 -0.177054)
(0.177848 0.748762 -0.203783)
(0.182747 0.760848 -0.173354)
(0.162908 0.769082 -0.198678)
(0.158738 0.784427 -0.21521)
(0.141352 0.737147 -0.195671)
(0.146041 0.767509 -0.20734)
(0.178661 0.769037 -0.197049)
(0.150583 0.704447 -0.180397)
(0.165729 0.701663 -0.132121)
(0.152301 0.726241 -0.196943)
(0.155428 0.741172 -0.203697)
(0.213003 0.722691 -0.216505)
(0.212099 0.746208 -0.227292)
(0.21236 0.714462 -0.210955)
(0.188873 0.784725 -0.221752)
(0.173399 0.634761 -0.192376)
(0.178919 0.758928 -0.200011)
(0.181827 0.742143 -0.143264)
(0.168622 0.764007 -0.183729)
(0.152492 0.783172 -0.201734)
(0.126463 0.771848 -0.190909)
(0.115405 0.763618 -0.188942)
(0.147838 0.69283 -0.201268)
(0.17329 0.733479 -0.13018)
(0.179346 0.749492 -0.178619)
(0.148373 0.661208 -0.163968)
(0.153488 0.757244 -0.227326)
(0.16171 0.75658 -0.141605)
(0.184653 0.715054 -0.201383)
(0.138574 0.682852 -0.195407)
(0.133892 0.644555 -0.239924)
(0.196444 0.680798 -0.157988)
(0.195006 0.709262 -0.158655)
(0.140842 0.696042 -0.193441)
(0.149642 0.78173 -0.204543)
(0.131258 0.643617 -0.16698)
(0.13969 0.635015 -0.175945)
(0.111336 0.63985 -0.170544)
(0.1461 0.632777 -0.169905)
(0.145237 0.769631 -0.162159)
(0.168008 0.791025 -0.187295)
(0.148529 0.731091 -0.193041)
(0.155161 0.677383 -0.17473)
(0.170406 0.788624 -0.23913)
(0.146362 0.632183 -0.178112)
(0.160768 0.755044 -0.200717)
(0.217041 0.702537 -0.17858)
(0.163354 0.766332 -0.189109)
(0.151632 0.714868 -0.17933)
(0.12851 0.788273 -0.212847)
(0.147409 0.627313 -0.183705)
(0.172415 0.789215 -0.224791)
(0.152744 0.686253 -0.198926)
(0.153673 0.677701 -0.179951)
(0.155241 0.66904 -0.175809)
(0.172493 0.718837 -0.199823)
(0.151152 0.635904 -0.173379)
(0.187283 0.779615 -0.233732)
(0.151332 0.733402 -0.191544)
(0.143231 0.623564 -0.189042)
(0.143904 0.754924 -0.222448)
(0.182379 0.715052 -0.229719)
(0.176998 0.662443 -0.122271)
(0.134345 0.693751 -0.253806)
(0.186476 0.766937 -0.24166)
(0.16747 0.762953 -0.232848)
(0.141694 0.725439 -0.206556)
(0.177041 0.767153 -0.239059)
(0.143164 0.781434 -0.173977)
(0.129036 0.783868 -0.218886)
(0.124209 0.77664 -0.187331)
(0.118807 0.742913 -0.166994)
(0.134073 0.776786 -0.178469)
(0.179776 0.734473 -0.206101)
(0.145798 0.749406 -0.228952)
(0.152984 0.741677 -0.218051)
(0.155275 0.748354 -0.189771)
(0.157642 0.764372 -0.193307)
(0.154301 0.73996 -0.137711)
(0.183062 0.727772 -0.146258)
(0.193847 0.725409 -0.13502)
(0.101393 0.757264 -0.19786)
(0.139517 0.662085 -0.192992)
(0.150553 0.751311 -0.199219)
(0.216645 0.727892 -0.214058)
(0.207179 0.734513 -0.212162)
(0.117943 0.739301 -0.150864)
(0.124179 0.704467 -0.160304)
(0.15925 0.761663 -0.186283)
(0.147466 0.781139 -0.183224)
(0.165846 0.699653 -0.203545)
(0.162564 0.689112 -0.198341)
(0.166366 0.710382 -0.212883)
(0.155361 0.672559 -0.187183)
(0.156592 0.687296 -0.197134)
(0.188551 0.73205 -0.220789)
(0.178361 0.727238 -0.227052)
(0.18328 0.759233 -0.242688)
(0.165016 0.681653 -0.189764)
(0.148297 0.688631 -0.181535)
(0.180705 0.643918 -0.148162)
(0.17546 0.632472 -0.156332)
(0.155887 0.634795 -0.159553)
(0.189143 0.795491 -0.216905)
(0.151019 0.728407 -0.213985)
(0.219138 0.699686 -0.218908)
(0.160367 0.669459 -0.178713)
(0.139457 0.694133 -0.188406)
(0.154146 0.762892 -0.20667)
(0.150138 0.78638 -0.225212)
(0.152735 0.754955 -0.157344)
(0.162905 0.695045 -0.187915)
(0.121417 0.691757 -0.152437)
(0.162032 0.707804 -0.184556)
(0.174113 0.755157 -0.233217)
(0.163266 0.778271 -0.183753)
(0.129868 0.630175 -0.178954)
(0.146061 0.616761 -0.165449)
(0.166695 0.754957 -0.192029)
(0.213858 0.723476 -0.213323)
(0.123979 0.656226 -0.182259)
(0.129415 0.745925 -0.200234)
(0.218421 0.698263 -0.200762)
(0.112988 0.766778 -0.20486)
(0.124923 0.593085 -0.172109)
(0.17887 0.719899 -0.209165)
(0.133175 0.665419 -0.200704)
(0.10829 0.739272 -0.192843)
(0.110959 0.754294 -0.185085)
(0.183236 0.777615 -0.202222)
(0.102895 0.746815 -0.204426)
(0.160109 0.758237 -0.229842)
(0.171615 0.787439 -0.200794)
(0.15343 0.625463 -0.156522)
(0.140781 0.748911 -0.188138)
(0.142599 0.668374 -0.185762)
(0.162744 0.769281 -0.194623)
(0.136089 0.680537 -0.199603)
(0.145931 0.692577 -0.199218)
(0.192649 0.768782 -0.227299)
(0.187221 0.77082 -0.222573)
(0.171425 0.796309 -0.230376)
(0.157096 0.677137 -0.184253)
(0.169621 0.71366 -0.194699)
(0.15075 0.783315 -0.190692)
(0.157859 0.671609 -0.262892)
(0.173951 0.755446 -0.223178)
(0.167193 0.717392 -0.208911)
(0.207519 0.637607 -0.16864)
(0.173573 0.741047 -0.186765)
(0.158469 0.661805 -0.169097)
(0.153787 0.780922 -0.204631)
(0.183658 0.764766 -0.186088)
(0.140194 0.674623 -0.186828)
(0.134489 0.609591 -0.17096)
(0.17682 0.751473 -0.204297)
(0.154674 0.748891 -0.192888)
(0.154616 0.772931 -0.216204)
(0.137558 0.718151 -0.201552)
(0.183545 0.716934 -0.213756)
(0.155417 0.762991 -0.198545)
(0.169485 0.708444 -0.180718)
(0.166291 0.689584 -0.182908)
(0.174419 0.71523 -0.184509)
(0.19092 0.769321 -0.189186)
(0.192995 0.767427 -0.187819)
(0.146471 0.775203 -0.199271)
(0.148227 0.771523 -0.195081)
(0.180247 0.767206 -0.225243)
(0.16584 0.69675 -0.203169)
(0.157597 0.673098 -0.203226)
(0.163947 0.698233 -0.210711)
(0.171189 0.681105 -0.219082)
(0.186945 0.667707 -0.168132)
(0.183823 0.805666 -0.237311)
(0.163284 0.828094 -0.230671)
(0.181956 0.850802 -0.247032)
(0.170469 0.841542 -0.22448)
(0.14543 0.686079 -0.188203)
(0.18784 0.820766 -0.227447)
(0.171705 0.813554 -0.208519)
(0.11662 0.67552 -0.174987)
(0.130228 0.775542 -0.209736)
(0.184065 0.873015 -0.238035)
(0.169204 0.723971 -0.191242)
(0.15848 0.790808 -0.185146)
(0.180514 0.697655 -0.201134)
(0.192152 0.777526 -0.197267)
(0.162096 0.72344 -0.20986)
(0.208429 0.757969 -0.223044)
(0.194896 0.662627 -0.114105)
(0.181252 0.738972 -0.169)
(0.124191 0.687781 -0.196744)
(0.13679 0.637973 -0.183104)
(0.131865 0.688244 -0.2116)
(0.144564 0.635199 -0.177752)
(0.150854 0.654368 -0.194335)
(0.138685 0.703123 -0.237081)
(0.142457 0.643909 -0.171332)
(0.173176 0.680304 -0.217873)
(0.144498 0.630933 -0.17574)
(0.173052 0.652155 -0.192975)
(0.155201 0.666275 -0.174179)
(0.173278 0.672066 -0.174346)
(0.150665 0.632929 -0.176946)
(0.137926 0.637128 -0.164177)
(0.139542 0.632146 -0.169901)
(0.181807 0.778319 -0.242547)
(0.159588 0.696465 -0.203361)
(0.176528 0.810761 -0.240042)
(0.141554 0.799618 -0.21933)
(0.154695 0.809454 -0.221156)
(0.143894 0.77387 -0.20995)
(0.156441 0.823991 -0.214984)
(0.129498 0.767747 -0.221853)
(0.139685 0.714255 -0.232937)
(0.144683 0.779538 -0.240184)
(0.174273 0.803144 -0.23951)
(0.162034 0.749719 -0.229006)
(0.165691 0.794041 -0.243372)
(0.153409 0.721905 -0.215779)
(0.134542 0.755526 -0.213491)
(0.158052 0.813171 -0.231245)
(0.147472 0.79468 -0.241283)
(0.153944 0.742127 -0.205901)
(0.143571 0.774721 -0.21373)
(0.159564 0.805494 -0.240212)
(0.148882 0.689011 -0.199614)
(0.168823 0.73075 -0.207927)
(0.183457 0.85464 -0.245432)
(0.156064 0.710837 -0.204426)
(0.152721 0.68259 -0.195335)
(0.192278 0.849536 -0.245181)
(0.149712 0.752994 -0.202543)
(0.153272 0.723457 -0.190657)
(0.146423 0.740997 -0.204563)
(0.181726 0.859083 -0.246425)
(0.184022 0.85938 -0.24019)
(0.187041 0.8694 -0.247053)
(0.141076 0.682271 -0.191421)
(0.168134 0.843406 -0.23025)
(0.146919 0.707813 -0.199056)
(0.162162 0.809017 -0.223773)
(0.194793 0.823808 -0.220807)
(0.189673 0.801467 -0.232408)
(0.198084 0.826417 -0.229316)
(0.192872 0.814523 -0.225884)
(0.19511 0.827984 -0.236232)
(0.181604 0.798033 -0.198164)
(0.180459 0.835571 -0.210871)
(0.148376 0.680661 -0.167861)
(0.163427 0.769512 -0.191988)
(0.156248 0.756479 -0.197687)
(0.162898 0.671258 -0.179805)
(0.190616 0.81919 -0.220618)
(0.196394 0.80082 -0.214714)
(0.18518 0.765123 -0.212628)
(0.193063 0.817387 -0.211239)
(0.182468 0.818106 -0.210359)
(0.167411 0.751766 -0.192063)
(0.182753 0.789251 -0.204224)
(0.170857 0.680249 -0.220089)
(0.15968 0.661815 -0.220998)
(0.14943 0.631852 -0.180928)
(0.106891 0.690987 -0.221137)
(0.126511 0.647536 -0.189558)
(0.0988985 0.728543 -0.201809)
(0.121303 0.775632 -0.213669)
(0.173104 0.81116 -0.234061)
(0.159318 0.734975 -0.211895)
(0.150213 0.758412 -0.21497)
(0.163802 0.801488 -0.234318)
(0.163664 0.795249 -0.223361)
(0.150944 0.67536 -0.194629)
(0.18602 0.826625 -0.227145)
(0.20076 0.862061 -0.235397)
(0.193022 0.855931 -0.241072)
(0.195462 0.840776 -0.234112)
(0.192408 0.835566 -0.234959)
(0.196545 0.852134 -0.245314)
(0.178006 0.854859 -0.224186)
(0.147893 0.662846 -0.177489)
(0.159942 0.746811 -0.19259)
(0.187669 0.836879 -0.217129)
(0.167511 0.757686 -0.195214)
(0.198644 0.86516 -0.23352)
(0.179071 0.844379 -0.23222)
(0.187514 0.866167 -0.230824)
(0.191854 0.849335 -0.236568)
(0.186192 0.854977 -0.237101)
(0.184829 0.859835 -0.227213)
(0.166897 0.78621 -0.20932)
(0.186075 0.834636 -0.217793)
(0.183028 0.819966 -0.212848)
(0.190006 0.856344 -0.224746)
(0.183497 0.777864 -0.218031)
(0.184085 0.789861 -0.227935)
(0.190912 0.781009 -0.231658)
(0.182516 0.763129 -0.21805)
(0.169503 0.784377 -0.205482)
(0.178749 0.793591 -0.191729)
(0.155103 0.776213 -0.193408)
(0.171029 0.818849 -0.206006)
(0.161054 0.767036 -0.185452)
(0.155879 0.810149 -0.207967)
(0.196842 0.768224 -0.187156)
(0.206259 0.732591 -0.190097)
(0.15136 0.686231 -0.182271)
(0.186326 0.724396 -0.195397)
(0.188447 0.725019 -0.169661)
(0.178141 0.685671 -0.174143)
(0.17274 0.719197 -0.193265)
(0.19812 0.764506 -0.219371)
(0.183516 0.791304 -0.208466)
(0.198635 0.794838 -0.210436)
(0.200392 0.802222 -0.223989)
(0.189622 0.765345 -0.209564)
(0.183161 0.764962 -0.202367)
(0.202075 0.739111 -0.210382)
(0.187022 0.744302 -0.199122)
(0.200631 0.771289 -0.194699)
(0.198803 0.788577 -0.208833)
(0.175734 0.761926 -0.183705)
(0.151119 0.710225 -0.185809)
(0.165743 0.763976 -0.215304)
(0.170992 0.725866 -0.200543)
(0.158469 0.758715 -0.19363)
(0.15341 0.740269 -0.196752)
(0.175268 0.749168 -0.205972)
(0.149262 0.629301 -0.170937)
(0.173694 0.679732 -0.219834)
(0.183128 0.658656 -0.224862)
(0.147144 0.630672 -0.180802)
(0.170179 0.692205 -0.201627)
(0.122706 0.630852 -0.149866)
(0.146262 0.683764 -0.147447)
(0.148055 0.628362 -0.162443)
(0.168099 0.659966 -0.148296)
(0.155005 0.640573 -0.165069)
(0.162127 0.770627 -0.171441)
(0.1682 0.75589 -0.183567)
(0.165913 0.689281 -0.135877)
(0.160883 0.725984 -0.166679)
(0.201664 0.759467 -0.165414)
(0.172044 0.686771 -0.142437)
(0.194265 0.732364 -0.161542)
(0.176126 0.724003 -0.226746)
(0.161174 0.720701 -0.23985)
(0.164707 0.703056 -0.214537)
(0.157152 0.693046 -0.221347)
(0.168621 0.701601 -0.226844)
(0.170209 0.704761 -0.231434)
(0.15754 0.696092 -0.220713)
(0.176288 0.643256 -0.177661)
(0.215138 0.739231 -0.195787)
(0.179712 0.656848 -0.172163)
(0.206925 0.690805 -0.168151)
(0.186179 0.666053 -0.160757)
(0.193503 0.665347 -0.177671)
(0.186793 0.824735 -0.239751)
(0.179496 0.824159 -0.246542)
(0.179306 0.81211 -0.233558)
(0.1765 0.817192 -0.239081)
(0.183248 0.815671 -0.239701)
(0.185073 0.815877 -0.242261)
(0.176571 0.818815 -0.238628)
(0.167736 0.827566 -0.222267)
(0.162194 0.789306 -0.21525)
(0.168417 0.814809 -0.222066)
(0.162626 0.798426 -0.221408)
(0.162385 0.831588 -0.226147)
(0.161441 0.828615 -0.224569)
(0.162641 0.804366 -0.220136)
(0.178417 0.772531 -0.234158)
(0.170247 0.779761 -0.245424)
(0.182513 0.771199 -0.239094)
(0.176176 0.773725 -0.243333)
(0.169611 0.782789 -0.243641)
(0.178171 0.788284 -0.244906)
(0.179104 0.777795 -0.244096)
(0.174787 0.753514 -0.2437)
(0.171821 0.773431 -0.248579)
(0.167425 0.759953 -0.248211)
(0.163807 0.743635 -0.236264)
(0.167778 0.736821 -0.236074)
(0.135454 0.714681 -0.208883)
(0.184307 0.829117 -0.239184)
(0.181107 0.836369 -0.23675)
(0.177753 0.81644 -0.232536)
(0.178431 0.834758 -0.237839)
(0.185492 0.840286 -0.244344)
(0.184337 0.844931 -0.244358)
(0.177868 0.829937 -0.236638)
(0.168148 0.836162 -0.223197)
(0.160829 0.81625 -0.224436)
(0.168798 0.828745 -0.224852)
(0.17061 0.84513 -0.231014)
(0.168036 0.827483 -0.222595)
(0.165229 0.825071 -0.222202)
(0.171874 0.843554 -0.232654)
(0.135506 0.641143 -0.167334)
(0.154896 0.751255 -0.21187)
(0.163175 0.799151 -0.215469)
(0.139735 0.690973 -0.186127)
(0.149139 0.73077 -0.195355)
(0.184175 0.819121 -0.235878)
(0.186362 0.803651 -0.223904)
(0.178047 0.808794 -0.229752)
(0.184695 0.805164 -0.224033)
(0.188062 0.817544 -0.229837)
(0.18932 0.820498 -0.229404)
(0.183726 0.803709 -0.224284)
(0.169004 0.831701 -0.219071)
(0.176368 0.834923 -0.21545)
(0.168568 0.818523 -0.219245)
(0.175798 0.820231 -0.213781)
(0.172178 0.821757 -0.212658)
(0.173464 0.821862 -0.212324)
(0.173552 0.819159 -0.215651)
(0.176398 0.741455 -0.188438)
(0.197405 0.839613 -0.222578)
(0.185015 0.784423 -0.21019)
(0.181357 0.770717 -0.210788)
(0.166782 0.723397 -0.199531)
(0.154539 0.679848 -0.181302)
(0.182678 0.798451 -0.199673)
(0.171137 0.697007 -0.176928)
(0.170385 0.769022 -0.187082)
(0.181575 0.751783 -0.194394)
(0.139271 0.701417 -0.256494)
(0.156119 0.712454 -0.262)
(0.128808 0.655596 -0.170744)
(0.116468 0.696005 -0.196978)
(0.122387 0.681768 -0.172909)
(0.116971 0.698629 -0.190865)
(0.121354 0.65752 -0.174232)
(0.109107 0.665544 -0.176245)
(0.117945 0.690449 -0.188964)
(0.132643 0.74277 -0.18739)
(0.135632 0.785404 -0.192832)
(0.130361 0.743683 -0.19455)
(0.165164 0.762575 -0.215528)
(0.152483 0.696196 -0.191988)
(0.195027 0.848837 -0.219194)
(0.160031 0.677637 -0.181188)
(0.179383 0.788129 -0.207209)
(0.127622 0.574513 -0.155599)
(0.174636 0.745131 -0.198471)
(0.177855 0.849637 -0.229493)
(0.186107 0.867619 -0.230079)
(0.168378 0.823907 -0.222501)
(0.182985 0.865457 -0.228962)
(0.181265 0.870607 -0.23384)
(0.184178 0.868856 -0.234871)
(0.178722 0.861534 -0.227498)
(0.183307 0.861935 -0.226484)
(0.182807 0.849856 -0.226404)
(0.182223 0.849888 -0.229662)
(0.19572 0.845037 -0.220651)
(0.192096 0.849622 -0.2203)
(0.187878 0.807172 -0.213541)
(0.193247 0.836486 -0.215564)
(0.192047 0.840706 -0.216246)
(0.191568 0.840145 -0.215816)
(0.191334 0.829269 -0.214711)
(0.156702 0.747762 -0.196425)
(0.184776 0.745012 -0.205636)
(0.168381 0.702942 -0.198043)
(0.181388 0.729977 -0.201035)
(0.135007 0.77984 -0.193515)
(0.146986 0.760351 -0.196709)
(0.136532 0.771203 -0.186715)
(0.148278 0.755903 -0.189108)
(0.149467 0.797325 -0.190728)
(0.152382 0.795924 -0.187988)
(0.142166 0.767957 -0.189585)
(0.164812 0.705927 -0.209934)
(0.182001 0.73153 -0.208532)
(0.175579 0.722474 -0.222349)
(0.184532 0.72856 -0.211788)
(0.175348 0.700274 -0.202599)
(0.177073 0.702192 -0.202006)
(0.183495 0.72564 -0.212514)
(0.190034 0.811129 -0.197595)
(0.193423 0.788464 -0.196004)
(0.17666 0.760476 -0.184566)
(0.192356 0.794354 -0.19575)
(0.19362 0.801671 -0.204431)
(0.196703 0.801213 -0.2113)
(0.193001 0.795873 -0.197585)
(0.16849 0.688385 -0.17704)
(0.197805 0.780033 -0.195494)
(0.186838 0.773133 -0.188172)
(0.193732 0.755893 -0.196041)
(0.186943 0.742727 -0.186113)
(0.175992 0.756746 -0.226309)
(0.180043 0.733814 -0.208829)
(0.180677 0.755752 -0.230772)
(0.178106 0.727757 -0.209831)
(0.168113 0.737794 -0.215692)
(0.167563 0.731427 -0.209925)
(0.180162 0.738327 -0.219744)
(0.189223 0.732897 -0.211097)
(0.194273 0.777772 -0.238838)
(0.200825 0.740122 -0.223486)
(0.206388 0.743955 -0.225986)
(0.198475 0.744858 -0.233308)
(0.190846 0.710047 -0.220887)
(0.205046 0.741906 -0.23107)
(0.131644 0.75787 -0.185789)
(0.139135 0.785385 -0.188048)
(0.144394 0.652546 -0.13596)
(0.214903 0.641949 -0.150357)
(0.182692 0.668388 -0.16005)
(0.182137 0.643637 -0.153125)
(0.196774 0.6774 -0.161655)
(0.175112 0.639214 -0.155188)
(0.195478 0.680809 -0.155343)
(0.187761 0.772361 -0.17668)
(0.176608 0.744699 -0.164364)
(0.192084 0.778862 -0.173468)
(0.144408 0.630106 -0.17365)
(0.143312 0.632732 -0.18736)
(0.134682 0.695268 -0.183046)
(0.139225 0.651192 -0.179184)
(0.141034 0.689674 -0.189135)
(0.135441 0.662471 -0.18841)
(0.125448 0.684559 -0.186132)
(0.123877 0.679615 -0.184531)
(0.135489 0.670373 -0.186038)
(0.133746 0.655444 -0.21233)
(0.151212 0.660771 -0.202216)
(0.139863 0.687923 -0.206931)
(0.142413 0.720762 -0.245339)
(0.143603 0.6706 -0.21276)
(0.151065 0.688705 -0.221668)
(0.150103 0.691337 -0.2208)
(0.1419 0.667844 -0.212413)
(0.128425 0.650845 -0.187611)
(0.142543 0.632306 -0.172888)
(0.145373 0.628194 -0.174553)
(0.141656 0.638549 -0.188845)
(0.133069 0.63686 -0.184378)
(0.140744 0.632543 -0.177904)
(0.139403 0.638697 -0.194282)
(0.130094 0.678215 -0.203015)
(0.149116 0.6685 -0.195775)
(0.142849 0.635916 -0.1775)
(0.144711 0.649237 -0.195151)
(0.136832 0.657945 -0.186231)
(0.140478 0.660869 -0.185692)
(0.138556 0.649065 -0.191538)
(0.155962 0.664464 -0.223154)
(0.14225 0.71901 -0.250136)
(0.134633 0.646729 -0.214023)
(0.137562 0.663552 -0.211807)
(0.144865 0.662575 -0.225628)
(0.146526 0.692848 -0.255829)
(0.139128 0.651303 -0.205853)
(0.143694 0.641707 -0.16975)
(0.165021 0.727836 -0.191469)
(0.157181 0.679919 -0.179874)
(0.143875 0.663704 -0.169436)
(0.150243 0.648417 -0.169655)
(0.15148 0.677363 -0.184732)
(0.149328 0.652728 -0.169153)
(0.130158 0.675953 -0.173424)
(0.139436 0.659418 -0.175671)
(0.14378 0.680227 -0.169152)
(0.147253 0.670331 -0.169412)
(0.138307 0.664587 -0.177679)
(0.193096 0.736471 -0.23)
(0.167503 0.688051 -0.202451)
(0.198685 0.723611 -0.221996)
(0.169568 0.681516 -0.20115)
(0.179688 0.700334 -0.217548)
(0.170217 0.687385 -0.21518)
(0.179274 0.689602 -0.204438)
(0.147754 0.632104 -0.179932)
(0.146242 0.63029 -0.170963)
(0.176381 0.667002 -0.175619)
(0.187574 0.671902 -0.195892)
(0.157637 0.630656 -0.173729)
(0.163163 0.64461 -0.183264)
(0.173018 0.649932 -0.175648)
(0.174599 0.653428 -0.180585)
(0.159983 0.643105 -0.17434)