/*--------------------------------*- C++ -*----------------------------------*\
| =========                 |                                                 |
| \\      /  F ield         | OpenFOAM: The Open Source CFD Toolbox           |
|  \\    /   O peration     | Version:  v1612+                                |
|   \\  /    A nd           | Web:      www.OpenFOAM.com                      |
|    \\/     M anipulation  |                                                 |
\*---------------------------------------------------------------------------*/
FoamFile
{
    version     2.0;
    format      ascii;
    class       volVectorField;
    location    "118";
    object      wallShearStress;
}
// * * * * * * * * * * * * * * * * * * * * * * * * * * * * * * * * * * * * * //

dimensions      [0 2 -2 0 0 0 0];

internalField   uniform (0 0 0);

boundaryField
{
    WALL
    {
        type            calculated;
        value           nonuniform List<vector> 
1466
(
(-0.00370814 -0.0163017 0.00425928)
(-0.00371797 -0.017264 0.00461175)
(-0.00781488 -0.0335071 0.00985862)
(-0.00767222 -0.0312712 0.00921488)
(-0.00626597 -0.0330353 0.00856315)
(-0.00656685 -0.0314738 0.00754072)
(-0.0040628 -0.0185409 0.00477668)
(-0.004585 -0.0205509 0.00556182)
(-0.00462771 -0.0204921 0.00529912)
(-0.00380605 -0.0173998 0.00477237)
(-0.00386175 -0.0170748 0.00470693)
(-0.00421784 -0.0192088 0.00521043)
(-0.00377599 -0.0190237 0.00557931)
(-0.00434539 -0.0197558 0.00549145)
(-0.00470749 -0.0212283 0.00558122)
(-0.0045563 -0.0207233 0.00545226)
(-0.00399828 -0.0198445 0.00530622)
(-0.00386621 -0.019564 0.00512418)
(-0.00482542 -0.0206722 0.00555839)
(-0.00847881 -0.0347955 0.00853042)
(-0.0496649 -0.106017 0.0206973)
(-0.0100781 -0.0388997 0.0110826)
(-0.0186335 -0.0610914 0.0112728)
(-0.0171305 -0.0523114 0.0140132)
(-0.0311876 -0.0750106 0.0171188)
(-0.00362192 -0.0167691 0.00443344)
(-0.00376493 -0.0164433 0.00458225)
(-0.00350263 -0.0161568 0.00437208)
(-0.00355459 -0.0165651 0.00445551)
(-0.00387669 -0.0168385 0.00458099)
(-0.00351007 -0.0162367 0.00449126)
(-0.0320876 -0.0692606 0.0162597)
(-0.0226643 -0.0708303 0.0118601)
(-0.0150545 -0.050983 0.0113371)
(-0.0112378 -0.0501829 0.00978652)
(-0.0432508 -0.124414 0.0069185)
(-0.0214385 -0.0699426 0.0356593)
(-0.0588478 -0.119976 0.048125)
(-0.0264801 -0.065712 0.0101534)
(-0.0544038 -0.110167 0.0387106)
(-0.00534663 -0.0201745 0.00623617)
(-0.00465531 -0.0191623 0.00560867)
(-0.00454818 -0.0202648 0.00546597)
(-0.00420706 -0.0191951 0.00480853)
(-0.00417703 -0.0186008 0.00486015)
(-0.00471413 -0.0190704 0.00577285)
(-0.00473898 -0.0209104 0.00556786)
(-0.00431205 -0.020336 0.00575518)
(-0.00510635 -0.0234539 0.00605705)
(-0.00492703 -0.0236666 0.00645996)
(-0.00482747 -0.0219347 0.00599666)
(-0.0048711 -0.0223256 0.00609794)
(-0.00883325 -0.0566618 0.0130676)
(0.00369419 -0.118256 0.0320687)
(-0.00681135 -0.0788826 0.0232994)
(-0.00857505 -0.0564041 0.0159182)
(-0.00809571 -0.0779371 0.0199771)
(-0.00770318 -0.0405007 0.0109896)
(-0.00353102 -0.0163215 0.00446808)
(-0.00359782 -0.0161727 0.00436258)
(-0.00356093 -0.016008 0.00422937)
(-0.0034191 -0.0161901 0.00445761)
(-0.003733 -0.0160808 0.00435193)
(-0.00348471 -0.0160348 0.00432121)
(-0.00344473 -0.0154318 0.00416772)
(-0.00391917 -0.0166576 0.004569)
(-0.00368271 -0.0163301 0.00444214)
(-0.00639444 -0.0285011 0.00841995)
(-0.00688282 -0.0327576 0.0100367)
(-0.0081328 -0.037687 0.0119794)
(-0.00924765 -0.0420475 0.0131549)
(-0.00874448 -0.0375157 0.0113137)
(-0.00706509 -0.0308817 0.00917117)
(-0.00416621 -0.0185716 0.00513938)
(-0.00419209 -0.0186049 0.00509325)
(-0.00439727 -0.0186414 0.00513528)
(-0.00407485 -0.018229 0.00506029)
(-0.00421719 -0.0187527 0.00528503)
(-0.00363697 -0.0173789 0.0049692)
(-0.00396671 -0.0177654 0.00443661)
(-0.00358471 -0.0167298 0.00415546)
(-0.00337689 -0.0158172 0.00447713)
(-0.00433599 -0.0187144 0.00502631)
(-0.0035512 -0.016399 0.00491242)
(-0.00415252 -0.0186418 0.00510019)
(-0.0041379 -0.018806 0.0051887)
(-0.00400295 -0.0179863 0.00468254)
(-0.00395843 -0.018029 0.00479608)
(-0.00402409 -0.0177668 0.00499067)
(-0.00441032 -0.0208753 0.00601142)
(-0.00424845 -0.0198676 0.00575297)
(-0.00459874 -0.0217641 0.00606167)
(-0.0044043 -0.0200699 0.00532442)
(-0.00422019 -0.0209919 0.00642048)
(-0.00453063 -0.02162 0.00570505)
(-0.00481987 -0.0231021 0.00662699)
(-0.00469262 -0.0220686 0.00613586)
(-0.00454075 -0.0211327 0.00582276)
(-0.00456359 -0.0210937 0.00591323)
(-0.00477619 -0.0221704 0.00602329)
(-0.00465078 -0.0219313 0.00580897)
(-0.00401663 -0.0184533 0.00489019)
(-0.00411597 -0.0179726 0.00455398)
(-0.00401458 -0.0185178 0.00472841)
(-0.00392772 -0.0176624 0.0048208)
(-0.00402508 -0.0182601 0.00491324)
(-0.00371326 -0.0177194 0.00490684)
(-0.00410665 -0.0187644 0.00516253)
(-0.00468697 -0.0191013 0.00545338)
(-0.00407982 -0.0183573 0.00505295)
(-0.00407235 -0.017422 0.00512568)
(-0.00370239 -0.0176127 0.00456928)
(-0.00449905 -0.0187754 0.00540358)
(-0.00361312 -0.0163414 0.00400942)
(-0.00364705 -0.0172904 0.00495247)
(-0.00354992 -0.0159576 0.00471005)
(-0.00370921 -0.0165323 0.00468764)
(-0.00369203 -0.0166261 0.0049185)
(-0.00438729 -0.019155 0.00504778)
(-0.00412408 -0.0185853 0.00507075)
(-0.0039824 -0.0180614 0.00473604)
(-0.0042417 -0.0184299 0.00499834)
(-0.00426151 -0.0192354 0.00540533)
(-0.00378325 -0.0176418 0.00490628)
(-0.00381336 -0.0168569 0.00465234)
(-0.0037979 -0.0165991 0.00459768)
(-0.00357661 -0.0162339 0.00448227)
(-0.00373975 -0.0162844 0.00432069)
(-0.00371607 -0.0168813 0.00465806)
(-0.00379652 -0.01662 0.00443965)
(-0.00338237 -0.0156207 0.004369)
(-0.00357598 -0.0158063 0.00431571)
(-0.00348895 -0.0158414 0.00469665)
(-0.00390253 -0.0162423 0.00424941)
(-0.00344276 -0.0164137 0.00475297)
(-0.00381075 -0.016728 0.0043664)
(-0.004857 -0.021034 0.00586087)
(-0.00481723 -0.0209306 0.00577964)
(-0.00485328 -0.021132 0.00581736)
(-0.00471674 -0.0211019 0.0060498)
(-0.00501066 -0.0208939 0.00569382)
(-0.00499083 -0.0214667 0.00596403)
(-0.00505154 -0.0227256 0.00654669)
(-0.00504578 -0.0247899 0.00731288)
(-0.00476239 -0.0232393 0.00654875)
(-0.00491643 -0.0233992 0.00673753)
(-0.00459114 -0.0247459 0.007152)
(-0.004919 -0.0233873 0.00670476)
(-0.00518098 -0.0257489 0.00728814)
(-0.00485301 -0.0241325 0.0067471)
(-0.00485703 -0.0237524 0.00663197)
(-0.00516413 -0.0239407 0.00697992)
(-0.00536568 -0.0248816 0.00720796)
(-0.00539461 -0.0251772 0.00749912)
(-0.0046844 -0.0221612 0.00623794)
(-0.00470829 -0.0228569 0.00655168)
(-0.00473448 -0.0214421 0.00626447)
(-0.00455963 -0.0209149 0.00610898)
(-0.00468854 -0.0209091 0.00602208)
(-0.00476892 -0.0222759 0.00641793)
(-0.00500041 -0.0233669 0.00663879)
(-0.00492007 -0.0237817 0.00670404)
(-0.00492283 -0.0220182 0.0062799)
(-0.00517309 -0.0232328 0.00677709)
(-0.00444342 -0.0216525 0.00615433)
(-0.00418487 -0.018334 0.00486293)
(-0.00409142 -0.0181883 0.00503036)
(-0.00411264 -0.01753 0.0045648)
(-0.00439466 -0.0188313 0.00524189)
(-0.00391935 -0.0180135 0.00530478)
(-0.00436608 -0.0193912 0.00540021)
(-0.00445903 -0.0193989 0.00545852)
(-0.00428769 -0.0194784 0.00544418)
(-0.00434813 -0.0198827 0.00563262)
(-0.00400647 -0.0189644 0.00531068)
(-0.00410425 -0.0192715 0.00539115)
(-0.0122831 -0.0464995 0.0153539)
(-0.0230009 -0.0674463 0.0204648)
(-0.00991843 -0.0375276 0.0103965)
(-0.0120755 -0.0440434 0.0134088)
(-0.0147177 -0.0631362 0.0230876)
(-0.00923596 -0.0380125 0.0122564)
(-0.0121572 -0.0543518 0.0211533)
(-0.0126892 -0.0528347 0.0197395)
(-0.0118439 -0.0446147 0.0140807)
(-0.0378705 -0.0790914 0.0287281)
(-0.011317 -0.046608 0.0180759)
(-0.00466998 -0.0208955 0.00581057)
(-0.00448869 -0.020726 0.00625586)
(-0.00544742 -0.0223616 0.00597905)
(-0.00529927 -0.0225657 0.00593805)
(-0.00544966 -0.0229081 0.00681157)
(-0.00508672 -0.0222342 0.00621007)
(-0.00633341 -0.025467 0.00650909)
(-0.00674936 -0.0268707 0.00758669)
(-0.00582561 -0.0250908 0.00729914)
(-0.00643512 -0.0261357 0.00767123)
(-0.00660983 -0.0262324 0.0072765)
(-0.00612326 -0.0256609 0.00762639)
(-0.00423144 -0.0188304 0.00523006)
(-0.00449966 -0.0195348 0.00549749)
(-0.00430974 -0.0192034 0.00539095)
(-0.00413862 -0.0194731 0.00554138)
(-0.00426296 -0.0184303 0.00526543)
(-0.00410433 -0.0198495 0.00569468)
(-0.00372114 -0.0173448 0.00503607)
(-0.00359519 -0.0166764 0.00467186)
(-0.00364033 -0.0168159 0.0047463)
(-0.00370902 -0.0171432 0.00499734)
(-0.0038092 -0.0177894 0.00495211)
(-0.00378699 -0.0178934 0.00504457)
(-0.00438319 -0.0200974 0.00599274)
(-0.0046746 -0.01986 0.0058558)
(-0.00476326 -0.0207098 0.00651374)
(-0.0045609 -0.0210363 0.00630529)
(-0.00437059 -0.0199406 0.00515528)
(-0.00429016 -0.019721 0.00514241)
(-0.00414048 -0.0189912 0.00524449)
(-0.00392711 -0.0176376 0.00475717)
(-0.00424277 -0.018619 0.00491618)
(-0.00411936 -0.0179859 0.00485787)
(-0.00397681 -0.0177809 0.00477576)
(-0.00414291 -0.0187952 0.00500675)
(-0.00389527 -0.0180024 0.00508656)
(-0.003993 -0.0174951 0.00484601)
(-0.00362326 -0.0176819 0.00486252)
(-0.00383629 -0.0188112 0.00535471)
(-0.00361257 -0.0164832 0.00449768)
(-0.00372797 -0.0161336 0.00414171)
(-0.00338221 -0.0159177 0.00450233)
(-0.00359143 -0.0156794 0.00415141)
(-0.00345171 -0.0158039 0.00444013)
(-0.00352435 -0.0157266 0.00422841)
(-0.00339757 -0.0154603 0.00422191)
(-0.00360881 -0.016102 0.0045123)
(-0.00355297 -0.0159789 0.00443819)
(-0.003742 -0.0163818 0.00448563)
(-0.00362378 -0.0162066 0.00446819)
(-0.00366434 -0.0162193 0.00450083)
(-0.00365708 -0.016286 0.00450387)
(-0.00345736 -0.0166573 0.00439282)
(-0.00370694 -0.0168708 0.0047806)
(-0.00339854 -0.0161739 0.00433921)
(-0.00393265 -0.017148 0.00490873)
(-0.00351403 -0.0178954 0.00438098)
(-0.00346967 -0.0166387 0.00416569)
(-0.00371361 -0.0170733 0.00442612)
(-0.00393204 -0.017602 0.00492906)
(-0.00374632 -0.0170105 0.00440069)
(-0.00382643 -0.0174007 0.00501277)
(-0.00368636 -0.0170284 0.00445083)
(-0.00358982 -0.0171626 0.0044699)
(-0.00393618 -0.0178398 0.0050748)
(-0.00367997 -0.016579 0.0044589)
(-0.00364784 -0.0174934 0.00464388)
(-0.00370488 -0.0170234 0.0046372)
(-0.0036934 -0.0176056 0.00470421)
(-0.00384719 -0.0172057 0.00480761)
(-0.00392232 -0.0171461 0.00464184)
(-0.0040386 -0.0180928 0.0049254)
(-0.00375668 -0.0185879 0.00482274)
(-0.00412836 -0.0184877 0.00500317)
(-0.00423292 -0.018448 0.00516853)
(-0.00394256 -0.0177676 0.00499869)
(-0.00422763 -0.0182292 0.00535979)
(-0.00387 -0.0179784 0.00494849)
(-0.00379232 -0.0184594 0.00501511)
(-0.0041088 -0.0186127 0.00527795)
(-0.00387712 -0.0179071 0.00499846)
(-0.00405948 -0.0182565 0.00517106)
(-0.00418917 -0.0179445 0.00522872)
(-0.00394716 -0.0175436 0.00489602)
(-0.00378379 -0.0171887 0.00478659)
(-0.00384889 -0.0173337 0.0047333)
(-0.00404037 -0.0171883 0.00476156)
(-0.00386451 -0.0166947 0.00462039)
(-0.00365653 -0.0164343 0.00449281)
(-0.00358675 -0.0167717 0.00475431)
(-0.00353086 -0.0164816 0.00461663)
(-0.00351918 -0.0170265 0.00473452)
(-0.00348344 -0.0166143 0.00460745)
(-0.003784 -0.0171516 0.00483366)
(-0.00466246 -0.0196763 0.00576804)
(-0.00373182 -0.0185731 0.00503937)
(-0.00423941 -0.0193591 0.00528227)
(-0.00432651 -0.0195981 0.00546647)
(-0.00464901 -0.0201666 0.00590104)
(-0.00396151 -0.0190905 0.00511183)
(-0.00451163 -0.0193939 0.00590941)
(-0.00433718 -0.0205171 0.00546986)
(-0.00400831 -0.0205754 0.00547877)
(-0.00425808 -0.0197551 0.00535052)
(-0.00394787 -0.0185981 0.00502044)
(-0.00434814 -0.0197474 0.00579856)
(-0.00448532 -0.0214694 0.00610133)
(-0.00439543 -0.0216643 0.00599526)
(-0.00444819 -0.0204884 0.00562683)
(-0.00464138 -0.0225549 0.00642005)
(-0.00434115 -0.0220621 0.00603383)
(-0.00435665 -0.0219239 0.00599841)
(-0.0037269 -0.0170218 0.00464464)
(-0.00380904 -0.0169603 0.00475101)
(-0.00366597 -0.0177986 0.0047969)
(-0.00429207 -0.0184106 0.00494683)
(-0.00388749 -0.0175863 0.00498573)
(-0.00671591 -0.0340016 0.008785)
(-0.00560813 -0.0274435 0.00721764)
(-0.00589296 -0.0276779 0.00840518)
(-0.00783292 -0.0394579 0.0116064)
(-0.00652079 -0.028984 0.00890282)
(-0.00663942 -0.0330676 0.00828242)
(-0.00350474 -0.0165448 0.00459695)
(-0.00337092 -0.0164182 0.00397046)
(-0.00357116 -0.0170693 0.00467111)
(-0.00358648 -0.0165023 0.00478202)
(-0.00353734 -0.0160741 0.0042621)
(-0.00364478 -0.0165499 0.00445839)
(-0.00346808 -0.0164644 0.00457612)
(-0.00360046 -0.0164258 0.00444979)
(-0.00383694 -0.0166312 0.00428262)
(-0.0035439 -0.0165713 0.0044853)
(-0.00363376 -0.0168041 0.00455367)
(-0.00372836 -0.016677 0.0044342)
(-0.00337988 -0.0164677 0.00469395)
(-0.00516866 -0.0242429 0.00699039)
(-0.00482858 -0.0239025 0.00721546)
(-0.00505243 -0.0245096 0.00689955)
(-0.00557531 -0.0270543 0.00763187)
(-0.0053941 -0.0264806 0.00780388)
(-0.00490799 -0.0231557 0.0061599)
(-0.00500259 -0.0227414 0.00711038)
(-0.00451766 -0.0218374 0.0058426)
(-0.00455534 -0.0211924 0.00609097)
(-0.00465877 -0.0229826 0.00627689)
(-0.00537758 -0.023693 0.00748241)
(-0.00590122 -0.061269 0.0140619)
(-0.00797735 -0.137255 0.00916344)
(-0.00802629 -0.0653382 0.0130039)
(-0.0140282 -0.0870336 0.00184055)
(-0.00430046 -0.0932881 0.0185511)
(0.000229975 -0.136959 0.0235578)
(-0.00709999 -0.0421062 0.0108417)
(-0.00843543 -0.0593005 0.0109509)
(-0.0069469 -0.0346616 0.00897588)
(-0.00652898 -0.0356431 0.0101355)
(-0.00773088 -0.0422939 0.0105915)
(-0.00688538 -0.0614472 0.0176417)
(-0.00477549 -0.0240174 0.00649356)
(-0.00463054 -0.0228909 0.00648573)
(-0.00499062 -0.0232718 0.00607378)
(-0.00483831 -0.0240121 0.00639814)
(-0.00487394 -0.0239268 0.00640071)
(-0.00518739 -0.022573 0.00602116)
(-0.00630041 -0.028861 0.00711218)
(-0.00701646 -0.0325452 0.00797266)
(-0.00682464 -0.031082 0.00764402)
(-0.00785364 -0.033095 0.00809386)
(-0.00604553 -0.0288751 0.00735088)
(-0.00626636 -0.0301977 0.00767697)
(-0.000393063 -0.0728263 0.0187444)
(-0.0213784 -0.064708 0.00488473)
(-0.00694654 -0.0358883 0.00902996)
(-0.00818814 -0.0467037 0.00979647)
(-0.00729915 -0.0362687 0.00889504)
(-0.00896185 -0.0482651 0.00966483)
(-0.0122779 -0.0469653 0.0155663)
(-0.00804474 -0.034882 0.0107924)
(-0.0079825 -0.0414059 0.0131562)
(-0.00808174 -0.0344825 0.00971788)
(-0.00745567 -0.0337498 0.010637)
(-0.00620801 -0.0274785 0.00857927)
(-0.00757828 -0.0300069 0.0101283)
(-0.00559641 -0.0288619 0.00812123)
(-0.00792427 -0.037704 0.0112714)
(-0.00694853 -0.0331276 0.0092424)
(-0.00594509 -0.029417 0.00824819)
(-0.00463965 -0.0241741 0.00650013)
(-0.00473516 -0.0233912 0.00640623)
(-0.00506272 -0.0254671 0.00732771)
(-0.00499003 -0.0256128 0.00701419)
(-0.00512653 -0.0259142 0.00726322)
(-0.0047503 -0.0243909 0.00653422)
(-0.00560745 -0.0292718 0.00841974)
(-0.00607977 -0.0306538 0.00892396)
(-0.00581954 -0.0308201 0.00903288)
(-0.0056482 -0.0273429 0.00796463)
(-0.0051084 -0.0265 0.00760036)
(-0.00532475 -0.0263713 0.00741587)
(-0.0168734 -0.0819641 0.0394351)
(-0.0176394 -0.114652 0.0632589)
(-0.00465845 -0.0868701 0.025797)
(0.000276561 -0.14506 0.0486414)
(-0.009959 -0.0587429 0.0222857)
(-0.00411477 -0.0896234 0.0255074)
(-0.00768514 -0.0636772 0.0142964)
(-0.0062778 -0.0275934 0.00696391)
(-0.00542111 -0.0252439 0.00636258)
(-0.0057452 -0.0249226 0.00656819)
(-0.00604165 -0.0250345 0.0065462)
(-0.00622547 -0.0273907 0.00673249)
(-0.00645847 -0.0266077 0.00692163)
(-0.00472101 -0.0213722 0.00592738)
(-0.0047271 -0.0211663 0.00570696)
(-0.00484195 -0.0214021 0.00580397)
(-0.00439555 -0.0197583 0.00535979)
(-0.00465828 -0.0201424 0.00532311)
(-0.00466902 -0.0221049 0.0061072)
(-0.00436433 -0.0198066 0.00542882)
(-0.00375828 -0.0187341 0.00511058)
(-0.00419754 -0.0189955 0.00523549)
(-0.00426551 -0.0190958 0.00517665)
(-0.00399734 -0.0181402 0.00495498)
(-0.0045381 -0.0193543 0.00529125)
(-0.00373727 -0.0172218 0.00473918)
(-0.00385924 -0.017709 0.00480105)
(-0.0034182 -0.016859 0.00450691)
(-0.00367909 -0.0173167 0.00486083)
(-0.00371307 -0.0176672 0.00477524)
(-0.00375334 -0.0177544 0.00465627)
(-0.00469805 -0.0220662 0.00601937)
(-0.00514895 -0.0227923 0.00607479)
(-0.00445183 -0.0217545 0.00594918)
(-0.0049326 -0.0227552 0.00618635)
(-0.00583872 -0.0244799 0.00639588)
(-0.00521726 -0.0230788 0.00613855)
(-0.00441738 -0.019799 0.00537585)
(-0.00499132 -0.0218502 0.00616425)
(-0.00455327 -0.0203695 0.00553914)
(-0.00476196 -0.0210339 0.00584825)
(-0.00473758 -0.0204843 0.00542308)
(-0.00496445 -0.0217187 0.00635331)
(-0.00429365 -0.0194753 0.00491195)
(-0.00405488 -0.0194673 0.00492634)
(-0.00485818 -0.0204909 0.00627979)
(-0.00466786 -0.020841 0.00539533)
(-0.004479 -0.0195331 0.00540126)
(-0.00500967 -0.0221049 0.00577369)
(-0.00510185 -0.0215019 0.00602116)
(-0.00547223 -0.0232097 0.00650814)
(-0.00546099 -0.024154 0.00584625)
(-0.00571645 -0.0247339 0.00652266)
(-0.00575347 -0.0227091 0.00671604)
(-0.00515398 -0.0221356 0.00600207)
(-0.00688848 -0.0281154 0.00754641)
(-0.00613225 -0.0259253 0.00741067)
(-0.00832865 -0.0316414 0.008402)
(-0.0125942 -0.047857 0.0107814)
(-0.00728129 -0.0315562 0.00805042)
(-0.0113526 -0.04081 0.00982562)
(-0.00673663 -0.0330213 0.00780993)
(-0.00888218 -0.0396333 0.00901221)
(-0.00801557 -0.0358754 0.00840966)
(-0.00360608 -0.0175384 0.004645)
(-0.00405295 -0.016891 0.00468635)
(-0.00425137 -0.0176514 0.00478731)
(-0.0041347 -0.0175439 0.00495948)
(-0.00348685 -0.0170733 0.00474145)
(-0.00359081 -0.0164752 0.00443804)
(-0.0035514 -0.0157261 0.00443111)
(-0.00348367 -0.0152751 0.0041522)
(-0.00340274 -0.0156512 0.00423471)
(-0.00375404 -0.0160603 0.00445091)
(-0.00373013 -0.0162436 0.00429141)
(-0.00349852 -0.0158734 0.00436794)
(-0.00374088 -0.016078 0.00446498)
(-0.00348554 -0.0160282 0.00433666)
(-0.00340809 -0.0158252 0.00435161)
(-0.00352735 -0.0159758 0.00431956)
(-0.00337744 -0.0158504 0.00438937)
(-0.00363643 -0.0170505 0.00478888)
(-0.00417659 -0.0175163 0.00464994)
(-0.00372175 -0.0162396 0.00445927)
(-0.00381093 -0.0176625 0.00490713)
(-0.00392693 -0.0169735 0.00456035)
(-0.00362134 -0.0169094 0.00455947)
(-0.00355973 -0.0178479 0.00488808)
(-0.00351974 -0.0164902 0.00450162)
(-0.0034125 -0.0164831 0.00454088)
(-0.00355916 -0.0167476 0.00449385)
(-0.00403153 -0.0174941 0.00476411)
(-0.00362121 -0.0175246 0.00475404)
(-0.00419359 -0.0178446 0.00471233)
(-0.0146211 -0.0532679 0.0115038)
(-0.027818 -0.076596 0.0160593)
(-0.0225072 -0.0716781 0.0148579)
(-0.0130199 -0.050091 0.0110337)
(-0.00980047 -0.0380509 0.00937888)
(-0.0493795 -0.111646 0.0139387)
(-0.00781953 -0.0300254 0.00830509)
(-0.00660215 -0.0263875 0.00715321)
(-0.00803311 -0.0318774 0.0085815)
(-0.00671891 -0.0269549 0.00705288)
(-0.00682759 -0.0273478 0.00717647)
(-0.0075791 -0.0291689 0.00828522)
(-0.0161867 -0.051408 0.0148815)
(-0.0306966 -0.0811517 0.0186472)
(-0.0552705 -0.106808 0.0310653)
(-0.00950944 -0.0368385 0.0105805)
(-0.0101193 -0.0382768 0.0103075)
(-0.0267275 -0.0708603 0.0194363)
(-0.0179053 -0.0566783 0.0182621)
(-0.00447241 -0.0199507 0.00528037)
(-0.00389821 -0.0190185 0.00509416)
(-0.00418887 -0.0190016 0.00518401)
(-0.00425734 -0.0187188 0.00520785)
(-0.00418201 -0.0189177 0.00526987)
(-0.00450697 -0.0195963 0.005297)
(-0.00520205 -0.0235142 0.00617542)
(-0.00507686 -0.0236104 0.00602058)
(-0.00498358 -0.0244097 0.00628126)
(-0.00503791 -0.0218513 0.00591422)
(-0.0049557 -0.0217243 0.00589875)
(-0.00470204 -0.0221014 0.00601744)
(-0.00790383 -0.034986 0.0105842)
(-0.0073516 -0.0415861 0.0130689)
(-0.00824644 -0.0874647 0.0354431)
(-0.017932 -0.113071 0.0624313)
(-0.00389617 -0.119542 0.0552287)
(-0.00751619 -0.0339863 0.0101541)
(-0.00785714 -0.0338502 0.0109191)
(-0.0111387 -0.0538659 0.0186815)
(-0.00931982 -0.0411791 0.0128071)
(-0.00947688 -0.0419134 0.0135899)
(-0.00743718 -0.0354338 0.0109489)
(-0.00348147 -0.016106 0.00451684)
(-0.00348996 -0.0163239 0.00449805)
(-0.00371679 -0.0167515 0.00455422)
(-0.00345156 -0.016287 0.00468613)
(-0.00343975 -0.0164129 0.00451975)
(-0.00333326 -0.0161418 0.00464605)
(-0.0037617 -0.0167334 0.00440227)
(-0.00360559 -0.0167722 0.00439677)
(-0.00377551 -0.0174072 0.00460333)
(-0.00366361 -0.0163011 0.00431942)
(-0.00356729 -0.0161914 0.00417533)
(-0.00362547 -0.0165352 0.00415163)
(-0.0357106 -0.118273 0.00480797)
(-0.0346813 -0.133731 0.00387227)
(-0.0201799 -0.0821731 0.0123134)
(-0.0226336 -0.111004 0.0124282)
(-0.0136668 -0.076176 0.0142773)
(-0.0389725 -0.170415 0.00987824)
(-0.0207618 -0.0729773 0.0142899)
(-0.00350573 -0.0159744 0.00439504)
(-0.00349302 -0.0158065 0.00432499)
(-0.00346299 -0.015883 0.00441826)
(-0.00331813 -0.0154381 0.00414347)
(-0.00362141 -0.0163921 0.00455279)
(-0.0033083 -0.0158874 0.00437847)
(-0.00348851 -0.0161863 0.00440586)
(-0.00370136 -0.0165305 0.00462729)
(-0.00373122 -0.0160942 0.00450897)
(-0.00344047 -0.0160483 0.00433138)
(-0.00366045 -0.016908 0.00465388)
(-0.0036063 -0.0162019 0.00444358)
(-0.00343902 -0.0155173 0.00439768)
(-0.0032894 -0.0158921 0.00427222)
(-0.00320397 -0.0148033 0.00404023)
(-0.00333818 -0.0154397 0.00430076)
(-0.00351922 -0.0159586 0.00434774)
(-0.00336243 -0.0159574 0.00417679)
(-0.00487095 -0.0233454 0.00681559)
(-0.00476313 -0.0216846 0.00610908)
(-0.00485631 -0.0223235 0.00635525)
(-0.00458825 -0.0214085 0.00614732)
(-0.00560823 -0.0234647 0.00639141)
(-0.00483618 -0.0218887 0.00617231)
(-0.00519554 -0.0235835 0.00695705)
(-0.00599551 -0.0254597 0.00722297)
(-0.00554184 -0.0238116 0.00691443)
(-0.00504236 -0.0227114 0.00676067)
(-0.00548304 -0.0248452 0.00741247)
(-0.00553408 -0.0234999 0.006715)
(-0.00552266 -0.0240966 0.0069169)
(-0.00551654 -0.0260309 0.00760081)
(-0.00598479 -0.0252448 0.00718221)
(-0.00491949 -0.0231082 0.0065761)
(-0.00548357 -0.0244455 0.00702353)
(-0.00511743 -0.0234683 0.00685815)
(-0.00393773 -0.0174871 0.00479473)
(-0.00383115 -0.0164266 0.00463256)
(-0.00344674 -0.0155611 0.00398731)
(-0.00369152 -0.0168284 0.00389323)
(-0.00380075 -0.0162458 0.00510385)
(-0.00385068 -0.0164593 0.00439933)
(-0.00375334 -0.0153964 0.0044574)
(-0.00358497 -0.0159194 0.00411155)
(-0.00399637 -0.016262 0.00488529)
(-0.00378254 -0.0162863 0.00461166)
(-0.00353598 -0.0160362 0.00424997)
(-0.00364556 -0.0164147 0.00458439)
(-0.00387339 -0.0160595 0.00434348)
(-0.00374203 -0.0164158 0.00459939)
(-0.00361996 -0.0162731 0.00454458)
(-0.00380853 -0.0163999 0.00438992)
(-0.00372779 -0.0161571 0.00435183)
(-0.00374419 -0.0169079 0.00476587)
(-0.00386031 -0.0172321 0.0048145)
(-0.00374868 -0.0172888 0.00483869)
(-0.00365655 -0.0173483 0.00502192)
(-0.00385149 -0.0175282 0.0051011)
(-0.00411637 -0.0173428 0.00475955)
(-0.00403925 -0.0180067 0.00552831)
(-0.00417208 -0.0185811 0.00494644)
(-0.00379215 -0.0170302 0.0047375)
(-0.00416525 -0.0180448 0.00464778)
(-0.00428314 -0.0186565 0.00475676)
(-0.00388893 -0.0166174 0.00452689)
(-0.00402286 -0.0181044 0.00459225)
(-0.00465419 -0.0193399 0.00523551)
(-0.00401304 -0.0173179 0.00525017)
(-0.00397381 -0.0181656 0.00520587)
(-0.00338387 -0.0157355 0.00416278)
(-0.00393633 -0.0160166 0.00462731)
(-0.00379797 -0.0161814 0.00443042)
(-0.00444785 -0.0172783 0.0050414)
(-0.00351479 -0.0157245 0.0041736)
(-0.00486275 -0.0225138 0.00655951)
(-0.00499966 -0.0225304 0.00648475)
(-0.00450168 -0.0212635 0.00588323)
(-0.00594549 -0.0266058 0.00804029)
(-0.00622478 -0.0271603 0.00799043)
(-0.00628352 -0.0262203 0.00745798)
(-0.00603752 -0.0269962 0.00801813)
(-0.00584393 -0.0255808 0.00753728)
(-0.00590669 -0.0259329 0.00763596)
(-0.00532465 -0.0225118 0.00610274)
(-0.00563172 -0.0246356 0.0073776)
(-0.00584621 -0.0248442 0.00726309)
(-0.00586723 -0.0242313 0.00690515)
(-0.00453253 -0.0209557 0.00609635)
(-0.00480026 -0.0208389 0.00582685)
(-0.00468821 -0.0208933 0.00587773)
(-0.0055923 -0.0246358 0.00725811)
(-0.0046338 -0.0209126 0.00593338)
(-0.00479016 -0.0212367 0.0060728)
(-0.00486819 -0.0226722 0.00653439)
(-0.00492907 -0.0215705 0.00613995)
(-0.00350969 -0.0164888 0.00453407)
(-0.00357535 -0.0154369 0.00439392)
(-0.00383686 -0.0164778 0.00484333)
(-0.00367162 -0.0157081 0.00436866)
(-0.00370688 -0.016162 0.00459415)
(-0.00391893 -0.0169375 0.0049533)
(-0.00934019 -0.0509765 0.0112968)
(-0.0253576 -0.103563 0.0123525)
(-0.00352458 -0.0158976 0.00425702)
(-0.00539456 -0.0284044 0.00747931)
(-0.00569181 -0.0301958 0.00864238)
(-0.005426 -0.0275935 0.00725608)
(-0.00510091 -0.0275461 0.00777972)
(-0.00673634 -0.0365386 0.0092875)
(-0.00533378 -0.0280333 0.00777683)
(-0.0071989 -0.0363909 0.00823153)
(-0.00566622 -0.0301332 0.00818154)
(-0.00592323 -0.031938 0.00907613)
(-0.00658403 -0.0341421 0.00830959)
(-0.00556314 -0.0295834 0.00826276)
(-0.00528263 -0.0281603 0.00782079)
(-0.00539847 -0.0268081 0.00731541)
(-0.00518816 -0.0259853 0.00742731)
(-0.00542709 -0.0249056 0.00630365)
(-0.00547541 -0.0265583 0.00683111)
(-0.00599263 -0.0277374 0.00693674)
(-0.00537415 -0.0276237 0.00770376)
(-0.00551858 -0.0257653 0.00656702)
(-0.00544276 -0.0261078 0.00702673)
(-0.0103491 -0.0588303 0.021389)
(-0.0049775 -0.0215212 0.0060027)
(-0.00516225 -0.0213857 0.00605544)
(-0.00440478 -0.0201552 0.00544233)
(-0.00417226 -0.0188113 0.00510216)
(-0.00457764 -0.019947 0.00559084)
(-0.00543557 -0.0231596 0.00613131)
(-0.00504658 -0.022848 0.00603782)
(-0.00484325 -0.0217264 0.00581199)
(-0.00437438 -0.0203775 0.00566681)
(-0.00404189 -0.0209788 0.00557568)
(-0.00440672 -0.0202709 0.00561445)
(-0.00448086 -0.0193934 0.00532542)
(-0.0043601 -0.0193493 0.00525719)
(-0.00456991 -0.0191471 0.00540746)
(-0.00419433 -0.0183815 0.00517398)
(-0.00466254 -0.0187348 0.00523276)
(-0.00427696 -0.0177333 0.00492184)
(-0.00442084 -0.0190853 0.00532051)
(-0.00420382 -0.0185413 0.0051466)
(-0.00416095 -0.0180771 0.00502613)
(-0.00671284 -0.0277359 0.00669027)
(-0.00698442 -0.0282744 0.00733258)
(-0.00720804 -0.0288444 0.00809453)
(-0.00815613 -0.0314932 0.00814038)
(-0.00717582 -0.0278434 0.00754799)
(-0.00688698 -0.0274167 0.00727443)
(-0.0643464 -0.131923 0.0304581)
(-0.00711017 -0.0308546 0.00797208)
(-0.00385372 -0.0164812 0.00449253)
(-0.00432628 -0.0181899 0.00489087)
(-0.00407646 -0.018012 0.00504298)
(-0.0033935 -0.0157262 0.00428248)
(-0.00372018 -0.0159574 0.00433476)
(-0.003695 -0.0164774 0.00447405)
(-0.00315366 -0.015925 0.00424798)
(-0.0038127 -0.0163216 0.00440963)
(-0.00349553 -0.0155326 0.00421187)
(-0.00343075 -0.0157978 0.00441528)
(-0.00355556 -0.0159286 0.00431749)
(-0.00311132 -0.015243 0.00402115)
(-0.00342869 -0.0160199 0.0042654)
(-0.00399121 -0.0164843 0.00466311)
(-0.00335261 -0.0159236 0.0042053)
(-0.00329242 -0.0158104 0.00426906)
(-0.00353476 -0.0153255 0.00426459)
(-0.00354591 -0.0156552 0.00428523)
(-0.00334733 -0.0160457 0.0041453)
(-0.00374252 -0.0172915 0.00464632)
(-0.00357898 -0.017005 0.00469199)
(-0.0035724 -0.0164258 0.00448937)
(-0.00351363 -0.0164664 0.00454238)
(-0.00357161 -0.0160775 0.00438661)
(-0.00358236 -0.0161895 0.0043233)
(-0.00365049 -0.0167126 0.00439615)
(-0.00382967 -0.0164126 0.00452681)
(-0.00348915 -0.0158368 0.00438484)
(-0.0037947 -0.0164256 0.00438659)
(-0.00369229 -0.0166175 0.00454062)
(-0.00347931 -0.0167563 0.00459452)
(-0.00344448 -0.0161949 0.00461129)
(-0.00372125 -0.0166029 0.00455182)
(-0.00362995 -0.0163105 0.00451903)
(-0.00385121 -0.016762 0.00451968)
(-0.00385096 -0.016686 0.00457534)
(-0.00366914 -0.0166557 0.0047241)
(-0.00419081 -0.018235 0.00485697)
(-0.00426083 -0.0181476 0.00498831)
(-0.00395717 -0.0178239 0.005054)
(-0.00382165 -0.0177576 0.00491349)
(-0.00400873 -0.017818 0.00489645)
(-0.00383514 -0.0179458 0.00483743)
(-0.00382081 -0.0179764 0.00498751)
(-0.00388652 -0.0172902 0.00477648)
(-0.0035926 -0.0172149 0.00488003)
(-0.0039032 -0.0181555 0.00503413)
(-0.00402515 -0.0175184 0.00464185)
(-0.00373811 -0.0176374 0.00491606)
(-0.00442122 -0.0184705 0.00508544)
(-0.00395069 -0.0174963 0.00483437)
(-0.00379192 -0.0170891 0.00469432)
(-0.0039063 -0.0177138 0.00489394)
(-0.00393166 -0.0170402 0.00432097)
(-0.00367212 -0.0164656 0.00435571)
(-0.00350926 -0.0170496 0.00484551)
(-0.0036715 -0.0173306 0.0047496)
(-0.00442901 -0.0181505 0.00467764)
(-0.00353634 -0.0165069 0.00468126)
(-0.00407041 -0.0176047 0.00440819)
(-0.00368858 -0.0167892 0.00462619)
(-0.00374808 -0.0159584 0.00432902)
(-0.00358111 -0.0164163 0.0045258)
(-0.00378707 -0.0163776 0.00458149)
(-0.00327194 -0.0158753 0.00449153)
(-0.00366214 -0.01656 0.00459749)
(-0.00394596 -0.0160383 0.00430254)
(-0.0040137 -0.0173363 0.00490605)
(-0.00380917 -0.0160748 0.00428605)
(-0.00416407 -0.0169273 0.00474105)
(-0.003851 -0.0166839 0.00479957)
(-0.00372618 -0.0166291 0.00451486)
(-0.00391562 -0.0176482 0.0047659)
(-0.00371886 -0.0166554 0.00466815)
(-0.00384387 -0.0168647 0.00460406)
(-0.00965614 -0.039169 0.00859271)
(-0.00738827 -0.0297823 0.0078771)
(-0.00832145 -0.0321813 0.00846763)
(-0.00753006 -0.03056 0.00837581)
(-0.00806482 -0.0312691 0.00873154)
(-0.00632916 -0.0266746 0.00717837)
(-0.00569082 -0.0244732 0.0068206)
(-0.00453073 -0.0189554 0.00506757)
(-0.00501271 -0.0224901 0.00627002)
(-0.00516487 -0.0220373 0.00604078)
(-0.00429666 -0.0210493 0.00572542)
(-0.00397928 -0.0179681 0.00509666)
(-0.00387433 -0.0173311 0.00489624)
(-0.0038867 -0.0175826 0.00483437)
(-0.00383696 -0.0173573 0.00466153)
(-0.00374654 -0.0184485 0.00486144)
(-0.00428196 -0.0197323 0.00524091)
(-0.0041894 -0.0196499 0.00538443)
(-0.00440536 -0.0195118 0.00528039)
(-0.00392405 -0.0193225 0.00528612)
(-0.0054169 -0.0235987 0.00602039)
(-0.00536106 -0.0236383 0.00618171)
(-0.00445471 -0.0191109 0.00529426)
(-0.00379434 -0.0170639 0.00467284)
(-0.00369769 -0.0169171 0.00469021)
(-0.00410284 -0.0175547 0.00493496)
(-0.00378632 -0.0177592 0.00485686)
(-0.00465069 -0.0209454 0.00555737)
(-0.0044583 -0.0207142 0.00556629)
(-0.00427895 -0.0208338 0.00575641)
(-0.00454257 -0.0209947 0.00577561)
(-0.00446025 -0.0204815 0.00551518)
(-0.00432514 -0.0195314 0.00541681)
(-0.00495096 -0.0207692 0.00538385)
(-0.00499501 -0.0225443 0.00617712)
(-0.00469829 -0.0210816 0.00571211)
(-0.00432484 -0.0216296 0.00595809)
(-0.00467231 -0.0217798 0.00577912)
(-0.00427882 -0.0208559 0.00567567)
(-0.00376723 -0.0184042 0.00523949)
(-0.00434536 -0.0200641 0.00537973)
(-0.00442093 -0.0195805 0.00557096)
(-0.00421293 -0.0199302 0.00561122)
(-0.00430816 -0.020775 0.00564081)
(-0.00470151 -0.0209342 0.00543513)
(-0.00447947 -0.0202718 0.00536286)