/*--------------------------------*- C++ -*----------------------------------*\
| =========                 |                                                 |
| \\      /  F ield         | OpenFOAM: The Open Source CFD Toolbox           |
|  \\    /   O peration     | Version:  v1612+                                |
|   \\  /    A nd           | Web:      www.OpenFOAM.com                      |
|    \\/     M anipulation  |                                                 |
\*---------------------------------------------------------------------------*/
FoamFile
{
    version     2.0;
    format      ascii;
    class       surfaceScalarField;
    location    "166";
    object      phi;
}
// * * * * * * * * * * * * * * * * * * * * * * * * * * * * * * * * * * * * * //

dimensions      [0 3 -1 0 0 0 0];

internalField   nonuniform List<scalar> 
37360
(
-5.03686e-09
1.33076e-09
3.55566e-09
1.50473e-10
-3.67288e-09
-3.58037e-09
1.37486e-09
5.87838e-09
-4.79831e-09
-8.77793e-09
3.14472e-09
1.04315e-08
-1.1914e-09
-4.68731e-09
-4.33192e-09
3.15354e-08
-2.08776e-08
-4.57856e-09
-6.07925e-09
-1.57784e-08
1.61784e-08
3.11354e-08
2.5827e-08
-1.98935e-08
-2.6811e-08
1.00046e-09
9.04809e-09
4.44633e-10
-8.93876e-09
-1.1097e-08
1.95912e-08
-6.10326e-09
-5.25903e-09
1.18069e-08
1.79749e-08
-7.89968e-09
-7.34801e-09
-1.54719e-08
1.38812e-08
-1.59387e-08
3.3317e-09
-8.62797e-09
2.0778e-08
-1.67286e-08
5.05923e-09
-6.66103e-09
1.44589e-08
-1.28571e-08
-3.62518e-08
1.25775e-08
3.78083e-09
-1.09501e-08
7.67713e-09
-7.82403e-09
1.7645e-08
-2.59707e-08
9.32617e-09
-5.04044e-09
-5.37221e-09
-5.66979e-09
-1.03208e-08
2.65664e-09
-4.00418e-09
5.17823e-09
-3.83065e-09
3.14423e-09
-5.28532e-10
4.09661e-11
7.31385e-10
3.27119e-09
-8.00675e-09
2.89834e-09
2.71463e-09
-4.88158e-09
6.72496e-09
4.48358e-09
-7.93734e-09
2.79227e-10
6.38941e-09
5.63423e-11
-9.9319e-09
-1.33324e-10
2.829e-09
7.23623e-09
4.15977e-11
-5.48992e-09
9.65984e-09
-6.18425e-09
3.74124e-09
-7.21682e-09
2.54904e-09
6.97748e-09
-5.3155e-09
3.7361e-09
4.72364e-09
1.41961e-10
2.39676e-09
-2.69431e-11
2.05731e-09
7.1611e-09
-3.42802e-09
-3.42084e-09
1.7567e-09
4.2132e-09
3.39545e-10
-1.91279e-11
-2.7556e-09
7.17529e-10
3.79479e-09
-1.92886e-11
6.51095e-09
2.99871e-09
-8.54987e-10
4.36407e-09
-6.50781e-09
-9.4934e-10
4.72903e-09
-7.8098e-10
1.78123e-09
3.37866e-09
-6.01487e-09
3.43238e-09
-2.60048e-09
7.05665e-09
8.56281e-09
-1.08904e-08
4.97186e-09
-9.75286e-10
3.06006e-09
-6.96633e-10
4.17547e-09
8.85234e-10
1.19733e-08
-2.96924e-09
-4.41283e-10
1.44122e-09
1.5504e-08
6.55137e-09
-7.12365e-09
-2.39696e-09
-3.32371e-09
5.70177e-09
4.17332e-09
2.69204e-09
-1.00084e-11
4.10637e-09
-7.79764e-09
9.44569e-10
-1.61893e-10
2.01143e-09
1.18875e-09
-1.88467e-09
9.02766e-09
3.59971e-09
3.69027e-11
3.72647e-09
5.29973e-10
-1.7606e-08
8.00462e-09
9.0714e-09
-3.82831e-09
-3.57015e-09
9.81941e-09
-2.42095e-09
-6.84921e-09
3.55087e-09
-1.23048e-08
2.98036e-09
1.2696e-08
-3.37161e-09
-8.80563e-09
-9.02057e-10
2.85847e-09
1.26217e-09
-4.08556e-09
-5.98225e-09
-6.66784e-09
-9.67601e-09
-4.11744e-09
-1.48552e-08
6.58742e-09
-5.68421e-09
-1.06335e-08
9.73027e-09
1.15244e-09
-1.33351e-09
6.76849e-09
5.13358e-09
-2.76558e-09
7.12945e-09
-8.43432e-10
4.72212e-09
1.50527e-09
8.02863e-09
-6.87666e-09
1.99366e-08
2.47655e-09
-1.44619e-08
-7.95126e-09
4.91773e-09
3.96008e-09
1.10588e-08
-2.21239e-09
-8.34317e-09
2.22227e-08
-1.16671e-08
-6.81022e-09
-8.63944e-09
1.32373e-08
1.38867e-08
-7.95896e-09
-3.45118e-09
1.19942e-08
-1.31271e-08
1.00169e-08
-5.5292e-09
-4.65065e-09
-1.27302e-08
2.42941e-08
-6.91317e-09
-1.4437e-08
2.23346e-10
1.08656e-09
1.02401e-08
-1.45679e-08
1.06274e-08
-6.29961e-09
-3.91568e-09
-2.8123e-10
-2.73523e-08
2.26766e-08
-2.53849e-08
3.00606e-08
-1.63157e-08
-7.82776e-09
-3.20888e-09
1.82935e-08
-1.59067e-08
-1.41289e-08
-2.25092e-08
-9.71314e-09
-1.32007e-09
-1.05546e-08
-1.61552e-08
-6.13444e-09
2.3914e-08
-2.70561e-08
-1.93671e-08
1.04879e-08
-7.02764e-10
-2.5884e-08
1.56105e-11
1.5284e-09
-5.14545e-09
-5.247e-09
8.86408e-09
-3.78576e-09
-2.31256e-09
7.62673e-09
4.62994e-09
-8.11888e-09
3.13101e-09
3.57916e-10
1.10329e-08
-1.08295e-08
4.42654e-09
-7.066e-09
1.29535e-08
-3.26652e-09
-3.88385e-09
3.36463e-09
-8.93515e-09
4.21624e-10
1.14516e-08
-1.09097e-08
-8.66081e-09
2.24324e-09
-1.62109e-09
-1.19292e-08
-1.35619e-09
6.21937e-09
-6.47341e-09
6.69268e-10
-9.34203e-09
-3.43883e-10
-5.38592e-09
-3.43354e-09
6.50693e-09
-1.0694e-08
3.95188e-09
4.27078e-10
-1.05156e-08
6.65497e-09
-1.06166e-08
7.15987e-09
-2.18651e-09
2.53759e-10
-8.97691e-09
-1.51166e-09
4.74633e-09
-1.14844e-08
-3.77751e-09
1.39161e-09
-7.26191e-09
-5.20744e-09
-1.0122e-09
-1.03166e-09
-1.26354e-08
2.18266e-09
-8.52814e-09
1.562e-08
-1.23058e-08
5.21389e-09
-1.25065e-08
-1.34208e-10
4.11254e-09
-1.02091e-08
-8.09485e-09
5.79745e-09
1.47613e-08
1.4757e-08
-1.43635e-08
-1.51549e-08
1.3706e-08
-4.86102e-09
5.91634e-09
2.2946e-09
6.0117e-09
6.4507e-09
7.0224e-09
8.97822e-09
-2.12084e-09
-6.25398e-09
9.25147e-09
-8.76653e-10
-8.63292e-09
-3.69702e-09
-3.96841e-09
-7.43295e-09
5.14738e-09
2.68749e-09
-1.52888e-08
3.08892e-09
1.34913e-09
2.3468e-09
-6.78487e-09
7.04411e-09
6.26124e-09
-1.02164e-08
-7.1946e-09
2.23504e-09
4.82535e-09
6.20185e-09
-1.78778e-08
1.5347e-08
-8.20946e-09
-9.35742e-10
-5.76947e-09
1.15149e-08
1.277e-09
3.406e-09
8.00345e-09
-6.72881e-09
1.24494e-08
3.99003e-09
-1.47264e-08
-1.71305e-09
4.83007e-09
1.12231e-08
-3.60386e-09
-6.72648e-09
-1.25821e-09
1.28148e-08
-1.33048e-08
-7.50986e-09
1.40882e-08
-1.01311e-08
8.16336e-10
4.43735e-10
-9.66971e-10
-1.40382e-08
1.45614e-08
-7.17932e-10
-1.35647e-08
-3.72227e-09
-5.83027e-09
8.29432e-09
7.41475e-09
-8.38522e-09
-9.1606e-09
-7.0593e-10
6.10828e-10
-4.81223e-10
7.43524e-09
-7.921e-09
-7.91119e-09
6.5667e-09
-2.37778e-09
-6.71153e-09
1.75325e-10
-3.51791e-10
-8.75137e-09
6.32808e-09
1.11422e-10
-5.87378e-10
-2.72035e-10
9.57099e-09
-2.11076e-09
-2.38205e-08
1.63603e-08
2.49643e-09
1.44163e-08
-7.34174e-09
9.92669e-09
-2.73998e-09
-4.69028e-09
-3.51067e-09
5.09385e-09
8.34351e-09
9.7702e-09
-6.71483e-09
-5.79534e-09
7.2497e-10
5.53456e-09
7.81099e-09
1.9871e-08
-1.32657e-08
-7.10801e-09
-9.83379e-10
6.34391e-10
7.45702e-09
-1.27033e-08
3.48458e-09
3.94837e-09
5.85739e-09
-9.08079e-09
-1.52196e-09
1.44268e-08
9.41271e-09
-6.9863e-09
6.61774e-09
-2.53359e-09
-7.70937e-09
3.62522e-09
4.3165e-09
1.22179e-09
1.07948e-09
-6.92349e-10
-4.57665e-10
8.49923e-09
-7.34927e-09
-1.10693e-09
8.90838e-09
-8.49381e-09
1.27406e-09
3.2458e-09
-3.58057e-09
-9.39245e-10
-3.84511e-09
4.99506e-09
1.2412e-10
8.37718e-09
-2.63924e-09
-2.49212e-09
8.1241e-10
1.90708e-10
7.37408e-09
-2.93633e-09
-5.71603e-09
-2.30892e-09
1.09613e-08
5.22616e-09
-4.80118e-09
-4.00554e-09
1.35112e-09
2.99497e-11
4.46918e-09
1.19844e-09
-6.742e-10
4.68571e-09
-9.75012e-09
9.45561e-09
-6.32241e-09
-6.06696e-09
4.51159e-09
2.52082e-09
-9.85557e-09
-6.73791e-09
-1.06169e-08
1.33324e-08
4.25092e-09
-6.96636e-09
3.1147e-09
-5.84644e-09
-7.88518e-09
-7.6862e-09
8.85025e-09
1.21683e-08
-2.44676e-09
-2.12474e-09
-1.15368e-08
-7.54393e-09
4.93654e-09
1.41442e-08
-1.73684e-08
1.35757e-08
-7.74408e-09
1.16484e-08
5.6059e-09
-6.82039e-09
-1.04339e-08
-9.40589e-09
-5.84807e-10
-9.61282e-09
-1.71615e-08
2.19708e-08
-1.47217e-09
-1.52813e-08
1.03026e-08
1.85544e-08
2.23505e-09
-2.12933e-08
8.25757e-09
1.08007e-08
-9.51193e-09
-5.28964e-10
-5.24038e-09
-1.68897e-08
-3.77842e-09
-2.87355e-09
9.00238e-09
-2.35039e-09
-3.3058e-09
4.45934e-09
-4.93194e-09
2.99056e-09
2.35512e-12
-6.2987e-09
-3.82287e-09
3.93989e-09
3.14201e-09
5.9303e-10
7.24327e-10
4.435e-09
7.70939e-09
-5.57432e-09
-2.89125e-09
2.2808e-09
6.18479e-09
-1.09299e-09
-4.75813e-09
2.76818e-10
-4.40932e-09
4.53005e-09
-4.66714e-09
4.54643e-09
-5.56908e-09
6.67851e-11
2.45664e-09
-3.06982e-09
-4.14494e-09
1.58432e-10
-1.02349e-09
7.83434e-09
-2.55441e-09
-2.01378e-09
-9.89029e-11
-2.6338e-09
-5.48968e-09
9.91192e-09
-6.50041e-09
-5.70125e-09
1.23552e-09
5.94574e-09
-9.92445e-09
2.7432e-09
-3.16012e-09
4.87427e-09
-5.36862e-09
3.65446e-09
1.9722e-09
-3.89679e-09
-2.2985e-09
6.48363e-09
1.76062e-09
1.05856e-08
-9.8255e-10
-1.19015e-08
-2.02161e-10
1.05195e-10
4.97125e-09
8.91819e-10
8.20204e-09
-3.50538e-09
-5.58846e-09
3.55479e-09
-6.90768e-10
6.11566e-09
1.65815e-10
-3.00405e-09
-2.7168e-09
8.98883e-09
-3.26798e-09
-7.5199e-10
5.77813e-09
5.55944e-09
3.84659e-09
3.60346e-09
8.88974e-09
-3.78464e-09
4.91444e-09
-2.15244e-10
-1.45885e-11
1.80582e-09
-5.29272e-09
5.38718e-09
-1.9003e-09
-3.77023e-09
5.45651e-09
1.19532e-10
-3.42992e-09
-6.96382e-09
1.0499e-09
9.34385e-09
-5.20447e-09
-4.97437e-09
6.74891e-09
-8.20062e-10
-1.13482e-08
-3.82532e-09
1.01542e-08
-8.53275e-09
2.20383e-09
-1.86338e-10
-6.26138e-09
2.67749e-09
-9.30438e-09
-6.15836e-09
9.67263e-09
-2.46438e-09
1.63858e-09
-6.26032e-09
-1.53663e-09
-2.68421e-10
2.87917e-09
2.77642e-09
4.91144e-09
-1.04384e-09
1.20953e-10
-5.73882e-09
6.6617e-09
-5.47569e-10
-9.86816e-09
9.37188e-09
-5.67828e-10
4.26141e-09
-3.57263e-09
4.12645e-10
6.93371e-09
-7.89394e-09
3.64497e-09
-3.80015e-09
-2.76939e-09
-9.13328e-10
3.60311e-09
7.96131e-11
-7.6129e-09
3.67057e-09
3.20468e-09
7.37636e-10
3.40119e-09
-4.08036e-09
9.31957e-10
-5.63678e-11
-4.27975e-09
4.47853e-09
3.4718e-09
5.33955e-11
8.30265e-10
6.72752e-09
5.54776e-10
-8.11256e-09
7.97938e-09
1.98773e-09
-9.13685e-09
8.90444e-09
5.80247e-09
-1.0303e-08
3.67186e-09
-3.47626e-09
1.01074e-08
9.60138e-09
-1.09999e-08
7.39032e-09
-6.19851e-10
2.83092e-09
-2.33556e-10
1.12957e-08
9.59347e-09
1.15786e-09
-8.7636e-09
-1.7648e-09
5.47073e-09
1.01444e-09
-4.72037e-09
6.85947e-09
-8.06949e-09
-7.41868e-10
6.8591e-09
-4.82031e-09
-2.46167e-09
7.04843e-09
-6.59282e-09
1.15264e-09
-1.98785e-09
-5.86093e-09
5.38712e-09
-7.6358e-09
4.90608e-09
-3.0048e-09
3.27144e-09
2.59702e-09
-1.3107e-10
7.65135e-09
-5.47905e-09
3.42544e-09
-3.40988e-09
1.61531e-10
-9.48552e-10
-5.56776e-09
-1.98555e-09
8.50185e-09
-1.72653e-09
-3.72322e-09
4.50121e-09
-2.19257e-09
7.55178e-09
-7.86252e-09
2.50332e-09
3.59138e-09
-2.7068e-10
-5.51326e-09
-2.74817e-09
6.10067e-09
4.19928e-09
9.87293e-10
-1.44063e-10
-1.38762e-10
2.15573e-09
5.93936e-09
-7.95633e-09
4.23536e-09
-6.11381e-10
-5.86807e-09
9.1169e-10
-4.11354e-09
-2.2106e-10
-2.84174e-09
-7.56799e-09
4.54167e-09
5.44728e-09
-9.12856e-09
8.39541e-10
5.61746e-09
-2.88487e-09
-6.25813e-09
1.44397e-11
-1.5213e-09
-8.93155e-09
3.13176e-09
-4.92374e-09
5.51715e-12
6.72909e-09
-2.83033e-09
-8.02601e-09
4.12724e-09
1.54663e-09
-2.66389e-09
9.02932e-10
2.14226e-10
5.8036e-09
-5.78117e-09
4.75007e-09
-4.7725e-09
-1.60557e-09
4.82844e-09
2.58072e-09
3.27463e-09
-7.20871e-09
-1.84711e-09
1.42075e-09
2.48289e-10
2.34114e-09
6.26224e-10
-3.97778e-09
6.44377e-09
2.36245e-09
-6.70437e-10
1.44273e-09
-3.26371e-09
5.32234e-09
-3.02848e-09
9.69815e-10
4.76494e-09
-6.0117e-09
-2.34404e-09
3.59079e-09
8.3079e-10
3.20238e-09
-6.60071e-09
1.22939e-09
2.16929e-09
-1.22461e-08
5.32167e-09
1.01269e-08
-6.17318e-09
-1.26737e-08
-2.17104e-09
5.25995e-09
-6.41414e-09
3.32524e-09
3.84988e-09
9.93248e-10
-7.01418e-09
-3.63408e-09
4.89697e-09
-3.34831e-11
-2.2495e-09
7.45885e-09
-3.83626e-09
-1.37309e-09
3.33211e-09
-3.11631e-09
9.39015e-10
4.35762e-09
-3.66674e-11
-3.13135e-09
6.20352e-09
4.10129e-09
-9.28121e-09
9.36487e-09
8.37953e-10
-6.10152e-09
-1.36308e-09
-5.04759e-09
-3.48688e-12
-1.27407e-09
-7.10318e-09
-1.0195e-08
-1.13509e-09
6.83728e-09
4.49283e-09
-8.59951e-09
-4.17759e-09
2.58212e-09
5.09843e-09
-4.43631e-09
4.24435e-09
1.5083e-09
-1.31872e-09
-4.43391e-09
3.61147e-09
6.67474e-10
-3.45942e-11
1.62458e-09
-6.61506e-09
6.15286e-09
-1.16239e-09
4.7161e-09
5.19961e-10
-4.12835e-11
-5.06547e-09
5.98529e-09
-7.69834e-09
3.94339e-10
5.15544e-09
6.26294e-09
-5.43309e-09
5.86716e-09
-4.42417e-11
-9.22901e-09
-1.11479e-09
2.94182e-09
7.40198e-09
-8.42887e-09
4.57879e-09
-5.37892e-09
-6.57141e-10
1.41257e-09
3.96067e-09
4.38094e-09
-6.45924e-09
-2.01092e-09
-8.06337e-09
1.02886e-09
9.97634e-09
-4.24106e-09
7.56478e-10
-4.15626e-09
4.64016e-09
5.38326e-09
8.05692e-10
1.30099e-09
-4.91528e-09
-6.54282e-10
6.59842e-09
-6.89641e-09
-2.25992e-09
2.64835e-09
-8.73907e-09
5.39845e-09
-7.463e-10
9.59056e-10
-6.42594e-09
6.2132e-09
8.94356e-10
6.19637e-09
-7.83702e-09
2.03588e-09
1.21569e-08
-1.32984e-08
1.21392e-08
-9.14423e-09
5.60424e-09
-7.03305e-09
7.62519e-09
-3.78535e-09
1.00819e-08
-6.92339e-10
-4.63331e-09
2.29478e-09
1.10679e-08
-8.72939e-09
8.11923e-09
-1.00139e-08
-2.73865e-09
1.1441e-08
3.01251e-10
4.14671e-10
2.22002e-09
7.58149e-09
-1.62303e-08
6.42879e-09
6.27699e-09
7.38404e-09
1.59551e-09
-4.50389e-09
1.04899e-08
1.01673e-08
7.63104e-09
-1.17221e-08
-2.28782e-09
5.41498e-09
-3.84421e-09
3.54265e-09
-2.99881e-09
3.30035e-09
-4.92238e-09
2.77118e-10
8.01057e-10
1.11663e-10
-4.13501e-09
-8.99038e-10
3.6075e-09
-3.0409e-09
-4.54948e-10
1.73589e-09
-4.58389e-09
-3.72472e-09
6.57271e-09
-2.53313e-09
7.81167e-09
-5.5373e-09
1.23053e-09
6.34944e-10
-2.62569e-11
-7.743e-09
-1.19633e-09
3.40205e-09
-1.55668e-09
3.46051e-09
-9.64682e-09
5.77565e-10
-6.26925e-09
1.63492e-09
-4.09827e-09
-1.29313e-08
7.54555e-09
4.18947e-09
1.9833e-09
-1.14542e-08
-1.15129e-08
1.2826e-09
3.67834e-09
6.55199e-09
-8.62351e-09
-9.0614e-10
-3.75597e-09
-3.73654e-09
4.95936e-09
-3.11866e-09
-2.37787e-12
4.93955e-09
-7.39349e-09
7.49916e-09
-3.81533e-09
2.33158e-09
2.80866e-09
-2.49438e-08
-5.66316e-09
2.77983e-08
-3.81463e-08
5.60934e-09
2.70782e-08
5.45874e-09
1.26127e-09
-2.36939e-08
-1.57137e-08
3.04713e-09
-1.97845e-08
6.57134e-09
1.0166e-08
7.34669e-09
2.33251e-08
-2.50625e-08
-1.09226e-08
2.8218e-09
1.56901e-08
-7.58932e-09
-7.81168e-09
-3.02294e-10
-1.07173e-08
-3.37996e-09
1.6919e-08
-1.22586e-08
-5.14261e-10
2.05548e-09
-5.07386e-09
-1.76099e-08
1.04252e-08
-1.791e-08
5.02443e-09
-9.66444e-09
-1.40181e-08
1.36187e-08
2.15973e-09
-1.62927e-08
1.75855e-08
1.43155e-09
-6.5053e-09
-1.28363e-08
-1.11424e-08
-5.03602e-09
-1.31226e-08
3.21965e-08
-1.39689e-08
-1.98567e-08
1.62905e-09
2.06671e-08
-5.19381e-09
1.67232e-08
-1.06271e-10
9.09106e-09
-2.30166e-08
1.40318e-08
2.06942e-08
1.35685e-08
-3.4369e-08
2.56266e-08
6.44257e-09
-1.13749e-08
2.49429e-08
-1.32852e-08
8.98412e-09
-1.52723e-08
4.78982e-10
3.19064e-09
2.12733e-08
1.83643e-08
2.7818e-09
1.41244e-08
1.28406e-09
-1.90445e-09
-1.3504e-08
1.96861e-08
-9.75755e-10
-1.22678e-08
-2.23883e-08
5.88867e-09
1.13058e-08
-5.19224e-09
-8.21191e-09
-1.6711e-09
1.79839e-08
3.37337e-09
1.13476e-08
1.10569e-09
6.29543e-09
-9.91862e-09
1.49708e-08
1.83049e-08
2.86961e-09
1.25389e-08
-8.64005e-09
-1.02459e-09
1.48475e-08
3.17517e-09
4.95653e-10
1.52205e-08
-1.88913e-08
2.0489e-08
-1.97505e-08
2.43662e-09
-1.67478e-08
3.24073e-09
6.66618e-09
-5.76512e-09
4.3981e-09
-3.03568e-08
-1.69279e-08
3.20547e-09
-6.25377e-09
9.96334e-09
-6.91505e-09
1.10113e-08
-3.71319e-09
-4.09267e-09
7.87015e-09
-4.69073e-09
-6.45978e-09
3.987e-09
-2.0208e-09
1.03251e-08
-1.45581e-08
-7.60736e-09
-9.22228e-09
1.31164e-08
1.29354e-08
-2.25636e-08
-2.28914e-08
5.9306e-09
9.58621e-09
7.37463e-09
1.52687e-08
-2.52247e-08
9.85459e-10
2.51809e-09
4.81006e-09
1.02477e-08
-4.73268e-09
-2.44769e-08
1.12691e-08
7.84782e-09
3.38539e-09
-4.80537e-10
-5.22932e-09
-3.02398e-09
-2.07944e-09
-3.4175e-09
-5.36231e-09
-8.27318e-09
-1.038e-09
3.07734e-09
-5.28319e-09
2.36038e-09
-6.34665e-09
2.94828e-09
2.01047e-09
-5.0124e-09
-1.58499e-09
-3.02815e-09
-3.59276e-09
3.18989e-09
1.36336e-08
3.39699e-09
1.30146e-08
6.07054e-09
2.68436e-09
1.51763e-08
-4.22706e-09
-1.4696e-09
1.71686e-08
-5.4184e-10
-9.94094e-09
-4.61095e-10
1.09439e-08
-6.53808e-10
9.91785e-09
-9.80589e-09
-1.69551e-08
1.10614e-08
2.39829e-08
-1.80892e-08
-1.06469e-08
-2.89893e-09
-3.40929e-09
1.74324e-08
7.30265e-09
1.23175e-08
3.54027e-09
1.57464e-09
5.18188e-09
3.11247e-09
6.88197e-09
3.00881e-09
-1.15177e-08
-1.43212e-09
4.69281e-10
-1.04616e-08
9.3385e-09
1.10696e-08
7.03777e-09
-2.92796e-08
2.10185e-09
1.24589e-08
1.47189e-08
-3.35707e-09
-5.65754e-09
-2.0265e-08
-2.48256e-08
1.16787e-08
1.52488e-08
-6.7669e-09
-2.14158e-08
1.06186e-08
-1.12886e-08
-1.51993e-09
2.18993e-09
9.05369e-09
1.40238e-08
-8.68893e-09
1.13842e-08
6.16887e-09
8.02925e-09
-1.08443e-08
3.55365e-09
1.09825e-08
-1.07267e-08
2.49008e-10
1.69454e-08
-5.51579e-09
-4.20255e-09
1.35053e-08
2.74459e-09
-3.21042e-09
1.0392e-08
5.93438e-10
-9.61454e-10
5.1165e-09
-1.87131e-08
4.80938e-09
-2.1464e-08
1.56931e-08
-2.89614e-10
-3.03352e-09
8.43963e-09
8.08485e-09
-3.56508e-09
-7.31506e-09
-6.2502e-09
-5.1479e-09
-1.33589e-08
-1.54202e-08
6.2546e-09
3.50256e-09
-5.21549e-09
7.25767e-09
-9.13809e-11
-6.31447e-09
8.57992e-09
4.99221e-09
3.19871e-11
-2.8439e-09
1.98234e-10
5.85813e-09
2.44549e-09
2.61802e-09
6.16013e-09
-8.15546e-09
7.73996e-09
-8.96392e-09
-5.44174e-09
-8.08778e-09
-7.27997e-09
2.00889e-09
-4.69002e-09
-4.24191e-09
-1.19383e-08
4.5169e-09
6.68269e-09
3.82359e-09
-1.50232e-08
3.13413e-09
5.11403e-09
-3.73125e-09
-1.29664e-09
6.76183e-09
-9.25053e-09
-7.45679e-09
4.04232e-09
2.11784e-09
8.64392e-09
-8.38717e-09
1.6524e-09
1.01257e-08
6.0961e-09
-1.01095e-08
-8.17464e-09
5.83188e-09
-2.28191e-09
1.34497e-09
-1.54591e-09
-3.53583e-09
-1.51137e-09
6.59312e-09
-4.51349e-09
-3.56429e-09
6.53187e-09
-3.48864e-09
1.48774e-09
2.13489e-09
-1.33972e-10
2.21514e-09
-2.76447e-09
-3.96414e-09
-1.4396e-09
1.66113e-10
2.19586e-11
-5.14593e-09
7.76881e-10
4.3471e-09
-3.95252e-09
5.08273e-10
3.46621e-09
-2.11523e-09
-4.88882e-09
3.05156e-09
-3.59534e-09
4.05625e-11
3.90553e-09
-1.04909e-09
-6.45175e-09
2.05123e-09
-3.03451e-09
3.31695e-09
-7.13052e-09
2.28428e-09
-2.50315e-09
-8.10427e-10
2.31417e-09
-5.29936e-09
5.33051e-09
-2.34534e-09
-1.13994e-09
3.5433e-09
-8.92014e-11
-5.02615e-09
-4.89338e-09
3.93037e-09
7.55951e-10
3.63703e-10
-5.05004e-09
-1.99299e-10
1.4794e-09
-6.02281e-09
5.89612e-09
-1.88005e-09
1.31445e-09
-8.83932e-09
4.9704e-09
1.98885e-09
1.27334e-09
-8.63327e-09
1.30802e-09
-5.97047e-09
1.09884e-08
-2.84185e-10
-9.43091e-09
7.21818e-09
-8.12277e-09
4.5875e-09
6.54726e-09
-8.66119e-09
-2.47359e-09
-9.08081e-09
1.15319e-08
2.13638e-09
9.43939e-09
3.61541e-09
-6.50754e-09
3.53834e-10
-1.10352e-08
2.02022e-09
2.58672e-09
-1.13137e-08
8.19426e-10
-1.15815e-09
9.77811e-09
-1.36868e-09
1.372e-08
9.06513e-09
-2.73317e-09
3.10875e-10
-6.64284e-09
-1.4346e-08
1.08093e-08
1.26018e-08
-1.44924e-08
4.71633e-10
-8.5074e-09
6.87763e-09
9.91226e-09
-9.59069e-09
5.33007e-09
-4.24679e-09
-7.10094e-09
-2.17888e-09
-8.73362e-09
5.7098e-09
-1.61113e-08
1.91352e-08
-1.24116e-09
-3.444e-08
2.69476e-08
-4.37548e-09
-1.05785e-08
2.06638e-08
-6.63884e-09
-1.27937e-08
1.5057e-08
-2.92584e-08
2.13784e-08
-1.39013e-09
-1.9435e-08
8.03149e-09
1.14685e-08
5.48313e-09
-1.83417e-08
-1.67463e-08
-9.92169e-09
7.23297e-09
-1.19166e-08
-1.15135e-08
6.68379e-09
7.12249e-09
-1.95862e-08
-2.19763e-08
1.13799e-08
-1.23287e-08
-9.80721e-09
1.93969e-08
-4.00155e-09
-2.7312e-08
-2.8534e-09
-1.52552e-08
5.57268e-09
-1.79765e-08
-1.68649e-08
-3.37002e-08
3.49523e-09
7.81275e-09
-9.56244e-09
-1.74552e-09
5.28924e-09
-2.40208e-09
6.0805e-10
7.8509e-09
-7.81286e-09
7.7747e-09
3.79665e-09
9.34349e-09
1.74258e-08
-5.56256e-09
1.44943e-09
-1.33127e-08
2.55769e-10
9.35716e-09
-7.84374e-09
-3.17869e-09
2.04377e-09
8.97864e-09
-6.52945e-09
7.59846e-09
-8.91275e-09
-8.63319e-09
9.00466e-10
4.55398e-09
-3.61182e-09
-1.7157e-09
-3.30568e-09
3.07376e-09
3.59506e-09
-5.76838e-09
-3.95469e-09
4.38857e-09
5.5817e-10
-9.92095e-10
-3.6935e-09
-1.14315e-08
-7.40292e-09
1.04612e-09
-3.18986e-09
-9.5692e-09
5.35614e-09
1.41628e-08
-3.41963e-09
-9.2937e-09
7.88909e-09
-2.96065e-09
8.80106e-09
4.50168e-09
2.67128e-09
-9.55463e-09
5.81835e-09
-8.02188e-09
-7.03589e-09
5.55926e-10
1.45018e-08
-7.74515e-09
1.81228e-09
-2.089e-09
-1.487e-08
-8.60784e-09
1.64419e-08
-5.49192e-09
-1.1179e-09
-8.26016e-09
5.6795e-09
5.89725e-09
-4.1216e-09
-7.45515e-09
-3.67753e-09
-1.31708e-10
9.48875e-09
-4.86403e-09
1.14881e-08
-6.06817e-09
-7.33981e-09
-2.38291e-08
3.29888e-09
7.45818e-09
1.30721e-08
5.47225e-09
-1.20117e-08
-1.72897e-08
1.8153e-08
-1.09539e-08
-8.31702e-09
1.28441e-08
8.54908e-09
-1.67053e-08
4.03461e-09
9.6396e-09
-4.76804e-09
1.06477e-08
-5.20369e-09
2.82322e-11
1.32419e-08
6.95395e-10
3.74051e-09
-1.36259e-08
-4.19875e-10
3.25601e-09
1.07897e-08
4.1301e-10
-9.92633e-09
-1.22712e-08
-3.40836e-09
9.79098e-09
5.88854e-09
-3.24299e-09
-8.61518e-09
1.18199e-08
3.38022e-09
9.33881e-09
-1.03468e-08
5.38418e-09
5.46263e-10
1.11468e-09
1.19323e-08
-7.98469e-09
1.13274e-08
-2.22801e-09
1.11986e-09
-3.72037e-09
4.24964e-10
-2.45445e-09
-5.37713e-09
7.40662e-09
-2.6707e-09
9.66837e-09
-2.06082e-09
1.01573e-08
-1.05509e-08
2.21983e-09
9.79948e-09
-1.40801e-08
-5.33512e-09
1.18853e-09
7.04828e-09
-3.40823e-09
1.47517e-09
1.507e-08
5.1701e-09
1.20993e-08
-3.23395e-08
1.00178e-08
2.06017e-08
-1.55495e-08
-3.80466e-09
3.036e-10
-6.05344e-09
9.55447e-09
4.02364e-10
1.68223e-08
-2.71831e-08
9.9584e-09
-1.45738e-08
1.06041e-08
9.13987e-09
-2.18344e-08
8.31037e-09
1.39264e-08
9.34979e-09
5.44628e-09
-8.76451e-09
-6.03155e-09
5.62499e-09
1.67919e-08
-1.30671e-08
6.10968e-09
-3.8612e-09
-5.17245e-09
2.08152e-08
-8.79728e-09
1.42289e-08
2.49814e-09
-5.18574e-09
4.6572e-09
-9.72611e-09
8.65737e-09
-3.58849e-09
-9.98303e-09
1.3002e-08
1.63815e-09
9.59023e-09
-5.62086e-09
-1.36955e-08
2.70839e-09
-3.1012e-09
-4.69443e-09
6.6665e-09
1.103e-08
1.32028e-09
2.64261e-09
1.4335e-08
-9.80529e-09
-2.65706e-09
-1.8727e-09
-6.13513e-09
8.77836e-09
1.16918e-08
-3.87018e-09
6.64036e-09
-6.17993e-11
-1.18085e-08
1.80316e-09
-6.82696e-09
-1.47868e-08
7.05161e-09
-1.15112e-08
2.50157e-08
-2.05562e-08
1.99003e-09
1.13168e-08
1.782e-08
7.75895e-09
-2.02068e-08
-1.31188e-08
2.92784e-09
-2.33842e-08
1.80243e-08
3.36091e-09
8.41682e-09
-6.10289e-09
-5.67484e-09
7.06455e-09
-3.40246e-09
5.68336e-09
-9.34542e-09
6.59888e-09
1.10188e-09
-6.3619e-10
-3.55332e-09
-6.89553e-09
5.48291e-09
4.96595e-09
-3.34397e-09
1.16037e-08
-4.89882e-09
4.98999e-09
-1.19458e-08
-1.82197e-08
9.46079e-09
1.37489e-08
-5.52928e-09
8.78419e-09
-5.18807e-10
6.72892e-10
1.07634e-08
9.94221e-10
-1.50045e-08
3.24679e-09
-1.30945e-08
9.06586e-09
1.47921e-08
7.66892e-09
-9.07027e-09
2.39557e-09
-4.89632e-09
2.69299e-09
9.87226e-09
4.84994e-09
-8.39252e-09
-1.14619e-08
-1.76553e-08
7.19417e-10
3.84138e-09
-5.12823e-09
-9.69969e-09
-3.34542e-09
8.14878e-09
-3.95682e-09
-1.62093e-09
-4.12194e-09
-4.19863e-09
1.59575e-08
-7.13535e-09
-5.89174e-09
-1.71245e-09
-1.38154e-08
9.477e-09
-4.61304e-09
-9.9922e-09
1.34529e-08
4.2259e-09
-8.20182e-09
1.08184e-08
3.35393e-09
1.21681e-08
-4.64009e-09
-3.30206e-09
6.99469e-10
4.42279e-09
7.0458e-09
7.38071e-09
-5.10141e-09
-3.90022e-09
4.73476e-09
4.51831e-09
-1.08438e-08
1.10426e-08
-5.22319e-09
-6.70773e-09
5.83892e-09
-1.15946e-09
2.02827e-09
4.4942e-09
-7.02707e-09
-4.17487e-09
-3.12279e-09
5.52586e-09
3.43585e-09
1.46082e-09
-8.94133e-11
-1.33283e-09
-1.52407e-09
8.38275e-09
-4.26556e-09
5.27953e-09
-7.00143e-09
8.88336e-09
-5.23569e-09
-2.6424e-09
7.36473e-09
-2.1959e-09
-1.21959e-08
9.69565e-10
-2.85297e-09
4.82358e-11
-6.06537e-09
1.78522e-09
6.99909e-09
-2.71894e-09
-3.60289e-09
5.57352e-09
-8.03602e-09
5.10066e-09
-1.08994e-08
-5.4708e-10
-2.79712e-09
3.09944e-09
6.69677e-09
-7.65726e-11
5.70249e-09
4.56028e-09
-7.07116e-09
-3.19162e-09
7.35363e-09
-1.90636e-09
2.55214e-10
-2.94527e-09
3.14222e-10
-2.33486e-09
4.9659e-09
-6.72619e-09
-3.66531e-11
3.81754e-09
-8.20794e-09
5.23358e-10
9.58393e-10
1.49542e-09
-1.40864e-09
-8.29473e-09
-4.46789e-09
6.3571e-09
5.46441e-09
6.15741e-10
2.01655e-10
-5.77739e-09
-4.56449e-09
-3.28234e-09
8.16105e-09
-1.04866e-08
5.88541e-09
-1.19171e-08
8.47946e-11
1.34568e-09
1.41651e-09
-1.47422e-08
7.08228e-09
-5.64327e-09
-1.23736e-09
5.05876e-09
1.17156e-10
1.04077e-08
-1.10042e-08
2.01295e-09
9.1765e-09
1.316e-09
-1.25321e-09
5.27545e-09
-2.81154e-09
8.7057e-09
-9.45967e-09
5.39491e-09
-8.94021e-09
4.5393e-09
-1.14059e-08
6.76637e-09
8.92226e-09
-4.28277e-09
1.62392e-09
-1.01717e-08
-2.85814e-09
-7.98819e-09
6.22323e-09
-7.60398e-09
9.36892e-09
-4.44324e-09
-1.92104e-09
-5.1903e-09
-7.12784e-09
-9.45753e-09
2.17757e-08
-2.88846e-08
-1.28e-08
1.64305e-08
2.52541e-08
-1.64134e-08
-1.76615e-08
5.34351e-11
1.29362e-08
-9.34803e-09
5.97594e-09
-4.23191e-09
-8.92729e-09
-4.86399e-09
-3.32973e-10
-4.75136e-09
-3.84297e-09
-4.59156e-09
-6.07024e-09
1.03288e-08
-8.27241e-09
-9.02713e-09
5.67166e-09
-1.70403e-08
-5.0448e-09
7.10017e-11
-7.19932e-09
1.43293e-08
-7.38462e-09
-6.89125e-09
3.71081e-09
-6.30235e-09
-2.00003e-09
-4.74973e-09
8.53154e-09
-6.94073e-09
-1.69658e-09
2.77286e-09
5.86442e-09
-6.46235e-09
1.28097e-09
-1.75937e-09
-1.03761e-08
7.58167e-09
1.09785e-09
1.15416e-09
-6.59821e-09
-1.01829e-09
-9.2271e-09
5.16682e-12
-2.46869e-09
7.71314e-11
8.61235e-09
-6.22081e-09
9.80983e-10
-1.07976e-08
1.79222e-09
8.0244e-09
1.75148e-09
1.7993e-09
-1.0149e-08
4.47809e-09
-1.19537e-08
-1.07563e-08
9.26855e-09
3.07959e-09
-9.39912e-09
5.17459e-09
-1.22457e-08
8.8704e-09
2.23039e-09
-5.07295e-09
8.01714e-09
2.50591e-08
1.02334e-08
-6.64417e-09
-2.86483e-08
3.28718e-09
1.64191e-08
5.35281e-09
-2.03813e-08
1.49115e-08
8.75697e-09
-7.40997e-10
-9.40688e-09
-1.1129e-08
1.96105e-08
-9.22244e-09
-7.964e-09
2.43289e-08
-2.74939e-08
1.8626e-08
-3.32342e-08
2.21264e-08
2.20979e-08
-2.55983e-08
4.04447e-09
1.69912e-08
1.09078e-09
-4.07857e-09
6.21692e-10
1.83684e-08
-1.51847e-08
-3.31505e-10
1.14376e-08
-1.71798e-08
2.16056e-08
5.3182e-09
1.83091e-09
1.64428e-08
4.0208e-09
-2.37963e-08
1.54662e-08
2.53213e-08
3.61979e-09
-4.22278e-09
2.12872e-08
1.09119e-08
-1.5014e-09
8.37826e-09
-8.2212e-09
1.34427e-09
5.54141e-09
-5.76038e-09
-1.28244e-09
-5.5405e-09
8.02514e-10
1.02793e-08
-8.9092e-10
3.72864e-09
1.03318e-09
1.72297e-10
-6.96588e-09
3.17833e-10
-4.74819e-09
-3.79086e-09
5.04931e-09
-2.05482e-09
-2.67668e-09
4.38439e-09
-3.09382e-09
3.75871e-09
-3.14848e-09
-3.06431e-09
7.01527e-09
3.44963e-10
3.70594e-09
-4.00578e-09
3.67328e-09
-3.37348e-09
4.04177e-09
6.97323e-10
3.62703e-09
-2.09997e-09
-3.5819e-09
4.64152e-10
6.90457e-11
-6.30097e-09
1.9522e-10
-4.02142e-09
4.99887e-09
1.16014e-10
2.44945e-08
-8.14336e-09
8.981e-09
-2.53321e-08
4.34823e-09
9.47606e-09
1.06702e-08
-1.53634e-08
1.0552e-08
9.15967e-09
-1.74862e-08
-1.83287e-09
3.95563e-09
-1.28442e-09
-2.43451e-08
3.52349e-08
-3.06327e-09
-2.31907e-08
2.91854e-08
1.55256e-08
-4.3948e-09
1.32844e-08
1.66236e-09
2.91128e-09
-1.3008e-08
8.81226e-09
-1.82197e-09
-1.34633e-08
-1.48651e-08
3.20884e-09
9.83432e-09
-1.15909e-08
-2.57406e-09
-7.00131e-10
1.82906e-08
-6.29689e-09
1.54188e-08
6.08065e-09
-1.49765e-08
6.20831e-10
-5.2625e-09
2.46481e-09
2.17691e-09
-5.62103e-09
2.72151e-09
3.52035e-09
8.50497e-10
-4.15344e-09
7.24211e-10
2.57875e-09
-4.29284e-09
3.35983e-09
1.78351e-09
-1.37515e-09
-1.98493e-09
5.26089e-09
-1.90081e-09
3.99591e-09
-4.26745e-11
-9.21574e-09
2.32126e-09
-3.94636e-09
-2.54465e-09
3.89101e-09
3.1186e-09
-7.31471e-09
2.60467e-09
-3.77892e-09
-2.3145e-09
3.68939e-09
-2.68367e-10
4.49858e-11
2.18052e-11
2.25925e-09
9.18448e-09
1.06064e-09
-1.25044e-08
4.55158e-10
-1.04375e-08
1.30223e-08
-3.03999e-09
-4.86901e-09
2.13024e-08
-1.59782e-08
-1.66123e-08
1.40025e-08
-1.11363e-08
-1.4677e-08
1.53758e-08
3.1022e-09
-1.14748e-08
-2.76375e-09
-1.52891e-08
-6.35445e-09
5.03126e-09
-2.31961e-09
1.1233e-08
-5.81118e-09
-9.54227e-09
-5.59955e-09
4.64822e-10
-8.9164e-09
-1.21006e-08
-1.39392e-08
-4.65207e-09
1.29917e-08
1.71215e-08
-1.39253e-09
1.99177e-09
-1.77206e-08
5.53862e-09
-3.70618e-09
1.02543e-09
-1.42643e-08
1.18464e-08
-8.48281e-10
-1.10991e-08
-8.73925e-09
4.77098e-09
-1.43057e-09
-1.50217e-08
1.16813e-08
8.42227e-11
-1.07443e-08
1.54311e-08
-3.37176e-09
-7.41759e-09
1.08736e-08
-1.17536e-08
6.95129e-09
8.5015e-09
-1.18532e-08
2.91313e-09
4.38524e-10
8.53172e-09
-7.13077e-09
7.10055e-09
2.56588e-09
-2.78501e-09
-1.05252e-08
1.60941e-09
-1.40653e-08
-5.87765e-09
6.99179e-09
3.89409e-09
-2.3147e-10
-1.55158e-08
-6.93157e-09
3.69488e-09
-7.82397e-09
-1.18425e-08
7.91288e-09
-7.31201e-10
-1.29704e-08
-1.91167e-08
1.43929e-08
4.49231e-09
-8.13503e-09
-1.90862e-09
-1.79891e-09
8.5322e-09
-8.13114e-09
-4.7346e-10
7.23963e-11
2.63539e-09
8.51846e-10
5.04494e-09
3.59412e-09
-3.72106e-09
-8.00419e-09
2.59617e-09
9.72985e-09
-9.04334e-09
-3.28268e-09
5.63087e-09
-3.14844e-09
1.13744e-10
3.45316e-09
2.47077e-09
3.80591e-09
3.96193e-09
5.12209e-09
-5.45389e-09
2.90861e-09
5.18066e-09
-1.94752e-09
8.77483e-11
5.0466e-09
2.29182e-09
-5.04182e-09
-2.2966e-09
-4.93613e-11
5.12418e-09
9.51831e-09
-1.37907e-08
9.17861e-09
3.14894e-09
-1.16752e-08
-6.52384e-10
-4.06289e-09
1.98105e-10
1.30434e-08
-1.18296e-08
1.12143e-08
-3.4476e-09
3.5875e-09
-1.22681e-08
-1.14059e-09
-5.61094e-09
1.94275e-10
6.67626e-09
8.14394e-09
-5.69702e-09
1.30417e-08
6.31652e-09
-6.97583e-09
1.22943e-08
8.53661e-09
4.78729e-09
-3.69934e-09
3.24765e-09
-4.3356e-09
3.80091e-09
8.74374e-10
1.12003e-10
-5.12733e-09
3.56466e-09
9.72372e-09
5.07085e-11
6.36294e-09
-1.1541e-08
4.60354e-09
-8.25217e-09
-3.2353e-09
3.99851e-09
3.0377e-09
4.47112e-10
-4.34761e-10
3.26143e-09
4.29813e-09
-2.95601e-09
3.97833e-09
1.57477e-10
5.00741e-09
-9.95643e-10
1.31654e-09
6.84286e-09
1.56433e-09
1.20248e-08
4.5966e-09
-1.02584e-08
1.05277e-08
2.81366e-09
3.3708e-09
-1.50552e-10
1.07789e-09
3.2832e-09
4.06593e-09
4.95594e-09
6.89433e-09
3.28739e-09
1.15867e-09
3.91316e-09
9.90189e-09
3.02505e-10
6.97921e-09
9.1716e-09
8.33876e-09
7.25487e-09
-9.86193e-09
-5.73171e-09
1.21839e-08
-6.61837e-09
2.77323e-09
-5.94435e-09
1.20578e-10
-3.9007e-09
9.72446e-09
-6.43624e-10
1.95413e-09
-2.85054e-09
5.48773e-09
-5.2859e-09
2.6487e-09
-4.49188e-09
1.73658e-09
-9.52514e-11
3.95691e-09
8.8719e-10
-2.42314e-09
6.50062e-09
-1.12909e-11
-3.17998e-09
-6.67067e-09
-3.87423e-09
1.21574e-08
1.70274e-09
-1.71329e-09
-4.48134e-09
-3.59446e-09
-2.71533e-09
4.39169e-09
6.02182e-11
-2.51891e-09
-7.28077e-09
7.28505e-09
2.51462e-09
-5.15263e-09
-8.1612e-11
1.54386e-09
5.77032e-10
-9.40167e-09
-5.32206e-09
1.14779e-08
-1.40808e-08
9.2817e-09
-4.4222e-09
-2.85677e-09
4.82531e-09