/*--------------------------------*- C++ -*----------------------------------*\
| =========                 |                                                 |
| \\      /  F ield         | OpenFOAM: The Open Source CFD Toolbox           |
|  \\    /   O peration     | Version:  v1612+                                |
|   \\  /    A nd           | Web:      www.OpenFOAM.com                      |
|    \\/     M anipulation  |                                                 |
\*---------------------------------------------------------------------------*/
FoamFile
{
    version     2.0;
    format      ascii;
    class       volVectorField;
    location    "166";
    object      U;
}
// * * * * * * * * * * * * * * * * * * * * * * * * * * * * * * * * * * * * * //

dimensions      [0 1 -1 0 0 0 0];

internalField   nonuniform List<vector> 
16995
(
(-0.10143 0.561892 -0.223244)
(-0.0995486 0.597221 -0.236662)
(-0.113387 0.653605 -0.248544)
(-0.157853 0.685051 -0.318344)
(-0.181028 0.990568 -0.397734)
(-0.195491 1.07922 -0.439542)
(-0.201847 1.11154 -0.444947)
(-0.219211 1.18804 -0.491407)
(-0.182342 0.986043 -0.404272)
(-0.185827 1.0105 -0.415989)
(-0.192217 1.04938 -0.428657)
(-0.17365 0.94111 -0.39134)
(-0.194228 1.02271 -0.42511)
(-0.185461 1.01012 -0.408843)
(-0.177441 0.991259 -0.40743)
(-0.202079 1.08039 -0.431464)
(-0.180373 0.978898 -0.400743)
(-0.195795 1.07178 -0.430517)
(-0.167762 0.928155 -0.380033)
(-0.173528 0.939412 -0.384512)
(-0.0940402 0.563186 -0.215015)
(-0.0831832 0.501515 -0.19679)
(-0.105732 0.604923 -0.230356)
(-0.0938416 0.557162 -0.21412)
(-0.117466 0.72678 -0.273698)
(-0.113418 0.718699 -0.269899)
(-0.127447 0.735746 -0.274953)
(-0.12731 0.758677 -0.289857)
(-0.100361 0.614172 -0.2288)
(-0.10791 0.624506 -0.241092)
(-0.0943234 0.571601 -0.212959)
(-0.102348 0.627246 -0.233708)
(-0.0894497 0.515627 -0.20357)
(-0.121898 0.730142 -0.274679)
(-0.102178 0.632856 -0.237414)
(-0.0968387 0.587554 -0.223246)
(-0.0936581 0.553365 -0.204763)
(-0.0850612 0.539563 -0.204265)
(-0.0815899 0.490761 -0.186869)
(-0.104677 0.631755 -0.234507)
(-0.11139 0.66344 -0.274989)
(-0.09779 0.626088 -0.263126)
(-0.111655 0.615056 -0.253132)
(-0.0932842 0.612031 -0.261534)
(-0.143883 0.765281 -0.313865)
(-0.135205 0.742629 -0.31109)
(-0.101579 0.631786 -0.252079)
(-0.139867 0.759732 -0.316498)
(-0.137613 0.721083 -0.301426)
(-0.103785 0.62868 -0.273822)
(-0.10111 0.615121 -0.272642)
(-0.101905 0.58586 -0.237144)
(-0.105646 0.624781 -0.275631)
(-0.0983441 0.571298 -0.258413)
(-0.101812 0.64458 -0.265465)
(-0.103979 0.6276 -0.273584)
(-0.101844 0.535768 -0.232592)
(-0.103686 0.602507 -0.257333)
(-0.151551 0.920115 -0.3441)
(-0.137642 0.845142 -0.31639)
(-0.126966 0.800183 -0.296885)
(-0.14998 0.934254 -0.345977)
(-0.125935 0.778426 -0.289462)
(-0.128903 0.791283 -0.298175)
(-0.150423 0.932189 -0.343883)
(-0.157906 0.963844 -0.359919)
(-0.137075 0.819004 -0.304068)
(-0.130899 0.752874 -0.278291)
(-0.130029 0.78233 -0.29041)
(-0.125937 0.750655 -0.279086)
(-0.122065 0.744449 -0.2795)
(-0.128526 0.785123 -0.291144)
(-0.141918 0.840344 -0.319738)
(-0.162199 0.893278 -0.363953)
(-0.164673 0.914419 -0.374125)
(-0.180629 0.988209 -0.398088)
(-0.164837 0.898099 -0.364578)
(-0.149215 0.848759 -0.353769)
(-0.155203 0.87252 -0.356589)
(-0.166265 0.90511 -0.366508)
(-0.195061 1.05337 -0.425242)
(-0.168424 0.898988 -0.361812)
(-0.171301 0.909702 -0.365665)
(-0.166494 0.898414 -0.367038)
(-0.185245 1.03553 -0.416362)
(-0.183407 0.98406 -0.400407)
(-0.183514 0.985694 -0.395137)
(-0.187969 1.04884 -0.421635)
(-0.188151 1.04382 -0.416137)
(-0.168028 0.91845 -0.380617)
(-0.179743 0.988801 -0.402711)
(-0.191449 1.05176 -0.42304)
(-0.188366 1.03837 -0.417369)
(-0.175067 0.96611 -0.394887)
(-0.142005 0.735078 -0.313897)
(-0.157685 0.787464 -0.321027)
(-0.13974 0.761525 -0.314644)
(-0.145637 0.759884 -0.312247)
(-0.154344 0.823193 -0.341448)
(-0.149501 0.778213 -0.319806)
(-0.13952 0.724744 -0.317674)
(-0.139543 0.781806 -0.322246)
(-0.138731 0.78125 -0.326798)
(-0.169522 0.910078 -0.372202)
(-0.130253 0.738527 -0.314287)
(-0.164992 0.879891 -0.358757)
(-0.166896 0.874678 -0.371304)
(-0.172039 0.894211 -0.378922)
(-0.165939 0.862776 -0.359256)
(-0.15062 0.821179 -0.336219)
(-0.148286 0.833976 -0.343843)
(-0.181036 0.925898 -0.383678)
(-0.154706 0.874355 -0.361898)
(-0.139266 0.765796 -0.315453)
(-0.138703 0.729983 -0.306224)
(-0.150354 0.841994 -0.339849)
(-0.166011 0.891252 -0.362932)
(-0.16389 0.907982 -0.352)
(-0.159109 0.897472 -0.353016)
(-0.167887 0.920224 -0.354886)
(-0.149518 0.861624 -0.330062)
(-0.136638 0.786035 -0.296459)
(-0.159054 0.844379 -0.326252)
(-0.153369 0.875102 -0.334303)
(-0.14258 0.78649 -0.319751)
(-0.158017 0.837374 -0.33458)
(-0.138817 0.783593 -0.305834)
(-0.156307 0.869276 -0.34604)
(-0.127141 0.716505 -0.279671)
(-0.115107 0.629719 -0.23942)
(-0.149194 0.783856 -0.313476)
(-0.148295 0.860843 -0.326022)
(-0.117853 0.674496 -0.260419)
(-0.140293 0.762919 -0.300919)
(-0.144135 0.782425 -0.310631)
(-0.11684 0.636443 -0.24755)
(-0.158085 0.910551 -0.34167)
(-0.159999 0.937617 -0.358772)
(-0.138592 0.833957 -0.315662)
(-0.13107 0.774108 -0.290353)
(-0.14735 0.858351 -0.322853)
(-0.153107 0.887096 -0.331316)
(-0.156297 0.902519 -0.338783)
(-0.130483 0.754639 -0.287009)
(-0.129073 0.758394 -0.284513)
(-0.119458 0.702937 -0.267951)
(-0.133893 0.795004 -0.303995)
(-0.133293 0.795218 -0.306822)
(-0.118947 0.704065 -0.266923)
(-0.13567 0.81522 -0.308056)
(-0.123867 0.740126 -0.28301)
(-0.126505 0.761858 -0.290012)
(-0.121603 0.740629 -0.284436)
(-0.180462 0.937819 -0.388294)
(-0.177786 0.89864 -0.380739)
(-0.163824 0.818264 -0.340394)
(-0.161309 0.7923 -0.336011)
(-0.14831 0.741558 -0.309692)
(-0.155586 0.751128 -0.320383)
(-0.182059 0.934615 -0.391069)
(-0.167809 0.862188 -0.358335)
(-0.175185 0.887957 -0.366073)
(-0.157715 0.802842 -0.337045)
(-0.176066 0.877108 -0.371907)
(-0.168672 0.863478 -0.362792)
(-0.109517 0.603961 -0.242358)
(-0.113694 0.598161 -0.246797)
(-0.135761 0.723726 -0.297386)
(-0.143396 0.76179 -0.308627)
(-0.107266 0.521641 -0.213573)
(-0.105421 0.510262 -0.199427)
(-0.116443 0.604181 -0.241886)
(-0.110651 0.587822 -0.236924)
(-0.134941 0.748818 -0.30733)
(-0.0971287 0.559097 -0.227574)
(-0.0991521 0.542892 -0.217447)
(-0.106532 0.574287 -0.239007)
(-0.116274 0.596505 -0.243885)
(-0.127733 0.706221 -0.28996)
(-0.132808 0.737217 -0.300771)
(-0.107246 0.533617 -0.213486)
(-0.110069 0.611624 -0.247854)
(-0.126428 0.710858 -0.290774)
(-0.169601 0.941231 -0.361296)
(-0.150569 0.858596 -0.324275)
(-0.150156 0.894914 -0.343396)
(-0.132898 0.851444 -0.33238)
(-0.151151 0.917222 -0.352276)
(-0.145828 0.908944 -0.346506)
(-0.175294 1.05322 -0.406715)
(-0.150996 0.927628 -0.36088)
(-0.159663 0.938203 -0.364691)
(-0.160398 0.96272 -0.371912)
(-0.161156 0.985855 -0.38025)
(-0.174727 1.02289 -0.393079)
(-0.17625 1.06202 -0.407184)
(-0.15927 0.992875 -0.381366)
(-0.152335 0.814151 -0.336838)
(-0.149509 0.790414 -0.329398)
(-0.143764 0.743812 -0.318663)
(-0.150472 0.771961 -0.323155)
(-0.143879 0.75722 -0.318176)
(-0.154203 0.807733 -0.333371)
(-0.111694 0.584157 -0.265466)
(-0.101029 0.527222 -0.252242)
(-0.105368 0.572438 -0.26257)
(-0.104306 0.544195 -0.244792)
(-0.108481 0.57447 -0.265317)
(-0.121867 0.628243 -0.28475)
(-0.114215 0.638474 -0.283252)
(-0.11284 0.638652 -0.280642)
(-0.108175 0.580601 -0.256771)
(-0.147474 0.773382 -0.334397)
(-0.118891 0.619449 -0.278475)
(-0.138482 0.69233 -0.323439)
(-0.112024 0.566943 -0.261104)
(-0.126903 0.635112 -0.294869)
(-0.150622 0.725364 -0.321687)
(-0.149133 0.768891 -0.333786)
(-0.118926 0.604843 -0.276907)
(-0.130077 0.633592 -0.298748)
(-0.121221 0.596128 -0.289175)
(-0.146316 0.713614 -0.324175)
(-0.123523 0.606286 -0.290717)
(-0.14599 0.737577 -0.326414)
(-0.139826 0.66568 -0.316637)
(-0.140191 0.718888 -0.326044)
(-0.126205 0.618054 -0.295546)
(-0.104745 0.531446 -0.267578)
(-0.101931 0.617982 -0.244023)
(-0.0984052 0.618631 -0.23999)
(-0.132985 0.792554 -0.312273)
(-0.132669 0.787339 -0.314287)
(-0.142427 0.794641 -0.308208)
(-0.13367 0.809735 -0.314043)
(-0.10428 0.624302 -0.235236)
(-0.116838 0.687901 -0.267422)
(-0.110429 0.669983 -0.265848)
(-0.102871 0.629792 -0.247583)
(-0.115341 0.673326 -0.270571)
(-0.13815 0.810491 -0.307761)
(-0.11654 0.733241 -0.291531)
(-0.125142 0.769313 -0.311722)
(-0.100038 0.625857 -0.258608)
(-0.111931 0.649318 -0.269267)
(-0.0912967 0.580792 -0.247093)
(-0.0856484 0.527025 -0.224262)
(-0.101409 0.63708 -0.267109)
(-0.101025 0.613729 -0.255309)
(-0.089923 0.555373 -0.233293)
(-0.100266 0.605619 -0.254178)
(-0.0924301 0.5501 -0.239603)
(-0.149799 0.711351 -0.28137)
(-0.154418 0.831161 -0.327118)
(-0.143982 0.762937 -0.29478)
(-0.151925 0.780851 -0.311425)
(-0.143152 0.795025 -0.314801)
(-0.150499 0.78502 -0.318671)
(-0.153145 0.743031 -0.304914)
(-0.149818 0.794199 -0.308736)
(-0.120431 0.594899 -0.239056)
(-0.135295 0.667366 -0.274648)
(-0.148697 0.757581 -0.302794)
(-0.130945 0.655799 -0.26904)
(-0.132745 0.639951 -0.264749)
(-0.119429 0.591541 -0.243459)
(-0.135815 0.645581 -0.25651)
(-0.131369 0.627259 -0.261659)
(-0.112526 0.541541 -0.224244)
(-0.126686 0.653029 -0.259759)
(-0.127826 0.630094 -0.258653)
(-0.115732 0.559552 -0.235473)
(-0.12313 0.621264 -0.286063)
(-0.114031 0.563121 -0.282169)
(-0.12184 0.622867 -0.283885)
(-0.114019 0.573787 -0.268943)
(-0.115014 0.566813 -0.270432)
(-0.106536 0.508822 -0.253296)
(-0.140485 0.71889 -0.327576)
(-0.127859 0.619367 -0.290896)
(-0.117015 0.59597 -0.283687)
(-0.095272 0.491477 -0.255165)
(-0.122456 0.647537 -0.292736)
(-0.139273 0.710146 -0.319837)
(-0.141878 0.698837 -0.317525)
(-0.133737 0.685806 -0.317094)
(-0.10416 0.581517 -0.271558)
(-0.104344 0.563906 -0.277573)
(-0.0977502 0.52937 -0.268006)
(-0.107596 0.602363 -0.244354)
(-0.101136 0.532216 -0.222849)
(-0.109628 0.598265 -0.247144)
(-0.102786 0.567865 -0.237585)
(-0.102634 0.564729 -0.233108)
(-0.0948525 0.532282 -0.222885)
(-0.0842029 0.494113 -0.209487)
(-0.111113 0.604391 -0.250903)
(-0.118559 0.641087 -0.262104)
(-0.116933 0.623057 -0.262)
(-0.120724 0.619504 -0.250932)
(-0.124774 0.6776 -0.268122)
(-0.1285 0.796318 -0.326798)
(-0.12729 0.789896 -0.321783)
(-0.138119 0.805919 -0.329231)
(-0.102961 0.599118 -0.248378)
(-0.107172 0.657482 -0.277125)
(-0.113466 0.661972 -0.275322)
(-0.121928 0.676194 -0.280851)
(-0.101503 0.601174 -0.247423)
(-0.0916413 0.57435 -0.236942)
(-0.133328 0.807314 -0.322622)
(-0.138854 0.767481 -0.31188)
(-0.145524 0.822054 -0.325432)
(-0.0976592 0.578546 -0.232074)
(-0.103886 0.61994 -0.254135)
(-0.125614 0.719051 -0.293689)
(-0.115723 0.650406 -0.264352)
(-0.142768 0.808264 -0.322275)
(-0.123369 0.712289 -0.292676)
(-0.127952 0.604718 -0.250885)
(-0.123985 0.576771 -0.234225)
(-0.120414 0.615804 -0.25232)
(-0.120453 0.575246 -0.242467)
(-0.127233 0.625902 -0.258997)
(-0.12919 0.674394 -0.278003)
(-0.13316 0.642072 -0.262816)
(-0.118249 0.569689 -0.242263)
(-0.148937 0.763445 -0.315573)
(-0.152781 0.79345 -0.326172)
(-0.119239 0.601286 -0.24714)
(-0.124196 0.642972 -0.259819)
(-0.150082 0.73486 -0.299815)
(-0.159215 0.79633 -0.330319)
(-0.16195 0.815459 -0.337054)
(-0.134411 0.626419 -0.261742)
(-0.136834 0.673312 -0.276161)
(-0.155221 0.769692 -0.316621)
(-0.159942 0.81519 -0.338185)
(-0.147247 0.777075 -0.32275)
(-0.134505 0.627227 -0.264738)
(-0.15433 0.891321 -0.352239)
(-0.160797 0.909357 -0.353676)
(-0.168338 0.959752 -0.372247)
(-0.165731 0.959109 -0.37949)
(-0.156996 0.862873 -0.341164)
(-0.142102 0.81806 -0.321143)
(-0.155239 0.844896 -0.333471)
(-0.14465 0.810228 -0.323244)
(-0.168782 0.950519 -0.375529)
(-0.170507 1.01021 -0.397918)
(-0.168449 0.959516 -0.37278)
(-0.177041 1.01192 -0.404865)
(-0.171288 0.964687 -0.384153)
(-0.174368 1.01193 -0.399285)
(-0.168572 0.949405 -0.379011)
(-0.0913364 0.596785 -0.241209)
(-0.0997806 0.645342 -0.253844)
(-0.0908729 0.609445 -0.24058)
(-0.0911342 0.591513 -0.234377)
(-0.111402 0.731237 -0.292275)
(-0.105885 0.657272 -0.26305)
(-0.111206 0.729214 -0.2892)
(-0.0853467 0.542823 -0.223038)
(-0.11797 0.753073 -0.302179)
(-0.114389 0.734242 -0.297797)
(-0.0996242 0.650947 -0.254112)
(-0.0932966 0.610354 -0.241142)
(-0.130162 0.797333 -0.31399)
(-0.129143 0.802279 -0.315495)
(-0.125516 0.760748 -0.302032)
(-0.128868 0.772158 -0.305459)
(-0.0985468 0.601699 -0.24282)
(-0.0723643 0.529195 -0.215757)
(-0.110121 0.676321 -0.269211)
(-0.125762 0.782812 -0.307471)
(-0.0819364 0.594104 -0.238829)
(-0.162292 0.931906 -0.361418)
(-0.191036 1.09237 -0.423631)
(-0.188961 1.08289 -0.42068)
(-0.170658 0.984523 -0.384607)
(-0.182112 1.06342 -0.420636)
(-0.158773 0.900936 -0.353383)
(-0.154132 0.840282 -0.333123)
(-0.160223 0.892569 -0.354351)
(-0.159907 0.847802 -0.336812)
(-0.152314 0.861694 -0.335431)
(-0.144958 0.868483 -0.342906)
(-0.168314 0.975603 -0.383033)
(-0.163224 0.928601 -0.365988)
(-0.169871 0.980522 -0.385693)
(-0.141202 0.853273 -0.332948)
(-0.147382 0.842408 -0.321598)
(-0.162832 0.943769 -0.368935)
(-0.18614 1.07367 -0.399515)
(-0.179626 1.04608 -0.397295)
(-0.16642 0.976438 -0.367352)
(-0.177317 1.04155 -0.38907)
(-0.182471 1.05905 -0.397694)
(-0.184254 1.07615 -0.402973)
(-0.173717 1.0304 -0.388141)
(-0.184477 1.0797 -0.409513)
(-0.177064 1.03386 -0.392759)
(-0.16004 0.926885 -0.349643)
(-0.171198 0.998572 -0.376278)
(-0.165923 0.972865 -0.367787)
(-0.161612 0.946845 -0.360952)
(-0.169962 0.985115 -0.373959)
(-0.163945 0.933359 -0.355705)
(-0.159278 0.930166 -0.352821)
(-0.174282 0.997216 -0.379547)
(-0.159385 0.921927 -0.348326)
(-0.156443 0.920804 -0.348671)
(-0.197638 1.02517 -0.439366)
(-0.202317 1.05981 -0.444649)
(-0.200991 1.04988 -0.449258)
(-0.196021 1.01464 -0.431495)
(-0.212175 1.07717 -0.462361)
(-0.21245 1.10312 -0.463811)
(-0.152922 0.801391 -0.364378)
(-0.163418 0.864093 -0.379905)
(-0.158532 0.797019 -0.356452)
(-0.153695 0.804538 -0.363994)
(-0.159306 0.871124 -0.377897)
(-0.177219 0.908714 -0.39575)
(-0.1774 0.93225 -0.39222)
(-0.20209 1.03699 -0.443993)
(-0.195347 1.00687 -0.416627)
(-0.152217 0.806853 -0.361473)
(-0.175538 0.908845 -0.393873)
(-0.20004 1.00752 -0.42942)
(-0.18754 0.977912 -0.419314)
(-0.160208 0.858187 -0.380386)
(-0.178344 0.922539 -0.406333)
(-0.156523 0.712502 -0.333789)
(-0.132668 0.560529 -0.274554)
(-0.166514 0.736373 -0.33815)
(-0.127073 0.544651 -0.269253)
(-0.132007 0.597233 -0.289015)
(-0.134637 0.589738 -0.29433)
(-0.134518 0.66947 -0.309045)
(-0.126916 0.555791 -0.277383)
(-0.150232 0.905419 -0.332138)
(-0.142145 0.856383 -0.31556)
(-0.146094 0.877028 -0.328579)
(-0.146234 0.840509 -0.305919)
(-0.141076 0.864121 -0.314059)
(-0.155802 0.935313 -0.346493)
(-0.161829 0.959613 -0.352486)
(-0.155824 0.892612 -0.327996)
(-0.160373 0.9769 -0.353977)
(-0.165242 1.00154 -0.363872)
(-0.149899 0.865523 -0.313553)
(-0.13548 0.813055 -0.292533)
(-0.161202 0.955419 -0.349139)
(-0.156476 0.9378 -0.348121)
(-0.161202 0.961249 -0.348658)
(-0.178523 0.959058 -0.392504)
(-0.173215 0.954474 -0.390509)
(-0.188773 1.01742 -0.417012)
(-0.186918 1.01217 -0.413493)
(-0.169404 0.872767 -0.359676)
(-0.175202 0.940716 -0.385413)
(-0.146433 0.801401 -0.340289)
(-0.174643 0.941494 -0.384868)
(-0.16816 0.929548 -0.386831)
(-0.170545 0.907755 -0.371977)
(-0.180439 0.959847 -0.397925)
(-0.173076 0.891029 -0.375072)
(-0.152593 0.861579 -0.358433)
(-0.14911 0.785883 -0.337251)
(-0.158827 0.799719 -0.32782)
(-0.16143 0.850811 -0.372424)
(-0.168653 0.876037 -0.376816)
(-0.16684 0.833478 -0.37298)
(-0.164315 0.830993 -0.373762)
(-0.167795 0.855915 -0.367413)
(-0.178631 0.895988 -0.384252)
(-0.113805 0.60784 -0.283856)
(-0.109375 0.551047 -0.276717)
(-0.118898 0.607906 -0.286513)
(-0.118441 0.628777 -0.293652)
(-0.123357 0.620815 -0.300395)
(-0.112427 0.602611 -0.290522)
(-0.132719 0.731286 -0.325647)
(-0.14083 0.789238 -0.341269)
(-0.149996 0.799759 -0.344299)
(-0.14407 0.762685 -0.340403)
(-0.149789 0.820078 -0.352657)
(-0.141248 0.82143 -0.32201)
(-0.140971 0.779586 -0.311235)
(-0.129496 0.685224 -0.272354)
(-0.122275 0.686018 -0.276776)
(-0.138699 0.837031 -0.329498)
(-0.143058 0.845457 -0.330335)
(-0.156556 0.871516 -0.336392)
(-0.119333 0.679159 -0.273762)
(-0.145594 0.810065 -0.317552)
(-0.136719 0.732172 -0.303185)
(-0.126206 0.601672 -0.251189)
(-0.111025 0.498337 -0.226889)
(-0.121379 0.563357 -0.24027)
(-0.111968 0.532048 -0.234255)
(-0.130745 0.697008 -0.290889)
(-0.119035 0.603058 -0.258562)
(-0.113767 0.562993 -0.247174)
(-0.102418 0.524958 -0.232882)
(-0.110908 0.575897 -0.252785)
(-0.117818 0.605199 -0.257094)
(-0.120597 0.60229 -0.255449)
(-0.135897 0.706128 -0.291145)
(-0.131637 0.700056 -0.292519)
(-0.13337 0.581296 -0.252879)
(-0.117965 0.525478 -0.226121)
(-0.127187 0.604601 -0.261293)
(-0.125243 0.571118 -0.245778)
(-0.124335 0.558135 -0.238173)
(-0.1375 0.642844 -0.275938)
(-0.152324 0.676538 -0.297439)
(-0.136131 0.599353 -0.267994)
(-0.156478 0.732557 -0.313244)
(-0.156621 0.734583 -0.319182)
(-0.130588 0.628003 -0.265991)
(-0.173059 0.810126 -0.345738)
(-0.161852 0.771104 -0.328861)
(-0.151948 0.744647 -0.318224)
(-0.14197 0.839275 -0.328764)
(-0.155984 0.912363 -0.353001)
(-0.144341 0.827611 -0.321128)
(-0.150198 0.869728 -0.332734)
(-0.159602 0.932248 -0.356294)
(-0.140054 0.839715 -0.3299)
(-0.155397 0.891449 -0.351059)
(-0.15817 0.898208 -0.34314)
(-0.170668 0.976351 -0.369025)
(-0.175377 1.01204 -0.389714)
(-0.139365 0.842675 -0.327019)
(-0.162014 0.941402 -0.355338)
(-0.137869 0.828196 -0.317065)
(-0.140193 0.831314 -0.318591)
(-0.186357 1.05996 -0.424269)
(-0.201671 1.10493 -0.444634)
(-0.182217 0.998329 -0.40019)
(-0.178735 1.0062 -0.410494)
(-0.191356 1.08019 -0.431367)
(-0.157916 0.928592 -0.382213)
(-0.157404 0.870083 -0.343666)
(-0.168753 0.965523 -0.391669)
(-0.142952 0.861414 -0.345221)
(-0.199724 1.1131 -0.445048)
(-0.170843 0.96882 -0.381659)
(-0.190024 1.07532 -0.429585)
(-0.180785 1.01261 -0.408571)
(-0.186869 1.03491 -0.416358)
(-0.17478 1.01218 -0.396719)
(-0.186508 1.05511 -0.421376)
(-0.174669 1.02279 -0.403313)
(-0.128865 0.777153 -0.294633)
(-0.100473 0.63547 -0.25825)
(-0.145181 0.841674 -0.319411)
(-0.119637 0.77193 -0.297846)
(-0.148285 0.892205 -0.339021)
(-0.150657 0.888546 -0.344159)
(-0.11717 0.717725 -0.277551)
(-0.137126 0.811499 -0.307489)
(-0.109974 0.619245 -0.239614)
(-0.108727 0.637675 -0.240111)
(-0.0957928 0.588701 -0.223471)
(-0.109619 0.631309 -0.236608)
(-0.131488 0.776748 -0.306389)
(-0.107989 0.649191 -0.255446)
(-0.10681 0.647601 -0.24502)
(-0.149675 0.878042 -0.333636)
(-0.153582 0.881494 -0.339209)
(-0.11587 0.706581 -0.272151)
(-0.111084 0.614223 -0.241138)
(-0.129118 0.7568 -0.288901)
(-0.136197 0.800784 -0.309401)
(-0.154158 0.73741 -0.315074)
(-0.151779 0.714875 -0.317297)
(-0.162464 0.818574 -0.336052)
(-0.153306 0.741759 -0.316881)
(-0.151897 0.749114 -0.309451)
(-0.144011 0.734505 -0.304241)
(-0.154471 0.812283 -0.33593)
(-0.151772 0.726528 -0.308115)
(-0.176122 0.937301 -0.384017)
(-0.168738 0.923407 -0.376691)
(-0.171361 0.894034 -0.365883)
(-0.17186 0.903524 -0.370724)
(-0.151606 0.772986 -0.321444)
(-0.146136 0.756896 -0.30782)
(-0.14531 0.772126 -0.324039)
(-0.159555 0.851914 -0.345642)
(-0.143774 0.756398 -0.319172)
(-0.165389 0.901812 -0.353185)
(-0.162361 0.904167 -0.353191)
(-0.143585 0.800068 -0.313444)
(-0.150776 0.827313 -0.322295)
(-0.164988 0.897598 -0.350299)
(-0.139786 0.75195 -0.298586)
(-0.136134 0.7265 -0.284251)
(-0.15357 0.843361 -0.32943)
(-0.142488 0.781679 -0.30966)
(-0.136796 0.736697 -0.29117)
(-0.128793 0.790549 -0.312394)
(-0.120669 0.778594 -0.309006)
(-0.155293 0.90889 -0.363002)
(-0.154109 0.921588 -0.36557)
(-0.117879 0.750275 -0.297757)
(-0.132665 0.81365 -0.323914)
(-0.13077 0.78319 -0.315888)
(-0.19074 1.07491 -0.428991)
(-0.19495 1.07093 -0.42313)
(-0.17582 0.968612 -0.389439)
(-0.187946 1.05132 -0.414244)
(-0.191258 1.07331 -0.425461)
(-0.168963 0.955642 -0.378019)
(-0.162015 0.921326 -0.376287)
(-0.162891 0.913189 -0.368084)
(-0.187044 1.06441 -0.418332)
(-0.173574 0.981525 -0.391073)
(-0.184475 1.04776 -0.41888)
(-0.174932 0.982365 -0.391127)
(-0.146934 0.818048 -0.318147)
(-0.136916 0.763662 -0.292843)
(-0.139391 0.816588 -0.312238)
(-0.1319 0.767033 -0.295636)
(-0.13883 0.797845 -0.311272)
(-0.147459 0.826017 -0.331313)
(-0.164281 0.943668 -0.362655)
(-0.155471 0.90389 -0.354038)
(-0.146322 0.809961 -0.312353)
(-0.153371 0.862449 -0.340796)
(-0.153266 0.867553 -0.331628)
(-0.174708 0.987656 -0.379781)
(-0.14728 0.814509 -0.318885)
(-0.162555 0.922006 -0.361422)
(-0.155381 0.889779 -0.342462)
(-0.160671 0.91256 -0.357379)
(-0.169919 0.977505 -0.378467)
(-0.148813 0.802936 -0.320575)
(-0.144087 0.77105 -0.300041)
(-0.156245 0.834553 -0.331128)
(-0.148921 0.802614 -0.319473)
(-0.159327 0.847511 -0.337897)
(-0.151898 0.847872 -0.331801)
(-0.169154 0.942987 -0.370429)
(-0.148193 0.772979 -0.30801)
(-0.136097 0.722453 -0.281067)
(-0.162477 0.88089 -0.361512)
(-0.173764 0.897291 -0.370768)
(-0.15134 0.818211 -0.333357)
(-0.145112 0.774107 -0.320554)
(-0.168979 0.899943 -0.367349)
(-0.169571 0.88289 -0.368561)
(-0.168792 0.905187 -0.372373)
(-0.120679 0.649611 -0.272233)
(-0.126461 0.676051 -0.284847)
(-0.152752 0.81283 -0.339149)
(-0.142308 0.781918 -0.32083)
(-0.146072 0.814596 -0.330045)
(-0.143329 0.768354 -0.321371)
(-0.134938 0.760625 -0.321335)
(-0.144048 0.79887 -0.335313)
(-0.118072 0.659988 -0.288132)
(-0.124974 0.6704 -0.291087)
(-0.112132 0.60149 -0.262058)
(-0.109933 0.610221 -0.264781)
(-0.141822 0.769793 -0.317931)
(-0.139802 0.769301 -0.323697)
(-0.11938 0.675605 -0.294269)
(-0.124925 0.646037 -0.257145)
(-0.110394 0.611141 -0.238003)
(-0.114351 0.622369 -0.241359)
(-0.0918871 0.554261 -0.217085)
(-0.11549 0.646736 -0.25282)
(-0.114386 0.618176 -0.248802)
(-0.133542 0.740128 -0.290867)
(-0.128325 0.714758 -0.2733)
(-0.114884 0.679829 -0.261895)
(-0.129139 0.676911 -0.261365)
(-0.0867544 0.513872 -0.200469)
(-0.120361 0.641262 -0.244039)
(-0.116223 0.631781 -0.24017)
(-0.133685 0.750207 -0.293356)
(-0.131987 0.708779 -0.266685)
(-0.117238 0.593803 -0.232711)
(-0.106909 0.590928 -0.230536)
(-0.105423 0.631038 -0.237228)
(-0.0980321 0.577662 -0.224953)
(-0.119006 0.741361 -0.285049)
(-0.120061 0.779302 -0.292052)
(-0.121426 0.754391 -0.28792)
(-0.125059 0.764716 -0.287812)
(-0.108514 0.632293 -0.239773)
(-0.110673 0.670141 -0.258517)
(-0.111717 0.676101 -0.255717)
(-0.132992 0.80705 -0.310763)
(-0.134106 0.848926 -0.321546)
(-0.137413 0.859503 -0.320986)
(-0.14001 0.842473 -0.317985)
(-0.108493 0.633432 -0.235531)
(-0.0982501 0.58383 -0.221295)
(-0.127057 0.767653 -0.290883)
(-0.139908 0.834685 -0.313455)
(-0.104556 0.637121 -0.239858)
(-0.124419 0.757472 -0.288592)
(-0.104209 0.652346 -0.250086)
(-0.112403 0.659077 -0.247492)
(-0.149375 0.843132 -0.334797)
(-0.130244 0.773764 -0.306462)
(-0.113563 0.682504 -0.26932)
(-0.130009 0.687069 -0.273658)
(-0.16162 0.915584 -0.364136)
(-0.164049 0.959551 -0.376217)
(-0.176761 1.00428 -0.393939)
(-0.13288 0.778159 -0.312663)
(-0.117007 0.698906 -0.274465)
(-0.121062 0.666457 -0.264642)
(-0.128621 0.761522 -0.305493)
(-0.123448 0.729862 -0.285917)
(-0.139342 0.827231 -0.321164)
(-0.156582 0.918569 -0.362307)
(-0.160315 0.921238 -0.356508)
(-0.150451 0.879823 -0.350473)
(-0.137857 0.804289 -0.319201)
(-0.148681 0.873305 -0.345996)
(-0.124219 0.6726 -0.274061)
(-0.117808 0.669572 -0.263318)
(-0.131355 0.713337 -0.293923)
(-0.123419 0.665557 -0.27164)
(-0.128734 0.72386 -0.292121)
(-0.135274 0.756024 -0.306718)
(-0.146807 0.840631 -0.33477)
(-0.122672 0.705449 -0.280936)
(-0.132303 0.73456 -0.300488)
(-0.147563 0.856343 -0.343565)
(-0.141941 0.828607 -0.332393)
(-0.118248 0.691455 -0.275747)
(-0.130264 0.741639 -0.297425)
(-0.145535 0.840025 -0.339234)
(-0.196443 1.13755 -0.442693)
(-0.196746 1.14161 -0.447496)
(-0.193615 1.09786 -0.431715)
(-0.188648 1.08124 -0.421349)
(-0.174653 1.00304 -0.39685)
(-0.172976 1.03789 -0.405569)
(-0.190063 1.10599 -0.429831)
(-0.187614 1.10439 -0.430605)
(-0.186205 1.09372 -0.43146)
(-0.191202 1.09317 -0.434734)
(-0.178849 1.04696 -0.418088)
(-0.171866 1.02411 -0.402493)
(-0.172728 1.05643 -0.416981)
(-0.198584 1.14384 -0.45092)
(-0.191927 1.10569 -0.43477)
(-0.186398 1.08305 -0.422624)
(-0.196277 1.12607 -0.443625)
(-0.18571 1.09574 -0.433787)
(-0.135985 0.764073 -0.308701)
(-0.138412 0.747593 -0.309879)
(-0.13289 0.732049 -0.295461)
(-0.124818 0.690857 -0.281777)
(-0.122443 0.710131 -0.293402)
(-0.129289 0.709974 -0.28042)
(-0.101297 0.583286 -0.237972)
(-0.0933308 0.551847 -0.22947)
(-0.105514 0.586786 -0.239258)
(-0.0995782 0.553394 -0.241862)
(-0.0946678 0.547108 -0.233898)
(-0.108212 0.622016 -0.266031)
(-0.0962106 0.543469 -0.219577)
(-0.0856755 0.489601 -0.200381)
(-0.105804 0.599964 -0.252346)
(-0.0981234 0.564069 -0.233027)
(-0.0800408 0.479452 -0.205787)
(-0.173208 0.984401 -0.398932)
(-0.174261 0.966219 -0.390725)
(-0.159592 0.889099 -0.36292)
(-0.152031 0.860047 -0.352386)
(-0.158196 0.880758 -0.356715)
(-0.185889 1.04918 -0.421211)
(-0.193224 1.04515 -0.425025)
(-0.158827 0.894022 -0.36496)
(-0.143661 0.848499 -0.343225)
(-0.157919 0.843866 -0.349849)
(-0.157224 0.879009 -0.35654)
(-0.154344 0.863123 -0.347918)
(-0.17538 0.973816 -0.395518)
(-0.174693 0.970287 -0.394813)
(-0.158915 0.904974 -0.365671)
(-0.132277 0.638382 -0.277693)
(-0.141534 0.624861 -0.267058)
(-0.130173 0.623936 -0.26719)
(-0.121111 0.588916 -0.254651)
(-0.129842 0.584917 -0.246587)
(-0.130664 0.633847 -0.261215)
(-0.125581 0.558411 -0.232305)
(-0.121658 0.549552 -0.226788)
(-0.127095 0.609845 -0.251607)
(-0.105746 0.548663 -0.230096)
(-0.120686 0.539847 -0.226219)
(-0.10502 0.462431 -0.188991)
(-0.0990761 0.470373 -0.191822)
(-0.157246 0.820006 -0.333628)
(-0.158121 0.833743 -0.335023)
(-0.177409 0.946144 -0.378112)
(-0.175785 0.946367 -0.379684)
(-0.158767 0.861564 -0.345689)
(-0.140914 0.741448 -0.294885)
(-0.174928 0.957233 -0.385141)
(-0.146513 0.732281 -0.296603)
(-0.183497 0.932294 -0.379774)
(-0.157007 0.835986 -0.337051)
(-0.183963 0.967632 -0.384535)
(-0.175385 0.967958 -0.387492)
(-0.169518 0.932852 -0.370345)
(-0.154116 0.819157 -0.322445)
(-0.179809 0.978017 -0.395425)
(-0.16692 0.866011 -0.343217)
(-0.185654 0.901099 -0.380137)
(-0.189053 0.9375 -0.400497)
(-0.172091 0.820304 -0.362377)
(-0.168542 0.836989 -0.361797)
(-0.16538 0.855559 -0.363745)
(-0.171191 0.828626 -0.361915)
(-0.183948 0.953907 -0.401522)
(-0.182508 0.944098 -0.391741)
(-0.167156 0.78594 -0.349685)
(-0.168924 0.83492 -0.358316)
(-0.157115 0.771212 -0.331288)
(-0.161877 0.81819 -0.349193)
(-0.151264 0.725824 -0.317469)
(-0.181034 0.947445 -0.391979)
(-0.176343 0.86399 -0.365996)
(-0.113134 0.646725 -0.256166)
(-0.123708 0.679749 -0.27988)
(-0.11787 0.663288 -0.262675)
(-0.11965 0.657444 -0.254992)
(-0.105796 0.577812 -0.224192)
(-0.121405 0.681541 -0.267113)
(-0.11537 0.621005 -0.243586)
(-0.113632 0.632677 -0.247358)
(-0.107292 0.575858 -0.231149)
(-0.110186 0.609523 -0.235869)
(-0.0992846 0.576029 -0.227619)
(-0.13965 0.799559 -0.312179)
(-0.129079 0.786297 -0.305487)
(-0.138155 0.812909 -0.320107)
(-0.158435 0.887898 -0.342762)
(-0.140773 0.810004 -0.311897)
(-0.127728 0.697884 -0.269452)
(-0.119303 0.653624 -0.252514)
(-0.142625 0.777165 -0.311009)
(-0.151215 0.8433 -0.325904)
(-0.138902 0.785544 -0.302667)
(-0.144594 0.807675 -0.315131)
(-0.101893 0.621179 -0.243236)
(-0.102334 0.587178 -0.23097)
(-0.128857 0.792695 -0.302518)
(-0.124264 0.746864 -0.288414)
(-0.108698 0.663662 -0.250318)
(-0.0999766 0.614396 -0.237272)
(-0.0966528 0.628222 -0.246614)
(-0.0995288 0.614386 -0.233369)
(-0.100587 0.570465 -0.217195)
(-0.111783 0.697866 -0.263446)
(-0.138097 0.82921 -0.317633)
(-0.124075 0.778605 -0.298196)
(-0.145889 0.84091 -0.322862)
(-0.108939 0.657048 -0.246363)
(-0.103757 0.614067 -0.239363)
(-0.126556 0.767063 -0.301641)
(-0.11397 0.743239 -0.287398)
(-0.125008 0.748163 -0.286068)
(-0.10459 0.630837 -0.244242)
(-0.123807 0.745635 -0.292078)
(-0.145512 0.795721 -0.298217)
(-0.142694 0.79928 -0.303497)
(-0.141414 0.764165 -0.285272)
(-0.138102 0.754389 -0.285482)
(-0.115178 0.601883 -0.231625)
(-0.0996769 0.536383 -0.202549)
(-0.119849 0.609069 -0.231244)
(-0.116114 0.636031 -0.243746)
(-0.129069 0.745224 -0.280159)
(-0.141144 0.765803 -0.283646)
(-0.099639 0.581639 -0.213936)
(-0.112348 0.641239 -0.238638)
(-0.0904716 0.507994 -0.195887)
(-0.112778 0.618431 -0.233909)
(-0.100149 0.567523 -0.21327)
(-0.120408 0.662097 -0.24539)
(-0.115697 0.587939 -0.223116)
(-0.135911 0.741496 -0.280516)
(-0.137369 0.7709 -0.287362)
(-0.102675 0.584723 -0.219472)
(-0.130874 0.759578 -0.279137)
(-0.123027 0.671916 -0.252973)
(-0.113625 0.563604 -0.267881)
(-0.120883 0.586042 -0.282221)
(-0.136268 0.706833 -0.319971)
(-0.112713 0.546191 -0.270359)
(-0.114694 0.537759 -0.264349)
(-0.124536 0.603974 -0.293204)
(-0.148821 0.701267 -0.3346)
(-0.131511 0.610586 -0.306555)
(-0.120239 0.544995 -0.276599)
(-0.15113 0.770272 -0.340992)
(-0.107024 0.471199 -0.24773)
(-0.122941 0.606994 -0.29916)
(-0.134703 0.688471 -0.323127)
(-0.106696 0.493588 -0.259207)
(-0.113548 0.574071 -0.279759)
(-0.149004 0.857782 -0.342606)
(-0.154757 0.842085 -0.339035)
(-0.138493 0.762759 -0.309367)
(-0.14107 0.763185 -0.304661)
(-0.13889 0.788847 -0.320537)
(-0.154917 0.883327 -0.352701)
(-0.139291 0.784699 -0.308244)
(-0.15532 0.883518 -0.351386)
(-0.154605 0.867175 -0.353665)
(-0.148582 0.812305 -0.329763)
(-0.146612 0.810032 -0.328752)
(-0.139356 0.721627 -0.292314)
(-0.169114 0.924978 -0.371039)
(-0.169539 0.948297 -0.385895)
(-0.154246 0.869611 -0.342971)
(-0.172369 0.909677 -0.36498)
(-0.167008 0.934576 -0.382178)
(-0.129645 0.752598 -0.305416)
(-0.154822 0.82917 -0.330094)
(-0.174592 0.933678 -0.374433)
(-0.16839 0.933888 -0.378103)
(-0.143617 0.747144 -0.298888)
(-0.129527 0.666119 -0.291537)
(-0.106152 0.576472 -0.251057)
(-0.0983799 0.547054 -0.240613)
(-0.121267 0.627836 -0.280842)
(-0.122854 0.618931 -0.259427)
(-0.103425 0.568225 -0.253033)
(-0.0872965 0.522605 -0.242102)
(-0.111986 0.587659 -0.269677)
(-0.0881759 0.52836 -0.237665)
(-0.123028 0.644543 -0.295336)
(-0.0958704 0.553886 -0.255751)
(-0.0908554 0.531199 -0.233408)
(-0.112729 0.591802 -0.250736)
(-0.140889 0.724152 -0.313126)