/*--------------------------------*- C++ -*----------------------------------*\
| =========                 |                                                 |
| \\      /  F ield         | OpenFOAM: The Open Source CFD Toolbox           |
|  \\    /   O peration     | Version:  v1612+                                |
|   \\  /    A nd           | Web:      www.OpenFOAM.com                      |
|    \\/     M anipulation  |                                                 |
\*---------------------------------------------------------------------------*/
FoamFile
{
    version     2.0;
    format      ascii;
    class       volVectorField;
    location    "50";
    object      wallShearStress;
}
// * * * * * * * * * * * * * * * * * * * * * * * * * * * * * * * * * * * * * //

dimensions      [0 2 -2 0 0 0 0];

internalField   uniform (0 0 0);

boundaryField
{
    WALL
    {
        type            calculated;
        value           nonuniform List<vector> 
1702
(
(0.016206 -0.00739583 0.0124844)
(0.0154019 -0.00752331 0.0107843)
(0.0107289 -0.00813639 0.0110627)
(0.012902 -0.00904628 0.00967563)
(0.0135127 -0.0183273 0.00257806)
(0.0168473 -0.0190313 0.00102588)
(0.0198062 -0.0104094 0.00333088)
(0.016704 -0.00984122 0.00145003)
(0.0147912 -0.0137422 0.000917675)
(0.0131154 -0.0144568 0.00104429)
(0.00977299 -0.00711293 0.0110173)
(0.00727198 -0.00687998 0.0112972)
(0.00870844 -0.00610638 0.0127929)
(0.0104125 -0.00699451 0.012839)
(0.00844288 -0.00553828 0.0116611)
(0.01217 -0.00680921 0.0140432)
(0.0110324 -0.00670839 0.0150452)
(0.00957611 -0.0083678 0.00216013)
(0.0173095 -0.00794022 0.00104754)
(0.0143622 -0.009079 0.000906742)
(0.0102681 -0.0156925 -0.00062693)
(0.0107861 -0.0150909 0.000370452)
(0.0152204 -0.0160026 -0.000131395)
(0.0142521 -0.0165712 -0.000226906)
(0.0120871 -0.0109017 0.00130096)
(0.00890177 -0.0107628 0.00171319)
(0.0113686 -0.0103163 0.00133628)
(0.0133503 -0.00987848 0.00169204)
(0.00370974 -0.0111955 0.00264626)
(0.00356035 -0.0103219 0.00298053)
(0.0158798 -0.0149411 -0.00026779)
(0.0145268 -0.0177056 0.000436055)
(0.0196104 -0.0147584 -5.32986e-05)
(0.0170602 -0.0166759 0.000148715)
(0.0227609 -0.0121258 0.000928255)
(0.0209162 -0.0140847 0.000138603)
(0.0140426 -0.0161613 0.00220932)
(0.0116372 -0.0161702 0.00447294)
(0.00392431 -0.0134082 0.00278124)
(0.0154524 -0.00547007 0.0139998)
(0.0154864 -0.00709361 0.0137456)
(0.0116018 -0.0123238 0.00214255)
(0.0142917 -0.0121464 0.0028794)
(0.00508261 -0.0135905 0.0032891)
(0.0065218 -0.0130279 0.00367974)
(0.0186258 -0.0143266 -0.000264521)
(0.0220324 -0.0126975 -0.000130866)
(0.0199156 -0.0135984 0.00013346)
(0.0182786 -0.0157403 0.00121132)
(0.00847621 -0.0146772 0.00114239)
(0.0073347 -0.0147106 0.000832058)
(0.0055808 -0.0150472 0.00107588)
(0.00703785 -0.014735 0.000802799)
(0.00604301 -0.0154421 0.00105298)
(0.00888116 -0.0151531 0.000843876)
(0.0103733 -0.00844409 0.00205603)
(0.0115677 -0.00861152 0.00122277)
(0.0116932 -0.00848814 0.00155081)
(0.0135934 -0.00852423 0.00111549)
(0.014609 -0.0085324 0.000864744)
(0.0218539 -0.00810544 0.0036167)
(0.0217655 -0.0110684 0.00101653)
(0.0224765 -0.0103769 0.0020097)
(0.022385 -0.00871229 0.00319626)
(0.0212931 -0.0100343 0.00122856)
(0.0215832 -0.00927585 0.00264303)
(0.019466 -0.0139499 -0.000156698)
(0.0199217 -0.0136506 -0.000355735)
(0.0177288 -0.0148349 0.000493975)
(0.0186 -0.0136739 -0.00036898)
(0.0158953 -0.0154646 0.00164731)
(0.0169104 -0.0154497 0.000689356)
(0.015104 -0.00273659 0.0107078)
(0.015177 -0.00378652 0.0117529)
(0.016658 -0.00312387 0.0116293)
(0.0185133 -0.00367307 0.010511)
(0.0174759 -0.0035889 0.0105285)
(0.0175992 -0.00226107 0.0106743)
(0.00599823 -0.00626321 0.0100241)
(0.00781012 -0.00455662 0.0107822)
(0.00840827 -0.00497804 0.0118665)
(0.00616168 -0.0057171 0.00909202)
(0.00704503 -0.00520769 0.0109282)
(0.00615117 -0.00481075 0.0106271)
(0.00628811 -0.00485432 0.00772581)
(0.00717694 -0.00345665 0.00875785)
(0.00672157 -0.00435293 0.00859026)
(0.00529709 -0.00390026 0.00696801)
(0.00613958 -0.00389179 0.00859985)
(0.00690933 -0.00294352 0.00839836)
(0.0131111 -0.00122342 0.0107598)
(0.0147506 -0.00246905 0.0114949)
(0.0167569 -0.00151586 0.0112177)
(0.0168981 -0.000813543 0.0104305)
(0.0157836 -0.00179963 0.0108619)
(0.0140905 -0.000824059 0.0107859)
(0.0167705 -0.00747501 0.0111813)
(0.0163041 -0.00931528 0.00870189)
(0.0170572 -0.00862437 0.00869649)
(0.0173675 -0.00796539 0.00999654)
(0.0155888 -0.00769813 0.0122604)
(0.0169074 -0.00804544 0.011435)
(0.0158519 -0.00878345 0.0100771)
(0.0161939 -0.00826151 0.00981688)
(0.00631611 -0.0172391 0.00243496)
(0.00707858 -0.0183772 0.00181722)
(0.00793031 -0.0177833 0.00225082)
(0.00952114 -0.0179196 0.00102206)
(0.00931117 -0.0167487 0.000740683)
(0.00771756 -0.0177997 0.00166486)
(0.00577845 -0.00806009 0.01641)
(0.00364431 -0.00974584 0.0154008)
(0.00352491 -0.00960783 0.0151174)
(0.00595652 -0.00850078 0.0170186)
(0.00520864 -0.00916271 0.0167653)
(0.00431855 -0.00914698 0.0159952)
(0.00416312 -0.0173851 0.00545501)
(0.00272776 -0.0158835 0.00681203)
(0.00267029 -0.0156445 0.00803189)
(0.00442938 -0.0172738 0.00482389)
(0.00341983 -0.016346 0.00658994)
(0.00328482 -0.0163332 0.0054767)
(0.0207694 -0.00728094 0.00710824)
(0.0208734 -0.00920662 0.00663414)
(0.0213961 -0.0070039 0.00931142)
(0.0218468 -0.00639001 0.00719618)
(0.0215395 -0.00855134 0.00691421)
(0.0200122 -0.00709761 0.00843427)
(0.008754 -0.012879 0.00224067)
(0.00809561 -0.0116029 0.00180638)
(0.00898072 -0.0122454 0.00222962)
(0.00645984 -0.0123106 0.00209024)
(0.00691448 -0.0118669 0.00202839)
(0.00722286 -0.0122371 0.00193617)
(0.0116195 -0.0120933 0.00326165)
(0.0127845 -0.011529 0.00385529)
(0.0118361 -0.0119348 0.00359194)
(0.0114538 -0.012574 0.00304846)
(0.0127506 -0.0120516 0.00480703)
(0.0130328 -0.0116808 0.00498096)
(0.00874031 -0.0120212 0.00276215)
(0.00744193 -0.0122648 0.00214676)
(0.00681493 -0.0124859 0.002465)
(0.00982493 -0.0120261 0.00261059)
(0.00893038 -0.0129666 0.00276699)
(0.00730517 -0.0125649 0.00295259)
(0.0152517 -0.00984145 0.00760274)
(0.01383 -0.0108032 0.00654806)
(0.0150359 -0.00900323 0.00866225)
(0.0140436 -0.010312 0.00778883)
(0.0146533 -0.0105244 0.00668592)
(0.0142317 -0.00962309 0.00865561)
(0.0157906 -0.00753094 0.0139896)
(0.0131265 -0.00703521 0.0150452)
(0.0145559 -0.00594893 0.0139121)
(0.0135689 -0.0060744 0.0151528)
(0.0139503 -0.00710221 0.014441)
(0.0166592 -0.00687918 0.0122208)
(0.0148965 -0.0103521 0.00534521)
(0.0144565 -0.010985 0.00494391)
(0.0158182 -0.010424 0.00661171)
(0.0162562 -0.00974565 0.00638657)
(0.0163708 -0.0104426 0.00585615)
(0.0140948 -0.0115714 0.00503376)
(0.00319539 -0.00721845 0.00591875)
(0.00347379 -0.00763342 0.00540169)
(0.00329878 -0.00700884 0.00579246)
(0.00321339 -0.0077622 0.00490407)
(0.00317635 -0.00763044 0.00505985)
(0.00351275 -0.00736904 0.00569922)
(0.00396266 -0.00709253 0.00549895)
(0.00441728 -0.00774684 0.00557857)
(0.0038922 -0.00662216 0.00525258)
(0.00398272 -0.00700962 0.00476737)
(0.00409474 -0.00756881 0.005072)
(0.0017055 -0.00751761 0.00628638)
(0.00205542 -0.00754283 0.0072679)
(0.00120054 -0.00734326 0.0071143)
(0.00146751 -0.0088511 0.0061111)
(0.00100988 -0.00804724 0.00662597)
(0.00241027 -0.00748772 0.00853424)
(0.00165672 -0.00810279 0.00835365)
(0.00191686 -0.00862122 0.00555873)
(0.00211104 -0.00915559 0.00410448)
(0.00242702 -0.0085221 0.00516649)
(0.00281192 -0.00912085 0.00405708)
(0.00182633 -0.00902549 0.00480255)
(0.00280232 -0.00999447 0.00393029)
(0.00337987 -0.00685595 0.00756432)
(0.00406952 -0.00666065 0.00848267)
(0.00344845 -0.00637383 0.00753615)
(0.00401328 -0.00634796 0.00795409)
(0.00361445 -0.00656538 0.00788858)
(0.00446679 -0.00587058 0.00835045)
(0.0032925 -0.00657392 0.00858101)
(0.00470902 -0.00593285 0.0102199)
(0.00297645 -0.00696581 0.00887716)
(0.00424949 -0.00618668 0.00987955)
(0.0038989 -0.0063286 0.00928353)
(0.00326365 -0.00641992 0.00892754)
(0.00650785 -0.00558563 0.0112432)
(0.00770652 -0.0052959 0.0115071)
(0.00642477 -0.00572909 0.0110531)
(0.00816696 -0.00529524 0.0124006)
(0.00855259 -0.00508865 0.0121181)
(0.0055493 -0.00597661 0.0105982)
(0.0111485 -0.00464709 0.0117473)
(0.0110403 -0.00473353 0.0126368)
(0.0103739 -0.00496668 0.0124205)
(0.0120601 -0.00446879 0.0122215)
(0.0132784 -0.00402471 0.0115005)
(0.0127459 -0.00476741 0.0117896)
(0.00787067 -0.0143824 0.000999308)
(0.0095325 -0.0138201 0.0024167)
(0.00965135 -0.0142692 0.000996859)
(0.010067 -0.0142475 0.00201232)
(0.00173779 -0.0080489 0.0096536)
(0.000723738 -0.00835572 0.00849516)
(0.00121207 -0.00805624 0.00886273)
(0.00152479 -0.00831028 0.00988422)
(0.000430013 -0.00860873 0.00807308)
(0.000958003 -0.00857842 0.00927797)
(0.00481065 -0.00719799 0.0115846)
(0.00701065 -0.00671568 0.0119799)
(0.0065243 -0.00639094 0.0120237)
(0.00573848 -0.00626907 0.0113311)
(0.00494267 -0.00668672 0.0111685)
(0.00750296 -0.0060137 0.0120131)
(0.0118524 -0.00699863 0.0110783)
(0.0112575 -0.00771195 0.0109642)
(0.0113301 -0.00775577 0.00950099)
(0.0125382 -0.00808541 0.0105033)
(0.0131983 -0.0082628 0.00945925)
(0.0105286 -0.00733595 0.0117415)
(0.0106652 -0.00677241 0.0114399)
(0.0126277 -0.00766568 0.0103302)
(0.00921052 -0.00359652 0.0106655)
(0.00995442 -0.00223501 0.0104367)
(0.0092512 -0.00284642 0.00971625)
(0.00976178 -0.00278239 0.0114084)
(0.012495 -0.00219953 0.0120526)
(0.0116649 -0.00191295 0.0114269)
(0.00475783 -0.00709974 0.00450566)
(0.00541456 -0.00735097 0.00366067)
(0.00530579 -0.00832555 0.00403061)
(0.00578509 -0.008177 0.00365667)
(0.00490729 -0.00812913 0.00475023)
(0.00506959 -0.00706526 0.00424239)
(0.00635967 -0.00501879 0.00943313)
(0.00640626 -0.00529121 0.00905106)
(0.00744244 -0.00461112 0.0102578)
(0.00785409 -0.00485893 0.010738)
(0.00608773 -0.0047085 0.00992152)
(0.00630138 -0.00572024 0.00956784)
(0.0118422 -0.00284709 0.0118958)
(0.00934295 -0.00333997 0.010469)
(0.0102341 -0.00359503 0.0119544)
(0.0115788 -0.0026967 0.0122305)
(0.00903675 -0.00402183 0.0109738)
(0.012706 -0.00253685 0.0125456)
(0.015494 -0.00176104 0.0116696)
(0.016792 -0.00184478 0.0115148)
(0.0147483 -0.00184159 0.0114605)
(0.0142125 -0.00269352 0.0118674)
(0.0169677 -0.00244114 0.011298)
(0.0178811 -0.00237482 0.0110575)
(0.00888851 -0.00392836 0.0109906)
(0.0120161 -0.00245888 0.0110774)
(0.0118415 -0.00321748 0.0115795)
(0.0101797 -0.00330472 0.0119891)
(0.0110213 -0.00333086 0.0117457)
(0.0101902 -0.00444745 0.0114555)
(0.0247687 -0.00362323 0.0040781)
(0.0218787 -0.00167988 0.00683158)
(0.0245331 -0.00232715 0.00698704)
(0.0237543 -0.00295325 0.00397517)
(0.0223618 -0.00305703 0.00563714)
(0.0240826 -0.00218277 0.00471041)
(0.024437 -0.000639085 0.00596084)
(0.0251157 -0.0024735 0.00411983)
(0.0253256 -0.00256005 0.00529623)
(0.0231734 -0.00085071 0.00672407)
(0.0148223 -0.000535038 0.0104638)
(0.0143207 -0.00151181 0.0114121)
(0.0168625 -0.000696863 0.0109823)
(0.00022735 -0.00867065 0.00660216)
(1.27213e-05 -0.00975077 0.00560619)
(0.000365428 -0.00936138 0.00629724)
(0.000550452 -0.00961867 0.00523801)
(-0.000220166 -0.00906097 0.0056561)
(-0.000195473 -0.00926183 0.00689013)
(0.000367273 -0.0108705 0.00406036)
(5.6463e-05 -0.0112778 0.0047402)
(0.00130014 -0.0114512 0.00338067)
(0.00258602 -0.0124586 0.00267356)
(0.00194266 -0.0125193 0.00336502)
(0.0141837 -0.00725242 0.00945148)
(0.0166535 -0.00818449 0.00836411)
(0.0157907 -0.00805367 0.00936348)
(0.0158604 -0.00812461 0.00762105)
(0.0143071 -0.00869926 0.00877039)
(0.0139913 -0.00782973 0.00970973)
(0.0142873 -0.00969516 0.0077049)
(0.0149133 -0.00945164 0.00766004)
(0.015685 -0.0112041 0.00573424)
(0.0148304 -0.0100681 0.0066769)
(0.0158658 -0.0103127 0.00664)
(0.0149348 -0.0106703 0.00576048)
(0.013954 -0.0127898 0.0031213)
(0.0131669 -0.0130601 0.00235035)
(0.0147551 -0.01251 0.00423508)
(0.0136378 -0.0135731 0.00218954)
(0.0151976 -0.0125788 0.00386872)
(0.0147533 -0.0134173 0.00309049)
(0.015281 -0.00751904 0.0101802)
(0.0148931 -0.00623429 0.0104742)
(0.01403 -0.00630441 0.0116197)
(0.0137257 -0.00661361 0.0119149)
(0.0140158 -0.00720208 0.0106273)
(0.0156069 -0.00677265 0.00973671)
(0.0200406 -0.00892044 0.00445829)
(0.0198243 -0.00921142 0.00594448)
(0.0202494 -0.00916137 0.00597427)
(0.0193995 -0.0109414 0.00523177)
(0.0201127 -0.0104057 0.00391012)
(0.0149785 -0.00551322 0.0115642)
(0.0123941 -0.00533245 0.0122868)
(0.0122033 -0.00551013 0.0126848)
(0.014345 -0.00536101 0.0122004)
(0.0144656 -0.00573085 0.0115946)
(0.0130437 -0.00474259 0.0115004)
(0.0162731 -0.00408436 0.0107135)
(0.0175581 -0.00478459 0.0100587)
(0.0162731 -0.00580024 0.0103276)
(0.0150776 -0.00443655 0.0106075)
(0.0184368 -0.0053447 0.00936773)
(0.0185164 -0.00454609 0.00868165)
(0.0244495 -0.00763218 -0.000246925)
(0.023028 -0.010653 -0.000579671)
(0.0238786 -0.00905376 -0.000258186)
(0.0227097 -0.010904 -0.0012024)
(0.0256071 -0.00772594 0.00159245)
(0.0255709 -0.00519721 0.00281949)
(0.0257496 -0.00482906 0.00369952)
(0.0253455 -0.00533368 0.000861165)
(0.0252844 -0.00670292 0.00209971)
(0.0257139 -0.00494288 0.00249355)
(0.0238043 -0.00780083 0.000780553)
(0.0232219 -0.00618414 0.00098058)
(0.0249529 -0.00503243 0.0017769)
(0.0244751 -0.00533673 0.00380324)
(0.0242268 -0.00811723 0.00208366)
(0.0240264 -0.00616933 0.00363802)
(0.00960675 -0.0185164 0.00660124)
(0.01216 -0.0193376 0.00479885)
(0.0147323 -0.0177371 0.0015041)
(0.0150857 -0.0191915 0.00213761)
(0.0107366 -0.0185663 0.00534459)
(0.00954348 -0.017972 0.00530458)
(0.0109679 -0.0180653 0.00333608)
(0.0128262 -0.0188498 0.00320194)
(0.0163029 -0.0158205 0.000542805)
(0.0171848 -0.0176673 0.000921723)
(0.0183781 -0.0166182 0.000741772)
(0.0151752 -0.0166112 0.00152644)
(0.0179134 -0.0146026 -0.000428326)
(0.0188165 -0.0146557 -0.000458426)
(0.0130413 -0.0183917 0.00335997)
(0.0114251 -0.0185872 0.00640037)
(0.0125837 -0.0179648 0.00442091)
(0.0112254 -0.0181101 0.00599821)
(0.0143286 -0.0189915 0.00346499)
(0.0116543 -0.0177309 0.00473159)
(0.0205667 -0.0133655 0.000332024)
(0.0203619 -0.0153331 -6.74609e-05)
(0.0188889 -0.0156266 0.000526269)
(0.0212231 -0.0134554 0.000658815)
(0.0223039 -0.0117744 -0.000358733)
(0.0207787 -0.0117778 0.00182924)
(0.0201196 -0.0110484 0.0021439)
(0.0196443 -0.0121771 0.00157532)
(0.0201533 -0.0129929 0.00119911)
(0.0210667 -0.0111436 0.00314136)
(0.0205118 -0.0104178 0.00345587)
(0.0209303 -0.00686825 0.00566332)
(0.0203577 -0.00763949 0.00650963)
(0.0201272 -0.0072193 0.00768065)
(0.0212609 -0.00890811 0.00505482)
(0.0202447 -0.00677839 0.00705753)
(0.0209802 -0.0088026 0.00565781)
(0.0166142 -0.0157482 -0.000822125)
(0.0173327 -0.0129537 -0.00116994)
(0.0178467 -0.0159519 -0.000137535)
(0.0196668 -0.013115 -0.000405132)
(0.0199498 -0.0128158 -0.000158387)
(0.0185091 -0.0142876 0.000230697)
(0.0198004 -0.00397509 0.00767826)
(0.0217988 -0.00613672 0.00607662)
(0.021415 -0.00384846 0.00638944)
(0.0201247 -0.00502145 0.00866375)
(0.0206017 -0.00572002 0.00750699)
(0.0220407 -0.0060333 0.00583202)
(0.0224957 -0.00631696 0.00529824)
(0.00497764 -0.0132912 0.0029016)
(0.00410075 -0.012904 0.00273595)
(0.0068461 -0.0130464 0.0031608)
(0.00563883 -0.0131609 0.0030128)
(0.00437241 -0.0131885 0.00272502)
(0.00361091 -0.0118053 0.0022046)
(0.00459116 -0.0124042 0.00232388)
(0.00551304 -0.0126303 0.00221185)
(0.00314878 -0.012128 0.00307238)
(0.00497847 -0.011927 0.00217687)
(0.00361825 -0.0115754 0.00318592)
(0.00381588 -0.0104986 0.00335146)
(0.00383939 -0.00930257 0.00322754)
(0.00469771 -0.0107714 0.00285639)
(0.00476531 -0.0105188 0.0031228)
(0.00372289 -0.00974811 0.00335928)
(0.00504162 -0.0106449 0.002785)
(0.00469949 -0.00808618 0.00402519)
(0.00503398 -0.00861277 0.00375509)
(0.00446947 -0.00799914 0.00419647)
(0.00404362 -0.00771911 0.00433489)
(0.00425699 -0.00847243 0.00420492)
(0.00484338 -0.0087543 0.00369266)
(0.0144528 -0.0117079 0.00214999)
(0.0115868 -0.0119234 0.00182074)
(0.0132844 -0.0118162 0.00196172)
(0.0104648 -0.0118302 0.00189134)
(0.0133583 -0.0112813 0.0015233)
(0.0120548 -0.0119362 0.00171723)
(0.0169755 -0.0039404 0.0162341)
(0.0175302 -0.00344658 0.0167124)
(0.0187178 -0.00426502 0.016553)
(0.0194387 -0.00420924 0.0141708)
(0.0178446 -0.0043719 0.0153708)
(0.0194822 -0.00430645 0.0149706)
(0.0200168 -0.00319465 0.0156428)
(0.0220035 -0.00328081 0.0128807)
(0.0212943 -0.00291598 0.0146394)
(0.0185562 -0.00312894 0.0142652)
(0.0216935 -0.00302555 0.0132042)
(0.0209887 -0.00328594 0.0139681)
(0.0185691 -0.00944385 0.00337005)
(0.0190968 -0.0105089 0.00460554)
(0.0175423 -0.0109511 0.00292652)
(0.0161228 -0.0105936 0.00243235)
(0.0190384 -0.00879853 0.00402977)
(0.0174115 -0.00996897 0.00230053)
(0.0224134 -0.00748692 0.00701138)
(0.0205301 -0.00871504 0.0044122)
(0.021551 -0.00813299 0.00482332)
(0.0217427 -0.00678237 0.00590541)
(0.0217553 -0.00607329 0.00683473)
(0.0211853 -0.00739086 0.00513401)
(0.0211599 -0.00783911 0.00409887)
(0.022799 -0.00675155 0.00540997)
(0.0203302 -0.00710544 0.00276576)
(0.0215999 -0.00547561 0.00437339)
(0.0219057 -0.00735803 0.00413707)
(0.0238987 -0.00155361 0.0130441)
(0.0246986 -0.00222838 0.0121069)
(0.0241652 -0.00170294 0.0125515)
(0.0246971 -0.00148583 0.0101007)
(0.0249852 -0.00217141 0.0110724)
(0.0245742 -0.00210413 0.00956939)
(0.0219306 -0.00349291 0.0140312)
(0.0236127 -0.00371942 0.0114951)
(0.0218995 -0.0011398 0.0120841)
(0.0224889 -0.00269683 0.0120851)
(0.0211189 -0.00314887 0.0144544)
(0.0233395 -0.00322254 0.0118213)
(0.0181603 -0.010132 0.00277416)
(0.0150416 -0.0102042 0.00121089)
(0.0146079 -0.0105491 0.00142472)
(0.0171147 -0.00912841 0.00221912)
(0.0149939 -0.0117909 0.00212127)
(0.0165691 -0.00970672 0.00185314)
(0.00614821 -0.00970404 0.00270617)
(0.00690654 -0.00994319 0.00226632)
(0.00671528 -0.0104575 0.00267507)
(0.00776685 -0.0101395 0.00225737)
(0.00864105 -0.01029 0.00194256)
(0.00831892 -0.00978033 0.00232612)
(0.00639058 -0.00889393 0.00320293)
(0.00576233 -0.00843267 0.00329097)
(0.00681407 -0.00901643 0.00335603)
(0.00786014 -0.00890747 0.00263739)
(0.0088637 -0.00941172 0.00180975)
(0.0141934 -0.00537177 0.0178831)
(0.0154609 -0.00459471 0.0168531)
(0.0137952 -0.0054956 0.0172362)
(0.016131 -0.00432354 0.0157767)
(0.0168573 -0.00468518 0.0162094)
(0.0154455 -0.00498469 0.016884)
(0.0202096 -0.00557015 0.0115264)
(0.0199883 -0.00476787 0.011451)
(0.01877 -0.00444736 0.0140553)
(0.0199308 -0.00463784 0.0129005)
(0.0181674 -0.00492117 0.0135279)
(0.0196443 -0.00586174 0.0131526)
(0.012406 -0.00543278 0.0176794)
(0.0143034 -0.00495561 0.017703)
(0.0144167 -0.00480779 0.0179527)
(0.0111588 -0.005818 0.0175741)
(0.0133392 -0.00538785 0.0183689)
(0.0116091 -0.00573167 0.0183146)
(0.0129185 -0.018068 0.000889771)
(0.0127835 -0.0172258 0.000768282)
(0.0150342 -0.0164061 0.000573107)
(0.0160264 -0.0167136 0.000818443)
(0.0148725 -0.0162431 -6.87664e-05)
(0.00155002 -0.0139428 0.00431835)
(0.00397215 -0.0152981 0.00185996)
(0.00227485 -0.0146114 0.00291029)
(0.00393743 -0.015948 0.00224235)
(0.00291391 -0.0155189 0.00355377)
(0.00141081 -0.0141807 0.00453976)
(0.0141364 -0.0150787 0.000319651)
(0.0139563 -0.0134027 0.00148781)
(0.0125009 -0.0153164 -0.000127705)
(0.0127217 -0.0161668 0.000384143)
(0.0113641 -0.0160663 -8.38806e-05)
(0.0140092 -0.0156197 0.000450751)
(0.0113375 -0.0164504 -4.28312e-05)
(0.0122292 -0.0144496 -0.000123222)
(0.00682959 -0.0157535 0.000167376)
(0.00839219 -0.0169348 0.000299778)
(0.0100569 -0.0158036 -0.000728849)
(0.00842103 -0.0161 -0.00037796)
(0.00670243 -0.0160173 0.000528419)
(0.0105008 -0.0175221 0.00102985)
(0.0114534 -0.0178077 0.00065426)
(0.0124642 -0.0163702 -0.000106236)
(0.0119934 -0.0165997 -4.19765e-05)
(0.0142557 -0.016173 5.4689e-06)
(0.00566767 -0.0165277 0.00601591)
(0.00852824 -0.0182832 0.00307163)
(0.00691578 -0.0177957 0.00495833)
(0.00898051 -0.0178262 0.0022638)
(0.00575699 -0.0163845 0.00506971)
(0.00770115 -0.0181609 0.0039802)
(0.00966036 -0.0119592 0.01782)
(0.0117705 -0.00775609 0.0187414)
(0.0100518 -0.00842089 0.0177656)
(0.0104958 -0.0105004 0.0180283)
(0.00983011 -0.0106225 0.0181123)
(0.0138493 -0.00920813 0.0207048)
(0.0134244 -0.00958198 0.0203085)
(0.00687241 -0.0106879 0.0163299)
(0.00745606 -0.00937295 0.017523)
(0.00867916 -0.00772079 0.0180235)
(0.00785477 -0.00971051 0.0170197)
(0.00830637 -0.00824847 0.0171361)
(0.00645805 -0.00995208 0.0160806)
(0.0111222 -0.00612682 0.0181107)
(0.00865636 -0.00731037 0.0181376)
(0.00931435 -0.00748638 0.0177639)
(0.00996773 -0.00735028 0.0179527)
(0.00835593 -0.00707884 0.0174838)
(0.0106936 -0.00609478 0.0172788)
(0.00293694 -0.0130765 0.013535)
(0.00381489 -0.0121909 0.0129188)
(0.00388437 -0.0120506 0.0146069)
(0.00415988 -0.0118414 0.0152916)
(0.00251761 -0.0132425 0.0114725)
(0.00321817 -0.0149802 0.0117971)
(0.00303709 -0.0152456 0.00974121)
(0.00404102 -0.0143596 0.011707)
(0.00415721 -0.0159882 0.0112575)
(0.0041502 -0.0151036 0.00877046)
(0.0044781 -0.0165486 0.00830562)
(0.00356306 -0.0148284 0.00927344)
(0.00453343 -0.0164235 0.00732684)
(0.00881091 -0.0174007 0.0103713)
(0.00834928 -0.0171319 0.00991818)
(0.00836959 -0.0165004 0.00900279)
(0.00918963 -0.0181578 0.00822654)
(0.00885434 -0.0171122 0.0120288)
(0.00951071 -0.0184262 0.00795142)
(0.00831965 -0.0151923 0.0129729)
(0.00865254 -0.0133018 0.013963)
(0.00856587 -0.0145753 0.0148073)
(0.00864326 -0.013164 0.0162835)
(0.0091378 -0.0111317 0.0172443)
(0.00891829 -0.0114886 0.0154536)
(0.00907142 -0.0104635 0.013708)
(0.00935855 -0.00816719 0.0163789)
(0.00828724 -0.0119172 0.0127469)
(0.00884184 -0.00783209 0.014695)
(0.00882693 -0.011749 0.0151213)
(0.0100252 -0.0120631 0.0164155)
(0.0174621 -0.00547108 0.0134496)
(0.0176886 -0.00531772 0.013596)
(0.0170101 -0.00557501 0.0147861)
(0.0156366 -0.00434182 0.0152026)
(0.0162333 -0.00606684 0.0149483)
(0.0157184 -0.00517842 0.0156036)
(0.0107499 -0.00598267 0.0172733)
(0.0125704 -0.00531668 0.0177)
(0.0119609 -0.0069075 0.0177464)
(0.0116273 -0.00646725 0.0184668)
(0.0135447 -0.00600265 0.0174115)
(0.01313 -0.00552733 0.0168987)
(0.024233 -0.00215178 0.0101071)
(0.0232649 -0.000665992 0.0114771)
(0.0239538 -0.00092371 0.0112238)
(0.0236368 -0.00141241 0.00815226)
(0.0246198 -0.00089292 0.00908473)
(0.023851 -0.000918489 0.0106861)
(0.0114068 -0.0116994 0.0150681)
(0.0131831 -0.00888884 0.0173956)
(0.0118157 -0.0103427 0.0165056)
(0.0134336 -0.012456 0.0175731)
(0.0140099 -0.0101451 0.018579)
(0.0107847 -0.0105774 0.015372)
(0.00920202 -0.00635739 0.0157485)
(0.0118784 -0.00591907 0.0145292)
(0.0109871 -0.00680507 0.0150928)
(0.00977467 -0.00545786 0.0151745)
(0.00999277 -0.00740223 0.0158829)
(0.0111504 -0.00735075 0.0118369)
(0.0111744 -0.00802018 0.0112879)
(0.00992882 -0.00743217 0.0129772)
(0.0114929 -0.00794719 0.0112875)
(0.0101533 -0.00668893 0.0115366)
(0.0100709 -0.00654714 0.0135987)
(0.00614564 -0.00548049 0.0124988)
(0.00937059 -0.00663761 0.0112996)
(0.00754897 -0.00617024 0.0123321)
(0.0065909 -0.00789158 0.0164697)
(0.00766521 -0.00684208 0.016646)
(0.00446967 -0.00729132 0.0153208)
(0.00498212 -0.00757382 0.0157362)
(0.00515464 -0.00717653 0.0157815)
(0.00711442 -0.00625057 0.0159845)
(0.00390071 -0.0149056 0.00113025)
(0.00335367 -0.0135584 0.00172268)
(0.00184234 -0.0127684 0.00189801)
(0.00164694 -0.0124939 0.00186252)
(0.00274431 -0.0140665 0.00167011)
(0.00199283 -0.0129939 0.00194447)
(0.00418787 -0.00565607 0.0135735)
(0.00279533 -0.00487619 0.0122645)
(0.00491728 -0.00543267 0.0134732)
(0.00814896 -0.00721716 0.0123183)
(0.00902785 -0.00695669 0.0117505)
(0.00638673 -0.00749961 0.0121081)
(0.00679313 -0.00704021 0.0121817)
(0.00903139 -0.00757206 0.01209)
(0.00709369 -0.00754631 0.011316)
(0.00433292 -0.00714039 0.0108078)
(0.00285074 -0.00719627 0.0105592)
(0.00480368 -0.00734632 0.0117591)
(0.00368772 -0.00752008 0.0110124)
(0.0033466 -0.00778132 0.0108611)
(0.00265758 -0.00782994 0.0104924)
(0.00241398 -0.00844673 0.0109532)
(0.0243625 -0.0108085 0.00253488)
(0.00834394 -0.00634402 0.0149091)
(0.00689163 -0.00604202 0.0146379)
(0.00659508 -0.00496377 0.0130299)
(0.0058053 -0.00610735 0.0136054)
(0.00593663 -0.00489376 0.012992)
(0.000349117 -0.00593699 0.0101276)
(0.0005923 -0.0066378 0.0106425)
(0.00560608 -0.00670693 0.0144887)
(0.00356391 -0.00704056 0.0143199)
(0.00244216 -0.00694466 0.0138351)
(0.00436978 -0.00633124 0.014236)
(0.00431935 -0.0059092 0.0133306)
(0.00244687 -0.00782744 0.0138993)
(0.00194871 -0.0066761 0.0127838)
(0.00401365 -0.00608302 0.0141911)
(-0.000735791 -0.00761709 0.00693961)
(-0.000660355 -0.0068357 0.00861617)
(-0.0012266 -0.00804138 0.00612949)
(-0.000945888 -0.00913889 0.00538343)
(0.00296515 -0.0133679 0.00101539)
(0.000452247 -0.0122374 0.00298467)
(0.00202903 -0.0129214 0.00188408)
(0.00123549 -0.00832434 0.0124038)
(-0.000984679 -0.00847234 0.00841462)
(-0.000113944 -0.00893146 0.0107913)
(0.000205083 -0.00823657 0.0101755)
(-0.000412494 -0.00985039 0.00428536)
(4.4875e-05 -0.0111327 0.00390224)
(-0.000477068 -0.0107211 0.00678384)
(-0.000110667 -0.0102643 0.00931351)
(-0.000175855 -0.0101713 0.00893448)
(-0.000747574 -0.0109784 0.00718061)
(0.0009092 -0.0124963 0.0031406)
(0.00247093 -0.0138201 0.00204903)
(0.000190356 -0.0118408 0.00846111)
(0.00010488 -0.0124982 0.00624094)
(0.000592284 -0.0132459 0.0040604)
(0.00187033 -0.0138924 0.00262794)
(0.000109714 -0.0114519 0.00565088)
(0.00138628 -0.0141679 0.00318201)
(0.000944495 -0.0144997 0.00512599)
(0.00666972 -0.00655725 0.0155225)
(0.00320258 -0.00867321 0.0149169)
(0.00829383 -0.00657288 0.0139861)
(0.0127375 -0.00797776 0.0100395)
(0.0115842 -0.00883534 0.00915443)
(0.0121345 -0.00798117 0.0100967)
(0.00715482 -0.00782016 0.0158165)
(0.00825336 -0.00667868 0.0161473)
(0.0081847 -0.00646899 0.0152089)
(0.00852058 -0.00641789 0.0149075)
(0.00796789 -0.00654494 0.0155792)
(0.0113764 -0.00593814 0.0142346)
(0.0109658 -0.0103296 0.00739302)
(0.0101756 -0.0107553 0.00638171)
(0.00458933 -0.0137862 0.000603118)
(0.00464546 -0.0141457 0.000825039)
(0.0231718 -0.00249462 0.00565827)
(0.0214512 -0.0010247 0.0141844)
(0.0215707 -0.000800106 0.01243)
(0.0235661 -0.00243005 0.00694507)
(0.0105514 -0.00830746 0.00211692)
(0.00831355 -0.00836574 0.00264315)
(0.00801505 -0.00897328 0.00305732)
(0.0070945 -0.00857041 0.00294199)
(0.00905134 -0.00865842 0.0025735)
(0.00858216 -0.00807656 0.00222058)
(0.00724999 -0.0076971 0.00307601)
(0.00765922 -0.00804771 0.00256436)
(0.0151944 -0.00808845 0.00111462)
(0.0160687 -0.00812625 0.00102455)
(0.0172901 -0.00756639 0.000979441)
(0.0188191 -0.00734795 0.00158391)
(0.0186928 -0.00680544 0.00118966)
(0.019899 -0.00674605 0.00181867)
(0.0210035 -0.00564418 0.00233853)
(0.023596 -0.00343889 0.00460539)
(0.0230829 -0.00415876 0.00401181)
(0.0221715 -0.00485909 0.00269591)
(0.00875215 -0.00597914 0.0167225)
(0.0116187 -0.00619497 0.0167411)
(0.0107177 -0.00676282 0.0176748)
(0.0098155 -0.0114654 0.014061)
(0.0113949 -0.0162557 0.00563011)
(0.0118429 -0.0158918 0.00921021)
(0.0112163 -0.0156354 0.00726236)
(0.0123472 -0.0164739 0.00717748)
(0.0096543 -0.0121719 0.0124546)
(0.0105011 -0.0146637 0.00902252)
(0.00827784 -0.0119421 0.0113213)
(0.00924925 -0.0139049 0.0100421)
(0.0100619 -0.00759129 0.0183776)
(0.00922967 -0.00665172 0.0182328)
(0.00947027 -0.00804015 0.0185083)
(0.0095912 -0.00780524 0.0181784)
(0.00782886 -0.00774886 0.0177406)
(0.00649782 -0.00919756 0.0167793)
(0.00413985 -0.0133984 0.0129863)
(0.00980148 -0.00743952 0.0180208)
(0.00772941 -0.00914742 0.017793)
(0.00552492 -0.0117417 0.0150107)
(0.00436475 -0.0139345 0.0118382)
(0.00498049 -0.0124654 0.0135531)
(0.00537152 -0.0146091 0.0112035)
(0.00524429 -0.0138069 0.0129579)
(0.0102034 -0.0112413 0.016277)
(0.0103339 -0.00775333 0.0183677)
(0.0129827 -0.00580904 0.018084)
(0.0146031 -0.00558737 0.0181824)
(0.0133407 -0.0051737 0.0187522)
(0.0103406 -0.00823881 0.0168275)
(0.0106956 -0.00966386 0.0165574)
(0.0121652 -0.00919741 0.0182022)
(0.00615428 -0.0117243 0.0143386)
(0.00711534 -0.0134331 0.0152008)
(0.00859687 -0.0143 0.0177866)
(0.00818502 -0.0111043 0.0172853)
(0.0078178 -0.0152506 0.0151214)
(0.00706271 -0.0139637 0.013622)
(0.00743805 -0.0139224 0.0131009)
(0.00828556 -0.0127211 0.0159371)
(0.00507233 -0.016516 0.00857022)
(0.0155472 -0.0133942 0.00212844)
(0.0125447 -0.0140724 0.00161636)
(0.0108051 -0.0153348 3.63381e-05)
(0.00691744 -0.0167162 0.000621121)
(0.00226044 -0.0156553 0.00609453)
(0.00547469 -0.0172832 0.00180332)
(0.00283701 -0.0160471 0.00425172)
(0.00421277 -0.0170244 0.00294912)
(0.00552793 -0.0165507 0.00147059)
(0.00538213 -0.0148248 0.000156102)
(0.00285918 -0.0151657 0.00205034)
(0.000895144 -0.0120965 0.0105556)
(0.00135701 -0.0134607 0.00905581)
(0.0012546 -0.0142133 0.00716932)
(0.000469567 -0.0139802 0.00600858)
(0.00110711 -0.0138443 0.0067959)
(0.000428002 -0.0131248 0.00755808)
(0.000184418 -0.0126767 0.00875472)
(0.000971373 -0.011303 0.0101455)
(0.00111543 -0.0101277 0.0118451)
(0.000135545 -0.0121348 0.0100684)
(0.00630252 -0.015656 0.000661102)
(0.00537286 -0.0150276 0.000306571)
(0.00398778 -0.0146575 0.00157565)
(0.00399802 -0.0156827 0.00150548)
(0.00962194 -0.0173855 0.000414742)
(0.00789827 -0.0170198 0.000637037)
(0.00973954 -0.0167166 0.000242133)
(0.0156361 -0.0153649 0.000961246)
(0.0173663 -0.0136531 0.0022022)
(0.0163474 -0.0138277 0.00164454)
(0.017106 -0.0132556 0.0024651)
(0.0100601 -0.0148994 0.000707544)
(0.00978715 -0.0150397 -9.66636e-05)
(0.00961425 -0.0148034 -0.000298262)
(0.00814911 -0.0148193 -8.95948e-05)
(0.0115702 -0.0139522 0.000551013)
(0.0111452 -0.0139273 0.000953461)
(0.0128806 -0.0170869 0.000252818)
(0.0114765 -0.0171335 5.28357e-06)
(0.0165985 -0.0144759 0.00125748)
(0.0151903 -0.015592 0.000924506)
(0.0143531 -0.0155573 0.000141239)
(0.0164247 -0.0148763 0.000450305)
(0.0166926 -0.0149608 0.00105992)
(0.0107526 -0.0165262 0.000262404)
(0.0181779 -0.0124159 0.00273254)
(0.0177545 -0.0146466 0.00153511)
(0.0180995 -0.014476 0.0017092)
(0.0187259 -0.0130105 0.0024586)
(0.0167641 -0.0153894 3.64611e-05)
(0.0116887 -0.0173404 0.000338946)
(0.0125531 -0.0177912 0.00039193)
(0.0110191 -0.0175466 0.000399262)
(0.0113895 -0.0176544 0.000178392)
(0.0137134 -0.0164593 -0.000214804)
(0.0100968 -0.0177591 0.000839661)