/*--------------------------------*- C++ -*----------------------------------*\
| =========                 |                                                 |
| \\      /  F ield         | OpenFOAM: The Open Source CFD Toolbox           |
|  \\    /   O peration     | Version:  v1612+                                |
|   \\  /    A nd           | Web:      www.OpenFOAM.com                      |
|    \\/     M anipulation  |                                                 |
\*---------------------------------------------------------------------------*/
FoamFile
{
    version     2.0;
    format      ascii;
    class       surfaceScalarField;
    location    "206";
    object      phi;
}
// * * * * * * * * * * * * * * * * * * * * * * * * * * * * * * * * * * * * * //

dimensions      [0 3 -1 0 0 0 0];

internalField   nonuniform List<scalar> 
42001
(
2.07475e-09
-7.27711e-09
-1.54102e-09
6.74337e-09
-8.93521e-09
5.8553e-09
-3.98424e-09
7.06414e-09
1.67683e-09
4.77081e-09
-1.09408e-08
6.94751e-09
-1.03532e-08
-1.96317e-09
-6.30976e-09
-6.45131e-09
-8.46554e-09
-8.38616e-09
-7.34076e-09
-9.13387e-09
3.34839e-09
1.31262e-08
-1.07437e-08
4.82064e-11
3.35466e-09
8.04676e-09
-7.90007e-09
-1.08904e-08
-3.16642e-09
2.07929e-09
3.87448e-09
-5.8928e-09
2.06649e-09
-2.82969e-09
1.00525e-08
4.21415e-09
4.10199e-09
-1.40611e-08
5.74492e-09
-1.47818e-08
1.31031e-08
-6.66925e-09
6.60499e-09
3.0896e-09
-3.02536e-09
-3.91979e-09
2.00201e-09
-4.75148e-09
2.94203e-09
4.96524e-10
-6.20754e-09
7.47982e-09
-5.66016e-09
-6.45442e-09
-1.9465e-09
-8.99553e-09
-1.14464e-08
-7.57113e-09
4.3738e-09
-3.25711e-09
1.97291e-09
-1.34638e-08
7.14873e-09
3.1466e-10
-4.94129e-09
-9.56766e-10
3.88321e-09
-1.19639e-08
4.03161e-09
-1.28878e-08
1.24949e-08
-3.63862e-09
-5.78359e-09
7.8139e-09
2.00129e-09
4.69101e-09
-6.62072e-09
-1.09581e-08
-7.31993e-10
-3.60587e-10
8.29005e-09
-5.71128e-09
9.91609e-09
1.194e-09
1.491e-08
6.55286e-09
-7.75576e-11
-1.3096e-08
8.58243e-09
-5.10231e-09
-1.0631e-08
7.1509e-09
-8.82121e-09
5.64905e-09
9.81419e-09
-6.64201e-09
6.00743e-10
-8.39487e-10
-4.25956e-10
1.26754e-09
-1.00338e-08
4.85392e-09
5.58013e-09
7.57956e-10
-5.73733e-09
1.24232e-08
-1.22007e-08
7.22192e-09
-8.51699e-09
1.34957e-08
1.9827e-09
-1.49265e-08
7.43075e-10
5.66373e-09
7.9157e-09
-2.4642e-08
1.10626e-08
1.38098e-08
1.01349e-08
-1.8281e-08
-1.08062e-08
-3.25084e-09
-1.19297e-08
3.10623e-09
-1.60823e-08
1.20942e-09
6.35583e-09
-2.92419e-09
6.51691e-10
1.11417e-09
-5.90573e-09
1.08044e-08
9.39116e-09
-1.89862e-08
-1.47042e-08
-7.58227e-09
1.33747e-08
-4.67827e-09
1.60245e-08
-1.56911e-08
-1.01817e-08
1.16268e-08
3.9312e-10
5.44966e-09
2.77993e-08
-1.79346e-09
-8.6461e-09
-1.73598e-08
5.43185e-09
-7.91e-09
1.59645e-08
-1.34864e-08
-5.38819e-09
1.39712e-08
-7.80127e-09
-7.81826e-10
9.78546e-09
-1.72136e-08
2.03997e-09
7.66227e-09
2.30828e-08
-2.09597e-08
2.13606e-08
-8.26647e-09
7.83247e-09
2.16121e-09
1.30891e-08
1.5674e-08
1.3519e-08
3.83248e-09
-9.60461e-09
-5.29644e-09
1.10685e-08
-1.16189e-08
1.87236e-08
-3.27228e-09
1.61184e-08
-8.49723e-09
6.34999e-09
-2.23396e-08
1.40073e-08
-1.86985e-09
1.02021e-08
-9.90943e-09
1.53692e-08
-2.1851e-08
2.21659e-08
1.36923e-08
-2.05464e-09
-5.27932e-09
-1.4517e-08
-3.06622e-09
1.36131e-08
-2.05087e-08
7.83786e-09
2.5089e-09
8.35693e-09
-1.61623e-08
-1.94145e-08
8.39623e-09
1.35271e-08
-1.22524e-08
8.95634e-09
-6.88934e-09
-1.0303e-08
-7.49339e-09
5.53827e-09
1.22582e-08
-4.55839e-09
-5.86616e-09
1.21634e-10
-1.49044e-08
1.38335e-09
6.02765e-09
-1.2637e-08
-6.82575e-09
-6.79885e-09
4.78533e-09
-8.88951e-09
1.0903e-08
-9.69094e-09
4.27548e-09
1.16852e-08
5.71338e-09
-1.37962e-08
-3.60237e-09
1.96354e-09
1.79385e-08
-8.21684e-09
-3.12602e-09
1.34496e-08
-5.66522e-09
-5.56241e-09
2.33817e-09
-1.16925e-08
-3.66368e-09
1.29275e-08
-4.03404e-09
-6.92985e-09
1.59942e-09
5.46194e-09
-1.55051e-08
8.39952e-09
8.70499e-09
1.42531e-09
1.00818e-09
-8.41918e-09
1.36927e-08
-6.84942e-09
1.12251e-09
-6.91008e-09
6.24006e-09
-9.81056e-09
-3.27892e-09
-1.43146e-08
1.40371e-08
1.70286e-09
1.05257e-09
-9.65376e-09
-3.47143e-09
9.08935e-09
4.91675e-09
-1.03692e-08
-1.41589e-08
5.12507e-09
-8.18956e-09
-1.79054e-08
-1.07543e-08
3.63999e-09
2.50197e-08
2.12864e-09
-6.62656e-09
-1.34075e-08
-7.42906e-09
-1.19662e-09
-1.06504e-09
-1.55012e-08
9.13714e-09
-1.79696e-08
7.8699e-09
9.03461e-09
-5.63253e-09
-1.38962e-08
2.31687e-08
-1.27525e-09
-5.41877e-09
-1.12756e-08
-5.22771e-09
-1.15487e-08
-1.37778e-08
1.60151e-08
-4.78722e-09
1.52008e-09
-1.06291e-08
-3.19439e-09
1.37649e-08
-1.59893e-08
-1.82461e-08
9.82405e-09
-4.80008e-09
-1.89197e-08
2.62287e-09
1.01029e-08
6.19387e-09
1.85246e-09
-2.23764e-08
1.60435e-09
-1.88898e-08
1.20501e-08
9.46253e-09
-1.99615e-08
-1.62089e-08
1.18663e-08
1.44659e-08
3.94015e-09
-1.88498e-08
6.2383e-09
-1.84405e-08
2.30904e-09
-2.71832e-09
-7.54355e-09
4.08336e-09
2.71541e-09
7.44807e-10
-1.2808e-09
-1.39374e-10
-6.12336e-09
-7.33239e-09
-8.79701e-10
5.22306e-09
2.98907e-09
-1.53162e-09
-7.08156e-09
1.67686e-09
-5.83426e-09
1.15034e-08
-7.34598e-09
-3.16962e-09
7.65617e-09
-2.80967e-09
-8.63003e-10
8.74319e-10
-3.18089e-09
5.32842e-10
-7.23011e-09
8.1916e-09
-9.19035e-09
4.53634e-09
2.77559e-09
-4.5854e-09
4.08594e-09
4.58284e-09
-3.85045e-09
4.30193e-09
3.63655e-09
-5.77723e-10
4.04324e-09
4.19072e-09
5.74131e-09
5.18446e-09
-1.25929e-09
1.00492e-09
-2.72612e-09
2.98053e-09
1.01223e-09
2.03044e-09
4.13443e-09
6.14324e-09
-6.26439e-10
-3.34127e-09
4.97267e-09
4.52023e-09
1.4156e-09
-5.57661e-11
2.11759e-09
8.1899e-09
2.59868e-09
-5.25244e-10
-1.02634e-08
2.88787e-10
-3.71992e-10
8.27309e-09
1.42938e-08
2.83271e-10
-1.19784e-08
5.91191e-09
1.23276e-09
-7.66994e-09
6.22845e-09
-2.77581e-11
6.27334e-09
-3.7146e-09
1.1735e-08
8.18146e-09
-6.09935e-09
1.80784e-09
-3.88997e-09
2.48148e-09
1.05292e-08
-4.82921e-09
-5.54335e-09
1.74642e-08
-9.43943e-09
-1.5061e-09
1.05196e-08
-8.73026e-09
1.02005e-08
-1.04739e-08
2.02197e-09
-1.89288e-09
-1.35546e-08
1.38256e-08
-5.81433e-09
3.23835e-09
-5.34367e-09
-1.32798e-09
8.69362e-09
-1.11296e-08
1.59865e-08
3.09217e-09
1.11965e-08
-8.11126e-09
-6.17741e-09
3.68629e-09
-1.4032e-09
8.0906e-10
4.14713e-09
1.07357e-08
7.37646e-09
-3.33895e-09
4.74224e-09
-8.77977e-09
-1.37571e-10
1.14035e-08
-3.88946e-09
4.41987e-09
6.49727e-09
-5.61212e-09
-5.30503e-09
5.34055e-09
1.36136e-10
-1.05682e-09
-1.97662e-09
2.61666e-09
4.7005e-09
3.11744e-09
-6.97214e-09
-7.74791e-10
1.18941e-08
5.80262e-09
8.83792e-11
-9.22997e-09
-2.4462e-09
-5.49353e-09
9.92484e-09
7.34806e-10
-1.48608e-09
-3.19413e-09
1.36975e-09
-5.25355e-09
7.07794e-09
-8.71787e-09
-4.35525e-09
6.19712e-09
-3.94984e-09
5.17345e-09
-5.57886e-09
-1.84528e-09
6.39804e-09
3.38066e-09
2.91004e-09
-1.26887e-08
1.19428e-09
-1.71434e-09
6.91814e-09
6.87258e-09
9.71413e-09
-1.3206e-08
9.46965e-09
-1.40276e-09
-7.95072e-09
-4.92738e-09
1.52358e-08
-2.35761e-09
-9.00319e-09
1.59336e-09
-5.4084e-10
9.92236e-09
7.56292e-09
-1.45752e-08
1.06326e-08
-4.0041e-09
3.29385e-09
-1.45949e-08
1.50614e-08
4.97672e-09
-9.85749e-09
-9.22523e-09
-3.00958e-09
7.30753e-09
-1.12877e-08
3.65592e-09
7.9396e-09
4.00996e-09
-4.38662e-09
1.13856e-08
7.18663e-09
2.54801e-09
5.82811e-09
-2.30103e-09
9.11555e-09
9.755e-12
6.32183e-09
1.04316e-08
-6.04185e-09
4.72579e-09
-9.14701e-09
5.48626e-09
3.67053e-09
-2.50738e-09
1.05802e-08
2.35886e-09
5.73626e-09
-1.92178e-09
6.82845e-09
-6.61509e-10
-5.25302e-09
-9.1391e-10
1.10216e-08
-1.30733e-09
-4.69546e-09
-5.01877e-09
3.60658e-09
1.10902e-08
-3.67515e-09
9.28545e-09
9.6083e-10
-6.63969e-09
-2.30698e-09
2.38866e-09
6.74679e-09
5.37673e-10
5.84225e-09
-8.68687e-09
9.12951e-09
-4.70055e-09
-9.21072e-10
-1.8271e-09
1.38384e-08
1.0753e-08
3.10647e-09
8.01143e-09
1.04089e-08
2.45329e-09
8.5908e-09
-9.20935e-09
-1.83474e-09
8.99084e-09
-6.56212e-09
2.45638e-11
-1.11851e-09
3.0997e-09
6.60961e-09
1.98365e-09
5.88866e-09
6.2009e-09
-8.18702e-09
-4.57597e-09
1.83216e-09
7.44058e-09
-7.33298e-09
-1.93974e-09
-2.62339e-09
3.44689e-09
1.0087e-09
5.56116e-09
6.75119e-09
4.38942e-09
-3.70004e-09
5.76067e-10
9.62201e-09
-7.4598e-09
-3.33476e-09
1.13706e-08
-1.8895e-09
-6.38898e-09
8.1868e-10
-4.27714e-09
-1.31703e-09
-3.61516e-09
-3.09458e-09
-9.36959e-09
2.3023e-09
5.47435e-10
-5.94431e-09
5.84415e-10
-5.6151e-09
-8.33927e-09
8.10421e-09
-8.82829e-09
-1.40047e-09
3.35507e-09
4.69606e-09
-7.50372e-09
-7.09219e-09
1.10317e-08
-5.44925e-09
-3.03482e-09
-5.22366e-09
-2.77335e-10
8.53583e-09
-8.27046e-09
-3.77256e-09
9.0082e-09
6.17301e-10
-1.04412e-08
1.55346e-09
-6.06205e-09
1.45569e-09
-6.39536e-09
-3.75606e-09
-2.89795e-10
-5.49671e-10
6.19537e-09
1.43934e-09
-7.08504e-09
7.38621e-09
1.89489e-09
-9.83077e-09
5.17707e-09
-5.37705e-09
-1.28231e-09
3.97331e-10
-9.41262e-09
5.2117e-09
4.28365e-10
6.32117e-09
7.5154e-09
-6.45036e-09
4.80416e-09
2.34697e-10
-8.55222e-09
-4.61645e-09
4.04286e-10
1.05316e-08
-9.04102e-09
-6.70859e-09
-7.84141e-09
1.24713e-08
-4.90719e-09
-9.58119e-09
6.54394e-09
-1.89889e-09
-1.66892e-10
-2.72266e-09
1.13554e-08
-9.24377e-09
8.36751e-09
-3.62056e-09
4.49683e-09
-2.75403e-09
-3.08367e-09
9.93115e-09
3.11271e-09
-4.87368e-09
-8.88041e-09
7.49223e-09
-2.80289e-09
4.19108e-09
1.77522e-09
9.76959e-09
2.53592e-09
-1.13631e-08
4.25795e-09
1.07757e-08
1.25464e-08
-4.75746e-09
3.9769e-09
-2.48301e-09
3.50683e-09
-5.00074e-09
1.65867e-09
9.38506e-09
-7.06685e-09
1.4181e-09
-4.97843e-09
-2.62702e-09
6.18734e-09
-5.31604e-09
8.3928e-09
1.32531e-09
1.11217e-09
6.40331e-09
-8.84081e-09
-9.64307e-11
-5.61452e-09
3.949e-10
-5.17554e-09
1.00669e-10
-1.05397e-08
1.01413e-08
-5.47231e-09
5.87067e-09
-4.03454e-09
-5.67362e-10
-5.93786e-09
1.23276e-09
-1.03586e-08
6.64277e-09
8.74703e-09
1.1961e-09
-5.48532e-09
5.81275e-09
-4.14643e-09
-5.70088e-09
4.6872e-10
-1.28297e-10
-1.01826e-08
-1.46207e-10
6.18236e-09
-6.92147e-09
-4.0045e-09
-4.74836e-09
4.15363e-11
6.0169e-09
6.423e-09
-1.24436e-08
3.6541e-12
-2.12934e-10
8.47003e-09
-2.24019e-09
8.33603e-09
-2.42318e-09
-6.12577e-09
2.54767e-09
8.79064e-09
-3.00228e-09
-5.38084e-09
8.24979e-09
-3.21279e-10
-3.25483e-11
5.09234e-10
8.31395e-09
-9.83912e-09
9.3016e-09
5.04963e-10
-7.19009e-10
7.57121e-09
-4.29192e-10
-2.08809e-09
6.34184e-09
-5.32016e-09
-6.40251e-09
1.54249e-08
7.92335e-10
-7.90745e-09
-8.30981e-09
-9.79882e-10
4.67053e-09
1.17343e-08
-2.88724e-10
-4.14157e-09
1.37319e-08
-6.97515e-09
8.17944e-09
-1.93173e-09
7.27441e-10
1.02844e-08
-3.29321e-09
-7.27992e-09
1.31437e-09
-3.9736e-11
-7.88653e-09
-2.16671e-09
6.81904e-09
3.23421e-09
-6.68942e-09
1.17257e-10
-1.18804e-08
8.73377e-09
-4.99408e-09
-6.09395e-09
-5.34167e-09
1.41539e-08
-1.44901e-08
1.46828e-08
-1.00678e-08
8.43818e-09
-9.41216e-09
1.10418e-08
-1.06903e-08
6.44456e-09
2.10391e-08
-1.67933e-08
-7.6102e-09
3.18407e-09
-6.26421e-09
5.07166e-09
-9.8118e-10
-1.41583e-08
2.89902e-09
-7.4313e-09
9.60394e-09
-1.33156e-10
9.61137e-10
-1.9217e-08
2.16654e-08
-1.09776e-08
8.5292e-09
1.19066e-08
-1.78106e-08
-1.3313e-08
7.57205e-09
7.01341e-10
1.33919e-08
4.90174e-09
1.45769e-08
7.69943e-09
-1.1993e-08
3.31243e-09
6.70456e-09
-1.04522e-09
2.04009e-09
4.23325e-09
-1.03188e-08
-4.89212e-09
-1.06783e-08
-2.25802e-09
1.36043e-08
-4.07347e-09
-7.48208e-09
9.29752e-09
-1.14362e-08
8.06411e-09
5.95706e-09
6.14331e-10
3.00267e-09
-2.14567e-09
-1.22933e-08
1.47765e-09
-1.10509e-08
-5.7939e-09
7.5897e-09
9.25508e-09
-8.17752e-09
-1.01983e-09
-1.85354e-09
6.80965e-09
-2.07939e-09
-1.29078e-08
3.68533e-09
-2.66957e-09
-6.95283e-09
8.79386e-09
-2.86088e-09
4.33603e-09
-1.33683e-08
6.54862e-09
1.04049e-08
-1.26175e-08
7.78464e-09
9.25471e-10
-2.16148e-09
-4.30431e-09
-3.09313e-10
1.22033e-08
-1.25897e-10
4.61545e-09
4.94988e-09
5.32916e-09
3.23447e-09
9.50006e-09
5.79896e-09
-1.18816e-09
8.72412e-09
-9.04795e-09
-6.66928e-10
1.15634e-08
-1.84856e-09
4.66967e-09
-5.93485e-09
-7.78277e-09
-7.33465e-09
8.6774e-09
-2.0097e-09
-5.40394e-09
9.54732e-09
7.42001e-09
4.62679e-10
-1.19696e-09
1.09735e-08
4.5504e-10
-4.77453e-09
-6.65409e-09
1.18708e-09
4.05829e-10
9.38063e-09
-4.58152e-09
5.87262e-09
-8.62576e-09
-1.20932e-08
1.57681e-09
1.26425e-09
3.20344e-09
-3.86996e-09
-5.97726e-10
3.4767e-09
4.89593e-09
-4.68498e-09
-3.68767e-09
5.04087e-09
-2.99924e-10
-1.328e-08
2.1101e-09
1.2357e-08
-7.92901e-09
-8.19424e-09
1.37029e-09
7.22975e-09
-7.09614e-09
1.17939e-09
5.97158e-09
4.43147e-09
-7.65345e-10
1.92435e-09
8.12333e-09
-2.10062e-10
1.16817e-08
5.40079e-09
5.14741e-09
-7.30387e-09
-5.02814e-09
7.1846e-09
-5.40179e-10
-6.98185e-09
1.26694e-08
-6.9517e-09
-5.40727e-09
1.18188e-08
5.7633e-09
-6.20297e-09
-6.5422e-09
-5.50035e-09
-1.45924e-09
-3.44276e-10
-8.09559e-09
-1.43155e-08
1.54594e-08
-1.33491e-08
4.55102e-09
7.02457e-10
2.60568e-10
-1.21844e-08
-2.39159e-09
-1.11433e-08
-1.94517e-09
2.5574e-10
-8.50691e-09
2.84391e-09
-7.86134e-09
3.08894e-09
-2.04749e-09
-7.65266e-09
1.83881e-09
-7.47918e-09
-6.86593e-11
-2.16954e-09
1.67837e-09
-1.16933e-08
-3.89155e-10
-1.29237e-08
-2.00841e-09
3.47002e-10
-5.99125e-09
-1.76124e-09
-7.72636e-09
9.60066e-09
-1.17511e-08
-6.48154e-09
-2.54059e-08
2.75218e-09
2.98841e-09
-1.71497e-08
-1.23982e-08
4.14196e-09
-5.71272e-09
-6.46751e-09
-1.17382e-08
2.39184e-08
-5.68269e-09
-1.71797e-08
2.70496e-10
-3.23339e-09
-1.127e-08
5.28871e-09
3.93232e-09
-1.49037e-08
-9.79415e-09
8.61534e-09
-1.14564e-08
-6.13401e-09
4.30234e-09
1.3288e-08
-1.918e-08
1.16559e-08
-1.51723e-08
-4.03964e-09
-2.83592e-09
-3.27147e-09
-1.01975e-09
7.12709e-09
-1.70541e-09
-2.94688e-09
1.81632e-09
-2.96716e-09
-3.04933e-09
2.745e-09
-4.11786e-09
-5.54714e-10
-3.44368e-09
6.30712e-09
-6.26715e-09
-2.2587e-10
3.42443e-09
2.8668e-09
-9.62775e-10
-5.32847e-09
-4.98529e-10
-1.94905e-10
3.07755e-09
-5.52791e-09
-3.0857e-09
-8.99829e-09
5.01015e-09
1.36961e-09
-1.15628e-08
1.9e-08
-8.80687e-09
-9.87854e-09
1.83352e-08
-7.08706e-09
-1.39148e-08
1.35599e-08
-1.12079e-08
-1.97942e-09
-1.80505e-08
6.11509e-09
1.41112e-08
-3.45922e-09
2.90788e-09
-7.46611e-09
4.0168e-09
-6.42925e-09
1.20839e-08
-6.51102e-09
1.34271e-08
-7.28086e-09
2.86035e-09
1.65044e-08
3.14431e-09
1.13592e-09
4.26574e-09
6.95248e-09
-1.23542e-08
3.73205e-09
-1.31776e-08
8.73612e-09
1.27972e-08
-6.14674e-09
-2.63367e-09
6.81633e-09
-4.76202e-09
1.07429e-08
-2.80467e-09
-4.45749e-09
1.01225e-08
7.15597e-09
-1.33322e-08
8.78404e-09
8.81388e-09
-3.70978e-10
-8.39738e-09
-4.56382e-09
1.64108e-08
-6.29739e-09
-1.04844e-08
4.69639e-09
6.95237e-09
-8.71207e-09
9.02294e-09
1.21588e-08
-1.62829e-12
6.90503e-10
-1.28477e-08
3.68512e-10
1.19151e-08
-1.24839e-10
1.22388e-08
4.03607e-10
-1.26441e-08
1.21037e-08
5.03604e-10
1.76597e-10
1.15293e-08
-1.10154e-08
1.04735e-08
1.27942e-08
-1.13526e-08
1.8022e-08
-3.89791e-09
-3.65057e-09
1.16252e-08
-1.1045e-08
-9.76108e-09
-4.41997e-09
1.24251e-09
1.29385e-08
-8.95063e-09
1.12933e-08
4.8664e-09
-1.20863e-08
1.358e-08
-6.36008e-09
-7.45624e-09
1.87257e-08
-6.40309e-09
-6.12185e-09
1.20575e-08
3.29362e-09
3.37873e-09
-6.75651e-09
1.43879e-08
1.087e-08
-3.66479e-09
7.07706e-09
-3.66328e-09
5.85719e-09
3.45323e-09
3.26311e-09
7.78747e-09
-2.47101e-09
5.40743e-10
7.92783e-09
5.92945e-09
-4.71738e-09
-9.13987e-09
1.04093e-08
7.22461e-09
-9.70603e-09
-1.6625e-08
1.30656e-09
6.53913e-09
8.77931e-09
-5.16068e-09
-7.20254e-09
-4.26174e-09
1.30085e-08
-9.25777e-09
-8.91144e-09
5.50623e-09
8.80888e-09
1.16627e-08
-4.78512e-10
-5.25474e-09
-5.23297e-09
7.43317e-09
-8.12993e-09
5.92977e-09
1.01896e-08
-3.75979e-09
8.44861e-09
-7.86367e-09
-2.54846e-09
-4.1085e-09
1.40901e-08
1.31473e-08
9.99292e-10
1.28005e-09
-7.5773e-09
1.00079e-08
1.8706e-09
-4.18495e-09
1.02813e-08
-2.99805e-10
-5.79658e-09
-1.35182e-08
-8.96159e-10
1.02294e-08
4.8668e-09
8.98353e-09
-3.56902e-09
6.57589e-10
-7.2076e-09
1.14168e-08
1.13325e-08
-6.93155e-09
-4.70076e-09
-2.51719e-09
1.06631e-10
1.13941e-08
1.48462e-08
-7.91007e-09
2.88749e-09
-9.82364e-09
-9.24328e-09
-1.46253e-08
5.57893e-09
2.40171e-11
-2.21131e-09
8.20915e-09
1.17455e-08
4.26207e-09
-2.34754e-09
6.29467e-09
-3.50525e-09
1.5283e-08
4.47528e-09
-9.30634e-09
2.48357e-09
-9.18816e-09
1.01582e-08
-1.76426e-09
3.84445e-10
-2.58479e-09
-9.42205e-09
1.53077e-08
-3.46563e-09
-2.42007e-09
4.13844e-09
-2.81373e-09
-1.07468e-08
1.3889e-08
4.94307e-11
-9.80004e-09
2.4701e-09
5.10534e-09
6.31359e-09
9.29065e-09
8.4872e-09
-9.20249e-09
1.24538e-08
-6.71701e-09
2.12277e-09
-1.4139e-08
-1.13353e-08
8.55734e-09
-5.60326e-09
8.38119e-09
-3.26597e-09
-8.01988e-09
3.96463e-09
1.15141e-09
3.44127e-09
3.75128e-09
8.96282e-09
-8.74949e-09
9.34061e-09
-1.04838e-08
3.0269e-10
2.95096e-10
1.18561e-08
5.75941e-09
-8.89006e-09
4.28206e-09
1.15799e-08
-2.06923e-09
7.53242e-10
8.06996e-09
2.98794e-09
-1.68256e-08
5.76774e-09
9.97766e-09
8.27226e-10
-2.73491e-09
-9.37553e-09
1.41929e-08
1.82614e-09
-6.64352e-09
1.1762e-08
-1.31221e-08
-8.01541e-09
1.2131e-08
-3.86748e-09
3.49845e-09
1.09342e-08
4.41443e-09
-5.37099e-09
8.74937e-09
9.49322e-09
-1.52547e-08
1.194e-08
-2.36342e-09
6.58114e-09
-1.10031e-09
3.82453e-09
1.48876e-08
8.70451e-09
-1.63781e-09
2.92525e-09
7.93825e-09
-1.37027e-09
1.10097e-08
3.85555e-09
3.29258e-10
7.68983e-09
2.99058e-09
6.32221e-09
2.71154e-09
-1.42766e-08
5.82661e-09
7.34963e-09
-4.51216e-09
1.50329e-09
1.20131e-08
1.165e-08
2.90186e-09
-9.6047e-09
1.10439e-08
-4.34111e-09
1.00905e-08
-6.34197e-10
-6.55449e-09
2.03384e-09
-1.14741e-08
-1.64412e-10
8.09609e-09
9.79187e-10
-9.71085e-10
1.09525e-08
-1.45757e-09
1.54894e-09
6.41084e-09
-6.95422e-10
4.37509e-09
9.60457e-09
7.75879e-09
1.13123e-08
-1.12142e-08
1.93579e-09
9.24986e-09
1.02169e-08
-2.18217e-10
1.00729e-08
7.56587e-09
2.68134e-09
-6.42661e-10
1.23149e-08
-6.03466e-09
-1.12751e-08
4.99489e-09
2.78368e-09
1.42459e-08
-4.7147e-09
-9.29403e-09
1.23326e-08
-2.54931e-10
-4.9899e-09
4.94571e-09
1.31782e-08
-1.55745e-08
2.0442e-08
-1.80458e-08
1.32575e-08
3.35515e-09
-3.43445e-09
2.11447e-09
-2.63926e-08
8.70369e-09
2.78446e-08
7.16649e-10
-8.11923e-09
2.60122e-08
1.50899e-08
2.00255e-08
-1.70539e-09
-1.1338e-08
-6.98212e-09
9.99669e-09
6.32899e-09
-1.42112e-08
-7.1076e-09
7.74756e-09
-1.35055e-08
1.28655e-08
1.12716e-08
1.6463e-09
1.48806e-08
-4.16728e-09
-1.35926e-08
1.32163e-08
-3.85733e-09
4.23365e-09
1.40054e-08
-9.38177e-09
-1.11123e-08
1.0082e-08
1.2302e-08
-2.95015e-09
4.23814e-09
-5.71193e-11
4.71823e-09
1.40916e-08
3.30929e-09
5.60101e-09
-4.49956e-10
2.3688e-09
7.33566e-09
1.01997e-08
9.97212e-09
1.19812e-09
5.44313e-09
-1.66134e-08
-2.32049e-09
1.26837e-08
-3.91096e-10
-1.27467e-08
1.37259e-08
-3.29968e-09
7.60307e-09
-1.91517e-08
3.68137e-09
-4.86615e-09
6.62792e-09
1.35889e-08
2.77615e-09
-4.35997e-09
4.90827e-09
-3.40042e-09
8.19534e-09
1.64744e-08
-1.73202e-08
3.77866e-09
3.381e-09
9.34032e-09
-1.4715e-08
1.14893e-08
-1.0555e-08
1.37807e-08
-2.43471e-09
-1.40245e-08
1.74418e-09
-3.91977e-10
-8.71924e-10
1.27532e-08
-1.16554e-08
-5.90887e-10
1.18543e-08
1.37195e-08
-1.81736e-08
2.01931e-09
-1.85546e-08
2.06188e-08
2.609e-10
-1.1297e-08
1.04452e-08
-1.08566e-08
1.02456e-08
9.94696e-09
-1.41927e-08
-9.77878e-09
-1.70568e-09
1.09766e-09
-1.6873e-08
2.67139e-09
-4.35307e-09
-1.53244e-08
-1.97221e-08
-7.85926e-09
-9.8549e-09
6.85753e-09
7.96271e-09
-2.2392e-08
6.56999e-09
-1.82058e-08
1.48716e-08
-7.16802e-11
-3.91792e-09
-1.13348e-08
-1.2874e-08
1.31345e-09
-5.18167e-09
-8.69006e-09
-4.33408e-09
-1.43676e-08
-1.32061e-08
-4.0349e-09
-1.02295e-08
-8.22087e-10
-1.56745e-08
1.25787e-08
-1.15022e-08
-1.57394e-08
-1.63592e-08
4.11477e-10
-3.22909e-09
-1.97607e-09
4.79368e-09
6.30074e-09
-5.48905e-09
5.55519e-10
-1.36718e-09
-9.47501e-10
2.61463e-09
3.68986e-09
-5.35695e-09
2.33163e-09
3.02166e-09
-3.50395e-09
7.61351e-10
-4.92639e-09
7.66902e-09
-2.25872e-09
1.08646e-09
-1.45504e-09
-3.62253e-09
-1.55952e-10
-1.15568e-08
2.9634e-09
8.7494e-09
-3.11652e-09
6.49253e-09
-5.26646e-09
-3.29604e-09
3.63621e-09
-5.65546e-09
-1.86969e-09
-2.08517e-09
-5.02532e-09
7.48125e-09
-9.72235e-09
9.06831e-09
-6.70422e-09
-5.48059e-09
-9.45086e-09
6.00126e-09
1.53623e-10
-9.10906e-09
7.13947e-09
8.77976e-09
-3.88931e-09
-2.2041e-09
-2.68633e-09
4.05855e-10
1.98018e-09
7.3073e-09
-9.69333e-09
1.98007e-09
7.20554e-09
5.62625e-10
-4.43657e-09
5.85414e-09
-3.66783e-09
6.21053e-09
-5.94876e-09
-3.27633e-09
5.55726e-09
-1.56524e-09
-1.3039e-09
-3.07958e-09
-9.70933e-11
2.87459e-09
-6.05382e-09
4.27942e-09
-7.92162e-09
3.54511e-09
5.49592e-09
-3.93359e-09
-6.15034e-09
4.58801e-09
5.08033e-09
-8.9963e-10
1.31521e-09
-3.19539e-09
-2.25913e-09
6.84544e-09
1.04694e-09
-5.34766e-09
-2.54471e-09
1.26327e-09
5.1726e-09
-6.32453e-09
-1.11282e-10
6.6883e-09
-1.79435e-09
-4.13116e-09
-4.83248e-10
-1.62712e-10
4.77712e-09
2.59258e-10
-7.5858e-09
-4.56763e-09
-2.69295e-09
5.32086e-09
-8.24196e-09
1.98432e-08
-3.22469e-09
-2.14083e-09
-1.44777e-08
1.65132e-09
7.99603e-09
1.01959e-08
-1.48191e-08
9.30316e-09
7.16727e-09
-3.8688e-09
-1.4175e-08
1.3525e-08
-3.42445e-09
-1.22414e-08
4.88046e-09
1.60517e-10
8.484e-09
-2.32515e-09
-4.06488e-09
1.43927e-08
-8.00268e-09
-5.6455e-09
1.26235e-08
1.12853e-08
-8.64608e-09
2.24128e-09
-2.09457e-08
-2.84289e-10
1.55845e-08
-1.39093e-08
6.16232e-10
-7.6527e-09
-4.05525e-09
1.12756e-08
-7.93036e-12
-1.77701e-08
1.13012e-08
-1.47336e-08
9.56072e-09
-6.90559e-09
-1.53483e-08
1.10088e-08
-5.17135e-09
-9.98618e-09
2.55513e-09
3.13029e-09
4.30078e-09
-2.61875e-09
-4.47808e-09
-2.88935e-09
-2.99312e-09
4.83812e-09
-8.58566e-09
6.7407e-09
3.97421e-09
-1.13879e-08
4.42061e-09
-2.63581e-09
-3.97647e-09
-2.25127e-09
8.86356e-09
-4.97408e-09
6.3125e-09
7.31932e-09
-5.35348e-09
-4.58461e-09
4.90038e-09
-6.42666e-09
5.58049e-09
-6.70461e-09
9.29147e-09
-8.48134e-09
-2.10752e-09
4.1623e-09
-8.23211e-09
-4.7273e-09
-3.61621e-09
-2.48184e-09
-2.48759e-09
-6.3166e-09
-8.68748e-09
-2.22463e-09
-7.36957e-09
2.88963e-09
5.70459e-09
-5.45093e-09
-8.4857e-09
1.37246e-09
-5.94188e-09
-3.90946e-09
-9.32008e-10
2.33893e-09
-6.76035e-09
7.41185e-10
-7.98974e-09
2.43567e-09
-8.34251e-09
-3.49524e-11
-2.74869e-09
-2.66542e-10
-4.29912e-09
-3.31154e-09
-1.32461e-09
-5.08098e-09
-5.81579e-09
6.59764e-09
9.88685e-09
-2.53899e-09
-7.8148e-09
4.66933e-10
-3.88642e-09
1.23151e-08
-4.59414e-09
-3.83455e-09
-2.32035e-09
-1.09836e-08
2.99429e-09
-5.35656e-09
1.76236e-09
2.82613e-10
-1.4782e-09
3.84e-09
-7.71837e-09
2.14203e-09
-8.70122e-09
-6.47675e-09
-6.20653e-09
8.79686e-09
4.84121e-10
5.99187e-09
-6.66385e-09
1.87836e-10
1.17847e-08
3.00025e-09
-1.0945e-08
1.0187e-08
3.36006e-09
2.28401e-09
-6.61874e-09
3.89744e-10
8.29592e-09
-6.40168e-09
1.24337e-08
-9.04371e-09
7.38786e-09
-8.47905e-09
4.75948e-10
6.15224e-10
-1.99578e-10
-1.87528e-09
-6.2284e-09
6.04526e-09
3.94944e-09
2.25585e-09
-8.75328e-09
1.08688e-08
-2.31511e-09
5.38321e-09
-1.67114e-08
1.66256e-08
-5.95666e-09
6.04242e-09
-5.37483e-09
-1.01255e-08
-1.21108e-09
5.76027e-09
1.58032e-09
9.28503e-09
9.01117e-09
-4.74123e-09
-9.64476e-09
4.58472e-09
-1.53021e-09
2.06755e-09
1.48425e-08
-1.11497e-08
-1.16052e-08
7.89709e-09
-8.35003e-10
4.54311e-09
-3.86338e-09
-5.90559e-10
-7.15127e-09
-6.61275e-09
3.74724e-09
-2.45382e-09
5.3193e-09
1.12434e-11
-1.46775e-08
8.05352e-09
-8.83873e-09
4.23523e-09
6.18381e-09
-3.32523e-09
-9.28766e-10
7.61685e-09
-4.63593e-09
-6.84428e-09
7.86061e-09
7.65334e-09
-2.60292e-09
-6.73257e-09
1.1403e-08
9.49292e-09
1.06786e-08
-7.52192e-09
3.11099e-09
4.3852e-09
-9.11519e-09
-3.57594e-09
-6.30961e-09
8.63661e-09
-2.42854e-10
-2.08414e-09
7.23527e-09
-7.30637e-09
-6.23848e-09
-8.59869e-09
-1.25931e-08
1.11826e-08
1.00092e-08
-1.43772e-08
7.46118e-09
-1.68262e-09
-7.29533e-09
-5.68241e-09
3.84691e-10
-1.12259e-08
-1.04467e-08
-6.24525e-09
9.44203e-09
5.43983e-09
7.97808e-10
1.92219e-10
-1.50633e-09
3.72382e-09
-9.52385e-09
6.04523e-09
2.04765e-09
-9.59918e-09
8.20226e-09
-2.39988e-09
6.84286e-09
2.28755e-09
-5.40659e-09
7.35064e-09
2.90034e-10
4.29693e-09
-2.28592e-09
5.45017e-09
1.39592e-09
1.40836e-08
-5.03832e-09
2.54862e-09
-3.19269e-09
-1.42166e-08
1.43318e-09
-9.89017e-09
9.83019e-09
-1.37318e-09
8.62459e-09
1.5923e-10
7.53822e-10
5.16252e-09
-5.05399e-09
-2.28937e-09
1.35155e-08
-3.03055e-09
9.36578e-09
7.16529e-09
7.20809e-09
-1.36175e-09
-2.25498e-08
1.67035e-08
1.2111e-08
5.89365e-09
-1.07966e-08
2.19327e-09
3.89092e-09
6.02686e-09
-1.14944e-08
-7.51585e-09
1.0079e-09
1.80024e-08
-1.11587e-08
4.96466e-09
-5.30038e-09
-1.69405e-08
1.0776e-08
1.35051e-09
4.81386e-09
-2.42147e-08
5.91242e-09
1.20107e-08
-2.04184e-08
-2.75102e-09
-8.75988e-09
1.32547e-08
1.50266e-08
1.32942e-09
-1.04623e-08
8.45995e-09
7.06608e-09
1.26256e-08
-1.58008e-08
1.93987e-08
-1.13247e-08
1.45699e-08
-1.83281e-08
1.45343e-08
-1.21992e-08
-6.88979e-09
4.44937e-09
5.15143e-09
-9.82668e-09
7.17482e-09
4.60395e-09
-7.3294e-09
-8.21013e-11
3.85149e-09
1.38204e-09
5.19345e-09
1.89926e-09
1.18769e-09
4.03161e-09
-6.15368e-10
4.28045e-09
-3.47755e-10
-3.31768e-09
2.14123e-09
5.45688e-09
-7.52313e-10
4.56171e-09
-1.08102e-08
6.5584e-09
3.49949e-09
4.26934e-09
4.95572e-09
2.97672e-09
-1.44711e-09
8.27534e-09
8.17576e-09
-1.76519e-09
7.80762e-09
9.03521e-09
-1.25491e-08
-4.29372e-09
-7.50877e-09
1.01756e-08
5.14076e-09
1.22098e-08
-5.42475e-09
1.57548e-09
-8.36049e-09
1.17923e-09
3.52177e-09
5.12613e-09
-3.227e-09
-7.32389e-09
7.17029e-09
2.00584e-09
-4.05e-09
6.26637e-09
2.08314e-09
-4.2998e-09
8.53115e-09
2.12258e-09
2.61284e-09
-4.11221e-09
-6.86139e-09
4.65607e-09
3.8461e-09
-1.17292e-08
1.42257e-08
-6.27301e-09
-5.94691e-09
7.74034e-09
5.85848e-09
6.26911e-10
6.50299e-09
-7.30565e-09
3.81313e-09
8.06517e-09
-7.52132e-09
1.05769e-08
-1.30038e-08
-8.80441e-09
7.57069e-09
-5.40075e-10
1.29961e-09
1.23243e-09
1.55187e-08
4.60645e-10
-7.8544e-09
-8.12496e-09
1.68366e-08
-1.18131e-08
5.04702e-09
-1.00705e-08
1.08008e-08
6.24255e-09
-2.06831e-10
9.54616e-10
-2.05324e-08
7.76466e-09
-1.33454e-08
1.3146e-08
1.10003e-08
-3.32085e-09
-4.97758e-09
9.55229e-09
-3.35748e-09
1.43369e-09
-7.62848e-09
3.97286e-09
-7.09878e-09
1.26782e-08
-1.0084e-08
1.53062e-08
1.02965e-08
1.179e-08
-2.80585e-09
-1.90681e-08
-1.04597e-08
-6.58392e-09
2.10165e-08
-7.39804e-09
1.22446e-08
8.10737e-09
5.58413e-09
-1.27369e-08
-8.14422e-09
1.29308e-08
-1.73209e-09
8.35798e-09
-1.37246e-08
-1.22601e-08
1.50457e-09
-5.45045e-09
1.06565e-08
-6.2153e-09
5.96349e-09
-2.07453e-09
2.23038e-09
6.93475e-09
-7.09059e-09
-5.37206e-09
3.53286e-09
-2.35322e-10
8.54426e-10
1.4507e-09
4.10681e-09
-6.41191e-09
-6.48594e-09
-2.13121e-09
3.2451e-09
-6.95425e-09
6.01738e-09
1.79133e-09
4.81776e-09
-8.26138e-09
-3.51063e-09
8.51554e-09
1.15371e-10
9.96587e-09
4.56706e-09
4.85959e-09
-1.24285e-09
-8.38715e-11
8.78041e-09
-4.07862e-09
1.57809e-10
-4.05504e-09
4.67039e-09
5.94926e-09
-6.5646e-09
-5.08685e-09
-2.11043e-10
-3.73242e-09
-1.92736e-08
1.3776e-08
9.23e-09
1.67207e-08
-8.72782e-09
-1.84728e-08
1.04799e-08
1.2373e-08
1.58614e-10
4.18907e-09
-8.2049e-09
-1.13436e-08
1.68811e-08
2.66747e-09
9.50605e-09
-2.14434e-08
-3.32726e-09
-3.5733e-09
-1.27016e-08
-5.01048e-09
1.43848e-08
1.06372e-08
-1.82747e-08
-5.06409e-09
-1.02148e-08
1.00891e-08
1.07629e-08
1.42235e-08
-9.53381e-09
-9.95464e-09
5.26494e-09
-1.34746e-08
-1.43326e-08
9.53262e-09
1.06645e-08
-1.57391e-08
-8.4e-09
-7.1268e-09
1.00067e-08
-1.83382e-09
2.28354e-09
-2.79985e-08
1.51702e-08
1.00225e-08
6.76346e-09
2.3592e-09
-1.78505e-08
-6.59961e-09
-2.94464e-09
-6.1949e-09
-1.41688e-08
2.93984e-09
-1.19005e-08
-6.84954e-09
6.26411e-09
-1.74667e-08
2.98807e-09
2.18425e-10
1.42602e-08
-3.36478e-09
-3.28511e-09
-1.08168e-08
1.00424e-08
-4.72278e-09
-8.68439e-09
2.89644e-09
1.0134e-08
-2.14223e-08
4.27103e-09
1.73697e-08
-7.40559e-09
-1.73018e-08
5.35247e-09
5.99996e-09
-2.03893e-09
-9.3135e-09
-1.34475e-09
1.97444e-09
4.62472e-09
3.04874e-11
-5.67792e-09
4.01312e-10
8.17305e-09
-8.8853e-09
2.89295e-09
-7.67132e-09
-3.31802e-10
-8.82195e-10
-3.85993e-09
-1.1217e-08
6.8523e-09
-5.32069e-09
5.74872e-09
-7.28031e-09
7.06146e-09
-5.40971e-10
-1.12798e-09
7.47857e-11
-6.10619e-09
9.40045e-09
-1.12196e-08
-4.73408e-09
5.68935e-09
-1.13342e-10
-9.55194e-09
-1.60406e-08
-1.95077e-09
2.75433e-08
-7.61002e-09
-1.37318e-08
1.17899e-08
7.18844e-09
8.78351e-10
-1.05493e-08
2.48262e-09
8.43592e-09
8.15202e-09
-9.39949e-09
-8.29991e-09
1.56822e-09
6.07176e-09
-1.44621e-08
-5.34155e-09
-1.23267e-08
2.35786e-09
-1.4505e-08
2.09902e-08
-1.64861e-08
1.16731e-08
-5.73632e-09
-1.40676e-08
-8.69434e-09
-6.93413e-09
-3.90034e-10
-7.18082e-09
-9.05331e-09
-1.02075e-08
-1.22044e-08
8.80104e-09
-5.66663e-09
9.07001e-09
5.45277e-10
-1.21261e-08
-6.23573e-10
6.61226e-09
-1.32914e-08
-4.75912e-09
1.14383e-08
-7.83891e-10
1.61972e-08
-1.51188e-08
6.48172e-09
2.9704e-09
-6.79394e-11
1.50729e-09
-1.56342e-08
-9.91889e-10
-1.15863e-08
9.67455e-10
5.55178e-09
1.07056e-08
8.59855e-09
-1.96924e-08
1.66457e-08
-1.04061e-08
1.82208e-08
-2.89035e-09
-7.26223e-09
-4.37977e-09
-1.41447e-08
-2.87305e-10
-7.16052e-09
-1.05681e-08
6.64367e-09
-6.99035e-09
-3.86505e-09
-9.86555e-09
7.67482e-09
-8.70502e-09
-1.97716e-09
3.00732e-09
-8.08822e-09
-1.0444e-09
3.81942e-09
5.31315e-09
-6.73332e-09
-7.88727e-09
6.53233e-09
-7.23227e-09
-7.97337e-10
1.16824e-08
-3.65283e-09
-1.29958e-09
1.74211e-09
-6.06797e-09
6.79643e-09
-6.75099e-09
6.0225e-09
-7.25012e-09
-1.1744e-10
-4.73885e-10
-7.78731e-09
-4.43867e-10
-2.65864e-09
8.65772e-09
-8.50005e-10
6.02788e-09
-5.86289e-09
6.84945e-10
-2.58181e-10
6.01058e-09
-6.60244e-09
4.06446e-09
-6.92996e-09
-4.38463e-09
-2.57891e-09
-1.07653e-10
-7.66203e-09
-6.67434e-09
2.9713e-09
-3.83979e-09
3.19331e-09
-4.08127e-10
-1.66138e-08
-4.45378e-09
7.97159e-09
4.5816e-09
-9.84968e-09
-1.13457e-08
-3.4376e-09
-2.01459e-09
-1.29344e-08
7.99364e-09
4.87034e-10
-1.03686e-09
-2.17473e-08
-2.66468e-09
-1.07886e-08
1.12184e-08
2.2349e-09
-1.38119e-08
1.07212e-08
-7.65684e-09
-3.70744e-09
6.94574e-09
4.41852e-09
6.63073e-09
-5.32959e-09
-8.95799e-09
-5.14317e-10
-2.45984e-09
-3.35836e-09
1.05404e-08
-7.07051e-09
1.98857e-09
-2.23678e-09
-1.3437e-08
1.94715e-10
8.73959e-09
8.26233e-09
1.98345e-10
-4.84887e-09
-3.61182e-09
-1.20777e-09
6.39215e-10
8.83084e-09
-7.07196e-09
-9.00712e-10
6.76487e-09
-4.26411e-09
-2.60947e-09
-6.1297e-09
-4.89734e-09
5.13532e-09
5.89171e-09
-4.74718e-09