/*--------------------------------*- C++ -*----------------------------------*\
| =========                 |                                                 |
| \\      /  F ield         | OpenFOAM: The Open Source CFD Toolbox           |
|  \\    /   O peration     | Version:  v1612+                                |
|   \\  /    A nd           | Web:      www.OpenFOAM.com                      |
|    \\/     M anipulation  |                                                 |
\*---------------------------------------------------------------------------*/
FoamFile
{
    version     2.0;
    format      ascii;
    class       volVectorField;
    location    "206";
    object      U;
}
// * * * * * * * * * * * * * * * * * * * * * * * * * * * * * * * * * * * * * //

dimensions      [0 1 -1 0 0 0 0];

internalField   nonuniform List<vector> 
19087
(
(-0.451505 0.900418 -0.199259)
(-0.274837 0.943434 0.058431)
(-0.289333 0.631015 0.0444699)
(-0.290913 0.632476 0.0132176)
(-0.295568 0.683843 0.0414068)
(-0.289297 0.654646 0.0214026)
(-0.291799 0.666838 0.0634631)
(-0.316949 0.860063 -0.00856952)
(-0.321991 0.862875 -0.0167688)
(-0.32319 0.864933 -0.0176118)
(-0.293395 0.827639 -0.0194063)
(-0.345145 0.819623 -0.0370779)
(-0.328147 0.848367 -0.0171261)
(-0.319779 0.778948 -0.0531277)
(-0.340257 0.813739 -0.0570373)
(-0.257021 0.780865 -0.037557)
(-0.267567 0.767947 -0.0397664)
(-0.246549 0.773176 -0.0443241)
(-0.294545 0.797478 -0.0459458)
(-0.312199 0.761327 -0.0644008)
(-0.351781 0.805536 -0.0528336)
(-0.305367 0.782393 -0.0574038)
(-0.307428 0.793939 -0.0606185)
(-0.281442 0.770996 -0.0454283)
(-0.306279 0.777489 -0.0442141)
(-0.268516 0.791375 -0.0410941)
(-0.343774 0.846997 -0.048348)
(-0.476181 0.771066 -0.208209)
(-0.452768 0.779518 -0.182491)
(-0.488066 0.810709 -0.234925)
(-0.451571 0.790641 -0.186992)
(-0.490327 0.814886 -0.240252)
(-0.460831 0.794645 -0.204653)
(-0.490953 0.827838 -0.260167)
(-0.397305 0.796931 -0.184141)
(-0.392026 0.799907 -0.165439)
(-0.391541 0.800292 -0.176915)
(-0.494226 0.835783 -0.272373)
(-0.446888 0.818872 -0.238249)
(-0.445728 0.838445 -0.250525)
(-0.417187 0.827797 -0.202318)
(-0.336182 0.82803 0.000249573)
(-0.341029 0.833913 -0.00404829)
(-0.354864 0.826359 -0.00328482)
(-0.347021 0.809362 -0.0182636)
(-0.340641 0.852182 0.0149611)
(-0.349141 0.876835 0.0146606)
(-0.337772 0.803745 -0.00039153)
(-0.343395 0.794206 -0.0110961)
(-0.34838 0.822719 -0.0115123)
(-0.342266 0.801895 0.0116064)
(-0.343555 0.841039 0.0203127)
(-0.353815 0.872577 0.000864449)
(-0.360515 0.860801 -0.00674077)
(-0.351543 0.864939 -0.00174407)
(-0.352077 0.885324 0.00913842)
(-0.380627 0.833564 -0.0755196)
(-0.36905 0.80389 -0.0667567)
(-0.382965 0.790394 -0.0560644)
(-0.37379 0.792848 -0.0596543)
(-0.388277 0.826217 -0.067875)
(-0.392098 0.877047 -0.0567693)
(-0.391427 0.835137 -0.0432104)
(-0.389102 0.850393 -0.048265)
(-0.383302 0.872509 -0.0334154)
(-0.381765 0.875041 -0.0231237)
(-0.374133 0.802853 -0.0478828)
(-0.370739 0.850858 -0.0686324)
(-0.374267 0.851034 -0.0627377)
(-0.373639 0.871327 -0.0476653)
(-0.386427 0.904407 -0.0282545)
(-0.381931 0.881421 -0.0438959)
(-0.375706 0.880895 -0.0393664)
(-0.382495 0.830184 -0.0336284)
(-0.362304 0.784783 -0.0434877)
(-0.367251 0.768681 -0.0535856)
(-0.386215 0.873151 -0.0435977)
(-0.410441 0.668459 -0.148017)
(-0.426468 0.68604 -0.156664)
(-0.403842 0.633506 -0.143901)
(-0.412824 0.636389 -0.148152)
(-0.360771 0.571798 -0.125914)
(-0.370781 0.581038 -0.12577)
(-0.425988 0.627702 -0.177132)
(-0.436278 0.658766 -0.18397)
(-0.399674 0.63959 -0.142436)
(-0.35249 0.563619 -0.128842)
(-0.360321 0.561112 -0.121912)
(-0.437182 0.684566 -0.175348)
(-0.442196 0.679781 -0.177432)
(-0.431107 0.670719 -0.175705)
(-0.428792 0.653652 -0.179008)
(-0.410208 0.639454 -0.160357)
(-0.41527 0.636806 -0.158566)
(-0.400899 0.599656 -0.139552)
(-0.394816 0.616571 -0.162243)
(-0.377068 0.58209 -0.161615)
(-0.376566 0.593421 -0.155156)
(-0.384382 0.583939 -0.138364)
(-0.355974 0.56827 -0.141655)
(-0.355767 0.557738 -0.143246)
(-0.483224 0.713888 -0.254508)
(-0.482861 0.70134 -0.252675)
(-0.470879 0.725654 -0.251174)
(-0.470856 0.704015 -0.285093)
(-0.443656 0.684394 -0.270575)
(-0.469514 0.673331 -0.250969)
(-0.449499 0.658084 -0.2672)
(-0.473142 0.719024 -0.277076)
(-0.428961 0.628163 -0.239368)
(-0.497039 0.675197 -0.248822)
(-0.451701 0.629567 -0.261711)
(-0.493068 0.662102 -0.260778)
(-0.440687 0.597713 -0.233885)
(-0.319845 0.707416 -0.0231426)
(-0.329064 0.710663 -0.0252368)
(-0.322937 0.72338 -0.016382)
(-0.325214 0.733856 -0.0130259)
(-0.332728 0.74553 -0.00964821)
(-0.325065 0.756725 -0.0037636)
(-0.337322 0.78486 0.00394894)
(-0.332357 0.770116 0.0049914)
(-0.221201 0.416164 0.0511855)
(-0.226761 0.430047 0.044729)
(-0.259349 0.51467 0.0246055)
(-0.257087 0.493951 0.030282)
(-0.258403 0.531886 -0.01567)
(-0.229863 0.480171 -0.000937142)
(-0.231469 0.457421 0.0128742)
(-0.259075 0.510055 -0.00283212)
(-0.267283 0.526277 0.00223684)
(-0.270458 0.522764 0.00320295)
(-0.221033 0.418853 0.0383865)
(-0.211365 0.408986 0.0261987)
(-0.245281 0.476507 0.0355042)
(-0.237024 0.497975 -0.000614907)
(-0.246359 0.518282 -0.00836511)
(-0.230104 0.452517 0.0361125)
(-0.24265 0.474437 0.0395375)
(-0.258623 0.530661 0.000452104)
(-0.232589 0.480383 0.0200122)
(-0.246717 0.496871 0.0190843)
(-0.222739 0.414534 0.0393769)
(-0.228507 0.469669 0.0160766)
(-0.451597 0.910685 -0.215168)
(-0.437062 0.903334 -0.205352)
(-0.44057 0.878749 -0.213389)
(-0.422874 0.899599 -0.218146)
(-0.43218 0.90736 -0.210838)
(-0.443815 0.885658 -0.214527)
(-0.422831 0.91427 -0.196882)
(-0.409066 0.909195 -0.193549)
(-0.436706 0.908495 -0.195418)
(-0.420523 0.834137 -0.222016)
(-0.423247 0.874063 -0.218959)
(-0.409259 0.900371 -0.202434)
(-0.430607 0.872909 -0.21576)
(-0.432748 0.863519 -0.213153)
(-0.405807 0.892998 -0.195686)
(-0.419801 0.875793 -0.217663)
(-0.358697 0.491496 -0.226534)
(-0.340796 0.473682 -0.214108)
(-0.366375 0.483691 -0.224383)
(-0.29164 0.484 -0.212458)
(-0.321647 0.510445 -0.224901)
(-0.310178 0.448079 -0.209495)
(-0.273681 0.443714 -0.195884)
(-0.292737 0.449033 -0.200224)
(-0.308867 0.449783 -0.208272)
(-0.312069 0.49173 -0.214285)
(-0.320166 0.449657 -0.217851)
(-0.315626 0.455846 -0.223663)
(-0.286949 0.506735 -0.211015)
(-0.251407 0.479904 -0.194874)
(-0.237677 0.434601 -0.188304)
(-0.299197 0.453123 -0.207363)
(-0.26329 0.465655 -0.196472)
(-0.225411 0.460538 -0.185486)
(-0.229009 0.460365 -0.187115)
(-0.444561 0.734821 -0.149037)
(-0.430538 0.760594 -0.133341)
(-0.44623 0.801651 -0.193624)
(-0.396167 0.766427 -0.12841)
(-0.438039 0.784327 -0.167678)
(-0.44167 0.842865 -0.172397)
(-0.453302 0.723112 -0.164294)
(-0.421135 0.670536 -0.127771)
(-0.436658 0.811867 -0.18303)
(-0.475765 0.862592 -0.222387)
(-0.445629 0.769621 -0.173528)
(-0.452402 0.783905 -0.186118)
(-0.456009 0.70423 -0.17923)
(-0.440596 0.699569 -0.157672)
(-0.437127 0.686926 -0.144865)
(-0.465204 0.753917 -0.192122)
(-0.476952 0.491893 -0.227509)
(-0.464801 0.481519 -0.233138)
(-0.431594 0.453881 -0.202403)
(-0.475402 0.495809 -0.238715)
(-0.483899 0.498165 -0.239999)
(-0.359445 0.41425 -0.178702)
(-0.457636 0.502503 -0.200311)
(-0.483334 0.536646 -0.196115)
(-0.421223 0.475928 -0.17222)
(-0.380008 0.438921 -0.191944)
(-0.41806 0.466157 -0.209261)
(-0.522367 0.554818 -0.249845)
(-0.47758 0.525941 -0.200751)
(-0.427037 0.483109 -0.187084)
(-0.468227 0.489691 -0.238446)
(-0.495945 0.531747 -0.234807)
(-0.322527 0.850085 -0.0540205)
(-0.331318 0.866175 -0.0478068)
(-0.313519 0.86265 -0.039902)
(-0.333845 0.875547 -0.0432366)
(-0.356106 0.882649 -0.0594284)
(-0.400614 0.889636 -0.0883209)
(-0.362512 0.884119 -0.0518239)
(-0.341907 0.881993 -0.0472442)
(-0.410736 0.887348 -0.0891606)
(-0.385415 0.885566 -0.0752751)
(-0.390371 0.84871 -0.0747591)
(-0.387447 0.817855 -0.0904299)
(-0.337154 0.862969 -0.0602684)
(-0.364181 0.890211 -0.0614903)
(-0.380666 0.897659 -0.0777941)
(-0.394626 0.867923 -0.102648)
(-0.356991 0.84361 -0.0802061)
(-0.361256 0.823109 -0.106694)
(-0.378818 0.8266 -0.105091)
(-0.393981 0.818497 -0.113623)
(-0.365324 0.836477 -0.0868601)
(-0.497055 0.889075 -0.188084)
(-0.511411 0.910881 -0.206399)
(-0.513624 0.895317 -0.193033)
(-0.491154 0.871567 -0.181826)
(-0.51871 0.897736 -0.207333)
(-0.517251 0.892351 -0.220792)
(-0.516378 0.894708 -0.225887)
(-0.511312 0.882276 -0.199854)
(-0.490841 0.858591 -0.187161)
(-0.517558 0.907297 -0.225082)
(-0.504043 0.873905 -0.220135)
(-0.482413 0.846928 -0.202961)
(-0.520609 0.895364 -0.228898)
(-0.5077 0.879898 -0.237274)
(-0.517013 0.88987 -0.233421)
(-0.505686 0.904748 -0.215571)
(-0.496078 0.873806 -0.216686)
(-0.499944 0.885771 -0.22428)
(-0.505586 0.889221 -0.241422)
(-0.556956 0.823154 -0.385418)
(-0.542248 0.812234 -0.394099)
(-0.55421 0.809802 -0.38056)
(-0.518367 0.772769 -0.376316)
(-0.523113 0.71897 -0.362461)
(-0.520149 0.749143 -0.385659)
(-0.51736 0.727376 -0.35539)
(-0.517412 0.766437 -0.395656)
(-0.312411 0.899161 0.0402583)
(-0.319004 0.908577 0.0265163)
(-0.244194 0.852605 0.0848393)
(-0.264684 0.879656 0.0644542)
(-0.31535 0.909866 0.0145119)
(-0.252921 0.880823 0.0638183)
(-0.221489 0.829335 0.0909715)
(-0.245721 0.813233 0.0952646)
(-0.267255 0.815412 0.08058)
(-0.30975 0.864148 0.0385923)
(-0.270193 0.843175 0.0814658)
(-0.276487 0.888979 0.0357191)
(-0.243131 0.837062 0.0798883)
(-0.222204 0.810929 0.108286)
(-0.272799 0.897824 0.0358393)
(-0.306405 0.85974 0.0304929)
(-0.235298 0.845265 0.0817733)
(-0.401434 0.981168 0.00163947)
(-0.388567 0.981256 0.012576)
(-0.384887 0.961839 0.0168824)
(-0.381574 0.948927 0.021256)
(-0.37564 0.927308 0.025734)
(-0.374139 0.955088 0.017605)
(-0.385642 0.988284 0.016752)
(-0.414083 0.989761 0.0138102)
(-0.398571 0.983232 0.0133089)
(-0.383258 0.92233 0.0163024)
(-0.398674 0.973428 0.0276658)
(-0.393017 0.979656 0.0305443)
(-0.391148 0.983082 0.0246257)
(-0.36725 0.925986 0.0416799)
(-0.37349 0.937247 0.040243)
(-0.369288 0.893409 0.0302304)
(-0.374568 0.915923 0.0472437)
(-0.367318 0.881651 0.0504563)
(-0.377492 0.941826 0.0425625)
(-0.377699 0.929861 0.0419792)
(-0.385236 0.922666 0.0334286)
(-0.39917 0.978613 0.015139)
(-0.399221 0.985575 0.0205658)
(-0.369434 0.945992 -0.0400506)
(-0.370848 0.944654 -0.0312133)
(-0.360865 0.957477 -0.0168005)
(-0.362769 0.928696 -0.0503787)
(-0.369184 0.918849 -0.0511254)
(-0.357919 0.937144 -0.0419071)
(-0.370236 0.913937 -0.0544585)
(-0.371257 0.88391 -0.0525505)
(-0.360773 0.908502 -0.0347373)
(-0.355433 0.873939 -0.0468405)
(-0.355557 0.941481 -0.0480328)
(-0.344717 0.937076 -0.0328952)
(-0.361026 0.911498 -0.0464589)
(-0.350843 0.92313 -0.0395713)
(-0.349062 0.918814 -0.0268519)
(-0.339068 0.94867 -0.00780412)
(-0.348666 0.942735 -0.0246751)
(-0.341019 0.941589 -0.0256951)
(-0.340978 0.943113 -0.030456)
(-0.336045 0.948778 -0.0118476)
(-0.415867 0.934584 -0.121106)
(-0.416671 0.921781 -0.123238)
(-0.415179 0.934935 -0.136239)
(-0.4095 0.936468 -0.122923)
(-0.413538 0.912379 -0.13653)
(-0.411873 0.916818 -0.141473)
(-0.39605 0.909891 -0.134345)
(-0.3822 0.911771 -0.118978)
(-0.409964 0.926599 -0.120191)
(-0.414411 0.920194 -0.12074)
(-0.402251 0.923816 -0.122164)
(-0.391478 0.919849 -0.118543)
(-0.384005 0.935779 -0.112669)
(-0.393857 0.931302 -0.115122)
(-0.22225 0.749279 0.000488283)
(-0.196899 0.726443 -0.00012117)
(-0.264076 0.78648 -0.0222338)
(-0.200518 0.714115 0.00202821)
(-0.165678 0.642882 0.0144577)
(-0.317209 0.885926 0.0176687)
(-0.325324 0.902441 0.0151657)
(-0.262994 0.830925 -0.00672032)
(-0.231622 0.800803 0.00959107)
(-0.212669 0.778894 0.0218483)
(-0.220086 0.79958 0.0319009)
(-0.195623 0.746464 0.0367144)
(-0.271794 0.864014 0.0458509)
(-0.25326 0.844827 0.0437976)
(-0.294312 0.874012 0.0169183)
(-0.301458 0.859123 0.00787912)
(-0.227603 0.792506 0.0396637)
(-0.164296 0.675229 0.0293829)
(-0.269627 0.824034 -0.00105917)
(-0.223365 0.75535 0.0109511)
(-0.187826 0.725406 0.0302045)
(-0.384776 0.91727 0.0404049)
(-0.38893 0.931756 0.036469)
(-0.408327 0.97968 0.0140102)
(-0.396981 0.935416 0.0275155)
(-0.366651 0.860198 0.0400056)
(-0.402427 0.976467 0.00293695)
(-0.398336 0.971125 0.0111016)
(-0.404199 0.97073 -0.00464701)
(-0.405317 0.972569 -0.00868323)
(-0.41557 0.987865 0.0170002)
(-0.410762 0.972775 0.0396854)
(-0.396964 0.932538 0.0345321)
(-0.383842 0.908272 0.0361537)
(-0.414641 0.978844 -0.00623774)
(-0.400524 0.97122 -0.00151641)
(-0.408018 0.956031 0.0258041)
(-0.393514 0.907657 0.0274225)
(-0.410841 0.982241 0.00612164)
(-0.413486 0.980622 0.00665957)
(-0.381059 0.965983 0.0430846)
(-0.368567 0.934815 0.0325702)
(-0.366012 0.887057 0.0209011)
(-0.374227 0.926989 0.0237101)
(-0.36636 0.932106 0.0430643)
(-0.370956 0.91179 0.0177925)
(-0.364582 0.87525 0.0189265)
(-0.368393 0.930669 0.027065)
(-0.375329 0.93012 0.0235512)
(-0.364716 0.896854 0.0351083)
(-0.197839 0.703251 -0.0234082)
(-0.197997 0.726649 -0.0213308)
(-0.198007 0.673685 -0.0273375)
(-0.169126 0.639043 -0.00929172)
(-0.232207 0.728015 -0.0424883)
(-0.21439 0.689518 -0.0497628)
(-0.189767 0.685497 -0.029689)
(-0.18751 0.699112 -0.0298916)
(-0.229828 0.77961 -0.0313146)
(-0.208417 0.69422 -0.0312206)
(-0.227314 0.764902 -0.0345393)
(-0.391312 0.90031 -0.0890199)
(-0.390433 0.848881 -0.0899439)
(-0.403575 0.919251 -0.090804)
(-0.404446 0.904775 -0.0957304)
(-0.399886 0.914975 -0.0872334)
(-0.401714 0.863602 -0.0883248)
(-0.395 0.915904 -0.0844602)
(-0.388701 0.893944 -0.0807752)
(-0.390812 0.859685 -0.0813859)
(-0.398953 0.931717 -0.0830751)
(-0.402145 0.861366 -0.0941382)
(-0.401903 0.931695 -0.0787303)
(-0.39589 0.859781 -0.0773984)
(-0.407331 0.903187 -0.0752208)
(-0.394074 0.91337 -0.0683972)
(-0.401544 0.88492 -0.0706026)
(-0.412499 0.948951 -0.080887)
(-0.41835 0.961337 -0.0712117)
(-0.418008 0.936185 -0.0862377)
(-0.415767 0.94143 -0.0774371)
(-0.402927 0.91129 -0.0901658)
(-0.416982 0.960682 -0.0686516)
(-0.419475 0.707475 -0.171608)
(-0.417143 0.719776 -0.151563)
(-0.411211 0.643549 -0.162909)
(-0.413621 0.679393 -0.139099)
(-0.42048 0.712281 -0.169514)
(-0.4101 0.724223 -0.156729)
(-0.411474 0.767931 -0.155351)
(-0.408138 0.679248 -0.166257)
(-0.414859 0.69211 -0.141214)
(-0.406082 0.675309 -0.141518)
(-0.397459 0.731561 -0.139002)
(-0.405714 0.698378 -0.131689)
(-0.413349 0.736454 -0.142907)
(-0.414387 0.720003 -0.138399)
(-0.415084 0.720914 -0.169458)
(-0.414814 0.677946 -0.167324)
(-0.414017 0.700771 -0.15796)
(-0.494247 0.792386 -0.381599)
(-0.491387 0.794429 -0.34857)
(-0.518107 0.789182 -0.333809)
(-0.501671 0.811199 -0.341279)
(-0.482731 0.812689 -0.342096)
(-0.483216 0.82436 -0.354194)
(-0.48744 0.767874 -0.369111)
(-0.48512 0.780359 -0.362127)
(-0.496149 0.783496 -0.358107)
(-0.488966 0.801447 -0.344475)
(-0.49837 0.765253 -0.347283)
(-0.484584 0.82772 -0.339864)
(-0.487663 0.803117 -0.34008)
(-0.488041 0.771714 -0.341971)
(-0.499943 0.822739 -0.325263)
(-0.47679 0.834669 -0.337448)
(-0.477358 0.845352 -0.329989)
(-0.363925 0.952688 0.0398987)
(-0.371853 0.969065 0.0333686)
(-0.36533 0.969439 0.0450706)
(-0.366054 0.964474 0.0461993)
(-0.364878 0.924511 0.0308533)
(-0.360425 0.956452 0.0518417)
(-0.379589 0.991947 0.0456202)
(-0.373275 0.979795 0.0543901)
(-0.382436 1.0096 0.0558297)
(-0.365205 0.934068 0.035997)
(-0.568828 0.654081 -0.279606)
(-0.546842 0.63736 -0.245446)
(-0.548141 0.617988 -0.237767)
(-0.525502 0.606164 -0.199643)
(-0.534848 0.587224 -0.201435)
(-0.502476 0.547563 -0.193575)
(-0.52218 0.60434 -0.19259)
(-0.469777 0.904563 -0.183096)
(-0.478054 0.924364 -0.185207)
(-0.470079 0.900407 -0.167258)
(-0.45835 0.901993 -0.158257)
(-0.47238 0.917998 -0.177497)
(-0.469217 0.888471 -0.18092)
(-0.476911 0.902009 -0.182434)
(-0.470919 0.905455 -0.149736)
(-0.484115 0.928569 -0.156193)
(-0.47916 0.920735 -0.140463)
(-0.472203 0.93423 -0.126045)
(-0.483005 0.922387 -0.167322)
(-0.454348 0.881251 -0.160024)
(-0.475803 0.922909 -0.148681)
(-0.465448 0.931643 -0.142812)
(-0.47862 0.925684 -0.163368)
(-0.443758 0.939729 -0.107103)
(-0.437371 0.931001 -0.0761401)
(-0.417209 0.918576 -0.102149)
(-0.432619 0.944616 -0.105366)
(-0.435267 0.957261 -0.0905993)
(-0.437352 0.940391 -0.0877483)
(-0.43393 0.912892 -0.107434)
(-0.434387 0.932268 -0.0885439)
(-0.419125 0.917593 -0.0976614)
(-0.425996 0.938846 -0.0873451)
(-0.435167 0.94374 -0.0816366)
(-0.431565 0.928559 -0.0959031)
(-0.431167 0.923949 -0.0876422)
(-0.432783 0.941824 -0.0842037)
(-0.432438 0.956928 -0.0707193)
(-0.411281 0.898023 -0.0822642)
(-0.411108 0.877255 -0.0952998)
(-0.418186 0.9166 -0.0730864)
(-0.427472 0.947073 -0.0692069)
(-0.310874 0.747921 -0.115376)
(-0.325178 0.791352 -0.101072)
(-0.344387 0.747595 -0.117432)
(-0.326961 0.839629 -0.0826932)
(-0.323291 0.719712 -0.108246)
(-0.3032 0.788339 -0.0934787)
(-0.319228 0.764275 -0.106986)
(-0.36448 0.72075 -0.120622)
(-0.36273 0.846692 -0.079404)
(-0.343087 0.707063 -0.115001)
(-0.330213 0.782294 -0.0893821)
(-0.385589 0.785317 -0.0941798)
(-0.381341 0.765265 -0.0927776)
(-0.356739 0.82833 -0.0740453)
(-0.367219 0.857196 -0.0764399)
(-0.521596 0.608487 -0.278034)
(-0.371893 0.423418 -0.240328)
(-0.509568 0.624711 -0.274949)
(-0.597165 0.824038 -0.307334)
(-0.519118 0.664872 -0.282997)
(-0.453934 0.552165 -0.239044)
(-0.505324 0.597977 -0.244498)
(-0.4565 0.576807 -0.252367)
(-0.434093 0.553737 -0.229165)
(-0.509962 0.656706 -0.250346)
(-0.49136 0.673647 -0.248445)
(-0.473865 0.568343 -0.231541)
(-0.453994 0.564398 -0.221982)
(-0.494455 0.644634 -0.235576)
(-0.468168 0.571445 -0.222325)
(-0.56268 0.831471 -0.351761)
(-0.540356 0.841433 -0.379615)
(-0.530128 0.828149 -0.365404)
(-0.550758 0.825513 -0.360805)
(-0.409403 0.828066 -0.117939)
(-0.399441 0.844802 -0.0999205)
(-0.407201 0.868809 -0.107396)
(-0.406851 0.854459 -0.114508)
(-0.408307 0.814533 -0.114161)
(-0.405698 0.841689 -0.104376)
(-0.398031 0.869632 -0.103402)
(-0.391397 0.865103 -0.103926)
(-0.401448 0.847719 -0.0873274)
(-0.395464 0.837402 -0.0942396)
(-0.404785 0.84288 -0.0831877)
(-0.439838 0.776948 -0.240892)
(-0.444456 0.756581 -0.235578)
(-0.45262 0.789165 -0.230996)
(-0.434538 0.737687 -0.222988)
(-0.434725 0.715789 -0.243038)
(-0.44181 0.705646 -0.241654)
(-0.45488 0.771113 -0.214789)
(-0.446052 0.779532 -0.221094)
(-0.455446 0.76881 -0.251879)
(-0.452712 0.803004 -0.236052)
(-0.444753 0.713299 -0.238333)
(-0.447773 0.708568 -0.261072)
(-0.464431 0.809996 -0.230041)
(-0.474039 0.805882 -0.239431)
(-0.440886 0.752522 -0.217393)
(-0.445229 0.725992 -0.235314)
(-0.455726 0.790166 -0.235025)
(-0.42811 0.694023 -0.213088)
(-0.474774 0.798092 -0.241946)
(-0.441915 0.740028 -0.235174)
(-0.43638 0.692625 -0.238875)
(-0.460264 0.791247 -0.259091)
(-0.432 0.72482 -0.256758)
(-0.26267 0.379479 -0.0919976)
(-0.25473 0.392569 -0.103381)
(-0.280447 0.400468 -0.0937937)
(-0.26894 0.396834 -0.103959)
(-0.305323 0.453726 -0.127739)
(-0.280994 0.418603 -0.121485)
(-0.274067 0.403239 -0.118752)
(-0.362789 0.486862 -0.129357)
(-0.320412 0.459517 -0.115759)
(-0.352974 0.49789 -0.159326)
(-0.310993 0.453808 -0.147837)
(-0.329788 0.456698 -0.147385)
(-0.372252 0.491549 -0.154697)
(-0.369045 0.511328 -0.133723)
(-0.394641 0.51397 -0.172297)
(-0.393572 0.512447 -0.175629)
(-0.276166 0.545407 -0.0911833)
(-0.290734 0.55442 -0.0908231)
(-0.276493 0.553511 -0.0923227)
(-0.259964 0.50349 -0.0573087)
(-0.246858 0.501539 -0.0586704)
(-0.213321 0.438701 -0.0542123)
(-0.223276 0.46418 -0.0626271)
(-0.209907 0.410541 -0.0390813)
(-0.216685 0.435599 -0.0438239)
(-0.228615 0.44241 -0.0604511)
(-0.21723 0.422585 -0.0508222)
(-0.257439 0.519519 -0.0918959)
(-0.267294 0.499275 -0.0600521)
(-0.272881 0.477627 -0.0572978)
(-0.249744 0.476216 -0.0498436)
(-0.224008 0.430597 -0.0428617)
(-0.259395 0.507718 -0.0921403)
(-0.264162 0.529405 -0.0992891)
(-0.254525 0.477936 -0.0692234)
(-0.263218 0.478664 -0.0571296)
(-0.244336 0.480805 -0.0667768)
(-0.428446 0.886548 -0.0915738)
(-0.423706 0.863349 -0.0849232)
(-0.422511 0.833503 -0.100047)
(-0.422624 0.818639 -0.104493)
(-0.446443 0.932084 -0.0873823)
(-0.441162 0.953411 -0.0719008)
(-0.438205 0.922741 -0.0724833)
(-0.427228 0.846307 -0.0892085)
(-0.449704 0.934722 -0.0816374)
(-0.427121 0.888281 -0.103003)
(-0.425846 0.837913 -0.110262)
(-0.451542 0.944012 -0.0830297)
(-0.434831 0.872638 -0.11058)
(-0.452442 0.915241 -0.1048)
(-0.454519 0.922779 -0.0992129)
(-0.447752 0.930916 -0.0936375)
(-0.464895 0.948791 -0.0974145)
(-0.242744 0.493144 0.0796558)
(-0.240507 0.479245 0.0771162)
(-0.31107 0.636537 0.0205749)
(-0.291097 0.601095 0.00296722)
(-0.272466 0.553913 0.0697214)
(-0.27562 0.562888 0.037059)
(-0.272769 0.534127 0.0359919)
(-0.270175 0.519125 0.0533)
(-0.25195 0.503322 0.100561)
(-0.293545 0.628366 0.0549353)
(-0.254689 0.526125 0.102398)
(-0.241175 0.50311 0.0996158)
(-0.316053 0.66166 0.0273176)
(-0.295057 0.592861 0.00203873)
(-0.28648 0.617986 0.0755329)
(-0.2669 0.554827 0.0912212)
(-0.266476 0.551153 0.0998561)
(-0.299025 0.647192 0.051275)
(-0.288868 0.557618 0.0330421)
(-0.297523 0.585511 0.0243501)
(-0.290914 0.592364 0.0577448)
(-0.277372 0.567971 0.0588106)
(-0.299104 0.941611 0.0515308)
(-0.28385 0.937378 0.0505101)
(-0.238716 0.877864 0.0948073)
(-0.253992 0.894163 0.0836863)
(-0.244513 0.895042 0.0999677)
(-0.320758 0.940839 0.0450516)
(-0.31921 0.949366 0.0195278)
(-0.304597 0.942334 0.0352699)
(-0.305426 0.917612 0.057646)
(-0.258665 0.923595 0.083623)
(-0.329473 0.948536 0.0199854)
(-0.327822 0.947303 0.0377852)
(-0.315264 0.935858 0.0369878)
(-0.327736 0.899365 0.0187561)
(-0.335975 0.923736 0.0157005)
(-0.329881 0.914549 0.028011)
(-0.31239 0.925226 0.0463871)
(-0.325851 0.917948 0.0247047)
(-0.334363 0.916453 0.0245387)
(-0.307237 0.940671 0.0539283)
(-0.338331 0.951566 0.0308642)
(-0.310278 0.594214 -0.0423063)
(-0.323336 0.618696 -0.0516645)
(-0.299265 0.573965 -0.0347527)
(-0.291351 0.534219 -0.0446392)
(-0.280526 0.520154 -0.0266902)
(-0.321564 0.620124 -0.0592004)
(-0.251864 0.532717 -0.046466)
(-0.247033 0.500415 -0.0485257)
(-0.305146 0.575998 -0.0819453)
(-0.308041 0.582406 -0.0852431)
(-0.281498 0.532919 -0.0320777)
(-0.267789 0.499352 -0.0284195)
(-0.258978 0.496076 -0.0362952)
(-0.25116 0.510545 -0.0451529)
(-0.279593 0.572277 -0.0534702)
(-0.263692 0.522459 -0.0362678)
(-0.286205 0.588968 -0.0718176)
(-0.280339 0.594359 -0.0733927)
(-0.281476 0.534016 -0.0640743)
(-0.278913 0.529484 -0.0478928)
(-0.460455 0.910381 -0.112051)
(-0.471515 0.907709 -0.11888)
(-0.488275 0.890301 -0.165709)
(-0.476301 0.86549 -0.170364)
(-0.481978 0.918644 -0.174847)
(-0.485043 0.877404 -0.177643)
(-0.457899 0.906693 -0.0981282)
(-0.445333 0.890173 -0.0901242)
(-0.47929 0.916366 -0.131237)
(-0.481688 0.898413 -0.150803)
(-0.479249 0.892904 -0.13432)
(-0.463768 0.885676 -0.107946)
(-0.446253 0.882973 -0.100209)
(-0.46587 0.884566 -0.138293)
(-0.46955 0.890849 -0.144036)
(-0.489657 0.914076 -0.168501)
(-0.495098 0.89788 -0.167861)
(-0.482692 0.921979 -0.12354)
(-0.443506 0.877237 -0.0983488)
(-0.468023 0.917126 -0.132121)
(-0.478961 0.913422 -0.142938)
(-0.473195 0.911863 -0.116723)
(-0.456014 0.902111 -0.100367)
(-0.459904 0.925688 -0.106295)
(-0.366322 0.700778 -0.0755385)
(-0.360716 0.723239 -0.0665539)
(-0.361209 0.725941 -0.049958)
(-0.36911 0.758726 -0.0384584)
(-0.355904 0.745175 -0.0450237)
(-0.366117 0.705915 -0.0652975)
(-0.374052 0.704701 -0.0836662)
(-0.378066 0.78318 -0.0464177)
(-0.379731 0.78066 -0.0361367)
(-0.375528 0.780217 -0.046922)
(-0.372011 0.760163 -0.0388854)
(-0.364892 0.716667 -0.0555345)
(-0.365334 0.738025 -0.0486203)
(-0.359155 0.71814 -0.0665305)
(-0.374788 0.760234 -0.0555606)
(-0.225745 0.676283 -0.0566222)
(-0.192799 0.61895 -0.047174)
(-0.21664 0.66344 -0.0570066)
(-0.208742 0.654155 -0.0488849)
(-0.163673 0.531446 -0.0273349)
(-0.157797 0.565873 -0.0165453)
(-0.18161 0.649717 -0.0181933)
(-0.212061 0.717619 -0.0324457)
(-0.262332 0.761 -0.041267)
(-0.194869 0.603458 -0.0403112)
(-0.271174 0.773846 -0.0382366)
(-0.254472 0.703778 -0.0506997)
(-0.211257 0.661806 -0.0298403)
(-0.370355 0.879681 -0.0687447)
(-0.365331 0.868665 -0.0753294)
(-0.353278 0.846842 -0.0892002)
(-0.356095 0.843883 -0.0897849)
(-0.396765 0.827728 -0.122962)
(-0.366985 0.798364 -0.127473)
(-0.365704 0.827819 -0.113305)
(-0.378302 0.893278 -0.0734321)
(-0.356173 0.886643 -0.0714695)
(-0.380024 0.87297 -0.0889609)
(-0.417767 0.829968 -0.132947)
(-0.386042 0.786705 -0.1305)
(-0.375333 0.777469 -0.120803)
(-0.3849 0.804909 -0.123623)
(-0.40927 0.87532 -0.0974517)
(-0.42105 0.863077 -0.125839)
(-0.410871 0.796127 -0.130537)
(-0.401416 0.799386 -0.118038)
(-0.426479 0.854639 -0.12245)
(-0.415899 0.801968 -0.127172)
(-0.47654 0.751087 -0.324236)
(-0.479581 0.807873 -0.338546)
(-0.480909 0.789755 -0.336518)
(-0.489417 0.779577 -0.342574)
(-0.474548 0.821076 -0.331187)
(-0.46115 0.856806 -0.318966)
(-0.469533 0.829029 -0.324557)
(-0.479864 0.838187 -0.322651)
(-0.46169 0.72317 -0.314729)
(-0.460827 0.710814 -0.313811)
(-0.468792 0.782745 -0.316507)
(-0.471594 0.766709 -0.318665)
(-0.481079 0.805151 -0.348867)
(-0.476608 0.810949 -0.333985)
(-0.475272 0.848026 -0.32707)
(-0.481587 0.808219 -0.330329)
(-0.462658 0.76687 -0.316501)
(-0.480514 0.78492 -0.342558)
(-0.469133 0.840165 -0.324484)
(-0.409711 0.903686 -0.0481514)
(-0.397189 0.894713 -0.0427074)
(-0.429688 0.928971 -0.0810001)
(-0.408655 0.898063 -0.0645862)
(-0.432694 0.911021 -0.0855666)
(-0.427761 0.879598 -0.0991583)
(-0.39451 0.873324 -0.0726774)
(-0.422821 0.889804 -0.0840842)
(-0.340489 0.83733 -0.00702019)
(-0.390052 0.898087 -0.0360204)
(-0.3565 0.883364 -0.0382485)
(-0.340452 0.847131 -0.0241522)
(-0.493617 0.761236 -0.27126)
(-0.518883 0.739732 -0.2848)
(-0.522825 0.73993 -0.299614)
(-0.470301 0.731463 -0.288149)
(-0.476039 0.724473 -0.286272)
(-0.509655 0.769368 -0.261631)
(-0.485185 0.815733 -0.267847)
(-0.484887 0.804494 -0.292614)
(-0.468543 0.799807 -0.284144)
(-0.461641 0.717212 -0.3052)
(-0.491633 0.804781 -0.294272)
(-0.476348 0.809901 -0.286157)
(-0.472349 0.719815 -0.30498)
(-0.469072 0.79515 -0.286525)
(-0.46712 0.714345 -0.303056)
(-0.513137 0.745979 -0.302863)
(-0.491562 0.753492 -0.297665)
(-0.510325 0.773555 -0.285798)
(-0.478958 0.735969 -0.303843)
(-0.478943 0.73498 -0.327643)
(-0.454627 0.896865 -0.226487)
(-0.46425 0.898767 -0.228257)
(-0.443862 0.895817 -0.218359)
(-0.442539 0.894316 -0.206016)
(-0.45581 0.893818 -0.230079)
(-0.45249 0.877162 -0.232949)
(-0.416069 0.87464 -0.235344)
(-0.427105 0.876186 -0.215583)
(-0.423975 0.874297 -0.216846)
(-0.407798 0.871231 -0.209795)
(-0.448194 0.904279 -0.223993)
(-0.440131 0.90098 -0.229494)
(-0.453313 0.90217 -0.237682)
(-0.406574 0.869405 -0.22666)
(-0.408897 0.889312 -0.217547)
(-0.386878 0.833496 -0.211062)
(-0.407166 0.876996 -0.207871)
(-0.432875 0.891038 -0.233087)
(-0.393627 0.87072 -0.212631)
(-0.368361 0.828702 -0.205644)
(-0.409243 0.832227 -0.170399)
(-0.418269 0.821625 -0.177139)
(-0.391389 0.884633 -0.151941)
(-0.394176 0.907633 -0.16094)
(-0.410072 0.8558 -0.174761)
(-0.4282 0.786488 -0.177096)
(-0.411265 0.82329 -0.188202)
(-0.394868 0.886215 -0.156308)
(-0.405148 0.883948 -0.179511)
(-0.426976 0.824567 -0.187978)
(-0.396364 0.873925 -0.165454)
(-0.402782 0.843917 -0.191514)
(-0.474049 0.862308 -0.317855)
(-0.466805 0.859287 -0.306253)
(-0.470536 0.847224 -0.310614)
(-0.460264 0.838583 -0.299694)
(-0.487824 0.863471 -0.331393)
(-0.465562 0.857071 -0.31653)
(-0.478513 0.839785 -0.331282)
(-0.482541 0.853683 -0.327056)
(-0.465989 0.791994 -0.30253)
(-0.459626 0.765197 -0.300344)
(-0.462035 0.801355 -0.296843)
(-0.473483 0.863519 -0.326221)
(-0.497616 0.848717 -0.337089)
(-0.467294 0.7549 -0.308738)
(-0.477286 0.81151 -0.311087)
(-0.46819 0.764341 -0.305251)
(-0.496454 0.82445 -0.329824)
(-0.366023 0.694805 -0.203125)
(-0.300671 0.627885 -0.202758)
(-0.322139 0.618897 -0.216118)
(-0.336284 0.701007 -0.183841)
(-0.352477 0.719051 -0.185327)
(-0.267614 0.691889 -0.150023)
(-0.299478 0.732311 -0.166408)
(-0.334191 0.681139 -0.204192)
(-0.275203 0.689199 -0.16209)
(-0.265825 0.630918 -0.184072)
(-0.251927 0.642446 -0.172084)
(-0.282306 0.697665 -0.161099)
(-0.226035 0.616752 -0.139612)
(-0.299911 0.695791 -0.176396)
(-0.247925 0.649193 -0.176179)
(-0.255643 0.642951 -0.169192)
(-0.225055 0.615058 -0.155753)
(-0.504142 0.820391 -0.268346)
(-0.488728 0.801019 -0.240248)
(-0.434992 0.811354 -0.223552)
(-0.501397 0.813357 -0.278091)
(-0.499839 0.810028 -0.284626)
(-0.478591 0.826449 -0.29104)
(-0.49743 0.808704 -0.276475)
(-0.453434 0.845804 -0.280625)
(-0.477357 0.842 -0.2908)
(-0.448396 0.857429 -0.283332)
(-0.497292 0.803682 -0.293284)
(-0.487901 0.824731 -0.307302)
(-0.473374 0.823128 -0.314578)
(-0.481024 0.831216 -0.292334)
(-0.462682 0.852145 -0.285184)
(-0.296673 0.498369 -0.173472)
(-0.286433 0.498271 -0.165299)
(-0.206725 0.433031 -0.142628)
(-0.212607 0.430469 -0.150189)
(-0.27885 0.509615 -0.181616)
(-0.293421 0.498869 -0.181162)
(-0.261283 0.516724 -0.178806)
(-0.250442 0.517445 -0.176525)
(-0.193966 0.434764 -0.146812)
(-0.183168 0.425443 -0.13724)
(-0.259859 0.500361 -0.162446)
(-0.194857 0.445356 -0.141071)
(-0.221852 0.493301 -0.163086)
(-0.255248 0.483802 -0.164181)
(-0.224785 0.504738 -0.165831)
(-0.210221 0.488309 -0.159179)
(-0.207392 0.446238 -0.147981)
(-0.194465 0.440297 -0.146148)
(-0.212291 0.486281 -0.151653)
(-0.218529 0.4638 -0.158367)
(-0.20841 0.483898 -0.153297)
(-0.187556 0.446903 -0.137528)
(-0.546256 0.857558 -0.248049)
(-0.543468 0.863497 -0.251665)
(-0.548258 0.849901 -0.289574)
(-0.543038 0.862777 -0.244466)
(-0.539425 0.873259 -0.268849)
(-0.536381 0.866605 -0.265092)
(-0.543251 0.856751 -0.30073)
(-0.555819 0.864332 -0.295643)
(-0.554203 0.842604 -0.305906)
(-0.538978 0.864306 -0.291289)
(-0.536194 0.864206 -0.275202)
(-0.520315 0.847132 -0.260187)
(-0.540034 0.853828 -0.266798)
(-0.554817 0.858112 -0.280478)
(-0.537114 0.855821 -0.271241)
(-0.538665 0.845878 -0.307968)
(-0.549618 0.862538 -0.286788)
(-0.550774 0.858871 -0.285035)
(-0.5391 0.866148 -0.29011)
(-0.293669 0.475201 -0.00806316)
(-0.280823 0.459326 0.00132204)
(-0.286142 0.464104 -0.000982189)
(-0.261387 0.434981 0.0249095)
(-0.327483 0.530671 -0.0389683)
(-0.271038 0.459188 0.0235882)
(-0.284275 0.521679 0.029375)