/*--------------------------------*- C++ -*----------------------------------*\
| =========                 |                                                 |
| \\      /  F ield         | OpenFOAM: The Open Source CFD Toolbox           |
|  \\    /   O peration     | Version:  v1612+                                |
|   \\  /    A nd           | Web:      www.OpenFOAM.com                      |
|    \\/     M anipulation  |                                                 |
\*---------------------------------------------------------------------------*/
FoamFile
{
    version     2.0;
    format      ascii;
    class       volVectorField;
    location    "206";
    object      wallShearStress;
}
// * * * * * * * * * * * * * * * * * * * * * * * * * * * * * * * * * * * * * //

dimensions      [0 2 -2 0 0 0 0];

internalField   uniform (0 0 0);

boundaryField
{
    WALL
    {
        type            calculated;
        value           nonuniform List<vector> 
1697
(
(0.0127253 -0.022458 -0.00110659)
(0.0125944 -0.0217409 -0.00114055)
(0.00656375 -0.0102323 -0.00136467)
(0.00623638 -0.00930423 -0.000282128)
(0.000613815 -0.0227127 -0.00507728)
(0.000472214 -0.0236185 -0.00705956)
(0.0118723 -0.0228962 -0.00188186)
(0.0113503 -0.0218752 -0.00324836)
(0.00280691 -0.0226237 0.000556207)
(0.00490482 -0.0214375 0.00153774)
(0.00191272 -0.0209709 0.00513566)
(0.00343425 -0.0254954 0.00525491)
(0.0154745 -0.0223185 0.00429193)
(0.015614 -0.0226934 0.00520305)
(0.00159584 -0.0214112 -0.0056163)
(0.00128923 -0.0221337 -0.00484151)
(0.00104254 -0.0232228 0.00292832)
(0.0016611 -0.0239087 0.00254158)
(0.00824994 -0.0261296 -0.00354102)
(0.00928942 -0.0252444 -0.00441419)
(0.0129573 -0.0236203 -0.00369259)
(0.0130999 -0.0240569 -0.00329081)
(0.00568474 -0.0100018 0.00422567)
(0.00532424 -0.00964327 0.00387278)
(0.00706223 -0.00956081 0.00250651)
(0.00631659 -0.00902322 0.00353821)
(0.00527575 -0.00915631 -0.000874844)
(0.00502041 -0.00994458 -0.000229564)
(0.00533215 -0.0232208 -0.000584798)
(0.00364401 -0.0206249 -0.00100362)
(0.000327987 -0.0203867 -0.00219255)
(0.000863995 -0.0258168 -0.00411744)
(0.00609215 -0.00948498 0.00148923)
(0.00567983 -0.00896426 0.00102892)
(0.012755 -0.0212101 0.00315538)
(0.0132576 -0.0215379 0.00368546)
(-0.000124018 -0.023114 -0.00406469)
(0.000973622 -0.0240811 -0.00303019)
(0.00888701 -0.020636 0.00116606)
(0.00980559 -0.0208415 1.12359e-06)
(0.0100856 -0.020895 0.00107211)
(0.00782934 -0.0201618 0.00161372)
(0.00748875 -0.0212152 0.00226261)
(0.00840453 -0.021415 0.00243543)
(0.00962098 -0.0221006 0.00182875)
(0.00991155 -0.020741 0.000867583)
(0.00166046 -0.0220259 -0.00130937)
(0.00106343 -0.0219772 -0.00204652)
(0.00437381 -0.0216307 -0.00184401)
(0.00297113 -0.022204 -0.00338969)
(0.0028288 -0.0213536 -0.00125558)
(0.00200009 -0.0233217 -0.00291851)
(0.00727903 -0.0214564 0.00958099)
(0.00748043 -0.0217335 0.010001)
(0.00503285 -0.0253116 -0.00629792)
(0.00447611 -0.0252962 -0.00353147)
(0.00556178 -0.024718 -0.00485375)
(0.00429494 -0.0245737 -0.00429249)
(0.00425021 -0.0254106 -0.0059612)
(0.00465473 -0.0243046 -0.00450399)
(0.0166577 -0.0257963 0.000470721)
(0.0141861 -0.0221111 -0.000416787)
(0.0140392 -0.0221541 -0.00179801)
(0.0151104 -0.0256484 -0.00145702)
(0.0162793 -0.0250975 -0.000786417)
(0.0159381 -0.0273569 -0.00098153)
(0.0060648 -0.0235441 0.00608518)
(0.00668835 -0.0210755 0.00550486)
(0.00448442 -0.0223578 0.0052979)
(0.00400067 -0.0222939 0.00470165)
(0.00539949 -0.0209299 0.00465291)
(0.00383885 -0.0212672 0.00430234)
(0.00727175 -0.0260269 -0.00764505)
(0.00915704 -0.0249199 -0.00714029)
(0.00915435 -0.0253413 -0.00699285)
(0.00743206 -0.0250242 -0.00730989)
(0.00835249 -0.0255269 -0.00771209)
(0.00762884 -0.0238517 -0.00756621)
(0.0133718 -0.0237708 -0.00202813)
(0.0120714 -0.0209824 -0.00179487)
(0.0115157 -0.0204394 -0.00238228)
(0.0123025 -0.0225519 -0.00357284)
(0.0127822 -0.0223435 -0.00238847)
(0.0128358 -0.0231691 -0.000487118)
(0.0117621 -0.0213697 -0.00408509)
(0.0122104 -0.0220417 -0.00300182)
(0.00249762 -0.0180768 0.000838608)
(0.00274794 -0.0161141 0.00190113)
(0.00207506 -0.0158632 0.00135634)
(0.00212917 -0.0174625 0.00104196)
(0.00213173 -0.018673 0.00099424)
(0.0025577 -0.0151077 0.00137999)
(0.00519841 -0.00911793 -0.00387372)
(0.0051212 -0.00957557 -0.00454372)
(0.00542501 -0.0106326 -0.00551447)
(0.00510796 -0.010015 -0.00492962)
(0.00557012 -0.0101328 -0.00434692)
(0.00514309 -0.00879867 -0.00361004)
(0.000521823 -0.0242116 -0.00405296)
(0.000508065 -0.0238605 -0.00509208)
(0.00032993 -0.0234402 -0.00600558)
(0.000873587 -0.0250599 -0.00511237)
(0.000343156 -0.0233089 -0.00625343)
(0.00515244 -0.00886593 -0.00289965)
(0.00529518 -0.00878994 -0.00240155)
(0.00509694 -0.0085309 -0.00312434)
(0.00499159 -0.00875565 -0.00240553)
(0.00505671 -0.00854262 -0.00280815)
(0.00496719 -0.00849712 -0.00243905)
(0.00474542 -0.0110159 0.00306906)
(0.00440597 -0.0115678 0.00281676)
(0.00462727 -0.0117675 0.00331595)
(0.00487567 -0.0106694 0.00262697)
(0.00432406 -0.0108753 0.00318456)
(0.00435828 -0.0118371 0.00288732)
(0.0107134 -0.0219327 0.00979591)
(0.0108298 -0.0209058 0.00841066)
(0.0100513 -0.0217127 0.00945)
(0.00948569 -0.0220846 0.0100857)
(0.0128339 -0.0223261 0.00950677)
(0.012725 -0.021518 0.0087829)
(0.0168319 -0.0248384 0.0028366)
(0.0145044 -0.0204273 0.00130494)
(0.0156982 -0.0224266 0.00404229)
(0.0163103 -0.0233568 0.000817552)
(0.0151827 -0.0210638 0.00177062)
(0.00841782 -0.02402 0.00683429)
(0.00800054 -0.0245026 0.00714638)
(0.00671943 -0.0262499 0.00709788)
(0.00545881 -0.0235002 0.00691866)
(0.0055493 -0.0250411 0.00700399)
(0.00756049 -0.0212164 0.0089914)
(0.00706599 -0.022987 0.00923698)
(0.00719861 -0.0217949 0.00892135)
(0.00562859 -0.0230363 0.00875986)
(0.00646276 -0.0224476 0.00871066)
(0.00827993 -0.0220584 0.00921028)
(0.0129096 -0.0232859 -0.00334539)
(0.0130662 -0.0220714 -0.00134893)
(0.01399 -0.0249696 -0.00135497)
(0.0141057 -0.0233638 -0.00155291)
(0.0134764 -0.0238071 -0.00351218)
(0.0135342 -0.0222557 -0.000434355)
(0.0133862 -0.0222814 -0.00021625)
(0.0121729 -0.0208672 0.00120892)
(0.0124229 -0.0217166 0.00152539)
(0.0124039 -0.0209598 0.000453426)
(0.0124683 -0.0208531 -0.00033205)
(0.0131128 -0.0216196 -0.00072376)
(0.00805551 -0.0208394 0.00531058)
(0.00875451 -0.0207301 0.00369745)
(0.00671842 -0.0213621 0.00440173)
(0.0073658 -0.0191758 0.00492075)
(0.00832623 -0.0187418 0.00392205)
(0.00665257 -0.0197842 0.00432867)
(0.0123492 -0.021573 0.0032442)
(0.0108997 -0.020547 0.00351629)
(0.0113653 -0.0208309 0.00378467)
(0.0111426 -0.0214221 0.00424135)
(0.0106752 -0.0220815 0.00463187)
(0.0120396 -0.0213125 0.00315908)
(0.0141383 -0.0225222 0.000426611)
(0.0135902 -0.0218147 0.00200451)
(0.0143279 -0.0227989 0.00169118)
(0.0135147 -0.0209829 0.00244821)
(0.0145518 -0.0234015 0.00100867)
(0.0108556 -0.021631 0.00634905)
(0.00999431 -0.0223537 0.00671051)
(0.00905418 -0.0225629 0.00706963)
(0.00951423 -0.0215298 0.00704567)
(0.0106073 -0.0212367 0.00648758)
(0.0093374 -0.0219562 0.00673623)
(0.0130057 -0.0200423 0.00367141)
(0.0129064 -0.0213819 0.00561725)
(0.0117025 -0.0200744 0.00575468)
(0.0119176 -0.020423 0.00517205)
(0.0132879 -0.0211092 0.00401637)
(0.0120445 -0.0194032 0.00567875)
(0.00704804 -0.0216886 -0.00942885)
(0.0068153 -0.0230904 -0.00920299)
(0.00661218 -0.0231259 -0.00977224)
(0.00521343 -0.0217648 -0.00933556)
(0.00688808 -0.0214684 -0.00968479)
(0.00535485 -0.0221125 -0.0101883)
(0.00571046 -0.0239537 -0.0086547)
(0.00414986 -0.0228543 -0.00850423)
(0.00561127 -0.0246958 -0.00872759)
(0.00377653 -0.0239637 -0.00817849)
(0.00503895 -0.0239396 -0.00846852)
(0.00412233 -0.0229421 -0.00779206)
(0.00323117 -0.0229156 -0.00568592)
(0.00431598 -0.0248832 -0.00640168)
(0.00320937 -0.0241823 -0.0049464)
(0.00331149 -0.0233978 -0.00538578)
(0.00315719 -0.0226781 -0.00644949)
(0.0040927 -0.0236419 -0.00703985)
(0.00594571 -0.00912845 -0.000543523)
(0.00623594 -0.00998407 -0.00126944)
(0.00629805 -0.00943962 -0.000745536)
(0.00598715 -0.00915791 0.000416486)
(0.00634933 -0.00958167 -0.000175057)
(0.00594756 -0.00922124 0.00012214)
(0.00598269 -0.00937986 0.000752935)
(0.00590556 -0.0094006 -0.000467498)
(0.00607037 -0.0096435 -0.00187773)
(0.00658881 -0.0109041 -0.0026369)
(0.00618835 -0.0104719 -0.00264681)
(0.00613328 -0.0096957 -0.00126168)
(0.00650574 -0.0100029 -0.00125254)
(0.00594491 -0.00984729 -0.0018477)
(0.00342652 -0.0175671 -0.00725612)
(0.00208994 -0.0199553 -0.00743142)
(0.00419963 -0.0178029 -0.00658328)
(0.00310215 -0.0180284 -0.00687351)
(0.00253183 -0.018978 -0.00652094)
(0.00249127 -0.0188719 -0.00803951)
(0.00653357 -0.0114083 -0.00276125)
(0.0059719 -0.011336 -0.00337358)
(0.00602341 -0.0123371 -0.0038268)
(0.00591 -0.0110288 -0.00320935)
(0.00623509 -0.0107913 -0.00259521)
(0.00634732 -0.0130024 -0.00405253)
(0.00482406 -0.0110969 0.00422323)
(0.00507546 -0.0105188 0.00453331)
(0.00562317 -0.0104621 0.0036608)
(0.0048721 -0.01139 0.00480031)
(0.00496043 -0.00999505 0.00448391)
(0.00611792 -0.00953401 0.00240961)
(0.0060246 -0.00974207 0.00303993)
(0.00578406 -0.00959086 0.00282)
(0.00569632 -0.00892809 0.00224022)
(0.0056669 -0.00925544 0.00251288)
(0.00585763 -0.0101616 0.0035898)
(0.00353393 -0.0149775 0.00274074)
(0.00408056 -0.0131632 0.00234643)
(0.00290389 -0.0146937 0.00227227)
(0.00402929 -0.0129257 0.00272765)
(0.00325832 -0.0131421 0.0020245)
(0.00386553 -0.0118509 0.00233732)
(0.00535937 -0.00941842 0.0017715)
(0.00486688 -0.00989839 0.0025358)
(0.00521795 -0.00960171 0.00216068)
(0.00497243 -0.00999142 0.00243258)
(0.00518896 -0.00946553 0.00176776)
(0.00544913 -0.0104238 0.00216789)
(0.00446808 -0.011449 0.00180544)
(0.00432494 -0.010838 0.00163302)
(0.00418509 -0.011104 0.0016662)
(0.00366463 -0.0114882 0.00171885)
(0.00435285 -0.0103819 0.00158249)
(0.00547633 -0.00902135 -0.00068483)
(0.00551221 -0.00929103 -2.64065e-05)
(0.00580227 -0.00906831 -0.00110624)
(0.0055039 -0.00877757 -0.00137395)
(0.00550971 -0.00902485 -0.00139172)
(0.00546656 -0.00874317 -0.00051622)
(0.00597388 -0.0107373 -0.00388065)
(0.0057651 -0.0118177 -0.00484447)
(0.00543041 -0.0114577 -0.00529059)
(0.00571741 -0.01088 -0.00457022)
(0.00568847 -0.0102994 -0.00377761)
(0.00554185 -0.0106231 -0.00440647)
(0.00505061 -0.00956969 0.000878782)
(0.00496014 -0.0100083 0.00119835)
(0.00439685 -0.0103981 0.00157613)
(0.0044712 -0.0101088 0.00142319)
(0.00512902 -0.0108346 0.00119268)
(0.004904 -0.00968282 0.000827261)
(0.00519414 -0.00880624 -0.000483077)
(0.00515474 -0.00887586 -8.30978e-05)
(0.00536894 -0.00874041 -0.000550602)
(0.00532529 -0.0090791 0.000107687)
(0.00521089 -0.00914137 0.000260687)
(0.00572085 -0.00935724 -0.000277087)
(0.000158765 -0.0221152 -0.00659718)
(-0.000139469 -0.0220517 -0.0079324)
(0.000527322 -0.0234221 -0.00566452)
(0.000836486 -0.0218244 -0.00819521)
(0.000220993 -0.0217351 -0.008557)
(0.000251394 -0.0204435 -0.00931524)
(0.000742834 -0.0201291 -0.00883116)
(-0.00033016 -0.0216815 -0.00777562)
(0.000569101 -0.0254512 -0.00776477)
(0.000642549 -0.0237575 -0.00761922)
(0.000683446 -0.0238666 -0.00638042)
(0.00105097 -0.0242678 -0.00530719)
(0.000745546 -0.0243131 -0.0053799)
(0.00112771 -0.0250919 -0.0061969)
(0.00212453 -0.0247726 -0.00360824)
(0.00277558 -0.022393 -0.00263277)
(0.00313761 -0.0264271 -0.00306651)
(0.00239268 -0.0271947 -0.00352117)
(0.00126111 -0.0267129 -0.00448387)
(0.00188213 -0.0206119 -0.00124462)
(0.00436398 -0.0225206 -0.000510163)
(0.00372765 -0.0233555 -0.000768946)
(0.00311601 -0.0254254 -0.00186852)
(0.00364194 -0.0234703 -0.000668676)
(0.00452107 -0.0241086 -0.00217883)
(0.00518227 -0.0241988 -0.00206134)
(0.00687821 -0.0259284 -0.00181478)
(0.00526061 -0.0262203 -0.00239174)
(0.00475669 -0.0226563 -0.00172126)
(0.00405172 -0.0272012 -0.00258497)
(0.00751287 -0.0253767 -0.00230506)
(0.00699371 -0.0200129 -0.000355436)
(0.00625884 -0.0244439 -0.000782618)
(0.00648621 -0.0215074 2.16265e-05)
(0.00583688 -0.0225192 -0.000615151)
(0.00636064 -0.0210819 -0.000715739)
(0.00496196 -0.00883865 -0.00176963)
(0.00475184 -0.00925905 -0.00117432)
(0.00481706 -0.00910395 -0.00119835)
(0.00467006 -0.00853545 -0.00170124)
(0.00467386 -0.00929989 -0.00136266)
(0.0049795 -0.009283 -0.00141069)
(0.00185562 -0.0178263 -0.00215414)
(0.00219563 -0.0183684 -0.00251399)
(0.00213228 -0.0184633 -0.00280293)
(0.00187733 -0.0169406 -0.00171407)
(0.0019692 -0.0157987 -0.00178459)
(0.00180615 -0.0186045 -0.00323697)
(0.00363818 -0.0129103 -0.00842147)
(0.00359404 -0.0146072 -0.0088522)
(0.00442613 -0.0130785 -0.00801505)
(0.00372194 -0.0145349 -0.00894037)
(0.00325289 -0.0151384 -0.00942229)
(0.00425675 -0.0134354 -0.00814672)
(0.00466969 -0.0114462 -0.00682555)
(0.00478172 -0.0101073 -0.00611656)
(0.00443556 -0.0114381 -0.00694507)
(0.00505284 -0.011666 -0.00659399)
(0.00467285 -0.0102378 -0.00646285)
(0.0101441 -0.022528 -0.00897814)
(0.00988259 -0.0244663 -0.0099815)
(0.0106695 -0.0235337 -0.00794839)
(0.0105299 -0.021975 -0.00870622)
(0.00957972 -0.0214619 -0.00962259)
(0.00960474 -0.0228464 -0.0101758)
(0.0112793 -0.0229597 -0.00750396)
(0.010948 -0.0213293 -0.00663167)
(0.0109185 -0.0222734 -0.00550384)
(0.0109365 -0.0225172 -0.00728615)
(0.0100601 -0.0200113 -0.00553123)
(0.0107728 -0.0224472 -0.00764182)
(0.0110091 -0.021588 -0.00305237)
(0.0109222 -0.0204644 -0.00412974)
(0.0111528 -0.022495 -0.0026276)
(0.0113132 -0.0210053 -0.00442658)
(0.0118627 -0.0226919 -0.00342837)
(0.0119011 -0.0225558 -0.00412066)
(0.00804049 -0.0214232 -2.62055e-05)
(0.00995023 -0.0210361 -0.00179481)
(0.00954768 -0.022339 -0.000881946)
(0.00821399 -0.0194166 -0.000719475)
(0.00904258 -0.0207638 -0.00142756)
(0.00992663 -0.0234054 -0.000411488)
(0.00053481 -0.0229931 -0.00261881)
(0.000490938 -0.0248092 -0.0030619)
(0.0031555 -0.026034 -0.00191626)
(0.00139028 -0.0229764 -0.00111402)
(0.00164859 -0.0245074 -0.0013328)
(0.00492272 -0.00865048 -0.000972849)
(0.00498792 -0.00982251 -0.00068469)
(0.00480022 -0.00945469 -0.000548399)
(0.00528919 -0.00956228 -0.000906596)
(0.00515215 -0.00935897 -0.000906442)
(0.00473555 -0.010765 -5.41803e-05)
(0.00523771 -0.00913648 -0.00138)
(0.0053635 -0.0090112 -0.0019666)
(0.00509751 -0.00903755 -0.00167687)
(0.00503368 -0.00858421 -0.00154343)
(0.00522997 -0.00900909 -0.00129296)
(0.00507487 -0.00874426 -0.0020913)
(0.000784041 -0.0226279 -0.00806502)
(0.00110011 -0.0197091 -0.00916251)
(0.00153547 -0.0197184 -0.00915884)
(0.000815135 -0.0220411 -0.00825345)
(0.00104485 -0.022311 -0.00902251)
(0.000633781 -0.0202619 -0.00938196)
(0.00339175 -0.0137973 -0.00846816)
(0.003796 -0.0132678 -0.00818444)
(0.0032288 -0.0158268 -0.0090593)
(0.00310798 -0.0145563 -0.00864707)
(0.00259036 -0.0154745 -0.0089537)
(0.0040278 -0.0128835 -0.00779166)
(0.00518375 -0.0133179 -0.00646093)
(0.00433222 -0.0140594 -0.00686528)
(0.00484453 -0.0129746 -0.00710981)
(0.00468047 -0.0151559 -0.00791364)
(0.00386833 -0.0152366 -0.00754259)
(0.00354792 -0.0152007 -0.00799092)
(0.00226713 -0.0190069 -0.00881738)
(0.00374122 -0.0167663 -0.00849309)
(0.00307528 -0.0173732 -0.00866804)
(0.00231988 -0.0180115 -0.00917408)
(0.00190326 -0.0191022 -0.00858375)
(0.0031197 -0.0163778 -0.0085308)
(0.00189803 -0.0207239 -0.00628606)
(0.00203407 -0.0206849 -0.00773081)
(0.00147153 -0.021572 -0.00700879)
(0.00080599 -0.0225621 -0.00655975)
(0.00275061 -0.0197789 -0.00674095)
(0.000456388 -0.0214127 -0.00614547)
(0.00534519 -0.00938338 -0.00394716)
(0.00509856 -0.00856326 -0.00296865)
(0.00522059 -0.00891407 -0.00330957)
(0.00507761 -0.00904997 -0.00363336)
(0.00534021 -0.00919836 -0.00335839)
(0.00520538 -0.00893455 -0.00268466)
(0.00464233 -0.0128656 -0.00748657)
(0.00504683 -0.0125097 -0.00661264)
(0.00515321 -0.0126843 -0.00765716)
(0.00384361 -0.0129611 0.00426641)
(0.00319851 -0.0139748 0.00367266)
(0.00366541 -0.0136972 0.00433739)
(0.00342701 -0.0130086 0.00439459)
(0.00358758 -0.0132457 0.00392986)
(0.00325488 -0.014832 0.00399988)
(0.00283975 -0.0174941 0.00353196)
(0.00252355 -0.0156098 0.00363246)
(0.00340124 -0.0165909 0.00332844)
(0.00392852 -0.0151359 0.00385196)
(0.00342876 -0.0138785 0.00392027)
(0.00227892 -0.0147644 0.00376391)
(0.00453829 -0.0116906 0.00491227)
(0.00403779 -0.0125279 0.0047361)
(0.00425019 -0.0127987 0.00523907)
(0.00390058 -0.0114116 0.00423604)
(0.00449763 -0.0112296 0.00429249)
(0.00410664 -0.0114159 0.00497113)
(0.00326462 -0.0236018 -0.00184922)
(0.00224309 -0.0212576 -0.000351383)
(0.00239441 -0.020781 -0.000689879)
(0.00304384 -0.0226495 -0.00236725)
(0.00246285 -0.0212985 -0.001595)
(0.00180176 -0.0205856 -0.00145522)
(0.0019903 -0.0179392 0.000784756)
(0.00261544 -0.0199483 0.00125169)
(0.00250436 -0.0202479 -7.96765e-05)
(0.00238816 -0.0188678 0.000545258)
(0.00284852 -0.0208805 0.000313165)
(0.00748732 -0.00985529 0.00207036)
(0.00793801 -0.0106255 0.00130888)
(0.00633685 -0.00918952 0.00256759)
(0.00667341 -0.00943552 0.00185197)
(0.006645 -0.0093424 0.00116456)
(0.00678723 -0.00957946 0.00117484)
(0.00651213 -0.00933943 0.00250184)
(0.0067917 -0.00976347 0.00185842)
(0.00715031 -0.0102282 0.000548254)
(0.00726842 -0.0109195 -0.000554517)
(0.00720885 -0.0098829 0.00120018)
(0.00715841 -0.0108481 -5.86764e-05)
(0.00739196 -0.0101873 0.00139639)
(0.0071635 -0.0102978 0.000573079)
(0.00826335 -0.0141124 -0.00100161)
(0.0073546 -0.0119871 -0.000720505)
(0.00793222 -0.0119511 -6.05387e-05)
(0.00741913 -0.0133614 -0.00146536)
(0.00788956 -0.0125021 -0.00076953)
(0.00854472 -0.0125062 -0.000191656)
(0.00685904 -0.0140209 -0.00288439)
(0.0065099 -0.0149124 -0.00327333)
(0.00721402 -0.0125909 -0.00142045)
(0.00616063 -0.014233 -0.00334465)
(0.0067181 -0.0121115 -0.00198513)
(0.00636435 -0.0129122 -0.00241819)
(0.00522111 -0.0146357 -0.00573382)
(0.004335 -0.0170775 -0.00623206)
(0.00456292 -0.0162609 -0.00653515)
(0.00412008 -0.0170475 -0.00636962)
(0.00449714 -0.0149662 -0.00589687)
(0.00549674 -0.0143819 -0.00509726)
(0.00469155 -0.0168922 -0.00512879)
(0.00347032 -0.020037 -0.00527498)
(0.0041799 -0.0201386 -0.00528553)
(0.00557332 -0.0179535 -0.00505961)
(0.00354787 -0.01803 -0.0060723)
(0.00446928 -0.018196 -0.00569255)
(0.0021787 -0.0213283 -0.00635404)
(0.00271531 -0.0190949 -0.00636056)
(0.00314343 -0.0193503 -0.00607542)
(0.00186861 -0.019482 -0.00594627)
(0.0011299 -0.0221368 -0.00460992)
(0.00139799 -0.0211732 -0.00564594)
(0.00298305 -0.02187 -0.00788075)
(0.00415633 -0.0226087 -0.00836559)
(0.00365948 -0.0232908 -0.00781605)
(0.00345659 -0.0227592 -0.00887596)
(0.00405931 -0.0226665 -0.00936664)
(0.00302158 -0.0225405 -0.00740454)
(0.0019341 -0.0202767 -0.0044947)
(0.00227406 -0.0216588 -0.00670991)
(0.00241522 -0.0208695 -0.00547458)
(0.00174375 -0.020314 -0.0051075)
(0.00209952 -0.0212979 -0.00692488)
(0.00254906 -0.0223611 -0.00594121)
(0.0121295 -0.0229479 -0.00468574)
(0.0114235 -0.0235699 -0.00473789)
(0.0118784 -0.0236906 -0.0045161)
(0.0104382 -0.0226224 -0.00544144)
(0.0104349 -0.0229738 -0.00556934)
(0.011189 -0.0239866 -0.00699587)
(0.0119903 -0.0237377 -0.00546603)
(0.0103038 -0.0233186 -0.00639166)
(0.01113 -0.0244704 -0.00495895)
(0.0112434 -0.0222446 -0.00531157)
(0.0118515 -0.0224522 -0.00469265)
(0.0107398 -0.0277614 -0.00497571)
(0.0103235 -0.0265529 -0.00504936)
(0.0122996 -0.0259371 -0.00392077)
(0.011048 -0.0258831 -0.00524028)
(0.0104645 -0.0240344 -0.00487834)
(0.012408 -0.0264923 -0.00349023)
(0.00591346 -0.023419 0.00057374)
(0.00534812 -0.0241699 0.000132109)
(0.00564393 -0.0237618 0.000763348)
(0.00464146 -0.0247905 -4.85376e-06)
(0.00498197 -0.0227992 0.000741572)
(0.00399245 -0.0246398 -4.03047e-05)
(0.00229196 -0.022293 0.00139894)
(0.00100051 -0.0227924 0.000207034)
(0.00369872 -0.0227485 0.00172264)
(0.00344682 -0.0226448 0.00165422)
(0.00218202 -0.0207599 0.000343683)
(0.0113839 -0.0239908 -0.00741058)
(0.011737 -0.023405 -0.00638018)
(0.0110828 -0.0238636 -0.00809872)
(0.011588 -0.0243237 -0.00753489)
(0.0118036 -0.0237471 -0.00556568)
(0.0106748 -0.0209553 -0.00594451)
(0.0121374 -0.0222298 -0.00246846)
(0.0119538 -0.021711 -0.0045088)
(0.011569 -0.0209744 -0.00400908)
(0.0118965 -0.0214248 -0.00289182)
(0.012016 -0.021484 -0.00308905)
(0.0122768 -0.0226111 -0.0040291)
(0.00993504 -0.0240716 -0.000196992)
(0.010327 -0.0228831 -0.000766982)
(0.0113574 -0.0223282 -0.00221604)
(0.0109609 -0.0227934 -0.001274)
(0.0109538 -0.0234655 -0.00100231)
(0.0105967 -0.0234157 -0.00113923)
(0.0117065 -0.0237342 -0.00270072)
(0.0106983 -0.0226374 -0.00138829)
(0.0106424 -0.0249064 -0.00252344)
(0.0110359 -0.0237363 -0.00275056)
(0.0111621 -0.0267012 -0.00305414)
(0.013358 -0.0260485 -0.00225161)
(0.00590034 -0.0240532 -0.00679492)
(0.00751012 -0.0254773 -0.00686577)
(0.00577172 -0.0264273 -0.00610035)
(0.00635776 -0.0259993 -0.00629409)
(0.00577291 -0.0243149 -0.0057837)
(0.00777195 -0.0265423 -0.00609643)
(0.00377964 -0.0218912 -0.00223889)
(0.00337777 -0.0229154 -0.00398326)
(0.00353928 -0.0217314 -0.00111136)
(0.00316166 -0.0227642 -0.00291602)
(0.00391561 -0.0240698 -0.00358457)
(0.00291939 -0.0219148 -0.00192315)
(0.00306826 -0.0236774 0.00534816)
(0.00377112 -0.0252641 0.00609403)
(0.00287224 -0.0250684 0.00455346)
(0.00468095 -0.0263868 0.00622339)
(0.00280025 -0.0228087 0.00462559)
(0.00179996 -0.026094 0.00423963)
(0.000812941 -0.0235243 -0.00160439)
(-5.34963e-05 -0.0247503 -0.00137337)
(0.000194324 -0.0234642 0.000631498)
(-0.000621729 -0.0238732 -0.00246779)
(0.000315811 -0.0231381 2.47772e-05)
(0.000166359 -0.0229085 0.000281332)
(0.00359401 -0.0204586 -0.00256019)
(0.00310287 -0.0214659 -0.0022629)
(0.00440497 -0.020169 -0.00297164)
(0.00357282 -0.0203001 -0.00304322)
(0.0041312 -0.0194874 -0.00310497)
(0.00352459 -0.0216404 -0.00175294)
(0.00217059 -0.0241778 -8.09834e-05)
(0.0010947 -0.0229264 0.00121126)
(0.00218118 -0.0224848 -0.000416239)
(0.00199875 -0.0232024 0.00113381)
(0.0019894 -0.0225727 -0.00114001)
(0.00215434 -0.0233769 0.00108834)
(0.000616909 -0.0235651 0.000862092)
(0.00126129 -0.0238556 0.0025192)
(0.000337408 -0.0227037 0.000622105)
(0.00176202 -0.0220215 0.00384959)
(0.000647725 -0.0230295 0.00186184)
(0.000936287 -0.0247355 0.00396245)
(0.00368091 -0.0224163 0.00647332)
(0.00222441 -0.0213707 0.00566194)
(0.00116686 -0.0224868 0.00531605)
(0.000131173 -0.0230981 0.00397204)
(0.00450539 -0.0223797 0.00792145)
(0.00203945 -0.0219502 0.00655496)
(0.00601247 -0.0248053 0.00892546)
(0.00337455 -0.0265374 0.00752841)
(0.00341502 -0.0241199 0.0082845)
(0.0113384 -0.020691 -0.000878871)
(0.0110342 -0.0212902 -0.000314593)
(0.0117253 -0.02094 -0.0006115)
(0.0109313 -0.0215068 0.000740315)
(0.0108233 -0.0211259 0.000521025)
(0.0117848 -0.0218128 0.00036512)
(0.00938541 -0.0231296 0.00307225)
(0.0108536 -0.0228682 0.00238758)
(0.0105333 -0.0224497 0.00223538)
(0.00976064 -0.0218928 0.00266527)
(0.0103912 -0.0231734 0.00288844)
(0.00983215 -0.022157 0.00248015)
(0.0041384 -0.0221419 0.00178424)
(0.00581054 -0.0222057 0.00187363)
(0.00553226 -0.0206707 0.00211872)
(0.00493436 -0.0215765 0.00226846)
(0.00569462 -0.0230453 0.0016076)
(0.00198366 -0.0224345 -0.00377272)
(0.00221094 -0.0195893 -0.00316774)
(0.00242186 -0.0202813 -0.00214975)
(0.00215354 -0.0210564 -0.00383933)
(0.00225084 -0.0178304 -0.00200194)
(0.00238162 -0.0187391 -0.00158866)
(0.006052 -0.0230544 -0.0105139)
(0.00512464 -0.022828 -0.00989585)
(0.00505095 -0.0225434 -0.00974797)
(0.00661386 -0.023061 -0.0103474)
(0.00446997 -0.0228574 -0.00963898)
(0.00578258 -0.0224341 -0.0102148)
(0.0076035 -0.0223664 -0.0107963)
(0.0100849 -0.0218353 -0.00821603)
(0.0100716 -0.023341 -0.00862265)
(0.00863755 -0.0216065 -0.00907157)
(0.0085658 -0.0212646 -0.00898196)
(0.0094686 -0.0216997 -0.0083617)
(0.00558165 -0.0159677 -0.00489513)
(0.00555073 -0.0138439 -0.00399513)
(0.00575459 -0.0158522 -0.00412043)
(0.0049842 -0.0166769 -0.00465863)
(0.00604449 -0.0146059 -0.00374326)
(0.00468916 -0.0165201 -0.00522583)
(0.000164864 -0.022754 -0.00456387)
(5.85186e-06 -0.0247405 -0.00293642)
(-0.000782143 -0.0223088 -0.00377444)
(0.000717864 -0.0267544 -0.00352768)
(-0.000667491 -0.0229332 -0.00318485)
(6.22474e-05 -0.023608 -0.00475694)
(0.000366155 -0.0240659 -0.00433331)
(0.00132336 -0.022292 -0.00499159)
(0.000761178 -0.0222275 -0.00318232)
(0.000270244 -0.0203218 -0.00678591)
(0.000680683 -0.0209109 -0.00620577)
(0.000647351 -0.0227771 -0.00538467)
(0.00347462 -0.0140778 0.0033129)
(0.00320767 -0.0144468 0.00333225)
(0.00248154 -0.0170368 0.00266602)
(0.00305976 -0.0146203 0.00302165)
(0.00237566 -0.0162818 0.00208477)
(0.00243697 -0.0170577 0.00232909)
(0.00343608 -0.0152931 0.00356072)
(0.00307135 -0.0157176 0.00292846)
(0.0105729 -0.0210982 -0.00712847)
(0.0117171 -0.023849 -0.00525443)
(0.0120412 -0.0240724 -0.00541446)
(0.0110299 -0.0238415 -0.00667036)
(0.00609086 -0.0235852 0.00312102)
(0.00575032 -0.0234146 0.00333658)
(0.00620763 -0.0209424 0.00260052)
(0.00560083 -0.021096 0.00231746)
(0.00971852 -0.0249101 7.52414e-05)
(0.00647227 -0.0229066 0.0016666)
(0.00717606 -0.0223683 0.000690468)
(0.00704509 -0.0226363 0.00137758)
(0.00798859 -0.022584 0.00340064)
(0.00775654 -0.0230943 0.00304089)
(0.00942345 -0.02281 0.000219953)
(0.010682 -0.0240458 -0.000572401)
(0.0100355 -0.0215674 -0.000593703)
(0.011317 -0.0208958 -0.00200543)
(0.0118759 -0.0227982 -0.00190603)
(0.0116166 -0.0228965 0.00114186)
(0.0125676 -0.0249763 -0.00360481)
(0.0107639 -0.0256562 -0.00449913)
(0.0109717 -0.0242465 -0.00471704)
(0.0112116 -0.0265151 -0.00414926)
(0.0103381 -0.0255692 -0.00337925)
(0.00974558 -0.0252362 -0.0046124)
(0.00911247 -0.0247522 -0.00506649)
(0.0084275 -0.0243828 -0.00543705)
(0.00894751 -0.0267783 -0.00455487)
(0.00866497 -0.0257283 -0.00487801)
(0.0078369 -0.0258948 -0.00395904)
(0.000706709 -0.0241581 0.00313938)
(0.000971053 -0.0232184 0.00403188)
(0.00285264 -0.0252789 0.00577693)
(0.00199283 -0.0265221 0.00546528)
(0.00217545 -0.0220615 0.00573921)
(0.000895757 -0.0229751 0.000814004)
(0.0015976 -0.0212992 0.00304524)
(0.00153432 -0.0231527 0.00270846)
(0.00149283 -0.0244623 0.000842771)
(0.00196118 -0.0242545 0.00184227)
(-0.000219809 -0.0227087 0.0017845)
(0.00462116 -0.0209709 0.00730876)
(0.00262233 -0.025524 0.00703188)
(0.0036838 -0.0225898 0.00814565)
(0.00388761 -0.0224238 0.00757471)
(0.00169376 -0.0214991 0.00350761)
(0.00125567 -0.0238358 0.00263942)
(0.00131808 -0.0229846 0.00188975)
(-5.57143e-05 -0.0237904 0.00206543)
(0.000748777 -0.0255454 0.00170489)
(0.0144332 -0.0214052 0.0073177)
(-8.61622e-05 -0.0214055 0.000281955)
(0.00146746 -0.0239221 0.00282245)
(0.00188895 -0.0242963 -0.000173136)
(0.00276611 -0.023274 -0.00174098)
(0.000636246 -0.0208744 -0.0027178)
(0.000865124 -0.0238339 8.05624e-05)
(0.00120451 -0.0224188 0.000517352)
(0.00137756 -0.022324 -0.00142563)
(0.00275411 -0.0215599 -0.0008502)
(8.56225e-05 -0.0236403 -0.00161541)
(0.000253668 -0.0235688 -0.00294438)
(0.000971339 -0.0250306 -0.000128426)
(0.00011357 -0.0228868 -0.00284829)
(-0.0007053 -0.0225383 -0.00356411)
(0.00321652 -0.022396 0.0038593)
(0.00229144 -0.0227967 0.00354777)
(0.00103066 -0.0240299 0.00220784)
(0.0019685 -0.0230504 0.00335474)
(0.00126439 -0.0237293 0.00266225)
(0.00170369 -0.0229732 0.00252784)
(0.00147619 -0.0240714 0.00113603)
(0.000916712 -0.0239894 0.000842725)
(-0.000222745 -0.0241758 -0.000798861)
(0.000518008 -0.02477 -0.00115505)
(-0.00107799 -0.022636 0.00166665)
(0.000161775 -0.0227737 0.00302555)
(0.00190568 -0.0245843 0.00263724)
(0.00251784 -0.0228331 0.00585451)
(0.00299451 -0.0209659 0.00663948)
(0.00240483 -0.0223886 0.00413447)
(0.00484849 -0.0251671 -0.00439869)
(0.0054546 -0.0237432 -0.00763877)
(0.00647274 -0.0260506 -0.00599573)
(0.00675443 -0.0249555 -0.00550654)
(0.00922102 -0.0260142 -0.00534519)
(0.00603531 -0.0253433 -0.00457738)
(0.00719212 -0.025892 -0.00484044)
(0.00850208 -0.0275491 -0.00523912)
(0.00844704 -0.0264237 -0.00502313)
(0.00854313 -0.0252646 -0.00612875)
(0.00751956 -0.0246543 -0.0056609)
(0.00683075 -0.0241178 -0.00629619)
(0.00858478 -0.0243921 -0.00569757)
(0.00911723 -0.0238544 -0.00591826)
(0.0087139 -0.0263042 -0.00632362)
(0.00880713 -0.0237831 -0.00629887)
(0.00868112 -0.0245737 -0.0039111)
(0.00593148 -0.0232759 -0.00420027)
(0.00375143 -0.0214035 -0.000452453)
(0.00422052 -0.0218965 0.000147841)
(0.00348754 -0.0213985 -0.00175904)
(0.00441176 -0.0225372 -0.00276982)
(0.00540901 -0.02483 -0.00361637)
(0.00257633 -0.0220038 -0.00208248)
(0.0038045 -0.0244709 -0.00247402)
(0.00632457 -0.0243282 -0.00539713)
(0.00586259 -0.0264005 -0.00507587)
(0.00494563 -0.025441 -0.00431172)
(0.00703217 -0.0244707 -0.00463015)
(0.00456317 -0.0260138 -0.00275576)
(0.00518013 -0.0250136 -0.00139915)
(0.00569848 -0.0252031 -0.00290933)
(0.00568623 -0.0235669 -0.00267773)
(0.00717233 -0.0263803 -0.00341858)
(0.00670077 -0.0245187 -0.00360488)
(0.00301323 -0.0177511 0.00178718)
(0.00256693 -0.0198174 -0.000519063)
(0.00356503 -0.0238866 -0.000742693)
(0.00292741 -0.0194001 0.000753146)
(0.0041019 -0.0225519 -0.000642135)
(0.00307152 -0.0205636 -0.000183612)
(0.00490084 -0.0218773 -0.000610364)
(0.00573492 -0.022903 -0.00132349)
(0.00522569 -0.0234539 -0.00185004)
(0.00454923 -0.0234826 -0.00137046)
(0.00741397 -0.0259847 -0.00163273)
(0.00686696 -0.0245617 -0.00228601)
(0.00660419 -0.023213 -0.00236758)
(0.00787239 -0.0245048 -0.00238725)
(0.00825681 -0.0251411 -0.00256948)
(0.00943676 -0.0246113 -0.00260385)
(0.00652151 -0.0237443 -0.00395468)
(0.00820485 -0.0247855 -0.00407265)
(0.00938642 -0.0247063 -0.00177333)
(0.0122071 -0.0223355 -0.00264684)
(0.00972477 -0.0230049 -0.00412976)
(0.0130026 -0.0255982 -0.00310886)
(0.0113631 -0.0239168 -0.00382091)
(0.0116686 -0.02207 -0.00361738)
(0.0118813 -0.0252707 -0.00316162)
(0.0114076 -0.0241507 -0.00312763)
(0.0137919 -0.0242479 -0.00209818)
(0.0122084 -0.0243523 -0.00300802)
(0.0108226 -0.0231916 -0.0072463)
(0.0119162 -0.0214528 -0.00298162)
(0.0111297 -0.022184 -0.00690191)
(0.0111063 -0.0228662 -0.00733699)
(0.0111901 -0.0210481 -0.00433251)
(0.00959839 -0.0249892 0.000432865)
(0.00842396 -0.0234366 0.000454623)
(0.00423248 -0.0219256 0.0024178)
(0.00457042 -0.0224477 0.00276488)
(0.00272675 -0.025912 0.00158446)
(0.00602642 -0.0234343 0.00350236)