/*--------------------------------*- C++ -*----------------------------------*\
| =========                 |                                                 |
| \\      /  F ield         | OpenFOAM: The Open Source CFD Toolbox           |
|  \\    /   O peration     | Version:  v1612+                                |
|   \\  /    A nd           | Web:      www.OpenFOAM.com                      |
|    \\/     M anipulation  |                                                 |
\*---------------------------------------------------------------------------*/
FoamFile
{
    version     2.0;
    format      ascii;
    class       volScalarField;
    location    "100";
    object      p;
}
// * * * * * * * * * * * * * * * * * * * * * * * * * * * * * * * * * * * * * //

dimensions      [0 2 -2 0 0 0 0];

internalField   nonuniform List<scalar> 
21439
(
0.755739
0.839088
0.850133
0.716605
0.834125
0.838284
0.724672
0.754181
0.723346
0.83379
0.824707
0.860394
0.846616
0.79558
0.82602
0.79107
0.812809
0.805109
0.845867
0.844873
0.851561
0.836395
0.786399
0.740714
0.846964
0.822331
0.761243
0.841005
0.843621
0.782836
0.820714
0.824852
0.817951
0.852574
0.776818
0.763598
0.771434
0.842237
0.734025
0.828754
0.716179
0.819143
0.73436
0.7595
0.817781
0.836999
0.829999
0.819002
0.834794
0.83989
0.85972
0.858164
0.805598
0.735484
0.729505
0.84856
0.843733
0.84537
0.842493
0.830038
0.82545
0.861911
0.682789
0.828225
0.828167
0.83658
0.738217
0.819459
0.80888
0.829362
0.832679
0.835251
0.716459
0.825574
0.786753
0.767695
0.767268
0.758162
0.832339
0.819827
0.837713
0.835258
0.831136
0.840092
0.769729
0.754364
0.760598
0.841915
0.761954
0.772583
0.769593
0.769707
0.845964
0.73083
0.743856
0.734185
0.747546
0.719441
0.851021
0.831182
0.789749
0.825933
0.828244
0.726732
0.838267
0.845117
0.814333
0.853905
0.868932
0.721468
0.807707
0.784611
0.78024
0.843083
0.733685
0.745318
0.856428
0.781273
0.856875
0.852716
0.733729
0.841501
0.840705
0.872312
0.830863
0.819835
0.823171
0.820018
0.821942
0.871307
0.780964
0.770452
0.756811
0.770286
0.820603
0.834661
0.826643
0.826591
0.830446
0.713291
0.747601
0.837647
0.857953
0.832778
0.833711
0.828249
0.768963
0.763115
0.819672
0.816403
0.787171
0.808127
0.84994
0.850063
0.847469
0.840234
0.86069
0.808072
0.792712
0.796885
0.855827
0.858985
0.843888
0.845613
0.85566
0.859365
0.703529
0.691883
0.82511
0.829377
0.82862
0.830431
0.706666
0.709986
0.824308
0.837418
0.779432
0.821573
0.812216
0.817051
0.813133
0.807539
0.79707
0.78983
0.802771
0.79104
0.743814
0.801221
0.810733
0.816374
0.805574
0.812026
0.799408
0.824161
0.820573
0.774538
0.75421
0.762515
0.847279
0.844771
0.846072
0.84361
0.843991
0.846891
0.845088
0.841696
0.856843
0.686178
0.727645
0.816526
0.811359
0.789035
0.778212
0.759497
0.766049
0.772898
0.847569
0.853593
0.83748
0.832992
0.839405
0.841961
0.785379
0.776455
0.840668
0.841027
0.790027
0.749205
0.783014
0.776953
0.790875
0.808039
0.798868
0.826134
0.82337
0.833914
0.824702
0.839644
0.84622
0.852486
0.846879
0.858566
0.859534
0.859345
0.85479
0.861222
0.854332
0.852434
0.852745
0.849991
0.862737
0.851
0.858806
0.854936
0.831325
0.822873
0.836041
0.865862
0.731341
0.718556
0.848026
0.852254
0.836339
0.8522
0.860376
0.852053
0.854191
0.852401
0.861608
0.850012
0.857505
0.868047
0.743331
0.863249
0.865692
0.813019
0.819575
0.813597
0.816918
0.816683
0.817001
0.856179
0.861161
0.865067
0.826267
0.830102
0.846812
0.729545
0.729635
0.85434
0.852902
0.850801
0.851537
0.854081
0.866556
0.849739
0.849163
0.843122
0.843104
0.863164
0.723923
0.72282
0.851792
0.7699
0.766062
0.834475
0.832837
0.831636
0.820081
0.827948
0.823351
0.775384
0.774393
0.847595
0.851889
0.838428
0.849378
0.686656
0.822311
0.826583
0.855092
0.845801
0.865167
0.797286
0.805053
0.833607
0.828558
0.686781
0.856421
0.852488
0.84773
0.848636
0.80222
0.807116
0.842718
0.84125
0.847227
0.835435
0.83146
0.860784
0.787544
0.755482
0.84884
0.836014
0.844489
0.829144
0.835998
0.828865
0.857763
0.738938
0.731648
0.854874
0.728802
0.82022
0.79069
0.79161
0.851721
0.828388
0.834622
0.819275
0.852681
0.842234
0.861746
0.780829
0.784985
0.700506
0.850759
0.817901
0.831569
0.867355
0.799175
0.842679
0.776125
0.83613
0.835822
0.840626
0.833168
0.837493
0.749777
0.722457
0.739523
0.731025
0.834761
0.809954
0.802245
0.802539
0.837745
0.843727
0.845509
0.809836
0.758427
0.780066
0.82698
0.85135
0.82841
0.747921
0.739477
0.811213
0.844843
0.866243
0.857429
0.803365
0.767606
0.771018
0.836121
0.739468
0.815728
0.841375
0.837317
0.829844
0.84667
0.803287
0.827398
0.84831
0.786983
0.797486
0.706624
0.689236
0.815885
0.832259
0.821096
0.858356
0.858687
0.794654
0.801525
0.788094
0.803856
0.799894
0.745139
0.845765
0.832973
0.837336
0.839469
0.852879
0.84592
0.820653
0.820306
0.757697
0.819074
0.813625
0.828715
0.830629
0.836867
0.772844
0.841146
0.770773
0.794088
0.729195
0.745933
0.740331
0.749768
0.853541
0.71591
0.841926
0.842418
0.836482
0.816557
0.837343
0.840359
0.825836
0.843425
0.796364
0.860359
0.684302
0.846752
0.811614
0.869836
0.74845
0.842436
0.804078
0.817628
0.847349
0.77116
0.768961
0.780794
0.842837
0.717425
0.814611
0.859879
0.799667
0.838181
0.834251
0.75609
0.841959
0.822925
0.845027
0.805493
0.80473
0.856761
0.858906
0.698619
0.867895
0.840229
0.851274
0.859894
0.865046
0.836543
0.860672
0.860042
0.860145
0.85765
0.827096
0.790602
0.867245
0.863916
0.772709
0.784902
0.713658
0.828261
0.827875
0.769278
0.822519
0.782182
0.723111
0.712893
0.837013
0.83287
0.835951
0.844457
0.713921
0.846257
0.842759
0.702138
0.721062
0.703599
0.840283
0.840279
0.829376
0.832403
0.754333
0.767504
0.8231
0.847184
0.78735
0.785251
0.755295
0.742148
0.832979
0.842557
0.844711
0.738046
0.729635
0.7892
0.817379
0.814506
0.813984
0.797678
0.732304
0.723931
0.726632
0.813608
0.817578
0.843229
0.848169
0.735082
0.820883
0.846319
0.85831
0.86479
0.846744
0.716577
0.750984
0.833027
0.827417
0.827166
0.815754
0.847639
0.837279
0.761973
0.813866
0.860987
0.784654
0.809507
0.839632
0.84263
0.688626
0.853369
0.858799
0.844866
0.728034
0.722894
0.732245
0.776014
0.859644
0.855755
0.85395
0.818566
0.872037
0.844439
0.812763
0.805752
0.812888
0.854616
0.799887
0.812292
0.745588
0.744172
0.721853
0.844036
0.807133
0.788874
0.797187
0.789726
0.852415
0.699902
0.764722
0.792031
0.848967
0.826922
0.855012
0.835884
0.793963
0.819446
0.805572
0.817658
0.744324
0.779815
0.799878
0.82221
0.723057
0.753573
0.815694
0.750605
0.746794
0.827209
0.825094
0.834064
0.809454
0.812731
0.792687
0.814092
0.806263
0.820989
0.819483
0.803769
0.818017
0.787557
0.81805
0.852787
0.842427
0.847451
0.854935
0.838247
0.832471
0.842636
0.838332
0.851995
0.838553
0.834851
0.842687
0.83545
0.840659
0.830976
0.821967
0.834127
0.862769
0.851211
0.857766
0.855536
0.846649
0.832864
0.845322
0.829351
0.838314
0.833074
0.826536
0.850329
0.857037
0.848939
0.853579
0.868664
0.875721
0.866168
0.868451
0.845453
0.863442
0.84937
0.846812
0.863147
0.85378
0.8414
0.828448
0.844712
0.834814
0.825098
0.8276
0.807066
0.848406
0.832585
0.825525
0.832195
0.831429
0.802999
0.768676
0.764092
0.797989
0.769092
0.782124
0.782243
0.789999
0.831168
0.802894
0.807388
0.814295
0.815663
0.794378
0.768561
0.767378
0.723609
0.740001
0.764829
0.801475
0.742196
0.777779
0.782707
0.765479
0.798485
0.761322
0.763349
0.726894
0.791397
0.8173
0.810754
0.827799
0.802759
0.833193
0.826018
0.80826
0.775755
0.812607
0.82474
0.80066
0.808362
0.817888
0.803962
0.758033
0.766712
0.811765
0.798557
0.743945
0.772877
0.779996
0.770568
0.759473
0.777523
0.813423
0.79378
0.800932
0.790071
0.803482
0.786961
0.760073
0.787467
0.808102
0.697369
0.746829
0.735657
0.762607
0.759885
0.777954
0.700209
0.855353
0.854341
0.859384
0.861942
0.844926
0.841625
0.818268
0.844398
0.840098
0.822306
0.820527
0.715017
0.721777
0.715487
0.748966
0.776991
0.766495
0.778943
0.755482
0.758818
0.774921
0.791257
0.802829
0.803626
0.799789
0.793348
0.794957
0.801194
0.79847
0.793131
0.855261
0.82425
0.83637
0.832413
0.842826
0.832971
0.839277
0.834806
0.832412
0.836106
0.828742
0.832282
0.834435
0.839774
0.839947
0.834264
0.831655
0.82521
0.839292
0.833674
0.851303
0.849155
0.846208
0.849799
0.840023
0.852826
0.860964
0.807128
0.803985
0.797769
0.79957
0.810797
0.812829
0.797466
0.846265
0.839256
0.842841
0.808418
0.813827
0.804061
0.814637
0.818779
0.829277
0.826522
0.817038
0.810159
0.813042
0.830095
0.813194
0.828191
0.814918
0.82083
0.818621
0.81742
0.760605
0.735146
0.74253
0.735633
0.756181
0.750796
0.736352
0.72535
0.716842
0.718851
0.719124
0.761141
0.768046
0.779417
0.777424
0.701727
0.705646
0.688506
0.707644
0.685366
0.696002
0.750293
0.812483
0.802768
0.803486
0.791059
0.789786
0.788602
0.803814
0.806794
0.789223
0.82781
0.807774
0.827216
0.810505
0.82403
0.818413
0.81213
0.730206
0.755038
0.727207
0.74321
0.737798
0.734659
0.739939
0.722617
0.758605
0.720976
0.752342
0.741637
0.749689
0.744451
0.810423
0.802531
0.817218
0.813614
0.812979
0.808143
0.813687
0.806141
0.809965
0.818333
0.797504
0.806593
0.807791
0.684445
0.7027
0.718611
0.722341
0.718473
0.828673
0.831865
0.834351
0.836145
0.840389
0.843165
0.813582
0.810968
0.840666
0.840669
0.839032
0.841546
0.723151
0.821021
0.812853
0.825682
0.821608
0.818598
0.820251
0.821493
0.80925
0.816921
0.82503
0.830379
0.814646
0.801062
0.820199
0.818688
0.820422
0.815768
0.821497
0.815655
0.789059
0.799333
0.796044
0.806007
0.785171
0.79008
0.803469
0.83308
0.820216
0.828476
0.81546
0.834401
0.834624
0.817987
0.814033
0.79203
0.816907
0.808663
0.814026
0.810387
0.815422
0.791613
0.801799
0.832913
0.812856
0.807475
0.808181
0.814883
0.783952
0.838922
0.829206
0.829456
0.842047
0.839532
0.839065
0.800487
0.835677
0.822517
0.833603
0.830676
0.840116
0.835119
0.835849
0.805861
0.789219
0.814411
0.811318
0.803736
0.801455
0.81563
0.815134
0.815662
0.837793
0.822543
0.828479
0.834139
0.825575
0.792173
0.808468
0.816561
0.823518
0.819891
0.837508
0.820431
0.832189
0.832298
0.823137
0.840598
0.782417
0.784966
0.815451
0.804837
0.778712
0.77987
0.850577
0.850602
0.837151
0.836855
0.839267
0.838655
0.849741
0.848773
0.851722
0.854937
0.850777
0.850399
0.857409
0.847185
0.847924
0.856986
0.849699
0.851196
0.851294
0.851536
0.851344
0.852627
0.846731
0.845116
0.841452
0.850939
0.855713
0.850568
0.851369
0.845348
0.837812
0.832006
0.841414
0.853145
0.839395
0.837266
0.844678
0.845868
0.847712
0.851122
0.834793
0.840295
0.839009
0.845857
0.828937
0.836935
0.845217
0.847746
0.852228
0.846428
0.847856
0.849208
0.848678
0.836257
0.844995
0.837706
0.849001
0.843835
0.843702
0.851897
0.844306
0.850219
0.842283
0.84596
0.837047
0.83317
0.828294
0.830144
0.832863
0.838916
0.841272
0.840679
0.842764
0.838179
0.837081
0.839256
0.840358
0.841496
0.818166
0.819664
0.822523
0.823256
0.846037
0.83407
0.840786
0.84332
0.843786
0.839979
0.840544
0.836598
0.842757
0.842134
0.832905
0.840955
0.836991
0.836971
0.831564
0.825637
0.828618
0.827783
0.816663
0.825457
0.828114
0.813124
0.830266
0.826563
0.825897
0.833769
0.834703
0.843438
0.827633
0.832647
0.836566
0.837706
0.838278
0.829182
0.822595
0.823023
0.829268
0.820004
0.824655
0.83319
0.834988
0.825535
0.833121
0.831978
0.832175
0.837297
0.840972
0.8355
0.835334
0.833255
0.838809
0.869657
0.865282
0.857951
0.866072
0.860391
0.86078
0.869389
0.864597
0.864455
0.863775
0.839863
0.845083
0.847992
0.843481
0.853531
0.85218
0.854615
0.846709
0.852567
0.847054
0.845998
0.847008
0.843991
0.849894
0.855299
0.848774
0.846366
0.84179
0.849198
0.841037
0.842596
0.815013
0.819498
0.791022
0.807939
0.799639
0.804738
0.808116
0.834629
0.850386
0.848494
0.851089
0.849015
0.830653
0.843813
0.844313
0.837003
0.841919
0.843248
0.838798
0.845915
0.841236
0.839105
0.839067
0.849805
0.847567
0.838112
0.816242
0.825434
0.831219
0.816541
0.823041
0.828316
0.845669
0.830908
0.834905
0.836243
0.832791
0.845279
0.838955
0.823494
0.83139
0.835552
0.839165
0.830086
0.839625
0.850969
0.850003
0.810601
0.824953
0.84635
0.842913
0.808948
0.838013
0.832555
0.844357
0.84482
0.835667
0.838343
0.84443
0.846272
0.826188
0.827053
0.834062
0.844763
0.841372
0.839751
0.834993
0.847899
0.837359
0.843925
0.846234
0.84196
0.856779
0.85703
0.863023
0.85763
0.859674
0.861379
0.860221
0.856484
0.861976
0.861743
0.860785
0.861451
0.863235
0.860592
0.860105
0.849915
0.853439
0.853182
0.849406
0.854511
0.853775
0.846955
0.846458
0.848197
0.852837
0.854539
0.849372
0.857074
0.854326
0.859501
0.857435
0.855027
0.854968
0.857382
0.857711
0.86068
0.863245
0.858113
0.861816
0.869305
0.852548
0.863924
0.863261
0.86149
0.858099
0.868617
0.865916
0.869936
0.863347
0.868995
0.862555
0.86764
0.870114
0.867384
0.865521
0.859652
0.869853
0.864455
0.862657
0.868554
0.840957
0.835367
0.854224
0.856256
0.842346
0.850556
0.855865
0.849076
0.851741
0.856397
0.844638
0.859536
0.857682
0.848091
0.854295
0.854711
0.856103
0.849235
0.859104
0.847556
0.853551
0.856384
0.859508
0.855205
0.844451
0.859806
0.864271
0.852557
0.85541
0.854878
0.855595
0.853857
0.851697
0.851253
0.861876
0.86255
0.844046
0.844219
0.848773
0.847507
0.858139
0.840691
0.842521
0.833555
0.841427
0.835011
0.843313
0.840645
0.843664
0.827612
0.829079
0.81585
0.828195
0.82275
0.821456
0.830133
0.83738
0.846636
0.836019
0.84273
0.837778
0.835379
0.83632
0.837346
0.831015
0.837189
0.824823
0.842355
0.831097
0.833511
0.831712
0.829857
0.806992
0.807284
0.810515
0.821669
0.816583
0.811427
0.789509
0.80544
0.804464
0.801459
0.804363
0.81711
0.836848
0.834122
0.817899
0.824081
0.829379
0.827531
0.844046
0.848341
0.838865
0.838682
0.842199
0.838809
0.838232
0.828714
0.840464
0.832011
0.833195
0.816566
0.815454
0.822398
0.825892
0.813741
0.812825
0.82262
0.828107
0.842347
0.814691
0.829603
0.824648
0.825434
0.828526
0.842761
0.844799
0.8222
0.831351
0.839446
0.836596
0.824223
0.769383
0.787073
0.76595
0.782104
0.767014
0.766384
0.809036
0.797214
0.803877
0.821088
0.821116
0.808083
0.807721
0.816544
0.79667
0.802858
0.845878
0.840667
0.834259
0.78787
0.733979
0.760171
0.728479
0.756257
0.749235
0.762633
0.748157
0.805888
0.81482
0.789286
0.790165
0.807816
0.789035
0.804875
0.805439
0.795352
0.75709
0.779728
0.78061
0.782318
0.750053
0.782261
0.762621
0.770106
0.795108
0.809739
0.795572
0.809263
0.79002
0.775736
0.793366
0.791268
0.788739
0.795258
0.810952
0.805608
0.789454
0.82895
0.829107
0.841034
0.823507
0.834232
0.832065
0.831079
0.816914
0.805617
0.819115
0.809755
0.819284
0.815884
0.815654
0.793512
0.792498
0.81894
0.810218
0.799628
0.799671
0.810778
0.800276
0.807501
0.795865
0.804859
0.789567
0.793122
0.802223
0.824418
0.823517
0.815179
0.816686
0.823098
0.825218
0.810916
0.732432
0.727554
0.731847
0.75531
0.760901
0.74926
0.730856
0.751479
0.757654
0.741339
0.790689
0.769057
0.779906
0.768945
0.79521
0.816112
0.797728
0.809099
0.805916
0.803066
0.768744
0.752509
0.769966
0.748427
0.765607
0.78031
0.78659
0.774975
0.786419
0.789741
0.786305
0.777472
0.736926
0.738597
0.763595
0.74393
0.727907
0.748765
0.740318
0.730996
0.750388
0.757583
0.784421
0.751106
0.77966
0.75842
0.765051
0.774316
0.793109
0.800633
0.818622
0.799969
0.810118
0.80671
0.802372
0.786163
0.764636
0.783412
0.77562
0.784124
0.77614
0.78031
0.742713
0.761041
0.784331
0.772653
0.760791
0.760125
0.772237
0.776522
0.760602
0.773214
0.75648
0.758264
0.766465
0.795359
0.782614
0.773626
0.77289
0.79189
0.788189
0.776151
0.705891
0.688697
0.723775
0.755618
0.718347
0.744273
0.72575
0.730133
0.740311
0.811368
0.795025
0.764607
0.781425
0.732604
0.73805
0.753897
0.728052
0.72526
0.789632
0.767053
0.698225
0.699183
0.704335
0.696348
0.718365
0.702914
0.72303
0.700331
0.721084
0.710596
0.718711
0.715671
0.718683
0.706899
0.753706
0.733696
0.736409
0.804484
0.799769
0.796056
0.823605
0.811445
0.826989
0.827688
0.818875
0.813279
0.830088
0.825072
0.830384
0.823738
0.829423
0.823479
0.818498
0.830782
0.833307
0.832467
0.838188
0.826708
0.840431
0.841818
0.832426
0.828295
0.804049
0.812267
0.814095
0.811408
0.807883
0.818414
0.813775
0.829626
0.834052
0.825068
0.82511
0.828592
0.826344
0.804027
0.815032
0.830015
0.820248
0.812231
0.814782
0.822256
0.828379
0.813274
0.823875
0.81935
0.826846
0.824221
0.821095
0.781083
0.777433
0.745217
0.77296
0.759933
0.762608
0.769782
0.8023
0.82459
0.811495
0.814543
0.804438
0.810446
0.817292
0.807184
0.825726
0.829484
0.814235
0.821152
0.823079
0.81578
0.816636
0.808472
0.814478
0.808729
0.822793
0.821497
0.809631
0.78285
0.795894
0.799217
0.804046
0.783615
0.788746
0.798922
0.797347
0.815802
0.79739
0.806537
0.802182
0.804786
0.800899
0.822184
0.81559
0.792511
0.804749
0.806921
0.810365
0.802559
0.793448
0.784285
0.802206
0.807538
0.802337
0.773378
0.766226
0.766282
0.76491
0.7697
0.735174
0.746174
0.748179
0.75341
0.732169
0.758014
0.775457
0.77327
0.791253
0.786422
0.764014
0.760548
0.7545
0.789125
0.762404
0.769422
0.762709
0.802583
0.823003
0.801708
0.805223
0.800776
0.817473
0.793019
0.80778
0.792779
0.802568
0.800697
0.795738
0.747551
0.764697
0.771665
0.742517
0.768471
0.753176
0.75619
0.764555
0.796079
0.799612
0.788176
0.80054
0.784369
0.781412
0.776178
0.798771
0.778351
0.79896
0.79267
0.782384
0.74438
0.782474
0.774157
0.756753
0.776832
0.754237
0.77653
0.746043
0.761252
0.751048
0.757319
0.754879
0.805806
0.80845
0.81705
0.814921
0.807332
0.809059
0.813129
0.765382
0.793063
0.78166
0.779035
0.776173
0.782119
0.773837
0.807263
0.811772
0.795782
0.796248
0.807214
0.811792
0.7944
0.781494
0.786617
0.764154
0.783767
0.767524
0.772288
0.779899
0.801136
0.811446
0.790791
0.797838
0.802126
0.806182
0.791898
0.796743
0.791251
0.760247
0.78357
0.776801
0.777024
0.781273
0.740336
0.755597
0.753739
0.745701
0.747393
0.751976
0.824386
0.829872
0.784916
0.818805
0.793991
0.806337
0.801173
0.766905
0.780799
0.777536
0.758239
0.76191
0.821808
0.695278
0.69055
0.698309
0.710406
0.710654
0.733861
0.739957
0.71259
0.716287
0.735712
0.792598
0.786466
0.803878
0.792771
0.778149
0.771309
0.794019
0.725039
0.751725
0.726091
0.754234
0.764496
0.736864
0.742368
0.734783
0.743173
0.732996
0.770459
0.746886
0.749553
0.744724
0.714755
0.7311
0.752811
0.774238
0.710086
0.68946
0.697444
0.723427
0.703057
0.699468
0.708241
0.847576
0.85419
0.853726
0.854501
0.854404
0.86974
0.868312
0.85725
0.860815
0.863819
0.861705
0.859698
0.870133
0.865107
0.870166
0.867331
0.864505
0.853162
0.853845
0.857595
0.855099
0.862386
0.850713
0.854458
0.860156
0.847544
0.85089
0.846908
0.853148
0.848161
0.851526
0.860112
0.85825
0.852404
0.848486
0.850077
0.859994
0.858568
0.856362
0.861722
0.855746
0.862082
0.860706
0.861564
0.859183
0.849082
0.865897
0.850363
0.854574
0.861896
0.863916
0.863096
0.864961
0.860623
0.854499
0.862881
0.849354
0.860569
0.854211
0.831056
0.825696
0.811969
0.840222
0.825041
0.824535
0.823768
0.787497
0.809824
0.833674
0.835957
0.846321
0.839533
0.835506
0.835069
0.841669
0.845379
0.838119
0.827083
0.833665
0.810078
0.829157
0.830589
0.825797
0.822582
0.830541
0.83063
0.823616
0.824998
0.838927
0.837565
0.838815
0.831166
0.816306
0.81832
0.781213
0.818804
0.822145
0.824652
0.804455
0.841625
0.84532
0.841606
0.845443
0.850477
0.858294
0.841504
0.840947
0.836129
0.845534
0.843407
0.838275
0.849036
0.85141
0.846251
0.840755
0.835023
0.713128
0.782229
0.781392
0.779898
0.772872
0.781471
0.77696
0.776317
0.792319
0.782665
0.780197
0.785493
0.790534
0.774926
0.78373
0.790838
0.825581
0.824554
0.838467
0.834412
0.831242
0.828099
0.831296
0.836176
0.837601
0.841486
0.839118
0.842525
0.85173
0.849791
0.849223
0.855324
0.821316
0.809593
0.841088
0.791312
0.78727
0.806765
0.801706
0.825464
0.80396
0.812599
0.806984
0.793754
0.806968
0.794213
0.804698
0.798111
0.802769
0.798413
0.805046
0.812373
0.80618
0.813072
0.810175
0.814645
0.809841
0.727246
0.750139
0.734714
0.742525
0.73581
0.775641
0.776476
0.779043
0.7538
0.737394
0.680415
0.704375
0.737368
0.795436
0.786482
0.796301
0.798735
0.797273
0.795028
0.801556
0.817904
0.815636
0.821001
0.81241
0.824954
0.815504
0.720501
0.716646
0.733486
0.730297
0.724961
0.718387
0.730513
0.770384
0.754922
0.770922
0.758549
0.765403
0.757272
0.765291
0.824401
0.823912
0.813239
0.820162
0.825222
0.822683
0.817098
0.731461
0.765474
0.74994
0.74726
0.749394
0.757339
0.754637
0.753231
0.827632
0.841956
0.836137
0.823257
0.815945
0.829076
0.825206
0.82524
0.820527
0.831564
0.827778
0.818791
0.832316
0.830692
0.830797
0.825727
0.836286
0.808002
0.812032
0.817613
0.814775
0.812784
0.810836
0.813484
0.814141
0.811336
0.798879
0.807234
0.808332
0.810867
0.804324
0.807386
0.806046
0.793649
0.797492
0.806291
0.802813
0.798179
0.825756
0.816545
0.824104
0.818455
0.821876
0.816803
0.819466
0.746359
0.767359
0.758104
0.767574
0.83727
0.837254
0.788326
0.829556
0.827456
0.823082
0.827493
0.830308
0.83445
0.824514
0.811788
0.813973
0.799644
0.802144
0.813344
0.811682
0.808455
0.829167
0.8185
0.822286
0.824273
0.825324
0.820768
0.824017
0.815989
0.815841
0.818788
0.813234
0.815953
0.814713
0.813871
0.82815
0.81991
0.824995
0.817576
0.822418
0.821395
0.819316
0.777815
0.780617
0.790524
0.80724
0.815811
0.820748
0.816478
0.840484
0.836828
0.84256
0.839909
0.837475
0.843311
0.854175
0.853608
0.856989
0.858593
0.857203
0.856833
0.848442
0.848328
0.84529
0.846372
0.848775
0.846308
0.845889
0.846113
0.852382
0.843233
0.845969
0.847792
0.846705
0.838796
0.857402
0.847439
0.852077
0.848177
0.851267
0.831149
0.831868
0.835971
0.833185
0.829968
0.832791
0.83625
0.834482
0.840513
0.83257
0.839899
0.841983
0.840692
0.836675
0.844977
0.845702
0.844222
0.841891
0.842402
0.851701
0.84266
0.841432
0.847684
0.847214
0.846294
0.847781
0.844393
0.845524
0.84098
0.838421
0.842682
0.843945
0.842161
0.844223
0.849184
0.847885
0.850327
0.845791
0.828672
0.833104
0.828351
0.84356
0.840422
0.834548
0.833968
0.838528
0.832333
0.839045
0.840807
0.843875
0.83214
0.841366
0.829437
0.832089
0.8345
0.834165
0.829327
0.828007
0.827834
0.831543
0.831053
0.847512
0.831821
0.835596
0.832595
0.831973
0.827868
0.828747
0.832912
0.837164
0.841872
0.841627
0.844746
0.84704
0.842652
0.852705
0.838488
0.838637
0.841214
0.837782
0.820806
0.821301
0.820717
0.821933
0.835009
0.827615
0.848504
0.843983
0.83839
0.835325
0.822738
0.826894
0.826463
0.828555
0.830312
0.822372
0.82729
0.827828
0.832137
0.832325
0.832224
0.832248
0.831294
0.828701
0.836327
0.83402
0.839061
0.859626
0.863936
0.860666
0.859535
0.859692
0.858721
0.868673
0.864017
0.865494
0.867841
0.847514
0.856512
0.853387
0.855123
0.855856
0.858498
0.852634
0.852158
0.846142
0.852237
0.855588
0.85159
0.85019
0.855017
0.849397
0.843296
0.846292
0.848511
0.843536
0.846242
0.843387
0.82083
0.827328
0.814281
0.801399
0.814398
0.854135
0.860738
0.856337
0.849172
0.856686
0.846254
0.840843
0.848663
0.840014
0.845606
0.847791
0.843733
0.833127
0.832818
0.833658
0.827273
0.836216
0.831634
0.831414
0.833076
0.837834
0.837407
0.836337
0.831825
0.836743
0.837999
0.837263
0.84378
0.840773
0.838595
0.840371
0.838882
0.820937
0.829315
0.827812
0.823349
0.822902
0.825845
0.821239
0.808037
0.799745
0.845327
0.854161
0.827286
0.844203
0.845254
0.844621
0.844224
0.846377
0.841092
0.845084
0.849005
0.845162
0.840353
0.829924
0.830161
0.827663
0.834251
0.8359
0.817564
0.821903
0.823958
0.818096
0.822005
0.842247
0.85137
0.857771
0.858572
0.856501
0.855072
0.853446
0.862541
0.859398
0.85563
0.863491
0.864874
0.863713
0.866813
0.861546
0.859336
0.858296
0.863831
0.856577
0.855203
0.855419
0.858131
0.848188
0.854267
0.845237
0.851296
0.850883
0.849575
0.846498
0.853107
0.856395
0.848085
0.850553
0.851035
0.852162
0.848111
0.858869
0.866249
0.865092
0.86342
0.860551
0.864616
0.866964
0.869053
0.864082
0.868907
0.865676
0.865112
0.865486
0.869721
0.866868
0.866055
0.865471
0.865547
0.86968
0.868545
0.862318
0.868744
0.869013
0.867571
0.867955
0.869986
0.86807
0.849988
0.857677
0.847487
0.851558
0.854644
0.850521
0.855973
0.85455
0.851694
0.853136
0.865192
0.858211
0.861309
0.861128
0.865119
0.864867
0.849095
0.848195
0.844086
0.849098
0.854057
0.851132
0.846715
0.853469
0.852571
0.848123
0.846088
0.847836
0.843729
0.847652
0.865376
0.859084
0.860116
0.866041
0.859624
0.862854
0.859091
0.850553
0.858826
0.861866
0.860485
0.86315
0.867422
0.850981
0.851423
0.829861
0.832845
0.8325
0.830196
0.823476
0.830154
0.833909
0.831788
0.829362
0.821527
0.831694
0.825491
0.826401
0.820572
0.830877
0.820992
0.84306
0.837609
0.84153
0.843135
0.839835
0.839354
0.840197
0.841933
0.836048
0.841431
0.839645
0.833592
0.837802
0.839742
0.825834
0.832837
0.830658
0.822705
0.829829
0.833782
0.835441
0.83002
0.828681
0.837656
0.833421
0.815119
0.815364
0.794424
0.80645
0.801282
0.79934
0.799134
0.803064
0.800514
0.832148
0.832626
0.849781
0.841216
0.851046
0.844685
0.848661
0.844705
0.84644
0.834055
0.834205
0.825061
0.83292
0.835233
0.833358
0.832356
0.8281
0.831353
0.834919
0.829126
0.827547
0.831056
0.831538
0.825001
0.830463
0.835647
0.834674
0.827857
0.835349
0.837326
0.822337
0.833239
0.834574
0.824318
0.828904
0.830417
0.782994
0.786305
0.793537
0.772668
0.789456
0.778385
0.782869
0.809927
0.799427
0.794766
0.793456
0.791362
0.824216
0.831419
0.821598
0.817471
0.82658
0.816576
0.806709
0.827015
0.826874
0.833298
0.740789
0.759152
0.779097
0.76257
0.777757
0.768429
0.774171
0.767228
0.775527
0.823371
0.822873
0.795227
0.786249
0.791848
0.785932
0.78129
0.778916
0.780647
0.777356
0.774458
0.767069
0.786496
0.78153
0.782919
0.774676
0.778038
0.778557
0.794588
0.776754
0.789938
0.781326
0.783444
0.780945
0.785832
0.780358
0.791316
0.800255
0.799668
0.798632
0.800895
0.837454
0.831963
0.834238
0.830398
0.833006
0.832366
0.82868
0.810447
0.806681
0.801151
0.805144
0.810393
0.810885
0.804713
0.817819
0.811367
0.817815
0.81236
0.817728
0.811
0.816685
0.80799
0.811565
0.819176
0.811417
0.810672
0.809174
0.812152
0.810237
0.810433
0.805406
0.811972
0.805124
0.808671
0.811979
0.711319
0.720088
0.775603
0.781335
0.76302
0.771559
0.769878
0.76456
0.750915
0.7519
0.741026
0.748184
0.761303
0.738647
0.757723
0.733691
0.753153
0.804802
0.795329
0.791347
0.791507
0.799676
0.795957
0.79477
0.757692
0.75549
0.793735
0.780884
0.782789
0.755497
0.783496
0.770257
0.763765
0.762672
0.751319
0.762008
0.771259
0.766253
0.74313
0.733799
0.721416
0.766222
0.750245
0.731912
0.749982
0.73763
0.74398
0.736933
0.743266
0.736019
0.771298
0.77315
0.77822
0.768865
0.775294
0.771974
0.772021
0.809418
0.797624
0.801997
0.80342
0.805124
0.801753
0.805226
0.768932
0.760404
0.75173
0.754013
0.772767
0.761162
0.788346
0.77808
0.793123
0.781877
0.785294
0.781161
0.787278
0.77626
0.77714
0.789706
0.783803
0.78032
0.778596
0.786308
0.759201
0.76809
0.765867
0.766099
0.76005
0.723112
0.722839
0.747729
0.732447
0.738115
0.791694
0.795319
0.759891
0.778092
0.767494
0.780539
0.768543
0.774938
0.760696
0.764298
0.77731
0.760154
0.762804
0.757012
0.766893
0.715392
0.71428
0.723077
0.731892
0.720473
0.7358
0.73782
0.726563
0.728316
0.723279
0.778602
0.772978
0.788553
0.793711
0.798726
0.795418
0.82352
0.825481
0.823446
0.818031
0.827309
0.825068
0.826346
0.802788
0.809504
0.813864
0.816603
0.811757
0.814359
0.812563
0.832389
0.827417
0.82465
0.827679
0.82812
0.827863
0.827707
0.806095
0.813713
0.80078
0.803804
0.810362
0.810352
0.804347
0.834499
0.825682
0.836823
0.832685
0.835417
0.828596
0.834451
0.832797
0.825086
0.83562
0.827932
0.834831
0.825592
0.830917
0.814338
0.814574
0.803902
0.812531
0.809526
0.815107
0.810074
0.760388
0.777204
0.775183
0.774638
0.767153
0.772602
0.770375
0.816754
0.819611
0.820107
0.812298
0.812513
0.813264
0.816571
0.827346
0.817263
0.825482
0.821681
0.824293
0.819581
0.821166
0.80428
0.802326
0.790773
0.802094
0.79951
0.805042
0.79903
0.809605
0.80781
0.819155
0.813276
0.811398
0.806492
0.816891
0.809765
0.80919
0.82041
0.816653
0.810547
0.814349
0.815643
0.791488
0.802596
0.79043
0.798406
0.792466
0.797972
0.794759
0.79443
0.799837
0.717974
0.747699
0.761095
0.747285
0.753581
0.759923
0.761097
0.762442
0.773337
0.764581
0.763858
0.757526
0.767495
0.774298
0.750877
0.761866
0.768377
0.755612
0.769258
0.761025
0.78342
0.76979
0.779102
0.766323
0.777981
0.771579
0.775406
0.81846
0.814348
0.812594
0.812171
0.810571
0.785208
0.798654
0.783074
0.792245
0.784357
0.792092
0.787034
0.726167
0.738963
0.755608
0.770103
0.77487
0.776408
0.765577
0.7726
0.771875
0.768557
0.764883
0.779616
0.793257
0.787476
0.786039
0.785017
0.766256
0.766789
0.774756
0.77919
0.778856
0.779534
0.778084
0.775369
0.778818
0.768196
0.775416
0.770911
0.776602
0.763084
0.765971
0.778907
0.774944
0.768446
0.768607
0.774507
0.824073
0.823273
0.81581
0.814968
0.820839
0.816014
0.818284
0.786313
0.780342
0.796009
0.790506
0.787904
0.782479
0.793628
0.791406
0.791193
0.787928
0.797611
0.790817
0.792799
0.793111
0.780156
0.789357
0.794243
0.79143
0.784549
0.787879
0.788338
0.793256
0.793031
0.796548
0.802028
0.796199
0.796086
0.80249
0.77214
0.787517
0.78329
0.782594
0.777207
0.782224
0.779592
0.829407
0.84409
0.778159
0.775959
0.761205
0.764468
0.774276
0.771854
0.765452
0.80494
0.78996
0.789627
0.789822
0.799164
0.793709
0.793732
0.792894
0.798984
0.794469
0.710677
0.709225
0.700047
0.749421
0.747686
0.764844
0.752487
0.753054
0.747124
0.757883
0.750004
0.747679
0.753435
0.749971
0.749667
0.754026
0.76837
0.752922
0.764833
0.762875
0.766616
0.760494
0.762881
0.780369
0.793765
0.782429
0.782848
0.786302
0.78592
0.78102
0.711642
0.70191
0.70886
0.697462
0.849343
0.854284
0.851991
0.857249
0.849976
0.852394
0.852748
0.860012
0.864823
0.865202
0.863328
0.866563
0.862992
0.870429
0.868693
0.869273
0.868729
0.869521
0.868337
0.87197
0.857761
0.860648
0.863335
0.862706
0.851295
0.847922
0.84675
0.847492
0.851284
0.845228
0.850178
0.850855
0.848448
0.863453
0.850091
0.848539
0.852453
0.85284
0.860122
0.861617
0.864232
0.86237
0.857125
0.859305
0.859832
0.853322
0.857911
0.855337
0.863119
0.864911
0.8603
0.858522
0.863202
0.855011
0.850872
0.857853
0.854093
0.856596
0.85523
0.819359
0.794617
0.796563
0.795094
0.816845
0.820408
0.815932
0.812276
0.81385
0.825009
0.849578
0.84282
0.847932
0.848038
0.844662
0.849423
0.834237
0.842101
0.841627
0.824625
0.841399
0.82555
0.823435
0.821477
0.823013
0.825648
0.823382
0.822004
0.82881
0.822343
0.819899
0.819563
0.808381
0.816483
0.82435
0.825137
0.822306
0.839121
0.838425
0.836702
0.845486
0.83747
0.841156
0.841514
0.847881
0.829688
0.835203