/*--------------------------------*- C++ -*----------------------------------*\
| =========                 |                                                 |
| \\      /  F ield         | OpenFOAM: The Open Source CFD Toolbox           |
|  \\    /   O peration     | Version:  v1612+                                |
|   \\  /    A nd           | Web:      www.OpenFOAM.com                      |
|    \\/     M anipulation  |                                                 |
\*---------------------------------------------------------------------------*/
FoamFile
{
    version     2.0;
    format      ascii;
    class       volVectorField;
    location    "100";
    object      U;
}
// * * * * * * * * * * * * * * * * * * * * * * * * * * * * * * * * * * * * * //

dimensions      [0 1 -1 0 0 0 0];

internalField   nonuniform List<vector> 
21439
(
(-0.268661 0.416502 0.661913)
(-0.124254 0.229407 0.450535)
(-0.239257 0.258274 0.585294)
(-0.11586 0.364771 0.555322)
(-0.188248 0.290116 0.398358)
(-0.185833 0.335575 0.563175)
(-0.264749 0.438337 0.692772)
(-0.257203 0.453368 0.680307)
(-0.281177 0.508346 0.781065)
(-0.146657 0.335254 0.551642)
(-0.226522 0.269709 0.420736)
(-0.171978 0.16504 0.273253)
(-0.149933 0.24268 0.47819)
(-0.217263 0.448604 0.640504)
(-0.304532 0.384771 0.684463)
(-0.322608 0.463215 0.760116)
(-0.280805 0.405398 0.663418)
(-0.326305 0.354505 0.737868)
(-0.410434 0.28411 0.607555)
(-0.193962 0.248607 0.355524)
(-0.256027 0.238034 0.392259)
(-0.356662 0.339023 0.673626)
(-0.20174 0.391112 0.590806)
(-0.152565 0.438523 0.558022)
(-0.222761 0.270609 0.573729)
(-0.367458 0.334436 0.613251)
(-0.260192 0.397111 0.638456)
(-0.334655 0.276342 0.51041)
(-0.277357 0.267873 0.442218)
(-0.305847 0.356685 0.702408)
(-0.0726251 0.214977 0.320598)
(-0.371839 0.371184 0.667847)
(-0.29799 0.295831 0.533833)
(-0.402799 0.288713 0.538407)
(-0.287034 0.464831 0.733424)
(-0.315397 0.483002 0.778951)
(-0.297159 0.452021 0.72573)
(-0.302406 0.318352 0.687)
(-0.282464 0.454177 0.746494)
(-0.350927 0.384959 0.673383)
(-0.180114 0.473202 0.603468)
(-0.366805 0.440926 0.830418)
(-0.137118 0.417492 0.592523)
(-0.324269 0.409355 0.756464)
(-0.294061 0.304054 0.540491)
(-0.151309 0.305963 0.549593)
(-0.404631 0.314184 0.718315)
(-0.404407 0.32413 0.748487)
(-0.187771 0.360081 0.560909)
(-0.413799 0.355836 0.828338)
(-0.230021 0.263701 0.36875)
(-0.260188 0.296615 0.402378)
(-0.360104 0.427499 0.832253)
(-0.163127 0.405517 0.596055)
(-0.120515 0.438436 0.529848)
(-0.301015 0.303462 0.660055)
(-0.275616 0.290196 0.632023)
(-0.276467 0.279448 0.60424)
(-0.119144 0.293644 0.512203)
(-0.165295 0.403302 0.648257)
(-0.255017 0.328418 0.482031)
(-0.370173 0.304832 0.691563)
(-0.196285 0.438722 0.6096)
(-0.345061 0.369532 0.705681)
(-0.161123 0.386717 0.553081)
(-0.403248 0.484586 0.89386)
(-0.196472 0.384953 0.561636)
(-0.0884566 0.247858 0.348666)
(-0.177694 0.339754 0.491006)
(-0.133544 0.380981 0.496534)
(-0.35989 0.385801 0.714356)
(-0.230784 0.233582 0.388772)
(-0.127731 0.409201 0.606293)
(-0.394998 0.451762 0.784054)
(-0.315961 0.37224 0.66561)
(-0.137023 0.446099 0.600127)
(-0.110235 0.44637 0.542736)
(-0.128694 0.418179 0.541076)
(-0.188408 0.37801 0.573274)
(-0.221861 0.307117 0.456493)
(-0.241115 0.296503 0.586019)
(-0.251449 0.338524 0.603018)
(-0.310905 0.282026 0.518889)
(-0.342427 0.344272 0.654424)
(-0.197054 0.419726 0.614756)
(-0.316629 0.415505 0.754191)
(-0.328106 0.441483 0.783154)
(-0.110322 0.196293 0.343891)
(-0.234767 0.339987 0.556846)
(-0.301586 0.406875 0.692574)
(-0.276864 0.427429 0.675375)
(-0.285124 0.393464 0.66605)
(-0.425397 0.473659 0.830806)
(-0.222459 0.388851 0.584617)
(-0.295968 0.420528 0.728872)
(-0.240518 0.416824 0.629236)
(-0.271814 0.428555 0.689663)
(-0.225039 0.391814 0.579892)
(-0.254134 0.268233 0.613277)
(-0.137646 0.29518 0.511391)
(-0.279523 0.44177 0.693049)
(-0.414472 0.333481 0.707049)
(-0.418042 0.342581 0.677565)
(-0.241212 0.465537 0.720849)
(-0.290737 0.267266 0.455396)
(-0.118384 0.18948 0.317199)
(-0.361327 0.416319 0.724557)
(-0.434592 0.421107 0.838981)
(-0.262465 0.211345 0.334505)
(-0.234172 0.394216 0.621766)
(-0.333706 0.417684 0.736177)
(-0.139974 0.411497 0.534652)
(-0.19923 0.422768 0.583518)
(-0.387579 0.279357 0.705762)
(-0.262045 0.39953 0.675461)
(-0.29274 0.424608 0.733727)
(-0.231715 0.22166 0.342447)
(-0.342588 0.412277 0.789383)
(-0.38009 0.33119 0.706587)
(-0.143948 0.207959 0.408583)
(-0.18808 0.45704 0.600291)
(-0.178866 0.248036 0.504826)
(-0.207632 0.287745 0.586759)
(-0.168478 0.189736 0.298019)
(-0.347293 0.41024 0.788967)
(-0.378573 0.446339 0.851621)
(-0.35065 0.415367 0.787065)
(-0.342409 0.402385 0.776385)
(-0.356014 0.417207 0.801822)
(-0.191332 0.167751 0.266508)
(-0.189789 0.387516 0.555352)
(-0.224369 0.446689 0.664207)
(-0.166244 0.424802 0.618344)
(-0.169788 0.427896 0.590037)
(-0.133751 0.386561 0.503503)
(-0.136999 0.361928 0.483328)
(-0.186098 0.421705 0.615901)
(-0.158858 0.373786 0.521661)
(-0.243366 0.288944 0.442213)
(-0.234945 0.420576 0.663745)
(-0.256283 0.421571 0.675943)
(-0.343068 0.386399 0.786052)
(-0.279755 0.233904 0.38537)
(-0.0842864 0.221696 0.387668)
(-0.380264 0.419117 0.852293)
(-0.384158 0.32541 0.793071)
(-0.3219 0.394141 0.749871)
(-0.310406 0.39383 0.726471)
(-0.274096 0.342136 0.546372)
(-0.243444 0.305083 0.486511)
(-0.286875 0.370512 0.631893)
(-0.374156 0.330652 0.741344)
(-0.198987 0.293819 0.574324)
(-0.172566 0.244431 0.507037)
(-0.219131 0.283884 0.602087)
(-0.142129 0.225364 0.443587)
(-0.239776 0.234015 0.592072)
(-0.192057 0.389317 0.550478)
(-0.186884 0.382895 0.545327)
(-0.210789 0.421467 0.609036)
(-0.420064 0.369073 0.803739)
(-0.390806 0.330783 0.757734)
(-0.405937 0.281433 0.711044)
(-0.383953 0.268191 0.577625)
(-0.156326 0.183688 0.290206)
(-0.172899 0.196718 0.31204)
(-0.23276 0.435406 0.651577)
(-0.225833 0.449814 0.667499)
(-0.115552 0.232655 0.329715)
(-0.138062 0.253286 0.358001)
(-0.16928 0.256832 0.375951)
(-0.115817 0.232198 0.338193)
(-0.21472 0.445819 0.616881)
(-0.202444 0.429087 0.587257)
(-0.176923 0.398608 0.562842)
(-0.177303 0.363339 0.573829)
(-0.107794 0.435322 0.517622)
(-0.350522 0.413207 0.719974)
(-0.331243 0.401515 0.693341)
(-0.310434 0.368391 0.641544)
(-0.311417 0.399681 0.684211)
(-0.321473 0.400683 0.668074)
(-0.326598 0.455263 0.745726)
(-0.284039 0.397879 0.644002)
(-0.231373 0.353355 0.569727)
(-0.311681 0.330638 0.649818)
(-0.244937 0.373007 0.581361)
(-0.244896 0.379843 0.575828)
(-0.231863 0.301907 0.48261)
(-0.266933 0.338191 0.530026)
(-0.266736 0.348908 0.56863)
(-0.21169 0.297697 0.467794)
(-0.291326 0.345965 0.593745)
(-0.345259 0.391758 0.683209)
(-0.387142 0.439372 0.763632)
(-0.235215 0.403696 0.601523)
(-0.258041 0.429931 0.654688)
(-0.267446 0.44795 0.691139)
(-0.143985 0.189194 0.291063)
(-0.128478 0.189809 0.297297)
(-0.139164 0.191677 0.29094)
(-0.238095 0.263737 0.403466)
(-0.237485 0.254504 0.398887)
(-0.177912 0.215834 0.32833)
(-0.114447 0.163243 0.260725)
(-0.334219 0.324366 0.751981)
(-0.399719 0.327941 0.714778)
(-0.203119 0.448947 0.657819)
(-0.237993 0.397269 0.653095)
(-0.348886 0.388894 0.787081)
(-0.367188 0.442299 0.847001)
(-0.333437 0.409217 0.76727)
(-0.283357 0.437264 0.694278)
(-0.290498 0.451258 0.729827)
(-0.294381 0.456114 0.734629)
(-0.262148 0.403961 0.658894)
(-0.369327 0.285903 0.74129)
(-0.36085 0.300377 0.77376)
(-0.189523 0.32359 0.509658)
(-0.25051 0.364291 0.62859)
(-0.17383 0.305103 0.541317)
(-0.176351 0.336745 0.526875)
(-0.298658 0.390963 0.683814)
(-0.333642 0.436085 0.757869)
(-0.134196 0.297845 0.515792)
(-0.126386 0.285667 0.484254)
(-0.322748 0.345352 0.69116)
(-0.294752 0.401073 0.71154)
(-0.327743 0.423259 0.744191)
(-0.313734 0.416115 0.743098)
(-0.356946 0.448149 0.811514)
(-0.367825 0.454044 0.776557)
(-0.333888 0.425647 0.734743)
(-0.311494 0.342745 0.641619)
(-0.270953 0.364634 0.630534)
(-0.258367 0.328306 0.580887)
(-0.316999 0.27267 0.549012)
(-0.129545 0.294357 0.522831)
(-0.370984 0.325282 0.695137)
(-0.369864 0.344243 0.686)
(-0.399458 0.362952 0.734953)
(-0.352353 0.316985 0.695643)
(-0.125391 0.177442 0.330367)
(-0.314195 0.266018 0.648853)
(-0.343524 0.293367 0.71002)
(-0.293446 0.260739 0.633526)
(-0.429294 0.302121 0.775377)
(-0.145739 0.220174 0.388104)
(-0.116595 0.174134 0.307894)
(-0.14409 0.213613 0.351905)
(-0.254869 0.22945 0.577201)
(-0.224217 0.259065 0.573668)
(-0.230743 0.234331 0.561307)
(-0.193267 0.239701 0.50854)
(-0.19101 0.393856 0.59191)
(-0.148419 0.366467 0.479365)
(-0.175868 0.359581 0.526964)
(-0.175277 0.192108 0.304836)
(-0.253521 0.399071 0.671814)
(-0.244932 0.409458 0.673054)
(-0.177963 0.22203 0.338872)
(-0.387289 0.284806 0.555007)
(-0.126784 0.26588 0.493388)
(-0.144515 0.205429 0.348139)
(-0.281348 0.222419 0.389871)
(-0.416883 0.289804 0.63695)
(-0.360405 0.240294 0.506218)
(-0.355258 0.225893 0.524947)
(-0.391292 0.24613 0.582186)
(-0.413412 0.282096 0.619007)
(-0.398789 0.253251 0.56254)
(-0.153282 0.153524 0.249769)
(-0.143433 0.450531 0.622404)
(-0.210385 0.201657 0.316035)
(-0.218961 0.217164 0.331421)
(-0.310957 0.401711 0.671135)
(-0.260503 0.355259 0.590856)
(-0.135834 0.286775 0.4051)
(-0.343953 0.291629 0.606854)
(-0.373184 0.327744 0.672555)
(-0.362538 0.322067 0.647071)
(-0.374813 0.312796 0.703204)
(-0.370175 0.260023 0.495898)
(-0.411799 0.271559 0.551622)
(-0.392543 0.315384 0.697521)
(-0.367002 0.300024 0.644647)
(-0.363865 0.410813 0.824387)
(-0.255973 0.421652 0.663008)
(-0.239177 0.385929 0.603107)
(-0.187952 0.22405 0.332037)
(-0.18312 0.185303 0.300332)
(-0.256032 0.243238 0.388309)
(-0.392417 0.269173 0.615609)
(-0.350868 0.224321 0.500285)
(-0.35969 0.230559 0.491395)
(-0.400141 0.257298 0.561849)
(-0.405168 0.259653 0.627667)
(-0.4171 0.300382 0.647707)
(-0.341215 0.236668 0.525804)
(-0.238082 0.224512 0.579677)
(-0.247338 0.402792 0.655268)
(-0.257606 0.424693 0.702093)
(-0.377847 0.44024 0.856836)
(-0.160964 0.418816 0.572045)
(-0.152129 0.38752 0.528322)
(-0.0725137 0.217659 0.370742)
(-0.088002 0.218069 0.359903)
(-0.3739 0.427867 0.758915)
(-0.0653344 0.200044 0.297341)
(-0.0965292 0.254096 0.362724)
(-0.0683043 0.25909 0.418011)
(-0.201681 0.412872 0.592984)
(-0.0768295 0.408016 0.460351)
(-0.129805 0.21844 0.397819)
(-0.155827 0.248611 0.494115)
(-0.13308 0.202269 0.300689)
(-0.106418 0.167281 0.293607)
(-0.176766 0.445543 0.649525)
(-0.0684207 0.224394 0.334948)
(-0.0919781 0.265733 0.395566)
(-0.361746 0.26922 0.728957)
(-0.226144 0.225986 0.359871)
(-0.312382 0.228072 0.403217)
(-0.307412 0.313529 0.653938)
(-0.34416 0.323189 0.718181)
(-0.204069 0.281205 0.405)
(-0.230548 0.277377 0.434019)
(-0.153933 0.393544 0.496311)
(-0.307636 0.220545 0.408939)
(-0.281998 0.238187 0.401559)
(-0.354123 0.253938 0.51814)
(-0.310734 0.239007 0.455612)
(-0.350751 0.435462 0.777395)
(-0.333352 0.400922 0.759282)
(-0.340297 0.325857 0.651415)
(-0.371431 0.363406 0.721322)
(-0.320787 0.297198 0.619721)
(-0.127469 0.235095 0.337808)
(-0.0823626 0.186806 0.288716)
(-0.167029 0.209533 0.334363)
(-0.1245 0.43207 0.552779)
(-0.214097 0.414684 0.619661)
(-0.178789 0.304532 0.550267)
(-0.153017 0.277464 0.488535)
(-0.154725 0.276585 0.53621)
(-0.163183 0.319568 0.480375)
(-0.375135 0.440606 0.802536)
(-0.226995 0.342649 0.564208)
(-0.334487 0.238499 0.468237)
(-0.288235 0.430152 0.73886)
(-0.259458 0.414191 0.691942)
(-0.344106 0.289083 0.671132)
(-0.213668 0.44834 0.687568)
(-0.381456 0.329487 0.752865)
(-0.243983 0.347694 0.557185)
(-0.262279 0.32563 0.553181)
(-0.408176 0.355211 0.850054)
(-0.108967 0.237917 0.345201)
(-0.373089 0.29626 0.723991)
(-0.356562 0.369897 0.780834)
(-0.371502 0.321806 0.789844)
(-0.410523 0.437195 0.773704)
(-0.128456 0.159422 0.299587)
(-0.297441 0.414899 0.695439)
(-0.344894 0.462657 0.790742)
(-0.2024 0.446255 0.616823)
(-0.136912 0.17193 0.27862)
(-0.354114 0.421147 0.722538)
(-0.219469 0.384004 0.595584)
(-0.28194 0.262045 0.666737)
(-0.167398 0.344807 0.494605)
(-0.13541 0.233609 0.411938)
(-0.17073 0.43586 0.585034)
(-0.113325 0.227146 0.445617)
(-0.0967418 0.24016 0.451333)
(-0.0937769 0.210809 0.409094)
(-0.111435 0.23914 0.429241)
(-0.0744317 0.197618 0.360104)
(-0.237147 0.482271 0.715646)
(-0.110789 0.37938 0.560232)
(-0.172406 0.442882 0.646161)
(-0.196172 0.440919 0.650526)
(-0.348818 0.352425 0.704222)
(-0.331008 0.349367 0.756212)
(-0.342933 0.376066 0.767469)
(-0.35796 0.373657 0.782474)
(-0.343439 0.336791 0.671255)
(-0.365123 0.35525 0.725858)
(-0.337277 0.329292 0.670735)
(-0.355166 0.443283 0.772762)
(-0.124349 0.433995 0.580591)
(-0.0985324 0.406649 0.490841)
(-0.373692 0.440424 0.772714)
(-0.425671 0.416473 0.769394)
(-0.412865 0.314312 0.760609)
(-0.225367 0.422124 0.657493)
(-0.25038 0.433667 0.688718)
(-0.327797 0.342169 0.627586)
(-0.19601 0.277995 0.543062)
(-0.212453 0.230779 0.541803)
(-0.14706 0.210128 0.380548)
(-0.372641 0.463118 0.796932)
(-0.286254 0.409452 0.68974)
(-0.266292 0.375137 0.636366)
(-0.118078 0.269981 0.514453)
(-0.203262 0.37255 0.600483)
(-0.231219 0.292012 0.47356)
(-0.232581 0.314618 0.558526)
(-0.227497 0.32391 0.5564)
(-0.278405 0.360098 0.645506)
(-0.405354 0.448744 0.792346)
(-0.223055 0.347593 0.527063)
(-0.366779 0.409747 0.715201)
(-0.139961 0.188282 0.290746)
(-0.315803 0.359935 0.662146)
(-0.343968 0.366786 0.689919)
(-0.186379 0.452036 0.580426)
(-0.193227 0.430655 0.576942)
(-0.198655 0.384927 0.55738)
(-0.205104 0.340442 0.534272)
(-0.229346 0.378391 0.574345)
(-0.134622 0.17704 0.293801)
(-0.130364 0.158247 0.263407)
(-0.0861649 0.343775 0.452264)
(-0.0742805 0.312117 0.418062)
(-0.280759 0.398964 0.646425)
(-0.315277 0.412155 0.693893)
(-0.34574 0.429543 0.729295)
(-0.171029 0.376212 0.579419)
(-0.396022 0.255393 0.664907)
(-0.266895 0.324414 0.583197)
(-0.257505 0.310293 0.582909)
(-0.268119 0.297711 0.59868)
(-0.238492 0.251366 0.589331)
(-0.220985 0.257833 0.564713)
(-0.346298 0.360196 0.784542)
(-0.354725 0.314467 0.735001)
(-0.305571 0.425609 0.740818)
(-0.282989 0.298207 0.535578)
(-0.336991 0.404188 0.711777)
(-0.0611804 0.228657 0.400531)
(-0.0914645 0.243045 0.44158)
(-0.0885643 0.203172 0.392832)
(-0.287979 0.356031 0.658356)
(-0.151035 0.251777 0.478773)
(-0.235994 0.430101 0.652522)
(-0.263727 0.446747 0.687828)
(-0.277421 0.439592 0.722543)
(-0.309658 0.472687 0.784379)
(-0.288413 0.442879 0.739148)
(-0.302473 0.420797 0.733078)
(-0.183668 0.177239 0.279658)
(-0.213451 0.427796 0.606911)
(-0.227477 0.263112 0.400079)
(-0.147292 0.198 0.311491)
(-0.388983 0.281734 0.688302)
(-0.383133 0.340375 0.786035)
(-0.368965 0.276264 0.708135)
(-0.351137 0.310097 0.752768)
(-0.333731 0.298577 0.705589)
(-0.387425 0.361354 0.83318)
(-0.328211 0.324821 0.68433)
(-0.366982 0.275209 0.499443)
(-0.140615 0.366642 0.546057)
(-0.258557 0.270681 0.574472)
(-0.0507769 0.26003 0.357713)
(-0.241892 0.217842 0.325565)
(-0.289808 0.396916 0.681829)
(-0.235232 0.301363 0.573481)
(-0.242189 0.316854 0.521002)
(-0.222565 0.402178 0.601518)
(-0.159158 0.238688 0.486744)
(-0.313338 0.398701 0.744523)
(-0.333944 0.415595 0.768445)
(-0.222839 0.402188 0.613998)
(-0.159486 0.2172 0.45498)
(-0.216197 0.423102 0.607919)
(-0.370952 0.429476 0.742184)
(-0.363073 0.301753 0.715846)
(-0.328288 0.400245 0.685933)
(-0.368112 0.32426 0.779512)
(-0.1105 0.214999 0.323142)
(-0.256289 0.422771 0.665926)
(-0.357016 0.34529 0.692141)
(-0.195241 0.254581 0.39834)
(-0.391776 0.306717 0.770512)
(-0.366934 0.460563 0.786309)
(-0.332808 0.427747 0.728171)
(-0.265305 0.234223 0.584492)
(-0.150341 0.189621 0.305374)
(-0.208767 0.428339 0.649371)
(-0.181396 0.171119 0.266459)
(-0.140141 0.263446 0.504763)
(-0.435215 0.279986 0.691755)
(-0.419398 0.266729 0.712347)
(-0.395492 0.232049 0.63882)
(-0.372456 0.374135 0.82961)
(-0.379915 0.256109 0.699421)
(-0.383799 0.267967 0.734532)
(-0.216338 0.207812 0.327334)
(-0.230362 0.203377 0.324261)
(-0.370483 0.341838 0.789547)
(-0.342784 0.372008 0.752666)
(-0.291498 0.230663 0.382399)
(-0.276656 0.21621 0.366249)
(-0.302776 0.386986 0.667168)
(-0.311301 0.381145 0.671766)
(-0.225447 0.385822 0.627228)
(-0.340231 0.275023 0.583887)
(-0.392413 0.314304 0.662736)
(-0.299401 0.389614 0.703717)
(-0.164027 0.254201 0.374615)
(-0.341045 0.380303 0.737397)
(-0.161244 0.415834 0.637627)
(-0.188287 0.433123 0.672394)
(-0.0913042 0.207027 0.358884)
(-0.1037 0.218524 0.33757)
(-0.10168 0.20179 0.310816)
(-0.363115 0.246397 0.609402)
(-0.24556 0.433158 0.671389)
(-0.367787 0.339903 0.69797)
(-0.384766 0.358818 0.761741)
(-0.143715 0.384271 0.582395)
(-0.187352 0.409739 0.642498)
(-0.15824 0.357258 0.574895)
(-0.354023 0.367978 0.671545)
(-0.373473 0.425135 0.742474)
(-0.379605 0.431766 0.740977)
(-0.391553 0.444968 0.761677)
(-0.290537 0.409419 0.707774)
(-0.29956 0.42172 0.719969)
(-0.267203 0.369784 0.619333)
(-0.38592 0.404938 0.719889)
(-0.307167 0.44431 0.717384)
(-0.297249 0.420092 0.68138)
(-0.299219 0.444628 0.728489)
(-0.243995 0.392007 0.643625)
(-0.123389 0.215117 0.312616)
(-0.132871 0.205489 0.384822)
(-0.105689 0.161717 0.310683)
(-0.179533 0.373358 0.601774)
(-0.178153 0.375777 0.593458)
(-0.24618 0.402957 0.63639)
(-0.297199 0.387129 0.660963)
(-0.259926 0.356493 0.602616)
(-0.279738 0.339934 0.585619)
(-0.28128 0.394289 0.651442)
(-0.176806 0.468078 0.673659)
(-0.192626 0.438375 0.663549)
(-0.184474 0.436479 0.665458)
(-0.107311 0.287833 0.394734)
(-0.0445911 0.23157 0.331502)
(-0.194873 0.296548 0.551896)
(-0.165471 0.254002 0.49449)
(-0.171943 0.455439 0.66229)
(-0.298251 0.292184 0.509221)
(-0.218697 0.236149 0.367016)
(-0.172327 0.202388 0.312072)
(-0.140811 0.160858 0.266909)
(-0.184684 0.238483 0.501339)
(-0.220786 0.440499 0.62578)
(-0.183975 0.428516 0.628364)
(-0.0724056 0.191917 0.357082)
(-0.366175 0.347725 0.795967)
(-0.140456 0.218511 0.333005)
(-0.281842 0.339767 0.56689)
(-0.176441 0.250035 0.502108)
(-0.0970762 0.224949 0.429759)
(-0.287487 0.364038 0.648453)
(-0.32833 0.372508 0.74881)
(-0.32042 0.281713 0.694634)
(-0.23335 0.404119 0.598301)
(-0.172364 0.31243 0.46253)
(-0.169225 0.272684 0.470396)
(-0.117595 0.206775 0.387544)
(-0.16606 0.385292 0.582181)
(-0.306311 0.240763 0.435166)
(-0.334896 0.227968 0.483385)
(-0.360273 0.271547 0.541223)
(-0.255703 0.443198 0.707401)
(-0.245148 0.416943 0.669491)
(-0.294653 0.440224 0.73324)
(-0.258338 0.414151 0.647567)
(-0.430812 0.396935 0.759932)
(-0.336409 0.262352 0.620264)
(-0.32353 0.259306 0.62274)
(-0.0343938 0.251953 0.399406)
(-0.362833 0.250786 0.460505)
(-0.349606 0.259778 0.520282)
(-0.312673 0.326179 0.597057)
(-0.232799 0.30018 0.491809)
(-0.239365 0.302353 0.490569)
(-0.356755 0.379543 0.814088)
(-0.31084 0.423993 0.702912)
(-0.364544 0.430337 0.745912)
(-0.248408 0.379511 0.615706)
(-0.247825 0.391679 0.627964)
(-0.207072 0.410855 0.651047)
(-0.101134 0.165927 0.285581)
(-0.27835 0.403429 0.652902)
(-0.212713 0.372065 0.557434)
(-0.223198 0.362586 0.543829)
(-0.156669 0.400887 0.524851)
(-0.431098 0.268259 0.638245)
(-0.2061 0.371606 0.583864)
(-0.297298 0.581689 0.854658)
(-0.39425 0.510495 0.890626)
(-0.135547 0.200638 0.32374)
(-0.241639 0.424546 0.668152)
(-0.402363 0.487295 0.897154)
(-0.300588 0.254425 0.461639)
(-0.297176 0.378682 0.633041)
(-0.29082 0.301644 0.535883)
(-0.323651 0.493639 0.795494)
(-0.395372 0.469305 0.818955)
(-0.27049 0.497775 0.770065)
(-0.310337 0.42865 0.715122)
(-0.387551 0.458317 0.825102)
(-0.168405 0.323858 0.432641)
(-0.268534 0.461413 0.723738)
(-0.301402 0.572239 0.858119)
(-0.275938 0.43882 0.576391)
(-0.279902 0.609361 0.869871)
(-0.280563 0.400025 0.682939)
(-0.211143 0.448554 0.671764)
(-0.280337 0.433461 0.753603)
(-0.200685 0.414889 0.676552)
(-0.293756 0.51174 0.798369)
(-0.248205 0.476563 0.718028)
(-0.303082 0.535359 0.812261)
(-0.265421 0.503879 0.775222)
(-0.358431 0.444377 0.757866)
(-0.351156 0.514689 0.774051)
(-0.381386 0.440704 0.763206)
(-0.395481 0.476329 0.816342)
(-0.401543 0.505777 0.897626)
(-0.342219 0.426505 0.774719)
(-0.360567 0.437737 0.775839)
(-0.162431 0.244303 0.386876)
(-0.241644 0.254166 0.39339)
(-0.159658 0.212784 0.32171)
(-0.133642 0.163203 0.249375)
(-0.147039 0.260573 0.377138)
(-0.25202 0.433602 0.655915)
(-0.158947 0.226247 0.3299)
(-0.195892 0.32836 0.429876)
(-0.198118 0.265633 0.547198)
(-0.163572 0.276156 0.524035)
(-0.233146 0.38773 0.678926)
(-0.194916 0.336131 0.60848)
(-0.111085 0.23005 0.38995)
(-0.135771 0.24719 0.487043)
(-0.103571 0.270041 0.475317)
(-0.146617 0.348643 0.530159)
(-0.12448 0.268101 0.497067)
(-0.1318 0.171203 0.304268)
(-0.216314 0.247305 0.521559)
(-0.150653 0.2174 0.424134)
(-0.262628 0.264573 0.612076)
(-0.317523 0.487579 0.70777)
(-0.402269 0.42466 0.882272)
(-0.397084 0.441943 0.88452)
(-0.405005 0.505485 0.903861)
(-0.43714 0.518184 0.859736)
(-0.412213 0.445825 0.797497)
(-0.394267 0.424391 0.761029)
(-0.406586 0.39967 0.727139)
(-0.231456 0.417446 0.505264)
(-0.383829 0.464009 0.862062)
(-0.379193 0.432577 0.809219)
(-0.189919 0.303362 0.421833)
(-0.260934 0.200058 0.315307)
(-0.332067 0.307933 0.453875)
(-0.242327 0.188495 0.30686)
(-0.367505 0.402635 0.590594)
(-0.368431 0.246757 0.484077)
(-0.380812 0.415317 0.749338)
(-0.438211 0.340413 0.764042)
(-0.373552 0.295291 0.493399)
(-0.361553 0.236471 0.505128)
(-0.392191 0.262768 0.636379)
(-0.303024 0.456013 0.687013)
(-0.436241 0.350736 0.777269)
(-0.408263 0.361805 0.848083)
(-0.409762 0.404501 0.790882)
(-0.414759 0.328993 0.756347)
(-0.392893 0.376443 0.759078)
(-0.312579 0.363607 0.494735)
(-0.374838 0.308703 0.609626)
(-0.352193 0.421538 0.630025)
(-0.284877 0.303914 0.474279)
(-0.41632 0.326066 0.678027)
(-0.285893 0.322046 0.587362)
(-0.144608 0.38096 0.534185)
(-0.314065 0.542005 0.826395)
(-0.283777 0.443986 0.711695)
(-0.224881 0.509964 0.732598)
(-0.293456 0.53589 0.805785)
(-0.387832 0.516696 0.880987)
(-0.335228 0.439938 0.734485)
(-0.397251 0.490617 0.827222)
(-0.398928 0.539976 0.870553)
(-0.406459 0.510274 0.861)
(-0.408551 0.494011 0.841651)
(-0.358315 0.52667 0.79949)
(-0.337325 0.516484 0.817163)
(-0.230815 0.439071 0.660632)
(-0.330328 0.514325 0.817431)
(-0.233239 0.455963 0.700396)
(-0.331061 0.508759 0.835152)
(-0.354535 0.48312 0.835011)
(-0.390523 0.505376 0.83958)
(-0.265786 0.402474 0.671402)
(-0.378443 0.55057 0.89664)
(-0.392096 0.548963 0.898073)
(-0.295506 0.44339 0.727084)
(-0.179608 0.436313 0.585122)
(-0.235413 0.560514 0.784076)
(-0.227112 0.538336 0.75178)
(-0.27175 0.434708 0.691998)
(-0.11163 0.371798 0.500457)
(-0.252298 0.469836 0.635047)
(-0.348631 0.441534 0.67885)
(-0.255448 0.455969 0.575524)
(-0.338434 0.503519 0.786544)
(-0.21424 0.389419 0.470673)
(-0.321174 0.432196 0.603067)
(-0.328137 0.512756 0.763002)
(-0.31244 0.568214 0.84912)
(-0.201545 0.413936 0.566182)
(-0.242511 0.438518 0.681591)
(-0.289847 0.469802 0.667474)
(-0.270288 0.508834 0.765866)
(-0.193113 0.40247 0.592697)
(-0.297896 0.506465 0.724552)
(-0.323593 0.503682 0.816916)
(-0.347561 0.514746 0.859227)
(-0.232781 0.401358 0.558458)
(-0.262606 0.513332 0.727237)
(-0.210107 0.441386 0.623494)
(-0.317033 0.537921 0.816844)
(-0.203169 0.395671 0.577644)
(-0.224975 0.484539 0.665399)
(-0.30918 0.479621 0.776883)
(-0.34696 0.565929 0.868337)
(-0.292561 0.487508 0.734455)
(-0.376855 0.490811 0.844357)
(-0.309843 0.498557 0.722035)
(-0.364482 0.553657 0.864795)
(-0.305354 0.514806 0.735214)
(-0.361384 0.4956 0.830133)
(-0.293695 0.582722 0.846913)
(-0.282055 0.566127 0.831926)
(-0.239059 0.524535 0.762662)
(-0.215737 0.431877 0.609254)
(-0.28761 0.595217 0.864357)
(-0.0935414 0.420588 0.469538)
(-0.238201 0.493652 0.709018)
(-0.148248 0.458067 0.601823)
(-0.248025 0.566219 0.79483)
(-0.207882 0.459757 0.62478)
(-0.420916 0.511186 0.815197)
(-0.372558 0.308772 0.698559)
(-0.190833 0.201793 0.497733)
(-0.297164 0.272181 0.667625)
(-0.275921 0.252693 0.598438)
(-0.415034 0.411289 0.795011)
(-0.397949 0.456044 0.795619)
(-0.319087 0.33602 0.739766)
(-0.265155 0.27913 0.561669)
(-0.163751 0.269112 0.403973)
(-0.150978 0.282155 0.40285)
(-0.275887 0.476352 0.764844)
(-0.279235 0.458324 0.744691)
(-0.2463 0.43933 0.696486)
(-0.321445 0.584136 0.879838)
(-0.307662 0.578413 0.855853)
(-0.332256 0.57735 0.874816)
(-0.316017 0.57263 0.860302)
(-0.310141 0.591807 0.8708)
(-0.304457 0.585216 0.865249)
(-0.324283 0.57509 0.862711)
(-0.0353613 0.320683 0.410008)
(-0.0646357 0.333505 0.437665)
(-0.395495 0.494578 0.89662)
(-0.380196 0.472201 0.868195)
(-0.38178 0.45859 0.868308)
(-0.360028 0.446012 0.834301)
(-0.397287 0.51265 0.906173)
(-0.398221 0.505301 0.898111)
(-0.366645 0.44971 0.844023)
(-0.141535 0.191225 0.3118)
(-0.147375 0.229022 0.344904)
(-0.128147 0.208354 0.314121)
(-0.328272 0.41403 0.782832)
(-0.209835 0.279438 0.584685)
(-0.3209 0.398813 0.772454)
(-0.255764 0.346257 0.692323)
(-0.288733 0.420884 0.750141)
(-0.253548 0.397271 0.685621)
(-0.262902 0.347496 0.689462)
(-0.255288 0.394614 0.715434)
(-0.247556 0.355429 0.616443)
(-0.248192 0.364882 0.673532)
(-0.213386 0.334572 0.591741)
(-0.153662 0.27296 0.514833)
(-0.262516 0.371503 0.68817)
(-0.176744 0.306322 0.411622)
(-0.216593 0.314191 0.462449)
(-0.129654 0.230581 0.348071)
(-0.101013 0.18447 0.28448)
(-0.428065 0.499745 0.870588)
(-0.408682 0.502124 0.884363)
(-0.40257 0.496148 0.888397)
(-0.420344 0.485006 0.835252)
(-0.387436 0.439854 0.763407)
(-0.249369 0.201461 0.344005)
(-0.312101 0.228989 0.431511)
(-0.397163 0.476214 0.885474)
(-0.340409 0.320993 0.716301)
(-0.380989 0.429407 0.854598)
(-0.335685 0.332672 0.715491)
(-0.395421 0.424245 0.86172)
(-0.401863 0.4148 0.865175)
(-0.346139 0.353536 0.751394)
(-0.310617 0.2407 0.463963)
(-0.357068 0.259033 0.553222)
(-0.344343 0.258511 0.506777)
(-0.325116 0.354819 0.606548)
(-0.150225 0.256548 0.371286)
(-0.334207 0.363525 0.644899)
(-0.313731 0.302605 0.570814)
(-0.262857 0.304484 0.503848)
(-0.26716 0.363313 0.633159)
(-0.267691 0.376064 0.626876)
(-0.277507 0.434296 0.704625)
(-0.294698 0.461271 0.74199)
(-0.249392 0.386404 0.619225)
(-0.367721 0.441658 0.812797)
(-0.378959 0.520802 0.843367)
(-0.353021 0.424215 0.78894)
(-0.382778 0.505326 0.843823)
(-0.395894 0.475755 0.835452)
(-0.401232 0.490597 0.845782)
(-0.37522 0.491656 0.833201)
(-0.337906 0.574824 0.873599)
(-0.272548 0.478409 0.741277)
(-0.323406 0.575493 0.870704)
(-0.276753 0.503864 0.779847)
(-0.307912 0.541557 0.830394)
(-0.273303 0.50019 0.762559)
(-0.295085 0.524842 0.804073)
(-0.250571 0.431174 0.695904)
(-0.237641 0.479915 0.73502)
(-0.235732 0.427791 0.693435)
(-0.222416 0.424579 0.666713)
(-0.272578 0.423885 0.694935)
(-0.288252 0.422305 0.691825)
(-0.301503 0.422711 0.700418)
(-0.321239 0.441218 0.726181)
(-0.229047 0.516853 0.773774)
(-0.212631 0.481161 0.734467)
(-0.189343 0.418308 0.627653)
(-0.199038 0.463097 0.677268)
(-0.178065 0.398833 0.597023)
(-0.188802 0.470974 0.703764)
(-0.298152 0.401491 0.71487)
(-0.182636 0.311637 0.461513)
(-0.179872 0.334533 0.486636)
(-0.391235 0.490434 0.880801)
(-0.382377 0.525824 0.886556)
(-0.38483 0.458325 0.867894)
(-0.383332 0.50394 0.890708)
(-0.375373 0.487542 0.840627)
(-0.36954 0.488842 0.834552)
(-0.386786 0.49565 0.885594)
(-0.214445 0.356472 0.459327)
(-0.313214 0.437397 0.670925)
(-0.211633 0.310909 0.449597)
(-0.267377 0.386085 0.564853)
(-0.215228 0.376557 0.492881)
(-0.215219 0.380064 0.502412)
(-0.25751 0.37334 0.533713)
(-0.313909 0.513858 0.821647)
(-0.334873 0.555004 0.870047)
(-0.308814 0.541895 0.845623)
(-0.330355 0.55222 0.867652)
(-0.321928 0.519445 0.840637)
(-0.308065 0.492833 0.800747)
(-0.329234 0.556553 0.87487)
(-0.273862 0.505555 0.77986)
(-0.33084 0.558693 0.874138)
(-0.287582 0.530898 0.819975)
(-0.323836 0.573826 0.874511)
(-0.30575 0.546542 0.847208)
(-0.31171 0.558003 0.852272)
(-0.319967 0.568459 0.872658)
(-0.338245 0.381713 0.647004)
(-0.322458 0.439265 0.679071)
(-0.306213 0.366628 0.580205)
(-0.29451 0.410956 0.59847)
(-0.340354 0.449238 0.68771)
(-0.32858 0.460359 0.675952)
(-0.299368 0.397528 0.593179)
(-0.0793895 0.351246 0.488056)
(-0.175283 0.438828 0.651476)
(-0.225055 0.487756 0.745174)
(-0.248288 0.525737 0.758908)
(-0.235886 0.530784 0.779477)
(-0.244087 0.531937 0.784712)
(-0.186922 0.446985 0.640201)
(-0.253192 0.53548 0.789144)
(-0.280162 0.590375 0.859251)
(-0.275126 0.592412 0.859817)
(-0.274878 0.586088 0.860669)
(-0.203583 0.301227 0.514321)
(-0.230035 0.330496 0.570131)
(-0.339868 0.385731 0.772173)
(-0.323154 0.368803 0.729079)
(-0.299952 0.317747 0.638356)
(-0.256721 0.263427 0.566057)
(-0.0586903 0.250104 0.354307)
(-0.0253629 0.225235 0.320328)
(-0.209545 0.283494 0.531337)
(-0.197503 0.302217 0.547652)
(-0.196183 0.259918 0.518597)
(-0.182693 0.277263 0.492783)
(-0.271497 0.431757 0.706492)
(-0.201349 0.392685 0.591186)
(-0.234824 0.495131 0.728851)
(-0.190548 0.451929 0.638067)
(-0.179147 0.41705 0.583733)
(-0.148526 0.399819 0.510019)
(-0.335191 0.464428 0.799965)
(-0.277398 0.435363 0.716118)
(-0.343439 0.50925 0.830411)
(-0.305046 0.470315 0.773433)
(-0.299897 0.428822 0.755123)
(-0.28752 0.423638 0.749962)
(-0.316166 0.484095 0.795947)
(-0.262084 0.524788 0.765472)
(-0.203346 0.414649 0.675008)
(-0.134956 0.362449 0.573934)
(-0.227377 0.481741 0.74411)
(-0.182491 0.42777 0.649884)
(-0.195592 0.418384 0.667765)
(-0.230722 0.500429 0.755476)
(-0.303773 0.554737 0.833384)
(-0.322542 0.541612 0.834783)
(-0.282479 0.547574 0.804202)
(-0.293572 0.527792 0.814051)
(-0.316838 0.566387 0.851904)
(-0.317982 0.559746 0.849418)
(-0.295537 0.532788 0.816607)
(-0.251294 0.423102 0.720145)
(-0.213337 0.412405 0.626736)
(-0.218336 0.463421 0.69958)
(-0.26984 0.486376 0.763074)
(-0.171037 0.343984 0.52513)
(-0.152387 0.310021 0.47711)
(-0.264546 0.482797 0.760449)
(-0.30156 0.494142 0.7977)
(-0.325329 0.539865 0.833032)
(-0.233398 0.425903 0.653838)
(-0.292125 0.513305 0.801548)
(-0.304122 0.475712 0.776485)
(-0.31137 0.498205 0.799631)
(-0.281223 0.492751 0.780804)
(-0.283617 0.559457 0.83043)
(-0.278634 0.542806 0.806053)
(-0.212964 0.43014 0.695631)
(-0.276845 0.507166 0.794768)
(-0.256869 0.531292 0.796145)
(-0.264629 0.531894 0.801333)
(-0.265881 0.506213 0.784969)
(-0.0817525 0.345691 0.453203)
(-0.422764 0.517466 0.888455)
(-0.352502 0.422932 0.769357)
(-0.396509 0.465084 0.8098)
(-0.395101 0.474718 0.845378)