/*--------------------------------*- C++ -*----------------------------------*\
| =========                 |                                                 |
| \\      /  F ield         | OpenFOAM: The Open Source CFD Toolbox           |
|  \\    /   O peration     | Version:  v1612+                                |
|   \\  /    A nd           | Web:      www.OpenFOAM.com                      |
|    \\/     M anipulation  |                                                 |
\*---------------------------------------------------------------------------*/
FoamFile
{
    version     2.0;
    format      ascii;
    class       volVectorField;
    location    "239";
    object      U;
}
// * * * * * * * * * * * * * * * * * * * * * * * * * * * * * * * * * * * * * //

dimensions      [0 1 -1 0 0 0 0];

internalField   nonuniform List<vector> 
16789
(
(-0.158855 0.578641 -0.346229)
(-0.198439 0.824566 -0.510794)
(-0.181421 0.86778 -0.526746)
(-0.174826 0.864944 -0.533814)
(-0.163643 0.850415 -0.536469)
(-0.202269 0.806888 -0.504391)
(-0.185506 0.840373 -0.528884)
(-0.167219 0.836092 -0.538068)
(-0.181481 0.851571 -0.531925)
(-0.197376 0.804762 -0.501411)
(-0.187322 0.864834 -0.524936)
(-0.160394 0.835897 -0.532967)
(-0.195503 0.800347 -0.50357)
(-0.172525 0.79037 -0.518559)
(-0.167042 0.802282 -0.53847)
(-0.162504 0.830525 -0.542069)
(-0.177428 0.782171 -0.445988)
(-0.164458 0.743456 -0.414977)
(-0.21532 0.875014 -0.474106)
(-0.209606 0.866076 -0.481369)
(-0.160356 0.748898 -0.430053)
(-0.145118 0.673636 -0.384165)
(-0.2031 0.812785 -0.454533)
(-0.223389 0.8692 -0.475061)
(-0.210843 0.85001 -0.479589)
(-0.160697 0.695563 -0.383591)
(-0.166567 0.75479 -0.418505)
(-0.16849 0.74159 -0.41717)
(-0.167317 0.768521 -0.432337)
(-0.22533 0.695779 -0.483685)
(-0.213829 0.700344 -0.482763)
(-0.2114 0.697189 -0.48018)
(-0.217196 0.736628 -0.472372)
(-0.223894 0.724865 -0.463495)
(-0.236259 0.662136 -0.45501)
(-0.246651 0.70131 -0.422239)
(-0.237215 0.689188 -0.442418)
(-0.234517 0.718834 -0.448601)
(-0.248193 0.70579 -0.431271)
(-0.23693 0.697722 -0.43962)
(-0.251522 0.679217 -0.41757)
(-0.248302 0.696627 -0.429091)
(-0.235315 0.683396 -0.431315)
(-0.237159 0.660106 -0.416766)
(-0.243247 0.668315 -0.424261)
(-0.231622 0.662613 -0.463015)
(-0.247982 0.858698 -0.452814)
(-0.220794 0.76161 -0.406029)
(-0.22558 0.803598 -0.435646)
(-0.24533 0.80909 -0.428575)
(-0.270189 0.867439 -0.46073)
(-0.249781 0.855102 -0.456623)
(-0.256294 0.812297 -0.434263)
(-0.245675 0.789823 -0.418656)
(-0.218622 0.774368 -0.415145)
(-0.202648 0.705807 -0.375224)
(-0.238556 0.778262 -0.412163)
(-0.217102 0.725714 -0.381454)
(-0.224092 0.782978 -0.420232)
(-0.220632 0.514769 -0.403209)
(-0.226776 0.513984 -0.39509)
(-0.203313 0.488565 -0.384851)
(-0.191627 0.465596 -0.377424)
(-0.182459 0.430129 -0.332213)
(-0.217704 0.494887 -0.358979)
(-0.202461 0.46675 -0.348185)
(-0.203498 0.50544 -0.411937)
(-0.208038 0.515853 -0.407945)
(-0.207332 0.515209 -0.416834)
(-0.213523 0.545185 -0.427911)
(-0.192497 0.452289 -0.359337)
(-0.216822 0.504848 -0.368524)
(-0.205108 0.484601 -0.362587)
(-0.194636 0.481897 -0.376439)
(-0.183741 0.443992 -0.355733)
(-0.227878 0.544705 -0.400958)
(-0.218708 0.557188 -0.424416)
(-0.227326 0.537348 -0.397194)
(-0.192007 0.802799 -0.480479)
(-0.184293 0.800672 -0.494681)
(-0.173871 0.854531 -0.504293)
(-0.168373 0.845364 -0.516352)
(-0.158071 0.837956 -0.526691)
(-0.153745 0.847482 -0.533414)
(-0.172222 0.844863 -0.500913)
(-0.160415 0.858409 -0.517565)
(-0.156306 0.850418 -0.515176)
(-0.161531 0.874286 -0.522942)
(-0.185035 0.571369 -0.470311)
(-0.202832 0.595457 -0.47445)
(-0.199109 0.57562 -0.464297)
(-0.191123 0.559612 -0.446238)
(-0.180639 0.513948 -0.412845)
(-0.142443 0.449919 -0.382022)
(-0.159299 0.464112 -0.384674)
(-0.149878 0.453393 -0.375054)
(-0.130463 0.427588 -0.36597)
(-0.173785 0.532852 -0.433574)
(-0.158245 0.481048 -0.392115)
(-0.172815 0.551468 -0.453518)
(-0.15048 0.499362 -0.412007)
(-0.140411 0.478813 -0.40632)
(-0.136795 0.442295 -0.366321)
(-0.162623 0.506449 -0.419283)
(-0.147405 0.510706 -0.424677)
(-0.14085 0.467663 -0.390222)
(-0.188576 0.590015 -0.479207)
(-0.284378 0.876435 -0.511491)
(-0.28321 0.87199 -0.504231)
(-0.274524 0.874419 -0.506389)
(-0.274918 0.877634 -0.506947)
(-0.279334 0.904397 -0.515764)
(-0.274222 0.884504 -0.511754)
(-0.274495 0.874744 -0.508598)
(-0.277269 0.884297 -0.512382)
(-0.281396 0.898076 -0.520972)
(-0.269047 0.893135 -0.51216)
(-0.269052 0.888443 -0.510241)
(-0.271571 0.89585 -0.511646)
(-0.283901 0.886515 -0.519335)
(-0.271464 0.90013 -0.519754)
(-0.26927 0.886847 -0.515277)
(-0.270793 0.886006 -0.517837)
(-0.223012 0.826933 -0.472137)
(-0.208174 0.818164 -0.469579)
(-0.22866 0.8553 -0.485301)
(-0.218064 0.863282 -0.493585)
(-0.202574 0.835054 -0.478535)
(-0.219359 0.56957 -0.427397)
(-0.223461 0.618931 -0.463092)
(-0.218911 0.571743 -0.426408)
(-0.221735 0.622822 -0.459898)
(-0.206649 0.538886 -0.406551)
(-0.2027 0.50621 -0.384196)
(-0.206621 0.516145 -0.403054)
(-0.216795 0.552699 -0.401681)
(-0.215885 0.546455 -0.416471)
(-0.220885 0.589208 -0.456095)
(-0.216631 0.609492 -0.464122)
(-0.203739 0.507068 -0.398045)
(-0.195052 0.497517 -0.397707)
(-0.211726 0.542786 -0.423792)
(-0.202663 0.576075 -0.46728)
(-0.200751 0.563526 -0.465198)
(-0.198228 0.575908 -0.45703)
(-0.200222 0.529484 -0.431587)
(-0.187839 0.511615 -0.419624)
(-0.208571 0.594857 -0.465643)
(-0.183599 0.559401 -0.476285)
(-0.196114 0.586039 -0.476849)
(-0.192035 0.518959 -0.431792)
(-0.350238 0.877875 -0.496258)
(-0.340439 0.876228 -0.491037)
(-0.332549 0.883751 -0.498741)
(-0.329119 0.882251 -0.499896)
(-0.338757 0.888248 -0.506297)
(-0.330657 0.879405 -0.494705)
(-0.334936 0.886362 -0.496406)
(-0.34776 0.879347 -0.497714)
(-0.35502 0.886536 -0.50983)
(-0.34049 0.886755 -0.512475)
(-0.335555 0.891326 -0.508678)
(-0.331364 0.887938 -0.500922)
(-0.338824 0.846827 -0.483351)
(-0.342972 0.882311 -0.499282)
(-0.34341 0.896381 -0.519735)
(-0.346002 0.889068 -0.516072)
(-0.336185 0.895316 -0.51332)
(-0.343835 0.893041 -0.523219)
(-0.337099 0.888998 -0.519613)
(-0.34362 0.886979 -0.512714)
(-0.219074 0.763062 -0.451021)
(-0.211918 0.7249 -0.420681)
(-0.207835 0.749963 -0.423846)
(-0.197759 0.700702 -0.403963)
(-0.211587 0.770171 -0.429157)
(-0.203419 0.731409 -0.421535)
(-0.21527 0.765773 -0.439265)
(-0.227588 0.768882 -0.452828)
(-0.230034 0.770118 -0.448038)
(-0.221333 0.813002 -0.451502)
(-0.226902 0.799142 -0.45088)
(-0.210952 0.718951 -0.413479)
(-0.250639 0.879507 -0.496374)
(-0.255807 0.890661 -0.49429)
(-0.261359 0.867758 -0.490784)
(-0.255818 0.85483 -0.490794)
(-0.247196 0.841634 -0.475553)
(-0.274194 0.897347 -0.508006)
(-0.238922 0.802726 -0.456202)
(-0.255195 0.843499 -0.47811)
(-0.177961 0.57982 -0.489779)
(-0.182263 0.558068 -0.468929)
(-0.14359 0.4676 -0.418437)
(-0.179793 0.57802 -0.483702)
(-0.150612 0.516013 -0.440419)
(-0.142279 0.490047 -0.42136)
(-0.146327 0.474966 -0.421176)
(-0.142153 0.505743 -0.436929)
(-0.129087 0.457259 -0.403815)
(-0.136504 0.492962 -0.431287)
(-0.129256 0.449064 -0.395179)
(-0.144672 0.452879 -0.404199)
(-0.129763 0.426716 -0.386245)
(-0.12055 0.442429 -0.390021)
(-0.226634 0.847829 -0.468435)
(-0.220127 0.854699 -0.474057)
(-0.191307 0.750663 -0.4128)
(-0.209098 0.79325 -0.437053)
(-0.22343 0.864754 -0.480354)
(-0.222852 0.862495 -0.476501)
(-0.196714 0.792103 -0.445007)
(-0.18897 0.719978 -0.402289)
(-0.168282 0.673596 -0.373744)
(-0.200229 0.826425 -0.449465)
(-0.187694 0.781566 -0.421627)
(-0.212147 0.806498 -0.449776)
(-0.202354 0.80896 -0.437739)
(-0.187777 0.758865 -0.41224)
(-0.163805 0.691824 -0.382586)
(-0.179423 0.734491 -0.401964)
(-0.256094 0.807498 -0.459212)
(-0.25035 0.838945 -0.481832)
(-0.255855 0.848441 -0.483018)
(-0.248461 0.833612 -0.476926)
(-0.256871 0.87372 -0.500978)
(-0.261447 0.802354 -0.460839)
(-0.260138 0.817303 -0.472531)
(-0.241722 0.798627 -0.459451)
(-0.25873 0.854097 -0.48536)
(-0.274617 0.862085 -0.501539)
(-0.277028 0.888707 -0.519771)
(-0.264125 0.812135 -0.462968)
(-0.27693 0.84218 -0.493465)
(-0.277992 0.884748 -0.51777)
(-0.267065 0.836754 -0.477471)
(-0.272858 0.823579 -0.472328)
(-0.255402 0.631856 -0.37734)
(-0.262616 0.648077 -0.380783)
(-0.221391 0.560497 -0.343175)
(-0.209999 0.546065 -0.340375)
(-0.178155 0.466757 -0.29302)
(-0.176837 0.497173 -0.300121)
(-0.261916 0.627197 -0.364712)
(-0.262912 0.625507 -0.378163)
(-0.195499 0.493964 -0.308416)
(-0.235474 0.567513 -0.347142)
(-0.270929 0.641916 -0.383516)
(-0.255407 0.621365 -0.369917)
(-0.272197 0.64841 -0.384233)
(-0.183783 0.462311 -0.297583)
(-0.183563 0.498434 -0.300212)
(-0.237616 0.575115 -0.351412)
(-0.209554 0.516914 -0.321046)
(-0.214306 0.520041 -0.328545)
(-0.238326 0.588229 -0.35523)
(-0.215413 0.553728 -0.36593)
(-0.204234 0.507588 -0.344115)
(-0.159329 0.437188 -0.292924)
(-0.188544 0.475108 -0.336551)
(-0.179882 0.467152 -0.325358)
(-0.19987 0.506836 -0.352837)
(-0.203041 0.54613 -0.350995)
(-0.212249 0.565058 -0.354798)
(-0.190796 0.512129 -0.32464)
(-0.187648 0.492339 -0.3288)
(-0.216002 0.546669 -0.358252)
(-0.20143 0.49706 -0.33671)
(-0.189909 0.481102 -0.318724)
(-0.168337 0.451736 -0.2948)
(-0.210482 0.538004 -0.361525)
(-0.225289 0.593183 -0.364842)
(-0.219069 0.568223 -0.363079)
(-0.180631 0.499449 -0.315351)
(-0.180243 0.468529 -0.323087)
(-0.180748 0.497767 -0.320669)
(-0.201823 0.526637 -0.336657)
(-0.214051 0.560498 -0.351246)
(-0.177899 0.693483 -0.426923)
(-0.179156 0.699915 -0.432183)
(-0.149285 0.611679 -0.381049)
(-0.152427 0.623604 -0.379811)
(-0.110938 0.565638 -0.34815)
(-0.192403 0.719146 -0.434922)
(-0.146921 0.613609 -0.386196)
(-0.129112 0.584323 -0.373178)
(-0.187792 0.694277 -0.416334)
(-0.133346 0.604839 -0.37203)
(-0.129811 0.580199 -0.359158)
(-0.164662 0.664272 -0.40866)
(-0.318653 0.907597 -0.489943)
(-0.311682 0.910335 -0.488697)
(-0.310545 0.911738 -0.491181)
(-0.287072 0.911082 -0.487549)
(-0.285504 0.90707 -0.485837)
(-0.294403 0.91597 -0.494403)
(-0.31691 0.898298 -0.48313)
(-0.303533 0.910536 -0.492433)
(-0.303363 0.893167 -0.484517)
(-0.289038 0.885862 -0.478153)
(-0.309084 0.891554 -0.483521)
(-0.2923 0.866091 -0.472278)
(-0.327954 0.902103 -0.503543)
(-0.33177 0.899134 -0.506977)
(-0.334337 0.887551 -0.497815)
(-0.316055 0.874474 -0.480645)
(-0.301463 0.862329 -0.473751)
(-0.317402 0.902815 -0.49725)
(-0.300288 0.89576 -0.487949)
(-0.306738 0.903814 -0.492604)
(-0.322937 0.876589 -0.497906)
(-0.305457 0.858956 -0.486316)
(-0.308397 0.895598 -0.493576)
(-0.331311 0.890034 -0.5032)
(-0.308741 0.871427 -0.486467)
(-0.189806 0.516763 -0.434105)
(-0.210603 0.594571 -0.482836)
(-0.199122 0.589857 -0.478995)
(-0.223456 0.600046 -0.444275)
(-0.223548 0.607695 -0.464734)
(-0.227595 0.624001 -0.464794)
(-0.231172 0.639769 -0.477573)
(-0.187049 0.527925 -0.440472)
(-0.228465 0.635476 -0.477222)
(-0.223767 0.626003 -0.475734)
(-0.200759 0.581419 -0.476071)
(-0.204459 0.601447 -0.485221)
(-0.120602 0.39977 -0.245402)
(-0.106347 0.369316 -0.221455)
(-0.12142 0.404643 -0.242504)
(-0.11298 0.386351 -0.231181)
(-0.128797 0.432346 -0.265071)
(-0.108273 0.418077 -0.238947)
(-0.120541 0.422929 -0.248738)
(-0.181255 0.52719 -0.325855)
(-0.173972 0.514583 -0.315306)
(-0.133529 0.461389 -0.277314)
(-0.115514 0.434599 -0.263506)
(-0.13949 0.439955 -0.268935)
(-0.167009 0.506796 -0.308998)
(-0.161468 0.48309 -0.302541)
(-0.163252 0.463744 -0.298511)
(-0.170697 0.494538 -0.314764)
(-0.158207 0.517202 -0.307316)
(-0.169564 0.523308 -0.314052)
(-0.184793 0.781397 -0.422665)
(-0.178512 0.781456 -0.416258)
(-0.236363 0.898872 -0.498433)
(-0.249933 0.900147 -0.498352)
(-0.208466 0.873313 -0.478771)
(-0.201737 0.857637 -0.470968)
(-0.174527 0.764127 -0.410672)
(-0.182479 0.758997 -0.411313)
(-0.233604 0.888933 -0.487629)
(-0.230351 0.894668 -0.493706)
(-0.233495 0.887674 -0.486444)
(-0.223569 0.891316 -0.490919)
(-0.208073 0.862013 -0.476485)
(-0.191841 0.747113 -0.411719)
(-0.212258 0.803361 -0.448448)
(-0.201701 0.790097 -0.445395)
(-0.197047 0.758282 -0.423097)
(-0.280775 0.728793 -0.436181)
(-0.263958 0.692265 -0.407824)
(-0.259301 0.700355 -0.414946)
(-0.266141 0.706075 -0.41367)
(-0.257077 0.673566 -0.411315)
(-0.254526 0.685339 -0.413442)
(-0.293413 0.772411 -0.461755)
(-0.270258 0.738498 -0.4457)
(-0.294353 0.786043 -0.46752)
(-0.28465 0.751651 -0.447276)
(-0.255219 0.667881 -0.399798)
(-0.22448 0.632359 -0.390447)
(-0.28996 0.775547 -0.457631)
(-0.289487 0.773921 -0.46288)
(-0.254531 0.697573 -0.418547)
(-0.254974 0.714815 -0.431293)
(-0.190241 0.609345 -0.406982)
(-0.177282 0.565116 -0.37829)
(-0.17069 0.572475 -0.38456)
(-0.173104 0.573716 -0.3838)
(-0.148841 0.506707 -0.33276)
(-0.154204 0.520879 -0.363077)
(-0.138966 0.490833 -0.332166)
(-0.174749 0.560056 -0.358405)
(-0.139002 0.483799 -0.317174)
(-0.141572 0.475964 -0.306496)
(-0.146074 0.485943 -0.316656)
(-0.155079 0.509763 -0.320747)
(-0.153353 0.514321 -0.321944)
(-0.145254 0.502479 -0.317128)
(-0.134194 0.476508 -0.312565)
(-0.162598 0.53016 -0.355423)
(-0.185462 0.573765 -0.381923)
(-0.154897 0.513054 -0.340253)
(-0.215656 0.524116 -0.3577)
(-0.199638 0.48939 -0.342819)
(-0.217981 0.520784 -0.363273)
(-0.162494 0.410463 -0.298944)
(-0.163514 0.409162 -0.29716)
(-0.184131 0.451049 -0.336377)
(-0.216152 0.529484 -0.352836)
(-0.200318 0.475267 -0.331861)
(-0.19071 0.444962 -0.325101)
(-0.219237 0.513658 -0.350467)
(-0.204879 0.477833 -0.352921)
(-0.194579 0.461873 -0.348241)
(-0.14545 0.369387 -0.278996)
(-0.152265 0.382496 -0.279428)
(-0.190276 0.453914 -0.317524)
(-0.156654 0.386077 -0.293319)
(-0.162562 0.398417 -0.311898)
(-0.181801 0.73501 -0.518682)
(-0.171856 0.726336 -0.520612)
(-0.188253 0.741814 -0.497524)
(-0.189779 0.7483 -0.500252)
(-0.164886 0.753744 -0.536283)
(-0.171329 0.778757 -0.536299)
(-0.168062 0.798887 -0.533378)
(-0.180886 0.743228 -0.521249)
(-0.185691 0.781854 -0.511305)
(-0.151659 0.820149 -0.545106)
(-0.155808 0.81289 -0.535264)
(-0.157719 0.772298 -0.54321)
(-0.162372 0.792842 -0.528963)
(-0.149725 0.814754 -0.546537)
(-0.142463 0.801981 -0.544555)
(-0.160071 0.74895 -0.52587)
(-0.142161 0.745682 -0.535936)
(-0.143706 0.755138 -0.535742)
(-0.292627 0.716671 -0.419396)
(-0.280546 0.672186 -0.399474)
(-0.276173 0.664418 -0.400229)
(-0.285582 0.712057 -0.421691)
(-0.255796 0.618324 -0.381058)
(-0.262611 0.645952 -0.386252)
(-0.292061 0.716142 -0.421581)
(-0.274395 0.683941 -0.402583)
(-0.278615 0.660829 -0.39634)
(-0.269413 0.664401 -0.396106)
(-0.274728 0.698642 -0.414744)
(-0.244843 0.600502 -0.369278)
(-0.259989 0.652322 -0.387185)
(-0.278662 0.702396 -0.409239)
(-0.25279 0.626688 -0.37719)
(-0.241069 0.613165 -0.369132)
(-0.267673 0.678069 -0.401374)
(-0.214637 0.883701 -0.498483)
(-0.223225 0.895514 -0.501239)
(-0.205315 0.889901 -0.503609)
(-0.191432 0.866935 -0.510129)
(-0.210587 0.888982 -0.510397)
(-0.198184 0.879075 -0.515952)
(-0.223017 0.888985 -0.499632)
(-0.213519 0.887654 -0.49566)
(-0.196795 0.852985 -0.483896)
(-0.223592 0.883783 -0.503449)
(-0.228778 0.894277 -0.508669)
(-0.22146 0.885845 -0.500007)
(-0.189178 0.857899 -0.496348)
(-0.182953 0.854066 -0.503512)
(-0.194334 0.859316 -0.512683)
(-0.195008 0.873068 -0.515952)
(-0.212516 0.838547 -0.496189)
(-0.233715 0.874656 -0.498778)
(-0.190603 0.859446 -0.515257)
(-0.194134 0.855326 -0.508447)
(-0.170319 0.642908 -0.373792)
(-0.180835 0.636994 -0.379729)
(-0.164815 0.583608 -0.354018)
(-0.149812 0.580766 -0.346686)
(-0.134479 0.553206 -0.323359)
(-0.141003 0.542086 -0.330362)
(-0.19403 0.532331 -0.401103)
(-0.217749 0.574389 -0.404762)
(-0.198597 0.513607 -0.375765)
(-0.181914 0.502771 -0.392276)
(-0.189844 0.513335 -0.391914)
(-0.189849 0.535528 -0.416888)
(-0.185264 0.51666 -0.407598)
(-0.192584 0.519944 -0.391178)
(-0.21244 0.626743 -0.458282)
(-0.193216 0.583196 -0.45618)
(-0.20206 0.613226 -0.474769)
(-0.222733 0.621052 -0.439655)
(-0.216013 0.580357 -0.422787)
(-0.191383 0.551 -0.440834)
(-0.243224 0.561539 -0.341943)
(-0.22086 0.509046 -0.317599)
(-0.245903 0.593285 -0.353552)
(-0.231495 0.57767 -0.348808)
(-0.264452 0.60695 -0.358394)
(-0.252607 0.578399 -0.342996)
(-0.237686 0.52833 -0.329716)
(-0.201378 0.484794 -0.302423)
(-0.200623 0.504001 -0.303647)
(-0.189432 0.445885 -0.281322)
(-0.17692 0.423666 -0.270749)
(-0.253766 0.594383 -0.357334)
(-0.231359 0.522172 -0.324565)
(-0.261383 0.605107 -0.357806)
(-0.177685 0.423762 -0.270694)
(-0.163033 0.407095 -0.259292)
(-0.189754 0.478782 -0.293015)
(-0.175814 0.43457 -0.269618)
(-0.194486 0.474326 -0.290982)
(-0.206629 0.51175 -0.312758)
(-0.252279 0.590984 -0.357413)
(-0.246029 0.5848 -0.356539)
(-0.203321 0.497123 -0.306412)
(-0.198676 0.454872 -0.290801)
(-0.170166 0.586566 -0.498871)
(-0.148614 0.5449 -0.474772)
(-0.137037 0.515287 -0.453371)
(-0.130647 0.464965 -0.41895)
(-0.177957 0.563033 -0.485249)
(-0.157571 0.514463 -0.452524)
(-0.148401 0.461627 -0.410777)
(-0.122272 0.439879 -0.396373)
(-0.155955 0.47167 -0.424709)
(-0.138122 0.448977 -0.407664)
(-0.149306 0.555517 -0.473201)
(-0.141329 0.503021 -0.444055)
(-0.184813 0.56581 -0.479384)
(-0.177441 0.521208 -0.440155)
(-0.151166 0.464478 -0.4206)
(-0.136236 0.463071 -0.4215)
(-0.174449 0.599335 -0.498402)
(-0.194676 0.603554 -0.50704)
(-0.183235 0.580528 -0.484745)
(-0.155122 0.523979 -0.460415)
(-0.224975 0.890174 -0.498303)
(-0.23697 0.902778 -0.493664)
(-0.227414 0.889788 -0.497618)
(-0.219186 0.887755 -0.499256)
(-0.225722 0.887898 -0.491225)
(-0.207581 0.85765 -0.480192)
(-0.240398 0.894429 -0.498514)
(-0.2246 0.878615 -0.504119)
(-0.229942 0.872706 -0.498975)
(-0.216069 0.879961 -0.506242)
(-0.211004 0.887384 -0.50618)
(-0.204879 0.851077 -0.481753)
(-0.206898 0.876153 -0.496276)
(-0.225687 0.87922 -0.488625)
(-0.207812 0.869931 -0.486919)
(-0.214425 0.877276 -0.486606)
(-0.210504 0.869793 -0.486189)
(-0.230929 0.894136 -0.501773)
(-0.220376 0.8856 -0.495112)
(-0.193684 0.884293 -0.500124)
(-0.201163 0.905962 -0.511484)
(-0.209216 0.896133 -0.496206)
(-0.200563 0.869347 -0.485497)
(-0.188652 0.884491 -0.500034)
(-0.197549 0.904413 -0.508356)
(-0.218203 0.913094 -0.510858)
(-0.223409 0.908883 -0.512308)
(-0.209364 0.902123 -0.510317)
(-0.212963 0.905895 -0.513449)
(-0.193526 0.881824 -0.502881)
(-0.184642 0.86335 -0.482901)
(-0.194858 0.867939 -0.48424)
(-0.246772 0.885032 -0.523133)
(-0.239874 0.875681 -0.522515)
(-0.257825 0.889929 -0.519128)
(-0.251287 0.882684 -0.518315)
(-0.248418 0.866527 -0.521373)
(-0.239419 0.858146 -0.511629)
(-0.246152 0.875297 -0.52566)
(-0.233557 0.852146 -0.513682)
(-0.24986 0.888242 -0.530924)
(-0.247215 0.886961 -0.522726)
(-0.229427 0.854224 -0.508542)
(-0.254044 0.887849 -0.517228)
(-0.266559 0.899839 -0.524497)
(-0.26888 0.900568 -0.527778)
(-0.257658 0.883308 -0.532524)
(-0.157242 0.547814 -0.329598)
(-0.145814 0.487538 -0.304316)
(-0.153428 0.523656 -0.311965)
(-0.144067 0.477784 -0.293568)
(-0.0954335 0.408483 -0.233158)
(-0.102649 0.413037 -0.241766)
(-0.148567 0.538368 -0.317939)
(-0.134073 0.502157 -0.303467)
(-0.145747 0.508634 -0.313866)
(-0.135804 0.454978 -0.29236)
(-0.159828 0.554566 -0.327337)
(-0.118335 0.478286 -0.282536)
(-0.109015 0.423624 -0.246847)
(-0.101918 0.405078 -0.237516)
(-0.0897278 0.384573 -0.218302)
(-0.0999847 0.400867 -0.242881)
(-0.0879849 0.372845 -0.219994)
(-0.10913 0.464524 -0.268162)
(-0.102312 0.441217 -0.254911)
(-0.109919 0.414532 -0.254276)
(-0.195275 0.690468 -0.483684)
(-0.193251 0.701401 -0.491928)
(-0.178159 0.71908 -0.521807)
(-0.186517 0.714543 -0.507715)
(-0.163389 0.613294 -0.46399)
(-0.15206 0.600308 -0.463159)
(-0.195157 0.674784 -0.473595)
(-0.196961 0.687171 -0.482461)
(-0.171643 0.608059 -0.463202)
(-0.163428 0.595503 -0.455746)
(-0.155893 0.651683 -0.501402)
(-0.167166 0.64676 -0.490247)
(-0.181565 0.713252 -0.515558)
(-0.17585 0.616966 -0.46799)
(-0.186893 0.68118 -0.499642)
(-0.17987 0.631025 -0.476475)
(-0.160855 0.609944 -0.475529)
(-0.156713 0.653701 -0.490435)
(-0.135085 0.551372 -0.322687)
(-0.11063 0.53166 -0.294752)
(-0.142898 0.581055 -0.33813)
(-0.12616 0.559035 -0.316989)
(-0.181186 0.70362 -0.409952)
(-0.151268 0.652425 -0.378566)
(-0.147988 0.56835 -0.335576)
(-0.108061 0.550303 -0.312831)
(-0.168302 0.649429 -0.374613)
(-0.144462 0.645465 -0.369706)
(-0.161239 0.594061 -0.3429)
(-0.161809 0.598649 -0.34688)
(-0.171696 0.632271 -0.367147)
(-0.181043 0.663582 -0.387387)
(-0.179296 0.692584 -0.399176)
(-0.160975 0.677939 -0.391482)
(-0.146427 0.774427 -0.463886)
(-0.141967 0.758 -0.441465)
(-0.148691 0.758362 -0.442017)
(-0.155456 0.794765 -0.476304)
(-0.151885 0.785761 -0.455731)
(-0.152697 0.777793 -0.463076)
(-0.132346 0.68247 -0.387737)
(-0.18914 0.866542 -0.496925)
(-0.172064 0.824188 -0.467565)
(-0.191903 0.84778 -0.485699)
(-0.184372 0.81508 -0.464257)
(-0.163841 0.758404 -0.431441)
(-0.142071 0.708008 -0.399183)
(-0.167838 0.710122 -0.541322)
(-0.160648 0.730224 -0.542136)
(-0.166032 0.742562 -0.542274)
(-0.152471 0.750611 -0.556199)
(-0.113199 0.622402 -0.479986)
(-0.0970957 0.563748 -0.445537)
(-0.150138 0.747834 -0.544934)
(-0.154094 0.704407 -0.5395)
(-0.151766 0.66893 -0.527892)
(-0.166119 0.688298 -0.535914)
(-0.156565 0.728333 -0.543251)
(-0.151001 0.731484 -0.546286)
(-0.12858 0.613388 -0.498662)
(-0.126896 0.606408 -0.495148)
(-0.125912 0.616477 -0.501644)
(-0.106591 0.567099 -0.452777)
(-0.130976 0.706353 -0.52165)
(-0.115006 0.661209 -0.500438)
(-0.133711 0.642434 -0.511508)
(-0.150983 0.737672 -0.54776)
(-0.117394 0.602289 -0.480151)
(-0.118586 0.668078 -0.510175)
(-0.30409 0.886225 -0.496224)
(-0.30361 0.869767 -0.489688)
(-0.30241 0.891568 -0.495073)
(-0.305058 0.906504 -0.506073)
(-0.322822 0.899847 -0.521006)
(-0.322454 0.899381 -0.520705)
(-0.319932 0.876217 -0.50277)
(-0.315708 0.88926 -0.50845)
(-0.319826 0.897457 -0.502884)
(-0.305858 0.887162 -0.494751)
(-0.317953 0.892703 -0.51476)
(-0.325182 0.896918 -0.516507)
(-0.3257 0.880344 -0.509494)
(-0.316944 0.85981 -0.491693)
(-0.325673 0.87733 -0.49696)
(-0.314981 0.872654 -0.499526)
(-0.332191 0.883143 -0.504792)
(-0.202132 0.468735 -0.30449)
(-0.213064 0.478132 -0.316944)
(-0.165442 0.357398 -0.258186)
(-0.174044 0.387613 -0.267737)
(-0.158494 0.350461 -0.260022)
(-0.167357 0.368214 -0.270736)
(-0.200884 0.452644 -0.314687)
(-0.164771 0.382392 -0.262292)
(-0.148788 0.34167 -0.241204)
(-0.18899 0.418763 -0.298861)
(-0.179365 0.377516 -0.277244)
(-0.162864 0.356673 -0.26454)
(-0.148644 0.334262 -0.241495)
(-0.163643 0.357901 -0.260283)
(-0.153555 0.335706 -0.243874)
(-0.327366 0.87643 -0.521574)
(-0.326331 0.898284 -0.529984)
(-0.321313 0.898432 -0.521883)
(-0.323727 0.874864 -0.512872)
(-0.303888 0.845962 -0.505324)
(-0.296203 0.827417 -0.505247)
(-0.316147 0.869558 -0.524805)
(-0.329057 0.877895 -0.513917)
(-0.301513 0.838479 -0.503133)
(-0.315488 0.870588 -0.524785)
(-0.308759 0.866249 -0.524187)
(-0.291984 0.83996 -0.508416)
(-0.322533 0.87581 -0.521262)
(-0.302286 0.863028 -0.518238)
(-0.297246 0.854441 -0.510944)
(-0.321224 0.884442 -0.521734)
(-0.306475 0.863605 -0.50995)
(-0.246041 0.782577 -0.48409)
(-0.255884 0.795886 -0.485083)
(-0.27476 0.831819 -0.503861)
(-0.270103 0.827214 -0.503465)
(-0.271834 0.824368 -0.500444)
(-0.250304 0.785125 -0.47689)
(-0.205348 0.694171 -0.431088)
(-0.27469 0.844326 -0.510544)
(-0.262649 0.832252 -0.507131)
(-0.256198 0.801242 -0.486157)
(-0.257478 0.819486 -0.498213)
(-0.252118 0.80545 -0.49316)
(-0.181112 0.654058 -0.418683)
(-0.219758 0.74409 -0.473388)
(-0.233229 0.760679 -0.45941)
(-0.181454 0.661549 -0.41825)
(-0.207901 0.727257 -0.455806)
(-0.209373 0.726619 -0.458322)
(-0.198055 0.688833 -0.441741)
(-0.21264 0.719029 -0.454805)
(-0.197622 0.677728 -0.432174)
(-0.175431 0.636553 -0.407604)
(-0.172424 0.648724 -0.410507)
(-0.193013 0.702942 -0.437623)
(-0.158495 0.61233 -0.396862)
(-0.178739 0.662294 -0.417629)
(-0.0909404 0.719222 -0.481881)
(-0.0903078 0.702655 -0.471677)
(-0.0858816 0.719055 -0.477624)
(-0.0802957 0.676864 -0.451841)
(-0.105402 0.775522 -0.510947)
(-0.101924 0.773258 -0.498712)
(-0.102691 0.754684 -0.500432)
(-0.0717854 0.678893 -0.454296)
(-0.0751021 0.700611 -0.459748)
(-0.0815152 0.675313 -0.455283)
(-0.0728932 0.685355 -0.473081)
(-0.0747722 0.669583 -0.462671)
(-0.0907405 0.714461 -0.497232)
(-0.0805021 0.699642 -0.465671)
(-0.0628558 0.644661 -0.418969)
(-0.0746971 0.668173 -0.458008)
(-0.0806465 0.691724 -0.469109)
(-0.0758454 0.665299 -0.453581)
(-0.0532469 0.606593 -0.40745)
(-0.157774 0.87112 -0.488365)
(-0.146564 0.86998 -0.485701)
(-0.164448 0.885103 -0.496005)
(-0.150331 0.873394 -0.493714)
(-0.143701 0.839351 -0.474693)
(-0.115674 0.780829 -0.431058)
(-0.114573 0.762474 -0.42705)
(-0.131675 0.847671 -0.487194)
(-0.0954946 0.741906 -0.415616)
(-0.0968013 0.762983 -0.43935)
(-0.114446 0.785417 -0.441047)
(-0.138753 0.858225 -0.495248)
(-0.110173 0.749809 -0.422324)
(-0.124783 0.772849 -0.42936)
(-0.0982242 0.77105 -0.436747)
(-0.0865381 0.711494 -0.396476)
(-0.11233 0.773039 -0.441156)
(-0.108429 0.754178 -0.420049)
(-0.0938462 0.713451 -0.397794)
(-0.165168 0.73537 -0.425867)
(-0.248886 0.674053 -0.398811)
(-0.266522 0.701786 -0.41383)
(-0.216489 0.617562 -0.366133)
(-0.219918 0.62173 -0.36946)
(-0.24446 0.688021 -0.408685)
(-0.218134 0.637091 -0.373192)
(-0.240992 0.69902 -0.416655)
(-0.222964 0.666099 -0.394153)
(-0.269121 0.721051 -0.424153)
(-0.212792 0.643552 -0.379624)
(-0.266322 0.745535 -0.448179)
(-0.269676 0.750756 -0.444424)
(-0.215123 0.643591 -0.37939)
(-0.24333 0.704768 -0.417474)
(-0.149485 0.738812 -0.468784)
(-0.0696346 0.697463 -0.42667)
(-0.0580253 0.684086 -0.400753)
(-0.0526551 0.671114 -0.399808)
(-0.0586254 0.661668 -0.392139)
(-0.0855504 0.356245 -0.222167)
(-0.0906083 0.358895 -0.224438)
(-0.170107 0.750105 -0.422338)
(-0.168314 0.761731 -0.416049)
(-0.097609 0.46459 -0.356848)
(-0.103227 0.451104 -0.342088)
(-0.0875737 0.430955 -0.322666)
(-0.142858 0.763428 -0.407525)
(-0.116147 0.691925 -0.364074)
(-0.122426 0.718426 -0.380808)
(-0.089424 0.568222 -0.33631)
(-0.0775441 0.539739 -0.314706)
(-0.164271 0.721515 -0.46924)
(-0.185857 0.75616 -0.474623)
(-0.175128 0.747666 -0.457845)
(-0.057144 0.6387 -0.419498)
(-0.0567772 0.663888 -0.417275)
(-0.182348 0.744183 -0.4428)
(-0.186176 0.768098 -0.442167)
(-0.174127 0.753353 -0.427651)
(-0.173867 0.725212 -0.441422)
(-0.108844 0.417982 -0.31774)
(-0.113666 0.425055 -0.318556)
(-0.16991 0.747422 -0.409828)
(-0.165278 0.712417 -0.384193)
(-0.183581 0.759259 -0.418094)
(-0.104632 0.596118 -0.375121)
(-0.117423 0.62182 -0.388205)
(-0.101122 0.357165 -0.225267)
(-0.093564 0.345998 -0.219245)
(-0.0783127 0.582624 -0.4397)
(-0.0788762 0.534198 -0.418505)
(-0.196629 0.755174 -0.478163)
(-0.166293 0.694083 -0.438829)
(-0.179728 0.707638 -0.43839)
(-0.20177 0.764333 -0.472088)
(-0.0824972 0.715826 -0.425645)
(-0.0622058 0.653365 -0.388167)
(-0.0724165 0.663799 -0.41185)
(-0.110373 0.445584 -0.365751)
(-0.127118 0.476827 -0.385241)
(-0.206244 0.748831 -0.441809)
(-0.187579 0.69416 -0.414371)
(-0.190386 0.695565 -0.413324)
(-0.186275 0.696576 -0.421814)
(-0.167575 0.683651 -0.443001)
(-0.192852 0.708177 -0.446981)
(-0.174642 0.665009 -0.431815)
(-0.169047 0.661614 -0.43003)
(-0.144206 0.433833 -0.338804)
(-0.122023 0.378056 -0.295167)
(-0.121297 0.389911 -0.304189)
(-0.11668 0.450478 -0.262845)
(-0.104108 0.412306 -0.242566)
(-0.102621 0.450545 -0.253723)
(-0.0718772 0.603656 -0.43292)
(-0.0800132 0.646394 -0.458281)
(-0.14993 0.695616 -0.370517)
(-0.138752 0.69188 -0.3691)
(-0.150478 0.681276 -0.369965)
(-0.1575 0.76315 -0.415907)
(-0.151358 0.618501 -0.395523)
(-0.16253 0.62641 -0.401031)
(-0.125972 0.352785 -0.24094)
(-0.123929 0.354284 -0.253677)
(-0.129712 0.3575 -0.250812)
(-0.210181 0.693734 -0.413551)
(-0.211037 0.686572 -0.411057)
(-0.210129 0.716238 -0.431956)
(-0.117216 0.519811 -0.432269)
(-0.0949593 0.500854 -0.40916)
(-0.103325 0.539168 -0.436983)
(-0.0878077 0.662401 -0.437359)
(-0.0957751 0.671642 -0.437555)
(-0.0882255 0.67923 -0.423446)
(-0.109648 0.412868 -0.36452)
(-0.119885 0.44737 -0.389075)
(-0.0991464 0.613612 -0.460539)
(-0.0969173 0.617518 -0.468945)
(-0.141928 0.544865 -0.338571)
(-0.16465 0.579766 -0.358487)
(-0.129515 0.342385 -0.24619)
(-0.125452 0.341234 -0.248348)
(-0.146107 0.371534 -0.270317)
(-0.202604 0.653194 -0.423539)
(-0.217227 0.689149 -0.43242)
(-0.209097 0.664868 -0.414661)
(-0.128422 0.434593 -0.377754)
(-0.141296 0.455403 -0.400452)
(-0.139916 0.453783 -0.394455)
(-0.128109 0.485259 -0.418409)
(-0.19619 0.719446 -0.391801)
(-0.198589 0.692381 -0.376305)
(-0.210118 0.714879 -0.39415)
(-0.185363 0.707128 -0.375364)
(-0.225148 0.688708 -0.400905)
(-0.217709 0.677433 -0.409952)
(-0.221915 0.681346 -0.41859)
(-0.110656 0.694681 -0.465263)
(-0.0969892 0.661429 -0.446781)
(-0.106201 0.670695 -0.438496)
(-0.145891 0.385485 -0.328115)
(-0.148069 0.36242 -0.307743)
(-0.166017 0.557046 -0.345147)
(-0.163561 0.547595 -0.339937)
(-0.131793 0.675146 -0.393984)
(-0.14026 0.694364 -0.395347)
(-0.250013 0.695389 -0.407276)
(-0.246733 0.695377 -0.419129)
(-0.11533 0.545433 -0.45811)
(-0.117091 0.572677 -0.471966)
(-0.143944 0.333948 -0.248669)
(-0.145121 0.334942 -0.25318)
(-0.141659 0.339352 -0.256508)
(-0.159014 0.428076 -0.378623)
(-0.142322 0.397585 -0.353437)
(-0.156568 0.374769 -0.328572)
(-0.228479 0.738195 -0.400692)
(-0.21497 0.726458 -0.391921)
(-0.220054 0.702588 -0.382868)
(-0.224968 0.717293 -0.387218)
(-0.214201 0.63425 -0.406959)
(-0.213109 0.626993 -0.402455)
(-0.18638 0.527681 -0.310424)
(-0.160462 0.46336 -0.282382)
(-0.178771 0.513348 -0.30924)
(-0.118418 0.701208 -0.453847)
(-0.108881 0.671994 -0.446929)
(-0.163469 0.346909 -0.264533)
(-0.157234 0.339928 -0.274391)
(-0.14014 0.319249 -0.249995)
(-0.139435 0.313761 -0.253438)
(-0.136971 0.494413 -0.439218)
(-0.125851 0.463895 -0.420969)
(-0.128253 0.493266 -0.43041)
(-0.245015 0.664793 -0.420145)
(-0.248798 0.68091 -0.415631)
(-0.241831 0.657145 -0.401906)
(-0.169568 0.741892 -0.406913)
(-0.181437 0.759891 -0.418626)
(-0.179761 0.726925 -0.400029)
(-0.153189 0.353155 -0.323308)
(-0.164047 0.373985 -0.346707)
(-0.15298 0.379543 -0.341847)
(-0.244967 0.75564 -0.395832)
(-0.241711 0.715705 -0.386347)
(-0.230856 0.693038 -0.370284)
(-0.129602 0.507751 -0.443973)