/*--------------------------------*- C++ -*----------------------------------*\
| =========                 |                                                 |
| \\      /  F ield         | OpenFOAM: The Open Source CFD Toolbox           |
|  \\    /   O peration     | Version:  v1612+                                |
|   \\  /    A nd           | Web:      www.OpenFOAM.com                      |
|    \\/     M anipulation  |                                                 |
\*---------------------------------------------------------------------------*/
FoamFile
{
    version     2.0;
    format      ascii;
    class       volScalarField;
    location    "150";
    object      p;
}
// * * * * * * * * * * * * * * * * * * * * * * * * * * * * * * * * * * * * * //

dimensions      [0 2 -2 0 0 0 0];

internalField   nonuniform List<scalar> 
18827
(
3.59987
3.50781
3.56839
3.5128
3.50635
3.51013
3.51505
3.51382
3.49228
3.51256
3.51052
3.49002
3.49793
3.49383
3.50125
3.50235
3.54086
3.5346
3.5325
3.5486
3.55491
3.55237
3.54689
3.54001
3.54753
3.54496
3.54671
3.53691
3.56144
3.55762
3.54805
3.55511
3.55758
3.55361
3.5507
3.54876
3.54599
3.5473
3.54765
3.54923
3.55277
3.54811
3.54939
3.51069
3.52359
3.52596
3.51756
3.515
3.51516
3.52246
3.5291
3.5221
3.51676
3.5132
3.51591
3.53176
3.51191
3.52328
3.52894
3.46643
3.46778
3.46785
3.44141
3.44498
3.4777
3.47515
3.43305
3.47607
3.47639
3.44019
3.43333
3.42432
3.41021
3.41997
3.42101
3.47511
3.46912
3.4507
3.44393
3.43432
3.45074
3.44884
3.46065
3.46448
3.46344
3.47206
3.47492
3.44313
3.47878
3.46303
3.52481
3.53144
3.53168
3.5305
3.52947
3.53472
3.52862
3.52812
3.52865
3.52908
3.52367
3.52949
3.53196
3.5219
3.53262
3.53261
3.54252
3.53141
3.52893
3.53083
3.52807
3.53112
3.52723
3.53566
3.54941
3.53538
3.54319
3.56508
3.55716
3.54456
3.56148
3.56685
3.56294
3.53217
3.562
3.55239
3.5991
3.59765
3.6032
3.60673
3.60601
3.59806
3.59776
3.6016
3.60516
3.60634
3.57764
3.5785
3.57057
3.57305
3.57462
3.5718
3.56668
3.5722
3.5556
3.56476
3.56638
3.55776
3.57027
3.56466
3.56507
3.6014
3.58878
3.59192
3.60346
3.59319
3.57892
3.59634
3.59018
3.59441
3.58995
3.59638
3.59185
3.59976
3.58485
3.55839
3.56142
3.56155
3.56312
3.56408
3.56052
3.56405
3.56763
3.57107
3.56699
3.55935
3.56381
3.55958
3.58407
3.58808
3.58297
3.58125
3.58856
3.587
3.5844
3.58479
3.58669
3.57977
3.58688
3.52512
3.52498
3.51744
3.52261
3.52166
3.52781
3.5228
3.52238
3.52191
3.51745
3.52623
3.53191
3.53515
3.53335
3.53469
3.55353
3.55893
3.54211
3.5594
3.55334
3.53739
3.54495
3.54393
3.54931
3.54974
3.54789
3.55198
3.55299
3.55501
3.55713
3.55693
3.54981
3.56126
3.56006
3.55558
3.56329
3.55784
3.6021
3.60462
3.60589
3.6002
3.60847
3.60674
3.60535
3.6034
3.60728
3.60722
3.60623
3.60654
3.60918
3.60774
3.60832
3.57502
3.56823
3.56097
3.56805
3.56792
3.57755
3.56913
3.56585
3.56932
3.56177
3.56768
3.57217
3.56489
3.59548
3.59366
3.59526
3.59729
3.59745
3.60076
3.59806
3.52942
3.53226
3.52361
3.52171
3.52015
3.52073
3.53687
3.5259
3.53073
3.51866
3.52854
3.52069
3.53288
3.52489
3.51749
3.53823
3.53912
3.51979
3.53698
3.53846
3.52957
3.53316
3.55725
3.55706
3.53348
3.55265
3.55903
3.53928
3.54674
3.54325
3.56105
3.56154
3.56206
3.55834
3.55536
3.54063
3.55367
3.56397
3.55261
3.56155
3.56375
3.56041
3.58515
3.57981
3.58531
3.58312
3.57883
3.58149
3.57533
3.57949
3.58017
3.57314
3.57853
3.57283
3.58058
3.58037
3.57309
3.57908
3.57704
3.52682
3.52474
3.517
3.52772
3.53848
3.52296
3.54714
3.53517
3.53658
3.54705
3.54605
3.53834
3.55761
3.53396
3.53785
3.52476
3.53367
3.53839
3.52908
3.53089
3.52821
3.53185
3.53958
3.54402
3.53463
3.53204
3.52816
3.54544
3.53555
3.59354
3.60141
3.5911
3.59781
3.59009
3.59715
3.59792
3.59664
3.58611
3.58302
3.58596
3.58187
3.58092
3.58778
3.55399
3.54487
3.54991
3.54827
3.54952
3.55701
3.54058
3.54863
3.54901
3.5635
3.55731
3.54823
3.55387
3.54577
3.54768
3.57699
3.58541
3.58505
3.58746
3.59193
3.58001
3.57899
3.58458
3.58681
3.58253
3.58028
3.5873
3.59746
3.5773
3.58421
3.59232
3.57209
3.54123
3.53953
3.53254
3.53364
3.53304
3.53898
3.53768
3.52977
3.53093
3.52945
3.54114
3.5347
3.57789
3.58185
3.576
3.57951
3.5856
3.58459
3.57823
3.5887
3.58147
3.58349
3.58724
3.5807
3.57762
3.58782
3.58823
3.5929
3.49395
3.49549
3.49932
3.49482
3.49921
3.50851
3.49821
3.48805
3.49537
3.5668
3.56564
3.56075
3.56305
3.53723
3.5473
3.56861
3.56392
3.54937
3.54441
3.55617
3.54988
3.5524
3.54924
3.5533
3.55704
3.55551
3.55393
3.54253
3.55496
3.55427
3.55162
3.56448
3.5597
3.5372
3.54656
3.54252
3.55309
3.55903
3.54422
3.55577
3.55039
3.54863
3.55821
3.53649
3.55181
3.56588
3.56543
3.54679
3.54723
3.46775
3.48431
3.47526
3.4733
3.49271
3.49116
3.50116
3.50221
3.47537
3.48173
3.49364
3.49835
3.50845
3.50059
3.4932
3.48463
3.4835
3.48086
3.49357
3.49573
3.49498
3.54619
3.53867
3.53932
3.55057
3.54448
3.54703
3.54441
3.54786
3.54595
3.54702
3.54875
3.56169
3.54849
3.56302
3.57283
3.56965
3.5618
3.56301
3.57064
3.56781
3.57196
3.56805
3.57526
3.57649
3.57751
3.57903
3.58191
3.58424
3.56408
3.5615
3.56964
3.57912
3.57466
3.58457
3.5863
3.5818
3.57297
3.57212
3.57858
3.57408
3.56599
3.56266
3.57398
3.58256
3.56913
3.57343
3.5813
3.56447
3.56946
3.57766
3.5764
3.57505
3.49882
3.50048
3.49095
3.49893
3.49433
3.50447
3.51227
3.48592
3.48543
3.49577
3.4943
3.49082
3.49513
3.49737
3.50678
3.50706
3.49933
3.49652
3.50519
3.51052
3.54292
3.53544
3.54379
3.53409
3.53169
3.54134
3.53348
3.54046
3.55062
3.55404
3.54283
3.5503
3.54144
3.54451
3.56328
3.55403
3.55969
3.55063
3.54576
3.55716
3.55681
3.58576
3.58585
3.58294
3.58384
3.58526
3.58343
3.58103
3.58486
3.58554
3.58544
3.58559
3.58532
3.58549
3.58513
3.58388
3.53833
3.53602
3.53432
3.54823
3.54948
3.52955
3.55798
3.55773
3.56211
3.56083
3.52523
3.5272
3.54528
3.54475
3.53718
3.55782
3.54823
3.57519
3.56539
3.55961
3.56327
3.56759
3.57045
3.55553
3.56493
3.56238
3.57292
3.57328
3.57311
3.57262
3.57145
3.56165
3.56492
3.55685
3.57077
3.56322
3.56293
3.56717
3.56943
3.56227
3.57192
3.56665
3.56451
3.58179
3.56838
3.57535
3.56176
3.5772
3.56877
3.58628
3.58453
3.58504
3.57998
3.57727
3.57883
3.58408
3.58693
3.58599
3.58471
3.58095
3.58824
3.56176
3.56346
3.55849
3.55733
3.56314
3.55393
3.55634
3.551
3.55908
3.56228
3.56122
3.56183
3.56693
3.56516
3.55731
3.55761
3.55317
3.59598
3.59663
3.5908
3.59017
3.58764
3.58733
3.58614
3.58794
3.58515
3.58404
3.58716
3.60023
3.59582
3.59032
3.59809
3.58802
3.59522
3.58583
3.59714
3.5907
3.578
3.58686
3.61002
3.60562
3.60824
3.61058
3.59867
3.60539
3.60718
3.60086
3.60081
3.59884
3.59298
3.59654
3.59832
3.60353
3.59868
3.59887
3.592
3.59547
3.59543
3.58559
3.5877
3.58841
3.54017
3.5398
3.54021
3.53943
3.53954
3.53579
3.53524
3.53762
3.54067
3.53752
3.53698
3.54601
3.54296
3.53014
3.53603
3.54807
3.5355
3.54221
3.53912
3.52698
3.52422
3.53577
3.53112
3.5296
3.53293
3.52091
3.51412
3.5125
3.5152
3.53419
3.52756
3.52532
3.53485
3.51777
3.52818
3.54558
3.54672
3.54988
3.54894
3.54757
3.54981
3.54809
3.54994
3.55258
3.55679
3.57838
3.57983
3.58072
3.57832
3.57974
3.57868
3.57913
3.58395
3.58236
3.58172
3.58176
3.58242
3.58005
3.58262
3.58065
3.58344
3.58542
3.58386
3.4962
3.49113
3.47312
3.47805
3.50746
3.498
3.4797
3.48702
3.51809
3.52463
3.52257
3.51824
3.51799
3.51654
3.5119
3.51776
3.50525
3.51476
3.49849
3.56964
3.57317
3.56472
3.55936
3.54978
3.5583
3.5696
3.57149
3.56251
3.56625
3.56034
3.56843
3.38371
3.37494
3.56961
3.40176
3.39979
3.40242
3.40165
3.44956
3.45309
3.44273
3.43017
3.43551
3.43112
3.42043
3.41612
3.57786
3.57433
3.5366
3.53821
3.52547
3.53089
3.42521
3.42721
3.57221
3.48788
3.48715
3.57576
3.58495
3.58028
3.52951
3.53164
3.51908
3.43299
3.43621
3.58067
3.58065
3.43847
3.43809
3.43963
3.57866
3.58309
3.58274
3.58338
3.585
3.58219
3.58623
3.48857
3.49069
3.4832
3.5665
3.56196
3.56605
3.55117
3.55783
3.5537
3.52425
3.52486
3.45233
3.4599
3.4542
3.58203
3.58386
3.58562
3.54168
3.5413
3.55015
3.58816
3.58569
3.50253
3.512
3.55044
3.56109
3.55207
3.47526
3.47974
3.48468
3.58253
3.58224
3.58261
3.47256
3.47806
3.47217
3.53751
3.5318
3.5898
3.58867
3.5882
3.58488
3.58638
3.5881
3.54758
3.54575
3.5688
3.56905
3.56718
3.49192
3.4851
3.48694
3.51359
3.49896
3.49888
3.58959
3.59217
3.58796
3.59107
3.59083
3.52905
3.52967
3.58742
3.59043
3.58602
3.54991
3.54766
3.59718
3.59639
3.59586
3.53104
3.53274
3.56198
3.56167
3.55876
3.55938
3.55795
3.58879
3.59036
3.55374
3.5533
3.54898
3.54934
3.55827
3.56036
3.58869
3.59379
3.59068
3.57295
3.57501
3.57619
3.5783
3.58331
3.58248
3.59879
3.59868
3.60052
3.57199
3.57277
3.60162
3.60259
3.59844
3.60052
3.5948
3.59479
3.59305
3.59571
3.59176
3.58283
3.59045
3.59557
3.59454
3.58928
3.59492
3.59078
3.60224
3.60283
3.58876
3.58177
3.58114
3.60546
3.59962
3.60072
3.60421
3.60043
3.60074
3.63562
3.62272
3.62336
3.60318
3.60315
3.60586
3.5975
3.59266
3.64558
3.64169
3.59356
3.59594
3.60141
3.59541
3.62506
3.63167
3.62966
3.62249
3.62245
3.60749
3.60635
3.6067
3.60755
3.60867
3.60651
3.60656
3.60863
3.60885
3.60598
3.60572
3.60618
3.60557
3.60745
3.58625
3.59736
3.59293
3.58728
3.60807
3.60114
3.60232
3.59853
3.61386
3.60649
3.5986
3.6057
3.60763
3.60405
3.60579
3.60476
3.60624
3.60738
3.61984
3.61348
3.62061
3.61695
3.61126
3.59938
3.59106
3.5931
3.59447
3.58784
3.60262
3.6057
3.60438
3.59176
3.60044
3.59789
3.59234
3.60002
3.5926
3.59068
3.59798
3.59977
3.59104
3.60106
3.59664
3.58606
3.59652
3.59693
3.63612
3.6378
3.63536
3.61954
3.62487
3.62378
3.62481
3.63357
3.62332
3.62894
3.62844
3.63111
3.63401
3.59835
3.59186
3.57576
3.59631
3.60444
3.60185
3.60541
3.59657
3.59651
3.60242
3.60106
3.60047
3.60066
3.60214
3.59708
3.60388
3.59612
3.60126
3.60476
3.60499
3.60393
3.60188
3.60174
3.60155
3.60433
3.60688
3.60784
3.60687
3.60759
3.60435
3.60421
3.60773
3.60691
3.60662
3.6057
3.60469
3.60937
3.60249
3.60728
3.61755
3.61932
3.61512
3.61341
3.6191
3.63072
3.60852
3.60424
3.61291
3.61282
3.60691
3.62004
3.61512
3.63041
3.64511
3.62645
3.64751
3.64707
3.5979
3.60157
3.59572
3.60041
3.59749
3.60216
3.6022
3.60704
3.59642
3.59952
3.59746
3.59884
3.59339
3.5885
3.59168
3.59062
3.59897
3.60444
3.59847
3.59719
3.59793
3.59771
3.59044
3.58785
3.58206
3.58005
3.59759
3.58843
3.59326
3.58416
3.59511
3.5956
3.59106
3.59318
3.59658
3.59455
3.57902
3.58177
3.59247
3.59332
3.59608
3.58814
3.58157
3.59313
3.59835
3.59796
3.58781
3.58737
3.5914
3.58641
3.56885
3.59245
3.5926
3.59614
3.58402
3.5809
3.57419
3.58469
3.57952
3.57662
3.57183
3.57166
3.57419
3.57897
3.57325
3.57052
3.57795
3.57951
3.57883
3.57696
3.58479
3.59004
3.59071
3.59372
3.57931
3.58268
3.58326
3.58145
3.57808
3.57595
3.58273
3.57912
3.58865
3.59522
3.59077
3.57505
3.58469
3.58121
3.58836
3.57663
3.58256
3.58106
3.58549
3.58348
3.58496
3.57214
3.57609
3.58701
3.57465
3.57734
3.58879
3.60449
3.59943
3.59901
3.59341
3.59252
3.59444
3.56031
3.56125
3.57236
3.58018
3.60213
3.57885
3.57499
3.58259
3.58845
3.59853
3.60044
3.57931
3.57189
3.5829
3.58547
3.59129
3.57506
3.58634
3.5919
3.58613
3.59085
3.58232
3.59136
3.5918
3.58967
3.58612
3.57653
3.57706
3.58623
3.58893
3.58366
3.59183
3.59428
3.59316
3.59231
3.58164
3.5859
3.58751
3.59026
3.58505
3.5844
3.60083
3.59852
3.59656
3.59984
3.5958
3.59797
3.60156
3.60094
3.59963
3.59646
3.59604
3.60078
3.60243
3.60084
3.5995
3.59865
3.59886
3.60149
3.59874
3.59952
3.59951
3.59427
3.60082
3.5986
3.59959
3.60031
3.55145
3.56613
3.56311
3.56166
3.55815
3.5644
3.57454
3.57093
3.56978
3.5689
3.57116
3.57931
3.56906
3.59599
3.59682
3.59863
3.59594
3.59991
3.59893
3.59832
3.59767
3.60029
3.59716
3.59817
3.59757
3.59782
3.60022
3.60228
3.60256
3.60214
3.6009
3.59966
3.59982
3.60227
3.60162
3.59951
3.59835
3.59742
3.59828
3.60229
3.60217
3.59873
3.59934
3.59911
3.59845
3.58016
3.5864
3.56335
3.57253
3.57838
3.573
3.57587
3.57069
3.56992
3.56029
3.55797
3.56477
3.56257
3.5628
3.5578
3.55964
3.56939
3.56948
3.56757
3.57226
3.56634
3.56426
3.5846
3.57503
3.57365
3.56911
3.56423
3.59621
3.59636
3.59643
3.59247
3.59674
3.59287
3.58221
3.59064
3.59221
3.59628
3.58251
3.59176
3.58662
3.5938
3.58173
3.53755
3.53802
3.54753
3.55141
3.55493
3.54323
3.54718
3.54234
3.54733
3.54041
3.54355
3.53122
3.55451
3.53446
3.54542
3.53503
3.54199
3.56296
3.55675
3.56706
3.57897
3.56885
3.56898
3.57602
3.54877
3.54615
3.55081
3.56038
3.57809
3.57999
3.57988
3.58624
3.58631
3.59199
3.59119
3.59013
3.59218
3.59133
3.59298
3.59038
3.59358
3.59301
3.5944
3.59466
3.58874
3.58778
3.59663
3.59676
3.59087
3.58868
3.54371
3.55024
3.56032
3.56089
3.5623
3.55205
3.57155
3.5753
3.5636
3.56553
3.57042
3.56199
3.5577
3.56396
3.57065
3.57417
3.55867
3.55868
3.54561
3.55566
3.54957
3.55941
3.55574
3.55207
3.55614
3.57287
3.57603
3.57758
3.57912
3.56996
3.57353
3.56323
3.56954
3.57302
3.56875
3.51086
3.52116
3.52352
3.52325
3.53004
3.52478
3.54471
3.54082
3.54264
3.54288
3.53458
3.53276
3.52559
3.53165
3.52566
3.53312
3.53505
3.5554
3.55857
3.54447
3.54705
3.54569
3.53913
3.55608
3.56279
3.55857
3.5577
3.53973
3.54589
3.54372
3.5488
3.59036
3.59224
3.59451
3.59221
3.59482
3.5948
3.59397
3.5945
3.59673
3.59454
3.59387
3.59287
3.5956
3.59343
3.59398
3.59255
3.59259
3.59705
3.59662
3.59421
3.59493
3.52743
3.53257
3.53797
3.55449
3.55789
3.56023
3.55446
3.55842
3.56713
3.5592
3.56814
3.55407
3.55705
3.56047
3.55734
3.56187
3.56538
3.57012
3.56432
3.56211
3.54872
3.55631
3.56622
3.55692
3.58719
3.59225
3.58772
3.59025
3.57649
3.58164
3.58778
3.57476
3.58601
3.58011
3.58233
3.58166
3.58699
3.59168
3.58307
3.57853
3.58228
3.58551
3.58027
3.57538
3.57234
3.58634
3.57552
3.57969
3.57468
3.57876
3.5808
3.57275
3.57879
3.51531
3.51894
3.5219
3.51819
3.54515
3.53536
3.54159
3.54446
3.54233
3.53376
3.54143
3.53524
3.58846
3.59128
3.59268
3.58831
3.58988
3.59051
3.59099
3.59097
3.59055
3.58994
3.59162
3.59123
3.59185
3.58301
3.57349
3.56319
3.5768
3.58378
3.57869
3.59481
3.59316
3.59252
3.58938
3.58702
3.50607
3.50813
3.50133
3.49937
3.50386
3.51074
3.48374
3.51069
3.49261
3.50733
3.48676
3.49829
3.48925
3.4945
3.50548
3.51025
3.51069
3.47908
3.5019
3.47734
3.4843
3.49741
3.5065
3.50415
3.51181
3.49864
3.49983
3.56412
3.56489
3.56729
3.56064
3.58116
3.56377
3.56764
3.57556
3.57341
3.57032
3.56428
3.5705
3.53776
3.54374
3.53365
3.54095
3.54106
3.53735
3.55672
3.56513
3.55176
3.55234
3.55058
3.55271
3.55227
3.56665
3.55327
3.55924
3.55552
3.5565
3.5612
3.57012
3.56011
3.55216
3.56996
3.53894
3.53022
3.52713
3.53708
3.54423
3.54543
3.53217
3.5328
3.58837
3.59036
3.58543
3.59339
3.59116
3.59265
3.59494
3.57986
3.58906
3.58768
3.58186
3.59177
3.58514
3.5782
3.58838
3.57765
3.59025
3.58575
3.58752
3.57421
3.57677
3.57982
3.57946
3.58511
3.58648
3.57541
3.58446
3.58241
3.58038
3.58127
3.58853
3.58426
3.58804
3.58799
3.58831
3.58675
3.58789
3.58848
3.58851
3.58689
3.58684
3.58851
3.58732
3.59035
3.58757
3.58745
3.52734
3.52813
3.53591
3.50785
3.51797
3.52135
3.52507
3.52408
3.52402
3.52772
3.50113
3.50276
3.50927
3.52483
3.5279
3.52673
3.51943
3.51697
3.51573
3.51613
3.56029
3.55689
3.5578
3.54808
3.55448
3.5485
3.54126
3.54163
3.47134
3.46543
3.46738
3.46629
3.47011
3.48849
3.4997
3.47831
3.49024
3.4823
3.48572
3.47087
3.51043
3.49867
3.49492
3.50193
3.50046
3.49515
3.49098
3.49161
3.49318
3.57427
3.57866
3.57441
3.58219
3.58338
3.57941
3.58514
3.57647
3.57527
3.58004
3.58036
3.58461
3.58282
3.57549
3.57341
3.5808
3.57815
3.5896
3.58831
3.58395
3.58446
3.5819
3.58362
3.5864
3.58437
3.46376
3.46762
3.46641
3.47938
3.47309
3.47957
3.4843
3.48581
3.48958
3.49354
3.48425
3.46674
3.48016
3.46408
3.47319
3.4687
3.47422
3.56413
3.5686
3.54025
3.53996
3.5387
3.54351
3.54137
3.54273
3.52964
3.5406
3.53415
3.54151
3.54572
3.53928
3.52817
3.53215
3.48314
3.49078
3.47859
3.48969
3.49823
3.52306
3.52173
3.51524
3.52886
3.53365
3.51884
3.52273
3.53439
3.52855
3.51675
3.52053
3.53437
3.53762
3.50655
3.50685
3.5076
3.51164
3.51105
3.5139
3.51738
3.58737
3.58596
3.58415
3.58246
3.58791
3.58658
3.58449
3.57486
3.57927
3.58844
3.58831
3.58985
3.58635
3.58146
3.58554
3.5873
3.58292
3.58188
3.55013
3.54573
3.55235
3.52094
3.53279
3.52603
3.53504
3.5222
3.52153
3.53686
3.53764
3.53545
3.53619
3.56403
3.56819
3.55624
3.55869
3.55133
3.5831
3.58435
3.58315
3.58386
3.5782
3.58205
3.57925
3.5819
3.58202
3.58324
3.57753
3.57229
3.5785
3.46063
3.46071
3.48296
3.47084
3.47312
3.47862
3.48409
3.46604
3.47706
3.48284
3.54004
3.54762
3.5584
3.54214
3.53561
3.55342
3.55655
3.55006
3.51013
3.51605
3.51977
3.51647
3.47783
3.47561
3.48134
3.50453
3.50903
3.51238
3.52128
3.50921
3.49446
3.49411
3.56738
3.56451
3.57096
3.57386
3.57228
3.53398
3.53787
3.56837
3.56667
3.55725
3.56517
3.56026
3.55148
3.54835
3.55802
3.56127
3.56096
3.55247
3.55629
3.52441
3.52987
3.56519
3.55189
3.5605
3.55027
3.56062
3.55328
3.57286
3.57606
3.57146
3.57286
3.55903
3.5522
3.55924
3.56221
3.58587
3.57217
3.56909
3.57506
3.57522
3.57726
3.56736
3.56044
3.57022
3.56605
3.44965
3.45765
3.46178
3.47635
3.47615
3.47402
3.47889
3.47893
3.58291
3.58043
3.57936
3.58788
3.58347
3.58116
3.58397
3.58022
3.5788
3.57453
3.58299
3.58782
3.57943
3.58322
3.58153
3.5787
3.57982
3.58608
3.58586
3.58217
3.57361
3.57225
3.58431
3.58247
3.57479
3.57444
3.58436
3.58274
3.57963
3.57799
3.57285
3.56133
3.57804
3.58072
3.57871
3.57408
3.57212
3.58212
3.56547
3.57561
3.57042
3.58655
3.5741
3.57542
3.57024
3.56926
3.56063
3.57833
3.5808
3.43788
3.43713
3.44316
3.43904
3.44393
3.57761
3.57683
3.57237
3.5786
3.57997
3.57584
3.57734
3.57774
3.58052
3.58266
3.58331
3.58102
3.58255
3.4317
3.44627
3.43184
3.43901
3.44861
3.44864
3.47745
3.47021
3.48599
3.50133
3.50175
3.50441
3.51116
3.52847
3.52274
3.51862
3.53208
3.52535
3.52088
3.51687
3.57243
3.58039
3.58059
3.57455
3.57874
3.57628
3.57819
3.57628
3.44938
3.45539
3.44722
3.45837
3.50712
3.49793
3.50471
3.4705
3.48116
3.4657
3.46807
3.45777
3.46486
3.48249
3.46435
3.51028
3.50686
3.50476
3.51715
3.50215
3.49801
3.57387
3.57477
3.5672
3.56793
3.56217
3.57108
3.56646
3.56855
3.57116
3.5716
3.56342
3.57081
3.5726
3.42374
3.41041
3.4226
3.44627
3.41171
3.41635
3.4265
3.43823
3.43643
3.44279
3.43418
3.43721
3.42888
3.43442
3.50392
3.51617
3.5216
3.50833
3.50404
3.55517
3.55049
3.54798
3.53499
3.54533
3.54988
3.5441
3.5776
3.57736
3.57481
3.57821
3.57431
3.57622
3.56602
3.57621
3.57187
3.41848
3.42995
3.41609
3.40439
3.40652
3.41606
3.39635
3.39923
3.40725
3.44899
3.44844
3.43834
3.42215
3.43224
3.41145
3.4152
3.42567
3.42904
3.46066
3.45507
3.46999
3.45705
3.46234
3.46767
3.4498
3.45046
3.46594
3.45464
3.45141
3.46641
3.46202
3.45873
3.44824
3.45198
3.45437
3.41117
3.41254
3.42127
3.41679
3.42916
3.44458
3.44087
3.44352
3.44597
3.44435
3.44718
3.44808
3.43052
3.4372
3.43389
3.46038
3.46002
3.48776
3.4646
3.45409
3.38994
3.40532
3.38981
3.40717
3.41545
3.41151
3.42931
3.40745
3.42494
3.43939
3.41945
3.42841
3.40081
3.40496
3.41012
3.54752
3.54948
3.54224
3.56374
3.52941
3.53493
3.53156
3.51136
3.52077
3.51914
3.56318
3.56287
3.55774
3.56312
3.55598
3.56328
3.55784
3.55784
3.54823
3.56334
3.56436
3.56688
3.57296
3.57273
3.384
3.38902
3.3908
3.4134
3.42216
3.39956
3.38174
3.40042
3.38639
3.3932
3.41461
3.48889
3.48194
3.47719
3.49016
3.49436
3.53584
3.55009
3.54308
3.54286
3.53382
3.52851
3.54627
3.53631
3.52544
3.52969
3.53587
3.52263
3.52497
3.51089
3.57431
3.56937
3.56712
3.57096
3.56586
3.56316
3.57112
3.56859
3.54859
3.5382
3.54756
3.53918
3.55156
3.55381
3.54053
3.53684
3.40403
3.41251
3.42372
3.39093
3.38801
3.38688
3.39718
3.38906
3.39989
3.40063
3.41026
3.41669
3.40766
3.46488
3.46333
3.46644
3.45989
3.47725
3.49045
3.48274
3.47098
3.47103
3.48656
3.4928
3.44378
3.43426
3.45823
3.45418
3.44496
3.44057
3.43265
3.43578
3.43127
3.4464
3.44712
3.44576
3.4174
3.42929
3.4126
3.42827
3.40528
3.40612
3.40166
3.41229
3.42489
3.41961
3.4405
3.4333
3.4166
3.4169
3.416
3.4226
3.41832
3.41498
3.42492
3.43604
3.42445
3.41755
3.4192
3.41944
3.42381
3.56909
3.57265
3.57888
3.57368
3.57209
3.5699
3.57225
3.56765
3.57872
3.57055
3.57485
3.56895
3.57747
3.56751
3.56389
3.45074
3.444
3.44696
3.44271
3.45172
3.44934
3.45735
3.44399
3.44892
3.45945
3.5575
3.56529
3.5604
3.56386
3.5652
3.5762
3.57412
3.57789
3.57603
3.57496
3.48445
3.48042
3.47764
3.47756
3.47856
3.49064
3.49691
3.49262
3.48694
3.52683
3.54422
3.52922
3.54777
3.54915
3.55219
3.53695
3.53863
3.51126
3.50777
3.50967
3.51923
3.52114
3.52253
3.51728
3.50898
3.51902
3.51243
3.47168
3.4503
3.45906
3.452
3.456
3.46574
3.46239
3.57781
3.57727
3.57923
3.58087
3.57269
3.58405
3.5826
3.57965
3.58031
3.57886
3.57896
3.57773
3.57803
3.57562
3.5776
3.57745
3.56723
3.57407
3.57457
3.57579
3.57344
3.58074
3.57383
3.58386
3.57813
3.57493
3.56985
3.58444
3.58458
3.57704
3.57633
3.58174
3.57839
3.58261
3.57863
3.58337
3.58078
3.57955
3.5801
3.57987
3.57946
3.57977
3.58147
3.58193
3.58227
3.49245
3.4893
3.4974
3.50157
3.49298
3.50132
3.49714
3.51105
3.50464
3.48662
3.48474
3.49129
3.4896
3.49006
3.4654
3.47597
3.46255
3.46235
3.4642
3.46015
3.46953
3.56911
3.56922
3.56166
3.56819
3.56363
3.53876
3.54312
3.54637
3.54498
3.55094
3.54428
3.53723
3.53917
3.52961
3.51219
3.51301
3.50769
3.50306
3.49128
3.48374
3.47932
3.48456
3.47864
3.49526
3.50332
3.48153
3.47766
3.49203
3.49848
3.49146
3.50241
3.49131
3.47535
3.47643
3.48205
3.49132
3.47343
3.47142
3.4779
3.46905
3.58125
3.57873
3.57977
3.58126
3.58258
3.58026
3.57917
3.57417
3.57899
3.58177
3.58045
3.58344
3.58257
3.58489
3.58349
3.58262
3.57832
3.57393
3.57095
3.56978
3.57043
3.56048
3.51105
3.49535
3.49368
3.51124
3.50101
3.50688
3.51187
3.49934
3.49495
3.49568
3.49843
3.50733
3.51986
3.51647
3.49735
3.50004
3.58609
3.5824
3.58241
3.58463
3.58848
3.5844
3.58146
3.58035
3.58436
3.58337
3.58206
3.58668
3.58352
3.58521
3.58533
3.56639
3.56177
3.57225
3.57112
3.57024
3.5734
3.57018
3.56404
3.56691
3.56933
3.56878
3.57041
3.55199
3.56231
3.46417
3.47385
3.46349
3.457
3.46076
3.45764
3.46069
3.45053
3.47123
3.47849
3.45433
3.49828
3.5064
3.50099
3.49788
3.49481
3.49706
3.49253
3.51347
3.51242
3.50986
3.50649
3.4965
3.58459
3.5877
3.58505
3.58593
3.58913
3.58986
3.59183
3.50695
3.50717
3.50287
3.50192
3.49247
3.50688
3.51221
3.5897
3.58877
3.5862
3.58571
3.58805
3.58711
3.58215
3.58103
3.58324
3.58215
3.58211
3.58312
3.58647
3.5809
3.58399
3.58442
3.5847
3.58588
3.57526
3.57017
3.58507
3.58067
3.57956
3.5819
3.57866
3.57663
3.57655
3.57499
3.56904
3.57272
3.58186
3.5817
3.5729
3.56636
3.57257
3.56199
3.57928
3.57213
3.58146
3.59469
3.59081
3.5924
3.58726
3.59011
3.59193
3.59153
3.58362
3.59021
3.58887
3.58946
3.58871
3.59005
3.5836
3.59516
3.59357
3.59112
3.50598
3.48846
3.48604
3.48839
3.49771
3.48012
3.48603
3.48688
3.48378
3.49056
3.49359
3.49353
3.49974
3.49725
3.49285
3.48474
3.50612
3.50544
3.50997
3.49711
3.50283
3.49792
3.50467
3.51997
3.51802
3.52023
3.52494
3.52775
3.51764
3.51563
3.59043
3.59106
3.59025
3.59443
3.59134
3.5913
3.59126
3.59096
3.59019
3.58837
3.58843
3.59147
3.59097
3.59009
3.58866
3.561
3.56999
3.55796
3.57709
3.57495
3.56688
3.57044
3.56732
3.57371
3.5628
3.58761
3.59283
3.58802
3.58335
3.58625
3.58987
3.53463
3.53254
3.5392
3.53369
3.53162
3.5417
3.53278
3.5918
3.59167
3.59105
3.59398
3.59321
3.59117
3.58856
3.50922
3.50737
3.51258
3.51191
3.50983
3.51124
3.52617
3.5206
3.52207
3.51475
3.52381
3.52758
3.53382
3.53495
3.51966
3.54994
3.54862
3.55643
3.54813
3.55712
3.55233
3.53832
3.55133
3.53586
3.54396
3.54527
3.53762
3.54787
3.54455
3.54643
3.53925
3.54422
3.55206
3.54984
3.54931
3.5534
3.56672
3.56321
3.55694
3.57083
3.56629
3.56649
3.56033
3.5436
3.5565
3.55151
3.54927
3.54451
3.55373
3.55898
3.54563
3.54088
3.57769
3.58887
3.58634
3.58373
3.5875
3.58877
3.5872
3.57486
3.5828
3.57908
3.57639
3.5867
3.58426
3.5829
3.58385
3.58239
3.58101
3.57199
3.55436
3.56257
3.56216
3.56451
3.56889
3.5558
3.55685
3.55702
3.55982
3.51819
3.5147
3.50992
3.52229
3.51674
3.52461
3.5211
3.52506
3.53441
3.52159
3.55288
3.54895
3.55168
3.55172
3.54082
3.55511
3.55226
3.55141
3.55374
3.59569
3.59363
3.60196
3.59791
3.59641
3.59392
3.60017
3.59908
3.57732
3.59509
3.58863
3.5879
3.59365
3.5835
3.58558
3.5865
3.5846
3.58564
3.58745
3.58473
3.58489
3.59464
3.57389
3.57888
3.57645
3.5824
3.58287
3.57578
3.57775
3.58082
3.57255
3.58438
3.58189
3.57469
3.58463
3.58183
3.58652
3.58298
3.5811
3.57677
3.56375
3.57091
3.56305
3.57122
3.56407
3.57939
3.57556
3.58085
3.57961
3.56497
3.56316
3.59601
3.59625
3.59988
3.596
3.60046
3.59724
3.59519
3.59251
3.59648
3.59409
3.58723
3.59363
3.6004
3.5951
3.59375
3.597
3.59317
3.59727
3.59671
3.59966
3.60237
3.60138
3.60099
3.60267
3.58559
3.58366
3.58208
3.59481
3.59042
3.58998
3.58985
3.58633
3.58633
3.58014
3.57217
3.57895
3.58054
3.57652
3.57939
3.59058
3.58016
3.58582
3.57939
3.56928
3.58474
3.57927
3.58702
3.58803
3.58489
3.58785
3.57858
3.58537
3.59068
3.57892
3.58445
3.58391
3.58974
3.58666
3.5798
3.57662
3.58245
3.58016
3.57517
3.56185
3.58385
3.58695
3.57725
3.58189
3.53254
3.52914
3.54172
3.5449
3.54593
3.53782
3.53321
3.55045
3.55031
3.59336
3.59768
3.60779
3.61636
3.6149
3.61245
3.60616
3.61906
3.62079
3.62886
3.58348
3.58312
3.58851
3.57745
3.57735
3.5693
3.57679
3.57803
3.58311
3.58803
3.58504
3.57929
3.58832
3.59575
3.59061
3.59732
3.58539
3.59208
3.58573
3.58991
3.58723
3.5716
3.58646
3.58272
3.60187
3.60349
3.60328
3.60088
3.59761
3.6093
3.60277
3.60179
3.59974
3.60639
3.6035
3.60305
3.60267
3.59921
3.60356
3.60158
3.5987
3.59978
3.60179
3.60142
3.60397
3.60274
3.60084
3.6003
3.60204
3.6009
3.60103
3.60006
3.60025
3.5981
3.5957
3.58884
3.60569
3.60036
3.59359
3.59117
3.58454
3.60569
3.60307
3.59418
3.61758
3.61374
3.62566
3.62777
3.61892
3.62231
3.61025
3.6146
3.61099
3.61222
3.6099
3.60717
3.59395
3.60704
3.59703
3.61544
3.60539
3.59774
3.61415
3.62091
3.60239
3.60443
3.61016
3.60241
3.59906
3.62176
3.61478
3.60748
3.61107
3.6053
3.62026
3.6148
3.63846
3.62068
3.63736
3.6281
3.64358
3.63724
3.638
3.63628
3.63056
3.63131
3.64458
3.60269
3.60889
3.60663
3.60361
3.60773
3.60777
3.60093
3.604
3.60589
3.60318
3.60388
3.60452
3.6056
3.60812
3.60553
3.60674
3.60829
3.60671
3.60625
3.60651
3.60752
3.60715
3.60785
3.6063
3.59253
3.58467
3.60173
3.60005
3.60359
3.59912
3.60041
3.59293
3.58045
3.60592
3.59653
3.59629
3.60414
3.61611
3.59638
3.59337
3.59892
3.5954
3.59549
3.59237
3.59696
3.59648
3.5958
3.5846
3.58464
3.58368
3.59466
3.59199
3.59452
3.59174
3.58833
3.58516
3.59015
3.57548
3.59042
3.58876
3.58595
3.58754
3.58365
3.58792
3.58906
3.58936
3.58135
3.58404
3.58396
3.58352
3.58426
3.58369
3.58749
3.5871
3.57561
3.57587
3.57411
3.57924
3.57852
3.57941
3.58128
3.57775
3.57856
3.54291
3.54776
3.54688
3.54937
3.5528
3.54185
3.54277
3.54758
3.54194
3.53509
3.53477
3.56965
3.56515
3.57124
3.56254
3.55674
3.56418
3.56446
3.5677
3.56626
3.55431
3.57158
3.56615
3.57458
3.56104
3.57163
3.55857
3.56804
3.57151
3.55679
3.55639
3.56257
3.55176
3.55957
3.56384
3.56404
3.546
3.54122
3.51947
3.51206
3.52341
3.53228
3.52713
3.51847
3.52996
3.53556
3.53039
3.52855
3.50775
3.51858
3.52644
3.53366
3.58706
3.58412
3.58349
3.58311
3.58006
3.58398
3.58277
3.58291
3.58268
3.47991
3.47148
3.4504
3.4536
3.46052
3.44981
3.45106
3.45445
3.46735
3.45616
3.45282
3.45017
3.47265
3.45731
3.57267
3.57233
3.57354
3.57099
3.57218
3.57237
3.57372
3.56996
3.56734
3.56888
3.57874
3.57757
3.57602
3.5752
3.59999
3.59611
3.60378
3.59813
3.60119
3.59904
3.6041
3.60043
3.6035
3.57171
3.57332
3.57871
3.56847
3.57363
3.56982
3.57329
3.57149
3.56733
3.58322
3.57422
3.56998
3.56326
3.5708
3.58072
3.57513
3.58292
3.57666
3.44524
3.43886
3.42558
3.44655
3.43696
3.42064
3.42804
3.43395
3.41874
3.42722
3.45225
3.45253
3.45212
3.44725
3.46083
3.44742
3.46485
3.44662
3.59215
3.59651
3.58665
3.60191
3.60018
3.59343
3.58822
3.57457
3.58966
3.5934
3.58397
3.58816
3.608
3.60389
3.5904
3.59797
3.58823
3.58544
3.60734
3.60641
3.60838
3.61002
3.60756
3.60821
3.60847
3.60945
3.60999
3.60572
3.60454
3.6049
3.60506
3.60459
3.60734
3.60595
3.60437
3.60703
3.60539
3.61712
3.61772
3.61731
3.59603
3.60052
3.60043
3.59782
3.59582
3.59434
3.5937
3.59292
3.59395
3.60192
3.60157
3.60135
3.6035
3.60118
3.60226
3.60371
3.60433
3.60579
3.60427
3.6014
3.60176
3.60464
3.60413
3.60186
3.59847
3.59512
3.60043
3.59751
3.59901
3.59299
3.60666
3.59914
3.5939
3.58183
3.58301
3.57819
3.5908
3.58831
3.5715
3.55785
3.563
3.57093
3.5778
3.57565
3.57322
3.56451
3.57489
3.57561
3.56036
3.57151
3.57116
3.57849
3.57123
3.57219
3.57681
3.60855
3.5995
3.57363
3.57256
3.5799
3.57117
3.56882
3.57209
3.59135
3.57503
3.5653
3.57495
3.5868
3.5995
3.59222
3.59409
3.59774
3.59215
3.5978
3.59037
3.59197
3.58302
3.60375
3.59485
3.58225
3.57567
3.58698
3.57318
3.58815
3.57731
3.58598
3.59678
3.59613
3.5964
3.59559
3.59665
3.5966
3.59431
3.59547
3.59777
3.59823
3.60183
3.60048
3.60044
3.60059
3.6005
3.60007
3.60094
3.57314
3.56927
3.57855
3.58344
3.58045
3.55764
3.57025
3.5719
3.55484
3.56544
3.57132
3.57459
3.56947
3.56901
3.56634
3.55462
3.56419
3.57237
3.56565
3.57
3.55744
3.56298
3.55691
3.55176
3.56944
3.55365
3.54366
3.53839
3.54117
3.54921
3.54567
3.55057
3.54397
3.53512
3.53561
3.55263
3.55489
3.56496
3.55485
3.56433
3.56001
3.55043
3.56492
3.5674
3.56234
3.5501
3.55138
3.58855
3.5899
3.59549
3.5967
3.58965
3.59634
3.59682
3.59592
3.59337
3.58964
3.573
3.58044
3.56753
3.56502
3.56709
3.5662
3.57781
3.57529
3.56586
3.58975
3.59133
3.59104
3.59005
3.59085
3.59075
3.58973
3.59296
3.59128
3.59108
3.59152
3.59364
3.59096
3.5903
3.58984
3.5914
3.5893
3.59186
3.58977
3.58782
3.59059
3.59045
3.59096
3.59067
3.59143
3.58913
3.55426
3.55945
3.51066
3.51465
3.50739
3.50264
3.48522
3.47377
3.47828
3.47416
3.47402
3.47356
3.47998
3.48976
3.49551
3.49477
3.48342
3.48622
3.49248
3.48933
3.54232
3.59147
3.58184
3.58701
3.58834
3.59231
3.5899
3.58963
3.58941
3.57864
3.58211
3.58753
3.58781
3.59242
3.58152
3.58488
3.5913
3.58402
3.59003
3.59041
3.58411
3.58409
3.58466
3.58158
3.58703
3.58757
3.51653
3.50521
3.51998
3.52603
3.51301
3.51036
3.50905
3.51257
3.51763
3.57991
3.57317
3.57838
3.57508
3.5721
3.57605
3.56613
3.57146
3.57318
3.56763
3.56713
3.49904
3.49221
3.50486
3.50398
3.5185
3.52982
3.51749
3.52983
3.52431
3.52849
3.53789
3.53065
3.52832
3.5318
3.53256
3.50034
3.48874
3.50277
3.48819
3.49676
3.50664
3.50151
3.49849
3.50395
3.58631
3.58656
3.58111
3.58648
3.58604
3.58111
3.58465
3.58754
3.58658
3.58505
3.58455
3.57971
3.57781
3.56554
3.5704
3.56877
3.57224
3.57325
3.56018
3.56032
3.56049
3.56716
3.57074