/*--------------------------------*- C++ -*----------------------------------*\
| =========                 |                                                 |
| \\      /  F ield         | OpenFOAM: The Open Source CFD Toolbox           |
|  \\    /   O peration     | Version:  v1612+                                |
|   \\  /    A nd           | Web:      www.OpenFOAM.com                      |
|    \\/     M anipulation  |                                                 |
\*---------------------------------------------------------------------------*/
FoamFile
{
    version     2.0;
    format      ascii;
    class       volVectorField;
    location    "118";
    object      wallShearStress;
}
// * * * * * * * * * * * * * * * * * * * * * * * * * * * * * * * * * * * * * //

dimensions      [0 2 -2 0 0 0 0];

internalField   uniform (0 0 0);

boundaryField
{
    WALL
    {
        type            calculated;
        value           nonuniform List<vector> 
1549
(
(0.0143852 0.00136799 0.00765521)
(0.0155036 0.00141207 0.00829378)
(0.0138957 0.00176068 0.00728141)
(0.0146641 0.00258454 0.00768142)
(0.0121139 -0.000355752 0.0066498)
(0.0116736 -0.00034339 0.00606496)
(0.0114903 0.00115472 0.00412035)
(0.0126458 0.000901894 0.00543397)
(0.010646 -0.000721104 0.00254824)
(0.0101411 -0.00132622 0.00232573)
(0.0140004 0.000406051 0.00806967)
(0.0150643 -0.000156035 0.00884148)
(0.0136688 0.00266683 0.00613966)
(0.0141722 0.00288191 0.00652855)
(0.020991 0.00198782 0.00874632)
(0.0215177 0.00135879 0.00859503)
(0.0112091 0.00316468 0.0027309)
(0.0113516 0.00356372 0.00272907)
(0.0179494 -0.00385785 0.0067748)
(0.0174023 -0.00303078 0.00745132)
(0.0144314 -0.00348512 0.00497244)
(0.0107516 -0.00557367 0.0100682)
(0.0129924 -0.00427588 0.0107093)
(0.013565 -0.00390667 0.0106024)
(0.00930259 -0.00269582 0.00240592)
(0.0095147 -0.00278056 0.00276574)
(0.0127473 -0.00181603 0.0096388)
(0.0127582 -0.00164174 0.0100176)
(0.0112519 0.00028306 0.0058677)
(0.0112982 0.000812016 0.00578519)
(0.0110844 -0.00488445 0.00736353)
(0.0117271 -0.00445139 0.00792609)
(0.0144342 0.000369618 0.0094441)
(0.0143912 0.000213745 0.00945909)
(0.0165507 0.00124991 0.00855511)
(0.0151609 0.000893144 0.00938331)
(0.00865617 -0.0019445 0.00221102)
(0.00862295 -0.002357 0.00229359)
(0.00796296 0.000497178 0.00315334)
(0.00747733 0.000730344 0.00309822)
(0.0077724 0.000790846 0.00176902)
(0.00809268 0.000989859 0.00171218)
(0.0115569 -0.00370434 0.0100086)
(0.0162441 0.0072293 0.0067513)
(0.0143507 0.00580134 0.00521598)
(0.0137565 0.00476848 0.0046449)
(0.0153657 0.0058551 0.00560573)
(0.0101687 -0.000129357 0.00286096)
(0.0107364 -0.000180145 0.00334536)
(0.0101151 -0.000369873 0.00245437)
(0.0116543 -0.000439582 0.00300706)
(0.0101554 -0.000789973 0.00205142)
(0.00993196 -0.000790308 0.00236022)
(0.0179952 0.00261575 0.00887402)
(0.018115 0.0012926 0.00881357)
(0.0183524 0.00141833 0.00893978)
(0.0176163 0.00186984 0.00859519)
(0.0176859 0.0023014 0.00890123)
(0.0150644 0.00502492 0.00603914)
(0.0166407 0.00532494 0.0072063)
(0.0162107 0.00482329 0.00721194)
(0.0164809 0.00471821 0.00772747)
(0.0138781 0.00153875 0.00729392)
(0.0137822 -7.73249e-05 0.00846479)
(0.0131425 0.00143916 0.00670799)
(0.0138899 0.000281533 0.00810137)
(0.0131009 0.000765891 0.00720374)
(0.0142655 0.00116788 0.00784358)
(0.0173771 -0.00333089 0.00659586)
(0.017185 -0.00209972 0.006964)
(0.0180947 -0.00235139 0.00730901)
(0.0178727 -0.00244825 0.00664509)
(0.0187584 -0.00253604 0.00691794)
(0.0181581 -0.00392421 0.00733006)
(0.0155931 -0.006227 0.00745309)
(0.0145083 -0.00620602 0.00700728)
(0.016593 -0.00617267 0.00856099)
(0.0155025 -0.00560453 0.00703758)
(0.0154199 -0.00644076 0.00698539)
(0.0156202 -0.00577148 0.00848551)
(0.0104374 0.0010812 0.00298861)
(0.011055 0.00117879 0.00346392)
(0.0111714 0.00106267 0.00383638)
(0.0111749 0.00121545 0.00424339)
(0.0114803 0.00150395 0.00387196)
(0.0106238 -0.0065947 0.00586709)
(0.0113985 -0.00699226 0.00598878)
(0.0111576 -0.00713342 0.00706351)
(0.0106556 -0.00820954 0.00744549)
(0.0110513 -0.00712359 0.00602734)
(0.0108741 -0.00730084 0.00680146)
(0.0107144 -0.00719215 0.00736243)
(0.0161481 0.00306116 0.00793746)
(0.0160735 0.00314733 0.00779733)
(0.0169108 0.00285001 0.00882808)
(0.0169098 0.00337112 0.00803333)
(0.0180096 0.00387422 0.00794652)
(0.0169159 0.00317457 0.00820729)
(0.0145985 0.000479936 0.00990524)
(0.0141809 0.000224462 0.00982101)
(0.0143697 0.000141563 0.0101691)
(0.0135273 -0.000263856 0.00983232)
(0.0159538 0.00101461 0.00978005)
(0.0141859 0.000528372 0.00916228)
(0.0170112 0.000102974 0.00738561)
(0.0153596 0.000203268 0.00737462)
(0.0161358 -0.000153208 0.00715987)
(0.0159255 0.000258749 0.00697768)
(0.0156838 7.77302e-05 0.00743945)
(0.0161047 0.000469896 0.00755735)
(0.00828333 0.000758558 0.00351888)
(0.00871472 0.000812993 0.00389431)
(0.00817194 0.000585949 0.0034967)
(0.0072424 0.000329111 0.00263081)
(0.00797686 0.000537273 0.00335513)
(0.00778417 0.000225615 0.00303048)
(0.00705148 0.000163724 0.00213209)
(0.00693373 7.04935e-05 0.00186722)
(0.00696611 -0.000191827 0.00199502)
(0.0072106 -0.000190563 0.00217139)
(0.00699921 0.000151702 0.00195671)
(0.00722617 -8.19733e-05 0.0022817)
(0.011473 -0.00149379 0.0062607)
(0.0110332 -0.00148236 0.00546347)
(0.0104156 -0.00213619 0.00566633)
(0.0110347 -0.00164307 0.00580756)
(0.0109356 -0.00229892 0.00640384)
(0.011488 -0.00178937 0.00626631)
(0.0115559 -0.00361513 0.00884935)
(0.0111973 -0.00406919 0.00872391)
(0.0122736 -0.00300416 0.00920879)
(0.0124215 -0.00292092 0.00967507)
(0.0115359 -0.00270459 0.00841123)
(0.0120903 -0.00322199 0.00845653)
(0.00968874 -0.00254776 0.00192834)
(0.00950998 -0.00262455 0.00232208)
(0.00942061 -0.00211385 0.00230994)
(0.00986105 -0.00220001 0.00192623)
(0.0094304 -0.00201325 0.00197492)
(0.00996349 -0.00280805 0.00220767)
(0.0123705 -0.00164668 0.00368389)
(0.0124024 -0.00156034 0.00441623)
(0.0126333 -0.00121945 0.00417793)
(0.0126173 -0.00132707 0.00466879)
(0.0125119 -0.0011522 0.00474411)
(0.012132 -0.00298826 0.00327576)
(0.0129699 -0.00278639 0.0036177)
(0.0118539 -0.00272363 0.00291411)
(0.0119061 -0.00235781 0.00318798)
(0.0125541 -0.0023685 0.00373149)
(0.0121918 -0.00319569 0.00295949)
(0.0117294 -0.00498806 0.00309653)
(0.01147 -0.00454204 0.00288791)
(0.0116555 -0.00400177 0.00311054)
(0.00979919 -0.00313937 0.00297418)
(0.0103754 -0.00385951 0.00347582)
(0.00980915 -0.00341036 0.00250465)
(0.00988723 -0.0032447 0.00265212)
(0.0102656 -0.00397435 0.0032483)
(0.00973324 -0.0037678 0.0028202)
(0.0108518 -0.00278085 0.00630634)
(0.0119445 -0.0024083 0.00684707)
(0.012059 -0.00324876 0.0082829)
(0.0113865 -0.00344232 0.00829731)
(0.0123431 -0.00189556 0.0076569)
(0.0110982 -0.00272864 0.00677522)
(0.0100826 0.00213676 0.00226956)
(0.0105222 0.00234333 0.00264607)
(0.00943934 0.00137969 0.00181172)
(0.00925634 0.00148942 0.00170467)
(0.0100212 0.00204672 0.00232896)
(0.00928656 0.00178874 0.00201372)
(0.00750327 0.000983992 0.00160091)
(0.00826933 0.00108667 0.00153913)
(0.0083054 0.00119472 0.00182776)
(0.00741482 0.00075727 0.00183632)
(0.00734346 0.000774533 0.0017816)
(0.00790369 0.00140005 0.00179732)
(0.00820671 0.00138154 0.00171073)
(0.00917992 0.00197268 0.00183442)
(0.00806873 0.0014465 0.00183237)
(0.00880219 0.00179754 0.00168497)
(0.0088329 0.00178771 0.00198766)
(0.00762007 0.000516698 0.00154242)
(0.0070603 0.000270963 0.00164974)
(0.00735286 0.000602481 0.00174921)
(0.00738625 0.00031778 0.00160616)
(0.00705404 0.000339107 0.00179946)
(0.00715113 0.000500473 0.00173047)
(0.00810724 0.000886898 0.00362948)
(0.00863745 0.00135875 0.00412)
(0.0093345 0.00194031 0.00468124)
(0.0072521 0.000174932 0.00243479)
(0.00717248 6.24335e-05 0.00248606)
(0.00754193 0.000131183 0.00284277)
(0.00727728 0.000263122 0.00258226)
(0.00749746 0.000174754 0.00273689)
(0.00752783 4.25204e-05 0.00279521)
(0.00982294 -0.0024817 0.00446507)
(0.00991217 -0.00182513 0.00436511)
(0.00909257 -0.00126554 0.00371214)
(0.00969181 -0.0016638 0.00400339)
(0.00938455 -0.00178541 0.00374719)
(0.00969906 -0.00142291 0.00441124)
(0.00744406 -0.000364406 0.00207411)
(0.00781687 -0.000668469 0.00257681)
(0.00752384 -0.000721753 0.0021726)
(0.00730189 -0.000350756 0.00217158)
(0.00700399 -0.000430367 0.00219612)
(0.00772553 -0.000540634 0.00269077)
(0.00877078 0.000744657 0.00400736)
(0.00876092 -7.2555e-05 0.00377587)
(0.00817431 9.88407e-05 0.00337833)
(0.00848669 0.00015647 0.00354432)
(0.00856478 -9.58716e-05 0.00380417)
(0.00818171 9.66246e-05 0.00341795)
(0.0073701 -0.000203701 0.00247633)
(0.00770939 -0.000157502 0.00269964)
(0.00795964 -0.000460751 0.00303263)
(0.00749952 -0.000252936 0.00282586)
(0.00783603 -0.000419077 0.0030358)
(0.0080273 -0.000106472 0.00299686)
(0.00923767 -0.00326287 0.0093154)
(0.0103902 -0.00212737 0.00954278)
(0.00933164 -0.0023842 0.00934528)
(0.00944646 -0.00277137 0.009492)
(0.00973464 -0.00277925 0.0093712)
(0.00976593 -0.00340479 0.00972235)
(0.0101481 -0.00489013 0.010563)
(0.0102573 -0.00569238 0.0090471)
(0.0100682 -0.00518535 0.0100451)
(0.0098356 -0.00458848 0.00993598)
(0.0107768 -0.00546088 0.00973122)
(0.0108391 -0.00563204 0.0093673)
(0.0104615 -0.00602334 0.00903824)
(0.0105908 -0.00589866 0.00938199)
(0.0103997 -0.00525813 0.00924729)
(0.0108746 -0.00570672 0.00888179)
(0.0132247 -0.000966347 0.00626457)
(0.0137364 -0.000759619 0.00649982)
(0.0133134 -0.000404108 0.00697804)
(0.0140155 -0.00113399 0.00616888)
(0.0126337 -0.00076502 0.0062406)
(0.0132147 -0.00138235 0.00584559)
(0.0142742 -0.00273506 0.00531258)
(0.0141555 -0.00236662 0.00520224)
(0.0159357 -0.00306336 0.00585422)
(0.0153713 -0.0025859 0.00557103)
(0.0147407 -0.00334961 0.00578356)
(0.0147666 -0.00224181 0.0055428)
(0.0143445 -0.00497018 0.00545983)
(0.0139095 -0.00382953 0.00554999)
(0.0140977 -0.00569826 0.00484637)
(0.014633 -0.00510376 0.00549561)
(0.0142933 -0.00404606 0.0055571)
(0.0178524 -0.000114681 0.00698369)
(0.0179954 -0.000226066 0.00701823)
(0.0181102 0.000440777 0.00723185)
(0.018917 0.000164161 0.00723312)
(0.0183557 0.000794117 0.00802071)
(0.0171265 0.000343268 0.00741249)
(0.0168997 -0.00185718 0.00601845)
(0.0177201 -0.00135009 0.00665197)
(0.0171962 -0.00048773 0.00679524)
(0.0167939 -0.0010596 0.00628029)
(0.0172484 -0.0014128 0.00642509)
(0.0176369 -0.000870507 0.00677504)
(0.0109454 -0.00173117 0.00982504)
(0.0110859 -0.00134493 0.00963885)
(0.0110647 -0.00224155 0.0101761)
(0.0105876 -0.00226877 0.00980988)
(0.0102085 -0.00190014 0.00952825)
(0.0106508 -0.00152723 0.00950269)
(0.0125288 -0.000774149 0.00980259)
(0.0125633 -0.00120854 0.0100848)
(0.0127543 -0.00154858 0.0104564)
(0.0132613 -0.000456655 0.00992146)
(0.0128271 -0.000926944 0.0099515)
(0.0122963 -0.00148393 0.00982998)
(0.0105635 -0.00366601 0.00997239)
(0.01008 -0.004351 0.00999787)
(0.0107558 -0.00321354 0.0100598)
(0.0107679 -0.00415377 0.0100475)
(0.0101809 -0.00328096 0.00994245)
(0.0104408 -0.0039575 0.0103334)
(0.0111439 -0.00362675 0.0088621)
(0.0115325 -0.00305895 0.00979361)
(0.0115083 -0.00344889 0.0100883)
(0.0117373 -0.00259792 0.0100711)
(0.0117308 -0.0026502 0.00999595)
(0.0110502 -0.00536657 0.00504402)
(0.0116339 -0.00566722 0.0069226)
(0.0109897 -0.00615834 0.00587545)
(0.0117411 -0.00575035 0.00660979)
(0.0104923 -0.00570521 0.0053354)
(0.0101785 -0.0047946 0.00525386)
(0.0105358 -0.00447428 0.00523277)
(0.0106538 -0.00519852 0.0069896)
(0.0109176 -0.00442415 0.00574858)
(0.0108692 -0.00486524 0.00556044)
(0.0114613 -0.00464485 0.00689224)
(0.0110293 -0.00403569 0.00666152)
(0.0116613 -0.0042351 0.00616544)
(0.0108323 -0.00573159 0.00724674)
(0.0114018 -0.00561253 0.00839928)
(0.0106039 -0.00523652 0.0071316)
(0.01098 -0.00547968 0.00855126)
(0.0112603 -0.00514531 0.00855804)
(0.00978359 0.000535354 0.0048025)
(0.0111441 0.000824261 0.00562494)
(0.0109816 0.0007591 0.00537363)
(0.0104202 0.000888597 0.00493749)
(0.0113367 0.00172745 0.00561021)
(0.0102634 0.000961418 0.00511393)
(0.00682 2.124e-05 0.00166172)
(0.00694749 -1.80857e-05 0.00188589)
(0.00729374 -0.000102094 0.0016376)
(0.00732003 0.00012769 0.00158405)
(0.00734219 0.000106484 0.00160792)
(0.00716711 -0.000147335 0.00173221)
(0.0089761 0.000222552 0.00195039)
(0.00980319 0.000680851 0.00237587)
(0.00908603 0.000308805 0.00200724)
(0.00959428 0.000729845 0.00229373)
(0.0091762 0.000248359 0.00206003)
(0.0093263 0.000617075 0.00209335)
(0.0166179 0.00160211 0.00954791)
(0.0163979 0.00193736 0.00941269)
(0.0169559 0.00180263 0.0098922)
(0.0158302 0.00127058 0.00932088)
(0.0166453 0.00188526 0.00956816)
(0.0158166 0.000737411 0.00969777)
(0.0145049 -0.000188234 0.00950814)
(0.0141181 0.000120614 0.00893526)
(0.0142477 -0.000148861 0.00904232)
(0.0140296 -0.000434594 0.00901005)
(0.0146559 0.000672106 0.00872992)
(0.0129936 -0.000297327 0.00745432)
(0.0148977 0.000819701 0.0082839)
(0.0134542 0.000792777 0.00712609)
(0.0130311 0.00141752 0.00702796)
(0.0131563 7.96973e-05 0.00751503)
(0.0102646 -0.00375246 0.00416927)
(0.0108361 -0.00383403 0.00514689)
(0.0099016 -0.00334847 0.00388746)
(0.0101517 -0.0035265 0.00364645)
(0.0112842 -0.00428984 0.00561341)
(0.0101671 -0.00479381 0.00469144)
(0.0109932 -0.00449939 0.00481008)
(0.00837456 -0.00153461 0.00221154)
(0.00826295 -0.00177337 0.00244688)
(0.00821295 -0.00157756 0.00234964)
(0.0091985 -0.0022404 0.00310924)
(0.00917924 -0.00208893 0.0030097)
(0.00870711 -0.00237479 0.00230948)
(0.00886249 -0.00199589 0.00328033)
(0.00898527 -0.00226797 0.00340067)
(0.00876754 -0.00172493 0.00300479)
(0.00866678 -0.00207945 0.00303048)
(0.00903652 -0.00225226 0.00328882)
(0.00878907 -0.00175378 0.00281036)
(0.00783848 -0.000757418 0.00171425)
(0.0083437 -0.00112672 0.00173574)
(0.00806207 -0.00119099 0.00188024)
(0.00817373 -0.000913457 0.00168689)
(0.00765247 -0.000908934 0.0017625)
(0.0079585 -0.00111337 0.00201774)
(0.00826975 -0.000571837 0.00156994)
(0.00856207 -0.000114983 0.00175477)
(0.00860521 -0.00025925 0.00170835)
(0.00792323 -0.000488363 0.00163236)
(0.00923399 -0.000236143 0.00197713)
(0.0203265 0.00468627 0.00833092)
(0.0195883 0.00446753 0.00831694)
(0.0190125 0.00405778 0.00841264)
(0.0199966 0.0043964 0.00819161)
(0.0196006 0.00467012 0.00809822)
(0.0196908 0.00420191 0.00839622)
(0.0157132 0.00355821 0.00724315)
(0.0150732 0.00429963 0.00664743)
(0.0165272 0.00400319 0.00757065)
(0.0139055 0.00267543 0.00699036)
(0.0149893 0.00378871 0.00672466)
(0.0161179 0.00410113 0.00735258)
(0.0187548 0.00298295 0.00884254)
(0.0189719 0.00293049 0.00928607)
(0.0183968 0.00253597 0.00945961)
(0.0178621 0.00236403 0.00954085)
(0.0172324 0.00217477 0.00967839)
(0.0226391 0.00368059 0.00948823)
(0.0213497 0.00325954 0.00912727)
(0.0229394 0.00427345 0.00991676)
(0.0210369 0.00346758 0.00856901)
(0.0215909 0.00301404 0.00895236)
(0.0215593 0.00312378 0.00851499)
(0.0204596 0.00433963 0.00849029)
(0.0209058 0.00423421 0.00890627)
(0.021711 0.00389398 0.00936445)
(0.0211652 0.0040745 0.00885171)
(0.0193773 0.00352277 0.00918681)
(0.0212072 0.00425889 0.00917019)
(0.0197569 0.00300431 0.0092466)
(0.0204113 0.00288725 0.0088008)
(0.0196818 0.00291941 0.00908767)
(0.0191128 0.00262286 0.0092773)
(0.0197325 0.00259793 0.00920513)
(0.0186029 0.00247299 0.00888986)
(0.0129771 -0.00233214 0.0102198)
(0.0128623 -0.00294662 0.0105457)
(0.0127732 -0.00221979 0.00975945)
(0.0138027 -0.00535592 0.0109532)
(0.0125449 -0.00368606 0.0106208)
(0.0125846 -0.0052891 0.0108033)
(0.0130328 -0.00523884 0.0106424)
(0.0123247 -0.00469287 0.0107861)
(0.0130123 -0.00442533 0.010488)
(0.011435 -0.000685223 0.00430011)
(0.011527 -0.000550802 0.00607295)
(0.0114798 -0.000442089 0.00450899)
(0.0125161 -0.000690631 0.00578836)
(0.0120175 -0.000179037 0.00533432)
(0.0127281 -0.00199893 0.00952692)
(0.0128842 -0.00327659 0.0107262)
(0.0130974 -0.00300493 0.0106567)
(0.0122418 -0.00211756 0.00943468)
(0.0130346 -0.00323028 0.0105485)
(0.0125855 -0.00231288 0.00986903)
(0.0126856 0.00169471 0.00573922)
(0.0118996 0.00153811 0.00486487)
(0.0129239 0.00138751 0.00621596)
(0.0119919 0.00135238 0.00523108)
(0.0117752 0.00163235 0.00501735)
(0.012912 0.00142801 0.00596972)
(0.012483 -6.75901e-05 0.00773174)
(0.0132754 -0.000565607 0.0084271)
(0.0126493 6.79014e-05 0.00748042)
(0.0128276 -0.00100949 0.00891466)
(0.0126667 -0.000105026 0.00773618)
(0.0131414 -0.000826315 0.00868508)
(0.0130098 -0.00238625 0.0094772)
(0.0135791 -0.00268153 0.00975845)
(0.0137807 -0.00175273 0.00949828)
(0.0134248 -0.00296937 0.00969446)
(0.0137138 -0.0027186 0.010078)
(0.0133603 -0.00231099 0.00995426)
(0.0123831 0.00021279 0.00600559)
(0.0120746 0.000697399 0.00424348)
(0.0125332 0.000577771 0.00608833)
(0.0116898 0.000546144 0.0045918)
(0.0121802 0.000442675 0.00641601)
(0.014586 -0.00642687 0.00998915)
(0.0149016 -0.00546105 0.00875085)
(0.0140569 -0.00540829 0.00968365)
(0.0150238 -0.0057691 0.00965489)
(0.0143829 -0.00680236 0.00832739)
(0.015312 -0.00617992 0.00931703)
(0.0161927 -0.00502701 0.00708351)
(0.0163672 -0.00503521 0.00690022)
(0.0174892 -0.0040126 0.00699586)
(0.0172338 -0.00389298 0.00754774)
(0.0164731 -0.00440494 0.00678677)
(0.016939 -0.0052604 0.00731553)
(0.0105315 0.00219879 0.00322502)
(0.012123 0.00294856 0.00368357)
(0.0110449 0.00257204 0.00296452)
(0.0108348 0.00235022 0.0028215)
(0.0117155 0.00284383 0.00400779)
(0.0111198 0.00246352 0.00368144)
(0.0104188 0.00293801 0.00214683)
(0.0098796 0.00234274 0.00208877)
(0.00950202 0.00218956 0.00221723)
(0.0127219 0.00457596 0.00290042)
(0.0123434 0.00429825 0.00307754)
(0.0113668 0.00360794 0.00270584)
(0.0117832 0.00392561 0.00268643)
(0.0122955 0.00398627 0.00322367)
(0.0186025 -0.00136532 0.007381)
(0.0191416 -0.000710683 0.00723695)
(0.0193531 -0.000347793 0.00742578)
(0.0187858 -0.000977147 0.00733377)
(0.0200496 -0.00111131 0.00756386)
(0.0184763 -0.000773844 0.00699213)
(0.0225734 0.00398419 0.00967288)
(0.0222309 0.0035711 0.00938698)
(0.0226291 0.00357456 0.00919254)
(0.0214036 0.00331524 0.00900133)
(0.0208242 0.00328935 0.00829464)
(0.0127971 -0.00735791 0.0101818)
(0.013854 -0.00660683 0.0110732)
(0.0132588 -0.00754506 0.0108514)
(0.0209002 0.00282685 0.0091885)
(0.0212402 0.00285167 0.0089408)
(0.0213557 0.00330934 0.00935343)
(0.0217265 0.00292965 0.00933767)
(0.0218022 0.00341107 0.00953411)
(0.0215787 0.00304643 0.00934994)
(0.0206434 0.00226895 0.00902326)
(0.0205609 0.0020634 0.00903612)
(0.0206629 0.000697839 0.00803252)
(0.0203627 0.00154731 0.00915544)
(0.0214909 0.00262796 0.00933463)
(0.0217392 0.00226492 0.00960542)
(0.0232791 0.00442298 0.0103712)
(0.020804 0.00373634 0.00938971)
(0.0175625 -0.00265093 0.00859057)
(0.0176054 -0.00225354 0.00846848)
(0.0177279 -0.00333016 0.0085027)
(0.0172943 -0.00193502 0.00809423)
(0.0177229 -0.00310879 0.00818059)
(0.0185652 -0.000244285 0.00786953)
(0.0209099 0.000444954 0.0088916)
(0.0210459 0.00140037 0.00883517)
(0.0212872 0.000562282 0.00879092)
(0.018934 0.00120402 0.00883879)
(0.0193102 0.00164734 0.00886548)
(0.0190219 -0.00154785 0.00834151)
(0.0197414 7.20323e-05 0.009277)
(0.0200184 -0.000306439 0.00877944)
(0.0186252 -0.00109776 0.00862728)
(0.0176376 -0.000816368 0.00813127)
(0.0193188 -0.00165925 0.00845371)
(0.0158716 -0.00186933 0.00855884)
(0.0168478 0.000172983 0.0089836)
(0.0175945 -0.000994871 0.00930855)
(0.0166819 -0.000248203 0.00848047)
(0.0163082 -0.00196897 0.00875486)
(0.0191537 -0.000427882 0.00945958)
(0.0159911 -0.00193617 0.00932057)
(0.0167056 -0.00135257 0.00906198)
(0.0161772 -0.00252611 0.00843081)
(0.0154458 -0.0019432 0.00922578)
(0.0171052 -0.00186969 0.00986234)
(0.0168258 -0.00240484 0.00918734)
(0.0152433 -0.000146202 0.00895636)
(0.0158683 0.00011855 0.00888506)
(0.015408 0.00013367 0.0083333)
(0.0147156 -0.000291261 0.00846676)
(0.0154089 0.000294473 0.008526)
(0.0143647 0.00134333 0.00761936)
(0.0146822 -0.000236431 0.00832881)
(0.0147962 0.00137579 0.00827313)
(0.0129277 0.00348415 0.00455012)
(0.01311 0.0035542 0.00525883)
(0.0135739 0.00356541 0.00548122)
(0.0128116 0.00351395 0.00427595)
(0.0128649 0.0035861 0.00462086)
(0.0135367 0.00350937 0.0052315)
(0.013996 0.00564979 0.00471824)
(0.013775 0.00521245 0.00467267)
(0.0133112 0.00534043 0.0040889)
(0.0134599 0.00492547 0.00400271)
(0.0135035 0.00487984 0.00430672)
(0.0148688 0.00648209 0.0045215)
(0.0197406 0.00243277 0.00918047)
(0.0194003 0.00432729 0.0097876)
(0.0179706 0.00403553 0.00868722)
(0.0186598 0.00186673 0.00892328)
(0.0188642 0.00362794 0.00957255)
(0.0183398 0.00321766 0.00897173)
(0.0165801 0.00496497 0.00780015)
(0.0178997 0.00369305 0.0092783)
(0.015967 0.0030594 0.00799525)
(0.0157327 0.00310167 0.00774322)
(0.0167209 0.00496956 0.00758653)
(0.0192274 0.00433184 0.0091375)
(0.0225313 0.00323691 0.00940961)
(0.0225093 0.00277542 0.00922729)
(0.0221315 0.00251205 0.00876775)
(0.0219801 0.00241473 0.00888086)
(0.0226064 0.00246428 0.00911158)
(0.0217557 0.00277824 0.00873796)
(0.0148294 -0.0046041 0.00980428)
(0.0139705 -0.00422847 0.00939941)
(0.0142695 -0.0046655 0.0104291)
(0.0139031 -0.00459246 0.00969293)
(0.0145616 -0.00432584 0.00949431)
(0.015032 -0.00353304 0.0100486)
(0.0135595 -0.00123557 0.0089788)
(0.0139651 -0.00269107 0.00978679)
(0.0133935 -0.00165335 0.00892626)
(0.0147046 -0.00208718 0.00948408)
(0.0138429 -0.00285184 0.00978354)
(0.0139364 -0.0014074 0.00921505)
(0.0151856 -0.00606684 0.00849982)
(0.0166961 -0.00436969 0.00941971)
(0.0183347 -0.00479117 0.00875274)
(0.0154076 -0.00481302 0.00837866)
(0.0158522 -0.00587625 0.00909235)
(0.0165592 -0.00474822 0.00889527)
(0.0161189 -0.00435129 0.00846067)
(0.0102586 -0.00164545 0.00203297)
(0.0100756 -0.00105275 0.00212822)
(0.00950833 -0.00157472 0.00177896)
(0.0105615 -0.00136785 0.00237829)
(0.0104739 -0.00108265 0.00249829)
(0.0102349 0.000759788 0.00283187)
(0.0108686 0.000711767 0.00337516)
(0.0100088 0.00038867 0.00245558)
(0.00985687 0.000252237 0.00231772)
(0.0106748 0.000307007 0.00332643)
(0.0115006 -0.000177671 0.00639575)
(0.0119226 8.11956e-05 0.00523816)
(0.0120088 -0.000151228 0.00554194)
(0.0123058 0.000149379 0.00612466)
(0.0118828 0.000163421 0.00467676)
(0.0104856 -0.00468132 0.00385187)
(0.0102643 -0.00368954 0.00336475)
(0.00987905 -0.00331367 0.00354028)
(0.0101042 -0.00436824 0.00354146)
(0.0100479 -0.00437366 0.00346045)
(0.0102792 -0.00445493 0.00372269)
(0.0119743 0.00146825 0.00635691)
(0.0118049 0.00211002 0.00601325)
(0.0128183 0.00146227 0.00666054)
(0.012651 0.00248347 0.00628108)
(0.0132352 0.00318395 0.00648784)
(0.0130779 0.00222382 0.00663722)
(0.0133006 0.0020366 0.00696923)
(0.0146851 0.00210381 0.00766656)
(0.0106529 0.00259358 0.00529622)
(0.0104307 0.0025114 0.0053697)
(0.0106396 0.00258627 0.00532892)
(0.0105471 -0.00516051 0.00419359)
(0.0107201 -0.00596237 0.00586308)
(0.0106619 -0.006656 0.00522778)
(0.0108896 -0.00664712 0.00556539)
(0.0123512 -0.00555054 0.00564532)
(0.010399 -0.00487251 0.00412972)
(0.0093921 -0.00011602 0.00210055)
(0.0107258 0.000323295 0.00299003)
(0.0121629 9.48134e-05 0.00417825)
(0.0111473 0.000259151 0.00358807)
(0.0106047 -0.00133631 0.00220424)
(0.00989485 -0.00151762 0.00179093)
(0.00976487 -0.00135243 0.00205456)
(0.0089557 -0.00146953 0.00189765)
(0.0109959 -0.000653408 0.00327749)
(0.0117786 -0.000339344 0.00348119)
(0.0117154 -0.000419383 0.00406425)
(0.0118284 -0.000327591 0.00369418)
(0.0147527 -0.000714963 0.0087486)
(0.0142461 -0.00216559 0.00887397)
(0.0148257 -0.00238387 0.00958355)
(0.0150464 -0.00171847 0.00929239)
(0.0135167 -0.000977034 0.00848127)
(0.0142289 -0.000966499 0.00887693)
(0.0139269 -0.00258311 0.00977273)
(0.0141576 -0.00315355 0.00937144)
(0.0144887 -0.00402875 0.00916697)
(0.0160639 -0.0055341 0.00970821)
(0.0174772 -0.00323929 0.00831491)
(0.0162249 -0.00482931 0.00824762)
(0.0165669 -0.00455558 0.0081098)
(0.0172293 -0.00314074 0.00912604)
(0.0183631 0.000693587 0.00857892)
(0.0198115 0.00172584 0.00893188)
(0.0187031 0.00012004 0.00860323)
(0.0190125 0.000327919 0.00897519)
(0.0203404 0.00184293 0.00956425)
(0.0164455 0.00306911 0.00804028)
(0.0163927 0.00252867 0.00829048)
(0.0155726 0.00401849 0.00702835)
(0.0178348 0.00347255 0.00871047)
(0.0173236 0.00412038 0.00819535)
(0.0164393 0.00436825 0.00806039)
(0.0132433 0.00152922 0.00685741)
(0.0136145 0.00250518 0.00645808)
(0.0139255 0.00447139 0.00494947)
(0.0132894 0.00389769 0.00536691)
(0.0143631 0.00455236 0.00574228)
(0.016898 0.00277381 0.00835746)
(0.0143473 0.00386783 0.00610261)
(0.01571 0.00388102 0.00696126)
(0.0160687 0.0036124 0.00737452)
(0.0131855 0.00305718 0.00517203)
(0.0150939 0.00386374 0.00649798)
(0.0131007 0.00280834 0.00551017)
(0.0140839 0.00260436 0.00641701)
(0.0142647 -0.000593159 0.00891367)
(0.0149102 0.00162605 0.0077009)
(0.0146343 0.00142729 0.00795901)
(0.0151009 0.00140116 0.00764483)
(0.0154366 0.00229804 0.00782832)
(0.0163052 8.7276e-05 0.00842181)
(0.0170096 7.21021e-05 0.00928293)
(0.0169688 0.000281153 0.00905556)
(0.017408 0.00118614 0.00892529)
(0.0158742 0.00195176 0.00853872)
(0.0151142 0.00159783 0.00780133)
(0.0163984 0.00253309 0.00835031)
(0.0156758 0.000734553 0.00801462)
(0.0160856 0.00244498 0.00799336)
(0.0184665 -0.00271419 0.00930202)
(0.0149903 -0.00243884 0.00925265)
(0.0154307 -0.00118084 0.00891282)
(0.0172054 0.000831391 0.00892324)
(0.0169579 0.00113067 0.0084968)
(0.0164877 -0.00123722 0.00852056)
(0.0175773 -0.00169313 0.00952987)
(0.0162886 0.000187415 0.0093197)
(0.0182991 -0.000834602 0.00865483)
(0.0181102 0.000564373 0.00859372)
(0.0181216 -0.000255193 0.00882807)
(0.0183334 -0.00129003 0.00882904)
(0.0173898 6.81068e-05 0.00843275)
(0.0205323 0.000257091 0.00902733)
(0.0202151 -0.00042508 0.00840915)
(0.0181714 -0.000653192 0.00889552)
(0.0184033 -0.00117791 0.00843267)
(0.0219318 0.000381682 0.00867955)
(0.0206112 0.000655307 0.00815842)
(0.0217187 0.000793356 0.00838586)
(0.0222317 0.00225855 0.00914761)
(0.0204661 0.00112594 0.00887222)
(0.0221571 0.00390536 0.0101313)
(0.0213093 0.00270531 0.00908292)
(0.0215254 0.00268023 0.00942928)
(0.0184588 0.00167638 0.00825413)
(0.0202847 0.00211445 0.00915064)
(0.0209694 0.00235898 0.00950265)
(0.018963 0.00288291 0.0092156)
(0.0202852 0.00232077 0.00878058)
(0.0212723 0.00314681 0.00964105)
(0.0201287 0.00354087 0.00977669)
(0.0175349 0.00476134 0.00879239)
(0.0175657 0.00387892 0.0087832)
(0.0210844 0.00364631 0.00964121)
(0.0204487 0.00321468 0.00961057)
(0.0213478 0.00409769 0.00993228)
(0.0211172 0.00344687 0.00975473)
(0.0169988 0.00620655 0.00848036)
(0.0175857 0.00630589 0.00847991)
(0.017203 0.00521737 0.00863272)
(0.0163743 0.00712677 0.00669028)
(0.0179346 0.00586104 0.00820236)
(0.0158204 -0.00731584 0.0102413)
(0.0145562 -0.00751763 0.00898918)
(0.0128885 0.00242316 0.00586194)
(0.0125683 0.00258282 0.00513464)
(0.0117979 0.00235711 0.00496033)
(0.0218679 0.00324344 0.00891144)
(0.0221317 0.00338347 0.00948872)
(0.0227526 0.00356448 0.00964485)
(0.0215635 0.00201037 0.00886677)
(0.0212283 0.00146802 0.00843758)
(0.0215776 0.00182211 0.00856029)
(0.019142 -0.000972806 0.00803837)
(0.0200089 0.000182406 0.0080434)
(0.0202891 -0.000100389 0.00842437)
(0.0197697 -0.000665014 0.00802334)
(0.0188391 -0.000795757 0.00763601)
(0.0202663 -0.000738475 0.00786834)
(0.0195643 -0.000790855 0.00728118)
(0.0202308 -0.000476214 0.00738696)
(0.0196219 -0.00108546 0.00779905)
(0.013268 0.00492792 0.00316396)
(0.0130462 0.00458751 0.00377195)
(0.0132218 0.00460474 0.00394001)
(0.0119504 0.0037859 0.00358157)
(0.0129899 0.00438681 0.00396073)
(0.0125027 0.00362281 0.00421173)
(0.0122261 0.003598 0.00350207)
(0.0124872 0.00386717 0.00425076)
(0.0116271 0.00342515 0.00325646)
(0.0110522 0.00315775 0.00252047)
(0.00985781 0.0024352 0.00210271)
(0.010738 0.00303482 0.00244126)
(0.0120875 0.00268168 0.00436393)
(0.0121622 0.00288566 0.00450718)
(0.0111679 0.00247428 0.00375346)
(0.0121668 0.00347204 0.00338131)
(0.0119163 0.00318926 0.00361183)
(0.0124764 0.00330959 0.00415052)
(0.0102734 0.00285275 0.00227941)
(0.0096951 0.00240992 0.00223563)
(0.0110044 0.00331659 0.00219635)
(0.0120222 0.00397094 0.00246573)
(0.0190639 -0.0021567 0.00737948)
(0.0199829 -0.00178269 0.00785)
(0.0199947 -0.00147327 0.00838092)
(0.018524 -0.00336247 0.00815978)
(0.0172647 -0.00354603 0.00763877)
(0.0193098 -0.00238263 0.00842964)
(0.016711 -0.00348165 0.00741028)
(0.0165339 -0.00560311 0.00721394)
(0.01659 -0.0041037 0.00757618)
(0.0164162 -0.00486258 0.00786341)
(0.0146981 -0.00520439 0.00812604)
(0.0145183 -0.00717218 0.0084434)
(0.0143252 -0.00434493 0.0104292)
(0.0134756 -0.00134046 0.00913143)
(0.0132494 -0.000822256 0.00861518)
(0.012624 0.000305067 0.00626122)
(0.0127166 1.69949e-05 0.0073878)
(0.012142 -0.000313819 0.00692643)
(0.0134865 -0.000321164 0.00817197)
(0.0137077 -1.58537e-05 0.00822484)
(0.0114707 0.000732526 0.00363742)
(0.0118621 0.00116453 0.00455538)
(0.0124351 0.000943522 0.00526242)
(0.0120928 0.000497318 0.00645112)
(0.01189 0.0012244 0.00509538)
(0.0119392 0.00089732 0.00562868)
(0.0121129 0.000696626 0.00610805)
(0.0127153 0.000255524 0.00762279)
(0.01291 0.000351035 0.00726348)
(0.0123573 0.000664608 0.00666649)
(0.0118496 0.00206617 0.00388167)
(0.0111701 0.001727 0.00422168)
(0.0118861 0.00179656 0.00465058)
(0.0118734 0.00129542 0.00493813)
(0.0121176 0.00120561 0.005249)
(0.0124587 0.000968586 0.00632485)
(0.0125009 0.000917885 0.00668926)
(0.0130324 0.000663186 0.00730567)
(0.0126541 -0.00119044 0.00862849)
(0.0131193 -0.00197455 0.00967648)
(0.0131835 -0.00214394 0.00993354)
(0.0130781 -0.000879597 0.00881828)
(0.0135787 -0.00196389 0.00963923)
(0.0129233 -0.000769266 0.00827931)
(0.0126622 -0.000308558 0.00765043)
(0.0130512 -0.00084856 0.00852499)
(0.0127738 -0.000342672 0.00778164)
(0.012781 -0.000188733 0.00732574)
(0.0130739 -0.000996529 0.0087349)
(0.0113658 -0.000274727 0.00635987)
(0.0126611 -0.000944491 0.0082482)
(0.0116097 -0.000597384 0.00726906)
(0.0119769 -0.000581224 0.00737075)
(0.012938 -0.00385516 0.0107516)
(0.0129798 -0.00205605 0.00983121)
(0.0120992 -0.00151079 0.00886898)
(0.0123595 -0.00189242 0.00918698)
(0.012159 -0.00122115 0.00830561)
(0.0118226 -0.000898343 0.00765436)
(0.0120607 -0.00144393 0.0086505)
(0.0116788 -0.000397395 0.00631705)