/*--------------------------------*- C++ -*----------------------------------*\
| =========                 |                                                 |
| \\      /  F ield         | OpenFOAM: The Open Source CFD Toolbox           |
|  \\    /   O peration     | Version:  v1612+                                |
|   \\  /    A nd           | Web:      www.OpenFOAM.com                      |
|    \\/     M anipulation  |                                                 |
\*---------------------------------------------------------------------------*/
FoamFile
{
    version     2.0;
    format      ascii;
    class       volScalarField;
    location    "100";
    object      p;
}
// * * * * * * * * * * * * * * * * * * * * * * * * * * * * * * * * * * * * * //

dimensions      [0 2 -2 0 0 0 0];

internalField   nonuniform List<scalar> 
21297
(
2.44717
2.44764
2.44133
2.44124
2.5365
2.51273
2.52097
2.43251
2.50051
2.49705
2.50501
2.50607
2.49349
2.4469
2.46303
2.46603
2.40654
2.42094
2.51826
2.47257
2.42776
2.4814
2.47563
2.5147
2.40754
2.52291
2.50335
2.50676
2.48421
2.40982
2.43956
2.53898
2.45136
2.43855
2.54404
2.46112
2.52712
2.51324
2.5033
2.43287
2.546
2.54449
2.44696
2.53658
2.52692
2.5415
2.53501
2.50906
2.49519
2.54274
2.49963
2.49937
2.52084
2.49754
2.52212
2.42465
2.44755
2.51658
2.46527
2.46605
2.49282
2.53573
2.53693
2.53108
2.43601
2.4454
2.52854
2.49703
2.5372
2.4841
2.42124
2.51634
2.40687
2.48515
2.49281
2.48695
2.49179
2.47503
2.51312
2.51585
2.53848
2.53888
2.4884
2.47643
2.54265
2.516
2.51134
2.40311
2.45068
2.50397
2.52248
2.54492
2.54101
2.5336
2.54109
2.45165
2.42804
2.50186
2.50741
2.51043
2.51665
2.5384
2.5341
2.53058
2.52753
2.51741
2.51285
2.43157
2.43816
2.43681
2.42314
2.50676
2.51017
2.51541
2.44079
2.51948
2.49269
2.54446
2.5444
2.42208
2.52904
2.46581
2.45058
2.51672
2.51001
2.50696
2.50795
2.50633
2.50799
2.50112
2.52428
2.47275
2.44956
2.5213
2.40879
2.53239
2.52593
2.48823
2.50039
2.49213
2.53156
2.53709
2.52987
2.52966
2.47306
2.49904
2.52429
2.50999
2.49592
2.50045
2.49011
2.48346
2.39682
2.39206
2.52952
2.52632
2.47692
2.49308
2.48147
2.4746
2.47928
2.49653
2.42016
2.41805
2.40556
2.39374
2.49032
2.47942
2.44566
2.52135
2.5224
2.50946
2.50986
2.43253
2.48157
2.5338
2.49884
2.5009
2.49174
2.45846
2.46779
2.47629
2.42741
2.51756
2.44421
2.45342
2.45333
2.43476
2.44238
2.4541
2.4383
2.53065
2.47412
2.47891
2.4857
2.40139
2.4058
2.39904
2.40098
2.50055
2.52084
2.43174
2.50967
2.51068
2.53746
2.53645
2.532
2.53816
2.53525
2.52898
2.53507
2.47552
2.44918
2.45128
2.45397
2.46059
2.46893
2.46035
2.45366
2.5227
2.52823
2.5251
2.49611
2.49448
2.47915
2.47429
2.50161
2.50933
2.52047
2.4242
2.46686
2.46237
2.46043
2.43277
2.44114
2.50026
2.50001
2.5319
2.50857
2.49795
2.49194
2.50286
2.49883
2.50136
2.50415
2.42978
2.4269
2.43703
2.44022
2.45422
2.46934
2.46824
2.45018
2.46835
2.44405
2.42516
2.41371
2.41412
2.41965
2.51791
2.52367
2.42991
2.42239
2.49236
2.49521
2.49263
2.47512
2.40647
2.44347
2.50594
2.50148
2.51498
2.39216
2.46819
2.52767
2.51304
2.50338
2.50905
2.50324
2.51563
2.50193
2.50588
2.50655
2.50663
2.50472
2.42413
2.43068
2.50969
2.49538
2.47173
2.46221
2.39182
2.39461
2.50367
2.49905
2.53814
2.50349
2.50652
2.52641
2.52844
2.53329
2.43572
2.43761
2.54413
2.545
2.51151
2.50229
2.42848
2.43163
2.50691
2.39431
2.40818
2.41743
2.41181
2.40768
2.52533
2.40283
2.40345
2.4347
2.49131
2.40702
2.40136
2.39829
2.53546
2.53333
2.50627
2.51045
2.5156
2.51953
2.52539
2.52818
2.44072
2.53172
2.52531
2.51092
2.50778
2.51957
2.47999
2.48389
2.51672
2.51578
2.5158
2.51589
2.51906
2.50879
2.42583
2.45745
2.48156
2.49526
2.40979
2.40764
2.51826
2.51888
2.52817
2.46988
2.47582
2.50085
2.50627
2.52813
2.52634
2.47021
2.43773
2.43082
2.41626
2.54952
2.53847
2.50115
2.50542
2.49153
2.52011
2.40306
2.45487
2.51041
2.48818
2.51191
2.49255
2.4884
2.50668
2.48032
2.40756
2.39507
2.50079
2.49702
2.53895
2.48395
2.52242
2.46723
2.50333
2.48742
2.42283
2.41937
2.52976
2.51704
2.50885
2.46521
2.41958
2.43519
2.50026
2.4997
2.50552
2.50175
2.49477
2.49934
2.49975
2.54166
2.53487
2.52223
2.49948
2.39282
2.5197
2.53024
2.47398
2.55304
2.41148
2.52512
2.54326
2.5048
2.50506
2.48074
2.46194
2.46231
2.4971
2.50645
2.52122
2.5309
2.53357
2.505
2.48709
2.50023
2.49375
2.48623
2.50226
2.50614
2.46365
2.53883
2.42588
2.4398
2.54409
2.5429
2.52052
2.51437
2.40543
2.40309
2.40183
2.42783
2.44635
2.50055
2.44876
2.45027
2.44359
2.44171
2.44101
2.4984
2.5008
2.49973
2.49247
2.40401
2.42443
2.53873
2.53721
2.45172
2.49506
2.51125
2.44759
2.44317
2.43283
2.52759
2.52975
2.42143
2.43833
2.43373
2.4363
2.45875
2.45577
2.42428
2.41605
2.45419
2.54838
2.54033
2.53529
2.5181
2.52031
2.52031
2.54867
2.55562
2.54726
2.5331
2.51737
2.48432
2.52465
2.51862
2.50982
2.48858
2.54069
2.44054
2.49569
2.53332
2.5043
2.49034
2.54029
2.49598
2.50812
2.47964
2.53417
2.4347
2.48786
2.51035
2.46558
2.45928
2.45533
2.4388
2.45615
2.44682
2.44105
2.50527
2.51772
2.50945
2.4731
2.45351
2.46251
2.46894
2.4548
2.5225
2.51474
2.47946
2.41398
2.52466
2.39465
2.50439
2.45207
2.44069
2.51693
2.49418
2.50107
2.50914
2.47112
2.4681
2.46754
2.47411
2.49298
2.50139
2.49486
2.48538
2.4746
2.48111
2.40858
2.41231
2.40454
2.5072
2.51388
2.45859
2.50548
2.51854
2.53182
2.45603
2.48528
2.52825
2.41694
2.46291
2.46805
2.4319
2.51337
2.52078
2.41753
2.5326
2.49804
2.51529
2.50852
2.50718
2.52849
2.50928
2.5105
2.45456
2.46423
2.47547
2.53283
2.52294
2.4598
2.53341
2.48441
2.51238
2.5019
2.43557
2.44139
2.52892
2.51747
2.47583
2.44055
2.40767
2.51912
2.53319
2.53434
2.53732
2.42274
2.51152
2.52083
2.53341
2.50748
2.51479
2.52061
2.50758
2.53753
2.54171
2.4475
2.39614
2.41179
2.41876
2.50478
2.45451
2.47475
2.43403
2.5041
2.52871
2.53418
2.5288
2.55107
2.54348
2.52485
2.46615
2.51117
2.52373
2.52245
2.51185
2.52
2.47302
2.51819
2.49502
2.47313
2.4565
2.4303
2.4429
2.48707
2.49746
2.49176
2.44549
2.51849
2.44393
2.48802
2.52352
2.42236
2.41076
2.41924
2.42863
2.41874
2.41047
2.4101
2.41373
2.44608
2.45318
2.55063
2.50672
2.53394
2.52497
2.53716
2.54094
2.53006
2.53305
2.52588
2.52855
2.53808
2.54344
2.53514
2.53733
2.53414
2.52752
2.5222
2.51592
2.53345
2.54006
2.52469
2.5224
2.5361
2.52447
2.5284
2.53268
2.53006
2.50919
2.52717
2.5202
2.52434
2.51372
2.52796
2.48308
2.50404
2.5002
2.46901
2.48257
2.50541
2.5346
2.51288
2.51843
2.50301
2.49482
2.49486
2.48997
2.50864
2.50232
2.50944
2.53022
2.50755
2.51839
2.51833
2.51953
2.51998
2.50025
2.48292
2.50544
2.47849
2.47831
2.48938
2.51126
2.49829
2.47713
2.44291
2.44727
2.50082
2.48987
2.49862
2.51339
2.50905
2.51253
2.44732
2.43083
2.43864
2.44754
2.49043
2.45777
2.45897
2.4662
2.46997
2.41743
2.44427
2.44016
2.47156
2.46339
2.48625
2.45369
2.48979
2.48132
2.46309
2.39866
2.40899
2.39822
2.42872
2.39957
2.41837
2.44301
2.44618
2.43271
2.45111
2.45096
2.42233
2.40196
2.46598
2.45751
2.45843
2.48445
2.52195
2.52741
2.51075
2.50658
2.52159
2.50817
2.4848
2.50477
2.49507
2.47865
2.50161
2.47241
2.44812
2.4692
2.48264
2.463
2.46972
2.47178
2.50137
2.49718
2.49954
2.48385
2.5012
2.49371
2.46179
2.48843
2.51154
2.49473
2.48473
2.49971
2.49637
2.49583
2.45902
2.46512
2.4679
2.48216
2.4614
2.4773
2.51102
2.51157
2.50271
2.51546
2.52226
2.51504
2.52125
2.51939
2.52233
2.52318
2.4654
2.43115
2.4574
2.44324
2.46179
2.46535
2.44946
2.50568
2.50516
2.50751
2.47525
2.48716
2.47731
2.45603
2.53849
2.52553
2.51963
2.52101
2.52759
2.52612
2.49917
2.52179
2.51764
2.52349
2.51038
2.5128
2.51773
2.50733
2.51303
2.50405
2.52247
2.52463
2.51348
2.50009
2.51847
2.51086
2.52129
2.5309
2.52111
2.5215
2.52652
2.51908
2.52921
2.52903
2.52848
2.52009
2.51887
2.51432
2.51708
2.51813
2.51587
2.51922
2.50625
2.51197
2.50728
2.49997
2.4971
2.50937
2.51705
2.50483
2.50731
2.50482
2.51739
2.51805
2.50503
2.50307
2.50066
2.49763
2.49393
2.50061
2.50059
2.49595
2.52264
2.5132
2.52355
2.51276
2.52329
2.51873
2.51052
2.44349
2.44744
2.46181
2.46597
2.49671
2.51201
2.51812
2.5097
2.5089
2.50267
2.4946
2.49058
2.50067
2.50217
2.49673
2.43916
2.43773
2.43195
2.42788
2.42668
2.4264
2.43002
2.48935
2.46372
2.48703
2.46805
2.47986
2.47313
2.47364
2.46837
2.46003
2.47325
2.4592
2.46205
2.45502
2.44124
2.44238
2.44108
2.45848
2.4583
2.44131
2.47111
2.44276
2.4159
2.43327
2.42171
2.42158
2.42954
2.41638
2.42666
2.42281
2.43791
2.43625
2.4297
2.40832
2.40216
2.50841
2.49947
2.48825
2.49093
2.50103
2.52002
2.49899
2.49578
2.4969
2.50004
2.46975
2.47162
2.48522
2.48222
2.43528
2.46106
2.43289
2.45249
2.44466
2.45054
2.44673
2.49942
2.50497
2.50778
2.50784
2.50166
2.514
2.50442
2.50784
2.50936
2.5051
2.51185
2.44666
2.46056
2.43849
2.45051
2.45054
2.45098
2.44984
2.51782
2.51342
2.512
2.5162
2.49627
2.48923
2.49534
2.49792
2.49337
2.50612
2.50213
2.50425
2.49849
2.49233
2.48901
2.48855
2.50022
2.49811
2.50054
2.49433
2.51476
2.52103
2.52077
2.52293
2.51846
2.52637
2.52605
2.44302
2.45781
2.41609
2.42787
2.41282
2.42018
2.41442
2.41544
2.41403
2.40886
2.40722
2.41196
2.437
2.42758
2.43376
2.43172
2.42202
2.43316
2.41511
2.4196
2.41204
2.42279
2.41928
2.44321
2.43573
2.43676
2.4467
2.44546
2.43848
2.42779
2.43298
2.428
2.44354
2.44023
2.44924
2.44648
2.43216
2.43712
2.43856
2.43202
2.42131
2.41782
2.43477
2.41718
2.40571
2.42059
2.41048
2.45015
2.43143
2.42853
2.42565
2.44211
2.43879
2.43143
2.41347
2.43962
2.43078
2.41826
2.42397
2.42711
2.42096
2.45069
2.44251
2.43508
2.43452
2.44025
2.42924
2.44834
2.4213
2.4138
2.42079
2.53825
2.54618
2.54533
2.54473
2.54249
2.5555
2.49474
2.48758
2.50901
2.49031
2.51216
2.49731
2.50747
2.50441
2.5231
2.53394
2.5274
2.50781
2.52283
2.51021
2.51458
2.51661
2.50711
2.49239
2.44152
2.4601
2.47666
2.47104
2.44956
2.4536
2.47139
2.46373
2.46017
2.49434
2.48917
2.53418
2.53962
2.54454
2.52894
2.53138
2.52554
2.51504
2.49889
2.513
2.4966
2.51802
2.52378
2.53052
2.53194
2.53388
2.53497
2.53867
2.5399
2.54084
2.541
2.53875
2.52881
2.53451
2.53525
2.52297
2.52935
2.53302
2.52715
2.53662
2.53801
2.5098
2.52872
2.52685
2.5357
2.5443
2.5327
2.53304
2.5071
2.5308
2.53033
2.52936
2.53652
2.53759
2.52135
2.53139
2.50866
2.51424
2.53009
2.50716
2.52636
2.52013
2.5358
2.55013
2.53842
2.54764
2.54234
2.54648
2.5464
2.54392
2.54174
2.53351
2.53417
2.52432
2.52555
2.53112
2.54306
2.54548
2.54405
2.54619
2.51545
2.53624
2.53043
2.5406
2.53547
2.53273
2.53449
2.53191
2.52778
2.52975
2.52421
2.53268
2.53707
2.53571
2.53414
2.53473
2.53235
2.52956
2.53572
2.53173
2.53722
2.51906
2.51693
2.522
2.51386
2.5208
2.51328
2.51688
2.52577
2.5213
2.52403
2.52904
2.52509
2.52237
2.53246
2.53546
2.52813
2.5158
2.52277
2.52207
2.51451
2.52111
2.51291
2.52129
2.51892
2.52215
2.52237
2.53111
2.53126
2.53948
2.5395
2.53321
2.5354
2.53692
2.52876
2.5328
2.5309
2.53004
2.52766
2.52072
2.52927
2.52497
2.52233
2.52178
2.52702
2.52179
2.5265
2.52378
2.52374
2.52717
2.53159
2.53059
2.5281
2.53676
2.5393
2.53077
2.47637
2.48908
2.46854
2.4875
2.53741
2.52827
2.53858
2.53179
2.53444
2.53365
2.53503
2.51843
2.51404
2.50863
2.50559
2.51332
2.51431
2.50506
2.53012
2.52989
2.53101
2.52792
2.53172
2.51545
2.51301
2.5252
2.52173
2.51715
2.51613
2.52197
2.52554
2.52602
2.52949
2.52869
2.53132
2.53185
2.52594
2.51842
2.50843
2.52176
2.52103
2.51733
2.51382
2.52318
2.52539
2.53097
2.5358
2.52794
2.53338
2.52957
2.52842
2.49711
2.49335
2.48106
2.48142
2.49617
2.49606
2.48178
2.46519
2.47121
2.48056
2.4937
2.49226
2.5108
2.50393
2.49386
2.49666
2.50505
2.48323
2.48943
2.50603
2.49344
2.49822
2.49441
2.48972
2.46894
2.4872
2.48673
2.4841
2.47896
2.48986
2.49602
2.48473
2.46568
2.48528
2.48647
2.48697
2.50592
2.49907
2.49684
2.49913
2.49951
2.49273
2.52315
2.51951
2.51217
2.53747
2.53406
2.53306
2.5173
2.52305
2.52318
2.5271
2.52312
2.5279
2.51473
2.52311
2.52666
2.52542
2.53121
2.52947
2.50232
2.51591
2.51119
2.49116
2.48602
2.50919
2.5006
2.48875
2.5014
2.49497
2.49396
2.48328
2.48209
2.50738
2.51943
2.50487
2.49687
2.50744
2.50517
2.50457
2.50882
2.50605
2.52038
2.50971
2.51492
2.50875
2.51197
2.51409
2.52906
2.52831
2.531
2.53213
2.53038
2.5331
2.51894
2.50852
2.52177
2.51781
2.52136
2.52141
2.51869
2.50661
2.51125
2.52373
2.51851
2.51197
2.51211
2.51737
2.5074
2.51472
2.50962
2.51606
2.50646
2.50949
2.51298
2.5274
2.52569
2.52211
2.52022
2.52725
2.52758
2.5196
2.46273
2.45329
2.42665
2.45734
2.44281
2.43274
2.46855
2.45118
2.42991
2.51174
2.48736
2.49684
2.50432
2.51314
2.51459
2.51056
2.47258
2.49092
2.48503
2.51313
2.50187
2.50026
2.47732
2.47305
2.47326
2.46813
2.47933
2.46209
2.46329
2.47774
2.48329
2.49795
2.49875
2.50163
2.48206
2.48871
2.48897
2.48481
2.47824
2.47518
2.48179
2.48667
2.50646
2.49264
2.48013
2.48312
2.48485
2.51339
2.51984
2.51592
2.5222
2.51791
2.51823
2.50924
2.51258
2.49999
2.5126
2.50563
2.51118
2.51768
2.50847
2.50967
2.50918
2.4876
2.47666
2.49763
2.48147
2.49287
2.4902
2.48623
2.45479
2.44249
2.44672
2.44735
2.44868
2.44031
2.44731
2.47258
2.46479
2.4838
2.4822
2.48012
2.46727
2.45918
2.45991
2.45391
2.4449
2.46574
2.4681
2.4696
2.4755
2.44605
2.45681
2.48124
2.51783
2.50146
2.50733
2.51169
2.51038
2.50768
2.51343
2.4953
2.5084
2.49312
2.50383
2.49432
2.49469
2.50141
2.5244
2.5288
2.53091
2.53226
2.51267
2.49325
2.50636
2.50289
2.51112
2.50209
2.50748
2.52293
2.51262
2.5133
2.51061
2.51522
2.49596
2.49711
2.506
2.5063
2.49325
2.49359
2.50831
2.52205
2.51728
2.51326
2.52682
2.522
2.51756
2.46907
2.46645
2.46197
2.45372
2.46019
2.46317
2.41184
2.44295
2.43363
2.42684
2.43822
2.44248
2.46649
2.43599
2.44199
2.43445
2.42273
2.44323
2.42998
2.43674
2.42624
2.44903
2.46361
2.44827
2.45654
2.45552
2.43973
2.46114
2.44281
2.43143
2.44407
2.44301
2.44065
2.44711
2.46698
2.45863
2.45607
2.47871
2.48488
2.50431
2.48874
2.49359
2.48928
2.49139
2.47071
2.45734
2.48036
2.46044
2.47697
2.47525
2.46786
2.44605
2.47116
2.46008
2.44709
2.45022
2.46078
2.45065
2.44747
2.4599
2.44094
2.45459
2.48065
2.4824
2.46935
2.46742
2.48002
2.4821
2.46695
2.4398
2.41856
2.41587
2.43013
2.43122
2.42158
2.45605
2.42732
2.43454
2.4348
2.43046
2.42644
2.43942
2.44227
2.43257
2.48184
2.46386
2.48419
2.48276
2.47589
2.47066
2.48562
2.48969
2.48309
2.4721
2.47472
2.48204
2.49661
2.49229
2.50088
2.48931
2.50403
2.50111
2.49142
2.48156
2.45477
2.46659
2.46994
2.4693
2.46583
2.47346
2.46393
2.48364
2.4942
2.48089
2.48424
2.48637
2.4798
2.45319
2.46863
2.48078
2.47694
2.46214
2.46416
2.47412
2.48941
2.46955
2.48326
2.47425
2.48711
2.48226
2.47961
2.42526
2.40554
2.42317
2.40417
2.40789
2.4045
2.41117
2.39897
2.39386
2.41782
2.41693
2.4151
2.40052
2.39795
2.46968
2.44837
2.48229
2.41072
2.44426
2.41352
2.43468
2.4312
2.43994
2.40894
2.43149
2.44307
2.43188
2.42059
2.40107
2.40919
2.40298
2.41795
2.4171
2.40786
2.40107
2.40478
2.3989
2.42371
2.41002
2.41663
2.40883
2.4105
2.40862
2.40082
2.40644
2.45508
2.4554
2.43904
2.45423
2.4628
2.4458
2.43246
2.43783
2.44647
2.44695
2.43727
2.42845
2.43558
2.44205
2.43234
2.44495
2.44672
2.44038
2.44255
2.45403
2.42853
2.42941
2.43679
2.43143
2.43995
2.39385
2.40694
2.40593
2.40319
2.3976
2.40832
2.39336
2.40214
2.39053
2.40972
2.42688
2.42384
2.46913
2.45019
2.44093
2.4495
2.45734
2.45774
2.44405
2.46914
2.48367
2.4797
2.48401
2.45159
2.46606
2.46262
2.48258
2.46714
2.45541
2.4727
2.4664
2.47671
2.48041
2.47533
2.5141
2.51365
2.51782
2.52062
2.50938
2.5104
2.51697
2.51718
2.51708
2.52884
2.52694
2.52424
2.50929
2.51426
2.52168
2.52673
2.51143
2.52082
2.51568
2.52449
2.52183
2.52089
2.50721
2.5125
2.51557
2.51931
2.51579
2.51151
2.52566
2.51826
2.51586
2.52167
2.4882
2.50261
2.4906
2.49651
2.49889
2.48492
2.49611
2.48745
2.487
2.50931
2.4892
2.50019
2.49951
2.49251
2.49408
2.49508
2.48547
2.49614
2.49643
2.51714
2.5046
2.5065
2.50415
2.50603
2.49392
2.46657
2.46949
2.4846
2.47684
2.47539
2.48075
2.45458
2.44917
2.46033
2.46382
2.45979
2.46437
2.45718
2.46068
2.45311
2.46847
2.44823
2.45112
2.46555
2.49261
2.49532
2.48827
2.48053
2.49619
2.49633
2.48099
2.47469
2.46028
2.49053
2.47547
2.48063
2.47664
2.47896
2.45709
2.45725
2.48812
2.47371
2.46831
2.46628
2.47563
2.46211
2.47444
2.44478
2.46262
2.45865
2.46221
2.45739
2.4904
2.49427
2.49906
2.50415
2.49784
2.50143
2.50377
2.47288
2.4896
2.48917
2.5077
2.50146
2.49465
2.50433
2.50634
2.49297
2.4795
2.48023
2.47114
2.48165
2.47143
2.47612
2.4834
2.49586
2.50568
2.48542
2.49354
2.49385
2.49959
2.49221
2.48555
2.49461
2.4755
2.48222
2.49047
2.48611
2.4878
2.47435
2.47035
2.44023
2.46039
2.45871
2.45974
2.45879
2.46621
2.49144
2.47183
2.49179
2.48147
2.48525
2.48814
2.48973
2.50638
2.5123
2.50324
2.50307
2.5031
2.50186
2.5016
2.50108
2.50612
2.49628
2.50814
2.50722
2.49892
2.4757
2.47258
2.483
2.48624
2.46975
2.46956
2.48635
2.49153
2.50109
2.47483
2.49006
2.48298
2.4883
2.48482
2.50385
2.50429
2.4824
2.49335
2.49728
2.50085
2.48979
2.50212
2.49246
2.50574
2.50333
2.50375
2.50903
2.47919
2.46512
2.46719
2.46045
2.47
2.46775
2.46198
2.46817
2.46145
2.48286
2.46087
2.45582
2.46636
2.47251
2.45211
2.45348
2.46815
2.48846
2.49033
2.48271
2.49739
2.49486
2.48086
2.46945
2.45359
2.48351
2.47563
2.47111
2.466
2.47966
2.46852
2.47031
2.49374
2.47885
2.48058
2.47462
2.48309
2.50785
2.47855
2.48032
2.47093
2.47385
2.52355
2.52057
2.46252
2.45616
2.45059
2.4531
2.45584
2.45992
2.45622
2.48059
2.4835
2.48318
2.48824
2.47884
2.49483
2.45888
2.45618
2.46096
2.52201
2.52104
2.5176
2.51985
2.51921
2.51986
2.52687
2.51879
2.52968
2.52326
2.5266
2.52093
2.52722
2.5179
2.50696
2.52497
2.52556
2.52686
2.52469
2.52393
2.52728
2.52383
2.52428
2.51791
2.5244
2.51921
2.53424
2.5351
2.53392
2.50384
2.506
2.51167
2.5113
2.50611
2.508
2.50912
2.50482
2.49649
2.50025
2.51461
2.50902
2.51273
2.51479
2.51529
2.51508
2.51521
2.46412
2.48038
2.48647
2.48312
2.47537
2.47843
2.4782
2.51357
2.51577
2.51181
2.51753
2.51336
2.51333
2.51346
2.45774
2.50942
2.50602
2.50851
2.49926
2.49964
2.49339
2.50127
2.49904
2.50783
2.51784
2.51916
2.44524
2.48356
2.48781
2.49227
2.48326
2.48889
2.48748
2.41116
2.42271
2.46489
2.47275
2.46134
2.47062
2.46231
2.47065
2.45695
2.47165
2.45034
2.4433
2.44912
2.45274
2.44811
2.44916
2.45135
2.39575
2.38604
2.44575
2.45678
2.42032
2.41738
2.41975
2.42182
2.44741
2.43883
2.43383
2.44429
2.44133
2.44952
2.44289
2.42611
2.43093
2.43248
2.48148
2.49218
2.48787
2.48238
2.48557
2.49
2.48426
2.50197
2.5055
2.50475
2.50212
2.50493
2.50069
2.50251
2.49379
2.48301
2.48651
2.48826
2.48873
2.48751
2.48553
2.44989
2.44323
2.45888
2.44854
2.45112
2.44534
2.45475
2.51186
2.50398
2.50899
2.50811
2.50936
2.50411
2.51176
2.50983
2.51417
2.50966
2.43877
2.43547
2.45145
2.44465
2.44115
2.43996
2.44588
2.50663
2.4917
2.4857
2.47888
2.48907
2.48798
2.48939
2.49136
2.48741
2.52038
2.52919
2.52034
2.51725
2.4323
2.44676
2.43647
2.4027
2.41422
2.40852
2.40368
2.40435
2.40744
2.41238
2.399
2.40115
2.40376
2.42752
2.42658
2.43434
2.42085
2.40856
2.41762
2.41153
2.41309
2.45045
2.44374
2.44953
2.45138
2.454
2.43901
2.44283
2.44722
2.44416
2.44483
2.40566
2.41543
2.41338
2.41578
2.40929
2.40988
2.41112
2.40343
2.41706
2.40991
2.42008
2.41951
2.41916
2.41323
2.43903
2.43565
2.45262
2.44383
2.44301
2.43882
2.44726
2.44935
2.43933
2.45595
2.44977
2.44625
2.44421
2.4527
2.40597
2.41679
2.40859
2.40716
2.40272
2.40605
2.41088
2.49489
2.48709
2.49475
2.48529
2.51978
2.51432
2.51816
2.5079
2.51778
2.51406
2.5161
2.51025
2.51502
2.50882
2.51577
2.51292
2.51817
2.43706
2.46512
2.47916
2.4837
2.54324
2.54043
2.54101
2.53552
2.53528
2.52725
2.53593
2.50034
2.50726
2.51159
2.54212
2.53337
2.53926
2.53314
2.53413
2.53423
2.53609
2.53976
2.53577
2.53864
2.53713
2.54326
2.54175
2.52076
2.52587
2.52475
2.53422
2.52324
2.52258
2.53968
2.53278
2.53684
2.53671
2.53883
2.53455
2.53828
2.53539
2.5179
2.5323
2.54024
2.538
2.54131
2.52452
2.51867
2.52556
2.52596
2.52726
2.52284
2.5255
2.52829
2.53953
2.54308
2.53769
2.54323
2.54168
2.53731
2.53089
2.54581
2.5395
2.53615
2.54035
2.53646
2.5367
2.53651
2.53065
2.53346
2.53304
2.53295
2.53013
2.53088
2.52983
2.53301
2.53131
2.53096
2.5347
2.52727
2.52913
2.53129
2.53139
2.52964
2.52684
2.53366
2.53029
2.50643
2.51269
2.51494
2.52255
2.52889
2.52637
2.52138
2.53004
2.54079
2.54201
2.53808
2.54135
2.53095
2.51681
2.52007
2.5155
2.51599
2.51634
2.51968
2.51575
2.5256
2.52653
2.53705
2.53611
2.54014
2.53992
2.52697
2.53016
2.53198
2.52691
2.52895
2.52729
2.52682
2.52664
2.52415
2.52731
2.52282
2.52526
2.52542
2.52998
2.52756
2.52728
2.52645
2.52664
2.52402
2.53154
2.53093
2.53435
2.53249
2.52709
2.49938
2.53686
2.53513
2.53234
2.52982
2.53238
2.53235
2.52919
2.50138
2.49941
2.50824
2.50538
2.50154
2.50076
2.50685
2.53403
2.52713
2.5319
2.53075
2.53507
2.52588
2.52456
2.52644
2.52204
2.52313
2.52243
2.52262
2.53162
2.52423
2.52363
2.52535
2.52639
2.52563
2.52945
2.52002
2.52046
2.51923
2.51824
2.5212
2.5228
2.51946
2.53144
2.52715
2.52695
2.52598
2.53002
2.52721
2.52717
2.47474
2.47572
2.46381
2.47863
2.47328
2.47882
2.47007
2.49565
2.48656
2.51317
2.50809
2.51154
2.50518
2.51068
2.50162
2.51013
2.50502
2.49551
2.50494
2.49932
2.50216
2.50005
2.50215
2.47861
2.47765
2.4725
2.47445
2.48189
2.4802
2.47976
2.46738
2.48062
2.47548
2.47778
2.47241
2.48148
2.47377
2.50147
2.49538
2.50501
2.49936
2.50121
2.49888
2.50444
2.53509
2.53127
2.53092
2.53418
2.5323
2.53336
2.53478
2.51719
2.52135
2.51043
2.5154
2.51795
2.51855
2.5129
2.52108
2.5229
2.51341
2.51848
2.51836
2.52078
2.51615
2.50933
2.50534
2.51052
2.50525
2.46502
2.46722
2.46557
2.5068
2.50385
2.50494
2.49783
2.50473
2.50202
2.50293
2.50642
2.50491
2.49717
2.50211
2.49629
2.5066
2.50712
2.5051
2.51159
2.50937
2.50975
2.49849
2.50845
2.50063
2.50264
2.50032
2.50319
2.49915
2.50835
2.51436
2.51675
2.51286
2.50783
2.51041
2.51599
2.53511
2.53173
2.5321
2.52926
2.53412
2.53179
2.53084
2.51579
2.51431
2.50844
2.51233
2.51487
2.51551
2.51254
2.52339
2.51964
2.52368
2.5208
2.52134
2.51959
2.52293
2.51653
2.51735
2.52231
2.52036
2.51835
2.51881
2.52125
2.51714
2.51695
2.512
2.51729
2.51533
2.51758
2.51604
2.40878
2.45037
2.45458
2.45711
2.45844
2.448
2.4576
2.4539
2.4408
2.45556
2.44271
2.43992
2.44869
2.51702
2.50801
2.51522
2.517
2.48318
2.48792
2.49344
2.49605
2.48977
2.49139
2.49459
2.50449
2.50322
2.49832
2.49502
2.49397
2.50257
2.5039
2.49586
2.48011
2.48551
2.49194
2.48473
2.48527
2.48357
2.48655
2.47061
2.46614
2.46916
2.47083
2.47601
2.48289
2.46774
2.47973
2.47545
2.4976
2.487
2.49354
2.50024
2.49391
2.49172
2.4843
2.50166
2.4933
2.51807
2.51433
2.51698
2.51281
2.50586
2.503
2.50321
2.51681
2.51115
2.49996
2.49662
2.5013
2.50353
2.50228
2.48842
2.48185
2.47792
2.47991
2.48455
2.4838
2.47842
2.44558
2.44244
2.44319
2.43734
2.43088
2.434
2.46938
2.46462
2.46785
2.46513
2.45939
2.45829
2.45938
2.47603
2.47086
2.5039
2.50919
2.50075
2.50396
2.50533
2.50592
2.50301
2.48526
2.48571
2.49411
2.49027
2.48761
2.48797
2.49417
2.53174
2.52876
2.51425
2.50974
2.50897
2.50324
2.49932
2.50703
2.50478
2.50155
2.5207
2.51301
2.51968
2.51335
2.51968
2.5151
2.51769
2.51203
2.51131
2.51924
2.51018
2.5148
2.50945
2.51276
2.51169
2.509
2.50404
2.51065
2.51189
2.51195
2.50853
2.4529
2.45558
2.44395
2.46326
2.46083
2.4539
2.44903
2.45752
2.45474
2.45025
2.4428
2.43485
2.43947
2.43202
2.44176
2.43712
2.4406
2.44874
2.44094
2.42968
2.44031
2.43858
2.43154
2.42748
2.43091
2.42153
2.45518
2.44591
2.44788
2.44738
2.44665
2.44563
2.4528
2.42813
2.43253
2.43111
2.46407
2.46323
2.50001
2.49018
2.49607
2.49106
2.49699
2.49316
2.49475
2.46761
2.46019
2.45333
2.45738
2.46235
2.46136
2.45763
2.47205
2.46723
2.4721
2.45978
2.46811
2.45908
2.4695
2.45396
2.46418
2.46825
2.46962
2.46401
2.46625
2.45946
2.46251
2.46299
2.45567
2.46398
2.4602
2.46252
2.46068
2.41379
2.41076
2.41451
2.44787
2.46551
2.44791
2.44056
2.43584
2.44219
2.44566
2.43982
2.43859
2.43927
2.47994
2.48426
2.47976
2.47688
2.4797
2.48249
2.47754
2.45717
2.46576
2.47031
2.46486
2.4633
2.46248
2.46758
2.4914
2.48529
2.48023
2.48516
2.486
2.48863
2.48407
2.46004
2.46722
2.4529
2.45793
2.46029
2.46163
2.45578
2.49453
2.48318
2.49547
2.49114
2.49182
2.48907
2.49271
2.48709
2.48016
2.49285
2.48412
2.48709
2.48136
2.49003
2.47087
2.47096
2.45751
2.46342
2.46698
2.46941
2.46142
2.43485
2.42397
2.43124
2.42391
2.43101
2.42614
2.42857
2.39996
2.39565
2.3986
2.39805
2.40393
2.40043
2.40586
2.40111
2.40222
2.40066
2.40668
2.39986
2.39963
2.40079
2.3959
2.40053
2.45922
2.4676
2.4675
2.47
2.46923
2.46811
2.47305
2.47652
2.46831
2.46775
2.45497
2.4335
2.4199
2.43868
2.43035
2.42134
2.39582
2.39724
2.39998
2.4098
2.4169
2.40985
2.41596
2.41096
2.419
2.39844
2.39821
2.4084
2.40623
2.46059
2.4542
2.4409
2.43354
2.43687
2.44119
2.43882
2.4392
2.44157
2.42743
2.43592
2.42267
2.42669
2.42058
2.42385
2.42197
2.44471
2.46049
2.45645
2.44612
2.45079
2.45224
2.44776
2.44354
2.45751
2.45752
2.4578
2.44842
2.46356
2.43109
2.41424
2.42106
2.42474
2.42588
2.41442
2.40609
2.40384
2.40721
2.41303
2.40755
2.39899
2.40766
2.3939
2.41077
2.42023
2.41707
2.42674
2.42789
2.41634
2.471
2.47902
2.46179
2.46249
2.44314
2.46981
2.45816
2.46497
2.46141
2.46767
2.4631
2.46104
2.49368
2.46093
2.46785
2.47004
2.46486
2.49761
2.52222
2.52247
2.52519
2.52211
2.52133
2.52004
2.52464
2.52416
2.52827
2.52881
2.52442
2.52971
2.52986
2.52395
2.52705
2.5242
2.52402
2.52159
2.52476
2.5191
2.51436
2.51431
2.50751
2.5111
2.5119
2.51432
2.50827
2.50848
2.51421
2.50397
2.50891
2.50908
2.51123
2.50635
2.52099
2.5172
2.52553
2.52086
2.52749
2.49223
2.49252
2.48756
2.49098
2.49239
2.48835
2.50364
2.50467
2.51325
2.49907
2.50178
2.5052
2.47932
2.47741
2.48333
2.48476
2.49049
2.47761
2.50073
2.49794
2.49326
2.49805
2.47671
2.47662
2.48536
2.47687
2.48387
2.47663
2.50971
2.50497
2.50646
2.50477
2.50983
2.50457
2.50846
2.45668
2.46366
2.45882
2.46838
2.4591
2.46483
2.46146
2.44529
2.45815
2.44161
2.44951
2.44789
2.45371
2.44383
2.46565
2.4722
2.4775
2.47304
2.47086
2.47042
2.47338
2.47942
2.47634
2.46932
2.47555
2.47564
2.47853
2.47378
2.47858
2.47226
2.4657
2.46682
2.47357
2.47131
2.46958
2.4846
2.47607
2.48155
2.47477
2.48075
2.47666
2.4789
2.45757
2.4643
2.46929
2.47168
2.46336
2.46923
2.46786
2.50935
2.50827
2.50297
2.50646
2.51182
2.50856
2.50964
2.49354
2.49893
2.49659
2.49393
2.49008
2.49596
2.49203
2.49057
2.49326
2.48763
2.48546
2.49087
2.49157
2.48486
2.49141
2.49147
2.49235
2.49095
2.49346
2.49515
2.49133
2.49754
2.48084
2.49102
2.48656
2.48861
2.48386
2.48736
2.48279
2.44641
2.45976
2.453
2.4584
2.45268
2.45674
2.4546
2.50066
2.49324
2.4987
2.49432
2.49922
2.49588
2.49875
2.51348
2.50622
2.51343
2.50716
2.50965
2.50835
2.51159
2.49819
2.49208
2.48841
2.49313
2.49407
2.49566
2.4924
2.48933
2.49128
2.4958
2.4879
2.49108
2.48794
2.49057
2.487
2.49309
2.49792
2.49726
2.48909
2.49239
2.49434
2.48442
2.49065
2.48694
2.49308
2.48582
2.48975
2.4897
2.50744
2.50117
2.50075
2.4989
2.49784
2.49874
2.49692
2.44251
2.44647
2.45169
2.45362
2.44694
2.44881
2.45154
2.47981
2.463
2.46187
2.46552
2.47757
2.46154
2.47315
2.47626
2.47941
2.47243
2.47295
2.47161
2.47549
2.48303
2.47834
2.47416
2.48092
2.47523
2.48367
2.47937
2.47552
2.47183
2.46691
2.46727
2.47679
2.47202
2.47274
2.49053
2.48066
2.48357
2.47848
2.48682
2.48405
2.48239
2.48154
2.47873
2.46854
2.48698
2.5106
2.50919
2.50993
2.51418
2.50619
2.51119
2.50985
2.49142
2.52234
2.50646
2.50973
2.50892
2.50855
2.50257
2.50916
2.5007
2.5091
2.51364
2.51302
2.5119
2.51044
2.46292
2.47315
2.46046
2.51809
2.51868
2.51473
2.51735
2.51787
2.51937
2.51629
2.52344
2.52265
2.52551
2.52468
2.52349
2.52312
2.5218
2.51576
2.51661
2.52136
2.52309
2.5212
2.51915
2.51596
2.51849
2.51823
2.52152
2.51829
2.52169
2.52157
2.52261
2.52305
2.52233
2.51789
2.52174
2.45686
2.46269
2.46318
2.43451
2.43222
2.45328
2.44288
2.45193
2.45165
2.45072
2.44993
2.45611
2.44729
2.45323
2.44231
2.45726
2.44852
2.45126
2.44067
2.45527
2.45569
2.44384
2.45047
2.45937
2.45722
2.46406
2.45275
2.46095
2.45208
2.45684
2.50551
2.50585
2.49939
2.48523
2.49317
2.49093
2.4889
2.48842
2.50673
2.50799
2.49617
2.49845
2.48428
2.4875
2.48691
2.49042
2.47409
2.47403
2.4624
2.48527
2.47895
2.46587
2.46694
2.47004
2.46893
2.46727
2.46269
2.47513
2.4778
2.4726
2.46616
2.47355
2.4638
2.54115
2.54538
2.53892
2.54511
2.54249
2.53499
2.53912
2.53916
2.543
2.53741
2.53731
2.54154
2.54314
2.5426
2.53749
2.54718
2.54199
2.54384
2.5448
2.54575
2.52813
2.52844
2.52982
2.52925
2.52456
2.52574
2.52619
2.52009
2.52133
2.5184
2.5171
2.51748
2.52026
2.52095
2.51949
2.52463
2.52086
2.53023
2.52074
2.52623
2.52334
2.52907
2.52497
2.52069
2.52277
2.52658
2.52186
2.5237
2.52481
2.50488
2.50447
2.49483
2.50353
2.50323
2.50472
2.4992
2.52511
2.51742
2.52259
2.52512
2.52322
2.52278
2.52241
2.51792
2.52023
2.52099
2.51305
2.52032
2.50853
2.52093
2.51792
2.52262
2.52222
2.51901
2.51333
2.5071
2.50925
2.51172
2.51637
2.51114
2.51993
2.52048
2.51516
2.51446
2.51941
2.51952
2.51462
2.50552
2.52313
2.51155
2.51735
2.51052
2.51726
2.51074
2.52432
2.52191
2.52125
2.52498
2.52357
2.52554
2.52907
2.50841
2.51212
2.50047
2.50547
2.50745
2.50996
2.5006
2.52229
2.52879
2.51791
2.52164
2.52309
2.52053
2.52015
2.51585
2.50986
2.51903
2.50696
2.51046
2.52572
2.53026
2.52747
2.52887
2.527
2.52298
2.51647
2.5115
2.50609
2.51438
2.51453
2.51562
2.51244
2.54313
2.53737
2.53301
2.5319
2.51086
2.53612
2.51972
2.52312
2.51368
2.51433
2.50174
2.5061
2.51601
2.5164
2.50684
2.51354
2.50317
2.50282
2.49852
2.51826
2.52036
2.51482
2.5183
2.51674
2.52219
2.5164
2.52124
2.52334
2.52442
2.5227
2.52359
2.52453
2.52723
2.52903
2.524
2.52313
2.52682
2.52825
2.52856
2.5254
2.5256
2.52538
2.52256
2.5203
2.52005
2.52373
2.52199
2.51973
2.5204
2.52364
2.5224
2.52155
2.52211
2.52338
2.52313
2.524
2.51571
2.52825
2.52636
2.52447
2.52335
2.52287
2.53061
2.52763
2.51975
2.52163
2.51181
2.5157
2.52131
2.53017
2.52144
2.51089
2.51963
2.51268
2.5222
2.5315
2.53456
2.53394
2.53427
2.53266
2.5328
2.53451
2.53489
2.53072
2.53071
2.52714
2.53064
2.5319
2.52472
2.52972
2.52591
2.52704
2.46384
2.5247
2.51846
2.52174
2.52295
2.52233
2.52035
2.52255
2.52364
2.52204
2.51792
2.52201
2.52169
2.52388
2.5201
2.50853
2.51434
2.51012
2.51606
2.51341
2.51421
2.51482
2.51359
2.51397
2.50953
2.51328
2.51306
2.51602
2.51161
2.52101
2.52253
2.52098
2.51902
2.51934
2.52199
2.51855
2.51836
2.51608
2.52188
2.51806
2.51923
2.5184
2.51996
2.5161
2.51183
2.51915
2.51581
2.51359
2.51428
2.5168
2.51156
2.50751
2.51123
2.51452
2.50186
2.50747
2.50799
2.50791
2.50851
2.50334
2.50828
2.50096
2.50786
2.50507
2.5102