/*--------------------------------*- C++ -*----------------------------------*\
| =========                 |                                                 |
| \\      /  F ield         | OpenFOAM: The Open Source CFD Toolbox           |
|  \\    /   O peration     | Version:  v1612+                                |
|   \\  /    A nd           | Web:      www.OpenFOAM.com                      |
|    \\/     M anipulation  |                                                 |
\*---------------------------------------------------------------------------*/
FoamFile
{
    version     2.0;
    format      ascii;
    class       surfaceScalarField;
    location    "239";
    object      phi;
}
// * * * * * * * * * * * * * * * * * * * * * * * * * * * * * * * * * * * * * //

dimensions      [0 3 -1 0 0 0 0];

internalField   nonuniform List<scalar> 
37284
(
3.12833e-09
-1.53299e-08
1.37377e-08
-1.53619e-09
-3.13085e-09
1.89831e-09
-3.84056e-09
5.07309e-09
1.21581e-08
3.76574e-09
-1.47325e-08
-1.19134e-09
1.10122e-09
-1.06441e-08
8.04392e-09
1.49892e-09
-1.11223e-08
2.16173e-09
1.00618e-08
1.00463e-09
-9.86202e-09
-1.78666e-09
-9.80622e-09
-3.11446e-10
6.70468e-10
-6.82977e-09
8.68805e-09
-2.52874e-09
-5.98619e-09
8.81839e-09
-7.55456e-09
-1.05858e-08
1.21541e-08
2.25914e-09
3.5571e-10
-1.01694e-08
3.14618e-09
-1.3336e-09
-1.16746e-08
5.36953e-10
-7.19699e-09
-7.295e-09
-2.75379e-09
-5.15676e-09
5.86122e-10
7.13469e-09
-1.02493e-08
1.78102e-09
-5.66533e-09
7.64326e-09
4.27229e-09
-8.97961e-09
1.28702e-08
-8.16293e-09
1.84167e-08
-9.30491e-09
-4.8395e-09
5.96852e-09
-1.4085e-09
1.38567e-08
4.58253e-09
8.00682e-09
-2.15689e-08
8.70857e-09
-1.55694e-08
1.14433e-08
1.39683e-08
-1.52664e-08
2.2829e-08
2.59229e-08
-2.00793e-08
-2.86725e-08
-6.09968e-09
1.42477e-08
5.60575e-10
-4.83832e-09
1.16089e-08
-1.33847e-08
2.78457e-08
-4.92711e-10
-1.24385e-09
1.17407e-08
3.75079e-09
-3.55636e-09
5.90764e-09
2.17236e-08
-2.40748e-08
1.32514e-08
-1.80516e-08
2.37512e-08
-1.9578e-08
1.73443e-09
-1.70299e-09
1.29267e-08
-1.15351e-08
1.07145e-09
1.69698e-09
1.76966e-08
-2.04651e-08
1.47109e-08
-1.54261e-08
1.78933e-08
-1.78994e-08
1.82763e-08
-1.87297e-09
-3.47661e-09
7.55826e-09
1.50355e-08
-4.3175e-09
3.52901e-09
4.81744e-10
1.07002e-08
1.64874e-08
-1.31276e-08
1.43368e-08
5.37996e-09
1.22401e-08
-6.881e-09
2.29014e-08
8.95947e-09
2.61345e-09
1.00992e-08
1.19713e-08
-5.5832e-09
-3.71336e-10
2.77104e-08
-1.72398e-08
1.39681e-08
-1.7327e-08
1.59911e-08
7.61912e-09
-6.28316e-09
4.72111e-09
-4.46392e-09
-1.75842e-08
-3.3225e-09
2.63634e-09
-9.59111e-09
1.02773e-08
3.35409e-10
-1.30966e-08
9.43872e-09
-1.6007e-09
-9.63573e-09
1.38727e-08
1.44447e-08
-8.35106e-09
9.89736e-09
4.31057e-09
-1.55765e-08
1.16013e-08
1.71546e-08
-8.71828e-09
7.60937e-10
-1.012e-08
-2.8225e-11
5.57137e-10
-7.89195e-09
-9.8497e-09
8.10592e-09
-1.81413e-08
1.89824e-09
-2.30369e-09
-1.11165e-08
-3.79501e-09
-9.50992e-09
2.08298e-10
-1.05555e-08
-3.35955e-09
1.3097e-08
1.95169e-09
-1.95126e-08
-5.13119e-09
-1.0489e-08
6.1103e-10
4.2754e-09
-1.28792e-08
-8.51724e-09
3.95239e-09
-7.56076e-09
1.71602e-09
6.28948e-09
-1.02121e-08
2.78647e-10
1.45376e-09
-1.2181e-08
1.04486e-08
1.06221e-09
-8.34438e-09
4.06023e-10
-6.38479e-09
-5.0202e-10
-4.00561e-09
-5.81834e-09
-4.85969e-09
2.43172e-10
-5.77917e-09
1.03957e-08
-2.1841e-09
-8.45099e-09
5.7754e-09
-8.91507e-09
-1.06226e-08
1.97808e-08
-1.44686e-08
3.36943e-09
3.46482e-09
-8.2306e-09
-1.01339e-09
-8.38739e-09
1.22476e-08
1.61283e-09
-4.56991e-10
6.16542e-09
-1.33232e-08
-7.35049e-09
7.32716e-10
-3.89928e-09
-3.0771e-09
7.15085e-09
8.67287e-10
1.26188e-08
3.39633e-09
-1.68825e-08
-1.16079e-08
9.32722e-09
3.14792e-09
-2.49252e-11
-1.40347e-08
2.45179e-09
1.28545e-08
1.55061e-09
-1.08197e-08
-3.58546e-09
1.16535e-08
1.38197e-08
-1.45601e-08
-1.54777e-09
3.46353e-09
1.26444e-08
3.06769e-09
-1.76527e-08
2.2442e-09
2.16611e-08
-2.08376e-08
1.4724e-08
-1.09292e-08
6.14578e-09
1.63362e-09
4.39757e-10
7.97836e-09
1.3243e-08
-5.71053e-09
-4.51607e-09
1.46248e-08
-4.39817e-09
-6.07332e-09
6.50854e-09
-4.32538e-09
-8.80161e-09
8.6108e-09
1.2548e-09
6.36212e-09
-2.23591e-09
2.65741e-10
-9.74063e-09
1.17108e-08
1.45924e-08
-1.35524e-10
-1.66927e-08
3.32689e-10
-7.76742e-10
1.3937e-08
-1.34929e-08
-9.27643e-09
-1.12751e-09
1.07367e-08
-6.88147e-09
2.25661e-09
-4.65157e-09
1.27782e-08
-7.73518e-09
9.54938e-09
-2.02576e-09
7.42412e-09
-5.1326e-09
9.0531e-09
-1.12144e-08
3.05643e-10
-1.59324e-08
1.48501e-08
1.70643e-09
-1.25162e-08
1.11155e-08
-7.86602e-09
8.44497e-09
6.05924e-09
-5.51658e-09
-7.5254e-09
4.37125e-09
-8.81712e-10
-8.78949e-09
-2.84505e-09
-2.6885e-09
-7.26181e-09
1.70928e-08
5.61694e-09
-6.47907e-09
-1.62306e-08
5.17008e-09
1.25776e-09
1.06649e-08
-2.1737e-08
6.52999e-09
2.03771e-08
-1.51914e-08
-9.2867e-10
1.22076e-08
-2.63771e-08
1.88101e-08
-4.6406e-09
3.18454e-08
-2.7065e-08
7.42719e-09
-2.46149e-08
-3.00758e-09
-9.42841e-09
3.70509e-08
-1.35126e-08
2.07432e-08
1.19275e-08
-8.93766e-10
-2.45463e-08
1.54499e-08
-1.66333e-08
-3.07366e-09
4.51555e-09
4.76013e-09
-5.11824e-09
-2.6019e-08
-2.19972e-08
-3.07607e-10
1.80835e-08
-2.16254e-08
-1.57638e-09
7.40414e-09
1.19372e-08
1.67858e-08
4.4506e-09
-9.06578e-09
3.29305e-09
1.32213e-09
-1.06965e-08
4.02542e-09
1.11217e-08
-2.7518e-09
-8.19334e-09
1.87936e-09
4.86566e-09
-7.45279e-09
-1.64674e-10
-9.6815e-09
3.85068e-09
1.5874e-08
-3.74265e-09
-3.86893e-11
-2.92645e-09
-4.48766e-09
-3.23859e-09
-4.99344e-09
-9.4221e-09
3.51631e-10
-4.54785e-09
-7.8007e-09
-2.52229e-09
-5.92442e-09
-3.05656e-09
1.15033e-08
-8.45276e-09
-7.60138e-09
1.35319e-08
-3.73546e-09
-7.9559e-09
-1.5299e-09
-1.15352e-08
1.01774e-08
-8.60233e-09
-1.26915e-08
6.15118e-09
-1.38677e-08
-1.81053e-09
-2.4438e-10
-2.59592e-09
4.65082e-09
2.19847e-09
-1.49458e-09
-2.51441e-09
1.28414e-10
1.96625e-09
1.03825e-10
2.08098e-09
7.04763e-10
-4.28032e-09
1.93439e-09
2.34383e-09
-2.19724e-09
1.93065e-09
1.3217e-10
-2.42987e-10
-9.03524e-10
3.49034e-09
2.47649e-09
4.07261e-09
-5.84434e-09
6.97399e-09
-4.74189e-09
5.06546e-09
-1.23583e-09
-2.00666e-09
6.31592e-10
3.96831e-09
-2.59322e-09
-1.22833e-09
2.58441e-09
-3.36274e-09
4.04959e-09
-7.58661e-11
1.13162e-09
-5.10533e-09
2.66861e-09
4.23403e-09
-2.85305e-09
6.18087e-09
7.17262e-10
-6.61651e-10
1.87906e-09
4.96346e-09
3.17547e-09
5.17926e-09
-6.42142e-09
-7.44396e-09
8.43239e-09
5.43299e-09
-1.2684e-08
-6.5908e-10
6.92166e-09
-7.44599e-10
-1.18136e-08
1.08196e-08
1.73861e-09
9.73901e-09
-1.12049e-08
7.21312e-10
-6.10183e-09
3.15684e-09
1.16788e-08
-1.28279e-08
-4.9528e-09
-2.52279e-09
3.51239e-10
1.38504e-08
-6.05857e-10
2.70728e-09
-1.33063e-08
-1.49662e-08
2.54674e-09
-1.2999e-10
3.50558e-09
1.31175e-09
-1.14323e-08
1.63263e-08
-1.59406e-08
-2.90841e-09
-8.31582e-09
1.76956e-08
6.94642e-09
-1.15797e-08
-3.04917e-09
3.69542e-09
-1.21412e-08
1.50645e-08
-2.52269e-09
-7.6239e-10
-1.17794e-08
-3.31228e-09
1.40309e-08
4.34589e-09
1.0351e-08
-1.22177e-09
-1.16519e-08
-1.31746e-08
7.89771e-09
1.96464e-09
9.94534e-09
-1.2769e-08
-1.33165e-08
7.86593e-09
1.94815e-08
1.68125e-08
-2.91073e-09
-1.46642e-08
9.20441e-09
-5.70841e-09
1.03207e-08
-1.44532e-08
-1.28463e-08
8.77253e-09
1.19715e-08
-2.86361e-09
-3.73855e-11
-3.54676e-09
1.26148e-08
-1.20207e-09
2.43373e-09
2.79204e-09
-8.69919e-09
2.95679e-09
1.49468e-08
-1.09294e-08
-7.18992e-09
9.4201e-09
-3.47226e-09
1.95324e-08
3.54411e-09
-1.35669e-08
-9.50957e-09
1.22226e-08
1.68328e-08
-9.52303e-09
4.49844e-09
-2.40498e-08
1.83925e-08
1.15887e-09
3.96184e-09
-1.78167e-08
1.83533e-08
1.42315e-08
-2.81767e-09
-7.45196e-09
-8.30032e-09
-5.65724e-09
1.75017e-08
-7.19053e-09
-1.1875e-08
1.24883e-09
-8.42526e-09
-2.2815e-08
-1.85716e-08
1.10547e-08
1.52412e-08
-7.72434e-09
7.73745e-09
-4.98071e-09
-1.63237e-08
-1.76997e-09
-1.0401e-08
1.99084e-08
-1.19847e-08
-8.35688e-09
1.51697e-08
-2.33937e-08
3.24328e-09
-5.00553e-09
1.01688e-08
-1.67702e-08
8.3973e-09
-1.79589e-09
-1.4269e-08
1.4917e-08
9.52078e-09
-1.19948e-08
1.27307e-09
-3.54726e-09
-8.94666e-09
-1.98183e-08
3.08647e-09
2.98904e-09
6.04331e-09
-1.21188e-08
8.50596e-09
3.7937e-09
-9.21318e-09
1.72344e-09
1.38795e-08
-9.66802e-09
-5.93489e-09
1.41684e-08
-3.93897e-09
1.25724e-08
-1.1161e-08
-1.59911e-09
1.8767e-10
5.78158e-09
-4.7217e-09
1.15125e-08
7.63803e-09
-1.31363e-08
1.78037e-09
3.71795e-09
1.16129e-09
1.22583e-08
-2.50182e-09
3.24495e-09
5.05581e-10
6.20103e-09
-2.02947e-09
4.22575e-09
5.82785e-09
1.52902e-08
-9.22772e-09
1.62169e-08
-1.39264e-08
1.17809e-09
-7.13571e-09
1.17141e-08
-6.74233e-09
-9.74221e-09
-2.91112e-09
-1.33669e-08
1.19489e-08
-1.8339e-09
5.19773e-09
-5.75166e-10
-5.55845e-09
-3.47721e-09
-2.10029e-09
-1.49212e-09
-8.532e-09
-4.34882e-09
3.39646e-09
-4.65049e-09
3.51305e-09
-2.25906e-09
-1.81249e-09
8.6013e-10
-9.23972e-10
4.70363e-09
-8.13805e-10
-2.96586e-09
-1.74139e-09
-3.83313e-09
-9.12919e-09
7.36804e-09
-3.83523e-09
-1.18375e-09
6.30401e-10
-2.49856e-09
-4.13367e-09
-2.15651e-09
-8.68651e-09
6.15963e-09
-1.00575e-08
-6.80479e-09
-4.10533e-08
3.16101e-08
-1.33688e-08
2.28122e-08
-2.98022e-09
-1.58866e-08
-2.21865e-08
1.19642e-08
1.37813e-08
5.86463e-09
-2.53006e-08
2.1041e-08
1.62238e-08
-1.19822e-08
-1.62985e-08
2.38232e-08
1.19888e-08
-9.37612e-09
-2.64358e-08
1.72563e-08
1.89903e-09
4.66788e-09
-3.85394e-08
3.06936e-08
2.51022e-08
3.75397e-09
-3.03046e-08
-3.25612e-08
1.6567e-08
2.6254e-09
-1.26103e-08
-3.58375e-08
-1.51635e-08
2.41027e-08
4.84206e-09
-1.40804e-08
3.99724e-09
-2.11582e-09
-2.13407e-08
-1.66976e-08
3.4147e-08
1.32442e-08
-9.05348e-09
4.40325e-09
2.89942e-08
-2.4344e-08
-1.39436e-08
1.53471e-08
-2.37796e-08
1.51969e-08
-2.99399e-08
-1.95461e-09
-5.89057e-09
3.94843e-09
8.3882e-09
-6.44604e-09
1.69315e-10
9.17848e-09
-1.52383e-08
-7.03107e-09
-3.05523e-09
-1.81843e-08
1.13226e-08
1.75099e-09
-2.73897e-09
1.01665e-08
1.05244e-08
-3.85209e-10
-1.01727e-09
1.50389e-08
-1.05582e-08
-6.05902e-09
6.67536e-09
9.60877e-09
4.06352e-09
-3.55938e-09
-8.66089e-09
-8.35924e-09
2.05795e-08
8.67986e-09
-5.13012e-09
-6.71321e-09
-1.98764e-09
2.83189e-09
5.86893e-09
-1.06933e-09
-5.43109e-09
-2.12795e-10
-5.67932e-09
-5.33099e-09
6.66889e-09
4.34141e-09
-6.37645e-09
-3.72216e-10
7.16107e-09
-7.69478e-09
-5.84275e-09
9.99722e-10
8.30353e-10
-7.89732e-09
4.88285e-09
1.02683e-09
-7.91601e-09
-5.41241e-09
1.09532e-09
8.40545e-09
-3.57349e-10
2.90672e-10
-7.62811e-09
2.96441e-09
-1.11173e-08
1.27727e-08
-4.6199e-09
-8.36874e-09
1.24285e-08
9.11038e-09
-1.33911e-10
-9.33381e-09
8.13268e-09
1.97741e-09
-1.14736e-10
3.60017e-10
1.13462e-08
-1.15915e-08
1.18159e-08
-1.20645e-08
-7.26532e-09
-2.21633e-09
1.25391e-08
1.49305e-09
-1.30526e-09
1.04351e-08
1.5537e-09
-1.31848e-10
1.31764e-09
-8.02789e-09
-5.70101e-09
5.4409e-09
8.28802e-09
-8.91754e-09
5.00516e-10
3.89143e-10
-1.56407e-08
1.87671e-09
8.063e-09
-4.21166e-09
-7.14484e-09
-4.28418e-09
2.24809e-08
-1.37565e-08
-6.78766e-09
-1.93662e-09
1.42397e-08
1.0118e-08
-7.55132e-09
-5.57784e-09
7.7724e-09
-7.87962e-09
6.07733e-10
-1.0791e-08
-1.01103e-08
1.41968e-08
-1.22994e-08
-8.68503e-09
9.15206e-09
5.46261e-09
-4.17772e-10
-7.64488e-09
2.71957e-09
1.03662e-08
-6.13239e-10
7.40813e-10
-6.23412e-09
2.57136e-09
-4.21683e-09
-3.13409e-09
-1.06513e-08
6.73126e-09
-2.06563e-08
5.07699e-09
-1.06451e-08
-7.66225e-09
1.63403e-09
1.2343e-08
-6.31465e-09
-2.3549e-09
3.84474e-09
-5.05498e-09
9.40863e-09
-5.79526e-09
1.27048e-10
-9.70548e-09
1.55535e-09
-2.05714e-09
-5.53263e-09
4.08041e-09
-3.6682e-09
5.12042e-09
9.63433e-09
-4.40479e-09
-7.21615e-09
1.98662e-09
2.33075e-09
3.82139e-09
3.48219e-09
-7.82191e-09
-2.36419e-09
5.78133e-09
-7.9941e-09
4.76627e-10
1.32806e-08
-5.76315e-09
-3.34843e-09
-9.35528e-09
4.70961e-09
3.95493e-09
-1.27212e-08
5.41787e-09
8.11656e-09
-1.82182e-08
1.40565e-08
-4.67333e-09
4.18853e-09
-8.87048e-09
-5.87832e-09
1.44715e-08
-6.60099e-09
3.19144e-09
-5.58765e-09
8.9972e-09
6.13979e-10
-1.27476e-08
-1.55913e-08
-6.61083e-09
3.98392e-09
-1.41322e-08
-1.41803e-08
-2.35187e-09
-1.51976e-09
-3.34449e-09
-6.09337e-09
1.04376e-08
-8.17558e-09
-6.11894e-09
3.85694e-09
6.89e-09
-6.38696e-09
-4.55378e-09
6.96246e-09
-1.27354e-08
-1.42235e-08
-5.62944e-10
4.9385e-09
-1.21995e-08
-2.70019e-09
-2.45936e-10
-5.83205e-09
6.19381e-09
-1.15815e-10
-4.68657e-09
4.82098e-09
-3.80345e-10
-1.25443e-09
1.83142e-09
-6.40904e-09
4.68498e-10
-6.4095e-09
-1.64479e-09
3.98693e-09
2.47885e-09
-3.14646e-09
1.30489e-09
1.96781e-10
6.88854e-09
-1.94239e-10
-5.00497e-10
1.81931e-09
-8.95157e-09
8.96368e-09
-1.04734e-09
-6.24876e-09
-3.12586e-09
1.0422e-08
9.82813e-09
1.21383e-09
-3.8918e-09
-1.97933e-09
3.74315e-09
-2.07382e-09
3.10002e-10
3.8003e-09
4.48488e-10
-3.03496e-09
-8.32091e-09
-8.77079e-09
1.08429e-08
-2.97211e-08
4.58741e-09
1.27666e-08
1.23671e-08
-1.70098e-08
-6.77113e-09
2.9379e-08
-5.59799e-09
-2.15796e-09
-2.18524e-09
-2.53779e-08
1.94382e-08
-3.07662e-09
-1.85196e-08
1.19922e-08
1.20335e-08
-1.82442e-08
1.4001e-08
-1.26924e-08
1.82884e-08
8.33518e-09
-8.91516e-09
-2.49665e-09
-6.785e-09
-1.33511e-09
-7.43881e-09
1.55589e-08
-1.73012e-08
7.38763e-09
1.3852e-08
-1.06617e-08
-1.05779e-08
1.95374e-08
-3.81455e-09
5.98948e-09
-5.08733e-09
1.30989e-08
-1.03976e-08
-5.90347e-09
2.22906e-08
-3.0745e-09
8.96826e-09
7.95821e-09
9.92499e-09
6.53788e-09
1.15196e-08
-6.42509e-09
9.48988e-09
1.9069e-09
-1.34193e-08
5.1556e-09
2.05786e-09
-1.0384e-08
3.17046e-09
8.78163e-09
-7.6274e-09
4.00133e-09
-9.00852e-09
-1.07003e-09
6.64763e-09
3.43092e-09
8.06185e-09
-1.50125e-08
5.38594e-11
-3.29644e-10
8.51275e-09
-8.23697e-09
-1.35029e-08
1.44748e-08
-9.18034e-10
2.67154e-09
-1.02325e-08
-5.94197e-09
6.23647e-10
-3.51373e-10
8.50936e-09
-1.79436e-08
7.62518e-09
9.24832e-09
-1.58654e-09
1.43407e-08
1.72059e-09
1.90626e-08
4.79572e-09
-1.57965e-08
1.50487e-08
1.06616e-08
1.9634e-08
-1.21668e-08
1.75037e-09
1.62971e-08
1.41366e-09
-2.25809e-09
1.11833e-08
-1.03389e-08
8.67523e-09
-2.50149e-10
-7.01141e-09
1.45409e-08
-1.5299e-08
-2.37548e-09
9.03659e-09
8.6379e-09
-5.59455e-09
-1.24733e-09
-8.45714e-09
9.72197e-09
-1.01608e-08
-5.15576e-09
-2.58438e-09
9.19426e-09
3.11211e-09
1.22694e-08
7.70724e-09
-6.41906e-09
-1.35575e-08
3.80444e-09
5.88057e-09
6.49893e-09
-9.47331e-11
1.30305e-09
8.53403e-09
-1.458e-09
-5.45472e-09
-1.62131e-09
2.04126e-09
4.1173e-09
-4.2921e-09
-1.01049e-08
4.23623e-09
3.48043e-09
1.47504e-08
1.50461e-09
-1.22158e-08
5.58053e-09
-3.88145e-10
1.30655e-09
3.67837e-09
7.73339e-09
-5.83123e-09
-4.30059e-09
2.96193e-09
9.5047e-10
3.46139e-09
-6.25738e-09
-3.99674e-09
2.90715e-09
2.50512e-09
-4.18231e-09
5.13858e-09
-5.05758e-09
7.2036e-10
3.40474e-10
-4.01047e-09
4.61701e-09
-4.22012e-09
3.23456e-10
9.05713e-09
1.02527e-10
-1.38475e-08
7.29891e-09
5.7289e-09
-1.18684e-08
6.24205e-09
-6.66995e-09
2.21874e-08
7.31155e-09
3.49454e-09
2.92875e-08
-6.85918e-09
-1.04261e-08
1.30998e-08
-7.71386e-09
-4.02709e-09
-1.27477e-10
-3.19849e-09
1.88877e-08
-5.70767e-09
-9.98149e-09
-7.67501e-09
-1.56028e-08
-9.43617e-09
-2.3076e-09
8.12538e-09
4.09238e-09
-1.01868e-08
7.88602e-09
-7.13885e-09
-7.98008e-09
1.27145e-09
-9.97452e-09
-4.87819e-09
-1.20203e-08
-2.19354e-09
5.53448e-09
6.42366e-09
-1.96332e-08
-1.21935e-08
-1.40743e-08
-3.34191e-09
-1.76252e-08
-2.84152e-09
5.96788e-09
-1.96648e-08
1.65385e-08
1.88092e-09
-1.17469e-08
7.0245e-09
-4.08945e-09
-3.26797e-09
-1.77954e-08
2.51528e-08
8.48171e-09
-1.06902e-08
-1.81002e-08
2.08001e-08
-9.90673e-09
2.12354e-08
-6.40311e-09
-4.92559e-09
-1.22516e-08
6.05488e-09
1.68674e-09
4.50995e-09
-1.37079e-08
-8.4504e-09
2.30234e-09
3.42898e-09
1.55041e-08
1.84211e-09
-2.35214e-08
2.01442e-09
-1.17641e-08
-1.24214e-08
6.39002e-09
-1.9952e-08
3.6939e-09
1.12988e-08
1.42159e-08
-2.14902e-08
-4.02456e-09
1.37898e-08
-8.89409e-09
4.32806e-09
3.47446e-09
-1.61933e-08
-1.08026e-08
-2.21759e-09
-2.03812e-08
-1.19922e-08
-3.15087e-09
-3.01434e-09
-7.73563e-09
-1.16085e-08
-2.01421e-09
-1.92175e-09
8.69586e-09
-4.75989e-09
-6.26906e-09
-5.29387e-09
9.54874e-09
-5.69443e-09
3.7024e-09
-4.27701e-09
-5.85678e-09
9.04462e-09
3.95804e-09
-1.55092e-08
-6.54141e-09
8.51866e-09
1.72515e-09
7.44855e-09
-1.00319e-08
4.37685e-09
-3.05242e-09
-1.34882e-08
1.21637e-08
-3.26481e-10
-1.19336e-08
1.6637e-08
3.93872e-09
-1.76132e-09
6.34126e-09
-1.56698e-09
1.18692e-08
-1.25756e-09
8.86567e-09
-2.98409e-09
3.69042e-09
-7.55031e-09
8.07461e-10
-7.92432e-09
1.09469e-08
-3.34905e-09
-8.77816e-09
-8.23238e-09
3.52236e-09
-8.84262e-09
-3.89187e-09
8.71985e-09
-1.13758e-09
-6.23394e-09
4.88007e-09
-2.72498e-08
-5.80408e-09
2.61728e-08
-1.13424e-08
-1.03676e-08
-5.53976e-09
2.23419e-08
-1.98748e-08
-1.38095e-08
-1.49957e-10
1.66878e-08
-1.88255e-08
1.39978e-08
4.67774e-09
-1.51083e-08
-1.31586e-08
1.4504e-08
5.8553e-09
-6.03488e-09
-1.43245e-08
-4.22808e-09
1.85256e-09
-1.3372e-08
-8.35538e-09
-1.17937e-08
-5.17923e-09
1.59839e-08
5.17976e-10
-1.06465e-08
7.64141e-09
4.11437e-09
1.14736e-09
5.59941e-09
-1.78241e-08
3.01191e-09
-9.20624e-09
9.83649e-09
-6.30661e-09
6.03537e-09
1.14425e-08
3.54802e-10
-1.9892e-08
2.94098e-08
-9.87257e-09
-1.77054e-08
2.61964e-08
-8.13628e-09
1.01476e-08
2.19056e-09
-1.02414e-09
-1.1314e-08
4.90572e-09
9.47107e-09
-4.2292e-09
1.851e-09
-2.3877e-09
-1.71687e-08
-1.49141e-09
-1.65496e-08
1.07611e-08
-1.00619e-08
1.59944e-08
-3.27651e-10
1.8096e-08
8.88286e-09
2.43092e-09
2.56805e-08
5.89412e-11
4.57028e-10
2.91123e-08
1.248e-08
-1.58918e-08
-1.4354e-08
-5.37634e-09
1.17949e-08
7.93547e-09
1.02841e-08
3.95686e-09
9.50871e-10
-1.23394e-08
6.76902e-09
7.44207e-11
1.16973e-08
1.7306e-09
5.11015e-09
-1.45511e-09
5.15558e-09
5.09923e-09
9.32146e-10
2.80387e-09
-8.83517e-09
7.0485e-09
4.24666e-09
-9.849e-09
-1.44609e-09
1.82789e-09
3.78402e-09
-5.12627e-10
4.34434e-09
-3.12224e-09
6.05865e-10
-1.85114e-09
-6.53013e-09
7.81721e-10
7.59964e-09
3.30729e-09
-8.13939e-10
1.28966e-08
5.96141e-10
-7.574e-09
-5.91869e-09
1.0807e-08
9.13817e-09
2.38953e-09
-8.96931e-10
-4.61474e-09
1.50057e-09
5.51318e-09
-8.3194e-09
-8.31371e-09
1.11201e-08
7.90129e-11
7.82384e-09
1.38389e-08
-2.2502e-09
-4.2227e-09
-3.50053e-09
6.15887e-09
6.54042e-09
-6.02852e-10
-1.20964e-08
-1.62319e-08
1.17615e-10
5.46921e-09
6.10582e-09
-1.61788e-08
-9.79918e-09
5.9511e-09
3.96566e-09
-3.37193e-09
1.13155e-10
-3.93136e-09
-5.83206e-09
5.43686e-09
4.32652e-09
3.33873e-09
-7.87293e-09
-1.78335e-09
-1.27671e-08
3.39123e-09
-9.23066e-09
-4.81188e-09
6.29911e-10
-1.45559e-09
-7.67528e-09
7.7057e-09
-3.81177e-09
-4.42661e-09
-3.12e-09
-3.96697e-11
7.58628e-09
-5.93012e-09
-2.53905e-11
1.5289e-09
-5.04952e-09
-2.44574e-09
2.9914e-09
4.50386e-09
-4.0759e-09
-1.37754e-09
4.03929e-10
1.08207e-08
-3.55288e-09
-1.22187e-09
-6.04596e-09
1.2768e-09
7.09818e-09
-4.93692e-09
4.80832e-09
1.92593e-09
-5.94759e-09
-1.90846e-09
-3.08914e-09
7.81562e-11
6.55835e-09
-9.08157e-09
2.49783e-09
-5.01651e-09
-1.06676e-08
8.94653e-09
-7.36055e-09
-5.41713e-10
-3.93977e-09
-6.18607e-09
-4.20795e-09
-3.42083e-09
-4.65726e-09
1.9057e-10
-5.24257e-09
8.90864e-09
-8.68259e-09
-1.45072e-08
1.05414e-08
-6.27516e-09
-9.45388e-09
-4.00519e-09
-6.15009e-10
-1.21899e-08
6.52972e-09
-4.04038e-09
-2.44892e-09
-1.09693e-09
-2.69077e-09
-3.47209e-09
7.25979e-09
-2.02393e-09
2.96191e-09
-2.03492e-09
1.33907e-09
-7.04897e-09
2.82009e-09
2.88981e-09
5.03619e-09
-6.38788e-09
-8.51886e-10
-4.078e-09
1.45779e-09
-2.83075e-09
-4.50685e-11
-4.66273e-09
9.22687e-10
-3.37952e-10
2.71166e-09
2.46798e-09
-8.60741e-09
3.42778e-09
2.56708e-09
-4.51814e-09
3.02552e-09
3.2048e-09
-3.76233e-09
3.12032e-10
2.8286e-09
-1.15116e-10
2.15757e-09
9.91377e-09
-3.91119e-09
-8.16015e-09
-1.68661e-09
4.83625e-11
1.29788e-09
1.48945e-08
-1.32069e-09
1.34125e-08
9.94141e-11
5.89226e-09
1.4265e-09
7.5757e-09
1.29037e-08
6.401e-09
1.76693e-10
1.02396e-08
5.1185e-09
1.84265e-08
9.09459e-09
1.0402e-08
1.32576e-08
2.49117e-08
7.7098e-09
8.72609e-09
1.97419e-08
1.22552e-09
-1.03422e-08
1.79213e-09
1.03621e-08
-1.81201e-09
-4.77417e-09
9.11734e-09
-1.46854e-08
4.66434e-09
-1.589e-08
6.45149e-09
9.30587e-09
-3.43147e-10
-7.1706e-09
-7.65954e-09
5.9481e-09
-4.64359e-09
6.35504e-09
-5.01716e-09
1.02606e-08
5.1187e-09
-1.62052e-09
5.72071e-09
6.0662e-09
-9.0614e-09
8.3154e-09
-1.58793e-09
-3.87585e-10
-6.33989e-09
6.73886e-09
1.08824e-08
-5.09499e-09
2.19688e-09
8.8462e-09
1.72524e-09
6.22604e-09
2.30929e-09
7.43449e-09
1.02959e-09
-6.16737e-10
-4.72503e-09
-6.99974e-09
6.56917e-09
5.15561e-09
-3.73624e-09
-4.19587e-09
3.20708e-09
-5.46863e-10
-1.01891e-08
-1.10931e-09
-5.81822e-09
5.79501e-09
1.13253e-09
4.70334e-09
-5.9267e-09
1.1406e-10
-3.78785e-09
-1.54393e-09
1.92203e-09
3.40975e-09
9.49974e-10
-3.44924e-11
2.4893e-09
-8.85439e-09
3.00449e-09
-6.44188e-09
4.56516e-10
3.79457e-09
-1.81291e-09
-4.13347e-10
8.86013e-09
-6.63387e-09
5.21278e-09
-5.81639e-09
7.32508e-09
-5.77848e-09
9.12075e-10
-3.28469e-09
5.10701e-10
3.84671e-09
-7.69734e-09
-1.8995e-08
1.68112e-08
-1.12089e-08
-1.75566e-09
5.18173e-09
-1.86621e-10
1.06697e-08
-9.98694e-09
-1.18916e-08
7.24044e-09
6.08244e-09
-2.65315e-09
1.10912e-09
1.24669e-08
1.35844e-08
-2.38332e-08
-2.21793e-09
2.13427e-08
-4.16284e-09
-4.71291e-09
1.35666e-08
-1.22861e-08
-1.77373e-08
2.36641e-09
-1.83031e-10
-6.42301e-09
1.24546e-08
-1.66074e-08
-1.14787e-08
-1.01167e-09
2.43856e-09
-4.53808e-09
3.11117e-09
2.07579e-09
2.2851e-09
-5.37253e-09
1.71281e-09
5.37748e-09
-5.01451e-09
-2.53829e-09
6.68967e-09
-4.59361e-09
-3.01207e-10
3.5675e-10
-3.74247e-09
1.59604e-10
-1.01073e-09
-2.88609e-10
-1.27644e-09
-2.17738e-09
-2.09184e-09
-3.46683e-09
5.2701e-09
8.93535e-09
-9.67606e-09
4.39529e-10
-9.15487e-09
1.55519e-08
-6.76563e-09
-2.43298e-09
1.74796e-09
7.45076e-09
2.10163e-09
2.84133e-10
-9.15135e-09
-2.42313e-09
-3.17781e-09
-5.47886e-09
-1.01935e-09
1.28698e-08
-8.68275e-09
-7.36487e-09
4.95981e-09
-1.24487e-09
-2.69266e-09
-4.06264e-09
-1.10913e-08
4.836e-09
-9.80116e-10
8.87596e-10
3.30966e-09
1.61265e-09
-8.63195e-11
4.66223e-09
-2.07193e-10
7.96545e-09
-1.05572e-09
-2.2475e-09
1.71822e-09
8.32247e-09
-2.07524e-09
5.0792e-09
-5.13296e-11
1.12995e-08
-1.61011e-08
-2.26205e-09
7.06365e-09
-1.37606e-09
1.31244e-08
-4.4881e-10
-2.64076e-10
5.83744e-09
1.15149e-09
5.77007e-09
-7.12876e-09
6.87586e-09
-5.98845e-09
8.93316e-09
-4.21881e-09
9.36514e-09
-4.59367e-09
4.16169e-09
-1.48134e-09
9.03745e-09
1.80903e-09
2.12408e-10
6.96652e-10
4.17014e-09
7.05354e-09
6.09204e-10
-1.15684e-08
-5.1419e-09
-8.59945e-09
1.77738e-09
4.56001e-09
-9.00729e-09
-1.52053e-09
9.15175e-09
-5.88108e-09
-2.517e-09
3.37984e-09
-3.4235e-09
4.89898e-09
9.35072e-11
-1.3292e-08
4.0751e-09
-2.60754e-08
-1.82194e-08
3.7331e-08
6.96382e-09
-2.62949e-08
2.00609e-08
-1.98414e-08
1.18061e-08
9.49487e-09
-3.32932e-08
1.65905e-08
-3.10792e-08
6.56411e-09
-8.19304e-09
2.4878e-08
-1.12317e-09
2.53098e-08
-1.04893e-08
-8.43044e-09
8.25704e-09
-5.46848e-10
1.75996e-08
1.26113e-08
-1.36057e-08
1.24486e-08
2.02312e-08
4.6511e-09
2.11099e-08
1.62167e-08
-2.09686e-08
5.92124e-09
-5.4793e-09
2.05266e-08
-1.38587e-08
1.14715e-09
-9.75888e-10
3.20747e-08
-2.51776e-08
2.32964e-08
-4.12102e-09
-6.13851e-09
5.59973e-09
2.16486e-08
-1.18064e-09
1.52734e-08
2.3285e-08
-1.38473e-08
1.6625e-08
2.54239e-08
-7.22927e-09
-6.38306e-09
1.2565e-08
1.04732e-09
-6.72776e-09
-5.32193e-09
6.27237e-09
5.77732e-09
-1.67544e-09
7.25601e-09
-1.2408e-08
6.82747e-09
4.51426e-09
-8.97746e-09
2.78775e-09
3.41319e-09
3.13758e-09
-1.32785e-08
-9.41943e-09
5.60334e-09
-2.50929e-09
8.92681e-09
8.38487e-10
3.17565e-09
-1.17066e-09
-3.52077e-09
-5.90284e-09
4.14264e-12
4.3476e-09
-4.16066e-09
-9.1644e-09
-1.00959e-08
2.03545e-09
7.48707e-09
5.02005e-10
-1.3311e-08
5.12074e-09
-1.65682e-11
-1.44174e-08
9.31319e-09
-1.09079e-08
1.34571e-08
2.57154e-09
7.67404e-09
-1.12694e-08
-1.15353e-08
7.35809e-09
9.00123e-09
1.08623e-08
-1.00654e-08
-9.79806e-09
1.19188e-08
6.29856e-10
-3.54739e-09
5.23608e-09
-6.8235e-09
1.16143e-08
-1.00268e-08
-7.76918e-09
1.7975e-08
-4.96969e-09
8.65162e-09
3.49592e-09
-1.08603e-08
1.17428e-08
7.21846e-09
2.83702e-09
8.06782e-10
9.0552e-09
1.0082e-08
7.77017e-09
-6.59691e-09
1.1336e-08
-1.90211e-09
1.246e-08
-1.12868e-08
-2.16476e-09
7.98176e-09
1.21579e-08
-1.39799e-08
-8.94952e-09
1.61444e-08
4.16138e-09
1.89854e-08
-1.15325e-08
2.8161e-08
-1.15396e-08
7.21683e-09
-9.5599e-10
2.19002e-08
3.31101e-09
1.52419e-08
4.04956e-09
-1.51737e-09
1.38836e-08
1.50181e-08
-4.5925e-09
-1.1943e-08
8.62656e-09
5.72885e-10
2.8432e-09
1.05824e-08
2.61494e-09
-1.41502e-08
1.93853e-08
-3.21187e-09
-2.02325e-09
2.44829e-09
1.07535e-08
-1.36409e-08
4.39119e-10
-1.58683e-08
4.16639e-09
-5.77912e-09
1.77596e-08
-1.22695e-09
-7.64809e-09
2.12543e-08
1.39482e-08
-1.17531e-08
-5.40702e-09
-9.23885e-09
5.15824e-10
-4.91791e-09
-5.56359e-09
-1.95436e-08
5.65282e-09
6.47322e-10
1.60008e-08
5.29764e-09
-1.41276e-08
-7.1708e-09
8.32923e-09
4.69441e-09
2.97714e-09
-8.92967e-09
9.02639e-09
8.23251e-09
-3.11621e-09
-1.97505e-08
2.43386e-09
5.83282e-09
8.8819e-09
-1.00203e-08
-4.03369e-09
-2.19104e-09
-1.09336e-09
7.31807e-09
-8.61141e-09
-1.12224e-08
1.58001e-08
2.94485e-09
1.23869e-09
1.35939e-09
-5.54294e-09
-8.1036e-09
5.95848e-09
7.40486e-09
-5.25974e-09
2.60954e-09
8.08766e-09
1.85397e-09
-1.25512e-08
7.12316e-09
-6.12407e-09
1.61046e-09
1.42591e-09
-2.91416e-09
9.8648e-09
-2.24541e-09
4.87293e-09
3.43877e-09
-6.06629e-09
8.66792e-10
-5.30324e-09
5.73941e-09
1.75658e-09
-2.62307e-09
-1.87193e-09
9.59295e-09
-1.37427e-09
-6.34677e-09
2.53571e-09
3.42877e-09
-5.91918e-09
-4.53125e-11
7.20801e-09
-8.68686e-09
3.33282e-09
4.35175e-09
6.75186e-09
-3.8956e-09
6.71993e-09
1.67523e-10
-8.01762e-12
1.39035e-09
5.36952e-09
1.75318e-09
9.32414e-09
-8.57943e-10
1.18093e-09
-9.64713e-09
9.10661e-09
9.82754e-09
-9.61001e-09
1.35444e-08
-9.1587e-09
-9.31133e-09
4.98556e-09
1.19879e-08
-9.21067e-09
-1.98107e-09
1.10876e-08
1.04173e-10
-8.25913e-09
-1.01102e-08
9.72204e-09
2.77602e-09
-3.26976e-09
-9.22831e-09
4.85385e-11
7.69243e-09
-1.47398e-09
-3.60494e-09
1.41855e-08
-8.4322e-11
-7.26542e-09
1.01258e-08
-1.0916e-08
1.377e-08
-1.23151e-08
5.41209e-10
1.24682e-08
4.36212e-10
-1.19651e-08
-3.447e-09
-8.95244e-09
-1.19049e-08
-2.15126e-09
-5.68359e-09
5.5727e-09
2.26216e-09
-3.60816e-09
1.60441e-09
-1.47493e-10
1.83078e-09
2.37787e-09
-6.90882e-09
3.24049e-09
-4.75421e-09
5.0318e-09
-6.26209e-09
2.83467e-09
-3.48645e-09
-1.71666e-09
3.40992e-09
-8.88415e-11
1.80557e-09
-2.8174e-10
-3.84369e-09
3.04765e-09
4.61743e-09
-5.14957e-11
5.54245e-09
-1.01093e-09
-1.0279e-08
5.74748e-09
1.02566e-09
1.14068e-08
-2.42233e-09
2.37833e-09
3.45391e-09
2.13943e-09
-3.5874e-09
6.45164e-09
8.35011e-09
-9.5493e-10
-5.21227e-09
-2.1829e-09
2.2758e-09
5.12769e-10
5.56154e-09
9.94002e-10
1.17656e-08
-4.07156e-09
2.35196e-09
3.93589e-09
-4.01206e-09
3.20423e-09
2.52831e-11
-3.33556e-09
1.06048e-10
-4.16038e-09
2.09335e-09
4.41899e-09
-1.08837e-09
1.32215e-10
-9.69708e-09
6.96861e-09
3.24124e-09
-3.35591e-09
-7.2961e-09
-6.17685e-09
9.2642e-09
-1.1364e-09
-6.12881e-09
-8.71535e-09
-3.05893e-10
-7.08818e-10
-7.62791e-09
8.14249e-09
-1.05988e-08
-6.44831e-10
1.05348e-08
6.82681e-09
2.03645e-09
-1.94621e-08
-8.3869e-09
7.5858e-09
3.07608e-10
-1.2846e-08
1.18935e-08
-6.05311e-09
-7.37977e-09
6.19061e-10
-2.19087e-09
-1.51058e-08
7.24355e-10
7.00164e-09
-1.18527e-08
1.19984e-08
9.75632e-11
-2.43265e-10
7.99767e-09
-6.31372e-09
-8.97843e-09
7.29447e-09
-5.05041e-10
-8.9042e-09
-1.21268e-08
8.18503e-09
-1.8552e-09
5.99024e-11
-1.00574e-08
-1.51715e-08
-1.78951e-09
-1.28349e-09
-2.92352e-09
3.09983e-09
3.17199e-09
-3.34832e-09
5.70682e-09
2.47802e-09
-1.11084e-08
-3.89809e-09
7.23052e-09
-2.3261e-10
-6.20511e-09
8.01376e-09
6.92989e-09
-7.65967e-09
3.20776e-09
-4.34893e-09
-4.01435e-09
-3.89358e-09
1.22567e-08
-5.5013e-09
-5.96135e-09
7.11365e-09
5.67573e-09
-1.20247e-09
-9.97462e-09
-7.06091e-09
8.72228e-09
-5.32586e-09
-4.57345e-09
6.00568e-09
9.45302e-10
6.46814e-10
-6.91804e-09
7.15224e-09
3.74326e-09
2.13616e-09
-1.25202e-09
1.4216e-09
6.81663e-10
-6.50713e-09
-6.0655e-09
-1.3682e-10
6.29988e-09
-8.31966e-10
-5.17363e-09
-4.06664e-09
2.69496e-09
1.47203e-09
-1.00349e-10
-1.09785e-09
4.14341e-09
-7.1122e-09
4.21927e-09
-1.048e-08
5.1629e-09
-1.63759e-10
4.10654e-09
-4.0796e-09
1.5675e-09
-7.72761e-09
8.22963e-09
-2.06951e-09
4.17674e-09
8.57188e-11
-7.75828e-09
4.17409e-09
-1.27716e-10
4.1407e-09
-2.71435e-11
8.12906e-09
-9.78208e-09
3.94394e-09
1.25388e-08
-1.28092e-08
-1.77501e-08
1.02946e-08
-3.46604e-10
7.80205e-09
8.35324e-10
-9.83231e-09
-8.75308e-09
-1.99091e-08
9.11343e-09
2.10902e-08
-1.01748e-08
-8.89894e-09
1.28626e-08
-8.24902e-09
-1.44459e-08
5.33447e-09
7.18151e-09
-1.08748e-08
2.60352e-08
-6.04705e-09
-1.59231e-08
2.96568e-09
3.86544e-09
9.09196e-09
-8.91985e-09
-3.27386e-09
-3.72942e-09
1.96227e-08
-6.81058e-09
-2.1732e-08
1.20945e-08
1.04938e-08
-6.51589e-09
-1.13622e-08
-5.32856e-09
-3.96001e-09
-7.56288e-09
-2.21328e-08
-6.69073e-10
3.47993e-09
6.20204e-10
-3.43101e-09
2.44376e-09
-3.28242e-09
1.69592e-10
6.12967e-09
2.59237e-09
-8.32452e-09
-3.97541e-10
4.7025e-10
5.60045e-09
5.89866e-11
3.56284e-09
3.87346e-10
-3.06006e-09
4.12423e-09
4.53627e-09
-2.79548e-09
7.84884e-10
-1.31587e-09
3.32648e-09
-3.90418e-10
3.87356e-11
-6.34419e-10
4.98213e-09
1.14934e-08
2.14636e-09
-1.10474e-08
4.59274e-09
3.84057e-09
-1.37435e-09
4.86415e-09
2.719e-09
-3.02839e-09
-8.0974e-11
1.62573e-09
4.81377e-09
-5.76264e-09
-6.76828e-10
3.02888e-09
4.77616e-09
-1.55778e-09
1.32285e-09
-3.31529e-09
-1.03593e-09
-1.02387e-09
3.87237e-09
1.8039e-10
-5.40456e-10
4.33032e-09
-2.63334e-10
-7.41581e-09
9.82552e-09
-4.70312e-09
1.86193e-08
-6.36814e-09
3.78216e-10
-1.26294e-08
7.4732e-10
7.06306e-09
1.08089e-08
-1.11947e-08
4.8812e-09
7.06087e-09
-5.25124e-09
-5.15953e-09
-7.83981e-10
-6.34899e-09
-5.27037e-09
-1.53563e-08
6.86371e-09
1.55556e-08
-4.93452e-09
-1.00435e-08
-1.01059e-08
1.19093e-08
-6.73793e-09
1.19461e-08
-2.34063e-09
-1.97113e-08
-1.12494e-08
9.09e-09
-3.00014e-09
-4.78724e-09
-1.28111e-08
4.08531e-09
-1.24393e-08
-1.91662e-09
1.02706e-08
-1.336e-09
1.2285e-08
-1.75439e-08
1.7014e-08
1.48896e-10
-5.74678e-09
-1.58788e-08
7.61558e-09
1.31444e-08
-5.71388e-09
-1.07487e-09
-3.91839e-09
1.0198e-08