/*--------------------------------*- C++ -*----------------------------------*\
| =========                 |                                                 |
| \\      /  F ield         | OpenFOAM: The Open Source CFD Toolbox           |
|  \\    /   O peration     | Version:  v1612+                                |
|   \\  /    A nd           | Web:      www.OpenFOAM.com                      |
|    \\/     M anipulation  |                                                 |
\*---------------------------------------------------------------------------*/
FoamFile
{
    version     2.0;
    format      ascii;
    class       volVectorField;
    location    "239";
    object      wallShearStress;
}
// * * * * * * * * * * * * * * * * * * * * * * * * * * * * * * * * * * * * * //

dimensions      [0 2 -2 0 0 0 0];

internalField   uniform (0 0 0);

boundaryField
{
    WALL
    {
        type            calculated;
        value           nonuniform List<vector> 
1507
(
(-0.00130833 -0.0127418 0.0219256)
(0.00160812 -0.0142721 0.022432)
(0.00350944 -0.00465779 0.00815619)
(0.00373766 -0.00521727 0.00877398)
(0.00399393 -0.00665938 0.0117658)
(0.00379138 -0.00693758 0.0123696)
(0.0078931 -0.0117661 0.0200034)
(0.00765617 -0.00999563 0.0178234)
(-0.00403671 -0.00313132 0.00337919)
(-0.00326025 -0.00321105 0.00339628)
(0.00376874 -0.00537644 0.00952036)
(0.00393981 -0.005424 0.00963775)
(0.00609281 -0.00734731 0.0134505)
(0.00603166 -0.00856732 0.0146556)
(-0.000295083 -0.00323866 0.00384349)
(0.000478532 -0.00376597 0.0049558)
(0.00512336 -0.00645267 0.0116208)
(0.00505605 -0.00655949 0.0118965)
(0.00526063 -0.014932 0.0254153)
(0.00173743 -0.0141663 0.0237416)
(0.00456262 -0.00615869 0.0112896)
(0.00436814 -0.00597373 0.011004)
(0.00578127 -0.0115679 0.0183685)
(0.00666806 -0.0117147 0.0192437)
(0.000656372 -0.000788081 0.00161181)
(0.00127876 -0.000517036 0.00254354)
(-0.00130996 -0.00557008 0.0116692)
(0.000571801 -0.00712463 0.0174084)
(0.00515774 -0.00768132 0.013153)
(0.00582885 -0.00894644 0.0146058)
(0.00554004 -0.00604092 0.0121844)
(0.00567088 -0.00611234 0.0124437)
(0.00645146 -0.00680009 0.0139565)
(0.00580662 -0.00631547 0.0125757)
(0.00537831 -0.00610199 0.0123352)
(0.00295751 -0.00508379 0.00826909)
(0.00294525 -0.0050113 0.00848655)
(0.00327008 -0.00519701 0.00884236)
(0.00318144 -0.00501175 0.00835658)
(0.00274149 -0.00492826 0.00820885)
(0.00311934 -0.00513632 0.00850052)
(0.00111826 -0.00472922 0.00895778)
(0.00150831 -0.00498092 0.00875816)
(0.00160895 -0.00486967 0.00942398)
(0.0012941 -0.0046735 0.009174)
(0.00168399 -0.00502308 0.00906432)
(0.00132179 -0.00482793 0.00863829)
(-0.00880506 0.00544722 0.0211383)
(-0.0105598 0.00567251 0.0212742)
(-0.00896314 0.0054145 0.0198793)
(-0.0107471 0.00539845 0.020279)
(-0.00801105 0.00585369 0.0203611)
(-0.0118368 0.00556517 0.0213146)
(0.00103895 -0.00291858 0.0111457)
(0.00111693 -0.00261569 0.0107015)
(0.00175837 -0.00350298 0.0111915)
(0.00135066 -0.00224893 0.0102236)
(0.00179485 -0.00297434 0.0106776)
(0.00197673 -0.002888 0.010449)
(0.00308642 -0.00513202 0.0112829)
(0.00276493 -0.00493036 0.0111827)
(0.00315713 -0.00462965 0.010817)
(0.00348574 -0.00499704 0.0111834)
(0.00338895 -0.00520989 0.0112476)
(0.002998 -0.00470076 0.011008)
(0.00361381 -0.00383802 0.00927124)
(0.00370587 -0.00404266 0.00998577)
(0.00383149 -0.00440862 0.0101413)
(0.00355135 -0.00397644 0.00987284)
(0.00385989 -0.00413427 0.00978911)
(0.00346254 -0.00407752 0.00996621)
(0.00547939 -0.00769601 0.0133069)
(0.00571312 -0.00701056 0.0129526)
(0.00627452 -0.00861993 0.0147126)
(0.00597919 -0.00755186 0.0134234)
(0.00538751 -0.00765841 0.0131632)
(-0.00163497 -0.0110749 0.019757)
(0.00149078 -0.0120624 0.0201584)
(-0.000179298 -0.0106485 0.0196982)
(0.000585589 -0.0107292 0.018458)
(0.00106049 -0.0126483 0.0206799)
(0.000395336 -0.014401 0.0246554)
(-0.000850977 -0.0126433 0.0217471)
(0.00187252 -0.013648 0.021943)
(0.00412316 -0.00571949 0.0113481)
(0.00379794 -0.00566092 0.0111384)
(0.00417239 -0.00583689 0.0114572)
(-0.00243513 0.00232869 0.00933627)
(-0.00112334 0.00183491 0.00841221)
(-0.000682219 0.0019641 0.00833861)
(-0.0011049 0.00258556 0.00825322)
(-0.0021168 0.00269084 0.00869075)
(-0.00159437 0.00156909 0.00916045)
(-0.000532941 -0.0039632 0.0136408)
(-0.00109628 -0.00189624 0.0124176)
(-0.000152584 -0.00304698 0.0122392)
(6.0014e-05 -0.00277484 0.0122248)
(-0.00124936 -0.00364321 0.013903)
(-0.00133646 -0.00286094 0.0132833)
(-0.000304753 -0.00063881 0.0101476)
(0.000197647 -0.000234878 0.00879284)
(0.000282753 -0.00152351 0.0101965)
(0.000682427 -0.00102641 0.00952855)
(0.000687595 -0.000752743 0.00910624)
(-0.000872486 -0.000638403 0.0108461)
(0.00117095 3.03489e-05 0.00707361)
(0.00106978 -0.000382695 0.00750696)
(0.000846029 0.000781467 0.00587944)
(0.000257086 0.0010049 0.00775818)
(0.00012429 0.00158628 0.00702505)
(0.000482483 0.00160938 0.00609723)
(-0.0034352 0.00134367 0.0108894)
(-0.00405973 -0.000164719 0.0130208)
(-0.00220928 0.000294202 0.0107031)
(-0.00296079 -0.000975519 0.0128117)
(-0.00414608 0.000862249 0.0118397)
(-0.00214567 -0.000480772 0.0116849)
(-0.00284775 0.00423537 0.00790548)
(-0.00229047 0.00480619 0.00702798)
(-0.00169703 0.00379108 0.00688978)
(-0.00158873 0.00432022 0.0069305)
(-0.0030437 0.00473227 0.00855164)
(-0.000136555 0.00470179 0.00441847)
(0.000272142 0.00396148 0.00377026)
(-0.000607249 0.00477596 0.00564975)
(9.27544e-05 0.00347994 0.00387339)
(-0.000516866 0.00393138 0.00497933)
(0.000189454 0.00363897 0.00330167)
(-0.00511448 0.00254762 0.0113574)
(-0.00489719 0.00458215 0.0102586)
(-0.00420266 0.00296481 0.0105446)
(-0.00596599 0.00419245 0.0118729)
(-0.00603585 0.0032598 0.011601)
(-0.00380385 0.00354517 0.0098773)
(0.00416617 -0.00482178 0.00913832)
(0.00414499 -0.00481407 0.00926302)
(0.00408848 -0.00477783 0.00905638)
(0.00411542 -0.00520606 0.0095262)
(0.00417309 -0.004946 0.00925489)
(0.0041713 -0.00475095 0.00916681)
(0.00388277 -0.00460177 0.00892881)
(0.00399937 -0.00452953 0.00922964)
(0.00345781 -0.00488039 0.00857564)
(0.00371332 -0.00444729 0.0081909)
(0.00407721 -0.00430079 0.00865652)
(0.00384161 -0.00456847 0.00888098)
(0.00365442 -0.0047324 0.00858103)
(0.00389719 -0.00479304 0.008684)
(0.00446271 -0.00662828 0.0115973)
(0.00526491 -0.00668344 0.0121762)
(0.00432697 -0.00682091 0.0115012)
(0.00521492 -0.00615785 0.0114514)
(0.00474882 -0.00661626 0.0117836)
(0.00255009 -0.00255125 0.00544816)
(0.00295234 -0.00306544 0.00630855)
(0.00238246 -0.00260449 0.00520459)
(0.00272301 -0.00318212 0.00601903)
(0.00278741 -0.0026649 0.00606897)
(0.00253596 -0.00308094 0.00566938)
(0.0025858 -0.00167552 0.00620654)
(0.00245156 -0.00158993 0.00530454)
(0.00224529 -0.0010099 0.00482388)
(0.00263763 -0.00185789 0.0058686)
(0.00178168 -0.000457476 0.0041561)
(0.00236064 -0.000675447 0.00564026)
(0.00107748 0.00198082 0.00277347)
(0.000865044 0.00146514 0.0019525)
(0.000881875 0.000780118 0.00210216)
(0.00092817 0.00244823 0.00266565)
(0.000879626 0.000596595 0.00167778)
(0.000751553 0.000941236 0.00135105)
(0.000929687 0.00108665 0.00167297)
(0.000879237 0.00142913 0.00184644)
(0.000808635 0.00127781 0.00151593)
(0.000724256 0.000256895 0.00112569)
(0.000787824 0.000599453 0.00128593)
(0.000857588 0.000689245 0.0015651)
(0.000805788 0.00195547 0.00310141)
(0.000716849 0.00247239 0.00228693)
(0.000940977 0.00166135 0.00224521)
(0.00110541 0.00122062 0.00279593)
(0.000716 0.00242213 0.00332052)
(0.00427458 -0.0101191 0.0160963)
(0.00483737 -0.00954523 0.0154289)
(0.00616869 -0.0102483 0.0165168)
(0.00499253 -0.0106704 0.0171432)
(0.00513225 -0.00969443 0.0154994)
(0.00432022 -0.00866788 0.0146012)
(0.00404931 -0.00874558 0.0150177)
(0.00399068 -0.00816857 0.0137997)
(0.00372822 -0.00774311 0.0133629)
(0.00356912 -0.00815284 0.0144259)
(0.00338154 -0.00838708 0.0146527)
(0.00443044 -0.00699507 0.0122124)
(0.00437653 -0.00753269 0.0130753)
(0.00412207 -0.00788497 0.0133405)
(0.00431347 -0.00808791 0.0134105)
(0.00441127 -0.00808521 0.0133929)
(0.00430436 -0.00758425 0.0126901)
(0.00381402 -0.00650922 0.0115884)
(0.00394103 -0.00716914 0.0126728)
(-0.015795 -7.25613e-05 0.0143149)
(-0.0163906 0.00279621 0.0135577)
(-0.0149398 0.000675947 0.0152663)
(-0.0148617 0.00236157 0.0142932)
(-0.0158092 0.00345408 0.0146159)
(-0.0164721 0.00122627 0.0141007)
(-0.0083887 -0.00679266 0.0116802)
(-0.00908582 -0.00702487 0.0129221)
(-0.00759666 -0.00586328 0.00954344)
(-0.0104186 -0.00612145 0.0119669)
(-0.00983642 -0.00534516 0.0099316)
(-0.00823413 -0.00535654 0.00891496)
(-0.00437544 -0.00452387 0.00642429)
(-0.0053693 -0.0048098 0.00729046)
(-0.00934475 -0.00575511 0.0182859)
(-0.00744285 -0.00529023 0.018268)
(-0.00839907 -0.00337087 0.0169315)
(-0.00972829 -0.00266855 0.0168344)
(-0.0106806 -0.00377765 0.0174012)
(-0.007694 -0.00636805 0.0189729)
(-0.00434658 -0.0107096 0.0210082)
(-0.00680976 -0.0090102 0.0191815)
(-0.00630502 -0.0110903 0.0220336)
(-0.00601572 -0.0091705 0.0203301)
(-0.0027114 -0.0116262 0.0219869)
(-0.00451308 -0.0117846 0.0207323)
(-0.00446314 -0.0088423 0.0206396)
(-0.00402979 -0.00902041 0.0186596)
(-0.00307254 -0.0075846 0.0182734)
(-0.00533743 -0.00690426 0.0181839)
(-0.0028628 -0.00878436 0.0186416)
(0.00492556 -0.0150868 0.0242961)
(0.00799125 -0.0138199 0.0245084)
(0.00833905 -0.0135568 0.0251187)
(0.00641136 -0.0140822 0.0232193)
(0.00686175 -0.0156603 0.0278121)
(-0.00439605 -0.0100955 0.0178781)
(-0.00710365 -0.00878424 0.0160953)
(-0.00637783 -0.00905331 0.0157254)
(-0.00251893 -0.0116749 0.0216613)
(-0.00433391 -0.0116344 0.0212773)
(-0.00619706 -0.00966017 0.0188357)
(-0.00176841 -0.0025785 0.0035565)
(-0.00213122 -0.00418538 0.00849106)
(-0.00122441 -0.00280561 0.00717639)
(-0.00274569 -0.00403818 0.00629865)
(-0.00137117 -0.00221123 0.00444606)
(-0.00241812 -0.00291401 0.00398924)
(8.68281e-05 -0.00110124 0.0123041)
(4.8805e-05 -0.00220102 0.0116967)
(-0.000708155 -0.00149993 0.00620393)
(-0.000440374 -0.000847052 0.00597215)
(-0.000677704 -0.00040605 0.00857205)
(-0.000275777 -0.00215116 0.00927543)
(-0.0158966 0.00615723 0.0144237)
(-0.0165566 0.0053948 0.0151561)
(-0.0148541 0.00750207 0.0140904)
(-0.00188856 0.00241256 0.0124791)
(-0.0007941 0.000926821 0.0145837)
(-0.00122816 0.000807292 0.0112434)
(-0.00256237 0.00307813 0.0149008)
(-0.00169454 0.00229833 0.017757)
(0.000780754 -0.00382812 0.0119055)
(0.000837721 -0.00516745 0.0128887)
(0.0015494 -0.00431249 0.0120911)
(0.000800493 -0.00480632 0.0131361)
(0.00150682 -0.00526111 0.0124714)
(0.00162777 -0.00450604 0.0117692)
(0.002972 -0.00733557 0.0140127)
(0.00181079 -0.00632712 0.0133178)
(0.00113918 -0.00734224 0.0149055)
(0.000893706 -0.00632321 0.0136338)
(0.00265423 -0.00774188 0.0142837)
(0.0014437 -0.00762612 0.0145761)
(0.00211639 -0.00678417 0.0136397)
(0.00527864 -0.00674461 0.012307)
(0.00517397 -0.00670238 0.0120224)
(0.0052956 -0.00694898 0.0124356)
(0.00545614 -0.00709767 0.0125675)
(0.00558791 -0.00661596 0.0124004)
(0.00514298 -0.00671974 0.0121753)
(0.00998189 -0.0100571 0.0239919)
(0.00857937 -0.0133967 0.0232428)
(0.00924789 -0.0107062 0.0224007)
(0.00975622 -0.0124068 0.0263066)
(0.00898744 -0.0130912 0.0247714)
(0.00868389 -0.011776 0.0217608)
(0.00336765 -0.00621395 0.0117775)
(0.00347148 -0.00670997 0.0124084)
(0.00303485 -0.00677183 0.0125802)
(0.00321862 -0.00640811 0.0122997)
(0.00319376 -0.00701673 0.012668)
(0.00313178 -0.00735261 0.0134561)
(0.00824593 -0.0109829 0.0191572)
(0.0078587 -0.00914719 0.0180557)
(0.00746637 -0.00937533 0.0171935)
(0.00753983 -0.00909942 0.0174983)
(0.00756114 -0.00985642 0.0174589)
(0.00889528 -0.0120558 0.0215612)
(0.00895661 -0.0101434 0.0196666)
(0.00749904 -0.0111738 0.0192)
(-0.00360291 -0.00307785 0.0024484)
(-0.00283135 -0.00301313 0.0024685)
(-0.00274809 -0.00313642 0.00292898)
(-0.00140554 -0.00255294 0.00213028)
(-0.00194068 -0.00298119 0.00283787)
(-0.00398236 -0.00307948 0.00369156)
(-0.00152778 -0.0024582 0.00180337)
(-0.00232828 -0.00267813 0.00162238)
(-0.00142517 -0.00217731 0.00103166)
(-0.00200971 -0.00254309 0.00145937)
(-0.00178686 -0.00242053 0.000756784)
(-0.00262743 -0.00300095 0.00133898)
(-0.00130918 -0.00187628 0.000575152)
(-0.00307089 -0.00312141 0.00151132)
(-0.0169199 -0.00287841 0.0146755)
(-0.020414 -0.00275936 0.0166599)
(-0.0172625 -0.00427939 0.0143584)
(-0.0184814 -0.00122339 0.0142769)
(-0.018409 -0.0039073 0.0136268)
(0.000576931 -0.000823345 0.00477135)
(-0.000701829 -0.00281905 0.00535116)
(-0.000226055 -0.00201312 0.0060149)
(0.000645114 -1.37609e-05 0.00568762)
(0.000365737 -0.000837692 0.00607587)
(-0.00017305 -0.00219426 0.00455857)
(-0.00383151 -0.0054411 0.00535805)
(-0.00168196 -0.00352804 0.00326926)
(-0.00476065 -0.0055194 0.0041937)
(-0.00326777 -0.00433571 0.00337844)
(-0.00217338 -0.00418051 0.00444536)
(-0.00210801 -0.00366634 0.0027384)
(-0.00313878 0.00875631 0.010242)
(-0.00597409 0.00986067 0.013544)
(-0.00648682 0.0100102 0.0118383)
(-0.00278202 0.00904357 0.0111844)
(-0.00401212 0.00892572 0.0125952)
(-0.00470722 0.00889839 0.0114149)
(0.00400903 -0.00410354 0.00867278)
(0.00386848 -0.00425507 0.00886836)
(0.00412266 -0.0043357 0.00897844)
(0.00431653 -0.00445624 0.00933929)
(0.00388813 -0.00411235 0.00847741)
(0.00150164 -0.00144286 0.00911293)
(0.00170727 -0.00132349 0.00799161)
(0.00204444 -0.00225123 0.00929752)
(0.00148621 -0.00123597 0.00861667)
(0.00220396 -0.00183714 0.00826512)
(0.00238702 -0.00216678 0.00921861)
(0.00319122 -0.00289144 0.00706983)
(0.00305548 -0.00223829 0.00734349)
(0.00297169 -0.00223823 0.0071173)
(0.00322711 -0.00305389 0.00707134)
(0.00299031 -0.00260526 0.00668942)
(0.00302399 -0.00264237 0.00744118)
(0.00326632 -0.00278333 0.00727888)
(0.00269336 -0.00271608 0.00961113)
(0.00338128 -0.00449393 0.0113539)
(0.00349456 -0.00385478 0.00971194)
(0.00299582 -0.00356287 0.0110162)
(0.00253451 -0.00302365 0.0101837)
(0.00351515 -0.004164 0.0105609)
(0.00310778 -0.00297209 0.00895214)
(0.0027671 -0.00223067 0.00789314)
(0.00277821 -0.00246697 0.0084629)
(0.00326272 -0.00302261 0.008622)
(0.00306088 -0.0027927 0.00816815)
(0.00283673 -0.00267248 0.00857857)
(0.004114 -0.00438763 0.00910759)
(0.00452831 -0.00472579 0.010269)
(0.00401474 -0.0040403 0.00933315)
(0.00430455 -0.00503259 0.00963811)
(0.0037289 -0.00393717 0.00901531)
(0.00385388 -0.0038905 0.00871025)
(0.00420465 -0.00459491 0.0102451)
(0.00379108 -0.00453325 0.0106427)
(0.00395359 -0.00466699 0.0102276)
(0.00402028 -0.00466712 0.0101632)
(0.00398358 -0.00470883 0.0104378)
(0.00416542 -0.00489431 0.0104338)
(0.00242598 -0.00445878 0.0119524)
(0.0028144 -0.00427116 0.0112499)
(0.00298496 -0.00538566 0.0124607)
(0.00254651 -0.00433413 0.0111826)
(0.00229931 -0.00477966 0.0124195)
(0.00306066 -0.00466931 0.011543)
(0.00365511 -0.00563594 0.0113834)
(0.00348378 -0.00522833 0.0105677)
(0.00351142 -0.00528016 0.0115055)
(0.00390445 -0.00563976 0.0114453)
(0.00349672 -0.00534561 0.0112894)
(0.00377624 -0.00552489 0.011219)
(0.00201464 0.00105559 0.0253679)
(0.0010648 0.000717426 0.0211864)
(0.000786462 0.000160484 0.0226515)
(-0.00545884 0.00443304 0.0175413)
(-0.00415077 0.00420351 0.0158068)
(-0.012566 0.00507238 0.0212821)
(-0.0141912 0.00512325 0.0216738)
(-0.013556 0.0046989 0.0208168)
(-0.0164078 0.00377589 0.0211416)
(-0.0162548 0.00466043 0.0212623)
(-0.0146771 0.00410399 0.0197776)
(0.000477644 -0.0028138 0.00330861)
(-0.000457101 -0.00310274 0.00339772)
(0.000654252 -0.00325846 0.00415887)
(-0.000637653 -0.00341653 0.00415471)
(0.000551257 -0.00332113 0.0043691)
(1.74246e-05 -0.00273313 0.0029672)
(-0.000412743 -0.0014179 0.000570964)
(1.33226e-05 -0.00074706 0.000532163)
(-0.000714423 -0.00148765 0.000547762)
(9.72787e-05 -0.000625693 0.000644171)
(9.77906e-05 -0.000880641 0.000899594)
(-9.65851e-05 -0.00125861 0.000988726)
(-0.00203155 -0.003041 0.00317073)
(-0.0014796 -0.00347043 0.00470868)
(-0.00231266 -0.00332115 0.00447249)
(-0.00108049 -0.00300387 0.00333204)
(-0.0024798 -0.00325042 0.00391075)
(-0.00118526 -0.00337256 0.00402519)
(0.00159947 -0.00461101 0.00740753)
(0.00101771 -0.00442 0.00672283)
(0.00153324 -0.00471809 0.00782815)
(0.000937817 -0.00467737 0.00780053)
(0.00148254 -0.00441598 0.00694617)
(0.000882147 -0.00458322 0.00737339)
(0.00473731 -0.00171917 0.0236393)
(0.00284337 -0.000283262 0.0268656)
(0.00210264 0.000692703 0.0258701)
(0.00613034 -0.00327918 0.0272836)
(0.0039171 -0.0021905 0.0256013)
(0.00464967 -0.00234597 0.0265283)
(0.000907969 -0.00376766 0.0120003)
(0.00174076 -0.00421149 0.0121)
(0.00117592 -0.0042932 0.0111654)
(0.00160715 -0.00447291 0.0118223)
(0.00120565 -0.00379458 0.0124116)
(0.000280885 -0.00376601 0.0109635)
(-0.00968718 -0.00181296 0.0113111)
(-0.0101747 -0.00116577 0.0126151)
(-0.0125385 -0.000594424 0.0147793)
(-0.0125147 -0.000593923 0.0123726)
(-0.0111425 -0.00161009 0.0111766)
(-0.0114603 -4.43465e-05 0.0137626)
(-0.00652902 -0.000300601 0.0151592)
(-0.00914734 0.00034751 0.0144892)
(-0.00663985 -0.000720052 0.0132528)
(-0.00690729 -0.00102653 0.0120752)
(-0.00809087 0.000324908 0.0157659)
(-0.00904429 -0.00059971 0.0131909)
(-0.00507402 -0.00299069 0.00659327)
(-0.00398628 -0.00305356 0.0060956)
(-0.00516612 -0.00312387 0.00607796)
(-0.00348347 -0.00335031 0.00543102)
(-0.00409963 -0.00306148 0.00486004)
(-0.00365812 -0.00317617 0.00449837)
(0.00433298 -0.00478763 0.0133452)
(0.00376571 -0.00468774 0.0130726)
(0.00371365 -0.00454996 0.0124771)
(0.00419793 -0.00463142 0.0141314)
(0.00410472 -0.00454568 0.0137362)
(0.00381237 -0.00458466 0.013232)
(0.00781038 -0.00613041 0.0248828)
(0.00873907 -0.00626739 0.0237272)
(0.00714496 -0.00536502 0.0188693)
(0.00915532 -0.00714627 0.0227693)
(0.00759649 -0.00654781 0.0219091)
(0.00658893 -0.00433478 0.0231672)
(0.00218167 -0.00498253 0.00844386)
(0.00223586 -0.00525191 0.00907614)
(0.00259839 -0.00499674 0.00837765)
(0.00269861 -0.00501048 0.00867398)
(0.00206978 -0.00487353 0.00799533)
(0.00265221 -0.00521803 0.00919936)
(0.00420732 -0.0051573 0.00940271)
(0.003922 -0.00532544 0.00951988)
(0.00395321 -0.005496 0.00964769)
(0.00418967 -0.00527418 0.00954659)
(0.00395303 -0.00530604 0.00931544)
(0.00386738 -0.00519002 0.00917105)
(0.00389214 -0.00543198 0.0113592)
(0.00421523 -0.00543574 0.011122)
(0.00386026 -0.00540716 0.010887)
(0.0038586 -0.0053764 0.0106975)
(0.003595 -0.00508224 0.0112887)
(0.00379953 -0.00544344 0.0111617)
(0.00257443 -0.00530641 0.010069)
(0.00285467 -0.00505742 0.00991853)
(0.00313547 -0.00536572 0.0109587)
(0.00241363 -0.0052296 0.00967415)
(0.00282501 -0.00554016 0.0106664)
(0.00292058 -0.00513237 0.00982036)
(0.00309775 -0.00560264 0.0103732)
(0.0039487 -0.00553999 0.0100041)
(0.00378487 -0.00521935 0.00975164)
(0.00367137 -0.00524185 0.00943192)
(0.00389516 -0.00582689 0.0105661)
(0.00358174 -0.00528412 0.00987593)
(0.0040318 -0.00547861 0.00992248)
(0.00407182 -0.00561974 0.0103589)
(0.00903029 -0.0076788 0.0198864)
(0.00942195 -0.00985209 0.0215076)
(0.00808501 -0.00753809 0.0177702)
(0.00954972 -0.00816403 0.0231793)
(0.00943553 -0.00689047 0.0216)
(0.00924202 -0.00944606 0.0224198)
(0.00615166 -0.00590275 0.0155821)
(0.00519994 -0.00539049 0.0134864)
(0.0057918 -0.00542443 0.0140226)
(0.00497264 -0.00525602 0.013347)
(0.00506005 -0.00500149 0.0136492)
(0.00536402 -0.00521458 0.0136708)
(0.00448228 -0.00421138 0.0154363)
(0.004405 -0.00411488 0.0157211)
(0.00605166 -0.00470025 0.0191044)
(0.00530779 -0.00401998 0.0164405)
(0.00515382 -0.00479631 0.0157512)
(0.00516034 -0.00463848 0.0167852)
(0.00556157 -0.00620868 0.012273)
(0.00534991 -0.00601184 0.0118172)
(0.00518347 -0.00595814 0.0117145)
(0.00529275 -0.00617005 0.0119826)
(0.00529507 -0.0059568 0.0119025)
(0.00532686 -0.00671507 0.0122267)
(0.00567925 -0.0069129 0.0128951)
(0.00583308 -0.00706642 0.013118)
(0.00618856 -0.00676492 0.0136364)
(0.00566677 -0.00680422 0.012896)
(0.00573074 -0.00699423 0.0131918)
(0.00562119 -0.00707651 0.0127898)
(0.00348714 -0.00531888 0.0118381)
(0.00305649 -0.00520199 0.0106247)
(0.00304405 -0.0048747 0.0113753)
(0.00321608 -0.00530339 0.0111889)
(0.00327646 -0.00517662 0.0109067)
(0.0033001 -0.00505821 0.0111787)
(0.00320494 -0.00520712 0.0123005)
(0.00360567 -0.00506536 0.0131051)
(0.00230225 -0.00445837 0.0122611)
(0.00294145 -0.00491039 0.0129322)
(0.00323767 -0.00498034 0.0122111)
(0.00203646 -0.00459024 0.0122256)
(0.00462283 -0.0056207 0.0113515)
(0.00450722 -0.00532385 0.0106638)
(0.00421829 -0.00532973 0.0110403)
(0.00412556 -0.00539691 0.0110075)
(0.0042019 -0.00533187 0.0107558)
(0.00385374 -0.00544724 0.0108779)
(0.00444301 -0.00543735 0.0117888)
(0.00435123 -0.00549116 0.0116539)
(0.00434585 -0.00540029 0.0117835)
(0.00446295 -0.00536405 0.0116992)
(0.00411892 -0.00527813 0.0114913)
(0.00423553 -0.00528032 0.0111614)
(0.00379481 -0.00492888 0.0121135)
(0.00356313 -0.00475243 0.0122017)
(0.00403684 -0.00511927 0.0119499)
(0.00313092 -0.00476468 0.0118369)
(0.00370755 -0.00494671 0.011343)
(0.00364181 -0.00507776 0.0115509)
(0.0051109 -0.00602384 0.0121517)
(0.00450194 -0.005354 0.0115852)
(0.00478379 -0.0056998 0.0114246)
(0.00509989 -0.00590799 0.0119526)
(0.00481381 -0.00534854 0.0117055)
(0.00478406 -0.00571037 0.0117921)
(0.00445983 -0.00515073 0.0119349)
(0.00494952 -0.00564383 0.0127829)
(0.00482164 -0.00541114 0.0125118)
(0.00461601 -0.00513288 0.0122104)
(0.00421243 -0.00505841 0.0123096)
(0.00448879 -0.00536523 0.012358)
(0.00362278 -0.00548878 0.00986778)
(0.00349848 -0.00537139 0.00968588)
(0.00382507 -0.00544034 0.00959565)
(0.00367563 -0.00544188 0.00965766)
(0.00341295 -0.00549071 0.00956712)
(0.00374565 -0.00539429 0.00995737)
(0.00391335 -0.00545056 0.0098909)
(0.00372571 -0.00546353 0.00977017)
(-0.00389517 -0.00234667 0.0109011)
(-0.00346021 -0.00310705 0.0095525)
(-0.00395296 -0.00288942 0.00835206)
(-0.00544563 -0.00246086 0.00878599)
(-0.00571709 -0.00221696 0.0104501)
(-0.00535695 -0.00201371 0.0112828)
(-0.00225803 -0.00285426 0.0115614)
(-0.00257016 -0.00325602 0.0107582)
(-0.000752366 -0.00372289 0.0105242)
(-0.000306718 -0.0035691 0.0127267)
(-0.000543164 -0.00354713 0.010944)
(-0.00150508 -0.00320085 0.0129459)
(0.00236988 -0.00375342 0.00610885)
(0.00270769 -0.00348622 0.00618311)
(0.00240451 -0.00372958 0.00612469)
(0.00285705 -0.00386291 0.00667092)
(0.00284556 -0.00418078 0.00677607)
(0.00258499 -0.00336923 0.00601228)
(-0.0103363 -0.00686749 0.00863509)
(-0.00905566 -0.00656275 0.00781792)
(-0.00677913 -0.00674872 0.00728634)
(-0.0072951 -0.00645161 0.00626291)
(-0.00889302 -0.00326094 0.00787202)
(-0.0104067 -0.00374948 0.00894356)
(-0.00963205 -0.00412482 0.00728803)
(-0.00802822 -0.00429992 0.00678733)
(-0.00842069 -0.00363559 0.0058933)
(-0.0102812 -0.00316837 0.00890285)
(0.00216259 -0.00169577 0.0212623)
(0.00184646 -0.00157929 0.0182707)
(0.00550811 -0.00726213 0.0256243)
(0.004527 -0.00526314 0.0240763)
(0.0020766 -0.00342848 0.0185428)
(0.00371879 -0.00318773 0.0250757)
(0.00542859 -0.00453253 0.0260814)
(0.0044008 -0.00647926 0.011299)
(0.00450667 -0.0062919 0.0115484)
(-0.01173 -0.00247221 0.0107612)
(-0.00693755 -0.00431063 0.00486433)
(-0.00582251 -0.00471664 0.00373699)
(-0.0065954 -0.00451158 0.00475268)
(-0.000169978 -0.0041909 0.00974229)
(-0.00157961 -0.0036815 0.00860866)
(-0.000959123 -0.0039288 0.00956274)
(-0.000698957 -0.00274449 0.014415)
(0.000190973 -0.00321716 0.0144911)
(-0.000201975 -0.00305259 0.0126374)
(-0.00214759 -0.00356974 0.00871443)
(-0.00376371 -0.00336465 0.00740759)
(-0.00261569 -0.00334773 0.00968938)
(-0.00348405 -0.00215034 0.0114798)
(-0.00326846 -0.0019527 0.013033)
(-0.00138946 -0.00272732 0.0134667)
(-0.00271416 -0.00197864 0.0138997)
(0.0046529 -0.00530285 0.0122448)
(0.00558363 -0.00615724 0.0124783)
(0.00514238 -0.00572831 0.01264)
(0.00531244 -0.00598839 0.0127676)
(0.00414894 -0.00493243 0.012441)
(0.00430481 -0.00525146 0.0114832)
(0.00448716 -0.00536064 0.0119442)
(0.00404488 -0.00507662 0.0117094)
(0.00446263 -0.00519785 0.0109571)
(0.00446993 -0.00542639 0.0111745)
(0.0045137 -0.00503257 0.011414)
(0.00340752 -0.00456158 0.0122836)
(0.00284446 -0.00523471 0.0119087)
(0.0032837 -0.00496173 0.0122673)
(0.00493853 -0.00566652 0.0111444)
(0.00469614 -0.00523701 0.0112497)
(0.00478859 -0.0054558 0.0116809)
(0.00535544 -0.00642907 0.0119715)
(0.00488536 -0.00593031 0.0111181)
(0.00537773 -0.00612938 0.0115925)
(0.00513825 -0.00680609 0.0117234)
(0.00569383 -0.00683825 0.0126853)
(0.00481894 -0.0057121 0.0113722)
(0.0053966 -0.00613548 0.0126805)
(0.00512819 -0.00626512 0.0117629)
(0.00495481 -0.00643744 0.0116105)
(0.00518648 -0.00607226 0.01182)
(0.00495939 -0.0058355 0.0113912)
(0.00630962 -0.0071549 0.0138045)
(0.00602246 -0.00704782 0.0134167)
(0.00667377 -0.00791465 0.0145757)
(0.00499723 -0.00517235 0.0123568)
(0.00576179 -0.00616113 0.0132772)
(0.00517079 -0.00514589 0.0133246)
(0.00538543 -0.00529397 0.0133946)
(0.00453197 -0.00477392 0.012916)
(0.00509554 -0.0053107 0.0148133)
(0.00648147 -0.00687492 0.014395)
(0.00723958 -0.008163 0.0160686)
(0.00672102 -0.0069996 0.0147817)
(0.00711265 -0.00785639 0.0154861)
(0.00763373 -0.00820386 0.0167356)
(0.00540206 -0.00539999 0.0130075)
(0.00586756 -0.0061025 0.0131169)
(0.00801877 -0.0084439 0.0176664)
(0.00833975 -0.00864356 0.0186732)
(0.00768745 -0.00620069 0.0178803)
(0.0062391 -0.00439933 0.018134)
(0.00404754 -0.00546626 0.0103195)
(0.00418589 -0.00558342 0.0103013)
(0.00362882 -0.00552277 0.00998167)
(0.00302461 -0.0052294 0.0108953)
(0.00310654 -0.00518057 0.00937261)
(0.00299789 -0.00500061 0.00928043)
(0.00307466 -0.00514884 0.0093868)
(0.0033521 -0.00538121 0.0095927)
(0.00377028 -0.00522544 0.0105574)
(0.00390823 -0.00549347 0.011203)
(0.00404614 -0.00531304 0.0109461)
(0.00389199 -0.00509151 0.0115402)
(0.00346091 -0.00516951 0.0114238)
(0.00395079 -0.00538193 0.0109666)
(0.00377952 -0.00533645 0.0102989)
(0.00320995 -0.00521922 0.00920183)
(0.00323753 -0.00528039 0.00921428)
(0.00322108 -0.00533127 0.00937661)
(0.00345267 -0.00536722 0.00938791)
(0.00377704 -0.0053465 0.00926854)
(0.00372624 -0.00556946 0.00967162)
(0.00336965 -0.00531643 0.00917944)
(0.00341688 -0.005206 0.00904738)
(0.00379172 -0.00527667 0.0092934)
(0.00371639 -0.00557156 0.00949691)
(0.00291305 -0.0047714 0.00790358)
(0.00292001 -0.00454279 0.00748543)
(0.00294043 -0.00478588 0.00773542)
(0.00299579 -0.00453534 0.00769585)
(0.00329549 -0.00407888 0.0074923)
(0.00326068 -0.00383419 0.00738495)
(0.00346 -0.00405218 0.00762861)
(0.00367321 -0.0050793 0.00897528)
(0.00375575 -0.00519877 0.00898598)
(0.00383238 -0.00548629 0.0093057)
(0.00402631 -0.005428 0.0095499)
(0.00362044 -0.00515161 0.00897502)
(0.00344577 -0.00465479 0.00818838)
(0.00334982 -0.00478542 0.00830475)
(0.00358716 -0.00479374 0.00850262)
(0.00265676 -0.00468841 0.00757189)
(0.00266817 -0.00441109 0.00720172)
(0.00224103 -0.00436591 0.00680403)
(0.00203223 -0.00456081 0.00705313)
(0.00203209 -0.00515343 0.00931004)
(0.00309933 -0.00509546 0.00876776)
(0.00298561 -0.00532701 0.00912905)
(0.00267297 -0.00517958 0.00926848)
(0.00290563 -0.00523481 0.00933977)
(0.00249959 -0.00474354 0.00767585)
(0.00252894 -0.00486845 0.00789617)
(0.00203659 -0.00463374 0.00732275)
(0.00192197 -0.00471736 0.00755232)
(0.00347912 -0.00490081 0.00842777)
(0.00350547 -0.00504803 0.00862225)
(0.00398898 -0.00549341 0.00938772)
(0.00376353 -0.00518323 0.00896929)
(-0.00562487 -0.00272774 0.00819319)
(-0.0067629 -0.00192102 0.0106572)
(-0.00912204 -0.00111154 0.0116469)
(0.00176646 -0.00467377 0.0122255)
(-4.10779e-05 -0.0038439 0.010859)
(-0.000130622 -0.0040449 0.00993152)
(0.00602588 -0.00508162 0.0199777)
(0.00981094 -0.00896166 0.02596)
(0.00900524 -0.00722874 0.023482)
(0.00524472 -0.00326396 0.0233374)
(0.0040397 -0.00445325 0.0145634)
(0.00287311 -0.00350626 0.0159936)
(0.00344285 -0.00421157 0.0140241)
(0.00248431 -0.004053 0.0136532)
(0.00363887 -0.00491881 0.0130459)
(0.00181039 -0.00400739 0.0121818)
(0.00221105 -0.00388245 0.0131964)
(0.00248294 -0.00372768 0.0159803)
(0.000731543 -0.00306906 0.0147855)
(0.00182166 -0.00383022 0.0140949)
(0.00205131 -0.00353476 0.013822)
(-0.000122639 -0.00274518 0.0153782)
(0.000246755 -0.00163367 0.0185465)
(-0.00386102 -0.000482185 0.0158649)
(-0.00224496 -0.0015373 0.0153214)
(-0.0012545 -0.00167625 0.0158118)
(-0.00182757 -0.000397047 0.0182104)
(-0.00312604 -0.000124657 0.0175444)
(-0.000463412 -0.00177673 0.0177575)
(0.00168708 -0.00219712 0.020332)
(0.00477918 -0.004488 0.0201543)
(0.00376486 -0.00186824 0.0206273)
(0.00220097 -0.00162014 0.0202713)
(0.00330265 -0.00191181 0.0228768)
(0.00248057 -0.00498407 0.0112174)
(0.00218771 -0.005108 0.0107069)
(0.00173433 -0.00462866 0.0112085)
(0.000476188 -0.00440892 0.0101979)
(0.00103159 -0.00474978 0.0112677)
(0.00179763 -0.00492363 0.0115807)
(-5.43964e-05 -0.00430825 0.00896833)
(-0.000632005 -0.00406431 0.00683158)
(-0.000418933 -0.00427641 0.00849809)
(-0.00104103 -0.00409602 0.00820729)
(-0.000160727 -0.0043918 0.00782832)
(0.00164715 -0.00415696 0.00634224)
(0.00165544 -0.0044997 0.00683749)
(0.000142892 -0.00450242 0.00818881)
(0.000394282 -0.00465817 0.00816344)
(0.000197563 -0.00440388 0.00717744)
(0.00170452 -0.00489232 0.0082587)
(0.000897508 -0.00465845 0.00814966)
(0.000135598 -0.00429242 0.00667842)
(-0.000471008 -0.00421161 0.00644996)
(0.00110578 -0.00397853 0.00583988)
(0.00102812 -0.00409489 0.00614544)
(0.000444127 -0.00401539 0.00600439)
(-0.000608135 -0.00377645 0.00540807)
(-0.000563166 -0.00378494 0.0049964)
(-0.0012444 -0.00354731 0.00521461)
(-0.00249016 -0.003537 0.00547156)
(-0.00315392 -0.00323645 0.00388591)
(0.00113868 -0.00360257 0.00489049)
(0.00114088 -0.00342274 0.00463422)
(0.000955064 -0.00369763 0.00516794)
(0.000254817 -0.00392568 0.00559066)
(-0.000929196 -0.00293683 0.00301654)
(-0.0099523 0.00173317 0.018131)
(-0.0111958 0.000805183 0.014956)
(-0.0109107 0.00147547 0.0166723)
(-0.00496626 0.00510764 0.0228005)
(-0.00519105 0.00461274 0.0203358)
(-0.00627746 0.00502111 0.0194364)
(-0.00594425 0.00531982 0.0214148)
(-0.0116491 0.00305669 0.0197298)
(-0.00986291 0.00271416 0.019433)
(-0.00857146 0.00287405 0.0207323)
(-0.00839338 0.00396909 0.0216969)
(-0.0102438 0.00423216 0.022276)
(-0.0113561 0.004022 0.0204452)