/*--------------------------------*- C++ -*----------------------------------*\
| =========                 |                                                 |
| \\      /  F ield         | OpenFOAM: The Open Source CFD Toolbox           |
|  \\    /   O peration     | Version:  v1612+                                |
|   \\  /    A nd           | Web:      www.OpenFOAM.com                      |
|    \\/     M anipulation  |                                                 |
\*---------------------------------------------------------------------------*/
FoamFile
{
    version     2.0;
    format      ascii;
    class       surfaceScalarField;
    location    "150";
    object      phi;
}
// * * * * * * * * * * * * * * * * * * * * * * * * * * * * * * * * * * * * * //

dimensions      [0 3 -1 0 0 0 0];

internalField   nonuniform List<scalar> 
37880
(
-2.29005e-09
1.26442e-08
-1.22311e-08
1.8769e-09
-1.09675e-08
9.38925e-09
-7.11826e-10
1.0439e-08
3.24236e-09
-1.03711e-09
2.14501e-09
-4.88787e-09
1.31818e-08
-1.07581e-08
-2.78589e-09
1.5689e-08
-9.74304e-09
2.2273e-09
1.14716e-08
-4.05586e-10
-9.07227e-09
-1.9938e-09
-5.11386e-09
1.37996e-08
-1.11365e-08
1.14406e-08
-5.41802e-09
-9.42402e-09
-2.11805e-09
9.62337e-10
-1.56201e-09
-1.03679e-08
-7.75995e-10
-1.04928e-08
-2.81834e-09
7.31971e-09
-1.03291e-08
-8.48625e-09
-1.34052e-08
1.30863e-08
-8.9551e-10
1.30179e-08
-1.36844e-08
1.35148e-09
-9.75363e-09
8.31175e-09
1.88777e-09
-2.45925e-09
-2.432e-09
-9.76413e-09
-3.06302e-09
-1.31414e-08
-1.99653e-09
4.64511e-09
1.9927e-09
-2.34672e-09
9.27033e-10
1.01577e-08
3.24867e-09
1.18485e-08
2.43623e-10
6.55543e-09
-2.55923e-09
-4.23986e-09
8.98088e-09
-3.59311e-09
-5.14419e-09
-4.70299e-10
6.62946e-09
3.96166e-10
1.05626e-10
8.40496e-09
-3.41285e-09
-4.46592e-09
5.31953e-09
6.51564e-11
7.94538e-09
-1.09975e-10
-7.90062e-09
7.60589e-09
-7.43505e-09
-2.92235e-09
-4.79265e-09
4.12184e-09
-1.1651e-08
5.31574e-09
-3.9398e-09
-4.33995e-09
-1.73621e-09
1.00159e-08
-7.54917e-09
-3.4232e-09
7.03253e-09
-4.39425e-09
-1.83568e-09
1.88987e-09
5.58073e-10
-5.35504e-09
4.02673e-10
-8.89205e-09
1.9009e-09
-7.08265e-09
-8.28299e-09
1.36294e-08
3.85781e-09
-1.43637e-08
2.02727e-09
-4.74101e-09
8.77977e-10
3.30961e-09
4.96344e-09
-1.36281e-08
-1.53097e-08
9.72721e-09
6.22355e-09
-1.24793e-08
-9.11659e-09
9.339e-09
-2.50017e-09
-3.43161e-10
-1.42646e-09
4.26979e-09
-2.18078e-09
-3.6127e-09
3.56152e-09
2.23194e-09
-2.16763e-09
-2.51334e-09
5.22112e-10
-6.30245e-09
4.42008e-09
-2.85018e-09
-1.91304e-09
-3.01484e-09
7.8471e-09
-4.1217e-10
3.12897e-09
-6.75856e-09
4.15168e-09
-2.90563e-09
3.18441e-09
1.18122e-09
-4.6978e-10
2.85007e-09
2.3383e-09
-4.17192e-09
1.08225e-08
-3.76956e-09
2.77687e-09
1.31982e-08
-1.44875e-09
9.76976e-09
3.65374e-10
1.00667e-08
-2.85141e-09
-3.17745e-09
2.30957e-09
7.08432e-09
-6.21647e-09
-1.37127e-08
5.64894e-10
9.97034e-09
3.91793e-09
-1.07611e-08
-6.86961e-09
-4.79656e-11
7.49643e-09
-6.84421e-09
-6.04219e-10
6.84131e-09
3.50887e-09
-1.02548e-08
-9.5361e-11
2.24173e-09
-3.28844e-09
-9.5537e-09
1.06003e-08
-1.02904e-09
1.01121e-08
-1.15361e-08
8.81251e-09
-2.2902e-09
-5.32793e-09
-1.17001e-08
5.65521e-09
3.3432e-09
-9.27185e-10
-6.66347e-09
4.24743e-09
1.07867e-09
4.61539e-09
-2.3509e-09
-9.25177e-09
-1.05102e-09
2.41889e-09
4.98219e-09
-4.653e-09
5.93354e-09
-6.98275e-09
-7.00754e-09
2.75105e-09
1.9721e-09
-5.65039e-09
4.92687e-09
-1.09715e-09
-1.42624e-08
-7.77148e-10
-7.11882e-09
9.78688e-10
-1.56271e-09
7.7029e-09
-2.09727e-09
-2.92497e-09
-2.09657e-09
-3.18992e-09
-6.27474e-10
4.79609e-09
-3.70907e-09
-1.45205e-09
1.97121e-09
-1.02033e-09
-2.08581e-09
2.47861e-09
-3.04793e-11
-2.64335e-09
1.65332e-09
-3.31076e-09
-2.49557e-09
-4.58614e-09
2.99298e-09
-2.35707e-09
-5.15404e-09
1.33565e-09
-1.89474e-09
-2.08427e-09
-6.33228e-10
-1.16921e-10
-1.94447e-09
-1.40802e-10
-4.73837e-09
4.8655e-10
-4.70852e-09
1.14536e-08
-1.15766e-10
5.04827e-09
-4.50867e-09
-4.77942e-09
3.39778e-09
-3.05805e-09
2.92837e-10
3.70392e-09
-8.46269e-09
3.77775e-09
-7.99362e-09
-7.07994e-09
5.78684e-09
4.07519e-09
-2.78215e-09
3.28264e-10
-3.70433e-09
-3.10918e-09
7.21516e-09
2.5038e-09
3.41209e-09
-3.98161e-09
-1.93419e-09
-6.17495e-10
7.58004e-09
-4.45866e-09
3.52213e-09
-2.57861e-09
-1.56097e-09
5.88042e-09
1.35166e-09
-3.70982e-09
1.91908e-11
3.85059e-09
2.01067e-09
4.94361e-09
2.65564e-09
-1.5914e-09
2.78007e-09
2.66205e-09
-1.43773e-10
-9.58533e-11
2.68315e-11
-1.51437e-09
-2.02178e-09
3.50964e-09
-9.23878e-10
-1.14559e-09
2.09649e-09
3.6746e-10
-4.49273e-09
2.61103e-09
2.22362e-09
-4.44564e-09
4.89661e-09
1.34304e-10
-1.16785e-09
4.5238e-10
1.74111e-09
-1.02002e-09
-1.17336e-09
1.51907e-09
-1.03632e-09
-3.03018e-11
4.69945e-10
-1.44831e-09
-1.6702e-10
-2.88796e-09
1.33629e-09
-7.29867e-11
-1.01254e-09
7.98308e-10
3.65723e-09
-3.25871e-09
-1.19686e-09
-2.13546e-09
2.9536e-09
-1.98414e-11
-4.81717e-09
3.09272e-09
-1.42553e-09
3.15001e-09
3.95051e-09
-7.84887e-10
-7.98282e-09
-3.79134e-09
-5.51991e-11
6.93923e-09
-5.01017e-09
5.16932e-09
1.00038e-08
-8.07865e-09
-1.31139e-09
-6.13773e-10
-2.22086e-09
7.21442e-09
1.61937e-09
6.12308e-10
9.237e-10
-5.57927e-09
1.39684e-09
1.609e-09
-2.82081e-09
-2.01033e-09
2.22194e-09
1.40775e-09
1.0981e-09
-1.54814e-10
-3.06524e-09
-2.00797e-09
1.95543e-09
3.11777e-09
-2.17559e-09
2.08413e-10
4.19656e-09
-8.42542e-09
4.12215e-09
-2.45536e-09
1.88871e-09
1.02382e-08
-1.78757e-10
-1.31745e-08
3.11491e-09
-6.7201e-09
2.32049e-08
-6.24662e-09
-1.28654e-08
3.04391e-09
9.64261e-09
-1.23778e-08
-1.17374e-08
1.7395e-08
-2.52151e-09
-5.48764e-09
-4.36874e-09
-1.06987e-08
4.44135e-09
-6.60803e-09
9.60051e-09
-5.42607e-09
-1.48733e-08
-8.38446e-09
-3.48694e-10
-3.13009e-09
1.95255e-09
1.0778e-08
-5.64774e-09
-5.25833e-09
-1.30219e-08
-1.84561e-09
-4.22429e-09
-1.42853e-08
-1.52982e-08
-6.28286e-09
6.61204e-09
1.54027e-08
-1.57319e-08
3.10962e-09
-1.58481e-08
6.4556e-09
4.82434e-09
-9.56561e-09
7.85087e-09
-7.13352e-09
1.85699e-08
-1.32654e-08
4.5804e-09
-7.16307e-09
-4.73234e-09
3.77018e-09
-8.6035e-09
-1.03949e-08
-7.1649e-09
1.04263e-08
-6.12662e-09
-8.83822e-09
4.56995e-09
9.50846e-09
-1.82286e-08
2.59349e-09
-2.38881e-09
-8.24401e-09
-1.17979e-08
7.30056e-09
5.48112e-09
-1.57393e-08
2.01409e-09
-8.36637e-09
8.70621e-09
1.36802e-08
-1.402e-08
7.43262e-09
-1.32169e-08
-2.5821e-09
1.16423e-08
-6.82766e-09
5.97918e-09
-1.07938e-08
-4.98335e-09
1.47216e-08
-1.03201e-09
1.95044e-09
-2.10609e-09
-9.51448e-09
1.31153e-08
-8.58422e-09
-2.86179e-09
-9.52901e-09
1.96914e-08
-9.58273e-09
1.2202e-08
5.46882e-09
6.75301e-09
1.45842e-09
1.06077e-08
7.48321e-09
-4.64509e-09
-8.87734e-10
-1.02783e-08
8.23248e-09
-5.18256e-09
1.65728e-09
-2.39503e-09
-1.78674e-08
-1.16904e-08
1.09229e-08
1.86349e-08
-1.51952e-09
-2.77106e-09
5.54183e-09
1.12462e-08
1.19542e-08
6.00765e-09
-1.07596e-08
-5.3092e-10
2.22134e-08
-1.54673e-08
-1.10253e-08
1.57329e-08
-1.3503e-09
-2.23463e-08
2.08061e-08
2.56469e-09
1.94722e-08
9.81634e-09
1.86804e-08
-1.05715e-08
1.98568e-08
-7.52155e-09
1.77561e-08
3.39983e-09
8.55078e-09
4.04316e-09
4.79663e-09
-3.3933e-09
-5.86393e-09
4.46058e-09
-3.67009e-09
8.00193e-09
4.64785e-10
1.3194e-08
-4.65801e-09
-7.85858e-09
-6.77419e-10
8.95273e-09
-1.04908e-09
5.29035e-09
-5.99992e-09
7.13628e-09
-4.80647e-09
2.84962e-09
-1.22428e-08
7.10209e-09
-8.91044e-09
-4.59054e-09
3.66004e-09
4.9133e-09
-3.9828e-09
3.65109e-09
-2.39717e-10
-2.5252e-09
1.33938e-09
8.2879e-09
6.23825e-09
-6.22837e-09
3.64121e-09
1.06203e-08
-7.21978e-10
-1.61729e-09
7.80267e-10
-4.67646e-09
4.15004e-09
-2.53837e-10
-2.43266e-09
2.38566e-09
8.27358e-10
-7.35938e-09
6.41141e-10
4.28559e-09
-1.78976e-10
-3.45939e-09
-3.72104e-09
-2.29197e-09
-2.56348e-09
4.50307e-09
-7.71579e-10
4.18609e-10
1.28213e-09
5.60663e-09
8.38468e-09
-3.25688e-09
-1.22297e-09
-3.90485e-09
3.22351e-09
5.80237e-09
-2.00101e-09
-4.71526e-09
-1.79642e-09
2.11118e-09
-2.60673e-09
-2.58851e-09
-7.15449e-10
4.58616e-09
-3.00613e-09
-3.53884e-10
-3.63875e-09
4.24794e-09
4.49139e-10
-1.05823e-09
-6.07301e-09
8.58109e-09
6.90138e-09
-3.43675e-09
-4.68753e-09
1.72844e-09
-5.52586e-09
-1.20181e-09
3.06903e-10
-2.81039e-09
6.37868e-09
6.45046e-09
3.50926e-09
-5.21754e-09
-5.02893e-10
3.47691e-09
-1.38588e-08
-1.09043e-08
-4.94067e-09
-3.71929e-09
1.0217e-08
-1.74023e-08
7.24108e-09
8.7204e-09
-1.96809e-08
-1.98615e-08
4.01933e-09
-1.03919e-08
-6.66405e-09
-3.47476e-10
-4.15042e-10
4.17402e-09
-3.41149e-09
3.47466e-09
-4.07776e-10
-3.41438e-09
5.75798e-10
4.48794e-09
-1.76981e-10
-4.88677e-09
4.22584e-09
-4.06507e-09
2.60291e-09
2.14472e-09
-5.21805e-10
3.86197e-09
3.22894e-09
4.35419e-09
2.20798e-10
-1.10028e-09
2.81869e-09
-3.40345e-09
-3.05345e-09
2.7567e-09
-6.11842e-10
9.08589e-10
3.40114e-09
-2.32767e-09
3.28072e-09
2.04563e-09
-9.25051e-10
3.61682e-09
5.73514e-10
3.87738e-09
-8.37882e-10
-2.15232e-09
-2.03196e-09
-1.26914e-09
5.45344e-09
-1.75483e-09
3.21936e-09
1.81467e-09
-8.12772e-10
2.32026e-09
2.49116e-09
-1.41022e-09
-6.72812e-10
2.50289e-09
-2.0777e-09
3.12883e-09
1.12683e-09
-4.19939e-09
6.29468e-09
6.18953e-09
-8.28489e-09
-2.96764e-09
5.31343e-09
-9.33803e-09
6.99213e-09
-1.37113e-08
6.54426e-09
-7.9852e-09
-5.63293e-10
-4.23363e-09
1.2782e-08
-2.77241e-09
1.00569e-10
4.36007e-09
-4.29756e-09
7.38381e-09
-7.44637e-09
1.00915e-08
1.33349e-08
-1.1609e-08
-4.49836e-09
-5.05419e-09
1.41554e-08
-1.56538e-08
-1.02888e-10
1.07025e-08
-2.10462e-09
-4.17362e-09
-9.37562e-09
6.11201e-09
-5.20167e-09
-1.02484e-08
4.68752e-10
-8.06809e-09
2.30015e-09
-6.18662e-09
-6.31462e-09
1.0201e-08
-3.16899e-09
5.93789e-09
-8.99798e-09
-4.71569e-09
8.61392e-09
-1.30144e-08
6.50431e-09
-1.75954e-08
7.80386e-10
1.03107e-08
-7.57567e-09
7.89331e-09
-4.22273e-09
-2.75652e-09
-5.96491e-10
-1.15971e-08
-1.02211e-08
-1.34193e-08
-1.82488e-09
3.30208e-09
8.63209e-10
-2.34043e-09
2.25938e-09
-3.47194e-09
-1.23628e-09
2.66365e-09
1.87469e-09
1.08211e-09
-5.90487e-11
5.65041e-09
-1.63721e-09
-1.57018e-09
-1.97039e-09
2.14949e-09
1.39081e-09
-2.43984e-09
1.47419e-09
-6.04665e-10
5.00138e-11
-6.06747e-10
1.29997e-09
2.47689e-09
2.56673e-09
6.85325e-09
2.56283e-09
1.22548e-09
4.37076e-09
4.24193e-10
8.52528e-10
-6.5857e-09
5.30903e-09
1.49974e-09
-8.55371e-09
7.47817e-09
-4.03787e-09
4.38974e-09
5.00651e-10
-3.35126e-09
6.59354e-09
-7.28013e-09
1.0147e-09
-4.53599e-09
1.70022e-10
-6.41007e-09
7.26856e-09
6.41231e-10
3.92025e-09
-3.62684e-09
-6.87909e-09
-1.01164e-09
-3.62182e-09
-3.37128e-09
4.16042e-09
2.25578e-10
-1.38494e-09
-4.7319e-09
2.48999e-09
2.6862e-09
-6.96389e-09
2.89277e-09
-4.07183e-09
-3.34988e-09
-4.75692e-09
-3.24944e-09
3.12978e-10
-9.50482e-10
3.88685e-09
7.22916e-11
-6.3544e-09
3.03266e-09
-4.11054e-09
-4.81765e-10
4.90528e-09
-7.3883e-09
3.35004e-09
-3.43416e-09
-3.17985e-10
2.80159e-09
-4.92638e-09
-4.86216e-09
-2.40573e-09
7.90206e-10
-5.32015e-10
2.14757e-09
1.48518e-10
-2.62297e-09
6.87093e-11
4.86976e-09
-4.56133e-09
-4.2935e-10
-7.69413e-10
3.39195e-10
5.62935e-10
-3.29033e-09
2.38819e-09
8.15841e-10
-3.25665e-09
2.77994e-09
-4.7928e-09
1.6964e-09
-2.54638e-09
-4.30195e-09
4.34837e-09
-6.22244e-09
-2.39027e-09
3.86064e-09
4.75212e-09
-2.78228e-09
-9.34397e-11
-3.34669e-09
6.87788e-09
-3.22272e-09
-6.43731e-09
-4.754e-09
9.32045e-10
1.43184e-09
-2.54726e-09
-2.30014e-09
-4.45397e-09
5.18005e-10
7.79674e-09
-1.67285e-10
2.59124e-09
-3.98887e-09
-3.3668e-09
7.87382e-09
2.46099e-09
-6.61707e-09
2.95075e-09
8.74279e-11
1.85855e-09
3.01454e-09
-5.23385e-09
2.09867e-09
-5.35312e-09
2.91837e-09
-5.1868e-09
2.8482e-09
-4.21514e-09
8.8693e-10
-7.52873e-10
1.82507e-11
1.34686e-08
-1.2734e-08
-6.47093e-10
9.01048e-09
-9.11627e-09
-6.87545e-11
-1.06559e-08
2.68202e-10
1.04564e-08
-1.28121e-08
1.20962e-08
5.20713e-09
-1.1627e-08
-6.39231e-09
-4.40755e-09
-1.04122e-09
-2.37646e-10
-9.9567e-09
1.02126e-08
1.15412e-09
9.68068e-12
-1.34748e-08
1.23109e-08
1.32585e-09
-9.74945e-09
9.57774e-09
-1.07305e-08
-7.12729e-09
4.8015e-09
-2.08176e-09
-1.18474e-09
6.0574e-10
-6.54831e-09
-1.28021e-08
3.83034e-10
-9.01387e-09
-6.73431e-09
8.05298e-10
-5.74555e-09
-6.03424e-12
1.02457e-08
1.87281e-09
-1.21125e-08
8.49561e-09
1.51487e-09
-1.00166e-08
1.56636e-08
7.31429e-09
-1.70921e-08
-5.88586e-09
1.09461e-08
1.56409e-09
3.15338e-09
3.34901e-09
1.25201e-08
-4.63427e-09
-1.12348e-08
-8.02974e-09
8.55275e-09
1.04231e-08
-3.01647e-09
2.30099e-09
-8.06219e-09
-3.55788e-10
1.86636e-08
-4.38793e-09
4.82133e-09
6.74002e-09
-1.38629e-09
5.32904e-09
1.09257e-08
-8.3673e-10
3.50531e-09
1.05788e-08
1.46983e-08
-6.50136e-09
2.81118e-09
3.72662e-09
7.85571e-09
7.03286e-09
-1.20774e-08
7.77566e-09
-6.88959e-09
7.39381e-09
-8.2799e-09
9.04257e-09
-4.3069e-10
-8.36229e-10
1.33421e-09
-8.99585e-09
7.72044e-10
-5.09785e-09
8.16746e-09
5.97295e-09
2.45098e-09
-1.55024e-10
-9.39308e-09
9.98412e-09
-1.02175e-09
1.48765e-09
-9.54653e-09
-3.65461e-09
8.92832e-09
4.7667e-09
-1.00404e-08
3.49875e-09
-7.10358e-09
-4.97941e-11
5.86075e-09
8.89789e-11
1.21003e-08
-9.52412e-09
-1.08851e-09
1.248e-08
5.24564e-09
-5.6254e-09
1.28553e-08
-2.21449e-10
-1.53822e-10
1.27339e-08
2.49585e-09
3.14417e-09
2.36256e-09
7.34853e-09
3.74998e-09
1.21281e-08
7.00495e-10
-3.13582e-09
8.29606e-09
1.26179e-08
-8.90073e-09
8.12746e-09
-1.93856e-10
2.85873e-11
-2.1684e-10
1.09687e-08
-1.07804e-08
-5.58462e-10
7.58706e-09
-6.99997e-09
-8.74806e-09
3.62618e-09
8.09892e-09
-2.97686e-09
-1.54417e-09
1.18737e-08
-1.90776e-08
-4.64585e-09
1.19034e-08
-3.63131e-09
-7.5603e-09
7.09674e-09
-4.60381e-10
9.23865e-10
-1.52589e-08
6.1544e-09
-8.48551e-09
8.74585e-09
-8.18774e-10
-1.20143e-08
-1.51076e-10
1.19486e-08
1.14489e-08
9.3804e-09
-8.9555e-09
7.53353e-09
-8.11319e-09
-1.77244e-09
-7.02433e-09
1.691e-08
-9.50196e-09
-1.51976e-08
1.45515e-08
4.94999e-10
-7.58962e-09
-8.26733e-09
-2.21689e-09
8.06098e-09
2.42322e-09
-4.66759e-09
-2.76232e-11
-3.57215e-09
5.30933e-09
-4.03314e-09
-5.94378e-09
3.23232e-09
-1.39881e-10
-6.86803e-09
1.0815e-08
-3.97462e-09
-1.116e-09
2.85936e-09
-8.61141e-09
2.25981e-09
-7.40897e-09
3.05125e-09
4.38041e-09
-5.1719e-09
3.60763e-10
-3.11844e-09
5.8089e-09
1.03381e-09
6.84128e-09
2.93989e-09
6.34371e-09
2.75105e-09
-1.08697e-09
4.40714e-09
-8.78875e-11
8.03846e-09
-4.81836e-09
3.4715e-09
-1.78081e-10
9.43932e-09
-2.68959e-10
-7.275e-09
-1.8954e-09
1.20188e-09
-8.11305e-11
8.31856e-09
-7.41717e-09
6.45301e-10
7.97371e-09
-2.66956e-09
2.09362e-09
4.56769e-09
6.18314e-09
-6.61585e-09
1.51421e-10
6.38324e-09
-9.22347e-10
-5.96248e-09
-1.90611e-09
-2.17727e-10
5.43069e-09
4.42789e-09
-4.49422e-09
-1.24024e-08
-2.67953e-09
1.32619e-08
1.82007e-09
3.94802e-09
-1.86109e-09
-1.44895e-08
-1.59856e-08
9.33832e-09
1.26922e-09
5.37798e-09
-1.04331e-08
8.63591e-09
-1.41884e-08
-1.45929e-08
1.21083e-08
-1.95019e-10
1.92806e-09
-1.2573e-08
3.01622e-09
-1.53105e-08
-2.86672e-09
1.74506e-08
-1.26559e-08
1.21237e-08
-1.19743e-08
-2.47403e-11
1.11696e-08
2.11694e-09
8.26587e-09
1.04769e-09
-1.8981e-08
1.19746e-08
8.27559e-09
-5.57434e-09
-4.77082e-09
6.61552e-09
-6.47608e-09
8.12634e-09
-5.93e-09
-1.252e-09
1.37975e-08
1.17948e-08
-5.24537e-09
-8.92743e-10
6.13234e-09
1.08274e-09
4.4158e-09
-1.1613e-08
1.82233e-08
5.18449e-09
1.35214e-08
-7.68384e-09
-1.12661e-08
-9.47535e-09
1.94895e-08
8.03984e-09
1.80638e-08
7.56587e-09
7.69574e-09
-6.27478e-09
5.41628e-09
-9.39362e-09
1.02521e-08
-1.12757e-08
4.83634e-09
1.64552e-10
2.45013e-09
-1.64724e-08
1.4124e-08
-1.01796e-10
1.03363e-08
-1.02778e-08
2.39151e-09
3.35652e-09
-1.05447e-08
1.58448e-08
-8.65669e-09
-6.28727e-09
1.506e-08
-8.56798e-09
-1.00168e-08
1.22974e-08
-3.27354e-10
2.09568e-09
-1.19496e-08
2.22861e-09
1.64723e-09
-9.2519e-09
-3.67102e-09
-7.91097e-09
-2.39144e-09
-4.37712e-09
-2.95967e-09
-9.13566e-09
-4.40242e-09
-1.02525e-08
-3.11999e-09
-9.19346e-09
8.1773e-09
2.64208e-09
-1.39394e-08
1.29609e-09
2.81103e-09
6.16622e-09
-7.24083e-09
8.78629e-09
-9.10397e-09
-1.34626e-08
4.21395e-09
-4.36815e-09
-3.25159e-09
1.37859e-08
-9.04453e-09
-6.37421e-09
3.70775e-09
1.05587e-08
-7.8923e-09
6.5209e-09
1.43091e-09
-1.4326e-08
9.90043e-09
3.28216e-10
1.12808e-08
-1.01454e-08
8.21658e-09
-9.352e-09
-3.67179e-09
1.31129e-08
1.8397e-09
-1.4225e-09
2.87072e-09
1.26443e-08
-1.40925e-08
-1.72016e-08
2.41512e-09
1.3364e-08
3.74777e-09
8.347e-09
-2.19436e-09
1.08202e-08
-1.95346e-08
-1.73953e-09
8.88796e-09
-1.20745e-08
7.23425e-09
1.79532e-08
-1.10185e-10
-7.04378e-09
1.00992e-08
5.29157e-09
1.04696e-08
-6.95466e-09
-5.35973e-09
-1.37223e-09
1.20388e-09
1.13104e-08
1.13089e-08
3.44391e-09
-6.39087e-10
5.16885e-09
2.53609e-09
-3.58007e-09
4.48791e-09
6.08642e-09
-4.33333e-09
-7.13103e-10
-1.04006e-09
6.29265e-09
1.34816e-09
-1.55447e-09
9.19298e-10
-7.87388e-10
6.16071e-09
1.18448e-09
-6.1569e-09
-1.93283e-09
6.86511e-09
4.23902e-10
-5.35615e-09
5.11457e-09
-5.86296e-09
-1.1204e-09
6.2897e-09
1.6958e-09
3.89108e-09
1.0313e-10
-5.9063e-09
7.88254e-12
-1.27061e-09
7.16899e-09
2.8581e-10
9.76155e-11
-4.97994e-09
5.90706e-09
2.59218e-10
1.3532e-09
4.77182e-09
-6.91247e-09
-6.45987e-09
6.54242e-09
-7.37545e-09
1.20139e-09
-4.41546e-09
-2.08825e-09
-3.7184e-10
6.88737e-09
-4.42731e-09
7.15192e-09
-2.10608e-09
-7.13409e-09
-3.42753e-09
8.77721e-09
-5.72155e-09
-6.77979e-09
-3.10532e-09
-2.71631e-10
1.01567e-08
-9.89047e-09
1.75537e-09
1.3553e-09
9.85044e-09
-6.86848e-09
7.37166e-10
-3.71913e-09
-3.96801e-09
1.07131e-08
4.29256e-09
-4.00914e-09
1.28947e-09
-2.32493e-09
1.17449e-08
-1.28475e-08
8.24255e-09
-1.26736e-08
-1.33327e-08
-2.70425e-09
1.20689e-08
-8.05393e-09
-4.5416e-09
7.20399e-09
2.90112e-10
1.2831e-09
6.08842e-09
2.87093e-09
-3.30286e-09
9.11964e-09
9.84602e-09
2.18901e-09
-1.32453e-08
1.60246e-09
8.93852e-09
-1.30567e-08
8.1456e-09
-4.024e-09
1.00581e-08
4.48823e-10
-6.48313e-09
7.57351e-09
-5.16759e-09
-6.43003e-09
4.98282e-09
3.69893e-09
1.37629e-09
-5.93661e-09
4.39271e-09
6.52665e-09
3.65706e-10
1.27112e-09
7.34973e-09
3.05176e-09
-6.7026e-09
1.11458e-08
5.96618e-10
6.29833e-09
-6.78923e-10
-5.10676e-09
-5.12789e-10
-2.33615e-09
1.52606e-09
7.10831e-09
4.43096e-09
-3.35659e-09
3.45792e-10
-1.42021e-09
2.55719e-09
2.23939e-09
-5.18006e-09
5.49174e-09
2.24541e-09
-6.99978e-09
2.08583e-10
1.61106e-09
6.0205e-09
-1.13793e-09
-5.56165e-09
5.13761e-09
-1.4533e-09
-4.23109e-09
-2.63503e-10
-1.5164e-09
6.80328e-09
-6.82958e-09
-6.39239e-09
6.41867e-09
-5.28474e-12
1.29269e-08
-6.11834e-09
-6.12275e-09
-5.64584e-09
1.17633e-08
2.68242e-10
2.47599e-10
-1.00404e-10
-7.881e-09
1.85862e-09
1.85645e-09
8.86253e-10
4.46819e-09
5.60114e-09
4.74949e-09
3.75643e-09
2.16441e-09
7.8294e-09
-9.39386e-09
4.95344e-09
3.10794e-09
-8.28306e-09
1.62652e-09
3.54872e-09
-9.56153e-09
4.94399e-09
7.72545e-09
-5.89325e-09
-3.63156e-09
-3.6794e-11
6.55311e-09
-9.92741e-10
-7.46541e-09
5.73546e-09
1.70733e-08
-7.95597e-09
-1.05563e-08
1.43894e-09
7.01493e-09
2.04205e-08
-1.03621e-08
1.89709e-09
-4.72605e-09
4.45536e-09
1.3856e-08
-3.18255e-09
-8.98682e-13
2.10041e-09
-9.56508e-09
-1.25632e-08
3.51722e-09
4.94935e-09
4.09664e-09
-1.2832e-08
7.8746e-09
-7.09033e-09
5.88145e-09
8.5408e-10
-3.0148e-09
3.29191e-09
-3.90242e-09
3.6253e-09
6.75572e-10
-4.56297e-09
8.72616e-10
5.49956e-09
-5.28027e-09
4.5619e-10
-5.63202e-11
-1.00368e-09
6.55951e-09
1.22958e-08
-4.4697e-09
2.64143e-09
-1.04676e-08
-1.70714e-09
5.18309e-09
8.81985e-09
1.79435e-09
1.41275e-10
2.51066e-09
-4.44644e-09
1.7314e-09
3.83343e-09
-3.77047e-09
4.967e-09
1.39605e-09
-4.29484e-09
-1.66419e-09
-2.53626e-09
2.98752e-11
8.24938e-09
-7.79755e-10
-1.19394e-08
1.26196e-09
4.84642e-09
-5.70893e-09
6.2802e-11
-3.66632e-09
6.24486e-09
-3.58625e-09
1.22457e-09
-1.74565e-10
7.3151e-10
-5.80611e-09
7.63129e-10
-3.6179e-09
-3.37752e-09
4.2034e-09
-8.85615e-09
-9.99118e-09
2.34781e-08
-4.63075e-09
-7.84231e-09
1.21952e-08
-1.3209e-08
-5.10648e-09
7.37768e-10
-1.36866e-08
2.02249e-08
9.40525e-09
-6.15208e-09
1.17672e-08
-3.56695e-09
3.99488e-09
1.73264e-08
1.46656e-08
1.00405e-08
-1.63103e-08
1.20091e-08
-9.02685e-09
7.05818e-09
1.60827e-08
1.58161e-09
2.04362e-09
-2.90866e-09
1.72074e-08
-1.63425e-08
1.22861e-08
5.93163e-09
-1.75519e-09
2.11252e-08
-6.33684e-10
1.38077e-08
-1.77859e-09
1.23095e-08
8.18808e-09
5.78884e-09
1.04884e-08
-5.44427e-09
-1.08329e-08
-1.38208e-09
-5.05252e-09
1.22234e-08
-9.30361e-09
-4.27828e-09
5.10455e-09
8.47724e-09
-7.42487e-09
-3.26079e-09
-2.66648e-09
2.85971e-09
1.02951e-08
9.86868e-09
-4.75827e-09
-1.25353e-08
5.27218e-09
3.18226e-10
-2.84421e-09
5.49168e-09
-8.09186e-09
6.50692e-09
-1.41094e-08
-7.75722e-09
1.30838e-08
1.65065e-10
9.34466e-09
-1.0595e-08
1.59534e-08
1.00859e-08
-1.29555e-08
1.33506e-08
-5.17403e-09
7.77691e-09
-1.56073e-09
-7.00501e-09
3.31379e-09
5.25201e-09
-8.19463e-09
6.27955e-09
3.54384e-10
4.45814e-09
2.96141e-09
1.08037e-08
3.79076e-09
3.79886e-10
8.68324e-10
8.26404e-09
5.35087e-09
-1.01957e-09
-1.25953e-08
-9.52967e-10
8.95183e-09
2.65145e-10
3.55527e-09
8.12664e-09
-6.33104e-09
1.16098e-08
-4.93102e-09
-3.8027e-09
-2.87611e-09
7.10989e-09
-4.34037e-09
8.84024e-09
3.32493e-09
4.9919e-09
3.2233e-09
-1.15402e-08
3.03455e-09
7.40026e-09
-5.50766e-09
5.75608e-09
3.17514e-09
-9.70237e-09
2.52856e-09
-4.63563e-09
7.09882e-09
-2.73746e-09
8.30055e-09
-1.28555e-09
-8.81492e-09
5.46482e-09
-8.23023e-09
3.42217e-09
3.52246e-09
-8.32894e-10
-4.42674e-09
3.72541e-09
6.0097e-09
-7.83302e-10
7.36745e-09
1.26291e-09
1.76413e-09
-4.47158e-09
6.81382e-09
-5.20277e-09
5.88746e-09
2.06982e-09
-9.2468e-09
7.29575e-09
1.57484e-08
-2.17124e-09
1.05069e-09
-9.56223e-10
-7.37923e-09
1.56311e-08
-9.09831e-09
-8.56142e-09
1.67034e-08
-4.36719e-09
-1.31132e-08
8.38198e-09
-8.12487e-09
1.58637e-09
1.26085e-09
-1.23589e-08
3.71874e-09
5.88478e-09
-1.31853e-08
8.00455e-09
-1.03099e-08
-5.81955e-09
1.35153e-09
-6.46017e-09
-1.32976e-08
7.071e-09
1.33091e-09
-1.25115e-08
-1.26449e-10
-1.21932e-08
1.36506e-08
-9.46256e-10
-9.692e-09
1.05117e-08
-1.02085e-08
-1.27357e-09
5.32827e-09
-4.94254e-09
8.01386e-09
-1.13936e-08
-9.12539e-09
-4.46095e-10
-4.46869e-10
4.08344e-09
6.29508e-09
-5.05028e-09
-3.84094e-09
-1.09126e-09
9.01559e-09
-6.71998e-09
-5.66469e-10
6.41538e-09
4.44479e-09
5.89309e-09
6.33087e-10
-6.33548e-09
9.85166e-09
5.8462e-09
1.69111e-09
4.82304e-10
-2.02624e-09
1.26695e-08
3.05288e-09
8.87357e-09
2.9968e-10
9.57991e-09
5.07286e-09
6.96034e-09
6.23861e-10
-1.74411e-09
4.7419e-10
-1.19754e-09
8.32703e-09
-8.65367e-10
1.10839e-09
9.60861e-09
1.61023e-11
6.07887e-09
1.2245e-08
8.39848e-09
2.78163e-09
1.37844e-09
-1.3099e-09
-2.85077e-09
2.10552e-09
-6.49774e-11
-1.31302e-09
-6.78678e-09
4.2198e-09
-4.79761e-10
-2.36185e-09
2.98022e-09
1.22299e-09
-3.84648e-09
-3.39717e-09
-2.00007e-08
1.14497e-08
1.3929e-08
-5.37802e-09
-1.07261e-08
-1.15016e-08
1.3138e-08
9.08971e-09
-9.98902e-10
-1.68496e-08
7.12228e-09
2.59326e-09
-1.44812e-08
-4.72084e-09
1.66088e-08
-1.54955e-08
-1.91194e-09
-1.20252e-08
3.9548e-09
7.07144e-09
1.28677e-08
-1.82452e-08
-1.14722e-08
-1.09419e-09
2.46029e-09
1.43524e-08
-2.27821e-08
4.83317e-09
3.59644e-09
-1.06394e-08
1.55705e-08
9.42123e-09
7.07268e-09
-1.91366e-08
1.41943e-08
-2.13039e-09
-2.41955e-08
8.48595e-09
6.74739e-09
9.33833e-09
-2.30152e-09
-1.37843e-08
3.75918e-09
-1.5257e-08
-7.45183e-09
-1.85528e-10
-1.65581e-08
-2.24392e-08
-4.14919e-09
-4.49501e-09
-1.1186e-08
-1.57903e-08
-3.18602e-09
8.76906e-09
7.51377e-09
2.46072e-09
3.50816e-09
-6.19508e-09
-3.75897e-10
5.71421e-09
4.4032e-09
-9.74151e-09
-2.53524e-09
3.354e-09
1.01754e-09
-1.83633e-09
-7.76804e-09
4.61047e-09
2.78164e-09
3.22734e-09
-4.26614e-09
-6.72925e-09
-5.14649e-10
4.07038e-09
-7.21444e-09
3.65867e-09
3.23952e-09
-6.2894e-09
5.19786e-09
2.13686e-09
-1.01158e-08
2.78116e-09
4.83879e-09
-4.88744e-09
5.24651e-09
1.0601e-08
2.01075e-09
-6.89756e-09
1.14133e-08
3.10745e-09
-3.91973e-09
4.05888e-09
-3.52352e-09
4.30343e-09
-4.80062e-09
1.08702e-08
-4.16838e-09
3.97823e-09
-2.7673e-10
-6.64331e-10
-2.09195e-09
9.6294e-09
-3.46706e-09
6.14214e-09
-4.99458e-09
4.86871e-09
2.38287e-09
-6.35657e-09
-1.32383e-09
-1.18076e-09
-3.26961e-09
-5.3065e-10
-1.23944e-09
1.14367e-09
-3.32196e-09
-5.84698e-09
8.02526e-09
6.5133e-09
-2.59479e-09
-2.77487e-09
-3.69185e-10
5.74245e-09
-8.69528e-09
-7.0788e-09
-5.57278e-09
6.45781e-09
6.19368e-09
-9.12447e-09
2.3732e-09
-3.27597e-10
-6.02514e-09
1.80309e-09
1.00533e-08
-5.83121e-09
9.00571e-10
-4.12426e-10
-4.91239e-09
2.40162e-10
-7.23389e-09
-6.80299e-09
3.77593e-09
-6.73995e-09
-8.65403e-09
1.7376e-09
8.21309e-10
6.09513e-09
1.57735e-09
-4.48894e-09
1.39727e-08
-5.7118e-09
-9.49483e-09
1.42469e-09
1.04433e-08
4.86429e-09
-8.32228e-09
-3.05321e-09
6.89685e-09
-1.94682e-10
-6.82343e-09
1.21179e-10
4.09193e-10
-6.16164e-10
8.87596e-09
-5.27828e-09
5.7265e-09
-9.32406e-09
7.54983e-10
9.02072e-09
-8.99592e-10
5.52995e-09
-4.81873e-09
-9.06039e-10
5.66832e-09
-5.19473e-09
5.05633e-09
4.04511e-10
5.67294e-09
-7.02243e-09
3.73884e-10
6.0323e-09
-6.23384e-09
1.65426e-10
5.23413e-10
-1.20356e-08
-5.15362e-09
7.15187e-09
9.8371e-10
-4.10842e-10
5.97009e-09
-5.25599e-09
-5.53283e-09
3.71328e-10
4.0389e-10
-4.92843e-09
5.70683e-09
-5.60762e-09
-5.79065e-09
6.46983e-09
-5.51936e-09
2.83117e-10
5.1277e-09
-5.74316e-09
-4.90391e-09
3.20711e-10
-1.04757e-08
4.45623e-09
-6.46717e-09
-4.69719e-09
6.70811e-09
-2.38115e-09
1.07139e-08
-6.10083e-09
-9.01348e-09
2.71158e-09
2.43004e-09
3.87184e-09
-3.62516e-09
-7.76947e-09
-4.37433e-09
7.92721e-09
7.16105e-09
-7.84794e-09
-8.74886e-11
6.34799e-09
1.58743e-09
-6.55529e-09
-2.71915e-09
-1.20656e-09
6.43683e-09
-7.74029e-10
-5.41073e-09
2.304e-09
-3.44861e-09
6.91567e-10
-8.61562e-09
6.396e-09
-9.32961e-09
3.28831e-09
-2.50055e-09
5.60823e-09
-1.48513e-09
5.77423e-09
-5.49567e-09
6.48753e-09
-8.95246e-10
4.91491e-09
-1.63955e-08
-9.95451e-09
1.63894e-08
9.96065e-09
-1.10231e-08
-2.54825e-09
-2.82422e-09
3.26839e-09
-4.16233e-10
6.82666e-09
-9.67884e-09
-1.14869e-08
-7.40878e-10
1.54961e-08
-1.01082e-08
-1.35438e-08
1.21651e-08
-1.33605e-08
2.63947e-09
6.12833e-10
7.79628e-09
-6.20144e-09
-2.42043e-09
2.62201e-10
3.97166e-09
-1.0495e-08
6.10712e-09
-1.23237e-08
1.55545e-08
1.44527e-08
-4.87282e-09
-1.00673e-08
1.22621e-09
-4.70271e-09
-1.60793e-08
5.84619e-09
2.94369e-11
-4.3295e-09
-1.23578e-08
4.36357e-09
-7.8383e-09
-2.08789e-10
1.06866e-08
9.77785e-09
3.10028e-09
3.51126e-09
-6.73838e-09
6.02119e-09
-1.09034e-08
-1.64427e-10
-7.54491e-09
-3.58667e-09
5.37411e-09
-4.79156e-09
3.16856e-10
8.5444e-09
4.712e-09
8.44445e-10
-1.41009e-08
-6.55844e-10
7.35496e-09
1.84527e-09
1.0038e-08
5.27584e-09
-1.06018e-08
7.80089e-09
1.5812e-09
8.1905e-09
-8.22687e-09
-9.3868e-09
9.42314e-09
8.00746e-09
2.38204e-10
-5.51975e-11
4.74893e-09
-1.21314e-08
1.15858e-08
2.5005e-10
-6.56e-09
9.32897e-09
1.00577e-08
3.38929e-09
1.03985e-08
-5.78038e-09
7.41499e-09
1.78147e-10
1.0557e-08
-5.55808e-09
-1.34303e-09
1.21473e-08
4.67016e-09
4.0179e-09
1.86892e-09
1.26561e-08
-7.0402e-09
6.16172e-09
1.3618e-09
-4.83329e-10
1.35832e-09
5.27946e-09
-1.3678e-08
7.47951e-10
6.60905e-09
-1.19536e-09
7.2828e-09
-6.43847e-09
-9.6441e-11
-6.60271e-09
3.21984e-09
9.99192e-09
-5.16092e-11
7.3165e-10
-7.26158e-10
8.16437e-09
-1.75323e-09
-5.68508e-09
1.08931e-08
-8.17637e-09
-3.44292e-09
6.02478e-09
-1.15994e-08
6.93295e-09
-8.48706e-09
1.95484e-09
1.46966e-08
7.71495e-09
-5.30894e-09
4.69644e-09
-5.85546e-09
-4.47164e-09
9.64629e-09
-4.81101e-09
2.8772e-10
6.04516e-09
-8.19677e-09
8.94008e-10
5.99606e-09
8.24878e-10
-2.46131e-09
1.22641e-08
4.89383e-09
-4.9886e-10
3.84257e-10
2.37348e-10
-4.34022e-09
-1.44808e-08
1.75801e-08
1.24096e-09
1.36644e-08
-1.37127e-08
-4.29189e-09
-1.40494e-08
-1.32858e-08
4.88501e-09
2.24501e-08
-3.56417e-09
-8.60228e-09
-1.88292e-09
-9.54503e-09
-7.30493e-09
-1.51719e-08
-7.63285e-09
7.77897e-09
1.50257e-08
-3.26078e-10
-1.18139e-09
4.10225e-09
6.51784e-10
-1.84668e-08
3.53997e-09
-1.39185e-08
3.77185e-09
6.17535e-09
-6.80178e-09
1.94658e-08
-9.2391e-09
-6.32018e-10
-1.39794e-08
8.92805e-09
8.82319e-09
-5.73351e-10
-9.86608e-09
1.39213e-09
-1.08859e-08
8.91476e-10
3.5184e-09
2.56971e-09
-1.1157e-08
-8.88953e-09
1.46682e-08
-1.28078e-09
-3.21725e-09
-1.01702e-08
2.89103e-09
4.86423e-09
6.91292e-09
-4.71304e-09
4.78035e-09
-7.3311e-09
7.2638e-09
-6.03759e-10
-1.51732e-08
1.10639e-08
-1.37876e-08
1.03099e-08
6.36879e-09
-1.02881e-08
-8.33369e-09
-5.83911e-09
4.34575e-09
9.82704e-09
-4.5962e-09
-4.41074e-09
6.7325e-10
-8.34768e-09
8.04726e-09
9.38226e-09
-9.08185e-09
-4.08976e-09
-4.3417e-09
8.37732e-11
6.70466e-09
1.52898e-09
8.37617e-09
-1.66098e-08
6.92681e-09
2.13135e-08
-2.15357e-08
-3.97583e-09
3.88504e-09
4.25338e-09
-4.16259e-09
1.03539e-08
-1.49335e-08
-9.61968e-09
1.02875e-08
5.07916e-09
1.04244e-08
-5.14961e-09
9.04378e-09
2.8875e-10
9.79841e-09
-3.97026e-09
5.48829e-09
5.43276e-10
-1.77805e-09
1.41711e-08
1.54587e-08
7.03154e-09
-5.97521e-09
7.75588e-09
-8.81225e-09
5.76151e-10
6.30447e-09
1.50894e-10
5.50772e-09
-6.69451e-09
9.24832e-09
-8.06156e-09
6.1415e-09
-5.76436e-11
1.12987e-09
9.20782e-09
-7.00559e-11
-1.3819e-09
8.3782e-09
7.74234e-09
9.0765e-09
9.56237e-09
-1.89011e-09
3.48945e-09
-6.6007e-09
-7.54043e-09
-1.81767e-09
-3.52487e-09
-8.22497e-09
6.02827e-09
-8.65976e-09
7.07573e-10
-1.04031e-08
7.88487e-09
1.95678e-09
-3.11159e-09
5.37044e-09
-3.83437e-09
-8.97748e-10
4.0018e-09
-3.45473e-09
-1.28447e-10
-7.45428e-09
-4.76257e-10
6.45387e-10
7.28522e-09
3.62518e-09
-7.44992e-09
-3.62946e-09
1.46917e-10
4.98347e-09
1.67139e-10
1.8025e-10
-3.88881e-09
-1.03055e-08
-9.07489e-11
1.10418e-08
1.06449e-09
-7.74481e-09
-6.59424e-09
-2.83179e-11
-4.55994e-10
-7.71789e-09
6.24558e-09
1.92834e-09
-6.06082e-09
4.51074e-09
1.09412e-09
5.76663e-10
-6.45724e-09
-7.78255e-09
6.41351e-10
-2.19218e-10
6.37408e-09
8.55107e-09
3.02517e-08
-2.75574e-08
-1.12453e-08
-2.02599e-08
2.99554e-08
-1.14449e-09
-5.89437e-10
2.38935e-10
3.06021e-08
2.7025e-09
-6.12745e-09
-1.68351e-08
-6.55093e-09
-1.83041e-08
-6.31538e-09
1.83137e-08
-1.81258e-08
1.43496e-08
4.59072e-09
-2.52557e-08
-2.30297e-08
1.89909e-08
5.94266e-09
-1.90389e-09
1.6627e-08
-2.53072e-08
-2.45365e-08
1.818e-09
2.2129e-08
2.7059e-09
1.99525e-08
7.29699e-09
1.54092e-08
1.19929e-08
-1.07751e-08
2.86945e-08
5.70555e-09
1.5628e-08
-1.75883e-08
2.15958e-08
2.66046e-09