/*--------------------------------*- C++ -*----------------------------------*\
| =========                 |                                                 |
| \\      /  F ield         | OpenFOAM: The Open Source CFD Toolbox           |
|  \\    /   O peration     | Version:  v1612+                                |
|   \\  /    A nd           | Web:      www.OpenFOAM.com                      |
|    \\/     M anipulation  |                                                 |
\*---------------------------------------------------------------------------*/
FoamFile
{
    version     2.0;
    format      ascii;
    class       volScalarField;
    location    "100";
    object      p;
}
// * * * * * * * * * * * * * * * * * * * * * * * * * * * * * * * * * * * * * //

dimensions      [0 2 -2 0 0 0 0];

internalField   nonuniform List<scalar> 
17140
(
3.29971
3.33699
3.29883
3.35088
3.33155
3.3393
3.34301
3.34972
3.34938
3.34336
3.33717
3.3444
3.34658
3.34421
3.34976
3.34615
3.34646
3.34388
3.33996
3.34542
3.34225
3.34521
3.35066
3.32116
3.32152
3.31759
3.31568
3.32262
3.32357
3.31917
3.31594
3.32077
3.31475
3.31591
3.31445
3.31646
3.31679
3.31806
3.32093
3.31532
3.31722
3.30716
3.29941
3.29951
3.29493
3.30192
3.30108
3.30182
3.29899
3.30329
3.30014
3.30313
3.2995
3.30277
3.37274
3.36791
3.36584
3.36542
3.37352
3.36954
3.36974
3.3654
3.37004
3.36743
3.36903
3.3687
3.36579
3.31154
3.30453
3.30126
3.3062
3.30612
3.30826
3.31074
3.31235
3.30975
3.31329
3.31
3.30832
3.30426
3.30787
3.31302
3.30934
3.35494
3.35935
3.36103
3.36142
3.36065
3.35241
3.36467
3.3585
3.35937
3.36229
3.3597
3.3577
3.35613
3.35705
3.35899
3.36209
3.35674
3.36052
3.31454
3.31872
3.32004
3.31819
3.31997
3.32032
3.31846
3.31598
3.31767
3.32036
3.31529
3.31897
3.32245
3.32016
3.3312
3.32941
3.33639
3.33482
3.33668
3.33457
3.32762
3.32656
3.33984
3.34078
3.32955
3.33128
3.33027
3.33618
3.33448
3.33482
3.32894
3.3285
3.33085
3.33407
3.33315
3.32343
3.32682
3.3267
3.32759
3.32333
3.32458
3.3242
3.33284
3.33024
3.32714
3.32264
3.32395
3.32478
3.32814
3.32663
3.32479
3.32988
3.32887
3.32944
3.32948
3.36582
3.36586
3.36265
3.35986
3.36913
3.36139
3.35835
3.3629
3.36236
3.36655
3.36729
3.36741
3.35948
3.35696
3.35742
3.3609
3.36184
3.35885
3.36397
3.35813
3.3585
3.36082
3.36277
3.3573
3.35816
3.35767
3.35934
3.36544
3.36141
3.36132
3.36134
3.3527
3.35385
3.35066
3.35366
3.34807
3.34954
3.35203
3.35349
3.35664
3.35013
3.34821
3.3492
3.3449
3.35549
3.34132
3.35386
3.34407
3.3552
3.34798
3.34999
3.35761
3.34947
3.35149
3.35346
3.35473
3.34359
3.34172
3.34825
3.34416
3.35115
3.35758
3.35537
3.35125
3.34549
3.34494
3.35553
3.35906
3.34999
3.34644
3.35248
3.34592
3.34718
3.35221
3.33356
3.33309
3.33828
3.33894
3.34132
3.33937
3.34082
3.34427
3.33821
3.34564
3.3344
3.33934
3.33912
3.34431
3.3382
3.34493
3.34367
3.34576
3.34142
3.3462
3.34259
3.34596
3.34218
3.33955
3.35039
3.33722
3.34133
3.33584
3.34514
3.34382
3.33997
3.36277
3.3632
3.36317
3.36347
3.36835
3.3674
3.31202
3.3115
3.31102
3.31228
3.31328
3.31442
3.31864
3.31287
3.31454
3.31655
3.31292
3.31434
3.3145
3.348
3.35154
3.34776
3.34748
3.34713
3.34509
3.35353
3.35654
3.35063
3.35118
3.35146
3.34724
3.34643
3.34902
3.3484
3.34605
3.31436
3.3179
3.32158
3.30887
3.31791
3.31609
3.31605
3.31111
3.31987
3.31548
3.31751
3.31321
3.31481
3.31167
3.31528
3.31535
3.31922
3.31253
3.31007
3.31344
3.30857
3.3161
3.31511
3.31415
3.33785
3.33077
3.33007
3.32968
3.33188
3.33166
3.32639
3.32972
3.32616
3.32942
3.33279
3.32608
3.32426
3.33468
3.32976
3.33006
3.33215
3.33129
3.32955
3.32974
3.36753
3.36607
3.37149
3.3694
3.36794
3.36992
3.36881
3.36082
3.36212
3.35984
3.3578
3.3599
3.3644
3.35923
3.36087
3.36349
3.35602
3.35966
3.35596
3.35721
3.30816
3.30911
3.31714
3.31754
3.30869
3.31033
3.32617
3.31289
3.31212
3.31238
3.33203
3.33337
3.32509
3.33012
3.32309
3.32987
3.33435
3.33442
3.32824
3.32772
3.32623
3.32392
3.32564
3.32521
3.32612
3.327
3.31438
3.33515
3.33577
3.33637
3.33472
3.33459
3.33695
3.33644
3.33568
3.33303
3.32961
3.33207
3.33111
3.33607
3.33672
3.33415
3.33616
3.33627
3.33938
3.33357
3.33816
3.33991
3.33857
3.33817
3.33937
3.33247
3.33897
3.33708
3.34009
3.33977
3.33972
3.34284
3.33848
3.34486
3.33813
3.33978
3.33787
3.34264
3.34293
3.33788
3.34154
3.33913
3.34577
3.34299
3.34214
3.33873
3.33316
3.33613
3.33682
3.33719
3.33227
3.33348
3.33848
3.33666
3.33716
3.33663
3.33009
3.33616
3.33506
3.32939
3.33716
3.33699
3.34142
3.33472
3.33264
3.33685
3.32615
3.32519
3.3247
3.33375
3.3397
3.32939
3.33215
3.3322
3.3304
3.33021
3.32828
3.32962
3.32822
3.32826
3.33104
3.33018
3.32899
3.32617
3.33855
3.33763
3.33794
3.33934
3.33805
3.33978
3.34328
3.33545
3.33557
3.34143
3.34588
3.34052
3.33952
3.33817
3.3491
3.34479
3.33861
3.34379
3.34239
3.36885
3.36741
3.36358
3.36815
3.35502
3.37039
3.36938
3.37442
3.36487
3.36426
3.30552
3.3115
3.30646
3.31144
3.30765
3.30881
3.3139
3.31441
3.31442
3.31671
3.31019
3.31526
3.30695
3.31152
3.31649
3.31208
3.30806
3.31411
3.3153
3.3081
3.30636
3.31029
3.30895
3.31077
3.30634
3.30856
3.31039
3.30338
3.30167
3.30838
3.31146
3.30164
3.30772
3.30806
3.30595
3.30585
3.35218
3.35208
3.35674
3.36138
3.35971
3.35694
3.35254
3.35178
3.35075
3.35626
3.35044
3.35452
3.30422
3.30526
3.30495
3.30494
3.30524
3.30497
3.30114
3.30613
3.30594
3.30547
3.30069
3.30542
3.30455
3.30951
3.30599
3.30837
3.3025
3.30197
3.30395
3.3051
3.29551
3.30032
3.3484
3.3463
3.34589
3.34587
3.3417
3.34943
3.34675
3.3487
3.33521
3.34548
3.34115
3.34235
3.34384
3.34807
3.34211
3.33906
3.34272
3.34301
3.34298
3.35352
3.33777
3.32822
3.33109
3.32888
3.32975
3.32628
3.32952
3.32814
3.3294
3.33421
3.32943
3.33186
3.33498
3.33254
3.32942
3.32981
3.33439
3.33406
3.32416
3.33108
3.35883
3.36256
3.35736
3.35623
3.36129
3.36151
3.35865
3.35616
3.35833
3.36028
3.36705
3.36191
3.35672
3.35304
3.35837
3.35745
3.35503
3.35899
3.36296
3.33994
3.33748
3.33822
3.33563
3.34566
3.34284
3.34129
3.33891
3.34475
3.33935
3.34135
3.34413
3.33768
3.34509
3.33871
3.34314
3.34261
3.33956
3.31603
3.31379
3.31706
3.31646
3.31381
3.31266
3.31519
3.31754
3.31338
3.31359
3.31303
3.31515
3.31876
3.31249
3.31834
3.30983
3.31037
3.31768
3.31571
3.31614
3.36324
3.36429
3.36555
3.36174
3.35697
3.36039
3.36011
3.36002
3.36262
3.36291
3.36852
3.35929
3.32453
3.32505
3.32246
3.32262
3.32424
3.31887
3.32176
3.31818
3.31888
3.32269
3.32207
3.32149
3.31861
3.31968
3.32148
3.32199
3.32017
3.31868
3.37061
3.36699
3.36832
3.36885
3.36644
3.36969
3.37556
3.37256
3.36056
3.37198
3.3719
3.37014
3.36888
3.36952
3.36783
3.37043
3.32985
3.33611
3.33221
3.33631
3.3332
3.32516
3.33752
3.33745
3.32989
3.34935
3.34901
3.35055
3.35443
3.34894
3.35073
3.3416
3.34452
3.34546
3.34135
3.34677
3.34334
3.34654
3.34806
3.33937
3.34017
3.34364
3.3506
3.3215
3.31898
3.32038
3.31862
3.31876
3.32415
3.32405
3.31349
3.31641
3.3126
3.32003
3.31731
3.32248
3.31075
3.31499
3.31352
3.31023
3.36101
3.36452
3.35922
3.36124
3.3641
3.36386
3.36561
3.36636
3.37055
3.36721
3.36523
3.36165
3.36901
3.36811
3.36236
3.36234
3.36252
3.36299
3.36232
3.36571
3.35533
3.36046
3.3663
3.36342
3.36071
3.36062
3.36399
3.36611
3.36603
3.36234
3.35884
3.35733
3.36042
3.36474
3.36607
3.36735
3.35806
3.36453
3.36049
3.36044
3.36509
3.36234
3.36251
3.36811
3.35986
3.36262
3.36134
3.35869
3.3599
3.36011
3.35919
3.359
3.35693
3.36069
3.35942
3.35983
3.35925
3.35974
3.32834
3.32941
3.33167
3.32855
3.33126
3.32883
3.33292
3.33015
3.33251
3.33178
3.33299
3.32721
3.3351
3.33734
3.33037
3.32542
3.3324
3.33033
3.34415
3.34412
3.33869
3.34561
3.34602
3.34179
3.34218
3.34576
3.3468
3.34495
3.34211
3.3305
3.32906
3.32913
3.32324
3.3222
3.33157
3.33133
3.33184
3.32869
3.33219
3.33187
3.32915
3.32977
3.32538
3.30414
3.30393
3.30014
3.29787
3.30258
3.30634
3.30165
3.29937
3.29681
3.30102
3.29805
3.30208
3.30117
3.2992
3.29655
3.30045
3.30311
3.30133
3.30382
3.30757
3.30907
3.31108
3.30564
3.30747
3.30985
3.30733
3.3128
3.31265
3.30664
3.30856
3.30766
3.30834
3.31001
3.31315
3.30921
3.30884
3.32488
3.31843
3.30922
3.31735
3.32028
3.32144
3.31628
3.32397
3.31686
3.31507
3.31803
3.31674
3.31743
3.32519
3.31786
3.32754
3.32481
3.32146
3.31483
3.31225
3.32337
3.32398
3.32995
3.32365
3.36639
3.35763
3.35808
3.35781
3.35916
3.35892
3.36497
3.36202
3.35707
3.3517
3.35979
3.36771
3.36228
3.3577
3.35346
3.3556
3.35686
3.35807
3.3266
3.32973
3.3225
3.32283
3.32349
3.32484
3.32367
3.32753
3.33034
3.32296
3.32988
3.33257
3.32977
3.33495
3.33
3.30821
3.31319
3.30966
3.31249
3.30147
3.30473
3.31021
3.30691
3.31294
3.3107
3.31661
3.31492
3.30548
3.31447
3.31271
3.31522
3.31399
3.31345
3.36003
3.36131
3.36307
3.35634
3.35854
3.35786
3.3577
3.34942
3.36135
3.36372
3.3588
3.35338
3.35438
3.36205
3.36171
3.3584
3.35842
3.35883
3.3488
3.35433
3.35801
3.35835
3.35059
3.35535
3.35596
3.36053
3.36184
3.35979
3.35605
3.35717
3.35744
3.35567
3.35926
3.36205
3.36052
3.35641
3.35673
3.35668
3.35393
3.35448
3.3581
3.316
3.32225
3.32361
3.31639
3.31564
3.31526
3.36448
3.36383
3.3406
3.34543
3.34484
3.338
3.31976
3.32658
3.32474
3.32036
3.34611
3.34497
3.36568
3.36979
3.3585
3.36955
3.30441
3.30477
3.30232
3.3086
3.33324
3.32591
3.32905
3.31065
3.31298
3.34681
3.35076
3.34576
3.36143
3.35862
3.30499
3.30656
3.30956
3.35127
3.35458
3.32915
3.33557
3.33255
3.33132
3.34188
3.34737
3.3433
3.34972
3.35536
3.35595
3.34812
3.31955
3.32455
3.36353
3.36222
3.34342
3.34565
3.34941
3.36012
3.36006
3.36137
3.3568
3.35578
3.36003
3.36388
3.36794
3.33824
3.33797
3.34398
3.3347
3.34539
3.34571
3.33792
3.29471
3.30003
3.35969
3.35865
3.36486
3.36336
3.32853
3.32709
3.34566
3.34781
3.34666
3.34086
3.33964
3.32869
3.32945
3.3331
3.33409
3.34032
3.33635
3.33527
3.33486
3.34875
3.34434
3.34836
3.34459
3.30676
3.31287
3.33771
3.33231
3.32916
3.31742
3.31352
3.31598
3.31357
3.32198
3.32912
3.33011
3.32923
3.32777
3.32478
3.32963
3.35351
3.34833
3.34741
3.35052
3.35299
3.31587
3.31404
3.34213
3.33997
3.35574
3.35938
3.3529
3.35691
3.30081
3.29798
3.36461
3.37058
3.36944
3.36499
3.36245
3.36245
3.36381
3.32212
3.31747
3.3229
3.319
3.32499
3.3309
3.32441
3.32838
3.33424
3.33365
3.30187
3.29987
3.35563
3.35281
3.35834
3.30671
3.30676
3.31298
3.30628
3.31487
3.3071
3.30726
3.30353
3.30662
3.31373
3.31191
3.31932
3.31774
3.30819
3.35646
3.35358
3.35854
3.35131
3.35286
3.35882
3.35795
3.35807
3.35331
3.36432
3.35023
3.35896
3.35262
3.3501
3.35444
3.34925
3.35833
3.35964
3.36426
3.35357
3.35747
3.35862
3.35636
3.35899
3.35605
3.35697
3.35663
3.35212
3.34765
3.35804
3.35332
3.354
3.35366
3.3543
3.30709
3.298
3.30246
3.30382
3.30743
3.29931
3.30575
3.30289
3.30454
3.30165
3.30398
3.31244
3.30342
3.30228
3.3036
3.30328
3.3042
3.30304
3.32597
3.32908
3.33383
3.33668
3.33149
3.33252
3.34242
3.33806
3.33364
3.33346
3.33574
3.33505
3.33522
3.33071
3.33589
3.33147
3.33879
3.32999
3.33778
3.33519
3.33521
3.33187
3.33406
3.33149
3.3274
3.32328
3.33226
3.32808
3.32792
3.32276
3.32667
3.32434
3.33114
3.32517
3.32723
3.32845
3.32664
3.32705
3.32309
3.33312
3.33125
3.32597
3.32846
3.31461
3.31732
3.31415
3.3138
3.31714
3.31306
3.31254
3.31555
3.31765
3.31826
3.31471
3.32282
3.31922
3.35756
3.3661
3.36309
3.36114
3.36824
3.36573
3.3609
3.366
3.36215
3.36481
3.36266
3.36487
3.35732
3.36027
3.36111
3.3639
3.36145
3.36067
3.3616
3.36115
3.35852
3.35902
3.35536
3.3661
3.36415
3.36416
3.36781
3.37215
3.37291
3.37043
3.3619
3.36663
3.3644
3.36267
3.36338
3.36792
3.36612
3.36787
3.36429
3.36707
3.37166
3.36656
3.36822
3.36699
3.36673
3.36405
3.36348
3.30328
3.30104
3.29652
3.30034
3.29984
3.30539
3.29586
3.30324
3.3017
3.29808
3.30116
3.35671
3.35941
3.35431
3.34972
3.35567
3.3546
3.35072
3.35721
3.35738
3.35677
3.35956
3.36622
3.35974
3.35862
3.34559
3.34465
3.34219
3.33654
3.34127
3.34065
3.34766
3.33681
3.33349
3.3375
3.33798
3.33561
3.3367
3.33553
3.33505
3.31803
3.31327
3.3192
3.31942
3.32383
3.32346
3.32106
3.32022
3.31819
3.31768
3.31735
3.32267
3.35572
3.35118
3.35419
3.35409
3.35213
3.34836
3.34998
3.34265
3.34811
3.34172
3.34724
3.34371
3.35363
3.35004
3.35007
3.34943
3.34315
3.34862
3.34237
3.34642
3.34758
3.34694
3.34666
3.35008
3.34679
3.35732
3.35329
3.35274
3.3493
3.351
3.35857
3.35472
3.35677
3.36364
3.36909
3.36803
3.37422
3.37629
3.37162
3.37329
3.36672
3.36902
3.36599
3.36606
3.37406
3.36985
3.37081
3.33396
3.32656
3.32551
3.32835
3.33143
3.33168
3.33162
3.31973
3.3199
3.32557
3.32489
3.32213
3.32726
3.32936
3.31976
3.32331
3.32185
3.3206
3.32526
3.33667
3.32936
3.33512
3.33024
3.322
3.32317
3.32553
3.32552
3.32556
3.33785
3.33415
3.32821
3.32823
3.32833
3.33138
3.30767
3.3049
3.31193
3.31582
3.31241
3.30886
3.31217
3.30907
3.313
3.31031
3.31168
3.3182
3.31683
3.31273
3.32158
3.31906
3.31852
3.3242
3.31815
3.31348
3.32485
3.33123
3.33069
3.33994
3.3321
3.33056
3.32931
3.34013
3.33486
3.33509
3.33448
3.33188
3.33801
3.33587
3.33537
3.31247
3.3082
3.31093
3.31347
3.31364
3.30979
3.31163
3.31072
3.30334
3.31681
3.34505
3.34245
3.34659
3.34845
3.34291
3.35015
3.3499
3.34703
3.3481
3.33828
3.34457
3.33976
3.34456
3.34062
3.34608
3.35266
3.34795
3.34451
3.35197
3.34765
3.33554
3.33628
3.33915
3.32962
3.32752
3.32788
3.33517
3.33446
3.33642
3.32533
3.33243
3.33059
3.3269
3.33256
3.33206
3.33534
3.3355
3.33021
3.3285
3.33146
3.33181
3.33438
3.3338
3.32852
3.33587
3.3334
3.33606
3.33444
3.3369
3.33375
3.33528
3.33819
3.34464
3.33784
3.33823
3.33382
3.34481
3.34184
3.33963
3.3371
3.33896
3.34138
3.33597
3.33509
3.33463
3.33414
3.34042
3.33828
3.33977
3.33631
3.3307
3.32774
3.32836
3.33184
3.32992
3.331
3.33066
3.32777
3.3278
3.3259
3.33538
3.33312
3.32866
3.32124
3.32634
3.3254
3.32384
3.33299
3.32741
3.32699
3.32709
3.32526
3.32898
3.32754
3.33754
3.3366
3.33958
3.33958
3.33626
3.33905
3.34064
3.33603
3.33457
3.3363
3.33852
3.34105
3.34621
3.33912
3.33742
3.33767
3.34006
3.34293
3.35189
3.34935
3.34886
3.34697
3.34481
3.34444
3.3403
3.35034
3.3477
3.34952
3.3391
3.34408
3.34862
3.3445
3.34559
3.34802
3.35443
3.352
3.34906
3.34788
3.35115
3.35044
3.34249
3.33614
3.34538
3.34292
3.33609
3.33658
3.33981
3.33532
3.34108
3.34496
3.34189
3.34726
3.34042
3.34234
3.34532
3.33567
3.33941
3.34
3.32177
3.31733
3.32472
3.32946
3.32612
3.32971
3.32674
3.32552
3.32795
3.3317
3.33027
3.32758
3.32432
3.32187
3.32972
3.33059
3.32802
3.32066
3.33121
3.3304
3.33647
3.33048
3.32469
3.32959
3.33045
3.33148
3.32973
3.36877
3.37127
3.36704
3.36589
3.36336
3.36733
3.36243
3.36495
3.36103
3.36047
3.36148
3.36461
3.3602
3.36193
3.36291
3.3591
3.36032
3.36711
3.36746
3.3715
3.36875
3.36254
3.36392
3.36602
3.36557
3.35275
3.35393
3.3491
3.34943
3.35753
3.35776
3.36253
3.3547
3.35224
3.35061
3.35049
3.35545
3.3572
3.30573
3.30394
3.30403
3.3049
3.3013
3.29459
3.29958
3.30085
3.29768
3.30353
3.30162
3.2985
3.30154
3.29994
3.29764
3.29676
3.3001
3.29653
3.34928
3.34249
3.34101
3.34561
3.34092
3.34183
3.34434
3.34779
3.34444
3.33554
3.33892
3.3369
3.33529
3.33258
3.34144
3.33604
3.33789
3.33676
3.34155
3.33773
3.30493
3.30383
3.30874
3.3068
3.30646
3.30454
3.30512
3.33798
3.33724
3.34496
3.34163
3.34762
3.34102
3.3423
3.3381
3.3321
3.33756
3.33682
3.33591
3.33682
3.34669
3.34008
3.34068
3.33859
3.33578
3.34232
3.34053
3.36664
3.36223
3.35841
3.35966
3.35998
3.36073
3.35957
3.36647
3.37153
3.36297
3.36427
3.36385
3.36527
3.36079
3.36178
3.36029
3.29663
3.30475
3.29828
3.30018
3.30125
3.36078
3.35783
3.35435
3.35799
3.35562
3.35462
3.35893
3.36357
3.35689
3.35699
3.36433
3.35809
3.35928
3.35633
3.36386
3.35913
3.36233
3.36095
3.35538
3.36094
3.35704
3.36071
3.35812
3.35501
3.36064
3.35581
3.35996
3.36298
3.36509
3.36112
3.36881
3.36521
3.35832
3.36216
3.35397
3.36247
3.36653
3.35321
3.35384
3.36227
3.35939
3.34465
3.3444
3.34854
3.35537
3.35172
3.34694
3.34917
3.34803
3.35687
3.35237
3.34861
3.36708
3.36365
3.36815
3.30391
3.2995
3.31306
3.32201
3.32503
3.32117
3.32002
3.32358
3.32148
3.31821
3.32202
3.31694
3.3196
3.31827
3.31783
3.31919
3.34998
3.35513
3.35013
3.35231
3.35011
3.35014
3.34299
3.34358
3.34897
3.3478
3.3478
3.35503
3.34798
3.35147
3.35127
3.34928
3.34744
3.34286
3.33976
3.33719
3.33636
3.33697
3.34059
3.34184
3.33756
3.34455
3.34181
3.34505
3.3466
3.34563
3.34577
3.34978
3.34169
3.33533
3.34261
3.3354
3.34561
3.344
3.34127
3.33987
3.34361
3.34156
3.33687
3.33622
3.34666
3.3437
3.34247
3.34547
3.33456
3.33082
3.33187
3.333
3.32726
3.32947
3.32796
3.32075
3.32833
3.34
3.33666
3.33976
3.33713
3.32952
3.33142
3.33364
3.32911
3.32794
3.33267
3.33123
3.35943
3.35386
3.36085
3.35914
3.35884
3.35023
3.35604
3.35583
3.36274
3.35569
3.35552
3.34984
3.35385
3.34935
3.35355
3.35078
3.35609
3.35385
3.35818
3.34915
3.3506
3.34849
3.35496
3.35297
3.35519
3.35463
3.35259
3.35055
3.35327
3.35081
3.34358
3.31203
3.30674
3.30668
3.30937
3.3089
3.31261
3.3043
3.30691
3.30517
3.29628
3.30702
3.30412
3.29983
3.29943
3.29999
3.30098
3.30855
3.30369
3.30482
3.31109
3.30606
3.29972
3.29888
3.30997
3.30944
3.35773
3.35806
3.36111
3.36267
3.35956
3.36736
3.36362
3.3592
3.35904
3.35822
3.35281
3.34938
3.35432
3.35631
3.35312
3.36013
3.35473
3.35414
3.35536
3.35641
3.35653
3.35789
3.35801
3.35733
3.36046
3.35852
3.35859
3.35773
3.35168
3.35249
3.35617
3.34855
3.35356
3.35413
3.35271
3.34878
3.34855
3.34652
3.33968
3.35103
3.34179
3.35244
3.35474
3.35033
3.35298
3.3472
3.34689
3.34795
3.35146
3.35076
3.35628
3.35486
3.34623
3.34736
3.34771
3.35043
3.3508
3.34591
3.31472
3.30867
3.3111
3.3074
3.31275
3.31029
3.30902
3.31029
3.31246
3.31717
3.31301
3.31392
3.31273
3.31238
3.31019
3.30941
3.30601
3.30548
3.3121
3.30517
3.31409
3.31465
3.31652
3.30938
3.31141
3.32171
3.32914
3.32297
3.32821
3.32392
3.32936
3.32429
3.32203
3.33185
3.32706
3.32915
3.3283
3.32281
3.32264
3.33164
3.32636
3.32787
3.32568
3.3311
3.336
3.33364
3.32646
3.3269
3.32484
3.33147
3.32789
3.32747
3.3294
3.32638
3.33469
3.31218
3.30679
3.30514
3.30612
3.30316
3.30073
3.31151
3.3072
3.30837
3.30006
3.29616
3.29893
3.29946
3.30526
3.30125
3.29939
3.30123
3.29994
3.30389
3.30332
3.29666
3.30533
3.30521
3.30218
3.36669
3.36483
3.36661
3.36191
3.36492
3.3607
3.36069
3.36419
3.368
3.3526
3.34988
3.34747
3.34346
3.35587
3.35097
3.35372
3.3469
3.34907
3.34592
3.34838
3.34137
3.34119
3.34062
3.335
3.34011
3.34378
3.34538
3.34367
3.34359
3.34214
3.3437
3.34443
3.31649
3.3145
3.32099
3.31749
3.32677
3.32424
3.32176
3.32806
3.32608
3.33264
3.32183
3.32768
3.32282
3.32632
3.32712
3.32233
3.3235
3.31851
3.31669
3.31312
3.31735
3.31582
3.31278
3.3365
3.3389
3.34387
3.33902
3.36355
3.35727
3.35682
3.35718
3.35587
3.35946
3.36313
3.36319
3.36721
3.29211
3.29745
3.29545
3.31615
3.32277
3.32073
3.31496
3.32176
3.32304
3.32256
3.31532
3.31657
3.3135
3.31612
3.31431
3.32115
3.32526
3.31942
3.31708
3.31569
3.31718
3.30689
3.30659
3.30636
3.31597
3.31482
3.3147
3.31897
3.31876
3.31632
3.31537
3.3137
3.31035
3.31785
3.31483
3.31358
3.31522
3.31519
3.32059
3.32677
3.31903
3.31767
3.32618
3.32254
3.31403
3.31823
3.31506
3.31019
3.30826
3.31661
3.31208
3.31383
3.31992
3.32217
3.31502
3.31727
3.31781
3.31957
3.31892
3.31209
3.30473
3.30632
3.31579
3.31264
3.31136
3.31247
3.31181
3.30753
3.30666
3.30835
3.31576
3.31179
3.31405
3.3138
3.30898
3.30456
3.32524
3.32929
3.3247
3.31783
3.319
3.31759
3.31948
3.32423
3.32162
3.31998
3.35462
3.36039
3.35834
3.3408
3.33982
3.34549
3.34164
3.33743
3.3366
3.31247
3.31708
3.31698
3.31502
3.31765
3.31475
3.32008
3.31803
3.3274
3.32537
3.33043
3.33036
3.32579
3.32354
3.32919
3.32743
3.31653
3.31495
3.31742
3.32417
3.31941
3.3222
3.31801
3.31752
3.31705
3.32075
3.31937
3.31807
3.31519
3.3181
3.31704
3.32002
3.31553
3.31273
3.32115
3.31847
3.32343
3.31953
3.29941
3.2965
3.29705
3.30035
3.31158
3.31027
3.3114
3.30875
3.3057
3.31229
3.31457
3.31694
3.32005
3.31375
3.31794
3.31241
3.31521
3.31384
3.31824
3.31501
3.31621
3.3234
3.32327
3.30848
3.30834
3.30884
3.31235
3.30735
3.30942
3.30487
3.30965
3.30287
3.30788
3.31131
3.30802
3.30133
3.30372
3.34465
3.34087
3.33994
3.34344
3.34179
3.34739
3.34044
3.34149
3.35171
3.35993
3.36341
3.35779
3.35291
3.35724
3.31102
3.30621
3.30143
3.30624
3.31084
3.30341
3.3041
3.30705
3.30899
3.30272
3.30872
3.30532
3.31519
3.31236
3.30937
3.30445
3.30056
3.29986
3.3096
3.30856
3.30787
3.30549
3.30497
3.30226
3.30684
3.30466
3.30253
3.30355
3.30416
3.32179
3.32831
3.32415
3.32352
3.32531
3.32407
3.32146
3.32107
3.3205
3.32572
3.3224
3.32617
3.32448
3.32463
3.33791
3.33469
3.33408
3.33521
3.33601
3.331
3.32863
3.33993
3.33777
3.34334
3.33884
3.3406
3.3434
3.35069
3.35218
3.35006
3.35255
3.35219
3.35078
3.35359
3.35201
3.35237
3.35298
3.3566
3.34966
3.34586
3.34216
3.34246
3.34993
3.34184
3.34275
3.35115
3.34749
3.3424
3.34403
3.34756
3.34702
3.34993
3.36148
3.36605
3.36305
3.37054
3.37069
3.3705
3.36471
3.36295
3.31355
3.3124
3.31306
3.31199
3.30419
3.30187
3.30804
3.2989
3.30035
3.30355
3.36513
3.3554
3.35825
3.36452
3.36164
3.35843
3.36039
3.35827
3.36387
3.36453
3.36172
3.35857
3.34816
3.35023
3.34801
3.35305
3.34844
3.34753
3.35743
3.34416
3.34432
3.34997
3.34168
3.36202
3.36585
3.35878
3.36072
3.36081
3.36129
3.36517
3.36519
3.33569
3.33723
3.33936
3.3391
3.32986
3.33034
3.33674
3.33547
3.337
3.34094
3.33807
3.34007
3.33481
3.3299
3.33278
3.33394
3.33964
3.34038
3.33435
3.33789
3.33759
3.32549
3.32779
3.33104
3.32744
3.32297
3.32455
3.36926
3.36541
3.3684
3.3717
3.36836
3.36414
3.30316
3.29982
3.31103
3.30087
3.30454
3.3022
3.30652
3.30278
3.30145
3.29975
3.30446
3.3415
3.33713
3.33502
3.3377
3.34295
3.34216
3.34162
3.3525
3.3469
3.34549
3.34683
3.3489
3.34492
3.34381
3.34669
3.34648
3.34609
3.35336
3.29563
3.29922
3.29804
3.29843
3.29755
3.30158
3.30357
3.29945
3.29978
3.30269
3.29816
3.29954
3.30531
3.30595
3.30016
3.29489
3.30117
3.30015
3.29369
3.29335
3.34581
3.34866
3.35702
3.35668
3.35654
3.35516
3.35792
3.3531
3.35852
3.35718
3.35649
3.35503
3.34942
3.35294
3.35448
3.34704
3.3514
3.35699
3.36054
3.35526
3.36063
3.35943
3.36004
3.36527
3.36203
3.36122
3.36339
3.36211
3.36242
3.35485
3.3596
3.36153
3.36156
3.36699
3.37303
3.36536
3.36263
3.36554
3.36755
3.36816
3.37148
3.36583
3.36913
3.36342
3.36908
3.36734
3.32736
3.31662
3.31911
3.32818
3.32413
3.33307
3.31905
3.31987
3.31955
3.32622
3.32375
3.32395
3.3214
3.32024
3.3201
3.32111
3.32185
3.3518
3.35046
3.35571
3.35026
3.34956
3.35434
3.35298
3.35024
3.35707
3.35592
3.35649
3.35583
3.3481
3.33326
3.34127
3.33626
3.3453
3.3423
3.33499
3.34151
3.33806
3.33545
3.33876
3.33866
3.33284
3.33191
3.33446
3.33702
3.34123
3.33761
3.33905
3.33942
3.33505
3.33602
3.33847
3.3362
3.33215
3.32799
3.33548
3.33174
3.33308
3.33163
3.33344
3.33036
3.33443
3.33827
3.33634
3.33475
3.33724
3.33376
3.33121
3.33535
3.32553
3.33081
3.33054
3.3333
3.33282
3.33568
3.32954
3.33356
3.33383
3.33925
3.334
3.33049
3.34086
3.34438
3.34517
3.33698
3.3352
3.34361
3.34282
3.3449
3.32833
3.33599
3.33536
3.33841
3.33648
3.33808
3.33156
3.3337
3.33937
3.33616
3.33931
3.35207
3.34648
3.34313
3.34341
3.34608
3.35053
3.34358
3.34965
3.34847
3.35119
3.35033
3.3459
3.35074
3.35405
3.34851
3.34811
3.34534
3.34858
3.34821
3.35034
3.33838
3.33962
3.34607
3.34305
3.34031
3.3461
3.34163
3.34597
3.34348
3.30553
3.30593
3.30403
3.31063
3.30587
3.30638
3.30287
3.31661
3.31626
3.31631
3.31212
3.31759
3.30922
3.31008
3.30477
3.30122
3.30413
3.3114
3.30696
3.30403
3.33664
3.33881
3.33945
3.33413
3.33391
3.33845
3.33552
3.33271
3.33974
3.33617
3.3265
3.33043
3.32772
3.32489
3.32321
3.32214
3.31944
3.32661
3.32243
3.32338
3.3249
3.30421
3.30913
3.30429
3.30088
3.30327
3.29885
3.30995
3.30991
3.30778
3.30779
3.30577
3.30735
3.30398
3.32441
3.32282
3.31783
3.32019
3.31982
3.31643
3.31691
3.32145
3.31217
3.32122
3.31491
3.31574
3.31614
3.31877
3.31742
3.31927
3.31596
3.33135
3.33597
3.33552
3.33341
3.33629
3.33379
3.33505
3.33113
3.32748
3.32086
3.32298
3.32268
3.32497
3.32447
3.32237
3.32498
3.31957
3.32113
3.32256
3.31996
3.32096
3.31922
3.31718
3.31315
3.32568
3.32193
3.33109
3.32884
3.33263
3.3327
3.33394
3.33331
3.33815
3.3321
3.3338
3.33117
3.33
3.36758
3.36569
3.36705
3.3721
3.37
3.36382
3.36563
3.36674
3.36267
3.355
3.35136
3.35175
3.35371
3.3465
3.34816
3.34685
3.35454
3.35594
3.35606
3.35874
3.35756
3.35206
3.34903
3.35312
3.3529
3.35153
3.35634
3.35307
3.35126
3.35733
3.30897
3.31277
3.31252
3.30551
3.30523
3.30929
3.31431
3.31836
3.31418
3.30845
3.31236
3.35378
3.35759
3.35389
3.35182
3.36034
3.3567
3.35699
3.35884
3.3558
3.35457
3.358
3.35223
3.34663
3.35456
3.35219
3.35853
3.34417
3.34852
3.3544
3.35385
3.35572
3.35298
3.35659
3.35367
3.35206
3.35151
3.34885
3.35598
3.34981
3.34935
3.35285
3.35163
3.34888
3.36066
3.35873
3.36105
3.35993
3.35819
3.35559
3.3529
3.35795
3.36114
3.36007
3.36031
3.34903
3.35812
3.35395
3.3532
3.34988
3.34827
3.35225
3.35076
3.3546
3.35288
3.35025
3.35269
3.35301
3.35132
3.35641
3.35359
3.36374
3.306
3.3047
3.31638
3.3128
3.31085
3.31435
3.3106
3.31182
3.30893
3.30736
3.30751
3.3087
3.31119
3.30953
3.31191
3.30863
3.32791
3.32054
3.32475
3.32167
3.32287
3.32435
3.31818
3.32739
3.32199
3.32112
3.31672
3.32623
3.32297
3.31712
3.31553
3.32373
3.31947
3.3252
3.32095
3.32348
3.32768
3.32563
3.32271
3.32142
3.32665
3.32613
3.33147
3.32411
3.32324
3.3288
3.32236
3.32694
3.32684
3.32547
3.32341
3.32493
3.32423
3.33478
3.33151
3.33393
3.33258
3.3296
3.32862
3.33405
3.3362
3.33507
3.33746
3.32582
3.3317
3.33383
3.32933
3.3318
3.32897
3.3052
3.30045
3.304
3.30208
3.30552
3.31002
3.30801
3.31087
3.30955
3.30634
3.30802
3.30511
3.30668
3.35256
3.35943
3.35711
3.35566
3.36106
3.3588
3.34759
3.35234
3.35591
3.35204
3.35005
3.35113
3.35031
3.35518
3.35747
3.35944
3.36393
3.35816
3.36028
3.35578
3.35593
3.3576
3.35913
3.35505
3.3598
3.36482
3.36873
3.37124
3.36722
3.36732
3.36985
3.3668
3.36722
3.3638
3.36898
3.37062
3.31486
3.30478
3.31803
3.31245
3.31159
3.30498
3.30955
3.31675
3.31646
3.31391
3.31058
3.34561
3.34229
3.34318
3.34565
3.34441
3.34344
3.34155
3.34435
3.34069
3.34921
3.34598
3.34808
3.34623
3.37006
3.37012
3.36146
3.36646
3.36779
3.36672
3.36607
3.3625
3.36699
3.37318
3.36979
3.36637
3.36838
3.36571
3.30157
3.30164
3.31296
3.3061
3.30247
3.358
3.36347
3.36447
3.36285
3.3654
3.36266
3.36278
3.36293
3.36087
3.36297
3.36258
3.34848
3.34565
3.34601
3.34898
3.3428
3.3428
3.3386
3.34456
3.34157
3.33728
3.34462
3.34406
3.34065
3.34347
3.34249
3.34498
3.32244
3.32362
3.32312
3.32458
3.32331
3.32519
3.32104
3.30416
3.30229
3.3065
3.3025
3.30653
3.30841
3.30735
3.3071
3.30295
3.30601
3.30898
3.31135
3.30469
3.30871
3.30931
3.30806
3.31194
3.30413
3.3022
3.3543
3.36307
3.35561
3.35788
3.30736
3.29715
3.32999
3.3239
3.32315
3.31436
3.31382
3.31484
3.31395
3.31459
3.31065
3.36526
3.37049
3.36523
3.36133
3.3614
3.36039
3.36452
3.36011
3.35372
3.35783
3.36651
3.36405
3.35637
3.35695
3.35151
3.35775
3.36084
3.3612
3.36397
3.36409
3.3602
3.36165
3.35955
3.37224
3.37396
3.36601
3.36764
3.37113
3.37234
3.37244
3.36876
3.36476
3.3687
3.30158
3.30772
3.30254
3.30199
3.30474
3.30107
3.30411
3.30234
3.3028
3.30208
3.30172
3.30077
3.30126
3.30058
3.30014
3.30342
3.29872
3.29648
3.29666
3.29984
3.29478
3.2954
3.36542
3.36572
3.34668
3.34297
3.33524
3.3368
3.34259
3.34081
3.34248
3.34136
3.34138
3.33844
3.33812
3.33392
3.33813
3.33929
3.3331
3.3342
3.3369
3.33834
3.33973
3.32357
3.30531
3.31654
3.31619
3.31369
3.3152
3.31442
3.31738
3.30653
3.306
3.31051
3.30719
3.31382
3.312
3.31563
3.31559
3.31695
3.32012
3.31952
3.32365
3.32122
3.32475
3.32018
3.31531
3.32747
3.32473
3.32081
3.34937
3.35021
3.35344
3.34566
3.35333
3.34849
3.34465
3.35444
3.35409
3.34461
3.35039
3.35317
3.3459
3.34461
3.34695
3.34377
3.30333
3.29849
3.30138
3.29727
3.31755
3.31877
3.32604
3.32595
3.32298
3.32582
3.32339
3.32105
3.32959
3.32925
3.33055
3.3284
3.32862
3.32838
3.32881
3.31005
3.30743
3.30752
3.30342
3.30618
3.31062
3.31324
3.31047
3.31063
3.31163
3.34289
3.33696
3.34215
3.33649
3.34474
3.33668
3.3424
3.34392
3.33394
3.33218
3.33265
3.33558
3.32885
3.32874
3.32187
3.32025
3.32139
3.33946
3.34814
3.33934
3.34452
3.34721
3.34731
3.33294
3.34236
3.33833
3.3397
3.33997
3.34527
3.3372
3.34058
3.34191
3.34309
3.34118
3.3415
3.3424
3.33826
3.34254
3.33771
3.33067
3.32752
3.32271
3.32782
3.32824
3.32828
3.33223
3.32844
3.3293
3.33109
3.3218
3.32287
3.32811
3.32783
3.32667
3.3315
3.32856
3.32462
3.33152
3.33135
3.33548
3.33321
3.33366
3.3273
3.32575
3.32684
3.3229
3.32746
3.32284
3.32827
3.32682
3.3245
3.32471
3.32911
3.328
3.33014
3.32908
3.36241
3.35765
3.35718
3.36518
3.3693
3.36541
3.36778
3.36284
3.36319
3.3666
3.36564
3.36706
3.36585
3.3546
3.35884
3.35625
3.35359
3.35081
3.30241
3.29754
3.30057
3.34102
3.33925
3.33846
3.34428
3.33639
3.33459
3.33592
3.34103
3.3454
3.34318
3.34282
3.34411
3.33483
3.33686
3.33338
3.3338
3.33417
3.33867
3.34386
3.33676
3.34156
3.33316
3.33695
3.33401
3.33921
3.33349
3.33475
3.34173
3.3391
3.30322
3.30801
3.374
3.36507
3.37129
3.36347
3.36841
3.37087
3.36725
3.36527
3.33759
3.33606
3.33804
3.33738
3.33635
3.33708
3.34183
3.33833
3.33317
3.33309
3.32997
3.33983
3.33703
3.34048
3.34277
3.36005
3.35743
3.35676
3.35541
3.34584
3.35904
3.35611
3.35114
3.34997
3.35607
3.35682
3.35878
3.35537
3.3559
3.34186
3.34238
3.34469
3.34394
3.33752
3.34572
3.34371
3.33774
3.34014
3.34373
3.33853
3.33932
3.34019
3.35231
3.34836
3.34129
3.34335
3.34451
3.3659
3.36516
3.36178
3.36665
3.36899
3.36477
3.36407
3.36533
3.36092
3.35958
3.3605
3.3653
3.36147
3.35319
3.34799
3.33675
3.33378
3.33327
3.3341
3.33274
3.33713
3.34009
3.33572
3.3403
3.33036
3.33607
3.33902
3.3406
3.33645
3.33245
3.33712
3.33635
3.35597
3.35256
3.35414
3.34979
3.35322
3.3522
3.35165
3.35325
3.35785
3.36012
3.35924
3.36052
3.35852
3.35486
3.36057
3.35205
3.35752
3.35409
3.34929
3.35069
3.34818
3.34359
3.34672
3.35113
3.34647
3.34435
3.35351
3.35064
3.34995
3.35221
3.35497
3.35262
3.36997
3.37386
3.36444
3.36598
3.37047
3.36612
3.3653
3.36516
3.36111
3.35874
3.36245
3.36084
3.35874
3.36049
3.35803
3.35626
3.35727
3.34965
3.34777
3.35248
3.34139
3.34803
3.34568
3.34405
3.3432
3.34566
3.34259
3.34533
3.34617
3.34643
3.3459
3.35198
3.34721
3.35018
3.35017
3.3472
3.34461
3.3534
3.35635
3.35667
3.35046
3.35245
3.35271
3.35957
3.31204
3.31423
3.33277
3.32651
3.32408
3.32894
3.32551
3.33099
3.30915
3.308
3.31367
3.30677
3.3073
3.31001
3.3077
3.30488
3.30744
3.30327
3.30664
3.30699
3.29631
3.30533
3.30429
3.30221
3.30529
3.30519
3.35464
3.35884
3.35588
3.36597
3.36094
3.36023
3.36455