/*--------------------------------*- C++ -*----------------------------------*\
| =========                 |                                                 |
| \\      /  F ield         | OpenFOAM: The Open Source CFD Toolbox           |
|  \\    /   O peration     | Version:  v1612+                                |
|   \\  /    A nd           | Web:      www.OpenFOAM.com                      |
|    \\/     M anipulation  |                                                 |
\*---------------------------------------------------------------------------*/
FoamFile
{
    version     2.0;
    format      ascii;
    class       surfaceScalarField;
    location    "200";
    object      phi;
}
// * * * * * * * * * * * * * * * * * * * * * * * * * * * * * * * * * * * * * //

dimensions      [0 3 -1 0 0 0 0];

internalField   nonuniform List<scalar> 
37031
(
-1.80299e-10
3.63025e-09
1.00792e-10
-3.55075e-09
-4.67139e-09
1.14542e-08
-3.44719e-09
-3.33564e-09
9.53252e-09
-5.76103e-09
-8.4429e-09
3.03556e-09
2.82462e-09
3.67232e-09
5.33002e-09
9.1597e-09
-9.5776e-09
6.14646e-09
-1.70851e-09
5.13961e-09
-1.71994e-09
-4.27783e-09
1.13278e-08
-4.04476e-09
5.14941e-09
-2.17772e-09
5.09255e-09
-9.63752e-09
6.72267e-09
2.69656e-09
-2.11114e-09
-1.0163e-08
-3.47685e-09
2.88087e-09
-5.16506e-09
4.31947e-09
-9.97405e-09
-3.10428e-09
8.45263e-09
-2.46749e-09
7.00619e-09
-5.791e-09
8.11775e-10
4.70855e-09
-4.27789e-10
-4.5999e-09
5.50426e-09
-9.25882e-11
8.84579e-09
-8.41508e-09
-5.23117e-09
9.63903e-09
1.34722e-09
-4.33955e-09
2.67045e-09
1.27281e-08
-1.1059e-08
-1.47289e-08
-1.85288e-09
1.22423e-08
-1.52536e-10
-6.19023e-09
-8.38617e-09
-1.35285e-08
1.74739e-09
9.92824e-09
-7.8548e-09
-5.82621e-09
-5.91651e-09
2.62727e-09
5.03663e-09
-1.01868e-08
4.26788e-10
-3.28374e-09
1.30437e-08
-2.15037e-09
-1.01992e-09
-7.0165e-09
7.70278e-09
-7.84062e-09
-7.71694e-09
2.21493e-09
-4.28653e-10
1.16924e-08
-8.59517e-09
-1.01134e-08
9.45692e-09
-9.15456e-09
-3.10919e-09
-1.38871e-10
-1.53838e-08
9.81114e-09
5.71152e-09
-1.9441e-09
-5.21922e-09
9.23985e-09
-2.07651e-09
4.09217e-09
-1.20716e-08
-7.70939e-09
7.69758e-10
-5.56131e-09
1.59502e-09
2.32943e-09
7.02529e-10
-4.62709e-09
1.2416e-09
1.34126e-09
-9.88082e-10
3.13844e-09
-8.55933e-10
-1.041e-09
3.04995e-09
-1.02259e-09
1.1109e-09
-1.48868e-09
3.86417e-09
6.7444e-10
1.68853e-09
-1.64894e-09
2.28979e-09
2.18097e-09
8.48774e-10
-2.73891e-09
4.66724e-09
-2.78436e-09
4.48309e-09
-6.51942e-09
-1.71192e-09
1.14751e-09
5.20996e-09
-4.64578e-09
-4.54108e-10
-1.97032e-09
7.12069e-10
7.04088e-10
-4.03284e-09
4.8537e-09
3.8463e-09
-1.76437e-09
2.21466e-09
7.1121e-09
-6.60623e-09
3.39593e-09
4.80594e-09
-1.5956e-09
-5.67002e-09
7.48072e-09
2.37011e-09
-4.18081e-09
3.05998e-09
-3.05435e-09
-3.67405e-09
3.6684e-09
-4.96522e-09
1.41887e-09
4.73412e-09
4.15875e-10
-5.80754e-09
6.57472e-10
-6.78197e-09
-2.09607e-09
3.20799e-09
-2.22984e-09
-4.07708e-09
-4.75028e-10
2.89655e-09
5.23083e-10
-6.47404e-09
-3.65733e-09
1.58853e-09
6.90672e-09
3.39959e-10
-3.8508e-09
4.2767e-09
-2.2028e-09
-4.30374e-09
1.83889e-09
3.41704e-10
3.49854e-09
-1.95495e-09
-2.43346e-09
8.89821e-10
1.74062e-09
1.18354e-09
5.74299e-10
3.09747e-09
4.82032e-10
-3.63467e-09
-4.31315e-09
-5.54447e-10
1.37134e-08
-1.35761e-09
-4.46884e-09
2.94287e-09
2.88347e-09
-2.53543e-09
4.3687e-09
-4.07382e-09
1.80728e-10
-3.00563e-09
-2.31104e-09
8.47817e-10
-7.07876e-10
-6.69402e-10
-1.88217e-09
6.3963e-09
-5.222e-09
-2.51774e-09
-1.15728e-09
-2.06922e-09
-5.04844e-09
-1.38179e-08
-4.0567e-09
2.59122e-09
9.91123e-10
4.74405e-10
1.38758e-09
-2.76779e-09
-2.67647e-09
-2.69025e-09
2.21326e-09
3.06821e-09
-1.04665e-09
-2.5601e-10
3.77252e-09
1.41573e-09
-7.95604e-09
-4.45278e-09
-2.78645e-09
1.78811e-09
5.45112e-09
6.65498e-10
-3.31116e-09
-1.80712e-09
-1.68377e-09
-4.37169e-10
-2.34043e-09
-3.89987e-10
7.34502e-09
7.03627e-09
-1.06088e-08
7.31734e-09
1.01881e-09
3.27684e-09
-4.20154e-09
-2.76022e-09
6.7616e-09
-3.63327e-09
8.19039e-09
1.37958e-09
2.02342e-09
1.34526e-09
-2.43177e-09
-2.37327e-09
2.1912e-09
2.61379e-09
-1.34768e-09
-9.06302e-10
-1.77833e-10
-2.31375e-09
6.86208e-10
-7.45851e-10
-1.65341e-09
-2.00803e-09
7.83283e-10
-2.30849e-10
1.86253e-09
-2.41502e-09
1.70151e-10
-1.04028e-09
1.1947e-09
2.93782e-09
-4.36337e-09
2.81868e-09
-1.45384e-09
2.27332e-09
-1.10797e-10
-3.00043e-10
3.67169e-09
3.03198e-09
-3.76587e-09
-5.6393e-09
1.51179e-09
8.81238e-09
-4.68492e-09
-3.50362e-09
-1.44949e-09
3.37093e-09
-4.05586e-09
-6.23525e-11
7.10494e-09
1.62949e-09
-2.62547e-10
-2.23338e-09
5.93633e-09
3.52305e-09
-6.01898e-10
-2.98268e-09
2.37881e-09
7.6154e-10
-2.21196e-10
5.30175e-11
9.07709e-09
-9.99969e-09
8.69609e-10
5.34968e-09
7.66184e-10
-6.06283e-09
-1.41148e-09
6.09202e-09
6.69142e-10
8.57736e-09
-9.11754e-10
-1.61769e-08
-9.82479e-09
1.74912e-08
8.51046e-09
-1.06156e-10
-3.3216e-09
-1.27491e-08
7.3993e-09
-7.26314e-09
6.30021e-10
-1.53842e-09
7.05352e-09
3.06224e-09
3.57941e-09
-1.49426e-08
-1.1718e-08
-5.81412e-09
1.02235e-08
7.30861e-09
-9.93251e-09
-1.89164e-09
-4.51263e-09
8.19536e-09
3.37078e-09
1.06345e-09
5.15911e-10
5.43279e-09
-7.966e-09
6.82114e-10
-1.30819e-08
3.80231e-09
1.09936e-08
-1.71404e-09
-5.71087e-10
-2.18644e-09
-1.03244e-08
-3.02601e-09
-1.33385e-08
1.57934e-08
3.1524e-09
-2.76431e-09
-1.66879e-08
1.62998e-08
2.79604e-10
-9.4796e-09
1.23524e-08
-7.84819e-09
1.02493e-08
-2.12148e-09
-5.2461e-09
1.20023e-09
-1.25597e-08
9.37888e-09
4.16506e-10
-3.11925e-10
6.79083e-09
-8.66533e-09
8.69393e-09
-1.20318e-08
-2.77789e-09
-9.04824e-09
-4.86175e-09
-6.16256e-09
-6.09493e-09
-1.2914e-08
-4.61783e-09
-2.88914e-09
1.24713e-09
-2.12107e-09
3.76306e-09
-3.02474e-11
-3.97178e-09
1.11281e-09
-3.9735e-09
-3.42481e-09
8.6454e-09
-6.81863e-09
2.81486e-09
-8.19806e-09
-4.89206e-09
9.66533e-09
-5.50755e-09
-1.36713e-09
-1.32338e-09
-4.45979e-09
-3.6989e-09
3.26665e-09
-6.97937e-09
-2.98796e-09
7.73538e-09
3.2675e-09
-3.7825e-09
-7.22036e-09
-2.31025e-10
4.26751e-09
-5.20507e-09
2.853e-09
-2.38028e-10
-1.69954e-09
-2.28422e-10
-1.05334e-08
-4.79396e-09
-3.39182e-09
-2.87331e-09
-1.33654e-09
-3.33771e-09
-1.79086e-10
-1.27725e-09
2.1151e-09
-5.68125e-09
-9.37317e-10
-5.55879e-09
5.99137e-10
8.35895e-09
-2.73349e-09
-8.69279e-09
5.8675e-09
2.27795e-09
6.35679e-09
-4.21324e-09
-4.42149e-09
-1.03499e-09
3.87312e-09
-5.60143e-10
3.02238e-09
2.01126e-09
-7.76712e-09
3.20103e-09
-1.21362e-09
-7.24617e-09
-5.97665e-09
4.20601e-09
-4.36155e-09
3.26298e-09
2.00916e-09
-1.39296e-11
5.6891e-09
-7.89108e-09
-5.26366e-09
-3.6064e-09
1.47375e-08
-8.71496e-09
9.1404e-09
-1.77006e-09
4.35993e-09
1.63161e-08
-1.8906e-08
3.6677e-09
-2.0349e-08
1.49111e-08
1.98366e-09
-8.1813e-09
9.86529e-09
-2.23103e-09
8.57458e-09
-1.52399e-08
-9.13562e-10
-4.19559e-09
-7.33209e-09
1.14829e-08
-1.4113e-08
-5.48649e-09
1.14181e-08
-1.2844e-08
-2.18258e-09
1.34783e-08
-5.25073e-09
1.19931e-09
-9.4269e-09
-1.01016e-08
1.01718e-08
1.3408e-08
2.01217e-09
5.33824e-09
-1.74521e-08
7.14639e-09
-8.23005e-10
-1.209e-08
5.76654e-09
1.0923e-08
-4.75013e-09
9.73448e-10
7.55949e-09
-1.06237e-08
-9.77983e-09
-3.56144e-10
2.4291e-09
-4.93558e-09
1.28764e-08
7.80251e-09
5.13268e-09
-1.87788e-08
2.51077e-09
-1.04141e-08
1.03488e-08
3.71894e-09
-3.65363e-09
3.53567e-09
-4.04721e-09
-9.90255e-09
-6.26148e-09
1.00936e-10
-7.31705e-09
1.34776e-08
-9.6565e-09
-2.45979e-09
5.85487e-09
-1.0522e-08
1.14734e-09
-2.81866e-10
-3.86689e-09
1.01513e-08
3.02451e-09
-9.30896e-09
-6.30304e-09
5.14274e-09
1.15091e-08
-3.1139e-09
3.46527e-10
1.99817e-09
-1.66878e-08
1.06424e-08
4.76084e-09
1.82717e-09
-9.04779e-09
1.00045e-08
-1.23907e-08
1.08062e-08
-1.06703e-08
-7.45297e-09
-4.41512e-09
-9.04678e-10
4.03734e-09
1.28244e-09
-6.14545e-10
-1.00712e-09
-2.79345e-09
5.25221e-09
-1.82603e-09
-4.04079e-09
-3.7057e-09
2.6771e-09
1.23867e-10
-1.33091e-09
-3.38192e-09
-1.42567e-09
1.179e-09
4.28393e-09
5.67481e-10
3.25905e-09
-3.23514e-09
1.4595e-09
2.34309e-09
-2.02371e-09
1.81453e-09
-3.02597e-09
4.87262e-10
-4.33702e-09
1.60159e-09
-2.44525e-09
1.83126e-09
-4.80146e-11
3.12794e-11
5.3031e-10
2.76043e-09
-1.5473e-09
1.9926e-09
2.23179e-09
6.26535e-12
3.70191e-09
-1.04293e-08
5.15428e-09
2.02441e-10
5.07259e-09
1.93227e-09
-5.19641e-09
-7.16514e-09
-4.27497e-09
7.41986e-09
2.00939e-09
-8.3312e-09
8.70324e-09
-4.64699e-09
-9.92985e-09
5.56982e-09
4.5625e-09
-5.19072e-09
-2.80684e-09
-2.01818e-09
-1.15094e-08
9.48241e-09
-2.56367e-09
1.78447e-09
2.55429e-09
1.43479e-08
9.85929e-09
-7.67606e-09
1.05619e-08
-1.27452e-08
-3.03402e-09
1.70919e-08
-4.1986e-09
5.29922e-09
-1.49935e-08
7.68789e-09
-5.42263e-09
1.18796e-08
-3.75553e-09
-7.5184e-09
1.35893e-08
1.10209e-08
4.7985e-10
1.84627e-09
5.05594e-09
-5.29798e-09
-1.6041e-09
3.46045e-09
-2.02188e-09
4.07776e-10
3.8195e-09
-6.24879e-10
1.86135e-09
-1.74202e-09
3.17236e-09
2.38928e-09
1.60067e-09
1.17889e-10
-8.65146e-09
3.76779e-09
5.02349e-09
-1.39755e-10
2.71142e-09
-7.22264e-09
-4.14019e-09
7.8888e-10
-4.44421e-09
-1.64261e-09
-9.6485e-09
5.40477e-09
3.61893e-09
1.58492e-09
-2.30302e-09
2.31917e-09
-1.9542e-09
6.7115e-09
-4.13064e-09
5.59541e-09
-1.66037e-09
2.4115e-10
-1.06115e-08
5.57315e-10
2.83153e-09
-5.68265e-09
-3.17697e-09
9.83546e-09
-6.38488e-09
5.49852e-09
5.52793e-09
-1.20389e-08
1.01241e-09
7.09251e-09
-8.87719e-09
7.2832e-09
4.154e-09
-6.34249e-09
7.71639e-09
3.42103e-09
-8.3596e-09
-9.84085e-09
1.47794e-08
-9.51982e-09
-1.09078e-08
2.21095e-08
-1.68184e-09
-8.67033e-09
-6.99883e-09
6.14933e-09
-6.80001e-09
-4.59357e-09
1.55476e-08
1.17715e-08
-1.45824e-08
-5.85942e-09
8.65474e-09
-7.79104e-09
-4.06888e-09
1.71296e-08
-1.15389e-08
-1.23907e-08
-1.45084e-08
1.39853e-08
8.079e-09
-7.55588e-09
-3.28891e-10
1.42465e-08
-2.09164e-08
5.38974e-09
-5.71718e-09
-1.07639e-08
1.10913e-08
-5.28357e-09
1.31806e-08
1.93082e-10
-8.09006e-09
-3.42803e-09
9.58801e-09
-1.14435e-08
1.62797e-09
1.15555e-08
-1.66115e-08
-7.50792e-09
1.20232e-08
1.1644e-09
9.15694e-10
5.97562e-09
1.73081e-08
-2.16558e-08
1.47567e-08
-8.588e-09
-6.43241e-09
7.06185e-09
5.34958e-10
1.05698e-08
-5.44677e-09
1.77317e-09
8.87053e-09
-7.3885e-11
-1.31405e-08
1.57509e-09
5.60802e-09
-3.92008e-09
6.64492e-09
2.47575e-10
-4.63461e-09
-4.4359e-10
-2.00466e-10
5.27866e-09
-3.2488e-09
-4.17538e-09
2.78962e-09
3.85411e-09
-5.67181e-09
-1.4311e-09
-2.25932e-10
3.63646e-09
-2.18259e-09
-1.83228e-09
-1.65699e-09
-9.39814e-10
1.98543e-09
6.66133e-10
1.76262e-09
-2.31895e-09
3.35443e-09
2.09764e-09
-3.13316e-09
-2.69453e-10
-1.89013e-09
-1.59426e-10
-2.56844e-09
-2.3526e-10
2.6032e-09
-5.05308e-09
-1.69074e-09
-1.87882e-09
2.30953e-09
-2.27811e-10
-2.02984e-10
1.98428e-09
9.35554e-10
-1.64014e-10
7.51219e-11
2.98007e-09
-3.29056e-09
1.11198e-10
2.27344e-09
-2.82504e-10
2.79577e-09
3.23968e-09
-1.04286e-09
-9.034e-09
6.99274e-09
3.0841e-09
7.08554e-09
1.1887e-09
-4.82212e-10
-2.89877e-10
-5.46279e-09
1.37355e-09
1.1082e-08
-6.44321e-10
2.26706e-09
4.29163e-10
4.58102e-09
4.52559e-09
2.97937e-10
1.03765e-08
-4.47739e-09
-6.40328e-09
-2.00791e-09
4.78895e-09
3.62229e-09
-2.41299e-09
-3.34375e-10
-3.65586e-09
4.0514e-09
-1.66235e-09
-4.80202e-09
1.76196e-09
2.81554e-10
2.51792e-09
-2.31847e-09
2.67097e-09
-2.87037e-09
-2.01654e-10
4.56607e-09
-1.84648e-09
3.06983e-09
-6.6009e-10
3.72145e-09
-6.13115e-09
6.3713e-09
-3.5031e-09
-2.14117e-09
6.64329e-10
6.26582e-09
-6.33223e-10
2.22054e-09
1.74679e-10
-4.64089e-09
-1.89383e-09
3.95535e-09
2.50458e-09
1.43934e-10
-8.49599e-09
-1.48868e-09
7.84356e-09
-4.3888e-09
-4.44154e-09
-4.68786e-09
9.58858e-09
1.47063e-09
-5.35521e-09
-3.57691e-10
3.24257e-09
1.45672e-09
6.64317e-09
5.05439e-09
5.16437e-09
1.19115e-09
-3.95992e-09
-2.39555e-09
-2.97704e-09
7.6416e-09
4.99841e-10
1.39712e-08
2.68164e-09
-1.14632e-08
-5.18961e-09
7.46332e-09
5.87567e-09
6.32239e-10
6.91844e-09
-3.04564e-09
6.65314e-09
7.72862e-09
-9.72315e-09
2.46226e-09
-6.2812e-09
1.35422e-08
-7.86769e-10
-1.11377e-08
2.20132e-09
7.21083e-09
-1.05173e-08
-6.5342e-10
9.46869e-09
-5.23488e-09
-6.07202e-09
4.23677e-09
8.48846e-09
7.82835e-10
1.65704e-09
2.368e-09
-1.18227e-08
7.79772e-09
3.20288e-09
-1.10684e-08
9.52256e-09
9.90193e-09
-8.24898e-09
4.3358e-09
-9.91798e-09
-6.19632e-09
1.00363e-09
-8.32012e-09
-9.69888e-09
4.69164e-09
1.69991e-09
1.90209e-09
-8.29373e-09
5.38394e-09
2.14264e-09
-2.83495e-09
6.07824e-10
-3.18147e-09
-5.44182e-09
-3.14171e-09
-3.48287e-09
5.98691e-09
-3.61482e-10
2.79701e-09
-4.58001e-09
-7.61895e-10
1.66276e-09
3.41689e-09
-4.86503e-09
6.8622e-10
3.88075e-09
-7.4205e-09
-1.64536e-09
6.72204e-10
1.57597e-09
-3.64399e-09
3.14693e-09
-8.84985e-09
-5.01842e-09
3.97415e-10
-1.98312e-10
-6.166e-09
-3.64077e-09
5.06189e-09
-8.56218e-09
-7.96292e-09
-1.49271e-08
6.61932e-09
8.94001e-09
-4.72831e-09
-5.13687e-09
-1.09374e-08
-1.05071e-08
2.24482e-08
-7.39068e-09
3.07256e-09
-2.22544e-08
-1.14243e-08
2.31715e-08
-2.07301e-08
-8.91493e-09
-1.58006e-08
-1.13119e-08
2.49799e-08
2.13261e-09
-1.67588e-08
1.8345e-08
-1.73869e-08
-4.93217e-09
-7.62961e-09
3.99961e-09
7.89022e-09
-2.42691e-09
-2.22221e-08
-7.8417e-09
4.41999e-09
-4.47758e-09
-6.74434e-09
-2.02396e-10
-1.40342e-08
-1.11735e-08
-2.61081e-10
1.18618e-08
1.63987e-08
9.22672e-09
-1.65858e-08
-9.53578e-09
1.72855e-08
-1.3246e-08
-3.87875e-09
-1.60838e-10
-7.88143e-09
8.47918e-09
6.22404e-09
1.24451e-08
-7.87618e-09
-2.42166e-09
1.98486e-08
-1.12029e-08
8.56886e-09
-7.76392e-09
3.52565e-09
-1.11045e-08
1.7162e-08
-1.21239e-08
-2.8594e-09
8.09751e-10
4.42961e-09
1.35748e-08
1.96559e-08
-2.30641e-08
6.11742e-09
-2.70917e-09
6.78332e-09
-2.02536e-09
3.97693e-10
-5.15567e-09
1.04688e-08
1.0613e-08
-1.42985e-08
1.67978e-08
-2.76105e-09
5.6192e-09
6.70647e-09
2.05601e-08
2.39021e-09
-1.32424e-08
-1.22119e-08
-8.13541e-09
-6.09568e-09
1.66213e-08
1.23901e-08
-1.69016e-08
1.75048e-09
2.12292e-08
2.37311e-09
-4.39353e-11
-1.04646e-08
4.05498e-09
-1.49242e-08
2.14202e-08
-2.1801e-08
4.43571e-09
1.60766e-08
-1.1558e-08
1.79379e-08
-3.81076e-09
-2.04076e-08
6.2804e-09
7.76371e-09
-1.20479e-08
1.14814e-08
-7.61715e-09
-2.12512e-08
-1.18632e-08
1.99615e-09
-1.57179e-08
-5.69096e-09
-1.27036e-08
-5.03225e-09
2.34268e-08
-4.55794e-10
-1.18964e-08
1.47653e-08
-2.41308e-09
-2.19009e-09
1.37018e-08
-1.19674e-08
-8.86168e-09
8.30844e-09
-1.63685e-09
-9.1741e-09
-1.16739e-09
1.47981e-09
-1.72617e-08
6.88889e-11
5.29651e-09
-1.7388e-08
-6.37079e-09
6.49711e-09
2.26944e-09
-7.71763e-09
-1.19398e-08
-1.0867e-08
-5.50035e-09
1.06764e-08
-3.15252e-09
-7.52158e-09
1.29436e-08
1.30533e-08
-9.6957e-09
-1.60612e-08
-4.68502e-09
-8.47867e-10
1.85863e-08
1.03455e-08
-5.86111e-09
-1.2202e-08
-7.10287e-10
-5.87306e-09
-6.45356e-09
2.27147e-09
-1.78283e-08
-1.44686e-08
4.58393e-09
1.59655e-08
6.39462e-09
-2.6944e-08
-6.2852e-09
1.35205e-08
4.82073e-10
-7.7173e-09
5.43595e-09
5.66569e-09
-9.1032e-09
-1.99845e-09
-8.15498e-09
1.18448e-08
1.74613e-09
1.43746e-08
-3.59257e-10
-1.95012e-08
5.48591e-09
-6.55734e-11
1.83688e-08
6.21148e-10
-1.25508e-08
-6.43911e-09
7.28779e-09
1.56649e-08
2.3671e-09
-1.10658e-08
9.73486e-09
-1.03612e-09
1.28601e-08
1.35174e-09
1.40923e-08
1.53938e-08
-6.60561e-09
1.20549e-09
2.59318e-09
-1.20556e-08
1.10012e-08
3.40132e-09
-1.18093e-08
4.87228e-09
-4.76732e-10
-1.40655e-08
1.29075e-08
6.0303e-09
-1.00431e-08
5.20937e-10
2.10085e-11
9.19285e-09
1.04536e-09
1.23357e-08
1.4158e-08
9.79716e-10
1.30542e-08
-1.25721e-10
1.85458e-08
-8.75893e-09
1.20017e-09
-1.09871e-08
7.05841e-09
6.00202e-09
5.48538e-09
-3.19829e-10
-2.06919e-09
1.16052e-08
-9.21625e-09
-1.23094e-09
6.52775e-09
-5.61668e-09
-6.62325e-09
1.18788e-08
-1.40145e-08
-1.1547e-08
8.16019e-09
1.04451e-08
-4.6948e-09
-5.652e-09
7.01126e-10
-8.55532e-09
1.25193e-08
-1.38874e-08
6.33134e-09
1.28357e-08
-7.56182e-09
5.97532e-09
-3.79171e-09
9.6951e-09
2.83089e-09
9.14648e-09
-4.33006e-09
1.02255e-08
4.35911e-10
-2.49714e-09
-9.72299e-09
2.36255e-08
-1.06677e-09
1.5452e-08
-1.26557e-08
-2.44455e-09
1.34356e-08
-2.18799e-10
5.96165e-09
1.78826e-08
1.14414e-08
1.37425e-08
-3.91201e-09
7.28719e-09
-2.20979e-08
1.87228e-08
4.15118e-09
1.19327e-08
-1.99958e-08
3.14047e-09
-1.00624e-08
1.4209e-08
-4.25094e-09
-9.1111e-09
1.65025e-08
-1.26558e-08
1.2556e-08
-8.52736e-09
-1.49424e-08
1.43586e-08
-6.72334e-09
-1.67064e-09
-1.33418e-10
1.91137e-08
-9.19431e-09
-1.66427e-08
-7.89647e-09
1.20678e-08
-6.28284e-09
-6.61153e-10
-1.51539e-08
-1.30775e-08
1.34449e-09
2.37225e-09
1.57959e-09
-1.18484e-08
-1.55942e-08
1.07311e-08
-1.3504e-09
6.2134e-09
-9.19566e-10
-3.57069e-08
2.10323e-08
-1.27969e-08
-6.56344e-09
4.47583e-10
-2.35202e-08
9.80366e-09
1.5523e-08
-2.25216e-08
1.3313e-08
-6.31444e-09
-1.59777e-08
1.63148e-08
1.5186e-08
-5.42229e-09
-6.06913e-09
-4.48624e-09
-1.22037e-08
-1.57403e-08
6.03557e-09
1.08397e-08
-3.5623e-09
7.04678e-10
2.16457e-08
-2.76115e-09
1.16484e-08
-7.52683e-10
-8.13457e-09
-9.03027e-09
-2.76097e-09
-1.18122e-09
-8.26151e-09
1.28742e-08
-6.0215e-09
-9.61368e-09
1.10001e-08
-5.42081e-09
-1.28154e-08
1.81999e-08
-4.67982e-09
-7.84434e-09
1.58568e-08
7.5636e-09
-3.10036e-09
1.08375e-08
-8.36334e-09
6.26096e-10
9.58071e-09
-1.33598e-08
6.78579e-10
-1.30246e-08
1.94301e-08
4.43185e-09
1.04132e-08
1.51376e-08
-9.23478e-09
8.32382e-09
1.70005e-08
-1.23857e-08
1.33071e-08
8.65925e-09
1.15371e-08
-1.00353e-08
4.33387e-09
-5.82137e-09
-1.34995e-08
1.81695e-08
-1.36727e-08
9.00253e-09
9.83825e-10
6.54186e-10
-1.15735e-08
1.71636e-10
-1.63588e-08
-1.05111e-08
-2.62844e-09
2.58881e-08
1.54571e-08
-9.57145e-09
9.95954e-09
-5.3035e-09
-1.68997e-08
1.16921e-08
1.00304e-08
5.6465e-09
9.85959e-09
6.95031e-09
1.15052e-08
-8.42507e-09
1.38214e-08
1.53124e-09
-1.96812e-09
3.43161e-09
1.69678e-08
-6.57807e-09
9.61436e-09
3.11216e-10
-7.77577e-09
-2.14982e-09
5.58791e-09
4.37361e-09
-3.47174e-10
-1.37826e-09
1.09063e-08
-6.09644e-09
9.19435e-10
7.2579e-09
3.21518e-09
4.20128e-09
-2.37866e-09
3.06801e-09
-4.85163e-09
6.17495e-09
2.66814e-09
5.65354e-09
5.49115e-09
8.65047e-09
8.80821e-09
-5.67495e-09
-1.17837e-08
-1.25717e-09
8.7321e-09
1.17554e-09
1.15612e-08
1.85083e-09
-4.6038e-09
2.66309e-09
-1.25992e-09
1.0158e-08
6.24225e-09
-3.39038e-09
2.84388e-09
-5.69575e-09
4.46379e-09
5.21302e-10
7.12407e-10
1.06828e-08
2.13834e-09
-1.12037e-08
1.39289e-08
-7.85036e-09
-4.22771e-09
1.69498e-09
1.0974e-08
3.11416e-09
1.77408e-09
-2.04434e-09
6.15698e-09
1.42098e-09
5.91274e-09
-1.16247e-08
8.21656e-09
-1.34718e-09
-1.24801e-08
1.09702e-08
3.20486e-09
3.5612e-09
-1.01286e-08
-5.42976e-09
1.0765e-08
-2.89666e-09
-9.77306e-09
7.82779e-09
4.84182e-09
-1.32012e-08
7.62712e-09
2.67736e-09
-4.49524e-09
2.01325e-09
-1.07192e-08
-9.50718e-09
7.08309e-10
-2.66742e-09
1.14663e-08
-1.71976e-09
-1.60295e-10
1.17179e-09
1.42556e-09
-1.23705e-08
-1.35688e-09
9.89297e-09
4.10351e-09
-3.23098e-09
-5.36783e-09
-7.60445e-09
5.95988e-09
-1.02285e-09
-7.11378e-09
-2.21043e-09
1.82379e-09
4.21817e-09
-6.22119e-09
1.79155e-10
8.1179e-09
-7.03836e-09
7.44207e-10
-7.87766e-09
7.09863e-09
-6.2926e-09
7.0716e-09
-8.49329e-09
1.78738e-09
8.04326e-11
-3.09076e-09
7.39082e-09
-1.64909e-09
3.47311e-09
5.07097e-09
-4.32593e-09
4.24049e-09
-4.61591e-09
-2.19448e-09
1.42345e-10
2.61849e-09
-6.40251e-09
-2.22596e-09
6.00987e-09
-3.00652e-09
5.34529e-09
2.79692e-10
-2.84899e-09
-1.30048e-10
1.81678e-09
2.08044e-09
-5.98395e-09
2.08686e-09
8.52202e-10
-5.30315e-09
6.26771e-09
4.85197e-09
-5.55201e-09
-3.98682e-09
4.68691e-09
7.72578e-09
-5.91824e-09
3.04445e-09
3.00371e-09
6.80251e-09
-7.00481e-09
1.08607e-08
-6.52413e-09
2.99182e-09
-2.38592e-09
-1.10883e-08
-9.87829e-10
-4.43635e-09
1.44422e-09
-7.99072e-09
8.41949e-09
-5.73191e-09
-3.14921e-09
-5.11328e-09
2.71781e-10
-2.45952e-09
-5.12602e-09
-4.13559e-09
1.24924e-08
-1.53616e-08
-6.71755e-09
5.535e-09
-3.93071e-09
1.16256e-09
9.83224e-09
5.40501e-09
-1.63998e-08
6.89915e-09
4.91259e-09
-1.06492e-08
3.7244e-10
1.35052e-08
-4.04545e-09
9.84925e-09
-2.57767e-09
3.50002e-09
-1.50733e-08
-2.31402e-09
-9.12251e-09
4.06718e-09
-1.28784e-09
-6.31542e-09
-7.4701e-09
1.10579e-08
-7.43312e-09
9.61886e-09
-1.05293e-08
2.81711e-09
7.29692e-09
3.39114e-09
6.68128e-09
5.98506e-09
-3.89787e-10
2.32512e-09
7.69948e-09
6.74804e-10
-5.1633e-09
-9.52489e-09
-8.29776e-09
2.29859e-08
-4.83649e-09
-9.34709e-09
9.02024e-09
-1.0211e-08
-1.57773e-08
1.64634e-08
3.04506e-09
-1.80926e-08
6.00222e-09
8.24513e-09
-1.48764e-08
6.28931e-10
-1.51769e-08
1.1832e-08
-1.03422e-08
1.02895e-08
-3.59768e-09
-1.46719e-09
-1.07125e-08
-2.91288e-09
-6.55146e-09
-5.71265e-09
-7.0364e-09
-1.07529e-08
7.83107e-09
-1.13966e-09
1.15117e-08
-4.01226e-09
5.29184e-09
-1.0175e-08
-3.76491e-09
-1.83511e-08
2.23141e-09
1.41676e-08
-5.52754e-09
1.12846e-08
-1.32591e-09
4.24028e-09
5.11719e-09
4.32717e-09
4.42087e-09
-1.61023e-09
-7.13783e-09
3.36091e-09
-5.33294e-09
6.29919e-09
5.42026e-09
-1.05453e-08
4.3658e-09
7.59238e-10
-5.75065e-09
5.57889e-09
5.592e-09
2.04364e-09
-2.37575e-09
4.945e-09
-4.61294e-09
9.17479e-09
-3.77026e-09
9.99663e-10
-7.7661e-09
1.49239e-09
5.27403e-09
5.80718e-10
4.35883e-09
-5.18691e-10
2.82572e-09
-6.81171e-09
2.81464e-09
-8.41498e-09
-1.08958e-09
-1.84645e-09
-4.31505e-09
8.20324e-09
4.776e-10
-7.86222e-10
7.95122e-09
-1.58614e-09
-9.21087e-10
3.41916e-09
-2.75335e-09
2.55256e-10
-3.83641e-09
3.18362e-09
-2.68307e-10
2.88806e-09
3.24912e-09
-3.31147e-09
-3.67624e-10
9.24265e-09
-4.38291e-09
-2.11053e-09
4.74343e-09
2.92879e-09
-1.85573e-09
-5.93814e-10
8.67592e-10
4.31676e-09
-8.25544e-10
1.11498e-09
9.14415e-10
3.44281e-09
-5.47233e-09
-5.41645e-09
-1.99501e-09
2.73614e-10
1.03134e-09
-2.81611e-09
-3.63171e-09
-1.42196e-09
-4.35844e-09
4.83171e-09
-6.89975e-09
7.30066e-11
-2.6871e-09
-8.17019e-09
8.04117e-09
-9.55956e-09
-9.42248e-09
1.52118e-08
-9.95814e-09
1.51354e-09
9.08758e-09
-5.28725e-10
-4.06479e-09
-4.4941e-09
-6.45028e-09
1.09249e-08
-1.4696e-08
9.34737e-09
-1.10168e-09
-7.28746e-09
-7.93724e-09
-5.47105e-09
1.82909e-09
-5.7805e-09
-8.88396e-09
-6.54522e-09
-2.07109e-09
-3.41568e-09
-7.92127e-09
-1.50852e-08
1.57191e-08
-9.13954e-10
-1.06571e-08
-9.69582e-09
8.29e-09
-2.32744e-10
1.63855e-09
-4.83431e-09
3.55798e-09
-8.08897e-09
4.12747e-09
-8.72798e-10
-1.31653e-09
-4.89627e-09
4.9481e-09
1.2647e-09
1.16685e-08
3.32115e-10
-3.71071e-09
1.16315e-08
-4.62247e-09
-3.45103e-09
-3.64093e-09
3.53264e-09
-6.59767e-09
6.70595e-09
-8.11281e-09
1.44669e-10
4.32717e-09
1.4302e-09
-3.63147e-09
5.73389e-09
-3.50368e-09
-1.68368e-09
6.61757e-09
6.07357e-09
-6.00145e-09
-8.18493e-09
-1.04561e-09
5.21518e-10
-3.32229e-09
-1.01244e-08
3.84319e-09
9.60355e-09
5.78626e-09
-1.35027e-09
2.92906e-10
-4.72888e-09
3.97953e-11
-4.46833e-09
9.24862e-10
-4.88287e-09
1.29121e-09
-4.96077e-09
1.49456e-08
9.84e-10
-5.68507e-09
-1.42228e-10
3.04558e-09
-4.91549e-09
-6.27584e-09
8.14578e-09
7.91707e-09
8.79065e-09
-1.65212e-08
-1.86527e-10
3.39931e-09
1.26393e-08
-8.12147e-09
9.97337e-09
-3.52838e-09
7.4093e-09
8.51821e-09
-3.28833e-09
-9.3606e-09
2.41838e-09
-3.13867e-09
6.4806e-09
5.96535e-09
-6.53528e-09
-2.43226e-11
-5.21816e-09
-1.28756e-09
6.22944e-09
-1.08964e-08
5.54713e-09
-1.67059e-09
-1.5605e-08
8.27443e-09
9.00111e-09
-1.23114e-08
6.21903e-09
4.42182e-09
6.5634e-09
-2.29756e-08
4.10071e-09
7.78097e-09
-1.68226e-08
-8.05574e-09
-3.88773e-09
-4.81036e-09
1.67538e-08
-3.20013e-09
-8.11085e-09
3.25521e-09
-9.18159e-09
1.35683e-08
-7.09606e-09
8.50471e-09
-1.16814e-09
-9.12806e-09
6.62891e-10
-2.06354e-09
-1.28316e-09
-6.16481e-09
-2.09082e-09
5.89384e-09
-3.30333e-09
-4.99732e-10
4.19647e-09
-2.68952e-09
-3.5978e-09
-3.28789e-09
5.63674e-09
3.54494e-09
8.42519e-10
6.60192e-11
3.76869e-09
-7.41793e-09
9.59702e-10
-9.15979e-10
6.13689e-09
-3.42703e-10
-4.87826e-09
8.44972e-09
-1.97287e-09
-7.39284e-09
4.07482e-09
5.07024e-09
-5.37639e-09
4.73456e-09
1.82764e-10
3.25852e-09
4.20844e-10
4.77022e-09
-6.17134e-09
5.29811e-09
5.60775e-09
9.70488e-10
-2.07162e-09
8.12215e-09
-1.01482e-09
1.3053e-09
1.00753e-08
2.30709e-09
3.75042e-09
8.91049e-09
7.74704e-12
6.834e-09
-7.55258e-09
7.10845e-10
1.14262e-08
1.35799e-09
-2.02521e-09
-1.0759e-08
-1.27433e-09
7.6196e-10
4.67875e-09
-4.16639e-09
5.32547e-09
-5.60735e-09
-9.92526e-10
4.75744e-09
8.10227e-09
-3.73102e-09
-9.12875e-09
1.37997e-08
2.38407e-09
5.44207e-09
-4.67242e-09
-2.22326e-10
5.34757e-09
3.16852e-10
-6.63134e-09
6.19813e-09
2.10838e-10
7.66696e-09
5.24991e-10
-2.21179e-09
2.59164e-10
-3.74218e-09
5.10692e-09
1.24349e-08
1.33819e-09
3.02195e-09
1.7127e-09
2.91945e-10
3.34293e-09
2.11067e-09
5.80017e-09
5.04406e-09
2.91487e-09
6.01074e-09
4.10164e-09
-4.78691e-09
3.62673e-09
1.72201e-10
1.83129e-10
9.96788e-09
5.73978e-09
-2.99937e-10
5.44947e-09
3.91704e-09
7.74327e-09
-7.33028e-09
5.10673e-09
-4.19496e-10
2.64308e-09
5.30208e-09
-7.13454e-09
-5.49781e-09
-4.83398e-09
4.75292e-09
5.1878e-09
4.92641e-10
-2.45099e-11
1.95361e-09
-1.10281e-09
-7.98532e-09
-3.36616e-09
3.94107e-09
-8.22688e-11
-9.4159e-09
5.35303e-09
3.64339e-09
-1.04941e-09
-6.41287e-09
-4.53799e-09
6.90276e-11
-4.08518e-09
5.21731e-09
3.6208e-09
-2.76272e-10
1.32159e-10
-2.93412e-09
-5.71147e-09
3.48099e-09
5.1646e-09
-3.21216e-09
1.76634e-12
-6.87238e-09
-2.52427e-09
8.34726e-09
7.09522e-09
-3.82953e-09
-6.47785e-09
1.76871e-09
-3.84969e-10
1.0009e-08
2.38418e-09
-7.04013e-09
-2.02648e-10
9.84656e-09
-1.43687e-09
-8.20704e-09
7.86537e-09
6.53123e-09
-4.53962e-09
-9.85697e-09
3.51813e-09
4.64607e-09
-2.98712e-10
8.40937e-09
-2.08075e-09
7.40285e-09
4.52467e-09
-3.40007e-09
1.13306e-08
1.91602e-09
7.46551e-09
-2.95889e-09
-7.9067e-09
5.5522e-09
-4.93431e-10
6.27184e-09
5.00286e-09
-1.37156e-08
4.17313e-09
-2.42244e-09
-2.65624e-09
1.25442e-08
7.57613e-09
5.37893e-09
6.85034e-09
8.47301e-09
-1.03205e-08
1.06601e-09
6.82863e-09
-1.04412e-09
-2.42015e-09
1.49434e-08
-4.94704e-09
6.44974e-09
-7.37678e-10
8.4741e-09
-2.42355e-09
9.33387e-09
5.96885e-09
4.44026e-09
5.01865e-09
-1.25024e-10
8.46983e-09
-4.91524e-09
2.7045e-09
5.06378e-09
-1.47302e-09
-5.14174e-09
-1.20311e-09
4.16427e-09
2.05415e-09
-5.0154e-09
1.44683e-09
-2.60353e-09
-4.64677e-11
1.05469e-09
4.22239e-09
1.85309e-09
-2.84969e-09
-4.76435e-10
-2.48695e-09
4.38154e-09
8.09936e-10
-3.18823e-09
7.80728e-10
-7.94167e-11
1.11689e-10
-1.46644e-08
-2.31111e-09
1.03549e-08
6.62055e-09
4.23671e-09
-6.17846e-09
-1.27227e-08
9.86454e-09
-6.70975e-09
5.0642e-09
-8.219e-09
5.19056e-09
2.36287e-09
3.73387e-09
2.02422e-10
3.00314e-10
3.58596e-09
1.05028e-08
1.3726e-09
-1.42608e-08
-4.51583e-09
4.90001e-09
4.80636e-09
7.06804e-10
-1.58458e-10
-1.26406e-10
8.61235e-09
-4.49179e-09
3.49767e-09
9.27117e-09
-8.27711e-09
8.65915e-10
-5.1553e-09
4.8569e-09
-8.64805e-09
5.16374e-09
4.0121e-09
1.01327e-09
-1.68497e-10
-4.90351e-09
8.27478e-09
-1.84608e-10
-2.67271e-09
3.28168e-09
5.32732e-09
4.82605e-09
1.31361e-09
-1.58747e-09
-2.42718e-09
3.0959e-09
9.18618e-10
-2.74049e-09
1.20931e-09
-5.65253e-11
-1.72863e-09
2.58315e-09
1.3062e-09
-4.21111e-10
5.74811e-10
-4.40209e-09
2.07956e-09
1.74758e-09
-3.49447e-09
2.65017e-09
1.41916e-09
-1.14002e-09
5.01861e-09
-5.32814e-09
-1.39582e-09
-3.84759e-11
-2.66634e-09
-2.64523e-09
9.09473e-10
7.57419e-09
-3.78254e-09
-7.28611e-09
1.82168e-09
-3.70757e-09
-2.2405e-09
7.26898e-09
-5.39517e-09
-1.33887e-09
-3.98565e-09
5.56646e-09
5.68819e-09
5.80761e-09
-6.10188e-09
-5.1009e-09
1.21201e-09
6.09957e-10
-1.04698e-08
-1.53521e-09
8.35501e-09
3.65004e-09
-2.43876e-09
-2.84595e-09
-5.18515e-09
5.59344e-09
-7.92234e-09
7.93682e-10
-7.06994e-09
-8.15589e-10
-6.32062e-09
-5.68616e-09
9.82637e-09
2.18042e-09
1.9605e-09
1.11929e-09
7.40271e-09
6.50252e-09
-7.54924e-09
-6.356e-09
8.13429e-09
-1.32465e-09
5.9307e-10
-1.41446e-08
-3.26051e-10
1.73737e-09
1.27332e-08
-1.6201e-09
-6.02193e-09
-1.53063e-08
2.21533e-09
1.27649e-08
-8.17914e-09
-8.74723e-09
2.26489e-10
2.34243e-09
-1.01182e-08
1.50182e-09
8.36982e-09
1.21066e-08
-1.49386e-08
2.84338e-09
-1.14682e-11
-4.19876e-09
1.22281e-09
1.50826e-08
-1.5864e-08
1.38806e-08
-1.37034e-08
-1.70993e-08
3.44433e-09
-1.1397e-08
8.78406e-09
2.519e-09
-8.96064e-09
6.96096e-09
4.98436e-10
-7.75685e-09
9.26692e-10
8.33196e-09
-1.11661e-09
3.2069e-10
1.18743e-08
-9.72478e-09
8.72165e-09
-1.16715e-08
-6.44641e-09
9.39624e-09
7.42445e-09
1.80575e-10
2.14686e-10
-1.04737e-08
-8.93783e-09
-1.85152e-09
-2.8111e-09
4.15717e-09
5.05443e-10
-6.60143e-10
4.35885e-09
-5.55025e-09
7.29959e-09
-5.50163e-10
-4.47428e-09
-2.27512e-09
5.66963e-09
1.16805e-08
-1.00506e-08
-2.56968e-09
-4.50389e-09
6.5234e-09
-1.42653e-09
-5.1596e-09
4.01645e-09
3.32691e-09
1.68258e-09
-1.87518e-09
-9.38902e-10
2.97913e-12
-4.85056e-11
5.11734e-09
-7.25891e-09
2.19008e-09
3.75948e-09
-5.23452e-09
-1.40605e-09
4.07739e-09
2.446e-09
4.7826e-10
2.21442e-09
3.68632e-09
-1.82336e-09
8.30326e-09
7.19743e-09
-1.52189e-09
-1.39788e-08
5.37252e-09
3.30464e-09
-3.73909e-10
-5.20624e-09
9.54291e-09
1.03586e-09
-1.48766e-08
1.19318e-08
6.24939e-09
2.37722e-09
-1.00564e-08
-5.82018e-09
1.8026e-09
-1.18866e-09
3.64083e-09
-1.09829e-08
1.2915e-10
3.44307e-09
2.77729e-09
6.8948e-09
9.29403e-09
6.14137e-09
-1.17946e-08
1.00818e-08
4.99468e-10
1.31745e-08
-1.02309e-08
-8.37158e-09
1.16483e-08
-3.75866e-09
1.22773e-08
3.83723e-09
-2.12706e-09
1.8326e-09
6.7413e-09
-1.10892e-08
2.51531e-09
7.41289e-09
-9.36903e-09
3.78875e-09
-1.10068e-08
7.11303e-09
6.58636e-09
-2.69256e-09
-2.10305e-09
-7.11771e-10
-8.192e-09
8.10649e-10
-4.62885e-10
6.39354e-09
7.48986e-10
7.47457e-09
3.77559e-09
-1.53322e-09
-1.33316e-08
-7.6965e-09
-6.68111e-11
-8.02924e-09
8.22375e-09
-1.27704e-10
6.55861e-09
-6.50603e-09
-1.19391e-10
-7.78104e-09
7.37391e-10
-2.72991e-10
7.31664e-09
-1.08635e-09
-1.36066e-10
-2.36624e-09
-9.4989e-09
1.11534e-08
6.21868e-09
-1.31026e-09
-5.99476e-09
3.41698e-10
6.61438e-09
8.20372e-09
1.19991e-09
-1.07624e-08
-7.67235e-09
7.48787e-09
-6.68599e-09
4.37698e-09
-5.95259e-09
8.26162e-09
8.47472e-10
-6.85233e-09
-6.811e-10
-3.60908e-09
9.70307e-10
7.01576e-09
-2.73484e-09
-2.67618e-11
-2.15182e-09
-5.60548e-09
1.80471e-09
-7.7582e-09
-1.24594e-09
-2.37601e-09
-1.89509e-09
5.24142e-09
-3.23106e-09
4.94016e-10
3.61068e-10
6.48346e-10
-3.09416e-09
-2.89005e-10
-2.18618e-09
-1.97617e-09
-1.44313e-09
-4.17802e-09
-5.76636e-09
-2.4153e-09
-1.674e-10
-5.07628e-09
-5.41934e-09
8.60054e-09