/*--------------------------------*- C++ -*----------------------------------*\
| =========                 |                                                 |
| \\      /  F ield         | OpenFOAM: The Open Source CFD Toolbox           |
|  \\    /   O peration     | Version:  v1612+                                |
|   \\  /    A nd           | Web:      www.OpenFOAM.com                      |
|    \\/     M anipulation  |                                                 |
\*---------------------------------------------------------------------------*/
FoamFile
{
    version     2.0;
    format      ascii;
    class       volVectorField;
    location    "200";
    object      U;
}
// * * * * * * * * * * * * * * * * * * * * * * * * * * * * * * * * * * * * * //

dimensions      [0 1 -1 0 0 0 0];

internalField   nonuniform List<vector> 
16860
(
(0.439831 0.422749 0.376515)
(0.617892 0.470445 0.167833)
(0.601052 0.488531 0.204732)
(0.594189 0.481128 0.176637)
(0.629735 0.451971 0.143224)
(0.656005 0.464621 0.176116)
(0.622297 0.439911 0.129702)
(0.619616 0.440454 0.165257)
(0.615101 0.450283 0.231858)
(0.643126 0.433228 0.217424)
(0.634631 0.491505 0.215404)
(0.601049 0.484024 0.251987)
(0.605158 0.46802 0.209223)
(0.611531 0.461643 0.25084)
(0.62916 0.411465 0.18258)
(0.608699 0.396837 0.177613)
(0.639974 0.437336 0.155689)
(0.602597 0.462037 0.203763)
(0.61914 0.458373 0.194875)
(0.59965 0.726516 0.508461)
(0.619903 0.722299 0.508547)
(0.622413 0.725364 0.507799)
(0.626115 0.719213 0.515306)
(0.629581 0.727388 0.502031)
(0.632344 0.706811 0.484658)
(0.592071 0.659602 0.483)
(0.589851 0.663823 0.468862)
(0.603059 0.717959 0.532191)
(0.606276 0.693973 0.484655)
(0.594813 0.675191 0.512175)
(0.61067 0.679936 0.480177)
(0.589448 0.660569 0.474582)
(0.600884 0.708626 0.567421)
(0.580018 0.666326 0.521519)
(0.606842 0.718029 0.541289)
(0.602854 0.680461 0.50676)
(0.587062 0.663937 0.513736)
(0.510958 0.339511 0.00865907)
(0.471904 0.316092 -0.0134077)
(0.524155 0.341143 -0.0011521)
(0.510366 0.321818 -0.0327493)
(0.504792 0.297711 -0.0546262)
(0.5058 0.326746 0.0109524)
(0.471935 0.309868 -0.0172978)
(0.576199 0.385772 0.0113143)
(0.586 0.380968 0.0161921)
(0.535041 0.290051 -0.0586537)
(0.495153 0.254802 -0.0586527)
(0.471676 0.291739 -0.0425596)
(0.604922 0.384448 -0.0054405)
(0.606424 0.366281 -0.0134003)
(0.554379 0.331541 -0.0344594)
(0.62573 0.300879 -0.244778)
(0.603592 0.290762 -0.229266)
(0.624657 0.340753 -0.168667)
(0.62519 0.3348 -0.201667)
(0.578143 0.234455 -0.272964)
(0.583473 0.261577 -0.19793)
(0.592226 0.270499 -0.187488)
(0.617855 0.333951 -0.169453)
(0.616437 0.327091 -0.214207)
(0.595755 0.288938 -0.249079)
(0.567398 0.251426 -0.174614)
(0.555401 0.238189 -0.199763)
(0.561407 0.231824 -0.188294)
(0.546013 0.220959 -0.206721)
(0.544954 0.213104 -0.22458)
(0.580028 0.267908 -0.180342)
(0.631889 0.391653 0.125417)
(0.586197 0.324506 0.0980487)
(0.624181 0.397958 0.126857)
(0.613108 0.349853 0.135165)
(0.56228 0.32963 0.141659)
(0.605426 0.379848 0.159594)
(0.596876 0.341806 0.136052)
(0.563158 0.307911 0.143276)
(0.602558 0.397171 0.191442)
(0.62805 0.436924 0.218516)
(0.348496 0.350847 0.169865)
(0.342304 0.320984 0.169018)
(0.325551 0.310037 0.133217)
(0.308656 0.272227 0.111846)
(0.38518 0.367854 0.221924)
(0.391644 0.315335 0.166811)
(0.412624 0.346801 0.19296)
(0.327741 0.276781 0.121314)
(0.31768 0.284519 0.12988)
(0.429579 0.445712 0.302709)
(0.396588 0.426355 0.264181)
(0.366917 0.308355 0.177455)
(0.38114 0.353597 0.1826)
(0.437879 0.455304 0.272405)
(0.444779 0.449632 0.296869)
(0.382191 0.367107 0.224509)
(0.180164 0.28527 0.131832)
(0.165168 0.256097 0.0878737)
(0.176984 0.291746 0.152509)
(0.174218 0.26924 0.132593)
(0.181849 0.271198 0.135332)
(0.184191 0.280304 0.150996)
(0.217869 0.303549 0.160627)
(0.203082 0.312078 0.170025)
(0.194198 0.268404 0.10275)
(0.24695 0.336527 0.16478)
(0.229561 0.355475 0.197676)
(0.202646 0.33361 0.203789)
(0.22551 0.355918 0.224975)
(0.242124 0.363849 0.215459)
(0.180705 0.253364 0.0755082)
(0.20556 0.306196 0.117613)
(0.233339 0.307065 0.121923)
(0.218049 0.313201 0.108313)
(0.244984 0.338694 0.141761)
(0.678597 0.632103 0.647318)
(0.665384 0.575183 0.656724)
(0.690752 0.599325 0.652741)
(0.690686 0.613102 0.656149)
(0.638944 0.661783 0.632081)
(0.580546 0.618769 0.61386)
(0.659214 0.579441 0.653664)
(0.701296 0.666005 0.65103)
(0.653112 0.669391 0.645617)
(0.667697 0.597088 0.66721)
(0.636871 0.589373 0.659541)
(0.70563 0.65282 0.656784)
(0.706444 0.583797 0.640005)
(0.66337 0.571117 0.674822)
(0.685437 0.588229 0.647238)
(0.690563 0.774337 0.576484)
(0.677685 0.761348 0.598892)
(0.651812 0.740853 0.584298)
(0.610142 0.734399 0.56436)
(0.641682 0.756422 0.55237)
(0.685391 0.763162 0.548115)
(0.681068 0.76502 0.566698)
(0.622457 0.7673 0.569776)
(0.651694 0.739005 0.580025)
(0.62223 0.745334 0.568569)
(0.599163 0.729271 0.574629)
(0.648737 0.729894 0.564244)
(0.582765 0.740381 0.587792)
(0.657003 0.734924 0.569194)
(0.539026 0.410072 0.102155)
(0.54387 0.389597 0.102726)
(0.561502 0.447395 0.145152)
(0.579259 0.438909 0.187705)
(0.544562 0.482068 0.174153)
(0.552984 0.513426 0.215641)
(0.535925 0.477523 0.174894)
(0.537588 0.50146 0.199559)
(0.509678 0.454668 0.18108)
(0.52929 0.473698 0.165393)
(0.488525 0.402716 0.080043)
(0.492915 0.37586 0.0784741)
(0.547562 0.474419 0.19624)
(0.585777 0.477398 0.235922)
(0.533564 0.375797 0.124399)
(0.553897 0.434166 0.200352)
(0.549862 0.422649 0.201635)
(0.53176 0.419633 0.185242)
(0.502907 0.679248 0.036928)
(0.484488 0.655668 0.132401)
(0.380693 0.606594 -0.0813556)
(0.379727 0.60331 -0.13504)
(0.419526 0.622069 0.0926292)
(0.414058 0.61604 -0.0504298)
(0.512684 0.666423 0.202964)
(0.437058 0.628492 -0.0741354)
(0.407758 0.613041 -0.143663)
(0.407635 0.589197 -0.122228)
(0.410742 0.598375 0.0338347)
(0.482961 0.616354 0.137461)
(0.410396 0.593156 0.0713681)
(0.358887 0.621642 0.716314)
(0.350222 0.588358 0.684316)
(0.391374 0.57981 0.694011)
(0.389761 0.581516 0.69731)
(0.351529 0.607336 0.701455)
(0.336709 0.614653 0.706457)
(0.417664 0.587345 0.700245)
(0.40399 0.57171 0.695956)
(0.394266 0.634223 0.745537)
(0.402998 0.636082 0.747032)
(0.427249 0.593352 0.733422)
(0.400095 0.613913 0.733177)
(0.429256 0.587264 0.726892)
(0.41406 0.588708 0.711433)
(0.438286 0.590696 0.712457)
(0.412971 0.600743 0.730913)
(0.421863 0.594555 0.736283)
(0.394064 0.603619 0.728138)
(0.435187 0.589859 0.733499)
(0.443335 0.657342 0.732224)
(0.436233 0.62638 0.710282)
(0.453835 0.57652 0.719367)
(0.44932 0.611416 0.74341)
(0.455058 0.584237 0.732553)
(0.442676 0.54145 0.694476)
(0.44013 0.61969 0.716871)
(0.442046 0.552463 0.68262)
(0.42957 0.636907 0.73081)
(0.434216 0.63954 0.739457)
(0.438067 0.622504 0.732863)
(0.438793 0.603845 0.73141)
(0.44724 0.532818 0.697692)
(0.168394 0.265164 0.261285)
(0.17143 0.261667 0.273791)
(0.177626 0.264539 0.307266)
(0.15431 0.2449 0.223999)
(0.151245 0.22671 0.230155)
(0.173482 0.278461 0.271084)
(0.182555 0.284705 0.30896)
(0.190043 0.257708 0.301866)
(0.189871 0.228864 0.297864)
(0.180062 0.231962 0.289183)
(0.15752 0.218814 0.235264)
(0.172609 0.220796 0.250016)
(0.180866 0.248068 0.271714)
(0.160979 0.236334 0.22427)
(0.159426 0.211247 0.217318)
(0.173423 0.260307 0.254729)
(0.598263 0.622185 0.138312)
(0.563568 0.610278 0.174574)
(0.594221 0.675688 0.177722)
(0.654101 0.733017 0.274079)
(0.580044 0.603391 0.118411)
(0.544231 0.604156 0.159269)
(0.628477 0.6914 0.285246)
(0.693156 0.718063 0.262427)
(0.649138 0.692646 0.222449)
(0.63089 0.699135 0.371044)
(0.639013 0.683328 0.352365)
(0.635469 0.724178 0.346)
(0.646453 0.687639 0.321293)
(0.611876 0.640727 0.172655)
(0.643811 0.690779 0.311308)
(0.656196 0.707472 0.30211)
(0.420785 0.475689 0.12942)
(0.392489 0.465281 0.0852744)
(0.465028 0.517327 0.169135)
(0.417783 0.48828 0.0675111)
(0.363896 0.44037 0.029214)
(0.547646 0.592151 0.174957)
(0.484544 0.555203 0.149965)
(0.449394 0.518946 0.186125)
(0.547764 0.586643 0.260273)
(0.422689 0.484733 0.0571777)
(0.443923 0.49606 0.0889992)
(0.461572 0.519063 0.105254)
(0.378846 0.464605 0.0401923)
(0.524576 0.566262 0.21864)
(0.572343 0.598008 0.274179)
(0.568544 0.611408 0.233634)
(0.687918 0.660802 0.613327)
(0.64616 0.64118 0.629325)
(0.740755 0.685654 0.615939)
(0.559301 0.645669 0.540532)
(0.711442 0.746968 0.463884)
(0.641316 0.697525 0.462237)
(0.678274 0.711714 0.580335)
(0.621965 0.660431 0.56264)
(0.648736 0.681656 0.57441)
(0.639334 0.645027 0.568906)
(0.581923 0.702878 0.587577)
(0.76125 0.73315 0.576506)
(0.592878 0.706496 0.536574)
(0.688952 0.777518 0.466029)
(0.627875 0.734016 0.594205)
(0.648 0.71946 0.616403)
(0.65527 0.739596 0.623705)
(0.641415 0.735189 0.592256)
(0.671649 0.735442 0.590762)
(0.610317 0.719147 0.619223)
(0.600715 0.72998 0.60937)
(0.679508 0.732303 0.612127)
(0.66751 0.753478 0.63557)
(0.685277 0.759502 0.59628)
(0.650714 0.739922 0.591096)
(0.689936 0.768423 0.604864)
(0.59511 0.726229 0.604656)
(0.628352 0.727989 0.613284)
(0.154319 0.273991 0.276962)
(0.148604 0.281542 0.280063)
(0.163759 0.291926 0.257369)
(0.162735 0.275052 0.258149)
(0.153522 0.251018 0.251121)
(0.14053 0.264526 0.268361)
(0.125541 0.204877 0.23433)
(0.127255 0.193935 0.213523)
(0.120141 0.165471 0.199557)
(0.147292 0.253926 0.277503)
(0.141663 0.267768 0.299377)
(0.119725 0.159131 0.209874)
(0.124784 0.176344 0.227603)
(0.120744 0.165767 0.209453)
(0.128217 0.190976 0.243023)
(0.125241 0.177715 0.223253)
(0.146114 0.255647 0.28406)
(0.128324 0.18911 0.25414)
(0.133842 0.206143 0.223619)
(0.501528 0.528267 0.586906)
(0.492207 0.545296 0.643095)
(0.5044 0.534393 0.589976)
(0.509758 0.528368 0.614584)
(0.507217 0.51462 0.633501)
(0.547975 0.490499 0.53866)
(0.533778 0.445712 0.585396)
(0.536376 0.482897 0.580242)
(0.512639 0.242293 0.203669)
(0.542322 0.290474 0.224747)
(0.486472 0.218089 0.188563)
(0.467391 0.189548 0.162586)
(0.493686 0.214762 0.156064)
(0.524605 0.260694 0.163342)
(0.5938 0.357529 0.287716)
(0.59532 0.354133 0.234308)
(0.577558 0.296689 0.214343)
(0.439151 0.145288 0.101682)
(0.525237 0.259283 0.197487)
(0.49196 0.214752 0.123963)
(0.457106 0.170772 0.0884522)
(0.61829 0.379302 0.271628)
(0.615243 0.384356 0.282318)
(0.606104 0.373574 0.273884)
(0.619717 0.384885 0.314929)
(0.49773 0.20185 0.136031)
(0.606375 0.361035 0.243653)
(0.538489 0.266083 0.152492)
(0.205408 0.392043 0.307881)
(0.20963 0.401619 0.330841)
(0.220448 0.431223 0.340711)
(0.244751 0.449166 0.338281)
(0.209386 0.394224 0.303214)
(0.222896 0.420873 0.303525)
(0.275966 0.456723 0.387783)
(0.284173 0.459229 0.397804)
(0.214212 0.406043 0.355883)
(0.22516 0.418861 0.364285)
(0.222691 0.414044 0.325594)
(0.220836 0.406422 0.336293)
(0.24126 0.464508 0.382898)
(0.242509 0.473436 0.355387)
(0.252867 0.455645 0.353634)
(0.29086 0.453937 0.40545)
(0.280569 0.450647 0.417088)
(0.252908 0.472289 0.379435)
(0.2379 0.460712 0.401821)
(0.637054 0.331111 -0.256678)
(0.638187 0.330432 -0.300409)
(0.640016 0.337052 -0.319714)
(0.625365 0.345432 -0.274613)
(0.606083 0.269985 -0.328771)
(0.605666 0.252927 -0.299245)
(0.605342 0.256548 -0.336874)
(0.587875 0.220138 -0.331427)
(0.661433 0.321482 -0.256325)
(0.591562 0.222846 -0.33579)
(0.590412 0.23154 -0.300589)
(0.635491 0.315473 -0.260895)
(0.577666 0.227751 -0.333894)
(0.614434 0.260197 -0.292313)
(0.595431 0.242322 -0.302663)
(0.227111 0.434773 0.338177)
(0.259325 0.465467 0.353468)
(0.282364 0.479682 0.369964)
(0.310648 0.512424 0.409728)
(0.317854 0.512776 0.410162)
(0.343119 0.536848 0.481983)
(0.347744 0.545743 0.454505)
(0.26448 0.494336 0.447141)
(0.287996 0.508511 0.480372)
(0.223527 0.440995 0.369171)
(0.23666 0.470653 0.42069)
(0.225142 0.463842 0.386174)
(0.294387 0.501453 0.463376)
(0.314817 0.519506 0.458609)
(0.285969 0.512869 0.468416)
(0.264 0.498818 0.440873)
(0.239918 0.471012 0.413493)
(0.284524 0.513771 0.428792)
(0.418133 0.630583 0.738281)
(0.427227 0.630333 0.730253)
(0.412851 0.662159 0.731268)
(0.404292 0.667982 0.736135)
(0.416886 0.623079 0.717231)
(0.418374 0.631213 0.720453)
(0.414454 0.640566 0.744152)
(0.406876 0.640554 0.756532)
(0.372501 0.663633 0.746075)
(0.396955 0.660062 0.75006)
(0.370611 0.536475 0.512053)
(0.283524 0.501878 0.44614)
(0.286407 0.505906 0.464913)
(0.429839 0.584406 0.559052)
(0.326048 0.515652 0.456648)
(0.410957 0.569315 0.546025)
(0.320297 0.499572 0.4813)
(0.378032 0.590624 0.571403)
(0.378102 0.585095 0.532167)
(0.229578 0.468496 0.430078)
(0.301726 0.495635 0.461429)
(0.400203 0.592275 0.582112)
(0.366253 0.584697 0.555211)
(0.215629 0.458378 0.387435)
(0.256145 0.483796 0.452324)
(0.300436 0.524866 0.504346)
(0.239836 0.47047 0.406735)
(0.225655 0.456961 0.413133)
(0.557831 0.498062 0.0868384)
(0.614286 0.466997 0.0413508)
(0.615986 0.469018 0.036598)
(0.630181 0.42975 -0.0308145)
(0.640629 0.47604 0.0324994)
(0.613671 0.466914 0.0829246)
(0.585159 0.478962 0.0871526)
(0.627231 0.495061 0.146083)
(0.60494 0.510543 0.0596361)
(0.64457 0.454681 0.0887432)
(0.544805 0.502125 0.141922)
(0.55955 0.500634 0.143135)
(0.595829 0.500147 0.183749)
(0.577421 0.510314 0.0975549)
(0.609021 0.470111 0.0617002)
(0.582727 0.520482 0.151649)
(0.595528 0.501808 0.120339)
(0.376324 0.53275 0.352358)
(0.306219 0.498773 0.295981)
(0.278561 0.477775 0.254634)
(0.30337 0.5046 0.28652)
(0.280085 0.479672 0.310267)
(0.294022 0.493715 0.308587)
(0.409686 0.568924 0.365276)
(0.404983 0.549138 0.348737)
(0.319804 0.502519 0.210171)
(0.302843 0.505166 0.257939)
(0.340753 0.519771 0.342562)
(0.308753 0.503198 0.232625)
(0.288061 0.48925 0.28516)
(0.330555 0.510166 0.26761)
(0.331524 0.502237 0.19624)
(0.410546 0.553316 0.273653)
(0.449716 0.553488 0.325114)
(0.331086 0.508579 0.215173)
(0.321191 0.52549 0.26071)
(0.357119 0.532816 0.300484)
(0.411851 0.54591 0.264428)
(0.469682 0.621445 0.663384)
(0.472758 0.621466 0.662896)
(0.453644 0.660232 0.712659)
(0.466027 0.635685 0.688945)
(0.481199 0.663756 0.682752)
(0.468889 0.613976 0.671041)
(0.460041 0.60966 0.669606)
(0.460553 0.655726 0.706319)
(0.466873 0.672084 0.713335)
(0.457939 0.65954 0.71855)
(0.481622 0.669838 0.692934)
(0.487294 0.660364 0.68184)
(0.46719 0.629951 0.701557)
(0.463837 0.633618 0.692501)
(0.454901 0.665729 0.725254)
(0.45943 0.684062 0.714561)
(0.47549 0.639277 0.68296)
(0.460751 0.66916 0.707824)
(0.455486 0.683922 0.704961)
(0.463862 0.652447 0.699876)
(0.414877 0.562583 0.591616)
(0.393701 0.555987 0.578658)
(0.452969 0.591505 0.633593)
(0.460947 0.561455 0.605088)
(0.410288 0.545439 0.57026)
(0.49902 0.568462 0.646228)
(0.490891 0.580031 0.651006)
(0.490391 0.566351 0.652173)
(0.491798 0.54118 0.629969)
(0.429591 0.596765 0.631874)
(0.47329 0.599858 0.657254)
(0.49195 0.534716 0.621333)
(0.381995 0.567156 0.595267)
(0.399166 0.567252 0.619625)
(0.444401 0.598555 0.664329)
(0.441006 0.561295 0.608316)
(0.434678 0.580999 0.660708)
(0.502091 0.651769 0.528243)
(0.490908 0.63953 0.505924)
(0.497688 0.639152 0.470835)
(0.506251 0.646336 0.543195)
(0.542572 0.647031 0.502972)
(0.548045 0.665573 0.488495)
(0.542539 0.67616 0.558153)
(0.586503 0.755591 0.599651)
(0.507815 0.677412 0.530128)
(0.545922 0.692995 0.59362)
(0.514411 0.66613 0.527495)
(0.585555 0.724243 0.509639)
(0.585533 0.7091 0.593463)
(0.576041 0.727301 0.549961)
(0.445191 0.576872 0.71163)
(0.42426 0.605209 0.73307)
(0.417308 0.573345 0.695699)
(0.336819 0.620755 0.705721)
(0.355929 0.611152 0.712946)
(0.421491 0.600008 0.734784)
(0.420118 0.57406 0.69599)
(0.405796 0.579184 0.694501)
(0.345324 0.601474 0.699287)
(0.36794 0.625484 0.722635)
(0.399075 0.613926 0.730569)
(0.412081 0.607622 0.729463)
(0.257229 0.565269 0.552559)
(0.326926 0.652711 0.677584)
(0.220115 0.524475 0.505421)
(0.250821 0.556651 0.557164)
(0.204792 0.504879 0.481786)
(0.284368 0.578831 0.628698)
(0.382121 0.551739 0.496334)
(0.381257 0.550486 0.492167)
(0.437759 0.468019 0.376382)
(0.421628 0.474582 0.35978)
(0.388836 0.517183 0.428695)
(0.291633 0.485303 0.352894)
(0.354077 0.398516 0.292759)
(0.367897 0.395894 0.307597)
(0.317419 0.444721 0.310115)
(0.330138 0.429264 0.298495)
(0.572108 0.445936 0.392652)
(0.547536 0.409622 0.365508)
(0.604948 0.432188 0.386781)
(0.604103 0.457779 0.337645)
(0.531977 0.417948 0.391298)
(0.525146 0.402778 0.372761)
(0.573837 0.438412 0.363421)
(0.560651 0.458442 0.40727)
(0.596577 0.493048 0.403016)
(0.606016 0.488472 0.386412)
(0.529003 0.449702 0.383785)
(0.517647 0.416813 0.355616)
(0.585986 0.506217 0.437793)
(0.549416 0.441023 0.364184)
(0.603959 0.503526 0.419655)
(0.578799 0.522188 0.443608)
(0.556914 0.491825 0.409752)
(0.375336 0.52338 0.311439)
(0.306163 0.513485 0.288187)
(0.28865 0.483076 0.287158)
(0.357193 0.524619 0.229036)
(0.32743 0.497612 0.232875)
(0.378284 0.543981 0.330677)
(0.390113 0.561831 0.268984)
(0.277753 0.469999 0.235065)
(0.312468 0.504731 0.168609)
(0.294985 0.503307 0.176519)
(0.294273 0.456874 0.244114)
(0.346656 0.500799 0.303898)
(0.393369 0.556457 0.280905)
(0.421325 0.573606 0.28395)
(0.287531 0.46025 0.197908)
(0.380234 0.559762 0.221398)
(0.289249 0.455176 0.224306)
(0.370925 0.525297 0.306228)
(0.32412 0.51186 0.188197)
(0.28559 0.49419 0.11154)
(0.29999 0.494346 0.108843)
(0.290448 0.458626 0.15658)
(0.304877 0.492876 0.173804)
(0.184154 0.384913 0.323359)
(0.231051 0.434151 0.357497)
(0.181228 0.422058 0.359818)
(0.172735 0.406094 0.362502)
(0.175517 0.403428 0.345428)
(0.208851 0.446022 0.377744)
(0.173299 0.386327 0.341045)
(0.186412 0.414981 0.351447)
(0.180346 0.377641 0.325732)
(0.261678 0.453147 0.377518)
(0.233568 0.408127 0.320015)
(0.196973 0.382473 0.306765)
(0.249742 0.484378 0.43893)
(0.264221 0.472402 0.383893)
(0.445443 0.655831 0.71244)
(0.449813 0.651926 0.699912)
(0.445866 0.638507 0.713034)
(0.443009 0.602512 0.678205)
(0.454573 0.681139 0.708101)
(0.466953 0.663602 0.690469)
(0.454457 0.665048 0.709868)
(0.459026 0.65873 0.688237)
(0.438553 0.67353 0.717313)
(0.456056 0.625333 0.714246)
(0.447888 0.619195 0.693537)
(0.461777 0.648859 0.689362)
(0.440525 0.655309 0.721896)
(0.45988 0.621715 0.684558)
(0.55213 0.69304 0.673183)
(0.559299 0.676879 0.654699)
(0.580093 0.671578 0.656693)
(0.576139 0.667342 0.657688)
(0.502377 0.695805 0.686047)
(0.521517 0.688517 0.671568)
(0.522571 0.702285 0.6935)
(0.565046 0.670804 0.669178)
(0.539831 0.664025 0.653101)
(0.504386 0.691795 0.677412)
(0.532624 0.686614 0.662923)
(0.539111 0.676758 0.653324)
(0.52932 0.694061 0.679359)
(0.507885 0.686454 0.677866)
(0.429419 0.626546 0.695402)
(0.435582 0.60542 0.704406)
(0.444776 0.586091 0.691119)
(0.43144 0.589916 0.708817)
(0.363667 0.387554 0.295135)
(0.393968 0.435283 0.328251)
(0.314565 0.46163 0.3607)
(0.289814 0.428677 0.331255)
(0.317914 0.439327 0.337011)
(0.36332 0.450932 0.351332)
(0.365497 0.401182 0.297369)
(0.337575 0.371362 0.272645)
(0.331344 0.39283 0.275358)
(0.316192 0.449098 0.357399)
(0.272868 0.389693 0.289877)
(0.348827 0.478402 0.380617)
(0.308605 0.418458 0.321005)
(0.262633 0.324008 0.228258)
(0.275467 0.30426 0.218854)
(0.290241 0.344531 0.248207)
(0.300265 0.339015 0.24338)
(0.397325 0.479043 0.400998)
(0.288086 0.34775 0.248156)
(0.308539 0.337286 0.24015)
(0.276348 0.348632 0.239183)
(0.32128 0.338205 0.25616)
(0.427767 0.45403 0.364747)
(0.382283 0.380896 0.297603)
(0.362127 0.383907 0.292193)
(0.324936 0.386754 0.282079)
(0.402195 0.410778 0.338198)
(0.434323 0.467453 0.378476)
(0.445205 0.546373 0.473658)
(0.469796 0.509583 0.452855)
(0.296682 0.436275 0.312204)
(0.316248 0.466813 0.364556)
(0.331063 0.506059 0.428294)
(0.311116 0.488514 0.3997)
(0.401816 0.54459 0.477961)
(0.477185 0.537568 0.492987)
(0.348857 0.44995 0.331055)
(0.383286 0.544232 0.465622)
(0.429627 0.523484 0.429924)
(0.408043 0.516114 0.436598)
(0.254211 0.430834 0.345066)
(0.261698 0.440078 0.351606)
(0.255936 0.400677 0.291939)
(0.191772 0.307469 0.238261)
(0.256589 0.44054 0.357932)
(0.302702 0.463898 0.372972)
(0.326244 0.45508 0.319078)
(0.338424 0.470105 0.330243)
(0.297386 0.424163 0.293123)
(0.269448 0.417268 0.292123)
(0.355601 0.455973 0.325817)
(0.33488 0.427078 0.298129)
(0.29234 0.402133 0.299031)
(0.257485 0.371791 0.267691)
(0.230017 0.363826 0.260376)
(0.255561 0.368462 0.251654)
(0.285193 0.465656 0.374607)
(0.23167 0.373395 0.272025)
(0.268567 0.37404 0.263266)
(0.62698 0.432889 -0.11432)
(0.600205 0.456878 -0.0357887)
(0.610556 0.427905 -0.0828093)
(0.633266 0.43375 -0.138751)
(0.624283 0.433686 -0.0803488)
(0.594584 0.420494 -0.118264)
(0.591167 0.427176 -0.210574)
(0.571966 0.457732 -0.109361)
(0.599542 0.46708 -0.128908)
(0.640162 0.391231 -0.230292)
(0.640879 0.382964 -0.161988)
(0.527554 0.590593 0.554808)
(0.525884 0.583806 0.558136)
(0.518619 0.576545 0.576865)
(0.523994 0.599272 0.573054)
(0.566354 0.557456 0.535102)
(0.565028 0.55491 0.543182)
(0.544503 0.585697 0.544269)
(0.558552 0.560548 0.544669)
(0.559399 0.551698 0.560486)
(0.558143 0.588051 0.565895)
(0.54433 0.560336 0.555653)
(0.247461 0.347869 0.312669)
(0.27016 0.349783 0.358411)
(0.268576 0.362998 0.322758)
(0.284487 0.373093 0.312048)
(0.315241 0.376572 0.416726)
(0.281157 0.429645 0.412149)
(0.261496 0.407495 0.372654)
(0.318926 0.383291 0.425799)
(0.287311 0.387051 0.344977)
(0.275844 0.428253 0.340152)
(0.342393 0.427352 0.429965)
(0.362211 0.445391 0.453298)
(0.332995 0.461813 0.44103)
(0.318766 0.452847 0.397628)
(0.26269 0.397216 0.319729)
(0.324894 0.444797 0.365353)
(0.48297 0.478574 -0.00570155)
(0.556811 0.51035 0.0634468)
(0.450422 0.349088 -0.156868)
(0.531889 0.357589 -0.0976376)
(0.588343 0.461303 0.0488582)
(0.559849 0.483134 0.065974)
(0.46754 0.416809 -0.10585)
(0.45313 0.379666 -0.180013)
(0.432962 0.331714 -0.257474)
(0.527831 0.504253 0.00308739)
(0.448275 0.321723 -0.205338)
(0.586386 0.515189 0.00693765)
(0.565874 0.47907 -0.0656244)
(0.477801 0.423648 -0.201376)
(0.441987 0.379596 -0.238223)
(0.50913 0.494755 -0.0600492)
(0.507099 0.316726 -0.155728)
(0.475984 0.308629 -0.195004)
(0.537509 0.495485 -0.0633554)
(0.557882 0.353797 -0.147676)
(0.52804 0.328119 -0.200148)
(0.517093 0.383054 -0.198188)
(0.51418 0.394338 0.616632)
(0.516783 0.374114 0.6215)
(0.504653 0.388502 0.622054)
(0.489177 0.352043 0.600946)
(0.491333 0.383087 0.610163)
(0.456542 0.333581 0.587575)
(0.472878 0.445599 0.596303)
(0.452173 0.434895 0.5921)
(0.431406 0.334258 0.573175)
(0.467541 0.354676 0.591926)
(0.42307 0.311686 0.553341)
(0.396551 0.324867 0.556935)
(0.394908 0.304351 0.532553)
(0.407736 0.393346 0.572525)
(0.396405 0.30239 0.551773)
(0.388355 0.323088 0.54789)
(0.431624 0.414979 0.583188)
(0.682319 0.788642 0.396831)
(0.693113 0.697739 0.301753)
(0.692641 0.725469 0.232615)
(0.684989 0.727361 0.305718)
(0.671015 0.716026 0.227695)
(0.707031 0.779708 0.374434)
(0.7352 0.793732 0.401344)
(0.702408 0.813235 0.355992)
(0.71391 0.763721 0.353463)
(0.728028 0.826805 0.393627)
(0.700802 0.765663 0.278146)
(0.73719 0.736346 0.333505)
(0.711766 0.667098 0.217927)
(0.723804 0.804958 0.255066)
(0.653285 0.603271 0.113643)
(0.767453 0.799154 0.327019)
(0.75288 0.753946 0.298061)
(0.770347 0.821174 0.281728)
(0.714149 0.737367 0.206802)
(0.471293 0.344903 0.0265545)
(0.450855 0.309091 -0.0235919)
(0.503165 0.2748 0.0366524)
(0.457354 0.234959 -0.013889)
(0.532457 0.328226 0.0493233)
(0.451455 0.274052 -0.0199646)
(0.453504 0.297564 -0.05227)
(0.433609 0.242276 -0.100792)
(0.440893 0.244854 -0.0475596)
(0.521797 0.509589 0.675991)
(0.513903 0.528636 0.690558)
(0.524253 0.433802 0.618908)
(0.541613 0.455535 0.627027)
(0.529105 0.508741 0.659166)
(0.535916 0.5127 0.661663)
(0.539769 0.462657 0.63639)
(0.526615 0.401309 0.587939)
(0.501345 0.384426 0.566324)
(0.533241 0.4462 0.61662)
(0.559727 0.46277 0.579429)
(0.547227 0.480889 0.592078)
(0.531063 0.413631 0.576494)
(0.531268 0.40938 0.548056)
(0.53145 0.406076 0.553492)
(0.503873 0.359108 0.516956)
(0.212305 0.334274 0.153648)
(0.217662 0.377689 0.211044)
(0.200716 0.312506 0.112271)
(0.174152 0.292434 0.100061)
(0.205807 0.320488 0.132157)
(0.168917 0.267603 0.0976263)
(0.194271 0.328678 0.198161)
(0.194767 0.353705 0.227456)
(0.196589 0.328616 0.212427)
(0.167553 0.281061 0.117042)
(0.18758 0.309472 0.201622)
(0.205693 0.357594 0.25128)
(0.178879 0.288006 0.177075)
(0.181534 0.29218 0.159309)
(0.67132 0.711508 0.563421)
(0.68953 0.710139 0.542821)
(0.671332 0.671727 0.562501)
(0.685398 0.665574 0.507862)
(0.728934 0.701695 0.584314)
(0.705339 0.715126 0.582361)
(0.70572 0.692421 0.573443)
(0.682369 0.73866 0.592983)
(0.739414 0.723313 0.563551)
(0.74781 0.735064 0.568842)
(0.701557 0.665195 0.525343)
(0.637951 0.558613 0.628807)
(0.642814 0.539392 0.624272)
(0.636913 0.556499 0.641854)
(0.635431 0.547878 0.634231)
(0.613628 0.611763 0.663515)
(0.614124 0.616839 0.662263)
(0.631903 0.583602 0.63477)
(0.643421 0.54319 0.628977)
(0.612462 0.656052 0.664763)
(0.626169 0.649926 0.670149)
(0.611272 0.659114 0.6642)
(0.604199 0.671132 0.667484)
(0.619364 0.623116 0.662458)
(0.618795 0.549599 0.608119)
(0.618169 0.547968 0.618862)
(0.637565 0.564505 0.627048)
(0.615993 0.538725 0.605666)
(0.648345 0.623083 0.627428)
(0.624544 0.581287 0.622188)
(0.626503 0.566579 0.609064)
(0.601418 0.621806 0.645231)
(0.613038 0.586937 0.622886)
(0.511778 0.37016 0.411489)
(0.552044 0.412899 0.462555)
(0.555156 0.464407 0.528835)
(0.551942 0.473899 0.52425)
(0.55003 0.428861 0.493345)
(0.516031 0.383422 0.464708)
(0.549686 0.481243 0.489501)
(0.450303 0.306776 0.350402)
(0.510337 0.406224 0.424644)
(0.501951 0.36073 0.411108)
(0.51195 0.384699 0.399787)
(0.492744 0.352098 0.379969)
(0.517572 0.411618 0.417383)
(0.467687 0.55501 0.575059)
(0.533207 0.579417 0.569657)
(0.467468 0.556604 0.53839)
(0.500222 0.604608 0.554346)
(0.484763 0.598482 0.548894)
(0.406955 0.515898 0.470079)
(0.397512 0.514164 0.518382)
(0.475873 0.601403 0.530457)
(0.505618 0.581501 0.503092)
(0.362506 0.493499 0.465456)
(0.381991 0.501887 0.466901)
(0.427182 0.572575 0.445078)
(0.439576 0.568721 0.450359)
(0.378249 0.53231 0.468224)
(0.366487 0.517693 0.4486)
(0.573045 0.659551 0.568464)
(0.562149 0.661777 0.575334)
(0.54194 0.622437 0.56269)
(0.549305 0.635798 0.584733)
(0.560304 0.645458 0.549898)
(0.558037 0.6628 0.551969)
(0.554059 0.653685 0.573428)
(0.548475 0.66759 0.580177)
(0.529627 0.611365 0.50041)
(0.506977 0.570323 0.484866)
(0.496807 0.571919 0.461107)
(0.468679 0.543791 0.436272)
(0.503968 0.588418 0.523042)
(0.50995 0.580901 0.481273)
(0.510242 0.583515 0.473896)
(0.545337 0.624152 0.545139)
(0.532978 0.605007 0.520056)
(0.495197 0.580331 0.500097)
(0.535311 0.608862 0.488942)
(0.456419 0.497119 0.319619)
(0.433048 0.467115 0.280978)
(0.417233 0.469912 0.272198)
(0.351515 0.409287 0.193545)
(0.498944 0.530203 0.358556)
(0.442389 0.483565 0.327332)
(0.431739 0.506117 0.242899)
(0.382663 0.458779 0.182895)
(0.381437 0.437768 0.23159)
(0.520379 0.549689 0.362393)
(0.444735 0.496763 0.335968)
(0.404772 0.459923 0.22111)
(0.490637 0.535047 0.314124)
(0.455682 0.526599 0.26038)
(0.508227 0.550766 0.346612)
(0.461717 0.533739 0.309984)
(0.551584 0.593218 0.42928)
(0.541244 0.592081 0.407813)
(0.421261 0.469929 0.294753)
(0.558431 0.611781 0.405488)
(0.572113 0.604938 0.410671)
(0.496648 0.547829 0.366426)
(0.482856 0.543636 0.677248)
(0.474255 0.553834 0.68234)
(0.488164 0.533057 0.682559)
(0.446982 0.559252 0.721308)
(0.406064 0.608784 0.733695)
(0.378299 0.600315 0.713752)
(0.414822 0.586698 0.68916)
(0.417826 0.577334 0.679344)
(0.563375 0.332085 0.143428)
(0.550088 0.361411 0.157636)
(0.486713 0.247534 0.102447)
(0.446241 0.228146 0.108779)
(0.562857 0.360739 0.160904)
(0.555796 0.381704 0.166935)
(0.435924 0.215447 0.0870426)
(0.406661 0.18802 0.08228)
(0.484534 0.278735 0.122841)
(0.451052 0.265916 0.135291)
(0.461228 0.271171 0.136806)
(0.470278 0.30295 0.158253)
(0.397551 0.217201 0.106552)
(0.418275 0.238143 0.12764)
(0.658115 0.385723 -0.173345)
(0.659229 0.366711 -0.181922)
(0.670673 0.362023 -0.152372)
(0.667427 0.407048 -0.09771)
(0.62769 0.422666 -0.162061)
(0.656777 0.399103 -0.208009)
(0.666539 0.38979 -0.217974)
(0.6628 0.42078 -0.0661145)
(0.634351 0.442176 -0.0945219)
(0.646723 0.347422 -0.25884)
(0.66038 0.398304 -0.212672)
(0.639916 0.425288 -0.0711242)
(0.655808 0.384744 -0.171172)
(0.64434 0.443075 -0.122252)
(0.651925 0.406296 -0.171208)
(0.657797 0.42658 -0.0706431)
(0.610661 0.420096 -0.131571)
(0.645418 0.390854 -0.170669)
(0.526724 0.433694 0.59576)
(0.514273 0.383447 0.548382)
(0.518192 0.420988 0.580777)
(0.516038 0.430724 0.609399)
(0.540862 0.491737 0.636038)
(0.53774 0.512789 0.657645)
(0.511976 0.379281 0.552125)
(0.463425 0.314568 0.478463)
(0.507944 0.358691 0.499542)
(0.476881 0.330946 0.480899)
(0.494019 0.370104 0.536991)
(0.55762 0.491249 0.632994)
(0.551192 0.514722 0.620338)
(0.54457 0.499657 0.624772)
(0.514252 0.388284 0.536308)
(0.52406 0.378816 0.540306)
(0.548422 0.390969 0.534405)
(0.519308 0.381817 0.533737)
(0.530303 0.419497 0.566845)
(0.553651 0.506854 0.6362)
(0.546438 0.492104 0.599651)
(0.549254 0.468423 0.592807)
(0.544574 0.48565 0.606669)
(0.542464 0.484806 0.602801)
(0.441727 0.41788 0.345898)
(0.476026 0.409209 0.376739)
(0.518201 0.409668 0.599723)
(0.517688 0.439757 0.64366)
(0.500097 0.433459 0.650398)
(0.519106 0.424081 0.588151)
(0.440346 0.450972 0.639478)
(0.143886 0.203943 0.182863)
(0.138293 0.207593 0.187118)
(0.133412 0.195816 0.186896)
(0.158537 0.247543 0.202217)
(0.455078 0.394698 0.353988)
(0.405526 0.355138 0.292112)
(0.420843 0.52302 0.625382)
(0.423055 0.53029 0.619432)
(0.170747 0.224561 0.17553)
(0.154169 0.216592 0.176162)
(0.191928 0.268108 0.197313)
(0.437735 0.438327 0.626006)
(0.443514 0.421735 0.616276)
(0.445037 0.454632 0.644009)
(0.262127 0.203998 0.425677)
(0.234365 0.192325 0.402295)
(0.506606 0.393346 0.486683)
(0.49456 0.371734 0.435847)
(0.130508 0.178681 0.187275)
(0.131318 0.184716 0.181788)
(0.430161 0.474203 0.635439)
(0.427655 0.478054 0.635616)
(0.516012 0.344686 0.596488)
(0.552474 0.378109 0.601085)
(0.49864 0.323911 0.588056)
(0.463772 0.55502 0.578205)
(0.447086 0.559528 0.596599)
(0.465359 0.563159 0.59049)
(0.456845 0.575632 0.616798)
(0.181597 0.239299 0.174704)
(0.196945 0.250048 0.17292)
(0.23231 0.236238 0.393272)
(0.221277 0.217357 0.354422)