/*--------------------------------*- C++ -*----------------------------------*\
| =========                 |                                                 |
| \\      /  F ield         | OpenFOAM: The Open Source CFD Toolbox           |
|  \\    /   O peration     | Version:  v1612+                                |
|   \\  /    A nd           | Web:      www.OpenFOAM.com                      |
|    \\/     M anipulation  |                                                 |
\*---------------------------------------------------------------------------*/
FoamFile
{
    version     2.0;
    format      ascii;
    class       volScalarField;
    location    "50";
    object      p;
}
// * * * * * * * * * * * * * * * * * * * * * * * * * * * * * * * * * * * * * //

dimensions      [0 2 -2 0 0 0 0];

internalField   nonuniform List<scalar> 
21110
(
2.09414
2.22435
2.18679
2.26686
2.09834
2.09371
2.09117
2.15606
2.1631
2.09377
2.11077
2.14081
2.14531
2.11418
2.19869
2.15755
2.14743
2.24479
2.1369
2.13695
2.17048
2.14939
2.16969
2.16728
2.2253
2.26948
2.22942
2.20119
2.13634
2.17051
2.25821
2.17224
2.15453
2.14973
2.21002
2.18333
2.21804
2.17579
2.17978
2.15283
2.18833
2.15533
2.18221
2.22014
2.14851
2.12421
2.16044
2.1403
2.14728
2.12388
2.20929
2.19436
2.13034
2.13398
2.12564
2.16728
2.1413
2.22477
2.23011
2.25678
2.20227
2.1843
2.13705
2.16839
2.14209
2.08945
2.12945
2.15054
2.25016
2.24931
2.17055
2.09007
2.1852
2.15679
2.23057
2.13593
2.12292
2.25476
2.14769
2.15319
2.11967
2.13559
2.12455
2.11226
2.09939
2.09373
2.14208
2.19978
2.21155
2.26579
2.25502
2.11472
2.10545
2.2643
2.26007
2.17458
2.16341
2.1747
2.17332
2.22871
2.08594
2.08193
2.08561
2.16086
2.11977
2.15806
2.16793
2.08608
2.08985
2.08907
2.19683
2.19087
2.20317
2.1523
2.1999
2.14451
2.1515
2.15518
2.15531
2.15814
2.15618
2.17873
2.16576
2.23761
2.21429
2.1897
2.20699
2.26604
2.26419
2.26681
2.26362
2.27274
2.17761
2.18696
2.12423
2.12356
2.13928
2.18793
2.15632
2.15442
2.15638
2.21148
2.20584
2.09021
2.26172
2.24782
2.19672
2.18547
2.14827
2.28014
2.26783
2.26587
2.26315
2.09714
2.10409
2.22388
2.15893
2.17941
2.17989
2.19398
2.20196
2.19847
2.1174
2.09157
2.10083
2.26739
2.21729
2.1649
2.17486
2.1233
2.13936
2.17796
2.17296
2.20539
2.20847
2.19714
2.21693
2.2331
2.20588
2.18127
2.13025
2.11653
2.2162
2.22944
2.24637
2.22605
2.197
2.19701
2.17007
2.15244
2.17448
2.14114
2.26621
2.18394
2.16937
2.19954
2.20499
2.20836
2.21327
2.12541
2.20531
2.24715
2.11699
2.12994
2.12756
2.15743
2.14609
2.19387
2.14984
2.15193
2.16349
2.16302
2.15244
2.16024
2.20339
2.19944
2.18948
2.18844
2.21563
2.19014
2.20294
2.22306
2.22076
2.17408
2.1731
2.12962
2.16815
2.15318
2.24999
2.26995
2.13428
2.16165
2.17917
2.18198
2.23211
2.22712
2.24721
2.23993
2.2694
2.2549
2.20766
2.21632
2.22336
2.22411
2.14286
2.14109
2.12224
2.12408
2.12813
2.10651
2.1062
2.12032
2.10516
2.12185
2.11497
2.13276
2.10787
2.10239
2.10858
2.1067
2.10744
2.11052
2.11237
2.13224
2.19951
2.16818
2.16283
2.15303
2.13575
2.20515
2.21647
2.22081
2.14322
2.12685
2.13735
2.1169
2.14808
2.15717
2.24765
2.23384
2.12689
2.12879
2.1334
2.16595
2.16127
2.11725
2.10614
2.11439
2.11306
2.16473
2.1732
2.20387
2.19993
2.20686
2.15851
2.16103
2.18414
2.1516
2.14222
2.14647
2.10322
2.15464
2.16682
2.22408
2.14564
2.18279
2.13619
2.13747
2.0943
2.09887
2.09914
2.15987
2.16697
2.27391
2.13994
2.13129
2.11315
2.11899
2.12789
2.2808
2.26652
2.2211
2.20319
2.19784
2.22063
2.19368
2.1646
2.1612
2.09677
2.20706
2.22359
2.13248
2.1247
2.17672
2.17847
2.18776
2.19092
2.21598
2.13534
2.13203
2.13854
2.14041
2.13928
2.14976
2.14688
2.15781
2.11905
2.10486
2.10043
2.13147
2.16751
2.11713
2.17522
2.11147
2.11885
2.14499
2.23246
2.22219
2.21002
2.08989
2.16526
2.17397
2.12506
2.10608
2.28005
2.27309
2.09276
2.25186
2.27947
2.12293
2.1748
2.28064
2.09869
2.11799
2.11736
2.12496
2.28942
2.19108
2.13779
2.15028
2.16527
2.22174
2.27546
2.10001
2.22229
2.22208
2.14149
2.23056
2.13542
2.12927
2.14393
2.13522
2.26375
2.16011
2.12838
2.19676
2.18365
2.19743
2.24038
2.08659
2.08627
2.09004
2.23904
2.15411
2.21516
2.17431
2.24951
2.15237
2.15584
2.15608
2.16552
2.08951
2.12329
2.21495
2.23064
2.21133
2.22342
2.17323
2.17818
2.19308
2.2754
2.28034
2.27841
2.20923
2.24319
2.24466
2.17205
2.24468
2.11749
2.08268
2.08523
2.12031
2.1178
2.12475
2.12474
2.12965
2.12284
2.266
2.24764
2.25244
2.26047
2.24772
2.13658
2.14301
2.10566
2.10591
2.10169
2.11068
2.09524
2.13866
2.10036
2.17573
2.18485
2.17459
2.20501
2.17838
2.20905
2.2026
2.19492
2.21546
2.22424
2.2231
2.10774
2.23047
2.18129
2.17334
2.18064
2.24899
2.2312
2.14161
2.13529
2.1353
2.15797
2.15852
2.20135
2.23509
2.23106
2.12154
2.13641
2.12903
2.14494
2.14307
2.17054
2.14109
2.1455
2.14887
2.1854
2.10163
2.26582
2.2092
2.21247
2.21895
2.16707
2.18033
2.12454
2.13698
2.22563
2.23449
2.23566
2.20139
2.13369
2.1219
2.27577
2.1042
2.17011
2.14291
2.15046
2.13299
2.08702
2.18022
2.13334
2.11992
2.12061
2.13195
2.20571
2.17581
2.20237
2.24962
2.24045
2.27014
2.27093
2.10408
2.15938
2.17409
2.17057
2.16842
2.21025
2.20575
2.11455
2.17556
2.19135
2.173
2.17426
2.20621
2.19568
2.24642
2.13263
2.13805
2.15741
2.1795
2.19051
2.1311
2.15125
2.26005
2.23235
2.24541
2.10511
2.11649
2.10465
2.15433
2.11708
2.08411
2.18232
2.206
2.24918
2.11931
2.19221
2.18807
2.18092
2.25624
2.25478
2.18435
2.18088
2.18087
2.14272
2.13571
2.1507
2.10452
2.10623
2.21687
2.23754
2.1634
2.17324
2.25722
2.15862
2.15014
2.18278
2.21638
2.11573
2.23332
2.26566
2.2091
2.13869
2.13989
2.20928
2.20937
2.13484
2.12132
2.13515
2.13835
2.19141
2.21345
2.09673
2.13423
2.13361
2.10387
2.09176
2.26486
2.25654
2.13971
2.13057
2.15963
2.1397
2.15653
2.1441
2.14513
2.18364
2.1806
2.18853
2.19568
2.1316
2.13037
2.1652
2.10755
2.08547
2.09207
2.22965
2.12379
2.13723
2.13375
2.16272
2.15464
2.27842
2.22129
2.20509
2.1898
2.24121
2.25105
2.16132
2.12732
2.1321
2.21129
2.11048
2.16506
2.22296
2.27244
2.26014
2.15878
2.22478
2.2537
2.19926
2.2459
2.20573
2.15636
2.15595
2.1815
2.21707
2.14064
2.18945
2.16862
2.13295
2.17498
2.19455
2.12081
2.14549
2.13923
2.08867
2.12737
2.24388
2.25172
2.26049
2.24957
2.13178
2.11882
2.14162
2.12761
2.14409
2.15502
2.16977
2.15592
2.12787
2.12926
2.16604
2.14658
2.20026
2.10341
2.20383
2.19359
2.19012
2.19009
2.20432
2.16079
2.17498
2.18009
2.1584
2.26689
2.23543
2.23076
2.17754
2.23154
2.2094
2.25455
2.27877
2.24142
2.2222
2.21636
2.17725
2.22877
2.19168
2.19464
2.21738
2.27116
2.27787
2.13416
2.18414
2.17305
2.25567
2.16913
2.17262
2.19614
2.22081
2.20089
2.21185
2.23357
2.21073
2.24379
2.21776
2.15914
2.18185
2.17805
2.15497
2.15928
2.19864
2.1709
2.18504
2.1659
2.18724
2.16824
2.19501
2.16036
2.18116
2.20499
2.18694
2.16982
2.16709
2.2085
2.19138
2.16802
2.14389
2.15643
2.16334
2.16908
2.15393
2.16211
2.19871
2.16828
2.15903
2.15319
2.17023
2.15856
2.14638
2.16469
2.14693
2.16558
2.1654
2.1491
2.19424
2.19716
2.1873
2.16713
2.14885
2.18729
2.17115
2.15975
2.15662
2.18706
2.16337
2.15607
2.12078
2.1357
2.13069
2.12694
2.12436
2.13951
2.14013
2.15517
2.14016
2.15686
2.18912
2.1955
2.17172
2.18711
2.19975
2.15178
2.12514
2.13925
2.12404
2.11681
2.17895
2.1779
2.13189
2.15284
2.17031
2.16198
2.14242
2.15007
2.11881
2.15467
2.1099
2.0839
2.0886
2.08709
2.10366
2.10456
2.1147
2.11435
2.10811
2.23283
2.25726
2.23056
2.25338
2.24893
2.25269
2.24665
2.14942
2.1403
2.23412
2.22423
2.13287
2.14731
2.13273
2.13778
2.13352
2.12911
2.13937
2.12579
2.12183
2.13432
2.13266
2.12702
2.12593
2.13013
2.2093
2.22507
2.20606
2.21278
2.21537
2.21272
2.10231
2.10447
2.09282
2.10313
2.10994
2.11122
2.10083
2.16691
2.17641
2.17242
2.1693
2.15201
2.16025
2.15492
2.22351
2.24596
2.20317
2.23088
2.2162
2.23061
2.21203
2.21726
2.22719
2.24258
2.236
2.23872
2.24376
2.25513
2.25669
2.23988
2.25204
2.27144
2.26548
2.27622
2.25546
2.25654
2.27346
2.23984
2.24069
2.16424
2.23142
2.2294
2.23376
2.20184
2.17982
2.19577
2.18809
2.19967
2.20063
2.19177
2.20821
2.24681
2.23581
2.25941
2.24954
2.2475
2.24374
2.24994
2.19353
2.21633
2.20867
2.21885
2.19983
2.19809
2.21561
2.21815
2.22902
2.21296
2.21885
2.22561
2.22178
2.22071
2.22896
2.23963
2.24202
2.22353
2.1551
2.19713
2.18991
2.20965
2.20161
2.19807
2.1955
2.20187
2.14872
2.14816
2.15561
2.14983
2.14471
2.15176
2.14485
2.14057
2.14884
2.1548
2.15914
2.14647
2.19118
2.18793
2.20494
2.19301
2.18045
2.17853
2.19529
2.22471
2.22617
2.22553
2.22164
2.12838
2.13109
2.13742
2.13725
2.13167
2.13314
2.13747
2.17456
2.1661
2.17825
2.18132
2.18932
2.17916
2.17757
2.17809
2.17472
2.17779
2.17726
2.17521
2.17699
2.11563
2.11904
2.11544
2.11979
2.12005
2.12232
2.11835
2.19029
2.16806
2.17897
2.16639
2.18142
2.17892
2.17
2.19352
2.13808
2.12708
2.13245
2.13142
2.12719
2.12434
2.14215
2.12817
2.14042
2.13551
2.14261
2.13175
2.17103
2.14629
2.14907
2.16009
2.13169
2.10824
2.11531
2.12386
2.12081
2.12088
2.13068
2.21941
2.24271
2.22289
2.23782
2.23376
2.23992
2.23855
2.26972
2.25532
2.24511
2.28252
2.26594
2.25497
2.25023
2.26321
2.25554
2.23996
2.25317
2.25413
2.24717
2.24438
2.2599
2.13952
2.12632
2.12591
2.14543
2.13696
2.13321
2.11663
2.11768
2.12782
2.12038
2.11882
2.12937
2.13914
2.13003
2.15645
2.13843
2.12779
2.12614
2.13638
2.12584
2.13223
2.12773
2.13101
2.13251
2.13645
2.12295
2.12886
2.13686
2.13669
2.13282
2.13417
2.13761
2.13646
2.13957
2.13807
2.13996
2.14613
2.14951
2.14797
2.16974
2.17184
2.19034
2.17203
2.18528
2.18315
2.17443
2.13558
2.14786
2.16196
2.14973
2.14375
2.14134
2.14916
2.15559
2.14818
2.14488
2.15285
2.14202
2.14893
2.15153
2.13289
2.14126
2.14217
2.13715
2.14692
2.14052
2.16444
2.16368
2.1533
2.15729
2.16065
2.15271
2.16458
2.15849
2.14209
2.12163
2.13302
2.13515
2.14737
2.15408
2.16549
2.14843
2.19893
2.2241
2.19894
2.20794
2.18655
2.20211
2.2048
2.22207
2.22095
2.19463
2.20332
2.21591
2.19753
2.19184
2.20902
2.20143
2.22999
2.11365
2.10079
2.08892
2.09978
2.0959
2.11542
2.09452
2.11174
2.10715
2.10806
2.21286
2.23335
2.20521
2.22938
2.20514
2.21493
2.20881
2.21335
2.18221
2.18301
2.18352
2.17805
2.17096
2.1799
2.20695
2.19379
2.18748
2.19528
2.20843
2.20163
2.19766
2.19282
2.17386
2.19017
2.20748
2.19503
2.18778
2.18998
2.19247
2.16295
2.14752
2.17404
2.18857
2.16265
2.1726
2.18572
2.17121
2.18139
2.18702
2.19363
2.17085
2.17832
2.18228
2.18764
2.1638
2.17903
2.22948
2.24855
2.24759
2.24979
2.23273
2.23763
2.24634
2.26367
2.23698
2.23603
2.21559
2.22352
2.23668
2.22045
2.2434
2.25053
2.24071
2.25728
2.2522
2.25368
2.24546
2.24804
2.2614
2.23725
2.22761
2.2396
2.23559
2.2309
2.24216
2.20028
2.18617
2.17865
2.15946
2.17827
2.17721
2.17442
2.21249
2.23367
2.20128
2.21682
2.20909
2.21516
2.20661
2.19944
2.21723
2.19179
2.23558
2.22727
2.22153
2.24958
2.23506
2.22182
2.17956
2.19625
2.20549
2.18016
2.19133
2.20627
2.26692
2.26235
2.24759
2.26725
2.26671
2.26819
2.24651
2.26447
2.2539
2.2641
2.27643
2.26467
2.24263
2.25115
2.20119
2.2252
2.22344
2.2116
2.22217
2.22471
2.20826
2.21398
2.19019
2.21119
2.19921
2.21295
2.21077
2.20255
2.17378
2.17433
2.16379
2.18518
2.16047
2.1691
2.17429
2.19193
2.20525
2.1969
2.20781
2.20175
2.22216
2.20401
2.18382
2.19664
2.20448
2.20409
2.19885
2.22756
2.20677
2.20716
2.20207
2.21947
2.21486
2.2071
2.17827
2.19512
2.19878
2.18156
2.19037
2.19628
2.27129
2.27586
2.27669
2.28274
2.27738
2.2692
2.25906
2.23056
2.25243
2.26935
2.26207
2.26751
2.27259
2.27226
2.28794
2.25429
2.27743
2.26813
2.27011
2.27205
2.28922
2.2776
2.11289
2.17176
2.15544
2.14554
2.13438
2.11586
2.12545
2.11469
2.11783
2.13606
2.14449
2.13448
2.13115
2.12742
2.14499
2.16026
2.13198
2.2436
2.1937
2.19843
2.19367
2.21652
2.1966
2.14536
2.18335
2.18324
2.18918
2.20489
2.18735
2.17365
2.22108
2.22858
2.22666
2.22744
2.21474
2.20587
2.17735
2.17466
2.18239
2.15022
2.16139
2.18034
2.16797
2.17035
2.18524
2.18266
2.18379
2.1809
2.18621
2.19219
2.16697
2.17107
2.16707
2.20936
2.22408
2.21181
2.20505
2.20563
2.17926
2.21852
2.26685
2.24794
2.23642
2.24092
2.23759
2.19393
2.20897
2.21152
2.19618
2.20796
2.18768
2.19418
2.18447
2.19597
2.18898
2.22605
2.19828
2.18847
2.17879
2.19755
2.24444
2.23131
2.22995
2.23718
2.25778
2.22461
2.2272
2.23217
2.23226
2.22831
2.23543
2.20836
2.21356
2.25563
2.23386
2.23898
2.2467
2.1934
2.15359
2.21966
2.21817
2.2148
2.21052
2.21737
2.2212
2.22175
2.23407
2.21467
2.21488
2.23132
2.24785
2.21432
2.21969
2.22667
2.22526
2.22076
2.23103
2.2468
2.23542
2.20936
2.23096
2.24727
2.22185
2.23235
2.23091
2.23868
2.23766
2.23737
2.15429
2.15176
2.15173
2.15841
2.19528
2.20017
2.20771
2.20093
2.18463
2.18374
2.20394
2.15878
2.1708
2.15861
2.17612
2.16885
2.16906
2.16556
2.15663
2.16901
2.17744
2.17121
2.17045
2.17129
2.16994
2.15962
2.16511
2.14553
2.15975
2.13542
2.14871
2.13559
2.14713
2.14384
2.18267
2.18767
2.19428
2.19515
2.18736
2.18967
2.19493
2.14732
2.1684
2.15602
2.15684
2.15263
2.15219
2.14794
2.18742
2.19844
2.17825
2.17836
2.19349
2.19615
2.17635
2.16362
2.16393
2.14647
2.16443
2.15215
2.15298
2.1628
2.18515
2.19935
2.1712
2.17679
2.18598
2.18908
2.17256
2.17029
2.17122
2.14376
2.16545
2.16021
2.15882
2.16311
2.1778
2.1849
2.21597
2.19793
2.19285
2.19116
2.19562
2.17802
2.16414
2.16671
2.15999
2.16623
2.17984
2.1785
2.17121
2.18396
2.18336
2.15825
2.16845
2.17183
2.19163
2.17627
2.18134
2.17369
2.16224
2.15302
2.15651
2.17436
2.19884
2.19106
2.22254
2.21292
2.20144
2.19773
2.21565
2.21378
2.20762
2.21141
2.20079
2.19869
2.19558
2.20514
2.20433
2.18729
2.20469
2.18629
2.1665
2.16495
2.17941
2.16743
2.16693
2.17924
2.18872
2.21199
2.20781
2.19757
2.20799
2.21018
2.1939
2.1724
2.18085
2.20938
2.1917
2.18856
2.18619
2.19138
2.18725
2.16659
2.19204
2.18226
2.19185
2.1738
2.1887
2.14717
2.15258
2.14101
2.14209
2.14322
2.1446
2.14006
2.14586
2.15023
2.14915
2.16244
2.15738
2.17179
2.1679
2.15546
2.16964
2.16912
2.16054
2.15101
2.15283
2.14361
2.16792
2.16346
2.14131
2.14684
2.15504
2.15739
2.15227
2.16202
2.15793
2.15959
2.15495
2.21095
2.20437
2.18423
2.16629
2.19167
2.18159
2.18535
2.1791
2.18436
2.16652
2.17593
2.16643
2.17499
2.16545
2.1323
2.15035
2.14357
2.14824
2.13546
2.15265
2.14948
2.13319
2.15187
2.14046
2.1423
2.14986
2.16998
2.17952
2.16422
2.16437
2.17566
2.17973
2.16173
2.15584
2.15602
2.17907
2.16189
2.17106
2.16408
2.16416
2.14579
2.13246
2.15983
2.1538
2.14544
2.14142
2.15604
2.17565
2.17177
2.16159
2.16771
2.13798
2.13478
2.1289
2.13417
2.1448
2.14714
2.13292
2.1489
2.16143
2.16625
2.16686
2.16101
2.16134
2.16251
2.17137
2.15168
2.16152
2.16376
2.16606
2.16726
2.15079
2.15112
2.15797
2.15606
2.15363
2.1615
2.1697
2.16905
2.18864
2.20321
2.20191
2.20461
2.21184
2.20461
2.2097
2.21771
2.20565
2.19273
2.1911
2.21014
2.20901
2.20681
2.20407
2.19758
2.20411
2.19908
2.1896
2.17964
2.17174
2.18429
2.17579
2.13878
2.14273
2.12985
2.13898
2.14643
2.1489
2.1357
2.1873
2.177
2.20356
2.19453
2.18697
2.18304
2.19698
2.16027
2.16456
2.18569
2.17586
2.17242
2.16804
2.17546
2.17534
2.15719
2.18165
2.17251
2.17536
2.16982
2.17553
2.16916
2.15436
2.15414
2.16646
2.1583
2.15599
2.16775
2.1745
2.18973
2.195
2.18219
2.19017
2.19196
2.1787
2.18224
2.13791
2.14066
2.13303
2.10564
2.13428
2.12932
2.11973
2.12891
2.15266
2.13086
2.11782
2.12291
2.13055
2.14064
2.11925
2.12295
2.13058
2.13285
2.12028
2.13763
2.13302
2.14575
2.13636
2.12625
2.12721
2.13735
2.14635
2.12775
2.12504
2.13194
2.12843
2.13726
2.1577
2.14975
2.15012
2.14499
2.16143
2.1589
2.14671
2.12456
2.1302
2.13064
2.1371
2.12255
2.12427
2.13486
2.13649
2.15646
2.13194
2.1435
2.13628
2.1426
2.13657
2.15566
2.14951
2.12865
2.13837
2.14288
2.14348
2.13677
2.12497
2.14597
2.15506
2.15366
2.1383
2.1533
2.1439
2.14098
2.15426
2.18293
2.20444
2.19451
2.20567
2.18686
2.18815
2.20253
2.20276
2.18645
2.17624
2.19
2.18157
2.16099
2.17666
2.17795
2.17769
2.15897
2.16593
2.1749
2.17001
2.19215
2.17832
2.18129
2.17773
2.18453
2.17695
2.16006
2.17468
2.1882
2.17375
2.15404
2.15999
2.1703
2.16959
2.13259
2.11428
2.12419
2.11765
2.1278
2.12775
2.11637
2.13096
2.12875
2.13777
2.14505
2.13275
2.14004
2.13585
2.13871
2.11721
2.1337
2.13021
2.13391
2.12674
2.13882
2.13299
2.14401
2.1335
2.15434
2.16727
2.16986
2.17277
2.17475
2.19701
2.17664
2.20047
2.18125
2.18493
2.1785
2.18559
2.14789
2.14172
2.12002
2.13068
2.13736
2.13693
2.13069
2.15755
2.15664
2.13101
2.15106
2.14426
2.14592
2.14822
2.16931
2.18039
2.15614
2.16099
2.16804
2.17141
2.15653
2.15874
2.16343
2.18013
2.16268
2.17505
2.17381
2.16495
2.14364
2.13311
2.1487
2.15055
2.13843
2.13787
2.15207
2.14971
2.1467
2.12942
2.15788
2.13675
2.17628
2.16366
2.14106
2.1433
2.15839
2.14846
2.10986
2.10735
2.1087
2.09107
2.09898
2.11348
2.12419
2.13271
2.12025
2.12846
2.12818
2.12486
2.11639
2.117
2.13062
2.11673
2.1237
2.13128
2.11825
2.13736
2.13927
2.13654
2.09143
2.10247
2.11167
2.10283
2.09737
2.09472
2.10214
2.11234
2.13131
2.12176
2.10602
2.09681
2.09342
2.08958
2.10984
2.10322
2.10249
2.09273
2.10054
2.08471
2.10187
2.0908
2.09981
2.08389
2.09779
2.09478
2.08593
2.08316
2.09277
2.08502
2.08336
2.11016
2.1036
2.10179
2.10532
2.10798
2.09887
2.09929
2.09817
2.10673
2.09516
2.11063
2.10258
2.10785
2.11298
2.11536
2.10127
2.1032
2.11397
2.12029
2.12226
2.12541
2.12182
2.1097
2.11889
2.12354
2.11985
2.12975
2.11405
2.11413
2.11437
2.1157
2.11418
2.11349
2.11243
2.11282
2.12009
2.10571
2.10894
2.11776
2.10319
2.11046
2.10897
2.11026
2.11046
2.10695
2.10694
2.10847
2.0974
2.11441
2.11457
2.11689
2.13041
2.11093
2.10717
2.10728
2.10584
2.103
2.11697
2.11122
2.10089
2.09256
2.09913
2.09684
2.10305
2.09709
2.09949
2.10517
2.11222
2.10465
2.09973
2.11076
2.10552
2.10015
2.09913
2.10374
2.24918
2.26267
2.25838
2.26018
2.25486
2.25718
2.15391
2.1572
2.2229
2.12844
2.12992
2.13662
2.13143
2.12723
2.12725
2.12821
2.14005
2.13435
2.13755
2.21334
2.2081
2.22217
2.21086
2.21186
2.20551
2.21613
2.10937
2.10013
2.11033
2.10931
2.11045
2.10703
2.11068
2.17838
2.17426
2.18818
2.16598
2.17421
2.16955
2.17843
2.16459
2.24059
2.23681
2.23661
2.22905
2.23744
2.23383
2.23435
2.27975
2.25811
2.26498
2.27617
2.27655
2.2724
2.25716
2.21229
2.21355
2.27039
2.26622
2.26028
2.25544
2.26767
2.26278
2.25854
2.15228
2.15881
2.15802
2.15572
2.15751
2.15113
2.22655
2.22626
2.1995
2.18442
2.1855
2.18842
2.18777
2.1904
2.1899
2.26994
2.2451
2.25679
2.25741
2.24881
2.21184
2.21448
2.20949
2.20878
2.21211
2.20868
2.20758
2.17883
2.19429
2.18629
2.1957
2.18935
2.19328
2.19202
2.2592
2.23961
2.24477
2.24731
2.25386
2.24476
2.24997
2.17252
2.16364
2.16817
2.16994
2.16392
2.21567
2.21783
2.20235
2.20839
2.21345
2.21373
2.20569
2.1478
2.1548
2.15242
2.16063
2.14596
2.16091
2.15607
2.15868
2.15363
2.1603
2.18232
2.1948
2.17966
2.18294
2.185
2.18675
2.18025
2.20468
2.20797
2.21171
2.21331
2.20628
2.21115
2.2105
2.15217
2.15043
2.14231
2.14278
2.14875
2.14892
2.1443
2.15566
2.16846
2.16459
2.15581
2.16113
2.15978
2.16178
2.1915
2.19037
2.18687
2.15792
2.1684
2.16724
2.16642
2.16038
2.16488
2.16408
2.14343
2.13396
2.13412
2.13071
2.13693
2.13468
2.13223
2.16257
2.16432
2.1644
2.16854
2.16252
2.16604
2.16611
2.19148
2.18306
2.18958
2.19024
2.11944
2.11863
2.12829
2.12269
2.125
2.12627
2.12471
2.15756
2.14666
2.15518
2.14695
2.15298
2.14653
2.154
2.17369
2.13364
2.1378
2.12802
2.094
2.09419
2.09299
2.09703
2.10248
2.13583
2.24483
2.23843
2.2422
2.24747
2.26085
2.26508
2.26281
2.26042
2.25587
2.2585
2.25529
2.24588
2.26132
2.24609
2.12003
2.1224
2.12961
2.12214
2.11957
2.12517
2.11891
2.12764
2.12073
2.12123
2.12189
2.12266
2.11943
2.12946
2.13021
2.12725
2.12602
2.13966
2.15943
2.14337
2.14128
2.13868
2.12703
2.14764
2.14733
2.13938
2.12757
2.12048
2.12832
2.11935
2.12517
2.12163
2.1256
2.11976
2.1476
2.15747
2.15356
2.1475
2.15003
2.15331
2.16418
2.1538
2.15336
2.15509
2.156
2.16111
2.1567
2.17906
2.16819
2.16815
2.16904
2.17446
2.17187
2.17223
2.16406
2.15412
2.1666
2.15509
2.16148
2.15466
2.16214
2.14081
2.14138
2.12948
2.13028
2.13664
2.13778
2.13149
2.12527
2.1388
2.12735
2.13181
2.13762
2.13474
2.13148
2.16595
2.1536
2.16725
2.16386
2.16459
2.16035
2.16609
2.13633
2.14531
2.14969
2.14907
2.21097
2.2068
2.20304
2.20347
2.20908
2.2082
2.20568
2.20966
2.20502
2.09726
2.11316
2.10447
2.09778
2.10296
2.18806
2.20023
2.19105
2.19839
2.18975
2.19769
2.19182
2.18777
2.18432
2.1789
2.19201
2.19189
2.19865
2.19155
2.19061
2.19241
2.20834
2.19983
2.20931
2.20697
2.20963
2.20278
2.20952
2.15165
2.14836
2.13555
2.15764
2.14689
2.15562
2.17201
2.16819
2.17123
2.16512
2.17408
2.1669
2.18149
2.16696
2.16479
2.16813
2.16168
2.16777
2.16625
2.16826
2.2608
2.25671
2.27597
2.2613
2.26321
2.25722
2.26773
2.22273
2.22368
2.22181
2.22776
2.23148
2.24286
2.23117
2.23731
2.23691
2.24925
2.25294
2.2562
2.25644
2.25639
2.24341
2.25901
2.27379
2.24372
2.22969
2.24123
2.23351
2.2345
2.23427
2.23998
2.23178
2.1643
2.17819
2.1755
2.18023
2.17334
2.18174
2.17787
2.21502
2.21674
2.22698
2.22514
2.21725
2.22223
2.22363
2.21576
2.19454
2.21264
2.1968
2.21197
2.22424
2.21305
2.21629
2.20706
2.2198
2.28136
2.27888
2.24377
2.25434
2.24253
2.25228
2.24572
2.25068
2.24304
2.26675
2.27287
2.25151
2.2585
2.23418
2.24278
2.23701
2.24551
2.24459
2.22121
2.20897
2.21893
2.21895
2.21845
2.21667
2.22172
2.21261
2.21117
2.20457
2.21182
2.21592
2.21832
2.20809
2.17305
2.19033
2.20654
2.21039
2.22624
2.22015
2.21508
2.21427
2.21998
2.18188
2.19417
2.18019
2.189
2.18342
2.18953
2.18193
2.19455
2.19624
2.1814
2.19167
2.19214
2.19451
2.18746
2.20831
2.20663
2.22088
2.21225
2.21275
2.20781
2.21534
2.26771
2.27295
2.27302
2.27178
2.27289
2.26565
2.26251
2.27353
2.28032
2.28649
2.27172
2.26588
2.27702
2.27818
2.2809
2.28699
2.26683
2.28066
2.27424
2.2654
2.27122
2.26855
2.15814
2.15101
2.15071
2.14838
2.15285
2.15219
2.15217
2.14495
2.13593
2.14318
2.13614
2.14143
2.13762
2.14172
2.15164
2.14811
2.15589
2.15529
2.1587
2.24554
2.18764
2.18986
2.17467
2.18406
2.1841
2.18496
2.17877
2.16222
2.16616
2.16569
2.16188
2.1628
2.16072
2.19831
2.18553
2.23995
2.23547
2.21545
2.20866
2.17396
2.16682
2.16228
2.16879
2.17066
2.17528
2.17173
2.16712
2.16495
2.18857
2.19283
2.22181
2.19646
2.20476
2.21017
2.19715
2.19641
2.20338
2.1956
2.2225
2.25905
2.1799
2.17117
2.20873
2.21
2.2028
2.1744
2.17513
2.1728
2.19736
2.19972
2.20723
2.20421
2.19846
2.20927
2.19418
2.19534
2.19388
2.21451
2.19643
2.18583
2.20013
2.25504
2.26274
2.2249
2.23529
2.22199
2.22378
2.22199
2.22635
2.21813
2.22499
2.22491
2.22369
2.16109
2.16684
2.17057
2.20789
2.191
2.21997
2.21305
2.20324
2.21109
2.22631
2.24094
2.23732
2.23432
2.23336
2.24104
2.23665
2.21559
2.22114
2.21031
2.2124
2.21526
2.21311
2.21007
2.25284
2.24231
2.25352
2.24799
2.23805
2.24504
2.24314
2.22778
2.22855
2.21086
2.2224
2.22725
2.22541
2.21716
2.16249
2.16439
2.17115
2.16379
2.16392
2.16167
2.16324
2.1773
2.19075
2.18068
2.18242
2.1817
2.18244
2.18208
2.16399
2.15634
2.16287
2.16495
2.15937
2.16973
2.17868
2.17323
2.17996
2.16821
2.18272
2.17785
2.15907
2.15604
2.15794
2.15944
2.15523
2.14567
2.149
2.15844
2.15695
2.14957
2.15019
2.15704
2.21341
2.2108
2.20154
2.20165
2.20926
2.20897
2.20422
2.1606
2.15671
2.17213
2.16842
2.16034
2.1617
2.16906
2.17521
2.17392
2.17155
2.17947
2.17513
2.17708
2.17668
2.15624
2.16729
2.1678
2.16754
2.16317
2.1658
2.16549
2.17327
2.17483
2.17486
2.17979
2.17346
2.17717
2.17748
2.15377
2.16766
2.16457
2.16725
2.16207
2.16621
2.16342
2.21111
2.19641
2.2064
2.19849
2.20631
2.19958
2.2085
2.16652
2.17276
2.1562
2.15149
2.16148
2.15254
2.15132
2.16217
2.15288
2.17284
2.17596
2.17631
2.15812
2.14274
2.16043
2.16436
2.16098
2.15691
2.16569
2.22037
2.21681
2.21823
2.21017
2.21758
2.21414
2.21498
2.17316
2.18516
2.18402
2.18462
2.17796
2.18223
2.18147
2.17645
2.16487
2.17767
2.16817
2.17043
2.1706
2.17117
2.16997
2.20399
2.19534
2.20337
2.20514
2.20131
2.20267
2.20929
2.20556
2.19266
2.20204
2.19414
2.20094
2.19662
2.20113
2.18145
2.18145
2.17056
2.17269
2.17782
2.18092
2.17014
2.13576
2.1399
2.13706
2.14077
2.13492
2.14166
2.13156
2.16999
2.16064
2.16107
2.15918
2.16453
2.16698
2.15695
2.16996
2.1659
2.16333
2.17151
2.16694
2.15909
2.16578
2.1648
2.16682
2.16539
2.16545
2.15073
2.15371
2.14857
2.1448
2.1511
2.15423
2.14841
2.15216
2.15678
2.161
2.16471
2.15657
2.15436
2.16517
2.20087
2.18803
2.20357
2.18094
2.17748
2.1699
2.17014
2.17679
2.17569
2.17249
2.15708
2.17153
2.16758
2.17137
2.14786
2.16089
2.15462
2.14819
2.15004
2.15613
2.14425
2.15331
2.15575
2.14882
2.15139
2.15029
2.1624
2.16024
2.16056
2.16636
2.16241
2.16399
2.1643
2.17052
2.15999
2.16058
2.15842
2.16448
2.16203
2.16211
2.15639
2.15742
2.15615
2.14718
2.15927
2.15506
2.15725
2.1603
2.1612
2.15511
2.16242
2.16227
2.16574
2.16102
2.14638
2.13756
2.1447
2.14424
2.14393
2.14335
2.14636
2.17179
2.17599
2.16057
2.15858
2.14988
2.15193
2.17108
2.17092
2.17157
2.1992
2.20092
2.20092
2.19764
2.20457
2.19046
2.1899
2.17622
2.20084
2.20546
2.19051
2.18925
2.16692
2.16944
2.1568
2.16409
2.1633
2.16804
2.15947
2.14861
2.13938
2.15053
2.14665
2.14676
2.14341
2.14886
2.20096
2.19811
2.19198
2.18778
2.19512
2.1941
2.19377
2.18599
2.17803
2.17762
2.18073
2.18013
2.18465
2.17197
2.16969
2.16198
2.1623
2.16833
2.16832
2.16425
2.15646
2.1663
2.15857
2.16009
2.16017
2.16241
2.15869
2.18721
2.1787
2.18433
2.18272
2.18231
2.18617
2.1792
2.15374
2.14515
2.1185
2.12083
2.11435
2.10895
2.11492
2.1121
2.1201
2.12147
2.12092
2.12416
2.12039
2.12247
2.12328
2.12737
2.1366
2.12557
2.12628
2.13035
2.12967
2.12589
2.12698
2.11294
2.12502
2.12008
2.13376
2.11439
2.13999
2.13841
2.12973
2.13896
2.13761
2.13953
2.13624
2.14048
2.14202
2.15044
2.14338
2.14372
2.14207
2.14592
2.14315
2.14504
2.15375
2.15201
2.14549
2.14737
2.15209
2.12921
2.13732
2.13074
2.13588
2.12874
2.13465
2.12798
2.15198
2.14491
2.14832
2.15776
2.15941
2.15675
2.15556
2.15647
2.15578
2.19733
2.19966
2.19674
2.19526
2.20027
2.19641
2.19548
2.16868
2.16171
2.17151
2.17061
2.17116
2.16861
2.18724
2.18423
2.20018
2.1868
2.18605
2.18193
2.19039
2.18877
2.18454
2.20389
2.19466
2.19125
2.18917
2.19452
2.15769
2.17413
2.156
2.17164
2.16021
2.1733
2.16677
2.15004
2.15688
2.15495
2.12033
2.11694
2.11771
2.1184
2.12155
2.11901
2.12243
2.14929
2.1409
2.14064
2.13609
2.14191
2.12559
2.12588
2.12564
2.12578
2.1299
2.12571
2.12058
2.1177
2.12347
2.15284
2.13948
2.13064
2.17689
2.1898
2.18405
2.18729
2.18074
2.18569
2.1689
2.18052
2.16743
2.17641
2.17173
2.17643
2.16967
2.12097
2.12984
2.12246
2.12829
2.12298
2.12925
2.1223
2.13993
2.15216
2.14914
2.15425
2.14635
2.15147
2.14964
2.15826
2.15972
2.16046
2.16406
2.15806
2.16128
2.16192
2.17032
2.15952
2.16038
2.16206
2.16601
2.16351
2.16372
2.15018
2.15278
2.15053
2.14884
2.14912
2.14864
2.14855
2.14628
2.15163
2.15546
2.15842
2.15184
2.14979
2.09359
2.13557
2.12016
2.13277
2.1293
2.13124
2.13714
2.12819
2.12135
2.12445
2.11459
2.12582
2.12282
2.1186
2.11917
2.16521
2.15155
2.1383
2.13863
2.15016
2.14022
2.1542
2.14703
2.09442
2.11321
2.10625
2.11604
2.10529
2.1106
2.1049
2.11218
2.11389
2.11534
2.10633
2.12096
2.10646
2.11855
2.09314
2.09371
2.09377
2.08932
2.09747
2.09759
2.09741
2.1039
2.09699
2.10178
2.08259
2.09119
2.08331
2.0867
2.09199
2.0892
2.08785
2.08699
2.08443
2.08906
2.08335
2.09274
2.09094
2.09379
2.09649
2.09678
2.08715
2.08688
2.09553
2.10048
2.09056
2.11137
2.10721
2.12212
2.10845
2.10883
2.113
2.11422
2.11493
2.1157
2.11313
2.1115
2.11143
2.11446
2.11866
2.10223
2.1029
2.11555
2.1191
2.11766
2.11584
2.12166
2.11397
2.12018
2.12077
2.11407
2.11899
2.11785
2.11516
2.10254
2.1082
2.10661
2.1088
2.1025
2.11044
2.11034
2.11316
2.11006
2.11524
2.11747
2.10768
2.10733
2.11775
2.11928
2.11064
2.09383
2.09957
2.08702
2.09742
2.09524
2.09973
2.10274
2.10771
2.249
2.24461
2.23512
2.23571
2.24399
2.24358
2.23876
2.27921
2.26181
2.26843
2.26069
2.26765
2.26569
2.26864
2.23953
2.24375
2.22818
2.23395
2.23814
2.23857
2.23091
2.2522
2.26683
2.2497
2.25448
2.25495
2.25828
2.24972
2.24986
2.25287
2.23627
2.24591
2.24602
2.24931
2.24116
2.25333
2.26401
2.25678
2.25698
2.25876
2.26203
2.25648
2.24516
2.24274
2.2333
2.24329
2.24191
2.24646
2.24083
2.16623
2.16328
2.15668
2.16184
2.15093
2.15683
2.151
2.15272
2.15359
2.15667
2.15046
2.14992
2.15461
2.15047
2.1383
2.15176
2.16353
2.1597
2.15374
2.15572
2.14789
2.1564
2.15318
2.15723
2.15077
2.15001
2.16795
2.15023
2.15702
2.15602
2.14851
2.22605
2.21602
2.21732
2.22213
2.21992
2.22029
2.23189
2.23491
2.2338
2.23402
2.21949
2.22479
2.22705
2.22472
2.22861
2.22762
2.22294
2.22756
2.22751
2.22893
2.22433
2.21938
2.22208
2.1357
2.12915
2.13138
2.13233
2.12556
2.12872
2.13259
2.15589
2.14501
2.14629
2.14729
2.15007
2.14874
2.14811
2.13193
2.13888
2.13409
2.13725
2.1306
2.13806
2.12869
2.12837
2.13702
2.12985
2.13834
2.1325
2.138
2.13065
2.14313
2.13772
2.1336
2.13286
2.13706
2.1369
2.12852
2.13933
2.1392
2.13628
2.13695
2.14036
2.14074
2.13609
2.13246
2.12986
2.13301
2.13845
2.1309
2.13381
2.13062
2.11553
2.12491
2.11722
2.12331
2.11855
2.12401
2.11921
2.11407
2.1198
2.11474
2.14107
2.13227
2.14221
2.13617
2.14137
2.13571
2.13998
2.13116
2.141
2.13113
2.13224
2.12873
2.13498
2.12511
2.11717
2.12758
2.12532
2.12364
2.12141
2.12714
2.12562
2.11734
2.12293
2.12315
2.1247
2.12268
2.13068
2.13951
2.13177
2.13356
2.13359
2.13601
2.13277
2.22185
2.21214
2.21209
2.20933
2.21568
2.21322
2.21367
2.22945
2.23081
2.23204
2.22347
2.2392
2.23322
2.20375
2.21555
2.20579
2.20506
2.20719
2.20914
2.203
2.21334
2.22431
2.21006
2.21956
2.21594
2.2168
2.21462
2.21752
2.22156
2.20932
2.21587
2.2206
2.21809
2.21444
2.22295
2.22575
2.22744
2.22234
2.2275
2.22235
2.22476
2.21
2.20691
2.20523
2.21488
2.21047
2.21036
2.21211
2.11255
2.11137
2.11182
2.10774
2.11176
2.11009
2.11006
2.11364
2.11319
2.1121
2.1112
2.11312
2.11192
2.11395
2.09331
2.09432
2.08259
2.09122
2.09611
2.09471
2.09227
2.10995
2.11171
2.10159
2.10241
2.10768
2.10896
2.10208
2.10213
2.11105
2.10031
2.1087
2.10337
2.10913
2.10268
2.10334
2.11181
2.11265
2.11186
2.10935
2.11071
2.11158
2.10767
2.09951
2.09966
2.10006
2.10237
2.10142
2.10237
2.13149
2.17137
2.17319
2.19201
2.18266
2.16203
2.16867
2.16661
2.16829
2.16968
2.16508
2.17849
2.17158
2.18282
2.16974
2.17543
2.17769
2.16425
2.16618
2.16953
2.1493
2.14379
2.15586
2.1526
2.14824
2.14669
2.16931
2.16089
2.17684
2.15761
2.16345
2.15949
2.16768
2.16005
2.15482
2.15821
2.15947
2.15042
2.15479
2.16236
2.16009
2.15218
2.16486
2.17314
2.16167
2.16184
2.15803
2.17493
2.17084
2.16064
2.22642
2.23257
2.22242
2.22548
2.22306
2.23583
2.22986
2.21797
2.23378
2.21903