/*--------------------------------*- C++ -*----------------------------------*\
| =========                 |                                                 |
| \\      /  F ield         | OpenFOAM: The Open Source CFD Toolbox           |
|  \\    /   O peration     | Version:  v1612+                                |
|   \\  /    A nd           | Web:      www.OpenFOAM.com                      |
|    \\/     M anipulation  |                                                 |
\*---------------------------------------------------------------------------*/
FoamFile
{
    version     2.0;
    format      ascii;
    class       surfaceScalarField;
    location    "200";
    object      phi;
}
// * * * * * * * * * * * * * * * * * * * * * * * * * * * * * * * * * * * * * //

dimensions      [0 3 -1 0 0 0 0];

internalField   nonuniform List<scalar> 
41233
(
-1.09976e-08
-4.45858e-09
4.5397e-09
4.03125e-09
-4.11685e-09
1.00693e-08
-9.98358e-09
2.08201e-09
3.77858e-09
-1.23233e-09
-4.62831e-09
5.99827e-09
-6.49853e-09
9.8873e-09
-9.38704e-09
5.93092e-09
3.72978e-09
-4.90954e-09
-4.75081e-09
-2.11756e-09
4.74404e-09
3.30451e-09
-1.0078e-09
-2.44311e-09
2.29678e-09
1.15433e-09
-3.69723e-09
5.72394e-10
-3.7969e-09
2.89386e-09
5.64716e-09
2.4618e-10
-3.13389e-10
1.29728e-09
-2.32978e-09
-1.41053e-09
-1.74994e-09
2.75872e-09
2.88586e-10
-1.96177e-09
-6.64506e-09
2.04144e-09
-6.33272e-09
2.99437e-09
-2.70297e-09
-4.33624e-10
3.6742e-09
-3.18974e-10
5.6394e-09
-2.42663e-09
-1.58519e-09
-1.48609e-09
2.75218e-09
7.79472e-11
6.33486e-10
-1.92099e-09
5.12803e-10
5.19565e-11
7.85729e-10
-5.2511e-09
-2.49981e-10
2.51745e-09
2.98364e-09
-5.2e-09
2.37479e-09
-2.42592e-09
-6.54557e-09
2.8757e-09
3.41979e-09
-1.08005e-09
-7.92901e-10
-4.67264e-09
-1.3129e-09
-4.96714e-09
-3.41802e-09
2.00298e-09
3.93256e-09
-1.38004e-09
3.36955e-10
4.57202e-09
-4.75293e-09
3.05657e-09
-1.67684e-09
6.93382e-09
-6.04994e-09
3.84679e-09
-7.31564e-11
-5.08649e-09
4.85335e-09
-5.83883e-09
7.52154e-10
2.33286e-10
2.95398e-09
-3.90319e-09
5.80263e-09
2.23053e-09
2.36306e-10
5.13839e-09
-6.88838e-09
-1.91926e-09
6.87618e-09
9.36497e-09
-6.7122e-09
1.90808e-09
-2.60847e-09
2.35453e-10
1.5621e-09
-3.3357e-09
4.09429e-09
-2.32097e-09
5.75332e-09
-1.6629e-09
-2.52834e-09
-1.40011e-09
-4.12318e-09
2.18779e-09
-4.3382e-09
5.53555e-09
-8.36929e-09
7.17219e-09
3.86539e-09
-8.22355e-09
2.95814e-09
-5.66149e-10
-4.68395e-09
-4.19414e-09
9.44435e-09
2.11608e-09
1.95962e-09
1.83871e-11
5.73151e-09
2.13796e-09
-3.81162e-09
1.59986e-09
-1.91131e-09
-1.81805e-09
-2.55964e-09
5.94353e-09
-1.83324e-09
-8.79409e-09
9.72859e-10
6.32448e-10
-9.45639e-10
2.3683e-09
-3.24055e-09
3.55355e-09
-6.33248e-09
2.06551e-09
3.97882e-09
-2.49081e-09
2.66013e-09
-1.00367e-09
4.09165e-10
-1.00488e-09
2.83862e-10
-3.49906e-09
4.49627e-09
1.45266e-09
3.5993e-10
6.01234e-09
3.41735e-09
-1.16909e-08
2.26132e-09
-5.67156e-09
5.15715e-09
6.52679e-09
9.5781e-09
-1.06986e-08
4.53789e-09
2.70914e-09
-5.35532e-09
1.22243e-08
1.9983e-09
-8.99019e-09
-4.69906e-09
-2.32385e-09
-3.8466e-09
4.99043e-10
4.8476e-09
-1.84627e-09
4.01879e-09
-7.02011e-09
5.29443e-09
-6.90968e-09
-9.08351e-09
-1.78292e-09
9.64933e-09
1.44224e-08
-2.86155e-09
-6.26652e-09
5.85453e-10
8.48163e-09
2.56359e-09
-3.98157e-11
-2.86755e-09
-5.69941e-09
1.65717e-09
3.65815e-09
-8.37199e-09
-1.01818e-08
8.96352e-09
-3.36122e-09
4.57954e-09
-7.09555e-09
-5.94784e-09
3.1953e-09
6.35374e-09
5.4908e-09
-8.92817e-09
2.21699e-09
-8.73773e-11
-4.74277e-09
6.15525e-09
3.78482e-11
-8.25654e-09
-2.72156e-09
3.45432e-09
7.52377e-09
-7.85608e-10
-6.68477e-09
-7.86154e-10
-5.77008e-09
5.70104e-09
-7.16582e-10
8.42028e-09
4.30643e-09
1.29477e-09
-1.40215e-08
3.14422e-09
-4.73918e-09
1.00152e-08
-7.57902e-09
6.62776e-10
4.19465e-09
-7.21982e-09
-7.04397e-09
-1.96653e-09
6.84779e-09
-5.27663e-09
3.95334e-10
9.90547e-09
6.88042e-10
-3.67019e-09
-6.92337e-09
-1.18989e-09
-6.74977e-09
8.66415e-09
-7.24524e-10
-3.35072e-09
1.90318e-09
1.1353e-08
-8.14974e-09
-9.71052e-10
-7.02855e-09
1.14101e-08
-3.6936e-09
-7.42458e-10
-1.42728e-08
7.98665e-09
8.59277e-09
-8.56632e-09
4.27996e-09
-8.49286e-10
1.25863e-08
6.36282e-09
-1.04392e-08
-1.43712e-08
6.40895e-09
1.06391e-08
-4.19705e-09
4.96805e-09
3.02586e-09
-9.53084e-10
3.56166e-09
4.64501e-09
1.04505e-09
-9.25172e-09
4.29082e-09
-8.06972e-09
7.34069e-09
-7.13503e-09
5.01424e-09
6.23093e-10
1.49785e-09
-1.97302e-09
-5.16953e-10
6.3983e-09
6.70312e-09
-1.20564e-08
-2.98283e-09
-3.59742e-09
-6.92966e-09
1.35101e-08
7.54862e-09
-5.06563e-09
-5.46571e-09
3.32714e-09
1.51711e-08
-1.21001e-08
1.21688e-08
-4.55069e-09
6.74834e-09
-2.01831e-09
-6.97463e-09
8.39141e-09
7.65727e-09
4.81455e-09
2.69926e-09
-7.28881e-09
8.0164e-09
4.58824e-09
-5.19782e-09
-7.06249e-09
5.81957e-09
6.44074e-09
3.96105e-09
-7.60212e-09
-1.5568e-09
-6.85093e-09
-3.38381e-09
-1.66309e-09
-4.01683e-09
1.12683e-09
-1.88067e-09
-1.9769e-09
-3.20484e-09
-2.93311e-09
-6.5497e-09
6.68368e-10
4.19154e-09
-7.79306e-09
3.01278e-09
3.80104e-09
-6.14544e-09
-2.69876e-09
-2.14848e-09
5.27589e-09
-4.28695e-10
5.34274e-09
-3.85003e-09
2.04805e-09
-7.22398e-10
-3.61726e-09
2.28119e-09
-2.68502e-09
6.84152e-09
4.03831e-09
-3.00239e-09
-4.96574e-09
1.38581e-09
8.94869e-10
-2.83399e-09
1.90658e-09
-1.18144e-09
3.0444e-09
4.22125e-09
1.11582e-08
-5.95462e-09
-9.42488e-09
1.05464e-08
-1.28484e-09
-5.0403e-09
1.70315e-09
2.39809e-09
7.05699e-09
3.83425e-09
8.41526e-09
-1.94846e-10
2.15135e-09
2.97419e-09
-4.93073e-09
-1.37012e-09
-3.18374e-09
6.28067e-09
-1.72677e-09
2.63502e-09
9.07974e-09
-7.24097e-09
-4.47379e-09
3.01919e-09
-8.40785e-09
5.08556e-09
3.03124e-10
7.64095e-09
-1.54707e-09
-1.20485e-08
-5.8129e-09
1.93129e-09
6.27968e-09
1.63319e-09
7.53272e-09
-4.61995e-09
1.06422e-10
-4.53353e-09
-8.33156e-09
6.23039e-09
6.6347e-09
-2.30078e-09
6.86708e-09
-6.25472e-09
7.78818e-09
-7.46217e-09
-1.62666e-10
3.4481e-09
-9.52871e-09
-5.29891e-09
-1.98394e-10
6.84819e-10
4.23498e-09
-4.72119e-09
3.03995e-09
4.41505e-10
-3.67971e-09
-2.35321e-10
8.32795e-09
-7.40783e-09
-9.54876e-10
8.11789e-09
-7.39824e-09
9.84021e-09
7.17694e-09
-8.68925e-09
-2.55225e-09
5.09537e-09
7.29715e-09
-4.98413e-10
3.37219e-09
1.66258e-10
4.20792e-09
-4.71344e-10
4.86193e-09
-5.3753e-09
1.3201e-09
4.24557e-09
-4.86605e-09
1.92907e-09
8.03232e-09
4.54972e-10
1.85593e-09
1.63272e-09
3.03019e-09
5.16019e-09
2.84164e-09
-3.13982e-09
3.58688e-09
2.89341e-09
1.34446e-09
1.74181e-09
2.86026e-10
-3.84951e-09
1.81998e-09
5.61643e-09
3.36606e-10
5.80917e-09
-2.06015e-09
-2.06734e-08
1.17527e-08
1.67312e-08
-7.81031e-09
-1.77955e-08
-3.94446e-09
1.06663e-09
-3.36786e-09
-1.1431e-08
1.39486e-08
8.50507e-10
-1.40075e-08
1.01089e-08
5.30721e-10
-7.87466e-09
5.52072e-09
-9.07698e-09
1.12581e-08
-7.9004e-09
-1.12322e-08
2.69047e-09
-5.43976e-09
5.30157e-09
8.42749e-09
-9.44026e-10
-1.2785e-08
7.56923e-09
1.53274e-09
-3.80039e-09
-6.02025e-09
9.66877e-09
3.92077e-09
7.50853e-09
-5.10126e-09
5.49744e-09
9.23136e-09
-1.56728e-08
8.95671e-09
-1.92657e-09
1.33409e-08
-1.01947e-08
-3.44587e-09
2.99678e-10
7.12922e-10
1.26873e-09
1.13593e-08
1.01969e-08
-4.24053e-09
1.55223e-09
-3.72811e-09
7.71261e-09
-6.55906e-09
2.57462e-09
7.99602e-09
-1.52726e-09
-4.68825e-09
9.67907e-09
-9.29387e-09
1.73022e-09
8.27662e-09
-1.05319e-08
1.10579e-09
1.2656e-08
-1.2493e-08
-2.49212e-11
-1.26847e-09
9.00602e-09
9.07689e-09
6.53881e-09
-3.42905e-09
7.00059e-09
-2.17807e-09
7.0559e-09
-5.39477e-09
8.00266e-10
6.11829e-09
-8.93677e-09
5.38849e-09
-6.76629e-09
-7.29314e-09
6.10642e-09
1.80986e-09
4.21518e-09
-4.45239e-09
-1.43627e-09
5.47981e-09
2.07466e-09
4.05703e-09
-1.04757e-10
-3.8106e-09
5.52922e-09
4.38778e-09
4.5927e-10
-5.46558e-11
2.74479e-09
6.75379e-09
-3.47357e-09
1.38633e-08
4.33715e-09
1.79159e-10
1.7565e-09
1.79187e-09
7.88929e-10
3.81205e-09
-4.50973e-09
1.08709e-10
8.74018e-09
-4.33896e-09
-6.87802e-10
-8.59819e-09
4.77642e-09
8.34555e-09
-8.06784e-09
4.54123e-09
-4.81877e-09
-1.79583e-09
7.08177e-09
-4.68003e-09
-6.05725e-10
9.36744e-09
-2.81763e-09
-4.19235e-09
-4.05009e-09
8.35125e-09
4.48728e-09
1.25557e-09
-2.77194e-09
-4.4266e-09
4.63818e-09
6.51741e-09
-6.72877e-09
3.52266e-10
4.5987e-09
-9.37729e-09
7.52034e-09
-1.52358e-08
4.93877e-09
-2.09838e-09
-1.9811e-09
1.25659e-08
-5.94641e-09
9.60695e-09
-6.9892e-09
1.11122e-08
-5.35283e-11
1.23483e-08
4.353e-09
-7.09416e-09
-7.40789e-10
6.81339e-09
6.2758e-09
5.7153e-09
6.10985e-09
1.27774e-08
-1.24005e-09
1.0532e-08
-6.46272e-09
1.39539e-09
-6.16177e-10
5.68348e-09
1.96473e-09
1.0591e-09
-9.48661e-09
5.22957e-09
2.34984e-09
-5.61471e-09
7.46812e-09
1.19792e-09
-7.60697e-09
6.24237e-09
2.62113e-09
2.7651e-09
3.19855e-09
-7.34087e-10
5.907e-09
5.68456e-10
-4.12565e-09
1.43847e-09
-2.76044e-09
-4.48465e-09
5.8066e-09
-3.10023e-09
-1.45972e-09
5.99825e-09
1.78546e-09
1.41516e-09
3.19371e-09
-6.39437e-09
3.99892e-09
-4.9739e-09
-2.98345e-09
-5.15147e-09
3.65024e-09
1.68149e-09
-6.25026e-09
1.58519e-09
-4.03782e-09
2.61906e-09
2.20475e-09
-2.54804e-09
-1.8162e-10
6.33282e-09
-4.56646e-09
-4.10776e-09
4.06319e-09
2.83101e-10
1.85149e-09
2.5781e-09
-2.28456e-09
5.11238e-09
-4.43531e-10
-2.38438e-09
3.0198e-09
-3.22393e-09
-2.08057e-09
4.50208e-09
-2.16121e-09
2.77127e-09
3.8436e-09
-3.89967e-09
5.2543e-09
-5.19828e-09
6.74983e-09
1.64676e-09
-5.76526e-09
-2.63202e-09
-4.31439e-09
4.14404e-10
1.06489e-08
-2.90661e-09
2.38693e-10
-3.39283e-09
9.4217e-09
-5.61453e-09
-1.47155e-09
2.58068e-09
5.33237e-09
1.30777e-09
-2.32134e-09
-4.31909e-09
3.41064e-09
-5.20393e-09
8.25568e-10
-8.76407e-10
9.37872e-09
-6.3552e-09
6.58925e-09
-9.61267e-09
2.96501e-10
8.57951e-09
5.02655e-10
4.43014e-09
2.59064e-10
-1.10444e-08
3.8891e-09
8.37553e-10
-5.78008e-09
5.60425e-09
-5.99698e-10
1.40894e-09
-6.75537e-09
4.80553e-09
1.35025e-09
-5.91336e-09
7.64325e-09
-8.48519e-09
-9.47095e-09
3.8167e-09
-4.04004e-11
-3.88205e-09
6.57319e-09
-2.6507e-09
-5.02691e-09
8.87564e-09
-8.43897e-09
4.08079e-09
1.29058e-09
-2.08625e-09
-2.19546e-09
-8.25353e-09
2.30938e-09
-2.7557e-09
8.70004e-09
-8.30488e-09
-6.41723e-09
6.46867e-09
3.31133e-09
-1.37365e-08
-5.7229e-10
-8.30812e-09
-7.91367e-09
8.09927e-09
8.12267e-09
-2.2583e-09
-1.54573e-09
-4.50399e-09
-1.19267e-08
1.24757e-09
5.19668e-09
5.48273e-09
-7.43145e-09
-2.0089e-09
-2.48626e-09
-1.36863e-09
-1.19717e-08
5.03554e-09
-3.43498e-09
-6.73688e-09
-4.51615e-09
-4.46095e-09
1.11482e-08
-8.1573e-09
-4.9996e-09
7.25377e-09
5.14213e-09
1.08914e-08
2.40459e-09
-4.00045e-09
5.17075e-09
6.08364e-09
-6.92927e-09
-7.95833e-09
4.39457e-09
-4.76527e-09
-2.95988e-09
7.96006e-10
9.56071e-09
-1.82343e-09
-7.84198e-09
1.05043e-10
7.95195e-10
8.09123e-09
-3.8833e-09
-8.72383e-09
4.92685e-10
-1.12227e-08
-2.48283e-09
1.32121e-08
-4.18971e-09
-1.99561e-08
-1.76854e-08
-3.81209e-09
1.02746e-08
-1.88871e-08
1.74441e-08
-2.74691e-09
-1.04009e-08
4.81381e-09
-1.62436e-08
2.18302e-08
-1.19169e-08
-9.95376e-09
4.18493e-09
-6.7876e-09
-1.55303e-08
-1.44287e-08
1.40971e-08
-2.15138e-09
9.67901e-09
1.02031e-09
-6.09287e-09
-4.60653e-09
-1.51072e-08
6.08017e-09
1.8706e-08
-6.64226e-09
-7.43103e-09
-9.72327e-09
7.83031e-09
-8.06084e-09
4.03683e-09
-2.05477e-08
-5.57812e-09
1.06059e-08
-1.2662e-08
-1.11436e-08
3.99729e-09
3.50426e-09
-4.82487e-09
-2.67677e-09
7.62787e-09
-5.65465e-09
2.024e-09
7.1268e-09
-1.30603e-09
-2.31659e-09
5.80848e-09
8.94612e-09
6.22887e-09
4.45805e-09
-9.82887e-11
-1.05887e-08
4.83601e-09
6.91162e-09
-5.51882e-09
9.63712e-09
-1.0004e-08
3.20117e-09
7.8123e-10
-2.95469e-09
3.23945e-09
-6.67435e-09
6.3894e-09
1.81439e-09
1.03916e-09
-3.78139e-11
-6.70627e-09
-1.18456e-08
1.85896e-08
-8.12913e-09
1.29273e-08
-2.15313e-09
1.17465e-08
-6.35403e-09
-5.83817e-09
5.4994e-09
-4.77066e-09
8.06907e-09
-4.60449e-09
-1.15752e-08
8.47492e-09
1.63783e-09
-3.02823e-10
1.69745e-09
6.98948e-09
-4.35276e-09
-2.10021e-09
5.25183e-09
-3.58032e-09
2.71276e-09
-1.19457e-09
-3.61843e-09
-8.66496e-10
4.0032e-09
2.11509e-09
1.65002e-09
1.96374e-10
2.1003e-09
-4.47628e-09
6.50035e-09
-2.84274e-09
-1.75099e-09
1.83421e-09
5.56108e-09
8.63156e-10
6.18444e-09
2.24629e-09
-2.9887e-09
-3.50919e-09
6.20655e-09
3.87148e-10
-2.52347e-09
1.52698e-09
-3.10887e-09
4.10536e-09
-7.75457e-10
-2.3978e-09
6.49477e-10
1.37112e-09
-3.1029e-09
-1.37823e-09
3.10996e-09
-1.64449e-09
4.54258e-09
-1.4108e-09
1.6608e-09
-3.35891e-09
-2.15767e-09
-3.85473e-09
2.90917e-09
-3.58928e-09
6.56401e-10
5.18489e-10
3.56792e-10
-5.64564e-09
4.77005e-09
8.07979e-10
-3.90256e-09
3.61292e-09
-2.26797e-09
-2.83209e-09
3.45554e-09
-5.12655e-09
1.48023e-09
-5.00966e-09
7.66708e-10
-1.13933e-09
-3.00349e-09
5.53286e-10
-4.43944e-09
-5.54571e-10
5.9532e-10
-5.24828e-09
-9.46645e-11
2.58363e-09
-4.61441e-10
-2.02783e-09
4.81467e-09
-4.3141e-09
2.27173e-09
1.1392e-09
-3.3348e-09
-3.76188e-09
7.42559e-09
2.17156e-09
-9.19279e-10
-8.67758e-09
-4.24032e-09
6.23204e-09
5.43413e-09
1.26867e-09
-3.33739e-09
7.29723e-10
2.02148e-09
-4.83243e-09
2.08143e-09
3.80751e-09
3.15438e-09
8.94752e-10
3.4852e-09
2.13099e-09
-3.45469e-09
3.34522e-09
4.18004e-09
4.81016e-09
5.01698e-10
-6.23099e-09
1.81398e-09
-1.8363e-09
-1.08111e-10
-5.26827e-09
-9.61963e-10
-5.47894e-09
3.60933e-09
-4.06944e-09
-2.0275e-09
3.87053e-10
1.71377e-10
1.9051e-08
5.23998e-09
-1.59397e-08
1.77979e-08
-1.01005e-09
2.2632e-09
1.03329e-08
-1.91924e-09
-3.17356e-09
9.48023e-09
1.86507e-08
7.53994e-09
1.90303e-10
9.31009e-09
1.32581e-09
-3.09599e-09
3.58857e-09
8.93079e-09
-3.2092e-09
2.05514e-09
6.95869e-09
-4.52654e-09
5.21834e-09
7.44526e-09
-7.8873e-09
1.00134e-08
-2.7399e-09
5.22678e-09
-3.27208e-09
8.05865e-09
3.3836e-09
-5.16727e-10
2.35991e-09
-2.25314e-09
1.10241e-08
-2.34707e-09
1.5416e-08
-9.04354e-09
-4.32012e-09
1.10166e-08
-7.91807e-09
-1.78924e-09
6.63803e-10
-2.87854e-09
-1.24559e-09
-3.11207e-11
-9.45157e-10
2.22175e-09
1.0172e-09
-2.45472e-09
1.9163e-10
-2.88036e-09
-2.08129e-09
4.93045e-09
-4.12527e-09
2.2622e-09
-7.30387e-10
-6.68289e-09
5.33218e-09
1.55485e-09
-6.3821e-09
4.09697e-09
-1.31404e-09
2.6861e-09
2.80803e-09
1.43867e-09
5.92289e-10
3.29577e-09
-6.58076e-09
3.68397e-09
2.71891e-09
-6.14515e-09
-3.42239e-10
-3.62167e-09
-1.59213e-09
5.76133e-10
-2.43401e-09
-2.03348e-09
-1.94463e-09
1.47593e-08
-4.57679e-09
-6.74338e-09
-3.43903e-09
3.34313e-09
8.94306e-09
2.47311e-09
3.12619e-09
-5.74782e-09
2.65255e-09
-3.09546e-11
-5.69643e-09
-2.68172e-09
3.80132e-09
-5.61589e-09
5.85697e-09
-2.98107e-09
-2.3884e-09
-1.01353e-10
9.89149e-09
-8.39079e-09
-8.244e-09
8.70812e-09
1.8603e-09
5.8127e-09
5.96741e-10
-8.26968e-09
5.68033e-09
-4.42572e-09
3.44659e-09
-3.33024e-09
-2.46609e-09
1.6478e-10
-7.70903e-09
-2.56681e-09
-1.06116e-08
5.23455e-09
-2.02029e-09
-1.21893e-09
-3.10346e-09
-3.17094e-09
3.48088e-09
2.79348e-09
2.42375e-10
-3.43136e-09
8.55237e-11
-5.76083e-09
-1.1937e-09
7.58283e-09
-6.28347e-10
2.29619e-09
-9.06436e-10
-7.15061e-09
1.79052e-09
2.59322e-09
-7.55467e-09
-9.74862e-09
2.80436e-10
5.85799e-09
3.61017e-09
1.45018e-09
-8.90261e-09
6.86055e-09
-7.63483e-11
-5.33405e-09
8.77058e-09
-2.33366e-09
4.23573e-10
8.9386e-10
-5.31006e-09
3.50974e-09
4.21994e-09
-1.31096e-09
-4.10275e-09
-7.31882e-10
-3.77563e-09
-3.79458e-09
8.30208e-09
-3.7521e-09
6.50106e-09
-2.92737e-09
3.15467e-09
1.50476e-11
-1.34127e-09
-4.78136e-09
2.34697e-09
3.56365e-09
8.60032e-11
-4.99099e-09
3.0819e-09
-7.24083e-09
5.23673e-09
7.38774e-09
-1.26378e-09
-4.01126e-09
5.19871e-09
2.99783e-09
-3.36777e-09
4.45693e-10
-3.75248e-10
9.92692e-09
1.42408e-10
-1.28961e-09
-8.77976e-09
-1.01674e-08
-8.30365e-10
6.00766e-10
1.0397e-08
-1.29156e-09
-7.59092e-09
-1.28499e-09
1.02685e-08
5.49007e-10
-7.9975e-09
5.28977e-09
5.83058e-10
-5.32383e-09
-5.24831e-09
5.82974e-10
5.12513e-09
-4.59788e-10
-4.7568e-09
6.91896e-09
-7.41049e-09
-6.17795e-09
7.1607e-09
-3.99777e-10
5.71109e-09
-4.84472e-09
4.87649e-09
4.23197e-12
-2.87409e-10
-1.08456e-08
-1.08099e-08
1.94538e-08
2.20168e-09
1.73718e-08
-1.03551e-08
3.22754e-09
-6.79927e-09
-4.06391e-10
2.36676e-09
1.74933e-08
1.12891e-09
1.58363e-08
-1.56772e-08
-3.73168e-10
1.8417e-08
-7.01054e-09
4.34654e-09
1.11216e-08
5.13898e-09
2.21723e-08
2.69592e-08
-7.23788e-09
-5.50705e-09
5.50344e-09
7.24153e-09
-6.9907e-09
2.41414e-09
-2.66123e-09
-8.85644e-10
1.07241e-09
-5.69377e-09
-7.78616e-09
-9.02288e-11
-4.0161e-09
1.20622e-09
8.31338e-09
-1.93369e-09
3.31753e-10
-7.758e-11
-7.55757e-09
-1.50997e-10
-4.21161e-09
1.93858e-09
3.394e-10
-1.99665e-09
-2.00757e-09
5.21041e-09
-1.91542e-09
-4.10233e-09
4.02113e-09
7.48604e-09
-3.18488e-10
-7.40839e-09
2.40897e-10
4.50851e-09
4.8978e-09
-1.92023e-09
8.67011e-11
-4.37591e-09
-1.0595e-09
-6.35912e-09
5.41101e-09
-7.57365e-09
4.59868e-09
-2.35344e-09
1.89672e-10
4.81999e-09
-5.05181e-09
-3.45387e-10
-1.50522e-09
-5.58852e-09
-2.33055e-09
-3.12194e-09
3.46787e-09
-1.46283e-09
-6.78861e-09
4.78362e-09
-4.64833e-09
-1.8981e-09
1.00143e-08
-5.57038e-09
-3.31438e-09
-3.14074e-09
1.20255e-08
-6.50761e-09
-1.03159e-08
1.12531e-08
-4.69848e-09
4.90615e-10
-4.40454e-10
1.03041e-09
1.06364e-08
-3.65539e-09
-8.01141e-09
5.67191e-09
-1.14194e-09
-3.49956e-09
7.77821e-09
7.42186e-09
-4.56372e-09
8.7392e-09
4.71092e-09
4.74975e-09
-1.19198e-08
5.70721e-09
-8.5831e-09
1.14347e-08
2.18711e-10
3.78419e-09
6.29937e-09
6.14143e-09
-3.86535e-09
2.64601e-09
2.06462e-09
2.71119e-09
6.68672e-09
-1.18227e-08
-1.17262e-08
1.16291e-08
3.23916e-10
1.03232e-08
-4.50571e-09
-5.62519e-09
-5.87349e-09
3.80473e-09
-1.07609e-08
4.03165e-10
1.79456e-09
8.56315e-09
-1.69151e-09
-5.55559e-09
-3.51388e-09
-7.02975e-09
6.73215e-09
-2.56078e-09
2.85835e-09
-4.35888e-09
-4.36241e-09
4.96036e-09
-5.72331e-09
-4.79265e-09
5.05514e-09
2.08014e-09
3.7143e-09
-2.50306e-09
-5.5701e-09
1.62393e-09
-4.70413e-10
7.45245e-09
-4.69511e-09
2.20295e-09
8.32486e-09
9.22165e-10
-3.27791e-09
4.42167e-09
3.29876e-09
-1.94211e-09
-4.69035e-09
2.85678e-09
3.77568e-09
-5.23648e-09
3.21392e-09
8.04556e-11
2.75494e-09
6.17869e-09
-5.63484e-09
-8.57595e-10
-8.39385e-11
1.57229e-09
-3.57425e-10
9.10758e-09
7.99868e-09
-1.67514e-08
-3.54842e-10
6.08355e-09
8.59674e-09
-5.57265e-09
5.54861e-09
1.72787e-09
9.04824e-09
-1.63245e-08
4.34796e-10
1.4016e-08
-8.90205e-09
-5.47879e-09
-9.555e-09
1.54688e-08
1.33959e-08
-1.71467e-08
-1.01588e-08
1.41115e-08
2.1308e-09
-7.72294e-09
5.56281e-09
-2.05138e-08
1.28107e-08
5.38031e-09
9.12752e-10
4.82388e-09
1.08562e-08
-1.02998e-08
8.99864e-09
-5.0519e-09
9.44934e-09
1.51289e-08
-9.56576e-09
3.43561e-09
1.443e-08
-4.85751e-09
5.55638e-09
-1.5519e-08
2.23947e-09
-2.11002e-09
1.53895e-08
-5.04261e-09
-8.27464e-09
-1.08806e-08
1.3563e-08
-1.21196e-08
9.43724e-09
-1.2615e-08
-3.30821e-09
-2.41542e-09
1.8218e-08
1.17941e-08
-1.3479e-08
-6.58968e-09
2.03767e-08
-1.9525e-08
1.09424e-08
3.39308e-09
1.48737e-08
-9.65147e-09
-1.44054e-11
-2.45365e-09
-8.26464e-09
-1.40017e-08
-4.11152e-09
-1.14326e-08
1.31287e-08
-1.71178e-08
9.07317e-09
-1.14802e-08
-2.06402e-09
-1.61366e-08
1.54182e-08
-9.61928e-09
-1.82765e-09
-5.06732e-09
-1.99606e-09
-9.42064e-09
-5.26587e-09
3.06988e-09
-8.19115e-09
5.03913e-09
8.21142e-11
1.04736e-08
-1.18517e-08
4.44803e-09
3.11709e-09
-5.02819e-09
1.23845e-08
-5.09934e-09
-5.17927e-10
8.73417e-09
1.02865e-08
-8.53771e-10
-1.76238e-08
8.81109e-09
-1.03764e-08
-8.28202e-10
7.67919e-10
4.30258e-09
-5.19714e-10
-1.04889e-08
3.85542e-09
1.19308e-08
-5.2974e-09
1.23598e-08
-8.888e-09
-1.45939e-08
1.11222e-08
-2.55755e-10
2.12666e-09
-4.95477e-09
8.29222e-09
7.42294e-09
-1.71648e-08
6.13962e-09
1.02746e-09
3.56592e-10
-4.87201e-09
-1.26426e-08
1.24743e-08
1.78563e-09
-1.81752e-08
1.15176e-08
1.29248e-08
8.68201e-09
-1.18472e-08
-9.75956e-09
6.39404e-09
8.31637e-09
7.7492e-10
-1.00032e-08
-3.41431e-09
-1.33308e-08
-4.06947e-09
-1.89652e-09
-7.50137e-11
1.01147e-08
-1.25953e-09
-1.07516e-08
-8.76435e-09
9.8595e-09
6.11685e-10
-6.94017e-10
3.98954e-09
-3.87806e-09
-1.0186e-09
-1.09036e-08
-1.86585e-11
8.41567e-09
-9.65652e-09
-9.90727e-09
8.86999e-09
-3.74104e-09
-1.69431e-09
-9.66598e-09
-6.12357e-09
1.43402e-09
-2.68435e-09
-5.60533e-10
-8.3565e-09
3.98011e-10
6.09083e-09
-7.09405e-10
-5.7794e-09
-5.87685e-10
7.50797e-09
-6.52224e-09
3.41103e-09
-6.40642e-09
9.08622e-09
6.27387e-09
-1.9556e-09
-9.07264e-10
-5.42509e-11
3.71596e-09
-4.3711e-09
4.05067e-09
-4.69261e-09
-1.70428e-09
6.84287e-09
-8.17285e-09
3.03422e-09
-7.00269e-09
4.33137e-09
9.67013e-10
-8.3838e-09
-2.69197e-09
-1.11702e-09
1.21928e-08
-5.56538e-09
4.02445e-09
1.97207e-09
6.43288e-09
-2.13107e-09
3.48386e-09
-1.72353e-09
1.55614e-09
-5.27619e-09
-4.4528e-09
-1.96269e-09
1.08413e-08
1.70973e-09
-5.04306e-09
4.2906e-09
7.79122e-09
-1.24043e-09
-1.02953e-08
1.1894e-08
-1.27126e-08
-3.14807e-09
5.18641e-09
8.06703e-09
-9.29255e-09
-2.9358e-09
-9.85481e-09
2.04572e-08
-2.36002e-09
-8.24236e-09
2.09171e-08
-8.59963e-09
-2.30733e-08
-9.85175e-09
1.08e-08
2.2125e-08
2.64912e-09
-4.80534e-09
1.4778e-09
8.43977e-09
2.98076e-09
7.62475e-09
1.45471e-08
-1.10014e-08
-8.96544e-10
1.43625e-08
-2.16357e-09
2.3482e-09
2.05478e-09
2.31077e-08
9.1685e-09
-2.01326e-09
-7.98665e-09
8.31404e-10
-5.44129e-09
1.66646e-08
-6.28842e-09
-5.82966e-09
9.75817e-09
6.86035e-09
-1.1671e-08
-9.66052e-09
1.28005e-08
-8.58124e-09
-1.13245e-08
-3.49281e-10
5.68451e-09
-8.24616e-09
-1.01888e-08
3.85705e-11
-8.64409e-09
-3.12192e-10
-2.36816e-09
-1.82643e-09
-2.67788e-09
-2.09954e-09
1.63046e-09
-3.76068e-09
4.22893e-09
-3.33336e-09
2.06393e-10
1.02625e-09
-2.28686e-10
-4.2339e-09
1.12908e-09
-2.79403e-09
2.10533e-09
4.59759e-10
5.87035e-09
-2.17336e-10
-5.84896e-09
1.95725e-10
1.51612e-09
1.20306e-10
-1.54763e-09
3.07693e-10
2.87002e-09
-2.16215e-09
1.69804e-09
6.69956e-10
1.76456e-09
-4.00909e-09
1.13453e-10
-3.12487e-09
-8.88528e-10
8.31554e-10
-1.83355e-09
-4.55211e-09
3.27871e-09
3.1069e-09
-3.65916e-09
9.36738e-10
4.04495e-10
-4.04467e-09
-9.12105e-10
-3.04378e-09
-2.10891e-10
4.27436e-09
3.01038e-09
1.19131e-10
-7.40393e-09
-4.97545e-09
4.19924e-09
5.0505e-09
-6.61694e-10
-5.03997e-09
7.26028e-10
6.66375e-10
1.98493e-09
-3.32946e-10
-4.37351e-09
-3.26335e-09
-4.70866e-09
-5.83188e-09
1.25222e-09
9.2882e-09
-4.99124e-09
-7.57236e-10
1.03975e-09
1.06839e-08
-7.78927e-09
-7.88588e-09
8.45786e-09
-3.60582e-09
4.10635e-09
-4.12432e-10
-4.12007e-09
4.25834e-10
2.48496e-09
1.38998e-09
2.31558e-10
-5.76969e-10
-8.73066e-09
1.51832e-09
2.80094e-09
4.78315e-09
-5.96685e-09
-1.61735e-09
-5.44732e-09
4.45782e-09
-2.05631e-09
-1.96272e-09
5.27103e-09
-1.30852e-09
2.05308e-09
3.71107e-09
-1.74009e-09
5.13974e-10
-2.14686e-09
-2.61332e-09
2.79741e-09
2.5555e-10
1.58877e-09
-4.95931e-09
6.12701e-09
-3.56828e-09
1.41357e-09
-6.68127e-09
6.29728e-09
-2.82077e-09
-4.48842e-09
6.67182e-09
-3.93436e-09
4.83444e-09
-1.20861e-09
9.51144e-10
-4.57689e-09
2.68987e-09
-1.80882e-09
3.95345e-09
8.76794e-09
-7.47488e-09
4.26806e-09
-3.96906e-09
8.06369e-09
1.1363e-08
-1.54577e-08
5.42411e-09
7.27173e-09
-1.66649e-08
-5.90064e-10
1.79878e-08
-9.02951e-09
-8.36805e-09
-5.87025e-09
-5.0734e-09
1.03537e-08
2.02081e-09
-7.09979e-09
1.31427e-08
-7.91946e-09
-6.11344e-09
1.60537e-08
-7.22504e-09
4.72969e-09
1.49512e-08
2.23793e-09
7.98613e-10
6.24662e-09
1.60484e-09
-9.26093e-09
1.15137e-08
-8.36616e-09
-1.26413e-08
-3.84463e-09
8.02707e-09
-1.19345e-08
-2.13911e-09
6.0467e-09
-5.98884e-09
-5.67467e-09
-2.51258e-09
1.41762e-08
-4.5308e-09
3.37689e-09
-1.14874e-08
-2.38091e-09
5.87725e-09
1.00257e-08
-5.20788e-09
-1.07416e-08
5.92395e-09
2.75818e-09
-9.46859e-09
1.67362e-08
8.77455e-09
-1.65783e-08
-4.24187e-09
1.20458e-08
9.85523e-09
-1.62193e-08
-8.49238e-09
1.48566e-08
2.1388e-08
-1.12795e-08
-4.81243e-09
6.62347e-09
-1.661e-08
1.2278e-10
-2.06398e-09
-1.12161e-08
2.53855e-09
1.44923e-09
1.40353e-08
-4.1464e-09
-1.13381e-08
1.4693e-08
-3.3697e-09
-9.87397e-09
-2.1632e-10
-2.32672e-09
-1.45387e-08
-1.89693e-09
5.63869e-09
-1.21059e-08
1.5497e-09
-1.08903e-08
-1.69358e-08
1.22265e-09
8.49857e-09
-1.38676e-08
-1.30374e-08
-1.81461e-08
-5.07531e-09
9.80111e-09
-8.96536e-09
4.23973e-09
8.88621e-09
-1.05426e-08
-1.75988e-08
1.92552e-08
-6.82641e-09
7.51386e-10
1.49613e-08
-1.91417e-08
-3.84767e-09
1.88923e-08
4.09743e-09
-1.14284e-08
9.31766e-09
-1.70308e-08
-3.50801e-09
1.14748e-08
-1.22377e-08
4.27115e-09
3.48654e-09
-1.20698e-08
4.18602e-09
-1.21128e-09
-1.08376e-08
7.79849e-09
-8.08428e-10
-1.87795e-08
-1.96319e-08
3.11965e-09
1.32232e-09
1.51901e-08
-2.57446e-09
-7.30634e-09
-9.751e-09
1.69175e-08
-1.01743e-08
2.16453e-08
1.41646e-08
-2.02419e-08
3.91428e-09
1.94473e-08
-1.60734e-08
-1.25356e-09
-1.76617e-09
1.21555e-08
-9.13572e-09
1.14572e-08
-8.79643e-09
1.35025e-08
-1.51798e-09
5.27678e-09
1.7691e-08
1.70131e-08
-1.101e-08
9.58142e-09
-5.93493e-09
7.36352e-09
7.58628e-10
-5.60143e-09
-6.16728e-09
-3.01654e-09
1.96936e-09
1.06284e-08
2.49547e-09
-1.10674e-08
5.55512e-09
-7.61372e-10
4.13287e-09
4.51964e-09
-7.89123e-09
4.19674e-09
7.08806e-09
-1.20462e-08
1.12266e-08
-6.27135e-09
1.08962e-08
-1.23647e-08
4.41824e-09
5.43052e-10
3.11956e-09
-8.22427e-09
7.60015e-09
-6.59313e-09
1.1682e-08
9.61946e-11
6.30009e-11
6.72617e-09
1.09477e-08
-1.05859e-08
1.21339e-08
-8.88127e-10
-7.75286e-09
-3.75178e-10
-3.31299e-09
6.50789e-09
7.64063e-09
1.18034e-09
5.46573e-09
-6.29936e-09
-2.30728e-09
1.34253e-08
-4.81858e-09
-7.33505e-09
-7.16428e-09
8.20005e-09
5.65863e-10
3.02899e-09
-1.09298e-08
-1.24413e-09
-1.20874e-08
8.22682e-09
-1.68785e-08
7.40748e-09
1.37675e-08
-7.84798e-09
-5.60248e-09
-5.53885e-09
-9.46069e-10
-1.37196e-08
-1.82886e-09
-1.33006e-09
-8.34922e-10
-1.00627e-08
5.068e-09
-6.09143e-09
-1.80299e-08
1.58789e-08
-6.78879e-09
-1.25333e-08
-1.37151e-08
-6.89525e-10
2.85086e-10
6.29775e-09
-5.89326e-09
-6.86188e-10
6.21494e-09
-6.21818e-09
2.9791e-10
-3.9586e-10
4.82794e-09
-4.72985e-09
6.60183e-09
-6.01883e-09
4.36211e-09
6.71407e-09
-4.47434e-09
-2.21617e-09
6.25618e-09
3.22135e-10
5.27557e-09
-6.35755e-09
-3.76475e-09
6.46027e-09
3.51947e-09
3.16813e-10
1.73996e-08
1.37527e-11
-8.67851e-09
-8.73487e-09
1.30277e-09
6.50089e-10
1.54466e-08
9.01363e-09
-4.172e-09
9.63571e-10
9.35293e-09
-1.22841e-10
-7.50991e-10
7.1301e-09
7.55478e-09
1.30288e-08
-1.64316e-08
1.46749e-09
1.22114e-08
7.17683e-09
-4.24246e-09
1.07352e-08
-1.59264e-08
9.4337e-09
1.0334e-08
5.55897e-09
-2.01355e-08
-2.33722e-08
7.05695e-09
4.72182e-09
1.15936e-08
6.20725e-09
-1.5933e-08
-1.36465e-08
9.83604e-09
1.13163e-08
-1.08183e-08
-2.79608e-08
1.69681e-08
1.80497e-08
-1.19175e-08
-6.1821e-09
2.58865e-08
-8.38818e-09
1.42774e-08
-9.72432e-09
6.37314e-09
1.26353e-08
-1.34495e-08
1.94754e-08
-4.31453e-09
-8.78781e-09
1.9788e-08
-2.30857e-08
1.04985e-08
1.40113e-08
7.81049e-09
1.72156e-08
8.60283e-10
2.8841e-08
-5.43427e-09
-9.12945e-09
1.24965e-08
2.63026e-09
1.37142e-08
1.5879e-08
8.8996e-09
1.25453e-08
1.71668e-08
-1.22723e-08
1.21104e-08
1.06605e-08
-1.62243e-08
5.08515e-09
-1.1331e-09
-4.95934e-10
3.74702e-09
-2.28946e-08
1.34098e-08
1.2115e-08
-1.27108e-08
-1.56181e-08
6.775e-10
2.77467e-08
-1.36062e-08
2.63941e-08
4.88875e-09
-6.67877e-09
6.76973e-09
6.67431e-09
-6.76526e-09
9.13367e-09
-4.71268e-09
5.02957e-09
-9.45051e-09
8.22766e-10
9.96017e-09
-1.64927e-09
-1.13546e-09
5.80474e-09
-1.31559e-08
8.48662e-09
-1.25269e-08
6.5737e-09
2.6657e-10
-7.05061e-11
7.74285e-09
-2.45757e-10
4.30098e-10
7.46337e-09
-1.5057e-10
6.70645e-09
2.9738e-10
-3.06702e-09
3.0132e-09
6.76034e-09
1.28351e-10
4.26802e-09
1.8583e-08
-3.49924e-09
-1.0054e-08
8.66305e-09
2.56613e-09
7.3539e-09
7.42251e-09
1.12007e-08
-3.67021e-09
6.00789e-10
-6.54988e-09
9.61935e-09
3.88066e-09
7.09755e-09
-4.02067e-10
1.35353e-09
-8.04889e-09
6.71989e-09
6.70069e-09
-6.32303e-09
1.03339e-08
1.45472e-08
-1.22417e-08
-1.08335e-08
6.84976e-09
3.31171e-09
-9.61701e-09
3.17974e-10
3.59493e-09
5.70397e-09
7.44064e-10
-4.51354e-09
-5.84758e-09
-8.93779e-09
5.32569e-09
3.93007e-09
-1.01873e-08
-5.67025e-09
6.91979e-09
-1.17367e-08
4.75239e-09
1.05792e-08
-6.40935e-09
-4.58334e-09
-3.924e-09
-1.07769e-08
1.14795e-08
5.13568e-09
-9.67916e-09
-6.93618e-09
-5.97001e-09
7.57993e-09
9.86956e-09
-3.01983e-10
-5.32337e-10
-6.5546e-09
5.85622e-09
-5.5388e-09
6.23723e-09
-7.09644e-09
2.04184e-10
3.37645e-10
-9.57507e-11
1.00835e-08
-4.13157e-09
6.16243e-09
-1.235e-08
2.26356e-09
1.22365e-08
5.80017e-09
-6.73414e-09
-4.06147e-11
4.65057e-09
-7.38732e-09
-4.61308e-09
7.34966e-09
-1.90082e-09
9.83076e-10
5.56832e-09
-5.17283e-09
3.01891e-09
-3.78835e-09
5.94227e-09
-7.7063e-09
6.32604e-10
-1.791e-09
5.54716e-09
-7.37319e-10
-5.25427e-09
-3.87887e-09
1.4268e-09
2.27209e-09
-1.00164e-08
6.69254e-09
1.05152e-09
-4.32254e-09
4.80359e-09
-3.63468e-09
-3.41966e-09
-3.33126e-10
-3.00271e-09
-5.88633e-09
-4.95755e-09
-9.17661e-10
2.08685e-09
-6.36265e-09
-2.47382e-09
-2.13487e-09
-6.0894e-09
8.21352e-09
1.08411e-11
-2.35598e-09
-9.79526e-09
-9.50254e-10
-8.21794e-09
3.07878e-09
-1.03156e-08
2.97333e-09
8.79562e-09
-1.8662e-09
-1.35368e-08
6.60707e-09
4.04931e-09
-8.21323e-09
1.29595e-08
6.74688e-09
-1.60332e-08
7.41995e-09
4.75812e-09
-6.70604e-09
8.6947e-09
-7.14781e-09
2.87612e-09
7.65885e-10
3.50563e-09
-3.37184e-09
-3.91727e-09
1.41299e-10
3.75875e-09
7.18479e-09
-8.06761e-09
-2.18904e-09
9.99688e-09
-3.71654e-09
6.28556e-09
7.57409e-09
-1.20767e-08
-9.03434e-09
-2.59537e-09
1.95613e-09
5.68847e-09
-1.1649e-08
-1.00727e-08
-1.59472e-09
5.77084e-10
-6.81148e-09
3.8608e-09
-9.24216e-09
4.48554e-09
-5.61097e-09
-7.92384e-09
4.29265e-09
1.18163e-10
-5.20801e-09
-6.55922e-09
1.03997e-08
-5.18292e-09
-8.58866e-09
1.99348e-09
-5.73621e-09
-6.22239e-09
6.39315e-10
-1.10303e-08
-1.07079e-08
3.95403e-09
3.03631e-09
-1.05369e-08
3.54655e-09
4.54852e-09
-1.51577e-09
9.21209e-10
2.96154e-09
-2.72725e-09
-6.70471e-10
-5.11926e-09
-3.54005e-09
7.03789e-10
8.39494e-09
-5.55883e-09
1.03786e-09
-2.12665e-09
-2.4515e-09
-9.1145e-09
2.27369e-09
2.259e-09
4.58189e-09
-1.42706e-08
8.19247e-09
-3.96319e-09
6.93866e-09
1.27198e-09
-1.49533e-08
2.47166e-09
3.67071e-09
8.81088e-09
1.7403e-08
-1.70529e-08
-1.53035e-08
-9.11338e-09
-1.37503e-08
6.72528e-09
1.61383e-08
5.6579e-09
8.79129e-09
-2.35625e-08
-1.14026e-08
-7.23871e-09
4.89103e-09
-1.12335e-09
1.20753e-08
6.67073e-09
-1.76226e-08
2.54488e-09
-1.50708e-08
-2.14795e-08
7.94755e-09