/*--------------------------------*- C++ -*----------------------------------*\
| =========                 |                                                 |
| \\      /  F ield         | OpenFOAM: The Open Source CFD Toolbox           |
|  \\    /   O peration     | Version:  v1612+                                |
|   \\  /    A nd           | Web:      www.OpenFOAM.com                      |
|    \\/     M anipulation  |                                                 |
\*---------------------------------------------------------------------------*/
FoamFile
{
    version     2.0;
    format      ascii;
    class       volScalarField;
    location    "50";
    object      p;
}
// * * * * * * * * * * * * * * * * * * * * * * * * * * * * * * * * * * * * * //

dimensions      [0 2 -2 0 0 0 0];

internalField   nonuniform List<scalar> 
21319
(
1.25178
1.22404
1.11867
1.11869
1.15135
1.15316
1.29994
1.27663
1.33484
1.35757
1.41354
1.22297
1.24229
1.2435
1.29215
1.28371
1.23047
1.45739
1.40229
1.47697
1.27796
1.24283
1.44963
1.37822
1.4694
1.28013
0.989273
1.17182
1.39415
1.18483
1.42059
1.40265
1.42628
1.3016
1.29093
1.36544
1.35308
1.00312
1.45608
1.32986
1.33669
1.32341
1.26948
1.32672
1.4532
1.19795
1.0079
1.03439
1.03601
1.44678
1.16169
1.4802
1.47656
1.46807
1.00515
1.12541
1.34398
1.30833
0.967295
1.0743
1.46423
1.45311
1.2821
1.2839
1.2175
1.21061
1.4363
1.4634
1.46646
1.42901
1.44385
1.20203
1.47552
1.3174
1.46734
1.42017
1.23868
1.34564
1.29465
1.30216
1.29907
0.997137
1.45771
1.45137
1.45653
1.39258
1.4525
1.40079
1.01332
1.35499
1.30526
1.36999
1.33346
1.33033
1.46089
1.24602
1.24333
1.22345
1.06201
1.1283
1.08105
1.33944
1.36676
1.36469
1.44981
1.13303
1.25943
1.46521
1.41728
1.31474
1.39865
1.35248
1.36881
1.12829
1.14217
1.1074
1.16603
1.33363
1.3589
1.24848
1.28733
1.32936
1.29194
1.30461
1.21953
1.28251
1.22388
1.24087
1.29729
1.28764
1.47184
1.39983
1.37103
1.28607
1.25609
1.23509
1.24093
1.29072
1.1628
1.0807
1.10731
1.08927
1.09872
1.20991
1.40321
1.44374
1.44189
1.46832
1.47046
1.17247
1.33941
1.43309
1.44453
1.34139
1.41505
1.33848
1.3472
1.32846
1.47015
1.39779
1.40032
1.02224
1.43987
1.41763
1.10027
1.22444
1.18425
1.37565
1.0731
1.02831
1.03066
1.4672
1.45524
1.45543
1.46053
1.38298
1.1354
1.02003
1.03193
1.43289
1.43044
1.37382
1.36525
1.1991
1.34031
1.44686
1.44669
1.45825
1.44936
1.34775
1.33056
1.38203
1.44747
1.47259
1.2364
1.46158
1.28195
1.45695
1.46185
1.44815
1.4582
1.44943
1.43207
1.10444
1.13185
1.43013
1.45477
1.12062
1.11692
1.28913
1.43192
1.42736
1.39477
1.35716
1.39992
1.19786
1.1636
1.3908
1.46546
1.15611
1.15849
1.15059
1.43494
1.45276
1.46439
1.44172
1.45243
1.45416
1.10716
1.09562
0.987763
1.38203
1.36099
1.45071
1.47695
1.46779
0.999994
1.02865
1.44006
1.41187
1.41818
1.42946
1.46257
1.46964
1.46174
1.27185
1.26612
1.32
1.35043
1.32387
1.25597
1.27272
1.26478
1.39199
1.32558
1.42259
1.31644
1.27265
1.34204
1.45257
1.45295
1.36935
1.16677
1.45135
1.00695
0.984754
0.987631
0.980711
1.41144
1.45306
1.4483
1.45574
1.46597
1.45901
1.17551
1.21755
1.19591
1.36289
1.3192
1.44571
1.38184
1.39808
1.29995
1.24209
1.37441
1.1089
1.12269
1.10709
1.14751
1.4255
1.13991
1.46815
1.41725
1.45118
1.28663
1.30381
1.32799
1.27773
1.354
1.31836
1.31504
1.42452
1.43467
1.46032
1.36336
1.36312
1.31942
1.36815
1.30913
1.31742
1.23761
1.22562
1.26966
1.10129
1.21484
1.19074
1.26981
1.32284
1.30791
1.27895
1.32598
1.41147
1.40717
1.27206
1.28658
1.24906
1.09032
1.18266
1.24807
0.978794
1.21734
1.45963
1.47339
1.47582
1.14675
1.2096
1.4651
1.45496
1.42871
1.40756
1.44604
1.36788
1.3763
1.38429
1.30888
1.37823
1.06477
1.09819
1.47007
1.45957
1.40668
0.982468
1.01332
1.41121
1.38319
1.42492
1.45421
1.13641
1.11195
1.11264
1.10759
1.30429
1.42648
1.45941
1.46128
1.44825
1.45166
1.21295
1.21
1.22237
1.13861
1.13341
1.44357
1.17291
1.41243
1.39631
1.31328
1.3292
1.21386
1.31802
1.2853
1.26761
1.30353
1.39156
1.00922
1.4638
1.39937
1.45112
1.46287
1.22959
1.19799
1.25861
1.34609
1.25825
1.23955
1.29085
1.26502
1.27452
1.27777
1.31625
1.44312
1.38578
1.37617
1.18569
1.28097
1.27997
1.46024
1.46562
1.29749
1.27337
1.25764
1.09904
1.03652
1.05535
1.41422
1.14917
1.14541
1.16813
1.19272
1.43993
1.39681
1.3593
1.34899
1.35482
1.26968
1.32946
1.36063
1.33827
1.15734
1.1544
1.33928
1.26997
1.32843
1.45117
1.2928
1.46046
1.45584
1.14301
1.4647
1.35417
1.32204
1.47151
1.46831
1.4142
1.25641
0.985085
0.9901
1.04677
1.12643
1.34094
1.10568
1.31513
1.40662
1.44596
0.970109
1.38568
1.15769
1.19571
1.35638
1.31641
1.43657
1.43272
1.14492
1.1659
0.996434
1.41802
1.13201
1.45702
1.44574
1.44575
1.44903
1.45551
1.45259
1.45297
1.47347
1.44872
1.11531
1.11269
1.0775
1.09073
1.06332
1.06261
1.08832
1.08828
1.09882
1.14736
1.15313
1.46974
1.47727
1.46989
1.47401
1.46826
1.47184
1.48114
1.46352
1.47672
1.47695
1.46481
1.46067
1.47095
1.4306
1.45694
1.44604
1.45596
1.44204
1.43518
1.46863
1.45551
1.45515
1.43876
1.45055
1.4565
1.08824
1.09599
1.09429
1.24239
1.46437
1.46231
1.47031
1.4352
1.44491
1.4121
1.0141
1.03392
1.44425
1.47854
1.40853
1.12179
1.07773
1.28751
1.02535
1.36057
1.24954
1.41736
1.41413
1.45752
1.4544
1.46496
1.46441
1.46648
1.31471
1.1219
1.15319
1.39656
1.36354
1.37833
1.30359
1.29627
1.23123
1.25914
1.24065
1.14413
1.1233
1.1354
1.03134
1.02125
1.46593
1.30594
1.25516
1.24634
1.44225
1.45519
1.26493
1.25838
1.20475
1.27375
1.18966
1.46755
1.47615
1.47253
1.41224
1.40888
1.1102
1.24043
1.37984
1.46528
1.35711
1.16514
0.993949
1.30356
1.46996
1.47094
1.45203
1.41551
1.46201
1.47501
1.1926
1.46173
1.36842
1.28956
1.22551
1.35514
1.25371
0.994354
1.06554
1.36069
1.39263
1.39697
1.36954
1.45915
1.42455
1.33061
1.14078
1.28419
1.43846
1.4005
1.40831
1.37975
1.12049
1.15107
1.11827
1.35446
1.34311
1.411
1.45778
1.45846
1.3912
1.13655
1.12223
1.26749
1.4582
1.46972
1.46852
1.46157
1.45177
1.05136
1.36588
1.33705
1.39275
1.36862
1.4726
1.46345
1.18285
1.19963
1.17908
1.45225
1.45785
1.44353
1.16695
1.10867
1.08642
1.11143
1.10822
1.10368
1.14501
1.43772
1.44758
1.44566
1.43321
1.41827
1.31398
1.4213
1.09678
1.47162
1.19805
1.06281
1.23674
1.40041
1.45958
1.43371
1.24689
1.06195
1.45046
1.36055
1.43861
1.45082
1.19048
1.01807
1.39635
1.05032
1.02377
1.18147
1.42163
1.06107
1.04871
1.40893
1.40128
1.02304
1.35485
1.41638
1.42588
1.40442
1.45687
1.09597
1.11736
1.2603
1.21255
1.4046
1.43237
1.46226
1.46592
1.45528
1.10756
1.09066
1.08255
1.19138
1.37118
1.3972
1.35388
1.37752
1.2846
1.46236
1.28201
1.07595
1.22782
1.10442
1.46281
1.2275
1.47039
1.41639
1.35547
1.32416
1.45213
1.42791
1.13536
1.41308
1.19004
1.265
1.35324
1.03185
1.18897
1.12284
1.40674
1.31223
1.42361
1.28794
1.33487
1.24368
1.34155
1.45139
1.46483
1.43836
1.45114
1.4136
1.36242
1.45813
1.42951
1.45428
1.36274
1.39081
1.46195
1.16162
1.34698
1.08514
1.44214
1.40297
1.39347
1.4369
1.16222
1.24877
1.37028
1.32385
1.44829
1.37794
1.3863
1.38403
1.41608
1.28314
1.35754
1.27999
1.44901
1.42951
1.38914
1.38237
1.38782
1.12658
1.31528
1.44485
1.38157
1.43392
1.3473
1.40662
1.45613
1.45562
1.25402
1.11919
1.42907
1.30195
1.42614
1.29801
1.35424
1.11286
1.23429
1.35007
1.25153
1.22549
1.31289
1.33528
1.14525
1.13348
1.15675
1.10097
1.10553
1.03628
1.26186
1.33672
1.22257
1.2048
1.32045
1.32204
1.14777
1.09686
1.15485
1.10892
1.02345
1.0127
1.04847
1.45323
1.39478
1.35821
1.34691
1.24134
1.23208
1.24896
1.19009
1.4494
1.47005
1.46064
1.35817
1.34163
1.46251
1.39574
1.39354
1.39474
1.43503
1.36208
1.29481
1.36826
1.35845
1.40952
1.37908
1.3207
1.25789
1.35932
1.28326
1.27173
1.34674
1.42814
1.46718
1.43981
1.45666
1.43446
1.19507
1.31013
1.36475
1.36669
1.11284
1.14096
1.16576
1.12129
1.08303
1.17034
1.27107
1.4041
1.33685
1.35673
1.31344
1.37852
1.31415
1.35609
1.16873
1.2414
1.21627
1.40735
1.37831
1.29534
1.39815
1.37437
1.28163
1.18727
1.29127
1.26512
1.30596
1.18917
1.25936
1.27561
1.46327
1.11605
1.00907
0.976103
1.17803
1.11376
1.26609
1.28993
1.33105
1.28167
1.46811
1.45746
1.21007
1.20795
1.22151
1.0914
1.22893
1.10881
1.21925
1.15181
1.17899
1.1827
1.30835
1.38013
1.33893
1.37734
1.34089
1.35359
1.36709
1.45187
1.44881
1.44569
1.44247
1.43086
1.42194
1.44443
1.16591
1.34384
1.36464
1.31259
1.34513
1.35281
1.37148
1.33689
1.3562
1.42186
1.38842
1.38364
1.39931
1.39328
1.38936
1.34071
1.35727
1.33432
1.39227
1.20818
1.19504
1.32834
1.42599
1.20328
1.47167
1.47578
1.46205
1.46645
1.46614
1.30086
1.26146
1.3005
1.25749
1.22975
1.16532
1.19934
1.22222
1.23749
1.13583
1.09992
1.03647
1.09503
1.05035
1.0689
1.07994
1.13118
1.12626
1.10858
1.1436
1.18098
1.19196
1.12576
1.12877
1.17599
1.02857
1.2934
1.25744
1.19387
1.27787
1.21837
1.22966
1.21516
1.23113
1.46683
1.44909
1.40874
1.4621
1.41232
1.43817
1.43031
1.42712
1.40903
1.38682
1.39614
1.3705
1.3852
1.37405
1.38191
1.33364
1.38165
1.35638
1.36977
1.32587
1.32953
1.3673
1.43003
1.41632
1.43313
1.43109
1.44438
1.45005
1.43518
1.41952
1.41502
1.38016
1.39762
1.43344
1.43902
1.39742
1.15497
1.21135
1.18562
1.20902
1.14595
1.15282
1.20324
1.39467
1.36294
1.41533
1.39179
1.3965
1.38684
1.3971
1.12162
1.19702
1.09001
1.19328
1.14726
1.19404
1.11
1.20098
1.21249
1.12768
1.1952
1.23685
1.25052
1.17336
1.36275
1.35435
1.39724
1.36776
1.34627
1.34181
1.37499
1.46156
1.44902
1.05403
1.00624
1.03603
1.03079
1.01889
0.994335
1.03237
1.00728
1.11691
1.13111
1.17714
1.18366
1.36109
1.46768
1.44756
1.44467
1.31912
1.16961
1.24193
1.25367
1.20747
1.20736
1.26527
1.3597
1.36022
1.41159
1.38461
1.42499
1.3029
1.19611
1.27979
1.31466
1.25797
1.34162
1.39843
1.44665
1.40875
1.40087
1.39988
1.40226
1.24031
1.22771
1.30988
1.30472
1.23578
1.23004
1.30615
1.37085
1.35681
1.4068
1.34774
1.40122
1.38976
1.35755
1.29013
1.20373
1.33223
1.30526
1.28408
1.2684
1.32494
1.30309
1.32835
1.41269
1.34708
1.3689
1.36641
1.35667
1.45969
1.45102
1.43243
1.4523
1.41353
1.44225
1.45505
1.46042
1.43473
1.45542
1.40794
1.4111
1.42065
1.43985
1.39329
1.39568
1.42955
1.46389
1.44537
1.44623
1.40052
1.45722
1.44182
1.44611
1.43078
1.44935
1.42784
1.42198
1.34757
1.34925
1.30391
1.3587
1.30958
1.31903
1.35326
1.43809
1.40024
1.43946
1.4239
1.44312
1.44676
1.42976
1.44241
1.42583
1.44614
1.40315
1.45936
1.45008
1.43434
1.44059
1.44646
1.43128
1.43574
1.36831
1.37976
1.40228
1.39673
1.38603
1.4092
1.47124
1.41587
1.36925
1.40582
1.41775
1.41525
1.41532
1.39484
1.4297
1.42336
1.41869
1.14904
1.0746
1.08315
1.12508
1.14612
1.07677
1.32866
1.33698
1.34773
1.101
1.22531
1.23138
1.15149
1.21223
1.25529
1.23076
1.24821
1.19487
1.08858
1.13055
1.15239
1.10889
1.10706
1.17539
1.33034
1.25477
1.30297
1.25451
1.41971
1.2381
1.28936
1.24827
1.28582
1.28501
1.2405
1.35967
1.31148
1.10337
1.19951
1.14346
1.09803
1.20422
1.2152
1.44621
1.4371
1.44884
1.43833
1.41024
1.39843
1.36213
1.41611
1.40408
1.2696
1.21986
1.20006
1.20857
1.24248
1.23054
1.22251
1.31302
1.24196
1.2685
1.23106
1.21937
1.22959
1.21854
1.28277
1.17229
1.43506
1.46584
1.46061
1.31438
1.36109
1.28929
1.33695
1.32846
1.33563
1.32691
1.43736
1.39084
1.35861
1.42753
1.40008
1.39993
1.38737
1.42711
1.40477
1.38756
1.39126
1.41663
1.36894
1.35834
1.34411
1.38903
1.34631
1.34787
1.38417
1.42566
1.43535
1.41248
1.41275
1.36173
1.30363
1.24433
1.26519
1.29293
1.26795
1.25522
1.33698
1.32254
1.31102
1.31284
1.31677
1.27373
1.3381
1.324
1.3092
1.31911
1.3214
1.43379
1.44513
1.41866
1.44397
1.44415
1.44253
1.4425
1.17839
1.20679
1.17788
1.2353
1.25058
1.28048
1.29176
1.43986
1.42179
1.45645
1.42892
1.42323
1.46311
1.45301
1.45415
1.46135
1.45435
1.42208
1.42701
1.4302
1.40755
1.38335
1.42673
1.42407
1.41618
1.43126
1.42341
1.46329
1.45927
1.45883
1.47157
1.44813
1.40086
1.44201
1.45409
1.43845
1.44449
1.45388
1.38788
1.43176
1.42924
1.43675
1.42022
1.43831
1.44101
1.42845
1.41743
1.41368
1.45244
1.34631
1.38767
1.37787
1.4286
1.41354
1.41288
1.19858
1.29325
1.27966
1.27507
1.3994
1.40161
1.42888
1.42973
1.41792
1.41213
1.42341
1.26848
1.36427
1.29007
1.31104
1.41502
1.39522
1.41925
1.38686
1.34319
1.26969
1.35013
1.34274
1.43816
1.35983
1.3891
1.41664
1.41997
1.3812
1.37189
1.31972
1.36927
1.33472
1.34921
1.35683
1.40038
1.46391
1.4358
1.4307
1.41351
1.38604
1.36489
1.44236
1.42468
1.27542
1.2128
1.37551
1.2316
1.31943
1.4812
1.46972
1.45325
1.46326
1.47673
1.46854
1.45514
1.45404
1.45967
1.48386
1.4531
1.25259
1.26914
1.36668
1.3703
1.27963
1.29049
1.32422
1.40143
1.37075
1.35482
1.371
1.30023
1.29949
1.36255
1.19589
1.12669
1.13182
1.13316
1.10216
1.07593
1.06905
1.05841
1.12648
1.09672
1.0851
1.10638
1.05114
1.08332
1.06415
1.05937
1.04664
1.07079
1.36676
1.41245
1.42411
1.23344
1.32813
1.24399
1.30394
1.27981
1.29724
1.28317
1.36435
1.39821
1.44887
1.42333
1.39946
1.40474
1.4211
1.24604
1.33508
1.33399
1.2978
1.28225
1.34508
1.36335
1.38366
1.38566
1.38339
1.39247
1.41348
1.30256
1.30684
1.35611
1.3705
1.39925
1.38936
1.10505
1.04317
1.01613
1.13407
1.13163
1.18893
1.14553
1.19169
1.11513
1.13273
1.175
1.37315
1.39218
1.41224
1.39718
1.35096
1.34336
1.40038
1.22326
1.29565
1.20404
1.26567
1.27427
1.18417
1.33212
1.28122
1.19081
1.23696
1.28051
1.26787
1.23976
1.20214
1.29875
1.21483
1.25932
1.21032
1.23471
1.22655
1.22965
1.33411
1.3105
1.28429
1.30321
1.31472
1.26658
1.28062
1.16134
1.13983
1.21249
1.19718
1.18454
1.22295
1.14395
1.12062
1.13032
1.1981
1.20525
1.14606
1.16784
1.13742
1.15239
1.06897
1.11025
1.02495
1.06676
1.04258
1.06294
1.05308
1.10764
1.04825
1.08795
1.11824
1.10415
1.1509
1.09169
1.14049
1.14344
1.09361
1.01918
1.10223
1.14217
1.20383
1.24727
1.19159
1.18917
1.23811
1.38616
1.38047
1.41584
1.38577
1.35383
1.34442
1.39939
1.23272
1.27053
1.21317
1.20123
1.25867
1.26636
1.19141
1.30648
1.24712
1.16238
1.22236
1.24277
1.23974
1.23053
1.22154
1.32323
1.24006
1.25811
1.24876
1.26956
1.23811
1.22206
1.31357
1.33187
1.27634
1.29851
1.3076
1.26936
1.26639
1.15352
1.17157
1.20526
1.19622
1.17962
1.22804
1.02235
1.10165
1.06037
1.04174
1.0714
1.08001
1.04136
1.14964
1.14094
1.12666
0.996147
1.01568
1.12911
1.04217
1.07162
1.01799
1.10168
1.05607
1.01088
1.03143
1.03275
1.00023
1.11727
1.07924
1.06532
1.03516
1.13097
1.13139
1.0499
0.976985
1.0313
1.00598
1.00529
1.01084
1.46876
1.47216
1.46499
1.46054
1.46246
1.45399
1.45456
1.46624
1.47333
1.46302
1.46515
1.44382
1.44283
1.43687
1.44317
1.45043
1.44183
1.38988
1.44571
1.46058
1.46082
1.4621
1.47154
1.47052
1.46227
1.46017
1.42123
1.43939
1.43268
1.45436
1.44354
1.41879
1.43346
1.4417
1.39631
1.41606
1.35276
1.34897
1.24012
1.17481
1.19664
1.18969
1.34946
1.30278
1.33277
1.29832
1.30708
1.18103
1.18101
1.17914
1.24093
1.2662
1.17772
1.2123
1.21547
1.23446
1.1947
1.23408
1.24962
1.15501
1.20557
1.20465
1.21833
1.19181
1.24966
1.27597
1.25681
1.2343
1.2839
1.28593
1.23229
1.17795
1.16492
1.18977
1.14775
1.15163
1.1905
1.43938
1.45486
1.45564
1.45501
1.45854
1.45943
1.44708
1.42468
1.37689
1.36868
1.38223
1.39931
1.39055
1.39328
1.30431
1.36478
1.28879
1.34618
1.33583
1.35107
1.32854
1.45133
1.44679
1.46054
1.45351
1.40984
1.38845
1.44881
1.41616
1.4295
1.42275
1.42254
1.38218
1.36758
1.43853
1.40834
1.39799
1.39284
1.41414
1.38067
1.37921
1.35585
1.39556
1.35346
1.36029
1.39257
1.44236
1.44106
1.42327
1.45265
1.45918
1.42609
1.42708
1.38107
1.40593
1.3873
1.42157
1.41188
1.25399
1.41542
1.34067
1.40957
1.37739
1.36534
1.3657
1.37772
1.37798
1.3978
1.39365
1.35377
1.30954
1.32137
1.31854
1.35348
1.38889
1.416
1.39987
1.399
1.41729
1.40291
1.35576
1.38637
1.41334
1.36652
1.39022
1.39676
1.37106
1.32016
1.24667
1.28887
1.2576
1.31617
1.30858
1.26047
1.27066
1.23723
1.27447
1.21351
1.2017
1.26813
1.33897
1.32289
1.32027
1.29993
1.30922
1.31103
1.37403
1.3214
1.2962
1.31345
1.3419
1.33534
1.31914
1.36262
1.29659
1.31852
1.30665
1.34479
1.3295
1.32562
1.25216
1.31867
1.32704
1.32576
1.28368
1.30046
1.31368
1.4166
1.41853
1.40722
1.43254
1.39951
1.4043
1.42997
1.46006
1.4633
1.4444
1.44726
1.43267
1.45908
1.44135
1.45111
1.45909
1.44021
1.45823
1.45505
1.4138
1.43342
1.43085
1.25648
1.36837
1.39564
1.3464
1.33671
1.15101
1.23867
1.21947
1.24884
1.1805
1.18316
1.24352
1.40671
1.39709
1.37797
1.31546
1.40222
1.35165
1.38749
1.37526
1.37814
1.29931
1.35085
1.35491
1.29407
1.34128
1.33678
1.26823
1.28619
1.33045
1.40947
1.36808
1.16441
1.16219
1.09252
1.08301
1.10832
1.09715
1.15466
1.15071
1.14216
1.1352
1.10839
1.12129
1.13465
1.15498
1.11297
1.12501
1.16925
1.0973
1.12558
1.12159
1.128
1.14765
1.11553
1.19722
1.26709
1.15407
1.22189
1.17481
1.19881
1.19055
1.37543
1.38718
1.41424
1.4085
1.37976
1.38593
1.41029
1.2319
1.33006
1.283
1.28969
1.26539
1.28915
1.27068
1.38047
1.39505
1.34906
1.34007
1.38812
1.39421
1.34
1.28226
1.30241
1.2291
1.30143
1.24004
1.25967
1.29292
1.3536
1.40412
1.32893
1.33926
1.36504
1.37567
1.32813
1.33796
1.33256
1.22797
1.30411
1.28229
1.29021
1.29808
1.33155
1.42789
1.34159
1.37296
1.36003
1.31481
1.29587
1.20272
1.2055
1.16644
1.32805
1.32944
1.34389
1.26769
1.33831
1.30804
1.25351
1.20909
1.26992
1.3574
1.3682
1.43604
1.40576
1.38686
1.38054
1.44156
1.43241
1.45112
1.42192
1.40664
1.39726
1.42932
1.36495
1.36409
1.30017
1.26406
1.32855
1.30372
1.29432
1.32678
1.35845
1.42011
1.37489
1.3992
1.40308
1.35419
1.30805
1.35097
1.41956
1.37087
1.37295
1.36604
1.37067
1.3138
1.30991
1.34326
1.35379
1.15216
1.22431
1.10347
1.13382
1.16436
1.16941
1.1187
1.19862
1.23229
1.22189
1.24991
1.24707
1.25453
1.24153
1.23698
1.24612
1.19806
1.20674
1.19641
1.22755
1.26707
1.3264
1.28959
1.2749
1.3155
1.3227
1.25936
1.23173
1.17628
1.14882
1.20543
1.15424
1.15707
1.19912
1.29894
1.30078
1.19019
1.24485
1.27021
1.27966
1.22861
1.24408
1.2746
1.16157
1.23748
1.20881
1.25004
1.20992
1.4517
1.46973
1.46919
1.4683
1.47432
1.47081
1.46772
1.4662
1.40922
1.0342
1.02974
0.995684
1.0216
1.036
1.01566
1.03421
1.02155
1.03548
1.00929
1.0101
1.0264
0.984807
1.00113
1.0005
0.998607
0.991798
0.991544
1.04962
0.984461
0.997215
1.10925
1.1407
1.14525
1.14513
1.35467
1.2924
1.35829
1.29511
1.29308
1.29118
1.26022
1.15064
1.15405
1.33694
1.29075
1.08561
1.07073
1.06174
1.05256
1.08982
1.2128
1.29145
1.31368
1.23236
1.26094
1.21871
1.26102
1.21413
1.25505
1.21824
1.24096
1.41036
1.39577
1.39902
1.38388
1.39945
1.39053
1.39396
1.36672
1.39524
1.40556
1.40298
1.38699
1.38948
1.39389
1.19474
1.16148
1.3328
1.37251
1.33134
1.33838
1.35465
1.35724
1.36378
1.35023
1.35627
1.35776
1.22517
1.39045
1.2859
1.16904
1.18851
1.19094
1.4381
1.43851
1.46377
1.46639
1.46354
1.47162
1.29616
1.32505
1.31371
1.31857
1.32089
1.26989
1.27038
1.29548
1.2891
1.28506
1.13029
1.10766
1.11987
1.09595
1.11954
1.10206
1.11539
1.2722
1.21201
1.23246
1.22641
1.25005
1.22786
1.23875
1.15972
1.20674
1.14049
1.13159
1.14456
1.14853
1.14685
1.44806
1.4601
1.47514
1.46112
1.45531
1.46593
1.40384
1.38351
1.40399
1.29018
1.29642
1.31005
1.264
1.21738
1.24648
1.19346
1.22116
1.21672
1.22985
1.20937
1.46493
1.46189
1.46295
1.381
1.40175
1.38769
1.40879
1.38661
1.40315
1.3968
1.31375
1.34015
1.3409
1.35081
1.32073
1.33632
1.33893
1.3297
1.34603
1.35021
1.33247
1.33598
1.33408
1.33631
1.44986
1.44026
1.45548
1.45258
1.39107
1.42918
1.42077
1.414
1.41041
1.42019
1.15347
1.17698
1.16667
1.15479
1.16629
1.15983
1.15869
1.42646
1.43055
1.40041
1.42025
1.42192
1.42607
1.41014
1.14442
1.22181
1.19888
1.28775
1.22695
1.2802
1.25734
1.26628
1.2512
1.2718
1.36505
1.38794
1.34754
1.3601
1.36424
1.37011
1.35459
1.06014
1.03306
1.08012
1.06234
1.02509
1.02657
1.06343
1.05549
1.03345
1.20678
1.18691
1.16847
1.14829
1.17679
1.16028
1.14807
1.45905
1.43936
1.42985
1.42062
1.42683
1.42177
1.34021
1.28927
1.34602
1.31236
1.32647
1.30765
1.33994
1.44375
1.41147
1.44453
1.42673
1.43578
1.4283
1.44407
1.32389
1.32404
1.33925
1.3076
1.32394
1.31352
1.32198
1.36127
1.33272
1.31832
1.32077
1.33762
1.3362
1.32611
1.30566
1.3054
1.28268
1.27658
1.30116
1.29353
1.27982
1.38649
1.34164
1.35619
1.35048
1.3717
1.35538
1.36229
1.46205
1.45191
1.46729
1.46828
1.46265
1.46976
1.45384
1.44541
1.46305
1.4477
1.44861
1.44706
1.45459
1.45083
1.43493
1.44517
1.44504
1.45165
1.44251
1.44719
1.4387
1.42947
1.4216
1.44051
1.43281
1.43124
1.44812
1.33634
1.37008
1.37059
1.35691
1.36357
1.36128
1.45629
1.46848
1.43958
1.45617
1.46362
1.46769
1.45425
1.41494
1.42477
1.45733
1.44187
1.46054
1.44982
1.46689
1.36841
1.39833
1.35812
1.36847
1.37285
1.37936
1.36145
1.36446
1.39895
1.36163
1.38928
1.37634
1.39027
1.36813
1.44238
1.4353
1.44562
1.44578
1.24444
1.16453
1.1963
1.18889
1.21587
1.18348
1.20477
1.35303
1.37316
1.35886
1.38238
1.35989
1.37366
1.18705
1.2724
1.18969
1.22412
1.19797
1.18015
1.12683
1.14053
1.3017
1.23678
1.25504
1.2864
1.28108
1.26833
1.274
1.43313
1.33578
1.32753
1.19018
1.12192
1.15469
1.19461
1.20614
1.15358
1.35471
1.40233
1.4138
1.4176
1.40064
1.40827
1.41423
1.42414
1.43078
1.17362
1.20011
1.18998
1.19087
1.16855
1.15009
1.1633
1.21588
1.24118
1.22821
1.23271
1.25819
1.25211
1.45964
1.45572
1.37822
1.32094
1.30234
1.34852
1.32527
1.32254
1.31462
1.33231
1.45483
1.45361
1.46173
1.44448
1.40954
1.39959
1.39297
1.38773
1.40467
1.39665
1.39433
1.40082
1.41217
1.39813
1.402
1.4011
1.40474
1.38164
1.39611
1.40859
1.39204
1.39096
1.38761
1.39889
1.39327
1.40292
1.40815
1.39122
1.40296
1.40792
1.28754
1.30487
1.30554
1.29387
1.30096
1.29626
1.29793
1.35814
1.33938
1.3689
1.35281
1.34415
1.36047
1.26735
1.36485
1.33698
1.37121
1.35465
1.35427
1.34706
1.3636
1.40907
1.40546
1.44957
1.43281
1.4338
1.43381
1.43552
1.41456
1.24907
1.24805
1.31068
1.29217
1.32452
1.30215
1.27098
1.2265
1.47526
1.46428
1.4574
1.4574
1.41285
1.43818
1.41111
1.4202
1.4012
1.41858
1.416
1.41987
1.41354
1.37734
1.41585
1.37191
1.39423
1.38935
1.40273
1.38364
1.46698
1.4613
1.47567
1.47312
1.45499
1.4603
1.40642
1.42086
1.37789
1.38978
1.40103
1.41121
1.38701
1.39578
1.37525
1.39612
1.34138
1.16979
1.22855
1.34011
1.28817
1.30186
1.3378
1.28126
1.30567
1.3081
1.4655
1.44112
1.44825
1.45004
1.37939
1.38602
1.42018
1.31079
1.3606
1.35079
1.34934
1.33128
1.34735
1.34045
1.3625
1.37533
1.36699
1.39357
1.37231
1.38269
1.37972
1.37282
1.34646
1.35455
1.44376
1.38056
1.37532
1.34228
1.27679
1.2154
1.25209
1.24925
1.25346
1.23953
1.30328
1.33403
1.33537
1.36199
1.35415
1.36084
1.36913
1.46598
1.44895
1.43887
1.46717
1.46464
1.45704
1.47117
1.43426
1.26642
1.26199
1.25075
1.25923
1.4298
1.33896
1.35234
1.31323
1.33064
1.33255
1.33809
1.32764
1.35852
1.35291
1.35413
1.36341
1.37747
1.31837
1.1707
1.13569
1.14666
1.12114
1.15072
1.13367
1.13852
1.03205
1.04152
1.04236
1.0854
1.07773
1.0701
1.42873
1.41147
1.43502
1.32939
1.29413
1.34172
1.30973
1.32425
1.30153
1.32685
1.43504
1.44165
1.33282
1.34222
1.33379
1.31946
1.33889
1.32882
1.32684
1.38638
1.36341
1.39237
1.36216
1.35604
1.35461
1.37433
1.36895
1.36374
1.16265
1.10169
1.14368
1.1021
1.21205
1.22585
1.27453
1.23762
1.22689
1.22189
1.24301
1.3567
1.39129
1.35888
1.35994
1.36408
1.37015
1.35087
1.21835
1.19154
1.20428
1.21967
1.19691
1.20981
1.21875
1.17324
1.22242
1.16408
1.20148
1.17643
1.21067
1.17521
1.27599
1.27344
1.32887
1.30574
1.28669
1.28583
1.31597
1.32323
1.28439
1.33783
1.32602
1.31996
1.31334
1.33663
1.13759
1.20145
1.13581
1.16197
1.16026
1.17483
1.14682
1.20008
1.15707
1.16689
1.21976
1.17319
1.16774
1.1512
1.17288
1.1135
1.1581
1.14189
1.16105
1.13093
1.04904
1.06552
1.09783
1.08829
1.061
1.06505
1.08883
1.07892
1.0643
1.1104
1.09055
1.09928
1.07197
1.10214
1.09654
1.04615
1.04884
1.07914
1.05995
1.05337
1.0645
1.04931
1.22344
1.27308
1.31664
1.287
1.29039
1.27712
1.29685
1.32441
1.36948
1.33199
1.34361
1.33669
1.35328
1.33381
1.19271
1.1767
1.17286
1.20014
1.18379
1.18932
1.19045
1.15893
1.21558
1.15866
1.19643
1.16983
1.19505
1.16401
1.282
1.27121
1.32148
1.31114
1.2918
1.28558
1.31112
1.3303
1.28257
1.33123
1.31173
1.31702
1.30245
1.32397
1.16265
1.20494
1.1463
1.15664
1.16795
1.17354
1.13867
1.07305
1.04316
1.0925
1.08231
1.07402
1.06888
1.08945
1.16472
1.18191
1.10807
1.15641
1.16058
1.16562
1.14168
1.09336
1.05359
1.10464
1.09546
1.04861
1.06042
1.08153
1.01738
1.00352
0.964962
0.998048
0.97498
1.01263
0.997903
0.974515
1.02621
1.00633
1.01727
1.00244
1.03965
1.03901
1.09124
1.06255
1.0476
1.0298
1.05986
1.45157
1.46284
1.46429
1.45145
1.4669
1.4647
1.45549
1.47222
1.47153
1.45997
1.45873
1.45073
1.45149
1.44845
1.43168
1.44249
1.43295
1.42572
1.4199
1.40093
1.42756
1.41825
1.45675
1.44343
1.46665
1.47428
1.40477
1.40693
1.39238
1.40634
1.46763
1.46852
1.46352
1.47311
1.41394
1.40929
1.39452
1.409
1.36531
1.37461
1.32158
1.36968
1.37089
1.35651
1.17521
1.17639
1.17816
1.16372
1.26513
1.19928
1.21227
1.23094
1.20507
1.21417
1.21926
1.17469
1.20661
1.21126
1.21894
1.185
1.20137
1.20588
1.23828
1.21741
1.22005
1.23755
1.23059
1.23481
1.23699
1.16902
1.20512
1.19531
1.19215
1.19313
1.191
1.43264
1.45186
1.43334
1.45658
1.4462
1.44327
1.43995
1.45128
1.35353
1.37672
1.33766
1.35912
1.35664
1.36951
1.34399
1.35675
1.33003
1.37314
1.34949
1.35667
1.33712
1.36454
1.46416
1.45551
1.42902
1.41181
1.4034
1.403
1.41626
1.41046
1.40859
1.42916
1.41405
1.42072
1.40514
1.41916
1.41111
1.4149
1.38291
1.40368
1.41198
1.4044
1.39695
1.39802
1.39946
1.4268
1.41766
1.41033
1.42498
1.41923
1.42229
1.41655
1.3673
1.37128
1.33618
1.36661
1.38206
1.37698
1.35212
1.28965
1.26284
1.32074
1.29573
1.28656
1.27496
1.30942
1.41481
1.44427
1.40088
1.3827
1.39262
1.37906
1.39454
1.38779
1.38252
1.37615
1.35756
1.39386
1.36736
1.33101
1.35286
1.35804
1.41816
1.3994
1.40232
1.40982
1.40884
1.41188
1.40537
1.39383
1.36111
1.37188
1.37158
1.38112
1.36986
1.37746
1.31245
1.29363
1.28963
1.30446
1.29958
1.30155
1.29897
1.24272
1.28134
1.28621
1.26552
1.26297
1.26233
1.26851
1.3501
1.33784
1.37753
1.35727
1.35466
1.34886
1.36265
1.27034
1.29634
1.24335
1.27352
1.27018
1.28007
1.2634
1.28169
1.29621
1.2448
1.2726
1.277
1.28953
1.25675
1.35207
1.33471
1.37453
1.35546
1.35751
1.34109
1.36884
1.42716
1.43997
1.4481
1.44072
1.4378
1.43561
1.44156
1.4679
1.46965
1.46017
1.42126
1.44927
1.41828
1.42503
1.43215
1.43412
1.42606
1.40844
1.43548
1.40737
1.42909
1.42575
1.43282
1.41566
1.37091
1.26125
1.26302
1.25005
1.23548
1.25572
1.24836
1.23916
1.35641
1.33756
1.30723
1.31855
1.34384
1.33217
1.3179
1.36829
1.35242
1.3842
1.35581
1.34938
1.33617
1.3989
1.35046
1.31864
1.34462
1.32303
1.36214
1.33572
1.16346
1.14852
1.12907
1.10446
1.09099
1.11226
1.1137
1.11562
1.10993
1.14137
1.1393
1.14138
1.14382
1.15224
1.17078
1.14161
1.18828
1.16272
1.16583
1.14917
1.18133
1.11602
1.10063
1.08448
1.15839
1.14657
1.18442
1.16229
1.16001
1.15623
1.16773
1.21721
1.2338
1.27773
1.26554
1.23421
1.24314
1.26534
1.43941
1.43811
1.41246
1.41384
1.43142
1.42983
1.41917
1.31564
1.29695
1.34472
1.33128
1.32163
1.30894
1.33846
1.3315
1.329
1.3133
1.34092
1.32593
1.33443
1.32414
1.27897
1.31387
1.32478
1.32214
1.30492
1.30688
1.31264
1.33852
1.33836
1.34844
1.35696
1.33986
1.34612
1.35076
1.26232
1.31101
1.29424
1.30176
1.28261
1.29494
1.28836
1.2496
1.16993
1.20623
1.17349
1.21838
1.19978
1.25645
1.24897
1.24221
1.25408
1.24106
1.27865
1.28467
1.21942
1.27653
1.24665
1.26377
1.25439
1.25314
1.43591
1.42305
1.41474
1.42616
1.41815
1.41853
1.33949
1.3843
1.37071
1.37238
1.35606
1.36778
1.3617
1.32861
1.27229
1.32677
1.29424
1.30003
1.28628
1.30809
1.28938
1.40408
1.37124
1.43258
1.38814
1.40639
1.36656
1.40692
1.38368
1.40022
1.39029
1.40277
1.32259
1.33361
1.2989
1.29524
1.32092
1.32041
1.30552
1.12783
1.13603
1.15163
1.16045
1.13884
1.1455
1.15283
1.33952
1.31094
1.30206
1.30068
1.31844
1.31113
1.30736
1.27755
1.29116
1.25835
1.24779
1.29928
1.28812
1.25917
1.28244
1.29287
1.27914
1.28417
1.29739
1.1742
1.21896
1.2042
1.19809
1.18584
1.19722
1.19182
1.2025
1.23232
1.2168
1.2483
1.21203
1.23572
1.22841
1.21829
1.24636
1.26949
1.26727
1.23463
1.24946
1.26006
1.46335
1.46796
1.46384
1.46262
1.46999
1.46434
1.02406
1.11385
1.11036
1.12262
1.0233
0.975365
1.02783
0.961496
1.0207
1.0205
1.10622
1.06377
1.10428
1.07314
1.00152
0.986931
0.976193
1.24107
1.16135
1.18462
1.22358
1.21767
1.18654
1.32396
1.28178
1.30935
1.2817
1.3139
1.11987
1.10696
1.12108
1.10526
1.17393
1.16598
1.29909
1.26499
1.26053
1.28058
1.2782
1.27512
1.32391
1.31396
1.3589
1.3362
1.27957
1.28881
1.28061
1.30113
1.34026
1.32642
1.32629
1.30681
1.27484
1.3109
1.30543
1.46051
1.47302
1.46373
1.47491
1.46846
1.46077
1.46319
1.45215
1.47193
1.46313
1.46782
1.46341
1.4693
1.46867
1.17762
1.16264
1.2064
1.18292
1.20195
1.2301
1.23122
1.2656
1.23011
1.21538
1.26081
1.23891
1.19373
1.21848
1.20073
1.21871
1.25615
1.1935
1.24586
1.23057
1.25124
1.24935
1.2464
1.23135
1.14553
1.1352
1.07866
1.0981
1.12695
1.13193
1.09751
1.27675
1.21336
1.26755
1.23343
1.2613
1.23831
1.26548
1.17604
1.18024
1.13311
1.13067
1.17143
1.16095
1.13256
1.18975
1.25809
1.21392
1.22238
1.20888
1.22445
1.20137
1.18418
1.1678
1.10823
1.14743
1.15976
1.16382
1.13936
1.21121
1.24933
1.1959
1.20323
1.218
1.22545
1.20201
1.15575
1.17641
1.11026
1.16733
1.15235
1.17384
1.1484
1.31313
1.32721
1.27547
1.30322
1.30987
1.31576
1.29186
1.34773
1.39208
1.37386
1.38037
1.36015
1.39952
1.38128
1.37315
1.36601
1.35471
1.3706
1.36401
1.36113
1.36066
1.3888
1.38564
1.38667
1.37551
1.37969
1.37852
1.35905
1.3254
1.32493
1.33298
1.34439
1.337
1.33672
1.37046
1.38067
1.34003
1.35877
1.36789
1.37089
1.34934
1.34971
1.37626
1.33332
1.36257
1.35521
1.36969
1.34411
1.45295
1.42645
1.45432
1.4452
1.44808
1.44263
1.45784
1.45489
1.43288
1.44219
1.45014
1.45394
1.42114
1.44908
1.45122
1.45085
1.43727
1.4424
1.43787
1.41531
1.41973
1.41424
1.42945
1.41414
1.42181
1.42057
1.45226
1.45285
1.45568
1.43854
1.44814
1.44463
1.44494
1.44687
1.426
1.4483
1.43033
1.44027
1.43359
1.44428
1.41792
1.41624
1.4416
1.43733
1.42327
1.42942
1.4389
1.13762
1.10639
1.10121
1.18988
1.23647
1.27901
1.30802
1.39067
1.36995
1.38615
1.40787
1.39442
1.37721
1.37621
1.39857
1.39038
1.38579
1.28892
1.32402
1.27012
1.30501
1.29545
1.31078
1.28415
1.33365
1.36716
1.36757
1.34916
1.36765
1.32326
1.35055
1.38046
1.33558
1.35682
1.35395
1.36494
1.34278
1.35574
1.36885
1.38292
1.378
1.36913
1.3661
1.37554
1.34526
1.30509
1.32597
1.3296
1.33572
1.32564
1.33439
1.42445
1.41088
1.4392
1.42427
1.42326
1.41899
1.42957
1.40011
1.40659
1.37515
1.38883
1.3887
1.39619
1.38279
1.36992
1.38714
1.36743
1.36583
1.37263
1.37497
1.37371
1.37259
1.39625
1.41892
1.41112
1.40901
1.40662
1.40884
1.40593
1.39009
1.375
1.4094
1.39328
1.39148
1.38113
1.4029
1.39284
1.37147
1.40498
1.38904
1.39079
1.37831
1.39994