/*--------------------------------*- C++ -*----------------------------------*\
| =========                 |                                                 |
| \\      /  F ield         | OpenFOAM: The Open Source CFD Toolbox           |
|  \\    /   O peration     | Version:  v1612+                                |
|   \\  /    A nd           | Web:      www.OpenFOAM.com                      |
|    \\/     M anipulation  |                                                 |
\*---------------------------------------------------------------------------*/
FoamFile
{
    version     2.0;
    format      ascii;
    class       surfaceScalarField;
    location    "50";
    object      phi;
}
// * * * * * * * * * * * * * * * * * * * * * * * * * * * * * * * * * * * * * //

dimensions      [0 3 -1 0 0 0 0];

internalField   nonuniform List<scalar> 
45947
(
1.52512e-08
-8.98256e-09
-1.09051e-08
4.63659e-09
1.38346e-08
6.03114e-09
-6.45384e-09
-1.34118e-08
5.02325e-09
1.05912e-08
-1.84411e-09
-1.377e-08
-9.85584e-10
9.63841e-09
-7.46941e-09
-1.18311e-09
1.41913e-09
-7.25487e-09
2.26914e-09
3.56653e-09
-6.31754e-09
-2.1062e-09
8.46977e-09
-4.59138e-11
5.381e-09
-1.08855e-08
-3.71998e-09
9.22453e-09
3.09942e-09
-1.49474e-10
-3.34843e-09
3.98309e-10
-4.13452e-09
-8.30861e-11
-2.38152e-09
6.59953e-09
-5.25856e-09
8.947e-09
-5.40124e-09
1.71288e-09
8.32831e-09
1.91555e-09
-5.09589e-09
-5.14795e-09
1.71233e-10
-8.59076e-09
1.05676e-08
-2.14772e-09
6.9552e-10
4.57989e-09
-5.19252e-09
-8.27764e-11
-2.84245e-09
7.66847e-09
-4.58524e-11
-4.78007e-09
4.20584e-09
2.76889e-09
-9.76637e-09
2.79183e-09
-1.17255e-08
5.52298e-09
1.04085e-08
8.46866e-09
-1.10316e-10
5.47647e-09
2.81808e-10
2.06483e-09
-2.54855e-09
2.01872e-10
-4.65249e-10
3.72075e-09
-8.49258e-09
5.23714e-09
1.48327e-09
-2.5896e-09
7.22505e-10
3.8383e-10
-3.9814e-09
5.63549e-09
-1.52234e-08
1.35694e-08
-8.31973e-09
4.84663e-09
1.16012e-09
2.31311e-09
1.07577e-08
-1.44928e-09
7.40896e-10
7.86942e-10
1.87422e-09
-5.21535e-10
-2.13945e-09
-2.84e-09
5.85922e-09
-3.3027e-09
2.83563e-10
-3.05871e-09
5.08062e-09
-3.51707e-09
1.49522e-09
-6.69262e-10
1.45345e-09
-4.14237e-09
3.35859e-09
-2.1799e-09
-2.03574e-09
-2.10169e-09
-6.18918e-09
7.04469e-09
2.80015e-09
-3.65529e-09
-3.91596e-09
-9.40665e-10
4.73274e-09
1.24194e-10
3.86373e-09
3.43173e-09
-7.21017e-09
-8.53629e-11
5.55703e-09
-8.9731e-09
1.14459e-09
2.27125e-09
-4.65486e-09
-1.90778e-09
6.15095e-09
4.11762e-10
-5.19583e-09
5.41083e-09
-6.43487e-09
6.21995e-09
-1.02196e-08
-5.75335e-09
4.24774e-09
-4.44593e-09
-2.29732e-09
3.06058e-09
3.6827e-09
1.16274e-09
4.9532e-09
-2.16915e-09
-3.94666e-09
-5.5317e-10
-4.99778e-09
1.56255e-09
3.9881e-09
-7.37368e-09
-4.91567e-09
7.81809e-09
4.47129e-09
-5.38469e-09
1.79664e-09
7.75999e-10
2.81212e-09
5.94264e-09
6.95469e-10
-7.48315e-09
8.4515e-10
5.27913e-09
-1.01986e-08
-4.65118e-10
-5.25021e-09
1.54712e-08
4.13909e-09
-1.43598e-08
4.2852e-09
-5.2578e-09
2.60378e-09
-1.6311e-09
-2.1177e-09
-3.78306e-10
3.6483e-09
-1.15228e-09
-3.58261e-09
7.52813e-09
2.47909e-09
-6.42447e-09
-2.55429e-09
7.84799e-09
-3.26639e-09
-2.02715e-09
6.3726e-09
-4.62135e-09
-9.7245e-10
-7.78604e-10
9.40347e-09
-3.42087e-09
3.89674e-10
-9.5948e-10
-5.00967e-09
4.7116e-09
1.2574e-09
3.21614e-09
-2.6909e-09
-1.06698e-09
5.42164e-10
1.36166e-09
-3.84609e-10
-1.23666e-09
2.59565e-10
2.69397e-09
2.05579e-09
-3.38811e-09
7.13066e-09
3.23907e-10
-3.00702e-09
-4.4475e-09
5.18535e-09
-5.27771e-09
1.39157e-10
-4.69734e-11
-4.23894e-09
2.50538e-09
2.71618e-09
-9.82576e-10
-4.116e-09
2.60563e-09
-4.07115e-09
5.58161e-09
-4.57653e-10
-2.5621e-09
-2.63117e-09
-5.67917e-13
2.68179e-09
-7.72409e-10
-1.90947e-09
3.78929e-09
-2.81984e-09
-3.08611e-09
2.11665e-09
-2.83074e-09
3.1593e-10
2.22581e-09
2.88963e-10
-5.99145e-09
2.54494e-10
2.90622e-09
-2.76436e-09
6.11404e-09
-3.59438e-09
2.44749e-10
-1.25329e-09
-7.16516e-09
6.69261e-09
1.726e-09
2.28952e-09
2.88177e-09
-5.28223e-09
1.11117e-10
-1.46453e-09
-1.82537e-09
6.40727e-09
-3.1172e-09
-5.78997e-09
7.81471e-09
-1.08397e-09
-9.41219e-10
-2.51037e-09
2.2562e-09
-4.1955e-09
4.44963e-09
-1.08338e-09
-2.75966e-09
3.46114e-09
3.8186e-10
-6.89074e-09
6.28384e-09
1.76228e-10
4.30699e-10
-8.85069e-09
8.18759e-09
4.49291e-09
-3.82978e-09
-7.22629e-10
-4.03775e-09
-5.11667e-09
9.87714e-09
3.42701e-09
-2.4847e-09
-1.50964e-09
5.67282e-10
-4.9851e-09
-1.03889e-09
4.61171e-09
1.41233e-09
2.0013e-09
3.52242e-09
1.60666e-09
-3.08423e-09
2.97287e-09
-3.80653e-09
3.91799e-09
-5.39442e-09
6.03335e-09
5.68809e-11
2.36158e-09
1.97088e-09
-3.54518e-09
-7.87195e-10
-8.60149e-09
6.9616e-09
3.43658e-09
-3.39863e-09
8.75779e-09
-3.75297e-10
-4.98374e-09
-2.25423e-09
3.27195e-09
-1.09617e-09
7.8559e-11
8.38626e-09
-6.17592e-09
-1.00284e-09
-1.20741e-09
2.18046e-09
-3.16718e-09
-3.25364e-09
4.24018e-09
6.39371e-09
-2.16027e-11
-3.64991e-09
-2.72214e-09
1.37016e-09
1.56652e-09
5.64435e-10
-3.50149e-09
-6.00069e-09
3.98272e-11
3.22552e-09
2.73532e-09
2.47255e-09
-3.09448e-09
5.1009e-10
1.11932e-10
3.43171e-09
2.23118e-09
2.96916e-09
-8.632e-09
-1.35876e-09
1.01348e-09
-2.15585e-09
2.50095e-09
-1.24873e-09
-3.90319e-09
4.78677e-09
3.65236e-10
-3.43568e-09
5.11284e-09
2.84753e-09
-4.52457e-09
-2.77877e-09
-1.7084e-09
4.22236e-09
2.64897e-10
4.0976e-09
-6.66821e-09
3.1431e-09
-5.72555e-10
-5.19759e-11
-2.02188e-09
1.93073e-09
1.43275e-10
-7.79189e-10
-4.17281e-09
4.69883e-09
2.53157e-10
2.3046e-09
-2.36921e-09
9.95663e-10
-9.30923e-10
1.131e-09
6.35609e-09
-5.18238e-09
2.51331e-09
5.14448e-10
-6.32796e-09
3.30034e-09
4.36379e-09
-7.30405e-10
-2.40041e-09
-1.23287e-09
2.81291e-09
8.33071e-09
-9.00585e-09
-2.13739e-09
2.83081e-09
-3.0839e-09
-2.76777e-09
3.02104e-09
-2.74607e-09
-3.46669e-11
4.05749e-10
-2.63683e-09
-1.97728e-10
2.54726e-09
2.87338e-10
6.30028e-09
-5.31231e-09
-1.1028e-09
1.14815e-10
-1.73268e-09
8.0318e-10
-3.71309e-09
4.64252e-09
3.25422e-09
-4.88293e-09
4.95877e-09
-3.33e-09
1.5502e-09
-1.10334e-09
-5.69677e-09
6.4734e-09
-1.63783e-09
-5.35785e-09
5.22305e-10
2.94524e-09
2.75564e-09
-4.58679e-09
-1.11394e-09
5.13939e-09
9.0826e-10
-7.69781e-09
1.65029e-09
3.15535e-09
-2.21964e-09
-2.17916e-10
-7.17797e-10
-1.91076e-09
2.27955e-09
-3.92694e-09
3.55822e-09
-2.21207e-09
7.97571e-09
-6.44601e-09
6.82412e-10
3.78628e-09
-3.4072e-09
3.0229e-09
-3.40179e-09
-3.36335e-09
8.87258e-10
6.26261e-09
3.6524e-09
-5.93747e-09
2.47367e-09
-1.88484e-10
6.20805e-09
-1.45406e-09
-3.70842e-09
-1.04523e-09
-4.05458e-09
3.08145e-09
4.07003e-09
-3.09689e-09
-4.22433e-09
2.6826e-09
1.45849e-09
8.35984e-11
5.95866e-09
-1.72279e-09
-2.07843e-09
-2.15741e-09
-4.87132e-09
-5.03635e-09
3.67637e-09
6.23128e-09
-2.15888e-09
-1.21531e-09
-1.61093e-09
1.94349e-09
-1.8164e-09
2.78706e-09
-2.91394e-09
2.97514e-09
-1.13775e-09
-2.04373e-09
2.06417e-10
-2.90711e-09
-5.09929e-10
-5.23523e-10
3.94065e-09
-3.45602e-09
-1.97524e-11
3.44802e-09
2.77839e-11
2.80882e-09
-3.08783e-09
6.36174e-10
-3.57064e-10
2.80112e-09
2.09061e-09
-4.99029e-09
9.84676e-11
-5.10526e-09
2.40337e-09
-6.24196e-11
5.36789e-09
-6.86721e-09
-1.9566e-09
1.06233e-10
-2.53067e-09
4.60487e-09
-2.90805e-09
-1.77283e-09
-2.55899e-10
4.93689e-09
-2.97038e-09
1.6561e-09
4.98808e-09
-3.67378e-09
5.19463e-09
-5.28928e-09
-1.21287e-09
1.30767e-09
5.81043e-09
-4.09926e-09
-1.60789e-10
4.32182e-09
-2.3165e-09
2.4819e-09
-4.48699e-09
1.68041e-09
-5.20909e-09
-4.79099e-09
-1.4195e-09
-6.82052e-09
4.02716e-09
4.213e-09
4.24939e-09
-9.09748e-10
-4.69737e-10
-4.91456e-09
-3.86504e-09
2.20893e-09
6.57073e-09
7.94187e-09
-3.46942e-09
-4.3266e-09
-1.45683e-10
5.42562e-09
-2.0738e-09
-3.03482e-09
-3.17044e-10
5.59893e-09
-6.36961e-10
-3.81797e-09
-1.14377e-09
-7.00354e-09
7.58553e-09
-1.98837e-09
1.4069e-09
4.23149e-09
8.37684e-10
-5.22347e-09
1.54447e-10
1.4908e-09
-4.62267e-09
-2.96782e-09
6.09983e-09
-6.33663e-10
-2.40844e-09
2.52296e-09
5.19112e-10
3.34211e-09
2.83954e-09
-6.39596e-09
2.1428e-10
-2.67709e-09
3.08745e-10
1.93094e-09
4.37417e-10
-9.7707e-10
1.60155e-09
6.23253e-09
-6.85673e-09
-7.66366e-09
5.65413e-09
1.89257e-09
1.17041e-10
-1.04224e-08
-5.34933e-09
7.35626e-09
8.41549e-09
3.45716e-09
5.43307e-10
-3.11693e-10
-3.68884e-09
1.86157e-09
-5.34999e-09
5.90492e-09
-2.41638e-09
-7.61767e-10
3.11316e-09
-3.9626e-09
1.61122e-09
-5.82826e-09
2.97645e-09
2.97108e-09
-1.19153e-10
-1.67037e-09
1.53669e-09
-3.38231e-09
3.51603e-09
-7.97595e-09
2.08395e-09
5.95077e-09
-5.87094e-11
-5.52226e-09
4.71187e-09
-5.52222e-10
1.36253e-09
4.77961e-09
-4.27211e-10
-4.74661e-09
3.93962e-10
5.39906e-09
3.9415e-10
7.86992e-11
-5.87193e-09
-4.8345e-09
4.77679e-09
-5.8675e-09
5.92524e-09
2.10643e-09
-1.64101e-09
-8.0627e-10
3.40859e-10
1.91351e-09
-5.73626e-10
-5.7271e-09
4.38716e-09
-7.20328e-09
1.03344e-09
6.86683e-09
-6.96875e-10
3.73942e-09
6.12867e-10
1.7946e-09
-6.14664e-09
1.48419e-09
-4.26634e-09
3.07173e-09
-2.8938e-10
-1.90882e-09
-1.55327e-09
6.4627e-09
-3.00047e-09
4.22284e-09
-5.93079e-10
-2.42852e-10
-3.3868e-09
-2.98649e-09
4.12057e-09
-5.15451e-10
-6.18722e-10
-3.3792e-09
8.17342e-10
-2.8395e-09
5.40164e-09
-1.89366e-09
-2.25635e-09
4.07784e-09
7.21152e-11
-3.60644e-09
2.55635e-09
9.09728e-10
1.40354e-10
-1.67147e-09
2.43507e-09
1.19252e-09
-1.95607e-09
-5.75517e-10
-1.76068e-09
-2.5953e-09
4.93146e-09
-6.83787e-09
2.86128e-09
5.13127e-09
-1.15467e-09
2.65245e-09
7.15062e-10
-8.27943e-09
4.91204e-09
5.31975e-10
-4.57488e-09
5.14907e-09
-1.10617e-09
4.82922e-09
-2.81086e-09
-1.39059e-09
-6.27998e-10
1.70019e-09
-5.66461e-09
7.10084e-09
-3.13636e-09
2.43157e-09
-9.71572e-10
2.40196e-10
-3.02053e-09
-1.0529e-09
3.81981e-09
2.53667e-10
6.34378e-10
-1.4627e-09
-3.94058e-09
4.76891e-09
5.52838e-09
-5.2276e-09
2.24814e-09
-2.54882e-09
-4.14584e-09
-2.57326e-09
-9.44543e-10
-1.15031e-09
-3.1973e-09
6.14044e-10
3.73349e-09
3.17919e-09
-4.48496e-09
1.55435e-10
1.76557e-09
1.58683e-09
1.85995e-09
-5.21246e-09
-4.2303e-09
2.79858e-09
4.20428e-09
-2.70516e-09
-5.41183e-09
3.91292e-09
-3.50034e-09
-7.56994e-11
1.02532e-09
2.55112e-09
-8.00635e-10
6.46665e-09
-5.74822e-09
8.24989e-11
7.74699e-10
1.92664e-09
-5.14841e-09
2.4471e-09
2.58475e-09
1.43416e-09
-4.28624e-09
2.67334e-10
-3.07895e-09
-2.81441e-10
3.62076e-09
-2.60276e-10
1.51647e-09
2.90956e-09
-5.6274e-09
1.20131e-09
-7.57214e-09
9.82364e-09
-2.57605e-09
3.24733e-10
-6.39211e-09
4.44282e-09
-6.4597e-10
2.59517e-09
1.95702e-09
-2.82899e-09
2.50241e-09
-1.63048e-09
-4.65089e-09
1.64214e-09
2.81836e-09
1.90338e-10
-8.39665e-10
-1.72893e-09
2.21316e-09
3.55462e-10
-2.46117e-09
1.39029e-09
2.3129e-10
-5.24133e-09
-8.44894e-10
-4.33609e-09
2.12376e-09
-5.00772e-09
3.81782e-09
-9.33868e-10
8.74154e-09
-2.44452e-09
-9.83127e-10
-5.31382e-09
-4.71846e-09
-2.38235e-09
4.54954e-09
2.55123e-09
-2.85825e-09
3.0679e-09
-2.80769e-09
2.59814e-09
-7.09395e-09
6.57698e-09
9.8416e-10
-4.66867e-10
7.56656e-09
1.89651e-10
-9.5648e-09
1.80864e-09
1.00467e-10
7.09467e-09
-3.3261e-09
-3.86883e-09
1.13612e-09
-1.90349e-09
-1.8123e-09
2.57972e-09
3.93301e-09
-4.63709e-09
5.12314e-10
1.9168e-10
2.19047e-09
2.00133e-09
2.42662e-10
-4.43443e-09
-1.5086e-09
1.97676e-09
2.89044e-09
-3.35831e-09
1.0416e-10
-2.33438e-09
4.13662e-09
-1.90621e-09
-5.41546e-09
4.51164e-09
-2.91634e-09
3.82015e-09
-7.41061e-09
-3.56991e-10
1.26555e-09
6.5024e-09
-9.2155e-10
3.27948e-09
-6.23424e-09
3.87651e-09
-1.41082e-09
-3.34918e-09
1.59228e-09
3.16771e-09
-7.48191e-10
-1.736e-09
2.94019e-09
-4.55735e-10
-1.84278e-09
5.57914e-09
-3.72941e-09
-6.57333e-12
1.25726e-09
-2.25401e-09
-8.45714e-10
9.14729e-10
5.43847e-09
2.23477e-09
-8.588e-09
-1.81764e-09
8.1723e-10
4.49827e-09
-3.49788e-09
4.21458e-09
-3.51374e-09
-1.10078e-09
4.00081e-10
1.07227e-09
-7.34927e-09
7.36413e-09
-1.08736e-09
3.30628e-09
-4.66949e-10
-3.06888e-09
2.29587e-10
1.36692e-09
5.61587e-09
-7.29757e-10
-6.25294e-09
6.29799e-09
-1.27665e-09
6.69791e-10
-5.69112e-09
-1.8309e-09
2.53292e-09
5.22075e-09
-5.92271e-09
-6.7151e-09
-1.61731e-09
5.96886e-11
5.75212e-09
-2.6791e-09
-3.26228e-09
1.893e-10
-9.45429e-10
-2.45335e-09
8.26931e-10
2.57193e-09
4.56958e-09
-5.16754e-10
-2.49742e-09
-1.55564e-09
-3.75227e-09
1.59638e-09
1.75079e-09
4.05096e-10
-1.15041e-09
5.59372e-09
-1.52157e-09
-2.92176e-09
1.24661e-09
-7.22559e-09
5.00456e-09
9.74656e-10
-1.36091e-09
-5.5942e-09
7.37554e-09
-4.20246e-10
4.56991e-09
-2.68907e-09
-8.9855e-10
-9.82295e-10
8.79911e-10
-2.58021e-09
-1.99203e-09
3.6924e-09
3.93512e-09
-1.389e-09
-1.66616e-09
-1.5002e-09
3.95068e-09
-2.82399e-09
3.73537e-10
5.331e-09
-3.26427e-09
-4.92985e-10
-1.57373e-09
2.54088e-09
3.49757e-09
-7.07445e-10
3.66146e-09
-1.73519e-09
-1.8017e-09
-1.24755e-10
6.00586e-09
1.51355e-09
-3.18259e-09
-4.33671e-09
1.98687e-09
-7.8238e-10
2.38145e-09
-3.58568e-09
3.88611e-09
-2.97666e-09
-3.14829e-09
2.2388e-09
3.11841e-09
-5.2545e-09
-3.95846e-09
6.09455e-09
2.40498e-09
-3.43904e-09
4.92032e-09
3.2434e-09
4.74934e-09
6.00479e-09
-7.69867e-09
7.80796e-09
-8.5393e-09
3.2045e-09
5.3929e-09
-5.8019e-11
7.08044e-09
-6.24731e-10
-6.92212e-09
4.66212e-10
-3.63976e-09
3.23092e-09
3.57223e-10
5.59341e-09
-6.19019e-09
4.5176e-09
-3.9208e-09
-4.82078e-09
5.27873e-09
7.82652e-09
-5.0401e-10
-2.28394e-09
-5.03845e-09
-1.21568e-09
1.0293e-08
-6.25774e-09
-2.81961e-09
1.88858e-09
-2.28353e-09
2.31235e-10
1.63533e-10
7.27887e-09
-3.07532e-09
6.6314e-10
-4.86665e-09
2.11198e-09
5.94201e-10
-2.59449e-09
-1.11619e-10
2.23561e-09
-3.96107e-09
1.94257e-09
-2.17015e-10
2.13957e-10
-4.43626e-09
6.20684e-09
-1.98456e-09
2.94038e-09
-1.01408e-09
-3.1061e-09
1.18007e-09
-1.55673e-09
3.17866e-09
-4.12322e-10
-1.20971e-09
-4.10566e-09
-5.94903e-10
-1.15456e-09
-3.19223e-09
3.0141e-09
-3.92751e-09
-7.05298e-10
-2.77541e-09
3.12272e-09
3.57979e-10
1.47825e-09
1.14037e-09
2.73432e-09
-5.35289e-09
-7.52981e-10
-3.00709e-09
9.34918e-10
2.82524e-09
9.79882e-10
-3.93822e-09
3.91123e-09
-9.52854e-10
7.86668e-10
1.16492e-09
3.99263e-10
6.32657e-09
-4.29785e-09
-6.28898e-09
4.26011e-09
-1.13967e-10
2.7502e-09
-2.62438e-09
-1.17796e-11
-4.29481e-09
9.03432e-10
3.39686e-09
-5.4739e-12
-3.25308e-09
-4.43538e-09
6.15763e-09
1.53102e-09
5.22079e-09
-4.57605e-09
4.4318e-09
-5.07648e-09
4.25334e-09
-8.75305e-10
-3.31147e-09
-6.63442e-11
-3.5521e-09
-1.27698e-09
9.29069e-09
-4.46159e-09
4.35455e-09
-4.2304e-09
-4.47683e-10
3.23531e-10
-4.06817e-09
-1.12712e-10
3.8647e-09
3.16281e-10
-2.71236e-09
4.86972e-09
7.23612e-09
-9.39343e-09
2.16407e-09
6.48345e-10
-3.05182e-09
2.3938e-10
-1.68656e-09
2.34635e-09
-9.41427e-10
2.81445e-10
-3.29705e-09
8.90998e-10
4.8708e-09
-2.46472e-09
4.61363e-09
-4.25601e-09
-3.65459e-09
-9.47037e-10
4.57146e-09
-2.88684e-09
-7.37524e-10
3.64266e-09
1.83605e-09
-3.51089e-09
-1.96773e-09
6.2183e-09
-2.48357e-09
1.98169e-10
7.03325e-09
-2.11976e-09
-4.58367e-09
-3.29747e-10
-2.15459e-09
7.89287e-10
5.62665e-09
-4.26129e-09
-4.28784e-09
3.07679e-09
4.64283e-09
-1.8316e-10
2.21256e-09
-3.76208e-09
-1.67988e-09
-3.2719e-09
-3.51693e-10
5.30344e-09
-3.90033e-09
7.76532e-09
-5.53288e-09
1.66795e-09
3.9068e-09
-1.10659e-08
6.17388e-09
9.85228e-10
-3.20018e-09
4.61976e-09
5.89182e-10
-4.07086e-09
2.91522e-09
5.66643e-10
8.03659e-10
2.48526e-09
-2.69974e-09
4.398e-10
3.34955e-09
-5.40998e-09
1.62056e-09
6.21226e-09
-5.98182e-09
-4.54283e-10
2.23823e-10
-3.24894e-09
3.11421e-09
-2.62562e-10
3.97336e-10
3.78368e-09
1.85909e-09
-5.88825e-09
2.45483e-10
3.52597e-09
-9.30369e-09
4.55226e-09
1.22556e-09
4.82021e-09
3.43e-09
-5.65002e-09
-2.60016e-09
-7.17407e-09
1.02786e-08
-4.73507e-09
1.63065e-09
7.39853e-09
9.47603e-10
2.7052e-09
3.30982e-10
2.39715e-09
-5.43328e-09
-2.41631e-09
2.04814e-09
2.89295e-09
-2.52466e-09
-5.22586e-09
6.13853e-11
4.89648e-09
2.6814e-10
1.42056e-09
-9.54809e-09
4.52477e-09
3.60313e-09
-3.96511e-09
-4.85928e-10
3.99909e-09
4.5202e-10
-7.03129e-09
3.59148e-09
-1.91111e-09
5.35101e-09
-3.4644e-09
6.52358e-09
-3.25192e-09
1.92826e-10
-5.02089e-09
4.0569e-09
-2.50001e-09
6.89818e-09
5.02107e-09
-6.30409e-10
-1.12888e-08
1.19522e-09
2.05966e-09
-5.67105e-09
1.77762e-09
-2.02887e-09
-1.52687e-11
2.66391e-10
-9.28169e-09
-3.58387e-09
8.49242e-10
1.20163e-08
8.39258e-10
-3.19609e-09
4.405e-09
-2.32112e-09
5.42163e-09
5.22779e-09
2.62353e-09
-5.621e-09
2.07611e-09
5.51213e-09
-1.83457e-09
-7.71e-09
4.03264e-09
1.7796e-09
-1.05193e-09
4.78464e-09
-3.44507e-09
-3.67672e-11
6.31814e-09
-2.8362e-09
6.71072e-11
-6.33383e-09
2.9736e-10
3.74262e-09
2.80905e-09
-4.4166e-10
1.31678e-10
4.96796e-09
-4.9105e-09
-1.88946e-10
-2.72579e-09
8.54983e-11
-9.94402e-10
-3.75551e-09
4.53247e-09
2.0245e-09
-5.90922e-09
2.64968e-09
2.93141e-09
3.28107e-10
-1.55923e-09
4.47387e-09
-3.17013e-09
2.55347e-10
-2.13418e-09
2.65319e-09
-8.21004e-10
3.01939e-10
1.54175e-09
3.16379e-09
-4.24438e-09
-4.61076e-10
1.36131e-09
-2.66022e-09
2.25965e-09
-9.60582e-10
3.45391e-09
-6.42411e-09
2.71708e-09
2.53085e-10
5.59006e-10
-3.95068e-09
7.32758e-09
-3.93589e-09
-4.27869e-09
2.48473e-10
3.74461e-09
2.85588e-10
-3.01043e-09
2.60365e-09
3.33541e-10
7.39087e-11
-3.93432e-09
2.61596e-10
3.44836e-09
2.24412e-10
6.20417e-09
2.94252e-09
1.10281e-09
1.797e-09
-3.26535e-09
3.65839e-10
3.54553e-10
3.80223e-10
-3.34176e-09
-1.96681e-09
4.87858e-10
-2.91885e-10
-6.26973e-09
6.35615e-09
2.05543e-10
2.09857e-09
-7.44711e-09
5.92574e-09
-5.77276e-10
5.82697e-09
5.05819e-09
-4.28453e-09
-6.60049e-09
5.98397e-09
-2.32234e-09
-2.34706e-10
2.64671e-09
3.30379e-09
1.15586e-09
-7.10639e-09
-2.68473e-09
4.50366e-09
-2.22462e-09
4.05607e-10
1.41245e-09
6.42894e-09
-6.29565e-09
-1.54572e-09
-4.10293e-09
-3.69752e-09
1.2658e-09
6.53464e-09
8.08717e-10
-7.85846e-09
-1.79974e-09
3.98972e-09
-1.06999e-09
-5.31059e-09
2.39087e-09
-2.34092e-11
5.18259e-09
-3.42195e-09
-1.73731e-09
-1.18026e-09
-1.68566e-09
-3.60694e-09
6.47291e-09
-2.98072e-09
-3.04863e-10
5.25363e-09
-1.9681e-09
-1.77548e-09
2.81192e-09
-5.87149e-09
4.83506e-09
2.53449e-09
5.96438e-09
-5.133e-09
-3.36586e-09
-1.34841e-09
-1.13536e-09
5.01812e-09
4.08187e-09
-1.42549e-09
1.5971e-09
-4.53403e-09
1.27641e-08
-4.21601e-09
-4.01403e-09
3.57365e-09
-5.93351e-09
-8.07325e-10
1.23753e-09
3.34462e-09
-8.16559e-10
-3.76571e-09
3.14624e-09
-2.73556e-10
-5.73075e-09
-1.33521e-09
7.58e-09
-3.87846e-09
-2.36627e-09
3.95798e-09
-1.23358e-09
4.67877e-09
-7.40307e-09
-8.59271e-09
5.88304e-09
6.51499e-09
-4.36118e-09
-7.11494e-10
-8.72056e-09
1.65825e-09
7.44187e-09
-3.79289e-10
2.85623e-09
-7.00323e-09
1.02831e-08
-6.136e-09
-3.99589e-09
-1.90202e-09
8.80427e-09
-2.9063e-09
-3.26502e-09
-2.041e-09
5.47111e-09
-1.64948e-10
-7.33852e-09
3.7289e-09
3.38574e-09
2.24059e-10
-3.08813e-09
2.315e-09
2.55945e-09
-1.78632e-09
1.55496e-09
2.32841e-09
-3.81878e-09
-6.43061e-11
5.95138e-09
-7.22622e-09
6.03731e-09
-4.76227e-09
-2.65286e-09
-3.42189e-09
6.15632e-09
-8.14637e-11
-2.90728e-09
4.97922e-09
6.54473e-09
-8.61669e-09
5.77656e-09
2.98088e-09
-8.31764e-09
-8.25531e-09
7.07705e-09
6.95484e-09
-2.10819e-09
-3.80152e-09
4.86506e-09
1.04474e-09
-2.4266e-09
2.64969e-09
5.63963e-10
-8.07121e-11
-5.97997e-09
7.08262e-09
-1.02232e-09
7.21775e-09
-5.84095e-09
1.03005e-09
-2.40674e-09
5.86595e-09
-2.12005e-09
-1.32264e-09
-2.42317e-09
2.72317e-09
-3.52125e-09
4.29326e-10
3.68662e-10
-2.95477e-09
4.0483e-09
-2.68363e-09
1.59005e-09
4.64973e-09
5.59428e-09
-8.31667e-09
-1.9271e-09
-3.36754e-09
3.60574e-09
-4.03679e-10
1.65661e-10
-2.16193e-10
4.64735e-09
-4.80463e-09
3.73674e-10
4.04431e-09
-4.59492e-09
6.95647e-09
-6.40587e-09
-3.37534e-09
-5.42171e-09
4.47818e-09
4.3189e-09
2.23505e-09
8.15459e-09
-4.43095e-09
6.11556e-09
2.89549e-09
3.18373e-13
-9.01126e-09
2.26972e-09
3.56897e-09
-5.39623e-09
-4.42379e-10
-7.98493e-09
7.62514e-10
3.84709e-09
5.9279e-10
-6.30796e-09
-4.58331e-09
-1.53145e-09
5.64337e-09
4.71443e-10
-1.09164e-09
-6.2722e-10
1.39675e-09
3.22127e-10
1.31095e-10
4.15972e-09
-8.14289e-09
3.85217e-09
-1.50263e-09
-4.78728e-09
5.57415e-09
7.16156e-10
-5.66745e-09
8.18539e-09
4.4387e-09
-6.95664e-09
-1.29023e-09
-2.60942e-09
-4.63956e-09
3.21519e-09
-3.79051e-09
-4.21817e-10
9.97326e-10
3.21883e-09
2.87637e-09
-6.25943e-09
1.64222e-10
-2.47386e-09
-1.12699e-09
3.27521e-09
3.25628e-10
6.18012e-09
-4.1786e-09
8.11275e-09
-1.01142e-08
9.81344e-10
-7.0305e-09
-4.71806e-11
6.09649e-09
-3.40757e-09
5.21227e-09
-4.81244e-09
3.00795e-09
-6.02018e-09
6.76881e-09
6.81815e-09
2.58277e-09
1.41275e-09
-2.93071e-09
-1.06539e-09
-4.67723e-10
5.37886e-09
-5.47508e-10
2.60387e-09
3.46758e-09
-6.18451e-09
1.13119e-10
4.4587e-09
-5.34684e-09
-4.69093e-09
5.57934e-09
6.558e-09
-1.52637e-09
-4.65713e-09
-3.74326e-10
5.00427e-09
8.5295e-10
-1.62998e-09
-4.2269e-09
7.34172e-09
-2.41699e-09
-3.88922e-09
3.28873e-10
-3.49767e-09
4.24974e-09
-1.08106e-09
8.08112e-09
-3.3923e-09
-8.42208e-10
-3.84642e-09
3.9256e-10
-3.0258e-10
-3.43098e-09
3.34115e-09
3.54331e-09
-4.07823e-09
-2.48628e-09
3.02131e-09
2.65498e-09
2.42807e-10
2.37429e-09
-5.27182e-09
-8.21828e-10
2.19996e-09
-4.51734e-09
3.13927e-09
-2.11977e-09
2.46489e-09
2.18252e-09
-2.52759e-09
-2.36108e-09
2.63519e-09
1.18575e-10
-3.0187e-11
-2.35254e-09
2.6313e-10
8.3171e-09
-2.89303e-09
-5.17446e-09
-2.49687e-10
4.68306e-09
4.45747e-09
-8.23476e-10
3.42534e-09
-1.63271e-09
5.6885e-10
-2.17473e-09
5.77941e-09
4.22191e-09
-2.96967e-09
8.49308e-09
-1.26357e-09
-5.26409e-09
3.90134e-09
2.62627e-09
-1.49988e-09
-3.2839e-09
4.27999e-09
4.80222e-09
-1.19101e-09
-5.17066e-09
5.82578e-09
-3.68216e-09
2.65845e-09
-9.9424e-10
3.36749e-09
-2.33422e-09
-3.90205e-11
2.38505e-09
1.58038e-09
-4.14514e-09
1.79746e-10
-3.39627e-09
7.33591e-09
2.61366e-09
-6.55309e-09
4.10395e-09
2.52731e-09
-6.4959e-09
-1.35368e-10
-3.93174e-09
5.63391e-10
-2.47942e-09
1.29162e-09
2.35529e-09
-1.16749e-09
-4.16017e-09
5.308e-09
-3.95734e-09
2.80948e-09
2.13942e-09
-6.21217e-09
1.89818e-09
7.78196e-09
-4.92357e-09
3.02441e-09
-5.88305e-09
5.86028e-09
-5.55187e-09
3.10212e-09
-3.41059e-09
-6.20244e-09
6.08406e-09
-3.47849e-09
3.59701e-09
-5.24501e-09
5.01221e-09
2.25449e-09
-2.02159e-09
1.09519e-09
-1.17084e-09
-2.83484e-09
2.9106e-09
7.85225e-09
-4.5606e-10
-4.07485e-09
-3.32125e-09
3.76372e-09
3.89528e-10
2.10318e-09
3.82358e-09
-4.75005e-09
-1.1767e-09
-3.74798e-10
4.1206e-09
-8.89075e-09
5.14492e-09
-7.77669e-10
-1.24779e-09
5.58e-09
5.91043e-10
8.57436e-10
-7.02846e-09
-5.2321e-09
-1.50221e-10
9.02506e-09
1.18614e-09
2.18916e-09
2.29487e-09
4.6156e-09
-3.25876e-09
-2.57248e-09
4.79194e-09
1.26916e-09
-6.1925e-09
1.31495e-10
1.84195e-09
-4.72801e-09
1.4372e-09
1.44884e-09
3.77093e-09
-1.31322e-09
2.27834e-09
-4.73596e-09
-1.81575e-09
-5.87041e-10
-1.13638e-09
5.08056e-09
-3.64156e-09
-3.02535e-10
4.4986e-09
-7.89883e-09
-4.98668e-09
8.38699e-09
-4.96714e-09
-3.5276e-09
-4.19392e-10
8.91404e-09
1.78495e-09
-5.69286e-10
-8.22983e-09
7.01427e-09
4.82117e-09
-8.6048e-10
-1.39894e-09
-2.56184e-09
3.73022e-09
-8.35802e-09
-1.37566e-09
6.0035e-09
-3.86512e-09
-5.15382e-09
1.02479e-08
-1.22898e-09
4.84845e-09
-3.24503e-09
-2.0281e-09
4.246e-10
1.75712e-09
2.10248e-09
9.61426e-10
5.80912e-09
-2.29985e-09
-3.90626e-09
3.9699e-10
-2.47806e-09
3.8115e-09
-5.19853e-09
4.36976e-09
1.93286e-09
-6.49774e-09
1.95196e-10
5.33511e-09
-4.67987e-09
-5.56301e-09
-3.64648e-09
6.66396e-09
2.54562e-09
7.14863e-09
-1.01008e-08
3.0765e-09
-1.2423e-10
-2.3194e-10
-7.50411e-10
4.09367e-09
-3.11115e-09
-2.01626e-09
2.23379e-09
4.23454e-10
-6.4072e-10
-2.08528e-09
5.94814e-09
-4.97126e-09
1.1084e-09
-1.95993e-09
-1.47904e-09
3.16724e-09
2.71539e-10
7.47686e-09
-6.57882e-09
5.50972e-10
-1.44902e-09
-4.07315e-09
-1.36928e-09
-5.77669e-10
-1.11756e-08
1.31483e-08
-7.92167e-09
5.94902e-09
3.16184e-09
-5.86188e-09
-5.24039e-09
7.94058e-09
-2.6474e-09
-4.16821e-10
4.26875e-09
-1.20451e-09
-3.57984e-09
-1.46619e-09
4.15216e-09
8.9379e-10
2.00505e-09
-3.26595e-09
9.958e-10
2.6503e-10
-2.97937e-09
3.85189e-09
-2.76618e-09
-1.30592e-09
3.31575e-10
4.27496e-09
-6.91592e-10
2.73653e-09
-6.32012e-09
-3.2901e-09
-2.57484e-09
2.59904e-09
2.17367e-09
1.28793e-09
-3.93291e-09
4.71286e-10
-2.42243e-09
4.98032e-09
-4.67558e-09
8.14909e-10
2.58194e-09
4.55033e-10
3.27126e-09
-1.65635e-09
5.58732e-10
-3.07445e-10
2.23598e-09
-2.28435e-09
3.55792e-10
-7.15819e-10
-3.24662e-09
3.62215e-09
3.40246e-10
-4.65477e-09
3.72236e-09
5.10055e-10
4.22205e-10
-1.55882e-09
6.53984e-10
6.30509e-10
2.7459e-10
5.84089e-09
-5.03283e-09
5.73615e-09
-6.54432e-09
-1.01305e-09
3.25275e-09
-3.52245e-09
1.28299e-09
-3.07579e-09
-8.74402e-10
3.59947e-09
3.50814e-10
8.25139e-10
-5.54958e-10
1.74014e-09
-2.00992e-09
1.63043e-09
9.86144e-10
-2.85306e-09
2.3658e-10
-1.0444e-09
3.07725e-09
-2.38838e-09
3.55508e-10
-2.27059e-09
-4.93938e-09
6.86501e-09
3.44995e-10
-3.21386e-09
3.45465e-09
-1.10117e-09
-2.50725e-09
2.52326e-09
3.71427e-09
4.13635e-09
-6.14813e-09
3.76884e-09
2.23141e-09
2.76175e-09
-4.12411e-09
-8.69065e-10
5.18739e-09
1.28147e-09
-5.19248e-09
-1.27644e-09
2.49332e-09
3.13075e-09
-4.4898e-09
-1.13439e-09
4.03761e-09
-1.04068e-08
1.99594e-09
4.37319e-09
4.27781e-09
1.55708e-10
4.90715e-09
-2.79006e-09
-1.38981e-09
-7.27269e-10
4.4372e-09
9.22663e-10
-3.98964e-09
2.72362e-09
1.45682e-09
2.56762e-10
2.71695e-09
-2.39353e-09
-5.33972e-09
5.01637e-09
4.09563e-09
-7.60221e-09
6.65099e-09
-3.14441e-09
5.51691e-09
-3.81776e-09
2.14297e-10
-4.9276e-09
2.11291e-09
4.99943e-09
-2.18476e-09
-3.48469e-09
6.25641e-09
7.31985e-10
-3.50416e-09
5.38139e-10
4.09835e-11
6.6998e-09
-1.48066e-09
-3.69571e-09
4.84663e-09
3.29606e-10
-4.23483e-09
-1.76524e-09
-1.33321e-09
7.33374e-09
9.46178e-09
-1.68551e-09
-3.80175e-09
-3.9742e-09
5.0225e-09
4.60767e-09
-6.75291e-09
-2.87695e-09
5.76442e-09
-1.615e-09
-1.7419e-10
-3.97509e-09
2.74588e-09
-5.33504e-09
1.22963e-09
1.39185e-09
5.55468e-09
-2.15122e-09
-4.79516e-09
3.21528e-09
-4.65821e-09
1.56154e-09
-1.18313e-10
-4.09107e-09
-3.35409e-09
3.4855e-09
3.9597e-09
4.60428e-09
2.74748e-09
-3.45356e-09
-3.89818e-09
3.67239e-09
-3.64221e-09
-5.07572e-10
4.77471e-10
3.68359e-09
-3.37566e-09
-6.86878e-10
3.78993e-10
1.49482e-09
1.89095e-09
2.75682e-10
4.14503e-09
2.21108e-09
-4.8614e-09
2.48266e-09
1.88568e-09
-4.65279e-09
2.84567e-10
3.47296e-09
-5.46454e-09
4.76062e-09
1.42058e-09
-8.43402e-09
4.32811e-09
7.26837e-09
-4.21077e-09
-7.3856e-09
3.92782e-09
-3.4851e-09
4.15571e-09
-4.59841e-09
-5.5002e-09
-1.96625e-09
3.85732e-09
-4.88202e-09
1.07039e-09
-4.56776e-11
3.08667e-09
-1.69977e-09
1.68229e-10
2.12428e-09
-2.88845e-09
6.77046e-10
8.72739e-11
-2.13556e-09
1.86718e-09
5.17246e-09
-4.90396e-09
8.15895e-09
-5.22581e-09
3.22414e-09
-1.08353e-09
6.01839e-09
-2.75722e-09
4.56864e-09
-2.69701e-10
3.29396e-09
-8.70482e-09
-2.18368e-09
7.59465e-09
-2.45964e-09
1.60863e-09
-4.17777e-09
5.02891e-09
-7.04807e-09
5.74389e-09
6.7985e-09
-5.49477e-09
4.60166e-09
-3.04394e-09
-6.71479e-09
5.15662e-09
-2.90181e-09
4.80798e-09
-3.46526e-09
1.55901e-09
1.75627e-09
-4.56548e-09
-1.06938e-09
3.87874e-09
-7.67316e-10
3.76734e-09
-8.19362e-09
5.19362e-09
-4.86368e-09
2.91207e-09
-4.22811e-09
6.17971e-09
-4.34207e-09
-2.36974e-09
1.59098e-09
5.12091e-09
-3.683e-09
-1.40403e-09
4.70879e-09
-3.78571e-09
-1.46261e-10
-4.32337e-09
-1.49319e-09
2.89455e-09
-6.26498e-09
5.63307e-11
4.46733e-09
-4.63754e-09
-8.54347e-09
-4.65328e-09
1.21194e-08
1.07744e-09
7.72442e-10
-3.88979e-09
1.8259e-09
1.29149e-09
-1.85965e-09
-1.60807e-09
3.10392e-09
3.63791e-10
-2.4773e-09
4.75113e-10
5.25954e-09
-5.79231e-09
-7.73168e-10
6.86082e-10
-6.04321e-09
3.38008e-09
1.97703e-09
-2.94809e-09
2.8581e-09
-4.33027e-09
4.42034e-09
6.71662e-09
-1.20903e-09
-6.49299e-09
-4.54316e-09
3.85264e-11
2.43529e-09
-3.01434e-09
2.76613e-10
2.36938e-09
8.63323e-10
2.59298e-09
-7.76963e-10
1.89958e-09
4.02642e-11
5.21703e-09
-3.36978e-09
2.01821e-09
-3.86487e-09
-1.06646e-09
4.72495e-09
-3.5721e-09
-8.62787e-11
-3.03094e-09
-2.09733e-10
-1.63097e-09
1.74899e-09
-3.02687e-09
2.33515e-10
-2.82492e-09
-5.97705e-12
4.08506e-10
-4.77276e-09
3.83199e-09
-5.06769e-09
6.00866e-09
1.45596e-09
1.24291e-09
-2.92883e-09
2.30307e-10
1.54789e-09
-7.19828e-09
-3.46996e-10
5.99734e-09
3.7912e-10
-3.27861e-09
2.43112e-09
4.68371e-10
8.2769e-09
-1.27583e-08
7.09959e-10
3.77142e-09
6.22327e-09
-9.83851e-09
-1.26613e-09
4.88144e-09
2.57466e-09
-8.31104e-09
-1.62115e-10
5.8987e-09
2.36332e-09
1.55887e-09
-5.41511e-09
1.88435e-09
-3.95881e-09
-1.68089e-09
3.36887e-09
1.02065e-09
1.03186e-09
-1.75541e-09
-9.8237e-11
-5.43263e-09
4.01649e-10
-1.68388e-09
2.39961e-09
4.59357e-09
-3.27693e-09
-3.71611e-09
1.21155e-09
3.74543e-09
-5.09954e-09
1.42645e-10
3.6071e-09
-7.63617e-09
1.66761e-09
-3.21965e-09
1.54001e-09
1.19663e-11
2.25821e-09
-4.00333e-09
7.47425e-11
-5.43975e-09
-5.16569e-09
3.20115e-09
7.40423e-09
5.83901e-09
-4.96361e-09
1.55618e-09
-2.43429e-09
2.41282e-10
2.53396e-10
-3.11255e-09
3.02625e-09
-1.66971e-10
4.92974e-09
-3.04968e-09
-2.23512e-09
3.55399e-10
1.18862e-09
-5.39763e-09
2.3438e-09
1.8652e-09
2.98054e-09
-2.99298e-09
-5.11286e-09
5.12526e-09
2.77842e-09
2.6696e-09
-5.67894e-09
2.30946e-10
9.42276e-09
-9.70947e-09
-4.43901e-09
4.72575e-09
-1.35572e-10
2.83304e-09
-4.47297e-09
-7.33886e-09
-1.86374e-09
3.7833e-09
5.41928e-09
-1.55457e-09
1.43505e-09
-3.69515e-09
3.81497e-09
-1.06914e-09
3.1117e-09
2.3699e-10
-1.04179e-09
-2.87539e-09
3.68286e-09
2.34311e-10
1.40495e-10
2.80823e-09
2.35931e-09
-1.48148e-09
2.69474e-10
1.05536e-09
1.56805e-10
-1.12907e-09
2.61634e-10
-1.62499e-09
-2.61468e-09
3.93318e-09
3.06543e-10
2.54061e-09
-3.71843e-09
1.8294e-09
-6.51517e-10
-3.41441e-09
3.56491e-11
-6.15551e-09
4.0679e-10
5.67112e-09
7.77852e-11
1.20638e-09
7.04112e-09
-1.92084e-09
8.47315e-10
1.02076e-09
-2.07966e-09
2.11543e-10
1.90751e-09
4.2311e-10
-3.27765e-10
4.59452e-09
-6.94398e-09
2.67731e-09
4.3582e-09
-6.01199e-09
4.78874e-09
-3.13491e-09
2.87122e-09
-3.69455e-09
-2.16324e-09
-1.60568e-10
2.51341e-09
-2.88421e-09
5.31551e-10
-2.78104e-09
1.79501e-09
9.69451e-10
1.66721e-11
9.09189e-10
5.60558e-09
-6.90562e-09
3.90996e-10
-3.04444e-09
7.31629e-11
2.5064e-09
4.6496e-10
2.3834e-09
-1.17957e-09
-1.46686e-09
2.63024e-10
1.56259e-09
3.4568e-09
1.29616e-09
-6.3154e-09
5.62053e-09
5.18717e-09
-3.22562e-09
-7.58198e-09
4.883e-09
-3.49327e-09
-1.30822e-09
-8.15459e-11
7.12812e-09
-5.9199e-09
-2.34448e-09
-2.16699e-09
1.88951e-09
-3.4846e-11