/*--------------------------------*- C++ -*----------------------------------*\
| =========                 |                                                 |
| \\      /  F ield         | OpenFOAM: The Open Source CFD Toolbox           |
|  \\    /   O peration     | Version:  v1612+                                |
|   \\  /    A nd           | Web:      www.OpenFOAM.com                      |
|    \\/     M anipulation  |                                                 |
\*---------------------------------------------------------------------------*/
FoamFile
{
    version     2.0;
    format      ascii;
    class       volVectorField;
    location    "50";
    object      U;
}
// * * * * * * * * * * * * * * * * * * * * * * * * * * * * * * * * * * * * * //

dimensions      [0 1 -1 0 0 0 0];

internalField   nonuniform List<vector> 
21319
(
(0.121781 0.832497 -0.360848)
(0.0840755 0.85919 -0.279667)
(0.0869216 0.669526 -0.653735)
(-0.0586748 0.88065 -0.173048)
(0.169868 0.196739 -0.774543)
(-0.0520418 0.724926 -0.387385)
(-0.0407844 0.794651 -0.245365)
(0.0503325 0.707572 -0.213125)
(0.166913 0.520863 -0.4554)
(0.204265 0.243362 -0.795003)
(0.242482 0.208979 -0.600672)
(0.0356476 0.841856 -0.242541)
(-0.0127929 0.779077 -0.0587081)
(0.0216361 0.807563 -0.0951601)
(0.0886843 0.798578 -0.136825)
(0.100487 0.811054 -0.241487)
(0.0634517 0.858717 -0.250384)
(0.13301 0.143187 -0.573513)
(0.26338 0.229915 -0.749272)
(0.157594 0.201559 -0.574331)
(0.213757 0.290905 -0.833954)
(0.125269 0.335182 -0.742389)
(0.23538 0.0875951 -0.742739)
(0.20707 0.357254 -0.530666)
(0.166657 0.332059 -0.56309)
(0.0824748 0.623537 -0.416153)
(-0.12145 0.774918 -0.409011)
(-0.0272475 0.743099 -0.388738)
(0.12693 0.718912 -0.25081)
(-0.0595929 0.78547 0.0257914)
(0.217208 0.462653 -0.570634)
(0.224434 0.510293 -0.551614)
(0.219551 0.445035 -0.465812)
(0.0545445 0.746324 -0.170701)
(0.0940864 0.815923 -0.285278)
(0.150494 0.284816 -0.679958)
(0.120593 0.37956 -0.609751)
(0.124872 0.539151 -0.347605)
(0.176526 0.195232 -0.653)
(0.0935414 0.767946 -0.289969)
(0.144205 0.700731 -0.352172)
(0.144479 0.73779 -0.365691)
(0.185971 0.336981 -0.751926)
(0.176991 0.293302 -0.630199)
(0.00911108 0.575055 -0.326846)
(0.0144147 0.865085 -0.188368)
(-0.110908 0.784267 -0.404048)
(0.275992 0.659942 -0.341184)
(0.247761 0.657624 -0.38543)
(0.152991 0.593695 -0.318675)
(0.0228968 0.793383 -0.0080553)
(0.0679586 0.422033 -0.38917)
(0.076373 0.450645 -0.421282)
(0.10833 0.444405 -0.477587)
(0.199617 0.71976 -0.297175)
(0.206638 0.205114 -0.617418)
(-0.0368078 0.745843 -0.291219)
(-0.0856576 0.758684 -0.139048)
(9.01272e-05 0.444642 -0.212447)
(0.249424 0.385675 -0.515185)
(0.218193 0.127576 -0.519789)
(0.227279 0.108767 -0.548779)
(0.0624353 0.603557 -0.414126)
(0.0814201 0.630538 -0.526734)
(0.122317 0.413153 -0.716416)
(0.0324778 0.705853 -0.442772)
(0.182618 0.485522 -0.449999)
(0.202762 0.108189 -0.604911)
(0.164032 0.114898 -0.599065)
(0.138081 0.170337 -0.650237)
(0.147032 0.184504 -0.66643)
(0.170273 0.642528 -0.599488)
(0.0691541 0.448199 -0.373638)
(0.153056 0.477958 -0.564965)
(0.106416 0.439771 -0.470722)
(0.212633 0.401721 -0.505659)
(-0.0215325 0.78366 -0.0706531)
(0.104132 0.730112 -0.172629)
(0.109652 0.791036 -0.323614)
(0.125301 0.762705 -0.396311)
(0.0784697 0.6184 -0.299094)
(-0.0470927 0.533264 -0.41461)
(0.052771 0.491318 -0.468412)
(0.180772 0.170277 -0.672299)
(0.0494755 0.623657 -0.278562)
(0.110479 0.36304 -0.676658)
(0.122005 0.195412 -0.548029)
(0.1118 0.2839 -0.648391)
(0.150143 0.442713 -0.398271)
(-0.0402573 0.627077 -0.292335)
(0.150001 0.364262 -0.602338)
(0.0686569 0.378645 -0.566549)
(0.00525507 0.681359 -0.354233)
(-0.0434415 0.649059 -0.198526)
(0.158902 0.152967 -0.60583)
(0.059035 0.514449 -0.555427)
(0.0955513 0.492521 -0.622667)
(0.273408 0.381582 -0.710268)
(0.275342 0.612623 -0.400775)
(0.14081 0.779351 -0.459026)
(0.161476 0.793673 -0.304915)
(0.0515801 0.716567 -0.0558902)
(0.10481 0.652335 -0.104439)
(0.139302 0.229513 -0.637886)
(0.116706 0.276868 -0.6145)
(0.043513 0.876698 -0.103209)
(0.101487 0.391611 -0.617327)
(0.130104 0.515223 -0.353555)
(0.261985 0.154313 -0.66129)
(0.171619 0.498963 -0.549793)
(0.124368 0.219723 -0.616118)
(0.165344 0.252075 -0.653337)
(0.174151 0.212601 -0.723733)
(0.11813 0.861613 -0.440829)
(0.109797 0.837813 -0.473345)
(0.134075 0.833406 -0.177223)
(0.0608452 0.82929 -0.284199)
(0.190124 0.37362 -0.593541)
(0.185511 0.376433 -0.517029)
(0.279463 0.249797 -0.749176)
(-0.0476422 0.793783 -0.17644)
(0.17772 0.451075 -0.567531)
(0.125792 0.465837 -0.54903)
(0.144234 0.427965 -0.532742)
(0.230699 0.399618 -0.649572)
(0.150309 0.462476 -0.576282)
(0.195442 0.413192 -0.497682)
(0.111677 0.669081 -0.354569)
(0.0588642 0.576946 -0.464454)
(0.171223 0.42768 -0.682334)
(0.0618884 0.50152 -0.458339)
(0.100528 0.263801 -0.598792)
(0.0227569 0.557784 -0.508064)
(0.128776 0.344464 -0.659521)
(0.0967194 0.389673 -0.621271)
(0.0884758 0.779663 -0.368071)
(0.143197 0.319436 -0.740079)
(0.160627 0.278714 -0.72077)
(0.159086 0.126175 -0.693642)
(-0.0561015 0.627264 -0.561063)
(-0.0535917 0.599053 -0.56681)
(-0.0735121 0.542743 -0.555913)
(-6.08037e-05 0.53904 -0.63425)
(-0.00323358 0.852822 -0.124769)
(0.195372 0.447009 -0.432537)
(0.0330644 0.443057 -0.504585)
(0.204441 0.342052 -0.408562)
(0.129593 0.400924 -0.471053)
(-0.00120336 0.545343 -0.253824)
(0.158866 0.693565 -0.513767)
(0.0933512 0.436361 -0.567182)
(0.258122 0.180829 -0.642845)
(-0.0365513 0.615146 -0.262888)
(0.210815 0.355246 -0.640885)
(0.13955 0.611682 -0.256132)
(0.059299 0.474374 -0.492554)
(0.0637619 0.467426 -0.522554)
(0.0840367 0.494496 -0.533094)
(0.0637857 0.560526 -0.282542)
(0.130203 0.666958 -0.141127)
(0.153379 0.649626 -0.241159)
(-0.134965 0.824373 -0.345575)
(0.07377 0.250986 -0.556767)
(0.0839196 0.309832 -0.605929)
(0.248304 0.60376 -0.454196)
(0.289205 0.370274 -0.716379)
(0.255094 0.393774 -0.661806)
(0.196632 0.418529 -0.504992)
(-0.0203554 0.677808 -0.558697)
(-0.131635 0.53986 -0.47807)
(-0.00209329 0.512478 -0.587239)
(0.0479347 0.568633 -0.355244)
(0.188083 0.39259 -0.430714)
(0.0377984 0.445116 -0.449489)
(0.0989856 0.578947 -0.27546)
(0.197414 0.502991 -0.495346)
(-0.0597897 0.853298 -0.233064)
(-0.161264 0.73334 -0.364497)
(-0.157982 0.682588 -0.399127)
(0.250753 0.167509 -0.595338)
(0.220525 0.172226 -0.503881)
(0.100857 0.285989 -0.575596)
(0.158795 0.29652 -0.693964)
(0.231795 0.514269 -0.589464)
(0.108955 0.419665 -0.595058)
(0.169713 0.449315 -0.405609)
(0.183137 0.445506 -0.392243)
(0.166604 0.433519 -0.43333)
(0.173671 0.441256 -0.454215)
(0.145211 0.587564 -0.411273)
(0.152135 0.613803 -0.39943)
(0.178693 0.569842 -0.402403)
(0.18742 0.27142 -0.68877)
(0.140344 0.236037 -0.535573)
(0.199576 0.454341 -0.51342)
(0.209745 0.199732 -0.627927)
(0.109558 0.611813 -0.490236)
(0.239821 0.197798 -0.620683)
(0.195336 0.206771 -0.546915)
(0.230747 0.142982 -0.546301)
(0.219176 0.171866 -0.509765)
(0.228606 0.185305 -0.521297)
(0.265752 0.190239 -0.672496)
(0.28739 0.360038 -0.567806)
(0.279308 0.389101 -0.675453)
(-0.0128167 0.59507 -0.380858)
(0.0072505 0.525903 -0.377564)
(0.280391 0.53355 -0.507421)
(0.267954 0.569894 -0.571012)
(0.032801 0.659265 -0.413645)
(0.24193 0.177975 -0.550752)
(0.227014 0.307459 -0.511819)
(0.00306472 0.514969 -0.451345)
(0.00791012 0.545369 -0.426929)
(0.0106737 0.498565 -0.442461)
(0.0837836 0.757158 -0.296298)
(-0.0320026 0.864765 -0.15521)
(0.156413 0.6385 -0.316346)
(0.0128876 0.548685 -0.34425)
(0.289154 0.232056 -0.633852)
(0.283338 0.20331 -0.727601)
(0.267496 0.197321 -0.59991)
(0.196269 0.423606 -0.514102)
(0.185738 0.399273 -0.500008)
(0.0790537 0.565313 -0.222746)
(0.11555 0.64789 -0.247782)
(0.085986 0.578394 -0.181113)
(0.0925945 0.668994 -0.278455)
(0.280613 0.456007 -0.543996)
(0.27599 0.36391 -0.572245)
(-0.240911 0.81727 -0.173286)
(0.104266 0.384737 -0.631555)
(0.0603904 0.441437 -0.520725)
(0.235013 0.173999 -0.583101)
(0.153505 0.259764 -0.52071)
(0.186239 0.307332 -0.582214)
(0.187456 0.853893 -0.0523424)
(0.192062 0.806735 -0.0804325)
(0.0996758 0.306277 -0.593695)
(0.0470064 0.36226 -0.545156)
(0.0850828 0.371491 -0.625127)
(0.0449209 0.298094 -0.510308)
(0.182826 0.169871 -0.632605)
(0.17916 0.171225 -0.593718)
(0.179855 0.127054 -0.552265)
(0.101251 0.616545 -0.477046)
(0.0954189 0.605441 -0.517745)
(0.0691895 0.542258 -0.53994)
(0.0386528 0.513892 -0.504154)
(0.0622208 0.534076 -0.4943)
(0.0929068 0.61861 -0.502996)
(0.0985247 0.591336 -0.513345)
(0.109336 0.570246 -0.485094)
(-0.0466116 0.60964 -0.341972)
(-0.0309065 0.661707 -0.247824)
(7.07268e-05 0.532399 -0.441248)
(-0.0163572 0.67855 -0.307129)
(0.0190504 0.710919 -0.384466)
(0.0374232 0.612797 -0.465327)
(0.156663 0.10477 -0.556723)
(0.17936 0.127224 -0.673369)
(0.16493 0.190934 -0.597625)
(0.0963762 0.773135 -0.250191)
(0.224332 0.263419 -0.592689)
(0.140942 0.543639 -0.347206)
(0.237808 0.551905 -0.177517)
(0.172614 0.587074 -0.253458)
(0.198362 0.573811 -0.203847)
(0.200977 0.45898 -0.378806)
(0.242383 0.142676 -0.596362)
(0.234816 0.125579 -0.541223)
(0.177172 0.0975658 -0.596101)
(0.182249 0.0698568 -0.495959)
(0.224724 0.170188 -0.626865)
(-0.00243362 0.770608 -0.265269)
(0.00804266 0.730387 -0.338926)
(0.0498039 0.733629 -0.472687)
(0.219101 0.28149 -0.619961)
(0.119328 0.317524 -0.541008)
(0.119135 0.639073 -0.281904)
(0.134041 0.669951 -0.139441)
(0.12524 0.630743 -0.120492)
(0.145774 0.626379 -0.497221)
(0.057049 0.660615 -0.37313)
(0.15381 0.547095 -0.305281)
(0.178309 0.274605 -0.684928)
(0.188096 0.271614 -0.747395)
(0.213608 0.257705 -0.625911)
(0.236389 0.190488 -0.678943)
(0.219675 0.307569 -0.504909)
(0.0567381 0.408561 -0.723325)
(0.166194 0.363614 -0.515261)
(0.106291 0.277068 -0.624836)
(0.0995878 0.275627 -0.57695)
(0.0563625 0.699707 -0.181013)
(0.114166 0.729139 -0.33444)
(0.142165 0.682376 -0.367843)
(0.0262405 0.728484 -0.238007)
(0.0980454 0.659548 -0.23435)
(0.0972629 0.702023 -0.225752)
(0.0856855 0.684776 -0.276057)
(0.158888 0.566124 -0.314166)
(0.155227 0.511256 -0.294183)
(0.17772 0.394913 -0.452509)
(-0.026169 0.707434 -0.332796)
(-0.0499218 0.673966 -0.248683)
(-0.0189225 0.733747 -0.328583)
(-0.0426437 0.703678 -0.293996)
(-0.0853724 0.714212 -0.127989)
(-0.0219514 0.755174 -0.271055)
(-0.0395188 0.776042 -0.0310087)
(0.0377801 0.815382 -0.372857)
(-0.0266892 0.74499 -0.122656)
(0.112056 0.852492 -0.112991)
(-0.0243657 0.788962 -0.120125)
(0.0192548 0.822289 -0.216828)
(-0.0102295 0.790006 -0.272947)
(-0.03649 0.717412 -0.225738)
(-0.0709849 0.689685 -0.0864064)
(-0.0321242 0.79622 -0.243395)
(-0.0421158 0.720911 -0.225424)
(0.244179 0.209041 -0.654636)
(0.167826 0.584022 -0.267186)
(0.134803 0.451266 -0.631575)
(0.128185 0.46535 -0.614544)
(0.164073 0.496197 -0.704452)
(0.0560825 0.858001 -0.0268323)
(0.159059 0.152051 -0.771036)
(0.0583735 0.662147 -0.263502)
(0.135442 0.482934 -0.201234)
(0.134626 0.683717 -0.401238)
(0.155607 0.180181 -0.579122)
(0.1356 0.42835 -0.459313)
(0.133476 0.427121 -0.400007)
(-0.000800499 0.423919 -0.624706)
(0.0261691 0.487143 -0.577941)
(0.0190961 0.466827 -0.39188)
(0.0349374 0.50916 -0.420385)
(0.114819 0.146103 -0.589603)
(0.129601 0.158551 -0.583692)
(0.13912 0.114894 -0.592641)
(0.211292 0.227219 -0.602012)
(0.18881 0.262332 -0.552468)
(0.125293 0.670606 -0.101282)
(-0.0339604 0.663908 -0.26118)
(0.135405 0.645134 -0.233839)
(-0.10738 0.741372 -0.430389)
(-0.0622483 0.757817 -0.457013)
(0.0698341 0.48255 -0.404458)
(0.0355614 0.526886 -0.401213)
(0.148293 0.569324 -0.331775)
(0.224165 0.781704 -0.158514)
(-0.11381 0.650539 -0.47459)
(0.100123 0.714731 -0.22914)
(0.130098 0.724798 -0.185694)
(0.237857 0.296576 -0.572952)
(0.230165 0.111297 -0.60185)
(0.027329 0.473808 -0.667255)
(-0.00745677 0.53855 -0.637818)
(0.119474 0.295684 -0.710399)
(0.142155 0.301631 -0.709323)
(0.173223 0.335422 -0.629203)
(0.0349733 0.550844 -0.479449)
(0.0523931 0.464818 -0.439161)
(0.0363544 0.457126 -0.449075)
(0.0208231 0.544226 -0.399795)
(0.0396702 0.513799 -0.461207)
(0.107415 0.26495 -0.721303)
(0.13036 0.227017 -0.745808)
(0.165575 0.218777 -0.794938)
(-0.0386922 0.810439 -0.277061)
(-0.0187077 0.782811 -0.416356)
(0.198644 0.353605 -0.506651)
(0.228205 0.545862 -0.436785)
(0.232652 0.25287 -0.56314)
(0.242131 0.251884 -0.589242)
(0.109617 0.642842 -0.281972)
(0.154574 0.653116 -0.44353)
(0.025763 0.698281 -0.394438)
(0.123944 0.67169 -0.326082)
(0.097645 0.723418 -0.311206)
(0.102687 0.740922 -0.357455)
(0.109492 0.724795 -0.268875)
(0.207353 0.334707 -0.526412)
(0.249327 0.759856 -0.25873)
(0.191835 0.30328 -0.528536)
(-0.0737122 0.667218 -0.235314)
(-0.0339261 0.584453 -0.228276)
(-0.0112448 0.583368 -0.249737)
(0.0418707 0.792187 -0.240058)
(-0.0277322 0.794978 -0.0767794)
(0.0323709 0.74771 -0.130329)
(0.159989 0.302182 -0.700442)
(0.235507 0.311115 -0.675254)
(0.26743 0.280306 -0.714174)
(0.192996 0.351559 -0.678149)
(0.228542 0.295148 -0.65365)
(0.248226 0.307083 -0.745268)
(0.234066 0.289893 -0.702943)
(0.186346 0.321738 -0.622529)
(0.170503 0.423931 -0.355689)
(0.201083 0.537965 -0.428727)
(0.164451 0.538986 -0.39762)
(0.0898197 0.335926 -0.743907)
(0.117496 0.562243 -0.53639)
(0.110985 0.577924 -0.51314)
(0.0222294 0.544126 -0.30145)
(0.0037659 0.539197 -0.275503)
(0.116677 0.496725 -0.632268)
(0.154117 0.512092 -0.638895)
(-0.0662272 0.796796 -0.123088)
(0.280823 0.562425 -0.529646)
(0.283211 0.549737 -0.397121)
(0.285535 0.625635 -0.404476)
(0.0302844 0.409478 -0.52284)
(0.291219 0.361355 -0.664819)
(0.2824 0.418759 -0.546179)
(0.291369 0.435077 -0.650653)
(0.305917 0.149206 -0.757395)
(0.226519 0.278723 -0.536663)
(0.20852 0.398274 -0.522831)
(0.157635 0.521195 -0.413007)
(0.172643 0.518365 -0.478482)
(0.154785 0.49605 -0.496912)
(0.0798318 0.520693 -0.544177)
(0.138583 0.538642 -0.444205)
(0.165951 0.488856 -0.407341)
(0.125831 0.52093 -0.382833)
(0.0521962 0.345596 -0.685043)
(0.0578849 0.371146 -0.703511)
(0.0912584 0.743007 -0.180423)
(0.0225594 0.714241 -0.362315)
(0.0688833 0.538525 -0.533398)
(0.218321 0.160468 -0.571947)
(-0.00192151 0.683015 -0.329503)
(0.161083 0.437001 -0.486438)
(0.158435 0.433776 -0.464244)
(-0.0429471 0.644586 -0.474805)
(0.195352 0.218114 -0.514493)
(0.165615 0.533347 -0.469104)
(0.153493 0.559959 -0.494786)
(0.166754 0.169533 -0.601991)
(0.116082 0.277855 -0.549908)
(0.186607 0.509524 -0.418841)
(0.0140799 0.72554 -0.334302)
(-0.00273976 0.585768 -0.333039)
(0.0038417 0.586504 -0.378759)
(0.110958 0.898959 -0.116017)
(0.181674 0.269846 -0.782513)
(0.177416 0.258552 -0.690892)
(0.073897 0.85076 -0.0511055)
(0.098102 0.683246 -0.239359)
(-0.0482345 0.627684 -0.283894)
(0.160099 0.157667 -0.670913)
(0.0378026 0.416723 -0.184218)
(0.156064 0.601158 -0.377554)
(0.272135 0.212792 -0.826625)
(0.319838 0.13561 -0.780885)
(-0.0125494 0.592061 -0.413202)
(-0.00396286 0.628373 -0.414139)
(0.1364 0.182366 -0.610807)
(-0.000283388 0.513388 -0.468303)
(0.209755 0.187189 -0.677304)
(0.110292 0.28568 -0.767688)
(-0.118423 0.7255 -0.405872)
(0.168215 0.599902 -0.373072)
(0.237342 0.274209 -0.776754)
(0.090351 0.385772 -0.535103)
(0.0846363 0.429596 -0.567503)
(0.0888316 0.409431 -0.57007)
(0.0369079 0.402563 -0.508987)
(0.0795651 0.399799 -0.517665)
(0.0468213 0.366719 -0.516129)
(0.0970741 0.38647 -0.569272)
(0.114687 0.372208 -0.51512)
(0.0623647 0.387742 -0.541874)
(0.200359 0.71084 -0.469171)
(0.223337 0.654241 -0.512127)
(0.299318 0.588534 -0.475379)
(0.263972 0.610148 -0.306789)
(0.254977 0.519025 -0.522889)
(0.274226 0.525452 -0.481667)
(0.27773 0.472114 -0.529705)
(0.283652 0.530814 -0.461532)
(-0.0587993 0.805932 -0.386143)
(0.136424 0.225755 -0.750658)
(0.124935 0.318539 -0.781306)
(0.0692508 0.570762 -0.354832)
(0.0318047 0.479404 -0.313098)
(0.0474554 0.510259 -0.325927)
(0.0382266 0.484724 -0.300177)
(0.0954653 0.537541 -0.37936)
(0.0438599 0.498104 -0.343155)
(0.0622751 0.474002 -0.34349)
(0.0263763 0.536906 -0.326126)
(0.0360293 0.497537 -0.297935)
(0.0687919 0.484529 -0.32835)
(0.0654306 0.273884 -0.50022)
(0.0619382 0.305706 -0.511747)
(0.109565 0.302145 -0.479001)
(0.011793 0.349878 -0.457016)
(0.0896302 0.359863 -0.559848)
(0.0595289 0.37707 -0.534906)
(0.048118 0.340297 -0.51425)
(0.0492264 0.345365 -0.509402)
(0.0198802 0.37812 -0.474799)
(0.075021 0.354093 -0.499741)
(0.0638971 0.382098 -0.514833)
(0.121804 0.405722 -0.577402)
(0.041463 0.423275 -0.520012)
(0.0840392 0.41034 -0.528152)
(0.0567662 0.412194 -0.473319)
(0.0752541 0.304429 -0.618213)
(0.136037 0.280282 -0.636042)
(0.112528 0.358578 -0.704348)
(0.00542848 0.775926 -0.162006)
(0.0755332 0.58309 -0.263653)
(0.045979 0.59517 -0.254102)
(0.0449817 0.565911 -0.21875)
(0.213613 0.343748 -0.503878)
(0.219512 0.344999 -0.543736)
(0.0713717 0.326417 -0.575445)
(-0.0550184 0.489126 -0.491288)
(0.0215906 0.491473 -0.543103)
(0.160652 0.145547 -0.666252)
(0.113658 0.453802 -0.426973)
(0.132522 0.665102 -0.207516)
(0.169857 0.776024 -0.392111)
(0.255832 0.637834 -0.406529)
(0.14074 0.315036 -0.67597)
(0.136621 0.458158 -0.469972)
(0.0212548 0.564602 -0.444005)
(0.0601136 0.677568 -0.416008)
(-0.0113446 0.585513 -0.411996)
(0.136138 0.177355 -0.635857)
(0.124195 0.550468 -0.227129)
(0.122385 0.544591 -0.269673)
(0.180627 0.129912 -0.540167)
(0.196367 0.143591 -0.608679)
(0.153168 0.144625 -0.553578)
(0.0783297 0.761397 -0.067465)
(0.245316 0.57826 -0.526373)
(0.21916 0.571711 -0.59347)
(0.133617 0.235908 -0.622171)
(0.12893 0.272446 -0.645967)
(0.116369 0.246392 -0.60372)
(0.0782856 0.637593 -0.261995)
(0.098331 0.503834 -0.499153)
(0.0673513 0.51085 -0.568384)
(-0.0127813 0.771408 -0.227348)
(-0.0364221 0.809573 -0.241511)
(-0.0113377 0.389914 -0.608597)
(-0.05607 0.832531 -0.298806)
(0.0367128 0.378972 -0.709444)
(0.23747 0.678586 -0.42419)
(0.257486 0.574472 -0.385744)
(0.131347 0.302702 -0.545725)
(0.123059 0.670121 -0.410663)
(0.0997294 0.672078 -0.476292)
(0.0732235 0.728234 -0.373826)
(-0.00625727 0.603385 -0.322468)
(-0.000199763 0.565908 -0.306784)
(0.0897067 0.734344 -0.357945)
(0.0734068 0.705882 -0.337732)
(-0.00452242 0.765085 -0.277438)
(0.167821 0.353783 -0.706025)
(0.299128 0.204086 -0.731786)
(0.00713514 0.472252 -0.321591)
(0.0389212 0.469842 -0.324862)
(0.0625689 0.521081 -0.339607)
(0.0556338 0.428856 -0.564118)
(0.0626782 0.41262 -0.586487)
(-0.089142 0.878217 -0.178835)
(0.0544204 0.50721 -0.562826)
(0.168755 0.485787 -0.402728)
(0.152496 0.452947 -0.446973)
(0.073383 0.381787 -0.52091)
(0.082931 0.819928 -0.258258)
(-0.199548 0.812704 -0.257487)
(-0.0646473 0.728588 -0.11404)
(0.0853069 0.341127 -0.486911)
(0.0224501 0.498299 -0.294099)
(0.195022 0.374887 -0.606403)
(0.150656 0.545041 -0.271715)
(0.114718 0.556924 -0.333592)
(0.0952791 0.542813 -0.292521)
(0.224216 0.201439 -0.865541)
(0.179583 0.395178 -0.55497)
(0.206303 0.482207 -0.534549)
(0.0990539 0.70672 -0.349065)
(0.125538 0.643959 -0.500797)
(0.155633 0.235633 -0.670427)
(0.0554315 0.524538 -0.484541)
(-0.24126 0.850764 -0.159256)
(0.084314 0.352888 -0.604987)
(0.109856 0.301624 -0.605601)
(0.190905 0.51 -0.436696)
(0.0281647 0.421784 -0.473003)
(0.0298389 0.460662 -0.489996)
(0.194966 0.31902 -0.534588)
(0.249335 0.177466 -0.590075)
(0.17587 0.353487 -0.561088)
(-0.109856 0.752765 -0.279016)
(0.121369 0.505968 -0.467352)
(0.226878 0.382129 -0.539758)
(0.036162 0.439234 -0.515857)
(0.0320453 0.423651 -0.513984)
(0.0640343 0.448417 -0.585799)
(-0.00396898 0.506962 -0.635413)
(0.0500704 0.515396 -0.702156)
(0.00403177 0.41851 -0.663207)
(0.139599 0.260067 -0.61221)
(0.119962 0.310902 -0.555138)
(0.183617 0.523378 -0.408971)
(0.159075 0.41441 -0.33468)
(0.162201 0.420921 -0.361637)
(0.0397258 0.375755 -0.506671)
(0.056486 0.319891 -0.68907)
(0.118205 0.809247 -0.0761052)
(0.0251128 0.760654 -0.122663)
(0.218312 0.174636 -0.589359)
(0.16759 0.188972 -0.483871)
(0.156374 0.186042 -0.502937)
(0.175987 0.341207 -0.513879)
(0.198876 0.367741 -0.494805)
(-0.0954129 0.599518 -0.526179)
(-0.0572515 0.622788 -0.274316)
(0.125453 0.432421 -0.479498)
(-0.0847355 0.686574 -0.197746)
(-0.0961876 0.67343 -0.162799)
(0.0884649 0.351532 -0.468197)
(0.106027 0.392009 -0.514007)
(0.150384 0.200662 -0.78871)
(0.0464082 0.304834 -0.640957)
(0.115491 0.277872 -0.740717)
(0.0487932 0.281803 -0.482262)
(-0.0307446 0.564354 -0.225049)
(-0.0637048 0.600694 -0.199274)
(0.0633679 0.375622 -0.714733)
(0.230966 0.260162 -0.532903)
(0.138079 0.261791 -0.572843)
(0.214094 0.279068 -0.729193)
(0.263462 0.311503 -0.640784)
(0.216666 0.343795 -0.728102)
(-0.0869565 0.759138 -0.204802)
(0.226779 0.237092 -0.485841)
(0.240163 0.206615 -0.537394)
(0.225728 0.20105 -0.506301)
(0.227686 0.263099 -0.537406)
(0.228201 0.292368 -0.557934)
(0.00468398 0.651237 -0.381346)
(0.116736 0.642397 -0.147359)
(0.268686 0.56884 -0.460805)
(0.0527519 0.382164 -0.412217)
(0.0184826 0.520028 -0.580459)
(0.209363 0.7487 -0.34338)
(0.193014 0.474315 -0.646022)
(0.237261 0.238756 -0.56122)
(0.0859203 0.512654 -0.489091)
(0.162938 0.530578 -0.315505)
(0.135007 0.562688 -0.465964)
(-0.104753 0.571448 -0.548372)
(0.00505924 0.431774 -0.441467)
(-0.0672647 0.695563 -0.176469)
(0.196039 0.399201 -0.47246)
(0.0612565 0.438343 -0.505976)
(0.309576 0.156439 -0.720132)
(0.250799 0.678358 -0.346011)
(0.0554771 0.317666 -0.535098)
(0.219964 0.390189 -0.416954)
(0.19362 0.52311 -0.438707)
(0.00312087 0.585109 -0.551492)
(0.0769105 0.28506 -0.585827)
(-0.113779 0.74027 -0.391776)
(-0.110043 0.836052 -0.364705)
(-0.0245261 0.521358 -0.37835)
(-0.0278276 0.508838 -0.39383)
(0.247703 0.626648 -0.409727)
(0.0762771 0.408209 -0.553836)
(-0.0275785 0.529674 -0.369683)
(-0.0325763 0.567105 -0.351959)
(-0.0554925 0.543322 -0.315071)
(0.128046 0.121693 -0.554398)
(-0.12777 0.624453 -0.457151)
(-0.0949605 0.613034 -0.502525)
(0.140131 0.312381 -0.718195)
(0.149558 0.24598 -0.778035)
(0.0700002 0.343587 -0.567594)
(0.109589 0.258442 -0.627608)
(0.0379165 0.420872 -0.4606)
(0.171933 0.360622 -0.441979)
(0.0261749 0.460472 -0.403851)
(0.232612 0.345844 -0.701993)
(0.264465 0.378614 -0.574114)
(0.257237 0.382914 -0.554398)
(0.0646002 0.808194 -0.554138)
(0.250732 0.316747 -0.791792)
(0.191584 0.536011 -0.667043)
(0.185524 0.355084 -0.575708)
(0.280215 0.164609 -0.89394)
(0.163367 0.331913 -0.738562)
(0.0579324 0.58021 -0.327143)
(0.130656 0.765597 -0.401013)
(0.155087 0.439423 -0.702323)
(0.178946 0.628932 -0.819221)
(-0.132353 0.834327 -0.00566338)
(0.159028 0.423901 -0.55214)
(0.279327 0.292744 -0.98038)
(0.193109 0.125375 -0.522359)
(0.213485 0.308299 -0.78202)
(0.266431 0.145314 -0.897297)
(0.286032 0.178887 -0.963998)
(0.145898 0.221536 -0.620322)
(0.0782644 0.549489 -0.538618)
(0.22785 0.360635 -0.873734)
(0.183176 0.420696 -0.736652)
(0.152824 0.676852 -0.470841)
(0.119014 0.661204 -0.70988)
(0.224071 0.356765 -0.861838)
(0.143667 0.608411 -0.513747)
(0.0814998 0.766819 -0.262661)
(0.0629104 0.237701 -0.627595)
(0.000102657 0.666853 -0.413875)
(0.0912608 0.81062 -0.437169)
(0.0736302 0.645413 -0.467992)
(0.107802 0.782956 -0.550332)
(0.0323119 0.776314 -0.434021)
(0.0565196 0.816422 -0.532628)
(0.117357 0.706609 -0.571524)
(0.205421 0.243873 -0.463984)
(0.163174 0.310947 -0.622644)
(0.212162 0.348476 -0.681404)
(0.220557 0.252792 -0.598587)
(0.247194 0.291371 -0.782229)
(0.230732 0.46881 -0.676401)
(0.157494 0.323488 -0.611081)
(0.214789 0.357332 -0.490449)
(0.18774 0.348266 -0.560084)
(0.224754 0.451075 -0.784439)
(0.193589 0.481838 -0.731077)
(0.18719 0.361107 -0.453819)
(0.0782374 0.828854 -0.517596)
(-0.0116357 0.768611 -0.3523)
(0.0681853 0.910121 -0.140463)
(0.237805 0.227418 -0.527273)
(0.208789 0.403307 -0.494327)
(0.216177 0.326092 -0.583726)
(0.236202 0.296103 -0.607006)
(0.184798 0.167531 -0.759447)
(0.209822 0.210557 -0.848362)
(0.21406 0.308368 -0.561598)
(0.26834 0.259793 -0.869992)
(0.22929 0.174739 -0.578977)
(0.274853 0.168708 -0.828649)
(0.224937 0.309851 -0.575896)
(0.259713 0.255168 -0.817786)
(0.265135 0.19052 -0.689741)
(0.267828 0.217156 -0.906286)
(0.267504 0.183594 -0.811409)
(0.120165 0.312979 -0.657514)
(0.117865 0.620693 -0.38267)
(-0.000879372 0.685567 -0.280371)
(0.100591 0.733312 -0.390295)
(0.0856575 0.741444 -0.423992)
(0.195565 0.584952 -0.451457)
(-0.13936 0.806981 0.0414269)
(0.105695 0.733167 -0.310999)
(0.157942 0.596106 -0.351502)
(0.103688 0.766619 -0.323211)
(0.136937 0.604273 -0.202965)
(0.146909 0.730327 -0.491063)
(0.130393 0.676667 -0.426276)
(0.0199451 0.569237 -0.309335)
(0.0545463 0.617465 -0.265829)
(0.280205 0.189736 -0.688244)
(0.136137 0.442274 -0.795535)
(0.201645 0.461781 -0.512715)
(0.222801 0.499811 -0.792523)
(0.201385 0.484593 -0.447263)
(0.203312 0.579672 -0.681079)
(0.197888 0.580871 -0.641227)
(-0.0321432 0.898494 -0.233638)
(0.1699 0.687426 -0.753229)
(0.173245 0.654133 -0.607037)
(0.133243 0.843222 -0.430973)
(0.152845 0.748074 -0.62085)
(0.13911 0.727608 -0.592473)
(0.155999 0.714638 -0.547754)
(0.134451 0.807231 -0.600616)
(-0.00185052 0.718515 -0.599168)
(0.16958 0.511316 -0.812282)
(0.151012 0.605442 -0.754982)
(0.0250702 0.501418 -0.70421)
(0.0322355 0.661751 -0.643744)
(0.155111 0.725958 -0.563325)
(0.16801 0.632061 -0.671007)
(0.23268 0.520717 -0.882015)
(0.184521 0.680353 -0.770427)
(0.208332 0.594662 -0.686615)
(0.199201 0.573777 -0.74455)
(0.177101 0.632403 -0.783036)
(0.144666 0.73187 -0.658492)
(0.109257 0.871097 -0.448736)
(0.0507019 0.804876 -0.503388)
(-0.0114459 0.720016 -0.451925)
(-0.0495054 0.86614 -0.33913)
(-0.0842961 0.741056 -0.459527)
(0.0186429 0.494811 -0.412765)
(0.0452146 0.526472 -0.512665)
(0.104081 0.352271 -0.572436)
(0.144346 0.335653 -0.652806)
(0.30285 0.159867 -0.997369)
(0.300229 0.236238 -0.996765)
(0.294203 0.248215 -0.998148)
(0.257074 0.143192 -0.853664)
(0.23633 0.102279 -0.734659)
(0.174761 0.101607 -0.588527)
(0.197395 0.0754719 -0.604044)
(0.272308 0.200464 -0.912617)
(0.253212 0.313412 -0.887524)
(0.193883 0.208652 -0.584461)
(0.24271 0.259227 -0.852023)
(0.261741 0.227887 -0.835652)
(0.252918 0.2871 -0.817211)
(0.218018 0.219566 -0.769238)
(0.187067 0.319528 -0.775248)
(0.24262 0.277244 -0.847789)
(0.246099 0.190476 -0.883082)
(0.135998 0.319634 -0.639168)
(0.172245 0.198558 -0.730459)
(0.23099 0.312174 -0.854702)
(0.271236 0.271647 -0.932015)
(0.27463 0.254903 -0.91692)
(0.268565 0.212478 -0.914514)
(0.257723 0.311547 -0.956387)
(0.284715 0.259476 -0.9875)
(0.249665 0.229637 -0.896839)
(0.248213 0.150452 -0.778197)
(0.15719 0.148212 -0.481988)
(0.186101 0.207294 -0.721289)
(0.1564 0.134482 -0.539422)
(0.150348 0.216912 -0.687107)
(0.0863441 0.797321 -0.528171)
(0.0788364 0.727816 -0.573912)
(0.0654135 0.606449 -0.571942)
(-0.00150079 0.694223 -0.406318)
(0.254185 0.438465 -0.799763)
(0.186733 0.257204 -0.790239)
(0.270335 0.337893 -0.928131)
(0.270215 0.391094 -0.639833)
(0.215796 0.355791 -0.623499)
(0.271739 0.262197 -0.913277)
(0.166905 0.603593 -0.792069)
(0.159728 0.514601 -0.681227)
(0.238709 0.413504 -0.845922)
(0.171269 0.483459 -0.773973)
(0.204603 0.560099 -0.773103)
(0.195643 0.503622 -0.737488)
(0.206855 0.443731 -0.864023)
(0.0616866 0.4841 -0.526642)
(0.205657 0.553087 -0.448041)
(0.165945 0.618823 -0.626634)
(0.170656 0.556833 -0.703261)
(0.135303 0.457826 -0.700644)
(0.144867 0.568318 -0.685762)
(0.147402 0.578019 -0.764192)
(0.0217969 0.507676 -0.494487)
(0.0645948 0.583922 -0.597658)
(0.122155 0.610028 -0.610949)
(0.228164 0.502598 -0.907996)
(0.250041 0.400219 -0.909665)
(0.233634 0.381663 -0.798676)
(0.211453 0.438901 -0.868335)
(0.262128 0.390116 -0.95477)
(0.252173 0.36356 -0.953968)
(0.19304 0.472842 -0.786504)
(0.175841 0.276722 -0.577596)
(0.033812 0.888003 -0.44116)
(0.134484 0.789316 -0.37634)
(0.218679 0.659613 -0.20854)
(0.0977316 0.821506 -0.468286)
(0.287633 0.418015 -0.65421)
(0.131272 0.462737 -0.636025)
(0.145451 0.407377 -0.661226)
(0.138727 0.469487 -0.504114)
(0.151219 0.541154 -0.569208)
(0.134605 0.446338 -0.442225)
(0.133144 0.417593 -0.4677)
(0.298443 0.192949 -0.706374)
(0.297902 0.232648 -0.610284)
(0.305982 0.226581 -0.79707)
(0.14688 0.742498 -0.639643)
(0.113237 0.734445 -0.707315)
(0.112665 0.775002 -0.647347)
(0.111557 0.767679 -0.671009)
(0.110985 0.773128 -0.60996)
(0.102835 0.776894 -0.63846)
(0.114728 0.770254 -0.679353)
(0.254549 0.360259 -0.871265)
(0.23343 0.390456 -0.731228)
(0.251395 0.349538 -0.869075)
(0.246138 0.370728 -0.773228)
(0.248188 0.361886 -0.823707)
(0.242065 0.366317 -0.786775)
(0.248489 0.361506 -0.811591)
(0.145865 0.489755 -0.560668)
(0.179344 0.41997 -0.498289)
(0.144608 0.473852 -0.597694)
(0.180731 0.462942 -0.591081)
(0.173534 0.520002 -0.613527)
(0.187057 0.521199 -0.615375)
(0.161819 0.461652 -0.578127)
(-0.008434 0.84808 -6.74365e-06)
(0.205233 0.434749 -0.663547)
(0.250679 0.323575 -0.77198)
(0.206428 0.430671 -0.722752)
(0.23329 0.353307 -0.749307)
(0.199327 0.417834 -0.545369)
(0.196589 0.383931 -0.531705)
(0.238315 0.374599 -0.766427)
(0.215991 0.254317 -0.615884)
(0.27405 0.123885 -0.834539)
(0.28286 0.118978 -0.855513)
(0.284838 0.122386 -0.897629)
(0.277064 0.151938 -0.859712)
(0.275406 0.162147 -0.863455)
(0.287262 0.105821 -0.8938)
(0.296014 0.142555 -0.939462)
(0.295953 0.111636 -0.931649)
(0.29881 0.108398 -0.944352)
(0.202684 0.25868 -0.53576)
(0.0714552 0.415494 -0.663612)
(0.0953325 0.293981 -0.736862)
(0.0955934 0.805098 -0.403002)
(0.114007 0.611609 -0.116291)
(-0.0373862 0.795562 -0.158764)
(0.0609095 0.445338 -0.407158)
(0.0624981 0.467545 -0.372637)
(0.0582425 0.514143 -0.384295)
(0.0987857 0.566736 -0.379977)
(0.0759143 0.516985 -0.400244)
(0.106707 0.670493 -0.347858)
(0.0240569 0.695134 -0.279914)
(0.12899 0.649142 -0.325496)
(0.0474664 0.684046 -0.360178)
(-0.0154134 0.820738 -0.113713)
(0.0501334 0.801467 -0.436197)
(0.0614517 0.793108 -0.408018)
(0.088973 0.815331 -0.397095)
(0.123737 0.796806 -0.449257)
(-0.0180223 0.795436 -0.327753)
(0.166883 0.603112 -0.739674)
(0.204559 0.488277 -0.529236)
(0.192832 0.574088 -0.761541)
(0.129895 0.486495 -0.673482)
(0.125125 0.498531 -0.687715)
(0.188341 0.559538 -0.724387)
(0.208961 0.552351 -0.856618)
(0.178242 0.658758 -0.797525)
(0.201578 0.590761 -0.786928)
(0.179754 0.632466 -0.785141)
(0.204148 0.597905 -0.855197)
(0.20456 0.608956 -0.842154)
(0.178877 0.636797 -0.805175)