/*--------------------------------*- C++ -*----------------------------------*\
| =========                 |                                                 |
| \\      /  F ield         | OpenFOAM: The Open Source CFD Toolbox           |
|  \\    /   O peration     | Version:  v1612+                                |
|   \\  /    A nd           | Web:      www.OpenFOAM.com                      |
|    \\/     M anipulation  |                                                 |
\*---------------------------------------------------------------------------*/
FoamFile
{
    version     2.0;
    format      ascii;
    class       surfaceScalarField;
    location    "150";
    object      phi;
}
// * * * * * * * * * * * * * * * * * * * * * * * * * * * * * * * * * * * * * //

dimensions      [0 3 -1 0 0 0 0];

internalField   nonuniform List<scalar> 
41887
(
-2.12066e-09
2.74376e-09
-1.05942e-08
9.97116e-09
-8.2667e-09
2.13438e-09
8.58601e-09
-2.45367e-09
-5.60439e-09
4.73151e-09
3.97609e-09
-3.10311e-09
5.94022e-09
7.63558e-09
-5.55883e-10
-1.21635e-08
1.06342e-08
7.46958e-09
-2.60345e-09
9.0594e-09
1.31986e-08
7.92366e-09
-2.61006e-09
-1.98691e-09
1.52312e-08
-2.70086e-09
7.72624e-09
1.60193e-08
-4.80768e-09
8.86295e-09
-6.75394e-11
-7.38018e-09
5.90355e-09
-1.10624e-08
1.2539e-08
3.35672e-09
-3.80773e-09
-6.92921e-09
6.27987e-09
-5.02751e-09
3.35155e-09
-4.60391e-09
8.08658e-09
-1.22786e-09
-5.7886e-10
-1.39057e-09
-1.65276e-09
6.39997e-09
-9.23125e-10
-9.76919e-09
5.6648e-09
6.08589e-09
1.07997e-08
-3.68203e-09
-1.32036e-08
3.67177e-09
1.02344e-09
4.61121e-09
9.86024e-09
-3.75187e-09
6.70488e-09
5.13358e-09
-1.18657e-10
-2.81679e-10
4.94198e-09
-2.05253e-09
3.81544e-09
-7.44261e-10
7.29887e-10
4.62559e-09
-3.83029e-09
3.79509e-09
-7.09063e-10
3.64892e-09
-8.25406e-09
-3.00034e-10
-1.90264e-09
-7.44902e-09
8.54391e-09
8.07673e-10
2.09125e-10
-9.1111e-09
6.99943e-09
-5.59694e-09
5.43495e-09
3.71156e-10
-8.69671e-10
-3.7717e-09
4.75341e-09
-1.12203e-10
-4.1758e-09
-6.08183e-09
4.66058e-09
-4.77664e-09
-2.68917e-10
-1.74035e-09
-7.28552e-09
-8.51866e-11
-6.67011e-09
-2.51925e-09
9.31238e-09
4.16463e-10
-1.14778e-09
-8.58131e-09
6.18319e-09
6.26899e-10
2.50222e-09
-1.11438e-09
1.46297e-09
5.83451e-09
-4.81821e-09
-6.79171e-11
7.49026e-09
-6.31145e-09
-5.9555e-09
-3.15028e-10
1.72332e-09
-1.01166e-08
4.07336e-09
-8.07306e-09
-1.62716e-09
-4.86655e-10
-5.47939e-09
8.69369e-10
-8.47001e-09
-8.21939e-09
1.42117e-09
4.65193e-09
6.26785e-10
-3.10755e-09
-2.17118e-09
7.78357e-10
1.26045e-09
2.61305e-09
4.68469e-09
7.40597e-09
-7.56613e-09
-4.52441e-09
2.52816e-10
5.2306e-09
-7.98586e-10
-5.09117e-09
2.89989e-09
2.96968e-09
-4.10019e-09
-7.38138e-10
-8.00721e-09
3.36815e-09
5.89967e-09
-2.41584e-09
-4.96475e-09
4.01179e-09
-2.56663e-09
-3.86119e-09
8.19739e-09
-6.32286e-09
2.13724e-09
1.33209e-08
-3.33679e-09
-2.57801e-09
3.15383e-09
4.07884e-09
6.08843e-09
3.53717e-09
2.69885e-09
1.05427e-09
5.72061e-09
1.48354e-10
6.71295e-09
2.91778e-09
-9.77902e-09
-7.82108e-09
3.84577e-09
-2.34773e-09
-1.02393e-08
-9.30881e-09
-4.66989e-09
1.06418e-08
-3.07458e-09
-4.69108e-09
5.54594e-09
5.20081e-09
-6.05399e-09
-2.6225e-10
7.89359e-10
5.96406e-09
-1.53395e-08
8.58596e-09
7.02401e-09
1.3358e-08
-1.95924e-08
2.28159e-09
3.48267e-09
-5.71601e-09
-4.76295e-11
5.82237e-09
-4.86155e-09
1.32087e-09
2.62253e-09
1.02243e-08
-4.12738e-09
-2.78991e-09
9.53965e-09
-2.28461e-09
1.63983e-09
-7.46499e-09
-4.54268e-09
9.21741e-09
-7.63981e-09
6.13879e-09
3.81345e-10
-7.20868e-09
-4.98244e-09
-3.71344e-09
2.97993e-09
-4.75573e-09
-5.12486e-10
2.85769e-10
-2.78403e-09
2.27661e-09
-3.20587e-09
-1.79821e-09
-5.74157e-09
-3.21918e-09
-1.77658e-08
5.64524e-09
-5.66153e-09
1.87356e-10
4.96156e-09
3.97829e-10
-7.85756e-09
-4.2232e-09
1.63824e-09
-1.03185e-08
7.49707e-09
-5.00547e-09
1.32929e-08
4.73289e-09
1.06909e-09
6.67029e-09
-7.64657e-09
5.97198e-09
2.74349e-09
1.53839e-08
5.0771e-09
5.57529e-09
-2.70465e-09
-7.94778e-09
2.47646e-11
9.40265e-09
-4.35029e-09
4.16184e-09
-3.35644e-09
5.33989e-09
-6.14545e-09
7.28907e-09
-3.10246e-09
3.39024e-09
2.98172e-09
-7.96635e-10
4.36387e-09
8.42904e-09
1.40574e-09
-7.46684e-09
-4.86184e-09
5.77148e-09
6.37932e-09
1.08111e-09
-6.03002e-10
-1.85999e-09
8.04286e-09
-1.06904e-09
-5.11384e-09
-4.17633e-12
-9.86962e-09
7.38365e-09
2.49017e-09
-1.43386e-09
7.16656e-09
-7.40348e-09
1.67072e-09
-5.25908e-09
3.73082e-09
9.43499e-11
-2.19352e-09
-4.86357e-09
5.19706e-09
4.96888e-09
-3.47206e-09
-3.41586e-09
4.66976e-09
-8.52315e-09
-6.20583e-09
-5.17272e-11
-3.70638e-09
1.40129e-08
-1.20413e-08
1.73488e-09
1.40157e-08
-1.64544e-08
-1.2676e-09
5.8768e-09
-2.97136e-09
1.11103e-08
3.25785e-09
1.66318e-08
-3.07223e-10
-1.12063e-09
-1.06133e-08
-2.74029e-09
-1.40214e-08
-8.28032e-09
4.49424e-09
8.14813e-10
1.58803e-09
5.67973e-09
1.10559e-10
-7.37819e-09
-8.41298e-09
8.88036e-09
-1.80169e-09
-9.21893e-09
4.9333e-10
1.3051e-09
3.88142e-09
1.21064e-08
-7.1058e-09
-1.7428e-09
3.70396e-09
-5.39506e-09
-2.10668e-09
5.84441e-09
-3.36724e-11
1.11667e-08
6.42018e-09
-4.64282e-09
-1.29439e-08
-7.03673e-09
1.96753e-08
-1.47172e-09
-1.3498e-08
1.26583e-08
-6.19698e-09
-9.25587e-09
1.19523e-08
-1.61944e-08
-1.60733e-08
5.71867e-09
-1.11666e-08
2.15211e-08
-1.67906e-08
1.76725e-09
-1.04985e-09
-1.57944e-08
-8.6121e-09
1.56607e-08
8.74571e-09
-9.85149e-10
-8.38913e-09
-5.72742e-09
-6.47286e-09
-6.62282e-09
1.21105e-08
-2.35422e-08
2.69124e-08
-9.84296e-09
-1.80343e-08
4.13567e-09
8.31836e-09
-1.88898e-09
5.52297e-09
4.61934e-09
1.63573e-08
-1.32444e-08
8.77549e-09
-1.71528e-08
2.16216e-08
4.66799e-10
6.25004e-09
-1.99612e-08
2.76345e-08
-1.31403e-08
4.9608e-09
-9.00175e-09
7.80079e-09
-1.59518e-08
4.51901e-09
-2.03051e-08
6.78444e-09
-9.89091e-09
3.96669e-09
9.95493e-10
4.92881e-09
-4.50732e-09
-1.41176e-09
-3.97177e-09
-9.62609e-09
4.2476e-09
9.34526e-09
9.60421e-09
-4.83981e-09
-9.27168e-09
1.21435e-09
-1.23612e-09
-1.01578e-08
5.59077e-09
5.56259e-09
-5.62381e-09
-5.94566e-09
-6.46339e-10
-3.6266e-09
8.52063e-09
-1.13242e-08
1.01769e-08
2.36179e-09
-8.29565e-09
-5.72107e-09
2.69271e-09
-1.71928e-10
-1.29634e-08
-4.12523e-09
9.06976e-09
1.04274e-09
5.50762e-09
-1.09298e-08
1.17594e-08
-6.55054e-09
-1.67255e-08
8.67687e-09
1.16432e-08
-1.00581e-08
3.42353e-09
-5.00907e-09
-1.66974e-09
6.93094e-09
6.3817e-09
4.75289e-09
-8.45193e-09
-1.51397e-09
5.21237e-09
-8.83421e-09
2.74982e-09
1.0837e-08
1.69645e-08
-3.81597e-09
3.53687e-09
-1.66858e-08
8.98946e-09
6.30518e-09
-5.54056e-09
5.69543e-09
-1.35364e-08
-4.56173e-10
3.37018e-11
-1.39079e-08
-5.81234e-09
4.18806e-09
8.55505e-09
-2.76122e-09
3.72359e-10
-4.05386e-09
-7.15909e-09
3.27788e-09
7.93475e-09
-1.15078e-08
5.93968e-09
1.18394e-08
-1.64848e-09
-3.30319e-09
-6.88799e-09
-3.7053e-09
8.3856e-09
1.02157e-08
-3.7742e-10
-9.62218e-09
3.056e-09
-9.52274e-09
-9.64907e-09
-3.50729e-09
2.54551e-09
-9.38433e-09
6.87235e-09
-7.48098e-09
1.66737e-08
-7.20104e-09
5.257e-10
-9.99829e-09
2.40033e-09
1.2038e-08
2.23528e-09
-9.44565e-09
8.39964e-09
3.44643e-09
-4.40714e-09
-1.22395e-08
3.42003e-09
8.71846e-09
-1.00635e-10
-4.63427e-09
-6.6877e-09
1.18476e-08
-1.42568e-08
-5.98576e-09
6.29666e-09
1.39461e-08
5.93103e-09
-7.1339e-09
-1.30536e-08
-4.80454e-11
-6.46461e-12
-3.37836e-09
-9.3795e-09
8.12372e-09
-1.49195e-08
-5.94119e-09
2.75636e-09
6.60488e-09
1.63314e-09
8.25357e-10
-4.76108e-09
-1.63412e-09
9.1515e-09
3.16866e-09
8.49968e-09
-3.72063e-09
-6.41312e-09
4.86931e-09
4.38379e-09
-8.88722e-09
-3.65924e-10
5.28277e-09
-7.34842e-09
6.93497e-09
5.39373e-09
-1.97061e-09
9.60813e-10
6.71333e-10
1.00052e-08
-2.81909e-09
-2.60871e-09
-1.92066e-09
-4.28784e-09
-7.41848e-09
4.59852e-09
1.65594e-09
-1.05423e-08
5.66893e-09
6.04916e-10
-1.67528e-09
-5.58154e-09
1.03699e-08
-4.11701e-09
-1.88321e-09
-6.07925e-09
-1.05729e-09
7.74149e-09
6.32529e-09
-1.07486e-08
-1.16694e-09
4.88351e-09
-7.82982e-09
-2.69571e-09
1.26496e-08
-2.12405e-09
-1.96705e-09
9.07544e-09
-1.49382e-08
-6.05261e-09
9.94672e-09
-6.58982e-09
6.68283e-09
-1.47025e-08
1.23906e-09
1.10351e-08
-3.19874e-09
1.52722e-08
-1.53753e-08
1.27527e-08
3.23728e-10
1.87516e-09
1.30734e-08
2.18724e-09
1.46495e-08
-1.6513e-08
-9.11221e-09
-1.7731e-09
-2.63058e-10
1.11484e-08
-2.57368e-09
-5.77741e-09
-7.61124e-10
8.57189e-09
-6.50004e-10
-6.78354e-09
3.97687e-10
9.68037e-09
-3.29452e-09
1.23081e-08
-4.93506e-09
1.24102e-08
-1.14178e-08
1.31543e-08
8.52009e-10
-2.58846e-09
-3.98906e-09
-1.2603e-08
9.40172e-09
4.14033e-09
-9.39111e-10
-4.15636e-09
4.29427e-09
-1.27412e-08
6.84797e-09
-3.39062e-10
-1.06654e-08
7.68476e-09
4.41985e-10
-1.279e-09
-8.23385e-09
8.71208e-09
8.92335e-09
-6.09109e-11
-3.87873e-09
8.80115e-09
3.02381e-09
5.18624e-09
3.63124e-09
-9.15665e-09
6.66749e-09
-1.03937e-09
-4.16425e-09
6.68702e-09
-2.58387e-09
6.39216e-09
-6.92522e-09
3.70263e-09
6.18733e-09
-3.22266e-09
-2.1505e-09
5.62437e-09
2.28575e-10
-4.12987e-09
6.01369e-09
4.80301e-09
1.11699e-10
8.07032e-10
1.01057e-10
7.89297e-09
2.37837e-10
9.28116e-09
-9.74872e-10
9.84726e-10
5.61438e-09
5.3135e-09
7.23621e-09
-7.90185e-09
6.93839e-09
-6.09388e-11
1.02397e-09
-4.96077e-09
7.22883e-09
-1.01702e-08
-3.92956e-09
1.84376e-09
-8.25506e-09
1.03405e-08
1.5124e-09
-1.04029e-08
-9.86703e-09
8.72365e-09
8.0816e-09
1.51693e-09
-4.15527e-09
7.60922e-09
4.74596e-09
-1.0843e-08
1.36272e-08
-4.17429e-09
-8.27566e-09
-6.25771e-09
-4.06593e-09
1.85989e-08
-3.71271e-09
4.16058e-09
-2.47171e-09
5.94028e-09
-9.7267e-09
1.13083e-08
-5.04554e-09
-1.28718e-08
-6.41609e-09
1.52214e-08
-5.27632e-09
4.73929e-09
5.51918e-09
5.60882e-09
-2.22033e-09
-8.90755e-09
3.25991e-09
-5.09474e-09
7.35408e-09
-6.01415e-09
-5.33336e-10
-5.11679e-10
7.05917e-09
-2.02871e-09
-6.44542e-09
2.45997e-09
-8.50506e-09
1.25403e-09
7.69465e-09
-4.43536e-10
-9.75244e-09
-1.8114e-09
3.05892e-09
6.77368e-10
5.63809e-09
-7.32309e-10
-5.58317e-09
2.55375e-09
3.08273e-09
-2.7635e-11
2.6213e-09
3.89972e-09
-8.74127e-09
-3.51135e-09
3.65533e-09
-5.61658e-09
7.65716e-11
-8.19888e-09
8.94129e-09
-5.27026e-09
-1.22222e-09
5.76376e-09
-8.41268e-09
2.5643e-10
-2.6915e-09
-3.98141e-09
-2.20756e-09
3.14045e-09
-3.22213e-09
7.76108e-11
-1.18479e-08
-2.97106e-09
6.20474e-09
8.61427e-09
-4.41233e-09
1.244e-09
-8.6794e-09
5.2656e-09
1.83536e-09
-8.92996e-09
1.82881e-09
9.24658e-09
-4.67395e-09
-8.98517e-09
5.36311e-09
9.12471e-10
-1.95749e-09
9.39305e-09
1.19186e-09
-8.62738e-09
3.94509e-09
-6.37004e-10
-2.04332e-09
-1.23302e-08
1.15399e-08
2.83374e-09
7.86664e-09
-5.16787e-10
-1.38234e-08
4.09203e-09
1.59362e-08
-4.01547e-09
-8.56386e-09
-1.05463e-08
-5.79933e-09
-7.24145e-09
4.40289e-09
-1.16091e-09
1.67929e-08
-2.82738e-09
9.53301e-09
-5.08822e-09
4.36917e-09
-2.10847e-09
-6.44491e-10
-4.98732e-10
5.10892e-09
-9.25735e-09
1.08583e-09
3.0624e-09
-8.37758e-09
4.61455e-09
8.87206e-09
7.02486e-09
8.24274e-10
-2.17704e-09
-6.0686e-09
7.20687e-10
9.96248e-09
-4.95487e-09
4.62418e-09
-1.12274e-08
1.15579e-08
4.58266e-09
-4.22286e-09
-1.02157e-09
-7.68489e-09
1.30297e-08
-1.11719e-09
-2.50959e-09
-9.77093e-09
-2.57382e-09
4.65965e-09
-7.73212e-09
-3.15605e-09
1.68967e-10
-2.35855e-10
2.32976e-09
-4.49657e-09
-7.52278e-11
-1.61326e-08
1.1903e-08
-1.19111e-08
1.6141e-08
4.65539e-09
-1.30388e-08
-7.74912e-09
-6.36011e-09
3.54177e-09
1.47217e-08
4.21484e-11
-1.74669e-09
-1.30787e-08
4.62998e-09
-3.46234e-09
-2.42998e-08
-1.81782e-09
1.30784e-08
-5.79467e-09
-2.65372e-09
-7.57208e-09
5.8172e-09
1.48335e-08
-7.70983e-09
4.36331e-09
8.53788e-09
-5.19123e-09
-5.92243e-10
1.45452e-09
-8.57215e-09
1.01378e-08
-9.1671e-09
-6.76538e-09
1.97344e-09
1.37224e-08
4.30339e-09
-1.91833e-09
-7.13459e-09
4.74945e-09
-2.24928e-09
2.9453e-09
-5.96732e-09
5.27119e-09
2.49233e-09
-4.38257e-10
-2.15522e-09
2.82031e-09
3.67296e-09
-4.33815e-09
1.61076e-09
-5.68432e-09
1.27005e-09
8.34566e-09
-1.11952e-08
1.57937e-09
-1.33418e-09
-5.75686e-09
9.9113e-09
-3.08456e-09
6.85595e-09
-5.10558e-09
-6.31818e-09
5.89312e-09
1.695e-09
-1.35383e-09
-1.29135e-09
-8.51929e-10
3.10881e-09
2.3538e-10
3.65378e-09
-5.12759e-09
-2.04218e-10
-3.98703e-10
7.45878e-09
-2.72432e-09
3.6334e-09
-1.39962e-09
4.90415e-10
7.74936e-11
1.31689e-09
-4.71704e-09
4.83166e-09
-1.43145e-09
-2.57767e-09
3.78768e-09
1.06895e-10
3.39942e-09
-3.94244e-09
-4.17402e-09
7.06935e-10
1.1485e-10
-2.89441e-10
5.0079e-09
-5.30755e-09
5.89231e-10
-3.55249e-09
3.13066e-09
1.32443e-10
2.99826e-09
-2.35626e-09
3.18968e-09
-3.83164e-09
1.52712e-10
3.0917e-09
-2.05121e-09
3.79122e-09
1.09475e-09
5.78465e-09
2.17458e-09
-8.47326e-09
-8.22343e-09
5.66904e-10
5.60539e-09
5.56971e-09
-1.16185e-08
7.05552e-10
-2.40263e-09
6.70504e-09
4.93096e-09
-9.03187e-09
7.19617e-09
3.81957e-10
-3.84408e-09
-1.7359e-09
-3.87069e-09
7.47304e-09
-5.29011e-10
-3.07312e-09
1.30556e-08
-7.90468e-09
-9.02159e-09
-1.387e-08
4.84808e-09
1.6495e-08
1.77798e-10
-9.92138e-10
2.90101e-09
2.02222e-09
-1.40357e-08
9.11246e-09
3.8766e-09
-8.8804e-09
6.46441e-09
-5.23221e-09
-1.05458e-09
1.10502e-08
-1.27112e-08
4.49408e-09
-1.92864e-09
5.72889e-10
1.35272e-09
3.19483e-09
-8.77064e-10
-3.6702e-09
7.29028e-10
5.23237e-09
-4.60861e-09
-7.55637e-09
-3.14369e-09
6.94547e-09
3.75483e-09
-5.91181e-09
-7.61551e-09
5.97102e-09
-2.10108e-09
6.92481e-09
-4.09451e-09
-5.36638e-10
3.04492e-09
-4.60922e-09
3.32685e-11
-1.87018e-10
5.38625e-09
3.28235e-09
-5.41515e-11
2.54943e-09
-3.96304e-09
6.13849e-10
-3.48065e-09
2.67166e-09
-4.01984e-09
8.91487e-10
4.57628e-10
-2.54015e-09
5.57032e-09
-3.58363e-10
-4.42467e-09
-2.97051e-09
3.37543e-09
-2.14792e-09
-1.66281e-09
3.8648e-09
-8.36412e-11
2.97826e-09
-2.57663e-09
-2.30248e-11
3.08236e-11
3.21144e-09
4.79807e-11
3.57632e-09
-2.905e-09
-2.36304e-09
-4.504e-09
3.62428e-09
3.24263e-09
-2.00545e-09
7.95114e-11
-4.37422e-10
3.23382e-09
-1.68849e-09
-3.55062e-09
8.16339e-10
-2.08633e-09
3.81228e-09
-3.01762e-09
6.68017e-09
-7.47461e-09
7.3952e-09
-2.76653e-09
1.56261e-10
-5.24264e-09
-5.22278e-10
5.6087e-09
-2.79299e-09
3.05185e-09
-1.02716e-10
2.24905e-10
-5.51112e-09
4.9313e-09
3.55314e-10
3.72854e-09
1.2076e-10
-2.2465e-09
-4.67094e-10
1.76002e-09
-6.466e-09
-7.22255e-09
9.10675e-09
8.12777e-10
-1.3552e-09
3.8466e-09
-4.33302e-09
-5.83147e-10
1.17926e-09
9.55874e-09
-5.77175e-09
-4.96671e-09
5.49788e-09
-1.66953e-09
-2.64934e-09
-7.8792e-09
-1.65705e-08
6.23548e-09
1.82142e-08
-9.12642e-09
-1.54675e-09
2.7941e-09
-1.61381e-08
-3.84188e-09
-1.35921e-09
8.88207e-09
-3.68125e-09
3.63931e-09
-1.24618e-09
-1.24672e-10
6.10288e-09
-1.70739e-09
-4.27086e-09
3.68537e-09
-1.46333e-09
-2.34694e-09
-1.07553e-09
1.20693e-09
5.36628e-09
4.20755e-09
3.48594e-10
-7.70266e-10
3.37993e-09
1.10462e-09
3.87734e-09
-5.7523e-09
6.22831e-09
8.77334e-09
-5.16908e-09
-1.73696e-09
-1.86746e-09
1.05505e-09
-2.15548e-10
7.93402e-09
1.91141e-10
-5.18161e-09
-1.78609e-10
3.70678e-09
-3.71834e-09
2.03156e-10
-3.38831e-09
5.42928e-10
3.90054e-09
7.16465e-11
2.46964e-10
-1.01978e-08
2.0616e-10
9.77625e-09
-7.60844e-09
-4.32621e-09
-2.78006e-09
-5.95626e-10
8.06344e-09
-4.68766e-09
6.18641e-09
-6.12738e-10
-8.35356e-09
1.2671e-09
-9.24955e-10
-4.06047e-09
-4.51013e-09
-5.18473e-09
-9.5127e-10
6.6791e-09
-3.82461e-09
-6.01985e-09
4.65982e-09
-4.12879e-09
3.75942e-10
-1.33221e-09
1.78742e-09
6.1089e-09
-1.25461e-09
4.39617e-09
-5.93386e-09
-8.38765e-09
7.64233e-09
-4.15371e-09
-7.98617e-10
-1.06765e-09
-3.88636e-09
-3.0774e-09
-9.05218e-09
1.05894e-08
4.94014e-09
-6.47841e-09
5.16025e-09
4.13603e-09
-1.83488e-08
9.70937e-10
-5.92471e-09
-1.32835e-09
-1.21302e-08
-3.39756e-10
-1.76861e-08
1.5883e-08
-1.31758e-08
1.27073e-08
-1.54149e-08
-4.28562e-09
7.08263e-09
1.30852e-08
5.42143e-09
4.57677e-09
-1.42843e-08
-1.20444e-08
-5.35945e-09
1.65977e-09
1.57436e-08
-1.48756e-08
1.10433e-09
5.95182e-10
-8.1627e-09
-1.87573e-08
6.08359e-09
7.81113e-09
-2.20577e-08
1.13951e-08
6.70267e-09
-1.20145e-08
-5.45512e-09
-8.1588e-09
2.0696e-08
-9.2676e-09
9.23361e-09
1.29825e-08
-6.62885e-09
-8.60017e-09
2.24632e-09
-9.51684e-09
1.32315e-08
-1.10176e-08
-9.7091e-10
1.14549e-08
1.04428e-09
-8.6202e-09
1.66427e-08
-1.32008e-09
-1.18268e-08
1.64485e-08
-8.40617e-09
2.81499e-09
4.11647e-09
6.11101e-09
1.38691e-08
3.03617e-09
-1.04549e-09
-1.58596e-08
1.22785e-08
8.40004e-09
-6.80956e-09
-7.04921e-09
-1.54953e-08
1.66917e-08
5.85256e-09
-1.10731e-08
-2.83999e-09
6.86385e-09
-1.48861e-10
-1.90184e-08
3.67166e-09
-1.35806e-08
2.35863e-09
-1.60848e-08
6.69421e-09
-1.11936e-08
8.10504e-09
1.5367e-08
2.17851e-09
-1.03359e-08
8.78482e-09
9.92768e-10
-1.0823e-08
1.1001e-09
-1.18046e-08
-4.48215e-09
-2.7317e-09
-1.28811e-08
-1.25041e-08
-1.26558e-08
1.44235e-08
-2.83937e-09
-7.63794e-09
-1.47277e-08
7.10217e-09
-3.27036e-09
5.13856e-09
-8.9706e-09
1.00682e-08
-3.25258e-09
-2.99015e-09
-3.82569e-09
8.44511e-09
7.71266e-09
-6.08957e-09
-8.61453e-10
1.04889e-08
-3.42328e-09
-6.20416e-09
1.61975e-08
-9.95684e-09
-4.14336e-09
-2.93212e-09
1.55205e-08
5.26308e-09
-5.91147e-09
3.88035e-10
2.6025e-10
-1.31992e-08
-7.48904e-09
1.65448e-08
-1.11311e-08
-5.32069e-09
-5.49556e-09
4.85319e-09
1.13207e-08
-6.18761e-10
-3.8219e-09
6.15294e-09
8.21485e-10
-3.32501e-09
-3.62121e-09
6.12467e-09
4.80975e-09
-2.07963e-09
-1.90873e-09
-1.96882e-09
-4.77957e-09
1.85626e-09
-7.0956e-09
-9.99171e-10
-1.02645e-10
-4.94564e-09
8.7772e-09
-4.94504e-09
-1.94399e-09
3.067e-09
3.43239e-09
-3.65578e-09
-4.81674e-09
-1.12754e-09
-1.09608e-08
4.07118e-09
1.99159e-09
-3.37594e-09
-3.83065e-09
-8.09231e-09
2.00965e-08
-6.61389e-09
-5.39036e-09
8.93307e-09
-6.84871e-09
-1.01764e-08
-9.30905e-09
-7.2329e-09
5.87643e-09
1.06658e-08
5.78958e-09
4.99777e-09
7.17324e-09
-9.30927e-09
2.84411e-09
-7.08941e-10
5.26699e-09
7.69583e-09
-6.54869e-09
-9.37461e-09
2.22488e-10
1.47799e-09
2.38739e-09
7.53475e-09
-6.23668e-09
-3.68568e-09
-2.18844e-09
8.48447e-09
-3.90878e-09
-1.21916e-09
4.71847e-09
1.17055e-09
-4.67e-09
1.77189e-09
6.70386e-09
-9.41317e-10
1.13737e-08
-2.30249e-10
-9.73205e-09
1.34483e-08
3.97942e-09
-7.99871e-09
1.11072e-09
-3.61679e-09
6.95742e-09
-5.52916e-09
7.89509e-10
-1.12552e-08
9.20329e-09
1.05299e-09
4.77566e-09
2.22028e-09
4.95965e-09
8.63339e-09
5.34556e-09
6.94455e-09
3.40304e-09
-1.07274e-08
3.79841e-10
-1.41766e-08
1.27509e-08
8.37024e-09
1.35342e-08
-9.75531e-09
-3.75864e-10
6.79495e-09
-6.79246e-09
1.35316e-08
3.62231e-09
-4.24428e-09
-1.01054e-08
-1.04976e-09
-9.50448e-09
2.07443e-09
1.74714e-08
9.12957e-09
-1.0195e-08
-8.68992e-09
2.00241e-08
-6.72332e-09
-4.17121e-09
2.54318e-09
1.06884e-08
-1.26682e-09
-8.7135e-09
1.20548e-08
-1.41926e-08
-5.83416e-09
1.87599e-08
-1.40143e-08
-8.89169e-09
1.48211e-08
-3.2996e-09
-1.25712e-08
-5.91271e-09
6.71955e-09
-8.80205e-09
-9.36715e-09
1.56647e-08
2.50455e-09
-1.0822e-08
-4.7034e-09
1.36123e-08
-1.04675e-09
-1.66752e-09
-2.73715e-09
-1.17021e-08
1.23737e-08
2.39763e-09
-3.92383e-09
1.20471e-08
-1.05216e-08
-1.05381e-09
9.70719e-09
-6.25599e-09
1.93426e-08
7.58701e-09
-1.67118e-08
-1.02178e-08
1.70569e-08
-8.03343e-09
1.03189e-08
-2.24119e-09
8.17404e-09
-6.98678e-09
1.14469e-08
-1.76122e-08
2.11229e-09
9.27547e-09
6.59487e-10
9.19355e-09
2.62536e-09
-5.89384e-09
-9.21151e-09
-3.24377e-09
-1.05956e-08
-1.2528e-09
5.95408e-09
1.31385e-08
-4.30805e-09
-1.24363e-09
2.09836e-08
7.40621e-09
-1.34301e-08
1.7154e-09
-1.46956e-08
1.15061e-08
2.24673e-08
-2.77323e-08
9.94456e-09
4.48938e-09
1.2958e-08
1.90154e-09
-6.57365e-09
-1.16827e-08
1.50124e-08
-1.24148e-08
4.58807e-09
7.53735e-09
-1.31984e-09
1.65958e-08
1.60979e-09
-8.85481e-09
-9.35108e-09
5.94545e-09
-2.401e-09
1.30509e-08
-1.15304e-08
4.1358e-09
1.33397e-08
-4.70828e-09
1.12702e-08
-5.90934e-09
-1.42157e-08
2.15687e-09
6.71232e-09
1.43618e-09
-7.34664e-09
1.97725e-09
3.933e-09
-4.97932e-09
5.06163e-10
6.25682e-09
-4.15758e-09
7.59749e-09
-9.69688e-09
7.78009e-09
-1.2788e-08
9.56681e-09
-4.55901e-09
-7.26185e-09
-3.38571e-09
1.10115e-08
-3.63995e-10
-2.68522e-10
7.86644e-10
8.56215e-09
-7.33077e-09
5.02803e-09
3.89514e-09
1.40274e-08
-7.41675e-09
-1.05061e-08
-1.1564e-08
-1.44685e-08
9.13403e-09
3.64195e-09
-2.11225e-08
5.91608e-09
-2.21299e-08
1.20178e-09
6.45931e-09
-2.47391e-09
-4.44701e-09
-1.52094e-08
6.01536e-09
1.06773e-08
-1.07378e-08
2.51999e-08
-5.32864e-09
-1.70115e-08
1.22548e-08
5.95815e-09
-1.37901e-08
-5.34017e-09
-2.02294e-08
1.23539e-08
-1.51477e-08
1.36999e-08
2.55075e-09
-1.24926e-08
-3.75804e-09
1.5764e-08
-9.52842e-10
-1.1112e-09
9.77005e-09
-3.46031e-09
-1.23874e-08
6.07771e-09
-3.61855e-09
1.59393e-08
7.35989e-09
6.10767e-09
-1.15662e-08
-1.90131e-09
-1.17911e-08
6.65838e-09
-8.64645e-09
-2.43051e-09
7.45847e-09
-1.1265e-08
-8.41725e-10
-8.57266e-09
2.29289e-09
8.27373e-09
8.27793e-10
-2.06677e-08
8.09953e-09
-1.16168e-08
-8.81292e-09
5.3171e-09
-5.07686e-09
6.96901e-09
-1.49541e-08
7.5104e-09
-4.78102e-09
4.23962e-09
1.56245e-09
-1.09474e-08
4.7589e-09
6.50589e-09
3.75724e-10
-1.16626e-08
-2.73177e-09
1.08001e-08
1.39173e-09
-2.51936e-09
1.13358e-10
-6.33615e-09
8.742e-09
-1.21434e-09
-1.04722e-08
-2.66914e-09
-6.06841e-09
8.85085e-09
6.89985e-09
-1.07833e-08
2.21575e-09
-3.41813e-09
-9.26995e-09
-4.6767e-09
5.56173e-10
-1.41912e-09
3.15726e-09
-6.41487e-09
4.91595e-09
-8.14151e-09
1.80637e-09
-7.66688e-09
4.75571e-09
4.42363e-09
5.86661e-12
5.80889e-09
-1.02385e-08
2.45651e-10
-2.23692e-09
-5.63812e-09
-2.28007e-09
8.16378e-09
7.04487e-09
-1.26771e-08
-5.29096e-09
-8.08107e-10
-2.37449e-09
8.47354e-09
-1.26497e-08
1.44037e-08
-2.66611e-09
-5.07513e-09
1.26049e-09
-3.69577e-09
7.51094e-09
-5.06863e-10
2.54121e-10
-4.82221e-09
2.89978e-09
-1.78571e-10
-5.82439e-09
3.10337e-09
2.6306e-09
8.20642e-11
1.87277e-10
-2.6852e-09
-1.18582e-09
5.13163e-09
-2.9275e-09
-2.64443e-10
-9.37606e-10
7.37713e-10
-3.4955e-09
-2.68573e-10
-2.83233e-11
3.22246e-09
-3.27564e-09
-4.58514e-09
4.63829e-09
3.07495e-09
-1.21163e-10
5.76553e-09
-3.87649e-09
3.38999e-09
-6.84404e-09
-1.98293e-10
2.65059e-09
-1.47e-08
3.47339e-09
8.88204e-09
2.34454e-09
-1.08509e-08
-1.0142e-08
6.29299e-09
-1.63397e-08
-1.38477e-08
1.54677e-08
1.47197e-08
4.2091e-09
-1.41678e-08
-6.38091e-09
5.08239e-09
8.33552e-09
-9.94446e-09
1.88606e-08
-1.00097e-08
-1.53585e-08
6.50767e-09
9.64871e-10
8.32669e-09
-4.69007e-09
-2.75085e-09
-6.4068e-09
-6.18966e-09
-1.26682e-08
1.84138e-09
6.01247e-09
-9.29531e-09
7.39299e-09
1.21662e-08
-1.02639e-08
7.45826e-09
2.10699e-09
8.34387e-09
-1.46213e-08
2.18689e-08
1.45363e-10
-1.22633e-08
5.10025e-09
4.28021e-09
1.04053e-08
-1.0849e-08
-3.83655e-09
7.06938e-09
-2.95275e-09
1.63625e-10
-1.05248e-08
-3.37538e-09
6.17136e-09
7.72892e-09
-1.16059e-08
-4.03497e-09
5.11602e-09
-1.79951e-09
4.127e-09
4.74194e-09
5.23044e-09
1.26714e-09
-1.21716e-09
-1.08989e-08
6.77131e-09
5.00109e-10
-6.00427e-09
3.88765e-09
-6.90889e-11
-1.95659e-09
1.28612e-08
-4.73317e-09
3.00961e-09
-8.45141e-09
7.99256e-09
-2.55076e-09
6.78496e-09
1.12313e-10
7.01594e-10
-1.35246e-08
-7.46294e-10
-7.20499e-09
-4.86818e-09
7.03859e-09
1.06529e-08
-9.75302e-09
-1.30655e-08
1.21656e-08
-9.50187e-10
3.91929e-09
7.68377e-09
-3.83187e-09
5.74864e-09
3.21048e-09
-9.79774e-09
-3.96031e-09
3.17005e-09
-9.38018e-09
7.52981e-09
-5.38945e-09
-1.0135e-08
7.99452e-09
5.561e-10
-5.24005e-10
7.49756e-09
-5.09778e-09
6.02696e-09
-3.73347e-10
-5.98443e-09
8.60598e-09
-7.71952e-09
-9.11903e-09
1.83863e-09
3.32003e-09
-5.38135e-09
-3.81453e-09
7.67886e-11
-1.44739e-09
4.57769e-09
-9.11489e-09
4.41874e-09
-1.12556e-08
2.9031e-09
7.11347e-09
-5.43892e-09
9.15097e-09
-3.51197e-09
-2.73602e-09
-7.78772e-09
5.07547e-09
8.73899e-09
-7.26258e-11
8.90799e-10
-2.44757e-09
1.0693e-08
-3.55654e-09
8.49945e-09
2.17045e-09
7.6932e-09
-2.09889e-09
-6.49584e-09
-6.65397e-09
1.07022e-08
3.03593e-09
-4.47458e-09
1.77285e-09
3.29025e-09
-3.70314e-10
1.33059e-09
-4.25051e-09
-3.18908e-09
-2.53325e-09
4.20383e-10
5.30207e-09
-1.04497e-09
1.14626e-09
3.64007e-11
-2.33109e-09
3.95252e-09
-1.65773e-09
1.66546e-09
-6.52253e-09
8.3802e-10
4.0192e-09
1.58783e-09
-2.91048e-09
2.98809e-09
-1.30652e-09
2.80037e-09
-1.45758e-09
2.43346e-09
-2.152e-09
-6.17636e-11
1.20604e-09
-3.6774e-09
-3.18826e-09
-1.96066e-09
5.56942e-09
-3.80245e-09
-3.2509e-09
3.86519e-09
-4.01576e-10
-4.44584e-09
-2.39136e-09
3.13391e-09
2.05813e-09
1.80795e-10
-1.38846e-10
1.11144e-09
-2.91032e-09
-1.59586e-10
-2.93121e-09
5.76341e-09
-2.22641e-09
-6.05899e-10
3.42503e-09
-1.72969e-09
-4.62673e-09
-5.75596e-09
-5.41884e-09
3.48644e-09
7.6882e-09
-4.9467e-09
7.67213e-10
-1.57668e-09
-3.66694e-10
-4.28304e-09
-7.6917e-10
-3.76142e-09
-1.55202e-09
1.31596e-09
-6.04533e-09
1.66895e-09
3.06038e-09
2.79627e-09
-4.65034e-10
-2.15532e-09
1.48106e-09
-4.27758e-09
1.06694e-09
-2.64394e-09
4.2298e-09
-2.05074e-09
2.11019e-09
-3.27329e-09
-3.22527e-09
8.2247e-09
-1.51341e-09
-2.25051e-09
-2.07771e-10
-1.01865e-09
1.04307e-09
-3.78587e-09
1.63594e-09
-2.43752e-09
-2.17455e-10
-1.88072e-09
2.60182e-09
3.50846e-09
4.98665e-10
-2.69144e-10
-1.15916e-10
5.65911e-09
-8.47367e-09
6.85703e-09
-4.0425e-09
-4.7735e-09
8.1781e-09
2.25444e-09
6.17215e-09
-1.74828e-09
-1.28976e-08
-2.26097e-09
3.65952e-09
-8.56013e-09
5.82214e-09
1.0916e-08
-1.60952e-09
-9.35659e-11
4.51132e-09
6.81206e-09
-1.30716e-08
7.9818e-09
-6.42674e-09
2.95622e-09
6.50372e-09
-1.30108e-09
1.26708e-09
2.15478e-09
4.55999e-09
2.44449e-09
6.34142e-09
-7.51891e-09
-1.34848e-09
9.61517e-09
7.31006e-09
1.46262e-08
3.53577e-09
-1.16309e-08
-6.53118e-09
1.51618e-09
9.9627e-09
3.14729e-09
1.19141e-08
8.43891e-09
-1.01254e-08
-1.02275e-08
1.25195e-08
-2.01359e-09
1.40815e-09
1.6518e-08
-4.54336e-09
5.86175e-09
1.21723e-08
5.26878e-09
-8.70675e-09
-8.1929e-09
-9.47044e-10
-1.49608e-08
5.78252e-09
1.26803e-08
5.70096e-09
-8.17661e-09
-1.11203e-09
1.45574e-08
4.87448e-09
-1.45282e-08
-1.277e-08
7.85858e-09
-3.35526e-09
4.30332e-09
-7.60542e-09
-8.29122e-09
1.30538e-08
-5.02354e-09
2.6084e-10
-5.60019e-09
1.24536e-09
-3.93642e-09
-8.58592e-09
5.24946e-09
-2.26369e-09
-5.6944e-09
1.4118e-09
4.63711e-09
-2.43934e-09
-1.01791e-08
7.98116e-09
-6.65396e-09
-5.68559e-09
1.69766e-08
-8.42483e-09
-1.62185e-08
1.79892e-08
9.56425e-09
-2.04284e-08
-6.64986e-09
2.95928e-09
8.771e-09
-5.08056e-09
5.94306e-09
3.14715e-09
-1.57402e-08
5.1664e-09
-1.3148e-08
3.50773e-09
4.47368e-09
8.83473e-09
-1.53839e-08
1.17154e-08
7.35037e-09
-1.00721e-08
8.6646e-09
1.25099e-08
-2.20029e-09
1.2778e-08
-6.60238e-09
-8.29858e-09
2.12288e-09
-1.21988e-08
1.53479e-08
-1.94806e-09
-1.49262e-09
9.58435e-09
-1.30396e-08
6.66226e-09
-1.10393e-08
-4.32217e-09
-4.39953e-09
5.83847e-09
-1.21879e-08
-1.959e-09
-6.92573e-09
-1.92988e-09
4.1064e-09
1.92837e-09
-4.10491e-09
5.66147e-09
3.35669e-10
-7.92704e-09
2.81751e-09
1.39231e-09
-1.03476e-10
3.64848e-09
-6.80349e-09
7.43059e-09
-4.27571e-09
6.40356e-09
6.23557e-11
4.19301e-09
6.19239e-09
-4.72395e-09
5.63904e-09
-5.37641e-11
-4.25165e-10
-4.44999e-09
8.77731e-09
-4.77414e-09
3.42726e-09
-5.77894e-10
-2.38064e-10
9.59319e-09
-7.23454e-10
6.54902e-09
-7.96966e-09
5.59213e-09
8.01652e-09
-1.35951e-09
-4.1786e-10
1.92775e-09
7.71479e-09
-9.30699e-09
8.92411e-09
-7.42161e-09
5.66598e-09
-1.51616e-09
6.9275e-09
-5.72354e-10
-6.65207e-09
-1.28733e-10
6.5424e-09
5.9414e-09
4.73989e-09
-4.54514e-09
1.20828e-08
-2.04324e-08
1.28949e-08
5.11476e-09
-1.49069e-08
5.24704e-09
7.38168e-09
-6.76428e-09
1.14655e-08
-5.16902e-09
-4.19555e-09
1.67464e-08
-2.27704e-08
-1.39175e-08
9.9244e-09
2.67637e-08
-1.28845e-08
3.09059e-09
-1.29765e-08
-5.41653e-09
-2.73534e-08
1.88525e-08
5.62138e-09
1.06857e-08
-2.17235e-08
-1.08809e-08
8.13166e-09
8.37066e-09
7.33841e-09
-1.29461e-08
-5.27313e-09
8.07736e-09
-6.03545e-09
-2.9628e-09
-1.14342e-08
-1.3604e-08
-6.1562e-09
1.18852e-08
-1.85773e-08
5.65687e-09
9.04578e-09
-1.69349e-08
-4.99542e-09
-1.24944e-08
-1.26817e-08
7.53671e-09
1.16874e-08
-3.99671e-09
-2.74376e-09
-3.80346e-09
-9.15378e-11
-1.09532e-08
1.4848e-08
-2.12651e-09
-7.85332e-09
6.17621e-09
-2.29879e-09
9.7439e-09
-6.81343e-09
2.38793e-09
7.74125e-09
-5.37357e-09
-6.36453e-09
-2.30948e-09
-9.02519e-10
-6.9849e-09
-3.17807e-09
4.68783e-09
-1.15777e-08
6.77283e-09
-1.37281e-09
-1.97286e-09
9.55257e-09
-3.66985e-09
8.58198e-09
-1.62388e-09
-1.25252e-09
-5.70562e-09
7.63473e-09
6.78013e-09
-5.83291e-09
-2.93668e-09
-9.8714e-09
9.37502e-09
3.43305e-09
-6.16517e-09
3.20226e-09
2.61663e-11
7.27961e-09
-7.01824e-09
-6.42654e-09
-9.00565e-10
-1.6912e-09
1.22036e-08
-3.68863e-09
-9.41557e-09
-1.10461e-09
-2.28612e-09
1.10255e-08
-5.71457e-09
-2.33283e-09
6.94276e-09
-2.86486e-09
3.52565e-10
-1.14349e-08
-2.85847e-09
1.20073e-08
-3.171e-09
-9.88773e-09
-5.80514e-09
2.73315e-09
2.07143e-10
-1.14479e-09
8.18697e-09
8.20039e-09
1.88399e-09
-9.60716e-09
7.04929e-10
-2.10547e-09
-4.4805e-09
6.44509e-09
1.40907e-10
-6.02663e-09
7.13295e-09
1.49699e-09
-2.89092e-09
-5.73948e-09
5.33841e-09
1.39882e-09
3.95446e-10
1.14799e-09
5.95137e-09
-8.9346e-09
1.83516e-09
-5.48914e-09
6.27267e-09
4.55462e-09
-3.07851e-09
-9.13707e-10
6.43924e-09
-9.87724e-10
-8.34246e-09
5.39834e-09
5.63571e-09
-4.59482e-09
6.27061e-09
5.26585e-10
2.08067e-09
5.33983e-09
6.07985e-09
-9.09811e-09
2.03045e-09
6.4465e-09
-9.80812e-10
1.6996e-10
-1.02896e-09
5.71684e-09
1.75836e-09
4.7742e-09
4.67278e-10
5.47232e-09
-3.73428e-10
-8.02873e-09
8.7554e-10
1.05462e-08
-3.39308e-09
-1.98592e-09
-5.70527e-10
-1.34803e-09
7.94031e-09
5.50679e-09
4.4218e-09
8.79569e-10
-2.05064e-09
-3.25065e-09
2.66981e-09
-4.5014e-09
3.32281e-09
-1.49104e-09
-6.37361e-09
3.21898e-09
7.57649e-09
-2.72649e-09
-2.76762e-09
2.37595e-09
-1.75676e-09
3.79746e-09
-5.90994e-09
-1.13812e-09
-2.16623e-09
6.70624e-09
-5.7449e-09
3.53113e-09
5.37598e-10
-5.79118e-09
2.52703e-09
-8.03222e-09
4.34663e-09
-2.29703e-09
-1.15263e-08
-3.89019e-10
-7.25963e-09
-5.49237e-09
2.11797e-09
-4.04081e-09
7.41529e-09
-7.31153e-10
-4.69827e-09
-6.28944e-11
-3.5283e-09
-9.12665e-10
6.55898e-09
-3.84624e-09
-4.13162e-10
-1.27526e-09
2.50215e-09
-5.26771e-09
-7.03738e-09
1.06393e-09
-4.3091e-09
-3.04889e-09
6.44555e-09
-3.07758e-09
-4.00894e-09
2.77745e-09
-7.0185e-10
-2.60632e-09
-5.38118e-10
-3.58975e-09
-7.24661e-09
3.79895e-09
-3.11773e-09
-6.6171e-10
-4.23232e-10
-3.10316e-09
4.77402e-10
-4.01168e-09
-4.20411e-10
-1.36672e-09
-4.82941e-09
-3.09734e-09
-4.03207e-09
4.71747e-09
6.10469e-09