/*--------------------------------*- C++ -*----------------------------------*\
| =========                 |                                                 |
| \\      /  F ield         | OpenFOAM: The Open Source CFD Toolbox           |
|  \\    /   O peration     | Version:  v1612+                                |
|   \\  /    A nd           | Web:      www.OpenFOAM.com                      |
|    \\/     M anipulation  |                                                 |
\*---------------------------------------------------------------------------*/
FoamFile
{
    version     2.0;
    format      ascii;
    class       volScalarField;
    location    "200";
    object      p;
}
// * * * * * * * * * * * * * * * * * * * * * * * * * * * * * * * * * * * * * //

dimensions      [0 2 -2 0 0 0 0];

internalField   nonuniform List<scalar> 
17027
(
1.48385
1.2782
1.21944
1.33502
1.28864
1.24137
1.26971
1.20119
1.30866
1.3917
1.38929
1.44817
1.13332
1.19299
1.16764
1.40116
1.16598
1.37585
1.19513
1.18084
1.17438
1.24219
1.21507
1.27859
1.22383
1.22163
1.37281
1.3296
1.41981
1.35279
1.29128
1.28252
1.42658
1.37157
1.3134
1.35364
1.4373
1.34871
1.43241
1.80139
1.79997
1.79967
1.79825
1.79283
1.7818
1.78276
1.78528
1.78813
1.77396
1.77646
1.79794
1.79156
1.7874
1.79046
1.77879
1.79475
1.78671
1.66994
1.60976
1.59049
1.59904
1.67566
1.633
1.65683
1.68441
1.60108
1.60545
1.65568
1.64304
1.61914
1.57668
1.49507
1.63448
1.57427
1.62054
1.60192
1.50151
1.53277
1.6398
1.59056
1.45272
1.51255
1.62682
1.58401
1.4731
1.53136
1.78444
1.77291
1.77784
1.78355
1.77672
1.77893
1.78191
1.77165
1.77018
1.78616
1.78479
1.78608
1.73187
1.73605
1.71424
1.72966
1.74791
1.73365
1.74516
1.74464
1.73978
1.74628
1.7391
1.70604
1.7092
1.76202
1.75243
1.74523
1.74579
1.73152
1.74698
1.74809
1.80493
1.77456
1.78671
1.75314
1.75539
1.75665
1.75905
1.76489
1.73095
1.72769
1.75509
1.74141
1.72475
1.73203
1.73743
1.74911
1.75534
1.76721
1.75465
1.74021
1.74469
1.64725
1.62106
1.56707
1.58123
1.6541
1.64425
1.58136
1.58353
1.56816
1.57993
1.62425
1.61103
1.65152
1.61093
1.59738
1.59951
1.60527
1.5658
1.59834
1.66793
1.66772
1.6199
1.60133
1.5836
1.64771
1.61086
1.67195
1.70734
1.62583
1.69549
1.69036
1.7437
1.74842
1.75928
1.76224
1.74081
1.7568
1.7583
1.75232
1.72903
1.72727
1.74468
1.73328
1.72071
1.72922
1.70933
1.68528
1.6679
1.65971
1.68341
1.75317
1.76491
1.73734
1.72579
1.68484
1.75509
1.70751
1.69583
1.77836
1.76097
1.6973
1.73662
1.75585
1.75035
1.7328
1.51909
1.52843
1.51025
1.50324
1.51219
1.49802
1.45808
1.48241
1.36795
1.41804
1.37889
1.36019
1.4118
1.37465
1.4218
1.42867
1.35317
1.40913
1.45823
1.4768
1.83732
1.84514
1.82956
1.82979
1.83804
1.84665
1.84747
1.82051
1.8291
1.83871
1.83476
1.81803
1.82576
1.78854
1.79467
1.78813
1.77985
1.78666
1.79025
1.80185
1.78016
1.7882
1.77742
1.79973
1.79951
1.78344
1.79947
1.08706
1.18641
1.12896
1.19165
1.16883
1.11668
1.12394
1.17199
1.07227
1.13305
1.14384
1.08063
1.07308
1.06983
1.14864
1.0939
1.07141
1.12729
1.79939
1.8252
1.84484
1.84618
1.81849
1.79672
1.82803
1.85014
1.78649
1.80819
1.82502
1.81882
1.81789
1.84281
1.77957
1.77984
1.80668
1.56178
1.5689
1.66503
1.6483
1.60215
1.57905
1.59429
1.58803
1.614
1.58381
1.69274
1.6842
1.65145
1.68569
1.62898
1.65275
1.70736
1.71276
1.65743
1.71798
1.73336
1.72918
1.74926
1.74914
1.75739
1.75588
1.73304
1.75023
1.7546
1.75198
1.73417
1.7474
1.74916
1.75387
1.74238
1.75408
1.7111
1.70659
1.70167
1.70807
1.67098
1.69629
1.70008
1.66483
1.62044
1.63566
1.64407
1.67528
1.62254
1.60791
1.60606
1.56517
1.64792
1.60695
1.6508
1.56267
1.5951
1.66288
1.68922
1.72439
1.72149
1.73924
1.74721
1.62702
1.67208
1.70372
1.73833
1.72945
1.73069
1.73324
1.66856
1.621
1.64531
1.62013
1.68902
1.64775
1.6442
1.65324
1.66443
1.63503
1.62966
1.66646
1.67111
1.65972
1.63917
1.6638
1.6796
1.61393
1.62729
1.63445
1.63833
1.6653
1.42654
1.38999
1.50475
1.4203
1.46576
1.38007
1.4984
1.48383
1.45104
1.40197
1.63998
1.65785
1.62466
1.6236
1.64065
1.65889
1.68162
1.68094
1.61135
1.66628
1.63667
1.67638
1.65294
1.54713
1.51596
1.53379
1.47974
1.66914
1.65389
1.62703
1.67049
1.53331
1.5135
1.50232
1.59965
1.61483
1.60482
1.66458
1.67413
1.66347
1.67147
1.65316
1.65658
1.64398
1.61873
1.61795
1.66064
1.68503
1.64658
1.65707
1.63367
1.63943
1.64291
1.63336
1.63575
1.75671
1.7844
1.77084
1.7589
1.77819
1.74121
1.76038
1.76962
1.75662
1.74849
1.75439
1.73299
1.74334
1.77982
1.74253
1.73881
1.72803
1.72006
1.7332
1.72588
1.71559
1.7474
1.73321
1.77673
1.77788
1.75516
1.69098
1.7079
1.72666
1.74329
1.73635
1.76069
1.8136
1.81167
1.80973
1.80437
1.81802
1.83526
1.82471
1.84508
1.82701
1.83926
1.8106
1.83083
1.81424
1.82934
1.83949
1.84033
1.83381
1.83553
1.84578
1.84493
1.77645
1.75597
1.77207
1.74693
1.74268
1.73066
1.70811
1.71412
1.71996
1.73976
1.75325
1.74541
1.77309
1.75284
1.74996
1.76778
1.71009
1.78975
1.79887
1.78153
1.78549
1.76527
1.77372
1.79335
1.78012
1.81502
1.80378
1.78241
1.77735
1.7703
1.79471
1.85648
1.85922
1.84873
1.85728
1.87417
1.84683
1.86769
1.8694
1.85094
1.86479
1.86617
1.86799
1.86602
1.85457
1.84456
1.83926
1.86073
1.86589
1.76947
1.78019
1.76635
1.79217
1.75596
1.73766
1.78817
1.76298
1.77078
1.77725
1.78609
1.79477
1.79763
1.75007
1.79512
1.77827
1.76745
1.66958
1.62993
1.6407
1.63621
1.58666
1.63133
1.65469
1.59637
1.63837
1.59075
1.62735
1.55263
1.55649
1.63729
1.62132
1.54782
1.54166
1.64456
1.67309
1.6798
1.64216
1.63034
1.37301
1.26014
1.30071
1.3739
1.39702
1.37734
1.20182
1.27151
1.26371
1.1747
1.23036
1.27404
1.3592
1.17988
1.309
1.23739
1.2687
1.21061
1.17399
1.74377
1.74368
1.75189
1.75277
1.75572
1.75022
1.73196
1.76018
1.742
1.75059
1.75151
1.75405
1.73971
1.74618
1.75566
1.75193
1.67393
1.68331
1.68516
1.67
1.65235
1.69956
1.70336
1.68846
1.66361
1.69771
1.66544
1.6827
1.7118
1.6996
1.69547
1.69832
1.70418
1.703
1.83549
1.81964
1.85205
1.84821
1.80906
1.82116
1.77789
1.78715
1.83765
1.83129
1.84153
1.80541
1.82991
1.81421
1.79231
1.80604
1.84048
1.85683
1.85385
1.83192
1.83775
1.83587
1.8618
1.86068
1.8567
1.86737
1.86224
1.86483
1.87173
1.86697
1.87945
1.85368
1.86097
1.85098
1.85899
1.85643
1.87647
1.84639
1.86943
1.85714
1.86725
1.73423
1.73063
1.75156
1.74079
1.75472
1.74206
1.74432
1.74407
1.74682
1.75813
1.75438
1.76056
1.76914
1.7711
1.76292
1.74383
1.71578
1.72539
1.70942
1.69506
1.68287
1.71354
1.69143
1.74603
1.74346
1.77226
1.74191
1.77045
1.74096
1.72495
1.6905
1.72427
1.77315
1.777
1.74469
1.76718
1.78378
1.77576
1.68114
1.70691
1.65497
1.68703
1.70455
1.69577
1.72493
1.68427
1.65511
1.65131
1.70304
1.72184
1.70111
1.68753
1.70797
1.71871
1.71013
1.69558
1.72202
1.72159
1.72186
1.70136
1.6862
1.69976
1.71012
1.7121
1.69227
1.6878
1.67717
1.69921
1.6964
1.70673
1.72279
1.73266
1.75808
1.7691
1.6711
1.64509
1.72393
1.74822
1.75974
1.74349
1.71894
1.68049
1.52457
1.51968
1.51477
1.48965
1.51156
1.54647
1.56374
1.54872
1.62464
1.61403
1.64395
1.62827
1.63828
1.64967
1.69703
1.69179
1.6136
1.61137
1.60767
1.66962
1.68767
1.69052
1.61857
1.63443
1.6339
1.66451
1.64708
1.65995
1.84846
1.85575
1.83613
1.82279
1.81962
1.82167
1.81356
1.80963
1.82904
1.81739
1.85199
1.84172
1.82197
1.83965
1.83275
1.82658
1.84461
1.83197
1.84959
1.78509
1.78799
1.85193
1.86029
1.84446
1.84592
1.83009
1.82688
1.81244
1.79206
1.8105
1.84231
1.84853
1.81478
1.84243
1.84947
1.83511
1.8438
1.76911
1.78048
1.80652
1.79993
1.77433
1.7978
1.79007
1.76289
1.75894
1.73766
1.73925
1.75609
1.80905
1.80726
1.79985
1.78306
1.79834
1.76145
1.74727
1.77304
1.71569
1.69192
1.70479
1.71588
1.74234
1.72763
1.70749
1.70988
1.7348
1.74759
1.75813
1.74014
1.744
1.75456
1.72215
1.70519
1.75039
1.08192
1.06503
1.08822
1.08963
1.08568
1.08971
1.08661
1.08603
1.08906
1.09103
1.01425
1.04497
1.067
1.07395
1.60373
1.60479
1.08228
1.08146
1.08487
1.08271
0.983811
1.02416
1.03054
1.04911
1.07588
1.08163
1.54046
1.56824
1.55707
1.54423
1.07347
1.05088
1.0628
1.62154
1.63463
1.6278
1.04672
1.02195
1.03742
1.21973
1.26995
1.19354
1.70024
1.69576
1.09062
1.01569
1.06406
1.71666
1.72507
1.69586
1.07084
1.07353
1.06582
1.08122
1.07747
1.50477
1.4536
1.43267
1.06018
1.02366
1.77506
1.77502
1.43193
1.40038
1.24504
1.21229
1.09677
1.22758
1.25318
1.26444
1.24471
1.25639
1.22611
1.79723
1.78931
1.55013
1.57297
1.50551
1.43121
1.42079
1.79346
1.79311
1.79601
1.78285
1.17298
1.17353
1.15936
1.59796
1.69067
1.63121
1.64411
1.23566
1.21561
1.18399
1.48868
1.38268
1.43476
1.3954
1.83605
1.83359
1.8235
1.8274
1.8444
1.84156
1.83034
1.84593
1.71786
1.70796
1.65818
1.68829
1.29065
1.27432
1.25257
1.20886
1.74586
1.75701
1.74456
1.70367
1.71393
1.85725
1.8549
1.78329
1.7698
1.58456
1.61309
1.25007
1.80827
1.80597
1.81601
1.87756
1.87559
1.52402
1.50399
1.81788
1.80422
1.80922
1.80381
1.29542
1.30161
1.78471
1.78761
1.75654
1.74601
1.74973
1.74276
1.84539
1.8493
1.84483
1.46034
1.48244
1.76831
1.76916
1.65322
1.67132
1.80589
1.80274
1.79809
1.77085
1.77181
1.7628
1.75968
1.81273
1.80858
1.80876
1.79041
1.78877
1.78359
1.86381
1.86965
1.85398
1.86542
1.81433
1.81497
1.66088
1.69945
1.6685
1.61468
1.60124
1.80855
1.80107
1.80838
1.81397
1.81788
1.80016
1.82636
1.8092
1.83035
1.86278
1.86457
1.86017
1.63476
1.66695
1.69388
1.66872
1.74061
1.75379
1.73169
1.8642
1.86189
1.85587
1.83695
1.85767
1.83692
1.82678
1.80986
1.84488
1.82381
1.85591
1.85037
1.8172
1.82258
1.81737
1.82568
1.83293
1.77282
1.77945
1.78037
1.78226
1.81502
1.81489
1.80483
1.82194
1.81701
1.82044
1.81048
1.82869
1.82457
1.80562
1.8273
1.82264
1.81002
1.80313
1.7868
1.79446
1.79658
1.79638
1.80241
1.79605
1.80118
1.79766
1.80133
1.80221
1.80636
1.80211
1.79712
1.79774
1.79131
1.799
1.79762
1.79243
1.78713
1.78086
1.80349
1.80571
1.79931
1.80385
1.80388
1.79719
1.79455
1.79644
1.7963
1.52599
1.57164
1.5491
1.59023
1.41518
1.46595
1.38814
1.36672
1.7759
1.76958
1.76712
1.72928
1.69915
1.68769
1.68339
1.67666
1.62971
1.7457
1.74366
1.64727
1.62202
1.67462
1.68044
1.57615
1.5752
1.58721
1.62056
1.61738
1.67003
1.53995
1.56079
1.55857
1.85176
1.84525
1.83995
1.83877
1.82062
1.81094
1.80639
1.84425
1.85083
1.80571
1.80121
1.79536
1.79256
1.80383
1.80627
1.80719
1.80195
1.81374
1.8094
1.81497
1.80829
1.80498
1.80058
1.81637
1.80886
1.79998
1.79339
1.81025
1.80398
1.8699
1.86146
1.87927
1.88049
1.8759
1.87154
1.85484
1.854
1.84488
1.85477
1.86647
1.85599
1.86881
1.86058
1.85591
1.85187
1.84482
1.7892
1.78734
1.78872
1.77402
1.77772
1.76935
1.77391
1.77321
1.77077
1.80411
1.80373
1.79834
1.78078
1.77912
1.78352
1.78285
1.78725
1.79559
1.79634
1.78999
1.79667
1.79953
1.7969
1.7977
1.77981
1.77295
1.77741
1.78061
1.77599
1.78189
1.78422
1.78175
1.77356
1.77559
1.77826
1.78261
1.77094
1.77741
1.71452
1.79934
1.78011
1.78436
1.79872
1.79003
1.7818
1.78522
1.79105
1.79146
1.79021
1.56988
1.56006
1.53099
1.52492
1.60342
1.59062
1.82127
1.82065
1.82342
1.80469
1.80046
1.80616
1.80934
1.8048
1.78579
1.79276
1.80756
1.80633
1.80533
1.77151
1.77189
1.77392
1.7666
1.76576
1.77342
1.76795
1.77054
1.77107
1.76828
1.76493
1.76396
1.76294
1.7676
1.76864
1.77676
1.7814
1.78359
1.77911
1.76197
1.76052
1.76666
1.7687
1.76743
1.78065
1.77766
1.78044
1.77814
1.77421
1.77388
1.77483
1.77754
1.77087
1.77115
1.77496
1.77255
1.81309
1.80336
1.82004
1.81035
1.79749
1.79237
1.7917
1.78997
1.79252
1.78893
1.79384
1.79498
1.78878
1.78212
1.82086
1.81696
1.81593
1.80673
1.80462
1.8113
1.80704
1.81458
1.80584
1.8033
1.81319
1.58796
1.59631
1.57077
1.57608
1.60823
1.62428
1.71842
1.71606
1.70693
1.69594
1.734
1.73534
1.75382
1.59025
1.58346
1.60737
1.5647
1.55731
1.61638
1.59666
1.61811
1.6362
1.71186
1.72743
1.74666
1.73266
1.71884
1.71557
1.75347
1.74193
1.72824
1.70612
1.69111
1.76381
1.76102
1.75384
1.80426
1.80269
1.80473
1.80549
1.80164
1.62469
1.65149
1.62054
1.64821
1.64149
1.73926
1.72051
1.69429
1.66748
1.66108
1.68103
1.67134
1.39084
1.452
1.3627
1.33256
1.35168
1.35562
1.82598
1.83224
1.8272
1.83862
1.8302
1.83225
1.83522
1.85973
1.85839
1.86297
1.85319
1.85476
1.85191
1.84745
1.8365
1.83558
1.83302
1.84193
1.83244
1.84115
1.83313
1.83014
1.84246
1.83924
1.84368
1.75673
1.75675
1.75805
1.75752
1.74873
1.75257
1.74765
1.74857
1.74166
1.74672
1.73313
1.74486
1.73002
1.72731
1.74031
1.73622
1.77449
1.78397
1.77939
1.7797
1.78734
1.75909
1.76252
1.76752
1.80007
1.80682
1.7783
1.77892
1.78304
1.79286
1.78
1.78161
1.79408
1.78743
1.79575
1.78636
1.78414
1.80813
1.78808
1.79571
1.80349
1.80073
1.80039
1.79346
1.79018
1.7825
1.78508
1.77976
1.77756
1.78822
1.81584
1.80612
1.81691
1.80799
1.85395
1.85097
1.82673
1.82869
1.82265
1.82982
1.81743
1.81126
1.4161
1.87663
1.88089
1.85949
1.85363
1.87523
1.87652
1.87247
1.86863
1.79029
1.79164
1.8342
1.83771
1.83339
1.82383
1.81819
1.80221
1.7961
1.79665
1.8
1.79495
1.79117
1.80804
1.64491
1.66176
1.68078
1.68806
1.68858
1.68291
1.75358
1.76197
1.75167
1.73173
1.74687
1.71263
1.76586
1.73404
1.73196
1.69162
1.67571
1.71627
1.7492
1.75907
1.76754
1.81748
1.81251
1.7994
1.77861
1.82475
1.80565
1.80821
1.81362
1.77601
1.78525
1.79708
1.78734
1.81304
1.82531
1.79865
1.81016
1.82245
1.81548
1.82026
1.79382
1.80787
1.81179
1.80147
1.77729
1.80397
1.79625
1.8079
1.84639
1.83469
1.85234
1.84337
1.81938
1.80674
1.83054
1.82648
1.87954
1.87181
1.86301
1.87794
1.8688
1.24963
1.33223
1.36489
1.30523
1.27316
1.33474
1.4354
1.39719
1.37769
1.40774
1.43216
1.43639
1.38208
1.44624
1.55914
1.5758
1.55112
1.50216
1.5971
1.71939
1.67648
1.65888
1.69782
1.72632
1.63433
1.71911
1.72701
1.5331
1.57402
1.57444
1.61031
1.63584
1.60831
1.63416
1.67794
1.68116
1.65263
1.67064
1.73146
1.7475
1.74792
1.75285
1.75893
1.76569
1.77465
1.74832
1.75755
1.74626
1.72567
1.75446
1.71382
1.72375
1.72192
1.71237
1.70756
1.74055
1.74326
1.74625
1.71898
1.72576
1.72567
1.71737
1.70985
1.70828
1.69623
1.6672
1.68065
1.83332
1.84525
1.85461
1.77006
1.78226
1.77158
1.79884
1.8131
1.79665
1.81177
1.81553
1.83004
1.83529
1.83877
1.82449
1.85516
1.84764
1.82277
1.83196
1.80903
1.8106
1.81299
1.80673
1.81035
1.82021
1.81568
1.81777
1.81963
1.81203
1.83362
1.82961
1.83335
1.81526
1.81217
1.81965
1.82259
1.81318
1.82392
1.82057
1.28318
1.25214
1.2417
1.37279
1.32363
1.20235
1.33482
1.3833
1.54351
1.56163
1.59701
1.62173
1.53421
1.56582
1.56283
1.46841
1.50975
1.5059
1.54711
1.4925
1.11127
1.1187
1.20209
1.42357
1.42362
1.38737
1.47024
1.57759
1.70018
1.76344
1.7578
1.7424
1.75943
1.7685
1.56831
1.60362
1.59048
1.21261
1.27445
1.35616
1.2199
1.27304
1.21151
1.75791
1.77237
1.77528
1.77321
1.79254
1.79221
1.77916
1.77974
1.77179
1.79758
1.79272
1.7799
1.78543
1.78167
1.783
1.77953
1.77396
1.77128
1.78464
1.77805
1.78612
1.77606
1.77832
1.78365
1.78313
1.2852
1.30579
1.33527
1.40738
1.38275
1.41432
1.44677
1.49131
1.51418
1.45783
1.49007
1.52435
1.325
1.3647
1.36794
1.39099
1.65931
1.68293
1.70391
1.6412
1.61035
1.73176
1.71387
1.57749
1.62581
1.65005
1.67435
1.72545
1.70534
1.69685
1.71436
1.65756
1.74679
1.7509
1.76809
1.75914
1.74952
1.76653
1.76638
1.73466
1.69234
1.74942
1.73933
1.6891
1.71505
1.79899
1.81452
1.82551
1.80779
1.78724
1.18225
1.18593
1.24049
1.23434
1.37875
1.29188
1.3472
1.25878
1.08536
1.11229
1.09372
1.10366
1.15644
1.15981
1.22133
1.2579
1.2546
1.11118
1.10902
1.08815
1.13111
1.2064
1.24508
1.19855
1.09633
1.15799
1.11789
1.25678
1.20024
1.22217
1.11033
1.14601
1.10934
1.16207
1.11497
1.15565
1.09893
1.08293
1.40441
1.40521
1.46542
1.18732
1.23928
1.17144
1.60448
1.58976
1.48064
1.5247
1.54147
1.48108
1.71711
1.73022
1.79904
1.80157
1.81385
1.79082
1.78005
1.78035
1.75404
1.77305
1.75805
1.79145
1.78414
1.78249
1.7617
1.74743
1.74173
1.78014
1.77012
1.78967
1.75419
1.77679
1.79115
1.76947
1.03821
0.996208
1.04615
1.05521
1.11568
1.10008
1.08992
1.08016
1.12478
1.116
1.09996
1.17724
1.21509
1.13675
1.08992
1.18067
1.08551
1.28305
1.46392
1.44043
1.41223
1.50238
1.55558
1.39674
1.36202
1.33955
1.57793
1.60297
1.53682
1.46435
1.38879
1.42438
1.34584
1.32527
1.43666
1.46104
1.68798
1.6632
1.68324
1.62441
1.59022
1.62078
1.52884
1.562
1.65865
1.68549
1.59519
1.55292
1.10217
1.06886
1.06462
1.07271
1.0928
1.1433
1.1401
1.0787
1.07604
1.03643
1.05011
1.57723
1.60608
1.5853
1.61906
1.65927
1.67384
1.69284
1.66258
1.71184
1.69911
1.68405
1.68778
1.65159
1.6271
1.60326
1.57035
1.64214
1.73083
1.75482
1.75738
1.74959
1.75762
1.74854
1.75753
1.7348
1.72151
1.76454
1.77372
1.78029
1.78007
1.77407
1.76031
1.73926
1.73559
1.77371
1.7751
1.76589
1.74471
1.7586
1.7406
1.7764
1.75228
1.75545
1.7637
1.76355
1.05356
1.0684
1.06709
1.06907
1.65305
1.66449
1.65768
1.65343
1.65519
1.67299
1.66845
1.68135
1.69688
1.6919
1.7324
1.72145
1.72422
1.66074
1.66583
1.67579
1.6757
1.6674
1.68309
1.69607
1.69762
1.68458
1.03109
1.00047
1.06577
1.10322
1.14543
1.18189
1.29194
1.22358
1.25726
1.24549
1.19338
1.17047
1.10634
1.34962
1.38844
1.27259
1.33284
1.45822
1.16462
1.13975
1.25341
1.25087
1.08865
1.06373
1.0568
1.174
1.2373
1.06715
1.0393
1.03254
1.03134
1.06272
1.0588
1.0384
1.06149
1.62057
1.37686
1.32493
1.41263
1.59709
1.66331
1.64309
1.61206
1.54623
1.57798
1.53273
1.54105
1.58514
1.58518
1.60273
1.60273
1.54776
1.58852
1.57484
1.59725
1.58857
1.57301
1.61288
1.59345
1.39599
1.41526
1.35479
1.42202
1.53764
1.58326
1.56048
1.52049
1.50199
1.4335
1.64053
1.55147
1.63543
1.66505
1.07078
1.08606
1.08608
1.08261
1.0869
1.03341
1.0775
1.06874
1.04991
1.04218
1.08415
1.07937
1.09324
1.07945
1.08081
1.08303
1.06355
1.04634
1.07101
1.08185
1.59668
1.59198
1.57034
1.61691
1.07749
1.08402
1.08781
1.07667
1.08112
1.07977
1.09152
1.58141
1.62922
1.57852
1.59573
1.61942
1.6219
1.59873
1.07358
1.07856
1.08465
1.08754
1.08826
1.08891
1.08923
1.08652
1.07361
1.06263
1.06063
0.998514
1.03098
1.03634
1.0866
1.08964
1.08911
1.08815
1.08843
1.04069
1.07342
1.06885
1.02879
1.02028
1.01978
1.0333
1.03329
1.59349
1.64849
1.63046
1.62642
1.60702
1.64231
1.63136
1.63054
1.61628
1.60576
1.61261
1.62391
1.61537
1.59194
1.61035
1.58829
1.59251
1.60948
1.68918
1.70049
1.72136
1.71839
1.67809
1.65682
1.58891
1.59258
1.62035
1.60822
1.58605
1.58844
1.57431
1.60461
1.63624
1.60995
1.58349
1.5776
1.63338
1.61537
1.59853
1.59659
1.53527
1.5455
1.5552
1.37659
1.34903
1.4653
1.5031
1.4135
1.42042
1.4443
1.46057
1.73507
1.67998
1.71055
1.7212
1.74805
1.72486
1.76333
1.73945
1.66934
1.64205
1.71103
1.68297
1.14099
1.0904
1.21458
1.2387
1.25994
1.20462
1.04442
1.05733
1.04486
1.059
1.03698
1.06771
1.08377
1.07476
1.01566
1.01831
1.02121
1.05574
1.0592
1.6778
1.70769
1.69614
1.7121
1.70996
1.70638
1.69467
1.74427
1.73768
1.74578
1.73784
1.72619
1.71889
1.71474
1.69898
1.72228
1.73011
1.69386
1.72441
1.71726
1.7013
1.68638
1.70429
1.65764
1.69292
1.6446
1.65828
1.6612
1.64042
1.5985
1.60925
1.65716
1.65148
1.61741
1.59774
1.66011
1.6422
1.6358
1.69831
1.69757
1.65557
1.68119
1.65534
1.7054
1.68529
1.66339
1.68301
1.63817
1.59642
1.61023
1.59496
1.63358
1.62964
1.60728
1.60986
1.06241
1.0667
1.06991
1.07368
1.08545
1.08611
1.07941
1.06731
1.11787
1.06738
1.07242
1.04216
1.02418
1.06363
1.06256
1.05132
1.04111
1.50695
1.34663
1.3096
1.55122
1.57348
1.43883
1.35964
1.37698
1.67692
1.68615
1.66272
1.70425
1.78023
1.81638
1.79823
1.81172
1.82733
1.79242
1.78012
1.7611
1.74802
1.74831
1.7474
1.76175
1.74187
1.74867
1.72684
1.77208
1.75
1.76653
1.76804
1.75383
1.74841
1.74061
1.74844
1.72017
1.72
1.7239
1.74608
1.73484
1.71668
1.61534
1.57899
1.58374
1.54261
1.5479
1.59914
1.61549
1.61307
1.29547
1.32932
1.25254
1.41354
1.19124
1.2269
1.28898
1.32275
1.35786
1.36854
1.32223
1.36095
1.3259
1.08773
1.13784
1.1292
1.09874
1.10135
1.04796
1.09815
1.18957
1.32344
1.23046
1.11628
1.1763
1.1912
1.12239
1.20036
1.29507
1.23064
1.17696
1.18974
1.21467
1.2281
1.1849
1.1069
1.13271
1.068
1.10659
1.10184
1.07487
1.12327
1.51166
1.47258
1.54346
1.52866
1.54425
1.54488
1.46518
1.46909
1.46685
1.45137
1.56275
1.58793
1.51305
1.77766
1.79165
1.78962
1.79715
1.79737
1.79569
1.78824
1.79238
1.78716
1.79342
1.79466
1.7914
1.7827
1.77634
1.77682
1.75564
1.76595
1.72431
1.78336
1.78194
1.78487
1.78302
1.78782
1.41112
1.43773
1.50194
1.44444
1.4187
1.41513
1.36098
1.31523
1.38066
1.37378
1.31923
1.46924
1.49363
1.4039
1.42036
1.41562
1.48083
1.44286
1.28769
1.36033
1.34863
1.37471
1.34094
1.33097
1.27781
1.82851
1.85164
1.84737
1.83017
1.8555
1.84471
1.83936
1.81974
1.80415
1.83446
1.85377
1.8319
1.40653
1.47686
1.50517
1.45457
1.44232
1.39741
1.49618
1.54802
1.22339
1.28932
1.25431
1.288
1.201
1.26858
1.33075
1.18654
1.24011
1.18414
1.17478
1.25776
1.72448
1.75253
1.73745
1.76221
1.77596
1.86385
1.86416
1.85893
1.86049
1.84484
1.83704
1.79712
1.78793
1.81763
1.8096
1.79964
1.79344
1.8267
1.82635
1.81372
1.79148
1.77078
1.82897
1.82542
1.79189
1.78706
1.79915
1.81805
1.82375
1.79165
1.81136
1.79435
1.78038
1.85095
1.84253
1.84745
1.82146
1.84432
1.82858
1.83576
1.843
1.83273
1.84934
1.84409
1.77047
1.7749
1.73867
1.79031
1.79102
1.80267
1.79949
1.77541
1.78567
1.78406
1.78804
1.79182
1.7933
1.80027
1.7987
1.7906
1.78492
1.78417
1.79654
1.80032
1.79769
1.79125
1.78992
1.78752
1.79728
1.79999
1.77129
1.76578
1.77445
1.7613
1.76644
1.77924
1.78119
1.77982
1.87197
1.86972
1.87745
1.85097
1.85121
1.82804
1.8625
1.84471
1.87137
1.86949
1.86361
1.84688
1.85032
1.83527
1.83902
1.86192
1.86004
1.51028
1.49477
1.49939
1.47984
1.532
1.81162
1.84066
1.8406
1.83498
1.82462
1.82301
1.81846
1.82229
1.83428
1.84352
1.8327
1.85713
1.84692
1.84242
1.82686
1.81346
1.80565
1.81323
1.82991
1.82743
1.83031
1.79029
1.77844
1.78791
1.7851
1.78679
1.82452
1.81997
1.81904
1.81609
1.81856
1.82598
1.82616
1.80571
1.80055
1.76579
1.76017
1.77646
1.7795
1.78236
1.77645
1.76986
1.79613
1.79421
1.80019
1.79862
1.78546
1.79101
1.78956
1.78842
1.78143
1.78136
1.78536
1.78612
1.75521
1.76188
1.76423
1.74954
1.74668
1.75405
1.74927
1.75737
1.75718
1.83607
1.85501
1.85439
1.85139
1.84227
1.84357
1.83925
1.83336
1.83876
1.82875
1.82941
1.82261
1.8154
1.82474
1.82329
1.81178
1.81608
1.82844
1.81121
1.83068
1.82669
1.8493
1.83935
1.85074
1.84943
1.84033
1.83919
1.8489
1.8435
1.84981
1.84761
1.84791
1.85587
1.84944
1.80684
1.80077
1.80933
1.82133
1.81513
1.80492
1.79788
1.70931
1.64797
1.68643
1.69451
1.71024
1.67234
1.69156
1.65791
1.63492
1.82287
1.81817
1.81353
1.81135
1.81438
1.79792
1.79182
1.79049
1.79978
1.79463
1.79891
1.80869
1.80878
1.80736
1.79962
1.7946
1.8053
1.80646
1.79663
1.79451
1.80313
1.79868
1.79716
1.7809
1.77787
1.78119
1.80332
1.80361
1.80186
1.80758
1.79594
1.80589
1.80409
1.8185
1.8123
1.80872
1.81606
1.81775
1.81367
1.80585
1.8175
1.8102
1.63087
1.59687
1.60597
1.62058
1.61529
1.62983
1.64757
1.76006
1.75547
1.75833
1.85957
1.86583
1.85141
1.8578
1.85556
1.84022
1.84927
1.83958
1.83544
1.84138
1.83676
1.82986
1.84868
1.82148
1.83271
1.8548
1.84312
1.84498
1.8318
1.8737
1.87305
1.86097
1.86715
1.862
1.85389
1.86199
1.87451
1.8594
1.85659
1.87113
1.86624
1.88095
1.88925
1.87291
1.86386
1.8641
1.83106
1.86431
1.83299
1.8535
1.84528
1.86413
1.85801
1.87168
1.86603
1.84213
1.84519
1.84108
1.86268
1.85157
1.84435
1.85515
1.84449
1.83786
1.84858
1.85801
1.84878
1.80859
1.81861
1.8353
1.82117
1.81519
1.82946
1.83177
1.83699
1.8326
1.84589
1.83643
1.85341
1.84797
1.83769
1.84478
1.84425
1.71709
1.74808
1.75514
1.7271
1.71219
1.70667
1.67544
1.5432
1.59183
1.5673
1.56627
1.52645
1.53067
1.49684
1.48475
1.80658
1.79969
1.79613
1.80793
1.7916
1.79943
1.80606
1.7996
1.79584
1.79241
1.78745
1.73464
1.75172
1.7394
1.72683
1.74506
1.75562
1.75899
1.87356
1.8682
1.87599
1.85532
1.86891
1.86612
1.88335
1.86644
1.64627
1.60639
1.63692
1.66974
1.70704
1.68014
1.70579
1.72257
1.73655
1.72758
1.75642
1.77291
1.73471
1.70804
1.67853
1.68502
1.60829
1.64171
1.63361
1.65275
1.68656
1.85864
1.85387
1.84814
1.83728
1.85305
1.84181
1.85997
1.8534
1.85757
1.85484
1.86897
1.86902
1.85777
1.8697
1.85794
1.5316
1.58553
1.55682
1.56615
1.5133
1.52484
1.56106
1.59162
1.60403
1.53762
1.535
1.87102
1.86221
1.86435
1.86553
1.87807
1.87566
1.87072
1.87576
1.8689
1.86642
1.76423
1.77851
1.77137
1.77373
1.76631
1.76035
1.77327
1.77324
1.76991
1.75782
1.80434
1.80762
1.81323
1.81244
1.80491
1.81149
1.8048
1.81589
1.80955
1.80686
1.8072
1.79776
1.79664
1.79662
1.79243
1.79442
1.79645
1.78707
1.7879
1.78632
1.78892
1.78742
1.78364
1.81562
1.81792
1.81099
1.80967
1.80473
1.82069
1.821
1.8178
1.81284
1.86632
1.85067
1.86522
1.85743
1.85832
1.85307
1.83396
1.84253
1.8345
1.82437
1.81943
1.83294
1.82833
1.86765
1.86084
1.85489
1.84901
1.84267
1.86377
1.86593
1.86223
1.86782
1.88292
1.87298
1.87867
1.86901
1.8557
1.8795
1.86826
1.86402
1.85905
1.8532
1.84397
1.85886
1.86489
1.85005
1.86788
1.85256
1.87536
1.86498
1.85507
1.83647
1.82802
1.84645
1.82542
1.83104
1.83975
1.83273
1.82728
1.81022
1.81555
1.61038
1.5806
1.60182
1.61131
1.61964
1.60563
1.61931
1.60846
1.59863
1.68801
1.66713
1.65408
1.64645
1.69386
1.71475
1.70178
1.66977
1.66013
1.61432
1.64424
1.62112
1.62755
1.61055
1.64306
1.57477
1.5768
1.86578
1.85383
1.86224
1.8592
1.85013
1.85903
1.84994
1.78939
1.77681
1.78165
1.77598
1.79258
1.7966
1.79333
1.79633
1.79306
1.78854
1.78117
1.78985
1.79059
1.77785
1.7865
1.78827
1.85238
1.8495
1.86016
1.87726
1.86624
1.87204
1.86091
1.85815
1.86273
1.84905
1.88054
1.86815
1.8628
1.86009
1.09084
1.09225
1.08021
1.08089
1.08468
1.07559
1.08206
1.08813
1.07043
1.1067
1.08623
1.08799
1.0891
1.08693
1.08452
1.04182
1.07281
1.07608
1.0709
1.10221
1.08393
1.09769
1.12198
1.09866
1.09923
1.09018
1.12958
1.11764
1.09134
1.08498
1.30296
1.29814
1.44029
1.46734
1.46159
1.36255
1.34829
1.42053
1.40345
1.47283
1.23632
1.29765
1.23398
1.23735
1.27595
1.23824
1.30759
1.28176
1.32982
1.29672
1.47763
1.53795
1.58872
1.47799
1.49804
1.5204
1.50916
1.56387
1.57825
1.53654
1.54117
1.55619
1.50466
1.41098
1.36903
1.44
1.4091
1.42061
1.82626
1.79089
1.79933
1.8204
1.81485
1.82521
1.83082
1.83109
1.83863
1.82465
1.83
1.82009
1.83986
1.83301
1.74795
1.71523
1.74092
1.713
1.71967
1.76343
1.76007
1.74546
1.75851
1.72768
1.72261
1.61773
1.58151
1.67046
1.69831
1.64342
1.70677
1.64762
1.68573
1.7951
1.79723
1.84123
1.84157
1.82215
1.77838
1.64229
1.63371
1.68467
1.67271
1.65967
1.67814
1.78993
1.79373
1.78405
1.79097
1.79476
1.7993
1.79868
1.79689
1.79796
1.80245
1.80789
1.802
1.76307
1.75343
1.76361
1.76702
1.76301
1.76398
1.76166
1.76733
1.76684
1.77252
1.70481
1.67062
1.68519
1.713
1.71949
1.70423
1.68818
1.65476
1.64891
1.71067
1.61863
1.632
1.60009
1.61956
1.75956
1.76471
1.78065
1.74599
1.74702
1.77133
1.7727
1.77338
1.79026
1.78533
1.79481
1.7711
1.78271
1.63436
1.74165
1.69447
1.72259
1.83275
1.83277
1.83123
1.84293
1.83652
1.8449
1.8324
1.83659
1.84137
1.83275
1.8404
1.75654
1.75923
1.78832
1.78276
1.79071
1.79071
1.78979
1.78145
1.78689
1.7827
1.77821
1.77705
1.79591
1.79527
1.78555
1.78265
1.77911
1.80113
1.81601
1.80587
1.81252
1.81339
1.81687
1.81983
1.80113
1.81355
1.56849
1.57803
1.55616
1.5387
1.50376
1.51819
1.52509
1.49017
1.31953
1.36335
1.41854
1.35293
1.8699
1.86475
1.81363
1.81811
1.80418
1.80695
1.8005
1.82319
1.82175
1.81615
1.81116
1.81499
1.80827
1.82592
1.82499
1.81547
1.81838
1.73267
1.7738
1.77546
1.75435
1.76334
1.7613
1.76921
1.76152
1.80179
1.80894
1.80611
1.80967
1.81306
1.80534
1.81885
1.80434
1.39151
1.35968
1.75892
1.79111
1.77815
1.78658
1.78104
1.77234
1.78706
1.78662
1.78735
1.79264
1.57794
1.53712
1.56943
1.6281
1.56148
1.58701
1.53189
1.65717
1.62279
1.63932
1.67166
1.61455
1.57524
1.3943
1.44389
1.3367
1.37803
1.31149
1.32371
1.43693
1.46471
1.40438
1.37715
1.3334
1.46293
1.4673
1.38334
1.43181
1.71411
1.58784
1.56775
1.61558
1.62604
1.64079
1.53248
1.485
1.57666
1.53184
1.65779
1.62277
1.23266
1.22744
1.26184
1.76023
1.74783
1.72943
1.73827
1.69489
1.6638
1.6437
1.10628
1.11607
1.09038
1.08035
1.09481
1.05967
1.06452
1.45227
1.37101
1.50339
1.36503
1.14187
1.23658
1.17793
1.16118
1.15549
1.24001
1.20154
1.15048
1.09027
1.12855
1.10972
1.07137
1.06373
1.07587
1.06882
1.06729
1.06971
1.0432
1.06623
1.65714
1.69547
1.58862
1.64794
1.63085
1.56363
1.57464
1.62121
1.58613
1.68825
1.71087
1.63377
1.64323
1.68592
1.69396
1.68375
1.71957
1.69554
1.69952
1.73275
1.71833
1.72621
1.06575
1.0489
1.06107
1.03933
1.06769
1.05796
0.992552
0.972342
1.04099
1.08987
1.07009
1.21094
1.3561
1.14531
1.11162
1.10819
1.20689
1.27984
1.26511
1.32207
1.12866
1.12274
1.62349
1.60984
1.63566
1.64444
1.67731
1.6731
1.68781
1.67442
1.64851
1.683
1.67344
1.68899
1.68375
1.52095
1.57993
1.56525
1.48361
1.50403
1.45816
1.50812
1.53886
1.49631
1.44361
1.52183
1.49559
1.54044
1.52723
1.08609
1.08561
1.08859
1.08813
1.08776
1.08931
1.08233
1.08837
1.08859
1.08998
1.08412
1.08165
1.08158
1.08397
1.08458
1.08758
1.08668
1.55373
1.56317
1.57688
1.64429
1.6379
1.65399
1.65394
1.63647
1.61167
1.62821
1.61599
1.61367
1.65644
1.08548
1.09756
1.08696
1.08637
1.06763
1.04475
1.05942
1.07785
1.09753
1.08696
1.02121
1.03207
1.11295
1.07243
1.05547
1.11988
1.07158
1.08546
1.06954
1.0806
1.08922
1.06577
1.085
1.66706
1.66305
1.71643
1.71321
1.72905
1.73205
1.73181
1.73136
1.73575
1.61072
1.6305
1.63897
1.42053
1.47512
1.32381
1.32246
1.40148
1.45712
1.49794
1.43714
1.44377
1.69203
1.68095
1.64989
1.68938
1.72203
1.79106
1.70777
1.70769
1.66775
1.73293
1.7632
1.75052
1.74439
1.71901
1.72377
1.72896
1.77854
1.78298
1.78379
1.782
1.76979
1.76812
1.71825
1.74405
1.715
1.7354
1.74516
1.74561
1.75013
1.74286
1.75207
1.74396
1.75334
1.74459
1.73717
1.76598
1.75879
1.77195
1.7675
1.74063
1.74651
1.76101
1.75896
1.77519
1.77194
1.62573
1.52883
1.59529
1.60585
1.57418
1.50104
1.42507
1.441
1.49225
1.49153
1.43701
1.42996
1.40564
1.1836
1.18358
1.13969
1.16656
1.17918
1.78616
1.78377
1.78621
1.78468
1.78419
1.53039
1.57224
1.61543
1.56096
1.46134
1.5888
1.62251
1.45508
1.51112
1.508
1.46507
1.39731
1.38309
1.47239
1.39619
1.44024
1.48211
1.3845
1.32772
1.39729
1.43097
1.82401
1.80922
1.83247
1.85158
1.84737
1.86264
1.86655
1.86061
1.8482
1.85169
1.85834
1.85437
1.85529
1.86094
1.85629
1.82915
1.83543
1.83353
1.81397
1.83779
1.83094
1.8326
1.83633
1.84238
1.83318
1.81314
1.82396
1.84183
1.83194
1.81558
1.83101
1.82691
1.82559
1.80987
1.84092
1.83571
1.84723
1.83977
1.813
1.81022
1.73337
1.69427
1.67196
1.71817
1.75725
1.71951
1.68708
1.78709
1.79453
1.78391
1.79632
1.82475
1.84368
1.84526
1.84076
1.83065
1.82916
1.832
1.80233
1.79559
1.80547
1.79949
1.8036
1.8084
1.80985
1.7985
1.79227
1.79063
1.78751
1.77472
1.77504
1.76961
1.76524
1.7737
1.7744
1.76194
1.76882