/*--------------------------------*- C++ -*----------------------------------*\
| =========                 |                                                 |
| \\      /  F ield         | OpenFOAM: The Open Source CFD Toolbox           |
|  \\    /   O peration     | Version:  v1612+                                |
|   \\  /    A nd           | Web:      www.OpenFOAM.com                      |
|    \\/     M anipulation  |                                                 |
\*---------------------------------------------------------------------------*/
FoamFile
{
    version     2.0;
    format      ascii;
    class       volVectorField;
    location    "200";
    object      U;
}
// * * * * * * * * * * * * * * * * * * * * * * * * * * * * * * * * * * * * * //

dimensions      [0 1 -1 0 0 0 0];

internalField   nonuniform List<vector> 
18934
(
(-0.383644 0.749068 -0.311273)
(-0.337118 0.641428 -0.310302)
(-0.308463 0.617391 -0.263582)
(-0.38962 0.765144 -0.317013)
(-0.385209 0.761815 -0.314323)
(-0.383358 0.763793 -0.316518)
(-0.382152 0.759758 -0.316002)
(-0.385344 0.763911 -0.317364)
(-0.380074 0.755109 -0.317396)
(-0.385608 0.754757 -0.315961)
(-0.39079 0.758729 -0.315712)
(-0.390385 0.765432 -0.318527)
(-0.379386 0.74664 -0.315504)
(-0.380927 0.743115 -0.314785)
(-0.382999 0.746335 -0.312904)
(-0.380835 0.751033 -0.315136)
(-0.386797 0.754717 -0.315166)
(-0.388508 0.766878 -0.319131)
(-0.386392 0.759219 -0.313228)
(-0.380586 0.738988 -0.308351)
(-0.387382 0.759907 -0.317287)
(-0.384083 0.748878 -0.315342)
(-0.384433 0.759108 -0.315807)
(-0.380886 0.744803 -0.313035)
(-0.38144 0.773638 -0.308831)
(-0.385306 0.781604 -0.313009)
(-0.380607 0.766219 -0.308651)
(-0.38575 0.769521 -0.308986)
(-0.382803 0.782086 -0.311098)
(-0.385712 0.785487 -0.311766)
(-0.381868 0.775427 -0.308621)
(-0.387209 0.768532 -0.303533)
(-0.382075 0.76313 -0.304823)
(-0.385724 0.777621 -0.310343)
(-0.381242 0.775096 -0.305565)
(-0.382377 0.77153 -0.303749)
(-0.388137 0.778378 -0.305485)
(-0.383607 0.764963 -0.304439)
(-0.384471 0.768982 -0.306068)
(-0.340833 0.664826 -0.26211)
(-0.313983 0.605286 -0.241353)
(-0.365537 0.710644 -0.284552)
(-0.343338 0.664854 -0.268084)
(-0.373491 0.719795 -0.292904)
(-0.37137 0.710789 -0.290507)
(-0.370777 0.716837 -0.293705)
(-0.366188 0.702355 -0.287612)
(-0.356534 0.674156 -0.273954)
(-0.332605 0.644106 -0.260645)
(-0.34296 0.657419 -0.263089)
(-0.328909 0.630669 -0.256469)
(-0.32178 0.627473 -0.25322)
(-0.313738 0.599984 -0.241501)
(-0.353594 0.677904 -0.272701)
(-0.325752 0.633267 -0.260536)
(-0.305165 0.59694 -0.24203)
(-0.384081 0.757998 -0.316685)
(-0.382946 0.757936 -0.316286)
(-0.386185 0.765626 -0.317721)
(-0.383023 0.762307 -0.317522)
(-0.38896 0.764966 -0.314257)
(-0.383648 0.76262 -0.31884)
(-0.380387 0.770224 -0.317249)
(-0.384066 0.766561 -0.305398)
(-0.380387 0.766377 -0.301433)
(-0.381672 0.758264 -0.303523)
(-0.381564 0.759835 -0.303756)
(-0.383333 0.75805 -0.304065)
(-0.384157 0.761301 -0.301702)
(-0.38455 0.764009 -0.301916)
(-0.377814 0.754951 -0.303492)
(-0.383153 0.761006 -0.302984)
(-0.288743 0.544865 -0.266653)
(-0.271498 0.555458 -0.281471)
(-0.263211 0.550869 -0.275956)
(-0.296083 0.54112 -0.25884)
(-0.26176 0.560949 -0.283586)
(-0.284113 0.547867 -0.268065)
(-0.266803 0.571466 -0.293249)
(-0.291782 0.539077 -0.2642)
(-0.27761 0.546013 -0.274091)
(-0.259098 0.558887 -0.305971)
(-0.264624 0.577509 -0.31297)
(-0.275062 0.555136 -0.272502)
(-0.271013 0.566253 -0.28324)
(-0.27544 0.558919 -0.273433)
(-0.284491 0.544732 -0.277226)
(-0.293767 0.542076 -0.262898)
(-0.331306 0.727473 -0.297862)
(-0.328835 0.714846 -0.283233)
(-0.312749 0.686991 -0.273967)
(-0.339413 0.746162 -0.299793)
(-0.33384 0.731195 -0.299831)
(-0.337465 0.744586 -0.296244)
(-0.330858 0.7244 -0.295966)
(-0.307269 0.675948 -0.270747)
(-0.344624 0.754314 -0.311629)
(-0.329359 0.730103 -0.301264)
(-0.326333 0.724692 -0.293097)
(-0.316232 0.697614 -0.278329)
(-0.331046 0.731877 -0.294683)
(-0.329029 0.73586 -0.297439)
(-0.33302 0.743263 -0.294949)
(-0.334469 0.739017 -0.291233)
(-0.318415 0.695456 -0.280309)
(-0.332613 0.741105 -0.300357)
(-0.333418 0.737799 -0.289615)
(-0.328417 0.730404 -0.293741)
(-0.336676 0.746607 -0.292832)
(-0.330886 0.710058 -0.257635)
(-0.332064 0.711362 -0.257038)
(-0.319028 0.697961 -0.25304)
(-0.337038 0.733668 -0.260588)
(-0.341748 0.723715 -0.261542)
(-0.337848 0.734023 -0.265924)
(-0.340048 0.710134 -0.255179)
(-0.340825 0.711941 -0.247497)
(-0.326312 0.724768 -0.256115)
(-0.335434 0.706135 -0.249973)
(-0.342957 0.726317 -0.256773)
(-0.342713 0.722252 -0.254018)
(-0.340192 0.716339 -0.249979)
(-0.331202 0.719605 -0.252459)
(-0.338627 0.727397 -0.258203)
(-0.339589 0.714043 -0.281227)
(-0.354718 0.748853 -0.295026)
(-0.34099 0.715053 -0.283077)
(-0.328862 0.69556 -0.275564)
(-0.332238 0.695531 -0.273715)
(-0.338819 0.731075 -0.293403)
(-0.346933 0.723899 -0.284698)
(-0.354206 0.753886 -0.29429)
(-0.366774 0.778429 -0.30266)
(-0.354983 0.756886 -0.302551)
(-0.361898 0.762518 -0.305964)
(-0.364809 0.774336 -0.301566)
(-0.334322 0.691651 -0.280506)
(-0.342489 0.716579 -0.284218)
(-0.337982 0.722054 -0.287746)
(-0.336815 0.711281 -0.283098)
(-0.334901 0.715133 -0.282952)
(-0.325588 0.670908 -0.263626)
(-0.359762 0.763565 -0.301774)
(-0.359555 0.764309 -0.302315)
(-0.366851 0.769665 -0.30164)
(-0.33531 0.69332 -0.275614)
(-0.358581 0.671682 -0.293666)
(-0.365536 0.671423 -0.290084)
(-0.358135 0.667162 -0.291782)
(-0.337194 0.631581 -0.28125)
(-0.313779 0.592287 -0.258796)
(-0.345074 0.642317 -0.279488)
(-0.308519 0.581674 -0.251661)
(-0.365592 0.667493 -0.292201)
(-0.368998 0.675213 -0.289885)
(-0.345112 0.646495 -0.279568)
(-0.344274 0.644561 -0.276794)
(-0.33855 0.640687 -0.266815)
(-0.338817 0.636679 -0.27732)
(-0.317774 0.592325 -0.260661)
(-0.353466 0.651754 -0.285818)
(-0.31746 0.592125 -0.255898)
(-0.363598 0.677399 -0.290537)
(-0.339262 0.647176 -0.275011)
(-0.327056 0.606788 -0.265014)
(-0.349814 0.544832 -0.305798)
(-0.329487 0.54799 -0.293622)
(-0.31937 0.543361 -0.289078)
(-0.319948 0.544595 -0.279825)
(-0.328289 0.54812 -0.29508)
(-0.33977 0.562866 -0.304971)
(-0.346734 0.564039 -0.310423)
(-0.322981 0.550638 -0.280219)
(-0.345268 0.562085 -0.299098)
(-0.35412 0.579794 -0.301881)
(-0.338879 0.567989 -0.300293)
(-0.347039 0.578058 -0.296002)
(-0.33658 0.565625 -0.287951)
(-0.351674 0.58141 -0.314386)
(-0.353159 0.579962 -0.307024)
(-0.332689 0.69062 -0.271351)
(-0.309203 0.645052 -0.254082)
(-0.340593 0.701041 -0.272068)
(-0.315847 0.647071 -0.263239)
(-0.358063 0.734318 -0.286639)
(-0.339691 0.689062 -0.274088)
(-0.365761 0.766092 -0.298805)
(-0.371108 0.76425 -0.297131)
(-0.347335 0.729175 -0.280894)
(-0.343184 0.712702 -0.276624)
(-0.365457 0.759065 -0.29526)
(-0.361195 0.759491 -0.294889)
(-0.351604 0.722663 -0.28476)
(-0.365359 0.764215 -0.296124)
(-0.36817 0.766159 -0.297107)
(-0.353072 0.735434 -0.282982)
(-0.310459 0.677559 -0.254691)
(-0.315283 0.687079 -0.254422)
(-0.313947 0.6935 -0.257321)
(-0.311358 0.702272 -0.26322)
(-0.328236 0.737063 -0.273798)
(-0.32459 0.725081 -0.268004)
(-0.344699 0.739766 -0.269609)
(-0.332502 0.729643 -0.266336)
(-0.326487 0.701884 -0.256291)
(-0.327086 0.708305 -0.260059)
(-0.320122 0.710358 -0.26608)
(-0.324517 0.735899 -0.272155)
(-0.326812 0.737888 -0.27341)
(-0.336691 0.738017 -0.270044)
(-0.33311 0.737847 -0.266905)
(-0.327602 0.708869 -0.265169)
(-0.326293 0.726602 -0.270691)
(-0.358673 0.678336 -0.281062)
(-0.350707 0.671006 -0.278866)
(-0.363477 0.688018 -0.282374)
(-0.363261 0.682394 -0.276503)
(-0.35645 0.669869 -0.279306)
(-0.347602 0.665643 -0.269284)
(-0.363042 0.676309 -0.280747)
(-0.372868 0.685713 -0.281694)
(-0.366138 0.672647 -0.274367)
(-0.364714 0.672001 -0.279537)
(-0.364399 0.677874 -0.276847)
(-0.353186 0.661692 -0.278557)
(-0.350128 0.664351 -0.275896)
(-0.348989 0.657726 -0.273229)
(-0.360469 0.668104 -0.275758)
(-0.366852 0.672515 -0.2839)
(-0.366507 0.682831 -0.282519)
(-0.369759 0.684471 -0.286961)
(-0.366929 0.676578 -0.285463)
(-0.351549 0.653769 -0.274179)
(-0.36351 0.669554 -0.284896)
(-0.354648 0.65913 -0.276066)
(-0.38465 0.757301 -0.310443)
(-0.38351 0.760858 -0.306402)
(-0.381213 0.758132 -0.30732)
(-0.385454 0.769303 -0.310378)
(-0.380998 0.761226 -0.308821)
(-0.385843 0.772837 -0.309576)
(-0.383926 0.77341 -0.310908)
(-0.383661 0.766554 -0.31458)
(-0.376817 0.746418 -0.310204)
(-0.377946 0.748114 -0.307937)
(-0.386396 0.760016 -0.311417)
(-0.388804 0.766956 -0.314032)
(-0.387825 0.766385 -0.309388)
(-0.38787 0.775066 -0.311996)
(-0.386132 0.763944 -0.314812)
(-0.381806 0.756681 -0.311062)
(-0.38409 0.756638 -0.312852)
(-0.387982 0.766734 -0.315026)
(-0.392413 0.773841 -0.31379)
(-0.391853 0.772618 -0.316411)
(-0.388582 0.762047 -0.311661)
(-0.296236 0.615651 -0.2676)
(-0.298869 0.607465 -0.257)
(-0.294107 0.638789 -0.27128)
(-0.292988 0.646169 -0.265942)
(-0.28495 0.622601 -0.272609)
(-0.293325 0.627853 -0.273485)
(-0.299889 0.612651 -0.253907)
(-0.296979 0.624043 -0.250221)
(-0.30149 0.622697 -0.259812)
(-0.29897 0.64266 -0.262719)
(-0.287934 0.630416 -0.270959)
(-0.292197 0.645579 -0.25791)
(-0.29222 0.644741 -0.260659)
(-0.292678 0.632756 -0.257206)
(-0.286386 0.631906 -0.256607)
(-0.292649 0.6324 -0.258531)
(-0.355932 0.682646 -0.294959)
(-0.356017 0.683457 -0.292458)
(-0.348415 0.670623 -0.299626)
(-0.344513 0.669193 -0.29357)
(-0.347784 0.672951 -0.285703)
(-0.345263 0.676373 -0.292401)
(-0.343327 0.681233 -0.29596)
(-0.346639 0.685409 -0.30166)
(-0.338572 0.674962 -0.292865)
(-0.338371 0.670008 -0.290529)
(-0.354178 0.687641 -0.295748)
(-0.353388 0.68336 -0.300187)
(-0.345545 0.68078 -0.293125)
(-0.344362 0.676857 -0.298236)
(-0.350905 0.680757 -0.301131)
(-0.349959 0.674965 -0.296198)
(-0.34945 0.674382 -0.300886)
(-0.349356 0.67523 -0.294489)
(-0.348008 0.686003 -0.295441)
(-0.350753 0.680431 -0.301169)
(-0.350963 0.68061 -0.300195)
(-0.295661 0.656592 -0.237008)
(-0.302486 0.678431 -0.236316)
(-0.303735 0.698156 -0.237044)
(-0.293313 0.648229 -0.231064)
(-0.296071 0.666996 -0.229923)
(-0.311618 0.641821 -0.223981)
(-0.301391 0.661926 -0.227485)
(-0.315589 0.709645 -0.240904)
(-0.322209 0.712306 -0.238646)
(-0.309088 0.673888 -0.232608)
(-0.311154 0.687164 -0.234521)
(-0.303748 0.660967 -0.237286)
(-0.314691 0.669969 -0.236206)
(-0.309338 0.647822 -0.233301)
(-0.38106 0.749672 -0.31198)
(-0.384359 0.758844 -0.31252)
(-0.38057 0.740208 -0.305884)
(-0.370758 0.718151 -0.295446)
(-0.374458 0.728944 -0.300733)
(-0.364512 0.710487 -0.290296)
(-0.363242 0.709676 -0.295493)
(-0.379714 0.741763 -0.307527)
(-0.375128 0.734238 -0.303533)
(-0.366852 0.71109 -0.294251)
(-0.362526 0.651759 -0.270781)
(-0.372787 0.657771 -0.272765)
(-0.351975 0.630183 -0.260025)
(-0.3507 0.624972 -0.258114)
(-0.356366 0.626621 -0.256965)
(-0.359237 0.648409 -0.267981)
(-0.361812 0.646244 -0.275214)
(-0.355594 0.647347 -0.261594)
(-0.334484 0.625315 -0.255123)
(-0.363471 0.648962 -0.261374)
(-0.36959 0.64739 -0.271123)
(-0.350442 0.642238 -0.264347)
(-0.350424 0.638893 -0.265988)
(-0.359534 0.629782 -0.267091)
(-0.348012 0.622211 -0.255916)
(-0.353599 0.623417 -0.261112)
(-0.357689 0.625024 -0.270824)
(-0.367272 0.640777 -0.268127)
(-0.354792 0.637764 -0.260568)
(-0.355477 0.635489 -0.268186)
(-0.344253 0.622026 -0.262766)
(-0.352092 0.625109 -0.276244)
(-0.361445 0.639437 -0.277709)
(-0.348958 0.741351 -0.295173)
(-0.350058 0.747382 -0.297091)
(-0.335545 0.712532 -0.280593)
(-0.337936 0.727454 -0.294845)
(-0.32515 0.692953 -0.27713)
(-0.355988 0.762593 -0.302571)
(-0.358623 0.769657 -0.304316)
(-0.358325 0.765983 -0.304217)
(-0.35653 0.767761 -0.304045)
(-0.359767 0.764721 -0.298111)
(-0.355426 0.766512 -0.307021)
(-0.362147 0.765882 -0.307248)
(-0.352857 0.743006 -0.291243)
(-0.358126 0.768666 -0.302179)
(-0.356531 0.756435 -0.299143)
(-0.362956 0.774982 -0.302833)
(-0.358511 0.75924 -0.297898)
(-0.361762 0.772215 -0.310079)
(-0.363606 0.775784 -0.304526)
(-0.338883 0.660921 -0.308426)
(-0.345295 0.657157 -0.307463)
(-0.329459 0.638194 -0.295005)
(-0.327842 0.627813 -0.290978)
(-0.330116 0.637208 -0.300956)
(-0.316645 0.625073 -0.28643)
(-0.29884 0.585304 -0.270254)
(-0.335771 0.659072 -0.308787)
(-0.335624 0.660843 -0.305982)
(-0.334627 0.657415 -0.30764)
(-0.328539 0.642219 -0.299409)
(-0.341958 0.652085 -0.309357)
(-0.334344 0.642608 -0.29798)
(-0.311706 0.605073 -0.277338)
(-0.307722 0.601514 -0.278903)
(-0.30575 0.599429 -0.276075)
(-0.283409 0.5873 -0.235438)
(-0.296109 0.615979 -0.226767)
(-0.303891 0.623695 -0.216844)
(-0.306493 0.595305 -0.227604)
(-0.299442 0.616333 -0.220997)
(-0.284218 0.561445 -0.224377)
(-0.289754 0.559906 -0.244988)
(-0.294645 0.547559 -0.252676)
(-0.276586 0.58103 -0.232283)
(-0.285146 0.578249 -0.234716)
(-0.287951 0.588979 -0.225036)
(-0.295371 0.565174 -0.230915)
(-0.292743 0.555113 -0.240026)
(-0.293883 0.537959 -0.250103)
(-0.301343 0.560194 -0.241675)
(-0.296797 0.545487 -0.256059)
(-0.291431 0.560907 -0.228245)
(-0.296237 0.544492 -0.261441)
(-0.293918 0.54584 -0.249251)
(-0.33978 0.645647 -0.27052)
(-0.320242 0.609582 -0.252255)
(-0.342526 0.634757 -0.271965)
(-0.3549 0.664744 -0.279408)
(-0.295888 0.5751 -0.239512)
(-0.361909 0.67322 -0.28425)
(-0.3542 0.670077 -0.278499)
(-0.324954 0.621419 -0.255336)
(-0.367024 0.695678 -0.288486)
(-0.365126 0.694206 -0.287932)
(-0.351757 0.658883 -0.275564)
(-0.344192 0.656581 -0.273507)
(-0.341957 0.650542 -0.277092)
(-0.365746 0.688268 -0.28805)
(-0.314766 0.608809 -0.255984)
(-0.342303 0.650218 -0.278454)
(-0.360274 0.668164 -0.274407)
(-0.359482 0.669556 -0.275323)
(-0.35604 0.664532 -0.267577)
(-0.361772 0.668615 -0.272906)
(-0.363577 0.671535 -0.267394)
(-0.34509 0.645102 -0.262356)
(-0.364956 0.680257 -0.277442)
(-0.359193 0.668923 -0.272274)
(-0.323189 0.618554 -0.248842)
(-0.342532 0.650575 -0.26341)
(-0.373897 0.701536 -0.285236)
(-0.37438 0.699303 -0.282133)
(-0.359197 0.675859 -0.27226)
(-0.351651 0.658548 -0.267073)
(-0.342809 0.641478 -0.259528)
(-0.359292 0.672882 -0.27344)
(-0.356079 0.666446 -0.268768)
(-0.336693 0.631894 -0.254654)
(-0.373906 0.761311 -0.306567)
(-0.373228 0.758393 -0.308373)
(-0.365802 0.748456 -0.306913)
(-0.377105 0.762866 -0.308395)
(-0.377547 0.769928 -0.307189)
(-0.373729 0.761795 -0.305809)
(-0.375096 0.780116 -0.312023)
(-0.369824 0.754408 -0.307668)
(-0.369852 0.752091 -0.302467)
(-0.365288 0.76489 -0.310635)
(-0.365372 0.758017 -0.309216)
(-0.366646 0.759558 -0.309688)
(-0.375844 0.777211 -0.310806)
(-0.374595 0.759364 -0.305142)
(-0.373979 0.775077 -0.310024)
(-0.37109 0.764418 -0.312328)
(-0.374728 0.785919 -0.315763)
(-0.374973 0.781263 -0.315721)
(-0.33833 0.744146 -0.297086)
(-0.331731 0.727133 -0.289195)
(-0.336996 0.732321 -0.291284)
(-0.333532 0.724452 -0.284646)
(-0.333845 0.732927 -0.290113)
(-0.328106 0.712614 -0.281825)
(-0.333361 0.729783 -0.287523)
(-0.325495 0.708948 -0.278591)
(-0.343286 0.745291 -0.300932)
(-0.342884 0.7464 -0.302443)
(-0.347779 0.752784 -0.294512)
(-0.344163 0.753525 -0.295231)
(-0.340632 0.751204 -0.293607)
(-0.323688 0.694067 -0.276064)
(-0.331982 0.734159 -0.296534)
(-0.336841 0.741945 -0.294423)
(-0.325342 0.715053 -0.284146)
(-0.343823 0.748212 -0.298132)
(-0.337483 0.742876 -0.297274)
(-0.341421 0.749546 -0.28871)
(-0.343273 0.74863 -0.295242)
(-0.336759 0.742522 -0.293737)
(-0.347604 0.736145 -0.274876)
(-0.342749 0.729402 -0.273693)
(-0.333878 0.694876 -0.272757)
(-0.333766 0.701324 -0.275688)
(-0.352141 0.74657 -0.279252)
(-0.348893 0.743327 -0.27909)
(-0.341146 0.729876 -0.275078)
(-0.323345 0.682752 -0.268016)
(-0.331561 0.705153 -0.268632)
(-0.341616 0.745538 -0.28541)
(-0.339781 0.737813 -0.282217)
(-0.339099 0.738198 -0.285226)
(-0.325268 0.690272 -0.267105)
(-0.336225 0.723542 -0.271761)
(-0.367808 0.749056 -0.320977)
(-0.369738 0.753497 -0.320249)
(-0.353671 0.713403 -0.307419)
(-0.336551 0.68037 -0.294563)
(-0.356841 0.723385 -0.312122)
(-0.360569 0.732848 -0.31833)
(-0.363344 0.735128 -0.317588)
(-0.353081 0.711961 -0.307759)
(-0.372809 0.749712 -0.320689)
(-0.366349 0.74012 -0.31892)
(-0.367716 0.747086 -0.320608)
(-0.368774 0.740229 -0.319154)
(-0.372673 0.748593 -0.321211)
(-0.349719 0.705075 -0.303868)
(-0.359167 0.72162 -0.310304)
(-0.357089 0.717334 -0.305429)
(-0.337699 0.687098 -0.295103)
(-0.351802 0.710157 -0.306915)
(-0.37151 0.720454 -0.301693)
(-0.370562 0.717957 -0.303747)
(-0.37208 0.720211 -0.300238)
(-0.355468 0.684387 -0.287394)
(-0.370096 0.731895 -0.306986)
(-0.369234 0.718911 -0.305269)
(-0.37639 0.731367 -0.307995)
(-0.378668 0.73655 -0.306907)
(-0.376417 0.733662 -0.307353)
(-0.376137 0.729875 -0.308685)
(-0.36989 0.728354 -0.306243)
(-0.357327 0.690902 -0.289565)
(-0.367645 0.710067 -0.304569)
(-0.366203 0.71843 -0.306105)
(-0.373642 0.730392 -0.309056)
(-0.37381 0.726191 -0.308198)
(-0.369144 0.713097 -0.294548)
(-0.360839 0.693209 -0.289816)
(-0.372532 0.722036 -0.303547)
(-0.355068 0.698916 -0.299227)
(-0.366285 0.71363 -0.303906)
(-0.375616 0.725255 -0.306618)
(-0.367671 0.714639 -0.297664)
(-0.357039 0.691671 -0.29392)
(-0.369567 0.717653 -0.309793)
(-0.352999 0.687035 -0.29234)
(-0.380365 0.78587 -0.321546)
(-0.377251 0.767783 -0.32527)
(-0.378126 0.762674 -0.317241)
(-0.376341 0.769628 -0.320397)
(-0.382813 0.785267 -0.319651)
(-0.379465 0.777155 -0.314801)
(-0.376045 0.765666 -0.32218)
(-0.377073 0.770857 -0.316811)
(-0.341643 0.611609 -0.262246)
(-0.331809 0.605322 -0.260883)
(-0.343476 0.631762 -0.266247)
(-0.340686 0.639832 -0.261487)
(-0.337112 0.641363 -0.261915)
(-0.334785 0.622314 -0.262666)
(-0.345265 0.639149 -0.262641)
(-0.328636 0.635397 -0.265367)
(-0.325735 0.634923 -0.256115)
(-0.331706 0.604816 -0.259989)
(-0.330645 0.61336 -0.260743)
(-0.351313 0.62918 -0.261896)
(-0.332497 0.614603 -0.2679)
(-0.331301 0.624821 -0.251323)
(-0.328841 0.614177 -0.249487)
(-0.344768 0.733466 -0.28969)
(-0.338568 0.729984 -0.290398)
(-0.341143 0.7396 -0.297431)
(-0.341766 0.734361 -0.292062)
(-0.329336 0.701311 -0.28753)
(-0.339991 0.734505 -0.299844)
(-0.337779 0.735858 -0.296514)
(-0.335394 0.724563 -0.298681)
(-0.34012 0.738713 -0.298839)
(-0.34123 0.738309 -0.30406)
(-0.336456 0.730858 -0.283829)
(-0.336691 0.70354 -0.276183)
(-0.338705 0.726978 -0.283816)
(-0.328048 0.697048 -0.280934)
(-0.326336 0.693184 -0.283446)
(-0.336994 0.720513 -0.291075)
(-0.329912 0.707924 -0.288235)
(-0.33067 0.699149 -0.276644)
(-0.327104 0.691087 -0.28131)
(-0.332266 0.727403 -0.290531)
(-0.337713 0.711116 -0.283361)
(-0.330351 0.694842 -0.282179)
(-0.326325 0.704487 -0.284387)
(-0.365624 0.77641 -0.315944)
(-0.363871 0.77198 -0.30792)
(-0.322964 0.667874 -0.270783)
(-0.307473 0.633211 -0.255575)
(-0.34029 0.720328 -0.288463)
(-0.322423 0.686601 -0.281838)
(-0.341548 0.716969 -0.287055)
(-0.324511 0.684289 -0.277735)
(-0.306865 0.644542 -0.255858)
(-0.33325 0.699256 -0.285852)
(-0.335805 0.709326 -0.292684)
(-0.36202 0.761636 -0.301361)
(-0.363313 0.767432 -0.309575)
(-0.366598 0.776959 -0.312118)
(-0.333369 0.706138 -0.290443)
(-0.32422 0.678588 -0.266286)
(-0.356 0.753742 -0.30795)
(-0.363794 0.766603 -0.312886)
(-0.355151 0.751087 -0.305076)
(-0.298044 0.615292 -0.240492)
(-0.297068 0.599428 -0.239869)
(-0.288802 0.598842 -0.242444)
(-0.29495 0.603851 -0.240819)
(-0.295942 0.604399 -0.241947)
(-0.303675 0.637495 -0.237546)
(-0.293199 0.602911 -0.245572)
(-0.28816 0.623384 -0.239689)
(-0.30583 0.650937 -0.242917)
(-0.310175 0.650559 -0.245041)
(-0.300995 0.617246 -0.238225)
(-0.300447 0.642388 -0.249322)
(-0.296614 0.633275 -0.252108)
(-0.306864 0.641335 -0.244532)
(-0.300168 0.618288 -0.245733)
(-0.304559 0.63958 -0.244538)
(-0.297935 0.630309 -0.248839)
(-0.306842 0.649553 -0.242654)
(-0.381928 0.738907 -0.306054)
(-0.375516 0.722109 -0.298992)
(-0.378113 0.72639 -0.307429)
(-0.367254 0.70658 -0.292288)
(-0.376981 0.725051 -0.302075)
(-0.371583 0.718866 -0.302585)
(-0.367035 0.713482 -0.296533)
(-0.37168 0.716225 -0.300033)
(-0.367821 0.711958 -0.295844)
(-0.38149 0.739594 -0.307903)
(-0.382539 0.738332 -0.305778)
(-0.362041 0.703648 -0.291636)
(-0.365633 0.705453 -0.294543)
(-0.375749 0.731656 -0.304691)
(-0.379272 0.735007 -0.306555)
(-0.301527 0.698553 -0.314705)
(-0.302831 0.693181 -0.307178)
(-0.30675 0.684189 -0.3009)
(-0.300126 0.6665 -0.297196)
(-0.30942 0.690792 -0.31914)
(-0.302701 0.682636 -0.299986)
(-0.303809 0.686776 -0.320036)
(-0.307919 0.701366 -0.30528)
(-0.312131 0.703412 -0.309751)
(-0.297615 0.655372 -0.299427)
(-0.30959 0.68993 -0.299247)
(-0.29971 0.689199 -0.296693)
(-0.297513 0.673147 -0.299276)
(-0.307018 0.668838 -0.306641)
(-0.308385 0.681284 -0.308345)
(-0.311733 0.696865 -0.319145)
(-0.312549 0.697481 -0.322826)
(-0.314795 0.7009 -0.314876)
(-0.314526 0.706789 -0.309918)
(-0.345163 0.736072 -0.312452)
(-0.338213 0.723126 -0.309254)
(-0.345472 0.738132 -0.313991)
(-0.34097 0.733738 -0.313323)
(-0.342564 0.730298 -0.311502)
(-0.341593 0.720441 -0.304532)
(-0.33615 0.724901 -0.306404)
(-0.344775 0.741297 -0.312264)
(-0.345407 0.73594 -0.311627)
(-0.345424 0.747956 -0.311807)
(-0.34126 0.736232 -0.310621)
(-0.348015 0.748509 -0.31129)
(-0.342164 0.74853 -0.310905)
(-0.343143 0.738506 -0.314979)
(-0.343112 0.732557 -0.30927)
(-0.339958 0.715137 -0.300481)
(-0.340669 0.730741 -0.301065)
(-0.343037 0.736759 -0.309903)
(-0.347023 0.744077 -0.31099)
(-0.343188 0.7448 -0.311797)
(-0.343757 0.740456 -0.311383)
(-0.339853 0.736575 -0.306127)
(-0.342287 0.73698 -0.311916)
(-0.344342 0.736749 -0.313786)
(-0.350434 0.683878 -0.306972)
(-0.339723 0.671381 -0.297236)
(-0.34864 0.677415 -0.305656)
(-0.333952 0.6463 -0.291043)
(-0.327969 0.649336 -0.28813)
(-0.329386 0.641465 -0.286685)
(-0.349436 0.676267 -0.299459)
(-0.322406 0.62209 -0.276402)
(-0.316604 0.622824 -0.270536)
(-0.352288 0.672403 -0.299167)
(-0.339739 0.643883 -0.28546)
(-0.340409 0.646271 -0.290515)
(-0.355112 0.680988 -0.302093)
(-0.353192 0.670457 -0.300574)
(-0.309809 0.63392 -0.26806)
(-0.286853 0.588841 -0.251043)
(-0.308333 0.638187 -0.270657)
(-0.298406 0.604634 -0.258635)
(-0.334623 0.686383 -0.290902)
(-0.322257 0.670156 -0.280711)
(-0.34417 0.723851 -0.302038)
(-0.350933 0.723141 -0.310089)
(-0.323603 0.679971 -0.289264)
(-0.278837 0.568933 -0.24125)
(-0.335507 0.68842 -0.284719)
(-0.31066 0.641884 -0.272769)
(-0.284655 0.585718 -0.243914)
(-0.315585 0.657483 -0.27487)
(-0.294349 0.616837 -0.25676)
(-0.354198 0.733757 -0.311488)
(-0.364656 0.749083 -0.319421)
(-0.351664 0.731522 -0.30947)
(-0.353016 0.730828 -0.307775)
(-0.342722 0.707886 -0.299367)
(-0.316544 0.66424 -0.280782)
(-0.348984 0.723794 -0.306929)
(-0.317072 0.563813 -0.290353)
(-0.329269 0.569304 -0.297271)
(-0.321185 0.546338 -0.299181)
(-0.32548 0.553043 -0.296481)
(-0.319364 0.558251 -0.29495)
(-0.315841 0.567161 -0.299644)
(-0.324007 0.575912 -0.298835)
(-0.350092 0.58485 -0.307672)
(-0.341572 0.575944 -0.311759)
(-0.328765 0.558135 -0.309698)
(-0.341792 0.575928 -0.321876)
(-0.33682 0.573073 -0.315195)
(-0.334182 0.560996 -0.302163)
(-0.340722 0.572832 -0.313327)
(-0.343404 0.583628 -0.322562)
(-0.317834 0.549742 -0.295015)
(-0.311205 0.545199 -0.284347)
(-0.348326 0.588233 -0.320549)
(-0.322923 0.569302 -0.305021)
(-0.336934 0.581516 -0.314583)
(-0.323128 0.556436 -0.295242)
(-0.338601 0.58697 -0.313587)
(-0.339888 0.74333 -0.30061)
(-0.335404 0.732218 -0.309226)
(-0.340366 0.73511 -0.310996)
(-0.340945 0.746809 -0.304064)
(-0.33302 0.734894 -0.302079)
(-0.332422 0.727854 -0.30278)
(-0.342391 0.748388 -0.306468)
(-0.336979 0.735105 -0.302472)
(-0.340529 0.740034 -0.307179)
(-0.333715 0.720162 -0.304846)
(-0.335243 0.732368 -0.305621)
(-0.30441 0.54504 -0.219646)
(-0.306951 0.550868 -0.226978)
(-0.291411 0.537626 -0.264399)
(-0.28726 0.588326 -0.215221)
(-0.310031 0.577226 -0.234609)
(-0.303836 0.583447 -0.22584)
(-0.309818 0.598907 -0.216709)
(-0.298361 0.545584 -0.244478)
(-0.298295 0.574364 -0.225015)
(-0.296539 0.537867 -0.254622)
(-0.30363 0.567703 -0.229656)
(-0.298605 0.566397 -0.240046)
(-0.301146 0.546123 -0.247837)
(-0.297875 0.545677 -0.253435)
(-0.300071 0.552156 -0.237727)
(-0.296802 0.543668 -0.247604)
(-0.290839 0.555646 -0.24572)
(-0.307309 0.55785 -0.235983)
(-0.300364 0.544103 -0.253426)
(-0.298448 0.54946 -0.251958)
(-0.34549 0.754088 -0.288268)
(-0.344282 0.751447 -0.289289)
(-0.33883 0.740706 -0.284223)
(-0.335635 0.746415 -0.288616)
(-0.335077 0.729765 -0.284366)
(-0.334362 0.723955 -0.283228)
(-0.347636 0.746777 -0.290591)
(-0.349497 0.757298 -0.292954)
(-0.345828 0.743762 -0.289685)
(-0.334118 0.72709 -0.284176)
(-0.347077 0.747163 -0.29195)
(-0.340136 0.739576 -0.287938)
(-0.264582 0.603734 -0.270979)
(-0.263561 0.616857 -0.275018)
(-0.271557 0.571203 -0.265065)
(-0.266763 0.586348 -0.268996)
(-0.256624 0.579842 -0.267238)
(-0.251959 0.556834 -0.260172)
(-0.252554 0.620491 -0.289299)
(-0.246107 0.623685 -0.309717)
(-0.286927 0.543635 -0.266345)
(-0.291696 0.5366 -0.257356)
(-0.271266 0.585012 -0.275507)
(-0.276056 0.571035 -0.266383)
(-0.264431 0.583446 -0.2775)
(-0.267714 0.584883 -0.276899)
(-0.271125 0.550953 -0.267102)
(-0.277951 0.553636 -0.268104)
(-0.276326 0.565911 -0.263204)
(-0.246151 0.566701 -0.278811)
(-0.277706 0.556723 -0.267327)
(-0.283443 0.541849 -0.255303)
(-0.294564 0.539069 -0.255146)
(-0.25534 0.552364 -0.268373)
(-0.345049 0.615009 -0.3071)
(-0.346935 0.620201 -0.311824)
(-0.346899 0.619578 -0.312995)
(-0.342553 0.611758 -0.301682)
(-0.353936 0.61361 -0.309742)
(-0.34948 0.604814 -0.302798)
(-0.343349 0.603698 -0.303303)
(-0.350254 0.614608 -0.306621)
(-0.360632 0.61384 -0.310601)
(-0.348726 0.613902 -0.313746)
(-0.345956 0.606156 -0.307024)
(-0.338794 0.603314 -0.298124)
(-0.350667 0.607141 -0.311343)
(-0.348769 0.61033 -0.314472)
(-0.351412 0.607518 -0.314729)
(-0.34279 0.63623 -0.289649)
(-0.346732 0.643333 -0.295104)
(-0.334224 0.63012 -0.286969)
(-0.320375 0.602125 -0.270496)
(-0.352884 0.654038 -0.298445)
(-0.348511 0.649662 -0.293089)
(-0.349254 0.651591 -0.295249)
(-0.347649 0.642744 -0.301295)
(-0.353589 0.646863 -0.295878)
(-0.352458 0.640638 -0.297609)
(-0.350604 0.644148 -0.293346)
(-0.349431 0.653843 -0.29047)
(-0.348693 0.644908 -0.285733)
(-0.347863 0.640167 -0.281916)
(-0.319042 0.603449 -0.262815)
(-0.357364 0.650369 -0.295253)
(-0.347282 0.63467 -0.286762)
(-0.346246 0.643183 -0.296091)
(-0.351413 0.648373 -0.292214)
(-0.340643 0.62701 -0.284883)
(-0.347908 0.753339 -0.30655)
(-0.356065 0.764417 -0.310022)
(-0.35855 0.761683 -0.306149)
(-0.358747 0.764691 -0.310204)
(-0.353879 0.760013 -0.305346)
(-0.325804 0.702269 -0.285704)
(-0.341426 0.731744 -0.296857)
(-0.336909 0.722066 -0.292152)
(-0.315004 0.670068 -0.268587)
(-0.329681 0.698796 -0.278864)
(-0.355047 0.75872 -0.302282)
(-0.33826 0.722033 -0.284144)
(-0.317713 0.677723 -0.273882)
(-0.329623 0.703073 -0.28095)
(-0.323309 0.693276 -0.275528)
(-0.339304 0.719812 -0.28589)
(-0.349553 0.753864 -0.297799)
(-0.343672 0.741576 -0.298053)
(-0.333662 0.642562 -0.277037)
(-0.320842 0.626026 -0.282329)
(-0.342572 0.66852 -0.293483)
(-0.323526 0.632023 -0.276488)
(-0.319984 0.622719 -0.269064)
(-0.35268 0.672416 -0.29959)
(-0.352521 0.68045 -0.30014)
(-0.328664 0.635024 -0.278328)
(-0.326376 0.637058 -0.281417)
(-0.343264 0.672233 -0.297362)
(-0.348985 0.682817 -0.30093)
(-0.353688 0.682193 -0.304145)
(-0.356777 0.684037 -0.303945)
(-0.349848 0.68698 -0.298841)
(-0.359287 0.690427 -0.299633)
(-0.358102 0.692717 -0.302195)
(-0.353416 0.681559 -0.298983)
(-0.346075 0.673754 -0.294065)
(-0.360308 0.692343 -0.302477)
(-0.350266 0.725921 -0.314225)
(-0.350891 0.726917 -0.314348)
(-0.329372 0.690785 -0.304419)
(-0.330184 0.685472 -0.299633)
(-0.346923 0.729908 -0.317582)
(-0.346685 0.723087 -0.310703)
(-0.321227 0.675556 -0.293867)
(-0.345821 0.721514 -0.31264)
(-0.33984 0.713312 -0.312909)
(-0.341137 0.72031 -0.316004)
(-0.31775 0.668992 -0.286464)
(-0.331021 0.698921 -0.302771)
(-0.343725 0.729649 -0.316793)
(-0.330016 0.690069 -0.300561)
(-0.32145 0.677344 -0.292045)
(-0.309946 0.633786 -0.275725)
(-0.325864 0.676478 -0.294804)
(-0.310566 0.650093 -0.285225)
(-0.344256 0.7168 -0.313669)
(-0.346965 0.722663 -0.316459)
(-0.344577 0.731759 -0.31728)
(-0.3416 0.723358 -0.319345)
(-0.325613 0.68233 -0.296408)
(-0.327577 0.686588 -0.299643)
(-0.361396 0.636286 -0.28557)
(-0.351948 0.632926 -0.276725)
(-0.362949 0.6607 -0.283949)
(-0.365332 0.658914 -0.289679)
(-0.344776 0.630228 -0.280736)
(-0.350753 0.639954 -0.27199)
(-0.349372 0.638355 -0.274886)
(-0.355411 0.640041 -0.281874)
(-0.353979 0.637905 -0.278406)
(-0.359697 0.639366 -0.281845)
(-0.360933 0.657513 -0.2813)
(-0.367641 0.655981 -0.290256)
(-0.352882 0.648896 -0.281265)
(-0.359722 0.651724 -0.286379)
(-0.358512 0.647183 -0.279498)
(-0.360982 0.644221 -0.278301)
(-0.364183 0.642931 -0.289266)
(-0.365325 0.651648 -0.287555)
(-0.361348 0.650798 -0.282782)
(-0.347349 0.719251 -0.28782)
(-0.34009 0.699359 -0.279645)
(-0.348104 0.719715 -0.28698)
(-0.329726 0.688142 -0.274116)
(-0.309331 0.640894 -0.256283)
(-0.373723 0.775018 -0.308538)
(-0.371871 0.778031 -0.307166)
(-0.344414 0.717205 -0.285418)
(-0.311539 0.64349 -0.256012)
(-0.36865 0.762045 -0.301508)
(-0.369934 0.767089 -0.304439)
(-0.371814 0.772488 -0.306003)
(-0.337563 0.699265 -0.275801)
(-0.33965 0.714153 -0.285257)
(-0.326028 0.681166 -0.272369)
(-0.367966 0.762906 -0.301897)
(-0.336461 0.700981 -0.277193)
(-0.340383 0.709554 -0.28072)
(-0.369815 0.774227 -0.313116)
(-0.37774 0.781682 -0.312889)
(-0.357845 0.746089 -0.299753)
(-0.378254 0.779055 -0.307407)
(-0.375962 0.766726 -0.308075)
(-0.34632 0.708609 -0.284071)
(-0.337165 0.697102 -0.279825)
(-0.354176 0.690808 -0.29358)
(-0.361216 0.7102 -0.303094)
(-0.302985 0.596439 -0.251257)
(-0.323726 0.642655 -0.275036)
(-0.345039 0.675463 -0.28918)
(-0.357139 0.701024 -0.299636)
(-0.346678 0.676557 -0.290442)
(-0.349889 0.677853 -0.285529)
(-0.351667 0.685727 -0.296065)
(-0.351455 0.6845 -0.294215)
(-0.302919 0.602243 -0.256805)
(-0.283064 0.568235 -0.238798)
(-0.324081 0.636177 -0.270775)
(-0.297569 0.607346 -0.257675)
(-0.276447 0.546 -0.223349)
(-0.298234 0.58241 -0.247467)
(-0.307835 0.610069 -0.262372)
(-0.308001 0.618419 -0.264364)
(-0.302552 0.607594 -0.260421)
(-0.320864 0.637661 -0.272344)