/*--------------------------------*- C++ -*----------------------------------*\
| =========                 |                                                 |
| \\      /  F ield         | OpenFOAM: The Open Source CFD Toolbox           |
|  \\    /   O peration     | Version:  v1612+                                |
|   \\  /    A nd           | Web:      www.OpenFOAM.com                      |
|    \\/     M anipulation  |                                                 |
\*---------------------------------------------------------------------------*/
FoamFile
{
    version     2.0;
    format      ascii;
    class       volScalarField;
    location    "50";
    object      p;
}
// * * * * * * * * * * * * * * * * * * * * * * * * * * * * * * * * * * * * * //

dimensions      [0 2 -2 0 0 0 0];

internalField   nonuniform List<scalar> 
16977
(
1.88859
1.84695
1.85056
1.85455
1.8497
1.84852
1.84499
1.84904
1.85409
1.85572
1.84209
1.83783
1.84687
1.84609
1.84778
1.84661
1.83911
1.84962
1.84465
1.61331
1.61313
1.61455
1.61405
1.60974
1.60438
1.60758
1.60218
1.61032
1.59814
1.5976
1.60074
1.60267
1.6555
1.66076
1.66953
1.67654
1.65835
1.6791
1.69938
1.69635
1.67085
1.70908
1.71855
1.68429
1.69206
1.7006
1.73244
1.72926
1.71251
1.82881
1.85647
1.85058
1.86234
1.82954
1.82677
1.79538
1.87748
1.89026
1.79358
1.8594
1.8345
1.81699
1.86867
1.86637
1.81432
1.8231
1.86449
1.87062
1.87421
1.85045
1.85438
1.86422
1.86088
1.86852
1.84657
1.84786
1.86603
1.85738
1.86281
1.86642
1.85683
1.85627
1.76147
1.74938
1.73934
1.75428
1.74557
1.76721
1.76361
1.76155
1.74262
1.74716
1.73499
1.74199
1.75625
1.77683
1.76862
1.75155
1.76314
1.80883
1.79726
1.78744
1.79062
1.78139
1.79274
1.81668
1.79418
1.8075
1.78719
1.78387
1.80002
1.80758
1.79302
1.80366
1.79263
1.80671
1.80072
1.745
1.74461
1.73696
1.73981
1.74177
1.7566
1.75005
1.73667
1.73659
1.72857
1.72753
1.73429
1.73098
1.73113
1.73416
1.74237
1.73038
1.82447
1.81351
1.81524
1.81494
1.80313
1.80487
1.80402
1.81512
1.81452
1.80694
1.807
1.8103
1.7324
1.72296
1.67863
1.67533
1.72474
1.73801
1.70159
1.68609
1.67361
1.71562
1.71587
1.71073
1.72186
1.70377
1.68587
1.70547
1.71491
1.7348
1.70097
1.83183
1.80749
1.8262
1.8526
1.85037
1.84982
1.83858
1.8538
1.76695
1.77878
1.80504
1.78196
1.81622
1.77608
1.7583
1.75966
1.81625
1.83399
1.80108
1.78285
1.77854
1.80512
1.81331
1.83629
1.82131
1.83839
1.80071
1.73948
1.73246
1.73457
1.73795
1.71647
1.72858
1.74077
1.73667
1.73231
1.73908
1.73839
1.75218
1.7426
1.74494
1.7537
1.74449
1.73895
1.7482
1.74561
1.75203
1.69866
1.72659
1.68949
1.7227
1.73206
1.74821
1.6927
1.70245
1.72363
1.7356
1.75572
1.73609
1.75413
1.73839
1.74499
1.71927
1.70601
1.70902
1.70582
1.71807
1.71099
1.70494
1.71193
1.69615
1.72052
1.70982
1.70325
1.69631
1.71175
1.70582
1.71514
1.71883
1.70921
1.70021
1.71402
1.71179
1.71026
1.71317
1.71965
1.80449
1.80404
1.804
1.79973
1.80173
1.79791
1.80378
1.79935
1.80965
1.81262
1.80176
1.82374
1.8067
1.81042
1.81323
1.81137
1.8059
1.81787
1.74753
1.76274
1.7037
1.7137
1.7965
1.77014
1.77009
1.75133
1.72786
1.71913
1.72729
1.76328
1.75712
1.76097
1.60736
1.60631
1.61381
1.6162
1.64624
1.63833
1.60726
1.6044
1.61596
1.62591
1.72119
1.70453
1.74545
1.7211
1.79157
1.78489
1.70523
1.73545
1.72076
1.73797
1.87495
1.8773
1.86022
1.863
1.87474
1.87854
1.8759
1.87528
1.87666
1.87254
1.86567
1.87516
1.85595
1.87233
1.87659
1.86798
1.86913
1.86566
1.86283
1.84794
1.86229
1.86329
1.87016
1.88278
1.89088
1.86157
1.87827
1.87372
1.85463
1.90034
1.87
1.86159
1.87127
1.87662
1.87221
1.86929
1.79857
1.80077
1.79908
1.79754
1.80358
1.80582
1.81908
1.7998
1.79824
1.81186
1.79945
1.832
1.82285
1.81206
1.81134
1.81256
1.82715
1.81866
1.64736
1.64956
1.63736
1.65628
1.66822
1.67518
1.6254
1.63864
1.64407
1.63496
1.63149
1.75114
1.73116
1.69564
1.69809
1.71171
1.70759
1.69933
1.69621
1.73394
1.75754
1.7025
1.71333
1.7336
1.7406
1.71963
1.7165
1.75587
1.78523
1.78379
1.80205
1.78997
1.79844
1.80058
1.7997
1.78598
1.67392
1.66841
1.68537
1.69224
1.67872
1.67254
1.67754
1.6668
1.66599
1.6831
1.69902
1.68955
1.66891
1.67808
1.66795
1.6876
1.67575
1.66999
1.68865
1.81821
1.82274
1.81366
1.8702
1.86226
1.87201
1.86539
1.86795
1.85825
1.84151
1.8746
1.85439
1.79291
1.88809
1.87217
1.83624
1.79533
1.94349
1.93402
1.93273
1.93644
1.95432
1.9441
1.94706
1.93372
1.90656
1.90419
1.93891
1.91775
1.91684
1.87393
1.88276
1.8602
1.87991
1.86098
1.87624
1.86237
1.84986
1.88012
1.8327
1.82723
1.84667
1.85361
1.82399
1.80685
1.83001
1.68612
1.67733
1.67723
1.68107
1.66966
1.68143
1.66506
1.66185
1.66384
1.65689
1.68154
1.67038
1.66536
1.67496
1.67401
1.69477
1.68739
1.68816
1.6653
1.65867
1.67303
1.65162
1.64615
1.68911
1.68634
1.66641
1.66946
1.80173
1.7965
1.8119
1.80485
1.81163
1.78743
1.80278
1.80864
1.80053
1.7786
1.78387
1.80564
1.80107
1.7927
1.80185
1.79463
1.78447
1.78765
1.77157
1.78199
1.77782
1.78169
1.8204
1.8346
1.83725
1.83223
1.86375
1.85398
1.81496
1.82936
1.83718
1.81532
1.83517
1.85278
1.84795
1.83596
1.84013
1.89068
1.894
1.88125
1.8768
1.87012
1.87385
1.89521
1.89235
1.89282
1.89243
1.87827
1.88582
1.87135
1.87764
1.8768
1.88243
1.89132
1.88197
1.73663
1.73243
1.74443
1.73282
1.72799
1.76593
1.74985
1.74632
1.74892
1.73615
1.75509
1.74895
1.75677
1.60098
1.60147
1.59737
1.59886
1.61307
1.6142
1.6123
1.60868
1.61566
1.60783
1.62251
1.62026
1.61125
1.60848
1.61967
1.74861
1.76164
1.75363
1.76846
1.76427
1.77099
1.76881
1.75374
1.75446
1.75491
1.76622
1.7429
1.77151
1.76214
1.75663
1.87604
1.87817
1.88558
1.9121
1.91365
1.86891
1.87218
1.88078
1.88744
1.84137
1.83828
1.8918
1.90562
1.88325
1.86099
1.85116
1.85914
1.82777
1.86053
1.70814
1.69184
1.71486
1.72295
1.7175
1.69905
1.71068
1.70975
1.73845
1.72309
1.70043
1.72712
1.73697
1.72039
1.73675
1.69538
1.70199
1.72632
1.71004
1.70179
1.80132
1.79924
1.75002
1.75557
1.76317
1.80163
1.80409
1.75011
1.7551
1.78123
1.75619
1.78938
1.76574
1.7812
1.75728
1.73209
1.74986
1.70986
1.71724
1.74586
1.75728
1.7662
1.76022
1.71386
1.71667
1.70669
1.74742
1.75022
1.74865
1.70958
1.7089
1.72672
1.71939
1.71963
1.63879
1.63653
1.63822
1.63269
1.668
1.65975
1.64581
1.64581
1.65868
1.6483
1.65278
1.634
1.63817
1.637
1.63647
1.64145
1.64374
1.65465
1.63471
1.63326
1.86308
1.85934
1.8714
1.86011
1.87652
1.86874
1.85846
1.8712
1.87782
1.86768
1.86894
1.86237
1.8602
1.87449
1.87534
1.86996
1.86149
1.59651
1.59345
1.60439
1.57558
1.58302
1.58786
1.59341
1.5896
1.5983
1.58596
1.58398
1.58425
1.59484
1.58025
1.58831
1.59688
1.58145
1.58675
1.59315
1.59718
1.65958
1.66047
1.6527
1.65471
1.66056
1.66089
1.65029
1.64961
1.66323
1.65964
1.64564
1.64844
1.65078
1.64852
1.64976
1.7645
1.74567
1.7712
1.75893
1.77532
1.75631
1.76918
1.77549
1.73858
1.77299
1.78043
1.77346
1.75022
1.7722
1.72729
1.73645
1.74712
1.73512
1.87508
1.87953
1.86997
1.87297
1.87502
1.87784
1.87864
1.87687
1.8801
1.86701
1.86878
1.87519
1.86963
1.8703
1.87135
1.86914
1.80107
1.79494
1.81351
1.80492
1.78878
1.78324
1.80318
1.79133
1.80934
1.8074
1.80924
1.79614
1.80913
1.79209
1.79447
1.80126
1.79557
1.60034
1.59397
1.58794
1.59703
1.5982
1.58959
1.60705
1.59386
1.59147
1.60289
1.59097
1.5882
1.59415
1.5856
1.59724
1.60019
1.58534
1.91517
1.91386
1.91842
1.7131
1.67785
1.68274
1.70034
1.71993
1.72492
1.66706
1.66091
1.66501
1.81396
1.82454
1.81368
1.85928
1.86841
1.66248
1.66608
1.67166
1.64456
1.63797
1.81973
1.77446
1.78183
1.81445
1.81102
1.85109
1.84897
1.84664
1.67382
1.66411
1.59775
1.59992
1.84654
1.84166
1.84149
1.81314
1.81947
1.81211
1.82085
1.91586
1.91335
1.90726
1.89649
1.6857
1.68037
1.68461
1.58534
1.59183
1.58642
1.5862
1.7779
1.79431
1.79715
1.85487
1.84606
1.80227
1.80909
1.62749
1.64956
1.65289
1.65925
1.67471
1.67991
1.62002
1.6264
1.75421
1.74174
1.73993
1.9472
1.94778
1.93983
1.74404
1.747
1.76093
1.76442
1.58802
1.58768
1.86621
1.86948
1.64328
1.58008
1.5828
1.573
1.61998
1.62856
1.62853
1.74001
1.75431
1.76599
1.84028
1.84777
1.84216
1.76679
1.77755
1.7756
1.62811
1.62695
1.61896
1.6183
1.84291
1.83764
1.88019
1.87931
1.9073
1.90306
1.71057
1.71351
1.70408
1.71007
1.71721
1.72411
1.71472
1.72654
1.62196
1.62255
1.79896
1.78898
1.76175
1.73207
1.74496
1.71311
1.72023
1.65942
1.65399
1.65248
1.67371
1.67545
1.68384
1.69273
1.8168
1.80445
1.78689
1.70904
1.71849
1.71551
1.69246
1.70346
1.69783
1.83176
1.81733
1.69498
1.69386
1.6863
1.70326
1.71645
1.6784
1.70088
1.69276
1.7106
1.69289
1.70764
1.7153
1.72111
1.76145
1.75735
1.74127
1.73256
1.72494
1.76122
1.76009
1.83947
1.80967
1.82878
1.79907
1.71321
1.72333
1.73083
1.70376
1.68219
1.73983
1.75238
1.92386
1.93015
1.91437
1.74858
1.79212
1.77275
1.77288
1.75738
1.74164
1.75952
1.73752
1.79182
1.82803
1.81152
1.8245
1.79341
1.79475
1.85727
1.86601
1.79651
1.80388
1.8387
1.83709
1.82305
1.68363
1.67905
1.65874
1.60762
1.60912
1.62753
1.62422
1.6236
1.61974
1.62964
1.63931
1.65074
1.65843
1.63303
1.63185
1.67049
1.69597
1.66968
1.65559
1.703
1.70643
1.75673
1.72266
1.74686
1.72895
1.70917
1.73944
1.7429
1.72526
1.66844
1.66676
1.68886
1.71578
1.71295
1.69611
1.70688
1.70902
1.75372
1.7322
1.74093
1.75
1.72526
1.69621
1.69011
1.69065
1.79178
1.78435
1.78559
1.73178
1.72993
1.68114
1.68825
1.70421
1.69027
1.694
1.67689
1.69273
1.69507
1.69038
1.6872
1.7479
1.7453
1.85771
1.86133
1.87447
1.87648
1.89945
1.89543
1.88708
1.91111
1.9086
1.91232
1.90954
1.90628
1.88783
1.88806
1.90416
1.90621
1.90238
1.90238
1.90065
1.894
1.89785
1.88631
1.90042
1.89647
1.88654
1.88082
1.89159
1.89744
1.8972
1.89662
1.8874
1.88937
1.88964
1.85048
1.84876
1.8546
1.84288
1.85107
1.85016
1.85917
1.86083
1.84987
1.85592
1.85623
1.84607
1.86746
1.87034
1.87573
1.87557
1.86654
1.88798
1.88227
1.8839
1.88239
1.87479
1.88823
1.89093
1.88991
1.88933
1.88355
1.88512
1.88099
1.8769
1.88178
1.89166
1.88902
1.87952
1.8365
1.82503
1.8608
1.87725
1.8875
1.86969
1.84983
1.85247
1.82888
1.79222
1.80744
1.80505
1.79192
1.80495
1.81175
1.78205
1.78641
1.75842
1.78683
1.77609
1.7936
1.8
1.78859
1.79753
1.78718
1.81136
1.80191
1.81978
1.82637
1.84229
1.82849
1.60943
1.6131
1.61651
1.60401
1.60906
1.63136
1.63807
1.63326
1.63041
1.62732
1.63137
1.62369
1.62541
1.62125
1.6176
1.62366
1.62556
1.62623
1.62012
1.62011
1.61748
1.62274
1.61841
1.6189
1.61169
1.61507
1.61932
1.61771
1.62163
1.60668
1.60481
1.61842
1.59891
1.6101
1.61469
1.76059
1.75909
1.81646
1.82219
1.82386
1.81718
1.70911
1.71977
1.71855
1.79576
1.79372
1.77622
1.80279
1.73201
1.74575
1.74507
1.75422
1.75326
1.75564
1.75578
1.73919
1.75357
1.75167
1.74366
1.75197
1.75522
1.75883
1.57692
1.58074
1.57748
1.58012
1.84384
1.8444
1.85494
1.85585
1.85041
1.86127
1.85318
1.85249
1.8548
1.8602
1.84291
1.84845
1.84552
1.84534
1.84196
1.83786
1.83502
1.83913
1.84436
1.82622
1.81935
1.82951
1.85233
1.85242
1.84904
1.84842
1.84628
1.84011
1.84289
1.83976
1.8429
1.8467
1.83173
1.83208
1.84303
1.83745
1.82007
1.81097
1.81414
1.8017
1.86543
1.88159
1.86681
1.802
1.797
1.80824
1.71481
1.73389
1.71848
1.7341
1.73543
1.71426
1.73306
1.93768
1.92944
1.9387
1.912
1.64718
1.63697
1.641
1.63455
1.62202
1.6241
1.62847
1.6266
1.6111
1.61527
1.62048
1.61433
1.62384
1.74617
1.74974
1.74396
1.6141
1.61724
1.60223
1.60882
1.59526
1.5895
1.58323
1.58734
1.58746
1.59699
1.76853
1.77708
1.66953
1.66207
1.66381
1.66182
1.66585
1.6563
1.6527
1.65087
1.64887
1.64717
1.64807
1.63414
1.64797
1.64864
1.65208
1.6484
1.64347
1.63911
1.63659
1.64513
1.85989
1.86467
1.86389
1.8563
1.85104
1.86544
1.85718
1.86589
1.86431
1.87529
1.87217
1.85546
1.85952
1.86174
1.86859
1.86282
1.85827
1.86132
1.8595
1.86817
1.86789
1.86411
1.8682
1.868
1.86481
1.86727
1.79594
1.79879
1.7696
1.77376
1.78433
1.78324
1.7868
1.58967
1.59242
1.58631
1.58924
1.57604
1.5755
1.58161
1.58601
1.57797
1.58165
1.58154
1.58673
1.59195
1.59109
1.59105
1.70293
1.70041
1.71327
1.79392
1.79505
1.77672
1.76779
1.73538
1.72859
1.77491
1.76855
1.76222
1.78587
1.77247
1.76994
1.78448
1.79366
1.78469
1.75079
1.7592
1.75199
1.74741
1.73744
1.73896
1.71523
1.70882
1.71157
1.74152
1.7411
1.74167
1.76723
1.77711
1.77198
1.75585
1.76178
1.77031
1.76076
1.75179
1.75966
1.76014
1.72479
1.7298
1.72508
1.73732
1.73234
1.71768
1.72364
1.73177
1.94087
1.95088
1.9348
1.94057
1.92691
1.94384
1.9377
1.9364
1.93026
1.92644
1.92471
1.91183
1.89478
1.92855
1.9305
1.90267
1.91635
1.90989
1.90716
1.92787
1.93437
1.92758
1.93119
1.92633
1.93613
1.94307
1.94217
1.95568
1.94243
1.93426
1.92374
1.94196
1.93533
1.92606
1.92708
1.94053
1.95889
1.94972
1.95516
1.95424
1.94296
1.70494
1.70501
1.7104
1.68996
1.68681
1.70809
1.71621
1.71824
1.71772
1.70081
1.69329
1.70931
1.70648
1.72173
1.72283
1.72833
1.80209
1.8114
1.79753
1.63168
1.62016
1.62862
1.64637
1.62651
1.62049
1.64256
1.65654
1.66091
1.66732
1.64997
1.64569
1.67021
1.6533
1.92566
1.92861
1.92721
1.90124
1.91207
1.91031
1.89551
1.90267
1.89846
1.88116
1.85174
1.85187
1.84016
1.82126
1.86737
1.87445
1.81869
1.8299
1.81541
1.83838
1.83828
1.83742
1.82654
1.80531
1.89689
1.89742
1.88319
1.90181
1.92392
1.90765
1.91476
1.90984
1.84615
1.83737
1.81847
1.80708
1.87734
1.88739
1.84971
1.85225
1.87212
1.85861
1.85941
1.86278
1.87293
1.87824
1.86597
1.87381
1.87798
1.87753
1.86285
1.861
1.89476
1.88147
1.87253
1.86413
1.82227
1.82868
1.82965
1.83314
1.82798
1.83544
1.76604
1.77359
1.77573
1.7811
1.78473
1.74591
1.73958
1.75827
1.7591
1.75249
1.74291
1.60052
1.59552
1.5931
1.60541
1.60228
1.61328
1.5847
1.58359
1.58502
1.585
1.58799
1.59198
1.58243
1.58816
1.66649
1.67235
1.65922
1.66222
1.67131
1.67264
1.69992
1.69344
1.69648
1.69159
1.67932
1.67342
1.67649
1.67029
1.66785
1.6675
1.67216
1.69527
1.70022
1.69976
1.68981
1.68862
1.685
1.67696
1.67776
1.67878
1.67829
1.68081
1.68442
1.87877
1.89998
1.8909
1.88236
1.86429
1.87521
1.90843
1.92341
1.91846
1.90197
1.94167
1.94528
1.84357
1.84234
1.82956
1.83051
1.82478
1.82375
1.81436
1.82543
1.81862
1.82523
1.83084
1.82701
1.79219
1.80498
1.80515
1.80912
1.81231
1.81094
1.81239
1.80511
1.81905
1.82424
1.81856
1.81754
1.82073
1.81545
1.84833
1.84489
1.83617
1.84329
1.84815
1.83745
1.83394
1.84187
1.81252
1.82032
1.81487
1.82707
1.82792
1.87266
1.86574
1.87335
1.86885
1.64853
1.66087
1.6627
1.62828
1.61835
1.62666
1.63015
1.61826
1.64488
1.65875
1.83898
1.84676
1.85189
1.85099
1.84388
1.84783
1.85038
1.84154
1.84498
1.84596
1.83861
1.82922
1.83345
1.83869
1.82063
1.83754
1.82873
1.83073
1.81997
1.74888
1.74437
1.79027
1.7833
1.79587
1.79321
1.7569
1.74646
1.76074
1.76367
1.76853
1.77508
1.8008
1.80433
1.79705
1.79519
1.81141
1.81171
1.79168
1.80808
1.75743
1.75551
1.76766
1.76988
1.76202
1.76854
1.75255
1.74788
1.76464
1.7696
1.75241
1.72506
1.78743
1.80312
1.77785
1.86893
1.85664
1.6037
1.61723
1.62114
1.61951
1.63048
1.61411
1.60624
1.62972
1.62797
1.62562
1.62147
1.68946
1.68076
1.67777
1.68843
1.66886
1.6717
1.68447
1.69055
1.63517
1.63463
1.64948
1.63931
1.64123
1.64671
1.67133
1.66941
1.66576
1.67595
1.67584
1.68318
1.88586
1.88323
1.8744
1.83821
1.86276
1.86786
1.84926
1.85618
1.85174
1.84036
1.82126
1.88826
1.89808
1.88635
1.89083
1.88852
1.87225
1.87745
1.88997
1.88129
1.87937
1.87569
1.82316
1.82613
1.82799
1.82647
1.83928
1.84256
1.839
1.84274
1.83396
1.83528
1.82129
1.81838
1.81256
1.80546
1.80316
1.81308
1.81095
1.80854
1.80166
1.80569
1.80903
1.83453
1.84096
1.8408
1.84182
1.83502
1.82077
1.812
1.81197
1.82061
1.81174
1.83016
1.83443
1.68185
1.67257
1.67208
1.67609
1.67046
1.66915
1.67225
1.67516
1.65805
1.65106
1.65466
1.65318
1.64793
1.64592
1.65717
1.65608
1.65279
1.6542
1.65357
1.6825
1.69035
1.6714
1.67528
1.6654
1.66214
1.67978
1.68595
1.66565
1.66929
1.70988
1.69853
1.69706
1.71125
1.71304
1.70955
1.70063
1.70166
1.72323
1.73049
1.7276
1.71903
1.71409
1.71023
1.71393
1.72536
1.72011
1.71694
1.72112
1.73426
1.73145
1.72724
1.72798
1.73641
1.73824
1.66865
1.66718
1.67782
1.67463
1.65736
1.65751
1.68558
1.69064
1.69272
1.61412
1.65518
1.64055
1.92653
1.92068
1.92662
1.92766
1.92461
1.91366
1.90462
1.91421
1.91296
1.91654
1.91694
1.92194
1.92333
1.91521
1.9249
1.91269
1.91115
1.92374
1.91172
1.91335
1.91849
1.91162
1.92163
1.91862
1.92069
1.91426
1.59231
1.60584
1.59684
1.59345
1.59464
1.93063
1.92675
1.91144
1.92908
1.91358
1.91798
1.92015
1.91114
1.90024
1.90055
1.8974
1.90467
1.90575
1.9031
1.90464
1.90899
1.91209
1.895
1.90493
1.90052
1.90612
1.90172
1.91695
1.88872
1.88924
1.91304
1.90141
1.90888
1.89957
1.90334
1.90402
1.88519
1.88515
1.89647
1.93533
1.93546
1.9332
1.93944
1.91999
1.92314
1.9244
1.92751
1.9322
1.92186
1.92756
1.92863
1.91689
1.9086
1.89644
1.90867
1.90657
1.90684
1.75252
1.73844
1.75365
1.74456
1.73947
1.71404
1.71731
1.71251
1.71545
1.71612
1.72309
1.72427
1.7206
1.71739
1.71242
1.70484
1.7071
1.65375
1.6639
1.67038
1.67964
1.66847
1.66083
1.67587
1.68422
1.67682
1.66833
1.66845
1.70115
1.69637
1.70387
1.70559
1.69393
1.69199
1.69829
1.70376
1.68861
1.81591
1.80388
1.8158
1.805
1.80125
1.80683
1.80535
1.8284
1.83657
1.83074
1.82717
1.82962
1.82015
1.82293
1.82083
1.83349
1.8288
1.82733
1.82996
1.83652
1.82134
1.82422
1.84891
1.85292
1.83513
1.82228
1.82616
1.84463
1.83825
1.83412
1.87076
1.86032
1.88533
1.87987
1.87346
1.87091
1.86297
1.86417
1.84483
1.69409
1.68352
1.67929
1.68444
1.6809
1.69405
1.70135
1.68903
1.684
1.6701
1.65651
1.65171
1.67393
1.67222
1.66427
1.66744
1.6798
1.68694
1.68017
1.66423
1.67121
1.68632
1.69448
1.68811
1.68711
1.67905
1.67991
1.71905
1.71872
1.71386
1.84653
1.84551
1.82994
1.8126
1.83551
1.82164
1.79086
1.81146
1.77207
1.77687
1.78536
1.74752
1.74927
1.73055
1.71417
1.7333
1.73948
1.72303
1.74786
1.7497
1.73697
1.74624
1.74241
1.76775
1.77799
1.76416
1.76185
1.75323
1.75121
1.76775
1.76514
1.75655
1.75967
1.72001
1.73214
1.73356
1.72867
1.85311
1.84841
1.84515
1.85315
1.84905
1.82636
1.84571
1.83404
1.83641
1.83409
1.84286
1.83396
1.83113
1.83359
1.82269
1.84017
1.84277
1.84223
1.84793
1.84668
1.83458
1.84091
1.83493
1.84129
1.83958
1.84271
1.84345
1.84343
1.83429
1.83939
1.83445
1.83224
1.84409
1.82602
1.83136
1.84535
1.84622
1.8516
1.85202
1.84555
1.84459
1.85373
1.84595
1.84995
1.84385
1.84519
1.84549
1.84507
1.88144
1.87827
1.86379
1.86982
1.86699
1.86501
1.84956
1.88715
1.87908
1.86916
1.86378
1.79303
1.80307
1.8127
1.8111
1.81249
1.81195
1.82693
1.82442
1.81944
1.81465
1.81975
1.82736
1.83364
1.82856
1.82489
1.84106
1.83102
1.84871
1.8474
1.93342
1.92744
1.92798
1.93581
1.91703
1.92971
1.93877
1.93386
1.93199
1.9257
1.93506
1.93198
1.93865
1.92303
1.94712
1.948
1.93572
1.94049
1.94631
1.93514
1.68697
1.69568
1.69643
1.68771
1.69569
1.68914
1.68778
1.69595
1.69683
1.6908
1.6887
1.70096
1.70542
1.69831
1.68618
1.6903
1.69641
1.70814
1.70314
1.71675
1.71541
1.72262
1.73447
1.71131
1.71484
1.6724
1.67498
1.67439
1.68392
1.6837
1.67629
1.67523
1.68085
1.68919
1.69692
1.70608
1.71078
1.69994
1.6963
1.70662
1.70668
1.70883
1.71089
1.70523
1.69965
1.70441
1.7097
1.70907
1.70658
1.71025
1.58673
1.58498
1.58169
1.5917
1.5933
1.58579
1.58412
1.58371
1.58913
1.59016
1.59635
1.5918
1.59071
1.59336
1.59482
1.59279
1.59287
1.59515
1.59293
1.59694
1.82642
1.83686
1.83926
1.84072
1.83442
1.82219
1.87222
1.84436
1.877
1.88288
1.86545
1.85918
1.86132
1.84735
1.90776
1.91039
1.90239
1.89875
1.88416
1.916
1.9163
1.91111
1.89776
1.90093
1.9193
1.90373
1.90078
1.86503
1.85785
1.85654
1.8565
1.84101
1.87409
1.8596
1.86575
1.88279
1.8726
1.93703
1.92464
1.91318
1.90555
1.92256
1.91525
1.87306
1.8852
1.88782
1.89821
1.89309
1.87729
1.83803
1.82949
1.82826
1.81588
1.82511
1.84044
1.8497
1.84452
1.66122
1.65365
1.64243
1.65312
1.66953
1.68492
1.67442
1.67632
1.94482
1.94373
1.95181
1.93285
1.93613
1.94296
1.94117
1.90368
1.91313
1.91314
1.91593
1.95363
1.93501
1.95664
1.93412
1.95781
1.94669
1.94207
1.9224
1.94498
1.79317
1.78722
1.78813
1.79295
1.78928
1.78308
1.80594
1.80073
1.80894
1.80744
1.77428
1.76705
1.76612
1.7686
1.75852
1.8121
1.81485
1.81935
1.80633
1.71636
1.715
1.70319
1.70395
1.69908
1.70495
1.71633
1.72169
1.70235
1.69284
1.70214
1.6957
1.74601
1.73295
1.73079
1.71756
1.72813
1.73402
1.72841
1.59596
1.59661
1.59225
1.59434
1.59311
1.6001
1.60235
1.59551
1.81324
1.81523
1.74875
1.7401
1.7346
1.73627
1.747
1.7509
1.75257
1.86698
1.85468
1.86543
1.86203
1.86447
1.86468
1.86276
1.86257
1.86304
1.85414
1.85959
1.86044
1.85426
1.85528
1.85407
1.85137
1.85139
1.86834
1.87222
1.85981
1.86294
1.86888
1.86458
1.86638
1.87197
1.87363
1.87594
1.87498
1.87414
1.86803
1.86628
1.87721
1.87041
1.85705
1.85793
1.85739
1.84581
1.86822
1.86486
1.85691
1.8632
1.8677
1.62738
1.62525
1.6256
1.64021
1.63876
1.63016
1.62676
1.63012
1.63566
1.64173
1.64397
1.63464
1.63756
1.64897
1.63044
1.62995
1.65322
1.65353
1.66332
1.65945
1.66209
1.65636
1.66003
1.68364
1.72279
1.712
1.71309
1.70628
1.69686
1.68248
1.68238
1.74177
1.76921
1.752
1.69452
1.69502
1.7514
1.74753
1.76234
1.76608
1.58253
1.58265
1.57897
1.57971
1.58055
1.57479
1.5802
1.57966
1.57753
1.56986
1.75634
1.76868
1.76401
1.75999
1.75231
1.7492
1.75521
1.75218
1.77091
1.76847
1.804
1.79737
1.80373
1.79118
1.78922
1.80152
1.80415
1.80255
1.80469
1.71976
1.72124
1.72521
1.72081
1.72312
1.72032
1.60514
1.60917
1.61344
1.61469
1.60754
1.59823
1.61495
1.61055
1.61565
1.61937
1.60792
1.61471
1.6168
1.60693
1.61692
1.61795
1.61303
1.60898
1.61223
1.91562
1.9525
1.93175
1.90511
1.91407
1.91557
1.92269
1.90614
1.89565
1.70071
1.69014
1.70971
1.69357
1.69734
1.70601
1.72234
1.71195
1.71361
1.70218
1.69413
1.73195
1.7274
1.80431
1.79728
1.81024
1.81395
1.82028
1.79605
1.78135
1.79635
1.78548
1.80865
1.83611
1.82036
1.81809
1.83084
1.83894
1.85826
1.84217
1.83692
1.83168
1.82601
1.85079
1.85015
1.84203
1.84123
1.85574
1.85011
1.84823
1.85079
1.84489
1.85126
1.85121
1.84859
1.85458
1.84602
1.58683
1.5845
1.59061
1.59092
1.57948
1.58088
1.58366
1.57853
1.5819
1.58498
1.58917
1.57854
1.58037
1.73568
1.73619
1.72527
1.7134
1.72257
1.73269
1.73486
1.78688
1.77578
1.78842
1.78747
1.78944
1.77439
1.78119
1.77761
1.77429
1.76834
1.73154
1.7308
1.72712
1.73819
1.72559
1.7216
1.70978
1.71411
1.71372
1.70633
1.70686
1.71198
1.71775
1.7586
1.76434
1.77142
1.77896
1.58898
1.59159
1.58363
1.59179
1.59379
1.59531
1.5896
1.58443
1.58781
1.59417
1.62854
1.63228
1.62687
1.62881
1.62637
1.62678
1.62709
1.63
1.63953
1.62942
1.63374
1.63614
1.63998
1.61792
1.61113
1.60673
1.60729
1.61179
1.61856
1.60643
1.60814
1.6161
1.61587
1.86988
1.8433
1.83019
1.87256
1.87402
1.88862
1.8696
1.86456
1.84108
1.8785
1.86464
1.87312
1.87699
1.87495
1.88687
1.88786
1.88616
1.90034
1.89905
1.89909
1.89662
1.8965
1.8948
1.89198
1.89109
1.89206
1.89024
1.89221
1.89396
1.89388
1.77853
1.77985
1.74964
1.77353
1.75399
1.74542
1.75424
1.78454
1.7352
1.73679
1.76278
1.75314
1.74713
1.78595
1.7881
1.77456
1.77983
1.7735
1.72846
1.73422
1.75248
1.74603
1.73895
1.74082
1.72942
1.73473
1.74095
1.73171
1.70725
1.70175
1.70679
1.70788
1.70295
1.69343
1.69936
1.69806
1.70702
1.95241
1.95444
1.951
1.95221
1.74387
1.75467
1.73437
1.74194
1.75841
1.77822
1.78922
1.78925
1.75413
1.7532
1.81565
1.81584
1.85313
1.82836
1.86014
1.92069
1.92794
1.90479
1.92999
1.77411
1.7845
1.78134
1.77903
1.81122
1.80497
1.79098
1.8445
1.86646
1.81632
1.78737
1.81558
1.82662
1.81999
1.7852
1.77106
1.82532
1.82699
1.71357
1.69766
1.69413
1.70628
1.71533
1.70934
1.70769
1.69873
1.6999
1.6999
1.69629
1.85828
1.85632
1.85191
1.84577
1.85292
1.85663
1.85501
1.85421
1.85656
1.86034
1.85361
1.86107
1.85398
1.85403
1.85641
1.85065
1.60046
1.59551
1.59991
1.60776
1.59915
1.60071
1.60204
1.60508
1.60693
1.59792
1.60134
1.88193
1.88047
1.87473
1.90083
1.89734
1.90777
1.89317
1.92006
1.92193
1.9027
1.92394
1.92742
1.85769
1.8494
1.86611
1.88118
1.86453
1.86992
1.85825
1.85701
1.86023
1.86151
1.84026
1.84546
1.71104
1.70787
1.6995
1.70415
1.70702
1.69832
1.70523
1.70209
1.6991
1.70097
1.69792
1.92601
1.93367
1.92866
1.93512
1.94604
1.94277
1.92596
1.93701
1.94043
1.93415
1.93959
1.93371
1.8448
1.85755
1.862
1.85456
1.83652
1.85174
1.85593
1.84353
1.83497
1.85994
1.84242
1.84905
1.84414
1.72186
1.72326
1.71386
1.72656
1.73432
1.73567
1.7365
1.73848
1.73916
1.72891
1.72143
1.73318
1.72464
1.72671
1.62558
1.63414
1.63291
1.6362
1.64138
1.63173
1.6425
1.64152
1.66755
1.65419
1.66906
1.66807
1.67829
1.66158
1.66059
1.65785
1.65409
1.65011
1.67008
1.67532
1.67197
1.68205
1.84879
1.85129
1.84529
1.84068
1.83539
1.8498
1.84772
1.83837
1.83614
1.84869
1.84165
1.8406
1.59287
1.59878
1.60236
1.59404
1.60574
1.59757
1.59187
1.59343
1.59724
1.60321
1.59937
1.60054
1.59434
1.59474
1.69783
1.70897
1.68485
1.74185
1.76009
1.76322
1.7177
1.69481
1.7359
1.71704
1.61371
1.60906
1.60856
1.61246
1.61338
1.61048
1.6038
1.61843
1.61724
1.60396
1.60546
1.60812
1.61546
1.60261
1.60586
1.60326
1.68883
1.69913
1.7089
1.67732
1.63122
1.64489
1.67942
1.67945
1.65301
1.65561
1.67555
1.67871
1.66149
1.70285
1.70273
1.6618
1.68787
1.70138
1.68021
1.84337
1.89865
1.90697
1.87038
1.89058
1.86684
1.87417
1.86782
1.87378
1.86348
1.65868
1.65478
1.66077
1.64989
1.66409
1.66262
1.64311
1.64024
1.64982
1.72484
1.726
1.89521
1.89024
1.90421
1.90173
1.89741
1.90666
1.90987
1.89839
1.90429
1.89748
1.90785
1.90117
1.85957
1.8611
1.85912
1.86798
1.86048
1.86111
1.86832
1.86849
1.86631
1.82834
1.86089
1.86797
1.83829
1.87028
1.84539
1.8398
1.828
1.82638
1.85469
1.84415
1.77726
1.77883
1.76538
1.77964
1.79254
1.77474
1.78485
1.77367
1.76618
1.77911
1.79138
1.79442
1.80531
1.81991
1.81061
1.80815
1.81092
1.79757
1.8123
1.8182
1.85039
1.84285
1.83903
1.83181
1.83397
1.83833
1.83224
1.83187
1.82489
1.83019
1.84887
1.85867
1.86788
1.8583
1.85929
1.85106
1.85327
1.85596
1.86142
1.85569
1.85186
1.86258
1.85999
1.86435
1.76451
1.77237
1.79244
1.76396
1.75617
1.778
1.77099
1.74969
1.73631
1.69857
1.70182
1.68147
1.71979
1.72121
1.72434
1.72154
1.71308
1.71724
1.69161
1.68936
1.67873
1.66697
1.68838
1.68171
1.65316
1.63975
1.63398
1.6333
1.63312
1.63495
1.65739
1.6583
1.67102
1.63423
1.64084
1.66638
1.67555
1.67494
1.66396
1.64371
1.63669
1.62139
1.62391
1.62054
1.62443
1.63064
1.62834
1.6349
1.6357
1.62932
1.64486
1.64252
1.6349
1.7601
1.76673
1.7561
1.75381
1.75151
1.76131
1.60358
1.60581
1.59977
1.60517
1.60083
1.59922
1.60796
1.62744
1.65049
1.66184
1.66465
1.66606
1.66936
1.65606
1.65521
1.66572
1.66503
1.86616
1.86658
1.86377
1.86271
1.87032
1.86859
1.86662
1.86806
1.86212
1.86733
1.8697
1.8634
1.87109
1.87309
1.86984
1.8709
1.68445
1.70543
1.74294
1.74333
1.69593
1.69407
1.70936
1.72554
1.70734
1.70171
1.7091
1.72976
1.72521
1.72813
1.74879
1.74612
1.71624
1.72317
1.73324
1.72732
1.74286
1.74969
1.76377
1.75548
1.75611
1.76836
1.76679
1.75385
1.74688
1.75865
1.75007
1.75227
1.75865
1.77273
1.75808
1.91664
1.60252
1.59396
1.59793
1.59495
1.61977
1.61326
1.60854
1.60187
1.5861
1.59648
1.59319
1.61172
1.60245
1.6107
1.59836
1.60347
1.81076
1.71344
1.72105
1.90879
1.91011
1.90314
1.9069
1.90658
1.88322
1.89577
1.90981
1.88957
1.87231
1.87417
1.88182
1.8932
1.89397
1.88603
1.87542
1.85858
1.85103
1.89161
1.89215
1.86964
1.86623
1.82504
1.83329
1.85313
1.86517
1.84728
1.84637
1.83323
1.61483
1.6321
1.62774
1.62079
1.63453
1.61527
1.61026
1.60059
1.62922
1.63887
1.63408
1.62462
1.78014
1.77107
1.7665
1.76489
1.7727
1.77392
1.77502
1.78111
1.77965
1.79128
1.81968
1.81815
1.81235
1.8111
1.81191
1.81354
1.61709
1.60824
1.6126
1.64183
1.64528
1.64724
1.65884
1.65553
1.65152
1.66506
1.66227
1.65339
1.65755
1.6538
1.66286
1.6374
1.63223
1.64203
1.64062
1.6347
1.63801
1.64155
1.64747
1.64336
1.64412
1.88003
1.8746
1.87713
1.87702
1.86537
1.87656
1.87789
1.86484
1.87022
1.87322
1.86144
1.86166
1.84911
1.82766
1.83173
1.82796
1.82811
1.83144
1.82763
1.83608
1.83017
1.82814
1.81961
1.82241
1.83303
1.8345
1.79816
1.78376
1.7776
1.79265
1.79196
1.79664
1.80073
1.74307
1.72774
1.74014
1.72951
1.72948
1.73744
1.74588
1.74224
1.74175
1.73606
1.73196
1.73383
1.73425
1.59192
1.58173
1.58136
1.58792
1.58335
1.58259
1.58524
1.59189
1.59418
1.59126
1.91369
1.90936
1.91855
1.88329
1.88852
1.88709
1.87091
1.87986
1.87466
1.90165
1.89361
1.89299
1.8964
1.89396
1.88105
1.8928
1.90058
1.87845
1.89796
1.90094
1.90019
1.90527
1.90288
1.89331
1.90596
1.9001
1.90813
1.90577
1.89753
1.90139
1.90682
1.9076
1.90497
1.72279
1.71776
1.72305
1.64839
1.65718
1.64545
1.6491
1.66994
1.65209
1.65947
1.65913
1.65765
1.64992
1.65152
1.6533
1.67867
1.6714
1.66396
1.67232
1.69184
1.69613
1.68042
1.67917
1.69308
1.69504
1.68812
1.68979
1.68369
1.67958
1.68606
1.69262
1.68953
1.69622
1.69262
1.69255
1.6798
1.68876
1.67896
1.67679
1.68432
1.68239
1.68073
1.6768
1.68402
1.69158
1.84643
1.851
1.84735
1.84085
1.85143
1.85745
1.85306
1.85391
1.84866
1.82738
1.82086
1.81265
1.833
1.82896
1.82521
1.8245
1.80654
1.81155
1.83174
1.82524
1.82466
1.81433
1.83794
1.82872
1.82222
1.82276
1.82295
1.83254
1.81939
1.82393
1.82851
1.82015
1.8196
1.81938
1.81766
1.81596
1.89944
1.88761
1.90333
1.90255
1.89165
1.88266
1.88278
1.87566
1.89501
1.9013
1.89473
1.89433
1.88279
1.73112
1.71785
1.71409
1.71238
1.72768
1.73319
1.7219
1.71882
1.76514
1.75707
1.77147
1.8496
1.82462
1.81873
1.81893
1.83828
1.82468
1.83288
1.82326
1.83022
1.82447
1.83671
1.8395
1.83284
1.83633
1.80545
1.82228
1.83145
1.825
1.81988
1.8248
1.82087
1.81787
1.84673
1.8453
1.85792
1.84727
1.84926
1.84967
1.83888
1.84161
1.8424
1.84862
1.84877
1.84431
1.87701
1.86851
1.88012
1.88071
1.88869
1.88981
1.8808
1.88408
1.88104
1.88714
1.88828
1.85984
1.84736
1.86368
1.86345
1.85352
1.85244
1.84207
1.84031
1.86047
1.84946
1.85017
1.86808
1.87774
1.88282
1.8811
1.87901
1.88797
1.88398
1.88368
1.87551
1.88514
1.88038
1.78702
1.79384
1.82018
1.81363
1.80538
1.8095
1.79438
1.81984
1.83224
1.82359
1.80441
1.81808
1.91023
1.92105
1.92257
1.91119
1.91494
1.91106
1.92833
1.92104
1.92423
1.91867
1.91911
1.93821
1.92628
1.94144
1.92921
1.94369
1.94381
1.91909
1.92677
1.93704
1.93771
1.93916
1.93628
1.93855
1.94643
1.93717
1.93657
1.94821
1.9396
1.95089
1.93982
1.94015
1.9362
1.72116
1.71223
1.68151
1.67785
1.68685
1.68642
1.69645
1.68178
1.69338
1.69426
1.69089
1.69569
1.68822
1.69041
1.59295
1.59962
1.59471
1.83537
1.84284
1.81959
1.8207
1.67211
1.68044
1.68043
1.69251
1.69423
1.69443
1.67633
1.65611
1.66407
1.67736
1.66637
1.68829
1.68583
1.9462
1.92
1.93981
1.92579
1.92111
1.92335
1.91867
1.9104
1.92982
1.93146
1.91718
1.89056
1.90016
1.92286
1.91876
1.91387
1.92155
1.94484
1.9253
1.9317
1.94068
1.929
1.77128
1.75597
1.75358
1.76982
1.77924
1.77302
1.7653