/*--------------------------------*- C++ -*----------------------------------*\
| =========                 |                                                 |
| \\      /  F ield         | OpenFOAM: The Open Source CFD Toolbox           |
|  \\    /   O peration     | Version:  v1612+                                |
|   \\  /    A nd           | Web:      www.OpenFOAM.com                      |
|    \\/     M anipulation  |                                                 |
\*---------------------------------------------------------------------------*/
FoamFile
{
    version     2.0;
    format      ascii;
    class       surfaceScalarField;
    location    "200";
    object      phi;
}
// * * * * * * * * * * * * * * * * * * * * * * * * * * * * * * * * * * * * * //

dimensions      [0 3 -1 0 0 0 0];

internalField   nonuniform List<scalar> 
41868
(
-6.34417e-09
-4.57643e-09
4.01349e-09
6.9071e-09
-4.09604e-09
1.15313e-08
6.39297e-09
-1.38282e-08
2.11532e-09
1.47108e-09
1.84831e-09
-5.43484e-09
-1.31552e-08
7.34099e-09
6.70494e-09
-8.91058e-10
4.10322e-09
-1.4407e-08
-2.85156e-09
-1.1541e-08
3.4001e-09
1.54817e-08
-1.05169e-08
3.07908e-09
-4.75451e-09
1.32147e-09
-1.09742e-08
-3.49039e-10
3.18219e-09
-1.33502e-08
6.73799e-09
2.5098e-09
-9.59708e-09
4.87839e-09
-4.14178e-09
-5.49139e-09
-1.28e-08
6.30499e-09
1.1096e-08
-4.60127e-09
-6.15116e-09
-1.3006e-09
-5.34852e-09
-1.60497e-09
-5.06792e-09
1.00729e-08
-6.27966e-09
1.09796e-08
1.56468e-10
-4.99957e-09
9.72135e-09
7.32596e-09
-3.47347e-09
-3.69632e-09
-2.56079e-09
5.36212e-09
-9.08113e-09
-1.08141e-08
3.18526e-09
-3.84229e-09
-2.33993e-10
-4.30943e-09
5.4843e-09
1.00295e-08
-1.13746e-09
-1.18163e-08
2.92414e-09
-5.00412e-10
-1.61176e-09
1.21417e-08
-5.51551e-09
-9.67799e-10
5.98289e-09
-7.0664e-09
4.13412e-10
-4.47357e-09
-6.39232e-09
-9.50416e-10
6.93893e-09
1.12789e-08
-7.81274e-09
-1.04052e-08
-3.83625e-10
8.39453e-10
6.48302e-09
9.33806e-10
9.96147e-09
-8.19272e-09
7.42035e-09
-6.85066e-09
-5.81566e-09
-7.68584e-09
7.65186e-09
8.02493e-09
9.76917e-10
-2.09008e-09
-6.91175e-09
-5.49651e-09
5.8356e-09
7.71407e-09
-8.69459e-10
-5.86771e-09
1.70308e-09
5.14505e-10
6.24066e-09
-7.85618e-09
-4.7768e-09
8.77332e-10
-4.40659e-10
-9.46216e-09
-2.1413e-09
-6.58433e-09
-9.43261e-09
-6.61767e-09
-2.3513e-09
6.19736e-09
2.77167e-09
2.94239e-09
-4.59224e-09
-4.96773e-09
-6.29914e-09
-4.15538e-09
1.33972e-08
9.57602e-09
-3.15702e-09
-3.85632e-09
-2.56243e-09
7.45238e-10
6.53384e-09
2.29704e-09
-3.5127e-09
-5.94338e-09
3.42864e-09
-2.12684e-09
-5.89393e-09
1.289e-09
-2.11597e-10
4.30373e-10
8.79737e-09
-3.03033e-09
3.51659e-09
-8.20813e-10
-7.42502e-09
4.72939e-09
2.27174e-09
1.72639e-09
-4.81458e-10
1.48194e-09
4.57669e-09
-5.31336e-09
-6.46037e-09
-3.67885e-09
5.59117e-09
-1.18099e-10
9.1442e-09
3.36675e-09
-3.27559e-09
-9.23551e-09
2.53495e-09
4.08355e-09
2.52556e-09
5.94328e-09
-5.03956e-09
1.79537e-09
5.88311e-09
2.59505e-09
3.99413e-09
-2.69883e-10
-4.77369e-09
1.04933e-09
1.45204e-09
-2.7921e-09
5.33406e-09
4.12722e-09
-6.10841e-09
1.71126e-09
-2.7492e-09
8.32839e-09
-1.06973e-08
8.67237e-09
-1.37007e-09
-5.96046e-09
-1.46952e-09
-3.62601e-09
6.75983e-09
-1.80265e-09
-2.80507e-11
-1.87596e-09
-1.1477e-09
2.31556e-10
-3.63581e-09
-3.01394e-09
-8.23187e-10
-4.18271e-09
2.81877e-09
-5.11153e-09
-1.3162e-10
1.36994e-08
-2.41257e-09
-9.97217e-10
-1.02896e-08
3.33833e-09
4.75435e-09
5.60669e-09
-8.06709e-09
4.67774e-09
6.72767e-09
9.56675e-09
-2.8963e-09
-9.08302e-09
-1.522e-09
3.02166e-09
1.28392e-08
-1.09518e-08
-2.88464e-09
6.89526e-09
1.28201e-09
4.6619e-09
3.57432e-09
8.07529e-09
1.15586e-09
-4.02021e-09
7.54207e-09
5.17945e-09
-8.6885e-10
-7.20688e-09
3.18955e-09
4.67899e-10
5.17815e-09
4.33494e-09
-8.2311e-09
-3.25697e-09
7.98715e-09
-1.62591e-09
7.95266e-10
-2.86881e-09
4.78999e-09
3.33514e-09
-4.75007e-09
5.46058e-10
5.12997e-09
-2.43021e-09
6.35387e-10
6.35238e-10
1.03588e-08
-6.09184e-09
-1.00812e-09
-3.25883e-09
-1.83045e-09
2.96472e-09
9.30571e-09
-7.51519e-09
-7.88232e-09
4.56862e-10
7.01842e-09
2.89857e-09
-9.10266e-09
6.66093e-09
-7.08516e-09
2.32132e-09
7.66241e-09
5.73336e-09
-8.60878e-09
-6.22724e-09
-1.72319e-09
3.71379e-10
6.75896e-09
-5.39624e-09
-2.37082e-09
1.03106e-09
-1.00171e-09
-4.87651e-09
-5.85384e-09
7.17345e-09
1.29408e-09
-3.55722e-10
-9.5471e-09
6.73591e-09
8.11286e-10
-6.2531e-09
4.90097e-09
1.11757e-10
1.98607e-09
-5.88663e-09
-9.75945e-10
1.03319e-09
9.65033e-10
-8.8359e-09
-4.46212e-10
-4.6291e-09
-4.8774e-09
1.42438e-09
4.86518e-10
5.22104e-09
-7.13189e-09
-4.82104e-09
1.12456e-09
5.12096e-09
-6.03425e-09
1.33804e-09
5.18274e-09
3.38107e-09
1.93201e-09
-9.20638e-11
-3.12957e-09
4.26486e-09
-5.57388e-09
4.43856e-09
9.3392e-10
-4.00233e-09
-6.11857e-11
-3.4989e-09
1.16997e-08
-3.93586e-09
-4.71552e-09
-6.08025e-09
7.29686e-09
2.45856e-09
4.32484e-09
-3.97292e-11
-6.74363e-09
6.06059e-09
-7.25462e-09
3.65261e-09
-4.04773e-11
2.0192e-10
-5.73529e-09
-3.85292e-09
7.13049e-11
1.08974e-09
-1.25023e-09
-5.91975e-09
-8.78535e-10
6.29312e-09
5.17162e-09
8.48524e-10
-1.46126e-08
9.53683e-09
1.62948e-09
3.44611e-09
3.34939e-09
1.8592e-08
-5.66006e-09
-1.62814e-08
1.1565e-08
-6.6407e-10
-7.55159e-09
4.19834e-09
-2.47427e-09
1.68679e-08
1.39335e-08
1.82982e-09
-1.33919e-08
1.53446e-08
3.29931e-09
-5.25203e-09
-2.37856e-09
-1.66734e-08
1.41227e-08
-5.25357e-09
-9.53325e-09
1.62016e-08
-9.77066e-09
7.69168e-09
2.25418e-09
1.21475e-08
1.79992e-09
5.71378e-09
-7.41329e-09
-1.32453e-08
1.49448e-08
-6.9651e-09
5.9217e-09
3.29751e-09
1.40981e-08
-2.17303e-08
-1.90824e-08
5.30524e-09
1.94393e-08
-5.66218e-09
-1.63951e-08
-1.12725e-08
8.58525e-09
-1.70987e-08
-4.04973e-09
1.76074e-08
3.54092e-09
-1.93956e-08
1.15233e-08
-2.28538e-10
1.37311e-10
2.27753e-08
1.47811e-08
-3.12052e-09
-1.3039e-08
1.51673e-08
1.30511e-08
-1.51797e-08
6.65106e-09
-2.11087e-08
1.41869e-09
3.77874e-09
1.29206e-08
-1.53208e-09
1.87998e-09
-1.10406e-09
5.87505e-09
1.31475e-08
1.7834e-09
1.07292e-09
-7.98152e-09
1.52979e-08
-8.38963e-09
-6.15175e-09
1.58119e-08
-8.58756e-09
-9.00885e-09
1.03185e-08
-7.46177e-09
1.03596e-08
-5.18842e-09
2.45682e-09
-7.62821e-09
1.59565e-08
2.15179e-09
-1.43298e-08
1.34999e-08
1.25682e-08
-5.89832e-09
8.27623e-09
1.04925e-09
-1.5087e-09
-4.18208e-09
-3.21226e-09
8.90312e-09
-1.64098e-09
3.49432e-09
-3.36198e-09
-5.95391e-09
1.02672e-08
-8.49536e-09
2.09544e-09
-9.69033e-09
4.94565e-09
-7.63075e-09
1.87096e-09
8.14276e-10
-7.62233e-09
6.63301e-09
5.93497e-09
6.15444e-09
-5.52855e-09
3.51005e-09
-4.13594e-09
1.97903e-09
1.25478e-08
-8.37231e-09
-3.74962e-10
5.1136e-09
1.17917e-09
-2.99344e-09
-5.80801e-09
-1.55761e-09
-4.89394e-09
-5.30667e-09
5.23288e-09
1.94484e-09
7.55746e-09
-5.62072e-09
-4.91344e-10
2.74219e-09
-2.22583e-09
9.43775e-09
-3.9545e-09
8.36168e-09
8.13504e-09
-9.03308e-09
3.80559e-09
1.69439e-08
-2.37671e-09
-1.1888e-08
-2.67931e-09
1.23872e-08
-2.59179e-09
7.14846e-09
1.02833e-08
1.68143e-08
-1.47104e-08
-3.29052e-09
3.45876e-10
1.3228e-08
7.18468e-10
-1.63334e-08
1.23246e-08
1.54211e-08
-4.91574e-09
-1.28822e-08
8.40486e-09
4.42443e-09
-3.58234e-09
-8.58709e-09
1.25153e-08
-1.41364e-08
-1.16675e-08
1.14853e-08
-1.32541e-08
2.2714e-10
-3.30649e-09
1.62413e-08
-1.10965e-09
-2.00473e-08
3.90216e-09
6.71576e-10
-1.76025e-08
1.60707e-08
-1.17222e-08
-2.30758e-08
4.36356e-09
5.83646e-09
-3.52462e-09
-3.31168e-09
-6.28295e-09
1.3119e-08
-3.31423e-09
-5.89984e-09
5.68922e-09
2.07868e-09
-5.60098e-09
3.95673e-09
-4.34519e-10
-6.90404e-09
6.22246e-09
2.76019e-09
6.5431e-09
-3.00536e-09
-9.13877e-09
8.37816e-10
-1.19876e-09
5.74049e-09
-8.09347e-09
8.04853e-09
-5.69562e-09
7.47108e-09
-8.928e-10
-1.21319e-09
-6.61878e-09
4.51994e-09
1.69496e-09
-4.3007e-09
5.68005e-09
-7.66239e-09
-7.40488e-09
-2.79574e-09
-3.76799e-09
3.19784e-10
3.07972e-09
-1.41786e-08
-8.15632e-09
9.0086e-09
2.90373e-09
-3.01159e-09
-1.08645e-08
1.01761e-08
6.3745e-09
-1.29447e-08
-2.68462e-09
9.25478e-09
-1.3169e-08
1.5823e-08
3.72056e-09
1.07687e-08
7.37082e-09
-3.35353e-09
-1.47859e-08
2.08331e-09
1.3259e-08
-4.5735e-09
-1.15314e-08
2.06277e-08
-7.01304e-09
-1.03263e-08
1.64612e-08
-1.76663e-08
-2.13367e-09
1.03819e-08
5.01078e-09
4.62483e-09
6.12267e-10
1.06591e-09
-9.38571e-09
-3.92979e-09
-8.17329e-09
-9.23325e-09
1.33085e-08
1.17477e-08
1.87152e-08
-9.96545e-09
-1.26794e-08
1.50871e-09
7.97324e-09
7.11684e-09
-2.07966e-08
-1.64321e-09
8.01609e-09
1.00882e-08
8.19141e-09
1.07931e-08
-2.79974e-09
-6.28715e-09
1.23059e-08
-3.21945e-09
-6.09596e-09
4.49972e-09
-1.20433e-09
1.24773e-08
1.27272e-08
-1.55759e-08
7.77806e-09
6.45782e-09
9.50689e-09
6.39993e-09
-4.47061e-09
4.63973e-09
-6.56917e-09
4.23081e-10
5.66276e-09
3.1409e-10
-6.14942e-09
8.59063e-09
5.30967e-10
-2.97204e-09
-6.3403e-10
5.52263e-09
-1.1038e-08
3.36612e-09
8.55041e-09
-3.32588e-09
1.39346e-08
-1.02412e-08
-3.27251e-10
5.49834e-09
-3.56041e-09
-6.40851e-09
4.81644e-09
3.86477e-10
2.95481e-10
3.84782e-09
-8.04223e-09
7.16653e-09
-2.78767e-09
-4.2392e-09
-5.87721e-09
1.47561e-08
4.84418e-09
3.95292e-10
5.64226e-09
9.92101e-09
-1.62865e-09
3.14372e-09
1.10489e-08
-8.95779e-09
6.64653e-09
9.06504e-10
7.58753e-11
-6.61201e-09
9.67991e-09
-5.5852e-09
7.97275e-09
-2.31175e-09
7.7251e-10
-7.38023e-10
3.15315e-11
2.25968e-08
9.56286e-09
-1.0544e-08
-2.16155e-08
1.11589e-08
9.56813e-09
-1.57993e-08
1.05008e-08
1.64574e-08
7.04927e-10
-6.94135e-09
-8.77084e-11
-1.75265e-08
7.07029e-09
-4.93275e-09
-9.13016e-09
-1.16223e-09
-6.63074e-09
1.25326e-08
-5.19681e-09
4.73747e-09
-1.14559e-08
-1.54653e-08
8.82344e-09
-4.55107e-09
-1.56606e-08
1.17274e-08
6.81145e-09
-6.00626e-09
1.49114e-08
-1.22735e-09
-7.08065e-09
7.56351e-10
7.38438e-09
-1.06008e-09
5.1361e-10
-1.08048e-08
3.21049e-09
-6.04133e-09
6.87248e-09
-7.48194e-11
3.49325e-09
-9.02103e-09
7.8348e-09
1.29853e-09
-1.74896e-09
4.82489e-09
-5.11772e-09
3.78599e-09
-2.01431e-09
9.15118e-09
-2.31202e-09
1.01508e-08
-5.29261e-09
-3.85333e-09
3.70965e-09
9.29487e-09
1.34851e-09
4.9489e-09
-7.72839e-09
9.54106e-10
1.05052e-08
-3.73098e-09
3.39145e-09
5.79186e-09
-6.91729e-09
-3.34481e-09
-8.10539e-10
1.10726e-08
8.23561e-10
-6.40245e-10
-7.10065e-09
8.70194e-10
6.58472e-09
3.29348e-09
-1.03307e-08
4.52481e-10
9.48383e-09
-3.02308e-09
-4.81996e-09
-4.59262e-09
1.24356e-08
-6.10878e-09
-5.06017e-09
8.14589e-09
-3.12606e-09
-5.80413e-09
2.82146e-09
3.89677e-09
-7.09181e-09
-1.86514e-09
-5.41338e-09
4.49016e-09
5.80914e-09
-8.04439e-09
-8.90769e-10
-6.34221e-09
7.55875e-09
-7.40677e-09
1.64815e-10
8.99759e-10
1.00025e-09
-9.95354e-10
-7.41168e-09
-4.63125e-10
-6.58099e-09
6.33563e-09
-4.27021e-10
-6.90394e-09
1.08707e-09
-3.43317e-09
-6.02197e-09
2.36336e-09
-6.68493e-09
-2.55235e-09
-1.00918e-09
-6.13886e-09
-7.45817e-09
-1.69858e-08
4.70507e-09
1.22518e-08
2.87555e-11
-7.06327e-09
-1.36374e-09
-8.55892e-09
-3.49846e-09
6.16082e-09
6.78906e-09
-9.45155e-09
3.44529e-09
2.29548e-09
-9.23931e-09
-5.52471e-09
-1.518e-08
1.36413e-08
-1.11904e-08
4.7677e-09
1.11277e-08
-5.11946e-09
-7.43467e-09
-5.34512e-09
-1.03546e-09
-3.59367e-09
9.97416e-09
-5.23568e-09
3.33589e-09
9.08435e-09
-3.95902e-09
-2.21179e-09
3.38585e-09
-7.42901e-09
-1.84422e-11
3.79806e-09
4.01004e-09
-1.33329e-08
5.16566e-09
-6.48704e-09
8.52577e-09
-1.44917e-08
9.97586e-09
2.11815e-09
-2.59639e-09
9.00399e-09
-1.45172e-10
6.44951e-09
4.01525e-10
5.21317e-09
-1.20642e-08
4.8364e-09
6.83844e-09
-5.22533e-09
8.39902e-09
7.20616e-09
-1.52036e-08
-4.173e-09
1.07621e-08
-1.75253e-09
1.33959e-08
-9.16971e-09
-4.5083e-09
-3.66261e-09
9.31017e-09
-1.13924e-09
3.33216e-09
-2.62737e-09
9.73592e-09
-6.19226e-09
4.0021e-09
-1.5655e-09
1.09594e-08
8.56806e-10
1.39074e-08
8.39762e-09
1.77299e-09
1.9982e-09
6.17229e-09
-2.81301e-09
1.20675e-08
7.30154e-09
-7.13481e-09
2.31889e-09
-2.48597e-09
3.67179e-09
-1.02872e-09
4.6583e-09
-2.43091e-10
-3.71148e-12
-6.88801e-09
-4.36666e-09
2.40949e-09
5.62883e-09
-2.18962e-09
1.41957e-10
4.39279e-09
9.98915e-11
-4.73596e-09
2.08409e-09
1.1856e-10
-8.78457e-09
3.38286e-09
4.37312e-09
-6.77564e-10
-8.11069e-09
4.9302e-09
3.20669e-10
-5.15095e-09
1.6222e-09
6.64631e-09
-5.64883e-09
-2.61944e-09
4.59273e-09
4.123e-10
1.91081e-09
9.32835e-09
2.43245e-09
4.60203e-09
-2.10441e-09
4.29799e-09
2.18494e-10
6.7528e-09
-7.10976e-09
-3.2631e-09
7.58344e-09
-4.33962e-09
5.37461e-09
-1.19715e-09
1.45954e-09
-9.31292e-11
-6.85201e-09
1.00594e-08
4.37457e-11
-3.25122e-09
1.06888e-08
-2.29707e-09
-1.52438e-08
-4.28966e-10
4.26337e-09
6.22499e-09
4.75937e-09
5.50044e-09
-3.7773e-09
5.80417e-09
-1.98321e-09
3.39577e-09
7.22664e-09
-1.29196e-08
5.37437e-09
-5.75596e-09
-4.95923e-09
2.69299e-09
6.52958e-09
-4.97875e-09
-5.17013e-09
1.23909e-09
8.90974e-09
-4.60479e-10
2.41033e-10
9.43419e-10
-9.85363e-11
4.30883e-10
5.758e-09
1.03772e-09
4.55464e-09
1.25056e-09
5.16721e-09
-5.57243e-09
-5.52636e-11
-4.48607e-09
4.48315e-09
-3.96755e-09
7.89962e-09
4.40642e-09
1.09163e-09
4.62059e-09
-4.43505e-09
-3.95822e-10
5.30328e-10
4.30366e-11
-7.02238e-09
7.58092e-09
2.56619e-09
-3.12471e-09
1.02219e-09
5.73921e-10
-8.61841e-09
9.33225e-09
9.80179e-10
-2.73148e-09
-4.7527e-09
7.03276e-09
2.86124e-10
7.47729e-09
6.22342e-10
-7.07743e-09
3.0166e-09
-2.92044e-10
1.4296e-09
-2.35582e-09
1.02585e-08
6.9796e-09
3.02528e-09
-9.43089e-09
1.18782e-08
-3.91836e-09
1.11815e-08
8.35123e-09
-7.65457e-09
5.4254e-10
1.20686e-08
1.92008e-08
-9.58707e-09
-1.26234e-09
-1.06335e-09
2.08068e-08
-1.55896e-09
6.23592e-09
-7.18399e-09
7.7234e-09
2.47715e-09
-2.93594e-10
-6.26802e-09
1.10454e-08
-1.01089e-08
-1.05236e-08
-5.44172e-10
1.05262e-08
5.62028e-09
-7.37714e-09
-2.24945e-09
5.56633e-09
7.5677e-09
-1.08846e-08
5.15521e-09
-1.35464e-08
6.14187e-09
-9.81254e-10
7.1543e-09
-1.01782e-09
6.97419e-09
-2.38913e-09
9.02069e-09
-3.6342e-09
-1.11621e-08
5.77561e-09
1.00498e-08
5.4452e-09
-4.99892e-09
-1.0496e-08
6.65942e-09
-5.15819e-10
1.42409e-09
1.37343e-11
7.1982e-09
-2.37758e-10
7.34623e-09
7.02159e-09
-7.21361e-09
7.11227e-09
-3.76811e-11
2.71636e-10
7.42888e-09
-5.85157e-09
-2.05448e-09
4.77096e-10
1.56971e-09
8.34756e-09
-2.48842e-09
-6.43938e-09
-3.62164e-09
4.20946e-09
2.33757e-10
-1.1762e-08
9.04295e-09
9.83133e-09
-2.82324e-09
-1.91716e-09
6.81021e-09
3.5024e-10
-5.86546e-09
-2.2959e-11
7.45811e-09
-1.10976e-09
1.06608e-08
-1.64082e-09
-1.97861e-09
4.34578e-09
5.22825e-09
-7.59549e-09
2.88612e-09
-8.66482e-09
3.80005e-09
-9.32333e-10
-3.37341e-09
8.65148e-09
-4.19094e-09
6.14469e-09
-2.96801e-09
-2.67355e-09
-3.0233e-09
-8.30728e-09
-6.74703e-09
1.08634e-08
-7.90379e-09
-3.37153e-09
-1.14746e-08
4.6247e-09
-6.61039e-10
7.51083e-09
-3.99925e-09
-7.61561e-09
1.40275e-10
-1.34388e-09
-6.92003e-09
4.94076e-09
3.32311e-09
9.89459e-09
-8.6433e-09
-7.63922e-09
-3.3331e-09
4.22521e-09
-5.73605e-09
-9.80697e-09
-9.19311e-09
5.19892e-09
-3.50821e-09
-9.68416e-09
-1.05881e-08
1.2702e-08
-4.00679e-09
-1.06142e-08
1.91914e-09
8.04303e-09
5.66377e-10
4.09255e-09
7.79535e-10
5.59618e-09
-1.06849e-08
7.26502e-09
6.20131e-09
-1.26867e-08
9.29344e-09
-3.1808e-09
-8.08903e-09
1.97634e-09
4.98096e-09
9.82286e-09
-5.51033e-09
7.05306e-09
-2.27784e-09
-8.78199e-09
2.10495e-09
8.47213e-09
-2.87402e-09
1.2244e-08
-5.49624e-09
-9.67943e-09
4.49073e-09
-8.66736e-10
-7.81038e-09
3.77062e-09
2.37106e-09
9.11201e-10
6.03876e-09
-4.43702e-09
-5.35404e-09
3.75247e-09
4.62299e-09
6.13008e-10
8.02932e-10
-7.58159e-09
-7.17049e-09
7.80488e-09
-3.50835e-09
1.2231e-09
-3.85646e-09
4.79658e-09
-1.24573e-08
1.15172e-08
-1.09371e-08
4.95852e-09
2.12207e-09
6.36967e-09
-9.65094e-09
7.7855e-09
-4.50421e-09
-1.09457e-09
1.22608e-08
-6.04059e-09
-4.50916e-09
9.45512e-09
-3.5813e-09
1.30712e-10
-2.59005e-09
-9.57958e-09
-1.28981e-09
-1.58792e-09
-6.74647e-09
-1.37702e-08
-6.12155e-09
-4.99287e-09
7.53307e-09
-8.98675e-09
-2.7756e-09
8.25532e-09
3.50704e-09
7.83592e-09
-2.42721e-09
-1.43955e-08
-1.51735e-09
6.57767e-09
5.21448e-09
4.60338e-09
-1.22452e-08
1.00753e-10
-1.63285e-09
-1.41741e-09
-2.68546e-09
-8.31209e-09
-4.50671e-09
5.10014e-09
7.71865e-09
-5.65493e-09
-1.9985e-09
-6.58657e-10
4.32525e-09
-5.20602e-09
-4.7742e-09
-5.42817e-10
3.61328e-10
2.69858e-09
-8.07807e-09
-2.49088e-09
7.87041e-09
-7.50667e-10
8.54935e-09
-2.15829e-09
-4.56889e-09
5.97651e-09
-7.41147e-09
-1.18668e-09
6.4398e-09
-8.20988e-09
-1.86668e-09
3.34981e-09
1.76239e-09
-1.03183e-08
4.78795e-09
4.36049e-09
-5.79865e-09
3.92337e-09
3.21735e-10
9.58171e-10
-7.39671e-09
-9.72956e-10
3.12648e-10
-9.92527e-09
6.2477e-09
5.49158e-09
-1.19391e-08
-6.53448e-10
-2.38276e-09
-5.08715e-09
-1.33693e-09
-2.88265e-09
-3.29092e-09
7.51028e-09
-3.88533e-09
4.61188e-09
-2.06347e-09
-1.93992e-09
7.11752e-09
3.30965e-09
-8.48751e-09
-5.46675e-09
2.90389e-09
6.22492e-10
-6.45322e-09
7.20299e-09
-3.63236e-09
7.76358e-10
-1.11701e-08
3.94048e-09
4.8643e-09
-7.40185e-09
3.31358e-09
-2.28774e-09
3.861e-09
5.21067e-09
-1.24406e-09
3.15062e-09
-1.99205e-09
3.31719e-09
-4.64071e-09
3.60804e-10
9.40123e-09
-6.02321e-10
-1.40227e-09
-7.39693e-09
-2.37876e-09
4.37822e-09
-2.62735e-09
-9.14515e-09
1.31939e-09
-5.92268e-09
-8.63637e-10
4.52639e-09
1.50644e-09
-7.27714e-09
-2.59022e-09
8.53462e-10
5.62892e-09
-5.71199e-09
6.59722e-10
6.39346e-09
-7.0787e-09
-1.94222e-09
2.40708e-09
8.51274e-09
4.55626e-09
7.33991e-09
-9.1747e-09
-2.72143e-09
6.72189e-09
-5.6171e-10
-1.60389e-09
-2.47763e-09
1.61822e-08
-6.43538e-09
-7.2692e-09
1.10459e-08
-7.73165e-09
-5.79179e-09
2.44631e-09
1.25539e-08
1.18197e-09
1.16615e-08
-1.29589e-08
3.74373e-09
8.99333e-09
-9.64556e-09
-5.78311e-09
-1.15976e-08
-1.95698e-09
8.18165e-09
5.37291e-09
-8.70516e-09
3.58676e-09
-6.47917e-09
-6.9214e-09
1.95654e-09
3.00788e-09
-8.90467e-09
-1.16678e-09
2.58417e-09
5.92254e-09
7.48265e-09
-2.91141e-09
7.0902e-09
-8.31093e-09
3.40589e-10
1.5453e-08
3.66812e-09
-5.58116e-09
-5.9403e-09
1.01833e-08
1.88629e-09
-1.09036e-08
9.04256e-09
1.00427e-08
-3.64871e-09
4.33942e-09
1.79172e-09
9.38113e-09
-4.70111e-09
-2.0026e-09
7.58063e-09
-4.76967e-09
-8.08391e-10
1.09636e-08
-1.28712e-09
-1.16791e-08
-7.47155e-10
2.03316e-10
8.12438e-09
1.17373e-08
-1.52087e-09
-1.21585e-08
-4.69517e-10
1.28314e-08
-1.14584e-08
-5.46974e-09
-1.89772e-08
3.26776e-10
1.84556e-08
1.94783e-10
-1.25777e-08
-6.83453e-09
4.35055e-10
1.20093e-08
1.02265e-09
-1.52552e-08
2.22355e-09
-4.47999e-10
9.99033e-10
1.62889e-08
-2.08818e-08
-7.98472e-09
-1.78327e-08
1.47632e-08
1.93582e-08
8.52074e-09
-1.267e-08
-2.68525e-09
8.37802e-09
1.2876e-08
3.82121e-09
-1.56746e-08
-2.42009e-10
5.06361e-09
-2.21242e-08
-1.20877e-08
-6.81361e-10
-1.37112e-08
3.481e-09
3.38187e-09
6.84825e-09
-6.16888e-09
-2.90213e-09
-4.64014e-09
1.31665e-08
-9.54415e-09
-1.33524e-09
-2.28698e-09
5.25926e-09
1.13882e-08
-6.40483e-09
-9.30826e-09
-7.95538e-09
3.59503e-09
7.74221e-09
5.13453e-09
-2.72919e-09
-5.3075e-09
-5.28724e-09
2.4664e-09
-7.45639e-09
-4.09732e-10
1.31253e-08
2.72188e-09
-8.72179e-09
7.12652e-10
-1.38477e-08
-2.29719e-09
8.68861e-09
-1.1383e-08
-3.79983e-09
-4.57538e-09
7.7607e-09
6.37936e-10
-5.93372e-09
-1.10902e-09
-9.6083e-09
2.7358e-09
1.66428e-09
9.64368e-09
-1.25806e-09
-9.08079e-09
2.7573e-09
-1.00986e-08
-2.61554e-09
1.08207e-09
1.16319e-08
-1.14121e-08
-2.07714e-09
3.39058e-09
-1.27456e-08
-2.39164e-09
1.25216e-08
-2.62581e-09
-1.39979e-08
3.87801e-09
-1.55547e-08
1.51667e-09
1.00344e-08
-1.39583e-08
1.84651e-09
1.28998e-08
1.88101e-09
1.10263e-08
-8.19648e-09
-4.71107e-09
1.60057e-08
-9.44134e-09
-4.68357e-09
-1.48702e-08
1.13744e-08
1.62667e-09
-4.59835e-09
1.2077e-08
-1.18971e-08
-2.12888e-08
-9.87975e-10
-2.11477e-09
-2.26455e-09
2.71537e-09
8.75399e-09
9.5402e-10
-1.79047e-08
1.54187e-08
-1.61062e-08
-1.07006e-08
-2.54294e-09
-1.33325e-08
-1.61392e-09
-1.78507e-10
-2.16437e-08
8.10422e-09
1.32384e-08
-1.23218e-08
-5.90256e-09
-4.34222e-09
1.16409e-09
3.34871e-09
1.03307e-08
-1.84181e-09
-1.18375e-08
8.79337e-09
2.38141e-09
-7.82612e-09
8.47771e-09
-2.63162e-09
4.48461e-09
-6.46267e-09
9.00665e-09
-4.24037e-09
-3.55792e-09
1.41486e-09
6.38339e-09
-9.19346e-09
6.59362e-10
-6.23683e-09
-2.63844e-09
-3.18235e-10
-1.43551e-08
4.48407e-09
-1.90968e-09
1.39916e-10
6.58963e-09
-2.91616e-10
-6.43794e-09
4.71365e-09
-1.11106e-10
-4.46261e-09
4.02211e-10
-9.46555e-10
7.13397e-09
5.36474e-09
-2.48869e-10
1.1446e-10
-7.32607e-09
1.98878e-09
3.42305e-09
-4.70905e-11
8.10329e-10
7.44748e-09
-8.14329e-09
6.93583e-09
-6.2366e-09
-8.51233e-10
5.55712e-09
2.64782e-11
-4.7324e-09
8.5469e-12
9.22495e-09
-1.78599e-09
8.11531e-09
-1.17094e-09
3.53189e-09
8.41447e-09
-3.83105e-09
5.49817e-09
2.24921e-11
1.03668e-08
-6.85044e-09
5.70862e-09
7.22501e-10
9.18743e-09
4.56846e-10
1.25394e-09
7.88303e-09
5.90088e-09
9.68454e-09
-1.13278e-08
-2.27914e-09
3.92243e-09
-1.39092e-08
6.53486e-09
1.70589e-08
-1.55028e-08
-1.41538e-09
3.00909e-09
-1.316e-08
-1.36707e-08
1.20735e-08
-1.55765e-08
2.08771e-09
8.07807e-09
-8.26737e-09
1.22628e-08
1.68348e-08
-2.22182e-09
-6.19225e-09
-5.70558e-09
4.24327e-09
7.65464e-09
5.34689e-09
-9.96369e-09
-2.47912e-09
-4.41355e-10
3.8287e-09
-3.76669e-09
-1.00257e-08
-5.15075e-09
-4.18043e-09
5.44232e-09
-1.27383e-08
3.52966e-09
6.09951e-09
-5.80795e-09
5.16567e-09
1.06933e-08
-5.06644e-09
-1.07925e-08
1.28382e-08
1.37916e-09
-9.05164e-09
6.96609e-09
-3.20179e-10
-8.34613e-09
8.7312e-09
-1.14019e-08
3.41718e-09
-1.73556e-10
-5.12881e-09
-1.31984e-10
-2.44493e-09
-1.22167e-08
1.53711e-08
-7.09473e-10
-1.19931e-08
-1.57906e-09
1.11272e-08
7.13971e-09
2.88859e-09
-4.77134e-10
-9.55125e-09
8.6417e-09
-1.34951e-08
1.5049e-08
-5.20813e-10
7.69373e-10
1.85065e-08
1.23545e-08
-9.78264e-09
4.54446e-10
1.49133e-09
-1.35665e-08
1.04961e-08
-1.30751e-08
1.21283e-08
2.43818e-09
-4.3022e-11
-1.02606e-08
8.32175e-09
-1.17444e-08
7.38999e-10
2.68348e-09
6.7611e-09
-1.40296e-08
-5.80665e-09
1.51631e-09
-4.00599e-09
1.90615e-09
-9.64464e-09
-1.34471e-08
-2.29021e-09
1.17313e-08
-9.8421e-09
-2.28153e-09
-1.37097e-09
8.02109e-09
-7.03401e-09
3.83881e-10
1.13389e-08
-1.04117e-09
-1.16687e-08
-6.20045e-09
-2.82695e-09
1.19493e-09
7.83242e-09
9.09113e-10
9.11545e-10
-1.30337e-08
4.41018e-09
-1.52975e-09
1.01533e-08
-9.66262e-10
-9.2537e-09
-2.81376e-09
-3.57857e-09
-9.31024e-09
1.19226e-08
-8.26305e-09
-1.22531e-09
2.45436e-09
-1.43383e-08
1.92552e-09
1.0801e-08
1.61185e-09
-1.57976e-08
-2.11923e-09
1.04375e-08
6.69014e-09
1.26851e-09
-7.0495e-09
8.70218e-09
-8.17113e-10
-2.2193e-09
-1.29782e-08
-5.9371e-12
-9.65175e-09
9.27565e-09
-1.8433e-09
4.55193e-10
-5.43128e-09
6.64592e-09
-1.66974e-09
-6.58858e-09
8.42378e-09
-1.38e-09
-4.96744e-09
3.70957e-09
-1.17205e-08
-2.16119e-09
-1.2458e-08
-4.59457e-10
3.54275e-09
7.41301e-10
-9.49109e-09
2.803e-09
-7.49296e-09
-3.19322e-10
7.61678e-09
-6.51504e-10
-9.23694e-09
1.0757e-08
-1.83939e-09
4.70882e-09
-1.11427e-08
-5.05039e-09
5.72621e-09
6.94087e-09
2.91393e-09
5.96192e-09
1.80043e-09
-3.05358e-09
8.6992e-09
8.01973e-09
-6.55415e-09
5.65989e-09
4.11901e-10
1.02468e-08
7.35699e-09
-3.79048e-09
-1.42857e-08
1.07192e-08
4.77515e-09
-9.2238e-10
3.50422e-09
-8.26534e-10
-5.01061e-09
-6.0121e-09
-6.96493e-09
-2.13797e-09
7.61687e-09
-1.1491e-08
6.60393e-09
-1.25324e-08
2.82876e-09
-2.91914e-09
1.1078e-09
4.70811e-09
6.29069e-09
-7.32129e-09
-3.67787e-09
9.28433e-10
8.43891e-09
-4.65946e-09
-3.8304e-09
4.13093e-09
-1.0491e-08
1.01905e-08
3.69609e-09
-1.45728e-08
7.04599e-09
-2.56669e-09
8.96731e-09
-5.98842e-09
6.85706e-09
-5.35699e-09
-4.06669e-09
3.00476e-09
-6.81787e-09
7.50889e-09
9.54278e-09
-7.74293e-09
-1.57233e-09
-1.1757e-09
-1.54587e-08
3.65577e-09
-2.36043e-09
1.61707e-08
-1.78534e-09
-1.29055e-08
-1.47998e-09
-3.0309e-09
1.42024e-08
2.3565e-09
-1.3528e-08
1.23603e-08
8.89707e-09
-1.01564e-08
-1.1101e-08
9.38868e-09
-5.93024e-11
2.03742e-08
-2.72794e-08
4.4422e-09
4.20985e-09
-7.83975e-11
-8.59323e-10
-8.70045e-09
9.63803e-09
9.32862e-09
-5.09907e-10
1.16262e-08
7.09108e-09
1.302e-08
5.62457e-09
-3.31009e-09
1.65573e-08
9.49989e-10
7.48223e-09
1.87285e-09
-1.0305e-08
9.2662e-09
6.7058e-09
3.86365e-09
-4.36684e-09
-6.20266e-09
1.63754e-09
4.82541e-09
2.42842e-10
-5.88826e-09
-2.61453e-09
2.34074e-09
6.16204e-09
-4.69433e-09
4.43589e-10
2.51301e-10
3.29364e-10
6.3459e-09
-6.92662e-09
9.2096e-09
4.17491e-10
-9.37583e-09
-1.89563e-09
3.43723e-11
5.72486e-09
8.6905e-09
9.04387e-09
-8.5248e-09
-3.86856e-09
6.98109e-09
5.57795e-09
-6.43348e-09
-1.43436e-10
3.96237e-09
-6.41417e-09
-4.71365e-09
5.13623e-10
-4.55112e-09
-5.48306e-09
5.81686e-10
-1.29333e-09
7.40547e-09
-3.77141e-09
3.68563e-09
5.21478e-09
9.37339e-09
6.11858e-09
3.40439e-09
-6.51254e-09
-3.01042e-09
9.21764e-10
-6.56985e-10
-6.30356e-09
6.03878e-09
-2.73166e-09
3.21141e-09
5.63888e-09
-1.37341e-09
2.04617e-09
-2.29113e-09
7.98207e-09
-3.22452e-09
6.47745e-10
-6.2385e-09
2.0589e-09
-4.94734e-09
1.59293e-10
2.97917e-09
-7.18351e-09
2.60477e-09
3.20533e-09
2.98889e-09
-1.03009e-08
3.69031e-09
5.16819e-09
-5.73723e-09
8.68596e-10
-1.1715e-09
-5.53491e-09
5.3174e-09
5.63491e-09
-6.49296e-09
-1.87744e-09
9.29681e-09
-9.2642e-10
4.26472e-09
-5.25618e-09
-5.50149e-09
-2.62944e-09
-3.26908e-09
4.44348e-10
5.45416e-09
-3.51942e-09
-1.31334e-09
2.20328e-09
-1.06942e-08
1.23734e-09
3.47838e-09
5.97846e-09
-3.43348e-09
-2.99593e-09
-4.70044e-09
5.7369e-09
-6.45894e-10
-7.62459e-09
3.57007e-09
3.73947e-09
6.79467e-09
1.32464e-09
-5.2406e-09
3.96601e-10
-4.00363e-09
2.05922e-09
4.24083e-09
-3.91478e-09
3.83714e-10
-7.09734e-10
3.71558e-09
-2.28081e-09
-1.97008e-09
4.69516e-09
1.08956e-09
-4.6837e-09
5.57666e-09
-4.91685e-10
6.51853e-10
7.34606e-09
-2.93503e-09
-4.41324e-09
-4.26878e-09
-5.88172e-10
9.0677e-09
1.76122e-09
-9.2434e-09
-1.58551e-09
-7.43995e-10
-9.67389e-10
-6.17091e-09
-9.06303e-09
-1.62791e-09
-8.08182e-09
-1.72524e-09
-8.25842e-10
-4.30395e-09
-2.95202e-09
9.65158e-09
-5.50588e-09
-4.97151e-09
2.15974e-09
5.864e-09
-7.1782e-09
6.96711e-09
-5.35192e-09
3.64839e-10
9.41197e-09
-4.4249e-09
-3.48041e-09
-7.37734e-09
-9.33696e-09
1.55266e-09
1.60189e-09
-1.00145e-08
3.53525e-09
-2.77778e-09
-9.02633e-09
1.1015e-08
7.89126e-10
4.99002e-09
-5.57344e-09
-2.19432e-09
1.08105e-10
6.87796e-09
-1.99599e-09
-3.10234e-09
3.78555e-09
-5.75064e-10
-6.15373e-09
4.51526e-09
-7.38782e-09
-9.90009e-09
-1.82705e-09
3.63234e-10
-2.56577e-09
-8.99765e-10
2.80183e-09
5.00849e-09
-6.5956e-09
-1.21467e-09
3.92221e-09
-7.57122e-10
-1.35626e-09
5.50393e-10
4.59148e-09
1.39893e-11
5.50777e-09
6.25446e-09
2.655e-09
-3.90094e-09
4.33851e-09
5.83817e-09
1.01233e-09
1.00167e-08
8.76344e-09
-1.59316e-09
-7.85414e-10
5.67435e-09
8.99036e-09
6.08173e-09
-6.8605e-09
-5.64325e-09
6.42199e-09
-1.37371e-09
-1.08958e-09
8.54496e-09
-3.06096e-09
8.61423e-09
-6.92718e-09
-1.37192e-08
7.74213e-09
-8.83582e-10
1.00861e-09
-6.58687e-09
-6.51152e-11
-1.06087e-08
-2.65029e-09
1.21693e-08
-8.99828e-09
-6.01912e-10
1.17072e-08
-2.59541e-09
1.86749e-09
-1.73455e-09
1.07914e-08
1.72986e-09
-9.86491e-09
1.48398e-08
-1.22648e-08
-8.04136e-09
-4.20946e-10
8.75915e-09
1.19997e-08
-4.97673e-10
-5.73217e-09
-4.80298e-09
9.46441e-09
-6.47498e-09
-6.07901e-09
3.08954e-09
-2.35087e-09
1.24301e-09
1.05722e-08
4.39633e-09
-1.00592e-09
8.49629e-09
-1.18869e-08
-5.31577e-09
7.27846e-09
2.43359e-09
-6.5429e-09
5.09575e-09
-5.02788e-09
5.00811e-10
-8.89501e-09
6.04326e-09
7.43457e-09
-2.25617e-09
-1.12575e-08
-3.67268e-10
9.04488e-09
3.39728e-09
1.09514e-09
-5.49848e-09
-5.26848e-09
-2.08149e-09
1.30636e-08
2.41054e-09
6.5866e-09
9.80273e-09
-2.88001e-09
-1.21913e-08
7.22428e-09
-8.00521e-10
3.37893e-09
-3.38776e-09
-5.23677e-09
-1.02686e-08
1.23119e-08
-1.00329e-08
3.76496e-09
-2.99368e-09
-5.06853e-11
9.01721e-09
5.46465e-09
-3.59185e-09
-1.08901e-08
6.76736e-09
1.38004e-09
8.698e-10
-8.75813e-09
6.5308e-09
8.99459e-09
-4.10189e-09
-4.08893e-10
-4.30956e-09
1.28428e-08
7.01007e-09
5.0476e-10
-1.11067e-08
7.77439e-09
7.69436e-10
-1.53381e-09
8.09961e-09
1.05476e-09
-2.94376e-09
9.06567e-09
-4.59793e-09
1.31197e-08
-8.52229e-09
1.09747e-08
-1.68295e-09
-1.34872e-08
4.20474e-10
4.73533e-09
6.79724e-09
7.70937e-09
-6.58835e-09
-1.99958e-09
8.3576e-09
1.26254e-09
-1.91075e-09
-4.89391e-09
-7.24997e-09
5.55553e-09
9.92945e-09
-6.68528e-09
-6.82127e-09
3.57717e-09
1.59099e-09
8.50986e-09
-1.7139e-10
8.18309e-09
1.0848e-09
-7.67687e-09
-3.02322e-09
-2.96127e-09
-7.0077e-10
-7.95685e-09
1.04549e-08
-3.69677e-09
4.02879e-09
1.64968e-09
-8.20225e-09
1.70073e-08
7.12181e-09
2.4002e-09
-9.36121e-09
-6.5712e-09
1.7582e-08
1.01218e-08
-1.10742e-09
8.30803e-09
2.74946e-09
4.2953e-09
4.64374e-09
-1.04953e-08
1.55619e-09
-4.63011e-09
-8.52961e-09
1.32802e-08
-1.20524e-10
6.44447e-09
1.39204e-09
-1.07421e-08
2.90554e-09
-8.35149e-10
6.68589e-10
-6.93473e-09
7.10127e-09
7.80033e-10
-7.48112e-09
5.86592e-09
-3.361e-10
9.72909e-09
-8.72453e-09
-8.54092e-09
8.98479e-09
8.41597e-09
-1.62275e-09
-3.4869e-10
6.49404e-09
6.21725e-09
7.35734e-09
2.54129e-09
-5.6905e-09
-4.20816e-09
6.78847e-09
5.21261e-09
4.87443e-09
-9.47232e-09
5.98992e-09
-3.37531e-09
-6.42644e-09
2.32063e-09
-3.81598e-09
-1.58954e-09
1.72008e-09
-8.6716e-09
-1.19288e-09
8.60852e-09
-1.22752e-09
-3.21688e-09
4.26804e-09
7.25686e-09
2.79195e-09
1.20652e-08
4.32043e-09
1.69549e-08
-5.47694e-09
3.78848e-09
4.48026e-09
1.02301e-08
-2.59533e-09
-9.26679e-09
-9.09189e-11
1.3678e-08
-5.4491e-09
2.11093e-10
2.65784e-09
8.12251e-10
8.13553e-09
2.79441e-09
-9.48627e-09
1.31838e-08
8.87933e-09
-2.15392e-09
-5.48665e-09
3.78451e-09
-7.79572e-09
-3.01417e-10
-7.20559e-09
-8.25917e-09
7.66897e-09
-3.69791e-09
2.4746e-09
-5.69496e-10
-1.13876e-08
-1.06814e-09
-8.10987e-09
3.69143e-09
1.84376e-09
-5.65138e-09
-2.65274e-09
-4.91495e-09
-6.66321e-10
-6.44145e-09
1.99396e-09
3.37944e-09
-1.12404e-09
2.28154e-09
-8.50252e-09
3.12956e-09
-1.52358e-09
-4.7811e-09
4.71799e-09
1.58637e-09
-3.49672e-09
2.2097e-09
-2.36797e-10
-1.60541e-10
4.62334e-10
-3.79864e-09
3.02234e-10
-5.24386e-09
-7.00097e-09
4.32821e-09
-1.87196e-09
4.54462e-09
2.31584e-10
-6.9304e-09
2.19625e-10
-1.4991e-09
-2.18848e-09
3.46698e-09
-1.79609e-09
-2.31441e-09
4.32941e-09
-3.78474e-09
4.88918e-10
6.73179e-09
-7.09546e-09
3.46008e-09
1.76338e-09
-2.01418e-10
-6.66248e-09
-1.9255e-09
3.5037e-10
3.18516e-09
-2.92429e-09
3.91674e-09
-2.65703e-09
5.18826e-09
3.45408e-09
5.12733e-09
-4.24505e-09