/*--------------------------------*- C++ -*----------------------------------*\
| =========                 |                                                 |
| \\      /  F ield         | OpenFOAM: The Open Source CFD Toolbox           |
|  \\    /   O peration     | Version:  v1612+                                |
|   \\  /    A nd           | Web:      www.OpenFOAM.com                      |
|    \\/     M anipulation  |                                                 |
\*---------------------------------------------------------------------------*/
FoamFile
{
    version     2.0;
    format      ascii;
    class       volVectorField;
    location    "200";
    object      wallShearStress;
}
// * * * * * * * * * * * * * * * * * * * * * * * * * * * * * * * * * * * * * //

dimensions      [0 2 -2 0 0 0 0];

internalField   uniform (0 0 0);

boundaryField
{
    WALL
    {
        type            calculated;
        value           nonuniform List<vector> 
1687
(
(-0.0054221 0.033415 0.00716547)
(-0.00493846 0.0324433 0.00598792)
(-0.00489077 0.0237925 0.019259)
(-0.00449375 0.0260469 0.0190277)
(0.02631 0.000244047 0.0122958)
(0.0282668 0.00413576 0.0148418)
(-0.0148014 0.0206176 0.0124193)
(-0.0130093 0.0270676 0.00914676)
(-0.00763531 0.00427998 0.0113181)
(-0.00232465 0.00526846 0.0137456)
(-0.000315243 -0.0066879 0.0108976)
(-0.00138953 -0.00547171 0.0116474)
(0.00174155 0.0355482 0.00726666)
(-0.000489538 0.0290786 0.00217857)
(0.00645378 0.0246013 0.0154994)
(0.0077714 0.0258417 0.0147684)
(0.00783787 0.0239755 0.0132009)
(0.00812851 0.0220194 0.0103371)
(0.00276043 0.0157519 0.0212771)
(0.00519678 0.0148145 0.0182683)
(-0.00253185 0.00473733 0.0227725)
(-0.00112098 0.00738423 0.0243553)
(0.0201448 0.0204746 0.0124933)
(0.0206671 0.0145949 0.0132702)
(0.0174598 0.0120234 0.00870303)
(0.0206216 0.0138161 0.0138148)
(-0.0079373 0.0226309 0.0156127)
(-0.0107447 0.0246351 0.0127385)
(-0.0197288 0.0287859 0.000894739)
(-0.00442819 0.0154605 0.0170896)
(-0.00191926 0.00987411 0.016746)
(0.0019236 0.0228411 0.015076)
(0.00148646 0.0257971 0.0151808)
(-0.0124617 0.031701 0.0210189)
(-0.015472 0.0394731 0.0193972)
(-0.00946177 0.0461527 0.0136075)
(-0.00865297 0.0437925 0.0205616)
(-0.00933152 0.027988 0.0238622)
(-0.00863343 0.0350863 0.0231164)
(-0.0215361 0.038943 0.0125425)
(-0.0233026 0.0407607 0.00969163)
(-0.00376349 0.00785035 0.0250162)
(-0.0092606 0.00985378 0.0288009)
(0.0208103 0.00221513 0.0130185)
(0.0187906 -0.0015769 0.010872)
(0.0217812 0.00632955 0.0157133)
(0.0211729 0.00829895 0.018271)
(0.0213681 0.00173951 0.0153226)
(0.0196442 0.00209025 0.0140385)
(0.0224008 0.00420277 0.0139033)
(0.0238918 0.00576178 0.0153323)
(0.0240556 0.0113559 0.0173793)
(0.0229826 0.0156546 0.0184254)
(0.00944194 -0.0124831 0.0115528)
(0.00649255 -0.00988493 0.00995793)
(0.00078672 0.0260682 0.0273742)
(0.00423587 0.0269798 0.0271375)
(0.0132172 0.0255543 0.0151995)
(0.0113126 0.0178588 0.0157708)
(0.0131684 -0.000562409 0.0134697)
(0.0157891 -0.00113697 0.0136375)
(0.0172912 0.00865945 0.0180815)
(-0.0123839 0.0316261 -0.000213967)
(0.0207276 -0.00165355 0.0135133)
(0.0177341 -0.00289079 0.0133396)
(0.0214718 0.0017878 0.0132646)
(0.0214569 -0.0011059 0.0149282)
(0.0190298 -0.00229349 0.0147152)
(-0.000140336 0.00397195 0.0242575)
(0.00191894 0.00249508 0.0248235)
(-0.00129199 0.00414608 0.0232319)
(0.00151764 0.00141032 0.0244238)
(-0.000470348 0.00209746 0.0231938)
(0.00712194 0.000650072 0.0150832)
(0.00909979 0.000654933 0.0148592)
(0.00831301 0.00217436 0.0134341)
(0.00984931 0.00242647 0.0119742)
(0.00992374 0.00127939 0.0123303)
(0.0168904 0.0197356 0.00783741)
(0.0161154 0.0115097 0.00821023)
(0.0203072 0.0142915 0.0123002)
(0.0177787 0.00916789 0.0111101)
(0.0163975 0.0167097 0.00860435)
(0.0148279 0.0154919 0.0071569)
(-0.00766743 0.0322116 0.00744971)
(-0.0107753 0.0287785 0.00970585)
(-0.00778231 0.0297521 0.00899941)
(-0.00474022 0.0356711 0.00532166)
(-0.00850466 0.0341466 0.00604835)
(-0.0116296 0.029772 0.00598462)
(-0.0100204 0.0296994 0.0106028)
(-0.00973409 0.0316084 0.00662508)
(-0.0025531 0.0234502 0.0185641)
(-0.00540462 0.0238017 0.0181621)
(-0.00294369 0.0242146 0.0197666)
(-0.0022961 0.0239306 0.0177537)
(-0.00102438 0.0242731 0.0197598)
(0.000525786 0.0221129 0.0183968)
(0.00174846 0.0228376 0.0173447)
(-0.000513683 0.0222439 0.017124)
(-0.00657275 0.0193782 0.0220483)
(-0.00438954 0.0180709 0.0230333)
(-0.00431811 0.0161104 0.0229179)
(-0.00504707 0.0232984 0.0271623)
(-0.00366896 0.0170324 0.0236661)
(-0.00376773 0.0222211 0.0227793)
(-0.00574268 0.024139 0.0238261)
(-0.0057989 0.0239656 0.0230942)
(-0.00305328 0.022196 0.0235791)
(-0.00729405 0.0247 0.0232405)
(-0.00424749 0.0198921 0.0218416)
(-0.0185361 0.0326206 0.0162934)
(-0.0154898 0.0307632 0.0184087)
(-0.0157993 0.0305268 0.017742)
(-0.0169792 0.0315621 0.0172787)
(-0.0187073 0.034351 0.0156987)
(-0.0197785 0.0345071 0.0155531)
(0.00597861 0.0205758 0.0259738)
(0.0105023 0.0227243 0.0256217)
(0.0104978 0.0229649 0.0254566)
(0.00762744 0.0238303 0.0250959)
(0.00709729 0.0205597 0.0246921)
(0.0064918 0.0196588 0.0265978)
(0.0132275 0.0167387 0.0226958)
(0.0149935 0.0114294 0.0228665)
(0.0159392 0.0171635 0.0220248)
(0.00919663 0.0147841 0.0211353)
(0.00925389 0.0144553 0.02276)
(0.0112897 0.0124725 0.0226691)
(0.0291449 0.0204435 0.0210821)
(0.0291958 0.0197593 0.0229817)
(0.0287141 0.0177272 0.0189729)
(0.0313601 0.0150124 0.0199197)
(0.0314688 0.0158171 0.0180297)
(0.0328198 0.0190122 0.0222871)
(0.00939387 -0.0113861 0.0114948)
(0.014426 -0.0135866 0.010241)
(0.0120256 -0.0120791 0.0085656)
(0.0135557 -0.0127184 0.0111477)
(0.00973191 -0.0115163 0.00850444)
(0.0110275 -0.0122132 0.0127514)
(0.0101502 -0.0122265 0.00890813)
(-0.00123481 0.0165508 0.0256461)
(-0.00175085 0.0172661 0.0252396)
(-0.0022835 0.0176997 0.0236785)
(-0.000817798 0.0218552 0.0252432)
(0.00116719 0.0234153 0.0263964)
(0.00100578 0.0246043 0.0244784)
(0.00066218 0.0189128 0.026731)
(0.00889654 0.0299873 0.00772309)
(0.0116403 0.0268097 0.00697668)
(0.0116147 0.0277968 0.0088801)
(0.00996128 0.0289203 0.00692259)
(0.00853866 0.0295105 0.00761406)
(0.0120044 0.0261422 0.00790895)
(0.0122399 0.0246735 0.0106444)
(0.0117596 0.0205589 0.0160211)
(0.0122733 0.0239522 0.0124109)
(0.00968892 0.019611 0.00988301)
(0.0134478 0.0268277 0.014479)
(0.0110514 0.0258205 0.00979121)
(0.0138574 0.0294828 0.0129446)
(0.0127856 0.0271695 0.00912228)
(0.012346 0.0296853 0.00957237)
(0.0132006 0.0258781 0.0135184)
(0.0118192 0.0210001 0.0114745)
(0.00194986 0.0301682 0.00778434)
(0.000665681 0.0335192 0.00687368)
(0.00450936 0.0329791 0.00790988)
(-0.00196902 0.0331121 0.00537531)
(0.00258062 0.0311078 0.00332365)
(0.00797219 -0.00975569 0.0152599)
(0.00552872 -0.00623469 0.0176669)
(0.0086707 -0.00744185 0.0192737)
(0.0103994 -0.00940563 0.017245)
(0.0118612 -0.0115287 0.0165713)
(0.00729538 -0.00803759 0.016639)
(0.00639274 0.000614568 0.0210723)
(0.00521545 0.00183067 0.0194198)
(0.00860266 0.00495266 0.0238136)
(0.00711241 0.00524125 0.0225596)
(0.00570432 0.00440134 0.0208018)
(0.00707228 0.00276563 0.0214306)
(0.00524072 0.00701057 0.0199068)
(0.00640439 0.0127313 0.0205701)
(0.00790552 0.0117679 0.0217086)
(0.00354063 0.00904922 0.0190194)
(0.00635679 0.00943113 0.0211312)
(0.00527494 0.0114139 0.021305)
(0.0232313 0.00835988 0.0149678)
(0.0220551 0.00625597 0.0138603)
(0.0224068 0.00682623 0.0127613)
(0.0223275 0.00890296 0.015011)
(0.0210673 0.0030538 0.0119429)
(0.0212605 0.00485819 0.012337)
(0.0195353 0.0175232 0.0216256)
(0.0222317 0.0130488 0.0199387)
(0.0238885 0.0141954 0.0200882)
(0.0233449 0.0177092 0.0200455)
(0.021804 0.0156798 0.0227062)
(0.0222756 0.0148669 0.0221392)
(0.0210441 0.0104149 0.0120937)
(0.0217957 0.0123853 0.0123362)
(0.0218024 0.00943062 0.0134393)
(0.0192979 0.00627604 0.0114926)
(0.0197 0.00533577 0.0117597)
(0.0224305 0.0134557 0.0169599)
(0.0218947 0.0195181 0.0204422)
(0.0225792 0.0176642 0.0172327)
(0.0206422 0.0197711 0.0199685)
(0.0211378 0.0203719 0.0177019)
(0.010037 -0.00564514 0.0139149)
(0.0136206 -0.00631906 0.015373)
(0.01153 -0.00538435 0.0153387)
(0.0145795 -0.00394742 0.0138024)
(0.0116831 -0.00643707 0.0144685)
(0.0147165 -0.00435643 0.0149191)
(0.00434377 -0.00768965 0.0189267)
(0.00352861 -0.00586675 0.0153916)
(0.00585267 -0.00740138 0.0163472)
(0.00625504 -0.00854219 0.017982)
(0.00834385 -0.0077428 0.0159491)
(0.00307429 -0.00686475 0.0181283)
(0.00768031 0.0548387 0.0209308)
(0.00952155 0.0555645 0.0230091)
(0.0157814 0.0514636 0.0269663)
(0.0171463 0.0524291 0.0219929)
(0.0153292 0.0591594 0.025275)
(0.0277038 0.0257638 0.0205652)
(0.0293314 0.0337156 0.0220542)
(0.0351682 0.0248789 0.0255138)
(0.03637 0.0344617 0.0284052)
(0.0267643 0.0269107 0.0243399)
(0.0349795 0.0260859 0.0243733)
(0.0240908 0.00129166 0.0341649)
(0.0161852 -0.00446202 0.0341554)
(0.0217588 -0.00587205 0.0291089)
(0.0242954 -0.00589222 0.0280043)
(0.0199997 0.000756305 0.0382201)
(0.03464 -0.00127843 0.0345859)
(0.0167216 0.0163529 0.0179835)
(0.0191172 0.0177434 0.0236851)
(0.0231486 0.0159335 0.0202459)
(0.0221867 0.0192496 0.0219019)
(0.0195366 0.0204362 0.0223504)
(0.0226058 0.0156019 0.0215504)
(-0.00304181 0.00365091 0.0210673)
(-0.00229516 0.00310535 0.0240849)
(-0.00344017 0.000491692 0.0212586)
(-0.00402569 0.00200794 0.0195316)
(-0.00216331 0.000772303 0.0220957)
(-0.00294883 0.00489465 0.0224591)
(-0.00288227 6.8591e-05 0.0176492)
(-0.00289743 0.00319209 0.0194551)
(-0.00253112 0.00378562 0.0198743)
(-0.00252589 0.0028091 0.0190841)
(-0.00307179 0.00125209 0.0179438)
(-0.00369862 0.00177811 0.0185918)
(-0.000180324 0.00907114 0.0237317)
(0.000517325 0.00974497 0.022816)
(-0.00132744 0.00691473 0.0213293)
(4.17019e-05 0.00909484 0.0225756)
(-0.00206511 0.0063086 0.0217003)
(-0.00168894 0.00760966 0.0225281)
(0.00294221 0.0197424 0.0246384)
(0.0059318 0.0225984 0.0260486)
(0.000690035 0.0223372 0.0261167)
(0.00225584 0.0242481 0.0264444)
(0.00523093 0.0238655 0.0267667)
(0.00126128 0.0198256 0.0248604)
(0.00993118 0.0197723 0.022738)
(0.00981808 0.0180716 0.0256798)
(0.0131802 0.0192759 0.0236833)
(0.0135878 0.0199875 0.0256389)
(0.0136286 0.0213976 0.022367)
(0.0095759 0.0178114 0.0258583)
(0.024306 0.0259016 0.0221404)
(0.0159015 0.0249206 0.0243373)
(0.0177301 0.0216626 0.0229873)
(0.024244 0.0277836 0.0271407)
(0.0224817 0.0215697 0.0235345)
(0.0161411 0.0248742 0.0216435)
(-0.00233121 0.00313909 0.0248906)
(-0.00104667 -0.000151012 0.0234716)
(-0.00116734 0.00106446 0.0235655)
(-0.00200582 0.00241952 0.0236636)
(-0.00130175 -0.000479234 0.0225004)
(-0.00123502 0.00624411 0.0255097)
(-0.000503839 0.00926343 0.0250579)
(-0.00152223 0.00775611 0.0245517)
(-0.000879515 0.00858247 0.0252496)
(-0.000298659 0.00997142 0.0252007)
(-0.00107633 0.00552204 0.0254158)
(0.0191211 0.00938399 0.0173287)
(0.019143 0.00604132 0.0182057)
(0.0169173 0.00798244 0.0197373)
(0.0298655 0.00523387 0.0163586)
(0.0265906 -0.0012257 0.0121541)
(0.0251794 0.00209934 0.0124442)
(0.0286268 0.00282327 0.0145317)
(0.0296291 3.34369e-06 0.013491)
(0.033532 0.0012756 0.0175549)
(0.0296225 0.00520441 0.0149367)
(0.0284102 0.000588348 0.013756)
(0.0258138 0.0135121 0.0169041)
(0.0233802 0.00912554 0.0167636)
(0.025057 0.0121059 0.0188877)
(0.0293162 0.0115754 0.0183409)
(0.0287948 0.00788093 0.0167439)
(0.0275941 0.00650978 0.0179828)
(0.016709 0.0112084 0.0178786)
(0.0229559 0.011631 0.0194047)
(0.01987 0.0118449 0.0233188)
(0.0191846 0.0117193 0.0220438)
(0.0211528 0.0101717 0.0203611)
(0.0208827 0.0104579 0.0199473)
(0.0442628 0.0293998 0.0349141)
(0.0450792 0.0355577 0.0375764)
(0.0421191 0.0289682 0.026934)
(0.0408254 0.039804 0.036022)
(0.038922 0.0362086 0.0360931)
(0.0505431 0.0280759 0.0382943)
(0.00837665 0.017386 0.0117195)
(0.0126022 0.0146315 0.0137328)
(0.00460075 0.00888541 0.00648296)
(0.00409117 0.0104171 0.00848975)
(0.0205912 0.0218015 0.0265113)
(0.0192004 0.0277975 0.0196887)
(0.0361914 0.0148666 0.0387688)
(0.0505259 0.0165792 0.0400571)
(0.0377125 0.00736661 0.0277234)
(0.0326375 0.0077611 0.034555)
(0.0311927 0.0143227 0.0379136)
(0.0432321 0.00681694 0.0360941)
(0.00224173 0.00643974 0.0185007)
(0.00326257 0.00546088 0.0147435)
(0.0133689 0.00864956 0.0267043)
(-0.000589524 0.00270984 0.00552579)
(-0.00203488 0.0035549 0.010066)
(0.0354639 -0.000376481 0.0255806)
(0.0318872 -0.00317542 0.0191739)
(0.0352681 0.0028689 0.0218271)
(0.0368196 0.00330433 0.0209049)
(0.0323488 -0.000862978 0.0177488)
(0.0288674 -0.00443844 0.021545)
(0.0017096 -0.00626896 0.00735825)
(0.00427273 -0.00557045 0.00577562)
(0.00105319 -0.00620266 0.00846293)
(0.0038632 -0.00694725 0.0070038)
(0.00306708 -0.00744474 0.00979202)
(0.00436412 -0.00622256 0.00688174)
(0.0114554 -0.0048732 0.00741096)
(0.0106018 -0.00619967 0.00846542)
(0.00739146 -0.00568152 0.00604799)
(0.0064638 -0.00642743 0.00772998)
(0.00847089 -0.00794223 0.00987369)
(0.00964627 -0.00607475 0.00708547)
(0.0212638 0.00121183 0.0151039)
(0.0206669 0.000969784 0.0129193)
(0.0232346 0.0047793 0.016039)
(0.0237607 0.00682928 0.016624)
(0.0191875 0.0022338 0.011353)
(0.0196648 0.00165539 0.0112111)
(0.00436417 -0.00788833 0.0076723)
(0.00130597 -0.00738636 0.00884887)
(0.00232056 -0.00710018 0.00793766)
(0.00318642 -0.00777162 0.00776135)
(-0.0174123 0.0300194 0.00262845)
(-0.0174376 0.029739 0.00154032)
(-0.0129669 0.032639 0.00121394)
(-0.0159867 0.0326962 0.00143109)
(-0.0149286 0.0309242 0.00257034)
(-0.0129168 0.0323127 0.00140892)
(-0.0175499 0.0182177 0.0158461)
(-0.019166 0.0177607 0.0138493)
(-0.0208967 0.0209058 0.00951589)
(-0.0174951 0.0174125 0.0117155)
(-0.0185168 0.0208896 0.0109811)
(-0.0222346 0.0185835 0.00973437)
(-0.0172378 0.0468312 0.00822899)
(-0.0169181 0.0462158 0.0116437)
(-0.0171648 0.0495011 0.0102401)
(-0.0188443 0.0446486 0.0130512)
(-0.0178788 0.0464451 0.0146259)
(-0.0184525 0.0445337 0.00954814)
(-0.0035914 0.0407493 0.00284347)
(-0.0112086 0.0464788 0.00102611)
(-0.00656913 0.0470701 0.00453182)
(0.00288142 0.0434851 0.0240897)
(0.00892908 0.0447075 0.0227246)
(0.00410411 0.0391468 0.0234505)
(0.00706131 0.0447135 0.0259832)
(0.00844698 0.0399546 0.0271495)
(0.00241272 0.0407552 0.0263831)
(-0.00810328 0.0424053 0.0225145)
(-0.0107486 0.0392446 0.0207535)
(-0.0116293 0.0418696 0.0182038)
(-0.008612 0.0337864 0.0209196)
(-0.00376178 0.0312012 0.023694)
(-0.00569003 0.0311903 0.0237138)
(-0.00285754 0.0373241 0.0256499)
(-0.0016414 0.0400483 0.0247097)
(0.000126431 0.0355433 0.0277103)
(-0.00414882 0.0316723 0.0271776)
(-0.0118624 0.0257733 0.0192927)
(-0.0107717 0.0293929 0.0234535)
(-0.0138493 0.0303242 0.0200613)
(-0.00969889 0.0283843 0.0233657)
(-0.0133875 0.0318755 0.0197146)
(-0.0134298 0.0287824 0.0200145)
(-0.00835297 0.0226027 0.0194105)
(-0.0145127 0.0285131 0.0186639)
(-0.0102042 0.0239268 0.0186217)
(-0.0103201 0.0261143 0.0215344)
(-0.0125641 0.0280529 0.0196516)
(-0.00439265 0.0207021 0.025194)
(-0.00499435 0.0189857 0.0222641)
(-0.0063908 0.019731 0.0214207)
(-0.00634955 0.0217607 0.0249537)
(-0.00868819 0.0211994 0.0221044)
(-0.00332069 0.0186528 0.0236611)
(-0.00484124 0.0256483 0.0210086)
(-0.00277301 0.0197169 0.0175145)
(-0.00517313 0.0194087 0.0186089)
(-0.00326194 0.0212576 0.021359)
(-0.00641779 0.0207034 0.0179382)
(-0.00317632 0.0185849 0.0186514)
(-0.0112782 0.0277464 0.0194795)
(-0.0113157 0.0276502 0.0196666)
(-0.00878911 0.025051 0.0187131)
(-0.00762459 0.0251086 0.0195168)
(-0.012291 0.02772 0.0188859)
(-0.00915203 0.0273174 0.0207756)
(-0.0146413 0.0216137 0.0159874)
(-0.0186925 0.0269746 0.0107089)
(-0.015677 0.0204754 0.0126925)
(-0.0182357 0.0248754 0.0111629)
(-0.0151514 0.0260271 0.0126154)
(-0.0145256 0.021046 0.010069)
(-0.0115681 0.0235143 0.0109305)
(-0.0151265 0.0257397 0.00663898)
(-0.00411577 0.0207581 0.0139702)
(-0.00505575 0.0198782 0.0170015)
(-0.0042747 0.0237711 0.0144129)
(-0.00732875 0.0196297 0.0165936)
(-0.00784198 0.0237051 0.0130242)
(-0.00761801 0.0265444 0.0128292)
(-0.0231431 0.0219549 0.00522853)
(-0.0244326 0.0252841 0.003553)
(-0.00383769 0.0325108 0.0108496)
(-0.00241347 0.0334833 0.0101929)
(-0.00655829 0.0316067 0.009947)
(-0.00486076 0.0339115 0.00955052)
(-0.00666643 0.027995 0.00982279)
(-0.00478794 0.0297336 0.0111626)
(0.0126871 0.0239999 0.0196775)
(0.0106636 0.0248071 0.0176338)
(0.0162759 0.0242441 0.0209757)
(0.0131688 0.0260105 0.01805)
(0.018459 0.0241198 0.0190162)
(0.0171898 0.023771 0.0180032)
(0.00693485 0.0254806 0.0163036)
(0.00526399 0.0244527 0.0184176)
(0.00806844 0.0283525 0.0158792)
(0.00488788 0.0263862 0.0174433)
(0.00750718 0.0300961 0.0174525)
(0.0102571 0.0294939 0.0178338)
(0.00706815 0.0210927 0.0192294)
(0.00849607 0.0190588 0.0208067)
(0.0038389 0.0196965 0.0183126)
(0.00267517 0.0167445 0.0164754)
(0.00456778 0.016509 0.0192788)
(0.0063112 0.0182761 0.0211152)
(0.0148956 0.0152965 0.0225137)
(0.0130432 0.0198504 0.0229629)
(0.013803 0.0208456 0.0202934)
(0.0115882 0.014903 0.0226392)
(0.00996528 0.0173462 0.0211508)
(0.0167023 0.0195493 0.021401)
(0.0171802 0.0225115 0.00986556)
(0.0143503 0.0207213 0.00653362)
(0.0148792 0.0289364 0.0124581)
(0.0134581 0.0259538 0.00960882)
(0.0155784 0.024846 0.0126939)
(0.0159297 0.0204687 0.0105705)
(0.00584591 -0.00278952 0.0179968)
(0.0100817 -0.00214996 0.0162939)
(0.00841723 -0.00371628 0.0177863)
(0.00921062 -0.00174848 0.0194411)
(0.00636402 -0.00214959 0.0185167)
(0.00951367 -0.00272793 0.0152997)
(0.0155739 0.00911467 0.00908175)
(0.013205 0.00398477 0.0112047)
(0.0131473 0.00477904 0.0111315)
(0.015427 0.00744 0.0094288)
(0.0138357 0.00730535 0.00993655)
(0.0163588 0.0052797 0.0126203)
(0.0157495 0.0108367 0.0195992)
(0.0112981 0.00561844 0.0162984)
(0.0123531 0.00763817 0.0183495)
(0.0116512 0.00535443 0.0129524)
(0.0145974 0.00866757 0.0148452)
(0.0160364 0.0105694 0.017017)
(-0.004125 0.0168442 0.0265296)
(-0.00311259 0.0115319 0.0231099)
(-0.00257315 0.0133259 0.0240266)
(-0.00135177 0.0093897 0.0225945)
(-0.0042834 0.0154711 0.0238525)
(-0.0023916 0.00876712 0.0209644)
(-0.00426918 0.0202286 0.0259762)
(-0.00448629 0.0207157 0.0261002)
(-0.00258177 0.0223079 0.0260306)
(-0.0047495 0.0239585 0.0254169)
(0.00416454 0.00322269 0.0186311)
(0.00456444 0.00504417 0.0207242)
(0.00777287 0.00674092 0.0230297)
(0.00788221 0.00519349 0.0198613)
(0.00506196 0.00249835 0.0155324)
(0.00757707 0.00390038 0.0180969)
(-0.0012229 0.0122799 0.0237066)
(-0.00239931 0.0146535 0.0241496)
(-0.0037494 0.0142257 0.0227717)
(-0.00166972 0.0128406 0.0234964)
(-0.00112151 0.0125201 0.0224351)
(0.0118704 0.00871363 0.018607)
(0.00764895 0.00781955 0.0204264)
(0.0104245 0.00849852 0.0174421)
(0.00771777 0.00698474 0.0203842)
(0.0117299 0.00848098 0.0229081)
(0.0089133 0.00850067 0.0181645)
(0.00270715 -0.00156025 0.0201863)
(0.00287639 -0.00250878 0.0218734)
(0.0043516 -0.00381462 0.0216084)
(0.00445993 -0.00296767 0.0195744)
(0.00528107 -0.00391214 0.0199238)
(0.000865114 -0.00117475 0.022047)
(0.00445053 0.000760653 0.0188664)
(0.00837008 -0.000266906 0.0194993)
(0.00334288 0.00119736 0.0205131)
(0.00363661 0.00118174 0.0224501)
(0.00784019 -0.000465802 0.021376)
(0.00615703 -0.000532377 0.0225334)
(-0.00202941 0.0132084 0.0263488)
(-0.000220895 0.00733654 0.0254085)
(-0.00166237 0.0106398 0.0255608)
(-0.00267214 0.0101041 0.0242402)
(-0.00240252 0.0131518 0.0258578)
(0.000507387 0.0147574 0.0242882)
(-0.00183023 0.0166568 0.0236284)
(0.00216641 0.014319 0.023329)
(0.000852794 0.015167 0.0230038)
(-0.00130976 0.0152504 0.0238282)
(-0.000143701 0.0174777 0.0247941)
(0.00178619 0.0168973 0.0235953)
(-0.000130231 0.01714 0.0211002)
(-0.00132075 0.0171718 0.0218472)
(0.00129075 0.0156526 0.0204608)
(0.00172988 0.0162557 0.019688)
(-5.10294e-05 0.0168107 0.0226353)
(0.0114988 0.0160977 0.0187599)
(0.00900621 0.00964971 0.0158468)
(0.00878307 0.0111944 0.0191892)
(0.00886592 0.0155527 0.02238)
(0.00755743 0.01193 0.0195284)
(0.00991702 0.0126976 0.0175695)
(0.0110145 0.0169478 0.0194339)
(0.0110842 0.0177916 0.0211948)
(0.0088616 0.0150891 0.017939)
(0.0089293 0.0153194 0.0151666)
(0.00492982 0.0253618 0.00835925)
(0.00440329 0.0246238 0.00858684)
(0.00249023 0.0284451 0.00938649)
(0.00259379 0.0282919 0.00644737)
(0.00319159 0.0258166 0.00654904)
(0.00516067 0.024775 0.00909986)
(0.00498515 0.0236135 0.0103175)
(0.00367488 0.0210793 0.0138741)
(0.00591991 0.0227317 0.0140657)
(0.00540197 0.0218895 0.0108472)
(0.00335748 0.0246736 0.0140754)
(0.00612782 0.022637 0.0135049)
(-0.000503708 0.0226941 0.0232224)
(0.00239073 0.0225888 0.0224621)
(0.00148427 0.020993 0.0207167)
(-0.00062039 0.0221228 0.0234642)
(0.00324235 0.0232033 0.0226987)
(0.00168769 0.0184268 0.0197246)
(-0.00217711 0.0319718 0.00366607)
(-0.004667 0.0343138 0.00325398)
(-0.00453228 0.0328989 0.00279251)
(-0.00668419 0.0325944 0.00176237)
(-0.0077703 0.0352299 0.00221706)
(0.00104909 0.0334237 0.00260515)
(0.000453912 0.0310243 0.00457982)
(0.0028258 0.0281003 0.00405266)
(0.00310217 0.0340051 0.0060854)
(3.02703e-05 0.0339259 0.0047029)
(-0.000348913 0.0311628 0.00386439)
(-0.00251534 0.0313419 0.00349003)
(-0.00397433 0.0322524 0.00152942)
(-0.00320341 0.0309853 0.0024968)
(0.000734923 0.0302268 0.0047276)
(0.000595636 0.0297242 0.00490543)
(0.0057476 0.0317863 0.00987842)
(0.00298461 0.0276928 0.0042854)
(0.00550828 0.0307817 0.0104276)
(0.00487218 0.0329042 0.00874557)
(0.00378292 0.0321522 0.00549803)
(0.00350934 0.02783 0.00663987)
(-0.000719629 0.00127801 0.0176984)
(-0.00175404 -0.00139075 0.0161981)
(-0.00109229 -0.001019 0.0166525)
(-0.00194051 -0.000246387 0.0166578)
(-0.00111238 0.000592435 0.0180378)
(-0.000638287 -0.000135676 0.0176359)
(-0.00269544 -0.00358194 0.0132708)
(-0.00239298 -0.002173 0.0146794)
(-0.00209655 -0.00402111 0.0137412)
(-0.00260162 -0.00239171 0.0139136)
(-0.00179276 -0.00454083 0.0127671)
(-0.00213761 -0.00307943 0.0146351)
(0.0147386 0.00838077 0.0226861)
(0.0126176 0.0117185 0.0205348)
(0.0113286 0.00763485 0.0213938)
(0.0151993 0.0105901 0.0220235)
(0.0110306 0.0118585 0.0204531)
(0.00994197 0.0085536 0.0212345)
(0.00180316 0.0043334 0.0202453)
(0.000766732 0.0031206 0.0198216)
(-4.11275e-05 0.00289531 0.0190752)
(-0.000104739 0.00477205 0.0193315)
(0.00156266 0.00561115 0.0203351)
(0.00220813 0.00627892 0.0206975)
(-0.000976151 0.00679231 0.0209697)
(0.0013774 0.00803699 0.0204109)
(0.000863659 0.00792773 0.021644)
(-0.00103484 0.00516676 0.0199839)
(-0.000572675 0.0058756 0.0197932)
(0.000683589 0.00720199 0.0207748)
(0.00144301 0.00474351 0.0192463)
(-0.000173783 0.0057266 0.0205387)
(-0.00122128 0.00494093 0.0192501)
(0.00154857 0.0033082 0.0188201)
(0.000814761 0.00303134 0.0185745)
(-0.000704379 0.0449896 0.0227114)
(-0.00452821 0.0520304 0.0187344)
(-0.00586995 0.0457376 0.0202221)
(0.00230268 0.0544766 0.0228841)
(0.00293545 0.0472671 0.0232185)
(-0.00511027 0.0426556 0.0187398)
(-0.00905626 0.0500302 0.00866353)
(-0.0129554 0.0498464 0.00703304)
(-0.0114221 0.0544633 0.00706149)
(-0.0136125 0.0494083 0.00488355)
(-0.00852237 0.0501734 0.00339779)
(-0.00818643 0.0519187 0.00600698)
(-0.0154945 0.0163936 0.0205685)
(-0.0147717 0.0116854 0.0195704)
(-0.0117682 0.0105297 0.0162187)
(-0.0120827 0.0117649 0.0221971)
(-0.0112424 0.0121951 0.0208559)
(-0.0164018 0.0141526 0.0163523)
(-0.0162802 0.0128594 0.0155237)
(0.00596712 -0.00758212 0.00719931)
(0.00732689 -0.00674557 0.00654693)
(0.0101769 -0.0063078 0.00705808)
(0.0086051 -0.00653579 0.00673035)
(0.00717198 -0.00754072 0.00720803)
(0.00867786 -0.00686202 0.00688986)
(-0.00345492 -0.00370799 0.0144099)
(-0.00347948 -0.00358304 0.0155721)
(-0.0035369 -0.00189194 0.0158673)
(-0.00437677 -0.000620675 0.0165406)
(-0.00384812 -0.00177638 0.0175077)
(-0.00304235 -0.00319032 0.0155589)
(-0.00316854 -0.00355257 0.014053)
(-0.00361679 -0.000513138 0.0150449)
(-0.00377135 -0.00218286 0.0130262)
(-0.00348217 -0.00155698 0.0143044)
(-0.00304587 -0.00220869 0.0164983)
(-0.00309188 -0.00326321 0.0147945)
(-0.00243235 -0.000152182 0.0157177)
(-0.00190896 0.00191119 0.0179849)
(-0.00188599 0.00319564 0.0184601)
(-0.00251701 0.000486336 0.016931)
(-0.00214829 0.00260552 0.0184297)
(-0.00315468 0.00137095 0.0170715)
(0.006794 -0.00405154 0.0210193)
(0.00913835 -0.00166628 0.0222858)
(0.0063861 -0.00135859 0.0189485)
(0.00720952 0.0003318 0.0209007)
(0.00809691 -0.00376927 0.0210171)
(0.00657405 -0.00409545 0.0192714)
(-0.0111497 0.00834222 0.0143191)
(-0.0076071 0.00596834 0.0127256)
(-0.00295119 0.0515663 0.0097487)
(0.00171211 0.00749796 0.0204624)
(-0.000851156 0.00444923 0.0195915)
(0.00506545 0.00706604 0.0214866)
(0.00356923 0.00766747 0.0209378)
(0.00715281 0.00651205 0.0216167)
(0.00736848 0.00950468 0.0205118)
(-0.00199652 -0.00371839 0.0124767)
(-0.0014777 -0.00490507 0.0131581)
(-0.00321464 -0.00117039 0.0142859)
(-0.00162771 -0.00357773 0.0150341)
(-0.00179616 -0.0030548 0.0156578)
(-0.001917 -0.000906416 0.015652)
(-0.00121571 0.00212725 0.0183252)
(0.00507147 0.00448586 0.0218308)
(0.0030826 0.00421671 0.0208566)
(0.0025678 0.00245433 0.020574)
(0.000649875 0.00184814 0.018706)
(0.000822894 0.000959503 0.0191656)
(0.000207636 7.09282e-05 0.0178528)
(-0.000450461 0.0203678 0.0188371)
(-0.00102617 0.01972 0.0197821)
(0.00231321 0.0197538 0.0171406)
(0.00314926 0.0197062 0.0180853)
(0.00771047 0.0216044 0.0175837)
(0.005057 0.0222842 0.016242)
(0.00358802 0.0229554 0.0176566)
(0.00213424 0.0226585 0.0177854)
(0.00232012 0.0219321 0.015471)
(0.00666951 0.0215799 0.01775)
(0.00443097 0.0223092 0.0199933)
(0.00611295 0.0240012 0.020403)
(0.00472359 0.0213844 0.0170554)
(0.0088528 0.0213903 0.0159634)
(0.00671651 0.0258656 0.00700673)
(0.00520891 0.0295808 0.0111768)
(0.00658 0.0240467 0.017266)
(0.00663343 0.0246874 0.0146538)
(0.00841318 0.0257462 0.0111877)
(0.00752422 0.0281139 0.0100584)
(0.00847998 0.0226537 0.0148466)
(0.00788472 0.0233759 0.0147972)
(0.00714257 0.0241781 0.0174767)
(0.00798758 0.0192805 0.0104508)
(0.00746668 0.0255038 0.0138664)
(0.00590851 0.0251935 0.0118272)
(0.00645184 0.0262114 0.0125836)
(0.00297948 0.0270621 0.00511971)
(0.0100051 0.0203145 0.0144098)
(0.00848745 0.0168323 0.0147631)
(0.00561986 0.015808 0.0170755)
(0.00697169 0.0188437 0.0174)
(0.00460978 0.0210911 0.0200559)
(0.00450116 0.0186227 0.0192396)
(0.000495154 0.00258302 0.0191768)
(0.000220184 0.0036247 0.0211046)
(0.00788189 0.00948556 0.0186078)
(0.00564449 0.0120751 0.0223003)
(0.00637845 0.0106881 0.0211598)
(0.00401953 0.013391 0.0241973)
(0.00267981 0.0125779 0.0238023)
(0.00069087 0.0137472 0.024577)
(-0.00252098 0.0158201 0.0243236)
(0.00248553 0.0056993 0.0218187)
(0.00267105 0.00813532 0.0249407)
(0.000813848 0.0122177 0.026461)
(-0.0042189 0.0160735 0.0235458)
(-0.00260422 0.0139691 0.0257975)
(-0.00554708 0.0165916 0.0237578)
(-0.00485762 0.019192 0.0241549)
(-0.00680114 0.0206374 0.0241764)
(-0.00245427 0.0148139 0.0250634)
(-0.00216186 0.0056896 0.0197809)
(-0.00213042 0.00578719 0.0191625)
(-0.00540743 0.0179204 0.0244949)
(-0.000175174 0.0111539 0.0241654)
(-0.000121584 0.0079542 0.0226425)
(0.00131343 0.00808217 0.0228544)
(-0.00429831 0.0191194 0.0271456)
(-0.00381515 0.0175878 0.0259879)
(-0.00417134 0.0168615 0.0270857)
(-0.00189563 0.0146744 0.0272777)
(0.00300253 0.00238102 0.0179003)
(0.0105539 0.00779997 0.0222001)
(0.0137388 -6.75626e-05 0.0174063)
(0.012389 -0.000217082 0.0195361)
(0.0132352 -0.000671102 0.0163372)
(0.00836808 -0.00435541 0.018203)
(0.0102191 -0.00114085 0.0200008)
(0.0172102 0.0157485 0.0158759)
(0.0181938 0.0187887 0.0142438)
(0.0178838 0.0212828 0.0127176)
(0.0160333 0.0152988 0.0116157)
(0.0168332 0.0195269 0.00890926)
(0.0143055 0.0105788 0.00877812)
(0.0165973 0.011965 0.0119047)
(0.0155207 0.0118297 0.0133423)
(0.0152276 0.00962869 0.0111852)
(0.0155626 0.0225685 0.00576568)
(0.0153209 0.022443 0.00925714)
(0.012504 0.0268364 0.010228)
(0.0109955 0.0243996 0.00714211)
(0.0109019 0.0263941 0.00817532)
(0.0114305 0.029991 0.00740911)
(0.0168838 0.0227694 0.010506)
(0.0178157 0.0189968 0.0102166)
(0.0164732 0.0244935 0.0132622)
(0.0170559 0.0226837 0.0145461)
(0.0198111 0.0172889 0.0114502)
(0.0184747 0.0193188 0.0122061)
(0.019697 0.0195915 0.0117227)
(0.0214298 0.0169681 0.0133925)
(0.020903 0.0107841 0.012551)
(0.0198204 0.0093734 0.0131733)
(0.0161596 0.00206179 0.0162924)
(0.0161615 0.00435704 0.0143048)
(0.0164717 0.00192635 0.0170446)
(0.0172689 0.00268592 0.0149038)
(0.0207263 0.00985997 0.0129096)
(0.0191578 0.00656023 0.0132125)
(0.0186036 0.00817201 0.0127897)
(0.0188309 0.00627765 0.0142781)
(0.0184484 0.00473518 0.0151969)
(0.0117754 0.0263149 0.016551)
(0.0112463 0.0194845 0.0203597)
(0.00819066 0.0240164 0.0172323)
(-0.0014244 0.0342647 0.00580791)
(-0.00139764 0.0325967 0.00240592)
(-0.00391379 0.0277994 0.0136966)
(-0.0112129 0.0268144 0.0111352)
(-0.0135313 0.029792 0.00897007)
(0.000450729 0.0312035 0.0125903)
(0.000576984 0.00426177 0.016091)
(0.000901778 0.00240869 0.0161539)
(0.00105274 0.00151377 0.01596)
(0.0023613 -0.00105185 0.0170468)
(0.00141211 -0.000238441 0.0159997)
(0.0024032 -0.00253998 0.0166175)
(0.00343893 -0.00384326 0.0144389)
(0.00266926 -0.00172358 0.0158439)
(0.00327347 -0.00233224 0.0156674)
(0.00217398 0.000678307 0.0161542)
(0.00208889 -0.000831044 0.0158077)
(0.00299856 -0.00324067 0.0154458)
(0.00427003 -0.00452912 0.015669)
(0.00442598 -0.00641466 0.0135631)
(0.00444773 -0.00520682 0.014792)
(-0.023021 0.0267575 0.00325756)
(-0.0223054 0.0237778 0.00425427)
(-0.0221205 0.0256324 0.00348046)
(-0.0177939 0.0292798 0.0080259)
(-0.0205596 0.0235608 0.00466413)
(-0.0196919 0.0270754 0.00544816)
(-0.0210537 0.0273441 0.00251215)
(-0.0100397 0.0217378 0.0139248)
(-0.00625903 0.0168875 0.016249)
(-0.00346344 0.0114427 0.0175796)
(-0.00565565 0.0113396 0.017714)
(-0.000137906 0.024698 0.0175471)
(0.00273413 0.0263883 0.0148045)
(0.00126574 0.0316551 0.00594727)
(0.000428776 0.0247491 0.0150879)
(-0.00688977 0.0315925 0.00131577)
(-0.00442915 0.031284 0.00157474)
(-0.00612264 0.033617 0.000884908)
(-0.00788778 0.0341933 0.00162978)
(-0.00692942 0.0222024 0.0228791)
(-0.00613065 0.0234403 0.0253497)
(-0.00348042 0.0184544 0.0219829)
(-0.00146011 0.017852 0.0242055)
(-0.00240246 0.0198188 0.0257771)
(-0.00689306 0.0249669 0.0268855)