/*--------------------------------*- C++ -*----------------------------------*\
| =========                 |                                                 |
| \\      /  F ield         | OpenFOAM: The Open Source CFD Toolbox           |
|  \\    /   O peration     | Version:  v1612+                                |
|   \\  /    A nd           | Web:      www.OpenFOAM.com                      |
|    \\/     M anipulation  |                                                 |
\*---------------------------------------------------------------------------*/
FoamFile
{
    version     2.0;
    format      ascii;
    class       volVectorField;
    location    "118";
    object      U;
}
// * * * * * * * * * * * * * * * * * * * * * * * * * * * * * * * * * * * * * //

dimensions      [0 1 -1 0 0 0 0];

internalField   nonuniform List<vector> 
21521
(
(0.152576 0.67363 -0.18968)
(0.155133 0.681242 -0.184799)
(0.162872 0.726482 -0.202503)
(0.183725 0.82879 -0.232398)
(0.14045 0.656552 -0.191782)
(0.174311 0.78069 -0.217871)
(0.147138 0.645715 -0.177362)
(0.126827 0.57173 -0.153862)
(0.13197 0.618635 -0.168131)
(0.169196 0.78644 -0.217851)
(0.179506 0.812016 -0.224518)
(0.181541 0.803928 -0.219083)
(0.138755 0.637239 -0.176316)
(0.148782 0.691261 -0.197396)
(0.156681 0.685501 -0.191849)
(0.143351 0.653521 -0.175545)
(0.133642 0.61678 -0.179525)
(0.146701 0.656691 -0.183635)
(0.150636 0.669377 -0.179111)
(0.126436 0.595341 -0.165245)
(0.159533 0.695069 -0.185074)
(0.115207 0.557126 -0.15974)
(0.139697 0.597826 -0.166468)
(0.151434 0.692943 -0.198033)
(0.15011 0.679014 -0.192371)
(0.147825 0.660275 -0.177532)
(0.186647 0.81753 -0.223213)
(0.146249 0.687202 -0.183929)
(0.154977 0.658863 -0.184987)
(0.121457 0.529865 -0.141907)
(0.181084 0.81203 -0.217177)
(0.130045 0.608536 -0.166237)
(0.177941 0.81327 -0.231686)
(0.132505 0.567776 -0.155932)
(0.127343 0.561771 -0.150045)
(0.14206 0.630834 -0.178831)
(0.166499 0.700445 -0.204233)
(0.121493 0.539156 -0.157122)
(0.142407 0.631602 -0.182474)
(0.171565 0.744755 -0.212131)
(0.170363 0.767723 -0.211086)
(0.128912 0.584288 -0.163835)
(0.123536 0.597348 -0.166503)
(0.129416 0.585709 -0.161254)
(0.145523 0.676405 -0.178133)
(0.146603 0.670704 -0.183438)
(0.150973 0.640186 -0.177354)
(0.131859 0.572032 -0.162154)
(0.139721 0.596719 -0.163648)
(0.136618 0.61638 -0.175416)
(0.150425 0.689535 -0.174793)
(0.154383 0.654682 -0.183411)
(0.128352 0.561347 -0.159386)
(0.149879 0.631282 -0.172154)
(0.130291 0.572379 -0.159056)
(0.15973 0.70889 -0.19317)
(0.131653 0.623723 -0.17336)
(0.150156 0.695663 -0.18763)
(0.135063 0.616095 -0.180495)
(0.124017 0.553729 -0.159171)
(0.126265 0.572213 -0.146842)
(0.143776 0.645977 -0.167924)
(0.139232 0.597676 -0.160556)
(0.131067 0.559505 -0.158519)
(0.152593 0.640239 -0.181732)
(0.140206 0.647805 -0.187339)
(0.140421 0.646092 -0.175459)
(0.140776 0.643266 -0.175177)
(0.135087 0.612213 -0.163401)
(0.160615 0.692547 -0.183355)
(0.160299 0.702703 -0.191855)
(0.141275 0.645597 -0.173702)
(0.125306 0.574021 -0.149927)
(0.138644 0.633113 -0.174763)
(0.133653 0.648964 -0.18465)
(0.148245 0.692081 -0.186993)
(0.132058 0.635855 -0.183264)
(0.152076 0.693019 -0.187551)
(0.156191 0.666927 -0.173388)
(0.135348 0.612851 -0.161)
(0.14846 0.679472 -0.192637)
(0.136421 0.63865 -0.179212)
(0.157036 0.719244 -0.198302)
(0.140647 0.613555 -0.167773)
(0.144413 0.673822 -0.19296)
(0.149967 0.630961 -0.182206)
(0.135111 0.589436 -0.166914)
(0.143696 0.672901 -0.187229)
(0.150055 0.668974 -0.183569)
(0.149721 0.636264 -0.169631)
(0.164766 0.724103 -0.193654)
(0.145724 0.662479 -0.181905)
(0.164386 0.745678 -0.199575)
(0.137413 0.610038 -0.169502)
(0.140817 0.648751 -0.174553)
(0.133049 0.636377 -0.164457)
(0.130483 0.608036 -0.175715)
(0.137295 0.641953 -0.172495)
(0.141699 0.619311 -0.182316)
(0.175764 0.807497 -0.222049)
(0.13171 0.62364 -0.152498)
(0.14902 0.631354 -0.171556)
(0.136081 0.604523 -0.160764)
(0.164211 0.719133 -0.204011)
(0.154495 0.657144 -0.181019)
(0.178569 0.776532 -0.209605)
(0.149257 0.690467 -0.189522)
(0.132654 0.626725 -0.183254)
(0.142909 0.64302 -0.181838)
(0.165175 0.735052 -0.201139)
(0.144126 0.66165 -0.189019)
(0.139948 0.568053 -0.151708)
(0.146017 0.608375 -0.169046)
(0.142858 0.623142 -0.169439)
(0.148784 0.699224 -0.18664)
(0.144296 0.612425 -0.175691)
(0.140649 0.661236 -0.19303)
(0.135773 0.610179 -0.169635)
(0.146166 0.651923 -0.177487)
(0.141942 0.6499 -0.179097)
(0.144936 0.650524 -0.178574)
(0.132814 0.582093 -0.158635)
(0.137577 0.643462 -0.168064)
(0.160836 0.741109 -0.212301)
(0.177878 0.816998 -0.222529)
(0.157252 0.694185 -0.18983)
(0.154349 0.67188 -0.184343)
(0.144523 0.663514 -0.18247)
(0.149334 0.676057 -0.186715)
(0.126772 0.575343 -0.163147)
(0.125271 0.558172 -0.161882)
(0.137102 0.64558 -0.180442)
(0.136718 0.607246 -0.169317)
(0.136836 0.619302 -0.166054)
(0.152755 0.686655 -0.183857)
(0.1394 0.627117 -0.174246)
(0.154771 0.714961 -0.199714)
(0.139223 0.65172 -0.17285)
(0.126141 0.601361 -0.164046)
(0.120352 0.568379 -0.1531)
(0.127932 0.621937 -0.177976)
(0.141989 0.616147 -0.172842)
(0.150048 0.650244 -0.185462)
(0.14286 0.613583 -0.16714)
(0.154389 0.740345 -0.200879)
(0.142637 0.64221 -0.181817)
(0.139032 0.667529 -0.184565)
(0.159245 0.686829 -0.198036)
(0.175586 0.801624 -0.214314)
(0.134868 0.603893 -0.173362)
(0.148652 0.633522 -0.178247)
(0.136262 0.652706 -0.177337)
(0.153242 0.683644 -0.182697)
(0.13456 0.611903 -0.169111)
(0.149818 0.650716 -0.177438)
(0.160624 0.733564 -0.211171)
(0.151599 0.644615 -0.177159)
(0.136155 0.608644 -0.1745)
(0.147446 0.684977 -0.189876)
(0.12318 0.54634 -0.14434)
(0.130174 0.619304 -0.167907)
(0.128192 0.582406 -0.154944)
(0.134288 0.591758 -0.161311)
(0.12606 0.542612 -0.147988)
(0.131915 0.573469 -0.153126)
(0.144466 0.644913 -0.182518)
(0.142736 0.624439 -0.167752)
(0.165291 0.725615 -0.199961)
(0.145256 0.68039 -0.183863)
(0.126848 0.576631 -0.158948)
(0.136191 0.628497 -0.170075)
(0.149981 0.688781 -0.187648)
(0.143939 0.672246 -0.184137)
(0.133449 0.610931 -0.163592)
(0.181384 0.817848 -0.223732)
(0.14105 0.641101 -0.175333)
(0.143577 0.642966 -0.171927)
(0.150438 0.651285 -0.187499)
(0.13622 0.599548 -0.163368)
(0.141859 0.6124 -0.162506)
(0.161864 0.730989 -0.199455)
(0.126901 0.589772 -0.155458)
(0.127283 0.59419 -0.162703)
(0.14067 0.629031 -0.171361)
(0.163446 0.740946 -0.202566)
(0.152884 0.694372 -0.196308)
(0.158235 0.712436 -0.199203)
(0.129179 0.643853 -0.172721)
(0.146059 0.639864 -0.179032)
(0.136651 0.640911 -0.179053)
(0.138671 0.611843 -0.177751)
(0.14865 0.690929 -0.193197)
(0.131325 0.569319 -0.153988)
(0.153998 0.648026 -0.184571)
(0.14105 0.579992 -0.152405)
(0.135094 0.572992 -0.16303)
(0.151149 0.667351 -0.188076)
(0.122736 0.557971 -0.159783)
(0.143361 0.6851 -0.193082)
(0.15052 0.656873 -0.192907)
(0.134233 0.639669 -0.182729)
(0.150473 0.691547 -0.191572)
(0.144039 0.673461 -0.190694)
(0.144609 0.62849 -0.177639)
(0.152355 0.708626 -0.194713)
(0.149824 0.679543 -0.184628)
(0.15518 0.659106 -0.17574)
(0.167177 0.706422 -0.193471)
(0.149132 0.670096 -0.179747)
(0.141922 0.662647 -0.184194)
(0.149455 0.659266 -0.179033)
(0.138548 0.601347 -0.171587)
(0.150491 0.648685 -0.17136)
(0.133204 0.578702 -0.159017)
(0.151671 0.728187 -0.204938)
(0.142978 0.665845 -0.193464)
(0.135791 0.602544 -0.164181)
(0.127564 0.554755 -0.137924)
(0.14642 0.672286 -0.193401)
(0.141471 0.646087 -0.18194)
(0.135179 0.628744 -0.173154)
(0.139057 0.649068 -0.177667)
(0.135597 0.625839 -0.176897)
(0.159144 0.707815 -0.192535)
(0.165583 0.762847 -0.220469)
(0.135393 0.604637 -0.160478)
(0.161767 0.697671 -0.195039)
(0.148163 0.684892 -0.184519)
(0.151393 0.651959 -0.184382)
(0.175765 0.763605 -0.207194)
(0.157105 0.692991 -0.19088)
(0.14781 0.647251 -0.175873)
(0.13814 0.625158 -0.169497)
(0.154228 0.682059 -0.187542)
(0.149428 0.604941 -0.17286)
(0.126508 0.58537 -0.154203)
(0.151273 0.673242 -0.186113)
(0.14993 0.684106 -0.191583)
(0.152271 0.687906 -0.196915)
(0.153877 0.670111 -0.192749)
(0.14999 0.656043 -0.183322)
(0.133489 0.58176 -0.162617)
(0.141386 0.595183 -0.170708)
(0.153822 0.681107 -0.187272)
(0.152738 0.633993 -0.163219)
(0.168998 0.714022 -0.198528)
(0.15666 0.671264 -0.184866)
(0.143264 0.632006 -0.176613)
(0.140013 0.659927 -0.185234)
(0.137915 0.603565 -0.16488)
(0.151171 0.649721 -0.175823)
(0.163732 0.73269 -0.19509)
(0.170925 0.762036 -0.214596)
(0.153303 0.697934 -0.19501)
(0.115944 0.597218 -0.16695)
(0.161756 0.749502 -0.203378)
(0.142013 0.674892 -0.185988)
(0.147295 0.671938 -0.176556)
(0.118135 0.62542 -0.170135)
(0.141158 0.624498 -0.176511)
(0.144407 0.635993 -0.170488)
(0.157527 0.692071 -0.1945)
(0.156254 0.724104 -0.201775)
(0.116901 0.531033 -0.148021)
(0.169948 0.728857 -0.1943)
(0.11775 0.526487 -0.148394)
(0.157078 0.675691 -0.189336)
(0.153307 0.671835 -0.184334)
(0.138647 0.617471 -0.160863)
(0.16686 0.733793 -0.200458)
(0.152304 0.661827 -0.174814)
(0.151091 0.677907 -0.184925)
(0.150055 0.638485 -0.17955)
(0.125968 0.59098 -0.164205)
(0.14058 0.656609 -0.183307)
(0.128466 0.584047 -0.162409)
(0.147709 0.646161 -0.186198)
(0.134926 0.629579 -0.167915)
(0.151526 0.720243 -0.189778)
(0.122701 0.569673 -0.161468)
(0.12846 0.587461 -0.159595)
(0.140232 0.618212 -0.160806)
(0.129442 0.588326 -0.156074)
(0.127264 0.586849 -0.154719)
(0.134429 0.632053 -0.175329)
(0.1316 0.606459 -0.16499)
(0.11683 0.527703 -0.141643)
(0.144217 0.661695 -0.176526)
(0.164288 0.704062 -0.192365)
(0.133225 0.60835 -0.167409)
(0.154084 0.682702 -0.192467)
(0.143187 0.637453 -0.172859)
(0.162729 0.717544 -0.193156)
(0.142062 0.620232 -0.169577)
(0.143513 0.639339 -0.174439)
(0.160419 0.697198 -0.197797)
(0.131076 0.640162 -0.181971)
(0.144445 0.650936 -0.188416)
(0.141932 0.572764 -0.159517)
(0.129105 0.571115 -0.159786)
(0.147462 0.689608 -0.200306)
(0.151093 0.657081 -0.185114)
(0.149618 0.677389 -0.188821)
(0.130012 0.589187 -0.159176)
(0.152965 0.695285 -0.191272)
(0.1444 0.632647 -0.172622)
(0.139823 0.625648 -0.169336)
(0.139523 0.629112 -0.164345)
(0.125238 0.574333 -0.145866)
(0.128979 0.600353 -0.163929)
(0.145004 0.633523 -0.171544)
(0.153327 0.704947 -0.199199)
(0.125297 0.58986 -0.158193)
(0.139956 0.635251 -0.175282)
(0.12754 0.577784 -0.157316)
(0.14286 0.631204 -0.179276)
(0.137574 0.628329 -0.169026)
(0.139757 0.629355 -0.173988)
(0.156456 0.70086 -0.20245)
(0.145618 0.653507 -0.170743)
(0.136886 0.624202 -0.173519)
(0.154386 0.701048 -0.194876)
(0.123634 0.561239 -0.154665)
(0.140592 0.633678 -0.178331)
(0.138193 0.589162 -0.165613)
(0.141091 0.629429 -0.175434)
(0.125477 0.559225 -0.155321)
(0.159587 0.709175 -0.203252)
(0.146556 0.665015 -0.177088)
(0.150581 0.650491 -0.180539)
(0.129419 0.599991 -0.159605)
(0.121576 0.573089 -0.160723)
(0.127471 0.611227 -0.164981)
(0.138809 0.637639 -0.174835)
(0.143015 0.645544 -0.18017)
(0.113611 0.547841 -0.147679)
(0.132581 0.590228 -0.161645)
(0.132713 0.597626 -0.162581)
(0.141687 0.638391 -0.17006)
(0.150809 0.642164 -0.165744)
(0.147017 0.642029 -0.174635)
(0.149844 0.662498 -0.180171)
(0.136648 0.600013 -0.158382)
(0.135909 0.634971 -0.171422)
(0.14949 0.668098 -0.182715)
(0.151147 0.680688 -0.186631)
(0.150938 0.670445 -0.183149)
(0.150369 0.70459 -0.190634)
(0.153608 0.702727 -0.198687)
(0.144511 0.634107 -0.168549)
(0.143026 0.669448 -0.180298)
(0.131427 0.592616 -0.174366)
(0.158675 0.722858 -0.202168)
(0.140888 0.640874 -0.177004)
(0.175994 0.817079 -0.213262)
(0.141019 0.65592 -0.185329)
(0.155883 0.672561 -0.18173)
(0.175305 0.791879 -0.217657)
(0.133935 0.615267 -0.171032)
(0.152161 0.678834 -0.188738)
(0.140745 0.656808 -0.186788)
(0.147385 0.646384 -0.183684)
(0.14893 0.661279 -0.174553)
(0.149871 0.670848 -0.181477)
(0.153358 0.677845 -0.18788)
(0.151125 0.665602 -0.176348)
(0.139434 0.607743 -0.176832)
(0.125954 0.58911 -0.156219)
(0.144381 0.673667 -0.189074)
(0.137759 0.621263 -0.187363)
(0.128002 0.599476 -0.160572)
(0.143551 0.625815 -0.16767)
(0.141134 0.616161 -0.172525)
(0.137061 0.63949 -0.17209)
(0.144495 0.666702 -0.189017)
(0.149749 0.670537 -0.175932)
(0.150594 0.657095 -0.175684)
(0.143015 0.636311 -0.17342)
(0.148112 0.674256 -0.188618)
(0.152418 0.67481 -0.181889)
(0.141064 0.644084 -0.180699)
(0.152758 0.653141 -0.183293)
(0.12817 0.596657 -0.157912)
(0.136769 0.644811 -0.181706)
(0.150005 0.651263 -0.176277)
(0.157994 0.667526 -0.199959)
(0.14913 0.637703 -0.178031)
(0.148861 0.654683 -0.184455)
(0.159774 0.700711 -0.192303)
(0.122027 0.551188 -0.151647)
(0.140618 0.605448 -0.163248)
(0.153774 0.718824 -0.196752)
(0.144578 0.620732 -0.171775)
(0.132201 0.628563 -0.174364)
(0.147538 0.681026 -0.19081)
(0.139731 0.636539 -0.169921)
(0.12589 0.571348 -0.158405)
(0.12631 0.605593 -0.163199)
(0.140696 0.605781 -0.165633)
(0.129556 0.599252 -0.160313)
(0.143712 0.631724 -0.172812)
(0.129368 0.564569 -0.160767)
(0.118341 0.582951 -0.168755)
(0.136112 0.580103 -0.153952)
(0.130433 0.598232 -0.162496)
(0.134744 0.613355 -0.172208)
(0.121584 0.580747 -0.161917)
(0.135556 0.586178 -0.166202)
(0.152715 0.677003 -0.185198)
(0.148959 0.64045 -0.175359)
(0.137718 0.65351 -0.181098)
(0.146538 0.623697 -0.176433)
(0.131524 0.567 -0.153032)
(0.148069 0.64651 -0.177662)
(0.144766 0.634899 -0.170061)
(0.127687 0.54825 -0.149481)
(0.148789 0.599379 -0.172947)
(0.131902 0.615619 -0.169107)
(0.147994 0.660835 -0.180096)
(0.16257 0.720086 -0.196918)
(0.14033 0.629191 -0.176492)
(0.159591 0.685437 -0.193392)
(0.128811 0.57829 -0.160965)
(0.146373 0.659531 -0.17875)
(0.124863 0.582273 -0.156113)
(0.153939 0.670929 -0.191497)
(0.126464 0.575361 -0.158488)
(0.124835 0.595272 -0.161604)
(0.149894 0.66351 -0.183768)
(0.138558 0.616518 -0.170285)
(0.157983 0.721114 -0.198835)
(0.115879 0.586089 -0.161317)
(0.137562 0.617445 -0.153019)
(0.13506 0.635388 -0.173669)
(0.131355 0.566622 -0.147297)
(0.145489 0.6431 -0.178229)
(0.165728 0.74156 -0.203406)
(0.142937 0.633116 -0.175804)
(0.118869 0.557298 -0.148205)
(0.139343 0.664884 -0.182069)
(0.142653 0.652731 -0.174783)
(0.127686 0.593624 -0.156561)
(0.140174 0.624091 -0.168093)
(0.134356 0.621334 -0.165452)
(0.148597 0.619301 -0.166749)
(0.132283 0.605825 -0.170168)
(0.130506 0.611275 -0.173351)
(0.130579 0.610473 -0.166405)
(0.144088 0.650904 -0.175659)
(0.156617 0.705758 -0.191166)
(0.127634 0.606491 -0.165284)
(0.119907 0.557922 -0.164647)
(0.152077 0.671656 -0.189617)
(0.148594 0.682573 -0.191037)
(0.143505 0.620756 -0.167467)
(0.150163 0.688459 -0.19803)
(0.142248 0.633529 -0.173246)
(0.14305 0.638837 -0.179495)
(0.140427 0.659714 -0.188235)
(0.122532 0.572443 -0.162598)
(0.144872 0.612354 -0.159263)
(0.130763 0.600886 -0.159613)
(0.12962 0.608462 -0.169217)
(0.148762 0.60807 -0.171799)
(0.151867 0.637905 -0.187971)
(0.119131 0.543192 -0.154041)
(0.137157 0.634635 -0.183591)
(0.131859 0.606258 -0.158445)
(0.129676 0.59335 -0.166082)
(0.143102 0.656562 -0.181695)
(0.138051 0.620198 -0.177968)
(0.14507 0.687681 -0.1862)
(0.135793 0.592021 -0.1645)
(0.160851 0.720538 -0.195859)
(0.150415 0.667781 -0.190701)
(0.139381 0.611497 -0.175274)
(0.151824 0.665854 -0.173169)
(0.120131 0.546091 -0.151712)
(0.120301 0.550871 -0.155822)
(0.138411 0.595908 -0.157422)
(0.140721 0.605566 -0.164542)
(0.156735 0.687369 -0.199264)
(0.107197 0.525665 -0.144965)
(0.129472 0.560905 -0.157403)
(0.114079 0.553714 -0.159715)
(0.152778 0.622337 -0.166713)
(0.146914 0.641328 -0.177512)
(0.147052 0.662805 -0.185811)
(0.167376 0.75686 -0.204064)
(0.138751 0.640089 -0.182744)
(0.165611 0.751041 -0.207823)
(0.134194 0.61184 -0.166957)
(0.152071 0.67314 -0.186047)
(0.145113 0.673398 -0.186412)
(0.153268 0.696612 -0.190269)
(0.127174 0.562529 -0.165555)
(0.11902 0.539817 -0.152205)
(0.144859 0.647641 -0.172209)
(0.158262 0.735481 -0.195913)
(0.140942 0.612762 -0.160905)
(0.135602 0.598803 -0.166208)
(0.140854 0.599344 -0.166183)
(0.129965 0.552001 -0.15712)
(0.116737 0.546393 -0.151794)
(0.137649 0.581025 -0.16902)
(0.125531 0.56802 -0.161252)
(0.137453 0.651619 -0.187881)
(0.160359 0.726484 -0.202222)
(0.132296 0.604757 -0.160681)
(0.121163 0.554743 -0.154583)
(0.135619 0.64144 -0.167715)
(0.124829 0.55322 -0.159161)
(0.141839 0.642014 -0.182452)
(0.132298 0.562435 -0.164973)
(0.11207 0.529091 -0.148454)
(0.153799 0.721648 -0.202484)
(0.141622 0.655369 -0.181529)
(0.126543 0.590842 -0.158617)
(0.133169 0.586557 -0.158587)
(0.129847 0.5704 -0.15942)
(0.139751 0.612733 -0.160549)
(0.156737 0.697464 -0.193534)
(0.166117 0.734484 -0.197788)
(0.131552 0.59 -0.161692)
(0.111526 0.526459 -0.144269)
(0.120878 0.528373 -0.139912)
(0.147567 0.668475 -0.18678)
(0.141008 0.641172 -0.175382)
(0.140971 0.619882 -0.169488)
(0.163982 0.716945 -0.189368)
(0.156358 0.6966 -0.188479)
(0.154773 0.660433 -0.187637)
(0.148073 0.684144 -0.181729)
(0.137593 0.583172 -0.157804)
(0.128695 0.637122 -0.171713)
(0.140817 0.611128 -0.168291)
(0.15978 0.704712 -0.193126)
(0.136861 0.619937 -0.171458)
(0.14593 0.632708 -0.18165)
(0.146986 0.631937 -0.17168)
(0.149614 0.679755 -0.188343)
(0.138451 0.613115 -0.171065)
(0.112426 0.52761 -0.147393)
(0.122016 0.567346 -0.155203)
(0.158589 0.668279 -0.18228)
(0.173608 0.776324 -0.216794)
(0.131316 0.588185 -0.167106)
(0.206269 0.953985 -0.264331)
(0.177976 0.789173 -0.215944)
(0.210776 0.947411 -0.258352)
(0.213832 0.948082 -0.254938)
(0.155353 0.698288 -0.193643)
(0.1574 0.736125 -0.208337)
(0.159136 0.698945 -0.190312)
(0.215594 0.95852 -0.263917)
(0.199792 0.864688 -0.238585)
(0.213521 0.992024 -0.267913)
(0.176981 0.793499 -0.21781)
(0.172292 0.826627 -0.228353)
(0.2151 0.986256 -0.266449)
(0.188551 0.847364 -0.228652)
(0.224041 1.0316 -0.276997)
(0.221765 1.00903 -0.276603)
(0.150927 0.640147 -0.180679)
(0.216213 0.983027 -0.264247)
(0.155284 0.696502 -0.188865)
(0.186022 0.822226 -0.226934)
(0.144759 0.622671 -0.171786)
(0.147203 0.691124 -0.203163)
(0.163033 0.733234 -0.199742)
(0.187969 0.843268 -0.235347)
(0.148356 0.726612 -0.203227)
(0.182288 0.83255 -0.226919)
(0.193961 0.880216 -0.242703)
(0.205643 0.946487 -0.256873)
(0.183301 0.863203 -0.227792)
(0.21858 1.00597 -0.271552)
(0.126585 0.549897 -0.153239)
(0.163187 0.774461 -0.20702)
(0.163583 0.732237 -0.200404)
(0.166664 0.759995 -0.215797)
(0.190459 0.879103 -0.241331)
(0.139346 0.66927 -0.180272)
(0.156852 0.736118 -0.204111)
(0.127959 0.612257 -0.171989)
(0.183946 0.856193 -0.228458)
(0.16493 0.774417 -0.210956)
(0.117125 0.550056 -0.14606)
(0.149666 0.659703 -0.182014)
(0.134616 0.607957 -0.166627)
(0.12789 0.561735 -0.161251)
(0.165413 0.721332 -0.201081)
(0.155773 0.701945 -0.193481)
(0.225941 1.03039 -0.279173)
(0.181765 0.805487 -0.223063)
(0.117931 0.526474 -0.149656)
(0.137675 0.615475 -0.164081)
(0.185055 0.844705 -0.237781)
(0.143854 0.651131 -0.174581)
(0.218208 0.999671 -0.274789)
(0.185276 0.85332 -0.236545)
(0.189114 0.863067 -0.235779)
(0.168894 0.74701 -0.201774)
(0.222249 1.01116 -0.278173)
(0.167854 0.732901 -0.201133)
(0.213332 0.939332 -0.261795)
(0.169645 0.761357 -0.210612)
(0.227128 1.04003 -0.281898)
(0.207709 0.934033 -0.258361)
(0.217849 0.993811 -0.270863)
(0.210592 0.952312 -0.256129)
(0.223483 1.01812 -0.280132)
(0.155823 0.692664 -0.19536)
(0.128211 0.560055 -0.154039)
(0.126326 0.527182 -0.149248)
(0.193733 0.853446 -0.236899)
(0.152571 0.68508 -0.193892)
(0.220068 0.97405 -0.262833)
(0.142933 0.648694 -0.17306)
(0.143385 0.674181 -0.189637)
(0.181482 0.812435 -0.223)
(0.168691 0.757764 -0.205267)
(0.119952 0.578659 -0.16127)
(0.131122 0.586322 -0.159278)
(0.145283 0.656877 -0.178947)
(0.148373 0.66125 -0.180174)
(0.149904 0.663146 -0.183703)
(0.153061 0.701125 -0.184944)
(0.163641 0.686145 -0.190288)
(0.199139 0.916989 -0.254889)
(0.132143 0.634039 -0.17103)
(0.177413 0.806196 -0.220357)
(0.190325 0.867214 -0.232632)
(0.147972 0.671036 -0.184115)
(0.128951 0.573198 -0.143797)
(0.184582 0.817579 -0.221923)
(0.195939 0.886132 -0.244482)
(0.137374 0.649921 -0.179789)
(0.14904 0.664445 -0.186343)
(0.182857 0.812775 -0.224818)
(0.200692 0.910015 -0.246191)
(0.222746 1.00741 -0.274573)
(0.206892 0.899634 -0.245536)
(0.201685 0.87416 -0.243082)
(0.222706 1.01545 -0.274285)
(0.199 0.884181 -0.242982)
(0.190503 0.850146 -0.238936)
(0.221676 1.01344 -0.274964)
(0.20949 0.926867 -0.254701)
(0.217525 0.995755 -0.271673)
(0.185189 0.871348 -0.238878)
(0.224171 1.03711 -0.27944)
(0.186028 0.808133 -0.226231)
(0.197652 0.901512 -0.248802)
(0.223073 1.02704 -0.276677)
(0.218783 1.00335 -0.276312)
(0.171224 0.764216 -0.209906)
(0.188704 0.860164 -0.239054)
(0.211444 0.964724 -0.264773)
(0.184994 0.837068 -0.226099)
(0.162876 0.749199 -0.207447)
(0.221699 1.02683 -0.277937)
(0.223561 1.03189 -0.277576)
(0.212802 0.956523 -0.262416)
(0.182718 0.835442 -0.227825)
(0.220957 1.00771 -0.274329)
(0.226082 1.03707 -0.281634)
(0.211723 0.958565 -0.263313)
(0.218636 1.00216 -0.270539)
(0.214981 0.95961 -0.258678)
(0.206065 0.942754 -0.258267)
(0.222699 1.01996 -0.27772)
(0.224783 1.03613 -0.279285)
(0.225219 1.03193 -0.278033)
(0.221579 1.01784 -0.275155)
(0.226334 1.04427 -0.280663)
(0.12815 0.589548 -0.162235)
(0.145288 0.603285 -0.165284)
(0.124877 0.513554 -0.13142)
(0.190821 0.865846 -0.232038)
(0.195916 0.878894 -0.245934)
(0.212834 0.978582 -0.265649)
(0.199605 0.889007 -0.240672)
(0.16992 0.775267 -0.209165)
(0.222185 1.01363 -0.273438)
(0.133223 0.562294 -0.157988)
(0.157236 0.687523 -0.19188)
(0.180803 0.796847 -0.221278)
(0.144367 0.618832 -0.162851)
(0.198804 0.907048 -0.252051)
(0.186369 0.824989 -0.225235)
(0.119032 0.517755 -0.14262)
(0.173624 0.759531 -0.218512)
(0.222839 1.02982 -0.278227)
(0.204951 0.958108 -0.26439)
(0.222625 1.01603 -0.274794)
(0.226706 1.04476 -0.281744)
(0.215757 0.969908 -0.269282)
(0.145553 0.668866 -0.174504)
(0.124381 0.595444 -0.160926)
(0.19256 0.870577 -0.237442)
(0.192376 0.867914 -0.23684)
(0.228206 1.04307 -0.281834)
(0.223245 1.02568 -0.277391)
(0.201334 0.929311 -0.252099)
(0.215179 0.983398 -0.267162)
(0.227336 1.04306 -0.281446)
(0.169818 0.762339 -0.211938)
(0.151308 0.663273 -0.188749)
(0.177691 0.795884 -0.216649)
(0.140938 0.625257 -0.163665)
(0.143695 0.635912 -0.177299)
(0.179125 0.793945 -0.212718)
(0.21035 0.951771 -0.262617)
(0.207693 0.949835 -0.255549)
(0.187546 0.840239 -0.229252)
(0.219423 1.00361 -0.272487)
(0.224332 1.02538 -0.277601)
(0.169958 0.800022 -0.212879)
(0.167534 0.754907 -0.207815)
(0.132694 0.653063 -0.18558)
(0.187765 0.81061 -0.217892)
(0.143246 0.625095 -0.180251)
(0.168074 0.770688 -0.211315)
(0.144062 0.630436 -0.183726)
(0.152937 0.699706 -0.198251)
(0.1232 0.584922 -0.167901)
(0.132232 0.560588 -0.155737)
(0.159903 0.733127 -0.198124)
(0.203476 0.92255 -0.251104)
(0.187553 0.844258 -0.235106)
(0.183982 0.829755 -0.223481)
(0.167105 0.766462 -0.20864)
(0.180896 0.778126 -0.215728)
(0.220429 1.00805 -0.272846)
(0.184918 0.825761 -0.228965)
(0.216414 0.978644 -0.265146)
(0.211093 0.958129 -0.259294)
(0.138381 0.67117 -0.181991)
(0.142249 0.625879 -0.166829)
(0.172901 0.772656 -0.210587)
(0.201257 0.898475 -0.250976)
(0.210592 0.961294 -0.265342)
(0.169417 0.787134 -0.21834)
(0.172913 0.767473 -0.214435)
(0.155199 0.687558 -0.191936)
(0.184788 0.853411 -0.236139)
(0.116112 0.530288 -0.140573)
(0.122107 0.564857 -0.157705)
(0.129392 0.599128 -0.162327)
(0.13638 0.624172 -0.176799)
(0.153276 0.670166 -0.185733)
(0.137666 0.595261 -0.159678)
(0.151607 0.658372 -0.179533)
(0.122128 0.551773 -0.151062)
(0.128925 0.608741 -0.167034)
(0.214272 0.992088 -0.274487)
(0.196145 0.895768 -0.252276)
(0.203191 0.934125 -0.260694)
(0.180784 0.811797 -0.232819)
(0.205897 0.915748 -0.25138)
(0.195991 0.895341 -0.243527)
(0.191485 0.88131 -0.245799)
(0.224868 1.02737 -0.27924)
(0.207382 0.923246 -0.259996)
(0.205012 0.918344 -0.252694)
(0.220137 1.00278 -0.272329)
(0.217313 0.984683 -0.268696)
(0.206444 0.9321 -0.255937)
(0.155136 0.666525 -0.190128)
(0.125219 0.554862 -0.146232)
(0.146197 0.658219 -0.176808)
(0.219266 0.987759 -0.268692)
(0.17235 0.746381 -0.207548)
(0.211521 0.955538 -0.262822)
(0.182951 0.826431 -0.223409)
(0.209516 0.966117 -0.264601)
(0.203505 0.895361 -0.246309)
(0.190787 0.86258 -0.239143)
(0.132351 0.61434 -0.172164)
(0.145513 0.67008 -0.179854)
(0.14528 0.667141 -0.187522)
(0.143496 0.65318 -0.178026)
(0.118961 0.550708 -0.148356)
(0.172284 0.794022 -0.217822)
(0.160289 0.71916 -0.200548)
(0.150627 0.690034 -0.190046)
(0.137228 0.623034 -0.166683)
(0.161748 0.713418 -0.190363)
(0.151526 0.707232 -0.187161)
(0.154759 0.687048 -0.190264)
(0.175314 0.782657 -0.210027)
(0.150442 0.68975 -0.190703)
(0.178286 0.759167 -0.212123)
(0.16118 0.738545 -0.199877)
(0.205736 0.911772 -0.247605)
(0.207006 0.927841 -0.254237)
(0.175239 0.784185 -0.213504)
(0.173433 0.76039 -0.217023)
(0.212585 0.968511 -0.264641)
(0.161736 0.712852 -0.195579)
(0.202414 0.912223 -0.250804)
(0.184255 0.83388 -0.230026)
(0.200704 0.895013 -0.245915)
(0.190296 0.875118 -0.240993)
(0.205158 0.95164 -0.256243)
(0.223805 1.03423 -0.277836)
(0.204551 0.943437 -0.253441)
(0.221115 1.01836 -0.27433)
(0.214091 0.98167 -0.264647)
(0.21822 1.00501 -0.271793)
(0.219767 1.00956 -0.270324)
(0.184467 0.833811 -0.224482)
(0.209604 0.944668 -0.257132)
(0.161198 0.753306 -0.206391)
(0.196743 0.897219 -0.241598)
(0.18957 0.862064 -0.238345)
(0.189601 0.871706 -0.243574)
(0.187998 0.847706 -0.233483)
(0.161034 0.718871 -0.198752)
(0.210859 0.964056 -0.260729)
(0.190732 0.867937 -0.235477)
(0.184557 0.804491 -0.221561)
(0.183441 0.807632 -0.222778)
(0.184469 0.845548 -0.233047)
(0.212255 0.95975 -0.263493)
(0.223746 1.03173 -0.277822)
(0.207799 0.937045 -0.25599)
(0.222219 1.0172 -0.273962)
(0.219037 1.00521 -0.270686)
(0.221106 1.01532 -0.272313)
(0.220279 1.00831 -0.272101)
(0.218367 0.988716 -0.267103)
(0.183464 0.814999 -0.220304)
(0.219424 0.981622 -0.26947)
(0.211888 0.949487 -0.259851)
(0.217001 0.988948 -0.266673)
(0.209352 0.932505 -0.254511)
(0.21065 0.950321 -0.256501)
(0.196591 0.884064 -0.236612)
(0.207122 0.941651 -0.253866)
(0.200152 0.906421 -0.246526)
(0.200265 0.897311 -0.243787)
(0.214171 0.971148 -0.26646)
(0.211194 0.948024 -0.256306)
(0.210631 0.949467 -0.257904)
(0.213268 0.965663 -0.261579)
(0.223331 1.01615 -0.276681)
(0.222766 1.01942 -0.275575)
(0.21195 0.953288 -0.260117)
(0.221029 1.02052 -0.279434)
(0.226102 1.03785 -0.281619)
(0.211494 0.980851 -0.269863)
(0.224401 1.02454 -0.280662)
(0.225614 1.03654 -0.282833)
(0.226342 1.03367 -0.282237)
(0.225023 1.02689 -0.280811)
(0.196459 0.884953 -0.241422)
(0.157053 0.695568 -0.189055)
(0.190502 0.863195 -0.235237)
(0.16921 0.778706 -0.210436)
(0.151423 0.655805 -0.172457)
(0.156035 0.695246 -0.19214)
(0.134952 0.557746 -0.1431)
(0.134696 0.597928 -0.154121)
(0.14337 0.649635 -0.17483)
(0.13569 0.679116 -0.189101)
(0.129146 0.59957 -0.164037)
(0.203426 0.927039 -0.246779)
(0.130111 0.554779 -0.138099)
(0.198778 0.90789 -0.241731)
(0.191574 0.85612 -0.233197)
(0.206772 0.954064 -0.257394)
(0.208155 0.94767 -0.257452)
(0.18467 0.826456 -0.225124)
(0.142618 0.664462 -0.184049)
(0.160791 0.698751 -0.193118)
(0.145656 0.649371 -0.177673)
(0.141058 0.646142 -0.178887)
(0.145947 0.677368 -0.188787)
(0.140253 0.647879 -0.178498)
(0.154588 0.68077 -0.190052)
(0.149004 0.647397 -0.180252)
(0.147025 0.640151 -0.18361)
(0.143058 0.61678 -0.180871)
(0.130784 0.591077 -0.171367)
(0.1263 0.566095 -0.148581)
(0.185222 0.808983 -0.224277)
(0.130721 0.584913 -0.165215)
(0.150735 0.649754 -0.187635)
(0.127537 0.570651 -0.158275)
(0.147398 0.648187 -0.185585)
(0.138108 0.645778 -0.182543)
(0.150596 0.716146 -0.199112)
(0.216031 0.973011 -0.26272)
(0.173939 0.789245 -0.211435)
(0.190751 0.824977 -0.225319)
(0.178413 0.811909 -0.22785)
(0.210334 0.923751 -0.255067)
(0.206216 0.910347 -0.247264)
(0.19011 0.852237 -0.236643)
(0.15666 0.724363 -0.197304)
(0.20664 0.917409 -0.25422)
(0.177828 0.784604 -0.220585)
(0.185065 0.848599 -0.236695)
(0.181987 0.812415 -0.227)
(0.189001 0.841105 -0.231682)
(0.151725 0.679746 -0.19484)
(0.145032 0.711249 -0.201217)
(0.158199 0.709024 -0.194021)
(0.152965 0.67981 -0.187985)
(0.167767 0.736581 -0.201415)
(0.205256 0.923982 -0.257263)
(0.18183 0.762717 -0.218282)
(0.177614 0.797381 -0.210821)
(0.183461 0.845116 -0.238338)
(0.142629 0.643837 -0.177874)
(0.121931 0.582713 -0.158656)
(0.157327 0.697007 -0.191403)
(0.161992 0.695604 -0.193512)
(0.145638 0.642934 -0.173883)
(0.224102 1.02959 -0.279116)
(0.207289 0.948509 -0.259807)
(0.202688 0.899502 -0.248881)
(0.21404 0.971628 -0.266428)
(0.222082 1.01441 -0.276616)
(0.221139 1.0037 -0.274844)
(0.216601 0.986074 -0.269319)
(0.186425 0.8623 -0.23106)
(0.19217 0.885506 -0.241816)
(0.222941 1.02698 -0.27737)
(0.206292 0.944482 -0.257726)
(0.213112 0.966229 -0.261274)
(0.21233 0.962371 -0.258399)
(0.211216 0.968758 -0.262524)
(0.187566 0.856027 -0.232846)
(0.168002 0.79604 -0.218282)
(0.184525 0.83563 -0.226511)
(0.160404 0.75293 -0.208825)
(0.136766 0.640817 -0.168948)
(0.194161 0.887175 -0.241018)
(0.204694 0.929169 -0.252749)
(0.186497 0.848816 -0.23162)
(0.183931 0.834494 -0.229227)
(0.169797 0.775405 -0.209164)
(0.171212 0.749886 -0.202296)
(0.177496 0.829862 -0.222197)
(0.223225 1.02706 -0.277273)
(0.192557 0.880353 -0.2396)
(0.206696 0.941238 -0.255768)
(0.209879 0.964234 -0.264024)
(0.21779 0.997689 -0.271327)
(0.197144 0.919377 -0.250732)
(0.14966 0.704907 -0.196424)
(0.136463 0.614717 -0.171011)
(0.127411 0.564679 -0.165742)
(0.13352 0.606857 -0.1734)
(0.133226 0.592528 -0.159651)
(0.160471 0.696029 -0.185946)
(0.15101 0.690885 -0.186642)
(0.148869 0.724131 -0.195577)
(0.139819 0.649225 -0.181162)
(0.12706 0.599301 -0.169148)
(0.207576 0.951152 -0.257204)
(0.205962 0.947463 -0.256864)
(0.214481 0.985459 -0.265792)
(0.196115 0.919439 -0.248958)
(0.18987 0.870055 -0.235042)
(0.177271 0.817066 -0.223751)
(0.205126 0.939364 -0.253638)
(0.185413 0.834949 -0.230834)
(0.193837 0.88093 -0.239195)
(0.155438 0.718596 -0.200625)
(0.171072 0.794054 -0.21641)
(0.172311 0.811713 -0.226114)
(0.146769 0.669261 -0.184553)
(0.176205 0.8021 -0.222474)
(0.144352 0.661964 -0.179899)
(0.157077 0.695871 -0.193024)
(0.174614 0.800815 -0.220333)
(0.207542 0.952733 -0.260359)
(0.197889 0.899495 -0.243505)
(0.174816 0.803769 -0.225699)
(0.196296 0.910807 -0.244238)