/*--------------------------------*- C++ -*----------------------------------*\
| =========                 |                                                 |
| \\      /  F ield         | OpenFOAM: The Open Source CFD Toolbox           |
|  \\    /   O peration     | Version:  v1612+                                |
|   \\  /    A nd           | Web:      www.OpenFOAM.com                      |
|    \\/     M anipulation  |                                                 |
\*---------------------------------------------------------------------------*/
FoamFile
{
    version     2.0;
    format      ascii;
    class       volVectorField;
    location    "166";
    object      U;
}
// * * * * * * * * * * * * * * * * * * * * * * * * * * * * * * * * * * * * * //

dimensions      [0 1 -1 0 0 0 0];

internalField   nonuniform List<vector> 
16966
(
(-0.149644 0.832228 -0.3139)
(-0.147352 0.868292 -0.329502)
(-0.147564 0.865026 -0.32398)
(-0.145971 0.866856 -0.325755)
(-0.150299 0.87112 -0.325742)
(-0.152288 0.871167 -0.326531)
(-0.148019 0.864207 -0.321522)
(-0.148323 0.867598 -0.328638)
(-0.141963 0.860749 -0.32583)
(-0.147823 0.862873 -0.321795)
(-0.15381 0.86853 -0.326391)
(-0.149911 0.865736 -0.328395)
(-0.141269 0.855252 -0.324796)
(-0.151063 0.865136 -0.324876)
(-0.151121 0.862743 -0.325446)
(-0.145691 0.855935 -0.327217)
(-0.149285 0.864501 -0.322856)
(-0.146205 0.860812 -0.324571)
(-0.147231 0.860461 -0.322246)
(-0.14787 0.85598 -0.322074)
(-0.13443 0.850087 -0.310886)
(-0.132954 0.850045 -0.31054)
(-0.132257 0.82993 -0.305743)
(-0.129981 0.828785 -0.301224)
(-0.136134 0.845736 -0.30661)
(-0.132973 0.850183 -0.309997)
(-0.137075 0.854512 -0.310055)
(-0.127895 0.826038 -0.300248)
(-0.116678 0.741889 -0.276529)
(-0.12784 0.822143 -0.298064)
(-0.128832 0.82867 -0.300678)
(-0.132616 0.833177 -0.303392)
(-0.134775 0.825725 -0.299372)
(-0.121455 0.730851 -0.273731)
(-0.11867 0.728778 -0.267799)
(-0.126754 0.812935 -0.294325)
(-0.124297 0.777595 -0.286108)
(-0.126874 0.80233 -0.293116)
(-0.11554 0.731392 -0.270832)
(-0.124289 0.704007 -0.250011)
(-0.125865 0.736519 -0.262655)
(-0.121788 0.719039 -0.248474)
(-0.129279 0.730827 -0.253976)
(-0.121707 0.708795 -0.250698)
(-0.128816 0.776086 -0.275644)
(-0.119847 0.705386 -0.252328)
(-0.112062 0.643374 -0.229894)
(-0.127425 0.750043 -0.262005)
(-0.113065 0.629334 -0.233735)
(-0.134286 0.812025 -0.291232)
(-0.135916 0.809102 -0.292137)
(-0.123908 0.762068 -0.259295)
(-0.125991 0.705536 -0.252221)
(-0.123088 0.732924 -0.266116)
(-0.120059 0.671551 -0.251482)
(-0.109883 0.622361 -0.232919)
(-0.11758 0.681394 -0.258361)
(-0.121214 0.686831 -0.265509)
(-0.139048 0.791633 -0.293903)
(-0.142983 0.808109 -0.299898)
(-0.130961 0.774612 -0.297779)
(-0.121099 0.709346 -0.267544)
(-0.134082 0.777325 -0.292123)
(-0.116863 0.660572 -0.248597)
(-0.118003 0.640849 -0.241242)
(-0.122908 0.6944 -0.270857)
(-0.113901 0.663883 -0.249321)
(-0.120773 0.700789 -0.259811)
(-0.141373 0.794276 -0.29784)
(-0.100968 0.599356 -0.231065)
(-0.107942 0.642619 -0.24125)
(-0.127194 0.745814 -0.283158)
(-0.134068 0.787021 -0.292129)
(-0.102325 0.591932 -0.226418)
(-0.101874 0.570877 -0.217592)
(-0.116163 0.728427 -0.271873)
(-0.137364 0.788117 -0.299217)
(-0.138395 0.804598 -0.305815)
(-0.147082 0.829212 -0.313771)
(-0.142344 0.814154 -0.310806)
(-0.141795 0.827193 -0.312688)
(-0.140939 0.842155 -0.317241)
(-0.149119 0.860868 -0.326948)
(-0.147177 0.852374 -0.324982)
(-0.14518 0.847907 -0.323956)
(-0.143831 0.845265 -0.32449)
(-0.147299 0.853851 -0.3229)
(-0.124523 0.76363 -0.293731)
(-0.136219 0.799026 -0.308346)
(-0.0981257 0.573393 -0.209005)
(-0.102446 0.633441 -0.241643)
(-0.121814 0.698163 -0.260956)
(-0.11363 0.702509 -0.263966)
(-0.118281 0.710611 -0.267494)
(-0.107863 0.626667 -0.241233)
(-0.130574 0.742866 -0.279873)
(-0.112605 0.647451 -0.253919)
(-0.10469 0.598878 -0.23637)
(-0.150171 0.847461 -0.318584)
(-0.14152 0.819667 -0.310078)
(-0.136222 0.783333 -0.297113)
(-0.131583 0.763149 -0.283156)
(-0.117904 0.676477 -0.259853)
(-0.113508 0.67535 -0.255573)
(-0.119819 0.692633 -0.260427)
(-0.13009 0.720415 -0.278012)
(-0.130191 0.711885 -0.267257)
(-0.120803 0.687807 -0.261032)
(-0.138688 0.798618 -0.303067)
(-0.128644 0.724912 -0.266076)
(-0.115139 0.629948 -0.234128)
(-0.107206 0.604478 -0.22896)
(-0.11411 0.654779 -0.250893)
(-0.11664 0.649732 -0.24719)
(-0.118345 0.659636 -0.248999)
(-0.104306 0.594627 -0.222192)
(-0.159124 0.884915 -0.328466)
(-0.154592 0.881824 -0.329507)
(-0.152756 0.881258 -0.331762)
(-0.150944 0.879819 -0.326575)
(-0.159587 0.901482 -0.330655)
(-0.153542 0.893367 -0.330428)
(-0.155844 0.887177 -0.329804)
(-0.159455 0.890249 -0.330106)
(-0.158624 0.890278 -0.333755)
(-0.153069 0.885841 -0.330585)
(-0.156776 0.895034 -0.333708)
(-0.154608 0.884858 -0.329071)
(-0.15539 0.888615 -0.331052)
(-0.158721 0.897608 -0.330356)
(-0.152848 0.88692 -0.331442)
(-0.156561 0.899837 -0.330402)
(-0.156739 0.895024 -0.331984)
(-0.157328 0.894976 -0.328046)
(-0.15911 0.895585 -0.331623)
(-0.157458 0.895127 -0.333806)
(-0.151815 0.887324 -0.330564)
(-0.163678 0.921289 -0.338634)
(-0.160238 0.92431 -0.33759)
(-0.160729 0.929206 -0.340388)
(-0.159746 0.915336 -0.334232)
(-0.160436 0.913306 -0.332851)
(-0.16294 0.915845 -0.335679)
(-0.163011 0.930524 -0.340463)
(-0.153705 0.890068 -0.319358)
(-0.152433 0.891526 -0.323373)
(-0.155749 0.904782 -0.328374)
(-0.159588 0.926554 -0.338092)
(-0.161049 0.924862 -0.338146)
(-0.15429 0.888271 -0.326251)
(-0.158972 0.907676 -0.330862)
(-0.153726 0.889948 -0.322068)
(-0.156306 0.890342 -0.322523)
(-0.142637 0.840992 -0.321651)
(-0.14388 0.841837 -0.317581)
(-0.147309 0.874042 -0.327518)
(-0.149855 0.887672 -0.331287)
(-0.131732 0.79541 -0.300615)
(-0.145139 0.833788 -0.313631)
(-0.141392 0.81956 -0.308417)
(-0.132712 0.771498 -0.290146)
(-0.133881 0.792122 -0.301246)
(-0.116046 0.744196 -0.28216)
(-0.148242 0.868611 -0.324251)
(-0.150415 0.867651 -0.328519)
(-0.141242 0.823281 -0.312143)
(-0.149844 0.876044 -0.330559)
(-0.12003 0.68515 -0.253085)
(-0.112601 0.615845 -0.233332)
(-0.119678 0.668065 -0.251351)
(-0.129371 0.739169 -0.277032)
(-0.12763 0.735435 -0.273239)
(-0.144477 0.809615 -0.300347)
(-0.121658 0.683259 -0.258009)
(-0.113767 0.636442 -0.238909)
(-0.145351 0.813816 -0.300248)
(-0.129247 0.724861 -0.272612)
(-0.134565 0.725148 -0.270529)
(-0.142448 0.790958 -0.296056)
(-0.130123 0.721837 -0.267837)
(-0.124213 0.694942 -0.259487)
(-0.142933 0.788655 -0.294708)
(-0.142763 0.785377 -0.294858)
(-0.136112 0.839523 -0.302969)
(-0.137014 0.851593 -0.301365)
(-0.134873 0.852807 -0.304106)
(-0.135308 0.836059 -0.301908)
(-0.135243 0.833545 -0.303271)
(-0.138417 0.844828 -0.302231)
(-0.139786 0.864696 -0.308046)
(-0.143839 0.853438 -0.304801)
(-0.140268 0.847602 -0.30402)
(-0.14392 0.869206 -0.311242)
(-0.14079 0.868971 -0.316259)
(-0.136288 0.858409 -0.30865)
(-0.141261 0.864131 -0.316009)
(-0.141225 0.86809 -0.309924)
(-0.145922 0.873531 -0.31138)
(-0.147302 0.879055 -0.313516)
(-0.142028 0.864904 -0.3143)
(-0.14448 0.870946 -0.315334)
(-0.145571 0.865349 -0.309175)
(-0.13996 0.862299 -0.31148)
(-0.140019 0.864814 -0.309121)
(-0.143934 0.8716 -0.311408)
(-0.159221 0.913648 -0.335193)
(-0.160313 0.906388 -0.335333)
(-0.161493 0.913583 -0.331214)
(-0.163058 0.901857 -0.332455)
(-0.159404 0.892088 -0.327764)
(-0.156738 0.901972 -0.328919)
(-0.153347 0.868783 -0.318955)
(-0.155064 0.874904 -0.31992)
(-0.163307 0.908263 -0.332171)
(-0.158891 0.904266 -0.333185)
(-0.160091 0.911383 -0.333404)
(-0.159309 0.9162 -0.332952)
(-0.161313 0.911787 -0.332767)
(-0.155467 0.87451 -0.325085)
(-0.156078 0.878892 -0.322591)
(-0.162589 0.907458 -0.335674)
(-0.16112 0.905091 -0.333306)
(-0.162394 0.901337 -0.333395)
(-0.160803 0.910665 -0.332322)
(-0.108356 0.644396 -0.244553)
(-0.121667 0.692092 -0.250787)
(-0.156886 0.875242 -0.322824)
(-0.152749 0.87289 -0.323564)
(-0.149266 0.835655 -0.309845)
(-0.137117 0.773448 -0.289918)
(-0.144705 0.829128 -0.305355)
(-0.140867 0.828006 -0.310106)
(-0.123459 0.677994 -0.245201)
(-0.154511 0.883928 -0.329163)
(-0.157505 0.88904 -0.326345)
(-0.145743 0.835551 -0.309243)
(-0.152488 0.867409 -0.32057)
(-0.140851 0.799281 -0.298784)
(-0.121465 0.719909 -0.280089)
(-0.124345 0.717421 -0.269866)
(-0.149064 0.848754 -0.318175)
(-0.155324 0.858152 -0.316799)
(-0.156303 0.850713 -0.313803)
(-0.145828 0.828044 -0.313187)
(-0.148204 0.875387 -0.324897)
(-0.151256 0.879375 -0.3279)
(-0.149442 0.877142 -0.323722)
(-0.152027 0.876604 -0.331822)
(-0.148559 0.872753 -0.325337)
(-0.151811 0.883485 -0.323677)
(-0.148324 0.884306 -0.325148)
(-0.147279 0.872015 -0.323888)
(-0.150564 0.878338 -0.328013)
(-0.145318 0.87548 -0.325979)
(-0.148643 0.881066 -0.325435)
(-0.151015 0.883421 -0.328249)
(-0.127147 0.776932 -0.286955)
(-0.131661 0.801414 -0.296495)
(-0.128826 0.826098 -0.309349)
(-0.133775 0.833044 -0.309706)
(-0.123792 0.77516 -0.289968)
(-0.134278 0.829315 -0.308839)
(-0.13053 0.807283 -0.302096)
(-0.131592 0.816846 -0.304179)
(-0.126738 0.777421 -0.287573)
(-0.124919 0.767282 -0.28483)
(-0.129015 0.794736 -0.298801)
(-0.142641 0.867949 -0.324457)
(-0.133292 0.820002 -0.305258)
(-0.146281 0.882441 -0.326873)
(-0.145886 0.885813 -0.331117)
(-0.14185 0.86972 -0.323812)
(-0.149141 0.896141 -0.335649)
(-0.129108 0.804735 -0.301902)
(-0.133495 0.833441 -0.312558)
(-0.137363 0.8343 -0.313965)
(-0.138909 0.79546 -0.302578)
(-0.138786 0.817684 -0.313813)
(-0.134509 0.801587 -0.300623)
(-0.127476 0.745999 -0.280371)
(-0.145417 0.853791 -0.321462)
(-0.143726 0.858128 -0.321689)
(-0.135774 0.795022 -0.304109)
(-0.131309 0.783071 -0.290222)
(-0.122082 0.719172 -0.271379)
(-0.133436 0.763495 -0.285962)
(-0.124206 0.733138 -0.277887)
(-0.133206 0.790351 -0.294375)
(-0.140969 0.845178 -0.320339)
(-0.142052 0.824816 -0.307521)
(-0.139671 0.790615 -0.297462)
(-0.121033 0.703319 -0.265611)
(-0.125588 0.731111 -0.273172)
(-0.138275 0.774272 -0.288744)
(-0.137691 0.780307 -0.291107)
(-0.137765 0.778844 -0.294198)
(-0.121147 0.702316 -0.259739)
(-0.114032 0.660481 -0.245681)
(-0.118101 0.703193 -0.262077)
(-0.114272 0.670457 -0.250125)
(-0.100812 0.607575 -0.228723)
(-0.137452 0.779614 -0.29213)
(-0.138642 0.787945 -0.294984)
(-0.123166 0.70061 -0.26611)
(-0.123541 0.701168 -0.257835)
(-0.113587 0.662255 -0.247484)
(-0.133148 0.769634 -0.289808)
(-0.102441 0.597664 -0.224255)
(-0.1113 0.64181 -0.239782)
(-0.104751 0.612113 -0.231455)
(-0.121066 0.680946 -0.259636)
(-0.115559 0.663895 -0.253111)
(-0.139019 0.766929 -0.290022)
(-0.114926 0.692353 -0.259296)
(-0.116744 0.670779 -0.250502)
(-0.1134 0.63863 -0.244973)
(-0.140606 0.805055 -0.302269)
(-0.140597 0.793079 -0.301212)
(-0.118714 0.664214 -0.25659)
(-0.109175 0.64092 -0.246446)
(-0.133783 0.782584 -0.291342)
(-0.138506 0.802262 -0.302136)
(-0.133802 0.790466 -0.297304)
(-0.124024 0.704661 -0.260587)
(-0.117896 0.649803 -0.245203)
(-0.116116 0.608206 -0.223125)
(-0.11755 0.677386 -0.257407)
(-0.116857 0.684436 -0.260826)
(-0.143518 0.814142 -0.310986)
(-0.143199 0.806496 -0.306105)
(-0.111671 0.636189 -0.23939)
(-0.155505 0.91774 -0.340943)
(-0.152705 0.917624 -0.341305)
(-0.15685 0.916034 -0.337276)
(-0.153332 0.919487 -0.338598)
(-0.152285 0.912604 -0.338552)
(-0.153861 0.918251 -0.33834)
(-0.151421 0.914478 -0.341487)
(-0.149265 0.914282 -0.336706)
(-0.152252 0.920635 -0.338563)
(-0.151255 0.909903 -0.339915)
(-0.151218 0.90657 -0.337307)
(-0.147173 0.909173 -0.337216)
(-0.150413 0.908923 -0.335306)
(-0.150412 0.91011 -0.337191)
(-0.149156 0.9107 -0.338819)
(-0.154271 0.867842 -0.31662)
(-0.142742 0.827745 -0.306422)
(-0.139012 0.810279 -0.301343)
(-0.154584 0.860166 -0.32179)
(-0.155585 0.864187 -0.322025)
(-0.144392 0.829897 -0.31461)
(-0.16267 0.914336 -0.338694)
(-0.161425 0.926536 -0.344127)
(-0.148626 0.850688 -0.314893)
(-0.158338 0.903275 -0.33959)
(-0.158801 0.890773 -0.336427)
(-0.161946 0.911587 -0.33835)
(-0.162654 0.931475 -0.344379)
(-0.162202 0.922153 -0.34196)
(-0.160589 0.889528 -0.329286)
(-0.159532 0.912549 -0.339488)
(-0.161384 0.919852 -0.341093)
(-0.163896 0.91716 -0.340913)
(-0.145385 0.882852 -0.317738)
(-0.146145 0.891463 -0.32544)
(-0.133091 0.826349 -0.29928)
(-0.13868 0.843247 -0.30452)
(-0.149323 0.897911 -0.328719)
(-0.144796 0.885052 -0.323774)
(-0.134556 0.81678 -0.301362)
(-0.129517 0.800333 -0.294472)
(-0.133849 0.813402 -0.299532)
(-0.138528 0.849243 -0.310671)
(-0.136654 0.837522 -0.303214)
(-0.128897 0.809551 -0.293832)
(-0.113473 0.695655 -0.248107)
(-0.1082 0.669072 -0.245043)
(-0.146958 0.835914 -0.30474)
(-0.141539 0.796564 -0.291604)
(-0.125315 0.722167 -0.258447)
(-0.115156 0.674457 -0.239049)
(-0.105798 0.633195 -0.230266)
(-0.143664 0.814307 -0.293559)
(-0.14331 0.814847 -0.295126)
(-0.13006 0.780994 -0.283976)
(-0.116265 0.678841 -0.245182)
(-0.108864 0.617489 -0.226307)
(-0.131604 0.767188 -0.280192)
(-0.125255 0.715751 -0.257019)
(-0.110622 0.672293 -0.24404)
(-0.116034 0.688074 -0.244022)
(-0.12446 0.697914 -0.2562)
(-0.122263 0.726508 -0.267283)
(-0.13268 0.747771 -0.274884)
(-0.113686 0.67845 -0.249169)
(-0.145894 0.811889 -0.296923)
(-0.141152 0.803082 -0.295661)
(-0.123545 0.690545 -0.252138)
(-0.108663 0.61526 -0.226936)
(-0.145543 0.814255 -0.297462)
(-0.145996 0.7782 -0.289729)
(-0.145355 0.828175 -0.305519)
(-0.139145 0.805412 -0.294109)
(-0.143557 0.820094 -0.301764)
(-0.121052 0.672336 -0.247797)
(-0.104041 0.621293 -0.227459)
(-0.109582 0.66704 -0.242756)
(-0.125389 0.703386 -0.260419)
(-0.131967 0.736015 -0.270758)
(-0.126744 0.729357 -0.26161)
(-0.128469 0.698854 -0.248113)
(-0.142222 0.77891 -0.285982)
(-0.125709 0.687936 -0.256013)
(-0.13587 0.740845 -0.267641)
(-0.134259 0.749083 -0.272118)
(-0.130826 0.725221 -0.26392)
(-0.12029 0.668882 -0.247723)
(-0.147111 0.834887 -0.297714)
(-0.146409 0.819263 -0.296926)
(-0.133801 0.750422 -0.265322)
(-0.135319 0.758784 -0.278915)
(-0.149629 0.825336 -0.301326)
(-0.124598 0.695618 -0.252407)
(-0.118385 0.674656 -0.245046)
(-0.133603 0.728051 -0.265762)
(-0.126885 0.698183 -0.257737)
(-0.144307 0.812278 -0.29326)
(-0.150658 0.854446 -0.309265)
(-0.112278 0.668911 -0.252023)
(-0.116001 0.651961 -0.244521)
(-0.137075 0.785844 -0.298754)
(-0.132366 0.765021 -0.288937)
(-0.132459 0.745321 -0.285503)
(-0.109922 0.643651 -0.242993)
(-0.109623 0.599873 -0.222329)
(-0.116594 0.669096 -0.255036)
(-0.131856 0.767461 -0.294306)
(-0.118034 0.705402 -0.269009)
(-0.135353 0.787701 -0.299565)
(-0.133738 0.787218 -0.298155)
(-0.112923 0.658778 -0.251441)
(-0.124575 0.692973 -0.259788)
(-0.114309 0.657554 -0.248375)
(-0.102725 0.601675 -0.226765)
(-0.151257 0.842156 -0.307431)
(-0.141222 0.820322 -0.293483)
(-0.139089 0.771343 -0.278378)
(-0.14973 0.816491 -0.302276)
(-0.153713 0.845054 -0.307708)
(-0.128107 0.734928 -0.260475)
(-0.115849 0.672196 -0.246378)
(-0.141109 0.76892 -0.285275)
(-0.153974 0.824561 -0.29849)
(-0.152449 0.837332 -0.304857)
(-0.135861 0.745659 -0.275341)
(-0.138428 0.763947 -0.281099)
(-0.152329 0.829813 -0.301024)
(-0.12945 0.72719 -0.263861)
(-0.15089 0.827606 -0.300967)
(-0.152849 0.906785 -0.338017)
(-0.151586 0.903721 -0.335622)
(-0.154035 0.908697 -0.33526)
(-0.157058 0.908745 -0.3402)
(-0.156114 0.912646 -0.3413)
(-0.153588 0.913218 -0.339102)
(-0.147161 0.890124 -0.337909)
(-0.152765 0.906274 -0.336744)
(-0.154139 0.913046 -0.3391)
(-0.154166 0.909213 -0.341669)
(-0.154301 0.908646 -0.339662)
(-0.146401 0.882127 -0.333703)
(-0.151502 0.907198 -0.339466)
(-0.151549 0.901812 -0.336308)
(-0.149278 0.887538 -0.333609)
(-0.150424 0.890007 -0.336619)
(-0.152706 0.850295 -0.317227)
(-0.14862 0.825029 -0.310316)
(-0.146044 0.828453 -0.311442)
(-0.144262 0.792186 -0.29824)
(-0.154942 0.86006 -0.32321)
(-0.155554 0.870282 -0.320651)
(-0.147306 0.796185 -0.296479)
(-0.147959 0.824638 -0.311141)
(-0.154984 0.850904 -0.316022)
(-0.1523 0.828356 -0.309816)
(-0.14696 0.805137 -0.299733)
(-0.1534 0.855848 -0.313642)
(-0.144898 0.793458 -0.297664)
(-0.157654 0.878036 -0.328567)
(-0.157893 0.885002 -0.327576)
(-0.152597 0.845094 -0.312979)
(-0.154843 0.862252 -0.321774)
(-0.151815 0.834455 -0.30817)
(-0.150673 0.834801 -0.307465)
(-0.139033 0.786523 -0.294689)
(-0.156279 0.864718 -0.323929)
(-0.14424 0.803118 -0.295431)
(-0.14567 0.858612 -0.312437)
(-0.146104 0.846565 -0.305622)
(-0.1411 0.843653 -0.308886)
(-0.140853 0.859108 -0.314588)
(-0.1553 0.906626 -0.330664)
(-0.143006 0.852118 -0.313156)
(-0.156587 0.925598 -0.334382)
(-0.155857 0.925395 -0.337745)
(-0.151277 0.908841 -0.33087)
(-0.149452 0.892685 -0.326796)
(-0.156098 0.929239 -0.3365)
(-0.160541 0.931727 -0.339291)
(-0.154972 0.915901 -0.328892)
(-0.148301 0.899499 -0.326725)
(-0.152756 0.884912 -0.322076)
(-0.159246 0.931325 -0.338651)
(-0.160331 0.933436 -0.338973)
(-0.158858 0.925683 -0.331965)
(-0.148448 0.85965 -0.310231)
(-0.145245 0.852035 -0.309561)
(-0.137874 0.846364 -0.309153)
(-0.145457 0.857247 -0.308541)
(-0.142301 0.860417 -0.311057)
(-0.140221 0.856705 -0.308964)
(-0.135219 0.846012 -0.30896)
(-0.137513 0.856246 -0.310076)
(-0.137174 0.852019 -0.310839)
(-0.14238 0.847731 -0.312503)
(-0.139411 0.847744 -0.315154)
(-0.140085 0.814856 -0.310583)
(-0.141887 0.812053 -0.302911)
(-0.117435 0.678437 -0.251515)
(-0.135562 0.762511 -0.295051)
(-0.113709 0.652933 -0.243833)
(-0.120314 0.699831 -0.260882)
(-0.1359 0.798371 -0.301378)
(-0.127969 0.772664 -0.289096)
(-0.132179 0.767806 -0.289464)
(-0.107779 0.631242 -0.23795)
(-0.0926255 0.560828 -0.213662)
(-0.112923 0.684329 -0.260338)
(-0.113769 0.676237 -0.257804)
(-0.107516 0.621877 -0.231003)
(-0.103645 0.581491 -0.223721)
(-0.157509 0.85655 -0.318481)
(-0.14975 0.833133 -0.310368)
(-0.13544 0.779438 -0.299351)
(-0.140966 0.813105 -0.299517)
(-0.144155 0.807585 -0.306752)
(-0.153714 0.834271 -0.313462)
(-0.146513 0.837803 -0.31204)
(-0.147321 0.822419 -0.310984)
(-0.15401 0.868004 -0.325241)
(-0.154907 0.869516 -0.32581)
(-0.159965 0.864396 -0.32217)
(-0.152207 0.865291 -0.325237)
(-0.157584 0.873412 -0.325732)
(-0.153955 0.873419 -0.326614)
(-0.147225 0.836378 -0.316019)
(-0.15095 0.839314 -0.312001)
(-0.117848 0.66843 -0.24412)
(-0.125436 0.701574 -0.261985)
(-0.120451 0.708443 -0.262041)
(-0.118194 0.671206 -0.252371)
(-0.118572 0.669797 -0.250256)
(-0.132675 0.755665 -0.273688)
(-0.152885 0.839313 -0.302998)
(-0.123304 0.697638 -0.264252)
(-0.145697 0.816871 -0.297391)
(-0.115752 0.700055 -0.251845)
(-0.121714 0.681366 -0.250923)
(-0.115262 0.648745 -0.237687)
(-0.144267 0.81095 -0.299553)
(-0.146988 0.827012 -0.298841)
(-0.145858 0.819733 -0.29349)
(-0.145288 0.838776 -0.31049)
(-0.123651 0.678362 -0.251155)
(-0.127394 0.70599 -0.257638)
(-0.147806 0.859514 -0.318176)
(-0.15138 0.863545 -0.318766)
(-0.149961 0.867202 -0.320273)
(-0.15153 0.870874 -0.320702)
(-0.155683 0.87095 -0.319735)
(-0.154165 0.872606 -0.321411)
(-0.151359 0.873032 -0.325091)
(-0.157956 0.879498 -0.324727)
(-0.154446 0.875111 -0.324665)
(-0.157152 0.875539 -0.327231)
(-0.139201 0.799794 -0.304773)
(-0.14044 0.80705 -0.307874)
(-0.136866 0.805078 -0.306423)
(-0.138848 0.818724 -0.309706)
(-0.138642 0.815672 -0.310002)
(-0.143226 0.815682 -0.310186)
(-0.158369 0.907677 -0.331037)
(-0.158253 0.908478 -0.329664)
(-0.158852 0.907162 -0.329707)
(-0.157436 0.880642 -0.317742)
(-0.155557 0.874535 -0.316694)
(-0.153823 0.879076 -0.317532)
(-0.159793 0.909395 -0.329008)
(-0.159646 0.893284 -0.323371)
(-0.155495 0.871202 -0.319574)
(-0.156532 0.884752 -0.323207)
(-0.163351 0.898213 -0.330275)
(-0.156061 0.877405 -0.316641)
(-0.157835 0.883204 -0.322952)
(-0.108506 0.677107 -0.249766)
(-0.100705 0.622179 -0.232973)
(-0.109481 0.675476 -0.2528)
(-0.113533 0.702604 -0.263276)
(-0.113663 0.698891 -0.257683)
(-0.105801 0.652776 -0.241043)
(-0.101837 0.621575 -0.225729)
(-0.123825 0.788056 -0.288381)
(-0.125922 0.779472 -0.286885)
(-0.124012 0.778351 -0.283751)
(-0.126889 0.794713 -0.292582)
(-0.117079 0.718929 -0.260726)
(-0.13213 0.823298 -0.303529)
(-0.129409 0.807285 -0.298217)
(-0.129144 0.805514 -0.296265)
(-0.123567 0.777569 -0.289542)
(-0.115326 0.720147 -0.266243)
(-0.111518 0.705933 -0.261657)
(-0.124501 0.785898 -0.290567)
(-0.132465 0.813912 -0.299369)
(-0.135042 0.835029 -0.308027)
(-0.110245 0.660647 -0.240256)
(-0.0972399 0.611204 -0.226225)
(-0.107511 0.660967 -0.242897)
(-0.115345 0.701797 -0.257399)
(-0.126899 0.793837 -0.29392)
(-0.142221 0.85885 -0.311956)
(-0.134412 0.836379 -0.305413)
(-0.129958 0.816561 -0.297234)
(-0.133772 0.83487 -0.301526)
(-0.113846 0.69941 -0.256284)
(-0.128864 0.807907 -0.293878)
(-0.128258 0.797578 -0.293149)
(-0.127441 0.780566 -0.284727)
(-0.103591 0.646857 -0.242496)
(-0.0982462 0.612739 -0.227402)
(-0.112079 0.695619 -0.262559)
(-0.123191 0.78122 -0.287594)
(-0.113629 0.696956 -0.249464)
(-0.113136 0.685069 -0.248835)
(-0.103904 0.639874 -0.23748)
(-0.118194 0.734347 -0.271167)
(-0.127011 0.754098 -0.277038)
(-0.125483 0.797531 -0.293522)
(-0.115923 0.726405 -0.267251)
(-0.146457 0.874905 -0.320447)
(-0.146413 0.862098 -0.317226)
(-0.140246 0.824605 -0.2978)
(-0.147403 0.842407 -0.307678)
(-0.138899 0.828188 -0.296707)
(-0.144731 0.869506 -0.314504)
(-0.145997 0.877644 -0.321226)
(-0.139909 0.851869 -0.309168)
(-0.147612 0.893428 -0.330651)
(-0.14748 0.893815 -0.33082)
(-0.149489 0.892246 -0.334583)
(-0.148963 0.897292 -0.331273)
(-0.143574 0.876206 -0.328341)
(-0.140782 0.872021 -0.326246)
(-0.141883 0.882037 -0.328266)
(-0.147634 0.890542 -0.333945)
(-0.1417 0.875466 -0.323709)
(-0.14003 0.870158 -0.323331)
(-0.14698 0.897362 -0.331917)
(-0.150108 0.901376 -0.331919)
(-0.149963 0.895889 -0.335404)
(-0.146111 0.887957 -0.331416)
(-0.147715 0.892003 -0.330248)
(-0.143162 0.888273 -0.328663)
(-0.149718 0.901786 -0.33211)
(-0.146686 0.895469 -0.334099)
(-0.14298 0.850741 -0.3135)
(-0.135516 0.80015 -0.292136)
(-0.142333 0.835079 -0.300857)
(-0.138432 0.812073 -0.297994)
(-0.13748 0.835049 -0.301666)
(-0.142671 0.859759 -0.311363)
(-0.150739 0.90726 -0.327902)
(-0.15016 0.906368 -0.327058)
(-0.153922 0.914815 -0.335068)
(-0.143973 0.878227 -0.317013)
(-0.148385 0.870207 -0.315311)
(-0.144584 0.850468 -0.311482)
(-0.140816 0.840165 -0.304749)
(-0.152029 0.916925 -0.33115)
(-0.147359 0.915221 -0.329358)
(-0.147529 0.861328 -0.308057)
(-0.151717 0.897753 -0.326021)
(-0.156116 0.911084 -0.333719)
(-0.150172 0.87641 -0.319596)
(-0.122914 0.752124 -0.27346)
(-0.127891 0.76423 -0.277172)
(-0.110681 0.675695 -0.253118)
(-0.117678 0.729278 -0.271323)
(-0.117284 0.741702 -0.276766)
(-0.118834 0.716411 -0.259495)
(-0.124671 0.805209 -0.291556)
(-0.122239 0.800886 -0.290592)
(-0.128878 0.823509 -0.298345)
(-0.124094 0.809104 -0.294444)
(-0.113967 0.698943 -0.252312)
(-0.131711 0.818289 -0.297204)
(-0.129001 0.807025 -0.291165)
(-0.133487 0.836799 -0.30351)
(-0.138108 0.852981 -0.309677)
(-0.134715 0.844381 -0.307568)
(-0.12687 0.826472 -0.298571)
(-0.125479 0.814067 -0.293898)
(-0.12584 0.820758 -0.297638)
(-0.131502 0.826794 -0.297121)
(-0.128627 0.808032 -0.291241)
(-0.149383 0.875825 -0.31768)
(-0.148661 0.875302 -0.320906)
(-0.147284 0.878492 -0.319657)
(-0.148585 0.878842 -0.320221)
(-0.146394 0.873367 -0.320104)
(-0.146649 0.876501 -0.317231)
(-0.147783 0.882057 -0.316966)
(-0.146314 0.886183 -0.319856)
(-0.144098 0.881941 -0.318897)
(-0.145439 0.879299 -0.316616)
(-0.145474 0.876576 -0.31407)
(-0.143532 0.873498 -0.317258)
(-0.143101 0.877657 -0.317886)
(-0.145245 0.877631 -0.314292)
(-0.146733 0.874346 -0.317957)
(-0.140605 0.873769 -0.316288)
(-0.14496 0.877141 -0.316521)
(-0.143234 0.86875 -0.318815)
(-0.151391 0.853366 -0.318523)
(-0.152778 0.858268 -0.320554)
(-0.121705 0.706465 -0.267074)
(-0.124295 0.724868 -0.276376)
(-0.148181 0.848423 -0.321847)
(-0.150717 0.859981 -0.321399)
(-0.149173 0.83552 -0.313661)
(-0.125246 0.696234 -0.264851)
(-0.134584 0.754135 -0.287482)
(-0.123143 0.698036 -0.264124)
(-0.130454 0.716355 -0.270284)
(-0.142237 0.809909 -0.303964)
(-0.14427 0.820573 -0.301308)
(-0.142542 0.806255 -0.301441)
(-0.131634 0.725402 -0.268979)
(-0.124686 0.704112 -0.259882)
(-0.125244 0.705852 -0.270302)
(-0.149094 0.823171 -0.310515)
(-0.149323 0.830609 -0.312768)
(-0.142679 0.790632 -0.297127)
(-0.133584 0.738088 -0.268873)
(-0.113186 0.647277 -0.238138)
(-0.135465 0.727283 -0.264636)
(-0.132014 0.726445 -0.259498)
(-0.114052 0.663112 -0.247956)
(-0.14961 0.809551 -0.298728)
(-0.136901 0.734296 -0.270074)
(-0.14391 0.756506 -0.27152)
(-0.152543 0.857745 -0.326379)
(-0.14901 0.863752 -0.327366)
(-0.155379 0.8727 -0.326917)
(-0.15387 0.871849 -0.327588)
(-0.140945 0.829364 -0.315334)
(-0.152617 0.865675 -0.325152)
(-0.154137 0.863858 -0.324823)
(-0.145934 0.835927 -0.313998)
(-0.143978 0.815303 -0.309083)
(-0.141745 0.814605 -0.308028)
(-0.147935 0.829407 -0.311554)
(-0.147425 0.834043 -0.314577)
(-0.141491 0.811196 -0.303926)
(-0.140808 0.792595 -0.298768)
(-0.113441 0.676995 -0.248217)
(-0.113893 0.664621 -0.243791)
(-0.104302 0.641373 -0.239968)
(-0.102476 0.613003 -0.22321)
(-0.117181 0.685977 -0.253868)
(-0.109276 0.64873 -0.237719)
(-0.0973943 0.613705 -0.224655)
(-0.099439 0.640553 -0.236738)
(-0.0922144 0.590224 -0.223207)
(-0.124378 0.761028 -0.280814)
(-0.121826 0.788635 -0.291737)
(-0.104941 0.65262 -0.23671)
(-0.11059 0.689146 -0.255574)
(-0.10927 0.676692 -0.250708)
(-0.105436 0.6493 -0.237815)
(-0.128548 0.813231 -0.295368)
(-0.127861 0.788879 -0.285384)
(-0.12072 0.758952 -0.275389)
(-0.125421 0.756591 -0.277657)
(-0.129353 0.782745 -0.286489)
(-0.124305 0.770212 -0.272146)
(-0.116709 0.709443 -0.257877)
(-0.114113 0.680049 -0.250323)
(-0.122498 0.726536 -0.264695)
(-0.117945 0.702816 -0.243365)
(-0.108499 0.685532 -0.247503)
(-0.122929 0.687053 -0.247306)
(-0.111171 0.675975 -0.241791)
(-0.12693 0.775769 -0.279942)
(-0.113167 0.675193 -0.243961)
(-0.104719 0.610056 -0.221714)
(-0.108392 0.606956 -0.230103)
(-0.122956 0.734707 -0.269322)
(-0.130932 0.726432 -0.266842)
(-0.118977 0.69783 -0.256503)
(-0.153356 0.87407 -0.32201)
(-0.146445 0.837443 -0.309638)
(-0.126064 0.725488 -0.266209)
(-0.155917 0.875501 -0.323202)
(-0.152476 0.8698 -0.320039)
(-0.148577 0.838517 -0.307463)
(-0.153174 0.843189 -0.307017)
(-0.154054 0.850689 -0.313976)
(-0.135737 0.783522 -0.288243)
(-0.125795 0.720041 -0.268042)
(-0.124924 0.709987 -0.257267)
(-0.149472 0.863814 -0.315882)
(-0.151196 0.842249 -0.306027)
(-0.147761 0.835948 -0.307959)
(-0.158333 0.888069 -0.32919)
(-0.136475 0.774505 -0.281818)
(-0.157477 0.915325 -0.342118)
(-0.160504 0.926583 -0.339259)
(-0.161496 0.912213 -0.336736)
(-0.160828 0.913721 -0.340065)
(-0.156464 0.912368 -0.334173)
(-0.158215 0.921747 -0.335217)
(-0.158315 0.916742 -0.339841)
(-0.159078 0.91168 -0.337688)
(-0.158085 0.909151 -0.338221)
(-0.158336 0.906164 -0.335991)
(-0.160513 0.912011 -0.33772)
(-0.156594 0.909199 -0.335022)
(-0.162666 0.91901 -0.337043)
(-0.158995 0.916276 -0.338785)
(-0.160693 0.923318 -0.337498)
(-0.162096 0.922846 -0.339375)
(-0.157596 0.907888 -0.33773)
(-0.158323 0.919428 -0.337385)
(-0.156481 0.911208 -0.333919)
(-0.160704 0.925062 -0.338828)
(-0.132208 0.813479 -0.294926)
(-0.127928 0.781544 -0.2889)
(-0.134314 0.817086 -0.30072)
(-0.137335 0.828481 -0.303702)
(-0.135147 0.820313 -0.298935)
(-0.147498 0.89309 -0.33108)
(-0.140584 0.87054 -0.324306)
(-0.141386 0.880563 -0.326272)
(-0.126141 0.772563 -0.286871)
(-0.138125 0.833182 -0.309709)
(-0.148121 0.894689 -0.327869)
(-0.140851 0.864452 -0.318956)
(-0.148393 0.911611 -0.335264)
(-0.150075 0.909851 -0.336487)
(-0.145522 0.895814 -0.330036)
(-0.15229 0.915919 -0.337984)
(-0.150872 0.917773 -0.335363)
(-0.142319 0.879438 -0.321032)
(-0.148228 0.916411 -0.337189)
(-0.150842 0.917743 -0.335857)
(-0.142381 0.881392 -0.324715)
(-0.133647 0.72959 -0.274803)
(-0.121995 0.679842 -0.246552)
(-0.122328 0.6901 -0.253571)
(-0.119956 0.65458 -0.241129)
(-0.134734 0.745668 -0.275409)
(-0.137712 0.72495 -0.269224)
(-0.151035 0.831386 -0.308761)
(-0.14727 0.823483 -0.30505)
(-0.134956 0.714094 -0.26538)
(-0.124804 0.675771 -0.252122)
(-0.13724 0.74004 -0.27679)
(-0.150398 0.819093 -0.303784)
(-0.161397 0.886997 -0.32887)
(-0.159175 0.892744 -0.324459)
(-0.161669 0.891116 -0.326993)
(-0.157484 0.858729 -0.317771)
(-0.15535 0.856054 -0.314333)
(-0.156266 0.88312 -0.322344)
(-0.158899 0.897518 -0.326572)
(-0.161773 0.899791 -0.329583)
(-0.152681 0.836829 -0.30756)
(-0.157395 0.847803 -0.310147)
(-0.158411 0.872493 -0.321025)
(-0.15599 0.865275 -0.317582)
(-0.152165 0.844603 -0.310115)
(-0.155823 0.857464 -0.314535)
(-0.156386 0.883573 -0.322264)
(-0.156766 0.885837 -0.322656)
(-0.154141 0.854846 -0.312152)
(-0.155317 0.862569 -0.317693)
(-0.134018 0.829755 -0.310742)
(-0.127654 0.820306 -0.304455)
(-0.128561 0.807886 -0.304791)
(-0.121087 0.763887 -0.291103)
(-0.121311 0.75417 -0.276039)
(-0.118468 0.742722 -0.274381)
(-0.131782 0.836877 -0.312308)
(-0.13311 0.828824 -0.311108)
(-0.124948 0.80976 -0.302069)
(-0.130592 0.815146 -0.301075)
(-0.121132 0.738541 -0.27191)
(-0.119808 0.751683 -0.276908)
(-0.123648 0.797229 -0.298063)
(-0.118417 0.781099 -0.286608)
(-0.125897 0.816486 -0.301799)
(-0.131176 0.836252 -0.307387)
(-0.126338 0.81346 -0.302558)
(-0.127426 0.821384 -0.307456)
(-0.137647 0.794761 -0.299668)
(-0.137716 0.780842 -0.296992)
(-0.152581 0.864966 -0.327743)
(-0.149814 0.866023 -0.32851)
(-0.140491 0.805314 -0.304831)
(-0.150213 0.851053 -0.32336)
(-0.153489 0.849164 -0.320023)
(-0.145939 0.832264 -0.315733)
(-0.151278 0.866849 -0.327357)
(-0.130806 0.747259 -0.277752)
(-0.152513 0.850032 -0.316359)
(-0.158137 0.860875 -0.322673)
(-0.147581 0.809611 -0.303568)
(-0.132559 0.742634 -0.279636)
(-0.140339 0.804394 -0.302305)
(-0.134127 0.745272 -0.271544)
(-0.122942 0.706931 -0.26128)
(-0.128584 0.740914 -0.277102)
(-0.152767 0.851169 -0.31037)
(-0.14752 0.828256 -0.301907)
(-0.153798 0.866285 -0.321411)
(-0.131575 0.71449 -0.270272)
(-0.135461 0.729769 -0.27645)
(-0.146599 0.837462 -0.305101)
(-0.137308 0.756061 -0.277944)
(-0.154963 0.864845 -0.317513)
(-0.146635 0.835194 -0.303581)
(-0.114932 0.720759 -0.263474)
(-0.110715 0.661369 -0.247565)
(-0.120313 0.725949 -0.262785)
(-0.111729 0.695608 -0.252148)
(-0.111799 0.69359 -0.26307)
(-0.102552 0.620656 -0.240129)