/*--------------------------------*- C++ -*----------------------------------*\
| =========                 |                                                 |
| \\      /  F ield         | OpenFOAM: The Open Source CFD Toolbox           |
|  \\    /   O peration     | Version:  v1612+                                |
|   \\  /    A nd           | Web:      www.OpenFOAM.com                      |
|    \\/     M anipulation  |                                                 |
\*---------------------------------------------------------------------------*/
FoamFile
{
    version     2.0;
    format      ascii;
    class       volVectorField;
    location    "166";
    object      wallShearStress;
}
// * * * * * * * * * * * * * * * * * * * * * * * * * * * * * * * * * * * * * //

dimensions      [0 2 -2 0 0 0 0];

internalField   uniform (0 0 0);

boundaryField
{
    WALL
    {
        type            calculated;
        value           nonuniform List<vector> 
1505
(
(0.00277954 -0.0146091 0.0051027)
(0.00244057 -0.0148154 0.00561167)
(0.0025435 -0.0148107 0.00536)
(0.00232698 -0.0142925 0.00522592)
(0.00234231 -0.0143812 0.00531402)
(0.00218841 -0.013186 0.00484319)
(0.00220112 -0.0139578 0.00505544)
(0.00221002 -0.0135913 0.00492972)
(0.00236978 -0.0135554 0.00498732)
(0.00264088 -0.0148498 0.00524878)
(0.00243467 -0.014176 0.00513566)
(0.00247453 -0.0141718 0.00529223)
(0.00243959 -0.0142145 0.0053353)
(0.00244198 -0.0152177 0.00577796)
(0.00256472 -0.014767 0.00533475)
(0.00231936 -0.0135596 0.00501706)
(0.00251046 -0.014182 0.00521857)
(0.00217469 -0.0138358 0.00527398)
(0.00257033 -0.0153426 0.00556298)
(0.00258811 -0.015156 0.00547941)
(0.00260157 -0.0157073 0.00586641)
(0.00290813 -0.0155379 0.0054006)
(0.00239172 -0.0143016 0.0053626)
(0.00244047 -0.0143104 0.0053278)
(0.00238228 -0.0141059 0.00527298)
(0.0020888 -0.0140899 0.00560177)
(0.00271898 -0.0153941 0.00563178)
(0.00267419 -0.0158767 0.00589028)
(0.00281603 -0.0162614 0.00600919)
(0.0026655 -0.0150336 0.0055361)
(0.00238583 -0.0153005 0.00583154)
(0.00245796 -0.0153289 0.00586068)
(0.00223402 -0.0139874 0.00532341)
(0.00209105 -0.0134972 0.00507649)
(0.00212704 -0.0132381 0.00494011)
(0.00213118 -0.0132861 0.0050185)
(0.00207876 -0.0140918 0.00541333)
(0.00237507 -0.0142945 0.00535237)
(0.00249696 -0.0156058 0.00567514)
(0.00253011 -0.0145276 0.00565221)
(0.0025704 -0.0146826 0.00540472)
(0.00246037 -0.0146827 0.00541418)
(0.00253031 -0.0147276 0.00524345)
(0.00233632 -0.0150039 0.0056175)
(0.00252604 -0.0149359 0.00555596)
(0.00254392 -0.0149687 0.0053782)
(0.00246561 -0.0147411 0.00536373)
(0.00218368 -0.0136794 0.00516912)
(0.00216611 -0.0141658 0.00530344)
(0.0023534 -0.0142728 0.00555805)
(0.00225739 -0.014261 0.00530071)
(0.00236013 -0.0137397 0.00525865)
(0.00237774 -0.0138855 0.0052282)
(0.00230748 -0.0137171 0.00494796)
(0.00223147 -0.0133117 0.00487072)
(0.00216213 -0.0140203 0.00500591)
(0.00205093 -0.0133883 0.00462703)
(0.00234709 -0.0133833 0.00506608)
(0.00217139 -0.0144798 0.00527642)
(0.00238092 -0.0139788 0.0051852)
(0.00258571 -0.013413 0.00497237)
(0.00245457 -0.0138164 0.0050706)
(0.00261802 -0.0137701 0.00523285)
(0.00227436 -0.0138009 0.00508249)
(0.00243073 -0.0142324 0.00528717)
(0.00256243 -0.0137501 0.00504695)
(0.00228481 -0.0138285 0.00528236)
(0.00239406 -0.0144962 0.00538883)
(0.00235089 -0.0142679 0.00525143)
(0.00231482 -0.0145824 0.00540523)
(0.00245224 -0.0144481 0.00529606)
(0.00245963 -0.0143102 0.00533027)
(0.00248772 -0.0137119 0.00507867)
(0.00225762 -0.0147713 0.00555256)
(0.00242674 -0.0148968 0.00557269)
(0.00256399 -0.0148809 0.00563043)
(0.00252149 -0.0144671 0.00530023)
(0.00225019 -0.0135703 0.0050594)
(0.00236878 -0.0140278 0.00518024)
(0.00232657 -0.0136296 0.0050983)
(0.00288023 -0.0169993 0.00612997)
(0.00275202 -0.0164976 0.00616923)
(0.00284163 -0.0163154 0.0061588)
(0.00307566 -0.0169613 0.00621564)
(0.002769 -0.0164225 0.00591853)
(0.00274437 -0.0163337 0.00601924)
(0.00261502 -0.0152499 0.00585901)
(0.00283934 -0.0162544 0.00569424)
(0.00242909 -0.0156175 0.00586864)
(0.00252294 -0.0153972 0.00548002)
(0.00271576 -0.0159638 0.00573957)
(0.00265506 -0.0160102 0.00578372)
(0.00279489 -0.0163902 0.00602564)
(0.00241789 -0.0150687 0.00562483)
(0.00268412 -0.0158958 0.00566667)
(0.00268572 -0.0163849 0.00585952)
(0.00245831 -0.0139852 0.00511761)
(0.00234035 -0.0140044 0.00494064)
(0.00230201 -0.0137479 0.00525139)
(0.00244465 -0.0141716 0.00528543)
(0.00234644 -0.0142543 0.00524639)
(0.00239865 -0.0141588 0.00544346)
(0.00236064 -0.0150684 0.00579419)
(0.00247194 -0.0147282 0.00546165)
(0.00241285 -0.0148767 0.00579417)
(0.00244874 -0.0148355 0.0057088)
(0.00241257 -0.0147231 0.00549081)
(0.00256801 -0.0152141 0.00548249)
(0.00241921 -0.0140869 0.00526039)
(0.00237475 -0.0137305 0.00494185)
(0.00230525 -0.0140273 0.00523321)
(0.00232979 -0.0136917 0.00522964)
(0.00233582 -0.0140097 0.00519206)
(0.00244036 -0.0145292 0.00568969)
(0.00253161 -0.0145671 0.00561698)
(0.00290682 -0.0155069 0.00600393)
(0.00283875 -0.0152306 0.00531569)
(0.00227109 -0.0138671 0.00531903)
(0.00259401 -0.0141786 0.00518444)
(0.002507 -0.0150038 0.00574236)
(0.00274699 -0.0154995 0.00567659)
(0.00265786 -0.0149962 0.00532273)
(0.00262147 -0.0153011 0.00575061)
(0.00257844 -0.0155884 0.0056315)
(0.00250888 -0.0148881 0.00570348)
(0.00251175 -0.0145686 0.00509351)
(0.00249914 -0.0143357 0.00556114)
(0.00244581 -0.0138977 0.00512863)
(0.00253814 -0.0147483 0.00573113)
(0.00266468 -0.0146638 0.00515983)
(0.00234472 -0.0146969 0.00563237)
(0.00256339 -0.0148301 0.00542183)
(0.00242233 -0.0148433 0.00566734)
(0.00238435 -0.0144645 0.00543481)
(0.00240983 -0.0147938 0.00578225)
(0.00250167 -0.0146141 0.00526834)
(0.0027181 -0.0153639 0.0056649)
(0.00240832 -0.0143882 0.00513221)
(0.00232523 -0.0139907 0.00527682)
(0.00243904 -0.014372 0.00531519)
(0.00237159 -0.0144741 0.00520095)
(0.00265257 -0.0146643 0.00565142)
(0.00234238 -0.0146083 0.00511932)
(0.00226412 -0.0137555 0.00520339)
(0.00233757 -0.0146918 0.00549769)
(0.00228533 -0.0140673 0.00529626)
(0.00265157 -0.0141609 0.00543623)
(0.00223299 -0.014549 0.0053146)
(0.00233622 -0.0143218 0.00537777)
(0.00247306 -0.0138659 0.00525057)
(0.00249553 -0.0136832 0.00514194)
(0.00276681 -0.0143797 0.00538334)
(0.00231056 -0.014374 0.00532318)
(0.00233886 -0.0140436 0.00532331)
(0.00223119 -0.0138575 0.00517931)
(0.00241918 -0.0139631 0.00525623)
(0.00244691 -0.0145843 0.00542129)
(0.00249191 -0.0143625 0.00541472)
(0.0023784 -0.0144712 0.00527167)
(0.00225753 -0.0141239 0.00530212)
(0.00225841 -0.0145198 0.00523334)
(0.00259905 -0.0148747 0.00551646)
(0.00268597 -0.0149012 0.00572073)
(0.00249834 -0.014607 0.00581303)
(0.00273504 -0.0150878 0.00586712)
(0.0027257 -0.0153076 0.00587075)
(0.00232236 -0.0136 0.00502656)
(0.00265398 -0.0148809 0.00555075)
(0.00264437 -0.0153853 0.00524937)
(0.0022895 -0.0142949 0.00503271)
(0.00247085 -0.0152949 0.00544394)
(0.0025354 -0.0147566 0.0055311)
(0.00253961 -0.0149548 0.00544583)
(0.00261874 -0.0148792 0.00548844)
(0.00273896 -0.0148194 0.00550697)
(0.00263802 -0.0155505 0.00569184)
(0.00252155 -0.0159113 0.00612098)
(0.00277479 -0.0156371 0.00550024)
(0.00274079 -0.0154392 0.00550732)
(0.00273979 -0.0161556 0.00621438)
(0.00281253 -0.0158239 0.00575979)
(0.00292829 -0.0156078 0.005938)
(0.00267309 -0.015768 0.00556546)
(0.00263082 -0.0151537 0.00577159)
(0.00271211 -0.0154467 0.00562096)
(0.00268794 -0.0151107 0.00564413)
(0.00268227 -0.0164684 0.00584311)
(0.00286714 -0.0164652 0.00600685)
(0.0027015 -0.0160577 0.00592706)
(0.00271911 -0.015945 0.00571114)
(0.00292266 -0.0164131 0.00608322)
(0.00282574 -0.0161838 0.00600484)
(0.00265636 -0.0158977 0.00582049)
(0.00274555 -0.016566 0.00598474)
(0.00269535 -0.0159856 0.00602164)
(0.00255312 -0.0156197 0.00572696)
(0.00263107 -0.0159777 0.00593929)
(0.00279411 -0.0167559 0.00604826)
(0.00210507 -0.0132198 0.00489964)
(0.00226165 -0.01335 0.0048792)
(0.00231024 -0.0136531 0.0051261)
(0.00214556 -0.0135566 0.00514836)
(0.0022051 -0.0134544 0.00503705)
(0.00228922 -0.0136826 0.00515376)
(0.00215036 -0.014024 0.00525103)
(0.00255042 -0.0142982 0.00522484)
(0.00244806 -0.0142002 0.00546745)
(0.0024607 -0.0139158 0.00492099)
(0.00250221 -0.0144709 0.00539855)
(0.00247009 -0.0140507 0.00531257)
(0.0024421 -0.0138294 0.00517043)
(0.00240626 -0.0138697 0.00509389)
(0.00216953 -0.0138963 0.00549663)
(0.00215935 -0.0140004 0.00556247)
(0.00238461 -0.0137997 0.00523333)
(0.0025472 -0.0145199 0.00531019)
(0.0025563 -0.0140872 0.00517321)
(0.00224357 -0.0137237 0.0052414)
(0.00243272 -0.0139506 0.00512377)
(0.00216506 -0.0140449 0.00523747)
(0.00232137 -0.0143657 0.00543419)
(0.00218226 -0.01347 0.00514729)
(0.00231655 -0.0136536 0.0049962)
(0.00227753 -0.0138127 0.0051255)
(0.0024336 -0.0141838 0.00519459)
(0.00225265 -0.0138487 0.00523039)
(0.00243311 -0.0139084 0.00509712)
(0.00229882 -0.0140198 0.00522117)
(0.0022076 -0.0136121 0.00499297)
(0.00216193 -0.0131636 0.0047953)
(0.00204243 -0.013582 0.0050393)
(0.00227141 -0.0138151 0.0050317)
(0.00223588 -0.0133579 0.00486755)
(0.00252508 -0.0132496 0.0050053)
(0.00214839 -0.0141476 0.00528368)
(0.00235232 -0.0137946 0.00510921)
(0.00233866 -0.0138566 0.00516569)
(0.00231171 -0.0139278 0.00514865)
(0.00234818 -0.0138347 0.00521239)
(0.00233505 -0.014042 0.0053405)
(0.00240751 -0.0136808 0.00517093)
(0.00239682 -0.0143196 0.00539078)
(0.00228899 -0.0136039 0.00499854)
(0.00229188 -0.0141368 0.00522991)
(0.00233197 -0.0140453 0.0052429)
(0.00258369 -0.0133871 0.00496427)
(0.00212099 -0.0135737 0.00512125)
(0.00198396 -0.0137907 0.0050248)
(0.00239277 -0.0135346 0.00506842)
(0.00279426 -0.0140624 0.00535878)
(0.00219028 -0.0130446 0.0048185)
(0.00229875 -0.0134773 0.00506426)
(0.00236204 -0.0136631 0.0053912)
(0.00227862 -0.0136858 0.00514869)
(0.00236933 -0.0135467 0.00525206)
(0.00219663 -0.0129945 0.00494683)
(0.00229866 -0.0138021 0.00518107)
(0.00230542 -0.0130554 0.00478062)
(0.00223586 -0.0133582 0.00490334)
(0.00246436 -0.0132423 0.00502645)
(0.00229712 -0.0130924 0.00476638)
(0.00225633 -0.0133184 0.00496029)
(0.0024529 -0.0134887 0.00496764)
(0.00244966 -0.0146218 0.00547395)
(0.00240518 -0.0148919 0.00568357)
(0.00254023 -0.0148032 0.00550079)
(0.00257594 -0.0150009 0.00563897)
(0.00249461 -0.0147599 0.00558234)
(0.00269221 -0.0151164 0.00548491)
(0.00250766 -0.0149401 0.00556819)
(0.00255219 -0.0149703 0.00569345)
(0.00234553 -0.0147637 0.00547416)
(0.00250976 -0.0146479 0.00544603)
(0.00226873 -0.0142696 0.00539664)
(0.0024113 -0.0143752 0.00526464)
(0.00216513 -0.0139906 0.00521874)
(0.00249726 -0.0144096 0.00548055)
(0.00242146 -0.0140927 0.00538608)
(0.00263034 -0.0148296 0.00570089)
(0.00234382 -0.014182 0.00533391)
(0.00240136 -0.014256 0.00541761)
(0.00245865 -0.0142262 0.00531997)
(0.00241005 -0.0140099 0.00521193)
(0.00238687 -0.0141674 0.00529735)
(0.00250161 -0.0146706 0.00555324)
(0.00227258 -0.0138447 0.00512109)
(0.0021088 -0.0131901 0.00500266)
(0.00225946 -0.0140433 0.00534208)
(0.00213444 -0.0140248 0.00511112)
(0.00250786 -0.0135021 0.00498992)
(0.00235045 -0.01447 0.00517581)
(0.00245786 -0.0150177 0.00540935)
(0.00241409 -0.0148781 0.00541076)
(0.00245753 -0.0145327 0.00542152)
(0.0026448 -0.0150886 0.00552847)
(0.00261035 -0.0147064 0.00549178)
(0.00231469 -0.0146044 0.00537054)
(0.00231326 -0.0149734 0.00525566)
(0.00228534 -0.0143239 0.00530378)
(0.00246925 -0.0148959 0.00565236)
(0.00231428 -0.0141771 0.00513596)
(0.00220626 -0.0141234 0.00505117)
(0.00241388 -0.0150393 0.00563373)
(0.00293946 -0.014945 0.00557484)
(0.00248095 -0.0154697 0.0057037)
(0.00276403 -0.0150046 0.00563301)
(0.00232365 -0.0153174 0.0055712)
(0.0024932 -0.0148714 0.00557686)
(0.0025389 -0.0149586 0.00560856)
(0.00213189 -0.0149143 0.00554604)
(0.0026704 -0.0151934 0.0055824)
(0.00247116 -0.0143681 0.00534131)
(0.00213535 -0.0148735 0.00570949)
(0.00246642 -0.0145702 0.00554333)
(0.00244266 -0.0139435 0.00526491)
(0.00255698 -0.0146558 0.00548205)
(0.00242749 -0.0147171 0.00553775)
(0.00270379 -0.0154959 0.00575714)
(0.00257838 -0.0143134 0.00546654)
(0.00243272 -0.0144914 0.00539512)
(0.00232172 -0.0144899 0.00531295)
(0.00243117 -0.0146389 0.00541611)
(0.0024449 -0.0145141 0.00537701)
(0.00250521 -0.0144613 0.00520947)
(0.0023253 -0.0143238 0.00529348)
(0.00235007 -0.0142789 0.00524192)
(0.00237263 -0.0145068 0.00532096)
(0.00240017 -0.0141345 0.00519162)
(0.00259534 -0.0154576 0.00591019)
(0.00263305 -0.0156096 0.00581962)
(0.00282997 -0.0161923 0.00597406)
(0.00265674 -0.0157798 0.00593573)
(0.00292137 -0.0164178 0.00605949)
(0.00264578 -0.0155624 0.00582939)
(0.00266399 -0.0152258 0.00560188)
(0.00258813 -0.0154935 0.00581146)
(0.00280626 -0.0159366 0.0058327)
(0.00270658 -0.0156212 0.00576284)
(0.00234043 -0.0151482 0.00560335)
(0.00251964 -0.0152737 0.00563347)
(0.00238878 -0.0150079 0.00568223)
(0.00238785 -0.0145932 0.00536271)
(0.00265167 -0.0147872 0.00542866)
(0.00259018 -0.0146908 0.0053103)
(0.00238546 -0.0151814 0.00558765)
(0.00226714 -0.0146873 0.00548021)
(0.00252399 -0.0148126 0.00554837)
(0.00245076 -0.0153052 0.00566907)
(0.00257527 -0.0151515 0.00557378)
(0.00262861 -0.0152969 0.00553372)
(0.00264052 -0.015003 0.00541029)
(0.00270423 -0.0149845 0.00542926)
(0.00256401 -0.0156984 0.00574631)
(0.00247688 -0.0157434 0.0058611)
(0.00273984 -0.0153806 0.00569853)
(0.00273751 -0.0158652 0.00584585)
(0.00266593 -0.0156749 0.00581775)
(0.00259804 -0.0153398 0.00578971)
(0.00265749 -0.0153994 0.00576373)
(0.00250811 -0.0150155 0.00549275)
(0.00250053 -0.0149132 0.00547916)
(0.00268746 -0.0149803 0.00554318)
(0.00294373 -0.0151987 0.00564006)
(0.00237063 -0.0138469 0.00507494)
(0.00250841 -0.0139181 0.00515551)
(0.00236925 -0.0138399 0.00507768)
(0.00230293 -0.0141474 0.00528387)
(0.00235208 -0.0137758 0.00517075)
(0.00230024 -0.0140667 0.0053124)
(0.0021168 -0.0139076 0.00521492)
(0.00239137 -0.0142085 0.00518401)
(0.00238119 -0.0141705 0.00519418)
(0.00238042 -0.0142111 0.00524309)
(0.00244066 -0.0143545 0.0052576)
(0.00238612 -0.0139884 0.00515123)
(0.00221574 -0.0137062 0.00527742)
(0.00230141 -0.0141901 0.00509296)
(0.002253 -0.0144973 0.00523668)
(0.00211095 -0.0136458 0.00527296)
(0.00226421 -0.0141267 0.00545302)
(0.00214719 -0.0137011 0.00489544)
(0.00227413 -0.0146852 0.00593074)
(0.00219382 -0.0147637 0.0052112)
(0.0022751 -0.013406 0.00495664)
(0.00227569 -0.0138874 0.00508929)
(0.00232209 -0.0141744 0.00517593)
(0.00235637 -0.0137675 0.00514688)
(0.00232642 -0.0140221 0.00515674)
(0.00267776 -0.0155324 0.00582358)
(0.00241928 -0.0153295 0.00567349)
(0.00254774 -0.0135175 0.00508639)
(0.00224113 -0.0143147 0.00519772)
(0.00242371 -0.014453 0.00551644)
(0.00236216 -0.0142452 0.00520001)
(0.00200432 -0.0136227 0.00511918)
(0.00236409 -0.0150186 0.00554545)
(0.00264058 -0.0147328 0.00574688)
(0.00257003 -0.0146147 0.00566805)
(0.00259706 -0.0147496 0.00574548)
(0.00242565 -0.0142553 0.00517571)
(0.00242779 -0.0145758 0.00548867)
(0.00237798 -0.0146112 0.00544243)
(0.00256872 -0.0149634 0.00551391)
(0.0024519 -0.0143388 0.00536631)
(0.00239856 -0.014749 0.00562282)
(0.00235348 -0.014416 0.00534796)
(0.00260719 -0.0144619 0.00534009)
(0.00228726 -0.0132697 0.00502606)
(0.0022949 -0.0130106 0.00468512)
(0.00221576 -0.0135746 0.00470653)
(0.00212631 -0.0138479 0.00511124)
(0.00214367 -0.0133455 0.00483842)
(0.0019867 -0.0127492 0.00449545)
(0.00218875 -0.0131536 0.00486764)
(0.00233544 -0.0139203 0.00530741)
(0.00238124 -0.013376 0.0048657)
(0.00219198 -0.0136101 0.00489131)
(0.00241994 -0.0136154 0.00519055)
(0.00213079 -0.0136414 0.00498423)
(0.00261788 -0.0156468 0.00580132)
(0.00238125 -0.0147572 0.00550002)
(0.00282624 -0.0150955 0.00577236)
(0.00250784 -0.0137548 0.00478336)
(0.00260208 -0.0143442 0.00477143)
(0.00239274 -0.0146079 0.00590968)
(0.00229131 -0.0160845 0.00608354)
(0.00237773 -0.0144034 0.00553203)
(0.00238911 -0.0147309 0.00550795)
(0.00242054 -0.0146954 0.00554342)
(0.00244168 -0.0149136 0.00551287)
(0.00233792 -0.0144297 0.00543142)
(0.00237862 -0.0140788 0.00523003)
(0.00227727 -0.0154464 0.0055593)
(0.00235383 -0.014692 0.00523514)
(0.00225594 -0.0146866 0.00529343)
(0.00232882 -0.0149769 0.00550965)
(0.00224149 -0.0148781 0.00559269)
(0.00230565 -0.0144487 0.00515577)
(0.0023376 -0.0146037 0.0059253)
(0.00229051 -0.0138973 0.00488736)
(0.00244037 -0.014184 0.00545117)
(0.00238214 -0.0136682 0.0052407)
(0.0022102 -0.0141252 0.00509047)
(0.00253909 -0.0150923 0.00558163)
(0.00222054 -0.0144606 0.00554894)
(0.00234924 -0.0156805 0.00603014)
(0.00251738 -0.0149889 0.00575845)
(0.00261872 -0.0146586 0.00499415)
(0.00225735 -0.0148939 0.00592616)
(0.00260389 -0.0159112 0.00583647)
(0.00264132 -0.0155105 0.00562923)
(0.00260124 -0.0156186 0.00586706)
(0.00264137 -0.0152967 0.00555157)
(0.00261701 -0.0155058 0.00572067)
(0.00264264 -0.0153117 0.00572082)
(0.00263383 -0.0151528 0.0055135)
(0.00267598 -0.015413 0.00554959)
(0.00259023 -0.0155578 0.00570009)
(0.00259666 -0.0149775 0.00541329)
(0.00259557 -0.0149895 0.00549739)
(0.00261993 -0.0153072 0.00552863)
(0.00205677 -0.0151149 0.0060151)
(0.00233456 -0.0146729 0.00557066)
(0.0024158 -0.0147307 0.00545684)
(0.00229415 -0.0142445 0.00548213)
(0.00226325 -0.0140365 0.0051511)
(0.00219632 -0.0140423 0.00527475)
(0.00238443 -0.0137856 0.00511763)
(0.00239099 -0.014286 0.00520914)
(0.00248661 -0.0147124 0.00563433)
(0.00248431 -0.0144962 0.00548418)
(0.00243963 -0.0140066 0.00525842)
(0.00244359 -0.0140064 0.00534983)
(0.00239881 -0.0145355 0.00559514)
(0.00248539 -0.015336 0.00578577)
(0.00226457 -0.0147738 0.00541021)
(0.00224873 -0.0144837 0.0052466)
(0.00267155 -0.0149665 0.00601719)
(0.00259553 -0.0148064 0.00569439)
(0.00241122 -0.014585 0.00538685)
(0.00263605 -0.0149737 0.00571278)
(0.00253305 -0.0147144 0.00550561)
(0.00252657 -0.014467 0.00534255)
(0.00233849 -0.0139185 0.00506932)
(0.00230176 -0.0142311 0.00516064)
(0.00218163 -0.0137953 0.00523988)
(0.0021209 -0.0138812 0.00532941)
(0.00230957 -0.0141503 0.00510674)
(0.00236555 -0.0138896 0.00517436)
(0.00238899 -0.0140851 0.00483216)
(0.0021945 -0.0143162 0.00568522)
(0.00234817 -0.0140875 0.00500897)
(0.00247566 -0.015137 0.00519744)
(0.0022916 -0.0148855 0.0059612)
(0.00264652 -0.0147704 0.00584736)
(0.0022949 -0.0144497 0.00520839)
(0.00255605 -0.0148037 0.00559068)
(0.00246484 -0.0149092 0.00549455)
(0.00243473 -0.0156032 0.00570111)
(0.0023228 -0.0144057 0.00543455)
(0.00261237 -0.0145835 0.00559455)
(0.00220719 -0.0143742 0.0053809)
(0.00252727 -0.0142276 0.00535434)
(0.0024336 -0.0150593 0.00586706)
(0.00233028 -0.0144439 0.00535413)
(0.00258471 -0.0150614 0.00559236)
(0.00263065 -0.0147532 0.00553957)
(0.00262688 -0.0149181 0.00571954)
(0.00262574 -0.0147945 0.00543865)
(0.00257088 -0.0152816 0.00588972)
(0.00263546 -0.0152432 0.00588452)
(0.00245017 -0.0153966 0.00560538)
(0.00265928 -0.0146949 0.00547721)
(0.00244715 -0.0146413 0.00545438)
(0.00260197 -0.0148336 0.00562686)
(0.00242171 -0.0154952 0.00572542)
(0.00251367 -0.0146616 0.0056441)
(0.00228037 -0.0146749 0.00540742)
(0.00232559 -0.0145199 0.0053155)
(0.00232344 -0.0150101 0.00565046)
(0.00222254 -0.014123 0.00521454)
(0.00255819 -0.0143271 0.00536903)
(0.00231187 -0.0149274 0.0055362)
(0.00240386 -0.0146033 0.00538625)
(0.00235417 -0.0144974 0.00554907)
(0.00240779 -0.014287 0.00521785)
(0.00254229 -0.0141616 0.00565322)
(0.00231063 -0.0144066 0.00512587)
(0.00215988 -0.01385 0.00526478)
(0.0022974 -0.0139286 0.00507972)
(0.00232057 -0.0136324 0.00472039)
(0.00220121 -0.0134558 0.00492389)
(0.00213232 -0.0139534 0.00482095)
(0.00215622 -0.0139915 0.00488284)
(0.00234848 -0.013952 0.00514368)
(0.00220097 -0.0136922 0.00537261)
(0.00224808 -0.0145736 0.0055467)
(0.00201566 -0.0150317 0.00522908)
(0.00222801 -0.0141282 0.00525235)
(0.00233685 -0.0137799 0.00525371)
(0.00222719 -0.0139367 0.00487064)
(0.00217512 -0.0130604 0.00462579)
(0.00229065 -0.0135309 0.00454962)
(0.00225321 -0.0135517 0.00464612)
(0.00237736 -0.0137112 0.00518315)
(0.00227789 -0.013975 0.00509712)
(0.00265013 -0.0146568 0.00510043)
(0.00243683 -0.0135161 0.00537201)
(0.00233057 -0.0135211 0.00479773)
(0.00246126 -0.0135162 0.00528435)
(0.00246383 -0.0140762 0.00537654)
(0.00250773 -0.0144775 0.00528382)
(0.00249786 -0.0150852 0.00527369)
(0.00255665 -0.0143115 0.00540473)
(0.00240131 -0.0143068 0.00513135)
(0.00274323 -0.0147157 0.00526463)
(0.00223275 -0.0140529 0.00515931)
(0.0023795 -0.0143816 0.00518376)
(0.00223647 -0.0142417 0.00537376)
(0.00221386 -0.0139442 0.00510843)
(0.00254308 -0.0140611 0.00522726)
(0.00229874 -0.0141477 0.00525281)
(0.00240557 -0.0145678 0.00537019)
(0.00244367 -0.0142877 0.00530099)
(0.00258338 -0.0140614 0.00518485)
(0.00241747 -0.0142092 0.00523856)
(0.00247838 -0.0137069 0.00528946)
(0.00260129 -0.0140784 0.00546227)
(0.00263576 -0.0143287 0.00531677)
(0.0024035 -0.0143437 0.00529348)
(0.00216173 -0.014542 0.00519668)
(0.00221285 -0.0141962 0.00515756)
(0.00227087 -0.0142679 0.00518887)
(0.00229131 -0.0135476 0.00508939)
(0.00241558 -0.0143787 0.00529258)
(0.00235491 -0.0141127 0.00525829)
(0.00224975 -0.0139388 0.00514179)
(0.0021982 -0.0140293 0.00521045)
(0.00251917 -0.0139684 0.00520245)
(0.00225537 -0.0138505 0.00512204)
(0.00232394 -0.0142309 0.00535262)
(0.00254531 -0.0145904 0.0052995)
(0.00205103 -0.0143628 0.00538619)
(0.00281847 -0.0149628 0.00550211)
(0.00216916 -0.013928 0.00519152)
(0.00231153 -0.0144695 0.00530575)
(0.00236768 -0.0136996 0.00509693)
(0.00230126 -0.0142471 0.00524691)
(0.00228404 -0.0144773 0.00530039)
(0.00219832 -0.0140982 0.00512649)
(0.00250495 -0.0143261 0.00520925)
(0.00245402 -0.0136195 0.00514527)
(0.00232485 -0.013954 0.0052641)
(0.00257422 -0.0138661 0.00516821)
(0.00239217 -0.0138796 0.00518523)
(0.00234706 -0.0138236 0.00519344)
(0.00258437 -0.0144549 0.00522815)
(0.00214796 -0.0135441 0.00478019)
(0.0024775 -0.0139359 0.00522056)
(0.00212568 -0.0136616 0.00493888)
(0.00207293 -0.0136055 0.0049474)
(0.00251499 -0.0141652 0.00524234)
(0.00229036 -0.0140527 0.00521088)
(0.00256422 -0.0146317 0.00538655)
(0.00262145 -0.0149296 0.00547282)
(0.00264412 -0.0147444 0.00547031)
(0.00238867 -0.015374 0.00576169)
(0.0024507 -0.0147168 0.00564291)
(0.00248018 -0.0152156 0.00577302)
(0.00230317 -0.0146118 0.00504291)
(0.00252048 -0.0152588 0.0058539)
(0.00219286 -0.0138001 0.00504992)
(0.00234119 -0.0146639 0.0053211)
(0.00218817 -0.014104 0.00547722)
(0.0022978 -0.0141452 0.00508925)
(0.00214564 -0.0138699 0.00528303)
(0.00212754 -0.0132559 0.0051712)
(0.00233992 -0.0135264 0.00497637)
(0.00253553 -0.0141181 0.00491231)
(0.00228178 -0.0136041 0.00490963)
(0.0022814 -0.0142419 0.00511852)
(0.00237549 -0.0139933 0.00514708)
(0.0024247 -0.0143299 0.00529388)
(0.00234488 -0.0138471 0.00507321)
(0.00228748 -0.0136851 0.00493948)
(0.00248095 -0.0143193 0.00531557)
(0.00231598 -0.0147248 0.00553149)
(0.00268238 -0.0149718 0.00566959)
(0.00240289 -0.0149739 0.00549863)
(0.00232516 -0.0145494 0.00522251)
(0.00246304 -0.0146552 0.00560071)
(0.00242729 -0.0147255 0.00537056)
(0.00212592 -0.0132517 0.00492693)
(0.00227262 -0.0133816 0.00470316)
(0.00221822 -0.0133753 0.0049595)
(0.00242346 -0.0146016 0.00542252)
(0.00251665 -0.0144296 0.00514592)
(0.00250586 -0.014158 0.00500336)
(0.00229906 -0.014036 0.00538522)
(0.00224329 -0.0142124 0.00560593)
(0.00234642 -0.013876 0.00505474)
(0.00222923 -0.0136988 0.00508975)
(0.00233534 -0.0144977 0.00531581)
(0.00255134 -0.0149447 0.00536011)
(0.00252591 -0.0153892 0.00567592)
(0.0026397 -0.0159208 0.00603361)
(0.00269212 -0.0154131 0.0056285)
(0.00252077 -0.0153964 0.00569524)
(0.00253044 -0.0155105 0.00584443)
(0.0025126 -0.0151967 0.00566345)
(0.00260362 -0.0153361 0.00572501)
(0.00243686 -0.0148208 0.00571556)
(0.0026388 -0.0153566 0.00551367)
(0.00251606 -0.0148964 0.00550805)
(0.00259068 -0.0149249 0.00540454)
(0.00264118 -0.0156551 0.00571861)
(0.00271596 -0.0159071 0.00575163)
(0.00263996 -0.0153902 0.00566463)
(0.00256593 -0.0154889 0.0058547)
(0.00260139 -0.0152042 0.00563365)
(0.00257969 -0.0152975 0.00560514)
(0.00250981 -0.015252 0.00565848)
(0.00257079 -0.0149214 0.00549369)
(0.00260049 -0.0150809 0.00555396)
(0.00266582 -0.0150671 0.00543779)
(0.00226476 -0.013552 0.0047318)
(0.00217398 -0.0144595 0.00515198)
(0.00236726 -0.0139325 0.00488059)
(0.00259583 -0.0141129 0.00570659)
(0.00260816 -0.0146897 0.00569095)
(0.0024387 -0.0149475 0.0054604)
(0.00243748 -0.0146539 0.00547656)
(0.00234916 -0.0148045 0.00555566)
(0.00223613 -0.0143247 0.00523876)
(0.00237424 -0.0147449 0.00532948)
(0.00256136 -0.0148914 0.005107)
(0.00232067 -0.0147749 0.00567052)
(0.00256011 -0.015322 0.00526389)
(0.00250665 -0.0148177 0.00546621)
(0.00249374 -0.0149945 0.0055815)
(0.00245918 -0.0144917 0.00529389)
(0.00253503 -0.0152056 0.00542147)
(0.00236627 -0.0150252 0.00564087)
(0.00249958 -0.0145314 0.00522396)
(0.00250154 -0.0142967 0.00510122)
(0.00254126 -0.0147732 0.00537049)
(0.00247201 -0.014246 0.00530326)
(0.00247905 -0.0143757 0.00520457)
(0.00221181 -0.0140929 0.0053797)
(0.00241277 -0.0142462 0.00547843)
(0.00254686 -0.0148066 0.00550107)
(0.00241345 -0.0146189 0.00541404)
(0.00225783 -0.0151036 0.00530737)
(0.0021817 -0.014381 0.00523924)
(0.00235942 -0.0135515 0.005191)
(0.00237732 -0.0141651 0.00541928)
(0.00236472 -0.0139398 0.00482301)
(0.00233849 -0.0132675 0.00489334)
(0.00223288 -0.0136726 0.00511739)
(0.00223637 -0.0142171 0.00532642)
(0.00249957 -0.0138846 0.0053476)
(0.00209158 -0.0136543 0.00496666)
(0.00229038 -0.0140271 0.00508627)
(0.00209748 -0.0136337 0.00478503)
(0.00230683 -0.0136535 0.00510137)
(0.00217976 -0.013327 0.0049096)
(0.00218421 -0.0139177 0.00498203)
(0.00227963 -0.013962 0.00508467)
(0.00205534 -0.0134124 0.00472183)
(0.00250117 -0.0150438 0.00558099)
(0.00243948 -0.0143149 0.00528665)
(0.002499 -0.0153028 0.00570896)
(0.00251169 -0.0149037 0.00563624)
(0.00253595 -0.0149775 0.00577902)
(0.00263936 -0.0144492 0.00537288)
(0.00232197 -0.0140729 0.00519006)
(0.00271704 -0.0154548 0.00580517)
(0.00244722 -0.0147686 0.00552755)
(0.00248391 -0.0148148 0.00552365)
(0.00253303 -0.0140631 0.0052122)
(0.00244825 -0.014745 0.0055131)
(0.00232846 -0.0145146 0.00539467)
(0.00255471 -0.0141534 0.00537048)
(0.00270969 -0.0141257 0.00523501)
(0.0025509 -0.0144831 0.00539222)
(0.00247924 -0.0138669 0.00514469)
(0.00240025 -0.0143406 0.0054213)
(0.00239373 -0.0147361 0.0054174)
(0.0023467 -0.0146559 0.00536224)
(0.00285506 -0.0147161 0.00575632)
(0.00224174 -0.0146315 0.0053034)
(0.00255975 -0.0150326 0.00554969)
(0.00248806 -0.0137357 0.00510051)
(0.00222183 -0.0146128 0.00552895)
(0.0021359 -0.0142132 0.00522017)
(0.0024604 -0.0142699 0.00536282)
(0.00253774 -0.0142235 0.00550762)
(0.00241524 -0.0149545 0.00550073)
(0.0022837 -0.0149265 0.00535796)
(0.00234968 -0.0143615 0.00515516)
(0.00262279 -0.0143572 0.00533323)
(0.00234818 -0.0145913 0.00521158)
(0.00251157 -0.0150694 0.00570349)
(0.00238102 -0.0146906 0.00537345)
(0.00232972 -0.015145 0.00553331)
(0.00248399 -0.0146646 0.00554458)
(0.00239629 -0.0153486 0.00583497)
(0.00244952 -0.0143681 0.00562305)
(0.00248766 -0.0145829 0.00566279)
(0.00265811 -0.014295 0.00561061)
(0.00233459 -0.014847 0.00569102)
(0.00233356 -0.0137162 0.0050027)
(0.00228498 -0.0142009 0.00522287)
(0.00230541 -0.0138067 0.00508011)
(0.00235829 -0.013805 0.00514331)
(0.00236854 -0.0143838 0.0054887)
(0.00223067 -0.0136399 0.005131)
(0.00232346 -0.0142596 0.00531551)
(0.00241516 -0.0143895 0.00553821)
(0.00220136 -0.0141894 0.00517037)
(0.0023923 -0.0142603 0.00542314)
(0.00238925 -0.0142092 0.00537351)
(0.00228486 -0.0142745 0.00527664)
(0.00232242 -0.0140755 0.00513988)
(0.00231273 -0.0138704 0.00508985)
(0.00234891 -0.0144186 0.00540536)
(0.00226611 -0.0138526 0.00515462)
(0.00223947 -0.0138104 0.00500455)
(0.00237359 -0.0139181 0.00505845)
(0.00222812 -0.0137053 0.00498912)
(0.00244989 -0.0140383 0.00533436)
(0.00242361 -0.0140831 0.00535408)
(0.00237377 -0.0143422 0.00536197)
(0.00257879 -0.0138409 0.00552349)
(0.00237788 -0.0137457 0.00523165)
(0.00215782 -0.0144761 0.00537017)
(0.00229656 -0.0139876 0.00522127)
(0.00246923 -0.0143223 0.00545348)
(0.00238808 -0.0139931 0.00518793)
(0.00238203 -0.0145919 0.00540249)
(0.00249241 -0.0149339 0.00569491)
(0.00226 -0.0137637 0.00505768)
(0.00244511 -0.0143427 0.00548192)
(0.00265423 -0.0147085 0.0054519)
(0.00224445 -0.0145675 0.00553533)
(0.00261051 -0.0152698 0.00577399)
(0.00237902 -0.0151355 0.00572536)
(0.00261143 -0.015292 0.00573844)
(0.00266219 -0.0152908 0.00571126)
(0.00264106 -0.0151001 0.0055945)
(0.00262051 -0.0153025 0.00569241)
(0.00237377 -0.0150308 0.00561442)
(0.0023112 -0.0149465 0.00570579)
(0.00278313 -0.0153239 0.00569923)
(0.00265956 -0.0150221 0.00562314)
(0.00271097 -0.0153058 0.00565339)
(0.00259085 -0.0151066 0.00565618)
(0.00244003 -0.0151659 0.00567739)
(0.00227964 -0.0137273 0.00548179)
(0.0022994 -0.0138931 0.00509733)
(0.00230241 -0.0136411 0.00526146)
(0.00240818 -0.0139848 0.00521019)
(0.00224563 -0.0135965 0.00551094)
(0.00227148 -0.0140084 0.00511588)
(0.00238653 -0.0141072 0.0051416)
(0.00239313 -0.013479 0.00498942)
(0.00232756 -0.0146772 0.00542367)
(0.00236708 -0.0138879 0.00492364)
(0.00216569 -0.0134292 0.00484348)
(0.00213078 -0.0130989 0.00507625)
(0.00207615 -0.013727 0.0054364)
(0.00241844 -0.0143586 0.00515786)
(0.00211357 -0.0141429 0.00539741)
(0.00226191 -0.0139306 0.00521892)
(0.00216485 -0.0141237 0.00531891)
(0.00241564 -0.0139041 0.00496741)
(0.00222988 -0.0133879 0.00501317)
(0.00222548 -0.0137142 0.00525704)
(0.00221339 -0.0146381 0.00516046)
(0.00211033 -0.0135233 0.0050476)
(0.0023392 -0.0133948 0.00495674)
(0.00219757 -0.0138211 0.00516004)
(0.00216388 -0.013914 0.00527503)
(0.00198695 -0.0139012 0.0052017)
(0.00265259 -0.0143923 0.00523065)
(0.0023008 -0.0139512 0.00530191)
(0.00235764 -0.0143247 0.00533038)
(0.00231692 -0.0142703 0.00524877)
(0.00232457 -0.0140081 0.00513327)
(0.00217389 -0.0141507 0.00534836)
(0.00221074 -0.0139569 0.00528234)
(0.00244001 -0.0142739 0.0052065)
(0.00233988 -0.0141172 0.00518366)
(0.00229962 -0.0139977 0.00522658)
(0.00258978 -0.0154045 0.00561094)
(0.00210906 -0.0158745 0.0057949)