/*--------------------------------*- C++ -*----------------------------------*\
| =========                 |                                                 |
| \\      /  F ield         | OpenFOAM: The Open Source CFD Toolbox           |
|  \\    /   O peration     | Version:  v1612+                                |
|   \\  /    A nd           | Web:      www.OpenFOAM.com                      |
|    \\/     M anipulation  |                                                 |
\*---------------------------------------------------------------------------*/
FoamFile
{
    version     2.0;
    format      ascii;
    class       surfaceScalarField;
    location    "166";
    object      phi;
}
// * * * * * * * * * * * * * * * * * * * * * * * * * * * * * * * * * * * * * //

dimensions      [0 3 -1 0 0 0 0];

internalField   nonuniform List<scalar> 
37828
(
2.89003e-09
-4.61002e-09
-1.87949e-09
3.59946e-09
-3.61984e-09
3.89834e-09
-2.13927e-10
-6.45342e-11
-1.78777e-08
1.73e-08
3.51845e-11
5.42465e-10
5.40789e-09
-1.55933e-08
-7.69225e-09
2.62797e-08
-6.61926e-09
-1.42525e-08
1.59265e-08
2.76532e-08
7.75969e-09
1.92319e-10
-7.91682e-09
-2.58866e-09
5.38665e-09
-2.87116e-09
7.31843e-11
4.64781e-09
-9.00095e-09
1.76446e-09
7.25509e-09
6.3332e-09
-8.20167e-09
9.72109e-09
-2.92586e-09
4.59826e-10
-1.24212e-08
1.04497e-08
-5.50106e-09
7.06956e-09
1.43579e-08
-1.62243e-09
7.6129e-09
1.76919e-09
-3.4858e-09
6.7279e-09
6.47894e-09
1.22495e-09
7.95931e-09
1.58011e-09
-1.50405e-08
-4.05471e-09
1.87372e-08
1.06325e-08
1.7722e-09
2.45234e-09
-1.1586e-09
-3.06594e-09
1.50335e-09
5.53314e-10
-2.84464e-10
2.43104e-09
7.4186e-10
-7.20547e-10
2.21025e-09
1.72413e-09
-3.29787e-09
4.12367e-09
-8.39303e-11
-2.09342e-09
3.38248e-09
-4.58692e-09
1.28456e-09
-4.53657e-09
-3.8003e-09
1.4089e-09
6.51507e-09
-5.79523e-10
1.61689e-10
1.49075e-09
2.46193e-09
-2.66814e-09
2.27206e-09
-2.28001e-10
5.05455e-09
-1.4354e-09
-2.08508e-10
2.09092e-09
-7.5163e-09
-3.39376e-09
8.31757e-09
2.59253e-09
-3.92711e-09
2.53388e-09
-6.12306e-09
3.78964e-09
-5.62058e-10
-7.15467e-09
2.49177e-09
-2.09588e-09
-3.13662e-09
4.10733e-09
7.34688e-09
1.27553e-10
-7.30277e-10
1.64812e-09
1.55123e-09
-3.76141e-09
-2.27459e-09
-2.84443e-09
5.73076e-09
-6.1173e-10
2.23536e-09
-4.59688e-10
7.41672e-11
1.75859e-09
-4.7225e-09
2.51425e-09
2.28241e-09
1.3269e-09
2.35411e-09
-2.12979e-09
-9.03824e-10
4.08972e-10
-1.14957e-09
3.09466e-09
-2.00112e-10
-3.86469e-09
5.71861e-09
-2.24733e-09
3.93395e-10
-2.36615e-09
7.64366e-09
-8.18429e-09
2.90677e-09
-6.60077e-09
3.69923e-10
-1.20221e-09
5.87237e-09
2.97351e-09
1.95699e-09
-5.59557e-09
-2.9622e-09
-1.42091e-09
-4.8064e-09
4.32452e-09
-1.22912e-08
6.76446e-09
1.05703e-08
1.14699e-09
-7.39274e-09
-3.49803e-09
-1.3268e-09
1.42164e-10
4.68262e-09
-4.60856e-09
5.97712e-09
-4.8666e-09
-9.28895e-09
-1.11842e-08
8.18194e-09
-2.71724e-09
-7.99263e-09
-1.04981e-08
3.37867e-09
5.79258e-09
-5.70501e-09
-1.30006e-08
8.20752e-09
-9.62748e-09
1.20523e-09
-4.20152e-09
6.37596e-09
1.0903e-09
-3.26477e-09
5.83536e-09
-9.02744e-09
-1.00946e-09
6.56703e-09
9.66198e-10
-3.59692e-09
-3.93633e-09
2.6667e-09
4.11545e-09
-2.15118e-10
-1.03422e-09
5.83449e-09
1.57567e-09
4.68298e-09
1.18162e-10
5.53869e-09
-1.91589e-09
-2.53251e-09
7.74494e-09
-2.27152e-09
-4.50723e-09
4.56154e-09
-5.59272e-09
3.12737e-09
-2.09625e-09
3.47546e-09
-5.37001e-09
6.45609e-09
1.75695e-09
-2.22302e-10
-2.65497e-09
6.00462e-09
-2.37177e-09
5.62492e-09
-9.05906e-09
5.4404e-09
7.7341e-09
-1.32364e-09
9.52057e-12
5.87689e-10
-1.23221e-10
-2.54502e-09
5.33042e-09
-5.67853e-09
7.61724e-10
5.27709e-09
-1.06206e-09
1.86247e-10
-7.77637e-09
1.95471e-08
-1.83427e-09
-9.93649e-09
1.09865e-08
-1.32191e-08
-5.54374e-09
1.21971e-08
1.73272e-09
-1.27755e-08
-1.15433e-09
6.24418e-09
1.34072e-09
1.19622e-08
3.6338e-09
-1.22485e-08
7.96252e-10
7.81847e-09
-3.65392e-09
-2.44118e-09
1.4205e-08
-8.10996e-09
-4.01914e-09
3.99901e-09
1.29535e-08
-5.30563e-09
3.3386e-09
1.67565e-08
9.51864e-09
-1.36082e-08
8.10142e-09
-6.74176e-09
1.96044e-09
1.76639e-09
-3.97424e-09
2.47161e-10
4.73436e-09
6.79264e-09
-9.56657e-09
-1.14332e-08
-2.96995e-10
3.31551e-09
8.41473e-09
-4.11713e-09
2.52706e-09
-9.84315e-09
-1.79491e-09
-7.76233e-09
5.44011e-09
-8.10774e-09
3.53184e-09
9.3103e-09
-9.62744e-09
-3.39223e-09
4.91197e-09
1.21128e-08
-1.6367e-09
-7.949e-09
8.78495e-09
3.03082e-09
9.3587e-10
-4.9135e-09
8.29207e-09
-4.31446e-09
-6.12164e-09
1.05893e-08
3.74297e-09
1.9289e-09
-7.46679e-09
-5.42869e-09
-9.60083e-10
-3.23866e-09
-7.9881e-09
6.30236e-09
7.78788e-09
-7.49569e-09
-3.53265e-10
-1.01461e-08
4.37767e-09
3.51819e-09
-3.31825e-09
1.4381e-08
-9.5158e-09
-3.40367e-09
-1.46152e-09
-6.77371e-09
1.73539e-08
3.80087e-09
-1.88783e-08
-1.42917e-09
1.35338e-08
-1.36877e-08
-1.47064e-08
-4.02726e-09
9.78345e-10
9.06066e-09
-6.01175e-09
-9.70675e-10
-8.31995e-09
5.26335e-09
2.43507e-09
5.29406e-09
-8.69986e-09
8.56626e-09
-5.15285e-09
-8.56763e-09
-2.35562e-09
7.51957e-09
-1.49313e-08
7.8911e-09
5.61104e-09
3.8497e-09
7.16436e-09
-1.95341e-09
3.84834e-09
-1.82692e-08
9.87558e-09
5.10502e-09
-1.47094e-09
1.10032e-08
-1.46372e-08
3.06272e-09
9.20665e-09
-1.24502e-08
-6.29605e-10
3.79379e-10
1.27004e-08
-2.49766e-09
-6.47523e-09
-3.47732e-09
2.10762e-09
-7.63845e-10
-9.67912e-09
8.33535e-09
1.33614e-09
-1.4178e-08
1.49494e-08
6.15997e-09
6.22762e-09
-5.3746e-09
-7.013e-09
5.86297e-09
5.37117e-11
2.43279e-10
-1.3061e-08
1.16676e-08
-7.75001e-09
-7.80864e-09
-2.50616e-11
-5.87053e-09
6.27497e-09
-9.36854e-09
1.06796e-08
7.83038e-09
-7.00383e-09
-1.05057e-08
-1.06058e-09
-5.287e-09
-1.01101e-08
6.60452e-09
-4.94304e-09
-5.96629e-09
5.69852e-09
3.21492e-10
6.93305e-09
2.1071e-09
-1.44147e-08
6.54774e-09
-5.58098e-09
1.62319e-10
-8.98087e-11
-9.69098e-12
-1.26467e-08
-5.10816e-09
-7.82401e-09
5.52501e-09
7.4072e-09
3.92987e-09
-1.10744e-08
2.03635e-09
2.72442e-09
7.87341e-09
-9.13523e-09
-1.46268e-09
5.74917e-09
9.05104e-10
4.16855e-09
1.12765e-08
-1.43579e-08
-1.08711e-09
-9.9931e-09
3.08723e-09
4.77167e-11
3.40478e-09
-6.08951e-09
2.85978e-09
8.97888e-09
-4.76669e-09
6.55055e-09
3.80129e-09
-2.64422e-09
-1.5515e-08
9.95029e-10
-7.18685e-09
-3.8112e-09
1.2196e-08
-1.96508e-09
-6.17514e-09
9.15451e-09
-1.48649e-08
5.75809e-09
-9.01859e-09
1.43619e-08
-1.75635e-09
8.52045e-09
-8.72922e-09
8.72152e-09
-1.31221e-08
7.78061e-09
-1.3924e-08
-2.07713e-09
8.39114e-10
1.67662e-09
-3.80417e-09
4.97479e-09
-5.49585e-09
4.32522e-09
2.4291e-09
-5.88467e-09
-3.48607e-10
-3.84828e-09
-1.77967e-09
1.06027e-08
-6.65645e-09
-4.14101e-09
6.94917e-09
-4.27572e-09
4.83611e-11
-1.09091e-08
9.21564e-10
5.84648e-09
-4.42756e-10
-4.40254e-09
-6.06377e-09
-9.75889e-10
1.9898e-09
-6.50976e-09
-6.48312e-09
-6.12394e-09
1.08274e-08
1.3353e-08
-5.12825e-09
-8.66748e-09
7.79141e-09
-4.11059e-09
-4.56766e-09
-4.97219e-09
-8.57251e-10
9.63755e-09
-3.80813e-09
-1.33641e-09
6.59111e-09
-1.02269e-08
3.40003e-09
3.25333e-09
-7.98977e-09
-3.995e-09
6.53778e-09
-9.19416e-09
2.09432e-09
9.01022e-09
-7.54738e-09
9.45361e-09
-5.41208e-09
4.55482e-09
-1.06358e-09
7.21124e-09
-5.2426e-09
6.40865e-09
-1.0182e-09
-6.45406e-09
-4.44872e-09
9.83066e-09
-1.73861e-10
2.27563e-09
-2.86282e-09
2.91367e-09
7.16038e-09
4.79288e-09
-1.24707e-09
4.32871e-09
-6.80962e-09
-7.64702e-09
3.80391e-09
3.66921e-09
2.77911e-10
-3.10216e-10
4.82516e-09
6.04826e-09
-9.36658e-09
-6.75716e-09
8.28954e-09
-4.30992e-10
3.28221e-10
-4.56359e-09
-2.72481e-09
-3.50347e-09
-5.62371e-09
-2.06012e-09
-2.83515e-09
3.3168e-10
-2.17165e-09
-6.8695e-09
6.31631e-09
-1.11698e-08
5.35652e-09
3.6416e-09
-2.89256e-09
-8.45458e-09
4.47763e-09
-5.13349e-09
1.80801e-10
6.88911e-09
-5.55862e-09
-7.11328e-09
5.78278e-09
-1.37559e-09
1.15798e-09
7.10672e-09
-1.64121e-09
5.11165e-10
-7.32453e-09
-8.4648e-10
-5.92823e-09
-1.06651e-08
5.46012e-10
8.74353e-09
-8.47138e-10
-9.81148e-09
-6.75444e-10
-1.08368e-08
-7.08054e-09
1.33905e-09
-5.42409e-09
2.96061e-09
1.12443e-09
-3.66518e-09
3.09183e-09
1.91241e-09
1.86906e-09
-2.77671e-09
-4.51644e-09
-1.58713e-09
-2.09004e-10
-3.35433e-09
-5.70927e-10
2.60118e-10
3.66515e-09
7.49433e-10
-2.61776e-09
-1.48601e-09
-4.42328e-09
-1.51336e-10
4.0037e-09
-2.62354e-09
-1.05032e-09
-5.24814e-10
3.38635e-10
-1.86331e-09
2.0495e-09
-3.6739e-09
2.99775e-09
4.60128e-10
-1.17283e-10
2.96877e-09
5.83196e-10
-1.98301e-09
2.58177e-09
1.02778e-09
-2.48212e-09
-2.21956e-09
-6.31401e-10
-2.04142e-10
-1.54754e-09
2.53329e-09
-3.98123e-09
-2.66548e-10
5.36012e-10
-4.07986e-09
1.07019e-08
-7.15808e-09
5.14909e-09
-5.15852e-09
-5.35466e-09
5.36409e-09
3.17195e-12
-1.27779e-09
6.42371e-09
-5.2499e-09
-2.55651e-09
8.34242e-09
-2.93464e-09
-1.99416e-09
-3.21103e-10
-2.49577e-09
-6.38493e-09
7.43922e-09
1.44147e-09
-5.02963e-09
-4.00771e-10
2.81206e-09
-3.25934e-09
-4.58234e-09
-1.64542e-11
-3.55642e-09
9.25641e-09
-8.47945e-09
-7.738e-10
-6.50923e-09
1.16858e-08
-2.78034e-09
7.26862e-09
-4.50473e-09
-4.11779e-09
7.27723e-09
-5.9398e-09
-4.10948e-09
8.9922e-09
3.88131e-10
-8.806e-09
8.54773e-09
-1.22774e-08
-9.35118e-09
-2.54618e-09
5.38812e-09
-9.2829e-09
-1.15932e-09
4.31845e-09
3.57171e-09
1.17244e-08
-4.14193e-09
-4.03299e-09
-3.5495e-09
3.41708e-09
9.54209e-09
-1.23475e-09
-8.45369e-09
-9.80069e-09
1.41125e-08
3.55888e-09
-5.08552e-09
-2.50635e-09
-5.52334e-09
2.47287e-09
6.46756e-09
-2.4217e-09
4.57237e-10
-6.11252e-09
2.15428e-09
-4.3612e-09
8.31946e-09
1.61148e-09
-9.58169e-09
1.8577e-09
6.0144e-09
-7.48235e-09
3.07944e-09
-1.17369e-09
9.34236e-09
-5.77378e-09
7.69006e-09
-7.00181e-09
-4.4526e-10
4.50304e-09
-1.25115e-08
4.4121e-09
-1.06311e-08
5.58923e-09
-9.72897e-09
-5.44194e-09
4.2714e-09
-3.04339e-09
-5.57407e-09
6.87325e-09
4.72548e-09
5.42879e-10
2.28993e-10
-5.45491e-09
8.44398e-09
-3.80291e-09
1.65717e-09
-6.95551e-10
8.08556e-10
5.29203e-09
-5.86593e-09
1.89714e-08
-1.83975e-08
9.0261e-09
-4.43483e-09
7.00746e-10
1.2212e-08
-1.97213e-08
1.64337e-09
6.50522e-09
4.85619e-09
7.61002e-09
9.59152e-09
-2.01059e-08
1.15128e-08
1.34493e-08
6.89175e-09
-1.47856e-08
9.10179e-10
-1.90053e-09
-5.49894e-09
6.48926e-09
6.91684e-09
-2.78756e-10
-5.72792e-09
-1.09018e-08
4.91402e-09
1.75005e-08
-2.07748e-09
-1.93252e-09
1.25517e-09
9.60823e-09
-6.54498e-09
9.74089e-09
-1.94776e-09
4.35987e-09
1.22135e-08
-1.43474e-08
-3.46351e-09
5.59739e-09
-1.00752e-08
3.90236e-09
1.83864e-08
4.86547e-09
-1.21331e-08
2.34362e-09
4.92403e-09
-8.05217e-09
-3.16158e-10
-1.70686e-09
-6.50065e-09
-1.5899e-08
2.7606e-09
-4.95002e-09
-1.27411e-09
-5.31643e-09
1.50509e-08
-5.83208e-09
-7.203e-09
6.75203e-09
-2.86046e-09
-4.32918e-09
9.95023e-09
-4.78066e-09
-1.02129e-08
-1.30275e-10
-1.13204e-08
6.41681e-09
-1.13278e-08
-1.10235e-09
1.15578e-08
4.8548e-09
-2.82532e-08
1.18405e-08
-2.0254e-09
1.54263e-08
-1.8432e-09
1.6983e-08
1.92332e-08
-3.13614e-08
2.17037e-08
-6.74617e-09
1.66663e-08
1.81122e-08
-1.30748e-08
1.60123e-08
-1.26551e-08
1.3309e-08
8.96849e-09
1.71405e-09
7.42962e-09
5.14547e-09
1.98354e-08
1.57574e-08
4.73882e-09
-5.06996e-09
1.62972e-09
4.94836e-09
7.5825e-09
9.88896e-09
2.27831e-08
7.60022e-10
-1.88043e-08
1.19037e-08
5.70193e-10
1.03091e-08
-1.51471e-08
1.76215e-08
9.42927e-09
6.51596e-09
-2.00334e-08
-3.14631e-09
6.29857e-10
2.81058e-09
-2.94122e-10
-1.98792e-09
2.2512e-09
-3.40959e-09
1.48121e-09
2.97741e-09
-2.20822e-09
-2.25041e-09
2.16811e-09
-6.74256e-10
-1.26516e-11
-3.05847e-09
2.2571e-09
2.96947e-09
2.24831e-10
-3.05914e-10
3.30699e-09
5.67318e-10
-5.86224e-09
3.20661e-09
7.30244e-10
-1.53534e-09
2.37625e-09
1.96967e-09
4.16019e-11
2.96873e-09
-4.60964e-09
3.43768e-09
-3.10294e-09
-1.09934e-10
-6.44272e-10
6.33905e-09
-5.50617e-10
4.16389e-10
3.02421e-09
-3.68215e-10
4.75619e-09
-1.10833e-08
-1.99895e-08
3.31293e-09
2.77599e-08
-2.76514e-08
-1.31022e-08
2.96702e-08
8.48059e-09
-1.67829e-08
-1.16872e-08
-1.05853e-08
-8.58551e-09
2.01505e-09
6.88612e-09
1.58066e-08
-2.47078e-08
5.21504e-09
1.43895e-08
-1.75895e-08
-3.10171e-09
1.9767e-08
-1.14502e-08
-1.77303e-08
2.15147e-08
-2.38836e-08
-2.63609e-09
1.34175e-08
-1.72801e-08
-1.71888e-08
7.88533e-09
-1.02787e-08
-7.79644e-09
2.14529e-08
-5.77121e-09
-7.04204e-10
3.1911e-09
2.33034e-08
2.36566e-08
-3.11533e-08
3.1713e-08
-1.6206e-08
-7.88663e-09
-1.57104e-08
2.69099e-08
4.50627e-09
-1.43752e-08
7.23279e-09
-1.57339e-08
1.23535e-08
-5.72451e-09
1.92961e-08
1.81413e-08
9.37297e-09
8.55907e-09
2.50387e-08
1.16154e-08
-5.90921e-09
-2.00814e-08
5.25453e-09
-2.20194e-08
8.94541e-09
5.24324e-09
7.8307e-09
1.07625e-09
-1.58031e-08
-7.2925e-09
1.26451e-08
-2.08885e-08
1.66911e-08
-5.4373e-09
-1.01775e-08
1.04715e-08
1.14628e-08
1.554e-08
3.22268e-09
-2.38333e-08
5.07053e-09
4.25098e-09
1.61046e-08
-4.81561e-09
-1.20128e-08
-3.61636e-11
1.62999e-08
7.03183e-09
-1.5822e-08
-6.41996e-09
-2.31543e-09
1.48806e-08
-6.14517e-09
6.91638e-09
-2.86488e-09
1.62849e-08
2.73309e-09
-2.91338e-09
-5.38949e-09
6.98401e-09
-9.61538e-09
1.9945e-08
-6.36868e-10
6.54713e-09
1.26774e-08
-1.85877e-08
6.03264e-09
5.18656e-09
4.85868e-09
6.27555e-09
-1.63208e-08
1.01376e-08
2.58822e-09
-7.53922e-09
-2.12877e-08
1.09583e-08
5.73631e-09
4.59314e-09
6.16946e-09
-1.73196e-08
-8.6216e-09
1.8572e-08
-7.36224e-09
1.30499e-08
-1.68128e-08
-1.9214e-08
1.14016e-08
1.87706e-08
-5.03977e-09
-8.00473e-09
1.33304e-08
-2.33772e-08
1.63224e-08
1.17516e-08
-3.46093e-09
5.86834e-10
1.34535e-09
1.66399e-08
1.23459e-08
1.29079e-09
1.34304e-08
1.45213e-08
-1.62001e-08
4.29559e-10
2.44025e-08
1.54046e-08
-3.95946e-10
-2.6627e-09
2.79301e-08
-1.2096e-08
1.24772e-09
-5.7341e-09
1.17639e-08
-7.27754e-09
1.173e-08
-4.4941e-09
-5.98815e-09
6.86332e-09
9.06386e-09
-4.19723e-09
1.84934e-10
2.97034e-09
3.70803e-09
-8.22666e-09
5.43429e-09
-4.89603e-09
7.6884e-09
-1.06614e-08
3.15182e-09
-7.17128e-10
-2.47854e-09
5.97165e-09
-7.98721e-09
3.18806e-09
-1.14007e-08
5.73143e-09
6.2174e-09
-1.18894e-08
7.18837e-09
7.67134e-09
-2.58979e-10
-2.56654e-09
7.6542e-09
-1.51275e-08
-6.61248e-09
1.36013e-09
1.06866e-08
2.27077e-09
-1.7694e-08
2.56578e-09
1.02322e-08
6.5061e-09
-1.65459e-08
-1.13152e-08
5.78438e-09
1.27192e-08
-9.76699e-09
-1.80718e-09
-1.5841e-08
5.74803e-09
1.26588e-08
-3.17092e-09
-6.16401e-09
-6.96626e-09
1.28925e-08
5.19422e-09
1.28353e-09
-6.55078e-09
7.30067e-11
7.84005e-09
-5.20012e-09
-2.45813e-09
-1.81815e-10
-8.50357e-10
7.20204e-09
1.48835e-09
3.88868e-09
4.55189e-10
-6.31177e-10
3.02681e-09
-2.03972e-09
3.32793e-10
5.71969e-09
2.29772e-09
-8.6486e-09
-6.99179e-10
-1.86357e-09
6.99898e-09
-4.43626e-09
2.35417e-09
9.80202e-09
-1.15325e-08
-6.23756e-10
7.64741e-09
2.07029e-09
-7.36356e-09
7.52907e-09
-2.67924e-09
1.2197e-08
-1.90145e-08
-1.37406e-09
8.19153e-09
-2.20592e-08
1.03631e-08
2.3893e-08
5.51058e-09
-2.00361e-08
-4.48897e-09
-1.80179e-08
1.46929e-09
-5.81558e-09
-1.2183e-08
2.83618e-08
-1.37069e-08
-1.29979e-08
2.08893e-08
-2.35485e-08
8.46747e-09
-6.15982e-09
-2.16572e-08
4.26853e-09
1.67185e-08
-1.8777e-08
-4.10135e-09
2.96323e-08
5.86333e-10
-1.35002e-08
-1.65263e-09
1.8287e-08
-1.47929e-08
4.67673e-09
-7.90177e-09
1.66032e-08
-6.87735e-09
-2.85029e-08
3.73422e-09
-8.78822e-09
-1.17349e-08
-4.56695e-09
-8.46726e-09
-1.80605e-08
-1.00628e-08
-1.83031e-08
1.61829e-08
2.62223e-08
-1.47518e-08
-1.08842e-08
1.45068e-08
-9.88599e-09
-3.74038e-09
1.26092e-08
-2.79539e-08
-1.20286e-08
-2.28238e-09
1.07996e-08
7.47984e-09
5.3892e-09
1.49263e-09
5.05961e-09
3.79208e-09
3.95847e-09
1.19064e-08
3.95278e-09
-6.66819e-09
-7.84588e-09
1.29123e-08
1.60177e-09
6.84991e-09
-1.88059e-09
9.99448e-10
6.27035e-09
-9.20624e-10
7.75786e-09
2.69844e-09
3.90502e-09
-1.43613e-08
5.72595e-09
-2.37928e-09
4.41117e-09
-1.18116e-08
2.18874e-10
-4.99847e-10
1.20926e-08
-5.5542e-09
-4.50293e-09
-1.7545e-09
-1.03544e-08
1.07656e-08
-1.01115e-08
-5.79709e-09
6.732e-09
6.19077e-09
-1.02243e-08
2.34645e-09
8.39182e-09
-1.38471e-08
9.36027e-09
-1.30732e-08
-2.21727e-10
1.27951e-08
-1.15918e-08
-5.98437e-09
-9.66633e-09
4.26532e-09
-1.43189e-08
7.11738e-09
2.03948e-08
-2.00741e-08
-4.86281e-10
-3.43006e-09
-8.97157e-10
4.81352e-09
-6.2241e-09
-2.84957e-09
8.58738e-09
-2.46251e-09
-8.01563e-09
4.25404e-09
-6.46498e-09
5.72395e-10
1.12528e-09
2.18874e-09
4.22709e-09
-7.54108e-09
-7.6635e-09
5.93922e-09
-5.76216e-09
7.05374e-09
-7.74744e-09
-2.96578e-09
2.69759e-09
4.85629e-09
-9.03251e-09
-3.57122e-09
-2.50061e-09
8.91923e-10
7.0437e-09
-7.46691e-09
1.9677e-09
-1.54449e-09
-5.98515e-09
7.26669e-09
-1.01646e-08
-4.64672e-10
-9.36644e-10
2.65415e-09
-1.075e-08
7.35095e-09
1.49439e-09
-9.78198e-09
4.222e-09
6.28339e-10
2.26888e-09
-8.22627e-09
-1.50951e-09
5.05725e-10
-7.47471e-11
-7.43571e-09
2.40641e-09
-9.13829e-09
-7.00427e-09
9.33593e-09
-7.02347e-10
3.60909e-10
-4.14911e-09
4.49053e-09
-5.49925e-09
1.22965e-09
9.09059e-10
3.36054e-09
-1.64757e-09
-4.84286e-10
-3.36739e-09
4.15289e-09
-4.42374e-09
-1.37672e-09
3.61928e-09
1.76326e-09
-1.45995e-09
5.02144e-09
-4.0709e-09
5.09408e-10
-3.84134e-09
3.29045e-09
-2.88722e-09
-1.4384e-09
-5.64137e-09
8.47574e-09
1.30026e-08
9.67987e-09
8.70851e-09
-1.5793e-09
-7.27002e-09
1.7325e-08
-9.08188e-09
1.82712e-08
-8.48856e-09
1.08984e-08
-5.47958e-09
6.87343e-09
4.45928e-09
-1.42183e-09
-5.09018e-09
-5.94795e-09
-8.53681e-09
-8.78834e-09
-4.18173e-09
-1.31644e-08
-1.22653e-08
3.65407e-09
-4.41388e-09
1.19149e-08
3.90086e-09
-1.14019e-08
-2.29914e-08
1.06723e-09
1.75103e-08
-1.12363e-08
8.78871e-09
1.43625e-08
-1.37054e-08
2.41633e-08
3.56288e-09
-1.40209e-08
-7.61915e-09
-8.33705e-09
2.92652e-08
-1.69791e-08
-1.95986e-09
-4.05251e-09
-1.15539e-09
-4.00168e-09
-9.19465e-09
1.43517e-08
-6.25602e-09
1.82658e-08
-1.31652e-08
-1.27705e-08
-1.18278e-08
2.42778e-09
-2.17586e-08
-1.43444e-08
-2.46262e-09
-1.95572e-08
8.31443e-09
-1.76672e-08
3.96831e-09
-1.6463e-08
2.53236e-09
-3.73663e-09
1.43571e-08
-1.25542e-08
2.22948e-09
-2.38724e-08
1.34868e-08
1.52505e-08
-4.86484e-09
-1.80182e-09
1.39913e-08
-3.60619e-08
9.75153e-09
-2.8552e-08
1.69987e-08
2.10775e-08
9.57568e-09
-1.71664e-08
8.11366e-09
9.72552e-10
-1.3425e-08
4.3387e-09
-6.61214e-09
-7.38735e-09
2.21132e-08
-1.12328e-08
-1.59033e-08
2.05239e-08
-1.81596e-08
7.89935e-09
2.50276e-08
6.58517e-09
9.20696e-09
8.76774e-09
-8.22317e-09
1.40777e-08
-2.42281e-08
1.36218e-09
-2.0564e-08
2.72543e-08
-1.00691e-08
1.09142e-09
2.46078e-08
-9.64927e-09
2.21639e-08
1.99134e-09
-1.49483e-08
9.01475e-09
-1.16334e-08
-1.18682e-08
7.59832e-09
-7.62912e-09
2.42595e-08
-8.90655e-09
-8.76006e-09
1.28039e-08
3.63117e-09
3.53699e-10
-3.98562e-09
3.49936e-09
1.32561e-10
-5.08628e-10
-6.76993e-09
7.63225e-09
5.80896e-09
-4.41445e-10
-1.68666e-10
-5.19887e-09
2.85213e-09
7.70437e-10
2.1864e-09
3.48658e-09
-8.35091e-10
-3.09294e-09
2.91754e-09
-3.50882e-09
2.51342e-09
-1.92215e-09
-6.50905e-10
3.66532e-09
-9.68784e-11
-3.00602e-09
1.72207e-09
4.13608e-09
-1.70335e-10
5.02682e-09
-5.3715e-09
-1.63954e-10
-2.36919e-09
-4.51793e-09
1.17179e-10
3.11214e-09
-3.96642e-09
-1.51492e-09
-3.07382e-09
2.20033e-09
4.60911e-09
-3.27893e-10
-4.4499e-09
-4.71047e-10
-3.87287e-09
2.07574e-09
2.5722e-10
1.8041e-10
2.2455e-09
3.49556e-09
4.81853e-09
-4.72736e-09
-2.96511e-09
1.48493e-10
-2.97131e-09
-3.96022e-09
-3.77026e-09
1.54068e-08
-1.61564e-08
6.87305e-09
-6.1235e-09
-9.41091e-09
2.6809e-08
1.85623e-08
2.72938e-09
-9.99744e-09
-1.12942e-08
1.05825e-08
1.29973e-08
-5.01757e-09
-1.86899e-08
1.98614e-08
-3.14233e-09
-1.71765e-08
1.62896e-09
-1.15159e-08
-1.19306e-08
2.6176e-08
1.00378e-09
-6.88141e-09
-2.26744e-08
-1.83714e-08
-9.27271e-10
-5.45248e-09
-1.81533e-08
2.46095e-08
-1.18653e-08
-1.53086e-08
-2.26215e-09
-1.61352e-08
-6.75072e-09
-1.70732e-08
-2.08782e-08
-7.83023e-10
1.19053e-08
4.71127e-09
-1.58337e-08
1.24849e-08
3.51512e-09
-1.67831e-08
-6.7914e-09
3.05067e-08
-1.18099e-08
1.79259e-08
-1.22324e-08
1.50734e-08
2.98104e-10
5.48541e-09
-2.08569e-08
-2.44899e-09
1.03441e-09
1.64879e-08
1.89375e-08
-2.07374e-08
-5.56238e-09
-6.74586e-09
1.99314e-08
5.75203e-09
-1.93992e-08
1.85817e-08
1.87433e-08
4.36163e-09
2.15209e-08
-2.26791e-08
-2.75822e-09
-2.2434e-09
-1.56216e-08
2.06232e-08
-5.40509e-09
-1.84387e-08
2.10856e-08
1.5173e-08
-2.12432e-08
6.36838e-09
-8.66981e-10
1.70744e-08
-1.89711e-08
-2.8272e-09
2.09313e-08
-1.37303e-08
-2.92605e-09
-2.31473e-09
2.82957e-09
1.84471e-08
-1.32623e-08
1.32647e-08
-8.41086e-09
-1.84112e-08
4.92227e-09
-2.09484e-08
-1.41339e-08
-2.03012e-08
-3.44038e-09
3.46781e-09
1.07594e-08
-1.07869e-08
1.16412e-08
9.35522e-10
-1.60172e-08
-1.80709e-08
-2.76081e-10
5.41754e-09
1.29294e-08
1.68245e-09
-1.62855e-08
-5.90352e-09
1.24966e-08
4.1663e-09
8.47855e-09
-2.74083e-09
2.02112e-08
-2.91835e-09
-1.56105e-08
1.41221e-08
5.8131e-09
1.44306e-08
3.48352e-09
1.1771e-08
-1.37538e-08
-1.7869e-09
-2.00784e-10
1.04662e-08
1.20023e-08
-1.60273e-08
1.57959e-08
1.08666e-08
-6.51222e-10
1.61645e-08
2.53804e-09
-7.83593e-09
-1.19343e-08
3.76693e-10
7.06109e-09
4.49649e-09
-3.15486e-10
-1.14892e-08
-1.29608e-10
-1.50988e-08
8.75911e-09
6.7164e-09
-1.40317e-09
-1.40112e-08
1.55151e-08
-1.6148e-09
-1.53035e-08
9.4545e-09
4.28843e-09
1.7722e-09
9.14219e-09
2.92607e-09
-5.00718e-09
7.74732e-09
4.58204e-09
-2.10375e-09
-1.02256e-08
1.04561e-08
5.90488e-09
-8.61365e-09
-1.01938e-08
-3.61819e-10
8.94078e-09
6.86597e-09
1.13476e-08
1.06472e-08
-2.23837e-09
-3.82683e-09
6.65156e-09
1.40372e-08
-1.00415e-08
3.42652e-09
1.91794e-09
5.11159e-09
8.65281e-10
9.21278e-09
3.50109e-09
7.55902e-09
1.12323e-08
-7.2596e-09
-1.57001e-09
1.80493e-09
7.02468e-09
-2.62366e-09
-5.46398e-09
8.28043e-10
-5.10205e-09
-8.43865e-09
8.0046e-09
5.5361e-09
-8.2336e-09
5.07886e-10
2.93635e-09
-4.90977e-09
-6.26019e-09
-1.82511e-09
-3.67717e-09
8.82028e-10
-4.30724e-09
5.88637e-09
-2.46117e-09
-6.07947e-09
7.90237e-09
-9.40885e-10
1.3168e-09
-1.17035e-08
-6.56942e-09
2.27259e-11
4.97668e-09
-7.67281e-09
-4.36058e-09
-5.5986e-12
9.81514e-09
-1.12658e-08
9.47099e-09
-5.40973e-09
1.40062e-08
9.08597e-09
-1.51898e-08
-2.32261e-09
2.07975e-09
1.42491e-08
6.78607e-09
1.15452e-08
-2.01712e-09
5.09206e-09
-5.46304e-09
2.3881e-09
-5.35054e-09
-6.04139e-10
3.93757e-09
-1.30658e-09
1.84956e-09
4.54908e-09
2.53342e-09
-1.79422e-09
-6.20224e-09
-4.51214e-10
-2.3659e-09
-2.28164e-09
3.37095e-09
-1.54053e-09
-1.28617e-09
2.13093e-09
-3.1264e-09
8.4572e-10
-2.54364e-09
1.32026e-09
3.77723e-10
-2.72692e-09
3.80935e-09
-2.36708e-10
2.53438e-09
-3.2824e-09
-5.58564e-10
1.95966e-09
-5.04006e-09
-2.58568e-09
3.41299e-09
-1.43836e-10
-3.10916e-10
-2.37391e-09
2.18137e-09
2.22692e-09
-3.54967e-09
-2.90822e-10
-8.38901e-09
2.26078e-09
2.42788e-09
3.70032e-09
1.20551e-08
-6.98932e-09
-1.34549e-08
6.0298e-09
8.28613e-09
5.288e-09
-4.36608e-09
1.50595e-09
-2.50187e-09
-4.59983e-09
1.23897e-08
-1.93045e-09
1.04349e-08
4.01623e-09
-1.25207e-08
7.31915e-09
2.98894e-09
-1.22385e-08
9.35307e-11
9.70597e-09
6.35359e-10
4.23346e-10
-7.2396e-09
1.07675e-08
8.27865e-09
-7.76093e-09
-4.88379e-09
-8.03748e-09
1.17163e-08
9.56216e-10
-5.72817e-09
1.20621e-08
-7.08964e-09
-9.38026e-10
3.4044e-09
3.08657e-09
-4.46712e-09
2.41103e-09
5.95649e-09
-3.90037e-09
-2.32515e-09
-2.02804e-09
-1.1391e-10
-4.39772e-09
2.70251e-09
-6.29928e-10
-3.63029e-09
-2.54944e-09
2.28409e-09
6.88815e-09
-5.15245e-09
-4.01975e-09
-2.37018e-09
2.56564e-10
-2.5034e-09
4.40137e-09
4.99022e-09
-4.65965e-09
3.64186e-09
-2.61245e-09
-6.32526e-10
-6.05728e-09
4.31965e-09
7.95271e-09
-1.37377e-08
7.89681e-10
1.98051e-08
4.59002e-10
-5.9206e-09
-1.43435e-08
1.5991e-08
6.25181e-09
-2.43769e-09
5.30006e-09
-6.02035e-09
-5.08543e-09
5.80571e-09
5.03957e-09
-1.62637e-10
4.23135e-10
-3.23106e-09
-8.04975e-09
1.17398e-08
7.06656e-09
-8.92186e-09
2.48382e-10
1.60691e-09
3.09473e-09
-9.11181e-09
-3.27457e-12
-1.14262e-08
8.60033e-09
2.79388e-09
6.34865e-09
-4.10296e-09
6.42904e-09
5.02128e-10
1.354e-10
-1.07684e-09
1.02077e-08
-2.70178e-09
4.93884e-09
-5.54453e-09
4.43042e-10
-9.19651e-09
-2.95642e-09
-5.02692e-09
6.74395e-09
4.14056e-10
1.77776e-09
1.8884e-09
-1.05112e-08
6.84503e-09
-1.5433e-08
1.17476e-08
5.46314e-09
8.83895e-09
-1.24836e-08
5.53306e-09
3.10202e-09
6.76312e-09
-1.0262e-09
1.24621e-08
1.15702e-09
-1.05171e-08
-2.02938e-08
4.45191e-09
1.69091e-08
-1.66193e-08
-5.63439e-09
8.15126e-09
9.09559e-10
3.20544e-09
1.37085e-08
2.45684e-10
1.16024e-08
9.36975e-10
9.56237e-10
3.20039e-09
-5.09358e-09
-2.14189e-09
7.24124e-10
2.35474e-09
-1.00985e-09
-9.71765e-10
-1.60268e-10
2.39174e-09
1.91682e-09
-3.90709e-09
-4.01469e-10
1.65932e-09
-2.77435e-10
-1.89431e-09
2.09608e-09
1.45756e-09
1.148e-09
-1.12549e-09
-5.51829e-09
1.44378e-09
5.03077e-09
1.23327e-09
-3.64347e-09
-3.1081e-09
-2.24329e-10
3.04455e-09
3.55417e-09
-1.17289e-09
4.77363e-09
-6.50785e-09
9.06415e-09
5.39755e-09
-7.95387e-09
3.9874e-09
-3.81997e-09
-4.30251e-09
4.13505e-09
-2.14762e-09
-3.72844e-10
8.10893e-09
-7.2087e-09
5.32295e-09
-6.22321e-09
1.06359e-09
8.33136e-09
-1.28605e-09
-4.3838e-09
5.55762e-09
-1.10241e-10
1.20942e-09
-8.24236e-09
2.53242e-09
4.50045e-09
-3.14498e-09
4.34668e-09
6.75685e-09
-7.95857e-09
1.95474e-09
3.31059e-09
-5.73966e-09
1.20709e-08
-7.04265e-09
-6.81635e-10
5.47569e-12
1.89932e-10
8.86874e-09
5.3475e-09
-5.85688e-09
3.85699e-09
-6.57116e-10
1.23293e-08
-2.49483e-10
5.95322e-09
5.41072e-11
2.32404e-09
1.29104e-09
1.07853e-08
-5.83092e-09
-8.14602e-11
6.10231e-09
-1.9051e-09
-6.88294e-11
-3.80523e-09
6.20054e-09
3.55792e-09
-1.52711e-10
7.72062e-09
4.66276e-09
-4.60652e-10
6.57972e-09
8.551e-09
3.2192e-09
-2.78302e-10
-5.14631e-09
2.20545e-09
7.70992e-10
-4.98134e-09
7.42956e-09
-1.85293e-09
-1.77744e-09
4.40138e-09
1.49602e-09
-3.62723e-09
-3.49737e-09
2.90049e-09
3.12848e-10
2.84034e-10
1.8218e-09
-2.32141e-09
-3.80416e-09
1.25277e-09
-9.62357e-10
3.51376e-09
-3.4306e-09
2.2082e-09
4.00189e-09
-4.61616e-09
-4.53203e-09
2.268e-09
-3.24745e-09
-2.5933e-09
-2.27805e-09
3.09392e-09
-2.4872e-09
2.7944e-09
-5.42755e-10
-1.22638e-10
3.01754e-10
-1.69617e-09
-4.82695e-10
-9.91861e-11
-1.89425e-10
-3.1711e-10
7.78645e-09
-9.80837e-10
-6.48853e-09
7.70449e-09
-1.18637e-09
-6.83524e-09
-1.74431e-09
7.43447e-09
2.09628e-09
5.70577e-09
2.54406e-10
-6.00245e-09
6.01763e-09
-5.51889e-09
5.5037e-09
5.73051e-10
-6.88146e-09
3.05941e-10
3.10328e-10
8.97875e-10
4.80941e-09
-7.32937e-09
1.27233e-09
6.36736e-09
-5.97692e-09
6.08202e-09
3.01898e-10
-1.335e-10
-6.00399e-09
7.03536e-09
8.84948e-09
-7.71065e-09
-7.79711e-09
-1.72779e-09
8.54406e-09
1.01207e-08
1.61811e-09
-1.11178e-08
-6.21016e-10
1.4391e-08
3.00983e-09
-7.28013e-09
7.69543e-09
-9.44897e-09
-5.12792e-09
-3.75829e-10
2.55238e-09
-9.01724e-09
-8.76058e-09
6.84611e-09
-4.08951e-09
5.25462e-09
-5.68459e-09
8.08154e-09
-4.63532e-09
-8.92019e-09
7.07805e-09
-3.84247e-09
-4.39637e-10
2.16483e-10
-8.69704e-09
-3.97318e-11
-3.73265e-10
8.49453e-09
-2.73542e-10
7.31184e-09
-6.13779e-09
5.39631e-09
-5.77471e-09
3.67176e-10
6.60926e-09
6.13423e-10
-7.66232e-09
-3.80077e-09
5.44124e-09
-1.79987e-10
-5.04478e-09
5.58408e-09
-1.10633e-09
-3.6833e-09
-6.35515e-09
1.73542e-09
1.00867e-08
8.50452e-09
1.74972e-09
2.18239e-09
1.04302e-08
2.99741e-10
4.14352e-10
9.3981e-09
2.74285e-10
7.2483e-10
8.19404e-09
8.38082e-09
-5.63165e-09
1.40376e-09
1.01767e-08
-1.33432e-09
1.05429e-08
-7.80485e-09
-6.77246e-09
7.54749e-09
-2.10933e-09
-7.75309e-10
2.38367e-09
3.76829e-09
1.38076e-08
-1.16367e-08
1.96416e-08
-5.03485e-09
-1.08384e-08
1.45709e-08
7.08418e-09
-2.01345e-09
-9.46852e-09
1.01622e-08
1.38772e-08
8.74163e-09
-9.54938e-09
1.07902e-09
3.26007e-09
8.90434e-09
-7.14683e-09
5.3267e-09
1.58913e-09
1.74774e-08
5.78826e-09
5.74274e-09
-4.47725e-09
9.57231e-09
1.02949e-09
-6.31286e-09
5.10541e-09
-6.40408e-09
7.61155e-09
2.56777e-09
6.91692e-10
6.14547e-09
-7.20906e-09
3.63138e-09
1.284e-08
1.32387e-09
2.70941e-10
2.45734e-09
6.62533e-10
-6.59111e-09
-2.13912e-09
1.10991e-09
7.62029e-09
-5.96715e-09
-3.42519e-10
-2.81433e-10
4.16218e-09
2.88905e-09
-4.48483e-09
-2.5664e-09
-2.7253e-09
4.72362e-09
2.16385e-09
-7.34516e-09
-4.16958e-10
5.62299e-09
-2.66839e-09
-1.78772e-09
-4.58787e-09
-4.04767e-09
2.56996e-09
-2.91395e-09
-4.14083e-09
1.15075e-11
-1.66857e-10
-2.46656e-10
3.40518e-09
-3.03395e-09
-1.2459e-10
-2.65946e-09
2.6294e-09
-2.16605e-10
2.52162e-09
-1.60946e-09
1.83446e-09
-2.74662e-09
-1.26341e-10
-4.28106e-09
-1.90257e-10
5.58123e-09
-3.86623e-09
-7.57352e-10
8.7763e-10
3.42903e-09
-1.70609e-09
1.88174e-09
-4.76352e-09
-6.22951e-09
-9.58029e-10
4.17293e-09
2.549e-09
4.465e-10
-1.64599e-09
-1.538e-09
-6.37507e-09
5.40672e-09
8.19512e-10
1.48847e-10
-4.13671e-10
3.13571e-10
-6.69582e-09
6.00523e-09
2.76911e-10
-1.12683e-09
4.08007e-09
-2.60699e-09
-3.46228e-10
3.01121e-09
-5.18983e-10
-8.25532e-10
-5.1976e-09
5.5666e-09
4.56523e-10
4.5867e-09
-5.6944e-09
2.82154e-10
7.11245e-10
-6.19294e-09
2.84089e-10
-3.21721e-09
-1.32741e-09
4.75846e-09
-2.13865e-10
-5.14596e-09
4.11443e-09
1.27497e-09
-2.43471e-10
-8.96215e-10
-4.00304e-09
-2.46736e-10
-3.83453e-09
-2.78938e-10
2.79757e-10
-4.27239e-09
-1.04345e-11
7.72178e-09
-1.04068e-09
-1.27369e-09
2.71252e-09
-9.20591e-09
5.96292e-09
5.30485e-10
7.97815e-09
-5.85836e-09
5.92719e-10
-1.56513e-09
-2.16476e-09
3.96364e-09
-2.33768e-10
-3.84026e-09
2.67593e-09
-4.00835e-10
1.12143e-09
-6.76394e-09
5.42881e-09
2.13705e-10
-5.94812e-09
2.3431e-10
-6.23728e-10
-6.60041e-09
4.60218e-10
1.54875e-10
-2.3026e-09
2.36312e-09
-2.15368e-10
2.73961e-09
-2.38618e-09
-1.98554e-10
-1.69264e-09
-1.87417e-09
3.8411e-09
-2.74285e-10
2.78085e-09
-3.90048e-09
-5.73e-10
-3.68006e-09
2.15976e-09
-3.53856e-10
5.23617e-09
-2.15174e-09
-3.03568e-10
2.86796e-09
3.94574e-09
-7.35853e-09
5.44853e-10
6.87461e-09
-4.74941e-09
7.42792e-10
6.71825e-09
-3.35718e-09
5.8469e-10
-2.22941e-09
6.26331e-09
-4.07303e-09
3.91086e-11
3.60233e-09
-5.92112e-09
8.9367e-11
-3.40016e-09
6.78388e-09
2.18598e-10
5.33226e-09
1.06066e-09
-1.2963e-10
3.2147e-09
3.19863e-09
-5.79198e-09
-6.21354e-10
-2.21213e-09
5.89552e-09
-4.68678e-10
-2.5229e-09
5.90438e-09
-1.82859e-10
-1.3898e-09
7.57686e-09
-6.94158e-09
7.54507e-10
-8.07528e-09
6.05678e-09
6.28658e-10
-3.18438e-09
-2.05839e-09
5.55362e-09
-3.10836e-10
3.31751e-09
-5.79667e-09
-7.05217e-10
-5.01747e-09
3.44302e-09
-4.83942e-10
2.11634e-09
1.93797e-09
-3.6956e-09
-3.58691e-10
-1.66293e-09
3.97224e-09