/*--------------------------------*- C++ -*----------------------------------*\
| =========                 |                                                 |
| \\      /  F ield         | OpenFOAM: The Open Source CFD Toolbox           |
|  \\    /   O peration     | Version:  v1612+                                |
|   \\  /    A nd           | Web:      www.OpenFOAM.com                      |
|    \\/     M anipulation  |                                                 |
\*---------------------------------------------------------------------------*/
FoamFile
{
    version     2.0;
    format      ascii;
    class       volVectorField;
    location    "166";
    object      U;
}
// * * * * * * * * * * * * * * * * * * * * * * * * * * * * * * * * * * * * * //

dimensions      [0 1 -1 0 0 0 0];

internalField   nonuniform List<vector> 
17199
(
(-0.423383 0.178068 -0.747367)
(-0.280662 0.284002 -0.376983)
(-0.215645 0.55011 -0.506635)
(-0.217555 0.575953 -0.514048)
(-0.245935 0.588925 -0.531929)
(-0.234835 0.584924 -0.527023)
(-0.196842 0.485405 -0.464421)
(-0.20608 0.459963 -0.437787)
(-0.213619 0.486364 -0.443246)
(-0.189933 0.412363 -0.400829)
(-0.211685 0.403585 -0.397421)
(-0.229517 0.510019 -0.466604)
(-0.247062 0.55671 -0.527305)
(-0.192903 0.464423 -0.453281)
(-0.195702 0.395786 -0.392694)
(-0.191456 0.40665 -0.40456)
(-0.243659 0.489042 -0.45914)
(-0.21383 0.473786 -0.461523)
(-0.231235 0.464757 -0.446067)
(-0.207258 0.198937 -0.260401)
(-0.194762 0.168545 -0.23046)
(-0.229934 0.211675 -0.282969)
(-0.223403 0.188122 -0.259776)
(-0.23198 0.257796 -0.321353)
(-0.219255 0.269954 -0.330599)
(-0.205718 0.229367 -0.282396)
(-0.225997 0.264365 -0.32718)
(-0.212252 0.259963 -0.31588)
(-0.190403 0.203775 -0.260192)
(-0.182665 0.169471 -0.225358)
(-0.21689 0.214485 -0.283749)
(-0.19372 0.226394 -0.282639)
(-0.148758 0.418742 -0.563105)
(-0.122899 0.35582 -0.531964)
(-0.120123 0.391369 -0.52281)
(-0.139354 0.439066 -0.543819)
(-0.127144 0.352062 -0.518616)
(-0.0937219 0.298291 -0.479169)
(-0.100826 0.34928 -0.493283)
(-0.10698 0.337159 -0.493775)
(-0.0893724 0.299029 -0.469198)
(-0.137036 0.373454 -0.522747)
(-0.130013 0.411443 -0.527973)
(-0.0987505 0.361274 -0.482632)
(-0.120294 0.425277 -0.520777)
(-0.0917099 0.332922 -0.464969)
(-0.081123 0.277754 -0.444914)
(-0.190977 0.385361 -0.742088)
(-0.195655 0.415507 -0.760838)
(-0.188773 0.390694 -0.742943)
(-0.219434 0.461689 -0.812978)
(-0.186604 0.421679 -0.750183)
(-0.2052 0.449512 -0.758292)
(-0.251216 0.568638 -0.810255)
(-0.262978 0.591012 -0.822932)
(-0.211412 0.514806 -0.784048)
(-0.190565 0.464568 -0.761315)
(-0.259475 0.578771 -0.80102)
(-0.250966 0.577262 -0.806054)
(-0.258336 0.632346 -0.830312)
(-0.254953 0.65555 -0.819716)
(-0.246307 0.577565 -0.798827)
(-0.430778 0.23193 -0.679832)
(-0.398201 0.285381 -0.660035)
(-0.388579 0.27925 -0.57721)
(-0.372556 0.294747 -0.568481)
(-0.421738 0.259999 -0.667871)
(-0.403703 0.3011 -0.668494)
(-0.429227 0.196716 -0.610133)
(-0.40355 0.262212 -0.565543)
(-0.379088 0.309823 -0.649625)
(-0.413787 0.267391 -0.662429)
(-0.402329 0.286736 -0.636558)
(-0.415735 0.259481 -0.630995)
(-0.433941 0.213316 -0.605759)
(-0.399866 0.253367 -0.563641)
(-0.437654 0.202841 -0.546055)
(-0.445335 0.226366 -0.678127)
(-0.428146 0.222981 -0.572621)
(-0.454891 0.172209 -0.596947)
(-0.439568 0.178786 -0.581838)
(-0.44009 0.178453 -0.605548)
(-0.52849 0.518763 -0.895472)
(-0.551241 0.517655 -0.893176)
(-0.529635 0.517646 -0.917854)
(-0.527558 0.512528 -0.897895)
(-0.569999 0.46669 -0.906564)
(-0.564347 0.47968 -0.91267)
(-0.556643 0.486349 -0.913005)
(-0.549077 0.506795 -0.883621)
(-0.55824 0.502326 -0.898961)
(-0.531653 0.51682 -0.915354)
(-0.560618 0.488321 -0.90364)
(-0.379699 0.166432 -0.736154)
(-0.383303 0.170135 -0.744154)
(-0.378742 0.334576 -0.723481)
(-0.384824 0.316356 -0.71687)
(-0.391074 0.280214 -0.725628)
(-0.381713 0.175297 -0.765595)
(-0.372729 0.198709 -0.777729)
(-0.368023 0.381558 -0.750923)
(-0.371986 0.369336 -0.741551)
(-0.381549 0.314383 -0.755979)
(-0.376081 0.27529 -0.771798)
(-0.372776 0.267025 -0.754556)
(-0.363364 0.218363 -0.754466)
(-0.372763 0.211508 -0.754331)
(-0.362805 0.339721 -0.787039)
(-0.362414 0.33963 -0.795625)
(-0.369231 0.3574 -0.749985)
(-0.36328 0.320894 -0.797693)
(-0.325907 0.315546 -0.506171)
(-0.31906 0.31347 -0.530772)
(-0.332031 0.342652 -0.573132)
(-0.3163 0.342261 -0.549166)
(-0.40498 0.250444 -0.526503)
(-0.405457 0.253856 -0.547688)
(-0.338508 0.306048 -0.533687)
(-0.320963 0.298564 -0.469834)
(-0.368833 0.281171 -0.470787)
(-0.369344 0.302672 -0.642563)
(-0.421428 0.248149 -0.524439)
(-0.372586 0.286433 -0.505828)
(-0.360099 0.301302 -0.557666)
(-0.415761 0.257545 -0.653763)
(-0.429332 0.231466 -0.574013)
(-0.415781 0.454962 -0.763682)
(-0.391577 0.397042 -0.730198)
(-0.426372 0.576082 -0.798352)
(-0.429439 0.596 -0.794842)
(-0.409057 0.442223 -0.722832)
(-0.404162 0.38695 -0.695837)
(-0.388867 0.528622 -0.778971)
(-0.386236 0.534551 -0.768629)
(-0.420501 0.389205 -0.741808)
(-0.43293 0.492411 -0.75702)
(-0.407345 0.617188 -0.771996)
(-0.423126 0.610464 -0.799849)
(-0.429732 0.462332 -0.732843)
(-0.439915 0.50414 -0.756099)
(-0.405312 0.426362 -0.722537)
(-0.406795 0.48861 -0.748386)
(-0.405911 0.456877 -0.727103)
(-0.423502 0.414043 -0.750426)
(-0.412936 0.375466 -0.732405)
(-0.397086 0.538845 -0.780918)
(-0.332952 0.387976 -0.627179)
(-0.353888 0.360288 -0.609604)
(-0.356126 0.307964 -0.523565)
(-0.367249 0.32103 -0.57955)
(-0.32876 0.414307 -0.643366)
(-0.351543 0.372961 -0.604855)
(-0.3238 0.408853 -0.624157)
(-0.355866 0.33609 -0.564255)
(-0.331726 0.329244 -0.503755)
(-0.325052 0.420647 -0.610571)
(-0.370949 0.349458 -0.59586)
(-0.343128 0.373991 -0.590922)
(-0.33564 0.343065 -0.509294)
(-0.288102 0.422815 -0.550911)
(-0.283256 0.414219 -0.513252)
(-0.311503 0.356595 -0.493118)
(-0.31123 0.414613 -0.537708)
(-0.281879 0.438693 -0.527043)
(-0.292174 0.410101 -0.516767)
(-0.309494 0.364272 -0.486488)
(-0.540162 0.276497 -0.83915)
(-0.508338 0.219836 -0.785589)
(-0.508339 0.252315 -0.812745)
(-0.488891 0.239137 -0.808228)
(-0.474735 0.188909 -0.760049)
(-0.458935 0.257352 -0.798674)
(-0.452042 0.239217 -0.796789)
(-0.537977 0.309001 -0.843109)
(-0.509403 0.37442 -0.85031)
(-0.484493 0.373692 -0.847162)
(-0.485551 0.341529 -0.843423)
(-0.481936 0.228672 -0.792845)
(-0.506565 0.391665 -0.843438)
(-0.475178 0.386533 -0.821383)
(-0.513415 0.288655 -0.824768)
(-0.528152 0.315934 -0.82905)
(-0.521313 0.402365 -0.856658)
(-0.526903 0.409597 -0.86083)
(-0.50639 0.392189 -0.851423)
(-0.504926 0.27035 -0.80552)
(-0.378878 0.311627 -0.622404)
(-0.410944 0.247174 -0.578097)
(-0.352558 0.311584 -0.53163)
(-0.344598 0.30037 -0.496665)
(-0.391004 0.276929 -0.602887)
(-0.422411 0.236959 -0.579316)
(-0.388632 0.247814 -0.518608)
(-0.389268 0.257498 -0.498126)
(-0.429885 0.205651 -0.54658)
(-0.391121 0.233147 -0.496821)
(-0.408193 0.219807 -0.492364)
(-0.414617 0.201536 -0.507694)
(-0.394305 0.277561 -0.920993)
(-0.405149 0.316478 -0.941782)
(-0.370991 0.262648 -0.899027)
(-0.406095 0.293531 -0.927715)
(-0.420107 0.342571 -0.938268)
(-0.382612 0.268866 -0.910695)
(-0.371874 0.242592 -0.883489)
(-0.3864 0.332873 -0.94039)
(-0.397145 0.33575 -0.931373)
(-0.388322 0.294751 -0.918793)
(-0.375081 0.283631 -0.914036)
(-0.416976 0.398423 -0.93355)
(-0.411987 0.35312 -0.926847)
(-0.407868 0.387626 -0.930181)
(-0.38701 0.338953 -0.941331)
(-0.153798 0.244505 -0.318253)
(-0.144882 0.216313 -0.297494)
(-0.149527 0.234868 -0.317161)
(-0.131425 0.200433 -0.282725)
(-0.180567 0.270174 -0.349225)
(-0.168616 0.271241 -0.358059)
(-0.181254 0.255094 -0.330168)
(-0.181093 0.260044 -0.328073)
(-0.163083 0.19858 -0.274282)
(-0.176113 0.220858 -0.294595)
(-0.149712 0.251101 -0.325715)
(-0.145095 0.230649 -0.316737)
(-0.161298 0.22662 -0.308715)
(-0.172112 0.210394 -0.275855)
(-0.148343 0.17497 -0.246485)
(-0.141013 0.210952 -0.296852)
(-0.173294 0.228869 -0.293765)
(-0.136583 0.1803 -0.259963)
(-0.17836 0.350557 -0.615361)
(-0.156094 0.305833 -0.588247)
(-0.184222 0.333459 -0.609348)
(-0.138987 0.294567 -0.535079)
(-0.12834 0.25668 -0.536908)
(-0.117733 0.283947 -0.523011)
(-0.132349 0.2802 -0.532998)
(-0.141912 0.301587 -0.558236)
(-0.129358 0.330238 -0.527061)
(-0.215497 0.45036 -0.653036)
(-0.211429 0.457431 -0.653525)
(-0.148511 0.390968 -0.549935)
(-0.177541 0.447181 -0.590599)
(-0.142968 0.337898 -0.549138)
(-0.16797 0.361709 -0.617045)
(-0.153706 0.387437 -0.588564)
(-0.205275 0.466829 -0.627629)
(-0.218209 0.484441 -0.644528)
(-0.165519 0.409462 -0.569865)
(-0.175777 0.441407 -0.597497)
(-0.325001 0.599472 -0.617913)
(-0.343611 0.649491 -0.671474)
(-0.343813 0.761835 -0.708929)
(-0.339105 0.552883 -0.61206)
(-0.343452 0.568659 -0.627157)
(-0.336566 0.521491 -0.603553)
(-0.371365 0.712784 -0.738156)
(-0.390032 0.71025 -0.734252)
(-0.398319 0.572856 -0.679305)
(-0.392232 0.606858 -0.701783)
(-0.345136 0.568426 -0.627746)
(-0.352594 0.695399 -0.686035)
(-0.346496 0.585075 -0.642662)
(-0.370748 0.727516 -0.731689)
(-0.371585 0.727753 -0.735755)
(-0.373096 0.561671 -0.644147)
(-0.349237 0.562099 -0.622044)
(-0.381451 0.68562 -0.712154)
(-0.377616 0.622774 -0.673787)
(-0.373762 0.580607 -0.661319)
(-0.371643 0.529209 -0.630979)
(-0.195697 0.530936 -0.601187)
(-0.14558 0.385198 -0.59897)
(-0.188074 0.526749 -0.583113)
(-0.236188 0.569775 -0.616145)
(-0.189945 0.478787 -0.595132)
(-0.206732 0.578038 -0.592511)
(-0.203299 0.585953 -0.564215)
(-0.143009 0.450392 -0.529234)
(-0.141807 0.416096 -0.54429)
(-0.188379 0.541592 -0.546875)
(-0.17893 0.51955 -0.532915)
(-0.159689 0.443497 -0.551889)
(-0.171145 0.459642 -0.565462)
(-0.133249 0.388617 -0.530535)
(-0.384386 0.675036 -0.750596)
(-0.385897 0.686534 -0.761112)
(-0.380342 0.489571 -0.704587)
(-0.372853 0.685019 -0.760879)
(-0.378324 0.711605 -0.75345)
(-0.385698 0.626324 -0.741006)
(-0.378847 0.567557 -0.743703)
(-0.376613 0.585243 -0.737476)
(-0.396059 0.538438 -0.720238)
(-0.366829 0.531915 -0.71673)
(-0.382734 0.686648 -0.758067)
(-0.373373 0.636433 -0.722778)
(-0.362135 0.657531 -0.746538)
(-0.332923 0.851064 -0.73814)
(-0.313332 0.815735 -0.748232)
(-0.295589 0.837064 -0.724995)
(-0.299443 0.792711 -0.707358)
(-0.308154 0.824353 -0.752329)
(-0.316702 0.828507 -0.757867)
(-0.312996 0.784945 -0.747426)
(-0.316683 0.814261 -0.780932)
(-0.327969 0.825177 -0.759158)
(-0.303089 0.827537 -0.743128)
(-0.332477 0.811491 -0.779983)
(-0.332333 0.80881 -0.73512)
(-0.332822 0.814847 -0.736293)
(-0.333332 0.812865 -0.747524)
(-0.323043 0.813653 -0.715876)
(-0.302119 0.192772 -0.314159)
(-0.287785 0.184103 -0.302403)
(-0.256429 0.187821 -0.281428)
(-0.256917 0.157009 -0.257057)
(-0.258107 0.183966 -0.279684)
(-0.251498 0.202143 -0.290459)
(-0.290116 0.221118 -0.322889)
(-0.297005 0.223419 -0.325195)
(-0.292728 0.169483 -0.294959)
(-0.27034 0.155189 -0.273047)
(-0.269609 0.213193 -0.310199)
(-0.270135 0.239796 -0.327554)
(-0.267148 0.211897 -0.312516)
(-0.277507 0.230302 -0.32277)
(-0.289976 0.24095 -0.345539)
(-0.292395 0.208856 -0.322237)
(-0.296168 0.834769 -0.68003)
(-0.311968 0.827305 -0.700397)
(-0.291378 0.841861 -0.675391)
(-0.304298 0.816502 -0.681843)
(-0.306088 0.911083 -0.706897)
(-0.290612 0.865188 -0.677847)
(-0.296326 0.88285 -0.691022)
(-0.307044 0.926663 -0.73339)
(-0.323073 0.874841 -0.747195)
(-0.316344 0.860076 -0.706251)
(-0.315473 0.902904 -0.717609)
(-0.285836 0.843629 -0.680811)
(-0.321976 0.87726 -0.707205)
(-0.30067 0.915809 -0.720854)
(-0.287082 0.87937 -0.697365)
(-0.316866 0.866253 -0.744421)
(-0.32822 0.902407 -0.768855)
(-0.332831 0.886844 -0.764286)
(-0.300065 0.887688 -0.744867)
(-0.29462 0.888468 -0.747733)
(-0.296462 0.85363 -0.701984)
(-0.324165 0.895955 -0.739868)
(-0.317221 0.889046 -0.727345)
(-0.315279 0.80572 -0.683508)
(-0.298139 0.81189 -0.684678)
(-0.308467 0.847528 -0.717266)
(-0.301725 0.717323 -0.694646)
(-0.305231 0.757441 -0.694535)
(-0.326313 0.841097 -0.708182)
(-0.358989 0.818029 -0.71302)
(-0.33623 0.780325 -0.709745)
(-0.328949 0.755087 -0.705932)
(-0.335177 0.73009 -0.726813)
(-0.327238 0.734481 -0.712948)
(-0.338784 0.833924 -0.716217)
(-0.321191 0.730935 -0.697363)
(-0.34583 0.827151 -0.734446)
(-0.364116 0.740385 -0.732063)
(-0.357426 0.818164 -0.73655)
(-0.369072 0.638777 -0.759021)
(-0.357438 0.606671 -0.76902)
(-0.401211 0.614903 -0.822941)
(-0.385697 0.633649 -0.818474)
(-0.345636 0.597406 -0.742787)
(-0.332255 0.594241 -0.700635)
(-0.413362 0.619849 -0.842594)
(-0.417121 0.628284 -0.840202)
(-0.385985 0.617633 -0.749804)
(-0.396247 0.594234 -0.776433)
(-0.342973 0.581888 -0.726976)
(-0.352798 0.581311 -0.71455)
(-0.40952 0.589827 -0.766883)
(-0.407471 0.590164 -0.803549)
(-0.357935 0.556072 -0.709504)
(-0.37639 0.560554 -0.740711)
(-0.232559 0.472671 -0.577823)
(-0.211462 0.498343 -0.626205)
(-0.20653 0.444789 -0.594565)
(-0.215262 0.455863 -0.636213)
(-0.25337 0.604799 -0.620361)
(-0.244205 0.550078 -0.602277)
(-0.231128 0.615147 -0.634301)
(-0.252449 0.60663 -0.621759)
(-0.227422 0.474892 -0.623535)
(-0.211135 0.43088 -0.604076)
(-0.210581 0.467203 -0.625483)
(-0.239373 0.58744 -0.6064)
(-0.245304 0.541248 -0.621268)
(-0.238997 0.470064 -0.610841)
(-0.256992 0.720495 -0.650997)
(-0.244813 0.705124 -0.612735)
(-0.222785 0.559831 -0.657202)
(-0.235305 0.653705 -0.694717)
(-0.2445 0.709947 -0.647593)
(-0.242157 0.700364 -0.644633)
(-0.225578 0.625901 -0.646306)
(-0.236853 0.593813 -0.649578)
(-0.167994 0.394978 -0.705997)
(-0.193005 0.434669 -0.724068)
(-0.191127 0.402337 -0.735875)
(-0.175503 0.378543 -0.725502)
(-0.197082 0.391325 -0.747347)
(-0.170891 0.351383 -0.711729)
(-0.222941 0.528976 -0.77918)
(-0.209097 0.523217 -0.771613)
(-0.270626 0.656686 -0.79376)
(-0.244457 0.593475 -0.781804)
(-0.242515 0.592538 -0.791457)
(-0.23642 0.607926 -0.794471)
(-0.319953 0.676749 -0.71993)
(-0.285928 0.628029 -0.644443)
(-0.290504 0.655486 -0.646007)
(-0.281323 0.617485 -0.630801)
(-0.308894 0.657667 -0.717359)
(-0.326153 0.710422 -0.769871)
(-0.325569 0.728509 -0.742317)
(-0.325149 0.73702 -0.749107)
(-0.331427 0.722299 -0.729721)
(-0.342839 0.737122 -0.796313)
(-0.323089 0.697968 -0.795104)
(-0.284428 0.632437 -0.626727)
(-0.319435 0.745065 -0.744331)
(-0.325349 0.747714 -0.744763)
(-0.307275 0.675228 -0.687606)
(-0.276727 0.651626 -0.63403)
(-0.301511 0.614701 -0.69295)
(-0.301932 0.643295 -0.739416)
(-0.304721 0.653999 -0.747472)
(-0.293962 0.617386 -0.652509)
(-0.29202 0.684745 -0.69101)
(-0.290551 0.664468 -0.689868)
(-0.272336 0.875588 -0.68253)
(-0.276141 0.846907 -0.673081)
(-0.303182 0.915619 -0.693628)
(-0.288269 0.89557 -0.696313)
(-0.303469 0.868453 -0.691009)
(-0.315786 0.892037 -0.69948)
(-0.291895 0.833856 -0.672848)
(-0.293984 0.854684 -0.67262)
(-0.185134 0.515755 -0.481342)
(-0.177592 0.466328 -0.451828)
(-0.186981 0.485344 -0.513386)
(-0.186315 0.481709 -0.511944)
(-0.179936 0.46442 -0.469703)
(-0.17511 0.464001 -0.468637)
(-0.174684 0.510095 -0.489293)
(-0.185138 0.502457 -0.486607)
(-0.199699 0.549866 -0.484389)
(-0.189473 0.518643 -0.548256)
(-0.199593 0.539345 -0.559026)
(-0.19494 0.534977 -0.526535)
(-0.225675 0.612057 -0.539675)
(-0.23273 0.602282 -0.568979)
(-0.32709 0.567308 -0.79433)
(-0.334887 0.591559 -0.81474)
(-0.311759 0.589609 -0.80144)
(-0.308435 0.548358 -0.775685)
(-0.377967 0.653196 -0.860499)
(-0.359767 0.65128 -0.870511)
(-0.360062 0.61028 -0.813645)
(-0.308433 0.59965 -0.804975)
(-0.289177 0.560807 -0.764276)
(-0.300988 0.570761 -0.775381)
(-0.367353 0.631498 -0.806107)
(-0.354186 0.595235 -0.776672)
(-0.33251 0.661211 -0.846903)
(-0.3128 0.625925 -0.793671)
(-0.325684 0.604029 -0.775487)
(-0.334208 0.590323 -0.774833)
(-0.343581 0.593159 -0.763665)
(-0.34178 0.55813 -0.759235)
(-0.340639 0.657564 -0.834267)
(-0.344776 0.631752 -0.795066)
(-0.360062 0.669668 -0.832164)
(-0.198296 0.452466 -0.403887)
(-0.169478 0.330353 -0.323589)
(-0.164505 0.327468 -0.318861)
(-0.167162 0.389462 -0.354618)
(-0.172237 0.380628 -0.349548)
(-0.197333 0.39057 -0.362452)
(-0.176253 0.318338 -0.314643)
(-0.181228 0.315431 -0.312932)
(-0.316675 0.853845 -0.683447)
(-0.298836 0.910552 -0.685852)
(-0.305587 0.853223 -0.671338)
(-0.302535 0.788269 -0.651429)
(-0.288731 0.85679 -0.669681)
(-0.289799 0.837227 -0.657246)
(-0.290354 0.858303 -0.652919)
(-0.438675 0.367178 -0.946884)
(-0.410046 0.403163 -0.860731)
(-0.416634 0.417848 -0.872765)
(-0.435111 0.424238 -0.964932)
(-0.287339 0.664839 -0.778487)
(-0.286228 0.681282 -0.766737)
(-0.316066 0.727592 -0.826864)
(-0.305253 0.772482 -0.802092)
(-0.297272 0.781841 -0.746787)
(-0.292636 0.706904 -0.772595)
(-0.294597 0.754187 -0.780053)
(-0.304171 0.786117 -0.78682)
(-0.289786 0.7254 -0.745296)
(-0.314483 0.83335 -0.790931)
(-0.284174 0.746176 -0.769112)
(-0.309506 0.780179 -0.809214)
(-0.316261 0.765187 -0.83282)
(-0.298779 0.754299 -0.80926)
(-0.303134 0.805479 -0.818871)
(-0.310862 0.795795 -0.782734)
(-0.295063 0.744431 -0.679105)
(-0.299471 0.750739 -0.678402)
(-0.30961 0.744711 -0.674868)
(-0.284917 0.69541 -0.645289)
(-0.305507 0.704374 -0.675756)
(-0.323737 0.691031 -0.703693)
(-0.335455 0.688986 -0.707248)
(-0.342805 0.693738 -0.69228)
(-0.333068 0.782974 -0.709457)
(-0.341439 0.70097 -0.716818)
(-0.313239 0.755784 -0.722843)
(-0.329945 0.755684 -0.737278)
(-0.320189 0.764893 -0.722463)
(-0.333503 0.789268 -0.744336)
(-0.332434 0.717757 -0.704947)
(-0.300634 0.701173 -0.677635)
(-0.342038 0.70703 -0.730648)
(-0.321033 0.672256 -0.685651)
(-0.338874 0.743068 -0.727634)
(-0.354237 0.768122 -0.748816)
(-0.3604 0.74253 -0.748561)
(-0.239341 0.23764 -0.332112)
(-0.225497 0.255373 -0.357395)
(-0.189504 0.208093 -0.294934)
(-0.188825 0.207749 -0.297881)
(-0.201276 0.188384 -0.265719)
(-0.217948 0.183292 -0.270391)
(-0.203 0.165884 -0.251827)
(-0.194507 0.187143 -0.272303)
(-0.196729 0.168358 -0.248814)
(-0.210265 0.244894 -0.348472)
(-0.226145 0.275107 -0.376825)
(-0.254655 0.25017 -0.339345)
(-0.249011 0.233034 -0.323188)
(-0.204286 0.253322 -0.341487)
(-0.223625 0.201205 -0.284547)
(-0.232577 0.192037 -0.275444)
(-0.223059 0.178436 -0.262676)
(-0.201117 0.271159 -0.375025)
(-0.248305 0.216264 -0.302045)
(-0.247688 0.235536 -0.326749)
(-0.220865 0.221535 -0.311593)
(-0.286823 0.628029 -0.654213)
(-0.304034 0.645701 -0.682449)
(-0.321543 0.650329 -0.728241)
(-0.333405 0.676606 -0.729975)
(-0.319922 0.657589 -0.719859)
(-0.308264 0.626586 -0.68957)
(-0.334261 0.726723 -0.72215)
(-0.290239 0.717451 -0.660397)
(-0.27713 0.620645 -0.664542)
(-0.271395 0.6672 -0.627698)
(-0.305458 0.666638 -0.707282)
(-0.312573 0.734563 -0.676783)
(-0.285969 0.64393 -0.660868)
(-0.291661 0.661279 -0.675668)
(-0.321628 0.594571 -0.729274)
(-0.298144 0.541621 -0.656667)
(-0.307587 0.555126 -0.68947)
(-0.295001 0.499364 -0.633672)
(-0.299172 0.507585 -0.611349)
(-0.272733 0.47031 -0.576767)
(-0.32857 0.592202 -0.736298)
(-0.33151 0.564661 -0.745118)
(-0.313804 0.52074 -0.705505)
(-0.341817 0.532228 -0.769675)
(-0.282063 0.5159 -0.617487)
(-0.29103 0.54319 -0.626957)
(-0.282539 0.523283 -0.590507)
(-0.294567 0.463825 -0.599366)
(-0.305262 0.47652 -0.599432)
(-0.325297 0.499837 -0.683411)
(-0.329506 0.49225 -0.699865)
(-0.337447 0.572814 -0.74371)
(-0.310766 0.505187 -0.714291)
(-0.318849 0.510708 -0.70784)
(-0.294477 0.474504 -0.579402)
(-0.322025 0.585362 -0.712394)
(-0.329044 0.583584 -0.689409)
(-0.291921 0.501315 -0.605779)
(-0.392079 0.475785 -0.736828)
(-0.450788 0.498461 -0.811793)
(-0.394871 0.486251 -0.717905)
(-0.388746 0.488186 -0.7254)
(-0.430742 0.459233 -0.786431)
(-0.467251 0.477657 -0.826695)
(-0.408253 0.52046 -0.746485)
(-0.402078 0.499775 -0.729731)
(-0.434921 0.478805 -0.779086)
(-0.464141 0.52834 -0.805468)
(-0.499744 0.471193 -0.844784)
(-0.489388 0.532367 -0.841267)
(-0.511918 0.529891 -0.868417)
(-0.497923 0.519673 -0.837556)
(-0.317518 0.466063 -0.619195)
(-0.324095 0.452944 -0.612757)
(-0.309117 0.500873 -0.617835)
(-0.301609 0.509269 -0.611777)
(-0.283321 0.49998 -0.552275)
(-0.275009 0.482955 -0.533944)
(-0.333196 0.415106 -0.606395)
(-0.323605 0.35477 -0.480968)
(-0.333997 0.363863 -0.518433)
(-0.292447 0.458124 -0.505767)
(-0.284152 0.501056 -0.581058)
(-0.29399 0.342879 -0.44764)
(-0.274775 0.402354 -0.475302)
(-0.337073 0.376336 -0.532197)
(-0.306765 0.39996 -0.506637)
(-0.337222 0.403749 -0.581885)
(-0.305181 0.438467 -0.562905)
(-0.265828 0.626153 -0.654926)
(-0.254569 0.604462 -0.630054)
(-0.292867 0.648419 -0.657917)
(-0.269151 0.575292 -0.600333)
(-0.270559 0.627446 -0.63236)
(-0.313997 0.687445 -0.690353)
(-0.295801 0.764883 -0.73972)
(-0.304966 0.741812 -0.728485)
(-0.296954 0.739101 -0.738345)
(-0.264509 0.673416 -0.695741)
(-0.254662 0.653211 -0.666221)
(-0.291661 0.658774 -0.68053)
(-0.27496 0.687254 -0.687208)
(-0.305834 0.754228 -0.740392)
(-0.288953 0.771448 -0.739843)
(-0.296824 0.763583 -0.746227)
(-0.306435 0.759753 -0.748973)
(-0.308781 0.747279 -0.74861)
(-0.247471 0.402771 -0.39369)
(-0.239913 0.408856 -0.395551)
(-0.261139 0.380961 -0.391107)
(-0.261703 0.383951 -0.397347)
(-0.241978 0.385406 -0.384921)
(-0.228861 0.317172 -0.332022)
(-0.224385 0.281471 -0.310902)
(-0.232918 0.292905 -0.323758)
(-0.251145 0.290993 -0.338595)
(-0.257704 0.294316 -0.350461)
(-0.251174 0.311094 -0.347518)
(-0.21951 0.282834 -0.315164)
(-0.215627 0.230244 -0.279677)
(-0.249947 0.262387 -0.328797)
(-0.247616 0.292353 -0.343486)
(-0.22818 0.239568 -0.299516)
(-0.341454 0.284488 -0.838073)
(-0.337743 0.315739 -0.81268)
(-0.34999 0.290338 -0.818613)
(-0.345841 0.326596 -0.787275)
(-0.345472 0.350931 -0.80338)
(-0.334902 0.442795 -0.844162)
(-0.341923 0.370431 -0.813374)
(-0.336044 0.405801 -0.840967)
(-0.349663 0.415043 -0.827669)
(-0.349244 0.375022 -0.832021)
(-0.360842 0.38447 -0.760485)
(-0.340163 0.435199 -0.778113)
(-0.337993 0.415039 -0.794871)
(-0.333423 0.467655 -0.77687)
(-0.333524 0.438203 -0.850954)
(-0.33021 0.463349 -0.799496)
(-0.453177 0.0543016 -0.650546)
(-0.44317 0.0236148 -0.636896)
(-0.422322 0.038031 -0.681892)
(-0.464102 0.0851725 -0.701855)
(-0.427762 0.0800001 -0.751202)
(-0.446329 0.0847481 -0.714913)
(-0.461311 0.129472 -0.750089)
(-0.480104 0.143787 -0.722891)
(-0.443952 0.104991 -0.697577)
(-0.442548 0.143033 -0.745687)
(-0.469012 0.166075 -0.748994)
(-0.496537 0.598849 -0.897362)
(-0.515624 0.580356 -0.897127)
(-0.5077 0.496749 -0.821344)
(-0.510184 0.464144 -0.803436)
(-0.488711 0.580668 -0.904008)
(-0.474696 0.529168 -0.840039)
(-0.510311 0.533029 -0.85616)
(-0.511825 0.572681 -0.879841)
(-0.518036 0.471568 -0.825112)
(-0.496481 0.507447 -0.84557)
(-0.50159 0.501311 -0.838124)
(-0.495014 0.491826 -0.829508)
(-0.482118 0.532263 -0.847487)
(-0.506912 0.492647 -0.838585)
(-0.492728 0.4733 -0.821359)
(-0.236542 0.560353 -0.768988)
(-0.258222 0.64419 -0.773313)
(-0.257258 0.565562 -0.768561)
(-0.266569 0.530652 -0.759584)
(-0.281192 0.527686 -0.775061)
(-0.280881 0.625271 -0.764032)
(-0.290328 0.627999 -0.745337)
(-0.260615 0.494545 -0.769555)
(-0.286689 0.569684 -0.757431)
(-0.259733 0.611739 -0.793547)
(-0.262061 0.529926 -0.78404)
(-0.166375 0.351702 -0.322392)
(-0.159969 0.30431 -0.29517)
(-0.153675 0.269441 -0.269392)
(-0.169826 0.317571 -0.296698)
(-0.165728 0.275989 -0.273343)
(-0.179505 0.294503 -0.288386)
(-0.178881 0.315439 -0.30105)
(-0.181491 0.39987 -0.346978)
(-0.178925 0.416013 -0.36235)
(-0.178017 0.317377 -0.30593)
(-0.192571 0.373122 -0.341503)
(-0.189925 0.380563 -0.345179)
(-0.16891 0.402857 -0.579975)
(-0.175883 0.395453 -0.574522)
(-0.15837 0.347766 -0.559047)
(-0.235538 0.465388 -0.611619)
(-0.232869 0.402967 -0.599134)
(-0.218455 0.392254 -0.590591)
(-0.161041 0.452924 -0.586174)
(-0.229205 0.596426 -0.626619)
(-0.220145 0.47884 -0.59381)
(-0.206065 0.412176 -0.578343)
(-0.211394 0.570732 -0.61782)
(-0.187729 0.424578 -0.600218)
(-0.188782 0.386637 -0.569953)
(-0.168124 0.361124 -0.561371)
(-0.243518 0.577967 -0.631768)
(-0.228066 0.457694 -0.636125)
(-0.209648 0.531641 -0.626924)
(-0.188739 0.35961 -0.586287)
(-0.174149 0.321995 -0.555964)
(-0.22277 0.399579 -0.620943)
(-0.212436 0.351632 -0.582422)
(-0.247645 0.555924 -0.634635)
(-0.220742 0.43689 -0.622053)
(-0.238005 0.525208 -0.630436)
(-0.180274 0.269014 -0.372241)
(-0.181729 0.255587 -0.361735)
(-0.174052 0.218829 -0.309389)
(-0.162546 0.219948 -0.313662)
(-0.190502 0.209576 -0.285623)
(-0.178779 0.197885 -0.269444)
(-0.155069 0.225681 -0.320669)
(-0.156499 0.214036 -0.300865)
(-0.177668 0.279706 -0.381083)
(-0.190818 0.268879 -0.362656)
(-0.176477 0.190616 -0.264145)
(-0.184465 0.192307 -0.270662)
(-0.162498 0.169984 -0.245085)
(-0.177163 0.250364 -0.333081)
(-0.153109 0.167736 -0.245606)
(-0.160401 0.177638 -0.252335)
(-0.509661 0.469937 -0.818968)
(-0.508764 0.448402 -0.79512)
(-0.522533 0.471037 -0.821583)
(-0.502904 0.449681 -0.79591)
(-0.529611 0.50513 -0.827353)
(-0.521912 0.46273 -0.797084)
(-0.546126 0.487077 -0.838757)
(-0.532621 0.471626 -0.832739)
(-0.51702 0.462913 -0.819197)
(-0.511183 0.42463 -0.78461)
(-0.52869 0.540477 -0.858184)
(-0.520413 0.532841 -0.873189)
(-0.499869 0.537478 -0.857698)
(-0.511168 0.602028 -0.882197)
(-0.492314 0.606855 -0.865028)
(-0.516917 0.517304 -0.823791)
(-0.520979 0.532949 -0.844239)
(-0.517074 0.544733 -0.837161)
(-0.515492 0.594118 -0.866379)
(-0.500085 0.591506 -0.869639)
(-0.272613 0.341964 -0.4188)
(-0.253608 0.348434 -0.402998)
(-0.265016 0.313217 -0.375437)
(-0.286713 0.317506 -0.407617)
(-0.267419 0.328099 -0.4018)
(-0.301794 0.27026 -0.387782)
(-0.315205 0.265463 -0.39996)
(-0.294989 0.288014 -0.38628)
(-0.297684 0.299441 -0.412323)
(-0.249708 0.280256 -0.342776)
(-0.25806 0.278187 -0.352262)
(-0.257564 0.21187 -0.304085)
(-0.28589 0.206787 -0.323501)
(-0.291554 0.791582 -0.636167)
(-0.275235 0.745536 -0.613913)
(-0.313251 0.855398 -0.692709)
(-0.301396 0.761379 -0.624114)
(-0.29095 0.727348 -0.618961)
(-0.271523 0.791562 -0.645501)
(-0.316142 0.786593 -0.662974)
(-0.300618 0.766579 -0.660619)
(-0.284266 0.792609 -0.659108)
(-0.274437 0.775633 -0.643088)
(-0.351508 0.681614 -0.869316)
(-0.374522 0.686148 -0.87595)
(-0.380196 0.695313 -0.865716)
(-0.37236 0.673224 -0.883438)
(-0.391698 0.688762 -0.858858)
(-0.361683 0.657754 -0.877991)
(-0.40222 0.674784 -0.875116)
(-0.383281 0.660989 -0.87084)
(-0.351553 0.580906 -0.789886)
(-0.337995 0.563458 -0.800343)
(-0.366032 0.579169 -0.809867)
(-0.333517 0.533029 -0.792987)
(-0.345263 0.578431 -0.823821)
(-0.358314 0.575883 -0.825053)
(-0.39136 0.677986 -0.878723)
(-0.338281 0.603311 -0.832626)
(-0.383439 0.601206 -0.820275)
(-0.27072 0.224025 -0.341494)
(-0.273185 0.23064 -0.348422)
(-0.228681 0.177359 -0.276667)
(-0.23277 0.166851 -0.262239)
(-0.244338 0.205287 -0.319103)
(-0.239401 0.218473 -0.33258)
(-0.260667 0.228462 -0.33732)
(-0.236414 0.171775 -0.269625)
(-0.230646 0.149701 -0.242355)
(-0.267062 0.148324 -0.253699)
(-0.239136 0.136357 -0.234862)
(-0.247616 0.158348 -0.254286)
(-0.236613 0.149165 -0.243795)
(-0.282908 0.201125 -0.322907)
(-0.288201 0.200106 -0.318585)
(-0.238219 0.173823 -0.274219)
(-0.265697 0.208286 -0.317416)
(-0.248407 0.183402 -0.280282)
(-0.259538 0.160175 -0.262352)
(-0.245924 0.154688 -0.255078)
(-0.269519 0.161404 -0.272469)
(-0.277781 0.186242 -0.300002)
(-0.417085 0.34728 -0.73883)
(-0.415601 0.376001 -0.738392)
(-0.416012 0.370385 -0.709464)
(-0.128174 0.31153 -0.279282)
(-0.124626 0.337108 -0.28978)
(-0.340457 0.463592 -0.57957)
(-0.325595 0.434083 -0.582425)
(-0.338448 0.506129 -0.586797)
(-0.384307 0.0950886 -0.522509)
(-0.387843 0.0937267 -0.495322)
(-0.378608 0.116794 -0.518301)
(-0.381522 0.117969 -0.527173)
(-0.3771 0.130098 -0.512126)
(-0.130435 0.371671 -0.528755)
(-0.460649 0.415253 -0.878178)
(-0.449081 0.40519 -0.888004)
(-0.330194 0.118138 -0.290397)
(-0.335483 0.111016 -0.304796)
(-0.505717 0.459933 -0.760425)
(-0.503875 0.426907 -0.772957)
(-0.498168 0.507384 -0.790225)
(-0.172663 0.246347 -0.264251)
(-0.18258 0.245889 -0.273755)
(-0.16682 0.165327 -0.432966)
(-0.170002 0.188497 -0.482942)
(-0.161464 0.188958 -0.429565)
(-0.181709 0.168757 -0.478273)
(-0.135721 0.506951 -0.614335)
(-0.128627 0.463153 -0.624433)
(-0.131537 0.473981 -0.591976)
(-0.31648 0.203632 -0.605042)
(-0.29572 0.206397 -0.624655)
(-0.2968 0.195046 -0.626694)
(-0.329732 0.170458 -0.589447)
(-0.314687 0.218591 -0.709359)
(-0.27345 0.183327 -0.655376)
(-0.327549 0.200244 -0.715045)
(-0.340158 0.537737 -0.580904)
(-0.344711 0.513936 -0.594364)
(-0.234228 0.13854 -0.517279)
(-0.272394 0.154657 -0.61154)
(-0.231331 0.151396 -0.541346)
(-0.0882557 0.306711 -0.350737)
(-0.0852536 0.282101 -0.341128)
(-0.0784485 0.302103 -0.376135)
(-0.286384 0.145689 -0.276386)
(-0.300576 0.121587 -0.283634)
(-0.322719 0.136685 -0.318272)
(-0.229387 0.151169 -0.24205)
(-0.230318 0.140501 -0.23584)
(-0.222528 0.144525 -0.237461)
(-0.13293 0.201418 -0.299982)
(-0.135107 0.192019 -0.285354)
(-0.240992 0.311147 -0.460739)
(-0.241568 0.289857 -0.432808)
(-0.232887 0.280719 -0.440823)
(-0.432001 0.523659 -0.713638)
(-0.406328 0.504282 -0.683976)
(-0.382441 0.432768 -0.895416)
(-0.373238 0.414534 -0.906249)
(-0.211592 0.511379 -0.761387)
(-0.214243 0.503696 -0.733644)
(-0.220506 0.301824 -0.659129)
(-0.210413 0.30124 -0.650805)
(-0.382462 0.154936 -0.743288)
(-0.392284 0.0841102 -0.631846)
(-0.382197 0.101987 -0.694917)
(-0.367586 0.481039 -0.830235)
(-0.391041 0.510177 -0.839905)
(-0.412744 0.494375 -0.836219)
(-0.343206 0.591413 -0.64806)
(-0.31068 0.596851 -0.659162)
(-0.157867 0.166704 -0.262615)
(-0.153148 0.181111 -0.274846)
(-0.103621 0.28596 -0.475106)
(-0.120939 0.317452 -0.543756)
(-0.104144 0.301901 -0.470012)
(-0.34401 0.163733 -0.414117)
(-0.336258 0.160957 -0.39021)
(-0.357055 0.15539 -0.4313)
(-0.194992 0.210312 -0.263432)
(-0.201195 0.19078 -0.256421)
(-0.213973 0.19027 -0.261967)
(-0.196607 0.1863 -0.244199)
(-0.209593 0.288975 -0.303214)
(-0.216015 0.289284 -0.324763)
(-0.185007 0.26471 -0.596877)
(-0.162296 0.242798 -0.571966)
(-0.181884 0.208154 -0.551665)
(-0.211196 0.231387 -0.613136)
(-0.166845 0.202369 -0.527164)
(-0.177935 0.239093 -0.563581)
(-0.1544 0.221056 -0.514754)
(-0.142884 0.203144 -0.487101)
(-0.388827 0.247319 -0.73356)
(-0.346779 0.234368 -0.728301)
(-0.374644 0.253074 -0.740179)
(-0.105869 0.212862 -0.312001)