/*--------------------------------*- C++ -*----------------------------------*\
| =========                 |                                                 |
| \\      /  F ield         | OpenFOAM: The Open Source CFD Toolbox           |
|  \\    /   O peration     | Version:  v1612+                                |
|   \\  /    A nd           | Web:      www.OpenFOAM.com                      |
|    \\/     M anipulation  |                                                 |
\*---------------------------------------------------------------------------*/
FoamFile
{
    version     2.0;
    format      ascii;
    class       surfaceScalarField;
    location    "50";
    object      phi;
}
// * * * * * * * * * * * * * * * * * * * * * * * * * * * * * * * * * * * * * //

dimensions      [0 3 -1 0 0 0 0];

internalField   nonuniform List<scalar> 
41980
(
2.04468e-09
-5.98291e-09
1.50587e-09
2.43281e-09
-2.27252e-09
1.71644e-09
-2.5811e-09
3.13682e-09
6.44497e-10
-4.51163e-09
1.59432e-09
1.83573e-09
3.85169e-09
-5.58562e-10
-5.12902e-09
6.68769e-09
4.2251e-10
-5.27458e-09
2.26311e-09
2.33425e-09
2.0902e-09
7.16468e-09
-1.80432e-09
-4.93781e-09
4.21187e-09
5.21577e-09
2.18815e-09
2.66779e-09
-1.62251e-09
5.52709e-09
-5.25639e-09
4.20235e-09
3.38797e-09
1.00301e-09
-2.40799e-09
3.42888e-10
-3.5848e-09
-1.26988e-09
-1.96763e-09
-2.70627e-10
-2.30911e-09
4.88891e-09
-1.02905e-09
-2.77151e-10
-1.11962e-09
-4.26949e-09
2.52351e-09
-4.20177e-09
-4.73222e-10
1.01704e-09
-2.03886e-09
4.68999e-09
-3.66793e-09
-1.41117e-09
2.52598e-09
-9.76372e-11
1.40434e-09
-2.43323e-09
-3.82163e-10
-1.6106e-09
4.89121e-09
-1.08113e-09
-2.19948e-09
3.17338e-09
-3.47997e-09
-1.30398e-09
-2.10911e-09
4.67676e-09
-1.3393e-09
-1.22832e-09
-3.60559e-09
1.47334e-09
2.34202e-11
-3.98383e-10
1.98775e-09
-1.85031e-10
4.01274e-09
-1.23781e-09
-2.71848e-10
1.25107e-09
3.03353e-09
1.01371e-09
8.49227e-09
-5.74504e-09
5.35525e-09
-8.10245e-09
8.37815e-09
5.74757e-10
-4.60593e-10
-1.37354e-08
7.29796e-09
6.92521e-10
-5.92735e-09
-4.90926e-09
-7.06499e-09
1.79018e-08
-7.54898e-09
9.40002e-09
6.52713e-09
-2.88402e-09
6.90308e-10
9.81808e-09
-7.61639e-10
-8.48163e-09
6.53531e-09
8.16548e-09
-4.88263e-09
1.90161e-09
-1.4244e-08
-2.70376e-09
1.50465e-08
-1.88042e-09
-5.52187e-09
9.30413e-09
-3.32226e-09
-1.06755e-08
-2.46052e-10
3.85317e-10
-1.25062e-08
9.41708e-09
-6.31548e-09
4.82051e-09
8.35064e-09
-1.14932e-09
-1.05234e-08
-8.67587e-09
1.15049e-08
9.06626e-09
-3.24904e-09
-1.14314e-08
7.99145e-09
8.38833e-09
-2.91767e-09
-2.80478e-09
-2.66512e-09
7.71065e-09
6.25253e-09
-5.57469e-09
-4.10409e-09
3.5216e-09
-8.0932e-09
-2.08665e-09
-9.77457e-09
5.54597e-09
4.88327e-09
9.45803e-10
-1.02332e-10
-3.00139e-09
8.52443e-09
7.52518e-09
-2.85306e-09
1.52004e-09
2.63396e-09
-8.58319e-09
1.85084e-08
-1.58723e-08
5.94722e-09
8.7215e-09
-1.19334e-08
-5.37159e-09
-7.106e-09
-8.23689e-09
8.99967e-09
6.34328e-09
1.11232e-09
-6.31253e-09
-1.90582e-09
1.32922e-08
-3.45836e-09
1.15041e-09
1.0037e-09
1.1138e-08
2.8062e-09
1.68525e-08
1.02311e-08
-5.44966e-09
-1.67147e-08
9.60637e-10
-6.60183e-09
5.20098e-09
-6.99736e-09
-4.51611e-09
-3.66536e-09
6.29438e-10
6.18864e-09
2.14494e-09
-1.37834e-08
8.88547e-09
2.84119e-09
-5.53801e-09
1.77113e-09
8.23235e-09
4.87448e-10
-9.73058e-09
1.20493e-08
1.43795e-08
-4.53339e-09
9.39264e-09
-7.27577e-09
-9.11428e-09
5.13173e-09
5.95598e-10
6.15555e-09
-1.12863e-08
1.18606e-08
-2.864e-09
4.92686e-09
1.03692e-08
-3.43544e-09
9.33593e-09
7.22616e-10
-6.44948e-09
7.14443e-09
8.64099e-09
3.77368e-10
3.54237e-09
9.40298e-09
5.02627e-09
3.64453e-10
1.15359e-08
-6.08511e-09
-5.81533e-09
1.33788e-08
-6.60474e-09
-6.40969e-09
1.50483e-09
-1.29534e-08
6.08141e-09
5.36704e-09
6.85907e-09
7.54409e-09
-1.28983e-08
3.92171e-09
2.94004e-09
4.67416e-09
8.00977e-09
9.29071e-09
7.12407e-09
1.37382e-08
-1.40033e-08
-1.18363e-09
1.63175e-08
-5.32072e-11
-6.80718e-09
-6.09307e-09
-6.38562e-09
1.12834e-08
-8.95479e-09
5.50929e-09
-4.98441e-09
-4.02351e-09
-2.97469e-09
-8.09501e-09
-1.63151e-08
9.13215e-09
4.20819e-09
-6.41909e-09
-2.90357e-09
2.0223e-09
7.29998e-09
-6.64058e-09
-4.65548e-10
6.86933e-10
5.25899e-09
-4.9192e-09
-6.9804e-09
-4.71165e-10
2.82646e-09
-4.0915e-09
-9.90095e-10
7.10371e-09
-4.19513e-09
-3.61951e-10
5.74962e-09
-4.28727e-09
-2.45245e-09
3.37764e-09
-1.24637e-08
2.76833e-09
6.31779e-09
3.50288e-09
1.02346e-09
-9.44554e-09
2.28228e-11
-7.15177e-10
5.7465e-09
3.56037e-09
-9.77789e-09
3.66601e-09
-8.05927e-09
5.41665e-09
3.65211e-09
5.71429e-09
-5.70049e-09
3.49382e-09
-9.39164e-09
9.2982e-09
-3.40002e-09
-1.44589e-08
1.42306e-08
3.7224e-09
2.78601e-09
-2.66364e-08
1.18044e-08
-1.03808e-08
6.1236e-09
-7.54705e-09
-1.16505e-08
1.86001e-08
4.8549e-09
2.18286e-09
-1.4859e-08
4.33957e-09
8.33709e-09
-1.10454e-08
4.4619e-09
8.7668e-09
7.50712e-09
-4.32183e-09
4.04042e-09
-1.2263e-08
8.19655e-09
2.64679e-11
-1.05818e-08
-5.07387e-10
1.55513e-08
7.49138e-09
-1.05657e-08
2.44829e-09
1.64837e-08
-9.63361e-09
-1.85189e-08
-7.99039e-09
-2.61136e-08
1.55256e-08
-6.95369e-09
-1.66345e-10
1.31051e-08
2.58709e-09
1.53672e-08
3.06662e-09
1.33808e-08
5.66904e-09
-5.94451e-09
-5.64954e-09
1.85231e-08
1.40573e-08
3.48042e-10
1.1541e-08
-1.43222e-08
2.4333e-09
1.93846e-08
-2.26879e-08
3.65155e-09
1.03996e-08
-1.08134e-08
1.97985e-08
2.82479e-09
1.91159e-08
8.95325e-09
-2.36028e-08
-8.03812e-09
-6.13364e-09
4.27368e-09
1.14357e-08
-2.28678e-08
-7.25767e-09
1.86897e-08
3.01121e-08
-1.58516e-08
4.08674e-09
4.92147e-09
1.04164e-08
-1.94245e-08
-2.31135e-08
-2.38222e-09
2.628e-09
1.34097e-08
-1.82035e-08
-1.8809e-08
3.17433e-09
-2.10502e-08
7.65898e-09
-3.05842e-09
3.88222e-09
-1.8298e-08
1.74742e-08
4.45864e-10
-2.02136e-08
1.67094e-08
2.94013e-08
6.19684e-09
-3.51522e-08
-1.11467e-08
1.74345e-08
-3.00759e-08
1.28548e-08
6.07458e-09
4.56249e-09
-2.84415e-08
1.90714e-08
9.87627e-10
-1.54964e-08
1.08761e-08
-1.33336e-08
3.31087e-09
4.67322e-09
-2.10475e-09
-5.87925e-09
2.46442e-09
5.03536e-09
-4.18876e-09
6.51874e-10
1.29336e-08
-7.5048e-09
-6.0807e-09
1.55103e-08
-9.23552e-09
-5.62278e-09
-2.0848e-09
9.89802e-09
-5.34873e-09
3.79594e-09
3.95825e-09
-3.081e-09
-5.76557e-10
9.40794e-09
1.34893e-08
6.78701e-10
-1.23424e-09
8.90341e-09
2.00964e-08
7.10847e-10
-1.24977e-09
-8.35848e-09
8.89794e-09
1.15848e-08
-1.97048e-09
5.64502e-09
-1.81233e-09
-1.13375e-08
3.22581e-09
-6.81639e-09
3.88596e-09
-7.80307e-09
6.59731e-09
-4.79606e-09
9.20028e-10
-1.0684e-08
8.51473e-09
8.17256e-09
-8.96409e-10
-3.80949e-09
3.6237e-09
1.05169e-08
-3.33276e-09
-2.01939e-09
1.1703e-08
8.33373e-10
8.55212e-11
6.00314e-09
1.65797e-08
4.37275e-09
-1.97203e-08
-1.23217e-09
8.70707e-09
-1.25812e-09
1.85057e-08
-2.59545e-08
2.99719e-09
1.14892e-09
-2.22256e-08
1.80798e-08
1.59263e-08
2.3494e-09
-1.52783e-08
-1.47586e-08
5.66359e-09
1.78023e-08
-1.49823e-10
1.97111e-09
-1.06285e-08
-1.71402e-09
1.80064e-08
-2.33856e-09
-1.41063e-08
5.81655e-09
1.05403e-08
-1.94803e-08
-1.01059e-08
1.89323e-08
-3.35683e-08
3.223e-08
-1.54402e-08
1.6779e-08
-2.48825e-08
-1.33519e-08
4.66615e-09
1.0914e-08
2.0058e-08
1.27438e-08
-2.12196e-09
5.30466e-09
2.22112e-09
1.73748e-08
-1.84466e-08
1.97185e-08
-1.51478e-08
-1.61106e-08
1.85458e-09
-2.44108e-08
2.52192e-08
-3.08593e-08
1.55846e-08
-1.65241e-10
-3.83669e-08
1.24618e-10
-8.95058e-09
2.71837e-09
-3.63018e-09
2.06306e-08
-6.485e-10
-1.88564e-08
3.53984e-09
3.97735e-09
1.13392e-08
-1.56886e-08
-8.60006e-09
5.43232e-09
-3.78164e-09
-6.99013e-09
1.43844e-09
9.33338e-09
-1.00332e-08
9.79132e-09
2.86736e-09
2.7687e-09
5.1301e-09
-1.07662e-08
3.63352e-09
8.66392e-09
-9.43014e-09
7.71594e-09
-7.35859e-09
3.61998e-09
3.34652e-09
6.56011e-10
7.33656e-09
2.48253e-11
-6.04143e-09
9.65001e-09
7.10629e-09
-4.31281e-09
5.02103e-09
-1.13033e-08
-5.1009e-09
1.10254e-08
5.37894e-09
-4.97353e-09
6.67568e-09
-1.30053e-08
-6.15479e-09
3.92728e-09
-2.87331e-09
1.75776e-09
-1.28859e-08
3.78417e-09
-7.79435e-09
2.98438e-09
1.02601e-09
-7.08331e-09
6.76201e-09
4.10556e-09
-2.43999e-09
1.03373e-08
-1.22143e-09
3.06665e-09
-6.22444e-09
4.91578e-09
7.02855e-09
-3.45214e-11
1.02417e-09
-1.78995e-09
-6.06751e-09
8.40658e-12
6.88695e-11
4.8891e-09
5.71064e-09
3.68009e-09
-6.40619e-09
1.56124e-08
1.16435e-08
-1.80461e-08
-9.2098e-09
4.9169e-09
1.38665e-08
-3.17096e-09
1.37473e-08
1.31901e-08
-2.26246e-08
-4.31266e-09
1.83113e-08
3.52825e-10
-1.17946e-08
1.27999e-08
1.28612e-08
-9.12706e-10
-1.4085e-08
2.13478e-08
-1.60675e-08
8.10287e-11
2.36966e-08
-7.71001e-09
3.25823e-09
-1.01451e-09
1.94163e-08
4.11201e-09
-2.39577e-09
-3.00364e-09
6.9765e-09
2.27978e-09
1.87522e-09
-7.66734e-10
2.98104e-09
-1.12662e-08
-4.0441e-09
6.78958e-09
8.52099e-09
-5.59005e-09
-3.04207e-09
5.53899e-09
-8.1478e-09
2.21959e-09
-7.24609e-10
-2.44298e-10
1.25799e-08
2.78235e-09
5.71425e-09
3.85921e-09
2.35635e-10
6.39728e-09
-6.11301e-09
8.80285e-09
-1.9502e-09
-7.39679e-10
-3.98826e-09
-7.94615e-09
5.82143e-09
-4.84842e-10
3.52558e-09
1.03803e-09
-4.07878e-09
2.60147e-09
5.46209e-10
-3.63253e-09
3.26849e-09
4.64734e-09
8.87079e-10
-4.20985e-09
4.9355e-09
-2.67578e-09
8.49652e-10
-1.5339e-09
3.63465e-09
-1.83513e-10
1.30067e-09
3.59847e-09
-4.35279e-09
-1.64952e-09
4.17882e-09
-5.30696e-09
-8.4186e-10
1.97007e-09
4.04319e-09
-3.96681e-09
4.10248e-09
2.91484e-09
5.28923e-09
-6.07867e-10
7.73618e-09
-3.08499e-09
2.71302e-09
-4.42151e-09
-1.07943e-09
-1.74313e-10
-2.80109e-09
5.10816e-09
-2.45788e-10
-7.24654e-09
6.8588e-09
-7.28402e-09
7.67191e-09
-1.86297e-11
-7.82305e-09
5.94572e-10
-3.40052e-09
8.59596e-09
1.66339e-09
-3.69035e-09
2.71077e-10
-7.44584e-09
2.90874e-09
-2.74681e-09
-4.48005e-09
-1.07889e-08
7.84034e-09
-2.85411e-10
-6.10233e-09
-1.45281e-09
-9.72584e-09
1.06975e-08
6.86885e-09
4.72716e-09
9.92022e-09
-2.91777e-09
-1.17293e-08
-3.35752e-09
-3.45958e-09
-3.44162e-09
3.32906e-09
3.19705e-09
-3.08456e-09
-3.18341e-09
-5.4373e-10
2.51922e-09
-5.33792e-10
-6.46566e-09
-5.59828e-10
-6.11462e-10
-3.44517e-09
-6.01476e-09
-2.55382e-09
-4.42791e-09
3.79817e-09
-6.53288e-09
-3.26118e-09
4.17476e-09
-5.21824e-09
4.30483e-09
2.34646e-09
-5.73037e-09
1.23047e-10
5.83678e-09
1.11143e-09
1.10037e-09
-8.04847e-09
5.69298e-10
7.36147e-09
-2.09399e-09
1.83223e-09
-3.39305e-09
3.90787e-09
-3.17286e-09
9.17979e-09
-7.71017e-09
-9.03599e-10
3.39556e-09
-7.72399e-09
1.12725e-08
-2.97915e-09
3.02585e-09
-9.63842e-09
7.03134e-10
6.13589e-09
-5.73855e-09
2.16966e-09
-2.51829e-09
-3.76635e-09
2.05726e-10
-7.66011e-09
-2.91807e-09
7.40538e-09
2.70875e-09
-6.55991e-09
1.02889e-08
-3.64119e-09
6.0109e-09
4.60432e-09
7.67023e-09
-1.51924e-08
1.14493e-08
-1.02379e-08
-2.4281e-09
-1.09941e-08
6.08381e-09
7.33839e-09
-1.39161e-08
5.00434e-09
6.4836e-09
-2.50886e-09
-3.61299e-09
-9.79723e-10
7.10163e-09
-7.17094e-10
-6.11767e-09
4.32583e-09
-8.02262e-09
3.69255e-09
-4.12865e-09
9.21321e-11
-6.95764e-09
-1.30185e-08
1.0936e-08
-5.31156e-09
-6.57409e-09
1.0906e-08
-5.32281e-09
6.7032e-09
2.84573e-09
4.7242e-10
-8.44426e-09
9.2166e-09
-4.25371e-09
5.25394e-10
9.48959e-09
-5.8551e-09
-3.20827e-09
1.37081e-09
-1.38855e-08
1.6164e-08
-3.64906e-09
-1.12671e-08
1.40851e-08
-1.44708e-09
-9.60862e-09
-2.00908e-09
1.05974e-08
1.02039e-09
1.8411e-10
2.68609e-09
-1.24787e-08
3.98893e-09
-1.50719e-08
-1.39156e-08
4.019e-09
8.36472e-09
2.936e-09
-8.61458e-09
6.72356e-09
-3.67854e-10
4.95353e-09
-6.35467e-10
9.76732e-09
8.49577e-09
-5.27809e-10
-9.36895e-09
1.40118e-09
-2.16562e-09
-1.81714e-09
1.24786e-08
1.20786e-08
-8.60887e-10
4.94635e-09
1.48666e-08
6.35495e-09
-4.93629e-09
1.51732e-09
9.7415e-09
3.33705e-09
9.14824e-09
6.54808e-11
-2.40317e-09
9.73441e-09
7.55884e-09
1.85282e-09
-1.20826e-08
5.99702e-09
-4.80208e-09
1.18768e-09
-2.38265e-09
-2.49433e-09
1.68229e-09
-3.59059e-09
4.40249e-09
2.66548e-10
3.74817e-09
1.9821e-09
3.08921e-09
-4.31911e-09
1.49639e-09
-6.24537e-09
2.52024e-09
4.87094e-10
3.2379e-09
-8.06913e-09
-6.70638e-10
-7.61942e-11
-3.0437e-09
5.44861e-09
6.97997e-09
-3.36485e-09
-9.06406e-09
2.05919e-09
5.90954e-09
6.92813e-09
-2.14426e-09
-4.8602e-09
-9.17351e-10
3.06748e-09
4.77786e-09
-4.52533e-09
5.48177e-09
6.02325e-09
8.59607e-09
-8.13364e-09
-2.60672e-09
3.15321e-09
2.92983e-09
-4.77628e-09
-3.96895e-09
-3.81559e-09
4.42307e-09
4.06663e-09
-2.42419e-10
-6.43729e-10
1.98653e-09
1.98662e-10
-6.96158e-09
4.41364e-09
-4.60749e-09
2.18034e-09
5.18858e-09
-1.01765e-09
3.72969e-09
3.77667e-09
-5.56493e-09
-1.9416e-09
5.44544e-09
-1.28562e-09
1.02863e-09
2.96235e-09
-1.08587e-08
8.00473e-09
-6.55623e-09
1.51389e-09
6.67645e-09
-2.69523e-09
6.5082e-09
2.66686e-09
5.31432e-09
3.00937e-09
-1.64723e-09
9.59233e-09
1.23124e-09
4.51617e-09
-4.10697e-09
-3.58742e-09
3.17835e-09
2.46683e-10
8.68519e-10
3.40087e-09
-5.57915e-09
5.25531e-09
5.70602e-10
2.70631e-09
-1.34382e-09
-6.9417e-09
1.07664e-08
4.65024e-10
-8.52488e-09
7.57397e-09
8.85325e-10
2.30729e-09
4.78995e-09
8.03944e-09
1.37594e-10
-5.58839e-09
-2.29405e-09
3.20106e-09
-7.02065e-10
-2.04839e-10
3.40699e-09
7.98679e-10
-4.06789e-09
1.50687e-09
-3.93949e-10
-6.40268e-09
-6.07945e-10
-5.49436e-10
7.56008e-09
-6.19557e-09
-4.39863e-10
2.32827e-10
7.07595e-09
-9.26201e-10
-5.68447e-09
1.76571e-09
-1.42029e-10
5.25507e-10
2.81746e-09
7.168e-10
2.85739e-09
-3.71606e-09
4.8987e-09
4.80219e-09
-4.92961e-09
5.31685e-09
9.92176e-10
5.69857e-09
-8.21651e-10
5.67468e-09
1.91596e-09
4.40449e-09
-4.11191e-09
-2.20845e-09
2.42281e-09
-5.78633e-10
7.18069e-11
3.47011e-09
1.11931e-10
8.22539e-10
3.18118e-09
2.7117e-09
-5.25429e-09
3.89347e-09
1.47288e-09
-9.09471e-10
6.75026e-10
-5.01984e-09
3.81622e-11
-5.0595e-09
-9.14394e-09
-7.99311e-10
4.89933e-09
5.04381e-09
-9.57744e-10
7.9637e-11
-8.26587e-09
1.787e-09
-2.54758e-09
1.81962e-10
1.1258e-09
-4.25303e-09
7.02074e-09
-2.24789e-09
6.55484e-09
-2.66271e-09
-3.57918e-09
3.99399e-09
-7.68093e-10
-1.07727e-10
-2.61605e-09
-2.94426e-09
1.98095e-09
-2.98974e-09
-3.94542e-10
6.90027e-09
-7.97955e-10
-7.06018e-09
3.15665e-09
4.0212e-10
-2.91162e-09
-5.35289e-09
5.99917e-09
-4.59814e-09
-3.3856e-09
1.01442e-09
-8.22822e-09
3.44495e-09
3.7688e-09
-1.2233e-08
7.21932e-09
6.02809e-09
-5.42905e-09
3.06885e-09
-9.8728e-09
-3.04353e-09
-1.06137e-08
-2.93639e-09
4.28218e-10
6.35136e-09
-3.84321e-09
-2.66232e-09
-1.06733e-10
-1.67329e-10
-3.51099e-09
-4.23697e-09
3.19401e-09
4.554e-09
-2.722e-09
-7.14353e-10
-7.45685e-11
-5.53237e-09
4.07975e-09
8.672e-09
-5.97215e-10
-1.86621e-09
-4.01499e-09
-8.19044e-10
-2.79485e-09
-3.94214e-09
7.70198e-09
-3.29722e-09
-7.93734e-11
1.28846e-09
4.44524e-09
-8.77703e-09
2.688e-09
-4.19435e-09
6.8981e-10
-9.23543e-10
4.67905e-09
8.06242e-11
-1.36346e-08
-1.59416e-08
2.67164e-08
2.85984e-09
2.1606e-08
-1.51258e-08
-2.01144e-08
-3.66732e-08
1.03091e-08
-4.50418e-09
3.08685e-08
1.89765e-09
-1.69644e-08
2.65311e-08
-1.31561e-08
-1.1477e-08
7.66385e-09
2.91764e-08
1.28954e-08
-8.38331e-09
-2.04539e-08
4.82282e-09
1.73893e-08
-1.42814e-08
1.17132e-08
-1.05878e-08
1.58968e-08
-2.95435e-08
-6.34623e-10
2.39333e-08
3.06342e-08
-3.86708e-08
2.30703e-08
4.38883e-09
-3.52602e-09
2.69982e-08
-1.27518e-08
-2.53308e-09
-1.54526e-09
3.62072e-08
-1.89376e-08
2.29127e-08
1.90952e-08
-1.05508e-09
1.91614e-08
-1.87732e-09
-7.72625e-09
2.90935e-08
1.6258e-08
-8.61291e-09
1.44585e-08
8.12186e-10
-6.65758e-09
6.28293e-10
-9.61949e-09
3.7832e-10
-2.01426e-11
-1.23814e-08
-2.52594e-09
1.49278e-08
-6.70783e-09
-1.56165e-09
8.24955e-09
1.12531e-10
-6.45134e-09
-3.68911e-10
-1.13778e-08
-8.90892e-10
-2.8692e-09
-8.66327e-09
7.79946e-09
3.73322e-09
2.1156e-10
-9.28154e-10
3.99294e-09
-1.17279e-08
-9.00926e-10
6.17457e-09
-5.92237e-09
-3.77222e-09
5.28969e-09
4.40509e-09
-4.43262e-09
-1.4349e-09
-5.4792e-11
5.83609e-09
-7.03978e-09
-3.22885e-09
4.07229e-10
1.65676e-09
7.14279e-10
7.85512e-09
-7.94107e-09
-5.19275e-10
-5.80618e-09
-1.11834e-09
5.02492e-09
-4.42583e-09
8.19114e-09
-8.02494e-09
-1.28442e-09
5.54392e-09
1.71918e-09
-2.16402e-09
5.89225e-09
-6.09218e-09
3.02742e-09
3.72363e-09
-1.3348e-10
1.81104e-09
3.1754e-09
1.02708e-08
-1.43441e-09
2.99867e-09
-1.18349e-08
3.88391e-09
7.82532e-09
-1.4384e-09
5.57317e-09
1.78636e-08
-3.43709e-09
-1.99995e-08
1.74158e-08
-7.5074e-10
-1.10918e-08
-2.37e-09
1.57578e-08
4.02816e-09
1.49664e-08
5.27418e-10
1.11067e-09
8.38702e-09
-1.0932e-08
-9.57727e-09
1.02533e-08
3.20792e-09
-7.32934e-09
-2.99528e-09
-1.46117e-08
4.77755e-09
1.28299e-08
4.82402e-09
7.9387e-09
1.04211e-08
-1.27474e-08
-6.32749e-09
6.68234e-09
-6.26456e-11
8.70732e-09
-2.57584e-10
7.96874e-09
-2.06011e-10
3.01214e-09
3.67946e-09
1.2772e-09
7.55847e-09
5.70707e-09
3.23093e-09
9.15168e-09
-6.40472e-09
1.44133e-08
2.72425e-09
1.36948e-09
-7.64041e-09
4.91528e-09
3.7912e-09
-6.62561e-09
4.76877e-09
1.00892e-08
-1.14773e-09
8.65471e-10
-7.40398e-09
-1.8027e-09
1.39754e-08
-4.53567e-09
-8.06979e-09
6.59341e-09
6.01204e-09
-6.37688e-09
6.93394e-10
-1.1438e-09
4.8777e-09
2.66313e-09
6.57481e-09
-1.11438e-08
1.19334e-08
-1.27289e-08
9.32742e-09
-9.12952e-09
1.83218e-09
-5.74661e-10
-8.00101e-09
1.27917e-08
1.291e-08
8.55593e-10
3.76511e-09
5.30225e-09
1.01433e-09
3.48106e-11
-1.4662e-09
1.07894e-08
-3.29511e-09
6.37551e-09
-4.3968e-09
-5.34925e-10
1.24333e-08
-3.22644e-09
1.58326e-08
-5.57806e-09
1.3398e-08
-5.13746e-09
-1.72251e-09
-6.53805e-09
3.64512e-09
1.37838e-09
8.37452e-09
-1.21808e-08
4.22141e-09
1.16045e-08
-1.09428e-08
-4.84177e-09
7.14285e-10
1.03135e-08
-6.18603e-09
-3.44542e-09
3.90591e-09
3.21595e-09
5.9877e-09
3.22972e-09
5.76545e-09
1.32831e-08
-4.52792e-09
-4.61914e-09
7.42458e-09
5.29494e-09
-7.36199e-09
1.07012e-08
-1.34193e-08
1.13256e-08
1.94831e-08
-6.94144e-09
-3.61819e-09
-5.29802e-09
-2.15567e-08
1.7939e-08
8.91558e-09
1.04932e-08
-1.66712e-08
8.80058e-10
-1.35074e-08
-7.25418e-09
3.2087e-08
-1.01052e-08
7.09089e-09
-1.62582e-08
-7.17578e-09
-7.12975e-09
1.25515e-08
-2.168e-08
-1.18983e-08
-5.14824e-09
8.98613e-09
-2.44993e-08
-4.54894e-10
-3.66472e-09
2.69428e-08
-3.36699e-09
-1.52685e-09
9.97487e-09
5.40726e-09
-1.38553e-08
9.87404e-09
5.50385e-09
-1.69046e-08
1.60744e-08
1.1198e-08
-1.73983e-08
1.0494e-09
9.84912e-09
-9.23691e-10
1.79733e-08
-8.49416e-10
-3.99672e-10
-8.34644e-09
1.19486e-08
-3.20253e-09
1.33627e-08
-3.91333e-09
-7.58071e-10
1.8088e-08
4.42078e-09
-2.17506e-08
1.15339e-08
-1.39739e-08
1.68192e-09
1.14892e-09
1.05796e-08
-6.22459e-09
2.36343e-08
-1.12873e-08
1.32575e-09
2.25653e-08
-2.56663e-10
1.77961e-08
1.50291e-09
5.56183e-09
-2.55545e-09
1.03564e-08
6.56178e-09
-9.50094e-09
-1.06683e-08
3.50721e-09
1.2723e-08
2.90529e-10
9.89723e-10
4.44819e-10
1.45963e-08
-6.01246e-09
2.45453e-08
-1.53031e-08
1.61975e-09
-3.94348e-09
8.00083e-09
1.8508e-08
1.12972e-08
-1.1502e-08
2.76066e-09
1.92149e-08
-1.50918e-08
6.45652e-09
2.12033e-08
3.52843e-09
-4.46762e-09
-4.91168e-09
5.85083e-09
-4.80229e-09
2.23372e-09
-2.44644e-09
5.01488e-09
-3.29051e-09
-1.9365e-09
4.24665e-10
-1.10343e-09
6.86553e-09
-4.13619e-09
-3.04194e-09
6.07466e-09
-4.98307e-09
1.52425e-10
2.38402e-09
-4.85533e-09
-3.41833e-09
-9.5128e-11
-8.06174e-09
4.02069e-09
-8.82929e-09
4.26651e-09
-2.92008e-09
-2.38124e-09
3.89632e-10
-5.41988e-09
2.53013e-09
-3.35737e-09
-7.20404e-09
5.1414e-09
-4.63687e-09
2.73013e-09
-1.45088e-09
-1.70965e-09
-1.01313e-08
-8.51683e-09
-3.23251e-09
-4.48796e-09
1.70113e-10
1.74306e-09
-8.30816e-09
-1.9344e-10
-5.13818e-09
-2.85596e-09
-5.85433e-09
-5.60083e-09
-9.69477e-09
1.593e-08
-2.99957e-10
-9.83861e-11
2.98635e-09
1.35449e-08
-1.32501e-09
-1.06474e-08
5.09676e-09
6.87576e-09
-6.90441e-09
2.97167e-09
2.60773e-09
4.59408e-09
-6.94988e-09
9.00597e-09
-6.65057e-09
-4.76093e-09
-1.29232e-09
-7.26155e-09
1.34313e-08
-1.07303e-09
-3.53958e-09
4.90749e-09
-6.12895e-09
2.37453e-09
-1.28641e-08
4.1229e-09
5.09633e-09
-1.25218e-08
3.30204e-09
6.03082e-09
-9.23277e-09
7.32494e-09
6.84086e-09
-1.141e-09
1.32976e-09
5.84208e-09
-5.47586e-09
-2.18782e-10
4.55365e-09
1.23965e-09
-3.23659e-09
7.24375e-09
-1.73911e-08
2.33681e-09
-1.89939e-09
-1.31302e-09
-4.32044e-09
6.95863e-10
-4.37378e-09
-1.20879e-09
-2.82468e-09
1.05326e-09
-2.60226e-09
4.7926e-09
-6.51994e-09
-1.09722e-09
1.70858e-09
-1.23625e-09
-2.404e-09
-7.44645e-10
-1.26814e-10
-9.2563e-10
-4.22205e-09
-1.37681e-09
-3.87915e-09
-1.7826e-08
-8.60017e-09
2.03455e-08
-3.50181e-10
1.02077e-08
1.66062e-09
-1.15181e-08
5.79942e-09
5.43711e-10
-6.69324e-09
4.80443e-09
1.31002e-08
-7.69691e-09
1.06556e-08
-5.16618e-11
1.00614e-08
4.02907e-09
-9.90068e-10
8.68566e-09
-5.21077e-09
6.58667e-09
-1.68439e-08
3.03195e-09
1.78411e-08
-1.05447e-08
-2.41252e-08
9.23175e-09
-1.44244e-09
-1.79319e-09
8.07365e-09
-9.32308e-09
6.48761e-10
-1.10669e-08
1.50451e-08
2.20709e-09
-1.00636e-08
-7.18857e-09
8.60291e-09
8.4591e-09
-1.78251e-09
-1.52799e-08
1.3151e-08
1.0497e-08
-6.98224e-09
-4.12215e-09
1.24264e-08
-1.3222e-09
-4.60567e-09
1.07749e-08
-3.38074e-09
-4.88807e-09
2.01364e-09
6.25536e-09
-7.85451e-09
5.9838e-09
-1.51001e-09
-3.19314e-09
1.42197e-09
-3.11659e-09
-1.67681e-09
-9.37072e-09
7.86051e-09
-4.23125e-09
-2.69917e-09
7.03614e-09
1.62477e-09
1.63017e-09
5.89589e-09
5.11091e-10
-4.23381e-10
6.28148e-09
-1.02543e-08
2.29605e-09
-7.44e-10
3.96216e-09
2.67768e-09
7.23787e-09
-4.45405e-10
3.79465e-09
-3.32234e-09
8.13697e-09
-5.10103e-09
2.86132e-10
1.02426e-08
-1.10348e-08
-4.82183e-09
5.49383e-09
6.27205e-09
-6.94402e-09
-7.60896e-10
-4.3244e-09
2.63387e-10
-4.97682e-09
4.33738e-09
8.77644e-09
1.24169e-09
4.02379e-09
3.97203e-09
2.8197e-10
1.68345e-09
6.53702e-09
-1.35485e-09
5.24685e-09
4.08653e-10
1.50848e-10
9.68039e-09
3.83659e-09
-4.44137e-09
7.14178e-09
9.23433e-09
2.87499e-09
1.40983e-08
-2.93923e-09
-1.04914e-09
-1.01098e-08
1.53475e-09
1.14149e-08
1.14868e-09
1.07101e-08
-2.51125e-09
-1.11381e-08
9.39024e-09
2.8546e-09
8.45832e-09
-1.64092e-09
-7.86654e-09
3.72651e-09
9.15261e-09
1.25319e-08
2.60957e-09
-1.06493e-08
6.49713e-09
3.99133e-09
1.08925e-08
-5.73118e-09
-7.08044e-09
-1.17573e-08
2.2829e-08
-6.33465e-09
7.83396e-09
9.39329e-09
7.04941e-10
5.49231e-09
5.64816e-09
1.05581e-09
-2.05235e-08
1.38195e-08
2.25942e-08
-9.88764e-09
-4.87262e-09
4.27767e-09
1.07607e-08
1.61736e-09
1.07425e-10
8.84734e-09
-1.05719e-08
8.37767e-10
-4.34397e-09
3.86483e-09
-3.58436e-10
9.99234e-09
-4.51439e-10
-5.43375e-09
-4.10699e-09
6.46082e-09
-5.98571e-09
9.5174e-09
-4.62629e-09
1.51065e-09
4.73306e-09
-3.65905e-09
-1.29403e-10
1.37615e-09
-1.05391e-08
9.2706e-09
4.55264e-09
-5.91714e-09
-2.97942e-09
1.89881e-10
7.64726e-09
-4.22217e-09
7.56202e-09
9.07764e-09
-2.58668e-09
-1.93819e-09
5.11553e-09
-2.94099e-09
-7.60813e-09
2.3645e-10
-1.10657e-09
-7.72771e-09
-2.41157e-09
7.77825e-10
-4.55106e-09
1.143e-10
-7.52146e-09
-2.016e-10
-4.53691e-12
4.5573e-09
-6.77677e-09
-7.21385e-10
4.59457e-09
3.73306e-09
-3.77023e-09
5.16445e-09
2.08004e-10
4.40712e-09
-4.37515e-10
4.66076e-09
4.91085e-09
6.36131e-09
-7.33296e-09
1.1408e-08
4.96498e-09
-9.03998e-09
-9.5571e-09
2.17048e-09
5.38936e-11
-5.21744e-09
-9.90908e-09
9.84216e-09
5.28459e-09
-1.29378e-08
1.45249e-08
-2.81059e-09
1.22353e-09
1.66003e-08
-1.06778e-08
-1.88603e-08
-6.46109e-09
1.72107e-08
3.77543e-09
1.35464e-08
-3.4071e-09
9.71817e-09
-3.34923e-10
-1.46006e-08
9.81914e-09
-2.14105e-09
2.04031e-09
4.18723e-10
3.40331e-09
5.27656e-09
-9.09847e-09
-1.50943e-08
6.60569e-09
8.90737e-09
-8.04427e-09
-2.82461e-09
-4.22532e-09
-1.63299e-08
5.31723e-09
9.26989e-09
-1.38646e-10
4.41533e-09
9.17971e-09
1.7301e-08
6.78378e-09
2.89684e-09
5.25951e-09
9.55194e-09
6.60768e-09
1.22314e-08
-1.22334e-08
1.21e-09
1.08334e-08
1.69974e-08
5.28688e-09
-1.9905e-09
-6.41219e-10
-2.65557e-09
5.72422e-09
2.8815e-09
-3.31893e-09
-1.412e-09
4.54389e-09
-7.31037e-09
4.17845e-09
-4.01111e-09
-4.57935e-09
5.66837e-09
2.92192e-09
-4.42623e-09
6.85638e-10
-2.70847e-10
8.43306e-09
-7.15671e-09
-5.70274e-09
3.01176e-09
1.69573e-09
-1.32078e-10
-6.60595e-09
5.04204e-09
1.72736e-09
-4.37798e-09
4.34643e-09
-3.55763e-09
2.92541e-09
4.99836e-10
1.35758e-09
2.95451e-09
7.29665e-09
-7.8071e-09
-1.59962e-09
2.11007e-09
-6.41158e-10
1.04316e-08
-2.49406e-09
-2.02389e-09
7.05094e-09
-3.70156e-09
3.03519e-09
-2.75982e-09
-2.56146e-10
-5.96538e-10
-5.89575e-09
-6.64473e-10
-8.68213e-09
3.88689e-09
-7.55131e-09
-3.49466e-09
-2.22107e-09
2.69748e-09
3.01804e-09
2.56094e-10
-3.30112e-09
-4.49666e-10
2.87619e-09
-2.25299e-09
-3.67172e-10
-4.66523e-09
1.03759e-09
1.4064e-09
-3.47564e-09
-4.49073e-09
8.62747e-10
4.69478e-09
-6.56368e-09
1.00598e-09
5.25085e-09
-7.13324e-09
2.74516e-09
-3.40307e-09
-1.27671e-10
6.22821e-09
-3.20305e-09
2.67618e-09
-2.82883e-09
7.39588e-09
3.45966e-09
4.7333e-09
-1.58269e-09
-1.02839e-08
-1.87352e-10
-1.64308e-09
-2.37487e-09
2.77833e-09
-2.65649e-09
-7.43321e-09
-6.12069e-10
3.50887e-09
-5.42486e-09
3.83385e-09
-1.91779e-09
-3.49347e-09
5.04341e-09
1.95894e-09
-2.19829e-09
-1.12359e-09
-1.71503e-10
-2.76997e-09
-4.85317e-09
-5.10012e-09
-5.12705e-10
4.99558e-09
6.17218e-10
9.39902e-11
-1.507e-10
-8.57681e-09
2.44142e-09
1.6403e-09
4.49491e-09
7.98753e-09
-3.2224e-09
-9.31386e-10
-4.95308e-10
-2.95887e-09
4.21312e-10
-3.85652e-09
6.39372e-09
-9.0623e-10
5.54415e-09
-7.59731e-09
2.03797e-09
-6.3898e-09
3.44468e-09
4.24518e-09
-1.78606e-09
-3.03983e-09
-1.35107e-09
2.11586e-09
2.27485e-09
5.61803e-10
-3.14402e-09
-1.01136e-09
3.5931e-09
-2.24417e-09
-2.33885e-10
-1.54326e-09
-3.72202e-09
4.52378e-09
7.41228e-10
-3.33664e-09
-4.50793e-10
3.67008e-09
-1.66688e-09
-5.34008e-09
-2.80248e-09
2.75047e-09
-1.67435e-09
3.15826e-09
-5.34065e-09
-5.21512e-09
-1.42742e-09
2.52326e-10
1.4984e-09
2.42355e-09
2.26778e-09
-6.35881e-09
2.34621e-09
-4.73474e-09
4.81176e-09
1.36974e-09
-2.24621e-09
-1.49932e-09
-1.10324e-09
-4.41131e-09
4.46854e-09
1.04625e-09
-3.89326e-09
2.93503e-09
-1.44869e-10
-7.83254e-09
4.44727e-09
-1.01151e-09
-8.61092e-09
3.04688e-09
-2.35378e-10
-3.82294e-09
-7.53997e-10
-9.2313e-11
-1.59247e-09
-5.57458e-10
6.61863e-09
2.99933e-09
6.03173e-09
-3.13016e-09
-6.04086e-09
3.13942e-09
-3.86263e-09
-1.20124e-10
8.01561e-09
-9.85394e-10
-6.94722e-09
4.81099e-09
5.95098e-10
-1.42292e-08
-2.81457e-10
2.13702e-08
-2.3098e-08
2.32306e-09
-3.98259e-09
2.17037e-08
-8.54692e-10
-1.54875e-08
2.40743e-09
1.39349e-08
-2.65174e-08
7.49445e-09
-1.26881e-08
-9.03539e-09
-6.42318e-09
-1.1542e-09
3.66563e-09
-8.99904e-09
-1.0154e-08
-1.01135e-08
-1.27382e-08
-1.15775e-08
1.2538e-08
-9.94128e-09
6.47345e-09
-2.95514e-09
-2.30905e-09
9.74347e-09
-1.73756e-08
9.8392e-09
-2.48363e-08
-2.33721e-08
-6.98735e-09
1.88337e-09
-6.24283e-09
-3.66542e-09
-3.98795e-09
-1.51338e-09
9.16721e-09
-1.93796e-09
4.80354e-09
-6.53052e-09
3.89697e-10
-6.31547e-09
-6.10938e-09
-6.96387e-10
7.58315e-10
6.04784e-09
6.74026e-09
-1.48888e-08
2.0393e-09
-6.32227e-10
6.67614e-09
-8.92791e-09
1.80598e-08
-1.0645e-08
9.52255e-10
8.98481e-10
-1.07785e-08
-2.07372e-08
2.49517e-09
5.23698e-09
-7.86433e-09
-4.47742e-09
-8.39524e-09
-2.09937e-08
9.06167e-09
1.44273e-08
-1.33836e-08
5.36513e-09
-1.29751e-08
-8.78676e-09
-1.2461e-08
-7.58326e-09
3.99289e-09
8.82741e-09
2.08316e-08
1.04694e-08
-1.40132e-08
-1.72877e-08
-6.95419e-09
2.00883e-08
7.69764e-09
2.00865e-08
-8.7408e-09
-5.98022e-09
3.78593e-09
2.53624e-08
1.6744e-09
1.14363e-09
-1.04012e-08
1.00338e-09
1.11404e-08
1.2951e-08
-1.33437e-09
-2.56296e-08
-2.74394e-09
1.45338e-08
-6.75485e-09
-1.91113e-08
8.99028e-09
-2.45075e-09
-2.41652e-10
-1.00549e-08
-1.68725e-09
-1.16954e-08
1.12577e-08
-9.35565e-09
-9.52197e-10
-9.49652e-10
8.52034e-09
-2.13119e-09
-7.46606e-09
1.08622e-09
5.95503e-09
-8.72783e-09
2.24846e-09
2.17981e-09
-3.34038e-09
-7.52626e-09
-1.03404e-09
-9.83986e-09
7.7421e-09
-4.67898e-09
-7.68401e-09
-6.47158e-09
-1.11979e-09
7.04337e-09
-7.55987e-09
-7.47761e-09
-7.35698e-10
2.40351e-09
1.92521e-08
-3.13239e-09
-1.41271e-08
1.67002e-08
-1.69408e-10
-7.34186e-09
-1.11618e-09
-1.4678e-08
1.39495e-08
-1.22487e-09
1.95364e-09
-3.0032e-09
3.0649e-10
-1.19812e-08
1.28319e-08
-5.96445e-10
1.71406e-09
1.85933e-09
-1.12649e-09
1.20992e-08
1.11485e-08
-1.26543e-08
9.09309e-10
1.34728e-09
1.16606e-08
-1.64956e-09
-7.81104e-09
9.47698e-09
-1.62487e-11
-1.34008e-08
-9.02986e-10
1.17503e-08
2.23174e-09
-1.13949e-08
-3.40261e-09
-1.49217e-08
1.30477e-08
6.49298e-10
-1.48582e-08
-3.88642e-09
3.45593e-09
1.71307e-08
8.74254e-11
1.06547e-08
-1.08626e-08
9.27668e-10
1.09936e-08
1.18527e-08
-1.96862e-08
-1.84033e-08
1.685e-08
2.124e-08
1.15847e-08
-1.03219e-08
-2.0949e-08
-3.37839e-08
8.1042e-10
1.45703e-08
-5.3898e-10
-2.16599e-08
8.5452e-09
-1.09783e-08
2.34443e-08
-2.10111e-08
-4.57152e-09
-7.0797e-09
2.01965e-08
3.98035e-08
-1.38888e-08
-2.64535e-08
2.3625e-08
1.69891e-08
5.29266e-09
8.13871e-09
-2.44096e-08
1.07285e-08
-1.00072e-08
7.21356e-09
-1.60993e-08
3.233e-08
2.71909e-08
-3.03511e-08
1.75676e-08
3.32485e-08
9.32296e-09
-1.15061e-08
2.00903e-08
-3.55388e-09
6.33085e-09
1.87599e-10
1.53998e-08
-2.19185e-08
6.95797e-09
1.99082e-08
-2.05353e-08
5.79258e-09
1.44852e-08
-4.02606e-09
2.85518e-08
1.86165e-08
9.38116e-09
-1.4193e-09
6.74977e-09
-5.96874e-09
6.07808e-09
-6.23854e-09
1.70892e-08
-1.69286e-08
2.1336e-09
2.25259e-08
-1.85815e-08
-1.54585e-08
2.11786e-08
-2.68803e-09
1.88485e-08
6.67499e-09
-8.81403e-09
1.22042e-08
1.89857e-08
1.33166e-08
-2.17857e-08
-1.05164e-08
-3.04407e-09
2.41634e-08
3.01131e-08
-2.07243e-08
3.92799e-09
-6.75683e-09
3.38259e-08
-2.38022e-09
1.73204e-08
1.07071e-08
-2.5218e-08
2.11859e-08
-6.22245e-10
-1.44137e-08
1.47749e-08
-3.32338e-08
-2.26524e-09
-6.66491e-09
1.46831e-08
2.45164e-08
-3.35613e-08
-2.3149e-08
8.61518e-09
-5.466e-09
1.17818e-08
-1.49309e-08
1.04977e-08
8.42719e-10
-2.72522e-09
1.48969e-09
4.78077e-09
-1.17364e-08
5.19206e-09
5.17255e-09
-8.87491e-09
1.77453e-08
-2.70641e-09
-3.2568e-09
4.95217e-09
1.21003e-08
6.93097e-10
5.81147e-09
3.57272e-09
6.70072e-09
-5.08131e-09
-9.00667e-10
6.35575e-09
-1.88224e-09
8.49761e-09
-2.48232e-09
7.87307e-09
8.89987e-09
-3.19764e-09
1.23189e-08
-4.65957e-09
7.23525e-09
3.78011e-09
2.0966e-09
-5.52664e-11
4.72912e-09
-4.27986e-09
6.64954e-09
1.76123e-10
-1.63051e-09
6.18613e-09
-4.21996e-10
6.12434e-09
5.18278e-09
-8.07138e-09
-1.42364e-08
8.57233e-09
-1.29288e-08
-5.98255e-10
5.4557e-09
-6.68523e-11
-6.36294e-09
-6.49899e-09
1.03729e-08
-5.23539e-09
-5.20431e-09
5.52175e-09