/*--------------------------------*- C++ -*----------------------------------*\
| =========                 |                                                 |
| \\      /  F ield         | OpenFOAM: The Open Source CFD Toolbox           |
|  \\    /   O peration     | Version:  v1612+                                |
|   \\  /    A nd           | Web:      www.OpenFOAM.com                      |
|    \\/     M anipulation  |                                                 |
\*---------------------------------------------------------------------------*/
FoamFile
{
    version     2.0;
    format      ascii;
    class       volVectorField;
    location    "100";
    object      U;
}
// * * * * * * * * * * * * * * * * * * * * * * * * * * * * * * * * * * * * * //

dimensions      [0 1 -1 0 0 0 0];

internalField   nonuniform List<vector> 
21396
(
(-0.669566 -0.0669653 -0.486087)
(-0.697781 -0.00173362 -0.4943)
(-0.726174 0.0360501 -0.595208)
(-0.785851 0.0916839 -0.636303)
(-0.693107 -0.00171459 -0.511972)
(-0.632678 0.0099973 -0.586214)
(-0.464437 0.1269 -0.333263)
(-0.667279 0.0249705 -0.546201)
(-0.736143 -0.0438237 -0.51852)
(-0.79335 -0.0172801 -0.526133)
(-0.573468 0.142882 -0.557311)
(-0.432634 -0.0638772 -0.407139)
(-0.659563 -0.0372206 -0.522005)
(-0.751391 -0.00174593 -0.61293)
(-0.67895 0.0688601 -0.539222)
(-0.646389 -0.0899975 -0.52256)
(-0.667825 0.0514931 -0.512178)
(-0.365142 0.0572088 -0.428936)
(-0.678408 0.0478598 -0.555691)
(-0.693909 0.0408011 -0.54946)
(-0.568101 -0.0549246 -0.514899)
(-0.49689 0.00077115 -0.501365)
(-0.719564 -0.0512019 -0.494099)
(-0.627005 0.0619781 -0.524796)
(-0.685094 0.0616334 -0.583274)
(-0.725213 -0.0999893 -0.544539)
(-0.655256 0.155631 -0.586472)
(-0.649963 0.162225 -0.604576)
(-0.534422 0.00221821 -0.521923)
(-0.37383 0.0452839 -0.294409)
(-0.645633 0.00725693 -0.500744)
(-0.717086 0.0288246 -0.516506)
(-0.342844 0.0234343 -0.20716)
(-0.348404 -0.00316529 -0.214248)
(-0.783823 0.0948279 -0.589198)
(-0.677385 0.084317 -0.49494)
(-0.462998 0.0615145 -0.249802)
(-0.629911 -0.0742505 -0.432572)
(-0.602395 0.0952841 -0.584166)
(-0.62399 0.064645 -0.622843)
(-0.696132 -0.145668 -0.490638)
(-0.392983 0.0501168 -0.331209)
(-0.614183 -0.00944361 -0.522068)
(-0.656508 -0.184906 -0.378338)
(-0.581589 -0.0585709 -0.466766)
(-0.670105 0.0430605 -0.563317)
(-0.615581 -0.00449139 -0.348369)
(-0.705192 0.0785701 -0.484356)
(-0.723673 0.0435761 -0.498334)
(-0.592825 -0.0246631 -0.515259)
(-0.693616 0.0252339 -0.524009)
(-0.681892 -0.0248049 -0.439366)
(-0.645277 -0.0801891 -0.391253)
(-0.400238 0.101181 -0.251322)
(-0.581546 0.0373121 -0.58358)
(-0.590986 0.0226612 -0.58153)
(-0.684645 0.078259 -0.650418)
(-0.660095 0.0721538 -0.624042)
(-0.664406 -0.129884 -0.374183)
(-0.729139 0.0476463 -0.525566)
(-0.547639 -0.00130678 -0.274504)
(-0.618384 0.167305 -0.551881)
(-0.431139 -0.029302 -0.433789)
(-0.560727 0.100892 -0.33614)
(-0.567468 0.0920831 -0.334027)
(-0.676945 0.0130033 -0.445676)
(-0.62934 0.036957 -0.615854)
(-0.481603 -0.00640765 -0.490637)
(-0.70842 0.0996462 -0.534621)
(-0.613456 0.0530047 -0.340797)
(-0.70321 -0.0812388 -0.381178)
(-0.681835 -0.0820232 -0.506884)
(-0.669259 0.215333 -0.592469)
(-0.480063 -0.00338915 -0.214327)
(-0.7281 -0.15804 -0.444019)
(-0.72496 -0.112563 -0.547563)
(-0.681116 0.184204 -0.56677)
(-0.321482 0.0894856 -0.356347)
(-0.281662 0.0780462 -0.212426)
(-0.707304 0.208334 -0.712975)
(-0.714372 0.203427 -0.709432)
(-0.606529 0.136652 -0.623989)
(-0.555232 0.0232833 -0.549471)
(-0.373484 0.0575417 -0.234751)
(-0.492263 0.0524692 -0.265386)
(-0.680599 0.147938 -0.613699)
(-0.697568 0.123679 -0.593195)
(-0.702385 0.170728 -0.59941)
(-0.623011 0.174153 -0.569965)
(-0.656695 0.00277154 -0.585704)
(-0.738079 -0.118718 -0.487242)
(-0.733367 -0.13813 -0.500759)
(-0.688178 0.0423969 -0.47341)
(-0.716824 0.0869519 -0.535693)
(-0.409763 0.120779 -0.270472)
(-0.727282 0.194659 -0.689571)
(-0.680281 0.0418457 -0.587265)
(-0.607976 -0.0925712 -0.324921)
(-0.474304 0.0109891 -0.5269)
(-0.386647 0.00985498 -0.336732)
(-0.647758 -0.0902379 -0.515214)
(-0.711493 -0.0410834 -0.524716)
(-0.673769 0.186682 -0.686245)
(-0.608932 0.160199 -0.646775)
(-0.557358 0.0751572 -0.312647)
(-0.513115 -0.00987634 -0.237482)
(-0.724355 -0.0557412 -0.536546)
(-0.67068 -0.0566497 -0.434111)
(-0.685294 -0.0210986 -0.468855)
(-0.736742 -0.0105267 -0.478293)
(-0.648683 -0.0158849 -0.418581)
(-0.453934 0.022312 -0.489469)
(-0.427075 0.0379426 -0.449214)
(-0.714445 0.0270669 -0.48276)
(-0.731455 0.0359273 -0.522421)
(-0.700673 -0.0704351 -0.40077)
(-0.675848 -0.0168625 -0.528843)
(-0.654 -0.0086455 -0.571511)
(-0.645579 -0.0263442 -0.52246)
(-0.639175 -0.0438387 -0.479144)
(-0.640308 -0.00543851 -0.515365)
(-0.696281 0.0447069 -0.519075)
(-0.30134 0.0771424 -0.241447)
(-0.687688 -0.120349 -0.472191)
(-0.665625 -0.0071997 -0.588719)
(-0.621064 -0.106665 -0.489289)
(-0.398982 0.0195368 -0.249615)
(-0.352318 0.0703293 -0.254067)
(-0.652424 -0.0905217 -0.516846)
(-0.643742 -0.0743078 -0.521902)
(-0.626609 -0.0743625 -0.509747)
(-0.576081 0.0350959 -0.314994)
(-0.604093 0.0372151 -0.354157)
(-0.695309 0.192704 -0.696022)
(-0.735303 -0.0184622 -0.495764)
(-0.397801 0.0479781 -0.446507)
(-0.369068 0.0156604 -0.427253)
(-0.666588 -0.0229104 -0.504259)
(-0.675683 -0.0294113 -0.533926)
(-0.575747 0.00391795 -0.301372)
(-0.603488 0.00156004 -0.302684)
(-0.49782 0.0876901 -0.291144)
(-0.454477 0.109624 -0.279185)
(-0.44277 0.0974999 -0.269486)
(-0.68658 -0.128115 -0.485157)
(-0.557391 -0.119699 -0.44612)
(-0.723241 0.0564818 -0.511343)
(-0.625976 -0.0916386 -0.467443)
(-0.640082 -0.1001 -0.466091)
(-0.727099 0.140921 -0.574587)
(-0.741708 -0.108807 -0.422733)
(-0.669859 -0.143608 -0.473709)
(-0.679064 0.0178445 -0.524298)
(-0.680171 -0.0276218 -0.509531)
(-0.683808 -0.0366667 -0.511999)
(-0.680747 0.0260826 -0.501008)
(-0.667763 -0.000294042 -0.515316)
(-0.756281 -0.0170807 -0.479468)
(-0.46783 0.0466248 -0.24672)
(-0.28276 0.06594 -0.291586)
(-0.371904 0.0600151 -0.441397)
(-0.765755 -0.0719799 -0.480963)
(-0.566201 -0.0322045 -0.253706)
(-0.610523 0.00438335 -0.311233)
(-0.603139 -0.0268047 -0.292174)
(-0.588066 -0.0321128 -0.293959)
(-0.316159 0.00250976 -0.175538)
(-0.305395 0.0430311 -0.209708)
(-0.281867 0.0400238 -0.224801)
(-0.284718 0.0586344 -0.243591)
(-0.626009 -0.0952075 -0.503377)
(-0.613935 -0.0254631 -0.520659)
(-0.538683 -0.0438901 -0.475017)
(-0.647987 0.000388016 -0.560348)
(-0.629084 0.0771918 -0.578399)
(-0.628709 0.10003 -0.59067)
(-0.657649 0.0986396 -0.647424)
(-0.354076 0.0010269 -0.349341)
(-0.619045 0.0630757 -0.377153)
(-0.281026 0.082707 -0.283811)
(-0.651853 -0.122943 -0.475992)
(-0.640148 -0.0801754 -0.494077)
(-0.640247 0.112724 -0.590014)
(-0.626098 -0.0700155 -0.476458)
(-0.370794 0.0222499 -0.283343)
(-0.767657 -0.0769222 -0.479403)
(-0.728214 -0.0470765 -0.498268)
(-0.64234 -0.000886564 -0.576748)
(-0.616175 -0.0439335 -0.540865)
(-0.595776 0.00145809 -0.5123)
(-0.636618 -0.0159059 -0.554597)
(-0.512344 0.0159584 -0.244476)
(-0.380683 0.0513008 -0.258653)
(-0.635669 0.0158125 -0.499261)
(-0.570984 7.08802e-05 -0.510332)
(-0.72854 0.149351 -0.579438)
(-0.727343 0.136137 -0.569045)
(-0.63926 0.132287 -0.5452)
(-0.687605 0.153174 -0.57306)
(-0.661038 0.148716 -0.544664)
(-0.710419 0.175779 -0.615013)
(-0.674208 0.190278 -0.679112)
(-0.67725 0.162392 -0.687832)
(-0.629595 0.122103 -0.608284)
(-0.612574 0.161371 -0.600328)
(-0.611155 0.107634 -0.598562)
(-0.716671 -0.116558 -0.385838)
(-0.629892 -0.0848423 -0.365262)
(-0.679769 -0.0697665 -0.376783)
(-0.694387 -0.0514844 -0.387973)
(-0.352098 0.000677569 -0.267935)
(-0.430643 0.00665645 -0.356)
(-0.357755 -0.00347182 -0.255607)
(-0.701842 0.0262042 -0.53733)
(-0.516055 0.0582751 -0.274926)
(-0.475357 0.050618 -0.25133)
(-0.606016 -0.0235618 -0.325618)
(-0.66382 0.0334249 -0.482319)
(-0.643186 0.0376141 -0.539294)
(-0.713665 0.0369332 -0.493552)
(-0.673263 -0.0551177 -0.378847)
(-0.7804 -0.0129177 -0.589493)
(-0.657735 -0.0383047 -0.495704)
(-0.717683 -0.0373631 -0.547088)
(-0.758714 -0.0234671 -0.585826)
(-0.688105 -0.0266765 -0.504853)
(-0.751452 -0.013101 -0.55948)
(-0.688933 -0.0505885 -0.506481)
(-0.343679 0.0865044 -0.401536)
(-0.366652 0.074551 -0.435465)
(-0.355212 0.0634809 -0.396557)
(-0.398605 0.0184373 -0.36738)
(-0.698053 -0.0519666 -0.535792)
(-0.613163 -0.0605519 -0.27898)
(-0.523669 -0.0263595 -0.236793)
(-0.680165 0.00890044 -0.462576)
(-0.7016 -0.0249595 -0.440091)
(-0.495693 0.0824329 -0.286505)
(-0.544331 0.0841164 -0.310545)
(-0.651527 0.0723643 -0.410694)
(-0.719706 -0.0200552 -0.442478)
(-0.660349 -0.030523 -0.398643)
(-0.313103 0.056219 -0.343264)
(-0.550687 -0.0153207 -0.268559)
(-0.687853 0.210845 -0.623205)
(-0.65351 0.0976347 -0.480513)
(-0.652342 -0.111106 -0.320737)
(-0.68168 -0.0106336 -0.438273)
(-0.610173 -0.0476639 -0.388572)
(-0.61294 -0.0235149 -0.3506)
(-0.624806 0.136559 -0.59399)
(-0.592692 -0.128638 -0.418713)
(-0.349428 0.0374271 -0.339399)
(-0.673795 -0.113043 -0.322714)
(-0.334181 0.0511117 -0.272446)
(-0.679203 -0.117867 -0.463627)
(-0.652477 -0.107645 -0.505492)
(-0.718686 0.0365294 -0.489798)
(-0.601777 -0.10341 -0.420961)
(-0.650984 -0.0427107 -0.397985)
(-0.586913 0.00722668 -0.306041)
(-0.638303 -0.0327538 -0.372997)
(-0.668565 -0.0483168 -0.393511)
(-0.475953 -0.0600658 -0.413851)
(-0.642851 -0.117097 -0.407058)
(-0.686556 -0.0482935 -0.540086)
(-0.673713 0.0186375 -0.492084)
(-0.663847 -0.000658227 -0.485112)
(-0.666555 0.064377 -0.471918)
(-0.691873 0.059877 -0.496908)
(-0.718558 0.0965452 -0.552244)
(-0.700557 0.0778464 -0.523962)
(-0.633709 -0.116227 -0.482376)
(-0.661344 -0.130036 -0.434225)
(-0.364902 0.059434 -0.250678)
(-0.357968 0.104715 -0.262853)
(-0.445385 -0.00653271 -0.494018)
(-0.426994 0.0310758 -0.493213)
(-0.510773 -0.00799603 -0.527384)
(-0.389511 -0.0207578 -0.383202)
(-0.397148 -0.027425 -0.388682)
(-0.355397 0.0086449 -0.322885)
(-0.361115 -0.0313579 -0.344475)
(-0.417184 -0.065137 -0.385667)
(-0.528287 -0.0566198 -0.480431)
(-0.332495 -0.00352937 -0.248358)
(-0.606455 0.110023 -0.607911)
(-0.600073 -0.0576141 -0.506073)
(-0.623506 -0.00948052 -0.544732)
(-0.652641 -0.0332867 -0.550144)
(-0.580444 -0.0596221 -0.49521)
(-0.389277 0.0151806 -0.282951)
(-0.349542 -0.0112349 -0.273983)
(-0.616071 -0.119758 -0.323713)
(-0.662603 -0.106926 -0.353822)
(-0.68878 -0.00390851 -0.473715)
(-0.711392 0.0200549 -0.501887)
(-0.659043 -0.0482792 -0.363918)
(-0.58107 -0.0593856 -0.280643)
(-0.598903 -0.0763286 -0.292516)
(-0.663119 -0.0775922 -0.363805)
(-0.608048 -0.0829594 -0.318704)
(-0.593038 -0.102248 -0.339243)
(-0.706957 -0.0495091 -0.458963)
(-0.657506 -0.0760372 -0.460255)
(-0.685007 -0.0702231 -0.456078)
(-0.709982 -0.0389968 -0.43953)
(-0.683032 -0.0606317 -0.394464)
(-0.683394 0.0561783 -0.52219)
(-0.724339 0.03988 -0.569887)
(-0.725583 -0.0434986 -0.443239)
(-0.713532 -0.0482055 -0.421864)
(-0.670738 -0.0361243 -0.406056)
(-0.721548 -0.0224284 -0.458372)
(-0.731993 -0.0265747 -0.504015)
(-0.744821 0.0462335 -0.558482)
(-0.693128 -0.105392 -0.518008)
(-0.750179 -0.0505493 -0.533272)
(-0.636695 0.0771273 -0.556917)
(-0.681194 0.135622 -0.557558)
(-0.628762 0.00508861 -0.38271)
(-0.654097 -0.145636 -0.476953)
(-0.671405 -0.140725 -0.484417)
(-0.593639 -0.14648 -0.270266)
(-0.473378 -0.0116494 -0.210844)
(-0.649338 -0.166201 -0.341896)
(-0.501423 -0.0394573 -0.489326)
(-0.495396 0.0527236 -0.563319)
(-0.692221 0.0226039 -0.544947)
(-0.650401 0.00840855 -0.520738)
(-0.443964 -0.0172653 -0.190189)
(-0.506495 0.0612925 -0.273092)
(-0.506576 0.018074 -0.250946)
(-0.551442 0.0385347 -0.284412)
(-0.669126 -0.0140033 -0.4281)
(-0.686183 -0.0544565 -0.452828)
(-0.601402 -0.160147 -0.329083)
(-0.650012 0.1336 -0.64996)
(-0.644611 -0.0674115 -0.477189)
(-0.690223 -0.0598809 -0.503839)
(-0.662223 -0.0889045 -0.490945)
(-0.703451 0.16478 -0.561967)
(-0.674459 0.117638 -0.591321)
(-0.649357 0.0705709 -0.540278)
(-0.429282 -0.00227364 -0.43448)
(-0.582537 -0.0514621 -0.468121)
(-0.674901 -0.0745626 -0.443648)
(-0.634924 -0.0272604 -0.353497)
(-0.649723 0.0651209 -0.574809)
(-0.639096 0.125859 -0.628896)
(-0.624689 0.182069 -0.633034)
(-0.656502 -0.159 -0.37387)
(-0.696623 -0.0623576 -0.42558)
(-0.754079 -0.0516488 -0.49728)
(-0.641699 -0.0530653 -0.541795)
(-0.650412 -0.0140614 -0.591176)
(-0.64602 0.0210635 -0.614288)
(-0.584669 -0.0109624 -0.552858)
(-0.643274 -0.0411629 -0.570832)
(-0.62568 -0.00176366 -0.571436)
(-0.653683 0.008325 -0.598298)
(-0.695678 0.0248981 -0.470606)
(-0.586615 -0.0820011 -0.467771)
(-0.605009 -0.0700932 -0.472637)
(-0.564186 -0.0112947 -0.285532)
(-0.533781 0.0313916 -0.283689)
(-0.651682 -0.126829 -0.484534)
(-0.726047 -0.116443 -0.429694)
(-0.634809 0.0924503 -0.580361)
(-0.613159 0.0995104 -0.548854)
(-0.516195 0.0603421 -0.2852)
(-0.662724 0.102935 -0.497568)
(-0.533704 -0.104046 -0.437649)
(-0.413927 0.00945352 -0.444498)
(-0.667307 0.0169098 -0.610395)
(-0.676236 -0.0454514 -0.382397)
(-0.339669 0.0442016 -0.229951)
(-0.698689 -0.0714066 -0.545769)
(-0.670883 -0.111714 -0.504608)
(-0.45746 0.0159543 -0.512294)
(-0.434276 0.0152359 -0.489639)
(-0.392034 0.0340801 -0.453715)
(-0.664566 -0.0804034 -0.532993)
(-0.592263 -0.0759959 -0.494934)
(-0.660691 -0.106 -0.395432)
(-0.722439 0.133476 -0.55015)
(-0.636174 -0.0631891 -0.380366)
(-0.637781 0.0668625 -0.548933)
(-0.709224 0.191505 -0.57754)
(-0.52603 -0.0420401 -0.481063)
(-0.595336 -0.00193891 -0.567428)
(-0.732093 0.158709 -0.572942)
(-0.747625 -0.0439704 -0.452843)
(-0.650192 -0.0910108 -0.361105)
(-0.728717 -0.0846753 -0.429324)
(-0.724704 -0.102655 -0.41788)
(-0.686699 -0.110545 -0.373745)
(-0.723034 -0.13896 -0.428066)
(-0.673067 -0.0779336 -0.415623)
(-0.468975 0.089459 -0.266096)
(-0.470926 0.079057 -0.260191)
(-0.345225 -0.038549 -0.288309)
(-0.36098 -0.0356916 -0.295489)
(-0.401722 -0.034599 -0.338195)
(-0.509945 0.0240167 -0.250076)
(-0.551839 0.0193381 -0.277381)
(-0.741463 0.093818 -0.562708)
(-0.685529 0.0657434 -0.477689)
(-0.587925 -0.106739 -0.437356)
(-0.638916 -0.0523904 -0.536129)
(-0.676675 -0.118242 -0.458264)
(-0.644669 -0.111415 -0.364279)
(-0.412538 0.0823134 -0.244233)
(-0.349851 0.00166068 -0.303879)
(-0.338939 0.00436908 -0.299773)
(-0.633931 0.115136 -0.600553)
(-0.664377 0.128427 -0.638849)
(-0.621406 0.196734 -0.593598)
(-0.687649 -0.0494472 -0.516237)
(-0.620142 0.0286729 -0.376322)
(-0.602621 0.00754846 -0.397821)
(-0.622184 0.00451795 -0.396343)
(-0.593335 -0.0223586 -0.380026)
(-0.637881 -0.0154508 -0.422537)
(-0.397503 -0.0599346 -0.364387)
(-0.681808 -0.0174613 -0.494286)
(-0.73247 -0.0292902 -0.553899)
(-0.671224 -0.0276869 -0.472472)
(-0.731823 -0.00915389 -0.55595)
(-0.640335 0.0962388 -0.532242)
(-0.709373 0.104661 -0.593174)
(-0.621478 0.0531067 -0.552475)
(-0.684521 0.104724 -0.578282)
(-0.373116 -0.0396721 -0.363936)
(-0.532489 -0.0576122 -0.492547)
(-0.646702 -0.0454363 -0.447128)
(-0.687453 -0.0308076 -0.458095)
(-0.683904 -0.026684 -0.453878)
(-0.77102 -0.0786893 -0.476055)
(-0.759071 0.0979028 -0.588535)
(-0.716041 0.0564686 -0.508956)
(-0.6835 -0.172639 -0.445471)
(-0.604097 -0.174025 -0.309462)
(-0.701842 0.0511185 -0.584568)
(-0.428262 -0.0766242 -0.379729)
(-0.490492 -0.107079 -0.414513)
(-0.489139 -0.102132 -0.408826)
(-0.384913 0.0368269 -0.267137)
(-0.323415 0.0127883 -0.188712)
(-0.619053 -0.0524347 -0.485252)
(-0.716353 -0.0623814 -0.436458)
(-0.584495 0.00323836 -0.557597)
(-0.695339 -0.0496968 -0.461267)
(-0.661498 -0.0690124 -0.373693)
(-0.401707 -0.0528357 -0.370145)
(-0.419069 -0.0506864 -0.387218)
(-0.519773 -0.0524035 -0.48958)
(-0.607612 -0.00894823 -0.547346)
(-0.382884 0.0278326 -0.23466)
(-0.343038 0.0134759 -0.212581)
(-0.7232 -0.0757506 -0.528662)
(-0.642537 0.0117755 -0.557215)
(-0.736984 0.123184 -0.559177)
(-0.695001 -0.0812237 -0.379108)
(-0.749665 -0.0711286 -0.452435)
(-0.725271 -0.0809544 -0.451836)
(-0.610748 -0.0159585 -0.521114)
(-0.308264 0.0356336 -0.277643)
(-0.494327 0.0187047 -0.540255)
(-0.692737 0.0472767 -0.583193)
(-0.671021 0.0355647 -0.452461)
(-0.365101 0.0238518 -0.246679)
(-0.582837 -0.0146236 -0.360339)
(-0.343725 -0.00137557 -0.286694)
(-0.68612 -0.0892522 -0.536829)
(-0.64378 -0.123024 -0.413629)
(-0.686085 -0.107604 -0.454608)
(-0.609264 -0.0503614 -0.306145)
(-0.289505 0.0582565 -0.268751)
(-0.53051 -0.0934432 -0.444974)
(-0.487159 -0.0985686 -0.428382)
(-0.610138 -0.0753348 -0.41099)
(-0.41926 0.0650319 -0.232549)
(-0.535403 -0.0890094 -0.451481)
(-0.598705 -0.0838019 -0.491266)
(-0.685125 0.142585 -0.610269)
(-0.585711 -0.0798493 -0.488931)
(-0.574458 -0.153806 -0.40763)
(-0.68033 -0.150206 -0.477762)
(-0.610676 -0.161571 -0.406703)
(-0.50995 -0.00490894 -0.520697)
(-0.492011 -0.0579422 -0.425957)
(-0.661751 -0.00934117 -0.443686)
(-0.703664 -0.011011 -0.44986)
(-0.63509 0.0438284 -0.403564)
(-0.664551 0.0617648 -0.432203)
(-0.50643 0.0978584 -0.296053)
(-0.340827 0.0600346 -0.314591)
(-0.649221 0.114426 -0.586216)
(-0.532299 -0.0612156 -0.47964)
(-0.614056 -0.0714885 -0.49254)
(-0.587176 -0.109408 -0.449054)
(-0.632377 -0.108705 -0.470733)
(-0.656647 -0.0333038 -0.442626)
(-0.706061 -0.00814274 -0.472567)
(-0.714229 0.0145107 -0.486516)
(-0.689791 -0.0020177 -0.457457)
(-0.302662 0.0272799 -0.253484)
(-0.346612 -0.00618211 -0.345589)
(-0.716482 0.0849236 -0.537882)
(-0.445265 -0.0100079 -0.488898)
(-0.482328 -0.0343059 -0.48834)
(-0.563143 -0.0120909 -0.515981)
(-0.578342 -0.0275947 -0.48489)
(-0.673262 -0.125481 -0.499948)
(-0.575354 -0.121433 -0.439243)
(-0.575812 -0.120199 -0.450956)
(-0.567766 -0.0371267 -0.471699)
(-0.580714 -0.0433074 -0.481201)
(-0.682927 -0.000262136 -0.420519)
(-0.722775 0.00462664 -0.464508)
(-0.639618 -0.0249024 -0.384841)
(-0.563357 0.0344833 -0.570073)
(-0.702789 0.174537 -0.554516)
(-0.694553 -0.0771237 -0.359926)
(-0.710128 -0.101876 -0.532935)
(-0.656131 -0.0901494 -0.505362)
(-0.622866 -0.0937929 -0.484355)
(-0.527219 -0.0436933 -0.229592)
(-0.420206 0.0124945 -0.441025)
(-0.316589 0.0439278 -0.297792)
(-0.385486 0.0498304 -0.410403)
(-0.426527 0.0301569 -0.455285)
(-0.588901 -0.0134266 -0.550954)
(-0.662704 0.0121708 -0.597828)
(-0.74649 -0.0725904 -0.477973)
(-0.368299 -0.0110411 -0.253714)
(-0.643211 -0.100499 -0.484349)
(-0.604106 0.108315 -0.61314)
(-0.625565 -0.0584479 -0.396751)
(-0.683576 -0.0283026 -0.440022)
(-0.62764 -0.0381256 -0.429809)
(-0.697596 -0.06953 -0.488322)
(-0.685203 -0.00876706 -0.535423)
(-0.565622 -0.0589511 -0.512344)
(-0.54349 -0.0840892 -0.479195)
(-0.470654 -0.0545462 -0.44547)
(-0.552356 -0.0603223 -0.237881)
(-0.692361 -0.00494237 -0.531921)
(-0.374502 0.0411722 -0.248874)
(-0.616417 -0.107935 -0.477169)
(-0.694646 -0.0301425 -0.552412)
(-0.661594 0.0170714 -0.610869)
(-0.666799 0.00929873 -0.480168)
(-0.586664 -0.0345309 -0.446838)
(-0.349154 0.0164022 -0.37914)
(-0.364302 0.0453675 -0.356693)
(-0.37902 0.0577024 -0.379023)
(-0.348014 -0.000274655 -0.348447)
(-0.409687 0.0172564 -0.41306)
(-0.598046 -0.00323999 -0.302999)
(-0.679129 -0.0110192 -0.449141)
(-0.644231 -0.0430978 -0.418904)
(-0.736781 -0.0454282 -0.44771)
(-0.703666 0.0619974 -0.512091)
(-0.738796 0.089227 -0.554369)
(-0.713815 0.00481356 -0.451599)
(-0.747124 0.0354074 -0.519972)
(-0.672797 -0.036269 -0.407228)
(-0.696669 -0.0363391 -0.421381)
(-0.658389 -0.0229119 -0.5409)
(-0.640115 -0.0310425 -0.471791)
(-0.65193 0.152013 -0.644896)
(-0.650917 0.129837 -0.641942)
(-0.575967 0.0123745 -0.368212)
(-0.690247 0.0201206 -0.578465)
(-0.615908 -0.0738778 -0.480533)
(-0.645988 -0.067173 -0.512155)
(-0.657647 -0.0672822 -0.513763)
(-0.60777 -0.16644 -0.327812)
(-0.652312 0.0224367 -0.564989)
(-0.686737 -0.143618 -0.472625)
(-0.647393 -0.131604 -0.473612)
(-0.395949 -0.0252583 -0.400931)
(-0.410006 -0.0403086 -0.410683)
(-0.453605 0.0940333 -0.262495)
(-0.344033 0.0962188 -0.237706)
(-0.63186 -0.0988964 -0.425307)
(-0.597084 -0.122321 -0.416554)
(-0.677134 0.0842239 -0.510875)
(-0.680149 0.0593859 -0.511497)
(-0.697435 0.0323915 -0.529467)
(-0.697678 0.037657 -0.530935)
(-0.727547 0.190723 -0.590292)
(-0.588128 0.0703589 -0.592123)
(-0.782457 0.187867 -0.655458)
(-0.575177 0.240823 -0.47608)
(-0.663472 -0.073029 -0.348621)
(-0.606195 -0.0793786 -0.487525)
(-0.618394 -0.0377053 -0.42948)
(-0.837244 -0.0564355 -0.612589)
(-0.660305 -0.101861 -0.332499)
(-0.589436 0.070239 -0.48217)
(-0.422702 -0.000927967 -0.325175)
(-0.661926 0.033291 -0.499534)
(-0.439288 0.156279 -0.343307)
(-0.616223 -0.0103109 -0.3332)
(-0.557071 0.075057 -0.326931)
(-0.609597 0.0874048 -0.602409)
(-0.769362 0.192032 -0.683948)
(-0.790332 0.153077 -0.672078)
(-0.692397 0.184941 -0.577846)
(-0.758871 0.130113 -0.701258)
(-0.847639 0.0359287 -0.629436)
(-0.716436 0.0612302 -0.52349)
(-0.462693 -0.048816 -0.434741)
(-0.783835 0.13012 -0.671465)
(-0.752399 0.226475 -0.66732)
(-0.782856 0.23457 -0.662071)
(-0.721298 -0.104258 -0.463554)
(-0.648249 -0.105096 -0.503473)
(-0.298819 0.0670094 -0.341621)
(-0.704534 -0.0568979 -0.499813)
(-0.679303 -0.00656339 -0.52575)
(-0.582882 0.206348 -0.530656)
(-0.692196 0.0366579 -0.605967)
(-0.675747 0.224454 -0.615285)
(-0.811619 0.146113 -0.653643)
(-0.803236 0.194369 -0.677626)
(-0.718181 0.186283 -0.651749)
(-0.732219 0.275796 -0.669657)
(-0.559743 0.20797 -0.514116)
(-0.724598 0.214215 -0.655247)
(-0.479282 0.202509 -0.445254)
(-0.674203 0.257318 -0.64216)
(-0.603745 0.240542 -0.544543)
(-0.520659 0.201905 -0.53896)
(-0.64702 -0.109933 -0.501159)
(-0.716321 -0.0534938 -0.525386)
(-0.675205 -0.107489 -0.503322)
(-0.790976 0.000134336 -0.619603)
(-0.759922 -0.0126475 -0.513989)
(-0.752027 0.101792 -0.582814)
(-0.697218 0.101768 -0.516216)
(-0.788458 0.140795 -0.614899)
(-0.681414 0.0873516 -0.494009)
(-0.67718 0.0934425 -0.493283)
(-0.645756 -0.0724608 -0.310586)
(-0.748689 -0.027492 -0.471443)
(-0.68578 -0.0841372 -0.511085)
(-0.741506 -0.0561377 -0.566155)
(-0.828859 -0.0203406 -0.603662)
(-0.799976 -0.0491021 -0.611125)
(-0.751781 -0.120747 -0.463972)
(-0.728478 -0.0851714 -0.437802)
(-0.634649 -0.139512 -0.375413)
(-0.856964 0.0296634 -0.628763)
(-0.831584 -0.0319674 -0.585552)
(-0.855554 -0.030498 -0.567662)
(-0.822641 -0.0225769 -0.551522)
(-0.751854 -0.0654262 -0.4538)
(-0.588741 0.0045892 -0.306191)
(-0.819395 0.0578004 -0.651472)
(-0.648037 0.0523975 -0.499495)
(-0.76966 -0.0500289 -0.50835)
(-0.721761 0.0203261 -0.484687)
(-0.786826 0.0399087 -0.619732)
(-0.380255 0.00231816 -0.169645)
(-0.566232 0.0212797 -0.441483)
(-0.627116 0.0346313 -0.442291)
(-0.813901 -0.0229105 -0.595313)
(-0.834735 -0.0205558 -0.624373)
(-0.868074 -0.0244416 -0.595875)
(-0.832455 0.00192615 -0.632069)
(-0.728064 0.275198 -0.698459)
(-0.416111 0.214121 -0.417578)
(-0.700118 0.185269 -0.693655)
(-0.720268 0.176812 -0.713383)
(-0.712851 0.206232 -0.616072)
(-0.566917 -0.108805 -0.447279)
(-0.483922 0.141465 -0.361996)
(-0.461467 0.150681 -0.523097)
(-0.343322 0.0932178 -0.267651)
(-0.474668 0.13448 -0.488362)
(-0.453159 0.179702 -0.433689)
(-0.504514 0.006862 -0.239617)
(-0.528222 0.0247874 -0.259666)
(-0.729919 -0.00334357 -0.6202)
(-0.728398 -0.0130974 -0.620603)
(-0.708121 -0.0677391 -0.548637)
(-0.629588 -0.0910723 -0.481013)
(-0.60632 0.0238168 -0.453321)
(-0.704942 0.0131807 -0.464869)
(-0.767898 0.180973 -0.69254)
(-0.817344 0.121662 -0.650001)
(-0.782815 0.153646 -0.692186)
(-0.718217 0.13232 -0.574603)
(-0.791478 0.183032 -0.673353)
(-0.800826 0.138531 -0.676399)
(-0.719495 0.0447088 -0.640243)
(-0.621975 0.0330958 -0.538108)
(-0.638443 0.0535736 -0.553743)
(-0.772846 0.154666 -0.702931)
(-0.650152 0.136787 -0.576061)
(-0.64128 0.0959178 -0.556845)
(-0.619478 0.0796976 -0.61402)
(-0.582382 0.0746152 -0.562648)
(-0.733741 0.094287 -0.58342)
(-0.817929 0.1057 -0.632007)
(-0.812352 0.0890444 -0.669396)
(-0.805916 0.133511 -0.679792)
(-0.766819 0.0604544 -0.566306)
(-0.83285 0.10337 -0.641878)
(-0.788897 0.0992922 -0.670896)
(-0.642183 -0.0558735 -0.450211)
(-0.591475 -0.100293 -0.445519)
(-0.666343 0.00572472 -0.516742)
(-0.6531 0.12495 -0.429559)
(-0.746004 0.22836 -0.703809)
(-0.734336 0.0635022 -0.571435)
(-0.72223 0.189122 -0.633473)
(-0.661318 0.220142 -0.575413)
(-0.738699 0.0868598 -0.649459)
(-0.608201 -0.0662912 -0.400721)
(-0.61211 0.054691 -0.366841)
(-0.741134 0.175896 -0.712039)
(-0.642711 -0.0170261 -0.589948)
(-0.722973 0.0657457 -0.639073)
(-0.76277 0.0781837 -0.644266)
(-0.508803 0.143518 -0.477131)
(-0.68917 0.160485 -0.636209)
(-0.530886 0.138365 -0.540042)
(-0.472791 0.0142653 -0.498141)
(-0.323778 0.0202572 -0.21863)
(-0.764399 -0.0197362 -0.55838)
(-0.826079 0.0313993 -0.629567)
(-0.841624 0.0468281 -0.620362)
(-0.738598 -0.0796643 -0.469798)
(-0.815432 -0.0292078 -0.557912)
(-0.757486 0.0190734 -0.510555)
(-0.504796 0.065185 -0.415327)
(-0.587165 0.0303632 -0.326731)
(-0.803113 0.0522821 -0.658174)
(-0.60911 0.115195 -0.476725)
(-0.722383 0.039467 -0.518772)
(-0.740571 0.0177177 -0.498716)
(-0.721674 0.119991 -0.604203)
(-0.46579 0.116621 -0.425477)
(-0.320147 0.0158334 -0.302365)
(-0.537283 0.0471122 -0.51087)
(-0.510163 0.0340773 -0.522923)
(-0.708724 0.0673819 -0.617397)
(-0.609444 0.0921593 -0.406941)
(-0.508641 0.0445888 -0.282776)
(-0.500956 0.0833209 -0.429568)
(-0.413115 0.0504647 -0.241425)
(-0.484105 0.0498291 -0.454834)
(-0.777328 0.0772427 -0.634113)
(-0.816927 0.079878 -0.669832)
(-0.827699 0.102743 -0.652209)
(-0.732666 0.123719 -0.623602)
(-0.84192 0.0706038 -0.639251)
(-0.831341 0.0967072 -0.65889)
(-0.724345 0.11302 -0.629969)
(-0.610617 -0.0223057 -0.465647)
(-0.671017 -0.0057555 -0.514806)
(-0.632777 -0.0135527 -0.452515)
(-0.355555 0.115108 -0.25656)
(-0.758314 0.214313 -0.698462)
(-0.777207 0.2423 -0.686198)
(-0.770428 0.214953 -0.707797)
(-0.781621 0.232884 -0.691245)
(-0.772741 0.210212 -0.679935)
(-0.781797 0.20384 -0.668429)
(-0.778687 0.235054 -0.693413)
(-0.406179 0.178882 -0.365947)
(-0.531424 0.147262 -0.345465)
(-0.447724 0.196179 -0.391802)
(-0.526697 0.198261 -0.38116)
(-0.509118 0.220276 -0.415778)
(-0.455985 0.180408 -0.372029)
(-0.557146 -0.0182267 -0.258205)
(-0.589445 -0.0879125 -0.292963)
(-0.61252 -0.0672712 -0.294381)
(-0.681674 -0.0718565 -0.366093)
(-0.573864 -0.0191115 -0.27005)
(-0.788024 0.235208 -0.675744)
(-0.768113 0.179024 -0.625485)
(-0.759894 0.224256 -0.658757)
(-0.667922 0.154097 -0.545749)
(-0.759474 0.172837 -0.603167)
(-0.755995 0.190134 -0.635282)
(-0.578526 -0.0916285 -0.478035)
(-0.549814 -0.118053 -0.440554)
(-0.560989 -0.146752 -0.42189)
(-0.51794 -0.10899 -0.43415)
(-0.729225 0.00725035 -0.502666)
(-0.801131 -0.00563383 -0.580386)
(-0.722576 -0.00337611 -0.532598)
(-0.746344 -0.0121797 -0.545235)
(-0.704361 -0.0174184 -0.4804)
(-0.761547 -0.00110473 -0.565694)
(-0.773773 -0.116358 -0.555889)
(-0.667866 -0.0630468 -0.354993)
(-0.588529 -0.1044 -0.261946)
(-0.685534 -0.104973 -0.374505)
(-0.635136 -0.0552589 -0.301802)
(-0.719265 -0.10333 -0.385106)
(-0.746227 -0.103067 -0.442533)
(-0.769156 0.0454556 -0.616153)
(-0.673796 0.0375602 -0.552735)
(-0.698667 0.0063071 -0.581362)
(-0.627788 0.0368652 -0.526002)
(-0.680945 0.0668582 -0.573668)
(-0.654118 0.0605513 -0.545247)
(-0.654301 0.031133 -0.551862)
(-0.479194 0.0332975 -0.397516)
(-0.634639 0.0322875 -0.528112)
(-0.529959 0.00256991 -0.472107)
(-0.593225 0.00688063 -0.500432)
(-0.479608 0.0163242 -0.372544)
(-0.479528 0.0197563 -0.374068)
(-0.581401 -0.00164836 -0.499681)
(-0.821764 -0.086962 -0.597001)
(-0.652516 0.00413036 -0.485807)
(-0.751057 0.0327164 -0.575093)
(-0.38768 -0.0256829 -0.356666)
(-0.426653 -0.0746213 -0.395456)
(-0.340319 0.134844 -0.307074)
(-0.322686 0.0966989 -0.253656)
(-0.364014 0.13342 -0.314527)
(-0.387766 0.138711 -0.312427)
(-0.673663 0.0303339 -0.396216)
(-0.71574 0.0675614 -0.484178)
(-0.606977 0.0352352 -0.328551)
(-0.631064 -0.0112901 -0.337496)
(-0.653378 0.0671056 -0.393134)
(-0.497002 0.128042 -0.37078)
(-0.598739 0.141633 -0.44464)
(-0.572772 0.0731029 -0.344942)
(-0.506842 0.101467 -0.323598)
(-0.501546 0.0742149 -0.290982)
(-0.604109 0.0893479 -0.386467)
(-0.659614 0.155001 -0.63413)
(-0.598041 0.106022 -0.584816)
(-0.766514 0.0144225 -0.526302)
(-0.683628 -0.0125408 -0.44054)
(-0.742896 0.172983 -0.650392)
(-0.787257 0.14281 -0.692686)
(-0.708346 0.173931 -0.628733)
(-0.77757 0.160027 -0.694098)
(-0.777061 0.177842 -0.681791)
(-0.787659 0.179522 -0.687918)
(-0.769655 0.16008 -0.686052)
(-0.654532 0.0464561 -0.563796)
(-0.647795 0.0773472 -0.568271)
(-0.617244 0.0813259 -0.513687)
(-0.642041 0.0847322 -0.5631)
(-0.783051 0.114491 -0.673874)
(-0.787488 0.138837 -0.693241)
(-0.759544 0.131968 -0.655611)
(-0.785401 0.151371 -0.686312)
(-0.790839 0.134366 -0.67674)
(-0.796221 0.138299 -0.68124)
(-0.782142 0.141486 -0.682663)
(-0.638146 0.127234 -0.62909)
(-0.636495 0.145923 -0.620266)
(-0.597076 0.121359 -0.613686)
(-0.582552 0.100776 -0.587719)
(-0.626211 0.157216 -0.634578)
(-0.746291 0.181341 -0.676348)
(-0.745086 0.0594802 -0.60365)
(-0.737921 0.161958 -0.646891)
(-0.748428 0.101193 -0.60315)
(-0.723924 0.177915 -0.633911)
(-0.719706 0.173293 -0.622968)
(-0.751135 0.0998806 -0.614334)
(-0.61631 -0.00027113 -0.529437)
(-0.71442 0.0145024 -0.556585)
(-0.591144 -0.0310769 -0.4684)
(-0.731375 0.0305623 -0.634247)
(-0.74544 0.0533172 -0.609513)
(-0.763984 0.0814973 -0.656746)
(-0.753108 0.0987283 -0.648122)
(-0.73457 0.0686842 -0.659149)
(-0.730799 0.0639121 -0.654003)
(-0.756218 0.0877304 -0.642295)
(-0.378342 0.0120675 -0.387181)
(-0.394075 -0.0121806 -0.412546)
(-0.363689 0.0256832 -0.391994)
(-0.74657 0.0130837 -0.532214)
(-0.820711 0.0577351 -0.628037)
(-0.755826 0.0202277 -0.571022)
(-0.830118 0.0494396 -0.63382)
(-0.828672 0.025323 -0.600488)
(-0.837578 0.0361753 -0.603453)
(-0.817005 0.043189 -0.621281)
(-0.767625 0.103372 -0.649924)
(-0.60477 0.137618 -0.520496)
(-0.735248 0.118432 -0.618268)
(-0.634979 0.130049 -0.521052)
(-0.7509 0.0894964 -0.596442)
(-0.739216 0.0810131 -0.577611)
(-0.673746 0.136063 -0.550116)
(-0.640062 -0.0716354 -0.539961)
(-0.616529 0.0458031 -0.561315)
(-0.611376 -0.0668316 -0.52849)
(-0.554652 0.00269233 -0.521693)
(-0.56578 -0.0464789 -0.51768)
(-0.562555 -0.0295003 -0.521364)
(-0.590445 -0.00919932 -0.540268)
(-0.466849 -0.0245648 -0.444674)