/*--------------------------------*- C++ -*----------------------------------*\
| =========                 |                                                 |
| \\      /  F ield         | OpenFOAM: The Open Source CFD Toolbox           |
|  \\    /   O peration     | Version:  v1612+                                |
|   \\  /    A nd           | Web:      www.OpenFOAM.com                      |
|    \\/     M anipulation  |                                                 |
\*---------------------------------------------------------------------------*/
FoamFile
{
    version     2.0;
    format      ascii;
    class       volVectorField;
    location    "118";
    object      wallShearStress;
}
// * * * * * * * * * * * * * * * * * * * * * * * * * * * * * * * * * * * * * //

dimensions      [0 2 -2 0 0 0 0];

internalField   uniform (0 0 0);

boundaryField
{
    WALL
    {
        type            calculated;
        value           nonuniform List<vector> 
1494
(
(-0.00312074 -0.0133989 0.00360825)
(-0.00298437 -0.0135284 0.00370831)
(-0.00275898 -0.012628 0.00343791)
(-0.00288456 -0.0124509 0.00346451)
(-0.00288474 -0.0128753 0.00346224)
(-0.00306514 -0.01312 0.00362353)
(-0.0027764 -0.0129901 0.0035559)
(-0.00260601 -0.0123632 0.00356464)
(-0.00311455 -0.0133661 0.00359177)
(-0.00323283 -0.0137864 0.0037237)
(-0.00307248 -0.0130777 0.00344175)
(-0.00291633 -0.0124428 0.00339309)
(-0.00303098 -0.0130758 0.00409176)
(-0.00286708 -0.0127181 0.00360716)
(-0.00307015 -0.0134109 0.00369411)
(-0.00310593 -0.0135935 0.00374134)
(-0.00303612 -0.0135897 0.00384687)
(-0.00295566 -0.0135529 0.00387761)
(-0.0029814 -0.0130471 0.00348887)
(-0.00275848 -0.0128293 0.00351083)
(-0.00290014 -0.0132941 0.0037846)
(-0.00258251 -0.0125612 0.00369239)
(-0.00276989 -0.0125675 0.00353746)
(-0.00265637 -0.0124138 0.00348143)
(-0.00267663 -0.0128712 0.00391711)
(-0.00262765 -0.0118291 0.00363681)
(-0.00311652 -0.0134802 0.0037398)
(-0.00278759 -0.0130357 0.00363783)
(-0.00291063 -0.0132024 0.00364042)
(-0.00295066 -0.013302 0.00370828)
(-0.00287379 -0.0131486 0.00359534)
(-0.00313236 -0.0131445 0.00361533)
(-0.00292556 -0.0129186 0.00334603)
(-0.00283136 -0.0125805 0.00324518)
(-0.00290679 -0.0131907 0.00341015)
(-0.00305742 -0.0132931 0.00368882)
(-0.00305053 -0.0130435 0.0033936)
(-0.00297832 -0.0134905 0.00369296)
(-0.0029123 -0.0133914 0.00359093)
(-0.00289399 -0.0133225 0.00370054)
(-0.00304516 -0.0135119 0.00373049)
(-0.00301996 -0.0134673 0.00374804)
(-0.00292604 -0.0132478 0.00365657)
(-0.00306955 -0.0135229 0.00398668)
(-0.00307281 -0.0135893 0.0038581)
(-0.00307882 -0.0136292 0.00387135)
(-0.00293442 -0.0131867 0.00353661)
(-0.00277876 -0.0126487 0.00375141)
(-0.00272437 -0.012552 0.00329777)
(-0.0032183 -0.01318 0.00349049)
(-0.00280487 -0.0124667 0.0033443)
(-0.00271266 -0.0127044 0.00359995)
(-0.00297299 -0.0127208 0.00359145)
(-0.00297275 -0.0125337 0.0034754)
(-0.00293698 -0.0128297 0.00362651)
(-0.00288629 -0.0126583 0.00357185)
(-0.00284041 -0.0126633 0.00346722)
(-0.00270984 -0.0125534 0.00342939)
(-0.00290092 -0.0129726 0.00363852)
(-0.00277705 -0.0130641 0.00363797)
(-0.00275466 -0.0122915 0.00331646)
(-0.00281028 -0.0127344 0.00345326)
(-0.00263201 -0.012534 0.0033809)
(-0.00290166 -0.0127655 0.00356824)
(-0.00254527 -0.0122827 0.00321852)
(-0.00257679 -0.0125129 0.00335015)
(-0.00273075 -0.0130607 0.00355838)
(-0.00273785 -0.0121853 0.00344794)
(-0.00261614 -0.0128446 0.00335501)
(-0.00274078 -0.0128718 0.00357356)
(-0.00261152 -0.0125839 0.00339655)
(-0.00269079 -0.0126685 0.0035141)
(-0.00287334 -0.0128069 0.00355997)
(-0.00283162 -0.0129637 0.00347944)
(-0.00280895 -0.0128383 0.00361973)
(-0.00276631 -0.0126159 0.00352793)
(-0.00288324 -0.0126154 0.00345089)
(-0.00284352 -0.0129002 0.00345608)
(-0.00275275 -0.0129072 0.0035071)
(-0.00280573 -0.0131069 0.00360976)
(-0.00284935 -0.0128253 0.0035429)
(-0.00268679 -0.012164 0.00333349)
(-0.00280986 -0.0129091 0.00363596)
(-0.00287849 -0.0128915 0.00350464)
(-0.00299489 -0.0136009 0.00369822)
(-0.00301551 -0.0134163 0.00370152)
(-0.00302246 -0.0135349 0.00361302)
(-0.00304598 -0.013488 0.00368284)
(-0.0033006 -0.0137647 0.00362676)
(-0.0032233 -0.0139087 0.00379603)
(-0.00295439 -0.0135004 0.0036622)
(-0.0027373 -0.0132184 0.0038689)
(-0.0030872 -0.0140695 0.00383914)
(-0.002791 -0.0133335 0.00380702)
(-0.0028969 -0.0140459 0.00398737)
(-0.00300086 -0.0135148 0.00371784)
(-0.00305048 -0.0135311 0.00374804)
(-0.00295379 -0.0132237 0.00370265)
(-0.00286868 -0.0132514 0.00375717)
(-0.00304605 -0.0138257 0.00381512)
(-0.00310138 -0.013532 0.00368893)
(-0.00315724 -0.013619 0.00356392)
(-0.00292383 -0.0134455 0.00375243)
(-0.00274858 -0.0134351 0.00390886)
(-0.00292726 -0.0134589 0.00372634)
(-0.00322499 -0.0142769 0.0039346)
(-0.00288887 -0.0138587 0.00418851)
(-0.00290955 -0.0134814 0.00387795)
(-0.00323975 -0.0135304 0.00363116)
(-0.00295126 -0.013397 0.0037039)
(-0.00316632 -0.0139103 0.00374296)
(-0.00296746 -0.0138931 0.00383634)
(-0.00295075 -0.0136863 0.00386037)
(-0.00328903 -0.0136803 0.00361418)
(-0.0030474 -0.0134189 0.00364935)
(-0.00299043 -0.0136147 0.00370326)
(-0.00313325 -0.0139901 0.00382677)
(-0.00290309 -0.0132968 0.00362299)
(-0.00304798 -0.01344 0.00364856)
(-0.00317014 -0.0132766 0.00363802)
(-0.00313087 -0.0134731 0.00376311)
(-0.00318519 -0.01354 0.00367037)
(-0.00311714 -0.0134236 0.00359737)
(-0.0030536 -0.013304 0.00361767)
(-0.00304595 -0.013443 0.00366599)
(-0.00313711 -0.0132268 0.00354847)
(-0.0030428 -0.0131941 0.00348802)
(-0.00326449 -0.0137508 0.00370837)
(-0.00272188 -0.0127526 0.00324436)
(-0.00261 -0.0126792 0.00314521)
(-0.00266972 -0.0130184 0.00342891)
(-0.00278601 -0.0128048 0.00371413)
(-0.00260718 -0.0124393 0.00364999)
(-0.00295079 -0.0129131 0.0034597)
(-0.00283904 -0.0126283 0.00354714)
(-0.00289165 -0.0133047 0.00354236)
(-0.00280622 -0.0124447 0.00357046)
(-0.00290648 -0.012896 0.00385121)
(-0.00289637 -0.0133503 0.00360004)
(-0.00275506 -0.0126752 0.00353966)
(-0.00285288 -0.0126721 0.0033383)
(-0.00287152 -0.0128586 0.00360613)
(-0.00268553 -0.0126784 0.0037214)
(-0.00270489 -0.0129778 0.00364437)
(-0.00287805 -0.0130689 0.0035289)
(-0.00273351 -0.0126779 0.00335124)
(-0.0027072 -0.0125163 0.00359096)
(-0.00271944 -0.0121359 0.00329721)
(-0.00274448 -0.012668 0.00342971)
(-0.00279537 -0.0122123 0.00359625)
(-0.00298177 -0.0129409 0.00349287)
(-0.00281692 -0.0128101 0.00346782)
(-0.002955 -0.012984 0.00346489)
(-0.00305927 -0.0129832 0.00343963)
(-0.00295175 -0.0126412 0.00345035)
(-0.00297695 -0.0131913 0.0034903)
(-0.00291954 -0.0128609 0.00351527)
(-0.00275035 -0.0125139 0.00344306)
(-0.00280689 -0.0125709 0.00369148)
(-0.00303562 -0.0128419 0.0034154)
(-0.00279352 -0.0130454 0.00356813)
(-0.00293325 -0.0131905 0.00348069)
(-0.00336271 -0.0138389 0.00398923)
(-0.00305559 -0.012747 0.0035561)
(-0.00298922 -0.0131064 0.00373489)
(-0.00302128 -0.0137355 0.00384803)
(-0.00310635 -0.0131455 0.00369213)
(-0.00308063 -0.0134296 0.00383016)
(-0.0026341 -0.0123254 0.00339414)
(-0.00313794 -0.0133338 0.00375336)
(-0.00306294 -0.0130093 0.00361157)
(-0.00305488 -0.0131342 0.00363232)
(-0.0032198 -0.0134358 0.00367991)
(-0.00302901 -0.0126857 0.00374235)
(-0.00307046 -0.0128119 0.00364809)
(-0.00292653 -0.0129316 0.00361311)
(-0.00312701 -0.0131472 0.00390064)
(-0.00290688 -0.0127851 0.00348126)
(-0.00292388 -0.0130643 0.00357817)
(-0.00281769 -0.0122532 0.00331473)
(-0.00278442 -0.0124123 0.00371752)
(-0.00278741 -0.0119405 0.00322655)
(-0.00269579 -0.0125472 0.00331117)
(-0.00252077 -0.0117567 0.00335177)
(-0.00271928 -0.0120968 0.00341766)
(-0.00306396 -0.0132534 0.00372508)
(-0.00266305 -0.0123618 0.00344962)
(-0.0027071 -0.0136703 0.00357449)
(-0.00281236 -0.0125838 0.00341591)
(-0.0026863 -0.0129138 0.00366384)
(-0.0031344 -0.0130123 0.00327072)
(-0.00274782 -0.0131117 0.00371654)
(-0.0029012 -0.0134515 0.00372814)
(-0.00302831 -0.0129685 0.00333532)
(-0.00301635 -0.0133464 0.00350333)
(-0.00283734 -0.0130988 0.00354033)
(-0.00290863 -0.0132625 0.0035002)
(-0.00281203 -0.0130224 0.00344724)
(-0.00281569 -0.0130895 0.00351408)
(-0.00283959 -0.0125346 0.00330532)
(-0.00296847 -0.013552 0.00366149)
(-0.00301057 -0.0135208 0.00371821)
(-0.00312323 -0.012981 0.00349073)
(-0.00314969 -0.0136139 0.00382071)
(-0.00316471 -0.0138057 0.00382939)
(-0.00322553 -0.013417 0.00361783)
(-0.00288928 -0.0126235 0.00326711)
(-0.00296763 -0.0133166 0.00355912)
(-0.00276996 -0.0131838 0.00376654)
(-0.00276262 -0.0124177 0.00338269)
(-0.00297099 -0.0128184 0.00327225)
(-0.00267629 -0.0129718 0.00363133)
(-0.00309574 -0.0130074 0.00353386)
(-0.0027354 -0.012821 0.00355128)
(-0.0027744 -0.0129705 0.00355359)
(-0.00274209 -0.012948 0.00354325)
(-0.00303382 -0.0131767 0.0036524)
(-0.00289992 -0.0129144 0.00356326)
(-0.00281434 -0.0127944 0.00346581)
(-0.00294515 -0.012547 0.0033011)
(-0.00296661 -0.0131555 0.00356199)
(-0.00268915 -0.0129999 0.00350459)
(-0.00287663 -0.0126641 0.00338518)
(-0.00276503 -0.012375 0.0033271)
(-0.00289789 -0.0123789 0.00355556)
(-0.00282355 -0.0129343 0.00360161)
(-0.0028205 -0.0129433 0.00351217)
(-0.00280669 -0.0128154 0.00359703)
(-0.00290886 -0.012464 0.00362564)
(-0.0032142 -0.0128436 0.00355103)
(-0.00289139 -0.0127105 0.00352357)
(-0.00299478 -0.013537 0.00377526)
(-0.00303202 -0.0127185 0.00343207)
(-0.0030031 -0.0128367 0.00341802)
(-0.00263808 -0.0125961 0.00356754)
(-0.00280852 -0.0130815 0.00360483)
(-0.00274044 -0.01228 0.00342635)
(-0.0028881 -0.012721 0.00338556)
(-0.00262349 -0.0125001 0.00349198)
(-0.00253425 -0.0125298 0.00331763)
(-0.00290489 -0.0124869 0.00340452)
(-0.0026211 -0.0127692 0.0035012)
(-0.00235302 -0.0126799 0.0032771)
(-0.00279091 -0.0123161 0.00326529)
(-0.00282718 -0.0124225 0.00351806)
(-0.00294792 -0.0129257 0.00364303)
(-0.00275325 -0.0127154 0.00356585)
(-0.0029035 -0.0128203 0.00365804)
(-0.00271001 -0.0127037 0.00349989)
(-0.00293603 -0.0127819 0.00344494)
(-0.00297524 -0.0126689 0.00334761)
(-0.00305115 -0.0129418 0.00349383)
(-0.00311758 -0.0131662 0.00354801)
(-0.00300596 -0.013174 0.00367412)
(-0.00275853 -0.0128115 0.00351153)
(-0.00304151 -0.0131684 0.00383607)
(-0.00316884 -0.0135362 0.00364152)
(-0.00292427 -0.0129719 0.00372479)
(-0.00302134 -0.013694 0.00366699)
(-0.00295839 -0.0133713 0.00361253)
(-0.00316461 -0.0130748 0.00396245)
(-0.00273483 -0.0130029 0.00372533)
(-0.00301641 -0.012814 0.00349287)
(-0.00289298 -0.0130376 0.0036348)
(-0.00310083 -0.0129646 0.00348943)
(-0.0027591 -0.0128586 0.00372663)
(-0.00305254 -0.0129643 0.00350297)
(-0.00261544 -0.0124716 0.00375141)
(-0.0029298 -0.013375 0.00357218)
(-0.00270391 -0.0129125 0.0035363)
(-0.00260505 -0.0125577 0.00387378)
(-0.0027523 -0.012599 0.003503)
(-0.00259559 -0.0125891 0.00371003)
(-0.00290833 -0.0130735 0.00371888)
(-0.00279982 -0.0125327 0.00346467)
(-0.00281134 -0.0128933 0.00355389)
(-0.0029368 -0.0130018 0.00336464)
(-0.00300686 -0.0130491 0.00345606)
(-0.00268617 -0.0123613 0.00343525)
(-0.00285505 -0.0130035 0.0035025)
(-0.00286803 -0.0128412 0.00328006)
(-0.00275544 -0.0128314 0.0037084)
(-0.00276935 -0.0131161 0.00366719)
(-0.00287482 -0.0127098 0.00329704)
(-0.00267891 -0.0129656 0.00369226)
(-0.00310246 -0.0128044 0.00363463)
(-0.00277972 -0.012705 0.00345545)
(-0.00298604 -0.0131054 0.00379746)
(-0.00272822 -0.0127136 0.00341079)
(-0.00296228 -0.0129698 0.00362941)
(-0.00298296 -0.0132079 0.00385678)
(-0.00268836 -0.0127182 0.00355643)
(-0.00276095 -0.0126534 0.00357518)
(-0.00256996 -0.0128052 0.00341722)
(-0.00277382 -0.0136634 0.00375202)
(-0.00261197 -0.0130223 0.00338485)
(-0.0026867 -0.013086 0.00337787)
(-0.00283445 -0.012639 0.00339775)
(-0.00265163 -0.012661 0.00330701)
(-0.00273944 -0.0133305 0.00340364)
(-0.00286755 -0.0127205 0.00338739)
(-0.00279833 -0.0126109 0.00341682)
(-0.00265812 -0.0126205 0.00321829)
(-0.00290356 -0.013138 0.00368182)
(-0.00298127 -0.0130769 0.00374731)
(-0.00258503 -0.0121667 0.0032524)
(-0.00261442 -0.0122842 0.00339756)
(-0.00263459 -0.0123285 0.00327724)
(-0.00265953 -0.0123268 0.00329332)
(-0.00272685 -0.0125513 0.00344769)
(-0.0027053 -0.0122829 0.00324395)
(-0.00264388 -0.0125918 0.0032502)
(-0.0027737 -0.0123215 0.00340555)
(-0.00262337 -0.0127899 0.00350397)
(-0.0026276 -0.0126139 0.00337416)
(-0.00266106 -0.012121 0.00335024)
(-0.00272042 -0.0126098 0.00342356)
(-0.00285268 -0.0127522 0.00365497)
(-0.00305457 -0.0125918 0.00355901)
(-0.00271123 -0.0128585 0.00354461)
(-0.00278171 -0.0125001 0.00352931)
(-0.00276967 -0.0128305 0.00354929)
(-0.00274926 -0.0124651 0.00339883)
(-0.00271893 -0.0125685 0.00350131)
(-0.00291103 -0.0128738 0.00355164)
(-0.00275457 -0.0131247 0.00353949)
(-0.00281112 -0.0129682 0.00354668)
(-0.0027269 -0.0132368 0.00344762)
(-0.00317182 -0.01327 0.0039066)
(-0.00275113 -0.0124378 0.00316531)
(-0.00309933 -0.0127068 0.00354553)
(-0.00273005 -0.0124263 0.00322977)
(-0.00271434 -0.0127114 0.00334748)
(-0.00310029 -0.0129611 0.00345519)
(-0.00277679 -0.0125117 0.00343893)
(-0.00291406 -0.0124789 0.00334061)
(-0.00297524 -0.0124877 0.00337468)
(-0.00273609 -0.0127306 0.00336787)
(-0.00271785 -0.0126525 0.00358035)
(-0.00267627 -0.0129689 0.00331849)
(-0.0025716 -0.0130751 0.00331222)
(-0.00270755 -0.0120783 0.00328737)
(-0.00281228 -0.012542 0.00352356)
(-0.00286038 -0.0125248 0.0034769)
(-0.0029107 -0.0123989 0.00349795)
(-0.00243099 -0.0126315 0.00299911)
(-0.00270108 -0.0129629 0.00335384)
(-0.00255665 -0.0124592 0.00321434)
(-0.0029391 -0.0128951 0.00351038)
(-0.00304155 -0.012792 0.00344339)
(-0.00305395 -0.0128429 0.00340843)
(-0.0030818 -0.0131172 0.00359283)
(-0.00282944 -0.0128863 0.0035721)
(-0.00284109 -0.012835 0.00349825)
(-0.00301992 -0.0127748 0.00353477)
(-0.0030505 -0.0129678 0.00359866)
(-0.00274701 -0.0128429 0.00357891)
(-0.00335734 -0.0134563 0.00365319)
(-0.00316514 -0.0132592 0.00389178)
(-0.00296334 -0.0125965 0.00351305)
(-0.00270961 -0.0128201 0.00356154)
(-0.00274654 -0.0124404 0.00346312)
(-0.00299626 -0.0127274 0.00345794)
(-0.0027767 -0.0125704 0.0034287)
(-0.00273694 -0.0126777 0.00348938)
(-0.00318158 -0.0132973 0.00362797)
(-0.00279972 -0.0130529 0.00361833)
(-0.0028145 -0.0125902 0.003403)
(-0.00278923 -0.012987 0.00353113)
(-0.00313538 -0.01283 0.00364432)
(-0.00291249 -0.0132384 0.00358296)
(-0.00308384 -0.0130457 0.00370731)
(-0.00270954 -0.0124498 0.00342489)
(-0.00296914 -0.012804 0.00373573)
(-0.00300938 -0.0128864 0.00360494)
(-0.00333164 -0.0128595 0.00375575)
(-0.00294464 -0.0126521 0.00351988)
(-0.00285338 -0.0126699 0.00359361)
(-0.00298151 -0.0132012 0.00363318)
(-0.00259262 -0.0131357 0.00354417)
(-0.00313291 -0.0133003 0.00364362)
(-0.00269696 -0.0134713 0.00356208)
(-0.00298614 -0.0131389 0.00362586)
(-0.00304022 -0.0130666 0.00380326)
(-0.00312216 -0.0131324 0.0039426)
(-0.00281017 -0.0128615 0.00367273)
(-0.00311747 -0.0132281 0.00378425)
(-0.00293694 -0.0125376 0.00361113)
(-0.0028941 -0.0129441 0.00370758)
(-0.00324249 -0.0139434 0.00377637)
(-0.00288512 -0.0133733 0.00375645)
(-0.00300401 -0.0132059 0.00377514)
(-0.00292048 -0.0135205 0.0034082)
(-0.00270097 -0.0119862 0.00335561)
(-0.00262415 -0.012451 0.00295935)
(-0.00273934 -0.0135234 0.00352249)
(-0.0031077 -0.0127826 0.00377004)
(-0.00250476 -0.01228 0.00325804)
(-0.00281481 -0.0129243 0.00331359)
(-0.0028229 -0.0127754 0.00376374)
(-0.00298856 -0.0131174 0.00353341)
(-0.00290051 -0.0131199 0.00356302)
(-0.00283589 -0.0130651 0.00350278)
(-0.00293023 -0.0129599 0.00338826)
(-0.00290677 -0.0135167 0.00376181)
(-0.00274347 -0.0124498 0.0035309)
(-0.00307714 -0.0133745 0.00388095)
(-0.00286637 -0.0126678 0.003652)
(-0.0031355 -0.013494 0.00388295)
(-0.00280981 -0.0129879 0.00371669)
(-0.00287807 -0.013595 0.00381913)
(-0.0029698 -0.0133907 0.00364347)
(-0.00286765 -0.0135041 0.00367554)
(-0.00286781 -0.0133835 0.00374213)
(-0.00298979 -0.0135377 0.00374134)
(-0.00302833 -0.0136343 0.00376167)
(-0.00297238 -0.0129951 0.00332141)
(-0.00275717 -0.0131702 0.0035584)
(-0.00292976 -0.0130771 0.00361354)
(-0.0029831 -0.0130135 0.00343184)
(-0.00292389 -0.0134481 0.00386776)
(-0.00302893 -0.0134854 0.00377365)
(-0.00291182 -0.0133242 0.00369842)
(-0.00297141 -0.0131438 0.00358353)
(-0.00296807 -0.0134299 0.00370531)
(-0.00286894 -0.01324 0.00389879)
(-0.00292574 -0.0130742 0.00353791)
(-0.00283669 -0.0128757 0.00369227)
(-0.00280948 -0.012767 0.0037022)
(-0.00303663 -0.013585 0.00365084)
(-0.00306832 -0.0135162 0.0036337)
(-0.00318713 -0.0132604 0.00356181)
(-0.00279814 -0.01298 0.00349002)
(-0.00319064 -0.0132673 0.00397891)
(-0.00306204 -0.0131319 0.0036256)
(-0.00267265 -0.0123938 0.00335888)
(-0.00274149 -0.0128618 0.00364852)
(-0.00277468 -0.0126806 0.00350495)
(-0.0029999 -0.0126655 0.00344527)
(-0.00270208 -0.0126103 0.00349352)
(-0.00307411 -0.012864 0.0035459)
(-0.00319728 -0.0130562 0.00366077)
(-0.00291835 -0.012938 0.00352024)
(-0.00273074 -0.0128096 0.00342708)
(-0.0027309 -0.0127903 0.00359765)
(-0.00281734 -0.0128275 0.00353262)
(-0.00342603 -0.0137369 0.0036323)
(-0.00327433 -0.013604 0.00346243)
(-0.00309762 -0.0136702 0.00362747)
(-0.00343394 -0.0138864 0.00377199)
(-0.00294058 -0.0129319 0.00354234)
(-0.00302867 -0.0131113 0.00348982)
(-0.00309293 -0.0133894 0.00372406)
(-0.00300925 -0.0130481 0.00358775)
(-0.00310636 -0.0128636 0.00349653)
(-0.00287728 -0.0128886 0.00350915)
(-0.00277488 -0.0127005 0.00360871)
(-0.00302064 -0.0136892 0.00390638)
(-0.00322053 -0.0139535 0.00399812)
(-0.00295555 -0.0131387 0.00348554)
(-0.003185 -0.0138293 0.00395303)
(-0.00313453 -0.0139546 0.00360483)
(-0.00333961 -0.0130425 0.00333738)
(-0.00292418 -0.0132516 0.00358323)
(-0.00293575 -0.0142666 0.00408269)
(-0.00323914 -0.0137498 0.00350043)
(-0.00334087 -0.0141811 0.00376411)
(-0.00296323 -0.0135942 0.00391129)
(-0.00311566 -0.0137523 0.00365027)
(-0.00296822 -0.013285 0.00398043)
(-0.00307539 -0.0136433 0.00381002)
(-0.0031505 -0.0133477 0.00387047)
(-0.00353474 -0.0134644 0.00379271)
(-0.00290792 -0.0132366 0.00358484)
(-0.00282661 -0.0131924 0.00356421)
(-0.00303746 -0.0125255 0.00348485)
(-0.0030264 -0.013011 0.00368873)
(-0.00339696 -0.0135704 0.0038965)
(-0.00301268 -0.0125004 0.00355641)
(-0.00294366 -0.0130272 0.00368786)
(-0.0029191 -0.0133601 0.00379422)
(-0.00289358 -0.0130512 0.00352253)
(-0.00277317 -0.012689 0.00359537)
(-0.00284636 -0.0133126 0.0038608)
(-0.0027747 -0.0131779 0.00363997)
(-0.00303101 -0.0138087 0.00377132)
(-0.00296532 -0.0129058 0.00367663)
(-0.00324677 -0.013441 0.00362988)
(-0.00278128 -0.0132233 0.00365969)
(-0.00305345 -0.0129894 0.00361805)
(-0.00312194 -0.0128815 0.003659)
(-0.00303289 -0.0134182 0.00359787)
(-0.00285117 -0.0125118 0.00346619)
(-0.00318901 -0.0133555 0.00364908)
(-0.00275955 -0.0124087 0.00345543)
(-0.00284471 -0.0126532 0.00352047)
(-0.00291785 -0.0127596 0.00348673)
(-0.00285923 -0.0128271 0.00353822)
(-0.00269335 -0.0118464 0.0032619)
(-0.00280026 -0.0124414 0.00335898)
(-0.00272317 -0.0123611 0.0031436)
(-0.00270972 -0.0127029 0.00328798)
(-0.00280908 -0.0125909 0.00318322)
(-0.00286696 -0.0124172 0.00317162)
(-0.00283241 -0.0130216 0.00371132)
(-0.00278166 -0.0128737 0.00350211)
(-0.00284947 -0.0125644 0.00357908)
(-0.00272821 -0.0122227 0.0034095)
(-0.00278883 -0.0129792 0.00346627)
(-0.00299953 -0.0139342 0.00414236)
(-0.00291307 -0.0126522 0.0034402)
(-0.00275578 -0.012108 0.00330714)
(-0.0028651 -0.0127896 0.00352569)
(-0.00272565 -0.0126877 0.00348962)
(-0.00284283 -0.0128752 0.00336977)
(-0.00269831 -0.0130369 0.0036407)
(-0.00279524 -0.0128258 0.00332771)
(-0.00278009 -0.0127845 0.00343568)
(-0.00274732 -0.0130792 0.00365439)
(-0.00290488 -0.0127109 0.0034528)
(-0.00280688 -0.0124836 0.00353257)
(-0.00270341 -0.0122812 0.00359761)
(-0.00276647 -0.0127563 0.00356534)
(-0.00287234 -0.0130027 0.00386897)
(-0.00287925 -0.0132671 0.00418956)
(-0.00289512 -0.0126744 0.00370126)
(-0.00279921 -0.0126657 0.00377397)
(-0.00270826 -0.012404 0.00350799)
(-0.00289034 -0.0130666 0.00349182)
(-0.00276828 -0.0130956 0.00361602)
(-0.00281461 -0.0129765 0.00368067)
(-0.00267505 -0.0121379 0.00355344)
(-0.00254104 -0.0123693 0.00366682)
(-0.00274804 -0.0126941 0.00349796)
(-0.002906 -0.0129662 0.00369616)
(-0.00298104 -0.0127733 0.00347185)
(-0.00292583 -0.0124641 0.00361741)
(-0.00292512 -0.0129718 0.00362639)
(-0.00274679 -0.0126001 0.00323542)
(-0.00270568 -0.012191 0.00323379)
(-0.00294868 -0.0127739 0.00340972)
(-0.0028895 -0.0133128 0.00370736)
(-0.00272557 -0.0127635 0.00338461)
(-0.00271932 -0.0125406 0.00360364)
(-0.00269465 -0.0122918 0.00335637)
(-0.00270252 -0.01241 0.00334069)
(-0.00270819 -0.0123499 0.00365647)
(-0.00285391 -0.0123396 0.00335173)
(-0.00297916 -0.0130532 0.00343301)
(-0.00271543 -0.0123309 0.00334642)
(-0.00297505 -0.0128531 0.00323429)
(-0.00284968 -0.0126115 0.00333073)
(-0.00299504 -0.0127203 0.00323236)
(-0.00289131 -0.0127946 0.003472)
(-0.00275494 -0.0127322 0.00347915)
(-0.00279902 -0.0125425 0.00331364)
(-0.0027079 -0.0126272 0.00342901)
(-0.00270697 -0.0124611 0.00342046)
(-0.00268623 -0.0123672 0.00343458)
(-0.002906 -0.0131231 0.00335253)
(-0.00277659 -0.0124142 0.00344247)
(-0.00273305 -0.0124779 0.00318009)
(-0.00295708 -0.0126361 0.00352993)
(-0.00279758 -0.0136182 0.00385576)
(-0.00297012 -0.0136235 0.00368551)
(-0.00292125 -0.0132727 0.00371952)
(-0.00274454 -0.0131486 0.0038009)
(-0.0027538 -0.0129234 0.00350539)
(-0.00286137 -0.013455 0.00379979)
(-0.00291023 -0.0135184 0.00383335)
(-0.00303054 -0.0131538 0.00352051)
(-0.00318343 -0.0137751 0.0037573)
(-0.00283077 -0.013181 0.00391935)
(-0.00322855 -0.0139297 0.00383914)
(-0.00319911 -0.0136182 0.00359995)
(-0.00283639 -0.0134355 0.00378967)
(-0.0029659 -0.0135293 0.00389143)
(-0.00278059 -0.0132976 0.00377267)
(-0.00300074 -0.0127822 0.0035265)
(-0.00315243 -0.0132901 0.00363219)
(-0.00306577 -0.0134381 0.00366128)
(-0.00314578 -0.0133079 0.00364707)
(-0.00303834 -0.0126651 0.00353472)
(-0.00298665 -0.0130733 0.00358791)
(-0.00299418 -0.0128422 0.00352434)
(-0.0030721 -0.012578 0.0034434)
(-0.00303182 -0.0128171 0.00355375)
(-0.00281319 -0.0130138 0.00356555)
(-0.00286384 -0.0130761 0.00360086)
(-0.0033601 -0.0131787 0.00375156)
(-0.00288665 -0.0128148 0.00372409)
(-0.00290295 -0.0135649 0.00387902)
(-0.00268872 -0.012785 0.00347851)
(-0.002821 -0.0129253 0.00357029)
(-0.00286764 -0.0131511 0.00382344)
(-0.00301659 -0.0135828 0.00373471)
(-0.00295157 -0.0130392 0.0034353)
(-0.00302344 -0.0134991 0.00370243)
(-0.00300606 -0.0134485 0.00386306)
(-0.00293177 -0.013461 0.00381564)
(-0.00291971 -0.0131217 0.00370981)
(-0.00306349 -0.0135948 0.0036354)
(-0.00296169 -0.0135016 0.00378027)
(-0.00317715 -0.0136571 0.00363466)
(-0.00292271 -0.0138386 0.00386751)
(-0.00323708 -0.0137154 0.00363847)
(-0.00304065 -0.0136952 0.0039597)
(-0.00298976 -0.013585 0.00373321)
(-0.00308482 -0.0135258 0.00368657)
(-0.00288091 -0.0132433 0.00373929)
(-0.00301742 -0.0135 0.00374107)
(-0.00281328 -0.0135256 0.00375365)
(-0.00305466 -0.0135144 0.00366083)
(-0.00280822 -0.0130737 0.00369989)
(-0.00283677 -0.0131709 0.00385899)
(-0.00289784 -0.0134061 0.00383832)
(-0.0028105 -0.0132151 0.00386012)
(-0.00286861 -0.0130639 0.00368597)
(-0.00280497 -0.0135993 0.00384425)
(-0.00306336 -0.0135777 0.00372907)
(-0.0031199 -0.0132703 0.00351115)
(-0.00307373 -0.0138068 0.0039052)
(-0.00308358 -0.0133322 0.00358692)
(-0.0029322 -0.0132823 0.00355141)
(-0.00294614 -0.013407 0.00354763)
(-0.00303326 -0.0133321 0.00365937)
(-0.00306807 -0.0135704 0.00373532)
(-0.00298459 -0.0136865 0.00388124)
(-0.00282434 -0.0131918 0.0038736)
(-0.00285581 -0.0131939 0.00363109)
(-0.00276781 -0.0133881 0.00375954)
(-0.0028806 -0.0132307 0.00368272)
(-0.00287786 -0.0133293 0.00370902)
(-0.00302437 -0.0135456 0.00380069)
(-0.00289169 -0.0134027 0.00351188)
(-0.00268333 -0.0127121 0.00347905)
(-0.00299639 -0.0133803 0.00372563)
(-0.0030249 -0.0135534 0.00375726)
(-0.0030494 -0.013248 0.00378571)
(-0.00317424 -0.0135637 0.00369603)
(-0.00311298 -0.013524 0.00353131)
(-0.00264107 -0.012626 0.00322985)
(-0.00309488 -0.0133969 0.0037838)
(-0.00303384 -0.0140821 0.0039745)
(-0.00281242 -0.0136865 0.00403906)
(-0.00332496 -0.0143695 0.00424855)
(-0.00268673 -0.0129607 0.00387129)
(-0.0028861 -0.0132885 0.00398796)
(-0.00284555 -0.0125616 0.00389765)
(-0.00305147 -0.0131603 0.00363652)
(-0.00310425 -0.0132769 0.00373398)
(-0.00292188 -0.0130309 0.00371702)
(-0.00306995 -0.0135629 0.00412972)
(-0.00267895 -0.0132367 0.00372566)
(-0.00271334 -0.0127182 0.00372974)
(-0.00298507 -0.0130378 0.0036302)
(-0.0026855 -0.0126031 0.00360584)
(-0.00304492 -0.0134735 0.00375627)
(-0.00289094 -0.0130791 0.00394517)
(-0.0029698 -0.0129183 0.00381729)
(-0.00288132 -0.0128679 0.00335975)
(-0.00292375 -0.0131506 0.00342339)
(-0.00305212 -0.0133327 0.00358504)
(-0.00321476 -0.0136601 0.00361764)
(-0.00279763 -0.0123228 0.00335674)
(-0.0031166 -0.0137994 0.00374463)
(-0.00309254 -0.0134409 0.00347607)
(-0.00301977 -0.0138042 0.00388835)
(-0.00305399 -0.0134895 0.00354848)
(-0.00309414 -0.0138591 0.00358385)
(-0.00329495 -0.0138488 0.00349414)
(-0.00301751 -0.0128906 0.00334128)
(-0.00319238 -0.0132962 0.00358961)
(-0.00275882 -0.0133894 0.00374843)
(-0.00293484 -0.0133928 0.00361725)
(-0.00281004 -0.0121824 0.00345159)
(-0.00296292 -0.0128083 0.00361499)
(-0.00263444 -0.0129139 0.00342443)
(-0.0029635 -0.0129654 0.00362074)
(-0.00265636 -0.0130914 0.00352339)
(-0.00285165 -0.0124261 0.00359729)
(-0.00251141 -0.0126071 0.00339093)
(-0.00274559 -0.0133568 0.00345171)
(-0.00264431 -0.0124577 0.00327013)
(-0.00291886 -0.0127193 0.0036366)
(-0.00258278 -0.0123216 0.00326543)
(-0.00300342 -0.0127608 0.00361302)
(-0.00257175 -0.012787 0.00329838)
(-0.00286779 -0.013293 0.00366897)
(-0.00264014 -0.0127644 0.00349531)
(-0.00316765 -0.0134236 0.0036579)
(-0.00271858 -0.0133522 0.00360035)
(-0.00318958 -0.0130189 0.00380609)
(-0.00294893 -0.0133462 0.00368522)
(-0.00342285 -0.0133801 0.00375224)
(-0.00293782 -0.0126357 0.0034362)
(-0.00290787 -0.0127859 0.00341982)
(-0.00299853 -0.0127653 0.00363168)
(-0.00322875 -0.0134928 0.00368471)
(-0.0031164 -0.0132337 0.00359738)
(-0.00302729 -0.0128137 0.00347607)
(-0.00285676 -0.0128638 0.00367985)
(-0.00308489 -0.0135549 0.00357502)
(-0.00320098 -0.0128451 0.00351617)
(-0.00308791 -0.0127869 0.00351608)
(-0.00318359 -0.0134953 0.00371109)
(-0.0030629 -0.0129566 0.00372007)
(-0.00339245 -0.0129434 0.00361995)
(-0.00284074 -0.0125265 0.00337668)
(-0.0027967 -0.0128071 0.00322297)
(-0.0026552 -0.0124286 0.00330722)
(-0.00290838 -0.0128044 0.00345337)
(-0.00281729 -0.0129009 0.00349948)
(-0.00269406 -0.0120511 0.00321293)
(-0.00287158 -0.0131979 0.00332215)
(-0.00306326 -0.0129929 0.00374102)
(-0.00303516 -0.0130082 0.00367378)
(-0.00291128 -0.0125729 0.00346875)
(-0.00317593 -0.0129824 0.0036233)
(-0.00299829 -0.0130426 0.00360181)
(-0.00312225 -0.0128461 0.00369929)
(-0.00284787 -0.0124566 0.00324289)
(-0.00308454 -0.013119 0.00352797)
(-0.00279718 -0.0130202 0.00334836)
(-0.00268344 -0.0129186 0.00340637)
(-0.00307152 -0.0135414 0.00339811)
(-0.00293772 -0.0132235 0.00354475)
(-0.00325155 -0.0135828 0.0038039)
(-0.00302917 -0.013251 0.00367483)
(-0.00307608 -0.0132996 0.00373911)
(-0.00275588 -0.013031 0.00338306)
(-0.0028881 -0.0128616 0.0035936)
(-0.00286261 -0.0132966 0.00361768)
(-0.00280308 -0.0126324 0.00351761)
(-0.00286208 -0.0126701 0.0034169)
(-0.00277733 -0.0124407 0.00343711)
(-0.00285081 -0.0128799 0.00356682)
(-0.00279946 -0.0127329 0.0034206)
(-0.00281611 -0.0128432 0.00341876)
(-0.00275415 -0.0125449 0.00347384)
(-0.00272385 -0.0131211 0.00355796)
(-0.00307738 -0.0128637 0.00352313)
(-0.00322393 -0.0130677 0.00361486)
(-0.00289119 -0.0122541 0.00330766)
(-0.00315435 -0.0127527 0.00340766)
(-0.00290171 -0.0128859 0.00347572)
(-0.00298787 -0.0129099 0.00354988)
(-0.00307176 -0.0132276 0.00354792)
(-0.00288286 -0.0129489 0.00364346)
(-0.00309384 -0.0134474 0.00381742)
(-0.00297134 -0.0128302 0.00361121)
(-0.0031149 -0.013095 0.00357357)
(-0.00301614 -0.01305 0.00363507)
(-0.00293683 -0.0129987 0.00356425)
(-0.00322654 -0.0134129 0.00384561)
(-0.00322064 -0.0131103 0.00360773)
(-0.00288189 -0.0125585 0.00341046)
(-0.00316703 -0.0131964 0.00366316)
(-0.00292127 -0.0128219 0.00346761)
(-0.00294542 -0.0126447 0.00337932)
(-0.00263871 -0.0127794 0.00356094)
(-0.0031661 -0.0131788 0.00373831)
(-0.00290349 -0.0129392 0.00354731)
(-0.00298345 -0.0134551 0.00382742)
(-0.0027846 -0.01319 0.00362888)
(-0.00288849 -0.0133744 0.00364833)
(-0.00304296 -0.0129638 0.00354048)
(-0.00299702 -0.012915 0.00356094)
(-0.00287949 -0.012989 0.00348988)
(-0.00286259 -0.0125695 0.00345413)
(-0.00297585 -0.0131913 0.00375558)
(-0.003151 -0.0129247 0.00359365)
(-0.00286251 -0.0134416 0.00382411)
(-0.00283116 -0.0123108 0.0035945)
(-0.00290364 -0.0125343 0.00359012)
(-0.00279858 -0.0124292 0.00339662)
(-0.00273511 -0.0128471 0.00360132)
(-0.00299492 -0.0124177 0.00346904)
(-0.00294277 -0.0127723 0.00366141)
(-0.00270306 -0.0128186 0.0034284)
(-0.00275107 -0.0126715 0.00351038)
(-0.00297914 -0.0128871 0.00351531)
(-0.00310225 -0.0133734 0.00368426)
(-0.00305521 -0.013184 0.0038381)
(-0.00280969 -0.0126822 0.00357753)
(-0.00271277 -0.0127929 0.00322226)
(-0.00269429 -0.0127197 0.00350217)
(-0.00271278 -0.0134855 0.00349692)
(-0.00306897 -0.0132469 0.00370864)
(-0.00290141 -0.013306 0.00389321)
(-0.00302861 -0.0135966 0.00395048)
(-0.00291808 -0.0128977 0.00377061)
(-0.00294105 -0.0130366 0.00376298)
(-0.00287359 -0.013454 0.00381561)
(-0.00273024 -0.0129442 0.00333831)
(-0.00265432 -0.0122706 0.00324897)
(-0.00296631 -0.0134564 0.00363447)
(-0.0027322 -0.0130818 0.00354763)
(-0.00267675 -0.0126475 0.00347455)
(-0.0026945 -0.0129006 0.00351953)
(-0.00302739 -0.012926 0.00375822)
(-0.00294455 -0.0127464 0.00343026)
(-0.00274718 -0.0128522 0.0034161)
(-0.00260675 -0.0133793 0.00357797)
(-0.00308953 -0.0129567 0.00368494)
(-0.00316751 -0.0132134 0.00364906)
(-0.00313454 -0.0130544 0.0036554)
(-0.00294211 -0.0128336 0.00371665)
(-0.00295515 -0.0129059 0.00349048)
(-0.0028168 -0.0129354 0.00359808)
(-0.00288903 -0.0134803 0.00374005)
(-0.00301427 -0.0127673 0.00357284)
(-0.00289695 -0.0131978 0.0040443)
(-0.00270531 -0.0129734 0.00350151)