/*--------------------------------*- C++ -*----------------------------------*\
| =========                 |                                                 |
| \\      /  F ield         | OpenFOAM: The Open Source CFD Toolbox           |
|  \\    /   O peration     | Version:  v1612+                                |
|   \\  /    A nd           | Web:      www.OpenFOAM.com                      |
|    \\/     M anipulation  |                                                 |
\*---------------------------------------------------------------------------*/
FoamFile
{
    version     2.0;
    format      ascii;
    class       volScalarField;
    location    "50";
    object      p;
}
// * * * * * * * * * * * * * * * * * * * * * * * * * * * * * * * * * * * * * //

dimensions      [0 2 -2 0 0 0 0];

internalField   nonuniform List<scalar> 
16780
(
0.218214
0.228281
0.230982
0.235598
0.235607
0.230857
0.207466
0.217472
0.221384
0.24312
0.221191
0.224719
0.233099
0.219445
0.219411
0.235288
0.232026
0.278467
0.277552
0.272211
0.278806
0.276431
0.277733
0.273972
0.274218
0.274259
0.275183
0.27431
0.26996
0.267029
0.271895
0.277409
0.266477
0.269206
0.276537
0.268925
0.269691
0.270803
0.27066
0.270989
0.269244
0.205475
0.207174
0.208161
0.214848
0.212844
0.208266
0.205628
0.207114
0.211527
0.215936
0.208171
0.206514
0.210154
0.209929
0.209204
0.207047
0.243079
0.238579
0.245677
0.238285
0.233421
0.238692
0.234473
0.234859
0.241384
0.240598
0.248315
0.242062
0.359051
0.357965
0.302899
0.290424
0.339121
0.317604
0.330762
0.329776
0.305324
0.313789
0.291611
0.291825
0.301197
0.29838
0.279932
0.288186
0.298072
0.298049
0.300068
0.286204
0.294286
0.301445
0.297836
0.287913
0.209202
0.205336
0.20646
0.207079
0.210525
0.204098
0.211743
0.26424
0.264351
0.257442
0.26244
0.26337
0.266681
0.263346
0.266346
0.253289
0.259251
0.24917
0.261493
0.251929
0.250507
0.253337
0.247328
0.246952
0.247809
0.257504
0.251958
0.268574
0.205419
0.207495
0.200163
0.196141
0.200971
0.203256
0.199274
0.197708
0.197099
0.193006
0.199017
0.216823
0.216013
0.221586
0.231846
0.227075
0.219167
0.225015
0.224375
0.225875
0.225483
0.21521
0.216449
0.209192
0.197625
0.206738
0.19987
0.203169
0.211379
0.204999
0.197944
0.203596
0.203058
0.204153
0.207649
0.213817
0.212259
0.215864
0.205384
0.206635
0.213125
0.211152
0.213776
0.204083
0.198588
0.221952
0.229726
0.202221
0.208729
0.218821
0.210523
0.234978
0.208602
0.23058
0.212743
0.224379
0.236278
0.243827
0.234443
0.224961
0.232064
0.233083
0.228776
0.22393
0.223698
0.226938
0.225638
0.229852
0.227946
0.226269
0.229596
0.232388
0.225268
0.229412
0.238002
0.237076
0.22462
0.227601
0.229179
0.229287
0.240695
0.225936
0.233691
0.25071
0.239803
0.225797
0.233028
0.231607
0.248411
0.254498
0.24421
0.235958
0.236857
0.226204
0.241445
0.249453
0.259382
0.248681
0.247099
0.234278
0.214333
0.241062
0.246528
0.250308
0.277639
0.278936
0.282001
0.271013
0.280787
0.280171
0.291652
0.275684
0.299331
0.248781
0.242808
0.243086
0.247806
0.254958
0.257588
0.256645
0.253285
0.250172
0.259107
0.235597
0.24715
0.240903
0.246979
0.239527
0.2384
0.224023
0.230459
0.21284
0.217373
0.233528
0.224739
0.238787
0.231749
0.249352
0.231838
0.240984
0.237146
0.234692
0.234936
0.24115
0.234537
0.245356
0.246947
0.21688
0.215934
0.21964
0.219372
0.219907
0.221418
0.219352
0.221104
0.214807
0.216932
0.218775
0.208496
0.218296
0.206763
0.207046
0.20553
0.208623
0.202774
0.201836
0.201649
0.201571
0.201635
0.199519
0.206191
0.207761
0.202351
0.195855
0.198977
0.207605
0.203533
0.202246
0.204896
0.251819
0.234857
0.226603
0.226254
0.244406
0.245142
0.235324
0.238234
0.248991
0.216167
0.218289
0.216696
0.221729
0.216492
0.210519
0.219734
0.198071
0.215638
0.222241
0.215587
0.218937
0.210773
0.200566
0.213758
0.212787
0.202476
0.209339
0.231067
0.22881
0.222508
0.230459
0.230724
0.226081
0.227371
0.227867
0.229326
0.227439
0.220798
0.220406
0.228457
0.231284
0.227537
0.229075
0.230074
0.226711
0.218514
0.206057
0.204369
0.218345
0.205162
0.206749
0.210575
0.198619
0.228185
0.222661
0.213698
0.208983
0.21103
0.203079
0.19241
0.217271
0.201006
0.215464
0.20712
0.225651
0.215917
0.225434
0.219792
0.209801
0.199671
0.211585
0.220136
0.224205
0.223965
0.218263
0.225221
0.20056
0.211222
0.264185
0.256521
0.251963
0.261696
0.249338
0.252624
0.260999
0.266999
0.258936
0.247549
0.251563
0.255869
0.246069
0.24562
0.257708
0.264438
0.261672
0.25859
0.25459
0.245616
0.252422
0.235976
0.233666
0.213763
0.218925
0.23005
0.227897
0.217552
0.23182
0.22756
0.223797
0.225213
0.22494
0.222588
0.223067
0.250482
0.250539
0.255831
0.259086
0.241963
0.260839
0.246504
0.240205
0.251964
0.253545
0.25569
0.251938
0.268595
0.24362
0.258963
0.257482
0.309909
0.316634
0.317989
0.314319
0.310606
0.300978
0.306708
0.302057
0.296798
0.292383
0.290678
0.282155
0.288908
0.295071
0.285724
0.247328
0.247756
0.226981
0.231329
0.247988
0.246569
0.237996
0.23737
0.238751
0.226498
0.234688
0.236859
0.237543
0.229778
0.250218
0.265059
0.261718
0.256101
0.263506
0.261013
0.261512
0.257917
0.262462
0.252943
0.26156
0.264924
0.261791
0.253967
0.260997
0.261523
0.26004
0.254646
0.252007
0.258804
0.256768
0.256792
0.382916
0.390582
0.427763
0.357196
0.387613
0.372086
0.400299
0.387426
0.376835
0.341863
0.343604
0.359209
0.36532
0.239146
0.221895
0.222328
0.245492
0.281781
0.27373
0.231538
0.228052
0.229107
0.23046
0.246341
0.266449
0.24276
0.276425
0.223856
0.26558
0.265931
0.228892
0.22462
0.253756
0.261065
0.260551
0.239245
0.232407
0.214395
0.210712
0.207975
0.210369
0.207236
0.201733
0.212144
0.214658
0.212671
0.211411
0.197339
0.200317
0.211358
0.203516
0.205689
0.208276
0.214338
0.213814
0.21132
0.213682
0.211327
0.209116
0.431921
0.437375
0.458731
0.47033
0.426056
0.436406
0.468644
0.463704
0.44942
0.468815
0.478163
0.484213
0.470253
0.435607
0.480174
0.488801
0.229655
0.227594
0.245479
0.238126
0.232182
0.225933
0.22557
0.233139
0.227993
0.229515
0.219313
0.220664
0.219792
0.225209
0.229859
0.227867
0.230005
0.21995
0.219454
0.217404
0.217344
0.221472
0.211266
0.211498
0.212705
0.217864
0.23512
0.224042
0.224641
0.229376
0.219355
0.220431
0.234491
0.213326
0.216816
0.234018
0.238744
0.239572
0.215619
0.231402
0.226557
0.28174
0.252728
0.225941
0.261777
0.27261
0.258226
0.283759
0.26893
0.267566
0.271148
0.247292
0.233087
0.234171
0.258683
0.253513
0.25342
0.25195
0.252643
0.261712
0.259405
0.257373
0.253903
0.262641
0.263516
0.269889
0.232416
0.231915
0.236485
0.221052
0.228386
0.233646
0.239451
0.229254
0.23271
0.235833
0.228852
0.224931
0.225331
0.241168
0.230404
0.236244
0.227966
0.227062
0.204427
0.210306
0.202894
0.206991
0.207117
0.202453
0.225
0.214455
0.2168
0.199502
0.204513
0.218365
0.209143
0.21217
0.203588
0.208006
0.212199
0.209372
0.206838
0.219583
0.203754
0.209143
0.212168
0.216461
0.211677
0.205224
0.214981
0.215939
0.20696
0.209839
0.21931
0.204585
0.215081
0.198446
0.197427
0.195754
0.205034
0.202371
0.202014
0.204131
0.206912
0.198548
0.207861
0.207618
0.217119
0.207976
0.221513
0.215091
0.207627
0.21243
0.215019
0.220505
0.222124
0.2155
0.214929
0.219096
0.2146
0.208315
0.207124
0.204872
0.207981
0.204309
0.205361
0.208331
0.203055
0.205592
0.209056
0.209668
0.208899
0.217479
0.208391
0.201876
0.202343
0.210069
0.213093
0.202901
0.200562
0.218541
0.217877
0.225694
0.219783
0.224043
0.221024
0.222876
0.221273
0.226742
0.22474
0.236042
0.233542
0.234026
0.221821
0.227368
0.22357
0.231836
0.22935
0.227879
0.230838
0.230078
0.208427
0.201102
0.203779
0.211972
0.200205
0.219553
0.215948
0.20468
0.213189
0.206785
0.207317
0.224473
0.224413
0.222037
0.22421
0.242298
0.227387
0.25276
0.251986
0.242469
0.247221
0.250178
0.221643
0.238403
0.237016
0.244518
0.246041
0.243951
0.190575
0.189134
0.195087
0.198661
0.197945
0.201515
0.193261
0.197849
0.200085
0.199933
0.1957
0.197238
0.215039
0.211666
0.235967
0.23376
0.222056
0.234452
0.231468
0.226638
0.234039
0.208425
0.206968
0.232267
0.220222
0.236087
0.22784
0.206654
0.207061
0.213292
0.217731
0.227869
0.227132
0.203241
0.216142
0.240102
0.240222
0.244166
0.242395
0.245742
0.245836
0.251888
0.244282
0.232821
0.250997
0.247601
0.251897
0.254476
0.252241
0.257997
0.24833
0.209303
0.211327
0.227564
0.232139
0.212609
0.20897
0.234927
0.23895
0.239779
0.22423
0.226942
0.232425
0.231319
0.232652
0.234391
0.230514
0.245039
0.245257
0.243831
0.242879
0.236163
0.244504
0.225779
0.241505
0.219793
0.231407
0.240059
0.234759
0.242682
0.243681
0.230955
0.23855
0.23957
0.241242
0.213291
0.237539
0.204741
0.238726
0.2165
0.182768
0.190467
0.199709
0.194114
0.202311
0.220807
0.214821
0.188957
0.203767
0.193824
0.230206
0.230302
0.222419
0.225818
0.21166
0.226505
0.224143
0.229651
0.222598
0.224361
0.225798
0.217787
0.20933
0.215725
0.209847
0.215598
0.226451
0.229483
0.218666
0.229311
0.237459
0.231983
0.236883
0.229988
0.230092
0.236767
0.220404
0.245336
0.245458
0.239153
0.24877
0.222871
0.211971
0.232414
0.212325
0.226281
0.313382
0.320139
0.328554
0.348529
0.34143
0.381631
0.370096
0.409018
0.419983
0.410757
0.413054
0.409898
0.393322
0.390361
0.374641
0.349465
0.338777
0.392735
0.365821
0.368902
0.258103
0.262391
0.263152
0.262003
0.264536
0.261692
0.255274
0.26022
0.261299
0.254667
0.258226
0.223009
0.226103
0.230323
0.229418
0.228587
0.229639
0.228923
0.224543
0.225973
0.223385
0.222544
0.222682
0.21837
0.224679
0.293117
0.303879
0.317969
0.243963
0.262767
0.269091
0.434798
0.451364
0.449334
0.258028
0.256849
0.232036
0.238011
0.39134
0.395257
0.404934
0.264847
0.264144
0.316334
0.310814
0.284632
0.251547
0.255283
0.257565
0.223909
0.230326
0.227126
0.233295
0.374032
0.367081
0.373087
0.371933
0.303476
0.300647
0.246887
0.249328
0.243521
0.247308
0.248905
0.250284
0.304963
0.306448
0.297393
0.26555
0.266605
0.309398
0.310568
0.298632
0.247244
0.243155
0.23633
0.282446
0.274295
0.272359
0.251114
0.249278
0.29841
0.296888
0.286211
0.283943
0.291056
0.259637
0.263654
0.25939
0.257708
0.243495
0.249758
0.246453
0.247999
0.275114
0.275641
0.277004
0.238861
0.238997
0.260518
0.259738
0.270873
0.269719
0.278436
0.266747
0.263272
0.248988
0.252088
0.262214
0.260878
0.260426
0.251062
0.251094
0.250024
0.261443
0.255464
0.257
0.250616
0.24867
0.250352
0.253041
0.254527
0.258952
0.259514
0.261971
0.241439
0.243346
0.236183
0.238359
0.249602
0.257439
0.256225
0.26696
0.268657
0.265531
0.234134
0.235013
0.244684
0.251205
0.247665
0.248169
0.23672
0.243013
0.241585
0.247144
0.251807
0.244257
0.239668
0.237385
0.238009
0.234155
0.23372
0.232683
0.238922
0.233041
0.232433
0.22832
0.239115
0.227753
0.226085
0.228514
0.225885
0.228626
0.229288
0.229179
0.244511
0.217648
0.229197
0.227722
0.23209
0.23061
0.217455
0.213043
0.210056
0.217084
0.213658
0.219124
0.219255
0.223475
0.210519
0.218766
0.218277
0.222691
0.208913
0.217871
0.221152
0.22093
0.205354
0.210168
0.213839
0.205074
0.211029
0.202887
0.20327
0.201567
0.198886
0.210527
0.21041
0.208797
0.205816
0.203402
0.202281
0.200554
0.199668
0.192815
0.205797
0.208074
0.20934
0.213329
0.210372
0.205355
0.209377
0.207644
0.21281
0.211099
0.197153
0.19787
0.195613
0.21046
0.213066
0.205346
0.213223
0.202143
0.208931
0.213624
0.201127
0.212445
0.206835
0.211376
0.208389
0.227981
0.222658
0.21786
0.21913
0.216637
0.220164
0.219255
0.210101
0.215976
0.216278
0.213993
0.216759
0.212609
0.211769
0.223531
0.219387
0.21357
0.212586
0.215398
0.215507
0.211883
0.201277
0.199383
0.215477
0.212217
0.207814
0.199868
0.202041
0.20424
0.207322
0.209473
0.205416
0.198675
0.204745
0.201766
0.203169
0.203319
0.202558
0.197266
0.205713
0.203687
0.203071
0.203296
0.197256
0.200213
0.197858
0.215991
0.217527
0.211242
0.213
0.210677
0.209009
0.216229
0.211266
0.208641
0.213465
0.210889
0.20914
0.207271
0.210355
0.213268
0.210426
0.207303
0.209843
0.208902
0.206432
0.205939
0.219629
0.212593
0.212304
0.209148
0.222981
0.226049
0.213957
0.220477
0.215659
0.222144
0.217326
0.219763
0.210648
0.209159
0.218641
0.21463
0.212191
0.2184
0.212225
0.214059
0.217058
0.212411
0.209672
0.220662
0.215657
0.210465
0.214549
0.239891
0.227065
0.233179
0.229929
0.209806
0.216412
0.208857
0.211878
0.2111
0.227518
0.221332
0.2174
0.222366
0.22213
0.214386
0.211469
0.215085
0.216207
0.219215
0.218332
0.214814
0.211255
0.215369
0.213753
0.225281
0.222302
0.229327
0.216784
0.219823
0.218672
0.216197
0.211446
0.228769
0.225923
0.224438
0.222432
0.228486
0.228726
0.221668
0.224633
0.220673
0.230278
0.220655
0.225118
0.228132
0.226315
0.215739
0.214791
0.21251
0.210909
0.216737
0.210148
0.211341
0.215711
0.213891
0.217907
0.211925
0.225709
0.220408
0.216898
0.215215
0.214152
0.219678
0.227247
0.221578
0.222635
0.220019
0.218291
0.21119
0.213446
0.231334
0.231385
0.240012
0.23648
0.241486
0.233979
0.233794
0.231953
0.222015
0.227846
0.223009
0.22312
0.222333
0.23563
0.226021
0.229842
0.226105
0.23292
0.233366
0.230741
0.229346
0.224794
0.225812
0.231229
0.219622
0.229051
0.226377
0.227904
0.233624
0.223288
0.21951
0.215992
0.230355
0.224835
0.218712
0.220479
0.216739
0.225656
0.224077
0.219718
0.223096
0.213219
0.212708
0.217881
0.216475
0.217553
0.222082
0.220406
0.22219
0.217925
0.217937
0.249305
0.248545
0.245761
0.242757
0.242431
0.244335
0.242038
0.236153
0.240106
0.24277
0.238744
0.240556
0.23649
0.231816
0.227804
0.236505
0.232133
0.234972
0.234588
0.234775
0.239438
0.25579
0.252355
0.253617
0.237518
0.239955
0.24318
0.232425
0.236085
0.232242
0.217359
0.233359
0.235315
0.229132
0.231327
0.228625
0.223311
0.227465
0.226894
0.23891
0.232471
0.230944
0.229506
0.233909
0.23286
0.221389
0.224038
0.226066
0.224978
0.219472
0.222182
0.222264
0.219901
0.217525
0.225122
0.22691
0.224243
0.228712
0.229099
0.232608
0.2219
0.225027
0.229733
0.227823
0.221891
0.22822
0.223137
0.227017
0.227609
0.233996
0.229876
0.220858
0.235038
0.227734
0.224837
0.219112
0.225487
0.222912
0.222536
0.222469
0.218587
0.229209
0.225501
0.229746
0.229707
0.22656
0.222914
0.228837
0.22116
0.224991
0.222147
0.22199
0.227105
0.244688
0.238099
0.239151
0.234505
0.228508
0.228325
0.232329
0.23004
0.231855
0.249256
0.243042
0.238967
0.240938
0.241065
0.239911
0.235441
0.242258
0.24147
0.233301
0.239784
0.245156
0.238868
0.247361
0.242538
0.235332
0.242161
0.236325
0.225399
0.235171
0.231631
0.228712
0.235413
0.23504
0.243104
0.236432
0.232907
0.234294
0.231084
0.235498
0.235479
0.237008
0.244418
0.247789
0.243055
0.237858
0.239477
0.233182
0.224694
0.234713
0.227761
0.239131
0.229785
0.230887
0.224438
0.22509
0.238947
0.265724
0.260042
0.265535
0.239788
0.241901
0.242898
0.247188
0.240027
0.24467
0.254469
0.255394
0.260373
0.248212
0.238105
0.248191
0.238337
0.244786
0.243212
0.24858
0.248736
0.241231
0.250851
0.244009
0.237508
0.246173
0.246476
0.253247
0.252262
0.244272
0.243478
0.244957
0.241509
0.250497
0.233986
0.232642
0.240061
0.228295
0.22796
0.230372
0.233364
0.235103
0.230543
0.233012
0.239275
0.234697
0.237912
0.242299
0.248083
0.239501
0.233256
0.228997
0.234501
0.237272
0.242022
0.242652
0.241693
0.242858
0.232874
0.237337
0.240036
0.254437
0.248463
0.257091
0.255222
0.246279
0.23756
0.243244
0.244889
0.236865
0.235552
0.256321
0.256471
0.248281
0.248071
0.255354
0.236253
0.226242
0.245733
0.23576
0.243481
0.238482
0.238567
0.23895
0.233262
0.232762
0.239233
0.23608
0.233976
0.23482
0.232641
0.233912
0.227476
0.238052
0.226789
0.227931
0.228837
0.228532
0.234692
0.234133
0.270053
0.266301
0.265634
0.262805
0.263993
0.258321
0.260707
0.260389
0.267964
0.269278
0.272319
0.272752
0.26758
0.26729
0.269172
0.264874
0.264143
0.25802
0.260472
0.258361
0.263623
0.264013
0.265295
0.264856
0.261072
0.263026
0.259266
0.254009
0.264613
0.260032
0.268915
0.261642
0.258492
0.249981
0.251828
0.253614
0.250481
0.243463
0.246306
0.251993
0.248833
0.242894
0.242457
0.247451
0.247975
0.243162
0.239861
0.239154
0.226065
0.241301
0.230782
0.230461
0.230844
0.243747
0.239325
0.23714
0.232958
0.237401
0.23564
0.238733
0.246726
0.243233
0.232634
0.236517
0.250569
0.24377
0.241988
0.250751
0.246039
0.239621
0.239126
0.241579
0.255104
0.249832
0.244235
0.247542
0.241133
0.254511
0.247911
0.248663
0.24767
0.240077
0.245127
0.241505
0.233471
0.233938
0.245482
0.23957
0.240108
0.241273
0.239135
0.260005
0.259542
0.259308
0.258215
0.257804
0.263326
0.261514
0.262202
0.264635
0.262095
0.271594
0.271347
0.265802
0.257803
0.256347
0.2474
0.25282
0.248908
0.261448
0.246493
0.242087
0.244488
0.26381
0.259739
0.253494
0.258073
0.25442
0.258692
0.281827
0.27753
0.252869
0.257768
0.251584
0.252137
0.250509
0.23749
0.238106
0.24856
0.235756
0.23284
0.249281
0.241699
0.251552
0.248799
0.259971
0.263472
0.259131
0.252371
0.239047
0.244319
0.235421
0.249831
0.24613
0.247243
0.244702
0.239981
0.246821
0.233771
0.247571
0.256407
0.251711
0.255218
0.273183
0.273196
0.268227
0.268835
0.265251
0.264699
0.264817
0.27134
0.254847
0.25383
0.258154
0.246156
0.247346
0.263117
0.262054
0.248951
0.246407
0.229314
0.241793
0.250895
0.240098
0.232577
0.241953
0.236842
0.248249
0.247491
0.258252
0.242286
0.236048
0.240054
0.239977
0.256139
0.241672
0.239961
0.24987
0.248633
0.254833
0.253079
0.279377
0.280959
0.274626
0.265824
0.255285
0.243913
0.257299
0.26141
0.252931
0.250275
0.281619
0.271631
0.266161
0.273698
0.284341
0.273305
0.27397
0.246832
0.249036
0.25561
0.252418
0.260963
0.262711
0.256673
0.258855
0.262254
0.293241
0.290858
0.269873
0.298594
0.298117
0.296128
0.241047
0.235441
0.247468
0.249542
0.263402
0.250735
0.249064
0.246115
0.244667
0.250196
0.243854
0.246354
0.237876
0.254119
0.249341
0.247772
0.242399
0.275233
0.276213
0.275898
0.277049
0.276072
0.28181
0.27714
0.28155
0.270532
0.26502
0.270045
0.265165
0.265933
0.266749
0.268032
0.269777
0.263025
0.266227
0.267996
0.264153
0.267578
0.263981
0.267219
0.264652
0.277974
0.274639
0.277229
0.249243
0.255516
0.244385
0.251475
0.24683
0.239645
0.239383
0.245962
0.245618
0.233919
0.242254
0.242666
0.231417
0.239616
0.228503
0.245071
0.239849
0.234661
0.24526
0.23799
0.258848
0.250483
0.247869
0.259744
0.257044
0.240259
0.256754
0.251675
0.255
0.252838
0.249102
0.258903
0.270166
0.264017
0.262286
0.270445
0.271882
0.27327
0.249717
0.266478
0.2552
0.296891
0.321919
0.298766
0.304127
0.293431
0.284042
0.294186
0.289937
0.280523
0.271168
0.291295
0.285009
0.278929
0.2877
0.282391
0.251318
0.255265
0.272723
0.258362
0.257673
0.255331
0.27035
0.264745
0.2711
0.275151
0.277691
0.250616
0.249822
0.272408
0.265098
0.275977
0.264287
0.319737
0.319985
0.316508
0.310704
0.23622
0.240911
0.24011
0.260199
0.277194
0.262555
0.271291
0.254324
0.263145
0.260651
0.255576
0.259473
0.266227
0.262485
0.254756
0.253535
0.247651
0.234134
0.23465
0.226404
0.244782
0.240072
0.237182
0.237831
0.2996
0.294975
0.303818
0.28248
0.280237
0.287154
0.278712
0.264726
0.273187
0.282218
0.267789
0.268322
0.291014
0.292159
0.234818
0.239871
0.243979
0.242884
0.249291
0.225335
0.243959
0.24359
0.241017
0.234166
0.245292
0.233647
0.236636
0.237521
0.227834
0.225478
0.240735
0.24106
0.301647
0.307862
0.301338
0.278239
0.279209
0.269126
0.269211
0.330382
0.338589
0.301494
0.313643
0.333093
0.314889
0.342917
0.341128
0.33453
0.305548
0.339393
0.329831
0.258076
0.258097
0.250901
0.251899
0.268686
0.269678
0.265119
0.265265
0.268992
0.344014
0.355394
0.341711
0.35927
0.323641
0.291222
0.293595
0.301108
0.303137
0.307934
0.308933
0.303256
0.322596
0.323418
0.319422
0.34118
0.329847
0.322225
0.316804
0.265542
0.26053
0.263598
0.255338
0.259675
0.249953
0.236169
0.225252
0.236648
0.243856
0.228328
0.221057
0.229386
0.244518
0.242017
0.239818
0.271587
0.267281
0.269549
0.268191
0.240109
0.263151
0.26822
0.256739
0.244384
0.248803
0.24677
0.231943
0.242154
0.349159
0.360911
0.326384
0.251414
0.247557
0.257544
0.322748
0.293732
0.313407
0.296667
0.308873
0.335552
0.326808
0.376795
0.405635
0.420229
0.390469
0.407916
0.373007
0.387363
0.368145
0.365143
0.346257
0.356172
0.365909
0.36261
0.372486
0.369754
0.369918
0.223241
0.222854
0.219875
0.207848
0.203815
0.241349
0.239979
0.231502
0.212168
0.221223
0.223299
0.233675
0.225673
0.214135
0.217212
0.231925
0.238343
0.233936
0.240184
0.220031
0.256618
0.255767
0.256137
0.254691
0.242732
0.245272
0.241479
0.244229
0.263817
0.267018
0.255251
0.257982
0.26408
0.381849
0.369536
0.344493
0.29551
0.278363
0.302555
0.293538
0.313509
0.322651
0.332606
0.380803
0.34382
0.329452
0.332795
0.373877
0.355292
0.344376
0.330909
0.319108
0.340663
0.299658
0.318786
0.281126
0.341718
0.326886
0.317993
0.304
0.256512
0.244014
0.254144
0.251971
0.240131
0.254031
0.255699
0.255003
0.266205
0.265445
0.264663
0.268461
0.266114
0.269582
0.264872
0.269161
0.267875
0.265428
0.260911
0.438701
0.409347
0.369346
0.371484
0.367851
0.357689
0.35772
0.213853
0.234529
0.23813
0.234039
0.209215
0.22731
0.223103
0.207012
0.226579
0.230106
0.233697
0.22343
0.221867
0.216191
0.254237
0.251331
0.254458
0.500061
0.488929
0.388024
0.364078
0.39055
0.409758
0.411816
0.479666
0.460276
0.458086
0.48332
0.445743
0.499917
0.486355
0.410565
0.424442
0.424645
0.427104
0.412796
0.407384
0.245441
0.243087
0.246681
0.247282
0.251879
0.244094
0.239569
0.248462
0.248757
0.24985
0.424247
0.427859
0.511024
0.490216
0.517104
0.48054
0.486195
0.474594
0.505259
0.507898
0.471919
0.442356
0.353285
0.390249
0.396236
0.3935
0.387814
0.362708
0.379068
0.361702
0.381002
0.404516
0.397404
0.412733
0.386366
0.410465
0.384804
0.422609
0.430908
0.43108
0.429819
0.432178
0.349016
0.345112
0.361085
0.362771
0.361585
0.362183
0.357366
0.434142
0.403598
0.449883
0.411426
0.419901
0.416608
0.431533
0.448984
0.443229
0.440217
0.428809
0.269268
0.263366
0.264824
0.267178
0.269858
0.270976
0.272818
0.24879
0.251808
0.255796
0.254931
0.257779
0.241322
0.264845
0.261022
0.275881
0.273366
0.284882
0.265942
0.26409
0.262839
0.246172
0.247407
0.250696
0.235494
0.247509
0.237409
0.24924
0.225547
0.23323
0.243844
0.236088
0.236366
0.23732
0.224212
0.220939
0.225769
0.246852
0.235304
0.230968
0.212274
0.22445
0.211061
0.232561
0.234496
0.222783
0.259815
0.242952
0.235831
0.233267
0.250251
0.252666
0.251395
0.235471
0.220597
0.225918
0.220912
0.209344
0.233951
0.235353
0.243026
0.20783
0.220919
0.231639
0.225437
0.228146
0.21864
0.266411
0.252273
0.285354
0.281879
0.258389
0.275929
0.259446
0.245113
0.245674
0.278131
0.27161
0.257085
0.251892
0.239955
0.269633
0.259526
0.250867
0.262911
0.259991
0.233608
0.235754
0.229673
0.221242
0.249084
0.234663
0.232241
0.22985
0.241361
0.231537
0.228307
0.245082
0.241812
0.253814
0.25723
0.255878
0.262285
0.25853
0.257315
0.292706
0.29618
0.290971
0.281173
0.285727
0.281507
0.328868
0.3128
0.337469
0.347375
0.337527
0.337078
0.335231
0.331459
0.321865
0.312596
0.321814
0.335277
0.321235
0.260836
0.252697
0.256316
0.258388
0.262325
0.260688
0.26303
0.259132
0.260726
0.257852
0.253321
0.259098
0.264385
0.253357
0.262928
0.266787
0.269865
0.264146
0.27015
0.269501
0.266974
0.26095
0.246474
0.255274
0.255925
0.257818
0.248957
0.231832
0.241708
0.233226
0.24881
0.227578
0.242291
0.242937
0.240729
0.233526
0.247487
0.24139
0.23539
0.231925
0.238163
0.24385
0.238464
0.236193
0.294929
0.302802
0.301089
0.293094
0.292031
0.289403
0.306936
0.295719
0.277649
0.270006
0.245571
0.228759
0.230769
0.219261
0.247909
0.242719
0.247787
0.256598
0.244995
0.238188
0.250059
0.246806
0.252516
0.246606
0.239512
0.226523
0.227848
0.248119
0.238188
0.244212
0.237072
0.246985
0.230565
0.255097
0.262425
0.268872
0.250657
0.241656
0.243183
0.260786
0.238764
0.236635
0.277367
0.283019
0.278893
0.280511
0.279423
0.279512
0.278342
0.269303
0.273259
0.272645
0.269788
0.278763
0.270308
0.26101
0.275322
0.278303
0.275814
0.277549
0.280646
0.277468
0.280497
0.281468
0.28261
0.280759
0.28267
0.277655
0.281255
0.277617
0.276943
0.279153
0.270658
0.269732
0.278189
0.276948
0.275973
0.276289
0.279013
0.280424
0.248333
0.23381
0.244959
0.245818
0.278747
0.280263
0.273806
0.284143
0.275258
0.276056
0.274975
0.268894
0.277135
0.278922
0.242862
0.252862
0.24719
0.256976
0.245641
0.252062
0.247242
0.25898
0.254866
0.255438
0.258431
0.256802
0.255116
0.259866
0.262797
0.260357
0.256284
0.244018
0.245427
0.240067
0.244355
0.246548
0.242009
0.249779
0.255789
0.248853
0.253313
0.249508
0.259906
0.254858
0.245287
0.242102
0.256584
0.257812
0.260933
0.253675
0.235452
0.237698
0.240776
0.246474
0.235461
0.238186
0.258732
0.257645
0.242428
0.242768
0.24499
0.251304
0.250141
0.251802
0.239344
0.23883
0.245934
0.237565
0.242794
0.240795
0.236073
0.242876
0.28082
0.265868
0.272947
0.275983
0.276154
0.269515
0.257868
0.267224
0.279652
0.269384
0.254561
0.256073
0.254191
0.248058
0.248715
0.249503
0.253285
0.248673
0.246506
0.242934
0.235293
0.240366
0.241866
0.246174
0.241695
0.249099
0.250064
0.235767
0.245553
0.250114
0.246138
0.2529
0.255055
0.257968
0.260749
0.255507
0.264227
0.263254
0.254741
0.24993
0.255553
0.252996
0.229607
0.237629
0.240265
0.230984
0.238351
0.234036
0.22911
0.230339
0.24414
0.250558
0.252471
0.254582
0.24963
0.251415
0.256731
0.253258
0.259503
0.255809
0.251996
0.261515
0.263051
0.261612
0.256157
0.254081
0.255923
0.237525
0.243346
0.240802
0.233161
0.24929
0.242826
0.242776
0.241081
0.239128
0.242997
0.244865
0.233634
0.231732
0.22714
0.231703
0.234883
0.23344
0.233604
0.233098
0.231943
0.242392
0.237507
0.238053
0.257595
0.261414
0.259889
0.26083
0.26218
0.26378
0.26339
0.267577
0.271071
0.26489
0.258398
0.268098
0.266338
0.258875
0.254079
0.232926
0.234108
0.237317
0.2456
0.241937
0.236356
0.236126
0.237169
0.232914
0.246032
0.242355
0.252501
0.249694
0.248119
0.247435
0.24594
0.248658
0.25086
0.240448
0.239114
0.243293
0.244067
0.241204
0.247437
0.243815
0.23717
0.244012
0.248004
0.246018
0.236728
0.247473
0.243675
0.244046
0.238858
0.243954
0.245676
0.235986
0.23593
0.245964
0.245891
0.239744
0.235878
0.234643
0.230221
0.229876
0.23238
0.235536
0.226957
0.229959
0.221382
0.227272
0.227745
0.228252
0.22422
0.224572
0.220921
0.223949
0.225548
0.228666
0.215073
0.220159
0.223788
0.219082
0.220649
0.216816
0.211906
0.220392
0.216891
0.219146
0.221067
0.228232
0.221821
0.224325
0.229156
0.228006
0.224542
0.225981
0.233757
0.230125
0.228807
0.229662
0.239187
0.226407
0.236423
0.231708
0.228749
0.227432
0.233062
0.221737
0.219396
0.223611
0.214459
0.220889
0.216073
0.216275
0.220885
0.220335
0.222467
0.219192
0.242881
0.245341
0.249371
0.248141
0.24785
0.24409
0.241889
0.248102
0.249254
0.224617
0.225869
0.229818
0.232849
0.229203
0.234996
0.232704
0.228475
0.230156
0.214182
0.219184
0.213785
0.219701
0.222526
0.211393
0.223204
0.214279
0.226987
0.224377
0.244356
0.245324
0.240004
0.245595
0.239096
0.24042
0.240026
0.240854
0.246978
0.249181
0.246401
0.244622
0.222714
0.225499
0.228064
0.23273
0.229102
0.228304
0.227471
0.226004
0.223155
0.218978
0.222031
0.222402
0.221512
0.222374
0.221042
0.220471
0.233019
0.224876
0.2265
0.229323
0.228016
0.224888
0.228935
0.229381
0.21992
0.221613
0.219879
0.225791
0.22487
0.224487
0.223125
0.22045
0.220698
0.215787
0.217859
0.219584
0.216031
0.222271
0.225512
0.216372
0.221094
0.223673
0.215847
0.21163
0.211644
0.206316
0.211354
0.211036
0.211105
0.208579
0.214847
0.215908
0.208044
0.210609
0.216952
0.216371
0.213584
0.214152
0.213469
0.220851
0.222519
0.220935
0.220671
0.221133
0.224912
0.221065
0.218796
0.218083
0.229687
0.229931
0.227957
0.223345
0.218377
0.222125
0.222522
0.225498
0.224432
0.224704
0.207603
0.212339
0.206505
0.202375
0.212725
0.21088
0.210194
0.202542
0.204215
0.201049
0.204384
0.199077
0.207119
0.205794
0.214722
0.214518
0.20883
0.216629
0.218205
0.212687
0.210205
0.215108
0.21437
0.212882
0.211298
0.214492
0.217391
0.215861
0.196933
0.198547
0.198343
0.210661
0.203286
0.20713
0.20744
0.209198
0.205324
0.207834
0.20892
0.200311
0.200805
0.202071
0.229349
0.224857
0.224982
0.223743
0.215703
0.22269
0.217568
0.230133
0.229808
0.229157
0.230629
0.203281
0.20352
0.206279
0.205895
0.207207
0.204956
0.21039
0.21192
0.211919
0.205894
0.207045
0.202721
0.203802
0.193542
0.196801
0.197417
0.198638
0.194691
0.19701
0.196981
0.196352
0.197469
0.196607
0.201475
0.201198
0.19845
0.202471
0.200764
0.202269
0.202875
0.20195
0.20276
0.204834
0.231842
0.233745
0.229629
0.236704
0.235991
0.237024
0.23141
0.240135
0.233948
0.230254
0.229853
0.227575
0.224853
0.246936
0.247183
0.242521
0.240266
0.236853
0.237114
0.237904
0.235331
0.236666
0.236058
0.231073
0.231743
0.248648
0.245349
0.262596
0.263652
0.25213
0.249697
0.248054
0.245034
0.256869
0.257072
0.259253
0.233683
0.24386
0.230458
0.24216
0.246928
0.242545
0.244644
0.241432
0.239295
0.236372
0.242474
0.238687
0.257155
0.256142
0.25843
0.259946
0.261779
0.244629
0.252464
0.254203
0.258106
0.255256
0.250685
0.259929
0.250506
0.24853
0.256829
0.276681
0.268121
0.274813
0.278985
0.274016
0.266208
0.269393
0.272313
0.270383
0.269124
0.27166
0.271044
0.271446
0.269741
0.276145
0.268723
0.270384
0.268697
0.27215
0.264986
0.270227
0.268037
0.26722
0.271789
0.273975
0.264709
0.267272
0.265324
0.263486
0.258464
0.263712
0.272417
0.274718
0.263985
0.273755
0.272242
0.262267
0.257828
0.272533
0.274131
0.193688
0.194294
0.199336
0.208149
0.20615
0.208881
0.210317
0.213687
0.213654
0.211604
0.207412
0.20305
0.202586
0.206453
0.208127
0.202977
0.199477
0.200027
0.2055
0.19361
0.196439
0.203948
0.20311
0.202184
0.215722
0.21361
0.211847
0.204743
0.213473
0.214171
0.213539
0.218362
0.20986
0.212795
0.223097
0.224023
0.213851
0.212906
0.21124
0.212347
0.205675
0.205812
0.214496
0.212581
0.213075
0.213376
0.216893
0.213874
0.218072
0.2171
0.213363
0.214797
0.214735
0.212969
0.216773
0.210398
0.214106
0.202568
0.209189
0.207999
0.206963
0.210188
0.202193
0.214561
0.209429
0.204871
0.203858
0.202076
0.204443
0.213145
0.212647
0.209056
0.213507
0.219828
0.221444
0.224345
0.217446
0.214464
0.218644
0.21826
0.211954
0.206495
0.214129
0.218342
0.217644
0.222153
0.218791
0.221251
0.212999
0.211977
0.214178
0.220321
0.21725
0.217054
0.218376
0.217604
0.226908
0.230779
0.229061
0.239347
0.233911
0.229353
0.231949
0.232255
0.240556
0.240999
0.22896
0.228472
0.225901
0.22549
0.232808
0.225184
0.242601
0.232485
0.22661
0.239384
0.235719
0.230813
0.238794
0.230718
0.233834
0.233995
0.231974
0.22966
0.221071
0.216741
0.207971
0.222947
0.215567
0.211858
0.209219
0.213069
0.216925
0.218623
0.218943
0.217944
0.229722
0.22495
0.224887
0.226528
0.223457
0.229576
0.231721