/*--------------------------------*- C++ -*----------------------------------*\
| =========                 |                                                 |
| \\      /  F ield         | OpenFOAM: The Open Source CFD Toolbox           |
|  \\    /   O peration     | Version:  v1612+                                |
|   \\  /    A nd           | Web:      www.OpenFOAM.com                      |
|    \\/     M anipulation  |                                                 |
\*---------------------------------------------------------------------------*/
FoamFile
{
    version     2.0;
    format      ascii;
    class       surfaceScalarField;
    location    "50";
    object      phi;
}
// * * * * * * * * * * * * * * * * * * * * * * * * * * * * * * * * * * * * * //

dimensions      [0 3 -1 0 0 0 0];

internalField   nonuniform List<scalar> 
36863
(
-6.39578e-09
4.55052e-09
-1.09885e-08
1.28339e-08
-6.73695e-09
5.64039e-10
-2.2276e-10
9.51476e-09
2.4941e-09
-8.32149e-09
-3.68711e-09
1.32448e-10
5.13176e-09
4.25087e-09
4.57128e-09
5.24839e-09
-9.68703e-09
-4.22816e-09
-6.99457e-10
7.42187e-09
-5.37995e-09
1.41373e-08
-4.20649e-09
-5.86538e-10
-1.26808e-08
2.27925e-09
5.93143e-10
-7.91663e-09
-6.69572e-09
-6.86891e-09
5.24323e-09
-1.19921e-08
1.11835e-08
-1.30589e-10
-8.83512e-09
-3.71487e-09
-1.29005e-08
1.93866e-09
-1.03003e-09
-8.3226e-09
6.19777e-09
-1.07755e-08
-5.71272e-09
-2.74024e-09
3.77996e-10
-6.17139e-09
1.56535e-09
-9.37899e-09
3.06131e-09
-7.6147e-10
1.42967e-09
1.53224e-09
-2.20012e-09
3.7554e-11
-8.31642e-10
3.27109e-11
3.24591e-09
-2.28579e-10
-4.13534e-10
-2.60375e-09
-2.4828e-09
-3.56328e-11
3.94965e-09
5.26998e-10
2.65729e-09
-1.86475e-09
-1.31997e-09
1.18427e-09
-6.15396e-10
-4.19695e-11
3.52207e-10
4.11589e-10
-1.09577e-09
-2.34892e-09
3.40971e-09
1.26337e-10
6.6068e-10
2.08453e-10
1.41932e-09
-2.06695e-09
4.39174e-10
2.49512e-09
1.48484e-09
-3.77134e-09
-4.40705e-10
2.6435e-09
2.92576e-10
1.04421e-09
-6.50022e-11
4.78118e-09
1.10683e-09
-4.40353e-09
-2.82277e-10
1.23106e-09
1.69476e-09
1.85667e-09
2.64138e-09
4.31785e-09
-2.39014e-09
-8.22094e-10
-1.37716e-09
1.75218e-10
2.43293e-09
-4.33804e-10
1.01161e-10
1.36826e-09
4.80593e-09
-9.32631e-10
2.28992e-09
1.28043e-09
-2.63827e-09
-1.38931e-09
2.33481e-11
3.83329e-09
-5.84799e-09
1.17299e-08
-4.32619e-09
-1.55558e-09
1.18498e-08
-9.98738e-09
-7.71039e-09
4.58707e-09
3.32398e-09
3.81885e-09
7.65357e-09
8.78334e-09
-5.39915e-09
3.20913e-09
-7.79733e-09
-4.14081e-09
3.41065e-09
8.3838e-09
-4.0739e-09
3.34032e-09
-3.59255e-09
-1.73426e-10
-9.2996e-09
-6.55904e-09
2.85316e-09
3.53247e-09
-5.31881e-09
-1.17748e-09
-6.27748e-11
-7.79618e-10
-1.51997e-10
4.78896e-09
-5.83949e-09
4.37456e-09
9.75832e-09
-1.55868e-09
-7.38132e-10
-1.76103e-09
-1.716e-09
3.83102e-09
3.27269e-09
-5.1979e-10
2.05827e-09
-5.48124e-09
-3.44583e-09
-1.4513e-09
-1.77315e-10
3.67528e-09
-1.81807e-09
-1.75381e-09
-1.03077e-10
7.83104e-09
-4.8551e-09
-1.70484e-10
-3.43606e-09
-5.77239e-09
9.24726e-09
-3.33947e-09
-6.07818e-09
1.65679e-09
1.41914e-09
-2.81108e-09
-6.10619e-09
1.46438e-09
6.87888e-09
-6.68632e-09
-2.67191e-10
-7.06896e-09
3.99674e-09
-3.08836e-09
-1.80937e-10
-6.16663e-09
1.72183e-09
5.10744e-09
-1.22766e-09
-5.60126e-09
6.34717e-09
-5.40869e-09
7.83524e-10
1.31697e-08
-1.48962e-08
-3.98599e-09
5.71254e-09
3.83189e-10
-7.83518e-09
1.72131e-08
-9.76135e-09
-5.96744e-09
-1.2193e-09
1.22942e-08
-5.939e-09
9.74246e-09
-3.69445e-09
-1.08911e-10
-8.53209e-11
4.93477e-10
-9.84111e-09
-9.52688e-09
1.34002e-08
9.67604e-09
-5.37205e-09
-3.92077e-09
9.23742e-09
3.53196e-10
-1.863e-09
-4.64952e-09
1.53948e-09
4.97303e-09
-7.5409e-09
3.43939e-10
5.33391e-09
2.0549e-09
-6.95546e-09
-2.64036e-09
-2.77059e-09
1.75945e-10
-8.05263e-09
2.47995e-09
5.91658e-09
-2.95948e-09
1.1684e-09
-6.26158e-09
-1.86362e-10
-9.72859e-09
6.53851e-09
2.87099e-09
-9.59585e-09
3.8578e-09
-8.98578e-11
1.70226e-09
-6.81597e-09
7.59366e-09
-5.28304e-09
8.52476e-09
7.71429e-09
1.50286e-09
-6.34614e-09
6.28904e-09
-4.14472e-09
2.38702e-09
-1.90576e-09
-7.58429e-09
-7.32191e-10
-2.95828e-09
3.63956e-11
-5.28437e-09
1.03343e-09
2.23522e-09
-3.23172e-09
2.69459e-09
-2.39326e-09
2.22067e-10
-2.08368e-10
1.99145e-10
-1.25959e-08
1.31457e-08
-2.90224e-09
2.35265e-09
1.13349e-10
-4.21126e-09
-8.49784e-09
-6.19301e-09
-6.13246e-09
6.82227e-09
5.50343e-09
1.40914e-09
-7.11182e-09
-4.90244e-10
3.2741e-09
8.86909e-10
8.98478e-09
-4.45721e-09
1.30102e-08
-8.4395e-09
6.81875e-09
-3.6726e-09
-7.35734e-09
4.56478e-09
-6.48249e-10
-6.29045e-09
3.45746e-09
6.10723e-09
-3.16517e-10
-8.12934e-09
1.0033e-11
1.98711e-09
-6.24892e-09
-8.99224e-09
1.4189e-10
1.01379e-08
-7.3056e-09
1.01353e-08
-7.28672e-09
1.07956e-08
-2.03109e-09
-1.60699e-08
-4.26672e-09
7.99284e-09
6.40939e-09
1.99819e-09
4.53108e-09
-3.71482e-09
2.64442e-09
9.06336e-09
1.01823e-08
8.57445e-09
-5.78798e-09
-1.19526e-08
1.94863e-08
1.56362e-08
-1.16822e-08
-2.34401e-08
1.29546e-08
-2.70713e-09
9.239e-09
-1.87381e-08
6.77328e-09
7.63156e-09
-1.07334e-08
1.07533e-08
8.08438e-09
-3.05199e-08
1.33561e-08
-1.56776e-08
1.30749e-08
6.86381e-09
-1.42444e-08
2.07368e-08
-9.32356e-09
-9.88416e-09
1.00467e-08
1.56796e-08
-1.76419e-08
-9.19442e-09
-1.54659e-08
2.91847e-09
-3.2025e-10
2.99631e-09
-5.59389e-09
-1.03869e-08
2.41317e-09
1.08922e-08
-1.16239e-08
6.32741e-09
-5.09028e-09
5.14945e-11
4.02044e-09
-8.01875e-09
3.94747e-09
5.12885e-09
5.00645e-09
-1.00839e-08
-6.80171e-09
1.2897e-09
5.19026e-09
9.33127e-10
-3.51971e-09
-9.03808e-09
-2.96108e-09
9.02295e-09
1.89399e-09
6.86159e-09
-3.74964e-09
-8.87634e-10
1.08049e-09
-1.00799e-08
1.0288e-08
1.54794e-08
-1.19858e-08
-2.79816e-09
-4.20309e-10
-5.03535e-09
-4.74722e-09
-2.42342e-09
1.22061e-08
-1.12576e-08
-8.29197e-09
1.45143e-08
-3.74141e-09
-2.02428e-08
1.27268e-08
1.22841e-08
-2.75827e-08
1.15575e-08
-1.21982e-08
8.67814e-09
-7.25649e-09
1.07766e-08
-9.14122e-10
-3.01852e-09
-8.26557e-09
1.71379e-09
2.21718e-09
-1.28235e-08
6.24532e-09
-1.34355e-08
-1.07316e-08
2.17438e-08
-7.87042e-09
6.71912e-09
-1.02644e-08
-4.3057e-09
-5.67238e-09
-1.38028e-08
-2.40441e-08
-6.38667e-09
-1.53938e-08
2.08665e-08
-5.78949e-09
-1.00525e-08
-1.53783e-08
1.03648e-08
-5.71797e-09
-2.05959e-08
-2.65279e-09
4.19809e-09
4.07394e-09
-2.20747e-08
-5.89709e-09
-2.29086e-08
-1.04387e-08
-3.18806e-09
1.99599e-08
-6.33273e-09
-8.78777e-09
9.16509e-09
-1.08163e-08
-6.28645e-09
-7.35908e-09
1.04575e-08
-9.33209e-09
7.51934e-09
-4.47355e-09
-1.16963e-08
1.28191e-08
8.51779e-10
-1.97482e-09
-6.52427e-10
-1.38304e-08
5.69492e-09
-1.30134e-09
-8.49507e-09
-1.89971e-09
-1.30361e-08
5.02462e-09
3.20035e-09
-1.77632e-10
-1.23549e-08
-1.78502e-09
7.73601e-10
1.13098e-08
-9.01612e-09
-3.59521e-09
-1.02832e-08
4.47534e-10
-7.58368e-10
3.65396e-09
1.16225e-08
-7.49871e-09
-7.77775e-09
-3.84319e-09
-9.22236e-10
8.41936e-09
5.50857e-09
8.39923e-09
-4.29988e-09
-9.60776e-09
7.29161e-09
4.32294e-09
7.9874e-12
-4.74298e-09
-5.05015e-09
1.25987e-08
-2.80551e-09
-9.25395e-10
4.49659e-09
-1.107e-08
1.6899e-09
-6.45855e-09
4.92456e-09
-1.00046e-08
9.05615e-09
-3.97608e-09
-3.96553e-09
1.43987e-08
-1.69618e-09
-2.78889e-09
1.34544e-08
-8.96963e-09
1.5551e-08
-1.27506e-08
6.92004e-09
-8.0191e-09
-9.61977e-09
1.29457e-08
4.48088e-09
5.37464e-09
3.59873e-09
1.04121e-08
9.8566e-09
-7.67955e-09
5.22673e-09
-5.88858e-09
1.06085e-08
-3.91589e-09
-8.04045e-10
-2.02326e-09
1.55225e-08
-3.04279e-09
-1.04563e-08
1.47352e-08
-6.05064e-09
-1.07079e-08
-2.82825e-10
9.07275e-09
1.40729e-09
-1.01981e-08
8.86799e-09
1.47615e-09
-1.06273e-08
-2.69361e-09
7.93048e-09
3.83636e-09
5.73345e-09
7.7912e-09
-1.62177e-08
4.1329e-09
1.68911e-08
-5.50082e-09
6.18281e-10
-5.31235e-09
1.26251e-08
1.66508e-08
-2.30353e-09
-1.02139e-08
6.36296e-09
1.98891e-09
6.38362e-09
7.99313e-09
1.52612e-08
7.05759e-09
1.53269e-08
1.56692e-08
5.54455e-09
2.69809e-09
3.44247e-09
-3.36738e-09
-2.77312e-09
3.99468e-09
-9.2114e-10
-3.75415e-10
4.32673e-09
4.2974e-09
-3.32527e-09
-5.29874e-09
7.5816e-10
-3.53986e-09
-1.21461e-09
3.9965e-09
-1.14035e-10
-3.95797e-09
4.83027e-09
1.29807e-09
3.20466e-09
-1.10963e-09
-3.39268e-09
-4.52783e-09
5.44376e-09
-1.02982e-09
3.18232e-09
1.17323e-09
-9.1294e-10
3.27657e-09
3.90052e-09
3.67497e-09
-2.69333e-10
5.80903e-09
-2.13489e-10
-6.61998e-09
-8.77795e-10
-4.45373e-09
1.03855e-09
2.439e-09
-4.70249e-09
-2.19011e-09
-9.15531e-10
3.39931e-09
6.08475e-09
-4.2915e-09
1.13671e-08
1.76202e-09
-8.83785e-09
1.1629e-08
-6.13184e-09
-9.78874e-09
-8.53785e-09
4.81039e-10
1.94236e-08
4.20881e-09
-1.11796e-09
-4.84155e-09
1.29162e-08
6.80899e-09
-5.7341e-09
1.12866e-08
7.65556e-09
-1.59898e-08
-2.9524e-09
-1.34104e-09
2.83586e-09
9.79173e-09
5.28919e-11
-7.83341e-09
-1.12557e-08
3.71491e-09
1.53743e-08
2.55081e-09
-1.36338e-08
3.24985e-09
3.5325e-09
5.42783e-09
-9.74522e-09
-2.93886e-09
1.42892e-09
-5.83549e-09
-1.75433e-08
1.70404e-09
3.65308e-09
6.03839e-09
-1.1395e-08
1.4249e-09
-5.55588e-09
-2.20865e-09
-8.34401e-09
2.87357e-10
5.11816e-09
-1.07451e-08
2.04307e-09
3.09232e-09
3.36944e-09
-8.50486e-09
4.18896e-10
8.34068e-09
-8.75759e-09
-2.22795e-12
3.85984e-09
-4.26057e-09
-5.76357e-09
6.16396e-09
-5.37888e-09
3.07785e-09
-4.54783e-09
6.84905e-09
-6.6955e-09
-7.88238e-10
-9.39037e-10
8.42288e-09
-4.04483e-09
-8.02952e-09
-1.00817e-08
-6.77278e-09
7.0246e-09
9.82863e-09
-1.02748e-08
-5.9541e-10
-1.04762e-08
-7.60068e-10
4.46294e-09
-1.0286e-08
-1.0465e-08
1.19219e-08
-8.62788e-09
6.72393e-09
-1.00182e-08
4.54987e-09
6.61115e-09
-3.39783e-09
-2.36743e-09
9.62527e-09
5.66978e-09
4.51381e-11
3.90285e-09
-8.70242e-10
2.26507e-09
-1.65959e-08
3.86625e-09
-1.02289e-08
1.53799e-08
-2.65119e-09
-6.00495e-09
6.77003e-09
1.316e-08
9.04865e-09
-7.99282e-09
-3.70697e-09
8.77651e-09
-4.82381e-09
5.09613e-09
1.3179e-08
3.02312e-09
-7.14965e-09
-1.75541e-09
4.35457e-09
-5.11588e-09
4.6813e-09
-3.9198e-09
-3.83204e-11
4.6506e-09
-2.57552e-10
3.18772e-09
-7.73079e-10
-7.53046e-09
4.43504e-09
2.37903e-09
-3.62625e-09
4.72235e-09
-3.25606e-10
8.4925e-09
-2.12742e-09
-3.98597e-09
-1.21638e-09
2.36937e-09
3.56952e-09
2.55361e-09
4.72277e-09
3.98607e-09
-9.03833e-11
7.85703e-10
5.26337e-09
3.37336e-09
3.4923e-09
-1.06332e-08
6.36781e-09
-8.86344e-09
-1.30145e-11
9.46963e-10
7.92892e-09
-7.49854e-09
-5.81679e-09
-1.20933e-09
9.68156e-09
-2.65552e-09
3.76525e-10
-6.20631e-09
1.72862e-09
8.81338e-09
-9.59513e-09
6.42348e-09
1.0132e-08
5.54667e-09
6.06539e-09
8.09369e-09
-9.91792e-09
-5.61988e-10
6.60848e-09
3.87154e-09
2.83246e-11
-7.55312e-09
-2.39299e-09
-3.07748e-09
1.34706e-08
-2.33285e-09
1.42679e-08
-3.84121e-09
4.30173e-09
-2.90447e-09
-8.95033e-09
1.04352e-08
-6.54326e-09
4.09952e-10
3.23629e-09
6.63697e-09
-4.55289e-09
-8.92718e-09
1.11474e-08
-5.19866e-09
3.88215e-09
-2.2914e-09
-1.15545e-08
7.3027e-09
-8.65191e-09
-8.93792e-09
8.66277e-09
-6.94784e-11
-1.3781e-08
4.66557e-09
-1.13863e-08
1.51193e-08
-3.76008e-09
-7.6442e-09
-1.7939e-08
-1.55578e-08
1.08133e-08
2.26836e-08
5.50604e-09
-7.46796e-09
-1.59769e-08
-6.51917e-09
6.56593e-09
-1.20354e-08
9.06735e-09
-1.77097e-09
-7.30203e-10
-3.57806e-09
1.39856e-08
4.05702e-10
4.15605e-10
5.07366e-09
5.61521e-09
3.37486e-09
-1.01332e-08
1.10917e-08
-7.845e-09
6.88678e-09
-1.16586e-08
9.34726e-10
5.90696e-10
-5.81274e-09
-4.2834e-09
-1.56241e-09
-9.92765e-09
4.9649e-10
5.41296e-09
4.01882e-09
-7.55177e-09
4.27832e-09
-6.65433e-09
-1.442e-08
3.28388e-10
1.50262e-08
-2.94633e-09
1.07359e-08
4.25743e-09
-1.20468e-08
-2.24564e-08
1.32776e-08
6.23256e-09
5.95707e-09
-4.03373e-09
-7.73603e-09
-5.53642e-09
-9.12497e-09
7.10972e-09
-1.82052e-08
1.05555e-08
8.14635e-09
-4.95576e-09
-8.97074e-09
-1.23727e-09
-7.22546e-09
-2.06039e-08
-2.34745e-10
-1.61744e-09
2.22679e-09
-1.17969e-08
-1.19638e-08
-1.32381e-08
2.02464e-08
-8.30927e-09
-1.35319e-08
-1.80463e-08
4.96718e-09
2.62104e-09
-4.16573e-09
-3.4224e-09
8.45305e-09
-3.26778e-09
-2.18018e-10
-8.82179e-09
1.21029e-08
-6.71324e-09
3.43221e-09
1.21997e-08
-1.23875e-08
-8.63391e-09
-5.72997e-10
5.08122e-09
7.69155e-09
4.50942e-09
7.02053e-09
-3.18672e-09
4.70886e-09
6.93105e-09
-5.87782e-10
2.22278e-11
3.64435e-09
-1.02017e-10
-7.70806e-09
4.74712e-09
-4.37049e-09
1.5174e-09
-9.15777e-09
-1.5394e-09
-3.65641e-09
1.28603e-09
8.50407e-09
-2.27291e-09
8.06839e-09
3.47602e-09
2.93965e-09
-6.51758e-09
2.87254e-09
1.58122e-11
-5.29119e-09
5.89087e-09
-3.89093e-09
7.34923e-09
7.27728e-09
5.09094e-10
-1.51359e-08
-1.32395e-08
1.06142e-08
9.97456e-09
-1.14604e-08
1.42543e-09
-3.6735e-09
1.37084e-08
-4.60403e-09
4.20514e-10
-2.79648e-09
-5.26494e-09
-5.17831e-09
1.51542e-08
1.97062e-09
-1.04968e-08
-6.62809e-09
7.38625e-09
-2.69531e-09
1.04634e-08
-4.65453e-09
1.6694e-08
-1.05514e-08
-2.50306e-09
9.38017e-09
-1.14942e-08
-3.66168e-09
-1.90275e-08
6.58377e-09
9.49255e-10
1.83381e-08
-1.09152e-08
-5.45215e-09
2.107e-08
-5.4343e-09
-8.27749e-09
1.45309e-08
-1.3188e-08
-1.18398e-08
9.33241e-09
-1.32481e-09
3.60054e-09
-1.62751e-08
1.39996e-08
2.69722e-09
-1.53136e-08
1.12919e-08
-2.77485e-09
1.49759e-08
-8.60064e-09
-1.06584e-08
1.05806e-08
1.18196e-09
8.2316e-09
1.05016e-09
3.4455e-09
7.38541e-09
-9.64915e-09
2.90037e-09
1.50092e-08
-1.44642e-08
1.4032e-08
-6.81729e-10
-1.04499e-08
3.4124e-09
-1.3582e-08
-5.14384e-09
-1.22014e-08
-6.61308e-10
-1.29555e-09
-4.055e-09
1.18978e-08
-5.80802e-09
-5.76414e-09
7.00343e-09
-6.98948e-09
9.92385e-09
1.10975e-08
2.25548e-09
1.25866e-08
-1.2218e-08
-1.00795e-08
1.04647e-08
-7.08869e-09
1.35626e-09
2.15895e-10
5.516e-09
-7.75408e-10
-3.92044e-09
-2.39326e-09
-5.79164e-09
1.41355e-09
5.73414e-09
-3.83099e-09
-2.73633e-09
-9.84717e-09
-9.62581e-12
-1.73554e-09
1.15927e-08
2.70213e-10
-7.12481e-09
-2.99238e-09
5.09821e-09
-4.44751e-09
-4.5713e-09
1.01441e-09
4.29957e-09
1.86382e-10
1.0253e-09
-5.32027e-09
4.10833e-09
8.48493e-09
-5.76403e-09
-2.45038e-09
-1.41456e-09
9.89017e-09
1.32795e-09
-4.97247e-09
4.0799e-09
-5.20825e-09
-5.99623e-09
3.75812e-09
3.17704e-09
8.69072e-10
-3.0207e-09
3.92687e-09
-6.0778e-10
-1.41922e-10
-4.60727e-09
4.20724e-09
-3.22859e-10
-3.57263e-10
-5.25985e-09
-8.26754e-10
3.59449e-10
-4.23981e-09
-4.03133e-09
-3.24897e-10
-6.13237e-09
6.25356e-09
2.03882e-10
-6.56984e-09
6.06808e-09
1.76971e-10
6.59674e-09
2.39624e-09
1.12272e-09
-1.01149e-08
6.74828e-09
8.36578e-09
-8.51723e-09
2.05943e-09
8.01443e-09
-1.78556e-09
-8.28798e-09
-3.57614e-09
-4.96711e-10
-8.28841e-09
1.09743e-09
9.58717e-09
6.30672e-09
-4.86206e-09
4.28291e-09
-2.51869e-09
4.304e-09
2.6916e-09
7.84488e-09
1.21486e-08
-2.70855e-09
8.2292e-09
-1.19345e-08
1.91967e-09
-8.1591e-09
8.10001e-09
2.48218e-09
1.30591e-09
5.13398e-09
-1.9097e-09
3.63767e-09
-6.86199e-09
8.61107e-11
6.45922e-09
-1.41139e-09
4.32802e-09
1.76394e-09
-8.00205e-09
5.47623e-09
-1.06204e-09
4.47582e-10
2.30464e-09
5.31897e-09
3.65771e-10
-2.08208e-10
-8.56527e-09
3.0073e-09
1.11253e-09
-6.04073e-09
9.70345e-09
-9.80603e-09
-2.17468e-09
2.27523e-09
1.02831e-10
1.26081e-08
1.87506e-09
5.74838e-09
5.72213e-09
4.4322e-09
-8.39044e-09
6.29944e-09
-2.12049e-10
-4.26171e-09
-5.47807e-09
7.45551e-09
-1.35305e-09
1.22809e-08
3.4841e-09
4.49198e-09
-2.0257e-08
4.26262e-09
7.94909e-09
6.92233e-11
4.97348e-09
-1.23572e-08
1.16047e-08
-4.22102e-09
8.82955e-09
4.06527e-10
1.3312e-08
7.41011e-09
-1.72381e-08
1.09723e-08
1.02887e-08
6.7862e-09
-1.46514e-08
5.87603e-09
-6.1743e-10
5.37587e-09
9.3297e-09
8.13135e-09
-7.47716e-10
3.58863e-09
-2.43228e-09
1.59395e-08
-1.04405e-08
1.44384e-08
-6.43029e-09
-1.38028e-08
2.61446e-09
1.71777e-09
-8.1104e-09
-5.08044e-09
1.35844e-08
4.85607e-09
4.47126e-09
-1.83491e-09
-7.49214e-09
1.26105e-09
6.18682e-09
-2.59171e-09
5.10653e-09
-3.803e-09
7.13024e-09
-8.43374e-09
8.62039e-09
-2.25281e-09
-3.45417e-09
4.38793e-09
5.25316e-09
1.18139e-09
-1.64149e-10
-8.95083e-09
3.31311e-09
-3.48701e-09
-4.99842e-09
-3.95284e-09
1.24386e-08
-3.58527e-09
-5.4707e-09
5.56954e-09
7.79311e-09
-9.87888e-11
1.1415e-08
-8.2645e-10
1.26195e-09
-4.0877e-09
-3.23791e-10
-3.65324e-11
-5.53274e-09
-2.79145e-09
-1.14716e-10
-2.78182e-11
3.14751e-10
-1.89943e-10
-9.37568e-11
4.12476e-10
-1.26072e-09
-7.18644e-10
1.57226e-09
-2.60929e-09
-9.92704e-13
2.03031e-09
5.7964e-10
-3.89056e-10
-1.07047e-10
2.78012e-10
2.236e-10
-1.3795e-10
-2.14445e-10
-3.27183e-11
-6.40567e-10
6.30575e-10
-1.241e-10
3.8054e-10
-4.7867e-10
-5.65358e-10
6.71522e-10
-1.1506e-09
-1.07743e-09
1.61957e-09
2.61213e-09
-4.23311e-09
-6.67608e-10
1.85684e-09
-7.77288e-10
-2.50321e-10
-1.11284e-09
1.05178e-10
-7.46612e-10
-1.4364e-10
-1.79174e-09
2.74422e-09
-6.06763e-10
-8.3764e-11
-1.10159e-10
-5.01563e-10
6.82797e-12
-6.42814e-10
-2.12868e-10
2.01282e-09
-6.04453e-10
-3.20918e-09
1.80175e-09
-1.50438e-10
3.72572e-10
5.59231e-10
-1.66448e-09
1.27388e-09
-1.35628e-09
1.14231e-11
-3.55502e-09
9.6419e-09
7.36189e-10
-6.82315e-09
8.06807e-09
-1.98937e-09
9.72123e-09
1.25854e-08
-9.62262e-09
-4.09936e-09
7.77268e-09
5.96835e-09
3.40906e-09
5.59872e-10
8.72331e-09
-6.59578e-09
-1.39135e-09
4.9337e-09
3.86332e-09
9.24141e-10
1.09192e-08
-1.56917e-08
9.706e-09
6.31848e-09
9.53776e-10
-1.9369e-09
5.0674e-09
4.64213e-09
5.24542e-09
1.54082e-09
6.71405e-09
-1.05745e-08
9.10568e-09
9.85512e-09
1.53073e-09
-5.69502e-09
-4.17652e-09
6.80595e-10
9.191e-09
-9.45924e-09
8.19991e-09
-4.43546e-09
-4.45646e-09
4.85237e-09
-9.855e-09
6.06914e-09
5.73673e-09
-1.62621e-08
2.96123e-09
8.3198e-09
-5.21184e-09
9.79857e-09
-1.98482e-09
-1.97438e-09
-4.28065e-10
1.06025e-08
1.09669e-08
1.23811e-08
-1.76113e-08
1.30306e-08
-4.03818e-09
-1.9367e-08
9.98437e-09
2.3493e-10
9.14775e-09
2.43388e-09
-9.41974e-09
7.79969e-09
-2.17762e-09
5.9034e-09
-6.07035e-09
2.64097e-09
-2.47408e-09
1.5911e-08
-5.15732e-09
8.92384e-09
1.40912e-08
-1.89019e-08
1.0361e-08
8.77572e-09
4.69563e-09
-7.68664e-09
-2.59546e-09
-1.5398e-09
1.00388e-08
-3.64535e-09
8.94641e-09
-7.89633e-09
1.6246e-09
1.04666e-10
-6.21964e-09
6.99277e-09
9.58791e-09
1.00539e-10
-4.54291e-09
9.99595e-09
7.35495e-10
-2.36528e-08
2.84841e-09
1.97708e-08
1.03388e-09
-7.2072e-09
3.4405e-09
-1.98859e-08
1.74466e-08
1.24412e-09
-2.58978e-08
-1.679e-09
1.6418e-08
-1.12983e-08
-2.54754e-08
2.54869e-08
2.83726e-09
1.44704e-08
-2.24991e-08
1.00636e-08
2.48815e-08
-3.37008e-08
2.66594e-08
-1.82746e-08
-2.90948e-09
1.48455e-08
7.83503e-09
9.38745e-09
4.12111e-09
-1.28079e-08
2.53461e-08
1.29488e-08
7.07112e-09
-5.40829e-09
9.66536e-09
1.76087e-08
-6.1457e-10
-4.0591e-09
2.73563e-09
2.66698e-08
-3.78573e-08
2.7851e-09
3.10135e-08
-1.96561e-08
-1.11298e-08
3.2165e-08
-2.69396e-08
3.25154e-08
9.31514e-09
1.92674e-08
7.72887e-09
-1.46873e-09
1.90499e-08
5.00739e-09
3.02933e-08
2.28061e-08
1.8894e-09
5.57437e-09
3.87154e-09
-1.13352e-08
-4.49315e-09
2.53611e-09
3.84632e-09
-2.05787e-09
-8.83878e-09
6.40215e-09
-3.83756e-09
7.82357e-10
9.9506e-10
7.40208e-09
-1.00657e-08
8.23788e-09
-1.55467e-09
1.14927e-08
3.29789e-09
-9.63859e-10
-6.17177e-09
-7.77843e-09
2.23731e-09
-8.89277e-09
-3.73901e-09
1.10768e-08
-7.41433e-09
4.11103e-09
-5.58968e-09
-8.40304e-09
1.31836e-09
-3.29693e-10
-1.18013e-09
3.81792e-09
-4.21903e-09
1.26219e-09
-8.12223e-09
-3.52081e-09
1.57711e-09
3.51684e-09
-5.66089e-09
6.16065e-10
-6.17829e-09
-7.62335e-10
2.01047e-10
6.73903e-09
-7.12407e-09
7.13805e-10
2.31415e-10
-5.75142e-09
-6.04977e-09
9.97615e-10
1.08032e-08
5.96792e-09
-6.50011e-09
-5.21966e-09
1.42339e-09
-1.26373e-09
5.80792e-09
-5.04523e-10
5.2919e-09
-5.55039e-09
1.02013e-09
7.92374e-09
-9.44884e-09
-5.05239e-09
-6.48874e-10
5.43467e-09
2.37863e-09
-3.36068e-10
-7.47817e-09
2.42343e-09
-2.04161e-09
-9.76708e-09
5.25037e-09
3.59489e-09
9.20948e-10
2.70543e-09
-1.00941e-08
-7.25569e-09
-8.00524e-10
8.25713e-09
-7.73778e-09
1.19571e-09
-6.40394e-11
-3.85476e-09
4.16398e-09
-6.35947e-09
-1.06909e-08
1.18139e-08
-7.83313e-10
-8.32574e-09
9.59792e-09
5.81076e-09
-1.49781e-09
1.02951e-08
-9.83371e-09
9.35562e-09
-6.45271e-09
-1.25652e-09
8.06589e-09
-3.16053e-10
-6.49318e-09
8.16967e-09
-1.46712e-09
-7.95893e-09
-3.23132e-09
9.32788e-09
1.96932e-09
6.91101e-09
-1.97269e-09
5.11318e-09
1.47393e-09
3.23776e-10
7.01818e-09
7.42297e-09
1.12602e-08
-1.45695e-10
-7.35059e-09
-3.76384e-09
2.85841e-09
1.78272e-09
6.61911e-09
-1.13328e-08
5.03413e-09
9.15711e-09
-6.42443e-09
-5.05397e-09
-2.56695e-09
1.24079e-09
2.79995e-09
9.94943e-09
-3.21336e-09
-7.05221e-09
1.37177e-08
1.26591e-09
3.38669e-09
-5.42079e-09
-5.3163e-09
7.12636e-09
-2.60395e-09
-1.13564e-09
6.34213e-09
-1.39977e-09
-8.23796e-09
-8.58652e-10
-3.21216e-09
-7.67916e-09
1.56021e-10
-1.58725e-08
1.90544e-08
-3.33698e-09
-1.8313e-08
2.0464e-08
-1.99458e-09
-1.50938e-08
1.87625e-08
1.29417e-08
-1.66103e-08
-9.52478e-10
-2.32596e-08
9.11867e-09
-1.75953e-09
3.69945e-09
-1.78119e-08
1.30382e-09
-2.13759e-08
1.10706e-08
-4.17106e-09
1.21554e-08
2.84922e-08
-1.73015e-08
9.76677e-09
3.36437e-09
-1.71986e-08
3.59678e-09
1.99292e-08
-7.21725e-09
2.59959e-09
-1.37262e-08
1.24311e-08
-1.37469e-08
1.40921e-08
2.25483e-09
-2.67984e-09
5.3592e-09
-1.92807e-09
-7.5094e-10
9.63715e-09
1.44572e-09
-8.86075e-09
-2.22205e-09
4.01987e-09
3.63783e-09
1.97945e-09
4.78129e-09
-1.26557e-10
-1.64359e-09
-3.01001e-09
6.1212e-09
9.39941e-11
6.52837e-10
1.11102e-09
4.29378e-10
8.28948e-10
-1.16274e-09
-4.41243e-09
4.02241e-09
4.02791e-09
-2.71331e-10
-2.69518e-09
1.73617e-09
-1.57804e-09
2.3759e-10
-2.2397e-10
1.33744e-09
-1.34921e-09
6.92274e-10
1.28337e-09
1.57067e-09
-5.3631e-09
5.56877e-09
-1.77673e-09
5.03796e-09
-3.40191e-09
-6.5604e-11
-9.48739e-10
-4.66914e-09
2.54772e-10
-4.01938e-09
2.7653e-09
6.82234e-09
-2.26899e-09
3.28739e-09
-4.2952e-09
4.82336e-09
5.24955e-10
-1.05346e-09
-4.12158e-09
-1.02736e-09
8.53598e-10
-7.66669e-09
3.42905e-09
-3.21348e-11
4.26975e-09
-3.86486e-09
-2.8383e-09
-9.64192e-10
-6.47543e-10
-4.16602e-09
1.42184e-09
1.13195e-09
-1.12737e-09
7.32125e-09
-8.62223e-09
3.36162e-09
5.22804e-09
5.25826e-09
-5.32151e-09
-5.84515e-10
-3.40465e-09
2.7056e-09
-9.84922e-10
-4.69559e-09
6.92969e-09
2.01785e-09
-1.92543e-08
1.68971e-10
9.96911e-09
9.11649e-09
-2.14467e-08
1.85091e-08
1.10619e-08
-8.12333e-09
-2.2411e-08
-9.8946e-09
1.08595e-08
-2.6379e-09
-5.77061e-09
-1.08453e-08
-1.58897e-08
-5.37252e-10
1.92644e-08
-5.24199e-09
-1.98062e-08
1.48859e-08
2.32444e-09
1.54977e-09
-1.87587e-08
-1.20674e-08
1.66044e-09
2.52944e-08
-1.49847e-08
-8.38278e-09
-2.93323e-08
1.14799e-08
-7.69412e-09
1.08797e-08
-1.46652e-08
-3.05661e-09
1.39994e-08
4.8556e-09
2.6199e-09
-1.51694e-08
5.57088e-09
-3.77164e-09
-2.50552e-09
1.08317e-08
-1.80319e-09
-6.523e-09
-4.47774e-09
1.18483e-08
-9.87614e-09
1.41818e-09
6.06019e-09
3.35343e-09
-1.13187e-08
1.05327e-08
1.47855e-08
2.98357e-09
-3.42253e-09
-4.39188e-09
2.85603e-09
-5.20148e-09
6.73771e-09
5.56931e-09
-9.34031e-09
-6.20703e-10
-3.48282e-10
8.77383e-09
6.21862e-09
-8.07645e-09
1.41487e-08
-1.03809e-08
6.22661e-09
-9.6314e-09
8.71944e-09
6.97225e-09
3.14325e-09
-9.26261e-10
4.68242e-09
-8.75069e-10
-1.10037e-08
7.19676e-09
1.30536e-08
9.87142e-09
-6.69138e-10
4.45617e-09
2.01096e-09
-8.60469e-09
4.34848e-09
-9.1394e-09
4.54319e-09
-1.07076e-08
-1.58215e-08
-1.54957e-08
-1.18555e-08
4.19409e-09
-4.65878e-09
-8.13994e-09
-6.96484e-09
-5.47243e-09
-4.82413e-09
-5.64257e-09
3.46389e-09
5.74348e-09
-1.38662e-08
-1.4856e-08
1.13552e-08
-9.78821e-09
-1.94582e-08
6.81782e-09
1.88671e-08
1.15702e-09
-1.27802e-08
-1.09294e-08
-2.03689e-10
1.7951e-08
-3.04121e-09
-6.73107e-09
-8.2748e-09
6.03959e-09
5.13912e-09
-2.90382e-09
1.29914e-09
-6.67462e-09
1.22814e-08
-6.90579e-09
-3.89055e-09
-3.08509e-09
-1.61314e-08
-7.02964e-09
-6.26721e-09
9.41702e-09
-7.76303e-09
7.92888e-09
-4.05632e-09
7.80673e-09
-1.31442e-08
-2.42558e-09
-5.52666e-09
5.29911e-09
-1.42572e-09
2.70945e-09
9.76489e-10
8.73547e-09
2.06986e-10
-1.29507e-08
4.00835e-09
6.4773e-09
9.03347e-09
-6.77528e-09
4.90358e-09
1.61202e-08
-1.02183e-08
-1.08056e-08
1.63301e-08
-4.9494e-09
1.16517e-08
2.3497e-09
2.11871e-09
4.59115e-09
-4.47397e-09
1.15346e-08
4.88339e-09
-1.9085e-09
-8.52968e-09
5.55489e-09
3.82517e-10
9.09211e-09
-2.06595e-09
3.20523e-09
5.51809e-09
-6.65724e-09
-7.28712e-09
3.31268e-09
-8.38201e-09
2.20208e-09
-4.09081e-10
-4.07893e-09
-2.40362e-09
6.89154e-09
-7.11796e-09
8.26496e-12
-1.77394e-10
1.16803e-08
-3.35147e-09
7.04573e-10
5.12515e-09
-1.51364e-08
1.68854e-09
1.01676e-08
-2.74807e-09
6.33578e-09
3.1368e-09
-6.39365e-09
-4.39024e-09
7.76468e-09
6.94587e-09
-3.03035e-09
6.70516e-09
-2.74355e-09
1.05134e-08
-1.01415e-08
2.3716e-09
8.8974e-09
-9.80173e-09
-1.83919e-09
-1.97258e-09
1.29729e-09
9.5727e-09
2.60393e-10
8.28043e-09
5.14771e-09
-8.21138e-10
-5.3627e-09
1.03621e-09
3.68215e-11
6.4082e-09
-3.37268e-09
-7.16286e-10
4.12579e-09
-4.05217e-09
-1.41625e-10
4.40496e-09
-4.16525e-09
-1.00414e-08
-4.15991e-10
-2.9377e-09
-6.78778e-09
-7.82486e-09
8.28366e-09
-4.39068e-09
3.93192e-09
4.1206e-09
-6.45189e-09
-5.49354e-09
-1.40611e-09
4.48393e-10
-4.79842e-09
4.34254e-09
-4.02818e-09
7.51345e-09
2.04839e-10
-1.12415e-10
-1.87049e-09
-2.93617e-09
-1.48162e-09
-6.84067e-09
4.42159e-09
-6.27442e-09
3.71251e-10
3.93609e-09
-9.2056e-10
8.87853e-11
-8.56796e-10
-7.47838e-09
1.49464e-08
-7.56621e-09
1.11723e-08
1.72282e-08
-7.01494e-09
1.24684e-09
-1.146e-08
2.18383e-09
-1.29799e-08
3.2304e-09
-1.53207e-08
1.00259e-08
2.21929e-08
-1.90273e-08
-6.97214e-09
3.80651e-09
1.04799e-08
8.14037e-09
3.57266e-09
1.47284e-08
-1.33855e-08
1.06459e-08
-4.27584e-09
1.91836e-09
-1.96308e-08
4.32695e-09
-3.38025e-09
-1.29382e-09
-8.00164e-10
-1.52436e-09
-2.20777e-09
-8.18723e-09
1.66281e-10
-9.86793e-09
-3.531e-09
-1.01573e-08
7.05592e-09
-1.113e-08
3.09034e-09
9.83925e-10
1.60129e-09
-3.9373e-09
9.39199e-09
6.73191e-09
-7.78354e-09
-7.06387e-09
8.11562e-09
6.94505e-10
6.15981e-09
-1.22155e-10
-5.88514e-09
2.9872e-09
-4.34881e-09
-3.9147e-10
-6.06697e-09
7.03839e-09
-2.76767e-10
-1.25842e-08
1.00662e-08
-8.94282e-09
-9.71952e-09
-4.7483e-10
-7.99986e-09
-2.65522e-09
7.84158e-10
-8.84008e-09
1.24176e-09
6.81439e-09
1.80947e-09
-6.9531e-09
5.92793e-09
-6.44887e-09
-2.81231e-08
2.10304e-08
1.31509e-08
-6.058e-09
-2.21601e-08
2.3685e-08
-2.96477e-08
2.49309e-08
-1.37023e-08
-2.88701e-08
8.53514e-09
9.30095e-10
1.46506e-08
-5.05129e-08
1.35474e-08
1.53165e-08
-1.42132e-08
-2.72791e-08
2.41518e-08
4.94097e-09
2.38361e-08
2.86216e-09
2.03907e-08
-1.42687e-08
-1.53369e-09
8.50124e-09
6.27665e-09
-5.7828e-09
6.04e-09
5.00997e-09
-5.26665e-09
4.88681e-09
1.20535e-09
-1.18748e-08
9.60261e-09
-1.15619e-08
7.60956e-09
-5.65008e-09
1.39098e-09
8.39819e-09
-1.86443e-10
-3.23944e-09
7.58999e-09
1.68978e-09
4.20489e-09
-2.55731e-09
-2.59004e-09
-3.61669e-09
-5.35505e-09
7.30902e-09
-5.69419e-09
8.14009e-09
5.60227e-10
4.38525e-09
5.34889e-09
-8.52864e-09
8.18008e-09
1.2155e-09
-4.77184e-09
9.12918e-09
4.04102e-09
1.88875e-09
9.49033e-10
7.39233e-09
-8.83307e-10
1.63144e-09
9.6881e-09
-7.95586e-09
-5.63654e-09
3.59395e-09
-1.93272e-09
3.97562e-09
8.03104e-09
-3.97939e-09
8.2745e-09
1.64538e-09
9.08556e-09
2.78301e-09
9.93568e-09
6.58589e-09
6.38015e-09
3.2678e-10
2.32854e-09
3.91921e-09
7.47473e-09
1.23399e-09
5.835e-12
3.61518e-09
-4.62034e-09
9.99485e-10
3.75598e-09
-5.07233e-09
1.32252e-09
4.37291e-09
5.42011e-09
-2.29516e-09
-7.49787e-09
8.82197e-09
-6.81735e-10
-3.76731e-09
-2.49697e-09
-2.75341e-09
8.86572e-09
-5.54198e-09
6.80116e-09
-4.29842e-09
2.75455e-09
-3.52835e-09
3.42093e-09
5.22732e-09
1.73746e-10
4.22077e-09
1.68671e-09
-8.28026e-09
-3.03122e-09
6.10361e-09
-3.754e-09
4.15404e-09
-5.49846e-09
-2.86555e-09
7.82848e-11
-1.55495e-09
5.82105e-09
1.83771e-09
-2.66511e-10
8.295e-09
-1.76366e-08
-1.03987e-08
1.27609e-08
1.52749e-08
9.09792e-09
-1.4117e-08
-1.26174e-08
-1.22508e-08
3.94533e-09
-9.34852e-10
9.24072e-09
-1.56935e-09
-1.58333e-09
1.00221e-08
-3.44727e-09
-2.06918e-08
-1.03467e-09
6.58273e-10
7.20926e-09
-7.1565e-09
-1.62198e-09
-4.52699e-09
-1.61366e-10
-6.47542e-09
5.77617e-09
4.74886e-09
-1.39722e-08
5.60348e-09
-6.98371e-09
-9.42941e-09
-1.41636e-09
7.47418e-09
-9.47428e-09
6.74905e-09
-3.11884e-09
-7.07074e-10
-6.15425e-09
6.81639e-09
-7.51594e-09
6.85392e-09
-1.79884e-09
2.18939e-09
-6.15031e-09
6.03317e-09
-2.07212e-09
-2.78487e-10
-8.57229e-10
2.54746e-09
-2.35913e-09
-4.66574e-10
-1.36371e-09
3.69777e-09
3.61081e-09
5.26852e-09
-7.45037e-09
-1.42882e-09
1.84072e-09
-5.88909e-10
7.1899e-10
-4.52888e-09
2.70034e-09
-4.16799e-09
3.52339e-09
-3.19408e-10
6.89851e-10
-4.89913e-09
4.9794e-09
-3.01954e-11
2.65211e-09
4.28855e-09
6.47419e-09
-5.73915e-09
-5.0234e-09
5.91328e-09
-1.35169e-09
-2.72874e-10
-7.01561e-09
5.81939e-09
7.1097e-09
-4.01754e-10
-1.39695e-10
3.55622e-09
6.40421e-10
5.7025e-09
-5.48674e-09
3.34059e-09
4.56518e-09
-2.14217e-10
7.36101e-09
-1.07504e-09
-6.68776e-09
1.38316e-09
4.23586e-09
-1.05375e-09
1.30354e-08
5.23286e-10
2.93717e-10
6.90895e-09
1.52678e-08
-7.02046e-09
6.26481e-09
8.25734e-09
-7.50162e-09
-2.41797e-09
2.15162e-10
-4.81771e-09
-1.50392e-08
-4.87819e-09
5.4498e-09
1.44677e-08
-1.03346e-09
-3.06725e-09
-5.27531e-09
5.48793e-10
1.09913e-08
-5.67978e-09
5.76631e-09
4.65441e-10
1.86191e-09
3.59575e-10
-5.78895e-09
1.17876e-08
-9.45815e-10
2.03313e-09
-4.34495e-09
7.0619e-09
-4.74998e-09
-1.68088e-09
2.77444e-09
-5.51471e-09
4.42191e-09
2.59369e-09
-4.71793e-09
4.44362e-10
7.40131e-09
-8.37326e-09
9.7918e-09
-4.04022e-09
2.62172e-09
3.76592e-09
-5.44973e-09
-6.68915e-09
1.55198e-10
3.30196e-10
-4.93806e-09
4.00672e-10
-9.77245e-10
4.86592e-09
-9.44646e-10
9.93987e-09
4.7633e-09
-1.10907e-08
-4.21497e-09
-8.64273e-09
1.02963e-08
-2.08156e-09
1.0058e-08
-7.42473e-09
-1.12759e-08
1.1152e-08
5.94479e-10
-1.68846e-09
1.01349e-08
1.13136e-08
1.44858e-09
-1.33087e-08
5.04144e-09
-9.055e-10
5.99922e-09
-3.88379e-10
1.28791e-08
-7.44923e-09
3.22253e-09
7.70334e-09
-9.47727e-09
7.9227e-09
-4.01954e-09
6.57712e-09
-5.62276e-09
1.01946e-09
-1.9739e-09
6.71633e-09
-6.23076e-09
6.09153e-09
-2.83198e-09
9.15994e-09
-7.83743e-09
4.10007e-09
7.1017e-09
7.03462e-09
-6.43289e-09
7.63816e-09
5.80905e-11
7.12364e-09
-4.82367e-09
7.59428e-10
1.33498e-10
-7.8555e-09
7.65617e-09
-6.13428e-11
-4.98318e-09
5.41084e-09
7.75293e-09
1.0223e-09
1.58372e-09
8.83539e-09
3.21816e-09
4.93283e-09
1.10092e-08
-2.90224e-09
-6.75697e-09
-8.43203e-09
1.80903e-08