/*--------------------------------*- C++ -*----------------------------------*\
| =========                 |                                                 |
| \\      /  F ield         | OpenFOAM: The Open Source CFD Toolbox           |
|  \\    /   O peration     | Version:  v1612+                                |
|   \\  /    A nd           | Web:      www.OpenFOAM.com                      |
|    \\/     M anipulation  |                                                 |
\*---------------------------------------------------------------------------*/
FoamFile
{
    version     2.0;
    format      ascii;
    class       volScalarField;
    location    "100";
    object      p;
}
// * * * * * * * * * * * * * * * * * * * * * * * * * * * * * * * * * * * * * //

dimensions      [0 2 -2 0 0 0 0];

internalField   nonuniform List<scalar> 
21325
(
3.18045
3.24526
3.20375
3.24692
3.19879
3.18483
3.24488
3.16447
3.24324
3.19799
3.22126
3.23364
3.23865
3.25169
3.21419
3.17664
3.1795
3.22499
3.20298
3.19015
3.24523
3.22552
3.26176
3.25513
3.18825
3.19392
3.18454
3.22493
3.21817
3.19182
3.25516
3.17708
3.18635
3.19414
3.22446
3.18892
3.19885
3.20423
3.20729
3.1844
3.17424
3.18968
3.17901
3.23662
3.21412
3.21062
3.21046
3.17383
3.19032
3.17267
3.19231
3.19756
3.21945
3.17893
3.18091
3.23926
3.24783
3.16668
3.1823
3.21706
3.25106
3.23939
3.24416
3.21806
3.2522
3.2143
3.23937
3.16628
3.19873
3.24908
3.18533
3.18723
3.22788
3.22752
3.23188
3.23555
3.18923
3.24045
3.22807
3.25209
3.22838
3.22814
3.22706
3.20525
3.17461
3.17694
3.16815
3.18087
3.17835
3.20927
3.20247
3.19927
3.1923
3.19161
3.1934
3.24937
3.24684
3.21785
3.18632
3.18019
3.17828
3.1707
3.15893
3.25712
3.25433
3.21349
3.21424
3.16997
3.1695
3.23439
3.23249
3.20501
3.21548
3.16573
3.25017
3.25044
3.19385
3.2501
3.25613
3.25141
3.1816
3.18348
3.17823
3.19931
3.19043
3.16768
3.20672
3.20586
3.20512
3.24492
3.18855
3.18861
3.24257
3.18443
3.19848
3.21434
3.22759
3.22477
3.24914
3.23
3.2288
3.24586
3.19343
3.19118
3.23238
3.2512
3.20332
3.19489
3.23899
3.23722
3.21481
3.21846
3.17513
3.2202
3.21779
3.24925
3.24941
3.16534
3.16693
3.2329
3.25873
3.21529
3.21505
3.21375
3.21361
3.23908
3.18873
3.17182
3.18797
3.17781
3.18328
3.21866
3.21924
3.22015
3.22473
3.22612
3.17409
3.16947
3.25593
3.16447
3.16686
3.25116
3.24031
3.2412
3.24797
3.24912
3.25321
3.24276
3.23152
3.23509
3.22426
3.21712
3.21569
3.22125
3.23498
3.17119
3.17565
3.1706
3.16703
3.17868
3.18633
3.17156
3.18889
3.17381
3.23224
3.23809
3.24448
3.22277
3.22726
3.22185
3.23018
3.23174
3.23155
3.22998
3.22967
3.23786
3.16566
3.24675
3.20437
3.24158
3.25429
3.23895
3.23365
3.23815
3.23216
3.24109
3.24009
3.2275
3.22808
3.23729
3.1871
3.17921
3.18429
3.17359
3.23502
3.2495
3.24558
3.25147
3.19525
3.18731
3.21088
3.19491
3.23437
3.23578
3.22999
3.16507
3.15931
3.16263
3.24228
3.2389
3.1953
3.18335
3.21168
3.21301
3.17508
3.25555
3.25112
3.18788
3.19161
3.19303
3.19081
3.18963
3.18759
3.17641
3.16675
3.17416
3.24695
3.25911
3.25215
3.19983
3.20803
3.19356
3.21676
3.2188
3.21877
3.21502
3.19277
3.16948
3.2149
3.24303
3.24778
3.23468
3.24179
3.24829
3.21666
3.21757
3.21197
3.21229
3.21174
3.21161
3.20117
3.19928
3.19663
3.22071
3.22483
3.19851
3.17254
3.18199
3.1754
3.23265
3.26012
3.25767
3.19796
3.20746
3.20569
3.23121
3.2319
3.2339
3.22884
3.23076
3.20277
3.19926
3.19663
3.19598
3.20783
3.19938
3.18013
3.19109
3.18895
3.21296
3.22369
3.21943
3.18242
3.1878
3.17146
3.17326
3.21662
3.21459
3.21203
3.16941
3.21786
3.2092
3.19705
3.17212
3.25522
3.22396
3.22347
3.16026
3.20987
3.19738
3.2049
3.23856
3.24349
3.25255
3.19239
3.22219
3.21966
3.21367
3.21882
3.22744
3.22668
3.17402
3.17856
3.24093
3.16553
3.19982
3.23233
3.22418
3.2214
3.25693
3.25759
3.25295
3.22671
3.20777
3.20215
3.21243
3.21025
3.17529
3.17196
3.16285
3.20379
3.24474
3.15787
3.18056
3.1739
3.20992
3.18169
3.20583
3.18006
3.23502
3.21
3.24474
3.16765
3.24714
3.19708
3.20048
3.23065
3.22969
3.23758
3.20278
3.1769
3.24552
3.25214
3.21454
3.18566
3.23368
3.19203
3.20522
3.20425
3.20927
3.17596
3.24591
3.21117
3.25209
3.19776
3.19602
3.19806
3.1979
3.19595
3.20831
3.19673
3.20099
3.22557
3.19211
3.20113
3.1934
3.19501
3.18795
3.2401
3.25218
3.18923
3.19239
3.21086
3.18276
3.19296
3.23056
3.23734
3.24177
3.20658
3.1767
3.1829
3.24772
3.20539
3.25
3.16556
3.23761
3.23642
3.22464
3.22139
3.18783
3.19485
3.2009
3.1995
3.1894
3.17516
3.1734
3.16942
3.16085
3.18739
3.21974
3.23454
3.23902
3.22057
3.25631
3.25445
3.21317
3.21079
3.23459
3.23831
3.238
3.21807
3.17072
3.17674
3.20869
3.21698
3.21051
3.20913
3.20358
3.2244
3.21862
3.19654
3.24692
3.24085
3.22708
3.23467
3.23609
3.21905
3.21426
3.21719
3.21319
3.18291
3.17997
3.18478
3.1971
3.17414
3.1924
3.18523
3.1906
3.18356
3.21904
3.20961
3.2136
3.20703
3.20849
3.24944
3.19886
3.20643
3.17954
3.20115
3.1799
3.17299
3.22863
3.21807
3.19592
3.18685
3.21875
3.19901
3.17656
3.24614
3.18306
3.17327
3.19375
3.2508
3.19753
3.23357
3.24144
3.18274
3.22869
3.22539
3.21866
3.22163
3.21863
3.19669
3.20082
3.18016
3.19986
3.19056
3.18649
3.18176
3.2046
3.18558
3.20428
3.20527
3.20822
3.20993
3.25163
3.23331
3.20507
3.17452
3.18066
3.22912
3.23818
3.23328
3.23438
3.20636
3.17652
3.17643
3.16858
3.20795
3.20134
3.20695
3.19345
3.19054
3.22699
3.16396
3.21004
3.1872
3.26062
3.25269
3.18322
3.24513
3.222
3.22196
3.21672
3.24201
3.23838
3.24742
3.25154
3.21034
3.18034
3.25476
3.25666
3.2281
3.22968
3.24499
3.24848
3.20995
3.21104
3.2205
3.16625
3.17303
3.17862
3.17217
3.18438
3.17843
3.1725
3.19537
3.21147
3.23617
3.22696
3.15981
3.18822
3.18771
3.21033
3.1668
3.167
3.17763
3.19362
3.23487
3.24912
3.24148
3.24068
3.23153
3.20656
3.22832
3.22207
3.25902
3.20131
3.19895
3.20642
3.20787
3.25528
3.25074
3.24063
3.17112
3.17761
3.17884
3.17412
3.16663
3.16415
3.1764
3.17122
3.17862
3.18348
3.16938
3.18694
3.18252
3.21016
3.21614
3.2128
3.25644
3.24467
3.23715
3.2489
3.24931
3.24795
3.22516
3.2373
3.21879
3.22959
3.22831
3.23004
3.22242
3.22149
3.21378
3.20511
3.21904
3.21013
3.20833
3.21716
3.22876
3.23943
3.23156
3.24074
3.2427
3.22724
3.21881
3.21713
3.23751
3.22429
3.22441
3.2249
3.23002
3.21571
3.21868
3.22722
3.25079
3.25389
3.16676
3.19621
3.18626
3.18865
3.19623
3.187
3.18517
3.19794
3.20989
3.20071
3.22096
3.19055
3.18825
3.19978
3.20819
3.19949
3.19608
3.20376
3.20149
3.19011
3.19664
3.19184
3.19678
3.16576
3.16861
3.17318
3.17804
3.17489
3.17022
3.17846
3.17377
3.18295
3.18821
3.18801
3.1781
3.18424
3.1851
3.20281
3.19718
3.18123
3.18521
3.19367
3.18177
3.1866
3.18761
3.18067
3.19215
3.19358
3.18763
3.16965
3.16841
3.17926
3.19197
3.25146
3.2541
3.2399
3.24263
3.23956
3.24495
3.21339
3.24935
3.24228
3.25241
3.25114
3.2473
3.22578
3.23585
3.23564
3.23471
3.22522
3.23929
3.23308
3.22695
3.24724
3.24131
3.25574
3.25484
3.23845
3.23682
3.22674
3.22208
3.24053
3.23347
3.22754
3.22671
3.23957
3.19737
3.20659
3.19581
3.21781
3.22365
3.25046
3.22833
3.21511
3.21679
3.21643
3.21749
3.24179
3.17064
3.16825
3.16638
3.19862
3.18978
3.19233
3.19136
3.18106
3.22267
3.22388
3.22395
3.21873
3.20471
3.19536
3.19812
3.20114
3.19992
3.19534
3.18441
3.24252
3.25058
3.2273
3.22151
3.22899
3.22415
3.22568
3.22108
3.22356
3.21181
3.21858
3.21672
3.21873
3.21264
3.21395
3.22027
3.22686
3.23306
3.2296
3.23724
3.23747
3.23138
3.2356
3.22777
3.23412
3.22575
3.23138
3.22933
3.22733
3.22187
3.2165
3.22145
3.22188
3.16808
3.15979
3.16189
3.1621
3.19281
3.19828
3.19784
3.1933
3.19463
3.19816
3.18821
3.17955
3.18105
3.17811
3.21396
3.20969
3.21348
3.21136
3.20634
3.20385
3.19948
3.18581
3.18876
3.18177
3.18529
3.18765
3.18732
3.1832
3.17011
3.17122
3.16726
3.16553
3.16949
3.17012
3.17564
3.17252
3.17294
3.1716
3.17468
3.17351
3.1729
3.17065
3.16974
3.19885
3.19184
3.20056
3.19549
3.19512
3.19449
3.19782
3.17224
3.17279
3.17804
3.17484
3.17785
3.18229
3.17187
3.17612
3.17266
3.1782
3.16967
3.16812
3.17451
3.23362
3.16632
3.24842
3.25401
3.2519
3.2518
3.22334
3.22311
3.25451
3.25424
3.25191
3.25351
3.25248
3.25305
3.24171
3.23798
3.24572
3.241
3.2422
3.24185
3.24086
3.2377
3.23539
3.2289
3.23298
3.23674
3.23906
3.23869
3.23957
3.23789
3.23987
3.24185
3.23406
3.23579
3.2364
3.23541
3.23481
3.23245
3.24164
3.23774
3.23322
3.23644
3.23748
3.23656
3.20481
3.19523
3.20822
3.20746
3.20252
3.20429
3.20479
3.20413
3.20972
3.22886
3.21866
3.25532
3.24328
3.23984
3.20121
3.1855
3.19439
3.20353
3.19687
3.20416
3.20383
3.19989
3.20476
3.21164
3.20259
3.20345
3.20729
3.20725
3.20539
3.20576
3.20928
3.21224
3.20696
3.21362
3.21278
3.209
3.20062
3.19978
3.20303
3.20584
3.19451
3.19488
3.20519
3.2063
3.20496
3.20335
3.20896
3.20161
3.20893
3.212
3.19921
3.20654
3.20541
3.21092
3.20404
3.25281
3.24287
3.24336
3.24458
3.23255
3.24936
3.24258
3.24767
3.24596
3.24598
3.24746
3.24666
3.24959
3.23883
3.24148
3.23376
3.24977
3.24666
3.242
3.17327
3.18565
3.1765
3.17817
3.17779
3.17788
3.16809
3.16715
3.17257
3.1647
3.16379
3.17191
3.17129
3.16966
3.16929
3.17078
3.17543
3.17584
3.1702
3.17952
3.17869
3.18407
3.17668
3.16442
3.17095
3.18027
3.17324
3.16821
3.169
3.17133
3.1766
3.16887
3.17233
3.1706
3.17515
3.1722
3.17094
3.174
3.16511
3.16722
3.1702
3.16972
3.16822
3.17057
3.16768
3.17686
3.17977
3.17374
3.17628
3.17736
3.17181
3.16918
3.169
3.16895
3.16645
3.17801
3.17307
3.18134
3.17648
3.17708
3.17582
3.17675
3.19138
3.17835
3.18558
3.18453
3.18444
3.18174
3.18557
3.18473
3.19108
3.18337
3.18558
3.18666
3.1829
3.17493
3.16862
3.17661
3.17298
3.16982
3.17683
3.18167
3.17938
3.17083
3.17992
3.17619
3.17815
3.17666
3.18833
3.16715
3.18033
3.18005
3.1769
3.17884
3.17456
3.16888
3.17381
3.24381
3.23877
3.25067
3.23913
3.22613
3.22793
3.23161
3.2354
3.23886
3.23536
3.22763
3.23807
3.19567
3.20822
3.20191
3.19947
3.21188
3.20519
3.21491
3.20806
3.21302
3.21095
3.21152
3.2193
3.22267
3.22813
3.22021
3.21161
3.21105
3.1998
3.20888
3.20905
3.21258
3.21516
3.20414
3.21079
3.20886
3.21064
3.20347
3.2127
3.18436
3.17899
3.17683
3.19715
3.18339
3.18603
3.18516
3.19386
3.1939
3.19665
3.19477
3.18434
3.19356
3.1893
3.18956
3.18599
3.19054
3.18385
3.1898
3.18974
3.19428
3.24927
3.25437
3.25277
3.24688
3.25254
3.24643
3.24844
3.24922
3.25001
3.24906
3.2514
3.23747
3.2467
3.23629
3.24599
3.23954
3.24016
3.23547
3.23772
3.24955
3.24766
3.25269
3.24654
3.24616
3.25038
3.25058
3.24891
3.25049
3.24446
3.24504
3.24708
3.24106
3.24148
3.24705
3.2534
3.25254
3.2521
3.23243
3.24475
3.2407
3.24075
3.23503
3.24067
3.23915
3.23728
3.21829
3.22392
3.21337
3.21638
3.21864
3.21984
3.21414
3.22744
3.23097
3.22013
3.22618
3.22423
3.22449
3.2241
3.23017
3.22735
3.22223
3.23315
3.22628
3.23142
3.22991
3.22937
3.23498
3.23509
3.22977
3.21767
3.21834
3.22055
3.22469
3.21853
3.21745
3.22346
3.21684
3.22236
3.22748
3.21948
3.22518
3.22397
3.21937
3.21475
3.20608
3.21151
3.20759
3.21379
3.21318
3.20812
3.20953
3.20438
3.20633
3.2039
3.20798
3.21609
3.21111
3.21348
3.2089
3.21218
3.21273
3.22075
3.21414
3.21209
3.21287
3.21565
3.21639
3.2141
3.21923
3.21097
3.21404
3.21228
3.2167
3.21503
3.21453
3.20705
3.21331
3.21485
3.21386
3.2084
3.21092
3.21326
3.22614
3.22688
3.22784
3.22536
3.22617
3.24014
3.24563
3.24444
3.24611
3.24051
3.24045
3.24616
3.2289
3.23452
3.23167
3.24131
3.24259
3.2359
3.23317
3.23822
3.2389
3.23508
3.22994
3.23753
3.234
3.22673
3.23485
3.23442
3.23157
3.24081
3.23741
3.23574
3.23507
3.23775
3.23534
3.24269
3.23123
3.22558
3.23063
3.23383
3.23019
3.22158
3.21846
3.22127
3.22205
3.22384
3.22293
3.21303
3.22047
3.21086
3.21805
3.21621
3.21795
3.21712
3.23475
3.23458
3.24545
3.23897
3.23925
3.23817
3.23916
3.22656
3.22264
3.23361
3.2273
3.22952
3.22821
3.22876
3.22176
3.22025
3.23093
3.22663
3.22436
3.22242
3.22718
3.22193
3.22215
3.21909
3.22452
3.21865
3.21919
3.22408
3.23281
3.23442
3.23065
3.22952
3.23529
3.23534
3.22952
3.22721
3.22183
3.22886
3.22529
3.2078
3.22363
3.22031
3.21224
3.21517
3.21996
3.20949
3.2283
3.21716
3.21223
3.218
3.21284
3.21123
3.23273
3.22605
3.22227
3.25239
3.24102
3.24803
3.25007
3.24717
3.25508
3.24867
3.24762
3.25947
3.2565
3.25564
3.24914
3.25465
3.25007
3.25548
3.25448
3.25922
3.25071
3.25271
3.25969
3.24982
3.24917
3.25217
3.16051
3.17583
3.18219
3.16577
3.16609
3.1673
3.16855
3.16388
3.16212
3.16647
3.17016
3.1681
3.16844
3.17563
3.15551
3.19887
3.199
3.20213
3.19677
3.20337
3.20248
3.19791
3.18494
3.18011
3.18066
3.1807
3.18638
3.18641
3.18059
3.19085
3.18507
3.18979
3.1884
3.18462
3.1871
3.18555
3.19239
3.1951
3.19309
3.18742
3.18973
3.19186
3.19743
3.1893
3.19224
3.19108
3.19554
3.19366
3.19298
3.19597
3.18619
3.18884
3.18999
3.19063
3.18942
3.19182
3.18753
3.1949
3.19782
3.1935
3.19416
3.19506
3.1931
3.20631
3.20728
3.2103
3.21286
3.20767
3.20659
3.21463
3.21875
3.2088
3.21691
3.21685
3.22057
3.21948
3.21009
3.20914
3.20759
3.21682
3.21172
3.21204
3.21484
3.21648
3.20838
3.21247
3.21635
3.20884
3.20596
3.18971
3.18886
3.18446
3.18733
3.18828
3.20306
3.1993
3.19149
3.19157
3.18022
3.1878
3.18704
3.18693
3.1858
3.19501
3.20098
3.19783
3.19742
3.20138
3.19595
3.19715
3.2055
3.20801
3.2042
3.2032
3.20416
3.20322
3.20405
3.20355
3.20651
3.20287
3.20808
3.2081
3.20285
3.19161
3.19155
3.19461
3.19723
3.1916
3.19157
3.19715
3.20013
3.2052
3.19363
3.2001
3.19643
3.19952
3.19673
3.20506
3.2063
3.19514
3.19997
3.20224
3.20236
3.19829
3.18858
3.19113
3.18218
3.1881
3.18501
3.17953
3.18577
3.20071
3.19921
3.19588
3.19524
3.19929
3.19584
3.18501
3.18121
3.19869
3.19083
3.19016
3.19363
3.20995
3.20429
3.21255
3.20732
3.20986
3.20966
3.20126
3.2079
3.2008
3.2029
3.20141
3.20432
3.20413
3.20342
3.19641
3.19237
3.19753
3.19156
3.19723
3.20637
3.20377
3.2072
3.21046
3.2035
3.19019
3.2039
3.19868
3.19515
3.20656
3.19846
3.20212
3.19921
3.19883
3.16838
3.16497
3.16469
3.16418
3.16569
3.16509
3.1699
3.16234
3.17085
3.17274
3.17305
3.18678
3.16103
3.17025
3.1808
3.16749
3.1824
3.17727
3.16702
3.17841
3.19072
3.16956
3.16742
3.1765
3.17123
3.16779
3.1747
3.17176
3.17611
3.18031
3.18076
3.19601
3.19323
3.18406
3.18608
3.18413
3.18113
3.18509
3.17032
3.1713
3.18165
3.17722
3.1672
3.1747
3.17754
3.17657
3.17355
3.1735
3.17957
3.17471
3.17989
3.17869
3.18045
3.17824
3.17216
3.18562
3.18752
3.18559
3.18232
3.1871
3.18621
3.18952
3.19473
3.18765
3.19079
3.19076
3.18785
3.18132
3.17518
3.17845
3.17976
3.1758
3.17339
3.1828
3.18727
3.18654
3.17604
3.18292
3.18115
3.18287
3.18204
3.18542
3.19036
3.18383
3.18267
3.18956
3.18506
3.19801
3.20626
3.20579
3.20817
3.20084
3.16705
3.17823
3.17116
3.18411
3.1744
3.18308
3.18031
3.18142
3.17618
3.17589
3.17948
3.19666
3.18807
3.20007
3.19559
3.1949
3.19384
3.19861
3.1734
3.18126
3.1697
3.17087
3.17588
3.1694
3.18763
3.177
3.1695
3.18276
3.18829
3.17733
3.18165
3.1809
3.18217
3.18305
3.18391
3.18993
3.18678
3.1918
3.19239
3.18387
3.17404
3.17322
3.1839
3.17535
3.17199
3.17915
3.18611
3.18673
3.17657
3.18651
3.18141
3.17929
3.18453
3.19468
3.20302
3.20289
3.19713
3.20138
3.20236
3.19806
3.18112
3.19166
3.19283
3.18785
3.18777
3.19408
3.1843
3.19569
3.18483
3.19411
3.1924
3.18899
3.19296
3.19525
3.19041
3.19085
3.17091
3.16732
3.16823
3.17022
3.16698
3.17551
3.17716
3.17283
3.17756
3.1678
3.16909
3.1985
3.19192
3.20369
3.20294
3.19738
3.24231
3.2446
3.24596
3.21922
3.22167
3.16944
3.17016
3.19058
3.18554
3.1774
3.24344
3.24798
3.25428
3.25154
3.25452
3.25365
3.24495
3.24807
3.24439
3.24313
3.24424
3.23849
3.24438
3.24185
3.2406
3.24169
3.24837
3.25162
3.24513
3.24768
3.24551
3.2483
3.24009
3.23792
3.23266
3.23445
3.23039
3.23513
3.24082
3.2482
3.24682
3.24837
3.24251
3.24107
3.24302
3.21223
3.21694
3.25067
3.26494
3.24338
3.24289
3.24439
3.24557
3.23931
3.24948
3.24813
3.25454
3.25211
3.25126
3.25456
3.25091
3.25593
3.25546
3.24967
3.25596
3.25091
3.24449
3.25171
3.24713
3.2443
3.25372
3.25849
3.25775
3.21921
3.22532
3.21319
3.21643
3.21874
3.21997
3.22169
3.23553
3.22867
3.23654
3.23983
3.23488
3.23349
3.23635
3.23821
3.23462
3.22882
3.22388
3.22488
3.22853
3.21988
3.22766
3.22594
3.23425
3.23763
3.23766
3.23769
3.23126
3.23458
3.23232
3.23766
3.22726
3.23221
3.22978
3.22515
3.2344
3.22933
3.23259
3.23048
3.22734
3.21679
3.2159
3.21884
3.20978
3.21392
3.21609
3.22798
3.22715
3.2279
3.21398
3.21567
3.22315
3.22074
3.22403
3.22185
3.23136
3.22627
3.22179
3.21769
3.24351
3.24717
3.24783
3.25844
3.25317
3.24919
3.25147
3.2476
3.2454
3.25204
3.25215
3.24539
3.25201
3.24
3.24518
3.24798
3.24317
3.24622
3.24164
3.24817
3.24991
3.24669
3.24704
3.24629
3.23933
3.25043
3.25382
3.24565
3.24866
3.23981
3.2408
3.24542
3.24503
3.24388
3.24419
3.23758
3.23778
3.23713
3.2398
3.25074
3.22976
3.24387
3.24191
3.24795
3.23726
3.23254
3.23058
3.23078
3.23341
3.23093
3.23054
3.21687
3.22217
3.21425
3.21884
3.22073
3.22298
3.2183
3.23822
3.23634
3.24755
3.24266
3.2409
3.23923
3.24402
3.22518
3.22584
3.23683
3.23155
3.23424
3.23399
3.23513
3.23143
3.22496
3.23551
3.23167
3.23031
3.22901
3.23391
3.23348
3.22709
3.22463
3.22823
3.22519
3.22425
3.22812
3.23632
3.24171
3.23846
3.23589
3.23969
3.24149
3.23394
3.17114
3.17876
3.20402
3.19932
3.19249
3.20162
3.19725
3.19669
3.20005
3.17315
3.17648
3.18422
3.17567
3.18961
3.18499
3.19117
3.19765
3.18986
3.18729
3.20047
3.20556
3.20906
3.20603
3.20383
3.19834
3.19659
3.19364
3.20939
3.20193
3.20843
3.20033
3.22116
3.21272
3.21959
3.2132
3.22121
3.23538
3.2197
3.21544
3.20904
3.21072
3.2144
3.22126
3.22636
3.23072
3.21112
3.21236
3.24649
3.24042
3.25228
3.25685
3.25725
3.2581
3.23108
3.21119
3.21307
3.21181
3.23643
3.16719
3.18046
3.2193
3.2134
3.21258
3.19049
3.20392
3.19199
3.19527
3.19293
3.1923
3.19073
3.2397
3.24189
3.24021
3.2256
3.2268
3.22325
3.22518
3.21289
3.21352
3.21574
3.21465
3.21514
3.21487
3.21501
3.23804
3.23569
3.23407
3.23609
3.23683
3.23704
3.23598
3.22057
3.22365
3.22299
3.2261
3.22233
3.22293
3.22401
3.21159
3.21225
3.21895
3.21365
3.15885
3.16071
3.16493
3.18736
3.19571
3.19112
3.1901
3.18962
3.18951
3.19065
3.17973
3.18453
3.18673
3.17981
3.21415
3.21476
3.20617
3.20965
3.20179
3.20399
3.17884
3.19019
3.16801
3.16636
3.16681
3.16905
3.17002
3.16487
3.16705
3.16824
3.16847
3.16657
3.18586
3.18127
3.17951
3.17804
3.17922
3.18123
3.17975
3.16541
3.16758
3.16539
3.16634
3.16671
3.16698
3.1661
3.19204
3.19634
3.19003
3.19374
3.19287
3.19475
3.19232
3.18156
3.18037
3.2208
3.21932
3.23698
3.25333
3.23613
3.23297
3.22897
3.2438
3.24628
3.24782
3.24823
3.24511
3.24645
3.24706
3.24406
3.2461
3.24031
3.24436
3.24239
3.24421
3.2439
3.24039
3.22926
3.23472
3.22629
3.2313
3.20252
3.20385
3.20537
3.23443
3.23139
3.20904
3.25553
3.19336
3.19758
3.19355
3.19683
3.19823
3.19921
3.19195
3.20253
3.20535
3.19979
3.20278
3.20318
3.20251
3.20126
3.20164
3.20349
3.19887
3.20105
3.2013
3.20295
3.20168
3.20819
3.20531
3.20415
3.20695
3.20731
3.2076
3.20624
3.20822
3.20397
3.2069
3.20837
3.20967
3.21779
3.20708
3.20282
3.20568
3.20398
3.20697
3.20298
3.20501
3.20474
3.25038
3.25197
3.24897
3.25766
3.25146
3.25726
3.25417
3.24722
3.23921
3.24286
3.17536
3.17232
3.17122
3.16623
3.16436
3.17979
3.17536
3.17692
3.17684
3.1778
3.17703
3.17755
3.17842
3.17801
3.17501
3.17633
3.17366
3.17845
3.17513
3.17397
3.17334
3.17776
3.16718
3.16986
3.16327
3.16638
3.16581
3.16935
3.16565
3.16456
3.16757
3.16142
3.16538
3.16428
3.16628
3.16503
3.17676
3.17498
3.17911
3.17665
3.1761
3.17686
3.17784
3.17148
3.16721
3.16874
3.18041
3.18139
3.17618
3.1788
3.1796
3.18052
3.17745
3.17395
3.17962
3.17611
3.18581
3.18126
3.18278
3.18223
3.18377
3.183
3.18351
3.16865
3.17361
3.17225
3.17567
3.17688
3.17218
3.17442
3.17759
3.17611
3.17682
3.17926
3.17856
3.17463
3.17851
3.18053
3.18074
3.18147
3.18032
3.1815
3.23935
3.2368
3.24129
3.23784
3.2404
3.23893
3.24235
3.22722
3.23243
3.22516
3.23666
3.23939
3.23891
3.21746
3.22624
3.24604
3.22958
3.22792
3.23545
3.21882
3.21073
3.20669
3.21495
3.21594
3.21138
3.2132
3.2179
3.20893
3.2047
3.21569
3.20331
3.2113
3.21168
3.21491
3.21369
3.21421
3.21656
3.17716
3.17602
3.18691
3.18267
3.1997
3.18657
3.18676
3.1861
3.18726
3.18521
3.19
3.19021
3.1972
3.19431
3.252
3.24404
3.25011
3.24135
3.24217
3.24579
3.24858
3.24315
3.24515
3.24592
3.24635
3.24396
3.24068
3.23994
3.23815
3.24781
3.24748
3.24674
3.24756
3.2472
3.24828
3.25441
3.25112
3.2501
3.24894
3.25258
3.25024
3.25342
3.24726
3.24734
3.24882
3.24676
3.25129
3.24886
3.24728
3.2506
3.2522
3.25214
3.25175
3.23156
3.23337
3.23469
3.23588
3.23193
3.23375
3.23447
3.21528
3.21666
3.2206
3.2162
3.21758
3.21827
3.22446
3.22604
3.22871
3.22768
3.22593
3.22663
3.22805
3.22653
3.22676
3.22044
3.22804
3.2242
3.23312
3.22887
3.2236
3.22418
3.22638
3.2242
3.2254
3.22456
3.22552
3.20739
3.22278
3.22385
3.2188
3.22052
3.2198
3.22084
3.21964
3.2217
3.21209
3.21093
3.20962
3.21218
3.21181
3.21222
3.21171
3.20572
3.20576
3.21225
3.20822
3.21731
3.21643
3.22177
3.21891
3.21726
3.21611
3.21819
3.20872
3.21111
3.20589
3.20955
3.20885
3.20966
3.20763
3.20997
3.21111
3.20584
3.20839
3.20932
3.20995
3.2071
3.21984
3.21676
3.22152
3.21676
3.21863
3.21611
3.21807
3.22627
3.22808
3.23159
3.2308
3.23152
3.23196
3.23048
3.24099
3.24366
3.24202
3.2418
3.2423
3.2422
3.24183
3.23575
3.2314
3.23282
3.22731
3.23135
3.2314
3.23101
3.22887
3.23865
3.24591
3.24042
3.23898
3.23728
3.23718
3.24045
3.23818
3.24455
3.24229
3.24021
3.23874
3.24093
3.22837
3.23351
3.22721
3.23067
3.22973
3.22923
3.22687
3.21724
3.22148
3.21589
3.2189
3.21749
3.21803
3.21587
3.21828
3.21552
3.22094
3.21791
3.21798
3.21663
3.21986
3.24309
3.23897
3.24049
3.23824
3.24106
3.23941
3.24037
3.22945
3.22688
3.22571
3.22484
3.22725
3.22697
3.22619
3.22971
3.22713
3.22859
3.22567
3.22867
3.22712
3.22778
3.22337
3.22602
3.22782
3.22573
3.22519
3.22513
3.2258
3.22829
3.22729
3.22566
3.22886
3.22848
3.22887
3.22847
3.22144
3.20286
3.2151
3.218
3.23158
3.22358
3.22379
3.22071
3.22027
3.2182
3.22391
3.22512
3.22063
3.22199
3.22511
3.2146
3.21462
3.23111
3.22059
3.22451
3.22698
3.22696
3.22883
3.22762
3.25443
3.25506
3.25439
3.25302
3.25073
3.24453
3.25196
3.24629
3.25002
3.24564
3.25744
3.25814
3.25621
3.2525
3.25578
3.25321
3.2529
3.25642
3.2582
3.16476
3.16935
3.16227
3.16501
3.16572
3.16422
3.17166
3.19785
3.19517
3.19341
3.19524
3.19594
3.19591
3.1953
3.1847
3.18188
3.18397
3.18525
3.18526
3.1851
3.18515
3.19371
3.18838
3.19355
3.19373
3.18237
3.19742
3.19455
3.20019
3.1965
3.19682
3.19467
3.19815
3.1876
3.1901
3.18411
3.18714
3.18658
3.18894
3.18561
3.18626
3.18926
3.18299
3.18559
3.18639
3.18698
3.18464
3.19926
3.19505
3.20067
3.19783
3.19871
3.19746
3.1988
3.21128
3.21435
3.21239
3.21186
3.21202
3.21203
3.21133
3.2096
3.20497
3.20513
3.18983
3.20458
3.20682
3.2061
3.20153
3.21808
3.22121
3.22041
3.21844
3.20885
3.19937
3.20717
3.21273
3.2127
3.19257
3.18835
3.18998
3.20055
3.19849
3.18355
3.18791
3.18637
3.18687
3.18433
3.18757
3.18682
3.20627
3.20307
3.20313
3.19891
3.20348
3.20941
3.20525
3.21106
3.20816
3.20892
3.20667
3.20972
3.20043
3.1996
3.19769
3.20134
3.2006
3.20116
3.20111
3.19754
3.19846
3.20043
3.1986
3.19886
3.19852
3.19889
3.1978
3.20031
3.20178
3.20141
3.19861
3.20022
3.20138
3.19663
3.19978
3.19806
3.19841
3.19634
3.19984
3.19803
3.18081
3.17827
3.18425
3.18698
3.20554
3.20925
3.20943
3.19602
3.19156
3.19061
3.19014
3.19564
3.20027
3.19156
3.18979
3.20145
3.19602
3.18629
3.19866
3.1998
3.1944
3.19682
3.1981
3.198
3.19628
3.19344
3.19602
3.19425
3.19287
3.19467
3.19399
3.19551
3.20373
3.19772
3.20419
3.2023
3.19362
3.19971
3.19848
3.20158
3.19769
3.19887
3.19467
3.19804
3.19801
3.1974
3.16606
3.16813
3.16562
3.16401
3.16416
3.16763
3.16768
3.16783
3.16689
3.16318
3.16474
3.16573
3.16475
3.16389
3.1684
3.17589
3.18634
3.19283
3.18305
3.18165
3.1863
3.18619
3.16425
3.16328
3.16676
3.16507
3.1647
3.16353
3.16808
3.16974
3.17522
3.17211
3.17621
3.17653
3.17687
3.16917
3.17682
3.18267
3.16662
3.17938
3.17983
3.18517
3.18399
3.18344
3.18362
3.18489
3.18204
3.16816
3.17169
3.17003
3.17399
3.172
3.17062
3.17239
3.18814
3.18422
3.18596
3.18406
3.18636
3.18487
3.18604
3.19348
3.18913
3.19225
3.19354
3.18639
3.19173
3.19572
3.19026
3.18621
3.18841
3.18495
3.18814
3.18516
3.18814
3.17902
3.18186
3.18027
3.1795
3.18138
3.18058
3.1798
3.17899
3.18317
3.18171
3.18303
3.18107
3.18207
3.18141
3.18357
3.18249
3.18411
3.18823
3.18594
3.18552
3.18425
3.21317
3.22477
3.21586
3.21434
3.21286
3.20629
3.20792
3.20758
3.19966
3.17183
3.17588
3.18082
3.18439
3.18314
3.18817
3.18477
3.18486
3.18316
3.18631
3.19993
3.1979
3.19211
3.19357
3.19659
3.19431
3.17416
3.17292
3.17407
3.18119
3.18555
3.18085
3.1811
3.18248
3.18549
3.18533
3.18403
3.18374
3.18322
3.18895
3.18805
3.18929
3.18875
3.18443
3.18492
3.18757
3.17552
3.18078
3.18098
3.17333
3.17251
3.17941
3.17647
3.18576
3.18726
3.18601
3.1867
3.20069
3.19476
3.19941
3.19315
3.19469
3.19826
3.18605
3.18741
3.17584
3.18458
3.18776
3.18696
3.19588
3.18842
3.19385
3.18855
3.1978
3.19428
3.1857
3.19211
3.18943
3.18755
3.1859
3.18078
3.16927
3.17401
3.17006
3.16649
3.1683
3.16951
3.16569
3.1773
3.17966
3.17372
3.17635
3.17695
3.16802
3.17657
3.18041
3.16933
3.19815
3.21355
3.248
3.25095
3.24766
3.25007
3.20673
3.21551
3.20951
3.2229
3.21877
3.23407
3.18342
3.18061
3.17875
3.17492
3.18409
3.25394
3.2498
3.25088
3.25479
3.24982
3.24946
3.25544
3.24885
3.24797
3.24035
3.24339
3.23652
3.24021
3.24174
3.23861
3.2381
3.23696
3.24068
3.24036
3.24054
3.23716
3.2413
3.2401
3.23954
3.23741
3.23702
3.24766
3.24526
3.24788
3.24793
3.2459
3.24047
3.24668
3.24191
3.24498
3.24172
3.2158
3.22096
3.22506
3.25505
3.2549
3.2557
3.2534
3.24135
3.23874
3.24367
3.24019
3.24165
3.2394
3.2437
3.25536
3.25684
3.25493
3.25532
3.25515
3.25724
3.25343
3.25223
3.25435
3.25239
3.25496
3.25073
3.25006
3.25187
3.24822
3.24896
3.25402
3.25213
3.2505
3.2581
3.21701
3.22223
3.22353
3.22279
3.22115
3.22251
3.21914
3.24066
3.24437
3.24471
3.24267
3.23771
3.23696
3.23631
3.23569
3.23286
3.23209
3.23015
3.23322
3.2328
3.23294
3.23208
3.23329
3.23005
3.22953
3.23408
3.22985
3.22751
3.23319
3.2286
3.2324
3.22758
3.22956
3.22862
3.22841
3.21895
3.22126
3.22683
3.22261
3.21876
3.21938
3.22436
3.2292
3.23629
3.23223
3.23383
3.21446
3.22245
3.22037
3.21457
3.22032
3.22084
3.21855
3.22345
3.23023
3.22973
3.22862
3.23126
3.23188
3.24912
3.24597
3.24947
3.24996
3.24969
3.24534
3.24423
3.24305
3.24538
3.24432
3.24502
3.24451
3.23834
3.24182
3.235
3.24184
3.23998
3.24406
3.24022
3.25147
3.25029
3.25523
3.25002
3.25342
3.2524
3.25548
3.25722
3.24999
3.25344
3.25707
3.24872
3.25224
3.24957
3.23843
3.24191
3.23619
3.24107
3.23881
3.24215
3.24067
3.25018
3.24807
3.24803
3.23618
3.23129
3.23749
3.24016
3.24338
3.23871
3.24319
3.22579
3.22861
3.22102
3.22447
3.22545
3.22639
3.22473
3.22018
3.22636
3.22253
3.2182
3.22098
3.22479
3.24656
3.24409
3.2452
3.24205
3.24589
3.24401
3.24241
3.23355
3.23158
3.2301
3.23428
3.23682
3.23601
3.23029
3.2327
3.2315
3.22998
3.22881
3.2315
3.23014
3.22971
3.22658
3.23083
3.2287
3.2285
3.2273
3.22925
3.22701
3.23753
3.23496
3.23722
3.23894
3.23502
3.23544
3.23788
3.17659
3.16852
3.19192
3.17621
3.17793
3.17995
3.20033
3.20727
3.19656
3.1997
3.19236
3.176
3.1876
3.18685
3.18548
3.19585
3.19005
3.20191
3.1984
3.19672
3.19526
3.20406
3.19756
3.20029
3.19986
3.19988
3.21137
3.2171
3.20273
3.21227
3.21599
3.22496
3.22072
3.20554
3.20812
3.22129
3.21926
3.21748
3.21879
3.2102
3.21539
3.20943
3.22171
3.22434
3.20908
3.2131
3.2422
3.2425
3.24215
3.23785
3.24679
3.25552
3.25048
3.25916
3.24615
3.24486
3.25419
3.25217
3.22375
3.23116
3.21831
3.22035
3.21514
3.21798
3.21808
3.21909
3.21911
3.21514
3.21603
3.21316
3.21527
3.21314
3.21481
3.21607
3.22598
3.22044
3.2185
3.22209
3.21327
3.21474
3.21536
3.22097
3.2201
3.21612
3.21613
3.22216
3.21666
3.22071
3.21379
3.24564
3.23957
3.24044
3.24374
3.16697
3.16593
3.16677
3.16867
3.16603
3.16846
3.16496
3.16792
3.16505
3.16449
3.16523
3.16498
3.16398
3.16662
3.16428
3.16761
3.16213
3.16315
3.16422
3.16863
3.15854
3.16458
3.15811
3.16691
3.16674
3.16487
3.16522
3.16301
3.16449
3.16384
3.16338
3.16332
3.16427
3.19538
3.18946
3.18372
3.18867
3.18769
3.18894
3.18523
3.18759
3.18723
3.18258
3.18077
3.18839
3.18533
3.19806
3.19591
3.19051
3.1953
3.17564
3.19259
3.1901
3.1893
3.19473
3.22421
3.22892
3.22911
3.21902
3.22694
3.21673
3.22513
3.21975
3.22176
3.21811
3.22267
3.21921
3.21428
3.21338
3.2175
3.22326
3.22532
3.22147
3.22964
3.22076
3.2267
3.21967
3.21489
3.2219
3.22259
3.21965
3.20276
3.20072
3.20607
3.203
3.20187
3.20287
3.20517
3.19883
3.20164
3.19537
3.19457
3.19882
3.19881
3.19838
3.20003
3.20104
3.19841
3.1944
3.19348
3.19408
3.20276
3.20441
3.20398
3.199
3.20149
3.1984
3.20309
3.19444
3.19479
3.20227
3.19902
3.19353
3.19757
3.19965
3.19448
3.19433
3.19833
3.19896
3.17255
3.17082
3.16802
3.17465
3.17543
3.17944
3.18151
3.17039
3.17278
3.24777
3.25134
3.24407
3.24583
3.24346
3.24652
3.24389
3.25002
3.25305
3.2386
3.24583
3.22429
3.21693
3.21947
3.21951
3.21606
3.21817
3.21902
3.21849
3.21531
3.21736
3.21897
3.22951
3.22692
3.23325
3.22936
3.22958
3.22555
3.2281
3.2219
3.22709
3.22517
3.2214
3.2202
3.22126
3.22334
3.21824
3.2277
3.22063
3.22362
3.21965
3.21905
3.21997
3.21792
3.21587
3.21764
3.22
3.2199
3.22022
3.22983
3.2209
3.226
3.22215
3.22597
3.22678
3.21246
3.20846
3.211
3.21285
3.21448
3.20778
3.21405
3.22155
3.21501
3.21851
3.22094
3.22073
3.22172
3.22044
3.2125
3.21472
3.22009
3.2156
3.21377
3.2175
3.21582
3.21621
3.214
3.21762
3.21584
3.2225
3.21785
3.21748
3.21139
3.21484
3.2171
3.21515
3.21923
3.21739
3.21556
3.21381
3.21665
3.2175
3.21561
3.21387
3.21667
3.21795
3.21424
3.21162
3.21632
3.21453
3.22953
3.23517
3.227
3.23501
3.23328
3.23337
3.23643
3.22563
3.22843
3.22994
3.22964
3.22897
3.22908
3.22985
3.23717
3.22848
3.23582
3.23321
3.22378
3.2307
3.23798
3.23315
3.23578
3.23072
3.23571
3.23265
3.23499
3.22946
3.23005
3.2307
3.23088
3.22923
3.23158
3.22949
3.22819
3.23261
3.2307
3.23185
3.23032
3.23266
3.23163
3.23791
3.23454
3.2319
3.22887
3.23452
3.23669
3.23122
3.23395
3.23231
3.23795
3.23503
3.23448
3.23285
3.23655
3.22579
3.22982
3.22444
3.2272
3.226
3.22791
3.22437
3.22459
3.22776
3.23166
3.23185
3.22946
3.22781
3.22916
3.22742
3.22302
3.22546
3.22611
3.2263
3.22531
3.22672
3.22979
3.23206
3.23501
3.23186
3.23153
3.23112
3.2321
3.228
3.225
3.23019
3.22859
3.22802
3.22708
3.2288
3.22915
3.22672
3.23227
3.22874
3.22943
3.22902
3.22958
3.22194
3.22386
3.22438
3.22408
3.22591
3.22119
3.22104
3.2241
3.22373
3.21925
3.21544
3.21812
3.2152
3.22076
3.2247
3.22499
3.2273
3.22193
3.21626