/*--------------------------------*- C++ -*----------------------------------*\
| =========                 |                                                 |
| \\      /  F ield         | OpenFOAM: The Open Source CFD Toolbox           |
|  \\    /   O peration     | Version:  v1612+                                |
|   \\  /    A nd           | Web:      www.OpenFOAM.com                      |
|    \\/     M anipulation  |                                                 |
\*---------------------------------------------------------------------------*/
FoamFile
{
    version     2.0;
    format      ascii;
    class       surfaceScalarField;
    location    "100";
    object      phi;
}
// * * * * * * * * * * * * * * * * * * * * * * * * * * * * * * * * * * * * * //

dimensions      [0 3 -1 0 0 0 0];

internalField   nonuniform List<scalar> 
45887
(
-2.94166e-10
-9.62339e-09
4.79505e-09
5.12251e-09
6.33564e-09
-2.7288e-09
-8.91864e-10
-2.71498e-09
3.26783e-09
-2.65934e-09
-7.0127e-10
9.28026e-11
-6.76289e-09
-6.97079e-09
9.90536e-09
3.82832e-09
-6.41562e-10
6.56963e-09
2.8065e-09
-8.73457e-09
-6.5577e-09
3.06319e-09
1.19359e-08
-8.4414e-09
2.55205e-10
-3.94138e-09
3.59716e-09
8.90063e-11
-2.7372e-09
1.6745e-09
3.61465e-09
-2.55197e-09
-4.75914e-09
7.6286e-09
-2.97276e-09
1.03301e-10
-1.41111e-09
-4.66986e-09
-2.50897e-09
8.58994e-09
2.18074e-09
2.78528e-09
-3.90836e-10
-4.57518e-09
1.96292e-09
-2.00983e-09
3.83883e-09
-3.79193e-09
-5.0763e-10
2.2049e-09
-1.12463e-08
9.54907e-09
-1.58803e-09
-3.24829e-10
2.91829e-09
-1.00543e-09
6.24843e-12
3.99442e-09
-8.20489e-09
4.20423e-09
-6.9253e-09
6.79732e-10
6.24971e-09
-4.15447e-12
2.92476e-09
3.79358e-09
-4.18631e-09
-2.53203e-09
2.8038e-09
-2.04058e-09
-7.45675e-10
-1.7542e-11
1.31332e-08
-9.41701e-09
-3.13612e-09
-5.80111e-10
5.31131e-09
2.98849e-09
-8.25195e-09
-4.78625e-11
3.85557e-10
-5.66381e-09
-2.44588e-09
7.72414e-09
1.41891e-09
-5.58501e-09
4.21356e-09
-4.74556e-11
-5.77853e-09
6.12176e-09
4.72634e-09
-5.06958e-09
2.34334e-09
5.7752e-09
-2.83345e-09
3.35547e-09
7.80456e-10
-1.30247e-09
1.04113e-08
-7.82112e-09
-5.42362e-09
9.08477e-09
-3.91355e-09
1.40097e-10
-3.34912e-09
4.65107e-09
1.16961e-10
-3.91753e-09
4.40272e-09
-3.00075e-09
2.51554e-09
-1.85672e-09
1.9812e-09
-1.45724e-10
2.12588e-11
2.3828e-09
-9.68527e-10
-1.38353e-09
-3.07238e-11
4.46384e-09
-3.30638e-09
2.39872e-09
-3.55618e-09
9.67868e-10
-1.15079e-09
-2.79671e-09
2.97968e-09
1.62614e-09
-1.01246e-09
1.05003e-09
-1.66373e-09
2.82553e-09
4.65453e-09
-7.15881e-09
-3.21242e-10
4.57959e-11
4.67683e-09
-6.30438e-09
1.58175e-09
-9.84901e-09
1.24622e-08
-5.64516e-09
3.03198e-09
-6.22567e-09
3.74908e-10
3.37737e-09
2.47339e-09
3.33742e-09
-6.40229e-09
9.14891e-09
-6.08403e-09
1.25745e-09
8.07635e-09
-6.58575e-09
-2.74809e-09
-1.90605e-09
-1.93669e-09
1.10552e-09
-1.43737e-09
-3.11153e-09
4.39408e-09
1.54822e-10
-5.18657e-09
3.00304e-09
2.28305e-09
-9.95174e-11
-1.13371e-09
1.38363e-09
-4.3911e-09
4.14117e-09
-3.08984e-09
2.7083e-09
3.92867e-09
-3.54712e-09
3.81193e-09
1.17694e-10
-3.95348e-09
2.38599e-11
-8.18861e-09
6.22319e-09
7.206e-09
-5.24057e-09
-5.08369e-09
7.38952e-09
-7.27893e-09
4.97311e-09
-7.11449e-09
3.61574e-09
1.65409e-09
1.84465e-09
-2.10104e-09
-2.67954e-09
3.37756e-09
1.40301e-09
-9.98766e-10
-4.2346e-09
3.90706e-09
1.3263e-09
2.48134e-09
3.6653e-10
-2.83404e-09
-1.38398e-11
-7.41516e-10
-4.60222e-09
1.48606e-09
3.85767e-09
4.44901e-09
7.39776e-09
-6.92126e-09
-4.92551e-09
7.08153e-10
5.89194e-09
-1.63985e-08
9.7984e-09
3.64648e-09
-1.86156e-09
-1.85997e-09
7.50564e-11
-9.02571e-10
-9.21535e-10
1.84397e-09
-1.98678e-11
2.97404e-09
4.2181e-09
-7.10966e-09
-8.24765e-11
-1.46752e-09
7.58047e-09
-3.18818e-09
-8.60879e-10
2.25856e-09
4.15468e-09
-5.55236e-09
2.61911e-10
-2.0023e-09
1.84862e-09
-1.0823e-10
-2.202e-09
-6.88098e-10
3.27567e-09
-2.11593e-09
8.8922e-10
-9.75288e-10
-1.4752e-09
4.69948e-09
-5.88162e-09
2.65734e-09
1.32023e-09
-3.01055e-09
7.41283e-09
-8.8639e-09
1.93414e-09
3.83992e-09
2.19657e-09
-7.97317e-09
3.80319e-09
1.97341e-09
-3.20781e-09
-5.11103e-09
8.65405e-09
-3.35223e-10
9.99308e-10
2.16751e-10
5.61934e-09
-6.83541e-09
-2.47437e-09
1.54006e-09
-1.49559e-09
2.42989e-09
-2.7405e-10
-5.99948e-09
-2.76897e-09
9.0425e-09
5.15801e-09
4.34124e-09
-2.21128e-09
-7.28797e-09
-4.84501e-09
3.11909e-09
1.78899e-09
-6.30716e-11
2.97981e-09
-2.16632e-09
3.46718e-09
-4.28067e-09
-2.43454e-09
5.23385e-09
-7.00014e-09
4.20083e-09
-2.62374e-09
5.76019e-09
-4.38416e-10
-2.69803e-09
1.44722e-10
-5.95284e-09
1.62319e-09
4.18493e-09
-8.26828e-10
-2.18558e-09
2.96461e-09
4.7799e-11
-2.65662e-09
4.89108e-09
-2.26736e-09
3.28946e-11
1.86103e-10
5.46156e-09
-3.30027e-09
-2.34739e-09
3.12903e-09
-5.95912e-10
-3.27408e-09
7.4096e-10
-5.37553e-09
5.41525e-09
2.33774e-09
-2.37745e-09
7.07659e-09
5.82955e-10
-3.87161e-09
-3.78793e-09
-6.83504e-09
3.07146e-09
3.88781e-09
-1.24244e-10
1.4209e-09
6.95864e-10
-2.10163e-09
-1.51751e-11
1.15339e-09
9.66253e-10
-2.05593e-09
-6.37274e-11
-1.93809e-09
-1.53502e-09
3.9624e-09
-4.8928e-10
2.06289e-09
6.59191e-09
-2.09884e-09
-6.55596e-09
-2.69842e-10
3.85451e-09
-3.90204e-09
3.17372e-10
-4.61413e-09
4.93083e-09
3.17129e-09
-3.48797e-09
-3.32214e-09
6.87267e-09
-4.89659e-09
1.34607e-09
-5.95132e-09
9.84372e-09
-7.51616e-09
3.62377e-09
-4.13811e-09
-1.33906e-10
4.15789e-09
1.14141e-10
-7.58643e-09
6.78836e-09
-3.34004e-09
3.59169e-09
-9.08065e-10
-2.76631e-09
8.26908e-11
6.7636e-10
-5.76735e-10
-3.26532e-09
3.16569e-09
-3.32153e-09
-4.42305e-10
3.74651e-09
1.73338e-11
2.90701e-09
-7.39729e-09
4.48259e-09
7.68884e-12
5.44028e-09
-4.09211e-09
1.9797e-09
-3.32787e-09
-1.15997e-09
-5.54503e-09
3.3685e-09
3.3365e-09
7.15591e-10
-3.15361e-09
2.43442e-09
3.59893e-12
2.18811e-09
-5.35951e-09
3.21199e-09
-4.06007e-11
-7.98318e-11
7.78691e-09
-5.57683e-09
-2.13025e-09
-2.27381e-09
7.09745e-09
3.35271e-09
-1.91396e-10
3.66529e-09
8.48883e-11
-3.41872e-09
1.25524e-10
4.4501e-10
2.84818e-09
-2.09194e-10
-3.2365e-09
2.69727e-11
-5.12936e-10
-6.0473e-09
-1.54912e-11
1.47166e-09
-4.77451e-11
-1.3309e-09
-9.30252e-11
-2.18785e-09
1.9263e-09
-8.72167e-10
-2.46644e-09
2.84963e-10
6.54875e-09
-4.36727e-09
-4.17039e-09
4.42952e-09
-1.52886e-09
1.26971e-09
3.44658e-09
1.80104e-11
-3.50814e-09
4.35451e-11
1.03946e-09
5.07782e-09
-5.45666e-09
-6.60614e-10
-3.19775e-09
3.25e-09
4.36247e-09
-4.41472e-09
1.74818e-09
-2.07189e-09
3.79795e-10
-5.60798e-11
-1.48395e-09
5.37399e-09
-5.04401e-09
1.15398e-09
4.56663e-09
-1.07908e-08
6.19777e-09
2.63493e-11
1.50415e-10
4.60085e-09
-7.83068e-09
5.71646e-09
-5.40356e-09
7.51779e-09
3.65762e-09
2.75045e-09
-8.88981e-10
-5.51909e-09
-4.67109e-10
-2.63479e-09
3.06384e-09
3.80661e-11
3.50205e-09
-1.23721e-09
-4.69265e-09
2.42782e-09
1.78619e-09
-3.81506e-09
-1.43613e-10
2.17248e-09
-4.04328e-09
1.77358e-09
4.37472e-10
1.83223e-09
4.32184e-09
-1.49628e-09
1.52259e-09
-4.34817e-09
6.00082e-09
-4.23951e-09
-4.04272e-09
2.2814e-09
9.04847e-10
2.69751e-09
-6.00166e-09
2.3993e-09
2.94358e-10
5.15446e-09
1.73087e-09
-7.17968e-09
3.54096e-09
2.19223e-09
1.25068e-09
-6.98385e-09
2.25475e-09
3.68032e-09
-3.79455e-09
-2.14048e-09
-3.3967e-10
-3.70044e-09
2.08356e-09
1.95654e-09
-5.31154e-09
7.55768e-10
1.23727e-10
4.43204e-09
-2.77572e-09
2.98063e-09
-2.8312e-10
7.82078e-11
-9.0103e-10
3.02914e-09
-3.86044e-09
1.73233e-09
6.71941e-09
-4.54568e-09
-3.05655e-09
8.82833e-10
-6.41852e-10
4.8461e-09
-7.52288e-09
3.31864e-09
-6.29954e-09
5.84132e-09
-5.1268e-09
-1.53169e-09
3.67841e-09
8.84173e-11
-3.27677e-09
4.30695e-09
5.36102e-09
-6.39121e-09
-3.96813e-09
-1.75793e-09
5.78289e-09
-5.68383e-11
5.26626e-10
-6.44715e-10
4.28812e-09
-4.17003e-09
-7.53058e-10
1.4362e-09
2.49919e-09
-3.18234e-09
-7.30367e-09
4.14633e-09
2.40428e-09
-8.86845e-10
2.7637e-09
-2.38515e-10
-1.63833e-09
1.47801e-09
2.02962e-09
-3.41318e-09
-9.44434e-11
-3.32336e-09
3.84219e-09
-4.93898e-09
4.42015e-09
2.11284e-09
-5.13257e-09
4.11599e-10
2.60813e-09
-3.19811e-09
-4.52373e-09
4.11864e-09
3.60321e-09
-1.46041e-09
-1.14018e-08
5.14846e-09
7.71373e-09
-3.05895e-09
5.036e-09
1.58978e-09
-3.56684e-09
7.09353e-09
4.21333e-09
-4.43231e-09
-6.87455e-09
-2.56199e-09
-1.19778e-09
-2.51857e-09
6.21005e-09
-3.80316e-09
-6.05988e-09
3.65299e-09
9.23192e-10
-5.15723e-09
-3.40614e-09
7.64018e-09
-1.4802e-09
2.72669e-09
-1.44189e-09
1.954e-10
-3.18684e-09
-2.71106e-10
4.1343e-09
-2.04693e-09
-5.08449e-09
2.59071e-09
-2.0578e-09
3.11116e-09
-1.07719e-09
2.38297e-11
-3.45711e-09
-2.42143e-11
-2.07457e-09
5.55589e-09
2.75297e-09
-4.07101e-09
6.45997e-09
-5.14192e-09
3.24602e-09
-4.84236e-09
3.31007e-09
-1.71373e-09
-3.10104e-09
8.35139e-09
1.56982e-09
-6.82016e-09
3.75166e-09
-1.33294e-10
6.74274e-09
5.73823e-09
-4.12957e-09
2.59181e-09
2.76017e-09
-5.3081e-09
-4.38712e-11
-2.22747e-09
2.36248e-09
-5.2187e-09
1.03297e-08
-5.52476e-09
-3.32e-09
-1.48499e-09
-7.15648e-09
-3.69429e-09
1.05767e-08
5.2471e-09
-1.69059e-09
-4.09844e-09
5.41939e-10
-1.31271e-09
-1.48437e-09
1.1766e-09
1.62047e-09
-3.00436e-09
1.14875e-09
1.97586e-09
-1.2026e-10
-1.32734e-09
-7.66613e-10
-2.13364e-09
4.22759e-09
-1.69765e-09
-2.73644e-09
4.41466e-09
1.94289e-11
-8.76876e-09
-2.33011e-09
3.96218e-09
7.13669e-09
-7.42816e-10
-1.49774e-09
-2.71601e-09
4.95656e-09
5.60804e-09
-5.22643e-09
-3.82508e-10
9.0023e-13
5.46965e-09
4.45742e-09
-8.41949e-09
-1.50758e-09
-5.90992e-10
5.76262e-09
1.92959e-09
3.71936e-09
-2.40356e-09
-1.39647e-09
8.06676e-11
-1.5981e-09
2.4581e-09
2.85937e-09
2.29844e-09
-3.02953e-09
-1.05169e-09
1.7828e-09
3.22842e-09
-6.72983e-09
2.83239e-09
6.69021e-10
-9.44095e-10
-1.09203e-09
2.03943e-09
-3.30732e-12
1.92875e-10
-2.64829e-09
2.55954e-09
-1.04054e-10
4.10589e-09
-6.70373e-09
-5.72212e-10
3.17005e-09
2.52446e-09
3.58916e-11
4.30594e-09
4.22836e-09
-8.3816e-09
-1.52698e-10
-6.42277e-09
2.8777e-10
6.97032e-09
-8.35321e-10
2.65462e-09
6.05901e-09
-2.20345e-09
-6.51017e-09
-4.63388e-09
-1.61047e-09
5.68243e-09
5.61917e-10
7.34968e-09
6.85362e-10
-7.56199e-09
-4.73052e-10
2.56654e-10
-3.02446e-09
4.39047e-09
-1.62267e-09
-5.31415e-09
-3.67256e-10
2.4998e-09
3.18161e-09
7.48537e-09
-7.90722e-09
5.76073e-09
-5.33888e-09
7.62481e-09
-4.68682e-09
-2.92641e-10
-2.64536e-09
1.51808e-09
3.1706e-09
3.64923e-10
-5.0536e-09
8.71677e-10
-1.2917e-09
-3.42491e-09
5.64102e-09
4.02923e-09
-6.24534e-09
8.19103e-10
-7.0508e-09
6.36353e-09
-1.31838e-10
6.83748e-09
-3.64147e-09
-5.77003e-09
2.57403e-09
-3.27215e-09
-2.43483e-09
5.61513e-09
9.18449e-11
-5.89429e-09
1.73255e-09
1.31521e-09
2.84652e-09
-2.19084e-09
3.60462e-09
-3.19912e-09
1.78534e-09
5.08669e-09
-2.99586e-09
-2.22627e-09
1.35439e-10
1.50105e-09
2.32407e-09
-2.45479e-09
-1.37035e-09
2.91909e-09
7.72248e-09
-9.20226e-10
3.40585e-09
-8.90511e-09
6.41949e-09
9.83797e-09
-9.71831e-09
4.21305e-10
-5.40965e-10
5.11921e-09
-2.62349e-09
1.99603e-09
-4.49174e-09
1.51699e-09
-3.76637e-09
-1.01616e-09
3.26555e-09
1.64351e-09
2.60598e-09
6.49828e-10
-4.89931e-09
-7.73803e-09
2.97738e-09
6.40415e-09
2.40632e-09
-1.07336e-09
-1.37875e-09
4.57743e-11
4.50634e-09
-1.09813e-09
3.37353e-09
-6.78175e-09
6.01432e-10
1.71704e-09
-2.1683e-09
2.16389e-09
6.86877e-11
-6.42791e-11
-1.57618e-10
7.18542e-09
-7.0777e-09
4.98988e-11
2.08035e-09
2.09389e-09
-3.9435e-09
-2.30746e-10
-6.27236e-09
1.13709e-08
-4.39276e-11
-5.05462e-09
2.52647e-09
1.75222e-09
-5.70889e-09
1.43021e-09
-1.08087e-09
2.82438e-09
1.65896e-09
-3.40248e-09
2.42238e-09
-3.20418e-09
5.7487e-09
-4.9669e-09
5.10486e-09
2.97603e-09
-1.69682e-09
-6.38407e-09
3.62635e-09
8.00923e-09
-6.53071e-09
-7.75711e-09
-1.16504e-09
5.09148e-09
3.83068e-09
-4.0532e-09
4.01904e-09
-8.7101e-11
1.21263e-10
2.86511e-09
-3.91579e-09
-2.59057e-09
3.64125e-09
2.18194e-10
-3.54803e-09
3.39632e-09
-6.64848e-11
4.01126e-10
-2.716e-09
3.27108e-09
-9.562e-10
2.26553e-09
-5.68406e-09
3.54981e-09
-1.31283e-10
-2.91699e-09
5.60183e-09
-2.75276e-09
6.79088e-11
-1.9456e-09
3.60067e-09
-1.63882e-09
-1.62514e-11
3.40356e-09
-5.82903e-09
3.84636e-09
-2.70774e-10
-1.12099e-09
-3.82844e-09
5.2202e-09
-1.31481e-09
2.15882e-09
1.53253e-09
-2.37653e-09
1.70026e-09
1.52251e-09
-2.91601e-09
-3.0677e-10
4.63765e-09
-9.10195e-09
1.96917e-10
4.26738e-09
4.95269e-09
-4.17706e-09
5.41123e-09
-6.18685e-09
5.64668e-09
-4.03439e-10
1.97032e-10
-3.21375e-11
-2.34684e-09
2.27115e-09
1.07824e-10
3.24277e-09
-1.7358e-09
-4.7511e-09
3.24412e-09
4.92253e-09
-2.55464e-09
3.00361e-09
-5.37151e-09
-6.40361e-09
1.37491e-09
2.33916e-09
2.68954e-09
-2.101e-09
-1.57416e-09
4.49018e-09
-8.15019e-10
3.33861e-09
-7.86943e-11
3.10506e-09
-6.36497e-09
-1.12787e-09
-8.86719e-10
2.04695e-09
-3.23616e-11
-2.35477e-09
-2.95829e-09
5.23793e-11
1.60906e-09
-1.52547e-09
2.56172e-09
-2.64529e-09
1.89912e-09
1.82977e-09
-2.03089e-09
-1.69798e-09
-5.21388e-09
1.38624e-09
4.03049e-09
-2.02824e-10
-1.56316e-09
-8.11522e-10
2.35927e-09
1.5553e-11
-3.27524e-09
-9.61401e-10
3.99026e-09
2.46377e-10
-1.91989e-09
1.93343e-09
-2.89572e-11
1.54107e-11
1.18496e-09
3.47351e-09
-1.94637e-10
-2.08956e-09
4.27663e-09
-4.87566e-09
2.6886e-09
-1.61697e-09
-1.74385e-09
-2.87285e-09
6.23366e-09
-5.27739e-09
5.40056e-10
-2.37715e-09
1.97974e-09
-3.89277e-09
-5.63733e-09
7.55036e-09
3.33384e-09
-2.88388e-09
1.15016e-09
-1.60013e-09
-3.51991e-09
2.0344e-09
1.57946e-09
-9.39336e-11
-1.39734e-09
-1.69662e-09
2.82796e-09
2.66008e-10
3.0344e-09
4.12897e-09
-7.20089e-09
3.75316e-11
-4.7032e-09
8.63542e-09
-1.49516e-09
-2.43706e-09
2.95197e-10
-2.01717e-09
4.21044e-09
-2.48846e-09
2.27925e-09
-2.61383e-09
-3.38877e-09
3.72335e-09
-2.65543e-09
4.36123e-09
2.4001e-09
2.97793e-09
4.6583e-09
-2.07467e-09
5.32471e-09
-3.36568e-09
2.04493e-09
-4.00395e-09
-1.69925e-10
-8.32547e-09
2.19928e-10
8.27548e-09
4.49831e-09
-2.48734e-10
2.91316e-09
-7.16272e-09
2.15157e-09
-4.31914e-09
2.0547e-09
1.12867e-10
-2.96164e-11
-6.15681e-11
6.06708e-09
-5.97589e-09
2.02459e-09
-4.36138e-10
-4.35604e-09
2.76758e-09
4.62297e-09
1.44947e-09
-3.49754e-09
-2.5749e-09
4.08023e-09
-5.43405e-09
4.56064e-09
-3.20681e-09
2.13112e-09
-1.22856e-09
-9.34956e-10
3.23957e-11
-2.48999e-09
3.73064e-09
-5.56945e-11
-5.55533e-09
8.03013e-10
-3.4363e-09
2.59898e-09
3.02937e-09
-5.56827e-09
-6.00625e-11
1.71696e-09
4.62095e-09
-9.36267e-10
-2.92241e-09
7.41387e-09
-3.5552e-09
-6.73279e-10
4.96341e-09
-7.49169e-10
1.18278e-09
1.13604e-09
-1.26579e-10
4.20862e-09
5.8596e-09
-2.64773e-09
-7.4205e-09
-1.89928e-09
2.16454e-09
-2.29372e-10
-3.58891e-11
-4.57445e-09
5.75837e-09
1.6791e-09
-2.86302e-09
7.27474e-10
2.94718e-09
3.06808e-09
-3.09272e-09
-2.08822e-09
5.11901e-09
6.1939e-11
2.80524e-09
-4.97044e-09
2.24694e-09
-8.17339e-11
1.4701e-09
1.06757e-09
-2.45026e-09
-8.74092e-11
-2.75878e-09
-4.60364e-09
3.62669e-09
-1.01476e-09
-4.15385e-10
-2.19653e-09
-3.05815e-09
5.64306e-09
6.95084e-10
-3.27998e-09
-6.14268e-09
6.17751e-09
-2.42536e-09
2.39054e-09
7.2795e-10
-3.8588e-09
3.20672e-09
-7.58752e-11
2.47725e-09
1.19908e-10
-2.53595e-09
-6.1216e-11
-9.54129e-11
-1.76684e-09
1.80349e-09
5.87544e-11
3.09321e-09
3.41888e-09
-4.1602e-09
-2.3519e-09
-5.52287e-09
-2.64368e-09
6.45028e-09
1.71627e-09
-4.11812e-09
8.17775e-11
3.90367e-09
1.32667e-10
7.12799e-09
-5.69042e-09
-5.55569e-09
-3.91011e-09
-3.93588e-11
3.95524e-09
-5.78308e-12
6.48167e-10
1.24388e-09
3.2284e-09
7.29552e-10
2.02325e-09
-5.98123e-09
-3.47497e-09
-2.59319e-09
4.987e-09
1.08115e-09
-9.65441e-11
-3.53323e-09
1.5481e-10
-4.91105e-09
5.13801e-09
-2.72725e-09
2.50028e-09
-3.48973e-09
3.22115e-09
2.10739e-10
5.78442e-11
-3.60649e-10
-1.1528e-10
3.96486e-09
-3.48893e-09
-3.64587e-09
-1.55259e-10
3.81178e-09
-1.06459e-11
1.0519e-09
-1.79326e-09
-1.59659e-10
-7.29964e-09
5.03134e-11
3.53583e-09
3.7135e-09
-4.17248e-09
1.82518e-09
2.4504e-09
-1.03101e-10
2.36897e-09
1.87545e-09
-4.2086e-09
-3.58423e-11
2.83339e-09
8.08881e-10
-6.05633e-09
2.41404e-09
4.769e-09
-2.45853e-09
-1.06607e-09
-1.24439e-09
-8.39151e-10
1.93936e-09
-1.10559e-09
5.35789e-12
-2.51066e-09
1.29733e-09
-1.32979e-09
2.54311e-09
1.37419e-09
3.3634e-09
-4.65996e-09
-7.76316e-11
3.20806e-09
-1.96855e-09
-1.39078e-09
1.51276e-10
7.65426e-09
2.54435e-09
-7.07538e-09
-3.12322e-09
2.47602e-09
-2.94104e-09
-8.68491e-09
9.14992e-09
-2.70542e-09
4.10308e-09
2.25753e-09
-3.65518e-09
4.41879e-09
-8.51868e-09
3.23525e-10
3.77635e-09
5.81722e-09
4.53615e-09
-4.84958e-09
-5.50379e-09
2.67417e-09
-6.70942e-09
-3.13773e-09
7.17298e-09
1.60917e-09
-2.59334e-09
-4.65603e-09
5.64021e-09
5.03829e-09
-2.46224e-09
9.81168e-11
-3.80874e-09
1.98611e-09
-2.35179e-10
-3.06973e-09
-2.10921e-09
5.15367e-09
2.5262e-11
3.34571e-09
-3.85105e-09
2.35245e-09
-1.84711e-09
-7.19074e-09
6.38076e-09
-2.85004e-09
3.66002e-09
3.61458e-09
3.2477e-09
3.32607e-09
-1.01884e-08
-5.06681e-09
4.60284e-09
4.51399e-10
1.25776e-11
-1.83224e-09
2.63833e-09
-8.99727e-10
9.36449e-11
2.34408e-09
1.58476e-09
-3.85621e-09
-7.26388e-11
4.72793e-09
-7.21113e-09
3.44905e-09
-9.65862e-10
1.21144e-09
-5.64317e-09
9.83451e-09
-5.40278e-09
4.93773e-11
-2.74535e-09
2.8838e-09
-1.87831e-10
-2.35798e-09
-3.12465e-09
-1.24557e-09
6.72818e-09
-9.14064e-10
1.49105e-09
-6.06125e-10
2.91613e-11
2.38621e-09
1.35447e-09
-3.68421e-09
-5.64514e-11
-3.38491e-09
5.51275e-09
-2.19707e-09
6.92348e-11
-2.9092e-09
-1.18008e-09
4.59972e-11
-8.04204e-09
7.73099e-09
2.14089e-09
-1.82984e-09
5.47725e-09
-1.94828e-09
3.54762e-09
2.96576e-09
-3.59162e-09
-6.06747e-09
6.69335e-09
4.53063e-09
-3.99138e-09
6.94287e-09
-7.48212e-09
-3.31531e-09
-4.14378e-09
-4.42227e-10
-3.36955e-09
-4.83222e-09
8.644e-09
-4.13474e-09
4.03173e-09
1.07094e-10
-4.09048e-12
2.47444e-10
-4.82332e-09
4.59951e-09
-2.36293e-11
1.27838e-09
4.11322e-09
2.16985e-09
-7.56144e-09
-2.94582e-09
3.64908e-11
-3.35365e-09
6.26298e-09
3.53733e-09
-3.64397e-09
1.25897e-10
-1.9253e-11
8.62188e-10
4.95469e-09
-2.69683e-10
-5.5472e-09
-5.12745e-09
2.14847e-09
-9.07558e-11
2.87049e-09
-4.60517e-09
1.82596e-09
-9.12827e-11
4.68128e-09
7.99309e-09
1.50898e-09
-2.40706e-09
8.78677e-10
1.94036e-11
-1.54816e-09
2.8788e-09
1.78347e-10
-1.12035e-09
-8.56139e-10
1.92792e-09
4.85627e-11
4.18617e-09
-6.82982e-09
6.38663e-09
-3.74298e-09
-4.62948e-09
-6.49618e-10
6.23828e-09
-9.59178e-10
-3.03625e-10
1.93869e-09
-3.76026e-09
2.12519e-09
5.34168e-09
-3.76202e-09
-1.6537e-09
7.40399e-11
-2.04843e-09
6.18373e-10
1.49708e-09
-6.7018e-11
-2.81213e-09
4.69406e-09
-2.52187e-10
-1.62974e-09
5.74624e-09
-4.22901e-09
-5.09075e-09
-1.98472e-09
-5.65561e-09
8.66805e-09
-1.02773e-09
-1.89966e-09
2.06048e-09
-1.91592e-10
3.07665e-11
1.73913e-09
-1.7797e-09
3.96054e-11
2.97865e-09
-1.29392e-09
4.13166e-10
-2.09789e-09
3.80497e-09
-3.93191e-09
2.48716e-10
-1.21787e-10
2.55092e-09
1.81743e-09
-2.11485e-09
-2.25349e-09
5.73266e-09
-2.60065e-09
-2.62695e-09
-5.05056e-10
-1.99456e-09
4.65952e-09
1.40291e-10
-2.6974e-09
-4.3101e-09
4.79335e-09
2.21414e-09
1.69406e-09
-1.50589e-09
-1.49481e-10
-3.86742e-11
-2.86331e-10
-4.81196e-09
5.0874e-09
1.08929e-11
2.67104e-09
4.37921e-09
-8.53577e-10
-6.19667e-09
-1.74688e-09
1.00019e-09
-2.35135e-09
3.09804e-09
-1.66682e-10
4.47485e-09
-4.4276e-09
1.19436e-10
-4.47421e-09
-2.27374e-10
4.68324e-09
1.83463e-11
-1.94417e-09
-2.06694e-09
2.15994e-09
1.85117e-09
-1.89726e-09
8.4837e-10
-7.14648e-11
3.7204e-09
-3.55819e-09
-2.31226e-10
6.90236e-11
-3.86779e-09
3.89019e-11
3.90774e-09
-7.88438e-11
4.22028e-09
-1.52231e-09
-4.68269e-09
2.24727e-09
4.58233e-09
-3.02463e-09
-4.27928e-09
6.38091e-09
-5.28847e-09
-1.53296e-09
-1.67068e-09
3.13395e-09
6.96963e-11
-5.86212e-09
4.88985e-09
4.41886e-09
-3.04314e-09
3.27995e-10
9.02842e-10
1.81229e-09
2.62249e-10
-3.82822e-09
3.58082e-09
-1.48453e-11
-1.52932e-11
2.57812e-09
-2.56475e-09
1.92802e-12
-2.69495e-09
4.62671e-09
-2.95939e-09
1.02764e-09
-3.21962e-09
1.80423e-09
-2.15157e-09
3.56695e-09
-1.49115e-09
-1.41365e-09
2.80366e-09
1.01175e-10
2.86938e-09
2.63524e-09
-5.25635e-09
-2.48274e-10
-3.38366e-09
-9.54494e-10
5.88786e-11
-4.97083e-09
3.62391e-10
2.69877e-09
1.90967e-09
7.48537e-09
8.44749e-10
-3.15589e-09
-5.17424e-09
-1.84708e-09
-3.7116e-10
4.00443e-09
-1.17986e-09
-4.1241e-09
5.26299e-09
4.09686e-11
-3.16012e-09
5.34252e-09
2.41521e-09
-4.59761e-09
-5.94698e-09
-1.22339e-10
-4.22177e-10
3.53955e-09
-4.29724e-09
3.14224e-09
-5.53776e-09
-7.85839e-10
3.18136e-09
-1.54069e-09
4.50455e-09
-6.42082e-09
3.45695e-09
2.13222e-09
-4.75539e-09
1.08247e-09
4.10078e-09
3.12674e-09
-1.5324e-09
-5.69512e-09
-1.75722e-09
-2.13434e-09
3.73532e-09
1.5625e-10
-3.06712e-09
3.118e-09
-5.57113e-11
4.81006e-12
-4.12598e-09
-1.58342e-09
2.18949e-09
1.60006e-09
2.79385e-09
-4.30725e-09
-8.66371e-11
-1.85776e-09
-3.84442e-09
5.56898e-09
1.33191e-10
6.81042e-10
2.97637e-09
-7.90635e-09
4.24894e-09
8.82986e-12
-1.83527e-09
1.82381e-09
2.64107e-12
1.49989e-09
5.23573e-09
-3.34654e-09
-3.38907e-09
-2.5844e-09
2.66521e-09
-6.22517e-11
-1.85782e-11
2.31095e-09
1.42022e-09
7.88511e-10
-4.51969e-09
1.89355e-09
-1.13576e-09
-9.28822e-10
1.71022e-10
4.40072e-09
-1.81346e-09
-4.60134e-09
2.01408e-09
-4.28041e-09
1.69608e-09
2.67954e-09
-9.52037e-11
-2.9664e-09
-2.20906e-09
5.47214e-09
-2.96677e-10
-3.23592e-09
2.01745e-09
1.33418e-09
-1.15692e-10
-4.18137e-09
1.63103e-09
2.63202e-09
-8.16806e-11
-2.23341e-09
2.34456e-09
-1.05296e-10
-5.84317e-12
5.07307e-10
3.62018e-09
-4.69879e-10
1.19766e-09
5.57476e-09
-2.38675e-09
-4.38566e-09
-3.95109e-10
2.33039e-09
-1.97989e-09
4.45513e-11
-2.22719e-09
-1.82349e-09
6.018e-10
3.44888e-09
-4.83141e-09
-1.57802e-10
2.80933e-09
2.17989e-09
-1.97973e-10
-5.55219e-09
2.27306e-10
-1.95971e-10
2.70578e-09
1.44809e-10
-2.38415e-10
-4.09921e-09
4.28794e-09
4.96838e-11
9.64316e-10
-2.94901e-09
1.9745e-09
1.01975e-11
-6.43239e-11
3.50203e-09
2.41079e-09
-5.8485e-09
-2.74468e-09
3.19471e-09
3.65635e-09
-4.10638e-09
3.12505e-09
-6.37019e-09
-1.52163e-09
4.76676e-09
3.48319e-09
-1.64491e-10
-3.33917e-09
2.04785e-11
-1.3901e-10
3.11518e-09
8.25882e-12
-2.98444e-09
-4.26946e-09
9.79481e-09
-2.84972e-09
-2.67563e-09
-3.74118e-09
1.96606e-09
2.59052e-09
-8.1539e-10
-3.12643e-09
3.12057e-10
2.69019e-09
1.24173e-10
-5.0717e-09
4.51104e-09
-1.81609e-09
2.37675e-09
2.45327e-09
-2.15132e-09
-2.29412e-10
-7.25489e-11
2.05097e-09
1.68636e-09
-2.79755e-09
-9.39781e-10
-2.98114e-09
-1.23116e-09
1.64241e-09
2.56989e-09
2.66928e-09
-3.01445e-09
-1.50062e-09
1.8458e-09
1.90402e-09
-5.12727e-09
5.58695e-09
-2.36372e-09
1.98291e-09
-7.77009e-10
-4.6339e-09
3.42799e-09
1.48259e-09
6.30731e-09
-7.72209e-11
-7.30092e-09
-3.50084e-09
5.24643e-09
5.82804e-09
-8.08529e-09
5.53137e-09
-3.27412e-09
3.94495e-09
6.92941e-11
-2.96657e-09
-1.04768e-09
3.29878e-09
1.17672e-10
-3.24212e-09
-1.74341e-10
-3.74861e-09
-3.69339e-09
7.73096e-09
-2.88965e-10
4.61867e-09
-2.53138e-11
-4.32765e-09
-3.54933e-09
3.04556e-09
6.36159e-09
-7.91144e-10
8.1277e-09
-4.01477e-09
1.62529e-09
1.82883e-09
1.48239e-09
-1.03161e-10
-1.72736e-09
7.89945e-11
2.98392e-09
-4.76548e-11
4.8517e-09
3.64302e-09
-3.8352e-09
4.72566e-10
1.59275e-09
2.30238e-09
-4.36767e-09
-2.31858e-09
-1.94975e-09
4.14931e-09
1.19018e-10
3.5089e-09
-5.15266e-09
-5.30784e-09
6.9516e-09
5.59787e-09
-2.4177e-09
-1.3259e-09
-1.85427e-09
2.7377e-09
-1.28726e-09
5.06054e-11
2.03094e-09
5.32557e-10
-2.48326e-09
-8.02314e-11
-4.66322e-09
-2.05063e-10
2.32725e-11
-1.50044e-09
-2.4078e-09
3.81483e-09
9.34168e-11
-3.39609e-09
-2.50702e-09
-2.38821e-10
6.14193e-09
1.2288e-09
-2.52581e-09
-1.78193e-10
-1.2548e-09
2.23989e-09
2.43707e-10
1.46138e-09
-1.32741e-09
-1.38877e-09
1.33411e-09
-1.60664e-09
-2.27785e-09
2.55037e-09
-4.84364e-09
5.0842e-09
2.17515e-09
-2.41568e-09
1.64082e-09
-3.52263e-09
2.01861e-09
-1.3679e-10
1.87282e-09
2.46711e-09
-4.31087e-09
-2.90542e-11
1.58875e-09
-1.5143e-09
-1.63469e-09
1.56028e-09
3.24324e-09
-5.75895e-09
2.71403e-10
2.24431e-09
-3.71493e-09
2.83219e-09
-1.38062e-09
-2.38087e-09
4.65679e-11
3.92229e-09
-9.73546e-10
-5.99596e-09
3.04722e-09
-2.02093e-09
6.12805e-10
4.93781e-09
-3.52968e-09
-3.35331e-09
-1.75428e-09
2.04608e-09
3.06151e-09
1.33207e-09
8.39786e-10
-2.06718e-09
-1.04678e-10
1.05592e-09
2.45217e-09
-3.44777e-09
-6.03358e-11
2.55837e-10
2.38807e-09
1.99e-09
-4.6339e-09
1.05106e-09
-1.69259e-10
-3.42667e-09
-3.09711e-09
1.24639e-09
3.0294e-09
-1.95e-09
-1.23769e-09
1.58289e-10
2.32192e-09
-3.55277e-09
4.70436e-09
1.62382e-09
-6.10592e-10
3.86665e-11
4.3151e-10
3.70858e-09
-1.89102e-09
-1.1582e-09
-7.72172e-11
-7.79303e-11
3.53392e-09
-3.56365e-09
1.07659e-10
-5.77687e-09
4.75641e-09
-4.04204e-09
5.06249e-09
2.2038e-09
-6.10518e-11
8.95122e-10
-3.00239e-09
2.10939e-09
-2.12083e-12
9.39502e-10
3.07293e-09
-2.61458e-09
-1.39784e-09
-2.05328e-09
1.17703e-09
1.02518e-09
-1.4896e-10
-2.43034e-09
1.47471e-09
9.72595e-10
-1.69893e-11
-1.24202e-09
1.46741e-09
1.2971e-09
-2.04986e-09
4.76056e-09
-2.79452e-09
8.38149e-11
4.56811e-09
4.13955e-09
-2.49536e-09
-6.21232e-09
4.25247e-09
-2.90837e-09
-6.06287e-09
4.71876e-09
-4.21782e-09
-7.58665e-10
4.86312e-09
1.13373e-10
-1.41278e-09
-1.72875e-09
2.12678e-09
-3.9118e-09
-9.20714e-10
1.78868e-09
3.04383e-09
1.00509e-09
5.24223e-09
-6.56659e-09
3.19277e-10
2.03614e-09
2.86341e-09
-5.98063e-09
1.08109e-09
7.8711e-10
1.53217e-09
-3.18134e-09
8.62055e-10
-5.70575e-11
-1.53129e-09
1.61057e-09
-2.22164e-11
1.67722e-09
4.81158e-09
-2.93862e-09
-1.88442e-10
3.00862e-09
1.18442e-10
1.21199e-09
-2.37041e-11
-1.21778e-09
2.95337e-11
-2.43168e-10
1.65071e-09
2.31696e-09
-3.7245e-09
1.79731e-09
-3.12638e-09
-2.07765e-09
3.40672e-09
5.63702e-10
7.00906e-09
-1.92607e-09
3.65615e-09
-3.70641e-09
-2.65279e-11
7.67821e-11
-4.83946e-09
-2.1516e-09
1.07363e-08
-3.74524e-09
3.21649e-09
-3.8962e-09
-6.47678e-09
4.2886e-09
-3.39109e-10
-6.73936e-09
2.78987e-09
-2.02427e-09
1.01747e-09
-2.26846e-09
-4.5513e-09
5.7763e-09
1.23138e-09
-2.45638e-09
1.44252e-09
1.00938e-09
-2.35399e-09
-9.78873e-11
-1.03898e-09
2.40339e-09
-1.3923e-09
2.78676e-11
1.21543e-09
-1.45178e-11
6.00536e-09
-4.84707e-09
-1.69566e-09
5.3737e-10
-2.78486e-09
2.68705e-09
-3.6144e-09
3.71221e-09
2.54787e-09
-2.23655e-10
-2.38641e-09
6.21934e-11
2.54664e-09
-4.24873e-09
-3.40879e-09
5.11088e-09
-4.73205e-09
4.802e-09
7.12305e-09
-7.193e-09
-1.86853e-09
-1.01077e-11
-1.09528e-09
2.97394e-09
6.68684e-09
3.92644e-09
-6.89289e-09
-3.91267e-09
2.66329e-09
1.3968e-09
-1.47425e-10
-1.68002e-09
2.68211e-09
2.69867e-09
-3.70076e-09
1.64021e-09
-1.78189e-09
1.39272e-10
2.41179e-12
-4.04484e-09
-9.85744e-11
4.01585e-09
1.2757e-10
1.18151e-09
-1.81228e-09
8.08068e-10
-1.77331e-10
1.70088e-10
-1.43557e-09
7.46091e-09
-6.19542e-09
-6.31267e-09
-2.03034e-09
-2.1817e-09
1.05247e-08
-3.6479e-09
-1.76041e-09
-3.50789e-10
5.7591e-09
-4.32903e-09
1.85564e-09
2.54752e-09
-7.4123e-11
1.3253e-11
-2.70074e-09
2.63127e-09
5.62015e-11
3.058e-09
-9.80467e-10
-2.10297e-09
2.5438e-11
3.21689e-09
-3.18213e-09
-2.56141e-09
2.52664e-09
5.498e-09
-5.30201e-09
-2.28627e-10
3.26437e-11
-2.78393e-09
3.55289e-09
-4.69848e-09
2.67032e-09
1.04967e-10
-2.72494e-09
-5.03415e-11
-1.74774e-09
3.70525e-09
1.94055e-10
-5.01831e-09
3.49847e-09
6.1277e-09
-1.13084e-09
1.43061e-09
2.2267e-09
-3.81232e-09
1.20015e-10
-2.20199e-09
3.60868e-09
1.79613e-09
-4.9439e-09
-4.609e-10
4.59038e-09
4.07275e-10
-4.93879e-09
-5.88682e-11
5.28047e-09
4.5734e-09
-5.26349e-09
-4.33253e-09
3.72019e-10
3.56306e-09
3.97444e-10
9.6537e-10
1.98927e-09
2.13949e-11
7.84943e-09
-1.39538e-08
4.40751e-09
-2.00575e-09
1.9447e-09
1.36307e-10
-7.52454e-11
2.02029e-09
-7.90589e-09
4.73365e-09
1.15195e-09
2.70746e-09
1.07622e-09
-1.47272e-09
-4.25579e-09
-3.94802e-09
5.61126e-09
2.59255e-09
-3.90952e-09
7.62214e-10
4.62991e-09
-3.15685e-11
-2.0184e-09
4.421e-11
-3.11062e-09
9.4063e-11
-2.25539e-10
-3.83027e-09
3.96486e-09
9.09555e-11
-5.57284e-09
6.55188e-09
-1.31876e-09
3.39728e-10
4.12332e-10
4.71846e-09
-5.0798e-09
-5.09824e-11
-1.83956e-10
2.85227e-09
-2.63074e-09
-3.75783e-11
-1.56582e-09
1.66637e-09
1.0603e-11
-1.11147e-10
-1.72595e-09
1.25111e-10
3.50151e-11
-3.5679e-11
2.88393e-09
-2.80203e-09
-4.62329e-11
2.5545e-09
-2.52423e-09
-9.72631e-11
6.6991e-11
4.32964e-10
-7.27592e-09
7.09041e-09
1.0112e-09
-3.98243e-09
-1.85209e-09
-4.06491e-09
2.39817e-10
3.76934e-09
5.57532e-11
-3.21662e-09
2.90182e-09
4.49505e-11
4.11603e-09
-4.58786e-09
4.20357e-09
-3.73173e-09
4.23172e-09
3.03315e-09
-9.27826e-09
2.01338e-09
-9.90743e-09
-6.22967e-09
1.01402e-08
5.99688e-09
6.43516e-09
1.03961e-08
-9.40979e-09
-7.42145e-09
1.076e-08
-4.34724e-09
-6.87107e-09
4.58309e-10
-3.87089e-10
-3.50403e-09
-5.40623e-09
-5.24813e-09
8.40287e-09
-8.9263e-09
5.77156e-09
7.66948e-11
2.64555e-09
-2.68979e-09
-3.24554e-11
3.02061e-09
-8.15282e-09
-4.56428e-11
5.17784e-09
4.37013e-09
4.63342e-10
-1.14024e-08
6.5689e-09
-4.40592e-10
4.25695e-09
-1.04781e-08
6.66176e-09
-5.55501e-09
9.88772e-09
-3.92832e-09
-4.04402e-10
4.6725e-10
-7.06652e-09
-4.35763e-09
1.09569e-08
-1.78309e-10
8.30321e-09
1.10537e-10
-8.23545e-09
7.04028e-09
4.36586e-09
-1.09034e-08
-5.02711e-10
-5.02804e-10
3.85253e-09
-9.17683e-09
5.82711e-09
-2.72807e-09
7.47277e-09
3.47911e-09
-8.2238e-09
4.35983e-09
-6.16116e-09
2.58844e-09
2.44606e-09
6.84532e-11
-4.29393e-09
4.02922e-09
3.91748e-11
2.73746e-09
3.39658e-09
-7.97301e-09
1.83897e-09
-1.77078e-09
-2.52202e-09
4.09675e-09
1.96044e-10
9.36611e-09
-3.72305e-09
-3.64663e-10
-5.2784e-09
-3.83604e-10
1.10154e-08
-4.21743e-09
-6.41433e-09
9.73742e-09
6.38657e-09
-5.93006e-09
-1.01939e-08
-6.8448e-09
1.0729e-08
4.33902e-10
-4.31806e-09
2.89001e-09
5.52607e-09
-4.93209e-09
-3.48399e-09
2.15657e-09
-2.15571e-09
1.9202e-10
-3.91536e-09
1.39411e-09
5.11306e-09
-5.58104e-09
-2.55433e-09
2.50785e-10
7.88458e-09
-7.03769e-09
-1.09908e-08
6.60314e-09
1.14254e-08
-5.07033e-09
3.29686e-09
2.29804e-09
-5.24561e-10
4.34225e-10
-6.78435e-09
-4.3032e-09
1.06533e-08
-4.32511e-10
4.31949e-09
6.75792e-09
-1.06449e-08
-4.3156e-10
-4.3527e-09
-6.465e-09
4.91533e-09
3.43247e-10
-1.24385e-08
7.17991e-09
-1.73446e-09
2.83452e-09
-1.13439e-09
3.43287e-11
-1.09189e-08
-4.56615e-10
4.33779e-09
1.09709e-08
-1.05741e-08
6.24342e-09
-6.64016e-09
6.19316e-09
1.45419e-09
-4.24379e-09
4.76921e-09
-1.69916e-09
-5.98703e-09
-5.80761e-09
1.01367e-08
-3.93781e-09
-3.91241e-10
-7.79448e-11
3.57718e-09
-5.75686e-09
2.25763e-09
3.89796e-10