/*--------------------------------*- C++ -*----------------------------------*\
| =========                 |                                                 |
| \\      /  F ield         | OpenFOAM: The Open Source CFD Toolbox           |
|  \\    /   O peration     | Version:  v1612+                                |
|   \\  /    A nd           | Web:      www.OpenFOAM.com                      |
|    \\/     M anipulation  |                                                 |
\*---------------------------------------------------------------------------*/
FoamFile
{
    version     2.0;
    format      ascii;
    class       volVectorField;
    location    "50";
    object      U;
}
// * * * * * * * * * * * * * * * * * * * * * * * * * * * * * * * * * * * * * //

dimensions      [0 1 -1 0 0 0 0];

internalField   nonuniform List<vector> 
17221
(
(0.818061 0.370281 0.632313)
(0.777247 0.320083 0.602727)
(0.843686 0.382481 0.643272)
(0.810146 0.350628 0.61456)
(0.796048 0.363883 0.602253)
(0.820869 0.392889 0.616647)
(0.79673 0.393997 0.605625)
(0.749456 0.348024 0.570744)
(0.65429 0.281604 0.507689)
(0.646752 0.284314 0.512707)
(0.7659 0.319923 0.599405)
(0.840935 0.399741 0.647301)
(0.762232 0.293586 0.579935)
(0.783621 0.387767 0.608972)
(0.6381 0.264721 0.527326)
(0.681443 0.263102 0.554258)
(0.699183 0.301013 0.561073)
(0.802871 0.39464 0.630709)
(0.668843 0.253409 0.543228)
(0.67422 0.268936 0.55632)
(0.7651 0.330604 0.617574)
(0.840977 0.411179 0.654674)
(0.834851 0.422675 0.655548)
(0.768718 0.358933 0.623065)
(0.839959 0.453898 0.665454)
(0.799301 0.410688 0.631045)
(0.876755 0.226858 0.231878)
(0.956861 0.28291 0.288876)
(0.88399 0.253241 0.241366)
(0.955631 0.278991 0.273035)
(0.908373 0.22035 0.247156)
(1.00692 0.308853 0.298658)
(1.0212 0.312155 0.283073)
(1.03598 0.307277 0.319806)
(0.975133 0.268835 0.303033)
(0.789 0.208053 0.475127)
(0.830557 0.258971 0.508353)
(0.738791 0.178729 0.453688)
(0.771516 0.217336 0.478734)
(0.789916 0.233479 0.507779)
(0.816239 0.223564 0.487123)
(0.858411 0.263601 0.513029)
(0.748982 0.142143 0.416835)
(0.779727 0.214334 0.494033)
(0.830188 0.26957 0.53795)
(0.765326 0.170678 0.443345)
(0.759779 0.178033 0.471847)
(0.363749 0.274065 0.373606)
(0.344531 0.235647 0.364031)
(0.345915 0.23742 0.372925)
(0.338081 0.232397 0.345108)
(0.317941 0.26824 0.297936)
(0.322716 0.251514 0.304647)
(0.319808 0.212315 0.303302)
(0.308461 0.240121 0.296704)
(0.334536 0.21895 0.336084)
(0.316631 0.227786 0.295549)
(0.735706 0.269897 0.588034)
(0.741073 0.285587 0.592017)
(0.733173 0.267103 0.58954)
(0.627162 0.209165 0.508686)
(0.57816 0.193236 0.130522)
(0.608117 0.212689 0.151872)
(0.612386 0.212429 0.159917)
(0.676568 0.188086 0.104268)
(0.688791 0.200721 0.130142)
(0.712418 0.233187 0.161062)
(0.694565 0.216094 0.141418)
(0.696017 0.242094 0.177244)
(0.736851 0.256502 0.20236)
(0.734323 0.232567 0.163743)
(0.700664 0.198838 0.195669)
(0.644473 0.187904 0.160895)
(0.698729 0.204382 0.143846)
(0.695968 0.201536 0.110975)
(0.609306 0.202356 0.118929)
(0.76686 0.2434 0.192929)
(0.727265 0.215774 0.178383)
(0.656496 0.197003 0.144987)
(0.716877 0.202647 0.163343)
(0.590398 0.18394 0.108435)
(0.313025 0.210025 0.241559)
(0.311974 0.208867 0.263705)
(0.296002 0.175183 0.201687)
(0.297245 0.162355 0.217237)
(0.268119 0.161194 0.143036)
(0.278097 0.168921 0.156357)
(0.310833 0.17204 0.248239)
(0.302834 0.209729 0.20981)
(0.30194 0.211043 0.232302)
(0.260979 0.160247 0.158947)
(0.251093 0.142488 0.136705)
(0.258767 0.143594 0.157835)
(0.273911 0.170235 0.20043)
(0.876382 0.230779 0.211279)
(0.851229 0.214245 0.216437)
(0.819576 0.195085 0.170858)
(0.875931 0.18678 0.220007)
(0.868092 0.181671 0.238189)
(0.847509 0.166098 0.165135)
(0.842511 0.174022 0.18513)
(0.806979 0.169641 0.188361)
(0.363051 0.23757 0.101715)
(0.363644 0.246345 0.120262)
(0.333818 0.20458 0.079219)
(0.31575 0.186946 0.0787418)
(0.328324 0.202458 0.0896208)
(0.352815 0.235633 0.102872)
(0.311443 0.189565 0.0658165)
(0.287026 0.16763 0.0340534)
(0.398354 0.210846 0.0414188)
(0.361585 0.189895 0.0272124)
(0.39396 0.250251 0.0773365)
(0.357439 0.21314 0.0580938)
(0.404825 0.255767 0.101908)
(0.432435 0.257457 0.105089)
(0.347102 0.170145 0.0228314)
(0.322625 0.158195 0.020323)
(0.310381 0.160372 0.00664926)
(0.392779 0.189147 0.0241491)
(0.303309 0.15929 0.014893)
(0.414185 0.21421 0.0499059)
(0.334797 0.290962 -0.0556383)
(0.319061 0.281849 -0.0544962)
(0.402608 0.320252 0.0191901)
(0.429701 0.307384 0.0893087)
(0.399102 0.312259 0.0411816)
(0.428383 0.311801 0.0839304)
(0.439419 0.290856 0.118409)
(0.423952 0.294485 0.0976862)
(0.34586 0.306922 -0.0630557)
(0.338838 0.295778 -0.0310167)
(0.323755 0.283553 -0.0332925)
(0.31493 0.302741 -0.0826453)
(0.302309 0.27605 -0.0711193)
(0.323657 0.292237 -0.0216409)
(0.29403 0.277022 -0.0636282)
(0.373733 0.290528 0.0564149)
(0.342363 0.308389 -0.0318179)
(0.31864 0.286511 -0.033168)
(1.0755 0.460807 0.357587)
(1.08686 0.461677 0.364739)
(1.13405 0.486262 0.393571)
(1.07248 0.460346 0.400663)
(1.07148 0.449862 0.342457)
(1.13698 0.485645 0.428212)
(1.10732 0.478968 0.417416)
(1.08149 0.453332 0.374642)
(1.08853 0.462404 0.41773)
(1.06143 0.452146 0.377135)
(1.06625 0.458689 0.436183)
(1.0812 0.466691 0.434327)
(1.09304 0.48547 0.44049)
(0.935746 0.442667 0.550763)
(0.931802 0.452498 0.544974)
(0.958273 0.533017 0.601014)
(0.949475 0.516571 0.594198)
(0.913974 0.441289 0.554759)
(0.929031 0.544547 0.609468)
(0.952564 0.5768 0.626573)
(0.952175 0.540734 0.621528)
(0.927737 0.571643 0.620986)
(0.920547 0.580193 0.622545)
(0.650421 0.318192 0.198735)
(0.747488 0.341714 0.238989)
(0.657831 0.335601 0.23006)
(0.642636 0.313905 0.220449)
(0.674851 0.310883 0.216977)
(0.736759 0.345068 0.246883)
(0.580116 0.306191 0.171761)
(0.772785 0.350042 0.268451)
(0.663037 0.325439 0.198791)
(0.696569 0.337297 0.222635)
(0.641031 0.338646 0.206458)
(0.717983 0.357795 0.24445)
(0.527282 0.305123 0.150836)
(0.595594 0.339788 0.161671)
(0.644351 0.349518 0.170379)
(0.572842 0.325013 0.155771)
(0.930072 0.581079 0.644404)
(0.918542 0.55339 0.658861)
(0.912775 0.593693 0.641586)
(0.944731 0.614436 0.651345)
(0.929265 0.571886 0.657452)
(0.899153 0.572504 0.678244)
(0.897814 0.547416 0.662443)
(0.807645 0.604954 0.645137)
(0.764526 0.580487 0.607473)
(0.870448 0.610898 0.623377)
(0.847478 0.598468 0.621505)
(0.790172 0.584349 0.617573)
(0.797135 0.574296 0.567581)
(0.869462 0.568772 0.675647)
(0.786247 0.373259 -0.0839619)
(0.780275 0.363311 -0.0853827)
(0.924931 0.39868 0.0336543)
(0.893743 0.388706 0.00605216)
(0.764849 0.366795 -0.0443916)
(0.81718 0.386905 -0.00631425)
(0.904821 0.402985 0.0457401)
(0.769783 0.36129 -0.110227)
(0.73328 0.356839 -0.117456)
(0.862286 0.401894 0.00419995)
(0.765518 0.371899 -0.0978352)
(0.748916 0.361757 -0.117349)
(0.766485 0.372794 -0.0729876)
(0.38533 0.28032 0.152049)
(0.417616 0.298941 0.17693)
(0.440718 0.320042 0.198948)
(0.402741 0.312868 0.194315)
(0.396333 0.273538 0.141856)
(0.405688 0.264124 0.122619)
(0.431755 0.274679 0.148615)
(0.572127 0.34681 0.248995)
(0.571427 0.341474 0.244952)
(0.452135 0.324813 0.189365)
(0.420162 0.266849 0.130404)
(0.471302 0.269374 0.136609)
(0.437959 0.248285 0.0863208)
(0.571568 0.243514 0.130401)
(0.562976 0.300873 0.205188)
(0.579434 0.310076 0.217152)
(0.464867 0.290816 0.150349)
(0.450256 0.261134 0.108643)
(0.542385 0.271665 0.159365)
(0.576169 0.298482 0.196266)
(0.49213 0.271112 0.137005)
(0.471472 0.245679 0.0934915)
(0.810008 0.381374 0.255843)
(0.93916 0.417004 0.2804)
(1.01323 0.443985 0.324117)
(0.901352 0.420816 0.239137)
(0.807358 0.389626 0.238502)
(0.907264 0.395889 0.316837)
(0.935564 0.387151 0.286755)
(0.271954 0.180968 0.180682)
(0.271358 0.182088 0.156465)
(0.308046 0.256662 0.198419)
(0.29177 0.22943 0.218428)
(0.302876 0.246414 0.233308)
(0.300223 0.263266 0.225391)
(0.282931 0.187226 0.145392)
(0.311612 0.233743 0.178273)
(0.270322 0.163096 0.142729)
(0.277947 0.169933 0.119356)
(0.264852 0.171902 0.163663)
(0.291045 0.215412 0.206251)
(0.31658 0.228538 0.164001)
(0.313693 0.228291 0.165785)
(0.287417 0.199949 0.176362)
(0.280346 0.177625 0.139289)
(0.276262 0.174269 0.125462)
(0.328118 0.264623 0.19304)
(0.317721 0.218202 0.140063)
(0.358866 0.257345 0.163395)
(0.376322 0.264672 0.17642)
(0.398323 0.29826 0.239445)
(0.38911 0.293882 0.192053)
(0.421356 0.298758 0.247382)
(0.449275 0.324466 0.278518)
(0.418754 0.240864 0.235094)
(0.3984 0.271438 0.215227)
(0.47566 0.341895 0.352236)
(0.503973 0.318874 0.360385)
(0.541524 0.28951 0.392083)
(0.549489 0.300033 0.401121)
(0.425027 0.302866 0.273345)
(0.390058 0.273805 0.185614)
(0.388495 0.226187 0.222999)
(0.365613 0.242209 0.178778)
(0.472065 0.318901 0.35226)
(0.475508 0.25928 0.327691)
(0.486018 0.259212 0.371158)
(0.428371 0.244388 0.302171)
(0.39449 0.216648 0.263333)
(0.4792 0.246498 0.366126)
(0.43213 0.29758 0.328237)
(0.394446 0.324426 -0.0985137)
(0.339998 0.297865 -0.0991561)
(0.356576 0.30837 -0.120773)
(0.300985 0.28321 -0.119293)
(0.433176 0.323414 0.00580156)
(0.340897 0.317074 -0.112989)
(0.276845 0.297607 -0.112287)
(0.29842 0.293266 -0.10628)
(0.388765 0.328606 -0.103885)
(0.430033 0.340738 -0.0167199)
(0.429288 0.326975 0.0280074)
(0.313127 0.310601 -0.0664349)
(0.756544 0.216031 0.271927)
(0.732283 0.194407 0.265056)
(0.671477 0.189637 0.240711)
(0.64299 0.190516 0.242247)
(0.567389 0.151569 0.195213)
(0.65269 0.146177 0.222172)
(0.764461 0.220818 0.288945)
(0.747862 0.188298 0.275445)
(0.574242 0.122047 0.191283)
(0.72616 0.194771 0.27689)
(0.668714 0.17387 0.249217)
(0.624779 0.122697 0.211608)
(0.645863 0.137417 0.227653)
(0.394219 0.28637 0.0812186)
(0.398949 0.285312 0.0974182)
(0.380696 0.263932 0.0829205)
(0.388615 0.262477 0.122745)
(0.388865 0.275694 0.0640431)
(0.404849 0.279768 0.107625)
(0.328353 0.232724 -0.0138692)
(0.312748 0.210751 -0.0124638)
(0.33391 0.242782 0.0225989)
(0.362212 0.246901 0.12756)
(0.338452 0.227743 0.0224782)
(0.321513 0.215112 0.0166787)
(0.375161 0.259069 0.0918449)
(0.347918 0.246299 0.00423522)
(0.328334 0.216083 0.0533229)
(0.53482 0.278129 0.0970916)
(0.570387 0.285081 0.118137)
(0.532405 0.306189 0.168092)
(0.437012 0.248154 0.0583741)
(0.458089 0.242973 0.0687745)
(0.528966 0.289877 0.141199)
(0.537098 0.324403 0.18806)
(0.468382 0.303523 0.160379)
(0.452071 0.320654 0.195884)
(0.424943 0.273596 0.115169)
(0.411681 0.260106 0.0907818)
(0.477279 0.304346 0.181351)
(0.416478 0.279015 0.110192)
(0.401298 0.283074 0.130875)
(0.383903 0.28844 0.15101)
(0.722462 0.274594 0.261184)
(0.677875 0.26947 0.246663)
(0.520101 0.22934 0.144773)
(0.564071 0.232766 0.177713)
(0.569466 0.224775 0.193568)
(0.527411 0.216068 0.151901)
(0.753684 0.270003 0.251899)
(0.702229 0.254538 0.252815)
(0.769363 0.278387 0.283546)
(0.628724 0.233333 0.179546)
(0.55025 0.205082 0.158587)
(0.624927 0.214787 0.194437)
(0.627921 0.223571 0.220718)
(0.786495 0.269146 0.265712)
(0.626952 0.210618 0.172225)
(0.68272 0.217379 0.210934)
(0.905053 0.46455 0.543091)
(0.869212 0.442667 0.518909)
(0.874909 0.504168 0.617315)
(0.844245 0.465262 0.595159)
(0.80035 0.431036 0.543431)
(0.908458 0.51909 0.628833)
(0.934818 0.537243 0.626949)
(0.897342 0.463015 0.544175)
(0.868131 0.437006 0.524819)
(0.871087 0.485758 0.544111)
(0.828086 0.445461 0.529809)
(0.813259 0.443991 0.565365)
(0.879064 0.479785 0.580193)
(0.848053 0.450283 0.524468)
(0.791653 0.405681 0.486269)
(0.737582 0.326955 0.406747)
(0.769122 0.33964 0.425663)
(0.780915 0.35452 0.422452)
(0.737913 0.32988 0.393703)
(0.715634 0.316861 0.366789)
(0.833557 0.382636 0.482341)
(0.833436 0.395577 0.491248)
(0.820713 0.355385 0.404155)
(0.784496 0.325907 0.378271)
(0.724032 0.30288 0.347152)
(0.863403 0.405616 0.479495)
(0.902 0.429009 0.502308)
(0.898495 0.415902 0.489049)
(0.845667 0.390048 0.481211)
(0.910382 0.416915 0.467204)
(0.873635 0.398996 0.476077)
(0.782679 0.335405 0.373559)
(0.803835 0.356912 0.414024)
(0.845152 0.373289 0.403873)
(0.81111 0.338931 0.37991)
(0.773076 0.388848 0.408348)
(0.684808 0.344087 0.339842)
(0.745034 0.400089 0.421412)
(0.695185 0.408185 0.433607)
(0.786991 0.36375 0.397293)
(0.655535 0.410293 0.396825)
(0.584632 0.385841 0.366184)
(0.644218 0.401704 0.40324)
(0.839255 0.437574 0.512288)
(0.844889 0.47654 0.55875)
(0.777403 0.416302 0.480202)
(0.635071 0.399821 0.413105)
(0.584821 0.391418 0.35969)
(0.893394 0.504487 0.572286)
(0.832054 0.48018 0.547998)
(0.610531 -0.000225435 0.170052)
(0.659687 0.0347176 0.205713)
(0.618908 -0.00380062 0.154184)
(0.608934 -0.000391366 0.149687)
(0.762767 0.106504 0.268258)
(0.776356 0.0954125 0.252262)
(0.682148 0.0197897 0.188258)
(0.614696 -0.0142786 0.120349)
(0.657966 0.0077393 0.12389)
(0.776702 0.111584 0.259811)
(0.693577 0.0557355 0.206008)
(0.556053 -0.0391569 0.0956498)
(0.765926 0.0896175 0.202343)
(0.57679 -0.0293152 0.0822563)
(0.769755 0.103455 0.180224)
(0.758838 0.0975356 0.195411)
(0.774225 0.116516 0.232326)
(0.776913 0.113209 0.254058)
(0.634682 0.0103636 0.158297)
(0.673744 0.027453 0.0970163)
(0.654582 0.0124547 0.0741107)
(0.769095 0.100926 0.223514)
(0.669685 0.0296458 0.153632)
(0.626938 -0.00328234 0.0811869)
(1.04691 0.451324 0.440319)
(1.01602 0.42667 0.442472)
(0.921586 0.391993 0.374355)
(0.918395 0.383822 0.380269)
(1.08957 0.468815 0.479828)
(1.05824 0.456255 0.49502)
(0.970891 0.392263 0.417187)
(1.03101 0.42723 0.47907)
(0.992847 0.386126 0.442025)
(1.02376 0.434621 0.416712)
(0.94335 0.415882 0.362698)
(0.898401 0.370698 0.360568)
(0.892767 0.343495 0.349544)
(0.930641 0.391308 0.352095)
(1.03107 0.445404 0.375653)
(0.947132 0.360154 0.407103)
(1.04006 0.459753 0.400494)
(0.920104 0.36125 0.316669)
(1.03572 0.408718 0.447012)
(1.07573 0.4347 0.481907)
(1.0512 0.429213 0.412548)
(1.01079 0.405659 0.419575)
(1.08167 0.457675 0.468047)
(1.08828 0.450761 0.457325)
(0.806659 0.257871 0.539419)
(0.787282 0.244288 0.520006)
(0.827844 0.401034 0.629342)
(0.820475 0.357059 0.601795)
(0.84592 0.378479 0.585255)
(0.836285 0.325351 0.580764)
(0.84153 0.373975 0.621404)
(0.809608 0.322134 0.584654)
(0.790703 0.259938 0.561191)
(0.776765 0.255354 0.508542)
(0.791482 0.26775 0.549362)
(0.83477 0.398787 0.63044)
(0.809643 0.329348 0.592841)
(0.820391 0.34861 0.596558)
(0.791426 0.325923 0.550144)
(0.848257 0.400407 0.638203)
(0.789819 0.298294 0.539279)
(0.805366 0.390148 0.563465)
(0.842035 0.429536 0.58659)
(0.799449 0.364006 0.537192)
(0.81983 0.42826 0.573832)
(0.938113 0.315007 0.29589)
(0.951978 0.321964 0.282289)
(0.942932 0.328309 0.287155)
(0.963148 0.345287 0.260733)
(0.98353 0.348972 0.261763)
(0.958921 0.349346 0.28151)
(0.941519 0.339881 0.287548)
(0.915746 0.297238 0.237256)
(0.949644 0.335133 0.292175)
(0.943114 0.332393 0.280448)
(0.937612 0.330826 0.222609)
(0.908422 0.314368 0.201047)
(0.903834 0.30319 0.250882)
(0.931735 0.320836 0.287588)
(0.918152 0.336736 0.303388)
(0.945181 0.339953 0.249491)
(0.951592 0.33622 0.233288)
(0.759991 0.112066 0.230559)
(0.816908 0.128148 0.265584)
(0.680917 0.0554496 0.14529)
(0.634786 0.0172667 0.108425)
(0.704314 0.0612864 0.139894)
(0.650327 0.0236002 0.140346)
(0.660729 0.0556242 0.20069)
(0.608783 0.0140904 0.133042)
(0.634608 0.0313371 0.16289)
(0.584819 0.00905105 0.116843)
(0.695264 0.0723822 0.182403)
(0.63899 0.0447421 0.162593)
(0.626132 0.0254881 0.118503)
(0.570285 -0.00573188 0.0848368)
(0.772607 0.0984823 0.193212)
(0.785777 0.118861 0.228447)
(0.780236 0.130814 0.253718)
(0.805063 0.124494 0.250551)
(0.72053 0.301843 0.510493)
(0.786489 0.359638 0.554269)
(0.756976 0.330943 0.54103)
(0.783487 0.3418 0.517127)
(0.747724 0.310621 0.507578)
(0.772528 0.346316 0.497935)
(0.808324 0.372422 0.528027)
(0.79114 0.36744 0.537558)
(0.753506 0.325517 0.519216)
(0.834739 0.382774 0.594421)
(0.820149 0.38723 0.580248)
(0.888869 0.421634 0.602619)
(0.86552 0.418577 0.575943)
(0.774716 0.327488 0.543988)
(0.76405 0.320429 0.516659)
(0.807817 0.328398 0.53716)
(0.826673 0.356681 0.581633)
(0.925556 0.442617 0.637794)
(0.905468 0.431915 0.621136)
(0.867327 0.377352 0.596688)
(0.789178 0.318409 0.193735)
(0.716545 0.320803 0.18983)
(0.827199 0.319204 0.220247)
(0.780142 0.312081 0.160442)
(0.719208 0.309239 0.169386)
(0.878622 0.297637 0.163775)
(0.862558 0.313963 0.170262)
(0.82118 0.228911 0.0741328)
(0.822002 0.223545 0.0542494)
(0.706373 0.27521 -0.0130878)
(0.71703 0.291249 0.00626878)
(0.7227 0.254383 -0.0446332)
(0.701979 0.255708 -0.0585756)
(0.745617 0.243808 0.0140982)
(0.732156 0.236947 -0.00599652)
(0.736386 0.283895 0.0651121)
(0.722312 0.241754 -0.0438202)
(0.667315 0.332426 0.476417)
(0.685679 0.341085 0.477473)
(0.747178 0.39045 0.529161)
(0.640319 0.312266 0.449544)
(0.76027 0.399373 0.562297)
(0.680248 0.342738 0.514614)
(0.708296 0.361765 0.481379)
(0.796641 0.439794 0.580136)
(0.765297 0.420298 0.566876)
(0.76749 0.406644 0.534923)
(0.773999 0.417875 0.553323)
(0.92159 0.243503 0.212216)
(0.911188 0.27035 0.198023)
(0.879993 0.257692 0.191513)
(0.848597 0.217439 0.181724)
(0.898159 0.220628 0.205339)
(0.926651 0.295364 0.229346)
(0.990843 0.343868 0.28356)
(1.04307 0.297463 0.245565)
(0.955051 0.285741 0.218224)
(0.95195 0.288805 0.259846)
(0.932748 0.222319 0.216567)
(1.10313 0.384247 0.344946)
(1.07974 0.376974 0.354332)
(1.06711 0.344125 0.313768)
(0.98617 0.279584 0.257647)
(0.319845 0.376432 -0.142121)
(0.334353 0.379239 -0.10422)
(0.403834 0.36628 -0.0247919)
(0.407526 0.390765 -0.0689661)
(0.50655 0.370828 0.000626345)
(0.484373 0.366022 0.00924596)
(0.395275 0.399736 -0.209476)
(0.372114 0.384918 -0.209724)
(0.359056 0.390993 -0.163471)
(0.31783 0.36617 -0.114709)
(0.292216 0.360242 -0.173909)
(0.415598 0.362486 -0.00916204)
(0.440923 0.351727 0.00502572)
(0.466121 0.392436 -0.0979367)
(0.503503 0.394616 -0.1111)
(0.31188 0.36009 -0.179661)
(0.347014 0.37271 -0.0936829)
(0.344169 0.364098 -0.166472)
(0.415104 0.377107 -0.175528)
(0.825568 0.307841 0.259625)
(0.873225 0.333618 0.293706)
(0.778386 0.281734 0.239137)
(0.854752 0.304338 0.257804)
(0.781665 0.316702 0.269027)
(0.89523 0.344877 0.294722)
(0.863273 0.345136 0.274825)
(0.788125 0.267025 0.211514)
(0.843354 0.289277 0.198144)
(0.824601 0.271957 0.171284)
(0.884459 0.334208 0.229881)
(0.737282 0.275606 0.214453)
(0.838749 0.324384 0.255066)
(0.796661 0.269056 0.177787)
(0.766518 0.287995 0.201417)
(0.722176 0.240779 0.167781)
(0.962057 0.38028 0.166838)
(0.910746 0.337437 0.132304)
(0.75811 0.259055 0.0764861)
(0.761815 0.25963 0.0870478)
(0.93824 0.402247 0.152962)
(0.698366 0.261576 0.0973456)
(0.681989 0.243876 0.0758288)
(0.910657 0.360977 0.152655)
(0.784212 0.314915 0.137018)
(0.797009 0.342366 0.115807)
(0.697811 0.309882 0.0922754)
(0.780226 0.364206 0.124116)
(0.724445 0.342942 0.100564)
(0.711994 0.325881 0.0695034)
(0.642909 0.281175 0.0374083)
(0.806849 0.374326 0.0993017)
(0.784736 0.36471 0.110092)
(0.630814 0.302183 0.067167)
(0.663736 0.273194 0.0780865)
(0.78189 0.16706 0.29363)
(0.772893 0.145685 0.255936)
(0.811243 0.221093 0.312594)
(0.850843 0.180561 0.26357)
(0.818895 0.163153 0.241548)
(0.927076 0.257361 0.323141)
(0.888624 0.207647 0.290638)
(0.799148 0.154329 0.260925)
(0.796538 0.158897 0.268938)
(0.88328 0.253984 0.304088)
(0.838441 0.205973 0.259534)
(0.850376 0.230629 0.311842)
(0.792228 0.199241 0.275354)
(0.878993 0.254688 0.343744)
(0.75686 0.153128 0.261784)
(0.778394 0.189798 0.284789)
(0.784642 0.13584 0.247524)
(0.778297 0.129022 0.208377)
(0.867509 0.219577 0.307136)
(0.784358 0.171715 0.244745)
(0.753285 0.128695 0.232387)
(0.9671 0.413179 0.344866)
(0.885134 0.382706 0.290698)
(0.99434 0.450142 0.317352)
(0.934463 0.424013 0.267049)
(0.84772 0.389191 0.252395)
(0.873504 0.401142 0.279692)
(1.03287 0.444646 0.339867)
(0.938357 0.432552 0.272022)
(0.868077 0.379935 0.29498)
(0.867508 0.38964 0.256651)
(1.02672 0.453646 0.376866)
(1.01367 0.43225 0.377668)
(0.935687 0.417327 0.304681)
(0.880284 0.388207 0.281299)
(0.90919 0.404397 0.320767)
(0.486743 0.321903 0.110867)
(0.527948 0.308375 0.132368)
(0.61933 0.344753 0.158912)
(0.551004 0.356474 0.11453)
(0.440203 0.323283 0.063318)
(0.453231 0.32793 0.0729218)
(0.50514 0.32011 0.1071)
(0.456064 0.330784 0.0694264)
(0.718749 0.176862 0.463855)
(0.724441 0.223031 0.543625)
(0.711735 0.176058 0.501313)
(0.780908 0.363865 0.546956)
(0.782043 0.352479 0.522432)
(0.731614 0.19989 0.468834)
(0.706833 0.167057 0.46158)
(0.783615 0.330956 0.545686)
(0.780038 0.315047 0.521124)
(0.741595 0.217089 0.543116)
(0.721662 0.178784 0.489148)
(0.809469 0.336207 0.589026)
(0.74514 0.197969 0.47043)
(0.489724 0.307434 -0.326273)
(0.423267 0.310309 -0.346666)
(0.567065 0.310306 -0.299084)
(0.496147 0.344555 -0.28304)
(0.468539 0.338857 -0.320305)
(0.57136 0.314072 -0.293224)
(0.566964 0.348713 -0.247127)
(0.955869 0.48822 0.556898)
(1.09973 0.500885 0.567926)
(1.07539 0.504107 0.567415)
(0.918541 0.488339 0.564921)
(0.894757 0.462307 0.542425)
(1.02386 0.491082 0.569891)
(1.08166 0.501164 0.578977)
(1.094 0.48373 0.562947)
(1.03274 0.484566 0.504256)
(1.08025 0.510758 0.531513)
(1.08146 0.513826 0.562065)
(1.04975 0.493107 0.548728)
(0.99425 0.482018 0.577336)
(1.0506 0.504958 0.58954)
(0.992061 0.471516 0.538983)
(1.08546 0.523844 0.589745)
(0.95399 0.502079 0.572134)
(0.94414 0.497877 0.569608)
(0.970531 0.472133 0.535918)
(1.1164 0.506752 0.555067)
(0.987418 0.486537 0.561421)
(0.472115 0.224985 0.293498)
(0.435972 0.182647 0.245666)
(0.434535 0.20964 0.224677)
(0.416449 0.193514 0.223361)
(0.523912 0.220167 0.326984)
(0.486065 0.181573 0.30347)
(0.548031 0.190364 0.321484)
(0.508463 0.178438 0.27741)
(0.512555 0.223644 0.303475)
(0.552885 0.230952 0.327987)
(0.453268 0.187233 0.235731)
(0.448577 0.208969 0.233754)
(0.401887 0.216967 0.183801)
(0.371959 0.192274 0.167735)
(0.563583 0.229151 0.360367)
(0.545594 0.182556 0.341422)
(0.566381 0.214341 0.351633)
(0.545009 0.178435 0.314369)
(0.440768 0.179543 0.224506)
(0.373571 0.190336 0.173347)
(0.422359 0.189615 0.219625)
(0.455587 0.32607 0.390671)
(0.415489 0.307012 0.366519)
(0.427493 0.289054 0.396787)
(0.338168 0.246893 0.223893)
(0.339037 0.228044 0.233901)
(0.443699 0.332074 0.378072)
(0.390814 0.324642 0.330539)
(0.344534 0.262705 0.258282)
(0.336564 0.236272 0.259356)
(0.377303 0.273321 0.35694)
(0.468346 0.278968 0.41645)
(0.445918 0.258737 0.398242)
(0.387695 0.270646 0.302318)
(0.369069 0.229169 0.281478)
(0.365212 0.25624 0.320021)
(0.397211 0.243625 0.345269)
(0.958258 0.291027 0.0593019)
(0.93093 0.281803 0.0202995)
(0.940979 0.265655 0.083431)
(1.07607 0.362495 0.113668)
(0.807912 0.218592 0.00333488)
(0.760267 0.184564 -0.00792154)
(0.826183 0.198268 -0.0208139)
(0.926789 0.280519 0.031764)
(0.961674 0.293177 0.0609641)
(0.920565 0.264963 0.0425935)
(0.953965 0.287691 0.0604786)
(0.813548 0.219464 -0.0118275)
(0.766173 0.176132 0.00227219)
(0.732847 0.152141 -0.0271724)
(0.814173 0.191242 -0.032308)
(0.741568 0.15565 -0.0679853)
(0.734365 0.130181 -0.0574333)
(0.757872 0.150699 -0.0280201)
(0.767887 0.183793 -0.0553307)
(0.83295 0.198031 0.0206787)
(0.339025 0.185516 0.329746)
(0.362842 0.201207 0.370532)
(0.382555 0.190097 0.388834)
(0.390588 0.175494 0.403624)
(0.327774 0.171234 0.314171)
(0.400008 0.296991 0.404847)
(0.395787 0.314729 0.404221)
(0.371211 0.225043 0.3673)
(0.392225 0.275743 0.41733)
(0.380802 0.251877 0.425)
(0.429229 0.236167 0.459335)
(0.477735 0.253736 0.490804)
(0.430521 0.248817 0.421986)
(0.459188 0.295664 0.456524)
(0.445171 0.287643 0.454365)
(0.773183 0.338277 0.383042)
(0.793475 0.350807 0.4182)
(0.904591 0.411887 0.429102)
(0.916205 0.403918 0.432012)
(0.959733 0.411329 0.471605)
(0.94575 0.430627 0.487021)
(0.771229 0.337096 0.392975)
(0.740278 0.315144 0.335967)
(0.833592 0.33421 0.354426)
(0.870313 0.340896 0.359263)
(0.861397 0.385351 0.470188)
(0.954763 0.424578 0.470349)
(0.94476 0.420251 0.489514)
(0.766857 0.323822 0.346889)
(0.865042 0.350491 0.355058)
(0.969106 0.43252 0.492403)
(0.7912 0.336429 0.378446)
(0.79995 0.326665 0.340799)
(0.813584 0.321888 0.325845)
(0.871339 0.350612 0.376025)
(0.838198 0.355197 0.361624)
(0.808365 0.339976 0.348065)
(0.737794 0.14682 0.463977)
(0.742364 0.159138 0.459783)
(0.776374 0.205604 0.517229)
(0.74698 0.163159 0.474702)
(0.730509 0.132321 0.388693)
(0.718858 0.0993087 0.372683)
(0.734238 0.153893 0.413378)
(0.843246 0.294167 0.564961)
(0.807756 0.234089 0.532875)
(0.730676 0.128831 0.394556)
(0.735576 0.106574 0.43551)
(0.798755 0.243518 0.482971)
(0.752342 0.157604 0.442615)
(0.806034 0.2397 0.482742)
(0.799544 0.224627 0.514406)
(0.685601 0.250629 0.455295)
(0.685124 0.245712 0.474743)
(0.729822 0.258111 0.475435)
(0.660408 0.220812 0.451801)
(0.679943 0.245556 0.439445)
(0.633751 0.209774 0.407117)
(0.740762 0.281057 0.463079)
(0.67056 0.270719 0.421295)
(0.704605 0.278627 0.476406)
(0.688879 0.27397 0.4319)
(0.629821 0.247144 0.387978)
(0.621791 0.201143 0.420121)
(0.641679 0.233974 0.40331)
(0.598641 0.184551 0.373091)
(0.633351 0.242264 0.421234)
(0.605968 0.239191 0.358175)
(0.69508 0.266602 0.424377)
(0.605208 0.20624 0.400191)
(0.613123 0.228936 0.389516)
(0.972624 0.41795 0.524098)
(0.976951 0.422277 0.536888)
(1.02182 0.530708 0.606959)
(0.998614 0.513821 0.595564)
(1.026 0.506243 0.581724)
(0.990095 0.425635 0.516663)
(0.989024 0.438003 0.52848)
(0.983831 0.469552 0.546829)
(0.959733 0.428044 0.526504)
(0.975391 0.409997 0.506136)
(0.988548 0.460532 0.561902)
(1.02348 0.528692 0.59807)
(0.975221 0.463419 0.579062)
(0.958302 0.478198 0.592848)
(0.997558 0.530383 0.61092)
(0.98627 0.46404 0.572608)
(1.0193 0.533498 0.619156)
(0.986608 0.534593 0.628883)
(0.81889 0.331463 0.313522)
(0.808302 0.345433 0.300831)
(0.939555 0.379312 0.391094)
(0.925925 0.380799 0.408312)
(0.914817 0.380814 0.3932)
(0.920073 0.38195 0.396452)
(0.889437 0.319838 0.264498)
(0.853974 0.302335 0.236889)
(0.814533 0.309161 0.242905)
(0.80921 0.299234 0.23949)
(0.996303 0.427294 0.382588)
(0.985275 0.413447 0.415531)
(0.836823 0.315717 0.29869)
(0.879268 0.349467 0.345521)
(0.807667 0.319525 0.294932)
(0.889292 0.35378 0.319153)
(0.844326 0.32347 0.290473)
(0.877696 0.31687 0.279395)
(0.913804 0.327359 0.275049)
(0.865773 0.33393 0.275943)
(0.814955 0.295455 0.228055)
(0.934759 0.381717 0.362327)
(0.760625 0.365135 0.548412)
(0.731182 0.331443 0.511985)
(0.705732 0.30377 0.536227)
(0.69393 0.303923 0.499338)
(0.77013 0.350903 0.582674)
(0.803973 0.375435 0.566279)
(0.771914 0.353949 0.535126)
(0.787909 0.362428 0.597141)
(0.781854 0.34853 0.563568)
(0.847224 0.405557 0.607946)
(0.82146 0.364173 0.592429)
(0.733211 0.306573 0.540062)
(0.689064 0.269263 0.490809)
(0.685522 0.293257 0.514939)
(0.657106 0.267186 0.509098)
(0.810273 0.350395 0.59557)
(0.763172 0.314424 0.569925)
(0.367851 0.238953 0.117284)
(0.405854 0.328182 0.221854)
(0.414491 0.340589 0.233295)
(0.412956 0.289461 0.149363)
(0.383049 0.260475 0.137356)
(0.353478 0.245175 0.150268)
(0.388646 0.3086 0.224475)
(0.367502 0.313912 0.238522)
(0.378052 0.307818 0.196365)
(0.324132 0.239023 0.195677)
(0.321945 0.222248 0.156968)
(0.328436 0.226887 0.156662)
(0.321558 0.235643 0.200455)
(0.335096 0.257362 0.172881)
(0.34862 0.24602 0.143259)
(0.818842 0.396313 0.442984)
(0.944329 0.439214 0.484422)
(0.772278 0.387976 0.41892)
(0.934059 0.450307 0.473206)
(0.76649 0.390664 0.436152)
(0.887577 0.420114 0.447546)
(0.837495 0.365706 0.421572)
(0.830399 0.308001 0.373974)
(0.805413 0.319538 0.398996)
(0.688699 0.334237 0.37128)
(0.928001 0.424697 0.458134)
(0.728222 0.287626 0.358057)
(0.792521 0.315322 0.377216)
(0.725824 0.352718 0.420965)
(0.862722 0.363204 0.409161)
(0.756548 0.325843 0.351492)
(0.833624 0.351849 0.393965)
(0.875888 0.38637 0.409788)
(0.785418 0.306513 0.355663)
(0.659293 0.322118 0.368488)
(0.680426 0.285097 0.335448)
(0.660807 0.262813 0.15307)
(0.711893 0.270286 0.200178)
(0.648253 0.278514 0.172372)
(0.596988 0.283294 0.171093)
(0.610111 0.275298 0.148249)
(0.49138 0.232816 0.0940904)
(0.416999 0.218704 0.0675046)
(0.54165 0.223894 0.119777)
(0.478117 0.225818 0.100084)
(0.591654 0.271563 0.169668)
(0.638275 0.275713 0.210598)
(0.441369 0.250441 0.088063)
(0.482758 0.242794 0.0973269)
(0.564264 0.232234 0.129984)
(0.541767 0.241484 0.152135)
(0.600981 0.224124 0.156905)
(0.609743 0.246812 0.182751)
(0.446523 0.236273 0.0965685)
(0.491191 0.253983 0.114257)
(0.636188 0.0810633 0.378926)
(0.599285 0.079987 0.365047)
(0.649476 0.11643 0.418656)
(0.648359 0.107965 0.399331)
(0.750723 0.175153 0.466338)
(0.764455 0.214159 0.484424)
(0.618592 0.123632 0.390312)
(0.579597 0.0903585 0.355931)
(0.59834 0.0644589 0.356915)
(0.586465 0.0648954 0.343284)
(0.739304 0.160599 0.46117)
(0.651945 0.148081 0.41404)
(0.604047 0.109105 0.387018)
(0.559763 0.0644345 0.330415)
(0.666619 0.113698 0.383767)
(0.655233 0.116941 0.404537)
(0.757467 0.149708 0.452736)
(0.606419 0.0797583 0.352521)
(0.651684 0.0901773 0.377381)
(1.14476 0.457723 0.28944)
(1.09535 0.420363 0.252219)
(1.12283 0.410483 0.287774)
(1.16812 0.484016 0.33328)
(1.20601 0.506424 0.362055)
(1.17073 0.488953 0.372992)
(1.1194 0.427755 0.377161)
(1.09118 0.40076 0.301631)
(1.13129 0.485609 0.322241)
(1.18135 0.486148 0.327382)
(1.15034 0.492782 0.361169)
(1.11654 0.416914 0.365139)
(1.1562 0.434602 0.340409)
(1.0838 0.427959 0.359005)
(1.11957 0.421331 0.323369)
(1.13611 0.489855 0.385521)
(1.15743 0.488122 0.340391)
(1.15869 0.466705 0.369334)
(1.13953 0.436088 0.322191)
(1.05974 0.443968 0.342286)
(1.16448 0.466173 0.324688)
(1.08174 0.434917 0.319871)
(0.384381 0.153124 0.393873)
(0.399603 0.145538 0.394849)
(0.410631 0.108276 0.383483)
(0.377105 0.124334 0.359584)
(0.534759 0.235806 0.493162)
(0.58255 0.204482 0.491134)
(0.529875 0.177559 0.479541)
(0.504961 0.206531 0.476945)
(0.404047 0.13533 0.405113)
(0.431945 0.115808 0.428821)
(0.422138 0.105416 0.402151)
(0.452889 0.115642 0.412881)
(0.397792 0.0999508 0.366605)
(0.426663 0.0959292 0.40834)
(0.55097 0.117187 0.488158)
(0.546956 0.220536 0.489154)
(0.549484 0.189448 0.471342)
(0.467219 0.199568 0.448072)
(0.515971 0.23493 0.494125)
(0.490307 0.100696 0.447999)
(0.506189 0.12615 0.454942)
(0.915592 0.456636 0.542864)
(0.915858 0.433939 0.518575)
(0.942272 0.420799 0.502299)