/*--------------------------------*- C++ -*----------------------------------*\
| =========                 |                                                 |
| \\      /  F ield         | OpenFOAM: The Open Source CFD Toolbox           |
|  \\    /   O peration     | Version:  v1612+                                |
|   \\  /    A nd           | Web:      www.OpenFOAM.com                      |
|    \\/     M anipulation  |                                                 |
\*---------------------------------------------------------------------------*/
FoamFile
{
    version     2.0;
    format      ascii;
    class       volVectorField;
    location    "50";
    object      wallShearStress;
}
// * * * * * * * * * * * * * * * * * * * * * * * * * * * * * * * * * * * * * //

dimensions      [0 2 -2 0 0 0 0];

internalField   uniform (0 0 0);

boundaryField
{
    WALL
    {
        type            calculated;
        value           nonuniform List<vector> 
1537
(
(-0.0170256 -0.0151803 0.00863546)
(-0.0192425 -0.0144034 0.00997012)
(-0.0125623 -0.00506221 -0.00392033)
(-0.0122359 -0.00428808 -0.00456876)
(-0.0125481 -0.0166031 0.00566518)
(-0.0120759 -0.0172501 0.00583438)
(-0.00848552 -0.0049897 -0.00473299)
(-0.00826651 -0.00490283 -0.00384834)
(-0.01811 -0.00789173 -0.0107842)
(-0.0196482 -0.00870547 -0.0107218)
(-0.0139428 -0.0186313 0.0176284)
(-0.016136 -0.015994 0.0187343)
(-0.0128178 -0.00468381 0.00289034)
(-0.0151751 -0.000520002 0.00363516)
(-0.00894375 -0.00941175 0.00383547)
(-0.00910375 -0.00815519 0.003826)
(-0.00863085 -0.00579401 -0.00159658)
(-0.00859738 -0.00577745 -0.00274331)
(-0.00928028 -0.00773946 0.00216591)
(-0.00933062 -0.00864427 0.00191965)
(-0.00880757 -0.0106712 0.00204275)
(-0.00805228 -0.0110437 0.00158639)
(-0.00744094 -0.0041428 -0.00357822)
(-0.0156399 -0.00571336 -0.0102419)
(-0.0162962 -0.00669479 -0.0100564)
(-0.0146486 0.00429208 -0.00215187)
(-0.0134366 0.00286636 -0.000925296)
(-0.016216 -0.0169529 0.00895814)
(-0.0173596 -0.0157668 0.0106817)
(-0.0225473 -0.0037622 -0.00253066)
(-0.0253557 -0.00312743 -0.000605201)
(-0.0173142 -0.0118071 0.00239023)
(-0.015826 -0.0109992 0.000532557)
(-0.0112777 0.00251509 -0.00147142)
(-0.0112761 0.00182847 -0.00263313)
(-0.0148896 0.00362681 0.0147882)
(-0.0135176 0.0018571 0.0169956)
(-0.0106927 -0.00550536 -0.00598461)
(-0.0096711 -0.00534716 -0.00559708)
(-0.0172184 -0.00841281 -0.00488011)
(-0.0157672 -0.00803795 -0.00459991)
(-0.0150087 -0.00598321 -0.00848707)
(-0.0147285 -0.00459858 -0.00925273)
(-0.00770123 -0.00447375 -0.00298563)
(-0.00738863 -0.00384908 -0.00230604)
(-0.00801805 -0.00468501 -0.00253077)
(-0.00775028 -0.00422413 -0.00339555)
(-0.00767436 -0.00420177 -0.00230432)
(-0.00765359 -0.00408624 -0.00271963)
(-0.0135627 -0.00321073 -0.00703609)
(-0.0120835 -0.0021291 -0.00636602)
(-0.0129259 -0.00356451 -0.00569334)
(-0.0140674 -0.00471388 -0.00600002)
(-0.0124097 -0.00235537 -0.0059616)
(-0.0137006 -0.00440243 -0.00598508)
(-0.00730009 -0.0105884 0.000632585)
(-0.0092568 -0.0100371 -0.00144371)
(-0.00894247 -0.0107189 0.000225352)
(-0.00796338 -0.00974094 -0.000415428)
(-0.00799802 -0.00972885 -0.00110417)
(-0.00774244 -0.00917804 -0.000535892)
(-0.00705587 -0.0100155 0.000239601)
(-0.0105783 -0.00321237 0.00957375)
(-0.010357 -0.00171662 0.0104013)
(-0.0100516 -0.00317413 0.011082)
(-0.0114446 -0.00233466 0.012594)
(-0.0112513 -0.000676331 0.0114436)
(-0.0117613 -0.000450518 0.012824)
(-0.00988272 -0.00863115 -0.0013664)
(-0.011108 -0.00839876 -0.00329436)
(-0.010938 -0.00814899 -0.00321586)
(-0.0103421 -0.00907178 -0.00133598)
(-0.0108837 -0.00877603 -0.00221149)
(-0.00970179 -0.0082447 -0.00205411)
(-0.0128344 -0.00896003 -0.00083736)
(-0.0143106 -0.0110863 0.000191796)
(-0.0131162 -0.00993784 -0.000664617)
(-0.0134338 -0.0123157 0.00137203)
(-0.0122142 -0.00976895 -0.000148825)
(-0.0132058 -0.0130652 0.00204853)
(-0.0126518 0.00492933 0.00194252)
(-0.012667 0.00356638 7.13979e-05)
(-0.0128749 0.0033171 0.000819594)
(-0.0117916 0.00311896 -0.000392133)
(-0.0120986 0.00229378 -0.000539943)
(-0.0126435 0.00453088 0.0019017)
(-0.0148841 0.00192007 0.00449631)
(-0.0140941 0.00236922 0.00348062)
(-0.0139092 0.000990976 0.00279936)
(-0.016051 0.00377255 0.00699367)
(-0.014904 0.00459733 0.00733242)
(-0.0148079 0.00400011 0.0057396)
(-0.0128291 0.00341006 0.0142218)
(-0.0127398 0.00481507 0.0133342)
(-0.013883 0.00479368 0.013585)
(-0.0131585 0.00373387 0.0147801)
(-0.0136873 0.00532675 0.0114377)
(-0.0130118 0.00563543 0.0119754)
(-0.0248408 -0.00932016 -0.00565562)
(-0.0247712 -0.00956517 -0.00704638)
(-0.0250433 -0.00911691 -0.00658176)
(-0.0278527 -0.00912819 -0.00634107)
(-0.0278079 -0.00889256 -0.00519929)
(-0.0254383 -0.00881946 -0.00495579)
(-0.0128151 0.00201275 0.000463705)
(-0.011746 -3.14583e-05 -0.000253842)
(-0.0122028 0.000879697 0.000447319)
(-0.0135413 0.00172438 -0.000895968)
(-0.0202964 -0.00439092 -0.010139)
(-0.0176139 -0.0036499 -0.00934765)
(-0.0198188 -0.00411366 -0.0102711)
(-0.0214455 -0.0027665 -0.010511)
(-0.0199447 -0.00287592 -0.0106429)
(-0.010511 -0.00142173 0.00169089)
(-0.00982896 -0.00187109 0.00118095)
(-0.0105194 -0.00125055 0.00268209)
(-0.0103435 -0.00218656 0.00211056)
(-0.00971997 -0.00254297 0.00141227)
(-0.00976562 -0.00261873 0.000923894)
(-0.0155738 -0.0134311 0.0040772)
(-0.0164753 -0.0130959 0.0045193)
(-0.0171948 -0.0141549 0.00595628)
(-0.0193582 -0.0155474 0.0100161)
(-0.016525 -0.0134988 0.00687939)
(-0.0154599 -0.0136908 0.00430184)
(-0.0148905 -0.0136222 0.00389421)
(-0.0194085 -0.0141086 0.00814114)
(-0.0113522 -0.00157023 0.0171921)
(-0.0121833 0.000818336 0.0158198)
(-0.0122889 0.00117959 0.0161046)
(-0.0116314 -0.000583694 0.0159188)
(-0.0112169 -0.00178731 0.0166605)
(-0.0120854 -0.000137885 0.0168471)
(-0.014762 -0.000345969 0.0191788)
(-0.0129384 -0.00166898 0.0204168)
(-0.0115437 -0.00257191 0.0215614)
(-0.007952 -0.00901904 0.0129071)
(-0.00850893 -0.00814177 0.0145725)
(-0.0092639 -0.00741479 0.0165858)
(-0.00774281 -0.00893101 0.0149721)
(-0.00700757 -0.00912062 0.0129349)
(-0.00868177 -0.0075546 0.0158297)
(-0.00884818 -0.00586202 0.0146469)
(-0.00897139 -0.00675863 0.0155421)
(-0.0104964 -0.00609108 0.0163915)
(-0.0100211 -0.00446167 0.0151265)
(-0.00986551 -0.00401248 0.0170369)
(-0.00880465 -0.00759683 0.00580047)
(-0.00936217 -0.00759593 0.00471991)
(-0.00906097 -0.00734507 0.00685432)
(-0.0091214 -0.00706836 0.00543428)
(-0.00895353 -0.00763399 0.00456183)
(-0.00958497 -0.00711219 0.00636841)
(-0.00881478 -0.00930133 0.00374126)
(-0.00894757 -0.0089301 0.00513076)
(-0.00901005 -0.00947838 0.00311116)
(-0.00845341 -0.00922159 0.00466864)
(-0.00847699 -0.0091643 0.00545272)
(-0.00875621 -0.00875178 0.00425485)
(-0.0107068 -0.00438927 0.0180553)
(-0.0113011 -0.00280087 0.0182096)
(-0.0106298 -0.00421391 0.0182363)
(-0.0124522 -0.000777058 0.0184411)
(-0.0118527 -0.00251197 0.0190375)
(-0.0116741 -0.00113754 0.0179714)
(-0.0064879 -0.0107164 0.0145637)
(-0.00719177 -0.0107461 0.0142283)
(-0.00629602 -0.0109546 0.010417)
(-0.00677752 -0.0112664 0.0105447)
(-0.00584353 -0.0109601 0.0128288)
(-0.00620777 -0.0101934 0.0117105)
(-0.00477074 -0.0110122 0.00589831)
(-0.00573794 -0.0103421 0.004661)
(-0.00555213 -0.011061 0.00589222)
(-0.00597833 -0.0103562 0.00427162)
(-0.00621315 -0.0106348 0.004074)
(-0.00480851 -0.0112941 0.00636037)
(-0.00494836 -0.0110544 0.00931003)
(-0.00544261 -0.0117464 0.0114713)
(-0.00534295 -0.0117285 0.00837948)
(-0.00480519 -0.0119076 0.0119264)
(-0.00486347 -0.0120774 0.0106048)
(-0.00492228 -0.0118112 0.00868509)
(-0.0293042 -0.00236343 -0.00925738)
(-0.0285878 -0.00171329 -0.00608572)
(-0.0305379 -0.00300374 -0.00845661)
(-0.0288805 -0.00140154 -0.00812346)
(-0.030341 -0.00211033 -0.00768461)
(-0.0222214 -0.00401304 -0.000939426)
(-0.023601 -0.0035386 0.000829329)
(-0.0203812 -0.00478968 -0.00175657)
(-0.0217415 -0.00328187 0.00166535)
(-0.0184706 -0.0044885 -0.00080177)
(-0.0202364 -0.00397331 0.000664202)
(-0.011415 -0.00278316 -0.00300504)
(-0.0122366 -0.00486118 -0.00276215)
(-0.0121623 -0.00466867 -0.00274013)
(-0.0116036 -0.00369892 -0.00315229)
(-0.0117013 -0.00393343 -0.00270345)
(-0.0116359 -0.00279967 -0.00276641)
(-0.0123744 -0.0061674 -0.00297418)
(-0.0135923 -0.0082313 -0.00227378)
(-0.0126524 -0.00935251 -0.00102854)
(-0.0122475 -0.00722561 -0.00210342)
(-0.0122719 -0.00549119 -0.00324828)
(-0.0125697 -0.00953438 -0.00085213)
(-0.0124403 -0.00545218 -0.00431021)
(-0.0134493 -0.00682099 -0.0034065)
(-0.0119346 -0.00362535 -0.00442664)
(-0.0134297 -0.00626493 -0.00445182)
(-0.0144431 -0.00732097 -0.0042456)
(-0.0139371 -0.00849745 -0.00219969)
(-0.0135935 -0.00820963 -0.00230482)
(-0.0128214 -0.00655783 -0.00316039)
(-0.0132006 -0.0177803 0.00737944)
(-0.0126063 -0.0184958 0.0087579)
(-0.0142852 -0.0183567 0.0102432)
(-0.0129541 -0.0170824 0.00785742)
(-0.012682 -0.0168709 0.00511426)
(-0.0141044 -0.0190242 0.0112762)
(-0.0135987 -0.0194449 0.0105088)
(-0.0124227 -0.0185047 0.00778996)
(-0.0141512 -0.0138426 0.00280333)
(-0.0149112 -0.0137564 0.00395988)
(-0.0147847 -0.0141478 0.00300739)
(-0.0143736 -0.0140582 0.005782)
(-0.0146477 -0.0141636 0.00334235)
(-0.015441 -0.0146834 0.00489061)
(-0.0128354 0.00153916 -0.00889874)
(-0.0130255 0.000760089 -0.00961448)
(-0.0133464 -0.000644327 -0.00961902)
(-0.0128338 0.000512727 -0.00888892)
(-0.0137222 -0.00119652 -0.00989177)
(-0.0134574 0.000200789 -0.0103304)
(-0.0140007 0.00282888 -0.0113085)
(-0.00750256 -0.00402198 -0.00335923)
(-0.00781962 -0.00441149 -0.00378034)
(-0.00911808 -0.00215996 0.000331073)
(-0.00805365 -0.00284907 -0.00094709)
(-0.008951 -0.00273702 -0.000735446)
(-0.00909048 -0.00284749 -7.94357e-06)
(-0.00798024 -0.00287101 -0.000551929)
(-0.00942973 -0.00227962 6.53227e-05)
(-0.0104828 -0.00311191 0.00500322)
(-0.0101085 -0.00313455 0.00419637)
(-0.0110237 -0.001388 0.00574612)
(-0.0108784 -0.00227498 0.00585935)
(-0.0112807 -0.00154384 0.0052864)
(-0.0102642 -0.00207934 0.00480555)
(-0.0081396 -0.00487562 -0.0029537)
(-0.00859422 -0.00549438 -0.00300352)
(-0.008644 -0.00538865 -0.00382765)
(-0.00832519 -0.00533723 -0.00265134)
(-0.00872483 -0.00505082 -0.00488843)
(-0.00835755 -0.00507137 -0.00355569)
(-0.00924784 -0.00535862 -0.00460781)
(-0.00808954 -0.00477243 -0.00427366)
(-0.00950622 -0.00433861 0.00327135)
(-0.00875673 -0.00453026 0.00248598)
(-0.00873376 -0.00475154 0.00168588)
(-0.00900163 -0.00471165 0.00159051)
(-0.00982885 -0.0043759 0.0031424)
(-0.00858241 -0.00413228 0.00234131)
(-0.00862321 -0.00525485 0.00053965)
(-0.00873972 -0.00504505 0.000303786)
(-0.00864141 -0.00548106 -0.000555645)
(-0.0083512 -0.00530191 -1.18303e-05)
(-0.00871337 -0.00571016 -0.000344966)
(-0.00827642 -0.0049518 -0.000190114)
(-0.0131047 -0.0196083 0.0135116)
(-0.012669 -0.0195877 0.0116046)
(-0.0116725 -0.0199443 0.0107685)
(-0.012431 -0.000993112 -0.00549545)
(-0.0117018 0.00026426 -0.00453506)
(-0.0116674 0.00205932 -0.00450201)
(-0.012093 -0.000795381 -0.00521023)
(-0.0129101 0.000787539 -0.00608352)
(-0.0114105 0.00194215 -0.00491069)
(-0.0128399 0.00681435 -0.00177568)
(-0.0114717 0.00536037 -0.00201809)
(-0.0122662 0.00450543 -0.00346051)
(-0.0124266 0.00524255 -0.00320535)
(-0.0122164 0.00529249 -0.00191793)
(-0.0126829 0.00391474 -0.00389203)
(-0.0107189 0.00497436 -7.11562e-05)
(-0.0118089 0.003579 -0.00179913)
(-0.0122159 0.00115561 -0.00194705)
(-0.0106537 0.00325426 -0.00187147)
(-0.0118565 0.00405422 -0.000410546)
(-0.0238044 -0.0101535 0.000624426)
(-0.0231914 -0.00909185 0.0027473)
(-0.0210096 -0.0099795 0.00132263)
(-0.0235934 -0.0100564 0.00365225)
(-0.0211393 -0.0100421 0.00266683)
(-0.0205377 -0.0102888 0.00095774)
(-0.0168213 -0.00852233 -0.0032505)
(-0.0173023 -0.00965887 -0.00116482)
(-0.0196163 -0.00993721 -0.00113687)
(-0.0191549 -0.00955135 -0.00273777)
(-0.0175706 -0.00911353 -0.00322475)
(-0.018812 -0.00997713 -0.000991937)
(-0.0142704 -0.00948313 -0.00126775)
(-0.014311 -0.00991044 -0.000267755)
(-0.0137381 -0.00928473 -0.00132796)
(-0.014148 -0.0099829 -0.000348198)
(-0.0152894 -0.0106626 0.00106888)
(-0.015429 -0.0120869 0.00308285)
(-0.0273275 -0.00880963 0.00135279)
(-0.0286704 -0.006784 0.00227502)
(-0.0284176 -0.00788889 0.00209204)
(-0.0272401 -0.00886361 0.000938365)
(-0.0292039 -0.00714472 0.00100159)
(-0.0275233 -0.00795208 0.00103581)
(-0.0296316 -0.00297006 -0.00531467)
(-0.0278583 -0.0027924 -0.00334915)
(-0.0305514 -0.00308099 -0.00404285)
(-0.0289725 -0.0031917 -0.00614811)
(-0.0262497 -0.00300215 -0.00464068)
(-0.0283022 -0.00297317 -0.00272942)
(-0.0224101 -0.00563692 0.00929085)
(-0.0207647 -0.00467772 0.00667868)
(-0.0204903 -0.00437564 0.00776425)
(-0.018452 -0.00473119 0.00630094)
(-0.0200347 -0.00565037 0.0093001)
(-0.0184529 -0.00478032 0.00810333)
(-0.021457 -0.00451073 0.00545117)
(-0.0221984 -0.00394111 0.00330509)
(-0.0242907 -0.00443999 0.00525422)
(-0.0188951 -0.00422114 0.00263208)
(-0.0200775 -0.00431503 0.00425816)
(-0.0208478 -0.00414702 0.0022995)
(-0.0259822 -0.00978298 0.0116941)
(-0.0241846 -0.00998045 0.0112439)
(-0.0225283 -0.00909415 0.0122104)
(-0.0197872 -0.0143553 0.0120484)
(-0.0212211 -0.011761 0.0136592)
(-0.0205706 -0.0132564 0.014686)
(-0.0204687 -0.0132526 0.0123171)
(-0.0229629 -0.0123982 0.0120829)
(-0.0190276 -0.0139088 0.0135037)
(-0.0192946 -0.0145637 0.0182987)
(-0.019378 -0.0125593 0.0178384)
(-0.0190182 -0.0108348 0.0172882)
(-0.0181226 -0.0124213 0.0173175)
(-0.0184549 -0.0138127 0.0184447)
(-0.0199113 -0.0120208 0.0177609)
(-0.0146936 -0.00553845 -0.00867298)
(-0.0141066 -0.00478 -0.00880548)
(-0.0132703 -0.00529623 -0.0079357)
(-0.0164018 -0.005258 -0.00930013)
(-0.0170679 -0.00334094 -0.010286)
(-0.0173315 -0.00361984 -0.0108129)
(-0.0159026 -0.00665228 -0.00780473)
(-0.0154916 -0.00642145 -0.00804708)
(-0.012858 -0.00765706 -0.00547643)
(-0.0136395 -0.00714836 -0.00599032)
(-0.0154607 -0.00706101 -0.0068278)
(-0.0141186 -0.00636442 -0.00742173)
(-0.0213812 -0.00507226 -0.00860165)
(-0.018935 -0.00497534 -0.0085284)
(-0.0210878 -0.00555552 -0.00863235)
(-0.0233163 -0.00337406 -0.00941035)
(-0.0205185 -0.00331673 -0.00871219)
(-0.017785 -0.00503872 -0.00783884)
(-0.0197377 -0.00717415 0.0131053)
(-0.0173508 -0.00570006 0.0102635)
(-0.0184807 -0.00559897 0.0101664)
(-0.0186619 -0.00704679 0.0121746)
(-0.0186663 -0.00596984 0.0114091)
(-0.0188909 -0.00751386 0.0134127)
(-0.0154585 0.00570278 -0.0102353)
(-0.0161978 0.00585263 -0.00999715)
(-0.0155118 0.00386223 -0.0111483)
(-0.0153847 0.00485713 -0.010471)
(-0.0158664 0.00565499 -0.00969592)
(-0.0145037 0.00490194 -0.00273459)
(-0.0138812 0.00385932 -0.00186002)
(-0.0138749 0.00338703 -0.00161244)
(-0.014701 0.00567407 -0.00270908)
(-0.01386 0.00466879 -0.00215414)
(-0.0155516 0.00605581 -0.0042984)
(-0.0149456 0.00589216 -0.00358594)
(-0.0151288 0.00530993 -0.00364593)
(-0.0149565 0.00479335 -0.00256556)
(-0.0126538 0.00359311 -0.00693968)
(-0.0124376 0.0023261 -0.00786617)
(-0.0125146 0.00410935 -0.00656673)
(-0.0126729 0.00203586 -0.00748104)
(-0.0126603 0.0040938 -0.00682686)
(-0.0129313 0.00297934 -0.00815878)
(-0.0128957 0.00496669 -0.00501143)
(-0.0129192 0.00615983 -0.0030225)
(-0.0131337 0.00641417 -0.00414217)
(-0.0128171 0.00684965 -0.00235669)
(-0.0140591 0.00585005 -0.00410103)
(-0.0132132 0.00572181 -0.00523137)
(-0.0134953 0.00549697 -0.00258183)
(-0.0133712 0.00618884 -0.00189652)
(-0.0128138 0.00574007 -0.0039877)
(-0.0134857 0.00631673 -0.00449988)
(-0.0143365 0.00581087 -0.00421081)
(-0.0138404 0.00587705 -0.00304494)
(-0.0322983 -0.00383575 -0.00630631)
(-0.0314237 -0.00402426 -0.0046182)
(-0.0317135 -0.00329764 -0.00673127)
(-0.0290768 -0.00291594 -0.00473292)
(-0.0306601 -0.00445424 -0.00321043)
(-0.0324536 -0.00410495 -0.00481731)
(-0.0324464 -0.00554281 -0.0048853)
(-0.0149096 -0.0056394 -0.00684617)
(-0.0145081 -0.00675317 -0.0050268)
(-0.0159502 -0.00714205 -0.00613807)
(-0.0145815 -0.0052752 -0.00680912)
(-0.0154648 -0.00785137 -0.00459993)
(-0.0219381 -0.00899753 -0.00455385)
(-0.0217315 -0.00916696 -0.00428579)
(-0.0196463 -0.00894383 -0.00637834)
(-0.0201118 -0.00887983 -0.00642105)
(-0.0219318 -0.0094407 -0.00622387)
(-0.0202597 -0.00896497 -0.00479962)
(-0.0141348 -0.00146401 -0.0115505)
(-0.0147178 -0.00274168 -0.012539)
(-0.0146546 -0.00267443 -0.012547)
(-0.0142643 4.25718e-05 -0.0125646)
(-0.013751 -0.00156825 -0.0119783)
(-0.0149307 -0.000628465 -0.0121327)
(-0.0152193 -0.0018636 -0.0136359)
(-0.0161578 -0.00651405 -0.00795651)
(-0.0163367 -0.0068587 -0.00913123)
(-0.0176682 -0.00776067 -0.00751128)
(-0.0167854 -0.00715998 -0.00780948)
(-0.0145978 -0.004284 -0.00961742)
(-0.014413 -0.00269509 -0.0103592)
(-0.0129731 -0.00253243 -0.0104135)
(-0.0138213 -0.00407795 -0.00982493)
(-0.0141778 -0.00333736 -0.0113149)
(-0.0129099 -0.00177206 -0.00999648)
(-0.0173222 -0.00742922 -0.0117469)
(-0.019915 -0.00886193 -0.0104666)
(-0.0159634 -0.00627924 -0.0117638)
(-0.0300257 -0.00099721 -0.008487)
(-0.0319558 -0.00129167 -0.00929351)
(-0.0306691 -0.000327635 -0.0115302)
(-0.0290983 -0.000476032 -0.00902133)
(-0.0302419 -0.000946862 -0.0102081)
(-0.0290059 -0.00121919 -0.0107144)
(-0.0263808 0.00153254 -0.0112671)
(-0.0299224 0.000594935 -0.0100041)
(-0.0286922 0.000880595 -0.0110066)
(-0.0303779 -0.00335364 -0.00761554)
(-0.0302999 -0.00256712 -0.00802605)
(-0.0308525 -0.00107622 -0.0090269)
(-0.0316502 -0.00374312 -0.00807763)
(-0.0320637 -0.00289094 -0.00944517)
(-0.0309256 -0.00138417 -0.00881895)
(-0.0286593 -0.00660988 -0.00698466)
(-0.0291114 -0.00776028 -0.00765046)
(-0.0310869 -0.00617692 -0.00691709)
(-0.0307029 -0.00541657 -0.00713471)
(-0.0306743 -0.00586293 -0.0075827)
(-0.0292139 -0.00691356 -0.00640797)
(-0.0142357 -0.00926215 -0.00482185)
(-0.0146755 -0.00896508 -0.00425115)
(-0.0137082 -0.00916182 -0.00429641)
(-0.0127842 -0.0082436 -0.00285899)
(-0.0104703 -0.00959584 -0.00212796)
(-0.0127004 -0.00991967 -0.00260895)
(-0.00863321 -0.00986906 0.0024019)
(-0.00918919 -0.00967831 0.00235831)
(-0.00938972 -0.0108644 0.00176139)
(-0.00924778 -0.0108814 0.000994565)
(-0.00966774 -0.0100517 0.00145222)
(-0.00998994 -0.0104296 0.000657532)
(-0.010966 -0.00911939 -0.00265613)
(-0.0122306 -0.00995484 -0.00262896)
(-0.0103063 -0.010456 -0.000921527)
(-0.0112985 -0.0109575 -0.00186967)
(-0.0102771 -0.0102941 -0.000635634)
(-0.0107372 -0.0104656 -0.00143611)
(-0.00529403 -0.0106968 0.00304952)
(-0.00570608 -0.0104484 0.0027358)
(-0.00571223 -0.0096574 0.00176525)
(-0.00618875 -0.0103707 0.00183527)
(-0.0055907 -0.0106436 0.00277661)
(-0.00632451 -0.0102023 0.00133623)
(-0.00925102 -0.00717375 -0.00122936)
(-0.0098637 -0.00702348 -0.00133357)
(-0.00834408 -0.00745761 -0.00111595)
(-0.00752396 -0.00831775 -0.000618111)
(-0.00636876 -0.00929002 0.000300983)
(-0.00630778 -0.00786218 -0.00021005)
(-0.00659459 -0.00840735 -0.000230421)
(-0.00598978 -0.00868549 0.000168411)
(-0.0058425 -0.00898625 0.000604691)
(-0.0152634 -0.00490046 -0.000746233)
(-0.0169511 -0.00428286 0.000497494)
(-0.0125739 -0.00546711 -0.000368706)
(-0.0140719 -0.00467859 0.00044446)
(-0.0139422 -0.00591233 -0.000947133)
(-0.0156291 -0.00431945 0.00074793)
(-0.0144457 0.00530527 0.011827)
(-0.0145961 0.0054289 0.0098334)
(-0.0143335 0.00477458 0.00918993)
(-0.0138955 0.00478164 0.00719198)
(-0.0148629 0.00514932 0.0115104)
(-0.0137008 0.0050272 0.00741646)
(-0.0135389 0.004086 0.00348575)
(-0.0127775 0.00259349 0.00182527)
(-0.0130863 0.00517551 0.005205)
(-0.013386 0.003076 0.00184505)
(-0.0133974 0.0030584 0.0028908)
(-0.0140073 0.0040269 0.00434764)
(-0.0146429 -0.0190562 0.0138411)
(-0.0149599 -0.0185496 0.0164808)
(-0.015424 -0.0178588 0.019173)
(-0.0174235 -0.0165221 0.0173603)
(-0.0159423 -0.01763 0.0155692)
(-0.0152179 -0.0178528 0.0143254)
(-0.0139616 -0.0193297 0.0147233)
(-0.0149527 -0.0166187 0.0161184)
(-0.00975659 -0.00485717 0.00111114)
(-0.0137291 -0.00435139 0.00433901)
(-0.011086 -0.00475671 0.00200291)
(-0.0111984 -0.00782609 -0.00444621)
(-0.0115226 -0.00627707 -0.00587368)
(-0.0114114 -0.00674792 -0.00557473)
(-0.0103826 -0.00731511 -0.00377644)
(-0.00943427 -0.00664399 -0.00306618)
(-0.00996681 -0.00644967 -0.00430684)
(-0.00888249 -0.00592426 0.000572185)
(-0.00894403 -0.00558751 0.00206105)
(-0.00840052 -0.0052565 0.00122144)
(-0.0091767 -0.00650977 0.00157247)
(-0.00880631 -0.00647696 0.00101735)
(-0.00900948 -0.00590663 0.00197063)
(-0.00963974 -0.00772207 -0.000284293)
(-0.0094826 -0.00847623 0.000238067)
(-0.00921097 -0.00709295 0.00116949)
(-0.00922007 -0.00725388 0.000502767)
(-0.00975776 -0.00839048 0.000832195)
(-0.0121624 0.0018755 0.0145212)
(-0.0126647 0.0011028 0.0135211)
(-0.0123924 -9.73727e-05 0.0145405)
(-0.0128818 0.00271357 0.0132491)
(-0.0121587 0.000279678 0.014697)
(-0.0126905 0.00245636 0.013077)
(-0.0100393 -0.00489179 0.00732793)
(-0.00935637 -0.00607326 0.00581849)
(-0.00942336 -0.00504619 0.00619717)
(-0.00965386 -0.00596878 0.00721844)
(-0.00978434 -0.00591673 0.00563617)
(-0.00945703 -0.00500291 0.00821334)
(-0.031669 -0.0026251 -0.00742211)
(-0.0307904 -0.0038548 -0.00709741)
(-0.0314801 -0.00486292 -0.00694344)
(-0.0330256 -0.00278375 -0.00810972)
(-0.0316571 -0.00310522 -0.0065129)
(-0.0319524 -0.00421403 -0.00626865)
(-0.00710451 -0.00348642 -0.00258418)
(-0.00753444 -0.00363666 -0.00206314)
(-0.00719203 -0.0031138 -0.00194123)
(-0.00728179 -0.0033191 -0.00145783)
(-0.00715846 -0.0033482 -0.00276496)
(-0.0126748 0.00334093 0.0115674)
(-0.0127896 0.0051941 0.00931617)
(-0.0126656 0.00425621 0.0100064)
(-0.0134121 0.00691309 0.00766422)
(-0.0129536 0.00698948 0.00631482)
(-0.0129021 0.00656125 0.0090585)
(-0.0127985 0.00538661 0.00939624)
(-0.0128476 0.0051499 0.0113594)
(-0.0127636 0.00351388 0.0115226)
(-0.0120949 0.00460294 0.0107568)
(-0.0120872 0.00695706 0.00239928)
(-0.0121258 0.00632303 0.00182456)
(-0.0126407 0.00686018 0.00439166)
(-0.0123417 0.00410087 0.00982921)
(-0.0126534 0.00388916 0.0088538)
(-0.0123539 0.00301626 0.0101773)
(-0.0125074 0.0033101 0.0107674)
(-0.0121832 0.00170366 0.0100999)
(-0.0086573 -0.00487885 0.00269281)
(-0.00908747 -0.00695096 0.000566997)
(-0.00843197 -0.0057719 7.46447e-05)
(-0.00907514 -0.00706848 4.15633e-06)
(-0.00894192 -0.00668742 -0.000241395)
(-0.00932798 -0.00706064 -0.00157289)
(-0.00862223 -0.00654304 -0.000689026)
(-0.00915417 -0.00653107 -0.00246284)
(-0.0120038 -0.00989034 -0.00295691)
(-0.0108151 -0.0105589 -0.00153531)
(-0.0103851 -0.00985633 -0.00123894)
(-0.0102699 -0.00999497 -0.000248688)
(-0.00945075 -0.00890906 0.00131569)
(-0.0095886 -0.00906774 0.000564068)
(-0.00933977 -0.00946651 0.000799076)
(-0.00932363 -0.00912067 0.00192211)
(-0.00972158 -0.0098173 0.00146412)
(-0.0111855 -0.00507631 0.00126773)
(-0.0128279 -0.0165043 0.00688372)
(-0.0117232 -0.0152641 0.00524831)
(-0.0118596 -0.0128071 0.00210147)
(-0.0126824 -0.0131354 0.00200706)
(-0.0118478 -0.014765 0.00292606)
(-0.0129561 -0.0156979 0.00444664)
(-0.011616 -0.0140524 0.00292518)
(-0.0117578 -0.0111195 0.000711293)
(-0.0131399 -0.0112781 0.000525873)
(-0.0121782 -0.00996143 -8.2486e-05)
(-0.0119126 -0.00696281 -0.00130428)
(-0.0128493 -0.00523301 -0.00178632)
(-0.0127525 -0.00611266 -0.00200837)
(-0.0127209 0.00589715 0.00317416)
(-0.0124825 0.00634929 0.00195061)
(-0.0131542 0.0064454 0.00311376)
(-0.012181 -0.0041563 -0.00201703)
(-0.0121823 -0.00243068 -0.00219748)
(-0.0129084 0.00219704 0.000433435)
(-0.0134637 0.0050925 0.00417541)
(-0.0132826 0.00509854 0.00326945)
(-0.0140342 0.00586827 0.00539503)
(-0.0129767 0.00641076 0.00577266)
(-0.0129368 0.00603661 0.00422229)
(-0.0128361 0.00585323 0.00437554)
(-0.0130514 0.00609522 0.00567663)
(-0.0128055 0.00600625 0.0102402)
(-0.01269 0.00685947 0.00907646)
(-0.013002 0.00694981 0.00782543)
(-0.0133875 0.0061557 0.007157)
(-0.0144813 -0.00738504 0.00111297)
(-0.0135944 -0.00226958 0.00131118)
(-0.014171 -0.00436564 0.00111009)
(-0.0166366 0.00150005 0.00566741)
(-0.0141542 -2.64955e-05 0.002748)
(-0.0136539 -0.000489407 0.00254874)
(-0.0155599 0.000498571 0.00353885)
(-0.0154283 0.00269286 0.00619817)
(-0.0159017 0.00311508 0.00880032)
(-0.0168748 0.00294098 0.00798876)
(-0.0156977 0.00369977 0.00778564)
(-0.0163357 0.00304834 0.00898981)
(-0.0122577 -0.00307444 0.00073904)
(-0.014246 -0.00138283 0.0014363)
(-0.0148894 -0.000119731 0.00167963)
(-0.0128864 0.00211015 0.00238101)
(-0.0136202 0.00577544 0.00655758)
(-0.0130757 0.00554899 0.00603769)
(-0.0140834 0.00492822 0.00636407)
(-0.0143315 -0.00469223 -0.000181378)
(-0.012583 -0.0080326 7.01007e-05)
(-0.0130557 -0.00889288 0.000154911)
(-0.012391 -0.0101412 0.000325471)
(-0.0119007 -0.0104977 0.000421156)
(-0.0124893 0.000677143 -0.000281954)
(-0.0126095 -0.000689925 -0.00132886)
(-0.0123636 -0.00242638 -0.00147948)
(-0.0135852 -0.000792359 0.000616483)
(-0.0130172 0.00151715 0.0013971)
(-0.0127071 0.000739082 0.000728347)
(-0.012428 -0.000349278 -0.000390284)
(-0.012945 -0.00856488 -0.000535269)
(-0.0128114 -0.00568997 -0.000122166)
(-0.0120499 -0.00247636 -1.54319e-05)
(-0.0116516 -0.00801454 -0.000539934)
(-0.0123483 -0.00580944 -0.00123588)
(-0.0126487 -0.00246544 -0.000694637)
(-0.0121848 -0.00383341 -0.00150881)
(-0.0123484 -0.00342322 -0.000759773)
(-0.0122533 -0.00600526 -0.00061239)
(-0.0152449 -0.00546783 -0.00189693)
(-0.0152946 -0.00603027 -0.00310726)
(-0.0164768 -0.00563761 -0.00274542)
(-0.017134 -0.00630509 -0.00415774)
(-0.0187757 -0.00533358 -0.00392862)
(-0.0124727 -0.00505292 0.000300544)
(-0.00699668 -0.00713386 -0.000171816)
(-0.0125405 -0.00610686 -0.00178049)
(-0.0122779 -0.00596283 -0.00137311)
(-0.0108395 -0.0067028 -0.000936469)
(-0.00785281 -0.00731227 -0.000873351)
(-0.00566376 -0.00910522 0.00115898)
(-0.0136281 -0.00790535 -0.00309019)
(-0.0119463 -0.00767713 -0.0022196)
(-0.00981876 -0.0105474 -2.37715e-05)
(-0.0125379 -0.00950228 -0.00342953)
(-0.0129933 -0.00947769 -0.00436827)
(-0.0128629 -0.00732368 -0.00263879)
(-0.0113018 -0.00875083 -0.0030211)
(-0.0155782 -0.00697764 -0.00426004)
(-0.0100196 -0.0112832 -0.00116425)
(-0.0100379 -0.0108801 -0.000451574)
(-0.00925395 -0.0111765 0.00037709)
(-0.0103105 -0.0105614 -9.3598e-05)
(-0.00915728 -0.0103268 9.71747e-05)
(-0.00766558 -0.0109839 0.00136213)
(-0.00884873 -0.0106089 0.00125786)
(-0.00791362 -0.0105381 0.0022937)
(-0.00828692 -0.011015 0.00327592)
(-0.0306204 -0.00559902 -0.00611926)
(-0.0315839 -0.0042036 -0.00748682)
(-0.0301813 -0.00472051 -0.00716267)
(-0.0224993 -0.00947066 -0.00906808)
(-0.0225825 -0.00981492 -0.0109799)
(-0.0269266 -0.00905162 -0.00758037)
(-0.0243371 -0.00912445 -0.00731649)
(-0.0242523 -0.0096632 -0.00896965)
(-0.0297821 -0.00790736 -0.00690656)
(-0.0272689 -0.00863137 -0.0071224)
(-0.021792 0.000652528 -0.0120198)
(-0.0202057 0.000783011 -0.0123125)
(-0.0208258 0.000695483 -0.0120027)
(-0.0260759 0.00215492 -0.0119119)
(-0.0238927 0.00173748 -0.0117987)
(-0.0136631 -0.00286975 -0.0103473)
(-0.0131131 -0.00335866 -0.00919745)
(-0.011899 -0.00247922 -0.00929429)
(-0.0115117 -0.00433437 -0.00772183)
(-0.0278036 0.00108063 -0.0106018)
(-0.0323037 0.000424527 -0.00964055)
(-0.0318961 -0.00160285 -0.00819289)
(-0.0320529 -0.00139105 -0.00791126)
(-0.0271676 0.000442959 -0.0118186)
(-0.0241997 -0.000173114 -0.0119055)
(-0.0254722 -7.93301e-05 -0.0138062)
(-0.0257416 0.000165341 -0.0114033)
(-0.0276902 -0.000812509 -0.0112525)
(-0.00843821 -0.00447003 -0.00565047)
(-0.00888997 -0.00414204 -0.00644701)
(-0.00785369 -0.00448518 -0.00416592)
(-0.0101602 -0.00501687 -0.00665422)
(-0.0099162 -0.00452139 -0.00717202)
(-0.011059 -0.00377721 -0.00825096)
(-0.00954247 -0.00461739 -0.00612132)
(-0.0101828 -0.00449467 -0.00695355)
(-0.0108642 -0.00440775 -0.00809677)
(-0.0212901 -0.00928292 -0.00925887)
(-0.0202366 -0.00900651 -0.00927893)
(-0.0191936 -0.00850989 -0.00894714)
(-0.0213429 -0.00976377 -0.00115074)
(-0.0210164 -0.00969785 -0.00264878)
(-0.0234345 -0.00984739 -0.00295133)
(-0.0209518 -0.00921497 -0.00316572)
(-0.022729 -0.00915265 -0.00305411)
(-0.0188552 -0.00829894 -0.00794114)
(-0.0189769 -0.0084038 -0.00775231)
(-0.0201836 -0.00886573 -0.00740037)
(-0.0205005 -0.00873142 -0.00887458)
(-0.029812 -0.00730267 -0.00604717)
(-0.0310337 -0.00652232 -0.00586317)
(-0.030821 -0.00551356 -0.00514158)
(-0.0334865 -0.00468058 -0.00531894)
(-0.032167 -0.00711318 -0.00592077)
(-0.0254864 -0.00856131 0.00836682)
(-0.0158155 -0.0083322 -0.00352865)
(-0.0149311 -0.00670401 -0.00518801)
(-0.0130062 0.00540139 -0.00464972)
(-0.0126235 0.00450181 -0.00628624)
(-0.0129432 0.00538484 -0.00527288)
(-0.012656 0.00464855 -0.00549107)
(-0.0130739 0.00379705 -0.00601685)
(-0.0116965 0.0017969 -0.00574976)
(-0.0123071 0.0024586 -0.00636816)
(-0.0129997 0.0045816 -0.00552415)
(-0.0124737 0.00307905 -0.00555153)
(-0.0150319 0.00527207 -0.0062603)
(-0.0151676 0.00538659 -0.00469546)
(-0.0157103 0.00535915 -0.00395045)
(-0.0155472 0.0063034 -0.0052157)
(-0.0159992 0.00560363 -0.00660987)
(-0.0153847 0.00541439 -0.00604226)
(-0.0153021 0.00557733 -0.00499683)
(-0.0169583 0.00586502 -0.00827106)
(-0.0158537 0.00569889 -0.0077379)
(-0.0142523 0.00433289 -0.00820414)
(-0.0155491 0.00602764 -0.00853863)
(-0.01423 0.00485473 -0.00748853)
(-0.0165033 0.00541693 -0.00944726)
(-0.0139612 0.00441666 -0.000453859)
(-0.0139036 0.0044982 -0.00126299)
(-0.0135168 0.00518875 -0.00217843)
(-0.0137938 0.00411906 -0.000964445)
(-0.0144274 0.00388931 -0.000275264)
(-0.0133581 0.003125 -0.000259652)
(-0.0141914 0.00317463 -0.00120818)
(-0.0140555 0.002252 -0.000134016)
(-0.0112645 -0.000966954 -0.000143383)
(-0.0166032 -0.00761541 -0.00712071)
(-0.0144477 -0.00846599 -0.0052952)
(-0.0147123 -0.00729183 -0.00634527)
(-0.0234339 -0.00324209 -0.00902243)
(-0.0143541 -0.00204608 -0.00992924)
(-0.0136208 -0.00285652 -0.00939537)
(-0.0131219 -0.00490789 -0.00862538)
(-0.0139318 -0.00603954 -0.00744954)
(-0.0123196 -0.00566409 -0.00738071)
(-0.0176314 -0.00255252 -0.0117162)
(-0.0190737 -0.00279408 -0.0118646)
(-0.0252237 -0.00202374 -0.00954535)
(-0.0260145 -0.000836362 -0.0100366)
(-0.0276484 -0.000930514 -0.00912244)
(-0.0278534 -0.000765852 -0.0097506)
(-0.0263177 -0.00195919 -0.00945813)
(-0.0194627 -0.00967334 0.0160082)
(-0.0200908 -0.00925169 0.0152457)
(-0.0178431 -0.0154843 0.0193507)