/*--------------------------------*- C++ -*----------------------------------*\
| =========                 |                                                 |
| \\      /  F ield         | OpenFOAM: The Open Source CFD Toolbox           |
|  \\    /   O peration     | Version:  v1612+                                |
|   \\  /    A nd           | Web:      www.OpenFOAM.com                      |
|    \\/     M anipulation  |                                                 |
\*---------------------------------------------------------------------------*/
FoamFile
{
    version     2.0;
    format      ascii;
    class       volVectorField;
    location    "200";
    object      U;
}
// * * * * * * * * * * * * * * * * * * * * * * * * * * * * * * * * * * * * * //

dimensions      [0 1 -1 0 0 0 0];

internalField   nonuniform List<vector> 
16888
(
(0.285989 -0.482558 -0.893371)
(0.201047 -0.127522 -0.995343)
(0.198153 -0.354982 -0.745235)
(0.21519 -0.38411 -0.7776)
(0.186953 -0.318445 -0.720948)
(0.205213 -0.369468 -0.78889)
(0.168472 -0.337296 -0.689856)
(0.179684 -0.329268 -0.701687)
(0.192305 -0.372404 -0.709645)
(0.223979 -0.406896 -0.753825)
(0.183641 -0.311337 -0.701534)
(0.182334 -0.347505 -0.698151)
(0.219097 -0.401142 -0.768551)
(0.214671 -0.401051 -0.734186)
(0.194621 -0.367686 -0.709346)
(0.199206 -0.386256 -0.715785)
(0.201562 -0.37997 -0.728908)
(0.230223 -0.419759 -0.802758)
(0.224988 -0.402915 -0.768461)
(0.0970043 -0.0525207 -0.534606)
(0.0858449 -0.0482198 -0.498621)
(0.100463 -0.0418372 -0.457301)
(0.163459 -0.102063 -0.693432)
(0.182598 -0.111348 -0.683057)
(0.177423 -0.114914 -0.701323)
(0.198133 -0.102709 -0.737731)
(0.102232 -0.0719374 -0.534912)
(0.11586 -0.0607111 -0.598552)
(0.104359 -0.0570772 -0.474502)
(0.112922 -0.0625123 -0.486069)
(0.183321 -0.0992073 -0.674652)
(0.172869 -0.0949573 -0.61541)
(0.163215 -0.0896637 -0.58694)
(0.125999 -0.0863779 -0.571292)
(0.111314 -0.0762018 -0.491729)
(0.129205 -0.0826384 -0.528075)
(0.126905 -0.0778443 -0.498965)
(0.0865465 -0.0366279 -0.305093)
(0.0933076 -0.0400361 -0.297552)
(0.0968372 -0.0828879 -0.458829)
(0.10228 -0.0818004 -0.453752)
(0.114363 -0.0837893 -0.51737)
(0.117774 -0.0891978 -0.521511)
(0.110351 -0.0481639 -0.4007)
(0.0977835 -0.0494387 -0.344227)
(0.107271 -0.0899732 -0.51584)
(0.115927 -0.0734087 -0.430714)
(0.104744 -0.0669695 -0.450838)
(0.107437 -0.0680612 -0.508184)
(0.0992723 -0.0752517 -0.502752)
(0.0901199 -0.0742196 -0.450396)
(0.0977292 -0.0567266 -0.453132)
(0.20269 -0.185751 -0.915287)
(0.16386 -0.134351 -0.864364)
(0.188967 -0.156383 -0.859714)
(0.221018 -0.185657 -0.91093)
(0.212035 -0.163005 -0.900243)
(0.200168 -0.202376 -0.920214)
(0.192771 -0.184145 -0.933507)
(0.230254 -0.202068 -0.869806)
(0.225252 -0.212485 -0.887446)
(0.223178 -0.174785 -0.851822)
(0.190366 -0.127329 -0.868616)
(0.180302 -0.128702 -0.859693)
(0.209839 -0.168947 -0.882967)
(0.232078 -0.197141 -0.879615)
(0.211821 -0.184059 -0.936264)
(0.225647 -0.200132 -0.894281)
(0.221841 -0.222571 -0.903854)
(0.177364 -0.164582 -0.942662)
(0.18135 -0.146078 -0.929107)
(0.222808 -0.164374 -0.848732)
(0.203899 -0.266581 -1.04708)
(0.203394 -0.259603 -1.05753)
(0.186577 -0.232505 -0.999612)
(0.19693 -0.236241 -0.985643)
(0.204477 -0.29392 -1.04494)
(0.193868 -0.261639 -1.05903)
(0.191487 -0.240087 -1.05482)
(0.164131 -0.210731 -0.958414)
(0.176431 -0.268438 -1.05842)
(0.149702 -0.162888 -0.971895)
(0.157621 -0.175965 -0.978898)
(0.16764 -0.22192 -1.09741)
(0.155173 -0.172434 -1.08203)
(0.169931 -0.196197 -1.09014)
(0.161134 -0.211627 -1.12044)
(0.173137 -0.246627 -1.13638)
(0.196879 -0.243478 -1.10543)
(0.153642 -0.245665 -1.01929)
(0.144821 -0.192496 -1.07649)
(0.147926 -0.172814 -1.03519)
(0.105261 -0.254914 -0.439047)
(0.101207 -0.252129 -0.428937)
(0.109435 -0.257245 -0.448514)
(0.11827 -0.252256 -0.465983)
(0.124328 -0.251441 -0.480407)
(0.140444 -0.258526 -0.532705)
(0.138338 -0.260697 -0.529658)
(0.110484 -0.258797 -0.463741)
(0.102676 -0.274525 -0.460371)
(0.11458 -0.277773 -0.485285)
(0.143194 -0.270294 -0.560851)
(0.112419 -0.282871 -0.486614)
(0.129692 -0.296073 -0.539285)
(0.131436 -0.279733 -0.527913)
(0.167567 -0.0946277 -0.799973)
(0.163326 -0.0979407 -0.824881)
(0.0919258 -0.0150455 -0.671088)
(0.0872993 -0.00100007 -0.716595)
(0.0893214 0.00690967 -0.667483)
(0.0954003 -0.0230857 -0.682314)
(0.109539 -0.0265052 -0.728577)
(0.0848501 -0.0164918 -0.66254)
(0.108983 -0.0356709 -0.743488)
(0.162437 -0.0703734 -0.85002)
(0.266941 -0.455024 -0.909717)
(0.273706 -0.461946 -0.931227)
(0.276702 -0.468745 -0.926947)
(0.270683 -0.470024 -0.914531)
(0.274579 -0.45342 -0.934364)
(0.262951 -0.442846 -0.905183)
(0.285836 -0.486854 -0.892693)
(0.285402 -0.482822 -0.897495)
(0.276542 -0.464613 -0.914003)
(0.270561 -0.453621 -0.898657)
(0.256833 -0.42696 -0.873308)
(0.26279 -0.445903 -0.879304)
(0.277496 -0.468741 -0.904448)
(0.126258 -0.206354 -0.405304)
(0.105543 -0.19175 -0.359185)
(0.0931896 -0.177997 -0.328741)
(0.112561 -0.181487 -0.355818)
(0.139745 -0.20565 -0.422244)
(0.0906506 -0.174334 -0.324761)
(0.113232 -0.176123 -0.352123)
(0.0831909 -0.15727 -0.29729)
(0.0836728 -0.159473 -0.295473)
(0.0883119 -0.163095 -0.303195)
(0.193772 -0.329413 -0.787208)
(0.217089 -0.343579 -0.848285)
(0.226507 -0.353736 -0.879787)
(0.209617 -0.342037 -0.848712)
(0.193379 -0.311229 -0.780428)
(0.235281 -0.384053 -0.865451)
(0.246817 -0.380705 -0.917377)
(0.223681 -0.366823 -0.85295)
(0.224303 -0.367027 -0.820498)
(0.243866 -0.387205 -0.914011)
(0.229714 -0.366513 -0.890509)
(0.241013 -0.375442 -0.930527)
(0.239707 -0.37108 -0.908164)
(0.258891 -0.413203 -0.940683)
(0.236859 -0.391196 -0.867735)
(0.237651 -0.399682 -0.872397)
(0.20703 -0.342832 -0.819377)
(0.220074 -0.376009 -0.829336)
(0.209613 -0.346677 -0.828243)
(0.127332 -0.190123 -0.374513)
(0.157561 -0.215674 -0.429709)
(0.194958 -0.245145 -0.524957)
(0.202672 -0.250931 -0.541546)
(0.138425 -0.204752 -0.407148)
(0.120606 -0.18891 -0.368153)
(0.130045 -0.198284 -0.392235)
(0.202996 -0.259677 -0.583297)
(0.218355 -0.268772 -0.584911)
(0.222758 -0.266839 -0.572882)
(0.157577 -0.220515 -0.453853)
(0.186833 -0.248975 -0.547936)
(0.191134 -0.245521 -0.498121)
(0.195571 -0.262577 -0.548236)
(0.178678 -0.24318 -0.504906)
(0.15516 -0.220472 -0.451126)
(0.128176 -0.199077 -0.42627)
(0.146253 -0.21776 -0.448973)
(0.146518 -0.306282 -0.586184)
(0.137497 -0.281348 -0.563235)
(0.153448 -0.312003 -0.598713)
(0.145081 -0.304715 -0.585934)
(0.132414 -0.269977 -0.53037)
(0.126874 -0.283619 -0.520697)
(0.129071 -0.265498 -0.523773)
(0.117299 -0.247124 -0.501653)
(0.119884 -0.273304 -0.481402)
(0.125775 -0.261429 -0.472815)
(0.114779 -0.230689 -0.450803)
(0.12501 -0.259344 -0.494308)
(0.111731 -0.249516 -0.447497)
(0.113934 -0.249966 -0.46004)
(0.108434 -0.243984 -0.453263)
(0.140346 -0.291799 -0.552624)
(0.134485 -0.270224 -0.513622)
(0.11475 -0.227124 -0.437461)
(0.246014 -0.472229 -0.896392)
(0.234528 -0.462038 -0.897949)
(0.257375 -0.492547 -0.914418)
(0.261458 -0.507342 -0.918387)
(0.23625 -0.454197 -0.860126)
(0.24002 -0.463318 -0.898543)
(0.262089 -0.503784 -0.930301)
(0.246907 -0.474279 -0.906274)
(0.214978 -0.425672 -0.826065)
(0.230057 -0.454721 -0.846719)
(0.268154 -0.514993 -0.93556)
(0.226336 -0.436235 -0.838621)
(0.23976 -0.4735 -0.864016)
(0.27259 -0.518393 -0.934536)
(0.215846 -0.422664 -0.834382)
(0.242538 -0.456194 -0.869803)
(0.263444 -0.508933 -0.943285)
(0.256319 -0.491225 -0.923908)
(0.25288 -0.490669 -0.891994)
(0.245304 -0.480372 -0.898271)
(0.246625 -0.458717 -0.886103)
(0.252608 -0.498486 -0.909146)
(0.254817 -0.494361 -0.878543)
(0.262726 -0.498105 -0.88893)
(0.268615 -0.506417 -0.895832)
(0.263548 -0.499535 -0.886626)
(0.275427 -0.532302 -0.935984)
(0.27247 -0.526181 -0.916531)
(0.281344 -0.542276 -0.926247)
(0.261081 -0.547003 -0.895534)
(0.284682 -0.551787 -0.956275)
(0.277009 -0.542759 -0.920748)
(0.280028 -0.540715 -0.931688)
(0.263918 -0.539486 -0.890326)
(0.263224 -0.550165 -0.908573)
(0.100112 -0.0999684 -0.306254)
(0.0977994 -0.0928521 -0.280234)
(0.10854 -0.0992139 -0.320086)
(0.10876 -0.111704 -0.316543)
(0.106287 -0.10563 -0.318275)
(0.156333 -0.160979 -0.448113)
(0.159641 -0.16388 -0.45605)
(0.154881 -0.172759 -0.452301)
(0.112431 -0.118102 -0.331878)
(0.108987 -0.121358 -0.332572)
(0.130495 -0.136506 -0.401352)
(0.107662 -0.0980021 -0.297823)
(0.0914322 -0.0916315 -0.262497)
(0.124604 -0.127913 -0.403019)
(0.124985 -0.141975 -0.39813)
(0.115886 -0.120278 -0.347484)
(0.127953 -0.138522 -0.418853)
(0.111596 -0.124099 -0.341133)
(0.101166 -0.108905 -0.299146)
(0.0970201 -0.0988614 -0.283673)
(0.103944 -0.0680132 -0.597104)
(0.109489 -0.0448527 -0.607342)
(0.111386 -0.0499749 -0.732828)
(0.0944856 0.00520054 -0.636282)
(0.0887475 0.000403291 -0.56128)
(0.118749 -0.0899205 -0.702073)
(0.11791 -0.0495338 -0.693394)
(0.0842155 0.0220218 -0.56616)
(0.124947 -0.104165 -0.761882)
(0.124041 -0.11737 -0.757696)
(0.13135 -0.0855928 -0.671559)
(0.0996251 -0.0087293 -0.610885)
(0.0980937 -0.0151411 -0.534454)
(0.0944116 0.00375438 -0.511612)
(0.239457 -0.396057 -0.842418)
(0.220152 -0.381286 -0.810781)
(0.204897 -0.360945 -0.783154)
(0.202663 -0.361204 -0.738464)
(0.202705 -0.362706 -0.74564)
(0.23125 -0.387122 -0.845427)
(0.247274 -0.399998 -0.853797)
(0.220696 -0.36295 -0.779774)
(0.206957 -0.365828 -0.765679)
(0.197769 -0.362472 -0.726965)
(0.206271 -0.357402 -0.796788)
(0.221383 -0.38248 -0.814264)
(0.194351 -0.343675 -0.71308)
(0.238352 -0.400548 -0.864482)
(0.254057 -0.402462 -0.875227)
(0.20099 -0.373344 -0.735379)
(0.207019 -0.369838 -0.781594)
(0.206283 -0.379486 -0.768719)
(0.203279 -0.373614 -0.74565)
(0.241511 -0.406875 -0.827814)
(0.216758 -0.389676 -0.752534)
(0.22485 -0.391352 -0.770843)
(0.0953444 -0.158194 -0.39927)
(0.0943344 -0.150132 -0.383258)
(0.103267 -0.169256 -0.401191)
(0.0993383 -0.144572 -0.360383)
(0.113245 -0.190367 -0.487178)
(0.121046 -0.210446 -0.521648)
(0.138702 -0.238443 -0.569086)
(0.127581 -0.230574 -0.565154)
(0.0952048 -0.161555 -0.416086)
(0.0931332 -0.152867 -0.40067)
(0.0991156 -0.173397 -0.413872)
(0.117213 -0.207434 -0.472132)
(0.100645 -0.156206 -0.397774)
(0.115571 -0.18392 -0.474203)
(0.119666 -0.217282 -0.501531)
(0.133015 -0.253988 -0.577158)
(0.0965745 -0.170273 -0.394414)
(0.0941478 -0.147764 -0.366822)
(0.098554 -0.139624 -0.393845)
(0.094471 -0.124227 -0.35396)
(0.115945 -0.216409 -0.484153)
(0.279471 -0.40252 -0.70309)
(0.28058 -0.411885 -0.694691)
(0.28524 -0.402844 -0.720053)
(0.277968 -0.410039 -0.757333)
(0.280008 -0.443904 -0.797193)
(0.297229 -0.445864 -0.775753)
(0.284249 -0.419637 -0.719216)
(0.292466 -0.429063 -0.742348)
(0.293919 -0.439059 -0.764328)
(0.295396 -0.442747 -0.761387)
(0.293153 -0.445658 -0.764811)
(0.294185 -0.446147 -0.762837)
(0.272205 -0.477263 -1.00409)
(0.276595 -0.468241 -1.00299)
(0.266044 -0.472649 -1.00853)
(0.282972 -0.466516 -1.02163)
(0.258809 -0.425554 -0.978482)
(0.242878 -0.409999 -0.956806)
(0.241528 -0.414544 -0.913771)
(0.271407 -0.438984 -0.95694)
(0.282084 -0.484409 -0.996492)
(0.275755 -0.452629 -0.963932)
(0.243343 -0.417221 -0.904377)
(0.240595 -0.414673 -0.915809)
(0.278003 -0.45333 -0.960736)
(0.267172 -0.447463 -0.942083)
(0.284663 -0.465174 -0.964531)
(0.28921 -0.48477 -0.98197)
(0.278392 -0.466968 -0.977687)
(0.258454 -0.461888 -0.985019)
(0.21343 -0.281683 -1.0454)
(0.239433 -0.296104 -1.04067)
(0.244686 -0.304632 -1.07619)
(0.229832 -0.278154 -1.08946)
(0.210629 -0.2719 -1.00508)
(0.208524 -0.28082 -0.967863)
(0.207903 -0.243975 -0.982823)
(0.210492 -0.251686 -0.985282)
(0.218842 -0.237254 -1.03424)
(0.201231 -0.242643 -1.05396)
(0.128356 -0.234399 -0.491482)
(0.116927 -0.236224 -0.482169)
(0.142409 -0.228756 -0.512614)
(0.133647 -0.231631 -0.495716)
(0.114569 -0.209758 -0.439156)
(0.113476 -0.204212 -0.41372)
(0.0844366 -0.188397 -0.331799)
(0.0847357 -0.187297 -0.331746)
(0.108116 -0.224315 -0.442238)
(0.101696 -0.192702 -0.395526)
(0.0857174 -0.182588 -0.358056)
(0.1158 -0.212197 -0.421456)
(0.095996 -0.218288 -0.41649)
(0.105841 -0.226271 -0.430469)
(0.0869871 -0.188662 -0.347105)
(0.0857678 -0.182396 -0.343096)
(0.0829646 -0.18405 -0.339179)
(0.0974192 -0.19378 -0.385655)
(0.0989559 -0.212812 -0.399829)
(0.173621 -0.101838 -0.583169)
(0.177549 -0.101441 -0.614376)
(0.175059 -0.112103 -0.610615)
(0.165881 -0.122696 -0.622933)
(0.163328 -0.105291 -0.553481)
(0.120132 -0.0657647 -0.448458)
(0.166071 -0.0776182 -0.553736)
(0.13395 -0.0564624 -0.385882)
(0.132591 -0.0677291 -0.459385)
(0.141903 -0.0952976 -0.509843)
(0.128718 -0.0727153 -0.482259)
(0.106262 -0.0488909 -0.392811)
(0.166372 -0.076547 -0.546702)
(0.139361 -0.0535821 -0.4587)
(0.135924 -0.0513356 -0.404893)
(0.123013 -0.0429159 -0.352195)
(0.12294 -0.0695218 -0.418327)
(0.119438 -0.0509735 -0.381064)
(0.165408 -0.277833 -0.609853)
(0.172655 -0.265749 -0.596509)
(0.174509 -0.276556 -0.618513)
(0.195728 -0.341248 -0.712279)
(0.187039 -0.324956 -0.698942)
(0.174696 -0.312575 -0.683539)
(0.182199 -0.316768 -0.691096)
(0.171754 -0.26081 -0.579264)
(0.166093 -0.279257 -0.611712)
(0.205021 -0.307833 -0.68036)
(0.207514 -0.325752 -0.704763)
(0.172805 -0.303761 -0.684435)
(0.190929 -0.271224 -0.640299)
(0.181911 -0.268662 -0.621552)
(0.178668 -0.302052 -0.671604)
(0.176747 -0.302826 -0.680463)
(0.196764 -0.295821 -0.660728)
(0.181248 -0.273437 -0.624712)
(0.173019 -0.284413 -0.640554)
(0.167109 -0.284671 -0.653216)
(0.260137 -0.329205 -0.660195)
(0.26492 -0.35812 -0.675388)
(0.278736 -0.392158 -0.708031)
(0.25921 -0.358562 -0.639849)
(0.271621 -0.381415 -0.743447)
(0.269618 -0.348876 -0.700592)
(0.24815 -0.332406 -0.63247)
(0.262318 -0.377977 -0.678186)
(0.242434 -0.337068 -0.590501)
(0.246536 -0.333432 -0.626228)
(0.231022 -0.307044 -0.581173)
(0.283179 -0.405688 -0.752675)
(0.247203 -0.330183 -0.634695)
(0.230568 -0.306083 -0.604547)
(0.28705 -0.384274 -0.735038)
(0.279117 -0.449059 -0.834826)
(0.279972 -0.456612 -0.830205)
(0.282152 -0.446608 -0.823702)
(0.281114 -0.427413 -0.835114)
(0.247551 -0.403249 -0.821647)
(0.271161 -0.445976 -0.833317)
(0.267943 -0.456488 -0.838263)
(0.281661 -0.429533 -0.811285)
(0.258326 -0.393923 -0.811654)
(0.234443 -0.391955 -0.805657)
(0.260121 -0.467129 -0.860529)
(0.2605 -0.399186 -0.805884)
(0.247519 -0.443041 -0.838887)
(0.230539 -0.38165 -0.797015)
(0.255575 -0.400653 -0.816358)
(0.0851598 -0.176713 -0.331004)
(0.0786717 -0.165638 -0.305694)
(0.0760551 -0.16915 -0.310834)
(0.0704686 -0.146814 -0.276903)
(0.0931071 -0.1962 -0.382084)
(0.0798601 -0.167297 -0.319327)
(0.0770135 -0.152688 -0.301575)
(0.0669079 -0.144075 -0.268066)
(0.0971716 -0.192233 -0.381763)
(0.0792076 -0.16649 -0.320634)
(0.072773 -0.163811 -0.301502)
(0.0970185 -0.183847 -0.379219)
(0.255662 -0.378895 -0.8916)
(0.237941 -0.348732 -0.810998)
(0.257031 -0.354562 -0.870879)
(0.250709 -0.330131 -0.818572)
(0.261943 -0.360653 -0.857701)
(0.238082 -0.321515 -0.767705)
(0.240311 -0.32529 -0.775023)
(0.233578 -0.319042 -0.769864)
(0.258636 -0.348658 -0.885766)
(0.266672 -0.378887 -0.904098)
(0.248679 -0.324666 -0.829479)
(0.210375 -0.343103 -0.849663)
(0.237024 -0.363816 -0.933366)
(0.231298 -0.359105 -0.923645)
(0.211242 -0.326827 -0.885013)
(0.237863 -0.298193 -0.960899)
(0.239995 -0.33842 -0.961551)
(0.189509 -0.28758 -0.94782)
(0.229299 -0.331885 -0.992993)
(0.228057 -0.339576 -0.9683)
(0.203798 -0.311444 -0.962323)
(0.241061 -0.314638 -1.02178)
(0.247621 -0.358069 -1.01002)
(0.20601 -0.306835 -1.01344)
(0.237549 -0.362101 -1.04019)
(0.260823 -0.371975 -1.03957)
(0.228105 -0.315476 -1.03217)
(0.267487 -0.391864 -1.03685)
(0.255678 -0.364141 -1.0264)
(0.268607 -0.372362 -1.03209)
(0.243574 -0.350092 -1.05142)
(0.248948 -0.310752 -1.04746)
(0.250577 -0.343106 -1.08395)
(0.242822 -0.356471 -1.0598)
(0.251661 -0.365427 -1.07357)
(0.170008 -0.0758164 -0.643893)
(0.177996 -0.0822447 -0.646126)
(0.172102 -0.0655399 -0.583671)
(0.166904 -0.0671844 -0.586462)
(0.176157 -0.0887827 -0.684125)
(0.165471 -0.0945228 -0.536677)
(0.161226 -0.0866939 -0.554292)
(0.179913 -0.0791124 -0.639055)
(0.183911 -0.0949609 -0.675982)
(0.167383 -0.050259 -0.503766)
(0.153048 -0.0731998 -0.458151)
(0.154564 -0.0710681 -0.470298)
(0.16483 -0.0685431 -0.524095)
(0.169474 -0.0698831 -0.536743)
(0.184645 -0.109561 -0.612598)
(0.181393 -0.093281 -0.628947)
(0.170809 -0.0541149 -0.533592)
(0.0750897 0.033246 -0.509035)
(0.0780514 0.0173069 -0.465663)
(0.0866523 0.0331032 -0.461777)
(0.0859239 0.0697462 -0.361703)
(0.047751 0.0446426 -0.466917)
(0.0491644 0.0468802 -0.449066)
(0.0754377 0.0274766 -0.453221)
(0.064393 0.0296247 -0.550634)
(0.0719745 0.0546892 -0.548455)
(0.0527717 0.0347433 -0.536834)
(0.0564277 0.0807873 -0.394737)
(0.0600072 0.0830407 -0.410026)
(0.0581753 0.0480979 -0.536601)
(0.092484 0.0243708 -0.286969)
(0.0839068 0.016849 -0.300514)
(0.0866797 0.00625351 -0.411592)
(0.0956375 0.0122434 -0.392499)
(0.0841709 0.0382326 -0.265395)
(0.0791721 0.0313944 -0.215889)
(0.0780477 0.0442468 -0.233436)
(0.0721447 0.0140981 -0.427961)
(0.0796174 0.0266575 -0.385734)
(0.0851651 -0.00270547 -0.398352)
(0.0876713 -0.0061627 -0.379726)
(0.0910765 -0.0102419 -0.406645)
(0.0972652 0.00353336 -0.370016)
(0.0891298 0.0321556 -0.355797)
(0.0871513 0.0273099 -0.246345)
(0.0848482 0.0392108 -0.216812)
(0.0836866 0.0478179 -0.204255)
(0.075463 0.0365303 -0.36287)
(0.0846863 0.0322543 -0.399035)
(0.0933088 0.0373915 -0.250631)
(0.0933611 0.022451 -0.278945)
(0.0768968 0.045555 -0.242097)
(0.095883 0.0457014 -0.273107)
(0.0847932 0.046662 -0.271558)
(0.175671 -0.0752871 -1.26445)
(0.171339 -0.112949 -1.25414)
(0.191761 -0.162 -1.2618)
(0.186183 -0.132216 -1.25294)
(0.19989 -0.1135 -1.25554)
(0.1763 -0.154023 -1.27779)
(0.208245 -0.0710915 -1.2853)
(0.143725 0.0185267 -1.3029)
(0.164094 -0.0424328 -1.30938)
(0.215998 -0.220181 -1.2343)
(0.214777 -0.237768 -1.20048)
(0.165253 -0.174608 -1.19384)
(0.19352 -0.219512 -1.21631)
(0.184949 -0.20788 -1.24347)
(0.184875 -0.148379 -1.25176)
(0.170283 -0.16087 -1.2127)
(0.20485 -0.182144 -1.2147)
(0.206901 -0.192927 -1.22631)
(0.211389 -0.202711 -1.22122)
(0.204455 -0.177785 -1.20039)
(0.197379 -0.19709 -1.23997)
(0.19838 -0.177536 -1.211)
(0.229763 -0.207301 -1.22665)
(0.200875 -0.177886 -1.26323)
(0.206454 -0.144313 -1.23734)
(0.144512 -0.175221 -0.769629)
(0.137937 -0.166898 -0.704537)
(0.131944 -0.133535 -0.694901)
(0.113246 -0.108304 -0.631368)
(0.116483 -0.100383 -0.57394)
(0.116322 -0.113571 -0.584351)
(0.146518 -0.209182 -0.775569)
(0.132658 -0.171465 -0.708059)
(0.110619 -0.111722 -0.553792)
(0.117101 -0.0823839 -0.539696)
(0.152226 -0.215705 -0.747286)
(0.145445 -0.225402 -0.759077)
(0.127372 -0.149009 -0.620979)
(0.153339 -0.196269 -0.731062)
(0.141333 -0.192793 -0.693393)
(0.13422 -0.163842 -0.680417)
(0.117276 -0.112061 -0.600906)
(0.131206 -0.15793 -0.639448)
(0.120088 -0.143606 -0.600145)
(0.103255 -0.181884 -0.407844)
(0.125367 -0.223719 -0.548659)
(0.118683 -0.228734 -0.528778)
(0.107689 -0.196845 -0.456485)
(0.100783 -0.178137 -0.391734)
(0.108411 -0.200049 -0.424757)
(0.123875 -0.213669 -0.529293)
(0.123482 -0.229437 -0.563983)
(0.125376 -0.246172 -0.537759)
(0.124526 -0.244788 -0.518177)
(0.111048 -0.22468 -0.473626)
(0.111555 -0.201574 -0.461506)
(0.12915 -0.2348 -0.558823)
(0.121079 -0.241991 -0.531744)
(0.121229 -0.243003 -0.520403)
(0.105468 -0.221645 -0.481403)
(0.264751 -0.4189 -0.989013)
(0.265235 -0.431975 -0.988261)
(0.277214 -0.43476 -0.992117)
(0.278127 -0.450341 -0.937822)
(0.260014 -0.430614 -0.907622)
(0.276769 -0.458941 -0.93335)
(0.265425 -0.450446 -0.918946)
(0.267849 -0.442309 -0.939849)
(0.281096 -0.443235 -0.954347)
(0.260997 -0.40858 -0.95829)
(0.286137 -0.443202 -0.941924)
(0.250914 -0.408875 -0.944144)
(0.278151 -0.452063 -0.955804)
(0.284213 -0.464671 -0.978236)
(0.284041 -0.464454 -0.983462)
(0.244408 -0.36859 -1.10589)
(0.204134 -0.341163 -1.0428)
(0.203514 -0.316776 -0.997349)
(0.248795 -0.360303 -1.06774)
(0.233881 -0.398021 -1.05673)
(0.189254 -0.285807 -0.945517)
(0.208798 -0.342836 -0.97884)
(0.203279 -0.330565 -0.949067)
(0.213618 -0.316156 -0.955814)
(0.223686 -0.318988 -1.0363)
(0.260991 -0.366786 -1.09995)
(0.259353 -0.391904 -1.09033)
(0.209943 -0.342816 -0.986383)
(0.235366 -0.376581 -1.03423)
(0.2665 -0.382003 -1.08158)
(0.143676 -0.203944 -0.83599)
(0.183849 -0.250332 -0.891696)
(0.175103 -0.20968 -0.847651)
(0.147618 -0.164077 -0.779216)
(0.132823 -0.161098 -0.816977)
(0.140716 -0.147397 -0.853363)
(0.156249 -0.177338 -0.839804)
(0.145738 -0.150471 -0.798462)
(0.159048 -0.194116 -0.858659)
(0.163344 -0.210843 -0.916784)
(0.144869 -0.195 -0.817663)
(0.136741 -0.159257 -0.801477)
(0.144874 -0.163391 -0.85331)
(0.157014 -0.171001 -0.899273)
(0.172922 -0.214486 -0.935255)
(0.165891 -0.178685 -0.940452)
(0.281717 -0.509574 -0.971982)
(0.274729 -0.49237 -0.940774)
(0.272967 -0.485848 -0.961426)
(0.269299 -0.48416 -0.955521)
(0.281016 -0.498824 -0.994356)
(0.276816 -0.49597 -0.955407)
(0.283709 -0.504277 -0.970814)
(0.279065 -0.504416 -0.978013)
(0.275812 -0.484752 -0.976619)
(0.27128 -0.470173 -0.965025)
(0.290527 -0.495103 -0.966304)
(0.271383 -0.480956 -0.923956)
(0.287029 -0.497188 -0.961366)
(0.287545 -0.490153 -0.957846)
(0.276136 -0.495222 -0.93347)
(0.268926 -0.488775 -0.913066)
(0.279194 -0.487524 -0.948337)
(0.276116 -0.500057 -0.980373)
(0.285661 -0.489066 -0.957731)
(0.274293 -0.485115 -0.945752)
(0.275222 -0.48032 -0.969934)
(0.227773 -0.41049 -1.03181)
(0.23642 -0.417116 -1.0118)
(0.246957 -0.434659 -1.07099)
(0.244864 -0.430665 -1.10056)
(0.241997 -0.414641 -1.07334)
(0.254536 -0.43735 -1.06942)
(0.250737 -0.453262 -1.06414)
(0.256041 -0.464901 -1.04471)
(0.238161 -0.437826 -1.07041)
(0.233776 -0.403103 -1.02934)
(0.23217 -0.405127 -1.02351)
(0.256279 -0.452916 -1.08256)
(0.255207 -0.429371 -1.05613)
(0.252813 -0.452983 -1.07881)
(0.247578 -0.445066 -1.04807)
(0.251559 -0.469969 -1.03949)
(0.238469 -0.40196 -1.0134)
(0.256756 -0.460316 -1.04628)
(0.248548 -0.475733 -1.05526)
(0.250696 -0.457688 -1.06398)
(0.253538 -0.429653 -1.03537)
(0.11073 -0.303369 -0.444813)
(0.0995282 -0.278603 -0.404353)
(0.117673 -0.297335 -0.475644)
(0.129626 -0.313946 -0.512154)
(0.0999257 -0.285735 -0.425267)
(0.10651 -0.2955 -0.436202)
(0.0928092 -0.256008 -0.369223)
(0.113322 -0.288075 -0.470364)
(0.13006 -0.324615 -0.525613)
(0.103313 -0.264345 -0.409874)
(0.10755 -0.290794 -0.446973)
(0.0912518 -0.257465 -0.375413)
(0.0875103 -0.239754 -0.341786)
(0.101397 -0.269564 -0.411191)
(0.0921826 -0.258777 -0.391757)
(0.091946 -0.246338 -0.37312)
(0.0953747 -0.263359 -0.413387)
(0.25203 -0.446092 -0.747685)
(0.259869 -0.445196 -0.752393)
(0.239516 -0.430948 -0.749918)
(0.276025 -0.485528 -0.856422)
(0.278759 -0.498442 -0.865252)
(0.282976 -0.476725 -0.820436)
(0.283848 -0.474163 -0.825077)
(0.26854 -0.464796 -0.775999)
(0.261595 -0.440985 -0.738798)
(0.28026 -0.444602 -0.816088)
(0.284675 -0.440691 -0.801882)
(0.270643 -0.456409 -0.832489)
(0.274061 -0.491865 -0.862896)
(0.285366 -0.497423 -0.88826)
(0.278236 -0.470308 -0.805142)
(0.274489 -0.452192 -0.835109)
(0.279387 -0.447319 -0.794492)
(0.272389 -0.473186 -0.886075)
(0.27092 -0.479413 -0.871093)
(0.254964 -0.445961 -0.82733)
(0.229387 -0.395677 -0.730473)
(0.24384 -0.412419 -0.78818)
(0.252078 -0.448746 -0.837319)
(0.278001 -0.472009 -0.903522)
(0.276915 -0.471076 -0.888192)
(0.241377 -0.426344 -0.759635)
(0.244928 -0.416001 -0.769727)
(0.281815 -0.499709 -0.91438)
(0.281069 -0.496194 -0.891571)
(0.2689 -0.472804 -0.923391)
(0.274238 -0.489768 -0.887535)
(0.27092 -0.466403 -0.906878)
(0.264279 -0.457148 -0.884789)
(0.244686 -0.42874 -0.780229)
(0.274963 -0.492014 -0.905819)
(0.275978 -0.486531 -0.925218)
(0.131233 -0.171559 -0.430899)
(0.127922 -0.166583 -0.405267)
(0.148031 -0.182326 -0.462093)
(0.141016 -0.180071 -0.436406)
(0.174893 -0.211016 -0.552499)
(0.169761 -0.20826 -0.543542)
(0.148526 -0.174085 -0.467854)
(0.141078 -0.170124 -0.439157)
(0.179417 -0.217576 -0.502109)
(0.166918 -0.199283 -0.518886)
(0.161105 -0.192474 -0.5089)
(0.204813 -0.239843 -0.614295)
(0.197879 -0.23655 -0.610738)
(0.148265 -0.190042 -0.450584)
(0.132077 -0.17437 -0.411967)
(0.0930345 -0.133315 -0.306518)
(0.0909444 -0.123924 -0.282342)
(0.128326 -0.15566 -0.360383)
(0.111169 -0.147307 -0.351421)
(0.124095 -0.153215 -0.336504)
(0.0902284 -0.126975 -0.281418)
(0.164555 -0.210749 -0.487902)
(0.172718 -0.215809 -0.496065)
(0.105322 -0.140943 -0.329224)
(0.101696 -0.138725 -0.314037)
(0.132497 -0.174245 -0.413125)
(0.105317 -0.149293 -0.328758)
(0.133194 -0.175422 -0.392595)
(0.13432 -0.183757 -0.428032)
(0.107052 -0.153192 -0.346682)
(0.236698 -0.430035 -0.777236)
(0.252715 -0.428911 -0.824601)
(0.218542 -0.375259 -0.783485)
(0.232331 -0.429711 -0.774064)
(0.252474 -0.443895 -0.816651)
(0.200806 -0.358752 -0.750529)
(0.217499 -0.398131 -0.746408)
(0.217911 -0.368671 -0.799046)
(0.217247 -0.388194 -0.794007)
(0.215555 -0.360486 -0.794155)
(0.189981 -0.346072 -0.724994)
(0.210328 -0.383237 -0.746619)
(0.197123 -0.38783 -0.714661)
(0.224476 -0.428586 -0.753477)
(0.237552 -0.416528 -0.804701)
(0.207986 -0.375987 -0.736212)
(0.214875 -0.404326 -0.756525)
(0.1954 -0.348917 -0.741022)
(0.199638 -0.117217 -0.737093)
(0.199607 -0.114387 -0.773472)
(0.18568 -0.09246 -0.75208)
(0.176297 -0.08047 -0.648934)
(0.165243 -0.0648401 -0.553721)
(0.216402 -0.179903 -1.11651)
(0.211954 -0.190039 -1.1368)
(0.217064 -0.199806 -1.12198)
(0.20198 -0.239763 -1.07243)
(0.237905 -0.263156 -1.12507)
(0.198005 -0.194238 -1.15523)
(0.200978 -0.249462 -1.13959)
(0.181049 -0.218209 -1.12914)
(0.225723 -0.293964 -1.12084)
(0.201888 -0.213708 -1.18588)
(0.193254 -0.221717 -1.18054)
(0.228149 -0.230765 -1.16102)
(0.208496 -0.255984 -1.1204)
(0.177171 -0.21569 -1.10573)
(0.219417 -0.29315 -1.12172)
(0.221529 -0.260258 -1.10327)
(0.217145 -0.259669 -1.17769)
(0.188906 -0.252255 -1.11166)
(0.213759 -0.271793 -1.16904)
(0.259375 -0.517645 -0.831475)
(0.259584 -0.531019 -0.843156)
(0.272123 -0.528705 -0.898499)
(0.270374 -0.52876 -0.905817)
(0.255643 -0.524332 -0.850441)
(0.252099 -0.505098 -0.802123)
(0.252324 -0.485287 -0.780715)
(0.255068 -0.510082 -0.800221)
(0.244966 -0.490142 -0.771078)
(0.269061 -0.507921 -0.809154)
(0.240267 -0.476857 -0.76332)
(0.279229 -0.513657 -0.88371)
(0.272823 -0.519409 -0.896345)
(0.279217 -0.51438 -0.864058)
(0.278485 -0.51586 -0.862027)
(0.272112 -0.529319 -0.916105)
(0.260531 -0.513191 -0.854154)
(0.273976 -0.499833 -0.803497)
(0.267498 -0.497386 -0.817284)
(0.267358 -0.504213 -0.792997)
(0.276436 -0.511493 -0.882441)
(0.268912 -0.52543 -0.903785)
(0.271753 -0.514397 -0.877577)
(0.233349 -0.370494 -0.823262)
(0.212485 -0.356048 -0.795965)
(0.256909 -0.440395 -0.835926)
(0.271815 -0.457947 -0.874176)
(0.227711 -0.380611 -0.82538)
(0.267887 -0.449553 -0.892383)
(0.240475 -0.401804 -0.859215)
(0.246248 -0.434364 -0.81885)
(0.260426 -0.443774 -0.881614)
(0.246931 -0.432777 -0.823452)
(0.263094 -0.438428 -0.90062)
(0.267026 -0.456114 -0.839923)
(0.264232 -0.425976 -0.905887)
(0.172476 -0.0992678 -1.23393)
(0.1278 -0.0390618 -1.20077)
(0.198021 -0.0726858 -1.26057)
(0.146003 0.0133742 -1.31067)
(0.166378 -0.0368946 -1.28411)
(0.139007 -0.0696637 -1.23372)
(0.0995208 -0.0386447 -1.20384)
(0.147869 -0.0206192 -1.23684)
(0.170094 -0.0420763 -1.20926)
(0.200056 -0.0665098 -1.22418)
(0.10233 -0.0112904 -1.22984)
(0.178785 -0.0119954 -1.21723)
(0.187843 0.0309951 -1.22015)
(0.143157 0.0145092 -1.25918)
(0.167032 0.0297299 -1.25222)
(0.267492 -0.44427 -1.01403)
(0.274334 -0.452831 -1.04343)
(0.275434 -0.459206 -1.03952)
(0.27599 -0.448621 -1.04206)
(0.252609 -0.443573 -1.06817)
(0.284313 -0.445126 -1.01103)
(0.279792 -0.461857 -0.996123)
(0.26797 -0.436048 -1.02884)
(0.260082 -0.434444 -1.03394)
(0.270422 -0.463311 -1.02159)
(0.255648 -0.442743 -0.991478)
(0.286889 -0.466388 -1.02286)
(0.281861 -0.417731 -1.01344)
(0.273808 -0.443389 -0.97816)
(0.272367 -0.445213 -1.00095)
(0.261483 -0.442801 -0.990563)
(0.26736 -0.455055 -0.987518)
(0.25934 -0.440578 -0.978254)
(0.110801 -0.181067 -0.418091)
(0.0990732 -0.172022 -0.372611)
(0.101828 -0.187822 -0.414131)
(0.105989 -0.188645 -0.435318)
(0.0979907 -0.184038 -0.38561)
(0.111809 -0.212272 -0.448958)
(0.104866 -0.19811 -0.407061)
(0.110455 -0.213076 -0.447765)
(0.102111 -0.196324 -0.408845)
(0.122433 -0.216797 -0.474716)
(0.114797 -0.206808 -0.481996)
(0.108749 -0.199372 -0.441706)
(0.10823 -0.203546 -0.46791)
(0.100568 -0.190107 -0.398565)
(0.11433 -0.216565 -0.4871)
(0.071317 0.122442 -0.501655)
(0.0495952 0.157026 -0.401554)
(0.0408895 0.170205 -0.298856)
(0.0623666 0.0982544 -0.678336)
(0.0563618 0.171788 -0.581851)
(0.0577497 0.11155 -0.43252)
(0.0692069 0.0769582 -0.561704)
(0.0443976 0.163243 -0.386341)
(0.06961 0.161986 -0.52098)
(0.024292 0.200891 -0.422493)
(0.0666629 0.0459636 -0.732597)
(0.0760915 0.0775927 -0.689189)
(0.0868319 0.00480558 -0.703833)
(0.0851744 0.0443168 -0.703757)
(0.0752225 0.0620222 -0.555475)
(0.0692197 0.0767114 -0.583201)
(0.0533911 0.116984 -0.431512)
(0.0386173 0.163975 -0.440731)
(0.0885852 0.086309 -0.617574)
(0.0611514 0.0982463 -0.486231)
(0.0651789 0.134948 -0.500053)
(0.026541 0.155698 -1.05774)
(-0.06026 0.15671 -0.95002)
(0.0835861 0.0625884 -1.05922)
(0.0422264 0.127412 -0.877149)
(0.0956055 0.057595 -1.01212)
(0.070246 0.113937 -0.879297)
(0.0388477 0.0714612 -1.11007)
(0.0742252 0.0820061 -1.13353)
(-0.057836 0.213602 -0.858584)
(0.148039 0.11754 -1.12396)
(-0.0406338 0.259367 -0.861974)
(0.143645 0.0148573 -1.06848)
(0.117135 0.0165804 -1.09036)
(0.0267147 0.14665 -0.840293)
(0.0650492 0.12554 -0.972642)
(0.165283 -0.117017 -0.742607)
(0.178427 -0.130971 -0.719511)
(0.169246 -0.136877 -0.729539)
(0.180618 -0.127518 -0.711898)
(0.108608 -0.0706366 -0.602931)
(0.0842526 -0.0518674 -0.527763)
(0.159908 -0.0935558 -0.716047)
(0.127953 -0.0729229 -0.641898)
(0.129019 -0.0918763 -0.601783)
(0.130848 -0.0979184 -0.615463)
(0.10664 -0.0828911 -0.576747)
(0.122663 -0.07866 -0.651922)
(0.162273 -0.115862 -0.750738)
(0.0828422 -0.058116 -0.499085)
(0.10598 -0.0781803 -0.534772)
(0.217725 -0.373006 -0.765179)
(0.227035 -0.355396 -0.751882)
(0.229013 -0.371103 -0.761593)
(0.235143 -0.388626 -0.772849)