/*--------------------------------*- C++ -*----------------------------------*\
| =========                 |                                                 |
| \\      /  F ield         | OpenFOAM: The Open Source CFD Toolbox           |
|  \\    /   O peration     | Version:  v1612+                                |
|   \\  /    A nd           | Web:      www.OpenFOAM.com                      |
|    \\/     M anipulation  |                                                 |
\*---------------------------------------------------------------------------*/
FoamFile
{
    version     2.0;
    format      ascii;
    class       volVectorField;
    location    "200";
    object      wallShearStress;
}
// * * * * * * * * * * * * * * * * * * * * * * * * * * * * * * * * * * * * * //

dimensions      [0 2 -2 0 0 0 0];

internalField   uniform (0 0 0);

boundaryField
{
    WALL
    {
        type            calculated;
        value           nonuniform List<vector> 
1500
(
(-0.0127659 0.00983244 0.0308629)
(-0.0136349 0.0093596 0.0342607)
(-0.00201622 0.00149961 0.00428268)
(-0.00215385 0.00122117 0.00416353)
(-0.00132101 0.00459111 0.00625533)
(-0.00149575 0.00479742 0.00641871)
(-0.00247881 -0.000695323 0.00590889)
(-0.00246217 -0.000548589 0.00498443)
(-0.0012343 0.00384648 0.00574849)
(-0.00136573 0.00347951 0.00547353)
(-0.00184239 0.00273148 0.00542467)
(-0.00165476 0.00319649 0.0055699)
(-0.00144872 0.00339341 0.00557338)
(-0.00153449 0.0036567 0.00579585)
(-0.00228482 0.00260031 0.00639769)
(-0.00247109 0.00261996 0.00702911)
(-0.00263154 -0.00272805 0.0036654)
(-0.00274542 -0.00241197 0.00293422)
(-0.00174684 0.00201108 0.00465219)
(-0.00201299 0.00188014 0.00473147)
(-0.00482073 0.007104 0.010161)
(-0.00463352 0.0100678 0.0131781)
(-0.00477789 0.00910434 0.014264)
(-0.011895 0.0122228 0.0312781)
(-0.0101458 0.0129729 0.0290253)
(0.000547064 0.00398914 0.0290768)
(-0.02227 -0.0109075 0.045628)
(-0.0215 -0.00512697 0.0416946)
(-0.014167 0.00448326 0.0322406)
(-0.0152078 0.000529409 0.0320142)
(-0.00805165 0.0154836 0.0260212)
(-0.008326 0.0163466 0.0277835)
(-0.00654684 0.0164216 0.0248268)
(-0.010008 0.0152232 0.0327191)
(-0.0111597 0.0141733 0.0313214)
(-0.00218662 -0.00406501 0.00299866)
(-0.00205073 -0.00510283 0.0042795)
(-0.00216748 -0.0042106 0.00426113)
(-0.00213764 -0.00477367 0.00360647)
(-0.00230822 -0.00352339 0.00315639)
(-0.00230238 -0.00357719 0.00369099)
(-0.00270921 -0.000536624 0.00317042)
(-0.00276996 -0.000991032 0.00286365)
(-0.00271955 -0.000813248 0.00349186)
(-0.00269808 -0.000532378 0.00338758)
(-0.00277243 -0.00116608 0.00325019)
(-0.0027945 -0.00120983 0.00302572)
(-0.00168328 0.00234546 0.00570488)
(-0.00170594 0.00223703 0.00537788)
(-0.00182353 0.00191635 0.00483975)
(-0.00195048 0.00198236 0.00493872)
(-0.00181426 0.00230601 0.00536851)
(-0.00157554 0.00192662 0.00482685)
(-0.00193468 0.00206332 0.00485363)
(-0.00201129 0.00182902 0.00483318)
(-0.00200207 0.0017453 0.00468547)
(-0.00188996 0.00202021 0.00470529)
(-0.00194414 0.00207251 0.00502733)
(-0.00193103 0.00177227 0.00462542)
(-0.00813261 -0.0159163 0.0284378)
(-0.00707571 -0.0205138 0.027188)
(-0.00890415 -0.019203 0.0266068)
(-0.00253905 0.00419166 0.0216688)
(-0.00335736 0.00630778 0.0219931)
(-0.00230703 0.00288699 0.0200575)
(-0.00338266 0.00466915 0.0175093)
(-0.00286476 0.00308629 0.0171179)
(-0.00372094 0.00572833 0.0187788)
(-0.002946 0.00526195 0.0104862)
(-0.00343367 0.00603239 0.0123152)
(-0.00347957 0.00611989 0.0119523)
(-0.00312499 0.00588041 0.00998574)
(-0.00300049 0.00599444 0.00969179)
(-0.00357611 0.00682915 0.0113917)
(-0.00723914 0.0155182 0.0275159)
(-0.00774329 0.0167709 0.030361)
(-0.00758712 0.015479 0.0277404)
(-0.0076713 0.0157608 0.0280792)
(-0.00706867 0.0149973 0.0276272)
(-0.00669891 0.014526 0.0267864)
(-0.00155872 0.00960509 0.0301205)
(-0.00295755 0.0112864 0.0312692)
(-0.00243168 0.0115778 0.0306699)
(-0.00191597 0.0111773 0.0329543)
(-0.00370571 0.0131172 0.0320825)
(-0.00345808 0.0123831 0.0309362)
(-0.011955 0.00568065 0.0291034)
(-0.0121645 0.00946138 0.030554)
(-0.0129235 0.0112634 0.0334272)
(-0.0121252 0.008586 0.0297548)
(-0.0128553 0.0051956 0.0297289)
(-0.0109243 0.00750769 0.0281283)
(-0.0137012 0.00677369 0.0315786)
(-0.0133658 0.00739142 0.0319024)
(0.00544628 -0.000680834 0.0309411)
(0.00290488 0.00056255 0.0271147)
(0.0050028 -0.0026585 0.028193)
(0.00224789 0.000150392 0.0273542)
(0.00415058 -0.00282863 0.0266503)
(0.00338214 0.00239658 0.0317272)
(0.0278777 -0.0177997 0.0324982)
(0.0195987 -0.0127302 0.0340948)
(0.0236293 -0.00914829 0.0403868)
(0.0269227 -0.0156444 0.0461291)
(0.0209041 -0.016956 0.0348046)
(0.0196068 -0.00946157 0.0417788)
(0.00631709 -0.0140868 0.0172851)
(0.00316979 -0.0123867 0.0131462)
(0.00390045 -0.012412 0.0163016)
(0.00620408 -0.0155887 0.0165372)
(0.00539802 -0.0156897 0.0126896)
(0.00261593 -0.0128896 0.0131031)
(-0.00611166 0.0151375 0.0218826)
(-0.00654947 0.0151935 0.0230878)
(-0.00601023 0.0161109 0.0222931)
(-0.00663788 0.0168173 0.0236172)
(-0.00658952 0.0163409 0.0236654)
(-0.00137029 0.00346206 0.00893778)
(-0.00157016 0.00343178 0.00796849)
(-0.00133934 0.00328656 0.00838518)
(-0.00148712 0.00345882 0.00796963)
(-0.00129715 0.00345705 0.00836475)
(-0.00128776 0.00355349 0.0092695)
(-0.00121647 0.00319032 0.0117256)
(-0.00155094 0.00349607 0.0130322)
(-0.00216688 0.00408893 0.0129986)
(-0.00180863 0.00398209 0.0107978)
(-0.00200371 0.00424631 0.0117858)
(-0.00109608 0.003323 0.01069)
(-0.00318519 0.00564804 0.0108674)
(-0.00267871 0.00513322 0.0100314)
(-0.00304257 0.00570723 0.0104358)
(-0.00314975 0.00559463 0.0113233)
(-0.00323424 0.00586206 0.0110132)
(-0.00269571 0.00512208 0.00973161)
(-0.00195825 0.00423986 0.0105765)
(-0.00211991 0.00433445 0.01027)
(-0.00210755 0.00439846 0.0102875)
(-0.00194711 0.00404077 0.00869885)
(-0.00200421 0.00402689 0.0088424)
(-0.00188861 0.0041631 0.00895351)
(-0.00247879 0.00471262 0.0142747)
(-0.00261381 0.0051069 0.0117879)
(-0.00359927 0.00645429 0.0139783)
(-0.00220931 0.00421848 0.0131456)
(-0.0029733 0.00566913 0.0129063)
(-0.00213659 0.00441322 0.0118835)
(-0.00209094 0.00566162 0.00747956)
(-0.00188989 0.00536455 0.00714082)
(-0.0021915 0.0067323 0.00790457)
(-0.00202435 0.00582972 0.00765574)
(-0.002427 0.0064705 0.00822534)
(-0.00228183 0.00712402 0.00836167)
(-0.00134758 0.00396293 0.00582666)
(-0.00118429 0.00392342 0.00588833)
(-0.00126721 0.00356611 0.00559469)
(-0.0013847 0.00404624 0.00601517)
(-0.00130393 0.0039839 0.00589156)
(-0.00129886 0.00365494 0.00559448)
(-0.000963223 0.00384451 0.00599978)
(-0.0010616 0.00407515 0.00636865)
(-0.000940621 0.00380645 0.0060407)
(-0.00118967 0.00410319 0.00664209)
(-0.00103241 0.0040013 0.00612932)
(-0.000936476 0.00402989 0.00640242)
(-0.0071229 0.0167409 0.0293611)
(-0.00797462 0.0160493 0.0284519)
(-0.00750546 0.0164236 0.0285649)
(-0.00697672 0.0154869 0.0272241)
(-0.00818301 0.0167644 0.0289827)
(-0.00837026 0.0170351 0.0295322)
(-0.00877492 0.0157443 0.0292404)
(-0.00805237 0.0157813 0.0290332)
(-0.00832507 0.0157073 0.0279566)
(-0.00821787 0.0163019 0.0287056)
(-0.00843317 0.016597 0.030001)
(-0.00875955 0.0156927 0.0286918)
(-0.0057672 0.0158875 0.0201487)
(-0.00665704 0.0151789 0.0219307)
(-0.00615284 0.0146914 0.0202237)
(-0.00589285 0.0148511 0.0192366)
(-0.00575326 0.0165882 0.0209141)
(-0.00703513 0.0158975 0.0252494)
(-0.0071368 0.0151125 0.0245693)
(-0.00761735 0.0169946 0.026851)
(-0.00721757 0.0165138 0.0262502)
(-0.00711043 0.0163825 0.0266041)
(-0.00719277 0.0158223 0.0258167)
(-0.00775612 0.0169918 0.0276477)
(-0.00761721 0.0168907 0.027621)
(0.0141263 -0.0219995 0.01529)
(0.0090598 -0.020864 0.0087095)
(0.00920511 -0.0188107 0.0161819)
(0.00694737 -0.0181493 0.0117053)
(0.0121529 -0.0221513 0.0141071)
(0.00614239 -0.018179 0.0101407)
(0.000922811 -0.00931039 0.0132937)
(0.00155227 -0.0080947 0.016147)
(-0.000681831 -0.0073944 0.0121474)
(0.00170776 -0.00959436 0.0160026)
(-0.000594183 -0.0067616 0.0127163)
(-0.000224206 -0.00678575 0.0149032)
(-0.00172491 -0.00495677 0.00972886)
(-0.00194473 -0.005115 0.00738476)
(-0.00219298 -0.00392314 0.00927715)
(-0.00180564 -0.00513604 0.00931807)
(-0.00230512 -0.00347458 0.00741863)
(-0.00221104 -0.00369515 0.0075821)
(-0.0146643 0.00896323 0.0379983)
(-0.0166809 0.00579225 0.0413565)
(-0.0177354 0.00725941 0.0436232)
(-0.0130133 0.0104352 0.0398524)
(-0.0151464 0.00722013 0.0369871)
(-0.0168001 0.00466402 0.0379816)
(-0.0181789 8.52723e-05 0.0385201)
(-0.0167279 -0.00475174 0.0352669)
(-0.0187625 -0.0055571 0.0359279)
(-0.0168765 -0.00190241 0.0349966)
(-0.0192237 -0.00101888 0.0381989)
(-0.0116331 -0.00331981 0.0280557)
(-0.0126515 -0.00762892 0.0289761)
(-0.0112392 -0.00464946 0.0300122)
(-0.0143769 -0.00557511 0.0329191)
(-0.0147904 -0.0031816 0.0316959)
(-0.0137143 -0.00280446 0.030951)
(0.0162336 -0.0144812 0.0279126)
(0.010639 -0.0145443 0.0217639)
(0.0169463 -0.017844 0.0285729)
(0.011703 -0.0176844 0.0219216)
(0.0119242 -0.013483 0.0273721)
(0.0152168 -0.0188875 0.0215718)
(0.00287455 0.00894294 0.0603496)
(-0.000724535 0.00951131 0.0469326)
(0.0044332 0.00799234 0.0478385)
(0.00476609 0.00758485 0.0485231)
(-0.000959491 0.0104618 0.0481556)
(0.00164413 0.00506023 0.0311333)
(-0.000222878 0.00666053 0.0306019)
(-8.01635e-05 0.00805679 0.0320657)
(0.00129979 0.00435013 0.0296383)
(-8.98283e-05 0.00348198 0.0261632)
(0.00146282 0.00635349 0.0305826)
(0.00634741 0.00272123 0.0355444)
(0.00339142 0.00513765 0.0351504)
(0.00564734 0.00705597 0.0407533)
(0.00736168 0.00362486 0.0389332)
(0.00401627 0.00638104 0.0346742)
(0.00202042 0.00954271 0.0402601)
(-0.00181662 0.00322132 0.02377)
(-0.000989259 0.000147817 0.0212437)
(-0.00134179 0.00149417 0.0223708)
(0.00108661 0.00132105 0.022826)
(-0.000647961 0.00257401 0.0247494)
(0.0106441 -0.00203552 0.0365857)
(0.0137483 -0.00882078 0.033151)
(0.00958156 -0.00321696 0.0337464)
(0.009177 -0.0055274 0.0310131)
(0.0113905 -0.00880016 0.0310192)
(0.014055 -0.0060622 0.037792)
(0.00708463 -0.0112053 0.0211038)
(0.00636906 -0.00698712 0.0250113)
(0.00449409 -0.00686167 0.0231728)
(0.00466222 -0.0105317 0.0197203)
(0.00777338 -0.00972274 0.0249375)
(0.00425874 -0.00840128 0.0200761)
(0.00118738 -0.0013231 0.0227116)
(0.00161086 -0.00342631 0.0228766)
(0.000292615 -0.00477431 0.0166962)
(-0.000868418 -0.00206835 0.0166908)
(-0.000388088 -0.00166617 0.017959)
(0.00153153 -0.00540357 0.0188371)
(-0.00547193 0.0145306 0.0423434)
(0.000419278 0.0133166 0.0440644)
(0.00036006 0.0121307 0.0422215)
(-0.00168427 0.0127925 0.0438412)
(-0.00360241 0.0153976 0.0424582)
(-0.00187014 0.013742 0.0386955)
(-0.00579222 0.0144835 0.03465)
(-0.00428 0.0153111 0.0363567)
(-0.00380165 0.0140359 0.0354128)
(-0.00627091 0.0161292 0.0369364)
(-0.00336311 0.0148901 0.0370713)
(-0.0111157 0.0131126 0.0403221)
(-0.0123901 0.0117846 0.0363137)
(-0.01043 0.0133907 0.0361641)
(-0.00883477 0.0137967 0.0352243)
(-0.00616123 0.0148488 0.038672)
(-0.00968365 0.0140822 0.0399271)
(-0.0085945 0.0128088 0.0260407)
(-0.00778566 0.0117608 0.0246355)
(-0.00904364 0.0125289 0.0263504)
(-0.00880374 0.0140309 0.0272686)
(-0.00956134 0.0112966 0.0260258)
(-0.00862062 0.0124629 0.0256444)
(-0.00631425 0.0163874 0.0316918)
(-0.00553835 0.0154692 0.0328169)
(-0.00415253 0.0134713 0.0293627)
(-0.00523512 0.0148301 0.0300832)
(-0.00583174 0.0147119 0.0284916)
(-0.00635459 0.014619 0.0293952)
(-0.00383055 0.0059994 0.012794)
(-0.00348835 0.00539603 0.0131436)
(-0.00447336 0.00770513 0.0156249)
(-0.00381165 0.00596733 0.0158997)
(-0.00419561 0.00666501 0.0143391)
(-0.00351436 0.00556752 0.0160851)
(-0.00320137 -0.000487437 0.0205894)
(-0.00373125 0.000112383 0.0192934)
(-0.00227108 0.000765786 0.0177781)
(-0.00340246 0.000645449 0.0191653)
(-0.00265131 0.000922477 0.0174213)
(-0.00223352 0.000325869 0.0182557)
(-0.00166001 0.00344316 0.00667517)
(-0.00152039 0.00328433 0.00627548)
(-0.00158813 0.00307425 0.00586454)
(-0.00137091 0.00320019 0.00600967)
(-0.00157129 0.0035045 0.00634021)
(-0.00153056 0.0033494 0.00649257)
(-0.00194559 0.00314917 0.0146039)
(-0.00195687 0.00203407 0.0159157)
(-0.00198028 0.0030088 0.0147437)
(-0.00216228 0.00343422 0.0151971)
(-0.00301384 0.00392487 0.0163753)
(-0.00213425 0.00195421 0.0160283)
(-0.00485378 -0.000804011 0.0210416)
(-0.00682924 0.00300743 0.0238873)
(-0.00702243 0.000886023 0.0237886)
(-0.00637823 -0.00034154 0.0233504)
(-0.00600218 0.00228084 0.0226912)
(-0.0050223 0.00188941 0.0212283)
(-0.00865889 0.00442928 0.0259265)
(-0.0096433 0.00440315 0.0259989)
(-0.00868854 0.00542078 0.0247806)
(-0.0105232 0.00628681 0.0274193)
(-0.00934169 0.00366255 0.0261631)
(-0.010071 0.00685861 0.0271826)
(-0.00617777 0.0082467 0.0209541)
(-0.00591145 0.00771296 0.021392)
(-0.00653474 0.00800608 0.0223057)
(-0.00633807 0.00830961 0.0208113)
(-0.00614533 0.0092742 0.0211206)
(-0.00805606 -0.0116438 0.0267179)
(-0.00786778 -0.00687397 0.0264415)
(-0.00454078 -0.00860426 0.0227706)
(-0.00882052 -0.0102148 0.0256251)
(-0.00561393 -0.0075548 0.0238679)
(-0.00513876 -0.010548 0.0221947)
(-0.0141849 -0.0235502 0.0302093)
(-0.0177503 -0.0223393 0.0383807)
(-0.00679486 0.0147849 0.0194025)
(-0.00610047 0.0129915 0.0173105)
(-0.00629557 0.0127529 0.0178115)
(-0.00591733 0.0127241 0.0159958)
(-0.00683849 0.0132264 0.0171501)
(-0.00633682 0.0136266 0.0183467)
(-0.00695199 0.0123995 0.0225063)
(-0.00751613 0.0122748 0.0232813)
(-0.00655901 0.0115219 0.020938)
(-0.00671869 0.0106075 0.021435)
(-0.00740798 0.0104158 0.0228073)
(-0.00794909 0.0110555 0.0241808)
(-0.00212549 0.00425009 0.00741168)
(-0.00334197 0.00547716 0.00866156)
(-0.00245856 0.00445664 0.00761132)
(-0.00281798 0.00500416 0.00825435)
(-0.00239853 0.00452872 0.00793279)
(-0.00285314 0.00512842 0.00840583)
(-0.00172238 0.00403384 0.0068636)
(-0.00143745 0.00408768 0.00687138)
(-0.00133819 0.00368233 0.00615504)
(-0.00138829 0.00379509 0.00651946)
(-0.00151022 0.00379009 0.00650352)
(-0.00107369 0.0035949 0.00595569)
(-0.00112842 0.00366128 0.00618438)
(-0.0038945 0.00563932 0.00855472)
(-0.00335479 0.00518427 0.00837481)
(-0.00433006 0.00685875 0.0100258)
(-0.00436316 0.00626933 0.00890807)
(-0.00394802 0.00610768 0.00947703)
(-0.00669739 0.0124561 0.0143555)
(-0.0064626 0.0122055 0.0148291)
(-8.41319e-06 0.00130015 0.00764067)
(0.000620213 0.000606792 0.00833768)
(0.00032629 0.000659223 0.00699656)
(0.000577101 0.000689494 0.00821463)
(-0.000531291 0.00130786 0.00660156)
(-0.000566467 0.0014187 0.00688129)
(0.00157915 -0.00045955 0.00854258)
(0.00198666 -0.00115258 0.00955977)
(0.00196195 -0.000786789 0.00767654)
(0.000911782 2.88437e-05 0.00766008)
(0.000671591 0.00029369 0.00733459)
(0.00299497 -0.00194787 0.00932855)
(0.00254784 -0.00141011 0.00843673)
(0.00269594 -0.00595268 0.0141869)
(0.00317741 -0.00627725 0.0140158)
(0.00241239 -0.00976405 0.0177454)
(0.00353452 -0.00874766 0.0145137)
(0.00223195 -0.00664728 0.0158004)
(0.00183112 -0.00904856 0.0171849)
(1.10795e-05 -0.00337493 0.0170413)
(-0.000826941 -0.00137519 0.0176017)
(-0.00108448 -0.00272195 0.0188009)
(0.000417684 -0.00250455 0.0163514)
(-0.000451281 -0.00373625 0.0177447)
(-0.00014259 -0.00140001 0.015944)
(0.000626034 0.000722932 0.00936765)
(0.000812086 0.000521522 0.0108438)
(0.00074657 0.000609854 0.010772)
(0.000211104 0.0013907 0.0099435)
(-0.000161225 0.00161108 0.0089968)
(0.000255286 0.00135718 0.00890316)
(-0.00165962 -0.00760249 0.0195253)
(0.000216371 -0.00886145 0.0181933)
(-0.00135384 -0.00893982 0.0200933)
(-0.000978244 -0.00590426 0.0197213)
(0.00108849 -0.00706247 0.0174323)
(0.000596314 -0.00640712 0.0175471)
(-0.00160246 0.00282361 0.00536877)
(-0.00149954 0.00269692 0.00518209)
(-0.00147557 0.00294416 0.00544523)
(-0.00157416 0.00301562 0.00574235)
(-0.00172883 0.00287007 0.00556798)
(-0.00160703 0.00286605 0.00526325)
(-0.00205433 0.00148958 0.00458608)
(-0.00201896 0.00148977 0.00470454)
(-0.00212376 0.0011388 0.00448897)
(-0.00212166 0.00122507 0.00465084)
(-0.00211002 0.00107928 0.00419755)
(-0.00217682 0.0011149 0.00412438)
(-0.0019432 0.00152323 0.00435907)
(-0.00210429 0.0014003 0.00427795)
(-0.00208868 0.00145206 0.00436548)
(-0.00201339 0.00138665 0.00434911)
(-0.00203949 0.00120646 0.00434556)
(-0.00219567 0.00106329 0.00410165)
(-0.00202795 0.00151249 0.00547433)
(-0.00234137 0.00105088 0.00423023)
(-0.00214798 0.00127757 0.00424693)
(-0.00170937 0.00156958 0.00522841)
(-0.00232189 0.00110878 0.00453101)
(-0.00200273 0.00152677 0.00480827)
(-0.00253353 0.000452928 0.00566684)
(-0.00247319 0.000838786 0.00550336)
(-0.00246031 0.000381643 0.00496051)
(-0.00260648 0.000311008 0.00553275)
(-0.00239263 0.000769136 0.00488827)
(-0.00232896 0.00092816 0.00505545)
(-0.00184093 0.00121932 0.0171535)
(-0.0027749 0.00164878 0.0164813)
(-0.00147982 -0.00016328 0.0187054)
(-0.00147228 -0.000853473 0.0152944)
(-0.0022386 -6.04434e-05 0.0149633)
(-0.00321149 0.00470027 0.0102185)
(-0.0025474 0.00482858 0.00853521)
(-0.00246143 0.00452143 0.00806231)
(-0.00249522 0.00403546 0.00783723)
(-0.00269097 0.00522558 0.0096087)
(-0.0026539 0.00370197 0.00833027)
(-0.00248031 0.00164617 0.00649153)
(-0.00238864 0.00186892 0.00623089)
(-0.00251536 0.00212542 0.0074266)
(-0.00237266 0.00232256 0.00690488)
(-0.00262865 0.00197227 0.00730582)
(-0.00190424 0.00378185 0.00634916)
(-0.00200369 0.00435088 0.00692834)
(-0.00185877 0.00360352 0.00643858)
(-0.00177665 0.0035795 0.00603274)
(-0.00207664 0.00395403 0.00688833)
(-0.00221153 0.00355339 0.00688124)
(-0.00200996 0.0025666 0.00571978)
(-0.00202704 0.00211129 0.0054061)
(-0.00196479 0.00215947 0.00516737)
(-0.00210981 0.00223103 0.00573977)
(-0.00215634 0.00209123 0.00564301)
(-0.0019101 0.00234649 0.00531093)
(-0.00149906 0.00315915 0.00537417)
(-0.001407 0.003151 0.00544787)
(-0.00151029 0.00290095 0.00523197)
(-0.00137263 0.00306141 0.00531744)
(-0.00142921 0.0029151 0.00525387)
(-0.00273261 0.00110661 0.00860278)
(-0.002997 0.00206 0.00966176)
(-0.00285908 0.00220458 0.00876286)
(-0.00269964 0.00155918 0.0079276)
(-0.00306085 0.00122029 0.0100965)
(-0.00110519 0.0016508 0.00676543)
(-0.000564323 0.00179676 0.00718992)
(-0.00153293 0.00183648 0.00596936)
(-0.000617332 0.00172624 0.0071054)
(-0.000988918 0.00206597 0.00676871)
(-0.0012128 0.00182278 0.005999)
(0.00414566 -0.00406762 0.00929977)
(0.00311879 -0.0023579 0.00899803)
(0.0023676 -0.00150097 0.00774415)
(0.00382729 -0.00349976 0.0091183)
(0.00199353 -0.00125761 0.00746323)
(0.00297084 -0.00227496 0.00791995)
(-0.00291759 -0.000672022 0.00275135)
(-0.00309665 -0.000532028 0.00259156)
(-0.00298736 -4.2578e-05 0.00314935)
(-0.00287649 -0.00038604 0.0029531)
(-0.00311142 -0.000758603 0.00267921)
(-0.0027727 -2.01437e-05 0.00305013)
(-0.00249977 0.00019813 0.00404846)
(-0.00329829 -0.000154101 0.00333919)
(-0.00376687 -0.000377383 0.00312527)
(-0.0028346 0.000200673 0.00399116)
(-0.00216145 -0.0037834 0.00538039)
(-0.00243868 -0.00301925 0.00556152)
(-0.00257979 -0.00286221 0.00453499)
(-0.00225543 -0.00366686 0.00479994)
(-0.00251962 -0.00323222 0.00443075)
(-0.00251224 -0.00287463 0.00483932)
(-0.00259668 -0.0010437 0.00397266)
(-0.00260348 -0.00189718 0.00455065)
(-0.00254003 -0.00141697 0.00378077)
(-0.00265458 -0.00123489 0.00475644)
(-0.0027155 -0.000942839 0.00441461)
(-0.00255241 -0.00183038 0.0041145)
(-0.00270176 -0.00101236 0.00704891)
(-0.00251113 -3.31202e-05 0.00578744)
(-0.00264546 -0.000222718 0.00712939)
(-0.00272473 -6.45533e-05 0.00650711)
(-0.0026767 -0.00107244 0.00733189)
(-0.00259232 -0.000189505 0.00535987)
(-0.00158301 0.00364596 0.00646585)
(-0.00183563 0.00391203 0.00727073)
(-0.00236039 0.00419451 0.00721096)
(-0.00176128 0.00350505 0.00628307)
(-0.0019298 0.00390135 0.00723179)
(-0.00196012 0.00413163 0.00711818)
(0.0054299 -0.0139139 0.0144124)
(0.00443339 -0.0114097 0.0148212)
(0.0031394 -0.0130797 0.0176912)
(0.00485436 -0.0108653 0.0146003)
(0.00397996 -0.0160862 0.0168737)
(0.00309122 -0.0161965 0.0171102)
(0.00626648 -0.0111827 0.0121684)
(0.00540041 -0.00894082 0.0122419)
(0.00522207 -0.00715111 0.0107787)
(-0.00094112 0.00279741 0.00874404)
(-0.000574361 0.00243886 0.0098981)
(-0.000787861 0.0027003 0.0106652)
(-0.00048538 0.00239612 0.0105937)
(-0.000715322 0.00251424 0.0087764)
(-0.00101374 0.00313044 0.00997827)
(-0.000442603 0.00215115 0.00895968)
(-0.000546636 0.00206821 0.0084055)
(-0.000710019 0.00249195 0.00834505)
(-0.000972158 0.00236086 0.00753401)
(-0.0010637 0.00228671 0.00750561)
(-0.000154552 0.00185097 0.00886563)
(-0.00117263 0.0023506 0.0142326)
(-0.000943427 0.00213309 0.0125212)
(-0.00166816 0.002058 0.0160359)
(-0.000586942 0.00223028 0.0134143)
(-0.000331774 0.00070917 0.0138162)
(-0.000774526 0.00087106 0.015822)
(0.000199894 0.00074153 0.013491)
(-0.00764259 0.0154809 0.0289359)
(-0.00750643 0.0171693 0.0325298)
(-0.00704832 0.0166456 0.0302069)
(-0.00675655 0.0163517 0.030651)
(-0.00801832 0.0160844 0.0300183)
(-0.00754929 0.0160767 0.0303836)
(-0.0122753 0.0121473 0.0317189)
(-0.0107957 0.0107941 0.028425)
(-0.011585 0.0122567 0.0311944)
(-0.0104205 0.0124746 0.0288342)
(-0.0110527 0.0137889 0.0315631)
(-0.00956846 0.0150135 0.0300773)
(-0.00138833 0.0045508 0.00628981)
(-0.00153927 0.00491546 0.0066886)
(-0.00120174 0.00440103 0.00614668)
(-0.00124086 0.00422725 0.00597632)
(-0.000942023 0.00415726 0.00606833)
(-0.000964616 0.00412455 0.00604098)
(-0.00110009 0.00448571 0.00629042)
(-0.00102131 0.00424963 0.00603651)
(-0.00122682 0.00452827 0.00620501)
(-0.00135795 0.00470765 0.00642425)
(-0.00151095 0.00522762 0.00681194)
(-0.00992125 0.0150785 0.0347641)
(-0.0105935 0.0131672 0.0321475)
(-0.0109327 0.0131373 0.032619)
(-0.010139 0.0147443 0.035295)
(-0.00896661 0.0146505 0.0280688)
(-0.00981512 0.0125861 0.0274561)
(-0.00875692 0.014124 0.0275634)
(-0.00995367 0.0140785 0.0293919)
(-0.00736794 0.0155933 0.0336208)
(-0.00498604 0.0147765 0.0321007)
(-0.00544591 0.014371 0.0311684)
(-0.00732368 0.0168428 0.0358301)
(-0.00607186 0.0159843 0.0339631)
(-0.00635094 0.0157445 0.0324441)
(-0.0066565 0.0164326 0.0327743)
(0.000239233 0.000645333 0.0128948)
(0.000383629 0.000677677 0.0125351)
(2.6134e-05 0.00139205 0.0117573)
(-1.83651e-05 0.00119305 0.0120782)
(5.42646e-05 0.0016354 0.0111763)
(-0.000476362 0.00196606 0.0110658)
(0.000164206 0.00152764 0.00984847)
(-0.000554202 0.0022723 0.00951512)
(-0.00104428 0.00259458 0.00805582)
(-0.000444003 0.00205909 0.0116302)
(-0.0088887 -0.00206904 0.0273209)
(-0.00875778 -0.00126764 0.0251214)
(-0.0102315 0.000114764 0.0279673)
(0.00439764 -0.00522992 0.0104264)
(0.00531459 -0.009402 0.0122179)
(0.00579836 -0.0128842 0.0135792)
(-0.00202717 -0.0212691 0.0222791)
(0.00100036 -0.0167718 0.0206254)
(0.000857188 -0.020554 0.0188017)
(-0.00164159 0.00344612 0.00603193)
(-0.00168401 0.00349659 0.00632865)
(-0.0016869 0.000507559 0.00479724)
(-0.000467228 0.000677933 0.00561313)
(-0.00106166 0.0005746 0.00482696)
(-0.00128736 0.00107855 0.00540729)
(-0.00058323 0.000979687 0.00574291)
(-0.00211162 0.000934961 0.00416803)
(-0.00195294 0.00112371 0.00475621)
(-0.00400653 -0.00142652 0.00245288)
(-0.00426609 -0.000930463 0.00269867)
(-0.00409313 -0.00107448 0.00259511)
(-0.00337407 0.00620977 0.0100772)
(-0.00317654 0.00567699 0.00986087)
(-0.0030035 0.00515588 0.00872239)
(-0.00285973 0.00499116 0.00863619)
(-0.00257334 0.00458378 0.00773315)
(-0.00317506 0.00405777 0.010198)
(-0.00281243 0.00266675 0.00901021)
(-0.00301818 0.00365095 0.010636)
(-0.00282762 0.00320357 0.0105909)
(-0.00299217 0.00255395 0.0107984)
(-0.00319068 0.00382792 0.0145112)
(-0.00309492 0.00386883 0.0125317)
(-0.00118145 0.00341266 0.00538275)
(-0.00131578 0.00333086 0.00543211)
(-0.00144094 0.00325916 0.00546155)
(-0.00159338 0.00246326 0.00487873)
(-0.00167954 0.00259512 0.00509877)
(-0.00161727 0.00283987 0.00529118)
(-0.00127441 0.00329065 0.0057107)
(-0.00127985 0.00332649 0.00587127)
(-0.00127806 0.00324042 0.00541259)
(-0.00131272 0.00314548 0.00541202)
(-0.00126761 0.00324177 0.00556032)
(-0.00127869 0.00318254 0.00552178)
(-0.00168082 0.00284437 0.00534028)
(-0.00163418 0.00288237 0.00540997)
(-0.0017449 0.00289992 0.00547785)
(-0.00160635 0.00300106 0.00537151)
(-0.00181783 0.00241045 0.00509547)
(-0.00191863 0.00276929 0.0056392)
(-0.00187424 0.00259405 0.00541651)
(-0.00228212 0.00486834 0.00792051)
(-0.00186503 0.00471492 0.00712467)
(-0.00152227 0.00332344 0.00567112)
(-0.00148057 0.00351472 0.00568458)
(-0.00173063 0.00376507 0.00609624)
(-0.00170614 0.00334267 0.0057994)
(-0.00162934 0.00354901 0.00584241)
(-0.00180353 0.00332934 0.00591939)
(-0.00172795 0.00309341 0.00565719)
(-0.00258152 0.00267362 0.00758529)
(-0.00289864 0.0023063 0.00872952)
(-0.00264449 0.00261085 0.00833636)
(-0.00233801 0.00214108 0.00647347)
(-0.0024907 0.00457713 0.00808684)
(-0.00229531 0.00427857 0.00741524)
(-0.00246667 0.00361777 0.00745976)
(-0.00275485 0.00311182 0.00840827)
(-0.00261065 0.00342716 0.00806896)
(-0.00304195 0.00345398 0.00959307)
(-0.00295595 0.00303652 0.00893607)
(-0.00262375 -0.00230417 0.00417437)
(-0.00304683 -0.00317141 0.00204953)
(-0.00135145 -0.00645254 0.00199641)
(-0.00184958 -0.00554145 0.00235666)
(-0.00271139 -0.00354556 0.00209505)
(-0.00223234 0.000915626 0.00440172)
(-0.00250171 0.000484666 0.00354058)
(-0.00267485 -0.000435592 0.0039497)
(-0.00253107 -0.0004438 0.00384097)
(-0.00259784 -0.000670848 0.00412951)
(-0.0027026 -0.000763895 0.00414254)
(-0.00250227 0.000350721 0.00340456)
(-0.00260564 -0.000131487 0.00378449)
(-0.00257664 -9.0731e-05 0.00370413)
(-0.00275246 1.35198e-05 0.00348325)
(-0.00272817 0.000302003 0.00358377)
(-0.00267194 4.31416e-05 0.00360107)
(-0.00247258 0.000854683 0.00424266)
(-0.00260442 0.000541943 0.00386861)
(-0.00281732 -0.00278623 0.0023501)
(-0.00311242 -0.00294273 0.00214519)
(-0.00312102 -0.00258717 0.00188556)
(-0.00362641 -0.00182052 0.0021132)
(-0.00365612 -0.00143253 0.00213904)
(-0.00357191 -0.00114225 0.00216348)
(-0.00260398 -0.00192913 0.00338467)
(-0.00262002 -0.00220997 0.00385527)
(-0.00257369 -0.00267884 0.00317682)
(-0.00276052 -0.00234356 0.00255622)
(-0.00266365 -0.00191351 0.00316999)
(-0.00273842 -0.00156898 0.00287264)
(-0.00298352 -0.00203978 0.0019736)
(-0.00322261 -0.00178467 0.00199198)
(-0.00285673 -0.00165522 0.00260233)
(-0.00282797 -0.00204012 0.00227111)
(-0.00305005 -0.00145558 0.00254419)
(-0.00325629 -0.0011088 0.002285)
(-0.0031506 -0.0014136 0.00238322)
(-0.00251902 -0.000194286 0.00365745)
(-0.00247733 0.000347324 0.00387266)
(-0.00233426 0.000750525 0.00410475)
(-0.00248127 -0.000148896 0.00457646)
(-0.00237554 0.000293541 0.00405165)
(-0.00247295 -0.000179501 0.00421319)
(-0.00244104 -0.000123953 0.0037965)
(-0.00217237 0.000747329 0.00405249)
(-0.00249888 0.000102685 0.0037031)
(-0.00244145 0.000338579 0.0036779)
(-0.00253568 6.88618e-05 0.00375022)
(-0.00241848 0.000536061 0.00373046)
(-0.00252478 0.000383912 0.00387196)
(-0.00239309 0.000309188 0.00366332)
(-0.00221864 0.000651752 0.0037502)
(-0.00231253 0.000621985 0.00375415)
(-0.00208885 0.00112133 0.0040193)
(-0.002391 0.000765721 0.00393357)
(-0.00212977 0.000781672 0.00370142)
(-0.00234322 0.00112326 0.004191)
(-0.00222895 0.000904649 0.00402144)
(-0.00218666 0.000903228 0.00391352)
(-0.00286748 -0.000163965 0.00997424)
(-0.00276461 0.000547999 0.00893843)
(-0.00258745 -0.000796562 0.0105723)
(-0.00261843 -0.000136421 0.00821425)
(-0.00241516 -0.000631023 0.0089856)
(-0.0029427 -0.000716285 0.00950701)
(-0.00267128 -0.000780097 0.0126618)
(-0.00319139 0.00294275 0.0165825)
(-0.00239187 -0.00123459 0.0130436)
(-0.00229272 0.000772178 0.00445704)
(-0.00236552 0.000438472 0.00438388)
(-0.00240727 0.000349443 0.00470761)
(-0.00227521 0.000873525 0.0045476)
(-0.0022495 0.00125712 0.00515776)
(-0.00222474 0.00119982 0.00495463)
(-0.00223803 0.00172886 0.00549563)
(-0.00229506 0.00193264 0.00586351)
(-0.00278673 0.0010723 0.00848628)
(-0.0026611 0.000762784 0.00741661)
(-0.00258117 0.00103059 0.00704534)
(-0.0026222 0.001366 0.00738562)
(-0.00264874 -1.52721e-06 0.00747502)
(-0.00272102 0.000544446 0.00692427)
(-0.00269915 0.000460736 0.00634676)
(-0.00265574 0.000352209 0.00613878)
(-0.00244536 0.00112039 0.0064505)
(-0.00226456 0.00139256 0.00560266)
(-0.00240334 0.00144997 0.0061714)
(-0.00255213 0.00086618 0.0061917)
(-0.00229677 0.00121995 0.00543106)
(-0.00246258 0.00086475 0.00563369)
(-0.00274932 0.000485095 0.0140102)
(-0.00275047 0.000204134 0.0124979)
(-0.00285709 0.00137185 0.0106624)
(-0.00274225 -2.47759e-05 0.0104304)
(-0.0035806 0.0029942 0.0137692)
(-0.0030866 0.00179029 0.0117065)
(-0.00309707 0.00203072 0.0119362)
(-0.00261507 0.00184622 0.0139566)
(-0.00290638 0.00187873 0.0138505)
(-0.00352402 -0.00200115 0.00214664)
(-0.0033588 -0.00254874 0.00217639)
(-0.00218959 0.00117036 0.00396452)
(-0.00226812 0.00128745 0.00435783)
(-0.00129722 0.00272808 0.00725691)
(-0.00177727 0.0016465 0.00498084)
(-0.00211052 0.00162236 0.00477249)
(-0.0020665 0.00160107 0.00477467)
(-0.00209607 0.00164187 0.00465716)
(-0.00128149 0.00211301 0.00675876)
(-0.00161017 0.00177368 0.00549058)
(-0.00154912 0.00204058 0.00568449)
(-0.00146987 0.00224222 0.0062999)
(-0.00195128 0.00208347 0.00545271)
(-0.00136692 0.00253917 0.00660913)
(-0.0011207 0.00234384 0.00660375)
(-0.00148008 0.00231969 0.00634573)
(-0.0018382 0.001778 0.00454289)
(-0.00149837 0.00322248 0.00572562)
(-0.0014426 0.00294088 0.00522282)
(-0.00134555 0.00317416 0.00551072)
(-0.00140891 0.00317183 0.00562804)
(-0.00153062 0.00254037 0.00495385)
(-0.00176771 0.00197752 0.0046028)
(-0.00181726 0.00295003 0.00603362)
(-0.00173076 0.00272766 0.00559451)
(-0.00159176 0.00302111 0.00618561)
(-0.00152295 0.00312131 0.00604471)
(-0.00137916 0.00288804 0.00572271)
(-0.00189927 0.00302925 0.00568633)
(-0.00158989 0.00280527 0.00551715)
(-0.00157522 0.00282078 0.00529715)
(-0.00160252 0.00251148 0.00494894)
(-0.00154128 0.00246591 0.00488589)
(-0.00188106 0.00236773 0.00508698)
(-0.00171181 0.00236185 0.00503904)
(-0.00181224 0.00283845 0.00568441)
(-0.00165336 0.00276276 0.00566054)
(-0.00187302 0.00237594 0.0050263)
(-0.00183678 0.00224855 0.0048506)
(-5.18656e-06 0.000227111 0.00616743)
(-0.000946016 0.000250959 0.00539013)
(0.000360623 -0.000347503 0.00637213)