/*--------------------------------*- C++ -*----------------------------------*\
| =========                 |                                                 |
| \\      /  F ield         | OpenFOAM: The Open Source CFD Toolbox           |
|  \\    /   O peration     | Version:  v1612+                                |
|   \\  /    A nd           | Web:      www.OpenFOAM.com                      |
|    \\/     M anipulation  |                                                 |
\*---------------------------------------------------------------------------*/
FoamFile
{
    version     2.0;
    format      ascii;
    class       volScalarField;
    location    "150";
    object      p;
}
// * * * * * * * * * * * * * * * * * * * * * * * * * * * * * * * * * * * * * //

dimensions      [0 2 -2 0 0 0 0];

internalField   nonuniform List<scalar> 
18855
(
0.0062173
0.0316671
0.0215676
0.0769604
0.0670354
0.0677864
0.0678023
0.0650299
0.0657993
0.0713553
0.069735
0.068108
0.0652221
0.0683221
0.0665214
0.0715659
0.0715913
0.0666698
0.00139119
0.00717978
0.00406698
-0.00404148
0.00109326
0.00531194
0.00092941
0.00514686
-0.000687292
0.00448477
-0.00108591
0.00103995
0.00061604
0.0046576
0.0154719
0.018803
0.0215827
0.0182943
0.0151976
0.013541
0.0171004
0.0157974
0.0188165
0.020652
0.0424675
0.0454332
0.0453227
0.0406218
0.0437767
0.0494382
0.0359578
0.0442164
0.0452776
0.0462998
0.0430591
0.037589
0.0467605
0.0444065
0.0412575
0.0458253
0.0449101
0.000120167
0.00285747
-0.00190756
-0.00171729
0.00143633
-0.0005771
0.00508472
0.0032752
0.00229751
0.00426424
0.000631256
-0.00038954
0.00075731
0.0381773
0.0479379
0.0398495
0.0397012
0.0474838
0.0445753
0.0445667
0.0394022
0.0438645
0.040914
0.0465863
0.0431339
0.0408233
0.0447229
0.0457117
0.0468391
0.0509052
0.0398656
0.039514
0.0408342
0.0499981
0.0476482
0.0492222
0.0499632
0.0495392
0.0518521
0.0505193
0.0506467
0.0502113
0.0488159
0.0483018
0.0494152
0.00241523
0.00332272
0.00565682
-0.00114817
0.000274098
0.00494517
0.00223072
0.000556144
0.003921
0.00198757
-0.000314454
-0.00124344
0.0142247
0.0105609
0.0133681
0.0123627
0.0135991
0.0165346
0.0215164
0.0124337
0.01224
0.0108213
0.0108169
0.0364336
0.0325345
0.0353625
0.0321558
0.0318865
0.0363111
0.0391844
0.0372035
0.0304023
0.0325076
0.037016
0.0403981
0.0385645
0.0336864
0.0364452
0.0378483
0.0356858
0.0421007
0.0338639
0.0772347
0.0742861
0.0717201
0.0704957
0.0739726
0.0728754
0.075057
0.0717872
0.077531
0.0701392
0.0715616
0.0699015
0.0134433
0.0124705
0.012773
0.017637
0.0113489
0.0120358
0.0101193
0.0157356
0.0124802
0.0154859
0.0117039
0.0166686
0.0164218
0.00994462
0.0118301
0.0141447
0.0162127
0.00397917
0.00726856
0.0109241
0.0155737
0.0153474
0.0102574
0.0129291
0.0178379
0.0164984
0.0189148
0.0192569
0.0151676
0.0166025
0.0177533
0.0194912
0.0172302
0.0199882
0.0164003
0.0230641
0.0131153
0.0165419
0.0159374
0.0150284
0.0133853
0.00442701
0.0153095
0.0116632
0.0509836
0.0457641
0.048904
0.0451736
0.0417576
0.0424341
0.0416245
0.0434039
0.0465276
0.0477412
0.0486367
0.0477234
0.0494432
0.0434246
0.042162
0.0480507
0.0330911
0.0439827
0.0424647
0.0423242
0.0107968
0.0147171
0.00829275
0.00788279
0.011072
0.0108777
0.012652
0.00987896
0.00961908
0.0136398
0.00711971
0.0181496
0.013256
0.0108321
0.0130604
0.0130292
0.0080511
0.0130325
0.0137492
0.0150767
0.0141405
0.0128856
0.01143
0.0114337
0.0115683
0.011008
0.00986929
0.011747
0.0119946
0.0140338
0.0113551
0.010537
0.0411935
0.038836
0.0397159
0.0428326
0.0430787
0.0406667
0.0389919
0.0386003
0.0421882
0.0395256
0.0376103
0.0380587
0.0348402
0.040922
0.0410265
0.0411434
0.0405338
0.0342593
0.0348345
0.0385656
0.043397
0.0425747
0.0328427
0.0324586
0.0287997
0.0286127
0.0294858
0.0308015
0.0320073
0.0283889
0.0273981
0.0287418
0.0287839
0.0298573
0.0315684
0.0279941
0.0331456
-0.00126714
0.00324673
-0.000185454
-0.00206088
-0.000642642
0.0021943
0.00441146
-4.42636e-05
-0.00346988
0.00133691
0.00529355
0.00669331
0.00354707
0.00138227
0.0256297
0.0241424
0.0254912
0.0231307
0.0235785
0.026472
0.0260831
0.0231938
0.0267414
0.0259119
0.02745
0.0298846
0.0284656
0.024001
0.0300776
0.022006
0.023866
0.0437545
0.0415102
0.0426837
0.0381084
0.0416779
0.0437364
0.0422221
0.0451798
0.0433348
0.0401458
0.0352696
0.0365376
0.0382805
0.0424358
0.0451467
0.0444003
0.0363137
0.0383978
0.0382967
0.0456699
0.0727519
0.0713969
0.07463
0.0752816
0.0711935
0.0141042
0.0115971
0.0109245
0.010574
0.00968191
0.00752014
0.00438868
0.012571
0.0164983
0.0157417
0.0126034
0.0166938
0.0482996
0.0497671
0.0414674
0.0388762
0.0405729
0.0426499
0.0433703
0.0450388
0.0394041
0.0412127
0.0415216
0.0430324
0.0384446
0.0436716
0.0449401
0.0448146
0.0436744
0.0446453
0.0476766
0.0477148
0.0445634
0.0442844
0.046489
0.0483232
0.0485269
0.0481297
0.0737057
0.0706091
0.0698854
0.0729283
0.0691617
0.0735089
0.078381
0.0711896
0.0703817
0.0680744
0.068871
0.0682442
0.067893
0.0613383
0.0614787
0.0587724
0.0674138
0.0609179
0.057908
0.0568194
0.0563706
0.0569135
0.0573169
0.0532342
0.0560346
0.0609477
0.0648851
0.0568274
0.00930766
0.0105994
0.0142521
0.0139963
0.0100983
0.00785324
0.0132552
0.00696117
0.0140491
0.061693
0.0624097
0.062758
0.0583345
0.0597976
0.0600033
0.071591
0.0619937
0.0596508
0.0584548
0.0641864
0.0645537
0.0571972
0.0584689
0.0594607
0.0641802
0.065788
0.0658561
0.0649846
0.0674304
0.0654725
0.06719
0.0670478
0.0742235
0.0663578
0.0666697
0.0671132
0.0683057
0.0678811
0.0672437
0.0644885
0.065741
0.067012
0.0680289
0.0706723
0.0650768
0.0173639
0.0196853
0.0187472
0.0187898
0.0217308
0.0210902
0.0168461
0.0236656
0.0211585
0.0233504
0.0200717
0.0242751
0.0232794
0.0231133
0.0234299
0.0247787
0.0300891
0.0321022
0.0317614
0.0312529
0.0287761
0.0271346
0.0282403
0.036587
0.0278623
0.0341424
0.0301327
0.0350795
0.0309013
0.0326219
0.0323447
0.0283773
0.0322769
0.0308731
0.0404973
0.0458678
0.0463786
0.0407586
0.0446654
0.04389
0.0410157
0.0428068
0.0452475
0.046815
0.0442633
0.0439696
0.0456776
0.0476955
0.05039
0.048724
0.0421247
0.02389
0.0255735
0.0248971
0.0218398
0.0209521
0.022053
0.0250783
0.0207771
0.01677
0.0199946
0.0200025
0.0209827
0.0200867
0.0170649
0.0177089
0.0203842
0.0159966
0.0369317
0.0387888
0.0367338
0.0378625
0.0349246
0.0406109
0.0387195
0.0377628
0.0370795
0.0382385
0.0390782
0.0360074
0.0416635
0.042566
0.029177
0.0267012
0.0279366
0.0288014
0.0267373
0.0286053
0.0264434
0.0264727
0.0234685
0.0274147
0.0287505
0.0264639
0.026882
0.0299162
0.0248027
0.0257214
0.0318812
0.0302414
0.0429476
0.0432673
0.0434344
0.0424236
0.0453755
0.040258
0.0387794
0.0394265
0.0348327
0.0332329
0.0350507
0.0331489
0.0405285
0.0354137
0.0372878
0.0409593
0.0407213
0.0363795
0.0346902
0.0391557
0.0709162
0.0682721
0.0706537
0.0688054
0.0673295
0.0670279
0.0762547
0.0753797
0.0717151
0.0724161
0.0706619
0.0695338
0.0716119
0.0731184
0.074454
0.0840202
0.0825999
0.0725338
0.0778914
0.072643
0.0269999
0.0279396
0.0322267
0.0312949
0.0252442
0.0291297
0.0325471
0.0329484
0.0257921
0.0267962
0.0274271
0.0265954
0.0362455
0.0323086
0.028083
0.031454
0.030038
0.0296137
0.0281113
0.0335061
0.0262932
0.0321641
0.0720154
0.0737549
0.0715007
0.0713623
0.0729189
0.068765
0.0801238
0.072259
0.0678261
0.075237
0.0715974
0.0110915
0.0134887
0.0130522
0.0180802
0.0123589
0.0109318
0.0182529
0.0129368
0.0105807
0.0180237
0.014437
0.0129861
0.010755
0.0163447
0.0116671
0.0159545
0.0290808
0.0310304
0.0378438
0.0350816
0.0295272
0.0268788
0.0281058
0.0314528
0.0354935
0.0300336
0.0323333
0.0301732
0.0319835
0.0267258
0.0234845
0.024899
0.0271694
0.0222956
0.0296846
0.0236948
0.0262679
0.0212068
0.032223
0.0271941
0.0177465
0.0203249
0.0152958
0.0152851
0.0181002
0.0160604
0.0144591
0.0133802
0.00760503
0.0151545
0.0123561
0.0128228
0.0108233
0.0115553
0.0123938
0.0198288
0.0161378
0.00135917
0.000381423
0.0119141
0.00543472
-9.12102e-05
0.000648134
-0.00119911
-0.00246473
0.00436367
0.00383795
0.0051593
0.010993
0.0023191
0.00396236
-0.00121602
0.00137563
0.00278081
0.00283603
0.0569348
0.0551392
0.0504464
0.0520029
0.0491328
0.0497816
0.0575659
0.0573201
0.0558809
0.0513995
0.0502873
0.0502466
0.0509837
0.0540905
0.0526368
0.0541523
0.0492811
0.0517437
0.0707683
0.0700457
0.0728567
0.0652981
0.0686868
0.0721568
0.0677499
0.0700749
0.0693041
0.0744648
0.0706501
0.0711352
0.0715852
0.0722322
0.0739447
0.0138124
0.0118714
0.0070173
0.00281042
0.00635982
0.0066199
0.0092131
0.012394
0.00693252
0.00819706
0.00633943
0.00677411
0.00666131
0.00518337
0.0047241
0.012364
0.0103378
0.0104989
0.00544858
0.00719776
0.00700777
0.0500495
0.0496733
0.049758
0.0474382
0.0518754
0.0495128
0.0524417
0.0486081
0.0534356
0.0458278
0.0479529
0.0480508
0.0504048
0.0482324
0.0548433
0.0552601
0.0554691
0.0515573
0.0495213
0.071898
0.0713789
0.0724731
0.0721079
0.0713897
0.0653194
0.0730715
0.0700272
0.0774209
0.073806
0.073336
0.0690182
0.0715162
0.067902
0.0710084
0.0688132
0.0705639
0.063314
0.0496756
0.0501296
0.0512284
0.0530062
0.0518948
0.0474401
0.0487907
0.0483602
0.0466239
0.0492809
0.0509214
0.0535991
0.047024
0.044941
0.0484847
0.0490163
0.0495489
0.0467123
0.0422378
0.0391414
0.0370575
0.0351768
0.0392851
0.0369854
0.0403237
0.0388964
0.0312472
0.0317494
0.0380097
0.0386716
0.0367176
0.0349448
0.0371646
0.0351293
0.0375575
0.0380831
0.00556803
0.00602444
0.00341849
0.00074511
-0.00549891
0.00564336
0.00322429
0.00372677
0.00222787
0.00107017
0.00666178
2.03742e-05
0.00166436
0.00618069
0.00313868
0.00329362
-0.000102221
0.00209477
0.000195997
0.00811272
-0.00745048
-0.00225581
0.00312622
0.00248696
-0.000981111
0.00486196
0.0102122
0.00901766
0.00661906
0.00730211
0.00697245
0.00770609
0.00625041
0.00840859
0.00823462
0.0111627
0.00927581
0.00788477
0.0074837
0.0067842
0.00749947
0.00534731
0.00568933
0.000607869
0.00687224
0.00740112
0.00743543
0.00321934
0.00998739
0.00679939
0.00593187
0.00693085
0.00757305
0.0104863
0.0112413
0.0110361
0.00654206
0.010145
0.00416155
0.0112321
0.00584326
0.0107187
0.0113569
0.00965662
0.0144573
0.0439595
0.0445664
0.0403922
0.0403442
0.0428898
0.0442246
0.0350472
0.0411173
0.0414057
0.0446782
0.0377791
0.0376467
0.0405506
0.0489929
0.045265
0.0514064
0.0491629
0.0481125
0.0488811
0.0418889
0.0461121
0.0441321
0.0502804
0.0432095
0.0496022
0.0506067
0.0499538
0.050525
0.0489499
0.0465287
0.048151
0.0488765
0.0471121
0.0526847
0.0487086
0.0474764
0.0558831
0.0531557
0.0520287
0.0373265
0.0313503
0.0350261
0.0297864
0.0367627
0.0271178
0.0253419
0.0298191
0.0334422
0.0323615
0.038379
0.0356524
0.0293296
0.0284705
0.0315604
0.0338883
0.0359776
0.0376993
0.0660986
0.0644073
0.0648852
0.0676657
0.0679964
0.0715057
0.0685931
0.0694253
0.0605506
0.0652361
0.0662353
0.0627405
0.0607958
0.0722657
0.0620407
0.0657735
0.0610146
0.0573731
0.0532637
0.0565421
0.0571829
0.0569776
0.0545343
0.0512815
0.0514326
0.0568564
0.0550836
0.0614713
0.0560514
0.0557216
0.0488729
0.056526
0.0599388
0.0617006
0.0634822
0.0590392
0.0544929
0.0581255
0.0659684
0.0586873
0.060124
0.0586202
0.0609121
0.0646665
0.0646028
0.0701491
0.0715635
0.0695641
0.0696903
0.0699796
0.0694935
0.0728799
0.070838
0.0713546
0.0723872
0.0744291
0.0712492
0.0711178
0.0755878
0.072256
0.0762251
0.0742433
0.0753257
0.0755191
0.0759235
0.0733945
0.0713685
0.0730377
0.0716218
0.0619796
0.0753148
0.0754483
0.0719452
0.072374
0.0821118
0.0778221
0.0713291
0.0723068
0.074465
0.0143869
0.0112241
0.0154322
0.0143927
0.0179067
0.0100027
0.0163578
0.0150821
0.0166267
0.012399
0.0165851
0.0186376
0.00788403
0.00849397
0.0144381
0.00252924
-0.00332097
0.00505937
0.00349694
0.00260066
0.00301472
0.00523328
0.00516863
0.00666034
0.00329908
0.00326541
0.00567756
0.00371292
0.00348603
0.00308911
0.00432103
0.00240414
0.00290137
0.00388561
0.00481835
0.00416774
0.00543708
0.00321208
0.00535243
0.0027574
0.00280743
0.00186813
0.00477835
0.00235496
0.00350099
0.00280215
0.00533213
0.00491896
0.00386799
0.0771419
0.0816487
0.0787098
0.0746752
0.0715957
0.079533
0.0801132
0.0713343
0.0735447
0.078531
0.0730635
0.0757052
0.0749311
0.0776588
0.0791549
0.0708211
0.06861
0.0619611
0.0680152
0.0636305
0.070596
0.0631702
0.0711774
0.0715204
0.0636198
0.0682204
0.0686273
0.0643587
0.0672418
0.0606826
0.0650005
0.0703239
0.0675402
0.0676485
0.0678667
0.0612243
0.060986
0.0637292
0.0635955
0.056901
0.0592401
0.0586165
0.0583548
0.0619524
0.0595892
0.0567588
0.0555234
0.0518521
0.0582986
0.0579773
0.0523813
0.0555986
0.0596463
0.0535246
0.0566806
0.0533122
0.0529055
0.0584562
0.0596824
0.0581808
0.0571434
0.0524357
0.0468599
0.0538201
0.0496611
0.051221
0.0510253
0.0493659
0.0491661
0.0490208
0.0465164
0.0485143
0.0508265
0.0466777
0.0483305
0.0526149
0.0519989
0.0507781
0.0519168
0.0420607
0.0408429
0.0480093
0.0412992
0.0382354
0.042501
0.0424266
0.0409804
0.0412444
0.0501312
0.0469205
0.0410714
0.0408909
0.0386842
0.0383754
0.044764
0.0426758
0.0454391
0.0384473
0.0367328
0.0430607
0.0396119
0.0433464
0.036614
0.0365228
0.0352367
0.040187
0.031251
0.0295301
0.0337751
0.0409741
0.0409442
0.032766
0.03706
0.0338652
0.0324131
0.0307677
0.0366989
0.0288738
0.0300885
0.0261792
0.030029
0.025836
0.0269683
0.029926
0.0375906
0.0323579
0.0342469
0.0349482
0.0287445
0.0269926
0.0326725
0.0237249
0.0255207
0.0290741
0.0208524
0.0258171
0.021013
0.0228092
0.0246228
0.0159793
0.0163037
0.0189683
0.019765
0.0214833
0.0194262
0.0218318
0.0203807
0.0257415
0.0163062
0.0224057
0.0213076
0.0178359
0.0136823
0.0196014
0.0179525
0.0155268
0.00147798
0.000865697
-0.000140463
0.00209748
0.0131318
0.0105183
0.0204614
0.0166119
0.0143064
0.0133327
0.0172154
0.0111932
0.0154306
0.0115347
0.00690433
0.0146818
0.0134641
-0.000539777
0.00352311
0.00202151
-0.0017726
0.00553724
0.0135897
0.00156
0.00527826
0.0139209
0.00866571
0.00416213
0.0088209
0.00833759
0.00476361
0.00508315
0.0147091
0.00989035
0.00704612
0.00664394
0.014626
0.0172223
0.0083055
0.0105892
0.00615517
-0.000243145
-0.00262706
0.000773925
0.00161275
-0.00184143
0.00443051
0.0013813
0.000301358
-0.00219411
0.00124658
0.00173121
-0.00185121
0.00315009
0.0100233
-0.00128285
0.00764952
-0.000783318
0.00381909
0.00231508
0.00398307
0.00476928
3.37727e-05
0.00252709
1.58455e-05
0.00172141
0.00623651
-0.00278672
0.000520065
0.00385397
0.00269552
0.007803
0.00600429
-0.00317406
0.00310354
0.0082735
0.00590934
0.00671337
0.00900759
0.00469543
0.0052151
0.0102552
0.00523464
0.00459762
0.00583351
0.00682173
0.00633216
0.00470447
0.000887437
0.000114036
0.00763974
0.00960442
0.00609819
0.00222964
-0.000115641
-0.00171359
-0.00229585
-0.00281632
0.0057524
0.0102782
0.0105771
0.00452239
0.00240445
0.00407998
-0.00138968
0.00330044
0.00922625
0.00314199
-0.00182705
-0.000339274
-0.000983175
0.00472177
0.00238197
0.00133172
-0.00360754
0.00455603
0.00803005
0.00172969
0.0012043
0.000749989
0.00159279
-0.00232881
0.00388609
-0.000773538
0.00240688
0.00102809
0.00377802
0.00190452
0.00248439
0.00325401
-0.00192737
0.00200825
-0.00110505
0.00132557
0.0024666
0.00329365
0.00162451
0.00773307
0.00245819
0.00470819
0.00414101
0.000807835
-0.00317352
-0.000636729
0.00171531
-0.000598637
3.34952e-05
0.00771512
0.00415753
0.00567678
0.00884238
0.00629579
0.00163262
0.00149262
-0.000310036
-0.00250436
-0.00145375
0.00477042
0.00603682
0.000547717
-0.000286005
0.00215495
0.00256835
0.0013497
0.00401251
0.00322737
0.000842205
-0.000125921
0.000952473
0.00345752
0.000861311
0.00106056
0.000463474
0.00588094
0.00241191
-0.000371863
0.00233615
0.000930471
0.00376087
-0.00157535
0.00355445
-0.00153352
0.00239077
-0.000555858
0.0041843
-0.000339235
0.00069189
-0.000879429
0.000300666
0.00401525
-0.00307345
-0.000576126
0.00431816
0.006447
0.0046486
-0.00137456
0.002869
-0.00165974
0.00560994
0.00517975
-0.000239598
-0.0029129
0.0031787
0.00695094
0.00505654
0.005249
0.00441039
-0.0033576
0.000150131
-0.00217563
-0.000201056
0.00530948
0.00625178
0.000498326
0.00323216
0.00373701
0.00813224
0.00296955
0.0040528
0.00492347
0.00492643
-0.00325149
0.00265585
0.00169244
0.00906535
0.00599558
0.0064026
0.00880016
0.00306312
0.000606164
0.00610968
0.00675186
0.00265723
-0.000461566
0.00307987
0.00242069
0.000883397
-0.00138461
0.00176849
-0.000912405
0.00449487
0.0063302
0.00897275
0.00304644
0.0020264
0.0110421
0.00174878
-0.000957138
0.00796113
0.00010521
0.00340719
0.0014106
0.00272418
0.0040206
-0.00138964
0.0037775
0.00855399
0.000691643
0.00282846
0.00174138
0.00569866
-0.0010063
1.08529e-05
0.00551658
0.00162239
0.00193194
0.00901834
0.00577681
0.00836006
0.00145368
-0.00629791
0.00518643
0.00612751
-0.000102981
0.00291712
0.00572296
0.00232578
0.0065738
-0.000355371
0.000980469
-0.001543
0.00632934
0.00826071
0.00514279
0.00208621
0.00505182
-0.00152011
0.00884585
0.00548397
0.00559182
0.00151998
-0.00113904
0.00478704
0.00313597
0.00516134
0.00631614
-0.000954213
-0.001315
0.00223908
-0.00359456
0.00726793
0.00918533
0.00792278
0.00776786
0.00527585
0.00356241
-0.000774215
0.00447795
0.00827846
0.00121897
-0.000467145
0.00104536
0.000894734
0.00479018
0.00289022
0.00220636
0.000629528
0.00314427
0.000637945
-0.00186531
0.00825419
0.00673763
0.00570743
-0.00256961
0.0016954
0.00787472
0.00345824
-0.00157185
0.00200025
9.37975e-05
-0.00144987
0.0046494
0.00420886
0.007495
-0.0046229
0.00373248
0.00207154
0.00644444
0.00349696
0.00340916
0.00302424
0.00147478
0.00238352
-0.00127453
0.000343514
0.00358609
-0.00257385
0.00133325
-2.16392e-06
0.00211445
0.001046
-0.000656673
0.000693216
9.74861e-05
-6.57534e-05
0.00377945
0.00406638
0.00374965
0.0031006
0.00387725
-0.000990528
0.00338892
-0.000517381
0.000418738
0.00362149
0.000688523
0.0138251
0.00935733
0.00792971
0.00601923
0.00654957
0.0100216
0.00556684
0.00736764
0.00550002
0.00938754
0.0112657
0.00589795
0.0112268
0.00170789
0.00949657
0.00774138
0.00863262
0.00514336
0.00727228
0.00609847
0.00469303
0.0092527
0.00708385
0.00514813
0.00669937
0.00523309
0.0133572
0.00686504
0.0126319
0.00904856
0.0118976
0.00862455
-0.00750966
0.00669441
0.00277684
0.000215942
0.00284698
0.00167215
0.000153834
-0.00585289
0.00444769
0.00182114
0.00122348
-0.0012465
-0.0018874
0.0017361
-0.000699157
0.000502567
0.00460005
0.00268256
0.00376243
-8.1022e-05
0.0101445
0.0155368
0.0095588
0.0092238
0.00573861
0.00748475
0.0177337
0.0112011
0.00591631
0.00661982
0.00618078
0.00662939
0.0111478
0.0161316
0.0130734
0.00406812
0.0183091
0.0157059
0.00913795
0.00923938
0.00366967
0.00388335
0.00252249
0.00779081
0.0118472
0.00724276
0.00823139
0.00746
0.00589899
0.00425465
0.0103646
0.00885213
0.0097283
0.00484072
0.0126793
0.00806747
0.0125244
0.00900346
0.00341412
0.00886292
0.00422074
0.00189557
0.00866308
0.00941533
0.0115105
0.0123486
0.00703828
0.00569427
0.00380218
0.00781243
0.00251203
0.00813879
0.010329
0.0119346
0.00631318
0.00938436
-0.000811645
0.00163324
0.00921762
-0.00244388
0.01828
0.018085
0.0082589
0.0139516
0.0175818
0.0162557
0.0148583
0.0140157
0.0177579
0.0142876
0.0148198
0.014403
0.0125789
0.00972531
0.0113488
0.0179956
0.0131016
0.00559522
0.0115859
0.00711744
0.0171463
0.0129267
0.0109679
0.0180684
0.0149295
0.0105639
0.0132975
0.0128961
0.0252376
0.0191004
0.0231599
0.0230876
0.0156508
0.0202811
0.0137485
0.011421
0.0186257
0.00979983
0.0159165
0.0191269
0.0190873
0.0149793
0.0170502
0.0118826
0.0210223
0.0132982
0.0138952
0.0166856
0.0170963
0.0234113
0.0147609
0.0204371
0.0158428
0.022773
0.0176716
0.0143811
0.0112903
0.0169622
0.0220427
0.00893845
0.00754075
0.00995631
0.011339
0.0148759
0.0146751
-0.000257486
0.00114693
0.000457021
0.000648504
0.00064381
0.00254659
0.000521856
0.00206788
0.00361012
0.0234285
0.0194615
0.0188541
0.017126
0.0159304
0.0160513
0.0196616
0.0258982
0.0178903
0.0217095
0.0199251
0.0212462
0.0155718
0.0195011
0.0120666
0.019612
0.0191657
0.0247668
0.0208051
0.0190966
0.0175924
0.0201134
0.00937055
0.0154904
0.0117907
0.0161347
0.0101709
0.00716781
0.0104317
0.0134493
0.011431
0.0120476
0.0164619
0.0177063
0.0145819
0.0128294
0.00863938
0.00757489
0.0133716
0.0154835
0.013494
0.00826666
0.0109808
0.0253236
0.0139342
0.0207503
0.021732
0.0155399
0.0145021
0.0249128
0.022556
0.0199127
0.0193959
0.0221709
0.0222542
0.0181107
0.00889783
0.018614
0.0156757
0.0143633
0.0214888
0.0193592
0.0175829
0.019982
0.0165375
0.0240831
0.0170881
0.0206323
0.0240932
0.0229155
0.0266263
0.0309228
0.0224598
0.0196308
0.0272858
0.0306917
0.0275889
0.0175254
0.0238586
0.0258279
0.0255467
0.0239568
0.0228219
0.022126
0.0262383
0.0304634
0.0242182
0.0203284
0.0195314
0.0216592
0.0175713
0.0240231
0.0235589
0.0195612
0.0215819
0.0196761
0.0120023
0.0168833
0.0213524
0.0220072
0.0179322
0.0181641
0.0251894
0.0217011
0.0203905
0.0244872
0.0237561
0.0161007
0.0163513
0.0167167
0.0175042
0.0195899
0.0159205
0.0163109
0.012634
0.0123371
0.0148382
0.0281623
0.0259527
0.0260883
0.029536
0.0214664
0.0249401
0.0258037
0.0239748
0.0251636
0.0171505
0.0173474
0.0142459
0.0223965
0.0169889
0.0170806
0.0200443
0.0165113
0.0221449
0.0229293
0.0200784
0.0256068
0.0240864
0.0165747
0.019714
0.0211246
0.0189398
0.0191172
0.0209939
0.0210803
0.0336361
0.0291896
0.0229503
0.0272548
0.0257725
0.0306414
0.0245398
0.0226174
0.0263466
0.0276167
0.0322327
0.0205439
0.0235266
0.0250642
0.0271695
0.0228959
0.0261503
0.028273
0.0231755
0.0214377
0.0249143
0.038668
0.0330519
0.0263655
0.0293839
0.0269655
0.0250614
0.0309925
0.0270057
0.0272459
0.0288667
0.0294085
0.028638
0.0279045
0.0277434
0.0234849
0.0323653
0.0169695
0.0232649
0.0201391
0.0175809
0.0228305
0.0346
0.0346188
0.0317479
0.0272605
0.0372859
0.0321288
0.0252196
0.0344062
0.0330066
0.0336152
0.0331977
0.0311987
0.0242502
0.0265016
0.0281683
0.0341982
0.0326497
0.0320994
0.0293313
0.0263629
0.0279942
0.0297292
0.0249659
0.0213102
0.0292782
0.0410294
0.034074
0.0277585
0.0293781
0.0305531
0.0330402
0.0311392
0.0357966
0.0359322
0.0302524
0.027896
0.0391242
0.0432242
0.0344564
0.030869
0.0324985
0.0304873
0.0271589
0.0301557
0.023635
0.0250575
0.0358491
0.0348608
0.0280562
0.0331806
0.0320254
0.0287954
0.0260394
0.0376872
0.0354289
0.0321501
0.0339795
0.0369936
0.0334488
0.025238
0.0294567
0.0282561
0.0241849
0.0199261
0.0205868
0.0282335
0.0250613
0.0273857
0.0262591
0.0363149
0.0339089
0.0333122
0.0389197
0.0322852
0.0300767
0.0310907
0.0366636
0.0305514
0.0263124
0.0292948
0.0300294
0.0287034
0.0302987
0.0177567
0.0282515
0.026083
0.0242816
0.0175914
0.0263677
0.024798
0.0236252
0.0278351
0.0326015
0.0273708
0.0307263
0.0286884
0.0280539
0.0341932
0.030907
0.043872
0.0390998
0.0323141
0.0354245
0.0357853
0.0367272
0.0314232
0.0349652
0.0370496
0.0401147
0.0321705
0.0331414
0.0253613
0.0263254
0.0380138
0.0325444
0.0332307
0.0315719
0.0379695
0.0332385
0.0335256
0.0303338
0.0279624
0.0229965
0.0309284
0.0299571
0.0276561
0.0278916
0.0303963
0.0337068
0.0291905
0.0315411
0.0289458
0.028967
0.0362181
0.0345581
0.0396715
0.035785
0.0317324
0.0381215
0.0340433
0.0358263
0.0328369
0.0373997
0.0348627
0.0318923
0.0368735
0.0337036
0.0392745
0.0361711
0.0278942
0.0308552
0.0288482
0.0279359
0.0236484
0.0259157
0.0277176
0.0342817
0.0419059
0.0342639
0.0310281
0.0369206
0.0342017
0.0384795
0.0374852
0.0407478
0.0378036
0.036927
0.0338785
0.0305712
0.032493
0.0457935
0.0378158
0.0399082
0.0429228
0.0415201
0.0420368
0.0408994
0.0415403
0.0406201
0.0407353
0.0359235
0.0407437
0.0335056
0.0313291
0.0347702
0.0400329
0.0348433
0.0327745
0.037107
0.0372652
0.0281435
0.0328153
0.0349193
0.031875
0.0304667
0.0356064
0.0278099
0.0216784
0.0249942
0.0324391
0.0285949
0.0293883
0.0342533
0.0342917
0.0379787
0.0361353
0.0336621
0.0301821
0.0272973
0.0298739
0.0280506
0.0283911
0.0464729
0.0417277
0.0368363
0.0349928
0.0387538
0.0359431
0.0324309
0.0335446
0.0374092
0.0384839
0.0360075
0.0327897
0.0436439
0.0395727
0.0348688
0.037803
0.0471873
0.0400932
0.045028
0.0382841
0.0369076
0.0370716
0.0436768
0.0407064
0.0427099
0.0423307
0.0414862
0.0396163
0.0317485
0.0385817
0.0316325
0.032478
0.0308674
0.0404572
0.0351269
0.0356092
0.0344976
0.0346886
0.0332043
0.0404375
0.0466008
0.0462764
0.0401638
0.047944
0.042404
0.0518559
0.048453
0.0458275
0.0421113
0.0514237
0.0433695
0.0419682
0.0478919
0.0437477
0.0403575
0.049195
0.0453174
0.0470031
0.0451291
0.0420259
0.0497316
0.0447538
0.0422601
0.0403564
0.046782
0.0423025
0.0438919
0.0452342
0.0369479
0.0404007
0.0388637
0.0369986
0.0425774
0.0378513
0.048618
0.0437882
0.0467661
0.0353518
0.0418058
0.0378959
0.0349862
0.0357539
0.0336378
0.0360977
0.0509965
0.0413832
0.0391886
0.042406
0.0451412
0.0486835
0.0499584
0.0484107
0.047852
0.0401036
0.0442954
0.0428084
0.0437156
0.0458969
0.0487756
0.039794
0.039725
0.0450038
0.0516082
0.0476241
0.037919
0.0421599
0.0482767
0.0444323
0.0443404
0.0482131
0.0372077
0.0412281
0.0450368
0.0432977
0.0424914
0.0367114
0.0333261
0.034607
0.0381418
0.0379365
0.0495609
0.0456576
0.039951
0.0437011
0.0492821
0.0435011
0.0389704
0.0434789
0.0389311
0.0452302
0.0464405
0.0451738
0.0383823
0.0384314
0.029092
0.0408358
0.0381186
0.0367731
0.0346107
0.047624
0.0493511
0.0420378
0.045625
0.0493706
0.0490666
0.046313
0.0404758
0.0399164
0.0401419
0.062394
0.0588238
0.0509467
0.0519699
0.0504997
0.0508384
0.0552483
0.0474802
0.0510127
0.0537571
0.0579874
0.0517025
0.0489225
0.0494153
0.0468626
0.0526665
0.0525809
0.0422103
0.0430476
0.0491202
0.0477173
0.0454969
0.0525515
0.0500623
0.0519479
0.0594252
0.0525347
0.0527035
0.0555534
0.0499599
0.0488249
0.0581152
0.0568454
0.0509997
0.0498271
0.051894
0.05683
0.0498647
0.0494779
0.0537083
0.0515876
0.0516381
0.0476826
0.0501466
0.0477767
0.0433198
0.0438399
0.0567694
0.0530134
0.0462287
0.0497042
0.0507369
0.0530613
0.0518476
0.0530198
0.0492581
0.0595777
0.05497
0.0520886
0.055791
0.0487728
0.0507507
0.050414
0.050436
0.0499782
0.0464137
0.0476077
0.0475144
0.0394232
0.0413073
0.0392725
0.0481888
0.0480725
0.0527461
0.0484773
0.0501782
0.046881
0.0558682
0.0543776
0.0475908
0.0539932
0.0462166
0.0522829
0.0506949
0.0461461
0.0427543
0.0543878
0.0499627
0.0476379
0.0453551
0.046529
0.0545235
0.0520279
0.0496033
0.051601
0.053231
0.0541595
0.052062
0.0501942
0.0566406
0.0517686
0.0523729
0.0475284
0.0500967
0.0535277
0.048542
0.0476499
0.0414437
0.0495605
0.0555207
0.053682
0.0496603
0.0542125
0.0501598
0.043926
0.0487214
0.0457292
0.0477554
0.0541361
0.0631017
0.0595221
0.0616986
0.0567397
0.0560653
0.0569277
0.0569036
0.0574942
0.0532853
0.0530061
0.0516092
0.0522548
0.0489127
0.0508527
0.0463333
0.0476677
0.0486128
0.0491558
0.0470418
0.0573596
0.0618042
0.0596957
0.0543377
0.0585341
0.0659855
0.065421
0.060108
0.057654
0.0555198
0.0561351
0.0576151
0.0571391
0.0536883
0.0522889
0.0541566
0.0555061
0.0483798
0.0579212
0.0544634
0.056361
0.0606575
0.0613252
0.0578575
0.0557589
0.0580008
0.0564462
0.0640891
0.0569315
0.0575008
0.0543327
0.0595704
0.0583925
0.0608594
0.0597774
0.0569018
0.0572928
0.0520509
0.0530643
0.0552414
0.0585828
0.0531056
0.0483352
0.0509354
0.0534485
0.0532284
0.050586
0.0507704
0.0618677
0.054732
0.0597367
0.0478987
0.0566218
0.0579696
0.0606992
0.0557844
0.0598547
0.0546515
0.0628194
0.048953
0.0537861
0.0505023
0.0537995
0.0514716
0.0563972
0.0529717
0.0470971
0.0511467
0.059529
0.0573688
0.0579751
0.0586613
0.0615712
0.0564459
0.0604896
0.0510161
0.0519007
0.0488646
0.0498593
0.0686974
0.0688104
0.0609331
0.0575672
0.0674354
0.062499
0.0598673
0.0604451
0.054717
0.0564117
0.0578584
0.0551681
0.0529199
0.0591807
0.0580906
0.0565633
0.0577588
0.0480798
0.056941
0.0532132
0.0516692
0.0554561
0.0619089
0.0551402
0.051051
0.0542291
0.0624865
0.0592384
0.0542518
0.0556188
0.054346
0.056405
0.0572242
0.0578902
0.0584095
0.0564408
0.05013
0.0550668
0.0509682
0.0508076
0.0480355
0.0604763
0.0636613
0.0611344
0.0656043
0.0678814
0.0658903
0.0657321
0.061844
0.0599424
0.0639939
0.0613063
0.0531995
0.0593981
0.0565151
0.0543548
0.0582531
0.0541716
0.0536557
0.0645937
0.0648403
0.0580756
0.0604499
0.0623303
0.0615992
0.0600423
0.0623004
0.0644348
0.0585866
0.0609438
0.0653432
0.0599018
0.0663664
0.0630032
0.0568387
0.060665
0.059822
0.0638025
0.0656242
0.0694827
0.0630507
0.0658191
0.0605049
0.0615902
0.060809
0.0614078
0.0629468
0.0583651
0.0551402
0.0598397
0.0567788
0.0598046
0.0596322
0.056825
0.059059
0.0555789
0.051435
0.0621677
0.058386
0.0561312
0.0586774
0.0559072
0.0541101
0.07153
0.0668333
0.0728225
0.0677187
0.0564587
0.0626791
0.070709
0.0672808
0.0638179
0.0689335
0.0620822
0.0639648
0.0649774
0.067438
0.0729902
0.0615354
0.0628316
0.0602819
0.0710792
0.0664842
0.0709396
0.0617471
0.0639506
0.0652787
0.0679516
0.0646341
0.0679589
0.0659629
0.0590908
0.057575
0.066226
0.0557916
0.066797
0.0577197
0.0651878
0.0656235
0.0734735
0.0713503
0.0710968
0.0743922
0.0776989
0.0723919
0.0741705
0.0691533
0.0643144
0.0675561
0.060908
0.0670689
0.0613619
0.0622448
0.0655558
0.074571
0.0687841
0.0671813
0.0713431
0.072702
0.0691458
0.0637371
0.0699082
0.0680631
0.0722637
0.0642071
0.0717409
0.0679758
0.0671274
0.0621267
0.0647163
0.0743769
0.0690564
0.0720447
0.0668237
0.0657433
0.0700545
0.0702077
0.06169
0.0636238
0.0663816
0.0673543
0.0618787
0.0627412
0.0675351
0.0683413
0.068139
0.0684285
0.0731489
0.0650042
0.0706107
0.0696388
0.0680669
0.0741255
0.07075
0.067164
0.0682522
0.0677831
0.0691574
0.0705159
0.0649255
0.0678827
0.0660188
0.0635729
0.0665707
0.0670934
0.0658049
0.0647648
0.0719152
0.062035
0.0639037
0.0697059
0.06459
0.0630785
0.0699608
0.068673
0.071273
0.0654667
0.0669902
0.0730711
0.0760336
0.0730291
0.0641074
0.0644263
0.0673173
0.0712354
0.0668815
0.0738274
0.0689708
0.0720718
0.0719309
0.0680384
0.0795485
0.0692947
0.0703704
0.0683199
0.0635128
0.0631523
0.0663064
0.0604326
0.0583133
0.0626568
0.0647858
0.0624703
0.069521
0.0609578
0.0687677
0.0634779
0.0630994
0.0704312
0.0671636
0.0697522
0.0676237
0.0698817
0.0738238
0.0703704
0.0689703
0.066341
0.0748152
0.0817854
0.0832584
0.0828394
0.0823802
0.0771912
0.0774744
0.0784184
0.0766492
0.0766521
0.0743403
0.0688546
0.0696002
0.0672125
0.0699432
0.0746505
0.0763748
0.0697095
0.0702549
0.0743088
0.0702219
0.0683624
0.0715753
0.0711422
0.0704924
0.0716118
0.0703262
0.0752416
0.0741447
0.0715601
0.0681665
0.069028
0.0706269
0.0733035
0.0681064
0.0739391
0.0777219
0.0742283
0.0703855
0.074697
0.0757005
0.0723606
0.0688521
0.0656071
0.0750153
0.070728
0.0744351