/*--------------------------------*- C++ -*----------------------------------*\
| =========                 |                                                 |
| \\      /  F ield         | OpenFOAM: The Open Source CFD Toolbox           |
|  \\    /   O peration     | Version:  v1612+                                |
|   \\  /    A nd           | Web:      www.OpenFOAM.com                      |
|    \\/     M anipulation  |                                                 |
\*---------------------------------------------------------------------------*/
FoamFile
{
    version     2.0;
    format      ascii;
    class       volVectorField;
    location    "150";
    object      U;
}
// * * * * * * * * * * * * * * * * * * * * * * * * * * * * * * * * * * * * * //

dimensions      [0 1 -1 0 0 0 0];

internalField   nonuniform List<vector> 
18855
(
(0.332249 0.481277 -0.151175)
(0.349365 0.514615 -0.161795)
(0.354035 0.515326 -0.158621)
(0.35574 0.535337 -0.160742)
(0.334388 0.511124 -0.152342)
(0.591937 0.89067 -0.255578)
(0.605799 0.90773 -0.268445)
(0.595244 0.88867 -0.266091)
(0.610087 0.916051 -0.272512)
(0.619196 0.931295 -0.271854)
(0.604638 0.905488 -0.264776)
(0.637203 0.953363 -0.27795)
(0.6028 0.89696 -0.263383)
(0.638696 0.958448 -0.279465)
(0.6198 0.929993 -0.271196)
(0.633171 0.950892 -0.279458)
(0.658271 0.992957 -0.290017)
(0.660503 0.994133 -0.290014)
(0.353675 0.516531 -0.158123)
(0.359689 0.530609 -0.170144)
(0.425693 0.63319 -0.190439)
(0.404929 0.5979 -0.188685)
(0.328161 0.48825 -0.158459)
(0.331109 0.477608 -0.161486)
(0.334931 0.478557 -0.159902)
(0.312756 0.457058 -0.141524)
(0.433499 0.63815 -0.207143)
(0.4515 0.671111 -0.209584)
(0.374839 0.559694 -0.180099)
(0.363139 0.545862 -0.174374)
(0.347719 0.505573 -0.161128)
(0.42668 0.624609 -0.198897)
(0.477305 0.702396 -0.225638)
(0.458078 0.671671 -0.215613)
(0.472946 0.698365 -0.219134)
(0.472045 0.693237 -0.223533)
(0.380399 0.564375 -0.182172)
(0.453588 0.667444 -0.206618)
(0.417573 0.62228 -0.198961)
(0.467081 0.680433 -0.220495)
(0.51151 0.746228 -0.239105)
(0.516669 0.760035 -0.244042)
(0.354776 0.522396 -0.163256)
(0.37668 0.555605 -0.177475)
(0.351525 0.517917 -0.16632)
(0.304603 0.453366 -0.146754)
(0.403071 0.592688 -0.188018)
(0.366391 0.547008 -0.171721)
(0.33839 0.506776 -0.165845)
(0.319002 0.470302 -0.153263)
(0.397137 0.592175 -0.190311)
(0.375938 0.543184 -0.173978)
(0.420583 0.631468 -0.199382)
(0.374804 0.560446 -0.175482)
(0.310244 0.447742 -0.148174)
(0.404465 0.59826 -0.19295)
(0.371582 0.540469 -0.174058)
(0.343106 0.502871 -0.158155)
(0.427667 0.636422 -0.207855)
(0.429378 0.629012 -0.190948)
(0.435378 0.63598 -0.19654)
(0.299568 0.434819 -0.129714)
(0.336004 0.483828 -0.150119)
(0.367033 0.542278 -0.164184)
(0.45218 0.672538 -0.202775)
(0.466615 0.687775 -0.211907)
(0.319556 0.471793 -0.146383)
(0.344712 0.503312 -0.157713)
(0.437112 0.643749 -0.196641)
(0.416781 0.612593 -0.185935)
(0.373425 0.549207 -0.170316)
(0.367895 0.538645 -0.166742)
(0.347074 0.517357 -0.169662)
(0.408523 0.611049 -0.193251)
(0.336992 0.486936 -0.151572)
(0.363138 0.524872 -0.168664)
(0.367361 0.545655 -0.170552)
(0.336243 0.499345 -0.163639)
(0.363224 0.551233 -0.173809)
(0.392829 0.592666 -0.18168)
(0.438066 0.655617 -0.201231)
(0.41806 0.627983 -0.195022)
(0.452815 0.66599 -0.201512)
(0.342964 0.513646 -0.164882)
(0.302049 0.454469 -0.144199)
(0.382595 0.56259 -0.168665)
(0.421069 0.618858 -0.19358)
(0.349851 0.522715 -0.16937)
(0.328991 0.48991 -0.162416)
(0.364366 0.535552 -0.182315)
(0.341071 0.506167 -0.166766)
(0.304823 0.450442 -0.137999)
(0.414563 0.620868 -0.189455)
(0.407971 0.614897 -0.185106)
(0.336715 0.5058 -0.166318)
(0.351262 0.52795 -0.16988)
(0.41053 0.610713 -0.195032)
(0.413339 0.61872 -0.195032)
(0.365438 0.547755 -0.165647)
(0.329823 0.492774 -0.155592)
(0.300093 0.44956 -0.145857)
(0.350238 0.519261 -0.159404)
(0.326909 0.486293 -0.152676)
(0.294112 0.439798 -0.132876)
(0.472971 0.708597 -0.210336)
(0.463216 0.694859 -0.211876)
(0.514212 0.758055 -0.231953)
(0.45038 0.664292 -0.203435)
(0.508596 0.751508 -0.227185)
(0.466529 0.690183 -0.214825)
(0.433936 0.643083 -0.191336)
(0.525053 0.778065 -0.240629)
(0.502186 0.742019 -0.223748)
(0.472587 0.695696 -0.208828)
(0.480569 0.711826 -0.216615)
(0.518381 0.771434 -0.235353)
(0.466387 0.679195 -0.226751)
(0.422898 0.617629 -0.199138)
(0.374188 0.547501 -0.175291)
(0.351309 0.489303 -0.163334)
(0.437315 0.642721 -0.211236)
(0.394738 0.577648 -0.184745)
(0.360642 0.505407 -0.155925)
(0.360625 0.518121 -0.16411)
(0.362082 0.508638 -0.16365)
(0.361814 0.527548 -0.172511)
(0.331969 0.470008 -0.145997)
(0.360852 0.534688 -0.175305)
(0.3167 0.468966 -0.157379)
(0.380581 0.559547 -0.179679)
(0.351417 0.522664 -0.169124)
(0.389459 0.56653 -0.180559)
(0.385912 0.575061 -0.183826)
(0.362124 0.539188 -0.173297)
(0.440278 0.648215 -0.21315)
(0.36833 0.54034 -0.177133)
(0.43895 0.646926 -0.211107)
(0.34846 0.517334 -0.169119)
(0.334609 0.486987 -0.165168)
(0.382158 0.573645 -0.180558)
(0.350871 0.524404 -0.168573)
(0.321682 0.475778 -0.152914)
(0.434747 0.642728 -0.20903)
(0.448049 0.660088 -0.211591)
(0.453974 0.674096 -0.220918)
(0.388347 0.57618 -0.188374)
(0.576125 0.878331 -0.258795)
(0.595363 0.901793 -0.262507)
(0.529915 0.796305 -0.237262)
(0.506551 0.760727 -0.22269)
(0.524146 0.791915 -0.232005)
(0.539234 0.819319 -0.237476)
(0.603199 0.910128 -0.268052)
(0.536643 0.808989 -0.236562)
(0.603814 0.903827 -0.261308)
(0.604011 0.905729 -0.262757)
(0.567461 0.856977 -0.255275)
(0.600515 0.899017 -0.258283)
(0.34971 0.507447 -0.158408)
(0.311117 0.446521 -0.13924)
(0.344009 0.491784 -0.157844)
(0.329798 0.470496 -0.148014)
(0.364019 0.524317 -0.168497)
(0.343836 0.49102 -0.154421)
(0.29776 0.429477 -0.133513)
(0.360373 0.515229 -0.156042)
(0.324358 0.465552 -0.143786)
(0.382706 0.559678 -0.168428)
(0.415254 0.60741 -0.191225)
(0.464883 0.653194 -0.213968)
(0.373947 0.543589 -0.171609)
(0.459952 0.679711 -0.212879)
(0.436501 0.639872 -0.206321)
(0.460576 0.675283 -0.218229)
(0.463057 0.669632 -0.207616)
(0.351677 0.517579 -0.161756)
(0.336456 0.481762 -0.15399)
(0.348459 0.502369 -0.160368)
(0.387793 0.552778 -0.173998)
(0.428748 0.61781 -0.19855)
(0.43648 0.633139 -0.193611)
(0.383116 0.548322 -0.175662)
(0.545559 0.793302 -0.261003)
(0.563255 0.820717 -0.263866)
(0.489977 0.722931 -0.229619)
(0.468397 0.682533 -0.223151)
(0.492104 0.730663 -0.229924)
(0.5573 0.815211 -0.261642)
(0.581118 0.849677 -0.275255)
(0.560991 0.815557 -0.262048)
(0.571814 0.834331 -0.267251)
(0.551476 0.797472 -0.258122)
(0.462609 0.672575 -0.218529)
(0.472616 0.682048 -0.22747)
(0.460938 0.661955 -0.21885)
(0.506487 0.743448 -0.241299)
(0.48434 0.709153 -0.231339)
(0.481725 0.705026 -0.231718)
(0.448949 0.646229 -0.208423)
(0.478843 0.698215 -0.233801)
(0.470254 0.68883 -0.21625)
(0.467131 0.695022 -0.220247)
(0.468827 0.709936 -0.22239)
(0.447824 0.663257 -0.204094)
(0.49064 0.737744 -0.227847)
(0.517814 0.768199 -0.241796)
(0.479944 0.711499 -0.224775)
(0.485756 0.716321 -0.233245)
(0.502309 0.733089 -0.225918)
(0.509379 0.745807 -0.23819)
(0.514568 0.768045 -0.243233)
(0.480296 0.719139 -0.222092)
(0.394227 0.581974 -0.192579)
(0.383893 0.574745 -0.189063)
(0.354986 0.549031 -0.173678)
(0.499443 0.738094 -0.228359)
(0.428715 0.635847 -0.203393)
(0.367356 0.548574 -0.17654)
(0.370062 0.530434 -0.179946)
(0.369268 0.556627 -0.183577)
(0.377519 0.562962 -0.175528)
(0.446944 0.664654 -0.209383)
(0.365006 0.532626 -0.168974)
(0.385927 0.574005 -0.183122)
(0.406336 0.601156 -0.185591)
(0.407073 0.592377 -0.185871)
(0.37529 0.541388 -0.173173)
(0.445991 0.638665 -0.194141)
(0.33544 0.485978 -0.147813)
(0.334734 0.495901 -0.15761)
(0.366513 0.525861 -0.166744)
(0.380642 0.562887 -0.174316)
(0.425101 0.626116 -0.195391)
(0.472857 0.673882 -0.206286)
(0.37944 0.574113 -0.184307)
(0.472004 0.686462 -0.224687)
(0.45997 0.66595 -0.214205)
(0.651913 0.950442 -0.306852)
(0.621328 0.90229 -0.294761)
(0.644075 0.944946 -0.303736)
(0.664938 0.978534 -0.311984)
(0.67236 0.977563 -0.316421)
(0.632342 0.932768 -0.297233)
(0.641229 0.939462 -0.304597)
(0.668595 0.977468 -0.312676)
(0.671862 0.986371 -0.313807)
(0.621884 0.89243 -0.283997)
(0.658223 0.965538 -0.304862)
(0.652782 0.958237 -0.3072)
(0.632108 0.916066 -0.294194)
(0.670822 0.981251 -0.315145)
(0.661058 0.96761 -0.309673)
(0.619647 0.908148 -0.290883)
(0.626926 0.916471 -0.296639)
(0.659973 0.976905 -0.309879)
(0.62919 0.938012 -0.294298)
(0.667123 0.987757 -0.31284)
(0.689349 1.01688 -0.320751)
(0.634716 0.942783 -0.302414)
(0.602529 0.894371 -0.280339)
(0.665927 0.984344 -0.310509)
(0.664001 0.984251 -0.314779)
(0.640855 0.955056 -0.300613)
(0.676583 1.00335 -0.316175)
(0.617076 0.917706 -0.28921)
(0.628982 0.931719 -0.292059)
(0.625685 0.930643 -0.288036)
(0.596664 0.881393 -0.278375)
(0.593571 0.884438 -0.279577)
(0.592085 0.88596 -0.279045)
(0.59082 0.87232 -0.277955)
(0.593166 0.879276 -0.277411)
(0.600822 0.888116 -0.283642)
(0.647935 0.956231 -0.306066)
(0.641768 0.946858 -0.296862)
(0.60183 0.890578 -0.281706)
(0.660312 0.96598 -0.314549)
(0.638452 0.937027 -0.299938)
(0.643176 0.943545 -0.302914)
(0.648688 0.950083 -0.310001)
(0.659518 0.968425 -0.312302)
(0.611174 0.895371 -0.285817)
(0.633203 0.935189 -0.301214)
(0.609775 0.895878 -0.285127)
(0.637165 0.928526 -0.303224)
(0.614721 0.898953 -0.290385)
(0.641518 0.9373 -0.306089)
(0.597693 0.878775 -0.283081)
(0.628998 0.922067 -0.299996)
(0.598269 0.876506 -0.281197)
(0.630499 0.925674 -0.300223)
(0.33283 0.49553 -0.147151)
(0.310168 0.466694 -0.139229)
(0.376916 0.556575 -0.173547)
(0.351201 0.514908 -0.16357)
(0.287279 0.425038 -0.132751)
(0.389825 0.560394 -0.182626)
(0.307751 0.45669 -0.145255)
(0.355928 0.54521 -0.170347)
(0.376649 0.559053 -0.170746)
(0.33645 0.490724 -0.15349)
(0.418849 0.615298 -0.196432)
(0.421797 0.612978 -0.194443)
(0.347391 0.51184 -0.162989)
(0.364639 0.533774 -0.16533)
(0.372972 0.538775 -0.174624)
(0.347107 0.507323 -0.165595)
(0.353924 0.502791 -0.16638)
(0.321477 0.458681 -0.154482)
(0.469929 0.678754 -0.22313)
(0.440311 0.644818 -0.210915)
(0.353006 0.516565 -0.169847)
(0.322637 0.470705 -0.152505)
(0.469428 0.691814 -0.225833)
(0.440261 0.645268 -0.210947)
(0.411007 0.609448 -0.194598)
(0.374158 0.541516 -0.1772)
(0.330916 0.478192 -0.155216)
(0.374812 0.530673 -0.175083)
(0.43425 0.643566 -0.205417)
(0.372264 0.538882 -0.172503)
(0.33913 0.510553 -0.166462)
(0.544422 0.801378 -0.247413)
(0.507531 0.749632 -0.229411)
(0.513966 0.763286 -0.232073)
(0.467799 0.698949 -0.203859)
(0.537949 0.790807 -0.243853)
(0.49277 0.727354 -0.226817)
(0.52333 0.759909 -0.232872)
(0.514101 0.767958 -0.232439)
(0.532971 0.788543 -0.242666)
(0.468215 0.698775 -0.22186)
(0.399019 0.617029 -0.188129)
(0.481723 0.713347 -0.219981)
(0.443618 0.659197 -0.206682)
(0.464463 0.680304 -0.214749)
(0.47094 0.692274 -0.212062)
(0.443008 0.669448 -0.203301)
(0.460352 0.679537 -0.20907)
(0.43156 0.636092 -0.188094)
(0.429007 0.625703 -0.190708)
(0.444768 0.658471 -0.195574)
(0.372721 0.546127 -0.13949)
(0.33564 0.501043 -0.125806)
(0.422854 0.63025 -0.166701)
(0.377653 0.559452 -0.144773)
(0.416145 0.617875 -0.16243)
(0.536246 0.783738 -0.25047)
(0.54585 0.803086 -0.254609)
(0.530153 0.778859 -0.245017)
(0.53867 0.791022 -0.249462)
(0.4642 0.684705 -0.223845)
(0.465624 0.672435 -0.219037)
(0.427061 0.622903 -0.201081)
(0.458 0.680353 -0.221565)
(0.486454 0.708111 -0.232254)
(0.442543 0.635111 -0.207094)
(0.496352 0.734653 -0.236928)
(0.45271 0.64366 -0.208817)
(0.506918 0.749893 -0.23097)
(0.475014 0.697635 -0.228712)
(0.543219 0.804604 -0.248897)
(0.483465 0.709324 -0.227261)
(0.498789 0.730445 -0.23654)
(0.508021 0.755145 -0.230519)
(0.531609 0.791436 -0.247486)
(0.550354 0.820733 -0.257288)
(0.479414 0.70133 -0.221247)
(0.45088 0.666572 -0.211963)
(0.461939 0.680925 -0.216203)
(0.4351 0.635048 -0.207483)
(0.460921 0.681355 -0.21857)
(0.431874 0.640543 -0.198351)
(0.325927 0.49239 -0.152426)
(0.343025 0.517089 -0.165084)
(0.41058 0.617721 -0.192719)
(0.351766 0.525697 -0.164679)
(0.328566 0.492587 -0.158239)
(0.30194 0.454193 -0.145442)
(0.288657 0.434246 -0.136203)
(0.329628 0.489887 -0.156518)
(0.3611 0.536235 -0.166282)
(0.416318 0.627461 -0.190343)
(0.421282 0.628358 -0.195036)
(0.373186 0.558014 -0.18122)
(0.345419 0.541019 -0.163504)
(0.31763 0.491505 -0.149891)
(0.295663 0.458908 -0.144279)
(0.278588 0.419954 -0.138906)
(0.364939 0.565012 -0.171682)
(0.418122 0.651535 -0.20174)
(0.290858 0.45436 -0.146622)
(0.346039 0.517233 -0.161093)
(0.419321 0.643427 -0.198338)
(0.325229 0.496306 -0.151414)
(0.310938 0.464727 -0.146097)
(0.274604 0.428558 -0.141896)
(0.352023 0.537693 -0.161735)
(0.451656 0.695944 -0.20968)
(0.479136 0.744346 -0.220701)
(0.50347 0.766734 -0.235814)
(0.491568 0.743747 -0.222517)
(0.415019 0.632754 -0.186311)
(0.536422 0.810295 -0.249619)
(0.51567 0.779748 -0.238651)
(0.517652 0.783651 -0.24099)
(0.491842 0.751511 -0.226832)
(0.479899 0.715107 -0.215806)
(0.47565 0.732785 -0.222081)
(0.466944 0.705015 -0.218964)
(0.460372 0.699549 -0.213696)
(0.435115 0.656924 -0.197495)
(0.425107 0.647792 -0.201735)
(0.358109 0.523299 -0.163527)
(0.34155 0.496353 -0.157936)
(0.384923 0.552835 -0.168398)
(0.340096 0.50372 -0.152085)
(0.326189 0.481915 -0.145)
(0.292028 0.428799 -0.136992)
(0.349664 0.516282 -0.157396)
(0.286569 0.431877 -0.137506)
(0.308495 0.441876 -0.142148)
(0.353549 0.523413 -0.157775)
(0.324324 0.478011 -0.141978)
(0.356526 0.525805 -0.147561)
(0.399659 0.589811 -0.182161)
(0.370719 0.543416 -0.161468)
(0.383144 0.544936 -0.154363)
(0.477275 0.717107 -0.205392)
(0.417679 0.616984 -0.174422)
(0.324662 0.473726 -0.136175)
(0.429016 0.618648 -0.18152)
(0.391289 0.5681 -0.17593)
(0.37202 0.533745 -0.152399)
(0.444034 0.656805 -0.188058)
(0.400785 0.587204 -0.172477)
(0.359492 0.523948 -0.16086)
(0.393807 0.561702 -0.167895)
(0.540937 0.814963 -0.236388)
(0.546016 0.820691 -0.233771)
(0.561974 0.845372 -0.241891)
(0.584869 0.879601 -0.253207)
(0.550123 0.83295 -0.24128)
(0.495234 0.750859 -0.214999)
(0.493871 0.752421 -0.215088)
(0.452785 0.687379 -0.192894)
(0.443068 0.670158 -0.191141)
(0.43008 0.66317 -0.180016)
(0.461278 0.699491 -0.197002)
(0.465437 0.710741 -0.192391)
(0.491792 0.7352 -0.2017)
(0.485829 0.729398 -0.212322)
(0.46109 0.696918 -0.196096)
(0.532167 0.794098 -0.222288)
(0.550077 0.829715 -0.232942)
(0.436203 0.659553 -0.183636)
(0.483508 0.735815 -0.205876)
(0.517911 0.782131 -0.222027)
(0.564395 0.822742 -0.263309)
(0.544819 0.788245 -0.250433)
(0.634582 0.926562 -0.297903)
(0.596062 0.864224 -0.276646)
(0.551059 0.799496 -0.251505)
(0.599955 0.864192 -0.279461)
(0.591567 0.860442 -0.2776)
(0.62226 0.916285 -0.293577)
(0.581775 0.840729 -0.270053)
(0.65024 0.945325 -0.302326)
(0.631113 0.918862 -0.297158)
(0.582869 0.844671 -0.271808)
(0.574196 0.837011 -0.26885)
(0.616524 0.900373 -0.292017)
(0.630809 0.919335 -0.29754)
(0.517578 0.757816 -0.242573)
(0.498596 0.728985 -0.239027)
(0.488107 0.709687 -0.225288)
(0.464318 0.680026 -0.220432)
(0.451749 0.666444 -0.21579)
(0.550008 0.796235 -0.254848)
(0.490337 0.720225 -0.233823)
(0.535888 0.77625 -0.249425)
(0.555918 0.812388 -0.264533)
(0.457758 0.680254 -0.219589)
(0.543656 0.795559 -0.252283)
(0.532891 0.7842 -0.249721)
(0.495078 0.718071 -0.229471)
(0.475999 0.689979 -0.225583)
(0.474445 0.694239 -0.225684)
(0.464497 0.668957 -0.21915)
(0.562086 0.81337 -0.264874)
(0.574545 0.837217 -0.26497)
(0.476856 0.691079 -0.224352)
(0.635181 0.94598 -0.300167)
(0.657616 0.979653 -0.308967)
(0.667816 0.995184 -0.311192)
(0.628136 0.930633 -0.289726)
(0.622147 0.926639 -0.289673)
(0.617803 0.922657 -0.286508)
(0.615468 0.912742 -0.284891)
(0.638797 0.957147 -0.298153)
(0.641665 0.955939 -0.302041)
(0.669246 1.00193 -0.312655)
(0.632541 0.947484 -0.297611)
(0.612605 0.917004 -0.286454)
(0.661309 0.984637 -0.303452)
(0.66422 0.99066 -0.305817)
(0.643767 0.961172 -0.301404)
(0.6634 0.99368 -0.31097)
(0.64585 0.952641 -0.295044)
(0.675541 0.990745 -0.316979)
(0.672594 0.986168 -0.316774)
(0.664721 0.973906 -0.314382)
(0.648683 0.949077 -0.309436)
(0.652967 0.947758 -0.310255)
(0.651965 0.946377 -0.307341)
(0.678393 0.987876 -0.318076)
(0.655894 0.959219 -0.303442)
(0.636795 0.931074 -0.301698)
(0.649241 0.945453 -0.304409)
(0.667496 0.973287 -0.314135)
(0.662678 0.968095 -0.313133)
(0.683844 0.994987 -0.320202)
(0.653879 0.955564 -0.308333)
(0.663104 0.969389 -0.312395)
(0.653471 0.952681 -0.307793)
(0.672453 0.980222 -0.316587)
(0.567452 0.836723 -0.261289)
(0.537669 0.800857 -0.249362)
(0.598076 0.87968 -0.276106)
(0.558046 0.825483 -0.259444)
(0.566154 0.834275 -0.260089)
(0.616435 0.927424 -0.291078)
(0.571436 0.858385 -0.262055)
(0.576601 0.854497 -0.265593)
(0.531338 0.792426 -0.242869)
(0.616513 0.915678 -0.284529)
(0.61665 0.902979 -0.280566)
(0.619161 0.917164 -0.282393)
(0.557055 0.828396 -0.252379)
(0.574526 0.857669 -0.270441)
(0.434084 0.638043 -0.199751)
(0.366544 0.537386 -0.173665)
(0.465437 0.697134 -0.220905)
(0.436259 0.651423 -0.207096)
(0.337501 0.498251 -0.157429)
(0.375049 0.543848 -0.170107)
(0.348176 0.507315 -0.15453)
(0.308303 0.455355 -0.139901)
(0.35546 0.519413 -0.157514)
(0.432241 0.624241 -0.192111)
(0.348704 0.511112 -0.158872)
(0.307761 0.450065 -0.1408)
(0.365037 0.543996 -0.173875)
(0.34837 0.516629 -0.155735)
(0.437687 0.647691 -0.196504)
(0.432995 0.640993 -0.197791)
(0.444475 0.658306 -0.199484)
(0.370851 0.555961 -0.181274)
(0.540511 0.799187 -0.255376)
(0.556535 0.820172 -0.262358)
(0.585631 0.868447 -0.281068)
(0.594584 0.880209 -0.277493)
(0.590469 0.875426 -0.27998)
(0.538045 0.800065 -0.257566)
(0.499113 0.744586 -0.241656)
(0.510249 0.756716 -0.241751)
(0.551305 0.810646 -0.263223)
(0.568152 0.840403 -0.276887)
(0.572005 0.845317 -0.277156)
(0.599166 0.883009 -0.283786)
(0.617183 0.915925 -0.295612)
(0.601518 0.880985 -0.282035)
(0.556145 0.82095 -0.266498)
(0.510304 0.763751 -0.244606)
(0.56707 0.842124 -0.269908)
(0.521524 0.766386 -0.244922)
(0.614428 0.903706 -0.289839)
(0.569365 0.842669 -0.270746)
(0.464659 0.718642 -0.205514)
(0.442153 0.690264 -0.197953)
(0.443041 0.677188 -0.191845)
(0.472995 0.729314 -0.20524)
(0.441937 0.688543 -0.192648)
(0.420823 0.663476 -0.186003)
(0.565237 0.875484 -0.244625)
(0.592147 0.902745 -0.254402)
(0.539042 0.831661 -0.235576)
(0.528683 0.820052 -0.231776)
(0.471115 0.738627 -0.207262)
(0.55215 0.856207 -0.239608)
(0.527359 0.829547 -0.231993)
(0.550172 0.857454 -0.236033)
(0.548857 0.861682 -0.239554)
(0.46262 0.723967 -0.206104)
(0.445212 0.696006 -0.194254)
(0.420689 0.690137 -0.192682)
(0.428195 0.696041 -0.190934)
(0.453312 0.72294 -0.207669)
(0.461598 0.678817 -0.219306)
(0.450607 0.678401 -0.212454)
(0.551088 0.806936 -0.256654)
(0.522061 0.767541 -0.241967)
(0.500409 0.739465 -0.233483)
(0.451478 0.668148 -0.211738)
(0.453607 0.683187 -0.212982)
(0.563956 0.831134 -0.260857)
(0.554355 0.82728 -0.258208)
(0.454689 0.678907 -0.209347)
(0.42645 0.642454 -0.206317)
(0.521844 0.772378 -0.248087)
(0.554118 0.816627 -0.264299)
(0.533509 0.795017 -0.243878)
(0.470103 0.70432 -0.218028)
(0.486244 0.728236 -0.226416)
(0.460575 0.677007 -0.207109)
(0.426304 0.635671 -0.200304)
(0.510345 0.756544 -0.24037)
(0.479152 0.717763 -0.224522)
(0.552407 0.823309 -0.263546)
(0.463286 0.685806 -0.213591)
(0.474073 0.716132 -0.194545)
(0.481807 0.743244 -0.210757)
(0.53363 0.791558 -0.225898)
(0.52691 0.786074 -0.223868)
(0.534309 0.789067 -0.228396)
(0.419224 0.643993 -0.184181)
(0.42432 0.670954 -0.190466)
(0.437307 0.669023 -0.179895)
(0.450318 0.688412 -0.20187)
(0.488314 0.734701 -0.213205)
(0.444692 0.679679 -0.193847)
(0.342737 0.500751 -0.1632)
(0.315319 0.460336 -0.148972)
(0.443848 0.653293 -0.206945)
(0.485045 0.708856 -0.226294)
(0.473876 0.687624 -0.223952)
(0.430441 0.632006 -0.201184)
(0.383918 0.556 -0.191532)
(0.372234 0.531594 -0.175258)
(0.377805 0.55107 -0.173045)
(0.359788 0.53554 -0.168646)
(0.347799 0.507184 -0.162707)
(0.306588 0.434805 -0.141044)
(0.37075 0.539484 -0.169116)
(0.45222 0.663767 -0.211577)
(0.333987 0.476597 -0.160019)
(0.381512 0.552011 -0.184819)
(0.611264 0.895361 -0.291761)
(0.626466 0.918522 -0.298261)
(0.571183 0.841385 -0.268631)
(0.565409 0.828154 -0.265801)
(0.596286 0.874771 -0.281921)
(0.59113 0.869306 -0.281652)
(0.570796 0.837027 -0.270963)
(0.511293 0.754281 -0.24466)
(0.563385 0.831922 -0.271657)
(0.564337 0.829091 -0.269203)
(0.506641 0.746789 -0.241336)
(0.53224 0.783712 -0.252856)
(0.517586 0.762143 -0.245775)
(0.349589 0.517415 -0.150816)
(0.362112 0.527451 -0.159212)
(0.331304 0.483958 -0.152001)
(0.321727 0.466366 -0.143871)
(0.370576 0.553833 -0.167743)
(0.371717 0.556698 -0.163417)
(0.419356 0.628957 -0.194497)
(0.310957 0.459924 -0.146859)
(0.434496 0.656835 -0.202103)
(0.471678 0.692088 -0.217972)
(0.346745 0.511124 -0.157846)
(0.509782 0.738327 -0.232146)
(0.523766 0.75938 -0.243506)
(0.479741 0.692257 -0.226867)
(0.476957 0.695603 -0.219581)
(0.52687 0.762304 -0.242249)
(0.568076 0.815528 -0.270944)
(0.560191 0.805793 -0.261148)
(0.485994 0.705392 -0.225488)
(0.522358 0.751849 -0.244114)
(0.57686 0.837755 -0.275761)
(0.498439 0.716171 -0.22908)
(0.495626 0.714873 -0.227756)
(0.570501 0.825662 -0.268153)
(0.586271 0.850578 -0.271525)
(0.605743 0.875051 -0.283709)
(0.600173 0.870049 -0.281939)
(0.554848 0.801416 -0.258256)
(0.462597 0.668941 -0.207465)
(0.474929 0.69693 -0.213878)
(0.530048 0.780355 -0.239387)
(0.479256 0.69942 -0.219237)
(0.490078 0.718237 -0.216056)
(0.469045 0.682822 -0.213077)
(0.463803 0.692721 -0.211037)
(0.429329 0.627141 -0.194508)
(0.446968 0.647849 -0.20689)
(0.486562 0.720453 -0.225207)
(0.467567 0.685461 -0.209158)
(0.455364 0.664903 -0.204238)
(0.434455 0.63996 -0.19313)
(0.47069 0.688497 -0.21108)
(0.506997 0.74088 -0.224497)
(0.48572 0.704849 -0.216923)
(0.522613 0.768349 -0.229204)
(0.511518 0.761931 -0.232748)
(0.509898 0.766046 -0.235219)
(0.468724 0.709775 -0.218185)
(0.504606 0.752545 -0.235667)
(0.488571 0.734174 -0.229481)
(0.515723 0.77709 -0.239263)
(0.521395 0.781298 -0.242549)
(0.454125 0.681463 -0.212491)
(0.505816 0.767677 -0.238099)
(0.470786 0.71078 -0.223844)
(0.46954 0.702849 -0.218739)
(0.522699 0.790395 -0.239564)
(0.536242 0.803034 -0.25061)
(0.490813 0.738488 -0.229741)
(0.442287 0.668475 -0.199155)
(0.507395 0.770029 -0.240837)
(0.488937 0.740984 -0.233723)
(0.425858 0.642533 -0.202404)
(0.474328 0.715527 -0.225298)
(0.46068 0.697433 -0.20441)
(0.460468 0.685851 -0.199871)
(0.502333 0.762658 -0.216896)
(0.475094 0.721669 -0.209175)
(0.495189 0.725413 -0.205203)
(0.471276 0.735613 -0.197824)
(0.527522 0.793824 -0.225799)
(0.542804 0.831923 -0.236742)
(0.51136 0.788545 -0.222932)
(0.566661 0.857763 -0.246814)
(0.56726 0.858683 -0.247514)
(0.588109 0.884195 -0.254496)
(0.585605 0.881302 -0.247237)
(0.5816 0.886984 -0.251963)
(0.572643 0.871588 -0.250841)
(0.672888 0.981319 -0.314035)
(0.640794 0.937625 -0.30034)
(0.59284 0.873447 -0.272727)
(0.619879 0.900358 -0.285602)
(0.635415 0.93087 -0.296598)
(0.588754 0.865409 -0.275182)
(0.639819 0.937093 -0.299088)
(0.645681 0.950372 -0.303176)
(0.625973 0.921575 -0.295066)
(0.60235 0.885907 -0.284964)
(0.58595 0.861684 -0.272257)
(0.584859 0.862668 -0.263764)
(0.591096 0.866206 -0.27329)
(0.624534 0.914455 -0.292879)
(0.596376 0.876377 -0.274272)
(0.661587 0.968489 -0.301673)
(0.578762 0.845328 -0.266401)
(0.608834 0.883372 -0.286075)
(0.570916 0.829374 -0.258202)
(0.57574 0.846169 -0.269842)
(0.579777 0.849962 -0.267512)
(0.450596 0.670119 -0.212961)
(0.449455 0.669279 -0.213687)
(0.364715 0.551196 -0.1744)
(0.374056 0.554633 -0.177199)
(0.473812 0.706912 -0.225028)
(0.349302 0.512705 -0.159682)
(0.450789 0.673625 -0.209792)
(0.381142 0.566773 -0.176662)
(0.459821 0.679964 -0.214621)
(0.450541 0.671305 -0.20914)
(0.383228 0.573008 -0.182092)
(0.357819 0.534309 -0.17385)
(0.365073 0.545307 -0.175691)
(0.33471 0.500718 -0.159429)
(0.357318 0.529282 -0.163842)
(0.346759 0.507979 -0.162234)
(0.37684 0.562827 -0.186854)
(0.380429 0.570884 -0.181395)
(0.438728 0.661704 -0.213266)
(0.453511 0.694301 -0.185838)
(0.425763 0.659269 -0.176803)
(0.373835 0.573867 -0.15716)
(0.33635 0.521447 -0.141858)
(0.373927 0.56243 -0.15732)
(0.371516 0.562404 -0.16495)
(0.352753 0.544243 -0.146006)
(0.306329 0.477669 -0.124692)
(0.451482 0.683856 -0.18427)
(0.319842 0.49107 -0.131426)
(0.368803 0.578631 -0.155518)
(0.345857 0.530782 -0.14759)
(0.32183 0.484385 -0.139529)
(0.345357 0.515566 -0.138894)
(0.383846 0.589871 -0.158923)
(0.351623 0.537981 -0.148668)
(0.437667 0.665894 -0.177563)
(0.365733 0.552058 -0.149734)
(0.364766 0.548937 -0.170699)
(0.358092 0.539859 -0.170144)
(0.323611 0.49992 -0.156679)
(0.344436 0.519472 -0.164991)
(0.324882 0.486724 -0.155174)
(0.366041 0.548422 -0.166236)
(0.328207 0.505347 -0.154603)
(0.472932 0.707514 -0.224003)
(0.442244 0.668755 -0.206969)
(0.479057 0.729114 -0.23112)
(0.445841 0.678003 -0.206463)
(0.470874 0.704856 -0.225189)
(0.342226 0.511989 -0.163026)
(0.35949 0.536642 -0.171696)
(0.438953 0.651701 -0.204992)
(0.440798 0.661021 -0.205135)
(0.370238 0.550003 -0.168595)
(0.372137 0.55974 -0.179063)
(0.473184 0.710644 -0.221332)
(0.482995 0.698468 -0.226609)
(0.48196 0.695985 -0.223019)
(0.463975 0.69252 -0.21433)
(0.458611 0.68836 -0.20882)
(0.374829 0.549564 -0.175521)
(0.475462 0.693725 -0.229588)
(0.457517 0.683504 -0.215128)
(0.363493 0.52949 -0.169281)
(0.337992 0.491173 -0.155461)
(0.353374 0.512163 -0.164631)
(0.384966 0.560491 -0.178442)
(0.355694 0.523006 -0.165358)
(0.322311 0.469887 -0.15018)
(0.380621 0.551578 -0.16763)
(0.390824 0.567609 -0.178977)
(0.36395 0.526968 -0.171475)
(0.32846 0.483632 -0.156808)
(0.41613 0.601504 -0.189474)
(0.408407 0.591885 -0.191648)
(0.485729 0.719896 -0.225218)
(0.45554 0.676387 -0.211276)
(0.352375 0.507559 -0.164076)
(0.354806 0.531879 -0.171681)
(0.369348 0.53947 -0.170994)
(0.466391 0.707069 -0.215845)
(0.483627 0.700933 -0.217472)
(0.495059 0.730974 -0.225385)
(0.462035 0.686484 -0.216513)
(0.438932 0.650443 -0.20152)
(0.386328 0.560446 -0.173124)
(0.396821 0.568183 -0.177474)
(0.457414 0.675092 -0.211511)
(0.477436 0.705938 -0.221982)
(0.489234 0.722321 -0.223023)
(0.487064 0.711763 -0.224317)
(0.493565 0.731342 -0.230247)
(0.470933 0.684576 -0.222543)
(0.330014 0.492885 -0.164417)
(0.296902 0.449267 -0.147252)
(0.386277 0.560505 -0.176661)
(0.360976 0.531464 -0.164638)
(0.292878 0.437355 -0.135069)
(0.368919 0.538829 -0.159909)
(0.355907 0.525165 -0.16643)
(0.318255 0.473569 -0.144997)
(0.450772 0.65814 -0.200706)
(0.389484 0.569623 -0.182675)
(0.436202 0.636161 -0.194255)
(0.379234 0.55921 -0.173986)
(0.338771 0.500428 -0.163978)
(0.309385 0.458498 -0.152716)
(0.441982 0.652256 -0.211772)
(0.452178 0.665669 -0.207394)
(0.366179 0.541993 -0.173498)
(0.430439 0.628461 -0.200279)
(0.451749 0.656248 -0.200864)
(0.448038 0.641584 -0.199041)
(0.356133 0.52419 -0.165349)
(0.309823 0.460719 -0.14403)
(0.333944 0.478771 -0.14702)
(0.363022 0.519254 -0.166622)
(0.417937 0.601183 -0.193867)
(0.467236 0.667193 -0.208943)
(0.468605 0.672638 -0.207644)
(0.337907 0.488713 -0.152978)
(0.379615 0.545779 -0.169195)
(0.367199 0.526604 -0.1667)
(0.365701 0.52497 -0.168347)
(0.414682 0.601832 -0.188758)
(0.415905 0.610326 -0.190963)
(0.45844 0.670258 -0.208765)
(0.464333 0.676175 -0.209341)
(0.41834 0.593822 -0.194659)
(0.386961 0.557362 -0.176642)
(0.469434 0.684313 -0.222624)
(0.450066 0.656723 -0.207149)
(0.461334 0.669726 -0.219357)
(0.37875 0.540435 -0.173926)
(0.371824 0.536726 -0.172507)
(0.325063 0.47068 -0.150155)
(0.403127 0.58127 -0.190738)
(0.329733 0.469011 -0.149618)
(0.517973 0.778198 -0.241488)
(0.51533 0.771845 -0.242232)
(0.465869 0.695128 -0.215707)
(0.473901 0.707749 -0.218931)
(0.500243 0.754534 -0.235843)
(0.442249 0.670219 -0.203573)
(0.426918 0.644636 -0.191725)
(0.354111 0.528809 -0.163548)
(0.330709 0.475996 -0.147985)
(0.359237 0.531553 -0.162956)
(0.345994 0.52478 -0.158365)
(0.359477 0.536802 -0.164249)
(0.41517 0.62643 -0.188325)
(0.447562 0.671009 -0.201589)
(0.417204 0.653854 -0.197755)
(0.357987 0.542079 -0.1751)
(0.34472 0.518488 -0.156761)
(0.381198 0.566101 -0.176112)
(0.373698 0.564614 -0.169181)
(0.415941 0.621481 -0.19287)
(0.457861 0.694833 -0.213558)
(0.338066 0.501302 -0.155962)
(0.443643 0.658774 -0.205006)
(0.362138 0.538389 -0.171594)
(0.49967 0.741501 -0.231262)
(0.481159 0.719394 -0.2284)
(0.456962 0.675699 -0.213527)
(0.465081 0.688577 -0.215833)
(0.475128 0.715052 -0.222316)
(0.388044 0.575139 -0.182019)
(0.377771 0.571031 -0.175145)
(0.43983 0.664869 -0.209688)
(0.349677 0.524665 -0.163289)
(0.36107 0.544172 -0.17099)
(0.322062 0.493549 -0.147046)
(0.378545 0.568333 -0.177611)
(0.367231 0.557094 -0.172015)
(0.328859 0.505662 -0.154945)
(0.373074 0.571199 -0.179021)
(0.469916 0.681022 -0.213009)
(0.464088 0.663976 -0.204363)
(0.461084 0.681531 -0.218748)
(0.430103 0.649504 -0.194169)
(0.491305 0.704085 -0.230821)
(0.461763 0.666902 -0.206426)
(0.372533 0.538028 -0.165441)
(0.359634 0.531534 -0.162657)
(0.448279 0.658829 -0.208084)
(0.436493 0.6467 -0.202212)
(0.388321 0.564065 -0.17143)
(0.346011 0.507196 -0.153187)
(0.351712 0.505594 -0.156655)
(0.316985 0.467451 -0.146282)
(0.397472 0.567813 -0.178139)
(0.368074 0.544826 -0.169268)
(0.357241 0.518706 -0.157421)
(0.345143 0.50861 -0.153402)
(0.343468 0.507356 -0.148589)
(0.308913 0.45288 -0.126779)
(0.390041 0.579452 -0.172005)
(0.457687 0.691065 -0.208083)
(0.437557 0.657166 -0.201869)
(0.383075 0.564555 -0.165659)
(0.327185 0.492369 -0.152775)
(0.314692 0.478624 -0.144955)
(0.439715 0.665132 -0.19592)
(0.383187 0.570378 -0.172962)
(0.346674 0.510688 -0.151293)
(0.352482 0.52391 -0.152785)
(0.300515 0.454751 -0.136)
(0.448015 0.666635 -0.1968)
(0.446151 0.654007 -0.193222)
(0.378813 0.562286 -0.170799)
(0.31758 0.485758 -0.155403)
(0.34705 0.530189 -0.154659)
(0.429478 0.64876 -0.194954)
(0.464921 0.700187 -0.220464)
(0.431462 0.644105 -0.193909)
(0.453336 0.67851 -0.206631)
(0.455752 0.68934 -0.209555)
(0.346996 0.521531 -0.15712)
(0.366679 0.542232 -0.169243)
(0.441827 0.657814 -0.200595)
(0.448395 0.683654 -0.20164)