/*--------------------------------*- C++ -*----------------------------------*\
| =========                 |                                                 |
| \\      /  F ield         | OpenFOAM: The Open Source CFD Toolbox           |
|  \\    /   O peration     | Version:  v1612+                                |
|   \\  /    A nd           | Web:      www.OpenFOAM.com                      |
|    \\/     M anipulation  |                                                 |
\*---------------------------------------------------------------------------*/
FoamFile
{
    version     2.0;
    format      ascii;
    class       volScalarField;
    location    "100";
    object      p;
}
// * * * * * * * * * * * * * * * * * * * * * * * * * * * * * * * * * * * * * //

dimensions      [0 2 -2 0 0 0 0];

internalField   nonuniform List<scalar> 
17046
(
1.6823
1.85567
1.7157
1.65244
1.6406
1.83506
1.83471
1.82762
1.84269
1.89119
1.83864
1.86316
1.80758
1.81953
1.85931
1.85709
1.87819
1.87531
1.89672
1.8596
1.82375
1.68363
1.68625
1.68881
1.69836
1.69508
1.7158
1.69519
1.68703
1.6809
1.68041
1.68155
1.68096
1.70681
1.7044
1.68773
1.69399
1.68171
1.6707
1.69265
1.68305
1.69179
1.69779
1.69897
1.70821
1.69423
1.69089
1.6964
1.69599
1.69917
1.69404
1.69715
1.69317
1.70737
1.70858
1.70182
1.69842
1.70356
1.70873
1.63531
1.6381
1.6433
1.63767
1.63482
1.63063
1.62801
1.63565
1.63618
1.63591
1.63419
1.63766
1.63896
1.63424
1.64502
1.62646
1.63434
1.63059
1.68118
1.6908
1.68763
1.70496
1.69622
1.68062
1.6859
1.68604
1.70282
1.70205
1.71688
1.70772
1.69834
1.70354
1.71002
1.72211
1.69329
1.71017
1.69627
1.68825
1.68224
1.67499
1.67715
1.67828
1.68161
1.6834
1.6681
1.65894
1.66822
1.66961
1.68997
1.68001
1.66482
1.72616
1.7295
1.74686
1.73351
1.73169
1.70099
1.6991
1.71147
1.73741
1.74935
1.74252
1.71385
1.70778
1.70425
1.7128
1.8079
1.80671
1.7818
1.78426
1.80503
1.76696
1.78366
1.77384
1.75907
1.76379
1.77507
1.77048
1.78983
1.77462
1.75067
1.78304
1.79274
1.80508
1.78485
1.81134
1.8278
1.81782
1.82726
1.81706
1.76776
1.77947
1.79293
1.81391
1.77557
1.76062
1.76159
1.79127
1.77052
1.66969
1.6483
1.65215
1.6442
1.64919
1.67039
1.6777
1.6617
1.66005
1.65624
1.65772
1.67374
1.67888
1.64656
1.65996
1.64784
1.66622
1.66017
1.6666
1.66845
1.6643
1.89895
1.89319
1.92016
1.93864
1.93571
1.95411
1.86702
1.86213
1.92805
1.91892
1.88915
1.90645
1.93001
1.95306
1.95746
1.94032
1.91838
1.94181
1.68314
1.68001
1.69283
1.66562
1.69894
1.6991
1.66768
1.67637
1.69971
1.67344
1.69089
1.68275
1.68258
1.68426
1.68917
1.70392
1.69852
1.69303
1.67594
1.69767
1.65986
1.69423
1.70158
1.70303
1.6826
1.66279
1.69369
1.68179
1.6716
1.66284
1.69412
1.67438
1.68747
1.67554
1.67805
1.96545
1.95323
1.95409
1.98698
1.9782
1.98527
2.00433
2.01106
1.96527
2.00143
2.00437
2.00495
2.03239
2.04674
1.99983
2.00762
2.00898
2.02464
2.04632
2.0229
2.01816
2.02893
1.63921
1.62115
1.61977
1.6343
1.63752
1.63763
1.63329
1.62098
1.61464
1.62553
1.63384
1.63657
1.62267
1.63112
1.71834
1.70005
1.69649
1.7031
1.7252
1.72102
1.69165
1.7082
1.69507
1.71717
1.71918
1.7051
1.7044
1.73332
1.69107
1.69411
1.7274
1.73369
1.71564
1.70946
1.70204
1.74952
1.75458
1.72461
1.76258
1.77667
1.72728
1.70766
1.73058
1.75346
1.72274
1.73395
1.7183
1.77368
1.74404
1.72689
1.71124
1.70475
1.71429
1.72336
1.70894
1.75534
1.75403
1.68669
1.67647
1.68931
1.69034
1.6817
1.68236
1.68168
1.67036
1.67502
1.68199
1.7081
1.68506
1.69607
1.69929
1.66892
1.6691
1.67247
1.68282
1.6861
1.67896
1.72606
1.73928
1.73566
1.75091
1.71608
1.72224
1.72252
1.72131
1.78048
1.73767
1.7347
1.73903
1.71767
1.72809
1.75419
1.76312
1.76297
1.78901
1.767
1.76337
1.7783
1.75081
1.77329
1.75912
1.95829
1.987
1.96521
1.97556
1.96261
1.93967
1.93699
1.93863
1.89461
1.88333
1.88462
1.87795
1.88429
1.8573
1.83977
1.89606
1.92352
1.64168
1.64245
1.64802
1.64312
1.64824
1.65082
1.63294
1.64262
1.6431
1.64909
1.65037
1.64727
1.64493
1.64267
1.64176
1.6398
1.63318
1.63687
1.64164
1.64987
1.63883
1.63914
1.64641
1.76967
1.7482
1.73439
1.74914
1.78764
1.73211
1.77705
1.77312
1.80454
1.79229
1.72233
1.76514
1.75258
1.8043
1.73454
1.79018
1.77615
1.67383
1.67624
1.67975
1.68207
1.67902
1.68704
1.68875
1.69402
1.67646
1.67682
1.69202
1.69412
1.68843
1.69542
1.68309
1.68011
1.67517
1.68502
1.68601
1.68178
1.67589
1.67055
1.68243
1.68571
1.68269
1.67214
1.7005
1.69206
1.71029
1.69153
1.67576
1.67239
1.69608
1.68481
1.69428
1.67982
1.69222
1.68318
1.67958
1.78491
1.78762
1.75008
1.73483
1.72301
1.70963
1.71454
1.75869
1.75953
1.75612
1.72652
1.71043
1.70642
1.72494
1.72876
1.73142
1.72493
1.72507
1.66187
1.66829
1.66491
1.66856
1.66868
1.66021
1.66266
1.65984
1.66801
1.67086
1.6681
1.6767
1.66999
1.65821
1.66559
1.74081
1.72125
1.72692
1.72112
1.70509
1.73555
1.74749
1.76874
1.7505
1.75465
1.74109
1.76564
1.76922
1.88121
1.88235
1.9109
1.90393
1.8431
1.85497
1.86518
1.88892
1.88816
1.92071
1.8266
1.84809
1.87476
1.87235
1.82592
1.82794
1.85661
1.88905
1.88222
1.85261
1.86795
1.70613
1.71651
1.71103
1.69492
1.6975
1.70365
1.69307
1.70527
1.70513
1.69111
1.69062
1.70434
1.6876
1.70222
1.69618
1.70494
1.69611
1.70418
1.70095
1.69722
1.68536
1.69034
1.69141
1.69466
1.70436
1.70229
1.69655
1.70273
1.6972
1.69975
1.67554
1.68407
1.69243
1.68946
1.69061
1.6918
1.69462
1.69064
1.68477
1.68692
1.69562
1.68448
1.69319
1.68181
1.78093
1.78494
1.76306
1.78094
1.76774
1.73034
1.76457
1.74671
1.66167
1.65302
1.6727
1.6801
1.65568
1.66877
1.67326
1.6618
1.66836
1.67529
1.67325
1.66428
1.66779
1.65731
1.65994
1.66288
1.67097
1.66385
1.65834
1.65883
1.64711
1.64789
1.64211
1.64927
1.65158
1.6465
1.64495
1.66555
1.6617
1.64213
1.64808
1.64632
1.64261
1.63451
1.65453
1.64922
1.66922
1.66525
1.63191
1.63901
1.64826
1.64112
1.65452
1.64733
1.65168
1.88962
1.87377
1.88325
1.89208
1.8531
1.84965
1.86057
1.863
1.85886
1.89259
1.88246
1.86394
1.8564
1.87582
1.86397
1.86943
1.89038
1.85393
1.84503
1.9043
1.87795
1.90236
1.91478
1.92149
1.91398
1.91678
1.88248
1.91497
1.91901
1.92481
1.67497
1.66791
1.68124
1.67928
1.67583
1.67671
1.68477
1.67119
1.69189
1.69035
1.67403
1.68887
1.68619
1.68653
1.69098
1.6772
1.69791
1.70701
1.69181
1.69752
1.69606
1.69762
1.7024
1.69978
2.05759
2.06883
2.02756
2.02959
2.04775
2.0367
2.04126
2.00323
1.99155
2.00434
1.99621
2.03932
1.9802
2.01128
1.99558
1.68936
1.69173
1.68825
1.6911
1.69083
1.69807
1.69492
1.69781
1.6746
1.69312
1.67114
1.68819
1.71578
1.69373
1.71264
1.68267
1.71173
1.6956
1.68513
1.69437
1.69405
1.63748
1.63572
1.64403
1.63425
1.6476
1.65569
1.64559
1.64687
1.64411
1.63436
1.64102
1.64581
1.63867
1.64416
1.64652
1.63405
1.61954
1.62281
1.62494
1.62154
1.63553
1.63012
1.62794
1.63244
1.62815
1.6208
1.62511
1.64042
1.61667
1.65936
1.66141
1.6504
1.65701
1.65022
1.65387
1.66246
1.66257
1.66827
1.65338
1.66831
1.66602
1.66502
1.66582
1.66631
1.6708
1.66581
1.67126
1.65742
1.66659
1.66143
1.66529
1.67151
1.67158
1.66729
1.6645
1.66165
1.66529
1.66558
1.66361
1.66332
1.65765
1.64849
1.65441
1.66197
1.66294
1.65599
1.66512
1.66304
1.65885
1.65743
1.66067
1.66263
1.65564
1.66274
1.65027
1.67788
1.69248
1.69331
1.71175
1.70181
1.72286
1.72034
1.71355
1.71533
1.72717
1.71858
1.70944
1.70897
1.72161
1.72532
1.72179
1.71657
1.7207
1.7307
1.7536
1.7571
1.73013
1.74296
1.74817
1.77114
1.77731
1.74763
1.76973
1.7452
1.73078
1.7631
1.77199
1.77178
1.76304
1.74973
1.75371
1.76499
1.76408
1.764
1.66749
1.67027
1.67511
1.67389
1.67065
1.67871
1.65347
1.662
1.67362
1.67414
1.66597
1.66815
1.67925
1.68135
1.67406
1.65898
1.66961
1.6776
1.67929
1.67597
1.63095
1.63227
1.65095
1.64055
1.63318
1.63346
1.64992
1.64986
1.6395
1.64158
1.6502
1.63787
1.63611
1.64599
1.7175
1.73304
1.73082
1.71998
1.72358
1.72341
1.72431
1.73607
1.70702
1.7088
1.72178
1.71702
1.71414
1.72295
1.64322
1.64374
1.64693
1.65132
1.65553
1.64087
1.64758
1.6435
1.63545
1.64405
1.63506
1.6323
1.63325
1.78415
1.77825
1.78288
1.73783
1.74195
1.76897
1.77948
1.78693
1.73088
1.73024
1.77116
1.7535
1.77592
1.75512
1.75957
1.74113
1.76498
1.69979
1.69981
1.74666
1.76436
1.76452
1.74707
1.74728
1.76068
1.93927
1.93955
1.92916
1.64909
1.64237
1.64598
1.65425
1.65328
1.69889
1.7026
1.83548
1.82961
1.68742
1.68123
1.68438
1.64988
1.64423
1.64359
1.73592
1.75271
1.74472
1.7543
1.98021
1.96073
1.97765
1.64051
1.65049
1.66861
1.661
1.65826
1.66347
1.77928
1.78098
1.77928
1.78288
1.76368
1.74106
1.7502
1.74349
1.74703
1.67056
1.66928
1.71057
1.71494
1.72001
1.65347
1.65228
1.94888
1.95446
1.65732
1.65825
1.65582
1.67093
1.66984
1.83173
1.83187
1.84961
1.69938
1.69407
1.69329
1.68046
1.67028
1.66827
1.7005
1.70524
1.67597
1.67621
1.67538
1.67679
1.67774
1.7377
1.72958
1.73545
1.73442
1.66135
1.64907
1.66723
1.65995
2.04262
2.02704
2.0188
1.66486
1.6649
1.66886
1.66262
1.66274
1.65934
1.65992
1.64981
1.90789
1.88764
1.89035
1.88383
1.6774
1.67386
1.68913
1.77553
1.78957
1.79994
1.79213
1.70466
1.70746
2.03902
2.03238
1.68338
1.6789
1.6745
1.80143
1.80301
1.66599
1.66482
1.66568
1.86081
1.87163
1.8623
1.73812
1.73481
1.67857
1.67429
1.67394
1.67369
1.68371
1.68367
1.68192
1.68006
1.64367
1.65344
1.65287
1.80977
1.83054
1.84354
1.78003
1.68544
1.68035
1.7209
1.68261
1.70641
1.70578
1.6979
1.70008
1.67251
1.67372
1.67429
1.9982
1.98575
1.67251
1.66918
1.75312
1.75964
1.69156
1.69595
1.69375
1.68571
1.68199
1.88296
1.87359
1.87581
2.08803
2.0892
2.04208
1.65521
1.65548
1.73322
1.72862
1.67738
1.67755
1.67427
1.67507
1.67721
1.84889
1.84173
1.69448
1.69275
1.69407
1.68254
1.68075
1.65239
1.64804
1.67661
1.67199
1.69166
1.68812
1.68903
1.68651
1.68492
1.66687
1.66846
1.67125
1.67868
1.68077
1.67764
1.67787
1.65336
1.65581
1.65758
1.70201
1.70225
1.69564
1.71396
1.71916
1.71891
1.85676
1.8205
1.83762
1.79099
2.07448
2.07475
1.87702
1.8859
1.87509
1.86998
1.74915
1.73119
1.71078
1.70548
1.71431
1.74327
1.71188
1.83656
1.83864
1.67495
1.67629
1.68823
1.66009
1.65369
1.66442
1.6774
1.69611
1.70035
1.69008
1.68996
1.6783
1.67726
1.66607
1.67332
1.67466
1.66662
1.67414
1.66707
1.66748
1.66322
1.66357
1.65589
1.66223
1.64934
1.65384
1.64952
1.65303
1.66212
1.66074
1.67714
1.69583
1.67716
1.67205
1.70877
1.69793
1.66655
1.67169
1.67512
1.68441
1.66505
1.65914
1.66562
1.65784
1.66086
1.65529
1.65849
1.66771
1.66647
1.6589
1.67201
1.66674
1.65485
1.6488
1.6577
1.65604
1.67864
1.67722
1.67342
1.67184
1.83001
1.81617
1.81948
1.84406
1.84583
1.83311
1.8575
1.84771
1.80012
1.80766
1.85958
1.83885
1.85763
1.87305
1.85927
1.83782
1.87608
1.83522
1.83843
1.83063
1.83776
1.82716
1.84478
1.83522
1.68966
1.67641
1.81637
1.79754
1.81121
1.77244
1.76529
1.75823
1.74579
1.8858
1.88811
1.89972
1.85891
1.86743
1.8991
1.87785
1.87721
1.9112
1.90724
1.9021
1.87068
1.87487
1.86872
1.90678
1.90144
1.85495
1.83021
1.83137
1.81984
1.8314
1.82481
1.86363
1.85087
1.84262
1.85088
2.09292
2.09303
2.0538
2.05428
2.03323
2.06692
2.05595
2.06275
2.05692
2.07458
2.09971
2.08815
2.05172
2.0469
2.05462
2.09264
2.07377
2.03595
2.05028
2.02908
2.08162
2.03543
2.0665
2.05292
2.05455
2.06638
2.05565
1.81246
1.76663
1.79296
1.78469
1.76126
1.90866
1.89072
1.85643
1.8477
1.85764
1.79646
1.81753
1.84687
1.82175
1.88495
1.73455
1.73156
1.72733
1.71774
1.7205
1.72387
1.72081
1.72244
1.70655
1.71971
1.71313
1.70272
1.70773
1.70683
1.70147
1.6992
1.691
1.70745
1.702
1.70265
1.70652
1.70322
1.72544
1.72037
1.72678
1.74795
1.73471
1.73587
1.73252
1.71478
1.71956
1.71772
1.73411
1.72968
1.71542
1.7119
1.73223
1.73474
1.69081
1.68882
1.69751
1.64704
1.64522
1.65356
1.65733
1.66334
1.66229
1.65797
1.65912
1.66014
1.65895
1.65934
1.65883
1.65572
1.6585
1.65246
1.65502
1.65539
1.64869
1.65581
1.65824
1.64732
1.65562
1.65432
1.65629
1.67807
1.67535
1.67741
1.67401
1.67923
1.6754
1.67879
1.68148
1.68053
1.68046
1.67889
1.67883
1.6723
1.67054
1.67163
1.67014
1.67009
1.66852
1.67073
1.6702
1.67049
1.66785
1.6687
1.66792
1.66772
1.6638
1.66798
1.65981
1.66856
1.68141
1.68713
1.69026
1.6831
1.6911
1.69047
1.68979
1.68553
1.69015
1.6941
1.68936
1.69222
1.6918
1.6925
1.69591
1.63852
1.6424
1.64902
1.68109
1.67992
1.69155
1.65001
1.64802
1.65927
1.66354
1.66532
1.67327
1.67043
1.6679
1.66533
1.66217
1.66356
1.65181
1.65466
1.64979
1.64277
1.63345
1.64863
1.64926
1.6447
1.65277
1.65378
1.64443
1.64297
1.65327
1.64894
1.64747
1.65436
1.65365
1.65763
1.65389
1.65091
1.65335
1.68889
1.68553
1.68756
1.67688
1.68345
1.68994
1.71033
1.70842
1.70912
1.69881
1.6908
1.70312
1.72477
1.74233
1.70842
1.69034
1.70028
1.70043
1.68421
1.68339
1.69712
1.69894
1.69904
1.69736
1.69571
1.69989
1.69901
1.7018
1.91997
1.89734
1.89158
1.79416
1.75408
1.73918
1.73963
1.80269
1.80174
1.67956
1.67588
1.67801
1.67928
1.68296
1.68227
1.67773
1.67807
1.6805
1.68186
1.77999
1.765
1.75987
1.75577
1.68951
1.68356
1.70437
1.70783
1.74078
1.74276
1.75799
1.64955
1.6509
1.65349
1.65727
1.66005
1.66134
1.65798
1.65962
1.66299
1.65581
1.65355
1.65884
1.65677
1.65566
1.66556
1.6626
1.66
2.02648
1.97677
2.02423
2.03864
1.849
1.85375
1.84352
1.85493
1.87618
1.87119
1.90593
1.90287
1.87074
1.87016
1.9126
1.87279
1.88546
1.89032
1.87165
1.69824
1.69935
1.69263
1.68919
1.68802
1.69008
1.69074
1.71096
1.70652
1.71007
1.67506
1.67824
1.6815
1.68399
1.68003
1.70419
1.71132
1.70873
1.70797
1.69794
1.71204
1.70657
1.6912
1.70112
1.73842
1.75162
1.73818
1.73451
1.7179
1.70445
1.7591
1.75058
1.74902
1.75737
1.8042
1.76533
1.77254
1.80782
1.82478
1.79004
1.77117
1.66479
1.66687
1.68059
1.66653
1.67332
1.67298
1.67434
1.68026
1.67269
1.67693
1.67148
1.68515
1.68268
1.67455
1.67774
1.67639
1.66672
1.67212
1.7771
1.76054
1.78236
1.74995
1.73964
1.73513
1.70682
1.98465
1.98413
2.00103
1.89414
1.91802
1.89922
1.87925
1.92856
2.00234
2.00968
1.9875
2.00181
1.99964
1.99198
1.99329
2.02687
2.04513
2.00797
1.99856
2.02234
1.99936
1.98749
2.00558
2.04609
2.03008
1.66495
1.66977
1.67123
1.67262
1.67111
1.69676
1.70281
1.69407
1.69454
1.6986
1.69348
1.69191
1.69818
1.70047
1.69831
1.69553
1.69486
1.69846
1.73435
1.7126
1.70214
1.70279
1.69464
1.67017
1.67729
1.67019
1.6826
1.71211
1.69796
1.70104
1.70289
1.69974
1.68076
1.7065
1.72143
1.7136
1.72751
1.72777
1.67301
1.67613
1.67851
1.68341
1.6799
1.67925
1.68262
1.68188
1.93904
1.9324
1.90548
1.87212
1.86204
1.74306
1.76335
1.76877
1.85379
1.89093
1.83344
1.86606
1.87094
1.78534
1.79066
1.78059
1.82015
1.80695
1.83233
1.83795
1.82379
1.84867
1.86991
1.64041
1.64148
1.64496
1.63378
1.68214
1.68915
1.6903
1.66608
1.66883
1.66398
1.64096
1.64091
1.64174
1.63877
1.64881
1.68685
1.68696
1.68471
1.68778
1.68521
1.68696
1.68751
1.68747
1.69353
1.69172
1.66958
1.67681
1.67383
1.66971
1.67083
1.67202
1.66842
1.67035
1.68039
1.68001
1.68145
1.67862
1.6837
1.67574
1.67867
1.67672
1.67646
1.67926
1.67579
1.67669
1.66601
1.67254
1.67196
1.6678
1.67262
1.63709
1.63999
1.63989
1.64035
1.6424
1.6376
1.78067
1.74255
1.76418
1.76048
1.72792
1.73555
1.75411
1.7356
1.78756
1.77784
1.75929
1.78357
1.77409
1.75802
1.75036
1.77775
1.7078
1.71207
1.72045
1.72395
1.72461
1.74654
1.73027
1.72043
1.7196
1.7149
1.74002
1.7461
1.73218
1.83542
1.79054
1.82228
1.81539
1.82413
1.75716
1.78361
1.78348
1.83277
1.82726
1.77939
1.75369
1.91077
1.88179
1.91313
1.92404
1.90046
1.87407
1.93288
1.96414
1.9495
1.95766
1.91919
1.88855
1.92389
1.8766
1.89214
1.92247
1.90577
1.90859
1.88569
1.93706
1.77721
1.76584
1.76826
1.75611
1.75772
1.76201
1.78043
1.78161
1.81128
1.81465
1.80658
1.7723
1.79387
1.79963
1.77857
1.76637
1.80283
1.79318
1.74261
1.74918
1.74342
1.73418
1.67585
1.67379
1.67853
1.68028
1.68021
1.67189
1.67768
1.67016
1.66971
1.67772
1.6832
2.02443
2.02903
2.0138
1.96838
1.95704
1.99529
2.04762
2.02322
2.05546
2.03212
2.02297
2.00502
1.7578
1.7509
1.74491
1.71666
1.6951
1.6984
1.71417
1.71304
1.71859
1.6761
1.68024
1.68562
1.68141
1.68098
1.68696
1.78454
1.8249
1.83158
1.83574
1.82962
1.83059
1.81389
1.79781
1.82481
1.70457
1.69347
1.67971
1.70725
1.7082
1.72763
1.72898
1.7152
1.71073
1.73205
1.6991
1.72339
1.72732
1.71842
1.70096
1.82469
1.81395
1.80403
1.76108
1.77807
1.80288
1.77434
1.93766
1.88681
1.91132
1.93418
1.90555
1.89195
1.9105
1.9144
1.90071
1.91444
1.82429
1.79405
1.83768
1.85694
1.82543
1.7846
1.79231
1.82287
1.81413
1.82557
1.81422
1.8692
1.86448
1.84909
1.87307
1.87376
1.81076
1.80015
1.8045
1.84049
1.81475
1.86449
1.87009
1.86442
1.86562
1.85311
1.84848
1.87089
1.87032
1.84271
1.80342
1.80216
1.81536
1.78713
1.76561
1.90078
1.91917
1.94263
1.91985
1.92783
1.9266
1.95694
1.95321
1.96023
1.96509
1.97104
1.97668
1.93635
1.96637
1.99644
1.95512
1.96187
1.94679
1.95005
1.9262
2.00588
1.65386
1.64499
1.65982
1.65775
1.65578
1.64844
1.64975
1.65729
1.65626
1.6624
1.66704
1.66697
1.66202
1.66184
1.6623
1.65842
1.66164
1.66128
1.66212
1.6601
1.66127
1.66208
1.66777
1.68522
1.66812
1.66948
1.66244
1.66474
1.66622
1.66672
1.96728
2.00579
2.00343
1.99435
2.01645
2.00497
1.64394
1.63259
1.64737
1.64865
1.65533
1.65229
1.63998
1.74857
1.744
1.72789
1.72646
1.74808
1.73399
1.70665
1.72637
1.71701
1.72141
1.71116
1.71628
1.72455
1.71156
1.71689
1.70564
1.75659
1.7407
1.74318
1.70891
1.71071
1.71484
1.71852
1.73149
1.73489
1.72595
1.72776
1.71651
1.70494
1.71015
1.73192
1.73174
1.72559
1.71948
1.67893
1.68137
1.67341
1.67979
1.69024
1.67785
1.6734
1.65796
1.66678
1.66728
1.67681
1.67089
1.66331
1.70155
1.70933
1.70457
1.70728
1.83019
1.81877
1.82643
1.85273
1.86058
1.85424
1.84623
1.84098
1.83849
1.82768
1.85482
1.83779
1.79021
1.81905
1.80807
1.79126
1.79042
1.80104
1.8172
1.80302
1.82318
1.8145
1.80017
1.80286
1.822
1.80769
1.79589
1.79853
1.78935
1.81895
1.81062
1.79931
1.79417
1.65612
1.65292
1.65776
1.65925
1.6527
1.6554
1.65711
1.65685
1.65723
1.65477
1.65566
1.65561
1.65867
1.66126
1.664
1.66309
1.66017
1.65733
1.65798
1.65788
1.65898
1.65866
1.9742
1.96857
1.8745
1.89119
1.8875
1.89689
1.89518
1.88853
1.88105
1.91097
1.89827
1.91937
1.91669
2.00071
1.9841
1.97976
1.95248
1.96293
1.95646
1.94459
1.97853
1.98438
1.96922
1.6528
1.65751
1.65066
1.65073
1.65318
1.65276
1.72143
1.72942
1.72979
1.71618
1.70593
1.6916
1.69952
1.69945
1.69761
1.74568
1.74026
1.74118
1.70943
1.73704
1.72673
1.72214
1.73968
1.72538
1.68856
1.69123
1.68084
1.68981
1.67059
1.70014
1.70233
1.67927
1.67326
1.67581
1.66792
1.66492
1.66707
1.66903
1.66517
1.71582
1.72127
1.70332
1.72555
1.7157
1.73083
1.73185
1.70198
1.69445
1.7692
1.79252
1.7833
1.80486
1.79459
1.77103
1.75028
1.83157
1.77109
1.7366
1.74338
1.70617
1.73006
1.73341
1.7137
1.76252
1.7744
1.66643
1.66362
1.67748
1.66911
1.6628
1.6643
1.75628
1.75945
1.76061
1.76528
1.75927
1.78789
1.78374
1.65977
1.65896
1.65807
1.64139
1.64874
1.6569
1.6561
1.63967
1.64371
1.63834
1.70464
1.68923
1.67995
1.68018
1.68295
1.68741
1.69521
1.69299
1.9494
1.92679
1.92688
1.94552
1.94375
1.98004
1.97885
1.96153
1.96627
1.97124
1.91153
1.89759
1.90108
1.99103
1.98588
2.02513
2.01097
1.72162
1.70056
1.6972
1.7297
1.72527
1.68267
1.70842
1.70166
1.6953
1.69721
1.65013
1.65595
1.64827
1.64875
1.6452
1.65223
1.6549
1.65205
1.65304
1.6543
1.65258
1.64896
1.65127
1.65047
1.64976
1.68289
1.68558
1.68912
1.68713
1.68954
1.68149
1.68737
1.69268
1.6924
1.68819
1.68623
1.68873
1.68786
1.69013
1.68641
1.68288
1.68295
1.68537
1.68516
1.6838
1.68713
1.68559
1.68846
1.68232
1.68583
1.68842
1.87738
1.89994
1.8843
1.90561
1.89418
1.88707
1.86984
1.84238
1.86182
1.85085
1.87147
1.86074
1.82693
1.80456
1.78454
1.84014
1.81971
1.81021
1.81922
1.83779
1.78694
1.78188
1.79356
1.80626
1.77854
1.78253
1.71186
1.72625
1.72292
1.69931
1.71605
1.71329
1.65148
1.64905
1.6598
1.6608
1.65566
1.65353
1.6508
1.65014
1.6509
1.65226
1.64575
1.64379
1.63518
1.64356
1.64098
1.64303
1.65033
1.64873
1.9051
1.91748
1.92688
1.91995
1.92007
1.90411
1.90547
1.94372
1.89926
1.92146
1.91086
1.92404
1.89885
1.90085
1.94923
1.94595
1.95777
1.90915
1.9101
1.95204
1.93424
1.70126
1.69983
1.69368
1.69324
1.68313
1.68366
1.6969
1.70628
1.69246
1.72437
1.71971
1.72236
1.70315
1.70633
1.7054
1.7295
1.70572
1.71955
1.73809
1.74216
1.72364
1.71189
1.72527
1.73182
1.73356
1.72445
1.72276
1.73023
1.7072
1.69609
1.68424
1.68113
1.67701
1.67642
1.681
1.68149
1.68377
1.70054
1.65309
1.6549
1.65658
1.654
1.65173
1.6552
1.65292
1.65281
1.6512
1.64848
1.65291
1.65254
1.64861
1.66612
1.66625
1.66064
1.65984
1.73376
1.77016
1.76176
1.74162
1.77016
1.8077
1.80091
1.80279
1.77321
1.80974
1.80368
1.78788
1.77701
1.79317
1.79663
1.78875
1.76904
1.79603
1.79
1.76468
1.75187
1.75587
1.74387
1.75354
1.74984
1.6647
1.66714
1.67006
1.66885
1.66759
1.67025
1.67065
1.66836
1.66869
1.66819
2.01057
1.98319
1.97229
2.01663
2.00446
1.6579
1.65871
1.65534
1.65717
1.65765
1.65393
1.65556
1.65543
1.65667
1.65662
1.65454
1.65431
1.65437
1.6514
1.65829
1.65968
1.65258
1.65685
1.70015
1.69933
1.69384
1.70075
1.69509
1.69482
1.69771
1.69118
1.72406
1.72049
1.71933
1.70638
1.71862
1.71925
1.70528
1.7224
1.71274
1.67487
1.66072
1.64887
1.65951
1.6643
1.67208
1.76523
1.7566
1.74148
1.72937
1.7192
1.75067
1.73639
1.73357
1.72722
1.72532
1.73595
1.77581
1.78249
1.76996
1.7761
1.78448
1.77899
1.76276
1.76585
1.75596
1.75704
1.67878
1.67867
1.67978
1.6727
1.67231
1.68062
1.67782
1.65247
1.65009
1.64975
1.67112
1.66965
1.67173
1.66596
1.65659
1.66259
1.65487
1.66125
1.6553
1.84088
1.79102
1.8256
1.85613
1.87361
1.83327
1.7868
1.77786
1.78782
1.85013
1.86368
1.92095
1.95644
1.92424
1.96858
1.91728
1.95988
1.96272
1.93993
1.95632
1.94068
1.67066
1.65115
1.66087
1.66231
1.66286
1.6593
1.98727
2.00161
2.00903
2.02049
2.00144
2.0162
2.02043
2.02212
1.98936
1.94682
1.92849
1.94031
1.95289
1.96803
1.97544
1.82999
1.82997
1.79661
1.81196
1.80212
1.83718
1.82935
1.81048
1.82821
1.80381
1.63143
1.63373
1.6301
1.62597
1.63789
1.63386
1.63056
1.63255
1.63079
1.63214
1.63604
1.63609
1.63886
1.63948
1.63553
1.64317
1.66244
1.67398
1.67115
1.67627
1.66791
1.66885
1.65831
1.66411
1.66568
1.67171
1.67147
1.63646
1.63961
1.63856
1.63569
1.92478
1.90973
1.90665
1.86825
1.92552
1.93316
1.86754
1.85764
1.8302
1.74173
1.74205
1.74686
1.74014
1.73952
1.74014
1.72893
1.71865
1.71264
1.72347
1.72587
1.71452
1.93647
1.96609
1.98403
1.94987
1.9231
2.00208
2.00823
1.99447
1.99849
1.9382
1.90991
1.89278
1.88534
1.89875
1.6902
1.68657
1.68885
1.69691
1.69754
1.69838
1.68283
1.69375
1.68838
1.69606
1.68158
1.68741
1.68659
1.69195
1.70207
1.70053
1.99059
2.01129
1.99062
2.0094
2.00339
1.99397
1.72305
1.70128
1.7032
1.72976
1.70301
1.73192
1.73647
1.71399
1.73521
1.73292
1.70249
1.69985
1.69825
1.69212
1.69483
1.70045
1.69586
1.69404
1.7021
1.70161
1.70133
1.70037
1.70253
2.0724
2.09499
2.07652
2.09638
2.08646
2.05565
2.11009
2.07168
1.67123
1.67502
1.66653
1.67325
1.67486
1.67309
1.67122
1.67413
1.66785
1.66514
1.66622
1.65845
1.65992
1.65847
1.66721
1.66376
1.66799
1.66479
1.66109
1.65362
1.65349
1.6642
1.73146
1.72805
1.72301
1.73764
1.73469
1.73062
1.75392
1.7572
1.74505
1.73554
1.76421
1.75303
1.74703
1.73635
1.73832
1.77375
1.76895
1.71395
1.72171
1.72276
1.72128
1.71981
1.70898
1.72241
1.72862
1.74369
1.75023
1.75053
1.74285
1.73502
1.72591
1.74667
1.73324
1.85684
1.82881
1.85826
1.83408
1.85843
1.87136
1.8603
1.85399
1.70001
1.69312
1.69431
1.69652
1.70152
1.69363
1.69996
1.69338
1.69956
1.69921
1.69479
1.6973
1.67701
1.6718
1.67857
1.67476
1.67226
1.67273
1.66665
1.66388
1.65941
1.66078
1.66491
1.66575
1.7413
1.74683
1.74394
1.74407
1.72692
1.74303
1.73538
1.73643
1.92884
1.93902
1.90481
1.89982
1.83647
1.8362
1.79592
1.81334
1.82535
1.79834
1.79132
1.78061
1.78824
1.77167
2.03724
2.02154
2.03248
2.04707
2.03908
2.0047
2.04679
2.02741
2.09798
2.08381
2.08043
2.08603
2.09001
1.64959
1.64893
1.65114
1.68157
1.69068
1.68587
1.69327
1.6928
1.68498
1.67951
1.68317
1.69074
1.80002
1.80638
1.80337
1.82657
1.82645
1.83604
1.82346
1.83045
1.82121
1.82794
1.82372
1.81777
1.81989
1.81647
1.81508
1.79583
1.81305
1.80548
1.7974
1.82028
1.80158
1.81608
1.79797
1.79687
1.81283
1.79997
1.81579
1.81343
1.8098
1.81158
1.81646
1.75529
1.74895
1.79107
1.76629
1.7691
1.79119
1.7866
1.7973
1.80047
1.80039
1.68485
1.68059
1.67161
1.66826
1.66287
1.67856
1.68133
1.65432
1.66666
1.65416
1.6712
1.66187
1.66424
1.66189
1.66548
1.65522
1.67315
1.66947
1.67277
1.67322
1.6416
1.65375
1.64903
1.64615
1.64357
1.64349
1.64647
1.65653
1.65918
1.65661
1.64883
1.63968
1.64204
1.66032
1.66235
1.72139
1.73417
1.72669
1.72565
1.73532
1.72958
1.73176
1.72779
1.74267
1.74579
1.74054
1.74078
1.73959
1.74953
1.7461
1.72989
1.7706
1.78797
1.81369
1.78723
1.75253
1.74199
1.76415
1.74474
1.64283
1.6411
1.63455
1.63757
1.62851
1.63791
1.64113
1.63013
1.62176
1.639
1.63296
1.63524
1.91923
1.9048
1.94798
1.95137
1.96052
1.94684
1.9293
1.96051
1.98675
1.9908
1.97537
1.97975
1.97434
1.99347
1.9968
1.69927
1.68492
1.67928
1.69597
1.69747
1.69108
1.69433
1.69843
1.69167
1.68663
1.68967
1.69994
1.6971
1.99261
1.97794
1.97749
1.98062
2.00243
2.00039
1.99421
1.99117
2.02697
1.99742
2.00284
1.6638
1.66585
1.66668
1.66363
1.66371
1.66575
1.6662
1.66752
1.66363
1.66435
1.6552
1.66123
1.66217
1.65569
1.65769
1.65415
1.64555
1.65284
1.65807
1.65183
1.66299
1.6629
1.66285
1.66173
1.66351
1.66373
1.66614
1.66655
1.66647
1.66605
1.6664
1.6673
1.68939
1.67908
1.68803
1.66161
1.64269
1.67231
1.6822
1.6915
1.68626
1.67486
1.66744
1.68248
1.67557
1.6722
1.68302
1.6935
1.67373
1.66484
1.8137
1.81514
1.80327
1.83168
1.83749
1.86224
1.85679
1.84607
1.85002
1.87074
1.8585
1.86089
1.87297
1.86396
1.82577
1.84699
1.84377
1.84089
1.8338
1.85566
1.85194
1.85316
1.84272
1.8454
1.8223
1.85143
2.01964
2.02631
1.70602
1.65268
1.64755
1.65096
1.64888
1.65544
1.64934
1.65285
1.65868
1.68286
1.68536
1.68388
1.68426
1.68676
1.68483
1.6889
1.68808
1.68251
1.68421
1.68146
1.68414
1.66359
1.66335
1.66777
1.66976
1.66163
1.66549
1.66018
1.66911
1.6707
1.6683
1.66729
1.66971
1.66264
1.65891
1.66758
1.66328
1.66985
1.66032
1.66226
1.66865
1.66775
1.65796
1.64972
1.6549
1.65927
1.65964
1.65427
1.65814
1.67348
1.67074
1.69091
1.68813
1.67596
1.68835
1.68726
1.6814
1.68788
1.68243
1.68413
1.69015
1.69382
1.69803
1.69194
1.68701
1.69426
1.69906
1.68922
1.6841
1.68258
1.64828
1.6475
1.65313
1.65743
1.65313
1.64928
1.6477
1.65173
1.64637
1.64491
1.65342
1.65716
1.65592
1.64606
1.65285
1.65809
1.67902
1.69254
1.68013
1.68813
1.68799
1.69917
1.69697
1.69728
1.69937
1.69154
1.68711
1.71911
1.70749
1.6998
1.6945
1.69797
1.70258
1.69726
1.69086
1.69434
1.69541
1.69451
1.70025
1.7013
1.74329
1.75244
1.67752
1.67773
1.67948
1.67919
1.67729
1.67557
1.66478
1.66831
1.67272
1.7034
1.68942
1.69577
1.69682
1.69989
1.69448
1.69672
1.69396
1.69496
1.69196
1.68909
1.68713
1.69052
1.70157
1.6976
1.69727
1.69367
1.70195
1.69991
1.70292
1.69539
1.67795
1.6778
1.66109
1.67544
1.6838
1.68175
1.67646
1.67817
1.67145
1.66331
1.72281
1.73991
1.73128
1.70181
1.70072
1.69571
1.73234
1.75216
1.74252
1.75666
2.01421
2.03571
1.99147
2.05258
2.01977
2.03303
1.98974
1.99958
1.66827
1.66595
1.67374
1.66858
1.67108
1.66712
1.67036
1.66915
1.67036
1.67245
1.70788
1.69897
1.67548
1.6885
1.67508
1.68212
1.66553
1.66283
1.69672
1.68578
1.68692
1.70223
1.67089
1.65172
1.66797
1.68128
1.68396
1.66983
1.6723
1.67341
1.69193
1.69587
1.68213
1.69682
1.6901
1.70196
1.68294
1.67893
1.68122
1.67973
1.67781
1.69236
1.69512
1.69021
1.69195
1.6873
1.68885
1.6941
1.69402
1.68916
1.6913
1.67508
1.6739
1.66749
1.67576
1.68089
1.67931
1.67657
1.67541
1.68103
1.68032
1.63997
1.64177
1.71014
1.72438
1.78353
1.7602
1.9096
1.95565
1.95541
1.95189
1.92287
1.90881
1.9321
1.74623
1.75563
1.77413
1.78151
1.77692
1.76653
1.75558
1.79234
1.78763
1.7512
1.77052
1.76601
1.76241
1.67211
1.68238
1.67845
1.6599
1.6673
1.67141
1.67775
1.67507
1.67016
1.66527
1.66348
1.66936
1.67088
2.08292
2.03371
2.08395
2.08007
2.04049
2.08991
2.06684
2.04676
2.07348
2.04723
2.07696
2.06367
2.04846
2.10687
2.09568
2.02943
2.04878
2.05928
2.04139
1.78856
1.79475
1.79568
1.76438
1.78967
1.81378
1.81515
1.80931
1.8122
1.8205
1.82744
1.72502
1.74
1.71821
1.71074
1.70913
1.73976
1.72043
1.73807
1.7208
1.66005
1.67136
1.67
1.67044
1.6633
1.6758
1.6708
1.68204
1.6849
1.68416
1.70489
1.72184
1.70657
1.84755
1.85116
1.84759
1.81229
1.85455
1.86185
1.85178
1.8554
1.83568
1.82287
1.86451
1.8543
1.82044
1.83147
1.94489
1.92789
1.94
1.92843
1.94364
1.98105
1.95532
1.96254
1.95945
1.9392
1.721
1.79734
1.76559
1.76559
1.71798
1.70481
1.71355
1.7891
1.80132
1.8018
1.72543
1.71582
1.82002
1.84143
1.77956
1.80008
1.64911
1.65316
1.64704
1.65252
1.65281
1.64486
1.64387
1.64207
1.64165
1.65066
1.64756
1.64216
1.66762
1.66064
1.64879
1.6426
1.66875
1.65926
1.71799
1.71501
1.7189
1.72414
1.72011
1.72066
1.72034
1.71423
1.71612
1.71471
1.66936
1.67601
1.6843
1.69785
1.68476
1.67772
1.68544
1.69585
1.70628
1.70555
1.69619
1.70332
1.70956
1.66171
1.66313
1.64718
1.64183
1.64941
1.65975
1.65095
1.65846
1.66589
1.65177
1.66072
1.94566
1.93375
1.93976
1.94548
1.94675
1.94739
1.93716
1.6566
1.65298
1.64941
1.65462
1.65472
1.65192
1.65266
1.65391
1.65201
1.65586
1.65563
1.64811
1.65436
1.65258
1.64815
1.7113
1.7083
1.71999
1.72245
1.72543
1.72493
1.71865
1.72196
1.71015
1.72592
1.73123
1.7229
1.72728
1.70246
1.71315
1.75661
1.74025
1.74184
1.7558
1.75309
1.73232
1.73665
1.74619
1.747
1.75676
1.74947
1.75154
1.74993
1.71049
1.71426
1.70046
1.66804
1.66954
1.66113
1.6633
1.6579
1.6551
1.66486
1.65917
1.65115
1.66895
1.67384
1.86279
1.83044
1.86455
1.90548
1.91795
1.90343
1.92534
1.89279
1.90202
1.84653
1.88405
1.85818
1.67866
1.68283
1.69508
1.67054
1.69062
1.70242
1.70089
1.69552
1.66955
1.66886
1.6926
1.69761
1.7954
1.78529
1.76233
1.76602
1.77098
1.79293
1.80138
1.78985
1.74236
1.76926
1.75566
1.80319
1.77459
1.77431
1.75029
1.69985
1.67422
1.69282
1.7004
1.6398
1.64098
1.64261
1.64079
1.63815
1.64399
1.64723
1.64526
1.90084
1.899
1.88185
1.88619
1.88603
1.89502
1.9244
1.92099
1.92914
1.92865
1.67936
1.68315
1.68183
1.67684
1.67259
1.67385
1.6704
1.68129
1.68014
1.67794
1.68457
1.67552
1.67505
1.65642
1.65081
1.65108
1.65847
1.65966
1.64378
1.65787
1.65454
1.65726
1.65762
1.65866
1.64599
1.66131
1.6428
1.64204
1.65555
1.65991
1.74124
1.74541
1.74788
1.74994
1.71367
1.71672
1.72958
1.74676
1.73229
1.74498
1.73577
1.73278
1.74256
1.73052
1.79776
1.78729
1.78905
1.79804
1.78786
1.78276
1.78733
1.78442
1.76976
1.77313
1.76384
1.66168
1.66219
1.66116
1.65909
1.65878
1.65348
1.66348
1.66103
1.66024
1.65956
1.66064
1.65904
1.65678
1.65795
1.65382
1.65591
1.65818
1.65597
1.65924
1.65819
1.65938
1.65285
1.65925