/*--------------------------------*- C++ -*----------------------------------*\
| =========                 |                                                 |
| \\      /  F ield         | OpenFOAM: The Open Source CFD Toolbox           |
|  \\    /   O peration     | Version:  v1612+                                |
|   \\  /    A nd           | Web:      www.OpenFOAM.com                      |
|    \\/     M anipulation  |                                                 |
\*---------------------------------------------------------------------------*/
FoamFile
{
    version     2.0;
    format      ascii;
    class       surfaceScalarField;
    location    "100";
    object      phi;
}
// * * * * * * * * * * * * * * * * * * * * * * * * * * * * * * * * * * * * * //

dimensions      [0 3 -1 0 0 0 0];

internalField   nonuniform List<scalar> 
37524
(
1.18035e-09
-1.93721e-09
7.24401e-09
-6.48707e-09
1.53152e-08
-7.8108e-09
1.15885e-08
-1.90928e-08
-1.41201e-08
-1.13655e-08
1.16616e-08
1.3824e-08
-1.10481e-09
5.08751e-09
-5.13793e-09
1.15538e-09
-1.37153e-09
-9.83183e-09
1.16395e-09
1.00393e-08
2.02474e-08
-2.27589e-09
-3.08532e-09
-1.48862e-08
4.22645e-09
1.23689e-08
3.65211e-09
-1.66228e-08
3.99794e-09
1.31712e-08
-5.46427e-10
-1.21577e-08
-1.28122e-08
8.34702e-09
-1.31592e-08
1.26645e-08
-1.14838e-08
1.19784e-08
-3.76693e-10
2.99742e-09
-1.47784e-08
3.38676e-09
-1.69226e-08
-1.15595e-08
1.09672e-08
4.81878e-09
-1.0838e-08
1.61587e-08
-1.58573e-08
-1.47238e-08
1.24695e-08
1.46232e-08
2.71413e-09
-1.27928e-09
-1.5186e-08
4.85861e-09
1.56119e-08
-5.28456e-09
1.92615e-10
-2.74422e-09
2.00723e-08
1.22209e-08
6.74804e-09
3.80803e-09
-3.38694e-09
-7.16927e-09
-5.44941e-09
7.55785e-09
4.63934e-09
7.36904e-09
7.48705e-09
-1.03978e-08
-4.45844e-09
5.4192e-09
3.46261e-09
5.65936e-09
-1.45412e-08
1.27133e-09
1.60292e-08
-9.93154e-09
1.34983e-08
8.63301e-09
-1.67122e-08
3.02055e-09
5.98436e-09
-1.51792e-09
1.0019e-08
-6.94367e-09
-5.48521e-11
9.44456e-09
-4.87503e-09
3.27656e-09
1.37258e-08
-6.77518e-09
1.07333e-09
1.03411e-08
-1.05677e-09
-1.91047e-09
-1.48449e-08
8.34589e-09
9.96154e-09
-4.87724e-09
-8.69642e-09
4.53659e-09
-2.09789e-10
6.09981e-09
-1.04267e-08
1.13347e-08
-1.16755e-08
7.6724e-10
1.40558e-08
-3.48837e-09
9.04287e-09
-1.89664e-09
-6.37908e-09
-2.13251e-09
1.10684e-08
1.47697e-09
4.17888e-09
7.0738e-09
8.4589e-09
1.32871e-08
-1.05499e-08
1.23473e-08
1.40645e-09
-3.2038e-09
2.7809e-09
-7.59079e-09
-5.74003e-09
-2.342e-09
-1.60718e-09
2.52305e-09
1.42653e-09
-4.72256e-09
-1.60673e-09
3.98733e-09
-3.55043e-09
4.79242e-09
-5.96458e-09
-2.53222e-10
-1.31907e-09
-1.9781e-09
-3.92277e-09
5.29069e-09
1.77032e-09
-3.13803e-09
-1.85371e-09
-2.32219e-09
7.07583e-09
-3.26209e-09
1.47699e-09
-8.90712e-10
7.6667e-09
2.9988e-10
-1.5435e-08
-3.2984e-10
1.0644e-09
1.47005e-08
-2.90576e-09
-9.74832e-09
-4.6694e-10
-1.00294e-08
2.90558e-09
1.04103e-08
1.02938e-08
-1.01201e-08
-1.30613e-08
2.50993e-09
1.00846e-08
-4.43083e-09
-5.78901e-09
4.77906e-09
5.44079e-09
-1.10852e-08
4.40003e-09
2.25431e-09
9.53936e-10
-9.16818e-09
-2.87097e-09
-4.44047e-09
-3.94622e-10
-1.46418e-08
8.40545e-09
-2.93179e-09
-6.29391e-09
1.24885e-10
-4.86964e-09
1.10386e-08
4.71724e-09
-8.68825e-09
-2.32296e-09
-7.39886e-09
-1.08449e-09
9.30202e-09
-8.18684e-10
-1.46506e-08
1.051e-09
-1.04228e-09
3.9563e-09
2.5099e-09
-1.74899e-09
-5.38914e-09
1.67195e-09
-4.13209e-09
7.84934e-09
-6.55877e-10
-7.76928e-10
-2.06631e-09
8.51734e-09
-3.95905e-09
6.29265e-09
-4.04727e-09
-1.04904e-09
1.28175e-08
-4.28718e-09
5.04739e-10
7.03195e-09
-1.16688e-08
9.36309e-09
2.31469e-09
9.47821e-09
-3.98903e-09
-7.80394e-09
1.37089e-08
-2.78552e-09
-8.60876e-09
2.65536e-09
3.60559e-09
7.44797e-09
-6.88405e-09
5.65796e-09
1.2909e-08
-1.1683e-08
5.75691e-09
-9.98566e-09
1.03437e-08
-3.65638e-09
2.79087e-09
3.27044e-09
1.06789e-08
-3.16175e-09
7.69853e-09
-8.52586e-09
8.83972e-09
1.42317e-09
-1.34247e-08
-2.6539e-09
1.11839e-08
-8.31482e-10
9.41957e-09
-3.23376e-09
-6.45217e-09
1.53805e-08
-1.16261e-08
1.02636e-08
6.36144e-09
1.16604e-09
-1.26494e-08
1.25586e-08
-2.68777e-09
-5.42061e-10
-1.50399e-08
3.8957e-09
6.57672e-10
1.04865e-08
3.10662e-09
3.12818e-10
6.71665e-09
-1.0136e-08
-1.56301e-08
-2.1339e-08
2.19291e-08
1.2262e-08
-1.00681e-08
1.70187e-09
3.02899e-09
1.30573e-08
-3.82436e-09
2.12855e-08
-3.38997e-09
3.49156e-10
-1.82449e-08
8.47031e-09
2.74695e-09
-1.59091e-09
-1.74292e-08
-1.29662e-08
1.13517e-08
4.88957e-09
-3.27515e-09
-1.51954e-08
6.38333e-10
1.23015e-08
-1.84181e-09
-1.01106e-08
1.055e-08
1.02217e-08
7.17403e-10
1.39367e-08
-3.28755e-09
-1.13665e-08
-1.00156e-08
1.15477e-08
-3.37397e-09
1.66296e-09
-1.00265e-08
1.97152e-08
1.42963e-08
1.03915e-08
2.59546e-09
-2.80059e-10
-1.27069e-08
-1.37692e-08
4.87353e-09
1.75008e-08
-8.6052e-09
-5.93204e-09
-1.65836e-09
-6.17873e-09
1.20618e-08
-1.02014e-08
-7.32376e-09
5.46316e-09
-1.7156e-09
1.8717e-09
1.19056e-08
-5.15085e-09
1.52275e-08
-5.20322e-09
-1.98831e-08
8.72217e-09
9.95223e-09
1.20859e-09
-1.45619e-08
-2.63567e-09
-2.68588e-09
-9.29324e-09
-1.82713e-08
1.30025e-08
-9.53493e-09
3.99087e-09
-3.88052e-10
-1.10072e-08
-9.93274e-09
1.1405e-08
-2.08313e-09
-1.91256e-08
-9.26804e-09
1.28393e-08
1.02406e-08
-2.16172e-08
1.22823e-08
-4.6774e-09
1.29854e-09
1.1322e-08
-5.49779e-09
4.71186e-09
-1.05361e-08
-2.43449e-09
9.91563e-10
1.27649e-08
-1.06817e-08
8.40944e-09
-1.62249e-10
-3.43994e-09
-1.27395e-08
-9.53472e-10
-1.09754e-08
1.66407e-08
5.24016e-09
1.3758e-08
-5.09954e-09
-1.38986e-08
1.36419e-08
-9.35527e-09
-2.14872e-09
1.27651e-08
3.02538e-09
9.88524e-09
1.72397e-09
-1.84722e-08
-1.13891e-08
4.62034e-09
1.45377e-08
-7.76901e-09
-5.92952e-09
2.94988e-09
1.07087e-08
6.98103e-09
-4.92467e-09
-5.33933e-09
8.37554e-10
1.52104e-08
8.53681e-09
1.48187e-08
-9.36084e-09
-5.252e-09
9.09832e-09
-1.0088e-08
6.24165e-09
2.67266e-09
9.92284e-09
-1.78476e-08
6.08086e-09
1.12823e-08
-1.46904e-08
2.48153e-09
6.45949e-09
1.57242e-10
1.15239e-08
1.03868e-08
-1.19879e-08
1.29021e-08
1.10332e-09
1.79064e-08
-2.85508e-09
-4.6646e-09
9.79332e-10
3.19094e-09
1.37362e-08
1.53487e-08
-8.76626e-09
-5.01569e-10
-1.42225e-08
3.04962e-09
1.21523e-08
-5.79538e-09
3.00424e-09
1.30888e-08
1.27204e-08
7.37258e-09
-1.36336e-08
6.39469e-09
1.23054e-08
-3.35134e-09
6.32255e-09
3.1218e-09
-5.82471e-09
7.43697e-09
1.39197e-09
-2.16677e-09
9.06254e-09
1.5998e-09
8.92718e-09
-6.95091e-09
-3.57621e-09
-1.03299e-08
-9.2212e-09
5.22181e-09
1.43291e-08
-1.26743e-08
-1.13671e-09
3.48074e-09
3.69895e-09
-9.84865e-09
-6.52471e-09
-5.27194e-09
-2.50411e-10
4.58081e-09
1.31962e-08
-3.56902e-09
-1.42083e-08
1.46841e-08
-8.50354e-09
-8.88881e-09
3.02318e-09
-9.25952e-09
1.5125e-08
-5.68734e-09
-7.23004e-09
4.02848e-09
6.71386e-09
-8.12784e-09
2.76948e-10
1.49588e-08
-1.58155e-08
1.69562e-08
1.20554e-08
1.00993e-08
-1.12308e-08
-1.09121e-08
-4.72316e-11
-1.36887e-08
2.70848e-10
2.26611e-09
-1.09264e-08
-2.252e-09
9.83984e-09
1.35342e-09
-5.80747e-09
-5.80327e-09
2.35107e-09
-3.19768e-09
-1.95202e-09
6.24792e-09
6.87631e-09
-1.14107e-08
1.34274e-08
9.15568e-10
-2.93208e-09
-5.54157e-09
1.07129e-08
-1.65819e-08
2.14738e-09
5.09433e-09
-1.27832e-08
4.74826e-09
6.10123e-09
-8.70206e-09
-3.60722e-09
-4.1143e-09
-5.79174e-09
1.35133e-08
-7.92251e-09
9.06357e-09
-1.54961e-08
1.55421e-08
1.33814e-08
2.02474e-09
-6.80796e-09
7.94305e-09
-9.2623e-10
7.75631e-09
-6.77628e-09
1.36535e-08
-3.87246e-09
-2.03949e-09
1.32014e-08
2.49165e-09
2.68391e-10
1.05008e-08
-1.28086e-08
6.99586e-09
-1.4259e-09
-1.35875e-09
-4.21116e-09
9.62827e-09
5.91088e-09
-8.54327e-09
7.92723e-09
-1.41002e-09
-1.73001e-09
9.10155e-09
5.55763e-10
8.16667e-09
-5.5981e-09
-1.25913e-08
2.86815e-09
1.53212e-08
-1.13096e-08
7.10748e-09
-1.39609e-09
-1.40193e-08
-4.80509e-09
6.23303e-09
-9.72241e-09
2.13364e-09
1.2157e-08
-4.56842e-09
-7.53501e-09
-2.53187e-09
-3.95268e-09
8.70352e-09
-8.57805e-09
-7.66052e-09
-2.70165e-09
7.2764e-09
-1.42974e-08
-9.04948e-09
1.40512e-08
4.31646e-09
-4.18075e-10
-4.38869e-09
-4.16071e-09
1.17872e-08
-3.23818e-09
4.17637e-09
3.07168e-09
-1.58264e-08
-1.0462e-08
1.02494e-08
1.05546e-08
-1.69473e-08
9.46404e-09
5.58825e-09
2.26466e-09
8.55287e-10
-1.40313e-08
4.60816e-09
7.38698e-09
2.03611e-09
-2.41295e-09
-5.20453e-10
-1.1098e-08
-1.17795e-08
1.08878e-08
5.49984e-09
5.49847e-09
-1.40676e-08
-3.21035e-09
5.95983e-09
-9.3193e-10
-7.44086e-09
1.47027e-08
-1.18989e-08
2.69459e-09
-3.44138e-09
-1.11468e-08
-5.72275e-09
5.52616e-09
7.58358e-09
1.75965e-10
6.1005e-11
-7.46244e-09
4.14303e-09
1.42071e-08
1.95042e-09
5.28983e-09
4.52687e-09
6.58834e-10
-6.11767e-09
-2.65193e-09
-1.26884e-08
-4.83643e-09
2.21681e-09
-5.81471e-09
8.43427e-09
-8.24049e-09
5.35441e-09
4.71305e-09
-1.02423e-11
1.1886e-08
7.84496e-09
-9.83811e-09
1.16725e-09
-1.5628e-09
6.55803e-11
-3.07278e-10
1.26813e-08
-9.48741e-09
-2.88648e-09
1.65739e-08
-1.2198e-08
-4.6831e-09
-1.35401e-10
4.33825e-09
1.23711e-08
2.87816e-09
9.66773e-09
-1.59912e-08
4.47511e-09
1.58544e-08
1.02114e-09
-1.39796e-08
-3.03271e-09
1.17806e-08
-9.38548e-09
-1.37395e-09
8.85682e-09
-6.6306e-09
9.55447e-09
-1.13716e-08
-1.4806e-08
-1.44404e-09
1.4776e-08
3.16814e-09
-6.72056e-09
6.43067e-09
-5.92986e-09
7.65397e-09
6.89968e-09
-9.52792e-09
-6.75716e-09
-7.84935e-10
1.05407e-09
-1.71814e-09
8.28574e-10
-8.59771e-09
6.30454e-10
-1.37201e-08
1.13047e-09
-8.35617e-09
5.05184e-10
-5.65746e-09
8.58136e-10
-7.63875e-09
1.19641e-09
9.14943e-10
-9.81233e-09
8.88158e-09
-7.13799e-09
-7.11333e-09
-8.66025e-09
-2.36821e-09
1.11583e-08
-1.2991e-10
1.39089e-08
-6.31339e-09
-1.04369e-09
-6.55196e-09
1.00735e-08
-1.04301e-08
-1.23837e-08
3.54583e-09
3.46989e-09
5.36781e-09
-1.33117e-08
-7.73228e-09
1.31016e-09
1.08373e-08
-5.04015e-09
-7.10735e-09
1.2566e-08
-3.35911e-09
-7.89678e-09
-4.31231e-09
-1.59588e-09
-4.13536e-10
-1.45129e-09
-3.27722e-09
3.84241e-09
-7.59681e-09
-5.57896e-10
-2.00934e-09
8.62713e-09
4.21946e-09
8.36717e-09
2.18941e-09
-3.61484e-09
-6.6838e-09
1.45168e-08
-1.11956e-08
3.36242e-09
-1.19257e-08
1.69379e-09
-2.56793e-09
1.27995e-08
-5.65253e-09
-1.20628e-08
5.78954e-09
5.2258e-10
-1.2859e-08
1.62699e-08
-8.01881e-09
-1.05302e-08
2.27891e-09
2.30331e-09
-1.05982e-09
1.50262e-08
-1.06964e-08
9.28743e-09
-3.95148e-09
5.36031e-09
-1.49206e-08
-3.79472e-09
-1.89418e-09
1.42565e-08
-1.06686e-08
6.35894e-10
1.13128e-08
3.6394e-09
1.20689e-08
-1.50726e-08
-1.31754e-08
4.28328e-10
1.11623e-08
7.77131e-09
-6.23264e-09
6.95837e-09
3.34647e-09
9.86222e-09
9.89552e-09
-1.93503e-08
1.14152e-09
1.71487e-08
-8.30926e-09
-3.26987e-09
1.4391e-08
-1.13875e-08
1.19956e-09
1.43328e-08
1.14901e-08
1.41703e-08
-9.29139e-09
-4.17528e-09
-7.03808e-10
-1.26759e-08
1.33943e-08
1.34519e-08
7.05051e-10
7.12575e-09
-1.7666e-08
9.83501e-09
1.47004e-08
-1.71215e-08
-6.87022e-09
-3.62481e-09
5.64921e-09
1.66226e-08
2.58262e-09
-3.03199e-09
-1.61733e-08
1.29023e-08
3.73208e-09
-1.19208e-11
-9.00367e-09
1.98457e-08
2.55213e-09
-8.71495e-09
2.81701e-09
-7.3276e-09
1.32255e-08
-1.53531e-08
-7.99608e-09
1.43453e-08
-1.92875e-08
-2.40917e-10
-9.7239e-09
4.22115e-09
6.20771e-09
-1.65502e-08
4.21044e-09
1.48354e-08
-1.00035e-11
-1.22429e-08
8.91396e-09
1.88237e-08
1.35382e-08
-1.65264e-08
-4.38846e-11
1.42241e-08
3.04612e-09
-1.14682e-08
-1.26841e-10
3.59886e-09
-1.70612e-08
-1.36946e-08
4.37337e-09
1.38947e-09
-1.63675e-08
-2.14362e-09
-1.51708e-08
5.34328e-09
-4.05666e-09
-1.26953e-08
1.14089e-08
-8.78254e-09
-3.64025e-09
1.77664e-08
-1.41891e-08
1.26033e-08
4.23803e-09
-2.65237e-09
-2.37759e-09
1.98995e-09
-1.38015e-08
-3.57518e-10
1.26961e-08
2.64736e-10
9.61847e-09
2.45882e-10
-1.22418e-08
9.74528e-09
-4.84319e-10
-2.15318e-09
3.11609e-09
-5.20327e-09
-8.034e-09
9.59729e-09
-1.1791e-08
2.53119e-09
1.3297e-08
-1.02384e-08
1.17941e-09
1.32979e-08
1.97003e-08
-4.3278e-10
-1.72775e-08
6.26054e-09
3.20137e-09
-8.96344e-09
-1.2237e-09
-1.11979e-08
-6.62797e-09
8.86259e-09
3.40003e-09
-1.43518e-08
2.32327e-09
-5.55112e-09
1.51349e-08
-1.32443e-08
9.6044e-09
5.27953e-09
-1.18091e-08
-2.78586e-09
9.31537e-09
-9.49563e-09
1.30417e-08
1.73347e-09
-3.7359e-09
-1.01366e-08
2.06337e-09
-1.67414e-09
-1.56032e-08
8.73249e-09
4.08478e-09
2.44418e-10
-8.46042e-09
1.95035e-08
-9.26788e-09
-6.09098e-09
-8.44388e-09
1.10871e-09
-9.23149e-09
8.65037e-09
-5.2771e-10
1.22429e-08
1.16249e-09
-1.61064e-08
2.7009e-09
1.21395e-09
1.2664e-08
-1.63507e-09
-8.02537e-09
-1.3092e-09
1.05484e-08
4.8705e-09
-1.17334e-08
-4.10772e-09
-1.15761e-08
-4.22706e-10
9.57771e-09
-8.27196e-09
-2.615e-09
7.61562e-09
-1.7807e-09
1.65847e-09
-7.49351e-09
-2.21053e-09
9.87887e-09
-5.27637e-11
8.02469e-09
-1.06836e-08
3.26742e-09
-6.086e-10
-6.27218e-09
7.98738e-09
-6.06585e-10
8.01702e-09
-1.4227e-09
-8.37504e-09
-4.65716e-10
-1.06461e-08
1.24257e-08
-1.21165e-10
1.4768e-11
-1.1063e-08
9.62542e-09
-1.06307e-08
1.00245e-08
6.20934e-10
9.83269e-09
-3.79015e-09
-1.55306e-08
9.48793e-09
2.34857e-08
4.58141e-09
-1.82345e-08
-8.7642e-09
-1.67695e-08
8.97071e-09
1.6563e-08
1.24544e-08
2.26717e-09
-1.12766e-08
-8.03075e-09
2.53792e-09
7.44041e-09
1.01463e-08
-5.13238e-09
7.03865e-09
-1.58014e-09
-1.6907e-08
1.14484e-08
5.49054e-09
-9.72846e-09
-1.46509e-08
7.93346e-09
1.88749e-10
6.52868e-09
-1.55917e-08
1.38412e-08
1.25014e-08
-1.0751e-08
7.8865e-09
-2.50583e-08
4.27673e-09
-1.67168e-08
2.29504e-09
1.01451e-08
-1.15769e-08
8.48413e-09
7.36953e-09
1.62854e-08
3.8334e-09
-1.22323e-08
1.34099e-08
-5.32696e-09
2.87727e-09
-1.95285e-09
-4.0999e-09
1.71248e-08
-1.45032e-08
1.47827e-09
8.17676e-09
-1.00283e-08
-2.24831e-09
-5.51902e-09
6.72769e-09
6.96813e-09
5.31776e-09
6.28811e-09
-4.83367e-09
4.15844e-10
-5.61053e-09
-5.86023e-09
-1.34767e-08
7.72047e-09
5.7553e-09
-8.15792e-09
-4.69463e-09
3.00085e-09
9.41426e-09
3.51693e-09
-6.64126e-09
-2.73594e-09
1.49127e-09
3.64974e-09
-2.40644e-09
-2.7346e-09
-3.05195e-09
5.45238e-09
-9.09177e-10
-4.54733e-09
5.25764e-09
-3.76225e-09
-3.29185e-09
3.76447e-09
-2.52516e-09
2.05258e-09
2.9626e-09
-8.02071e-10
-8.90943e-09
3.56016e-09
4.19253e-09
1.15676e-09
3.64007e-09
-5.91085e-09
-2.27659e-09
-1.11126e-09
2.3411e-09
-5.92439e-09
2.35737e-09
-5.68891e-09
7.09603e-09
-1.90505e-09
5.43009e-09
-5.62421e-10
7.42304e-09
-3.35744e-09
1.62127e-09
-5.48874e-09
1.0847e-08
-3.39145e-09
-5.10364e-09
-6.58773e-09
-2.20739e-09
-7.54261e-09
-1.02896e-08
1.27284e-08
-1.64238e-08
6.24254e-09
2.63856e-09
-8.27436e-09
-4.6257e-09
2.61037e-09
-1.75415e-09
1.41669e-08
8.6796e-09
-2.10925e-08
-1.38475e-08
-1.08507e-08
-8.04284e-09
-7.52152e-09
8.97657e-09
-1.47422e-08
2.07369e-09
-1.99864e-08
1.07106e-08
4.85473e-09
-9.90844e-09
1.86358e-08
-1.35823e-08
1.2312e-08
-2.54991e-09
-1.09513e-08
1.18904e-09
1.3081e-08
1.13175e-08
-1.77661e-08
-6.63241e-09
5.72243e-09
9.48846e-09
-2.12995e-09
-8.3374e-09
-6.79427e-09
4.18694e-09
8.59625e-09
-5.6162e-09
3.34247e-09
7.23672e-10
-1.03968e-08
7.44997e-09
2.22325e-09
7.19811e-09
-9.76478e-09
3.29032e-09
-8.26766e-10
6.73409e-09
1.29077e-09
-7.11456e-09
6.11019e-09
1.77585e-10
-5.05025e-10
2.2769e-09
-1.21687e-08
1.50331e-09
-1.17732e-08
6.44091e-09
1.90392e-09
-6.84156e-09
-1.10494e-09
4.31272e-10
-2.8988e-09
-2.73082e-09
-4.86983e-09
8.08121e-09
-1.43328e-08
5.68368e-10
6.28059e-09
7.48387e-09
-1.91962e-09
-1.44285e-09
-1.09703e-08
7.56491e-09
-7.58063e-09
6.23732e-09
2.22622e-10
1.11959e-08
-1.03618e-08
5.44867e-09
6.31562e-09
1.01678e-08
7.64808e-09
3.35394e-09
1.30261e-08
-2.39664e-09
-1.39838e-08
1.23677e-08
-1.35306e-09
-7.66061e-09
1.95899e-08
7.53868e-09
-1.4761e-08
3.4229e-09
5.25734e-09
1.09093e-08
5.98688e-09
9.81312e-10
7.49302e-09
-1.08712e-08
5.81936e-09
-6.19128e-09
-8.53395e-10
1.42327e-08
-5.84073e-09
2.99159e-09
3.21393e-09
5.41633e-09
-1.16224e-08
5.01291e-09
3.96521e-09
9.43592e-09
-8.75408e-09
-8.45008e-09
-6.67639e-09
1.42729e-08
1.70885e-08
1.68337e-09
-4.53941e-09
8.69151e-09
-1.51902e-08
1.19149e-08
-2.53874e-09
7.48262e-09
-1.16121e-08
8.70259e-09
-1.13333e-08
-2.86836e-09
-4.83924e-09
1.03827e-08
-4.54864e-09
-8.18948e-09
-1.67513e-08
2.24018e-08
1.86983e-08
-1.9422e-08
1.08381e-08
-1.01144e-08
3.60419e-09
1.23126e-08
2.78145e-09
-1.55673e-08
1.83839e-08
5.31542e-09
-8.13205e-09
-7.13605e-09
-1.21087e-08
3.6773e-09
-7.16219e-09
-1.20889e-08
1.72832e-09
1.75228e-08
9.38728e-09
-1.72902e-08
7.40674e-10
1.64863e-08
6.39933e-09
-1.9174e-08
6.85363e-09
-7.10172e-09
-1.89699e-08
5.74267e-09
1.68314e-08
1.79712e-09
-9.92896e-09
-7.87257e-09
-1.13524e-08
-1.01517e-08
-2.30932e-09
-4.82924e-09
7.4723e-09
-6.42041e-09
2.25675e-08
3.3911e-10
-4.45701e-09
-1.35674e-08
1.15492e-08
-1.80967e-08
2.09043e-09
7.95525e-09
-2.42201e-09
-6.8525e-09
6.53308e-09
2.74141e-09
-3.23397e-09
2.72336e-09
-1.91127e-09
-1.01436e-08
5.70978e-11
-6.96078e-09
1.6495e-09
3.14669e-11
5.27979e-09
-1.75537e-09
-4.04427e-09
-1.16113e-09
-1.93046e-09
4.97919e-09
3.4843e-09
4.33141e-09
-5.09649e-10
-5.75222e-09
-4.45286e-09
1.72474e-09
4.3777e-09
-1.87683e-09
9.20499e-09
-5.71722e-09
-7.53206e-09
2.73512e-09
6.50135e-09
-6.71357e-11
-3.10426e-09
-2.54584e-09
6.42296e-09
-3.76663e-09
-1.04898e-09
7.75289e-09
8.10917e-09
-2.22196e-09
1.0767e-08
2.81361e-09
-1.13588e-08
-5.35122e-09
-1.70805e-08
9.5137e-09
1.29179e-08
-1.09355e-08
3.36225e-09
1.76637e-08
-1.23611e-08
-1.62381e-08
7.70892e-09
1.70851e-09
-9.95684e-09
1.77618e-08
-8.31883e-09
-9.22198e-09
1.92493e-08
1.34016e-08
-2.17163e-09
3.29291e-09
-1.45229e-08
1.58498e-08
-2.69453e-09
-1.31898e-08
6.66223e-09
2.97759e-09
-1.56291e-08
-1.80973e-08
2.73582e-09
-8.95768e-09
1.91285e-08
-5.85893e-09
-6.56556e-09
-6.70399e-09
6.58887e-09
-2.95936e-09
1.54989e-08
-6.99214e-09
6.59122e-09
-1.15375e-08
1.19385e-08
4.63112e-09
6.44492e-09
-2.01084e-08
9.03242e-09
1.46606e-08
-1.48977e-08
-4.42753e-09
3.47568e-09
1.77738e-08
-1.20322e-08
-8.7245e-09
8.3909e-09
-3.31746e-09
9.66526e-09
-1.47387e-08
1.03019e-09
8.08854e-09
-1.20781e-08
-1.28848e-08
1.15995e-08
5.61665e-10
7.23633e-10
1.42471e-09
-7.24627e-09
-1.58301e-08
2.16516e-08
-1.9948e-09
1.63501e-08
-1.08797e-08
-1.53722e-08
1.24262e-08
7.57717e-09
4.92173e-09
-1.19031e-08
1.88637e-08
-1.25173e-08
4.1344e-09
5.90242e-09
8.82693e-09
-3.73444e-09
-1.5544e-08
-1.40441e-08
4.06842e-09
9.58148e-09
-1.26197e-08
9.11638e-09
7.44423e-09
1.119e-08
3.24627e-09
-7.39108e-10
-1.66273e-08
-6.66345e-09
1.22306e-09
-5.03828e-09
1.04787e-08
-6.13076e-09
2.71359e-09
-1.41044e-08
1.34638e-08
9.05272e-10
-1.74959e-08
1.37273e-09
1.25134e-08
-1.4259e-08
3.72865e-10
1.30004e-08
-2.11104e-09
2.57439e-09
1.10797e-08
-1.73589e-09
3.23271e-09
-1.25766e-08
1.02039e-09
1.17859e-08
-1.72662e-09
1.15165e-09
1.32215e-08
1.54699e-08
1.20935e-08
-4.60796e-09
-8.31699e-09
3.57671e-09
-8.80939e-09
-3.29325e-09
7.70308e-09
8.23638e-09
-1.33937e-08
-2.54576e-09
8.64555e-09
6.49924e-09
-7.44174e-09
-1.15677e-09
9.2622e-09
1.30966e-10
8.04657e-09
-5.57793e-10
-8.9118e-09
6.32337e-09
3.75446e-09
-1.79187e-09
4.97357e-09
7.28607e-09
1.84281e-10
-1.0451e-09
-3.18215e-09
7.416e-09
-1.96192e-09
-1.02164e-08
1.24832e-08
5.0193e-09
5.24617e-09
1.08533e-08
7.15229e-09
-8.58381e-09
-9.42182e-09
1.25698e-08
-3.92604e-09
2.20935e-09
2.61364e-09
3.86785e-09
6.70661e-10
5.71512e-09
9.46823e-09
3.2404e-09
-6.84924e-10
-1.11394e-08
-3.27617e-09
2.59032e-09
-2.72644e-09
-2.43955e-09
-2.00333e-09
-1.77517e-09
4.87012e-09
7.72442e-10
-4.21382e-10
6.57562e-09
-6.3396e-09
1.85081e-10
3.3298e-09
-3.78894e-10
-3.37248e-09
-5.63133e-09
2.07768e-09
1.7778e-09
-2.34505e-09
-3.09191e-09
6.10996e-09
-6.73151e-10
1.3782e-09
8.00942e-09
-2.81221e-09
5.5078e-09
-7.99824e-10
-4.13996e-09
-1.87261e-09
2.50357e-09
3.50889e-09
-9.77281e-10
5.21872e-09
-6.28255e-09
-4.8e-09
-3.50449e-09
3.41793e-09
2.71881e-09
-4.16886e-09
6.46904e-09
6.72841e-09
1.82732e-09
-1.36615e-11
-5.85193e-09
1.07847e-10
-1.55315e-09
7.29727e-09
1.71707e-10
-2.44444e-09
9.02132e-09
2.2934e-09
1.23054e-09
6.45968e-09
1.09398e-08
6.95835e-09
7.05787e-09
9.04422e-09
-5.90309e-09
-1.01991e-08
-3.67092e-09
-6.43616e-10
1.13724e-08
1.37837e-08
-7.22629e-09
5.82104e-09
-1.23785e-08
5.1195e-10
1.29105e-08
3.61216e-10
1.01239e-09
-2.93459e-09
1.09664e-08
7.7502e-09
1.23361e-09
-1.4887e-08
7.07349e-09
-2.99424e-09
1.3656e-08
-4.53209e-09
-2.20527e-09
-6.91867e-09
4.50863e-09
1.51627e-09
7.63105e-09
-8.37969e-09
8.65584e-09
2.35739e-10
-1.43724e-08
9.34596e-09
-2.51255e-09
8.83947e-09
1.3417e-08
-7.36843e-09
-1.69925e-10
-9.01684e-09
1.65551e-08
-6.17325e-09
4.7947e-09
-5.98994e-09
-9.0836e-09
7.41894e-09
-6.54221e-09
-1.61916e-08
6.73891e-09
1.0969e-08
-9.74105e-09
1.54084e-08
-8.72079e-10
-4.38993e-09
-3.72082e-09
-4.82202e-09
-4.97631e-09
-5.78525e-09
-9.004e-09
-7.85657e-10
9.08416e-10
-2.94264e-09
2.82016e-09
1.12e-09
1.00667e-09
-5.67192e-09
-1.62564e-09
-1.5229e-08
1.11144e-08
2.43966e-09
1.67479e-09
8.70802e-10
3.52601e-09
-1.9626e-08
1.29208e-08
-3.02533e-09
-8.13721e-09
-1.75836e-09
2.77548e-09
-2.2318e-09
1.23771e-08
-1.22736e-08
1.30957e-08
1.95337e-09
-1.25131e-08
-2.78587e-09
-1.19325e-09
-9.81818e-09
-1.5018e-09
-2.28593e-09
1.2207e-08
3.75144e-09
-1.26989e-08
-1.39673e-08
5.06982e-09
1.13371e-08
1.99734e-09
-1.24388e-08
8.51972e-10
-3.80554e-09
1.58226e-08
-1.28692e-08
1.3071e-08
1.13351e-08
-1.26048e-08
-6.86762e-09
-1.30725e-10
9.23394e-09
-1.26589e-08
4.47944e-09
1.12123e-08
1.38238e-08
3.72647e-09
7.39717e-09
-4.2689e-09
5.38877e-09
-8.5169e-09
-4.84942e-09
-2.34024e-09
1.45869e-08
-3.65842e-09
-6.33179e-09
5.14084e-09
-8.53511e-09
6.0782e-10
4.92363e-10
7.21314e-09
-5.42218e-09
-2.28321e-09
9.22868e-09
-6.9058e-09
-1.83046e-09
1.41016e-08
5.3325e-09
4.82876e-09
-2.88172e-09
-7.27949e-09
7.7754e-09
-1.34229e-09
-1.10059e-09
3.22698e-09
-5.17728e-09
-6.58479e-09
-2.34148e-09
-7.63274e-10
2.21555e-09
2.71745e-10
4.56876e-09
-6.21783e-09
-3.52858e-09
2.84063e-09
-4.81144e-09
-2.74864e-09
2.72229e-09
-1.04154e-08
-7.45272e-09
4.99771e-09
1.49598e-08
-2.80447e-09
-1.77647e-08
5.60928e-09
1.18042e-08
-5.80265e-09
8.95819e-09
1.0742e-09
-1.40375e-08
1.01588e-08
-2.17473e-08
1.1542e-08
1.60659e-08
-5.86052e-09
-2.42139e-09
-1.56252e-08
-3.7008e-09
6.76975e-09
3.12247e-09
-8.81801e-09
1.00679e-08
-1.59782e-09
-1.7003e-09
-1.19041e-08
1.55947e-08
7.85139e-09
-3.80381e-09
-1.05217e-08
-4.91386e-09
9.41175e-09
-1.19673e-08
7.46937e-09
8.65287e-09
-9.33425e-09
1.95947e-09
3.19449e-09
3.63621e-09
6.97612e-09
-9.45645e-09
-7.85165e-09
7.06416e-09
1.02439e-08
-1.10336e-08
-2.93688e-09
4.51393e-09
4.04609e-09
-1.14418e-08
-3.63789e-09
-4.20466e-09
3.99077e-10
-1.34147e-08
7.91192e-09
2.56577e-09
-5.82252e-10
1.37461e-09
-1.38085e-10
-1.11547e-08
1.10322e-08
8.03429e-09
1.5034e-08
1.26602e-09
-1.49255e-08
4.20182e-09
-3.22656e-10
-3.74059e-09
-9.60516e-10
1.17652e-08
8.57174e-09
2.46123e-10
-8.95597e-09
4.6528e-09
-2.85751e-10
-7.07956e-09
-2.85159e-09
6.19054e-09
-2.32771e-09
-9.90802e-11
-3.97279e-09
1.40444e-08
-1.20168e-08
1.2939e-08
3.27945e-09
2.19341e-10
-1.09702e-08
-5.70461e-09
-2.17045e-09
5.0234e-09
-8.10526e-09
7.28925e-11
-1.02714e-09
9.99324e-09
-9.81831e-09
6.62064e-09
-9.97553e-09
-7.94807e-09
-9.51009e-09
8.45691e-10
8.65313e-09
-1.10001e-08
1.50138e-09
5.51147e-09
-6.07007e-09
1.40433e-09
-3.51825e-09
-4.12835e-09
9.25536e-10
6.72113e-09
-3.46148e-09
8.59644e-09
3.47397e-10
1.03575e-09
1.06236e-09
-1.02487e-08
3.11629e-09
6.28523e-09
-1.62229e-08
1.25977e-09
-1.33189e-08
4.0731e-09
-1.28449e-08
1.00316e-08
-5.29011e-09
1.02888e-08
4.58179e-09
-1.16154e-08
5.02288e-09
-5.92866e-09
1.25321e-09
-3.12642e-09
-5.1367e-09
-8.42413e-09
8.15691e-09
-5.02621e-09
-6.52431e-09
-5.56532e-09
-1.47009e-08
1.4274e-09
1.88387e-08
-1.41895e-08
1.42151e-09
7.20247e-09
-1.58332e-08
-1.08091e-08
1.24527e-08
-1.53005e-09
-1.34229e-08
-8.80247e-10
-1.07632e-08
-1.02141e-08
6.27631e-09
-6.12832e-09
-1.00731e-08
1.76286e-08
-1.06225e-08
5.9156e-09
-1.10524e-08
-1.24095e-09
-7.44466e-09
-7.82716e-09
4.46252e-09
-1.83351e-08
-2.53261e-09
1.55533e-08
6.14042e-09
-1.34421e-08
-8.25184e-09
-3.85566e-09
1.07379e-09
-7.2316e-09
3.79738e-10
-1.78929e-08
2.07377e-08
-1.28514e-08
-5.4326e-09
2.79327e-10
-1.96618e-09
-1.40062e-08
-9.37799e-09
-8.06076e-10
-1.27928e-08
-7.20784e-09
-5.55868e-09
-6.95492e-09
-2.01579e-08
2.23805e-09
3.93257e-10
-2.22556e-09
1.42093e-08
3.28662e-10
7.23745e-09
-7.85115e-09
2.85068e-10
6.91379e-09
-6.13725e-09
-4.47868e-10
4.1907e-10
-1.48989e-09
-5.79683e-09
5.96129e-09
-9.7756e-11
-5.44445e-09
7.58384e-09
7.67148e-09
-8.34154e-09
-2.33561e-09
1.02228e-08
-3.03323e-10
-1.0614e-08
1.09527e-08
5.44849e-11
-4.70085e-09
-1.28027e-09
8.28848e-09
7.9331e-09
-3.03131e-09
9.07705e-09
-1.35689e-09
-1.75896e-09
-4.27841e-10
8.22455e-09
8.98925e-09
-2.4131e-09
8.61781e-09
-5.64832e-11
-2.19368e-09
7.26817e-09
6.98087e-09
-1.20554e-08
1.12051e-08
7.0732e-09
-1.12586e-08
-7.01973e-09
-8.96004e-09
4.26727e-09
2.49905e-09
-2.07415e-09
-6.6594e-09
-2.26541e-10
3.39554e-09
1.50777e-08
-1.17943e-09
-1.94559e-08
1.55089e-08
5.12637e-09
7.29743e-09
-1.05511e-08
-8.26888e-10
6.05683e-09
-9.62771e-10
-6.93304e-09
8.68108e-09
-2.57498e-09
-1.42494e-08
1.46138e-08
-7.34768e-09
-3.43644e-09
1.41797e-08
5.30555e-09
-5.70419e-09
-6.94903e-09
6.75592e-09
6.34541e-09
-4.42022e-09
9.37629e-09
-2.85153e-09
8.07021e-09
-7.04102e-09
1.82236e-09
-4.42409e-09
2.51666e-09
-9.44123e-10
-2.75073e-09
-4.177e-09
1.59385e-09
5.33386e-09
3.54384e-09
1.77566e-09
1.13326e-08
-2.32066e-09
-5.64032e-09
-3.37162e-09
-6.62854e-09
1.37842e-08
5.54959e-09
-3.30038e-09
-6.67326e-09
-3.81207e-09
-1.52144e-08
-1.14753e-09
9.73338e-09
-8.96818e-09
-1.18864e-08
8.57415e-10
8.09784e-09
-6.32988e-09
-2.62541e-09
4.329e-09
-2.94815e-09
-5.23481e-10
-4.29969e-09
-1.87e-09
7.76353e-09
-4.67209e-09
3.91628e-09
-3.80793e-09
6.26692e-09
-2.57832e-09
6.86819e-09
9.26491e-09
-2.12601e-09
-1.44492e-09
-5.69397e-09
5.5391e-09
-2.87605e-09
-8.21813e-09
-3.15487e-09
-4.61991e-09
-1.54482e-09
-6.10621e-10
2.21561e-09
-8.39201e-09
3.78851e-09
-4.72778e-09
-7.04488e-10
-6.3578e-09
-8.94835e-09
1.21439e-08
3.16242e-09
-1.3837e-08
1.06998e-08
-3.2207e-09
1.62398e-10
-3.12084e-09
-5.99001e-09
-5.2349e-09
-8.43982e-09
5.95931e-09
-3.53951e-09
-5.54066e-09
7.72509e-10
6.4299e-09
-1.24312e-09
-3.51719e-10
2.70823e-10
1.22248e-08
-5.33804e-10
1.08819e-08
9.09464e-09
-4.26589e-09
-6.7881e-09
1.95937e-09
-5.90796e-10
1.474e-09
8.21146e-09
8.30172e-09
-2.83285e-09
3.30386e-09
-8.77282e-09
9.10567e-09
-3.14541e-11
4.05742e-09
-9.58029e-09
1.25695e-09
7.30899e-09
5.8541e-09
1.53381e-09
-7.9062e-09
7.76709e-09
-1.13188e-08
-3.23642e-09
6.6425e-09
-4.50555e-10
7.15123e-09
8.33242e-09
-1.32341e-10
-6.14413e-09
4.81351e-09
-8.51473e-09
-6.63758e-09
-6.27e-09
1.17515e-08
-3.29398e-10
-5.15222e-09
1.16185e-08
-9.40824e-09
-8.48037e-09
-6.36841e-09
9.61237e-09
8.50751e-09
3.47989e-09
1.77019e-09
3.57484e-09
-9.38772e-10
-7.06247e-09
8.83372e-09
5.96033e-09
-7.73164e-09
4.35487e-10
-6.89148e-09
-6.06536e-10
-8.92059e-09
6.09531e-09
-3.82082e-09
6.64618e-09
-7.96148e-09
-5.23631e-10
-8.44044e-09
9.06648e-09
2.85384e-09
1.59408e-09
1.27905e-09
-1.74546e-09
1.53531e-09
-8.59237e-09
1.71972e-09
3.05181e-09
-8.98846e-09
-7.56537e-09
6.67301e-09
4.11319e-09
-6.11531e-09
-2.3612e-08
-1.62951e-09
4.36217e-09
2.08794e-08
1.37468e-10
-1.98366e-08
-3.91299e-09
1.80883e-09
-2.92011e-09
-1.03944e-08
1.15056e-08
-1.41355e-09
-1.08835e-08
1.4106e-08
1.57821e-09
-1.52336e-08
1.20258e-08
1.41514e-08
-1.21059e-08
-1.90804e-09
1.71e-08
-5.87215e-09
-1.06042e-08
5.59277e-09
4.72439e-09
-1.09243e-08
3.27651e-10
-1.09739e-08
9.63196e-09
-6.23769e-09
5.67679e-10
-4.82346e-09
-3.64901e-10
-1.00454e-08
-3.73516e-09
-2.0925e-08
-3.99728e-09
-1.11249e-08
4.14817e-09
-1.05645e-08
3.29384e-10
8.36013e-09
-1.02391e-08
-9.04533e-09
-9.40141e-10
-1.30396e-09
-1.13533e-08
-1.69271e-09
6.27671e-10
-1.57162e-08
-4.48909e-09
-7.00077e-09
-4.38589e-09
-1.06677e-08
-1.39974e-08
-5.50376e-09
-4.28042e-09
1.92269e-09
7.86154e-09
-4.74026e-09
-2.19343e-09
1.43001e-09
-9.92069e-10
-3.73432e-09
4.45982e-10
-5.6595e-09
-7.28111e-11
9.49536e-09
-3.0899e-09
1.32471e-09
-7.73017e-09
-3.77465e-10
6.13851e-09
-4.76349e-09
-1.94629e-09
8.63255e-09
-6.60542e-09
-3.5148e-10
-4.41908e-09
3.45432e-09
-4.69474e-09
-6.98246e-10
-6.81073e-09
1.08204e-08
-2.69668e-09
-6.79904e-09
4.38326e-09
6.0597e-09
6.87471e-09
1.66003e-09
-6.72148e-09
-1.81325e-09
7.4456e-09
-3.95659e-09
3.38573e-09
-2.0701e-09
-1.08096e-09
-4.94187e-09
1.04412e-08
1.10144e-09
4.40598e-09
-7.80091e-09
4.96477e-09
-7.28024e-09
-1.06194e-09
-8.91146e-09
5.05455e-09
1.33396e-08
-9.4828e-09
-3.46832e-09
-2.3414e-09
-3.10177e-09
6.19252e-09
-6.25728e-09
5.85538e-09
-5.79068e-09
-3.10345e-09
6.65304e-09
2.64291e-09
9.99449e-09
-5.45544e-09
-1.22124e-08
7.67335e-09
7.12412e-09
3.45569e-09
-5.8536e-10
5.92421e-09
6.50459e-11
-1.22466e-08
-6.47585e-10
-3.95173e-09
-4.30539e-09
-4.42652e-09
7.12781e-09
1.07559e-09
3.53233e-10
-5.66233e-09
8.48103e-09
5.05714e-09
-1.04476e-08
4.70381e-10
4.15062e-10
-1.34936e-08
6.94783e-09
-6.38369e-09
5.90946e-09
9.55167e-09
-9.07743e-09
7.38271e-09
-1.33513e-08
-3.39655e-09
-1.12253e-08
1.06273e-08
3.99449e-09
-1.04446e-08
7.11727e-09
-6.92634e-11
-4.09273e-09
1.32494e-09
6.95112e-09
-8.933e-10
4.32023e-10
-1.33984e-08
1.14211e-09
1.05205e-08
7.75097e-10
-6.71502e-09
-7.45847e-09
-2.30272e-09
1.43075e-08
-1.37745e-09
-2.85905e-09
7.67364e-09
-1.36372e-08
1.19203e-08
-5.911e-09
-6.10424e-09
-1.07389e-08
9.85988e-09
6.98316e-09
-8.20553e-09
2.01277e-09
8.84319e-11
-6.96963e-09
-2.77952e-09
-9.89803e-10
2.03381e-09
-7.16268e-09
-1.84086e-09
-6.2772e-09
1.05485e-10
-2.68451e-09
-3.0184e-09
3.61587e-09
-1.15781e-08
7.995e-10
4.36864e-09
-7.02997e-09
-8.11227e-09
-6.16356e-09
6.40321e-11
1.20413e-08
-1.06086e-08
-4.79187e-09
9.32036e-09
4.91023e-09
-6.83507e-09
7.5697e-09
-1.14256e-08
1.19469e-08
-8.09106e-09
7.16355e-09
1.50952e-10
2.5514e-10
6.11547e-09
-1.31028e-08
-4.43827e-09
1.10578e-08
8.00328e-09
-1.40384e-08
-5.02277e-09
2.98458e-09
1.34969e-08
-5.42378e-09
1.16722e-08
-2.57216e-09
-3.5806e-09
4.68465e-09
6.05944e-09
2.47352e-09
5.89274e-09
9.43673e-09
-1.84059e-10
-1.24945e-09
9.68216e-09
1.32514e-08
5.6174e-09
8.52826e-09
6.90745e-09
7.60521e-09
-7.52521e-09
-6.98752e-09
6.84453e-09
2.13827e-10
-1.69573e-10
1.54691e-08