/*--------------------------------*- C++ -*----------------------------------*\
| =========                 |                                                 |
| \\      /  F ield         | OpenFOAM: The Open Source CFD Toolbox           |
|  \\    /   O peration     | Version:  v1612+                                |
|   \\  /    A nd           | Web:      www.OpenFOAM.com                      |
|    \\/     M anipulation  |                                                 |
\*---------------------------------------------------------------------------*/
FoamFile
{
    version     2.0;
    format      ascii;
    class       volScalarField;
    location    "100";
    object      p;
}
// * * * * * * * * * * * * * * * * * * * * * * * * * * * * * * * * * * * * * //

dimensions      [0 2 -2 0 0 0 0];

internalField   nonuniform List<scalar> 
16950
(
0.405431
0.436876
0.424299
0.418269
0.41295
0.40751
0.437124
0.447686
0.425796
0.416121
0.397642
0.404213
0.410732
0.42079
0.401055
0.422013
0.396021
0.393416
0.422542
0.428212
0.421083
0.420588
0.418787
0.438076
0.438389
0.427966
0.426863
0.448769
0.44807
0.435599
0.428614
0.43646
0.452962
0.455116
0.439291
0.441334
0.433112
0.443532
0.456112
0.457285
0.457395
0.464302
0.433337
0.444503
0.460881
0.443191
0.450551
0.438548
0.448438
0.454053
0.451203
0.46422
0.406284
0.425673
0.435965
0.442541
0.436049
0.437768
0.417052
0.433935
0.419507
0.409024
0.443746
0.408004
0.415936
0.434153
0.423649
0.441115
0.468738
0.479537
0.470001
0.477618
0.504094
0.484571
0.484078
0.499699
0.483486
0.498059
0.479641
0.489933
0.469733
0.477568
0.485407
0.48735
0.490564
0.46447
0.388234
0.395765
0.392054
0.391441
0.392403
0.39382
0.397105
0.395599
0.398661
0.394898
0.39379
0.401358
0.397649
0.391708
0.446207
0.460288
0.459024
0.456353
0.461452
0.442622
0.449721
0.448519
0.434867
0.451602
0.45027
0.456773
0.459981
0.47611
0.47009
0.445919
0.457405
0.472221
0.394776
0.394235
0.392092
0.389677
0.395341
0.395256
0.392271
0.392816
0.38986
0.40039
0.39687
0.395158
0.392534
0.396189
0.340099
0.341671
0.330807
0.334092
0.347563
0.34434
0.334678
0.342756
0.336788
0.347085
0.347521
0.334235
0.343275
0.341708
0.341921
0.34314
0.347841
0.345952
0.347618
0.344297
0.343249
0.344753
0.41103
0.421896
0.423279
0.428235
0.432525
0.439929
0.43212
0.438448
0.42872
0.434927
0.408163
0.420345
0.426837
0.434673
0.42339
0.42731
0.401347
0.415381
0.419921
0.405165
0.399739
0.4077
0.414797
0.413193
0.417797
0.420721
0.429447
0.428432
0.425369
0.429374
0.423784
0.426514
0.439248
0.429565
0.416365
0.411599
0.423855
0.430223
0.465986
0.466796
0.471094
0.468502
0.486158
0.45757
0.4734
0.472606
0.450926
0.452184
0.440852
0.473688
0.462246
0.483724
0.461862
0.475256
0.466033
0.336574
0.326635
0.341158
0.335648
0.336643
0.329112
0.341689
0.343326
0.33524
0.327767
0.33612
0.340531
0.330289
0.340505
0.329433
0.340063
0.421873
0.421152
0.428568
0.424392
0.421477
0.426005
0.423946
0.424686
0.418965
0.424812
0.425176
0.425915
0.425051
0.42903
0.42807
0.430725
0.413717
0.413688
0.414453
0.403351
0.378487
0.377591
0.382045
0.3886
0.400128
0.404098
0.390057
0.377372
0.409
0.396167
0.400507
0.399159
0.41666
0.39886
0.403637
0.404704
0.379867
0.379613
0.410879
0.415344
0.383961
0.389372
0.394172
0.401685
0.389079
0.406498
0.436126
0.430964
0.431765
0.403616
0.414944
0.443874
0.441613
0.424437
0.435955
0.45797
0.457484
0.47102
0.477579
0.48158
0.490813
0.481429
0.483748
0.446611
0.484597
0.450432
0.455918
0.486347
0.479237
0.47182
0.455298
0.481524
0.469062
0.425576
0.422575
0.434358
0.438173
0.449222
0.451601
0.441246
0.443199
0.417335
0.414524
0.433164
0.43597
0.435618
0.422883
0.419676
0.418312
0.427334
0.417375
0.472555
0.473925
0.46687
0.491771
0.496462
0.489694
0.5047
0.473171
0.471858
0.482356
0.485178
0.468878
0.500617
0.504386
0.485926
0.486658
0.498234
0.481854
0.470494
0.496353
0.326835
0.326096
0.330778
0.333658
0.328027
0.334521
0.340172
0.32269
0.32653
0.318213
0.328157
0.321179
0.351899
0.359476
0.35388
0.354256
0.34781
0.352973
0.355727
0.34887
0.367776
0.348681
0.346015
0.363734
0.356199
0.353272
0.349975
0.406703
0.404137
0.40371
0.407393
0.398286
0.404511
0.409094
0.408873
0.450676
0.444727
0.448987
0.452305
0.44691
0.433514
0.432527
0.440203
0.436457
0.447244
0.453182
0.351542
0.352185
0.355377
0.345448
0.34178
0.352244
0.34462
0.356567
0.344557
0.346132
0.348361
0.429538
0.426606
0.418992
0.432371
0.429037
0.413823
0.415202
0.421429
0.414988
0.432631
0.434746
0.421866
0.432124
0.420393
0.413078
0.423161
0.413751
0.411263
0.420157
0.425255
0.421833
0.429866
0.40034
0.397665
0.408374
0.402675
0.408985
0.407294
0.402611
0.414762
0.409953
0.399339
0.402942
0.415995
0.426114
0.415107
0.42277
0.425788
0.415501
0.413821
0.423519
0.425896
0.438288
0.443141
0.446198
0.459457
0.464257
0.462843
0.471069
0.448787
0.445479
0.442965
0.442842
0.455702
0.412868
0.391295
0.393931
0.39765
0.394034
0.405703
0.401077
0.412404
0.386006
0.385693
0.389933
0.398181
0.394911
0.401548
0.388121
0.380592
0.375562
0.384092
0.387412
0.332537
0.339492
0.354444
0.349738
0.345629
0.331025
0.33472
0.34213
0.331758
0.369948
0.366805
0.354032
0.360267
0.362497
0.34504
0.355667
0.354997
0.341753
0.356647
0.374383
0.371077
0.377377
0.373843
0.381172
0.389232
0.374067
0.371369
0.394331
0.392574
0.383565
0.3868
0.388472
0.382225
0.380298
0.393298
0.387283
0.376164
0.381321
0.385822
0.379173
0.387407
0.425023
0.42024
0.414572
0.408027
0.427963
0.451506
0.446512
0.429523
0.43203
0.433212
0.439657
0.416915
0.431727
0.414384
0.425825
0.453821
0.461199
0.407433
0.418775
0.428373
0.448371
0.435385
0.438438
0.450587
0.445062
0.443059
0.42012
0.414652
0.42932
0.42849
0.411174
0.418602
0.412139
0.423865
0.423113
0.416214
0.417767
0.427063
0.424043
0.422566
0.425473
0.420304
0.424639
0.423026
0.426377
0.428568
0.426105
0.3425
0.358995
0.371021
0.359385
0.34119
0.365056
0.363449
0.353715
0.356785
0.389412
0.390929
0.397039
0.396342
0.419884
0.424585
0.396447
0.389964
0.403389
0.391748
0.414773
0.408765
0.416679
0.404232
0.406355
0.361703
0.367501
0.348981
0.336179
0.359723
0.364087
0.349543
0.340675
0.352543
0.344043
0.345319
0.350574
0.357523
0.345576
0.353124
0.343035
0.349642
0.357002
0.337561
0.342288
0.466496
0.475693
0.452006
0.460668
0.467604
0.471573
0.462507
0.464243
0.45153
0.456874
0.456679
0.447917
0.428535
0.446082
0.441598
0.436398
0.435533
0.478041
0.471118
0.444031
0.436642
0.452448
0.467867
0.471351
0.448652
0.449166
0.442375
0.442073
0.441556
0.46327
0.458062
0.45285
0.527185
0.519001
0.524486
0.519387
0.521749
0.522564
0.520415
0.519884
0.504338
0.508353
0.509138
0.501208
0.506383
0.492812
0.480069
0.480402
0.497346
0.483257
0.484042
0.486103
0.424166
0.408078
0.40125
0.396765
0.425541
0.421591
0.416168
0.410093
0.405364
0.391979
0.415864
0.417815
0.411127
0.412433
0.403039
0.401087
0.402516
0.397271
0.343922
0.348544
0.347915
0.350147
0.343023
0.334261
0.35449
0.349049
0.330808
0.340302
0.347114
0.341755
0.337535
0.398804
0.393341
0.415176
0.416337
0.413878
0.406537
0.409152
0.415185
0.415073
0.418307
0.409193
0.400916
0.413254
0.415436
0.411152
0.418293
0.43817
0.420941
0.426848
0.437828
0.439512
0.431454
0.42044
0.409475
0.41785
0.429946
0.440392
0.424675
0.408057
0.412233
0.406906
0.418318
0.422041
0.430399
0.430485
0.427176
0.427722
0.428869
0.42754
0.425353
0.409895
0.423037
0.426853
0.430117
0.416667
0.411143
0.398658
0.404716
0.404406
0.402501
0.425114
0.428161
0.41753
0.422958
0.419161
0.41832
0.408644
0.42252
0.415837
0.408708
0.402499
0.406001
0.421482
0.417128
0.393657
0.401555
0.404598
0.401327
0.401681
0.389081
0.401188
0.407783
0.400284
0.402352
0.403258
0.412941
0.414066
0.414203
0.423925
0.424958
0.416859
0.421294
0.405987
0.413503
0.404862
0.42724
0.43284
0.422871
0.413502
0.424097
0.406925
0.408961
0.411449
0.411651
0.411302
0.316182
0.31897
0.313212
0.31615
0.316944
0.312897
0.317744
0.317503
0.409642
0.401445
0.402339
0.389461
0.410828
0.414534
0.403802
0.404657
0.405328
0.395241
0.400742
0.414106
0.39975
0.412878
0.406917
0.41019
0.408487
0.381997
0.380948
0.388899
0.388135
0.363766
0.38882
0.395229
0.389612
0.377462
0.383116
0.360062
0.398516
0.383762
0.400239
0.366083
0.381475
0.378118
0.427187
0.414169
0.407408
0.418994
0.425771
0.418013
0.426405
0.413916
0.417283
0.405472
0.418728
0.404724
0.419784
0.404329
0.414121
0.414398
0.416123
0.447982
0.452235
0.462791
0.453196
0.447984
0.452777
0.456737
0.442123
0.455552
0.445667
0.446594
0.431766
0.433816
0.439516
0.445758
0.42875
0.431142
0.426561
0.397675
0.393005
0.395189
0.481834
0.490145
0.36705
0.368389
0.362887
0.440284
0.446961
0.440495
0.405578
0.402372
0.425125
0.424666
0.493965
0.493481
0.374846
0.362571
0.376789
0.330559
0.328102
0.43502
0.428792
0.429588
0.435221
0.450687
0.402285
0.408054
0.419059
0.422611
0.420885
0.506683
0.504758
0.503963
0.546061
0.542992
0.357219
0.358747
0.349397
0.35374
0.437713
0.435314
0.482101
0.47918
0.376317
0.391475
0.387173
0.453091
0.454023
0.339321
0.34149
0.394031
0.404086
0.404977
0.352306
0.348649
0.34375
0.477435
0.481098
0.486914
0.309177
0.305948
0.31171
0.470165
0.473332
0.473497
0.402139
0.419892
0.41623
0.376961
0.379795
0.372503
0.334286
0.331498
0.336569
0.33115
0.523068
0.519708
0.437764
0.439
0.4378
0.398989
0.380542
0.398781
0.464373
0.467665
0.452753
0.467918
0.334597
0.336906
0.332609
0.516167
0.520359
0.525483
0.434244
0.434497
0.436202
0.435732
0.316454
0.318037
0.304809
0.315752
0.494661
0.496033
0.499727
0.467716
0.471605
0.458524
0.392729
0.399786
0.400749
0.41771
0.418803
0.414088
0.414956
0.425294
0.433084
0.422476
0.359073
0.365957
0.372531
0.371441
0.432282
0.438726
0.343209
0.344002
0.350584
0.436392
0.431776
0.440358
0.399686
0.402265
0.482435
0.489498
0.48026
0.468944
0.326974
0.322566
0.321747
0.37788
0.379646
0.388635
0.398095
0.39952
0.394685
0.467485
0.46537
0.467947
0.3448
0.34726
0.326061
0.327517
0.332113
0.338184
0.332622
0.344315
0.358527
0.357664
0.356906
0.369419
0.363402
0.37231
0.377983
0.37664
0.370523
0.365817
0.362428
0.378606
0.477478
0.473973
0.482202
0.427355
0.439536
0.439625
0.426842
0.467527
0.479249
0.47528
0.486973
0.471984
0.452961
0.47396
0.47363
0.467135
0.449164
0.443082
0.46538
0.486085
0.481984
0.471307
0.457044
0.469074
0.481351
0.469086
0.363818
0.377386
0.384427
0.381144
0.409105
0.404043
0.410789
0.389509
0.385133
0.413857
0.42197
0.431914
0.366752
0.380089
0.381592
0.364038
0.391665
0.414734
0.430905
0.398298
0.392835
0.407752
0.408232
0.406986
0.394099
0.396167
0.407003
0.386523
0.386261
0.421186
0.419865
0.406736
0.402261
0.410496
0.399349
0.397033
0.38066
0.378277
0.371217
0.391499
0.382162
0.380349
0.384553
0.383471
0.387974
0.3935
0.393314
0.395604
0.383047
0.38852
0.388106
0.358718
0.358984
0.370575
0.320108
0.313387
0.32497
0.322816
0.343488
0.346185
0.354318
0.342991
0.355914
0.338548
0.342667
0.33052
0.335388
0.464168
0.466556
0.467622
0.46812
0.457017
0.462145
0.454418
0.467929
0.460803
0.483525
0.477434
0.458319
0.472868
0.475209
0.463447
0.467941
0.461852
0.48357
0.471238
0.468925
0.507789
0.4927
0.512823
0.502342
0.498793
0.484388
0.451032
0.443175
0.443463
0.36298
0.362606
0.369128
0.370131
0.372569
0.37844
0.378796
0.379452
0.39338
0.379225
0.389415
0.39539
0.453446
0.436994
0.44909
0.438942
0.438086
0.424952
0.418471
0.419397
0.418818
0.421731
0.450669
0.44514
0.445066
0.448636
0.438114
0.445734
0.446139
0.439869
0.431466
0.421738
0.416776
0.427756
0.43113
0.429189
0.427976
0.422221
0.429499
0.429214
0.424947
0.416686
0.423808
0.348239
0.351905
0.355568
0.348426
0.352795
0.353711
0.477494
0.469081
0.466906
0.396962
0.395242
0.399713
0.453202
0.455061
0.45921
0.445044
0.435023
0.436814
0.462585
0.414934
0.42413
0.415362
0.432817
0.450732
0.452582
0.433737
0.456418
0.441065
0.440989
0.416073
0.412194
0.424292
0.416843
0.421062
0.410778
0.417784
0.436381
0.431188
0.434682
0.428945
0.423824
0.350136
0.360755
0.358675
0.358634
0.384991
0.374935
0.379065
0.369231
0.375617
0.371595
0.365112
0.362723
0.367217
0.371946
0.386701
0.388516
0.384132
0.372943
0.378789
0.381061
0.373741
0.372979
0.412331
0.407842
0.380962
0.364609
0.367438
0.369528
0.353535
0.360922
0.362898
0.352513
0.35308
0.362552
0.351348
0.353679
0.35689
0.362679
0.370634
0.371543
0.365944
0.373871
0.372192
0.359935
0.360147
0.364576
0.359653
0.36561
0.384841
0.393488
0.396223
0.394095
0.403243
0.416616
0.492307
0.475749
0.464282
0.472518
0.474552
0.478665
0.447335
0.459053
0.448163
0.460289
0.425916
0.427119
0.420723
0.408869
0.409627
0.411064
0.405475
0.414374
0.412368
0.413054
0.410324
0.408063
0.409615
0.409339
0.405107
0.406168
0.411642
0.411653
0.422153
0.41405
0.420249
0.418275
0.417745
0.415219
0.418959
0.429586
0.427167
0.416198
0.422472
0.423111
0.420725
0.411889
0.402142
0.400591
0.398878
0.395437
0.408443
0.407621
0.406663
0.405739
0.404812
0.403474
0.404347
0.397836
0.39461
0.395097
0.403525
0.402873
0.397161
0.39852
0.40135
0.403771
0.404952
0.405718
0.438809
0.454824
0.444056
0.452351
0.463844
0.452034
0.463443
0.454567
0.454308
0.457512
0.492423
0.49195
0.45864
0.468435
0.47322
0.467297
0.459245
0.47502
0.468109
0.452429
0.462615
0.489553
0.488894
0.48417
0.458505
0.469974
0.476631
0.468423
0.509565
0.503797
0.48762
0.504134
0.536895
0.534685
0.536053
0.536597
0.478195
0.486087
0.491902
0.490925
0.495316
0.495085
0.516288
0.514779
0.499843
0.494365
0.507251
0.501077
0.493267
0.513563
0.522341
0.513229
0.491082
0.497257
0.493954
0.505274
0.520553
0.504581
0.338498
0.34545
0.3395
0.329741
0.334617
0.339181
0.334625
0.332683
0.315944
0.308666
0.318556
0.319602
0.311728
0.318735
0.316008
0.308069
0.320751
0.327307
0.323012
0.320904
0.330572
0.317858
0.329254
0.325736
0.320491
0.320919
0.324832
0.315625
0.325325
0.326648
0.311588
0.318251
0.317719
0.312802
0.320769
0.323495
0.327677
0.320117
0.316827
0.308891
0.308781
0.319068
0.316272
0.320941
0.373724
0.377868
0.464539
0.460179
0.460204
0.440681
0.444664
0.441815
0.439524
0.451225
0.443196
0.441612
0.439505
0.45758
0.444157
0.434539
0.426927
0.449777
0.434672
0.415733
0.427129
0.410196
0.42104
0.433896
0.421973
0.438437
0.425319
0.428134
0.431207
0.428954
0.43128
0.436814
0.433593
0.425388
0.429356
0.433193
0.435677
0.515661
0.51905
0.522851
0.534024
0.517424
0.535913
0.53326
0.535364
0.518899
0.491114
0.480099
0.505953
0.490756
0.48265
0.475631
0.477977
0.48341
0.313539
0.317661
0.318806
0.321901
0.318093
0.354179
0.360151
0.353831
0.334938
0.338929
0.340361
0.338238
0.335135
0.336423
0.34339
0.348872
0.34023
0.339428
0.330879
0.331432
0.332339
0.329598
0.335849
0.333349
0.331967
0.332599
0.328236
0.321395
0.32128
0.328626
0.328914
0.327571
0.32353
0.326618
0.325997
0.321391
0.458504
0.465773
0.44346
0.435495
0.456272
0.450902
0.478045
0.470975
0.457762
0.470437
0.478383
0.44696
0.453188
0.442761
0.451469
0.43972
0.463293
0.449756
0.454679
0.464106
0.470284
0.454319
0.459434
0.471448
0.456828
0.452624
0.46903
0.46203
0.406096
0.410216
0.408964
0.4008
0.408914
0.404206
0.404917
0.389119
0.377178
0.378391
0.378895
0.382795
0.387706
0.378371
0.450276
0.448311
0.441999
0.434627
0.44097
0.424156
0.43275
0.423448
0.441057
0.433564
0.432909
0.425719
0.502662
0.513355
0.517616
0.49943
0.502589
0.499678
0.510854
0.502455
0.513266
0.516728
0.514771
0.523645
0.500946
0.511241
0.519729
0.511258
0.520588
0.509826
0.527669
0.526353
0.514004
0.502349
0.526223
0.51437
0.516623
0.520107
0.518427
0.513324
0.515394
0.509512
0.336249
0.335091
0.33122
0.340292
0.330939
0.326996
0.326356
0.321261
0.323703
0.32936
0.32976
0.317901
0.328687
0.329072
0.349678
0.343269
0.337685
0.338364
0.338883
0.342954
0.339541
0.344463
0.369028
0.371271
0.365208
0.371619
0.360144
0.36326
0.385493
0.394306
0.39029
0.391033
0.391917
0.391122
0.392213
0.378267
0.380868
0.385614
0.419964
0.417997
0.466464
0.464435
0.459497
0.462259
0.444456
0.45419
0.438528
0.435113
0.426677
0.455555
0.450265
0.428939
0.431111
0.432499
0.448602
0.442512
0.444503
0.434751
0.370382
0.390765
0.393478
0.374644
0.390072
0.39269
0.487622
0.483395
0.484765
0.45224
0.466001
0.466927
0.45589
0.466297
0.45873
0.463185
0.454399
0.44716
0.454345
0.446701
0.468514
0.452173
0.449035
0.471755
0.466671
0.452508
0.458149
0.451669
0.464097
0.457249
0.48054
0.444678
0.455893
0.465782
0.459246
0.479337
0.468434
0.31423
0.314654
0.311849
0.317931
0.317423
0.309901
0.302786
0.309466
0.301484
0.307716
0.310652
0.305475
0.310521
0.311348
0.309922
0.312902
0.317476
0.320657
0.312673
0.313422
0.320406
0.322946
0.313531
0.316955
0.490652
0.491965
0.482203
0.474035
0.477764
0.481874
0.469487
0.460383
0.464199
0.47704
0.474836
0.473903
0.460636
0.473393
0.465852
0.460015
0.455014
0.34704
0.343879
0.35971
0.359306
0.367622
0.36569
0.33251
0.329417
0.335457
0.338684
0.368175
0.359335
0.359018
0.344214
0.351848
0.359703
0.352767
0.357953
0.360503
0.360236
0.351118
0.356361
0.369221
0.364102
0.342991
0.330404
0.334373
0.337439
0.333277
0.341753
0.340401
0.388619
0.390067
0.389445
0.40073
0.43836
0.423423
0.419015
0.405659
0.402092
0.40759
0.398798
0.386966
0.389476
0.37766
0.37858
0.36638
0.367721
0.350416
0.375838
0.371346
0.361774
0.364003
0.360397
0.351379
0.343381
0.324726
0.344947
0.354933
0.346248
0.337134
0.330945
0.333619
0.325098
0.353573
0.337209
0.340494
0.352954
0.367408
0.339393
0.338552
0.469859
0.457733
0.446535
0.474609
0.458323
0.454767
0.451015
0.391339
0.406303
0.395313
0.408055
0.397491
0.386804
0.390576
0.396209
0.391692
0.386639
0.396295
0.383287
0.38576
0.37862
0.380864
0.40169
0.394705
0.385249
0.391441
0.385656
0.398535
0.388193
0.376848
0.381893
0.382475
0.379567
0.388162
0.373283
0.376016
0.462306
0.45386
0.465054
0.481016
0.491295
0.489379
0.483936
0.468593
0.458458
0.482458
0.501384
0.484295
0.499005
0.479389
0.479936
0.478452
0.426252
0.423915
0.42376
0.413522
0.426301
0.342588
0.353961
0.354292
0.352817
0.35368
0.350867
0.343862
0.341111
0.345307
0.344547
0.353645
0.354154
0.345729
0.350683
0.548694
0.550616
0.524967
0.541186
0.54431
0.553063
0.543832
0.542011
0.530836
0.527135
0.350933
0.478422
0.496595
0.498804
0.50274
0.498198
0.492023
0.496919
0.497294
0.482713
0.4984
0.498598
0.492653
0.512871
0.492278
0.496057
0.508489
0.502872
0.50134
0.489105
0.497734
0.488277
0.506916
0.487926
0.495094
0.49439
0.488654
0.503338
0.496019
0.317117
0.314037
0.320551
0.316523
0.313774
0.321727
0.319077
0.316858
0.317103
0.315454
0.318462
0.427614
0.425163
0.421619
0.425347
0.425263
0.42546
0.424544
0.425686
0.427365
0.418499
0.420612
0.422578
0.424209
0.423627
0.421811
0.425491
0.427321
0.426925
0.425482
0.366921
0.365295
0.438842
0.448314
0.450451
0.45179
0.399866
0.396605
0.394683
0.394808
0.383413
0.385273
0.454457
0.45762
0.44896
0.441163
0.436618
0.408623
0.405109
0.428013
0.42174
0.454788
0.439699
0.440061
0.456481
0.449298
0.444077
0.461811
0.450666
0.470645
0.451411
0.33104
0.330103
0.31824
0.316867
0.326663
0.326613
0.327993
0.325441
0.32411
0.321924
0.334704
0.34004
0.335731
0.347862
0.349315
0.350142
0.344828
0.333015
0.331322
0.337977
0.385243
0.373096
0.3706
0.393342
0.379664
0.392703
0.378714
0.374549
0.360195
0.355158
0.35288
0.521902
0.543554
0.524848
0.520562
0.495244
0.497672
0.476332
0.49021
0.476521
0.471252
0.490099
0.487081
0.483791
0.475018
0.475133
0.492551
0.484135
0.484115
0.481366
0.484296
0.489035
0.482378
0.471999
0.481207
0.488993
0.482109
0.483195
0.477618
0.403463
0.396689
0.402437
0.417265
0.430175
0.415121
0.422778
0.414614
0.422822
0.409531
0.414981
0.431585
0.419611
0.447768
0.451359
0.425275
0.439107
0.43124
0.421282
0.442917
0.428438
0.421182
0.414945
0.435501
0.425552
0.439823
0.430966
0.446723
0.402859
0.398539
0.388426
0.394464
0.386735
0.397397
0.396907
0.396979
0.401915
0.402368
0.403027
0.403839
0.394964
0.393415
0.404837
0.400427
0.40072
0.41009
0.410467
0.403762
0.440117
0.44018
0.455404
0.445886
0.450048
0.35817
0.354563
0.354391
0.355132
0.358137
0.367497
0.369069
0.370955
0.365906
0.370534
0.370398
0.378548
0.373072
0.373511
0.368491
0.358836
0.361168
0.350786
0.352545
0.365149
0.362445
0.362043
0.361102
0.507153
0.506631
0.497736
0.486699
0.40585
0.40242
0.399723
0.395598
0.403702
0.403199
0.393279
0.401548
0.39856
0.399264
0.399449
0.406646
0.408578
0.403302
0.401665
0.397982
0.399117
0.397978
0.398141
0.394874
0.39987
0.397321
0.397957
0.40834
0.410085
0.397215
0.414484
0.41792
0.404361
0.415374
0.412945
0.411129
0.413217
0.394234
0.391134
0.398364
0.396609
0.384248
0.392182
0.394579
0.395048
0.396345
0.398961
0.392826
0.394108
0.382282
0.380539
0.375967
0.376925
0.373527
0.355379
0.367691
0.357339
0.358615
0.363849
0.360103
0.363704
0.371623
0.368228
0.363944
0.361825
0.385517
0.388626
0.393076
0.39523
0.380287
0.3804
0.370955
0.379466
0.370511
0.373779
0.380709
0.376808
0.370302
0.37011
0.422751
0.432342
0.41941
0.429653
0.430495
0.433325
0.424311
0.417395
0.442188
0.431639
0.444683
0.39908
0.413142
0.402837
0.394462
0.413018
0.41069
0.387418
0.395951
0.391957
0.380759
0.375934
0.377518
0.384597
0.377767
0.395691
0.388423
0.394561
0.384782
0.381084
0.399046
0.399679
0.476294
0.483812
0.48738
0.484794
0.471708
0.488518
0.484377
0.478161
0.47448
0.488291
0.500363
0.50261
0.493229
0.504786
0.486057
0.491398
0.482561
0.50125
0.490265
0.495402
0.477598
0.497998
0.487138
0.483313
0.494291
0.490473
0.495362
0.480407
0.484387
0.482811
0.496399
0.491173
0.401871
0.403876
0.409882
0.393037
0.40214
0.391273
0.396148
0.383277
0.419145
0.411461
0.409841
0.400008
0.420988
0.428678
0.426469
0.421242
0.416452
0.404471
0.407022
0.425132
0.432558
0.430918
0.424679
0.410401
0.465104
0.465003
0.462922
0.449416
0.470477
0.458932
0.461475
0.450259
0.429931
0.424412
0.443848
0.440449
0.440629
0.428941
0.420674
0.425877
0.418114
0.455354
0.446516
0.375393
0.384935
0.378574
0.378523
0.390441
0.451165
0.458107
0.45226
0.45777
0.448169
0.444052
0.4515
0.456543
0.454249
0.440462
0.411255
0.416179
0.416075
0.415099
0.416654
0.405316
0.409926
0.431878
0.429129
0.427452
0.42709
0.319204
0.326053
0.329519
0.329186
0.323599
0.318742
0.470981
0.475438
0.485214
0.484988
0.476697
0.336615
0.335288
0.334484
0.338799
0.334352
0.33915
0.342774
0.335025
0.340519
0.343967
0.345179
0.413208
0.420345
0.421419
0.419073
0.47466
0.485157
0.476952
0.493916
0.482637
0.495365
0.488413
0.503134
0.502239
0.49441
0.486029
0.477276
0.470599
0.48811
0.478687
0.465336
0.475202
0.47933
0.492479
0.471818
0.477939
0.458356
0.490672
0.480125
0.463657
0.471604
0.481035
0.471995
0.483512
0.471167
0.476224
0.421789
0.405445
0.424859
0.397294
0.409879
0.418695
0.404979
0.412757
0.413258
0.424262
0.442389
0.435299
0.436763
0.455987
0.462699
0.449998
0.311333
0.324521
0.325357
0.330275
0.312589
0.31551
0.329633
0.333627
0.335575
0.333658
0.331196
0.387804
0.409737
0.403984
0.404104
0.421505
0.384863
0.426687
0.422308
0.394133
0.394019
0.360532
0.368671
0.367537
0.446029
0.413399
0.449672
0.438363
0.433617
0.425347
0.421528
0.380957
0.37848
0.374387
0.379822
0.369773
0.38271
0.369552
0.367404
0.371794
0.381455
0.388061
0.335649
0.340148
0.351828
0.342326
0.336957
0.342432
0.340153
0.346509
0.344201
0.349724
0.348909
0.360749
0.347977
0.359502
0.35657
0.353986
0.347736
0.330773
0.329556
0.335306
0.33491
0.329699
0.328995
0.326148
0.329689
0.335734
0.337197
0.350314
0.344632
0.363839
0.359025
0.357246
0.336865
0.359182
0.357619
0.35917
0.357688
0.352509
0.341015
0.346883
0.463827
0.457894
0.472187
0.450241
0.474214
0.461456
0.463029
0.460737
0.482476
0.475287
0.45237
0.467725
0.477585
0.463822
0.48456
0.47612
0.474132
0.481045
0.467097
0.485566
0.476302
0.466289
0.48681
0.481016
0.487247
0.472255
0.310628
0.305806
0.314155
0.310053
0.309322
0.31269
0.308683
0.311645
0.307254
0.315297
0.301782
0.305262
0.30023
0.305474
0.308997
0.307543
0.308092
0.306775
0.313671
0.31661
0.316559
0.319738
0.308288
0.30464
0.314363
0.313606
0.304546
0.309927
0.309668
0.316311
0.309839
0.300976
0.306257
0.30499
0.309891
0.480987
0.477311
0.471494
0.480939
0.475659
0.48913
0.479298
0.429809
0.442678
0.492422
0.478505
0.481763
0.472534
0.469996
0.478099
0.475923
0.334859
0.337275
0.338364
0.339161
0.34025
0.348675
0.349138
0.352397
0.348126
0.320945
0.328936
0.320421
0.312776
0.321598
0.318405
0.327025
0.321581
0.32412
0.317212
0.520391
0.531099
0.540549
0.531073
0.514587
0.505047
0.503031
0.509399
0.527104
0.519504
0.509747
0.533951
0.540291
0.525742
0.541908
0.527043
0.527588
0.523763
0.514822
0.515876
0.465626
0.46991
0.450834
0.478775
0.488819
0.477182
0.486283
0.483727
0.502966
0.515248
0.507173
0.512907
0.498846
0.513899
0.499113
0.503415
0.50563
0.504532
0.483596
0.496584
0.491531
0.50318
0.495935
0.486926
0.489442
0.487331
0.500845
0.510565
0.49106
0.51309
0.508525
0.505739
0.515435
0.504996
0.50077
0.491012
0.502971
0.514237
0.504786
0.426714
0.419484
0.42753
0.426087
0.438952
0.429424
0.430402
0.427571
0.425649
0.435266
0.432096
0.32098
0.319402
0.322453
0.324028
0.32444
0.324499
0.314343
0.30959
0.312122
0.315691
0.308669
0.300896
0.521694
0.536107
0.52706
0.532994
0.526821
0.537174
0.528849
0.54653
0.530566
0.547842
0.53697
0.518944
0.524699
0.535816
0.52581
0.519867
0.508171
0.512541
0.511269
0.500202
0.434213
0.435778
0.437745
0.436
0.439147
0.424467
0.424354
0.423248
0.425638
0.429929
0.419854
0.419578
0.428578
0.429023
0.427557
0.434637
0.434463
0.433952
0.42989
0.432708
0.431791
0.430775
0.430928
0.430216
0.312754
0.315221
0.306739
0.3053
0.305276
0.309262
0.311354
0.348105
0.359061
0.352692
0.338639
0.343666
0.50296
0.495589
0.508908
0.508376
0.524042
0.525218
0.530914
0.524194
0.526641
0.516954
0.482451
0.491194
0.480006
0.468906
0.459098
0.485836
0.485047
0.467797
0.466292
0.454912
0.454616
0.447416
0.471692
0.464396
0.468046
0.487115
0.453593
0.458001
0.468965
0.473099
0.480915
0.488713
0.482872
0.484343
0.479632
0.468161
0.463964
0.468328
0.472607
0.415468
0.413673
0.414582
0.416247
0.415767
0.409881
0.410727
0.457596
0.446495
0.460107
0.442281
0.463521
0.470793
0.487905
0.392197
0.394259
0.393984
0.383682
0.382093
0.387215
0.390504
0.390051
0.386297
0.393736
0.405739
0.393257
0.385253
0.390073
0.418574
0.390203
0.385454
0.387242
0.388559
0.387143
0.387473
0.389328
0.389934
0.348759
0.352968
0.357171
0.355174
0.353647
0.347095
0.35337
0.437189
0.456848
0.448446
0.463349
0.463941
0.45446
0.453191
0.467814
0.436145
0.442612
0.459323
0.454468
0.454937
0.44803
0.458246
0.453452
0.473824
0.466457
0.402896
0.40702
0.41181
0.410532
0.413294
0.41519
0.412401
0.407081
0.401452
0.411822
0.41289
0.351811
0.37009
0.368313
0.355969
0.36603
0.355265
0.350756
0.363992
0.363813
0.370401
0.377631
0.503222
0.502263
0.507086
0.493466
0.510749
0.516293
0.469183
0.443755
0.450013
0.460205
0.458974
0.458645
0.453727
0.449777
0.43797
0.422656
0.425537
0.408649
0.432612
0.431416
0.419506
0.407736
0.413522
0.438977
0.42672
0.368399
0.372072
0.384071
0.382327
0.384833
0.377337
0.362311
0.363518
0.368585
0.365052
0.471269
0.468618
0.466874
0.474438
0.473256
0.459093
0.461305
0.46712
0.45538
0.48076
0.460575
0.471359
0.468953
0.459533
0.460001
0.477943
0.461841
0.42186
0.418216
0.420216
0.40755
0.404681
0.431445
0.432968
0.414577
0.423256
0.420442
0.424031
0.424592
0.417878
0.412188
0.415983
0.41394
0.420416
0.420926
0.416911
0.416816
0.434854
0.43051
0.430743
0.435715
0.438149
0.437364
0.440236
0.438315
0.437034
0.438163
0.439681
0.441228
0.442595
0.440732
0.502336
0.49352
0.498921
0.496682
0.494747
0.484788
0.49178
0.50446
0.498095
0.452072
0.445712
0.448631
0.429007
0.45101
0.436337
0.433999
0.459791
0.45469
0.465744
0.459873
0.389192
0.388419
0.405303
0.385398
0.398253
0.30619
0.31217
0.313995
0.315804
0.307772
0.30918
0.311664
0.317504
0.303804
0.310872
0.316921
0.314471
0.305576
0.300528
0.307302
0.305872
0.308294
0.306447
0.312998
0.303064
0.473198
0.446424
0.440046
0.464255
0.44539
0.475309
0.477669
0.471983
0.480271
0.439953
0.449666
0.448143
0.441713
0.464473
0.452083
0.459401
0.456442
0.452435
0.450674
0.477576
0.466897
0.468831
0.460922
0.45689
0.47027
0.475084
0.48221
0.482029
0.481116
0.485887
0.446758
0.453064
0.46243
0.463125
0.46041
0.436419
0.457794
0.444415
0.43412
0.462843
0.461348
0.46671
0.468308
0.469748
0.457469
0.478379
0.468882
0.457242
0.47269
0.475422
0.472206
0.464521
0.47346
0.421625
0.425808
0.428043
0.425754
0.414905
0.411085
0.42253
0.407397
0.41398
0.417858
0.41477
0.422866
0.418996
0.413234
0.409105
0.395978
0.397624
0.396972
0.406002
0.405939
0.405731
0.409444
0.40274
0.408196
0.399494
0.397318
0.411426
0.407025
0.400309
0.410167
0.414699
0.408697
0.40481
0.409948
0.406532
0.399962
0.399974
0.471344
0.463969
0.472799
0.46984
0.47871
0.486818
0.477904
0.46134
0.471643
0.383025
0.384336
0.372917
0.390981
0.383237
0.378718
0.373501
0.393888
0.369481
0.37807
0.3809
0.372027
0.375249
0.445364
0.439763
0.442544
0.436048
0.436755
0.430396
0.437569
0.428161
0.427863
0.41904
0.432593
0.43537
0.322382
0.327409
0.325715
0.32624
0.324243
0.332605
0.335099
0.343197
0.342903
0.330573
0.347369
0.346407
0.346381
0.341511
0.347492
0.377452
0.394652
0.388175
0.385343
0.386787
0.390272
0.397865
0.394123
0.459197
0.470336
0.470337
0.473502
0.480207
0.475631
0.474806
0.38072
0.375086
0.389404
0.394604
0.402544
0.398934
0.391373
0.384573
0.39396
0.399936
0.39059
0.394677
0.399686
0.397377
0.395527
0.3866
0.383853
0.384236
0.37721
0.379998
0.384895
0.39007
0.37905
0.380209
0.385159
0.375055
0.447508
0.454827
0.482717
0.480146
0.467583
0.468335
0.459962
0.452742
0.488789
0.486841
0.472286
0.468008
0.447231
0.456883
0.440939
0.445774
0.444435
0.436791
0.436642
0.423539
0.431884
0.452336
0.450238
0.43682
0.439062
0.457485
0.455842
0.446126
0.441352
0.418462
0.410261
0.410968
0.422696
0.434671
0.435523
0.429709
0.427215
0.429216
0.430244
0.363116
0.356887
0.352915
0.367942
0.36196
0.362097
0.362856
0.414881
0.428029
0.425927
0.39401
0.385393
0.391236
0.395157
0.394002
0.395115
0.385125
0.390988
0.391548
0.388395
0.39092
0.383629
0.384427
0.379043
0.379654
0.365425
0.362737
0.35852
0.361734
0.354065
0.355316
0.351526
0.353491
0.38105
0.368758
0.37041
0.375994
0.372105
0.372525
0.379329
0.371516
0.376469
0.365401
0.37075
0.376942
0.374066
0.372983
0.373958
0.370961
0.367676
0.385096
0.378272
0.414103
0.411749
0.419263
0.411284
0.407272
0.416206
0.416835
0.41728
0.418512
0.414712
0.382574
0.392422
0.397698
0.38892
0.441856
0.428347
0.44765
0.439411