/*--------------------------------*- C++ -*----------------------------------*\
| =========                 |                                                 |
| \\      /  F ield         | OpenFOAM: The Open Source CFD Toolbox           |
|  \\    /   O peration     | Version:  v1612+                                |
|   \\  /    A nd           | Web:      www.OpenFOAM.com                      |
|    \\/     M anipulation  |                                                 |
\*---------------------------------------------------------------------------*/
FoamFile
{
    version     2.0;
    format      ascii;
    class       volVectorField;
    location    "150";
    object      U;
}
// * * * * * * * * * * * * * * * * * * * * * * * * * * * * * * * * * * * * * //

dimensions      [0 1 -1 0 0 0 0];

internalField   nonuniform List<vector> 
16888
(
(0.331918 -0.521332 -0.918825)
(0.210842 -0.138325 -1.009)
(0.234531 -0.420971 -0.819186)
(0.256774 -0.457238 -0.848034)
(0.206604 -0.348492 -0.77152)
(0.234711 -0.417945 -0.848445)
(0.184 -0.380719 -0.748479)
(0.195379 -0.358266 -0.751367)
(0.226158 -0.45555 -0.783733)
(0.265582 -0.489141 -0.812643)
(0.197197 -0.317017 -0.732512)
(0.199978 -0.387532 -0.7492)
(0.254097 -0.465377 -0.826971)
(0.249208 -0.474021 -0.785295)
(0.224444 -0.436687 -0.780483)
(0.231063 -0.464857 -0.783425)
(0.228139 -0.442746 -0.795603)
(0.276654 -0.495443 -0.86831)
(0.264759 -0.47547 -0.829896)
(0.0309958 -0.0106094 -0.386166)
(0.0232889 -0.00996 -0.35242)
(0.0313666 -0.00963078 -0.31543)
(0.0883036 -0.0462044 -0.532501)
(0.107607 -0.0539477 -0.519523)
(0.107736 -0.0561839 -0.543921)
(0.127759 -0.0454985 -0.573983)
(0.0363825 -0.0243967 -0.393604)
(0.0441781 -0.00980183 -0.440551)
(0.0357198 -0.0165874 -0.327018)
(0.0390928 -0.0225375 -0.338536)
(0.106892 -0.0446451 -0.505223)
(0.0954826 -0.0416208 -0.452687)
(0.0801373 -0.0416438 -0.41784)
(0.0581954 -0.0382043 -0.419185)
(0.0419418 -0.034007 -0.349046)
(0.0527025 -0.0393875 -0.371023)
(0.0551299 -0.0378317 -0.357568)
(0.0809466 -0.0613596 -0.32155)
(0.0833842 -0.0548422 -0.298309)
(0.0883056 -0.0990057 -0.468749)
(0.0881574 -0.0880395 -0.454432)
(0.0884682 -0.0742587 -0.487127)
(0.091474 -0.0738718 -0.482877)
(0.0859684 -0.0477335 -0.370106)
(0.085217 -0.0585555 -0.336119)
(0.095593 -0.0964544 -0.520057)
(0.0888998 -0.0659157 -0.392682)
(0.0789906 -0.059378 -0.41638)
(0.0911324 -0.0781515 -0.52836)
(0.100721 -0.104319 -0.549511)
(0.0887965 -0.126864 -0.522428)
(0.0916778 -0.0951957 -0.500667)
(0.204743 -0.101719 -0.859017)
(0.166146 -0.0442536 -0.786721)
(0.179623 -0.0676249 -0.77931)
(0.211455 -0.11651 -0.826267)
(0.194675 -0.090059 -0.80356)
(0.204746 -0.126215 -0.866391)
(0.195576 -0.103086 -0.879358)
(0.211804 -0.130832 -0.774849)
(0.222298 -0.138877 -0.805597)
(0.206821 -0.0983974 -0.755647)
(0.184918 -0.0327617 -0.789564)
(0.171641 -0.0363951 -0.770678)
(0.186213 -0.0937572 -0.779546)
(0.209237 -0.130372 -0.782115)
(0.209758 -0.111467 -0.860627)
(0.218892 -0.129373 -0.812013)
(0.21125 -0.153394 -0.822405)
(0.183993 -0.0814421 -0.885044)
(0.183164 -0.0647894 -0.862285)
(0.204883 -0.0863496 -0.746621)
(0.21432 -0.199199 -1.03062)
(0.216265 -0.208587 -1.04207)
(0.201537 -0.154923 -0.980492)
(0.209997 -0.155469 -0.966502)
(0.198616 -0.21709 -1.01805)
(0.195788 -0.203264 -1.04307)
(0.204307 -0.173157 -1.03716)
(0.168854 -0.113261 -0.933044)
(0.161146 -0.174701 -1.01027)
(0.149359 -0.0563389 -0.93414)
(0.165379 -0.0788313 -0.947588)
(0.175344 -0.155937 -1.07075)
(0.154607 -0.0877304 -1.04874)
(0.15984 -0.107768 -1.04474)
(0.153627 -0.142651 -1.08398)
(0.153154 -0.161782 -1.07925)
(0.183415 -0.162847 -1.06786)
(0.141068 -0.141816 -0.979212)
(0.12899 -0.089255 -1.02613)
(0.14044 -0.0645112 -0.991845)
(0.121355 -0.225453 -0.425107)
(0.113837 -0.219903 -0.409006)
(0.121214 -0.222692 -0.426036)
(0.138587 -0.222425 -0.456454)
(0.143474 -0.220612 -0.470458)
(0.162948 -0.223361 -0.528886)
(0.158924 -0.227171 -0.525797)
(0.122814 -0.226449 -0.446721)
(0.106531 -0.237953 -0.431744)
(0.121422 -0.238223 -0.455695)
(0.157631 -0.235067 -0.55677)
(0.115165 -0.244029 -0.456176)
(0.12924 -0.254827 -0.50318)
(0.137388 -0.241706 -0.505868)
(0.111286 -0.0346028 -0.659355)
(0.120122 -0.0385437 -0.69608)
(0.0339701 0.0265236 -0.528496)
(0.0412305 0.0431996 -0.593676)
(0.0394747 0.0505377 -0.541542)
(0.0452405 0.0245286 -0.559885)
(0.0522091 0.0226633 -0.593178)
(0.0369387 0.0284337 -0.539467)
(0.0643222 0.011623 -0.62246)
(0.123444 -0.0150841 -0.736659)
(0.293794 -0.453267 -0.92593)
(0.311198 -0.464834 -0.958216)
(0.31091 -0.473885 -0.949809)
(0.306027 -0.480181 -0.935639)
(0.308161 -0.453506 -0.958828)
(0.287344 -0.443018 -0.919597)
(0.342749 -0.529729 -0.910294)
(0.340473 -0.516545 -0.919874)
(0.320924 -0.485722 -0.938018)
(0.313125 -0.48198 -0.931226)
(0.288848 -0.444256 -0.909262)
(0.29823 -0.480312 -0.916171)
(0.323571 -0.511518 -0.936876)
(0.153932 -0.196324 -0.419376)
(0.127261 -0.182535 -0.368794)
(0.113158 -0.171944 -0.336388)
(0.135595 -0.176484 -0.365637)
(0.168857 -0.198015 -0.436904)
(0.10992 -0.166471 -0.333244)
(0.136144 -0.172994 -0.36311)
(0.100869 -0.153504 -0.304974)
(0.101395 -0.153908 -0.302881)
(0.107514 -0.1593 -0.311948)
(0.2519 -0.421382 -0.846049)
(0.281071 -0.43727 -0.908515)
(0.294754 -0.443738 -0.945729)
(0.277847 -0.427207 -0.901464)
(0.2562 -0.39344 -0.829854)
(0.294044 -0.468068 -0.923667)
(0.314083 -0.447077 -0.969603)
(0.285195 -0.455521 -0.916894)
(0.285819 -0.459176 -0.876249)
(0.310693 -0.456961 -0.963966)
(0.295664 -0.449182 -0.949447)
(0.311445 -0.452558 -0.987417)
(0.314337 -0.450773 -0.955401)
(0.332164 -0.481318 -0.974577)
(0.304499 -0.463339 -0.901824)
(0.303293 -0.481348 -0.917423)
(0.275562 -0.415562 -0.858082)
(0.281435 -0.46132 -0.880521)
(0.276886 -0.427424 -0.874352)
(0.151267 -0.187069 -0.382601)
(0.182205 -0.214188 -0.437751)
(0.226319 -0.243333 -0.537783)
(0.238282 -0.248445 -0.558151)
(0.160667 -0.202547 -0.41304)
(0.143035 -0.186066 -0.374243)
(0.15509 -0.192509 -0.401938)
(0.241727 -0.255067 -0.610523)
(0.251808 -0.264004 -0.598806)
(0.252481 -0.264617 -0.581796)
(0.187467 -0.214292 -0.468965)
(0.22133 -0.24148 -0.572357)
(0.21649 -0.242048 -0.503308)
(0.223055 -0.257415 -0.556548)
(0.208326 -0.236999 -0.519706)
(0.186215 -0.211809 -0.466759)
(0.152298 -0.190214 -0.433883)
(0.174296 -0.207866 -0.461842)
(0.164427 -0.371383 -0.658109)
(0.152151 -0.334933 -0.63149)
(0.175909 -0.391808 -0.677459)
(0.165681 -0.381887 -0.667183)
(0.146784 -0.324478 -0.592523)
(0.139582 -0.343405 -0.583752)
(0.145304 -0.330226 -0.594904)
(0.129755 -0.298594 -0.565389)
(0.134705 -0.335385 -0.542229)
(0.145931 -0.330387 -0.53577)
(0.131732 -0.294543 -0.518346)
(0.146371 -0.337038 -0.570826)
(0.125302 -0.307254 -0.507094)
(0.131315 -0.316023 -0.526884)
(0.121006 -0.30116 -0.512839)
(0.163282 -0.373067 -0.627117)
(0.159091 -0.352595 -0.593313)
(0.134448 -0.29222 -0.501702)
(0.214353 -0.426095 -0.847634)
(0.203824 -0.41092 -0.849559)
(0.22843 -0.447936 -0.868098)
(0.231401 -0.468043 -0.8699)
(0.208755 -0.40966 -0.821019)
(0.210383 -0.412904 -0.857666)
(0.22826 -0.45405 -0.880577)
(0.214104 -0.421185 -0.858475)
(0.19318 -0.386182 -0.799982)
(0.213949 -0.426648 -0.821159)
(0.235914 -0.474636 -0.890563)
(0.20393 -0.403708 -0.810667)
(0.223121 -0.452076 -0.836607)
(0.245136 -0.486972 -0.893208)
(0.196411 -0.387525 -0.810274)
(0.225813 -0.428678 -0.845403)
(0.233637 -0.470123 -0.896888)
(0.224426 -0.443939 -0.876439)
(0.230368 -0.461604 -0.856536)
(0.22168 -0.445752 -0.859834)
(0.222226 -0.421422 -0.851879)
(0.228942 -0.464939 -0.869945)
(0.233224 -0.469884 -0.841187)
(0.242455 -0.477999 -0.849427)
(0.253083 -0.498229 -0.861497)
(0.249285 -0.489997 -0.853196)
(0.259673 -0.513111 -0.904143)
(0.254281 -0.506073 -0.885066)
(0.267861 -0.531298 -0.89825)
(0.254779 -0.539915 -0.883936)
(0.271907 -0.540411 -0.932023)
(0.265359 -0.532203 -0.897309)
(0.264583 -0.526987 -0.899887)
(0.256575 -0.532286 -0.875818)
(0.256187 -0.542311 -0.894723)
(0.0861292 -0.0855188 -0.271166)
(0.0844325 -0.0798135 -0.248)
(0.0918996 -0.0838813 -0.283087)
(0.0954423 -0.0955788 -0.281668)
(0.092581 -0.0898012 -0.285058)
(0.131106 -0.130274 -0.386418)
(0.134474 -0.132452 -0.395047)
(0.131163 -0.140747 -0.391056)
(0.0967965 -0.100559 -0.292813)
(0.0958375 -0.104284 -0.29604)
(0.111616 -0.113059 -0.351509)
(0.0919523 -0.0823652 -0.261059)
(0.0791064 -0.0792733 -0.232148)
(0.108745 -0.107282 -0.355798)
(0.108722 -0.119889 -0.351421)
(0.0980344 -0.100091 -0.302079)
(0.111698 -0.116263 -0.368566)
(0.0974385 -0.105856 -0.301991)
(0.0887024 -0.0943082 -0.267259)
(0.083652 -0.085637 -0.250623)
(0.167644 -0.203932 -0.770256)
(0.171614 -0.167915 -0.755322)
(0.192363 -0.190617 -0.891457)
(0.164661 -0.123989 -0.790615)
(0.146849 -0.122349 -0.729653)
(0.19149 -0.221743 -0.842696)
(0.189361 -0.173742 -0.825713)
(0.14087 -0.085661 -0.712903)
(0.201678 -0.237456 -0.909284)
(0.198894 -0.247742 -0.904189)
(0.203484 -0.221461 -0.83667)
(0.173308 -0.139352 -0.788406)
(0.167018 -0.149283 -0.742673)
(0.158916 -0.121905 -0.701866)
(0.300508 -0.476316 -0.889051)
(0.278746 -0.465059 -0.859703)
(0.254152 -0.450846 -0.849456)
(0.249319 -0.453604 -0.803377)
(0.253353 -0.453292 -0.802756)
(0.288729 -0.470133 -0.908744)
(0.309914 -0.477957 -0.893014)
(0.278081 -0.443269 -0.825207)
(0.251915 -0.455356 -0.833057)
(0.241107 -0.455641 -0.789679)
(0.254773 -0.438137 -0.875656)
(0.26639 -0.453281 -0.87753)
(0.238732 -0.428308 -0.76093)
(0.296563 -0.477953 -0.921641)
(0.313333 -0.473829 -0.917376)
(0.243936 -0.462712 -0.79375)
(0.253374 -0.45435 -0.848703)
(0.24905 -0.463411 -0.835455)
(0.254494 -0.459414 -0.794412)
(0.302654 -0.485626 -0.871468)
(0.26017 -0.479026 -0.805544)
(0.275686 -0.474251 -0.816429)
(0.10423 -0.200026 -0.451399)
(0.104171 -0.197151 -0.441194)
(0.113937 -0.216125 -0.46011)
(0.113186 -0.191857 -0.418628)
(0.126197 -0.24597 -0.560921)
(0.134355 -0.268579 -0.595047)
(0.173049 -0.34193 -0.684642)
(0.152046 -0.299163 -0.654629)
(0.108729 -0.209635 -0.472509)
(0.104413 -0.203245 -0.46066)
(0.10915 -0.220659 -0.470034)
(0.142673 -0.293414 -0.561288)
(0.122687 -0.224737 -0.477018)
(0.140885 -0.267482 -0.567901)
(0.137021 -0.284609 -0.579475)
(0.162628 -0.3503 -0.681417)
(0.113311 -0.227311 -0.459418)
(0.109358 -0.202361 -0.43108)
(0.116814 -0.19897 -0.466052)
(0.114565 -0.176413 -0.418909)
(0.139005 -0.297313 -0.571425)
(0.285091 -0.382389 -0.675865)
(0.285535 -0.393538 -0.669005)
(0.294788 -0.384584 -0.698014)
(0.291235 -0.393515 -0.743957)
(0.294639 -0.429627 -0.790255)
(0.310362 -0.430551 -0.761546)
(0.292413 -0.40418 -0.699785)
(0.300974 -0.412834 -0.721801)
(0.306332 -0.426071 -0.752683)
(0.307942 -0.428041 -0.746382)
(0.306244 -0.432189 -0.752647)
(0.305701 -0.431654 -0.747489)
(0.302278 -0.460333 -1.01753)
(0.316123 -0.456958 -1.01947)
(0.289245 -0.448665 -1.01576)
(0.318562 -0.451386 -1.03817)
(0.286187 -0.407234 -0.988262)
(0.256442 -0.383401 -0.959494)
(0.259018 -0.391554 -0.920245)
(0.322555 -0.46502 -0.981627)
(0.344298 -0.502545 -1.01886)
(0.326865 -0.472917 -0.991348)
(0.263425 -0.4075 -0.918032)
(0.245348 -0.377475 -0.913202)
(0.32078 -0.460876 -0.985969)
(0.312148 -0.461283 -0.967036)
(0.342252 -0.482427 -0.989881)
(0.346448 -0.49835 -1.00717)
(0.326307 -0.476373 -1.00158)
(0.286904 -0.449519 -0.994019)
(0.308358 -0.330397 -1.08036)
(0.317128 -0.333747 -1.07531)
(0.328576 -0.337972 -1.113)
(0.327621 -0.317932 -1.12304)
(0.299182 -0.335089 -1.05016)
(0.292091 -0.351911 -1.01732)
(0.29111 -0.304152 -1.03764)
(0.297133 -0.305972 -1.03815)
(0.286818 -0.24277 -1.06016)
(0.27804 -0.258407 -1.08703)
(0.136074 -0.206056 -0.480481)
(0.123215 -0.208745 -0.472204)
(0.153121 -0.204435 -0.50523)
(0.144348 -0.207793 -0.4871)
(0.124532 -0.190289 -0.429006)
(0.123918 -0.186107 -0.403955)
(0.092726 -0.171507 -0.322995)
(0.0925447 -0.170884 -0.324503)
(0.114305 -0.199899 -0.430536)
(0.110391 -0.174476 -0.385392)
(0.0948825 -0.166766 -0.348616)
(0.127215 -0.193247 -0.412982)
(0.101594 -0.197586 -0.407666)
(0.112722 -0.203024 -0.420033)
(0.0971982 -0.171287 -0.339579)
(0.0930133 -0.16661 -0.335598)
(0.0911411 -0.167244 -0.329605)
(0.104419 -0.173672 -0.37547)
(0.110556 -0.19195 -0.391445)
(0.0998551 -0.0538885 -0.430773)
(0.098688 -0.0488934 -0.451468)
(0.0996045 -0.0563807 -0.455261)
(0.093395 -0.0679403 -0.464156)
(0.0936655 -0.0596965 -0.41377)
(0.0469969 -0.0315313 -0.308004)
(0.0895716 -0.0347134 -0.398239)
(0.0665918 -0.0295542 -0.270747)
(0.0655847 -0.0331118 -0.331589)
(0.0727524 -0.0507712 -0.374826)
(0.0579072 -0.0334166 -0.336715)
(0.0383289 -0.0212875 -0.264521)
(0.0817659 -0.0329698 -0.38296)
(0.061482 -0.0224216 -0.319193)
(0.0610656 -0.0272916 -0.280104)
(0.0540234 -0.0209712 -0.241321)
(0.0582489 -0.0346267 -0.290539)
(0.0504238 -0.0222922 -0.256036)
(0.181977 -0.24162 -0.609008)
(0.19892 -0.240821 -0.613272)
(0.197332 -0.248668 -0.63213)
(0.207761 -0.317362 -0.718213)
(0.193383 -0.292618 -0.705786)
(0.179674 -0.286461 -0.695273)
(0.191388 -0.285218 -0.701688)
(0.201628 -0.242686 -0.600103)
(0.186042 -0.245324 -0.614041)
(0.236929 -0.299786 -0.706587)
(0.23223 -0.308442 -0.724885)
(0.185469 -0.268072 -0.691943)
(0.221242 -0.25764 -0.669182)
(0.210952 -0.25197 -0.650433)
(0.201264 -0.279734 -0.696435)
(0.189361 -0.262249 -0.683879)
(0.228384 -0.281066 -0.685854)
(0.213509 -0.255754 -0.649578)
(0.203542 -0.264919 -0.664944)
(0.189184 -0.254182 -0.662747)
(0.257196 -0.301535 -0.618196)
(0.267345 -0.33088 -0.6407)
(0.282145 -0.366968 -0.674776)
(0.258092 -0.333174 -0.603065)
(0.281507 -0.35373 -0.718435)
(0.273824 -0.320673 -0.666967)
(0.24471 -0.304504 -0.589587)
(0.262238 -0.350193 -0.64334)
(0.238668 -0.311412 -0.554046)
(0.243105 -0.305081 -0.585704)
(0.224126 -0.280002 -0.540124)
(0.289455 -0.378619 -0.723274)
(0.243526 -0.301156 -0.593336)
(0.224563 -0.278117 -0.562598)
(0.29226 -0.355928 -0.701137)
(0.296657 -0.434474 -0.834917)
(0.29645 -0.4436 -0.829881)
(0.299028 -0.428591 -0.818672)
(0.30024 -0.406119 -0.833404)
(0.265322 -0.380864 -0.826139)
(0.287601 -0.434649 -0.835364)
(0.284841 -0.447368 -0.843792)
(0.296737 -0.409222 -0.802962)
(0.274272 -0.36651 -0.808277)
(0.251566 -0.369309 -0.817468)
(0.2692 -0.453072 -0.862084)
(0.277085 -0.374319 -0.802978)
(0.259086 -0.428994 -0.842068)
(0.248323 -0.360205 -0.807243)
(0.276772 -0.381397 -0.82353)
(0.0909789 -0.160679 -0.323934)
(0.0851501 -0.150497 -0.299139)
(0.0815258 -0.154414 -0.30312)
(0.0766147 -0.13309 -0.269792)
(0.0980415 -0.177239 -0.372716)
(0.0854734 -0.152486 -0.310372)
(0.0833231 -0.138228 -0.291695)
(0.0730627 -0.130739 -0.260198)
(0.102953 -0.174489 -0.3709)
(0.0867748 -0.15096 -0.309168)
(0.0801313 -0.148927 -0.291501)
(0.10579 -0.166498 -0.368181)
(0.262716 -0.334486 -0.844401)
(0.235993 -0.30422 -0.752725)
(0.260553 -0.31012 -0.818903)
(0.249363 -0.284755 -0.759013)
(0.260847 -0.309988 -0.799289)
(0.220521 -0.266681 -0.689857)
(0.227868 -0.27047 -0.700582)
(0.212202 -0.263834 -0.689164)
(0.262032 -0.298095 -0.828206)
(0.276659 -0.32827 -0.858838)
(0.240442 -0.269582 -0.756616)
(0.27401 -0.435876 -0.923767)
(0.302336 -0.425103 -0.98256)
(0.293901 -0.40628 -0.966608)
(0.270474 -0.391485 -0.948954)
(0.296445 -0.319435 -0.996058)
(0.304213 -0.367688 -0.996992)
(0.219684 -0.275423 -0.965701)
(0.264683 -0.305185 -0.997303)
(0.260652 -0.313297 -0.969447)
(0.22521 -0.269533 -0.957569)
(0.308655 -0.341015 -1.0575)
(0.325369 -0.393123 -1.04589)
(0.252915 -0.28991 -1.02444)
(0.281593 -0.347768 -1.05085)
(0.31462 -0.361579 -1.05624)
(0.268153 -0.285961 -1.03076)
(0.341576 -0.415026 -1.06253)
(0.334852 -0.398879 -1.04919)
(0.334749 -0.383418 -1.0545)
(0.31589 -0.368618 -1.07313)
(0.317527 -0.32471 -1.07821)
(0.302751 -0.327209 -1.10196)
(0.315661 -0.362397 -1.0856)
(0.329256 -0.383518 -1.09751)
(0.0974053 -0.0262564 -0.468099)
(0.104327 -0.0308687 -0.471228)
(0.0912307 -0.0254627 -0.41936)
(0.086844 -0.0238376 -0.418495)
(0.106038 -0.0318291 -0.514973)
(0.0962574 -0.0495335 -0.402095)
(0.093941 -0.0405398 -0.41337)
(0.113361 -0.0256283 -0.480083)
(0.121162 -0.0367212 -0.513279)
(0.0876639 -0.0180632 -0.354432)
(0.0813284 -0.0438265 -0.32147)
(0.0767987 -0.0381561 -0.324147)
(0.0942188 -0.032058 -0.384358)
(0.0949036 -0.0345079 -0.383111)
(0.111456 -0.0570463 -0.455104)
(0.111456 -0.0436814 -0.472779)
(0.0975805 -0.017357 -0.388804)
(0.126208 -0.0749969 -0.738316)
(0.125838 -0.0925099 -0.720331)
(0.148648 -0.0836614 -0.722257)
(0.137918 -0.0274337 -0.58914)
(0.0932176 -0.0574643 -0.681281)
(0.0916732 -0.060137 -0.669062)
(0.114696 -0.0734261 -0.658977)
(0.12714 -0.0942658 -0.773203)
(0.144884 -0.0779913 -0.793733)
(0.119554 -0.082152 -0.76444)
(0.115191 -0.0165099 -0.632821)
(0.124849 -0.0293898 -0.670068)
(0.12893 -0.0769771 -0.798578)
(0.0890339 -0.014903 -0.31606)
(0.0932964 -0.0383783 -0.384891)
(0.0673955 -0.0192522 -0.432031)
(0.0671307 -0.0101226 -0.381938)
(0.0957408 -0.011492 -0.340368)
(0.0796505 0.00135656 -0.239335)
(0.0838398 0.00251433 -0.289816)
(0.0621309 -0.0244312 -0.481391)
(0.0622402 -0.0173313 -0.433937)
(0.0900055 -0.0661137 -0.500379)
(0.0875992 -0.054791 -0.44314)
(0.0744762 -0.0443384 -0.437621)
(0.0725087 -0.0230235 -0.359715)
(0.0695047 0.00610421 -0.358452)
(0.0777734 -0.00781149 -0.253473)
(0.0758542 0.00375503 -0.225776)
(0.082761 0.00896179 -0.232916)
(0.077926 -0.0264173 -0.450894)
(0.107261 -0.0357143 -0.523583)
(0.0730054 0.00823454 -0.24549)
(0.0719514 -0.00750887 -0.26597)
(0.0838698 -0.00193116 -0.30343)
(0.0778511 0.0161348 -0.267596)
(0.081972 -0.000764705 -0.319824)
(0.243489 -0.0397417 -1.28562)
(0.221811 -0.0606595 -1.25799)
(0.237546 -0.104808 -1.2663)
(0.218346 -0.0614247 -1.24133)
(0.279557 -0.0763927 -1.29498)
(0.24253 -0.112278 -1.3367)
(0.2584 -0.0123099 -1.32115)
(0.205335 0.0697559 -1.33813)
(0.248412 0.000252588 -1.35314)
(0.296279 -0.195215 -1.28297)
(0.307001 -0.228995 -1.24818)
(0.261194 -0.16509 -1.24778)
(0.273814 -0.195961 -1.26819)
(0.273798 -0.19268 -1.29559)
(0.274763 -0.129311 -1.29807)
(0.262354 -0.137238 -1.26996)
(0.299345 -0.175153 -1.24996)
(0.299998 -0.188879 -1.27071)
(0.269332 -0.166029 -1.24169)
(0.286822 -0.161383 -1.2268)
(0.260809 -0.155651 -1.28605)
(0.272061 -0.149396 -1.23509)
(0.296453 -0.162431 -1.24326)
(0.245044 -0.118775 -1.2672)
(0.281445 -0.114346 -1.26052)
(0.210741 -0.296101 -0.903062)
(0.204019 -0.289298 -0.849122)
(0.194504 -0.256775 -0.822207)
(0.17351 -0.234705 -0.775457)
(0.1709 -0.221467 -0.719022)
(0.171511 -0.242798 -0.747295)
(0.216559 -0.324705 -0.894542)
(0.199961 -0.289981 -0.854935)
(0.157224 -0.227586 -0.687538)
(0.1647 -0.190955 -0.665297)
(0.217593 -0.340408 -0.875505)
(0.209568 -0.343094 -0.883541)
(0.18667 -0.277038 -0.769267)
(0.218227 -0.312174 -0.83712)
(0.19679 -0.309042 -0.799413)
(0.193776 -0.284586 -0.798285)
(0.169188 -0.23109 -0.731493)
(0.185235 -0.271618 -0.752403)
(0.172638 -0.266031 -0.733336)
(0.107984 -0.205306 -0.439662)
(0.129581 -0.25685 -0.600427)
(0.132404 -0.286182 -0.597423)
(0.10994 -0.210149 -0.478905)
(0.105355 -0.197054 -0.419158)
(0.119323 -0.238559 -0.474924)
(0.125857 -0.226674 -0.564261)
(0.129873 -0.266065 -0.613636)
(0.143958 -0.312533 -0.611004)
(0.13597 -0.294322 -0.577095)
(0.117934 -0.258448 -0.515326)
(0.112453 -0.211029 -0.483234)
(0.131421 -0.251495 -0.594043)
(0.125489 -0.273019 -0.57525)
(0.132759 -0.294678 -0.582539)
(0.112095 -0.263875 -0.534253)
(0.315346 -0.425668 -1.01477)
(0.312446 -0.430181 -1.00683)
(0.338967 -0.452674 -1.01408)
(0.343433 -0.499361 -0.962648)
(0.325146 -0.474776 -0.931031)
(0.34412 -0.494831 -0.958173)
(0.337648 -0.490893 -0.947116)
(0.338917 -0.48694 -0.965676)
(0.350471 -0.490443 -0.976288)
(0.310079 -0.437303 -0.991279)
(0.35083 -0.489088 -0.968026)
(0.283421 -0.402442 -0.959643)
(0.340368 -0.474965 -0.983336)
(0.351614 -0.489745 -1.00505)
(0.359692 -0.493016 -1.01368)
(0.287443 -0.341743 -1.11866)
(0.193516 -0.274168 -1.00248)
(0.19753 -0.242059 -0.970553)
(0.257339 -0.292748 -1.04706)
(0.246245 -0.340655 -1.03999)
(0.196826 -0.21535 -0.935532)
(0.196337 -0.270741 -0.949645)
(0.208879 -0.272541 -0.942499)
(0.22259 -0.252136 -0.940522)
(0.249889 -0.270528 -1.0302)
(0.317464 -0.356192 -1.11988)
(0.309529 -0.376801 -1.1082)
(0.217718 -0.290951 -0.973437)
(0.252305 -0.325533 -1.0235)
(0.312063 -0.362689 -1.09698)
(0.221987 -0.309868 -0.95827)
(0.263273 -0.35363 -0.989962)
(0.251082 -0.320208 -0.942814)
(0.21972 -0.282759 -0.894911)
(0.21164 -0.287426 -0.944819)
(0.222556 -0.256867 -0.969107)
(0.235836 -0.292416 -0.93488)
(0.223959 -0.271137 -0.911796)
(0.231719 -0.275266 -0.963827)
(0.234839 -0.285342 -0.994963)
(0.222016 -0.309825 -0.938813)
(0.209802 -0.279868 -0.940939)
(0.230962 -0.260764 -0.976002)
(0.238202 -0.263747 -0.985765)
(0.250369 -0.29358 -1.00315)
(0.248862 -0.251574 -1.01763)
(0.328739 -0.509415 -1.00341)
(0.324931 -0.498037 -0.976052)
(0.306038 -0.482758 -0.979258)
(0.303986 -0.483036 -0.975713)
(0.322321 -0.489054 -1.01873)
(0.332732 -0.504293 -0.989195)
(0.326675 -0.499482 -0.99848)
(0.318451 -0.494595 -1.00075)
(0.294261 -0.456456 -0.982821)
(0.307556 -0.472069 -0.984485)
(0.346417 -0.510118 -0.99061)
(0.32832 -0.499814 -0.953899)
(0.337246 -0.509282 -0.98322)
(0.341973 -0.503394 -0.98215)
(0.330602 -0.509887 -0.965159)
(0.325082 -0.505586 -0.947723)
(0.331835 -0.492249 -0.983667)
(0.322511 -0.496216 -1.00685)
(0.34833 -0.507063 -0.984058)
(0.330958 -0.502051 -0.975336)
(0.321123 -0.486978 -0.990851)
(0.199108 -0.335689 -0.994042)
(0.206167 -0.344503 -0.971301)
(0.254367 -0.373699 -1.05377)
(0.251197 -0.378162 -1.0999)
(0.237586 -0.348818 -1.0574)
(0.24655 -0.383304 -1.06539)
(0.257218 -0.412705 -1.07754)
(0.237634 -0.407701 -1.02599)
(0.210605 -0.369308 -1.04482)
(0.202532 -0.321207 -0.982194)
(0.204455 -0.323768 -0.978015)
(0.264626 -0.407044 -1.08719)
(0.259574 -0.36895 -1.03875)
(0.267973 -0.403057 -1.07657)
(0.228775 -0.381488 -1.02353)
(0.232762 -0.411658 -1.01989)
(0.225952 -0.332078 -0.977288)
(0.2536 -0.402549 -1.03193)
(0.24762 -0.428691 -1.05174)
(0.248096 -0.412545 -1.06208)
(0.243599 -0.359498 -1.01594)
(0.108913 -0.294231 -0.440232)
(0.0982023 -0.264239 -0.396909)
(0.121084 -0.284049 -0.474739)
(0.12915 -0.302482 -0.511716)
(0.0999332 -0.264279 -0.413498)
(0.106375 -0.294915 -0.437135)
(0.0926363 -0.240075 -0.362058)
(0.116769 -0.267202 -0.461069)
(0.128039 -0.313139 -0.521413)
(0.106247 -0.253361 -0.408187)
(0.106416 -0.286969 -0.448994)
(0.0935454 -0.235149 -0.360603)
(0.0895269 -0.221751 -0.332756)
(0.102899 -0.246439 -0.397004)
(0.0983379 -0.235838 -0.377061)
(0.0962313 -0.226536 -0.363099)
(0.100431 -0.239334 -0.398055)
(0.25488 -0.430632 -0.7249)
(0.263666 -0.429715 -0.728135)
(0.242491 -0.416003 -0.727699)
(0.283044 -0.471799 -0.84012)
(0.286451 -0.484536 -0.850345)
(0.292588 -0.461621 -0.805262)
(0.292075 -0.459143 -0.807473)
(0.274602 -0.450955 -0.755677)
(0.267281 -0.424287 -0.715103)
(0.292198 -0.418997 -0.791175)
(0.294765 -0.416919 -0.775032)
(0.28008 -0.43419 -0.809468)
(0.280331 -0.478697 -0.84485)
(0.293626 -0.482926 -0.876119)
(0.287413 -0.455626 -0.786788)
(0.288217 -0.428509 -0.820235)
(0.288419 -0.424294 -0.770627)
(0.283754 -0.453139 -0.881557)
(0.279467 -0.458639 -0.856684)
(0.261257 -0.43412 -0.808023)
(0.230563 -0.382826 -0.708044)
(0.248423 -0.396961 -0.760868)
(0.259066 -0.437723 -0.817519)
(0.288839 -0.450233 -0.890574)
(0.289897 -0.448424 -0.8719)
(0.244502 -0.413706 -0.737856)
(0.249165 -0.398221 -0.742977)
(0.288119 -0.483561 -0.902461)
(0.291681 -0.486192 -0.880028)
(0.276601 -0.449609 -0.914361)
(0.283801 -0.473946 -0.87566)
(0.279257 -0.450235 -0.890839)
(0.273797 -0.438575 -0.867817)
(0.249486 -0.409616 -0.750558)
(0.280618 -0.479997 -0.889738)
(0.283807 -0.468546 -0.913413)
(0.121273 -0.14801 -0.390285)
(0.118653 -0.145007 -0.365552)
(0.137494 -0.156841 -0.418727)
(0.130753 -0.156793 -0.394647)
(0.161335 -0.17693 -0.497801)
(0.159399 -0.174926 -0.492924)
(0.135031 -0.147563 -0.420022)
(0.128616 -0.145707 -0.394684)
(0.161279 -0.185307 -0.447058)
(0.149934 -0.167924 -0.46267)
(0.143825 -0.161105 -0.451617)
(0.191445 -0.200155 -0.554058)
(0.181031 -0.196375 -0.546771)
(0.136825 -0.165642 -0.405294)
(0.123798 -0.153921 -0.374067)
(0.0894801 -0.120188 -0.28181)
(0.0872895 -0.11216 -0.259321)
(0.118503 -0.136422 -0.325835)
(0.104109 -0.130774 -0.319312)
(0.115264 -0.135292 -0.304491)
(0.0861948 -0.115002 -0.258941)
(0.151667 -0.183611 -0.439831)
(0.16197 -0.187377 -0.45032)
(0.101846 -0.126631 -0.303333)
(0.098349 -0.125311 -0.289568)
(0.126349 -0.153946 -0.377741)
(0.0998518 -0.134356 -0.301088)
(0.123009 -0.153823 -0.352481)
(0.128657 -0.162773 -0.392515)
(0.103484 -0.138405 -0.31913)
(0.26689 -0.483421 -0.81984)
(0.286694 -0.475951 -0.874196)
(0.235727 -0.39493 -0.829233)
(0.263317 -0.488365 -0.81621)
(0.290882 -0.502842 -0.862946)
(0.207771 -0.362109 -0.784726)
(0.238446 -0.435194 -0.787442)
(0.234287 -0.378306 -0.840191)
(0.232917 -0.404731 -0.829488)
(0.226241 -0.364143 -0.832381)
(0.194676 -0.34711 -0.753143)
(0.229371 -0.410286 -0.788382)
(0.215787 -0.437448 -0.763883)
(0.255752 -0.492933 -0.798423)
(0.27196 -0.467792 -0.858473)
(0.231188 -0.415081 -0.784037)
(0.245195 -0.465046 -0.808897)
(0.208406 -0.354018 -0.773854)
(0.128432 -0.0569998 -0.574946)
(0.147451 -0.0460423 -0.621746)
(0.122583 -0.0302268 -0.579493)
(0.102504 -0.0328465 -0.479144)
(0.0804423 -0.0248346 -0.388971)
(0.302228 -0.202907 -1.14462)
(0.299251 -0.205792 -1.16261)
(0.314778 -0.225861 -1.15788)
(0.29585 -0.279172 -1.1013)
(0.308205 -0.259196 -1.14498)
(0.283177 -0.189607 -1.16936)
(0.272626 -0.23812 -1.15823)
(0.284701 -0.242585 -1.16966)
(0.317124 -0.307683 -1.15442)
(0.284693 -0.202932 -1.21319)
(0.296968 -0.227101 -1.22522)
(0.302925 -0.214595 -1.18376)
(0.304608 -0.28293 -1.15251)
(0.274531 -0.245228 -1.14449)
(0.315015 -0.309616 -1.15769)
(0.312085 -0.287265 -1.13081)
(0.309905 -0.262237 -1.21733)
(0.294707 -0.277091 -1.15859)
(0.309577 -0.2842 -1.21356)
(0.257927 -0.517255 -0.826118)
(0.256179 -0.527893 -0.83523)
(0.265167 -0.519028 -0.882024)
(0.259273 -0.515896 -0.886852)
(0.250756 -0.521064 -0.844967)
(0.250928 -0.505745 -0.796786)
(0.253671 -0.484933 -0.772443)
(0.253617 -0.510589 -0.794301)
(0.244466 -0.490507 -0.763483)
(0.270788 -0.506962 -0.801365)
(0.239466 -0.476631 -0.756595)
(0.280101 -0.505742 -0.871189)
(0.270212 -0.50935 -0.881393)
(0.283888 -0.508949 -0.854775)
(0.282148 -0.509142 -0.852797)
(0.261738 -0.514311 -0.896966)
(0.257229 -0.51077 -0.849555)
(0.277905 -0.498102 -0.793649)
(0.272206 -0.493383 -0.807635)
(0.269591 -0.503469 -0.784318)
(0.279611 -0.500704 -0.872391)
(0.261182 -0.514545 -0.889855)
(0.272169 -0.505382 -0.867598)
(0.260433 -0.384257 -0.862975)
(0.228561 -0.366185 -0.839476)
(0.304351 -0.50206 -0.886365)
(0.324227 -0.511633 -0.905979)
(0.260165 -0.411267 -0.869767)
(0.315123 -0.488692 -0.93012)
(0.265152 -0.418645 -0.887802)
(0.289725 -0.497922 -0.868714)
(0.307464 -0.505368 -0.936224)
(0.294224 -0.505448 -0.875762)
(0.307478 -0.479398 -0.938874)
(0.317464 -0.522632 -0.879616)
(0.312916 -0.465307 -0.947376)
(0.236747 -0.054855 -1.23597)
(0.196941 0.00845106 -1.1844)
(0.298969 -0.0686956 -1.29964)
(0.229906 0.0619311 -1.33719)
(0.266887 -0.0112194 -1.32408)
(0.25111 -0.0730012 -1.28609)
(0.222642 -0.0374725 -1.26342)
(0.211586 0.0299913 -1.23205)
(0.270671 -0.0278807 -1.23518)
(0.292715 -0.0543647 -1.24647)
(0.222044 -0.0175704 -1.28276)
(0.273791 -0.00414964 -1.23495)
(0.294833 0.0284582 -1.25122)
(0.246687 0.0299129 -1.30224)
(0.248229 0.0638151 -1.26713)
(0.339707 -0.452127 -1.05084)
(0.33543 -0.451291 -1.07533)
(0.323109 -0.453724 -1.06177)
(0.325583 -0.444403 -1.06339)
(0.294773 -0.428615 -1.08556)
(0.350338 -0.464097 -1.03505)
(0.354373 -0.486583 -1.02432)
(0.33109 -0.43571 -1.06147)
(0.297113 -0.415897 -1.05079)
(0.334642 -0.468483 -1.05509)
(0.32397 -0.453241 -1.02817)
(0.353209 -0.471025 -1.0588)
(0.341633 -0.425378 -1.0393)
(0.339831 -0.463589 -1.00344)
(0.343889 -0.4651 -1.03253)
(0.336394 -0.464628 -1.02314)
(0.334432 -0.46933 -1.02087)
(0.33017 -0.457051 -1.01339)
(0.110935 -0.161518 -0.399591)
(0.100468 -0.154654 -0.358437)
(0.101781 -0.178402 -0.409512)
(0.104068 -0.175014 -0.423417)
(0.0993757 -0.167825 -0.374212)
(0.114173 -0.217871 -0.463432)
(0.106553 -0.199542 -0.412675)
(0.112627 -0.211474 -0.457751)
(0.103306 -0.190895 -0.412825)
(0.123259 -0.195306 -0.460731)
(0.114508 -0.184923 -0.465637)
(0.109707 -0.199893 -0.451525)
(0.108393 -0.202455 -0.47841)
(0.101449 -0.17284 -0.388733)
(0.113976 -0.206433 -0.486785)
(0.151368 -0.00840874 -0.799011)
(0.119917 0.0477001 -0.696476)
(0.10231 0.0919449 -0.612732)
(0.156698 -0.0326338 -0.872851)
(0.132019 0.0670585 -0.779811)
(0.134855 -0.0148661 -0.726103)
(0.164273 -0.0722183 -0.841123)
(0.115907 0.0832968 -0.645699)
(0.147538 0.0504028 -0.755146)
(0.0846344 0.112792 -0.653981)
(0.177881 -0.0986289 -0.950922)
(0.158526 -0.0524599 -0.86797)
(0.179086 -0.130319 -0.901642)
(0.175126 -0.0968403 -0.916429)
(0.158564 -0.082708 -0.820524)
(0.157341 -0.0648848 -0.828983)
(0.127075 0.00711839 -0.700736)
(0.110816 0.0574338 -0.691714)
(0.161563 -0.0420865 -0.817579)
(0.145631 -0.026825 -0.736316)
(0.135564 0.0142256 -0.718474)
(0.150909 0.0876774 -1.12247)
(0.0701757 0.0966771 -1.03163)
(0.20419 -0.00525659 -1.13156)
(0.148068 0.030938 -0.987585)
(0.199777 -0.024458 -1.10099)
(0.164103 0.00537399 -0.979677)
(0.158285 0.0188981 -1.15817)
(0.198818 0.0280319 -1.18054)
(0.0480918 0.141401 -0.932835)
(0.261767 0.0599837 -1.1788)
(0.0792153 0.164412 -0.971677)
(0.250583 -0.0386326 -1.12771)
(0.228943 -0.0437291 -1.14756)
(0.117 0.0524177 -0.934158)
(0.177658 0.047813 -1.0476)
(0.1051 -0.0548179 -0.594088)
(0.115057 -0.0699424 -0.569484)
(0.111485 -0.0739628 -0.582229)
(0.117201 -0.0694238 -0.557245)
(0.0476882 -0.0222439 -0.459174)
(0.0246189 -0.00888861 -0.388093)
(0.0934864 -0.0343714 -0.558772)
(0.0605446 -0.0210704 -0.485203)
(0.06156 -0.0400072 -0.452198)
(0.0684724 -0.0449738 -0.473062)
(0.0465637 -0.029916 -0.439595)
(0.0612302 -0.025207 -0.50686)
(0.103323 -0.054532 -0.604554)
(0.0231593 -0.0188484 -0.366103)
(0.044301 -0.0318932 -0.398007)
(0.237545 -0.366537 -0.782399)
(0.254367 -0.345184 -0.777442)