/*--------------------------------*- C++ -*----------------------------------*\
| =========                 |                                                 |
| \\      /  F ield         | OpenFOAM: The Open Source CFD Toolbox           |
|  \\    /   O peration     | Version:  v1612+                                |
|   \\  /    A nd           | Web:      www.OpenFOAM.com                      |
|    \\/     M anipulation  |                                                 |
\*---------------------------------------------------------------------------*/
FoamFile
{
    version     2.0;
    format      ascii;
    class       surfaceScalarField;
    location    "150";
    object      phi;
}
// * * * * * * * * * * * * * * * * * * * * * * * * * * * * * * * * * * * * * //

dimensions      [0 3 -1 0 0 0 0];

internalField   nonuniform List<scalar> 
37528
(
-7.54649e-09
-9.45357e-10
3.42699e-09
5.06485e-09
1.60132e-09
-1.51918e-09
4.81089e-09
-4.89303e-09
-2.71581e-09
1.00199e-09
-1.23822e-09
2.95205e-09
6.99371e-09
-2.12681e-09
-7.14912e-09
2.28215e-09
-7.36483e-10
2.02507e-10
-5.48277e-09
6.01674e-09
5.04448e-09
1.00192e-08
-7.43493e-09
-7.62872e-09
2.86446e-09
-1.31816e-09
3.49842e-09
1.59466e-09
1.1289e-08
-2.56346e-09
-6.8812e-09
1.85333e-09
7.59133e-09
-1.36802e-09
-8.58908e-09
7.39366e-09
-9.05248e-09
6.36633e-09
-6.73134e-09
-5.24407e-10
8.85041e-09
-3.22753e-09
5.84505e-09
5.409e-09
-8.02653e-09
5.54097e-09
-1.29458e-08
4.17735e-09
1.1321e-10
-1.70309e-09
-1.33255e-09
-5.28558e-09
-4.86241e-09
-5.30409e-10
-1.48836e-09
-7.49477e-09
-5.95672e-09
-6.23206e-09
7.56099e-09
-2.71333e-09
-9.30147e-10
-4.66713e-09
-1.44341e-09
-5.31904e-09
-1.73731e-09
9.72538e-09
-1.47833e-08
6.79523e-09
6.5713e-09
9.85393e-09
-1.81625e-08
1.32174e-08
4.26337e-09
-7.75537e-09
-4.12041e-09
2.28633e-08
-5.52547e-09
2.49665e-08
-6.44791e-09
-1.42552e-08
1.28678e-08
-6.49586e-09
1.99403e-10
1.48673e-08
-9.13375e-09
-1.61751e-08
1.65218e-08
1.26551e-08
-1.30017e-08
7.70609e-09
1.08533e-09
1.19255e-08
-1.72082e-08
2.015e-08
-3.54497e-09
5.07325e-09
1.03972e-08
2.02855e-09
-1.43536e-08
8.78016e-09
-1.57335e-08
5.62368e-09
1.21384e-08
-1.72194e-08
1.91799e-08
1.13894e-08
1.38113e-08
1.37671e-09
3.99199e-09
-4.41949e-09
2.21411e-08
-3.91037e-09
1.7726e-08
1.16476e-08
2.37785e-09
1.76755e-08
7.45391e-09
2.61935e-08
-1.77415e-09
-1.61407e-08
4.02643e-10
1.75121e-08
7.04981e-09
1.07099e-08
-8.22655e-10
1.35459e-08
-4.38609e-09
-7.20766e-09
1.90477e-08
-6.11886e-09
8.78258e-09
-6.68478e-09
6.11198e-09
-1.2779e-09
3.8445e-09
-5.61214e-09
-7.81368e-09
9.58132e-09
-1.86147e-09
-7.62759e-10
6.46872e-09
2.88089e-10
-1.5674e-09
-4.33284e-09
-6.06375e-09
5.39811e-09
-1.19582e-09
9.53082e-10
-5.72746e-09
6.40854e-09
-1.63416e-09
-4.0119e-09
6.95088e-09
-1.9859e-09
-7.13187e-09
9.44132e-09
-2.02137e-09
8.90446e-09
-1.32969e-08
-2.73945e-09
3.23455e-09
-4.92449e-09
-4.37383e-09
-6.31825e-09
7.70445e-09
6.14442e-09
3.17445e-09
-4.14426e-10
9.85828e-09
9.07525e-11
-4.87904e-09
-5.24075e-09
5.77991e-10
9.54179e-09
-8.28317e-09
-6.17258e-09
9.57669e-09
1.71169e-09
-1.08989e-08
9.04044e-10
-5.34309e-09
1.81404e-09
-3.60067e-09
-4.33825e-09
8.51692e-09
-5.91615e-09
-8.9304e-09
1.12459e-08
-2.61447e-09
9.50872e-09
4.15429e-09
7.75499e-09
-4.29608e-09
2.27776e-09
-4.36137e-09
-2.36687e-10
1.14793e-09
-4.74611e-09
1.71204e-10
-6.1519e-10
4.17016e-10
3.26741e-09
8.98105e-10
6.33113e-09
2.26782e-09
4.5709e-09
-3.47541e-09
-3.3633e-09
7.98192e-09
-3.88445e-09
-1.82966e-09
8.27759e-09
1.90759e-09
-2.20326e-09
3.77299e-09
5.52167e-09
-1.01706e-09
3.75281e-09
-2.07845e-09
2.33237e-10
5.11741e-09
2.40839e-09
6.93795e-09
-1.97175e-09
-3.95291e-10
4.65817e-09
7.65167e-11
-3.36825e-09
7.11273e-09
1.77719e-09
1.87413e-09
3.95599e-09
-7.84387e-09
2.01375e-09
3.16405e-09
4.55987e-09
2.85656e-09
-1.61474e-09
-5.80175e-09
-1.07561e-09
3.63229e-09
2.00318e-09
1.74419e-09
3.67471e-11
2.92427e-09
-1.40824e-09
2.28148e-10
-8.39424e-09
4.3884e-09
2.39105e-09
2.31849e-09
-1.40201e-09
-1.03371e-09
-3.54012e-09
6.21803e-09
-1.64427e-09
-5.60791e-09
9.02439e-09
-2.4145e-09
8.78422e-09
-9.13252e-09
-5.25964e-09
-1.14143e-08
-3.84841e-09
7.43266e-09
7.83012e-09
-9.74034e-10
-2.79997e-09
-7.64035e-09
-3.36866e-09
6.98436e-10
8.01587e-09
-5.34563e-09
-5.42027e-09
-9.03882e-10
2.95547e-09
7.22885e-09
-1.48888e-08
-3.43862e-09
1.10986e-08
-1.1088e-08
1.90153e-08
1.35643e-08
-4.36882e-09
-1.01695e-08
4.80117e-09
4.91467e-09
-3.58729e-09
-7.43192e-09
8.21924e-09
-5.63422e-09
6.33699e-10
-4.19764e-10
-2.6764e-09
-4.18019e-09
-8.03226e-09
3.39604e-09
-7.73856e-09
-1.31758e-08
6.88889e-09
-9.22526e-09
-6.6269e-09
7.45924e-09
-1.58245e-09
-9.46409e-09
-2.08096e-09
3.90597e-09
2.99669e-09
-1.24795e-08
7.90035e-09
-1.05974e-08
8.12519e-09
-5.12231e-09
-6.03609e-09
3.03318e-09
-1.14808e-08
2.50815e-09
1.70978e-08
-1.63687e-08
-7.38197e-09
1.22699e-08
-1.79365e-08
-3.55452e-09
-2.62504e-08
7.77671e-09
1.10917e-08
-8.91028e-09
-1.90262e-08
1.68605e-09
2.4636e-09
-1.61546e-08
7.65491e-09
9.66304e-09
-2.31446e-08
1.59451e-08
1.33016e-08
2.28161e-08
-2.8341e-08
2.54728e-08
-4.71185e-09
-8.40688e-09
-2.03945e-08
5.65677e-09
-7.87802e-09
-1.66835e-08
8.66291e-09
-6.5324e-09
-2.37625e-09
1.70085e-08
-2.74339e-10
-1.95514e-09
9.53315e-09
1.23901e-08
3.59462e-10
-1.2912e-08
-1.68184e-08
-5.70787e-09
2.94152e-08
-8.94518e-09
-1.23822e-08
4.50898e-09
1.32729e-08
-5.61212e-09
-1.6606e-08
1.70982e-08
1.28232e-08
-1.49166e-08
2.45287e-09
-6.18595e-09
-1.48117e-08
-2.78659e-10
6.17553e-09
8.91479e-09
1.02615e-09
-1.70031e-09
-1.41375e-08
1.24763e-08
-4.94399e-10
-1.09558e-08
4.82959e-09
7.36803e-09
4.56249e-09
1.40162e-08
-1.24031e-08
6.64015e-09
7.11597e-10
-8.92534e-09
1.57355e-09
6.68032e-09
-1.13062e-08
-7.78019e-10
5.40386e-09
-6.07374e-10
-1.4243e-08
1.315e-08
2.00327e-09
9.50664e-09
-6.27517e-09
1.28409e-08
-1.00934e-08
-4.52439e-10
1.2101e-09
9.33566e-09
5.35805e-09
-4.99307e-09
5.36394e-09
1.35173e-08
-6.96109e-09
-1.19201e-08
1.26749e-08
-1.62562e-09
-5.68532e-09
4.9114e-09
1.1654e-08
-3.04813e-09
1.5422e-08
2.1643e-09
-1.70568e-08
-1.1452e-08
1.80542e-08
1.04545e-08
-1.09375e-08
-3.49514e-09
-2.62418e-09
1.62184e-10
7.20014e-09
7.76916e-09
-1.51315e-08
6.42452e-09
-1.32234e-08
-6.4666e-09
-5.29793e-09
3.17495e-08
-1.9985e-08
1.93875e-08
-1.86539e-08
1.41042e-08
-7.96066e-09
8.20537e-09
2.77241e-09
6.76229e-10
1.18799e-08
1.17475e-08
1.768e-08
-1.45133e-08
6.65376e-09
-4.2573e-10
2.66105e-09
-6.22546e-09
-1.02275e-08
-2.3665e-09
-7.05953e-09
3.48572e-09
1.70676e-08
-1.59411e-08
7.59949e-09
2.80068e-08
-3.85683e-09
4.94859e-09
2.20384e-08
-5.02473e-09
-4.30852e-09
6.96672e-09
-2.04389e-10
1.86435e-08
1.19649e-09
3.04826e-09
3.75193e-09
1.73833e-08
-8.46026e-09
2.1201e-08
-3.11003e-09
-9.63067e-09
-1.18899e-08
1.2825e-08
-9.39539e-09
-7.14271e-11
-1.92388e-08
7.42033e-09
-5.9601e-09
8.33302e-09
1.88281e-08
9.53028e-10
5.91188e-09
-1.1308e-08
6.89839e-09
5.3626e-09
-1.13013e-08
7.88687e-09
-7.89352e-09
6.96938e-09
-1.83421e-08
-3.85328e-09
-1.32653e-08
7.31009e-09
9.8085e-09
-6.29266e-09
9.1951e-10
1.51985e-09
-1.25886e-08
-9.19023e-09
6.3313e-09
9.75732e-09
-9.97677e-10
-3.0567e-10
7.48151e-09
-1.16909e-09
7.39325e-10
1.30735e-08
1.89098e-08
-9.83748e-09
-2.28398e-08
-1.69717e-09
1.22276e-08
1.23093e-08
-1.29858e-08
8.36331e-09
-1.82173e-08
-2.35566e-08
1.03477e-08
1.15118e-08
-9.63828e-09
-2.69042e-08
9.46137e-09
5.07273e-09
-2.36842e-08
9.15008e-09
-1.87366e-08
1.57155e-08
1.24825e-08
-1.38694e-08
1.31094e-08
1.29876e-08
1.64262e-09
-7.1487e-09
-1.08406e-08
-1.00712e-08
-5.10522e-09
2.6017e-08
-1.74789e-08
1.69859e-08
-1.48686e-08
-3.11139e-09
5.01154e-10
-1.21062e-09
-2.32963e-08
-1.00092e-08
2.98085e-08
-1.56652e-08
-4.13404e-09
1.72958e-08
-1.47178e-08
-1.25872e-08
-1.79067e-08
1.29082e-08
-6.96364e-09
-1.01303e-08
-1.03689e-08
-2.02789e-08
-1.24022e-08
2.4304e-08
1.78222e-09
-7.98109e-09
-1.8053e-08
-2.39095e-08
4.60365e-09
2.42772e-09
-1.78847e-09
-5.24291e-09
4.77391e-09
-4.08441e-10
2.38174e-10
-7.91044e-09
6.61247e-09
6.07188e-09
7.12752e-10
-6.19548e-09
-5.84458e-09
5.43805e-09
-1.90907e-12
2.71882e-10
-7.90493e-09
-4.29543e-09
3.2586e-09
7.6493e-09
-6.79883e-10
-2.9028e-09
2.80946e-09
8.72225e-09
-1.12598e-08
6.76808e-09
-4.6385e-09
2.43327e-09
2.75605e-09
3.53293e-09
2.9728e-09
6.22855e-09
2.23181e-09
5.96227e-09
8.46321e-09
-6.66909e-09
8.75049e-11
7.9066e-09
-1.325e-09
-3.3929e-10
-4.91636e-09
-1.41343e-09
2.46419e-09
4.34353e-09
-3.55535e-09
-3.25236e-09
3.80673e-09
-7.88146e-10
-5.54393e-10
-6.85219e-09
-2.36814e-09
8.88104e-09
-5.52551e-10
-3.65559e-09
4.29566e-09
7.47565e-10
-7.17527e-09
5.59146e-09
8.36256e-10
-4.68095e-09
4.87597e-09
-5.10489e-09
4.23068e-09
5.56327e-10
-1.3177e-09
3.24305e-09
-3.49664e-09
-5.34545e-10
5.13077e-10
-4.63531e-10
-4.96589e-09
1.00532e-10
-5.43383e-09
-1.18511e-09
-3.93384e-09
-8.62605e-10
-1.49569e-11
4.81141e-09
-1.01846e-08
-2.10143e-09
-1.67737e-08
2.70587e-09
9.9327e-09
4.13513e-09
-8.40396e-09
1.22044e-08
-2.05742e-08
-3.2384e-09
-5.21826e-09
7.66448e-09
7.9219e-10
-5.16556e-09
-7.96545e-09
9.56924e-09
3.56178e-09
3.53243e-09
3.15067e-09
-1.5087e-08
3.8651e-09
8.07455e-09
-8.40721e-09
4.13291e-09
-9.20953e-09
-8.89375e-11
-6.85403e-09
2.75369e-09
7.38035e-09
3.40007e-09
-1.69841e-08
8.31477e-09
1.86021e-08
-1.4841e-09
-3.29559e-09
-4.31575e-10
-4.31195e-09
1.30583e-08
-3.70171e-09
1.06505e-08
2.86762e-09
1.63514e-09
4.91189e-09
-9.41463e-09
8.73516e-09
7.36185e-09
-7.44957e-09
-8.41309e-09
5.73628e-09
-2.53534e-09
-5.0503e-09
4.93445e-09
-2.75288e-09
2.86874e-09
3.60256e-09
-4.96553e-09
-3.68734e-09
3.41616e-09
2.32887e-10
-4.64773e-11
2.84916e-09
5.50145e-09
2.52948e-09
-2.50975e-09
2.1316e-10
-1.84403e-10
-2.46393e-09
5.17782e-09
4.72389e-11
7.21007e-10
-3.27799e-09
2.81864e-09
-3.717e-09
9.45605e-10
-3.90639e-09
1.24064e-09
-8.71191e-11
-7.34565e-09
-1.52627e-09
-2.63093e-09
5.29568e-09
-1.75693e-09
2.11164e-09
3.06738e-09
-4.09446e-09
-2.68991e-09
-1.42874e-09
3.84579e-11
-1.18295e-10
1.78011e-09
5.76845e-09
-1.05576e-08
3.00906e-09
5.97499e-09
4.39832e-09
-8.5932e-09
-2.82888e-09
3.56096e-09
3.10511e-09
-1.6554e-10
1.42481e-09
5.70647e-09
-1.66413e-09
-5.46716e-09
4.50892e-09
2.10078e-11
-3.79362e-10
5.12645e-09
-6.04641e-10
5.93175e-09
3.08787e-09
-6.59448e-09
9.57263e-09
-2.34659e-09
-4.13818e-09
8.96607e-09
1.33692e-09
5.23693e-09
3.40948e-09
-9.98336e-09
3.03602e-09
2.15061e-09
-3.84973e-09
9.03626e-10
9.81723e-09
-5.48394e-09
4.29394e-09
3.30266e-09
-4.56058e-09
8.95333e-09
-3.75578e-09
9.05188e-10
5.78544e-09
-3.28118e-09
3.40825e-09
-3.52463e-10
7.50194e-09
1.00254e-08
-1.17419e-08
4.29993e-09
9.66038e-10
2.23595e-09
4.64066e-09
9.68466e-09
3.23679e-09
-2.80655e-09
7.02818e-09
4.73167e-09
7.38029e-10
-2.41966e-10
2.8021e-09
3.28071e-09
4.09013e-09
5.61312e-11
3.45695e-09
2.43186e-09
-2.75607e-09
-3.13275e-09
1.01035e-11
3.47993e-09
-3.30706e-11
3.03628e-09
-3.65391e-09
3.51074e-09
-2.8931e-09
3.07209e-09
-2.57063e-11
-2.92447e-09
3.13273e-09
3.27167e-09
-1.14377e-10
-3.78231e-10
-2.65395e-10
-6.14458e-09
3.17701e-09
-4.50116e-11
3.78748e-10
3.27874e-09
2.97036e-09
6.73693e-11
6.3441e-09
3.96586e-09
-3.98012e-09
-1.92731e-09
1.94157e-09
-4.04914e-09
8.08237e-09
4.04917e-09
3.14522e-09
-7.45979e-09
5.58297e-09
4.99718e-09
-6.53097e-09
-3.49232e-09
-6.0217e-10
6.31756e-09
-8.43485e-09
1.89983e-10
-4.42433e-09
6.69275e-09
1.86376e-09
-2.21086e-09
-9.88117e-10
5.27835e-10
-3.97513e-09
-1.36082e-09
-1.12702e-09
6.46297e-09
-3.91252e-10
-3.99326e-09
4.09363e-10
-2.53429e-09
4.37275e-09
3.51847e-10
-2.1903e-09
-1.68405e-09
4.58704e-09
-5.43727e-09
-5.42167e-09
-1.51496e-09
5.57581e-09
-5.53513e-09
-2.77787e-10
5.77315e-09
-9.62873e-09
2.17154e-09
-6.26394e-09
7.45474e-09
-4.01743e-09
2.82663e-09
-2.95747e-09
3.33696e-09
1.7164e-09
-8.68347e-11
-2.31533e-09
-2.86795e-09
-6.85047e-09
6.07414e-10
4.72811e-09
-4.11703e-10
-6.03613e-09
-9.02497e-10
-6.35012e-10
-1.07048e-08
5.38311e-09
-8.53707e-09
3.77018e-09
4.13188e-09
3.83423e-09
-9.74418e-09
3.30209e-10
5.57972e-09
-7.17377e-09
1.3167e-09
9.6913e-09
-1.13687e-10
-2.9832e-09
-7.60793e-09
-2.44379e-09
-6.20696e-09
3.35041e-09
-2.85682e-09
3.2766e-09
4.45781e-09
-8.82359e-09
-5.3784e-09
2.66716e-09
-2.22706e-09
-2.57873e-09
6.1225e-09
-5.23427e-09
3.33742e-09
-2.88784e-09
3.65952e-09
3.5892e-09
-1.87378e-09
-4.15921e-09
7.09573e-10
2.28043e-11
3.45944e-09
-1.64783e-09
-4.79482e-09
-2.55834e-09
-2.80581e-09
-5.43574e-10
6.56304e-10
-5.34699e-09
-3.3144e-09
-1.16999e-10
9.06069e-10
-4.42767e-09
3.69088e-09
-6.32624e-09
3.54143e-09
2.79565e-09
8.56148e-10
3.9079e-11
1.90823e-10
6.80862e-09
-9.64109e-09
1.3318e-09
1.50065e-09
-1.15892e-08
8.01385e-09
1.03839e-08
2.66208e-09
-1.38476e-09
-1.09184e-08
5.55261e-10
-9.48235e-09
5.05717e-09
-4.87419e-09
3.68883e-09
-3.87182e-09
5.3077e-09
1.08129e-09
5.50472e-10
-6.80943e-09
-3.21483e-09
4.40201e-09
4.12052e-09
4.6833e-10
5.67743e-12
-1.46738e-09
6.31062e-09
1.01178e-09
-5.85507e-09
3.93203e-09
-4.84894e-09
-3.54805e-09
2.32581e-09
-2.75552e-09
3.97776e-09
-3.14636e-09
6.66381e-11
-8.28056e-10
6.14599e-09
9.92673e-10
-4.23933e-11
-1.64382e-09
8.37163e-09
7.3494e-09
-5.78236e-09
4.76315e-10
2.91415e-09
-3.90002e-09
1.027e-08
3.92569e-09
-3.34644e-09
8.99973e-09
8.43938e-10
-6.49724e-09
4.95512e-09
-3.10716e-09
-5.19442e-09
3.67473e-09
-1.18387e-08
8.12142e-09
4.25321e-11
3.26695e-09
1.50029e-08
-1.45951e-08
5.45528e-09
-1.35868e-09
8.58515e-10
8.05793e-09
6.39708e-09
-1.15877e-10
1.26382e-08
-4.4644e-09
-9.15688e-09
-4.49252e-09
1.44933e-08
-5.64358e-09
8.79465e-09
-1.48372e-08
1.29908e-08
-9.99228e-09
6.84536e-09
-9.87218e-09
-8.03383e-11
-5.39744e-09
-9.78544e-10
7.32404e-10
8.92404e-11
2.09935e-09
-4.99609e-09
7.01793e-09
-4.12117e-09
-1.31338e-09
3.33064e-09
8.20872e-11
3.23689e-09
-1.04193e-09
-7.19104e-09
1.99093e-09
-6.74166e-11
-7.99264e-09
3.60302e-09
1.04158e-08
-6.0262e-09
-3.51138e-10
-5.38588e-09
-2.25559e-09
6.03862e-09
-4.44762e-09
-1.94211e-09
-2.92042e-09
4.21338e-09
4.74567e-09
3.78005e-09
1.44324e-09
1.79465e-09
2.73592e-09
4.37477e-09
-4.32697e-09
-7.12069e-09
6.06179e-09
2.6628e-09
-8.0317e-09
3.33714e-09
-5.12195e-09
5.34179e-10
-1.17449e-10
-1.38504e-09
9.20146e-09
2.50314e-09
2.19782e-11
3.85404e-09
9.49849e-09
7.8123e-10
-1.21603e-08
1.88057e-09
6.32158e-09
-5.02532e-09
8.20224e-09
-4.57385e-09
9.95015e-09
9.45285e-10
1.53287e-09
-5.32547e-09
-6.12808e-09
9.0627e-09
5.76589e-09
-8.70048e-09
1.36872e-08
-2.35909e-10
-1.08913e-08
-2.55996e-09
1.23169e-08
9.59954e-09
-8.2293e-09
-6.50387e-09
-4.69149e-09
9.13535e-09
2.06004e-09
-9.8756e-09
-2.91097e-09
6.28273e-09
-2.27656e-09
1.11744e-08
-9.13371e-09
9.92219e-09
-1.06659e-08
-1.55292e-09
2.85171e-09
-6.01913e-09
-2.25252e-10
3.689e-11
3.7852e-09
3.31524e-09
6.09076e-09
3.93995e-09
-1.12602e-09
-3.39253e-09
3.595e-09
9.23557e-10
3.21839e-09
-4.2974e-09
-4.70087e-11
5.59787e-09
3.71112e-09
-5.33469e-09
-3.97429e-09
6.41917e-09
1.56419e-11
-8.36938e-10
1.6181e-09
1.40855e-09
-1.02179e-09
7.88399e-10
3.82839e-09
2.53053e-09
-3.33925e-10
-3.93568e-10
7.00334e-09
-5.82138e-09
-1.42557e-08
7.91954e-10
4.34437e-09
9.11942e-09
5.41557e-10
-3.70172e-09
-1.10956e-08
-5.59083e-09
-9.00567e-10
6.50704e-09
1.01283e-08
-2.09028e-09
-7.49647e-09
3.64338e-09
7.27689e-09
8.90072e-09
-1.24199e-09
-8.05229e-09
-2.49006e-09
-8.30119e-09
7.08954e-09
-6.70946e-10
8.46729e-11
-1.01178e-09
-7.0691e-09
1.74986e-09
-8.09632e-09
5.03073e-09
-5.37115e-09
4.43046e-09
-7.06742e-11
1.59274e-09
2.92951e-09
-9.17853e-11
1.30612e-08
-2.74523e-08
9.23579e-09
5.15528e-09
-2.57516e-08
2.10707e-08
1.77421e-08
-1.0599e-09
-9.2674e-09
-1.7125e-08
-9.63245e-09
-1.7179e-08
2.21852e-08
-1.01513e-08
-2.16663e-08
1.88288e-08
3.8515e-09
-4.95074e-10
-9.40121e-09
-1.87295e-08
-1.00395e-08
3.81701e-08
-1.79497e-08
-2.48201e-08
3.33686e-08
-1.44023e-08
1.29711e-08
-1.72983e-08
1.29308e-08
-2.87526e-08
1.41945e-09
-1.62432e-08
7.52931e-09
2.98601e-08
2.34194e-09
-2.40661e-08
1.15728e-08
-2.23718e-08
1.04825e-08
-6.47024e-10
-1.62668e-08
-1.18388e-08
1.18947e-08
-1.88201e-08
-9.8091e-09
-1.32097e-08
-1.41577e-08
1.26785e-08
2.22464e-09
-1.41456e-08
-7.57587e-10
1.30193e-08
3.73164e-09
-4.07236e-09
1.57278e-08
-1.32925e-08
-5.73531e-09
3.30003e-09
-1.77516e-09
-4.10838e-09
2.16114e-08
3.83115e-09
-1.68097e-08
-3.13969e-10
1.22343e-08
4.61616e-09
1.61278e-08
-1.88192e-08
-3.04384e-09
-5.62645e-09
1.99791e-08
1.31021e-09
-1.58952e-08
-2.35557e-09
1.04815e-08
-6.05761e-09
1.13144e-08
2.00877e-09
-7.26554e-09
1.06113e-08
1.21305e-09
-1.06156e-08
-1.20871e-09
1.05209e-08
-5.96723e-09
2.0916e-09
-1.30398e-08
-7.87103e-09
-1.64578e-08
-2.6926e-09
1.3524e-08
-3.8453e-09
-1.05165e-08
6.26624e-09
-1.1031e-08
4.19464e-09
1.04742e-09
5.78898e-09
-4.79189e-09
-1.79353e-09
-4.4456e-09
1.5739e-08
-8.44547e-09
-4.34237e-09
-2.95121e-09
-1.65649e-08
1.08672e-08
2.14367e-08
-7.55592e-09
1.12701e-08
-7.0192e-10
-3.01227e-09
-5.64806e-09
-6.69975e-09
6.46488e-09
8.99986e-09
-1.14291e-08
5.49056e-09
6.98602e-09
-6.89231e-09
-6.33036e-09
-1.84889e-08
3.3692e-09
-1.44518e-09
-9.81946e-09
-1.71149e-08
-6.5629e-09
-9.07529e-10
1.83377e-08
-8.80118e-09
-1.33599e-08
1.10932e-08
1.10679e-08
-1.30615e-08
-8.20502e-11
-9.99453e-09
-4.06734e-09
-6.80333e-09
-1.62527e-08
1.89935e-09
-1.43507e-08
-1.48124e-08
2.29686e-09
1.66505e-08
6.99816e-10
1.42265e-08
-2.75837e-09
-1.21679e-08
1.626e-08
-2.50356e-09
-1.30567e-08
-7.83983e-10
3.34878e-09
1.36953e-08
-1.1238e-08
-7.92001e-09
1.27101e-08
2.20452e-09
-6.61722e-10
1.24478e-08
2.80634e-09
-1.45924e-08
1.7675e-08
2.98996e-09
-2.13266e-08
-3.91824e-09
1.96987e-08
-3.3327e-09
2.26554e-08
-8.89866e-09
-1.44805e-08
-1.73025e-08
1.75341e-08
-8.34083e-09
2.02842e-08
1.26097e-08
1.70488e-09
9.82757e-09
-3.16792e-09
-1.0787e-09
-5.58096e-09
2.35506e-09
1.09984e-08
-3.52586e-09
4.91769e-09
-1.6598e-09
-6.4258e-09
1.72921e-09
-6.39074e-09
8.95753e-09
-4.29599e-09
-4.14348e-09
6.83867e-09
-9.65964e-10
3.75445e-09
2.13301e-09
-9.69768e-10
2.26904e-10
5.8826e-09
9.4292e-10
-6.74619e-09
3.65044e-09
-9.09827e-09
-4.54888e-09
6.14357e-09
7.36284e-09
2.61124e-09
-3.21449e-10
1.02254e-08
-7.65364e-09
4.41114e-09
3.33105e-10
-3.86331e-09
1.13227e-08
3.53902e-09
2.48671e-09
-1.15887e-09
4.81574e-09
7.12598e-09
-2.28131e-10
5.20321e-09
6.39873e-09
-3.31273e-09
-9.44663e-09
6.36063e-09
3.87322e-10
-6.20654e-09
1.2218e-08
7.32318e-09
-1.67062e-08
6.07029e-09
7.44985e-09
-1.59038e-08
1.57772e-08
-7.86442e-09
1.57016e-08
-3.57553e-10
-9.76032e-09
6.7125e-10
-6.45185e-09
-1.12239e-10
6.70868e-09
3.22128e-09
2.72185e-09
-1.26518e-08
8.10197e-09
-7.84513e-09
-7.95298e-09
-4.51909e-09
-3.43176e-09
-9.43464e-09
-1.52245e-08
-9.28473e-09
4.64159e-09
-4.32664e-09
6.02389e-09
-6.3772e-09
4.67994e-09
5.71452e-09
-1.32471e-08
3.20597e-09
-4.94765e-09
-8.85617e-09
-7.86266e-10
-2.95016e-09
-4.50638e-09
-1.53136e-08
-1.92476e-09
9.85668e-10
2.65298e-09
-1.51326e-08
-2.83393e-09
-1.17041e-09
-1.05273e-08
9.64715e-09
-6.66753e-09
-2.35945e-09
-6.20159e-10
-2.41076e-09
9.04563e-09
-1.47267e-09
1.29296e-08
-2.04266e-09
-9.4143e-09
1.08549e-08
-9.24112e-09
-3.08648e-09
7.19224e-09
-3.00483e-09
-1.22273e-09
6.00421e-09
1.10839e-08
-3.11178e-10
-1.26975e-08
-7.28588e-09
-1.77333e-09
1.86166e-09
-1.07129e-08
-3.89904e-10
2.02293e-09
9.68398e-09
9.03953e-09
-6.59463e-09
9.30496e-09
-6.18401e-09
3.24541e-09
-3.84521e-09
1.66486e-08
2.1423e-08
-1.21669e-08
1.2885e-08
4.7145e-10
1.76846e-08
3.26696e-09
-1.3222e-08
-8.38478e-09
1.77615e-08
-1.41645e-08
-5.2415e-09
-1.32931e-08
-8.17203e-09
1.38364e-08
-1.42789e-08
-7.17342e-10
-1.06782e-08
9.0193e-09
2.13039e-09
2.68448e-10
-2.31135e-08
1.98686e-08
-1.05688e-08
-6.07531e-09
1.04288e-08
-9.10825e-09
-1.55994e-08
2.14415e-09
1.12574e-10
-1.68663e-08
-1.02534e-08
-1.12476e-09
1.74007e-09
9.63809e-09
7.75523e-09
-7.62841e-09
-1.03801e-08
6.16022e-09
4.70262e-10
-6.74969e-09
7.33627e-09
-1.48714e-09
2.77357e-10
2.61775e-09
-9.64479e-09
8.61156e-09
4.6478e-10
2.88204e-09
-9.67377e-09
-1.76174e-10
-4.83449e-09
-5.59532e-09
-2.74858e-08
2.01131e-08
1.2528e-08
-2.74047e-08
-9.97712e-09
1.14893e-08
2.58926e-08
-9.87538e-10
-1.9986e-08
-6.51228e-09
-2.08966e-08
-7.49567e-09
3.48415e-08
5.45261e-09
-1.16568e-08
-2.86373e-08
-7.68103e-09
2.19609e-08
2.05616e-08
3.30628e-08
-7.33592e-09
-2.02742e-08
1.12241e-08
-1.54733e-08
-2.16377e-08
-2.35251e-09
-3.02009e-08
-8.34187e-09
-1.78141e-08
-2.61677e-08
-6.10161e-09
9.10035e-09
1.29015e-08
-1.59002e-08
9.95356e-09
-2.05967e-08
4.54157e-09
-2.24127e-08
2.02778e-08
5.33718e-09
-3.20229e-09
-7.87244e-09
-6.41885e-09
9.35819e-09
-1.71252e-08
1.77205e-08
2.9465e-08
-1.10064e-08
-9.93976e-10
1.38373e-08
7.43451e-09
1.72904e-08
-2.73312e-08
9.04687e-09
-1.70847e-08
2.14761e-08
1.28989e-08
-2.40012e-08
6.66407e-09
2.52462e-10
1.01857e-08
-4.7219e-09
4.22763e-09
-2.13731e-08
-1.22805e-08
-3.33342e-09
8.73897e-09
6.87491e-09
-7.5116e-09
-1.50891e-09
-3.25994e-09
-6.14743e-09
3.34148e-09
-2.23326e-09
5.0392e-09
1.70684e-10
-3.66204e-09
-2.65609e-09
7.1729e-09
-4.38593e-09
-1.02985e-08
3.54366e-09
2.95814e-10
-2.49545e-09
-8.9796e-10
1.21324e-08
-6.60233e-09
7.44837e-09
-2.88798e-09
6.99933e-10
7.83404e-09
-1.03028e-08
1.76888e-09
-1.21812e-08
9.61511e-09
3.26609e-09
-1.007e-08
-3.71439e-09
1.28865e-08
-3.7449e-09
-6.4202e-09
4.47012e-10
-6.20804e-09
-3.76833e-09
3.88423e-09
5.73642e-09
-3.00434e-09
-6.61627e-09
8.33369e-09
-4.00245e-09
-7.47227e-09
5.687e-10
4.67028e-09
-5.39789e-09
-3.5624e-09
9.46311e-09
-1.11586e-08
5.33999e-09
-1.39023e-08
1.04398e-08
-4.39407e-09
7.85659e-09
1.12173e-08
-1.19419e-08
-1.31777e-08
4.97104e-09
-1.51282e-09
-8.22805e-09
4.76985e-09
-1.91208e-09
-2.73297e-09
9.6161e-09
6.36938e-09
-1.11263e-09
5.96054e-09
1.48971e-08
8.79068e-09
-9.53642e-10
-1.97789e-08
3.69946e-09
6.9715e-10
-5.2737e-09
-3.71426e-09
6.25499e-09
-9.41709e-09
2.63056e-09
9.80637e-10
-5.50922e-09
3.59634e-09
-8.42323e-09
-1.02672e-08
5.38588e-09
3.9277e-09
-3.79906e-09
1.2071e-09
-6.82513e-09
2.59032e-09
5.50553e-09
-6.1733e-09
-1.92254e-09
4.10871e-09
-1.54054e-09
2.21415e-11
-9.75882e-09
-1.59021e-09
7.82316e-09
-5.7631e-09
2.51737e-09
2.01839e-09
3.60918e-09
3.01689e-09
3.5063e-09
-4.95052e-09
-9.63304e-11
1.3779e-09
6.57366e-09
1.80699e-09
-2.41888e-09
4.11818e-09
5.64307e-09
1.6941e-09
-7.21585e-09
5.11313e-10
-4.99051e-09
-3.67371e-09
-7.65491e-10
5.69348e-09
-6.73446e-09
5.448e-09
4.2492e-09
-7.42231e-10
-8.95494e-09
3.0585e-09
2.45846e-09
-6.89345e-11
8.38189e-09
5.19432e-09
-9.32699e-09
8.58505e-09
2.85536e-09
6.43603e-09
-4.52721e-09
8.01273e-09
-9.92154e-09
1.1266e-08
1.06259e-09
-5.8925e-09
6.31909e-09
-1.15885e-08
-2.1241e-11
3.083e-09
2.13258e-09
3.59898e-09
4.96484e-09
5.54278e-09
2.14387e-10
6.75712e-09
1.00516e-08
6.98257e-09
-2.83697e-09
3.58741e-09
6.45062e-09
-3.71893e-09
5.90018e-09
1.45702e-10
1.25457e-08
1.19402e-09
4.7229e-09
6.78181e-09
3.84128e-09
-2.03289e-09
-9.2919e-10
2.18216e-09
7.79917e-10
-4.67133e-09
3.49889e-11
3.56151e-09
1.07482e-09
1.59031e-09
-1.08951e-08
2.86864e-09
6.43616e-09
-6.32503e-09
3.24401e-09
-4.07471e-09
4.89848e-09
5.29021e-10
-1.35279e-09
-2.18234e-09
-5.30721e-09
2.7716e-09
4.71795e-09
-4.01418e-09
-2.01064e-10
-4.07942e-09
3.18521e-09
-1.20017e-09
-1.19917e-09
-3.14517e-09
-8.95011e-09
4.49614e-09
-2.78116e-09
-2.79007e-09
3.20678e-09
-7.11327e-09
-2.26864e-09
3.24119e-09
2.38506e-09
-2.95938e-09
-2.66686e-09
-9.29306e-10
1.56315e-10
3.733e-09
-1.3579e-09
-5.15625e-09
1.36168e-11
-4.19675e-09
-5.3145e-10
1.07469e-09
-5.39196e-09
-6.26723e-09
-9.68961e-10
8.00112e-09
-2.51334e-09
-4.51883e-09
7.31393e-09
-4.85209e-09
-3.43081e-09
-3.59693e-09
8.38111e-09
2.52976e-09
4.55082e-09
-1.46625e-10
7.10429e-09
-3.63412e-09
-5.98351e-09
8.31169e-09
3.3434e-09
6.53772e-09
9.3739e-09
-7.26667e-09
-8.64497e-09
-9.78986e-09
2.17374e-08
-5.40985e-09
1.15113e-08
-1.2743e-08
-8.55814e-09
6.74315e-09
1.44675e-09
1.21781e-10
-4.78415e-09
3.55322e-09
7.97407e-09
6.35455e-09
-7.25441e-09
-2.73424e-09
7.60303e-10
2.83665e-09
-6.59447e-09
-1.16259e-08
6.79998e-09
1.14204e-08
3.53972e-09
7.69157e-09
2.4199e-09
6.71483e-09
-6.48465e-09
1.21656e-09
-2.3842e-10
1.05065e-08
1.31832e-08
-6.04758e-10
-1.06712e-09
1.13196e-08
9.55513e-09
-7.34861e-10
1.78812e-08
2.98908e-09
-3.35658e-09
-3.98433e-09
4.35181e-09
9.69007e-09
3.44765e-09
-1.38602e-09
-1.17517e-08
4.96735e-09
-1.77453e-09
-1.80294e-09
-3.37072e-09
5.10034e-09
7.33171e-11
-1.15772e-09
5.00531e-09
-1.23097e-09
-3.06871e-09
5.90099e-09
-3.80002e-09
-4.54459e-09
3.2337e-09
5.11092e-09
-5.57165e-09
-3.13029e-11
6.04821e-09
-3.83153e-09
7.10409e-09
3.91147e-09
-6.10767e-10
8.15781e-10
-4.7496e-09
-2.4203e-09
-5.80676e-09
7.93316e-09
2.93906e-10
3.51833e-09
4.5846e-10
6.86562e-10
2.0617e-08
-2.02643e-09
1.17751e-09
-1.97681e-08
3.13135e-09
1.09162e-08
1.72965e-09
-4.64657e-09
2.31402e-08
-1.84677e-09
-1.66468e-08
1.42071e-08
-1.57224e-08
-3.07451e-09
1.65729e-08
-1.22546e-08
-1.24374e-09
1.24681e-08
-4.62643e-09
-1.61001e-08
1.2954e-08
4.87584e-09
5.40578e-09
1.0776e-08
-1.97463e-09
2.1594e-08
6.95198e-09
1.37294e-08
4.17606e-09
-5.43734e-09
1.72341e-08
1.48998e-08
-1.15169e-08
3.39704e-09
-1.49233e-09
1.53293e-08
-1.69472e-08
5.50988e-10
1.97933e-08
-1.10912e-08
9.04378e-09
2.30972e-09
3.17196e-09
1.14177e-08
4.62144e-09
1.69393e-08
-1.9872e-09
2.45065e-09
1.7651e-08
-2.00317e-09
1.39718e-08
1.73868e-08
2.88461e-08
-1.56479e-08
1.5058e-08
-2.82562e-08
1.77346e-08
1.92288e-08
-8.11739e-09
-4.3584e-10
1.56613e-08
-3.08733e-08
-1.26184e-08
-4.25869e-09
2.22853e-08
-5.4082e-09
-1.54271e-08
2.05915e-08
-1.77828e-08
1.43521e-08
-3.55276e-09
2.38738e-08
8.21291e-09
1.56497e-08
-3.15127e-08
-6.28245e-09
2.43451e-08
-2.4013e-09
-1.23231e-08
-1.02898e-08
2.86532e-08
-6.04035e-09
2.95543e-08
-2.02512e-08
-2.16262e-08
-1.00536e-08
2.08896e-08
1.14492e-08
2.48169e-10
2.31596e-08
4.71636e-09
1.6783e-09
3.01256e-08
2.16872e-08
-1.08839e-08
9.38632e-09
2.62746e-08
-1.13159e-08
2.99634e-08
-1.34826e-09
-2.76589e-08
-1.47357e-08
1.06188e-08
3.33205e-09
1.23814e-09
1.39896e-08
-1.2658e-08
2.43456e-08
9.20204e-09
1.24539e-08
-1.59405e-08
7.7584e-09
8.26539e-09
-8.33195e-11
-3.81161e-09
-1.0282e-10
-1.26987e-08
1.66131e-08
-2.3719e-09
-1.73802e-08
-1.04835e-08
9.55423e-09
1.39021e-09
-4.60977e-10
9.81028e-10
5.45853e-09
1.18541e-08
-8.31848e-09
8.00951e-10
8.90773e-09
2.6953e-09
-1.00327e-08
1.83714e-08
-4.06567e-09
-8.84718e-09
-9.51851e-09
1.2111e-08
-1.18904e-08
5.12294e-09
-1.41362e-09
-1.49187e-09
-4.96754e-09
-5.43096e-09
-1.16152e-08
3.40455e-09
-4.43104e-09
5.77365e-10
-7.76151e-09
1.26108e-08
-1.66737e-08
-3.68141e-10
-1.43432e-08
1.14668e-08
-3.79288e-09
-2.61589e-09
4.9169e-09
-4.72545e-09
8.51492e-09
-7.58234e-09
7.63198e-10
-5.57691e-09
-1.186e-08
-4.35471e-09
-9.22531e-09
3.41007e-09
1.73839e-09
-9.06391e-09
3.91548e-09
6.19546e-09
-4.08121e-09
1.29583e-09
-1.04597e-08
6.62123e-09
9.12708e-09
-8.77961e-09
-1.59087e-10
-1.88369e-10
3.4625e-09
-4.76449e-09
-6.93884e-09
4.06443e-09
-7.28032e-09
-5.44222e-11
3.27032e-09
-4.48308e-09
4.54508e-09
1.92729e-09
3.95024e-09
-2.1858e-09
-5.94301e-10
5.92702e-09
4.44109e-09
-4.34935e-09
1.31912e-10
-1.7389e-10
-2.28909e-10
8.82395e-09
-4.04996e-09
-2.74726e-09
6.50976e-09
3.96612e-10
1.49381e-09
2.50676e-09
-5.03452e-11
3.35253e-09
3.08933e-09
2.93052e-09
-2.66733e-09
4.54876e-09
3.43936e-11
-3.22976e-09
3.68794e-09
4.09058e-09
-1.67313e-10
-5.57055e-10
2.81969e-09
4.24714e-09
-3.39069e-09
6.84972e-09
-3.01761e-09
4.61943e-09
-4.9925e-09
-5.76497e-09
7.34375e-10
-9.72083e-09
1.05861e-08
-1.59958e-09
1.591e-09
-8.72602e-09
8.15136e-09
-1.0163e-09
-7.4276e-09
9.753e-09
-9.29444e-09
-6.37414e-09
2.09617e-08
-5.29313e-09
1.26477e-08
-1.04304e-08
1.83846e-08
-7.90652e-09
2.1697e-09
-7.97746e-09
1.66412e-08
-7.48664e-09
8.95063e-09
-7.83812e-09
1.29713e-09
-1.49034e-08
6.11964e-09
3.77029e-09
2.81025e-09
-6.49316e-10
-5.93121e-09
9.56821e-09
5.36052e-09
-1.11584e-08
-7.13397e-09
-1.82547e-09
1.17697e-08
-4.27046e-10
-8.15481e-09
1.15428e-09
4.15147e-10
7.37521e-09
5.60904e-09
9.16317e-09
-1.82964e-08
-5.87731e-09
1.02398e-08
-1.13095e-09
-1.58196e-10
9.46019e-09
-3.23281e-09
-3.17029e-09
1.07603e-08
-4.35717e-09
7.64908e-10
-4.75657e-09
4.2497e-09
-2.58045e-10
-7.19506e-09
-6.25035e-09
1.02126e-08
2.16982e-09
3.12376e-09
-6.05647e-09
7.62878e-10
-1.3662e-08
8.53311e-10
5.51069e-09
7.298e-09
-6.56849e-10
-5.60496e-09
-7.40019e-09
8.23742e-09
-4.85338e-09
-4.04086e-09
4.04714e-09
5.0436e-09
-3.33362e-09
4.2105e-09
-2.3671e-09
-2.01591e-10
-1.38902e-11
1.86446e-09
-7.86376e-09
1.68592e-09
6.16394e-09
1.26957e-08
-1.22964e-08
1.1956e-08
4.98596e-09
2.09708e-09
-1.00879e-08
6.40127e-09
-2.03549e-09
1.52589e-09
-2.98838e-09
-3.07492e-09
-1.55758e-10
-4.19102e-09
3.21318e-09
9.47825e-09
-1.03694e-08
9.85723e-09
2.78859e-10
1.32029e-08
-4.00353e-09
6.8474e-09
-3.79398e-09
-9.78718e-09
6.73375e-09
-5.86861e-09
1.67392e-09
-5.68213e-09
7.08069e-09
-7.26717e-09
4.97429e-09
-1.44504e-08
-9.88194e-09
9.04897e-09
-9.78262e-09
-1.81325e-09
-3.35532e-09
-4.71336e-09
-9.41772e-09
-4.80359e-09
3.38476e-09
8.45745e-09
-6.86793e-09
1.20664e-08
-1.60091e-09
1.13767e-08
-4.7325e-09
7.22474e-09
-4.5761e-09
8.08498e-09
-4.00516e-09
-3.94823e-09
3.84185e-09
4.11154e-09
-4.18101e-09
1.99427e-10
-2.35772e-11
3.46392e-09
-4.32636e-09
-3.31858e-09
-6.69693e-10
1.85388e-10
2.13327e-11
-1.34368e-09
-3.004e-09
-1.71158e-09
5.4909e-09
-3.75799e-09
-4.59034e-10
-4.96549e-09
4.08085e-09
-7.34795e-09
5.17734e-09
4.88519e-09
-4.66923e-09
-1.65366e-11
-4.66574e-09
6.8648e-09
1.23592e-08
-1.45582e-08
7.73169e-10
-6.1086e-09
-5.64898e-09
5.93235e-09
4.60181e-09
5.57979e-09
-4.75813e-09
-1.05348e-09
9.84281e-10
6.8387e-09
6.44937e-10
-8.53711e-09
1.22866e-08
1.41687e-09
-1.29992e-08
8.96167e-10
7.11943e-09
4.98357e-09
4.12429e-10
-7.20698e-09
-6.20461e-09
1.13048e-08
-1.87411e-08
8.33244e-09
-7.84168e-09
5.65699e-09
9.30412e-09
-4.15643e-09
-3.27283e-09
-1.18979e-08
-1.43747e-09
5.54141e-09
7.79396e-09
6.31722e-09
-1.06311e-08
-7.58405e-09
-7.05301e-09
3.04329e-09
1.53145e-08
-4.85117e-09
2.81089e-09
-1.67008e-08
-1.04344e-09
-1.10147e-08
-1.94306e-08
1.09401e-08
-3.01147e-09
-1.36082e-08
-9.83542e-09
3.42157e-09
1.19553e-08
-3.6929e-09