/*--------------------------------*- C++ -*----------------------------------*\
| =========                 |                                                 |
| \\      /  F ield         | OpenFOAM: The Open Source CFD Toolbox           |
|  \\    /   O peration     | Version:  v1612+                                |
|   \\  /    A nd           | Web:      www.OpenFOAM.com                      |
|    \\/     M anipulation  |                                                 |
\*---------------------------------------------------------------------------*/
FoamFile
{
    version     2.0;
    format      ascii;
    class       surfaceScalarField;
    location    "150";
    object      phi;
}
// * * * * * * * * * * * * * * * * * * * * * * * * * * * * * * * * * * * * * //

dimensions      [0 3 -1 0 0 0 0];

internalField   nonuniform List<scalar> 
37564
(
7.84148e-10
-1.29832e-09
3.36771e-09
-2.85359e-09
9.26768e-10
-4.89224e-09
-2.57256e-09
6.53802e-09
-7.15343e-09
7.50742e-09
-3.35523e-09
3.00123e-09
3.75267e-09
-5.90943e-09
-4.99669e-09
6.00227e-09
5.35759e-09
-3.03477e-09
-8.32511e-09
9.16733e-10
5.54191e-09
-4.56383e-10
-5.5135e-09
4.2706e-09
8.75031e-09
-8.44123e-10
4.48805e-09
-2.9369e-09
-7.46057e-09
1.60531e-09
-4.72492e-10
7.84637e-09
7.85336e-10
-3.27415e-09
6.20668e-09
7.18162e-09
-5.1509e-09
8.7614e-11
1.12699e-08
-7.61796e-09
-1.09461e-09
3.56163e-09
2.3592e-09
-8.33087e-09
-4.04998e-09
-2.78264e-09
-3.75499e-09
8.11318e-09
-5.80966e-09
9.60052e-10
-5.62204e-09
3.93125e-09
1.0654e-09
-6.02608e-09
-6.61373e-10
-2.73098e-10
-6.45054e-10
-6.53421e-10
-4.42281e-09
5.72127e-09
-1.74761e-09
-6.89784e-09
8.00038e-09
1.93422e-09
3.83909e-10
-6.81106e-09
4.49295e-09
-4.47703e-09
5.75783e-09
-7.37112e-09
6.00739e-09
1.89841e-09
-5.60768e-09
-3.18859e-09
-2.28778e-09
-2.36622e-10
-2.51616e-09
-1.27211e-09
-6.88758e-10
-3.03843e-09
-7.91349e-09
4.14087e-09
-4.13527e-09
-1.41932e-09
-3.40743e-09
-1.32101e-09
-2.64271e-09
-9.08054e-09
-5.03701e-09
1.07101e-08
-3.06566e-09
-4.94244e-10
-2.94198e-09
-6.29251e-09
-1.63691e-10
-6.91357e-09
-1.82378e-09
-6.42661e-09
-5.05313e-09
-1.11094e-09
1.20106e-08
3.8922e-10
-1.12889e-08
-2.86719e-12
-1.64467e-08
1.53386e-08
-3.10133e-10
-6.68536e-09
7.08482e-09
-8.93281e-11
-9.19084e-09
8.87779e-09
-6.74147e-10
3.77746e-09
-4.94791e-09
1.84457e-09
7.69369e-09
-6.30507e-09
-8.27991e-09
6.89129e-09
-3.48435e-09
1.06989e-08
2.04685e-09
-9.26144e-09
-4.2936e-09
-4.86095e-09
-5.70919e-09
1.48637e-08
3.53521e-09
1.89919e-09
-7.08759e-09
-4.00246e-09
-4.28899e-09
-4.97201e-10
1.9921e-09
6.20109e-09
-4.41573e-09
5.72432e-09
-3.04943e-09
-6.82801e-10
-7.32663e-09
9.23412e-09
-4.85034e-10
8.71366e-10
-7.47393e-09
7.88e-09
-1.25287e-08
-1.1798e-08
2.43586e-09
-1.00053e-09
1.83075e-08
-8.12926e-09
-2.27586e-09
-7.90242e-09
-1.51511e-08
1.49075e-08
1.85511e-08
-9.05044e-09
-1.42299e-08
5.01405e-09
6.50394e-09
-1.59156e-08
4.39765e-09
4.92179e-09
-8.95814e-09
1.7619e-08
-9.21678e-09
-1.06781e-08
1.48775e-09
-1.4638e-08
-4.30836e-09
1.74587e-08
-2.54896e-09
-1.24099e-08
1.64468e-08
-3.57304e-10
1.27158e-08
3.52386e-09
1.37379e-08
-1.03338e-09
-1.46442e-08
3.26783e-09
-1.81763e-08
2.50493e-09
-6.37563e-09
-3.34678e-09
1.10552e-08
-1.09269e-08
-1.70339e-08
1.62494e-08
-7.7513e-10
-6.34596e-09
-5.71731e-09
-1.20918e-08
-3.17587e-09
1.55483e-08
-9.80168e-09
-2.57081e-09
1.238e-08
-1.13538e-08
-4.20206e-09
-1.68897e-09
6.82493e-09
1.04124e-08
3.54865e-09
7.14247e-09
1.01027e-08
-7.63649e-09
-1.382e-08
1.13462e-08
3.06232e-09
-4.30587e-09
6.3086e-09
8.58626e-09
-4.22672e-09
-4.09997e-09
-1.43274e-08
2.26541e-08
-1.38338e-08
-7.4961e-09
-1.63424e-08
1.00047e-08
1.16571e-08
1.89857e-09
-2.10518e-08
-1.23119e-08
8.31521e-09
-5.80506e-09
1.52499e-09
-2.14734e-08
-1.4313e-08
1.7038e-08
-9.68001e-09
7.00986e-09
-5.68299e-09
-7.59721e-09
-7.90089e-09
1.90318e-09
1.59545e-08
-2.42748e-08
9.84526e-09
-1.62632e-09
6.87763e-09
-1.35212e-08
1.1696e-08
-5.05246e-09
-1.15789e-08
1.35357e-08
4.92076e-09
2.98125e-09
-7.1003e-09
-9.40215e-09
1.181e-09
-3.30577e-10
-1.24292e-08
2.69578e-09
2.73302e-09
6.26707e-09
8.97035e-09
-2.05765e-08
1.08541e-09
1.05208e-08
7.63447e-09
1.34111e-08
-1.20752e-08
1.44297e-08
-3.81398e-09
1.16139e-08
-7.91659e-10
-9.64131e-09
-5.76973e-09
-5.97615e-09
1.84448e-08
-6.69909e-09
-8.6425e-09
5.56847e-09
6.32716e-09
2.77798e-09
1.21143e-08
-9.49776e-09
1.51354e-08
-1.24028e-08
3.14355e-09
1.75058e-08
-1.10086e-08
-9.64066e-09
2.28981e-08
-1.18745e-08
-9.14105e-09
1.20699e-08
1.4577e-08
8.83512e-09
4.92194e-09
6.88433e-10
-1.46919e-09
-1.02279e-08
-4.89964e-10
-1.06962e-08
-1.0008e-08
1.1247e-08
7.59619e-09
1.1812e-08
-1.10933e-09
-1.11926e-08
-1.0307e-09
1.97688e-08
-2.02073e-08
8.06827e-10
1.46658e-08
-1.65033e-08
2.35994e-09
-5.5583e-10
1.6122e-09
-9.36036e-09
1.98181e-08
-8.10123e-09
2.09605e-08
7.73616e-09
-8.03864e-09
-6.15663e-09
1.65651e-08
4.27755e-09
4.23163e-09
-8.13176e-09
2.3905e-09
3.88195e-09
1.83498e-09
1.36709e-08
-1.54531e-09
-1.39606e-08
-8.54593e-09
1.0071e-08
3.09873e-10
8.9678e-10
-3.76346e-09
-5.67921e-09
1.07069e-08
5.08075e-09
-2.11673e-09
1.22139e-08
8.56408e-09
9.09819e-09
2.26808e-09
-1.85918e-08
7.22546e-09
9.16446e-09
-4.90445e-09
4.83814e-09
-6.94588e-09
1.48575e-08
-7.01478e-09
-3.42503e-09
-1.26594e-09
1.69049e-08
-3.76124e-09
5.417e-09
1.82691e-08
-1.92755e-09
-9.3432e-09
-6.99839e-09
-8.58024e-11
3.99306e-09
1.43618e-08
1.21282e-08
-1.6806e-08
-3.8036e-09
1.73952e-08
-1.97911e-08
1.59016e-08
-9.59042e-09
-9.9677e-09
1.01995e-08
-1.01465e-08
3.80857e-09
-3.37683e-10
-7.5264e-09
4.0556e-09
-7.78866e-09
9.15118e-09
2.44606e-09
-1.16372e-08
5.65133e-09
5.64823e-09
-1.19551e-08
-6.36317e-09
1.05296e-08
-1.40213e-08
-5.46019e-09
-1.21865e-08
7.17533e-09
-9.74211e-10
5.9854e-09
-6.47629e-09
-4.5531e-09
-6.26309e-09
1.72925e-08
1.095e-08
-9.18645e-09
-8.23989e-09
1.50266e-08
-8.04917e-09
3.97261e-09
-9.52051e-09
-5.9064e-09
3.78973e-09
-8.08323e-09
5.48085e-09
-6.91811e-09
-7.68132e-09
-9.05824e-09
4.11622e-09
4.54724e-09
-8.29538e-09
6.21134e-09
-5.96515e-09
-1.12329e-09
-1.63585e-08
-8.92641e-09
-4.66129e-09
-1.81329e-08
-2.32912e-09
-3.8614e-09
5.76834e-09
-1.11889e-09
-7.88089e-10
2.76609e-09
-1.46355e-09
-5.16391e-09
-1.38108e-09
3.88389e-09
3.26554e-09
1.49508e-09
-1.10057e-10
-3.79103e-09
-3.35422e-09
6.02636e-09
2.95194e-09
-8.2065e-09
-7.72276e-10
2.33444e-09
-6.70123e-11
3.18062e-09
5.34941e-09
-5.57804e-09
2.52218e-09
-1.1382e-10
1.56967e-09
8.2204e-10
1.49227e-09
4.58525e-10
3.44559e-09
3.23356e-09
1.93598e-09
1.79896e-10
2.30352e-09
3.45222e-09
-1.27897e-09
4.04102e-09
3.06612e-09
-3.52304e-09
1.31812e-08
1.6335e-09
-3.90263e-09
-1.09121e-08
3.83407e-11
1.14927e-08
1.65014e-09
1.60337e-08
-3.08503e-09
-1.13151e-08
1.06629e-08
5.23157e-10
4.84771e-09
1.48231e-08
-3.23785e-09
-1.54879e-08
1.23125e-08
2.54891e-09
8.58399e-09
1.35716e-08
1.25812e-08
-4.22889e-09
-1.14373e-08
8.96258e-09
4.14165e-09
-1.27443e-08
2.47822e-09
1.32857e-08
-3.01954e-09
-9.18871e-10
-1.60543e-08
1.23734e-08
-1.65301e-08
1.53862e-08
-5.34625e-10
1.09761e-08
1.12721e-08
-9.44809e-09
2.24928e-08
-4.4607e-09
-5.37257e-09
8.23706e-09
2.10256e-09
7.91119e-09
9.62098e-09
-1.33131e-08
2.76039e-09
9.31759e-10
1.09417e-08
-1.82195e-08
1.68988e-08
2.26932e-08
-5.20297e-09
-6.54848e-09
7.07352e-09
7.94113e-09
-6.53835e-09
-8.47634e-09
1.85223e-08
-1.21109e-08
6.62063e-10
-2.33352e-08
1.4802e-08
3.86492e-09
4.66821e-09
2.83027e-09
-1.82243e-08
-9.48767e-09
6.07021e-09
-4.27844e-09
-2.83614e-08
2.0226e-08
6.83343e-09
1.30195e-09
-1.24924e-08
-1.0351e-08
-5.51797e-09
-4.50782e-09
-8.84485e-10
1.4089e-08
-8.69674e-09
1.39702e-08
-1.48384e-09
-1.90247e-08
-2.64853e-09
-2.19534e-08
8.41032e-09
1.74081e-08
-4.8989e-09
-1.42243e-08
6.11215e-09
-2.16336e-08
1.40376e-08
-1.12791e-08
3.71443e-09
4.67364e-09
-1.36838e-09
-7.01965e-09
-7.82702e-09
5.45743e-09
-2.35048e-09
4.72008e-09
-1.92654e-09
-4.22411e-09
-1.67636e-09
-5.24693e-09
-2.66637e-09
5.15408e-10
7.39787e-09
-3.17299e-09
1.95105e-09
-4.02496e-09
1.54938e-09
-6.39249e-09
1.67013e-09
7.32557e-09
1.35365e-09
-4.9648e-09
-8.51924e-09
-5.02507e-09
8.3381e-09
5.20621e-09
-3.63102e-09
-6.81478e-09
-4.49028e-09
8.83978e-09
-2.39844e-09
-6.57192e-09
2.93077e-09
8.83945e-10
-3.06024e-09
4.12224e-09
-6.68907e-09
5.62703e-09
1.36058e-09
-9.18636e-09
4.76555e-09
-5.93185e-09
1.3654e-09
8.68868e-09
3.15363e-10
-7.03526e-09
3.08101e-11
-6.91137e-09
-4.86836e-09
5.84783e-09
-6.46253e-09
-1.33496e-10
-3.12494e-09
-5.63432e-09
1.01247e-08
6.79978e-09
-1.45804e-08
9.13771e-09
3.32594e-09
4.1096e-10
-1.65367e-08
4.03954e-10
-4.52599e-10
-6.5619e-09
-6.94083e-11
-9.40153e-09
2.41031e-09
2.12285e-09
1.03496e-10
-6.69688e-09
1.30838e-10
-9.48453e-09
1.86472e-10
1.30982e-09
-7.46077e-09
-6.43705e-09
3.21301e-09
-2.40464e-09
1.16079e-09
-8.24071e-09
-7.79171e-09
-4.96638e-09
5.67724e-09
9.51656e-09
-7.16915e-09
-8.0246e-09
7.04516e-09
-1.74526e-09
3.77374e-10
7.28746e-09
-1.28379e-09
3.51288e-09
3.59695e-09
1.07357e-08
-1.46706e-09
-1.64147e-09
-4.06061e-09
8.65469e-10
6.58126e-09
-9.19892e-10
-6.52681e-09
6.70376e-09
-6.24296e-09
4.04689e-10
6.51982e-09
8.48085e-09
-1.22617e-08
-2.73893e-09
-4.57903e-09
9.6318e-09
5.07518e-09
-1.16654e-10
4.48216e-09
-1.28933e-08
7.12729e-09
-3.66344e-09
1.12379e-08
-3.97754e-09
-7.61701e-10
9.90784e-10
8.25176e-09
-5.53528e-09
6.94702e-09
2.8428e-10
1.83389e-09
2.18374e-09
6.48577e-09
-1.05034e-08
3.39202e-09
7.10986e-09
-8.66799e-09
-1.61121e-09
-4.73016e-09
-3.99857e-09
1.03399e-08
-5.21842e-09
-5.36798e-09
8.97518e-09
-1.38998e-09
-4.51128e-09
9.29327e-09
8.76021e-09
-7.96647e-09
-7.34991e-09
2.12238e-09
9.08133e-12
4.47005e-10
-6.87034e-10
6.42707e-09
5.05714e-10
-8.78747e-10
-5.61636e-09
1.76493e-09
1.80335e-10
-6.04047e-09
9.54805e-09
-7.50623e-09
-2.89663e-09
3.37593e-09
1.80282e-09
-7.31224e-09
2.13349e-09
2.1344e-09
2.80021e-09
-1.55865e-09
1.23099e-09
3.07871e-09
-2.5069e-09
-3.922e-10
2.20466e-09
-5.38435e-09
-4.1298e-09
-8.81368e-10
-3.39378e-09
-4.34704e-09
-5.1661e-09
-4.98404e-09
-7.1409e-09
-4.36706e-09
8.72529e-09
-5.66358e-09
-4.11925e-10
-8.47727e-09
-1.6104e-09
5.72058e-09
-7.49706e-09
-6.64381e-09
-9.8605e-09
4.97592e-09
7.58131e-09
1.54028e-09
1.34436e-09
-1.0466e-08
1.91231e-09
-2.66187e-09
2.81889e-09
-9.60373e-09
-3.23294e-11
-7.00931e-09
-1.90105e-09
-5.62835e-09
4.24234e-09
-4.79903e-09
1.28567e-10
5.5341e-09
7.92807e-09
-1.61419e-08
2.67973e-09
4.94432e-09
-4.04201e-09
4.63179e-09
5.51358e-09
-5.57884e-09
7.99331e-09
2.78902e-09
7.66887e-09
-7.10221e-09
-3.26015e-09
-5.77957e-09
8.30649e-09
-5.88527e-09
-9.52342e-09
2.01938e-09
2.24511e-09
-5.35041e-09
5.34115e-09
-3.81158e-09
3.82085e-09
-7.38589e-09
4.35037e-09
-2.31491e-09
-7.20365e-09
1.55278e-08
-3.0709e-10
-8.01703e-09
-5.07013e-09
-9.51941e-09
-6.07034e-09
3.16942e-09
8.24204e-09
2.99412e-10
-1.55854e-08
2.18573e-09
7.82087e-09
-1.02725e-08
-8.57312e-09
-2.5067e-09
8.6053e-09
-1.63711e-08
-1.34621e-08
3.50206e-09
8.21417e-09
1.83321e-08
-1.00339e-08
-1.60555e-08
8.25494e-09
1.13027e-08
1.02258e-08
-7.94927e-09
-2.75523e-09
8.71367e-09
-6.39453e-09
1.18942e-08
6.01701e-09
1.34347e-09
1.61252e-09
7.54179e-09
-1.04978e-08
2.41015e-09
7.14747e-09
1.94747e-09
5.51225e-09
-5.84718e-09
-4.94493e-10
4.5748e-09
-2.13286e-09
5.7365e-09
1.12071e-09
-2.06861e-09
8.48972e-09
6.83925e-09
-2.06293e-10
1.02561e-10
-4.90606e-10
-5.56023e-09
-8.44347e-10
8.38818e-10
-3.42421e-09
3.92902e-09
-1.34363e-09
-1.61403e-09
2.46745e-09
-1.45743e-11
2.44645e-09
8.46341e-10
3.32421e-10
-3.62516e-09
1.01907e-09
-1.86637e-10
1.58221e-09
-4.16007e-09
6.26555e-10
6.98671e-10
2.6038e-09
1.50377e-09
-4.68715e-09
3.51581e-09
4.84859e-09
4.42353e-10
-3.70871e-09
1.39177e-09
4.08344e-09
-1.07297e-09
4.64562e-09
-2.59865e-09
-9.73944e-10
-1.41035e-09
1.29325e-09
-9.558e-10
6.11762e-09
-4.17152e-09
-7.30924e-09
-1.48337e-09
6.38819e-09
2.40445e-09
5.12458e-09
-6.31623e-09
4.90529e-10
3.15065e-09
2.20295e-09
2.45043e-09
-4.16288e-09
3.47777e-09
-2.68518e-09
7.79811e-09
-6.02492e-09
1.25086e-09
-3.02407e-09
-1.17265e-09
2.58575e-09
6.38505e-09
7.42115e-09
-7.22491e-09
-6.22113e-09
5.81614e-10
5.66689e-09
-7.90693e-09
8.67502e-09
1.81765e-09
-4.94378e-09
-1.71229e-09
1.73204e-09
-6.23283e-09
5.08243e-09
8.59008e-09
7.15075e-09
-5.96425e-09
-9.77656e-09
-1.02937e-08
1.30484e-08
5.83537e-09
-1.47265e-09
-1.67032e-09
4.75299e-09
1.76506e-09
-4.78593e-09
1.22734e-09
-1.82618e-09
-6.62603e-09
-1.34821e-09
-3.65727e-09
-1.96951e-09
-4.29422e-09
4.9156e-09
3.66181e-09
-7.45749e-09
-7.2462e-09
-6.34767e-09
-2.49795e-09
-7.10063e-10
9.55567e-09
-1.37664e-09
-5.94794e-09
9.76875e-10
-1.00285e-08
-2.55749e-09
1.0088e-08
-1.04101e-08
-9.95017e-10
7.95668e-11
-7.13318e-09
1.9215e-09
5.1321e-09
-9.6912e-09
7.21328e-09
1.79774e-09
-1.01752e-08
-1.31373e-09
-5.83787e-09
5.02417e-10
6.32438e-09
-1.20895e-09
2.95534e-09
-8.07075e-09
5.28278e-09
9.53752e-09
-8.49592e-09
6.49421e-09
9.08345e-09
1.209e-09
-7.6817e-10
3.15128e-09
9.42907e-11
3.13091e-10
-9.27932e-09
-9.35281e-09
2.19588e-09
-2.37462e-11
-9.63301e-09
8.88857e-09
-7.5796e-10
-9.33902e-09
-1.01345e-08
-5.21381e-09
-6.35303e-09
3.98632e-09
7.58052e-09
-4.70079e-09
-5.43033e-10
3.0025e-11
7.16366e-09
-5.79581e-09
-6.06865e-09
-1.20527e-09
2.01592e-09
6.36603e-09
-9.62857e-09
2.05727e-09
5.22491e-09
-9.07816e-09
1.02193e-08
1.26921e-08
-3.4809e-09
7.98861e-09
-3.03961e-09
-1.45776e-08
-3.29688e-09
2.2073e-09
4.68687e-09
-5.02368e-09
-2.06227e-10
-1.25613e-08
3.72592e-09
1.0982e-08
7.29928e-10
-3.78883e-09
-7.92311e-09
-1.613e-09
2.34573e-09
1.02493e-08
1.33225e-08
-4.21249e-09
-8.38005e-09
9.72628e-10
1.07369e-08
-1.10994e-08
1.15771e-08
-8.98609e-09
8.50838e-09
-5.8825e-09
-9.42938e-09
5.66827e-09
5.46698e-09
-5.65444e-09
-5.48082e-09
-2.05637e-10
6.03347e-09
-1.59574e-10
5.70359e-09
-2.46519e-09
-7.02724e-09
5.53042e-09
-3.24493e-11
1.20952e-09
6.66666e-09
1.57814e-09
1.09716e-08
7.82064e-09
-1.49638e-09
-8.57268e-10
6.44264e-09
7.41149e-09
-8.77733e-09
-1.70515e-09
-1.83751e-09
-1.28223e-08
-9.95715e-09
9.23031e-09
3.5301e-09
-5.77365e-09
6.91722e-09
-4.98964e-10
3.98402e-09
4.50714e-11
-6.23212e-09
3.13726e-09
1.03661e-08
-7.27126e-09
1.85311e-09
-7.5972e-10
-1.80551e-09
-2.99299e-09
7.93581e-09
-1.83346e-09
3.59031e-09
-3.56235e-09
3.03424e-09
-3.4037e-09
-1.29454e-10
-1.43071e-09
-4.28287e-09
2.72062e-09
-3.82315e-09
5.59058e-10
-8.81168e-10
9.22694e-11
-6.19279e-09
2.6529e-09
-7.42991e-10
-1.61654e-09
4.4524e-09
1.68072e-08
6.19508e-09
9.72165e-09
1.78853e-08
-1.01075e-08
1.28836e-08
1.54451e-08
-2.40509e-09
-3.79019e-09
7.38318e-09
5.37861e-10
4.96261e-09
-4.36947e-09
1.29668e-08
-1.21411e-09
-8.5486e-09
1.39008e-08
-4.68605e-10
1.42047e-08
-2.9837e-09
-8.76126e-09
-2.45978e-09
-8.98222e-10
3.37194e-10
1.47656e-08
-3.15894e-10
-7.09484e-09
3.82768e-11
7.37244e-09
-1.04664e-08
1.05486e-08
-3.98066e-10
2.41793e-09
-1.00914e-08
-2.79297e-09
-4.80331e-09
1.26376e-10
1.5135e-08
-1.18521e-08
-6.26672e-09
1.4749e-08
-5.12275e-10
-7.54844e-09
7.9239e-09
-4.3222e-09
6.33586e-10
-6.40282e-09
7.20791e-09
-3.17601e-09
-8.35411e-09
2.4692e-09
-6.46076e-11
5.27976e-09
-8.91545e-09
-5.12557e-09
2.00522e-10
-4.4456e-09
-7.76628e-09
1.28454e-08
1.97989e-09
-1.40714e-08
-1.43178e-08
1.66103e-08
-8.16502e-09
-2.98653e-08
2.14201e-08
8.62803e-09
-5.91947e-09
1.39017e-08
3.23012e-08
-9.37978e-09
-8.71356e-09
-1.42079e-08
-5.57832e-09
1.70378e-08
2.08416e-08
1.22364e-08
5.65076e-09
-2.60521e-08
1.12341e-08
1.10872e-08
-2.78998e-08
2.13194e-08
-1.671e-08
-1.39892e-08
8.20482e-09
3.01524e-08
-4.14028e-09
-3.33313e-10
8.87171e-09
-1.58219e-08
1.2601e-08
2.01935e-08
-2.69383e-09
3.39407e-09
-5.18092e-09
9.99166e-09
-9.38512e-09
-8.76049e-09
2.15397e-08
1.33022e-08
-1.96246e-08
1.14149e-09
-1.04505e-08
1.43677e-08
-9.7713e-09
1.22449e-08
5.61559e-09
-7.52231e-09
-1.77178e-08
-6.85948e-09
2.02458e-09
3.56277e-09
9.93915e-09
-7.3511e-09
5.64187e-09
-8.22974e-09
1.13514e-08
-3.73705e-09
2.32488e-09
1.97599e-09
7.02246e-09
-1.63495e-08
7.18508e-09
8.8117e-09
-1.40207e-08
1.49535e-08
-2.12654e-09
2.29447e-09
5.97677e-09
6.68232e-09
4.77536e-09
8.8705e-09
6.78858e-09
-3.50316e-09
3.95423e-10
1.71613e-08
-9.40623e-09
-8.15037e-09
1.2347e-08
-5.16298e-09
-1.88268e-09
8.4741e-09
1.05699e-08
5.28098e-09
5.18334e-09
1.13151e-08
-1.19096e-08
-8.31853e-10
-6.33674e-09
1.56427e-08
9.22449e-09
1.09551e-08
-1.76116e-08
-8.22025e-09
1.18111e-08
3.71794e-09
-1.68433e-08
-4.48618e-09
-1.16408e-08
-9.90673e-10
8.3361e-09
-1.15216e-08
-1.36578e-08
-3.09579e-10
4.25382e-10
-1.13154e-08
8.22645e-09
1.19351e-08
-8.84614e-09
-1.86473e-08
6.51283e-09
8.19217e-10
-7.53378e-09
2.44185e-09
-6.54871e-09
-2.75339e-09
-1.6302e-08
9.8354e-09
-5.89701e-09
-1.61947e-08
1.22563e-08
8.79719e-09
7.28625e-10
-7.35138e-09
1.34513e-08
6.80537e-09
-5.35953e-09
-6.86267e-09
-6.03579e-09
-5.74882e-09
-5.28208e-09
-4.67493e-09
1.2399e-08
4.85477e-09
-1.35051e-08
-7.28995e-09
8.53015e-09
-7.54302e-09
-8.00174e-09
1.7333e-08
-1.14646e-09
-7.65631e-09
-1.39408e-08
-6.28317e-09
1.2681e-08
1.4474e-08
1.36473e-09
-1.8935e-09
-1.39451e-08
8.54102e-09
7.9045e-09
-1.97152e-09
-1.08469e-08
6.9915e-09
-2.01759e-09
5.87304e-09
1.83188e-08
-1.47627e-08
-1.44029e-08
1.86281e-08
6.68222e-09
-9.94787e-09
1.38071e-08
4.68184e-09
1.13944e-09
-9.72256e-09
-1.3663e-08
7.62672e-09
-3.43207e-10
-1.52132e-08
-1.4927e-08
4.90778e-09
8.71487e-10
-1.61416e-08
-1.27517e-08
1.48552e-09
-2.05767e-08
5.79932e-09
1.32919e-08
-1.50984e-08
4.90015e-09
1.16838e-08
-1.72004e-09
-1.87999e-09
-1.69767e-08
-3.1767e-09
-1.36417e-08
-1.20007e-08
1.25357e-08
5.26424e-09
-2.11764e-09
-1.1763e-08
9.1824e-10
1.48385e-09
-1.09128e-08
8.51067e-09
-1.15004e-08
1.0301e-08
-8.55727e-09
1.17874e-08
1.67005e-09
-9.89319e-09
1.51007e-08
7.05148e-09
-1.2259e-08
1.42554e-09
2.39287e-09
-1.37116e-08
9.4586e-09
-1.11515e-08
2.32687e-09
9.04402e-09
-1.50459e-08
-1.84759e-08
-4.52535e-09
-8.87828e-10
-3.15643e-09
1.06097e-08
-1.01427e-08
2.68938e-09
6.13789e-09
-1.30143e-08
3.72002e-09
-2.4746e-09
8.33156e-09
-1.1193e-08
-1.40816e-08
1.69431e-08
-2.0351e-08
1.1443e-08
2.03088e-09
-2.55458e-10
3.77661e-09
1.62891e-08
2.62753e-09
1.43419e-08
6.33347e-09
1.7087e-08
3.76439e-10
-1.41339e-08
-3.32953e-09
1.89198e-09
1.50118e-08
1.83241e-10
2.96342e-09
-1.61426e-08
1.50711e-08
-3.50034e-09
1.80602e-08
1.72921e-09
1.18218e-08
-9.80186e-10
-3.75561e-09
1.43341e-08
4.43326e-09
-1.41397e-08
9.73251e-09
6.51598e-10
-2.38494e-09
-1.13783e-08
-1.83614e-09
1.47049e-08
1.46535e-09
8.88519e-09
-9.88824e-10
-1.1311e-08
1.16864e-08
-1.00543e-08
1.19807e-08
5.90017e-09
-7.82662e-09
6.3771e-09
-1.61415e-08
-2.89866e-10
5.95808e-09
-2.32252e-09
8.34523e-09
-6.41705e-09
4.0508e-09
8.32435e-09
-2.06429e-08
7.9439e-09
1.03765e-08
-9.18398e-10
-1.33474e-08
-5.99337e-11
-4.56933e-10
-1.59141e-08
5.28274e-09
1.85753e-08
-5.50748e-09
-1.1325e-08
-5.91715e-10
-9.51857e-09
1.41611e-08
-1.07094e-08
1.54004e-08
7.375e-09
-6.31649e-10
-6.80326e-09
1.52093e-09
-9.7609e-09
-2.46937e-09
-6.22646e-10
-1.06621e-08
-4.60626e-09
1.29342e-08
-2.26796e-09
1.30347e-09
-1.19698e-08
4.29726e-09
6.69462e-09
1.94229e-09
7.17813e-09
-1.19064e-09
-8.25536e-09
7.85663e-09
-1.90122e-09
1.22267e-09
6.78854e-09
5.36532e-09
1.2096e-08
-1.56804e-09
8.85488e-09
9.93577e-09
6.47075e-09
4.17473e-10
-8.07882e-09
4.72242e-09
-1.52854e-10
-2.13069e-09
-9.93508e-09
7.10726e-09
-8.82046e-09
1.70774e-09
-4.47658e-10
6.54867e-11
6.72074e-09
1.74097e-09
5.11308e-09
5.82614e-09
6.04042e-10
7.36083e-09
-3.8885e-09
1.3719e-08
1.35238e-10
8.79555e-09
-3.80413e-09
-1.01659e-08
-7.28448e-09
-5.77651e-10
1.8028e-08
-8.36485e-09
-9.73368e-09
7.93263e-09
-4.12098e-09
7.83565e-09
5.49319e-09
1.23312e-09
2.29857e-09
-3.23669e-09
1.95265e-10
1.29538e-08
-9.85272e-09
8.74728e-09
8.59651e-09
-7.49105e-09
1.01099e-09
-1.13439e-08
4.80193e-10
-9.96009e-09
1.07285e-08
6.65865e-09
-7.42706e-09
1.85516e-09
-8.95834e-09
-2.85686e-09
-8.16314e-10
1.12056e-08
-8.53415e-09
8.24631e-09
-1.75741e-09
-7.3052e-09
-2.76176e-09
1.05728e-08
3.39457e-09
5.51523e-09
-3.06735e-11
-6.23604e-09
8.76558e-10
-1.4465e-09
6.806e-09
-9.52376e-10
2.31565e-10
-9.75034e-09
-9.962e-10
1.16231e-08
-1.01103e-08
-5.92412e-10
9.5262e-09
2.15512e-09
-2.93405e-09
-1.17068e-09
9.70069e-09
8.64112e-09
-9.38754e-09
1.31799e-09
1.04443e-08
6.85954e-10
-8.83031e-09
-1.01009e-08
2.80978e-09
1.61214e-08
-3.96691e-09
-1.43576e-08
9.49421e-09
1.49176e-08
-6.75282e-09
-8.0948e-09
-6.9988e-11
5.45172e-09
5.49898e-09
-3.79496e-11
-7.31147e-09
-2.7515e-09
-9.80462e-09
-4.59098e-09
-2.35986e-10
1.17827e-08
-3.61557e-09
-7.93115e-09
9.88844e-09
-3.44746e-09
-6.67698e-09
6.10181e-09
6.16811e-09
-6.8182e-09
-5.69801e-09
-1.08595e-08
-2.77401e-09
8.10085e-09
4.56154e-09
1.69715e-09
8.93498e-10
-1.02071e-08
5.47656e-09
-7.07646e-09
7.70174e-09
-7.9159e-09
1.62023e-08
-5.22965e-09
-8.57312e-09
1.03553e-08
-1.04295e-08
6.09333e-09
5.50347e-09
-5.31852e-09
-7.36283e-09
-1.94206e-09
1.15534e-08
-2.24858e-09
-4.51649e-09
1.27378e-09
-4.12014e-09
-2.13191e-09
4.08033e-09
-9.00767e-09
7.05925e-09
-2.25542e-09
-8.80916e-09
9.12252e-09
-1.24514e-08
8.06403e-09
-5.07081e-09
-5.67708e-10
-6.81285e-09
7.29188e-09
-5.8271e-09
-6.5356e-09
-1.24719e-09
-2.70116e-10
-4.71634e-09
-1.04732e-09
2.69853e-09
-1.00371e-08
1.51146e-09
2.25021e-09
1.1051e-08
-4.41602e-09
-1.42995e-09
-2.86506e-09
6.54522e-09
-3.44776e-09
-5.35172e-09
3.6334e-09
4.11812e-09
-2.39986e-09
-5.07653e-10
-6.3878e-09
1.54372e-09
1.27549e-10
3.14187e-09
-3.77708e-09
2.52201e-09
3.26565e-10
-2.72098e-09
7.74354e-10
3.61999e-09
-7.60958e-10
-3.38609e-09
3.72575e-09
4.347e-10
-1.71621e-09
1.47203e-09
9.5594e-10
-1.50112e-10
-2.26565e-11
1.11574e-10
3.53106e-09
3.57815e-11
3.66732e-09
5.31733e-09
-3.45657e-11
-4.51336e-09
-7.69428e-10
4.11891e-09
5.50359e-09
-4.30523e-09
-3.17725e-10
4.15804e-09
-3.87487e-09
2.77605e-09
-2.7672e-09
-1.21516e-09
4.18172e-09
1.19151e-09
1.70718e-09
-1.46233e-10
3.37518e-10
-3.15884e-10
-2.68628e-09
3.05958e-09
3.91463e-09
-2.31653e-11
2.17427e-09
9.54593e-09
4.48212e-09
9.72284e-09
-8.26894e-09
-4.36407e-09
2.91017e-09
5.61443e-09
3.71717e-09
3.91244e-10
-6.6889e-10
-4.95921e-09
-2.64082e-09
1.27755e-08
-4.51801e-09
-8.92639e-09
-1.7058e-08
1.16371e-08
7.5952e-09
-1.0348e-08
-1.20654e-09
3.57888e-09
1.18581e-08
-5.89107e-09
6.42598e-10
1.00202e-08
2.11279e-09
7.5517e-09
-1.11467e-08
-9.23029e-10
6.31242e-09
1.27368e-08
-7.41205e-09
2.62184e-09
1.03233e-08
-5.81085e-09
-7.13428e-09
1.25131e-08
-1.31967e-08
7.50582e-09
1.32426e-08
-5.24671e-09
-6.01435e-09
5.02767e-09
6.23337e-09
-8.38386e-09
1.38612e-09
1.751e-09
3.35407e-09
-6.84271e-09
-2.30187e-09
-3.58411e-10
-8.41625e-09
6.37092e-09
3.43141e-09
-1.66691e-09
-6.23175e-09
-5.17628e-10
-6.64512e-10
2.853e-09
-3.75382e-09
7.2717e-09
-2.64318e-09
1.05238e-08
5.62522e-09
1.09636e-09
-5.41385e-09
-5.71161e-09
8.48225e-09
-2.24483e-09
-8.11694e-09
3.89313e-09
-5.69791e-10
2.63699e-09
-8.63564e-09
7.29558e-09
-8.22833e-09
2.02908e-09
1.55541e-09
-2.37678e-09
-2.63074e-10
-1.0617e-08
-3.13569e-09
1.15132e-08
2.23944e-09
1.01205e-08
2.73758e-09
-1.26197e-08
-2.38474e-10
-1.01609e-08
9.66442e-09
3.31379e-09
7.6546e-09
-8.23082e-09
1.50237e-09
-1.02979e-08
5.65973e-09
-8.10393e-09
6.63945e-09
2.96685e-09
-1.12083e-08
3.85272e-09
2.44006e-09
4.91552e-09
3.95704e-09
-6.02652e-09
-9.13884e-09
-4.20382e-09
-5.32886e-09
1.34897e-08
-7.6085e-09
1.59816e-09
-4.15069e-09
-5.96127e-09
-1.42669e-08
-8.91863e-09
4.66742e-09
-1.53241e-09
-8.63264e-09
4.66277e-09
-1.22217e-08
-5.22001e-09
-3.47974e-09
-9.47589e-09
-7.99683e-09
9.25397e-09
-1.4782e-08
2.83212e-09
-2.28661e-08
-9.65664e-10
-1.19453e-08
1.74212e-10
-1.04163e-08
-7.65838e-10
-1.07772e-08
-7.52229e-09
3.18e-09
-4.54503e-09
4.95604e-09
-7.93282e-09
-7.43948e-09
-3.80923e-09
-1.58779e-08
-3.38544e-09
7.27774e-10
-7.97011e-09
1.06278e-08
4.35235e-09
1.43498e-08
-1.41609e-08
-4.54126e-09
-8.99842e-09
1.23672e-08
9.83642e-10
1.09745e-08
7.90157e-09
-1.17904e-08
-7.08572e-09
-1.40931e-09
-2.62471e-09
-3.13315e-09
2.01077e-08
1.40729e-08
-4.33047e-09
-2.14045e-09
-4.1188e-09
-1.83586e-08
5.47781e-09
-6.49309e-10
1.35302e-08
-2.92629e-09
-6.31353e-09
-9.11875e-09
-1.37737e-08
1.61183e-08
-7.66357e-09
-9.0363e-09
8.27219e-09
-1.19606e-08
3.03915e-09
8.48702e-09
-1.73481e-09
3.00368e-09
-9.756e-09
-7.49026e-10
1.01929e-08
-9.56825e-10
-6.49644e-09
3.01367e-09
-2.7542e-09
6.23694e-09
-6.43266e-09
3.49526e-09
-3.55906e-09
5.70928e-09
6.88892e-10
-8.133e-09
-1.47241e-09
-5.75844e-09
6.18791e-10
8.1533e-09
-2.15485e-09
-1.08309e-10
-2.29523e-10
7.66812e-09
-4.37824e-09
2.50186e-09
-2.78504e-10
-1.00323e-08
2.36566e-09
7.43694e-09
6.80851e-10
-7.70945e-09
9.47633e-09
-1.39561e-09
-7.39989e-09
8.52732e-09
-1.78667e-09
2.73558e-09
1.65275e-09
-5.3421e-09
-2.39988e-09
8.78812e-09
-5.76946e-09
8.49309e-09
-7.33742e-09
5.71931e-10
4.9788e-09
-7.08031e-09
7.49887e-09
2.0706e-08
-1.92231e-08
-8.98178e-09
1.92895e-08
-1.00557e-08
-1.73495e-09
-3.68591e-09
-1.22338e-08
1.47605e-08
1.15931e-09
6.72771e-09
-1.8786e-09
-8.53507e-09
-5.01539e-10
1.09929e-08
8.79818e-09
1.11277e-08
9.07682e-09
7.5036e-09
-1.04139e-08
-7.14539e-09
1.34867e-08
-4.80328e-09
-2.09171e-08
-4.99567e-09
1.05664e-08
9.18974e-09
1.1594e-09
5.72657e-10
8.70198e-09
-3.89595e-11
7.27564e-09
1.24193e-08
-9.02844e-09
-5.22414e-09
-4.97037e-09
-6.81505e-09
-9.16788e-09
1.10819e-08
-7.13802e-09
-5.5068e-09
-9.10273e-10
1.36928e-08
-6.0051e-09
1.16261e-08
1.55293e-08
-7.48778e-09
5.4452e-09
6.48462e-09
1.9611e-08
-2.20413e-09
7.77856e-09
-1.69357e-08
8.72663e-09
6.23012e-09
-7.50976e-10
3.76398e-10
1.52789e-08
-1.21637e-08
2.75341e-09
-5.86861e-09
4.66987e-09
9.20226e-09
1.40675e-09
-1.02554e-08
3.89724e-09
9.57406e-10
5.40081e-09
-2.38815e-09
-2.82683e-09
-5.04044e-09
8.11956e-09
-1.64066e-08
3.23457e-09
-7.9447e-09
2.70424e-09
7.97348e-09
-1.04116e-08
6.41997e-09
7.88892e-09
-6.80875e-09
-5.99103e-09
1.13383e-08
-6.49434e-09
-7.67081e-09
6.71274e-09
5.58299e-09
-6.31947e-09
-3.34103e-09
1.36989e-08
-4.66856e-09
-5.68932e-09
7.74883e-09
1.06639e-08
-1.32927e-09
-3.21118e-09
-6.12336e-09
-8.68e-10
5.22876e-09
6.30309e-09
-1.32577e-08
5.65293e-09
6.73678e-09
-5.32609e-09
-9.2609e-09
-7.41957e-09
4.54028e-09
8.10807e-09
-1.25947e-09
-6.5621e-09
4.02026e-10
-6.64132e-09
6.33096e-10
1.43326e-08
7.35684e-09
-6.10613e-09
6.10657e-09
-5.77369e-09
5.77328e-09
-7.60939e-09
2.43808e-10
-4.03137e-09
-5.74187e-09
3.54133e-10
-1.35068e-08
1.128e-08
-6.36315e-09
1.32554e-10
-6.4779e-09
-7.49463e-09
-1.01551e-08
5.00692e-09
1.80785e-09
-4.36485e-10
-1.44746e-08
5.12396e-09
-6.15758e-09
1.55083e-08
4.4728e-09
5.75765e-09
2.2916e-09
-1.24434e-09
5.69044e-09
5.0742e-09
-7.43517e-09
6.57132e-10
1.19021e-08
-6.70765e-10
3.95112e-09
8.77111e-09
5.90412e-09
-1.45074e-10
-2.84304e-09
9.19069e-09
2.62238e-09
1.40663e-09
4.74228e-09
5.68348e-09
6.18899e-09
-1.21746e-08
1.0877e-08
-2.76521e-09
4.06272e-09
-9.25161e-09
-5.77332e-09
6.18253e-09
8.84242e-09
-1.41345e-08
3.06063e-09
1.8223e-09
-2.16744e-09
2.55569e-09
-1.47045e-08
1.43161e-08
1.30702e-09
-1.56492e-08
-5.09707e-09
1.83955e-09
1.60395e-08
4.92303e-09
-1.96555e-08
1.3136e-08
-2.19351e-09
4.45917e-09
-1.94987e-08
1.99626e-08
-3.87372e-10
-7.17066e-11
1.35951e-08
-8.34943e-09
-1.18678e-08
8.04955e-09
1.21678e-08
-2.47798e-08
-1.06951e-09
1.74999e-08
-2.62627e-08
1.34706e-08
9.24485e-10
1.38254e-09
-2.31861e-08
1.56816e-09
-1.50145e-08
7.67296e-09
1.64369e-08
-7.92285e-09
-2.33144e-09
2.79701e-09
2.72324e-09
-5.29279e-09
-2.27448e-10
-1.29912e-09
4.07395e-09
2.21816e-11
3.04587e-09
-4.22846e-09
-1.16532e-10
8.24201e-09
-7.58753e-09
-5.15729e-10
-1.38782e-10
1.20946e-09
6.74179e-09
1.56814e-10
8.17629e-09
-7.29713e-09
3.30298e-10
-7.42252e-09
6.82525e-09
7.3391e-09
6.68817e-10
-6.50844e-09
5.79237e-09
4.72383e-11
-5.32531e-09
6.03029e-09
-3.61579e-11
-6.70206e-09
1.38996e-09
-1.32503e-11
2.89621e-09
4.86157e-09
-6.82195e-09
-9.3581e-10
7.25774e-09
-4.18344e-09
-1.78084e-10
6.72805e-09
-4.84968e-10
-1.38154e-09
-3.84692e-10
-7.17687e-09
7.25714e-09
3.04422e-10
-7.43024e-09
7.01635e-09
2.92189e-11
-7.84864e-09
7.93731e-11
3.04306e-09
-4.73869e-09
2.00153e-09
-3.05841e-10
-1.8853e-09
4.95784e-09
-2.94824e-11
-2.04873e-09
4.27578e-09
-2.03435e-09
-1.92652e-10
1.81498e-09
-3.15793e-10
-2.35324e-09
4.4223e-09
-2.54075e-10
-4.55364e-09
2.63644e-09
-4.36065e-10
3.81585e-09
-6.51137e-09
2.9233e-09
-2.27811e-10
-4.11967e-09
7.81354e-09
1.21945e-10
2.22243e-09
-5.90184e-09
-4.40264e-10
-5.72893e-09
8.14806e-09
-1.96701e-10
8.66925e-09
1.72078e-09
-1.06565e-08
2.66515e-10
-1.04201e-09
-7.09656e-09
1.63277e-10
1.0496e-10
4.21449e-09
-1.13329e-08
2.18775e-11
-1.19822e-09
-5.94145e-09
7.19941e-09
-5.97805e-11
6.92221e-09
-8.14325e-09
2.28165e-11
4.25107e-09
-1.0017e-08
-1.75504e-10
-1.64022e-09
8.3101e-09
-6.7352e-09
6.53045e-11
5.70963e-09
-7.38176e-09
3.18971e-11
1.03586e-08
-4.89339e-09
2.44441e-10
-5.39782e-10
-6.19886e-09
6.91273e-09
-1.74102e-10
6.77844e-09
-7.331e-09
1.27418e-11
-2.96765e-10
6.82872e-09
2.46464e-10
1.72475e-09
-3.28778e-09
-2.18178e-10
-1.39224e-09
-6.70498e-11
2.07221e-11
-7.19884e-09
7.34796e-09
-1.69856e-10
-7.8129e-09
7.77166e-09
6.19458e-11
-7.28823e-09
-6.40297e-11
1.5342e-10
3.51402e-09
-4.05523e-09
1.09026e-09
-5.48979e-10
-9.58026e-10
4.50113e-09
-2.90471e-11
3.28215e-09
-4.12974e-09
-1.10367e-10
6.15256e-10
-2.63727e-09
2.26931e-09
-2.47167e-10
1.25622e-09
9.18885e-10
-2.05057e-09
-1.24499e-10
1.93218e-09
-6.0711e-11
2.18455e-09
-1.15557e-09
-1.10071e-10
7.30744e-10
5.27243e-09
-6.18071e-09
1.7753e-10
-5.4349e-09
6.20271e-09
-3.70597e-11
-2.32488e-10
8.47702e-09
-8.38681e-09
1.42293e-10
8.16371e-09
-8.34106e-09
-5.51214e-11
2.38236e-09
1.18175e-09
-3.4539e-09
-1.102e-10
3.32064e-09
-9.16656e-10
-2.16253e-11
6.02672e-10
-7.26045e-09
6.57809e-09
7.96969e-11
-7.15293e-09
2.60986e-10
1.33171e-09
2.92958e-09
-4.0329e-09
-2.2853e-10
2.58271e-09
1.33135e-09
-3.69594e-09
-2.18169e-10
4.00989e-09
-9.54688e-11
4.52312e-09
-3.14407e-09
-4.76601e-11
3.98656e-09
4.11529e-09
-8.34973e-09
2.47869e-10
-4.30328e-09
7.76143e-09
5.28402e-10
8.13713e-09
-4.50072e-09
4.78878e-10
3.48233e-09
-8.06394e-09
5.13907e-09
-5.57459e-10
9.45183e-09
-5.84363e-09
-1.25877e-10