/*--------------------------------*- C++ -*----------------------------------*\
| =========                 |                                                 |
| \\      /  F ield         | OpenFOAM: The Open Source CFD Toolbox           |
|  \\    /   O peration     | Version:  v1612+                                |
|   \\  /    A nd           | Web:      www.OpenFOAM.com                      |
|    \\/     M anipulation  |                                                 |
\*---------------------------------------------------------------------------*/
FoamFile
{
    version     2.0;
    format      ascii;
    class       volVectorField;
    location    "150";
    object      wallShearStress;
}
// * * * * * * * * * * * * * * * * * * * * * * * * * * * * * * * * * * * * * //

dimensions      [0 2 -2 0 0 0 0];

internalField   uniform (0 0 0);

boundaryField
{
    WALL
    {
        type            calculated;
        value           nonuniform List<vector> 
1531
(
(-0.00550207 -0.0238585 0.0040133)
(-0.00765528 -0.0255099 0.00349143)
(-0.00435139 -0.0156155 -0.00457935)
(-0.00431874 -0.0168488 -0.0047305)
(-0.00906753 -0.0277415 -0.00348662)
(-0.0085076 -0.0296222 -0.00418472)
(-0.00592905 -0.0267798 0.00455016)
(-0.0076244 -0.0283726 0.00505927)
(-0.00624896 -0.00986824 -0.00292287)
(-0.00585078 -0.00884768 -0.002773)
(-0.00632517 -0.0232561 0.00308446)
(-0.00705208 -0.0240115 0.00267607)
(-0.0101152 -0.0263476 0.00254085)
(-0.0104035 -0.0280074 0.00293448)
(-0.00898947 -0.0272854 0.00348651)
(-0.00910684 -0.0260988 0.00341096)
(-0.0096905 -0.0263802 0.00298249)
(-0.00919204 -0.0262358 0.00322175)
(-0.00623504 -0.02102 -0.00237281)
(-0.00574054 -0.0194016 -0.00178499)
(-0.00712443 -0.0231312 -0.00277559)
(-0.00532328 -0.0206027 -0.00223549)
(-0.00707702 -0.0242837 -0.002532)
(-0.00506454 -0.0211334 -0.00280038)
(-0.0095019 -0.0249766 -0.00234318)
(-0.00963136 -0.0247644 -0.00215711)
(-0.0096321 -0.0260963 -0.0026105)
(-0.00967973 -0.0246974 -0.00218674)
(-0.00843575 -0.0233569 -0.00273356)
(-0.00871398 -0.0242716 -0.00251545)
(-0.0112426 -0.027052 0.00185182)
(-0.0115514 -0.0273487 0.000316734)
(-0.0111468 -0.0261577 0.00087386)
(-0.0112997 -0.0261962 0.000394239)
(-0.0110971 -0.0268208 0.00221099)
(-0.0114699 -0.0269553 0.00169703)
(-0.00567185 -0.0267529 0.00431749)
(-0.00550913 -0.0260049 0.00400854)
(-0.00615202 -0.0265267 0.00440849)
(-0.00763139 -0.0279679 0.00417905)
(-0.00527267 -0.0263829 0.00381972)
(-0.00489314 -0.0267298 0.00375482)
(-0.00543197 -0.0120689 -0.00648236)
(-0.0052529 -0.0122729 -0.00633822)
(-0.00479554 -0.0135654 -0.00661651)
(-0.00456282 -0.0118 -0.00662497)
(-0.00469344 -0.0139103 -0.00670633)
(-0.00476433 -0.0129674 -0.00680237)
(-0.00333703 -0.018912 -0.00315966)
(-0.00376027 -0.0192796 -0.00356937)
(-0.0029367 -0.0196503 -0.00258729)
(-0.00304921 -0.019197 -0.00289342)
(-0.00307592 -0.0202994 -0.00286258)
(-0.00323578 -0.0193884 -0.00316422)
(-0.000178675 -0.0223497 -0.00644306)
(7.76779e-05 -0.0212973 -0.00767234)
(0.000409015 -0.0222785 -0.00571786)
(-0.00590255 -0.00633882 -0.00274265)
(-0.00540005 -0.00599506 -0.0021222)
(-0.00558013 -0.00615503 -0.0024147)
(-0.00588492 -0.00667996 -0.00294002)
(-0.00586271 -0.00610813 -0.00241885)
(-0.0057012 -0.0066005 -0.00281909)
(-0.00586937 -0.0241919 -0.00283608)
(-0.00671978 -0.0259906 -0.00321511)
(-0.00743738 -0.0263 -0.00355465)
(-0.00526302 -0.00930609 -0.00563516)
(-0.00506824 -0.00833664 -0.00510036)
(-0.00498479 -0.0106426 -0.0071895)
(-0.0051743 -0.00867521 -0.00570884)
(-0.00502213 -0.00953236 -0.00638137)
(-0.00507616 -0.0104533 -0.00638411)
(-0.0054119 -0.00576772 -0.00136131)
(-0.00575058 -0.00610318 -0.00151167)
(-0.00537456 -0.00616812 -0.000817229)
(-0.0056435 -0.00641973 -0.000899672)
(-0.00530582 -0.00602396 -0.000972482)
(-0.00580668 -0.00613722 -0.0012382)
(-0.0055126 -0.00686638 -0.00345661)
(-0.00521627 -0.00743119 -0.00415303)
(-0.00552288 -0.00709294 -0.00347556)
(-0.00529059 -0.00732426 -0.00394992)
(-0.00520673 -0.00762924 -0.00430866)
(-0.00568054 -0.00747258 -0.00384417)
(-0.00279148 -0.0261444 0.00377782)
(-0.00244853 -0.0267132 0.00289882)
(-0.00317652 -0.0250901 0.00352562)
(-0.00119897 -0.0254493 0.0027562)
(-0.00328471 -0.0275453 0.00289278)
(-0.00520778 -0.0277388 0.0050431)
(-0.00412274 -0.0266643 0.00466671)
(-0.00392651 -0.0249438 0.00528143)
(-0.00362505 -0.0260548 0.00476297)
(-0.00487691 -0.0257347 0.00549028)
(-0.00539494 -0.0262312 0.00516438)
(-0.000499015 -0.0262774 -0.000821486)
(-0.000909613 -0.0275806 -0.000169992)
(-4.42307e-05 -0.0266858 -0.00174374)
(-0.000386555 -0.0261817 -0.00122747)
(-0.00110756 -0.0263047 0.000485491)
(-0.000418817 -0.0255674 0.000131636)
(-0.00363069 -0.0141345 -0.00860839)
(-0.00426701 -0.0128505 -0.00808572)
(-0.00447769 -0.0127469 -0.00834166)
(-0.00326051 -0.0152426 -0.00859067)
(-0.00353042 -0.015256 -0.00904817)
(-0.00389837 -0.0137103 -0.00869874)
(-0.00207665 -0.0182201 -0.00873143)
(-0.00229793 -0.0181806 -0.00800913)
(-0.00297845 -0.0179851 -0.00825958)
(-0.00309899 -0.0156846 -0.00843839)
(-0.0024322 -0.0164437 -0.00876646)
(-0.00316936 -0.0159814 -0.00829933)
(-0.00725606 -0.0234427 0.00239442)
(-0.0069853 -0.0225283 0.00201017)
(-0.00652824 -0.0231261 0.00182509)
(-0.00670252 -0.023493 0.0021623)
(-0.0075928 -0.024577 0.00205505)
(-0.00753982 -0.0230918 0.00199415)
(-0.00910726 -0.0227751 0.000880696)
(-0.00933299 -0.022821 0.000414773)
(-0.00950332 -0.0239965 0.000747831)
(-0.00199314 -0.0208224 -0.00486886)
(-0.00172015 -0.022008 -0.00442182)
(-0.00161909 -0.0214784 -0.00397223)
(-0.00226146 -0.0207085 -0.00500899)
(-0.00195564 -0.0211748 -0.00444239)
(-0.00246895 -0.0206883 -0.00532293)
(-0.00213691 -0.0237016 -0.000931308)
(-0.00218257 -0.022616 -0.000573543)
(-0.00236843 -0.0237082 0.000716288)
(-0.00246454 -0.0240915 0.000411985)
(-0.00182239 -0.0238169 -0.00018717)
(-0.00229541 -0.0233613 -6.08182e-05)
(-0.00343948 -0.0235334 0.00154718)
(-0.00367839 -0.0236067 0.00219717)
(-0.00280233 -0.022788 0.00107958)
(-0.00261705 -0.0234783 0.000924058)
(-0.00318264 -0.0238675 0.00151466)
(-0.00329155 -0.0247747 0.00199497)
(-0.00288279 -0.0206255 -0.000569018)
(-0.00329764 -0.0220294 -0.000747358)
(-0.00322081 -0.0212387 -0.00031039)
(-0.00402922 -0.023175 0.00141577)
(-0.00435699 -0.023102 0.00146413)
(-0.00447169 -0.0236862 0.00219405)
(-0.00459272 -0.0221261 0.00182129)
(-0.0028883 -0.0208517 0.00137923)
(-0.00500548 -0.0235429 0.00259252)
(-0.00679424 -0.0232838 0.00256264)
(-0.00611812 -0.0250673 0.00338068)
(-0.00527397 -0.0231694 0.00261422)
(-0.0062892 -0.0233363 0.00242488)
(-0.0052547 -0.0227424 0.00300219)
(-0.00537466 -0.00882367 -0.000566272)
(-0.00529685 -0.0090001 -0.000655203)
(-0.00299193 -0.019943 -0.00620389)
(-0.00371443 -0.0179692 -0.00603991)
(-0.00275659 -0.0175221 -0.00642813)
(-0.0036923 -0.0177229 -0.00639338)
(-0.00335846 -0.0184397 -0.00555539)
(-0.0028751 -0.0190622 -0.00538038)
(-0.00389435 -0.0169352 -0.00311702)
(-0.00432112 -0.0168568 -0.00297148)
(-0.00384076 -0.0165791 -0.00300686)
(-0.00461383 -0.0172611 -0.00305116)
(-0.00451274 -0.0164188 -0.00316097)
(-0.00435529 -0.016278 -0.00322159)
(-0.00501479 -0.0155238 -0.00385844)
(-0.00437482 -0.0153291 -0.00404073)
(-0.00498296 -0.0155045 -0.00373678)
(-0.00473052 -0.0169983 -0.00396016)
(-0.00480491 -0.0166695 -0.00336069)
(-0.00498407 -0.0164695 -0.00348231)
(-0.00342353 -0.0179734 -0.0032839)
(-0.00367324 -0.0184364 -0.00296842)
(-0.00332885 -0.0183148 -0.0026409)
(-0.00379319 -0.0180486 -0.00344427)
(-0.00367665 -0.0176312 -0.00324161)
(-0.00343113 -0.0187107 -0.00296706)
(-0.00489878 -0.0157223 -0.00339968)
(-0.00511198 -0.0151817 -0.00320452)
(-0.00526861 -0.0150106 -0.00320825)
(-0.00461033 -0.0156091 -0.00331938)
(-0.00448528 -0.0147597 -0.00572337)
(-0.00449708 -0.0148074 -0.00602153)
(-0.00523745 -0.014595 -0.00545432)
(-0.00493346 -0.0128751 -0.0051065)
(-0.00500907 -0.0132145 -0.00568696)
(-0.00489529 -0.0142417 -0.00580622)
(-0.00577479 -0.0118684 -0.00351573)
(-0.00587594 -0.0135577 -0.00339281)
(-0.00556917 -0.0122478 -0.00375845)
(-0.00575995 -0.0132876 -0.00418477)
(-0.00573144 -0.011614 -0.00311643)
(-0.00596013 -0.0126253 -0.00328699)
(-0.00375515 -0.0213692 0.000947994)
(-0.00282657 -0.0201381 0.000883604)
(-0.00299273 -0.0207356 0.000392324)
(-0.00339985 -0.0203636 0.000531066)
(-0.00379458 -0.0217878 0.00154748)
(-0.00375575 -0.0217681 0.00137283)
(-0.00487349 -0.0118195 9.03555e-05)
(-0.00494453 -0.0114969 0.000191263)
(-0.00492145 -0.0119324 3.2071e-05)
(-0.00488793 -0.0111566 0.00016548)
(-0.00466147 -0.0107965 0.000221844)
(-0.00488182 -0.0106082 0.000241483)
(-0.00656279 -0.0173946 -0.000881934)
(-0.00663046 -0.0178655 -0.000766117)
(-0.00589688 -0.0154721 -0.000264886)
(-0.00633734 -0.0166482 -0.000500259)
(-0.00555513 -0.0156047 -0.000939882)
(-0.00581193 -0.0158992 -0.000527053)
(-0.00545306 -0.0134237 -8.15683e-05)
(-0.00549955 -0.0144618 -0.000217443)
(-0.00581161 -0.0150821 -0.000423948)
(-0.0053721 -0.0139134 -0.00016765)
(-0.0060828 -0.0156616 -0.000212007)
(-0.00544981 -0.0138585 -0.000248861)
(-0.00479043 -0.0106796 0.000199465)
(-0.00478238 -0.00982461 0.000208395)
(-0.00483615 -0.0114572 4.3962e-05)
(-0.00495336 -0.0117118 0.000160693)
(-0.00476678 -0.0106598 0.000115362)
(-0.00471056 -0.00994147 0.000130027)
(-0.00504327 -0.00839645 -0.000300651)
(-0.00502616 -0.00888809 -0.000339892)
(-0.00527547 -0.00858082 -0.000637777)
(-0.00535163 -0.00875118 -0.000697681)
(-0.00529301 -0.00853607 -0.000514286)
(-0.00503828 -0.0087618 -0.000256946)
(-0.00626339 -0.0104023 -0.00309778)
(-0.00592286 -0.0100714 -0.00302141)
(-0.00552025 -0.00916626 -0.00211872)
(-0.005607 -0.00941039 -0.00240985)
(-0.00596836 -0.00935978 -0.0024583)
(-0.0054519 -0.00893124 -0.00160007)
(-0.005902 -0.00874467 -0.00185897)
(-0.00545143 -0.00901339 -0.00135236)
(-0.00627529 -0.00993792 -0.00201607)
(-0.00610586 -0.00876008 -0.00175823)
(-0.00617577 -0.00979883 -0.00223037)
(-0.0052028 -0.00805206 -0.000854447)
(-0.00533766 -0.00835632 -0.000987992)
(-0.00527355 -0.00826685 -0.000727869)
(-0.00535309 -0.0081657 -0.00103175)
(-0.00513158 -0.00815061 -0.000574211)
(-0.00519314 -0.00806231 -0.000595081)
(-0.00375756 -0.0150922 -0.00722996)
(-0.00372219 -0.0157854 -0.00756198)
(-0.00311516 -0.0169655 -0.00698388)
(-0.0032934 -0.0158639 -0.00718206)
(-0.0040754 -0.0151274 -0.00732718)
(-0.0032637 -0.0171672 -0.00764083)
(-0.00513249 -0.00852684 -0.00504198)
(-0.00567518 -0.0100596 -0.00583292)
(-0.0055783 -0.0103956 -0.00488948)
(-0.00565663 -0.00925348 -0.0045734)
(-0.00540512 -0.0081376 -0.0040822)
(-0.00556222 -0.00835895 -0.00442187)
(-0.00564026 -0.00950109 -0.00316872)
(-0.00582299 -0.0106492 -0.00397604)
(-0.00568003 -0.0110225 -0.00401926)
(-0.00606404 -0.0107673 -0.00347921)
(-0.00568128 -0.00979856 -0.00347171)
(-0.0056416 -0.0107188 -0.00371591)
(-0.00544712 -0.0116348 -0.00494084)
(-0.00561889 -0.0104599 -0.00455238)
(-0.00556534 -0.0109334 -0.00467164)
(-0.00528678 -0.0117672 -0.00496273)
(-0.00620403 -0.0122204 -0.00493518)
(-0.00537132 -0.00801922 -0.00232473)
(-0.00511427 -0.00727961 -0.00163791)
(-0.00511387 -0.00718757 -0.00183272)
(-0.00578431 -0.00802052 -0.00290535)
(-0.00533337 -0.00787393 -0.00180464)
(-0.00541062 -0.00766927 -0.0023302)
(-0.00547764 -0.00851871 -0.0036724)
(-0.00556006 -0.00801096 -0.00359672)
(-0.00555373 -0.00820245 -0.0030492)
(-0.00570388 -0.00862544 -0.00411658)
(-0.00522335 -0.00743864 -0.00286642)
(-0.00521165 -0.00737249 -0.00262716)
(-0.00478941 -0.00684388 -0.000970957)
(-0.00474174 -0.0069777 -0.000726525)
(-0.00504132 -0.00693091 -0.00122022)
(-0.00485174 -0.00704526 -0.00113049)
(-0.00469499 -0.00704241 -0.0006994)
(-0.00492539 -0.00694054 -0.000943554)
(-0.00466864 -0.0065058 -0.000869645)
(-0.00465778 -0.00679287 -0.000629605)
(-0.00465237 -0.00629944 -0.000889821)
(-0.00486507 -0.0063894 -0.00108779)
(-0.00451744 -0.00621466 -0.000740533)
(-0.00447048 -0.00649682 -0.00055897)
(-0.00491746 -0.00683279 -0.00138343)
(-0.00509036 -0.00679019 -0.00146964)
(-0.00524292 -0.007055 -0.00203754)
(-0.00488634 -0.00649014 -0.00176193)
(-0.00506652 -0.00711714 -0.00194315)
(-0.00519683 -0.00712081 -0.00168019)
(-0.00513538 -0.00778018 -0.000811169)
(-0.00467214 -0.00777243 -0.00037751)
(-0.00500939 -0.0076195 -0.000730648)
(-0.00464646 -0.00763012 -0.000354991)
(-0.00480801 -0.00746208 -0.000601971)
(-0.00485944 -0.0078923 -0.000441096)
(-0.00435897 -0.0174985 -0.000642103)
(-0.00464601 -0.0197345 -0.00100954)
(-0.00498913 -0.0186296 -0.000352882)
(-0.00480781 -0.0200028 -0.000817722)
(-0.00445904 -0.0209863 -0.00173579)
(-0.00525455 -0.0224815 -0.00136892)
(-0.00397324 -0.0161702 -0.000916888)
(-0.0043066 -0.0151537 -0.000388035)
(-0.00436832 -0.0168895 -0.000690971)
(-0.00440608 -0.0132908 0.000133997)
(-0.00399471 -0.0148624 -0.000345058)
(-0.00396388 -0.0127464 -0.000160134)
(-0.00145192 -0.0269859 0.000914167)
(-0.00241022 -0.0258873 0.00186725)
(-0.00260343 -0.0274286 0.00239157)
(-0.00225312 -0.0250674 0.00112107)
(-0.00296364 -0.0268205 0.00264578)
(-0.0022081 -0.0264039 0.00167859)
(-0.00289013 -0.0253798 0.00105778)
(-0.0025533 -0.0257206 0.000421034)
(-0.00182032 -0.0254493 0.000805355)
(-0.0025942 -0.0237932 -0.00174264)
(-0.00201463 -0.0229387 -0.00273935)
(-0.00161057 -0.0237548 -0.00234889)
(-0.00110373 -0.0231294 -0.00187601)
(-0.00138802 -0.0220621 -0.00318963)
(-0.00100388 -0.0251811 -0.000877824)
(-0.000656517 -0.0249694 -0.00233928)
(-0.0010721 -0.025494 -0.000444928)
(-0.000692221 -0.0248775 -0.00162601)
(-0.00133704 -0.0237074 -0.00186362)
(-0.000573419 -0.0240263 -0.001248)
(-0.00451678 -0.0263188 0.00397006)
(-0.00512085 -0.0271797 0.00444608)
(-0.00471085 -0.027459 0.0040409)
(-0.00355091 -0.0276087 0.00385023)
(-0.00530409 -0.0263346 0.0044687)
(-0.00407126 -0.0275237 0.00378132)
(-0.0061731 -0.0265791 0.00501168)
(-0.00609334 -0.0269227 0.00526781)
(-0.00729916 -0.0284923 0.00544244)
(-0.00727912 -0.0265521 0.00529543)
(-0.00696713 -0.0265411 0.00498058)
(-0.00712828 -0.0262026 0.00567869)
(-0.00991117 -0.027436 0.00380959)
(-0.0087058 -0.0283266 0.00455386)
(-0.00991728 -0.0280693 0.00416454)
(-0.00928507 -0.0282206 0.00429018)
(-0.00866573 -0.0275103 0.00472593)
(-0.00924426 -0.0275368 0.00467997)
(-0.00589753 -0.0272448 0.00379429)
(-0.00434444 -0.0253226 0.00292617)
(-0.0062451 -0.0249522 0.0033629)
(-0.00552996 -0.0245692 0.00307214)
(-0.00465986 -0.0249193 0.00356448)
(-0.00464084 -0.0250268 0.00304195)
(-0.00818027 -0.0260227 0.00436658)
(-0.0078557 -0.0266733 0.00379507)
(-0.00737236 -0.0260196 0.00469042)
(-0.00738677 -0.0274567 0.00376442)
(-0.00745396 -0.0267648 0.00418576)
(-0.00824493 -0.0265699 0.00410994)
(-0.010316 -0.0269606 0.00275438)
(-0.0106381 -0.0289525 0.00317492)
(-0.0106194 -0.0279761 0.00293706)
(-0.0106646 -0.0268871 0.00220391)
(-0.0114903 -0.0285445 0.00160913)
(-0.0118677 -0.0295155 0.00215799)
(-0.00924235 -0.0247642 0.00242138)
(-0.00826595 -0.0251017 0.00274024)
(-0.0080749 -0.0235082 0.00271407)
(-0.00931245 -0.026304 0.00240057)
(-0.00578368 -0.0236864 0.00367413)
(-0.00787225 -0.0245353 0.00275069)
(-0.00691074 -0.0251314 0.00377786)
(-0.00803485 -0.0261816 0.00266441)
(-0.0113329 -0.0287407 -0.00190883)
(-0.00956341 -0.0260982 -0.00333047)
(-0.0110516 -0.0275048 -0.00148323)
(-0.010231 -0.0279072 -0.00234918)
(-0.0110976 -0.0267414 -0.0013004)
(-0.0105741 -0.02701 -0.00218752)
(-0.00815956 -0.0249692 0.00249096)
(-0.00723428 -0.022814 0.00288241)
(-0.00800887 -0.0245104 0.00290577)
(-0.00808701 -0.0234377 0.00210649)
(-0.00711717 -0.0240535 0.00293952)
(-0.00614548 -0.023402 0.00270667)
(-0.00744644 -0.0211602 -0.00159088)
(-0.00637143 -0.0190788 -0.00182021)
(-0.00745083 -0.0205661 -0.00189087)
(-0.00723814 -0.0202991 -0.00180966)
(-0.00767495 -0.0211865 -0.00191274)
(-0.00654881 -0.0191473 -0.00162816)
(-0.00896199 -0.0221488 -0.00146212)
(-0.00953837 -0.0231468 -0.00111107)
(-0.0091901 -0.0214906 -0.00154494)
(-0.0093096 -0.0235895 0.00132672)
(-0.00949961 -0.0244285 0.00133825)
(-0.00920757 -0.024605 0.00160626)
(-0.00937805 -0.0234981 0.000969783)
(-0.00973468 -0.0235608 0.00055834)
(-0.00988413 -0.0247593 0.000802706)
(-0.00832228 -0.0208921 -0.00143711)
(-0.0075754 -0.0194028 -0.00165123)
(-0.00864449 -0.0210975 -0.0015743)
(-0.00790775 -0.0199962 -0.00160966)
(-0.00899266 -0.0225755 -0.00229267)
(-0.00891737 -0.0215735 -0.00143474)
(-0.0098145 -0.0237232 -0.000874636)
(-0.00979182 -0.0241602 -0.00122503)
(-0.00999942 -0.0238015 -0.00068958)
(-0.00936313 -0.0224749 -0.000353788)
(-0.00941471 -0.0229806 -0.00132908)
(-0.0101746 -0.0252379 -0.00026231)
(-0.0105133 -0.0248522 -0.000125183)
(-0.010865 -0.0257992 0.00153719)
(-0.0100521 -0.0251554 0.00179591)
(-0.0109939 -0.0270893 0.000352338)
(-0.0109081 -0.026726 0.00157781)
(-0.00971327 -0.0244901 0.00163776)
(-0.00963237 -0.0230167 -0.00110596)
(-0.00991738 -0.0242723 -0.00102182)
(-0.0104908 -0.0251478 -0.000692669)
(-0.0102266 -0.0243583 -0.000364078)
(-0.0104747 -0.0255848 -0.000449232)
(-0.0097152 -0.0233616 -0.000725237)
(-0.0101371 -0.0251879 0.000441649)
(-0.0101036 -0.0248692 0.000348727)
(-0.00894612 -0.023187 0.00178028)
(-0.0101711 -0.0255194 0.000762847)
(-0.00937863 -0.0254748 0.00193673)
(-0.00970934 -0.0249825 0.00122192)
(-0.010844 -0.0278379 -0.00213905)
(-0.0103133 -0.0274714 -0.00240216)
(-0.0104485 -0.0282063 -0.00252811)
(-0.00911227 -0.0274834 -0.00358798)
(-0.00909145 -0.0257499 -0.00336851)
(-0.00950327 -0.0267858 -0.00293374)
(-0.0115178 -0.0269286 0.000222189)
(-0.0107194 -0.0264487 -0.00171385)
(-0.0111024 -0.0269235 -0.00137043)
(-0.0117916 -0.0288509 -0.000795006)
(-0.0107507 -0.0272726 -0.00224831)
(-0.0111989 -0.0272958 -0.000560408)
(-0.0108863 -0.0277632 -0.00112199)
(-0.0108133 -0.0264284 -8.21859e-05)
(-0.0106268 -0.0255212 -0.00102671)
(-0.00849998 -0.0247587 -0.00279907)
(-0.00670883 -0.0226106 -0.00271462)
(-0.00678867 -0.0225644 -0.00330229)
(-0.00788985 -0.0241572 -0.00288135)
(-0.0083278 -0.0253781 -0.00311603)
(-0.00675208 -0.0217815 -0.00257428)
(-0.00426398 -0.0135797 -0.000205747)
(-0.00452693 -0.016635 -0.00103999)
(-0.00424776 -0.0164891 -0.00106393)
(-0.00465216 -0.0155232 -0.000591257)
(-0.00417325 -0.0135423 -0.000323465)
(-0.00409685 -0.0144263 -0.000625122)
(-0.00645952 -0.0200742 -0.00191053)
(-0.00643791 -0.0192738 -0.000810812)
(-0.00510767 -0.0165482 -0.0013228)
(-0.00573459 -0.0183932 -0.00156225)
(-0.00640395 -0.0191625 -0.00146562)
(-0.00432517 -0.0127781 -0.000109818)
(-0.00451959 -0.0115249 0.000180805)
(-0.00442397 -0.0146296 -0.000471805)
(-0.0045749 -0.013776 -0.000277488)
(-0.00491508 -0.0130434 2.44035e-05)
(-0.00428099 -0.0116559 -2.52627e-05)
(-0.00505392 -0.0184877 -0.00153908)
(-0.00507775 -0.0183294 -0.00122417)
(-0.00541478 -0.017047 -0.000917194)
(-0.00576525 -0.0202556 -0.00202295)
(-0.0060374 -0.0201346 -0.00161311)
(-0.00527424 -0.0184857 -0.00169559)
(-0.00524781 -0.0138327 -0.000121275)
(-0.00468467 -0.0132449 -0.000170511)
(-0.00513421 -0.0162752 -0.000747767)
(-0.00511751 -0.0150653 -0.000449595)
(-0.00550524 -0.0156194 -0.000590219)
(-0.00499584 -0.0130064 -4.43285e-05)
(-0.00500354 -0.0135703 -2.17685e-05)
(-0.00510566 -0.0123438 0.00014381)
(-0.00468232 -0.0112127 0.000135362)
(-0.00484202 -0.012532 -7.03942e-05)
(-0.00489424 -0.012811 -0.000114986)
(-0.00474864 -0.0110108 0.00010782)
(-0.00482657 -0.0117038 3.54678e-06)
(-0.00506646 -0.0152495 -0.000761868)
(-0.00600191 -0.0169622 -0.000859015)
(-0.0055393 -0.0161538 -0.000899039)
(-0.00531449 -0.0146176 -0.000476478)
(-0.00520355 -0.0149017 -0.000388376)
(-0.00559228 -0.0168815 -0.00120618)
(-0.00326757 -0.0212367 0.000380141)
(-0.0035357 -0.0207981 0.000242142)
(-0.00395594 -0.0211013 0.000595911)
(-0.00322407 -0.0185452 -0.00105916)
(-0.0030352 -0.0195281 -0.00155863)
(-0.00294352 -0.0197488 -0.00115635)
(-0.00246052 -0.0196073 -0.00082122)
(-0.00280081 -0.0209155 -0.00046796)
(-0.00341731 -0.0206912 -0.000574605)
(-0.00373965 -0.0201655 -0.00136111)
(-0.00308735 -0.0191663 -0.00145159)
(-0.00277943 -0.0195207 -0.00129534)
(-0.00345727 -0.0186613 -0.00174539)
(-0.00347757 -0.0176915 -0.00179983)
(-0.00328437 -0.0183065 -0.00198085)
(-0.00364031 -0.0189022 -0.00211375)
(-0.00363745 -0.017249 -0.00231933)
(-0.00356241 -0.0177526 -0.0020614)
(-0.00371285 -0.0177972 -0.00271138)
(-0.00346288 -0.0177867 -0.00237523)
(-0.00372978 -0.0179472 -0.00240551)
(-0.00406966 -0.017518 -0.00246809)
(-0.00409772 -0.0171153 -0.00262682)
(-0.00912776 -0.0231354 -0.0014583)
(-0.0089521 -0.0220294 -0.00159865)
(-0.00867868 -0.0223459 -0.00148823)
(-0.00812416 -0.0209878 -0.00184613)
(-0.00800153 -0.0209856 -0.00175321)
(-0.00833187 -0.021936 -0.00133321)
(-0.00794468 -0.0253508 -0.00338613)
(-0.00873767 -0.0263689 -0.00309208)
(-0.00777827 -0.0257177 -0.00330723)
(-0.00869871 -0.0266858 -0.0039311)
(-0.00726688 -0.0265377 -0.003753)
(-0.00221898 -0.0187835 -0.00706339)
(-0.00185247 -0.0203685 -0.00602845)
(-0.00149858 -0.0204788 -0.00662793)
(-0.00198425 -0.0194512 -0.00705752)
(-0.0023034 -0.018585 -0.00726863)
(-0.00216229 -0.0201717 -0.00650772)
(-0.00535156 -0.0149449 -0.0042534)
(-0.00538992 -0.0160208 -0.00410125)
(-0.00489905 -0.0145273 -0.00399892)
(-0.00541318 -0.0145017 -0.00377828)
(-0.00578833 -0.014966 -0.00416992)
(-0.00502809 -0.0155734 -0.00368344)
(-0.00542999 -0.0126057 -0.00427665)
(-0.00580141 -0.0140456 -0.00463758)
(-0.00528594 -0.0137358 -0.0044755)
(-0.00558898 -0.0131788 -0.00448053)
(-0.00524421 -0.0136301 -0.0045224)
(-0.00426751 -0.0176237 -0.00545452)
(-0.00426453 -0.0170998 -0.00476772)
(-0.00448798 -0.0163015 -0.00549568)
(-0.00457481 -0.0168255 -0.00479502)
(-0.00460109 -0.0158572 -0.00511923)
(-0.00469976 -0.0158773 -0.00555869)
(-0.00391164 -0.0188496 -0.00416285)
(-0.00479438 -0.0173326 -0.00429303)
(-0.00397548 -0.0179522 -0.00346379)
(-0.0043882 -0.017772 -0.00385821)
(-0.00368441 -0.0176229 -0.00452316)
(-0.00401827 -0.0174531 -0.00480364)
(-0.00435107 -0.0157916 -0.00489497)
(-0.00416761 -0.0169276 -0.00435815)
(-0.00266361 -0.0217608 5.58052e-05)
(-0.0023622 -0.020937 -0.000184817)
(-0.00272605 -0.0215291 -0.000526693)
(-0.0024745 -0.0217332 0.000341737)
(-0.00294157 -0.0229316 0.000665634)
(-0.00354585 -0.0214016 0.000729993)
(-0.002593 -0.0221529 0.000176583)
(-0.00327916 -0.0226276 0.00153768)
(-0.00296582 -0.0232776 0.00132335)
(-0.00302329 -0.0227982 0.000977761)
(-0.00250848 -0.0216122 0.000358855)
(-0.00282971 -0.0225266 0.000692848)
(-0.00285573 -0.0201652 -0.00157908)
(-0.00257647 -0.0209449 -0.00103039)
(-0.00298671 -0.0205717 -0.00197164)
(-0.00277037 -0.0210253 -0.00134401)
(-0.00233199 -0.0207283 -0.000832813)
(-0.00250496 -0.0202524 -0.00151527)
(-0.00255804 -0.0221117 -0.000659469)
(-0.00193867 -0.0220095 -0.00100965)
(-0.00254499 -0.0228683 -0.000420596)
(-0.0023812 -0.022173 -9.45149e-05)
(-0.00235886 -0.0210393 -0.00123236)
(-0.00227234 -0.0218538 -0.00156665)
(-0.00453875 -0.00638288 -0.00044061)
(-0.00451634 -0.005989 -0.00072594)
(-0.00475207 -0.00587907 -0.000886916)
(-0.0045073 -0.00559829 -0.000719749)
(-0.00464199 -0.00654706 -0.000396255)
(-0.00441157 -0.00619428 -0.000369435)
(-0.00636967 -0.0107152 -0.00193031)
(-0.006002 -0.0105155 -0.00189242)
(-0.00551545 -0.0098755 -0.00136579)
(-0.00393959 -0.0175277 -0.004621)
(-0.00404363 -0.0178133 -0.00365544)
(-0.00424426 -0.0174272 -0.00397703)
(-0.00463532 -0.0170464 -0.00398483)
(-0.00394193 -0.0171481 -0.00380476)
(-0.00389404 -0.0162733 -0.00402508)
(-0.00557897 -0.0136309 -0.00407086)
(-0.00542166 -0.0149176 -0.00465112)
(-0.00496786 -0.0167653 -0.00402694)
(-0.00514356 -0.0161242 -0.00407705)
(-0.00453143 -0.0163553 -0.00383595)
(-0.00449593 -0.0152951 -0.00385597)
(-0.00514814 -0.0161903 -0.00443711)
(-0.00485084 -0.0146802 -0.00477615)
(-0.00477954 -0.0141388 -0.00502411)
(-0.00538135 -0.0146003 -0.00462785)
(-0.00473184 -0.0145262 -0.00469651)
(-0.00552634 -0.0146613 -0.00483225)
(-0.00481961 -0.0123743 7.61556e-07)
(-0.00523764 -0.0132838 -2.92728e-05)
(-0.00468242 -0.00958643 8.21827e-05)
(-0.00949236 -0.0267271 0.00372482)
(-0.0110781 -0.0282349 0.00331273)
(-0.00931125 -0.0258483 0.00363782)
(-0.0102217 -0.0269059 0.00316025)
(-0.00904803 -0.0262379 0.00305256)
(-0.00893726 -0.0247226 0.00283051)
(-0.00898961 -0.0250326 0.00298795)
(-0.00846864 -0.0251318 0.00352846)
(-0.00847535 -0.0259377 0.00359302)
(-0.00782879 -0.0256758 0.00344819)
(-0.00756537 -0.0268694 0.00372894)
(-0.00593945 -0.0247852 0.00433063)
(-0.00726945 -0.0194854 -0.00162484)
(-0.00686545 -0.0189547 -0.00172862)
(-0.00810726 -0.0217739 -0.00168998)
(-0.00807758 -0.021017 -0.00149862)
(-0.00924705 -0.022743 -0.00155938)
(-0.00821823 -0.0209216 -0.00178973)
(-0.00888564 -0.0225601 -0.00131862)
(-0.00428943 -0.0176245 -0.00261401)
(-0.00358678 -0.018014 -0.00206042)
(-0.00326828 -0.0196825 -0.00180299)
(-0.00317678 -0.0185874 -0.00179438)
(-0.00367528 -0.0211498 -0.000699871)
(-0.00317594 -0.019796 -0.000673715)
(-0.00373467 -0.0211755 -0.00049732)
(-0.00448998 -0.0166971 -0.00262543)
(-0.00495901 -0.0137551 -0.000184735)
(-0.00502226 -0.0152574 -0.00054777)
(-0.00450655 -0.0156919 -0.000771002)
(-0.00848466 -0.0252606 -0.00343767)
(-0.00887624 -0.0249256 -0.00305016)
(-0.00634592 -0.021195 -0.00224842)
(-0.00511046 -0.0174491 -0.00153993)
(-0.00640887 -0.0195977 -0.00187229)
(-0.00640341 -0.0206496 -0.0022134)
(-0.00633431 -0.0203997 -0.001747)
(-0.00999955 -0.0268904 -0.00224283)
(-0.0112753 -0.0276061 -0.000229654)
(-0.0111964 -0.0269917 0.00012213)
(-0.0101692 -0.0255494 -0.00123078)
(-0.00774695 -0.0217727 -0.00197241)
(-0.00924843 -0.0240741 -0.00178505)
(-0.00891993 -0.0238011 -0.00176081)
(-0.00676946 -0.0209704 -0.00238024)
(-0.00650197 -0.0202213 -0.00212626)
(-0.00773245 -0.0228072 -0.00223333)
(-0.0110979 -0.0270328 -0.00090277)
(-0.0116002 -0.0273944 0.0008408)
(-0.0110926 -0.0262165 -0.000320758)
(-0.0111759 -0.0270336 -0.000335857)
(-0.0107825 -0.0268682 0.00214455)
(-0.0108913 -0.0261551 0.000405294)
(-0.0108528 -0.025983 0.000873431)
(-0.0107455 -0.026559 0.00157598)
(-0.0102551 -0.0266709 0.00256465)
(-0.0104822 -0.0261618 0.00199013)
(-0.010608 -0.0264201 0.0015398)
(-0.0103255 -0.0264964 0.00238534)
(-0.0110366 -0.0271207 0.0014122)
(-0.0110242 -0.0266015 0.00126038)
(-0.010239 -0.0261704 -0.00204149)
(-0.0112813 -0.0284205 -0.00120427)
(-0.010289 -0.027004 -0.00247838)
(-0.00947095 -0.0254894 -0.00303687)
(-0.0116985 -0.0287936 0.00071557)
(-0.0109444 -0.0265163 0.00150904)
(-0.0111541 -0.0270356 -0.000533525)
(-0.0111304 -0.0269076 0.00123335)
(-0.0109466 -0.0265244 -0.000455105)
(-0.0114051 -0.0274329 0.00036216)
(-0.0113978 -0.0270236 0.000126988)
(-0.00720155 -0.0239798 -0.00337044)
(-0.00713237 -0.0252338 -0.00405415)
(-0.00753658 -0.0254687 -0.00418257)
(-0.00901994 -0.0257129 -0.00305373)
(-0.00962513 -0.0266367 -0.00306035)
(-0.0090117 -0.0268288 -0.00307161)
(-0.00900374 -0.0265851 -0.00396087)
(-0.0113226 -0.0282071 -0.000963172)
(-0.0116242 -0.0280159 -0.000522142)
(-0.0104354 -0.0265032 -0.00196069)
(-0.0112722 -0.0279951 -0.00157652)
(-0.0103398 -0.026672 -0.00270967)
(-0.00969867 -0.0237003 -0.00146632)
(-0.00979221 -0.0249288 -0.00134392)
(-0.00962847 -0.0238141 -0.00130151)
(-0.0100476 -0.0242322 0.000337935)
(-0.0101526 -0.0267031 0.0019979)
(-0.0103784 -0.0261548 0.00173801)
(-0.0102663 -0.0258937 0.00143267)
(-0.009561 -0.0228566 -1.51453e-05)
(-0.0100013 -0.0240421 -0.000388986)
(-0.00991171 -0.0241257 0.000442875)
(-0.00968626 -0.0223644 -0.00126216)
(-0.00916538 -0.0225037 -0.00137165)
(-0.00780903 -0.0204149 -0.00110851)
(-0.00759943 -0.0196002 -0.00128619)
(-0.00531148 -0.0159459 -0.000857334)
(-0.00721455 -0.0190014 -0.00120508)
(-0.00617023 -0.0177131 -0.000923144)
(-0.00753211 -0.0206467 -0.00152446)
(-0.00729525 -0.0200923 -0.00128647)
(-0.00638988 -0.0180658 -0.00116362)
(-0.00622722 -0.0187235 -0.00145971)
(-0.00735824 -0.0212829 -0.00171578)
(-0.00626915 -0.0187065 -0.00127744)
(-0.0087158 -0.0234687 -0.0018206)
(-0.00878509 -0.0224962 -0.00179914)
(-0.00891745 -0.0228075 -0.00171914)
(-0.00855823 -0.0223241 -0.00187232)
(-0.00856448 -0.0237572 0.00166753)
(-0.00932366 -0.0252602 0.00166169)
(-0.00902138 -0.0236452 0.000825485)
(-0.0100169 -0.0248128 0.000261148)
(-0.0100508 -0.0242531 -0.000294604)
(-0.0100142 -0.0243721 0.000265937)
(-0.00972557 -0.0252534 0.000725693)
(-0.00928835 -0.0227475 0.000501693)
(-0.00828638 -0.0245561 0.00189904)
(-0.00729445 -0.023898 0.00207495)
(-0.00805551 -0.0239185 0.00195299)
(-0.00824811 -0.0237898 0.00223839)
(-0.00874488 -0.0235526 0.00162154)
(-0.00847333 -0.023727 0.00185792)
(-0.00853556 -0.0231831 0.00159882)
(-0.00874765 -0.0247574 0.0018416)
(-0.0120314 -0.0297582 0.000662608)
(-0.0109972 -0.026513 0.0015358)
(-0.0119402 -0.0286375 0.00128551)
(-0.0112459 -0.0268787 -0.000300934)
(-0.00786343 -0.0236157 0.00307696)
(-0.00914813 -0.0241661 0.00259171)
(-0.0100025 -0.0260371 0.00179757)
(-0.00922003 -0.0251796 0.00226764)
(-0.00992169 -0.0247667 0.0016336)
(-0.0108235 -0.0261486 0.00136375)
(-0.0109235 -0.026403 0.00152892)
(-0.00964387 -0.0281938 0.00361564)
(-0.0101682 -0.0279885 0.00336833)
(-0.00736412 -0.0252751 0.00414578)
(-0.00901646 -0.0267265 0.00396236)
(-0.00890624 -0.0280642 0.00406777)
(-0.00785642 -0.0270845 0.00415055)
(-0.00894097 -0.026911 0.00394955)
(-0.00591127 -0.0248387 0.00440774)
(-0.00335235 -0.0271046 0.00229314)
(-0.00378856 -0.0260113 0.00233687)
(-0.00316759 -0.0253065 0.00283938)
(-0.00343302 -0.0258505 0.0028705)
(-0.0109378 -0.0271422 0.00220314)
(-0.00943047 -0.029249 0.00428101)
(-0.00766578 -0.0270754 0.00496719)
(-0.0104725 -0.0272372 0.0028897)
(-0.00926052 -0.0271835 0.0039284)
(-0.00760271 -0.0275313 0.00455541)
(-0.00774895 -0.0267476 0.00488827)
(-0.0104304 -0.0269985 0.00345322)
(-0.0106891 -0.0263852 0.0020213)
(-0.010923 -0.0273213 0.00244929)
(-0.0113097 -0.0291358 0.00340312)
(-0.0105545 -0.0271142 0.00300477)
(-0.0103181 -0.0281222 0.00376578)
(-0.0104634 -0.0278054 0.00338086)
(-0.00907565 -0.0265667 0.00413417)
(-0.00908724 -0.0286115 0.00442038)
(-0.00733301 -0.028307 0.00470432)
(-0.00785964 -0.0278013 0.00455366)
(-0.00894664 -0.0271184 0.00512312)