/*--------------------------------*- C++ -*----------------------------------*\
| =========                 |                                                 |
| \\      /  F ield         | OpenFOAM: The Open Source CFD Toolbox           |
|  \\    /   O peration     | Version:  v1612+                                |
|   \\  /    A nd           | Web:      www.OpenFOAM.com                      |
|    \\/     M anipulation  |                                                 |
\*---------------------------------------------------------------------------*/
FoamFile
{
    version     2.0;
    format      ascii;
    class       volVectorField;
    location    "166";
    object      U;
}
// * * * * * * * * * * * * * * * * * * * * * * * * * * * * * * * * * * * * * //

dimensions      [0 1 -1 0 0 0 0];

internalField   nonuniform List<vector> 
17083
(
(-0.88018 -0.113339 -0.391958)
(-0.748617 -0.0983462 -0.269732)
(-0.770968 0.0238658 -0.312191)
(-0.606725 0.0419427 -0.168583)
(-0.826337 -0.11772 -0.406708)
(-0.749816 -0.0830403 -0.327934)
(-0.721616 -0.0867305 -0.316282)
(-0.676497 -0.0739401 -0.280291)
(-0.70424 -0.0829481 -0.324873)
(-0.689156 -0.07471 -0.293705)
(-0.735067 -0.0848237 -0.349258)
(-0.754323 -0.0837152 -0.333253)
(-0.78585 -0.104747 -0.389852)
(-0.76851 -0.0906962 -0.357987)
(-0.747634 -0.0838691 -0.329352)
(-0.8509 -0.104913 -0.416763)
(-0.721963 -0.0836599 -0.346119)
(-0.6935 -0.0723194 -0.327377)
(-0.7303 -0.0872538 -0.345874)
(-0.737013 -0.0916933 -0.348755)
(-0.642214 -0.061822 -0.317645)
(-0.605875 -0.0561176 -0.287816)
(-0.645553 -0.075791 -0.309876)
(-0.631198 -0.0636425 -0.297683)
(-0.672456 -0.0660439 -0.291352)
(-0.669446 -0.0818539 -0.302309)
(-0.75289 -0.0912587 -0.370129)
(-0.61053 -0.0559226 -0.293178)
(-0.647994 -0.0743567 -0.317282)
(-0.588699 -0.0559315 -0.247287)
(-0.581004 -0.0581347 -0.246145)
(-0.641272 -0.0681592 -0.274984)
(-0.55862 -0.0509915 -0.226235)
(-0.514507 -0.0382408 -0.2104)
(-0.633236 -0.0738481 -0.285776)
(-0.701476 -0.075473 -0.309735)
(-0.547204 -0.0503127 -0.22434)
(-0.547362 -0.0497648 -0.246452)
(-0.633355 -0.0409327 -0.216983)
(-0.650314 -0.0338533 -0.243234)
(-0.664719 -0.0500473 -0.271714)
(-0.631669 -0.0454478 -0.239372)
(-0.59371 -0.024062 -0.228095)
(-0.624843 -0.0383121 -0.261534)
(-0.673183 -0.0473196 -0.280942)
(-0.565924 -0.0183781 -0.208973)
(-0.587823 -0.0181929 -0.224734)
(-0.6095 -0.0312362 -0.216199)
(-0.535991 -0.0234339 -0.173789)
(-0.576078 -0.0313754 -0.210008)
(-0.614269 -0.0320125 -0.252717)
(-0.634248 -0.0290728 -0.265294)
(-0.563658 -0.0163031 -0.204256)
(-0.525056 -0.0115871 -0.178039)
(-0.609067 -0.0244345 -0.235395)
(-0.537605 -0.0160499 -0.187482)
(-0.85004 -0.201145 -0.488581)
(-0.838029 -0.202423 -0.490684)
(-0.722031 -0.166588 -0.409725)
(-0.809267 -0.189711 -0.462861)
(-0.83062 -0.195738 -0.493737)
(-0.808641 -0.185691 -0.481483)
(-0.762067 -0.166778 -0.450014)
(-0.694393 -0.154882 -0.402269)
(-0.790735 -0.188164 -0.453377)
(-0.725438 -0.157947 -0.430759)
(-0.689291 -0.141523 -0.398336)
(-0.713562 -0.148951 -0.411789)
(-0.651203 -0.135832 -0.369521)
(-0.744317 -0.157375 -0.43378)
(-0.689718 -0.135323 -0.396544)
(-0.676916 -0.143858 -0.389422)
(-0.856792 -0.147989 -0.464816)
(-0.85161 -0.142851 -0.465083)
(-0.904811 -0.165476 -0.514141)
(-0.859452 -0.145596 -0.463199)
(-0.851121 -0.144893 -0.458705)
(-0.84194 -0.138755 -0.451545)
(-0.885717 -0.146948 -0.498954)
(-0.920787 -0.161225 -0.518222)
(-0.933213 -0.161675 -0.535414)
(-0.93681 -0.164089 -0.547434)
(-0.830679 -0.138441 -0.449069)
(-0.817429 -0.13152 -0.433882)
(-0.888324 -0.14813 -0.482659)
(-0.863385 -0.140833 -0.46363)
(-0.843852 -0.139036 -0.448711)
(-0.944896 -0.163971 -0.544907)
(-0.932795 -0.165169 -0.540092)
(-0.943459 -0.169037 -0.543868)
(-0.921098 -0.161915 -0.522017)
(-0.872873 -0.148966 -0.474168)
(-0.564239 -0.0168104 -0.306296)
(-0.583606 -0.0247114 -0.314801)
(-0.456373 -0.000689334 -0.240362)
(-0.461707 -0.00549402 -0.242481)
(-0.425458 0.00716322 -0.232336)
(-0.498193 -0.00992446 -0.262647)
(-0.460383 -0.0132783 -0.242951)
(-0.584927 -0.0212618 -0.309485)
(-0.50509 -0.00347276 -0.274958)
(-0.453587 0.00324347 -0.245731)
(-0.485328 0.00566689 -0.261638)
(-0.510414 0.00204561 -0.274737)
(-0.533835 -0.00743215 -0.284969)
(-0.966689 -0.0876207 -0.440333)
(-1.02268 -0.112012 -0.49546)
(-0.97354 -0.109232 -0.471339)
(-1.00085 -0.124033 -0.49743)
(-1.00829 -0.113904 -0.491329)
(-0.951547 -0.101702 -0.454767)
(-0.953437 -0.0999734 -0.462323)
(-0.962388 -0.110749 -0.472885)
(-0.948824 -0.101625 -0.468152)
(-0.835607 -0.166877 -0.417136)
(-0.833112 -0.165209 -0.41915)
(-0.818258 -0.1686 -0.40275)
(-0.829736 -0.170258 -0.415565)
(-0.845298 -0.195224 -0.412679)
(-0.829253 -0.178612 -0.392025)
(-0.817544 -0.162073 -0.396802)
(-0.840747 -0.166427 -0.41473)
(-0.766305 -0.179675 -0.364837)
(-0.752242 -0.177736 -0.354294)
(-0.739504 -0.176913 -0.346232)
(-0.70508 -0.165092 -0.332951)
(-0.774664 -0.17501 -0.354178)
(-0.800745 -0.188959 -0.375434)
(-0.723308 -0.162232 -0.321448)
(-0.695274 -0.162484 -0.301448)
(-0.790134 -0.153651 -0.374333)
(-0.828434 -0.180883 -0.403012)
(-0.717158 -0.154381 -0.310975)
(-0.710992 -0.148158 -0.307826)
(-0.792654 -0.158045 -0.371442)
(-0.824769 -0.169228 -0.403316)
(-0.838763 -0.190557 -0.409063)
(-0.856618 -0.188537 -0.420611)
(-0.729406 -0.167548 -0.33378)
(-0.728255 -0.158056 -0.316283)
(-0.812419 -0.120251 -0.310893)
(-0.911365 -0.130251 -0.369835)
(-0.812925 -0.120969 -0.31308)
(-0.723979 -0.106748 -0.256123)
(-0.955933 -0.1405 -0.404193)
(-0.850444 -0.122301 -0.34218)
(-0.831073 -0.121843 -0.344961)
(-0.809703 -0.121644 -0.323797)
(-0.736694 -0.0992159 -0.282607)
(-0.887108 -0.132132 -0.363581)
(-0.94403 -0.150929 -0.420486)
(-0.923304 -0.145374 -0.414988)
(-0.759495 -0.102881 -0.291028)
(-0.839829 -0.129346 -0.350585)
(-0.878734 -0.132074 -0.381074)
(-0.798685 -0.119331 -0.332246)
(-0.988188 -0.126666 -0.518891)
(-0.98717 -0.136034 -0.522797)
(-0.978547 -0.127722 -0.511266)
(-0.96829 -0.124063 -0.502327)
(-1.0216 -0.165128 -0.567908)
(-1.01569 -0.156789 -0.562096)
(-1.02292 -0.157874 -0.55837)
(-1.00445 -0.160808 -0.568612)
(-0.998005 -0.156656 -0.560249)
(-0.985951 -0.147829 -0.529434)
(-0.987963 -0.145907 -0.529269)
(-1.03625 -0.15873 -0.565874)
(-0.982258 -0.126067 -0.520469)
(-1.01191 -0.163804 -0.568311)
(-1.04238 -0.176384 -0.571812)
(-1.02201 -0.16962 -0.564616)
(-1.01295 -0.163352 -0.566214)
(-1.00122 -0.152062 -0.544907)
(-0.938391 -0.136467 -0.46413)
(-0.90923 -0.125894 -0.418152)
(-0.895545 -0.115988 -0.403675)
(-0.921748 -0.123469 -0.399497)
(-0.90663 -0.111281 -0.401339)
(-0.846137 -0.0885918 -0.440419)
(-0.858935 -0.108453 -0.461122)
(-0.888711 -0.0985012 -0.390143)
(-0.866101 -0.0980906 -0.355689)
(-0.914176 -0.133487 -0.470854)
(-0.874228 -0.124472 -0.472609)
(-0.89611 -0.0991868 -0.394083)
(-0.920042 -0.125358 -0.451972)
(-0.834499 -0.103723 -0.466667)
(-0.844963 -0.0936308 -0.440384)
(-0.831883 -0.071255 -0.397986)
(-0.848579 -0.0956928 -0.414617)
(-0.867764 -0.0954553 -0.446807)
(-0.735194 -0.00217561 -0.258126)
(-0.795147 -0.00925302 -0.291589)
(-0.763698 -0.0274649 -0.280545)
(-0.714528 -0.00600522 -0.251237)
(-0.774697 -0.0288408 -0.296485)
(-0.726356 -0.0181983 -0.260839)
(-0.753483 -0.038842 -0.283034)
(-0.764024 -0.0574668 -0.295163)
(-0.745472 -0.0478218 -0.276673)
(-0.791281 -0.0208017 -0.309824)
(-0.817457 -0.0424487 -0.329832)
(-0.926923 -0.182698 -0.569388)
(-0.832734 -0.154197 -0.494111)
(-0.905075 -0.18612 -0.55222)
(-0.940626 -0.178363 -0.58499)
(-0.925203 -0.184741 -0.580772)
(-0.891326 -0.181081 -0.549776)
(-0.926514 -0.170466 -0.575372)
(-0.878625 -0.170704 -0.530832)
(-0.879602 -0.164388 -0.532142)
(-0.845931 -0.150264 -0.499687)
(-0.861745 -0.161872 -0.512928)
(-0.880518 -0.16496 -0.523474)
(-0.865148 -0.155449 -0.514289)
(-0.898864 -0.180913 -0.546631)
(-0.665534 -0.0646701 -0.270071)
(-0.674753 -0.0753635 -0.26244)
(-0.644943 -0.0629456 -0.255497)
(-0.625698 -0.0690028 -0.237627)
(-0.725145 -0.0992861 -0.285912)
(-0.669645 -0.0929759 -0.243406)
(-0.743106 -0.0939784 -0.321624)
(-0.699596 -0.0988051 -0.280819)
(-0.706746 -0.0772096 -0.297657)
(-0.610089 -0.0557638 -0.22379)
(-0.570732 -0.056565 -0.200207)
(-0.650024 -0.0779939 -0.243577)
(-0.572236 -0.0562621 -0.202575)
(-0.615362 -0.0757398 -0.229741)
(-0.672918 -0.0722495 -0.268744)
(-0.572195 -0.0584089 -0.209825)
(-0.987789 -0.13503 -0.469965)
(-0.982244 -0.135816 -0.46521)
(-1.03116 -0.134147 -0.499293)
(-1.0186 -0.140485 -0.513476)
(-1.02375 -0.132677 -0.497994)
(-0.928879 -0.115218 -0.428093)
(-0.970555 -0.123596 -0.438259)
(-1.02418 -0.148414 -0.502731)
(-1.03119 -0.145974 -0.480432)
(-1.03258 -0.132717 -0.497084)
(-1.04281 -0.148142 -0.487236)
(-0.992701 -0.129321 -0.467207)
(-1.0288 -0.142959 -0.474453)
(-1.02475 -0.132887 -0.470546)
(-1.02491 -0.127366 -0.482372)
(-0.716823 -0.0902165 -0.380951)
(-0.699268 -0.0951842 -0.379082)
(-0.70355 -0.0970022 -0.378527)
(-0.645856 -0.0761564 -0.338194)
(-0.733643 -0.113694 -0.400829)
(-0.70072 -0.0874606 -0.374748)
(-0.868277 -0.143021 -0.505402)
(-0.856145 -0.148497 -0.500058)
(-0.719042 -0.0977124 -0.3986)
(-0.750303 -0.110996 -0.424725)
(-0.810721 -0.138155 -0.478126)
(-0.670643 -0.0723226 -0.364305)
(-0.909584 -0.163655 -0.549269)
(-0.750484 -0.118148 -0.423857)
(-0.772952 -0.108639 -0.438956)
(-0.705436 -0.0968414 -0.391068)
(-0.666734 -0.11833 -0.37781)
(-0.575911 -0.103441 -0.32649)
(-0.758843 -0.149068 -0.435646)
(-0.62359 -0.11831 -0.351173)
(-0.594834 -0.0988665 -0.331163)
(-0.530343 -0.0961031 -0.303755)
(-0.606112 -0.114257 -0.348333)
(-0.750399 -0.14252 -0.434977)
(-0.74608 -0.150666 -0.435445)
(-0.542216 -0.100597 -0.309714)
(-0.554818 -0.103899 -0.317988)
(-0.592824 -0.0985988 -0.336652)
(-0.627403 -0.121314 -0.356497)
(-0.685508 -0.120184 -0.408651)
(-0.710637 -0.136301 -0.41596)
(-0.601992 -0.11582 -0.361763)
(-0.579033 -0.105987 -0.334527)
(-0.919072 -0.183459 -0.57433)
(-0.912458 -0.170413 -0.56897)
(-0.931844 -0.196023 -0.540401)
(-0.911986 -0.194999 -0.532527)
(-0.910104 -0.173908 -0.54619)
(-0.911554 -0.173835 -0.556061)
(-0.930546 -0.191909 -0.565609)
(-0.933109 -0.191824 -0.547242)
(-0.901377 -0.195039 -0.540126)
(-0.905686 -0.195205 -0.525459)
(-0.921634 -0.208381 -0.550814)
(-0.915547 -0.211225 -0.525594)
(-0.947356 -0.193908 -0.589051)
(-0.92837 -0.210289 -0.543247)
(-0.902211 -0.189816 -0.531534)
(-0.920126 -0.206597 -0.540291)
(-0.917966 -0.184822 -0.55709)
(-0.930202 -0.207382 -0.538295)
(-0.846254 -0.172455 -0.38471)
(-0.834849 -0.170086 -0.387926)
(-0.721175 -0.151529 -0.320615)
(-0.766887 -0.158954 -0.348857)
(-0.817154 -0.161548 -0.367121)
(-0.843323 -0.175082 -0.397503)
(-0.715445 -0.152845 -0.316097)
(-0.658529 -0.132674 -0.284839)
(-0.780592 -0.144582 -0.348406)
(-0.801185 -0.161238 -0.363617)
(-0.746502 -0.148728 -0.325435)
(-0.750645 -0.155639 -0.325211)
(-0.707223 -0.137417 -0.297016)
(-0.647336 -0.134001 -0.271695)
(-0.703124 -0.144096 -0.299926)
(-0.741949 -0.1435 -0.311348)
(-1.01089 -0.0393778 -0.479968)
(-0.98256 -0.031923 -0.465956)
(-0.972629 -0.0188931 -0.454473)
(-0.916513 -0.000289371 -0.409426)
(-0.995196 -0.0519575 -0.471563)
(-0.922417 -0.0103007 -0.435806)
(-0.926935 -0.0048567 -0.429079)
(-0.92656 -0.00339614 -0.411168)
(-0.88835 -0.0138413 -0.416042)
(-0.922033 0.00145293 -0.4191)
(-0.944891 -0.0415266 -0.435512)
(-0.960563 -0.0369187 -0.448285)
(-1.00527 -0.0808049 -0.489704)
(-1.03484 -0.0797236 -0.501781)
(-0.931082 -0.00749881 -0.409574)
(-0.92179 0.00644657 -0.393427)
(-0.96763 -0.0362085 -0.460328)
(-0.987741 -0.0100598 -0.444342)
(-0.934286 0.0116197 -0.416218)
(-0.974398 -0.00861383 -0.444972)
(-1.00069 -0.0572514 -0.473194)
(-1.01438 -0.0719728 -0.484898)
(-0.628101 0.0547391 -0.196826)
(-0.598224 0.0542988 -0.165245)
(-0.7205 0.0316041 -0.201395)
(-0.654686 0.0422949 -0.172263)
(-0.626859 0.0437094 -0.209096)
(-0.715038 0.0113888 -0.26556)
(-0.722453 0.0183156 -0.258876)
(-0.593589 0.0574718 -0.180146)
(-0.563991 0.066317 -0.143223)
(-0.775483 -0.00548082 -0.281899)
(-0.730396 0.015012 -0.214212)
(-0.758737 -0.00547367 -0.281852)
(-0.64155 0.0428681 -0.20015)
(-0.651397 0.0338235 -0.178807)
(-0.622675 0.0480131 -0.168639)
(-0.607772 0.0478856 -0.177258)
(-0.672619 0.02766 -0.199879)
(-0.788784 -0.00881308 -0.289604)
(-0.740807 0.0112008 -0.272417)
(-0.588211 0.0589337 -0.156691)
(-0.695372 -0.0481948 -0.267411)
(-0.626459 -0.0326203 -0.208182)
(-0.728058 -0.0591823 -0.295082)
(-0.733022 -0.0633863 -0.297352)
(-0.725738 -0.054251 -0.286077)
(-0.569257 -0.035284 -0.190925)
(-0.531633 -0.0301435 -0.171621)
(-0.726594 -0.0586549 -0.289511)
(-0.749159 -0.0669914 -0.305645)
(-0.587035 -0.0398703 -0.204365)
(-0.606371 -0.0397986 -0.213433)
(-0.577731 -0.0225038 -0.182675)
(-0.513197 -0.0196768 -0.159096)
(-0.630031 -0.0292472 -0.208247)
(-0.591309 -0.0290039 -0.1938)
(-0.713684 -0.122746 -0.375991)
(-0.682856 -0.121661 -0.365895)
(-0.769766 -0.143845 -0.426333)
(-0.822696 -0.158165 -0.462082)
(-0.825394 -0.163793 -0.468399)
(-0.849768 -0.157743 -0.486)
(-0.830733 -0.161904 -0.473705)
(-0.85026 -0.157792 -0.486413)
(-0.731165 -0.125001 -0.397483)
(-0.808646 -0.139826 -0.450315)
(-0.702052 -0.11712 -0.379992)
(-0.6302 -0.111306 -0.329049)
(-0.682183 -0.133579 -0.38116)
(-0.673711 -0.135225 -0.376864)
(-0.762414 -0.143149 -0.418054)
(-0.710511 -0.126522 -0.386946)
(-0.791098 -0.151205 -0.440359)
(-0.665917 -0.128837 -0.373329)
(-0.673501 -0.123922 -0.355578)
(-0.680567 -0.130697 -0.363269)
(-0.602847 -0.110232 -0.307387)
(-0.63848 -0.120187 -0.3213)
(-0.589106 -0.0921271 -0.302122)
(-0.538179 -0.0859493 -0.269462)
(-0.58401 -0.0967714 -0.300752)
(-0.631652 -0.102799 -0.324165)
(-0.624381 -0.0975489 -0.321144)
(-0.584277 -0.0947635 -0.286504)
(-0.544134 -0.081586 -0.264216)
(-0.761253 -0.135339 -0.408756)
(-0.625554 -0.0995563 -0.312649)
(-0.585241 -0.09619 -0.293972)
(-0.746192 -0.121951 -0.39624)
(-0.640523 -0.109387 -0.316196)
(-0.661417 -0.113589 -0.348058)
(-0.637893 -0.101476 -0.318534)
(-0.592072 -0.0990563 -0.303949)
(-0.782671 -0.135526 -0.418108)
(-0.925723 -0.171698 -0.585098)
(-0.923666 -0.170422 -0.57547)
(-0.925919 -0.203405 -0.58202)
(-0.902916 -0.177511 -0.566057)
(-0.878123 -0.178877 -0.543811)
(-0.894924 -0.191089 -0.56056)
(-0.905043 -0.167964 -0.552891)
(-0.909845 -0.172298 -0.556811)
(-0.920375 -0.177385 -0.588024)
(-0.932633 -0.178762 -0.584314)
(-0.897092 -0.188622 -0.555777)
(-0.85762 -0.165782 -0.518007)
(-0.892572 -0.167349 -0.549483)
(-0.871044 -0.172355 -0.531308)
(-0.837291 -0.149422 -0.502748)
(-0.863959 -0.155418 -0.518429)
(-0.915285 -0.151636 -0.423041)
(-0.913745 -0.160478 -0.420394)
(-0.907743 -0.157363 -0.425975)
(-0.884216 -0.133232 -0.384409)
(-0.864178 -0.126385 -0.378948)
(-0.865624 -0.144612 -0.371828)
(-0.891538 -0.138464 -0.391397)
(-0.865619 -0.134436 -0.358832)
(-0.890277 -0.144053 -0.407647)
(-0.892615 -0.133995 -0.452769)
(-0.880228 -0.112587 -0.378543)
(-0.864137 -0.114445 -0.348334)
(-0.871664 -0.133197 -0.366005)
(-0.779267 -0.0587704 -0.381123)
(-0.806295 -0.0592128 -0.395432)
(-0.777124 -0.052049 -0.378896)
(-0.765391 -0.0422078 -0.372868)
(-0.812834 -0.0732888 -0.413274)
(-0.836847 -0.0880275 -0.429714)
(-0.833784 -0.0698121 -0.415802)
(-0.792759 -0.0619941 -0.396712)
(-0.915035 -0.0976571 -0.483731)
(-0.848699 -0.0588017 -0.416372)
(-0.800557 -0.039616 -0.384186)
(-0.808568 -0.0416723 -0.389576)
(-0.88024 -0.0996705 -0.47628)
(-0.90992 -0.112946 -0.480414)
(-0.851909 -0.0888924 -0.419196)
(-0.937322 -0.124349 -0.495113)
(-0.872616 -0.0766118 -0.443922)
(-0.886862 -0.0937939 -0.459564)
(-0.916155 -0.112472 -0.486273)
(-0.930922 -0.12467 -0.501494)
(-0.707013 -0.0259756 -0.232269)
(-0.684244 -0.0254936 -0.217329)
(-0.732095 -0.0402672 -0.244032)
(-0.757838 -0.0347061 -0.283759)
(-0.607914 -0.0102828 -0.183472)
(-0.636791 -0.00908253 -0.204589)
(-0.599787 0.000418108 -0.171992)
(-0.667934 -0.0194452 -0.22625)
(-0.632418 -0.0115295 -0.192924)
(-0.731919 -0.0283139 -0.298828)
(-0.762852 -0.0382385 -0.308663)
(-0.623022 -0.0134904 -0.192283)
(-0.725953 -0.0314808 -0.289797)
(-0.759764 -0.0495016 -0.300401)
(-0.644826 -0.0208729 -0.202866)
(-0.645528 -0.0223883 -0.204363)
(-0.729442 -0.038894 -0.261511)
(-0.831839 -0.0626007 -0.236867)
(-0.814806 -0.0338075 -0.224886)
(-0.840066 -0.044967 -0.249007)
(-0.872051 -0.0756677 -0.276808)
(-0.816947 -0.057268 -0.225578)
(-0.85286 -0.0647687 -0.266958)
(-0.886726 -0.0607734 -0.314608)
(-0.785144 -0.0335797 -0.196152)
(-0.923957 -0.0685754 -0.333629)
(-0.926798 -0.0694461 -0.310553)
(-0.935171 -0.0905454 -0.360381)
(-0.901608 -0.0618496 -0.312699)
(-0.857281 -0.0369005 -0.25548)
(-0.824719 -0.0402524 -0.218211)
(-0.928187 -0.0840207 -0.340948)
(-0.775768 -0.130818 -0.415909)
(-0.781022 -0.132022 -0.407816)
(-0.827452 -0.1407 -0.443292)
(-0.867024 -0.149656 -0.470403)
(-0.630822 -0.0969733 -0.310322)
(-0.651988 -0.103824 -0.318285)
(-0.627781 -0.0850159 -0.30146)
(-0.832504 -0.139821 -0.447983)
(-0.817912 -0.128055 -0.424174)
(-0.854154 -0.138066 -0.453373)
(-0.661947 -0.10235 -0.323389)
(-0.809353 -0.129798 -0.421385)
(-0.715893 -0.101524 -0.356295)
(-0.694978 -0.107904 -0.344442)
(-0.774111 -0.0834413 -0.24555)
(-0.774552 -0.100198 -0.269064)
(-0.723429 -0.0806359 -0.231304)
(-0.945271 -0.124696 -0.38401)
(-0.928544 -0.120561 -0.36256)
(-0.89117 -0.125747 -0.335636)
(-0.830415 -0.108073 -0.299882)
(-0.781373 -0.0979975 -0.254491)
(-0.817281 -0.0834589 -0.272971)
(-0.804973 -0.0778427 -0.254973)
(-0.911718 -0.113218 -0.368086)
(-0.880112 -0.115563 -0.31064)
(-0.831037 -0.07949 -0.27934)
(-0.791963 -0.0655963 -0.246181)
(-0.791892 -0.0640403 -0.237291)
(-0.752294 -0.0670034 -0.214692)
(-0.87018 -0.0971472 -0.329302)
(-0.822947 -0.0851043 -0.264007)
(-0.964622 -0.154664 -0.555248)
(-0.927817 -0.149318 -0.532588)
(-0.840887 -0.117705 -0.501725)
(-0.845788 -0.122001 -0.499398)
(-0.866472 -0.117635 -0.505891)
(-0.842882 -0.116422 -0.49921)
(-0.900891 -0.134353 -0.526366)
(-0.982432 -0.159823 -0.56998)
(-0.901562 -0.142173 -0.535734)
(-0.859054 -0.117721 -0.506605)
(-0.850194 -0.114166 -0.490952)
(-0.956784 -0.150845 -0.560299)
(-0.942107 -0.139325 -0.550894)
(-0.927818 -0.148607 -0.542037)
(-0.906671 -0.136157 -0.541792)
(-0.86396 -0.118213 -0.512061)
(-0.942332 -0.146311 -0.558338)
(-0.930026 -0.145438 -0.559046)
(-0.872684 -0.107468 -0.462185)
(-0.934077 -0.132499 -0.501687)
(-0.903103 -0.118914 -0.479908)
(-0.905177 -0.118583 -0.481566)
(-0.881127 -0.0970434 -0.473146)
(-0.928946 -0.1241 -0.498321)
(-0.942714 -0.132299 -0.506963)
(-0.882068 -0.110416 -0.465758)
(-0.950618 -0.134107 -0.503971)
(-0.917826 -0.112817 -0.485954)
(-0.930283 -0.120749 -0.494784)
(-0.903596 -0.109344 -0.470291)
(-0.954865 -0.132778 -0.506622)
(-0.948074 -0.137184 -0.513932)
(-0.995509 -0.14417 -0.521879)
(-0.990665 -0.139304 -0.517417)
(-1.00239 -0.140457 -0.513387)
(-0.967888 -0.129318 -0.498252)
(-0.92508 -0.115037 -0.481387)
(-0.887099 -0.140075 -0.563668)
(-0.930139 -0.167338 -0.568804)
(-0.866545 -0.141447 -0.568449)
(-0.887866 -0.147937 -0.563687)
(-0.933489 -0.170748 -0.592433)
(-0.944549 -0.174792 -0.581185)
(-0.939838 -0.16324 -0.582446)
(-0.957763 -0.171879 -0.583185)
(-0.951653 -0.172971 -0.589743)
(-0.933623 -0.165374 -0.574714)
(-0.934617 -0.170807 -0.564322)
(-0.92859 -0.163121 -0.519505)
(-0.89274 -0.158168 -0.50945)
(-0.919079 -0.161395 -0.524037)
(-0.963117 -0.169078 -0.552941)
(-0.98445 -0.164104 -0.553039)
(-0.891533 -0.15812 -0.498658)
(-0.931121 -0.167444 -0.521348)
(-0.967729 -0.169063 -0.567905)
(-0.915571 -0.159871 -0.547376)
(-0.912812 -0.158904 -0.528483)
(-0.927275 -0.15942 -0.544653)
(-0.945098 -0.159842 -0.567987)
(-0.966939 -0.166186 -0.565411)
(-0.926744 -0.15995 -0.552438)
(-0.945697 -0.157425 -0.567914)
(-0.934242 -0.153473 -0.558758)
(-0.753794 -0.101417 -0.4726)
(-0.796146 -0.120029 -0.448901)
(-0.731896 -0.100283 -0.472101)
(-0.701021 -0.0944129 -0.425111)
(-0.732308 -0.101492 -0.415193)
(-0.821757 -0.139513 -0.44155)
(-0.760235 -0.108798 -0.487226)
(-0.812099 -0.129246 -0.466099)
(-0.734177 -0.100111 -0.473571)
(-0.70137 -0.0968197 -0.416344)
(-0.756069 -0.109635 -0.422487)
(-0.823086 -0.14476 -0.439121)
(-0.725186 -0.0958136 -0.490581)
(-0.808732 -0.141835 -0.478705)
(-0.740175 -0.104222 -0.44066)
(-0.829926 -0.146892 -0.455891)
(-0.77958 -0.112293 -0.496237)
(-0.766011 -0.10989 -0.461339)
(-0.725006 -0.104332 -0.35876)
(-0.735772 -0.0998244 -0.388462)
(-0.672801 -0.0882155 -0.334774)
(-0.727338 -0.0959446 -0.381405)
(-0.786871 -0.116683 -0.426403)
(-0.82902 -0.127962 -0.428997)
(-0.880697 -0.135436 -0.474218)
(-0.861142 -0.128827 -0.456433)
(-0.750417 -0.102104 -0.379717)
(-0.740466 -0.102139 -0.364248)
(-0.856777 -0.133617 -0.465418)
(-0.6558 -0.0760317 -0.34078)
(-0.799457 -0.121252 -0.432672)
(-0.898459 -0.140178 -0.487771)
(-0.804129 -0.120519 -0.429127)
(-0.734538 -0.102333 -0.379998)
(-0.783778 -0.118404 -0.418329)
(-0.829581 -0.118562 -0.419924)
(-0.853468 -0.125571 -0.42529)
(-0.897706 -0.131957 -0.454183)
(-0.928506 -0.129863 -0.472827)
(-0.881189 -0.138729 -0.462491)
(-0.932662 -0.15026 -0.503432)
(-0.945794 -0.154002 -0.517179)
(-0.947027 -0.146037 -0.513055)
(-0.94816 -0.154883 -0.517132)
(-0.939055 -0.15312 -0.514413)
(-0.905603 -0.132004 -0.522952)
(-0.948536 -0.148681 -0.538292)
(-0.898872 -0.139487 -0.515203)
(-0.883454 -0.131407 -0.514527)
(-0.888722 -0.124017 -0.509964)
(-0.863439 -0.107251 -0.490532)
(-0.931606 -0.142655 -0.52533)
(-0.913493 -0.141428 -0.521729)
(-0.922047 -0.14685 -0.524678)
(-0.870291 -0.106215 -0.502947)
(-0.867272 -0.109447 -0.511637)
(-0.863555 -0.122151 -0.487297)
(-0.852623 -0.1339 -0.478784)
(-0.908262 -0.1461 -0.518905)
(-0.84993 -0.127109 -0.477193)
(-0.836822 -0.131071 -0.462707)
(-0.933105 -0.157801 -0.534938)
(-0.912634 -0.142531 -0.509523)
(-0.927526 -0.1589 -0.511989)
(-0.944727 -0.157109 -0.529403)
(-0.925568 -0.160755 -0.535713)
(-0.927598 -0.158379 -0.512215)
(-0.894594 -0.139331 -0.50451)
(-1.01873 -0.0995631 -0.504984)
(-0.994669 -0.0867963 -0.489482)
(-1.03839 -0.107258 -0.516141)
(-1.03223 -0.0973515 -0.504646)
(-0.982194 -0.0884017 -0.491038)
(-1.0026 -0.104273 -0.503737)
(-1.00836 -0.0939389 -0.500942)
(-1.04444 -0.142937 -0.545634)
(-1.0454 -0.131549 -0.533151)
(-1.05478 -0.139368 -0.539497)
(-1.0597 -0.138597 -0.536421)
(-1.04334 -0.143042 -0.540913)
(-1.04669 -0.13568 -0.537052)
(-1.00986 -0.136199 -0.525973)
(-1.00828 -0.112511 -0.507692)
(-1.04817 -0.140892 -0.532975)
(-1.0283 -0.15206 -0.550074)
(-1.022 -0.129229 -0.534222)
(-1.04006 -0.123062 -0.539785)
(-1.04968 -0.14721 -0.550249)
(-0.943057 -0.171853 -0.595702)
(-0.93041 -0.168466 -0.588229)
(-0.905556 -0.170193 -0.545048)
(-0.903608 -0.162852 -0.544088)
(-0.909187 -0.165333 -0.560715)
(-0.90026 -0.16557 -0.554532)
(-0.928055 -0.170688 -0.584408)
(-0.874196 -0.156663 -0.507368)
(-0.896543 -0.15896 -0.53131)
(-0.962665 -0.169756 -0.589518)
(-0.952249 -0.169312 -0.583414)
(-0.88521 -0.154563 -0.517094)
(-0.933748 -0.164653 -0.552311)
(-0.901563 -0.15937 -0.536754)
(-0.918972 -0.166381 -0.553513)
(-0.91058 -0.161458 -0.54957)
(-0.869673 -0.143926 -0.500361)
(-0.919505 -0.165392 -0.549949)
(-0.886152 -0.150251 -0.513884)
(-0.989468 -0.156282 -0.528719)
(-1.00861 -0.162547 -0.496275)
(-0.981699 -0.155246 -0.47841)
(-0.975728 -0.139034 -0.474724)
(-0.949624 -0.143149 -0.477134)
(-0.947317 -0.121858 -0.449882)
(-1.00044 -0.151672 -0.517234)
(-1.01112 -0.15632 -0.499883)
(-0.954149 -0.138278 -0.471886)
(-0.986622 -0.138605 -0.474132)
(-1.01816 -0.155268 -0.48269)
(-0.984224 -0.138613 -0.454405)
(-0.954994 -0.133884 -0.506435)
(-0.989052 -0.143341 -0.518503)
(-0.964105 -0.133546 -0.498668)
(-0.955224 -0.129753 -0.45)
(-0.931057 -0.127762 -0.447081)
(-1.06333 -0.133309 -0.534223)
(-1.05819 -0.122133 -0.52965)
(-1.01124 -0.1174 -0.509504)
(-1.0029 -0.103859 -0.493852)
(-0.990067 -0.112266 -0.504742)
(-0.999922 -0.0948599 -0.487533)
(-1.04057 -0.104094 -0.521531)
(-1.00265 -0.0863902 -0.501627)
(-1.02229 -0.0904396 -0.506166)
(-1.01803 -0.0919469 -0.499516)
(-1.01376 -0.114104 -0.514883)
(-1.0086 -0.0998643 -0.493544)
(-1.00228 -0.0707342 -0.480761)
(-0.591958 -0.0627865 -0.338504)
(-0.581703 -0.0605709 -0.327085)
(-0.592891 -0.0691933 -0.345381)
(-0.57185 -0.0577026 -0.317903)
(-0.541828 -0.0525086 -0.301207)
(-0.632544 -0.0867429 -0.389484)
(-0.63614 -0.0845364 -0.391212)
(-0.579962 -0.0725491 -0.353281)
(-0.587221 -0.0837598 -0.356952)
(-0.536591 -0.0524268 -0.303074)
(-0.572286 -0.0666702 -0.334809)
(-0.545148 -0.0583688 -0.316795)
(-0.543655 -0.0545183 -0.31087)
(-0.64149 -0.0931948 -0.40171)
(-0.638414 -0.0961982 -0.400179)
(-0.551988 -0.0626541 -0.319581)
(-0.618453 -0.0892311 -0.386875)
(-0.613652 -0.0914108 -0.378884)
(-0.578793 -0.0640831 -0.339436)
(-0.622287 -0.0895467 -0.380343)
(-0.58545 -0.0752733 -0.34809)
(-0.6182 -0.0904805 -0.379677)
(-0.86214 -0.17562 -0.548087)
(-0.880507 -0.188146 -0.549911)
(-0.679071 -0.121341 -0.419296)
(-0.70147 -0.134299 -0.433723)
(-0.772625 -0.14952 -0.493854)
(-0.824593 -0.166179 -0.526077)
(-0.734277 -0.140649 -0.452766)
(-0.740984 -0.144404 -0.460631)
(-0.729726 -0.135026 -0.45947)
(-0.726683 -0.14019 -0.451715)
(-0.876801 -0.188192 -0.550587)
(-0.702781 -0.138013 -0.432416)
(-0.702873 -0.135237 -0.432285)
(-0.755873 -0.1404 -0.467725)
(-0.782112 -0.148864 -0.487348)
(-0.846817 -0.174089 -0.520465)
(-0.851215 -0.173628 -0.530424)
(-0.815161 -0.179966 -0.515016)
(-0.772484 -0.163713 -0.477117)
(-0.787071 -0.167879 -0.481224)
(-0.707455 -0.129388 -0.431597)
(-0.732421 -0.150194 -0.44444)
(-0.797515 -0.162629 -0.486159)
(-0.7601 -0.120938 -0.430286)
(-0.710057 -0.117367 -0.394397)
(-0.842102 -0.154586 -0.471938)
(-0.735902 -0.126204 -0.38613)
(-0.824616 -0.158369 -0.464859)
(-0.862078 -0.155107 -0.476474)
(-0.701209 -0.117591 -0.399617)
(-0.826777 -0.150651 -0.466947)
(-0.799747 -0.140997 -0.461942)
(-0.765237 -0.139054 -0.420313)
(-0.755932 -0.127905 -0.42677)
(-0.563982 -0.0243268 -0.252918)
(-0.590842 -0.0302257 -0.279269)
(-0.658016 -0.0412456 -0.313161)
(-0.636088 -0.0356393 -0.29559)
(-0.527071 -0.00328975 -0.209198)
(-0.539525 -0.00467742 -0.219835)
(-0.635432 -0.037959 -0.272283)
(-0.588507 -0.0227165 -0.229736)
(-0.532581 -0.00881498 -0.19643)
(-0.498614 -0.00636712 -0.179282)
(-0.534801 -0.0124638 -0.194347)
(-0.553164 -0.0207889 -0.21256)
(-0.697064 -0.137902 -0.395005)
(-0.641509 -0.133989 -0.380748)
(-0.622491 -0.130124 -0.3741)
(-0.801332 -0.154907 -0.453989)
(-0.582657 -0.114235 -0.34171)
(-0.642418 -0.129696 -0.375212)
(-0.631266 -0.121937 -0.35118)
(-0.570842 -0.105773 -0.319012)
(-0.7843 -0.162028 -0.454978)
(-0.746667 -0.156257 -0.437518)
(-0.855729 -0.160701 -0.425072)
(-0.861842 -0.147495 -0.432568)
(-0.847424 -0.1697 -0.399601)
(-0.831279 -0.171517 -0.388527)
(-0.848288 -0.150947 -0.427359)
(-0.83181 -0.140236 -0.413967)
(-0.825464 -0.126979 -0.414608)
(-0.832452 -0.160123 -0.3885)
(-0.792388 -0.129475 -0.37115)
(-0.801048 -0.138633 -0.359533)
(-0.793235 -0.126161 -0.359057)
(-0.735595 -0.130958 -0.309696)
(-0.738063 -0.131946 -0.310071)
(-0.756648 -0.142901 -0.502786)
(-0.747672 -0.148589 -0.497273)
(-0.791218 -0.152486 -0.526502)
(-0.816539 -0.166108 -0.522959)
(-0.764965 -0.15449 -0.482045)
(-0.746074 -0.145554 -0.479339)
(-0.772897 -0.151392 -0.500066)
(-0.700416 -0.121755 -0.452431)
(-0.712337 -0.134176 -0.45553)
(-0.699051 -0.12044 -0.476539)
(-0.823073 -0.15668 -0.542701)
(-0.800432 -0.143161 -0.521237)
(-0.70184 -0.121229 -0.451314)
(-0.703263 -0.124168 -0.442289)
(-0.773909 -0.145323 -0.515304)
(-0.728229 -0.137577 -0.455359)
(-0.767653 -0.142844 -0.496477)
(-0.927242 -0.15509 -0.509364)
(-0.931307 -0.151916 -0.531482)
(-0.930726 -0.142859 -0.505874)
(-0.847598 -0.116528 -0.450947)
(-0.958929 -0.162021 -0.545818)
(-0.942888 -0.148182 -0.53788)
(-0.893353 -0.131695 -0.482201)
(-0.901716 -0.135009 -0.499383)
(-0.801352 -0.0974419 -0.416119)
(-0.916549 -0.147629 -0.507256)
(-0.820412 -0.108845 -0.437154)
(-0.873679 -0.120451 -0.462618)
(-0.791876 -0.10834 -0.411643)
(-0.881042 -0.124796 -0.477594)
(-0.935571 -0.144151 -0.521434)
(-0.797181 -0.0954062 -0.41852)
(-0.932387 -0.152755 -0.515216)
(-0.915004 -0.134968 -0.48898)
(-0.913768 -0.137646 -0.50001)
(-0.815946 -0.103978 -0.422494)
(-0.582044 -0.0735662 -0.341667)
(-0.592336 -0.082092 -0.351909)
(-0.622739 -0.0866205 -0.371559)
(-0.558201 -0.0747505 -0.334016)
(-0.608436 -0.0807341 -0.362343)
(-0.577037 -0.084438 -0.3396)
(-0.538216 -0.0610281 -0.317585)
(-0.566659 -0.078722 -0.331271)
(-0.550001 -0.0699307 -0.314037)
(-0.692986 -0.109082 -0.398493)
(-0.714118 -0.119515 -0.412524)
(-0.523165 -0.0529941 -0.303226)
(-0.544271 -0.0600555 -0.326945)
(-0.494375 -0.0501743 -0.290028)
(-0.686578 -0.110057 -0.394185)
(-0.642612 -0.0993369 -0.372149)
(-0.532156 -0.068384 -0.3083)
(-0.795432 -0.083075 -0.364935)
(-0.82024 -0.0848561 -0.377124)
(-0.793625 -0.0888713 -0.364456)
(-0.778042 -0.0588249 -0.307021)
(-0.761193 -0.0570024 -0.292491)
(-0.733522 -0.0682854 -0.314762)
(-0.691685 -0.0697467 -0.294031)
(-0.73285 -0.0723069 -0.307437)
(-0.705384 -0.0683102 -0.284688)
(-0.746617 -0.0526728 -0.293478)
(-0.723301 -0.0553336 -0.276447)
(-0.680804 -0.0516361 -0.255569)
(-0.676933 -0.0544928 -0.367544)
(-0.696288 -0.0589177 -0.367404)
(-0.615293 -0.0439997 -0.301308)
(-0.646259 -0.0443581 -0.320641)
(-0.675829 -0.0610016 -0.376842)
(-0.642926 -0.045867 -0.335591)
(-0.725449 -0.0746163 -0.418387)
(-0.728096 -0.0719848 -0.413208)
(-0.749209 -0.0861923 -0.415105)
(-0.74291 -0.0772584 -0.396264)
(-0.662684 -0.0539226 -0.341431)
(-0.682463 -0.0471447 -0.32856)
(-0.659108 -0.0622034 -0.360566)
(-0.660833 -0.0638281 -0.36505)
(-0.688481 -0.0488851 -0.342183)
(-0.644272 -0.0318568 -0.313147)
(-0.695018 -0.070501 -0.388207)
(-0.688428 -0.0699844 -0.404039)
(-0.720798 -0.0791081 -0.420366)
(-0.719722 -0.079799 -0.392682)
(-0.712294 -0.0620765 -0.363505)
(-0.70053 -0.0607852 -0.354182)
(-0.639306 -0.0191966 -0.303536)
(-0.652047 -0.0236593 -0.31847)
(-0.631654 -0.0176315 -0.299652)
(-0.589048 -0.0080577 -0.276303)
(-0.636779 -0.0136455 -0.304267)
(-0.662224 -0.0151926 -0.320275)
(-0.645334 -0.0160824 -0.307504)
(-0.62899 -0.00595381 -0.282506)