/*--------------------------------*- C++ -*----------------------------------*\
| =========                 |                                                 |
| \\      /  F ield         | OpenFOAM: The Open Source CFD Toolbox           |
|  \\    /   O peration     | Version:  v1612+                                |
|   \\  /    A nd           | Web:      www.OpenFOAM.com                      |
|    \\/     M anipulation  |                                                 |
\*---------------------------------------------------------------------------*/
FoamFile
{
    version     2.0;
    format      ascii;
    class       volVectorField;
    location    "100";
    object      U;
}
// * * * * * * * * * * * * * * * * * * * * * * * * * * * * * * * * * * * * * //

dimensions      [0 1 -1 0 0 0 0];

internalField   nonuniform List<vector> 
16890
(
(0.248814 0.563945 0.152197)
(0.421902 0.60913 0.270585)
(0.339981 0.379292 0.115731)
(0.17529 0.33395 0.0594429)
(0.19781 0.341118 0.0593702)
(0.187235 0.329145 0.0623047)
(0.164306 0.313858 0.0628923)
(0.23674 0.469611 0.0816697)
(0.218869 0.420569 0.0845387)
(0.191053 0.375421 0.057903)
(0.216487 0.363438 0.0442394)
(0.174143 0.352232 0.0689792)
(0.223687 0.393244 0.0724091)
(0.22088 0.479821 0.101233)
(0.182464 0.372526 0.0828562)
(0.250014 0.420461 0.0604718)
(0.281601 0.522013 0.0732068)
(0.186518 0.400998 0.0776268)
(0.597821 0.730378 0.168917)
(0.572407 0.716074 0.154499)
(0.565914 0.767344 0.217905)
(0.590905 0.761093 0.215277)
(0.611509 0.793438 0.237477)
(0.59971 0.804796 0.26103)
(0.551631 0.775248 0.251827)
(0.55247 0.771812 0.24284)
(0.530625 0.751842 0.223765)
(0.552622 0.768533 0.232059)
(0.602847 0.750069 0.188771)
(0.575266 0.781272 0.240685)
(0.562423 0.78024 0.2225)
(0.518431 0.743448 0.200971)
(0.57078 0.683017 0.150504)
(0.54962 0.661731 0.136253)
(0.531444 0.632477 0.139868)
(0.517162 0.665089 0.155504)
(0.556871 0.702488 0.181038)
(0.596446 0.696709 0.318523)
(0.62853 0.716846 0.322609)
(0.704313 0.809675 0.369021)
(0.690155 0.788913 0.340737)
(0.695483 0.79823 0.379613)
(0.658767 0.795735 0.400287)
(0.539353 0.57902 0.228779)
(0.611469 0.671845 0.283736)
(0.661497 0.733497 0.311507)
(0.696267 0.793847 0.368718)
(0.614776 0.677642 0.299617)
(0.580935 0.682021 0.316526)
(0.620435 0.693058 0.297647)
(0.697996 0.797327 0.375917)
(0.583234 0.674992 0.319639)
(0.674741 0.787091 0.401595)
(0.35437 0.601158 0.117459)
(0.354233 0.641811 0.160444)
(0.364252 0.60564 0.0952306)
(0.359118 0.601914 0.104136)
(0.453642 0.591416 0.0585318)
(0.41393 0.617925 0.082901)
(0.426019 0.702205 0.13054)
(0.43705 0.558525 0.0338542)
(0.469747 0.65157 0.0503814)
(0.386272 0.695208 0.161617)
(0.452149 0.508507 0.0294511)
(0.468243 0.597707 0.0436499)
(0.388949 0.640037 0.117986)
(0.426998 0.540385 0.070993)
(0.47214 0.62095 0.0459592)
(0.439993 0.712471 0.12509)
(0.453795 0.743887 0.132252)
(0.387265 0.70472 0.175606)
(0.372157 0.663932 0.150553)
(0.414469 0.572468 0.0623575)
(0.427576 0.733214 0.150794)
(0.280678 0.68724 0.164556)
(0.300352 0.725897 0.183698)
(0.31262 0.758814 0.205069)
(0.201575 0.603095 0.159401)
(0.222594 0.626457 0.159722)
(0.270833 0.719943 0.226901)
(0.253841 0.691444 0.220858)
(0.203252 0.579292 0.161776)
(0.174077 0.548755 0.163156)
(0.201979 0.596875 0.189414)
(0.1936 0.59907 0.195189)
(0.543591 0.590737 0.0641226)
(0.553821 0.573868 0.0486252)
(0.556112 0.575702 0.0435231)
(0.544108 0.607075 0.0756554)
(0.542011 0.704991 0.166521)
(0.539581 0.580536 0.108848)
(0.569724 0.567385 0.0654928)
(0.55811 0.626984 0.17923)
(0.54801 0.640974 0.185872)
(0.55174 0.641238 0.158446)
(0.560814 0.675312 0.218642)
(0.570916 0.649434 0.161353)
(0.562786 0.634967 0.176589)
(0.549824 0.566645 0.0894694)
(0.567678 0.606111 0.115346)
(0.570232 0.615849 0.154013)
(0.553581 0.590507 0.121581)
(0.675553 0.857595 0.292622)
(0.629597 0.828714 0.275594)
(0.598038 0.812174 0.264568)
(0.595117 0.717582 0.176949)
(0.633623 0.773681 0.188513)
(0.596957 0.804999 0.253032)
(0.615579 0.731119 0.177505)
(0.550713 0.708938 0.182955)
(0.576455 0.70434 0.181351)
(0.583372 0.783521 0.239248)
(0.538961 0.559387 0.2303)
(0.394778 0.432217 0.0829064)
(0.416165 0.390015 0.0750896)
(0.42982 0.40594 0.0835336)
(0.445601 0.425992 0.149708)
(0.454806 0.429669 0.162378)
(0.456162 0.448148 0.164352)
(0.479798 0.463903 0.217279)
(0.424848 0.384574 0.109158)
(0.498011 0.49578 0.219604)
(0.558511 0.759473 0.343214)
(0.609361 0.790117 0.346276)
(0.559232 0.773197 0.3422)
(0.591016 0.788913 0.34451)
(0.530626 0.726549 0.32516)
(0.551022 0.742266 0.334957)
(0.524148 0.680413 0.308154)
(0.501365 0.666716 0.30336)
(0.58998 0.782509 0.347132)
(0.524078 0.694877 0.31763)
(0.548829 0.698151 0.317716)
(0.535203 0.675569 0.309514)
(0.62046 0.786278 0.343739)
(0.585188 0.743779 0.33714)
(0.578396 0.724837 0.330473)
(0.486721 0.504454 0.222883)
(0.488314 0.522166 0.226551)
(0.50663 0.543636 0.248379)
(0.485194 0.472657 0.174646)
(0.478296 0.485489 0.165688)
(0.523047 0.596984 0.280886)
(0.518855 0.592183 0.26613)
(0.486867 0.451591 0.0951656)
(0.471901 0.457757 0.0772518)
(0.446088 0.409551 0.0967104)
(0.489715 0.504352 0.140645)
(0.591009 0.639908 0.259957)
(0.57869 0.638027 0.251111)
(0.509104 0.503814 0.171556)
(0.481882 0.466136 0.107153)
(0.501463 0.524722 0.152249)
(0.519235 0.574828 0.145276)
(0.528389 0.58285 0.133562)
(0.533752 0.564922 0.173018)
(0.542868 0.575248 0.203156)
(0.543046 0.586513 0.179139)
(0.571167 0.603846 0.140061)
(0.564249 0.61054 0.144082)
(0.547842 0.576078 0.201511)
(0.565444 0.59175 0.190346)
(0.588623 0.595099 0.178266)
(0.589094 0.607954 0.182318)
(0.627178 0.658363 0.205511)
(0.609251 0.646728 0.219296)
(0.631691 0.665281 0.243312)
(0.641361 0.658292 0.232634)
(0.586169 0.6248 0.236322)
(0.575323 0.615249 0.244257)
(0.62581 0.577987 0.16755)
(0.61936 0.574083 0.195411)
(0.650388 0.643655 0.267012)
(0.63592 0.629205 0.259443)
(0.590517 0.613927 0.133153)
(0.608463 0.636007 0.215526)
(0.599133 0.517271 0.00791758)
(0.588251 0.520486 0.00406316)
(0.623558 0.62996 0.244949)
(0.61655 0.554514 0.0761142)
(0.581522 0.575635 0.0933596)
(0.599899 0.639723 0.214442)
(0.448582 0.606715 0.263724)
(0.453612 0.593649 0.25953)
(0.430384 0.587894 0.254548)
(0.467309 0.629047 0.26829)
(0.520009 0.68543 0.310018)
(0.504588 0.682061 0.296127)
(0.382672 0.530617 0.229053)
(0.439704 0.583748 0.256681)
(0.39877 0.538008 0.233015)
(0.536326 0.71723 0.312973)
(0.434013 0.579877 0.257462)
(0.455159 0.607096 0.278072)
(0.568182 0.752083 0.331907)
(0.547 0.733023 0.327241)
(0.537233 0.708843 0.319135)
(0.512235 0.673818 0.31139)
(0.535901 0.71912 0.314536)
(0.517897 0.715352 0.311879)
(0.424985 0.582374 0.252038)
(0.47022 0.635568 0.270366)
(0.521687 0.689778 0.320525)
(0.462468 0.618238 0.274264)
(0.631689 0.772838 0.296653)
(0.639707 0.801211 0.295194)
(0.65254 0.795435 0.305022)
(0.648352 0.811214 0.291491)
(0.608527 0.75058 0.277383)
(0.523352 0.616188 0.242555)
(0.495492 0.592361 0.212855)
(0.606796 0.750014 0.291395)
(0.561567 0.68755 0.262507)
(0.540388 0.65001 0.244707)
(0.526518 0.628866 0.246413)
(0.503138 0.60664 0.221573)
(0.495242 0.595663 0.213863)
(0.503679 0.60056 0.239545)
(0.581826 0.713449 0.285205)
(0.627746 0.770289 0.286634)
(0.550619 0.692775 0.254387)
(0.608095 0.763415 0.28616)
(0.49444 0.608094 0.213715)
(0.570593 0.463472 0.252761)
(0.546894 0.43928 0.28225)
(0.548967 0.489222 0.339231)
(0.571457 0.478098 0.282614)
(0.51734 0.448238 0.295455)
(0.50025 0.413665 0.233039)
(0.451729 0.372343 0.209106)
(0.389904 0.33737 0.206904)
(0.370916 0.331712 0.220257)
(0.536574 0.478203 0.327303)
(0.548622 0.466461 0.293483)
(0.407567 0.347275 0.205446)
(0.402607 0.347166 0.230199)
(0.412998 0.384827 0.252395)
(0.382708 0.360371 0.236126)
(0.499831 0.424844 0.228317)
(0.454258 0.4024 0.279108)
(0.41731 0.390259 0.268151)
(0.454774 0.409403 0.267619)
(0.56013 0.570743 0.348846)
(0.545926 0.541656 0.326208)
(0.473454 0.487046 0.28883)
(0.433512 0.453742 0.278934)
(0.460292 0.502064 0.311823)
(0.444194 0.492822 0.301935)
(0.400137 0.44256 0.256273)
(0.438385 0.444819 0.26514)
(0.411762 0.433019 0.24785)
(0.396746 0.405654 0.23927)
(0.407513 0.43272 0.258589)
(0.441229 0.487449 0.293134)
(0.469517 0.519183 0.318546)
(0.398998 0.422612 0.236446)
(0.380219 0.406035 0.237429)
(0.530607 0.555929 0.337885)
(0.543744 0.565688 0.344336)
(0.547111 0.581296 0.339889)
(0.556187 0.58083 0.343695)
(0.465901 0.502709 0.295032)
(0.45475 0.576203 0.335088)
(0.446549 0.571022 0.329079)
(0.617357 0.689811 0.421574)
(0.595504 0.676311 0.415155)
(0.466677 0.549832 0.33323)
(0.494429 0.610193 0.352449)
(0.494425 0.630144 0.364167)
(0.55441 0.612129 0.378847)
(0.581249 0.643231 0.400752)
(0.567008 0.652777 0.390142)
(0.575759 0.685265 0.397445)
(0.589589 0.707893 0.415878)
(0.571167 0.702891 0.410201)
(0.473222 0.548243 0.33678)
(0.415038 0.517599 0.318725)
(0.467641 0.563156 0.351654)
(0.498584 0.563272 0.354806)
(0.512112 0.641475 0.383884)
(0.541645 0.72632 0.266013)
(0.552969 0.752423 0.285157)
(0.476189 0.646108 0.240839)
(0.418116 0.55385 0.213848)
(0.546471 0.744785 0.279338)
(0.535103 0.735868 0.287923)
(0.560624 0.764403 0.290681)
(0.426767 0.572975 0.216542)
(0.402455 0.550285 0.21213)
(0.449468 0.611951 0.234727)
(0.408539 0.566078 0.217612)
(0.499384 0.687732 0.268084)
(0.504181 0.682432 0.264695)
(0.427457 0.580334 0.221225)
(0.457801 0.631565 0.252244)
(0.435484 0.606397 0.237804)
(0.465919 0.628792 0.249272)
(0.448919 0.609106 0.230511)
(0.339814 0.42953 0.127502)
(0.314308 0.397896 0.120111)
(0.373434 0.47832 0.133697)
(0.322867 0.41662 0.120802)
(0.326782 0.411669 0.125899)
(0.423713 0.535085 0.13902)
(0.322935 0.42462 0.120944)
(0.371796 0.485989 0.128063)
(0.352669 0.473058 0.124936)
(0.408269 0.501941 0.142793)
(0.35178 0.444327 0.130816)
(0.316482 0.416899 0.120843)
(0.483953 0.636614 0.122951)
(0.487167 0.654628 0.111733)
(0.549559 0.724283 0.198156)
(0.563824 0.621926 0.142756)
(0.608114 0.721758 0.198468)
(0.639048 0.765018 0.238708)
(0.636262 0.827658 0.252957)
(0.546089 0.657922 0.126754)
(0.468875 0.564872 0.065)
(0.504458 0.662724 0.147915)
(0.485149 0.652216 0.137853)
(0.466944 0.605973 0.087392)
(0.455327 0.537962 0.0355733)
(0.429126 0.520194 0.0354805)
(0.502602 0.564466 0.0837521)
(0.517139 0.614597 0.133898)
(0.476437 0.512022 0.0242044)
(0.517121 0.545003 0.044483)
(0.464746 0.572391 0.0822153)
(0.552577 0.67359 0.270273)
(0.558135 0.676841 0.276309)
(0.597267 0.739469 0.307796)
(0.592015 0.723212 0.304463)
(0.568834 0.69209 0.28009)
(0.599402 0.738183 0.303034)
(0.598659 0.741049 0.312757)
(0.596017 0.726374 0.287611)
(0.600347 0.732103 0.291561)
(0.613084 0.754108 0.30163)
(0.590415 0.704224 0.267584)
(0.64445 0.778671 0.312701)
(0.610851 0.75198 0.291971)
(0.655058 0.794679 0.310743)
(0.678574 0.817662 0.311072)
(0.689602 0.830981 0.316153)
(0.343602 0.560265 0.108554)
(0.371429 0.60071 0.102236)
(0.352828 0.569905 0.123444)
(0.359142 0.52539 0.103743)
(0.339856 0.523167 0.118862)
(0.352191 0.565767 0.13098)
(0.418845 0.494113 0.0764951)
(0.415979 0.48765 0.0733153)
(0.340792 0.560766 0.11411)
(0.363475 0.630767 0.142964)
(0.378022 0.625091 0.127611)
(0.399882 0.503752 0.0793988)
(0.46802 0.586691 0.156843)
(0.560935 0.669729 0.188805)
(0.40295 0.489702 0.0765724)
(0.470483 0.564193 0.138691)
(0.59097 0.674206 0.22026)
(0.56054 0.574656 0.195405)
(0.554421 0.601604 0.197088)
(0.586788 0.703278 0.349441)
(0.530533 0.62451 0.304661)
(0.590127 0.714544 0.349721)
(0.565517 0.670798 0.327517)
(0.605879 0.724931 0.353397)
(0.586885 0.678389 0.334092)
(0.557041 0.649069 0.316877)
(0.648824 0.77936 0.379884)
(0.621062 0.722443 0.331452)
(0.544602 0.635486 0.293354)
(0.651843 0.782473 0.379393)
(0.643622 0.749825 0.360079)
(0.611752 0.711466 0.341921)
(0.66126 0.777897 0.373135)
(0.606647 0.702102 0.32246)
(0.649727 0.759293 0.342502)
(0.666722 0.779839 0.37052)
(0.675242 0.782966 0.362321)
(0.26323 0.707109 0.206792)
(0.261384 0.679973 0.191878)
(0.365601 0.805924 0.27984)
(0.333132 0.775032 0.270505)
(0.320156 0.754443 0.180401)
(0.295581 0.720727 0.188042)
(0.301522 0.731798 0.204335)
(0.334704 0.788099 0.254259)
(0.302589 0.75917 0.238055)
(0.352664 0.816709 0.236235)
(0.341805 0.794207 0.235946)
(0.338953 0.792991 0.215999)
(0.3434 0.79718 0.200064)
(0.403728 0.437855 0.184437)
(0.411163 0.444427 0.191146)
(0.493362 0.516406 0.234344)
(0.474182 0.498556 0.221002)
(0.521194 0.517962 0.213607)
(0.496173 0.514409 0.215156)
(0.376983 0.414463 0.163761)
(0.361784 0.404356 0.156423)
(0.340452 0.389641 0.146515)
(0.362556 0.411942 0.151287)
(0.341206 0.38643 0.145001)
(0.487167 0.498757 0.207156)
(0.496688 0.511094 0.200347)
(0.493813 0.517173 0.198475)
(0.368444 0.406723 0.154845)
(0.36461 0.41613 0.155257)
(0.399172 0.433157 0.171221)
(0.377959 0.42173 0.158744)
(0.466284 0.481094 0.183094)
(0.448758 0.483442 0.183444)
(0.450018 0.482696 0.174119)
(0.441257 0.475034 0.176334)
(0.529963 0.563109 0.112482)
(0.564199 0.616814 0.147685)
(0.609889 0.670597 0.212602)
(0.54283 0.61203 0.196195)
(0.530293 0.55041 0.0943881)
(0.542379 0.550177 0.0790384)
(0.558863 0.590031 0.0885751)
(0.551016 0.598942 0.227545)
(0.588645 0.653423 0.251391)
(0.537293 0.594859 0.120876)
(0.574734 0.622022 0.168376)
(0.542152 0.632373 0.195541)
(0.61325 0.796182 0.303366)
(0.63035 0.800987 0.306439)
(0.638467 0.829412 0.326503)
(0.615509 0.810799 0.313449)
(0.671539 0.855212 0.30832)
(0.688996 0.860335 0.30722)
(0.653877 0.844962 0.303887)
(0.704584 0.882894 0.315728)
(0.599495 0.762638 0.296071)
(0.557393 0.773849 0.291577)
(0.571909 0.779594 0.309497)
(0.558033 0.759829 0.297455)
(0.529478 0.741396 0.270454)
(0.559294 0.788857 0.265972)
(0.570531 0.827041 0.302786)
(0.483815 0.616015 0.139453)
(0.49181 0.657878 0.154315)
(0.50586 0.668642 0.187097)
(0.483436 0.622249 0.129921)
(0.457346 0.691813 0.207119)
(0.478773 0.665868 0.187899)
(0.472437 0.617602 0.125712)
(0.537854 0.791001 0.28971)
(0.625857 0.816086 0.322517)
(0.62175 0.815247 0.322208)
(0.615711 0.808169 0.332738)
(0.614876 0.788557 0.330251)
(0.60185 0.778451 0.334676)
(0.616415 0.783813 0.333482)
(0.635601 0.810158 0.333647)
(0.629883 0.832703 0.320482)
(0.64161 0.833592 0.320953)
(0.643694 0.834382 0.313409)
(0.62217 0.812532 0.330954)
(0.624325 0.768304 0.308752)
(0.631996 0.772857 0.31917)
(0.660305 0.812913 0.288528)
(0.622472 0.74566 0.291028)
(0.685413 0.861626 0.303501)
(0.681758 0.852788 0.286455)
(0.632611 0.830741 0.321281)
(0.653833 0.800265 0.304305)
(0.665273 0.816239 0.271541)
(0.660367 0.812349 0.29607)
(0.604942 0.726469 0.298384)
(0.550536 0.657057 0.286575)
(0.537947 0.625719 0.277661)
(0.569512 0.70327 0.296126)
(0.386881 0.41677 0.188744)
(0.360818 0.400417 0.176391)
(0.406478 0.437313 0.200285)
(0.433642 0.455125 0.215571)
(0.385825 0.421923 0.190232)
(0.476116 0.5076 0.232506)
(0.422893 0.457765 0.204536)
(0.499942 0.546144 0.276223)
(0.515578 0.556476 0.280488)
(0.435721 0.478644 0.23596)
(0.421334 0.45811 0.224107)
(0.389403 0.427507 0.198687)
(0.517936 0.54267 0.268621)
(0.525998 0.542379 0.265319)
(0.482752 0.513869 0.24811)
(0.399626 0.445104 0.204801)
(0.462811 0.447246 0.0109053)
(0.449702 0.411797 0.0365199)
(0.441257 0.416921 0.0796607)
(0.453057 0.431732 -0.00151038)
(0.474124 0.505253 0.213004)
(0.486169 0.49364 0.197268)
(0.467251 0.460367 0.179022)
(0.468718 0.451193 0.156757)
(0.437575 0.390931 0.0871731)
(0.449074 0.40889 0.0180432)
(0.456796 0.415943 0.152269)
(0.497015 0.473748 0.126846)
(0.500106 0.431257 0.0371154)
(0.447023 0.55385 0.229806)
(0.425703 0.516125 0.214949)
(0.455998 0.5765 0.240273)
(0.38348 0.483429 0.195882)
(0.460703 0.569948 0.226775)
(0.48772 0.607515 0.257164)
(0.510282 0.654217 0.275089)
(0.521506 0.653396 0.26572)
(0.552226 0.710678 0.292219)
(0.556004 0.712368 0.288788)
(0.586509 0.73741 0.288576)
(0.555041 0.698865 0.273876)
(0.54219 0.674998 0.267637)
(0.507243 0.633736 0.249616)
(0.435252 0.611407 0.187155)
(0.415864 0.588285 0.182256)
(0.447407 0.636148 0.187635)
(0.424303 0.599228 0.180246)
(0.488822 0.69573 0.206847)
(0.506004 0.722366 0.223225)
(0.483772 0.686981 0.216636)
(0.475144 0.675966 0.217844)
(0.426141 0.599145 0.183066)
(0.420274 0.582012 0.176023)
(0.423986 0.590388 0.176576)
(0.496482 0.685765 0.194083)
(0.521928 0.732301 0.221855)
(0.423887 0.5857 0.159095)
(0.42095 0.591391 0.161944)
(0.51959 0.725093 0.219533)
(0.43767 0.606278 0.16914)
(0.538973 0.717264 0.196379)
(0.527401 0.706341 0.188286)
(0.478845 0.628801 0.166173)
(0.486733 0.656258 0.181455)
(0.421431 0.799407 0.380255)
(0.406106 0.799725 0.371746)
(0.383498 0.77165 0.363141)
(0.379493 0.74595 0.377974)
(0.44783 0.811296 0.388958)
(0.39678 0.750506 0.401988)
(0.470793 0.775063 0.417587)
(0.441257 0.746894 0.414164)
(0.486924 0.804886 0.425789)
(0.500266 0.801888 0.437156)
(0.455966 0.7644 0.416179)
(0.438084 0.73893 0.413343)
(0.433007 0.803529 0.397419)
(0.422969 0.771474 0.384831)
(0.381757 0.733919 0.37134)
(0.372598 0.697237 0.376734)
(0.440488 0.742619 0.410867)
(0.400616 0.682741 0.383492)
(0.475646 0.80093 0.414859)
(0.445362 0.758931 0.411429)
(0.587869 0.873345 0.412798)
(0.566628 0.86101 0.389941)
(0.549467 0.823407 0.358855)
(0.565968 0.853015 0.396188)
(0.582397 0.875275 0.403638)
(0.586911 0.880048 0.36853)
(0.580488 0.892604 0.359025)
(0.58146 0.875229 0.392437)
(0.458044 0.719062 0.212978)
(0.486996 0.722091 0.249537)
(0.569385 0.876114 0.319)
(0.471509 0.719648 0.239579)
(0.454917 0.738036 0.231906)
(0.567655 0.885526 0.33635)
(0.431092 0.687435 0.200741)
(0.554126 0.846421 0.286169)
(0.537114 0.834274 0.279977)
(0.514322 0.593638 0.298409)
(0.46162 0.532602 0.2643)
(0.560525 0.638559 0.326961)
(0.532688 0.613276 0.312448)
(0.528828 0.600499 0.293619)
(0.507932 0.561917 0.2608)
(0.563679 0.603673 0.279881)
(0.58187 0.620217 0.29123)
(0.56832 0.632827 0.302218)
(0.574518 0.63616 0.314708)
(0.474623 0.52096 0.247626)
(0.547208 0.584774 0.262151)
(0.495248 0.573826 0.293917)
(0.45758 0.5134 0.246449)
(0.528711 0.575349 0.268956)
(0.537989 0.597232 0.300448)
(0.541464 0.591546 0.290437)
(0.44747 0.510314 0.242725)
(0.446316 0.511614 0.241185)
(0.523739 0.568736 0.277474)
(0.493881 0.629145 0.306858)
(0.497301 0.63693 0.303577)
(0.58607 0.727099 0.358405)
(0.560409 0.700089 0.338664)
(0.489538 0.617709 0.300846)
(0.522264 0.717909 0.345136)
(0.552169 0.749868 0.353767)
(0.586267 0.786028 0.36563)
(0.442511 0.570254 0.276148)
(0.467248 0.639962 0.302788)
(0.467029 0.629955 0.302682)
(0.583097 0.747068 0.350963)
(0.473734 0.613203 0.297132)
(0.563507 0.763006 0.360275)
(0.466584 0.629413 0.29972)
(0.535634 0.69637 0.327515)
(0.521698 0.699979 0.329025)
(0.56209 0.765273 0.272542)
(0.527577 0.737347 0.259849)
(0.562781 0.774979 0.278377)
(0.545793 0.759572 0.272828)
(0.53065 0.745022 0.267816)
(0.587857 0.785245 0.274597)
(0.578115 0.802594 0.287518)
(0.627373 0.84144 0.294718)
(0.634995 0.850247 0.296491)
(0.651671 0.875214 0.306805)
(0.629541 0.846288 0.305293)
(0.608865 0.840808 0.306473)
(0.610439 0.848001 0.311938)
(0.600393 0.839612 0.30771)
(0.598629 0.843209 0.299835)
(0.578941 0.802221 0.330102)
(0.570109 0.787744 0.325152)
(0.590213 0.813311 0.327506)
(0.490174 0.68188 0.260836)
(0.454896 0.63594 0.235432)
(0.566771 0.779458 0.310865)
(0.555444 0.778828 0.313927)
(0.448912 0.642961 0.254618)
(0.432054 0.621326 0.244291)
(0.471667 0.666771 0.261368)
(0.459293 0.649184 0.253233)
(0.50971 0.717202 0.285349)
(0.551051 0.767692 0.302296)
(0.477213 0.658874 0.250107)
(0.496712 0.678915 0.265883)
(0.450353 0.640388 0.251165)
(0.485636 0.694435 0.275441)
(0.438169 0.493728 0.162219)
(0.435582 0.48112 0.169597)
(0.492113 0.528989 0.202149)
(0.491069 0.532236 0.183972)
(0.495826 0.537519 0.206847)
(0.438847 0.48592 0.17479)
(0.428801 0.478127 0.172115)
(0.461911 0.509553 0.185135)
(0.517391 0.548659 0.213805)
(0.418787 0.488479 0.152187)
(0.40774 0.466945 0.154464)
(0.473237 0.523448 0.149397)
(0.486282 0.532975 0.148054)
(0.433288 0.503786 0.149966)
(0.420151 0.492614 0.145914)
(0.512753 0.639732 0.11809)
(0.488698 0.553466 0.0659225)
(0.483718 0.661614 0.140876)
(0.523869 0.706415 0.155783)
(0.616552 0.819679 0.246553)
(0.606963 0.809267 0.218957)
(0.550508 0.595622 0.101634)
(0.482835 0.51286 0.0222801)
(0.615653 0.733583 0.197611)
(0.606482 0.670444 0.164006)
(0.488707 0.530043 0.00887458)
(0.48645 0.526942 0.0293319)
(0.608927 0.765883 0.211625)
(0.60919 0.814278 0.244376)
(0.598965 0.80713 0.226239)
(0.644071 0.783298 0.226693)
(0.610283 0.748133 0.204644)
(0.589242 0.681245 0.143001)
(0.434693 0.523029 0.152808)
(0.444263 0.536779 0.15007)
(0.327245 0.419807 0.118096)
(0.360048 0.450142 0.132934)
(0.328972 0.420835 0.12501)
(0.305004 0.395285 0.110982)
(0.394844 0.512534 0.138569)
(0.4095 0.532618 0.138236)
(0.326417 0.419579 0.12349)
(0.30854 0.387198 0.115354)
(0.371422 0.474286 0.138082)
(0.361031 0.465434 0.133004)
(0.33818 0.454073 0.13273)
(0.36582 0.489633 0.13877)
(0.335672 0.441115 0.130236)
(0.322825 0.41455 0.122263)
(0.541107 0.669054 0.14964)
(0.549769 0.715287 0.170143)
(0.526777 0.705552 0.176289)
(0.579339 0.788822 0.251282)
(0.505815 0.691551 0.273673)
(0.521667 0.709116 0.288508)
(0.439551 0.565876 0.229992)
(0.430185 0.568159 0.231648)
(0.523562 0.692862 0.277707)
(0.507419 0.664384 0.266084)
(0.496052 0.670061 0.267119)
(0.519072 0.707434 0.275704)
(0.49175 0.671504 0.266838)
(0.512783 0.700359 0.282679)
(0.407064 0.55956 0.226858)
(0.409542 0.550632 0.218571)
(0.416765 0.551888 0.212049)
(0.384571 0.506863 0.203834)
(0.415192 0.548429 0.214295)
(0.407722 0.549934 0.21495)
(0.494168 0.65448 0.257669)
(0.434971 0.590282 0.241113)
(0.408991 0.544655 0.225803)
(0.426453 0.583784 0.23289)
(0.644844 0.860847 0.293457)
(0.632347 0.800491 0.281359)
(0.63821 0.824418 0.283607)
(0.563928 0.75248 0.263257)
(0.584565 0.77255 0.269877)
(0.555219 0.721881 0.252097)
(0.560863 0.721345 0.248174)
(0.619841 0.814972 0.277523)
(0.545554 0.722218 0.247445)
(0.559264 0.7586 0.265474)
(0.549207 0.711917 0.245818)
(0.510523 0.670996 0.230667)
(0.530054 0.693276 0.244137)
(0.566496 0.765708 0.264408)
(0.521487 0.697837 0.237456)
(0.373689 0.678137 0.277052)
(0.36786 0.669188 0.288161)
(0.491458 0.792764 0.311042)
(0.405274 0.748288 0.284823)
(0.443103 0.799957 0.336324)
(0.428065 0.811264 0.311321)
(0.38785 0.703113 0.309915)
(0.436651 0.771666 0.286962)
(0.454212 0.793084 0.321726)
(0.449844 0.775358 0.339125)
(0.635329 0.781345 0.284671)
(0.60433 0.749954 0.272657)
(0.684769 0.846929 0.296157)
(0.674073 0.82658 0.26747)
(0.633969 0.81317 0.285301)
(0.655095 0.824963 0.292063)
(0.632288 0.789013 0.288186)
(0.655935 0.826607 0.290621)
(0.377042 0.472783 0.0587367)
(0.354798 0.434839 0.0309115)
(0.474129 0.719014 0.239769)
(0.458718 0.741551 0.236315)
(0.382494 0.549321 0.094326)
(0.377023 0.530173 0.114909)
(0.375591 0.520463 0.0988354)
(0.407272 0.63163 0.153594)
(0.426239 0.672016 0.170643)
(0.451728 0.717762 0.205455)
(0.442338 0.715724 0.202809)
(0.44965 0.662436 0.21174)
(0.460991 0.658661 0.217824)
(0.700342 0.830456 0.301452)
(0.693551 0.832487 0.30121)
(0.687523 0.836167 0.293639)
(0.672325 0.827142 0.294806)
(0.621622 0.715539 0.225911)
(0.692638 0.830188 0.297105)
(0.678031 0.837213 0.276388)
(0.685448 0.815735 0.267355)
(0.683577 0.819175 0.267363)
(0.688748 0.854992 0.278978)
(0.683309 0.834326 0.291892)
(0.690826 0.872433 0.286548)
(0.680649 0.84912 0.291105)
(0.681194 0.862385 0.275861)
(0.538083 0.736778 0.347521)
(0.519934 0.75736 0.309234)
(0.491191 0.64415 0.250061)
(0.445237 0.625575 0.195963)
(0.464153 0.691385 0.254057)
(0.514066 0.672969 0.326096)
(0.385722 0.504855 0.095279)
(0.471438 0.563121 0.13249)
(0.516879 0.600567 0.21227)
(0.607841 0.681712 0.437164)
(0.628274 0.676814 0.435865)
(0.492998 0.592455 0.402136)
(0.521209 0.617864 0.421605)
(0.609397 0.690778 0.446868)
(0.576045 0.676795 0.437941)
(0.581853 0.579517 0.401388)
(0.546364 0.537181 0.385344)
(0.609824 0.608438 0.405865)
(0.583154 0.592828 0.396617)
(0.509301 0.522404 0.36543)
(0.501997 0.533538 0.370098)
(0.576124 0.642594 0.421346)
(0.571477 0.626076 0.422365)
(0.542817 0.63305 0.452542)
(0.597789 0.61224 0.410095)
(0.518457 0.5409 0.391436)
(0.471909 0.53337 0.380835)
(0.449238 0.506693 0.36919)
(0.499527 0.589119 0.404251)
(0.497439 0.553941 0.414058)
(0.478706 0.53325 0.392708)
(0.419722 0.39098 0.000976174)
(0.43153 0.391788 0.013131)
(0.410214 0.387479 -0.0434885)
(0.420189 0.393093 -0.0384876)
(0.472156 0.449133 0.372662)
(0.500654 0.51598 0.418006)
(0.685647 0.87424 0.291538)
(0.681899 0.909445 0.288654)
(0.703067 0.904022 0.29766)
(0.717544 0.952209 0.299612)
(0.519417 0.803145 0.418711)
(0.50718 0.772156 0.42204)
(0.542269 0.839596 0.426666)
(0.204604 0.554186 0.153817)
(0.200217 0.549846 0.145604)
(0.183296 0.521788 0.129236)
(0.427877 0.376825 0.285075)
(0.358983 0.320272 0.214001)
(0.3744 0.342735 0.24055)
(0.382895 0.346217 0.242445)
(0.406665 0.344193 0.249825)
(0.619489 0.729146 0.376985)
(0.626296 0.748516 0.403912)
(0.645879 0.764239 0.398869)
(0.652715 0.760185 0.390862)
(0.387377 0.723609 0.389426)
(0.450327 0.737999 0.420205)
(0.412895 0.75626 0.416713)
(0.511721 0.781094 0.378488)
(0.5019 0.774453 0.392995)
(0.640445 0.898632 0.283872)
(0.674248 0.927831 0.293059)
(0.429834 0.474961 0.328895)
(0.43621 0.494025 0.348631)
(0.418941 0.496814 0.332099)
(0.316808 0.66219 0.302093)
(0.341869 0.664231 0.329718)
(0.341198 0.688421 0.32608)
(0.484937 0.681484 0.378534)
(0.498245 0.673135 0.379232)
(0.194253 0.330174 0.0765233)
(0.193149 0.340152 0.0807838)
(0.208012 0.384329 0.0815296)
(0.621965 0.752907 0.274283)
(0.596979 0.716155 0.263635)
(0.616251 0.735607 0.277617)
(0.564999 0.67002 0.336298)
(0.562592 0.654082 0.320139)
(0.604951 0.704801 0.33838)
(0.386424 0.382117 0.221362)
(0.371854 0.360562 0.207446)
(0.586015 0.808126 0.268778)
(0.601576 0.819748 0.258591)
(0.655182 0.860821 0.282621)
(0.488533 0.704184 0.363408)
(0.484633 0.705849 0.352487)
(0.467792 0.663149 0.347002)
(0.437496 0.509493 0.304273)
(0.425639 0.486583 0.295253)
(0.345234 0.621686 0.284661)
(0.368656 0.64279 0.295155)
(0.357948 0.595903 0.289051)
(0.278397 0.525492 0.149593)
(0.296978 0.544406 0.146514)
(0.289578 0.526763 0.151463)
(0.504146 0.606008 0.303561)
(0.511093 0.629764 0.323671)
(0.494458 0.611216 0.317171)
(0.347184 0.367906 0.174131)
(0.353555 0.369322 0.171338)
(0.399798 0.401103 0.204033)
(0.569616 0.727376 0.250681)
(0.573463 0.767357 0.251412)
(0.593729 0.765686 0.25756)
(0.450021 0.65855 0.315412)
(0.43377 0.626702 0.314552)
(0.486017 0.669599 0.348704)
(0.565853 0.808993 0.282613)
(0.525778 0.769314 0.272404)
(0.398109 0.449191 0.245595)
(0.406565 0.468044 0.251977)
(0.517073 0.612118 0.235937)
(0.524772 0.627089 0.240216)
(0.509104 0.610182 0.224199)
(0.384566 0.577981 0.278739)
(0.368366 0.572064 0.271037)
(0.509872 0.629762 0.312855)
(0.4741 0.58023 0.287891)
(0.488066 0.629384 0.319141)
(0.471392 0.601984 0.309818)
(0.442901 0.607764 0.308756)
(0.443307 0.60858 0.297851)
(0.467702 0.637574 0.317365)
(0.313779 0.353186 0.133201)
(0.325497 0.361874 0.13772)
(0.334058 0.371519 0.147779)
(0.390476 0.457764 0.245145)
(0.400372 0.480924 0.252302)
(0.296395 0.474569 0.133145)
(0.292391 0.46665 0.130114)
(0.526865 0.721448 0.241125)
(0.512662 0.705948 0.245344)
(0.463016 0.556587 0.260733)
(0.465538 0.546583 0.250359)
(0.509749 0.610012 0.281672)
(0.398391 0.474444 0.234914)
(0.386307 0.468552 0.228232)
(0.402176 0.479681 0.243162)
(0.392317 0.563861 0.259134)
(0.395866 0.539724 0.251453)
(0.407164 0.57149 0.264919)
(0.425526 0.58548 0.275543)
(0.308823 0.448498 0.130084)
(0.297288 0.435834 0.121184)
(0.311621 0.455192 0.12549)
(0.33915 0.523958 0.196431)
(0.32631 0.506858 0.190626)
(0.344124 0.547656 0.210535)
(0.347914 0.562434 0.201967)
(0.348088 0.398848 0.162005)
(0.341605 0.386509 0.147344)
(0.380226 0.424956 0.171525)
(0.478745 0.606889 0.212763)
(0.467748 0.589237 0.195608)
(0.526159 0.669228 0.233042)
(0.401192 0.545144 0.25707)
(0.419802 0.586556 0.251659)
(0.422122 0.571503 0.268443)
(0.440766 0.54189 0.246164)
(0.429725 0.520964 0.228007)
(0.386245 0.439212 0.205744)
(0.386102 0.459693 0.210569)
(0.389621 0.448482 0.214901)
(0.365993 0.542327 0.225083)
(0.377722 0.560748 0.234096)
(0.387718 0.542318 0.237416)
(0.398514 0.566517 0.245952)
(0.45556 0.620702 0.219315)
(0.449899 0.606133 0.21967)
(0.317927 0.429459 0.12211)
(0.30779 0.414793 0.120877)
(0.393601 0.515016 0.241687)
(0.407192 0.538752 0.235657)
(0.451114 0.587281 0.204048)
(0.433464 0.551081 0.194659)
(0.389884 0.445644 0.195238)
(0.379008 0.447313 0.19391)
(0.423957 0.507177 0.203672)
(0.457464 0.54813 0.228772)
(0.42998 0.529155 0.213462)
(0.356741 0.507941 0.1979)
(0.360076 0.502387 0.204139)
(0.374667 0.536024 0.215055)
(0.42948 0.536451 0.190151)
(0.410014 0.512547 0.180431)
(0.424856 0.570232 0.209409)
(0.406282 0.538689 0.187929)
(0.428041 0.562359 0.198525)
(0.385654 0.506488 0.212658)
(0.394337 0.524209 0.220491)
(0.383361 0.512256 0.201559)
(0.32825 0.481059 0.147135)
(0.318843 0.447898 0.136087)
(0.300829 0.430387 0.135634)
(0.397401 0.518603 0.210877)
(0.408615 0.542249 0.221035)
(0.392397 0.522792 0.223519)
(0.377254 0.465363 0.171607)
(0.406975 0.507747 0.194428)
(0.393287 0.48184 0.187011)
(0.400752 0.491184 0.186679)
(0.352389 0.406726 0.155105)
(0.367782 0.417679 0.150812)
(0.357162 0.402122 0.152056)
(0.365576 0.413905 0.160081)
(0.318594 0.430497 0.12953)
(0.317047 0.430777 0.127223)
(0.318841 0.432024 0.125031)
(0.365815 0.508178 0.187285)
(0.356073 0.506435 0.199739)
(0.362512 0.501248 0.185258)
(0.300622 0.419396 0.128837)
(0.315325 0.43426 0.138002)
(0.332037 0.472927 0.148546)
(0.31174 0.434505 0.139534)
(0.321042 0.443655 0.136177)
(0.34153 0.474756 0.144238)
(0.341366 0.480839 0.151424)
(0.323841 0.434134 0.121093)
(0.331521 0.443972 0.125256)
(0.353094 0.486955 0.143161)
(0.307661 0.406476 0.115762)
(0.367733 0.512028 0.152273)
(0.340381 0.464274 0.139275)
(0.310257 0.415949 0.119094)
(0.329695 0.458106 0.14002)
(0.343937 0.499367 0.175913)
(0.372854 0.523149 0.186283)
(0.373918 0.527914 0.189581)
(0.380811 0.524087 0.190984)
(0.432603 0.58851 0.218453)
(0.373329 0.504976 0.184087)