/*--------------------------------*- C++ -*----------------------------------*\
| =========                 |                                                 |
| \\      /  F ield         | OpenFOAM: The Open Source CFD Toolbox           |
|  \\    /   O peration     | Version:  v1612+                                |
|   \\  /    A nd           | Web:      www.OpenFOAM.com                      |
|    \\/     M anipulation  |                                                 |
\*---------------------------------------------------------------------------*/
FoamFile
{
    version     2.0;
    format      ascii;
    class       surfaceScalarField;
    location    "50";
    object      phi;
}
// * * * * * * * * * * * * * * * * * * * * * * * * * * * * * * * * * * * * * //

dimensions      [0 3 -1 0 0 0 0];

internalField   nonuniform List<scalar> 
37647
(
1.47278e-09
7.24325e-09
-1.5944e-09
-7.12163e-09
-3.14627e-09
-7.81779e-09
2.65725e-09
8.30679e-09
-9.49287e-09
-2.05302e-08
7.39489e-09
1.38969e-09
2.2189e-09
-6.25914e-09
2.65083e-09
-7.21245e-09
3.10714e-08
3.40429e-09
-2.72632e-08
-4.10946e-09
-1.70772e-09
1.27078e-09
4.54656e-09
-3.49455e-09
-7.24055e-10
1.09197e-10
-7.01362e-10
4.46391e-09
-4.54109e-09
7.78657e-10
-4.26215e-09
6.62751e-11
-2.50196e-10
3.00647e-09
-4.53688e-09
-5.82236e-10
6.38994e-09
-3.94047e-09
-4.21609e-09
3.61975e-09
-4.67349e-09
9.0324e-12
1.23921e-12
-1.20051e-09
-3.06284e-09
-3.31674e-09
-1.22308e-09
2.09426e-09
3.72353e-09
-6.06785e-09
-6.56637e-09
8.07842e-09
5.17614e-09
-5.41208e-09
-4.43751e-09
3.42369e-10
6.17738e-10
7.24387e-09
1.27182e-09
-9.86602e-09
1.35045e-09
7.53218e-09
-1.17999e-09
8.91748e-10
1.30822e-09
-5.34076e-09
-6.11297e-09
1.61768e-08
1.34067e-09
-1.14045e-08
1.38932e-08
-5.92708e-10
-1.94135e-08
1.11632e-08
9.51882e-09
-6.78883e-09
1.47017e-08
1.26384e-08
-3.0396e-09
9.62759e-09
-5.24732e-09
5.89477e-09
-9.52709e-09
6.48026e-09
1.07872e-08
-7.63983e-09
-2.46018e-09
9.25301e-09
-3.12603e-10
1.13272e-08
8.06621e-09
-1.34986e-08
1.02056e-08
-1.33858e-09
-2.12088e-09
1.66223e-09
9.71159e-09
-2.32561e-10
8.89882e-09
2.66442e-09
1.18047e-08
-1.09822e-08
9.81473e-09
1.1373e-08
2.30268e-10
-3.14627e-09
1.35351e-08
-3.78607e-09
1.32178e-09
1.48777e-08
1.27987e-08
-7.09004e-09
-1.25775e-09
-8.65155e-09
-1.07821e-08
-1.09801e-08
-1.08076e-08
-8.76649e-09
-1.30906e-08
-1.14691e-08
-1.47803e-08
-4.90635e-09
-1.55666e-08
-2.08498e-08
1.97329e-09
7.40738e-09
-2.47009e-09
-2.67809e-09
-7.61281e-09
-5.49901e-09
-1.14958e-08
-6.42193e-09
-9.42474e-09
-4.62076e-09
-7.71264e-09
9.46032e-10
-1.2867e-08
-5.5274e-09
-6.83372e-09
-9.20214e-09
5.17401e-10
1.14613e-09
4.86858e-09
-6.53209e-09
1.57973e-09
6.45506e-09
-7.51741e-09
2.56227e-09
1.59774e-09
6.59817e-10
4.17473e-10
-7.38007e-10
2.88284e-09
-3.0167e-09
3.63754e-09
-2.03387e-10
2.14973e-09
-4.02472e-09
3.68122e-09
1.48959e-09
2.5151e-09
-4.61437e-09
2.75908e-09
-1.89928e-09
2.13499e-09
3.4018e-09
3.90918e-10
-1.40487e-10
4.02454e-09
-3.09833e-10
1.37267e-09
-2.88228e-09
1.85084e-09
-8.72672e-11
7.19029e-09
-1.08612e-08
1.80589e-08
-1.4388e-08
-2.52509e-09
1.06532e-08
-9.37771e-10
-3.51525e-09
-1.95034e-09
-3.84607e-09
9.31167e-09
-2.58139e-09
-2.40025e-09
1.46641e-09
5.05557e-09
-2.11672e-09
-5.52022e-09
-7.37048e-09
1.04757e-08
8.66434e-10
2.47609e-09
-1.42037e-08
6.622e-09
1.56727e-09
-7.32283e-09
-1.76578e-09
5.8627e-09
1.15936e-08
5.03773e-09
1.42758e-09
1.48762e-08
-1.95241e-09
3.48115e-09
-5.37479e-09
-3.92051e-09
-4.3213e-10
1.0683e-09
-5.77584e-09
7.18364e-09
4.1904e-09
-1.55481e-09
-1.68876e-09
1.95865e-09
-1.07394e-08
-3.08579e-09
6.91322e-09
6.9119e-09
-7.28923e-09
1.40798e-09
-4.85817e-09
-5.86427e-09
6.70877e-09
1.34523e-09
-2.18971e-09
-2.5559e-09
-1.05976e-08
1.87123e-09
1.75173e-09
-6.64424e-09
1.09365e-08
-2.88422e-09
-5.58501e-09
2.78703e-09
-3.84623e-09
3.95999e-09
-1.21009e-08
-1.61932e-08
3.48149e-09
1.96249e-08
4.98857e-09
-1.02453e-08
-5.86867e-09
7.24791e-09
1.40782e-09
3.0899e-09
-4.99854e-09
8.16972e-09
-4.78996e-09
1.60872e-09
-3.01183e-09
1.4663e-08
-4.26611e-09
3.12545e-09
-5.29989e-09
-1.79716e-09
2.83095e-09
-8.64761e-10
6.60776e-10
-1.26499e-08
1.17076e-08
7.06052e-09
-6.11824e-09
-2.96473e-09
-1.1549e-08
7.34523e-09
7.16848e-09
2.18153e-09
-7.31488e-09
2.16861e-09
-5.30714e-09
-2.32264e-09
4.03144e-09
3.59834e-09
-5.16685e-09
2.04125e-09
7.53894e-10
-4.42409e-09
-8.97974e-09
-2.91889e-09
-7.87622e-09
-2.77168e-09
-7.4621e-09
4.91959e-09
-7.84629e-09
-2.24016e-09
1.00835e-08
-1.00006e-08
4.83665e-09
8.45543e-10
6.91533e-09
-3.51154e-09
-1.59936e-08
1.50811e-08
-3.49401e-10
-1.02686e-08
-1.38615e-08
6.58852e-09
-5.38598e-09
2.8616e-09
-4.06413e-09
2.29564e-09
6.22777e-09
-1.93491e-09
8.2115e-10
-4.81324e-09
-5.07564e-09
9.0677e-09
-2.56938e-09
-1.99545e-09
2.52484e-09
2.24762e-09
1.88422e-09
-6.65682e-09
2.26985e-10
-2.7152e-10
2.35161e-09
-3.29016e-09
4.08223e-09
-3.14369e-09
2.73735e-09
-3.29749e-10
-5.59974e-11
2.44437e-09
-3.48691e-09
2.53238e-09
1.38965e-10
-2.57757e-09
1.20805e-09
3.66518e-09
3.31885e-10
-4.7818e-11
-7.48349e-09
4.15879e-09
6.06203e-09
-2.72387e-09
-6.7743e-10
6.2028e-09
-9.13184e-09
2.17106e-09
3.15664e-11
-2.49471e-09
-1.37982e-10
3.84077e-09
8.21329e-12
2.11476e-09
-6.06054e-09
4.79528e-09
-8.49543e-10
6.13559e-09
-2.58163e-09
-1.15226e-08
1.83505e-08
-1.11723e-08
4.34441e-09
3.42633e-08
-2.8345e-08
-1.7441e-08
3.2526e-08
7.73539e-09
-5.9981e-09
1.58006e-08
3.50759e-08
1.50965e-08
-2.59729e-08
-3.66496e-09
1.45413e-08
-1.49947e-08
1.53014e-08
1.47897e-08
-2.62782e-08
2.02802e-08
1.39457e-08
-7.9477e-09
-2.17505e-08
-9.36112e-09
4.83333e-09
9.11265e-09
-1.48053e-08
6.79746e-09
-2.46455e-08
6.67559e-09
6.90745e-09
7.39459e-09
4.34083e-09
-1.86429e-08
-1.35962e-08
3.33651e-09
1.79951e-08
5.74843e-09
-1.90241e-09
3.63224e-09
-2.63753e-08
3.50015e-09
-3.37476e-08
-2.25272e-09
-6.18892e-10
1.69413e-08
-1.40697e-08
-2.49857e-08
9.71059e-09
1.67886e-09
-2.37383e-08
-1.87371e-08
5.35578e-09
1.49861e-08
-1.06313e-08
8.14648e-09
1.15163e-08
7.47976e-09
1.25763e-08
1.38506e-08
-7.05595e-09
1.29047e-08
-1.63234e-08
1.04745e-08
-1.80269e-08
1.05254e-08
4.45458e-10
-1.06603e-08
4.72655e-09
1.06559e-08
-1.75427e-09
-1.08599e-08
-6.12097e-09
2.98855e-08
1.22418e-08
-1.39667e-08
8.29918e-09
-8.6884e-10
9.26311e-09
-1.60898e-08
2.67932e-08
-1.68245e-08
1.0128e-08
2.29663e-08
1.28163e-08
-1.61081e-08
-1.96745e-08
-5.99265e-09
1.52425e-08
1.37164e-08
-1.76688e-08
-7.27977e-09
1.07477e-08
1.4201e-08
-1.179e-08
-2.32395e-09
-3.55484e-09
3.06499e-08
-2.50667e-08
-1.73731e-08
6.35113e-09
1.7019e-08
6.72286e-09
3.19558e-09
-1.59111e-08
2.07562e-08
-1.8011e-10
-1.28135e-08
-7.76261e-09
1.20793e-08
1.5028e-08
-2.01605e-08
1.62157e-08
1.91873e-08
-7.52437e-09
-1.07043e-08
6.16953e-09
1.52824e-08
-9.42022e-09
-3.60798e-09
-1.18956e-08
-2.59846e-08
9.79849e-09
-2.48079e-08
3.11383e-09
3.00979e-09
-2.63152e-09
8.32773e-09
1.40487e-09
6.10019e-10
9.86453e-09
5.74118e-09
2.92948e-09
6.00831e-09
-8.07649e-09
-5.80423e-09
9.54768e-09
4.33307e-09
-2.34348e-09
-2.11351e-09
-3.61948e-09
-1.7153e-08
4.75562e-09
4.23891e-09
8.15844e-09
6.88345e-11
-5.1459e-09
-1.20759e-08
-3.23942e-09
1.91398e-09
-4.40574e-09
5.73123e-09
2.3896e-09
-1.06787e-08
5.04966e-09
-4.20113e-09
-2.42132e-09
8.53643e-09
-9.63873e-09
7.82721e-09
1.79955e-08
-5.22389e-09
-1.27028e-08
1.31124e-08
7.31792e-09
-4.96689e-09
-4.69451e-09
1.64184e-09
-1.28116e-10
7.03976e-09
-1.89782e-09
-8.74212e-09
5.43711e-09
7.54394e-09
-1.02283e-08
-3.65974e-09
-7.2154e-09
-5.57677e-09
-5.20698e-09
2.59891e-09
3.80122e-09
-1.19312e-09
-7.10984e-09
-3.58396e-09
5.48682e-09
5.61467e-09
-1.0218e-08
-2.22132e-09
-8.60659e-09
-3.47013e-09
-1.065e-09
7.82103e-09
-7.5822e-09
8.262e-10
-5.96831e-09
4.98347e-09
-8.01391e-11
4.72002e-09
2.83395e-09
-2.839e-09
-4.71494e-09
-1.36843e-09
1.20134e-10
4.61111e-09
-4.8295e-09
-5.10507e-09
5.32351e-09
-6.69091e-09
-1.79065e-09
1.30926e-08
-1.32269e-10
3.1238e-09
-1.00587e-10
-2.09996e-11
-1.53078e-10
-4.59517e-09
5.84729e-09
-2.62488e-09
-6.06138e-09
4.53701e-09
-5.81492e-11
-9.68501e-09
5.8421e-09
3.71065e-09
-5.73276e-09
-7.57103e-09
6.61288e-09
-5.82961e-09
-3.70066e-12
-3.74016e-09
-6.09793e-09
5.25019e-10
-1.00503e-08
6.90036e-09
7.29156e-09
3.63032e-09
-1.03969e-08
-5.50462e-09
8.09225e-09
4.70396e-09
-5.61445e-09
-7.7335e-09
1.1785e-08
-1.15821e-09
3.54115e-10
-6.76694e-09
-7.99452e-10
-3.14354e-09
-1.31258e-08
7.96435e-09
8.30506e-09
-1.74491e-08
6.35515e-09
7.95042e-09
3.06145e-09
-1.45769e-08
-2.44549e-09
1.39611e-08
-1.44571e-08
3.47418e-09
1.40444e-08
-2.01517e-08
7.80648e-09
5.7815e-09
6.56375e-09
3.47244e-09
-5.75606e-09
-1.78681e-08
1.11624e-08
-2.07906e-08
-7.82096e-09
5.8431e-09
-2.24008e-08
1.36055e-08
-3.07079e-09
-1.58576e-08
-1.79823e-09
-2.47484e-08
2.17921e-09
-1.94818e-08
3.40026e-09
1.39024e-08
-1.94876e-08
7.20974e-09
-4.80594e-09
-1.77524e-08
-2.6086e-08
6.44397e-09
-1.54591e-09
3.45363e-09
-8.35174e-09
2.62786e-09
3.9942e-09
-1.77996e-10
3.53042e-09
-6.96263e-09
7.25688e-09
-3.82471e-09
6.0545e-09
1.0382e-10
2.55086e-09
-1.10594e-08
-6.99923e-09
6.77258e-09
4.22082e-09
1.58415e-09
-5.12976e-09
2.89452e-09
-1.35963e-09
5.72197e-09
1.3942e-09
7.55482e-09
-4.28215e-09
-1.11414e-08
2.24176e-09
1.31819e-08
-8.81887e-09
-2.20512e-09
6.74181e-09
-9.56143e-09
-1.03989e-08
-3.41127e-09
-4.56601e-09
9.6417e-09
-1.05021e-08
1.04085e-08
6.07698e-09
1.67023e-09
-1.85011e-09
-6.20642e-09
6.38626e-09
-2.81908e-09
9.21583e-09
9.75069e-10
5.27355e-09
7.45568e-09
-5.80764e-09
1.94531e-09
4.49494e-09
7.4568e-09
-5.44877e-09
-9.76686e-09
7.75882e-09
-5.93385e-09
-6.15509e-09
1.95457e-08
-5.79839e-09
-7.3987e-09
7.26323e-09
-1.03249e-08
-9.223e-10
5.60368e-09
2.54175e-09
-4.66609e-09
-3.47935e-09
-9.11879e-10
-3.2513e-09
-7.38218e-09
-4.00935e-10
8.07321e-09
-4.5951e-09
-1.08603e-08
7.65523e-11
5.97955e-10
1.77546e-08
-7.3306e-09
-1.13359e-08
-1.32846e-08
2.48841e-08
-1.27214e-08
3.46021e-09
1.06912e-09
-1.42771e-08
9.13771e-09
-6.80133e-09
2.68447e-09
-5.02087e-09
-3.88609e-09
7.09224e-09
5.93156e-09
3.88561e-09
-9.67664e-10
-9.71925e-09
1.86546e-09
-1.86591e-09
-3.56979e-09
7.23498e-09
3.42706e-09
-7.44309e-10
-1.41019e-10
3.31983e-09
1.30408e-09
-5.59157e-09
-2.89163e-10
3.4957e-09
1.13327e-10
3.31599e-09
3.17147e-09
-5.18334e-09
3.19487e-09
-1.68022e-10
-1.46089e-09
-5.60176e-09
8.92814e-09
-2.53693e-09
-6.38601e-09
7.46207e-09
2.94119e-09
-1.89768e-10
4.78544e-09
-4.15089e-09
3.10496e-09
4.87537e-09
-8.34107e-10
5.66544e-09
-6.19023e-09
1.35895e-09
-1.3138e-09
6.19361e-09
3.18489e-11
-4.91165e-09
8.73711e-09
-7.85538e-10
-9.26538e-09
8.36355e-09
9.33687e-09
-8.96331e-09
1.06217e-08
3.93542e-09
3.16661e-09
7.05284e-09
4.02224e-10
7.21963e-09
-9.32762e-09
5.27459e-09
5.69605e-10
-9.96311e-10
7.6463e-09
-4.051e-09
-6.3916e-10
5.25976e-09
-4.21176e-10
4.30425e-10
-6.60474e-10
1.02815e-09
4.18948e-09
-4.55717e-09
5.34149e-09
-6.7875e-09
-2.39693e-09
5.39876e-09
-5.12462e-09
-1.91702e-10
4.32004e-09
-5.47627e-09
-6.95413e-11
5.34161e-09
-4.28161e-09
-1.88662e-10
5.38811e-11
4.05294e-09
-5.21296e-11
-4.64633e-10
-2.64977e-09
2.47524e-09
-3.53715e-09
2.88081e-09
-1.51655e-09
-3.77025e-09
2.63704e-09
-6.37695e-09
2.46346e-09
3.2578e-09
-4.29316e-09
-5.49773e-10
3.73225e-11
-3.39788e-11
-4.75638e-09
6.2651e-09
-2.52484e-09
1.01612e-09
3.58705e-09
-3.66756e-09
-4.67585e-09
-2.63218e-09
3.94959e-09
4.9477e-09
1.01432e-09
-5.94406e-11
-2.64786e-09
3.67062e-09
-3.54759e-09
1.95127e-09
-8.26666e-09
-2.1771e-09
3.12913e-09
6.2302e-11
2.08568e-09
8.62662e-09
-1.03516e-08
-3.60727e-10
8.17616e-09
-8.43054e-09
2.34007e-09
3.52565e-09
3.32837e-09
-4.90276e-09
1.46148e-09
-1.12922e-10
1.38236e-09
-1.15795e-11
2.57884e-09
6.01098e-11
4.45138e-09
-3.05958e-09
1.76655e-09
9.4692e-09
5.55546e-09
-4.86856e-09
-5.99862e-10
-2.96213e-09
-1.15495e-08
4.43149e-09
-1.70301e-09
4.21909e-09
1.67388e-09
6.04575e-09
-3.57835e-09
-4.38111e-09
-5.22334e-09
1.31827e-08
-5.57334e-09
-7.0483e-09
9.04325e-09
-5.68943e-09
1.0132e-08
-7.54226e-10
-2.20787e-10
-5.4043e-09
9.98578e-09
2.85711e-09
-6.90008e-10
-3.14304e-10
4.59214e-09
-6.46745e-09
7.06878e-10
2.16279e-09
-3.18397e-09
-1.59554e-09
3.94029e-09
-3.20948e-09
2.12428e-09
-3.01299e-09
-1.7332e-10
4.91197e-09
-1.46504e-10
2.02384e-09
-3.43891e-11
-1.22668e-09
3.54168e-09
1.62523e-09
9.73276e-10
-7.58232e-11
-4.05985e-09
-2.70806e-10
7.45609e-09
2.31271e-09
2.40421e-09
4.25945e-09
-2.96326e-09
5.09664e-09
3.3826e-11
2.38925e-09
-5.11325e-09
6.69322e-09
-3.96922e-09
2.07804e-09
3.04063e-09
1.71391e-09
-6.83259e-09
6.47944e-09
-6.9574e-09
5.90852e-10
-1.12902e-10
-1.38022e-09
-3.35408e-09
5.85252e-09
-1.11822e-09
-4.54403e-09
-3.6033e-09
1.05366e-08
-6.57704e-09
4.11105e-09
-2.79277e-09
7.42901e-09
-6.01647e-09
7.34678e-09
-9.294e-09
6.18627e-09
-5.41652e-09
-8.37924e-09
-2.54689e-09
4.62556e-09
-7.2377e-09
1.10207e-08
-8.40859e-09
1.29982e-08
-5.13352e-09
-3.23916e-09
-9.74618e-09
8.46098e-09
8.47216e-10
4.37988e-10
6.86566e-09
-3.6136e-09
-6.80734e-09
7.04442e-09
8.22389e-09
-3.44452e-09
3.50286e-09
-1.57424e-09
4.55601e-09
-8.11531e-09
4.02205e-09
-1.2834e-08
1.80838e-08
-2.34229e-08
7.53503e-09
2.60108e-09
4.46474e-09
3.11144e-09
-1.28584e-08
3.25318e-09
1.41612e-08
-1.08158e-08
7.61794e-09
1.14702e-08
-8.27237e-09
4.76321e-10
-1.04449e-08
-8.76346e-09
-1.15141e-09
1.90275e-08
3.23631e-09
1.35109e-08
3.26818e-08
1.14756e-08
-7.03492e-09
-3.71225e-08
-2.10377e-08
2.59897e-08
2.77298e-08
1.18365e-08
2.22659e-08
-2.87964e-09
-3.12228e-08
2.84139e-08
6.71774e-09
-2.3295e-08
8.13342e-09
-8.05872e-09
1.14009e-08
9.50121e-09
-4.2162e-09
1.6981e-08
3.05545e-08
7.3606e-09
-2.889e-08
1.89755e-08
-1.8788e-08
3.36391e-08
-2.18941e-08
1.76326e-08
5.21353e-09
-9.52012e-10
2.45021e-08
-3.2849e-08
1.13446e-09
3.60403e-08
2.11337e-09
-7.59917e-09
2.47135e-08
5.75969e-09
-1.67654e-08
-1.37079e-08
5.40413e-09
8.29138e-10
1.84802e-08
2.94205e-08
-9.72906e-09
-1.39318e-08
1.04834e-08
2.43412e-08
-3.01635e-08
2.29339e-08
-1.8841e-08
-2.80878e-08
-1.78763e-08
6.78794e-09
2.15717e-08
-1.29888e-08
-1.46165e-08
9.53405e-09
7.11977e-09
-3.54949e-08
-2.06916e-08
8.0718e-09
-8.41796e-09
-4.828e-08
9.25995e-09
-1.5129e-08
-1.77523e-08
2.87307e-08
-4.19047e-09
-4.20578e-10
-2.58841e-08
-9.87375e-09
1.10976e-08
2.46602e-08
-1.46394e-08
-1.01563e-08
-1.08841e-09
1.66255e-08
-2.27712e-08
-8.49366e-09
-3.56622e-09
1.0318e-08
1.39587e-08
-2.70552e-08
2.88007e-08
-1.57041e-08
-1.43226e-08
1.34988e-08
-9.33239e-09
-8.66622e-09
2.77926e-09
-1.68842e-08
9.74877e-09
9.32426e-09
-1.08789e-08
-8.19408e-09
7.15887e-09
-1.63897e-08
-3.16417e-09
1.2395e-08
-4.00839e-09
2.90647e-08
-1.2015e-08
-1.31388e-08
1.30597e-08
1.20942e-08
-2.36228e-09
-2.06266e-08
1.7882e-08
-4.91568e-09
-1.0187e-08
5.73741e-09
8.57838e-09
-8.74815e-09
1.44885e-08
6.41293e-09
-2.07902e-08
1.27718e-08
-1.12746e-08
4.85911e-09
-7.86987e-09
1.73234e-08
2.60732e-09
-1.90567e-08
-1.19552e-08
4.67917e-09
2.63328e-08
-7.33824e-10
6.01829e-09
-3.5983e-08
-1.46683e-09
2.54946e-08
1.06094e-09
-1.85638e-08
1.00791e-08
-1.32842e-08
2.47129e-09
-2.54915e-09
1.73074e-08
4.62317e-09
-9.70243e-09
1.7814e-08
-1.27348e-08
1.42761e-08
-4.20971e-09
-5.44326e-09
7.01106e-09
4.39473e-09
-2.51137e-08
-1.66232e-08
2.17036e-08
-1.07039e-08
-9.93887e-09
6.72025e-09
1.35166e-08
7.86362e-09
-9.28169e-09
8.13833e-09
-9.64134e-09
1.49558e-08
-2.65523e-09
7.18497e-09
8.30373e-09
3.31709e-09
1.09455e-08
-1.07605e-08
8.83967e-10
-9.11373e-09
-1.05195e-09
-4.53634e-10
-8.87219e-09
-4.85323e-09
5.45097e-09
7.77459e-09
-8.37234e-09
8.96568e-10
5.42689e-09
-1.11767e-08
-4.72836e-09
1.84675e-09
-9.56965e-09
1.24513e-08
9.82233e-09
-2.07268e-09
-1.2478e-08
1.02943e-08
-1.99902e-09
1.52701e-09
6.60689e-09
-3.78787e-10
4.06616e-09
4.17705e-09
-7.35262e-09
1.10283e-09
3.41795e-09
-1.23997e-09
-1.49255e-08
7.75448e-09
8.06759e-09
-4.15717e-09
-8.92154e-09
-5.58592e-09
-7.22e-10
1.17589e-08
-4.85528e-09
5.87626e-09
1.20575e-08
-5.14211e-09
-3.49744e-09
-7.94947e-09
1.4982e-08
1.08712e-08
-8.2444e-09
-6.7839e-09
1.57154e-08
7.20132e-09
-1.20455e-08
3.44312e-09
3.75913e-09
1.1209e-08
1.37757e-08
9.45616e-09
-1.20216e-08
-1.12102e-08
-5.10477e-09
1.32656e-08
5.61485e-09
3.41232e-09
-2.72911e-09
-5.78797e-09
9.67013e-09
5.23688e-10
3.07181e-09
6.52987e-09
-2.60632e-09
-5.11225e-10
5.021e-09
6.70528e-09
-9.03881e-09
-2.68744e-09
8.11856e-09
3.09877e-09
-6.19635e-09
2.66231e-09
1.15648e-09
2.88649e-09
3.76665e-09
7.01423e-09
-5.06498e-09
5.21804e-09
9.51707e-09
2.03209e-09
2.35909e-09
-6.84532e-10
-3.7281e-09
9.63069e-09
-5.13577e-09
8.21789e-09
1.9178e-09
4.81829e-09
-8.04967e-09
7.23474e-10
2.50793e-09
-1.70645e-09
-2.69373e-09
-4.63862e-09
-6.66562e-09
4.09398e-09
6.98203e-09
-3.87018e-09
2.34848e-09
1.29757e-08
-1.50169e-10
7.33749e-10
6.74788e-09
-7.95475e-09
1.41825e-08
4.871e-10
1.10436e-08
-1.80622e-09
9.64532e-09
9.29397e-09
1.32147e-09
9.80099e-09
-4.37459e-09
1.49998e-08
2.8555e-09
3.96513e-09
4.41335e-09
4.72318e-09
1.51218e-08
-1.01997e-08
3.24827e-09
3.8782e-09
-3.16136e-09
9.29294e-09
-1.07581e-08
2.17181e-09
-6.45737e-09
1.50436e-08
-1.06484e-08
-7.71749e-09
7.60781e-09
-9.04224e-09
1.47944e-08
-3.5804e-09
-1.69039e-08
-2.78682e-09
-4.32356e-09
3.47487e-09
-5.60872e-09
-1.20525e-08
1.14549e-11
-1.18046e-08
-1.52578e-08
1.18172e-08
1.52452e-08
-1.41329e-08
8.16157e-09
-5.83333e-09
1.24404e-09
-3.64414e-09
-1.17328e-08
-3.58702e-09
1.52243e-08
-1.03933e-08
-8.97544e-09
2.3312e-10
-6.30112e-09
-2.37394e-09
-3.37752e-09
9.69331e-09
-1.04917e-08
-1.09446e-08
1.1743e-08
-3.53266e-09
-8.65334e-10
1.40913e-08
1.20982e-10
6.70683e-09
-1.0472e-08
6.5687e-09
-1.00348e-08
-3.56612e-09
-8.56974e-09
-6.29695e-09
1.47913e-08
-1.12127e-08
6.5118e-09
-1.00904e-08
9.34247e-09
4.5736e-10
4.99142e-09
-9.497e-09
1.65408e-08
6.94132e-09
-1.39851e-08
-1.16395e-09
-5.4636e-09
9.79383e-09
5.01225e-09
2.49132e-09
-1.44313e-09
1.13201e-08
5.67803e-09
1.22461e-08
-3.47758e-09
-1.82714e-09
-5.02152e-09
4.13962e-09
1.06757e-08
-2.52651e-09
-3.6922e-12
8.20278e-09
1.53634e-08
5.8905e-09
-1.24302e-08
5.37572e-09
-3.43912e-09
1.57815e-08
2.0043e-11
-8.48896e-09
3.47485e-09
4.99407e-09
-6.33446e-09
3.82798e-09
-8.93291e-09
6.82076e-09
-6.78502e-09
1.77805e-09
-1.60697e-08
1.75857e-08
-3.29406e-09
-1.99529e-08
2.40204e-08
-2.28943e-09
7.83716e-09
-1.79255e-08
-1.75079e-09
1.08498e-08
1.40815e-08
-4.71537e-09
1.48372e-09
1.77075e-09
-2.31796e-09
1.81329e-08
-1.61257e-09
2.74038e-08
-7.90657e-10
1.25542e-08
1.50369e-08
-5.0157e-09
-2.18407e-09
1.94738e-09
1.02373e-08
-1.29754e-08
1.53718e-08
-6.12335e-09
1.87378e-09
-1.26241e-09
4.01597e-09
-1.03843e-08
2.44949e-10
3.89361e-09
5.00571e-09
-5.02892e-09
-3.87042e-09
4.25454e-09
-3.99188e-10
3.82773e-11
-6.51195e-09
6.69242e-09
3.07749e-10
-1.814e-09
6.52215e-09
-5.19624e-09
2.69005e-09
1.26356e-09
-7.38952e-09
-2.68698e-09
7.25555e-10
5.9823e-10
-6.35266e-09
1.10266e-09
-5.41762e-09
-6.06058e-10
-6.55396e-09
-4.05991e-09
1.31804e-09
-7.98195e-09
4.14521e-09
9.77263e-10
-4.52421e-09
3.73464e-09
1.14017e-11
-6.16481e-10
-4.01302e-09
3.99368e-09
6.35868e-10
3.13888e-09
-2.07174e-11
-4.09316e-10
-4.82658e-09
-3.44507e-09
-1.6291e-09
1.40297e-08
-5.12691e-09
6.03973e-09
-1.49425e-08
8.86433e-09
6.68746e-09
-1.522e-09
1.29687e-08
-2.05182e-08
2.42255e-09
1.37757e-08
9.30025e-09
-1.01072e-08
1.8587e-08
4.05305e-09
-8.40881e-09
-2.73518e-10
1.53698e-08
5.4712e-09
-7.84023e-09
2.15708e-08
-7.22413e-09
-5.04637e-09
-1.18675e-08
8.0083e-09
-4.19049e-09
-1.21968e-08
3.96875e-10
-6.75316e-11
5.79783e-10
4.8684e-09
6.09989e-09
1.60507e-08
-2.44179e-09
1.39685e-08
3.15811e-09
-1.46849e-08
4.78964e-09
-9.5793e-10
-6.27351e-09
1.15967e-08
-1.45712e-08
-8.96409e-09
1.19386e-08
5.24639e-09
7.05533e-09
-7.05044e-10
1.59677e-09
-8.32235e-09
-4.96955e-11
-7.10343e-09
3.77024e-09
1.62982e-08
-8.18475e-09
8.96695e-09
1.32015e-08
6.64964e-09
-1.23773e-08
-7.47392e-09
1.62377e-08
-1.10098e-08
7.9737e-09
8.95535e-09
2.69497e-09
-1.30783e-08
1.428e-09
4.89768e-09
-1.18453e-08
1.5903e-08
-7.61266e-09
-5.93074e-09
1.84411e-08
-9.04046e-09
4.12277e-09
-1.0518e-08
2.0825e-08
-3.88398e-09
1.5579e-11
2.38701e-08
3.98546e-09
-1.93631e-08
-8.49245e-09
-7.12922e-09
1.91541e-08
1.29264e-08
-1.8086e-08
-7.21764e-09
3.30473e-09
-1.3881e-09
-7.89896e-09
-1.19386e-09
1.68347e-08
-8.60834e-09
-2.75895e-08
5.82147e-09
-6.66977e-09
9.34038e-10
4.76769e-09
7.9684e-09
-1.1023e-08
-1.71306e-09
2.06439e-09
-5.90503e-09
-6.60033e-09
5.67365e-09
7.77906e-09
-8.82057e-09
-4.63212e-09
1.04317e-08
-6.71509e-09
1.95698e-09
-7.91886e-09
6.85343e-09
1.14969e-08
-2.07278e-10
6.74425e-11
4.16457e-09
-1.01224e-08
-2.86271e-09
1.13129e-09
-3.68197e-09
-1.05067e-09
-3.74472e-09
1.16487e-08
-7.49539e-09
-3.71626e-09
1.01609e-08
-7.73292e-09
3.02403e-11
1.23021e-08
-4.95747e-09
-6.21331e-09
-4.00574e-09
-7.20419e-09
3.47702e-09
8.24752e-09
-1.15925e-08
-1.87854e-09
1.04359e-08
-2.65007e-09
7.1812e-09
1.11881e-08
-1.31635e-08
-2.98195e-09
-7.17268e-09
-3.01192e-09
-8.19858e-09
-6.17825e-09
-1.31325e-08
8.60391e-09
-4.95629e-09
-8.0424e-09
-9.31328e-09
-1.16908e-09
1.8525e-08
-5.336e-09
-7.20574e-09
4.49935e-09
-6.83114e-09
-9.26143e-09
6.77933e-09
-1.06128e-08
-1.5543e-09
3.41603e-09
7.10601e-09
-9.92358e-09
-5.98422e-10
-1.08151e-08
3.61843e-09
4.21244e-09
1.03424e-08
-1.93404e-09
-1.26208e-08
8.63351e-09
-6.37837e-09
1.95727e-09
-1.07715e-09
9.77429e-10
-1.09245e-08
1.83889e-08
-1.1479e-08
1.08968e-08
7.33304e-09
-1.63119e-09
-1.56254e-08
4.46592e-09
-7.948e-09
-8.01191e-09
5.56373e-10
1.88783e-08
-1.95739e-08
8.96581e-09
-8.2702e-09
1.53937e-08
-7.99436e-09
-1.98089e-09
-2.81454e-09
-1.36229e-08
3.97978e-09
1.15488e-08
-5.26316e-09
-9.66319e-09
-4.31583e-09
5.53468e-09
1.03299e-08
4.51575e-09
4.07335e-09
-4.41741e-09
-4.17171e-09
8.12232e-10
3.76236e-09
-5.88656e-11
-4.65744e-09
-5.44861e-09
4.47283e-09
5.63321e-09
-3.85778e-09
1.25353e-11
-4.24713e-09
-8.00012e-10
7.3127e-10
-7.15496e-09
-2.35534e-09
-1.08816e-08
3.57158e-09
-2.35316e-09
-2.21195e-09
3.21223e-09
2.76202e-09
1.06136e-09
2.65051e-09
-3.06688e-09
-3.44146e-09
-1.00445e-09
-1.79366e-09
-6.18274e-09
-1.18539e-08
-7.47534e-09
1.39254e-10
1.28708e-08
-5.33187e-09
1.42812e-09
7.8243e-09
-6.66681e-11
-7.41763e-09
-4.12976e-09
-2.20657e-09
-1.03792e-08
-7.908e-09
3.56207e-09
-6.09062e-09
1.04365e-08
-8.01346e-09
-3.96132e-09
4.06674e-09
-8.60332e-09
-9.72285e-09
3.24902e-09
1.50771e-08
-6.17641e-09
-5.69997e-09
3.27299e-09
-8.42261e-09
-7.4767e-09
-6.08775e-09
1.28988e-08
5.40069e-09
-7.02791e-09
-3.72831e-10
-3.17128e-10
2.53086e-10
-1.22005e-09
5.876e-09
-3.49377e-10
-5.84588e-10
-1.24665e-08
1.09564e-08
8.13609e-09
-6.62608e-09
-2.53708e-09
-1.23064e-08
2.37703e-09
-7.44978e-09
1.15217e-09
9.28728e-09
-2.98967e-09
-7.10256e-10
2.27642e-09
-9.01594e-09
1.01624e-08
-1.34097e-08
1.44462e-08
-3.13168e-09
-4.15908e-10
1.10376e-09
-7.12436e-09
1.39892e-09
-1.60487e-11
7.81435e-09
1.48898e-09
9.08776e-09
-1.76588e-09
2.546e-09
3.24655e-09
-8.03271e-09
-5.93878e-09
-9.71336e-10
6.03667e-09
8.73447e-10
-1.26611e-09
-2.88327e-09
4.21958e-09
-7.02112e-11
7.15414e-09
-6.14384e-09
1.19931e-09
8.43214e-09
8.46997e-09
3.09535e-09
4.63613e-09
-5.18547e-09
1.55195e-08
-2.2507e-09
-5.33496e-09
-3.7962e-09
3.41831e-09
5.71278e-09
-4.17002e-09
9.87589e-10
-2.15258e-09
3.13077e-09
-6.12101e-10
-5.33784e-11
-3.78572e-09
8.32821e-10
2.99805e-09
-4.5235e-11
-3.19728e-09
-6.18536e-10
3.00506e-11
-3.61768e-09
-1.50174e-09
6.10699e-09
-1.17125e-10
-5.47264e-09
9.95269e-10
5.31015e-09
-5.4254e-09
-6.65812e-10
1.70725e-09
2.75229e-09
-6.02291e-09
7.60527e-09
-5.87135e-10
5.53319e-09
5.36875e-09
-8.79576e-09
8.30603e-09
-2.06497e-10
3.45812e-10
2.59782e-11
-4.69404e-10
-9.56728e-10
-1.10711e-08
1.24972e-08
-2.09845e-09
-2.19124e-08
2.35415e-08
-1.19483e-08
-1.84239e-09
1.19144e-08
2.89193e-10
-1.38104e-08
1.60672e-09
6.82171e-09
9.45252e-09
-4.35983e-09
1.20847e-08
5.47113e-10
-5.81011e-09
-1.65285e-08
1.47193e-08
1.18665e-08
-9.99458e-11
-2.31405e-09
1.10928e-08
-1.46074e-09
2.5521e-09
5.30852e-09
-6.39987e-09
1.42494e-09
2.07267e-09
-4.95832e-09
-5.1989e-10
7.07659e-09
-4.00454e-09
-2.1788e-09
4.56825e-09
-2.90927e-09
2.63082e-09
-3.38467e-09
-6.73e-10
-3.308e-09
5.59014e-09
-1.60917e-09
4.85465e-09
-3.2244e-09
-2.30324e-09
5.01815e-10
1.49869e-09
-4.49564e-09
2.18714e-09
7.89865e-09
-2.00558e-10
5.59588e-10
4.56286e-09
3.01557e-09
-2.41194e-09
3.81879e-09
3.16143e-09
2.68315e-10
-4.94179e-11
2.42882e-09
-3.58053e-09
-2.35709e-09
-1.10156e-09
5.6458e-09
-2.66833e-09
1.10698e-10
7.28011e-09
2.88165e-11
-2.23993e-09
7.42766e-09
1.49983e-10
-5.33773e-09
-2.26543e-09
5.27317e-09
-5.2477e-09
3.45092e-10
-6.14621e-09
3.53568e-09
-3.18506e-09
7.60215e-09
3.01053e-09
2.22031e-09
-1.32211e-10
-2.67516e-09
9.22293e-09
-6.39779e-09
4.89669e-09
-7.22678e-09
-9.89158e-10
6.73273e-09
6.28344e-09
-4.16965e-09
1.06519e-10
2.24387e-09
4.36912e-09
5.32084e-09
-1.31456e-08
-1.43005e-08
-8.06062e-10
4.24627e-09
1.19384e-10
-9.09906e-09
1.01756e-08
-6.35825e-09
-3.69792e-09
7.03741e-09
2.33208e-09
2.75567e-09
5.77163e-09
9.39214e-09
-6.23758e-09
2.73189e-09
2.96185e-10
1.34007e-09
-6.19581e-09
-1.38184e-09
-4.14925e-09
2.89108e-09
3.99011e-09
-2.8198e-09
1.06165e-11
-2.45228e-09
-1.77633e-10
-3.56592e-09
3.91986e-09
-2.36075e-09
-4.01139e-09
1.23024e-09
-1.30149e-10
4.34927e-09
-7.06165e-09
3.5157e-10
5.2029e-09
2.65929e-11
-8.80245e-10
3.85257e-09
5.52026e-09
-4.16995e-09
5.02961e-09
5.32093e-11
-9.2534e-09
4.55106e-09
-3.92038e-09
-5.51066e-09
-4.47607e-09
-1.72957e-09
1.18937e-08
-5.68808e-09
-2.36641e-09
-4.4883e-10
5.70634e-09
-2.51542e-09
5.17857e-09
1.25096e-10
2.87967e-09
4.05893e-09
4.22552e-09
-8.15935e-09
-4.09634e-09
-4.66045e-09
-3.73602e-09
4.5348e-09
-6.11821e-09
3.10115e-09
-1.51771e-09
-3.53002e-09
4.05645e-09
4.00843e-09
3.05368e-09
-3.49982e-09
-5.67204e-09
-5.02363e-10
2.60535e-11
4.70039e-09
-1.7832e-09
7.67875e-09
-1.05959e-08
6.27335e-09
1.40379e-09
-2.97672e-09
-1.45719e-09
2.26251e-09
2.58449e-09
-3.38978e-09
3.87591e-09
-7.11633e-09
-1.92998e-09
-6.97594e-09
1.08627e-08
-6.3462e-10
6.04778e-09
-1.35671e-09
-3.48976e-09
8.07383e-09
1.68923e-09
7.32812e-09
-3.13914e-09
-2.92917e-09
2.43493e-09
-8.07984e-12
1.66512e-10
1.14101e-10
4.44054e-09
-6.78725e-10
-2.30573e-10
-1.51149e-09
3.31168e-09
7.95043e-10
5.28449e-09
1.24857e-09
9.24496e-09
3.72393e-09
-8.25632e-09
-8.05915e-09
1.43494e-08
1.96606e-09
-1.33307e-08
-5.21897e-09
1.02933e-08
-1.10708e-08
8.66921e-09
-5.65754e-09
-2.1369e-08
-3.0325e-09
-3.54099e-08
1.2084e-10
8.91217e-09
2.63767e-08
-1.82388e-09
-1.06678e-08
-2.29183e-08
-6.46614e-09
1.4711e-08
6.10446e-09
-9.82209e-10
-1.90214e-08
1.35375e-08
-2.47489e-08
6.3426e-09
1.85272e-08
-1.79036e-08
2.02244e-08
-2.28922e-08
-7.99996e-09
-1.34753e-08
-9.23997e-09
2.04032e-08
2.31204e-09
-1.93979e-08
2.48364e-09
3.43902e-09
2.10023e-08
6.72226e-09
-7.50034e-09
2.06745e-08
1.1872e-08
-7.78496e-09
7.2307e-09
-1.13177e-08
1.5363e-08
5.69071e-09
-8.03629e-10
1.22582e-08
-8.63334e-10
-7.09851e-09
-4.29644e-09
-2.80186e-09
5.50466e-09
9.55545e-09
-4.31292e-09
5.65115e-09
-2.20155e-09
-2.83913e-09
3.83425e-09
-5.30808e-09
1.432e-08
-4.53045e-09
-1.6888e-08
4.91778e-09
6.81197e-10
7.21596e-09
-1.24276e-08
4.29234e-09
-6.45028e-09
-2.52964e-09
5.11127e-09
3.06953e-09
1.41961e-09
-1.14937e-10
-5.68118e-10
3.18184e-09
2.89095e-09
2.86611e-09
1.67706e-09
-1.23379e-09
6.03095e-09
2.41881e-09
2.63915e-09
4.19367e-10
-1.9562e-09
-3.05297e-09
8.191e-09
-3.80234e-09
4.71224e-09
7.89576e-09
2.56421e-10
-2.36261e-08
2.38012e-08
1.95596e-08
-1.97347e-08
1.0447e-08
-1.57041e-08
-1.83689e-08
1.23653e-09
2.2239e-08
-1.24519e-08
-1.10234e-08
-4.46001e-09
1.26814e-08
1.55799e-08
3.81888e-09
2.16822e-09
-1.54474e-08
2.93654e-08
-1.24521e-08
1.77562e-09
1.44954e-08
-1.24821e-08
-4.2176e-09
1.25233e-09
1.25995e-08
5.17398e-09
-2.82991e-08
1.05257e-08
-1.66133e-09
1.77885e-09
-2.04272e-08
1.31492e-08
-5.55059e-09
4.19823e-09
7.48794e-09
4.78528e-10
3.28544e-11
-4.47112e-09
2.59414e-10
4.69019e-09
4.14089e-10
-4.25656e-09
5.61385e-09
-1.77139e-09
-3.14105e-09
5.36818e-09
-1.81303e-09
3.35168e-09
-8.71503e-09
8.92171e-10
-5.53159e-09
4.62671e-09
-3.63058e-09
-5.76191e-09
-1.05423e-08
5.80616e-10
4.59971e-09
5.36192e-09
-1.2874e-08
-8.17538e-09
1.05071e-08
9.38556e-09
-1.06652e-08
-2.35102e-09
4.43457e-09
-9.41176e-09
1.54216e-08
-9.15092e-09
-4.2466e-09
-3.69894e-10
-1.97962e-08
-8.28778e-09
5.59684e-09
2.24872e-08
-3.04515e-09
-1.74969e-08
7.45927e-10
3.59024e-09
-1.19689e-08
-2.17081e-10
8.59573e-09
-7.54771e-09
8.77863e-09
2.35932e-09
6.92134e-09
7.0516e-09
-1.03452e-08
-3.62769e-09
4.55135e-09
-9.59893e-09
1.77268e-08
-1.66852e-09
-1.91035e-08
1.36102e-08
-4.17114e-09
1.36557e-09
-1.86169e-09
-7.45405e-09
5.16375e-09
-9.74005e-09
-1.05582e-08
1.18581e-08
8.4402e-09
-5.63137e-09
-1.58335e-08
1.17248e-08
-9.46131e-10
-1.19179e-08
2.51878e-09
-7.19589e-09
-6.45763e-09
-4.30556e-09
-1.52475e-09
-1.61769e-09
4.66963e-09
8.86115e-09
-1.14758e-08
-1.13126e-08
3.23724e-09
-6.75697e-09
-2.48005e-08
1.29899e-08
2.27401e-08
-1.09292e-08
-9.46642e-09
-4.63815e-09
-1.06957e-08
-8.75049e-09
-2.08268e-08
2.0111e-08
1.23098e-09
-1.04299e-08
2.21888e-08
-9.8521e-09
-7.00707e-09
1.80902e-08
-8.36111e-09
2.74187e-09
-4.23272e-09
-1.27824e-08
-8.64803e-09
1.44234e-08
1.8768e-09
-8.62877e-09
-6.03039e-09
1.35129e-08
-8.87892e-09
-9.27197e-09
1.39011e-08
-6.95217e-09
-5.07207e-09
-4.30505e-09
9.55821e-09
-2.60441e-09
5.68748e-09
-8.20983e-09
-8.78002e-09
1.73379e-09
-1.8694e-08
8.32693e-09
-1.5472e-08
1.08254e-08
-9.45052e-09
3.91596e-09
1.36138e-08
5.02952e-10
-1.06459e-08
-3.47093e-09
4.2264e-09
9.7598e-10
8.41143e-09
6.38293e-10
-5.59444e-09
8.302e-10
4.12598e-09
-6.77944e-09
1.92405e-09
5.4937e-09
7.23565e-09
-2.45913e-09
-1.0371e-08
-3.31627e-09
3.77248e-09
4.63129e-09
-1.31282e-08
1.27233e-08
-9.42174e-09
3.71202e-09
6.68569e-09
-6.9275e-09
-1.9913e-09
9.75261e-10
4.48623e-09
-1.05834e-09
-2.93689e-09
4.97049e-09
-3.79009e-09
4.65579e-09
1.46223e-09
-4.75377e-09
-2.47335e-11
-1.71137e-09
-4.46314e-09
-6.9537e-09
-4.44209e-09
-7.91515e-09
-4.70176e-09
3.39492e-09
-3.59277e-09
4.89961e-09
4.43465e-09
2.16153e-09
-1.12979e-08
-2.53495e-09
3.31006e-09
-2.47973e-09