/*--------------------------------*- C++ -*----------------------------------*\
| =========                 |                                                 |
| \\      /  F ield         | OpenFOAM: The Open Source CFD Toolbox           |
|  \\    /   O peration     | Version:  v1612+                                |
|   \\  /    A nd           | Web:      www.OpenFOAM.com                      |
|    \\/     M anipulation  |                                                 |
\*---------------------------------------------------------------------------*/
FoamFile
{
    version     2.0;
    format      ascii;
    class       volVectorField;
    location    "50";
    object      U;
}
// * * * * * * * * * * * * * * * * * * * * * * * * * * * * * * * * * * * * * //

dimensions      [0 1 -1 0 0 0 0];

internalField   nonuniform List<vector> 
17140
(
(-0.104726 0.60887 -0.219976)
(-0.103449 0.641362 -0.241701)
(-0.18006 1.07499 -0.395185)
(-0.122757 0.723263 -0.268923)
(-0.197375 1.21497 -0.455797)
(-0.103081 0.562874 -0.213224)
(-0.0908997 0.506933 -0.19486)
(-0.0955903 0.583795 -0.225239)
(-0.0969986 0.538573 -0.204801)
(-0.107286 0.630323 -0.243299)
(-0.0988301 0.590432 -0.224068)
(-0.0982192 0.577825 -0.219888)
(-0.0938799 0.529445 -0.201506)
(-0.0940246 0.545774 -0.212445)
(-0.0975588 0.620504 -0.243614)
(-0.123349 0.733289 -0.284248)
(-0.127395 0.735458 -0.284783)
(-0.100538 0.57108 -0.221665)
(-0.107012 0.594788 -0.228217)
(-0.12233 0.747809 -0.290586)
(-0.127173 0.778621 -0.3021)
(-0.119524 0.754622 -0.287091)
(-0.112634 0.634824 -0.252997)
(-0.168305 0.970683 -0.364831)
(-0.161014 0.959211 -0.353368)
(-0.159315 0.958323 -0.354395)
(-0.161744 0.977743 -0.361081)
(-0.14829 0.878505 -0.330912)
(-0.150584 0.88552 -0.331969)
(-0.133849 0.831207 -0.311666)
(-0.124205 0.758659 -0.288306)
(-0.135753 0.810312 -0.302684)
(-0.120565 0.740879 -0.276537)
(-0.134424 0.794017 -0.300845)
(-0.13978 0.858553 -0.322639)
(-0.160525 0.967046 -0.357339)
(-0.135801 0.81273 -0.307138)
(-0.146239 0.853145 -0.321689)
(-0.162233 0.989124 -0.370207)
(-0.155925 0.955385 -0.357523)
(-0.140802 0.854751 -0.328332)
(-0.172716 0.974551 -0.361406)
(-0.182136 1.09148 -0.401989)
(-0.152871 0.888601 -0.325394)
(-0.16208 0.940949 -0.348676)
(-0.189302 1.13261 -0.413335)
(-0.150011 0.94036 -0.338256)
(-0.145123 0.872447 -0.323236)
(-0.152187 0.903928 -0.326194)
(-0.123636 0.762156 -0.273767)
(-0.138032 0.781128 -0.285487)
(-0.135339 0.806127 -0.281484)
(-0.107012 0.627978 -0.22952)
(-0.123135 0.715639 -0.264496)
(-0.105241 0.660427 -0.231342)
(-0.103003 0.649319 -0.219051)
(-0.085167 0.568057 -0.196404)
(-0.0823385 0.595475 -0.204053)
(-0.0845017 0.569681 -0.197467)
(-0.0855506 0.526652 -0.183916)
(-0.0952502 0.585609 -0.205023)
(-0.0876957 0.556011 -0.193265)
(-0.0744153 0.524557 -0.188403)
(-0.0702501 0.459386 -0.16769)
(-0.0859752 0.570061 -0.199991)
(-0.0845315 0.538544 -0.182786)
(-0.0703671 0.457209 -0.161541)
(-0.159672 0.942842 -0.342549)
(-0.146203 0.828849 -0.299611)
(-0.128258 0.740948 -0.260219)
(-0.123843 0.708225 -0.262103)
(-0.130654 0.749511 -0.277266)
(-0.141624 0.821355 -0.293057)
(-0.137745 0.824299 -0.30361)
(-0.137114 0.798492 -0.287699)
(-0.143863 0.79126 -0.286385)
(-0.156891 0.979235 -0.354967)
(-0.156535 0.923995 -0.326937)
(-0.131665 0.775932 -0.271757)
(-0.111645 0.660411 -0.240401)
(-0.136378 0.756039 -0.26985)
(-0.128918 0.730925 -0.261863)
(-0.113999 0.688878 -0.245382)
(-0.139637 0.757765 -0.278256)
(-0.151374 0.81093 -0.307034)
(-0.124123 0.703514 -0.262104)
(-0.129888 0.760286 -0.27929)
(-0.123281 0.703392 -0.262695)
(-0.143951 0.831476 -0.311475)
(-0.156467 0.887658 -0.333327)
(-0.139908 0.780139 -0.280636)
(-0.154223 0.885745 -0.342347)
(-0.158839 0.930042 -0.359283)
(-0.139357 0.811436 -0.308565)
(-0.127389 0.752177 -0.273022)
(-0.152265 0.868598 -0.334029)
(-0.148122 0.852984 -0.324839)
(-0.119932 0.707467 -0.256373)
(-0.125374 0.722518 -0.266218)
(-0.121367 0.673065 -0.242697)
(-0.134521 0.784811 -0.2924)
(-0.157778 0.928976 -0.336419)
(-0.13712 0.799741 -0.292081)
(-0.134962 0.756646 -0.276514)
(-0.13406 0.749989 -0.269289)
(-0.127438 0.729151 -0.262287)
(-0.157462 0.933301 -0.342863)
(-0.141521 0.822736 -0.300195)
(-0.133319 0.756781 -0.274084)
(-0.124872 0.721778 -0.261152)
(-0.133709 0.794427 -0.287908)
(-0.135053 0.7779 -0.287487)
(-0.160001 0.931176 -0.338649)
(-0.13691 0.783403 -0.28299)
(-0.14281 0.811758 -0.299088)
(-0.103447 0.574459 -0.206418)
(-0.110261 0.609984 -0.217952)
(-0.123178 0.718321 -0.258414)
(-0.113254 0.621643 -0.220214)
(-0.103838 0.593205 -0.21785)
(-0.0993023 0.553998 -0.196085)
(-0.0915849 0.542916 -0.203875)
(-0.0779019 0.489607 -0.181658)
(-0.101927 0.579563 -0.213076)
(-0.103813 0.547199 -0.197796)
(-0.0964927 0.553347 -0.198364)
(-0.0921606 0.524004 -0.184417)
(-0.108142 0.590386 -0.223476)
(-0.118023 0.651017 -0.242627)
(-0.131952 0.702308 -0.266289)
(-0.0939683 0.515557 -0.194109)
(-0.0949753 0.536672 -0.198773)
(-0.0838849 0.490654 -0.179882)
(-0.129054 0.749134 -0.270656)
(-0.119413 0.648776 -0.237077)
(-0.132477 0.740174 -0.278309)
(-0.198972 1.16119 -0.433633)
(-0.193639 1.16747 -0.436518)
(-0.183271 1.13291 -0.421903)
(-0.198702 1.19973 -0.447618)
(-0.177589 1.02116 -0.383323)
(-0.181176 1.08113 -0.400843)
(-0.173981 1.03819 -0.384758)
(-0.18043 1.09068 -0.410271)
(-0.178702 1.04898 -0.392413)
(-0.198795 1.19255 -0.453397)
(-0.18122 1.03154 -0.379585)
(-0.177946 1.07901 -0.404182)
(-0.182116 1.10029 -0.404871)
(-0.193229 1.15423 -0.429299)
(-0.18854 1.14124 -0.430652)
(-0.168469 0.990068 -0.371399)
(-0.177533 1.0406 -0.386489)
(-0.170498 1.04172 -0.39087)
(-0.179078 1.0727 -0.402421)
(-0.164064 0.99698 -0.368312)
(-0.203848 1.13714 -0.431958)
(-0.185237 1.05287 -0.408999)
(-0.169341 0.972441 -0.373045)
(-0.158901 0.897014 -0.357066)
(-0.158472 0.937152 -0.367969)
(-0.149091 0.859126 -0.340605)
(-0.164198 0.950101 -0.376258)
(-0.16896 1.00748 -0.397655)
(-0.162013 0.954812 -0.366)
(-0.173893 1.00788 -0.38704)
(-0.204873 1.14783 -0.440474)
(-0.191014 1.12293 -0.426758)
(-0.184281 1.03607 -0.389265)
(-0.175242 0.97227 -0.376436)
(-0.167713 0.940034 -0.364139)
(-0.16252 0.909709 -0.346497)
(-0.174494 0.983744 -0.37668)
(-0.172837 1.00134 -0.38881)
(-0.178773 1.02238 -0.398949)
(-0.193923 1.0926 -0.409286)
(-0.184989 1.09823 -0.417887)
(-0.18913 1.08368 -0.407551)
(-0.192854 1.15136 -0.425559)
(-0.161677 0.898765 -0.348079)
(-0.149425 0.855927 -0.336397)
(-0.175993 0.999888 -0.389986)
(-0.164848 0.936635 -0.364355)
(-0.165466 0.913141 -0.359973)
(-0.168428 0.945168 -0.373869)
(-0.194553 1.09304 -0.410399)
(-0.177973 0.999088 -0.389265)
(-0.114629 0.653973 -0.244128)
(-0.116588 0.700872 -0.254564)
(-0.134329 0.836392 -0.330596)
(-0.143467 0.878963 -0.336787)
(-0.119858 0.712991 -0.268404)
(-0.130753 0.812189 -0.303336)
(-0.141942 0.807085 -0.303161)
(-0.145253 0.90066 -0.345225)
(-0.165074 0.977682 -0.368969)
(-0.155279 0.936507 -0.359481)
(-0.102885 0.612226 -0.222299)
(-0.091168 0.554278 -0.199511)
(-0.103747 0.638358 -0.245931)
(-0.123963 0.807524 -0.306984)
(-0.115794 0.749372 -0.278916)
(-0.132875 0.798679 -0.300912)
(-0.0937997 0.598897 -0.238815)
(-0.104555 0.615221 -0.244)
(-0.111942 0.712276 -0.272162)
(-0.141175 0.816308 -0.309736)
(-0.111764 0.663944 -0.248497)
(-0.10366 0.62122 -0.229198)
(-0.0987755 0.588995 -0.218751)
(-0.100102 0.614487 -0.225426)
(-0.0935819 0.588406 -0.218127)
(-0.099468 0.617039 -0.221764)
(-0.104407 0.666889 -0.24144)
(-0.11704 0.6777 -0.253257)
(-0.0878971 0.551603 -0.202943)
(-0.112905 0.667574 -0.244838)
(-0.0953756 0.633563 -0.224385)
(-0.0931258 0.597887 -0.215768)
(-0.137399 0.828003 -0.303173)
(-0.108594 0.659041 -0.239891)
(-0.0957062 0.574522 -0.209651)
(-0.13421 0.831088 -0.30157)
(-0.108165 0.691054 -0.246697)
(-0.127509 0.791831 -0.29372)
(-0.126646 0.820911 -0.289279)
(-0.140872 0.858065 -0.300628)
(-0.130929 0.796543 -0.290448)
(-0.105755 0.702417 -0.245102)
(-0.126763 0.817455 -0.296464)
(-0.155343 0.932192 -0.357483)
(-0.155681 0.900744 -0.3339)
(-0.177155 1.11901 -0.423662)
(-0.184492 1.14644 -0.443629)
(-0.155096 0.98263 -0.372764)
(-0.161179 0.979943 -0.370821)
(-0.155514 0.921642 -0.340417)
(-0.163058 0.978469 -0.363704)
(-0.175695 1.08916 -0.413383)
(-0.185609 1.13635 -0.431978)
(-0.147481 0.919021 -0.338431)
(-0.174888 1.06971 -0.401372)
(-0.182037 1.12025 -0.432887)
(-0.186106 1.14782 -0.44319)
(-0.172 1.03875 -0.391227)
(-0.0985336 0.62099 -0.221136)
(-0.093994 0.562336 -0.204774)
(-0.104025 0.610873 -0.227601)
(-0.0900825 0.536798 -0.194674)
(-0.111789 0.670141 -0.245061)
(-0.0913753 0.617135 -0.227466)
(-0.108594 0.694133 -0.255877)
(-0.103077 0.669792 -0.248547)
(-0.100882 0.599131 -0.218599)
(-0.138439 0.85896 -0.326945)
(-0.13373 0.814463 -0.312824)
(-0.139076 0.853901 -0.299339)
(-0.114865 0.743521 -0.273157)
(-0.132367 0.809744 -0.297984)
(-0.120062 0.709619 -0.260556)
(-0.124159 0.794039 -0.289107)
(-0.142087 0.75829 -0.301952)
(-0.142103 0.830051 -0.322521)
(-0.124446 0.711392 -0.274999)
(-0.128209 0.788681 -0.297092)
(-0.133514 0.766237 -0.297244)
(-0.13654 0.804975 -0.314831)
(-0.135397 0.784487 -0.288869)
(-0.145156 0.846133 -0.306832)
(-0.134031 0.771939 -0.280653)
(-0.132365 0.738387 -0.266107)
(-0.140697 0.778891 -0.286016)
(-0.138793 0.828698 -0.30451)
(-0.137353 0.775861 -0.282418)
(-0.135215 0.781739 -0.281858)
(-0.139796 0.821478 -0.296239)
(-0.164483 0.962198 -0.355009)
(-0.160136 0.96274 -0.352741)
(-0.147192 0.820153 -0.296409)
(-0.154169 0.935701 -0.337229)
(-0.100821 0.581396 -0.211634)
(-0.106806 0.648338 -0.241135)
(-0.107065 0.611973 -0.230891)
(-0.111687 0.666235 -0.252041)
(-0.0951455 0.583268 -0.209274)
(-0.0844778 0.486619 -0.178103)
(-0.086266 0.559357 -0.210943)
(-0.0902966 0.532411 -0.192338)
(-0.104013 0.543468 -0.194948)
(-0.0995745 0.503862 -0.177633)
(-0.119261 0.766166 -0.286337)
(-0.112219 0.686945 -0.272917)
(-0.0787164 0.478757 -0.180073)
(-0.0964467 0.588213 -0.222761)
(-0.0942149 0.53887 -0.19589)
(-0.0987645 0.592273 -0.212985)
(-0.112664 0.687659 -0.258982)
(-0.120448 0.701343 -0.263013)
(-0.14255 0.780782 -0.295799)
(-0.128418 0.7049 -0.270872)
(-0.140081 0.748154 -0.285698)
(-0.129607 0.752754 -0.282535)
(-0.129119 0.70525 -0.264388)
(-0.118349 0.640686 -0.238464)
(-0.133956 0.736741 -0.270711)
(-0.0890905 0.528795 -0.2016)
(-0.107734 0.590677 -0.223659)
(-0.120284 0.674532 -0.256306)
(-0.101738 0.589588 -0.220292)
(-0.0991918 0.573413 -0.225119)
(-0.0934336 0.583472 -0.221349)
(-0.0983419 0.564772 -0.217214)
(-0.0881813 0.517873 -0.201569)
(-0.097807 0.555705 -0.217801)
(-0.0913002 0.51498 -0.197325)
(-0.0923086 0.542772 -0.210291)
(-0.0997363 0.567883 -0.229981)
(-0.099028 0.576052 -0.220321)
(-0.0882068 0.511013 -0.192201)
(-0.0859662 0.485864 -0.182756)
(-0.0981373 0.637593 -0.23154)
(-0.0839307 0.569928 -0.209739)
(-0.0926815 0.58974 -0.214232)
(-0.0823033 0.505371 -0.182294)
(-0.107742 0.674422 -0.254269)
(-0.0980986 0.621373 -0.232347)
(-0.0737649 0.475267 -0.1695)
(-0.133594 0.793521 -0.300266)
(-0.119583 0.730755 -0.276479)
(-0.0880873 0.567753 -0.210552)
(-0.0822448 0.539774 -0.198808)
(-0.101997 0.630586 -0.231678)
(-0.0874551 0.556422 -0.202839)
(-0.126825 0.75347 -0.283333)
(-0.124621 0.763762 -0.287963)
(-0.11563 0.734189 -0.265751)
(-0.11981 0.767298 -0.284454)
(-0.097753 0.615307 -0.227246)
(-0.083172 0.558008 -0.208175)
(-0.100315 0.6268 -0.227545)
(-0.138178 0.767637 -0.285951)
(-0.140618 0.789323 -0.285664)
(-0.116743 0.644187 -0.239772)
(-0.119026 0.647148 -0.236696)
(-0.149555 0.832252 -0.310827)
(-0.147823 0.881378 -0.327602)
(-0.135893 0.741976 -0.264957)
(-0.101056 0.579807 -0.208557)
(-0.0944013 0.541134 -0.196167)
(-0.10672 0.584469 -0.213899)
(-0.0952106 0.524197 -0.191608)
(-0.0958819 0.52277 -0.186195)
(-0.0941072 0.516568 -0.187863)
(-0.0922623 0.542519 -0.1917)
(-0.0865114 0.494052 -0.174134)
(-0.119013 0.661177 -0.253898)
(-0.112354 0.613161 -0.230998)
(-0.115101 0.621171 -0.229081)
(-0.0984907 0.547244 -0.206722)
(-0.084243 0.467753 -0.169516)
(-0.109405 0.622748 -0.227198)
(-0.112744 0.618095 -0.218339)
(-0.100281 0.600102 -0.211614)
(-0.099264 0.597216 -0.220363)
(-0.12501 0.729503 -0.262821)
(-0.132688 0.752675 -0.274501)
(-0.115539 0.689827 -0.25839)
(-0.128892 0.750966 -0.281936)
(-0.144867 0.807064 -0.293103)
(-0.138241 0.779272 -0.280855)
(-0.14193 0.843023 -0.310927)
(-0.146543 0.812693 -0.297362)
(-0.114454 0.718442 -0.258925)
(-0.129142 0.773115 -0.282943)
(-0.133449 0.787596 -0.294489)
(-0.141605 0.824973 -0.300445)
(-0.152369 0.855993 -0.324976)
(-0.161498 0.89439 -0.333023)
(-0.166394 0.978831 -0.357847)
(-0.16124 0.984642 -0.367669)
(-0.145908 0.829092 -0.295747)
(-0.141039 0.828521 -0.309555)
(-0.140046 0.839574 -0.29802)
(-0.122579 0.757108 -0.280434)
(-0.158741 0.935085 -0.344415)
(-0.160069 0.910773 -0.332277)
(-0.137096 0.781503 -0.285282)
(-0.195867 1.19715 -0.452088)
(-0.19215 1.21218 -0.461716)
(-0.191947 1.16855 -0.44549)
(-0.183823 1.12787 -0.427448)
(-0.204253 1.20955 -0.45241)
(-0.194484 1.18956 -0.454332)
(-0.188568 1.14097 -0.432425)
(-0.193777 1.19415 -0.454965)
(-0.193467 1.17273 -0.437469)
(-0.177198 1.09491 -0.416488)
(-0.203834 1.22661 -0.458595)
(-0.194437 1.16335 -0.44178)
(-0.18715 1.13933 -0.427877)
(-0.194127 1.13862 -0.428086)
(-0.178643 1.07676 -0.404922)
(-0.183606 1.09446 -0.405137)
(-0.198533 1.19906 -0.449179)
(-0.196881 1.19745 -0.449623)
(-0.190002 1.10333 -0.415372)
(-0.195081 1.14026 -0.434829)
(-0.19633 1.20645 -0.449928)
(-0.194184 1.22238 -0.4631)
(-0.194874 1.20768 -0.458818)
(-0.195705 1.20394 -0.458091)
(-0.196308 1.2033 -0.451601)
(-0.195492 1.22029 -0.460468)
(-0.167056 1.05724 -0.400621)
(-0.16319 1.08276 -0.410154)
(-0.158032 0.99399 -0.379835)
(-0.166945 0.998102 -0.383935)
(-0.178774 1.15035 -0.432578)
(-0.167864 1.11942 -0.427126)
(-0.16534 1.04011 -0.390633)
(-0.137909 0.898485 -0.343672)
(-0.12684 0.805706 -0.299568)
(-0.168497 1.07262 -0.407404)
(-0.154589 1.0261 -0.385304)
(-0.162408 1.07181 -0.407209)
(-0.152532 0.940105 -0.349295)
(-0.156584 0.969343 -0.362886)
(-0.149544 0.92865 -0.350386)
(-0.160658 1.02115 -0.380227)
(-0.155951 0.945831 -0.358399)
(-0.157413 0.930047 -0.348272)
(-0.145984 0.9143 -0.345298)
(-0.177185 1.07787 -0.399357)
(-0.181601 1.08083 -0.398336)
(-0.192728 1.15856 -0.43169)
(-0.192678 1.15586 -0.428771)
(-0.16459 0.991164 -0.361598)
(-0.16972 1.01905 -0.373068)
(-0.162696 0.973597 -0.361239)
(-0.153362 0.914722 -0.335464)
(-0.179473 1.04983 -0.397607)
(-0.167223 1.01537 -0.365553)
(-0.167751 1.00326 -0.372351)
(-0.162422 1.01916 -0.381192)
(-0.162036 0.981393 -0.363604)
(-0.157713 0.941134 -0.350113)
(-0.164209 0.993032 -0.366708)
(-0.163575 0.941971 -0.352306)
(-0.181221 1.01499 -0.388355)
(-0.149131 0.920173 -0.346718)
(-0.142386 0.899001 -0.332731)
(-0.160756 0.990562 -0.372794)
(-0.132979 0.746203 -0.272814)
(-0.130325 0.758559 -0.280949)
(-0.131219 0.764029 -0.276178)
(-0.131212 0.74008 -0.264333)
(-0.134491 0.756743 -0.279731)
(-0.127853 0.733788 -0.262116)
(-0.130299 0.781539 -0.283433)
(-0.13018 0.756944 -0.283169)
(-0.15023 0.891656 -0.329539)
(-0.154597 0.906159 -0.343475)
(-0.138837 0.793693 -0.291369)
(-0.13657 0.770296 -0.280788)
(-0.133949 0.794866 -0.291375)
(-0.14451 0.862962 -0.323048)
(-0.154356 0.909111 -0.339818)
(-0.157202 0.933879 -0.347846)
(-0.131114 0.795107 -0.293704)
(-0.150201 0.866283 -0.316252)
(-0.147557 0.920316 -0.340833)
(-0.137505 0.893791 -0.333692)
(-0.126414 0.809606 -0.301337)
(-0.134924 0.860228 -0.318445)
(-0.118624 0.737148 -0.274446)
(-0.0941556 0.634001 -0.22096)
(-0.0909239 0.635945 -0.232941)
(-0.106726 0.664326 -0.233663)
(-0.100467 0.644017 -0.23637)
(-0.134672 0.899017 -0.335104)
(-0.150489 0.942301 -0.347571)
(-0.128134 0.822996 -0.303228)
(-0.117297 0.741152 -0.273006)
(-0.123799 0.768286 -0.284629)
(-0.122774 0.808344 -0.304915)
(-0.0956045 0.688468 -0.244063)
(-0.124529 0.800943 -0.285571)
(-0.114877 0.779692 -0.285875)
(-0.128294 0.844998 -0.313363)
(-0.146419 0.791842 -0.311386)
(-0.150005 0.826031 -0.309775)
(-0.11512 0.658904 -0.252573)
(-0.143979 0.860238 -0.327931)
(-0.127323 0.687636 -0.266581)
(-0.166981 0.925316 -0.351718)
(-0.13893 0.743982 -0.286445)
(-0.167307 0.979864 -0.385561)
(-0.127833 0.693516 -0.26417)
(-0.139243 0.785703 -0.311181)
(-0.150745 0.918191 -0.328947)
(-0.160184 0.961476 -0.354156)
(-0.161843 0.97265 -0.352334)
(-0.162739 1.01049 -0.376879)
(-0.130309 0.8453 -0.306797)
(-0.137776 0.868346 -0.315171)
(-0.177073 1.05915 -0.382348)
(-0.176378 1.08262 -0.403994)
(-0.17092 1.01291 -0.368359)
(-0.169691 1.03251 -0.380105)
(-0.157203 0.974825 -0.360705)
(-0.143833 0.899878 -0.323931)
(-0.138729 0.815101 -0.291418)
(-0.146397 0.862432 -0.309299)
(-0.159344 0.963228 -0.356052)
(-0.142794 0.894255 -0.322689)
(-0.158437 0.941291 -0.335084)
(-0.147417 0.909538 -0.32948)
(-0.148301 0.894034 -0.324518)
(-0.140272 0.814826 -0.292312)
(-0.148777 0.81335 -0.298196)
(-0.15199 0.921287 -0.330448)
(-0.139796 0.825053 -0.303486)
(-0.136756 0.823242 -0.294915)
(-0.1184 0.747014 -0.270285)
(-0.148161 0.877847 -0.32032)
(-0.157644 0.9339 -0.336371)
(-0.1244 0.765158 -0.270159)
(-0.110823 0.665636 -0.244172)
(-0.15467 0.931144 -0.341559)
(-0.136409 0.778793 -0.284768)
(-0.136467 0.819692 -0.296879)
(-0.106197 0.673548 -0.237178)
(-0.111177 0.677902 -0.242488)
(-0.107523 0.669297 -0.236527)
(-0.128148 0.765772 -0.278791)
(-0.187773 1.10828 -0.422761)
(-0.194025 1.11975 -0.420204)
(-0.189391 1.07103 -0.405027)
(-0.172683 0.996949 -0.382362)
(-0.184466 1.0937 -0.414396)
(-0.16101 0.957397 -0.362527)
(-0.181051 1.07825 -0.413203)
(-0.181157 1.07324 -0.407823)
(-0.161715 0.957792 -0.366723)
(-0.174406 0.992307 -0.371783)
(-0.156538 0.903026 -0.34666)
(-0.168169 1.00452 -0.373536)
(-0.124097 0.695694 -0.260587)
(-0.133971 0.754401 -0.282638)
(-0.103229 0.580249 -0.218198)
(-0.0915639 0.522076 -0.197348)
(-0.102347 0.571981 -0.212513)
(-0.104846 0.597547 -0.218087)
(-0.129473 0.745819 -0.280761)
(-0.127963 0.740236 -0.2777)
(-0.125439 0.722868 -0.265707)
(-0.117179 0.610803 -0.230117)
(-0.107556 0.585891 -0.216888)
(-0.124942 0.727015 -0.272353)
(-0.130319 0.759605 -0.28041)
(-0.131565 0.730858 -0.281786)
(-0.101144 0.536882 -0.197967)
(-0.102074 0.518337 -0.196749)
(-0.0963376 0.55356 -0.207425)
(-0.0943357 0.497654 -0.185657)
(-0.124795 0.698372 -0.258432)
(-0.0957976 0.573558 -0.210759)
(-0.0993328 0.544586 -0.211428)
(-0.105949 0.538065 -0.204833)
(-0.153549 0.986953 -0.364791)
(-0.141764 0.946782 -0.356915)
(-0.1655 1.00087 -0.375038)
(-0.176248 1.08595 -0.403296)
(-0.159726 1.01862 -0.378799)
(-0.150887 0.950375 -0.356316)
(-0.145397 0.879864 -0.317592)
(-0.174696 1.10823 -0.413723)
(-0.114003 0.788191 -0.284739)
(-0.126165 0.818442 -0.294559)
(-0.154062 1.02618 -0.386175)
(-0.169254 1.08768 -0.406765)
(-0.150977 0.950388 -0.351813)
(-0.149204 0.915084 -0.347441)
(-0.127655 0.825042 -0.296866)
(-0.128231 0.826612 -0.308891)
(-0.125792 0.793764 -0.289326)
(-0.162386 0.989194 -0.371502)
(-0.161174 1.02713 -0.380251)
(-0.131548 0.883269 -0.323782)
(-0.147901 0.904075 -0.33942)
(-0.127701 0.831715 -0.308841)
(-0.127744 0.834649 -0.318527)
(-0.143207 0.873274 -0.325307)
(-0.161692 0.982391 -0.367749)
(-0.135501 0.867323 -0.322286)
(-0.125452 0.833901 -0.312215)
(-0.141872 0.891389 -0.329967)
(-0.1492 0.91813 -0.340095)
(-0.172849 1.04578 -0.393842)
(-0.176501 1.04749 -0.395798)
(-0.136729 0.861048 -0.323013)
(-0.136955 0.848914 -0.319504)
(-0.14482 0.894362 -0.335974)
(-0.164906 1.0024 -0.374844)
(-0.163626 1.00247 -0.37367)
(-0.121773 0.801563 -0.301257)
(-0.14591 0.940995 -0.360373)
(-0.121438 0.87885 -0.335075)
(-0.124158 0.812808 -0.31164)
(-0.115349 0.698255 -0.248172)
(-0.123888 0.773772 -0.286332)
(-0.116668 0.726563 -0.271295)
(-0.117044 0.664869 -0.240919)
(-0.122706 0.74132 -0.263784)
(-0.135203 0.791624 -0.287015)
(-0.134557 0.809892 -0.307821)
(-0.147328 0.784352 -0.287012)
(-0.140876 0.750137 -0.278538)
(-0.144948 0.889933 -0.330839)
(-0.139102 0.777455 -0.279425)
(-0.141816 0.787798 -0.295593)
(-0.149357 0.89264 -0.331353)
(-0.146389 0.80606 -0.300441)
(-0.148691 0.854866 -0.314396)
(-0.14283 0.789607 -0.301372)
(-0.129147 0.734658 -0.264176)
(-0.164053 0.916657 -0.352005)
(-0.162681 0.923143 -0.346199)
(-0.138709 0.838015 -0.321015)
(-0.13266 0.761454 -0.285267)
(-0.145924 0.871928 -0.333788)
(-0.129952 0.783932 -0.288753)
(-0.133148 0.75582 -0.291348)
(-0.137355 0.795885 -0.3092)
(-0.136607 0.814687 -0.309965)
(-0.125125 0.756961 -0.281495)
(-0.130906 0.759126 -0.294426)
(-0.140944 0.856773 -0.32211)
(-0.152984 0.905825 -0.344278)
(-0.139329 0.799034 -0.307871)
(-0.136303 0.795558 -0.304631)
(-0.129771 0.785577 -0.296401)
(-0.163312 0.956757 -0.364689)
(-0.16499 0.977539 -0.368142)
(-0.165442 0.969985 -0.372494)
(-0.130806 0.787699 -0.304597)
(-0.124484 0.796987 -0.29642)
(-0.121739 0.742187 -0.278085)
(-0.0938096 0.568159 -0.206253)
(-0.0881139 0.532334 -0.193688)
(-0.100736 0.575908 -0.211014)
(-0.0761522 0.491168 -0.185525)
(-0.112477 0.691152 -0.252721)
(-0.121916 0.76018 -0.277321)
(-0.131122 0.792457 -0.292314)
(-0.0830858 0.552604 -0.199954)
(-0.0961778 0.5841 -0.209648)
(-0.0925938 0.562963 -0.206436)
(-0.105719 0.643955 -0.237179)
(-0.129479 0.758392 -0.279892)
(-0.120481 0.754237 -0.270096)
(-0.119227 0.734986 -0.260525)
(-0.0979504 0.596307 -0.218613)
(-0.0962706 0.608208 -0.221462)
(-0.11527 0.70274 -0.2535)
(-0.110101 0.703106 -0.258033)
(-0.131834 0.743148 -0.283436)
(-0.139776 0.791309 -0.310518)
(-0.146548 0.798964 -0.314104)
(-0.147231 0.816825 -0.321566)
(-0.13898 0.775151 -0.304273)
(-0.130306 0.734522 -0.28302)
(-0.129914 0.737717 -0.285286)
(-0.116853 0.671235 -0.259184)
(-0.151324 0.862523 -0.338025)
(-0.139081 0.783815 -0.297591)
(-0.1321 0.722148 -0.282057)
(-0.113741 0.674303 -0.25982)
(-0.135279 0.768574 -0.281122)
(-0.125241 0.74088 -0.268477)
(-0.135899 0.769607 -0.28415)
(-0.131787 0.73383 -0.266634)
(-0.141648 0.809692 -0.295759)
(-0.14459 0.805503 -0.293267)
(-0.126683 0.726893 -0.261868)
(-0.141777 0.824349 -0.30223)
(-0.129998 0.709365 -0.258372)
(-0.147506 0.86163 -0.317157)
(-0.108012 0.643837 -0.231142)
(-0.10212 0.617831 -0.231661)
(-0.103435 0.572421 -0.202044)
(-0.105998 0.614633 -0.225311)
(-0.105941 0.61634 -0.219596)
(-0.143221 0.803385 -0.292749)
(-0.112931 0.611836 -0.217669)
(-0.129531 0.742593 -0.269295)
(-0.0842003 0.541552 -0.19709)
(-0.0879583 0.568872 -0.21229)
(-0.0850347 0.566599 -0.201548)
(-0.0739099 0.506125 -0.179876)
(-0.0771678 0.529442 -0.192924)
(-0.0790521 0.504071 -0.184362)
(-0.101298 0.708792 -0.256453)
(-0.077244 0.510663 -0.169601)
(-0.0736902 0.564212 -0.210939)
(-0.0887774 0.576821 -0.21764)
(-0.110915 0.748284 -0.270066)
(-0.107269 0.683464 -0.253219)
(-0.110892 0.768807 -0.281123)
(-0.113323 0.732677 -0.272566)
(-0.1208 0.691049 -0.260723)
(-0.0903573 0.57982 -0.218353)
(-0.161419 0.899586 -0.334376)
(-0.164151 1.0378 -0.389298)
(-0.149244 0.890409 -0.327439)
(-0.147808 0.881952 -0.330371)
(-0.137567 0.834009 -0.299402)
(-0.125588 0.73936 -0.274024)
(-0.162852 0.991879 -0.374902)
(-0.141902 0.926783 -0.347372)
(-0.135116 0.844569 -0.306189)
(-0.110863 0.658301 -0.248308)
(-0.0986986 0.553282 -0.214511)
(-0.103998 0.675814 -0.246758)
(-0.0976073 0.612525 -0.227943)
(-0.0859714 0.518617 -0.197865)
(-0.114592 0.68298 -0.264486)
(-0.0933529 0.550258 -0.213722)
(-0.11347 0.664362 -0.257279)
(-0.0963814 0.62097 -0.22829)
(-0.0859226 0.506077 -0.196516)
(-0.111517 0.710703 -0.268279)
(-0.0860468 0.536051 -0.19401)
(-0.0784427 0.462231 -0.176811)
(-0.0879394 0.519631 -0.201863)
(-0.0877868 0.548619 -0.20279)
(-0.0826587 0.460476 -0.187745)
(-0.0947059 0.625202 -0.228252)
(-0.0816048 0.483737 -0.189903)
(-0.102021 0.650106 -0.234147)
(-0.0993793 0.585612 -0.218737)
(-0.109125 0.64651 -0.243691)
(-0.096408 0.60237 -0.219945)
(-0.0895707 0.540532 -0.19905)
(-0.136172 0.791111 -0.285765)
(-0.130586 0.799111 -0.287825)
(-0.129313 0.762898 -0.280922)
(-0.0873748 0.537372 -0.190647)
(-0.102957 0.635465 -0.233465)
(-0.145011 0.808167 -0.292479)
(-0.12806 0.784398 -0.28565)
(-0.143169 0.793342 -0.287377)
(-0.111467 0.618078 -0.22)
(-0.109521 0.640742 -0.236193)
(-0.100723 0.580501 -0.206114)
(-0.104239 0.625005 -0.220758)
(-0.110024 0.602596 -0.21816)
(-0.0949986 0.560716 -0.201193)
(-0.0978481 0.54292 -0.196682)
(-0.0793132 0.49967 -0.171421)
(-0.102388 0.593981 -0.213023)
(-0.0879501 0.537381 -0.190073)
(-0.082213 0.510058 -0.173428)
(-0.0986606 0.592372 -0.206762)
(-0.0957781 0.615645 -0.215189)
(-0.10007 0.573876 -0.205769)
(-0.0875929 0.518981 -0.18456)
(-0.130675 0.734159 -0.273504)
(-0.130801 0.756298 -0.275109)
(-0.13547 0.796993 -0.290658)
(-0.105179 0.607956 -0.220006)
(-0.0929564 0.551772 -0.197023)
(-0.105118 0.597821 -0.210898)
(-0.113697 0.69699 -0.248171)
(-0.136951 0.753149 -0.280779)
(-0.135843 0.756843 -0.272392)
(-0.0886757 0.565606 -0.195444)
(-0.086045 0.543195 -0.187931)
(-0.090319 0.568012 -0.203725)
(-0.0813346 0.503185 -0.180586)
(-0.0961364 0.671385 -0.240706)
(-0.101151 0.671328 -0.232745)
(-0.0800955 0.519978 -0.18471)
(-0.0875802 0.575787 -0.20223)
(-0.133608 0.813899 -0.311814)
(-0.0869198 0.584603 -0.208838)
(-0.0999878 0.710111 -0.248515)
(-0.110585 0.710267 -0.263241)
(-0.072533 0.459872 -0.169581)
(-0.091337 0.587247 -0.202075)
(-0.0789931 0.524656 -0.181657)
(-0.0741679 0.499751 -0.177505)
(-0.077141 0.519376 -0.192076)
(-0.0947844 0.704852 -0.253738)
(-0.106897 0.674471 -0.240013)
(-0.0838583 0.587195 -0.214144)
(-0.179735 1.04927 -0.402135)
(-0.165102 0.979636 -0.371405)
(-0.18502 1.05442 -0.398596)
(-0.17944 1.07723 -0.409419)
(-0.195589 1.17157 -0.449067)
(-0.20014 1.19749 -0.457778)
(-0.176231 1.01682 -0.389294)
(-0.161873 0.943256 -0.358714)
(-0.188201 1.12398 -0.426357)
(-0.183609 1.11114 -0.420356)
(-0.185901 1.10658 -0.428436)
(-0.181846 1.07611 -0.421164)
(-0.16564 0.99385 -0.380068)
(-0.185703 1.10103 -0.426519)
(-0.185892 1.12637 -0.436854)
(-0.165008 0.950775 -0.359433)
(-0.177262 1.05072 -0.403672)
(-0.173587 1.01978 -0.390903)
(-0.125991 0.759057 -0.28428)
(-0.125346 0.767313 -0.289462)
(-0.0945943 0.616171 -0.224603)
(-0.0869663 0.583374 -0.2094)
(-0.121559 0.755964 -0.286844)
(-0.124223 0.753493 -0.282421)
(-0.107899 0.683136 -0.26886)
(-0.109971 0.631857 -0.235869)
(-0.0892987 0.572391 -0.214092)
(-0.080693 0.531263 -0.193738)
(-0.119347 0.728782 -0.276338)
(-0.0975164 0.606396 -0.229771)
(-0.104224 0.639716 -0.243807)
(-0.100088 0.608798 -0.222529)
(-0.114448 0.678798 -0.249863)
(-0.0921965 0.583385 -0.219214)
(-0.107778 0.692837 -0.267975)
(-0.0856577 0.541496 -0.190524)
(-0.196398 1.17267 -0.454726)
(-0.198787 1.13649 -0.442607)
(-0.174806 1.04738 -0.397291)
(-0.196343 1.16185 -0.448657)
(-0.198015 1.12894 -0.441328)
(-0.189876 1.13514 -0.440753)
(-0.178803 1.05424 -0.411033)
(-0.195847 1.15791 -0.448454)
(-0.196411 1.13237 -0.444203)
(-0.193657 1.1403 -0.445728)
(-0.178388 1.0541 -0.399878)
(-0.11097 0.612494 -0.232868)
(-0.10092 0.548809 -0.208069)
(-0.106694 0.588629 -0.216985)
(-0.124472 0.682082 -0.246898)
(-0.120078 0.687457 -0.255872)
(-0.104747 0.625301 -0.236259)
(-0.123837 0.734778 -0.27293)
(-0.11263 0.645661 -0.237351)
(-0.140529 0.885645 -0.328492)
(-0.153513 0.899447 -0.330356)
(-0.134467 0.748396 -0.276556)
(-0.12863 0.791096 -0.289646)
(-0.139984 0.806935 -0.295687)
(-0.123769 0.752944 -0.266405)
(-0.170706 1.03579 -0.375639)
(-0.157558 1.01428 -0.367616)
(-0.146669 0.865647 -0.321)
(-0.123174 0.752412 -0.280915)
(-0.129128 0.765796 -0.276125)
(-0.150515 0.880909 -0.319175)
(-0.160883 0.959564 -0.344167)
(-0.164785 0.972129 -0.353244)
(-0.11192 0.693282 -0.252829)
(-0.134705 0.782587 -0.287855)
(-0.159371 0.963896 -0.350704)
(-0.165186 1.01286 -0.367434)
(-0.130801 0.805918 -0.285771)
(-0.121529 0.743553 -0.260748)
(-0.113655 0.687155 -0.246683)
(-0.154137 0.923925 -0.336503)
(-0.137329 0.818715 -0.292276)
(-0.131761 0.814013 -0.296989)
(-0.126558 0.775757 -0.276657)
(-0.176466 1.05881 -0.391801)
(-0.18283 1.04345 -0.387334)
(-0.18216 1.07786 -0.394844)
(-0.177907 1.0078 -0.369458)
(-0.163668 0.939397 -0.346831)
(-0.172435 1.02328 -0.376859)
(-0.15416 0.859545 -0.320223)
(-0.163572 0.90167 -0.330671)
(-0.170278 1.00054 -0.371456)
(-0.141087 0.792843 -0.295395)
(-0.143681 0.797894 -0.294101)
(-0.164681 0.92337 -0.347338)
(-0.160492 0.91368 -0.346667)
(-0.165429 0.941985 -0.350575)
(-0.165595 0.937899 -0.347606)
(-0.150227 0.828465 -0.308066)
(-0.151509 0.843302 -0.311087)
(-0.130974 0.779988 -0.277338)
(-0.126192 0.750383 -0.280592)
(-0.0999036 0.679308 -0.236101)
(-0.106285 0.659798 -0.222284)
(-0.121234 0.683709 -0.246284)
(-0.110681 0.6256 -0.219013)
(-0.138066 0.831022 -0.294748)
(-0.0957779 0.646433 -0.233392)
(-0.0895622 0.609552 -0.219115)
(-0.117989 0.756671 -0.270336)
(-0.106665 0.656658 -0.241362)
(-0.098098 0.591846 -0.210501)
(-0.0844138 0.524241 -0.190987)
(-0.14295 0.871262 -0.314756)
(-0.120377 0.757536 -0.277727)
(-0.108084 0.62797 -0.228475)
(-0.112254 0.669042 -0.237623)
(-0.0981008 0.61025 -0.218934)
(-0.0844533 0.511484 -0.184677)
(-0.0813874 0.622267 -0.217207)
(-0.124206 0.778103 -0.278149)
(-0.0868839 0.627513 -0.21101)
(-0.0877396 0.60435 -0.206655)
(-0.101406 0.582483 -0.196766)
(-0.107094 0.656119 -0.252932)
(-0.0860508 0.55997 -0.213661)
(-0.0956319 0.57656 -0.22029)
(-0.0761808 0.489034 -0.186527)
(-0.0924052 0.602956 -0.230559)
(-0.0812807 0.548705 -0.212578)
(-0.0815321 0.521382 -0.201173)
(-0.0820351 0.500142 -0.190034)
(-0.0847795 0.557939 -0.216938)
(-0.0683579 0.482262 -0.181648)
(-0.10189 0.67677 -0.25432)
(-0.088414 0.582897 -0.220394)
(-0.085384 0.584403 -0.225195)
(-0.102412 0.63281 -0.245088)
(-0.081692 0.546835 -0.204121)
(-0.0895514 0.59349 -0.228163)
(-0.10317 0.696124 -0.268317)
(-0.106539 0.732241 -0.283247)
(-0.0922121 0.564291 -0.204249)
(-0.088259 0.523108 -0.194826)
(-0.0858351 0.510139 -0.181859)
(-0.0934774 0.555579 -0.196857)
(-0.11891 0.70002 -0.252436)
(-0.111332 0.724215 -0.263502)
(-0.0914987 0.593665 -0.213927)
(-0.0946999 0.585602 -0.210714)
(-0.0998199 0.581739 -0.21545)
(-0.093641 0.602066 -0.218186)
(-0.0889659 0.508749 -0.187312)
(-0.126096 0.752204 -0.268242)
(-0.0925515 0.550124 -0.202392)