/*--------------------------------*- C++ -*----------------------------------*\
| =========                 |                                                 |
| \\      /  F ield         | OpenFOAM: The Open Source CFD Toolbox           |
|  \\    /   O peration     | Version:  v1612+                                |
|   \\  /    A nd           | Web:      www.OpenFOAM.com                      |
|    \\/     M anipulation  |                                                 |
\*---------------------------------------------------------------------------*/
FoamFile
{
    version     2.0;
    format      ascii;
    class       volVectorField;
    location    "50";
    object      wallShearStress;
}
// * * * * * * * * * * * * * * * * * * * * * * * * * * * * * * * * * * * * * //

dimensions      [0 2 -2 0 0 0 0];

internalField   uniform (0 0 0);

boundaryField
{
    WALL
    {
        type            calculated;
        value           nonuniform List<vector> 
1510
(
(0.00180748 -0.0113304 0.0042498)
(0.00177783 -0.0114197 0.00434757)
(0.00203626 -0.0112524 0.0040889)
(0.0019193 -0.0109627 0.00409037)
(0.00192984 -0.0112014 0.00403679)
(0.00197859 -0.0109159 0.00407599)
(0.00157614 -0.0106802 0.0039651)
(0.00197828 -0.0112103 0.00412248)
(0.00187486 -0.0107324 0.00401466)
(0.00179909 -0.0108071 0.00388622)
(0.00187688 -0.0109898 0.00404649)
(0.00199208 -0.0113852 0.00393686)
(0.00184409 -0.011211 0.00404545)
(0.00182168 -0.0113416 0.00393033)
(0.00189538 -0.0111595 0.00398994)
(0.00222855 -0.0117695 0.00489896)
(0.00158512 -0.010729 0.00375582)
(0.00146968 -0.0100365 0.0040497)
(0.00159038 -0.0107786 0.00434617)
(0.00183558 -0.0110293 0.00420783)
(0.00187433 -0.0116868 0.00437038)
(0.00207318 -0.0116866 0.00470043)
(0.00204208 -0.0126345 0.00466879)
(0.00172985 -0.0104631 0.00381239)
(0.00190386 -0.0105293 0.0038415)
(0.00203752 -0.011405 0.00413656)
(0.00199789 -0.0113461 0.00413779)
(0.00203443 -0.0106404 0.00370973)
(0.00199825 -0.0110576 0.00390745)
(0.00179287 -0.0112896 0.00410613)
(0.00185728 -0.0111719 0.00403807)
(0.00177711 -0.0110139 0.00393217)
(0.00186221 -0.0111701 0.00388675)
(0.0017296 -0.0114256 0.00400675)
(0.00175308 -0.0112661 0.00408083)
(0.00190293 -0.0111323 0.00407069)
(0.00200778 -0.0109884 0.00381058)
(0.00173986 -0.0110752 0.00409479)
(0.00182467 -0.0108247 0.00400528)
(0.00198874 -0.0113005 0.0042158)
(0.00206023 -0.0110225 0.00394647)
(0.00185993 -0.0107371 0.00364869)
(0.00186778 -0.0105526 0.00395676)
(0.00203036 -0.0109912 0.00365291)
(0.00168968 -0.0101533 0.0037207)
(0.00186374 -0.0106217 0.00367923)
(0.00200863 -0.0108846 0.00404944)
(0.00173013 -0.0107738 0.00413289)
(0.00158558 -0.0109059 0.00392304)
(0.00169782 -0.0107031 0.00407648)
(0.001836 -0.0113936 0.00434005)
(0.00155116 -0.0109498 0.003936)
(0.00160536 -0.0105617 0.00379382)
(0.00195544 -0.0110428 0.00380568)
(0.00193318 -0.0110411 0.00395952)
(0.00188453 -0.0108398 0.00394365)
(0.00189366 -0.0110827 0.00401937)
(0.00186964 -0.0110684 0.00392137)
(0.00183362 -0.0109772 0.00397141)
(0.00171965 -0.0105751 0.00407552)
(0.00195259 -0.0104375 0.00360568)
(0.00184848 -0.0107434 0.00399132)
(0.00195165 -0.0109937 0.00404063)
(0.00189559 -0.0108813 0.00408436)
(0.00195691 -0.011096 0.00415435)
(0.00183511 -0.0114596 0.00385934)
(0.00209656 -0.0113975 0.00409659)
(0.00188791 -0.0105965 0.00376807)
(0.00179354 -0.0110259 0.00378322)
(0.00205981 -0.0117502 0.00385713)
(0.00190905 -0.0114255 0.00425312)
(0.00192097 -0.0113819 0.00428917)
(0.00208158 -0.0120352 0.00448972)
(0.00203328 -0.0119272 0.00433799)
(0.00203168 -0.011675 0.00432139)
(0.00182595 -0.0118701 0.0042225)
(0.00193137 -0.0114954 0.00423608)
(0.00206976 -0.0113333 0.00421063)
(0.00185002 -0.0112591 0.00416097)
(0.00186862 -0.0112015 0.00407154)
(0.00187281 -0.0112746 0.00419768)
(0.00196862 -0.0112791 0.00421771)
(0.0018659 -0.0114293 0.00459743)
(0.00195819 -0.0117541 0.00474311)
(0.00200103 -0.011387 0.00448991)
(0.00192812 -0.0113251 0.00447125)
(0.00203309 -0.0115121 0.00443898)
(0.00189233 -0.0116772 0.0043102)
(0.0018579 -0.0111395 0.00407207)
(0.00185084 -0.0108716 0.00394687)
(0.00188414 -0.010894 0.00405355)
(0.00175793 -0.011118 0.00425056)
(0.00167764 -0.0109152 0.00409679)
(0.00167008 -0.01147 0.00444606)
(0.00182499 -0.0111678 0.00432806)
(0.00171528 -0.0115829 0.00449277)
(0.00175134 -0.0114176 0.00446572)
(0.0016933 -0.0111894 0.00432413)
(0.00165442 -0.0112926 0.00433787)
(0.00161416 -0.0104151 0.00390712)
(0.00155587 -0.01078 0.00406067)
(0.0016034 -0.010951 0.00403498)
(0.00191198 -0.0106729 0.00398954)
(0.00133798 -0.0103413 0.0037973)
(0.00193338 -0.0108423 0.00404354)
(0.00197882 -0.0107969 0.00396993)
(0.00193354 -0.0112654 0.00417383)
(0.00174008 -0.0105488 0.00402927)
(0.00178155 -0.0108168 0.00406746)
(0.0020114 -0.0111041 0.00411903)
(0.00197457 -0.0106529 0.00385857)
(0.00183294 -0.01073 0.00396335)
(0.00171749 -0.0104276 0.00390554)
(0.00188359 -0.0108636 0.00413409)
(0.00179794 -0.0107943 0.0039891)
(0.00180367 -0.0106582 0.00408752)
(0.00222533 -0.0120334 0.00478274)
(0.00200119 -0.0122021 0.00443303)
(0.00222602 -0.0127315 0.00485854)
(0.00204288 -0.0124205 0.00468746)
(0.00213461 -0.0130636 0.00452845)
(0.00196823 -0.012574 0.00461405)
(0.00157044 -0.0105019 0.00386709)
(0.0018702 -0.0106973 0.00401043)
(0.00173042 -0.010838 0.00404096)
(0.00163436 -0.0111081 0.00424442)
(0.00179808 -0.010663 0.0040036)
(0.00175323 -0.0111826 0.00410663)
(0.00170598 -0.0115991 0.00416134)
(0.00169198 -0.0113146 0.0040915)
(0.00180426 -0.0118753 0.00415538)
(0.00170773 -0.01186 0.0043184)
(0.00196471 -0.0115251 0.00414083)
(0.00140851 -0.011747 0.00412583)
(0.00195823 -0.0114063 0.0042901)
(0.00191205 -0.012003 0.00434851)
(0.00175194 -0.0112767 0.00393493)
(0.00214864 -0.0121123 0.00446323)
(0.00184944 -0.0116919 0.00418482)
(0.00178241 -0.0113552 0.00416775)
(0.00153865 -0.0106931 0.00391712)
(0.0013922 -0.0104096 0.00379309)
(0.00143157 -0.010498 0.00389051)
(0.00135405 -0.0108757 0.00386769)
(0.00139378 -0.0109337 0.00400884)
(0.00172587 -0.0101921 0.00365179)
(0.00159487 -0.0105525 0.00398168)
(0.00167133 -0.0105394 0.00393743)
(0.00173211 -0.0105095 0.0038105)
(0.00164337 -0.0103466 0.00383049)
(0.00175201 -0.0105003 0.00391517)
(0.00177282 -0.0104619 0.00392049)
(0.00202787 -0.01117 0.00437131)
(0.00194714 -0.010624 0.00400923)
(0.00191034 -0.0109043 0.00419429)
(0.0019716 -0.0108471 0.00395018)
(0.00167745 -0.0112313 0.00418144)
(0.00187427 -0.0111222 0.00412953)
(0.00183611 -0.0110935 0.00407846)
(0.00182156 -0.0111067 0.00415734)
(0.00192612 -0.0113599 0.00420828)
(0.00185184 -0.0110041 0.00413761)
(0.00193957 -0.011236 0.00424992)
(0.00189762 -0.0113121 0.00424849)
(0.00187733 -0.0110554 0.00419709)
(0.00211301 -0.0111067 0.00405436)
(0.00218488 -0.0109538 0.00406809)
(0.00195207 -0.0109284 0.00402145)
(0.0018835 -0.0108562 0.00404295)
(0.00177949 -0.0108121 0.00405865)
(0.00156105 -0.0113948 0.00415152)
(0.00151065 -0.0111436 0.00398259)
(0.00188796 -0.0114431 0.00420207)
(0.00167997 -0.0113968 0.0041893)
(0.00156833 -0.0112943 0.00402609)
(0.00163784 -0.0112325 0.00421109)
(0.00175177 -0.0112124 0.0042505)
(0.00159645 -0.0112077 0.00407172)
(0.00175355 -0.0107557 0.00398792)
(0.0017662 -0.0111944 0.00403581)
(0.00177814 -0.0111045 0.00411388)
(0.00165583 -0.0112522 0.00417401)
(0.00161223 -0.0112465 0.00409623)
(0.00185146 -0.0118435 0.00443373)
(0.00191479 -0.0117344 0.00431991)
(0.00181546 -0.0119834 0.00440633)
(0.00175703 -0.0112848 0.00411522)
(0.00174146 -0.0110529 0.00391239)
(0.00172959 -0.0112002 0.00409001)
(0.00173705 -0.0114128 0.00421368)
(0.0018452 -0.0110922 0.00416056)
(0.00189956 -0.010951 0.00419821)
(0.0017458 -0.0110815 0.00406009)
(0.00183911 -0.0110352 0.00426251)
(0.00179051 -0.0119335 0.00419909)
(0.00182492 -0.0119349 0.00421492)
(0.00188222 -0.011996 0.00432645)
(0.00197187 -0.0113765 0.00437815)
(0.00186242 -0.012135 0.00417451)
(0.00166568 -0.0102869 0.00392574)
(0.00175355 -0.0102416 0.00380482)
(0.00181954 -0.0104128 0.00381762)
(0.0017646 -0.0103414 0.00387281)
(0.00181793 -0.0101509 0.00379355)
(0.00189187 -0.0104651 0.00388651)
(0.00175613 -0.0105186 0.003972)
(0.00164421 -0.0103319 0.0039242)
(0.00170445 -0.0102991 0.00389209)
(0.00177722 -0.0107471 0.00404712)
(0.0016633 -0.0104376 0.00400277)
(0.00176405 -0.0105312 0.00396652)
(0.00177496 -0.0103825 0.00390355)
(0.00169602 -0.0101399 0.00377358)
(0.00162003 -0.0103721 0.00398176)
(0.00196224 -0.0108381 0.00400142)
(0.00174685 -0.0105787 0.00401041)
(0.00173082 -0.0104169 0.00386861)
(0.00169778 -0.0105615 0.00416269)
(0.00187421 -0.0103035 0.00373125)
(0.00171736 -0.0103567 0.00397521)
(0.00185686 -0.0105848 0.00390722)
(0.00177644 -0.0103279 0.00382333)
(0.00181969 -0.0101036 0.00366973)
(0.00231863 -0.0114115 0.00446144)
(0.00234533 -0.0111051 0.00430853)
(0.00217312 -0.0109595 0.00411533)
(0.00190099 -0.0112103 0.00417618)
(0.0019604 -0.0112451 0.0041882)
(0.00181123 -0.0108079 0.00397532)
(0.00190251 -0.0110249 0.00416786)
(0.0019362 -0.0109124 0.00414198)
(0.00187252 -0.0107622 0.00393423)
(0.0019576 -0.0111357 0.00430868)
(0.00184834 -0.011291 0.00415627)
(0.00181382 -0.0109965 0.00410469)
(0.00211907 -0.0116883 0.00423825)
(0.00178264 -0.0114529 0.00426566)
(0.00199276 -0.0119356 0.00445093)
(0.00189962 -0.0115193 0.00435825)
(0.00182217 -0.0116502 0.00430917)
(0.00198052 -0.0115722 0.00434076)
(0.00190238 -0.0109847 0.00411903)
(0.00183601 -0.0111018 0.0042974)
(0.00186228 -0.011096 0.00416165)
(0.00192151 -0.011207 0.00426006)
(0.00175442 -0.0110855 0.00434142)
(0.0016928 -0.0109801 0.00415608)
(0.00170733 -0.0112289 0.00419986)
(0.00193562 -0.0109598 0.00408036)
(0.00169929 -0.0107434 0.00416234)
(0.00172954 -0.0110283 0.00421679)
(0.0017575 -0.0111082 0.00422898)
(0.00156877 -0.010687 0.00413377)
(0.00181972 -0.01116 0.00434648)
(0.00200506 -0.0117244 0.00430053)
(0.00168754 -0.0110605 0.00446262)
(0.00186619 -0.0113997 0.00479834)
(0.00192996 -0.0115903 0.00481934)
(0.00202559 -0.0114923 0.00424715)
(0.0021589 -0.0117094 0.00418575)
(0.00171918 -0.0109231 0.00406913)
(0.00189243 -0.0115154 0.00422406)
(0.00158398 -0.010951 0.0045105)
(0.00174946 -0.0109534 0.00420295)
(0.00168523 -0.0113598 0.00459197)
(0.00181172 -0.011293 0.0043749)
(0.00197129 -0.0119754 0.00465721)
(0.00188763 -0.0114001 0.00447153)
(0.00148019 -0.0107741 0.00452434)
(0.00156497 -0.0112149 0.00447691)
(0.00135016 -0.0104238 0.00428598)
(0.00140944 -0.0108035 0.00441437)
(0.00159733 -0.011227 0.00438923)
(0.00161205 -0.0109452 0.00431296)
(0.00209569 -0.0123417 0.00514259)
(0.00201349 -0.0129878 0.00518631)
(0.00190103 -0.0124349 0.00455044)
(0.00204276 -0.0117458 0.00441442)
(0.00182242 -0.0115949 0.00441877)
(0.00205317 -0.0112896 0.00431319)
(0.00190436 -0.0114003 0.00454851)
(0.00205191 -0.0114326 0.0041347)
(0.00177298 -0.0115445 0.00417622)
(0.00178921 -0.0118285 0.00401947)
(0.00203887 -0.0115188 0.00419)
(0.0018711 -0.0106853 0.00381573)
(0.00183912 -0.0109294 0.00411344)
(0.0020121 -0.0116307 0.00393192)
(0.00188396 -0.011163 0.00388796)
(0.00197916 -0.0122677 0.00414751)
(0.00220154 -0.0116848 0.00378639)
(0.00207717 -0.0123858 0.00472879)
(0.00194492 -0.0117885 0.00462407)
(0.00211577 -0.0125377 0.00427556)
(0.00186239 -0.0120514 0.00472103)
(0.00199236 -0.0123615 0.00477108)
(0.00168036 -0.0107052 0.00409032)
(0.00172308 -0.0105799 0.00403144)
(0.00164695 -0.0104913 0.00407943)
(0.00177988 -0.0107581 0.00425396)
(0.00175966 -0.0109542 0.00439121)
(0.00164816 -0.0105169 0.00423967)
(0.00172301 -0.0100034 0.00357615)
(0.00174796 -0.0103441 0.00390157)
(0.00179262 -0.0103704 0.00383927)
(0.00175601 -0.0104473 0.00392506)
(0.00166513 -0.0104075 0.00388413)
(0.0018334 -0.0104175 0.00384989)
(0.0016447 -0.010504 0.00374285)
(0.00192692 -0.0100612 0.00383967)
(0.00202212 -0.010237 0.00379093)
(0.00186666 -0.0103713 0.00389286)
(0.0021418 -0.0103218 0.00387302)
(0.00185721 -0.0100304 0.00378629)
(0.00173251 -0.0102695 0.00390629)
(0.00190372 -0.0103712 0.00382214)
(0.00186792 -0.0100097 0.0037793)
(0.00192053 -0.0100487 0.00378654)
(0.00171818 -0.0108638 0.00382286)
(0.00171112 -0.0104429 0.0037741)
(0.0021189 -0.0113219 0.0043723)
(0.00206126 -0.0104019 0.00403036)
(0.00171132 -0.0110042 0.00406249)
(0.00184157 -0.0104958 0.00394437)
(0.00215516 -0.0109996 0.00420476)
(0.00217746 -0.0118579 0.00457062)
(0.00199567 -0.0113069 0.00418868)
(0.00219416 -0.0113728 0.00452781)
(0.00195183 -0.0112076 0.00420909)
(0.00210286 -0.0111997 0.00427622)
(0.00205455 -0.0112531 0.00431186)
(0.00197296 -0.0109443 0.00415587)
(0.00197223 -0.0112627 0.00439966)
(0.00193655 -0.011305 0.00400435)
(0.00199415 -0.0109719 0.00431822)
(0.0018329 -0.0106614 0.00384102)
(0.00192074 -0.0117177 0.00457029)
(0.0019568 -0.0113142 0.00437408)
(0.00164064 -0.010534 0.00406753)
(0.00177874 -0.0110181 0.00399252)
(0.00185481 -0.0116193 0.00401241)
(0.00182893 -0.0111513 0.00391602)
(0.0018126 -0.0113251 0.00402133)
(0.00191149 -0.0114945 0.0041233)
(0.00172988 -0.0114666 0.00400548)
(0.00188631 -0.0115854 0.00426448)
(0.00175843 -0.0108753 0.00350639)
(0.00210057 -0.0115973 0.00429116)
(0.00215678 -0.0118275 0.00437867)
(0.0018632 -0.011211 0.0037633)
(0.00218848 -0.0112436 0.00367641)
(0.00201125 -0.0109018 0.00386912)
(0.00181865 -0.0108769 0.00386595)
(0.00189096 -0.0107738 0.0040764)
(0.00211436 -0.0118156 0.00431744)
(0.00185202 -0.0110217 0.00397687)
(0.00181742 -0.0110295 0.00359442)
(0.00180744 -0.0108817 0.00376282)
(0.00173951 -0.0114084 0.00399478)
(0.00187608 -0.0113728 0.00396345)
(0.00161488 -0.0103315 0.00350626)
(0.00184024 -0.0117429 0.00395343)
(0.00195289 -0.0108857 0.00371413)
(0.00163422 -0.0104799 0.00383226)
(0.00169469 -0.011482 0.00435141)
(0.00198917 -0.011693 0.00434406)
(0.00168761 -0.0104172 0.00388734)
(0.00186776 -0.0109083 0.00370487)
(0.00180806 -0.0113643 0.00418708)
(0.00209128 -0.0116386 0.00435268)
(0.00188937 -0.0114767 0.00423944)
(0.00188777 -0.0113719 0.00431522)
(0.00180004 -0.0115672 0.00435363)
(0.00169639 -0.0118481 0.00431644)
(0.00178927 -0.0116933 0.00428247)
(0.00168981 -0.0117181 0.0041468)
(0.00164611 -0.0115155 0.00417745)
(0.00204061 -0.0118081 0.0044132)
(0.00184159 -0.0113716 0.00422708)
(0.00173396 -0.0117958 0.00433914)
(0.00178368 -0.011494 0.00400149)
(0.00193262 -0.0115039 0.00425069)
(0.00172977 -0.0116298 0.00400496)
(0.00198601 -0.0119517 0.00430756)
(0.00161394 -0.0112522 0.00409014)
(0.00188824 -0.0114193 0.0042343)
(0.00197005 -0.0115502 0.00428252)
(0.00176352 -0.0116552 0.00401556)
(0.00192479 -0.0115746 0.0042823)
(0.00186388 -0.0116703 0.00428229)
(0.00193084 -0.0113567 0.00434638)
(0.00182234 -0.0119422 0.00419752)
(0.00207115 -0.0117295 0.00410915)
(0.00195943 -0.0111606 0.00409814)
(0.00196862 -0.01139 0.00425394)
(0.00190666 -0.0112011 0.00387386)
(0.0020763 -0.0114193 0.00408398)
(0.00187931 -0.0114877 0.00439592)
(0.00193612 -0.0112599 0.00431699)
(0.00197822 -0.0109592 0.00389934)
(0.00184554 -0.0108095 0.00405833)
(0.00177429 -0.0108563 0.0041592)
(0.00218 -0.0119793 0.00414634)
(0.00231741 -0.0114843 0.00417028)
(0.00174069 -0.0112176 0.0040783)
(0.00200521 -0.0111104 0.00421899)
(0.0020667 -0.0110658 0.00409489)
(0.00189757 -0.0103759 0.00378325)
(0.00198859 -0.0107823 0.00393631)
(0.00198842 -0.011112 0.00405952)
(0.00196823 -0.0107548 0.00392405)
(0.00183503 -0.011075 0.00414301)
(0.0017876 -0.0105031 0.00388419)
(0.00178069 -0.0108923 0.00419902)
(0.0020385 -0.01123 0.00412097)
(0.00211517 -0.0111797 0.00403811)
(0.00197071 -0.0111294 0.00406646)
(0.00202337 -0.0112796 0.00414022)
(0.0019598 -0.0110147 0.00401701)
(0.00202948 -0.0110804 0.00405108)
(0.00194008 -0.0112326 0.00412035)
(0.00201725 -0.010846 0.00391453)
(0.00200441 -0.0112033 0.00412241)
(0.00187097 -0.0108629 0.00395811)
(0.00195104 -0.0108903 0.00396172)
(0.00202979 -0.0109933 0.00401913)
(0.00187239 -0.0113818 0.00363075)
(0.00182682 -0.0108083 0.00384932)
(0.00175977 -0.0113176 0.00390499)
(0.00184611 -0.0115438 0.00435872)
(0.00188727 -0.0112831 0.00404725)
(0.00177136 -0.0109667 0.00399588)
(0.00184789 -0.0106401 0.00399946)
(0.00171064 -0.010744 0.00394401)
(0.00184875 -0.0114043 0.00442052)
(0.00191606 -0.0109504 0.00407104)
(0.00187573 -0.0110463 0.00411734)
(0.00178651 -0.0109366 0.00393127)
(0.00192728 -0.0109841 0.0042014)
(0.00174234 -0.0108279 0.00389145)
(0.00190171 -0.011046 0.00416031)
(0.0018884 -0.0109415 0.00403895)
(0.00187167 -0.0112987 0.00422662)
(0.00173548 -0.0113216 0.00403839)
(0.0018698 -0.0113846 0.00423598)
(0.00173267 -0.0113196 0.00402623)
(0.00171585 -0.0108079 0.00413396)
(0.0016215 -0.0101662 0.00409304)
(0.00182638 -0.010711 0.00405289)
(0.00188135 -0.0104985 0.00410956)
(0.00175923 -0.0106759 0.00387566)
(0.0020429 -0.0114332 0.00428488)
(0.0019808 -0.0116082 0.00445404)
(0.00211718 -0.0115812 0.0043708)
(0.00184794 -0.0109711 0.00448506)
(0.00197996 -0.0114363 0.00442338)
(0.00194516 -0.0110808 0.00424847)
(0.00167492 -0.010163 0.00366957)
(0.00171344 -0.0101002 0.00367814)
(0.00167966 -0.0100139 0.00360484)
(0.0017027 -0.0101289 0.0037219)
(0.00166109 -0.00993386 0.00370569)
(0.0015419 -0.0101947 0.00383115)
(0.00175889 -0.0101253 0.00355213)
(0.00184023 -0.010436 0.0038671)
(0.00175162 -0.0103047 0.00367453)
(0.00180144 -0.0102701 0.00381745)
(0.00188235 -0.0103314 0.00366083)
(0.00164533 -0.0104167 0.00385126)
(0.00186231 -0.0106928 0.00414226)
(0.00187279 -0.0104421 0.00393329)
(0.00182136 -0.0107796 0.00401469)
(0.00186441 -0.0106436 0.00400382)
(0.00174611 -0.0106595 0.00403335)
(0.00177762 -0.0107205 0.00412252)
(0.00205451 -0.0112165 0.00418568)
(0.00207568 -0.0116479 0.00413275)
(0.00209378 -0.0113055 0.00397593)
(0.00213593 -0.0112616 0.00408837)
(0.00213514 -0.0113516 0.00400399)
(0.0021074 -0.0113449 0.00409706)
(0.00209398 -0.0112226 0.00385354)
(0.00191664 -0.0107697 0.00399741)
(0.00200688 -0.0114336 0.00393895)
(0.00205595 -0.0116226 0.00387497)
(0.00220898 -0.0114295 0.00385573)
(0.00216541 -0.0113695 0.00389295)
(0.00212028 -0.0115155 0.00418026)
(0.00204956 -0.0116938 0.00396093)
(0.00208055 -0.0116891 0.00406688)
(0.00209726 -0.0116832 0.00391075)
(0.00188952 -0.0112529 0.00397983)
(0.00199218 -0.0114377 0.00390455)
(0.00199245 -0.0110731 0.00403862)
(0.00179263 -0.0106819 0.00390624)
(0.00188486 -0.0107785 0.00387951)
(0.00190694 -0.0108389 0.00388015)
(0.00172338 -0.011033 0.00409691)
(0.00194748 -0.0107739 0.00390247)
(0.00220564 -0.0112473 0.00414468)
(0.00220046 -0.0111702 0.00391521)
(0.00217902 -0.0109947 0.00385113)
(0.00225959 -0.0108993 0.00388457)
(0.00211832 -0.010984 0.00396104)
(0.00186958 -0.0111865 0.00411524)
(0.00178855 -0.0112023 0.00391932)
(0.00183275 -0.0114659 0.00390165)
(0.00185662 -0.0114671 0.00401361)
(0.00189422 -0.0117175 0.00430819)
(0.00204866 -0.011958 0.00433816)
(0.00186081 -0.0116323 0.00428374)
(0.0019345 -0.0116681 0.00418482)
(0.00186594 -0.0119915 0.00416794)
(0.00187224 -0.0117253 0.0043507)
(0.00198353 -0.0116311 0.00417148)
(0.00180213 -0.0111371 0.00402761)
(0.0017843 -0.01141 0.00405783)
(0.00174439 -0.0113643 0.00386043)
(0.00186651 -0.0117493 0.00397966)
(0.00175991 -0.0114849 0.00402269)
(0.00198916 -0.0111849 0.00432943)
(0.0020651 -0.011779 0.00435324)
(0.002237 -0.0111643 0.00418949)
(0.00229781 -0.0111244 0.00422118)
(0.00234522 -0.0119709 0.00461259)
(0.00241717 -0.0116796 0.00430685)
(0.00225336 -0.0115608 0.00427109)
(0.00187537 -0.012038 0.00434607)
(0.00175843 -0.011864 0.00425093)
(0.00194909 -0.0120033 0.00428415)
(0.00203348 -0.0117515 0.00427804)
(0.00197636 -0.0116014 0.00428201)
(0.00181619 -0.0116442 0.00420551)
(0.00173544 -0.011448 0.00390395)
(0.00192702 -0.0116262 0.00429331)
(0.00188334 -0.0118309 0.00407594)
(0.00183068 -0.0114262 0.00425577)
(0.0016819 -0.0108325 0.00378055)
(0.00186093 -0.0116371 0.00431046)
(0.00173771 -0.0102935 0.00375419)
(0.00166136 -0.010185 0.00384736)
(0.00161279 -0.0102792 0.0038906)
(0.00159399 -0.0100878 0.00374474)
(0.00173853 -0.0104892 0.00402385)
(0.00184939 -0.0106462 0.0039363)
(0.00161502 -0.0112621 0.00417512)
(0.00160716 -0.0118885 0.00434101)
(0.00173681 -0.0115514 0.00417965)
(0.00202931 -0.0115277 0.00426133)
(0.00159811 -0.0115993 0.0041765)
(0.00187554 -0.0110632 0.00420242)
(0.00195249 -0.0112811 0.00416401)
(0.00197018 -0.0112653 0.00428734)
(0.00182422 -0.0110102 0.00425021)
(0.00183097 -0.0111504 0.00421292)
(0.00199894 -0.0113568 0.00420953)
(0.0019726 -0.0111369 0.00428243)
(0.00170845 -0.0109683 0.00412329)
(0.00182758 -0.011462 0.00421954)
(0.00190897 -0.0111794 0.00413783)
(0.00202922 -0.0114337 0.00426773)
(0.00186897 -0.0111882 0.0042466)
(0.00186977 -0.0115733 0.00430704)
(0.00201524 -0.0119022 0.00431798)
(0.00208434 -0.0116318 0.00425303)
(0.00207453 -0.0115594 0.00429243)
(0.00188019 -0.0111302 0.00416626)
(0.00194643 -0.0117366 0.00434787)
(0.00188843 -0.0118152 0.0044039)
(0.00202247 -0.0115324 0.0044386)
(0.00187882 -0.0117316 0.00440763)
(0.00188427 -0.01123 0.00423258)
(0.00195228 -0.0119518 0.0045468)
(0.00179965 -0.0113858 0.00406387)
(0.00182712 -0.0114641 0.00427397)
(0.00205133 -0.0112811 0.00427718)
(0.00181125 -0.0113534 0.00423024)
(0.00189523 -0.0115111 0.00420169)
(0.00178885 -0.0109327 0.00402079)
(0.00168389 -0.0106138 0.00373803)
(0.00168731 -0.0112688 0.00402701)
(0.00199435 -0.01112 0.00412568)
(0.00181638 -0.0111542 0.00403041)
(0.00176216 -0.0109878 0.00382244)
(0.00170604 -0.0109548 0.00380143)
(0.00158879 -0.011373 0.00391119)
(0.00178995 -0.0109983 0.00420324)
(0.00191604 -0.0118191 0.00468486)
(0.00197257 -0.0107701 0.00385021)
(0.00187796 -0.0112017 0.00417504)
(0.00186686 -0.0112971 0.00428914)
(0.00211088 -0.0115078 0.00383679)
(0.00184096 -0.0106231 0.00378205)
(0.00172382 -0.0107853 0.00410308)
(0.00190161 -0.0100898 0.00342884)
(0.00183161 -0.0108117 0.00407452)
(0.00192176 -0.0111482 0.00420458)
(0.00184877 -0.010969 0.00403526)
(0.00183161 -0.0108521 0.00400032)
(0.00188849 -0.0110599 0.00409093)
(0.00191646 -0.0109936 0.00403866)
(0.00209207 -0.01121 0.00386843)
(0.00186194 -0.0109925 0.00396103)
(0.00199727 -0.0113788 0.00389338)
(0.0020212 -0.0109706 0.00379185)
(0.00196036 -0.0113113 0.00387654)
(0.00171897 -0.0105929 0.00404317)
(0.00191107 -0.010829 0.00390306)
(0.00180037 -0.0106732 0.00410441)
(0.00188779 -0.0110892 0.00434998)
(0.00173131 -0.0105523 0.00392558)
(0.00184704 -0.0108401 0.00417468)
(0.00183863 -0.0109289 0.00402702)
(0.00180539 -0.0110416 0.00432372)
(0.00143817 -0.0103951 0.0039349)
(0.00136389 -0.0102091 0.00394984)
(0.00145013 -0.0103478 0.00394695)
(0.00130941 -0.0104827 0.00424289)
(0.00129629 -0.010355 0.00413807)
(0.00156847 -0.0101996 0.00374202)
(0.00217591 -0.0114917 0.00415422)
(0.00192884 -0.0115542 0.0041969)
(0.00209137 -0.0115714 0.00421768)
(0.0018943 -0.011268 0.00411306)
(0.00205061 -0.0113976 0.00419551)
(0.00210488 -0.0117201 0.00421703)
(0.001922 -0.0113089 0.00412997)
(0.00184843 -0.0112728 0.00412389)
(0.00198197 -0.0109812 0.00389622)
(0.00192774 -0.0108513 0.0039253)
(0.00206799 -0.0112048 0.00411071)
(0.00190392 -0.0105215 0.00394748)
(0.00187112 -0.0106136 0.00407453)
(0.00174418 -0.0111093 0.00415096)
(0.00196684 -0.0113886 0.00419431)
(0.00190341 -0.0118514 0.00429997)
(0.00186163 -0.0116979 0.00413894)
(0.00175749 -0.0110687 0.00400414)
(0.00182039 -0.0112939 0.00404245)
(0.00194056 -0.0118369 0.00405657)
(0.00158159 -0.0108763 0.00387137)
(0.00204509 -0.0112249 0.00416049)
(0.0018751 -0.0109554 0.00404633)
(0.0020104 -0.0110583 0.0040309)
(0.00206562 -0.0110854 0.00360229)
(0.0020077 -0.0109628 0.00402684)
(0.0019579 -0.0110627 0.00409617)
(0.00190462 -0.0105479 0.00374769)
(0.00199906 -0.0105818 0.00369378)
(0.00192776 -0.0109257 0.00402188)
(0.00181295 -0.0108699 0.00404066)
(0.00180925 -0.0109976 0.00407971)
(0.00172634 -0.0108299 0.00405288)
(0.00177301 -0.0107847 0.00397768)
(0.0019659 -0.0111528 0.00406799)
(0.00186808 -0.010892 0.004089)
(0.00196779 -0.010873 0.00406076)
(0.00175856 -0.0115501 0.0039912)
(0.00199977 -0.0116659 0.00436723)
(0.00183031 -0.0112648 0.00401211)
(0.00179355 -0.0119018 0.00424978)
(0.00171668 -0.0111516 0.00378922)
(0.00182706 -0.0123664 0.00417241)
(0.00199803 -0.0111765 0.00420839)
(0.0019003 -0.0113602 0.0039521)
(0.00197324 -0.0115636 0.00428029)
(0.0017477 -0.0113119 0.00354903)
(0.00191034 -0.0120906 0.00403143)
(0.00162391 -0.0116687 0.00358694)
(0.00208088 -0.0113363 0.00428322)
(0.00178566 -0.011326 0.00413836)
(0.00176179 -0.0113587 0.00371746)
(0.00163616 -0.0111599 0.0039608)
(0.00179057 -0.0111204 0.00407937)
(0.00169488 -0.0111225 0.00382636)
(0.00187084 -0.0113365 0.00406656)
(0.00213739 -0.0112085 0.00437283)
(0.00198279 -0.0114971 0.00413981)
(0.00199307 -0.0111715 0.004067)
(0.00188786 -0.0110313 0.00407645)
(0.00182212 -0.0112632 0.00413394)
(0.00184099 -0.0110766 0.00419411)
(0.00198153 -0.0116297 0.00439398)
(0.00203018 -0.0113537 0.00410147)
(0.002085 -0.0117688 0.00433402)
(0.00183318 -0.0111722 0.00412687)
(0.00189012 -0.0111434 0.00420918)
(0.00180444 -0.0114536 0.00406771)
(0.00190771 -0.011523 0.00421797)
(0.0017514 -0.0114894 0.00431322)
(0.00207823 -0.0115556 0.00425722)
(0.00193163 -0.0114093 0.00424286)
(0.00177763 -0.0113069 0.00417954)
(0.00182014 -0.0108994 0.00425308)
(0.00180696 -0.0113881 0.00419071)
(0.00190951 -0.0116532 0.0042627)
(0.00202244 -0.0114448 0.00424283)
(0.00183591 -0.0113471 0.00423139)
(0.00163831 -0.0114626 0.00443635)
(0.00168841 -0.011086 0.00418089)
(0.00205096 -0.0121179 0.00457992)
(0.00181566 -0.011363 0.00437498)
(0.00201885 -0.0120369 0.00451148)
(0.00183366 -0.011492 0.00436252)
(0.00181531 -0.0116814 0.00432117)
(0.00175863 -0.0111154 0.00408529)
(0.00184037 -0.0122709 0.00447636)
(0.0020675 -0.0123326 0.004517)
(0.00182822 -0.0115176 0.00424666)
(0.00187233 -0.0116742 0.00444237)
(0.00220823 -0.0118568 0.00446807)
(0.00173775 -0.0115133 0.00418597)
(0.00185255 -0.0113929 0.00432622)
(0.00180606 -0.0113441 0.00424601)
(0.00193709 -0.0114606 0.00430208)
(0.00179308 -0.0119813 0.00421205)
(0.00205304 -0.0111659 0.00422492)
(0.00201663 -0.0114628 0.00434649)
(0.00205801 -0.0113304 0.00424075)
(0.00169944 -0.0117399 0.004117)
(0.00177605 -0.0116698 0.00428516)
(0.00201885 -0.0119071 0.00447003)
(0.00230051 -0.0116658 0.00421033)
(0.00186065 -0.0111624 0.00422697)
(0.00204466 -0.0105947 0.00377393)
(0.00206733 -0.0107898 0.00389063)
(0.00195077 -0.0106602 0.00394944)
(0.00174925 -0.0107224 0.00391826)
(0.00191388 -0.0115669 0.00411643)
(0.00201596 -0.0116355 0.00419453)
(0.00191739 -0.0114196 0.00413655)
(0.00208054 -0.0108541 0.00392266)
(0.00190539 -0.0110438 0.00389498)
(0.00181389 -0.0107956 0.00382975)
(0.00169541 -0.0109167 0.00416793)
(0.00162995 -0.0107246 0.00412993)
(0.00206633 -0.011023 0.00389889)
(0.00210559 -0.0111742 0.00375215)
(0.00186957 -0.0115103 0.00392683)
(0.00221417 -0.0115973 0.00379018)
(0.00205564 -0.0114666 0.00405176)
(0.00183816 -0.0111399 0.00408946)
(0.00188578 -0.0109586 0.003888)
(0.0020414 -0.0110764 0.0037286)
(0.00197745 -0.0109713 0.00374174)
(0.00198279 -0.0114586 0.00414056)
(0.00189772 -0.0111444 0.00416487)
(0.00194445 -0.0109411 0.00382273)
(0.00190039 -0.0110555 0.00395577)
(0.00187275 -0.0107492 0.00357263)
(0.00200617 -0.0110566 0.00383544)
(0.00197417 -0.0110785 0.00374855)
(0.00179283 -0.0115314 0.00419026)
(0.00202669 -0.0113938 0.00430511)
(0.00211271 -0.0111365 0.003888)
(0.00199553 -0.011344 0.00410276)
(0.00192894 -0.0116951 0.00421963)
(0.00205956 -0.0114601 0.00398523)
(0.00201186 -0.0113711 0.00408714)
(0.00197752 -0.0116498 0.00422897)
(0.00213715 -0.0115023 0.00401161)
(0.0020195 -0.0114446 0.00413291)
(0.00201561 -0.011176 0.00402969)
(0.00200536 -0.0109259 0.00386423)
(0.00170958 -0.0107389 0.00381141)
(0.00202778 -0.0112863 0.00391116)
(0.00203951 -0.0112185 0.00402199)
(0.00187638 -0.0108408 0.00382457)
(0.00195574 -0.0108318 0.00404462)
(0.00177231 -0.0105172 0.00372318)
(0.00186097 -0.0105221 0.00381468)
(0.0017481 -0.0104003 0.00378855)
(0.00188645 -0.0102577 0.00377442)
(0.00202877 -0.0107766 0.00345921)
(0.00203014 -0.01081 0.00361106)
(0.00183201 -0.0103434 0.00369831)
(0.0019357 -0.0104272 0.00374328)
(0.00193257 -0.0103415 0.00367632)
(0.00151984 -0.010209 0.00378554)
(0.00161287 -0.0107234 0.00393828)
(0.0018878 -0.011236 0.00417127)
(0.00195122 -0.011137 0.00409766)
(0.00177273 -0.0114013 0.0042804)
(0.00200607 -0.0117545 0.00427213)
(0.00199688 -0.0118412 0.00425852)
(0.00200882 -0.0112861 0.00364012)
(0.00201231 -0.0121238 0.00436645)
(0.00197567 -0.0119007 0.00426734)
(0.00193449 -0.0114786 0.00416642)
(0.0019916 -0.0121229 0.00393719)
(0.00203874 -0.0114523 0.00384655)
(0.00201409 -0.0114158 0.00390426)
(0.0018583 -0.011212 0.00395926)
(0.00193112 -0.0102454 0.00383496)
(0.00195718 -0.0103625 0.00391974)
(0.00185751 -0.0104201 0.00387459)
(0.00217282 -0.0107309 0.00397927)
(0.00205395 -0.0112578 0.0041345)
(0.0019534 -0.0110091 0.00400258)
(0.00195217 -0.0110001 0.00414973)
(0.00184135 -0.0108976 0.00406225)
(0.001895 -0.0108869 0.00397647)
(0.00177967 -0.010957 0.0040637)
(0.00192776 -0.0111029 0.00406886)
(0.00179044 -0.0104331 0.00376055)
(0.00174596 -0.0105697 0.00384666)
(0.00187472 -0.0106031 0.00358197)
(0.00181553 -0.0105645 0.00383768)
(0.00186054 -0.0108916 0.00400218)
(0.00178617 -0.0108138 0.00416263)
(0.00170799 -0.0109294 0.00402971)
(0.00215674 -0.0113782 0.00398653)
(0.0019817 -0.0106901 0.00379787)
(0.0019984 -0.0108784 0.00405226)
(0.00195243 -0.0107466 0.00378333)
(0.00180082 -0.0109749 0.00401249)
(0.00202513 -0.0114771 0.0043806)
(0.001997 -0.0113894 0.00406818)
(0.00194104 -0.0111338 0.00380208)
(0.00187869 -0.0111533 0.00380655)
(0.00185566 -0.0108032 0.00401455)
(0.00171058 -0.0111941 0.00402828)
(0.00189049 -0.0112006 0.00414479)
(0.00209601 -0.0115343 0.00430954)
(0.0021414 -0.011869 0.0043949)
(0.00178552 -0.0116186 0.00405721)
(0.00178311 -0.0114402 0.00409378)
(0.00186637 -0.0118161 0.00417805)
(0.00183641 -0.0117953 0.00398275)
(0.00169478 -0.0113452 0.00411714)
(0.00171841 -0.0116911 0.00419533)
(0.00201716 -0.0118491 0.00432895)
(0.0017928 -0.0115918 0.00413118)
(0.00180679 -0.011969 0.00424226)
(0.00178549 -0.0121513 0.00437796)
(0.0018543 -0.011694 0.00436957)