/*--------------------------------*- C++ -*----------------------------------*\
| =========                 |                                                 |
| \\      /  F ield         | OpenFOAM: The Open Source CFD Toolbox           |
|  \\    /   O peration     | Version:  v1612+                                |
|   \\  /    A nd           | Web:      www.OpenFOAM.com                      |
|    \\/     M anipulation  |                                                 |
\*---------------------------------------------------------------------------*/
FoamFile
{
    version     2.0;
    format      ascii;
    class       volScalarField;
    location    "206";
    object      p;
}
// * * * * * * * * * * * * * * * * * * * * * * * * * * * * * * * * * * * * * //

dimensions      [0 2 -2 0 0 0 0];

internalField   nonuniform List<scalar> 
18934
(
4.42494
4.52475
4.42945
4.41157
4.41334
4.41727
4.4173
4.41388
4.41645
4.41552
4.41523
4.40977
4.41334
4.41311
4.41737
4.41828
4.41713
4.40977
4.41751
4.41126
4.41031
4.40895
4.40981
4.41442
4.43807
4.43496
4.43821
4.43317
4.44022
4.43685
4.44177
4.43822
4.44052
4.43313
4.43741
4.44036
4.43448
4.43809
4.44037
4.47152
4.46839
4.47122
4.46937
4.47018
4.4718
4.47237
4.473
4.47524
4.47497
4.47275
4.4747
4.47233
4.47271
4.47126
4.46571
4.47086
4.41154
4.41092
4.41308
4.41442
4.41483
4.4103
4.41166
4.44808
4.44431
4.44398
4.44765
4.44457
4.44115
4.4412
4.44523
4.43889
4.65026
4.65117
4.66674
4.66207
4.65452
4.6476
4.63256
4.65948
4.66399
4.66511
4.63895
4.63679
4.64412
4.62944
4.63755
4.64628
4.51572
4.51586
4.51755
4.51788
4.51939
4.52405
4.52294
4.5245
4.52968
4.5303
4.52482
4.52508
4.53096
4.52809
4.52412
4.52534
4.52958
4.53329
4.53044
4.53357
4.53241
4.56983
4.56912
4.58307
4.56927
4.56568
4.56467
4.577
4.5808
4.58368
4.58736
4.56683
4.57031
4.5771
4.58606
4.57701
4.47782
4.47784
4.47578
4.4762
4.47629
4.47279
4.47194
4.47083
4.47559
4.46779
4.46712
4.47301
4.46654
4.46641
4.46459
4.46303
4.46749
4.46771
4.46934
4.46753
4.46962
4.46582
4.50187
4.50145
4.50016
4.49246
4.49367
4.50364
4.49856
4.50535
4.50497
4.50092
4.49166
4.49488
4.49951
4.49841
4.50431
4.50219
4.507
4.50105
4.50539
4.59299
4.59322
4.59269
4.59421
4.59326
4.58678
4.58409
4.58828
4.58479
4.57981
4.57704
4.57687
4.58433
4.57851
4.57505
4.4711
4.46898
4.47675
4.47016
4.4733
4.46795
4.46921
4.46947
4.47754
4.47643
4.47179
4.47222
4.4657
4.46797
4.46709
4.46801
4.56978
4.57234
4.56782
4.57329
4.55824
4.55985
4.55721
4.5608
4.5656
4.5688
4.56058
4.5625
4.56083
4.55692
4.56835
4.55499
4.5701
4.50627
4.50917
4.50609
4.50893
4.50654
4.52016
4.51247
4.51677
4.52255
4.51762
4.51384
4.51135
4.51267
4.52167
4.52157
4.51517
4.50999
4.50715
4.50682
4.52104
4.51322
4.51483
4.43453
4.43468
4.43085
4.42991
4.42827
4.42657
4.42353
4.42353
4.43251
4.4336
4.43131
4.43117
4.42987
4.42436
4.42368
4.42589
4.42533
4.42464
4.42499
4.42555
4.42499
4.56912
4.57458
4.56588
4.57318
4.57538
4.56726
4.57869
4.57449
4.56947
4.56432
4.57739
4.57312
4.57719
4.57758
4.58198
4.57945
4.48514
4.48679
4.49724
4.49729
4.49461
4.48947
4.49047
4.48624
4.49192
4.49568
4.48518
4.48705
4.48604
4.49339
4.49075
4.49373
4.49618
4.49353
4.4849
4.49132
4.48952
4.62229
4.62041
4.62912
4.63155
4.6339
4.63067
4.63464
4.61185
4.62384
4.62003
4.62713
4.61081
4.60874
4.611
4.41853
4.41758
4.41762
4.41811
4.42275
4.42198
4.42042
4.42605
4.42525
4.42272
4.53644
4.53695
4.5471
4.55308
4.55046
4.53734
4.53675
4.53801
4.55282
4.54438
4.54238
4.54081
4.53882
4.55038
4.55361
4.55475
4.55083
4.54758
4.55141
4.54793
4.54797
4.54676
4.53709
4.48063
4.48106
4.47952
4.4796
4.47917
4.484
4.47851
4.48011
4.48454
4.48442
4.47884
4.47259
4.47897
4.48447
4.48042
4.48235
4.47673
4.47117
4.47765
4.51277
4.51162
4.50609
4.50701
4.51636
4.50693
4.50468
4.51257
4.51207
4.51547
4.51256
4.51645
4.51489
4.51392
4.51358
4.51422
4.63976
4.65486
4.64477
4.65969
4.66646
4.69006
4.63735
4.65277
4.65719
4.64265
4.66701
4.66748
4.68318
4.68092
4.63882
4.6399
4.64951
4.64987
4.6585
4.48745
4.48777
4.49083
4.49386
4.48323
4.49194
4.48363
4.48007
4.48594
4.4832
4.49132
4.48414
4.48319
4.48492
4.48628
4.48704
4.50714
4.50759
4.5018
4.50221
4.51028
4.50737
4.5012
4.50179
4.50304
4.4966
4.50185
4.50286
4.49894
4.4973
4.50766
4.50738
4.50482
4.50297
4.43538
4.43879
4.44327
4.43589
4.43857
4.44054
4.44199
4.43741
4.44649
4.44381
4.44612
4.43813
4.4381
4.44378
4.44468
4.43748
4.43603
4.43703
4.50261
4.5037
4.49827
4.49914
4.50787
4.50865
4.51589
4.51246
4.5055
4.50331
4.49962
4.50092
4.50157
4.5016
4.51296
4.51621
4.51306
4.50299
4.51054
4.51067
4.51105
4.51366
4.52786
4.53511
4.53333
4.52723
4.5253
4.53084
4.53658
4.53792
4.52732
4.52621
4.52637
4.53058
4.54081
4.53955
4.41812
4.41965
4.42193
4.4191
4.42489
4.42434
4.4283
4.42694
4.41914
4.4192
4.42186
4.42106
4.41912
4.41727
4.41825
4.4281
4.42026
4.41636
4.43518
4.43727
4.43693
4.43483
4.44536
4.44688
4.43979
4.43868
4.43639
4.43661
4.43816
4.43939
4.44623
4.4467
4.43823
4.43953
4.44273
4.44424
4.43794
4.43914
4.44446
4.44459
4.4455
4.44326
4.44468
4.44192
4.41711
4.417
4.4144
4.41438
4.41665
4.41418
4.41819
4.41773
4.54864
4.55295
4.53557
4.537
4.53524
4.54057
4.53938
4.5366
4.53859
4.55344
4.54824
4.54839
4.5459
4.54672
4.55454
4.50602
4.5043
4.49952
4.50129
4.50531
4.50306
4.51061
4.50076
4.5
4.50204
4.51289
4.51072
4.50369
4.50957
4.51225
4.50089
4.50073
4.5112
4.51281
4.51069
4.50099
4.50756
4.51139
4.44985
4.44907
4.44299
4.44512
4.44351
4.45122
4.45336
4.44945
4.44776
4.44912
4.44911
4.45144
4.44667
4.44715
4.44658
4.44956
4.44575
4.452
4.44505
4.58775
4.60014
4.59488
4.60585
4.6041
4.59732
4.59783
4.60303
4.58663
4.58622
4.59362
4.57779
4.58016
4.58325
4.5799
4.57847
4.58448
4.58404
4.44977
4.4504
4.44543
4.44738
4.44993
4.45056
4.44904
4.44952
4.44406
4.44201
4.44212
4.43566
4.43742
4.4459
4.44231
4.56228
4.55512
4.55037
4.55808
4.55494
4.55267
4.56248
4.56283
4.55388
4.55814
4.54975
4.55806
4.56397
4.54973
4.54699
4.54738
4.55188
4.54807
4.55051
4.48841
4.48917
4.49256
4.49175
4.49177
4.49522
4.48839
4.48485
4.4849
4.48564
4.48895
4.48974
4.49115
4.49788
4.48774
4.49502
4.49162
4.49094
4.49266
4.49316
4.49405
4.49764
4.4948
4.49895
4.49073
4.48858
4.49178
4.48806
4.49447
4.49272
4.4895
4.49406
4.49289
4.49085
4.4936
4.49233
4.49455
4.49843
4.43352
4.43393
4.43432
4.43502
4.435
4.43417
4.43163
4.43243
4.42729
4.42259
4.42555
4.42392
4.42422
4.43543
4.43506
4.42858
4.43057
4.42808
4.42333
4.424
4.42637
4.42609
4.57641
4.57607
4.59339
4.59144
4.57971
4.57546
4.57094
4.56816
4.57378
4.58778
4.58387
4.58205
4.5828
4.5748
4.57354
4.59092
4.59152
4.56798
4.58455
4.57321
4.58487
4.56994
4.51179
4.50808
4.50338
4.5031
4.51331
4.51311
4.50669
4.51063
4.5023
4.5083
4.50995
4.65777
4.64742
4.65188
4.65561
4.6402
4.62772
4.62993
4.64702
4.65208
4.65259
4.63202
4.62271
4.62922
4.63102
4.63379
4.6443
4.62894
4.62452
4.62747
4.62453
4.51841
4.51434
4.5228
4.52165
4.5217
4.52159
4.51588
4.509
4.51407
4.51744
4.50479
4.51484
4.64638
4.63839
4.63981
4.63652
4.66655
4.68006
4.63502
4.64571
4.66398
4.67287
4.64905
4.63326
4.63988
4.63392
4.64784
4.6394
4.64365
4.67799
4.64821
4.65891
4.6787
4.68736
4.54399
4.54221
4.54693
4.5474
4.54494
4.54701
4.54409
4.54802
4.54895
4.5476
4.54772
4.55379
4.55473
4.55405
4.55224
4.51625
4.51429
4.51209
4.5128
4.5108
4.513
4.51375
4.52065
4.51964
4.52287
4.52322
4.51063
4.51141
4.51118
4.51128
4.52151
4.51937
4.51946
4.51946
4.52038
4.47883
4.4813
4.47759
4.47978
4.48386
4.47766
4.47973
4.48064
4.47759
4.47497
4.48506
4.48289
4.48077
4.48389
4.48413
4.48044
4.48552
4.48692
4.48425
4.48335
4.48325
4.4811
4.47811
4.486
4.48656
4.47538
4.47367
4.47719
4.48046
4.48428
4.48451
4.47662
4.47958
4.47692
4.47876
4.47482
4.47671
4.47808
4.47597
4.48694
4.48576
4.47734
4.47509
4.48488
4.48153
4.48644
4.48755
4.47537
4.47737
4.47732
4.48433
4.48293
4.47954
4.48316
4.483
4.47744
4.48187
4.48166
4.48535
4.47614
4.47758
4.53663
4.53715
4.52236
4.52179
4.53054
4.53249
4.52703
4.53419
4.53731
4.53382
4.5264
4.52549
4.52415
4.52413
4.53148
4.53203
4.53341
4.52791
4.52767
4.44784
4.44486
4.44259
4.45003
4.44569
4.44474
4.44913
4.44499
4.44721
4.44345
4.45129
4.45078
4.44983
4.45008
4.44469
4.44578
4.4464
4.44692
4.42092
4.41899
4.42198
4.42326
4.42293
4.42153
4.4225
4.41622
4.41819
4.42166
4.42588
4.42247
4.41957
4.41762
4.42278
4.4162
4.41623
4.42058
4.41989
4.4245
4.41872
4.41694
4.41825
4.41703
4.41488
4.42975
4.43166
4.43349
4.42855
4.42559
4.43132
4.43422
4.42587
4.42247
4.42323
4.42912
4.42561
4.42535
4.42217
4.41806
4.42554
4.42611
4.43135
4.42669
4.42762
4.42656
4.58946
4.58579
4.58549
4.5795
4.57492
4.58822
4.5877
4.58515
4.58523
4.5794
4.58159
4.57899
4.57514
4.57815
4.58516
4.57797
4.575
4.58134
4.46897
4.46669
4.46444
4.46704
4.46975
4.46887
4.46395
4.46851
4.47271
4.47324
4.46379
4.46577
4.4664
4.46773
4.46816
4.46883
4.46907
4.46405
4.46423
4.47083
4.46657
4.4688
4.46141
4.46797
4.46889
4.46837
4.47146
4.46002
4.46415
4.47082
4.46406
4.46428
4.43289
4.43098
4.42935
4.42993
4.42891
4.43002
4.4291
4.42945
4.43487
4.43205
4.43802
4.43705
4.4352
4.43129
4.43113
4.43217
4.43808
4.437
4.43547
4.43718
4.4718
4.47042
4.47057
4.47253
4.46766
4.46255
4.46349
4.46987
4.46698
4.46887
4.46328
4.46139
4.46458
4.45995
4.47106
4.63613
4.63152
4.67168
4.62446
4.63503
4.62606
4.66007
4.69134
4.68755
4.68492
4.68755
4.69345
4.62819
4.69797
4.70399
4.69837
4.62625
4.61566
4.67563
4.67642
4.69273
4.69181
4.62249
4.62076
4.68989
4.62604
4.63101
4.65419
4.68743
4.61529
4.70047
4.62544
4.62826
4.63625
4.63453
4.67584
4.6649
4.63815
4.62388
4.40831
4.40736
4.41728
4.41453
4.42322
4.41952
4.41535
4.41617
4.42088
4.41771
4.41466
4.42754
4.42171
4.42322
4.41439
4.41664
4.42952
4.42418
4.42744
4.42769
4.42727
4.43028
4.43042
4.43203
4.43342
4.43648
4.43037
4.43161
4.43867
4.4348
4.43006
4.43093
4.43499
4.43574
4.44024
4.44189
4.43877
4.43834
4.44679
4.44532
4.44165
4.44037
4.44115
4.43334
4.45129
4.44467
4.44843
4.44786
4.44425
4.45127
4.44729
4.44478
4.4484
4.44885
4.44204
4.45702
4.45671
4.46268
4.45664
4.45723
4.44984
4.45842
4.46094
4.46812
4.46929
4.47686
4.47207
4.47711
4.47167
4.47643
4.47327
4.48149
4.46626
4.4714
4.47194
4.46872
4.47191
4.4823
4.48243
4.48773
4.49295
4.48835
4.4935
4.49032
4.48684
4.49303
4.49636
4.4919
4.4853
4.49137
4.49559
4.4912
4.49011
4.49475
4.48641
4.50123
4.50536
4.50838
4.49602
4.48714
4.488
4.51142
4.50613
4.50976
4.51068
4.50316
4.51843
4.5151
4.5128
4.51083
4.51425
4.51183
4.50953
4.5056
4.50861
4.50277
4.5113
4.51358
4.51008
4.51349
4.50883
4.52428
4.52466
4.51177
4.50801
4.5029
4.53998
4.54302
4.53324
4.5318
4.52811
4.54652
4.54704
4.55261
4.52535
4.51904
4.51836
4.52853
4.52375
4.52369
4.51752
4.51686
4.55202
4.5464
4.54615
4.55297
4.55272
4.55176
4.54536
4.57048
4.56975
4.54374
4.54276
4.53613
4.53107
4.5298
4.5719
4.57265
4.57009
4.56986
4.53555
4.53574
4.53831
4.61499
4.62063
4.57376
4.57626
4.57656
4.57446
4.59506
4.58619
4.58858
4.626
4.62866
4.55571
4.55552
4.55785
4.55933
4.58174
4.58094
4.57729
4.58687
4.60909
4.61502
4.59356
4.59454
4.59425
4.6059
4.60383
4.58879
4.61854
4.61653
4.55258
4.55347
4.62609
4.63589
4.63752
4.65724
4.65236
4.64244
4.66807
4.66123
4.65955
4.67134
4.66797
4.66333
4.64726
4.63838
4.67439
4.67083
4.66956
4.66582
4.66744
4.62675
4.63109
4.59385
4.5989
4.59882
4.65321
4.64888
4.65032
4.63722
4.63381
4.60088
4.60618
4.60309
4.5712
4.57116
4.62142
4.62858
4.63298
4.63919
4.63727
4.643
4.65214
4.63893
4.65333
4.57517
4.58418
4.58914
4.67022
4.65339
4.65549
4.66071
4.6799
4.67874
4.58007
4.58157
4.61607
4.61763
4.62422
4.66267
4.68728
4.69777
4.69355
4.69398
4.70014
4.69246
4.64656
4.66717
4.66001
4.6746
4.66637
4.64458
4.61814
4.63651
4.65776
4.62344
4.60762
4.5993
4.62398
4.62376
4.61708
4.62429
4.62136
4.6288
4.58602
4.59602
4.58398
4.59966
4.6192
4.61069
4.65745
4.68031
4.68302
4.67441
4.64169
4.69646
4.6764
4.69943
4.70701
4.67889
4.68265
4.60392
4.60024
4.60113
4.61279
4.59368
4.61522
4.59737
4.61343
4.61734
4.61715
4.61913
4.62313
4.62013
4.62388
4.62049
4.60796
4.60956
4.61538
4.6148
4.625
4.63094
4.62728
4.62969
4.63361
4.62329
4.62834
4.6713
4.63384
4.64607
4.66741
4.66559
4.6722
4.67745
4.64787
4.64759
4.63173
4.63231
4.65346
4.65388
4.62233
4.63227
4.64542
4.64328
4.63511
4.63868
4.61604
4.61901
4.64391
4.64681
4.64503
4.62552
4.63139
4.65097
4.64838
4.62922
4.66356
4.66283
4.63595
4.63456
4.63241
4.63468
4.66915
4.66935
4.66361
4.61002
4.60992
4.62291
4.62125
4.60173
4.61954
4.62118
4.62284
4.66222
4.64306
4.63707
4.63777
4.66871
4.67279
4.66905
4.66743
4.63524
4.64397
4.65313
4.64343
4.66497
4.66218
4.46493
4.46312
4.46148
4.46256
4.45751
4.46094
4.46372
4.46067
4.45716
4.45671
4.4609
4.46273
4.4575
4.45701
4.45472
4.46123
4.44762
4.45636
4.48127
4.47549
4.47659
4.48026
4.47759
4.47964
4.47711
4.47491
4.47984
4.48155
4.49296
4.4905
4.49669
4.47338
4.47679
4.4787
4.47748
4.47362
4.47765
4.45943
4.46155
4.4717
4.47691
4.47034
4.47218
4.47385
4.473
4.48906
4.49012
4.48367
4.47955
4.48761
4.45217
4.45124
4.44679
4.46419
4.46104
4.4601
4.4582
4.46177
4.45384
4.45793
4.45861
4.45588
4.44604
4.44879
4.44605
4.46736
4.46377
4.46028
4.46209
4.45897
4.4619
4.46809
4.4653
4.46161
4.44962
4.44991
4.45595
4.44952
4.45005
4.454
4.45365
4.44613
4.45014
4.45335
4.45273
4.44828
4.45549
4.45301
4.453
4.45135
4.45525
4.46065
4.45508
4.45879
4.46061
4.45255
4.45614
4.45798
4.4628
4.46158
4.46082
4.44802
4.44701
4.45375
4.45548
4.45447
4.45174
4.44684
4.45146
4.45798
4.45859
4.45783
4.45307
4.45405
4.45276
4.45301
4.47199
4.47685
4.47659
4.46969
4.5997
4.60532
4.60662
4.60755
4.60009
4.61079
4.61338
4.61298
4.6123
4.61595
4.61534
4.59832
4.59908
4.60008
4.62662
4.63032
4.60785
4.60915
4.62231
4.623
4.62457
4.63478
4.63088
4.62685
4.62808
4.63152
4.59561
4.60027
4.59621
4.6014
4.60733
4.60556
4.5979
4.59953
4.58849
4.59365
4.59604
4.60309
4.59413
4.59958
4.60336
4.60884
4.60283
4.60967
4.60546
4.65194
4.65894
4.65073
4.67257
4.66889
4.63415
4.61854
4.6171
4.6011
4.6015
4.60543
4.60601
4.60625
4.60168
4.59758
4.59644
4.5991
4.61546
4.62103
4.62458
4.62227
4.6197
4.6264
4.60017
4.59139
4.59313
4.60887
4.60688
4.61308
4.63623
4.63716
4.65564
4.64477
4.65144
4.64847
4.64992
4.59129
4.59572
4.59537
4.60341
4.5949
4.59567
4.59081
4.58499
4.58568
4.60466
4.59085
4.60469
4.61352
4.60895
4.59128
4.59415
4.5779
4.58992
4.57435
4.56908
4.57756
4.57879
4.57771
4.55958
4.57466
4.56972
4.56029
4.56992
4.55582
4.56035
4.56144
4.56424
4.56875
4.57013
4.5605
4.56228
4.55901
4.5631
4.5629
4.63139
4.63623
4.64221
4.55385
4.55448
4.56286
4.57242
4.62072
4.61634
4.62777
4.61616
4.61657
4.62381
4.62174
4.62504
4.54953
4.55407
4.55346
4.55959
4.56531
4.59704
4.6005
4.59517
4.59376
4.59499
4.5957
4.59536
4.5967
4.59705
4.57072
4.58669
4.57297
4.58102
4.57024
4.5736
4.58232
4.64432
4.6505
4.6546
4.60266
4.59984
4.6065
4.63395
4.60764
4.61915
4.62294
4.62343
4.60803
4.61057
4.62098
4.63205
4.63023
4.6322
4.63671
4.64083
4.63771
4.62372
4.6249
4.6279
4.63049
4.54697
4.55182
4.55617
4.55207
4.55587
4.61099
4.60432
4.60145
4.61322
4.60985
4.6125
4.61412
4.61623
4.61589
4.61939
4.5971
4.60269
4.60114
4.60489
4.60363
4.6023
4.60373
4.60979
4.60823
4.60569
4.60778
4.59231
4.58588
4.60049
4.58529
4.59761
4.60538
4.57709
4.57738
4.56588
4.56793
4.56717
4.57299
4.56981
4.58117
4.58001
4.54319
4.54015
4.54553
4.55278
4.54274
4.62336
4.62896
4.61746
4.6191
4.61842
4.63666
4.62889
4.63477
4.63877
4.59739
4.59077
4.58429
4.59599
4.60139
4.60963
4.61396
4.60781
4.625
4.61081
4.61724
4.61269
4.63035
4.63245
4.6236
4.61856
4.63769
4.6205
4.62724
4.57758
4.58419
4.58518
4.56112
4.55804
4.56857
4.57559
4.58004
4.5674
4.58349
4.57667
4.57922
4.57253
4.56885
4.57695
4.58072
4.59125
4.60188
4.59432
4.60112
4.59186
4.61705
4.60288
4.59839
4.59832
4.60596
4.59307
4.57206
4.56975
4.56966
4.571
4.57333
4.57291
4.57456
4.55204
4.55091
4.55042
4.55822
4.55901
4.56527
4.56256
4.56643
4.56048
4.55325
4.56955
4.5553
4.56338
4.55498
4.59197
4.59714
4.60761
4.59641
4.6003
4.5404
4.5466
4.54906
4.54129
4.53977
4.53196
4.53946
4.52471
4.52487
4.53426
4.53764
4.53063
4.52959
4.53396
4.55704
4.55623
4.54928
4.54649
4.54783
4.54444
4.55054
4.54598
4.55158
4.55746
4.5498
4.55617
4.53575
4.53403
4.53782
4.53761
4.5451
4.54482
4.54341
4.55259
4.55498
4.56309
4.55583
4.55416
4.56452
4.55652
4.56438
4.5548
4.55579
4.52098
4.52292
4.53386
4.53656
4.5293
4.52746
4.53144
4.52639
4.52822
4.53866
4.5283
4.52937
4.53257
4.53756
4.53329
4.52799
4.53037
4.55688
4.55572
4.55693
4.56261
4.57277
4.57723
4.55714
4.56085
4.56467
4.5498
4.55213
4.56417
4.55748
4.55385
4.5643
4.55219
4.54784
4.57023
4.58453
4.56674
4.57272
4.56907
4.5311
4.52372
4.52959
4.5359
4.55195
4.55793
4.55085
4.53947
4.53076
4.54453
4.54762
4.54482
4.53713
4.53158
4.5498
4.55069
4.55589
4.55739
4.54085
4.55644
4.54307
4.54746
4.54296
4.54644
4.559
4.56059
4.54291
4.53768
4.54215
4.53345
4.535
4.52653
4.57686
4.57455
4.564
4.56057
4.55673
4.56208
4.55721
4.57472
4.56751
4.55812
4.55336
4.55316
4.55911
4.5584
4.54544
4.54777
4.51166
4.50647
4.51323
4.50849
4.51571
4.51312
4.51655
4.51974
4.52665
4.53486
4.53305
4.52433
4.52642
4.52714
4.53545
4.53408
4.51417
4.52352
4.52216
4.5166
4.51672
4.51994
4.52322
4.52773
4.52023
4.52136
4.52813
4.5269
4.52968
4.53105
4.52727
4.52487
4.53066
4.53489
4.5312
4.53959
4.54267
4.54842
4.54184
4.54201
4.49423
4.49977
4.49747
4.506
4.50508
4.51306
4.51135
4.51238
4.50784
4.50803
4.50739
4.50042
4.50147
4.50041
4.50355
4.50215
4.50041
4.50707
4.51661
4.50701
4.50775
4.51586
4.51022
4.51193
4.52047
4.52017
4.51584
4.5114
4.50883
4.51935
4.52166
4.53087
4.52472
4.52826
4.52811
4.52525
4.52359
4.54451
4.53856
4.54421
4.54861
4.55112
4.5476
4.53512
4.5317
4.53205
4.53665
4.53357
4.50716
4.51202
4.50904
4.51218
4.51229
4.50667
4.49782
4.50065
4.50702
4.5036
4.50806
4.50441
4.50538
4.50892
4.52117
4.52533
4.51879
4.51573
4.52573
4.52433
4.52189
4.5209
4.50186
4.50548
4.50951
4.50723
4.50551
4.51322
4.5198
4.51159
4.51348
4.5172
4.5114
4.50904
4.51974
4.52104
4.51394
4.52247
4.52123
4.51606
4.5144
4.49491
4.49173
4.49735
4.49585
4.49585
4.49386
4.50103
4.4988
4.50223
4.51609
4.5117
4.51756
4.51298
4.5146
4.51677
4.51256
4.51284
4.50691
4.50397
4.50521
4.5071
4.51571
4.50802
4.50909
4.51712
4.51411
4.51374
4.51648
4.51694
4.50516
4.50735
4.50964
4.50024
4.49746
4.52768
4.53251
4.53109
4.52404
4.53101
4.52742
4.51702
4.51912
4.51892
4.52291
4.52163
4.52807
4.52344
4.52304
4.52584
4.52563
4.49697
4.49746
4.50375
4.50378
4.49203
4.49943
4.50024
4.49748
4.49928
4.49077
4.52016
4.51499
4.51661
4.51529
4.51325
4.51153
4.50567
4.50772
4.50872
4.50404
4.50535
4.49865
4.49473
4.50256
4.49698
4.50091
4.50256
4.49961
4.5022
4.50361
4.49637
4.49951
4.51707
4.51199
4.52185
4.5197
4.52263
4.51849
4.47708
4.47928
4.47836
4.48633
4.48547
4.48666
4.47933
4.48889
4.48659
4.48782
4.49404
4.48607
4.48699
4.48554
4.49885
4.49834
4.49439
4.49006
4.48195
4.4955
4.49554
4.48737
4.50033
4.4905
4.4978
4.49821
4.49188
4.49481
4.50379
4.50379
4.49926
4.49948
4.50153
4.4981
4.49616
4.50832
4.49462
4.49775
4.48031
4.48111
4.48981
4.48837
4.48251
4.48562
4.48393
4.48265
4.49845
4.49599
4.50196
4.48618
4.49818
4.49916
4.49921
4.4977
4.49456
4.4851
4.49215
4.48821
4.48554
4.48935
4.48622
4.48601
4.4892
4.50516
4.49919
4.49604
4.49706
4.50591
4.49966
4.50216
4.49897
4.50175
4.49468
4.48981
4.49013
4.48377
4.48045
4.48733
4.48874
4.48791
4.4807
4.48497
4.48567
4.49761
4.49305
4.4901
4.49268
4.49561
4.49841
4.49984
4.49367
4.49748
4.49668
4.50134
4.49792
4.49882
4.50569
4.50733
4.49096
4.49555
4.48804
4.4915
4.48088
4.47717
4.48419
4.47961
4.50378
4.50222
4.4968
4.49246
4.49504
4.49522
4.50019
4.50072
4.47983
4.48408
4.48301
4.48451
4.4842
4.4827
4.48669
4.4806
4.48265
4.48642
4.48346
4.489
4.49302
4.49224
4.49075
4.49342
4.49276
4.49733
4.49494
4.49486
4.47011
4.47739
4.48066
4.48189
4.48985
4.48903
4.48546
4.47249
4.47393
4.47246
4.47396
4.48526
4.48125
4.47402
4.47343
4.47461
4.47965
4.47938
4.48078
4.47049
4.46544
4.46736
4.47052
4.47063
4.46035
4.45964
4.46172
4.4695
4.46813
4.47085
4.46802
4.47762
4.48044
4.4731
4.47401
4.47075
4.46839
4.47039
4.4731
4.48129
4.47977
4.48046
4.47304
4.47277
4.47749
4.47834
4.4764
4.46677
4.47405
4.48017
4.48084
4.47045
4.4788
4.47544
4.47064
4.47026
4.47603
4.47104
4.47707
4.47653
4.47723
4.47458
4.46025
4.46832
4.4648
4.46871
4.47351
4.47578
4.4827
4.47653
4.47454
4.451
4.45373
4.46288
4.4616
4.46725
4.46671
4.45612
4.4597
4.46768
4.45638
4.46442
4.46357
4.46067
4.46067
4.44867
4.45529
4.45168
4.45471
4.45369
4.45431
4.44883
4.44958
4.46477
4.46749
4.46483
4.4574
4.45468
4.45689
4.45939
4.46333
4.46123
4.45539
4.45558
4.46697
4.4642
4.46489
4.46457
4.44359
4.44312
4.45111
4.44332
4.44399
4.44401
4.44735
4.44624
4.43505
4.43563
4.44803
4.4465
4.44236
4.44558
4.44716
4.46084
4.45956
4.45492
4.46116
4.45909
4.45083
4.44723
4.44754
4.43816
4.43715
4.44075
4.43615
4.43629
4.44603
4.44726
4.43611
4.4411
4.43628
4.43767
4.44263
4.44424
4.44195
4.43976
4.43719
4.43537
4.44643
4.45051
4.44823
4.44831
4.4532
4.45273
4.45593
4.44964
4.46023
4.45972
4.46032
4.44852
4.44686
4.44558
4.44055
4.44354
4.44365
4.44278
4.4457
4.44007
4.44689
4.44481
4.44346
4.44158
4.44112
4.42953
4.4306
4.43045
4.43889
4.4335
4.43662
4.43686
4.43971
4.44124
4.43971
4.43247
4.43707
4.43894
4.45074
4.45209
4.44942
4.44826
4.43966
4.44431
4.45192
4.45635
4.4507
4.45122
4.43836
4.44442
4.44865
4.44973
4.44723
4.44481
4.44507
4.44671
4.4464
4.44691
4.44719
4.43564
4.44243
4.4408
4.43778
4.43899
4.44205
4.43989
4.43982
4.43983
4.43003
4.43294
4.43851
4.4356
4.4365
4.42833
4.43921
4.44205
4.44213
4.44207
4.44257
4.43711
4.43709
4.44234
4.44141
4.43932
4.43223
4.44094
4.43269
4.4403
4.44411
4.43915
4.44164
4.44633
4.45425
4.4541
4.44015
4.44119
4.44285
4.43813
4.43491
4.43035
4.43463
4.43088
4.42682
4.43753
4.43704
4.43848
4.43261
4.44583
4.42787
4.42486
4.43299
4.42681
4.43988
4.43494
4.44592
4.44406
4.4431
4.43123
4.43283
4.42089
4.42942
4.42756
4.42886
4.42805
4.42718
4.42999
4.42935
4.43032
4.42423
4.42507
4.43283
4.42628
4.43468
4.43081
4.43109
4.42562
4.42401
4.43347
4.43292
4.43485
4.43101
4.44429
4.44328
4.4353
4.42919
4.43524
4.433
4.43109
4.44036
4.4373
4.4364
4.42674
4.43183
4.42999
4.42957
4.4357
4.43815
4.42158
4.43032
4.42578
4.426
4.42244
4.42702
4.42699
4.42495
4.41556
4.42458
4.42047
4.42349
4.42884
4.42602
4.43063
4.42406
4.42536
4.42983
4.42322
4.42358
4.41401
4.42169
4.41682
4.41987
4.42611
4.42131
4.42966
4.42781
4.40697
4.41768
4.42045
4.41619
4.41472
4.41246
4.41503
4.41289
4.41135
4.4065
4.4057
4.41355
4.4135
4.41236
4.41285
4.41279
4.41734
4.41323
4.42478
4.42283
4.41656
4.41835
4.42483
4.42218
4.42234
4.42397
4.42355
4.41904
4.42591
4.42499
4.41674
4.41147
4.41441
4.41427
4.41644
4.42255
4.4179
4.41472
4.41937
4.41855
4.42887
4.43072
4.41884
4.42422
4.41423
4.4165
4.42273
4.42088
4.4146
4.41728
4.41994
4.4222
4.41877
4.41949
4.43168
4.42502
4.41802
4.41449
4.41301
4.41785
4.41804
4.42022
4.42259
4.43107
4.42783
4.4254
4.43519
4.42774
4.4302
4.41814
4.41401
4.41019
4.41485
4.41293
4.41902
4.42166
4.42621
4.4207
4.41437
4.42194
4.42182
4.41705
4.42148
4.41365
4.41221
4.41253
4.41336
4.40868
4.40615
4.40799
4.40799
4.40585
4.40688
4.4083
4.41412
4.41498
4.41554
4.4135
4.40974
4.40908
4.4193
4.41616
4.41308
4.41711
4.41829
4.42048
4.42115
4.41604
4.4142
4.41192
4.40622
4.40738
4.40621
4.41039
4.40745
4.41902
4.42053
4.42163
4.41831
4.41574
4.41251
4.41723
4.414
4.41375
4.41339
4.41135
4.41128
4.41042
4.4136
4.40503
4.40847
4.41038
4.42347
4.42567
4.42132
4.42952
4.42883
4.43089
4.42194
4.42355
4.42809
4.42901
4.42346
4.42309
4.42147
4.4162
4.41883
4.42129
4.41236
4.41393
4.41729
4.41288
4.43417
4.43484
4.42829
4.43448
4.43672
4.42092
4.42264
4.42104
4.42611
4.42072
4.42168
4.42073
4.4296
4.43042
4.4295
4.42853
4.42965
4.42839
4.42682
4.42929
4.42984
4.42788
4.42013
4.42037
4.42128
4.41895
4.42131
4.4161
4.42507
4.42939
4.42637
4.43284
4.43299
4.43547
4.43239
4.42834
4.43262
4.4326
4.43313
4.42677
4.4265
4.42472
4.42229
4.42989
4.42572
4.42044
4.43438
4.4331
4.43345
4.43338
4.43296
4.42659
4.42881
4.42986
4.4242
4.42197
4.42792
4.4263
4.42382
4.43194
4.43209
4.43016
4.43354
4.43964
4.43758
4.43814
4.44564
4.44617
4.44602
4.44057
4.44223
4.44262
4.43668
4.44832
4.44777
4.43853
4.43994
4.43668
4.43867
4.43493
4.43557
4.4313
4.43474
4.43206
4.43487
4.42529
4.42922
4.42851
4.43652
4.43115
4.4322
4.43395
4.43623
4.43729
4.43659
4.43406
4.4321
4.4339
4.43041
4.42087
4.43088
4.43073
4.43164
4.42682
4.42432
4.42599
4.42964
4.42829
4.42857
4.42963
4.43898
4.43842
4.43429
4.43149
4.43959
4.43084
4.43865
4.4331
4.43177
4.43465
4.43598
4.42453
4.42959
4.42671
4.42468
4.42341
4.42647
4.42518
4.424
4.42884
4.42828
4.42808
4.44342
4.44428
4.43602
4.44057
4.44163
4.43556
4.43629
4.42827
4.4395
4.42652
4.42657
4.43107
4.43755
4.43565
4.43885
4.43309
4.43375
4.42796
4.42785
4.43995
4.43882
4.4342
4.43347
4.45232
4.45711
4.45716
4.45511
4.458
4.45857
4.43111
4.43217
4.42924
4.43129
4.4329
4.4396
4.44179
4.44463
4.44239
4.45537
4.46031
4.45912
4.46204
4.45228
4.45475
4.45069
4.45721
4.45857
4.45999
4.45991
4.45564
4.45768
4.4516
4.45449
4.45269
4.45583
4.45746
4.45173
4.4486
4.45213
4.45461
4.45254
4.45811
4.45755
4.46193
4.45981
4.45141
4.453
4.45552
4.4506
4.45367
4.45991
4.46754
4.46673
4.46166
4.4545
4.45694
4.46165
4.43819
4.44328
4.44269
4.44762
4.44676
4.43916
4.43721
4.46371
4.46586
4.46304
4.45868
4.46116
4.47305
4.47422
4.47007
4.47048
4.46118
4.4593
4.4589
4.47231
4.47527
4.47366
4.46867
4.46931
4.46217
4.47128
4.46554
4.46258
4.46719
4.4643
4.4657
4.46933
4.48128
4.47643
4.47826
4.4825
4.48217
4.49332
4.49129
4.49117
4.4905
4.49263
4.49911
4.49471
4.49762
4.49703
4.49932
4.47494
4.48683
4.47679
4.47702
4.47764
4.48057
4.47648
4.47731
4.47664
4.49523
4.49004
4.49136
4.49459
4.48938
4.4891
4.49115
4.4899
4.49796
4.49727
4.48982
4.48785
4.49607
4.49895
4.48318
4.48666
4.47995
4.47748
4.48446
4.48655
4.48979
4.48865
4.51089
4.50984
4.50636
4.50523
4.51193
4.50294
4.50173
4.5086
4.50408
4.51568
4.5173
4.52248
4.5267
4.52793
4.51839
4.51605
4.53041
4.51976
4.52372
4.50822
4.51433
4.51042
4.51227
4.51277
4.50818
4.50328
4.50097
4.5069
4.50659
4.51051
4.51111
4.49882
4.50141
4.50134
4.51527
4.51719
4.52121
4.52622
4.51649
4.51448
4.51451
4.51856
4.52077
4.52921
4.51626
4.51649
4.51525
4.51286
4.52048
4.52367
4.52021
4.51965
4.50776
4.50518
4.50874
4.50528
4.50338
4.5051
4.50367
4.49981
4.49318
4.49673
4.49726
4.49742
4.49009
4.4926
4.49435
4.49705
4.55248
4.55085
4.54836
4.54155
4.55045
4.53918
4.53519
4.54307
4.53913
4.54168
4.56257
4.56205
4.56303
4.57487
4.57349
4.56685
4.56848
4.56359
4.53009
4.52555
4.5205
4.52798
4.52561
4.52541
4.52293
4.52901
4.53202
4.52207
4.52686
4.54991
4.55263
4.56504
4.55863
4.55481
4.5631
4.55285
4.54616
4.55725
4.56333
4.5454
4.54063
4.54299
4.54242
4.54545
4.54529
4.54085
4.53709
4.53657
4.56322
4.57532
4.5798
4.57521
4.56674
4.56379
4.5755
4.57353
4.56388
4.58422
4.57972
4.56647
4.56259
4.54272
4.53543
4.53602
4.54123
4.5438
4.54749
4.54297
4.53629
4.53966
4.54362
4.51799
4.51926
4.52534
4.5307
4.53403
4.53686
4.5406
4.54766
4.54138
4.53953
4.54145
4.59042
4.59943
4.58302
4.58646
4.57992
4.59143
4.58091
4.5894
4.58694
4.58123
4.589
4.59178
4.59104
4.60003
4.59046
4.5803
4.58748
4.59177
4.60201
4.61138
4.60687
4.59777
4.59579
4.59581
4.60568
4.60507
4.60157
4.60196
4.59987
4.59889
4.59636
4.60375
4.60289
4.60431
4.60265
4.5997
4.60578
4.6056
4.55876
4.56096
4.55897
4.56893
4.57774
4.5605
4.55634
4.61987
4.62189
4.62247
4.61843
4.61918
4.61188
4.6093
4.62252
4.60978
4.61164
4.61985
4.62344
4.61511
4.61781
4.61489
4.62193
4.61712
4.60697
4.61019
4.60662
4.60038
4.5997
4.60481
4.55062
4.55635
4.55059
4.5593
4.5662
4.55962
4.56562
4.55561
4.55132
4.55642
4.55861
4.56452
4.5615
4.56629
4.56188
4.55803
4.56552
4.55851
4.61541
4.61012
4.61036
4.60662
4.60285
4.60179
4.60583
4.60525
4.59489
4.59389
4.59614
4.59879
4.59546
4.59843
4.59894
4.62689
4.62576
4.61739
4.60404
4.60249
4.60451
4.60228
4.60115
4.5996
4.59882
4.5992
4.59668
4.59649
4.46984
4.46872
4.46976
4.46508
4.45761
4.4623
4.46088
4.46914
4.4682
4.46131
4.4497
4.43862
4.44221
4.44833
4.44718
4.44061
4.4412
4.44513
4.44523
4.44376
4.442
4.4455
4.47705
4.4707
4.47041
4.4754
4.47789
4.47411
4.47429
4.46899
4.46963
4.4626
4.46074
4.4608
4.46078
4.46754
4.46753
4.47237
4.46885
4.46191
4.46437
4.46925
4.46864
4.4661
4.46726
4.46853
4.46866
4.464
4.4631
4.46608
4.4668
4.44944
4.45061
4.45407
4.45346
4.46054
4.45976
4.4529
4.45739
4.45355
4.45269
4.4563
4.45825
4.46226
4.45892
4.45459
4.45374
4.45039
4.45655
4.45247
4.45119
4.4515
4.45109
4.44811
4.45908
4.46176
4.46292
4.46055
4.46195
4.45912
4.47064
4.46801
4.47146
4.4679
4.46476
4.46531
4.46202
4.45872
4.45935
4.44715
4.44808
4.46004
4.45662
4.458
4.45579
4.45461
4.44903
4.44589
4.44969
4.44764
4.44727
4.45976
4.45816
4.46055
4.45963
4.46029
4.45279
4.4548
4.45425
4.46072
4.45638
4.45232
4.45561
4.45825
4.4696
4.46274
4.46327
4.47284
4.46741
4.46899
4.47275
4.47218
4.47146
4.46886
4.46924
4.48529
4.48288
4.47811
4.48774
4.48611
4.61692
4.61933
4.60657
4.60371
4.61816
4.6077
4.60585
4.61369
4.61524
4.59951
4.5987
4.59829
4.599
4.59687
4.59523
4.59832
4.59672
4.60759
4.60719
4.62091
4.61816
4.62323
4.61554
4.61969
4.61609
4.61189
4.62099
4.62358
4.6194
4.6176
4.52955
4.52534
4.524
4.5372
4.53519
4.53542
4.52957
4.53034
4.52533
4.52634
4.48729
4.49098
4.48474
4.48263
4.47921
4.47104
4.47362
4.47604
4.47087
4.47316
4.47828
4.47899
4.4757
4.47162
4.47427
4.47093
4.45269
4.4514
4.45042
4.4499
4.45778
4.45863
4.45889
4.45668
4.45042
4.44792
4.45534
4.45689
4.45644
4.45406
4.44956
4.43834
4.44163
4.43989
4.44221
4.44135
4.44331
4.44393
4.43672
4.43819
4.43742
4.43947
4.44175
4.4334
4.4376
4.44951
4.44259
4.44274
4.44289
4.43838
4.4434
4.44306
4.44602
4.44503
4.47329
4.47676
4.47357
4.47354
4.4748
4.47339
4.47551
4.46818
4.47154
4.47234
4.48265
4.48729
4.48179
4.48239
4.47757
4.47663
4.4776
4.48791
4.47986
4.47475
4.48386
4.48262
4.48502
4.48605
4.60889
4.58312
4.57974
4.5907
4.60085
4.59373
4.58848
4.58011
4.59633
4.60242
4.62121
4.62212
4.61474
4.62563
4.61831
4.61175
4.61214
4.6227
4.64786
4.62289
4.61871
4.63905
4.64977
4.65299
4.63381
4.63925
4.6351
4.62784
4.63923
4.63963
4.58877
4.59124