/*--------------------------------*- C++ -*----------------------------------*\
| =========                 |                                                 |
| \\      /  F ield         | OpenFOAM: The Open Source CFD Toolbox           |
|  \\    /   O peration     | Version:  v1612+                                |
|   \\  /    A nd           | Web:      www.OpenFOAM.com                      |
|    \\/     M anipulation  |                                                 |
\*---------------------------------------------------------------------------*/
FoamFile
{
    version     2.0;
    format      ascii;
    class       volVectorField;
    location    "206";
    object      wallShearStress;
}
// * * * * * * * * * * * * * * * * * * * * * * * * * * * * * * * * * * * * * //

dimensions      [0 2 -2 0 0 0 0];

internalField   uniform (0 0 0);

boundaryField
{
    WALL
    {
        type            calculated;
        value           nonuniform List<vector> 
1648
(
(0.00730275 -0.0146457 0.00617971)
(0.00712762 -0.0139077 0.00588491)
(0.00830621 -0.0151956 0.00612887)
(0.0079215 -0.0156277 0.00653685)
(0.0320874 -0.0687011 0.0221244)
(0.0530161 -0.14026 0.0314587)
(0.0148569 -0.0321286 0.0127915)
(0.0180358 -0.0404382 0.0167521)
(0.0122912 -0.0256207 0.0105705)
(0.0119966 -0.0261459 0.0108125)
(0.0121665 -0.0246698 0.0103607)
(0.0117276 -0.0240136 0.00985009)
(0.0078763 -0.0161265 0.00667233)
(0.00787241 -0.0159358 0.00670449)
(0.00821828 -0.0158266 0.0061681)
(0.00764317 -0.0160036 0.00695231)
(0.00825148 -0.0163811 0.0069523)
(0.00824062 -0.016839 0.00697962)
(0.00898649 -0.0184201 0.00723063)
(0.00938572 -0.0188262 0.00787863)
(0.00731967 -0.0146001 0.00608363)
(0.0073672 -0.0143068 0.00555178)
(0.00706468 -0.0145701 0.00637)
(0.00639737 -0.0133922 0.00586318)
(0.00657851 -0.0132288 0.00551033)
(0.00623924 -0.0130554 0.00537237)
(0.00687852 -0.0141686 0.00608263)
(0.00759518 -0.015386 0.00641904)
(0.00672041 -0.0133797 0.00536527)
(0.00644721 -0.012961 0.00546678)
(0.0107989 -0.0208603 0.00886223)
(0.0103096 -0.0199891 0.00885254)
(0.00822627 -0.0170165 0.00676636)
(0.00746353 -0.0159969 0.00610442)
(0.0191996 -0.0451987 0.0173426)
(0.014666 -0.0313019 0.0121253)
(0.00965387 -0.0202052 0.00808416)
(0.00906338 -0.0187937 0.0072375)
(0.00978508 -0.0196779 0.00868547)
(0.010246 -0.0197239 0.00808682)
(0.00821214 -0.0173019 0.00706764)
(0.00841476 -0.0163538 0.00686976)
(0.0931832 -0.100546 0.0654003)
(0.0065851 -0.0141228 0.00593884)
(0.0064597 -0.0141141 0.00589564)
(0.00660519 -0.0146691 0.00610551)
(0.00682983 -0.0130846 0.0053973)
(0.00667367 -0.0134522 0.00546627)
(0.00685913 -0.0140178 0.00567151)
(0.0105535 -0.0232108 0.00969418)
(0.0125904 -0.0253044 0.0116761)
(0.0094767 -0.0208104 0.00829574)
(0.0120749 -0.0231594 0.0104436)
(0.00951925 -0.0215281 0.00861983)
(0.0131681 -0.0261567 0.0124013)
(0.00697381 -0.014657 0.00552868)
(0.00743776 -0.0160466 0.00579077)
(0.00859223 -0.0160515 0.0074957)
(0.00787892 -0.0152424 0.00634258)
(0.00733644 -0.0163192 0.00583045)
(0.013569 -0.0283731 0.0112784)
(0.0130119 -0.0269959 0.0107975)
(0.0142952 -0.0298184 0.0119761)
(0.0120311 -0.0253627 0.0105291)
(0.0123381 -0.0242604 0.00989843)
(0.0126721 -0.0271358 0.0116838)
(0.00730577 -0.0150872 0.00645898)
(0.00715715 -0.0146234 0.00606041)
(0.00686545 -0.0143833 0.00547485)
(0.00697232 -0.0142859 0.00558577)
(0.00682517 -0.0139814 0.0059089)
(0.00724736 -0.0150677 0.00592385)
(0.0333385 -0.0863667 0.0542183)
(0.0304839 -0.0850486 0.047446)
(0.027878 -0.0661623 0.0353717)
(0.021892 -0.0393568 0.0213704)
(0.0338241 -0.112141 0.0745709)
(0.0273984 -0.0612513 0.0350455)
(0.00921294 -0.0182392 0.00831378)
(0.00864939 -0.0173791 0.00739286)
(0.00825349 -0.0181625 0.00685306)
(0.00931829 -0.01777 0.00810972)
(0.00825166 -0.0192148 0.00722632)
(0.00781927 -0.0167589 0.00716645)
(0.010652 -0.0219851 0.00886975)
(0.0110757 -0.0219092 0.00895142)
(0.0110298 -0.023314 0.00917332)
(0.0113163 -0.0229806 0.00925127)
(0.0113791 -0.0228012 0.00938563)
(0.0108466 -0.021946 0.00898815)
(0.00696597 -0.0135867 0.00584402)
(0.00738591 -0.0148488 0.00620335)
(0.00722739 -0.0144957 0.00634495)
(0.00701633 -0.0140725 0.00618123)
(0.00705641 -0.0142068 0.00572401)
(0.00749105 -0.0145797 0.00579966)
(0.00727338 -0.0149379 0.00639463)
(0.00711477 -0.0141391 0.00584478)
(0.00776563 -0.0152813 0.00601649)
(0.00773903 -0.0158689 0.00651278)
(0.00746168 -0.0152101 0.00630188)
(0.00737494 -0.0146471 0.00579935)
(0.00976858 -0.019555 0.00857078)
(0.0107462 -0.0205987 0.00861576)
(0.0111829 -0.0212849 0.00880257)
(0.0100505 -0.0194841 0.00821389)
(0.0123982 -0.02276 0.00932002)
(0.0167181 -0.030929 0.0125704)
(0.0269483 -0.0452304 0.0193716)
(0.0123511 -0.0247647 0.0101899)
(0.0126997 -0.0252298 0.0100644)
(0.018229 -0.0332323 0.0165909)
(0.0155911 -0.0292584 0.0136034)
(0.0133083 -0.0262661 0.0111812)
(0.00705966 -0.0153482 0.00631984)
(0.00736081 -0.0152298 0.00627306)
(0.00747334 -0.0156385 0.00662942)
(0.00728431 -0.0150635 0.00630612)
(0.00674965 -0.0142176 0.00578303)
(0.00733846 -0.0146851 0.00611844)
(0.00725617 -0.0149466 0.00626505)
(0.0081271 -0.0154216 0.00642)
(0.00777607 -0.0151999 0.00636342)
(0.0076923 -0.0153072 0.00630539)
(0.0077797 -0.0156781 0.00659054)
(0.00745513 -0.0150898 0.00628212)
(0.0123008 -0.023715 0.0110833)
(0.0104331 -0.0219757 0.0081274)
(0.010242 -0.020967 0.00840711)
(0.0121249 -0.0246948 0.0101382)
(0.00986987 -0.0215574 0.0077679)
(0.0113384 -0.02282 0.00947901)
(0.0218271 -0.0595393 0.0212347)
(0.0182346 -0.079319 0.0407345)
(0.022442 -0.0575546 0.0205342)
(0.034766 -0.0809593 0.0125535)
(0.019467 -0.0414404 0.0150773)
(0.0182929 -0.0394002 0.0153043)
(0.0163967 -0.0346409 0.0137064)
(0.017248 -0.0385846 0.0166633)
(0.0147411 -0.0310884 0.0130677)
(0.0160929 -0.0352509 0.0149198)
(0.0150433 -0.0316582 0.0127509)
(0.00971226 -0.0197506 0.00816253)
(0.00953105 -0.0193998 0.00794203)
(0.00926129 -0.0193119 0.00822555)
(0.0101391 -0.0204243 0.00806839)
(0.0094174 -0.0195659 0.00800896)
(0.00970088 -0.0201207 0.00860166)
(0.00949746 -0.0194668 0.00834007)
(0.0102293 -0.0202535 0.00845719)
(0.00992775 -0.0205423 0.00852303)
(0.0101121 -0.0203426 0.00852783)
(0.0112986 -0.0223473 0.0087986)
(0.00902119 -0.0175126 0.00752173)
(0.00984215 -0.0192158 0.00879477)
(0.00790764 -0.0167153 0.00637036)
(0.00863893 -0.0184381 0.00657807)
(0.007818 -0.0177115 0.00608579)
(0.0096749 -0.0191414 0.00818914)
(0.00855903 -0.0180836 0.00687918)
(0.00875761 -0.0180015 0.00725866)
(0.00836713 -0.0166591 0.00706275)
(0.00882237 -0.0175428 0.00786738)
(0.00866109 -0.0178606 0.00746119)
(0.0080491 -0.0170527 0.0068206)
(0.00984464 -0.0202136 0.00789049)
(0.0101358 -0.0205414 0.00850181)
(0.0102353 -0.0207497 0.00863126)
(0.00993082 -0.0204398 0.00800511)
(0.00957121 -0.0194772 0.00757284)
(0.0103194 -0.0212838 0.00884673)
(0.00961139 -0.0194211 0.00760894)
(0.00905332 -0.0187388 0.00779657)
(0.00945793 -0.019061 0.00748154)
(0.00886855 -0.0178775 0.00735846)
(0.00909937 -0.0182447 0.00720116)
(0.00868839 -0.017762 0.00720994)
(0.0257213 -0.0590859 0.0327526)
(0.0191039 -0.0424649 0.0197535)
(0.0178933 -0.0375434 0.016094)
(0.0201744 -0.0459703 0.0188913)
(0.0175684 -0.0370467 0.0169759)
(0.0273694 -0.0686483 0.0261535)
(0.0368655 -0.140515 0.0676827)
(0.0281211 -0.0893675 0.0404909)
(0.0291706 -0.10292 0.0545091)
(0.0122211 -0.026691 0.0104508)
(0.015369 -0.0308742 0.0137014)
(0.0128304 -0.0270789 0.011132)
(0.013603 -0.0285069 0.0119438)
(0.015585 -0.0300537 0.0143574)
(0.0101011 -0.0238545 0.0087643)
(0.010332 -0.0215745 0.00906691)
(0.0113233 -0.0251212 0.0103283)
(0.0113012 -0.0229417 0.00982921)
(0.0106939 -0.0212669 0.00936947)
(0.0107462 -0.0241481 0.00944607)
(0.00975832 -0.0204183 0.00794848)
(0.00965929 -0.0203595 0.00815907)
(0.0100648 -0.0211115 0.00880117)
(0.00980053 -0.0202677 0.00830899)
(0.0100426 -0.02141 0.0083151)
(0.00924739 -0.0196793 0.00815979)
(0.00912906 -0.0190833 0.00739071)
(0.00947747 -0.0201054 0.00809802)
(0.00899662 -0.0193936 0.00756818)
(0.00888641 -0.0189645 0.00745393)
(0.00870085 -0.0192672 0.00752144)
(0.00939192 -0.0200982 0.00788682)
(0.00970241 -0.0211345 0.00863796)
(0.00867687 -0.0200719 0.00799213)
(0.0112827 -0.021169 0.00894537)
(0.008716 -0.0197177 0.00771581)
(0.0104844 -0.0228341 0.00848519)
(0.0106749 -0.0210669 0.00843949)
(0.00823164 -0.0172282 0.00734764)
(0.00844363 -0.0176932 0.00756893)
(0.00949912 -0.0188836 0.00783812)
(0.00799014 -0.0165484 0.00694176)
(0.009573 -0.0199354 0.00828187)
(0.00941852 -0.0190206 0.00783112)
(0.00959137 -0.0186068 0.00698144)
(0.00835306 -0.0171009 0.00668868)
(0.00838818 -0.0170152 0.00634915)
(0.0084442 -0.016899 0.00678691)
(0.0086477 -0.0165686 0.0066764)
(0.00830031 -0.016409 0.0062763)
(0.00965256 -0.0176933 0.00809523)
(0.00920959 -0.0177339 0.00772671)
(0.00806347 -0.0177443 0.00655936)
(0.00903608 -0.0174049 0.00710128)
(0.00899121 -0.0186265 0.00668538)
(0.00870975 -0.0187347 0.00723403)
(0.00785092 -0.0174045 0.00683349)
(0.00866653 -0.0174405 0.00712346)
(0.00865246 -0.0175405 0.00734491)
(0.00801729 -0.0179725 0.00708862)
(0.00836985 -0.0175077 0.00720565)
(0.00818713 -0.0164448 0.00691586)
(0.00920062 -0.019709 0.00740038)
(0.0100177 -0.0208094 0.00782971)
(0.00855931 -0.0172708 0.00731611)
(0.00853195 -0.0175655 0.00724667)
(0.00908317 -0.0191725 0.00712617)
(0.00836521 -0.0178731 0.00688992)
(0.0072374 -0.0140719 0.0059187)
(0.00797953 -0.0152953 0.00655149)
(0.00710972 -0.0144208 0.00590482)
(0.00741815 -0.0147878 0.00635892)
(0.00745484 -0.0153787 0.0059304)
(0.00721742 -0.0151226 0.00605131)
(0.00816059 -0.0158765 0.00633262)
(0.00717971 -0.0142919 0.00567346)
(0.00708414 -0.0140507 0.00632021)
(0.00742942 -0.0147164 0.00630557)
(0.00754328 -0.0154102 0.00569843)
(0.00749484 -0.0152808 0.00643617)
(0.00717178 -0.0144235 0.00594846)
(0.0071838 -0.0149914 0.00583665)
(0.00684925 -0.0138415 0.00614244)
(0.00689885 -0.0142576 0.0057248)
(0.00723194 -0.0148106 0.0059691)
(0.00757014 -0.015572 0.00616632)
(0.00822684 -0.017723 0.00649362)
(0.00757112 -0.0159742 0.00630664)
(0.00741645 -0.0153187 0.00615099)
(0.00699163 -0.0146519 0.0058468)
(0.00762541 -0.0157641 0.00603076)
(0.00748099 -0.016279 0.00591144)
(0.00791175 -0.0164821 0.00679248)
(0.00817948 -0.0158465 0.00693509)
(0.00785005 -0.0156831 0.00608261)
(0.00900697 -0.0171326 0.00719331)
(0.00813243 -0.0166626 0.0061143)
(0.00780382 -0.0151943 0.00695978)
(0.00676435 -0.0150212 0.00603882)
(0.00760092 -0.0150938 0.00633525)
(0.00679592 -0.0142069 0.0058202)
(0.00726964 -0.01515 0.00607673)
(0.00729476 -0.0154001 0.00614161)
(0.00740584 -0.0150442 0.00639114)
(0.0082881 -0.0167092 0.00717691)
(0.00826316 -0.0172601 0.0073545)
(0.00825924 -0.0166557 0.00714591)
(0.00848185 -0.0174532 0.00742396)
(0.00841987 -0.0170086 0.00724773)
(0.00832999 -0.0177727 0.00760035)
(0.00817326 -0.0166459 0.00696487)
(0.00842692 -0.0179898 0.00775649)
(0.00804865 -0.0162692 0.00683039)
(0.0085153 -0.0181237 0.00732345)
(0.0090647 -0.0184568 0.00739636)
(0.00675581 -0.0139986 0.00607204)
(0.00674447 -0.014073 0.00602875)
(0.00663635 -0.0140704 0.00599267)
(0.0072306 -0.0139177 0.00571978)
(0.0070348 -0.0140979 0.00592942)
(0.00706453 -0.014561 0.00624767)
(0.00730331 -0.0139965 0.00570786)
(0.0068253 -0.013841 0.00577506)
(0.00720662 -0.0151318 0.00605298)
(0.00727951 -0.015494 0.00672699)
(0.00730828 -0.0136422 0.00566953)
(0.00652926 -0.0146964 0.00612328)
(0.00648125 -0.0136236 0.0057204)
(0.00736211 -0.0138847 0.00577842)
(0.00713944 -0.0137168 0.00593146)
(0.00704737 -0.0136933 0.00578869)
(0.00706993 -0.0139243 0.0055851)
(0.00733305 -0.0149964 0.00651161)
(0.00658881 -0.0136823 0.00566718)
(0.00824005 -0.0183404 0.00728615)
(0.00773122 -0.0177512 0.0070305)
(0.00922383 -0.0183463 0.00807751)
(0.00892499 -0.0191236 0.00834485)
(0.00846649 -0.0173158 0.00752411)
(0.00735349 -0.0172117 0.00677352)
(0.00782162 -0.0166051 0.00655937)
(0.00900359 -0.0166578 0.00742529)
(0.00758289 -0.0153216 0.00643406)
(0.00715184 -0.0160238 0.00636891)
(0.00880875 -0.0173044 0.00719571)
(0.00725938 -0.0160735 0.00609911)
(0.00660789 -0.0144192 0.00591615)
(0.00785752 -0.0150426 0.00658708)
(0.00755488 -0.0148295 0.00625204)
(0.00708537 -0.0141776 0.00608711)
(0.00699511 -0.014574 0.00600582)
(0.00684055 -0.0145805 0.00578957)
(0.00724829 -0.0146835 0.0060732)
(0.00742297 -0.0152707 0.0063848)
(0.00773678 -0.0153855 0.00636494)
(0.00723869 -0.0146775 0.00601771)
(0.00728435 -0.0147182 0.0061377)
(0.00686314 -0.0144869 0.00588363)
(0.00687713 -0.014434 0.00597842)
(0.0529252 -0.103164 0.0854)
(0.0656685 -0.0970432 0.0820939)
(0.0335254 -0.0510704 0.027407)
(0.0338315 -0.0535902 0.0221081)
(0.0553618 -0.0706833 0.0343251)
(0.0501519 -0.0662575 0.0318919)
(0.0941504 -0.104255 0.0470477)
(0.0090713 -0.0182983 0.007506)
(0.0104324 -0.0202198 0.00846981)
(0.00862266 -0.0179973 0.00773402)
(0.0105518 -0.0217121 0.00952015)
(0.0107973 -0.0202829 0.00837628)
(0.00916406 -0.0191521 0.00795228)
(0.010605 -0.0207807 0.0094131)
(0.0589192 -0.0972512 0.0814335)
(0.0311381 -0.0514227 0.0304994)
(0.0255527 -0.04722 0.0273531)
(0.0416623 -0.0695341 0.04949)
(0.0723861 -0.0914145 0.0776362)
(0.0507413 -0.0568395 0.0373724)
(0.0173258 -0.0339943 0.0164156)
(0.0259457 -0.0515562 0.0291609)
(0.0193959 -0.0381846 0.0195932)
(0.016888 -0.0323186 0.0155315)
(0.0147396 -0.0312079 0.0146059)
(0.0271644 -0.0452746 0.0253887)
(0.00643317 -0.0128549 0.00543886)
(0.00637909 -0.0126917 0.00518935)
(0.00645547 -0.01307 0.00549746)
(0.00656891 -0.0132093 0.00542232)
(0.00649173 -0.0131661 0.00538482)
(0.00712083 -0.0144628 0.00560814)
(0.00695337 -0.0140541 0.00537166)
(0.00683575 -0.0136266 0.00552103)
(0.00646231 -0.013038 0.0056556)
(0.00755804 -0.0152467 0.00650813)
(0.00788385 -0.0155894 0.00672811)
(0.00781388 -0.0152371 0.00625531)
(0.00713538 -0.0148588 0.00660909)
(0.00748902 -0.0149468 0.00617774)
(0.00764423 -0.0150104 0.00614108)
(0.00714121 -0.014256 0.00593918)
(0.00746865 -0.0147269 0.00589975)
(0.00713804 -0.0142685 0.00582739)
(0.00734046 -0.014625 0.00597654)
(0.00715093 -0.0143656 0.00583635)
(0.00735545 -0.0145789 0.00582759)
(0.00668218 -0.0133273 0.00550327)
(0.00625281 -0.0128156 0.00539987)
(0.00644538 -0.0130306 0.00553799)
(0.00637655 -0.0132 0.0054496)
(0.0068386 -0.012967 0.00503328)
(0.00678022 -0.0136793 0.00560206)
(0.00699575 -0.0137537 0.00563672)
(0.00702478 -0.0132344 0.00535018)
(0.0067652 -0.0132493 0.00538464)
(0.00662017 -0.0136647 0.00558419)
(0.00678543 -0.0131713 0.00534508)
(0.00701725 -0.0146792 0.00618203)
(0.00701064 -0.0135641 0.00533647)
(0.00707642 -0.0135865 0.00555843)
(0.0069132 -0.0135292 0.00574227)
(0.00698206 -0.0134478 0.00548326)
(0.00726693 -0.0140672 0.00568084)
(0.00700731 -0.0139616 0.00598601)
(0.00655654 -0.0135265 0.00612657)
(0.00645677 -0.0139051 0.00606288)
(0.00722112 -0.0143926 0.00615469)
(0.00719206 -0.0137422 0.00584781)
(0.00717625 -0.0139072 0.00545695)
(0.00707231 -0.0140343 0.00587757)
(0.0070217 -0.0143627 0.00612962)
(0.00678718 -0.0138636 0.00600217)
(0.0072939 -0.0143111 0.00585599)
(0.00736479 -0.0143258 0.00592516)
(0.00684112 -0.0139079 0.00583378)
(0.00648029 -0.013139 0.00558716)
(0.00645572 -0.0130643 0.0054175)
(0.00655803 -0.0133621 0.00566111)
(0.00649439 -0.0130911 0.00541841)
(0.00649354 -0.0133952 0.00576111)
(0.00690572 -0.0138695 0.00540306)
(0.00611979 -0.0128678 0.00533965)
(0.00664613 -0.0131485 0.00530843)
(0.00623808 -0.0124052 0.00535061)
(0.00683299 -0.0143361 0.00597101)
(0.00628745 -0.0130594 0.00587941)
(0.00737733 -0.0143728 0.00563032)
(0.00838838 -0.0166101 0.00666541)
(0.00829352 -0.0165163 0.00677175)
(0.00901786 -0.017531 0.00680139)
(0.00867164 -0.0170383 0.00671746)
(0.00867022 -0.0171032 0.00675926)
(0.00823936 -0.0161979 0.00655768)
(0.00864358 -0.0172856 0.00709234)
(0.00934646 -0.0182764 0.007196)
(0.00911139 -0.0179807 0.00720994)
(0.00860325 -0.017225 0.00710357)
(0.0090019 -0.0182126 0.00708486)
(0.00874709 -0.0183757 0.00766738)
(0.00827927 -0.0171599 0.00723826)
(0.00831754 -0.0182558 0.00772242)
(0.00867469 -0.0181885 0.00772103)
(0.00845173 -0.0177677 0.0075365)
(0.0085014 -0.0171084 0.00714025)
(0.0067343 -0.0138846 0.0054789)
(0.00704771 -0.0146064 0.00551184)
(0.00734145 -0.0144079 0.00585607)
(0.00681304 -0.0135972 0.00568833)
(0.00740262 -0.0144127 0.00601645)
(0.00624657 -0.0129835 0.00518334)
(0.00717201 -0.0141278 0.005928)
(0.00757102 -0.0146275 0.0061501)
(0.00762239 -0.0141219 0.00638985)
(0.00753459 -0.0153364 0.00616877)
(0.00778694 -0.0148937 0.00615061)
(0.00762519 -0.0145425 0.00654851)
(0.00713508 -0.0144577 0.00596779)
(0.00792915 -0.0150277 0.00665611)
(0.00657501 -0.0147841 0.00552432)
(0.00721216 -0.0150639 0.0059753)
(0.00697173 -0.0144767 0.00604252)
(0.00660555 -0.0143066 0.0053849)
(0.00766804 -0.0154878 0.00657238)
(0.00741486 -0.0146087 0.00611445)
(0.00754212 -0.0144594 0.00619895)
(0.00782491 -0.0159745 0.0062572)
(0.00690803 -0.0145632 0.00576448)
(0.00733997 -0.0153081 0.00604907)
(0.00750463 -0.0146339 0.0063897)
(0.00800864 -0.0169951 0.00735435)
(0.00858815 -0.0151196 0.0061732)
(0.0072197 -0.0139253 0.0060689)
(0.00717824 -0.0141227 0.00571903)
(0.00747758 -0.015354 0.00628832)
(0.00744552 -0.0155249 0.00659199)
(0.00781093 -0.0149925 0.0062738)
(0.00801913 -0.015194 0.00589862)
(0.00817589 -0.0163505 0.0067291)
(0.00791807 -0.0158134 0.00668839)
(0.00669755 -0.0147194 0.00620922)
(0.00747212 -0.0156142 0.0064236)
(0.00781351 -0.0156907 0.00662078)
(0.00794913 -0.0161291 0.00660991)
(0.00798826 -0.0160821 0.00659471)
(0.0075376 -0.0153926 0.00664695)
(0.00794507 -0.0161913 0.00692667)
(0.00829302 -0.016744 0.00662357)
(0.00885788 -0.0177617 0.00730065)
(0.0090434 -0.0179408 0.00740319)
(0.00888119 -0.0180188 0.00736882)
(0.00879923 -0.0171411 0.00699263)
(0.00918065 -0.0180862 0.00737469)
(0.00868152 -0.0174593 0.00729271)
(0.0088694 -0.0181563 0.00767142)
(0.00967001 -0.0186942 0.00751364)
(0.0096316 -0.019714 0.00816335)
(0.00917829 -0.01896 0.0080253)
(0.00880921 -0.0177575 0.00737622)
(0.00972323 -0.0195849 0.00784431)
(0.00876339 -0.0172789 0.00704182)
(0.00900121 -0.018167 0.00744908)
(0.00926597 -0.018114 0.00677025)
(0.00910161 -0.0185309 0.00772334)
(0.00828464 -0.0166671 0.00685363)
(0.00883959 -0.017359 0.00700914)
(0.0080034 -0.0163395 0.0067079)
(0.00854433 -0.0166747 0.00674911)
(0.00766065 -0.0159583 0.00678291)
(0.00795732 -0.0159596 0.00649766)
(0.0080708 -0.0163285 0.00680144)
(0.00797317 -0.0160744 0.00662597)
(0.00795143 -0.0159597 0.00653327)
(0.00792406 -0.0162347 0.0069226)
(0.00803453 -0.0162688 0.00665312)
(0.00685649 -0.0140011 0.00631771)
(0.00756932 -0.0154706 0.00621386)
(0.00752902 -0.0156038 0.00616779)
(0.00773262 -0.0155154 0.00644119)
(0.00775841 -0.0158573 0.00659554)
(0.00740033 -0.0153852 0.006633)
(0.00728196 -0.0146287 0.00615936)
(0.00784336 -0.01551 0.00604914)
(0.00728362 -0.0145394 0.00612153)
(0.00731057 -0.0145875 0.00608664)
(0.00771234 -0.0153212 0.00622956)
(0.0072384 -0.0148032 0.00595767)
(0.00735041 -0.0149017 0.00596211)
(0.00713384 -0.0143975 0.00599908)
(0.0118348 -0.0244094 0.009577)
(0.0110785 -0.0229263 0.00911269)
(0.0113698 -0.0224835 0.00889531)
(0.0115123 -0.0222912 0.00918024)
(0.0107088 -0.0228739 0.00915999)
(0.0110531 -0.0235906 0.0089921)
(0.00862933 -0.0170978 0.0066257)
(0.00829188 -0.0162843 0.00623013)
(0.00818688 -0.0163579 0.00608292)
(0.00834065 -0.0166307 0.00652536)
(0.00863201 -0.0170479 0.00692371)
(0.00858224 -0.0170462 0.0066544)
(0.0106916 -0.022836 0.00905022)
(0.0115142 -0.0226677 0.00954829)
(0.0121411 -0.0236982 0.00975382)
(0.0109629 -0.0230764 0.00905369)
(0.0104681 -0.022002 0.00890878)
(0.0118393 -0.0232075 0.00966101)
(0.0153796 -0.0294017 0.0120934)
(0.015701 -0.0300077 0.0123365)
(0.0158244 -0.0308112 0.0123367)
(0.013475 -0.0277669 0.0113396)
(0.0125148 -0.0261233 0.0108433)
(0.0118937 -0.0243931 0.0101579)
(0.0461707 -0.0669815 0.0181003)
(0.0186123 -0.0918672 0.0257658)
(0.0467902 -0.141083 0.0272747)
(0.0622344 -0.122476 0.0236295)
(0.0205968 -0.0374223 0.0152989)
(0.0490351 -0.0814362 0.0230071)
(0.0463523 -0.0728656 0.0233822)
(0.0690497 -0.104734 0.0206363)
(0.0265044 -0.0526239 0.0193113)
(0.0305299 -0.0596013 0.0206473)
(0.0255339 -0.0576519 0.0301316)
(0.0371545 -0.0825621 0.053036)
(0.0289483 -0.0601907 0.0363906)
(0.0203536 -0.0433148 0.0201787)
(0.0439683 -0.110524 0.0839662)
(0.056385 -0.101275 0.0850651)
(0.0399344 -0.0831184 0.060183)
(0.00693862 -0.0138761 0.00561041)
(0.00742615 -0.0148073 0.0062622)
(0.00725417 -0.0145201 0.00601866)
(0.00757808 -0.0157698 0.00662388)
(0.00747643 -0.0147646 0.00568635)
(0.00749207 -0.015409 0.00628164)
(0.0206726 -0.0416852 0.0163506)
(0.055408 -0.106064 0.0233745)
(0.0227982 -0.0503484 0.0180501)
(0.0237723 -0.0493942 0.0177127)
(0.019625 -0.0411482 0.0164585)
(0.0176313 -0.0356121 0.0144829)
(0.0304746 -0.0664503 0.0233921)
(0.0437526 -0.0977674 0.030323)
(0.0102491 -0.021088 0.00878346)
(0.00996225 -0.0208159 0.00869879)
(0.0108334 -0.0216292 0.00908147)
(0.0103258 -0.0213276 0.00891198)
(0.0108205 -0.0211815 0.00879231)
(0.0106879 -0.0213915 0.00862538)
(0.0118162 -0.0228672 0.00958384)
(0.0122632 -0.0262635 0.0106467)
(0.0130641 -0.0258824 0.0104309)
(0.0112833 -0.0239186 0.0102394)
(0.0130336 -0.024649 0.00955482)
(0.00978957 -0.0198445 0.00819854)
(0.00983504 -0.0198046 0.00813839)
(0.0100789 -0.0202708 0.00828035)
(0.0104227 -0.0207208 0.00851798)
(0.00980595 -0.0199559 0.00815224)
(0.0101502 -0.0199493 0.00807379)
(0.0076965 -0.0151453 0.00644633)
(0.00685724 -0.0145547 0.00587942)
(0.00855631 -0.0158936 0.00707211)
(0.00705667 -0.0154252 0.00571448)
(0.00766156 -0.0146404 0.00659302)
(0.00775824 -0.0171509 0.0067994)
(0.007358 -0.0159495 0.00593239)
(0.00789859 -0.0161679 0.00714228)
(0.00809841 -0.0175706 0.00685831)
(0.00769292 -0.0163045 0.00615112)
(0.0078554 -0.0177455 0.00669025)
(0.00748185 -0.0167184 0.00638546)
(0.00766077 -0.0150591 0.00650753)
(0.00789274 -0.0163822 0.00668465)
(0.00776111 -0.0164091 0.00636107)
(0.00739122 -0.0149661 0.00658696)
(0.00805659 -0.0156348 0.00728843)
(0.00733791 -0.0153398 0.0062356)
(0.00746699 -0.0153897 0.00579141)
(0.00728612 -0.0150356 0.00639234)
(0.00785141 -0.0158877 0.00619886)
(0.00759532 -0.0152697 0.00635244)
(0.00803459 -0.0164487 0.00724532)
(0.00808879 -0.0160618 0.00642342)
(0.0149198 -0.0302676 0.0136817)
(0.0126706 -0.0252218 0.0108547)
(0.0149167 -0.0294056 0.0127773)
(0.0142195 -0.0271619 0.0131297)
(0.0179453 -0.0348256 0.0173476)
(0.0138802 -0.0274636 0.0132916)
(0.00934663 -0.0205043 0.00807956)
(0.00898604 -0.0186652 0.00795186)
(0.00867648 -0.0192026 0.00786778)
(0.0092413 -0.019215 0.00787684)
(0.00889098 -0.0199975 0.0078647)
(0.00829323 -0.0180864 0.00720996)
(0.00833139 -0.0160403 0.00629822)
(0.00781082 -0.0167981 0.00732039)
(0.00871712 -0.0169564 0.00706981)
(0.00813605 -0.0170357 0.00771162)
(0.00834211 -0.016365 0.00698365)
(0.00810187 -0.0165846 0.00732844)
(0.00833755 -0.0161808 0.00676482)
(0.00831216 -0.0159987 0.00646712)
(0.00805142 -0.015936 0.00672102)
(0.00801606 -0.0157864 0.00661818)
(0.00838428 -0.0161977 0.0066669)
(0.00842913 -0.0164576 0.00691294)
(0.0104498 -0.0214723 0.00804211)
(0.0107651 -0.0221354 0.00832586)
(0.00987386 -0.0195385 0.00784978)
(0.0102892 -0.0204591 0.00787106)
(0.0111061 -0.0220716 0.00814114)
(0.0102374 -0.021006 0.0080676)
(0.0156384 -0.0299914 0.010778)
(0.0152971 -0.0287875 0.0121873)
(0.0166458 -0.0310126 0.0125004)
(0.0133695 -0.0258336 0.0102814)
(0.0127782 -0.0247955 0.00964222)
(0.0131645 -0.0256653 0.00997239)
(0.00865429 -0.0166067 0.00658247)
(0.00795132 -0.016139 0.00669624)
(0.00844857 -0.0174249 0.00727902)
(0.00788263 -0.0163007 0.00683392)
(0.00796044 -0.0162513 0.00673853)
(0.0075591 -0.0150037 0.00626702)
(0.0165404 -0.0302556 0.0136482)
(0.0147332 -0.028813 0.0130989)
(0.0182009 -0.0343093 0.0162531)
(0.0182134 -0.0341631 0.0165629)
(0.0272266 -0.0495106 0.0276698)
(0.0138078 -0.0249778 0.0106881)
(0.0170247 -0.0309538 0.0136625)
(0.013202 -0.0254317 0.0115976)
(0.0140753 -0.0262993 0.0113215)
(0.0144844 -0.0281933 0.0122402)
(0.0178974 -0.0332288 0.0152486)
(0.0208814 -0.0353637 0.0160099)
(0.0267187 -0.0454964 0.0253358)
(0.0449212 -0.0665169 0.056908)
(0.0527532 -0.0645804 0.0266921)
(0.019932 -0.0351142 0.0172238)
(0.0330998 -0.0473515 0.0221924)
(0.0071506 -0.0157654 0.00635969)
(0.00796031 -0.0161219 0.0065689)
(0.00823252 -0.0170526 0.00692843)
(0.00744705 -0.0163759 0.00662511)
(0.00776916 -0.0165597 0.00703003)
(0.00867016 -0.0176258 0.00708371)
(0.00832479 -0.0165513 0.00672574)
(0.00825126 -0.0180156 0.00681668)
(0.00803757 -0.0162672 0.00667416)
(0.00854908 -0.0173504 0.00707697)
(0.0075606 -0.0163737 0.00650638)
(0.00802831 -0.0172772 0.00667279)
(0.00814199 -0.0170792 0.00630796)
(0.00762766 -0.0161385 0.0062833)
(0.00793198 -0.0168145 0.00634085)
(0.00811207 -0.0163444 0.00649737)
(0.00834773 -0.0180115 0.00655924)
(0.00821351 -0.0168402 0.00664375)
(0.0076068 -0.0166181 0.00664584)
(0.0068261 -0.0154747 0.00578489)
(0.00854049 -0.0158666 0.00676294)
(0.00828027 -0.0160071 0.00698286)
(0.00751963 -0.0166606 0.00615105)
(0.00779452 -0.0165596 0.00620761)
(0.00659255 -0.0126676 0.00522751)
(0.00669558 -0.0131452 0.00549619)
(0.00677558 -0.0137138 0.00566731)
(0.00652551 -0.0134747 0.00560807)
(0.0069199 -0.0140478 0.00601385)
(0.00672658 -0.0136151 0.00561229)
(0.00648796 -0.0130076 0.00526561)
(0.00672475 -0.0133779 0.00577135)
(0.00715563 -0.0142813 0.00626109)
(0.00880421 -0.0171867 0.00716373)
(0.00799896 -0.0163409 0.00645145)
(0.00705947 -0.0145698 0.00623983)
(0.00725489 -0.0146958 0.00626831)
(0.00695679 -0.0139209 0.00586261)
(0.00690312 -0.0142598 0.0060063)
(0.0164179 -0.0302669 0.0136677)
(0.0146581 -0.026921 0.0115109)
(0.0633374 -0.080743 0.0680516)
(0.0269969 -0.0446466 0.0218479)
(0.0407552 -0.062486 0.0387545)
(0.0675617 -0.0774497 0.0592651)
(0.0299365 -0.04866 0.0269943)
(0.0408 -0.0642355 0.0405972)
(0.0723644 -0.0853312 0.0695571)
(0.0572731 -0.0707914 0.0395384)
(0.0852333 -0.0997821 0.0780273)
(0.00688703 -0.0144952 0.00626933)
(0.0072757 -0.0149308 0.00621827)
(0.00761636 -0.0151286 0.00625612)
(0.00712839 -0.0149912 0.00654695)
(0.00664977 -0.0135176 0.00567626)
(0.00731189 -0.0141411 0.00626425)
(0.00695258 -0.01368 0.005676)
(0.00806885 -0.0151318 0.00664323)
(0.00721014 -0.0137145 0.00580397)
(0.00683811 -0.0139012 0.00526232)
(0.00748406 -0.0150674 0.00536853)
(0.0130449 -0.0267808 0.0104012)
(0.0142551 -0.0270795 0.0117931)
(0.0157598 -0.0308138 0.011988)
(0.0117496 -0.0235872 0.00961138)
(0.0116097 -0.0236834 0.0093532)
(0.01062 -0.022063 0.00843978)
(0.0109639 -0.0214073 0.00900603)
(0.0107564 -0.0229267 0.00836993)
(0.0102364 -0.0212435 0.00843001)
(0.0117817 -0.0238316 0.00947862)
(0.0118597 -0.0241082 0.00921935)
(0.0123444 -0.0243574 0.00974908)
(0.0108121 -0.0220371 0.00852232)
(0.0108537 -0.0220499 0.00862886)
(0.0104368 -0.0218067 0.0081283)
(0.0106747 -0.0208009 0.0083811)
(0.0111347 -0.0219173 0.00853967)
(0.00817607 -0.0162492 0.00661906)
(0.00777858 -0.0155876 0.00642965)
(0.00789982 -0.0158325 0.0069604)
(0.008067 -0.0157701 0.00681319)
(0.00812415 -0.01623 0.00690402)
(0.00789119 -0.0160236 0.0068582)
(0.00819037 -0.0162296 0.00662831)
(0.00855484 -0.016044 0.00629911)
(0.00786589 -0.0156323 0.00683289)
(0.00818604 -0.0156392 0.00650388)
(0.00826226 -0.0156197 0.00625085)
(0.00806684 -0.0155811 0.00636202)
(0.00766644 -0.0155794 0.00649888)
(0.00797448 -0.0154777 0.00626147)
(0.00829225 -0.0171013 0.00730894)
(0.00902931 -0.0178835 0.00743827)
(0.00793137 -0.0159356 0.00665573)
(0.00812424 -0.0167472 0.0071123)
(0.00810841 -0.0160535 0.00640092)
(0.00843514 -0.0168124 0.00662376)
(0.00908236 -0.0182164 0.0077456)
(0.0139902 -0.0284807 0.0116734)
(0.00709218 -0.0144739 0.00602423)
(0.00699266 -0.0143055 0.00596665)
(0.00670253 -0.0139823 0.00571404)
(0.00689848 -0.0143479 0.00601138)
(0.00754573 -0.0152582 0.00649353)
(0.0111295 -0.0228568 0.00943791)
(0.0109835 -0.0232836 0.00955076)
(0.0171137 -0.035506 0.0143607)
(0.0193353 -0.0401338 0.0147709)
(0.0152062 -0.0302329 0.0117469)
(0.0169331 -0.0322761 0.0123029)
(0.0161165 -0.0321957 0.0124282)
(0.0172767 -0.0348783 0.0133994)
(0.0117505 -0.0234816 0.00954422)
(0.0148931 -0.0304202 0.0117706)
(0.0138384 -0.0257076 0.0103794)
(0.0159823 -0.0335108 0.013624)
(0.0146163 -0.0310508 0.0123937)
(0.0144685 -0.029624 0.0120302)
(0.0153685 -0.0327381 0.0131547)
(0.0159556 -0.0327039 0.0130195)
(0.0144613 -0.0278887 0.0112872)
(0.0149615 -0.0314536 0.0126463)
(0.0112076 -0.021413 0.00889511)
(0.0107272 -0.0215497 0.00882267)
(0.0110914 -0.021768 0.00885703)
(0.0111558 -0.0228497 0.00941588)
(0.0105971 -0.0222832 0.00957744)
(0.00848584 -0.0171684 0.00684445)
(0.00680942 -0.0146995 0.00563632)
(0.00731808 -0.0162214 0.00639516)
(0.00715633 -0.0151383 0.00602229)
(0.00774587 -0.0154448 0.00657634)
(0.00718015 -0.0142153 0.00608397)
(0.00708098 -0.0147804 0.00607577)
(0.00726561 -0.0142088 0.00604109)
(0.00737139 -0.0143493 0.00617841)
(0.00706585 -0.0139262 0.00602957)
(0.00755648 -0.0163255 0.00598677)
(0.00731242 -0.0147046 0.00630985)
(0.0392535 -0.112377 0.0774282)
(0.0161987 -0.0326477 0.0145133)
(0.019073 -0.0375832 0.0182149)
(0.0163412 -0.0336494 0.0149189)
(0.00716215 -0.0149791 0.00640023)
(0.0796421 -0.114013 0.0251366)
(0.0619501 -0.105142 0.0191358)
(0.0176617 -0.0350013 0.0137834)
(0.0180496 -0.0360871 0.0141089)
(0.0181344 -0.0351716 0.0131483)
(0.0662997 -0.131417 0.0188203)
(0.0212014 -0.0432267 0.0158704)
(0.0190516 -0.0412564 0.0153775)
(0.0288635 -0.0550696 0.0165946)
(0.0417795 -0.0740426 0.0242879)
(0.0227152 -0.0528761 0.0174255)
(0.0299755 -0.0531156 0.0200608)
(0.0183619 -0.0362857 0.0139799)
(0.0171997 -0.0356187 0.0137513)
(0.0149642 -0.0317716 0.0127985)
(0.0159653 -0.0366354 0.0131689)
(0.0122188 -0.0246075 0.010108)
(0.0161483 -0.0336998 0.0133296)
(0.0136426 -0.029397 0.0116446)
(0.0161532 -0.0337699 0.0131928)
(0.0150412 -0.0312009 0.01259)
(0.0113301 -0.0246893 0.0102607)
(0.0131201 -0.0276892 0.0114816)
(0.0118681 -0.0260038 0.0107031)
(0.0128761 -0.0285209 0.0118846)