/*--------------------------------*- C++ -*----------------------------------*\
| =========                 |                                                 |
| \\      /  F ield         | OpenFOAM: The Open Source CFD Toolbox           |
|  \\    /   O peration     | Version:  v1612+                                |
|   \\  /    A nd           | Web:      www.OpenFOAM.com                      |
|    \\/     M anipulation  |                                                 |
\*---------------------------------------------------------------------------*/
FoamFile
{
    version     2.0;
    format      ascii;
    class       volScalarField;
    location    "150";
    object      p;
}
// * * * * * * * * * * * * * * * * * * * * * * * * * * * * * * * * * * * * * //

dimensions      [0 2 -2 0 0 0 0];

internalField   nonuniform List<scalar> 
18793
(
3.37082
3.27137
3.40067
3.25101
3.25443
3.25833
3.25685
3.24715
3.24941
3.26415
3.26045
3.26294
3.25256
3.266
3.2618
3.27671
3.28428
3.2669
3.26925
3.28667
3.27791
3.26991
3.26572
3.28144
3.2619
3.26935
3.28902
3.28685
3.28047
3.28978
3.2909
3.27719
3.27268
3.28513
3.28204
3.28735
3.29175
3.51583
3.521
3.52381
3.52442
3.50848
3.48404
3.51009
3.49925
3.51486
3.51488
3.53265
3.52705
3.52484
3.27861
3.27871
3.27767
3.27802
3.27792
3.28043
3.2791
3.27099
3.27444
3.27176
3.27773
3.27702
3.27327
3.27634
3.27306
3.27481
3.46501
3.47259
3.47229
3.46592
3.47748
3.44096
3.48555
3.48995
3.49546
3.47498
3.49316
3.48668
3.47753
3.49458
3.48196
3.50317
3.49839
3.50879
3.2996
3.30312
3.29362
3.30165
3.30102
3.30828
3.31405
3.30985
3.31161
3.29503
3.28946
3.28394
3.30509
3.29013
3.30822
3.31544
3.30851
3.31855
3.31071
3.31847
3.29998
3.30729
3.32032
3.30244
3.30581
3.31204
3.31816
3.29183
3.28519
3.31943
3.31213
3.29648
3.29886
3.28596
3.28188
3.31568
3.29861
3.30918
3.30488
3.3545
3.3542
3.36442
3.37357
3.36253
3.35729
3.35771
3.40824
3.40265
3.4009
3.37404
3.39574
3.39676
3.3955
3.39107
3.38337
3.38832
3.37838
3.39172
3.39928
3.40818
3.39006
3.369
3.37437
3.39797
3.39217
3.39859
3.39081
3.36115
3.36179
3.35611
3.39113
3.3717
3.36448
3.36117
3.38271
3.29215
3.29988
3.28406
3.291
3.2972
3.2906
3.28841
3.27793
3.28316
3.28166
3.27877
3.31516
3.30547
3.33686
3.33032
3.32364
3.32037
3.30972
3.31699
3.3069
3.31172
3.32442
3.32944
3.33458
3.32569
3.33614
3.33173
3.33201
3.31775
3.32458
3.3283
3.25195
3.24902
3.24855
3.24756
3.24941
3.24686
3.25424
3.2548
3.25178
3.24635
3.25157
3.25297
3.25478
3.24953
3.25502
3.25577
3.25273
3.24829
3.25607
3.25715
3.25482
3.25284
3.25412
3.25576
3.25366
3.25686
3.25062
3.2578
3.2541
3.25676
3.25996
3.25674
3.25421
3.25719
3.25953
3.25815
3.2609
3.33244
3.32975
3.32204
3.3298
3.34072
3.31829
3.31489
3.32807
3.3293
3.31541
3.32166
3.31798
3.31338
3.31078
3.33067
3.32254
3.319
3.32186
3.25008
3.24427
3.23845
3.24921
3.2435
3.23847
3.24138
3.23781
3.24004
3.24503
3.23599
3.23282
3.23768
3.23663
3.22456
3.23342
3.23165
3.23784
3.241
3.26835
3.26508
3.28179
3.28848
3.26555
3.26726
3.27215
3.27064
3.28648
3.27911
3.27459
3.26772
3.27536
3.27316
3.28668
3.26938
3.28618
3.27846
3.28447
3.2791
3.29117
3.28836
3.2875
3.2968
3.30362
3.28486
3.27919
3.27776
3.28138
3.28048
3.29884
3.29504
3.29822
3.28864
3.3013
3.28808
3.2196
3.22764
3.22113
3.22402
3.22293
3.22376
3.22596
3.22409
3.22143
3.2277
3.22085
3.43874
3.44288
3.47428
3.46427
3.48488
3.48456
3.44002
3.4407
3.47158
3.45629
3.45618
3.46741
3.45173
3.46202
3.47136
3.46093
3.47081
3.47729
3.46791
3.47973
3.36421
3.36474
3.37392
3.37528
3.37128
3.35801
3.36332
3.40342
3.391
3.38091
3.40586
3.39587
3.37085
3.37245
3.39202
3.38355
3.39198
3.39387
3.38264
3.27817
3.27943
3.29034
3.28317
3.28535
3.27428
3.29187
3.306
3.30396
3.30131
3.30029
3.2902
3.29624
3.29043
3.27794
3.29697
3.28395
3.30259
3.21558
3.21698
3.21641
3.21971
3.21262
3.21043
3.21136
3.21092
3.20664
3.20586
3.20738
3.20967
3.20877
3.21066
3.20782
3.20786
3.29497
3.29619
3.29296
3.29287
3.29378
3.29462
3.29673
3.29031
3.29511
3.29507
3.29513
3.29028
3.29094
3.28862
3.24637
3.24717
3.25388
3.2483
3.24105
3.23718
3.24088
3.23762
3.23993
3.24434
3.24593
3.24687
3.24584
3.24159
3.24416
3.24914
3.2472
3.2403
3.24273
3.213
3.21623
3.21776
3.22026
3.22373
3.21482
3.22387
3.21521
3.21934
3.22054
3.37871
3.40015
3.36123
3.36591
3.38311
3.38651
3.38516
3.38682
3.39953
3.38846
3.39495
3.36248
3.36167
3.39929
3.37149
3.37719
3.37719
3.38234
3.37796
3.34971
3.3509
3.3347
3.34144
3.33271
3.34525
3.34627
3.33744
3.3435
3.32639
3.32564
3.3334
3.32384
3.32965
3.32797
3.33534
3.34999
3.35672
3.33826
3.3454
3.3337
3.32717
3.279
3.29038
3.2987
3.30223
3.30457
3.30866
3.29026
3.30348
3.27759
3.2865
3.29025
3.28711
3.27099
3.28083
3.29469
3.29359
3.2873
3.3038
3.27618
3.27669
3.26788
3.26885
3.26483
3.26802
3.27731
3.27611
3.27782
3.26983
3.26561
3.2691
3.2686
3.26962
3.27732
3.28308
3.27119
3.26736
3.27265
3.273
3.2763
3.2827
3.27667
3.31797
3.31466
3.31784
3.30925
3.31979
3.32774
3.3162
3.32715
3.31729
3.30964
3.25231
3.24567
3.24511
3.24301
3.24459
3.2448
3.23816
3.24615
3.25984
3.2562
3.25314
3.25395
3.26139
3.24958
3.26127
3.24726
3.26314
3.25121
3.25448
3.37459
3.3982
3.38577
3.40399
3.36683
3.3735
3.36258
3.354
3.36796
3.36539
3.34527
3.36966
3.3923
3.37273
3.39491
3.39089
3.28268
3.28528
3.27637
3.28411
3.27341
3.27563
3.27775
3.27089
3.27237
3.2747
3.2771
3.27878
3.27584
3.27648
3.27206
3.27193
3.2799
3.27282
3.2728
3.27039
3.37957
3.37647
3.36323
3.37194
3.36298
3.37078
3.36849
3.36538
3.38315
3.38465
3.39202
3.36444
3.37203
3.35618
3.36457
3.36112
3.45658
3.45125
3.42512
3.43274
3.41712
3.42055
3.4657
3.46028
3.46933
3.45503
3.45255
3.44092
3.46689
3.459
3.44353
3.54025
3.49661
3.53137
3.52389
3.5348
3.4964
3.5046
3.51628
3.51866
3.51826
3.51646
3.52774
3.52251
3.53021
3.51262
3.51345
3.509
3.25662
3.26322
3.25614
3.26544
3.26869
3.27322
3.25556
3.25907
3.25458
3.25296
3.27123
3.27089
3.26205
3.25285
3.24819
3.25565
3.24789
3.25244
3.25378
3.25794
3.25473
3.25567
3.24745
3.24712
3.24774
3.2501
3.24474
3.25087
3.24532
3.22104
3.21894
3.2247
3.22071
3.21944
3.21415
3.21897
3.22191
3.21765
3.22535
3.22117
3.22232
3.22074
3.23415
3.23116
3.22302
3.22485
3.23474
3.22121
3.23355
3.23676
3.23079
3.22546
3.23193
3.22639
3.22975
3.4842
3.4938
3.47952
3.48405
3.49864
3.51297
3.50344
3.50283
3.50111
3.48518
3.51556
3.52345
3.50782
3.5088
3.52197
3.51734
3.50846
3.52059
3.5168
3.50199
3.39721
3.41695
3.4335
3.43446
3.42331
3.39775
3.42591
3.41748
3.40092
3.40771
3.37574
3.29528
3.29174
3.29785
3.29279
3.29481
3.29415
3.29693
3.28852
3.28875
3.30635
3.30156
3.30122
3.30261
3.2924
3.29756
3.30229
3.30433
3.30409
3.30367
3.2932
3.29426
3.29583
3.30316
3.30444
3.29124
3.29447
3.29871
3.32411
3.323
3.32522
3.31459
3.31675
3.32114
3.32204
3.31844
3.29952
3.30426
3.30607
3.3083
3.30944
3.30223
3.32462
3.3137
3.29982
3.30748
3.30766
3.31028
3.27138
3.269
3.2726
3.26994
3.27126
3.27134
3.26742
3.26833
3.2693
3.27115
3.27404
3.39367
3.39363
3.3997
3.40962
3.41549
3.42118
3.42574
3.39961
3.42834
3.41009
3.41122
3.40748
3.41999
3.41881
3.42228
3.43237
3.42553
3.42572
3.43157
3.38935
3.39062
3.38531
3.37309
3.38913
3.35409
3.35099
3.34714
3.3642
3.34375
3.34425
3.37401
3.35372
3.35407
3.36887
3.29481
3.2883
3.29465
3.29217
3.29068
3.28562
3.29235
3.29024
3.28516
3.28265
3.28907
3.29042
3.29676
3.29365
3.29084
3.28462
3.28328
3.28577
3.28707
3.29199
3.28952
3.32345
3.31389
3.3173
3.30672
3.29973
3.3106
3.30933
3.3032
3.29483
3.30445
3.31292
3.31189
3.29779
3.29324
3.30875
3.30108
3.31691
3.31143
3.31036
3.2657
3.26491
3.26866
3.27008
3.26957
3.27203
3.26791
3.26597
3.26514
3.26967
3.26737
3.26512
3.26689
3.26376
3.27255
3.26639
3.26367
3.26946
3.27375
3.26266
3.26167
3.40168
3.40016
3.40937
3.41862
3.42273
3.41597
3.41315
3.39536
3.4026
3.38222
3.41623
3.38108
3.37657
3.39221
3.40688
3.37261
3.36736
3.39915
3.38212
3.39963
3.27425
3.27536
3.27139
3.28326
3.27758
3.2719
3.26844
3.27174
3.2719
3.27734
3.28029
3.28222
3.28696
3.28325
3.28993
3.28477
3.29022
3.29397
3.28398
3.28944
3.33279
3.34314
3.34447
3.3461
3.34301
3.34345
3.34256
3.33611
3.33451
3.3309
3.34976
3.33429
3.32842
3.34128
3.34727
3.3339
3.32861
3.34448
3.3131
3.31273
3.34193
3.33681
3.34235
3.33359
3.33889
3.31738
3.32716
3.31663
3.31996
3.32659
3.32819
3.29158
3.2904
3.30933
3.31266
3.30702
3.29829
3.29695
3.30499
3.28724
3.29846
3.30352
3.29677
3.30672
3.29137
3.30259
3.30699
3.29532
3.31047
3.30344
3.47901
3.47681
3.46161
3.45943
3.47481
3.48151
3.4925
3.44514
3.46698
3.48406
3.47659
3.46655
3.43581
3.45533
3.47242
3.45965
3.33669
3.34843
3.32983
3.3432
3.34947
3.32129
3.32708
3.3283
3.31953
3.32069
3.3373
3.35116
3.35226
3.35197
3.34694
3.32656
3.32991
3.35034
3.33022
3.37271
3.37972
3.34329
3.34012
3.36831
3.36754
3.34975
3.34248
3.36628
3.35905
3.35312
3.36773
3.38021
3.35748
3.3515
3.33213
3.33704
3.35671
3.34896
3.35556
3.3446
3.33431
3.26027
3.26347
3.24086
3.24768
3.25972
3.25666
3.24526
3.23951
3.25515
3.25252
3.24999
3.242
3.23885
3.26026
3.24567
3.24692
3.24633
3.31538
3.32961
3.31844
3.31751
3.32085
3.31204
3.31403
3.32266
3.29703
3.30758
3.26801
3.26746
3.26732
3.2685
3.26717
3.27027
3.26945
3.26739
3.26619
3.26592
3.27797
3.27927
3.27568
3.27573
3.27042
3.27022
3.27531
3.27356
3.20302
3.19544
3.2043
3.26311
3.26914
3.26362
3.22005
3.22298
3.25868
3.2572
3.26339
3.22559
3.22487
3.22973
3.25062
3.24509
3.24446
3.21717
3.2149
3.21662
3.29838
3.30047
3.26538
3.26524
3.23342
3.23215
3.2136
3.21211
3.21161
3.32469
3.32366
3.32815
3.22397
3.22537
3.2629
3.25869
3.27611
3.27743
3.31278
3.31564
3.23893
3.24052
3.23568
3.23236
3.23255
3.34158
3.34249
3.2211
3.22738
3.22801
3.31603
3.3092
3.31317
3.25346
3.25358
3.24511
3.24464
3.32526
3.3291
3.32768
3.29861
3.30512
3.36608
3.35957
3.35885
3.23248
3.23119
3.28715
3.27535
3.28586
3.27768
3.23745
3.23867
3.2409
3.25857
3.2628
3.3733
3.36754
3.37546
3.33151
3.31477
3.32441
3.32177
3.34719
3.34118
3.37414
3.37457
3.30539
3.30072
3.30806
3.24904
3.24805
3.25146
3.24465
3.24399
3.35311
3.34912
3.36147
3.3636
3.26248
3.26233
3.25617
3.368
3.37107
3.37204
3.40851
3.4082
3.24387
3.25106
3.24961
3.33361
3.3367
3.25573
3.25727
3.25387
3.25566
3.25025
3.26504
3.26124
3.26567
3.31137
3.313
3.27604
3.27377
3.39983
3.40567
3.26398
3.27187
3.27111
3.44545
3.43661
3.43653
3.38367
3.3889
3.28431
3.28424
3.26428
3.262
3.26359
3.26086
3.25783
3.25718
3.26052
3.26063
3.36672
3.36949
3.36095
3.28497
3.2794
3.27919
3.4538
3.45557
3.46297
3.31065
3.31357
3.42368
3.42943
3.27288
3.26563
3.26775
3.26891
3.26866
3.38786
3.31457
3.31422
3.27637
3.27731
3.48474
3.48723
3.49218
3.46931
3.47498
3.45772
3.27143
3.272
3.42961
3.43215
3.43886
3.29275
3.28872
3.28168
3.38754
3.36603
3.36721
3.34075
3.3453
3.27455
3.27742
3.28043
3.27979
3.27654
3.50565
3.50511
3.51491
3.29578
3.29394
3.36207
3.35423
3.42617
3.43597
3.27937
3.2784
3.50491
3.50183
3.52721
3.5154
3.51833
3.52103
3.28722
3.28949
3.28044
3.32297
3.32944
3.32246
3.32383
3.3092
3.31044
3.30354
3.28543
3.28646
3.29849
3.29321
3.29285
3.31994
3.31772
3.41925
3.43565
3.53011
3.53018
3.5391
3.28842
3.28805
3.29121
3.4186
3.42993
3.31556
3.31461
3.30408
3.30522
3.39033
3.37707
3.39437
3.36622
3.37725
3.29539
3.29476
3.52019
3.51243
3.51416
3.50873
3.5119
3.49787
3.52195
3.51793
3.51422
3.47327
3.4749
3.46464
3.41701
3.41512
3.4829
3.47157
3.50738
3.50719
3.5084
3.50931
3.50282
3.49959
3.47609
3.46095
3.47635
3.48765
3.49208
3.48311
3.50736
3.50622
3.49458
3.50958
3.51609
3.49489
3.50841
3.4759
3.49743
3.47755
3.4723
3.48677
3.47259
3.49756
3.4874
3.48974
3.47904
3.48974
3.49196
3.50681
3.50816
3.48389
3.49725
3.48371
3.49128
3.48946
3.49886
3.50472
3.50211
3.34815
3.35683
3.35348
3.35849
3.34621
3.33531
3.33657
3.35223
3.35911
3.332
3.34753
3.34156
3.31787
3.33731
3.34707
3.37159
3.38038
3.39504
3.39907
3.31621
3.31478
3.29391
3.29129
3.29221
3.29043
3.29441
3.41474
3.42233
3.45414
3.43964
3.4219
3.41146
3.38675
3.36777
3.36321
3.39172
3.38625
3.37016
3.39385
3.40908
3.40216
3.4016
3.40361
3.29182
3.28999
3.28975
3.29436
3.29791
3.29004
3.30097
3.28155
3.28355
3.29036
3.28618
3.2881
3.29328
3.28918
3.29118
3.28421
3.28785
3.2902
3.29031
3.291
3.52149
3.51967
3.53092
3.52773
3.52288
3.5288
3.53009
3.5259
3.52804
3.52047
3.51212
3.52693
3.50921
3.51956
3.5315
3.51777
3.50356
3.50986
3.52476
3.51439
3.51483
3.51656
3.51651
3.50866
3.5242
3.52774
3.52158
3.49906
3.51607
3.5039
3.49511
3.50513
3.362
3.36487
3.39178
3.38777
3.37713
3.37516
3.36828
3.40258
3.40552
3.4101
3.42397
3.41438
3.40798
3.38817
3.42774
3.39404
3.42656
3.40563
3.40458
3.43536
3.45769
3.48091
3.47894
3.4196
3.42728
3.45541
3.44612
3.44137
3.32879
3.32944
3.34668
3.34846
3.35245
3.28682
3.28619
3.29186
3.28995
3.29015
3.29202
3.28868
3.28466
3.28646
3.29064
3.28493
3.28618
3.30022
3.29917
3.29832
3.31371
3.30066
3.30163
3.29977
3.30896
3.30443
3.28168
3.28107
3.48668
3.4991
3.505
3.48433
3.4891
3.47958
3.50741
3.4947
3.49046
3.49851
3.49863
3.51285
3.50989
3.49334
3.48068
3.5185
3.50216
3.49872
3.49103
3.49956
3.50588
3.50717
3.50172
3.49452
3.51958
3.48892
3.48781
3.49691
3.49077
3.45324
3.47527
3.47101
3.47461
3.46418
3.47477
3.48156
3.47784
3.47072
3.46743
3.48237
3.48584
3.45288
3.48898
3.49132
3.27384
3.27561
3.27853
3.28127
3.27397
3.27663
3.27869
3.27983
3.28203
3.3666
3.38162
3.39618
3.40236
3.39727
3.36817
3.36246
3.37671
3.38171
3.40626
3.40852
3.41501
3.42806
3.43816
3.40523
3.39816
3.40116
3.39824
3.44056
3.42617
3.32203
3.33116
3.33919
3.28748
3.29108
3.29193
3.29446
3.29091
3.2919
3.29361
3.29608
3.28526
3.28824
3.48043
3.48492
3.5017
3.52132
3.52763
3.51822
3.52212
3.50734
3.51094
3.50574
3.50739
3.50058
3.49892
3.50472
3.28006
3.28042
3.2814
3.28365
3.2833
3.2765
3.28038
3.28091
3.2832
3.28159
3.28178
3.28473
3.28562
3.26644
3.27418
3.27024
3.26795
3.27118
3.28414
3.28004
3.27757
3.27798
3.27497
3.28289
3.28699
3.29776
3.30676
3.30077
3.37644
3.35593
3.35098
3.39119
3.36657
3.39655
3.29043
3.29543
3.29399
3.29357
3.28898
3.29679
3.3041
3.42855
3.43773
3.42945
3.42162
3.46079
3.45404
3.44272
3.47245
3.44275
3.42814
3.45501
3.44067
3.45752
3.4547
3.27679
3.27901
3.27585
3.27442
3.27526
3.27692
3.26822
3.27096
3.2715
3.26546
3.26871
3.2747
3.27298
3.27207
3.27483
3.27385
3.4393
3.45125
3.44497
3.46594
3.45224
3.4382
3.47612
3.45475
3.47239
3.4694
3.45964
3.48123
3.4812
3.46378
3.43908
3.46205
3.46647
3.47018
3.46837
3.48333
3.4918
3.48285
3.4743
3.46787
3.47326
3.49176
3.5051
3.49204
3.47818
3.26852
3.27373
3.27434
3.26707
3.27375
3.27099
3.27364
3.27567
3.27586
3.28723
3.28297
3.28813
3.28194
3.27319
3.27232
3.27746
3.27627
3.27903
3.28091
3.29074
3.28356
3.27879
3.28234
3.28298
3.29084
3.28443
3.28233
3.27688
3.28142
3.28016
3.28816
3.29609
3.34093
3.34122
3.32838
3.32242
3.37074
3.35465
3.32966
3.32534
3.32867
3.33733
3.35376
3.34088
3.36252
3.34832
3.37297
3.38072
3.26565
3.2638
3.26695
3.26619
3.26507
3.26904
3.26658
3.27017
3.26535
3.26807
3.27669
3.27447
3.27119
3.27329
3.27211
3.27045
3.27373
3.25644
3.26527
3.26456
3.26507
3.26438
3.2645
3.26958
3.26741
3.26963
3.27554
3.27242
3.28102
3.27873
3.27359
3.41527
3.42421
3.35443
3.3465
3.33902
3.31891
3.30879
3.42732
3.44077
3.4447
3.42704
3.41881
3.43593
3.43206
3.4398
3.43259
3.46271
3.47527
3.45812
3.45174
3.4369
3.44486
3.45756
3.44798
3.47709
3.47126
3.46135
3.46223
3.4779
3.47038
3.45481
3.46246
3.48932
3.47499
3.48971
3.47516
3.47411
3.46482
3.26388
3.26256
3.27562
3.27415
3.27197
3.27605
3.3015
3.29806
3.30865
3.29531
3.29051
3.27366
3.27868
3.27235
3.27502
3.27703
3.28184
3.27749
3.2756
3.27892
3.28263
3.27898
3.27379
3.26636
3.27014
3.26851
3.26977
3.36402
3.35582
3.34829
3.3537
3.3499
3.39817
3.38989
3.37602
3.40919
3.40423
3.40067
3.40756
3.40273
3.25366
3.25876
3.25718
3.25989
3.26852
3.2685
3.2612
3.25998
3.26495
3.26042
3.26103
3.26064
3.26249
3.26287
3.26332
3.27032
3.26323
3.26719
3.26918
3.25707
3.2575
3.2606
3.25808
3.25989
3.25108
3.2557
3.25707
3.25977
3.25235
3.25668
3.25808
3.25655
3.26072
3.26109
3.25854
3.25815
3.25838
3.26408
3.26969
3.26887
3.26668
3.26655
3.27057
3.2674
3.26703
3.26974
3.26488
3.26599
3.25985
3.2614
3.26127
3.25961
3.26116
3.26419
3.26802
3.26492
3.26581
3.2606
3.26002
3.26032
3.25982
3.32323
3.31797
3.32008
3.26311
3.26796
3.27348
3.2682
3.27366
3.27693
3.37931
3.39601
3.39179
3.40138
3.4127
3.40827
3.41413
3.43262
3.42687
3.42471
3.42972
3.41873
3.40757
3.39259
3.39818
3.43019
3.4268
3.41811
3.42989
3.42792
3.42458
3.42762
3.4178
3.42064
3.41211
3.41667
3.40176
3.43179
3.39493
3.42256
3.41836
3.45111
3.46351
3.43596
3.4501
3.43519
3.46233
3.45285
3.26065
3.26371
3.26482
3.26314
3.26703
3.26792
3.26811
3.26658
3.3825
3.38198
3.38954
3.38775
3.3736
3.37044
3.39702
3.3854
3.40051
3.39644
3.38535
3.42502
3.42165
3.44294
3.40296
3.41794
3.41973
3.40583
3.39219
3.39872
3.41741
3.41167
3.40946
3.40933
3.39965
3.39736
3.40998
3.27813
3.27714
3.28085
3.29229
3.28196
3.2878
3.29117
3.29204
3.29194
3.28973
3.28593
3.2752
3.27699
3.27955
3.27363
3.27266
3.31881
3.32737
3.3236
3.33575
3.33244
3.33657
3.30964
3.32829
3.34204
3.29488
3.30281
3.32276
3.31317
3.34134
3.29639
3.29349
3.28464
3.24969
3.25723
3.26728
3.25981
3.25845
3.26281
3.26781
3.30488
3.28348
3.28098
3.29268
3.28067
3.28011
3.27758
3.27234
3.27276
3.27616
3.24848
3.2502
3.25241
3.25589
3.25123
3.25065
3.25036
3.25257
3.25569
3.25426
3.25516
3.25717
3.26337
3.30499
3.31578
3.30727
3.31652
3.32465
3.31125
3.3005
3.35308
3.35389
3.3576
3.3718
3.37546
3.32784
3.35026
3.33364
3.24126
3.24546
3.24813
3.24366
3.24252
3.25201
3.24894
3.24913
3.2446
3.25148
3.39886
3.39814
3.38751
3.39979
3.39146
3.39374
3.40133
3.40308
3.38792
3.40588
3.39793
3.40449
3.39269
3.40321
3.40958
3.41438
3.41325
3.40586
3.39375
3.39337
3.40136
3.41389
3.40698
3.40799
3.38943
3.40959
3.40488
3.39551
3.40175
3.38449
3.39868
3.38716
3.37346
3.36566
3.3738
3.37095
3.38385
3.37095
3.36639
3.36163
3.34845
3.24558
3.25355
3.24619
3.25685
3.29062
3.29304
3.26236
3.25805
3.25818
3.26868
3.26132
3.25888
3.25721
3.2636
3.26261
3.2641
3.37554
3.38031
3.37666
3.38801
3.3565
3.34815
3.32953
3.354
3.34943
3.2369
3.23935
3.24024
3.24174
3.24043
3.24106
3.24197
3.24437
3.24844
3.24215
3.24217
3.2422
3.24377
3.25159
3.24909
3.2527
3.24769
3.24947
3.24807
3.24851
3.24853
3.24963
3.24394
3.2462
3.24703
3.24815
3.26708
3.26849
3.27334
3.32873
3.32768
3.32046
3.31881
3.33576
3.34945
3.35139
3.35372
3.36801
3.36127
3.3681
3.35815
3.36135
3.37037
3.369
3.36545
3.36118
3.36422
3.34851
3.37123
3.34311
3.35013
3.38463
3.37299
3.38968
3.34548
3.34918
3.33405
3.33454
3.32762
3.32302
3.33486
3.33273
3.32523
3.31885
3.33169
3.33643
3.28477
3.29939
3.2926
3.29443
3.28753
3.30249
3.30808
3.302
3.31558
3.30928
3.3108
3.2966
3.28328
3.31858
3.3095
3.35847
3.35464
3.34248
3.35423
3.35342
3.37616
3.38072
3.38463
3.37357
3.40167
3.39251
3.39974
3.39034
3.39433
3.39594
3.38266
3.38283
3.36702
3.37183
3.37141
3.37879
3.35899
3.36099
3.37413
3.3691
3.24455
3.24134
3.25609
3.25453
3.25608
3.25414
3.2448
3.25914
3.2504
3.24854
3.24965
3.24773
3.25682
3.25606
3.25841
3.25794
3.25686
3.25172
3.23323
3.23438
3.23754
3.24236
3.23665
3.23574
3.23698
3.23851
3.24252
3.2433
3.24165
3.24115
3.24756
3.24216
3.24673
3.2469
3.24107
3.24177
3.24829
3.25212
3.26611
3.27137
3.26652
3.26195
3.22868
3.23418
3.23368
3.2332
3.24008
3.24039
3.23429
3.23441
3.23756
3.23415
3.24085
3.23905
3.2346
3.23771
3.24289
3.24585
3.24445
3.24088
3.24383
3.24326
3.22877
3.23287
3.23542
3.22665
3.23478
3.23633
3.34526
3.35119
3.34841
3.35411
3.3583
3.35641
3.34806
3.3592
3.36975
3.34998
3.3562
3.36064
3.35725
3.36582
3.36201
3.35505
3.36527
3.36954
3.35661
3.35525
3.35936
3.36902
3.35932
3.35462
3.3719
3.35653
3.38132
3.3703
3.3731
3.36583
3.30428
3.30313
3.29288
3.28838
3.30453
3.29864
3.2924
3.29284
3.31143
3.31796
3.31039
3.32615
3.33625
3.33099
3.33778
3.32025
3.31824
3.31301
3.3431
3.3354
3.33905
3.34162
3.26951
3.28778
3.26834
3.27693
3.2839
3.27532
3.28382
3.26731
3.28423
3.28258
3.27084
3.29187
3.29396
3.34294
3.33833
3.34321
3.33463
3.32528
3.32892
3.31885
3.32074
3.31869
3.31084
3.3127
3.30538
3.31837
3.31983
3.3395
3.32882
3.33939
3.32295
3.34358
3.34155
3.23989
3.24216
3.24055
3.24245
3.24517
3.24569
3.2462
3.23774
3.2429
3.2377
3.2346
3.24261
3.23951
3.24061
3.24172
3.24223
3.24914
3.24024
3.23995
3.2416
3.2398
3.24519
3.24466
3.24959
3.25916
3.25901
3.26635
3.25924
3.25603
3.25515
3.25094
3.2534
3.26656
3.27126
3.25815
3.25331
3.25712
3.2624
3.25657
3.27732
3.26769
3.31798
3.31053
3.32469
3.33786
3.32341
3.31755
3.31282
3.22371
3.22709
3.22451
3.22455
3.21956
3.22049
3.22913
3.23034
3.23054
3.33994
3.33065
3.3416
3.22828
3.22736
3.22588
3.23125
3.23719
3.23555
3.2273
3.23089
3.23313
3.22179
3.2154
3.21896
3.28902
3.29019
3.29354
3.28828
3.2926
3.30606
3.30401
3.30547
3.30139
3.3085
3.30786
3.30257
3.3138
3.32066
3.29525
3.29895
3.31001
3.30723
3.28299
3.28919
3.2852
3.2752
3.27729
3.30494
3.29815
3.28273
3.30025
3.2922
3.28267
3.24927
3.2508
3.25386
3.23984
3.24379
3.25274
3.2373
3.24728
3.25051
3.25272
3.25734
3.25834
3.26182
3.25561
3.27271
3.26555
3.27257
3.27917
3.21964
3.22198
3.2225
3.22251
3.22329
3.22726
3.22371
3.22204
3.22354
3.22465
3.22153
3.22772
3.23098
3.22494
3.22853
3.21976
3.21858
3.22235
3.2209
3.22018
3.2218
3.31459
3.31881
3.31279
3.30232
3.31768
3.31483
3.31329
3.31505
3.32
3.31292
3.33074
3.32336
3.33574
3.33295
3.31671
3.31971
3.32095
3.20952
3.21231
3.20807
3.21783
3.20266
3.21114
3.21081
3.20772
3.22046
3.22492
3.2263
3.21765
3.22267
3.22022
3.22293
3.22972
3.23263
3.24081
3.28203
3.28907
3.29186
3.29026
3.28393
3.27762
3.26906
3.27441
3.27745
3.2765
3.272
3.2844
3.28544
3.28861
3.29057
3.29015
3.28239
3.28796
3.29673
3.30301
3.29336
3.28658
3.29182
3.28714
3.2111
3.21479
3.21282
3.21044
3.21246
3.2102
3.21327
3.21348
3.21264
3.25125
3.24454
3.24546
3.23736
3.20141
3.20294
3.21107
3.20915
3.21479
3.21507
3.22067
3.22638
3.22288
3.22802
3.21361
3.22231
3.21883
3.21971
3.23949
3.22616
3.22635
3.22002
3.22966
3.23629
3.22929
3.2324
3.23561
3.23205
3.23484
3.24523
3.25016
3.24974
3.25694
3.25729
3.25213
3.2645
3.26675
3.26642
3.25508
3.26906
3.26826
3.30865
3.2582
3.25338
3.25649
3.20396
3.20545
3.20077
3.20656
3.19945
3.20241
3.20156
3.20278
3.20595
3.20841
3.20516
3.20629
3.20853
3.20711
3.20724
3.20679
3.27721
3.26118
3.27597
3.2713
3.27351
3.26704
3.27002
3.27895
3.28152
3.2099
3.20997
3.21641
3.21625
3.21554
3.22275
3.22138
3.21745
3.22891
3.23199
3.22221
3.2366
3.23197
3.21166
3.21472
3.20814
3.20724
3.20496
3.20687
3.30009
3.2912
3.30821
3.30378
3.30753
3.22322
3.22684
3.22775
3.22565
3.27886
3.28292
3.27904
3.23285
3.22871
3.23251
3.22596
3.22255
3.22707
3.22169
3.22314
3.21773
3.22611
3.20655
3.20654
3.20103
3.1967
3.20278
3.199
3.20347
3.20484
3.20542
3.21025
3.20702
3.20497
3.20911
3.2096
3.20324
3.2067
3.33111
3.32665
3.31636
3.30604
3.28967
3.31037
3.31036
3.306
3.30735
3.29958
3.29103
3.29966
3.31014
3.3047
3.21757
3.21863
3.21842
3.21833
3.21976
3.22304
3.22175
3.22184
3.2234
3.21938
3.22027
3.23856
3.23778
3.2375
3.23528
3.23852
3.23788
3.23292
3.2312
3.2337
3.22838
3.24447
3.23996
3.23248
3.24264
3.23594
3.23541
3.2355
3.24011
3.23521
3.22947
3.23166
3.2388
3.28682
3.28852
3.28103
3.29698
3.29447
3.28847
3.28834
3.29513
3.29232
3.30357
3.30781
3.29912
3.30695
3.30844
3.30157
3.29588
3.28937
3.29336
3.32666
3.31514
3.33465
3.33176
3.30971
3.32636
3.31872
3.31325
3.31908
3.32774
3.31982
3.31811
3.31169
3.28168
3.27167
3.29452
3.28862
3.28335
3.28201
3.27696
3.27073
3.2937
3.29617
3.29401
3.23481
3.23609
3.23727
3.23282
3.23415
3.2325
3.23222
3.23752
3.23861
3.20893
3.21292
3.21337
3.21413
3.21046
3.21052
3.21656
3.21202
3.21453
3.21813
3.25276
3.24782
3.25369
3.26361
3.25737
3.26647
3.26279
3.26488
3.26122
3.24807
3.24585
3.24838
3.248
3.24633
3.2488
3.246
3.35094
3.3487
3.34755
3.33554
3.3359
3.35243
3.3635
3.34159
3.33506
3.32962
3.34635
3.34196
3.3609
3.35107
3.29566
3.29377
3.29861
3.28955
3.29819
3.2977
3.28714
3.27863
3.33716
3.32738
3.32697
3.32164
3.33398
3.32741
3.33249
3.26765
3.25595
3.27821
3.27605
3.27503
3.26162
3.25068
3.27932
3.27863
3.26568
3.26816
3.3632
3.38916
3.37957
3.38473
3.37156
3.24477
3.24245
3.26086
3.25311
3.25991
3.26467
3.26185
3.25431
3.25989
3.29704
3.31007
3.31487
3.29514
3.31082
3.30224
3.31392
3.31676
3.29532
3.29049
3.31028
3.30673
3.31054
3.30894
3.30995
3.30905
3.28813
3.28555
3.40971
3.38751
3.40815
3.40375
3.41615
3.41331
3.40567
3.39342
3.41093
3.39944
3.25663
3.25267
3.25058
3.25613
3.25679
3.25281
3.25367
3.24579
3.25066
3.25229
3.24957
3.24885
3.25531
3.25514
3.25792
3.258
3.25677
3.25009
3.2481
3.25281
3.25511
3.36054
3.35763
3.36475
3.37528
3.38123
3.37351
3.36781
3.36171
3.36933
3.37489
3.37053
3.38422
3.38706
3.4488
3.45611
3.42937
3.4591
3.43991
3.4588
3.45716
3.44131
3.46932
3.25164
3.25641
3.2561
3.25608
3.25164
3.25285
3.25199
3.25118
3.25862
3.2584
3.25986
3.25568
3.25719
3.32812
3.33975
3.34061
3.34428
3.3302
3.31842
3.34627
3.33935
3.43712
3.44042
3.43975
3.44031
3.43494
3.43135
3.43103
3.44448
3.43883
3.42686
3.42348
3.43333
3.40711
3.40192
3.39041
3.37513
3.40692
3.38717
3.39119
3.38736
3.39308
3.38741
3.39763
3.40386
3.38973
3.3988
3.40508
3.40133
3.42114
3.42004
3.41805
3.4011
3.41295
3.39607
3.42387
3.42609
3.36609
3.38122
3.37509
3.39211
3.39146
3.39233
3.36018
3.36536
3.39927
3.39671
3.39159
3.38703
3.38336
3.37815
3.37888
3.38499
3.26837
3.26839
3.26555
3.27082
3.26565
3.2654
3.26515
3.4586
3.45105
3.47538
3.46929
3.4651
3.45789
3.45494
3.44913
3.47292
3.46115
3.46447
3.47602
3.46245
3.45702
3.47561
3.46687
3.45657
3.46636
3.29038
3.29449
3.30384
3.3015
3.29759
3.29601
3.2997
3.30216
3.29627
3.304
3.30394
3.30041
3.41605
3.40596
3.40909
3.38827
3.4053
3.38561
3.35059
3.32751
3.3616
3.36185
3.36684
3.36989
3.3794
3.35773
3.34517
3.52279
3.53482
3.52286
3.51202
3.50234
3.51577
3.51584
3.52238
3.5142
3.48559
3.46417
3.48849
3.49618
3.48964
3.48176
3.4722
3.47025
3.47614
3.49898
3.48906
3.46205
3.46976
3.46734
3.45141
3.43212
3.45737
3.45704
3.3487
3.35983
3.37731
3.3819
3.36046
3.34696
3.39494
3.39174
3.44103
3.45522
3.44012
3.42387
3.44646
3.43877
3.43083
3.41791
3.40691
3.41569
3.353
3.36073
3.33868
3.33331
3.33224
3.32621
3.34663
3.34502
3.33963
3.33028
3.50224
3.50327
3.49995
3.51279
3.4987
3.52239
3.51458
3.29996
3.29689
3.30189
3.30041
3.45896
3.42331
3.41807
3.3923
3.37915
3.39278
3.40368
3.39605
3.3391
3.3376
3.33288
3.34079
3.342
3.32995
3.31454
3.33245
3.31542
3.33786
3.32406
3.31784
3.24574
3.23714
3.23694
3.23668
3.23505
3.24775
3.24791
3.25032
3.25087
3.25
3.31318
3.31475
3.31263
3.31489
3.32136
3.31076
3.30594
3.32681
3.322
3.32595
3.32652
3.32305
3.32832
3.3257
3.27616
3.28164
3.27581
3.27802
3.27975
3.28108
3.28134
3.28176
3.27809
3.27712
3.27995
3.27791
3.27585
3.29328
3.29329
3.29708
3.34361
3.36355
3.36012
3.33341
3.33557
3.32974
3.33807
3.34439
3.33327
3.33472
3.32969
3.32366
3.31443
3.29647
3.29511
3.3064
3.30258
3.29694
3.31034
3.3121
3.31087
3.32139
3.29965
3.29906
3.29031
3.47492
3.45593
3.43449
3.47155
3.46661
3.47705
3.45342
3.45526
3.46023
3.45917
3.44885
3.45231
3.44529
3.48188
3.49088
3.35025
3.3441
3.34702
3.32082
3.32218
3.33745
3.32279
3.32741
3.29668
3.28752
3.29154
3.2825
3.28734
3.28905
3.28849
3.28829
3.30704
3.29374
3.29323
3.29271
3.43785
3.44106
3.43539
3.43642
3.45693
3.47303
3.46378
3.46421
3.4713
3.45046
3.44083
3.47233
3.49231
3.47695
3.47619
3.50335
3.49617
3.46855
3.4817
3.48124
3.29117
3.2919
3.29756
3.2944
3.29691
3.29554
3.29592
3.28981
3.29041
3.29436
3.28933
3.29223
3.29808
3.29162
3.29204
3.28909
3.2901
3.29317
3.28574
3.28668
3.29082
3.43113
3.41355
3.42236
3.44033
3.45853
3.44487
3.44238
3.43925
3.42985
3.4515
3.28459
3.2836
3.27876
3.2842
3.28415
3.28307
3.28421
3.2784
3.27914
3.37574
3.43574
3.4213
3.40321
3.40912
3.43095
3.4488
3.43349
3.446
3.42698
3.41953
3.41469
3.40133
3.33507
3.33685
3.34787
3.3396
3.32755
3.3211
3.35467
3.35389
3.36855
3.36788
3.37267
3.36157
3.35723
3.28744
3.28585
3.28352
3.28267
3.2781
3.2863
3.50211
3.28197
3.28417
3.28566
3.28386
3.28391
3.28793
3.28549
3.28225
3.28358
3.28432
3.28296
3.28692
3.31668
3.3093
3.31698
3.32355
3.31116
3.30708
3.3194
3.31502
3.3041
3.30575
3.2891
3.29893
3.30411
3.28429
3.29273
3.28932
3.29847
3.33735
3.31536
3.32481
3.32171
3.32521
3.32059
3.34621
3.34942
3.32118
3.33428
3.33803
3.28337
3.28272
3.28754
3.28479
3.28496
3.28932
3.28934
3.28822
3.28976
3.28858
3.45138
3.44156
3.44511
3.44638
3.4389
3.4402
3.43132
3.42238
3.45139
3.44712
3.43405
3.43611
3.44566
3.27288
3.27279
3.2704
3.27083
3.27483
3.27671
3.27594
3.27571
3.2752
3.2738
3.27602
3.45317
3.43006
3.4388
3.46754
3.47463
3.46268
3.46306
3.45473
3.45572
3.45145
3.44579
3.49325
3.49469
3.485
3.48983
3.48529
3.48417
3.48175
3.49046
3.27079
3.27625
3.27319
3.32985
3.28009
3.29343
3.30181
3.28854
3.2895
3.28639
3.28339
3.3014
3.30398
3.28034
3.27947
3.2728
3.28501
3.28092
3.28057
3.27584
3.27747
3.27402
3.2722
3.27266
3.27296
3.27666
3.41641
3.42862
3.43148
3.41249
3.42096
3.42785
3.43094
3.43932
3.43381
3.42097
3.44226
3.44769
3.31651
3.29381
3.30841
3.30035
3.30826
3.30794
3.30855
3.31972
3.35687
3.37302
3.36989
3.36001
3.36883
3.37492
3.38154
3.36081
3.26328
3.25899
3.26162
3.25793
3.26067
3.26124
3.25781
3.25881
3.25681
3.25659
3.25667
3.25586
3.25708
3.2638
3.26125
3.26101
3.26156
3.26105
3.25906
3.26125
3.25392
3.25611
3.25472
3.25043
3.26118
3.26117
3.25718
3.26054
3.26582
3.26645
3.26236
3.26655
3.26263
3.26935
3.26785
3.2703
3.26947
3.27178
3.2686
3.26979
3.26963
3.26567
3.26561
3.26685
3.26548
3.26416
3.26077
3.26419
3.35674
3.36286
3.35476
3.34628
3.32881
3.34549
3.33725
3.34837
3.35335
3.33807
3.32479
3.33213
3.32479
3.32481
3.40417
3.43626
3.43279
3.43861
3.44327
3.44979
3.44503
3.44672
3.4503
3.44023
3.4153
3.41457
3.28871
3.2784
3.29094
3.29697
3.30396
3.31409
3.3331
3.32863
3.33392
3.34708
3.32896
3.34092
3.31918
3.32804
3.32823
3.30397
3.30541
3.30794
3.29925
3.32248
3.32472
3.30064
3.29451
3.29465
3.2981
3.29462
3.25901
3.2565
3.25704
3.25661
3.25794
3.25293
3.25763
3.25761
3.25347
3.25704
3.25283
3.25233
3.25401
3.25261
3.25881
3.25763
3.25034
3.25676
3.25616
3.25665
3.25734
3.26123
3.25785
3.259
3.26084
3.26481
3.26119
3.26267
3.26153
3.26392
3.26208
3.26275
3.32438
3.31727
3.33034
3.33411
3.32178
3.3337
3.33421
3.22642
3.23271
3.23512