/*--------------------------------*- C++ -*----------------------------------*\
| =========                 |                                                 |
| \\      /  F ield         | OpenFOAM: The Open Source CFD Toolbox           |
|  \\    /   O peration     | Version:  v1612+                                |
|   \\  /    A nd           | Web:      www.OpenFOAM.com                      |
|    \\/     M anipulation  |                                                 |
\*---------------------------------------------------------------------------*/
FoamFile
{
    version     2.0;
    format      ascii;
    class       volVectorField;
    location    "150";
    object      wallShearStress;
}
// * * * * * * * * * * * * * * * * * * * * * * * * * * * * * * * * * * * * * //

dimensions      [0 2 -2 0 0 0 0];

internalField   uniform (0 0 0);

boundaryField
{
    WALL
    {
        type            calculated;
        value           nonuniform List<vector> 
1668
(
(0.00636619 -0.00177109 0.00567065)
(0.00605808 -0.0027008 0.00534504)
(0.00762151 -0.00107596 0.00660423)
(0.00648079 -0.00163608 0.00549796)
(0.0266293 -0.00783066 0.0235184)
(0.025307 -0.0117754 0.0203396)
(0.0262566 -0.00743691 0.0198282)
(0.0260045 -0.00941115 0.0183037)
(0.0296385 -0.0118608 0.00761425)
(0.031526 -0.0117405 0.00693003)
(0.0261151 -0.0161579 0.018657)
(0.0210656 -0.0114233 0.0184725)
(0.0191873 -0.00338 0.00433964)
(0.0238873 -0.0022646 0.00542513)
(0.0234889 -0.00459282 0.0172584)
(0.0248772 -0.00616471 0.0184004)
(0.0170354 -0.00637178 0.00329019)
(0.0203746 -0.00675921 0.00400799)
(0.011527 -0.00856255 0.0025113)
(0.0266165 -0.00236952 0.00569267)
(0.0310239 -0.0108528 0.00456099)
(0.0318857 -0.00828104 0.00453362)
(0.00863982 -0.00394186 0.00768315)
(0.00771162 -0.00436134 0.00822371)
(0.0085211 0.000369202 0.00722479)
(0.0101936 0.0016172 0.00812978)
(0.0066968 -0.00199964 0.00540899)
(0.00611809 -0.00182413 0.00550732)
(0.00643618 -0.00185384 0.00554423)
(0.00627419 -0.00144741 0.00550263)
(0.00575367 -0.00407072 0.0045025)
(0.00573886 -0.00386195 0.00435138)
(0.027695 -0.00648239 0.0202057)
(0.0245821 -0.00763943 0.0179201)
(0.0247337 -0.00805131 0.0173367)
(0.0214985 -0.00915625 0.0146668)
(0.0230473 -0.00636171 0.0158967)
(0.02452 -0.00309458 0.0162571)
(0.0241339 -0.00182191 0.0160884)
(0.0275288 -0.00425176 0.0191617)
(0.0260631 -0.00465495 0.0186809)
(0.0282257 -0.0126161 0.022299)
(0.0260977 -0.0139582 0.0197811)
(0.00778343 -0.0030311 0.00555141)
(0.00721023 -0.00293496 0.00529912)
(0.00835626 -0.00339623 0.00524224)
(0.00889463 -0.00331 0.00503328)
(0.00718243 -0.002815 0.00536122)
(0.00825229 -0.00309983 0.00513644)
(0.027027 -0.00178819 0.00742679)
(0.0284795 -0.0015572 0.00837431)
(0.0252309 -0.00127466 0.00624539)
(0.0278906 -0.000128099 0.00828916)
(0.0288531 -0.00120699 0.0102041)
(0.0301845 -0.000579536 0.010298)
(0.0249465 -0.0128457 0.0203739)
(0.0263634 -0.0136638 0.0201876)
(0.0248473 -0.0137999 0.019023)
(0.0261893 -0.0143516 0.0196101)
(0.0267459 -0.0130561 0.0197528)
(0.0261126 -0.00641156 0.0182231)
(0.0251609 -0.00341905 0.0174826)
(0.0238578 -0.00389212 0.016004)
(0.0262193 -0.00321787 0.0167786)
(0.0255225 -0.00296844 0.0186154)
(0.025828 -0.00303739 0.0172886)
(0.026489 -6.01722e-06 0.0116852)
(0.0267183 -0.000702164 0.0108841)
(0.0262522 -0.00152324 0.0112889)
(0.0285386 -0.0013956 0.0105816)
(0.0272204 -0.0015287 0.0126563)
(0.0269585 -0.0015435 0.0104229)
(0.0228976 -0.00614912 0.0160332)
(0.0218306 -0.00635067 0.015303)
(0.0136001 -0.00471217 0.00289756)
(0.0150512 -0.00502711 0.00278662)
(0.0103518 -0.00493616 0.00329482)
(0.011522 -0.00503704 0.00266218)
(0.0125875 -0.00505105 0.00266483)
(0.011548 -0.00473031 0.00318349)
(0.0258205 -0.00109378 0.00583655)
(0.0262467 -0.00254982 0.00654579)
(0.0247673 -0.00315895 0.00553233)
(0.0249922 -0.00378046 0.00509389)
(0.0229473 -0.00377839 0.00450193)
(0.0275866 -0.00208081 0.00773781)
(0.0132448 -0.0067645 0.0024763)
(0.0123065 -0.00659551 0.00235175)
(0.010195 -0.0064271 0.00257145)
(0.0114486 -0.00670731 0.00252665)
(0.0113902 -0.00638336 0.00231239)
(0.0110946 -0.00693727 0.00249747)
(0.00599203 -0.00384227 0.0060869)
(0.00639981 -0.00276403 0.00635234)
(0.006277 -0.00372489 0.00602334)
(0.00711665 -0.00350828 0.00667773)
(0.00616324 -0.00383232 0.00645138)
(0.006824 -0.00396877 0.00688548)
(0.0126515 -0.00080551 0.00844599)
(0.0148964 0.00111723 0.00888337)
(0.0157147 0.0013621 0.00888334)
(0.0119014 -0.00118007 0.00861646)
(0.0130493 0.000204892 0.00888633)
(0.0173432 0.0015088 0.00927615)
(0.0152151 0.000667957 0.0089549)
(0.0203169 -0.00324212 0.00491179)
(0.0173184 -0.00320383 0.00413269)
(0.0133685 -0.00400377 0.00394827)
(0.017739 -0.00422012 0.00451665)
(0.0157278 -0.00406207 0.0043811)
(0.0147477 -0.00448082 0.00422102)
(0.0148952 -0.00166902 0.00990549)
(0.016249 -0.00275895 0.0106532)
(0.0131496 -0.00274179 0.0103451)
(0.0133408 -0.00273527 0.00996142)
(0.0140828 -0.00289506 0.0101488)
(0.0125773 -0.00345129 0.0103601)
(0.00643941 -0.00226448 0.00526069)
(0.00625007 -0.00208751 0.00547101)
(0.00640256 -0.00262132 0.00506758)
(0.00639382 -0.00257504 0.00516398)
(0.00603585 -0.00224211 0.00511349)
(0.00624507 -0.00191041 0.00556075)
(0.00611907 -0.0026933 0.00525998)
(0.00720231 -0.00145796 0.00649782)
(0.00712214 -0.00248919 0.00622944)
(0.0071077 -0.00192367 0.0060265)
(0.00662324 -0.00298908 0.00575256)
(0.0060885 -0.00229839 0.00532448)
(0.0266088 -0.0146243 0.0106286)
(0.023094 -0.0134867 0.0117201)
(0.0273669 -0.0142581 0.0114777)
(0.0257329 -0.014229 0.0131541)
(0.0262111 -0.013881 0.010265)
(0.0265704 -0.0142234 0.0129068)
(0.0277837 -0.011364 0.00230368)
(0.0199572 -0.0128018 0.00340507)
(0.0249616 -0.0131269 0.00441922)
(0.0224644 -0.011063 0.00241186)
(0.0227031 -0.0141586 0.00427642)
(0.026567 -0.0102899 0.0024473)
(0.00747504 -0.00291063 0.0105299)
(0.00702029 -0.00314158 0.0113939)
(0.00720128 -0.00239735 0.0111823)
(0.00703326 -0.00315309 0.0108026)
(0.00777367 -0.00189926 0.0101741)
(0.00784263 -0.0024045 0.0110202)
(0.0226633 -0.0111763 0.0165342)
(0.0255065 -0.0123859 0.0150393)
(0.024842 -0.0130545 0.0149366)
(0.0257093 -0.0120974 0.0164695)
(0.0243945 -0.0115759 0.0171389)
(0.0261357 -0.0134593 0.0146745)
(0.0269285 -0.0136989 0.00812386)
(0.0262131 -0.0129187 0.00850116)
(0.0262097 -0.0110474 0.00608225)
(0.026853 -0.0122424 0.00656273)
(0.0275192 -0.0136905 0.00728062)
(0.0271938 -0.0119755 0.00746607)
(0.0239136 -0.00918687 0.0160234)
(0.0250221 -0.0102934 0.016893)
(0.0236042 -0.00750353 0.0182913)
(0.0242298 -0.00817944 0.0177259)
(0.0251327 -0.00995497 0.0171845)
(0.0217081 -0.00876129 0.0165808)
(0.0205153 -0.0078981 0.0143657)
(0.0223827 -0.00993412 0.0148763)
(0.0249922 -0.0110472 0.0165849)
(0.0236506 -0.0103247 0.0140342)
(0.0250884 -0.0106366 0.0143258)
(0.0251896 -0.00606942 0.0190068)
(0.0255933 -0.00702414 0.0199118)
(0.0270794 -0.00861875 0.0201881)
(0.0251238 -0.00647605 0.0191041)
(0.0258071 -0.00719414 0.0185078)
(0.00866542 -0.000144895 0.00711022)
(0.00924575 0.000642872 0.00730973)
(0.0130151 0.00262392 0.00971522)
(0.0124469 0.00122311 0.00873764)
(0.00987637 -0.000149767 0.00739551)
(0.010559 0.00174489 0.00820771)
(0.0107051 -0.00013382 0.00864177)
(0.010941 0.000992913 0.00828244)
(0.00935964 -0.000735079 0.00778293)
(0.00937994 6.30256e-05 0.00826238)
(0.0124326 0.000106962 0.00899653)
(0.00976292 1.27987e-05 0.00771765)
(0.0073887 -0.00237707 0.00673479)
(0.00767278 -0.00366347 0.00784363)
(0.00757805 -0.00350344 0.00712009)
(0.00609359 -0.00410487 0.00582)
(0.00599393 -0.00321341 0.00612735)
(0.00618826 -0.0036079 0.00543313)
(0.00637259 -0.00305909 0.00580718)
(0.00581791 -0.00263462 0.00529869)
(0.00579292 -0.00289036 0.00524255)
(0.00583513 -0.00276024 0.00515912)
(0.00600281 -0.00314421 0.00502008)
(0.00615793 -0.00315748 0.0052684)
(0.00567445 -0.00284039 0.00490213)
(0.00572335 -0.00357154 0.00453691)
(0.00584337 -0.00377438 0.00440794)
(0.00579909 -0.00383706 0.00421514)
(0.00583728 -0.00381885 0.00467442)
(0.00596268 -0.00379112 0.00442695)
(0.00626775 -0.00195467 0.00556645)
(0.00648 -0.00268279 0.00514301)
(0.00639792 -0.00314304 0.00505886)
(0.0066442 -0.00246722 0.0055581)
(0.00609691 -0.0026351 0.00520069)
(0.00634153 -0.00308391 0.00514185)
(0.00667387 -0.00245122 0.00537705)
(0.00629415 -0.0022188 0.0053611)
(0.00717115 -0.00287475 0.00537643)
(0.00668557 -0.0027364 0.00525715)
(0.0063599 -0.00236079 0.00530676)
(0.00771254 -0.00329553 0.00542103)
(0.00777706 0.000422156 0.00695687)
(0.00805915 -0.000353841 0.00690116)
(0.00728728 -0.000876039 0.0061453)
(0.00774572 -0.00102949 0.00716104)
(0.00670135 -0.00121631 0.0060159)
(0.00810573 -0.000582352 0.00703552)
(0.0258801 -0.0099636 0.00497205)
(0.0263517 -0.0105116 0.00445988)
(0.0266621 -0.00861381 0.00571608)
(0.0274888 -0.00708809 0.00479487)
(0.027072 -0.00889694 0.00435832)
(0.0262671 -0.00679387 0.00552058)
(0.0070874 -0.00439006 0.00816775)
(0.00643454 -0.00483782 0.00745989)
(0.0062423 -0.00404091 0.00652609)
(0.00717532 -0.00370963 0.00759484)
(0.00609338 -0.00463235 0.00667007)
(0.024993 -0.00396767 0.00660673)
(0.0265086 -0.00377045 0.00696884)
(0.0263235 -0.00278672 0.00831045)
(0.0272535 -0.00413803 0.0061633)
(0.0241005 -0.00375729 0.00794454)
(0.0227585 -0.0024346 0.00811577)
(0.0238485 -0.00579047 0.00883267)
(0.0245077 -0.00602379 0.00768931)
(0.0103717 -0.00424498 0.00992545)
(0.00928332 -0.00351796 0.00980903)
(0.0105757 -0.00371439 0.00961777)
(0.00853378 -0.00401201 0.0090868)
(0.00922454 -0.00416898 0.00957025)
(0.00981585 -0.00396053 0.00967714)
(0.0133327 -0.00389377 0.0104737)
(0.0159237 -0.00369355 0.0112646)
(0.0131038 -0.00460636 0.0113236)
(0.00866469 -0.00264856 0.00835026)
(0.0106355 -0.00292832 0.00921274)
(0.00959 -0.00234808 0.00766311)
(0.00864683 -0.00252983 0.00767447)
(0.00703843 -0.00323783 0.00735813)
(0.00727871 -0.00307715 0.00711627)
(0.0125936 -0.000744681 0.00868612)
(0.0147175 -0.00176715 0.00959387)
(0.0123779 -0.0013808 0.00875059)
(0.0135691 -0.000150197 0.00856015)
(0.0112845 -0.00193645 0.008224)
(0.0150629 -0.000788464 0.00870349)
(0.0235693 -0.0132406 0.00479549)
(0.0212714 -0.01368 0.00434872)
(0.0118808 -0.0136237 0.00958923)
(0.0129661 -0.0136713 0.00758756)
(0.0096712 -0.0113904 0.0108069)
(0.011184 -0.0122388 0.00813158)
(0.0109971 -0.0120689 0.00948259)
(0.00980489 -0.0117793 0.0103183)
(0.0230742 -0.00322199 0.0053906)
(0.0210361 -0.00398187 0.00465388)
(0.0226786 -0.00426127 0.00491734)
(0.0240114 -0.00186338 0.00577025)
(0.0254228 -0.00257767 0.0066358)
(0.0230497 -0.00287241 0.0052213)
(0.0142447 -0.00423283 0.0028827)
(0.0163735 -0.00476418 0.0037801)
(0.0148116 -0.00493069 0.00357003)
(0.01773 -0.00454122 0.00328817)
(0.0128702 -0.00491188 0.00340396)
(0.0120657 -0.00449907 0.00316219)
(0.00772475 -0.00374176 0.00389988)
(0.0111072 -0.0043825 0.00390242)
(0.0102644 -0.00412785 0.00407248)
(0.0091938 -0.00408235 0.00400379)
(0.00839738 -0.00403604 0.0040598)
(0.00977823 -0.00420293 0.00376488)
(0.0111424 -0.00414033 0.00427566)
(0.0101569 -0.00429539 0.00460558)
(0.0135221 -0.00435162 0.00466629)
(0.0125522 -0.00389897 0.00471379)
(0.00949058 -0.00395322 0.00466964)
(0.0114396 -0.00414766 0.00499615)
(0.00637319 -0.00217497 0.00538163)
(0.00624403 -0.00161166 0.00555665)
(0.0063008 -0.00210737 0.00565434)
(0.00622089 -0.00177464 0.0054307)
(0.0064098 -0.00204515 0.00558684)
(0.00646947 -0.00147094 0.0056797)
(0.00676343 -4.32889e-05 0.00627598)
(0.00685458 -0.000775258 0.0064744)
(0.00680101 -0.000641842 0.00618526)
(0.00644547 -0.000951659 0.00595987)
(0.00768741 -0.000896286 0.00662728)
(0.00678396 -0.00128377 0.00573651)
(0.00759043 0.00049736 0.00712753)
(0.00807377 -0.000828373 0.00681371)
(0.00814225 -0.000234046 0.00753984)
(0.00974326 0.00104153 0.00772439)
(0.0115002 0.00126384 0.00946948)
(0.00842616 1.83285e-05 0.00738475)
(0.009596 0.00118341 0.00842805)
(0.0112832 0.00172532 0.00920187)
(0.0292066 0.000730677 0.00705643)
(0.0240776 0.00390662 0.00744137)
(0.0284407 0.00125182 0.00912671)
(0.0249366 0.00234268 0.00750998)
(0.0274328 -0.00128143 0.00790238)
(0.0264772 0.00258946 0.00645257)
(0.0250751 0.00380845 0.00754595)
(0.0227377 0.00351532 0.0075926)
(0.0243362 0.00246414 0.00808779)
(0.0260556 0.00163359 0.00646362)
(0.0260655 0.00201954 0.00721727)
(0.0251414 0.0023579 0.00669975)
(0.0145951 0.00358271 0.00898511)
(0.016399 0.00425769 0.00919227)
(0.0123358 0.00238118 0.00800415)
(0.0143947 0.0031568 0.00879372)
(0.0170845 0.00337468 0.00903199)
(0.0269114 -0.00918051 0.00611102)
(0.0287787 -0.0106415 0.0078768)
(0.0282278 -0.00993069 0.00742021)
(0.0286495 -0.0074825 0.00662902)
(0.0293065 -0.00903716 0.00795318)
(0.0282672 -0.00769743 0.00538694)
(0.0305574 -0.0105099 0.00639316)
(0.028702 -0.0127323 0.00676548)
(0.0315091 -0.00912236 0.00602294)
(0.0290976 -0.00838607 0.0057509)
(0.0282443 -0.00966364 0.00480773)
(0.0266036 -0.00821887 0.00503793)
(0.0274875 -0.00168001 0.00667458)
(0.0247807 0.000887278 0.00705791)
(0.0267271 7.31605e-05 0.00636592)
(0.0254022 -9.96471e-05 0.00694158)
(0.0261458 0.00124111 0.00676518)
(0.0261003 -0.00106758 0.00597948)
(0.0264208 -0.000110586 0.00679457)
(0.0250225 -0.000739582 0.0060848)
(0.025612 -0.00052035 0.00681415)
(0.0251844 -0.0019383 0.00600113)
(0.0260342 -0.00314034 0.0068094)
(0.0259787 -0.00194804 0.00650045)
(0.0240912 0.00129926 0.00746635)
(0.0243656 0.00324876 0.00967499)
(0.0228732 0.00268045 0.00853488)
(0.0223755 0.00341217 0.00716392)
(0.0235596 0.00220674 0.00678469)
(0.0232847 0.00191655 0.00777653)
(0.0166659 0.00196699 0.0100996)
(0.0151094 0.00401068 0.00935453)
(0.0176332 0.00387525 0.00873235)
(0.0168151 0.00421579 0.00972074)
(0.0196515 0.00468082 0.00896017)
(0.0183893 0.00314808 0.00946328)
(0.00631688 -0.0030398 0.00429843)
(0.00770841 -0.00404846 0.00473313)
(0.00687795 -0.00386356 0.00484073)
(0.00711015 -0.00360104 0.00484886)
(0.00655442 -0.0031613 0.00482232)
(0.00700605 -0.00337694 0.00427789)
(0.00771453 -0.00430353 0.00457693)
(0.00710291 -0.00451276 0.00449268)
(0.00634444 -0.00417694 0.00418438)
(0.00634988 -0.00414549 0.0044132)
(0.00685586 -0.00441986 0.00404155)
(0.00704983 -0.00445868 0.00438306)
(0.00708462 -0.00449255 0.00393215)
(0.00577603 -0.00315211 0.00466547)
(0.00631779 -0.0036805 0.00468909)
(0.00653534 -0.00354383 0.00511087)
(0.00615131 -0.00316654 0.00510906)
(0.00642462 -0.00380274 0.00451988)
(0.00600914 -0.00319073 0.00510078)
(0.0300135 -0.00297695 0.00579994)
(0.0286817 0.000911845 0.00659046)
(0.0276513 0.000853794 0.00716711)
(0.029291 0.000540577 0.00447535)
(0.0279599 0.000239413 0.00624878)
(0.0295144 -0.00195903 0.00637748)
(0.0299529 -0.00193074 0.00545661)
(0.0297071 -9.78374e-05 0.00727487)
(0.0315253 -0.00355449 0.00607907)
(0.0291208 -0.000726707 0.00620025)
(0.030518 -0.00266881 0.00648164)
(0.0313279 9.22879e-05 0.00725618)
(0.0323162 -0.00819002 0.00446869)
(0.0322102 -0.00854021 0.0050759)
(0.0317146 -0.00709434 0.00422545)
(0.0323322 -0.0107905 0.00471536)
(0.0320836 -0.010274 0.005653)
(0.00891241 -0.00325164 0.00785455)
(0.00943528 -0.00163568 0.0082201)
(0.0108238 -0.00168698 0.00894716)
(0.00729258 -0.00303093 0.00695153)
(0.0103658 -0.00209168 0.0084467)
(0.00782194 -0.00199748 0.00702125)
(0.0233266 0.00302278 0.00823985)
(0.0256637 0.0028586 0.00786343)
(0.0267586 0.00166398 0.00796792)
(0.0216382 0.00189948 0.00911601)
(0.0241512 0.00277757 0.00985479)
(0.0239705 0.00175645 0.00798846)
(0.0272082 -0.00211079 0.00573822)
(0.028668 -0.00278546 0.0050599)
(0.0267763 9.14864e-05 0.00646687)
(0.0278477 -0.00147584 0.00530058)
(0.0233012 0.000185871 0.00676083)
(0.0255081 -0.00137542 0.0068257)
(0.0245183 0.00142735 0.00816405)
(0.0208728 0.00107249 0.00899355)
(0.0175671 0.000823211 0.00863275)
(0.0226729 0.00176578 0.00806052)
(0.0194459 0.00119636 0.00875062)
(0.0214191 0.00112893 0.00839073)
(0.0273059 -0.00363722 0.00624435)
(0.028902 -0.00665656 0.00676972)
(0.0294731 -0.00595897 0.00687143)
(0.0271877 -0.00590977 0.00622889)
(0.0287038 -0.00357226 0.0059448)
(0.0276693 -0.00490477 0.00674308)
(0.0129499 -0.00854393 0.00242239)
(0.0136137 -0.00850961 0.00335955)
(0.01498 -0.00893825 0.00233547)
(0.0106145 -0.00859343 0.00314821)
(0.0115167 -0.00847969 0.00357816)
(0.0213166 -0.00326961 0.00410933)
(0.0236348 -0.00472867 0.00480926)
(0.025515 -0.00347306 0.00647698)
(0.0200578 -0.00541168 0.00467707)
(0.0236062 -0.0061363 0.00500463)
(0.0249667 -0.00508621 0.00659891)
(0.0265121 -0.00508188 0.0078619)
(0.0286927 -0.00172964 0.0063456)
(0.0254676 -0.00177955 0.00550607)
(0.0272404 -0.000472571 0.00698116)
(0.0281435 -0.00185584 0.00826227)
(0.0243845 -0.00132572 0.00428849)
(0.0293064 0.000910978 0.00792275)
(0.026282 -0.00184152 0.0115462)
(0.0246528 -0.00381519 0.00869311)
(0.0251222 -0.00290083 0.00990919)
(0.0268708 -0.0019421 0.0126554)
(0.0258847 -0.00358448 0.0102627)
(0.0247295 -0.00221207 0.010858)
(0.0277321 -0.00127465 0.00961791)
(0.0262437 -0.000837023 0.0106562)
(0.0281646 0.00132471 0.0110747)
(0.0275296 -0.0020397 0.00891161)
(0.0286447 -0.000740954 0.0102868)
(0.0285362 -0.000604319 0.0133917)
(0.0246708 -0.00304705 0.00470071)
(0.0230761 -0.00329059 0.00481093)
(0.0177286 -0.00377977 0.00280759)
(0.0190962 -0.00423028 0.00339384)
(0.0212919 -0.00307572 0.00340464)
(0.0208856 -0.00369793 0.00359272)
(0.0132974 -0.00663771 0.00317533)
(0.0128066 -0.00557234 0.00298097)
(0.0115636 -0.00605307 0.00350519)
(0.0117199 -0.00649287 0.00304415)
(0.0143788 -0.00616776 0.00298279)
(0.0107322 -0.00632876 0.00346362)
(0.0178809 -0.00439385 0.00276119)
(0.0195438 -0.00339393 0.00286046)
(0.0211787 -0.00373818 0.00368446)
(0.0186859 -0.00470902 0.00343314)
(0.0161425 -0.00501222 0.00288591)
(0.0172942 -0.0054199 0.00318528)
(0.0245499 -0.00984565 0.013855)
(0.0247056 -0.00901908 0.0155536)
(0.024278 -0.00907053 0.0149958)
(0.023021 -0.00888701 0.0136592)
(0.024405 -0.00991111 0.0132898)
(0.0257454 -0.00987644 0.0154477)
(0.0244732 -0.00442688 0.0174763)
(0.0207287 -0.00545618 0.0153474)
(0.0225882 -0.00337688 0.0165907)
(0.0232819 -0.00540681 0.0172056)
(0.0256118 -0.0073539 0.0174066)
(0.0246209 -0.00614908 0.0170723)
(0.0232768 -0.00265953 0.0176494)
(0.0274398 -0.00331912 0.0201433)
(0.0230506 -0.000967779 0.0111728)
(0.0226765 0.000162811 0.00979362)
(0.023623 1.7422e-05 0.0124038)
(0.0233686 0.000468457 0.0106824)
(0.0209106 -0.000887636 0.00942772)
(0.025654 6.52557e-06 0.0127871)
(0.0233646 0.000261186 0.0151598)
(0.0232772 -0.0015654 0.0145319)
(0.0231633 0.00116408 0.0125268)
(0.0253315 0.000125322 0.0161463)
(0.0243004 -0.000799234 0.0141936)
(0.0275647 -0.000197144 0.0157329)
(0.0246999 -0.00114176 0.0110184)
(0.0261075 -0.000643473 0.0109766)
(0.0226458 -0.00097253 0.00828616)
(0.023747 -0.0015351 0.00914403)
(0.0252105 -0.00125874 0.0102003)
(0.0232452 -0.000153 0.00903783)
(0.0262912 -0.0017955 0.00984689)
(0.0275396 -0.00119503 0.00876637)
(0.0269092 -0.000533005 0.0107501)
(0.0277635 -0.00138665 0.0102494)
(0.0260314 -0.00193509 0.0086591)
(0.0294182 -0.00182658 0.0122403)
(0.0303582 -0.00172582 0.0167939)
(0.0281411 -0.00166836 0.0146336)
(0.029299 -0.00174865 0.016756)
(0.0270788 -0.00102635 0.0128904)
(0.0286611 -1.63894e-05 0.0138535)
(0.0258102 0.000223188 0.0134821)
(0.0244964 -0.00201233 0.007699)
(0.0261949 -0.00186312 0.00823601)
(0.0223254 -0.00282432 0.0059693)
(0.0247075 -0.0021031 0.00704947)
(0.0237614 -0.0027871 0.00700662)
(0.0234289 -0.0016485 0.00895891)
(0.0231993 -0.00256185 0.00787268)
(0.0252219 -0.000471188 0.00910328)
(0.0239296 -0.00187047 0.00818415)
(0.0220143 -0.00154443 0.0069088)
(0.0241233 -0.00142923 0.00868367)
(0.0274711 -0.00378578 0.0193376)
(0.028353 -0.00483532 0.0187747)
(0.0271911 -0.00322477 0.0184687)
(0.0271437 -0.00614248 0.0183419)
(0.0289749 -0.00602162 0.0203334)
(0.0292795 -0.00309964 0.0191853)
(0.027182 -0.00243771 0.0146424)
(0.024337 -0.0017521 0.0138571)
(0.0266994 -0.00244195 0.0150159)
(0.0269228 -0.00108471 0.016201)
(0.028875 -0.000278941 0.0149897)
(0.0290292 -0.00345819 0.017362)
(0.0279702 -0.0156431 0.00485293)
(0.028659 -0.0150823 0.004582)
(0.027032 -0.0145468 0.00498026)
(0.0282527 -0.0125581 0.00380033)
(0.0286876 -0.0114195 0.00327327)
(0.0285984 -0.013001 0.00456843)
(0.0293565 -0.0128331 0.0038427)
(0.0289304 -0.0148296 0.00440739)
(0.0277448 -0.0160833 0.00579234)
(0.0284286 -0.0148291 0.0044156)
(0.0300965 -0.0136214 0.00471411)
(0.0299319 -0.0119503 0.00397066)
(0.0199036 -0.0177522 0.0101723)
(0.0207227 -0.0173671 0.0101954)
(0.0200299 -0.0179457 0.0120514)
(0.0209514 -0.0180682 0.0131507)
(0.021384 -0.0193469 0.0116303)
(0.0228881 -0.0188706 0.0120037)
(0.0198826 -0.0176357 0.0120021)
(0.0171835 -0.0159295 0.0127444)
(0.0181506 -0.016608 0.0110494)
(0.0233596 -0.0201852 0.0121307)
(0.0210818 -0.0179579 0.0101736)
(0.0132854 -0.0128182 0.0108792)
(0.030425 -0.0163781 0.00993484)
(0.0303815 -0.0153379 0.00845047)
(0.0291513 -0.0147283 0.00818046)
(0.0325303 -0.0144315 0.0081854)
(0.0308004 -0.0141487 0.00813837)
(0.028658 -0.0144059 0.00470058)
(0.0258425 -0.0129167 0.00413615)
(0.0301193 -0.0128604 0.00510837)
(0.0293173 -0.0141365 0.00577482)
(0.0291882 -0.0116712 0.00430759)
(0.0289739 -0.0123458 0.00367722)
(0.0260574 -0.0163932 0.0125325)
(0.0297827 -0.0175079 0.0112596)
(0.0260302 -0.0155859 0.01137)
(0.0298825 -0.0185893 0.0126571)
(0.0284608 -0.0168076 0.0109058)
(0.029551 -0.0185898 0.0140788)
(0.0278947 -0.0176224 0.0150034)
(0.0260656 -0.0143283 0.020031)
(0.0273965 -0.0173016 0.0192058)
(0.0209619 -0.0131617 0.0174471)
(0.0276881 -0.0142654 0.0225998)
(0.0254051 -0.0128118 0.0216307)
(0.0265263 -0.0153552 0.0199662)
(0.0248686 -0.0144381 0.0163599)
(0.0207309 -0.012402 0.0141998)
(0.0239048 -0.0150918 0.0141323)
(0.0231077 -0.0137873 0.0154191)
(0.0259337 -0.0159849 0.0161086)
(0.0253258 -0.0159485 0.015323)
(0.00901744 -0.00193912 0.0121056)
(0.0101074 -0.00184967 0.0131854)
(0.00800993 -0.00305621 0.0108585)
(0.00931474 -0.00328028 0.0117199)
(0.00983445 -0.00272485 0.0122224)
(0.00846718 -0.00412154 0.0114458)
(0.00929925 -0.00968281 0.0110517)
(0.0107759 -0.0111452 0.010981)
(0.0117847 -0.0111354 0.0132441)
(0.0111502 -0.0110536 0.0119191)
(0.00821273 -0.00786092 0.0109103)
(0.00993582 -0.00879389 0.0124821)
(0.0206996 -0.0184841 0.0158543)
(0.0169483 -0.0154769 0.0148564)
(0.0190263 -0.017049 0.0138359)
(0.0164461 -0.0139757 0.0161937)
(0.0187745 -0.0161013 0.0163681)
(0.0142116 -0.0125529 0.0150191)
(0.0298489 -0.00244885 0.0177928)
(0.0278703 -0.00183724 0.0180328)
(0.0283593 0.00035488 0.0159494)
(0.0284776 -0.00168762 0.0191308)
(0.0284842 -0.00335248 0.0200393)
(0.029144 -0.001002 0.0157557)
(0.0242046 0.00101473 0.0149454)
(0.0257787 -0.0011695 0.0150963)
(0.0273039 4.41051e-05 0.0174866)
(0.0251487 -0.000636918 0.017218)
(0.0264005 0.000391201 0.0133412)
(0.0290266 0.000645801 0.0162778)
(0.0231715 -0.00822913 0.021905)
(0.0244307 -0.00630249 0.0217559)
(0.0198462 -0.00670778 0.0183143)
(0.0215569 -0.00252993 0.0195351)
(0.0246287 -0.0035766 0.0205486)
(0.0257612 -0.00598239 0.0216062)
(0.0224843 -0.013556 0.0215672)
(0.0197614 -0.00882114 0.0208454)
(0.0222011 -0.0106758 0.0210533)
(0.0216232 -0.0120254 0.0204468)
(0.0211478 -0.0115186 0.0199488)
(0.0240616 -0.0107814 0.0226065)
(0.0155349 -0.00948009 0.0165714)
(0.0186104 -0.00695862 0.0199922)
(0.018722 -0.0112376 0.0184838)
(0.0171907 -0.00545949 0.01856)
(0.0147631 -0.00742421 0.0174751)
(0.0170701 -0.00891362 0.0182261)
(0.0260896 -0.00352446 0.0181978)
(0.0295784 -0.000955084 0.0170897)
(0.029821 -0.00116678 0.0170156)
(0.0267482 -0.00149437 0.0166413)
(0.0297974 -0.00115281 0.0164774)
(0.0289034 -0.00330641 0.019102)
(0.0227863 -0.00526696 0.0204524)
(0.0245657 -0.00598179 0.0204418)
(0.0252644 -0.00389255 0.0186098)
(0.0250291 -0.00673418 0.0208958)
(0.0285163 -0.00507255 0.0218564)
(0.0244994 -0.00563058 0.0220631)
(0.0304024 -0.00728649 0.0234743)
(0.0317718 -0.00755022 0.0240888)
(0.0290932 -0.00629421 0.0199097)
(0.0304173 -0.0080149 0.0212776)
(0.0256248 -0.0055071 0.0197486)
(0.0253407 -0.00210132 0.0191615)
(0.0258426 -0.00590242 0.00575059)
(0.0242957 -0.00393453 0.00521989)
(0.0251989 -0.00439296 0.0057179)
(0.0250844 -0.00610804 0.00675888)
(0.0258019 -0.00633901 0.00615074)
(0.0259639 -0.00487927 0.00614135)
(0.0251887 -0.00530418 0.00759578)
(0.0247801 -0.00650942 0.00766871)
(0.0257885 -0.00724013 0.00858324)
(0.0244216 -0.00660795 0.00782596)
(0.0251378 -0.00601608 0.00832085)
(0.0258911 -0.00565956 0.00795088)
(0.0268644 -0.00778972 0.0064518)
(0.0255297 -0.00910704 0.00767556)
(0.026742 -0.00992841 0.00763927)
(0.0275843 -0.010111 0.00791592)
(0.0268526 -0.00827114 0.00724529)
(0.0278745 -0.0088341 0.00765374)
(0.0248698 -0.0103986 0.0109289)
(0.0234751 -0.0098404 0.011995)
(0.0247305 -0.0100133 0.0121601)
(0.0236917 -0.00962923 0.0106714)
(0.0253394 -0.0109946 0.0122345)
(0.00883803 -0.00329269 0.00625872)
(0.00789049 -0.00297919 0.00544132)
(0.009161 -0.00338235 0.00595865)
(0.00784547 -0.00299682 0.0059631)
(0.00866339 -0.0032335 0.00553052)
(0.00961159 -0.00348504 0.00576212)
(0.0227852 0.00200726 0.0065435)
(0.0256636 -0.000233284 0.00703845)
(0.0242151 0.000939707 0.00648828)
(0.0235034 0.000815516 0.00715035)
(0.0260461 -0.00115639 0.00657341)
(0.0241186 -0.000424961 0.00599818)
(0.0251342 -0.00307426 0.0071474)
(0.0249012 -0.0017384 0.00705473)
(0.0242092 -0.00197517 0.0053077)
(0.0255925 -0.00257505 0.00602247)
(0.0252123 -0.00273957 0.00748879)
(0.0245996 -0.00438445 0.00752742)
(0.0251391 -0.00376907 0.00739981)
(0.0281891 -0.00756676 0.00334611)
(0.0290715 -0.00478197 0.00474118)
(0.0298821 -0.00917875 0.00360483)
(0.030701 -0.00772704 0.00357225)
(0.0315079 -0.00593639 0.00448816)
(0.0294222 -0.006844 0.0049318)
(0.0062779 -0.00444152 0.00424553)
(0.00695974 -0.00526617 0.00433466)
(0.00691619 -0.00469947 0.00398048)
(0.00635424 -0.00471839 0.00420661)
(0.00631321 -0.00433451 0.00403561)
(0.00722945 -0.0050762 0.00390253)
(0.00788364 -0.000707851 0.00662939)
(0.00732293 -0.000644158 0.00643726)
(0.0256314 -0.00852021 0.00846665)
(0.0248094 -0.00775268 0.00785591)
(0.025048 -0.0084324 0.00911247)
(0.0258147 -0.00951406 0.00891718)
(0.0251783 -0.00968153 0.00975138)
(0.023757 -0.00894382 0.00894262)
(0.0294218 -0.00357963 0.00429776)
(0.0300288 -0.00466413 0.00453878)
(0.030772 -0.00581598 0.00385126)
(0.0309519 -0.00480181 0.00339567)
(0.0313007 -0.0038276 0.00371883)
(0.0297185 -0.0043419 0.00377606)
(0.0297211 -0.00496418 0.00293249)
(0.0217502 0.00270336 0.00734035)
(0.0239888 0.000913072 0.00746393)
(0.0239867 -0.000274607 0.00626448)
(0.0246424 0.000934065 0.00700736)
(0.0256975 -0.00428259 0.00793062)
(0.0251741 -0.00203358 0.00746024)
(0.0234956 0.0012204 0.00702289)
(0.0246452 0.000130387 0.00714321)
(0.0228666 0.00148218 0.00720178)
(0.022283 0.00225495 0.00723606)
(0.0244388 -0.00920677 0.0101933)
(0.0237569 -0.0088315 0.0105234)
(0.0251124 -0.0104641 0.0103445)
(0.0266837 -0.0111136 0.01121)
(0.0261523 -0.0115844 0.0116358)
(0.0266337 -0.0108842 0.0100562)
(0.0271502 -0.0101695 0.00934586)
(0.0243856 -0.00764546 0.0082794)
(0.0250519 -0.0081913 0.00975816)
(0.0261327 -0.00791431 0.00738519)
(0.025589 -0.00695338 0.00782844)
(0.0249971 -0.00443495 0.0067389)
(0.0237713 -0.00524547 0.00724582)
(0.0238998 -0.0050353 0.00697215)
(0.0235343 -0.00630721 0.00819661)
(0.0244715 -0.0078507 0.00919619)
(0.0244181 -0.00683824 0.00829404)
(0.0246677 -0.00788256 0.00985878)
(0.0325461 -0.00412904 0.020041)
(0.0275621 -0.00263899 0.0206456)
(0.0325746 -0.00241928 0.0192703)
(0.0306315 -0.00214334 0.0192814)
(0.0251659 -0.00825708 0.0226714)
(0.0218827 -0.00908 0.0220316)
(0.0219571 -0.00207695 0.0193456)
(0.0213251 -0.00466745 0.0195368)
(0.0193185 -0.00551674 0.0196254)
(0.0176455 -0.00674456 0.0177682)
(0.0217667 -0.00394436 0.0180968)
(0.0232462 -0.000623044 0.018182)
(0.026031 -0.00551255 0.0207397)
(0.0278732 -0.00180181 0.0192422)
(0.026764 -0.00240222 0.0184843)
(0.0301269 -0.00486295 0.0200779)
(0.0306217 -0.00615077 0.0212564)
(0.0289884 -0.00949873 0.0228233)
(0.0283843 -0.008442 0.0217275)
(0.0277712 -0.00715923 0.020869)
(0.0202415 -0.00697732 0.018402)
(0.0255025 -0.00872258 0.0230076)
(0.0252184 -0.00827658 0.0209452)
(0.01906 -0.00862209 0.0189432)
(0.0246759 -0.00903629 0.0206332)
(0.0282209 -0.0113937 0.0217407)
(0.0298693 -0.0126533 0.0231117)
(0.0119346 -0.0105939 0.0140328)
(0.0204962 -0.0135303 0.0195926)
(0.0161301 -0.0115498 0.0166127)
(0.0157278 -0.0126877 0.0162263)
(0.00692882 -0.00647036 0.0112583)
(0.0062516 -0.00490827 0.0110635)
(0.0156147 -0.00217408 0.0168984)
(0.0137026 -0.00567031 0.0142378)
(0.0123646 -0.00574249 0.0156504)
(0.0246656 -0.0133342 0.0202433)
(0.0240193 -0.0125516 0.0204717)
(0.0264981 -0.0129269 0.0215768)
(0.0272238 -0.011304 0.0220912)
(0.0249645 -0.010896 0.0178411)
(0.0228749 -0.010611 0.0166214)
(0.0238003 -0.0126827 0.0164805)
(0.0204178 -0.0108361 0.0150383)
(0.027718 -0.00773913 0.0209372)
(0.0282179 -0.00727065 0.020437)
(0.026108 -0.00830352 0.0203281)
(0.0268447 -0.00994624 0.0215874)
(0.0276506 -0.00901418 0.0216166)
(0.0264315 -0.00807243 0.0201415)
(0.0261896 -0.0073451 0.0214137)
(0.0225113 -0.00613034 0.0180162)
(0.0216778 -0.00717417 0.0173206)
(0.0243417 -0.0103672 0.0182617)
(0.0237485 -0.0074116 0.0194147)
(0.0231504 -0.0144569 0.0132485)
(0.0308715 -0.0118813 0.00550324)
(0.0286413 -0.0152395 0.00927475)
(0.0107054 -0.0115178 0.010127)
(0.0135915 -0.0128204 0.0129257)
(0.0216874 -0.0194671 0.0140909)
(0.0248927 -0.0182891 0.00886544)
(0.0243182 -0.0174721 0.00801656)
(0.0232003 -0.0153716 0.0064312)
(0.0243816 -0.0139931 0.00564649)
(0.0142531 -0.0132591 0.00847044)
(0.0193978 -0.0159043 0.00655291)
(0.0221416 -0.0171696 0.00732376)
(0.0233094 -0.0182562 0.0113257)
(0.0236491 -0.0186697 0.0103047)
(0.031718 -0.00883657 0.00392914)
(0.0316622 -0.00986088 0.00410078)
(0.0246668 -0.0175023 0.00752253)
(0.0260743 -0.0169178 0.00620669)
(0.0300527 -0.00955569 0.00356918)
(0.0300941 -0.00802996 0.00289978)
(0.0308341 -0.00937442 0.0031701)
(0.0288465 -0.0118858 0.0039131)
(0.0299119 -0.0120601 0.00358729)
(0.0254284 -0.0161513 0.00574082)