/*--------------------------------*- C++ -*----------------------------------*\
| =========                 |                                                 |
| \\      /  F ield         | OpenFOAM: The Open Source CFD Toolbox           |
|  \\    /   O peration     | Version:  v1612+                                |
|   \\  /    A nd           | Web:      www.OpenFOAM.com                      |
|    \\/     M anipulation  |                                                 |
\*---------------------------------------------------------------------------*/
FoamFile
{
    version     2.0;
    format      ascii;
    class       surfaceScalarField;
    location    "100";
    object      phi;
}
// * * * * * * * * * * * * * * * * * * * * * * * * * * * * * * * * * * * * * //

dimensions      [0 3 -1 0 0 0 0];

internalField   nonuniform List<scalar> 
45496
(
-1.81968e-09
2.27164e-10
1.77714e-09
-1.84634e-10
1.09291e-08
-7.13862e-10
-1.03922e-08
1.76958e-10
3.91854e-09
-3.0519e-09
-3.26905e-09
2.4024e-09
6.9959e-09
-4.39589e-09
-2.82249e-09
2.22468e-10
1.09385e-09
-1.12505e-10
-3.42278e-09
1.84952e-09
4.81864e-09
-3.25784e-09
-3.41033e-09
-1.05748e-09
2.13547e-09
-8.69836e-10
-2.08168e-10
1.37703e-09
-2.68337e-09
1.57643e-09
-2.70025e-10
-5.18308e-09
-1.00551e-10
1.80311e-09
3.48057e-09
-1.51687e-09
-1.27098e-10
-1.56821e-09
-5.20036e-11
-6.19001e-10
-2.08383e-09
2.75483e-09
3.14024e-09
-3.23592e-09
-5.73803e-09
5.83371e-09
-6.47989e-09
3.71189e-09
5.23923e-09
-2.47125e-09
-2.88867e-09
-2.50765e-09
3.84542e-09
1.55084e-09
-3.88291e-10
4.2058e-09
-6.19542e-09
2.37801e-09
1.49456e-09
-2.88591e-09
1.49604e-09
-1.04652e-10
2.90429e-09
2.87101e-09
-4.78565e-10
-5.2967e-09
-4.57815e-09
4.18892e-09
-7.0394e-09
7.42872e-09
-8.97366e-09
1.34104e-09
7.73242e-10
6.85939e-09
-5.84897e-09
-8.45156e-09
5.32688e-09
-1.55983e-09
-1.29495e-09
2.70748e-09
1.47358e-10
5.56724e-10
-2.20044e-09
3.69129e-09
-2.04756e-09
-7.36397e-09
7.83208e-09
-2.81438e-10
-1.86622e-10
3.6838e-09
-5.51463e-09
2.40773e-10
1.59007e-09
-2.79016e-09
5.42507e-09
-9.2641e-10
-1.70847e-09
1.94075e-09
-7.67651e-09
6.54474e-09
-8.08945e-10
-6.96643e-10
1.12682e-09
-8.98501e-09
8.55482e-09
-3.91401e-10
-9.85195e-09
9.48372e-09
7.59628e-10
2.10634e-09
2.0931e-09
-3.75947e-09
-4.39994e-10
5.57171e-09
-5.22473e-09
-4.95816e-10
1.48863e-10
1.8471e-09
-2.00632e-09
7.85951e-09
-7.70032e-09
3.86456e-09
-5.41097e-10
-8.62228e-09
5.29887e-09
4.63979e-09
-1.44289e-08
2.78682e-09
7.00232e-09
-4.0074e-09
-1.48036e-09
5.38253e-09
1.05251e-10
2.83497e-09
4.80024e-09
9.65567e-10
-8.60074e-09
2.40533e-09
-8.37434e-09
1.07989e-08
-4.82984e-09
-9.92514e-09
8.67653e-10
5.40534e-09
3.65225e-09
-4.40362e-09
-4.97874e-09
3.39652e-09
5.98586e-09
7.43243e-10
-4.88889e-09
9.69302e-10
3.17634e-09
-1.79648e-09
-1.80293e-09
-3.78831e-09
7.3877e-09
7.96493e-09
-4.00911e-09
-4.27722e-09
3.21409e-10
5.17624e-09
-1.09154e-09
-2.85025e-09
-1.23436e-09
2.08111e-09
1.70211e-09
-3.53608e-09
-2.47144e-10
7.75997e-09
8.28005e-10
-3.8039e-09
-4.78404e-09
-1.45084e-09
-1.09041e-09
2.69226e-09
-1.51006e-10
-2.97102e-09
-4.18642e-09
2.58723e-09
4.5702e-09
2.95983e-09
-3.28677e-09
6.57501e-10
-3.30537e-10
9.54008e-09
-5.42416e-09
-1.44373e-09
-2.67216e-09
1.07547e-10
9.62715e-09
-6.48974e-09
-3.24494e-09
-4.60964e-09
1.83402e-09
-2.15146e-09
4.92707e-09
4.30201e-09
-9.19704e-09
3.39733e-09
1.49772e-09
2.44673e-09
2.12467e-09
-7.62527e-09
3.05389e-09
2.95013e-09
-3.46665e-11
-2.85507e-10
-2.63002e-09
4.27815e-09
-6.08578e-09
-3.5514e-10
2.16278e-09
-1.01983e-09
-1.28654e-09
-7.43488e-10
3.04983e-09
-4.42522e-09
-6.77263e-09
1.95227e-09
9.24559e-09
7.47581e-09
-4.90749e-09
-9.83507e-09
-2.48246e-09
-1.1889e-10
2.47887e-10
2.3535e-09
-3.84789e-09
1.54502e-09
2.47181e-09
-1.68901e-10
2.17288e-09
8.18247e-09
-3.20603e-09
-7.14936e-09
8.65131e-09
-5.86876e-09
-5.83427e-09
3.05176e-09
-3.42725e-09
5.76514e-09
-3.51097e-09
1.17308e-09
-1.60026e-09
-2.32107e-09
4.17194e-09
-2.50619e-10
-1.40496e-09
3.38046e-09
2.33505e-09
-4.31054e-09
1.03118e-09
-1.43025e-09
-2.29081e-09
2.69002e-09
-1.38395e-09
5.79978e-10
-2.4527e-09
2.06227e-09
-2.94237e-09
3.00907e-09
-2.12897e-09
2.62006e-09
2.79586e-10
-2.6783e-09
-2.21366e-10
5.28323e-09
4.59096e-09
-6.01698e-09
-3.85722e-09
5.11588e-09
-3.69704e-09
-9.23844e-09
7.8196e-09
-7.3552e-09
6.04378e-09
-1.98485e-09
3.29622e-09
5.97964e-09
2.17229e-10
-1.11796e-09
-5.07888e-09
-6.30289e-09
6.43599e-09
-3.32021e-10
1.98911e-10
4.4291e-09
-4.17995e-09
-6.19656e-11
-1.87181e-10
8.01173e-09
-2.13489e-09
-8.48063e-09
2.60378e-09
3.67079e-09
1.71834e-09
-4.48422e-09
-9.04777e-10
7.29069e-09
-4.02274e-09
-3.25594e-09
-1.20169e-11
1.54664e-09
5.10922e-09
3.1911e-09
-9.84692e-09
2.87377e-09
3.96874e-09
-6.56842e-09
-2.74068e-10
-1.32047e-08
1.05523e-08
1.14538e-08
-8.80144e-09
-3.59864e-09
-8.68339e-10
4.6727e-09
-2.05761e-10
4.76228e-09
-4.3366e-09
-4.19919e-09
3.77352e-09
1.06313e-09
-5.63598e-09
4.87191e-09
-2.99041e-10
-3.56129e-09
4.82465e-09
-1.31536e-09
-1.60733e-09
6.10348e-10
-3.76087e-10
1.37308e-09
3.78819e-10
1.11753e-09
2.34206e-09
-3.83842e-09
2.96077e-09
3.68892e-09
-6.6164e-09
-3.32704e-11
1.43533e-09
-3.8822e-09
2.66523e-09
-2.18325e-10
-9.21095e-11
-5.35664e-09
5.38876e-09
5.99954e-11
4.41166e-09
1.27542e-08
6.74161e-09
-2.39074e-08
7.77468e-09
7.37527e-10
-2.18856e-09
-6.32363e-09
4.84035e-09
-1.64347e-09
3.5488e-10
-3.55174e-09
-1.53683e-09
-3.86236e-09
-5.12005e-10
5.9112e-09
1.15333e-09
-5.01315e-09
3.37885e-09
4.80979e-10
7.5011e-09
-8.88934e-09
2.54152e-09
-7.15965e-09
3.16051e-09
-4.55337e-09
8.55253e-09
-8.69476e-09
-1.65944e-09
2.78409e-09
7.5701e-09
-6.53196e-09
1.94321e-09
4.86769e-09
-2.78922e-10
-4.89431e-09
3.75915e-09
-5.39678e-09
-3.32517e-09
-1.61451e-09
2.14951e-09
2.21929e-09
-3.61646e-10
-1.68743e-09
-1.70223e-10
-1.91193e-09
-2.82654e-09
-1.13941e-10
3.9646e-09
-1.02408e-09
5.37735e-11
-6.83536e-09
2.04193e-10
6.82748e-09
-8.15487e-09
3.57547e-09
-2.24805e-09
-1.83571e-09
-3.13989e-09
4.26738e-09
7.0823e-10
1.96331e-10
3.35243e-09
-2.17554e-10
5.9941e-10
-7.89198e-10
2.91699e-09
-2.72722e-09
5.27168e-09
-3.7731e-09
-8.99162e-10
1.96175e-09
2.03698e-09
3.15861e-10
-4.3145e-09
4.41029e-09
-7.5844e-09
-1.78621e-09
4.96033e-09
-1.63609e-09
-2.74616e-09
5.6259e-09
-1.24366e-09
9.77007e-09
-4.0609e-09
-7.71275e-09
2.00361e-09
1.7515e-09
-1.76154e-09
-2.10776e-09
2.11778e-09
7.82763e-09
-8.40962e-09
1.90591e-10
2.2362e-09
-4.12313e-09
-1.35357e-09
2.11685e-09
-4.59055e-09
5.0863e-09
-2.61258e-09
4.36371e-09
1.46856e-08
-7.93333e-09
-1.11159e-08
5.66858e-09
3.28398e-09
1.39497e-09
-1.03475e-08
4.41128e-09
-4.15758e-09
-3.85612e-10
1.31918e-10
-2.43978e-10
-2.72562e-09
4.39837e-09
-1.42877e-09
2.77193e-09
2.37438e-09
-3.15527e-10
-3.75468e-09
2.39086e-09
1.51759e-09
-1.53708e-10
4.92922e-09
-6.46594e-09
1.0374e-08
-8.83721e-09
3.43448e-09
4.60841e-09
-2.82903e-10
-1.74228e-09
8.99961e-10
-2.21625e-09
3.05858e-09
1.65222e-09
-1.49909e-09
-1.24173e-09
1.0887e-09
5.35185e-09
-7.31795e-09
5.93224e-09
-3.96613e-09
-5.65802e-09
5.98543e-09
-6.13554e-10
2.86147e-10
-5.32586e-10
4.55096e-09
-4.20761e-09
1.8922e-10
5.32534e-09
9.18881e-10
1.25686e-09
-2.78115e-09
3.09465e-09
2.49971e-09
-2.81319e-09
8.94194e-11
3.26779e-09
-3.37153e-09
1.43368e-11
-1.68594e-09
-1.98093e-09
2.39643e-10
-6.28197e-10
-4.2384e-09
5.1047e-09
-2.381e-10
8.83248e-09
-1.25593e-09
-6.56712e-09
-1.00945e-09
4.22499e-09
2.6752e-09
-6.01564e-09
-8.84549e-10
6.81034e-09
8.36843e-11
-8.4879e-10
-6.04527e-09
3.19527e-09
-3.38806e-09
3.44848e-09
-3.2557e-09
2.23662e-09
-3.97244e-09
2.32867e-09
-5.92885e-10
5.97419e-09
-2.89836e-09
-2.75068e-09
-3.2516e-10
4.43653e-09
-1.16653e-10
-4.41515e-09
9.52757e-11
-1.11194e-09
6.97953e-09
1.59034e-09
-7.45793e-09
1.45323e-09
5.48747e-09
-3.88169e-09
-3.05902e-09
4.96874e-09
-1.76017e-10
-3.8483e-09
-5.61636e-09
6.12406e-09
3.34058e-09
9.19545e-09
-2.08628e-09
-4.30473e-09
-2.80446e-09
2.9228e-09
1.07489e-09
2.17235e-09
-6.17002e-09
3.19151e-09
-3.17115e-09
-1.47122e-09
-2.67717e-09
5.07112e-09
2.80102e-09
-1.64103e-09
4.04919e-09
2.3136e-09
-4.72174e-09
-7.96233e-09
2.57042e-09
5.35759e-09
3.43558e-11
-5.35268e-09
-5.437e-09
4.95506e-09
5.83462e-09
2.01097e-09
-1.94854e-09
-4.8626e-10
4.23795e-10
-1.62239e-10
9.35705e-10
-6.62596e-10
-1.10876e-10
3.97245e-09
3.01713e-09
-1.64455e-09
-5.34502e-09
2.49661e-09
-6.4524e-09
5.45036e-09
-2.30272e-09
-1.43145e-09
1.30088e-09
2.43328e-09
6.49423e-09
-5.65811e-10
-6.02933e-09
1.00914e-10
6.30248e-09
-4.89199e-09
-1.49112e-09
8.06241e-11
-6.93606e-09
8.50809e-09
5.11683e-09
-6.68885e-09
-7.03919e-09
3.99931e-09
-4.72914e-09
7.76903e-09
-1.45345e-09
1.51028e-09
-3.0688e-09
1.91119e-09
-9.16069e-10
8.54401e-10
2.09729e-09
4.22515e-09
-4.41126e-09
-3.48763e-10
7.63483e-10
4.62322e-09
-5.03793e-09
-2.41619e-09
2.59819e-09
-3.0995e-09
2.91753e-09
-2.60836e-09
1.56834e-09
-3.96588e-09
5.00591e-09
4.14498e-09
-3.88354e-09
-1.29456e-09
1.03313e-09
7.08801e-10
4.3442e-10
-9.99924e-10
-1.43304e-10
4.10341e-10
1.22768e-09
-3.67797e-09
2.03996e-09
2.61592e-09
-5.86478e-09
3.53686e-09
-2.87964e-10
-5.79212e-09
-2.41472e-09
4.78197e-09
3.42488e-09
1.12865e-08
2.52445e-09
-8.6e-09
-5.21099e-09
3.88166e-09
6.75464e-09
6.50219e-10
-6.95735e-09
1.99196e-09
3.43569e-09
1.52973e-09
-7.15445e-10
-2.83652e-09
6.189e-09
-2.637e-09
1.55275e-10
3.55181e-09
-5.25659e-09
1.54954e-09
3.73047e-09
-3.99102e-09
-1.94492e-09
2.20552e-09
1.92885e-09
4.73902e-09
-8.99141e-09
2.32355e-09
6.20242e-09
-3.64427e-10
-1.78579e-09
-4.0522e-09
-8.9551e-10
5.80784e-10
3.12427e-09
-2.80957e-09
4.32428e-09
2.47205e-09
5.23354e-10
-7.31966e-09
-7.53845e-09
-2.96207e-10
7.00425e-09
8.30393e-10
5.10836e-09
-4.66056e-09
-7.68462e-10
3.20653e-10
5.71566e-09
-3.03809e-09
-3.57761e-09
9.00049e-10
-4.98717e-09
5.24092e-09
-4.64574e-10
2.10804e-10
3.7717e-09
1.05365e-09
-5.02413e-09
1.9879e-10
1.35288e-09
-2.05703e-09
2.3095e-09
-1.60534e-09
2.66054e-09
2.70496e-09
-3.17372e-09
-2.19178e-09
-1.4256e-09
2.03119e-09
3.08428e-09
-3.68987e-09
-4.08834e-09
-1.00386e-09
4.38995e-09
7.02256e-10
-6.55257e-09
-4.97033e-09
6.17022e-09
9.80631e-09
-2.93059e-09
-3.07171e-09
-3.80397e-09
-6.68716e-09
5.32871e-09
-1.48187e-09
2.84031e-09
5.44743e-09
1.11887e-09
-4.00274e-09
-2.56358e-09
3.80987e-09
-4.08847e-09
2.35927e-10
4.26802e-11
3.55066e-09
-1.99893e-10
-3.46292e-09
1.12136e-10
4.45504e-09
-6.41986e-09
-4.27816e-09
6.24297e-09
5.35061e-09
-3.84416e-09
4.7548e-09
-6.26125e-09
5.0158e-09
-6.39415e-09
5.26003e-09
-5.74953e-09
-3.00025e-09
1.01245e-08
-1.37474e-09
7.52324e-09
-2.72275e-10
-3.92698e-09
-3.32395e-09
3.09756e-09
-1.09787e-09
-1.82799e-09
-1.71723e-10
2.1176e-09
3.32636e-09
-3.68464e-09
-1.75937e-09
-1.9444e-09
4.16938e-09
-2.29853e-09
7.36025e-11
-2.1957e-09
5.51941e-09
-1.50321e-09
-1.82049e-09
-2.56109e-09
1.23875e-09
1.53401e-09
-2.11589e-10
3.31133e-09
-3.09341e-09
2.40504e-11
-2.41986e-10
-2.33647e-09
9.70107e-10
-1.9206e-09
3.28698e-09
3.23571e-09
3.0199e-09
-2.39098e-09
-1.74852e-09
5.6257e-09
3.14327e-09
-7.02041e-09
-2.65423e-09
-1.98304e-09
1.96984e-09
2.66743e-09
-5.97961e-09
3.28202e-09
2.87667e-09
-1.79084e-10
-1.83775e-09
1.43517e-09
-1.1972e-09
1.5998e-09
-3.20664e-09
-4.97462e-09
1.43882e-10
8.03738e-09
-3.82685e-09
2.61117e-09
1.52868e-09
-3.12974e-10
1.64789e-09
2.78547e-09
-4.14657e-09
-2.8676e-10
-3.75665e-09
2.14739e-09
7.37082e-09
-5.76155e-09
-2.10344e-09
3.07328e-09
3.62614e-10
-1.47775e-10
-4.40705e-09
4.1922e-09
-7.49532e-11
-6.08437e-09
5.83078e-09
3.28551e-10
5.38629e-09
-4.62788e-09
-1.08554e-09
3.27137e-10
8.45329e-10
-2.34987e-09
7.89407e-11
-1.68423e-09
2.87011e-09
-1.50297e-09
3.17105e-10
-2.25325e-09
4.1755e-09
-1.77794e-09
-1.44338e-10
-2.43652e-09
-4.91734e-09
5.02396e-09
2.32994e-09
-3.54498e-09
4.21659e-09
7.11223e-11
-7.4276e-10
-1.70158e-09
-3.2876e-09
1.1376e-09
3.85157e-09
5.75075e-09
1.57418e-10
-6.26561e-09
3.57435e-10
-2.94652e-09
-3.93152e-10
4.88399e-09
-3.7321e-09
1.42356e-09
-2.57541e-09
2.98355e-09
3.96639e-09
-3.59913e-09
-3.35075e-09
-3.87465e-09
-2.04616e-09
-1.9844e-09
7.9053e-09
-1.35672e-09
6.46427e-09
-5.85087e-09
7.43305e-10
4.39913e-09
2.48077e-10
1.33535e-09
-5.98259e-09
3.20537e-09
4.67403e-10
-3.67629e-09
3.52497e-12
5.95834e-09
8.09279e-09
-6.59854e-09
-7.4526e-09
-4.66525e-09
4.02839e-09
2.88095e-10
-3.01992e-09
-1.71737e-10
2.8356e-09
3.56074e-10
-3.82386e-09
-4.94081e-11
1.64507e-09
2.22822e-09
-3.81663e-09
1.76411e-09
2.05968e-09
-7.11047e-12
-2.41819e-09
5.18784e-09
-2.94983e-09
1.80204e-10
3.72428e-09
3.74119e-09
-7.45557e-09
-9.89125e-12
-1.39194e-10
-2.2604e-09
4.05471e-09
-1.65512e-09
2.33395e-09
-4.3097e-10
-1.80021e-09
-1.02802e-10
3.83121e-09
1.64902e-10
-1.046e-09
-8.79852e-10
-1.5351e-09
6.78069e-09
-4.36577e-09
-1.25389e-09
3.57411e-09
5.07051e-09
-7.39068e-09
8.87738e-10
9.69215e-10
-1.5607e-09
-2.96291e-10
3.45985e-09
2.70632e-09
3.79325e-11
-6.20411e-09
1.44009e-09
-5.15995e-09
1.2818e-09
2.43809e-09
5.11368e-10
-1.39329e-09
1.18939e-09
-3.07534e-10
3.86291e-09
1.86574e-09
-5.40006e-09
-3.28603e-10
3.35407e-09
8.58639e-10
-4.06242e-09
-1.50264e-10
7.0352e-09
-6.96943e-09
-1.51576e-10
8.58519e-11
1.15472e-09
-4.49024e-09
4.22325e-09
1.6783e-09
-1.97787e-10
1.36142e-09
-4.86097e-09
1.19013e-09
2.30937e-09
1.78652e-09
-2.51729e-09
2.09218e-09
1.64435e-09
-1.27461e-09
-2.62757e-09
2.25783e-09
1.60749e-09
-1.18931e-09
4.10077e-10
-8.28316e-10
-6.8359e-10
-2.53303e-09
3.71931e-09
-1.86308e-09
-1.80082e-09
-5.5344e-11
2.63972e-09
-1.04025e-08
1.35171e-09
6.41106e-09
-1.07962e-09
-2.94445e-09
4.17016e-09
-1.46112e-10
3.78302e-09
-2.29552e-09
-1.2808e-09
-2.0673e-10
-2.18681e-09
-1.98791e-11
2.42678e-09
-2.20096e-10
-4.74756e-09
7.58902e-09
1.19334e-10
-5.4671e-09
5.83614e-09
2.46594e-09
-4.28828e-09
5.58048e-10
6.00917e-09
-2.27893e-09
4.53195e-09
-8.34329e-09
3.71214e-09
9.92121e-11
6.95799e-10
-1.75225e-09
1.73472e-09
-6.78224e-10
1.59548e-09
1.39694e-10
-1.52447e-09
-2.10761e-10
2.81275e-09
-3.64049e-09
1.04259e-09
-2.14854e-10
-1.99387e-10
-1.45688e-09
1.84494e-09
-1.88672e-10
4.51993e-09
-6.41887e-09
1.8196e-09
7.9326e-11
-2.21653e-09
6.33633e-09
4.5012e-09
2.72125e-09
-2.00259e-10
-4.2345e-09
2.38177e-09
1.89909e-09
-4.63313e-11
-1.47555e-10
-1.66245e-09
3.61619e-09
-1.80618e-09
-3.86733e-09
2.75294e-09
-1.07305e-09
2.18742e-09
1.68871e-09
-1.38418e-09
-1.03343e-10
-2.01219e-10
-4.28776e-10
3.28613e-09
2.63019e-09
-5.48751e-09
-3.74985e-09
1.50253e-09
2.56344e-09
3.19667e-09
-7.26262e-09
5.00228e-09
-1.53187e-09
-1.16339e-10
9.63875e-10
4.00059e-09
-8.01352e-09
3.04909e-09
4.29979e-09
-8.32091e-09
8.00227e-10
3.22091e-09
-2.9475e-10
3.86644e-10
7.5089e-09
-7.60078e-09
4.1884e-09
-2.36445e-09
3.22271e-09
-5.04663e-09
-4.67316e-09
1.65404e-09
5.48349e-09
-2.46437e-09
1.76489e-09
3.38561e-09
-4.05046e-09
-1.09999e-09
-2.91088e-09
-5.7065e-09
5.82839e-09
2.78901e-09
-4.77358e-09
1.41611e-09
-5.33729e-09
-4.87646e-09
2.85374e-09
-1.60574e-09
3.62846e-09
-7.92352e-09
-1.33262e-09
8.1468e-09
1.10936e-09
-1.502e-09
1.53173e-09
2.20504e-10
-2.50246e-10
1.85608e-09
-2.22343e-09
-3.70714e-09
4.07444e-09
-2.4029e-09
4.21651e-09
-5.97835e-09
4.16468e-09
2.773e-09
-2.46443e-09
-1.29309e-10
-1.79252e-10
2.54033e-09
-1.85833e-09
3.72928e-09
7.18604e-09
-4.76457e-09
3.15024e-09
2.79347e-09
2.99458e-09
-5.68174e-09
-1.06265e-10
-2.28032e-09
5.37573e-09
-2.96012e-09
-1.35239e-10
-2.52766e-09
1.61608e-09
8.58582e-10
5.30624e-11
-2.11494e-09
-2.08627e-10
2.50424e-09
-1.807e-10
-2.0763e-09
-2.74922e-09
2.71057e-09
2.29703e-09
-6.85919e-09
-1.49667e-10
4.71184e-09
-4.05063e-09
7.065e-11
6.27704e-09
-1.60581e-09
-3.52048e-09
-8.04369e-12
5.13437e-09
-1.06985e-09
-3.66461e-09
1.07211e-09
3.66231e-09
4.50129e-09
-1.90494e-09
-2.26332e-09
-3.3308e-10
5.55111e-09
4.16342e-09
-4.45021e-09
6.57874e-09
-3.52824e-09
-2.96809e-09
-8.23758e-11
-3.70389e-09
2.86912e-09
-4.48511e-09
5.31989e-09
-2.80997e-10
9.79436e-10
-1.97308e-09
-6.06082e-09
5.05207e-09
1.33256e-09
-3.23776e-10
7.71808e-09
-4.16042e-09
-3.54474e-09
-1.28922e-11
2.78357e-09
5.62509e-09
-2.12073e-09
-2.21117e-09
2.4034e-09
-5.23325e-10
3.3109e-10
2.88373e-09
-1.18433e-09
4.23707e-09
-5.93643e-09
-5.66574e-09
4.22673e-09
1.546e-09
-1.06925e-10
-7.41817e-09
3.89103e-09
3.76409e-09
-2.36928e-10
-2.33565e-09
2.84756e-09
2.77415e-09
-3.28582e-09
-3.2684e-09
-3.99194e-09
4.43846e-09
2.82192e-09
-4.00511e-09
3.19229e-09
-2.66822e-10
-3.81519e-09
6.16053e-09
-2.48775e-09
1.42424e-10
-5.13788e-09
3.76392e-09
-1.97198e-10
-3.97649e-09
-2.27529e-09
4.27355e-09
1.97824e-09
2.68568e-10
2.22294e-09
-2.59219e-09
1.00677e-10
3.18387e-09
-9.00227e-09
2.1145e-09
-2.05773e-09
4.44574e-09
-2.70409e-10
4.60417e-09
-7.37889e-10
-6.91249e-09
3.04622e-09
1.80324e-09
-3.60708e-09
1.54815e-09
2.55697e-10
2.50371e-09
-2.43554e-09
-3.04477e-10
2.36345e-10
-6.68495e-09
5.80898e-09
6.9077e-10
1.852e-10
-9.41953e-10
-3.61525e-09
-2.68946e-09
7.24667e-09
4.40561e-10
3.00918e-09
-5.02312e-09
1.57346e-09
4.45588e-09
7.87466e-10
-5.74104e-09
4.97679e-10
-4.24023e-10
3.1879e-09
-2.6706e-09
-9.32649e-11
-1.25982e-10
-1.59891e-09
1.89969e-09
-1.74792e-10
-2.01402e-09
-1.88274e-10
-2.58569e-09
3.56251e-09
2.27729e-09
-3.25411e-09
3.86922e-09
6.63339e-09
-4.63915e-09
-5.86349e-09
-6.47055e-09
2.70644e-09
3.65085e-09
1.13271e-10
1.22828e-09
-2.12056e-09
1.3442e-09
-4.5197e-10
-2.84531e-10
3.93855e-09
5.666e-10
-4.22061e-09
-1.68828e-09
1.75775e-10
1.64121e-09
-1.28751e-10
4.80066e-11
-1.88079e-09
1.98628e-09
-1.53508e-10
1.84385e-09
-4.37282e-09
7.58907e-10
1.77006e-09
4.39772e-09
-4.54213e-09
-4.442e-09
4.58641e-09
-1.73754e-09
3.1709e-09
-8.04526e-11
2.18751e-09
6.69817e-09
-5.60746e-09
-3.27813e-09
-5.31793e-09
3.50448e-09
2.08681e-09
-2.73346e-10
-4.76563e-09
-6.80458e-09
4.91162e-09
6.65861e-09
7.56672e-10
-3.73515e-10
-7.03507e-09
6.65186e-09
-1.12058e-08
1.96656e-09
5.23682e-10
8.7155e-09
-8.35001e-10
-6.33308e-09
2.32028e-10
-2.14033e-09
-2.02488e-10
-2.8845e-10
2.63125e-09
-2.08355e-09
-1.95606e-09
3.03966e-10
9.89992e-10
-1.30162e-09
-2.52116e-09
2.83279e-09
-3.47357e-09
8.25081e-09
2.94086e-09
-1.46597e-09
5.47347e-09
-3.80113e-09
-2.06361e-10
-4.6048e-09
4.83417e-09
-6.15198e-10
3.85746e-10
-9.96563e-10
-7.17341e-09
7.81185e-09
3.58139e-10
-1.19817e-09
4.40817e-09
-1.75674e-09
2.37767e-09
6.73681e-09
3.86518e-10
-9.50102e-09
4.40375e-10
2.05262e-09
-4.09865e-11
5.71206e-09
-2.58696e-09
-9.65228e-09
6.52721e-09
3.05824e-09
-4.79287e-09
-6.97462e-10
2.43212e-09
-8.87302e-09
-1.49934e-09
7.66207e-09
2.71024e-09
-6.77961e-10
2.37503e-09
-3.30286e-09
1.74185e-09
4.68798e-10
-1.96377e-09
-2.46865e-10
-7.32988e-10
1.54685e-09
-1.05044e-10
3.03115e-09
-1.38458e-09
-1.47984e-09
-1.66752e-10
-4.90548e-10
7.41685e-09
-2.048e-09
3.6292e-09
-5.18564e-09
1.41306e-09
1.43399e-10
-5.84643e-09
4.28629e-09
1.87608e-09
-3.1592e-10
-3.64549e-09
-2.40511e-09
2.04195e-10
-3.1102e-09
1.63705e-10
3.15186e-09
-2.05422e-10
2.94991e-09
-5.38242e-09
1.43348e-11
-2.74142e-09
1.96886e-10
3.33353e-10
1.79585e-09
-5.19401e-09
3.78309e-09
-3.84924e-10
7.88648e-09
2.01319e-09
1.02944e-09
-7.2552e-09
-1.23382e-09
9.68257e-09
-1.19354e-09
-1.97829e-10
-3.49029e-10
2.1168e-09
1.9547e-09
-4.31309e-09
2.41611e-10
5.13804e-10
9.11915e-10
-1.22267e-09
-2.03068e-10
1.58501e-09
-3.51654e-09
2.18054e-09
-2.49024e-10
-2.00632e-09
-4.17552e-09
2.56736e-09
3.61458e-09
-3.64417e-09
-6.20945e-12
3.88503e-09
-2.34675e-10
5.83311e-10
-4.59905e-09
2.07988e-09
1.93587e-09
1.67456e-09
-4.54897e-09
-3.07086e-09
5.94532e-09
-7.31634e-10
4.55932e-09
3.11217e-09
-7.82676e-10
-6.41808e-09
4.08864e-09
-2.13081e-09
2.08797e-09
-2.7101e-09
2.75296e-09
3.66372e-09
-3.57233e-09
-1.37898e-10
4.64831e-11
-5.84093e-09
6.33838e-09
2.59234e-10
2.35326e-10
1.61927e-09
-1.7209e-09
-1.33653e-10
-8.91958e-10
-1.95274e-09
8.48669e-10
1.99604e-09
2.6404e-09
-4.61851e-10
-2.09041e-09
-8.8182e-11
-8.3394e-10
-4.98885e-09
5.53597e-09
2.86801e-10
4.68292e-10
-3.62177e-09
2.83497e-09
3.18288e-10
-1.96586e-09
-4.08865e-09
-3.32622e-09
9.38075e-09
-1.37569e-09
2.96866e-09
-1.47925e-09
-1.1373e-10
-4.08943e-09
2.2673e-09
1.42128e-09
4.00923e-10
-4.34035e-09
2.63799e-09
-2.8068e-10
-2.07262e-09
-3.87287e-10
-1.25769e-10
-3.27639e-09
3.5429e-09
4.49013e-09
-4.75665e-09
2.56517e-09
8.34713e-10
-4.80476e-09
2.14537e-09
2.21745e-10
-2.09453e-09
-2.72583e-10
8.73064e-09
-5.19704e-09
2.69632e-09
-6.22987e-09
2.49459e-09
2.71426e-09
-2.09432e-11
-4.75673e-09
2.58519e-09
2.23095e-09
-5.93759e-11
2.55225e-09
-1.94411e-09
2.37576e-09
-2.98384e-09
1.81974e-09
2.88184e-09
-2.60543e-09
-2.09601e-09
3.51577e-09
-3.74132e-09
-6.16043e-09
6.38597e-09
-2.98755e-09
-1.33665e-10
3.04306e-09
7.81475e-11
3.07618e-09
-3.48003e-09
1.4487e-10
2.58993e-10
-9.24527e-09
-1.22977e-09
2.2172e-09
8.25779e-09
4.09313e-09
-6.17878e-09
1.95381e-09
1.3185e-10
2.68196e-09
4.0008e-09
-1.46888e-09
-5.21389e-09
8.65128e-10
2.45945e-09
-2.74952e-09
-2.40806e-09
4.00796e-10
2.40798e-09
-5.40186e-09
2.44387e-10
2.21695e-09
-5.09001e-09
2.89858e-09
-2.54834e-11
5.4056e-09
2.31903e-09
-3.2801e-09
-4.44448e-09
9.70392e-11
-2.78989e-09
-1.95786e-10
-1.89698e-10
1.99378e-09
-1.69575e-09
-1.08374e-10
2.09216e-09
-2.06756e-09
1.11157e-10
-1.35734e-10
-1.7435e-09
-1.9295e-09
-1.64493e-09
-8.73179e-09
-1.87753e-09
6.05078e-09
4.55858e-09
-1.88082e-09
3.81117e-10
1.93412e-09
-3.5791e-09
-6.40139e-10
6.26182e-09
-2.04259e-09
-2.50604e-09
-2.42204e-09
3.90824e-09
-4.50765e-11
-1.76009e-09
-2.58501e-10
2.06368e-09
-4.38254e-09
-2.11542e-09
8.39961e-10
-2.15241e-09
-1.4525e-09
8.88815e-09
3.75233e-10
-8.09553e-09
7.37744e-09
3.42846e-10
1.87667e-09
-2.40414e-09
3.96444e-09
-3.43697e-09
-3.88408e-09
-2.15356e-10
2.51146e-10
1.06781e-09
1.09946e-09
-3.53961e-09
1.37232e-09
3.27432e-09
-7.9828e-10
1.02544e-09
-3.50151e-09
-1.61228e-09
-1.7044e-09
8.10012e-09
-4.78346e-09
-4.53865e-09
2.32074e-09
2.51728e-09
-2.99379e-10
3.72148e-09
-1.65779e-09
-1.95135e-09
-1.12372e-10
-3.45784e-09
5.86866e-09
2.54709e-09
-4.95792e-09
2.2281e-09
1.27316e-10
-2.10525e-09
-2.50171e-10
-2.80744e-09
-1.58605e-09
4.57059e-09
-1.77099e-10
-2.58317e-11
-1.35181e-09
-2.29689e-10
-2.99961e-09
-1.27148e-09
4.44954e-09
-1.78426e-10
-2.65764e-09
2.82971e-09
-2.12263e-09
1.95056e-09
7.59128e-09
-2.56077e-09
-8.42089e-10
1.49744e-09
-3.37676e-09
4.15944e-11
1.68412e-09
-1.47275e-09
3.09833e-09
-3.30968e-09
-9.11295e-10
4.39566e-09
-3.90634e-09
4.22001e-10
3.85511e-10
-2.34248e-09
4.90183e-09
-2.94484e-09
-5.0902e-12
3.06207e-09
5.51765e-11
-5.40977e-09
-7.82344e-09
8.94494e-09
-2.44358e-10
-5.38646e-09
5.84295e-09
-2.12105e-10
6.29378e-09
-5.42608e-09
-1.03023e-09
1.62524e-10
-5.78316e-12
1.74935e-09
-2.02806e-09
-1.1324e-09
1.6749e-09
-4.77697e-09
5.05759e-09
-3.2897e-09
2.87834e-09
-4.64617e-09
2.49017e-09
-1.54758e-09
2.07583e-09
-3.01836e-09
2.21153e-09
1.50036e-09
-3.63611e-09
-7.56003e-11
-7.37461e-10
-3.60927e-09
-1.7654e-10
4.52326e-09
4.33452e-09
-1.55062e-09
-6.01902e-09
3.23514e-09
6.35383e-09
-5.69165e-09
6.33909e-10
-1.29609e-09
3.48209e-09
-1.04009e-09
-2.29051e-09
-1.51494e-10
4.17856e-09
-2.21041e-10
-3.057e-09
-9.00555e-10
-3.95063e-09
-2.90096e-09
4.25475e-09
2.59683e-09
-8.58053e-10
-2.8732e-09
3.85681e-09
-1.25608e-10
-9.74645e-10
1.47984e-09
5.69397e-09
5.10393e-09
-5.14659e-09
-5.65128e-09
-3.40272e-09
2.63169e-10
2.83766e-09
3.01895e-10
2.47694e-09
-2.19626e-09
-2.32708e-10
-1.54483e-10
1.35794e-09
-2.77824e-09
1.57468e-09
2.64002e-10
1.4091e-09
-1.44102e-09
-2.32131e-10
-4.82977e-09
3.08189e-09
-2.58391e-10
2.84028e-09
8.99848e-10
1.07493e-09
-4.81497e-09
-3.46045e-09
4.5613e-09
3.50332e-09
-6.62298e-09
2.86477e-09
-2.33842e-09
6.09658e-09
-3.41358e-09
-2.31456e-09
-8.9484e-10
1.59763e-09
-3.84342e-09
2.55689e-09
-3.11116e-10
-3.70306e-09
1.8827e-09
-3.10412e-10
2.13349e-09
-1.40492e-09
-8.90821e-10
-3.86157e-09
2.55117e-09
1.89374e-09
4.28703e-09
-2.73661e-09
-1.78837e-09
2.37954e-10
5.37651e-09
4.18638e-09
-2.53051e-09
-7.03237e-09
5.7024e-09
-1.04274e-08
6.91006e-10
4.03399e-09
-4.54827e-09
-2.55525e-09
3.45432e-09
3.64919e-09
-3.89132e-09
-2.22304e-09
2.28751e-09
-3.49037e-10
2.28711e-09
-3.4333e-09
1.49521e-09
2.59328e-09
1.90596e-11
-2.78408e-10
2.37951e-09
2.31252e-09
-1.8473e-10
-1.79434e-09
-2.09242e-09
3.71183e-09
1.75106e-10
-1.97708e-09
2.51291e-09
-7.592e-10
2.23513e-10
-5.60014e-09
2.45922e-09
3.50499e-09
-3.64049e-10
-7.73944e-09
3.17634e-09
4.09895e-09
4.64147e-10
6.19503e-10
-2.26864e-09
1.87091e-09
-2.21786e-10
3.58274e-09
-3.0691e-09
2.61301e-09
-3.12664e-09
-2.07971e-09
-4.07122e-09
7.87414e-09
-1.48535e-09
-3.762e-09
-2.62679e-09
4.49946e-10
3.32967e-09
-1.9652e-09
4.77765e-09
-2.71373e-09
-9.87124e-11
-2.18283e-09
2.69632e-09
-3.15235e-10
-1.9826e-10
2.09922e-09
-2.32755e-10
-1.37441e-09
2.57141e-09
-3.37579e-09
2.17878e-09
1.63385e-09
-9.30385e-10
-1.89634e-10
-7.5729e-10
-6.96174e-10
-4.60733e-09
-5.10807e-09
3.79837e-09
2.81225e-09
1.56795e-09
-2.00715e-09
7.42816e-10
-3.03664e-10
1.09121e-09
5.05328e-09
-1.00152e-09
-5.14299e-09
-1.61098e-09
3.55485e-09
-5.99362e-09
4.04975e-09
1.62339e-09
1.1948e-09
-2.87842e-09
6.03054e-11
3.41038e-09
-5.45935e-09
4.99362e-10
1.54958e-09
3.29741e-09
2.25588e-10
-3.74918e-09
2.26181e-10
-5.48169e-09
8.09218e-10
-1.69003e-09
6.36252e-09
1.02766e-09
2.37189e-09
-3.49556e-09
9.60247e-11
-4.07978e-09
-1.87522e-09
2.45476e-09
3.50025e-09
-3.0001e-09
-2.45391e-09
1.01273e-09
4.44128e-09
-6.45886e-09
3.69577e-09
8.59858e-09
-5.83549e-09
3.22171e-09
-3.71756e-09
4.85438e-10
1.03848e-11
3.10214e-09
-4.77983e-11
-3.12082e-09
6.64733e-11
-2.06216e-09
7.40868e-09
-8.9149e-10
-1.7334e-09
4.30955e-09
9.74496e-10
-7.18404e-10
-1.15366e-09
2.10948e-09
-2.37431e-10
3.07718e-10
-8.17173e-09
-1.93811e-10
8.0578e-09
-3.25741e-09
-4.78943e-09
1.57318e-09
6.47367e-09
2.14268e-09
-4.71024e-09
2.4382e-09
1.29398e-10
-1.95827e-09
3.37502e-09
3.86491e-10
4.58377e-10
3.82079e-09
-4.3959e-09
1.16741e-10
8.12578e-09
-3.44394e-10
-7.99944e-09
2.18037e-10
5.35884e-09
-8.41135e-10
-5.32446e-09
8.06779e-10
6.86259e-09
4.77644e-09
-7.53011e-09
-4.10891e-09
6.74839e-10
-2.56434e-09
3.68536e-09
-1.79584e-09
-3.29927e-09
1.80613e-09
1.98979e-09
-4.96643e-10
-3.53707e-09
3.68899e-10
3.91142e-09
1.20067e-09
-2.55067e-09
-3.92247e-10
-2.45591e-09
1.57862e-09
5.63962e-09
-1.91553e-09
-5.82184e-10
1.29954e-09
1.19816e-09
-1.80481e-09
1.71126e-09
-1.50669e-10
2.44234e-10
8.24549e-09
-4.9778e-10
-8.01875e-09
2.7104e-10
-2.75318e-09
1.06475e-09
4.89379e-09
-2.39057e-09
5.8502e-09
3.37462e-09
-6.83424e-09
6.83401e-09
-3.44828e-09
-3.51743e-09
1.3171e-10
-3.62771e-09
5.88257e-10
-1.04032e-09
-2.60534e-09
1.57715e-09
1.41927e-09
-3.91071e-10
2.44029e-09
-4.5408e-09
6.47082e-10
-2.82705e-09
6.93443e-11
9.56046e-10
1.80164e-09
3.55396e-09
6.19219e-09
-1.7812e-09
2.76369e-09
-1.52119e-09
-1.35751e-09
1.15018e-10
-2.681e-09
-6.56231e-10
3.17769e-09
1.59528e-10
-2.69506e-09
-2.20958e-09
1.47247e-09
1.13185e-09
-1.57548e-10
1.39484e-09
-1.38513e-09
-1.63907e-09
1.62973e-09
-8.35329e-09
2.57752e-09
2.66099e-09
3.1148e-09
5.38406e-09
4.55415e-09
-2.72095e-09
-7.21725e-09
3.32589e-09
3.45997e-09
-1.40166e-09
4.14814e-09
7.62171e-11
-8.06666e-09
3.84237e-09
6.17082e-09
-3.47488e-09
-3.08319e-09
3.87244e-10
8.15468e-09
-1.60119e-09
3.59912e-09
-6.751e-09
6.02567e-09
-4.54385e-09
-2.03212e-09
6.68352e-09
1.95162e-09
-2.8477e-09
1.21886e-09
-3.22822e-10
-1.53016e-09
1.43526e-09
2.5784e-10
-1.62975e-10
2.19359e-09
-1.90713e-09
-1.3941e-10
-1.47051e-10
1.14964e-09
-3.43991e-09
-1.25888e-10
1.92054e-09
1.54572e-09
-3.56145e-09
9.53059e-11
2.66473e-09
1.18051e-09
-3.79023e-09
-5.50083e-11
-7.79733e-09
5.03209e-09
6.44902e-09
4.29604e-09
-1.01761e-09
-3.65132e-09
3.72894e-10
-3.60538e-09
2.13927e-10
-3.81933e-09
7.21081e-09
-3.5094e-09
4.69373e-09
1.91905e-09
-3.10336e-09
4.3481e-09
-8.90175e-11
-9.2165e-09
1.28934e-09
4.22858e-09
3.69865e-09
-2.63909e-09
1.2854e-09
1.75919e-09
-4.05507e-10
-5.87623e-09
1.13279e-08
-5.814e-09
3.62294e-10
-4.21039e-09
4.63352e-09
-1.11363e-09
6.9051e-10
5.85728e-09
-6.29778e-09
-3.11488e-09
3.55541e-09
6.94513e-10
-1.90531e-09
1.4853e-09
-2.74416e-10
-3.58928e-09
-1.12967e-09
2.25754e-09
2.46143e-09
-6.94058e-09
5.82946e-09
1.15153e-09
-4.03739e-11
2.53733e-09
-2.90153e-09
1.31432e-10
2.32765e-10
-1.03998e-09
-4.73508e-09
4.01541e-09
1.75966e-09
2.05442e-09
-1.30161e-09
-1.33331e-10
1.5574e-09
-1.04012e-09
-3.84987e-10
-1.32302e-10
3.11972e-09
-6.23648e-09
7.60675e-11
3.04065e-09
-2.10409e-10
-3.02939e-09
3.03652e-09
2.03274e-10
2.58835e-09
2.82995e-09
-5.32521e-09
-9.3069e-11
-2.40819e-09
2.7778e-09
-2.9575e-10
-7.38898e-11
3.29002e-09
1.17858e-09
-2.90074e-10
3.4555e-09
-1.63111e-09
1.70822e-12
-1.82613e-09
1.57555e-09
2.03864e-09
9.0574e-10
-4.51997e-09
-2.57339e-09
-1.78173e-11
4.24475e-09
-4.65961e-09
1.27303e-10
2.87558e-10
-2.16673e-09
4.26346e-10
-6.39076e-09
8.13112e-09
-4.68826e-09
1.57914e-09
-2.47959e-09
5.58874e-09
1.01007e-09
4.77127e-09
-2.82147e-09
1.42746e-09
1.75036e-09
-3.56308e-10
-3.38972e-09
1.62997e-09
-4.23093e-10
-4.67005e-09
1.41375e-09
-3.24163e-09
6.49795e-09
-5.07653e-09
-4.36051e-09
9.23932e-09
1.97779e-10
-2.51008e-09
3.92233e-09
-1.54624e-09
1.34011e-10
6.64308e-09
-3.58615e-09
-6.04597e-09
2.98904e-09
2.883e-09
7.59455e-10
2.25226e-09
-5.89469e-09
-1.03585e-09
-3.14539e-09
1.64237e-10
-2.77381e-09
1.74022e-10
1.88691e-10
3.29954e-09
-1.98218e-10
4.35056e-10
1.27209e-09
-1.49754e-10
3.79335e-09
-2.18584e-10
3.6751e-11
-1.40033e-09
1.49226e-09
-1.28661e-10
1.96716e-09
-2.18719e-10
2.8538e-09
-3.16437e-09
-1.51284e-10
3.5478e-09
4.35095e-09
-5.31352e-09
2.38357e-09
-2.28137e-09
-1.36883e-10
3.89055e-11
2.13051e-09
-2.03024e-09
-1.3916e-10
-2.33523e-09
2.63815e-09
3.79817e-09
2.75131e-10
-4.17384e-09
1.00532e-10
-3.01352e-10
3.94642e-09
1.53092e-10
-8.11061e-10
5.04515e-09
-4.48513e-09
2.51062e-10
3.51667e-09
7.05232e-10
1.02371e-10
-6.5645e-10
3.98359e-09
9.59899e-10
-4.94231e-09
7.33448e-10
4.05123e-09
1.57633e-10
1.57525e-09
-3.75257e-09
7.1214e-09
-4.94409e-09
4.00304e-09
7.51789e-09
-2.13761e-09
-9.38338e-09
6.00642e-10
2.67578e-09
3.35896e-09
-6.63537e-09
7.4389e-09
1.46442e-09
-2.75863e-09
-6.1447e-09
-5.40774e-09
8.47714e-10
-6.38657e-09
2.87037e-09
1.76445e-09
7.34989e-09