/*--------------------------------*- C++ -*----------------------------------*\
| =========                 |                                                 |
| \\      /  F ield         | OpenFOAM: The Open Source CFD Toolbox           |
|  \\    /   O peration     | Version:  v1612+                                |
|   \\  /    A nd           | Web:      www.OpenFOAM.com                      |
|    \\/     M anipulation  |                                                 |
\*---------------------------------------------------------------------------*/
FoamFile
{
    version     2.0;
    format      ascii;
    class       volVectorField;
    location    "100";
    object      wallShearStress;
}
// * * * * * * * * * * * * * * * * * * * * * * * * * * * * * * * * * * * * * //

dimensions      [0 2 -2 0 0 0 0];

internalField   uniform (0 0 0);

boundaryField
{
    WALL
    {
        type            calculated;
        value           nonuniform List<vector> 
1487
(
(0.0131984 0.00828814 0.00663267)
(0.0124939 0.00743689 0.00589765)
(0.0121069 0.00606177 0.00522105)
(0.0129546 0.00694682 0.0058733)
(0.0106861 0.00438844 0.00465591)
(0.0107398 0.0046639 0.00455291)
(0.0114181 0.00530009 0.0049142)
(0.0110907 0.00535216 0.00456107)
(0.0107769 0.00378986 0.00582241)
(0.0124134 0.00450149 0.00672866)
(0.00894558 0.00300332 0.00477147)
(0.00963435 0.00340632 0.00470205)
(0.00978698 0.00335356 0.00477935)
(0.00906807 0.00276701 0.00513024)
(0.0105114 0.00294969 0.00604032)
(0.0105116 0.00350761 0.00588859)
(0.0178213 0.00804487 0.0117017)
(0.0172658 0.00782858 0.0113362)
(0.0118455 0.00518709 0.00398337)
(0.0107731 0.00459219 0.00402124)
(0.0131662 0.00647242 0.00477656)
(0.017146 0.00694609 0.00855211)
(0.0153821 0.00732613 0.00678211)
(0.017331 0.0065928 0.00924819)
(0.0160299 0.00640895 0.00774908)
(0.0161326 0.0100792 0.00505745)
(0.0141912 0.00903696 0.00542227)
(0.0154556 0.00817321 0.00630091)
(0.021697 0.0107005 0.00585088)
(0.0192115 0.0106524 0.00534063)
(0.0161899 0.00585118 0.00875149)
(0.0159694 0.00556648 0.0086687)
(0.0118794 0.00621494 0.00440336)
(0.0131394 0.00726397 0.00528437)
(0.0102719 0.00389141 0.00393292)
(0.01019 0.0037538 0.00400271)
(0.0130832 0.00770687 0.00486348)
(0.0132782 0.00789286 0.00488559)
(0.00807534 0.0026009 0.00487819)
(0.00804641 0.00252218 0.00469701)
(0.00744392 0.0028162 0.00448604)
(0.0070354 0.00237687 0.00368883)
(0.0109775 0.00495301 0.0043842)
(0.0118876 0.00560923 0.00452578)
(0.0107521 0.00449722 0.00418382)
(0.0104872 0.00437554 0.00391628)
(0.0105236 0.00449723 0.00467886)
(0.0104943 0.00386265 0.00530083)
(0.0193957 0.00901813 0.00661496)
(0.0203808 0.0103855 0.00738232)
(0.0242057 0.00673142 0.0122068)
(0.0224626 0.00716421 0.012425)
(0.0178489 0.0107536 0.00501863)
(0.0189235 0.0105598 0.00486071)
(0.0116185 0.00770303 0.00576514)
(0.0125612 0.00814288 0.00574463)
(0.0129858 0.00877942 0.00571068)
(0.0122042 0.00799501 0.00611005)
(0.0132532 0.00862647 0.00621459)
(0.0113572 0.007352 0.0059963)
(0.0175216 0.00493514 0.00983286)
(0.0183657 0.00575238 0.0107474)
(0.0172744 0.00495437 0.00943779)
(0.0144667 0.00756053 0.00806346)
(0.0142917 0.00780952 0.00794506)
(0.0146299 0.00717515 0.00873455)
(0.0148325 0.00696428 0.00840357)
(0.0133228 0.0068764 0.00739156)
(0.0140733 0.00715946 0.00818862)
(0.0150379 0.00723551 0.00872901)
(0.00747967 0.00252077 0.0042765)
(0.00748767 0.00236223 0.00422403)
(0.00746462 0.00262792 0.00444586)
(0.00743373 0.00257114 0.00430796)
(0.0068821 0.00232155 0.00390491)
(0.0076251 0.00266693 0.00445559)
(0.00922332 0.00322477 0.00461002)
(0.00942365 0.0033086 0.00454577)
(0.00918721 0.00311161 0.00481821)
(0.00878943 0.00304537 0.00431087)
(0.00960494 0.00319791 0.00461639)
(0.00883519 0.00278794 0.00445091)
(0.00792501 0.00254319 0.00431331)
(0.00846384 0.00284847 0.00445221)
(0.00768809 0.0025927 0.0043489)
(0.00807856 0.00279057 0.0040104)
(0.00768549 0.00266503 0.00426649)
(0.00804603 0.00271258 0.00455087)
(0.00811727 0.00332631 0.0048819)
(0.00783503 0.00327101 0.00475083)
(0.0079624 0.00351349 0.00496979)
(0.00788947 0.00366409 0.0049461)
(0.00798645 0.00320336 0.00491877)
(0.008114 0.00333793 0.00484299)
(0.00729877 0.0024185 0.00393447)
(0.00720426 0.00278619 0.00448662)
(0.00715931 0.00252029 0.003943)
(0.00712784 0.00221174 0.00376363)
(0.00717204 0.00230193 0.00382141)
(0.00671032 0.00253877 0.00395157)
(0.00924548 0.00453771 0.00563754)
(0.00922647 0.00481652 0.0059875)
(0.00939679 0.00500324 0.00602926)
(0.00973466 0.0054802 0.00610042)
(0.00962933 0.00576723 0.00595218)
(0.00915012 0.00519892 0.00565047)
(0.0163532 0.00757191 0.0103028)
(0.0167887 0.00759021 0.0109833)
(0.0164424 0.00786891 0.0112033)
(0.0159236 0.0081883 0.0103919)
(0.0156776 0.00739868 0.0104612)
(0.0175387 0.00820965 0.011184)
(0.0169118 0.00832977 0.0113465)
(0.0165834 0.00897697 0.011458)
(0.017588 0.00842652 0.0123779)
(0.0173415 0.00777083 0.0114531)
(0.0191723 0.00897664 0.0125512)
(0.0166707 0.00803454 0.0117071)
(0.00732371 0.00252925 0.0043293)
(0.00724522 0.00226086 0.00391302)
(0.00744485 0.00224098 0.00392413)
(0.00720465 0.00235624 0.00381465)
(0.00705561 0.00243648 0.00381688)
(0.00726848 0.0027314 0.00434116)
(0.00735507 0.00258457 0.00418884)
(0.00728457 0.0027917 0.00451028)
(0.00773372 0.00279219 0.00446516)
(0.00735816 0.00249171 0.00430346)
(0.00720626 0.00268321 0.00440826)
(0.0075809 0.00268444 0.00441586)
(0.00753373 0.00300186 0.00463077)
(0.00754778 0.00286322 0.00455314)
(0.00762886 0.00303318 0.00461192)
(0.00749464 0.00286831 0.00452031)
(0.00778839 0.00260239 0.00453836)
(0.00830106 0.00397648 0.0052638)
(0.00874959 0.00404076 0.00550126)
(0.00891844 0.00415413 0.00556752)
(0.00881596 0.003996 0.00566924)
(0.00923511 0.00457972 0.00583608)
(0.00909611 0.00445641 0.00567923)
(0.00780353 0.00280982 0.00491799)
(0.007687 0.00271048 0.004897)
(0.00747017 0.00261635 0.0041051)
(0.00730505 0.00254121 0.00410788)
(0.0076566 0.0026297 0.00422355)
(0.0075395 0.00264693 0.00417314)
(0.00751282 0.00260279 0.00437468)
(0.0076796 0.00269659 0.00464097)
(0.00782487 0.00262453 0.00450146)
(0.00846627 0.00267612 0.00489415)
(0.00777718 0.00271403 0.00457776)
(0.00782394 0.00260436 0.00410493)
(0.00834784 0.00284517 0.00484596)
(0.0103854 0.00445229 0.00396539)
(0.00946197 0.00357764 0.00420712)
(0.0100138 0.00392113 0.0042127)
(0.0103931 0.00447767 0.00396901)
(0.0104132 0.00423792 0.00432937)
(0.00962723 0.00377362 0.00422254)
(0.00901917 0.00321559 0.00430065)
(0.0095867 0.00361516 0.00394345)
(0.00925271 0.00342663 0.00375395)
(0.00852739 0.00301663 0.00383095)
(0.00952523 0.00331912 0.00414131)
(0.0116358 0.0057502 0.00502352)
(0.0114075 0.0054074 0.00446573)
(0.0110535 0.00477783 0.00435491)
(0.0123101 0.0063035 0.00487059)
(0.0112493 0.00485416 0.00472624)
(0.0110509 0.00505361 0.00445924)
(0.00823347 0.0029347 0.00382134)
(0.00928124 0.00305723 0.00424571)
(0.00805295 0.00269027 0.00355575)
(0.008752 0.00324941 0.00375838)
(0.00906207 0.0034034 0.00381402)
(0.00923133 0.00311211 0.00432273)
(0.00927549 0.0032479 0.00414724)
(0.00977406 0.00369225 0.00445144)
(0.00951258 0.00335643 0.00444998)
(0.00919538 0.00333895 0.00398414)
(0.00914356 0.00316076 0.00411751)
(0.0130219 0.007744 0.00485364)
(0.0124124 0.00647623 0.00422876)
(0.0122712 0.00632711 0.00432576)
(0.0123031 0.00699355 0.00453883)
(0.0129463 0.00683661 0.00492188)
(0.0102068 0.00415369 0.00391755)
(0.0104307 0.00427542 0.00434164)
(0.0109553 0.00478209 0.00408447)
(0.01024 0.00392896 0.00426621)
(0.0112233 0.0050817 0.00415316)
(0.0113656 0.00524313 0.00392169)
(0.00849103 0.00255681 0.00456714)
(0.0083108 0.00261975 0.00501694)
(0.00922866 0.00281697 0.00492542)
(0.00846957 0.00279452 0.00453929)
(0.0082102 0.00250534 0.00462762)
(0.010473 0.00362112 0.00482651)
(0.00975215 0.00340327 0.00420562)
(0.0104539 0.00393817 0.0045712)
(0.00961592 0.0032095 0.00439195)
(0.00990041 0.00303036 0.00486968)
(0.0100096 0.00331081 0.00459886)
(0.0136445 0.00606114 0.00769639)
(0.0139705 0.00608964 0.00776912)
(0.0136518 0.00613526 0.00769269)
(0.0135803 0.00612632 0.00774242)
(0.0136637 0.00667012 0.00768493)
(0.0133262 0.00586395 0.00728409)
(0.0121419 0.00347162 0.00694564)
(0.0126233 0.00367436 0.0073292)
(0.0128139 0.00386331 0.00733045)
(0.0125529 0.00367793 0.00714905)
(0.0126485 0.00397814 0.00728189)
(0.0120464 0.00360817 0.0069712)
(0.0108969 0.00434307 0.00509351)
(0.0109308 0.00462315 0.00519191)
(0.00994241 0.00391868 0.00453173)
(0.0106186 0.00443975 0.00513764)
(0.00999277 0.00405775 0.00457714)
(0.0103568 0.00422086 0.00453931)
(0.01142 0.00598879 0.00519024)
(0.0112527 0.00532507 0.00495428)
(0.0115519 0.0058896 0.00518364)
(0.0108367 0.00484979 0.00500338)
(0.0116345 0.0053803 0.0055395)
(0.0121422 0.00561212 0.0057243)
(0.0122005 0.00465348 0.00630527)
(0.0119565 0.00508566 0.00615826)
(0.0127526 0.00535155 0.00706439)
(0.0118128 0.00509972 0.00640667)
(0.0128603 0.0055621 0.0068816)
(0.0120538 0.00467836 0.00648755)
(0.0126523 0.00614325 0.0065201)
(0.0129413 0.00605774 0.00670889)
(0.0116923 0.00575553 0.00578843)
(0.012392 0.00629072 0.00664604)
(0.0125924 0.0063407 0.00663344)
(0.011676 0.00590767 0.00577909)
(0.00957797 0.00339541 0.00483709)
(0.0101157 0.00374332 0.00486306)
(0.0105991 0.00386945 0.00532607)
(0.0107522 0.0045765 0.00464285)
(0.00969641 0.00371729 0.00493262)
(0.0101957 0.0039196 0.00479952)
(0.00918152 0.00324082 0.00430085)
(0.00893405 0.00328472 0.0039748)
(0.00928101 0.00323669 0.00420348)
(0.00931334 0.0034992 0.0041337)
(0.00948431 0.00349975 0.00442787)
(0.00964498 0.00363942 0.00445319)
(0.0110322 0.0045415 0.00529952)
(0.0103161 0.00430939 0.00496067)
(0.0102186 0.00393636 0.00496699)
(0.0115435 0.00473175 0.00569279)
(0.0111519 0.00406685 0.00603569)
(0.0113596 0.00388516 0.00607558)
(0.0111096 0.00385381 0.00623998)
(0.0111654 0.00371914 0.00615346)
(0.0113436 0.00350694 0.0065274)
(0.0106075 0.00319098 0.00598179)
(0.0118249 0.00372636 0.00657953)
(0.00820471 0.00266481 0.00438087)
(0.00851287 0.00255474 0.00460187)
(0.00785956 0.00249167 0.0040843)
(0.00850713 0.0028756 0.00430663)
(0.00820675 0.00259581 0.00444427)
(0.00959927 0.00341444 0.00493306)
(0.00870663 0.00277495 0.00469967)
(0.00948674 0.00274183 0.00549972)
(0.00893715 0.00293987 0.00504655)
(0.00944251 0.00305998 0.00517441)
(0.00907321 0.00284868 0.0047264)
(0.00781256 0.00235262 0.00397996)
(0.00751601 0.00209653 0.00356614)
(0.00764022 0.00216065 0.00384585)
(0.00805671 0.0022302 0.00395022)
(0.00772286 0.00232518 0.0038829)
(0.00763026 0.00224278 0.00399378)
(0.00720448 0.00234409 0.00398604)
(0.00708538 0.00232109 0.00391231)
(0.00717834 0.00245904 0.00414246)
(0.0073356 0.00231808 0.00397889)
(0.00736812 0.0022044 0.0038207)
(0.00723062 0.00233029 0.00413897)
(0.00770713 0.00254055 0.00391678)
(0.0074628 0.00240746 0.00392227)
(0.00786282 0.00262162 0.00422816)
(0.00759007 0.00236912 0.00406057)
(0.00691797 0.00220371 0.00389294)
(0.0143009 0.00722555 0.00903969)
(0.0156722 0.00742659 0.00985259)
(0.0157597 0.00763608 0.0102004)
(0.0154784 0.00766883 0.0102549)
(0.0150662 0.00710784 0.00935312)
(0.0150206 0.00699314 0.00966845)
(0.0151133 0.0052321 0.00859227)
(0.0150449 0.00535837 0.00868431)
(0.0152456 0.00489721 0.00858425)
(0.0156691 0.00557952 0.00904212)
(0.0146573 0.00512441 0.00849804)
(0.0147307 0.00479888 0.00841427)
(0.0130308 0.00370444 0.00757518)
(0.013935 0.0037437 0.00782244)
(0.0140412 0.00443122 0.00816189)
(0.0128969 0.00399637 0.00731021)
(0.0148755 0.00412024 0.00833943)
(0.0140387 0.00457114 0.00829769)
(0.0240046 0.00749196 0.00968573)
(0.0224253 0.00745662 0.00815248)
(0.0253003 0.00873474 0.0105311)
(0.0231463 0.00808237 0.0122328)
(0.0244863 0.00765143 0.0106164)
(0.0100882 0.00600423 0.00593526)
(0.00966209 0.00540446 0.00588559)
(0.0107959 0.00647845 0.00612207)
(0.0108804 0.00721343 0.00611721)
(0.010641 0.00640632 0.00601842)
(0.0102691 0.00566419 0.00605055)
(0.0163286 0.00990502 0.00553653)
(0.015394 0.00930252 0.00585239)
(0.0179728 0.0108962 0.00447098)
(0.0193394 0.0102119 0.00549559)
(0.0135496 0.00865892 0.0062516)
(0.0123338 0.00801396 0.00589119)
(0.0133384 0.00919127 0.00556255)
(0.0119069 0.00800492 0.00579307)
(0.0134125 0.00905045 0.00555409)
(0.0113912 0.00744428 0.00561574)
(0.0110649 0.00676368 0.00619404)
(0.0112425 0.00731017 0.00603053)
(0.0112497 0.00736828 0.00621301)
(0.0106541 0.00649007 0.006195)
(0.0101608 0.00601216 0.00598835)
(0.0102157 0.00630781 0.00592617)
(0.0201576 0.00733513 0.012421)
(0.0199123 0.00794269 0.0129695)
(0.0189144 0.00756223 0.0127106)
(0.0206034 0.0075084 0.0120483)
(0.019517 0.00735565 0.0122947)
(0.0178056 0.00590609 0.0103965)
(0.0205629 0.00698687 0.0114174)
(0.0194932 0.0068149 0.0113954)
(0.018261 0.00558232 0.00963827)
(0.0199115 0.00632266 0.0106774)
(0.0195511 0.00632769 0.0107442)
(0.0199293 0.00603687 0.0107898)
(0.0208704 0.00682521 0.0117611)
(0.0208776 0.00689658 0.0110329)
(0.0203677 0.00644964 0.00984259)
(0.0216147 0.00734348 0.0107024)
(0.0218971 0.00726996 0.010792)
(0.0215166 0.00679482 0.0110446)
(0.0197359 0.0066607 0.0106508)
(0.0209166 0.0070672 0.00927933)
(0.021306 0.00724313 0.0101451)
(0.0222166 0.00780031 0.00985779)
(0.0225456 0.00736549 0.0100033)
(0.0195161 0.00633898 0.0100043)
(0.01921 0.00616031 0.00996847)
(0.0186642 0.00624089 0.00988662)
(0.019214 0.00620989 0.0097999)
(0.0187235 0.00598723 0.00950876)
(0.0195784 0.00681425 0.00976372)
(0.0193298 0.00645928 0.00962216)
(0.0196934 0.00666856 0.0098068)
(0.0188829 0.00659092 0.00895805)
(0.0193797 0.00641092 0.00926125)
(0.0188577 0.00624105 0.00948866)
(0.0219022 0.0100141 0.00609292)
(0.0217126 0.00988941 0.00650753)
(0.0205747 0.0100515 0.00597105)
(0.0196493 0.0107156 0.00529437)
(0.0186322 0.00982368 0.00549799)
(0.0186437 0.0101738 0.00548704)
(0.0231101 0.00970086 0.00697413)
(0.0226474 0.00921946 0.00620047)
(0.0243625 0.00893007 0.00817358)
(0.0247307 0.00933295 0.00811038)
(0.023071 0.00949298 0.00698918)
(0.0238311 0.00835387 0.00805113)
(0.0220965 0.00806501 0.0131527)
(0.0212546 0.00802397 0.0135075)
(0.0208082 0.0072963 0.012454)
(0.0224023 0.00780888 0.0126787)
(0.0219423 0.007392 0.0122336)
(0.0198745 0.00651255 0.011413)
(0.018594 0.00922461 0.0133759)
(0.0185718 0.00859422 0.0126131)
(0.0197431 0.00866221 0.013206)
(0.0190022 0.00833248 0.0131932)
(0.0181686 0.00706827 0.0116341)
(0.0203911 0.00766056 0.0120472)
(0.0196694 0.00785661 0.0127488)
(0.0206958 0.00832673 0.0133409)
(0.0198231 0.00837241 0.0132336)
(0.02083 0.00753778 0.0124502)
(0.0192556 0.00760498 0.0124733)
(0.020664 0.00855647 0.0138624)
(0.0102903 0.00555239 0.00599696)
(0.00982961 0.00456212 0.00578347)
(0.0095109 0.00453618 0.00578343)
(0.00925815 0.00469508 0.00541117)
(0.0103757 0.00525937 0.00610337)
(0.0101424 0.00514472 0.00586652)
(0.0213912 0.00797842 0.00812697)
(0.0194751 0.00724298 0.00794347)
(0.0194418 0.00735496 0.00822023)
(0.0192554 0.00773592 0.00748296)
(0.0198266 0.00780343 0.00770569)
(0.0179191 0.00711119 0.00731155)
(0.0213496 0.00820901 0.00828396)
(0.0221556 0.00957106 0.00848249)
(0.0217365 0.00806935 0.00875832)
(0.0200938 0.00826215 0.00732456)
(0.0207534 0.00895039 0.00833861)
(0.0220651 0.00867491 0.00864876)
(0.0146637 0.00872829 0.00613217)
(0.0155534 0.00908968 0.00646508)
(0.0140797 0.00888692 0.00591301)
(0.0159976 0.00936931 0.0059793)
(0.0133461 0.00833235 0.00565966)
(0.0175562 0.00620945 0.0083716)
(0.0163776 0.0061456 0.0078903)
(0.017033 0.00577631 0.00912242)
(0.0180812 0.00661131 0.00865792)
(0.0186048 0.00689182 0.00867557)
(0.0158088 0.0059496 0.00793701)
(0.0149184 0.00601571 0.007558)
(0.0139927 0.00547159 0.00704825)
(0.0163175 0.00662083 0.00750966)
(0.0153415 0.00475991 0.00872341)
(0.0154442 0.00587409 0.00795394)
(0.0178009 0.00787334 0.006986)
(0.0178704 0.00843746 0.00704914)
(0.0190409 0.00868826 0.00742238)
(0.0178893 0.0079403 0.00723926)
(0.0136971 0.00713066 0.00640392)
(0.014714 0.00758782 0.006483)
(0.0130895 0.00697423 0.0063968)
(0.0141668 0.00676988 0.00716825)
(0.0141838 0.00706686 0.00624157)
(0.0128636 0.00694778 0.00609159)
(0.0112036 0.00663992 0.0060679)
(0.0119941 0.00682937 0.00612204)
(0.0124603 0.00688428 0.00629758)
(0.0112904 0.00681976 0.00592096)
(0.011365 0.00634935 0.00623251)
(0.0127366 0.00678524 0.00672072)
(0.0137917 0.0064322 0.00657798)
(0.0131353 0.00576872 0.00677938)
(0.0129637 0.00572373 0.00679389)
(0.0138247 0.0064053 0.00701028)
(0.0144783 0.00656387 0.00729355)
(0.0133467 0.00604459 0.00686666)
(0.0115387 0.00552328 0.0063809)
(0.0117574 0.00570578 0.00640659)
(0.0117331 0.00614015 0.00613953)
(0.0109315 0.00531751 0.00607795)
(0.0122596 0.00587371 0.00665672)
(0.0121088 0.00627802 0.00628216)
(0.00919542 0.00322873 0.00540959)
(0.00972206 0.00325947 0.00573645)
(0.00837534 0.00282284 0.00477132)
(0.00840302 0.00302902 0.0049933)
(0.00924373 0.00359142 0.00537582)
(0.008893 0.00329397 0.00506326)
(0.01014 0.0042502 0.00583778)
(0.0101291 0.00445537 0.00596624)
(0.00942112 0.00389475 0.00557999)
(0.009857 0.00404653 0.0058179)
(0.00936742 0.00401699 0.00550361)
(0.00934395 0.00377432 0.00559689)
(0.0153465 0.00978805 0.0108874)
(0.0156272 0.00941101 0.0110366)
(0.0152029 0.0102221 0.00993639)
(0.0151549 0.0101089 0.0100924)
(0.0170938 0.0106032 0.0112683)
(0.0149733 0.00992536 0.0106258)
(0.01459 0.00986372 0.00995706)
(0.0137175 0.00938681 0.00836243)
(0.0142324 0.00904247 0.0086846)
(0.0151786 0.00951954 0.00954537)
(0.0157479 0.00981406 0.0101509)
(0.0141639 0.0090358 0.00958479)
(0.0139617 0.00865444 0.00793439)
(0.0150193 0.00964798 0.00915561)
(0.0144522 0.00813641 0.00883305)
(0.0142558 0.0087177 0.00836047)
(0.013598 0.00826753 0.00760637)
(0.0146416 0.00821065 0.00838415)
(0.0138072 0.00878182 0.0075969)
(0.0137692 0.00906827 0.00763269)
(0.0131632 0.00822404 0.00643114)
(0.0138955 0.00874074 0.00735223)
(0.0129742 0.00782541 0.00600655)
(0.0138959 0.00868448 0.00718166)
(0.0153586 0.0112221 0.00969077)
(0.0160434 0.0120334 0.0100469)
(0.014387 0.0113308 0.0097654)
(0.014822 0.0113482 0.0100234)
(0.0147035 0.0111327 0.00860706)
(0.014209 0.0115128 0.0083435)
(0.0149588 0.0108129 0.00847287)
(0.0145301 0.0106801 0.00868295)
(0.0137494 0.0103022 0.00717592)
(0.0148105 0.0108624 0.00817629)
(0.0150507 0.0115095 0.00925966)
(0.0168931 0.0093706 0.0132714)
(0.0179759 0.0102748 0.0131471)
(0.0175217 0.0108566 0.0137013)
(0.0175006 0.00861923 0.0130816)
(0.0164023 0.00904891 0.012757)
(0.0177754 0.0106368 0.014078)
(0.0152761 0.0107897 0.0113708)
(0.0162901 0.0103477 0.0121986)
(0.0249545 0.00718301 0.0111909)
(0.0245446 0.00720145 0.0100434)
(0.0247248 0.00751188 0.0104559)
(0.0243502 0.00764434 0.00936116)
(0.0248044 0.00720688 0.010824)
(0.019116 0.00875192 0.0131519)
(0.0182599 0.00827594 0.0130209)
(0.0182388 0.00853934 0.0125262)
(0.0175295 0.00892806 0.0127763)
(0.0192765 0.00843547 0.0134316)
(0.0189094 0.0078547 0.0127109)
(0.0170599 0.0109449 0.0120276)
(0.016853 0.0107685 0.0122557)
(0.01659 0.0104909 0.0126736)
(0.0171867 0.0111727 0.0129433)
(0.0151344 0.00983694 0.0114954)
(0.0172396 0.00955014 0.0124939)
(0.0129562 0.00825849 0.00575162)
(0.013368 0.00830681 0.006016)
(0.0132622 0.00869201 0.00602546)
(0.0125091 0.00749001 0.00533985)
(0.0134453 0.00793759 0.0057187)
(0.0128536 0.00735639 0.0054004)
(0.0112349 0.00459627 0.00416608)
(0.0119191 0.00521905 0.00467002)
(0.0120744 0.00522808 0.00483762)
(0.0118867 0.00574769 0.00452029)
(0.0144063 0.0107918 0.00693354)
(0.0143808 0.0105107 0.00716086)
(0.0141258 0.00990612 0.00633187)
(0.0143855 0.00996314 0.00653254)
(0.0145853 0.0110147 0.0074493)
(0.0141517 0.00924885 0.0060036)
(0.0139579 0.00695705 0.00545431)
(0.0139265 0.00776232 0.00557308)
(0.013774 0.0091007 0.00532706)
(0.0140628 0.00956644 0.00541262)
(0.013994 0.00864101 0.00554851)
(0.0136563 0.00759401 0.00526772)
(0.0140876 0.00693416 0.00851416)
(0.0151461 0.00607202 0.00886041)
(0.014635 0.00722382 0.00892272)
(0.0139376 0.0059271 0.00803426)
(0.0151734 0.00646589 0.00924132)
(0.0156075 0.00755827 0.00960527)
(0.00813591 0.00276756 0.00387971)
(0.00919975 0.00269634 0.00454762)
(0.00858748 0.00286099 0.00397476)
(0.00755798 0.00247875 0.00377216)
(0.00834162 0.00262647 0.00418367)
(0.00756873 0.00227238 0.00380905)
(0.00697428 0.00225132 0.00380035)
(0.00714107 0.00222865 0.00377404)
(0.00703965 0.0021992 0.00373913)
(0.00712046 0.00247656 0.00412171)
(0.00722316 0.00216746 0.00373869)
(0.00682236 0.00229229 0.0037129)
(0.00712653 0.00241377 0.00388704)
(0.00717153 0.00230035 0.00356661)
(0.00696997 0.0022375 0.00359643)
(0.00725029 0.00244811 0.00416949)
(0.00725578 0.0024307 0.00390374)
(0.00711867 0.00240415 0.00377941)
(0.012266 0.00677712 0.00534487)
(0.012761 0.00688503 0.00554754)
(0.0125785 0.00660302 0.00544828)
(0.0124444 0.00703099 0.00559226)
(0.0127634 0.00725235 0.00586223)
(0.0133051 0.00786256 0.00719002)
(0.0139026 0.00821618 0.00739451)
(0.0124507 0.00680004 0.00610392)
(0.0124391 0.00629392 0.00624254)
(0.0124406 0.00708519 0.00624328)
(0.0129698 0.00735958 0.00672811)
(0.013382 0.00686162 0.00701819)
(0.0131954 0.00731408 0.0069627)
(0.0109382 0.00482122 0.00490411)
(0.0110612 0.00511465 0.00461825)
(0.0104869 0.00444359 0.00454783)
(0.0112903 0.00496315 0.00496139)
(0.0101887 0.00305174 0.00572889)
(0.0105873 0.00381277 0.00567655)
(0.0105152 0.00385568 0.00531485)
(0.0105828 0.00391866 0.00539866)
(0.0110307 0.00390904 0.00621403)
(0.00995315 0.0035059 0.00539991)
(0.0100022 0.00321344 0.00562398)
(0.0068846 0.00246642 0.00401912)
(0.00734821 0.00246732 0.00376849)
(0.00759122 0.00244913 0.00380365)
(0.00821551 0.00277005 0.00407931)
(0.0147189 0.00607942 0.00841328)
(0.0146157 0.00652282 0.00836764)
(0.0178402 0.00616285 0.0100463)
(0.0160232 0.00731381 0.010062)
(0.0164993 0.00668146 0.0102964)
(0.0170319 0.00792539 0.010751)
(0.0154572 0.00721979 0.00969801)
(0.0151027 0.00625745 0.00875676)
(0.0155411 0.00611696 0.00932314)
(0.0142858 0.00581937 0.0085007)
(0.0148156 0.00599811 0.00877355)
(0.015458 0.00642951 0.009402)
(0.0150527 0.00619667 0.00912883)
(0.0157944 0.00674059 0.00944278)
(0.0146414 0.00640016 0.00876099)
(0.0163957 0.00663332 0.00993439)
(0.0167393 0.00640658 0.0101039)
(0.0161899 0.00635375 0.00994716)
(0.0155832 0.00540798 0.00925221)
(0.0160143 0.00644764 0.00975685)
(0.0163126 0.00618692 0.00961953)
(0.0171715 0.00612358 0.00995171)
(0.0168817 0.00565811 0.00986576)
(0.0172648 0.00747167 0.011179)
(0.0165493 0.00749371 0.0108856)
(0.0158191 0.00608661 0.00983154)
(0.0171931 0.00693459 0.0108204)
(0.0179613 0.00661702 0.0105977)
(0.0179973 0.00685245 0.0109181)
(0.0249769 0.00810168 0.00790548)
(0.0149982 0.0103517 0.006486)
(0.0140971 0.0106134 0.00618719)
(0.00741293 0.00193735 0.00387274)
(0.0132481 0.00476765 0.00734748)
(0.0131705 0.00841826 0.00505033)
(0.0140193 0.00804671 0.00553663)
(0.0135022 0.00953004 0.00549727)
(0.0133387 0.0092541 0.00553059)
(0.0137188 0.00817227 0.00581805)
(0.013152 0.00802264 0.00409094)
(0.0131291 0.00751079 0.0045869)
(0.0123993 0.00696964 0.00420919)
(0.0104907 0.00401264 0.00407672)
(0.0132141 0.00684565 0.00421849)
(0.0127996 0.0079425 0.00538264)
(0.0135001 0.00860347 0.00585033)
(0.0123867 0.00697524 0.00525583)
(0.0127703 0.00812915 0.00524984)
(0.013486 0.00811252 0.00535074)
(0.0210885 0.00823456 0.0140577)
(0.0198387 0.00874307 0.0141879)
(0.0180382 0.00871301 0.0130424)
(0.0185578 0.00832679 0.0133603)
(0.0197333 0.00903252 0.0140316)
(0.0186231 0.0095341 0.0135103)
(0.0188606 0.010038 0.013505)
(0.0176541 0.00840878 0.0126321)
(0.017259 0.00859471 0.0127533)
(0.0188464 0.00876335 0.0134642)
(0.0198528 0.0079891 0.0133118)
(0.0200241 0.00785453 0.0138656)
(0.0179731 0.00792466 0.0129434)
(0.0203382 0.00828605 0.0137175)
(0.0188481 0.00817059 0.0134974)
(0.0199324 0.00732575 0.012939)
(0.0201593 0.00739483 0.0132611)
(0.0212142 0.00727345 0.0137314)
(0.0170859 0.0121598 0.0126465)
(0.0163198 0.0105826 0.0122363)
(0.0156602 0.0109663 0.0123052)
(0.0161361 0.0110576 0.0123353)
(0.0145455 0.00965377 0.00689094)
(0.0139289 0.00990244 0.00694688)
(0.0155163 0.0113073 0.00847857)
(0.015949 0.0114947 0.0112704)
(0.0159728 0.0116164 0.0106671)
(0.0156303 0.0112577 0.00994866)
(0.0157488 0.0110463 0.00803412)
(0.0152448 0.0107668 0.00828552)
(0.016653 0.0113645 0.0114373)
(0.0200072 0.00871714 0.0141334)
(0.0178658 0.00989884 0.0139974)
(0.0186759 0.00958898 0.0141625)
(0.0173479 0.00913404 0.0131829)
(0.018478 0.00890644 0.0135534)
(0.0178197 0.00776915 0.0131775)
(0.0241232 0.00724686 0.0127549)
(0.0247377 0.00677519 0.0119959)
(0.0224033 0.0081254 0.0144458)
(0.0230071 0.00709666 0.0134949)
(0.0206769 0.0074571 0.0136177)
(0.023414 0.00771706 0.0144476)
(0.0217226 0.00835545 0.0148492)
(0.0191877 0.00781933 0.0134811)
(0.0196692 0.00835783 0.0144367)
(0.0217526 0.00743463 0.0140013)
(0.0146363 0.00823126 0.00817738)
(0.0131017 0.00714906 0.00718616)
(0.0140963 0.00760103 0.00813583)
(0.014482 0.00850387 0.00846891)
(0.0134424 0.00742038 0.00691769)
(0.0133829 0.00736045 0.00640546)
(0.0127825 0.00728682 0.00635523)
(0.0127171 0.00715586 0.00569342)
(0.0125988 0.00664754 0.00600906)
(0.0139985 0.00836811 0.00740217)
(0.0130012 0.00788395 0.00660819)
(0.0135322 0.0082833 0.00733647)
(0.0129224 0.00776486 0.00637886)
(0.0128414 0.00807688 0.00631263)
(0.0173574 0.00906349 0.0125648)
(0.0170276 0.00871451 0.0120579)
(0.0181487 0.00979305 0.0126759)
(0.0165411 0.00971701 0.010546)
(0.0153492 0.00900815 0.0102218)
(0.0152468 0.00960209 0.00953239)
(0.0147996 0.00938855 0.00852935)
(0.0157526 0.00893504 0.0109856)
(0.0157085 0.0088597 0.0103554)
(0.0160912 0.00857894 0.0116637)
(0.0167905 0.0097305 0.0125942)
(0.0162954 0.00949671 0.0120069)
(0.0170707 0.0100355 0.0121304)
(0.016414 0.010641 0.0118633)
(0.0172871 0.009449 0.0117954)
(0.0163857 0.0103861 0.0113793)
(0.014342 0.00893876 0.00718799)
(0.0165115 0.0109362 0.0101363)
(0.0147365 0.0102028 0.00882086)
(0.0142519 0.0089071 0.008328)
(0.0144237 0.0100658 0.00813799)
(0.0152625 0.00970991 0.00848527)
(0.0135252 0.00916229 0.00694288)
(0.0135624 0.00935828 0.00682212)
(0.0135132 0.00853303 0.00653306)
(0.0137575 0.00852336 0.00636722)
(0.0149568 0.010386 0.00912912)
(0.0136991 0.0095564 0.00636157)
(0.0144649 0.00981522 0.00718848)
(0.0149873 0.0108917 0.0080438)
(0.0141831 0.0105137 0.00777272)
(0.0133586 0.00897772 0.00629118)
(0.0137215 0.00981857 0.00646962)
(0.0147682 0.0101904 0.00764484)
(0.0137089 0.00943339 0.00623483)
(0.0142373 0.00992446 0.0082024)
(0.014217 0.0104131 0.0082303)
(0.0144244 0.00989289 0.00771953)
(0.0139696 0.0101301 0.00778221)
(0.0138725 0.0093355 0.00706069)
(0.0141011 0.00971781 0.00753272)
(0.0156362 0.0111169 0.00920352)
(0.0148701 0.0102066 0.00915601)
(0.0149595 0.0103714 0.00932312)
(0.014969 0.0105336 0.0105855)
(0.0149089 0.0106433 0.0101149)
(0.0149471 0.0110812 0.00932728)
(0.0145727 0.0108126 0.0102999)
(0.0165453 0.011513 0.0107883)
(0.0147039 0.0103849 0.00957471)
(0.0140757 0.00987878 0.00907664)
(0.015805 0.0106214 0.0106235)
(0.015625 0.0109554 0.0111385)
(0.0100562 0.00359161 0.00571986)
(0.0103408 0.00434407 0.00594927)
(0.00993948 0.00388376 0.00563946)
(0.0102883 0.00351471 0.00592457)
(0.0101455 0.003261 0.00582822)
(0.00800979 0.00282568 0.0045957)
(0.00767282 0.00308473 0.00478839)
(0.00849555 0.00324944 0.00523199)
(0.00818076 0.00332988 0.00500746)
(0.00892804 0.00358881 0.00527092)
(0.0086277 0.00320132 0.00504934)
(0.00875947 0.00243181 0.00494891)
(0.00890745 0.00242318 0.00484483)
(0.00986703 0.00279505 0.00533424)
(0.00922984 0.00229009 0.00508805)
(0.00900612 0.00282337 0.00506625)
(0.00980921 0.00322924 0.00550551)
(0.0101126 0.00357872 0.00584707)
(0.00773274 0.00213917 0.00393349)
(0.00889752 0.00265314 0.00479736)
(0.0076769 0.00249457 0.00424613)
(0.00830173 0.00238955 0.0046325)
(0.00792407 0.00244686 0.00436018)
(0.00862561 0.00326832 0.00525186)
(0.00816046 0.00295536 0.00482922)
(0.0105851 0.0047059 0.00614259)
(0.0108815 0.00376561 0.00635181)
(0.0105108 0.00386887 0.00595544)
(0.0106663 0.00396226 0.00608816)
(0.0106864 0.00451054 0.00612654)
(0.0133633 0.0049585 0.00731746)
(0.0119411 0.00401028 0.00690279)
(0.0128766 0.0047466 0.00727548)
(0.0127336 0.00447884 0.00724498)
(0.0116419 0.00416835 0.00675587)
(0.0130457 0.00476195 0.0072162)
(0.0132656 0.00656905 0.00691729)
(0.0125975 0.0065999 0.00639344)
(0.0135046 0.00471613 0.00744367)
(0.0159124 0.00807001 0.00706486)
(0.0138546 0.00766011 0.00634396)
(0.0138222 0.00733673 0.0066596)
(0.0133176 0.00768182 0.00641667)
(0.0136747 0.00851494 0.00604161)
(0.0194096 0.00787344 0.00856363)
(0.0185633 0.00735779 0.00859095)
(0.02238 0.00845159 0.00902908)
(0.00981655 0.00579341 0.00566547)
(0.0127257 0.00798879 0.00610391)
(0.0114554 0.00653675 0.00625734)
(0.0122945 0.00730061 0.00605429)
(0.0118223 0.00743909 0.00574421)
(0.0107834 0.00639914 0.00579432)
(0.0119652 0.00664641 0.00626963)
(0.0104767 0.00587925 0.00626718)
(0.00896714 0.00501319 0.00555033)
(0.00932186 0.00477807 0.00579832)
(0.00928867 0.00431111 0.00559367)
(0.0102117 0.00461623 0.00589497)
(0.011554 0.00606189 0.00651367)
(0.0103487 0.00602203 0.00584875)
(0.0103594 0.005483 0.00597019)
(0.0103112 0.00566443 0.00578496)
(0.00919272 0.00491691 0.00541196)
(0.00925987 0.00438871 0.00544466)
(0.00816407 0.00334137 0.0049171)
(0.00863234 0.00375401 0.00519353)
(0.00831676 0.00375743 0.00496653)
(0.00831835 0.00404008 0.00509577)
(0.00855699 0.00383549 0.00526923)
(0.0212743 0.00805127 0.0135155)
(0.0228302 0.00803557 0.00960724)
(0.0204821 0.00760334 0.0131355)
(0.0218854 0.00832825 0.0138132)
(0.0224853 0.00765367 0.0132528)
(0.0201232 0.00802218 0.013078)
(0.0231443 0.00777583 0.0110368)
(0.0209774 0.00754918 0.0120776)
(0.0201129 0.00701888 0.0120017)
(0.0223607 0.00732362 0.0113685)
(0.0224995 0.00706051 0.0103265)
(0.0226616 0.00775372 0.0124048)
(0.0207126 0.00679946 0.0113041)
(0.0216732 0.00707098 0.0115451)
(0.0225072 0.00779284 0.0125334)
(0.0209076 0.00701463 0.0115605)
(0.0165758 0.0100763 0.00573591)
(0.0187983 0.00958429 0.00641313)
(0.0180158 0.00988464 0.00604003)
(0.0223351 0.00946535 0.00674847)
(0.016578 0.0101787 0.00516247)
(0.0164179 0.010044 0.00541282)