/*--------------------------------*- C++ -*----------------------------------*\
| =========                 |                                                 |
| \\      /  F ield         | OpenFOAM: The Open Source CFD Toolbox           |
|  \\    /   O peration     | Version:  v1612+                                |
|   \\  /    A nd           | Web:      www.OpenFOAM.com                      |
|    \\/     M anipulation  |                                                 |
\*---------------------------------------------------------------------------*/
FoamFile
{
    version     2.0;
    format      ascii;
    class       volVectorField;
    location    "50";
    object      U;
}
// * * * * * * * * * * * * * * * * * * * * * * * * * * * * * * * * * * * * * //

dimensions      [0 1 -1 0 0 0 0];

internalField   nonuniform List<vector> 
19023
(
(0.377613 -0.126037 -0.52901)
(0.462671 -0.0674501 -0.677091)
(0.481152 -0.454905 -0.538713)
(0.439187 -0.3652 -0.489148)
(0.527695 -0.555257 -0.555832)
(0.459758 -0.426608 -0.506662)
(0.483537 -0.449714 -0.543498)
(0.413867 -0.334815 -0.492213)
(0.389902 -0.301635 -0.476187)
(0.402256 -0.377716 -0.51399)
(0.384286 -0.34254 -0.505158)
(0.397074 -0.332233 -0.491164)
(0.467478 -0.38891 -0.54453)
(0.504 -0.53801 -0.544202)
(0.52639 -0.55088 -0.559595)
(0.368235 -0.292695 -0.491846)
(0.4191 -0.378566 -0.548231)
(0.514971 -0.492941 -0.550706)
(0.484425 -0.47689 -0.562027)
(0.482728 -0.516267 -0.567763)
(0.395343 -0.327934 -0.502646)
(0.424762 -0.441966 -0.800752)
(0.426039 -0.480636 -0.82445)
(0.408541 -0.433359 -0.825662)
(0.408784 -0.464518 -0.850564)
(0.414358 -0.422611 -0.789148)
(0.434625 -0.442266 -0.767522)
(0.462783 -0.506146 -0.817749)
(0.428576 -0.441233 -0.843425)
(0.525408 -0.513103 -0.883114)
(0.527102 -0.513292 -0.883673)
(0.428926 -0.422866 -0.77525)
(0.45578 -0.466868 -0.785181)
(0.509201 -0.499785 -0.836823)
(0.426624 -0.415605 -0.786999)
(0.504803 -0.476941 -0.859943)
(0.449333 -0.448736 -0.776098)
(0.461138 -0.414112 -0.792021)
(0.520402 -0.499097 -0.844382)
(0.525145 -0.511439 -0.857956)
(0.461252 -0.430841 -0.78215)
(0.523268 -0.646187 -0.35647)
(0.497176 -0.604469 -0.33671)
(0.543829 -0.692875 -0.367563)
(0.483308 -0.591285 -0.353298)
(0.492634 -0.61435 -0.369547)
(0.526233 -0.653646 -0.385281)
(0.585205 -0.777247 -0.431087)
(0.567425 -0.754965 -0.432144)
(0.518156 -0.646393 -0.356849)
(0.583984 -0.783638 -0.420424)
(0.537887 -0.676784 -0.420846)
(0.501849 -0.610398 -0.362345)
(0.536156 -0.674916 -0.397927)
(0.496435 -0.610749 -0.371994)
(0.385148 -0.436508 -0.901477)
(0.351023 -0.378716 -0.905802)
(0.375713 -0.408424 -0.90149)
(0.330523 -0.38314 -0.859558)
(0.447523 -0.465892 -0.916186)
(0.378916 -0.411683 -0.906411)
(0.470125 -0.495207 -0.908046)
(0.464719 -0.508114 -0.911189)
(0.356288 -0.382832 -0.884407)
(0.406187 -0.440205 -0.873328)
(0.388813 -0.417053 -0.880293)
(0.46222 -0.48119 -0.932402)
(0.4541 -0.466923 -0.922504)
(0.36579 -0.395888 -0.862245)
(0.331911 -0.350183 -0.870129)
(0.414002 -0.441688 -0.925306)
(0.426478 -0.44313 -0.906647)
(0.370362 -0.390298 -0.888382)
(0.331541 -0.357413 -0.878193)
(0.356324 -0.371893 -0.907321)
(0.321323 -0.223349 -0.393006)
(0.289009 -0.191431 -0.375758)
(0.400592 -0.224662 -0.455162)
(0.422929 -0.233963 -0.486332)
(0.40237 -0.215449 -0.454627)
(0.330351 -0.258522 -0.417831)
(0.319034 -0.199082 -0.385914)
(0.337907 -0.187445 -0.398993)
(0.46011 -0.352678 -0.523032)
(0.467487 -0.352941 -0.543731)
(0.440935 -0.265233 -0.496561)
(0.440388 -0.24721 -0.504414)
(0.482155 -0.386775 -0.531642)
(0.440584 -0.364054 -0.509324)
(0.413599 -0.347232 -0.485583)
(0.381929 -0.34592 -0.464182)
(0.438301 -0.355493 -0.50092)
(0.363555 -0.2642 -0.424066)
(0.338393 -0.274047 -0.417163)
(0.410344 -0.295434 -0.463624)
(0.454363 -0.821204 -0.431812)
(0.525205 -0.703089 -0.376432)
(0.576694 -1.01608 -0.524397)
(0.262926 -0.713061 -0.415484)
(0.287172 -0.745478 -0.437476)
(0.554433 -0.964025 -0.488432)
(0.583161 -0.972189 -0.496733)
(0.376865 -0.778009 -0.43941)
(0.425644 -0.793695 -0.460435)
(0.320994 -0.85996 -0.48729)
(0.527616 -0.970156 -0.507161)
(0.412435 -0.859523 -0.480136)
(0.366448 -0.802991 -0.429004)
(0.361553 -0.893804 -0.472063)
(0.342587 -0.844673 -0.445471)
(0.460738 -0.867644 -0.468931)
(0.292259 -0.730345 -0.43614)
(0.273868 -0.685909 -0.420129)
(0.392837 -0.736016 -0.419313)
(0.441198 -0.835024 -0.449306)
(0.457562 -0.254559 -0.509341)
(0.49768 -0.340095 -0.528793)
(0.518011 -0.370603 -0.606305)
(0.520518 -0.37529 -0.582245)
(0.492408 -0.329609 -0.578993)
(0.499859 -0.302314 -0.604169)
(0.475133 -0.281718 -0.57195)
(0.472577 -0.278172 -0.533093)
(0.491269 -0.323264 -0.531819)
(0.52222 -0.401845 -0.5959)
(0.515013 -0.423861 -0.56828)
(0.464352 -0.228694 -0.53933)
(0.514768 -0.347819 -0.606912)
(0.540102 -0.419013 -0.615996)
(0.531935 -0.43036 -0.608194)
(0.476346 -0.252574 -0.559471)
(0.50115 -0.292435 -0.60287)
(0.544467 -0.391006 -0.637901)
(0.55266 -0.400744 -0.638405)
(0.18155 -0.29797 -0.504982)
(0.218561 -0.33015 -0.508001)
(0.247589 -0.356728 -0.511348)
(0.257822 -0.340809 -0.503136)
(0.104677 -0.231183 -0.459325)
(0.108242 -0.231787 -0.458557)
(0.104344 -0.226789 -0.452049)
(0.13234 -0.264128 -0.475167)
(0.288526 -0.332596 -0.467801)
(0.26816 -0.35026 -0.488036)
(0.167918 -0.255224 -0.430896)
(0.229701 -0.293181 -0.441384)
(0.217238 -0.277719 -0.44528)
(0.146987 -0.252755 -0.447468)
(0.165426 -0.286226 -0.48561)
(0.132925 -0.246136 -0.449261)
(0.211742 -0.297564 -0.478924)
(0.259815 -0.330777 -0.479319)
(0.669938 -0.805095 -0.719822)
(0.678135 -0.806827 -0.673296)
(0.6449 -0.756643 -0.671115)
(0.679992 -0.795101 -0.718286)
(0.675555 -0.825711 -0.681744)
(0.678806 -0.856197 -0.696302)
(0.63774 -0.790931 -0.653892)
(0.655261 -0.799152 -0.651516)
(0.69526 -0.852637 -0.68638)
(0.662695 -0.841186 -0.680517)
(0.616419 -0.780077 -0.660416)
(0.63322 -0.754932 -0.682642)
(0.639324 -0.77836 -0.642565)
(0.622378 -0.772542 -0.646624)
(0.631275 -0.775261 -0.670132)
(0.646478 -0.800528 -0.647219)
(0.610373 -0.725556 -0.661361)
(0.62668 -0.751909 -0.66233)
(0.542978 -0.562041 -0.574826)
(0.56041 -0.599479 -0.637917)
(0.57944 -0.598053 -0.617995)
(0.603089 -0.687552 -0.636324)
(0.634812 -0.726566 -0.630713)
(0.634737 -0.745853 -0.633744)
(0.521444 -0.521344 -0.594488)
(0.495493 -0.436566 -0.537169)
(0.591196 -0.669723 -0.59903)
(0.582054 -0.640833 -0.60689)
(0.62939 -0.682702 -0.612722)
(0.62996 -0.701484 -0.610438)
(0.563973 -0.603183 -0.621028)
(0.601722 -0.677833 -0.631941)
(0.548129 -0.570927 -0.588507)
(0.588248 -0.628435 -0.597307)
(0.607079 -0.637385 -0.623523)
(0.599492 -0.675016 -0.628862)
(0.519491 -0.500801 -0.58881)
(0.559246 -0.550802 -0.611794)
(0.566706 -0.925175 -0.515943)
(0.63674 -0.979675 -0.557584)
(0.443848 -0.720264 -0.445388)
(0.545574 -0.81251 -0.522546)
(0.540598 -0.865575 -0.486746)
(0.461641 -0.84865 -0.476182)
(0.569385 -0.929063 -0.527732)
(0.451494 -0.742261 -0.44116)
(0.404797 -0.733408 -0.433748)
(0.403158 -0.736829 -0.416466)
(0.504396 -0.773691 -0.459975)
(0.555697 -0.823888 -0.474135)
(0.593248 -0.865737 -0.511562)
(0.574405 -0.868553 -0.52563)
(0.529743 -0.791078 -0.49525)
(0.352527 -0.271101 -0.374553)
(0.291537 -0.223897 -0.333682)
(0.273694 -0.267277 -0.340525)
(0.243352 -0.222583 -0.313037)
(0.295607 -0.231349 -0.341049)
(0.254589 -0.212523 -0.310043)
(0.264726 -0.262596 -0.351783)
(0.287906 -0.288119 -0.369472)
(0.341772 -0.252314 -0.369412)
(0.371001 -0.274734 -0.392857)
(0.286491 -0.242586 -0.332014)
(0.350578 -0.282486 -0.371076)
(0.30054 -0.262893 -0.337106)
(0.340084 -0.25169 -0.370087)
(0.290932 -0.260351 -0.360302)
(0.318293 -0.294182 -0.357633)
(0.365677 -0.356179 -0.41913)
(0.357254 -0.331451 -0.412015)
(0.394738 -0.361778 -0.420778)
(0.353357 -0.349133 -0.403133)
(0.396708 -0.320564 -0.424116)
(0.379009 -0.352121 -0.417798)
(0.415891 -0.376812 -0.442059)
(0.268224 -0.399392 -0.302991)
(0.265048 -0.417082 -0.312277)
(0.261362 -0.400713 -0.301519)
(0.264733 -0.464708 -0.300646)
(0.247498 -0.336689 -0.273445)
(0.238527 -0.30145 -0.273384)
(0.249497 -0.351052 -0.285744)
(0.236374 -0.277318 -0.274032)
(0.255623 -0.40037 -0.285641)
(0.254853 -0.372819 -0.285581)
(0.248485 -0.347323 -0.267878)
(0.247439 -0.299095 -0.273421)
(0.253589 -0.459686 -0.281748)
(0.244439 -0.312222 -0.293714)
(0.252096 -0.312549 -0.27706)
(0.401927 -0.566153 -0.393848)
(0.452021 -0.498659 -0.388202)
(0.307118 -0.593513 -0.408638)
(0.365662 -0.594714 -0.391093)
(0.522653 -0.612986 -0.36415)
(0.540925 -0.55496 -0.346779)
(0.35853 -0.503556 -0.415188)
(0.422894 -0.494087 -0.396999)
(0.399161 -0.516725 -0.402093)
(0.513621 -0.493 -0.377766)
(0.422405 -0.657902 -0.376774)
(0.508145 -0.496937 -0.366407)
(0.486854 -0.501662 -0.369481)
(0.464539 -0.64422 -0.330882)
(0.528024 -0.549135 -0.321163)
(0.284624 -0.389237 -0.697662)
(0.267545 -0.346772 -0.69314)
(0.323806 -0.41958 -0.747439)
(0.39469 -0.478869 -0.777929)
(0.383092 -0.477124 -0.786945)
(0.303385 -0.411502 -0.676995)
(0.278957 -0.373457 -0.681101)
(0.294025 -0.377556 -0.677074)
(0.408081 -0.482692 -0.749221)
(0.423154 -0.492172 -0.745274)
(0.352772 -0.410472 -0.689186)
(0.324714 -0.389088 -0.666406)
(0.260099 -0.344755 -0.643993)
(0.32123 -0.389974 -0.645414)
(0.303141 -0.365789 -0.629505)
(0.352667 -0.426995 -0.685791)
(0.331372 -0.291609 -0.426653)
(0.405038 -0.385541 -0.524017)
(0.396585 -0.387186 -0.50879)
(0.41868 -0.410578 -0.530632)
(0.465373 -0.330066 -0.565)
(0.453385 -0.343803 -0.564926)
(0.364323 -0.320892 -0.45314)
(0.496829 -0.374264 -0.583171)
(0.462504 -0.369113 -0.56776)
(0.394312 -0.304478 -0.493274)
(0.392097 -0.267068 -0.468948)
(0.558983 -0.462127 -0.720227)
(0.549048 -0.493431 -0.744822)
(0.544284 -0.514422 -0.678379)
(0.534233 -0.453352 -0.617482)
(0.508354 -0.410004 -0.60338)
(0.471491 -0.404772 -0.558992)
(0.439128 -0.441554 -0.555832)
(0.50074 -0.517075 -0.591305)
(0.477317 -0.427416 -0.485207)
(0.47398 -0.417809 -0.475187)
(0.474027 -0.456176 -0.497791)
(0.495124 -0.495834 -0.522975)
(0.427634 -0.454529 -0.475857)
(0.429765 -0.472789 -0.472441)
(0.44958 -0.414256 -0.454998)
(0.45466 -0.497996 -0.483766)
(0.377036 -0.404948 -0.425568)
(0.397553 -0.406853 -0.447392)
(0.3891 -0.382164 -0.424355)
(0.417727 -0.408058 -0.425557)
(0.426602 -0.441058 -0.437984)
(0.399476 -0.414449 -0.43801)
(0.233319 -0.14417 -0.786987)
(0.220278 -0.153399 -0.752946)
(0.206529 -0.16986 -0.766457)
(0.20243 -0.194904 -0.762221)
(0.418504 -0.359213 -0.829185)
(0.343433 -0.295816 -0.829476)
(0.371048 -0.346641 -0.889125)
(0.415258 -0.393965 -0.83974)
(0.267214 -0.195982 -0.758955)
(0.280344 -0.31752 -0.81374)
(0.227297 -0.260023 -0.788348)
(0.210295 -0.218654 -0.782244)
(0.322576 -0.318885 -0.84425)
(0.339753 -0.362782 -0.833443)
(0.374422 -0.394406 -0.838637)
(0.398829 -0.361095 -0.839221)
(0.508102 -0.322034 -0.708571)
(0.497128 -0.309715 -0.709516)
(0.505033 -0.317827 -0.69369)
(0.424052 -0.127771 -0.681607)
(0.424325 -0.101423 -0.671984)
(0.344692 -0.0270621 -0.631672)
(0.381277 -0.0648319 -0.665944)
(0.395985 -0.121897 -0.633289)
(0.403477 -0.10776 -0.639833)
(0.375084 -0.064097 -0.651641)
(0.376268 -0.0649037 -0.629226)
(0.470881 -0.22215 -0.642654)
(0.452249 -0.162217 -0.646676)
(0.470107 -0.19165 -0.656542)
(0.403049 -0.137163 -0.648761)
(0.394007 -0.10819 -0.653261)
(0.464066 -0.227221 -0.74449)
(0.406872 -0.0690507 -0.674098)
(0.483755 -0.260193 -0.705813)
(0.451687 -0.250022 -0.717901)
(0.448766 -0.226367 -0.704548)
(0.437008 -0.181153 -0.753039)
(0.591242 -0.658194 -0.440053)
(0.593383 -0.640017 -0.429269)
(0.596424 -0.673928 -0.399705)
(0.61288 -0.686296 -0.407744)
(0.617829 -0.781084 -0.486306)
(0.635203 -0.830297 -0.491283)
(0.589537 -0.616698 -0.432754)
(0.578672 -0.601703 -0.412027)
(0.603986 -0.658316 -0.41319)
(0.579427 -0.608398 -0.404552)
(0.602651 -0.668515 -0.46085)
(0.597597 -0.687762 -0.459166)
(0.589344 -0.656223 -0.424654)
(0.613885 -0.686455 -0.422585)
(0.622555 -0.755768 -0.428201)
(0.637401 -0.809466 -0.497029)
(0.638513 -0.840499 -0.50886)
(0.617098 -0.77459 -0.488506)
(0.635581 -0.85097 -0.501528)
(0.619928 -0.763616 -0.488669)
(0.595868 -0.639901 -0.413944)
(0.609017 -0.66272 -0.406039)
(0.647904 -0.779179 -0.462168)
(0.645824 -0.781953 -0.480852)
(0.548087 -0.534966 -0.663525)
(0.610842 -0.61413 -0.702117)
(0.638974 -0.614004 -0.725705)
(0.584814 -0.560025 -0.663561)
(0.529481 -0.480836 -0.637301)
(0.577036 -0.543212 -0.70775)
(0.564081 -0.486188 -0.693558)
(0.607649 -0.528888 -0.73848)
(0.608927 -0.502526 -0.700854)
(0.643068 -0.603029 -0.698484)
(0.639511 -0.590446 -0.712333)
(0.558611 -0.464642 -0.608403)
(0.543123 -0.45103 -0.632012)
(0.629078 -0.572244 -0.721582)
(0.613459 -0.510794 -0.662436)
(0.596094 -0.492119 -0.654082)
(0.401624 -0.390235 -0.378449)
(0.396386 -0.394069 -0.3714)
(0.39057 -0.351121 -0.374037)
(0.36696 -0.328814 -0.35074)
(0.416198 -0.387085 -0.374575)
(0.393404 -0.356068 -0.362798)
(0.467803 -0.466206 -0.442182)
(0.463657 -0.485519 -0.433855)
(0.445804 -0.418371 -0.399395)
(0.453521 -0.3879 -0.426681)
(0.404468 -0.345265 -0.386457)
(0.435728 -0.351468 -0.40284)
(0.364138 -0.30651 -0.345467)
(0.421879 -0.354679 -0.370886)
(0.400818 -0.351453 -0.361795)
(0.512687 -0.506149 -0.459204)
(0.512493 -0.496389 -0.473985)
(0.46818 -0.40908 -0.425053)
(0.521103 -0.507125 -0.481078)
(0.595274 -0.652223 -0.545764)
(0.580819 -0.634216 -0.539482)
(0.61574 -0.663849 -0.595282)
(0.591163 -0.640715 -0.559549)
(0.590295 -0.611932 -0.539061)
(0.585439 -0.578685 -0.520436)
(0.61333 -0.658833 -0.59314)
(0.516062 -0.393131 -0.501157)
(0.527033 -0.429906 -0.511625)
(0.580285 -0.601938 -0.551824)
(0.517644 -0.412348 -0.517646)
(0.504799 -0.409423 -0.484837)
(0.543809 -0.49549 -0.556532)
(0.577378 -0.576686 -0.567044)
(0.548677 -0.527215 -0.536541)
(0.573614 -0.543726 -0.524522)
(0.519462 -0.441754 -0.494881)
(0.516635 -0.431383 -0.504903)
(0.598503 -0.468603 -0.232797)
(0.556387 -0.484209 -0.333358)
(0.563439 -0.46513 -0.321625)
(0.570234 -0.511182 -0.285955)
(0.564191 -0.51656 -0.301527)
(0.588263 -0.461762 -0.282325)
(0.586614 -0.440631 -0.232083)
(0.539971 -0.388011 -0.305742)
(0.552402 -0.698673 -0.40614)
(0.602192 -0.802369 -0.449314)
(0.504835 -0.621187 -0.420648)
(0.486906 -0.570083 -0.376845)
(0.595556 -0.770213 -0.472406)
(0.495162 -0.612673 -0.391998)
(0.532792 -0.677677 -0.450375)
(0.548064 -0.707345 -0.453982)
(0.492827 -0.619036 -0.398245)
(0.650705 -0.72993 -0.669162)
(0.637308 -0.719909 -0.658793)
(0.647113 -0.753304 -0.645288)
(0.6537 -0.755544 -0.666535)
(0.536561 -0.52968 -0.602789)
(0.545336 -0.555779 -0.636355)
(0.602351 -0.668234 -0.663292)
(0.615773 -0.68052 -0.673171)
(0.60001 -0.63872 -0.65762)
(0.612617 -0.662396 -0.648784)
(0.52394 -0.504008 -0.621847)
(0.528769 -0.513979 -0.62579)
(0.601164 -0.657363 -0.650147)
(0.573581 -0.584537 -0.663332)
(0.54405 -0.539289 -0.624742)
(0.486254 -0.23598 -0.827595)
(0.503134 -0.284514 -0.813736)
(0.574432 -0.344095 -0.793293)
(0.551251 -0.322222 -0.797297)
(0.530958 -0.31811 -0.802257)
(0.575038 -0.375685 -0.807479)
(0.501746 -0.245558 -0.807913)
(0.500038 -0.223191 -0.850333)
(0.535257 -0.432627 -0.813774)
(0.533028 -0.381269 -0.826925)
(0.64043 -0.423989 -0.839592)
(0.570599 -0.339418 -0.84079)
(0.535102 -0.279428 -0.803523)
(0.517107 -0.393373 -0.779957)
(0.596953 -0.409385 -0.85135)
(0.600322 -0.466745 -0.804868)
(0.701762 -0.828348 -0.703393)
(0.683309 -0.794308 -0.709171)
(0.663488 -0.808565 -0.661124)
(0.64799 -0.74888 -0.672586)
(0.657572 -0.775285 -0.657413)
(0.715276 -0.837107 -0.693007)
(0.696557 -0.82895 -0.684083)
(0.6684 -0.819419 -0.640384)
(0.65159 -0.753626 -0.65305)
(0.674496 -0.794809 -0.726737)
(0.718422 -0.848964 -0.687077)
(0.705366 -0.842543 -0.668505)
(0.667124 -0.819285 -0.65278)
(0.735579 -0.878361 -0.694258)
(0.716982 -0.881595 -0.680721)
(0.438098 -0.632496 -0.381284)
(0.378726 -0.586432 -0.399062)
(0.220927 -0.589719 -0.402666)
(0.193714 -0.516527 -0.389486)
(0.463031 -0.709241 -0.404076)
(0.243055 -0.619682 -0.401783)
(0.207723 -0.608686 -0.401664)
(0.494479 -0.733545 -0.391658)
(0.379885 -0.730897 -0.413819)
(0.361251 -0.762583 -0.422115)
(0.485666 -0.744107 -0.37974)
(0.33413 -0.616453 -0.324065)
(0.40284 -0.609904 -0.314772)
(0.391513 -0.630453 -0.322133)
(0.351205 -0.523465 -0.308057)
(0.339529 -0.58172 -0.303116)
(0.31362 -0.53381 -0.298798)
(0.320788 -0.530734 -0.317344)
(0.364812 -0.634995 -0.320364)
(0.347431 -0.577009 -0.292932)
(0.320951 -0.494606 -0.322775)
(0.440878 -0.801969 -0.293542)
(0.439955 -0.845896 -0.330358)
(0.45505 -0.860209 -0.342606)
(0.51091 -0.772429 -0.265412)
(0.57589 -0.781092 -0.295431)
(0.582899 -0.794408 -0.325195)
(0.569225 -0.790777 -0.326639)
(0.538331 -0.882891 -0.385994)
(0.533365 -0.842135 -0.37009)
(0.504985 -0.765818 -0.265092)
(0.505187 -0.741264 -0.24798)
(0.566963 -0.782501 -0.309366)
(0.494853 -0.819839 -0.341644)
(0.544084 -0.766997 -0.287544)
(0.674258 -0.932025 -0.575703)
(0.630868 -0.857721 -0.538452)
(0.659526 -0.89201 -0.551352)
(0.657975 -0.97427 -0.569819)
(0.641684 -0.90174 -0.539037)
(0.651654 -0.892189 -0.495275)
(0.647463 -0.867152 -0.503101)
(0.614822 -0.80864 -0.495913)
(0.66611 -0.92958 -0.515912)
(0.634145 -0.84108 -0.448432)
(0.629028 -0.836129 -0.468683)
(0.64359 -0.846108 -0.494289)
(0.625767 -0.803743 -0.455477)
(0.39552 -0.274213 -0.895361)
(0.405061 -0.338977 -0.889182)
(0.447184 -0.359149 -0.862161)
(0.440113 -0.282546 -0.819701)
(0.434575 -0.205003 -0.789328)
(0.422974 -0.244414 -0.804832)
(0.248757 -0.0406462 -0.825529)
(0.338788 -0.249949 -0.879412)
(0.280441 -0.185125 -0.867279)
(0.238854 -0.0605249 -0.810012)
(0.224802 -0.0090485 -0.766277)
(0.307066 -0.102845 -0.832666)
(0.438078 -0.294979 -0.846413)
(0.371156 -0.164367 -0.798751)
(0.285894 -0.183605 -0.90282)
(0.35925 -0.206141 -0.857507)
(0.253331 -0.106517 -0.835794)
(0.261613 -0.0490825 -0.78609)
(0.367991 -0.139539 -0.792327)
(0.321492 -0.0472865 -0.76364)
(0.34932 -0.0756413 -0.783588)
(0.379695 -0.158552 -0.82155)
(0.618177 -0.487044 -0.209321)
(0.566488 -0.384507 -0.205806)
(0.553424 -0.369428 -0.167421)
(0.530603 -0.336181 -0.16827)
(0.627687 -0.393681 -0.718309)
(0.570179 -0.365743 -0.713987)
(0.663411 -0.520652 -0.74351)
(0.644177 -0.556677 -0.719949)
(0.564485 -0.319706 -0.712152)
(0.593386 -0.484477 -0.698124)
(0.655897 -0.542518 -0.765577)
(0.655415 -0.560291 -0.786723)
(0.666171 -0.482147 -0.792013)
(0.530899 -0.352051 -0.709097)
(0.559311 -0.337085 -0.737422)
(0.567742 -0.395476 -0.747063)
(0.629917 -0.463492 -0.781664)
(0.636592 -0.518265 -0.758918)
(0.556075 -0.469654 -0.670955)
(0.577772 -0.453292 -0.722151)
(0.63613 -0.528828 -0.771912)
(0.52827 -0.435259 -0.689763)
(0.453143 -0.195774 -0.5266)
(0.429347 -0.132332 -0.473856)
(0.424843 -0.120634 -0.490891)
(0.444555 -0.21819 -0.504586)
(0.419189 -0.166029 -0.458938)
(0.468366 -0.212125 -0.554368)
(0.421214 -0.137064 -0.479708)
(0.391315 -0.117689 -0.448677)
(0.407798 -0.172503 -0.449073)
(0.374408 -0.11559 -0.417715)
(0.399871 -0.16436 -0.447476)
(0.4262 -0.21132 -0.458798)
(0.447101 -0.16983 -0.488714)
(0.181985 -0.174565 -0.588896)
(0.217869 -0.133709 -0.596595)
(0.144516 -0.1267 -0.564588)
(0.124503 -0.058544 -0.578087)
(0.270358 -0.26351 -0.604089)
(0.198744 -0.109453 -0.611962)
(0.154199 -0.0841551 -0.593497)
(0.238277 -0.0812063 -0.668634)
(0.263464 -0.146246 -0.687671)
(0.247405 -0.288406 -0.581562)
(0.304412 -0.303794 -0.598444)
(0.156173 -0.151241 -0.596889)
(0.148335 -0.116532 -0.587329)
(0.26879 -0.131013 -0.634363)
(0.367257 -0.257106 -0.663934)
(0.305076 -0.251875 -0.672182)
(0.234774 -0.0697063 -0.64742)
(0.198161 -0.0715073 -0.627938)
(0.293212 -0.145526 -0.672169)
(0.16627 -0.087302 -0.635757)
(0.166794 -0.0357562 -0.645495)
(0.338674 -0.269036 -0.624901)
(0.325848 -0.285703 -0.613466)
(0.379223 -0.261113 -0.641392)
(0.589211 -0.906534 -0.502086)
(0.593596 -0.960809 -0.487819)
(0.586395 -0.898569 -0.474694)
(0.578059 -0.910762 -0.457278)
(0.575013 -0.952207 -0.463144)
(0.58006 -0.9298 -0.474014)
(0.563783 -0.910224 -0.412581)
(0.580901 -0.893842 -0.411987)
(0.572237 -0.842607 -0.447958)
(0.564417 -0.82819 -0.453281)
(0.568517 -0.923043 -0.408847)
(0.544591 -0.842749 -0.429524)
(0.534401 -0.804767 -0.424959)
(0.535644 -0.782269 -0.418761)
(0.529826 -0.782301 -0.415121)
(0.550365 -0.86836 -0.422238)
(0.522979 -0.482968 -0.877811)
(0.499147 -0.474044 -0.872206)
(0.500856 -0.485389 -0.882938)
(0.445224 -0.399006 -0.823944)
(0.422843 -0.371042 -0.796074)
(0.445536 -0.407883 -0.788282)
(0.42307 -0.392232 -0.775352)
(0.450499 -0.380941 -0.787903)
(0.47615 -0.424957 -0.850743)
(0.402137 -0.392563 -0.789629)
(0.441127 -0.192566 -0.773789)
(0.504029 -0.232053 -0.788087)
(0.457809 -0.231803 -0.781852)
(0.484511 -0.263238 -0.77117)
(0.48179 -0.154512 -0.794245)
(0.466341 -0.151796 -0.77399)
(0.458969 -0.138151 -0.780986)
(0.381553 -0.0496098 -0.748026)
(0.3885 -0.0525102 -0.760532)
(0.394137 -0.0683945 -0.733798)
(0.45843 -0.194427 -0.813396)
(0.481904 -0.14978 -0.776504)
(0.376304 -0.0296488 -0.744382)
(0.489251 -0.154061 -0.793624)
(0.510686 -0.204156 -0.792546)
(0.463689 -0.155743 -0.808105)
(0.107646 -0.239296 -0.454253)
(0.0774138 -0.199401 -0.431616)
(0.0718301 -0.177525 -0.393099)
(0.137691 -0.224534 -0.392471)
(0.167034 -0.252815 -0.418264)
(0.0737691 -0.150002 -0.34257)
(0.0909391 -0.201213 -0.418817)
(0.129001 -0.204601 -0.373608)
(0.10418 -0.169012 -0.345803)
(0.123186 -0.211836 -0.412124)
(0.163951 -0.243275 -0.40539)
(0.144008 -0.211612 -0.383816)
(0.132993 -0.187593 -0.364282)
(0.63429 -0.815516 -0.53656)
(0.642488 -0.826609 -0.561319)
(0.573735 -0.720834 -0.493591)
(0.593381 -0.710526 -0.506227)
(0.62616 -0.84461 -0.546769)
(0.639294 -0.862855 -0.563196)
(0.627372 -0.840741 -0.541703)
(0.622112 -0.74953 -0.549581)
(0.571549 -0.668253 -0.523228)
(0.513904 -0.580388 -0.479984)
(0.516971 -0.599025 -0.487371)
(0.518543 -0.609445 -0.488918)
(0.531288 -0.632758 -0.476563)
(0.641021 -0.823775 -0.57106)
(0.631665 -0.829295 -0.57209)
(0.59133 -0.777815 -0.51978)
(0.560542 -0.698222 -0.496881)
(0.540553 -0.590995 -0.507899)
(0.516931 -0.619924 -0.52142)
(0.600184 -0.720148 -0.547494)
(0.539916 -0.627575 -0.512207)
(0.345267 -0.352784 -0.643726)
(0.30708 -0.325605 -0.63065)
(0.31345 -0.370755 -0.670082)
(0.285431 -0.328218 -0.645924)
(0.334151 -0.402023 -0.755009)
(0.31519 -0.369531 -0.703614)
(0.345303 -0.379589 -0.733165)
(0.348075 -0.366192 -0.714756)
(0.389302 -0.369008 -0.682933)
(0.345059 -0.348271 -0.652667)
(0.379692 -0.386967 -0.695613)
(0.433471 -0.421021 -0.75775)
(0.468511 -0.460496 -0.761111)
(0.445695 -0.427615 -0.760949)
(0.653242 -0.589024 -0.926423)
(0.617205 -0.572601 -0.965508)
(0.597381 -0.53485 -0.963787)
(0.628501 -0.563799 -0.966808)
(0.568325 -0.527236 -1.01445)
(0.508989 -0.528965 -0.937278)
(0.619579 -0.580619 -0.921415)
(0.575327 -0.577455 -0.97075)
(0.612092 -0.636302 -0.95229)
(0.510565 -0.50819 -0.968207)
(0.512414 -0.526453 -0.950717)
(0.549052 -0.505703 -0.912357)
(0.547997 -0.507932 -0.841578)
(0.581025 -0.514139 -0.899486)
(0.615796 -0.558108 -0.910934)
(0.588387 -0.538997 -0.954206)
(0.551818 -0.558756 -0.935672)
(0.567316 -0.520721 -0.955179)
(0.52938 -0.270091 -0.751538)
(0.549135 -0.342694 -0.745693)
(0.55962 -0.281097 -0.768057)
(0.543991 -0.254195 -0.770067)
(0.489537 -0.239013 -0.74861)
(0.52037 -0.275201 -0.737643)
(0.475542 -0.193726 -0.742287)
(0.502375 -0.268838 -0.730071)
(0.578898 -0.258149 -0.740314)
(0.572329 -0.3676 -0.774886)
(0.55438 -0.358542 -0.769129)
(0.486737 -0.211928 -0.654939)
(0.54067 -0.340858 -0.744836)
(0.544468 -0.359975 -0.753147)
(0.506296 -0.261924 -0.682065)
(0.498831 -0.218591 -0.675586)
(0.580805 -0.381486 -0.803579)
(0.577615 -0.406096 -0.778702)
(0.560694 -0.353828 -0.734486)
(0.544334 -0.299596 -0.722755)
(0.370836 -0.685252 -0.330325)
(0.397772 -0.721579 -0.334717)
(0.362094 -0.689563 -0.311755)
(0.409463 -0.716781 -0.318119)
(0.412322 -0.661819 -0.314131)
(0.428358 -0.699027 -0.32864)
(0.361908 -0.619865 -0.307062)
(0.345587 -0.661465 -0.297888)
(0.442983 -0.732 -0.32293)
(0.393235 -0.675052 -0.290725)
(0.417894 -0.617662 -0.284995)
(0.445122 -0.655665 -0.29173)
(0.349834 -0.575095 -0.274612)
(0.340608 -0.516419 -0.261646)
(0.356455 -0.535392 -0.269468)
(0.439591 -0.674175 -0.278383)
(0.39207 -0.610776 -0.260639)
(0.335518 -0.587991 -0.2805)
(0.362384 -0.613326 -0.255493)
(0.329104 -0.498018 -0.257556)
(0.358353 -0.523669 -0.248814)
(0.420101 -0.646321 -0.286732)
(0.399661 -0.604726 -0.258469)
(0.346016 -0.57585 -0.252161)
(0.233117 -0.246389 -0.355571)
(0.173397 -0.212037 -0.320599)
(0.229677 -0.24933 -0.352536)
(0.197745 -0.228599 -0.338119)
(0.258527 -0.285952 -0.369997)
(0.217733 -0.254558 -0.341362)
(0.287431 -0.326896 -0.39458)
(0.312727 -0.337559 -0.408412)
(0.177538 -0.232402 -0.32619)
(0.247606 -0.289516 -0.379948)
(0.200956 -0.262662 -0.364261)
(0.179574 -0.250738 -0.36368)
(0.163935 -0.223801 -0.328817)
(0.2339 -0.283518 -0.357938)
(0.246279 -0.308804 -0.391236)
(0.288523 -0.328179 -0.404081)
(0.203848 -0.278711 -0.376295)
(0.198218 -0.257419 -0.350082)
(0.497857 -0.640362 -0.184706)
(0.501309 -0.633866 -0.198629)
(0.539347 -0.681581 -0.206117)
(0.470779 -0.571209 -0.193568)
(0.553686 -0.655998 -0.23844)
(0.570943 -0.6946 -0.254963)
(0.499574 -0.623602 -0.214973)
(0.512431 -0.677186 -0.213838)
(0.5637 -0.670765 -0.23325)
(0.515716 -0.609735 -0.213283)
(0.550996 -0.687467 -0.253078)
(0.58754 -0.755761 -0.269281)
(0.525664 -0.729459 -0.242243)
(0.369941 -0.407704 -0.791238)
(0.451203 -0.486423 -0.870288)
(0.492683 -0.539421 -0.834807)
(0.50005 -0.589249 -0.873169)
(0.363361 -0.388704 -0.822649)
(0.314152 -0.333813 -0.775136)
(0.276851 -0.371288 -0.748116)
(0.28423 -0.35464 -0.746537)
(0.300622 -0.340977 -0.739583)
(0.306348 -0.398005 -0.750014)
(0.454649 -0.499523 -0.778096)
(0.410542 -0.477803 -0.798086)
(0.51429 -0.546392 -0.800183)
(0.524794 -0.566809 -0.809424)
(0.407907 -0.501601 -0.831686)
(0.318613 -0.390062 -0.803068)
(0.257814 -0.349258 -0.771996)
(0.25812 -0.353909 -0.763683)
(0.425508 -0.516825 -0.812667)
(0.436424 -0.493446 -0.801605)
(0.363565 -0.180349 -0.506927)
(0.344739 -0.252033 -0.501938)
(0.304974 -0.173625 -0.501248)
(0.321897 -0.247838 -0.507192)
(0.32504 -0.129086 -0.493991)
(0.30841 -0.185223 -0.490457)
(0.300853 -0.104544 -0.484736)
(0.257571 -0.168307 -0.4902)
(0.244201 -0.121106 -0.49009)
(0.250792 -0.0596135 -0.455983)
(0.22638 -0.0731556 -0.462673)
(0.586876 -0.634079 -0.48233)
(0.571789 -0.590841 -0.474199)
(0.576766 -0.61144 -0.476708)
(0.579606 -0.589975 -0.494805)
(0.51062 -0.469466 -0.40514)
(0.485326 -0.413448 -0.394257)
(0.530309 -0.501053 -0.412242)
(0.535774 -0.506343 -0.413989)
(0.61131 -0.6373 -0.518068)
(0.611872 -0.657956 -0.510116)
(0.535434 -0.481638 -0.421973)
(0.526402 -0.457346 -0.41685)
(0.539523 -0.491409 -0.446335)
(0.5021 -0.430825 -0.419935)
(0.513972 -0.468218 -0.411423)
(0.518007 -0.446284 -0.424289)
(0.60697 -0.66209 -0.510862)
(0.527206 -0.46186 -0.444821)
(0.54904 -0.490484 -0.469256)
(0.57799 -0.586705 -0.507075)
(0.60247 -0.624286 -0.517659)
(0.549345 -0.518678 -0.453162)
(0.597952 -0.645486 -0.507238)
(0.538296 -0.478899 -0.462825)
(0.391876 -0.237049 -0.755242)
(0.397171 -0.268371 -0.747284)
(0.366609 -0.116962 -0.664601)
(0.313683 -0.0705257 -0.636599)
(0.323105 -0.0976778 -0.623893)
(0.272565 -0.0414425 -0.613329)
(0.406693 -0.293054 -0.740344)
(0.420637 -0.236166 -0.722478)
(0.337041 -0.133043 -0.705819)
(0.438525 -0.232725 -0.70702)
(0.353005 -0.147834 -0.644921)
(0.308403 -0.133323 -0.657699)
(0.271963 -0.0780731 -0.636485)
(0.428358 -0.270148 -0.696922)
(0.336758 -0.185366 -0.700313)
(0.304404 -0.122355 -0.668984)
(0.403865 -0.229388 -0.699982)
(0.52475 -0.804329 -0.313477)
(0.529746 -0.812388 -0.340196)
(0.531648 -0.798332 -0.286893)
(0.525079 -0.773319 -0.305711)
(0.559731 -0.890838 -0.36635)
(0.5536 -0.89008 -0.349649)
(0.555354 -0.817361 -0.281548)
(0.573346 -0.857814 -0.317357)
(0.563964 -0.777599 -0.256753)
(0.561765 -0.792602 -0.318262)
(0.5674 -0.755997 -0.274572)
(0.571646 -0.813283 -0.287003)
(0.576195 -0.80624 -0.28332)
(0.57522 -0.850644 -0.352274)
(0.573288 -0.686839 -0.553514)
(0.663456 -0.807705 -0.629449)
(0.577253 -0.649526 -0.593251)
(0.537873 -0.654871 -0.571044)
(0.501958 -0.561378 -0.549366)
(0.583622 -0.705902 -0.579507)
(0.533969 -0.587397 -0.55396)
(0.476911 -0.489012 -0.578413)
(0.500892 -0.529671 -0.587493)
(0.593812 -0.646245 -0.497445)
(0.564079 -0.553521 -0.456421)
(0.499045 -0.497953 -0.389547)
(0.462071 -0.401743 -0.335074)
(0.427192 -0.368304 -0.327472)
(0.446192 -0.470089 -0.370387)
(0.421941 -0.423673 -0.354859)
(0.456496 -0.489752 -0.410226)
(0.430729 -0.444108 -0.38631)
(0.567476 -0.588538 -0.486598)
(0.557192 -0.619771 -0.499736)
(0.547273 -0.522897 -0.441192)
(0.3947 -0.352367 -0.317012)
(0.493027 -0.50768 -0.430224)
(0.512025 -0.456401 -0.391709)
(0.452281 -0.408101 -0.353505)
(0.424243 -0.530028 -0.627515)
(0.378298 -0.506193 -0.592323)
(0.564844 -0.665851 -0.663635)
(0.587415 -0.662274 -0.683751)
(0.541457 -0.627051 -0.70844)
(0.519259 -0.644092 -0.671415)
(0.393609 -0.495045 -0.573814)
(0.380222 -0.485125 -0.582575)
(0.354179 -0.458992 -0.571055)
(0.450925 -0.515315 -0.613695)
(0.430464 -0.48846 -0.5896)
(0.449118 -0.488265 -0.563395)
(0.404127 -0.449927 -0.546537)
(0.411635 -0.487692 -0.539822)
(0.402831 -0.47664 -0.537231)
(0.549801 -0.6104 -0.644332)
(0.551877 -0.620447 -0.659645)
(0.475199 -0.558514 -0.595945)
(0.521267 -0.558722 -0.647318)
(0.518233 -0.563416 -0.679982)
(0.412847 -0.48073 -0.578521)
(0.466828 -0.506468 -0.568678)
(0.555747 -0.586309 -0.646096)
(0.543257 -0.611586 -0.705653)
(0.533583 -0.583853 -0.638195)
(0.535347 -0.35862 -0.293942)
(0.548185 -0.378347 -0.261643)
(0.544692 -0.363202 -0.257968)
(0.579149 -0.452936 -0.338959)
(0.549558 -0.469614 -0.380464)
(0.546325 -0.48091 -0.353549)
(0.547459 -0.384294 -0.326447)
(0.598052 -0.52372 -0.333037)
(0.599152 -0.530475 -0.310146)
(0.61579 -0.641727 -0.384908)
(0.593368 -0.623054 -0.386581)
(0.592439 -0.492108 -0.308371)
(0.539359 -0.543208 -0.379541)
(0.582588 -0.618822 -0.381551)
(0.581941 -0.530151 -0.356032)
(0.609381 -0.512479 -0.317419)
(0.531576 -0.246674 -0.79115)