/*--------------------------------*- C++ -*----------------------------------*\
| =========                 |                                                 |
| \\      /  F ield         | OpenFOAM: The Open Source CFD Toolbox           |
|  \\    /   O peration     | Version:  v1612+                                |
|   \\  /    A nd           | Web:      www.OpenFOAM.com                      |
|    \\/     M anipulation  |                                                 |
\*---------------------------------------------------------------------------*/
FoamFile
{
    version     2.0;
    format      ascii;
    class       surfaceScalarField;
    location    "166";
    object      phi;
}
// * * * * * * * * * * * * * * * * * * * * * * * * * * * * * * * * * * * * * //

dimensions      [0 3 -1 0 0 0 0];

internalField   nonuniform List<scalar> 
37890
(
1.25513e-09
6.67387e-09
-1.25127e-09
-6.67774e-09
1.17329e-08
-9.85162e-10
-3.9042e-09
-6.84355e-09
5.52274e-09
-7.11517e-09
-8.60728e-09
1.01997e-08
-1.35751e-08
-1.06281e-08
7.65996e-09
1.65432e-08
-8.46196e-09
-4.49261e-10
-4.66394e-09
-1.67079e-08
1.1835e-09
4.89625e-09
-1.23366e-08
-1.28333e-08
9.13547e-09
-4.98095e-09
9.16545e-09
-1.332e-08
6.93366e-09
3.38528e-09
6.35646e-09
1.20718e-08
-1.14946e-08
-7.07814e-09
2.10946e-08
1.56017e-08
-1.00217e-08
-1.26581e-08
6.78175e-09
-2.19954e-08
2.87705e-09
-1.33547e-08
1.39357e-08
6.20076e-09
-5.1612e-09
1.49231e-08
-3.78094e-09
-5.98099e-09
8.11451e-09
-5.63552e-09
-7.64018e-09
4.40333e-09
6.39436e-09
4.12547e-09
6.44642e-09
6.07141e-09
-3.57065e-09
3.5243e-09
-5.58917e-09
7.09429e-09
9.82009e-09
-1.052e-08
1.80386e-09
-6.06096e-09
1.07035e-08
-6.58204e-09
1.54802e-08
7.69829e-09
1.53552e-09
-1.35785e-08
4.34465e-09
-8.25155e-09
9.88888e-09
-5.40046e-09
-8.98288e-09
1.06024e-08
4.45089e-09
-1.3422e-08
-1.03665e-08
5.32001e-09
4.93455e-10
-6.20386e-09
-7.86806e-09
-4.2338e-09
9.32212e-09
-1.10751e-08
7.18887e-10
-1.7633e-09
3.77436e-09
1.6833e-09
6.20297e-10
-6.07796e-09
1.14388e-09
2.72792e-09
-9.74439e-11
3.49684e-09
-3.4813e-09
1.66776e-09
3.21718e-09
1.42355e-09
2.31201e-09
-2.87993e-09
1.18821e-09
-1.34995e-09
2.45881e-09
1.61906e-09
1.10841e-09
-1.46347e-10
7.32054e-10
-1.04949e-09
-2.70276e-09
3.0202e-09
1.89107e-09
-5.06127e-11
-1.78062e-10
2.08898e-09
5.47899e-10
7.42748e-10
2.29636e-09
3.90801e-09
6.23848e-10
-3.78912e-09
3.03808e-09
2.1697e-11
6.89607e-10
-3.74939e-09
-1.73876e-09
3.37768e-09
1.39914e-09
-3.11441e-09
1.50286e-09
-1.27219e-10
6.04207e-10
-3.69693e-09
6.72977e-10
-8.60335e-09
6.50318e-09
1.42719e-09
-8.06694e-09
6.11881e-09
2.6211e-09
8.77353e-10
-4.49415e-09
4.3064e-09
2.67667e-09
1.087e-09
-3.15947e-09
4.14395e-09
3.55739e-11
-6.20791e-10
-6.5688e-09
-8.13714e-09
5.9027e-10
7.3318e-09
-1.80327e-09
-1.31712e-09
8.41057e-09
1.36929e-09
1.90032e-09
1.08053e-10
4.19612e-09
-6.72325e-09
2.7001e-09
-9.16241e-09
1.31856e-08
-1.45476e-10
-1.54096e-08
8.83178e-09
-8.32792e-09
3.5838e-09
5.79348e-09
-1.04935e-09
3.1201e-09
-2.43312e-09
-9.01489e-09
5.88903e-09
3.06192e-09
-9.02313e-09
7.21781e-11
-1.32755e-08
7.54622e-09
5.58376e-09
-1.44798e-08
-4.03684e-09
5.24116e-09
-1.28015e-11
-6.71953e-09
-7.74744e-09
7.89614e-09
-5.01451e-09
2.38476e-10
8.49603e-09
2.9839e-09
-6.99835e-09
-8.424e-09
4.44569e-09
-6.94292e-09
6.41058e-11
1.22983e-08
-3.80471e-09
-2.75931e-09
7.24407e-09
-3.90695e-11
6.50123e-09
-5.23537e-09
-7.98539e-09
-2.94925e-10
1.32676e-08
-3.62905e-09
-1.66369e-08
3.05589e-09
3.23047e-09
-1.58744e-08
-8.94782e-09
-1.17399e-08
2.90265e-09
7.61611e-09
1.22116e-09
-4.13457e-10
1.2754e-08
-5.70182e-09
-6.63871e-09
-6.41431e-09
1.21534e-08
-6.15255e-09
5.79109e-09
-8.3697e-09
-3.83571e-09
-6.15137e-10
-4.65719e-09
-6.4676e-09
-8.8467e-09
-5.59391e-09
1.38255e-08
-2.17148e-09
1.07591e-08
3.56579e-09
3.65778e-09
-3.81766e-11
4.34895e-09
-5.81984e-09
-3.18631e-09
2.62806e-09
6.13231e-09
3.99361e-09
6.71952e-09
6.66761e-09
-7.70056e-10
4.45099e-09
-2.31677e-11
3.77576e-09
-1.96865e-10
3.18763e-09
7.98288e-09
2.52297e-09
4.15544e-09
2.74185e-09
7.6849e-09
-4.29444e-09
8.45245e-09
-7.43666e-09
-6.86507e-09
3.71577e-09
1.05859e-08
-9.54704e-10
-8.04508e-09
1.56311e-09
-4.78709e-09
-2.84043e-09
3.49621e-09
4.13131e-09
-5.72389e-09
-1.79158e-11
4.76776e-09
-3.23893e-09
-9.57391e-09
1.71214e-10
-2.26854e-09
3.96159e-09
-2.49162e-09
-7.19386e-09
1.30149e-09
-1.80331e-10
-8.20412e-09
2.47358e-09
-2.55151e-09
9.76348e-09
4.5899e-09
-1.24646e-09
-3.17223e-09
3.51681e-09
-2.18526e-09
-3.0066e-11
5.55519e-09
1.6685e-09
-1.15825e-08
3.19221e-09
6.72179e-09
-1.34395e-08
6.25916e-09
8.84887e-09
-1.72381e-08
-7.78388e-09
8.06143e-09
-1.65651e-08
1.16959e-08
-9.56424e-09
1.3873e-08
3.75264e-09
4.49419e-09
-9.67236e-09
-1.206e-08
-6.16036e-09
-5.91059e-09
1.56731e-08
1.12969e-09
-1.67406e-08
-6.2237e-11
-1.40109e-08
1.88904e-08
1.07936e-08
-1.27158e-08
2.18088e-10
1.36274e-08
-6.25308e-09
2.27641e-09
1.02358e-08
-7.20953e-09
1.13189e-08
-8.29467e-09
4.18528e-09
-1.07114e-08
-2.65847e-09
-3.13541e-09
4.89008e-09
-2.04168e-08
3.27048e-09
-1.29281e-08
-6.04068e-09
-1.07909e-08
-6.24065e-09
-3.38531e-09
-1.63831e-08
-1.11483e-08
-1.20367e-08
-2.49867e-09
-1.65125e-08
-6.23555e-09
2.48512e-09
-4.61939e-09
-1.07939e-08
-6.01269e-10
-6.58597e-09
-2.95664e-09
2.25945e-09
2.07708e-09
-1.37989e-09
-5.42539e-09
4.52923e-09
-2.06047e-09
3.04192e-09
1.61431e-09
1.82624e-09
-6.48246e-09
-1.93501e-09
1.37197e-09
3.60498e-09
-6.27352e-10
-2.96009e-09
-1.83793e-09
-4.76495e-09
2.09225e-09
4.93216e-09
6.55501e-10
-8.91223e-10
3.99901e-09
-1.59279e-09
-3.91877e-09
1.51255e-09
4.66728e-09
-1.27675e-11
-4.3784e-10
7.19738e-09
5.50037e-09
-2.16696e-09
-3.77124e-09
-9.1382e-09
9.81154e-09
4.58223e-09
-5.25557e-09
1.36807e-08
-6.97465e-09
-1.58442e-08
6.32243e-09
2.35505e-09
5.00321e-09
8.61213e-09
7.52184e-09
-7.06095e-09
1.77678e-08
-1.40921e-08
-6.63987e-09
8.58738e-09
-9.00848e-09
-1.61132e-08
3.40492e-09
7.5375e-09
1.28261e-08
-4.05854e-09
-7.32841e-09
7.36516e-09
8.57537e-09
5.45243e-09
4.52169e-11
3.63398e-09
6.70852e-09
1.3267e-08
-2.2679e-09
-3.65963e-09
5.21859e-09
-9.86815e-09
8.30919e-09
-6.0148e-09
2.45037e-09
-9.52118e-11
-5.95849e-09
-6.51633e-09
6.46002e-09
-3.40094e-09
-2.1768e-10
8.08902e-09
-4.4704e-09
1.65313e-09
4.44637e-09
-9.50045e-09
-3.80008e-09
6.11022e-09
1.40225e-10
-7.20581e-09
6.79191e-09
-1.70455e-09
2.11845e-09
4.12178e-09
-9.67446e-09
9.92327e-09
-6.01917e-09
-4.48871e-09
7.50517e-09
3.77546e-09
4.92872e-09
-9.32768e-09
-9.59696e-10
5.35866e-09
-6.11595e-09
7.89711e-09
3.14755e-09
5.89588e-09
-7.408e-09
4.01656e-09
-5.25521e-09
-2.18044e-09
8.10523e-11
4.47487e-09
-8.46382e-11
5.65179e-09
-1.16915e-08
-8.50109e-09
1.45408e-08
-9.75739e-09
1.58338e-08
-4.24645e-10
-2.09721e-09
4.53792e-09
-1.21981e-08
4.33673e-09
-1.81255e-08
-4.73114e-09
1.68594e-08
-1.40897e-08
1.96141e-09
2.15485e-09
9.28489e-09
4.39397e-09
1.33415e-08
8.82852e-09
-2.00152e-08
-5.29464e-09
1.44009e-08
4.23526e-09
2.1816e-09
1.34256e-08
-1.10693e-08
1.47763e-08
-3.93456e-09
-8.66013e-09
-7.52813e-09
-9.19859e-10
3.15334e-09
-7.7577e-09
-3.2835e-09
3.51304e-09
4.94938e-09
-8.37037e-09
-4.34309e-11
8.12792e-09
1.20035e-09
-3.16997e-09
9.31157e-09
7.28397e-09
7.19577e-09
4.4105e-09
9.66938e-09
-8.65456e-09
1.62285e-09
7.64527e-09
-4.88097e-09
7.21659e-09
4.86012e-09
3.86855e-09
1.11826e-09
-2.04647e-09
-5.24481e-09
6.17305e-09
-2.21281e-09
-3.1759e-09
6.50697e-09
2.16747e-09
4.86727e-09
-9.08119e-09
5.45504e-09
7.34063e-09
-5.97744e-09
-7.84655e-09
6.48337e-09
6.12408e-09
-4.02825e-09
9.45903e-10
-8.85834e-09
-5.82577e-09
5.81857e-09
-3.16869e-09
9.40021e-09
-2.15393e-09
-6.91091e-09
-3.35362e-10
4.96646e-09
-1.39201e-09
-9.56718e-09
8.35917e-09
-6.32364e-10
1.34213e-08
-1.44506e-08
1.66168e-09
1.58357e-08
-1.81493e-08
1.68126e-09
8.77145e-09
-4.33864e-09
1.14029e-08
-7.0522e-09
-1.13014e-10
1.59367e-08
-1.68953e-09
8.05859e-09
4.5402e-09
-6.44792e-09
-8.3435e-09
1.02512e-08
-6.16308e-09
1.05903e-08
-1.03506e-08
5.75523e-10
-4.67546e-09
4.41965e-09
-4.96844e-09
-9.80184e-09
-5.8944e-09
-7.83527e-09
-1.44443e-08
6.30687e-09
-2.28631e-09
-1.51086e-08
9.05143e-09
-1.31041e-08
4.65468e-09
-1.2985e-09
5.99938e-09
5.30852e-09
-1.00094e-08
5.78282e-09
-1.20498e-08
1.53137e-08
-1.52088e-08
6.68656e-09
4.28856e-09
-1.01072e-08
-3.76161e-09
-9.80981e-09
3.39231e-09
-1.39109e-08
-1.10076e-08
-3.89785e-09
-4.7045e-09
-8.22223e-09
-5.55525e-10
1.39042e-08
-4.3992e-09
-8.9495e-09
1.88659e-08
-6.74541e-09
-1.2676e-08
-1.0334e-08
-5.25096e-09
-5.10241e-09
2.06874e-08
-1.34876e-08
-6.32385e-09
9.47748e-09
-5.15483e-09
5.57141e-09
1.25167e-08
1.19433e-09
-1.01992e-08
-1.13034e-08
1.62517e-08
-2.68459e-09
-9.47303e-09
1.95842e-09
-1.51998e-08
1.08708e-08
-6.97441e-09
-1.20611e-08
-7.51465e-09
4.37598e-09
-1.15981e-08
2.58969e-09
-9.55667e-09
1.69709e-08
-1.12559e-08
-1.02783e-08
-9.99607e-09
-6.00126e-09
-1.04578e-08
-4.59906e-09
1.34592e-08
1.59757e-09
-5.51617e-09
-1.1687e-08
-9.92812e-09
-2.61478e-09
7.94383e-09
-1.60205e-08
5.76211e-10
7.53459e-09
-3.63202e-09
1.60815e-08
4.95673e-09
9.23845e-09
-9.06825e-09
-1.42623e-08
1.27544e-08
7.01115e-09
-1.07459e-08
-9.01962e-09
1.49787e-08
-5.79233e-09
3.56801e-09
-2.82836e-09
1.9078e-08
2.56196e-09
9.9656e-09
2.45111e-09
-1.26657e-08
3.54065e-09
2.19965e-09
-2.02764e-08
9.93762e-09
-1.84839e-08
7.79352e-09
-3.64823e-09
-1.46726e-09
-1.78722e-08
1.34682e-09
3.11521e-09
1.34102e-08
-1.4459e-09
-6.28198e-09
-1.01443e-08
-6.85615e-09
-1.22628e-08
1.76731e-08
-6.98482e-09
2.04234e-09
-1.14763e-08
1.64188e-08
-1.34735e-08
1.08071e-08
-4.31846e-09
-4.73735e-09
1.46501e-08
-1.67689e-08
-3.55881e-09
1.25122e-08
-1.52354e-08
1.18639e-08
-2.01601e-08
-8.9733e-09
1.6476e-08
-5.46037e-09
2.24763e-09
-1.07104e-09
-1.03141e-08
1.08539e-09
8.59954e-09
1.46436e-08
-1.0731e-08
1.17171e-08
-2.78077e-09
-3.36778e-10
1.22169e-08
3.77354e-09
1.49607e-08
-1.23092e-09
-4.53079e-09
-5.09846e-09
-4.69125e-09
1.43205e-08
-3.39914e-09
-8.40889e-09
7.27724e-09
-6.80735e-09
-9.48147e-09
1.11903e-08
-1.38708e-08
3.66433e-09
-1.29567e-08
1.44079e-08
-6.14253e-09
-1.14459e-08
-3.20209e-09
5.16652e-09
3.245e-09
-7.2611e-09
-7.42989e-09
-9.97046e-09
5.8473e-09
-4.28579e-09
-6.146e-09
-4.47985e-09
-7.11402e-09
-6.82412e-09
9.81408e-10
1.35887e-09
-1.1675e-08
-1.00488e-08
-1.22436e-08
1.54683e-08
6.76097e-09
-1.95148e-08
2.70496e-09
-9.35548e-09
-4.94031e-10
9.00147e-09
-6.7611e-09
-1.74633e-09
1.71169e-09
-5.09619e-09
4.89947e-09
-1.51496e-09
-5.12714e-09
6.3448e-09
1.80896e-09
-5.19464e-09
-1.74144e-09
-2.98103e-09
-3.06189e-10
7.85742e-09
1.32551e-09
1.39683e-09
-1.05798e-08
-2.27213e-09
4.93491e-09
4.42978e-09
1.48358e-09
-4.58783e-09
2.13527e-09
-6.86512e-10
-6.73878e-09
-1.02148e-09
5.25894e-09
2.50132e-09
4.88235e-10
-8.81979e-09
-6.87183e-09
1.69621e-09
5.66386e-09
2.82465e-09
1.6959e-09
-3.03695e-09
5.32899e-09
-3.69071e-10
1.47357e-09
-7.25325e-09
7.17651e-09
3.05886e-09
1.6136e-09
-4.48525e-09
-1.87191e-10
9.56991e-10
-6.35525e-09
-5.97873e-10
-7.26492e-09
-6.2472e-09
4.5545e-09
6.71222e-10
-5.14917e-09
5.10137e-09
9.2004e-09
-8.28584e-09
-6.01592e-09
1.36461e-08
-4.56066e-09
-3.98405e-09
-7.27585e-09
1.3855e-08
7.06696e-09
1.94023e-09
-1.56791e-11
-4.32991e-10
2.37465e-09
-1.02275e-08
1.20261e-08
2.2155e-09
-1.46746e-08
1.11434e-08
-3.67801e-09
-2.35017e-09
-7.53712e-10
-1.19438e-08
1.50477e-08
-2.4396e-09
-9.00666e-09
9.09609e-09
-9.13794e-09
1.30756e-08
7.20578e-09
2.3048e-09
-9.22723e-09
3.22152e-09
7.03275e-09
3.60069e-09
6.59645e-09
-6.6614e-09
8.30494e-09
2.31735e-10
1.2115e-08
2.88358e-09
-4.44093e-10
-1.45545e-08
1.32659e-08
-1.17148e-08
8.69695e-09
7.60016e-09
8.40814e-09
-1.98183e-09
-6.49257e-09
6.62324e-11
1.19896e-08
8.53349e-09
-3.43586e-10
-8.27693e-09
-2.56456e-10
8.87697e-09
-3.71623e-10
1.20177e-08
-6.47305e-09
5.22887e-09
-1.49943e-10
1.26904e-08
3.45899e-09
6.39864e-10
1.1679e-08
9.08035e-09
-1.22153e-09
-4.61935e-10
-7.63202e-09
-4.76127e-09
-9.70295e-09
-7.14271e-09
-1.36268e-09
-2.82559e-09
-1.82571e-09
-8.32154e-10
-4.39107e-09
-3.61658e-09
-4.11828e-11
-1.85484e-09
-4.06476e-09
-1.30605e-09
7.22564e-09
-1.33138e-09
-6.20352e-09
5.68007e-09
-7.08332e-09
-6.8067e-09
9.82526e-09
-1.36773e-08
-5.8267e-10
7.17669e-09
4.14251e-09
-1.10794e-08
-6.74045e-09
-2.93529e-09
2.71106e-10
-2.86364e-09
-6.64183e-09
8.19943e-09
-1.01204e-08
5.9254e-09
-9.4065e-09
7.41089e-09
-8.12481e-09
4.42109e-09
-8.23146e-09
-5.59614e-09
-1.22908e-08
5.50457e-09
5.1114e-09
-2.7581e-09
-1.34327e-08
-2.50526e-09
2.84517e-10
-1.16264e-09
-1.20512e-08
4.98235e-09
-5.30711e-09
-1.87225e-09
5.35361e-09
-9.27436e-09
-8.69411e-11
4.74165e-09
-6.48456e-09
-1.30797e-08
1.48226e-08
-1.55552e-08
-4.4037e-09
2.47005e-08
-2.5438e-09
-1.14268e-08
-1.58461e-09
1.40777e-08
-1.19523e-08
-4.66916e-09
1.63469e-08
-6.67296e-09
-2.2521e-09
-5.32134e-09
-4.37888e-09
-5.31244e-09
-1.09e-08
1.39603e-08
-1.23148e-08
7.8275e-09
-1.99723e-09
1.01767e-08
-1.59648e-08
4.75684e-10
8.39755e-09
-1.18556e-08
-7.96878e-09
-2.18162e-09
-2.50053e-09
-4.31978e-09
-1.34737e-08
-6.10532e-09
6.68697e-09
1.2892e-08
-4.71487e-09
-7.40048e-09
-1.35833e-09
-1.27111e-08
7.66997e-10
5.83878e-09
-1.17459e-08
-5.0493e-09
-7.34086e-09
3.64915e-09
8.741e-09
-7.9552e-09
3.6729e-09
3.2694e-09
1.65167e-08
-1.30992e-08
6.03496e-09
-6.76452e-09
-1.3709e-09
6.4996e-11
-8.08069e-09
1.49992e-08
9.89194e-09
-1.05712e-08
6.60469e-09
9.78589e-09
-1.47298e-09
1.57903e-09
-5.64173e-09
7.34693e-09
6.93087e-09
-2.04426e-10
-8.17545e-11
-4.61811e-09
-3.98341e-09
8.04078e-10
7.79744e-09
1.83379e-11
-8.487e-09
3.85055e-09
-5.18789e-11
3.56146e-09
-7.49299e-09
-4.08971e-09
-2.93134e-09
7.82513e-09
-6.56392e-09
2.49257e-09
-5.46047e-10
-1.04353e-10
-7.8366e-09
4.27355e-09
5.06516e-09
-3.41042e-09
-5.92829e-09
7.65962e-10
7.62379e-09
-4.1162e-09
3.96421e-09
4.55997e-09
1.82499e-09
-1.03492e-08
9.23059e-09
-1.18303e-08
-6.62016e-09
3.63694e-09
3.00497e-09
7.70675e-09
-2.50092e-09
-5.40399e-09
1.98165e-10
-5.01139e-09
4.90959e-09
7.80855e-09
8.16013e-09
-9.19901e-09
-1.46204e-09
-3.90383e-09
5.64118e-09
6.42276e-09
1.53574e-09
5.17096e-09
-6.34152e-10
-6.07256e-09
-8.19929e-11
-7.58128e-09
1.26565e-08
-2.03496e-09
4.6257e-09
4.12695e-09
4.09872e-09
-4.33176e-09
-9.37764e-10
2.50882e-11
-1.34472e-09
1.18955e-08
-9.11416e-09
5.22459e-09
8.51526e-09
-9.55925e-10
-1.01932e-08
6.00892e-09
9.34292e-10
-1.71863e-09
-4.96925e-09
9.63344e-09
-3.9765e-09
-5.84502e-11
4.78663e-09
-6.37671e-09
-1.27639e-10
3.17093e-10
-8.04114e-10
-3.72807e-09
4.2151e-09
7.08498e-10
3.32514e-09
-3.28285e-09
-7.50752e-10
3.44536e-09
-2.72734e-09
-9.51267e-12
-4.45448e-09
-1.08545e-09
5.8091e-09
-2.69133e-10
-9.40226e-10
-3.19716e-09
3.76752e-09
-6.31657e-10
-3.93997e-09
-8.72092e-10
3.64299e-09
9.96623e-10
2.88058e-10
6.20741e-10
2.41639e-09
2.86133e-09
-2.7133e-10
-3.08765e-09
5.75842e-10
-4.13003e-09
3.72211e-09
-4.08646e-09
3.25742e-09
-1.61591e-09
-4.63386e-09
2.46322e-09
3.78655e-09
-5.35353e-09
3.92052e-09
-1.82889e-10
-4.8205e-09
1.18039e-09
5.28282e-09
-1.64271e-09
-9.38823e-09
1.70636e-09
2.38707e-09
5.2948e-09
-1.95819e-09
3.98205e-10
-7.82825e-09
-7.04463e-09
4.11713e-09
-8.68239e-10
-8.13457e-09
-6.73771e-10
-4.7521e-09
7.23434e-11
-4.72789e-09
-7.66379e-10
-1.34854e-09
-5.64119e-09
7.38793e-09
8.43725e-10
-6.46407e-09
-5.23271e-09
-1.11334e-08
4.78389e-09
-3.12632e-10
6.66214e-09
-9.57487e-10
-5.39642e-10
-9.63627e-09
7.15269e-09
1.53013e-09
-1.07358e-09
-7.60927e-09
-1.35667e-09
6.6685e-09
1.84084e-09
-9.91258e-09
4.34222e-09
1.03542e-08
-9.33995e-09
-7.65788e-09
3.0384e-09
4.30684e-09
-1.24572e-09
-6.95181e-09
-2.37083e-09
6.72776e-09
2.59613e-09
-6.95309e-09
2.518e-09
-4.64859e-09
-2.40285e-10
3.69569e-09
-4.57605e-09
-1.9323e-10
2.16251e-09
1.76496e-10
5.46931e-10
1.04638e-08
2.78476e-09
6.9814e-09
-4.42495e-09
7.75664e-09
2.55568e-10
5.31526e-09
5.75832e-10
-4.35207e-09
-1.53902e-09
-3.33457e-09
1.88356e-09
6.76627e-09
-2.43897e-09
-3.19766e-10
-3.76138e-09
2.97579e-09
-3.13794e-09
3.92352e-09
-6.92922e-09
2.89949e-09
2.68341e-10
6.13708e-09
5.15398e-09
-1.24136e-08
1.12256e-09
-4.20217e-10
2.20522e-09
-1.19398e-08
3.77798e-09
7.74161e-09
5.18991e-09
-1.19758e-08
1.63607e-09
-3.65468e-09
-4.20375e-10
8.55142e-09
-3.69208e-09
1.25861e-09
-5.62428e-09
-2.56357e-09
-2.43249e-10
-1.15126e-09
-5.9893e-09
1.23305e-08
-3.54301e-09
-3.23254e-09
1.4195e-09
5.99009e-09
6.45799e-09
6.07323e-09
6.96288e-09
9.0788e-09
1.1106e-08
3.80209e-09
8.32685e-09
4.7723e-09
1.42582e-08
1.49065e-08
-2.0636e-09
1.39248e-09
-1.12636e-09
1.79755e-09
-3.26377e-09
1.37077e-09
-1.70555e-10
2.08331e-09
2.54224e-09
-2.14654e-09
-2.47895e-09
-1.19859e-09
1.81336e-11
-2.32554e-09
-1.62824e-10
3.88085e-09
-2.61819e-09
1.66343e-09
4.81106e-10
9.34821e-10
2.13339e-09
8.49356e-10
-2.50163e-09
-3.25097e-09
5.22155e-09
-5.73647e-09
2.88147e-09
-1.43327e-10
2.99833e-09
-1.0176e-10
-4.49657e-09
-1.13813e-09
2.50647e-09
-2.24318e-09
5.52078e-10
-3.75602e-09
1.0574e-09
-3.41038e-09
6.12456e-09
-5.96516e-09
-7.534e-09
3.98031e-09
-1.72132e-09
-5.91444e-09
-5.58775e-09
4.4185e-09
-1.8811e-08
-1.07614e-08
1.68092e-08
1.27631e-08
-2.17145e-09
-1.05002e-08
-6.13944e-09
1.58968e-08
-7.68927e-09
-1.0379e-08
-1.8863e-09
7.0217e-09
1.10919e-08
-7.10759e-09
-1.16736e-08
5.60811e-09
3.59751e-09
6.87859e-10
3.58962e-09
-1.05882e-08
6.31069e-09
4.3406e-09
-1.05443e-08
6.89152e-09
2.31664e-09
-9.49174e-09
1.07647e-08
1.15038e-08
-4.84658e-09
3.1303e-09
-1.33673e-08
-3.5116e-10
-1.08695e-08
4.50809e-09
5.10984e-09
-1.02299e-10
-1.2225e-08
7.21744e-09
1.05112e-08
5.64562e-09
-1.10469e-08
9.81442e-09
4.784e-10
2.18355e-10
-7.50435e-09
2.24291e-09
5.77023e-09
-1.29801e-08
-9.37279e-09
8.64293e-09
1.75519e-09
-5.48235e-09
-5.52692e-09
-6.08525e-09
-7.26104e-09
8.70514e-10
-9.13268e-09
-8.87348e-09
1.71355e-08
-7.78706e-09
-8.93533e-09
-5.58489e-09
-4.60338e-09
-7.74417e-09
-1.55245e-08
-9.80233e-09
-1.72117e-08
4.28069e-09
3.79823e-09
-8.31512e-09
-9.20175e-09
-5.67114e-09
1.69878e-08
-6.82242e-09
-4.49429e-09
1.34878e-08
-6.51011e-09
-1.26489e-08
8.93747e-09
1.52005e-09
3.03024e-09
8.54624e-09
1.7379e-08
-1.70957e-08
5.60459e-09
-6.47191e-10
2.12652e-08
9.89344e-09
5.42778e-09
-1.38012e-08
-1.40013e-08
-1.38827e-11
-1.06021e-08
-6.02159e-09
7.53697e-09
7.54308e-09
-9.05845e-09
6.77879e-09
3.54521e-09
-1.63456e-08
-8.09465e-09
1.52213e-08
4.10329e-10
9.29107e-09
-1.06069e-08
1.31621e-08
-1.17063e-08
-5.20153e-09
1.76444e-08
7.19207e-10
1.25719e-08
-2.55213e-09
1.2888e-09
1.80369e-08
-1.32541e-08
-8.96656e-11
1.46325e-08
-3.16248e-10
-3.65908e-10
-1.88028e-08
-1.41164e-09
2.01248e-08
-1.78478e-08
-1.27128e-09
1.88614e-08
-3.98105e-10
-8.13236e-09
-1.03309e-08
1.89897e-08
-4.80381e-09
-1.07028e-08
1.92398e-08
-1.4389e-08
-1.90893e-08
3.98977e-09
1.82147e-08
3.50646e-10
-1.56269e-08
-3.81301e-09
1.46935e-08
-1.79476e-09
-1.25481e-08
2.05143e-09
1.66318e-08
1.32096e-08
-2.0236e-08
-8.20901e-09
5.39482e-09
-2.91618e-09
2.13223e-09
-1.11959e-08
1.28372e-08
-1.39799e-08
-1.17913e-08
1.86419e-08
-1.44583e-08
-5.0644e-09
-7.36706e-10
-1.74672e-09
8.38078e-09
-1.16985e-08
-9.56897e-09
-1.01159e-09
1.15082e-08
-9.27686e-10
1.28838e-08
-7.58633e-09
-1.48664e-08
-1.56825e-08
1.57732e-08
-1.10225e-09
-8.83033e-09
1.11139e-08
-1.79661e-08
-1.31419e-08
1.29042e-08
5.24646e-09
3.94992e-09
-2.03666e-08
1.77554e-08
-4.78465e-09
-7.72433e-09
-5.09643e-09
1.37911e-08
9.06076e-09
-1.1728e-08
1.41419e-08
1.33593e-08
2.25599e-09
-2.87008e-09
8.03991e-09
1.09055e-08
-1.49955e-08
1.47086e-08
-1.14534e-08
3.57418e-09
6.03802e-09
-1.45006e-08
9.51995e-09
8.55483e-09
-1.3391e-09
9.99076e-09
-7.09428e-09
1.6116e-09
7.886e-09
1.28695e-08
-2.73942e-10
1.14964e-09
7.01031e-09
6.96241e-10
-7.99698e-09
7.02679e-09
9.34187e-11
-9.02807e-09
9.63091e-09
1.01702e-08
-8.92717e-09
9.57923e-09
-1.2392e-08
2.46155e-09
-5.60205e-09
3.91574e-09
-5.8829e-09
3.68338e-09
-6.82857e-09
-1.90572e-09
-3.03741e-09
1.68764e-08
4.81427e-10
1.10091e-08
-2.85619e-09
1.56967e-08
1.49831e-08
-1.71744e-08
-1.35054e-08
2.00718e-09
-1.93148e-09
1.42169e-10
-1.22019e-09
5.11762e-10
9.27718e-09
1.773e-09
-1.16702e-08
1.04311e-09
-9.54522e-09
8.70186e-09
-1.99751e-10
-1.45328e-08
1.4736e-08
8.39993e-10
-8.00594e-09
6.14074e-09
-1.26676e-08
-1.38868e-08
1.79419e-08
-1.00282e-08
-1.68553e-09
1.67539e-09
7.53825e-09
1.35577e-08
5.72859e-10
-4.52848e-09
-9.60205e-09
-2.11202e-11
5.22895e-09
8.34983e-09
-7.07915e-09
-8.27814e-09
1.11522e-08
4.20505e-09
4.05484e-09
-4.89823e-09
-6.23577e-09
-1.32305e-08
4.80949e-09
8.39985e-09
-8.60277e-09
-9.46236e-09
9.54887e-09
-8.36466e-09
-1.68635e-08
2.50293e-09
1.02679e-08
6.80274e-09
-5.91843e-09
5.05186e-09
1.00255e-08
1.22337e-08
-1.17688e-08
-4.9934e-09
6.15707e-09
1.13056e-08
8.00859e-09
6.08018e-10
9.32255e-10
1.05476e-08
4.26369e-09
-2.55532e-09
1.81548e-08
1.19893e-08
-8.38751e-09
9.3343e-09
-6.7143e-09
-8.07421e-09
5.45423e-09
2.48418e-10
2.67253e-10
8.81862e-09
3.259e-09
-5.86458e-09
-1.14576e-08
1.40632e-08
-2.29473e-09
-3.51308e-09
9.06682e-09
2.08288e-09
-1.85031e-08
1.05556e-08
-6.92615e-09
9.99608e-09
2.00534e-11
-9.76771e-09
-9.51042e-09
1.8608e-08
8.98462e-10
4.84641e-09
-4.7325e-09
-9.62433e-09
4.20591e-09
2.90754e-09
-4.09494e-10
-6.70395e-09
-4.57726e-09
4.0433e-09
4.73989e-09
-2.29319e-09
-6.70964e-09
7.03519e-09
1.96765e-09
-9.71446e-09
5.91118e-09
1.51008e-09
-7.18569e-09
1.01711e-08
-4.13748e-09
1.15205e-09
2.36553e-09
-9.45256e-10
-5.99753e-09
3.55413e-09
-6.46342e-09
-6.80516e-09
-2.47963e-10
2.83525e-10
-5.10368e-09
2.08907e-09
6.54602e-09
9.09741e-09
-3.33537e-09
-7.58048e-09
1.81845e-09
-1.02304e-09
5.87234e-10
9.53324e-09
5.73552e-09
-7.05751e-09
-2.01335e-09
-2.46422e-10
4.95893e-09
-6.53699e-09
-1.22844e-10
-3.97663e-10
-8.12983e-10
3.10178e-09
-8.82579e-09
-3.77795e-09
4.07524e-09
-4.20124e-10
1.31639e-09
-5.90733e-09
2.61478e-10
4.39725e-09
-5.83449e-10
-2.66116e-09
3.01063e-09
-8.79872e-11
1.94902e-09
-6.42773e-09
1.75528e-09
-3.10005e-09
6.52046e-10
3.49877e-09
-3.13455e-09
7.29223e-10
3.0574e-09
-8.071e-11
-4.31843e-11
-2.75305e-09
-4.71857e-09
4.73264e-09
2.73905e-09
-2.73316e-09
-1.006e-10
1.96972e-09
-2.94758e-09
4.06164e-10
-3.15503e-09
-6.92179e-09
-8.2419e-11
7.59145e-09
-4.56661e-09
5.37945e-09
-1.10787e-08
-3.60696e-09
1.143e-09
1.35427e-08
1.40699e-08
-1.57228e-08
-9.42578e-09
-1.12707e-08
7.84392e-09
1.74966e-08
6.6532e-09
-4.35739e-09
7.01235e-09
-9.30816e-09
-2.67346e-09
-3.47806e-10
8.76927e-09
-5.78862e-09
-1.87034e-08
1.86034e-09
-4.36174e-09
1.03604e-08
-2.05064e-08
1.20752e-08
-4.38827e-09
7.03476e-09
-6.04158e-09
-3.6828e-09
-2.01229e-09
1.32003e-08
-9.50324e-09
8.54856e-09
-2.72812e-09
1.22139e-08
-3.31879e-09
7.18551e-09
9.50812e-09
-1.03991e-09
-6.39971e-09
9.45507e-09
-5.06765e-09
1.40387e-09
3.32298e-09
-1.81606e-09
-2.14124e-09
6.34315e-10
-8.97374e-12
-1.05041e-09
4.38237e-09
-5.66879e-09
-1.50821e-09
7.16801e-09
-6.84679e-10
-2.16571e-09
1.90026e-09
8.85677e-09
6.99203e-11
6.4453e-09
2.2521e-09
-4.55013e-09
1.56789e-10
-1.54615e-09
2.74784e-09
7.99206e-09
-5.75516e-09
4.27894e-09
5.04051e-10
-1.89794e-09
-6.5148e-10
-4.35148e-09
6.41089e-09
-2.5839e-09
5.24491e-10
5.09537e-09
-1.87605e-09
-7.5708e-09
-1.47212e-09
5.08962e-09
2.7934e-09
3.90847e-09
-2.85225e-10
3.40993e-09
3.37166e-09
-8.65762e-09
-3.84415e-09
4.6702e-09
-1.62105e-10
-6.21939e-10
4.69252e-09
4.28364e-09
-2.51845e-09
1.60646e-09
1.82612e-10
3.25209e-09
1.65492e-09
5.35397e-09
-1.23244e-09
-1.6512e-09
6.72838e-09
2.76765e-10
4.15509e-09
-5.62371e-09
-5.50966e-09
-1.16148e-08
7.90111e-09
9.22339e-09
-6.29909e-09
8.78668e-10
-8.92343e-11
-8.95927e-09
-4.92871e-09
2.27314e-09
-6.93811e-09
-8.32025e-09
-1.6657e-08
-7.56625e-10
9.52327e-09
7.89035e-09
6.25143e-10
-9.3443e-09
-7.93783e-09
-4.87574e-09
1.90273e-09
-3.55518e-09
6.52819e-09
-5.74904e-09
9.69929e-10
-9.66293e-11
-4.99404e-09
1.23665e-10
-6.7576e-09
-4.08213e-09
5.91102e-09
6.25223e-09
-6.50282e-09
1.22053e-09
-2.8758e-09
1.10308e-08
1.25486e-08
-5.63572e-09
-6.2877e-09
5.28911e-09
-6.37307e-09
1.30206e-08
4.87268e-10
3.85867e-09
7.8991e-09
-1.37849e-08
-6.53591e-09
-4.09385e-09
3.65055e-09
-7.47683e-09
9.69441e-10
2.85684e-09
-5.69445e-09
2.08561e-09
7.25939e-09
3.0447e-09
-5.30293e-09
-2.88288e-09
2.33134e-10
2.47274e-09
-5.1987e-09
3.6954e-09
-4.22263e-09
8.78098e-09
-3.95814e-09
-5.96796e-09
5.70347e-09
-6.64809e-09
-1.92934e-10
6.17458e-09
1.89653e-09
-6.66724e-09
-6.38089e-09
7.35676e-09
3.65223e-09
7.02286e-09
-5.62849e-09
-5.0466e-09
-3.39686e-09
4.01001e-10
-4.78841e-10
1.53374e-09
1.18962e-09
-8.04935e-09
-3.36962e-09
-4.72333e-09
4.69609e-09
-1.31332e-08
4.1351e-09
-3.46442e-12
-3.27997e-09
1.17824e-08
-8.49903e-09
-2.80331e-09
-7.92574e-09
1.07256e-08
1.73872e-09
3.90656e-09
5.52949e-09
-1.11749e-08
9.49535e-09
7.8155e-09
-1.55721e-08
3.48639e-09
-1.55685e-08
9.27873e-09
1.20128e-08
-1.18064e-08
-1.08495e-08
1.24191e-08
1.23212e-08
-5.08898e-09
-4.61846e-09
-2.61385e-09
8.72796e-09
-5.59466e-09
-1.14995e-08
8.36611e-09
9.15234e-09
-1.28739e-08
7.71516e-09
-1.59055e-08
9.48934e-09
-7.93705e-09
5.58339e-09
-1.6237e-09
3.97729e-09
6.95038e-10
-2.81661e-09
7.60737e-09
6.38945e-09
-1.95915e-08
-6.34145e-09
6.01174e-09
-1.0987e-08
-4.22341e-09
-1.74715e-08
-6.39923e-09
9.39136e-09
-9.78073e-09
6.78861e-09
-7.29646e-09
1.13718e-09
-2.39953e-10
-1.03643e-09
-1.56071e-09
1.19885e-08
-5.46286e-09
2.30909e-10
-4.54878e-09
-4.84662e-09
-7.9127e-09
-6.65914e-09
-1.9091e-09
7.53181e-09
-5.50237e-09
-1.95929e-11
-9.99979e-10
-1.58955e-08
2.79254e-09
1.4103e-08
-1.12043e-08
9.68546e-10
9.2358e-09
8.67339e-09
-9.84612e-09
-1.47228e-08
3.07273e-10
-2.8382e-09
-8.95647e-09
8.01591e-09
-1.95191e-09
-6.69729e-09
-1.2778e-08
1.40099e-08
-6.91019e-09
-5.63694e-09
1.27424e-09
-1.25571e-08
6.43626e-09
-1.54821e-08
-9.96454e-09
-1.20017e-09
1.3085e-08
-1.92031e-09
-5.71028e-09
6.61829e-09
-1.08726e-08
6.24382e-10
-4.53662e-10
-8.5404e-09
8.36969e-09
-3.03845e-10
-5.33947e-09
6.26769e-09
4.12178e-10
-9.73776e-09
8.87195e-09
-7.69774e-09
7.80609e-09
-8.60538e-09
8.61291e-09
-1.20769e-09
-6.77134e-09
5.84893e-09
-7.68298e-09
-1.16537e-09
-1.13163e-08
1.21203e-08
-1.17652e-09
-4.32552e-09
1.54676e-08
-9.86827e-09
1.70446e-08
-1.57167e-08
-1.51926e-09
-1.85678e-09
-6.49224e-09
1.91228e-09
-7.03572e-09
-2.16043e-10
-8.53955e-09
2.7541e-09
-5.76281e-09
5.83617e-09
8.72157e-10
-7.86045e-10
6.11404e-09
-4.86501e-09
-1.47641e-08
1.35151e-08
-1.89827e-09
6.83578e-09
-7.16459e-09
7.67229e-09
-7.54342e-09
5.87384e-09
-1.19042e-08
4.88379e-09
-8.29843e-09
9.28848e-09
-1.40864e-09
3.39648e-09
7.10076e-09
-3.88552e-09
-6.61173e-09
-1.2343e-09
-5.76764e-09
1.03984e-08
-3.62391e-09
9.151e-09
-6.76142e-09
1.0111e-09
-1.22646e-08
7.62955e-09
-9.1515e-09
1.22286e-08
-9.95414e-10
-2.08174e-09
1.1255e-08
-1.12555e-08
3.18174e-09
3.94376e-09
-2.47511e-11
8.28132e-09
-1.11557e-08
7.26158e-09
8.37285e-09
-1.07638e-08
-4.87068e-09
6.02049e-09
-4.82866e-09
7.08949e-09
9.02982e-09
1.72407e-10
-5.5844e-09
4.26837e-09
1.35447e-08
-5.5924e-10
6.22983e-09
6.78966e-09
6.57907e-09
-4.3389e-09
-4.35867e-09
5.11294e-09
9.53766e-09
-1.02919e-08
5.06096e-09
-9.97888e-09
-1.25085e-09
1.27808e-08
1.06517e-08
7.1753e-09
-2.73811e-09
-8.93292e-10
-3.54388e-09
4.85867e-09
4.70463e-09
-2.388e-09
3.31425e-09
-2.60781e-09
-3.44455e-09
4.46121e-10
-6.1755e-09
9.04363e-09
-2.40689e-09
4.00615e-09
8.96408e-09
-1.05633e-08
5.31856e-10
-6.46044e-09
3.32077e-09
-5.18853e-09
3.79802e-09
5.31352e-09
-3.923e-09
-1.68405e-09
-3.05836e-09
8.87601e-09
-4.43051e-09
-5.92326e-09
1.47777e-09
5.06774e-09
1.40139e-09
-5.12258e-10
9.37708e-09
3.03239e-09
-4.18458e-09
-8.18772e-09
6.7896e-09
6.16007e-09
-2.8743e-09
-1.00747e-08
9.98989e-09
-1.99974e-10
2.84762e-10
1.64174e-08
-1.05812e-08
-1.59109e-08
1.11296e-08
2.63055e-09
2.65723e-09
8.52586e-09
1.25937e-08
-4.86221e-09
2.9925e-09
1.03956e-08
-9.78091e-09
2.46795e-09
2.45075e-09
-1.0048e-08
6.71293e-11
-2.54004e-09
6.9988e-09
-1.504e-08
4.33672e-09
7.33825e-09
-1.4215e-08
6.77206e-09
-1.27189e-08
8.4148e-09
-1.06923e-08
2.04568e-08
9.15711e-09
-1.49579e-08
1.01375e-08
-3.36474e-09
6.54968e-10
1.32467e-08
-1.82999e-09
-4.41792e-09
5.18496e-09
-7.16889e-09
7.77869e-09
-1.33287e-08
-1.37653e-09
-1.00792e-08
6.98629e-09
1.65836e-09
1.43451e-09
4.07323e-09
-9.25196e-09
-4.90042e-09
-6.30383e-09
6.18302e-09
7.10709e-09
-2.20111e-09
-2.95275e-11
1.9216e-09
-7.66425e-09
7.40101e-09
-5.58366e-09
-1.03002e-08
5.87833e-09
1.00055e-08
2.63911e-09
-7.76478e-09
-4.58012e-10
-1.8903e-09
-1.07926e-08
3.4309e-09
3.81953e-09
-5.88275e-09
-1.37899e-10
-1.02613e-08
9.38991e-09
1.52667e-11
8.56145e-10
6.37091e-09
8.77171e-11
-1.21688e-08
-3.55228e-09
1.34303e-08
2.29076e-09
8.96609e-10
-2.87179e-09
-1.01936e-08
1.44962e-08
-9.513e-09
-1.2748e-08
6.43779e-10
7.70508e-10
-8.54355e-09
9.90548e-09
-7.5537e-09
-1.45517e-09
1.30745e-08
-1.16143e-08
6.34987e-09
3.03559e-09
-1.77558e-08
5.10867e-09
-7.41337e-09
-7.37935e-09
2.17914e-09
9.06875e-09
-1.12738e-09
-1.14331e-09
1.16538e-08
-6.32131e-09
9.33171e-09
-1.33309e-08
7.03478e-09
-8.04968e-10
6.85317e-09
1.59896e-08
3.52072e-09
-1.16722e-08
-7.83812e-09
2.75745e-09
7.97654e-09
-5.3807e-09
-6.94282e-09
6.20813e-09
-1.59305e-08
1.6357e-08
-6.63462e-09
1.20343e-08
-5.83843e-09
1.22278e-11
1.31757e-08
-8.55181e-09
-1.6296e-08
7.39301e-09
8.54013e-09
4.04018e-09
-5.91537e-09
-1.40553e-08
5.79507e-09
7.90347e-09
7.63003e-09
1.01994e-08
-6.49123e-09
-7.899e-09
1.09645e-08
-8.58256e-09
-1.29113e-08
-1.24193e-08
-5.30757e-11
-1.73371e-08
-3.66471e-09
-4.17117e-09
-6.99031e-09
-1.23867e-09
1.24002e-08
-6.65231e-09
-4.88232e-09
7.36346e-09
-7.41597e-09
-4.15424e-09
5.15622e-09
6.41401e-09
2.29047e-09
-6.7413e-09
-2.96514e-09
-2.18398e-09
3.20211e-10
3.9036e-10
1.68949e-09
-9.07016e-09
-8.14322e-09
1.88127e-09
-2.84465e-09
-2.2985e-09
2.60821e-10
-7.23357e-09
1.11511e-08
-6.87345e-09
-4.11441e-09
1.15456e-09
-9.92555e-09
2.02969e-09
-9.97626e-09
3.89725e-09
-4.80092e-09
3.18443e-10
-1.91993e-09
-8.07658e-09
3.12306e-09
4.72962e-09
-7.63894e-10
-1.38913e-08
-6.63559e-09
1.38893e-09
-7.48475e-09
-1.02869e-09
2.79747e-09
-2.75622e-09
9.87437e-10
1.30076e-09
-2.19417e-09
-1.35261e-10
-1.65654e-09
-1.28825e-09
-1.42774e-10
3.08757e-09
-3.58909e-10
3.14064e-12