/*--------------------------------*- C++ -*----------------------------------*\
| =========                 |                                                 |
| \\      /  F ield         | OpenFOAM: The Open Source CFD Toolbox           |
|  \\    /   O peration     | Version:  v1612+                                |
|   \\  /    A nd           | Web:      www.OpenFOAM.com                      |
|    \\/     M anipulation  |                                                 |
\*---------------------------------------------------------------------------*/
FoamFile
{
    version     2.0;
    format      ascii;
    class       surfaceScalarField;
    location    "100";
    object      phi;
}
// * * * * * * * * * * * * * * * * * * * * * * * * * * * * * * * * * * * * * //

dimensions      [0 3 -1 0 0 0 0];

internalField   nonuniform List<scalar> 
37541
(
1.60544e-09
9.34623e-09
4.20959e-09
-1.51599e-08
2.48816e-09
-2.78657e-10
2.23514e-09
-4.44475e-09
-1.57286e-09
-1.38571e-08
1.44409e-09
1.39855e-08
-1.82467e-08
1.29893e-09
1.53757e-08
-4.14889e-09
-1.41269e-08
4.41877e-09
-2.15653e-08
-8.30167e-10
-5.23316e-10
1.47936e-08
-3.65734e-09
-1.06129e-08
1.74457e-08
-5.80989e-09
-1.21592e-08
-1.1452e-08
4.68031e-09
-2.79305e-09
1.50355e-09
-1.13519e-08
1.26415e-08
-1.26217e-08
1.11279e-08
-9.39143e-09
1.23389e-08
2.53893e-09
7.79739e-10
-1.23964e-08
9.07812e-09
-8.13352e-09
-3.18282e-09
-1.28709e-08
4.39181e-09
7.87221e-09
-1.5447e-08
1.05424e-08
-1.19603e-08
2.65037e-09
-1.941e-08
4.13796e-09
1.47075e-08
-1.8037e-08
5.97977e-09
-6.94015e-09
1.02955e-08
1.03339e-08
2.6709e-09
-1.04659e-08
-3.84684e-09
4.78919e-09
9.9099e-09
-8.27442e-09
6.23671e-09
-2.5464e-09
-7.78547e-09
-1.06735e-08
1.80748e-09
-1.25945e-08
-2.63022e-09
-3.64031e-09
3.89014e-09
2.38044e-09
1.55484e-09
-3.9398e-09
-2.45303e-10
3.83082e-09
-2.20018e-09
-7.5807e-11
-3.50049e-09
-9.09526e-10
7.69664e-10
-2.88752e-09
-4.55279e-09
-1.68296e-09
3.89963e-09
1.67354e-09
2.27885e-09
-1.31101e-10
-2.58836e-09
2.55886e-09
-2.17067e-09
5.50301e-10
-6.02621e-09
-1.89132e-09
-1.3355e-09
7.12651e-09
-2.56586e-09
2.95338e-09
7.98816e-09
4.5315e-09
-1.19693e-08
8.80432e-09
-8.39643e-09
7.58028e-09
-6.30249e-09
2.57842e-10
3.47887e-09
-1.70554e-09
-2.03809e-09
8.73013e-09
-5.9042e-09
1.24332e-08
5.10128e-09
7.93305e-09
4.75788e-09
1.46795e-08
-8.08203e-09
-4.52303e-09
-6.14546e-09
1.61384e-09
8.48623e-09
-1.18923e-08
-1.1164e-09
-7.92937e-09
7.72938e-09
1.7781e-09
-9.95273e-09
-3.7176e-09
-5.88658e-09
-7.47755e-09
9.10787e-09
4.2577e-09
-5.56324e-09
-1.54456e-08
1.51233e-08
2.0907e-09
-1.33286e-08
5.67519e-09
1.10194e-08
-3.37482e-09
-3.26926e-09
-4.37522e-09
1.3925e-08
-8.70038e-09
-3.44663e-09
-2.64583e-09
8.64153e-09
5.35699e-09
-1.20208e-08
4.41713e-09
4.95814e-09
-1.0033e-08
-1.06882e-08
8.4153e-09
-1.63576e-08
-4.91231e-09
6.3018e-09
-1.25247e-08
-1.30347e-08
-1.84931e-10
-2.88657e-09
7.38295e-10
7.66532e-09
-5.51618e-09
-2.89429e-10
6.14664e-09
-8.74328e-09
7.91425e-10
2.28462e-09
-3.365e-09
2.93529e-09
-1.40533e-09
-3.27306e-09
-9.92285e-10
1.51683e-09
2.75107e-09
2.35691e-09
-3.34286e-09
3.11152e-10
1.05593e-09
5.20975e-09
3.06598e-09
-2.12715e-09
-5.03977e-09
4.36313e-09
5.88663e-09
2.53748e-09
8.81563e-11
1.73868e-09
2.28988e-09
-1.09209e-09
1.04434e-09
1.0067e-09
2.89537e-09
1.68875e-09
3.29473e-09
1.53395e-09
6.66879e-10
1.2e-09
1.43448e-09
8.22278e-10
8.90684e-10
1.43361e-09
3.03527e-09
-2.38594e-09
-2.08289e-09
-3.40754e-09
5.54077e-09
-6.9971e-10
3.81257e-09
1.23372e-09
-2.01111e-09
1.51272e-09
-3.6871e-10
-3.52999e-09
6.0937e-10
-2.50418e-09
2.09294e-09
-1.05514e-09
-4.06094e-09
3.02304e-09
-3.99103e-09
9.88698e-10
5.09528e-09
1.59452e-09
3.57589e-09
-1.3582e-09
-1.44722e-10
1.79126e-09
-4.12989e-10
1.46651e-09
1.00203e-09
-2.83728e-09
-1.23763e-09
-2.14408e-09
3.09996e-09
-2.51349e-09
-3.46771e-09
2.88118e-09
1.74033e-09
-4.18613e-10
2.86435e-09
5.35858e-09
-2.79667e-09
-9.97402e-10
-1.56475e-09
-2.88608e-09
1.24205e-09
1.23002e-09
4.13462e-10
-1.3486e-09
2.0281e-10
1.56179e-09
6.46708e-09
-9.00936e-09
9.81679e-10
6.64217e-09
-7.18727e-09
2.10715e-09
3.71109e-09
-3.12267e-09
5.87919e-09
1.61015e-09
4.87748e-10
-5.16346e-09
-4.07022e-09
8.74601e-09
-3.41815e-09
2.25433e-09
-6.86794e-09
1.19619e-09
-7.78732e-09
4.87843e-09
-5.3152e-09
-3.7436e-09
2.19123e-09
1.95121e-09
-3.88053e-09
-3.38515e-09
3.33405e-10
-7.64912e-09
-1.69302e-09
-1.08409e-08
-6.56532e-10
8.3745e-09
-8.11857e-09
-2.3889e-09
-6.9923e-09
-3.74027e-09
6.66226e-09
-2.84692e-09
-2.98907e-09
7.81656e-09
-4.08988e-09
-7.60653e-09
3.22909e-09
8.44202e-10
4.52229e-09
-7.72332e-09
-4.44791e-09
5.64263e-10
-5.6802e-09
-4.15903e-09
2.27971e-10
-1.20411e-08
9.65062e-09
-1.51029e-08
-1.54872e-08
-1.81499e-10
2.04577e-08
-1.80227e-10
-1.2636e-08
-3.5017e-09
-8.3829e-09
1.94987e-09
9.93472e-09
-1.53853e-08
4.33146e-09
7.55223e-09
-5.86588e-09
2.4894e-08
-1.92097e-08
1.21614e-08
-1.62199e-08
5.02131e-09
2.58567e-09
-2.34452e-09
-5.26258e-09
5.6968e-09
-7.55154e-10
7.96677e-11
-8.80493e-09
1.00403e-09
6.93524e-09
8.65586e-10
-5.23065e-09
7.1375e-10
5.98691e-09
-3.51973e-09
2.5702e-09
1.94201e-10
-2.88006e-09
7.11281e-10
3.83742e-09
-1.66871e-09
-9.38686e-10
-1.64094e-09
-3.00724e-10
-2.71431e-09
4.13936e-09
-2.81989e-09
5.45651e-10
-1.24566e-09
-3.44263e-10
-4.82031e-09
-1.98953e-09
1.84525e-09
1.97526e-09
-3.37473e-09
2.61998e-09
-9.91546e-11
-3.08234e-10
5.24733e-09
1.25318e-09
-5.21959e-09
-1.28099e-09
-7.98419e-10
3.56027e-09
-2.57548e-09
-1.86383e-10
-1.57729e-09
1.66882e-09
-2.79396e-10
-4.19352e-09
-4.26799e-09
6.42334e-09
-2.50915e-09
-1.54956e-11
5.72866e-09
-4.54129e-09
-3.69656e-09
-1.3646e-09
2.82525e-09
-3.36095e-09
-7.35522e-09
2.3619e-09
-7.10694e-09
2.0374e-10
-9.01056e-09
1.74174e-09
-1.00096e-08
-4.72242e-09
-5.64571e-09
-2.18336e-09
1.25507e-08
-4.17896e-09
5.22671e-09
-5.77034e-09
-9.29816e-09
-6.06876e-09
9.72088e-09
-1.19124e-08
-1.56483e-09
3.32269e-09
-1.15337e-08
2.00878e-09
6.20193e-09
-7.20595e-09
8.3452e-09
-4.3356e-09
-1.06582e-08
7.78731e-09
-1.01836e-08
1.75239e-09
4.09552e-09
-1.36133e-08
1.52345e-09
1.4316e-09
1.18454e-09
-3.58157e-09
-1.12164e-08
-7.49144e-09
-3.41969e-09
7.27354e-10
-1.45378e-09
-4.85302e-09
-8.65841e-09
4.34192e-09
-1.65618e-08
1.29028e-08
3.68502e-10
3.29008e-09
-1.96746e-09
-1.81759e-08
-1.21209e-08
4.16106e-09
1.56744e-08
-7.71473e-09
3.24703e-09
-1.73354e-08
2.89248e-09
-1.23281e-08
9.9279e-09
-1.01949e-09
-5.34989e-09
-8.43204e-09
3.89472e-09
-5.99757e-09
1.12309e-08
-3.17512e-09
-2.40957e-09
1.72788e-09
-1.14008e-09
3.25914e-09
1.27836e-08
-1.51371e-08
-9.06648e-09
3.78757e-09
2.04159e-08
2.99651e-08
-2.37161e-08
-2.13861e-08
-3.18172e-09
7.2974e-09
8.04554e-09
9.91121e-09
4.85763e-09
-1.79508e-08
-2.52847e-09
1.04465e-08
-6.20839e-10
-1.68387e-09
1.42345e-08
8.25054e-09
7.48003e-09
8.84397e-09
-2.77025e-08
-3.95018e-10
-1.36117e-08
2.28507e-08
-1.21485e-08
-1.69003e-08
2.86537e-08
1.29807e-08
-8.41865e-09
1.78384e-08
-2.24008e-08
-3.01303e-09
2.68712e-08
-1.08776e-08
9.05159e-09
-1.31547e-08
8.73485e-09
-1.72085e-08
5.46661e-11
1.43628e-08
-8.64105e-09
2.28942e-09
-3.62619e-09
5.78504e-09
-6.28766e-09
4.12856e-09
-3.97799e-09
5.2963e-09
-1.45568e-08
1.32382e-08
-1.25711e-08
4.96686e-09
-2.33212e-09
-7.58331e-09
1.52115e-08
-7.16288e-09
1.06157e-08
-8.9637e-09
-4.96821e-09
6.76889e-09
2.97508e-10
-8.42094e-09
-8.40402e-10
5.31235e-09
6.4864e-09
-1.67671e-08
-5.87018e-09
-1.20038e-10
-3.07098e-09
-6.79747e-09
-2.70271e-09
-2.0274e-08
-9.43626e-09
1.51536e-08
-1.54841e-08
-7.86085e-09
1.31603e-08
-1.54315e-08
-2.54184e-09
-1.22486e-08
6.36947e-09
-7.97189e-09
-4.69579e-09
-7.80111e-09
2.50281e-09
-3.64141e-09
-1.96438e-08
-1.41551e-08
-1.20726e-08
1.29046e-08
2.06035e-09
-1.18602e-08
3.0776e-09
-9.68394e-09
1.81277e-08
-6.41235e-09
-2.03101e-09
-1.08441e-08
8.95493e-09
1.47938e-08
8.68848e-09
-1.55788e-08
4.52999e-09
2.36033e-09
-1.46658e-08
1.36705e-08
-1.79312e-08
-1.20767e-09
4.47338e-09
-2.06076e-08
-1.29025e-08
1.35132e-08
-1.29955e-08
2.74146e-09
1.80876e-09
1.04971e-08
8.23535e-09
-1.13365e-08
-6.06528e-10
3.70669e-09
1.89484e-09
6.76281e-09
-8.14096e-09
-5.16822e-10
9.21983e-09
-1.00107e-08
2.68537e-09
2.88966e-09
-5.10139e-10
5.85495e-09
2.24588e-09
-7.8882e-09
8.53205e-09
2.96814e-09
8.88058e-10
-1.51929e-08
2.82118e-09
-6.77108e-09
6.91818e-09
1.11186e-08
-1.44518e-08
4.22098e-09
3.59058e-09
7.01774e-09
5.40776e-09
1.62463e-09
-2.69789e-10
6.61184e-09
8.01567e-09
-3.06763e-09
-5.89455e-09
-1.04853e-09
-8.38736e-09
2.03649e-09
1.44416e-08
-1.28872e-08
-2.30026e-09
1.09487e-08
1.57068e-09
-9.54183e-10
7.19801e-09
-7.12427e-09
8.80235e-10
-2.64829e-10
9.82249e-09
-1.05119e-08
1.14658e-08
-1.24929e-08
7.6256e-10
6.05636e-09
7.66632e-10
2.99926e-09
6.63319e-09
7.87932e-09
-5.31221e-09
-9.20029e-09
3.90167e-09
5.01109e-09
2.55267e-09
5.53169e-09
4.42633e-09
-1.68599e-09
1.28056e-08
4.54418e-09
-1.56636e-08
7.58521e-09
1.71179e-09
-1.09828e-08
-5.69625e-10
4.03676e-10
5.69784e-09
-1.17584e-09
7.23959e-09
7.16441e-09
1.06525e-08
7.55099e-09
-7.34619e-09
6.99292e-09
7.569e-11
8.21341e-09
-1.12404e-09
-9.15321e-09
1.15083e-08
-2.27911e-09
4.99118e-10
-2.06732e-09
-1.88451e-08
2.89974e-09
1.38605e-08
2.08498e-09
7.41307e-09
-3.83278e-09
-2.24255e-08
2.68969e-08
3.88451e-09
-2.33682e-08
2.40229e-08
5.77362e-09
-9.47465e-09
2.02062e-08
3.12898e-09
1.60662e-08
2.09513e-09
-2.19942e-08
-3.8929e-09
1.04845e-08
8.47257e-09
1.24137e-08
3.83294e-09
-2.47192e-08
-2.17843e-08
1.34211e-08
1.68358e-08
-1.45561e-08
3.9922e-09
-1.12204e-08
1.19982e-08
4.5107e-09
7.5139e-09
-1.57037e-08
2.13883e-08
-1.80006e-09
-1.0785e-08
6.29244e-09
1.64908e-08
-1.09865e-10
9.53114e-09
5.84749e-09
-1.49299e-08
1.11776e-08
-1.6173e-08
7.46439e-09
8.23947e-09
1.11848e-08
-1.49136e-08
7.6241e-09
6.70534e-09
-1.44393e-08
4.0706e-09
1.69746e-08
1.86026e-08
-1.794e-09
-3.45025e-09
6.74332e-09
-1.49911e-09
-3.02839e-09
-2.07426e-09
3.30822e-09
4.56143e-10
-6.96325e-09
4.26973e-09
2.23709e-09
-7.58924e-09
5.01703e-09
6.31562e-09
2.6466e-09
-6.68128e-09
-2.28103e-09
-3.79599e-09
2.52213e-09
2.13278e-09
-6.66917e-09
2.46241e-09
-5.54358e-09
4.22581e-09
-4.98158e-09
6.60821e-09
-8.75121e-09
-1.07906e-08
2.65096e-10
1.52334e-10
-4.46901e-09
-6.91398e-09
4.388e-09
-1.27039e-09
-9.57938e-09
-4.01616e-09
3.18045e-09
-6.55885e-09
-7.41237e-09
8.9918e-10
2.43518e-09
6.80651e-09
6.02742e-10
-9.84459e-09
7.66122e-09
2.51519e-09
-7.74133e-09
-7.87397e-09
2.24998e-09
-4.8054e-09
1.04293e-08
-9.13653e-09
-3.46456e-10
1.60912e-09
2.91471e-09
-4.39008e-09
1.11051e-08
-1.38396e-09
-4.79535e-09
-1.34149e-10
7.17946e-09
-5.155e-09
1.31193e-11
-2.83791e-09
1.98e-10
3.65786e-10
5.93379e-09
-5.36956e-09
-1.92322e-09
1.51652e-09
5.77626e-09
-3.2644e-09
-2.19311e-09
8.79543e-11
5.79494e-09
-6.66028e-09
1.46805e-09
5.65441e-09
-3.12389e-09
4.0969e-09
3.83536e-09
-1.96681e-09
-4.06185e-09
5.21773e-09
7.31153e-09
-2.64252e-09
-8.1642e-11
-4.58783e-09
-1.20272e-09
6.33393e-09
2.18011e-09
5.02323e-09
-1.46197e-09
-6.20375e-09
3.97138e-09
-1.50994e-10
-4.27107e-09
6.76777e-09
-2.57895e-09
-2.33069e-09
4.66158e-09
-6.60191e-09
4.58676e-09
-8.37984e-09
-8.41735e-10
-3.60998e-09
1.97053e-09
2.48024e-09
-5.18116e-09
4.92405e-09
-5.84621e-10
3.84852e-09
9.33473e-11
2.82535e-09
6.57242e-09
-1.13757e-09
-7.22773e-11
5.89754e-09
-2.44841e-09
1.18085e-09
-2.36218e-10
4.95268e-09
7.16986e-09
-1.32731e-09
3.9928e-09
3.26999e-09
4.2268e-09
-9.97465e-09
-2.10475e-09
7.85282e-09
1.07936e-08
-9.24545e-09
2.67848e-09
2.82076e-09
6.25229e-10
7.34754e-09
-5.63752e-09
9.10758e-09
-4.6191e-09
1.14908e-09
-3.88419e-09
-2.19215e-09
-3.89823e-09
-5.05231e-09
-8.07728e-09
-5.25045e-09
2.43372e-09
-7.92208e-09
3.5728e-09
3.21438e-10
4.02793e-09
-5.51414e-09
-4.60005e-09
4.57435e-09
-8.652e-09
-9.74599e-10
7.2175e-09
-1.52675e-09
-4.06794e-09
-1.62259e-09
1.49604e-08
5.35596e-09
-1.30988e-08
-2.20284e-09
-1.77884e-09
6.06547e-09
4.50882e-09
1.03972e-09
5.603e-09
4.42175e-09
-3.93653e-09
4.63208e-10
6.89409e-09
-3.4207e-09
-3.69699e-09
1.55978e-09
-1.79929e-09
-2.03602e-10
3.54247e-10
2.85073e-09
3.01467e-09
1.94709e-09
4.26333e-09
-2.52351e-09
-1.61803e-11
2.98884e-09
4.11634e-09
6.20888e-09
-2.75685e-09
2.62758e-09
-3.30991e-09
-9.7456e-09
2.22805e-09
6.49798e-09
-5.84081e-09
-2.4506e-09
-1.45421e-09
5.36805e-09
4.43351e-09
-1.05013e-09
-8.75154e-09
-2.2289e-10
7.37893e-10
3.57106e-09
6.39533e-10
-2.45225e-09
-4.7074e-09
7.88693e-09
-5.50172e-09
-8.77114e-09
-5.20913e-09
4.9849e-09
5.15129e-09
-6.97094e-09
-6.3098e-10
-4.65598e-09
4.59817e-09
-6.85381e-10
-4.50897e-10
-4.98662e-09
-3.54715e-10
-4.21841e-09
-7.73918e-09
-1.07703e-08
-3.60436e-09
1.89262e-08
-1.34283e-08
-1.89382e-09
1.08366e-08
-9.97985e-09
-4.46122e-09
3.37343e-09
7.55621e-09
-9.33353e-11
3.56666e-09
1.8733e-08
2.85086e-09
-7.73152e-09
-2.50161e-09
7.38212e-09
-4.47399e-09
7.05322e-09
2.71519e-10
4.67627e-10
-1.04165e-08
-3.47951e-09
1.93982e-10
-8.7093e-09
1.20819e-08
-6.54803e-09
8.20631e-09
-1.4643e-09
-6.42901e-09
-5.63888e-09
5.51979e-09
-1.77355e-09
-4.72812e-09
7.25772e-11
-6.13752e-09
-1.10091e-10
1.04184e-08
-7.61091e-09
-2.34003e-09
-1.24003e-09
1.64801e-09
-1.03879e-08
8.66663e-10
-1.25233e-08
6.33995e-09
-7.11546e-09
-3.95261e-09
1.00542e-10
6.00454e-10
1.80966e-09
-3.92587e-10
-1.00284e-09
-4.74213e-09
-6.4761e-09
1.7011e-09
-8.44537e-09
-6.4172e-09
-1.94945e-09
2.65586e-09
-3.87816e-09
3.17181e-09
3.49957e-09
-5.80098e-09
3.51985e-10
3.5693e-09
-6.37411e-09
6.30442e-09
-3.927e-09
1.01521e-08
-6.87642e-09
-1.31282e-08
1.60776e-08
-1.21218e-09
-8.97249e-09
3.30823e-09
2.40465e-09
-7.49502e-09
-5.03864e-09
5.14224e-09
-7.9525e-10
6.91599e-10
-7.75036e-10
2.91039e-09
-8.67084e-09
6.53551e-09
2.26805e-09
-8.08173e-09
-1.709e-08
-1.07513e-11
3.97259e-09
-9.22666e-09
-2.51311e-10
-4.07428e-10
-2.32407e-09
7.35095e-09
-7.40694e-09
-7.88514e-09
1.50029e-09
-7.85493e-10
-2.25016e-08
5.52206e-09
1.01035e-08
-3.19544e-09
-2.26634e-08
3.3572e-09
1.93953e-09
-4.38047e-09
-1.17358e-08
-3.86867e-09
-9.15448e-09
2.52457e-08
-8.3614e-11
-2.8358e-08
1.4933e-08
1.58353e-08
-8.00393e-10
-1.3323e-08
9.74275e-09
2.16903e-09
-1.05703e-08
7.60096e-09
-1.05508e-08
8.85104e-09
-4.5967e-09
1.03753e-08
-8.73834e-09
-8.11471e-09
3.52972e-09
-3.43821e-09
-6.13534e-09
-9.77246e-10
-1.02617e-08
-3.74687e-09
1.46576e-08
4.70158e-09
-1.9443e-08
3.92538e-09
-1.42985e-08
8.94402e-10
-6.52913e-09
7.11456e-09
-1.48e-09
-4.1035e-09
5.15429e-09
-1.56554e-10
-5.91907e-10
4.67876e-11
-5.98415e-09
-1.42085e-10
-4.55334e-09
1.94447e-09
-7.88031e-10
-1.16053e-08
1.04488e-08
1.19266e-08
-9.93542e-09
-3.71745e-09
-4.23966e-09
4.31886e-09
3.63804e-09
1.70924e-09
-2.7259e-10
-5.89618e-09
2.65172e-09
-4.53118e-09
7.77548e-09
-4.19158e-09
4.54573e-12
2.00752e-09
8.67354e-10
5.97624e-09
-6.90644e-09
1.08627e-08
-9.90093e-09
1.09649e-08
-1.86619e-09
8.83674e-09
-5.65641e-09
3.2377e-09
-2.1126e-09
-3.87174e-09
7.87988e-09
4.99018e-09
1.50345e-08
-9.02085e-09
-1.83165e-08
1.1039e-08
-5.42257e-09
1.26991e-08
-2.25204e-10
-1.07153e-08
-7.37626e-09
-8.79962e-09
-1.61502e-09
6.10979e-09
4.30464e-09
-3.15067e-09
-1.13937e-09
-4.50967e-09
8.23437e-09
-7.03616e-09
-1.42377e-09
4.77683e-09
1.44965e-08
1.22471e-08
-4.6911e-09
-1.07068e-08
3.59581e-09
4.22096e-09
-4.93278e-09
-1.0004e-08
2.45258e-08
-5.96895e-09
-1.43368e-08
8.96693e-09
1.01361e-08
-7.72124e-09
-2.8169e-09
1.53147e-08
-8.37265e-09
1.5919e-09
-9.40697e-10
-9.2678e-09
7.00472e-09
-3.67307e-09
-6.73433e-09
-1.20935e-08
-8.46576e-09
1.7742e-08
-1.06543e-08
1.52279e-10
-1.07544e-10
-9.51665e-09
1.26716e-08
-5.89872e-09
-1.27423e-08
8.41814e-09
1.32202e-08
-2.26766e-09
2.21978e-09
-9.34354e-09
-3.57929e-09
5.47847e-09
-1.14851e-08
-7.53826e-09
5.78805e-09
-5.14191e-09
5.36933e-10
-1.1832e-09
-1.67429e-09
2.44644e-09
5.01526e-09
1.10256e-08
-4.50848e-09
3.3186e-09
-9.83608e-09
5.22577e-09
4.12545e-09
-3.15895e-09
-6.49149e-09
-4.44301e-09
2.73279e-11
6.86205e-09
-3.83892e-09
-6.73364e-11
-7.54815e-09
5.90944e-09
6.86436e-09
-3.40804e-09
-8.21397e-10
-6.81795e-09
3.46797e-09
9.25929e-09
2.76095e-09
-9.0602e-09
-5.18976e-10
2.24798e-09
3.61313e-09
1.06195e-09
-6.9236e-09
1.05949e-09
4.46815e-09
2.04505e-10
8.44304e-09
-4.94783e-09
5.23213e-10
1.06104e-10
3.23658e-09
-5.99637e-09
-4.09886e-09
6.85846e-09
3.40361e-09
3.56141e-10
-9.05863e-09
4.1241e-09
-1.90007e-09
3.8389e-09
-3.91446e-09
1.97567e-09
1.62962e-09
-3.51281e-09
-1.68443e-11
-2.86693e-09
-1.02384e-09
7.72967e-09
-3.60587e-09
-2.88046e-09
3.61943e-09
-1.98842e-09
1.21752e-11
2.61475e-09
-3.1416e-09
-2.98592e-09
-8.03898e-10
-4.95815e-10
-4.84428e-09
5.48017e-09
9.51623e-09
6.56227e-10
-5.30528e-09
9.76157e-09
-2.67625e-10
-3.68973e-10
-2.24375e-09
-2.40107e-09
-5.19006e-09
2.40045e-09
-2.34868e-10
-5.96679e-09
-1.66788e-09
7.86949e-09
-9.93941e-10
1.10465e-09
-6.21032e-09
6.09963e-09
-1.66388e-09
3.92101e-09
-2.27273e-09
1.55867e-11
2.49008e-09
-5.68338e-09
3.34749e-09
-1.54204e-10
1.03939e-08
-8.08595e-09
-2.54281e-09
3.84221e-09
6.39693e-09
1.54747e-10
-3.89805e-09
2.42413e-09
4.84664e-09
-3.37277e-09
-2.33362e-09
-1.45401e-09
-1.10443e-10
1.47916e-10
1.15334e-09
-7.26805e-09
3.87367e-09
-4.71972e-09
-1.23834e-10
3.00417e-09
8.98138e-10
3.27206e-09
-7.17438e-09
-1.9032e-09
3.06717e-09
1.84017e-09
2.14827e-09
-1.30518e-10
-9.59033e-09
5.83392e-09
4.65456e-09
-9.39873e-09
5.63921e-09
-5.8308e-09
-9.92568e-10
-7.30151e-09
-7.92515e-09
1.89733e-09
2.67495e-09
-7.3108e-10
5.69559e-09
-5.21336e-09
1.03162e-08
4.2681e-09
-3.12781e-09
7.95233e-09
1.3322e-09
-6.15678e-09
-4.5232e-09
1.48505e-08
-1.3456e-08
-7.61222e-10
-2.66679e-09
9.50103e-09
-6.073e-09
-5.39172e-09
-8.07095e-09
1.27015e-08
-1.13637e-08
2.29481e-09
1.02781e-09
8.04071e-09
-1.68236e-09
-1.42046e-08
4.29498e-10
5.29523e-09
2.22753e-09
6.388e-09
8.89226e-09
7.50511e-10
1.05705e-08
-1.3002e-08
-8.40508e-09
1.04881e-08
-3.2636e-09
8.77889e-09
-1.09065e-08
-9.10596e-09
3.17539e-09
-8.37695e-09
2.60057e-09
-7.62781e-09
9.82164e-09
3.00658e-09
-6.81706e-09
-2.64444e-09
-4.93013e-09
-2.4034e-10
7.81479e-09
-7.68735e-09
-3.69893e-09
8.74188e-09
-6.21169e-09
1.0811e-08
6.60771e-10
-5.2603e-09
-2.38346e-09
-1.15156e-08
6.69357e-09
-8.12855e-10
6.34167e-09
-2.39745e-09
-3.28359e-09
-4.64806e-09
2.69821e-09
-5.17762e-09
7.12748e-09
-6.93893e-09
2.57663e-09
-2.85836e-10
-1.70421e-09
6.38233e-09
2.01522e-09
-4.64848e-10
5.10217e-09
2.51987e-09
9.35022e-09
-5.48789e-09
1.04476e-08
-5.22958e-09
-2.48054e-09
4.3542e-09
-4.2712e-09
5.5412e-09
-1.04052e-08
3.93071e-09
-5.32843e-09
-1.73093e-09
4.83968e-10
2.54831e-09
7.4836e-11
1.39344e-08
-2.03941e-09
-5.39874e-09
-6.49662e-09
-2.70292e-09
1.15519e-08
5.08538e-09
5.67812e-09
3.16284e-09
-5.06063e-09
-3.78074e-09
3.23286e-09
2.32677e-09
1.18197e-10
2.9725e-09
2.11911e-09
-1.93056e-09
5.95927e-09
2.45898e-10
-8.92267e-09
-9.8703e-09
1.67533e-08
-4.14942e-10
4.75103e-09
-7.03941e-09
-1.54842e-09
6.93532e-09
7.74939e-09
-3.34541e-09
-6.9968e-09
2.59198e-09
9.86078e-09
7.2569e-10
-2.83726e-09
4.14399e-09
1.40025e-09
-1.28957e-08
3.17009e-09
6.37961e-09
4.29634e-09
-4.29007e-09
-8.92911e-09
-9.00953e-09
1.88917e-09
1.23077e-10
-2.2947e-09
-4.50155e-09
8.91485e-09
-4.00311e-09
-4.59633e-09
3.5116e-09
-5.39122e-09
-5.91315e-09
-5.88283e-09
-1.10604e-08
7.80674e-10
-1.45433e-08
2.4823e-08
-2.66719e-08
2.67963e-08
-1.04411e-08
1.15068e-08
1.09336e-08
-1.19991e-08
-1.28849e-08
5.81386e-09
2.31806e-08
-1.61096e-08
4.22547e-09
3.93603e-09
1.43349e-08
9.4068e-09
-1.66881e-08
-7.05391e-09
1.87458e-09
4.18687e-09
8.27342e-09
2.65456e-08
-1.06932e-08
-1.50718e-08
1.55354e-08
2.29439e-08
-1.00105e-08
-3.52662e-09
1.07795e-08
1.63514e-08
1.48539e-08
-8.37364e-09
1.38518e-08
5.22773e-09
-4.62638e-09
2.19472e-08
-1.98674e-08
2.0005e-08
-3.87569e-10
-3.40353e-09
-9.64833e-09
1.34393e-08
-1.0912e-08
-5.41717e-09
1.59405e-08
1.62366e-09
4.14661e-09
-9.30604e-09
3.53545e-09
-8.60196e-09
6.82164e-09
-6.26121e-09
-9.99814e-09
7.65725e-09
1.51755e-09
-5.83142e-09
-1.94782e-09
-2.37616e-09
-1.41942e-08
5.65772e-09
-1.14272e-08
-5.98147e-10
7.22891e-09
-8.49994e-09
-3.47395e-09
-4.31483e-09
-1.17458e-08
-6.54207e-09
4.09309e-09
-5.40856e-09
6.64176e-09
-1.29798e-08
8.79563e-09
6.74036e-10
-1.4879e-08
-2.19072e-09
4.44343e-09
1.86965e-08
-1.04451e-08
-1.40831e-08
3.38266e-10
8.35981e-09
-2.02953e-08
9.20574e-09
-2.82447e-10
-1.33713e-08
3.2859e-09
-6.92324e-09
4.31086e-09
-7.44158e-09
4.35256e-09
-1.15256e-08
-1.0211e-08
1.73841e-08
7.53029e-09
-8.49518e-09
3.31959e-09
-2.35481e-09
-2.48913e-09
1.4372e-08
-8.75942e-09
-8.04773e-09
1.43183e-08
-1.79373e-09
1.21784e-08
1.11827e-08
5.02892e-09
9.63768e-09
3.16612e-09
9.87381e-09
-2.50058e-09
-4.35984e-09
7.34769e-09
-4.85852e-10
-1.94135e-09
-3.38243e-09
2.825e-09
1.81084e-09
-6.75683e-09
-3.39869e-09
-1.94818e-09
1.21036e-08
-5.21591e-11
-7.97458e-09
3.66708e-09
-5.92901e-09
2.49437e-09
1.33082e-08
-1.17764e-08
8.91116e-09
8.18397e-11
-4.49313e-09
-1.51724e-09
-5.99467e-09
-1.89796e-09
-5.60287e-09
-7.14886e-09
-5.16325e-09
1.65206e-09
2.01784e-11
-6.87613e-09
-7.97159e-09
2.34292e-09
3.55411e-10
1.46206e-09
-4.16383e-09
3.43331e-09
4.49056e-09
-5.58145e-09
-1.0046e-09
-2.88126e-09
5.65568e-09
-1.7717e-09
3.38183e-09
-4.35598e-09
1.32745e-09
1.44485e-09
-3.45723e-09
5.44464e-09
-1.58694e-09
6.41319e-09
-2.21618e-09
-3.14508e-09
-2.99215e-09
3.35861e-09
-9.69205e-10
6.01058e-10
-1.38422e-09
-4.66769e-09
3.05908e-09
-7.88121e-09
8.74766e-09
-5.84278e-10
-2.83664e-10
-2.87475e-09
3.26435e-09
-8.27221e-09
-2.06803e-09
5.6254e-09
2.60389e-09
-6.16213e-09
-7.09739e-10
-3.57557e-09
-7.10088e-09
2.84111e-09
-6.02096e-10
5.02227e-10
-3.93457e-09
5.02294e-09
7.65889e-09
-1.2727e-09
9.06129e-09
6.22351e-10
-1.62732e-09
4.36327e-09
-3.35842e-09
3.11849e-09
-1.07618e-09
-1.41997e-09
1.10147e-09
-1.79772e-09
3.81471e-09
1.86832e-09
-7.13496e-10
-5.31206e-11
-2.55728e-10
2.95345e-09
-4.325e-09
6.84775e-10
2.48696e-09
-3.42747e-09
2.12355e-09
-2.51497e-09
-4.51404e-09
1.50133e-11
3.20073e-09
1.29755e-09
-4.81114e-09
4.66029e-09
7.33278e-13
2.67258e-09
-8.04969e-10
7.56447e-10
5.00027e-09
-2.80323e-09
4.51199e-09
-1.26859e-09
-3.52128e-12
5.14601e-10
4.00084e-09
1.39869e-09
1.13998e-11
3.66403e-09
1.35145e-09
-1.40047e-09
1.80803e-09
-4.06842e-10
-5.18706e-12
-1.97691e-08
1.39175e-08
-2.08202e-08
-5.70567e-09
-1.0847e-08
-3.21645e-09
3.48152e-10
1.78187e-08
-1.44636e-08
-3.7033e-09
1.99998e-08
-1.65183e-08
-3.13336e-09
-1.23804e-08
4.66497e-09
2.55342e-08
-6.45551e-09
1.40748e-08
-8.65282e-09
2.72352e-08
-9.97257e-09
-1.01968e-08
-9.02084e-09
1.27817e-08
-2.17995e-08
-1.5193e-10
1.29305e-08
-7.48715e-09
-9.21111e-09
-1.58426e-08
9.23508e-09
-1.37942e-08
-9.53567e-09
-1.6488e-08
-1.38244e-08
-1.41844e-08
1.08853e-08
-5.91206e-09
-3.44135e-08
3.32106e-09
7.81389e-09
2.32781e-08
-9.16191e-10
-1.5397e-08
-1.81005e-08
6.53241e-09
-1.71268e-08
6.52448e-09
4.06959e-09
2.66606e-08
-1.19253e-08
-1.56518e-08
8.34371e-09
2.16376e-08
7.59015e-09
-2.23199e-08
2.25437e-08
-1.62477e-09
-1.28323e-08
2.20471e-08
1.94828e-08
-1.27638e-08
2.46792e-08
-1.71166e-08
-2.29596e-08
-6.1778e-09
8.53709e-09
-1.55201e-08
9.22013e-09
1.95302e-09
-9.04048e-09
-1.64594e-08
2.35465e-08
-5.04616e-09
-1.01277e-08
-9.9129e-09
8.4674e-09
-4.73233e-09
3.91091e-09
-3.09404e-08
-1.20989e-08
-1.70548e-08
-1.23563e-08
1.11525e-08
6.99887e-09
-5.79506e-09
-1.56859e-09
-1.17667e-08
9.79117e-10
1.39936e-08
-1.5922e-09
-1.35121e-08
1.11067e-09
3.03198e-09
8.50403e-09
2.4577e-09
-6.2031e-09
6.73098e-09
1.06247e-08
-9.43462e-09
1.10987e-09
2.12178e-09
-9.23714e-09
2.50371e-09
1.49167e-08
-8.18341e-09
-1.13683e-09
-9.3905e-09
1.29017e-09
-8.85754e-09
-2.97559e-10
8.01833e-09
1.11889e-08
-9.09829e-10
-1.18713e-08
4.83036e-09
-6.17917e-10
-1.03852e-08
8.13752e-09
9.94078e-09
-9.57425e-09
1.73722e-08
-1.03853e-08
-1.62194e-08
1.85763e-08
1.31788e-08
2.88723e-08
1.60067e-08
-2.68278e-08
-1.80511e-08
3.55167e-09
1.42769e-08
1.10436e-08
-2.32909e-08
1.06231e-08
-1.9516e-08
-1.88468e-08
8.34106e-09
3.34158e-08
2.63453e-08
7.59869e-10
-1.10985e-08
2.21523e-08
1.84698e-08
-1.30569e-08
-8.91336e-09
2.27302e-08
1.42744e-08
-2.70844e-08
-1.73334e-09
2.14854e-08
-1.05188e-08
2.8912e-09
-1.3858e-08
4.00193e-08
-1.01928e-08
-9.30153e-09
-1.55901e-08
6.97171e-09
6.29976e-09
2.31804e-09
-1.847e-08
-1.4378e-08
1.72578e-08
6.07025e-10
-1.57575e-08
-2.29586e-08
8.7722e-09
-1.91915e-10
-3.11588e-09
-1.92358e-08
-1.78448e-08
5.56562e-09
2.10512e-08
-1.64236e-08
-1.62875e-08
1.48664e-08
9.17907e-09
-1.01923e-08
-1.69826e-08
-2.55681e-09
-8.84446e-09
2.72347e-09
9.74728e-10
5.1453e-09
-2.34631e-09
-4.10933e-09
-2.38925e-09
7.20295e-09
-5.84303e-09
2.17498e-09
1.1043e-09
8.82169e-09
-6.50437e-09
-1.68564e-09
3.85353e-09
-3.49363e-09
-6.18661e-09
5.82588e-09
8.29267e-09
-2.80282e-09
-1.63657e-09
8.84614e-09
1.98986e-09
-2.5438e-09
3.49895e-09
3.62092e-09
-6.14569e-09
-2.23159e-09
4.67052e-09
-5.24275e-09
5.58863e-10
-5.68076e-09
2.88947e-09
-4.91079e-09
-5.06781e-09
-7.84579e-09
3.61823e-09
8.72661e-09
8.1624e-09
-4.66412e-09
1.17138e-09
-3.47593e-09
1.18089e-08
8.30463e-09
7.04944e-09
4.84142e-09
-6.16994e-09
-5.72138e-09
-2.74227e-09
2.79254e-09
1.87768e-09
-1.9276e-09
4.3238e-09
-8.374e-09
1.30686e-09
3.53162e-09
4.08379e-09
-5.67282e-10
3.54949e-09
-3.64353e-09
2.88591e-09
-5.85103e-09
5.83087e-09
2.63529e-09
-4.16283e-09
4.3785e-09
9.04063e-12
-8.37889e-10
9.36544e-10
4.86761e-09
-1.42457e-09
8.6282e-09
-1.15206e-09
-2.66028e-09
6.04372e-09
-2.4466e-09
9.49919e-09
9.99601e-09
-5.99868e-09
-2.14399e-08
1.74427e-08
4.50425e-09
-1.46586e-08
2.01504e-08
2.79965e-09
1.53578e-08
-2.4156e-08
1.05908e-08
5.63919e-09
-1.34304e-08
-8.33137e-09
1.73527e-08
-4.51714e-09
1.19734e-08
-3.25822e-10
1.05094e-09
-1.26986e-08
1.50812e-08
-1.14392e-08
-1.36532e-08
-4.37211e-09
-3.41461e-09
-5.18916e-09
-1.60775e-08
9.24325e-09
1.20233e-08
-1.00525e-08
5.73763e-10
9.15295e-09
1.00493e-08
-1.82304e-08
-6.47757e-09
6.16069e-10
9.00738e-09
-1.5912e-08
6.47555e-09
6.1953e-09
-1.74635e-08
5.67908e-09
5.5889e-09
1.09067e-08
-1.86722e-08
1.39608e-08
-1.94047e-09
-4.56856e-09
9.10967e-09
-9.37136e-09
8.45806e-09
1.15574e-08
-1.4522e-08
-1.00374e-08
-1.16293e-09
5.09317e-09
-1.19786e-08
1.83169e-08
-7.02686e-10
-8.35076e-09
-9.61921e-09
-8.57326e-09
-9.59378e-09
1.74087e-08
-1.04678e-08
-1.52915e-08
4.26726e-09
-8.37074e-09
4.67859e-09
-1.27972e-09
-2.37106e-08
-1.39699e-08
-8.60563e-09
-2.38228e-08
-1.32218e-08
8.16504e-09
-1.83968e-09
6.89631e-09
-9.13673e-10
-8.48003e-09
-3.82822e-09
1.13199e-08
-1.20386e-08
1.03155e-09
-3.12709e-10
1.48887e-08
5.66222e-09
6.99813e-09
-1.34734e-08
8.40198e-09
-2.9801e-09
-4.55031e-09
8.94725e-09
4.16223e-09
2.94492e-09
6.35775e-10
-8.53338e-09
2.94483e-10
5.62155e-09
-1.06045e-08
-6.24041e-09
6.75367e-10
-7.91344e-09
-3.8232e-09
2.61535e-09
-3.52791e-09
4.73578e-09
-3.21796e-10
-4.20465e-09
7.03274e-10
-1.94253e-09
-2.50122e-09
7.05914e-09
-3.62967e-09
4.96527e-09
-3.2781e-09
-4.46666e-09
5.15199e-10
-2.48604e-09
-2.20989e-09
1.16805e-09
-8.72561e-10
-5.81811e-09
5.7623e-09
-2.88999e-09
-5.37351e-09
1.65558e-09
-6.99481e-09
-7.43783e-09
7.50654e-09
1.58684e-09
7.37071e-09
-3.75132e-09
-1.49014e-08
-6.08212e-11
-6.77557e-09
7.16573e-09
-2.00768e-08
-4.83924e-09
-4.73789e-09
-7.78373e-09
5.21814e-09
5.6384e-09
-1.899e-08
-1.43864e-08
-9.57962e-09
2.59569e-08
-1.99072e-09
-1.15577e-08
8.91724e-09
-1.17459e-08
3.98657e-09
-2.38589e-08
1.10403e-08
8.83206e-09
-6.97561e-09
1.47738e-08
6.35696e-09
-1.41549e-08
3.46986e-09
-1.79578e-09
-8.64942e-09
9.41948e-09
1.05724e-08
-1.48346e-08
1.53943e-08
-1.01394e-08
-2.24057e-08
1.91269e-09
1.62242e-08
7.82008e-09
-1.2377e-08
2.64769e-08
6.69411e-09
-1.66326e-08
2.04798e-08
-4.2454e-09
-1.26895e-09
-3.18217e-09
-3.41831e-09
7.86944e-09
-1.99689e-09
5.08502e-09
-4.35704e-09
4.17561e-09
-9.45659e-09
3.28406e-09
-6.10677e-09
7.10018e-09
-2.23533e-09
-3.74134e-09
-1.30119e-10
-7.40382e-09
-4.28813e-09
-3.60716e-09
3.79812e-09
-3.60928e-09
-1.13962e-09
-1.87264e-09
-5.81917e-09
-1.89281e-09
9.5846e-09
-5.16014e-09
4.9464e-09
3.5489e-09
-6.96665e-09
8.36415e-09
3.33586e-09
-7.4894e-09
4.65398e-09
-5.00202e-10
6.54557e-09
-5.50649e-09
2.29681e-09
-7.64106e-09
-1.08151e-08
3.8972e-09
1.45591e-08
-9.89817e-09
8.28678e-09
-6.02953e-09
8.67047e-09
1.3777e-09
-1.99462e-08
7.14963e-09
-9.29414e-09
-9.25966e-09
-4.63101e-09
6.40126e-09
-1.3215e-09
-4.30058e-09
-5.93363e-10
6.21551e-09
-6.42171e-09
6.95626e-09
-1.85597e-09
6.05168e-09
6.30271e-09
-1.09766e-08
1.79734e-09
-2.16736e-09
-4.24745e-09
-2.07461e-09
6.10578e-09
2.16248e-10
-3.12685e-10
-5.93945e-09
6.75445e-10
-4.57775e-10
5.72171e-09
1.72382e-09
3.02258e-09
-2.24526e-09
3.86723e-09
3.15617e-09
-1.28736e-08
5.85013e-09
-5.87554e-09
2.24316e-08
-1.28641e-08
-3.6922e-09
-4.13926e-09
1.69508e-08
-1.86865e-08
1.12476e-08
-1.76687e-08
2.28201e-09
1.23115e-08
-9.39586e-09
-2.85706e-09
1.4683e-08
-5.78015e-10
1.75161e-08
2.62301e-09
-6.24406e-09
-1.38949e-08
1.58227e-08
1.68135e-08
-1.51198e-08
-1.22203e-08
-4.82972e-09
3.0229e-08
-1.06536e-08
9.05626e-09
1.93333e-08
-2.02733e-09
3.01243e-09
2.15726e-09
8.44795e-09
-1.20434e-08
6.60787e-09
1.18918e-08
2.35897e-10
-7.42922e-09
-8.65951e-09
6.17633e-09
9.91184e-09
-9.062e-09
3.31501e-09
-1.68275e-09
-1.35999e-09
-3.21684e-09
-4.08285e-09
-3.84328e-09
-6.57882e-09
6.9433e-09
5.33773e-09
-9.44949e-10
-1.13361e-08
6.02932e-09
-3.41448e-09
4.32838e-09
-4.06131e-09
1.06418e-08
-4.0454e-10
-2.35514e-09
1.60857e-09
-2.23892e-09
3.17641e-09
-4.78075e-09
3.14722e-09
-1.0265e-09
3.45404e-09
5.72255e-09
-7.13685e-09
3.95305e-09
5.63665e-11
7.6492e-10
-2.58293e-09
5.12335e-09
-6.53577e-09
3.99539e-09
7.79886e-10
-3.30633e-09
3.53499e-09
-1.14514e-09
4.96477e-09
-7.35385e-09
8.96971e-09
8.3652e-10
-6.27028e-09
-2.59634e-09
3.09707e-09
3.40965e-09
-3.90843e-09
3.23111e-09
-6.97243e-09
9.13839e-10
-3.05952e-09
4.2219e-09
-2.07533e-09
5.86427e-09
-1.85345e-09
5.8046e-09
4.15717e-09
-4.99666e-09
-1.78103e-09
5.19041e-09
2.39567e-09
7.12912e-09
6.0107e-11
7.77687e-09
-1.60024e-09
-2.01842e-09
4.4213e-09
-2.29073e-09
5.64666e-09
8.81162e-09
-4.56485e-09
3.7496e-09
-3.57731e-09
8.20636e-10
3.13082e-09
1.9138e-09
3.34573e-09
1.69728e-09
1.63742e-09
7.97466e-09
-1.04162e-09