/*--------------------------------*- C++ -*----------------------------------*\
| =========                 |                                                 |
| \\      /  F ield         | OpenFOAM: The Open Source CFD Toolbox           |
|  \\    /   O peration     | Version:  v1612+                                |
|   \\  /    A nd           | Web:      www.OpenFOAM.com                      |
|    \\/     M anipulation  |                                                 |
\*---------------------------------------------------------------------------*/
FoamFile
{
    version     2.0;
    format      ascii;
    class       volVectorField;
    location    "100";
    object      U;
}
// * * * * * * * * * * * * * * * * * * * * * * * * * * * * * * * * * * * * * //

dimensions      [0 1 -1 0 0 0 0];

internalField   nonuniform List<vector> 
17078
(
(-0.202936 -0.174136 -1.16806)
(-0.167943 -0.012072 -0.415857)
(0.013207 -0.165805 -0.92983)
(-0.0145726 -0.141148 -0.896937)
(0.0392647 -0.134372 -0.881698)
(-0.00430835 -0.19896 -0.912746)
(0.0297876 -0.190136 -0.919428)
(0.0449682 -0.12108 -0.86017)
(0.0140979 -0.161126 -0.877499)
(-0.00776606 -0.0642786 -0.822036)
(-0.0346101 -0.0980915 -0.833098)
(0.031044 -0.0638147 -0.819291)
(0.0405557 -0.123651 -0.894207)
(-0.00934697 -0.159194 -0.846292)
(0.00603151 -0.132531 -0.837045)
(0.0230321 -0.0658944 -0.806281)
(0.0439295 -0.0494261 -0.796627)
(-0.0399718 -0.136366 -0.836526)
(-0.0249638 -0.0766951 -0.765171)
(0.0100554 -0.0551978 -0.793544)
(0.0400937 -0.0661721 -0.834493)
(0.03618 -0.0390423 -0.842087)
(0.0324873 -0.0586469 -0.809653)
(-0.031318 -0.133517 -0.820847)
(0.0163192 -0.0494704 -0.755618)
(0.0411752 -0.0358445 -0.811118)
(-0.214001 0.0312319 -0.566677)
(-0.214632 0.0418946 -0.491441)
(-0.263618 0.0472991 -0.497805)
(-0.20927 0.00301682 -0.609123)
(-0.217449 0.00156363 -0.578403)
(-0.267803 0.0601966 -0.509667)
(-0.273278 0.0751627 -0.436848)
(-0.270703 0.0357534 -0.566804)
(-0.248158 -0.0350658 -0.668546)
(-0.278065 0.0357649 -0.56102)
(-0.305205 0.0662818 -0.54898)
(-0.205435 -0.107085 -0.859588)
(-0.168955 -0.129673 -0.913584)
(-0.290083 0.0183796 -0.67388)
(-0.283395 -0.0120951 -0.646541)
(-0.243048 -0.0770357 -0.86977)
(-0.219707 -0.0967522 -0.891766)
(-0.237859 -0.0798778 -0.821629)
(-0.216226 -0.0688453 -0.817428)
(-0.781373 0.0746322 0.00342258)
(-0.771307 0.125702 0.034569)
(-0.810642 0.0902661 0.0388971)
(-0.755175 0.0435973 -0.132539)
(-0.746376 0.12561 -0.391491)
(-0.655837 0.00263636 -0.49181)
(-0.704922 0.121232 -0.399256)
(-0.707817 0.0616033 -0.230474)
(-0.777724 0.0959111 -0.0315821)
(-0.777145 0.0952835 0.042317)
(-0.688774 0.054105 -0.267167)
(-0.810326 0.0826709 -0.00718424)
(-0.760936 0.050899 -0.216058)
(-0.702795 0.0679048 -0.293905)
(-0.683063 0.0721247 -0.165132)
(-0.751358 0.166669 -0.286186)
(-0.782836 0.169044 -0.100816)
(-0.311148 -0.183272 -0.513606)
(-0.324275 -0.198011 -0.500902)
(-0.261104 -0.225852 -0.378024)
(-0.260735 -0.194829 -0.360636)
(-0.256234 -0.204827 -0.248646)
(-0.230311 -0.185042 -0.269994)
(-0.248832 -0.202182 -0.204925)
(-0.374993 -0.208295 -0.485051)
(-0.346749 -0.199126 -0.490413)
(-0.303043 -0.176195 -0.518288)
(-0.216102 -0.17115 -0.314132)
(-0.193737 -0.186053 -0.213988)
(-0.318089 -0.222365 -0.342976)
(-0.252752 -0.160108 -0.401337)
(-0.263395 -0.196287 -0.320701)
(-0.215999 -0.195627 -0.223908)
(-0.241234 -0.0924666 -0.377109)
(-0.248175 -0.0975908 -0.446023)
(-0.234037 -0.0874541 -0.330511)
(-0.236037 -0.0997369 -0.394102)
(-0.258852 -0.0950269 -0.46855)
(-0.244534 -0.0475285 -0.363212)
(-0.256696 -0.0600415 -0.446739)
(-0.257229 -0.0825159 -0.374017)
(-0.220904 -0.0682733 -0.251044)
(-0.229459 -0.0858205 -0.331658)
(-0.253461 -0.0799163 -0.471574)
(-0.232147 -0.084485 -0.381075)
(-0.221202 -0.0579763 -0.238876)
(-0.23272 -0.0740534 -0.37407)
(-0.299025 -0.0490783 -0.374385)
(-0.253574 -0.0228919 -0.244964)
(-0.235241 -0.0442958 -0.260998)
(-0.36632 -0.214394 -0.50485)
(-0.330468 -0.204841 -0.553342)
(-0.35606 -0.181288 -0.554503)
(-0.350723 -0.202675 -0.546679)
(-0.315969 -0.164142 -0.680734)
(-0.309654 -0.179064 -0.602898)
(-0.282498 -0.155961 -0.587157)
(-0.277283 -0.14908 -0.645098)
(-0.281116 -0.162366 -0.603766)
(-0.246796 -0.141811 -0.597085)
(-0.352698 -0.173631 -0.60096)
(-0.384716 -0.178678 -0.705374)
(-0.373165 -0.178314 -0.712317)
(-0.364819 -0.193211 -0.762602)
(-0.30567 -0.142656 -0.74199)
(-0.301082 -0.18176 -0.653377)
(-0.314265 -0.2064 -0.643801)
(-0.333021 -0.199224 -0.592592)
(-0.326234 -0.197729 -0.590411)
(-0.326379 -0.182821 -0.798047)
(-0.315892 -0.189867 -0.694872)
(-0.339173 -0.207818 -0.78723)
(0.0364526 -0.0983652 -0.924887)
(0.0475503 -0.101493 -0.933842)
(0.0624886 -0.055473 -0.817621)
(0.0809608 -0.0381721 -0.843431)
(0.0391404 -0.108624 -0.966618)
(0.0626732 -0.0668576 -0.868682)
(-0.243112 -0.0120016 -0.472047)
(-0.229351 0.0128328 -0.445216)
(-0.273093 -0.0306443 -0.509576)
(-0.251465 -0.0469067 -0.531861)
(-0.263498 0.0170926 -0.446513)
(-0.251833 0.0302133 -0.375543)
(-0.279017 0.00288759 -0.32649)
(-0.259504 0.0102968 -0.236947)
(-0.270615 0.038292 -0.366231)
(-0.248063 -0.000846073 -0.356173)
(-0.242081 -0.0252547 -0.414505)
(-0.263288 0.0383242 -0.312901)
(-0.249715 -0.0301946 -0.341152)
(-0.24676 -0.00147256 -0.311746)
(-0.255375 0.00947484 -0.261965)
(-0.209786 -0.0517086 -0.691999)
(-0.228768 -0.0116802 -0.584822)
(-0.218146 -0.0117805 -0.620191)
(-0.249517 0.039007 -0.507388)
(-0.298089 -0.0111086 -0.642029)
(-0.276688 0.0227532 -0.50981)
(-0.256295 -0.0305288 -0.656216)
(-0.276153 -0.0476758 -0.738513)
(-0.182573 -0.118259 -0.91275)
(-0.229682 -0.0664388 -0.71191)
(-0.246315 -0.0899184 -0.883442)
(-0.215236 -0.114102 -0.883671)
(-0.16839 -0.100114 -0.773401)
(-0.183151 -0.119491 -0.776334)
(-0.197305 -0.147018 -0.743386)
(-0.208281 -0.168303 -0.762231)
(-0.160348 -0.0642029 -0.753308)
(-0.166999 -0.0554567 -0.732106)
(-0.147551 -0.0715138 -0.687341)
(-0.206199 -0.093555 -0.66806)
(-0.116219 -0.0569938 -0.690353)
(-0.125693 -0.0789147 -0.691291)
(-0.186753 -0.100774 -0.667071)
(-0.175622 -0.0829275 -0.663418)
(-0.211635 -0.130397 -0.688744)
(-0.137872 -0.0846328 -0.763593)
(-0.101192 -0.0777181 -0.736894)
(-0.128406 -0.13407 -0.803621)
(-0.11354 -0.140242 -0.806972)
(-0.115264 -0.0654904 -0.750851)
(-0.201298 -0.149537 -0.712636)
(-0.176475 -0.152007 -0.715447)
(-0.160257 -0.165476 -0.737957)
(-0.166167 -0.171265 -0.780194)
(-0.170937 -0.161489 -0.745363)
(-0.207096 -0.144655 -0.698984)
(-0.125036 -0.116999 -0.856352)
(0.00873099 -0.0742194 -0.865274)
(0.0281753 -0.119567 -0.915816)
(0.0665117 -0.0736141 -0.87498)
(0.0181562 -0.0792787 -0.841911)
(0.0254004 -0.0360138 -0.781192)
(8.25425e-06 -0.0454714 -0.78532)
(-0.00113498 -0.113582 -0.939211)
(0.0292777 -0.107052 -0.940065)
(0.0243599 -0.163774 -1.05964)
(0.0230136 -0.109935 -1.00704)
(0.01021 -0.083632 -0.992352)
(-0.00783437 -0.113794 -1.00949)
(0.0437685 -0.0613065 -0.97155)
(0.0159368 -0.0418518 -0.899979)
(0.0198251 -0.049184 -0.91278)
(0.0488879 -0.0563987 -0.896278)
(-0.140162 -0.126674 -0.701601)
(-0.0987086 -0.158476 -0.770963)
(-0.129615 -0.151358 -0.731873)
(-0.0858651 -0.0813955 -0.717583)
(-0.115475 -0.0916287 -0.68113)
(-0.0650353 -0.0610232 -0.660793)
(-0.107417 -0.0930421 -0.646986)
(-0.0353774 -0.0471634 -0.668147)
(-0.119452 -0.123522 -0.666005)
(-0.122835 -0.162568 -0.724452)
(-0.0732689 -0.149304 -0.794846)
(-0.0981996 -0.191269 -0.781659)
(-0.0429906 -0.0498801 -0.71437)
(-0.0732692 -0.091102 -0.669656)
(-0.115941 -0.135237 -0.709127)
(-0.0743653 -0.128252 -0.816133)
(-0.0630871 -0.14338 -0.777373)
(-0.0890513 -0.128731 -0.707873)
(-0.099164 -0.0307782 -0.758376)
(-0.050259 -0.0146642 -0.750016)
(-0.113208 -0.067949 -0.870161)
(-0.0682648 -0.00854033 -0.771696)
(-0.0761571 -0.113365 -0.913805)
(-0.0824023 -0.0810704 -0.878041)
(-0.0779556 -0.0798151 -0.88035)
(-0.0430617 -0.090144 -0.879587)
(-0.122899 -0.142513 -0.882205)
(-0.136582 -0.132784 -0.866379)
(-0.461671 0.0392934 -0.838983)
(-0.426376 0.206812 -0.668703)
(-0.457094 0.292115 -0.629604)
(-0.498112 0.055381 -0.808588)
(-0.470838 0.0652776 -0.771908)
(-0.463867 0.0481245 -0.851713)
(-0.418529 0.0772022 -0.823324)
(-0.512111 0.0635206 -0.855236)
(-0.486488 0.10913 -0.84476)
(-0.445707 0.25839 -0.565214)
(-0.438327 0.286999 -0.562442)
(-0.480065 0.214769 -0.663798)
(-0.428458 0.181856 -0.728966)
(-0.504398 0.156377 -0.760129)
(-0.464287 0.250831 -0.614507)
(-0.458745 0.224502 -0.636277)
(-0.562324 0.142232 -0.553416)
(-0.52943 0.0937969 -0.590406)
(-0.539307 0.103402 -0.584129)
(-0.554977 0.0993333 -0.501352)
(-0.509212 0.18602 -0.490792)
(-0.569853 0.121153 -0.499358)
(-0.588704 0.128298 -0.483447)
(-0.586298 0.137349 -0.512575)
(-0.571823 0.143999 -0.534387)
(-0.593781 0.11582 -0.43425)
(-0.600522 0.178675 -0.421392)
(-0.535948 0.138872 -0.508219)
(-0.51115 0.131366 -0.541498)
(-0.636705 0.179552 -0.363602)
(-0.578853 0.204049 -0.408942)
(-0.56368 0.210319 -0.4421)
(-0.179753 -0.196178 -1.02467)
(-0.138138 -0.218018 -1.02796)
(-0.116567 -0.155643 -1.0168)
(-0.143825 -0.168317 -1.05156)
(-0.158903 -0.212577 -1.02969)
(-0.118179 -0.232556 -1.04944)
(-0.131346 -0.252852 -1.04029)
(-0.163645 -0.204688 -1.09947)
(-0.17791 -0.179856 -1.06981)
(-0.155028 -0.183656 -1.01525)
(-0.150842 -0.172819 -1.04023)
(-0.131197 -0.176784 -1.10871)
(-0.17113 -0.178065 -1.07577)
(-0.172447 -0.22907 -1.05657)
(-0.107 -0.20066 -1.05612)
(-0.181758 -0.187377 -1.06891)
(-0.216307 -0.177199 -1.06718)
(-0.146461 -0.212714 -1.01751)
(-0.166711 -0.21036 -1.07158)
(-0.19647 -0.196587 -1.07631)
(-0.509182 0.197929 -0.519825)
(-0.500376 0.231336 -0.441693)
(-0.485023 0.123257 -0.514981)
(-0.446378 0.147874 -0.502071)
(-0.449343 0.101125 -0.562039)
(-0.419174 0.169905 -0.522687)
(-0.450061 0.206769 -0.543541)
(-0.50141 0.203536 -0.553647)
(-0.508308 0.0905498 -0.673625)
(-0.52764 0.156402 -0.654831)
(-0.487493 0.0765286 -0.562154)
(-0.423701 0.196868 -0.602583)
(-0.446609 0.0945685 -0.634627)
(-0.509188 0.114971 -0.682275)
(-0.46789 0.175557 -0.608531)
(-0.0630018 -0.0492423 -0.6296)
(-0.0691618 -0.0426399 -0.607317)
(-0.0785113 -0.022156 -0.671609)
(-0.0662832 -0.0355397 -0.65188)
(-0.0484347 -0.0485966 -0.676745)
(-0.0420137 -0.0560754 -0.694559)
(-0.102578 -0.00952066 -0.594521)
(-0.113623 -0.0052685 -0.548902)
(-0.0953034 -0.0195655 -0.544001)
(-0.0726669 -0.0333216 -0.694985)
(-0.136507 0.0269959 -0.504028)
(-0.139072 0.0284813 -0.452305)
(-0.10377 -0.0229297 -0.544664)
(-0.108557 -0.00889651 -0.5253)
(-0.120245 0.00264426 -0.570277)
(-0.148605 0.0271186 -0.454247)
(-0.135722 0.0262523 -0.491378)
(-0.713093 0.28848 0.158038)
(-0.67752 0.344306 0.270972)
(-0.61338 0.359769 0.269216)
(-0.57054 0.382057 0.32489)
(-0.727657 0.302412 -0.0412952)
(-0.692612 0.348413 -0.104844)
(-0.644654 0.406523 0.0980377)
(-0.672357 0.412611 0.23871)
(-0.543217 0.540158 0.375874)
(-0.721523 0.322544 -0.0576511)
(-0.724822 0.360931 0.0872584)
(-0.569068 0.457064 0.31974)
(-0.583799 0.479236 0.220705)
(-0.580984 0.514022 0.059129)
(-0.640519 0.443828 -0.0879361)
(-0.667372 0.40549 -0.108572)
(-0.0895686 -0.19548 -0.549331)
(-0.114461 -0.217104 -0.607413)
(-0.122957 -0.212357 -0.592826)
(-0.161392 -0.209106 -0.672228)
(-0.108152 -0.220208 -0.622928)
(-0.124966 -0.236125 -0.617135)
(-0.174465 -0.234526 -0.690352)
(-0.125225 -0.243279 -0.769183)
(-0.117239 -0.245345 -0.787452)
(-0.137501 -0.263096 -0.739242)
(-0.1737 -0.226012 -0.798619)
(-0.143474 -0.238088 -0.849163)
(-0.176864 -0.248616 -0.746944)
(-0.0889337 -0.145032 -0.587223)
(-0.0776479 -0.117787 -0.613863)
(-0.0960522 -0.097938 -0.456859)
(-0.109714 -0.106449 -0.462691)
(-0.0870787 -0.0909753 -0.470336)
(-0.0964314 -0.136146 -0.530709)
(-0.090789 -0.105296 -0.427506)
(-0.0918583 -0.132033 -0.605527)
(-0.088925 -0.113442 -0.561393)
(-0.0979395 -0.125615 -0.49002)
(-0.198746 -0.145109 -0.637219)
(-0.201254 -0.147764 -0.619453)
(-0.187345 -0.141547 -0.627487)
(-0.183191 -0.10125 -0.641335)
(-0.176051 -0.103243 -0.643218)
(-0.204132 -0.107308 -0.601614)
(-0.179999 -0.162815 -0.701781)
(-0.217795 -0.130635 -0.551891)
(-0.189694 -0.142746 -0.513261)
(-0.19766 -0.130503 -0.502824)
(-0.196371 -0.0951291 -0.559032)
(-0.20461 -0.136254 -0.485596)
(-0.184779 -0.146514 -0.535134)
(-0.186481 -0.144443 -0.647825)
(-0.100076 -0.242193 -1.12024)
(-0.11189 -0.254663 -1.07697)
(-0.146528 -0.227916 -1.06249)
(-0.108669 -0.242278 -1.11034)
(-0.175533 -0.221443 -0.930697)
(-0.200088 -0.19867 -0.850215)
(-0.0809556 -0.260082 -1.10245)
(-0.144694 -0.220452 -1.03353)
(-0.203162 -0.188165 -0.932295)
(-0.17322 -0.184329 -0.875516)
(-0.190455 -0.172453 -0.822548)
(-0.190162 -0.194901 -0.836044)
(-0.0936508 -0.234006 -1.04725)
(-0.107898 -0.236408 -1.0535)
(-0.0885553 -0.260252 -1.09669)
(-0.144589 -0.192114 -0.882326)
(-0.163733 -0.186547 -0.91048)
(-0.119666 -0.226785 -1.0377)
(-0.16082 -0.201637 -0.869224)
(-0.138687 -0.233537 -0.942064)
(-0.100442 -0.236064 -1.01619)
(-0.141116 -0.201031 -0.937382)
(-0.227991 -0.0653527 -0.834965)
(-0.196477 -0.0415074 -0.696046)
(-0.177856 -0.0852048 -0.769947)
(-0.222742 -0.0874872 -0.893413)
(-0.194128 -0.133839 -0.98773)
(-0.211629 -0.117841 -0.985775)
(-0.223324 -0.112589 -0.905376)
(-0.189304 -0.07162 -0.749897)
(-0.172365 -0.145447 -0.942241)
(-0.158396 -0.116122 -0.836451)
(-0.174827 -0.172626 -0.984425)
(-0.167255 -0.172767 -1.00765)
(-0.182502 -0.0684756 -0.746846)
(-0.179724 -0.151021 -0.892383)
(-0.17202 -0.148511 -0.870031)
(-0.194916 -0.120384 -0.830095)
(-0.170131 -0.104124 -0.785976)
(-0.692012 0.332147 -0.79874)
(-0.664174 0.210852 -0.889183)
(-0.707421 0.465244 -0.398512)
(-0.648673 0.537658 -0.506714)
(-0.591648 0.245508 -0.813685)
(-0.659532 0.296288 -0.645265)
(-0.762107 0.529254 -0.384828)
(-0.735846 0.62123 -0.277462)
(-0.693366 0.55109 -0.281955)
(-0.624717 0.373805 -0.673937)
(-0.846599 0.393151 -0.365789)
(-0.687081 0.543305 -0.431981)
(-0.752422 0.478979 -0.334067)
(-0.643294 0.31652 -0.714436)
(-0.594565 0.374001 -0.60782)
(-0.744193 0.482791 -0.51756)
(-0.213169 -0.0865263 -0.734211)
(-0.229842 -0.0879067 -0.71872)
(-0.189754 -0.115325 -0.784881)
(-0.228343 -0.103546 -0.740989)
(-0.181441 -0.181701 -0.971415)
(-0.18678 -0.153025 -0.92476)
(-0.276829 -0.0563525 -0.68257)
(-0.272465 -0.0600424 -0.669345)
(-0.295428 -0.106814 -0.756876)
(-0.292974 -0.0739604 -0.684989)
(-0.23086 -0.0862355 -0.764656)
(-0.221501 -0.13758 -0.858299)
(-0.141305 -0.186295 -1.08324)
(-0.258816 -0.0958901 -0.82141)
(-0.270378 -0.145905 -0.869907)
(-0.253139 -0.106053 -0.789669)
(-0.179699 -0.149168 -0.960132)
(-0.19071 -0.170602 -0.998748)
(-0.272244 0.163052 -0.871328)
(-0.289114 0.163997 -0.824959)
(-0.352073 0.346321 -0.495251)
(-0.344088 0.328895 -0.424437)
(-0.391917 0.354296 -0.560921)
(-0.321008 0.223311 -0.752526)
(-0.312121 0.250467 -0.604383)
(-0.336296 0.339915 -0.619854)
(-0.225191 0.132243 -0.828987)
(-0.19435 0.0904313 -0.851284)
(-0.229427 0.0962812 -0.884415)
(-0.335995 0.349698 -0.600306)
(-0.3589 0.418898 -0.459916)
(-0.329745 0.334988 -0.488719)
(-0.37768 0.365731 -0.398733)
(-0.384694 0.293994 -0.694066)
(-0.398463 0.429234 -0.48613)
(-0.239324 0.176636 -0.714358)
(-0.252374 0.161373 -0.724072)
(-0.222276 0.145453 -0.781456)
(-0.316586 0.13153 -0.76471)
(-0.339616 0.244248 -0.639809)
(-0.263552 0.18082 -0.668194)
(-0.315285 0.254587 -0.599897)
(-0.644737 0.621014 0.297141)
(-0.718575 0.607542 0.157743)
(-0.748906 0.515393 -0.106259)
(-0.774153 0.507491 -0.083364)
(-0.696248 0.527084 0.268699)
(-0.655242 0.624266 0.307055)
(-0.584716 0.611958 0.428171)
(-0.775874 0.450144 -0.0127471)
(-0.775526 0.416583 -0.0706765)
(-0.777313 0.478735 0.033141)
(-0.779026 0.45672 0.170382)
(-0.694471 0.413594 0.280027)
(-0.657468 0.431752 0.342811)
(-0.654422 0.454571 0.290503)
(-0.763025 0.492073 0.279975)
(-0.6695 0.472338 0.375341)
(-0.731304 0.419541 0.349912)
(-0.672523 0.478126 0.384987)
(-0.724178 0.405703 0.253144)
(-0.194736 0.0709022 -0.487806)
(-0.181641 0.0787469 -0.421889)
(-0.22754 0.0619268 -0.526311)
(-0.244698 0.0809248 -0.462028)
(-0.223355 0.104798 -0.389743)
(-0.174317 0.0473196 -0.484519)
(-0.172755 0.0249245 -0.542852)
(-0.208451 -0.074704 -0.818889)
(-0.212714 -0.0472926 -0.696958)
(-0.237525 -0.0282553 -0.765361)
(-0.255887 0.0787243 -0.529802)
(-0.266381 -0.00403532 -0.702869)
(-0.187126 0.0167098 -0.568155)
(-0.089805 -0.284787 -0.667023)
(-0.106375 -0.247375 -0.619261)
(-0.0989396 -0.231125 -0.558385)
(-0.0949686 -0.230995 -0.564002)
(-0.0754864 -0.302 -0.762842)
(-0.0977221 -0.308141 -0.744484)
(-0.0754234 -0.257601 -0.582998)
(-0.07008 -0.216371 -0.504328)
(-0.0850715 -0.277048 -0.635862)
(-0.0815421 -0.251617 -0.578521)
(-0.0880293 -0.231948 -0.547927)
(-0.109624 -0.244007 -0.62117)
(-0.107591 -0.223667 -0.568065)
(-0.103067 -0.21475 -0.52099)
(-0.107243 -0.252015 -0.712908)
(-0.107674 -0.246126 -0.720108)
(-0.113245 -0.286813 -0.708273)
(-0.0848458 -0.300303 -0.736429)
(-0.102121 -0.242637 -0.556152)
(-0.112085 -0.228523 -0.59658)
(-0.118563 -0.242749 -0.696228)
(-0.103968 -0.269934 -0.744648)
(-0.752873 0.181134 -0.442427)
(-0.688581 0.0878041 -0.596953)
(-0.78141 0.135715 -0.242814)
(-0.728041 0.108311 -0.430892)
(-0.593373 0.0651677 -0.643576)
(-0.625402 0.0933307 -0.657416)
(-0.803424 0.115425 -0.337778)
(-0.727867 0.0352431 -0.364097)
(-0.59742 0.222228 -0.543345)
(-0.706085 0.269878 -0.382288)
(-0.782428 0.268353 -0.296711)
(-0.792873 0.206398 -0.240306)
(-0.626784 0.12158 -0.540743)
(-0.615634 0.246529 -0.541543)
(-0.784661 0.228103 -0.307709)
(-0.0629073 -0.0679072 -0.839319)
(-0.0239713 -0.101879 -0.871351)
(-0.0598709 -0.0525169 -0.738169)
(-0.0419652 -0.0734243 -0.778286)
(-0.0539503 -0.0629382 -0.789317)
(-0.0999864 0.0130293 -0.625565)
(-0.0968646 0.0399338 -0.743258)
(-0.0807262 0.0200716 -0.790984)
(-0.102512 -0.0126264 -0.706088)
(-0.122962 0.0290767 -0.621232)
(-0.0955133 -0.0177006 -0.78956)
(-0.121963 0.0673549 -0.680804)
(-0.0961005 0.0141634 -0.631928)
(-0.0819453 -0.0216622 -0.716841)
(-0.0873277 -0.00137488 -0.743188)
(-0.115842 0.074429 -0.656386)
(-0.128386 0.0719974 -0.605365)
(-0.144115 0.071824 -0.826217)
(-0.175553 0.0837512 -0.812568)
(-0.141152 0.0772451 -0.650059)
(-0.170174 0.114409 -0.652906)
(-0.188617 0.138882 -0.578833)
(-0.208598 0.153937 -0.591836)
(-0.136706 -0.023102 -0.938656)
(-0.178723 0.155979 -0.718588)
(-0.133921 0.04771 -0.72514)
(-0.191607 0.0799983 -0.741106)
(-0.219068 0.132767 -0.687883)
(-0.217635 0.167784 -0.652728)
(-0.140768 0.0337486 -0.808363)
(-0.110625 -0.00951129 -0.848696)
(-0.16835 0.0745398 -0.667907)
(-0.182007 0.121137 -0.581838)
(-0.0995983 -0.0045916 -0.819446)
(-0.120102 -0.0144555 -0.782865)
(-0.148199 0.0498947 -0.690377)
(-0.126256 0.0302115 -0.737247)
(-0.187494 -0.1585 -1.14495)
(-0.170649 -0.164319 -1.13256)
(-0.21899 -0.183554 -1.09457)
(-0.223956 -0.151776 -1.10296)
(-0.214837 -0.183918 -1.05634)
(-0.168714 -0.139589 -0.983093)
(-0.21767 -0.165481 -1.03807)
(-0.177222 -0.140324 -1.09701)
(-0.176838 -0.150629 -1.06402)
(-0.202036 -0.194499 -0.988757)
(-0.210645 -0.159543 -1.00347)
(-0.180465 -0.197624 -1.02575)
(-0.210819 -0.194647 -1.05959)
(-0.248796 -0.159447 -1.0903)
(-0.157359 -0.180935 -1.04802)
(-0.206905 -0.201958 -1.03796)
(-0.562157 0.213853 -0.816926)
(-0.630821 0.281193 -0.777477)
(-0.632094 0.261552 -0.604822)
(-0.561073 0.289648 -0.686596)
(-0.547144 0.197333 -0.814767)
(-0.555849 0.176874 -0.781077)
(-0.595653 0.214283 -0.822898)
(-0.492712 0.209037 -0.956513)
(-0.685932 0.247415 -0.633988)
(-0.62392 0.219541 -0.632437)
(-0.623699 0.144561 -0.866697)
(-0.540216 0.125441 -0.919517)
(-0.571058 0.0810726 -0.883419)
(-0.657787 0.153171 -0.771197)
(-0.526917 0.0782272 -0.916138)
(-0.552639 0.0975076 -0.876273)
(-0.495156 0.12374 -0.937002)
(-0.448018 0.106007 -0.977603)
(-0.622773 0.11427 -0.841318)
(-0.545531 0.133093 -0.83374)
(0.0825014 -0.0517139 -0.823031)
(0.0754702 -0.0683346 -0.876908)
(0.0821264 -0.0853808 -0.898751)
(0.0933359 -0.0821843 -0.837944)
(0.104466 -0.142945 -0.926881)
(0.0984163 -0.12236 -0.927806)
(0.0589828 -0.0555217 -0.761688)
(0.0889474 -0.0707028 -0.78865)
(-0.479903 -0.163821 -0.431253)
(-0.445284 -0.168302 -0.408991)
(-0.403519 -0.201468 -0.514642)
(-0.46419 -0.149972 -0.667562)
(-0.480929 -0.192776 -0.46681)
(-0.409898 -0.176501 -0.408336)
(-0.365072 -0.158284 -0.801434)
(-0.366429 -0.170012 -0.790374)
(-0.39709 -0.177422 -0.433172)
(-0.467481 -0.168088 -0.487074)
(-0.439748 -0.181641 -0.641286)
(-0.393597 -0.173875 -0.509938)
(-0.397918 -0.163145 -0.500649)
(-0.419571 -0.15473 -0.574357)
(-0.432311 0.26581 -0.0860033)
(-0.48043 0.268276 -0.0679964)
(-0.419976 0.185117 -0.061497)
(-0.471747 0.287974 -0.092448)
(-0.475391 0.24813 -0.261883)
(-0.482366 0.272119 -0.273086)
(-0.46452 0.177032 -0.0815939)
(-0.432972 0.196059 -0.245061)
(-0.429595 0.127333 -0.286417)
(-0.467555 0.0994259 -0.469733)
(-0.437434 0.107999 -0.494017)
(-0.504666 0.1494 -0.246622)
(-0.438371 0.169695 -0.220249)
(-0.438714 0.131414 -0.337715)
(-0.455636 0.217826 -0.357969)
(-0.467642 0.124576 -0.52952)
(-0.463317 0.134981 -0.49619)
(-0.520688 0.146846 -0.394347)
(-0.148393 -0.129163 -0.537303)
(-0.114605 -0.102024 -0.401073)
(-0.110855 -0.0906242 -0.31978)
(-0.0893979 -0.0727063 -0.213251)
(-0.139855 -0.126725 -0.54314)
(-0.109109 -0.0648676 -0.407743)
(-0.0831153 -0.0589041 -0.328954)
(-0.193545 -0.132868 -0.640479)
(-0.180125 -0.173621 -0.65516)
(-0.106305 -0.0854204 -0.315696)
(-0.156907 -0.10855 -0.58119)
(-0.117461 -0.0815339 -0.45949)
(-0.105217 -0.0468725 -0.388727)
(-0.0842064 -0.0451502 -0.246916)
(-0.17074 -0.114714 -0.566746)
(-0.094417 -0.0389947 -0.301411)
(-0.0738213 -0.0325562 -0.242077)
(-0.158561 -0.153489 -1.15933)
(-0.181823 -0.12115 -1.14622)
(-0.223152 -0.180101 -1.22305)
(-0.249076 -0.139732 -1.16217)
(-0.240279 -0.146088 -1.1695)
(-0.238241 -0.141454 -1.10396)
(-0.19414 -0.162281 -1.13912)
(-0.176964 -0.172727 -1.1861)
(-0.215016 -0.178278 -1.09216)
(-0.212886 -0.133076 -1.05448)
(-0.190148 -0.162141 -1.08292)
(-0.255509 -0.133433 -1.03535)
(-0.235202 -0.15086 -1.0035)
(-0.172016 -0.172278 -1.12126)
(-0.110606 -0.172335 -1.25337)
(-0.0900554 -0.182337 -1.20639)
(-0.0590166 -0.219084 -1.2255)
(-0.104733 -0.126396 -1.08936)
(-0.106327 -0.233658 -1.16473)
(-0.109584 -0.200398 -1.2155)
(-0.105002 -0.199302 -1.19567)
(-0.110061 -0.132718 -1.13691)
(-0.133952 -0.130004 -1.14016)
(-0.0364425 -0.209613 -1.17148)
(-0.0355927 -0.176058 -1.11032)
(-0.0894868 -0.151556 -1.12053)
(-0.0879333 -0.200753 -1.08615)
(-0.0724107 -0.160678 -1.06995)
(-0.0778125 -0.20228 -1.12557)
(-0.0140173 -0.21774 -1.14635)
(-0.0878187 -0.170208 -1.1374)
(-0.097659 -0.198833 -1.17963)
(0.0731243 -0.341178 -1.02719)
(0.0703232 -0.331169 -1.00587)
(0.0596777 -0.33816 -0.989603)
(0.0474974 -0.334309 -0.983559)
(0.0581944 -0.32596 -0.990375)
(0.0511862 -0.317446 -0.932696)
(0.0413889 -0.333315 -0.94153)
(0.0410766 -0.35278 -0.962158)
(0.0516074 -0.336807 -0.902876)
(0.056766 -0.364065 -0.956889)
(0.048686 -0.350652 -0.962807)
(0.0699283 -0.324244 -0.958778)
(0.0500803 -0.341069 -1.01623)
(0.0477536 -0.333992 -0.983568)
(0.0612319 -0.340355 -0.920038)
(-0.180233 -0.128793 -1.13788)
(-0.156873 -0.0781017 -1.10125)
(-0.188748 -0.0588274 -1.09874)
(-0.199147 -0.082658 -1.10506)
(-0.165322 -0.116327 -1.08144)
(-0.207934 -0.141759 -1.14245)
(-0.206084 -0.0610179 -1.14921)
(-0.195088 -0.0754757 -1.12811)
(-0.251613 -0.0858862 -1.2292)
(-0.15277 -0.142439 -1.19477)
(-0.246047 -0.138167 -1.19022)
(-0.25087 -0.132852 -1.19648)
(-0.182723 -0.107003 -1.21201)
(0.0223571 -0.164644 -0.995595)
(0.0587985 -0.16245 -0.991108)
(0.0733817 -0.130166 -0.940188)
(0.0488197 -0.193245 -1.04098)
(0.0627931 -0.143738 -0.940853)
(0.0562744 -0.153742 -0.965523)
(0.0661988 -0.129935 -0.911764)
(0.0814909 -0.0515174 -0.837888)
(0.0642391 -0.0549445 -0.846802)
(-0.605455 0.403832 -0.108578)
(-0.589096 0.417926 -0.127106)
(-0.637802 0.370508 -0.499208)
(-0.688498 0.366237 -0.389623)
(-0.644911 0.327444 -0.431844)
(-0.614737 0.328626 -0.21413)
(-0.652109 0.303422 -0.191204)
(-0.644214 0.356014 -0.140995)
(-0.63647 0.366329 -0.0217883)
(-0.657167 0.276657 -0.457908)
(-0.614582 0.232764 -0.556666)
(-0.644848 0.275808 -0.541466)
(-0.60959 0.223028 -0.475852)
(-0.710632 0.387783 -0.0144301)
(-0.687171 0.222163 -0.652108)
(-0.719432 0.339888 -0.483131)
(-0.736082 0.328504 -0.443528)
(-0.516699 -0.0379201 -0.390413)
(-0.471358 -0.106191 -0.281422)
(-0.497279 -0.124073 -0.391142)
(-0.550829 -0.0617441 -0.273958)
(-0.458218 -0.13019 -0.128116)
(-0.49515 -0.154493 -0.425669)
(-0.509743 -0.147226 -0.547688)
(-0.486455 -0.11623 -0.100286)
(-0.514656 -0.0875051 -0.130737)
(-0.532786 -0.0784574 -0.563907)
(-0.532657 -0.0688046 -0.305496)
(-0.518799 -0.0721045 -0.424667)
(0.0456468 -0.269699 -1.1047)
(0.0402895 -0.30342 -1.06648)
(0.057165 -0.263645 -1.0515)
(0.0683818 -0.264957 -1.03868)
(0.0358785 -0.248563 -1.00046)
(0.0399022 -0.231147 -0.904052)
(0.032779 -0.257118 -0.931758)
(0.0298856 -0.296435 -1.08119)
(0.0459368 -0.312103 -1.01614)
(0.065955 -0.268292 -0.951406)
(0.0262631 -0.313 -1.04937)
(0.0458809 -0.289338 -0.989635)
(0.0616138 -0.288961 -0.996759)
(-0.500575 0.0187538 -0.752396)
(-0.547244 0.0571245 -0.843796)
(-0.617241 0.104118 -0.597185)
(-0.634957 -0.00706982 -0.588151)
(-0.583087 0.216789 -0.619686)
(-0.662526 0.235442 -0.604078)
(-0.564997 0.0849532 -0.767882)
(-0.558832 0.0754059 -0.828403)
(-0.461472 0.0269569 -0.877777)
(-0.527103 0.160318 -0.895503)
(-0.648769 0.12754 -0.709776)
(-0.568645 0.00819518 -0.704805)
(-0.512441 0.15121 -0.771166)
(-0.556581 0.0631951 -0.738093)
(-0.517525 0.108575 -0.7522)
(-0.0774471 -0.00493613 -0.721292)
(-0.0664192 -0.0334261 -0.744039)
(-0.0430841 -0.0602163 -0.89991)
(-0.0716037 -0.030645 -0.843762)
(-0.0522523 -0.0557126 -0.780241)
(-0.039056 -0.0639382 -0.835197)
(-0.0405409 -0.053509 -0.843364)
(-0.0706422 -0.0245689 -0.700917)
(-0.0739869 -0.0223975 -0.716362)
(-0.0913934 -0.0376519 -0.906383)
(-0.122082 0.0132327 -0.692775)
(-0.498534 0.0527619 -0.653381)
(-0.446663 0.0794049 -0.711446)
(-0.124051 -0.152106 -0.633311)
(-0.109475 -0.138633 -0.619772)
(-0.144797 -0.163913 -0.744914)
(-0.135157 -0.160474 -0.779122)
(-0.118303 -0.127255 -0.670369)
(-0.142459 -0.174553 -0.689839)
(-0.108489 -0.163725 -0.664876)
(-0.140708 -0.189257 -0.808484)
(-0.118637 -0.148904 -0.753072)
(-0.126752 -0.172697 -0.843331)
(-0.586959 0.251673 -0.421107)
(-0.623571 0.246836 -0.312776)
(-0.578316 0.319586 -0.435713)
(-0.61662 0.330033 -0.356735)
(-0.546474 0.33367 -0.438831)
(-0.0313847 -0.186822 -0.877444)
(0.0364663 -0.273611 -0.958207)
(0.0297841 -0.293363 -0.967608)
(0.00111686 -0.227378 -0.903876)
(-0.0243024 -0.287179 -0.925066)
(-0.0224959 -0.284402 -0.906229)
(-0.0415197 -0.257016 -0.908053)
(0.0496099 -0.186719 -0.890702)
(0.0179022 -0.234979 -0.921261)
(0.0331795 -0.251869 -0.955244)
(-0.00598063 -0.244796 -0.927175)
(0.038037 -0.216205 -0.911404)
(0.0139333 -0.291741 -0.96094)
(-0.0116638 -0.30536 -0.942833)
(-0.0887094 -0.0974075 -0.602515)
(-0.0887616 -0.0963666 -0.636954)
(-0.108222 -0.144495 -0.639552)
(-0.0979375 -0.132302 -0.592007)
(-0.0969227 -0.119393 -0.541723)
(-0.102152 -0.155865 -0.630315)
(-0.0816579 -0.0938672 -0.560528)
(-0.0925636 -0.112271 -0.537416)
(-0.0625481 -0.117765 -0.675172)
(-0.0924033 -0.136062 -0.619153)
(-0.0467061 -0.0973444 -0.625342)
(-0.0621224 -0.101555 -0.589425)
(-0.179108 -0.23714 -0.893537)
(-0.176332 -0.224129 -0.87482)
(-0.169041 -0.229833 -0.884864)
(-0.166538 -0.211123 -0.815773)
(-0.132547 -0.236721 -0.810903)
(-0.144805 -0.243378 -0.944691)
(-0.13821 -0.233346 -0.894725)
(-0.134259 -0.185612 -0.659715)
(-0.129426 -0.185617 -0.703822)
(-0.12881 -0.212123 -0.75203)
(-0.137541 -0.213715 -0.760487)
(-0.135242 -0.194772 -0.59321)
(-0.153288 -0.223994 -0.849374)
(-0.150784 -0.176105 -0.632469)
(-0.139137 -0.178181 -0.70952)
(-0.150611 -0.215303 -0.697495)
(-0.180218 -0.201892 -0.696637)
(-0.132302 -0.136738 -1.15668)
(-0.14113 -0.139749 -0.998004)
(-0.158957 -0.092697 -0.895161)
(-0.158475 -0.0809756 -1.07096)
(-0.168448 -0.125015 -0.959449)
(-0.157596 -0.139474 -1.0056)
(-0.251976 -0.0518675 -0.78695)
(-0.191973 -0.0412568 -0.860789)
(-0.246801 -0.104103 -0.967615)
(-0.241541 -0.086805 -0.94997)
(-0.192721 -0.106381 -0.919332)
(-0.227853 -0.0321789 -0.770833)
(-0.270266 -0.0673823 -0.875628)
(-0.264832 -0.0948405 -0.940696)
(-0.233088 -0.128332 -0.921191)
(-0.267338 -0.166085 -0.646916)
(-0.238495 -0.168555 -0.539674)
(-0.301322 -0.183718 -0.714698)
(-0.23438 -0.171338 -0.599532)
(-0.26491 -0.185681 -0.648647)
(-0.281492 -0.180152 -0.656763)
(-0.28242 -0.170793 -0.566831)
(-0.253364 -0.13352 -0.460083)
(-0.220865 -0.154805 -0.496121)
(-0.302525 -0.184067 -0.687113)
(-0.310722 -0.158577 -0.694826)
(-0.260601 -0.16889 -0.572782)
(-0.241658 -0.146392 -0.431446)
(-0.296678 -0.165592 -0.538981)
(-0.278827 -0.155876 -0.435848)
(-0.522119 -0.181117 -0.371549)
(-0.522622 -0.106961 -0.457174)
(-0.489518 -0.12824 -0.404542)
(-0.49777 -0.149377 -0.376611)
(-0.417864 -0.179367 -0.219377)
(-0.450802 -0.127756 -0.297448)
(-0.542351 -0.155258 -0.289626)
(-0.596888 -0.105863 -0.296058)
(-0.519174 -0.13688 -0.426827)
(-0.524526 -0.194975 -0.17696)
(-0.516615 -0.174541 -0.126827)
(-0.500406 -0.135251 -0.488709)
(-0.480087 -0.168655 -0.302257)
(-0.418243 -0.154815 -0.231049)
(-0.407678 -0.166273 -0.210528)
(-0.555911 -0.124979 -0.171688)
(-0.553713 -0.0844398 -0.36561)
(-0.471762 -0.196873 -0.191229)
(-0.481002 -0.168124 -0.0648672)
(-0.487708 -0.136793 -0.391467)
(-0.518262 -0.127458 -0.211256)
(-0.453638 -0.183472 -0.109236)
(-0.491408 -0.117078 -0.29414)
(-0.485525 -0.162015 -0.211198)
(-0.0520862 -0.174362 -0.696385)
(-0.0386658 -0.179464 -0.708646)
(-0.0570138 -0.237526 -0.864028)
(-0.0779633 -0.248966 -0.867551)
(-0.0512748 -0.174353 -0.695414)
(-0.0725371 -0.238005 -0.869527)
(-0.0475768 -0.163323 -0.621151)
(-0.0331531 -0.106566 -0.502961)
(-0.0543185 -0.140004 -0.631678)
(-0.0464187 -0.0988462 -0.532688)
(-0.081921 -0.242895 -0.82888)
(-0.0939698 -0.220791 -0.799748)
(-0.0673376 -0.226528 -0.822647)
(-0.0555839 -0.135734 -0.586265)
(-0.0582963 -0.179852 -0.65938)