/*--------------------------------*- C++ -*----------------------------------*\
| =========                 |                                                 |
| \\      /  F ield         | OpenFOAM: The Open Source CFD Toolbox           |
|  \\    /   O peration     | Version:  v1612+                                |
|   \\  /    A nd           | Web:      www.OpenFOAM.com                      |
|    \\/     M anipulation  |                                                 |
\*---------------------------------------------------------------------------*/
FoamFile
{
    version     2.0;
    format      ascii;
    class       volVectorField;
    location    "50";
    object      U;
}
// * * * * * * * * * * * * * * * * * * * * * * * * * * * * * * * * * * * * * //

dimensions      [0 1 -1 0 0 0 0];

internalField   nonuniform List<vector> 
21523
(
(-0.256849 0.436172 -0.448038)
(-0.476569 0.413568 -0.524237)
(-0.311496 0.477122 -0.484134)
(-0.226042 0.68117 -0.317552)
(-0.270378 0.520252 -0.288571)
(-0.276007 0.628295 -0.339859)
(-0.304791 0.61397 -0.345003)
(-0.203634 0.643593 -0.411189)
(-0.185986 0.569267 -0.43549)
(-0.137905 0.588248 -0.403361)
(-0.0989426 0.692983 -0.389341)
(-0.154763 0.660797 -0.423246)
(-0.201509 0.574049 -0.43313)
(-0.120269 0.618625 -0.375886)
(-0.230815 0.599255 -0.489729)
(-0.28619 0.631817 -0.499804)
(-0.429511 0.554508 -0.491411)
(-0.188608 0.560677 -0.408774)
(-0.181701 0.51242 -0.390553)
(-0.0727076 0.559818 -0.346405)
(-0.326114 0.570524 -0.340468)
(-0.268039 0.613086 -0.357975)
(-0.27597 0.609357 -0.354065)
(-0.290384 0.606644 -0.456781)
(-0.183258 0.56169 -0.266218)
(-0.0744832 0.586555 -0.338871)
(-0.138202 0.487177 -0.348812)
(-0.0566752 0.509387 -0.320611)
(-0.102581 0.680905 -0.380822)
(-0.378551 0.477158 -0.537739)
(-0.226345 0.513598 -0.45952)
(-0.0930214 0.694608 -0.375286)
(-0.208942 0.620335 -0.313937)
(-0.18745 0.672728 -0.328658)
(-0.340569 0.548433 -0.438289)
(-0.143917 0.68896 -0.419417)
(-0.408408 0.445829 -0.548391)
(-0.490316 0.458558 -0.471306)
(-0.398006 0.575645 -0.458068)
(-0.231704 0.597015 -0.427179)
(-0.252196 0.557813 -0.39235)
(-0.287797 0.456188 -0.424143)
(-0.087258 0.562576 -0.280086)
(-0.405403 0.332772 -0.523249)
(-0.469246 0.383637 -0.421174)
(-0.236333 0.676415 -0.369129)
(-0.243353 0.40742 -0.442263)
(-0.407004 0.532088 -0.437115)
(-0.380776 0.507601 -0.401253)
(-0.389974 0.42065 -0.364689)
(-0.221286 0.608406 -0.32851)
(-0.446332 0.478045 -0.46657)
(-0.38208 0.457157 -0.366951)
(-0.398282 0.588492 -0.436963)
(-0.329796 0.517876 -0.346849)
(-0.364773 0.574803 -0.401081)
(-0.299401 0.487465 -0.382494)
(-0.32975 0.574827 -0.391783)
(-0.118153 0.685699 -0.36605)
(-0.420432 0.434893 -0.561747)
(-0.462417 0.406728 -0.42639)
(-0.305265 0.511791 -0.49048)
(-0.348396 0.394537 -0.524493)
(-0.333142 0.476567 -0.34226)
(-0.320444 0.625503 -0.381512)
(-0.428625 0.506986 -0.473065)
(-0.47177 0.455572 -0.467808)
(-0.362306 0.530595 -0.377413)
(-0.421611 0.49669 -0.453172)
(-0.479378 0.382504 -0.441763)
(-0.151195 0.559415 -0.261717)
(-0.17703 0.622969 -0.289617)
(-0.339344 0.548893 -0.471506)
(-0.392286 0.525413 -0.479972)
(-0.138336 0.683129 -0.392414)
(-0.137535 0.625133 -0.386798)
(-0.343926 0.472041 -0.500536)
(-0.265534 0.632292 -0.372578)
(-0.188074 0.683302 -0.379309)
(-0.197254 0.557064 -0.393523)
(-0.397228 0.551597 -0.446488)
(-0.196093 0.628711 -0.39048)
(-0.354526 0.516085 -0.438911)
(-0.249964 0.608308 -0.355427)
(-0.14835 0.363441 -0.379457)
(-0.102334 0.501643 -0.240462)
(-0.156012 0.641573 -0.365769)
(-0.153173 0.570028 -0.390686)
(-0.23063 0.597665 -0.425879)
(-0.43541 0.38887 -0.553326)
(-0.411761 0.393242 -0.538219)
(-0.393307 0.350401 -0.514075)
(-0.243525 0.583943 -0.294477)
(-0.269327 0.652283 -0.488344)
(-0.50592 0.366322 -0.53643)
(-0.479448 0.394475 -0.552775)
(-0.0585303 0.628385 -0.343681)
(-0.406926 0.457187 -0.477384)
(-0.460784 0.463306 -0.455654)
(-0.101218 0.569224 -0.347144)
(-0.179371 0.449833 -0.370636)
(-0.0924376 0.537482 -0.308439)
(-0.122552 0.574932 -0.353314)
(-0.186678 0.36022 -0.287724)
(-0.227903 0.465304 -0.34559)
(-0.224007 0.408202 -0.413723)
(-0.104994 0.557274 -0.358853)
(-0.0969262 0.584931 -0.325748)
(-0.352404 0.527927 -0.470834)
(-0.152713 0.597561 -0.387503)
(-0.138341 0.5395 -0.357115)
(-0.352598 0.559158 -0.339553)
(-0.149785 0.593647 -0.402914)
(-0.148381 0.46075 -0.367123)
(-0.183244 0.564436 -0.378593)
(-0.361827 0.477856 -0.373781)
(-0.272001 0.445291 -0.301819)
(-0.358459 0.473836 -0.322501)
(-0.0759827 0.573809 -0.296868)
(-0.089248 0.601194 -0.294933)
(-0.0595619 0.603393 -0.287324)
(-0.0808279 0.679965 -0.309962)
(-0.38263 0.552903 -0.438891)
(-0.162847 0.273149 -0.261775)
(-0.264719 0.632543 -0.369971)
(-0.284068 0.609311 -0.34457)
(-0.20347 0.657195 -0.391412)
(-0.462864 0.379386 -0.425832)
(-0.188112 0.576115 -0.400447)
(-0.196235 0.619925 -0.370173)
(-0.123834 0.628331 -0.290023)
(-0.144021 0.601444 -0.274431)
(-0.123158 0.646134 -0.284468)
(-0.153458 0.674426 -0.311043)
(-0.181447 0.687288 -0.302995)
(-0.204283 0.649465 -0.31611)
(-0.408103 0.588259 -0.50255)
(-0.315433 0.465141 -0.435921)
(-0.282316 0.351451 -0.495414)
(-0.228503 0.458486 -0.402195)
(-0.310103 0.526043 -0.412946)
(-0.269805 0.482666 -0.460963)
(-0.298506 0.584678 -0.513393)
(-0.283229 0.406619 -0.466136)
(-0.0771989 0.598974 -0.357404)
(-0.116905 0.516942 -0.354475)
(-0.202627 0.519524 -0.252668)
(-0.241342 0.587802 -0.298321)
(-0.237435 0.668227 -0.331261)
(-0.290929 0.536032 -0.450251)
(-0.30601 0.536857 -0.466507)
(-0.165971 0.517077 -0.41607)
(-0.400853 0.551202 -0.427757)
(-0.207142 0.67912 -0.342518)
(-0.222735 0.635829 -0.318241)
(-0.260677 0.600406 -0.345324)
(-0.469477 0.305272 -0.505531)
(-0.108994 0.576752 -0.301759)
(-0.119878 0.560526 -0.300071)
(-0.133299 0.647653 -0.286442)
(-0.353285 0.541802 -0.405734)
(-0.291257 0.621799 -0.399187)
(-0.290828 0.524276 -0.340353)
(-0.431618 0.476246 -0.446226)
(-0.188066 0.510631 -0.328001)
(-0.202982 0.584348 -0.383133)
(-0.288986 0.561482 -0.332188)
(-0.284008 0.539096 -0.341756)
(-0.275764 0.644347 -0.389941)
(-0.390726 0.483595 -0.407592)
(-0.180667 0.460402 -0.316034)
(-0.186945 0.443943 -0.312148)
(-0.253741 0.464102 -0.29138)
(-0.393042 0.585902 -0.43515)
(-0.389214 0.531046 -0.41865)
(-0.211181 0.516154 -0.420654)
(-0.241787 0.474336 -0.442918)
(-0.180495 0.427061 -0.234331)
(-0.203604 0.47875 -0.273829)
(-0.229428 0.47042 -0.431343)
(-0.243717 0.492339 -0.445625)
(-0.244159 0.483988 -0.431217)
(-0.292918 0.531481 -0.433455)
(-0.211822 0.468541 -0.239382)
(-0.432181 0.416592 -0.452553)
(-0.470277 0.455007 -0.469332)
(-0.300463 0.583402 -0.403839)
(-0.277116 0.540023 -0.392512)
(-0.25852 0.535044 -0.367425)
(-0.143504 0.677487 -0.421398)
(-0.150626 0.595378 -0.404213)
(-0.168633 0.488082 -0.406443)
(-0.186737 0.406868 -0.379472)
(-0.437702 0.386859 -0.485241)
(-0.444457 0.413463 -0.502505)
(-0.475051 0.402457 -0.428867)
(-0.478637 0.46683 -0.521671)
(-0.198423 0.557273 -0.420349)
(-0.464147 0.357113 -0.51814)
(-0.488194 0.421275 -0.53544)
(-0.45619 0.388038 -0.513632)
(-0.356103 0.38228 -0.304849)
(-0.262404 0.361721 -0.282702)
(-0.284559 0.376084 -0.279621)
(-0.353488 0.400996 -0.297679)
(-0.0817759 0.656581 -0.336694)
(-0.425353 0.444634 -0.38401)
(-0.170305 0.679132 -0.299465)
(-0.186326 0.578751 -0.279821)
(-0.216611 0.754273 -0.389902)
(-0.248706 0.600219 -0.342362)
(-0.261878 0.553813 -0.346349)
(-0.285242 0.564315 -0.389054)
(-0.317364 0.578801 -0.402724)
(-0.280278 0.572894 -0.377305)
(-0.253386 0.527529 -0.398872)
(-0.37542 0.603962 -0.434932)
(-0.34191 0.591873 -0.408323)
(-0.328568 0.516894 -0.35616)
(-0.31521 0.535092 -0.362487)
(-0.196841 0.5623 -0.376218)
(-0.33393 0.586015 -0.435504)
(-0.372792 0.470777 -0.425211)
(-0.325985 0.564372 -0.477408)
(-0.343457 0.508421 -0.433216)
(-0.363551 0.483006 -0.451122)
(-0.380523 0.502523 -0.450319)
(-0.337598 0.515925 -0.445306)
(-0.38205 0.501058 -0.456617)
(-0.369048 0.48511 -0.458535)
(-0.234271 0.304437 -0.433686)
(-0.254485 0.407532 -0.469946)
(-0.228877 0.354385 -0.406307)
(-0.270424 0.384301 -0.467264)
(-0.127634 0.495269 -0.298844)
(-0.308959 0.496399 -0.498517)
(-0.32866 0.55048 -0.528968)
(-0.353969 0.523513 -0.523663)
(-0.372156 0.423506 -0.512177)
(-0.340118 0.388163 -0.489038)
(-0.400745 0.418311 -0.558621)
(-0.440622 0.431372 -0.582815)
(-0.155103 0.546606 -0.390327)
(-0.235459 0.536792 -0.369842)
(-0.234111 0.571454 -0.374959)
(-0.314399 0.509624 -0.509687)
(-0.374015 0.447739 -0.470475)
(-0.336537 0.404283 -0.475081)
(-0.34808 0.428421 -0.489739)
(-0.367296 0.560389 -0.549258)
(-0.377235 0.488209 -0.5194)
(-0.375454 0.486268 -0.407643)
(-0.308374 0.440813 -0.474433)
(-0.311247 0.395685 -0.471173)
(-0.344336 0.34691 -0.461766)
(-0.339956 0.425554 -0.501736)
(-0.317592 0.333948 -0.472166)
(-0.374866 0.473831 -0.498374)
(-0.368229 0.499675 -0.513381)
(-0.380437 0.416257 -0.491678)
(-0.344079 0.35154 -0.480404)
(-0.357149 0.441425 -0.514967)
(-0.3461 0.449318 -0.497136)
(-0.363019 0.483548 -0.513045)
(-0.400019 0.527308 -0.556917)
(-0.327448 0.427037 -0.492754)
(-0.34833 0.469545 -0.50147)
(-0.327818 0.394141 -0.488442)
(-0.174145 0.530251 -0.385784)
(-0.266619 0.491579 -0.372092)
(-0.325319 0.536009 -0.427263)
(-0.182451 0.595205 -0.406762)
(-0.230843 0.493722 -0.432175)
(-0.194155 0.539374 -0.427516)
(-0.202499 0.588364 -0.434418)
(-0.207627 0.607278 -0.419918)
(-0.20161 0.545089 -0.391753)
(-0.213506 0.571611 -0.412861)
(-0.220477 0.545983 -0.426156)
(-0.198959 0.516742 -0.389071)
(-0.114768 0.630464 -0.25873)
(-0.356809 0.519179 -0.377397)
(-0.231503 0.535289 -0.382513)
(-0.476662 0.434846 -0.52702)
(-0.369659 0.464453 -0.474266)
(-0.431001 0.393243 -0.538123)
(-0.445006 0.430426 -0.552956)
(-0.483212 0.372254 -0.462534)
(-0.503191 0.414894 -0.496226)
(-0.15171 0.518954 -0.367638)
(-0.163696 0.592092 -0.383382)
(-0.134631 0.531244 -0.341156)
(-0.13454 0.539434 -0.368988)
(-0.431626 0.442366 -0.557432)
(-0.383035 0.445745 -0.52586)
(-0.352478 0.590352 -0.38345)
(-0.296723 0.567703 -0.306633)
(-0.153416 0.553518 -0.364152)
(-0.110654 0.615118 -0.382606)
(-0.149423 0.633 -0.400702)
(-0.165514 0.608028 -0.399304)
(-0.359066 0.493915 -0.445223)
(-0.35314 0.309222 -0.515222)
(-0.268202 0.546223 -0.399695)
(-0.238562 0.595516 -0.40019)
(-0.275114 0.505905 -0.396232)
(-0.350344 0.551473 -0.379309)
(-0.38718 0.530781 -0.45522)
(-0.388794 0.538108 -0.450238)
(-0.48993 0.414801 -0.514278)
(-0.108095 0.657183 -0.371813)
(-0.482675 0.457552 -0.498385)
(-0.485176 0.409848 -0.461055)
(-0.190841 0.507064 -0.292478)
(-0.199523 0.633339 -0.331768)
(-0.389446 0.435835 -0.42617)
(-0.257815 0.677124 -0.37332)
(-0.220565 0.375491 -0.423161)
(-0.264152 0.492378 -0.440386)
(-0.271946 0.636703 -0.333346)
(-0.375533 0.411398 -0.528067)
(-0.185748 0.537374 -0.428804)
(-0.357817 0.486579 -0.511165)
(-0.398333 0.421181 -0.486283)
(-0.148732 0.599335 -0.313896)
(-0.279824 0.558565 -0.457765)
(-0.428888 0.496116 -0.446833)
(-0.417256 0.444419 -0.421312)
(-0.441588 0.419437 -0.441267)
(-0.17015 0.64805 -0.301038)
(-0.152034 0.646866 -0.31506)
(-0.133287 0.54887 -0.277066)
(-0.161454 0.583139 -0.282258)
(-0.175818 0.551555 -0.401409)
(-0.255624 0.614925 -0.304768)
(-0.298347 0.544276 -0.296383)
(-0.37383 0.492667 -0.327575)
(-0.397539 0.456911 -0.529659)
(-0.355063 0.504123 -0.428316)
(-0.35391 0.497146 -0.407388)
(-0.254794 0.619393 -0.339231)
(-0.233841 0.623253 -0.327282)
(-0.359642 0.519671 -0.367492)
(-0.356371 0.528424 -0.369245)
(-0.295731 0.575923 -0.391237)
(-0.507996 0.433979 -0.480203)
(-0.493507 0.403771 -0.457604)
(-0.392018 0.444771 -0.475042)
(-0.378429 0.431642 -0.495576)
(-0.314811 0.503318 -0.312371)
(-0.192464 0.511713 -0.335602)
(-0.174949 0.423843 -0.353273)
(-0.196711 0.532748 -0.389243)
(-0.109452 0.594342 -0.31627)
(-0.168734 0.604531 -0.287167)
(-0.178712 0.691126 -0.316797)
(-0.203638 0.699689 -0.321539)
(-0.334533 0.419144 -0.522816)
(-0.399674 0.514873 -0.492065)
(-0.232921 0.585066 -0.395705)
(-0.35029 0.537709 -0.326101)
(-0.328301 0.447936 -0.505924)
(-0.160843 0.625477 -0.281946)
(-0.245062 0.288242 -0.450439)
(-0.241827 0.566333 -0.460461)
(-0.313746 0.337875 -0.513076)
(-0.173651 0.672305 -0.321584)
(-0.20273 0.566332 -0.28499)
(-0.180288 0.604484 -0.412095)
(-0.295082 0.594299 -0.410564)
(-0.248331 0.583075 -0.394619)
(-0.26494 0.583263 -0.397096)
(-0.201144 0.578264 -0.43089)
(-0.230003 0.430673 -0.218162)
(-0.250657 0.462553 -0.244423)
(-0.222646 0.551329 -0.273037)
(-0.187465 0.505528 -0.431444)
(-0.177899 0.46484 -0.41114)
(-0.27965 0.6315 -0.400842)
(-0.18612 0.520387 -0.370323)
(-0.451673 0.409033 -0.388549)
(-0.265125 0.647105 -0.370523)
(-0.317675 0.311397 -0.494728)
(-0.326588 0.523394 -0.442013)
(-0.353421 0.462438 -0.516978)
(-0.245776 0.543705 -0.444643)
(-0.282464 0.523898 -0.44178)
(-0.283687 0.499663 -0.409168)
(-0.253662 0.531086 -0.402707)
(-0.118138 0.486071 -0.328456)
(-0.151476 0.639446 -0.37162)
(-0.319588 0.474035 -0.351128)
(-0.312465 0.528448 -0.395243)
(-0.109283 0.586613 -0.370674)
(-0.142853 0.572061 -0.384695)
(-0.170058 0.574328 -0.416486)
(-0.129215 0.464287 -0.374882)
(-0.309302 0.577662 -0.363015)
(-0.407656 0.513711 -0.446519)
(-0.402675 0.506676 -0.468279)
(-0.0527881 0.57679 -0.298166)
(-0.190483 0.596222 -0.262207)
(-0.269389 0.523778 -0.478718)
(-0.376697 0.520032 -0.451099)
(-0.269696 0.597399 -0.381175)
(-0.288372 0.518172 -0.38356)
(-0.277662 0.568811 -0.436633)
(-0.275975 0.516856 -0.411599)
(-0.250322 0.464405 -0.33943)
(-0.399117 0.524421 -0.458201)
(-0.323846 0.579906 -0.369431)
(-0.188049 0.59069 -0.276389)
(-0.216286 0.594365 -0.28381)
(-0.179995 0.557297 -0.274747)
(-0.327767 0.445943 -0.453843)
(-0.43826 0.44702 -0.412114)
(-0.420535 0.464543 -0.411861)
(-0.48719 0.370906 -0.467511)
(-0.241472 0.464377 -0.431286)
(-0.274202 0.531387 -0.466928)
(-0.491953 0.420977 -0.443452)
(-0.494344 0.426276 -0.462707)
(-0.255194 0.521481 -0.449496)
(-0.252779 0.520366 -0.397017)
(-0.270161 0.489192 -0.414825)
(-0.328144 0.590609 -0.446382)
(-0.322608 0.564626 -0.424521)
(-0.162 0.577697 -0.407652)
(-0.274459 0.47943 -0.461009)
(-0.321404 0.55493 -0.504742)
(-0.159859 0.550343 -0.395126)
(-0.413995 0.470189 -0.561913)
(-0.387196 0.461014 -0.542474)
(-0.0980733 0.532602 -0.320157)
(-0.0752422 0.605999 -0.329386)
(-0.475555 0.346295 -0.375957)
(-0.453664 0.348203 -0.337203)
(-0.303359 0.521117 -0.463181)
(-0.304828 0.415118 -0.424437)
(-0.292952 0.546051 -0.454994)
(-0.233395 0.668574 -0.368519)
(-0.251467 0.663033 -0.376547)
(-0.378794 0.382495 -0.493381)
(-0.339514 0.498859 -0.49747)
(-0.29219 0.588564 -0.373201)
(-0.261132 0.517511 -0.292019)
(-0.424941 0.415352 -0.312603)
(-0.418625 0.414356 -0.318208)
(-0.377155 0.448118 -0.309994)
(-0.232543 0.565189 -0.261353)
(-0.252113 0.582518 -0.277958)
(-0.336207 0.526482 -0.34429)
(-0.314508 0.480904 -0.315826)
(-0.313999 0.594285 -0.369795)
(-0.228769 0.555484 -0.355658)
(-0.208262 0.561345 -0.285549)
(-0.226691 0.565587 -0.313853)
(-0.219422 0.635786 -0.332341)
(-0.190087 0.534069 -0.261234)
(-0.191579 0.595735 -0.285409)
(-0.43969 0.383815 -0.485947)
(-0.488591 0.412036 -0.485148)
(-0.498291 0.433093 -0.477134)
(-0.0853278 0.533524 -0.262918)
(-0.123174 0.665459 -0.362718)
(-0.123537 0.533626 -0.331209)
(-0.156984 0.474188 -0.370048)
(-0.243952 0.619103 -0.348932)
(-0.242401 0.606798 -0.325503)
(-0.229799 0.571895 -0.310396)
(-0.260514 0.560097 -0.456218)
(-0.339066 0.449138 -0.48124)
(-0.339301 0.447892 -0.48868)
(-0.34447 0.423856 -0.48338)
(-0.363695 0.458742 -0.483241)
(-0.329939 0.55049 -0.528019)
(-0.435693 0.332858 -0.496948)
(-0.442682 0.370756 -0.501797)
(-0.453883 0.397627 -0.514186)
(-0.14636 0.671966 -0.371979)
(-0.139873 0.518552 -0.318423)
(-0.459745 0.319378 -0.478207)
(-0.465107 0.340896 -0.462292)
(-0.464797 0.417836 -0.492905)
(-0.276653 0.447647 -0.462315)
(-0.197601 0.603241 -0.36288)
(-0.22039 0.378544 -0.444714)
(-0.124853 0.522754 -0.364169)
(-0.160186 0.609344 -0.39457)
(-0.38236 0.490347 -0.541894)
(-0.135569 0.565149 -0.264482)
(-0.227122 0.55233 -0.292146)
(-0.235887 0.6353 -0.33445)
(-0.394537 0.441231 -0.367549)
(-0.391049 0.532643 -0.417248)
(-0.256811 0.551559 -0.328113)
(-0.0745945 0.543306 -0.294779)
(-0.0807735 0.623445 -0.318495)
(-0.356449 0.415492 -0.327009)
(-0.428847 0.440847 -0.354935)
(-0.336705 0.475733 -0.303915)
(-0.306415 0.530531 -0.334073)
(-0.416787 0.467403 -0.440291)
(-0.414819 0.413407 -0.395707)
(-0.365043 0.445054 -0.362158)
(-0.164205 0.586895 -0.363603)
(-0.253828 0.550745 -0.2833)
(-0.25296 0.561261 -0.298813)
(-0.205746 0.431284 -0.360934)
(-0.202825 0.364372 -0.287735)
(-0.280029 0.496694 -0.348398)
(-0.198724 0.421198 -0.313237)
(-0.198489 0.356264 -0.223543)
(-0.239981 0.521929 -0.398411)
(-0.216157 0.507029 -0.371933)
(-0.252524 0.577492 -0.396141)
(-0.140102 0.559953 -0.283894)
(-0.151432 0.652468 -0.321564)
(-0.39708 0.494765 -0.41816)
(-0.26426 0.645593 -0.322395)
(-0.446958 0.42974 -0.429857)
(-0.423132 0.433738 -0.408781)
(-0.414806 0.437854 -0.388244)
(-0.422776 0.336371 -0.543578)
(-0.393659 0.286535 -0.523547)
(-0.41386 0.369287 -0.545395)
(-0.369782 0.463614 -0.358837)
(-0.337946 0.31817 -0.514492)
(-0.172908 0.590472 -0.419282)
(-0.198767 0.683035 -0.440905)
(-0.203103 0.489332 -0.393596)
(-0.196602 0.616769 -0.353037)
(-0.193736 0.537855 -0.349562)
(-0.289672 0.633991 -0.332642)
(-0.30749 0.605132 -0.404697)
(-0.319637 0.575474 -0.371671)
(-0.338419 0.622027 -0.413436)
(-0.422156 0.378375 -0.421189)
(-0.425467 0.465672 -0.461488)
(-0.268939 0.52911 -0.261963)
(-0.272822 0.55994 -0.279399)
(-0.361135 0.536404 -0.393514)
(-0.378075 0.559121 -0.461811)
(-0.273533 0.425443 -0.468595)
(-0.297776 0.379116 -0.438967)
(-0.315316 0.559949 -0.481583)
(-0.307557 0.514344 -0.461418)
(-0.33684 0.400448 -0.426777)
(-0.118083 0.364143 -0.26992)
(-0.178403 0.511805 -0.370021)
(-0.307508 0.457897 -0.47145)
(-0.30304 0.545781 -0.498914)
(-0.421745 0.489354 -0.408264)
(-0.394145 0.504623 -0.438242)
(-0.431081 0.475821 -0.44086)
(-0.329382 0.538252 -0.43515)
(-0.359711 0.426178 -0.443426)
(-0.190295 0.541472 -0.301203)
(-0.168919 0.310316 -0.387646)
(-0.245395 0.490434 -0.454361)
(-0.19406 0.281995 -0.405179)
(-0.229679 0.428521 -0.445134)
(-0.2413 0.403581 -0.453739)
(-0.391014 0.567208 -0.44594)
(-0.406563 0.402489 -0.407555)
(-0.398069 0.44119 -0.378521)
(-0.390449 0.540774 -0.403421)
(-0.372772 0.548176 -0.417609)
(-0.344855 0.513766 -0.372554)
(-0.348924 0.529292 -0.455425)
(-0.459159 0.410994 -0.516924)
(-0.231436 0.625069 -0.319576)
(-0.258398 0.676894 -0.377094)
(-0.193 0.65933 -0.289109)
(-0.166844 0.568976 -0.358559)
(-0.447002 0.397908 -0.549507)
(-0.169552 0.35595 -0.262396)
(-0.139227 0.279125 -0.319684)
(-0.45247 0.40467 -0.424215)
(-0.436639 0.446449 -0.444342)
(-0.365019 0.468362 -0.438835)
(-0.44254 0.469127 -0.459076)
(-0.14567 0.418835 -0.382632)
(-0.167962 0.49557 -0.402511)
(-0.175974 0.268269 -0.383659)
(-0.248411 0.418263 -0.380668)
(-0.18398 0.307122 -0.348762)
(-0.295105 0.550948 -0.385765)
(-0.139347 0.489618 -0.392326)
(-0.42761 0.366358 -0.539054)
(-0.343475 0.51053 -0.379427)
(-0.343115 0.584663 -0.388988)
(-0.325692 0.556311 -0.405205)
(-0.270075 0.568824 -0.361091)
(-0.273006 0.52425 -0.327935)
(-0.139967 0.485953 -0.393987)
(-0.308277 0.465119 -0.448108)
(-0.316103 0.480564 -0.429136)
(-0.33124 0.529175 -0.446083)
(-0.318147 0.54885 -0.447559)
(-0.278752 0.514173 -0.425618)
(-0.193771 0.525129 -0.40523)
(-0.308843 0.389003 -0.235541)
(-0.466496 0.492644 -0.476806)
(-0.359417 0.45438 -0.435004)
(-0.477012 0.352417 -0.376289)
(-0.127621 0.562423 -0.381989)
(-0.446952 0.418081 -0.42069)
(-0.49972 0.381425 -0.420143)
(-0.469354 0.420188 -0.458158)
(-0.101235 0.647292 -0.374882)
(-0.179863 0.542047 -0.350143)
(-0.166602 0.611109 -0.358087)
(-0.278627 0.547672 -0.349817)
(-0.207363 0.572807 -0.31336)
(-0.403871 0.510458 -0.485976)
(-0.382901 0.503262 -0.48342)
(-0.214611 0.655269 -0.299653)
(-0.118541 0.628621 -0.326827)
(-0.147532 0.521696 -0.254098)
(-0.166708 0.517038 -0.288782)
(-0.18697 0.468655 -0.236362)
(-0.183784 0.53887 -0.293896)
(-0.232752 0.491132 -0.247864)
(-0.0900681 0.556403 -0.28503)
(-0.206544 0.588686 -0.305541)
(-0.458252 0.368488 -0.470511)
(-0.334273 0.536191 -0.364685)
(-0.334218 0.472493 -0.328829)
(-0.338409 0.55514 -0.375242)
(-0.246296 0.858442 -0.487438)
(-0.153161 0.678782 -0.308105)
(-0.193802 0.584282 -0.430732)
(-0.486168 0.492607 -0.525174)
(-0.442525 0.391919 -0.459497)
(-0.476537 0.483233 -0.590675)
(-0.0825551 0.864913 -0.401671)
(-0.337666 0.520809 -0.447507)
(-0.467821 0.405906 -0.401424)
(-0.387798 0.654365 -0.519913)
(-0.313773 0.510361 -0.476839)
(-0.46392 0.682552 -0.592717)
(-0.362779 0.431733 -0.470684)
(-0.477679 0.603011 -0.614525)
(-0.185993 0.705599 -0.348133)
(-0.106222 0.712801 -0.354544)
(-0.445413 0.470675 -0.427788)
(-0.311743 0.732987 -0.524629)
(-0.323981 0.719176 -0.489266)
(-0.427296 0.70062 -0.562759)
(-0.37415 0.723435 -0.537821)
(-0.316516 0.736942 -0.470048)
(-0.359699 0.513448 -0.489785)
(-0.327536 0.649604 -0.430526)
(-0.408377 0.552905 -0.556984)
(-0.396278 0.489472 -0.53741)
(-0.201512 0.637139 -0.307815)
(-0.190489 0.616028 -0.352358)
(-0.243958 0.791511 -0.441183)
(-0.152535 0.7631 -0.38075)
(-0.172834 0.895772 -0.456414)
(-0.154957 0.894003 -0.438329)
(-0.184967 0.665571 -0.293994)
(-0.221471 0.763589 -0.393539)
(-0.138098 0.733112 -0.325972)
(-0.394572 0.652687 -0.535028)
(-0.408804 0.59734 -0.547744)
(-0.220107 0.892194 -0.476931)
(-0.312365 0.559342 -0.414064)
(-0.198725 0.88966 -0.459444)
(-0.267335 0.600077 -0.466231)
(-0.262947 0.865765 -0.495254)
(-0.266626 0.788844 -0.484464)
(-0.210314 0.682523 -0.452338)
(-0.298686 0.60774 -0.419467)
(-0.191735 0.60536 -0.44174)
(-0.213704 0.526787 -0.412232)
(-0.434887 0.495822 -0.411602)
(-0.445529 0.305177 -0.503234)
(-0.48762 0.373311 -0.512896)
(-0.42284 0.338543 -0.304434)
(-0.477632 0.420659 -0.44793)
(-0.0769762 0.944156 -0.421608)
(-0.189089 0.833705 -0.449397)
(-0.108294 0.849532 -0.383176)
(-0.157012 0.834554 -0.431327)
(-0.121305 0.913916 -0.429205)
(-0.117593 0.881751 -0.415943)
(-0.135296 0.822292 -0.411539)
(-0.22317 0.53659 -0.410682)
(-0.14973 0.586396 -0.397938)
(-0.163005 0.784766 -0.412446)
(-0.215544 0.594215 -0.361599)
(-0.196443 0.549308 -0.375936)
(-0.0926939 0.758624 -0.339563)
(-0.169718 0.611562 -0.267053)
(-0.390282 0.586571 -0.551673)
(-0.35858 0.495464 -0.51505)
(-0.321983 0.476415 -0.498676)
(-0.310256 0.575546 -0.406843)
(-0.263803 0.470006 -0.396472)
(-0.343413 0.732922 -0.512149)
(-0.281764 0.757024 -0.453959)
(-0.275926 0.598578 -0.317524)
(-0.284576 0.813065 -0.495581)
(-0.256469 0.799681 -0.458327)
(-0.240328 0.479739 -0.268553)
(-0.414394 0.510284 -0.37523)
(-0.315264 0.749586 -0.500756)
(-0.377114 0.61633 -0.432042)
(-0.312433 0.629031 -0.417449)
(-0.198057 0.416776 -0.247436)
(-0.268581 0.735694 -0.421015)
(-0.26419 0.512608 -0.260802)
(-0.324292 0.559703 -0.385574)
(-0.358328 0.48257 -0.374539)
(-0.159076 0.72343 -0.338479)
(-0.130956 0.872071 -0.408902)
(-0.400121 0.624104 -0.573427)
(-0.360348 0.536945 -0.539921)
(-0.405353 0.46112 -0.421097)
(-0.433807 0.489027 -0.448058)
(-0.468335 0.532672 -0.536976)
(-0.487905 0.614502 -0.564145)
(-0.46818 0.634738 -0.584858)
(-0.479222 0.610302 -0.605987)
(-0.419204 0.6414 -0.566844)
(-0.366469 0.496506 -0.467842)
(-0.408669 0.526147 -0.52642)
(-0.324125 0.426797 -0.462103)
(-0.425413 0.506994 -0.565357)
(-0.45041 0.671825 -0.579259)
(-0.49061 0.548075 -0.535717)
(-0.39067 0.547667 -0.480212)
(-0.459274 0.576272 -0.556267)
(-0.440651 0.629107 -0.527508)
(-0.447625 0.529359 -0.479363)
(-0.414355 0.551375 -0.532705)
(-0.472236 0.606487 -0.607229)
(-0.450881 0.556592 -0.590497)
(-0.175802 0.87973 -0.450708)
(-0.085067 0.859847 -0.397751)
(-0.136148 0.919591 -0.43853)
(-0.100846 0.873272 -0.403476)
(-0.169385 0.831989 -0.42912)
(-0.158452 0.797263 -0.394663)
(-0.117416 0.900747 -0.414937)
(-0.0976073 0.643798 -0.318771)
(-0.157189 0.533161 -0.249894)
(-0.177008 0.705108 -0.428585)
(-0.163497 0.81075 -0.432925)
(-0.177198 0.665944 -0.341533)
(-0.166562 0.699141 -0.349501)
(-0.258654 0.523932 -0.306975)
(-0.279738 0.595078 -0.389227)
(-0.414314 0.468828 -0.4066)
(-0.395641 0.665089 -0.531895)
(-0.255134 0.468162 -0.438115)
(-0.398094 0.539622 -0.559232)
(-0.349436 0.531879 -0.52961)
(-0.338101 0.614567 -0.503994)
(-0.35713 0.732471 -0.55241)
(-0.305435 0.718201 -0.520069)
(-0.363037 0.57192 -0.545742)
(-0.360866 0.61149 -0.539274)
(-0.279509 0.57572 -0.476635)
(-0.342391 0.763543 -0.530819)
(-0.259535 0.563428 -0.494008)
(-0.269289 0.842978 -0.495721)
(-0.34626 0.777 -0.521328)
(-0.287043 0.786425 -0.493367)
(-0.27616 0.775991 -0.491625)
(-0.3346 0.796301 -0.514903)
(-0.42055 0.532889 -0.463035)
(-0.46542 0.613153 -0.535894)
(-0.382948 0.632823 -0.512216)
(-0.410168 0.729365 -0.542347)
(-0.442601 0.617359 -0.517336)
(-0.382405 0.723924 -0.532936)
(-0.360475 0.631594 -0.506931)
(-0.259117 0.560119 -0.486465)
(-0.45773 0.613293 -0.554347)
(-0.367966 0.767661 -0.542232)
(-0.332927 0.517184 -0.520077)
(-0.40541 0.73112 -0.540747)
(-0.341668 0.77708 -0.54583)
(-0.284995 0.804557 -0.502434)
(-0.306068 0.58111 -0.421736)
(-0.341266 0.770546 -0.507629)
(-0.313019 0.737228 -0.523231)
(-0.299027 0.751238 -0.495696)
(-0.360922 0.725542 -0.509749)
(-0.324645 0.377989 -0.514239)
(-0.283606 0.47698 -0.477889)
(-0.42834 0.419444 -0.483907)
(-0.241434 0.823275 -0.462593)
(-0.290695 0.599881 -0.361532)
(-0.200758 0.769985 -0.417016)
(-0.230537 0.709025 -0.376125)
(-0.248098 0.828093 -0.466244)
(-0.267878 0.679454 -0.413113)
(-0.181949 0.837598 -0.417959)
(-0.208199 0.575153 -0.412654)
(-0.201522 0.736929 -0.425955)
(-0.23116 0.692163 -0.377533)
(-0.220679 0.568421 -0.334768)
(-0.272982 0.779788 -0.487085)
(-0.248267 0.521409 -0.391008)
(-0.299999 0.647316 -0.448123)
(-0.262231 0.670004 -0.402365)
(-0.243997 0.823371 -0.477302)
(-0.201615 0.875659 -0.458617)
(-0.261518 0.78642 -0.443057)
(-0.218642 0.864591 -0.46827)
(-0.239885 0.856155 -0.489928)
(-0.228573 0.869446 -0.490717)
(-0.229542 0.853112 -0.46973)
(-0.184266 0.69724 -0.352141)
(-0.49164 0.420536 -0.521847)
(-0.465201 0.421463 -0.553018)
(-0.489152 0.567592 -0.551367)
(-0.49994 0.536189 -0.57244)
(-0.501638 0.396477 -0.536253)
(-0.512028 0.386782 -0.540974)
(-0.495446 0.547392 -0.566188)
(-0.181745 0.438501 -0.419336)
(-0.202705 0.645266 -0.426417)
(-0.204847 0.53975 -0.460996)
(-0.454052 0.520812 -0.575432)
(-0.489937 0.412304 -0.484726)
(-0.441079 0.610086 -0.583439)
(-0.480269 0.45711 -0.50109)
(-0.466167 0.389324 -0.524912)
(-0.474141 0.539722 -0.566122)
(-0.470651 0.623505 -0.591017)
(-0.495836 0.40619 -0.484874)
(-0.450777 0.643937 -0.582682)
(-0.493889 0.480884 -0.540355)
(-0.477931 0.579174 -0.59952)
(-0.480765 0.515925 -0.589123)
(-0.470224 0.562512 -0.55542)
(-0.104912 0.806712 -0.404368)
(-0.116178 0.730717 -0.400446)
(-0.11354 0.829417 -0.406243)
(-0.0866176 0.814818 -0.397385)
(-0.111838 0.784742 -0.402034)
(-0.276337 0.773071 -0.499783)
(-0.305996 0.588288 -0.500963)
(-0.30086 0.765981 -0.511048)
(-0.318373 0.642526 -0.514987)
(-0.284213 0.66622 -0.484665)
(-0.299935 0.667571 -0.48344)
(-0.319838 0.679876 -0.513222)
(-0.430662 0.499744 -0.405411)
(-0.401831 0.59022 -0.43492)
(-0.430771 0.624129 -0.507737)
(-0.431745 0.583803 -0.455061)
(-0.423928 0.585257 -0.452213)
(-0.448604 0.482779 -0.452484)
(-0.395986 0.584658 -0.425062)
(-0.427131 0.621141 -0.531987)
(-0.391639 0.679792 -0.508496)
(-0.416269 0.563 -0.474271)
(-0.414699 0.569095 -0.464947)
(-0.396725 0.656127 -0.508177)
(-0.275981 0.504973 -0.461073)
(-0.348684 0.520254 -0.452285)
(-0.272858 0.664564 -0.486361)
(-0.31855 0.519242 -0.433877)
(-0.286203 0.436185 -0.413287)
(-0.307453 0.537108 -0.432691)
(-0.500262 0.357139 -0.504571)
(-0.318024 0.456515 -0.476398)
(-0.299333 0.561346 -0.433433)
(-0.304185 0.457396 -0.442916)
(-0.475262 0.365189 -0.443309)
(-0.492685 0.414864 -0.466633)
(-0.453605 0.401782 -0.418604)
(-0.467362 0.42979 -0.44795)
(-0.458306 0.440274 -0.431451)
(-0.481648 0.434979 -0.462942)
(-0.461793 0.660835 -0.606885)
(-0.450056 0.649135 -0.5933)
(-0.441973 0.682498 -0.598194)
(-0.449528 0.669682 -0.590654)
(-0.462796 0.669259 -0.603572)
(-0.466087 0.665602 -0.598651)
(-0.445674 0.671831 -0.594185)
(-0.42908 0.496016 -0.533167)
(-0.38315 0.405524 -0.494741)
(-0.386719 0.435324 -0.471173)
(-0.39431 0.454643 -0.529371)
(-0.418496 0.449752 -0.521316)
(-0.438352 0.52073 -0.540459)
(-0.41927 0.48575 -0.498743)
(-0.418381 0.500871 -0.488802)
(-0.429647 0.45884 -0.480938)
(-0.450909 0.580079 -0.601195)
(-0.453704 0.638627 -0.594438)
(-0.440344 0.641539 -0.598107)
(-0.454473 0.646835 -0.601913)
(-0.464775 0.594386 -0.607848)
(-0.470519 0.590584 -0.606016)
(-0.441671 0.653226 -0.60071)
(-0.255777 0.584586 -0.48046)
(-0.248535 0.680644 -0.485923)
(-0.217844 0.566033 -0.43799)
(-0.216814 0.558076 -0.435906)
(-0.192797 0.492564 -0.409841)
(-0.213004 0.609106 -0.453667)
(-0.151875 0.758363 -0.353944)
(-0.142798 0.639569 -0.290599)
(-0.162408 0.736542 -0.352902)
(-0.19698 0.650602 -0.318872)
(-0.201578 0.665062 -0.329703)
(-0.162635 0.731636 -0.34292)
(-0.105423 0.59196 -0.333189)
(-0.100708 0.632572 -0.336749)
(-0.0939804 0.654742 -0.351678)
(-0.110689 0.697498 -0.387876)
(-0.104469 0.597872 -0.347718)
(-0.0847157 0.6081 -0.365695)
(-0.100232 0.716624 -0.379173)
(-0.103854 0.677622 -0.355389)
(-0.292721 0.61026 -0.353077)
(-0.475657 0.43948 -0.45102)
(-0.204128 0.344733 -0.39702)
(-0.164976 0.354112 -0.346747)
(-0.168902 0.365631 -0.362207)
(-0.223706 0.407082 -0.412339)
(-0.281957 0.721979 -0.50042)
(-0.269969 0.703217 -0.498205)
(-0.285315 0.75547 -0.505775)
(-0.278049 0.651947 -0.499888)
(-0.302516 0.686652 -0.515264)
(-0.269553 0.752919 -0.502351)
(-0.313028 0.752784 -0.463092)
(-0.360265 0.72674 -0.492152)
(-0.34479 0.640096 -0.431959)
(-0.372285 0.678839 -0.481926)
(-0.327316 0.776826 -0.486642)
(-0.335123 0.76689 -0.493216)
(-0.357489 0.672644 -0.479017)
(-0.398446 0.695449 -0.562483)
(-0.386946 0.752761 -0.552115)
(-0.403858 0.709867 -0.573772)
(-0.399495 0.743155 -0.564376)
(-0.412307 0.701636 -0.560065)
(-0.408071 0.709794 -0.560149)