/*--------------------------------*- C++ -*----------------------------------*\
| =========                 |                                                 |
| \\      /  F ield         | OpenFOAM: The Open Source CFD Toolbox           |
|  \\    /   O peration     | Version:  v1612+                                |
|   \\  /    A nd           | Web:      www.OpenFOAM.com                      |
|    \\/     M anipulation  |                                                 |
\*---------------------------------------------------------------------------*/
FoamFile
{
    version     2.0;
    format      ascii;
    class       volScalarField;
    location    "50";
    object      p;
}
// * * * * * * * * * * * * * * * * * * * * * * * * * * * * * * * * * * * * * //

dimensions      [0 2 -2 0 0 0 0];

internalField   nonuniform List<scalar> 
16726
(
2.47745
2.52116
2.49074
2.51234
2.51445
2.51457
2.51514
2.51193
2.51097
2.50526
2.51263
2.50304
2.51653
2.51958
2.51658
2.50805
2.50883
2.51497
2.51596
2.5155
2.51443
2.5086
2.51468
2.51413
2.54745
2.55286
2.54679
2.54477
2.54538
2.54441
2.54584
2.54407
2.54505
2.54416
2.54574
2.55288
2.54668
2.54619
2.5428
2.54277
2.5349
2.52943
2.53652
2.53626
2.53387
2.52292
2.53266
2.52888
2.52915
2.52966
2.53465
2.53482
2.53756
2.53197
2.52734
2.53949
2.53664
2.53181
2.53121
2.52817
2.54193
2.53788
2.53498
2.53877
2.53795
2.53867
2.54228
2.54222
2.53333
2.53475
2.54353
2.54629
2.53853
2.54051
2.54473
2.50874
2.50518
2.50318
2.50529
2.50377
2.5022
2.50623
2.50524
2.51472
2.53747
2.53762
2.53548
2.53478
2.53822
2.54291
2.5403
2.54061
2.53818
2.54277
2.55304
2.45986
2.46412
2.45904
2.46951
2.46198
2.45612
2.45328
2.45426
2.45964
2.45746
2.46921
2.45312
2.45551
2.45649
2.48406
2.47938
2.47269
2.48428
2.48034
2.48239
2.47936
2.48754
2.48008
2.48012
2.48176
2.48748
2.48706
2.47606
2.49014
2.48389
2.47948
2.53542
2.53218
2.53979
2.53104
2.53993
2.52619
2.52899
2.53383
2.5275
2.53076
2.52827
2.53476
2.53653
2.5363
2.53196
2.52696
2.49235
2.48552
2.49194
2.47923
2.47912
2.48121
2.48436
2.47869
2.47159
2.47907
2.47104
2.47245
2.48284
2.47188
2.47044
2.46731
2.47931
2.48447
2.51029
2.51127
2.51617
2.53037
2.52223
2.53228
2.51306
2.52393
2.525
2.53041
2.52754
2.518
2.51972
2.53833
2.53943
2.53171
2.52801
2.51781
2.52505
2.52548
2.53785
2.53547
2.53856
2.52555
2.49543
2.49889
2.50124
2.49806
2.49072
2.5085
2.50748
2.50821
2.49178
2.51763
2.51732
2.51336
2.49179
2.50277
2.51686
2.50654
2.52511
2.51842
2.518
2.52456
2.52693
2.52783
2.5178
2.52557
2.52992
2.5218
2.52485
2.52246
2.52005
2.51808
2.51571
2.51829
2.51934
2.52023
2.51631
2.51427
2.52022
2.51503
2.51434
2.51967
2.51782
2.50939
2.51454
2.51276
2.51143
2.51283
2.51383
2.51256
2.51487
2.51869
2.51529
2.49745
2.49055
2.49345
2.49518
2.48956
2.49054
2.48831
2.50181
2.49306
2.49189
2.48731
2.48527
2.49824
2.48789
2.49369
2.48798
2.48716
2.48907
2.48901
2.48307
2.53166
2.53396
2.53719
2.53499
2.5362
2.54051
2.53539
2.53678
2.53692
2.54052
2.54504
2.54208
2.5394
2.55099
2.54244
2.53151
2.53967
2.53905
2.54136
2.53851
2.53891
2.53751
2.53704
2.53906
2.53805
2.5333
2.53608
2.47955
2.48683
2.49131
2.49333
2.4783
2.47865
2.48026
2.48987
2.48945
2.48368
2.47863
2.47247
2.49075
2.50191
2.49644
2.50352
2.49885
2.49903
2.50109
2.49502
2.49355
2.50423
2.49968
2.50371
2.50372
2.48988
2.48876
2.49411
2.49803
2.4976
2.50289
2.49069
2.49168
2.4971
2.49878
2.49508
2.50307
2.49953
2.49106
2.54072
2.5409
2.54053
2.54548
2.53874
2.54323
2.53506
2.53869
2.53167
2.53894
2.54172
2.54619
2.54299
2.54224
2.53889
2.54243
2.53965
2.5383
2.50995
2.50447
2.51557
2.51578
2.51
2.50207
2.49047
2.50538
2.50781
2.50506
2.50178
2.50984
2.50695
2.51364
2.50557
2.50235
2.50839
2.51011
2.50806
2.49745
2.50592
2.5028
2.5073
2.51095
2.47752
2.47056
2.47612
2.47268
2.48069
2.47465
2.46965
2.47124
2.46818
2.4736
2.47384
2.46888
2.46729
2.46652
2.47173
2.46689
2.46883
2.46964
2.46578
2.47026
2.45677
2.46394
2.51908
2.52329
2.53243
2.53385
2.51819
2.52402
2.52887
2.53592
2.53339
2.53993
2.52743
2.53113
2.52685
2.52446
2.53722
2.54098
2.5483
2.54479
2.55409
2.54969
2.49966
2.49177
2.48865
2.4926
2.49614
2.49367
2.48017
2.48567
2.49492
2.48665
2.52618
2.52694
2.52557
2.53041
2.52895
2.53212
2.53202
2.52381
2.5218
2.52507
2.51952
2.53363
2.5312
2.52692
2.52213
2.53231
2.53593
2.52998
2.5287
2.51359
2.5101
2.51393
2.51011
2.51883
2.52171
2.5171
2.51182
2.51559
2.52116
2.52095
2.52104
2.5016
2.49507
2.50135
2.49988
2.50067
2.49275
2.48807
2.49004
2.49824
2.49516
2.50786
2.50039
2.49561
2.47553
2.47693
2.46808
2.47082
2.49017
2.48459
2.48242
2.47654
2.4922
2.48489
2.53502
2.53508
2.54407
2.53774
2.53445
2.52987
2.5411
2.53445
2.46103
2.46416
2.4619
2.4534
2.46066
2.45359
2.45376
2.45546
2.45589
2.46058
2.46916
2.46049
2.47074
2.45835
2.45819
2.46067
2.46561
2.53471
2.53844
2.52842
2.53229
2.53278
2.53073
2.53193
2.54023
2.53543
2.54837
2.54439
2.5382
2.54223
2.53239
2.54601
2.46739
2.47225
2.47441
2.46816
2.46661
2.45963
2.47143
2.46554
2.46531
2.46505
2.45786
2.45424
2.46326
2.46122
2.46796
2.46456
2.46249
2.45804
2.45463
2.45982
2.53734
2.5379
2.53595
2.53793
2.53556
2.53895
2.53966
2.54187
2.54026
2.54171
2.54266
2.54415
2.543
2.5397
2.5416
2.54574
2.47672
2.47413
2.4826
2.47552
2.47737
2.47564
2.47921
2.48299
2.48885
2.4817
2.47244
2.47476
2.48187
2.48419
2.47838
2.48084
2.51386
2.50677
2.51853
2.51749
2.50898
2.50655
2.51115
2.51013
2.50306
2.4996
2.50895
2.50247
2.50988
2.50491
2.50736
2.50496
2.49701
2.50209
2.50389
2.50383
2.49888
2.51371
2.51222
2.50146
2.51493
2.51818
2.51313
2.51697
2.51332
2.51054
2.52089
2.51856
2.51456
2.51467
2.50867
2.51662
2.52273
2.51938
2.51582
2.51619
2.51845
2.5122
2.51147
2.50741
2.51059
2.51308
2.51422
2.5179
2.51782
2.51625
2.51502
2.52135
2.51573
2.50487
2.50932
2.51258
2.52064
2.51307
2.5092
2.51787
2.51221
2.51556
2.5078
2.44266
2.44432
2.44975
2.45128
2.45489
2.45406
2.45588
2.45481
2.45507
2.45673
2.44965
2.45476
2.45372
2.45513
2.49311
2.50049
2.49996
2.50396
2.49363
2.48925
2.48608
2.49749
2.4821
2.47561
2.48833
2.48248
2.48783
2.48778
2.48584
2.49183
2.48628
2.47627
2.47793
2.46974
2.47678
2.47066
2.47128
2.47146
2.46843
2.4741
2.47566
2.48276
2.47866
2.47343
2.47343
2.479
2.48479
2.47652
2.48735
2.48704
2.49149
2.49051
2.4829
2.48665
2.49213
2.496
2.48613
2.48993
2.49649
2.49525
2.49587
2.49377
2.49149
2.50005
2.49366
2.4949
2.49355
2.49567
2.49861
2.50049
2.43958
2.44404
2.43813
2.4398
2.44198
2.4415
2.44055
2.43412
2.43652
2.43431
2.43301
2.43633
2.43693
2.44111
2.42862
2.43784
2.43667
2.4703
2.46737
2.47138
2.47149
2.4708
2.46769
2.46423
2.46401
2.46021
2.45982
2.4571
2.46183
2.46108
2.45314
2.46408
2.46704
2.4922
2.49688
2.48722
2.49216
2.49936
2.48987
2.49532
2.49475
2.50419
2.49759
2.48816
2.50707
2.51025
2.49769
2.4864
2.4983
2.51007
2.50649
2.50219
2.50233
2.49044
2.50684
2.50385
2.4967
2.49586
2.49217
2.49766
2.49369
2.49654
2.50599
2.48215
2.49599
2.50302
2.48648
2.48488
2.48704
2.49949
2.48939
2.49245
2.49235
2.53393
2.53801
2.52665
2.53143
2.53821
2.53004
2.52348
2.51995
2.53603
2.53521
2.53316
2.53922
2.52956
2.53989
2.52654
2.53421
2.53482
2.53238
2.5315
2.52756
2.53123
2.53591
2.52918
2.52906
2.53101
2.5188
2.52378
2.52394
2.52933
2.52653
2.52635
2.52493
2.52137
2.51968
2.52345
2.52381
2.52062
2.51724
2.51991
2.52961
2.53323
2.52201
2.52426
2.52358
2.52472
2.53077
2.53435
2.52961
2.53278
2.53687
2.5334
2.53798
2.53131
2.53263
2.53956
2.53848
2.53313
2.53442
2.52723
2.53622
2.49949
2.49358
2.49314
2.48711
2.49489
2.50144
2.48801
2.49217
2.49992
2.48943
2.4894
2.4973
2.52343
2.52734
2.53054
2.52944
2.53012
2.52988
2.52746
2.53365
2.53358
2.52789
2.52881
2.52859
2.52731
2.53147
2.5287
2.5276
2.52777
2.52832
2.52367
2.52507
2.49883
2.4992
2.49985
2.49839
2.49644
2.4948
2.50132
2.50108
2.49423
2.49938
2.48974
2.50687
2.50813
2.50465
2.51166
2.50342
2.50506
2.53223
2.53621
2.53092
2.53015
2.53915
2.52853
2.53539
2.52635
2.5232
2.5315
2.52778
2.53508
2.53596
2.53622
2.53428
2.53936
2.5258
2.5278
2.52504
2.51381
2.50845
2.50849
2.51282
2.5082
2.51203
2.51207
2.505
2.50487
2.50513
2.50461
2.50685
2.50734
2.50649
2.51058
2.48204
2.48093
2.48163
2.47908
2.48248
2.48146
2.48055
2.48052
2.47916
2.48198
2.47866
2.48023
2.46769
2.4677
2.47847
2.48153
2.47936
2.4668
2.46973
2.47702
2.4749
2.53852
2.53544
2.54091
2.53624
2.53708
2.53783
2.54618
2.5349
2.53626
2.53935
2.53766
2.53872
2.54302
2.52401
2.53936
2.53868
2.54046
2.54375
2.54491
2.54196
2.53124
2.52979
2.53538
2.52797
2.52522
2.52516
2.51677
2.52042
2.52562
2.51949
2.52345
2.52225
2.52041
2.52171
2.52068
2.53534
2.52217
2.52196
2.52926
2.54311
2.53283
2.53185
2.53209
2.52475
2.53426
2.53472
2.53448
2.4811
2.48332
2.48535
2.48544
2.47172
2.47487
2.4689
2.4705
2.48175
2.4748
2.48035
2.47696
2.47361
2.478
2.46791
2.47363
2.46884
2.46743
2.54245
2.54788
2.54487
2.54318
2.54347
2.54283
2.54668
2.54858
2.53921
2.54513
2.54683
2.54969
2.54058
2.53703
2.55111
2.54466
2.54401
2.54567
2.54444
2.54272
2.54605
2.54686
2.42577
2.42369
2.43257
2.42829
2.43093
2.49529
2.49386
2.54131
2.53974
2.54745
2.46649
2.46011
2.46529
2.45659
2.45228
2.45411
2.50949
2.51664
2.5158
2.52166
2.51953
2.51227
2.43623
2.43588
2.4429
2.44605
2.44756
2.47823
2.47376
2.48308
2.48085
2.53718
2.53325
2.53409
2.54198
2.54003
2.44112
2.44578
2.44042
2.51689
2.51325
2.52081
2.51813
2.51129
2.49966
2.5012
2.49306
2.54166
2.53993
2.54337
2.46455
2.46884
2.47172
2.46328
2.4548
2.45706
2.54766
2.54428
2.4624
2.45808
2.46212
2.45593
2.52191
2.52534
2.52661
2.50432
2.49951
2.45968
2.4578
2.47963
2.48443
2.53053
2.53329
2.52985
2.46548
2.46275
2.46964
2.54425
2.54213
2.54367
2.53456
2.52728
2.52815
2.47434
2.48017
2.48187
2.46568
2.46066
2.46714
2.47896
2.47469
2.47754
2.49552
2.49429
2.5517
2.54447
2.54195
2.54009
2.50858
2.50794
2.49959
2.54046
2.5384
2.53569
2.50456
2.50845
2.48654
2.48331
2.48189
2.50991
2.50828
2.50444
2.5296
2.5273
2.54441
2.55076
2.54469
2.54168
2.53979
2.49008
2.48895
2.49068
2.49034
2.50637
2.508
2.53388
2.53056
2.51672
2.51427
2.51935
2.54592
2.54459
2.54749
2.52423
2.5234
2.50628
2.50854
2.4988
2.49954
2.54737
2.54646
2.50755
2.50189
2.50748
2.50111
2.50466
2.50089
2.50447
2.54058
2.5385
2.54851
2.51465
2.51861
2.50972
2.54944
2.55386
2.55208
2.51893
2.5174
2.54705
2.54591
2.54982
2.54946
2.55517
2.5504
2.5544
2.55167
2.53795
2.53478
2.53921
2.51887
2.5176
2.54291
2.5305
2.53592
2.53333
2.54182
2.54256
2.53349
2.53723
2.54085
2.5422
2.54381
2.5442
2.53268
2.53585
2.54241
2.54216
2.52863
2.52548
2.53108
2.52744
2.52885
2.53237
2.53045
2.51569
2.53102
2.52789
2.53091
2.52917
2.53286
2.52818
2.5298
2.53283
2.53899
2.52939
2.52773
2.52919
2.531
2.54143
2.54355
2.53848
2.53904
2.55679
2.55244
2.55773
2.55361
2.54974
2.55414
2.55232
2.5517
2.55365
2.52286
2.52838
2.52782
2.51659
2.53322
2.53181
2.52703
2.52244
2.52919
2.52013
2.53049
2.52557
2.5539
2.55079
2.55009
2.55424
2.5537
2.55722
2.55345
2.55064
2.55407
2.55071
2.55288
2.54889
2.54706
2.55354
2.55088
2.55266
2.54913
2.55052
2.52628
2.52486
2.53298
2.52787
2.51965
2.52201
2.53241
2.53127
2.53842
2.52692
2.53082
2.53518
2.53069
2.53032
2.53413
2.53516
2.5139
2.51827
2.54136
2.54483
2.54222
2.53916
2.54437
2.54163
2.54006
2.5424
2.53949
2.52925
2.53769
2.53489
2.53457
2.53945
2.53752
2.53385
2.5362
2.52876
2.53401
2.53007
2.54912
2.54967
2.55357
2.55219
2.55457
2.55221
2.55631
2.5526
2.55301
2.55228
2.55474
2.55013
2.54482
2.55073
2.55385
2.55514
2.54906
2.55087
2.5497
2.55455
2.55051
2.55311
2.54897
2.54763
2.54635
2.51205
2.50492
2.51008
2.52204
2.52246
2.52233
2.51829
2.51373
2.51395
2.51633
2.51874
2.54316
2.5446
2.54039
2.54987
2.54628
2.55047
2.54793
2.55488
2.55185
2.5425
2.54387
2.54775
2.55076
2.54861
2.54998
2.54783
2.54867
2.51396
2.51624
2.51965
2.50684
2.50936
2.51858
2.51461
2.51249
2.51753
2.51391
2.51125
2.51493
2.50708
2.51299
2.51118
2.51238
2.51391
2.52761
2.52766
2.52954
2.5229
2.5165
2.5167
2.51709
2.51884
2.51834
2.51945
2.52013
2.53381
2.53847
2.53537
2.52455
2.53545
2.53563
2.53546
2.53665
2.5353
2.53546
2.502
2.5092
2.51185
2.50032
2.50998
2.50702
2.49989
2.49842
2.50757
2.50741
2.50138
2.50196
2.50216
2.5052
2.5419
2.54217
2.54583
2.5521
2.54657
2.54964
2.54361
2.54355
2.54835
2.54336
2.54062
2.50465
2.50987
2.51046
2.49469
2.50726
2.51216
2.50747
2.51168
2.51653
2.52417
2.52585
2.52224
2.52158
2.51156
2.52407
2.52118
2.52115
2.52158
2.53029
2.52423
2.52649
2.52519
2.5258
2.52517
2.52325
2.52409
2.54155
2.54525
2.54388
2.54064
2.54738
2.54308
2.53708
2.53907
2.54509
2.54444
2.54944
2.54691
2.54609
2.54409
2.54242
2.54193
2.54635
2.54132
2.54887
2.54008
2.54328
2.54645
2.54457
2.54811
2.54639
2.51936
2.52242
2.52535
2.52953
2.52658
2.5217
2.52271
2.52021
2.52094
2.51521
2.51156
2.51216
2.51687
2.51637
2.51812
2.52231
2.51898
2.50684
2.51262
2.51226
2.50999
2.51277
2.52517
2.51899
2.51479
2.52236
2.52468
2.51699
2.52611
2.52633
2.52231
2.52784
2.52888
2.54034
2.53615
2.5349
2.53459
2.53376
2.54059
2.53823
2.53568
2.53495
2.53611
2.48829
2.48919
2.50163
2.50986
2.51036
2.50508
2.51205
2.50871
2.49971
2.50233
2.50532
2.49504
2.49641
2.50056
2.50537
2.50937
2.50234
2.49926
2.50047
2.50026
2.50439
2.50205
2.49526
2.50042
2.50228
2.50073
2.5004
2.5078
2.50721
2.5052
2.51144
2.50327
2.505
2.50766
2.50812
2.48925
2.49256
2.48777
2.48995
2.50241
2.49655
2.49417
2.49649
2.49816
2.47342
2.48247
2.48551
2.48501
2.4799
2.48718
2.48877
2.49095
2.49679
2.48458
2.48459
2.48242
2.48957
2.48404
2.54397
2.54503
2.54081
2.54203
2.53739
2.54662
2.54292
2.53777
2.54766
2.53945
2.54273
2.53694
2.53128
2.52724
2.53307
2.53942
2.53965
2.53679
2.53961
2.53367
2.53465
2.54189
2.53604
2.53613
2.53641
2.53447
2.53128
2.52932
2.53604
2.53387
2.53478
2.53984
2.53346
2.53373
2.53688
2.53745
2.54132
2.54703
2.54557
2.5498
2.54496
2.53822
2.54322
2.54054
2.54877
2.5407
2.54559
2.54667
2.54519
2.54476
2.54192
2.53793
2.53863
2.53485
2.54475
2.55111
2.54377
2.54608
2.54504
2.51984
2.52449
2.51767
2.53095
2.53101
2.52654
2.52631
2.52089
2.52735
2.52512
2.5343
2.53626
2.53302
2.5315
2.53148
2.53405
2.53217
2.53238
2.53489
2.527
2.52974
2.53126
2.53114
2.49595
2.50086
2.49956
2.50116
2.50107
2.49791
2.51296
2.51856
2.51096
2.50902
2.51519
2.51002
2.5182
2.5229
2.5182
2.51931
2.51452
2.51226
2.51011
2.51084
2.49253
2.49643
2.49844
2.48973
2.46666
2.46867
2.47657
2.47978
2.48016
2.4799
2.48826
2.48594
2.49452
2.49124
2.49001
2.47941
2.47898
2.48088
2.48735
2.4854
2.48278
2.48374
2.48188
2.48401
2.48004
2.48257
2.50796
2.51389
2.51048
2.4915
2.49634
2.49532
2.51445
2.51075
2.51735
2.50935
2.5175
2.51698
2.50246
2.50025
2.49524
2.49356
2.49281
2.49817
2.50517
2.50549
2.5458
2.54763
2.54758
2.55
2.53651
2.53109
2.53571
2.54534
2.54219
2.53952
2.54088
2.53904
2.53925
2.53751
2.5305
2.53302
2.54834
2.5505
2.53831
2.54502
2.54027
2.54006
2.54224
2.53971
2.53873
2.53715
2.52427
2.52038
2.53352
2.52944
2.53408
2.53723
2.48601
2.4858
2.50965
2.51394
2.51053
2.50008
2.49532
2.50505
2.51048
2.52498
2.52641
2.52081
2.5159
2.51796
2.51993
2.51085
2.50989
2.51349
2.51419
2.50726
2.50752
2.49112
2.49619
2.49824
2.48796
2.50704
2.50581
2.51181
2.5093
2.51268
2.51022
2.51232
2.51557
2.52573
2.52927
2.53412
2.53609
2.54147
2.54064
2.54065
2.5369
2.54292
2.53875
2.54441
2.54365
2.54177
2.53862
2.53965
2.53475
2.54702
2.54122
2.5313
2.53536
2.54254
2.54372
2.53648
2.53901
2.5333
2.511
2.51637
2.51438
2.4819
2.48652
2.48967
2.49198
2.49288
2.49555
2.492
2.49261
2.48749
2.49202
2.49527
2.4977
2.46957
2.47137
2.46768
2.47843
2.48063
2.46475
2.48095
2.47609
2.47202
2.46893
2.47206
2.46772
2.47126
2.47147
2.4881
2.4846
2.48503
2.4825
2.4779
2.47679
2.48104
2.48388
2.48018
2.47468
2.47522
2.47627
2.47624
2.47833
2.46832
2.47066
2.4648
2.47184
2.46018
2.45678
2.46371
2.46545
2.46489
2.46092
2.4675
2.46653
2.47084
2.46909
2.45964
2.46483
2.46243
2.4638
2.48283
2.48282
2.4893
2.48959
2.48738
2.49279
2.47761
2.48027
2.52722
2.52805
2.51695
2.54392
2.5358
2.54276
2.53647
2.53776
2.45636
2.46428
2.45672
2.45765
2.46127
2.46608
2.46696
2.46197
2.45792
2.47389
2.48004
2.48155
2.47899
2.53632
2.52447
2.53394
2.5314
2.52706
2.51976
2.52092
2.51182
2.5245
2.52608
2.50133
2.49246
2.46319
2.47341
2.47295
2.47402
2.46953
2.47621
2.47699
2.47724
2.47112
2.47447
2.47963
2.47575
2.47968
2.49163
2.48921
2.48465
2.44641
2.44713
2.45068
2.4447
2.45308
2.45771
2.45465
2.4571
2.45431
2.44889
2.44702
2.44965
2.48212
2.48729
2.48333
2.47803
2.48534
2.50267
2.50639
2.50561
2.49871
2.4965
2.49742
2.50342
2.50277
2.51324
2.50675
2.50942
2.5074
2.50671
2.50569
2.51822
2.52309
2.53894
2.5377
2.5353
2.52614
2.52301
2.5279
2.53392
2.53841
2.53303
2.53642
2.52964
2.53044
2.52989
2.51983
2.52588
2.52142
2.52028
2.52023
2.50939
2.51304
2.52109
2.51467
2.45404
2.45428
2.45668
2.45218
2.45617
2.46353
2.47669
2.46817
2.46312
2.46741
2.4672
2.46777
2.46592
2.46463
2.46013
2.461
2.45687
2.46403
2.46599
2.54001
2.54004
2.54503
2.54764
2.55208
2.5469
2.53421
2.53742
2.54217
2.53866
2.54053
2.54096
2.5352
2.53654
2.53909
2.54384
2.54115
2.53634
2.54097
2.54287
2.53687
2.53756
2.53326
2.53134
2.5333
2.43839
2.44852
2.45049
2.45001
2.44759
2.44512
2.44463
2.45274
2.45171
2.44518
2.45393
2.45022
2.44149
2.4516
2.45073
2.45895
2.46347
2.45936
2.46235
2.46057
2.45458
2.45569
2.46633
2.47669
2.47159
2.46758
2.46839
2.47693
2.48212
2.47398
2.46247
2.4612
2.4671
2.46527
2.52304
2.52267
2.54114
2.53704
2.54016
2.48106
2.48035
2.47625
2.50603
2.49958
2.50276
2.49684
2.5162
2.51857
2.51728
2.53209
2.52508
2.5271
2.51909
2.51034
2.51024
2.52072
2.51518
2.51492
2.49694
2.50772
2.50125
2.50979
2.51123
2.51062
2.51213
2.50972
2.44087
2.42968
2.4373
2.43967
2.44121
2.44731
2.43819
2.43899
2.44622
2.44464
2.45032
2.45188
2.44425
2.44569
2.45076
2.44918
2.44936
2.44257
2.44595
2.44573
2.44175
2.44784
2.45118
2.45484
2.44687
2.44624
2.53644
2.54237
2.54096
2.53957
2.53976
2.5436
2.54478
2.53741
2.53956
2.53319
2.5334
2.54003
2.54071
2.53655
2.53054
2.53118
2.52883
2.52938
2.53665
2.53129
2.5322
2.54322
2.53638
2.53692
2.53392
2.52803
2.52946
2.51799
2.51473
2.53208
2.52628
2.52562
2.46939
2.46664
2.47241
2.49678
2.48979
2.49515
2.49315
2.48286
2.47286
2.47121
2.48332
2.49052
2.48772
2.48664
2.48517
2.48076
2.43811
2.44904
2.44181
2.43577
2.44744
2.44905
2.44682
2.43877
2.44053
2.43876
2.44322
2.438
2.44978
2.45259
2.45251
2.44977
2.46013
2.45483
2.45501
2.45913
2.45641
2.4595
2.44575
2.44663
2.45144
2.45002
2.43287
2.43193
2.43533
2.43096
2.43403
2.43558
2.4328
2.43385
2.44246
2.4412
2.43812
2.43998
2.43654
2.43903
2.43931
2.45492
2.44489
2.43991
2.45038
2.44833
2.4503
2.45149
2.43864
2.4389
2.44075
2.43713
2.44382
2.44075
2.44167
2.51449
2.51368
2.51357
2.52204
2.51557
2.49097
2.4994
2.49826
2.5039
2.49817
2.50589
2.51031
2.5087
2.51166
2.52104
2.51594
2.51984
2.51134
2.50193
2.50566
2.52223
2.52063
2.5098
2.50023
2.52147
2.52015
2.51572
2.52845
2.51882
2.49819
2.49923
2.50792
2.50511
2.51109
2.50853
2.51349
2.5126
2.51757
2.4378
2.43429
2.44027
2.46601
2.45563
2.45176
2.45878
2.45704
2.46814
2.46709
2.46697
2.4641
2.46864
2.4698
2.4643
2.4766
2.44949
2.45777
2.45585
2.45564
2.45555
2.45993
2.45251
2.45661
2.44498
2.44608
2.44366
2.44704
2.45356
2.45278
2.45959
2.45988
2.53101
2.5313
2.54177
2.53672
2.5355
2.5343
2.53635
2.53924
2.53294
2.48334
2.5175
2.50394
2.49463
2.49998
2.50142
2.51002
2.42331
2.43356
2.4227
2.42766
2.42948
2.43067
2.42753
2.42976
2.42799
2.42471
2.42818
2.43101
2.42874
2.42584
2.42727
2.43722
2.43225
2.43658
2.43264
2.43415
2.43406
2.43432
2.43067
2.43041
2.42963
2.43379
2.43416
2.43503
2.43563
2.4659
2.46867
2.46242
2.45317
2.45874
2.46859
2.46624
2.46378
2.45722
2.44712
2.44294
2.44553
2.45055
2.44884
2.45417
2.45427
2.47981
2.4749
2.48179
2.47876
2.48746
2.49129
2.48004
2.49141
2.48865
2.49144
2.4916
2.49481
2.52784
2.52738
2.52404
2.53307
2.53042
2.52232
2.52303
2.53108
2.52487
2.52553
2.52199
2.53208
2.52877
2.53197
2.52341
2.53072
2.53156
2.526
2.52856
2.52995
2.52979
2.53028
2.53677
2.53518
2.52224
2.52321
2.47892
2.46844
2.47626
2.4711
2.47417
2.4712
2.48076
2.47789
2.46851
2.46867
2.53942
2.53337
2.53346
2.52727
2.52647
2.5353
2.53191
2.53819
2.43621
2.44157
2.44939
2.44069
2.43146
2.44733
2.44521
2.43273
2.43082
2.47184
2.47075
2.4754
2.46763
2.45934
2.46601
2.47046
2.46368
2.45966
2.46241
2.47035
2.46843
2.45751
2.45916
2.46709
2.46322
2.53364
2.53902
2.53556
2.53367
2.5442
2.53438
2.54049
2.53332
2.53059
2.53999
2.53694
2.5291
2.52165
2.51557
2.51349
2.51943
2.51355
2.53083
2.52963
2.5335
2.51305
2.52772
2.51432
2.51517
2.51086
2.51304
2.52896
2.52165
2.52407
2.47689
2.48082
2.48222
2.47909
2.48642
2.47396
2.48313
2.4763
2.47556
2.47668
2.46987
2.45212
2.44803
2.44686
2.45551
2.45505
2.45597
2.45151
2.4554
2.45229
2.45487
2.45711
2.45428
2.45126
2.45087
2.45613
2.45822
2.46413
2.44616
2.454
2.45466
2.45475
2.453
2.45225
2.44995
2.44824
2.45311
2.45248
2.54336
2.5409
2.54494
2.53789
2.54866
2.53645
2.54025
2.53865
2.55102
2.54675
2.54499
2.54112
2.53975
2.55024
2.54591
2.53245
2.53343
2.53772
2.52852
2.53042
2.45903
2.45824
2.46214
2.46081
2.45555
2.46012
2.45049
2.45456
2.46362
2.45796
2.45616
2.46195
2.46197
2.46584
2.51666
2.51768
2.51766
2.50849
2.50734
2.51141
2.50686
2.49625
2.49312
2.48794
2.48628
2.49842
2.49594
2.48057
2.47857
2.47119
2.47074
2.48447
2.48308
2.4865
2.48917
2.5115
2.51154
2.5039
2.50429
2.49557
2.49317
2.50167
2.50333
2.48947
2.48545
2.48767
2.47638
2.48065
2.48459
2.47353
2.47835
2.48466
2.47951
2.47518
2.51874
2.51356
2.52278
2.51714
2.51558
2.52378
2.52236
2.52201
2.52582
2.52054
2.52034
2.53244
2.52224
2.51881
2.5203
2.52205
2.53048
2.52474
2.52519
2.52382
2.52061
2.51811
2.5203
2.51501
2.48375
2.48074
2.48001
2.47688
2.48438
2.48415
2.48638
2.48763
2.46701
2.46685
2.46685
2.4659
2.46154
2.45932
2.53044
2.52523
2.51741
2.52173
2.52705
2.53535
2.52608
2.51919
2.5103
2.52532
2.53306
2.52737
2.48533
2.48875
2.48447
2.48322
2.48118
2.48337
2.47106
2.47221
2.47962
2.4724
2.4791
2.47477
2.48251
2.45787
2.45889
2.45183
2.45527
2.45405
2.45736
2.44669
2.44898
2.45221
2.44507
2.44857
2.45663
2.45241
2.45269
2.4544
2.45192
2.48041
2.48827
2.48844
2.48809
2.48119
2.48291
2.48331
2.48043
2.48243
2.4852
2.47081
2.46994
2.46957
2.47898
2.47546
2.47274
2.4718
2.47053
2.47349
2.46514
2.47618
2.47562
2.47616
2.47647
2.49412
2.49598
2.49819
2.4919
2.49264
2.49581
2.52091
2.51596
2.5141
2.51916
2.49911
2.49397
2.49023
2.48735
2.49311
2.48863
2.50759
2.52045
2.52233
2.51968
2.51583
2.51966
2.51301
2.51425
2.51444
2.51772
2.5141
2.51978
2.52572
2.52288
2.50491
2.50601
2.50616
2.49761
2.5045
2.50268
2.49801
2.50005
2.52939
2.52827
2.52947
2.52969
2.52997
2.52892
2.53533
2.53126
2.5322
2.53016
2.53656
2.53177
2.53066
2.52884
2.53558
2.53308
2.53233
2.54008
2.5356
2.54128
2.53224
2.54
2.5479
2.49536
2.50605
2.50581
2.49703
2.4967
2.50312
2.4983
2.50643
2.50517
2.50259
2.49238
2.4904
2.48835
2.48373
2.48214
2.49424
2.48997
2.48433
2.48427
2.48501
2.47762
2.47957
2.48449
2.49109
2.4989
2.50932
2.50204
2.50767
2.49678
2.4959
2.50524
2.50502
2.50151
2.50589
2.49875
2.49982
2.48195
2.48416
2.49025
2.4904
2.48553
2.48756
2.48558
2.485
2.50192
2.49203
2.49404
2.49688
2.49163
2.50188
2.49863
2.50518
2.50277
2.50699
2.50713
2.50131
2.50178
2.49735
2.49989
2.50002
2.50053
2.49728
2.5437
2.54499
2.54757
2.54092
2.5407
2.54295
2.54662
2.54382
2.54193
2.54422
2.53691
2.53896
2.53116
2.53762
2.5391
2.53918
2.53924
2.54079
2.53619
2.52547
2.53207
2.52714
2.52509
2.53021
2.52998
2.52494
2.52976
2.52859
2.53267
2.53047
2.53658
2.53442
2.52979
2.52272
2.53043
2.53011
2.49215
2.49022
2.4946
2.49437
2.49753
2.49281
2.49147
2.49445
2.49275
2.51342
2.51556
2.50907
2.5117
2.51048
2.51034
2.51229
2.50923
2.51044
2.52962
2.53228
2.53033
2.5298
2.52605
2.53236
2.53456
2.53012
2.5323
2.52335
2.52526
2.52202
2.52748
2.52267
2.52666
2.52337
2.52656
2.52477
2.52147
2.52031
2.53184
2.52749
2.53192
2.53421
2.52168
2.52416
2.54985
2.54617
2.54713
2.54658
2.5534
2.54635
2.54156
2.5434
2.54366
2.54443
2.54361
2.54465
2.5458
2.54098
2.53655
2.53471
2.53914
2.53063
2.52997
2.53308
2.54079
2.54275
2.53989
2.54106
2.54475
2.53969
2.53879
2.53666
2.54114
2.5363
2.53923
2.53642
2.54096
2.5403
2.54472
2.5462
2.54248
2.54491
2.53932
2.54145
2.53926
2.52352
2.52931
2.53234
2.53689
2.53468
2.53158
2.53619
2.52956
2.51949
2.5159
2.52036
2.51814
2.50295
2.49961
2.50713
2.50525
2.50762
2.50694
2.4991
2.49954
2.50384
2.50682
2.54502
2.54486
2.53958
2.54356
2.54613
2.54559
2.54957
2.54251
2.52684
2.52924
2.53478
2.53651
2.53567
2.53478
2.5351
2.54468
2.54274
2.54023
2.54179
2.54709
2.54654
2.54408
2.55141
2.5463
2.54206
2.54479
2.54194
2.54366
2.52349
2.5217
2.52089
2.52734
2.52821
2.52636
2.523
2.52174
2.55053
2.55048
2.54949
2.55328
2.54609
2.54852
2.54533
2.54828
2.54641
2.55112
2.54602
2.52957
2.52865
2.52206
2.52809
2.5268
2.52683
2.53428
2.52782
2.52813
2.52756
2.52828
2.53518
2.53207
2.54512
2.55043
2.54811
2.54351
2.53748
2.53477
2.52475
2.52893
2.52623
2.52057
2.53335
2.53152
2.5207
2.52482
2.53109
2.5336
2.5095
2.50963
2.51863
2.51556
2.51394
2.5153
2.51418
2.51805
2.51504
2.53206
2.51229
2.51779
2.5239
2.52287
2.52267
2.52766
2.53053
2.52369
2.53587
2.53098
2.53297
2.53202
2.53077
2.54496
2.51778
2.51792
2.5154
2.52059
2.53066
2.52783
2.5272
2.52893
2.52425
2.5234
2.52022
2.52955
2.52592
2.51763
2.52817
2.52066
2.51871
2.51865
2.51808
2.52003
2.52958
2.52958
2.53816
2.53192
2.52984
2.53298
2.53641
2.53653
2.52662
2.52374
2.51845
2.52031
2.51905
2.51442
2.51868
2.52407
2.52598
2.52215
2.52125
2.53273
2.53328
2.53149
2.52906
2.53786
2.53294
2.52876
2.53685
2.53679
2.53411
2.53177
2.51713
2.52385
2.51867
2.52073
2.51934
2.51745
2.52603
2.52433
2.52486
2.52517
2.51829
2.52054
2.50467
2.49713
2.5071
2.51422
2.51194
2.51013
2.50638
2.5014
2.50251
2.50653
2.51316
2.53555
2.53415
2.53791
2.53491
2.53295
2.5274
2.52706
2.52647
2.52844
2.52433
2.52275
2.47518
2.48772
2.47981
2.47401
2.47891
2.48253
2.48109
2.48639
2.48325
2.48206
2.482
2.48406
2.48635
2.48799
2.49066
2.49307
2.47833
2.46943
2.48424
2.48663
2.49251
2.49232
2.47608
2.47303
2.53392
2.51899
2.53594
2.53504
2.52695
2.52357
2.52751
2.52297
2.51678
2.526
2.52899
2.53027
2.53205
2.52615
2.52478
2.5208
2.51684
2.5165
2.51851
2.51203
2.51282
2.51381
2.50878
2.51122
2.51441
2.51621
2.52066
2.51981
2.51591
2.51036
2.50904
2.51302
2.51051
2.43685
2.44566
2.44628
2.44003
2.44692
2.44669
2.44022
2.44059
2.44908
2.44376
2.44476
2.44767
2.4463
2.4457
2.50732
2.50364
2.51664
2.50774
2.50981
2.50115
2.5001
2.50141
2.54534
2.55042
2.54905
2.54248
2.54675
2.54436
2.54922
2.54437
2.54643
2.52047
2.51843
2.52319
2.52627
2.52036
2.51976
2.52091
2.54232
2.54389
2.53875
2.53718
2.53787
2.53434
2.5339
2.54298
2.54244
2.53503
2.54169
2.53294
2.53465
2.54535
2.54119
2.54288
2.54246
2.53167
2.53476
2.52269
2.53709
2.54987
2.54651
2.55213
2.54835
2.54598
2.55652
2.55479
2.55134
2.5532
2.55374
2.55717
2.54898
2.54572
2.5485
2.55118
2.55366
2.54959
2.55096
2.55386
2.5484
2.54801
2.55124
2.55119
2.54939
2.55298
2.54791
2.55404
2.55417
2.55452
2.55422
2.55425
2.54608
2.55459
2.55285
2.55197
2.54967
2.55436
2.55789
2.54088
2.54815
2.5444
2.5421
2.54835
2.54523
2.51601
2.50587
2.51506
2.50983
2.50832
2.51143
2.5051
2.50219
2.51333
2.51776
2.5144
2.50859
2.5112
2.5246
2.52123
2.52231
2.51956
2.52044
2.51855
2.52096
2.51737
2.52372
2.52307
2.52145
2.51646
2.512
2.50872
2.51369
2.51674
2.52218
2.51719
2.51513
2.51968
2.51568
2.52097
2.51458
2.49577
2.50622
2.50535
2.50374
2.50266
2.50482
2.50109
2.49871
2.49446
2.50129
2.49494
2.49898
2.51251
2.50255
2.51237
2.50814
2.5057
2.50581
2.50962
2.50339
2.50503
2.50974
2.5012
2.50184
2.54639
2.52241
2.5196
2.50421
2.50306
2.50177
2.49578
2.50212
2.49901
2.50713
2.50458
2.50164
2.50676
2.50812
2.50936
2.51004
2.50749
2.52593
2.52807
2.52336
2.52393
2.52536
2.52769
2.51925
2.52066
2.52856
2.52415
2.54189
2.53654
2.53445
2.54128
2.53984
2.5365
2.54552
2.53682
2.54195
2.50458
2.50723
2.49862
2.49429
2.49879
2.49841
2.49405
2.4997
2.50264
2.49194
2.48722
2.50323
2.49778
2.49942
2.49935
2.49968
2.54482
2.53369
2.53737
2.54066
2.53973
2.53772
2.5403
2.54594
2.53931
2.53763
2.54711
2.54403
2.5454
2.5405
2.54117
2.47533
2.4711
2.47413
2.47429
2.47806
2.46632
2.46965
2.47878
2.47693
2.48715
2.48547
2.48443
2.49448
2.495
2.4926
2.48736
2.48747
2.48882
2.49444
2.49048
2.49274
2.51387
2.52466
2.51998
2.51751
2.51904
2.5267
2.52561
2.53911
2.5415
2.50291
2.50236
2.49923
2.49294
2.49305
2.49851
2.49138
2.49101
2.4906
2.48737
2.48483
2.49203
2.49102
2.51773
2.51138
2.51364
2.51937
2.51926
2.51276
2.51528
2.51297
2.51785
2.51639
2.5217
2.51565
2.52286
2.54551
2.54151
2.54766
2.54097
2.5459
2.5399
2.53444
2.5401
2.47967
2.4811
2.48274
2.49218
2.48821
2.49084
2.48295
2.48388
2.4902
2.49176
2.45407
2.46637
2.45533
2.45627
2.45784
2.46181
2.46077
2.45983
2.45893
2.46216
2.46225
2.46206
2.46836
2.45953
2.45959
2.45659
2.46414
2.46586
2.46706
2.46918
2.45304
2.45284
2.45875
2.46117
2.45975
2.45746
2.46415
2.4573
2.45598
2.45803
2.45302
2.47484
2.48186
2.49249
2.49327
2.48393
2.49877
2.4995
2.48916
2.49022
2.49776
2.49893
2.49717
2.50076
2.5154
2.50766
2.52239
2.5201
2.51091
2.51068
2.50607
2.49845
2.49462
2.49716
2.50142
2.50265
2.50837
2.49786
2.50017
2.48529
2.48976
2.49123
2.48638
2.49963
2.49331
2.53672
2.5368
2.53567
2.5466
2.5318
2.53469
2.53891
2.54049
2.54154
2.54606
2.5372
2.53594
2.5374
2.52409
2.53877
2.53359
2.53461
2.51892
2.52125
2.52655
2.52194
2.52739
2.53351
2.5347
2.52666
2.51935
2.52822
2.53312
2.53564
2.52943
2.4928
2.48753
2.47704
2.47884
2.48486
2.48408
2.49398
2.47935
2.47771
2.48211
2.47634
2.47914
2.46923
2.48339
2.48918
2.49063
2.48768
2.49329
2.49164
2.4991
2.49727
2.49338
2.48947
2.48669
2.48904
2.4943
2.4919
2.49622
2.49303
2.5073
2.50321
2.50514
2.50496
2.50064
2.45386
2.4463
2.44901
2.45237
2.44469
2.44493
2.44361
2.44838
2.45351
2.44885
2.45428
2.53744
2.53231
2.53363
2.53984
2.53835
2.5357
2.53169
2.53597
2.53834
2.54432
2.53513
2.53325
2.53612
2.4903
2.50198
2.49325
2.49813
2.49491
2.4935
2.50228
2.50055
2.50185
2.50143
2.44425
2.44152
2.42968
2.43139
2.42766
2.43445
2.431
2.43357
2.43076
2.43314
2.43323
2.43888
2.44372
2.44031
2.43853
2.43574
2.43535
2.43708
2.4328
2.43162
2.43471
2.45178
2.45328
2.50831
2.50802
2.4471
2.44275
2.44796
2.44013
2.43838
2.441
2.44049
2.44379
2.47696
2.4784