/*--------------------------------*- C++ -*----------------------------------*\
| =========                 |                                                 |
| \\      /  F ield         | OpenFOAM: The Open Source CFD Toolbox           |
|  \\    /   O peration     | Version:  v1612+                                |
|   \\  /    A nd           | Web:      www.OpenFOAM.com                      |
|    \\/     M anipulation  |                                                 |
\*---------------------------------------------------------------------------*/
FoamFile
{
    version     2.0;
    format      ascii;
    class       surfaceScalarField;
    location    "50";
    object      phi;
}
// * * * * * * * * * * * * * * * * * * * * * * * * * * * * * * * * * * * * * //

dimensions      [0 3 -1 0 0 0 0];

internalField   nonuniform List<scalar> 
36749
(
4.68397e-09
1.3628e-08
-9.15577e-09
-9.1563e-09
-1.8689e-09
-5.50875e-09
2.41412e-09
4.96359e-09
1.94074e-09
4.45027e-09
-3.9463e-09
-2.44457e-09
4.02147e-09
-7.02794e-09
6.23755e-09
-3.23117e-09
-2.19891e-09
6.25476e-09
-3.43252e-11
6.85817e-09
1.62158e-09
-7.10129e-09
-1.37844e-09
4.94017e-09
-2.80933e-10
5.21244e-10
-5.92765e-09
-4.12033e-10
3.21457e-09
3.45213e-09
2.71487e-09
3.11052e-09
2.9332e-09
-1.02686e-08
1.34355e-08
-6.10012e-09
5.48488e-09
1.63151e-10
-1.58892e-09
-8.15849e-09
7.56941e-09
3.03697e-09
-5.6662e-09
-9.51346e-09
2.26221e-09
-7.28654e-09
1.45378e-08
6.83767e-09
6.56048e-09
3.73282e-11
3.26728e-09
9.05531e-09
-1.03942e-08
-7.08198e-10
-4.95042e-09
2.07008e-09
1.0402e-08
-7.52151e-09
-2.83716e-10
-8.44403e-09
3.77736e-09
4.2734e-09
3.01234e-09
2.45097e-09
5.03699e-09
-2.017e-09
-4.16486e-09
7.78833e-09
2.35538e-09
1.39628e-09
5.60742e-10
-4.31239e-09
-2.88511e-10
2.5781e-09
6.57863e-11
1.89886e-09
4.11958e-09
-2.91493e-09
-3.10355e-09
3.21462e-09
-1.43283e-09
1.17038e-10
4.91891e-09
1.44735e-09
-9.07294e-09
2.70664e-09
-7.46845e-09
3.03411e-09
9.35324e-09
-3.50684e-09
4.36741e-10
6.28473e-09
2.06008e-09
1.29638e-09
-2.81502e-09
3.43192e-09
-2.32304e-09
-8.5773e-09
-4.34473e-09
-3.08619e-09
3.16692e-09
-3.69261e-10
-4.84846e-09
1.15337e-09
-8.21404e-12
-2.69991e-09
6.17072e-09
1.62036e-09
-2.63959e-09
-6.95295e-10
4.24022e-09
-9.05424e-10
2.30368e-09
-2.825e-09
-2.11836e-09
1.87519e-09
-5.14978e-09
4.97818e-09
-1.70366e-09
-2.21276e-09
3.80885e-09
2.79117e-10
-2.8186e-09
-5.05666e-10
-1.82554e-09
-6.38905e-09
-5.2721e-09
5.15123e-09
6.50984e-09
4.6383e-09
-3.51129e-09
-7.51612e-09
-1.32912e-09
-3.38562e-09
3.3752e-09
4.25064e-09
-1.21107e-09
1.29133e-10
2.63794e-09
1.42834e-10
-5.60581e-09
3.59739e-09
-3.77805e-09
1.73607e-10
-9.95382e-10
1.0064e-09
3.79784e-09
-3.33083e-11
4.01603e-09
-3.79241e-09
6.10513e-09
-2.81843e-09
-7.16089e-09
1.21279e-09
4.85897e-09
4.44112e-10
5.91987e-09
4.82572e-09
-5.81337e-10
-5.24142e-09
3.34743e-10
5.48794e-09
-4.56555e-09
7.07894e-11
3.91341e-09
-5.03297e-09
-7.40948e-10
8.75814e-09
-2.98424e-09
8.1754e-09
-3.20137e-09
-1.0007e-08
4.81843e-09
4.18158e-09
-2.58088e-09
-6.41907e-09
6.75239e-09
-2.6749e-09
2.21608e-09
-7.99379e-09
2.08092e-09
3.69661e-09
-5.18074e-09
4.50608e-09
2.8907e-09
-4.17665e-09
4.94101e-09
-1.24268e-09
-2.09757e-09
3.66927e-09
1.778e-09
3.06006e-10
3.56119e-09
-9.34343e-09
3.0239e-09
-4.02823e-09
4.30511e-09
4.96797e-10
9.13421e-09
-9.95083e-09
2.08423e-09
-1.26762e-09
-4.50804e-09
4.24927e-09
9.39295e-09
-8.65198e-09
5.69913e-10
3.57394e-09
-1.31544e-08
-5.44836e-09
-8.40511e-09
-1.9046e-09
1.4559e-08
1.54693e-09
-7.86775e-09
4.02038e-09
-6.7095e-09
3.25908e-09
1.02838e-08
-8.16806e-09
-1.01991e-08
-3.28479e-09
6.7745e-09
4.64648e-09
6.45547e-09
1.4007e-09
5.70241e-09
5.86535e-09
9.91167e-10
1.32864e-09
-7.35046e-09
5.03069e-09
-6.50046e-09
4.81672e-09
4.53318e-09
-7.41434e-09
-3.6193e-09
-1.51495e-09
2.98638e-09
3.34512e-09
-4.60981e-09
2.94084e-09
1.53927e-10
2.3345e-09
4.11699e-09
-1.92173e-09
-4.52984e-09
-6.80401e-09
-3.34637e-09
5.30292e-09
4.84743e-09
-7.92908e-10
7.16224e-10
-1.49554e-09
4.12757e-09
-4.74203e-09
2.10994e-09
2.77311e-09
3.92026e-09
-8.18887e-09
3.48282e-09
-1.9675e-09
1.25788e-09
-1.07451e-08
4.12893e-09
-3.37593e-09
9.99218e-09
1.04006e-08
-1.72255e-08
-3.91773e-09
3.20609e-09
2.60481e-09
-1.89318e-09
-4.45075e-09
1.48138e-09
-6.05666e-09
9.02604e-09
-2.33513e-09
4.86365e-10
-2.60195e-09
3.87649e-10
-1.77825e-10
1.19338e-10
1.06689e-08
7.29677e-09
3.15035e-10
9.24153e-09
-4.55404e-09
-8.29489e-09
4.93176e-09
-2.69353e-09
-3.33327e-09
1.59356e-09
-7.08649e-10
-6.93972e-09
6.05478e-09
-6.74692e-10
-6.17779e-09
8.446e-09
-1.15431e-08
2.46572e-09
1.12229e-09
7.95518e-09
-1.23967e-09
1.01958e-08
-9.63087e-09
-9.82018e-09
7.87189e-09
-1.7328e-09
-5.86266e-09
6.55753e-10
2.45667e-09
-1.19916e-10
-1.38798e-08
1.65807e-09
-1.52116e-08
1.60102e-08
5.00967e-09
-6.0613e-09
-6.81175e-10
-6.5461e-09
5.37798e-09
-5.9614e-09
1.88101e-09
-3.2674e-09
-1.15597e-08
5.00694e-09
-9.04998e-09
-8.008e-11
7.13953e-10
-6.79529e-09
-5.75837e-11
-9.84404e-09
-1.01739e-09
-8.09018e-09
-6.36474e-09
4.57616e-10
1.75044e-09
1.22253e-09
-3.43049e-09
1.15116e-09
1.60891e-09
-2.3024e-09
2.60595e-09
2.95654e-10
-1.1511e-08
2.0226e-09
4.26468e-09
5.22391e-09
-1.57021e-09
-2.14775e-09
8.23444e-09
-4.51641e-09
4.49184e-09
3.28127e-09
-6.16418e-09
-1.50147e-09
3.06278e-09
2.93059e-09
9.56338e-10
1.48151e-10
1.35543e-09
-9.58515e-09
-2.68409e-09
-8.08522e-09
1.21248e-08
3.51523e-09
-5.08289e-09
-2.36529e-09
5.30046e-09
-5.65903e-09
1.13979e-09
-5.63618e-10
1.58682e-09
-4.21427e-09
-3.03156e-09
1.77866e-10
-5.67582e-09
-2.59078e-08
-1.3598e-08
2.64825e-08
1.30233e-08
4.85893e-09
-3.08331e-09
-1.85095e-08
1.67339e-08
-5.6226e-10
-2.04867e-08
-9.24925e-10
1.42326e-08
-1.6391e-08
3.71043e-09
2.05883e-08
-2.52236e-08
2.23374e-08
-1.04246e-08
1.59263e-09
-1.35054e-08
3.46597e-09
2.94612e-08
-1.05898e-08
-9.37667e-09
-2.24949e-08
3.53375e-08
-8.65455e-09
-1.98545e-08
1.91324e-08
-4.38601e-08
-1.52614e-08
3.66266e-08
-1.02098e-08
-2.69032e-08
-6.74705e-09
-1.79622e-08
1.15758e-08
-2.26822e-09
1.94953e-08
-1.63472e-08
-3.59283e-09
-1.36701e-10
2.17183e-08
-4.72274e-09
-8.34595e-09
3.41484e-08
-4.15564e-08
8.46236e-09
-1.47149e-08
2.68673e-08
2.28165e-09
-1.4434e-08
5.5844e-09
-2.27647e-08
1.51164e-08
2.06387e-09
1.27152e-08
-9.32111e-09
-1.81089e-08
1.43476e-08
8.33383e-09
-1.70969e-08
-5.0473e-09
9.69986e-09
9.69511e-09
-1.74387e-10
3.46086e-09
8.99245e-09
7.30373e-09
-6.59617e-09
1.94612e-08
-2.10021e-08
2.01664e-08
-1.86253e-08
-1.17238e-08
2.4958e-08
6.22714e-09
1.83869e-08
-7.32877e-09
-3.20602e-08
-1.83087e-09
8.49393e-09
1.39945e-08
4.04579e-09
2.12615e-09
1.48535e-08
2.4099e-08
1.38205e-08
9.56159e-09
-3.07108e-08
4.90686e-09
1.59299e-08
-7.01614e-09
1.14284e-08
1.93531e-08
-2.12197e-08
1.97984e-08
-3.46311e-09
2.56898e-09
2.9137e-08
-1.68526e-08
1.28723e-08
-1.62417e-08
1.70808e-08
-1.37114e-08
3.2396e-08
-1.69546e-08
-3.86973e-10
9.53425e-09
6.78253e-09
1.43816e-08
1.59557e-08
-1.09842e-08
1.08906e-08
2.32894e-08
3.75988e-09
-2.26423e-08
-2.94098e-08
2.65211e-08
2.5531e-08
-4.13471e-08
1.65678e-08
2.13706e-09
2.28558e-08
3.12967e-08
-1.54151e-08
-3.87373e-08
-1.26851e-08
-5.80609e-09
1.03492e-08
-8.71157e-09
1.92604e-08
6.01891e-09
9.13133e-09
1.23823e-08
-3.69288e-08
-1.98271e-08
1.62734e-08
2.56304e-08
-1.36886e-08
-2.51945e-08
4.2778e-09
3.81981e-09
-2.90948e-09
-1.09841e-08
-1.13008e-08
2.02399e-08
-2.46737e-08
-8.67312e-09
2.95136e-08
4.78989e-09
1.54494e-08
-1.67556e-08
2.7618e-08
-1.5078e-08
-5.46444e-09
2.94396e-10
2.67457e-09
2.49548e-09
5.48862e-10
-3.15994e-09
-2.85339e-09
-4.30857e-09
-4.56486e-09
9.42221e-09
6.32514e-09
-5.16455e-09
-4.32051e-09
3.31934e-09
3.30018e-09
-1.23813e-09
9.62683e-09
-1.71948e-09
-6.66925e-09
8.94188e-09
-4.28248e-09
-5.89763e-09
1.00491e-08
1.536e-09
-1.9583e-09
-2.17735e-09
4.46682e-09
7.75959e-09
5.44919e-09
-6.49027e-09
-3.26749e-09
-1.96261e-08
4.87503e-09
1.25737e-08
8.72268e-09
-1.94069e-08
-4.66663e-09
7.11646e-09
1.88715e-10
1.67267e-09
-6.61768e-09
-2.1581e-08
1.91695e-08
-1.11857e-08
-4.58429e-09
-5.56347e-10
4.98092e-09
1.59752e-10
2.17548e-09
-3.77101e-09
-2.98873e-09
-6.17897e-09
-4.94574e-09
4.11659e-09
7.00814e-09
-6.78122e-09
4.58883e-11
-2.61502e-09
3.0896e-09
4.50638e-09
-6.91615e-11
-3.7036e-10
3.39587e-09
-3.12522e-09
-7.05187e-09
-3.69784e-10
-1.18009e-09
-3.3628e-09
4.30157e-09
-1.25891e-11
-9.26179e-10
7.95608e-10
6.4354e-10
2.67746e-09
-3.38159e-09
5.00437e-09
4.81513e-09
-6.43785e-09
-3.08447e-10
-3.015e-09
-3.94199e-11
3.2427e-09
-1.86755e-09
6.10887e-09
-7.48396e-09
-5.08672e-10
3.82122e-09
-4.00254e-09
-1.2717e-10
-3.77379e-10
-6.51883e-09
-2.69146e-09
-3.92673e-10
-4.93642e-09
4.6083e-09
-7.40845e-09
1.22958e-08
-9.49572e-09
-3.90458e-09
1.44388e-08
-5.92594e-09
6.0501e-10
4.31769e-09
3.16711e-09
-8.08985e-09
2.88064e-09
3.92948e-09
-6.2051e-09
4.84962e-09
-7.94041e-09
-8.40422e-09
2.07357e-08
-3.56455e-11
3.29027e-09
4.42571e-09
-4.54888e-09
5.88265e-09
2.88256e-10
6.16858e-09
-6.14365e-09
1.29329e-09
-4.84787e-09
3.94969e-10
-9.2137e-09
-4.71227e-09
1.3531e-08
-6.22724e-09
9.87433e-09
-3.25211e-09
-1.32022e-08
1.84273e-08
2.6569e-09
4.8766e-09
1.01945e-09
4.36923e-10
-8.20327e-09
1.46109e-09
2.32081e-09
4.42145e-09
-7.67691e-09
5.3563e-09
1.03044e-08
-4.58541e-09
-8.3472e-09
4.77687e-09
3.41829e-09
-1.36129e-08
1.56983e-08
-7.07823e-09
4.99297e-09
1.88894e-09
-1.21864e-08
-3.31537e-09
-1.82569e-10
-4.74729e-10
1.63555e-08
-1.24721e-08
1.06554e-08
-5.26148e-09
1.19256e-08
-8.82735e-09
-1.20932e-09
-2.63725e-10
1.20067e-08
-3.3849e-09
1.06271e-09
-1.01498e-08
-1.15565e-10
-1.54556e-08
-2.39509e-10
1.04202e-08
7.38714e-09
-7.98913e-09
-8.22531e-09
7.17839e-09
-9.26109e-10
-5.18947e-09
7.17187e-09
-6.24389e-09
6.25045e-09
-8.851e-09
3.18791e-11
8.55537e-09
-2.22992e-09
7.66096e-10
2.2113e-09
-1.0316e-08
6.96423e-09
8.26753e-09
-6.9823e-09
-2.06225e-10
6.83187e-09
-8.7288e-10
-1.50101e-08
9.05116e-09
5.12956e-09
-3.70416e-09
5.40647e-09
6.86768e-09
8.79285e-09
-1.65335e-08
5.59981e-09
1.68393e-09
-4.16204e-10
8.30627e-09
-7.3151e-09
7.80162e-09
6.5508e-09
7.35521e-09
6.75269e-09
6.07388e-11
-3.20339e-09
1.54817e-08
-5.72753e-09
1.05808e-08
-7.03155e-09
-1.10402e-08
1.01589e-08
2.15044e-09
-1.26936e-09
-5.0207e-10
-8.17497e-09
-2.36312e-09
1.55577e-08
-9.67959e-09
-8.03682e-09
2.15876e-09
9.57106e-09
-8.90146e-09
1.48881e-08
-1.25925e-08
-4.40851e-09
1.6499e-08
-3.29372e-09
1.87991e-08
-5.34643e-09
1.82544e-08
-1.19771e-08
-4.3231e-09
-9.95588e-09
6.10401e-09
2.10916e-08
-7.05383e-09
-2.37174e-08
3.77342e-09
8.41685e-09
1.36928e-08
-9.31967e-09
-1.69656e-08
6.84511e-09
1.06211e-08
-2.06966e-08
-5.4602e-11
-3.88136e-10
-5.20889e-09
5.65166e-09
-4.31767e-10
-4.90203e-09
5.27919e-09
5.24057e-09
-1.27499e-08
8.89381e-09
-1.38451e-09
-7.04202e-09
7.46796e-09
4.81461e-09
-7.78061e-10
-6.65209e-09
-2.24973e-11
-1.35055e-08
-4.13536e-10
-5.29091e-09
5.27272e-09
-2.00969e-10
1.13759e-08
-5.61767e-09
-5.55723e-09
-7.51625e-09
1.47832e-08
-5.60909e-09
6.9867e-09
6.59229e-09
-7.0283e-09
3.07544e-10
6.75683e-10
7.8429e-09
-6.6563e-09
-1.22186e-09
3.52417e-11
-2.47528e-09
2.23229e-09
8.08589e-09
5.00559e-09
-7.5976e-09
-4.06429e-09
3.59697e-09
-1.06668e-09
-9.28206e-10
-1.42715e-09
-6.56667e-09
8.92204e-09
-2.14181e-09
-8.55448e-09
9.76812e-09
-7.75417e-09
-1.74449e-09
8.89993e-09
5.98759e-10
-7.75682e-09
-1.24668e-09
7.78166e-09
-1.07922e-09
-7.94552e-09
2.66864e-09
7.59312e-09
-2.3878e-09
-7.87395e-09
-7.33522e-09
1.71924e-09
-2.13816e-09
-1.14845e-09
-8.32856e-09
-9.98448e-09
9.49777e-09
-7.47437e-09
2.08915e-10
-2.1137e-09
5.96261e-09
-1.23719e-09
-2.6117e-09
2.73829e-09
-1.26543e-09
-3.58654e-09
-7.81858e-10
5.12683e-09
1.61773e-09
2.0278e-09
-7.12788e-11
-2.2605e-09
6.28089e-09
-5.25768e-09
2.64481e-09
-2.94038e-09
-2.66929e-09
3.35411e-09
2.25546e-09
2.68692e-09
6.53412e-10
4.36274e-09
-1.90519e-09
4.07203e-09
-4.48527e-09
1.94299e-09
-1.52985e-09
-2.1315e-09
3.39162e-09
2.81188e-09
2.28078e-09
-4.12123e-09
1.16437e-10
3.2873e-11
2.05346e-09
5.66335e-09
-3.79131e-09
6.20818e-10
6.56195e-09
8.38563e-10
2.12871e-09
1.55533e-11
4.80297e-09
2.14635e-08
-1.49452e-08
5.39685e-09
-1.19151e-08
4.22939e-09
3.658e-09
1.35761e-08
-1.38293e-08
6.15534e-09
1.19034e-08
-1.26206e-08
3.80024e-10
-1.58874e-09
2.10763e-09
-1.29752e-08
-1.75296e-09
-1.34442e-08
6.06692e-10
1.02917e-08
-5.37157e-09
4.76767e-10
3.35167e-09
1.0598e-08
4.09321e-09
5.89216e-09
-4.43265e-09
-5.55269e-09
4.19692e-09
-4.44214e-10
3.4052e-10
7.65418e-09
2.32811e-09
-4.09015e-09
6.55612e-09
5.29499e-09
6.79458e-09
-5.6019e-09
-8.12662e-10
2.73685e-09
1.02131e-08
3.97898e-10
1.05839e-09
-5.88892e-09
1.72389e-09
5.81256e-09
-7.1385e-09
1.76533e-09
-1.34856e-08
-7.37596e-10
-1.04722e-08
-3.74767e-09
9.83618e-09
-3.23015e-12
4.63792e-09
-1.32787e-09
-9.81928e-10
7.44636e-09
6.2898e-09
-5.96899e-09
-6.39954e-10
-3.20333e-09
6.45013e-09
-4.07608e-10
-2.83924e-09
4.26794e-09
-3.16214e-09
-4.3092e-09
-2.27963e-09
6.82659e-09
1.90309e-09
2.34072e-09
-3.52495e-10
-4.21302e-09
7.17513e-09
-3.36975e-09
-1.14418e-09
1.92727e-09
-4.9962e-09
-5.33858e-09
1.03218e-09
7.68571e-09
-1.0745e-09
-5.15147e-09
1.4606e-09
7.50363e-09
-3.81275e-09
-6.92521e-10
2.79064e-09
5.07699e-09
2.23715e-09
3.89689e-09
5.24976e-09
3.22676e-09
1.05762e-08
-1.55605e-09
-7.55957e-09
-1.74591e-09
4.14604e-09
-5.94456e-11
-4.57691e-09
-6.13325e-09
1.55436e-09
-2.34855e-09
5.92925e-09
3.06474e-09
-6.64551e-09
-3.95001e-09
-1.44523e-10
-3.46072e-09
6.86825e-10
1.33502e-08
2.11925e-09
4.26395e-09
-5.3759e-09
4.70588e-09
7.17425e-09
-2.80109e-09
9.98031e-09
6.91202e-09
-4.3532e-09
1.32634e-08
-1.58223e-08
-1.08636e-09
2.27017e-08
-1.47033e-08
1.34664e-08
-9.61177e-09
7.04826e-09
-1.26442e-08
1.20144e-09
7.20683e-09
4.85515e-09
1.32498e-08
1.06533e-08
-5.41342e-09
4.23342e-09
-1.24054e-08
1.35853e-08
-8.34052e-09
1.99332e-09
9.33725e-10
9.51351e-09
6.03374e-09
7.73674e-09
-3.53732e-10
-4.97959e-09
1.36677e-08
-4.45471e-09
1.77837e-08
-7.4899e-09
2.29131e-09
-8.09366e-09
-7.97014e-09
-1.81548e-08
3.23442e-08
-6.21931e-09
-1.34476e-08
1.49634e-08
-1.33257e-08
-2.91318e-08
2.43025e-08
1.41826e-09
-5.61179e-09
3.6392e-09
-3.08476e-10
1.61357e-08
2.36489e-09
2.58503e-08
-1.13653e-08
-1.68498e-08
1.65778e-08
-6.01037e-09
-8.20245e-09
2.73092e-08
-8.7668e-09
7.30788e-09
1.98456e-08
2.40414e-08
-7.64901e-09
-7.857e-09
1.33521e-09
1.85613e-09
-8.03912e-09
8.55132e-09
-1.28175e-08
-9.11727e-09
1.33835e-08
1.85477e-09
8.0318e-09
-1.74848e-08
-6.69797e-09
3.34059e-08
-1.35959e-08
-6.82263e-09
1.02663e-08
5.10965e-10
-3.95474e-09
5.82514e-09
-4.6175e-09
-8.03027e-09
-2.56235e-09
1.0492e-08
2.33664e-09
4.0341e-09
-7.71303e-10
-8.17298e-09
1.32179e-08
-4.53395e-09
-3.0237e-09
9.87137e-09
-1.50207e-08
5.50765e-09
-1.31489e-08
7.14988e-11
3.62986e-09
6.79059e-09
4.76042e-09
8.52888e-09
8.09202e-09
-1.17134e-08
-9.93501e-09
1.35563e-08
5.94636e-09
6.90607e-09
-5.2183e-09
-7.95237e-09
7.36702e-09
5.80359e-09
1.9208e-09
-6.76165e-09
-3.77449e-10
6.32241e-09
-3.6755e-10
2.19234e-09
7.75994e-09
5.83837e-09
-7.0924e-09
-7.61671e-10
-1.35235e-09
-2.60381e-09
1.16965e-08
-2.13717e-09
-4.15e-09
-1.46837e-08
-1.3253e-08
3.20866e-08
-1.27891e-08
-8.14727e-09
1.67862e-08
9.92245e-09
1.25263e-08
-2.56724e-08
3.22392e-09
-2.59302e-08
2.30637e-08
-1.19949e-08
9.8376e-09
-1.15547e-08
-1.34473e-08
1.17489e-08
-1.8942e-08
-7.59974e-10
-1.71469e-08
3.09369e-10
-9.09251e-09
2.41151e-10
-4.30604e-08
-1.8715e-08
-6.72726e-09
-1.28131e-08
-5.81945e-09
-3.12869e-08
9.32419e-09
-2.1988e-08
2.8628e-09
9.80106e-09
-8.71407e-09
-1.8639e-08
-1.08348e-08
3.81878e-08
-1.16731e-08
-1.2149e-08
1.51079e-08
-2.23137e-08
-2.28679e-08
2.65426e-08
-2.88804e-08
-5.10639e-09
2.7425e-09
6.03879e-09
-3.16492e-08
-2.4215e-08
1.92448e-08
7.71276e-09
-7.13608e-09
-6.55994e-09
-1.05188e-08
-1.26105e-08
1.47987e-08
-5.65109e-09
1.4061e-08
-7.88497e-09
-1.39026e-08
-7.09299e-09
-8.14802e-09
1.89295e-08
-2.29305e-08
7.24313e-09
-2.10422e-08
-1.85565e-08
1.04001e-08
-8.00119e-09
3.45037e-09
1.4964e-08
-3.69707e-08
2.04028e-08
-3.81984e-08
1.28572e-08
-1.3638e-08
2.29872e-08
2.26201e-08
-3.06431e-08
3.2511e-08
8.76393e-10
1.54939e-09
-1.25255e-08
-1.49367e-08
-1.44359e-08
9.4585e-09
6.36193e-10
1.9087e-08
1.83735e-09
-8.02619e-09
-4.29549e-09
1.04841e-08
-5.86879e-09
-1.63183e-09
9.33796e-09
-1.22581e-09
6.10602e-09
2.13564e-08
2.41178e-09
9.411e-09
-2.16442e-09
2.7986e-09
1.79393e-10
1.6485e-08
5.27425e-09
-2.17431e-09
-2.95871e-09
-2.19295e-09
7.32599e-09
-8.64023e-09
1.73708e-09
4.83956e-09
2.06356e-09
-5.39449e-09
-5.42004e-09
-3.00806e-09
-1.07429e-08
8.52841e-09
5.22257e-09
-5.99344e-09
2.66239e-11
-1.93222e-09
1.16416e-08
-5.55792e-09
-4.15142e-09
-9.73163e-09
-2.58439e-09
1.57309e-09
-6.56396e-09
-9.16113e-09
-1.56823e-08
1.36718e-08
-5.73883e-10
5.0141e-09
-4.03745e-09
-1.6659e-08
1.7156e-08
-5.74167e-10
-1.15678e-08
2.71738e-09
9.01817e-09
5.42041e-09
-3.28805e-09
-8.56477e-09
1.12786e-08
-6.41535e-09
1.30116e-08
1.65065e-09
-1.22521e-08
9.97385e-09
-7.0319e-09
-7.1187e-09
-1.31784e-08
1.30104e-08
7.28661e-09
-4.46942e-11
4.44499e-09
-1.1519e-08
-6.18833e-09
-1.2238e-08
3.11357e-09
1.53127e-08
-1.90717e-08
-7.2291e-09
2.01125e-08
-9.92716e-09
3.84626e-09
6.03617e-09
-2.1039e-09
-7.62642e-09
-3.44803e-09
-8.36656e-09
-1.28091e-08
8.89581e-09
5.9745e-09
-8.18193e-09
-6.68836e-09
-2.80533e-09
1.12528e-08
4.48341e-10
-1.06886e-08
5.93475e-11
7.824e-09
-8.25273e-09
-1.23304e-08
9.89453e-09
-1.0621e-08
1.19466e-08
-2.36838e-09
-2.27811e-09
-3.12491e-09
-1.14815e-08
-1.69735e-08
5.3885e-10
-1.17638e-08
1.95026e-09
3.30388e-09
6.50956e-09
2.17189e-10
-6.00634e-09
-5.97457e-09
6.87923e-09
-2.82062e-09
-3.84145e-09
7.37231e-09
-2.83909e-09
2.34597e-09
8.68944e-09
-4.73702e-09
-9.95876e-09
3.99241e-09
6.64722e-09
4.3465e-09
6.32969e-09
4.51992e-09
-2.91673e-09
-4.42377e-09
2.01232e-09
-3.31443e-10
-3.41317e-09
6.72019e-09
-2.99195e-09
-2.27229e-09
-5.87784e-09
1.31717e-09
-3.58e-09
6.25517e-09
-2.57831e-09
8.24197e-09
-1.80889e-09
5.07964e-09
1.3803e-09
-4.65088e-09
2.50134e-09
-4.19528e-09
-1.14811e-10
-7.98585e-09
2.79683e-09
4.53989e-09
-2.61777e-11
-1.93065e-10
-2.33237e-09
4.29397e-09
2.55423e-09
-3.73372e-09
-1.3764e-11
3.1602e-09
5.87196e-10
-2.90803e-09
2.97841e-09
-3.80406e-09
-4.58376e-09
3.95436e-09
6.15487e-10
-2.88175e-09
3.61416e-09
-5.31619e-09
-1.38186e-11
-5.77596e-09
-3.40944e-09
2.424e-09
4.14564e-09
-4.22623e-10
-8.37124e-12
8.03006e-09
-1.88272e-09
-2.53325e-09
3.49746e-09
8.48691e-09
-2.41551e-09
8.33689e-09
3.23551e-09
3.13236e-09
-6.38167e-09
2.8968e-09
-8.39274e-11
-3.60429e-09
-4.19284e-09
5.38157e-09
-3.81422e-09
-1.67281e-09
4.30041e-09
-4.98231e-09
3.00435e-09
5.54141e-09
-1.05865e-08
3.63421e-09
1.41077e-09
-7.40698e-09
4.58687e-09
8.36147e-09
1.2806e-09
-9.40941e-09
-2.45771e-09
-6.02398e-09
-1.02455e-10
3.19037e-09
-7.43782e-09
7.88154e-09
-5.28923e-09
1.30664e-08
-1.0681e-08
8.76847e-09
2.00494e-09
-9.25663e-11
1.28985e-08
-5.77144e-09
-1.7808e-08
1.66657e-08
1.95335e-09
-5.72063e-09
1.79963e-08
-8.82285e-09
1.03695e-08
-6.83602e-09
-8.13262e-10
-1.05698e-09
-6.9527e-09
2.86119e-09
-1.47883e-08
6.15561e-09
-6.21961e-09
-1.23647e-09
-5.79606e-09
-1.0412e-09
-9.15449e-09
1.25868e-08
6.6267e-09
-2.36332e-09
-1.68502e-08
1.18941e-08
2.79928e-09
-2.10655e-09
-1.22694e-08
1.07442e-08
1.34192e-08
-7.79769e-09
2.15502e-09
2.46925e-09
7.07086e-09
1.16273e-08
-1.33248e-08
4.16676e-09
-5.51405e-09
9.63855e-09
-1.32523e-09
8.59755e-09
-7.04072e-09
-1.51218e-08
5.45385e-09
5.40597e-09
4.26197e-09
-7.49397e-10
-5.77481e-09
-1.08856e-09
9.77824e-09
2.05452e-09
-8.06723e-09
7.52167e-09
-5.43026e-10
7.02519e-09
-3.31632e-09
-1.24336e-09
1.20813e-08
-2.20964e-09
8.67154e-09
1.37502e-08
1.07429e-08
-1.28657e-08
1.6184e-08
1.17269e-08
-1.41606e-08
-1.736e-08
1.30381e-08
9.72782e-09
-7.36648e-09
6.26173e-09
7.71255e-09
1.80565e-08
-8.04121e-09
-8.95704e-09
1.99684e-08
-2.97008e-09
9.65859e-09
-8.8724e-09
-8.82741e-09
-4.54024e-09
1.79383e-08
-1.69665e-08
3.56829e-09
3.9505e-10
9.29417e-09
-3.06584e-11
3.05032e-09
2.21475e-09
-1.41375e-08
6.12194e-09
-1.20287e-08
8.98768e-09
-8.63337e-09
4.07468e-11
1.08731e-08
-1.48613e-09
-3.99397e-10
-4.32721e-09
1.42984e-08
9.01956e-10
-5.34062e-09
1.71775e-08
-2.54351e-11
-1.18115e-08
2.6437e-08
-2.56557e-08
2.03842e-08
2.32303e-08
4.94136e-09
-1.136e-08
5.30214e-09
-9.5411e-09
1.35331e-08
-1.85588e-08
-1.16551e-09
1.5397e-08
-1.65841e-08
-3.46079e-09
-1.16682e-08
1.46786e-08
4.081e-09
1.15488e-08
-1.72544e-09
-1.39043e-08
1.45573e-08
-7.64473e-10
-9.71176e-09
-3.11866e-10
5.50871e-09
-7.20299e-09
2.00616e-09
8.75378e-09
-1.18696e-08
2.80391e-09
-1.12838e-09
1.57315e-09
8.30901e-09
3.03798e-11
4.34996e-09
7.09702e-09
9.60003e-09
-5.14828e-09
-9.2597e-09
1.46598e-08
1.69692e-09
1.14833e-08
-6.18558e-09
-2.52132e-09
8.57771e-09
-6.82076e-09
6.7204e-09
-1.09671e-08
-1.01596e-08
2.23826e-09
7.18377e-10
2.82965e-09
-4.41148e-09
-9.82521e-09
-2.61416e-09
5.69799e-10
-2.72105e-10
-1.0634e-08
1.24792e-08
1.12698e-08
4.19562e-10
-2.08933e-09
1.41325e-08
1.1797e-08
1.05423e-08
3.17923e-09
2.1098e-09
8.46292e-09
1.59702e-08
-6.31049e-09
-6.85034e-10
-1.04914e-08
-2.75679e-09
8.53415e-09
-8.1242e-09
-1.53764e-09
2.50369e-09
5.69589e-09
-2.94702e-09
-5.25266e-09
9.92101e-09
-1.27869e-09
-6.13856e-09
-3.26488e-09
1.94195e-09
7.01881e-09
7.78872e-09
-1.13264e-09
-4.75286e-09
-1.00359e-08
1.35101e-08
-2.68525e-09
2.89906e-09
-3.16085e-09
5.56831e-09
1.3168e-09
-9.57038e-09
5.4308e-09
6.1421e-09
-6.00461e-09
7.94992e-09
3.7994e-10
8.59018e-09
-1.20262e-08
-4.79537e-09
8.61807e-09
-1.88074e-09
5.4947e-09
4.69576e-10
8.64927e-09
8.89523e-10
8.17018e-09
1.54375e-08
-1.15208e-08
-9.92399e-09
6.00715e-09
2.39724e-09
1.40636e-08
-1.02339e-09
-4.12412e-09
9.56527e-09
-6.61419e-09
1.17307e-09
-9.70784e-09
-5.93703e-09
5.70504e-09
4.50828e-09
-6.48017e-10
1.60119e-09
6.50105e-09
-5.28416e-09
2.17927e-09
-3.50923e-09
6.91779e-10
-1.56838e-08
8.39499e-09
-9.07762e-09
-1.6806e-09
-5.94844e-09
9.04977e-09
5.29355e-09
7.8331e-09
-3.4192e-09
-2.23466e-09
1.81722e-09
6.7401e-11
5.27521e-09
1.05025e-09
3.84438e-10
6.49188e-09
-5.58261e-09
-6.9142e-09
-1.48467e-08
1.15846e-08
-1.08721e-09
4.7306e-10
-5.75062e-09
-1.86078e-10
-7.69641e-09
5.99739e-09
-7.45501e-10
-7.74455e-09
2.49259e-09
-6.39872e-10
1.20152e-08
4.14969e-09
-6.42344e-09
1.52826e-09
4.39675e-09
-4.66507e-09
4.41801e-09
4.22375e-10
3.87337e-09
-4.48186e-09
-4.86917e-09
-9.9437e-10
-4.3258e-09
8.08268e-09
-3.61009e-12
4.46817e-09
-4.04223e-09
5.26856e-09
-4.79912e-09
1.71283e-09
-5.96605e-09
-2.17027e-09
-2.92738e-09
-2.49011e-11
-6.96185e-09
-5.52731e-09
5.20319e-10
-1.82382e-09
1.56504e-09
-2.83077e-10
-9.48134e-09
9.59774e-09
-1.96094e-09
1.84448e-09
2.10722e-10
-4.01715e-09
-5.67508e-09
1.17666e-08
-4.38384e-09
-7.17221e-09
3.18032e-09
1.00721e-08
-1.48579e-09
2.42171e-09
1.03563e-08
6.66428e-09
-3.77712e-09
-6.90431e-09
4.77986e-09
-7.66233e-11
-6.91554e-09
-1.18261e-08
1.43578e-08
-6.45735e-09
-1.73174e-10
9.05222e-09
-2.37762e-09
7.00144e-10
7.47779e-09
-2.24794e-09
-2.65517e-09
-2.57462e-09
4.68469e-09
4.15415e-10
8.81675e-09
-1.66377e-09
-1.40686e-08
-1.88747e-09
-4.13756e-09
-6.44745e-09
6.33517e-09
4.79696e-09
-4.31907e-09
-4.78353e-09
8.19917e-09
-8.0617e-09
8.67915e-09
3.22151e-09
-6.77276e-09
-2.811e-09
8.97298e-09
-1.42029e-08
1.5069e-08
-3.67708e-09
-1.49678e-09
-4.50694e-09
-2.59434e-09
-1.05018e-08
2.53e-09
3.8805e-09
4.09146e-09
-1.41475e-09
7.05037e-10
-9.79192e-09
-4.13806e-10
-7.44836e-09
6.44751e-09
-6.40992e-09
4.6356e-09
4.30432e-09
-1.34674e-10
-5.57019e-09
4.48597e-10
3.83014e-09
-4.3395e-10
-3.84473e-09
4.16708e-09
-3.85316e-09
1.91706e-09
-6.6738e-10
3.19535e-09
-4.44497e-09
-8.76288e-11
6.64034e-09
-1.52284e-09
1.81182e-09
-4.50667e-09
4.21778e-09
-4.8538e-09
2.66364e-09
-2.77896e-09
4.49681e-09
2.44926e-09
1.25591e-09
-2.0471e-10
4.115e-09
-4.96273e-09
6.22104e-09
3.12674e-09
-3.86552e-09
-1.24003e-10
-1.47072e-08
-4.42715e-10
1.49623e-08
1.87604e-10
6.03322e-09
-1.12165e-08
-9.52386e-09
1.55745e-08
-2.9143e-09
-6.62709e-09
-2.51626e-10
1.53835e-08
9.14018e-09
-4.73958e-10
-1.70576e-08
8.39145e-09
4.85404e-09
-5.80825e-09
1.00944e-08
-1.49e-08
1.09441e-10
1.45388e-08
-8.42642e-09
-9.38791e-09
-2.14305e-10
-8.65541e-09
8.85005e-09
1.96764e-11
4.158e-10
-1.36398e-08
1.33333e-08
-9.87187e-09
1.00733e-08
-2.93817e-09
-8.6321e-10
3.136e-10
-4.7104e-09
-9.24305e-09
-6.53541e-09
-3.02287e-09
-6.98313e-09
-2.49045e-09
-1.39505e-08
6.49343e-09
-4.86807e-09
-9.49927e-09
8.40575e-09
5.96162e-09
-6.82659e-09
2.17786e-09
-2.19311e-10
-1.00267e-08
-4.15222e-10
9.42783e-10
-8.12593e-09
-8.72735e-09
6.93203e-09
-5.18325e-09
4.29114e-10
-9.64619e-10
3.69111e-09
2.61964e-09
3.34775e-09
3.51214e-09
-7.65523e-11
-1.15616e-08
1.17795e-09
-5.56436e-09
-7.96797e-10
1.21175e-09
-5.98822e-09
-6.56561e-09
-9.3768e-09
-6.56613e-09
-7.8915e-09
-3.07368e-10
1.28751e-08
3.08961e-09
-1.24527e-08
1.1936e-08
5.2388e-10
-1.86037e-08
-1.43284e-10
9.39357e-09
9.35331e-09
-1.89189e-09
-1.36222e-08
1.30073e-08
-1.15536e-08
-9.34516e-09
6.29783e-09
2.31756e-09
-7.95849e-09
-1.1128e-08
-8.30672e-09
3.82742e-09
3.83127e-09
-4.77626e-09
-2.35739e-09
2.92505e-09
-3.11921e-09
4.02162e-09
-4.79244e-10
4.45455e-09
1.56913e-09
-4.40848e-09
-1.9369e-09
-1.52237e-09
-2.76578e-11
3.93873e-09
3.30145e-10
-7.77805e-09
1.51306e-09
-1.98276e-09
-6.03374e-09
1.21755e-09
4.8836e-09
2.19415e-09
2.37602e-09
-4.23996e-09
3.91662e-09
-2.09339e-10
-7.28105e-09
-2.04813e-09
3.29553e-09
-4.27583e-09
-5.23986e-09
-2.99472e-09
3.73306e-09
2.13088e-09
2.63448e-10
4.06648e-09
-5.96624e-09
1.61145e-09
4.06978e-10
7.47641e-10
4.15673e-09
-8.74833e-09
1.29081e-08
-8.31651e-09
1.76386e-08
-9.17926e-09
-4.30266e-09
1.46155e-08
1.31411e-08
-1.0118e-08
-8.55361e-09
1.43972e-08
8.77173e-09
-5.14714e-09
6.48077e-09
3.08991e-09
1.2645e-09
-1.26162e-09
-1.78397e-09
1.74429e-08
1.43779e-08
-2.49855e-09
1.14423e-08
4.91263e-09
3.12266e-09
-8.59598e-10
-1.25224e-08
1.29226e-08
2.68959e-09
-7.67386e-10
-2.6081e-09
1.37468e-08
2.32805e-08
1.13721e-08
6.84531e-09
1.95578e-08
-2.43772e-08
1.97489e-08
2.02029e-09
2.00158e-08
9.79851e-09
-1.41599e-08
6.62102e-09
1.90718e-09
-8.1206e-10
5.75594e-09
-3.94205e-09
8.31368e-09
1.10585e-09
-1.4991e-09
1.46728e-08
7.18436e-09
4.78709e-10
-2.48623e-09
9.30076e-09
5.96265e-09
-2.64186e-09
-4.72671e-09
1.09108e-08
-3.54221e-09
-8.29406e-09
1.48282e-08
-9.17595e-09
9.72433e-09
-3.55495e-09
-1.71826e-09
-4.45101e-09
3.03312e-09
1.41459e-09
5.27676e-09
-4.39014e-09
3.38032e-09
4.04299e-09
4.8281e-09
-3.86816e-09
-4.5148e-09
5.92838e-10
-1.54831e-10
-4.80757e-09
-4.81585e-09
4.2709e-09
5.35252e-09
-4.1279e-09
-8.68406e-11
5.73072e-09
-6.43677e-09
-3.42184e-09
-1.47586e-09
2.39072e-09
2.02003e-09
-2.30116e-09
-8.01287e-09
6.41783e-10
-3.34847e-09
4.4134e-09
5.02147e-09
-1.02128e-08
4.32142e-09
7.30607e-09
-5.0278e-09
-6.90329e-09
-4.34687e-10
8.0859e-09
-1.89332e-09
-3.90163e-09
9.63421e-09
-5.74745e-09
-7.08196e-10
-5.05323e-09
-8.03717e-09
-1.29399e-08
1.08753e-08
1.20803e-08
-1.00157e-08
-1.95189e-09
-1.55246e-08
4.53676e-09
1.00524e-09
-1.4169e-08
1.1212e-08
2.60434e-09
1.02098e-08
-1.18088e-08
-1.08284e-09
1.37867e-08
-1.03658e-08
-2.33805e-09
1.33405e-08
-1.1819e-08
1.18731e-09
7.06264e-09
5.53652e-09
-1.19372e-08
6.69698e-09
6.42734e-09
5.47493e-09
3.46954e-09
1.26534e-09
2.9563e-09
-1.55293e-09
-3.3464e-09
-4.22142e-09
1.46304e-08
-6.64215e-09
9.99275e-09
1.40062e-08
-7.35238e-09
1.78906e-09
-5.93595e-09
-2.05143e-10
-9.12875e-09
1.52699e-08
-3.31998e-09
-1.78804e-08
1.52645e-08
-2.56115e-09
6.18443e-09
-3.82837e-09
6.34563e-09
-8.06553e-09
3.57605e-09
4.2897e-10
6.22561e-09
-9.21564e-09
7.27313e-09
-1.01641e-08
-3.31735e-09
5.07758e-09
3.91798e-09
-5.79907e-09
-4.63645e-09
3.81975e-09
3.6502e-09
-2.06104e-09
-7.62322e-09
-2.43008e-10
-5.50404e-11
4.77458e-10
3.17507e-09
5.30556e-09
-8.95803e-09
3.8312e-09
2.27062e-09
-5.62434e-09
-3.12895e-09
-1.91888e-09
1.01027e-08
-5.05492e-09
6.40473e-09
-6.35865e-09
4.10518e-09
3.46135e-09
-3.73533e-09
-6.52968e-10
4.65643e-09
1.01761e-10
4.82825e-09
-4.47651e-09
-3.90587e-09
3.19983e-09
5.30782e-11
4.94129e-09
-3.5416e-09
-4.72595e-09
-1.63313e-09
2.10576e-09
4.25326e-09
-1.66659e-09
1.40465e-10
-4.5157e-09
1.74402e-10
2.708e-09
-1.24096e-09
2.74349e-09
3.83556e-09
2.49789e-09
1.03484e-08
3.46306e-09
1.98887e-10
-2.00587e-10
4.11225e-09
4.00726e-09
5.42855e-09
-4.01395e-10
-4.03408e-10
8.32984e-09
5.81461e-09
-4.57959e-09
-1.01486e-09
-6.23169e-09
-3.40834e-09
-6.64679e-09
5.47551e-09
-4.21847e-09
-7.41488e-09
1.06184e-08
-1.13141e-08
3.68728e-09
8.21038e-09
-1.28218e-08
-2.03538e-09
-7.90693e-09
9.88554e-09
1.96619e-09
7.66388e-09
-1.71966e-09
-7.91046e-09
-9.34998e-09
2.10525e-12
6.86854e-09
8.80071e-09
2.26908e-09
3.31157e-09
-5.79301e-09
1.12644e-08
8.47876e-10
-1.3088e-08
8.10241e-09
1.22459e-10
4.86288e-09
2.13538e-08
-2.31774e-08
2.20413e-08
-8.43274e-09
3.27477e-09
-1.22523e-08
4.46774e-09
-9.60483e-09
-1.10802e-08
4.53836e-11
-7.21143e-09
1.86049e-09
5.3056e-09
-9.55952e-09
2.47047e-09
7.13438e-09
-3.07088e-09
-3.57291e-09
-2.91597e-09
-1.07877e-08
5.74347e-09
7.97261e-09
-2.92837e-09
6.3241e-09
-1.32219e-08
-3.88995e-09
4.40483e-09
-5.19214e-09
-2.28371e-09
-6.33294e-09
3.52637e-09
-2.98279e-09
6.96235e-09
-2.11891e-09
-1.64334e-08
-1.38e-08
1.12986e-08
1.8935e-08
1.1018e-09
-1.17917e-08
-4.03705e-09
-8.66112e-09
-4.65874e-09
9.05844e-09
5.42686e-09
4.21672e-09
-1.25719e-08
-7.68737e-09
-3.9523e-10
1.74967e-09
-7.45264e-09
9.29165e-09
-1.75778e-09
3.76496e-09
-5.45894e-09
1.17678e-08
6.78183e-09
-6.60215e-09
9.2764e-10
3.50115e-09
9.03982e-09
-2.25354e-09
-1.02874e-08
5.03906e-09
-3.61295e-09
2.07506e-09
-4.81446e-09
2.80109e-10
9.5734e-09
8.73385e-09
-4.5085e-09
1.88039e-09
-1.21522e-09
-4.27806e-09
-7.05914e-09
-7.059e-09
3.12803e-09
1.09903e-08
4.47593e-09
-1.33486e-08
1.81366e-09
-3.85802e-09
-3.43194e-09
7.57004e-09
-4.11445e-09
-1.81573e-09
2.07215e-09
-1.16008e-09
-1.07396e-09
-3.6816e-09
-4.96253e-09
5.21221e-09
-6.4702e-09
9.72867e-10
6.47284e-09
4.42299e-09
-6.41988e-09
4.14303e-09
-2.6327e-09
-3.20728e-09
7.45231e-09
-3.46358e-10
-1.23137e-08
5.20773e-09
3.7359e-10
1.28798e-08