/*--------------------------------*- C++ -*----------------------------------*\
| =========                 |                                                 |
| \\      /  F ield         | OpenFOAM: The Open Source CFD Toolbox           |
|  \\    /   O peration     | Version:  v1612+                                |
|   \\  /    A nd           | Web:      www.OpenFOAM.com                      |
|    \\/     M anipulation  |                                                 |
\*---------------------------------------------------------------------------*/
FoamFile
{
    version     2.0;
    format      ascii;
    class       surfaceScalarField;
    location    "100";
    object      phi;
}
// * * * * * * * * * * * * * * * * * * * * * * * * * * * * * * * * * * * * * //

dimensions      [0 3 -1 0 0 0 0];

internalField   nonuniform List<scalar> 
36920
(
-2.24917e-10
-6.63139e-09
8.14135e-09
-1.28504e-09
-1.74297e-08
1.86756e-08
5.38599e-10
-1.78446e-09
-3.71468e-09
1.34616e-08
-2.22123e-08
1.24655e-08
1.92004e-10
9.60943e-09
-1.92581e-08
9.45669e-09
5.78563e-09
-1.09077e-08
5.31409e-09
-8.44108e-09
9.61968e-09
-1.86082e-08
4.03201e-09
1.07624e-08
-2.32355e-08
-1.75488e-09
-6.66919e-09
1.42097e-08
-1.47728e-08
2.26274e-08
-9.20315e-09
1.31059e-08
-1.50322e-09
-1.72163e-08
-8.41278e-10
-6.01162e-09
-4.05474e-09
2.94013e-09
-2.52358e-09
1.195e-08
-2.5785e-09
-6.43135e-09
1.54489e-08
-1.0168e-08
-1.76677e-08
1.02021e-08
1.14976e-08
1.13586e-09
-4.54608e-09
-5.52079e-09
8.93106e-09
-3.44405e-09
6.81377e-09
-2.23383e-09
1.49109e-09
2.98986e-09
-1.1686e-08
7.20506e-09
-1.36771e-08
1.0622e-08
1.46947e-09
-4.14765e-09
-2.84258e-09
-1.88923e-09
-8.53359e-11
5.69912e-09
3.67892e-09
-6.3882e-09
7.33245e-09
-1.39644e-08
-5.05407e-09
-7.847e-10
-5.55992e-09
-3.40258e-09
2.19112e-09
-6.77757e-10
1.71184e-09
2.40695e-09
-3.05243e-09
-1.06635e-09
-2.08812e-09
3.9737e-10
-2.52541e-09
-1.3197e-08
1.0094e-08
-3.28039e-09
6.38346e-09
-3.26918e-09
-5.05826e-09
-4.86946e-09
1.00329e-09
-4.94006e-10
9.58462e-09
-9.90781e-09
2.2206e-09
8.69046e-09
9.64447e-09
-5.1411e-09
-7.77254e-09
-5.90262e-09
-1.16402e-08
1.24846e-08
9.12022e-09
-1.58534e-08
9.90274e-12
6.72334e-09
-1.51631e-08
1.64268e-08
7.85645e-09
-2.82596e-09
2.56255e-09
1.18345e-08
-1.62924e-08
1.63186e-09
-3.0263e-08
2.62441e-08
-2.69203e-08
-1.1109e-08
7.76618e-09
-1.80863e-08
-2.51264e-08
6.6388e-09
-1.76826e-08
-1.55711e-08
-3.02651e-09
7.4885e-09
-2.70187e-08
4.29264e-09
2.46113e-09
-1.00341e-08
1.85907e-09
-8.17281e-09
5.31769e-09
9.96043e-10
-2.58116e-09
4.90318e-10
-4.08463e-09
6.17546e-09
-6.08072e-09
5.35863e-09
-5.6276e-09
9.65943e-09
-3.54151e-09
-1.67245e-09
-2.69302e-09
-7.13265e-09
1.14981e-08
-2.92739e-09
-6.91785e-09
7.7572e-09
-2.64629e-09
-7.80391e-09
-2.99466e-09
5.12427e-09
2.8733e-09
-4.95165e-09
-4.00239e-09
-1.484e-09
2.72683e-10
4.55651e-09
5.71809e-11
-7.25998e-09
7.78725e-11
-7.82186e-09
3.68821e-09
4.5979e-09
-7.88569e-09
-4.00801e-10
6.07091e-09
-4.71873e-09
2.33588e-09
-1.71653e-09
5.87792e-09
4.36419e-10
4.53259e-09
-1.81697e-09
-4.43221e-09
5.04134e-09
2.13341e-09
-9.58479e-10
-6.21639e-09
7.3711e-09
7.20622e-09
-4.5231e-09
-1.00543e-08
8.41469e-09
3.99767e-09
6.56715e-09
-7.22189e-09
-1.15899e-09
1.81357e-09
-1.0888e-10
-2.94849e-09
9.62441e-09
2.35145e-09
-3.69551e-09
-3.22742e-09
6.92293e-09
-1.34415e-09
6.63603e-09
2.99206e-11
2.15911e-09
7.82785e-10
4.26404e-09
2.84937e-09
7.72438e-09
-5.10464e-09
7.84507e-09
3.7238e-10
6.09214e-09
-3.24871e-09
-2.72241e-09
6.69678e-09
4.15243e-09
-1.1569e-08
-3.95063e-09
-7.8761e-09
2.33959e-08
-1.26522e-08
-2.52169e-08
2.63001e-08
4.03104e-09
1.11357e-08
4.91668e-09
-2.00833e-08
6.69212e-09
-1.53133e-08
-1.47947e-08
-1.37243e-10
-1.23787e-09
-1.53767e-08
-1.31343e-08
-6.79458e-09
2.51959e-09
1.21786e-08
-9.78152e-09
-6.16501e-09
-1.8887e-08
8.64694e-10
5.06537e-10
-5.51245e-09
4.14119e-09
-8.60454e-09
3.88841e-09
2.48818e-09
2.22799e-09
1.65637e-09
-9.39624e-09
-4.40528e-09
3.05178e-09
5.24183e-09
3.78513e-10
-3.12745e-09
7.71244e-10
3.6303e-09
-1.32983e-09
-3.07178e-09
3.47898e-09
-2.32939e-09
-3.6661e-09
3.59621e-09
3.54865e-09
-1.45662e-11
-2.12975e-11
-8.69707e-10
-3.43328e-10
4.26449e-09
9.21976e-11
2.63396e-09
-1.10228e-09
-4.42385e-09
5.18258e-09
-4.77468e-09
3.76457e-09
-3.34229e-09
-3.96309e-09
2.53063e-09
-3.31983e-09
-3.70586e-11
3.30629e-09
-4.12959e-09
-2.76138e-09
1.43971e-10
-1.34575e-09
-2.77494e-09
-1.1787e-09
-3.10113e-09
-1.0302e-08
1.46681e-09
1.53822e-08
-6.54697e-09
-9.2698e-10
1.2428e-08
-2.18031e-08
3.33316e-10
-1.19588e-08
6.15377e-09
5.47173e-09
-1.16451e-08
6.15985e-09
5.8186e-09
8.20237e-09
-1.85826e-08
9.45331e-09
1.28746e-08
-3.20539e-09
1.10538e-08
-1.52386e-08
-7.77399e-09
-1.03125e-08
9.72119e-09
-2.48781e-09
-3.22808e-10
4.09987e-09
1.17538e-08
-9.69987e-09
-6.17592e-09
1.64357e-08
-5.54799e-09
3.6029e-09
-1.31615e-08
1.51066e-08
1.95783e-09
3.1118e-09
-7.07182e-09
8.00195e-09
-7.10604e-09
8.51042e-09
-1.18385e-09
3.39643e-09
9.11696e-09
-2.40763e-09
-1.9749e-08
3.12738e-09
-1.89489e-08
8.05056e-09
-2.24617e-08
8.34024e-09
-2.42049e-08
-1.99823e-08
-4.90794e-10
4.04855e-09
-1.29381e-08
9.38028e-09
-8.50825e-09
2.21441e-09
5.80299e-09
9.35845e-10
8.03014e-09
-6.26663e-09
-2.69935e-09
-6.12836e-09
-1.44399e-09
-8.06569e-09
1.08597e-08
1.25438e-09
9.47662e-09
1.54191e-09
-7.43165e-09
-3.58697e-09
-4.61626e-09
6.02713e-09
-3.36602e-09
3.02335e-09
-2.59327e-09
7.75868e-09
-8.50549e-10
-3.88481e-09
2.57589e-09
-9.45612e-10
4.50564e-09
-5.79951e-09
-6.13784e-09
-2.95906e-10
1.85192e-10
1.23159e-09
6.25086e-09
-2.58827e-09
-4.51326e-09
6.54268e-09
1.20602e-09
-1.49807e-09
6.1542e-09
2.96432e-09
5.26221e-09
-6.61894e-09
-4.34652e-09
2.60109e-10
3.79039e-09
1.24386e-09
7.12464e-09
5.97992e-09
-4.68341e-09
-9.05992e-11
8.53265e-09
4.11621e-10
-5.82416e-10
7.29344e-09
5.78047e-09
8.84305e-09
-2.1917e-08
1.45749e-08
1.37759e-08
-2.10574e-08
4.90562e-09
-1.02041e-09
1.02568e-08
-1.41419e-08
3.25681e-09
1.97538e-08
-1.81049e-08
-6.14037e-09
-5.17447e-09
1.53378e-08
-4.02303e-09
2.22337e-08
-1.37992e-08
6.51381e-10
5.42569e-09
1.61565e-08
9.35722e-09
-8.75123e-09
1.03051e-08
3.48485e-09
-4.94689e-09
2.51209e-09
-7.56539e-09
4.0333e-09
-1.04765e-08
1.62454e-08
1.18346e-08
4.15456e-09
1.15882e-09
1.05252e-08
-1.37892e-09
-7.50076e-10
1.56849e-08
1.17619e-08
1.41976e-08
-1.66023e-08
1.72672e-08
-2.0204e-09
-8.36643e-09
9.72459e-09
3.0686e-09
8.13891e-09
6.05973e-09
8.89977e-09
1.10988e-08
-5.17758e-09
5.89012e-09
-4.87312e-09
4.16057e-09
-5.96319e-10
-4.79067e-09
2.09415e-10
-5.43541e-09
2.10704e-09
-3.14026e-09
6.46862e-09
-6.18926e-09
1.57525e-10
2.43056e-09
6.69615e-09
-6.84436e-09
-2.28236e-09
-4.14588e-09
3.87175e-10
-1.06775e-09
9.06489e-09
-6.59763e-09
1.24732e-09
4.77188e-10
-6.97944e-09
-4.40886e-09
-8.59325e-10
4.41522e-09
1.24013e-09
-1.34888e-09
-6.73557e-09
2.27279e-10
-3.13303e-09
-1.11318e-08
7.03128e-09
3.24121e-09
-8.64264e-09
-1.50345e-08
1.25454e-08
-8.25856e-09
1.13325e-08
-4.14172e-09
-7.74702e-09
7.35777e-10
1.19062e-09
-1.11821e-08
-8.87795e-09
-4.05943e-09
5.19035e-09
-1.6156e-09
-5.13656e-09
-9.30292e-09
3.37918e-09
-6.53197e-09
-2.73695e-09
5.88968e-09
5.58996e-09
-6.60451e-10
-1.55043e-09
2.10117e-09
1.4056e-09
-2.78966e-09
-7.1719e-10
-1.32093e-10
1.03858e-09
1.05243e-09
-3.54075e-09
3.48852e-09
-1.00036e-09
-2.10693e-09
3.09412e-09
6.5185e-11
2.85402e-09
-1.41332e-09
7.21059e-10
3.3477e-09
-1.8688e-09
-2.20004e-09
2.54206e-09
-4.15418e-10
1.01099e-09
-1.20409e-09
-1.39439e-09
2.98448e-10
1.02479e-09
-1.29956e-09
3.12872e-09
-8.69244e-10
1.67847e-09
2.15518e-10
2.78367e-10
-7.3147e-09
-9.2937e-10
1.1648e-08
-3.4039e-09
1.10534e-08
-5.61708e-09
-1.2751e-08
4.93154e-09
-1.825e-09
3.63337e-09
-6.73992e-09
6.25037e-09
-2.24821e-09
-3.49337e-10
3.94073e-09
7.46194e-09
3.916e-09
7.3826e-09
4.22013e-09
-1.16622e-08
-2.04594e-09
4.69023e-09
3.60607e-09
1.6609e-09
-7.34676e-11
-3.03818e-09
2.16501e-09
4.81388e-09
-6.13341e-09
-2.29236e-09
5.38759e-09
1.43056e-09
7.17567e-09
2.33798e-09
-4.25127e-09
-2.62039e-09
5.52132e-09
-1.47038e-09
-3.66471e-09
1.17595e-09
-1.31617e-10
3.34178e-10
2.03046e-08
-2.7739e-08
-9.07102e-09
1.65055e-08
-8.62127e-09
2.69151e-09
2.62343e-08
1.51663e-08
7.70392e-09
-2.2242e-08
-6.28195e-10
-2.96076e-08
1.70348e-08
4.55438e-09
1.76919e-08
-2.86063e-08
1.84342e-09
-6.17262e-09
2.6556e-08
-1.73997e-08
-6.5231e-11
-1.21427e-08
-1.47447e-08
-2.4897e-08
-1.22684e-08
-2.26383e-08
2.87341e-08
-2.22541e-08
1.58043e-08
-1.732e-08
-1.13515e-08
-4.82813e-10
-9.37309e-09
-1.27824e-08
-1.30157e-08
7.34644e-09
-2.98651e-08
-1.93466e-08
9.54933e-09
5.95959e-09
-3.89796e-09
-1.1611e-08
2.53437e-09
-1.34612e-10
7.14957e-09
9.04317e-09
3.38633e-09
-6.46991e-09
2.99971e-09
2.07712e-09
3.96633e-09
4.93018e-09
8.73044e-10
-2.41693e-09
5.75562e-09
2.17426e-09
-8.21894e-09
7.3066e-09
3.44671e-09
3.16349e-09
-1.52804e-08
-4.40039e-09
9.27084e-09
-3.99741e-09
7.30035e-09
-8.53724e-09
-3.03656e-09
-8.72015e-09
2.17905e-09
9.57772e-09
-5.59186e-09
-1.14556e-09
3.70097e-09
-7.00542e-09
6.2778e-09
3.02211e-09
-2.90773e-11
6.29323e-09
5.74019e-09
2.0068e-09
4.14802e-09
-2.2592e-09
7.74699e-10
7.77773e-09
2.7697e-09
1.0145e-08
-7.19127e-09
-2.02673e-09
-1.37222e-08
1.26778e-08
3.07104e-09
8.64328e-09
-9.88918e-09
-7.809e-10
-2.72451e-09
6.7729e-09
-3.55403e-09
-4.94377e-10
1.00128e-08
-4.09403e-09
-6.09816e-09
5.44152e-09
7.42944e-09
5.01132e-10
3.41329e-09
-2.30654e-09
-8.32971e-10
-8.05586e-09
1.11952e-08
-1.228e-09
-8.80094e-09
7.72235e-09
9.87165e-10
-7.05294e-09
4.83774e-09
-5.43037e-09
5.58453e-09
-2.18828e-09
2.60197e-09
-1.4136e-08
1.42243e-09
-1.34999e-08
6.92849e-09
2.05339e-09
-7.55949e-09
4.41365e-09
-1.03923e-09
8.07007e-09
5.10868e-09
3.92054e-09
-9.34078e-09
-3.38075e-09
3.9347e-09
1.2163e-09
-6.99929e-09
-1.26998e-09
1.22739e-09
-6.63116e-09
4.0455e-09
3.79157e-10
-4.95696e-09
-6.35966e-09
1.89608e-09
-5.32102e-09
-4.9434e-09
8.36836e-09
4.49057e-09
5.32037e-09
-4.01617e-09
-5.79471e-09
-3.82834e-10
-1.60921e-09
3.88826e-09
-1.34308e-09
-2.14271e-09
3.10308e-09
-2.83181e-09
-1.20406e-10
-2.01232e-09
1.18187e-09
1.41405e-09
2.2962e-09
-3.56815e-09
-1.42012e-10
-1.58997e-09
1.7223e-10
3.1621e-09
-7.34733e-10
-4.43967e-09
-1.28568e-09
3.58716e-09
1.88609e-09
-4.18753e-09
-2.84032e-09
-3.52957e-11
4.60655e-09
-1.23922e-08
1.19221e-08
6.53012e-09
-6.06009e-09
-2.37936e-08
1.72285e-09
9.67854e-09
8.04917e-09
9.09436e-09
-5.22145e-09
1.15128e-08
-4.62963e-09
-6.04902e-09
-8.34199e-10
6.78141e-09
-1.24973e-09
5.98114e-09
3.97378e-09
1.1203e-08
-8.3954e-09
1.00199e-08
1.12504e-09
-4.61482e-09
-3.10987e-09
1.51328e-08
-5.95432e-09
1.28644e-08
4.07199e-09
-1.1276e-08
1.18707e-08
-6.06805e-09
7.06172e-09
-1.98792e-09
1.2494e-08
1.3647e-09
8.05891e-09
4.52154e-09
2.64039e-09
-1.52208e-08
1.01911e-08
-6.15527e-09
6.72805e-09
-1.60057e-08
8.16086e-09
-1.15885e-08
6.20081e-09
-2.7878e-11
5.65774e-09
1.715e-08
-1.73821e-08
-1.17172e-08
1.23883e-08
1.18229e-08
5.79399e-09
4.31383e-09
-2.18251e-08
2.95545e-09
1.06942e-08
-3.45859e-09
9.3346e-09
-1.78359e-10
-3.16351e-10
1.83624e-08
4.2109e-09
1.06379e-08
1.32292e-08
-5.3286e-09
5.23192e-10
4.98685e-09
2.97021e-09
-8.93503e-09
9.77855e-10
6.85954e-09
-1.70529e-09
-1.67474e-10
-4.30082e-09
4.94054e-09
-1.98411e-09
1.16586e-08
-1.29892e-08
-9.78157e-09
8.74878e-09
5.97323e-09
7.18552e-09
-5.30857e-09
2.10626e-09
-6.86864e-10
-6.7481e-09
-6.06173e-09
1.09257e-08
-1.48162e-09
2.60536e-09
-3.95748e-09
1.42042e-09
-2.49566e-09
-1.87954e-09
1.86673e-09
2.50849e-09
-3.77278e-09
1.50913e-09
-2.32037e-10
1.75196e-09
4.20249e-09
-4.0408e-09
-1.91362e-09
-2.09614e-09
7.5318e-11
7.11628e-12
2.31583e-09
3.85627e-09
-3.75483e-09
1.4077e-09
-2.65606e-10
5.98862e-09
-1.18188e-08
3.89399e-09
5.91782e-09
2.00693e-09
-2.98316e-09
1.6621e-09
-1.04977e-08
3.61661e-09
4.65396e-10
-2.52608e-09
-1.556e-09
1.76857e-09
-1.90679e-09
8.41653e-10
-6.1199e-09
1.23744e-09
-2.65977e-09
-5.09152e-09
7.4857e-09
-5.59252e-09
2.93986e-09
6.21827e-09
-8.35978e-09
4.51976e-09
5.68982e-09
-3.56234e-09
6.51612e-09
8.02335e-09
-1.37164e-09
-5.37259e-09
-1.27915e-09
9.39327e-11
-5.48775e-10
8.47817e-09
-7.947e-09
1.28945e-08
-7.72874e-09
2.78128e-09
1.15635e-08
-1.26382e-08
-6.87229e-09
8.12671e-09
-7.3017e-09
-2.19665e-09
-3.37058e-10
8.55773e-09
-7.5078e-09
-3.45731e-10
7.30474e-09
-5.91835e-09
-6.96204e-09
6.92019e-10
-1.77701e-10
1.10492e-08
1.32494e-08
3.02936e-09
-1.08911e-09
-1.45784e-08
1.54833e-09
-6.24769e-09
-4.95545e-09
-7.97906e-10
-1.09385e-09
-8.02736e-09
1.89485e-09
7.22635e-09
-1.18222e-08
9.6392e-09
7.04308e-11
8.83718e-09
-9.0853e-09
7.52235e-09
-7.79766e-09
9.01304e-09
-5.97222e-09
1.65904e-09
-4.69992e-09
-3.54286e-09
7.1026e-09
5.45326e-09
8.30243e-09
-3.61295e-09
-1.06617e-08
3.44858e-09
1.31096e-09
4.57563e-09
2.58528e-09
-1.07739e-08
-4.49211e-10
6.86598e-09
-1.84117e-09
6.98985e-09
7.04037e-09
-1.1445e-08
1.01026e-08
-3.56205e-09
7.84747e-09
-4.09507e-09
-2.09344e-09
1.90581e-09
1.30442e-08
-3.82361e-09
4.14904e-09
3.12312e-09
3.9626e-09
-9.20247e-10
-3.55311e-12
2.94878e-09
5.81163e-09
4.28745e-09
-4.28187e-09
1.03367e-08
5.49235e-09
-1.16665e-08
1.18157e-08
4.05157e-12
-1.53175e-10
6.21796e-10
-9.23667e-09
-3.05164e-09
5.032e-09
8.77974e-09
-1.99601e-09
-1.03714e-09
1.49619e-08
-8.89275e-09
-6.10419e-09
8.85022e-09
-3.78313e-09
4.45303e-09
-8.6415e-09
-5.15949e-09
9.34802e-09
-4.48472e-09
3.77253e-10
8.56055e-09
1.86513e-09
-3.61426e-09
-1.24386e-08
1.41877e-08
2.07455e-09
5.54103e-09
-2.36804e-09
-5.24745e-09
5.6536e-09
1.32698e-09
-4.90599e-09
9.91027e-09
1.28439e-09
-1.28818e-08
5.4486e-09
4.0647e-09
3.36855e-09
-9.68969e-09
-5.32951e-09
4.67395e-09
9.60393e-11
-6.98936e-09
-1.03033e-09
1.99278e-10
-1.30502e-08
-9.1581e-09
6.43173e-09
-1.10438e-08
8.79819e-09
-4.18613e-09
-7.25245e-10
1.40598e-08
-6.90291e-09
-2.43473e-10
-3.51274e-09
-4.95552e-09
8.71167e-09
-4.61355e-09
1.91958e-09
1.19047e-09
1.50337e-09
-4.89842e-09
6.91063e-09
-6.6258e-09
-4.23972e-09
7.89338e-09
-4.379e-09
-7.71345e-09
-3.59673e-09
2.66303e-10
-2.0857e-09
3.15797e-09
5.36041e-09
-6.43271e-09
2.26762e-09
-9.25183e-09
-4.79897e-09
6.47925e-09
1.05042e-09
-1.49746e-09
6.92622e-09
6.9777e-09
3.99036e-09
-4.05748e-09
4.81495e-09
4.08232e-09
1.78518e-09
4.76569e-09
-6.07203e-09
6.64722e-09
-1.03128e-09
1.83747e-08
5.97071e-09
-1.07545e-08
-1.35909e-08
1.82295e-08
1.0353e-09
-8.90156e-10
-2.80854e-08
1.90124e-09
1.3538e-08
1.26461e-08
-8.81119e-09
-1.33035e-08
-3.6039e-09
4.84514e-09
-1.19956e-08
6.4396e-09
-1.31072e-08
3.06375e-09
1.04482e-08
-4.75476e-09
7.46263e-10
9.35333e-09
1.07774e-08
-2.1575e-08
2.3212e-08
-1.39567e-08
9.39672e-09
-1.02551e-08
-1.31944e-08
-8.99515e-10
-3.83294e-09
-3.49502e-09
1.21731e-08
-3.75666e-09
-9.64326e-09
1.10726e-08
-1.27616e-08
-1.15054e-08
-1.06635e-09
1.88387e-09
-8.92163e-09
1.45183e-08
-8.0047e-09
1.04123e-08
-1.13292e-08
2.00299e-09
-1.1074e-08
1.4298e-09
1.37885e-08
7.88404e-10
-1.60068e-08
2.49453e-10
1.2356e-08
-1.11756e-08
1.54766e-09
-1.52595e-08
1.30087e-08
7.03005e-10
-1.18568e-08
1.19535e-08
1.45081e-09
-1.33813e-09
1.01882e-08
-8.60059e-09
-1.79895e-09
1.04639e-08
-1.00031e-08
1.54673e-11
1.91616e-09
1.06295e-08
-1.16401e-08
-1.69485e-08
1.4045e-08
4.60998e-09
1.60044e-08
-7.60579e-09
-2.11021e-09
1.86737e-08
3.0704e-10
1.18042e-08
-1.9231e-09
1.21985e-08
-1.42758e-09
9.37237e-09
1.27251e-09
-3.31739e-09
4.71791e-09
1.07979e-08
6.63234e-09
1.85444e-09
1.19801e-08
-7.6706e-09
8.4717e-09
-7.84396e-09
7.04287e-09
-1.38689e-08
7.18925e-09
-9.90946e-10
7.47339e-10
3.09975e-09
4.6246e-09
3.23687e-09
-7.00905e-09
4.51954e-09
1.91732e-10
-6.02222e-09
8.93025e-09
-5.23893e-09
8.66755e-09
-1.46577e-08
-9.38524e-09
1.0174e-08
8.25808e-09
-1.22937e-08
1.16996e-09
-7.55796e-10
7.44431e-09
-6.27726e-09
-7.34809e-09
4.55511e-09
-6.59226e-09
1.19082e-09
-2.08326e-08
9.5821e-09
-7.77077e-09
-6.41323e-10
4.3163e-10
2.14146e-09
-8.94956e-09
9.16039e-09
-5.44969e-09
5.78317e-09
-1.2363e-08
-2.02993e-09
-4.30732e-09
-1.33643e-08
1.97017e-08
-1.24997e-08
1.5025e-08
-1.16925e-08
3.17456e-09
-1.02166e-08
-9.99604e-10
1.2277e-09
-7.40305e-09
6.93722e-10
-1.49854e-08
1.23589e-09
-1.25737e-08
1.04286e-09
-7.35112e-09
-1.68097e-10
-8.07915e-09
-8.68255e-09
-1.07394e-08
-2.47372e-09
1.42298e-08
-1.01683e-09
1.53188e-10
-8.4876e-09
-4.00474e-09
1.23389e-08
-7.33663e-09
-3.24965e-09
-1.06718e-09
5.62407e-09
-4.80275e-09
2.45861e-10
-7.33922e-09
-1.06466e-09
-2.94566e-09
6.09601e-09
-8.15543e-10
5.82026e-10
-4.56924e-09
3.18878e-11
-8.18669e-09
7.48401e-10
3.73327e-09
3.49999e-09
-7.98156e-09
-5.91089e-09
3.71368e-09
-9.83964e-10
8.70288e-11
-7.16231e-09
8.05919e-09
-1.0064e-09
-8.75829e-09
8.78065e-09
-9.46215e-09
-4.31776e-09
2.32793e-09
-1.10866e-08
1.30764e-08
-8.25968e-09
-1.05868e-09
5.00053e-09
7.46579e-09
3.81641e-10
-7.87328e-09
2.58961e-11
-9.51655e-10
1.07454e-08
-1.23026e-08
1.31628e-09
-1.00299e-10
-1.74981e-09
-1.35706e-08
3.01768e-09
-1.00792e-08
6.97173e-11
-5.71237e-09
-2.24582e-09
7.00653e-09
-5.74029e-09
4.09557e-10
1.3151e-09
-5.40519e-09
3.03144e-09
-4.68746e-09
3.75673e-09
-7.424e-09
8.67016e-10
-3.67757e-09
-3.9226e-10
-6.00939e-09
-3.44485e-09
2.27904e-09
-5.42252e-09
-2.2617e-09
-2.31338e-09
-9.50312e-11
-2.80332e-09
-5.09943e-09
2.16249e-09
-4.8468e-09
-2.69901e-10
3.62944e-09
-4.2375e-09
-2.94593e-10
-1.17536e-09
5.78413e-09
2.95997e-11
-1.93444e-09
2.393e-09
-3.42179e-09
-5.94556e-11
1.11951e-09
-3.98128e-09
2.9211e-09
-3.77942e-09
1.12489e-09
2.59503e-09
-2.31384e-09
-3.92367e-09
2.45799e-09
5.80147e-10
-2.67933e-09
-2.14704e-10
3.32319e-10
-3.87064e-09
4.65772e-09
-2.94427e-09
4.40142e-09
-2.71148e-09
-3.3725e-09
3.1396e-09
-1.98251e-09
-1.48867e-10
-3.00558e-10
-3.18317e-09
1.11163e-10
-2.18404e-09
-9.90527e-11
-2.37059e-09
5.35341e-10
-2.08852e-09
-1.6556e-09
-3.39435e-09
-4.2743e-09
-4.02567e-09
4.42927e-09
-3.93863e-10
-1.67285e-09
-2.20762e-09
-1.80119e-09
-1.77589e-09
-1.41776e-09
-2.56751e-09
-1.99802e-09
-1.44792e-09
-3.73711e-09
-2.28664e-09
-8.45929e-10
-4.56407e-09
-3.91931e-09
5.90089e-09
-4.64355e-09
7.26219e-09
-8.51951e-09
-4.45588e-11
1.26196e-08
-6.67408e-09
-4.5395e-09
1.02081e-08
-5.71314e-09
-6.85275e-09
8.68722e-09
1.07851e-08
8.27137e-10
-4.1763e-10
4.1568e-09
-8.73023e-09
1.47816e-08
-1.65651e-08
1.03997e-08
1.50957e-08
-4.96398e-09
-4.19363e-09
1.72925e-08
-2.69899e-09
-7.29949e-09
3.48662e-09
-3.80689e-10
8.18224e-09
-3.12173e-10
5.50736e-09
-9.03244e-09
1.5073e-08
-1.01982e-10
-5.9387e-09
7.75999e-09
-7.83782e-09
-8.95462e-09
2.79068e-09
1.32517e-08
-9.69402e-10
9.20759e-09
1.34309e-09
-1.04317e-08
-7.2656e-09
1.75953e-08
7.57738e-09
1.4452e-08
-8.77767e-09
4.45737e-09
8.8805e-09
-1.58897e-08
2.5518e-09
6.22761e-09
-8.83805e-09
7.06782e-09
-8.99245e-09
-1.7214e-09
1.82913e-08
-3.81428e-09
4.02948e-09
7.04146e-09
-3.16848e-09
5.00756e-09
1.15477e-08
2.00112e-09
7.43048e-09
-1.98634e-08
5.79311e-09
-1.16298e-08
1.50139e-08
1.05352e-08
-1.81186e-08
7.53405e-09
-1.35819e-09
-3.20769e-11
-5.32243e-09
-8.55011e-09
1.56739e-09
-2.78906e-09
-5.08512e-10
-6.92255e-09
1.03018e-08
-2.87064e-09
-3.18582e-09
-8.02145e-09
1.06988e-08
1.05432e-08
6.42751e-10
-1.81578e-08
6.97185e-09
-4.25445e-10
1.0636e-08
3.3268e-10
8.70851e-09
6.19706e-09
-1.42628e-08
8.87701e-09
-5.93909e-10
-2.52955e-09
8.6866e-09
-9.31918e-09
3.1622e-09
7.05022e-09
-7.0272e-10
5.67526e-09
-1.7443e-10
1.81293e-09
-6.96045e-09
-1.77499e-09
8.41709e-10
4.70342e-09
-1.02783e-09
-1.34299e-08
1.63097e-08
7.2034e-09
-1.00831e-08
-1.76997e-09
-5.56223e-09
-6.09773e-09
-4.89208e-09
-1.94953e-09
-4.41727e-09
7.62728e-09
-1.26044e-09
-3.25995e-09
4.09006e-09
-2.77962e-09
-2.28169e-09
3.12812e-09
-5.26366e-09
4.49982e-10
-5.99162e-09
1.35247e-09
-3.92644e-09
-9.98181e-10
3.57218e-09
4.48895e-10
-4.17317e-09
5.07676e-09
1.54582e-09
-7.89413e-09
-4.56308e-10
6.80464e-09
-6.71019e-09
8.70491e-09
-6.2224e-09
7.13949e-09
7.85607e-10
-2.91794e-09
3.42326e-10
-5.10832e-09
-1.4414e-09
4.87396e-09
-3.09022e-09
2.92419e-09
-3.91558e-09
4.08061e-09
2.24048e-09
-3.39689e-09
2.38769e-09
1.83075e-09
-1.37784e-10
1.51257e-09
-4.13915e-09
-1.54656e-09
-2.61753e-11
-5.12567e-09
3.67119e-09
1.57905e-09
-1.11306e-09
-1.4081e-08
5.64646e-09
-7.60791e-09
1.60425e-08
1.8276e-09
-1.77443e-08
1.83559e-09
1.01203e-08
-1.0285e-08
1.99236e-09
7.01218e-10
1.50655e-08
-8.13989e-09
3.94122e-09
-3.55343e-09
7.75214e-09
-9.6098e-09
2.86136e-10
1.18382e-09
-1.00261e-08
-1.35367e-09
3.77186e-09
-1.12911e-08
-1.64792e-08
2.38533e-10
7.95835e-09
-7.18208e-09
-1.01475e-09
-8.64722e-09
-7.24033e-10
8.71349e-09
-1.00926e-08
1.66527e-09
1.33559e-08
-7.26849e-09
2.25666e-09
-5.27315e-09
3.05129e-09
-3.88513e-10
-1.81711e-08
4.50532e-09
-1.20759e-08
4.47253e-09
-8.61442e-09
-3.36337e-09
-4.11591e-09
4.97657e-09
-6.83762e-09
5.97693e-09
3.37348e-09
-5.61147e-10
-6.92825e-09
-7.78576e-12
-2.36677e-09
-1.92677e-09
4.20243e-10
-1.27945e-08
1.08904e-08
1.48384e-09
-8.66725e-09
1.00404e-09
8.08341e-09
-5.07574e-09
-4.07516e-09
2.31328e-09
-8.28107e-09
8.38418e-09
5.47732e-09
-5.58046e-09
-8.96272e-09
-8.07109e-10
-9.80716e-09
2.8779e-09
-1.73802e-09
-8.15477e-09
4.48956e-09
-1.41057e-09
4.69882e-09
-1.04749e-08
-2.37871e-09
-9.63928e-09
5.1661e-09
4.24126e-10
-5.36461e-09
-5.46575e-09
-6.90458e-09
-1.17832e-08
-3.48971e-09
-3.96272e-09
7.73245e-09
-8.4469e-09
4.67715e-09
-7.03479e-09
3.16968e-09
-9.76445e-11
-3.2635e-09
-4.84409e-09
-2.17575e-10
8.32516e-09
8.05373e-09
-3.58479e-09
8.64159e-09
-1.36558e-08
-2.02061e-09
-5.31936e-09
5.51407e-09
-1.91064e-09
2.36265e-10
4.3526e-09
-6.58195e-09
2.11311e-09
1.16274e-10
1.02049e-08
-6.06987e-09
3.31886e-09
-6.41415e-09
-6.75543e-09
1.50862e-09
8.56569e-09
4.78943e-09
-5.94766e-09
-5.59718e-09
2.8161e-09
6.27079e-11
4.88517e-09
-7.51888e-09
6.2761e-09
-3.64232e-09
1.11515e-08
-6.31551e-09
4.90947e-11
1.13178e-10
9.3401e-09
1.69821e-09
6.94911e-09
-8.17098e-09
1.33502e-09
5.77382e-09
1.14292e-09
-2.27591e-09
-4.6408e-09
1.95894e-09
3.98223e-09
-1.67367e-10
-2.87195e-09
4.25909e-09
-7.70261e-09
8.37386e-10
-1.12282e-08
-8.82516e-09
9.99498e-10
-1.60848e-09
9.43413e-09
-8.04831e-10
-1.74426e-09
-5.49584e-10
1.08892e-08
-1.01855e-09
7.41805e-09
7.38529e-09
-6.19277e-09
-1.99738e-09
-7.8887e-10
6.56567e-09
3.46311e-09
-6.34144e-09
-3.31443e-09
5.38545e-09
3.66017e-11
6.80117e-09
-1.38937e-09
-4.26888e-09
6.74399e-09
4.0394e-09
-7.77994e-09
-5.30126e-09
2.04815e-10
4.39174e-09
5.93024e-09
-1.86166e-08
-1.75337e-08
8.02685e-09
2.81234e-08
-1.06357e-08
-2.14151e-09
-5.83941e-09
2.16507e-08
-1.81872e-08
-1.40991e-08
-8.72874e-09
1.28457e-08
3.53447e-09
5.40021e-09
-1.08768e-08
1.94223e-09
1.41657e-08
-1.77761e-08
7.14497e-09
8.83141e-09
-1.61474e-08
2.14817e-08
-1.06549e-08
2.75132e-08
8.50427e-09
-7.13056e-09
-1.95609e-08
1.37275e-09
-1.59716e-09
-1.03795e-08
5.12485e-09
1.16972e-08
-1.03156e-08
-1.22583e-08
1.46887e-09
-7.54776e-09
-5.57631e-09
-9.10219e-09
3.03126e-09
9.59195e-09
-6.94754e-09
-2.05923e-09
-1.42319e-08
5.58839e-09
-4.33636e-09
-8.49e-10
-4.03095e-10
6.5194e-09
8.71817e-09
-9.6492e-09
8.11275e-10
-9.78676e-10
-3.44617e-09
3.61354e-09
-4.31807e-10
-4.51569e-09
5.75873e-09
-9.5865e-10
-3.68057e-09
3.66057e-09
1.55357e-10
-4.69982e-09
3.58569e-09
-1.29324e-09
7.38079e-09
1.52851e-09
-1.80766e-09
-4.23662e-09
-1.96468e-09
4.69777e-11
4.5252e-09
-5.66311e-09
4.28276e-09
7.244e-10
-6.12973e-09
1.12253e-09
2.42586e-09
-2.84291e-09
-1.13569e-09
-1.19074e-10
2.93821e-09
-3.47468e-09
1.2608e-09
-1.62172e-10
-3.32854e-09
3.0271e-09
1.03926e-08
-1.00911e-08
3.34191e-09
7.12747e-09
-1.37978e-08
2.75092e-09
-1.16673e-08
1.48937e-08
-9.11559e-09
9.0802e-09
-1.07444e-08
8.79172e-09
5.73268e-10
8.49895e-09
8.01573e-12
1.05112e-08
4.54744e-10
1.15338e-08
-4.18783e-09
8.07488e-09
1.7373e-09
-1.31318e-09
6.34643e-09
5.07192e-09
-9.07151e-10
-1.31702e-10
6.18073e-09
2.97414e-10
7.60173e-09
3.41447e-10
1.10462e-08
5.55949e-09
-3.22931e-09
-1.25428e-09
1.06643e-08
-5.45185e-09
9.82429e-09
1.69369e-08
3.78875e-09
-7.29832e-09
-2.06157e-09
7.65456e-09
1.63821e-09
-7.23115e-09
4.20129e-09
9.84476e-10
-7.24728e-09
-9.62177e-09
3.20584e-09
1.089e-08
-4.47403e-09
5.37326e-09
-1.07937e-08
-4.59881e-09
1.06061e-08
-2.8014e-09
8.27052e-09
-5.21475e-09
-3.71121e-10
5.66231e-09
-3.65298e-09
-9.37389e-09
1.30278e-08
7.23609e-09
7.63111e-10
-4.76372e-09
8.60831e-09
-6.03942e-09
8.03718e-09
3.21105e-09
2.0235e-10
9.61447e-09
3.60062e-10
1.14593e-08
-1.93992e-09
4.74429e-09
-3.17549e-09
3.39803e-09
-4.35347e-09
4.7034e-11
2.18408e-09
-1.42175e-09
6.0147e-09
1.06936e-09
-2.28158e-09
-4.39211e-09
7.03381e-09
-7.45098e-09
5.37177e-09
-7.78881e-09
-3.50417e-09
3.84203e-09
-3.07504e-09
-3.95065e-09
4.77827e-09
-4.45527e-09
1.3463e-09
-7.21488e-11
3.3295e-09
-6.95489e-12
4.14861e-09
1.91313e-09
4.60642e-09
6.94003e-11
4.36294e-09
1.00991e-10
-4.18868e-09
4.03135e-09
5.63577e-11
-4.63669e-09
4.39437e-09
3.43323e-10
4.09001e-09
-1.41463e-09
-6.86406e-09
1.09954e-09
-1.64621e-09
-7.82505e-09
2.83368e-09
1.17169e-08
-6.72552e-09
1.0573e-09
-4.851e-09
-5.30197e-09
-5.50612e-09
1.18654e-08
3.43631e-09
-2.68316e-09
3.64123e-09
2.8572e-09
1.86071e-09
-6.13253e-09
3.95411e-09
2.63521e-12
5.70487e-09
-9.14615e-09
7.00115e-09
-3.57662e-09
2.28034e-09
3.88239e-09
-1.37537e-10
3.25631e-09
-2.6784e-09
8.9484e-09
1.33575e-09
-6.47734e-11
-5.21822e-09
1.72709e-09
-8.54741e-11
-7.89585e-09
-6.46853e-09
-3.53125e-09
4.73525e-09
8.48342e-11
7.63398e-09
-7.31009e-09
-8.06489e-11
-2.43235e-10
5.90499e-10
9.67501e-09
-2.63153e-09
-8.011e-09
-8.45671e-09
9.15762e-09
5.11582e-09
-1.02919e-09
3.92494e-09
-8.01159e-09
3.0182e-10
-3.197e-09
-5.56589e-09
-1.21696e-09
7.37335e-09
-5.03591e-09
-6.10627e-10
-8.84158e-11
-9.25436e-09
7.18328e-09
2.15948e-09
-1.21209e-09
-5.16651e-09
5.16164e-09
-6.75921e-09
5.4587e-09
2.83443e-09
3.54173e-09
-7.40535e-09
-9.65913e-10
-4.3635e-09
3.38014e-09
5.24294e-09
-5.78865e-09
5.60557e-09
-1.9236e-09
2.4497e-09
-6.65506e-09
-2.55385e-09
-2.84371e-09
1.26905e-10
-4.07925e-09
-2.43913e-09
3.0088e-09
-3.99101e-11
-9.60931e-10
-4.65922e-09
-2.27617e-10
-1.20704e-08
-1.6205e-09
3.14141e-09
1.05495e-08
-1.45084e-09
-7.89011e-09
-2.72951e-09
7.94581e-09
-6.02055e-09
-3.37613e-09
1.2057e-09
5.1196e-09
5.47414e-09
2.75003e-09
2.48004e-09
-1.07042e-08
2.10208e-09
-2.6485e-09
7.48585e-09
3.74391e-09
-8.47974e-09
3.88614e-09
-8.92953e-10
4.49264e-09
-1.06709e-08
5.26078e-09
5.80637e-09
1.81844e-10
-5.26475e-09
1.03145e-08
-1.30581e-09
8.96159e-10
1.25195e-08
-1.02743e-08
2.04798e-09
4.96404e-09
1.14562e-08
-8.5121e-09
-5.48394e-09
1.67599e-09
2.05065e-10
4.75061e-09
-6.83516e-09
2.32592e-09
-2.41358e-10
-2.242e-09
-3.28215e-09
5.1962e-09
3.27951e-10
2.51696e-09
-4.75674e-09
-2.21662e-12
5.4701e-09
-2.9213e-09
-3.18408e-11
-2.10041e-09
4.39496e-09
-2.3271e-09
3.25435e-11
-4.41954e-09
2.48957e-09
-1.70441e-10
-1.40229e-09
-6.0172e-09
7.12898e-09
2.90479e-10
-7.2024e-09
5.62867e-09
1.71418e-10
2.71975e-09
2.49361e-09
-4.98213e-09
-2.31231e-10
1.38432e-09
-5.03266e-09
3.73661e-09
-8.82629e-11
4.13531e-09
-3.12334e-11
3.15694e-09
2.86195e-09
-6.12431e-09
1.05424e-10
-2.7028e-09
5.59145e-09
2.68262e-10
2.89706e-09
-5.57623e-09
-2.36349e-11
1.15863e-09
-4.22141e-09
3.60498e-09
-5.42211e-10
5.71567e-09
-3.78693e-09
-7.70111e-10
-2.2387e-09
5.3399e-09
-3.33598e-09
2.3478e-10
3.20175e-09
-5.53922e-09
9.87821e-11
-2.2573e-09
5.25931e-09
1.99723e-10
-1.60983e-09
5.18976e-09
6.13022e-11
4.50796e-09
-6.0369e-09
-8.08696e-11
3.91522e-10
3.41508e-09
-3.95818e-09
1.51569e-10
3.80093e-09
-3.59169e-09
1.82278e-10
5.86166e-09
-2.16956e-09
1.0883e-10
-2.16872e-09
5.31535e-09
2.68456e-10
1.21441e-10
4.70025e-09
-4.5883e-09
-2.3336e-10
-4.40369e-09
4.72692e-09
-2.01768e-10
5.77504e-09
-7.80755e-09
2.01581e-09
1.66936e-11
-8.49689e-10
6.34528e-09
2.79421e-10
8.72808e-09
-9.93977e-09
3.61981e-10
-1.85247e-09
5.1495e-09
-3.444e-09
1.4697e-10
3.1121e-09
-4.93487e-09
-2.96888e-11
1.5785e-09
2.39334e-09
-3.67962e-09
-2.9223e-10
3.81409e-09
-2.15914e-09
-7.64447e-11
1.87311e-09
3.50603e-09
-5.16694e-09
-2.12197e-10
4.92231e-09
-2.94528e-09
-1.03931e-10
8.04419e-09
-7.98997e-09
-4.75156e-10
4.2095e-10
-1.52942e-09
-3.64607e-09
4.63953e-09
5.35951e-10
3.28096e-09
-5.44675e-09
6.36425e-10
7.76043e-09
4.96732e-09
-9.44674e-09
4.28181e-09
-6.57313e-09
2.46625e-09
-1.74921e-10
-1.44287e-10
4.47981e-09
-5.36965e-11
4.65315e-09
-4.71074e-09
-8.66864e-11
-1.82051e-09
-4.3264e-09
6.41454e-09
-2.67734e-10
-5.0895e-09
3.72524e-09
-4.56326e-10
3.78696e-09
-4.17775e-09
1.11207e-10
2.79572e-10
2.45256e-10
3.48167e-09
-3.81501e-09
8.80694e-11
3.90082e-09
1.31393e-10
-2.39181e-09
5.58588e-09
2.87598e-10
2.92065e-09
1.7269e-09
-4.80752e-09
1.59995e-10
4.64732e-09
-5.18289e-10
-4.2335e-09
1.04466e-10
1.52818e-09
3.09783e-09
2.13228e-11
4.25623e-09
1.92591e-10
3.03628e-09
1.13374e-10
-2.8667e-09
-2.82976e-10
6.00268e-11
-2.64323e-09
2.75473e-09
-1.71585e-10
3.28013e-09
-1.83838e-10
1.8257e-09
-4.70415e-09
3.01324e-09
-1.34705e-10
-2.60225e-09
4.45557e-09
-2.75941e-11
-4.66823e-09
2.44038e-09
-3.7439e-10
-1.60961e-09
5.12109e-09
-3.4508e-09
-6.07038e-11
-4.93507e-09
3.50834e-09
-1.8287e-10
1.64618e-09
1.93661e-09
-3.62846e-09
4.57002e-11
-2.2969e-09
3.69518e-09
2.47915e-10
3.44951e-09
-1.54971e-09
3.68106e-11
-6.03834e-09
6.5316e-09
-2.79014e-09
3.41953e-10
-4.28831e-09
3.92587e-09
2.05547e-11
5.60129e-09
-5.40188e-09
1.42585e-10
-2.18047e-09
4.32804e-09
-2.10944e-09
-3.81654e-11
-2.15165e-09
-2.92786e-09
5.02992e-09
4.94692e-11
-4.12638e-09
-2.05745e-10
1.11993e-09
-5.62617e-09
9.73915e-11
-4.19938e-09
5.12267e-09
1.96638e-10
-5.64264e-09
1.37159e-09
7.16623e-11
2.82355e-09
1.4679e-09
-4.13677e-09
-1.54641e-10
-1.69873e-09
4.60115e-09
-7.89139e-11
-4.91633e-09
3.52709e-09
-3.09523e-10
-1.72771e-09
-3.7666e-09
5.38103e-09
1.13263e-10
2.63109e-09
-4.37176e-09
1.29514e-11
4.78266e-09
-2.36302e-09
2.11476e-10
-1.30853e-09
-1.3529e-09
-1.13512e-10
-3.30971e-09
2.23908e-09
-2.37961e-10
1.78858e-09
3.62995e-09
-5.25868e-09
-1.59805e-10
5.7917e-09
3.62742e-11
-1.64186e-09
4.23188e-09
-2.60773e-09
1.77163e-11
2.82725e-09
-4.3114e-09
-1.57696e-10
1.3106e-09
2.77521e-09
-3.81626e-09
-2.69591e-10
-2.55269e-09
3.93938e-09
-7.61233e-11
1.7598e-09
-2.30233e-10