/*--------------------------------*- C++ -*----------------------------------*\
| =========                 |                                                 |
| \\      /  F ield         | OpenFOAM: The Open Source CFD Toolbox           |
|  \\    /   O peration     | Version:  v1612+                                |
|   \\  /    A nd           | Web:      www.OpenFOAM.com                      |
|    \\/     M anipulation  |                                                 |
\*---------------------------------------------------------------------------*/
FoamFile
{
    version     2.0;
    format      ascii;
    class       volScalarField;
    location    "118";
    object      p;
}
// * * * * * * * * * * * * * * * * * * * * * * * * * * * * * * * * * * * * * //

dimensions      [0 2 -2 0 0 0 0];

internalField   nonuniform List<scalar> 
21458
(
3.50992
3.567
3.53805
3.54301
3.50892
3.54362
3.53198
3.5867
3.58645
3.5941
3.54337
3.51867
3.56331
3.53088
3.54454
3.58667
3.50482
3.51005
3.51459
3.54331
3.56656
3.56494
3.56229
3.55858
3.53467
3.58511
3.5773
3.57675
3.59271
3.59834
3.586
3.51276
3.52192
3.58051
3.58708
3.55413
3.56504
3.5138
3.56014
3.57705
3.52831
3.51615
3.55654
3.55574
3.59918
3.51913
3.59189
3.59615
3.50453
3.51387
3.55312
3.59398
3.58697
3.5034
3.51004
3.50872
3.59945
3.59489
3.53052
3.52557
3.57725
3.52016
3.5577
3.56776
3.51678
3.56986
3.5618
3.5845
3.5239
3.51012
3.51174
3.58153
3.5472
3.58737
3.57526
3.51231
3.51459
3.50604
3.57843
3.54744
3.5481
3.5614
3.53423
3.56839
3.54622
3.53525
3.57081
3.57277
3.52988
3.54966
3.53707
3.53545
3.58513
3.59285
3.52787
3.58608
3.54972
3.57429
3.56647
3.58221
3.52263
3.54695
3.54446
3.53649
3.5334
3.55942
3.5467
3.55004
3.53148
3.56029
3.55804
3.5637
3.56518
3.51323
3.56622
3.57008
3.57434
3.56817
3.53454
3.56675
3.57193
3.54526
3.50614
3.57613
3.52884
3.59337
3.58467
3.51075
3.5513
3.52169
3.5172
3.51222
3.52769
3.54849
3.5123
3.54151
3.5559
3.5525
3.50531
3.60185
3.54544
3.54171
3.553
3.5335
3.52997
3.57824
3.57549
3.59214
3.59095
3.58212
3.58991
3.57673
3.57778
3.58141
3.57195
3.57053
3.55971
3.54262
3.53851
3.57401
3.50992
3.54947
3.55808
3.55916
3.58256
3.58312
3.56693
3.57695
3.59163
3.50804
3.57939
3.59466
3.57748
3.59078
3.5865
3.5887
3.50812
3.58916
3.59018
3.5921
3.59949
3.57474
3.56723
3.56192
3.5562
3.56827
3.56868
3.56829
3.56839
3.57245
3.56081
3.55034
3.55422
3.55139
3.5474
3.54462
3.5826
3.5842
3.57312
3.52147
3.59441
3.59329
3.57711
3.58104
3.59311
3.51298
3.50919
3.51824
3.53815
3.58671
3.5886
3.58365
3.53244
3.5158
3.51382
3.59109
3.58545
3.57756
3.53404
3.52478
3.52564
3.5216
3.546
3.57479
3.57042
3.56818
3.57907
3.51758
3.57302
3.5978
3.59974
3.53556
3.54492
3.5419
3.56226
3.55763
3.56035
3.54844
3.5439
3.56479
3.55875
3.55463
3.56231
3.55581
3.56904
3.5704
3.56006
3.56068
3.55347
3.55548
3.55419
3.51848
3.52121
3.52518
3.5389
3.54434
3.5446
3.54175
3.53725
3.53573
3.53212
3.53329
3.53783
3.53023
3.5219
3.52382
3.52496
3.54709
3.53759
3.5454
3.50509
3.50725
3.50904
3.51042
3.50611
3.50946
3.51221
3.51364
3.50382
3.50926
3.53089
3.5885
3.56177
3.5659
3.59715
3.5966
3.55118
3.5548
3.57546
3.56807
3.56344
3.56653
3.56956
3.55456
3.54698
3.54704
3.54283
3.54562
3.54931
3.52771
3.52397
3.52353
3.546
3.58834
3.52074
3.53705
3.5248
3.55742
3.53557
3.54723
3.52062
3.55875
3.54039
3.59427
3.60033
3.56875
3.57021
3.53265
3.54896
3.5285
3.53356
3.53244
3.5366
3.51643
3.52828
3.53877
3.53831
3.53708
3.53599
3.54532
3.54524
3.54528
3.51799
3.50766
3.51289
3.52453
3.5315
3.53399
3.5545
3.53944
3.53831
3.56229
3.55994
3.56186
3.52919
3.52443
3.52176
3.52619
3.56854
3.52546
3.52529
3.52869
3.52848
3.52715
3.52302
3.51381
3.58357
3.55822
3.57053
3.57141
3.52512
3.51633
3.51975
3.52146
3.52366
3.52753
3.54915
3.58048
3.53568
3.54158
3.59358
3.53903
3.59116
3.55536
3.59741
3.54812
3.56062
3.5327
3.52558
3.55491
3.53837
3.5465
3.55088
3.52827
3.56857
3.51263
3.57209
3.53149
3.5397
3.54978
3.56962
3.51996
3.52923
3.523
3.57235
3.5242
3.59103
3.51725
3.56285
3.55527
3.55133
3.51449
3.56905
3.53132
3.54347
3.56275
3.52608
3.50892
3.50662
3.58845
3.5209
3.5387
3.5349
3.58558
3.57919
3.51642
3.57489
3.52211
3.5217
3.5419
3.56331
3.55338
3.55141
3.60123
3.575
3.57041
3.54444
3.54198
3.54891
3.50634
3.5523
3.60321
3.51199
3.5836
3.54366
3.57415
3.56566
3.57531
3.53246
3.52756
3.59973
3.59614
3.51074
3.55696
3.57658
3.56946
3.57147
3.59156
3.56427
3.57887
3.58055
3.55879
3.50869
3.5606
3.50648
3.50819
3.59527
3.51761
3.58832
3.57162
3.56116
3.54697
3.53312
3.53222
3.5252
3.52849
3.53899
3.56839
3.56441
3.56893
3.58505
3.57111
3.54645
3.5436
3.58996
3.58664
3.59113
3.54394
3.53249
3.52364
3.55674
3.57709
3.57236
3.57088
3.5507
3.55309
3.54829
3.56701
3.56177
3.54821
3.5156
3.53393
3.52003
3.53067
3.54052
3.54532
3.5222
3.51218
3.54125
3.55791
3.57849
3.53041
3.59061
3.56703
3.567
3.54074
3.55908
3.51672
3.51939
3.58989
3.6031
3.52421
3.52498
3.52121
3.57626
3.57199
3.57715
3.57544
3.59287
3.52254
3.49969
3.50018
3.59102
3.5908
3.50487
3.57454
3.57676
3.59785
3.58454
3.54781
3.57786
3.54317
3.59063
3.58945
3.55349
3.55109
3.53995
3.5308
3.58899
3.56528
3.57643
3.57276
3.57537
3.59198
3.59857
3.56628
3.51413
3.57736
3.5713
3.58091
3.52681
3.51854
3.5538
3.55746
3.54603
3.53588
3.51326
3.53797
3.54009
3.53586
3.51993
3.52261
3.53158
3.54496
3.55509
3.51105
3.55624
3.55623
3.56369
3.51852
3.53309
3.54434
3.59222
3.54097
3.53271
3.53059
3.51187
3.52125
3.51131
3.53745
3.55809
3.5738
3.55538
3.57603
3.57739
3.59895
3.57766
3.55713
3.59509
3.50824
3.51017
3.59883
3.60048
3.52012
3.50929
3.54992
3.53911
3.54353
3.53811
3.54891
3.54218
3.54155
3.55423
3.53433
3.51931
3.52659
3.52254
3.51747
3.52745
3.55158
3.534
3.54138
3.53917
3.54441
3.53166
3.58308
3.59252
3.57567
3.58932
3.57968
3.58623
3.58253
3.59259
3.59157
3.52934
3.53444
3.54537
3.53245
3.54023
3.54182
3.53584
3.51523
3.51219
3.5047
3.51292
3.52369
3.53401
3.52444
3.52021
3.52668
3.50942
3.52487
3.51778
3.51199
3.51953
3.52315
3.52194
3.51524
3.51883
3.50992
3.51913
3.52168
3.5348
3.52372
3.52896
3.5306
3.5322
3.5085
3.50773
3.51214
3.50941
3.51361
3.50631
3.5213
3.51783
3.50776
3.54435
3.51994
3.52508
3.5259
3.50815
3.52019
3.51231
3.50883
3.56539
3.54558
3.552
3.55435
3.5454
3.55044
3.54782
3.54612
3.54101
3.53641
3.5521
3.54458
3.5422
3.54992
3.54829
3.54826
3.53421
3.55304
3.54498
3.58507
3.56339
3.5765
3.57663
3.57891
3.56557
3.60245
3.59245
3.59794
3.59251
3.60614
3.5869
3.57826
3.57803
3.56316
3.55201
3.55481
3.56213
3.55304
3.55102
3.56453
3.57083
3.56944
3.56046
3.554
3.56429
3.57495
3.562
3.57
3.57998
3.57613
3.58663
3.56407
3.57575
3.57654
3.57948
3.56737
3.58695
3.5974
3.5902
3.59811
3.58211
3.59825
3.59798
3.58869
3.60129
3.59031
3.58113
3.57229
3.58786
3.57782
3.5761
3.58691
3.51206
3.51706
3.51644
3.51774
3.51312
3.51727
3.51865
3.53195
3.53525
3.52836
3.53187
3.53398
3.53502
3.53037
3.54477
3.54091
3.53918
3.53788
3.54442
3.53356
3.52233
3.52336
3.53662
3.54596
3.53807
3.54058
3.53796
3.5397
3.53925
3.59506
3.59854
3.59493
3.59479
3.53831
3.53121
3.53027
3.53188
3.53086
3.50368
3.50515
3.50506
3.50534
3.51681
3.50661
3.50383
3.51056
3.5085
3.53684
3.52907
3.53464
3.53089
3.53228
3.53066
3.53357
3.53341
3.52705
3.53483
3.52901
3.52826
3.52516
3.52782
3.51704
3.50712
3.50624
3.51247
3.51661
3.51135
3.5009
3.52987
3.52433
3.52628
3.52406
3.52712
3.52502
3.52432
3.5059
3.50198
3.50684
3.51146
3.50644
3.50764
3.50432
3.50687
3.51057
3.50469
3.53068
3.52646
3.52697
3.53219
3.52649
3.50851
3.56983
3.57866
3.57545
3.56406
3.56564
3.56225
3.56958
3.56155
3.56108
3.56225
3.53704
3.54215
3.53472
3.54104
3.53876
3.52949
3.55905
3.55086
3.56075
3.55156
3.55677
3.5546
3.55231
3.56285
3.57294
3.56381
3.56887
3.56665
3.57016
3.56726
3.59258
3.59697
3.59734
3.59895
3.60062
3.59955
3.59944
3.60233
3.55973
3.56566
3.5616
3.56416
3.55878
3.55867
3.56415
3.57492
3.55009
3.55802
3.55659
3.54889
3.55487
3.55528
3.55067
3.58638
3.58975
3.58316
3.57196
3.56795
3.57208
3.56732
3.57554
3.57363
3.57478
3.57122
3.58829
3.59385
3.58875
3.58932
3.59405
3.59049
3.59684
3.5954
3.59856
3.59382
3.59529
3.59808
3.59843
3.60314
3.60149
3.60159
3.57972
3.5863
3.58717
3.58752
3.58093
3.58367
3.58548
3.5673
3.55097
3.56201
3.57996
3.59868
3.60128
3.50785
3.51458
3.50819
3.51067
3.50951
3.50923
3.5058
3.5051
3.51823
3.51357
3.51631
3.51197
3.5131
3.50768
3.57437
3.56681
3.56335
3.58911
3.58573
3.58459
3.6027
3.60294
3.58725
3.59286
3.59727
3.56222
3.50961
3.51154
3.51224
3.5219
3.51443
3.51541
3.51801
3.52134
3.52041
3.5065
3.51106
3.51027
3.55315
3.54827
3.55949
3.55434
3.55458
3.55111
3.5555
3.54689
3.54443
3.5439
3.5419
3.54223
3.54287
3.54312
3.55328
3.54563
3.5487
3.54686
3.55254
3.55021
3.54828
3.54121
3.53554
3.53865
3.54198
3.53711
3.53648
3.54255
3.54583
3.54974
3.55385
3.54773
3.55269
3.55259
3.54788
3.53944
3.53806
3.54849
3.5445
3.54197
3.54029
3.54488
3.54459
3.54026
3.5519
3.54533
3.54752
3.54679
3.54653
3.55825
3.55674
3.5508
3.55038
3.54053
3.55527
3.54882
3.54796
3.54887
3.54787
3.53172
3.54038
3.5325
3.53643
3.53096
3.53395
3.51302
3.52465
3.51953
3.52189
3.52678
3.52134
3.52133
3.52651
3.51761
3.52498
3.51997
3.52483
3.52825
3.52583
3.52056
3.52539
3.52488
3.5305
3.52401
3.52126
3.53186
3.53128
3.52546
3.52947
3.53079
3.53902
3.53993
3.53069
3.5342
3.5386
3.55004
3.55138
3.54401
3.5454
3.54976
3.53202
3.53681
3.52603
3.53017
3.53086
3.53109
3.5269
3.54478
3.54642
3.5356
3.54074
3.54179
3.54064
3.53805
3.53696
3.53765
3.53867
3.53383
3.53386
3.54088
3.54639
3.541
3.54298
3.54545
3.54067
3.5363
3.53164
3.53821
3.5311
3.53121
3.53944
3.57031
3.58818
3.58077
3.57812
3.58254
3.57819
3.59215
3.58691
3.59556
3.58773
3.59039
3.58908
3.59188
3.56873
3.56026
3.56453
3.56601
3.58134
3.58689
3.58135
3.58379
3.58027
3.58249
3.56984
3.57683
3.57403
3.57831
3.57959
3.5856
3.58476
3.57668
3.58908
3.58937
3.57768
3.56622
3.57696
3.57092
3.5771
3.5941
3.5797
3.58918
3.59498
3.58933
3.59696
3.59544
3.59536
3.5925
3.58989
3.58522
3.57877
3.58922
3.58052
3.58894
3.58683
3.59121
3.59144
3.59339
3.59247
3.58285
3.58909
3.58643
3.5914
3.59194
3.59046
3.59375
3.53361
3.5283
3.52578
3.53135
3.52717
3.5269
3.53156
3.5344
3.54282
3.53522
3.54174
3.53573
3.53685
3.54218
3.5431
3.54644
3.55185
3.54239
3.54541
3.54546
3.5431
3.54358
3.53302
3.53558
3.53775
3.54151
3.53811
3.53689
3.52903
3.53624
3.53899
3.53784
3.53348
3.53456
3.53571
3.5315
3.53932
3.53633
3.53734
3.53272
3.53537
3.53623
3.54449
3.53796
3.53539
3.53695
3.54128
3.53687
3.53746
3.51654
3.50812
3.51374
3.5106
3.51585
3.51576
3.51094
3.51303
3.50904
3.5119
3.51067
3.50974
3.5059
3.50515
3.50806
3.51073
3.51219
3.50809
3.50798
3.51093
3.52437
3.53781
3.53299
3.52606
3.51409
3.50789
3.52745
3.51738
3.51143
3.51767
3.51737
3.51411
3.5069
3.5126
3.51017
3.5127
3.51092
3.51626
3.52431
3.51896
3.52417
3.52015
3.52204
3.52281
3.53255
3.52278
3.52848
3.5277
3.52272
3.52496
3.53115
3.53037
3.52602
3.5153
3.5162
3.51844
3.52082
3.51443
3.51421
3.52078
3.52332
3.5277
3.51732
3.52218
3.52113
3.52242
3.52212
3.52971
3.53101
3.52373
3.52549
3.5249
3.52442
3.51191
3.51703
3.49845
3.50924
3.51116
3.50886
3.50743
3.51268
3.51891
3.51426
3.52088
3.52361
3.52104
3.51706
3.51848
3.52083
3.51633
3.52529
3.52024
3.52574
3.52348
3.52138
3.51708
3.50762
3.51199
3.51574
3.51068
3.51037
3.5164
3.51991
3.52394
3.51172
3.51756
3.5175
3.51618
3.5212
3.52575
3.51538
3.51912
3.51971
3.52117
3.51643
3.53952
3.5348
3.5356
3.53828
3.51923
3.52093
3.51772
3.52661
3.51994
3.52938
3.52439
3.50067
3.51028
3.50659
3.5047
3.50553
3.53644
3.52418
3.52891
3.53002
3.52102
3.52477
3.54414
3.54041
3.54109
3.5409
3.52234
3.5228
3.53295
3.5318
3.52672
3.5271
3.53311
3.5234
3.54054
3.52793
3.52498
3.52637
3.5286
3.53405
3.53943
3.52553
3.5351
3.53431
3.51588
3.50623
3.51181
3.5164
3.51291
3.51079
3.50916
3.5149
3.50698
3.50454
3.5088
3.51388
3.50585
3.50961
3.50936
3.50592
3.50401
3.50409
3.5066
3.52161
3.50901
3.51793
3.50555
3.50662
3.50287
3.51068
3.51605
3.51662
3.51342
3.51914
3.51105
3.51597
3.50687
3.51764
3.51747
3.52325
3.51868
3.52051
3.51699
3.51665
3.52069
3.52311
3.52947
3.51769
3.50914
3.51391
3.51413
3.51629
3.51342
3.51228
3.51222
3.518
3.52438
3.51884
3.52076
3.51357
3.50655
3.5151
3.51666
3.51813
3.51267
3.51369
3.51381
3.52009
3.51347
3.51603
3.51377
3.52297
3.51338
3.54607
3.54686
3.54173
3.53129
3.52456
3.53115
3.53535
3.54559
3.51673
3.51994
3.52925
3.52234
3.5353
3.52074
3.52476
3.52753
3.52273
3.52637
3.5135
3.52699
3.54002
3.543
3.54356
3.54409
3.52474
3.53285
3.53025
3.52638
3.52845
3.53473
3.52596
3.53027
3.53695
3.51586
3.50267
3.50583
3.51256
3.51071
3.51075
3.51089
3.5248
3.51916
3.52627
3.5151
3.52071
3.52198
3.51372
3.50423
3.51772
3.50988
3.51191
3.5127
3.51452
3.51121
3.50983
3.5142
3.56348
3.56392
3.56326
3.56058
3.56804
3.57169
3.56566
3.56715
3.56923
3.5772
3.55123
3.5351
3.53468
3.53751
3.54482
3.54246
3.54398
3.54583
3.54616
3.54551
3.54422
3.55093
3.55175
3.55578
3.55034
3.55061
3.54827
3.55132
3.55788
3.55371
3.55667
3.55685
3.55277
3.54066
3.54306
3.54384
3.54157
3.54562
3.55341
3.55269
3.54218
3.54922
3.54737
3.54883
3.54591
3.55081
3.55762
3.55093
3.54865
3.5537
3.55491
3.55145
3.56154
3.55557
3.55541
3.57453
3.55471
3.53551
3.54581
3.54616
3.56071
3.56146
3.57162
3.55805
3.54714
3.54052
3.54682
3.53705
3.55161
3.56244
3.57287
3.55937
3.55444
3.55234
3.55993
3.55771
3.55827
3.5564
3.54719
3.56369
3.54992
3.55274
3.55822
3.55964
3.53599
3.55039
3.533
3.54683
3.55306
3.55012
3.55251
3.51361
3.51929
3.52192
3.52147
3.5186
3.51947
3.51428
3.51336
3.51648
3.51798
3.51311
3.51306
3.53785
3.53903
3.52904
3.53513
3.53387
3.53284
3.53395
3.54454
3.55526
3.54914
3.55133
3.55339
3.54864
3.54986
3.55126
3.54943
3.5523
3.5487
3.5376
3.54237
3.54195
3.53999
3.5382
3.54138
3.54644
3.54818
3.55235
3.54118
3.54431
3.54684
3.5502
3.54317
3.52431
3.53048
3.52509
3.5397
3.55047
3.55859
3.55175
3.55384
3.53519
3.5254
3.53175
3.53199
3.52581
3.54296
3.54117
3.53746
3.55122
3.54408
3.54453
3.55124
3.54444
3.53136
3.52833
3.54001
3.53287
3.58651
3.59501
3.58766
3.59104
3.57011
3.56089
3.56993
3.57964
3.58549
3.58504
3.58715
3.58553
3.58094
3.56863
3.57914
3.56945
3.57106
3.59254
3.59822
3.59208
3.56396
3.56454
3.55967
3.56071
3.56186
3.55737
3.55014
3.55263
3.54903
3.56032
3.55498
3.55292
3.55765
3.55652
3.55885
3.56025
3.56403
3.55567
3.55968
3.55844
3.56123
3.56974
3.56546
3.57462
3.57275
3.5942
3.58526
3.59468
3.58804
3.58321
3.58327
3.58973
3.56541
3.56745
3.55727
3.55959
3.56565
3.56972
3.56039
3.57694
3.57711
3.56151
3.57206
3.57182
3.57162
3.57256
3.57782
3.58367
3.57503
3.58065
3.57892
3.57947
3.57776
3.5799
3.56819
3.55983
3.56696
3.56737
3.5666
3.56328
3.56679
3.58906
3.60184
3.59692
3.59687
3.59751
3.59688
3.58302
3.57586
3.59216
3.59916
3.60073
3.58871
3.59535
3.59636
3.59214
3.59397
3.58798
3.59128
3.58318
3.59383
3.59504
3.60384
3.59991
3.58768
3.59059
3.59357
3.58745
3.59568
3.59585
3.58987
3.57412
3.56641
3.5689
3.57664
3.56573
3.57577
3.57862
3.58686
3.58726
3.58847
3.58508
3.58586
3.57751
3.57561
3.58616
3.57867
3.56641
3.56571
3.56822
3.56248
3.56903
3.56712
3.56474
3.55145
3.54634
3.54615
3.54629
3.55185
3.55208
3.54652
3.55868
3.55236
3.55595
3.55801
3.55433
3.55162
3.55962
3.55097
3.55786
3.56131
3.55863
3.55446
3.55568
3.55815
3.56418
3.55467
3.55906
3.55773
3.56064
3.56022
3.55939
3.56219
3.55234
3.55452
3.55546
3.55666
3.55497
3.55739
3.55349
3.56193
3.56476
3.56045
3.55959
3.56042
3.55925
3.55536
3.54923
3.5501
3.56717
3.57256
3.55835
3.56479
3.56957
3.55892
3.54956
3.56347
3.57081
3.55662
3.56229
3.56143
3.56064
3.57536
3.56982
3.57255
3.57021
3.56403
3.56283
3.55701
3.56305
3.54786
3.55364
3.56194
3.55323
3.5506
3.55828
3.56725
3.56072
3.56674
3.56166
3.56552
3.56585
3.56369
3.57323
3.57491
3.57274
3.56827
3.57148
3.57043
3.57141
3.57608
3.57442
3.56817
3.57603
3.57562
3.56922
3.55543
3.55725
3.55961
3.564
3.55828
3.55752
3.5631
3.57182
3.55972
3.56692
3.56553
3.56479
3.56316
3.57252
3.57074
3.56381
3.56655
3.57147
3.57133
3.56468
3.58191
3.59528
3.572
3.58814
3.58017
3.59036
3.56401
3.57298
3.56981
3.57024
3.56579
3.56865
3.56905
3.58767
3.58389
3.59254
3.58752
3.58552
3.58443
3.5885
3.56265
3.56786
3.55679
3.56172
3.56438
3.56522
3.56201
3.57765
3.57997
3.56697
3.57377
3.57471
3.57669
3.57198
3.57334
3.57817
3.56671
3.57252
3.5704
3.57266
3.57038
3.57654
3.58229
3.5793
3.57678
3.58222
3.58267
3.57581
3.57153
3.56615
3.56366
3.56937
3.56489
3.56465
3.56952
3.5927
3.60085
3.59675
3.59832
3.59073
3.59352
3.57403
3.58632
3.58777
3.5917
3.58521
3.59952
3.57549
3.59621
3.59846
3.60319
3.59363
3.60092
3.59342
3.59879
3.59976
3.59597
3.59734
3.60108
3.60148
3.59562
3.58544
3.59019
3.59355
3.58861
3.5888
3.59463
3.5845
3.59612
3.59279
3.59148
3.58181
3.58887
3.5834
3.57664
3.58191
3.57169
3.57934
3.57926
3.57754
3.57737
3.59624
3.60155
3.5889
3.59405
3.59399
3.59471
3.59023
3.59707
3.58914
3.58914
3.59188
3.58849
3.59778
3.59727
3.60018
3.59733
3.60083
3.59992
3.59659
3.58344
3.58557
3.58183
3.58874
3.58385
3.58197
3.58933
3.59591
3.59555
3.60386
3.60229
3.58738
3.59188
3.59549
3.58877
3.59486
3.59487
3.58897
3.58232
3.57256
3.57898
3.57545
3.58206
3.5805
3.57678
3.5764
3.57122
3.56817
3.5764
3.5702
3.57028
3.5765
3.57585
3.58498
3.58327
3.58233
3.57623
3.58054
3.58072
3.59031
3.58228
3.57965
3.58087
3.58571
3.5852
3.58258
3.58803
3.57887
3.58247
3.58097
3.58503
3.58409
3.58374
3.57451
3.58253
3.58545
3.58207
3.57757
3.57944
3.58227
3.59742
3.52521
3.52315
3.51453
3.51867
3.52213
3.5231
3.51798
3.5316
3.52912
3.53437
3.53256
3.53163
3.53041
3.53303
3.55062
3.54743
3.54703
3.54306
3.54609
3.5471
3.54567
3.58645
3.59177
3.59029
3.59329
3.59475
3.59354
3.59099
3.591
3.59345
3.53608
3.53306
3.53943
3.53329
3.53709
3.53612
3.50239
3.51133
3.50544
3.50685
3.51121
3.53142
3.53378
3.52884
3.5319
3.53129
3.53266
3.52941
3.52983
3.52345
3.52457
3.52065
3.50941
3.51581
3.50606
3.51724
3.51691
3.519
3.52134
3.52192
3.52016
3.51914
3.50993
3.50718
3.50893
3.5097
3.50835
3.50839
3.50989
3.52818
3.52383
3.53091
3.5142
3.51687
3.51377
3.55666
3.55986
3.55323
3.55933
3.56192
3.55992
3.554
3.54828
3.57916
3.57433
3.57675
3.57262
3.57688
3.57474
3.57544
3.55318
3.5564
3.55799
3.55693
3.55682
3.55676
3.55686
3.57535
3.58321
3.57158
3.58182
3.58341
3.5798
3.58002
3.57871
3.58307
3.57909
3.58153
3.59869
3.5961
3.60341
3.60236
3.59992
3.60302
3.60237
3.58057
3.5837
3.5816
3.58757
3.58424
3.58347
3.59636
3.59624
3.59874
3.59753
3.51142
3.50777
3.50815
3.50768
3.51068
3.51039
3.51241
3.51193
3.50896
3.51084
3.51128
3.59831
3.59684
3.5966
3.59314
3.59435
3.59696
3.59833
3.60169
3.59424
3.59447
3.59032
3.52027
3.52167
3.53165
3.52492
3.51556
3.51253
3.51685
3.51325
3.51045
3.5115
3.51765
3.50602
3.51016
3.51089
3.51048
3.51329
3.514
3.51068
3.55604
3.55425
3.55246
3.55074
3.55325
3.55405
3.55235
3.53397
3.53619
3.53803
3.53736
3.53534
3.53648
3.53771
3.54447
3.54617
3.53987
3.54345
3.54044
3.54582
3.54096
3.53947
3.54232
3.54046
3.54076
3.54121
3.54121
3.54098
3.55095
3.54663
3.54799
3.54853
3.54923
3.54858
3.54915
3.54733
3.54498
3.54634
3.54373
3.54644
3.54492
3.54554
3.54763
3.54461
3.54314
3.54292
3.54477
3.5449
3.54395
3.55413
3.54873
3.55097
3.55329
3.55498
3.55398
3.55467
3.53556
3.53854
3.54527
3.5455
3.54629
3.55041
3.54136
3.54019
3.52311
3.52572
3.52608
3.52631
3.52616
3.52491
3.5377
3.52126
3.52162
3.52026
3.5213
3.52296
3.52117
3.51748
3.524
3.51576
3.5189
3.5249
3.51778
3.53184
3.53134
3.53415
3.5305
3.55254
3.55596
3.55023
3.55121
3.55246
3.55184
3.54855
3.52868
3.53045
3.53127
3.53139
3.5288
3.53055
3.53128
3.53751
3.54182
3.53565
3.53243
3.53615
3.54079
3.53326
3.53176
3.53614
3.5411
3.53843
3.5376
3.53848
3.54158
3.54205
3.53902
3.54134
3.54467
3.5444
3.54478
3.54422
3.53709
3.53786
3.53488
3.53312
3.53541
3.53328
3.5808
3.57892
3.58574
3.58279
3.58204
3.58238
3.58388
3.59473
3.59301
3.59134
3.59443
3.56489
3.56757
3.58173
3.58055
3.5772
3.57369
3.57813
3.57664
3.57848
3.57668
3.57496
3.5773
3.58263
3.58016
3.57963
3.58103
3.57855
3.58179
3.57811
3.57969
3.57309
3.58579
3.5909
3.59026
3.59202
3.58617
3.58613
3.59017
3.59848
3.58786
3.58421
3.58618
3.58452
3.583
3.58325
3.58546
3.59784
3.58866
3.58364
3.58934
3.5891
3.52799
3.53219
3.53028
3.53034
3.52994
3.53043
3.52989
3.53473
3.53569
3.53899
3.5365
3.53587
3.53631
3.53809
3.54827
3.54319
3.54358
3.54291
3.54204
3.54228
3.53394
3.53489
3.53001
3.53283
3.53053
3.53433
3.53151
3.5417
3.53875
3.54432
3.54091
3.54168
3.54028
3.54279
3.54033
3.53843
3.54448
3.54112
3.541
3.53957
3.54323
3.53309
3.53451
3.53137
3.53107
3.53297
3.53432
3.53271
3.51315
3.51275
3.51085
3.51437
3.51507
3.51446
3.51477
3.50853
3.51105
3.50764
3.51254
3.51193
3.51074
3.50861
3.51069
3.50927
3.51576
3.5104
3.51073
3.50781
3.50917
3.51442
3.50999
3.50945
3.53518
3.52772
3.52483
3.52921
3.53239
3.53218
3.51134
3.52052
3.52328
3.52777
3.52006
3.51737
3.51939
3.51172
3.51623
3.50786
3.51213
3.51063
3.5126
3.50906
3.5107
3.51076
3.52897
3.52646
3.52764
3.5252
3.52781
3.52636
3.52718
3.53828
3.52824
3.53042
3.52415
3.526
3.52409
3.52541
3.52561
3.52642
3.52141
3.52278
3.52427
3.52175
3.52356
3.5216
3.52435
3.52136
3.52347
3.52572
3.5251
3.52345
3.52331
3.52433
3.5199
3.5204
3.52688
3.52606
3.51661
3.52425
3.51807
3.5052
3.50869
3.50565
3.50437
3.51048
3.5042
3.52358
3.52702
3.51967
3.52602
3.52323
3.52855
3.52507
3.52598
3.52367
3.52613
3.52175
3.51805
3.51708
3.52231
3.5223
3.52148
3.52223
3.51295
3.51545
3.51298
3.51499
3.51462
3.51476
3.51456
3.51052
3.51717
3.51656
3.517
3.51298
3.5185
3.51471
3.51884
3.51962
3.5221
3.52217
3.51803
3.51942
3.52228
3.52446
3.52455
3.5238
3.52028
3.52857
3.52233
3.52176
3.52241
3.52328
3.51703
3.53117
3.51574
3.52499
3.52342
3.52894
3.52178
3.51223
3.50995
3.50935
3.52581
3.5187
3.5157
3.51603
3.53948
3.53656
3.5356
3.54121
3.54034
3.5383
3.53982
3.53088
3.53419
3.52826
3.52668
3.5299
3.52449
3.52776
3.54069
3.52908
3.53544
3.52451
3.52892
3.52843
3.52568
3.53405
3.52846
3.53459
3.53416
3.53015
3.52759
3.53202
3.53185
3.52743
3.51346
3.51267
3.51073
3.50971
3.51272
3.51154
3.51087
3.50575
3.50572
3.50536
3.50243
3.51037
3.50621
3.50665
3.50413
3.50759
3.50458
3.50712
3.51096
3.50516
3.51047
3.51094
3.51073
3.50973
3.50502
3.51199
3.50864
3.52157
3.51623
3.51183
3.51495
3.51692
3.51595
3.51247
3.51495
3.51654
3.51493
3.51418
3.51422
3.51478
3.51959
3.51604
3.52334
3.50933
3.50953
3.50435
3.50924
3.50971
3.5123
3.51063
3.52553
3.52092
3.52311
3.5201
3.52097
3.52184
3.52401
3.51964
3.51744
3.52019
3.52054
3.51866
3.51978
3.52238
3.51208
3.50673
3.5115
3.50842
3.51409
3.5139
3.54351
3.53668
3.53841
3.54433
3.54071
3.53677
3.53261
3.51359
3.51661
3.51657
3.51423
3.51882
3.50964
3.51398
3.52071
3.51589
3.51786
3.52235
3.51659
3.51975
3.52032
3.52549
3.52106
3.54137
3.53258
3.53336
3.5319
3.53629
3.52967
3.5395
3.52864
3.50678
3.52054
3.5213
3.52477
3.51812
3.51604
3.52068
3.52071
3.52642
3.51956
3.52209
3.52495
3.51608
3.51757
3.51561
3.51483
3.51493
3.51409
3.51573
3.5623
3.56558
3.56203
3.56234
3.57743
3.57827
3.53941
3.53797
3.53777
3.55082
3.54892
3.54941
3.54885
3.55191
3.55289
3.55101
3.55717
3.55376
3.55825
3.55634
3.55766
3.55734
3.55979
3.5533
3.55394
3.55656
3.5495
3.54864
3.5516
3.54596
3.54935
3.54773
3.54503
3.5469
3.54791
3.54507
3.54451
3.54942
3.54767
3.55007
3.54552
3.54662
3.5474
3.55017
3.54754
3.54887
3.54881
3.55725
3.54855
3.53738
3.53646
3.53759
3.53347
3.54538
3.54709
3.55541
3.5504
3.55325
3.55391
3.54978
3.57245
3.55001
3.5479
3.55054
3.54657
3.54782
3.54457
3.55147
3.55657
3.54737
3.5214
3.52386
3.52142
3.52087
3.51657
3.53508
3.53572
3.53321
3.53377
3.53297
3.55576
3.55136
3.55616
3.55282
3.55438
3.55443
3.55382
3.54716
3.54505
3.5431
3.54541
3.54731
3.54624
3.54609
3.54877
3.54267
3.54508
3.54354
3.55643
3.54234
3.54487
3.54366
3.54638
3.54206
3.54508
3.54396
3.55645
3.5302
3.5272
3.56025
3.5523
3.52486
3.53015
3.52458
3.52776
3.52293
3.52877
3.52772
3.53511
3.54316
3.54575
3.53816
3.54089
3.54349
3.54244
3.54463
3.58683
3.59402
3.59577
3.55786
3.56141
3.56207
3.57829
3.57721
3.57965
3.57733
3.57889
3.58293
3.57947
3.59041
3.59605
3.55195
3.55335
3.56703
3.55908
3.55787
3.56342
3.56897
3.55077
3.555
3.5621
3.54615
3.55912
3.5543
3.56144
3.5722
3.55605
3.55855
3.55079
3.55786
3.57784
3.58426
3.58378
3.58793
3.58218
3.58496
3.58429
3.58671
3.58245
3.55793
3.56058
3.55918
3.56338
3.55904
3.56055
3.55977
3.56975
3.57157
3.57373
3.56848
3.57167
3.5695
3.57426
3.57358
3.57138
3.57256
3.5765
3.57511
3.57636
3.57491
3.58021
3.57802
3.57828
3.5751
3.57567
3.5757
3.57731
3.56832
3.56783
3.57206
3.56965
3.56846
3.60326
3.59869
3.60166
3.60276
3.60016
3.60233
3.58093
3.57629
3.59724
3.59527
3.59306
3.59021
3.59267
3.59284
3.58513
3.59473
3.59294
3.60401
3.58986
3.5913
3.59059
3.59284
3.595
3.59532
3.59588
3.60298
3.58841
3.58525
3.58391
3.58625
3.5879
3.58754
3.58616
3.57906
3.57881
3.57971
3.57693
3.56982
3.57778
3.58112
3.58012
3.57915
3.58531
3.58775
3.57752
3.57556
3.58265
3.56454
3.56235
3.56038
3.5602
3.56039
3.56241
3.5592
3.55042
3.54739
3.54968
3.55037
3.55052
3.55037
3.55088
3.55654
3.55908
3.55752
3.55627
3.55784
3.55754
3.55679
3.56403
3.56082
3.56663
3.56264
3.56403
3.56157
3.56423
3.55432
3.55598
3.55028
3.55304
3.55329
3.55441
3.5523
3.55221
3.55527
3.54935
3.5515
3.55197
3.55332
3.55006
3.56576
3.56143
3.5671
3.56444
3.56495
3.56301
3.566
3.57254
3.56443
3.57462
3.57205
3.5712
3.55855
3.57275
3.56243
3.56125
3.56869
3.5653
3.55844
3.55956
3.56398
3.56409
3.56172
3.56377
3.5607
3.56685
3.56603
3.56625
3.54919
3.55447
3.55224
3.55266
3.54915
3.55351
3.55174
3.57273
3.57172
3.57153
3.56708
3.57187
3.57131
3.57112
3.57842
3.57378
3.57742
3.57604
3.57701
3.57283
3.57903
3.56725
3.56069
3.57074
3.56997
3.56334
3.56438
3.56672
3.5651
3.56537
3.56527
3.56558
3.5641
3.56658
3.56862
3.56775
3.5654
3.56674
3.56841
3.56572
3.56572
3.56988
3.57413
3.5753
3.57463
3.57328
3.57903
3.57624
3.57516
3.57382
3.57612
3.58736
3.59075
3.58372
3.5874
3.58738
3.58866
3.58601
3.55765
3.56135
3.55892
3.56444
3.56282
3.56411
3.55993
3.56892
3.57265
3.57119
3.57335
3.57043
3.57264
3.57171
3.57082
3.57357
3.5751
3.57609
3.57159
3.57388
3.57242
3.57767
3.57469
3.5762
3.5784
3.5768
3.57646
3.57842
3.56622
3.5707
3.5688
3.56903
3.56845
3.56913
3.56845
3.58203
3.58331
3.58337
3.58338
3.58475
3.58437
3.58475
3.59217
3.59678
3.59546
3.59706
3.59265
3.59619
3.59513
3.59589
3.60003
3.60061
3.59666
3.59953
3.59892
3.59847
3.59207
3.59498
3.59329
3.59321
3.59332
3.59319
3.59284
3.59253
3.59074
3.59423
3.59175
3.57715
3.58039
3.58143
3.58062
3.57793
3.58013
3.58106
3.59187
3.59412
3.59498
3.59494
3.59157
3.5938
3.59493
3.5888
3.58984
3.58906
3.58706
3.58732
3.59177
3.59372
3.58949
3.58639
3.58987
3.59159
3.59038
3.59022
3.59006
3.59031
3.60166
3.59834
3.60163
3.59957
3.59989
3.5981
3.60132
3.60006
3.60085
3.59811
3.592
3.5873
3.58849
3.58976
3.59034
3.58965
3.59033
3.57902
3.57705
3.57607
3.58152
3.58233
3.58111
3.5802
3.57098
3.57569
3.57254
3.57569
3.57496
3.57546
3.57627
3.58657
3.58545
3.59148
3.5879
3.5869
3.58451
3.58826
3.57642
3.57938
3.57327
3.57726
3.57637
3.57788
3.57474
3.57789
3.5793
3.57328
3.57604
3.57737
3.5774
3.57478
3.58859
3.58533
3.59152
3.58728
3.58864
3.58554
3.58829
3.53385
3.51206
3.51616
3.51184
3.51307
3.51246
3.50723
3.51573
3.51434
3.51705
3.51744
3.51556
3.51431
3.51375
3.52186
3.51915
3.52
3.51669
3.51962
3.5188
3.51882
3.51799
3.51843
3.52096
3.51948
3.52122
3.52084
3.51962
3.51517
3.51187
3.51227
3.51502
3.51487
3.51547
3.51393
3.517
3.51873
3.51444
3.51411
3.51711
3.51593
3.51278
3.5189
3.52249
3.51569
3.5184
3.51783
3.51745
3.51546
3.53752
3.53486
3.53635
3.53274
3.53722
3.53497
3.53425
3.53994
3.53866
3.53724
3.53547
3.53838
3.53765
3.53712
3.52682
3.52965
3.52445
3.52655
3.52682
3.52847
3.52501
3.53324
3.5344
3.5292
3.53187
3.53274
3.53293
3.53078
3.53283
3.53657
3.53052
3.53432
3.5336
3.53444
3.53282
3.53389
3.53581
3.53796
3.53587
3.53562
3.53518
3.53606
3.53206
3.52789
3.52908
3.53039
3.53085
3.53008
3.5309
3.54121
3.54876
3.55014
3.54953
3.5506
3.55164
3.54942
3.54218
3.54137
3.53877
3.54058
3.54285
3.54083
3.53734
3.53729
3.54209
3.5454
3.54049
3.53675
3.54884
3.54531
3.54857
3.54171
3.54094
3.54455
3.54496
3.53901
3.5401
3.5458
3.54028
3.54135
3.54776
3.5444
3.54868
3.5473
3.52136
3.52495
3.52735
3.52758
3.53044
3.53342
3.52915
3.52921
3.52735
3.52308
3.52898
3.53569
3.53913
3.53378
3.53627
3.53527
3.53612
3.53315
3.53511
3.53799
3.54169
3.54317
3.53386
3.53201
3.53527
3.54457
3.53755
3.53642
3.53892
3.53906
3.54086
3.54068
3.5412
3.54315
3.54356
3.5427
3.54265
3.54229
3.5358
3.53327
3.53579
3.53772
3.53787
3.53761
3.53769
3.54069
3.54327
3.53605
3.54075
3.5409
3.53974
3.53688
3.54119
3.54402
3.53836
3.53856
3.54108
3.53911
3.53778
3.58415
3.58158
3.58336
3.58601
3.585
3.58384
3.59641
3.59794
3.59187
3.59508
3.5942
3.5967
3.59323
3.60183
3.60027
3.60144
3.59686
3.59834
3.59361
3.59655
3.5999
3.59798
3.59824
3.59198
3.59466
3.59543
3.5968
3.59243
3.59492
3.59524
3.5972
3.53573
3.53601
3.54076
3.53622
3.53873
3.52859
3.53386
3.53277
3.52689
3.52664
3.5309
3.52646
3.54073
3.53504
3.53205
3.53783
3.52796
3.53327
3.53289
3.53329
3.53023
3.53247
3.54283
3.53192
3.53053
3.53166
3.53357
3.53171
3.53013
3.5347
3.53248
3.53292
3.52934
3.53277
3.53437
3.53056
3.50051
3.50521
3.50342
3.50474
3.50329
3.5061
3.50807
3.50671
3.50624
3.50639
3.5067
3.5052
3.50418
3.50285
3.50358
3.50519
3.50416
3.5045
3.50332
3.51821
3.51556
3.51896
3.50981
3.5179
3.50256
3.5095
3.50396
3.50586
3.51253
3.50981
3.507
3.51385
3.49578
3.50356
3.50274
3.50808
3.51424
3.5162
3.5163
3.51381
3.51312
3.51077
3.50728
3.50445
3.5274
3.53443
3.53784
3.53713
3.53238
3.53293
3.53316
3.52045
3.526
3.52743
3.52384
3.52409
3.52367
3.53505
3.53474
3.53951
3.53432
3.53489
3.53295
3.53589
3.53246
3.52894
3.53381
3.53135
3.53215
3.53059
3.53085
3.52781
3.52586
3.53435
3.53439
3.52642
3.52901
3.53369
3.52572
3.52578
3.52979
3.52983
3.52998
3.52898
3.53069
3.53456
3.53536
3.5371
3.53572
3.53593
3.53505
3.53405
3.52819
3.52794
3.53108
3.52945
3.52821
3.5287
3.53113
3.51665
3.52484
3.52428
3.52409
3.52533
3.5246
3.52633
3.53741
3.53215
3.54292
3.53524
3.54229
3.53309
3.53821
3.53138
3.51915
3.52893
3.52936
3.53107
3.52862
3.53383
3.52781
3.53059
3.52669
3.53038
3.5275
3.52495
3.52587