/*--------------------------------*- C++ -*----------------------------------*\
| =========                 |                                                 |
| \\      /  F ield         | OpenFOAM: The Open Source CFD Toolbox           |
|  \\    /   O peration     | Version:  v1612+                                |
|   \\  /    A nd           | Web:      www.OpenFOAM.com                      |
|    \\/     M anipulation  |                                                 |
\*---------------------------------------------------------------------------*/
FoamFile
{
    version     2.0;
    format      ascii;
    class       volScalarField;
    location    "50";
    object      p;
}
// * * * * * * * * * * * * * * * * * * * * * * * * * * * * * * * * * * * * * //

dimensions      [0 2 -2 0 0 0 0];

internalField   nonuniform List<scalar> 
21369
(
3.63913
3.69818
3.66218
3.66275
3.68367
3.6826
3.60887
3.63806
3.61434
3.70882
3.67346
3.68386
3.63609
3.64732
3.63898
3.66822
3.62377
3.62255
3.6286
3.63988
3.63819
3.63317
3.69334
3.62304
3.61186
3.6558
3.68822
3.61023
3.63964
3.63277
3.60544
3.61456
3.64905
3.67347
3.6541
3.66356
3.69164
3.61122
3.61266
3.62698
3.65162
3.648
3.6805
3.68595
3.67835
3.68089
3.60702
3.62518
3.61913
3.69489
3.69276
3.64914
3.67159
3.69504
3.658
3.66028
3.63147
3.66466
3.66354
3.61143
3.65137
3.63827
3.67294
3.67118
3.69783
3.68594
3.67738
3.63314
3.64734
3.63916
3.67983
3.6686
3.67884
3.67465
3.60722
3.60861
3.58905
3.65484
3.65353
3.66805
3.68268
3.64591
3.67595
3.64973
3.66673
3.61299
3.66674
3.63235
3.6685
3.70287
3.69937
3.66605
3.67389
3.66582
3.68543
3.62618
3.60502
3.67008
3.65163
3.66122
3.63617
3.6101
3.61039
3.67317
3.64026
3.62695
3.68751
3.64009
3.68103
3.6865
3.6512
3.63926
3.62218
3.62027
3.64125
3.617
3.6529
3.65969
3.6665
3.70341
3.64604
3.63985
3.68701
3.64054
3.64153
3.6826
3.62405
3.6799
3.66996
3.64113
3.63111
3.6717
3.63051
3.63099
3.63952
3.69538
3.67752
3.66704
3.67751
3.68683
3.6999
3.6296
3.62033
3.67226
3.65169
3.65034
3.69649
3.67462
3.61694
3.6512
3.66052
3.69884
3.67118
3.675
3.70754
3.70405
3.68396
3.64202
3.66115
3.69381
3.68673
3.68459
3.60456
3.63495
3.69215
3.6884
3.67945
3.70312
3.70046
3.66812
3.60601
3.6682
3.68683
3.64152
3.64336
3.69118
3.69256
3.67643
3.67944
3.68776
3.68439
3.67703
3.67633
3.66574
3.66492
3.63256
3.69146
3.68361
3.68799
3.6841
3.67997
3.67815
3.68234
3.67604
3.61247
3.62144
3.62735
3.67645
3.67406
3.6929
3.68902
3.63546
3.63249
3.64135
3.64016
3.69156
3.6685
3.66909
3.69941
3.64582
3.63936
3.6528
3.69016
3.68425
3.63538
3.63456
3.68097
3.68922
3.67561
3.64944
3.65072
3.68436
3.68895
3.67842
3.68312
3.61468
3.6879
3.68657
3.64218
3.63272
3.62919
3.63442
3.66276
3.66978
3.6583
3.62842
3.68873
3.69457
3.62199
3.62205
3.61429
3.62565
3.62544
3.6158
3.69575
3.64872
3.60286
3.64018
3.63783
3.64429
3.66489
3.6053
3.69518
3.69309
3.68279
3.61253
3.60694
3.60774
3.60203
3.64019
3.63994
3.64059
3.65639
3.6613
3.6915
3.69062
3.6987
3.60697
3.61426
3.62227
3.60121
3.60943
3.61422
3.61269
3.61114
3.64969
3.6875
3.68013
3.68017
3.63304
3.63274
3.63598
3.6411
3.69553
3.61494
3.62257
3.63239
3.6535
3.65341
3.65379
3.66344
3.65874
3.66165
3.6077
3.61038
3.60054
3.60056
3.64857
3.64463
3.61179
3.65087
3.62665
3.63095
3.63474
3.6482
3.60545
3.61747
3.61345
3.60929
3.66169
3.66826
3.6882
3.69758
3.68764
3.6846
3.68441
3.68634
3.68654
3.69248
3.69439
3.70266
3.69545
3.68816
3.69639
3.60492
3.61944
3.61879
3.62117
3.63544
3.63262
3.6256
3.63533
3.62699
3.64073
3.66548
3.66556
3.6533
3.65032
3.65202
3.64881
3.64578
3.64781
3.65229
3.64521
3.64089
3.6506
3.65549
3.64537
3.65919
3.65459
3.64683
3.64792
3.6524
3.64996
3.68778
3.70355
3.65132
3.649
3.63358
3.63308
3.64005
3.63805
3.61623
3.63754
3.61884
3.62022
3.61173
3.61119
3.609
3.61102
3.6081
3.62405
3.62556
3.64086
3.6274
3.62461
3.62355
3.62492
3.61517
3.60835
3.70037
3.65932
3.65855
3.60364
3.60962
3.64235
3.65046
3.64258
3.65679
3.64591
3.65509
3.69687
3.64249
3.64644
3.63954
3.68874
3.66884
3.62438
3.64344
3.60768
3.70009
3.70303
3.62811
3.62642
3.59344
3.59732
3.6709
3.66914
3.60479
3.59815
3.60293
3.6124
3.64486
3.60911
3.68033
3.6787
3.68341
3.63007
3.62826
3.62423
3.66188
3.65685
3.63489
3.64515
3.65102
3.65054
3.60584
3.61433
3.64039
3.63966
3.66629
3.62037
3.62761
3.61438
3.61709
3.65771
3.65027
3.64265
3.64936
3.65534
3.61674
3.65382
3.6491
3.64009
3.67156
3.59937
3.70689
3.66043
3.6935
3.70198
3.65394
3.63552
3.6615
3.6923
3.65087
3.61992
3.64249
3.69812
3.64083
3.63865
3.64615
3.69483
3.60985
3.60819
3.62199
3.61734
3.64937
3.65365
3.66917
3.63841
3.62286
3.68679
3.63916
3.65594
3.6458
3.69616
3.6781
3.63895
3.69613
3.62057
3.61272
3.68848
3.70485
3.69931
3.7048
3.69754
3.69168
3.69585
3.63729
3.63889
3.63456
3.64116
3.68604
3.65153
3.66372
3.61219
3.61621
3.6689
3.6397
3.66274
3.6605
3.6768
3.69432
3.66105
3.67604
3.68898
3.68796
3.59983
3.59759
3.61974
3.62281
3.62284
3.63022
3.64783
3.64208
3.6804
3.69085
3.63192
3.64037
3.65795
3.61097
3.65099
3.63181
3.68368
3.68845
3.68917
3.65276
3.67364
3.62775
3.68079
3.62133
3.64548
3.64044
3.67545
3.61143
3.64103
3.60623
3.66856
3.60843
3.64172
3.6099
3.60736
3.65853
3.65152
3.68511
3.68563
3.60966
3.65808
3.65811
3.64444
3.68341
3.68139
3.67127
3.66716
3.66812
3.65328
3.66013
3.66591
3.66496
3.66128
3.68021
3.66964
3.66881
3.68489
3.69514
3.65021
3.6402
3.69416
3.68188
3.67246
3.67275
3.66767
3.6288
3.63118
3.62974
3.66909
3.65012
3.6208
3.66187
3.67191
3.63449
3.69566
3.61419
3.61935
3.60285
3.6095
3.60488
3.6085
3.64493
3.64225
3.6346
3.6778
3.65375
3.69956
3.64698
3.6378
3.63677
3.62991
3.69894
3.63975
3.65909
3.66664
3.66265
3.66788
3.66884
3.66378
3.66287
3.67726
3.66705
3.62321
3.64468
3.64065
3.69559
3.63678
3.60478
3.59996
3.59738
3.60837
3.68181
3.68426
3.68244
3.61643
3.61098
3.66134
3.67628
3.66744
3.65386
3.68579
3.65694
3.62818
3.60494
3.69233
3.67494
3.67747
3.69324
3.61417
3.64181
3.62964
3.6332
3.68003
3.65737
3.68261
3.65588
3.61503
3.65764
3.64039
3.63842
3.62766
3.65391
3.6343
3.69753
3.64365
3.60607
3.69972
3.69187
3.6969
3.68722
3.69936
3.69267
3.6874
3.65172
3.65923
3.64168
3.65817
3.62649
3.6581
3.63713
3.632
3.61906
3.6029
3.61704
3.60565
3.66755
3.66216
3.69613
3.6955
3.69714
3.68673
3.68067
3.67998
3.69338
3.68589
3.69663
3.68537
3.69654
3.68575
3.69671
3.69535
3.69181
3.69069
3.68388
3.68069
3.6794
3.69486
3.62207
3.60251
3.61161
3.61262
3.61473
3.60222
3.64239
3.63162
3.65014
3.6249
3.61566
3.61302
3.611
3.62016
3.64021
3.64568
3.63918
3.63784
3.6255
3.60739
3.61036
3.61005
3.61852
3.6271
3.62928
3.6143
3.62085
3.65382
3.65051
3.67189
3.68285
3.68072
3.6735
3.68325
3.68524
3.67159
3.68232
3.66877
3.67512
3.66883
3.67097
3.67872
3.67218
3.664
3.67972
3.66764
3.65861
3.66736
3.67241
3.6656
3.66504
3.6582
3.64789
3.66047
3.61388
3.6209
3.60941
3.6154
3.62032
3.62035
3.60785
3.6602
3.64991
3.67082
3.66014
3.66122
3.65521
3.66765
3.63152
3.62671
3.6425
3.63782
3.63273
3.63172
3.64545
3.63793
3.6296
3.65094
3.63896
3.64536
3.63745
3.64722
3.63413
3.62408
3.62762
3.63391
3.62517
3.62229
3.63678
3.64539
3.65194
3.66238
3.64799
3.65803
3.65934
3.64989
3.6543
3.68385
3.68292
3.69659
3.68598
3.69831
3.69235
3.69581
3.65779
3.6705
3.65121
3.67407
3.61731
3.61731
3.66038
3.64192
3.64963
3.66388
3.65262
3.64927
3.63082
3.67359
3.67171
3.59265
3.60689
3.61048
3.60074
3.61051
3.67685
3.68068
3.68023
3.68296
3.68301
3.68282
3.68217
3.65475
3.66469
3.64968
3.6579
3.65747
3.66053
3.65471
3.61851
3.62219
3.62164
3.62273
3.6274
3.60384
3.6057
3.60554
3.65255
3.69823
3.6956
3.69489
3.67532
3.65851
3.67801
3.67021
3.67487
3.69766
3.69623
3.6952
3.68564
3.67796
3.67798
3.68571
3.69932
3.69661
3.69765
3.6967
3.69794
3.605
3.60834
3.60771
3.60999
3.60907
3.61023
3.60953
3.65181
3.64443
3.62638
3.63594
3.63876
3.63704
3.62
3.62767
3.63758
3.627
3.63136
3.63173
3.63764
3.60448
3.61345
3.60696
3.61212
3.60477
3.60549
3.61101
3.64685
3.63645
3.64043
3.63937
3.63245
3.62862
3.62638
3.63562
3.67566
3.6697
3.67339
3.67229
3.67774
3.67761
3.67265
3.65867
3.65332
3.66083
3.65398
3.6818
3.67538
3.68524
3.68516
3.68065
3.68154
3.68119
3.68445
3.64895
3.65507
3.65239
3.66572
3.65927
3.65913
3.65704
3.65103
3.63845
3.61473
3.6088
3.61775
3.61284
3.61301
3.61224
3.61371
3.65687
3.66297
3.66082
3.65908
3.66165
3.66235
3.66103
3.64728
3.64352
3.64155
3.64591
3.64286
3.64149
3.64419
3.64068
3.64063
3.63851
3.64298
3.64107
3.63869
3.6323
3.63821
3.63381
3.63597
3.6306
3.63032
3.63602
3.65551
3.64535
3.65326
3.64583
3.6542
3.65247
3.64753
3.62561
3.63765
3.64054
3.63723
3.63401
3.66043
3.66077
3.65864
3.63564
3.6376
3.6382
3.64282
3.64001
3.63938
3.63709
3.64534
3.64274
3.65051
3.64144
3.61358
3.6212
3.61159
3.60436
3.64851
3.6992
3.69136
3.6982
3.68921
3.69426
3.69358
3.69455
3.6932
3.68317
3.69197
3.689
3.68363
3.68796
3.68871
3.69085
3.68589
3.68284
3.68951
3.684
3.6839
3.6896
3.69602
3.69924
3.69581
3.70128
3.70182
3.69534
3.68927
3.68944
3.69393
3.69429
3.69344
3.69481
3.69081
3.6843
3.69714
3.69146
3.69144
3.6888
3.69337
3.64249
3.64603
3.64967
3.65025
3.6463
3.64812
3.66908
3.65531
3.65394
3.65615
3.65559
3.65696
3.66238
3.65067
3.65463
3.64831
3.66085
3.65893
3.65932
3.61778
3.61808
3.61791
3.61383
3.64792
3.6682
3.67209
3.67004
3.6766
3.6611
3.65899
3.64692
3.6568
3.66697
3.66913
3.67175
3.6647
3.66901
3.65806
3.66912
3.66081
3.64745
3.64892
3.64316
3.63904
3.64365
3.6434
3.63371
3.64188
3.63671
3.64115
3.64441
3.63204
3.64659
3.63861
3.63797
3.64297
3.6902
3.6925
3.69523
3.70512
3.63192
3.62534
3.61843
3.62539
3.62512
3.60518
3.59761
3.60124
3.61347
3.61138
3.60535
3.61243
3.60735
3.62255
3.60424
3.60042
3.60514
3.67877
3.60563
3.5977
3.60062
3.60576
3.60942
3.60184
3.60896
3.69632
3.69045
3.70327
3.69275
3.6988
3.67647
3.69464
3.69005
3.70066
3.6902
3.6903
3.69873
3.69848
3.70222
3.69709
3.70213
3.69936
3.69773
3.69892
3.70218
3.69988
3.70165
3.69959
3.69973
3.70174
3.69069
3.70035
3.69927
3.69752
3.70007
3.67789
3.68187
3.68234
3.68445
3.66968
3.70239
3.70273
3.69082
3.69666
3.68841
3.68991
3.6897
3.69194
3.68387
3.68397
3.68733
3.68302
3.67635
3.68861
3.67762
3.67627
3.68472
3.69604
3.68815
3.68302
3.68323
3.69239
3.68887
3.69201
3.68568
3.68417
3.68707
3.66524
3.68395
3.67918
3.69816
3.70092
3.68455
3.69068
3.68842
3.67123
3.67115
3.6735
3.6818
3.69616
3.67858
3.68907
3.69071
3.67584
3.70061
3.7004
3.70892
3.68724
3.67983
3.68521
3.68584
3.68848
3.68237
3.70225
3.69351
3.69148
3.69778
3.69603
3.69494
3.69938
3.69975
3.69369
3.69805
3.70431
3.70004
3.70002
3.69544
3.68901
3.69305
3.69507
3.69099
3.68789
3.69666
3.70142
3.69284
3.69586
3.69581
3.69467
3.69545
3.69169
3.68688
3.69311
3.69559
3.68786
3.68071
3.67703
3.67884
3.67485
3.68254
3.68411
3.67724
3.69068
3.69306
3.68931
3.68159
3.67889
3.68902
3.68416
3.68859
3.69787
3.68288
3.68909
3.69038
3.69021
3.69541
3.60263
3.60702
3.60735
3.5968
3.62682
3.61825
3.6311
3.62418
3.62162
3.61899
3.62593
3.60268
3.60533
3.59917
3.59993
3.61443
3.61572
3.60362
3.60872
3.6114
3.61213
3.60734
3.60889
3.61273
3.60372
3.60897
3.60862
3.60471
3.61166
3.61816
3.61575
3.61269
3.61746
3.6178
3.61155
3.60676
3.60141
3.59864
3.60516
3.60006
3.60008
3.60523
3.61257
3.62256
3.63172
3.64673
3.64939
3.65367
3.65518
3.65034
3.65076
3.6416
3.6397
3.64092
3.64113
3.64647
3.64295
3.64807
3.62138
3.6225
3.63008
3.62402
3.63006
3.62962
3.62452
3.61775
3.60835
3.61401
3.61094
3.61737
3.61599
3.61122
3.60725
3.61055
3.62009
3.61109
3.61426
3.62526
3.6175
3.61575
3.61402
3.61974
3.62142
3.61592
3.62432
3.61182
3.61752
3.61475
3.61988
3.61442
3.61945
3.61204
3.61552
3.62791
3.6398
3.63873
3.63594
3.6312
3.63437
3.63573
3.65067
3.6398
3.64503
3.64959
3.64229
3.62648
3.61675
3.62323
3.62231
3.62268
3.61839
3.62828
3.62768
3.6374
3.64166
3.62924
3.63452
3.63482
3.63587
3.62908
3.64088
3.63528
3.64122
3.64137
3.63702
3.62776
3.62477
3.63059
3.62525
3.6218
3.62908
3.63494
3.61808
3.62689
3.63862
3.64692
3.64592
3.65023
3.60934
3.61541
3.61919
3.61654
3.618
3.61011
3.60739
3.6053
3.60653
3.60599
3.60527
3.60657
3.61168
3.60622
3.61242
3.60977
3.60668
3.61089
3.60755
3.61039
3.60542
3.6093
3.60775
3.60196
3.60347
3.60472
3.61951
3.61652
3.61537
3.615
3.62714
3.62018
3.6211
3.62019
3.62022
3.62625
3.62125
3.61195
3.6015
3.6084
3.61503
3.60887
3.616
3.61666
3.61558
3.61483
3.6193
3.61939
3.62366
3.63234
3.62624
3.62824
3.62956
3.62196
3.61983
3.60933
3.61567
3.61111
3.62328
3.6118
3.62196
3.62101
3.62145
3.61297
3.61918
3.62702
3.65362
3.65652
3.66149
3.65718
3.64671
3.64883
3.65623
3.69151
3.66863
3.66902
3.66926
3.67128
3.66578
3.6666
3.67156
3.68347
3.68977
3.68744
3.68936
3.68286
3.68302
3.68925
3.67733
3.68394
3.68209
3.67798
3.68398
3.68448
3.67785
3.6853
3.67799
3.67513
3.67684
3.68151
3.68066
3.67799
3.67122
3.67951
3.6777
3.67782
3.67271
3.67566
3.67625
3.67344
3.68375
3.68017
3.67955
3.67819
3.68018
3.6778
3.68341
3.67462
3.67136
3.6752
3.67612
3.67604
3.67634
3.68102
3.68228
3.69223
3.68536
3.68386
3.68309
3.68786
3.68045
3.67107
3.67004
3.67147
3.67699
3.67395
3.67306
3.6646
3.67181
3.6683
3.68185
3.68187
3.6821
3.6797
3.67922
3.67919
3.6707
3.67206
3.6692
3.67743
3.66741
3.67875
3.67671
3.6719
3.67221
3.67719
3.6605
3.65744
3.65679
3.66465
3.66659
3.66418
3.67499
3.66754
3.67409
3.67395
3.67494
3.65938
3.66556
3.66804
3.66526
3.66467
3.65907
3.68226
3.682
3.67752
3.67575
3.68811
3.68147
3.6823
3.68159
3.68199
3.6769
3.66895
3.67404
3.66818
3.67299
3.67085
3.66964
3.67153
3.66237
3.66001
3.66335
3.6643
3.66395
3.6647
3.66357
3.66416
3.66122
3.66638
3.65885
3.65956
3.66535
3.67463
3.67686
3.67318
3.67108
3.67791
3.67772
3.67114
3.66742
3.66365
3.67606
3.66912
3.67023
3.66941
3.67118
3.66302
3.66275
3.67325
3.66789
3.66597
3.66346
3.66961
3.65654
3.66653
3.65638
3.6612
3.65165
3.65601
3.65325
3.65401
3.66004
3.66297
3.65645
3.64631
3.64924
3.65605
3.64932
3.62552
3.6154
3.61797
3.61874
3.61991
3.62296
3.63022
3.62798
3.6273
3.62498
3.62628
3.62422
3.62626
3.6029
3.60867
3.60103
3.60092
3.60283
3.60023
3.61802
3.61815
3.60598
3.61378
3.61288
3.61385
3.61299
3.61633
3.62354
3.61045
3.61613
3.61885
3.61933
3.61538
3.61733
3.6216
3.62563
3.61814
3.62389
3.62395
3.61855
3.61117
3.60496
3.60856
3.6123
3.60636
3.60508
3.61338
3.67195
3.66316
3.66714
3.66461
3.67037
3.66778
3.66605
3.64808
3.65107
3.64263
3.64888
3.65134
3.65111
3.64634
3.67583
3.67338
3.67445
3.67089
3.67373
3.65729
3.65551
3.66778
3.66256
3.66096
3.65794
3.66278
3.66267
3.65831
3.6695
3.66399
3.66621
3.66378
3.66494
3.65888
3.65248
3.65564
3.65991
3.65427
3.65357
3.6604
3.66238
3.66841
3.6723
3.66659
3.67123
3.67142
3.66655
3.64366
3.63606
3.63377
3.6347
3.63963
3.63863
3.63609
3.62049
3.62737
3.61763
3.62471
3.62538
3.62688
3.6207
3.64412
3.64226
3.65143
3.64698
3.64417
3.65069
3.63243
3.63344
3.647
3.63973
3.64032
3.63998
3.6401
3.63595
3.62982
3.64173
3.6373
3.63697
3.63456
3.63891
3.63623
3.63082
3.62839
3.63506
3.62985
3.62994
3.63499
3.64142
3.64844
3.64518
3.64185
3.64689
3.64754
3.6412
3.6516
3.64027
3.64703
3.64767
3.64605
3.64446
3.63482
3.63671
3.65525
3.65183
3.6649
3.65862
3.65913
3.66133
3.65962
3.64327
3.63665
3.64875
3.64462
3.64301
3.64106
3.64761
3.63998
3.63742
3.65096
3.6437
3.64649
3.64708
3.64915
3.63891
3.64473
3.64082
3.6363
3.63533
3.6413
3.65058
3.65048
3.65356
3.64801
3.65458
3.65327
3.6492
3.63753
3.63796
3.64065
3.63432
3.64256
3.63959
3.63424
3.62304
3.61691
3.6185
3.61706
3.62379
3.62351
3.61715
3.62922
3.62378
3.62686
3.62275
3.62601
3.63027
3.62226
3.62952
3.63322
3.63076
3.62623
3.62722
3.62943
3.63612
3.62777
3.62852
3.62945
3.63424
3.6323
3.6312
3.63401
3.62362
3.62553
3.62747
3.62876
3.62677
3.6291
3.62546
3.63348
3.6395
3.63204
3.63173
3.63278
3.63122
3.6494
3.64412
3.64078
3.64775
3.64237
3.6424
3.64795
3.65168
3.66113
3.65392
3.6587
3.65343
3.65402
3.65818
3.6596
3.66378
3.66802
3.66089
3.66559
3.66556
3.66148
3.65983
3.65097
3.6541
3.65304
3.65711
3.65501
3.65518
3.64601
3.65357
3.65719
3.65467
3.65013
3.65128
3.65376
3.64744
3.65615
3.6536
3.65446
3.64944
3.65146
3.65249
3.6617
3.65426
3.65148
3.65333
3.65774
3.65669
3.65422
3.68849
3.6473
3.64296
3.65519
3.6537
3.64598
3.67394
3.65116
3.64139
3.63473
3.69484
3.67729
3.68607
3.68307
3.68859
3.6878
3.6791
3.68432
3.68342
3.68667
3.68129
3.69837
3.69676
3.69418
3.68719
3.68945
3.69035
3.68853
3.68925
3.70005
3.68909
3.70385
3.7003
3.69887
3.68327
3.68968
3.68469
3.68569
3.68172
3.68797
3.66809
3.68112
3.69552
3.6874
3.68306
3.68469
3.6963
3.69606
3.70252
3.70565
3.70137
3.69857
3.69598
3.69143
3.68633
3.70099
3.69979
3.70314
3.66001
3.66692
3.67242
3.66683
3.67254
3.65759
3.66716
3.64788
3.65217
3.6736
3.6784
3.67155
3.66093
3.65735
3.66933
3.66373
3.66442
3.66372
3.66565
3.65572
3.6653
3.66509
3.67032
3.67042
3.67025
3.66879
3.62746
3.62361
3.62424
3.63198
3.61912
3.63397
3.62503
3.6237
3.63128
3.62505
3.61155
3.6003
3.60169
3.60007
3.62214
3.61481
3.62556
3.60552
3.60804
3.61396
3.62125
3.62256
3.62255
3.62463
3.6174
3.60147
3.60791
3.61058
3.6087
3.61286
3.63925
3.65632
3.65817
3.66417
3.63938
3.62863
3.6522
3.65487
3.64409
3.64337
3.64338
3.64091
3.64969
3.65349
3.65535
3.65379
3.63607
3.63959
3.63777
3.63248
3.66793
3.66684
3.65842
3.66736
3.66587
3.64924
3.65118
3.65018
3.65537
3.64365
3.65203
3.64391
3.64285
3.63588
3.6337
3.62947
3.63117
3.67633
3.67485
3.6733
3.67102
3.67574
3.68293
3.68271
3.68057
3.68085
3.66969
3.67693
3.66492
3.67496
3.67477
3.60563
3.59937
3.61269
3.60767
3.60828
3.61245
3.604
3.60679
3.60448
3.60706
3.59827
3.59885
3.61315
3.61288
3.61305
3.60057
3.60007
3.60345
3.60579
3.60563
3.61598
3.60683
3.61005
3.60835
3.60665
3.61268
3.60316
3.60004
3.59463
3.6976
3.69234
3.68929
3.68706
3.68855
3.68968
3.68958
3.68787
3.66316
3.65611
3.63026
3.62946
3.62766
3.62852
3.62985
3.63035
3.60368
3.60004
3.60205
3.60331
3.60267
3.60267
3.60323
3.69127
3.69575
3.69366
3.69384
3.69353
3.69415
3.69356
3.67021
3.67217
3.6785
3.67645
3.68358
3.67449
3.67737
3.67093
3.67848
3.67836
3.68705
3.69012
3.69177
3.69185
3.68918
3.69003
3.69035
3.69905
3.62035
3.6171
3.61575
3.61488
3.61804
3.61721
3.61646
3.6374
3.64826
3.63327
3.64436
3.64162
3.63967
3.64456
3.64326
3.64299
3.6441
3.60986
3.63543
3.63962
3.64254
3.60633
3.60999
3.60596
3.60951
3.60594
3.609
3.62917
3.63021
3.62599
3.63225
3.63036
3.63377
3.63035
3.68158
3.67855
3.67709
3.67916
3.67953
3.67963
3.67898
3.69071
3.69027
3.68943
3.69043
3.68811
3.65825
3.65699
3.65898
3.65796
3.65765
3.65846
3.65967
3.64349
3.61697
3.61786
3.61242
3.6151
3.61581
3.61693
3.61395
3.6518
3.65447
3.65529
3.65468
3.65215
3.65295
3.65515
3.63545
3.63463
3.63661
3.63489
3.63741
3.63253
3.63148
3.63449
3.63579
3.63745
3.6349
3.63588
3.6362
3.62586
3.62894
3.63054
3.62881
3.6282
3.62825
3.62868
3.65165
3.64883
3.64933
3.65234
3.65155
3.6535
3.65166
3.63683
3.63108
3.62744
3.62459
3.67089
3.65907
3.66319
3.65127
3.64414
3.65232
3.64507
3.65065
3.64377
3.65255
3.64861
3.70409
3.70149
3.70473
3.69072
3.68923
3.69504
3.692
3.69115
3.69001
3.69292
3.69562
3.6912
3.70005
3.69652
3.69577
3.69315
3.6934
3.68569
3.69031
3.68844
3.68831
3.68784
3.68828
3.6878
3.69728
3.69463
3.69642
3.69772
3.69715
3.69707
3.69821
3.69836
3.69385
3.69546
3.69318
3.69666
3.69453
3.6951
3.69271
3.69162
3.68972
3.68872
3.6913
3.69098
3.68975
3.6527
3.65426
3.65528
3.6604
3.65849
3.6636
3.66354
3.65492
3.65186
3.64942
3.65555
3.66203
3.65629
3.66146
3.6246
3.62164
3.63371
3.6412
3.62871
3.67562
3.66878
3.67033
3.66505
3.66642
3.6721
3.66776
3.67435
3.65258
3.64449
3.63692
3.63913
3.63197
3.62755
3.63808
3.63748
3.63703
3.6423
3.62953
3.63389
3.63348
3.63646
3.6396
3.63583
3.63495
3.7011
3.69368
3.69435
3.70035
3.69934
3.69471
3.60858
3.61583
3.61934
3.61582
3.61981
3.61428
3.62222
3.61447
3.5976
3.60819
3.61113
3.59875
3.60992
3.60374
3.60818
3.60868
3.61034
3.60959
3.6102
3.6654
3.59671
3.6024
3.60606
3.60076
3.5966
3.60579
3.61812
3.59802
3.60144
3.60138
3.60328
3.60293
3.69288
3.70167
3.69661
3.69604
3.67075
3.66988
3.67294
3.67005
3.6723
3.67327
3.65867
3.69211
3.69094
3.69465
3.69801
3.69363
3.698
3.6921
3.69564
3.69409
3.6948
3.69257
3.69585
3.69861
3.69289
3.69662
3.69592
3.69716
3.69428
3.69355
3.69342
3.6848
3.68795
3.69653
3.69626
3.68161
3.68617
3.68347
3.68538
3.68144
3.68428
3.68257
3.67777
3.67586
3.67832
3.67968
3.68322
3.68048
3.68173
3.68565
3.67741
3.68994
3.68647
3.68962
3.69251
3.69078
3.69036
3.69214
3.69066
3.68932
3.68959
3.68598
3.69146
3.69102
3.68995
3.68462
3.68367
3.68224
3.68984
3.68376
3.68384
3.68975
3.67885
3.68448
3.68413
3.68245
3.69464
3.68124
3.68214
3.70257
3.69011
3.70079
3.68011
3.67768
3.68122
3.67971
3.69591
3.6999
3.68431
3.68182
3.68704
3.68375
3.68445
3.6831
3.68642
3.6995
3.69861
3.69933
3.69968
3.69651
3.69671
3.69883
3.6988
3.69742
3.6988
3.6935
3.69669
3.69452
3.69304
3.69529
3.69471
3.69361
3.68918
3.68952
3.69163
3.68861
3.68748
3.68603
3.68865
3.68756
3.68909
3.68719
3.69201
3.68902
3.67975
3.68308
3.69162
3.68015
3.69799
3.67643
3.67821
3.68248
3.68742
3.67812
3.68675
3.69466
3.60617
3.609
3.62347
3.62664
3.62071
3.62283
3.62364
3.62416
3.6212
3.60023
3.60496
3.60828
3.60749
3.60836
3.60564
3.60833
3.60771
3.60619
3.60923
3.61046
3.6112
3.60699
3.60967
3.60861
3.61207
3.61038
3.611
3.6131
3.61264
3.61249
3.61334
3.60089
3.60528
3.60401
3.60432
3.60529
3.60439
3.60471
3.62377
3.62056
3.63276
3.63507
3.64214
3.62302
3.63352
3.63757
3.63454
3.62287
3.64813
3.65153
3.64957
3.64758
3.6375
3.63335
3.63652
3.63388
3.63757
3.63996
3.62705
3.62231
3.62397
3.62513
3.62551
3.62504
3.62568
3.61954
3.61178
3.61725
3.61401
3.61508
3.61495
3.605
3.6187
3.62411
3.61256
3.6138
3.60851
3.61194
3.6123
3.6116
3.61054
3.61372
3.61355
3.60656
3.61287
3.61074
3.6102
3.61146
3.62413
3.61721
3.62203
3.61959
3.64209
3.63865
3.64485
3.64074
3.64189
3.63878
3.64123
3.65198
3.64417
3.64172
3.61662
3.62391
3.62122
3.62637
3.62087
3.6229
3.62024
3.63548
3.63095
3.63408
3.63401
3.63577
3.63202
3.63441
3.6353
3.63716
3.63043
3.63713
3.63592
3.63542
3.63574
3.63775
3.62512
3.62862
3.63109
3.62779
3.6266
3.62982
3.62991
3.63887
3.63626
3.61573
3.61743
3.61976
3.61458
3.60987
3.60598
3.61439
3.61117
3.61066
3.60999
3.61275
3.61114
3.60655
3.61456
3.61107
3.61097
3.60953
3.61368
3.6202
3.6172
3.62422
3.62196
3.62416
3.621
3.62471
3.62164
3.62418
3.61994
3.62125
3.62242
3.62303
3.62232
3.62245
3.63549
3.62074
3.61943
3.62062
3.61909
3.61816
3.61375
3.61798
3.61582
3.61307
3.61579
3.62058
3.61823
3.6207
3.61726
3.61738
3.61822
3.62184
3.6156
3.62149
3.6277
3.61397
3.62682
3.65634
3.65441
3.65295
3.64401
3.65418
3.67031
3.67267
3.6753
3.67367
3.67368
3.67341
3.67271
3.68443
3.68748
3.6858
3.68471
3.68525
3.68539
3.68475
3.67985
3.67676
3.67777
3.67961
3.68047
3.67906
3.67898
3.67204
3.67494
3.66903
3.67308
3.67199
3.67394
3.67103
3.68198
3.68028
3.68635
3.68312
3.68225
3.68067
3.68364
3.68365
3.68075
3.68675
3.68471
3.68372
3.6825
3.68535
3.67012
3.67446
3.66855
3.67144
3.67055
3.67229
3.66935
3.69113
3.68921
3.6905
3.68712
3.66684
3.66891
3.66282
3.6672
3.66548
3.66809
3.66679
3.66631
3.66658
3.67441
3.67089
3.67454
3.68054
3.68022
3.67474
3.67802
3.67798
3.67303
3.67661
3.67473
3.67484
3.67128
3.67418
3.67439
3.67339
3.6728
3.66353
3.66059
3.66789
3.67438
3.66885
3.66914
3.67278
3.66837
3.67233
3.66476
3.66548
3.6728
3.67344
3.66813
3.66863
3.66131
3.67141
3.66072
3.65862
3.66375
3.66934
3.66426
3.67262
3.66805
3.66688
3.66902
3.67337
3.67219
3.67227
3.668
3.67435
3.67252
3.67142
3.68562
3.68145
3.68293
3.68182
3.68401
3.68227
3.68302
3.66182
3.66504
3.66356
3.66735
3.66373
3.66485
3.66509
3.65934
3.66198
3.6555
3.65845
3.65943
3.65816
3.65727
3.66543
3.66866
3.67094
3.66766
3.66466
3.6654
3.66846
3.67053
3.66916
3.66794
3.67041
3.66984
3.67038
3.66994
3.67155
3.66849
3.66701
3.66644
3.66955
3.66854
3.66747
3.67077
3.66899
3.67079
3.66632
3.67144
3.66869
3.66873
3.66517
3.66248
3.66025
3.66356
3.65745
3.66232
3.64014
3.64669
3.6402
3.64994
3.65454
3.65999
3.6602
3.65854
3.6501
3.64476
3.64076
3.6164
3.60993
3.61465
3.61231
3.61631
3.61676
3.61842
3.61995
3.62188
3.61709
3.6201
3.61877
3.60217
3.6027
3.60791
3.60787
3.60286
3.60191
3.60781
3.60939
3.61402
3.61205
3.61374
3.61135
3.61318
3.61188
3.6136
3.61613
3.61688
3.61906
3.61631
3.61738
3.61709
3.62258
3.61755
3.61897
3.61947
3.62074
3.61958
3.62023
3.60939
3.61245
3.60956
3.60984
3.61088
3.61036
3.61015
3.66348
3.6626
3.6591
3.66101
3.6625
3.6634
3.65964
3.64848
3.64633
3.65148
3.64909
3.64845
3.64702
3.64914
3.67489
3.67098
3.66978
3.67109
3.67536
3.67109
3.66621
3.66327
3.66459
3.66184
3.66472
3.6632
3.66408
3.66583
3.66326
3.66173
3.66079
3.66276
3.66467
3.66193
3.65593
3.65949
3.65928
3.65812
3.65769
3.65851
3.65788
3.66953
3.66486
3.66649
3.66697
3.66765
3.66718
3.66757
3.63026
3.6331
3.62694
3.63094
3.63024
3.63182
3.62884
3.62838
3.62313
3.631
3.62681
3.62722
3.62501
3.62944
3.654
3.65102
3.65164
3.64836
3.65209
3.64982
3.64959
3.64433
3.63971
3.64132
3.63934
3.64212
3.64015
3.64133
3.63926
3.63705
3.63588
3.63414
3.63675
3.63652
3.63602
3.63046
3.63542
3.63331
3.63443
3.63316
3.63445
3.63363
3.64385
3.64079
3.64248
3.64335
3.64283
3.64287
3.64337
3.63873
3.64492
3.64213
3.63961
3.64288
3.644
3.64009
3.63174
3.63057
3.63344
3.63068
3.63225
3.65993
3.65706
3.6552
3.6562
3.65789
3.65694
3.65641
3.64564
3.64367
3.64227
3.64109
3.64469
3.64302
3.64242
3.64523
3.64356
3.64783
3.64838
3.64885
3.64639
3.64862
3.64219
3.64643
3.64763
3.64621
3.64645
3.64244
3.64889
3.64543
3.64415
3.64599
3.64652
3.64681
3.64602
3.63418
3.63262
3.63224
3.63204
3.63382
3.63477
3.62825
3.62268
3.61941
3.62138
3.62228
3.62177
3.62164
3.62237
3.6262
3.6302
3.62957
3.62773
3.62953
3.62985
3.62815
3.63603
3.63284
3.63837
3.63461
3.63608
3.63366
3.6368
3.62391
3.62784
3.62101
3.625
3.62304
3.6258
3.62398
3.62343
3.62699
3.61946
3.62267
3.62322
3.62479
3.62145
3.6383
3.63378
3.63903
3.63634
3.63686
3.63541
3.63822
3.64373
3.64848
3.64637
3.6467
3.64643
3.64675
3.64611
3.65233
3.65472
3.65657
3.65453
3.65479
3.65452
3.65533
3.66468
3.65997
3.6617
3.66069
3.66237
3.66083
3.66182
3.64988
3.65102
3.64529
3.64794
3.64906
3.65003
3.64695
3.65979
3.65666
3.66256
3.65861
3.6597
3.65759
3.66063
3.65802
3.65665
3.66252
3.65936
3.65849
3.65744
3.66035
3.64849
3.6511
3.64531
3.64893
3.64833
3.65018
3.64721
3.65002
3.64485
3.65658
3.65992
3.6558
3.65346
3.63827
3.68228
3.68915
3.68247
3.68277
3.683
3.68428
3.68125
3.6973
3.70278
3.69926
3.69885
3.70121
3.70024
3.67817
3.68231
3.67868
3.68211
3.67795
3.68042
3.67899
3.69041
3.70006
3.69323
3.69428
3.69425
3.69817
3.69355
3.69574
3.69791
3.68664
3.69506
3.69333
3.68829
3.6894
3.68996
3.68398
3.68906
3.68007
3.68105
3.68124
3.68585
3.69812
3.7029
3.69123
3.69976
3.69692
3.69622
3.69412
3.69921
3.69722
3.69528
3.69169
3.69678
3.69524
3.69436
3.69255
3.69341
3.70539
3.70596
3.70494
3.67659
3.6714
3.67481
3.67252
3.67464
3.67355
3.6725
3.65587
3.65584
3.6499
3.65484
3.65634
3.67934
3.67087
3.677
3.67556
3.67397
3.67386
3.67577
3.67029
3.66773
3.65562
3.65851
3.66946
3.66896
3.65799
3.66451
3.66782
3.66029
3.65724
3.65649
3.65545
3.65952
3.66742
3.66706
3.62276
3.62218
3.63034
3.62664
3.62625
3.62312
3.59711
3.61263
3.61071
3.61436
3.6167
3.61446
3.61872
3.61446
3.61505
3.6143
3.62374
3.61755
3.61744
3.61604
3.65755
3.65984
3.65202
3.65388
3.65757
3.65974
3.65387
3.6321
3.63084
3.63474
3.62863
3.64747
3.64194
3.65274
3.64753
3.64649
3.64189
3.65238
3.65141
3.65242
3.64865
3.6442
3.65806
3.65575
3.65467
3.65636
3.6604
3.65485
3.64264
3.65794
3.65452
3.64895
3.6246
3.62881
3.61766
3.62593
3.6303
3.68742
3.68393
3.69692
3.67958
3.67212
3.66958
3.68616
3.5999
3.60386
3.60273
3.61424
3.60212
3.59995
3.60171
3.60112
3.60129
3.61544
3.61763
3.60812
3.60005
3.65241
3.65973
3.67644
3.68069
3.67259
3.67677
3.67773
3.67876
3.67673
3.67799
3.67853
3.68244
3.68105
3.67898
3.67931
3.68072
3.68618
3.68192
3.68342
3.68175
3.68453
3.68251
3.68359
3.68397
3.68527
3.68741
3.68511
3.68625
3.68537
3.68577
3.68054
3.67872
3.67932
3.68012
3.67894
3.67933
3.67958
3.68122
3.68333
3.67939
3.68206
3.68176
3.68378
3.68018
3.68337
3.68642
3.68024
3.68277
3.68326
3.68512
3.68136
3.65767
3.66604
3.66741
3.66332
3.66231
3.66563
3.66416
3.65279
3.65822
3.65024
3.65471
3.65132
3.65446
3.64646
3.6626
3.66147
3.65955
3.65442
3.6599
3.6604
3.65923
3.65626
3.66104
3.66959
3.66698
3.66325
3.65321
3.65477
3.65112
3.65793
3.61837
3.61504
3.61778
3.61849
3.61661
3.61703
3.62235
3.61693
3.6299
3.62861
3.62593
3.62671
3.62747
3.62724
3.62697
3.62306
3.62769
3.62351
3.62818
3.62531
3.62914
3.62198
3.62589
3.6217
3.62085
3.62325
3.62282
3.62136
3.62639
3.6301
3.62179
3.62526
3.62655
3.62809
3.62222
3.61223
3.60938
3.6063
3.60555
3.6066
3.6086
3.60652
3.60714
3.60636
3.60711
3.60281
3.60123
3.60426
3.60196
3.59975
3.6011
3.60193
3.59934
3.60371
3.6029
3.60384
3.6032
3.60298
3.6025
3.60392
3.60388
3.601
3.60242
3.60312
3.60482
3.59931
3.60339
3.60166
3.59897
3.60249
3.70244
3.65496
3.66379
3.66413
3.66107
3.67236
3.6949
3.69382
3.69509
3.69663
3.69623
3.69622
3.6955
3.69654
3.69809
3.70044
3.69484
3.69548
3.69789
3.69832
3.69565
3.69757
3.69805
3.69967
3.69741
3.69817
3.69624
3.69609
3.69434
3.69828
3.69685
3.69636
3.69571
3.69863
3.69721
3.69859
3.69877
3.69906
3.70015
3.69634
3.69929
3.66787
3.65744
3.65903
3.66712
3.6719
3.67227
3.67594
3.67227
3.67142
3.66715
3.65233
3.66667
3.67532
3.66462
3.67795
3.66546
3.67457
3.66322
3.67373
3.66914
3.66869
3.67041
3.68084
3.66208
3.66947
3.66465
3.6761
3.67297
3.66495
3.67157
3.6719
3.68143
3.67047
3.68081
3.66436
3.67285
3.66968
3.66774
3.67268
3.66743
3.67022
3.6654
3.66727
3.66758
3.67049
3.69399
3.69704
3.69493
3.69776
3.70069
3.69093
3.69949
3.69731
3.68497
3.69735
3.68729
3.68908
3.70022
3.68549
3.68837
3.70039
3.6955
3.68688
3.68327
3.68718
3.70007
3.69875
3.69454
3.67391
3.66961
3.67499
3.67397
3.67437
3.69061
3.68045
3.67603
3.6911
3.67955
3.68271
3.68503
3.67486
3.6755
3.6714
3.6667
3.6719
3.67572
3.67698
3.67362
3.67994
3.67497
3.67202
3.68298
3.68556
3.67362
3.69879
3.69669
3.69837
3.69182
3.69868
3.6954
3.69734
3.6951
3.69657
3.69585
3.69507
3.69436
3.6919
3.69457
3.69332
3.69482
3.69308
3.69485
3.69793
3.69671
3.6956
3.69232
3.69918
3.69635
3.69586
3.69449
3.69843
3.69862
3.7002
3.69782
3.70025
3.69811
3.7001
3.6974
3.60359
3.60822
3.60229
3.60502
3.60417
3.606
3.60304
3.60776
3.60499
3.61186