/*--------------------------------*- C++ -*----------------------------------*\
| =========                 |                                                 |
| \\      /  F ield         | OpenFOAM: The Open Source CFD Toolbox           |
|  \\    /   O peration     | Version:  v1612+                                |
|   \\  /    A nd           | Web:      www.OpenFOAM.com                      |
|    \\/     M anipulation  |                                                 |
\*---------------------------------------------------------------------------*/
FoamFile
{
    version     2.0;
    format      ascii;
    class       volVectorField;
    location    "50";
    object      U;
}
// * * * * * * * * * * * * * * * * * * * * * * * * * * * * * * * * * * * * * //

dimensions      [0 1 -1 0 0 0 0];

internalField   nonuniform List<vector> 
21369
(
(0.143099 0.649565 -0.179405)
(0.185808 0.791193 -0.216536)
(0.149924 0.665898 -0.177625)
(0.156481 0.686718 -0.185353)
(0.168808 0.720382 -0.203443)
(0.158153 0.688806 -0.1994)
(0.173828 0.788068 -0.215711)
(0.151638 0.679685 -0.189003)
(0.148673 0.674834 -0.180255)
(0.164035 0.703551 -0.206513)
(0.153779 0.711112 -0.193793)
(0.162828 0.669429 -0.183453)
(0.154675 0.713185 -0.183812)
(0.141685 0.625264 -0.173327)
(0.178079 0.79665 -0.21032)
(0.155929 0.681651 -0.184246)
(0.1582 0.690207 -0.188692)
(0.143157 0.670035 -0.173046)
(0.153905 0.685933 -0.187443)
(0.137259 0.604103 -0.173834)
(0.189807 0.852435 -0.240995)
(0.192627 0.853087 -0.238597)
(0.188957 0.824217 -0.234984)
(0.193203 0.878726 -0.235424)
(0.146351 0.670387 -0.188009)
(0.153472 0.673721 -0.187471)
(0.144627 0.618705 -0.173496)
(0.148726 0.666937 -0.183017)
(0.161337 0.677555 -0.192914)
(0.147667 0.63908 -0.184264)
(0.152447 0.669941 -0.185647)
(0.159105 0.715073 -0.210037)
(0.143895 0.669846 -0.203591)
(0.148416 0.625083 -0.180094)
(0.158783 0.727602 -0.199096)
(0.165131 0.746163 -0.203326)
(0.135452 0.590152 -0.166546)
(0.147947 0.619724 -0.168895)
(0.138507 0.649281 -0.17026)
(0.155589 0.709621 -0.200333)
(0.162197 0.694531 -0.20635)
(0.169267 0.712259 -0.193588)
(0.164589 0.732963 -0.217018)
(0.153664 0.666442 -0.197338)
(0.15912 0.70304 -0.202854)
(0.143692 0.663812 -0.19219)
(0.128236 0.571445 -0.154678)
(0.166657 0.668496 -0.189321)
(0.144523 0.590963 -0.164095)
(0.15998 0.629964 -0.171944)
(0.164794 0.738758 -0.201735)
(0.133824 0.602605 -0.171861)
(0.141581 0.630863 -0.180812)
(0.146564 0.659388 -0.18412)
(0.151777 0.645845 -0.172753)
(0.16481 0.733629 -0.200613)
(0.164304 0.735747 -0.203593)
(0.163302 0.704614 -0.199609)
(0.147317 0.644103 -0.172223)
(0.1302 0.604924 -0.171617)
(0.133002 0.595904 -0.156805)
(0.121547 0.57038 -0.152391)
(0.167266 0.699461 -0.199599)
(0.147154 0.633234 -0.168457)
(0.141398 0.638332 -0.183512)
(0.129558 0.588742 -0.166188)
(0.128765 0.619002 -0.182232)
(0.16895 0.762092 -0.21623)
(0.123579 0.59371 -0.163938)
(0.156054 0.707506 -0.194786)
(0.170676 0.730022 -0.209813)
(0.140527 0.60062 -0.156019)
(0.159842 0.707106 -0.199918)
(0.148076 0.66833 -0.180855)
(0.141628 0.635822 -0.18825)
(0.165386 0.718142 -0.209872)
(0.154612 0.667988 -0.216073)
(0.194562 0.866206 -0.230999)
(0.188867 0.83093 -0.223265)
(0.161571 0.757307 -0.21021)
(0.156889 0.674272 -0.203237)
(0.169372 0.770686 -0.215546)
(0.175174 0.745659 -0.205767)
(0.15595 0.662146 -0.188772)
(0.134322 0.586965 -0.167927)
(0.153237 0.716474 -0.200995)
(0.161863 0.664403 -0.190209)
(0.153412 0.660888 -0.188225)
(0.187142 0.805846 -0.220933)
(0.18024 0.835808 -0.227225)
(0.169763 0.770899 -0.211782)
(0.156665 0.72786 -0.203174)
(0.143872 0.620071 -0.182083)
(0.12649 0.584638 -0.179937)
(0.152772 0.645767 -0.180351)
(0.15652 0.728134 -0.193057)
(0.163257 0.724167 -0.195779)
(0.146382 0.671894 -0.189475)
(0.158083 0.707169 -0.194674)
(0.167769 0.728037 -0.191215)
(0.126279 0.597694 -0.165564)
(0.152155 0.670245 -0.181766)
(0.118898 0.53306 -0.149277)
(0.156336 0.703284 -0.190373)
(0.142842 0.652348 -0.183002)
(0.14361 0.631198 -0.174157)
(0.148116 0.646615 -0.177405)
(0.132942 0.62526 -0.171201)
(0.175111 0.724829 -0.198985)
(0.164252 0.671191 -0.185037)
(0.139741 0.586324 -0.165178)
(0.148389 0.675924 -0.189045)
(0.138164 0.657863 -0.184708)
(0.139237 0.670769 -0.192866)
(0.128193 0.616849 -0.170046)
(0.134587 0.618597 -0.17514)
(0.142207 0.644119 -0.175356)
(0.165273 0.77647 -0.208368)
(0.14817 0.640316 -0.178697)
(0.129774 0.611228 -0.17572)
(0.156166 0.699507 -0.185888)
(0.167326 0.70305 -0.204042)
(0.150996 0.656906 -0.188073)
(0.151227 0.662566 -0.177643)
(0.177319 0.774679 -0.208078)
(0.158656 0.721161 -0.192561)
(0.164589 0.728102 -0.200598)
(0.15902 0.662121 -0.183071)
(0.159019 0.67595 -0.182127)
(0.147866 0.691035 -0.188449)
(0.169166 0.779635 -0.217776)
(0.170243 0.734369 -0.199595)
(0.161444 0.72582 -0.192144)
(0.134174 0.642716 -0.177859)
(0.151189 0.688058 -0.208802)
(0.160272 0.673173 -0.200963)
(0.130001 0.579781 -0.168245)
(0.158125 0.734268 -0.199852)
(0.13553 0.629417 -0.1785)
(0.154674 0.697546 -0.192874)
(0.133984 0.627986 -0.169182)
(0.153411 0.680149 -0.19367)
(0.156382 0.710096 -0.193741)
(0.135118 0.628005 -0.161336)
(0.133339 0.660674 -0.19294)
(0.135652 0.628909 -0.179353)
(0.125065 0.592063 -0.167412)
(0.146122 0.675426 -0.191823)
(0.134594 0.641386 -0.166902)
(0.149385 0.667348 -0.191334)
(0.155567 0.711647 -0.19165)
(0.139953 0.658805 -0.18646)
(0.146331 0.687369 -0.179724)
(0.146126 0.621043 -0.167761)
(0.154237 0.641372 -0.185056)
(0.178712 0.753077 -0.205903)
(0.15735 0.69201 -0.19187)
(0.141279 0.651915 -0.187109)
(0.135492 0.62205 -0.178293)
(0.133517 0.582204 -0.170298)
(0.143483 0.599676 -0.169773)
(0.137682 0.630143 -0.175642)
(0.161902 0.709816 -0.199082)
(0.155259 0.686733 -0.193379)
(0.146598 0.636991 -0.1663)
(0.150908 0.623684 -0.183321)
(0.147407 0.654003 -0.185168)
(0.144249 0.671536 -0.187455)
(0.130091 0.596679 -0.16828)
(0.157158 0.67213 -0.187169)
(0.156923 0.691875 -0.19167)
(0.173469 0.737476 -0.198676)
(0.16186 0.704374 -0.195646)
(0.160558 0.712214 -0.196001)
(0.135648 0.594791 -0.171967)
(0.12732 0.549307 -0.134469)
(0.140695 0.617206 -0.167618)
(0.125296 0.583203 -0.162187)
(0.122117 0.553075 -0.164027)
(0.121363 0.545724 -0.15878)
(0.119445 0.529271 -0.152766)
(0.169713 0.745908 -0.215212)
(0.150815 0.6891 -0.200697)
(0.151746 0.641095 -0.188565)
(0.149093 0.698347 -0.196807)
(0.166608 0.707741 -0.19668)
(0.128799 0.609456 -0.175126)
(0.148358 0.670214 -0.188792)
(0.141274 0.652276 -0.182682)
(0.154274 0.7088 -0.20317)
(0.120025 0.556936 -0.161883)
(0.139505 0.630869 -0.17968)
(0.157568 0.71855 -0.202382)
(0.15478 0.693796 -0.199418)
(0.164084 0.740147 -0.215563)
(0.155632 0.683575 -0.197229)
(0.152798 0.660218 -0.176277)
(0.149162 0.63433 -0.169309)
(0.149313 0.664595 -0.186132)
(0.171403 0.786432 -0.205254)
(0.148268 0.675662 -0.184117)
(0.161586 0.731212 -0.207219)
(0.135744 0.614173 -0.172795)
(0.133491 0.642867 -0.179445)
(0.140025 0.6331 -0.181538)
(0.166363 0.770837 -0.20476)
(0.148799 0.629151 -0.166137)
(0.16686 0.714311 -0.195886)
(0.160991 0.721452 -0.20999)
(0.154546 0.687324 -0.188578)
(0.165067 0.726019 -0.205272)
(0.158568 0.675965 -0.179284)
(0.146062 0.659673 -0.186504)
(0.143896 0.683732 -0.194658)
(0.152214 0.661727 -0.189303)
(0.147523 0.655752 -0.174596)
(0.149178 0.673402 -0.186444)
(0.162182 0.672553 -0.196583)
(0.160428 0.687686 -0.189726)
(0.149481 0.624203 -0.173991)
(0.160758 0.701337 -0.198371)
(0.139198 0.637668 -0.172068)
(0.140523 0.639215 -0.170462)
(0.143544 0.650037 -0.181782)
(0.160837 0.734723 -0.193223)
(0.16291 0.727295 -0.208596)
(0.140228 0.594039 -0.160715)
(0.13785 0.623636 -0.162878)
(0.144663 0.689804 -0.188667)
(0.155953 0.729517 -0.208204)
(0.16888 0.712113 -0.201076)
(0.160691 0.677033 -0.190756)
(0.140136 0.601523 -0.171192)
(0.15402 0.669545 -0.187491)
(0.156815 0.714931 -0.199746)
(0.127665 0.556615 -0.162561)
(0.148531 0.606573 -0.16061)
(0.141219 0.623457 -0.167133)
(0.148184 0.645568 -0.171294)
(0.133872 0.630611 -0.165488)
(0.164967 0.731536 -0.201659)
(0.150157 0.646733 -0.177216)
(0.143139 0.643818 -0.180904)
(0.152116 0.690417 -0.187357)
(0.151115 0.669678 -0.187948)
(0.160742 0.732363 -0.200942)
(0.13939 0.622404 -0.155607)
(0.135668 0.625663 -0.176091)
(0.146435 0.679475 -0.198967)
(0.135026 0.634011 -0.175708)
(0.148852 0.693524 -0.192939)
(0.160627 0.751831 -0.21751)
(0.148221 0.634058 -0.179239)
(0.15049 0.670037 -0.189577)
(0.165716 0.740394 -0.215873)
(0.156191 0.735898 -0.212656)
(0.132607 0.605604 -0.177562)
(0.135277 0.628591 -0.176442)
(0.140988 0.655761 -0.18235)
(0.183195 0.814567 -0.228335)
(0.155917 0.633256 -0.188598)
(0.169567 0.712771 -0.202428)
(0.158106 0.701882 -0.20315)
(0.174668 0.773797 -0.216132)
(0.160065 0.653089 -0.176177)
(0.152222 0.660645 -0.177358)
(0.152696 0.658822 -0.187085)
(0.135123 0.593333 -0.156651)
(0.141056 0.638115 -0.174068)
(0.129142 0.622935 -0.177037)
(0.148795 0.66596 -0.192905)
(0.135902 0.615211 -0.163936)
(0.163145 0.700204 -0.19313)
(0.158418 0.684598 -0.187971)
(0.156209 0.647935 -0.188892)
(0.153517 0.636154 -0.18693)
(0.167034 0.704938 -0.198581)
(0.159875 0.713535 -0.208167)
(0.142072 0.625012 -0.179185)
(0.132276 0.626834 -0.178663)
(0.140755 0.66761 -0.179434)
(0.161909 0.754187 -0.211434)
(0.163042 0.707578 -0.200022)
(0.147478 0.66963 -0.189274)
(0.12691 0.588183 -0.172501)
(0.136966 0.61452 -0.169316)
(0.150683 0.707263 -0.204579)
(0.133231 0.595525 -0.166118)
(0.151297 0.657373 -0.178516)
(0.135332 0.573639 -0.149227)
(0.151881 0.691246 -0.186796)
(0.141588 0.607695 -0.169393)
(0.152231 0.66313 -0.180878)
(0.169035 0.716669 -0.201696)
(0.171621 0.745903 -0.20869)
(0.153363 0.678377 -0.190752)
(0.161581 0.690627 -0.189142)
(0.137118 0.620604 -0.161254)
(0.14608 0.666572 -0.171311)
(0.159032 0.718366 -0.192965)
(0.15038 0.626591 -0.175375)
(0.167841 0.744306 -0.207887)
(0.126334 0.538794 -0.137546)
(0.161823 0.682638 -0.186533)
(0.145 0.64588 -0.181049)
(0.161184 0.66155 -0.178488)
(0.169582 0.78752 -0.214005)
(0.170432 0.789613 -0.223016)
(0.163015 0.74135 -0.204898)
(0.149536 0.653215 -0.191473)
(0.157866 0.687444 -0.192468)
(0.172521 0.755017 -0.21827)
(0.129038 0.589603 -0.160536)
(0.155055 0.683229 -0.193336)
(0.16142 0.730151 -0.206723)
(0.122663 0.556218 -0.149375)
(0.138967 0.620567 -0.187372)
(0.144784 0.636603 -0.178443)
(0.163883 0.713125 -0.213694)
(0.138136 0.600474 -0.185907)
(0.139564 0.621837 -0.187499)
(0.166329 0.701264 -0.199828)
(0.161376 0.641613 -0.201195)
(0.15545 0.674791 -0.180122)
(0.158445 0.653228 -0.175539)
(0.149954 0.629806 -0.174994)
(0.143204 0.641386 -0.168879)
(0.16303 0.689697 -0.186465)
(0.143231 0.622996 -0.171544)
(0.150527 0.678334 -0.182562)
(0.135109 0.5978 -0.153429)
(0.160459 0.677968 -0.182446)
(0.177743 0.744681 -0.208681)
(0.134602 0.62918 -0.189142)
(0.156432 0.704661 -0.198265)
(0.177946 0.73452 -0.20053)
(0.150607 0.672726 -0.18909)
(0.144459 0.662304 -0.190034)
(0.139135 0.600218 -0.170419)
(0.175518 0.775159 -0.223041)
(0.140575 0.66927 -0.189467)
(0.15683 0.726442 -0.205703)
(0.176651 0.800974 -0.223206)
(0.146709 0.62038 -0.16124)
(0.145383 0.665995 -0.194701)
(0.158697 0.698733 -0.207801)
(0.170256 0.751487 -0.211145)
(0.154664 0.686384 -0.201659)
(0.148213 0.637268 -0.181944)
(0.140147 0.643367 -0.190551)
(0.153522 0.725526 -0.202375)
(0.131243 0.594228 -0.169997)
(0.145156 0.658045 -0.189034)
(0.135118 0.626294 -0.170174)
(0.158254 0.646272 -0.181726)
(0.148237 0.715169 -0.215148)
(0.142738 0.621302 -0.174164)
(0.153852 0.703228 -0.18748)
(0.119867 0.589674 -0.16967)
(0.149145 0.667149 -0.190525)
(0.156712 0.69252 -0.195789)
(0.148016 0.660428 -0.187747)
(0.145225 0.663848 -0.190176)
(0.13411 0.635385 -0.175981)
(0.146693 0.675114 -0.184831)
(0.152287 0.648957 -0.189873)
(0.143548 0.690897 -0.196433)
(0.136601 0.601667 -0.167395)
(0.129537 0.612614 -0.172039)
(0.130063 0.592291 -0.156719)
(0.156816 0.722419 -0.193978)
(0.141228 0.627255 -0.188168)
(0.147046 0.65467 -0.191381)
(0.156272 0.683947 -0.192018)
(0.136753 0.641226 -0.17927)
(0.153986 0.722398 -0.187321)
(0.156602 0.690676 -0.18393)
(0.148108 0.680258 -0.191411)
(0.166162 0.710465 -0.184469)
(0.163908 0.701789 -0.189057)
(0.143696 0.636804 -0.170054)
(0.127843 0.603518 -0.164832)
(0.133353 0.640866 -0.177475)
(0.141741 0.650711 -0.19432)
(0.13454 0.649865 -0.171035)
(0.138726 0.617931 -0.16186)
(0.11866 0.561267 -0.161618)
(0.147147 0.669884 -0.191697)
(0.156525 0.708436 -0.198427)
(0.150834 0.696734 -0.197209)
(0.143823 0.644461 -0.184503)
(0.137538 0.645462 -0.189587)
(0.161018 0.718509 -0.205144)
(0.14531 0.647178 -0.178504)
(0.129494 0.581459 -0.151365)
(0.164028 0.764896 -0.216816)
(0.15697 0.675531 -0.182525)
(0.162151 0.734614 -0.203021)
(0.151029 0.687272 -0.191415)
(0.16069 0.69702 -0.194832)
(0.141576 0.657048 -0.180576)
(0.144134 0.642476 -0.185439)
(0.160534 0.716981 -0.203898)
(0.156553 0.659132 -0.187645)
(0.141878 0.61197 -0.175067)
(0.150151 0.691924 -0.208533)
(0.137747 0.640438 -0.177104)
(0.133438 0.608137 -0.1651)
(0.154224 0.665894 -0.189177)
(0.161954 0.700899 -0.198709)
(0.146232 0.605342 -0.175062)
(0.153826 0.682373 -0.206473)
(0.14218 0.663437 -0.184912)
(0.142957 0.629809 -0.17873)
(0.147811 0.659931 -0.184337)
(0.161824 0.730082 -0.198789)
(0.152481 0.629124 -0.17003)
(0.139608 0.643781 -0.179923)
(0.157733 0.711482 -0.193742)
(0.16942 0.742761 -0.196084)
(0.143871 0.618028 -0.167589)
(0.133005 0.55024 -0.144026)
(0.173174 0.76624 -0.211884)
(0.140179 0.633495 -0.172668)
(0.164334 0.746819 -0.191684)
(0.153289 0.632994 -0.170938)
(0.13995 0.621266 -0.180161)
(0.148133 0.643996 -0.181462)
(0.141911 0.626815 -0.176485)
(0.16294 0.673237 -0.185304)
(0.14829 0.679612 -0.194702)
(0.137593 0.58821 -0.161273)
(0.171853 0.721779 -0.197766)
(0.165322 0.697637 -0.197972)
(0.14212 0.587357 -0.162049)
(0.152078 0.682612 -0.186757)
(0.136265 0.628108 -0.179073)
(0.153889 0.697337 -0.19615)
(0.159981 0.686449 -0.198037)
(0.142476 0.642855 -0.175493)
(0.161955 0.704901 -0.193819)
(0.130558 0.624803 -0.175477)
(0.164506 0.69788 -0.198733)
(0.152591 0.652132 -0.19137)
(0.139154 0.614349 -0.180871)
(0.142775 0.622214 -0.179602)
(0.156666 0.717436 -0.196103)
(0.152427 0.643427 -0.180582)
(0.146289 0.629385 -0.169883)
(0.129144 0.609173 -0.177424)
(0.168342 0.725097 -0.202879)
(0.145477 0.628608 -0.191125)
(0.148472 0.679278 -0.183667)
(0.154047 0.695685 -0.190434)
(0.165127 0.723034 -0.205439)
(0.15155 0.68154 -0.186736)
(0.15786 0.67692 -0.193066)
(0.166936 0.721904 -0.211454)
(0.139176 0.60881 -0.176818)
(0.147447 0.646197 -0.182823)
(0.142006 0.65474 -0.188534)
(0.153454 0.650048 -0.181547)
(0.188654 0.775682 -0.220429)
(0.130732 0.56629 -0.164603)
(0.166726 0.71928 -0.198343)
(0.141656 0.658199 -0.188168)
(0.138483 0.649347 -0.179198)
(0.154784 0.710595 -0.198019)
(0.137591 0.643602 -0.182783)
(0.14834 0.67366 -0.183768)
(0.176133 0.81277 -0.223038)
(0.135919 0.613697 -0.164105)
(0.157659 0.69787 -0.195787)
(0.163547 0.747743 -0.206044)
(0.142274 0.637333 -0.177873)
(0.144189 0.664181 -0.188465)
(0.134428 0.604743 -0.159988)
(0.140512 0.609016 -0.165559)
(0.123206 0.561941 -0.157758)
(0.118311 0.578907 -0.171611)
(0.155953 0.729289 -0.207075)
(0.180805 0.791291 -0.226061)
(0.134808 0.598738 -0.173374)
(0.134185 0.612489 -0.178512)
(0.156507 0.641735 -0.192019)
(0.146372 0.654052 -0.20331)
(0.178845 0.740938 -0.214265)
(0.16712 0.700847 -0.196689)
(0.153179 0.650946 -0.173874)
(0.174977 0.733267 -0.208011)
(0.13704 0.57739 -0.157467)
(0.14999 0.606334 -0.161038)
(0.131114 0.583087 -0.16175)
(0.156125 0.695317 -0.188868)
(0.12307 0.595377 -0.17331)
(0.159575 0.729891 -0.198876)
(0.148583 0.677997 -0.193237)
(0.144555 0.596601 -0.169468)
(0.146618 0.663141 -0.177472)
(0.143033 0.62002 -0.17402)
(0.160136 0.679038 -0.188782)
(0.149552 0.658748 -0.175714)
(0.152831 0.658778 -0.183663)
(0.135568 0.590808 -0.16953)
(0.152844 0.666964 -0.181324)
(0.136866 0.651322 -0.181047)
(0.156604 0.715223 -0.198726)
(0.118215 0.562073 -0.153042)
(0.136656 0.602708 -0.174065)
(0.167547 0.717565 -0.205399)
(0.162349 0.665764 -0.183624)
(0.159255 0.68385 -0.185444)
(0.149211 0.638137 -0.181765)
(0.141588 0.619527 -0.166388)
(0.14909 0.579198 -0.168816)
(0.133072 0.569969 -0.166359)
(0.132898 0.607025 -0.176514)
(0.160425 0.719076 -0.202206)
(0.157891 0.655795 -0.182147)
(0.140938 0.594876 -0.171401)
(0.126167 0.600427 -0.174253)
(0.1568 0.685469 -0.184191)
(0.120764 0.570249 -0.159452)
(0.14052 0.60034 -0.162116)
(0.163605 0.690683 -0.182316)
(0.14611 0.621221 -0.177702)
(0.148571 0.686474 -0.187198)
(0.163558 0.729294 -0.208481)
(0.13927 0.647473 -0.183826)
(0.129571 0.574449 -0.161329)
(0.130084 0.610626 -0.172026)
(0.157595 0.713011 -0.197798)
(0.132157 0.597027 -0.172269)
(0.137246 0.604085 -0.165387)
(0.131737 0.600819 -0.163581)
(0.153123 0.671592 -0.185547)
(0.132065 0.551852 -0.150433)
(0.135415 0.583927 -0.167705)
(0.172891 0.773363 -0.213345)
(0.154309 0.712534 -0.193671)
(0.160944 0.64794 -0.177029)
(0.145091 0.681265 -0.188694)
(0.155563 0.66078 -0.187244)
(0.173456 0.741509 -0.197743)
(0.140399 0.670526 -0.182092)
(0.143099 0.649504 -0.181449)
(0.142299 0.655655 -0.169916)
(0.166607 0.710101 -0.197962)
(0.132055 0.628204 -0.186419)
(0.154781 0.679658 -0.181627)
(0.15807 0.669179 -0.190303)
(0.161943 0.696978 -0.189219)
(0.149642 0.663217 -0.176537)
(0.131851 0.589647 -0.156361)
(0.156929 0.674581 -0.179795)
(0.147104 0.641145 -0.168529)
(0.160946 0.682765 -0.192118)
(0.143918 0.62903 -0.175929)
(0.158569 0.69048 -0.179501)
(0.156242 0.652869 -0.180408)
(0.146292 0.598967 -0.169187)
(0.15325 0.626321 -0.185809)
(0.152038 0.630155 -0.186995)
(0.148658 0.645644 -0.187302)
(0.130973 0.565184 -0.15456)
(0.14167 0.643872 -0.178349)
(0.126242 0.586264 -0.169732)
(0.134292 0.611607 -0.162576)
(0.148428 0.685665 -0.193318)
(0.166366 0.714506 -0.200552)
(0.142663 0.611362 -0.171442)
(0.170332 0.690277 -0.201862)
(0.139804 0.618299 -0.171103)
(0.162408 0.711842 -0.203872)
(0.140099 0.587765 -0.155222)
(0.170399 0.71976 -0.200145)
(0.128557 0.574686 -0.166035)
(0.166521 0.746596 -0.205116)
(0.168147 0.756364 -0.20809)
(0.143661 0.624867 -0.174957)
(0.134695 0.638028 -0.174584)
(0.158433 0.748 -0.20442)
(0.159847 0.739041 -0.205266)
(0.146316 0.665732 -0.189583)
(0.165119 0.694675 -0.194337)
(0.14697 0.651177 -0.172482)
(0.158287 0.715898 -0.201742)
(0.144018 0.624281 -0.170802)
(0.154168 0.645376 -0.184172)
(0.14931 0.648395 -0.181117)
(0.139531 0.608644 -0.167773)
(0.175468 0.735186 -0.204287)
(0.148464 0.638809 -0.189942)
(0.141521 0.57096 -0.169682)
(0.133962 0.592182 -0.176227)
(0.156521 0.673098 -0.188926)
(0.146451 0.648011 -0.175659)
(0.13483 0.62035 -0.170159)
(0.164639 0.722992 -0.198445)
(0.13566 0.590241 -0.172188)
(0.150572 0.657601 -0.175305)
(0.144582 0.629887 -0.172629)
(0.156828 0.700514 -0.189875)
(0.127603 0.576284 -0.170022)
(0.157514 0.659381 -0.18482)
(0.166586 0.704264 -0.204185)
(0.135418 0.577536 -0.171332)
(0.164104 0.662243 -0.188596)
(0.151742 0.65683 -0.180994)
(0.146981 0.619685 -0.169553)
(0.149956 0.67406 -0.181148)
(0.15245 0.661004 -0.185901)
(0.117252 0.539338 -0.153276)
(0.157105 0.662285 -0.186891)
(0.139491 0.644425 -0.180413)
(0.128751 0.605122 -0.173907)
(0.132453 0.625292 -0.175246)
(0.17093 0.765931 -0.200644)
(0.120289 0.536977 -0.142289)
(0.139619 0.642081 -0.176614)
(0.130412 0.567389 -0.150477)
(0.157237 0.675364 -0.19073)
(0.135743 0.60701 -0.169828)
(0.140674 0.603455 -0.163208)
(0.144992 0.628696 -0.173122)
(0.154327 0.662855 -0.179895)
(0.143121 0.669528 -0.181806)
(0.207262 0.904802 -0.244603)
(0.146779 0.670849 -0.180082)
(0.188345 0.818141 -0.226844)
(0.195799 0.897129 -0.237619)
(0.203541 0.936045 -0.252598)
(0.17995 0.79612 -0.212545)
(0.141854 0.668028 -0.175782)
(0.208104 0.958924 -0.257337)
(0.2042 0.950729 -0.253514)
(0.158205 0.742157 -0.205217)
(0.111257 0.543134 -0.152859)
(0.121634 0.568783 -0.167133)
(0.207662 0.954985 -0.253848)
(0.139291 0.600572 -0.175283)
(0.124239 0.534901 -0.155487)
(0.195212 0.906416 -0.249263)
(0.205418 0.958027 -0.254727)
(0.180564 0.848805 -0.225241)
(0.187791 0.859826 -0.242311)
(0.198502 0.893812 -0.243656)
(0.203049 0.950022 -0.25409)
(0.200177 0.924002 -0.252084)
(0.161902 0.75788 -0.210106)
(0.166109 0.733603 -0.202882)
(0.193131 0.861434 -0.239452)
(0.167742 0.699086 -0.187423)
(0.200852 0.915476 -0.252561)
(0.204779 0.945933 -0.256132)
(0.189767 0.875899 -0.240584)
(0.205671 0.952137 -0.255099)
(0.207329 0.95341 -0.256176)
(0.209 0.955281 -0.256208)
(0.201883 0.939798 -0.251829)
(0.141288 0.652121 -0.186441)
(0.167417 0.782772 -0.213933)
(0.150802 0.687703 -0.177889)
(0.139943 0.668127 -0.188171)
(0.160983 0.716254 -0.202152)
(0.13273 0.607449 -0.172066)
(0.169487 0.7545 -0.20223)
(0.188723 0.826321 -0.235933)
(0.183712 0.805505 -0.222915)
(0.17437 0.801849 -0.233544)
(0.127373 0.601654 -0.180632)
(0.158532 0.670217 -0.201884)
(0.145916 0.685739 -0.183711)
(0.126525 0.58319 -0.162124)
(0.147618 0.689347 -0.185955)
(0.196508 0.906077 -0.244166)
(0.204019 0.946178 -0.253516)
(0.175996 0.773602 -0.209689)
(0.165504 0.771744 -0.203224)
(0.135131 0.584022 -0.155384)
(0.192906 0.875087 -0.237831)
(0.199071 0.90223 -0.245349)
(0.141305 0.620854 -0.15967)
(0.168425 0.754497 -0.202749)
(0.167388 0.732735 -0.196284)
(0.205494 0.923416 -0.244104)
(0.198697 0.921043 -0.251423)
(0.193131 0.844422 -0.23298)
(0.208111 0.946345 -0.251749)
(0.198989 0.922917 -0.251105)
(0.186397 0.81871 -0.212759)
(0.165905 0.709158 -0.196402)
(0.157185 0.730899 -0.197902)
(0.156053 0.694549 -0.188758)
(0.194251 0.907036 -0.246821)
(0.204346 0.951816 -0.254604)
(0.196486 0.913974 -0.243571)
(0.174405 0.820336 -0.233489)
(0.197834 0.926567 -0.253052)
(0.196897 0.918599 -0.243957)
(0.13944 0.675399 -0.172536)
(0.138804 0.64681 -0.17257)
(0.138742 0.664278 -0.173968)
(0.188721 0.882788 -0.2362)
(0.188052 0.801114 -0.213359)
(0.186117 0.869536 -0.229754)
(0.133066 0.617907 -0.163396)
(0.131485 0.646959 -0.178209)
(0.180288 0.837749 -0.224892)
(0.152874 0.68144 -0.177522)
(0.190893 0.865853 -0.230323)
(0.137555 0.624759 -0.170122)
(0.140259 0.650454 -0.179654)
(0.14043 0.648044 -0.182345)
(0.196605 0.915929 -0.248285)
(0.205342 0.951857 -0.254742)
(0.180956 0.81176 -0.2318)
(0.180631 0.800126 -0.212795)
(0.156118 0.690841 -0.19165)
(0.190778 0.888227 -0.236099)
(0.196127 0.920013 -0.249369)
(0.162375 0.689239 -0.195668)
(0.143008 0.591462 -0.164233)
(0.198176 0.898156 -0.24553)
(0.205246 0.951423 -0.257597)
(0.196202 0.911545 -0.246692)
(0.206238 0.953907 -0.254791)
(0.200144 0.922143 -0.249159)
(0.205124 0.951425 -0.255709)
(0.204536 0.946427 -0.252481)
(0.136215 0.611413 -0.178988)
(0.179598 0.833384 -0.229939)
(0.139052 0.633978 -0.185739)
(0.190907 0.851284 -0.236458)
(0.155843 0.62395 -0.174635)
(0.158213 0.70217 -0.19523)
(0.179707 0.78946 -0.234499)
(0.154703 0.685275 -0.199588)
(0.202758 0.92917 -0.255951)
(0.201067 0.923683 -0.24919)
(0.202454 0.921878 -0.250645)
(0.192985 0.880237 -0.242587)
(0.205891 0.952368 -0.254664)
(0.206827 0.953917 -0.254633)
(0.189665 0.854187 -0.243651)
(0.184882 0.822384 -0.218962)
(0.15785 0.706103 -0.191547)
(0.14105 0.63447 -0.171701)
(0.189429 0.831742 -0.22198)
(0.1962 0.890866 -0.249189)
(0.192137 0.840882 -0.225726)
(0.202262 0.94694 -0.255147)
(0.203448 0.927173 -0.250628)
(0.204789 0.956089 -0.254617)
(0.202824 0.943126 -0.252726)
(0.205778 0.946086 -0.25151)
(0.198198 0.926422 -0.247168)
(0.145181 0.6922 -0.192574)
(0.201917 0.937581 -0.248849)
(0.187182 0.854948 -0.237674)
(0.178374 0.827227 -0.227172)
(0.199542 0.925742 -0.247123)
(0.20314 0.949958 -0.252391)
(0.202884 0.93524 -0.252615)
(0.186267 0.816911 -0.218773)
(0.203223 0.945651 -0.253499)
(0.200374 0.907915 -0.24121)
(0.200227 0.888039 -0.243676)
(0.202897 0.949265 -0.252352)
(0.183452 0.844516 -0.228456)
(0.185875 0.825945 -0.225305)
(0.19673 0.866119 -0.232617)
(0.203325 0.946325 -0.253099)
(0.156694 0.752151 -0.204583)
(0.169152 0.727891 -0.19854)
(0.203936 0.95051 -0.252879)
(0.198642 0.920468 -0.251173)
(0.204601 0.95093 -0.2524)
(0.199421 0.913553 -0.243512)
(0.203696 0.951608 -0.253886)
(0.201827 0.938339 -0.250074)
(0.204621 0.957137 -0.255835)
(0.20496 0.958033 -0.256846)
(0.201686 0.939224 -0.248916)
(0.20065 0.914876 -0.244601)
(0.204844 0.951757 -0.252936)
(0.203985 0.952591 -0.253158)
(0.204153 0.944949 -0.251591)
(0.204208 0.946829 -0.252851)
(0.202387 0.952261 -0.253662)
(0.120737 0.554176 -0.154408)
(0.159581 0.715267 -0.199094)
(0.202187 0.897343 -0.244195)
(0.172996 0.727497 -0.212692)
(0.175695 0.782395 -0.218484)
(0.139929 0.611028 -0.16911)
(0.165302 0.705048 -0.201124)
(0.186112 0.817059 -0.225327)
(0.14525 0.665245 -0.179778)
(0.175519 0.778174 -0.222416)
(0.157421 0.71795 -0.199617)
(0.164563 0.758468 -0.207208)
(0.180766 0.786488 -0.2273)
(0.166772 0.716479 -0.202096)
(0.152494 0.667811 -0.194088)
(0.166301 0.713024 -0.191567)
(0.166101 0.744139 -0.203318)
(0.171393 0.734891 -0.199077)
(0.159587 0.696854 -0.19896)
(0.161607 0.717044 -0.193335)
(0.182061 0.797383 -0.224002)
(0.15619 0.676448 -0.189314)
(0.127491 0.600691 -0.169095)
(0.15436 0.624058 -0.185031)
(0.146851 0.617785 -0.173343)
(0.163584 0.734051 -0.19333)
(0.179314 0.779672 -0.20411)
(0.162227 0.643406 -0.179782)
(0.207923 0.921016 -0.245171)
(0.207645 0.947898 -0.252466)
(0.210213 0.947441 -0.25223)
(0.207932 0.951664 -0.252523)
(0.20855 0.925844 -0.246484)
(0.207942 0.916595 -0.243235)
(0.208831 0.952931 -0.253588)
(0.146111 0.659388 -0.178862)
(0.165965 0.754059 -0.200701)
(0.174134 0.782702 -0.211587)
(0.152767 0.690477 -0.190533)
(0.149729 0.658021 -0.17675)
(0.124311 0.621734 -0.165862)
(0.170278 0.767814 -0.203358)
(0.198285 0.853919 -0.236415)
(0.194501 0.842822 -0.23541)
(0.187251 0.79671 -0.227438)
(0.176346 0.747536 -0.207037)
(0.162993 0.693163 -0.195336)
(0.200239 0.870727 -0.235559)
(0.20165 0.918089 -0.245542)
(0.203128 0.932883 -0.246753)
(0.148323 0.644699 -0.166708)
(0.203681 0.928461 -0.25347)
(0.20384 0.929825 -0.25266)
(0.203325 0.92239 -0.251838)
(0.149454 0.610635 -0.168072)
(0.142648 0.598898 -0.1559)
(0.14847 0.649737 -0.175335)
(0.164055 0.739607 -0.199775)
(0.167908 0.740544 -0.203117)
(0.163582 0.705174 -0.193837)
(0.141544 0.587539 -0.160923)
(0.137978 0.587991 -0.171198)
(0.150066 0.689785 -0.182367)
(0.163769 0.740861 -0.202618)
(0.153475 0.686915 -0.187632)
(0.145448 0.666087 -0.174906)
(0.203644 0.940756 -0.256915)
(0.199642 0.922819 -0.250826)
(0.205983 0.956531 -0.257714)
(0.207254 0.95262 -0.257405)
(0.200803 0.929838 -0.256071)
(0.204997 0.953011 -0.253429)
(0.199978 0.91602 -0.244812)
(0.205244 0.94323 -0.25181)
(0.20126 0.926276 -0.247159)
(0.20401 0.951087 -0.252166)
(0.203343 0.950457 -0.252469)
(0.204754 0.93612 -0.249629)
(0.13753 0.595472 -0.163391)
(0.143426 0.626099 -0.165341)
(0.153554 0.701701 -0.187691)
(0.147065 0.668601 -0.189467)
(0.162185 0.785527 -0.216062)
(0.164872 0.76164 -0.210878)
(0.121834 0.547044 -0.142431)
(0.152027 0.697866 -0.196772)
(0.158212 0.726024 -0.200571)
(0.136005 0.672332 -0.191517)
(0.128791 0.626947 -0.179826)
(0.133629 0.582443 -0.163086)
(0.151488 0.705487 -0.203553)
(0.204762 0.954147 -0.253027)
(0.202961 0.951911 -0.253973)
(0.204403 0.94207 -0.250907)
(0.204717 0.946649 -0.252854)
(0.204139 0.949208 -0.254469)
(0.202701 0.948215 -0.254269)
(0.204538 0.944838 -0.253838)
(0.144464 0.662977 -0.192122)
(0.15848 0.687074 -0.192879)
(0.160582 0.747834 -0.201917)
(0.148172 0.658658 -0.187669)
(0.171768 0.789843 -0.220659)
(0.149027 0.646118 -0.183449)
(0.147406 0.68087 -0.188089)
(0.166515 0.705397 -0.193137)
(0.206844 0.931817 -0.247399)
(0.206576 0.953119 -0.252735)
(0.206161 0.929621 -0.247028)
(0.208753 0.954695 -0.252895)
(0.207852 0.952349 -0.252746)
(0.207805 0.9531 -0.253393)
(0.209525 0.954706 -0.253001)
(0.172556 0.8068 -0.228415)
(0.148662 0.635967 -0.180227)
(0.145917 0.690013 -0.191035)
(0.149952 0.656958 -0.184709)
(0.183922 0.800791 -0.235549)
(0.155001 0.702662 -0.207767)
(0.178802 0.801018 -0.230111)
(0.176118 0.785165 -0.221458)
(0.148702 0.687487 -0.194794)
(0.16455 0.730832 -0.207741)
(0.164208 0.704992 -0.203162)
(0.158378 0.687398 -0.196311)
(0.186488 0.801894 -0.226304)
(0.144398 0.685539 -0.202608)
(0.15546 0.701216 -0.19581)
(0.168977 0.792596 -0.219543)
(0.193664 0.900102 -0.248087)
(0.193277 0.899505 -0.247497)
(0.165 0.743883 -0.213836)
(0.145976 0.675281 -0.191221)
(0.162187 0.749993 -0.205876)
(0.205913 0.943252 -0.251355)
(0.204691 0.955475 -0.253633)
(0.20479 0.949974 -0.252256)
(0.204769 0.954043 -0.254273)
(0.204975 0.951576 -0.252899)
(0.204707 0.954659 -0.253919)
(0.204628 0.95368 -0.252983)
(0.16626 0.713921 -0.191447)
(0.198274 0.920576 -0.24497)
(0.1562 0.711468 -0.188867)
(0.193523 0.887615 -0.235661)
(0.184354 0.835429 -0.221771)
(0.191378 0.880399 -0.234151)
(0.191428 0.86905 -0.226328)
(0.187169 0.842695 -0.239349)
(0.198272 0.934885 -0.2529)
(0.188897 0.895875 -0.245904)
(0.195489 0.884918 -0.247401)
(0.203696 0.910899 -0.251556)
(0.185354 0.860695 -0.243226)
(0.199961 0.900987 -0.246356)
(0.203731 0.949317 -0.254251)
(0.198257 0.890953 -0.245751)
(0.203694 0.945471 -0.253286)
(0.202975 0.920222 -0.248188)
(0.202767 0.927316 -0.251194)
(0.202352 0.940001 -0.252832)
(0.199408 0.919745 -0.251202)
(0.20305 0.949613 -0.253624)
(0.197368 0.906925 -0.249745)
(0.203015 0.946882 -0.25389)
(0.203401 0.950392 -0.255992)
(0.203291 0.950816 -0.254367)
(0.20303 0.944454 -0.253524)
(0.185608 0.868033 -0.236023)
(0.197901 0.93582 -0.251484)
(0.178183 0.825402 -0.229823)
(0.193814 0.900435 -0.246629)
(0.197016 0.928983 -0.252523)
(0.200264 0.932575 -0.253693)
(0.193315 0.888767 -0.240208)
(0.135744 0.632336 -0.178738)
(0.139666 0.636417 -0.179567)
(0.146814 0.656624 -0.189688)
(0.132467 0.635076 -0.18048)
(0.150537 0.707407 -0.203217)
(0.141706 0.600391 -0.169577)
(0.140369 0.616602 -0.164944)
(0.152355 0.66129 -0.188391)
(0.195059 0.886459 -0.246395)
(0.158982 0.665396 -0.189146)
(0.191895 0.869918 -0.242811)
(0.185552 0.793002 -0.224482)
(0.193611 0.856893 -0.236276)
(0.183075 0.812702 -0.230799)
(0.183967 0.809088 -0.228777)
(0.190337 0.84726 -0.236295)
(0.184896 0.826136 -0.233702)