/*--------------------------------*- C++ -*----------------------------------*\
| =========                 |                                                 |
| \\      /  F ield         | OpenFOAM: The Open Source CFD Toolbox           |
|  \\    /   O peration     | Version:  v1612+                                |
|   \\  /    A nd           | Web:      www.OpenFOAM.com                      |
|    \\/     M anipulation  |                                                 |
\*---------------------------------------------------------------------------*/
FoamFile
{
    version     2.0;
    format      ascii;
    class       volVectorField;
    location    "150";
    object      U;
}
// * * * * * * * * * * * * * * * * * * * * * * * * * * * * * * * * * * * * * //

dimensions      [0 1 -1 0 0 0 0];

internalField   nonuniform List<vector> 
19028
(
(-0.0618271 -0.406454 -0.610669)
(-0.533843 -0.145669 -0.69551)
(-0.240114 -0.163502 -0.587069)
(-0.378981 0.507023 -0.749024)
(-0.375387 0.525664 -0.698068)
(-0.348744 0.474485 -0.706564)
(-0.339383 0.493519 -0.716181)
(-0.370052 0.536619 -0.744293)
(-0.370324 0.519956 -0.689679)
(-0.338513 0.518861 -0.696347)
(-0.378347 0.548475 -0.759305)
(-0.393393 0.498488 -0.765509)
(-0.3647 0.488851 -0.771078)
(-0.353493 0.454378 -0.757478)
(-0.363215 0.458535 -0.794588)
(-0.372528 0.523814 -0.759741)
(-0.355951 0.507755 -0.746301)
(-0.337649 0.456643 -0.794907)
(-0.318572 0.443483 -0.771514)
(-0.340156 0.459848 -0.740639)
(-0.357723 0.51341 -0.758047)
(-0.519838 0.150045 -0.734679)
(-0.497879 0.131093 -0.757601)
(-0.491627 0.111608 -0.720803)
(-0.491966 0.115654 -0.720017)
(-0.515394 0.171906 -0.747754)
(-0.427737 0.252031 -0.79879)
(-0.472967 0.206165 -0.798093)
(-0.44792 0.186671 -0.781835)
(-0.486807 0.207742 -0.808544)
(-0.519407 0.228324 -0.770956)
(-0.458929 0.180527 -0.765464)
(-0.451897 0.213842 -0.774783)
(-0.461307 0.195738 -0.738111)
(-0.476841 0.204631 -0.734605)
(-0.454216 0.157104 -0.711027)
(-0.50775 0.175808 -0.720657)
(-0.488313 0.151938 -0.70633)
(-0.471344 0.230189 -0.797196)
(-0.497354 0.203408 -0.743571)
(-0.486033 0.250939 -0.77575)
(-0.488297 0.308555 -0.268301)
(-0.484665 0.320188 -0.274546)
(-0.465099 0.390295 -0.313782)
(-0.408294 0.429611 -0.313117)
(-0.426145 0.417642 -0.320559)
(-0.432459 0.424108 -0.309306)
(-0.460756 0.324385 -0.257012)
(-0.454409 0.297252 -0.249476)
(-0.474955 0.345546 -0.29365)
(-0.434508 0.352908 -0.245367)
(-0.412984 0.338381 -0.245417)
(-0.427521 0.387331 -0.282616)
(-0.44197 0.36651 -0.256662)
(-0.445179 0.34179 -0.267654)
(-0.424601 0.298292 -0.237424)
(-0.352439 0.317285 -0.702328)
(-0.354448 0.289545 -0.721656)
(-0.351162 0.247336 -0.722955)
(-0.369782 0.260474 -0.735082)
(-0.311164 0.264375 -0.749058)
(-0.315407 0.234258 -0.738293)
(-0.36576 0.297875 -0.69673)
(-0.356291 0.259408 -0.721115)
(-0.327696 0.326405 -0.717251)
(-0.325612 0.35853 -0.71226)
(-0.350258 0.284011 -0.735298)
(-0.366675 0.207978 -0.717556)
(-0.345024 0.154056 -0.687641)
(-0.297802 0.182518 -0.700437)
(-0.289143 0.26102 -0.747497)
(-0.29227 0.280159 -0.741451)
(-0.315074 0.242208 -0.72134)
(-0.308944 0.176757 -0.692371)
(-0.219425 -0.538935 -0.648801)
(-0.217808 -0.537223 -0.639974)
(-0.203579 -0.559784 -0.653594)
(-0.223775 -0.527536 -0.658391)
(-0.206225 -0.544419 -0.648923)
(-0.215921 -0.515326 -0.642911)
(-0.207482 -0.53744 -0.631221)
(-0.206418 -0.580079 -0.644859)
(-0.188878 -0.568686 -0.627284)
(-0.212297 -0.518759 -0.650225)
(-0.193891 -0.525762 -0.630669)
(-0.214984 -0.559954 -0.631076)
(-0.183484 -0.584371 -0.621803)
(-0.187117 -0.548769 -0.603299)
(-0.204605 -0.569821 -0.616166)
(-0.240195 -0.512094 -0.639841)
(-0.217587 -0.52622 -0.616963)
(-0.211376 -0.546634 -0.602155)
(-0.0851255 -0.615727 -0.431663)
(-0.0549076 -0.648656 -0.411311)
(-0.112638 -0.619774 -0.468149)
(-0.0446341 -0.638016 -0.445479)
(-0.0397982 -0.738883 -0.451848)
(-0.0108318 -0.77855 -0.431796)
(-0.0370588 -0.744851 -0.462451)
(0.0107766 -0.759405 -0.428533)
(-0.021626 -0.662097 -0.436474)
(-0.0420546 -0.662755 -0.424721)
(0.0221674 -0.74634 -0.43852)
(0.0271068 -0.784578 -0.425118)
(-0.056919 -0.712675 -0.472128)
(-0.014335 -0.757576 -0.440859)
(0.00707154 -0.769341 -0.414921)
(0.0154803 -0.743479 -0.420481)
(0.0405968 -0.769913 -0.410063)
(-0.0895648 -0.645111 -0.477511)
(-0.0130994 -0.710634 -0.459124)
(-0.0357897 -0.669914 -0.458431)
(-0.307039 -0.539068 -0.844528)
(-0.316281 -0.523845 -0.871665)
(-0.305351 -0.512297 -0.851924)
(-0.260305 -0.574795 -0.81775)
(-0.231612 -0.612917 -0.815702)
(-0.217468 -0.626285 -0.784449)
(-0.238264 -0.600335 -0.817592)
(-0.273281 -0.61919 -0.845809)
(-0.338047 -0.452374 -0.864679)
(-0.322882 -0.460063 -0.8543)
(-0.267084 -0.567489 -0.834317)
(-0.230307 -0.632984 -0.793768)
(-0.296108 -0.601032 -0.845612)
(-0.285578 -0.523923 -0.860902)
(-0.294366 -0.495838 -0.864787)
(-0.403005 0.657535 -0.672954)
(-0.389123 0.700424 -0.641048)
(-0.438764 0.687984 -0.668559)
(-0.402864 0.66931 -0.635506)
(-0.42336 0.670553 -0.654609)
(-0.360443 0.63438 -0.623207)
(-0.349956 0.630144 -0.596191)
(-0.431469 0.663701 -0.656542)
(-0.438625 0.672273 -0.633286)
(-0.428596 0.645679 -0.671558)
(-0.419287 0.648452 -0.669641)
(-0.457149 0.634958 -0.681291)
(-0.387926 0.674545 -0.616805)
(-0.368564 0.57524 -0.568505)
(-0.35702 0.59299 -0.579181)
(-0.377996 0.627499 -0.613973)
(-0.366394 0.625295 -0.590197)
(-0.373141 0.631934 -0.645873)
(-0.362366 0.58122 -0.625683)
(-0.366944 0.598497 -0.663328)
(-0.355042 0.3415 -0.641576)
(-0.358282 0.332357 -0.620956)
(-0.37308 0.255475 -0.685138)
(-0.341713 0.318378 -0.679315)
(-0.360867 0.310554 -0.68389)
(-0.359127 0.278412 -0.66022)
(-0.387222 0.19043 -0.698958)
(-0.373689 0.221609 -0.667621)
(-0.345956 0.378817 -0.60309)
(-0.387541 0.310127 -0.63308)
(-0.360674 0.282944 -0.663834)
(-0.366066 0.294193 -0.617121)
(-0.374267 0.260224 -0.62436)
(-0.26467 -0.262982 -0.471932)
(-0.275061 -0.273353 -0.50242)
(-0.247528 -0.199078 -0.462311)
(-0.233047 -0.215336 -0.46563)
(-0.147199 -0.399093 -0.540277)
(-0.156308 -0.352689 -0.53505)
(-0.212164 -0.252191 -0.441794)
(-0.233325 -0.327381 -0.473616)
(-0.235682 -0.249054 -0.447059)
(-0.164525 -0.296673 -0.507126)
(-0.168943 -0.351231 -0.546037)
(-0.21014 -0.409886 -0.526996)
(-0.254072 -0.324617 -0.531662)
(-0.252098 -0.350271 -0.525455)
(-0.191874 -0.395811 -0.487964)
(-0.186615 -0.339089 -0.495478)
(-0.222603 -0.274375 -0.481444)
(-0.228857 -0.293759 -0.457644)
(-0.323357 0.551258 -0.46201)
(-0.340054 0.527163 -0.482643)
(-0.331242 0.567861 -0.495844)
(-0.374759 0.547394 -0.534184)
(-0.362272 0.605171 -0.540111)
(-0.342258 0.532871 -0.486534)
(-0.353799 0.519423 -0.495569)
(-0.352852 0.554355 -0.538184)
(-0.356588 0.58237 -0.551705)
(-0.346439 0.494525 -0.50256)
(-0.370883 0.647709 -0.542182)
(-0.342121 0.562868 -0.489069)
(-0.337503 0.538723 -0.520089)
(-0.350457 0.662289 -0.537595)
(-0.363412 0.67932 -0.538329)
(-0.345581 0.62673 -0.534651)
(-0.391798 0.203956 -0.822657)
(-0.374401 0.198979 -0.818005)
(-0.365012 0.272991 -0.840188)
(-0.370591 0.267166 -0.816937)
(-0.398921 0.315476 -0.802155)
(-0.404741 0.277336 -0.797472)
(-0.410745 0.323668 -0.81481)
(-0.440493 0.297758 -0.863756)
(-0.406079 0.241139 -0.822404)
(-0.395572 0.216824 -0.828103)
(-0.384457 0.237388 -0.785701)
(-0.357324 0.238756 -0.812396)
(-0.383115 0.264916 -0.818651)
(-0.401403 0.32056 -0.780951)
(-0.420991 0.270605 -0.808151)
(-0.392493 0.240042 -0.747049)
(-0.380946 0.278604 -0.765291)
(-0.175127 -0.474903 -0.524694)
(-0.186913 -0.509829 -0.534753)
(-0.208383 -0.383599 -0.529517)
(-0.200992 -0.373528 -0.504058)
(-0.213252 -0.379462 -0.498376)
(-0.202618 -0.365698 -0.532902)
(-0.183599 -0.447996 -0.474289)
(-0.15692 -0.443817 -0.450557)
(-0.187652 -0.463088 -0.496507)
(-0.205931 -0.487086 -0.58898)
(-0.182083 -0.491014 -0.562805)
(-0.223056 -0.456683 -0.575306)
(-0.154804 -0.493248 -0.551012)
(-0.231826 -0.374333 -0.528927)
(-0.196714 -0.370775 -0.511651)
(-0.189346 -0.390015 -0.505219)
(-0.135344 -0.480837 -0.500819)
(-0.161363 -0.484691 -0.46793)
(-0.167345 -0.420002 -0.484627)
(-0.242414 -0.379232 -0.550166)
(-0.193944 -0.466857 -0.556038)
(-0.183918 -0.43719 -0.51615)
(-0.46555 -0.274957 -0.844827)
(-0.453606 -0.321035 -0.815603)
(-0.458421 -0.18685 -0.846074)
(-0.459821 -0.168963 -0.857059)
(-0.440198 -0.220404 -0.868044)
(-0.443558 -0.172082 -0.847692)
(-0.433667 -0.230799 -0.848093)
(-0.406656 -0.258779 -0.826284)
(-0.425317 -0.203778 -0.856664)
(-0.423289 -0.241788 -0.837307)
(-0.487488 -0.228902 -0.832893)
(-0.430842 -0.30604 -0.821364)
(-0.453858 -0.23469 -0.850714)
(-0.450413 -0.228757 -0.860025)
(-0.473484 -0.158336 -0.831894)
(-0.417967 -0.248091 -0.848264)
(-0.405934 -0.314424 -0.84733)
(-0.430451 -0.336167 -0.845689)
(-0.416312 -0.325944 -0.84803)
(-0.410347 -0.345918 -0.806334)
(-0.136117 -0.487796 -0.656833)
(-0.0815394 -0.52031 -0.650931)
(-0.0785167 -0.526007 -0.609848)
(-0.109064 -0.555686 -0.613309)
(-0.0811151 -0.529001 -0.714267)
(-0.0561065 -0.651259 -0.761809)
(-0.0810915 -0.553092 -0.687529)
(-0.0795412 -0.574233 -0.708986)
(-0.0855503 -0.641427 -0.770447)
(-0.0999103 -0.612646 -0.780431)
(-0.0800263 -0.627364 -0.68304)
(-0.079628 -0.572083 -0.667431)
(-0.0677018 -0.65089 -0.72074)
(-0.339525 -0.26341 -0.722857)
(-0.349209 -0.246435 -0.724132)
(-0.313826 -0.286614 -0.70682)
(-0.367201 -0.264697 -0.718316)
(-0.335748 -0.288264 -0.703585)
(-0.354335 -0.338526 -0.711178)
(-0.347453 -0.365629 -0.671695)
(-0.350897 -0.328832 -0.689198)
(-0.338392 -0.385489 -0.678602)
(-0.326196 -0.362298 -0.688098)
(-0.311484 -0.275911 -0.662285)
(-0.327861 -0.308737 -0.717659)
(-0.283488 -0.342502 -0.660533)
(-0.265531 -0.325765 -0.64974)
(-0.312718 -0.361857 -0.686237)
(-0.335211 -0.331935 -0.681974)
(-0.314649 -0.367391 -0.675784)
(-0.238628 -0.425213 -0.567664)
(-0.262901 -0.441845 -0.582587)
(-0.283294 -0.392512 -0.592283)
(-0.247588 -0.465029 -0.624597)
(-0.244642 -0.467353 -0.591553)
(-0.272646 -0.309064 -0.529571)
(-0.254066 -0.347916 -0.542034)
(-0.270108 -0.356464 -0.566424)
(-0.283817 -0.300819 -0.568566)
(-0.290693 -0.295532 -0.560284)
(-0.283288 -0.387304 -0.60372)
(-0.268861 -0.400736 -0.579518)
(-0.285786 -0.400388 -0.601853)
(-0.306645 -0.43009 -0.633933)
(-0.298291 -0.359781 -0.614603)
(-0.266968 -0.420579 -0.610207)
(-0.404756 0.108588 -0.79127)
(-0.399436 0.1383 -0.794006)
(-0.47587 0.0408968 -0.814783)
(-0.481434 0.016391 -0.791921)
(-0.418763 0.131578 -0.754686)
(-0.422036 0.0976399 -0.826588)
(-0.411629 0.0908325 -0.866842)
(-0.442574 0.00221505 -0.842682)
(-0.458532 -0.00339555 -0.824026)
(-0.459943 0.0365249 -0.809664)
(-0.396056 0.0456626 -0.853973)
(-0.431348 0.0266378 -0.846898)
(-0.426205 0.0860869 -0.85444)
(-0.421786 0.0912291 -0.859645)
(-0.43851 0.0855911 -0.805978)
(-0.454014 0.0397507 -0.781291)
(-0.424979 0.0564525 -0.825741)
(-0.303285 -0.0760529 -0.522873)
(-0.298918 -0.0966332 -0.52809)
(-0.29581 -0.100289 -0.492812)
(-0.301659 -0.140937 -0.53504)
(-0.317576 -0.118654 -0.501243)
(-0.279317 -0.150774 -0.484672)
(-0.294721 -0.13183 -0.489633)
(-0.310649 -0.113952 -0.502829)
(-0.271156 -0.151503 -0.45313)
(-0.297742 -0.173153 -0.506795)
(-0.278703 -0.1371 -0.537082)
(-0.271555 -0.152261 -0.460527)
(-0.270981 -0.172466 -0.500891)
(-0.2782 -0.194394 -0.465216)
(-0.218899 0.554826 -0.723929)
(-0.245937 0.548855 -0.746403)
(-0.228596 0.558827 -0.726644)
(-0.21964 0.499529 -0.718202)
(-0.201694 0.456939 -0.692129)
(-0.200397 0.505565 -0.710975)
(-0.196736 0.471854 -0.704748)
(-0.246307 0.553877 -0.7291)
(-0.245794 0.565672 -0.705853)
(-0.212753 0.499629 -0.731629)
(-0.247025 0.495643 -0.748596)
(-0.251468 0.526052 -0.746535)
(-0.26234 0.497653 -0.740701)
(-0.197437 0.469659 -0.727774)
(-0.184677 0.429561 -0.711176)
(-0.231542 0.53677 -0.709849)
(-0.23272 0.472253 -0.742779)
(-0.208387 0.446614 -0.732981)
(-0.23246 0.472649 -0.752507)
(-0.257019 0.525633 -0.730133)
(-0.477109 0.466033 -0.749141)
(-0.493908 0.483562 -0.743152)
(-0.496048 0.451889 -0.76922)
(-0.530825 0.47527 -0.757054)
(-0.498439 0.39525 -0.730671)
(-0.529495 0.406256 -0.709445)
(-0.519815 0.383223 -0.689388)
(-0.499137 0.379923 -0.74219)
(-0.549707 0.329847 -0.729787)
(-0.518539 0.405389 -0.778401)
(-0.515778 0.327761 -0.707715)
(-0.542936 0.38026 -0.712634)
(-0.519324 0.344618 -0.680798)
(-0.567458 0.342641 -0.733408)
(-0.560093 0.315941 -0.724881)
(-0.527879 0.327358 -0.70559)
(-0.519534 0.345988 -0.689466)
(-0.56028 0.367723 -0.711159)
(-0.538177 0.294524 -0.696472)
(-0.524602 0.280378 -0.683038)
(-0.597322 0.0767281 -0.664159)
(-0.578563 0.10643 -0.664648)
(-0.603481 0.0881319 -0.631592)
(-0.603638 0.0219893 -0.634056)
(-0.572471 0.0617624 -0.67404)
(-0.571802 0.0188481 -0.660973)
(-0.616328 0.0757234 -0.661719)
(-0.526809 0.200212 -0.660326)
(-0.547024 0.184917 -0.661663)
(-0.542714 0.187511 -0.625914)
(-0.538103 0.161245 -0.669009)
(-0.517395 0.166934 -0.68602)
(-0.529907 0.159904 -0.681265)
(-0.612725 0.0144481 -0.674402)
(-0.560828 0.0523666 -0.69664)
(-0.546738 0.064092 -0.725293)
(-0.52354 0.16374 -0.72055)
(-0.532625 0.155124 -0.707816)
(-0.569829 0.051794 -0.713285)
(-0.550353 0.155927 -0.68505)
(-0.393406 0.312413 -0.675877)
(-0.397809 0.338528 -0.653849)
(-0.415332 0.273505 -0.715281)
(-0.390813 0.215733 -0.695617)
(-0.435182 0.357745 -0.678022)
(-0.422573 0.304486 -0.636588)
(-0.434207 0.308607 -0.715648)
(-0.395858 0.186718 -0.691714)
(-0.35324 0.228051 -0.65308)
(-0.357064 0.149484 -0.700318)
(-0.445312 0.157324 -0.74056)
(-0.452457 0.182994 -0.717155)
(-0.470368 0.220711 -0.743206)
(-0.420723 0.253334 -0.707113)
(-0.33604 0.205281 -0.639077)
(-0.36186 0.255687 -0.611313)
(-0.393309 0.172286 -0.696492)
(-0.397847 0.149971 -0.703503)
(-0.3787 0.120976 -0.693143)
(-0.364987 0.20647 -0.65602)
(-0.193436 -0.576313 -0.594635)
(-0.200922 -0.555249 -0.581706)
(-0.181261 -0.55281 -0.58291)
(-0.183701 -0.578149 -0.568166)
(-0.212492 -0.547222 -0.584041)
(-0.207941 -0.490194 -0.589679)
(-0.22107 -0.475543 -0.571054)
(-0.18925 -0.460756 -0.528065)
(-0.208222 -0.443447 -0.553447)
(-0.222954 -0.502444 -0.618938)
(-0.180712 -0.504556 -0.570484)
(-0.184092 -0.491211 -0.589703)
(-0.243682 -0.481934 -0.608058)
(-0.215969 -0.449176 -0.529153)
(-0.208585 -0.39807 -0.543855)
(-0.240729 -0.468655 -0.601369)
(-0.282657 0.461673 -0.771951)
(-0.302141 0.428033 -0.770331)
(-0.346194 0.525689 -0.803816)
(-0.344551 0.49658 -0.764999)
(-0.340274 0.476285 -0.789728)
(-0.331958 0.460575 -0.781392)
(-0.30399 0.485724 -0.749688)
(-0.337327 0.475223 -0.796732)
(-0.343793 0.444576 -0.776338)
(-0.337144 0.527577 -0.76585)
(-0.326713 0.516769 -0.792394)
(-0.289179 0.446577 -0.742026)
(-0.312127 0.483128 -0.728193)
(-0.326271 0.445805 -0.719626)
(-0.321206 0.497841 -0.760697)
(-0.315415 0.431829 -0.757422)
(-0.312852 0.435571 -0.733333)
(-0.297709 -0.401584 -0.779712)
(-0.303097 -0.399929 -0.798986)
(-0.314072 -0.424505 -0.817392)
(-0.288273 -0.436255 -0.794767)
(-0.300591 -0.453482 -0.824474)
(-0.302136 -0.450801 -0.829765)
(-0.306754 -0.380882 -0.765036)
(-0.337858 -0.347691 -0.781763)
(-0.31274 -0.4034 -0.853621)
(-0.324691 -0.368288 -0.800832)
(-0.345475 -0.3787 -0.791124)
(-0.336862 -0.373587 -0.814297)
(-0.335566 -0.380288 -0.802378)
(-0.330093 -0.367767 -0.830725)
(-0.317489 -0.379758 -0.837005)
(-0.334218 -0.407806 -0.79808)
(-0.337112 0.0836654 -0.827665)
(-0.356535 0.090258 -0.841679)
(-0.320391 0.0974968 -0.830468)
(-0.29897 0.0439099 -0.787536)
(-0.38766 0.0902418 -0.862403)
(-0.354744 0.0446745 -0.82977)
(-0.332883 0.00246659 -0.803592)
(-0.363226 0.0240884 -0.831929)
(-0.376178 0.136296 -0.838502)
(-0.347008 0.105103 -0.824929)
(-0.327702 0.0791204 -0.806115)
(-0.307907 0.0483556 -0.790964)
(-0.342605 0.0272311 -0.810051)
(-0.303887 0.000100518 -0.788372)
(-0.389296 0.0546296 -0.843139)
(-0.373845 0.127692 -0.842699)
(-0.359774 0.054788 -0.822709)
(-0.385873 0.100421 -0.833088)
(-0.284418 0.526184 -0.782285)
(-0.276605 0.509332 -0.762124)
(-0.234983 0.533093 -0.741446)
(-0.223843 0.500852 -0.731728)
(-0.290836 0.555855 -0.785015)
(-0.282469 0.612094 -0.746556)
(-0.284647 0.587611 -0.742172)
(-0.268244 0.536544 -0.740104)
(-0.254117 0.525052 -0.770572)
(-0.251535 0.501994 -0.747126)
(-0.248796 0.477588 -0.720262)
(-0.27829 0.603027 -0.72571)
(-0.277374 0.579432 -0.710556)
(-0.272637 0.611902 -0.739369)
(-0.235867 0.553152 -0.724939)
(-0.267028 0.527595 -0.76768)
(-0.244845 0.530499 -0.710648)
(-0.257773 0.583077 -0.705064)
(-0.268748 0.54108 -0.692716)
(-0.276883 0.611221 -0.740655)
(-0.271428 0.586856 -0.753067)
(-0.22622 -0.569742 -0.781834)
(-0.211639 -0.57249 -0.785684)
(-0.222489 -0.523254 -0.77525)
(-0.223661 -0.559921 -0.797372)
(-0.210145 -0.537377 -0.764101)
(-0.200832 -0.561655 -0.803275)
(-0.235263 -0.499231 -0.758179)
(-0.161445 -0.639473 -0.74966)
(-0.169262 -0.640033 -0.748276)
(-0.153547 -0.616938 -0.752023)
(-0.202573 -0.595052 -0.779615)
(-0.213089 -0.55437 -0.755151)
(-0.152099 -0.616163 -0.775618)
(-0.176914 -0.596824 -0.765881)
(-0.190154 -0.575282 -0.800784)
(-0.193377 -0.537343 -0.753555)
(-0.189144 -0.53565 -0.729043)
(-0.157211 -0.628375 -0.7654)
(-0.145197 -0.632675 -0.744559)
(-0.144872 -0.63437 -0.768699)
(-0.14388 -0.619611 -0.75311)
(-0.431335 0.260652 -0.69146)
(-0.364032 0.317637 -0.660134)
(-0.405059 0.25657 -0.691599)
(-0.36832 0.279883 -0.656653)
(-0.425414 0.288784 -0.663965)
(-0.419047 0.290716 -0.657355)
(-0.413052 0.268561 -0.620748)
(-0.391763 0.312206 -0.592777)
(-0.378915 0.343705 -0.657365)
(-0.396087 0.317308 -0.632636)
(-0.377345 0.369838 -0.556402)
(-0.351271 0.39691 -0.566604)
(-0.419119 0.291369 -0.638481)
(-0.432197 0.260473 -0.614613)
(-0.384689 0.350718 -0.599342)
(-0.398988 0.326347 -0.615492)
(-0.362487 0.408787 -0.55717)
(-0.342004 0.402418 -0.596172)
(-0.505209 0.189855 -0.740569)
(-0.501186 0.215826 -0.741936)
(-0.460113 0.260964 -0.698272)
(-0.468315 0.229475 -0.695867)
(-0.480467 0.296419 -0.70293)
(-0.52698 0.145992 -0.761258)
(-0.512289 0.176906 -0.753307)
(-0.484007 0.144408 -0.730295)
(-0.441958 0.189209 -0.674121)
(-0.468838 0.192838 -0.735697)
(-0.405584 0.219712 -0.651566)
(-0.398595 0.261693 -0.63414)
(-0.465167 0.180887 -0.695173)
(-0.476027 0.294105 -0.707755)
(-0.448741 0.186724 -0.660471)
(-0.416285 0.270862 -0.621918)
(-0.430552 0.278193 -0.651505)
(-0.444712 0.255762 -0.684244)
(-0.356489 0.306361 -0.76205)
(-0.352918 0.288079 -0.762291)
(-0.357241 0.337888 -0.723422)
(-0.340682 0.388039 -0.755979)
(-0.341066 0.347141 -0.761444)
(-0.315507 0.297502 -0.728917)
(-0.348704 0.290375 -0.734057)
(-0.331261 0.412291 -0.711184)
(-0.343801 0.404859 -0.733628)
(-0.348825 0.376579 -0.690598)
(-0.342747 0.417181 -0.708894)
(-0.346709 0.361909 -0.634783)
(-0.376039 0.285824 -0.691035)
(-0.331675 0.342207 -0.730734)
(-0.330935 0.376597 -0.65651)
(-0.329104 0.371545 -0.670337)
(-0.353453 0.444639 -0.670961)
(-0.333008 0.320199 -0.733111)
(-0.294115 0.358489 -0.717261)
(-0.334123 0.406148 -0.688705)
(-0.39812 0.338929 -0.639097)
(-0.417907 0.312306 -0.640755)
(-0.485344 0.389683 -0.708379)
(-0.471416 0.388821 -0.699367)
(-0.468176 0.328561 -0.70527)
(-0.473027 0.367999 -0.683097)
(-0.515751 0.275578 -0.765339)
(-0.440138 0.360338 -0.6569)
(-0.425231 0.376419 -0.638241)
(-0.450714 0.358584 -0.661614)
(-0.479277 0.384774 -0.713469)
(-0.256301 -0.521219 -0.612411)
(-0.272147 -0.525806 -0.627599)
(-0.254204 -0.527461 -0.598195)
(-0.248388 -0.542799 -0.594834)
(-0.254295 -0.48832 -0.62804)
(-0.246062 -0.550729 -0.576772)
(-0.260815 -0.450186 -0.641963)
(-0.279008 -0.498327 -0.651863)
(-0.226986 -0.585913 -0.591541)
(-0.23637 -0.497519 -0.637309)
(-0.241989 -0.513515 -0.63012)
(-0.254738 -0.535388 -0.623774)
(-0.235065 -0.547078 -0.585334)
(-0.224879 -0.495851 -0.640691)
(-0.204147 -0.502793 -0.607341)
(-0.223288 -0.551265 -0.618731)
(-0.228962 -0.566719 -0.598148)
(-0.231512 -0.265683 -0.52775)
(-0.249486 -0.275198 -0.501177)
(-0.272049 -0.257663 -0.528694)
(-0.287307 -0.209309 -0.544234)
(-0.226473 -0.228883 -0.463786)
(-0.254822 -0.217504 -0.476394)
(-0.224975 -0.261564 -0.457301)
(-0.25783 -0.297094 -0.558771)
(-0.286011 -0.162652 -0.481754)
(-0.301221 -0.233186 -0.5048)
(-0.275803 -0.19356 -0.512454)
(-0.255572 -0.211901 -0.510217)
(-0.300306 -0.112785 -0.530421)
(-0.273105 -0.187357 -0.540512)
(-0.336111 -0.19968 -0.545391)
(-0.297134 -0.213511 -0.539494)
(-0.281321 -0.252805 -0.57846)
(-0.296646 -0.254926 -0.533883)
(-0.255841 -0.231148 -0.561891)
(-0.26759 -0.217105 -0.561058)
(-0.308217 -0.250643 -0.557407)
(-0.3747 0.218037 -0.749745)
(-0.37431 0.227888 -0.781285)
(-0.370104 0.287703 -0.781782)
(-0.363222 0.28411 -0.765157)
(-0.373731 0.270095 -0.688729)
(-0.367876 0.244534 -0.666487)
(-0.372757 0.295358 -0.74914)
(-0.358386 0.159378 -0.767809)
(-0.373578 0.172729 -0.758796)
(-0.363519 0.306437 -0.735395)
(-0.342377 0.245526 -0.78149)
(-0.366656 0.166291 -0.742515)
(-0.369565 0.185734 -0.797114)
(-0.359152 0.274708 -0.774571)
(-0.353044 0.284181 -0.748634)
(-0.389759 0.188941 -0.75489)
(-0.416765 -0.0599076 -0.745564)
(-0.417958 -0.0434078 -0.745515)
(-0.413872 -0.0978093 -0.762031)
(-0.410783 -0.0882421 -0.75601)
(-0.379063 -0.0622366 -0.780377)
(-0.375371 -0.0562351 -0.766516)
(-0.357135 -0.00355941 -0.712743)
(-0.431094 -0.0275671 -0.767716)
(-0.376033 -0.00900554 -0.74536)
(-0.384215 0.00862631 -0.721336)
(-0.401709 -0.0731445 -0.757598)
(-0.3903 -0.0920394 -0.788002)
(-0.388843 -0.102648 -0.781957)
(-0.314492 -0.0605062 -0.503179)
(-0.315863 -0.0553916 -0.491327)
(-0.275305 -0.0961359 -0.526538)
(-0.291708 -0.0777737 -0.526683)
(-0.315352 -0.00805645 -0.507878)
(-0.321441 -0.0209409 -0.487752)
(-0.300343 -0.118777 -0.48635)
(-0.318563 -0.0640652 -0.515144)
(-0.278066 -0.0331012 -0.492729)
(-0.228584 -0.130451 -0.516252)
(-0.254012 -0.101592 -0.501919)
(-0.303551 -0.0088841 -0.502196)
(-0.253013 -0.141209 -0.507304)
(-0.283886 -0.138885 -0.498911)
(-0.352332 -0.0382671 -0.491677)
(-0.313185 -0.0635101 -0.512749)
(-0.305975 -0.0629512 -0.524116)
(-0.253722 -0.144276 -0.475057)
(-0.251452 -0.166798 -0.464494)
(-0.0565949 -0.726258 -0.482689)
(-0.0207023 -0.743247 -0.471535)
(-0.0245129 -0.748188 -0.461956)
(-0.0255459 -0.728884 -0.469152)
(-0.0135834 -0.687694 -0.476822)
(-0.0557465 -0.678443 -0.441653)
(-0.0174721 -0.676935 -0.464181)
(-0.00733153 -0.696402 -0.443764)
(-0.249902 0.629706 -0.710634)
(-0.243645 0.571805 -0.728002)
(-0.302999 0.532826 -0.712459)
(-0.279912 0.550281 -0.702534)
(-0.270191 0.540102 -0.736942)
(-0.277725 0.558883 -0.736286)
(-0.292683 0.523371 -0.743989)
(-0.284669 0.524117 -0.747279)
(-0.282671 0.581607 -0.693445)
(-0.279 0.548388 -0.691493)
(-0.270732 0.538307 -0.760111)
(-0.281682 0.637963 -0.745034)
(-0.37391 0.675896 -0.509455)
(-0.358005 0.67754 -0.547659)
(-0.353595 0.684478 -0.539543)
(-0.378436 0.666042 -0.590768)
(-0.346502 0.672618 -0.506475)
(-0.329529 0.629332 -0.512476)
(-0.310094 0.609751 -0.485548)
(-0.327506 0.592083 -0.544353)
(-0.372122 0.637994 -0.582202)
(-0.358165 0.666456 -0.550781)
(-0.367923 0.622639 -0.556008)
(-0.319121 0.56944 -0.474592)
(-0.375877 0.631186 -0.581791)
(-0.4683 0.298449 -0.73679)
(-0.447358 0.264392 -0.721126)
(-0.48197 0.244687 -0.727006)
(-0.47326 0.245825 -0.702655)
(-0.443014 0.375214 -0.79437)
(-0.47349 0.355738 -0.801178)
(-0.444233 0.292263 -0.779909)
(-0.469706 0.342131 -0.772215)
(-0.474068 0.339069 -0.795877)
(-0.491562 0.269237 -0.750855)
(-0.489452 0.282727 -0.722784)
(-0.481758 0.318986 -0.749458)
(-0.48051 0.301946 -0.75968)
(-0.451043 0.34378 -0.801005)
(-0.465113 0.255656 -0.748709)
(-0.464687 0.322405 -0.764239)
(-0.45531 0.31598 -0.791387)
(-0.494121 0.0265574 -0.739256)
(-0.5085 0.0354871 -0.725263)
(-0.492791 -0.0235202 -0.724997)
(-0.516867 -0.0385115 -0.741087)
(-0.478096 0.0993431 -0.745668)
(-0.511965 0.0831058 -0.749763)
(-0.530333 0.135447 -0.747059)
(-0.504042 0.0261415 -0.746541)
(-0.469118 0.0243014 -0.746791)
(-0.502822 0.20117 -0.753482)
(-0.521175 0.207508 -0.770316)
(-0.503472 0.168495 -0.762147)
(-0.46934 0.0749316 -0.740464)
(-0.464328 0.140765 -0.730829)
(-0.289346 -0.181587 -0.565315)
(-0.32066 -0.208365 -0.626926)
(-0.227192 -0.40964 -0.571048)
(-0.225379 -0.411812 -0.581697)
(-0.319448 -0.312045 -0.627041)
(-0.31356 -0.298697 -0.646622)
(-0.301994 -0.208383 -0.552553)
(-0.287147 -0.19521 -0.60055)
(-0.31077 -0.246857 -0.566377)
(-0.210453 -0.415906 -0.60918)
(-0.236474 -0.414397 -0.613289)
(-0.241266 -0.433698 -0.632594)
(-0.278686 -0.387895 -0.620652)
(-0.214372 -0.357033 -0.535779)
(-0.190786 -0.358694 -0.545885)
(-0.263854 -0.245503 -0.550631)
(-0.260475 -0.253579 -0.544304)
(-0.309454 -0.324832 -0.652685)
(-0.211052 -0.385318 -0.624243)
(-0.31902 -0.189447 -0.664301)
(-0.0970182 -0.580743 -0.441257)
(-0.125108 -0.560718 -0.37917)
(-0.134086 -0.521767 -0.402812)
(-0.151195 -0.51861 -0.41836)
(-0.143103 -0.49295 -0.416373)
(-0.117109 -0.5565 -0.387428)
(-0.0624325 -0.613839 -0.405489)
(-0.0829311 -0.57779 -0.448671)
(-0.168223 -0.518308 -0.456263)
(-0.157319 -0.538538 -0.485818)
(-0.0468539 -0.646696 -0.452294)
(-0.314928 0.342881 -0.388918)
(-0.297909 0.299562 -0.374504)
(-0.270237 0.25231 -0.377255)
(-0.274551 0.219759 -0.359661)
(-0.327643 0.353734 -0.378864)
(-0.309509 0.312752 -0.363086)
(-0.317334 0.269774 -0.366034)
(-0.363468 0.308935 -0.353166)
(-0.317229 0.248935 -0.345098)
(-0.29935 0.228799 -0.403024)
(-0.298399 0.247178 -0.405301)
(-0.418906 0.284336 -0.404778)
(-0.398221 0.276009 -0.389549)
(-0.317699 0.303213 -0.399359)
(-0.370119 0.333674 -0.397933)
(-0.368649 0.252061 -0.416404)
(-0.370874 0.304259 -0.411765)
(-0.431432 0.461876 -0.770716)
(-0.414078 0.429823 -0.790178)
(-0.390229 0.466332 -0.779836)
(-0.435183 0.481517 -0.765216)
(-0.423339 0.442106 -0.761382)
(-0.38856 0.437722 -0.793683)
(-0.392084 0.429662 -0.784759)
(-0.374102 0.439823 -0.797848)
(-0.369351 0.420283 -0.795996)
(-0.402394 0.51007 -0.713233)
(-0.412225 0.519782 -0.745821)
(-0.359133 0.418524 -0.783949)
(-0.362564 0.488461 -0.748905)
(-0.373193 0.465193 -0.769579)
(-0.397725 0.504385 -0.762938)
(-0.468929 0.579241 -0.747152)
(-0.472879 0.552693 -0.761687)
(-0.477655 0.507857 -0.711759)
(-0.472528 0.494413 -0.705813)
(-0.485576 0.594472 -0.743758)
(-0.504639 0.526957 -0.729969)
(-0.41889 0.592251 -0.723805)
(-0.458645 0.539574 -0.724055)
(-0.504428 0.521057 -0.704491)
(-0.428141 0.619864 -0.701459)
(-0.492333 0.478675 -0.71804)
(-0.420081 0.649227 -0.717214)
(-0.435264 0.611304 -0.708609)
(-0.485677 0.615084 -0.738529)
(-0.440145 0.547902 -0.720964)
(-0.465242 0.619336 -0.760044)
(-0.408813 0.580486 -0.74071)
(-0.395434 0.272885 -0.758934)
(-0.408551 0.238474 -0.759259)
(-0.412922 0.250342 -0.761625)
(-0.411199 0.260845 -0.752596)
(-0.432588 0.229746 -0.715503)
(-0.41402 0.249356 -0.728299)
(-0.445989 0.189052 -0.720082)
(-0.43317 0.200646 -0.744703)
(-0.448655 0.20597 -0.765871)
(-0.450502 0.22113 -0.705072)
(-0.440716 0.234275 -0.713507)
(-0.433569 0.260922 -0.699347)
(-0.470594 0.168988 -0.742869)
(-0.4774 0.199364 -0.735718)
(-0.273347 -0.491862 -0.870069)
(-0.260366 -0.506677 -0.857713)
(-0.315745 -0.45279 -0.865106)
(-0.28221 -0.424799 -0.814603)
(-0.266252 -0.448653 -0.801178)
(-0.27491 -0.489441 -0.830461)
(-0.312388 -0.431063 -0.832666)
(-0.33977 -0.433627 -0.853878)
(-0.304377 0.43234 -0.565837)
(-0.319425 0.423424 -0.587687)
(-0.323692 0.414797 -0.586254)
(-0.317666 0.438287 -0.598529)
(-0.321423 0.436992 -0.619848)
(-0.297902 0.495667 -0.549496)
(-0.243008 0.503834 -0.591618)
(-0.279396 -0.282354 -0.764859)
(-0.316568 -0.24838 -0.771518)
(-0.297846 -0.286396 -0.769772)
(-0.301674 -0.375369 -0.763606)
(-0.282229 -0.398721 -0.745817)
(-0.278894 -0.359377 -0.711552)
(-0.289057 -0.34693 -0.714822)
(-0.331392 -0.321893 -0.753415)
(-0.303777 -0.314302 -0.757767)
(-0.332982 -0.299791 -0.772259)
(-0.30901 -0.285678 -0.759381)
(-0.290127 -0.232588 -0.689914)
(-0.296496 -0.357381 -0.766203)
(-0.322861 -0.325331 -0.766744)
(-0.303156 -0.321105 -0.69756)
(-0.325581 -0.288233 -0.717363)
(-0.311968 -0.340801 -0.774402)
(-0.340846 0.475144 -0.543515)
(-0.327896 0.497874 -0.51593)
(-0.325357 0.453015 -0.57409)
(-0.338144 0.461126 -0.525613)
(-0.363916 0.455012 -0.494153)
(-0.356763 0.396393 -0.595352)
(-0.369946 0.372659 -0.594185)
(-0.386979 0.374885 -0.57717)
(-0.390957 0.38138 -0.55194)
(-0.365367 0.416069 -0.522381)
(-0.37864 0.407339 -0.53065)
(-0.392912 0.453154 -0.327404)
(-0.42281 0.452171 -0.323902)
(-0.407062 0.445306 -0.296362)
(-0.398107 0.473612 -0.309045)
(-0.42578 0.408817 -0.285269)
(-0.384587 0.458665 -0.290811)
(-0.43692 0.358461 -0.25624)
(-0.405017 0.350339 -0.238761)
(-0.388409 0.406106 -0.257769)
(-0.383341 0.480866 -0.290389)
(-0.425096 0.381123 -0.262531)
(-0.405038 0.376086 -0.241014)
(-0.385655 0.402382 -0.235599)
(-0.210767 0.428569 -0.743382)
(-0.187208 0.384503 -0.715809)
(-0.197173 0.430355 -0.737925)
(-0.223762 0.470295 -0.748691)
(-0.24765 0.469973 -0.750312)
(-0.226741 0.497732 -0.755984)
(-0.239611 0.353076 -0.742807)
(-0.229728 0.368943 -0.739279)
(-0.229402 0.318979 -0.723813)
(-0.232384 0.443285 -0.761529)
(-0.273612 0.459804 -0.73914)
(-0.246671 0.466558 -0.726408)
(-0.199266 0.353942 -0.721607)
(-0.228478 0.403174 -0.731375)
(-0.22873 0.361486 -0.726472)
(-0.253171 0.403084 -0.743119)
(-0.393614 0.368427 -0.585423)
(-0.440949 0.288523 -0.589553)
(-0.414027 0.304634 -0.626074)
(-0.434801 0.322578 -0.559631)
(-0.410483 0.690641 -0.691832)
(-0.412892 0.661888 -0.721058)
(-0.38837 0.690181 -0.667019)
(-0.395714 0.642345 -0.683161)
(-0.481362 0.683268 -0.700685)
(-0.446676 0.657897 -0.718888)
(-0.433013 0.666037 -0.670515)
(-0.46679 0.644936 -0.710703)
(-0.485734 0.657178 -0.695557)
(-0.48245 0.616873 -0.711817)
(-0.489715 0.647713 -0.730623)
(-0.48637 0.624493 -0.726404)
(-0.460727 0.647515 -0.716388)
(-0.398293 0.897509 -0.599224)
(-0.418818 0.873233 -0.607908)
(-0.360053 0.903666 -0.609192)
(-0.409879 0.893231 -0.606)
(-0.360507 0.914085 -0.561585)
(-0.368491 0.194889 -0.599619)
(-0.377283 0.176727 -0.592903)
(-0.385147 0.213427 -0.606169)
(-0.369008 0.249853 -0.616943)
(-0.409308 0.201829 -0.677071)
(-0.361254 0.180102 -0.610273)
(-0.378865 0.262628 -0.607792)
(-0.361727 0.128827 -0.642831)
(-0.401112 0.255599 -0.646343)