/*--------------------------------*- C++ -*----------------------------------*\
| =========                 |                                                 |
| \\      /  F ield         | OpenFOAM: The Open Source CFD Toolbox           |
|  \\    /   O peration     | Version:  v1612+                                |
|   \\  /    A nd           | Web:      www.OpenFOAM.com                      |
|    \\/     M anipulation  |                                                 |
\*---------------------------------------------------------------------------*/
FoamFile
{
    version     2.0;
    format      ascii;
    class       volVectorField;
    location    "150";
    object      wallShearStress;
}
// * * * * * * * * * * * * * * * * * * * * * * * * * * * * * * * * * * * * * //

dimensions      [0 2 -2 0 0 0 0];

internalField   uniform (0 0 0);

boundaryField
{
    WALL
    {
        type            calculated;
        value           nonuniform List<vector> 
1687
(
(-0.00765831 0.0364512 0.00505021)
(-0.00680517 0.0353184 0.00376502)
(-0.00493584 0.0235083 0.0190578)
(-0.00454627 0.025806 0.0188878)
(0.0256645 0.000677848 0.0116715)
(0.028594 0.00480231 0.0146615)
(-0.0155898 0.02148 0.0129904)
(-0.0153816 0.0294046 0.00877036)
(-0.00727235 0.0044101 0.0112938)
(-0.0019627 0.00552571 0.014155)
(0.00259729 -0.0135264 0.0188971)
(0.000157065 -0.0107675 0.0190249)
(0.00169149 0.0369336 0.00668134)
(-0.000562269 0.0301337 0.00164179)
(0.00598306 0.024311 0.0160621)
(0.00745916 0.0256864 0.0153997)
(0.00772875 0.0239542 0.0136863)
(0.0082121 0.0221832 0.0104279)
(0.00242153 0.0155485 0.0211307)
(0.00470884 0.0145886 0.018359)
(-0.00205558 0.00443567 0.0219766)
(-0.000874543 0.007029 0.0233994)
(0.019403 0.0230524 0.00966482)
(0.0199218 0.0168723 0.0097796)
(0.0170775 0.0131782 0.00598664)
(0.0199468 0.0153352 0.0103944)
(-0.00883729 0.0238378 0.0160021)
(-0.0121757 0.0263576 0.0131054)
(-0.0234975 0.0322824 -0.000481834)
(-0.00460247 0.0158432 0.0175303)
(-0.00164481 0.0097452 0.0171287)
(0.0014617 0.0224788 0.0152374)
(0.00100717 0.0254917 0.015487)
(-0.0115952 0.0299472 0.019994)
(-0.0143453 0.0371541 0.0184883)
(-0.00900365 0.0441826 0.0132789)
(-0.00809319 0.0414257 0.0196728)
(-0.00876806 0.0264898 0.0226282)
(-0.00803075 0.03316 0.022042)
(-0.0199484 0.0368159 0.0122592)
(-0.0216892 0.0387014 0.00971119)
(-0.00344945 0.00852848 0.0264705)
(-0.0086751 0.0102246 0.0298707)
(0.0234238 0.00173588 0.0155048)
(0.0230533 -0.00276117 0.014362)
(0.0237393 0.00569767 0.0178528)
(0.0215955 0.00768843 0.0191374)
(0.0214161 0.0039615 0.0122887)
(0.0198316 0.00416902 0.0109035)
(0.0224949 0.00652825 0.0122163)
(0.0238977 0.00811677 0.0130345)
(0.0230112 0.0122394 0.0161888)
(0.0213344 0.0161114 0.0166684)
(0.00994772 -0.012594 0.0112799)
(0.00694251 -0.00987318 0.00925974)
(0.00115967 0.0242386 0.0260329)
(0.00455801 0.0253057 0.0264202)
(0.0134691 0.0258758 0.015242)
(0.0110053 0.0176005 0.0159915)
(0.0134846 0.000467 0.0107422)
(0.0161627 0.000305789 0.010922)
(0.0179708 0.00953866 0.0186974)
(-0.0138896 0.0349588 -0.000932262)
(0.0223588 0.000145241 0.0124737)
(0.0192158 -0.00100824 0.0117138)
(0.0223123 0.00391813 0.011441)
(0.022575 0.00111171 0.0136115)
(0.0201466 -0.00024399 0.0126328)
(1.46323e-06 0.00383528 0.0235838)
(0.00217194 0.002341 0.0241057)
(-0.000979279 0.00393983 0.0224821)
(0.00211682 0.00123051 0.0236936)
(-1.03348e-05 0.00188113 0.0224928)
(0.00716753 0.000689967 0.0138476)
(0.00923418 0.000765135 0.0134828)
(0.00831445 0.00218868 0.0120859)
(0.00983853 0.00251212 0.0105724)
(0.0100067 0.00152067 0.0107239)
(0.0166712 0.0213863 0.00522616)
(0.015644 0.012514 0.00558004)
(0.0197926 0.015686 0.00943993)
(0.0175132 0.0104183 0.00812262)
(0.0159393 0.0186621 0.00560772)
(0.0142543 0.0164535 0.00448079)
(-0.0100531 0.0350801 0.00564273)
(-0.0132761 0.031374 0.00889753)
(-0.0100791 0.032114 0.00742306)
(-0.00660613 0.0392227 0.00303475)
(-0.0107352 0.0376201 0.00420545)
(-0.0144586 0.0327257 0.00453726)
(-0.012239 0.0322813 0.00981862)
(-0.0124136 0.034724 0.00473206)
(-0.00267669 0.0231654 0.0184084)
(-0.00545323 0.0235482 0.0179964)
(-0.00305081 0.0239364 0.0196044)
(-0.00241899 0.0236692 0.0176435)
(-0.00115376 0.0239511 0.0195589)
(0.000290621 0.0217648 0.0182276)
(0.0014328 0.0225512 0.0173276)
(-0.000809164 0.0219183 0.0170189)
(-0.00659752 0.0189184 0.021355)
(-0.00459341 0.0177941 0.0225959)
(-0.00452288 0.0159327 0.0225549)
(-0.00514896 0.0227305 0.0263118)
(-0.0038305 0.0167389 0.0231538)
(-0.00391409 0.0218474 0.022447)
(-0.0058685 0.023579 0.023199)
(-0.00589945 0.0234251 0.0225465)
(-0.00316886 0.0217847 0.0231508)
(-0.00733516 0.0240713 0.0225901)
(-0.00444684 0.0195591 0.0215043)
(-0.0173216 0.0310851 0.0156956)
(-0.0146696 0.0294408 0.0176537)
(-0.0148846 0.0291655 0.0169552)
(-0.0158922 0.0298856 0.0163726)
(-0.0173431 0.0325218 0.0150983)
(-0.0183702 0.0326384 0.0148404)
(0.00719425 0.0180925 0.0262531)
(0.011931 0.019526 0.0264918)
(0.011661 0.0199543 0.0261522)
(0.00875727 0.0209845 0.0254847)
(0.00865101 0.0175415 0.0253876)
(0.00805098 0.0168086 0.0271359)
(0.0146206 0.0142512 0.0243497)
(0.0163677 0.00955936 0.0248668)
(0.0171406 0.0150906 0.0239237)
(0.010716 0.0121135 0.0226844)
(0.0108316 0.0120771 0.0245372)
(0.0128007 0.0105386 0.0248168)
(0.0298697 0.0177322 0.0235663)
(0.0300941 0.0170313 0.0253021)
(0.0297251 0.0158332 0.0211813)
(0.0324623 0.0135007 0.0220732)
(0.0324133 0.0140531 0.0203832)
(0.0335678 0.0165122 0.0249086)
(0.00999395 -0.0116015 0.0113509)
(0.0145189 -0.0134436 0.0101191)
(0.0120934 -0.0118646 0.0083636)
(0.0138718 -0.0127569 0.011136)
(0.009931 -0.0112865 0.00814097)
(0.0115865 -0.0123872 0.012706)
(0.0105634 -0.0121795 0.00854508)
(-0.000978148 0.0154673 0.0242731)
(-0.00138399 0.0161377 0.0238785)
(-0.00203752 0.01673 0.0225563)
(-0.000539559 0.0206213 0.0240895)
(0.00167758 0.0216068 0.0252453)
(0.00163277 0.0226111 0.0236498)
(0.00106507 0.0175472 0.0254377)
(0.00846746 0.0324386 0.00516663)
(0.0114765 0.0277167 0.00502413)
(0.0112936 0.029725 0.00627459)
(0.00979566 0.0302043 0.00490078)
(0.00822794 0.0313528 0.00552795)
(0.0117628 0.0274272 0.00557758)
(0.0126142 0.02542 0.0100485)
(0.0118259 0.020514 0.0161243)
(0.0125721 0.0243929 0.0124571)
(0.0098088 0.0197835 0.00951635)
(0.0139295 0.0275935 0.0140883)
(0.0110894 0.0264622 0.0082455)
(0.0141337 0.0301803 0.0116497)
(0.0128632 0.027965 0.00735994)
(0.0123324 0.0303487 0.00802336)
(0.0135174 0.0266229 0.0122372)
(0.0119535 0.0214187 0.00996538)
(0.000125708 0.0329639 0.0050918)
(-0.000652417 0.0365105 0.00434361)
(0.00337345 0.0360621 0.00537816)
(-0.0038982 0.0358481 0.0026016)
(0.00163429 0.0339171 0.000684039)
(0.0088063 -0.0101603 0.015316)
(0.00646233 -0.00669271 0.0179696)
(0.00967199 -0.00783471 0.0196497)
(0.01131 -0.00974244 0.0175184)
(0.0126771 -0.0118722 0.016778)
(0.00820177 -0.0085001 0.0168016)
(0.0062139 0.00045919 0.0204241)
(0.00511245 0.00161482 0.0187863)
(0.00837867 0.00495937 0.0233955)
(0.00697555 0.00527905 0.0222153)
(0.00562679 0.00430163 0.0205495)
(0.00686294 0.00267252 0.0208511)
(0.00514205 0.00701998 0.019794)
(0.00614877 0.0128542 0.0201374)
(0.00765306 0.0117556 0.021213)
(0.00349335 0.00910783 0.0189831)
(0.00623843 0.00944958 0.0208696)
(0.00512697 0.0115166 0.0210908)
(0.0231308 0.00925454 0.0148012)
(0.0229425 0.00657172 0.0148194)
(0.0234374 0.00779338 0.0132219)
(0.0224289 0.00892447 0.0153926)
(0.0227399 0.00388101 0.0129192)
(0.0229358 0.00514614 0.0137808)
(0.0184554 0.0170456 0.020458)
(0.0215337 0.0130217 0.0193918)
(0.0230393 0.0144418 0.0192279)
(0.0221096 0.0174332 0.0189293)
(0.0204719 0.0155731 0.0212764)
(0.0211402 0.0145394 0.0211998)
(0.020579 0.0123412 0.0089494)
(0.0216941 0.0148173 0.00970477)
(0.0213273 0.0118126 0.0105723)
(0.0190221 0.00821559 0.00833032)
(0.019719 0.00742937 0.00883408)
(0.0211049 0.0145222 0.0152093)
(0.0202738 0.0193664 0.0186655)
(0.020874 0.0186169 0.0151485)
(0.0189283 0.019669 0.0180241)
(0.0195535 0.0206899 0.0157876)
(0.0119899 -0.00442125 0.0120205)
(0.0152989 -0.00445242 0.0132068)
(0.0130896 -0.00400601 0.0130712)
(0.0159932 -0.00215057 0.0116829)
(0.0137559 -0.00514729 0.0127752)
(0.0159167 -0.00261306 0.0124659)
(0.00832686 -0.00830652 0.0190087)
(0.00635386 -0.00591782 0.0146164)
(0.00856739 -0.0070047 0.01519)
(0.0099603 -0.00862014 0.0179504)
(0.0114546 -0.007335 0.0151117)
(0.00609306 -0.00745034 0.0183045)
(0.00767358 0.0528362 0.0206136)
(0.00942825 0.0535788 0.0225514)
(0.0155718 0.0493823 0.0266599)
(0.0169321 0.0501033 0.0219699)
(0.0149928 0.0566559 0.0247202)
(0.0283494 0.0221614 0.0232198)
(0.0295206 0.0300547 0.0240049)
(0.035853 0.0215578 0.0285652)
(0.0361897 0.0305885 0.0306904)
(0.0272386 0.0230718 0.0266877)
(0.0353411 0.0230788 0.0271652)
(0.0255532 0.00124135 0.0367444)
(0.0174523 -0.00460732 0.0365008)
(0.0229944 -0.00600897 0.0309777)
(0.0254488 -0.00627877 0.0299033)
(0.0211949 0.000844574 0.0409855)
(0.0363448 -0.00166709 0.037639)
(0.0176186 0.0142143 0.0196819)
(0.0203 0.0147795 0.0255535)
(0.0242975 0.0139706 0.0223877)
(0.0230324 0.0163766 0.0237913)
(0.0205177 0.0175146 0.0241237)
(0.0238019 0.0142542 0.0233596)
(3.59181e-05 0.0010731 0.022829)
(0.000470812 0.00128118 0.0253446)
(-0.00049324 -0.00137505 0.0230941)
(-0.00109905 -0.000194049 0.0213192)
(0.000873227 -0.00109466 0.0237561)
(-0.00018216 0.00272773 0.0234951)
(0.000624123 -0.0032906 0.0213368)
(0.000161708 0.000323579 0.0220586)
(0.000518782 0.000875008 0.0231898)
(0.000368115 -2.70918e-05 0.0230731)
(0.000237909 -0.0020541 0.022332)
(-0.000491443 -0.00113875 0.0215223)
(0.00235446 0.00659007 0.0252805)
(0.00287964 0.00720011 0.0246015)
(0.00133635 0.0042642 0.0237762)
(0.00260715 0.00646213 0.0248978)
(0.000730214 0.0036806 0.0236645)
(0.00116523 0.00487836 0.0240621)
(0.00403405 0.0174609 0.0243587)
(0.00692419 0.0204061 0.0259878)
(0.00147485 0.0202472 0.0249905)
(0.00286228 0.0221001 0.0254061)
(0.00595637 0.02177 0.0264251)
(0.00221788 0.0175328 0.0239221)
(0.011348 0.0166052 0.0240401)
(0.0116534 0.0148855 0.0271736)
(0.0144964 0.0160913 0.0252131)
(0.0152464 0.0163013 0.0272821)
(0.0150821 0.0177479 0.0239637)
(0.011722 0.0147338 0.0276444)
(0.0250141 0.022132 0.0241501)
(0.0168562 0.0210108 0.0256185)
(0.0189248 0.0181102 0.0248905)
(0.0251478 0.0238347 0.0290605)
(0.0235239 0.0180594 0.0256661)
(0.0171764 0.0213189 0.0232233)
(-0.000191929 0.00191009 0.0249712)
(0.0015679 -0.00159918 0.0244048)
(0.000848351 -8.35145e-06 0.0235902)
(0.000607989 0.000836172 0.0242263)
(0.0010583 -0.00166346 0.0228662)
(0.000960792 0.00449367 0.02553)
(0.00208394 0.00660522 0.0254976)
(0.00103277 0.00546679 0.0250101)
(0.00118093 0.00659965 0.0250411)
(0.00187531 0.0076451 0.0252007)
(0.00142422 0.00360226 0.0258791)
(0.0198115 0.0100954 0.0178934)
(0.0194754 0.0072306 0.0181935)
(0.0177384 0.00865237 0.0207049)
(0.0307344 0.00529424 0.0169687)
(0.0259871 -0.000835952 0.0115695)
(0.0247196 0.00275317 0.011764)
(0.0289919 0.00319541 0.0145839)
(0.0299597 0.000157453 0.0135929)
(0.0345959 0.00115253 0.0184102)
(0.030452 0.00508212 0.0157421)
(0.0285992 0.000942966 0.0136336)
(0.0266845 0.0126513 0.0183498)
(0.0240468 0.00913019 0.0175229)
(0.0259435 0.0115798 0.0201226)
(0.0303819 0.011083 0.0196955)
(0.0296658 0.0079221 0.0175238)
(0.0284669 0.006735 0.0186559)
(0.0174461 0.0114464 0.0187543)
(0.0238817 0.0116769 0.0203558)
(0.021171 0.0115589 0.0250319)
(0.0204368 0.0109711 0.0238695)
(0.0221081 0.0104414 0.0213519)
(0.0219417 0.0100178 0.021353)
(0.0434952 0.0270627 0.0373222)
(0.0447758 0.0322284 0.0400705)
(0.0419263 0.026131 0.0296808)
(0.039397 0.0366755 0.037115)
(0.0383315 0.0337161 0.0375042)
(0.0500244 0.0251451 0.041507)
(0.00766696 0.0159603 0.0113006)
(0.012379 0.0138994 0.0131901)
(0.00437941 0.00812992 0.0057853)
(0.00379862 0.0094929 0.00785599)
(0.0198521 0.0205043 0.0268714)
(0.0178222 0.0254527 0.0193842)
(0.0369625 0.0143383 0.0410019)
(0.0517238 0.0153797 0.0437311)
(0.0386988 0.00663554 0.0301813)
(0.0336245 0.00746867 0.0371536)
(0.0310886 0.0136558 0.0398746)
(0.0445798 0.00617533 0.0395633)
(0.00275548 0.00670133 0.0191093)
(0.00333082 0.00521225 0.014679)
(0.0138963 0.00884313 0.0280257)
(-0.000433431 0.00223045 0.0047747)
(-0.00156562 0.00361619 0.00974092)
(0.0370809 -0.00100266 0.0281672)
(0.0330278 -0.00351874 0.0204787)
(0.0366236 0.00223728 0.0240931)
(0.0383481 0.0026321 0.023125)
(0.0334421 -0.00128639 0.019139)
(0.0299761 -0.00492506 0.0231907)
(0.00695531 -0.0112492 0.0122356)
(0.0103602 -0.0100559 0.0103833)
(0.00654439 -0.0111274 0.0133676)
(0.00978775 -0.0121592 0.0121679)
(0.00928501 -0.0117264 0.0146189)
(0.0103082 -0.00976611 0.0109104)
(0.0172967 -0.00699851 0.0111533)
(0.0166717 -0.00808525 0.0120189)
(0.013439 -0.00871487 0.00994252)
(0.0131866 -0.00979319 0.01197)
(0.014812 -0.0107654 0.0140239)
(0.0158919 -0.00903955 0.0112621)
(0.0237943 0.000453603 0.0177464)
(0.0231076 0.00102435 0.0149012)
(0.0251431 0.00463891 0.0180443)
(0.024907 0.00651408 0.0181131)
(0.0226781 0.00115551 0.014509)
(0.0231257 0.0010226 0.0141571)
(0.0101227 -0.0151229 0.0145375)
(0.00560886 -0.0145826 0.0160343)
(0.00740777 -0.0136185 0.0141845)
(0.00866837 -0.0146369 0.0142527)
(-0.0208515 0.0336 0.00133762)
(-0.0210214 0.0334374 9.10823e-05)
(-0.0151843 0.0363882 -0.000148317)
(-0.0190509 0.0368714 -4.29926e-05)
(-0.0181 0.0344702 0.00091157)
(-0.015449 0.0360032 -0.000429811)
(-0.0166835 0.0190037 0.0169055)
(-0.0182717 0.0185556 0.0148612)
(-0.0218125 0.0219764 0.0103414)
(-0.0171873 0.0180774 0.0126464)
(-0.0190311 0.0221104 0.0120695)
(-0.0220641 0.0196442 0.0107777)
(-0.0164403 0.0449361 0.00828524)
(-0.0158935 0.0438569 0.0113697)
(-0.0162671 0.0471552 0.0101074)
(-0.0176531 0.0423188 0.0127642)
(-0.0166718 0.0438891 0.0141735)
(-0.0173874 0.0424151 0.00951908)
(-0.00342968 0.0398618 0.00291856)
(-0.0110533 0.0458773 0.00107256)
(-0.00649213 0.0463619 0.00437284)
(0.00285283 0.0416807 0.0232817)
(0.00901106 0.0430177 0.0225048)
(0.00424085 0.0372101 0.0227881)
(0.00706213 0.0428758 0.0254316)
(0.00859465 0.0378964 0.0268011)
(0.00257868 0.0387511 0.0255045)
(-0.00752564 0.0400811 0.0214818)
(-0.00996384 0.0370558 0.019772)
(-0.0108199 0.0394867 0.0174383)
(-0.00802065 0.0319953 0.0199474)
(-0.00351457 0.029551 0.0225837)
(-0.00528889 0.0295635 0.0226149)
(-0.00253307 0.035394 0.024614)
(-0.00138712 0.038136 0.0238177)
(0.000311412 0.0337201 0.026579)
(-0.00374815 0.0297743 0.0258225)
(-0.011248 0.0245107 0.0182526)
(-0.0103602 0.0280612 0.0223025)
(-0.0130288 0.0288364 0.0191246)
(-0.0094537 0.0272872 0.0223357)
(-0.0124607 0.0301264 0.0187062)
(-0.0129605 0.0276808 0.0192041)
(-0.00825793 0.0219395 0.0187972)
(-0.0138252 0.0271556 0.0176984)
(-0.0100566 0.0231952 0.0179915)
(-0.0100395 0.0250875 0.0206139)
(-0.0119806 0.0268347 0.0187786)
(-0.00456903 0.0203573 0.0246907)
(-0.00519047 0.0186562 0.0218411)
(-0.00648449 0.0192489 0.0207881)
(-0.00643609 0.0213114 0.0242833)
(-0.00860368 0.0205902 0.0213726)
(-0.00352572 0.0183537 0.02323)
(-0.00493735 0.025226 0.020671)
(-0.00293672 0.0194566 0.0173618)
(-0.00528033 0.0190398 0.0182429)
(-0.00342535 0.020925 0.0210938)
(-0.00649165 0.0203052 0.0176177)
(-0.00329021 0.0182518 0.0183864)
(-0.0109994 0.0271543 0.0190475)
(-0.0109714 0.0268345 0.0190654)
(-0.00868506 0.0245977 0.0183943)
(-0.00757998 0.0246064 0.0191242)
(-0.0118848 0.0268757 0.0182822)
(-0.00902941 0.0266368 0.0202465)
(-0.0149472 0.0224488 0.01697)
(-0.021264 0.0288961 0.0109)
(-0.0160515 0.0211256 0.0133838)
(-0.019878 0.0268085 0.0120307)
(-0.0172443 0.0281533 0.013123)
(-0.0157369 0.0220039 0.0103545)
(-0.0133147 0.0249952 0.0109881)
(-0.0177671 0.0279636 0.00595681)
(-0.00486525 0.0215634 0.0137114)
(-0.00550661 0.0206875 0.0173491)
(-0.00537388 0.0251185 0.0142255)
(-0.00788444 0.0204455 0.0171099)
(-0.00906577 0.0250039 0.0128435)
(-0.00913342 0.0283541 0.0126036)
(-0.025714 0.0236804 0.00557906)
(-0.0280913 0.0280916 0.00355565)
(-0.00581287 0.0346162 0.00904538)
(-0.00409756 0.0356541 0.0083174)
(-0.00869535 0.0343071 0.00867894)
(-0.00695407 0.0366011 0.00759794)
(-0.00850704 0.0299627 0.00876295)
(-0.00645661 0.0318109 0.0101304)
(0.0115339 0.0240625 0.0181249)
(0.00960854 0.0249638 0.0160808)
(0.0149793 0.0240913 0.0191154)
(0.0115765 0.0259409 0.0158041)
(0.0167152 0.0238605 0.0167401)
(0.0154046 0.0238074 0.015766)
(0.00591334 0.0259942 0.0149587)
(0.00437214 0.0248349 0.0170786)
(0.00685243 0.0287963 0.0140352)
(0.00383222 0.0271793 0.0162027)
(0.00613067 0.030619 0.0153288)
(0.00887831 0.0293208 0.0155691)
(0.006399 0.0211743 0.0182996)
(0.00777903 0.0189956 0.0196741)
(0.00323657 0.0199109 0.0175508)
(0.00241745 0.0169656 0.0161621)
(0.00432932 0.0167208 0.0189779)
(0.0059873 0.0182786 0.0204973)
(0.0141012 0.0150114 0.0213684)
(0.0122085 0.0195998 0.0216495)
(0.0128304 0.0205916 0.0188709)
(0.0109407 0.0147928 0.0215736)
(0.00945779 0.0171064 0.020249)
(0.0156153 0.0191427 0.0200198)
(0.0168161 0.0236443 0.00709553)
(0.0140575 0.0220658 0.00389935)
(0.0147614 0.0307733 0.00977156)
(0.0129367 0.0280508 0.00625216)
(0.0150287 0.0255483 0.00972362)
(0.0153948 0.0212653 0.00769402)
(0.00681706 -0.00256548 0.0162773)
(0.0107958 -0.00150543 0.0138479)
(0.00966953 -0.00328282 0.0158828)
(0.0100578 -0.00133652 0.0171557)
(0.0073199 -0.00202984 0.0169718)
(0.010486 -0.00196742 0.012895)
(0.0158589 0.0101137 0.00672466)
(0.0133463 0.00454287 0.00914564)
(0.0133866 0.00520638 0.0093828)
(0.0155316 0.00864387 0.00685971)
(0.0139984 0.00795364 0.00780011)
(0.0166748 0.00618167 0.0103097)
(0.0158469 0.0107591 0.0185424)
(0.0112768 0.00553947 0.0150114)
(0.0122194 0.00743484 0.0173029)
(0.0116762 0.00536661 0.0115265)
(0.0147774 0.00886027 0.0130986)
(0.0163418 0.0107189 0.0156542)
(-0.00422544 0.0163943 0.0254982)
(-0.00330181 0.0113368 0.0223498)
(-0.00274157 0.0131911 0.0236053)
(-0.00161004 0.00934228 0.0223271)
(-0.00416512 0.0149495 0.0229661)
(-0.00259032 0.0087216 0.0206478)
(-0.00410584 0.0193476 0.024814)
(-0.00430057 0.0197316 0.0248633)
(-0.00247851 0.0211751 0.0246469)
(-0.0044596 0.0227604 0.0241443)
(0.00420299 0.00310279 0.0178426)
(0.00448513 0.00488548 0.0200859)
(0.00775147 0.00655918 0.0223316)
(0.00763851 0.00498401 0.0189949)
(0.00495734 0.00238112 0.0146352)
(0.00759408 0.00377833 0.0171461)
(-0.0014207 0.0122244 0.0235365)
(-0.00257508 0.0145205 0.0238821)
(-0.00396252 0.0141239 0.0225735)
(-0.00184154 0.0126989 0.0232014)
(-0.00141092 0.0123806 0.0221788)
(0.0117828 0.00852548 0.0180394)
(0.00734776 0.00764748 0.0201529)
(0.0102115 0.00831631 0.0172181)
(0.00744946 0.00678321 0.0200058)
(0.0115328 0.00824241 0.0222174)
(0.0086047 0.0083115 0.017986)
(0.0035518 -0.00166269 0.0190717)
(0.00420317 -0.00271263 0.0209041)
(0.00568367 -0.00382078 0.0203975)
(0.00549066 -0.00291553 0.0182471)
(0.00652388 -0.00378125 0.0184362)
(0.00177248 -0.00133454 0.0212053)
(0.00467472 0.000761898 0.0177993)
(0.00866971 -0.000223662 0.0181622)
(0.00368247 0.00108405 0.0199495)
(0.00403471 0.00111066 0.021696)
(0.00839387 -0.000316989 0.0196088)
(0.0067953 -0.000629247 0.0214793)
(-0.00178397 0.0124502 0.0249438)
(-0.000155758 0.00704715 0.0243906)
(-0.00146359 0.0101204 0.0244267)
(-0.00232505 0.00953776 0.0230752)
(-0.00198431 0.0122958 0.0245375)
(0.000239802 0.0145876 0.0240358)
(-0.0020933 0.0164746 0.023356)
(0.0018636 0.0141819 0.0231461)
(0.000559797 0.0149863 0.0227557)
(-0.00155247 0.0150809 0.0235464)
(-0.000361023 0.0172427 0.0244599)
(0.00148794 0.0166662 0.0233642)
(-0.000369997 0.0168938 0.0208496)
(-0.00154086 0.0169233 0.0215751)
(0.000952319 0.0154094 0.0202718)
(0.00136712 0.01601 0.0195891)
(-0.000292058 0.0165671 0.0223367)
(0.0112244 0.0157891 0.0187179)
(0.0086459 0.00936622 0.0157394)
(0.00845151 0.010974 0.0190833)
(0.00851405 0.0152608 0.0223468)
(0.00712269 0.0116489 0.0194572)
(0.00971093 0.0124047 0.0173009)
(0.0106404 0.0166802 0.0195726)
(0.0109493 0.0176512 0.0213042)
(0.00836787 0.0147856 0.0181693)
(0.00858599 0.0150655 0.015429)
(0.00481318 0.0254587 0.00913792)
(0.00410505 0.0245647 0.00949947)
(0.00224487 0.0286239 0.0104346)
(0.00248729 0.0286531 0.00742958)
(0.00316405 0.026229 0.00737739)
(0.00492876 0.024745 0.00991755)
(0.00447379 0.0233154 0.0110479)
(0.00312146 0.0206904 0.0141915)
(0.00537571 0.0223763 0.014629)
(0.00495816 0.021627 0.0115658)
(0.00279539 0.0243297 0.0146382)
(0.00557377 0.0223173 0.013917)
(-0.00068759 0.0223283 0.0229204)
(0.00202842 0.0222305 0.0222838)
(0.00124346 0.0206954 0.0205181)
(-0.000835835 0.0217583 0.0231514)
(0.00285312 0.0228607 0.0225837)
(0.00132936 0.0181375 0.019555)
(-0.00246079 0.0337131 0.00287868)
(-0.00524098 0.0367943 0.00236153)
(-0.00492654 0.0348751 0.00218079)
(-0.00745576 0.0352255 0.00095105)
(-0.00894445 0.0382885 0.000868709)
(0.000914848 0.0350409 0.00145059)
(0.000331266 0.0324162 0.00380825)
(0.00271343 0.0289115 0.00301109)
(0.00311558 0.0353118 0.00524836)
(-0.000258902 0.0358247 0.00362764)
(-0.000295899 0.0325713 0.00393685)
(-0.00255599 0.0328517 0.00397724)
(-0.0041329 0.0341145 0.00159474)
(-0.00340378 0.032692 0.00230316)
(0.000819556 0.0313283 0.00513672)
(0.000678177 0.0307758 0.00570839)
(0.00591444 0.0325097 0.0102744)
(0.00316732 0.028677 0.00438601)
(0.00560937 0.0314016 0.0110538)
(0.00513176 0.0339906 0.00882109)
(0.00393926 0.0334019 0.00520501)
(0.00364983 0.0286208 0.00700235)
(0.000638698 -0.00062885 0.0235547)
(-0.000425251 -0.00427212 0.0228725)
(2.20471e-05 -0.00344768 0.0232234)
(-0.000414614 -0.00297756 0.0227027)
(0.000482635 -0.00175218 0.0238677)
(0.000362233 -0.0019046 0.0240103)
(-0.000432616 -0.00815678 0.0198987)
(-0.000544155 -0.00583405 0.0210584)
(-0.000305771 -0.00867787 0.0213113)
(-0.000539136 -0.00628068 0.0200225)
(0.000454398 -0.00953385 0.0200372)
(-0.000595984 -0.00696513 0.0218028)
(0.0159662 0.00857186 0.0245332)
(0.0134669 0.0114744 0.0218265)
(0.0124427 0.00756954 0.0233132)
(0.0163081 0.0107375 0.0236711)
(0.01201 0.0111594 0.0220543)
(0.0110319 0.00808316 0.0230196)
(0.00323821 0.00339328 0.024498)
(0.00231598 0.00163027 0.0247272)
(0.00164813 0.00100992 0.0238255)
(0.00165055 0.0028819 0.0233978)
(0.00332194 0.00393271 0.0241603)
(0.00383152 0.00499169 0.0243278)
(0.00155219 0.00414063 0.0239167)
(0.00366567 0.00561506 0.0233941)
(0.00338312 0.00514217 0.0244114)
(0.00151948 0.00244961 0.0236157)
(0.00175776 0.0034192 0.0235239)
(0.00274451 0.0052575 0.024156)
(0.00140587 0.00464101 0.0188629)
(-0.000252258 0.00566284 0.0203601)
(-0.00130441 0.00490485 0.0190342)
(0.00170593 0.00321178 0.0183807)
(0.000900942 0.00291366 0.0182397)
(-0.00067214 0.0432638 0.0219562)
(-0.00434544 0.0502081 0.0180692)
(-0.0054853 0.0434314 0.0194743)
(0.00227649 0.0524739 0.0221522)
(0.00292404 0.0456466 0.0225238)
(-0.00493409 0.0409948 0.0181751)
(-0.00894464 0.0488599 0.00848635)
(-0.0125985 0.0482936 0.00692812)
(-0.0111974 0.0532884 0.00702537)
(-0.0133265 0.0481736 0.00494996)
(-0.00843883 0.0493467 0.00324408)
(-0.0080622 0.0508952 0.00581954)
(-0.0143068 0.0171897 0.0213989)
(-0.0140595 0.0123832 0.0202477)
(-0.011212 0.0112348 0.0168151)
(-0.0118242 0.0125725 0.0232566)
(-0.010751 0.0128786 0.021717)
(-0.0152655 0.0151084 0.0171331)
(-0.0155855 0.0135331 0.0159404)
(0.0122136 -0.0133349 0.0129422)
(0.0135703 -0.0112538 0.0113864)
(0.0167429 -0.010858 0.0122878)
(0.0146906 -0.0107085 0.0114786)
(0.0137381 -0.0135907 0.0132512)
(0.0152955 -0.0122205 0.0124061)
(0.000283199 -0.00633348 0.0170413)
(0.000256961 -0.00690265 0.0193751)
(-2.29569e-06 -0.00501845 0.0192096)
(-0.00120643 -0.00316914 0.0191331)
(-0.000624271 -0.00393025 0.0197887)
(0.000649586 -0.00558221 0.0179925)
(0.000377259 -0.00785483 0.0197511)
(-0.000410148 -0.0041764 0.0199685)
(-0.000892335 -0.00624492 0.0183499)
(-0.000950281 -0.00515968 0.0196577)
(0.000721386 -0.00605473 0.0214681)
(0.000819438 -0.00735827 0.0200095)
(-0.000245605 -0.0033157 0.02104)
(-3.1076e-05 -0.000524509 0.0229508)
(0.000267724 0.000647713 0.0228916)
(-0.000502331 -0.00245297 0.0223795)
(0.000266303 -0.000229066 0.0229806)
(-0.000764329 -0.00160308 0.0217548)
(0.00638444 -0.00412991 0.01948)
(0.00878446 -0.00167332 0.021593)
(0.00611014 -0.00155703 0.0178959)
(0.0069177 0.000190422 0.0200065)
(0.00767012 -0.00382621 0.019889)
(0.00620767 -0.00419021 0.0176075)
(-0.0106777 0.00878867 0.0145677)
(-0.00722596 0.00633761 0.0130087)
(-0.00290923 0.0504274 0.00945454)
(0.0034821 0.00568715 0.0236494)
(0.00113593 0.00233688 0.0237548)
(0.00632603 0.00645463 0.0244697)
(0.00497483 0.00683609 0.0240421)
(0.008332 0.00596031 0.0240152)
(0.00842707 0.00893456 0.0226362)
(-0.00116034 -0.00760454 0.0195586)
(4.35785e-05 -0.00976949 0.0210366)
(-0.00105729 -0.0046594 0.0196719)
(-0.000652564 -0.00720521 0.022886)
(-0.000461899 -0.00664529 0.0230018)
(-9.54935e-05 -0.00404355 0.0216068)
(0.000492213 -0.000108287 0.0234561)
(0.00648228 0.00396308 0.0254482)
(0.00442146 0.00353952 0.0249066)
(0.00383332 0.00185779 0.0253115)
(0.00178007 0.000971262 0.0237048)
(0.00216931 -0.000434965 0.0244737)
(0.00117332 -0.00102123 0.0234297)
(-0.000728499 0.0200182 0.0186874)
(-0.00123954 0.0193919 0.019526)
(0.00191985 0.0194068 0.0170744)
(0.00272157 0.0193844 0.0180941)
(0.00719601 0.0212897 0.0179528)
(0.0045464 0.02191 0.0164585)
(0.00312144 0.0226048 0.0177531)
(0.00169288 0.0222694 0.0178003)
(0.00183577 0.0215613 0.0156739)
(0.00610674 0.0212442 0.0180804)
(0.00392916 0.0219291 0.0200515)
(0.00559046 0.023665 0.0205578)
(0.00420018 0.0210077 0.0173021)
(0.00840063 0.0211058 0.0164272)
(0.00686766 0.0263028 0.00708533)
(0.00538942 0.030248 0.010967)
(0.00603974 0.0237009 0.0176674)
(0.00624404 0.0244933 0.0153385)
(0.00847651 0.0259061 0.011544)
(0.00768389 0.0286063 0.0103064)
(0.00816149 0.0224293 0.0153105)
(0.00745964 0.0230974 0.0153479)
(0.0066385 0.0238849 0.0179604)
(0.00774248 0.0190539 0.0108791)
(0.00728096 0.0254269 0.0144793)
(0.00559317 0.0250747 0.0125911)
(0.00618846 0.0261783 0.0133194)
(0.0030831 0.0277395 0.00576274)
(0.00965587 0.0200336 0.0148122)
(0.00798904 0.0164799 0.0150651)
(0.00510457 0.0154829 0.0173191)
(0.00641844 0.0184954 0.0176339)
(0.00412118 0.0207361 0.0200661)
(0.00394196 0.0182939 0.0193452)
(0.000644378 0.00251817 0.0187235)
(0.00028317 0.00352214 0.0207829)
(0.00751511 0.00928465 0.0184819)
(0.00527275 0.0118852 0.0221336)
(0.00604244 0.0105231 0.0210391)
(0.00371152 0.0132147 0.0240083)
(0.00235714 0.012423 0.0235929)
(0.000406385 0.0136087 0.0243471)
(-0.00274152 0.0156731 0.0240557)
(0.00249128 0.00560301 0.0215399)
(0.0026071 0.00804459 0.0246067)
(0.000636014 0.0121414 0.0262341)
(-0.00442259 0.0158305 0.0230391)
(-0.00279403 0.0138831 0.0255616)
(-0.00559242 0.0162496 0.0231099)
(-0.00477861 0.0185154 0.0231783)
(-0.00646146 0.0197277 0.0231143)
(-0.00265692 0.0146128 0.0245387)
(-0.00221521 0.00562912 0.0194602)
(-0.00222632 0.00573802 0.0189437)
(-0.00522243 0.0171102 0.0232933)
(-0.000377363 0.0111353 0.0240311)
(-0.000259672 0.00790468 0.0224351)
(0.00117007 0.00800192 0.0226818)
(-0.00412825 0.0183367 0.026006)
(-0.00382572 0.017016 0.0249483)
(-0.00421507 0.0165323 0.0264258)
(-0.00213999 0.0145346 0.0267951)
(0.00310489 0.00230456 0.0172864)
(0.010435 0.00756443 0.0212428)
(0.0139554 0.000555235 0.0146674)
(0.0127579 0.000230643 0.01708)
(0.0136157 0.000136804 0.0135147)
(0.00964053 -0.00380916 0.0160442)
(0.0106968 -0.000865737 0.01795)
(0.0173026 0.0163178 0.0134115)
(0.0181568 0.0195708 0.0116514)
(0.0178882 0.0222992 0.010134)
(0.0157871 0.016025 0.00873384)
(0.0165119 0.0206543 0.00608629)
(0.0141708 0.0112527 0.00631472)
(0.0169481 0.0128017 0.00957084)
(0.0157903 0.0123152 0.0111676)
(0.0157356 0.010263 0.00935002)
(0.0152318 0.0246119 0.00292913)
(0.0147313 0.0248745 0.00645715)
(0.0112613 0.0293056 0.00760776)
(0.00999053 0.0271212 0.00422818)
(0.00955099 0.0289358 0.0052571)
(0.010862 0.0332312 0.00449038)
(0.01611 0.0253435 0.00741703)
(0.0173503 0.0214775 0.00694896)
(0.0153118 0.0269538 0.0102004)
(0.0156177 0.0249326 0.011152)
(0.0194875 0.0200781 0.00839317)
(0.0174622 0.0218292 0.00897621)
(0.0192341 0.0225224 0.00846203)
(0.0213016 0.0193008 0.0103365)
(0.0204974 0.0126647 0.00950428)
(0.0191451 0.0108311 0.00969673)
(0.0162873 0.00272746 0.0137451)
(0.0162129 0.0053819 0.0114715)
(0.0166064 0.00276597 0.0141046)
(0.0174547 0.00384872 0.0120125)
(0.0204467 0.0115645 0.0096087)
(0.0190498 0.00831376 0.00983141)
(0.0185118 0.00977311 0.00954028)
(0.0188605 0.00763442 0.0112331)
(0.0184835 0.00633922 0.0118212)
(0.0104214 0.0262249 0.0145045)
(0.0103434 0.0194862 0.0190851)
(0.00736616 0.0241634 0.016083)
(-0.00248902 0.0372951 0.00392642)
(-0.0022229 0.0350272 0.000551994)
(-0.00526403 0.0293714 0.0129662)
(-0.0132479 0.0288064 0.0107434)
(-0.0164988 0.0331299 0.00840311)
(-0.00116047 0.0328779 0.0107803)
(0.00115122 0.00371602 0.0159998)
(0.00153178 0.00183137 0.0157968)
(0.00184188 0.000960611 0.0156958)
(0.00319784 -0.00151399 0.017002)
(0.00216816 -0.000738859 0.0157898)
(0.00324419 -0.0029786 0.0167129)
(0.00392164 -0.00421729 0.0135448)
(0.00336363 -0.00221339 0.0153846)
(0.00372498 -0.00278825 0.0147728)
(0.00270364 0.000130404 0.0156297)
(0.00265503 -0.00133411 0.0151365)
(0.00367529 -0.00365575 0.0150768)
(0.00509772 -0.00498 0.0155795)
(0.00507542 -0.00679388 0.0130312)
(0.00509021 -0.00561583 0.0141311)
(-0.0270239 0.0298001 0.00276084)
(-0.0252177 0.0257511 0.00411909)
(-0.0257417 0.028419 0.00322747)
(-0.0209306 0.0323689 0.00772695)
(-0.023388 0.0256889 0.00472786)
(-0.0230156 0.0297706 0.00503922)
(-0.0249126 0.0305533 0.00174241)
(-0.0107914 0.0227957 0.0144704)
(-0.00643856 0.0173462 0.0168487)
(-0.00309128 0.0113578 0.0180694)
(-0.00501986 0.01118 0.0182281)
(-0.000507578 0.024379 0.017612)
(0.00223273 0.0260918 0.0151571)
(0.00121528 0.0325601 0.00698521)
(1.60358e-05 0.0245125 0.0153067)
(-0.00743051 0.0337962 0.00105418)
(-0.00476299 0.0330974 0.00114769)
(-0.00652856 0.0358616 0.00073572)
(-0.00855203 0.0366291 0.00113407)
(-0.00651652 0.0212487 0.02192)
(-0.00592923 0.022436 0.0241317)
(-0.00366344 0.018111 0.0215643)
(-0.00168104 0.0176034 0.0238858)
(-0.00262525 0.0195366 0.0253119)
(-0.00684518 0.0242323 0.0259698)
(-0.0092419 0.0259568 0.0204012)