/*--------------------------------*- C++ -*----------------------------------*\
| =========                 |                                                 |
| \\      /  F ield         | OpenFOAM: The Open Source CFD Toolbox           |
|  \\    /   O peration     | Version:  v1612+                                |
|   \\  /    A nd           | Web:      www.OpenFOAM.com                      |
|    \\/     M anipulation  |                                                 |
\*---------------------------------------------------------------------------*/
FoamFile
{
    version     2.0;
    format      ascii;
    class       volScalarField;
    location    "50";
    object      p;
}
// * * * * * * * * * * * * * * * * * * * * * * * * * * * * * * * * * * * * * //

dimensions      [0 2 -2 0 0 0 0];

internalField   nonuniform List<scalar> 
21439
(
0.797205
0.88975
0.894435
0.764292
0.878703
0.882654
0.768866
0.795036
0.767258
0.878358
0.864872
0.898403
0.897344
0.837925
0.86884
0.836733
0.856183
0.852566
0.888411
0.884178
0.892265
0.882845
0.830421
0.781192
0.891279
0.864197
0.802978
0.882136
0.883583
0.830751
0.87115
0.865
0.858441
0.89134
0.822664
0.812182
0.818938
0.887654
0.782174
0.873682
0.756936
0.865345
0.780769
0.805858
0.85686
0.890429
0.874808
0.864211
0.877918
0.886742
0.896633
0.896973
0.854187
0.783505
0.770505
0.891193
0.889323
0.888753
0.891555
0.875627
0.868884
0.906584
0.725989
0.873516
0.868412
0.883055
0.78053
0.867441
0.851272
0.868256
0.877511
0.876999
0.763159
0.870712
0.826146
0.811058
0.808814
0.799751
0.874078
0.86176
0.882805
0.878645
0.870436
0.883818
0.8149
0.800953
0.803858
0.893021
0.803566
0.812983
0.809227
0.809855
0.890967
0.77425
0.787494
0.777192
0.789471
0.763901
0.896972
0.877356
0.834948
0.868634
0.870486
0.774721
0.877473
0.893437
0.860997
0.899689
0.90247
0.766307
0.855668
0.826804
0.819477
0.886993
0.782724
0.794582
0.895187
0.828228
0.901893
0.895498
0.774891
0.890258
0.88977
0.910916
0.87704
0.866447
0.870699
0.867575
0.868484
0.91059
0.825549
0.815101
0.802769
0.814868
0.859551
0.873916
0.865612
0.86686
0.870778
0.761963
0.7966
0.883969
0.899042
0.887263
0.879622
0.874337
0.813743
0.810673
0.858696
0.856143
0.827089
0.852313
0.901151
0.896187
0.893726
0.891979
0.90619
0.850698
0.83685
0.839535
0.902841
0.905218
0.887354
0.886203
0.891957
0.899216
0.747449
0.735088
0.873242
0.877071
0.872373
0.879879
0.748786
0.752635
0.864367
0.879286
0.821745
0.865333
0.857058
0.861011
0.858046
0.853156
0.842158
0.836624
0.847214
0.832634
0.788982
0.84009
0.850873
0.855725
0.844772
0.851568
0.839214
0.86933
0.866188
0.812887
0.79534
0.802286
0.895377
0.891745
0.890506
0.886894
0.88217
0.889751
0.891481
0.888216
0.905299
0.729283
0.777836
0.863256
0.858763
0.837873
0.82521
0.808455
0.814308
0.820771
0.892577
0.900485
0.87951
0.876474
0.885381
0.883922
0.834385
0.825866
0.886819
0.887489
0.834207
0.796766
0.832926
0.827194
0.839098
0.85585
0.847413
0.87106
0.86597
0.877055
0.865083
0.892908
0.891432
0.896998
0.892034
0.902066
0.904187
0.906196
0.902211
0.905604
0.902831
0.897595
0.897126
0.895394
0.906309
0.896802
0.904081
0.900933
0.871713
0.863948
0.876869
0.900918
0.780816
0.767382
0.886658
0.895322
0.888398
0.898067
0.900922
0.89667
0.896909
0.894258
0.904619
0.89276
0.8998
0.904163
0.789282
0.901307
0.905562
0.856856
0.862062
0.858853
0.858536
0.858822
0.85887
0.902991
0.897351
0.905416
0.868895
0.87276
0.892707
0.771741
0.774656
0.897851
0.893884
0.891564
0.893513
0.898031
0.909258
0.891619
0.893788
0.885933
0.882749
0.90904
0.771299
0.767649
0.897459
0.80961
0.805395
0.890497
0.887441
0.877644
0.871577
0.879514
0.878596
0.814362
0.817565
0.897211
0.904165
0.88558
0.899849
0.731913
0.873622
0.878375
0.900478
0.886717
0.900868
0.842716
0.849781
0.876685
0.871204
0.728697
0.896051
0.891044
0.89124
0.89082
0.850463
0.855105
0.886908
0.885914
0.89093
0.881974
0.882845
0.901258
0.830085
0.802917
0.896442
0.883161
0.893583
0.872196
0.882355
0.871697
0.899656
0.787602
0.779406
0.901877
0.775556
0.863715
0.830068
0.831217
0.896434
0.880123
0.878653
0.864619
0.897441
0.88751
0.902023
0.829622
0.833533
0.742733
0.89425
0.86477
0.872755
0.912902
0.838379
0.89179
0.820006
0.888597
0.88931
0.895858
0.888267
0.892999
0.795836
0.770095
0.785803
0.778701
0.880876
0.856909
0.848716
0.846928
0.88246
0.888051
0.889247
0.857274
0.802088
0.82316
0.873266
0.89712
0.872833
0.796545
0.78898
0.851479
0.891619
0.905384
0.900789
0.852342
0.817208
0.821377
0.887823
0.789449
0.85517
0.884751
0.880176
0.873437
0.892046
0.842833
0.872982
0.893696
0.827647
0.836897
0.747782
0.732492
0.857969
0.874209
0.863912
0.900985
0.898166
0.837211
0.848187
0.835509
0.849202
0.846553
0.793328
0.890124
0.876865
0.881057
0.883636
0.896908
0.893322
0.867172
0.865719
0.807735
0.857973
0.860637
0.881099
0.882953
0.890755
0.816522
0.892544
0.815843
0.837606
0.777667
0.794745
0.789928
0.797693
0.892301
0.759279
0.883911
0.887786
0.880096
0.86204
0.882439
0.885291
0.869636
0.889206
0.841457
0.900801
0.73031
0.89127
0.860137
0.911917
0.795341
0.886421
0.841837
0.860229
0.897814
0.81985
0.817271
0.825926
0.889887
0.760886
0.86133
0.906202
0.848261
0.884591
0.883965
0.79559
0.886809
0.866287
0.891445
0.853941
0.852221
0.902511
0.904947
0.744426
0.906665
0.892116
0.897041
0.907193
0.910972
0.881595
0.904513
0.906857
0.901487
0.898039
0.871406
0.837861
0.906702
0.901598
0.813775
0.825608
0.760242
0.868469
0.871078
0.818527
0.866608
0.82673
0.770065
0.76048
0.889613
0.884965
0.888345
0.887766
0.759134
0.891879
0.887848
0.749002
0.768592
0.752891
0.883963
0.885787
0.87466
0.879697
0.80507
0.817243
0.865114
0.892409
0.83355
0.831502
0.804503
0.79185
0.87873
0.891926
0.892958
0.786821
0.778614
0.834328
0.859478
0.857764
0.859679
0.843788
0.778488
0.771554
0.774521
0.86132
0.868635
0.891258
0.896984
0.780768
0.861922
0.889027
0.897261
0.906422
0.895032
0.758505
0.797351
0.888503
0.873126
0.871851
0.852795
0.898389
0.891638
0.805111
0.861699
0.90509
0.822911
0.851107
0.883883
0.895213
0.734144
0.89259
0.899403
0.886452
0.777013
0.771988
0.781018
0.823399
0.905741
0.901775
0.902084
0.870195
0.909271
0.884201
0.852244
0.845163
0.850957
0.900606
0.844431
0.858104
0.788276
0.788016
0.770817
0.891939
0.849859
0.833838
0.835511
0.832054
0.896197
0.746689
0.808449
0.84014
0.893627
0.880463
0.900049
0.873469
0.833401
0.857437
0.848358
0.861329
0.791164
0.82892
0.846633
0.8687
0.767245
0.795689
0.860598
0.794159
0.79157
0.867073
0.872681
0.879315
0.856077
0.853655
0.83517
0.858847
0.854068
0.870897
0.866134
0.851096
0.864715
0.836937
0.866101
0.896834
0.881425
0.890792
0.897282
0.882664
0.885902
0.885414
0.880878
0.899357
0.888949
0.879063
0.89356
0.890286
0.89104
0.884856
0.874986
0.886379
0.90297
0.896757
0.902952
0.899047
0.891792
0.881779
0.891582
0.875279
0.885884
0.878986
0.872844
0.895055
0.902951
0.897287
0.904003
0.904345
0.911877
0.90527
0.905107
0.891873
0.903595
0.903731
0.894057
0.902565
0.896706
0.883831
0.878768
0.893104
0.884796
0.870619
0.869736
0.849891
0.889876
0.875428
0.868537
0.875067
0.875775
0.843276
0.814082
0.80878
0.841056
0.812358
0.825364
0.829394
0.837131
0.877571
0.850028
0.854356
0.859641
0.860442
0.838385
0.814325
0.813751
0.771707
0.787765
0.813753
0.846683
0.792209
0.822844
0.830104
0.8145
0.839546
0.804464
0.806557
0.771752
0.83344
0.86609
0.854263
0.873871
0.847383
0.877926
0.869405
0.856059
0.818072
0.856963
0.872774
0.843673
0.853883
0.866941
0.846472
0.798881
0.80943
0.853295
0.841048
0.784342
0.815931
0.819667
0.81108
0.800684
0.822346
0.861046
0.838051
0.843837
0.83479
0.851625
0.828154
0.803928
0.829588
0.84799
0.741622
0.789349
0.776108
0.803277
0.800847
0.820901
0.743862
0.902633
0.901111
0.904051
0.907889
0.891666
0.887788
0.864044
0.891868
0.88399
0.86619
0.8661
0.761537
0.768787
0.763323
0.794067
0.820593
0.81094
0.822469
0.800206
0.802998
0.818995
0.837884
0.849239
0.850123
0.84721
0.839914
0.843009
0.848084
0.84535
0.841215
0.900504
0.86782
0.879525
0.882832
0.891956
0.881151
0.888313
0.884296
0.885035
0.885398
0.876836
0.876258
0.881442
0.88398
0.891384
0.879369
0.878256
0.868576
0.888406
0.881736
0.895592
0.894174
0.891462
0.895095
0.885562
0.8939
0.9018
0.853776
0.846815
0.84381
0.843877
0.857003
0.860119
0.842123
0.885415
0.879572
0.883609
0.849259
0.854768
0.843999
0.853974
0.857462
0.871304
0.868495
0.859718
0.852795
0.855843
0.876772
0.85723
0.873899
0.860379
0.867256
0.864221
0.864978
0.806321
0.783945
0.789097
0.782606
0.801966
0.797115
0.783171
0.77361
0.764771
0.767442
0.767512
0.809409
0.817333
0.828094
0.826455
0.748549
0.750872
0.734805
0.753663
0.730434
0.74064
0.797489
0.85331
0.841519
0.850323
0.836744
0.837909
0.834174
0.850535
0.850098
0.834565
0.872362
0.847252
0.869733
0.852849
0.869851
0.863914
0.854407
0.776657
0.7984
0.773486
0.78697
0.781334
0.778822
0.783875
0.765278
0.801555
0.765622
0.795963
0.784009
0.791341
0.788876
0.851673
0.844355
0.856022
0.851825
0.854284
0.8516
0.853837
0.854049
0.857668
0.860978
0.842368
0.850176
0.849668
0.72832
0.747672
0.764058
0.766763
0.763106
0.872266
0.875691
0.881479
0.88127
0.885284
0.887498
0.863715
0.861499
0.88675
0.884669
0.888221
0.886341
0.771327
0.862011
0.853065
0.864564
0.861685
0.857997
0.864636
0.864289
0.853405
0.860109
0.869778
0.873869
0.858747
0.847032
0.870949
0.869143
0.863594
0.865916
0.869449
0.860083
0.832079
0.844425
0.840756
0.850146
0.828616
0.833202
0.846804
0.876149
0.861154
0.868315
0.857903
0.875759
0.87602
0.860023
0.859239
0.835382
0.85915
0.851254
0.85767
0.853221
0.858368
0.833687
0.844793
0.876466
0.856454
0.850699
0.850309
0.857962
0.826114
0.885458
0.875593
0.875608
0.887658
0.885442
0.885005
0.848238
0.88434
0.871383
0.885978
0.879161
0.883833
0.880619
0.88301
0.853172
0.837854
0.861838
0.857967
0.851563
0.848378
0.860978
0.863076
0.862839
0.881022
0.869644
0.875538
0.880623
0.870998
0.840829
0.855958
0.863221
0.869196
0.866099
0.882958
0.867922
0.876679
0.874201
0.870226
0.886127
0.832149
0.83408
0.862813
0.853499
0.827107
0.82882
0.890432
0.889954
0.879299
0.881195
0.882988
0.882622
0.890259
0.891632
0.895883
0.895938
0.889868
0.891665
0.897304
0.892544
0.893295
0.904679
0.892482
0.898166
0.896896
0.89621
0.888327
0.893681
0.891421
0.886359
0.885326
0.893213
0.895699
0.888491
0.888141
0.890672
0.875485
0.87497
0.88864
0.897351
0.885336
0.891358
0.891678
0.891207
0.888509
0.895896
0.880777
0.891865
0.887772
0.894371
0.881936
0.884245
0.888082
0.892579
0.895723
0.892068
0.895464
0.895615
0.893121
0.880112
0.892498
0.885092
0.89486
0.887398
0.891873
0.899027
0.893189
0.895424
0.890412
0.893189
0.883339
0.884684
0.878952
0.882613
0.874018
0.8892
0.892978
0.894739
0.893302
0.884769
0.881663
0.88328
0.884748
0.890751
0.869569
0.872458
0.876365
0.877286
0.894893
0.88145
0.891345
0.893112
0.892225
0.891315
0.890419
0.889832
0.891901
0.893182
0.886739
0.893817
0.889211
0.887816
0.883221
0.870155
0.878805
0.872437
0.868871
0.87758
0.880289
0.862189
0.886539
0.878636
0.876726
0.884999
0.885687
0.892181
0.878872
0.880702
0.886381
0.89185
0.891948
0.878042
0.871284
0.876325
0.884569
0.870341
0.87401
0.887104
0.889694
0.87777
0.885088
0.887217
0.88406
0.888975
0.893718
0.884532
0.891329
0.886048
0.892585
0.909683
0.905576
0.900703
0.90554
0.900795
0.903181
0.909509
0.906596
0.904287
0.90557
0.888277
0.891814
0.894267
0.891356
0.896271
0.897187
0.899042
0.894786
0.897025
0.895035
0.893464
0.894513
0.892236
0.897491
0.901319
0.893589
0.892079
0.887589
0.89666
0.891463
0.888495
0.86112
0.866569
0.837764
0.854638
0.847072
0.851765
0.854929
0.880998
0.897301
0.899336
0.897497
0.897223
0.878026
0.891275
0.891824
0.885375
0.88838
0.889616
0.884045
0.894709
0.887098
0.886335
0.8844
0.895289
0.892824
0.884209
0.864416
0.873509
0.878255
0.864627
0.868147
0.875198
0.891187
0.876847
0.882371
0.883946
0.879513
0.890427
0.883834
0.867751
0.87743
0.881946
0.881405
0.87804
0.885669
0.89624
0.895
0.857398
0.871732
0.892527
0.888089
0.855756
0.884471
0.879595
0.89257
0.891748
0.887062
0.886091
0.892497
0.893056
0.873693
0.874083
0.880046
0.889659
0.886075
0.885408
0.880256
0.893777
0.884227
0.889406
0.893946
0.888074
0.899072
0.897843
0.899188
0.897548
0.899292
0.90132
0.899968
0.896714
0.898515
0.903887
0.902819
0.903049
0.898686
0.901286
0.902474
0.89892
0.902078
0.895027
0.898907
0.899068
0.901405
0.894222
0.895252
0.900465
0.904279
0.902013
0.896466
0.903372
0.901436
0.904972
0.902676
0.900629
0.902607
0.905101
0.905193
0.900836
0.902634
0.895193
0.897145
0.903471
0.899882
0.902777
0.899327
0.89974
0.899755
0.903222
0.899966
0.909166
0.901841
0.906301
0.898041
0.906526
0.904334
0.902565
0.905524
0.898757
0.906198
0.902587
0.901322
0.906542
0.89252
0.880947
0.90111
0.902323
0.892392
0.894678
0.898594
0.895898
0.894696
0.89943
0.893506
0.899489
0.900289
0.891576
0.900537
0.897558
0.904358
0.900098
0.90282
0.890602
0.902298
0.900839
0.905303
0.903746
0.894853
0.900862
0.906401
0.897952
0.899792
0.899452
0.902531
0.901922
0.898907
0.896528
0.906061
0.906628
0.886536
0.88633
0.893966
0.895624
0.903698
0.887419
0.891419
0.88504
0.887265
0.883161
0.891107
0.889875
0.885211
0.87825
0.874423
0.865994
0.875099
0.870371
0.86669
0.877603
0.880921
0.892077
0.884819
0.886903
0.885561
0.880729
0.878369
0.879526
0.877295
0.882691
0.869296
0.882907
0.880041
0.882877
0.879648
0.879533
0.852488
0.851784
0.854315
0.868087
0.862276
0.854416
0.83301
0.850759
0.849587
0.848999
0.849234
0.855639
0.877968
0.876787
0.858976
0.866011
0.871223
0.874898
0.886332
0.892791
0.884654
0.88476
0.88523
0.885062
0.87934
0.868479
0.883173
0.875901
0.878207
0.859338
0.858485
0.868794
0.870483
0.856504
0.858361
0.870391
0.868913
0.88254
0.859146
0.871964
0.864321
0.864589
0.868622
0.884301
0.886081
0.869807
0.87586
0.88015
0.881985
0.871126
0.815686
0.828463
0.811036
0.824717
0.806609
0.810636
0.852944
0.839532
0.848789
0.861903
0.861147
0.849085
0.849762
0.857001
0.840346
0.844226
0.894736
0.889185
0.882554
0.830962
0.780843
0.804392
0.774558
0.800991
0.79541
0.807436
0.793766
0.846848
0.855502
0.83214
0.833934
0.850153
0.832565
0.847313
0.848281
0.837865
0.802263
0.823201
0.825039
0.826073
0.796479
0.825511
0.807868
0.814651
0.837293
0.851813
0.837805
0.85352
0.835331
0.824441
0.84031
0.836919
0.835479
0.841372
0.85774
0.852337
0.837464
0.869989
0.873605
0.888523
0.8775
0.88078
0.880219
0.877976
0.863077
0.851745
0.870391
0.856773
0.863986
0.861708
0.861535
0.839443
0.84139
0.863212
0.854064
0.846748
0.845528
0.856297
0.8457
0.853214
0.84357
0.851603
0.835973
0.840706
0.849624
0.870441
0.870343
0.859695
0.85903
0.871156
0.871264
0.859559
0.78122
0.776503
0.779361
0.805406
0.810311
0.800196
0.778989
0.800453
0.807635
0.788833
0.837766
0.816779
0.828123
0.817544
0.838643
0.861019
0.841919
0.851623
0.849114
0.846978
0.814362
0.80011
0.814662
0.795143
0.812118
0.826711
0.830492
0.820268
0.833171
0.834928
0.830474
0.823385
0.785578
0.785758
0.809572
0.792049
0.774379
0.796121
0.787742
0.779739
0.796411
0.804822
0.829896
0.798231
0.826897
0.806403
0.812461
0.821779
0.837885
0.845854
0.862824
0.844893
0.854318
0.85374
0.84697
0.833104
0.813631
0.829721
0.823185
0.831615
0.825535
0.827338
0.791153
0.807337
0.828604
0.818845
0.806945
0.806586
0.819329
0.825112
0.80792
0.820081
0.80501
0.80682
0.814122
0.841297
0.829951
0.819515
0.819692
0.837203
0.833158
0.822604
0.75333
0.733145
0.770864
0.800057
0.764896
0.789538
0.77198
0.776476
0.785667
0.851759
0.836494
0.807985
0.82455
0.777896
0.783795
0.797631
0.773956
0.771887
0.83198
0.810567
0.745953
0.745146
0.751633
0.742545
0.765448
0.747812
0.769416
0.746495
0.764955
0.757685
0.763459
0.76045
0.763561
0.752285
0.79798
0.776603
0.781681
0.847563
0.846564
0.835018
0.872378
0.858519
0.875349
0.874758
0.866234
0.863912
0.877357
0.868571
0.87236
0.866231
0.866943
0.865311
0.863058
0.871393
0.882922
0.877474
0.886235
0.87701
0.88644
0.88482
0.879081
0.867181
0.84622
0.858414
0.859239
0.858544
0.855043
0.863421
0.85909
0.875848
0.881117
0.871033
0.873052
0.87476
0.869756
0.847969
0.858371
0.874056
0.865331
0.856458
0.857939
0.865152
0.874445
0.861224
0.87195
0.865403
0.873516
0.870768
0.869031
0.824917
0.819326
0.789811
0.816943
0.80389
0.806631
0.813517
0.845704
0.873317
0.859684
0.867792
0.85046
0.855647
0.867064
0.85168
0.872983
0.875322
0.86311
0.867924
0.870279
0.861093
0.86876
0.853249
0.860342
0.852873
0.871294
0.869337
0.85648
0.825189
0.839587
0.84353
0.84813
0.828032
0.83138
0.845023
0.840518
0.864348
0.842758
0.852622
0.844296
0.849956
0.846224
0.870441
0.859285
0.835379
0.848724
0.856718
0.856114
0.848677
0.832992
0.822654
0.839751
0.846816
0.841433
0.815291
0.814838
0.810327
0.81015
0.813267
0.778692
0.787276
0.793208
0.795289
0.774024
0.800262
0.816115
0.813629
0.829147
0.826415
0.80539
0.80147
0.798397
0.830015
0.804854
0.812007
0.808561
0.842756
0.866331
0.841526
0.844095
0.840564
0.86648
0.835402
0.857047
0.837235
0.847282
0.84235
0.840617
0.788105
0.806
0.815039
0.784618
0.809041
0.793874
0.797769
0.805083
0.836476
0.841774
0.825101
0.840996
0.823344
0.822653
0.8178
0.842282
0.81922
0.840769
0.835076
0.823216
0.78576
0.821216
0.81336
0.795342
0.814838
0.799142
0.820623
0.791593
0.806841
0.795361
0.8012
0.80033
0.850934
0.855534
0.862169
0.861246
0.853738
0.854157
0.861807
0.811247
0.838498
0.827194
0.822726
0.822988
0.827553
0.81757
0.851575
0.856583
0.83731
0.839126
0.852996
0.854726
0.837583
0.825295
0.831271
0.81032
0.828903
0.812113
0.816979
0.82463
0.843797
0.859826
0.836912
0.840334
0.849024
0.852694
0.835413
0.839094
0.832747
0.804092
0.827586
0.820917
0.822008
0.824878
0.784852
0.799309
0.797305
0.790732
0.791771
0.795726
0.863192
0.868257
0.827391
0.859575
0.834808
0.847838
0.843441
0.809231
0.822975
0.819506
0.801462
0.804806
0.861357
0.741479
0.733699
0.742834
0.752133
0.753108
0.778249
0.782571
0.75637
0.759695
0.778589
0.836314
0.82931
0.852665
0.836851
0.821833
0.81446
0.837988
0.766093
0.792287
0.767461
0.795925
0.806727
0.777818
0.782992
0.778034
0.785217
0.774152
0.812209
0.789316
0.789889
0.785294
0.754592
0.771325
0.795493
0.817252
0.755224
0.732487
0.740152
0.764488
0.744634
0.740883
0.74933
0.896286
0.902103
0.904234
0.904028
0.90164
0.904246
0.907537
0.901033
0.90659
0.904197
0.901579
0.904252
0.908203
0.902879
0.908293
0.905657
0.910188
0.900493
0.90617
0.90505
0.904733
0.906293
0.895281
0.902393
0.908047
0.897845
0.897687
0.901199
0.901989
0.895325
0.898889
0.905806
0.905346
0.896015
0.895002
0.897345
0.905239
0.903431
0.902263
0.903729
0.901182
0.905636
0.905253
0.904303
0.903554
0.901683
0.908738
0.900843
0.904076
0.90763
0.910568
0.908091
0.910389
0.907144
0.901099
0.906293
0.897781
0.904183
0.899443
0.872747
0.867794
0.854652
0.884499
0.868001
0.868701
0.868909
0.83524
0.856408
0.880598
0.882649
0.894314
0.886677
0.883738
0.882866
0.89017
0.889361
0.88244
0.871959
0.878621
0.856138
0.87571
0.874596
0.871255
0.868961
0.875551
0.873645
0.868712
0.870358
0.88509
0.883677
0.886046
0.876199
0.860457
0.861045
0.827497
0.863535
0.865129
0.868005
0.850812
0.886841
0.89196
0.891419
0.892306
0.896786
0.903046
0.891469
0.885926
0.882499
0.891257
0.887592
0.884991
0.893455
0.896291
0.890639
0.883529
0.879229
0.760516
0.824481
0.824388
0.822678
0.816356
0.824127
0.820056
0.819247
0.836737
0.833489
0.829447
0.835533
0.839039
0.824027
0.833067
0.839368
0.878167
0.878915
0.890184
0.882512
0.879238
0.878127
0.882077
0.881762
0.885382
0.890044
0.888019
0.887942
0.897466
0.895899
0.894593
0.900123
0.866945
0.853814
0.881222
0.829124
0.82617
0.846453
0.840832
0.864626
0.845661
0.852146
0.847016
0.837362
0.850347
0.837173
0.848594
0.841979
0.846953
0.841727
0.849285
0.856317
0.850252
0.858342
0.854614
0.859574
0.854974
0.775631
0.795328
0.782155
0.788245
0.783481
0.825124
0.82582
0.826908
0.799636
0.783077
0.724466
0.750828
0.783861
0.839891
0.833097
0.841684
0.843722
0.840473
0.837973
0.844203
0.863263
0.85711
0.866088
0.860381
0.875396
0.861393
0.763582
0.760778
0.776404
0.773219
0.767458
0.761423
0.773935
0.812617
0.798235
0.813013
0.800999
0.808457
0.800985
0.807575
0.869582
0.868121
0.85873
0.862914
0.866836
0.867053
0.861584
0.772475
0.808602
0.793772
0.79043
0.79271
0.800915
0.797968
0.796408
0.868754
0.884271
0.876673
0.873378
0.862299
0.874195
0.870881
0.871133
0.868472
0.875585
0.875137
0.863834
0.875743
0.873823
0.87447
0.871091
0.878079
0.854985
0.856853
0.86808
0.859415
0.858437
0.855544
0.861427
0.854164
0.852759
0.83993
0.848278
0.849232
0.852202
0.845635
0.849077
0.848121
0.835249
0.839488
0.847867
0.845166
0.839726
0.872511
0.86011
0.871758
0.862292
0.868524
0.862816
0.866581
0.786724
0.808309
0.797815
0.80922
0.882822
0.883423
0.83775
0.878777
0.87706
0.870544
0.871918
0.876712
0.875906
0.872872
0.859319
0.861285
0.848549
0.850676
0.860039
0.859018
0.856006
0.873286
0.863859
0.86717
0.86969
0.870642
0.867465
0.870718
0.862652
0.861587
0.86458
0.858849
0.86272
0.862046
0.86121
0.874178
0.866407
0.870772
0.863858
0.868858
0.867007
0.867287
0.828156
0.828894
0.839819
0.8548
0.862865
0.867723
0.863759
0.879889
0.878944
0.887667
0.886039
0.880853
0.886411
0.897441
0.894034
0.897308
0.898678
0.898391
0.900028
0.884918
0.890158
0.881145
0.888087
0.891997
0.888981
0.88587
0.886399
0.897294
0.88522
0.885551
0.893335
0.885611
0.880045
0.898819
0.888103
0.893593
0.894292
0.900337
0.876953
0.871409
0.878342
0.879901
0.87741
0.878028
0.882692
0.888775
0.892893
0.886359
0.886745
0.889356
0.88988
0.885941
0.893224
0.891715
0.892863
0.891877
0.889986
0.892922
0.888504
0.883594
0.891972
0.888997
0.89183
0.886753
0.890191
0.888969
0.883179
0.882622
0.888102
0.88629
0.886398
0.893206
0.895743
0.895309
0.899198
0.89457
0.880431
0.886944
0.869193
0.886842
0.885552
0.87822
0.882923
0.88612
0.879959
0.888581
0.887186
0.889058
0.878834
0.88918
0.876162
0.878521
0.881487
0.880478
0.87827
0.880542
0.88253
0.88685
0.885206
0.899375
0.880748
0.886572
0.880976
0.883256
0.880347
0.882713
0.881741
0.888615
0.895676
0.894143
0.895128
0.89582
0.886674
0.901047
0.893332
0.892541
0.895445
0.888933
0.865645
0.869133
0.86787
0.86678
0.886389
0.883555
0.900578
0.895249
0.894313
0.891246
0.877719
0.88265
0.87908
0.879588
0.881705
0.87811
0.878632
0.880167
0.887235
0.883382
0.884269
0.88455
0.885393
0.883021
0.890218
0.889168
0.892922
0.902654
0.904016
0.90421
0.903169
0.900084
0.900323
0.908528
0.904108
0.903186
0.906445
0.893478
0.897975
0.896724
0.901695
0.899474
0.903443
0.898561
0.898552
0.894077
0.897756
0.900069
0.897901
0.896455
0.902244
0.897263
0.886789
0.893146
0.894492
0.888897
0.89133
0.893972
0.868454
0.873307
0.861449
0.847716
0.861065
0.898462
0.904744
0.901568
0.895752
0.901517
0.891729
0.885139
0.892513
0.890393
0.8906
0.888629
0.892105
0.879613
0.879109
0.881559
0.873967
0.882299
0.878091
0.880591
0.881084
0.888051
0.883784
0.882475
0.880431
0.885414
0.884471
0.883611
0.890074
0.889352
0.887211
0.887452
0.888287
0.866429
0.874263
0.874443
0.870295
0.869839
0.872524
0.868404
0.854317
0.845912
0.892534
0.898165
0.874257
0.892121
0.89232
0.892615
0.890729
0.892032
0.891033
0.891098
0.894955
0.890825
0.885423
0.874565
0.875729
0.873459
0.879034
0.881208
0.864486
0.867363
0.870432
0.864619
0.867342
0.890418
0.895736
0.897598
0.898758
0.895806
0.895843
0.893112
0.897764
0.896686
0.893899
0.90413
0.903885
0.902877
0.907947
0.907032
0.902716
0.903682
0.906313
0.904019
0.903505
0.903244
0.904262
0.895772
0.902706
0.89485
0.898198
0.897393
0.899983
0.895542
0.899613
0.904392
0.897244
0.901301
0.900473
0.902561
0.900026
0.902679
0.901488
0.905275
0.903083
0.903193
0.901931
0.905776
0.907571
0.900314
0.906271
0.904021
0.90564
0.905235
0.907564
0.905516
0.904717
0.903936
0.90217
0.908962
0.906156
0.90012
0.908178
0.906878
0.907282
0.906917
0.907286
0.907402
0.8953
0.900985
0.895125
0.893424
0.896166
0.891753
0.89418
0.896192
0.895802
0.895183
0.904718
0.901025
0.900428
0.897882
0.903801
0.903944
0.901456
0.901052
0.89773
0.901529
0.899973
0.901725
0.898752
0.901439
0.898948
0.895348
0.897993
0.89941
0.895641
0.898155
0.907317
0.903906
0.903397
0.908751
0.902656
0.904848
0.905777
0.894595
0.903629
0.906193
0.900683
0.903821
0.903154
0.893261
0.893721
0.876211
0.878385
0.880487
0.880286
0.872659
0.877645
0.878435
0.879487
0.876294
0.867158
0.876081
0.867553
0.871937
0.866706
0.875199
0.863975
0.89153
0.885673
0.891555
0.889403
0.890282
0.888108
0.892117
0.89067
0.883858
0.890959
0.887458
0.885043
0.887302
0.888739
0.8693
0.879236
0.87313
0.868085
0.874585
0.878094
0.878122
0.876553
0.874716
0.880604
0.875816
0.859085
0.859278
0.837544
0.850339
0.844489
0.844953
0.842347
0.847099
0.84433
0.871954
0.873315
0.892648
0.886825
0.892465
0.889042
0.891461
0.88833
0.888559
0.874513
0.875681
0.866261
0.871295
0.877011
0.874673
0.874304
0.873036
0.873472
0.877987
0.872703
0.874349
0.870747
0.87491
0.869246
0.876064
0.878737
0.875573
0.870472
0.874488
0.875337
0.868738
0.873997
0.878614
0.869423
0.869496
0.872903
0.826103
0.828596
0.835855
0.815336
0.831452
0.822138
0.824731
0.848959
0.842169
0.838328
0.836661
0.835372
0.865942
0.87178
0.863193
0.859308
0.868825
0.858168
0.850498
0.867919
0.880737
0.887394
0.78741
0.804406
0.823165
0.807394
0.821479
0.812936
0.818673
0.812239
0.82012
0.864253
0.864201
0.838545
0.830315
0.834982
0.828841
0.823572
0.821203
0.823178
0.820512
0.816952
0.81101
0.829072
0.824343
0.82569
0.817885
0.82081
0.82144
0.836983
0.825288
0.837117
0.829977
0.831928
0.829113
0.833379
0.828773
0.838985
0.846358
0.846383
0.845539
0.846575
0.885249
0.877465
0.882112
0.879346
0.881951
0.879829
0.881972
0.860264
0.854478
0.848985
0.850094
0.856247
0.854153
0.851883
0.863591
0.85754
0.864182
0.857715
0.863285
0.85801
0.860924
0.854135
0.857206
0.864657
0.858024
0.857707
0.854085
0.858581
0.854288
0.85489
0.849325
0.856935
0.853729
0.856551
0.85383
0.758854
0.767837
0.824898
0.83018
0.812762
0.821571
0.81916
0.815536
0.798588
0.801575
0.790005
0.79762
0.810278
0.788964
0.807748
0.781044
0.799261
0.849629
0.840331
0.836239
0.835991
0.843608
0.839583
0.83887
0.804597
0.802882
0.838626
0.825333
0.827728
0.802492
0.828632
0.815919
0.810558
0.811115
0.79992
0.808684
0.817744
0.814421
0.791321
0.782148
0.770143
0.812849
0.798216
0.778771
0.796275
0.785339
0.791441
0.784034
0.790432
0.78439
0.820599
0.821851
0.825884
0.817861
0.824119
0.821111
0.820953
0.853986
0.842283
0.847366
0.848462
0.849607
0.845678
0.849819
0.816716
0.808697
0.801996
0.803003
0.820644
0.810215
0.832402
0.82364
0.836855
0.827315
0.831803
0.826642
0.831992
0.822864
0.824448
0.836524
0.829194
0.826675
0.824638
0.831809
0.807605
0.815901
0.813025
0.813768
0.808614
0.770057
0.769916
0.792941
0.778705
0.784169
0.833662
0.836721
0.803104
0.820055
0.810294
0.82187
0.810902
0.817313
0.803573
0.806805
0.819311
0.803757
0.805853
0.800983
0.809875
0.763525
0.760382
0.769743
0.77777
0.767375
0.781235
0.779015
0.773185
0.774977
0.769515
0.819828
0.812841
0.829732
0.834749
0.840921
0.838404
0.874372
0.875962
0.873557
0.870675
0.874747
0.872826
0.872589
0.845456
0.849906
0.857273
0.857927
0.850817
0.855244
0.856131
0.878999
0.874358
0.87064
0.872866
0.875488
0.875185
0.873238
0.853082
0.858877
0.848184
0.850678
0.853257
0.854817
0.848616
0.880503
0.871763
0.880419
0.876058
0.8787
0.874973
0.878636
0.876244
0.86935
0.879089
0.871501
0.873864
0.869846
0.874724
0.86227
0.861726
0.851335
0.856339
0.859503
0.859804
0.855492
0.803703
0.820379
0.817713
0.818202
0.810267
0.815489
0.813771
0.864972
0.869175
0.870352
0.860543
0.862085
0.861627
0.865456
0.874091
0.863358
0.873259
0.869798
0.871596
0.867687
0.872628
0.847842
0.846759
0.83355
0.843961
0.844182
0.847307
0.839825
0.855143
0.853548
0.867318
0.858187
0.858103
0.85447
0.861747
0.856644
0.856332
0.868851
0.865348
0.859621
0.859975
0.866149
0.833809
0.845042
0.832237
0.841673
0.836046
0.842099
0.836454
0.832997
0.838157
0.759849
0.788781
0.806186
0.794162
0.798312
0.804359
0.803682
0.803711
0.814376
0.805482
0.80604
0.798944
0.808979
0.814594
0.79396
0.803866
0.808658
0.799004
0.810247
0.803061
0.824385
0.810562
0.820159
0.81006
0.818791
0.812637
0.816524
0.866627
0.853988
0.854276
0.856374
0.853607
0.827045
0.841553
0.82414
0.835567
0.828505
0.83568
0.82883
0.768241
0.779634
0.798805
0.8123
0.817538
0.817259
0.806375
0.813052
0.813488
0.808106
0.805194
0.81916
0.833303
0.826944
0.826285
0.825365
0.806536
0.806081
0.814941
0.81986
0.81882
0.819301
0.817644
0.815521
0.819368
0.808299
0.815875
0.810967
0.815641
0.808234
0.811328
0.823813
0.819299
0.813226
0.813439
0.819788
0.87071
0.871496
0.862789
0.864273
0.86878
0.869299
0.864668
0.831726
0.824464
0.838286
0.832727
0.830876
0.827848
0.836117
0.832959
0.834144
0.829619
0.838985
0.832001
0.836761
0.834923
0.825308
0.833582
0.838954
0.835474
0.83051
0.831452
0.834281
0.840017
0.83889
0.843811
0.84673
0.840048
0.842542
0.844802
0.814423
0.829299
0.824409
0.826173
0.819563
0.824833
0.822202
0.868603
0.885827
0.820427
0.818697
0.804316
0.80796
0.816861
0.814928
0.808564
0.845773
0.831079
0.831285
0.831379
0.839663
0.834826
0.834899
0.833706
0.839367
0.835136
0.752979
0.753392
0.744488
0.792747
0.78976
0.807344
0.795006
0.796223
0.790108
0.800553
0.790576
0.787923
0.793976
0.790875
0.790499
0.794793
0.809171
0.793027
0.805571
0.803374
0.806372
0.800991
0.804525
0.823263
0.837792
0.824934
0.826367
0.828139
0.830158
0.823316
0.755178
0.744335
0.751861
0.740353
0.896489
0.90176
0.897592
0.900863
0.897759
0.901039
0.898252
0.903083
0.905912
0.909274
0.907318
0.909267
0.905559
0.908396
0.90542
0.906405
0.90542
0.90642
0.905399
0.909944
0.903543
0.905678
0.906182
0.907061
0.898876
0.897363
0.893269
0.895281
0.897883
0.894382
0.897922
0.89625
0.894971
0.908243
0.897603
0.895208
0.89808
0.898199
0.904071
0.905149
0.906556
0.903056
0.899292
0.901952
0.904673
0.899268
0.903426
0.903728
0.907382
0.908626
0.905653
0.903734
0.907788
0.903179
0.89787
0.904131
0.898655
0.901581
0.901415
0.861584
0.837755
0.840053
0.838291
0.861618
0.86408
0.860294
0.857561
0.858698
0.86697
0.896118
0.889525
0.892691
0.894611
0.891158
0.896536
0.879008
0.885553
0.885129
0.870502
0.884832
0.871811
0.869283
0.867618
0.868596
0.871113
0.869728
0.867857
0.873786
0.867553
0.864255
0.86554
0.852597
0.85958
0.868115
0.870694
0.866303
0.888512
0.887395
0.886248
0.890954
0.889115
0.888272
0.889007
0.89078
0.875066
0.88002
0.886576