/*--------------------------------*- C++ -*----------------------------------*\
| =========                 |                                                 |
| \\      /  F ield         | OpenFOAM: The Open Source CFD Toolbox           |
|  \\    /   O peration     | Version:  v1612+                                |
|   \\  /    A nd           | Web:      www.OpenFOAM.com                      |
|    \\/     M anipulation  |                                                 |
\*---------------------------------------------------------------------------*/
FoamFile
{
    version     2.0;
    format      ascii;
    class       surfaceScalarField;
    location    "50";
    object      phi;
}
// * * * * * * * * * * * * * * * * * * * * * * * * * * * * * * * * * * * * * //

dimensions      [0 3 -1 0 0 0 0];

internalField   nonuniform List<scalar> 
46288
(
-2.15231e-09
-1.9259e-09
3.15371e-09
9.24488e-10
1.58222e-09
4.54521e-10
-2.14743e-09
1.10641e-10
-3.32866e-09
-3.85846e-09
1.93165e-10
6.99395e-09
-1.04912e-09
2.61621e-09
-1.49307e-09
-7.399e-11
6.10184e-09
6.61176e-09
-4.15537e-09
-8.55821e-09
-8.94103e-09
-1.10814e-10
2.89052e-09
6.16135e-09
3.9804e-09
3.48652e-09
-3.86584e-09
-3.60108e-09
5.6901e-09
-1.23957e-08
1.5261e-08
-8.55537e-09
-3.67961e-09
7.5667e-09
-3.54953e-09
-3.37572e-10
2.22222e-09
5.72376e-10
-8.38332e-09
5.58865e-09
3.77783e-09
-2.8752e-09
-3.62229e-09
2.71965e-09
1.20752e-09
-4.44739e-09
3.32162e-09
-8.17644e-11
2.14908e-09
-1.01378e-09
-2.02989e-09
8.94667e-10
3.3898e-09
-4.77926e-09
-5.41444e-09
6.80392e-09
2.94808e-09
1.35109e-10
-4.1358e-09
1.05261e-09
2.40944e-09
-6.57931e-09
6.1726e-09
-2.00275e-09
3.99303e-09
-5.28051e-09
-3.72114e-10
1.65962e-09
-6.93796e-10
2.72957e-09
-2.21187e-09
1.76105e-10
-1.92783e-09
-1.32317e-09
3.06256e-09
1.88563e-10
5.6776e-09
6.23264e-10
-1.94004e-09
-4.36081e-09
6.09756e-09
-6.68404e-09
6.0342e-10
-1.69258e-11
3.12182e-09
-3.30998e-09
1.46226e-10
4.19284e-11
1.12386e-09
-9.9863e-10
-4.71584e-09
4.59064e-09
-2.85955e-09
-3.92096e-09
6.5635e-09
2.17011e-10
6.57186e-09
1.0494e-09
-3.77495e-09
-3.84632e-09
2.12449e-09
-7.39118e-09
3.29212e-09
1.97459e-09
-5.56347e-09
2.55647e-09
8.54676e-10
-6.63518e-09
6.05031e-09
4.10703e-09
-3.52215e-09
8.90407e-09
6.20403e-09
-9.14116e-09
-5.96689e-09
-2.3747e-09
3.61403e-09
-1.24952e-09
1.01692e-11
-3.04148e-09
1.75193e-09
1.31492e-09
-2.53771e-11
6.28401e-10
-2.6968e-09
-3.84371e-09
5.9121e-09
3.88189e-09
-3.79981e-09
-8.67191e-11
4.64845e-12
4.23586e-10
-6.2688e-09
-1.07871e-09
6.92389e-09
-4.46457e-09
-1.18526e-09
7.02512e-09
-1.37526e-09
-2.21917e-09
6.76514e-09
-3.29729e-09
-1.24868e-09
-1.97922e-09
5.21256e-09
-6.0452e-09
2.81186e-09
-3.3694e-09
4.32952e-10
6.86246e-10
2.25022e-09
-8.57757e-09
9.29708e-09
4.19872e-09
-4.91823e-09
6.01275e-09
-3.43421e-10
-5.6833e-09
1.3999e-11
-5.85244e-09
4.20856e-09
-3.84571e-09
-3.22697e-09
-6.01682e-09
4.28249e-09
4.96134e-09
-6.22985e-09
2.45361e-09
3.9732e-09
-1.96933e-10
7.77284e-09
1.73315e-09
-8.05493e-09
-1.45106e-09
2.64097e-09
-3.09717e-09
5.01036e-10
-4.48414e-11
2.07254e-09
5.48193e-09
-1.87822e-09
-5.67627e-09
-5.9471e-09
8.30428e-09
-1.67453e-09
-6.82648e-10
1.52072e-08
5.63825e-09
-9.30469e-09
-1.15408e-08
-1.05877e-09
5.27655e-10
-2.87532e-09
3.40645e-09
5.89827e-09
-2.57601e-09
7.47979e-09
-1.08021e-08
-3.32984e-09
6.6073e-09
-6.03505e-09
2.75757e-09
-1.31636e-08
8.95771e-09
8.76038e-10
-4.6931e-09
-2.40238e-09
1.72122e-09
5.37425e-09
-1.26246e-09
2.34897e-09
2.14477e-09
-3.23125e-09
1.53382e-09
2.61643e-09
-3.78522e-09
-3.65054e-10
3.81527e-09
-3.20752e-09
-3.97715e-09
3.63074e-09
1.87931e-09
-5.07708e-09
1.21599e-09
-3.84275e-09
6.44206e-09
-6.38933e-09
5.15722e-09
-7.255e-10
1.95755e-09
5.9475e-09
-7.79457e-09
3.84448e-09
-1.99746e-09
8.38131e-10
-3.0624e-09
4.93939e-09
-2.71512e-09
-2.7651e-09
3.00805e-09
-3.4745e-10
1.04517e-10
-6.24483e-09
-5.60552e-09
4.33101e-09
3.36787e-09
1.14172e-09
7.10124e-10
-5.21969e-09
2.53001e-09
-7.03329e-09
4.42116e-09
8.20626e-11
-8.29688e-09
6.49257e-09
-3.94967e-10
2.19927e-09
7.04882e-10
-3.31332e-09
2.73257e-09
-1.24092e-10
-2.61474e-09
4.95752e-10
2.09279e-09
2.61851e-11
-3.77173e-09
7.48863e-09
-5.45383e-09
1.73689e-09
3.70219e-09
-1.43063e-09
-2.41895e-09
1.47262e-10
-5.79117e-09
3.57844e-09
-1.1033e-10
2.32305e-09
3.53093e-11
-2.34758e-09
2.38425e-09
-7.20002e-11
-6.18099e-09
3.46077e-09
3.00706e-09
-2.86813e-10
-8.75288e-09
9.26325e-09
2.66312e-09
-3.17349e-09
6.99721e-09
-9.58195e-09
7.42572e-09
-4.84102e-09
3.92983e-09
-1.3784e-09
-4.32549e-09
1.77407e-09
1.3988e-09
1.19099e-09
-5.05754e-09
1.70955e-09
-4.06641e-09
-5.92583e-09
4.72996e-09
1.48051e-09
-4.71954e-09
-1.4909e-09
2.41208e-09
-3.82742e-09
8.88369e-10
5.2696e-10
4.17524e-09
-1.22515e-09
-1.93058e-09
-1.01943e-09
2.99665e-09
1.34395e-09
3.23506e-09
-7.57568e-09
4.08001e-09
2.32397e-10
-4.36334e-09
5.09087e-11
-2.83211e-11
-3.3973e-09
3.41144e-09
1.41788e-11
3.12195e-09
-7.09234e-10
-3.81645e-09
1.40373e-09
5.0621e-09
3.38491e-09
-6.74181e-10
2.23705e-10
1.4163e-08
-9.32462e-09
-4.32938e-09
1.92029e-09
2.34426e-09
6.46748e-11
-1.09262e-09
-6.26822e-10
1.6294e-09
9.00376e-11
-5.96974e-09
8.6991e-09
-4.10474e-09
1.37538e-09
-4.80386e-09
-6.24805e-09
1.22875e-08
-1.2356e-09
-6.3156e-09
-1.35312e-09
6.85076e-09
8.17952e-10
5.93011e-09
-4.13291e-09
-3.75381e-09
1.95662e-09
4.80311e-09
5.72837e-10
-5.24067e-09
-1.35278e-10
-8.71842e-09
5.57974e-09
8.43962e-09
-5.30095e-09
4.53515e-09
2.65607e-09
-2.38812e-09
-7.74409e-09
8.30922e-09
-1.37339e-09
8.08256e-10
-2.55751e-10
2.93565e-09
-2.54539e-09
-1.3453e-10
-4.49083e-09
-3.1806e-09
4.95047e-09
2.721e-09
-1.62159e-09
5.46664e-09
-2.50846e-09
-1.3366e-09
5.75533e-09
6.12071e-10
-4.71069e-10
-5.89633e-09
-2.77141e-09
2.88562e-10
-4.07112e-09
6.55397e-09
-2.34416e-09
-6.94431e-09
6.51707e-09
4.33235e-09
-3.09966e-09
-5.47948e-09
4.24682e-09
-2.29399e-09
-1.12846e-08
1.24214e-08
1.15723e-09
1.76569e-09
-4.88031e-09
-2.74649e-09
5.86112e-09
-2.91696e-10
-4.08081e-09
-3.07473e-09
7.44723e-09
9.40733e-09
-1.3842e-09
-6.34845e-09
-1.67468e-09
-1.32453e-09
-3.43587e-09
1.13216e-09
3.62822e-09
3.56511e-09
2.15884e-09
-5.21978e-09
-5.04232e-10
3.9448e-09
-5.62593e-09
1.86697e-09
-1.85841e-10
2.73784e-09
2.41135e-09
-6.17721e-09
1.028e-09
-2.52117e-09
2.11562e-09
4.61172e-09
-4.20616e-09
-4.01145e-12
-6.82915e-09
6.7049e-09
1.28248e-10
2.43155e-09
-8.03185e-09
6.09741e-09
-4.97114e-10
-3.07774e-09
-3.06593e-09
1.74044e-09
4.40324e-09
-4.61479e-09
9.27805e-10
6.29924e-10
3.05712e-09
5.12924e-09
3.18471e-09
-5.36438e-09
-2.94958e-09
-2.24295e-10
4.19328e-09
-3.92305e-09
-4.59463e-11
4.19144e-09
5.26783e-10
-3.09125e-09
-1.627e-09
-2.60064e-09
-7.26807e-09
7.06779e-09
2.80091e-09
-2.49038e-09
-3.97555e-09
2.6995e-09
3.76645e-09
4.71131e-09
-2.91853e-10
-4.7251e-09
3.05645e-10
4.30335e-09
-1.00671e-09
-1.89951e-09
-1.39701e-09
5.44258e-09
-1.7365e-09
-3.77129e-09
6.52137e-11
-3.76874e-09
-7.62857e-10
1.30469e-09
1.70099e-09
-4.93449e-09
3.33095e-09
-9.74312e-11
-3.57517e-09
5.25426e-09
2.19072e-11
-7.80316e-09
-1.78883e-09
4.00874e-10
-1.41873e-09
1.10535e-09
-8.74261e-11
-3.02332e-09
4.10625e-09
4.09452e-11
6.82973e-09
7.494e-10
-4.45717e-09
2.53026e-09
-1.40392e-09
2.04636e-09
-3.1727e-09
4.13464e-09
1.59976e-09
-5.64617e-09
-8.82196e-11
-2.76592e-09
3.78272e-09
2.68537e-09
-3.05965e-09
1.57927e-09
4.96846e-11
2.55417e-09
2.00709e-09
-1.23587e-09
-3.32538e-09
2.91951e-09
-3.05527e-09
-2.92389e-09
2.69063e-09
3.55009e-09
-6.56997e-09
3.29239e-10
5.42388e-09
3.76453e-09
-4.97319e-09
-4.21521e-09
3.12046e-09
4.84499e-09
-1.76867e-09
-6.19677e-09
-3.39012e-09
-4.00909e-09
7.22842e-09
1.70805e-10
-3.9759e-09
1.32436e-09
-2.24193e-09
4.89348e-09
-1.0469e-09
-4.66259e-09
1.76259e-09
3.94689e-09
3.15671e-09
-1.81514e-10
-6.02403e-09
3.04883e-09
2.08082e-09
-4.52906e-09
1.7545e-09
6.93703e-10
5.22508e-09
-6.36375e-09
-6.8821e-10
1.82685e-09
-2.03418e-09
2.62928e-09
9.09649e-10
-1.50474e-09
-3.56713e-09
9.54087e-13
-2.26932e-09
5.83548e-09
-4.14268e-09
3.01778e-09
-2.44224e-09
-1.89393e-10
-6.11653e-09
1.78239e-09
4.52351e-09
1.05005e-09
-5.78661e-09
7.80826e-09
-3.07171e-09
-4.52093e-09
-1.53644e-09
-5.24739e-09
1.13047e-08
3.96127e-09
-1.66221e-09
-1.81583e-09
-4.8328e-10
-1.23879e-09
1.50165e-09
-3.86293e-09
3.60005e-09
2.69641e-09
-3.51668e-09
-3.7007e-09
3.45295e-09
-4.44178e-09
-2.51535e-09
3.5042e-09
2.38955e-10
1.51164e-09
9.99837e-10
-2.75045e-09
-4.01486e-11
-2.15576e-09
2.9414e-09
-7.4547e-10
1.00449e-09
4.74848e-09
-7.75035e-10
-4.97793e-09
6.0341e-09
-8.53096e-09
1.59339e-09
9.03481e-10
-2.62686e-09
2.29726e-09
-6.26877e-09
6.59839e-09
1.19611e-10
-4.46814e-09
4.34453e-09
4.30043e-09
-4.68e-09
4.5525e-10
-7.56078e-11
6.09899e-09
-3.95606e-09
-7.20924e-09
5.06634e-09
2.62129e-09
-3.94699e-09
7.42469e-09
-6.748e-09
6.02971e-09
-3.5572e-09
4.27546e-09
-4.3383e-09
-5.55071e-09
3.98754e-09
5.90146e-09
4.66561e-09
-3.84738e-09
1.72114e-09
-2.53937e-09
-3.58329e-09
-4.01313e-10
-3.57833e-09
7.563e-09
-1.22757e-09
3.12465e-09
4.9297e-09
-6.82681e-09
-4.1558e-09
1.43886e-09
1.19015e-09
1.52689e-09
-1.45847e-09
-4.72826e-09
7.64521e-09
-1.45848e-09
3.48191e-09
-5.21364e-10
-5.23896e-09
2.27841e-09
-9.01398e-10
6.37507e-09
9.6376e-09
-6.2677e-09
-1.06482e-08
7.27833e-09
-9.96707e-10
-3.42268e-09
2.47957e-09
5.07618e-10
-7.682e-09
8.35089e-09
-1.17651e-09
-7.49321e-09
-1.85607e-09
2.81637e-09
6.53288e-09
-3.28226e-09
3.88141e-09
-9.15334e-11
-1.27442e-09
-1.99704e-09
3.21592e-09
5.5541e-11
6.1042e-10
3.24521e-09
-3.82971e-09
-2.59063e-11
4.82429e-09
1.6013e-09
-5.39156e-09
-1.03403e-09
7.5746e-09
-4.06025e-09
-2.6048e-09
-9.09557e-10
-4.5732e-10
2.8959e-09
-2.40525e-09
-3.33237e-11
2.32763e-09
2.84066e-09
-2.76596e-09
-2.40234e-09
-2.47394e-10
-3.30404e-09
3.56569e-09
-1.42799e-11
4.12478e-09
1.40122e-09
-8.74436e-09
3.21834e-09
-9.2253e-10
-1.18145e-09
-2.59537e-09
4.69935e-09
6.12325e-09
-1.762e-09
-5.28378e-09
-4.66953e-10
4.49638e-09
-3.25756e-09
-7.71876e-10
3.34408e-09
-2.5693e-09
-8.80966e-10
1.06175e-10
3.18071e-09
-6.50324e-09
-3.75541e-09
7.07795e-09
3.10937e-09
-3.21578e-09
2.10546e-10
-1.04153e-10
-4.97183e-09
8.5417e-09
-3.86156e-09
7.01586e-09
-4.26097e-09
-8.39756e-09
5.64267e-09
-1.1026e-08
1.19451e-08
7.16078e-09
-8.07991e-09
7.66239e-09
-1.34045e-09
-4.149e-09
-2.17295e-09
1.47815e-09
6.22456e-10
-2.12594e-09
2.53872e-11
-1.31531e-09
-4.81862e-09
3.01771e-09
3.11624e-09
2.04225e-09
-4.34523e-09
-1.17756e-09
3.48059e-09
-6.957e-09
-2.79581e-09
6.73912e-09
3.01369e-09
-5.81947e-09
-1.7921e-09
6.54571e-10
3.30718e-09
-2.41488e-09
-7.2379e-09
6.3456e-09
6.87618e-10
3.93782e-11
5.03597e-09
-1.6852e-09
-3.52911e-09
1.78356e-10
7.71645e-11
2.19795e-09
1.79952e-09
-5.8248e-09
2.61489e-09
8.78719e-09
-5.57726e-09
4.18388e-09
2.8076e-09
-6.60196e-09
-3.89529e-10
-1.84692e-09
6.95523e-09
-5.30299e-09
1.94677e-10
-7.63167e-09
-6.06887e-09
1.38598e-09
1.23146e-08
-2.11025e-10
3.73668e-09
-2.01911e-09
-1.50653e-09
1.49849e-10
-3.58097e-09
-9.68256e-10
4.39938e-09
-2.41955e-09
-2.29176e-09
5.82996e-09
-1.11863e-09
5.86464e-10
-4.98523e-09
-2.54008e-09
2.21635e-09
-8.46578e-10
1.1703e-09
3.3789e-09
-4.49267e-09
1.2269e-09
-1.13082e-10
6.1976e-09
-4.08126e-09
-2.31752e-09
2.01232e-10
-8.72507e-10
-1.28932e-09
1.94642e-09
2.15384e-10
3.37049e-09
-1.51297e-10
-5.04671e-09
1.82757e-09
-3.76178e-09
-5.41721e-09
2.37998e-10
3.06601e-09
-4.14477e-09
2.00139e-11
-2.97383e-09
-1.29988e-09
4.2852e-09
-1.14942e-11
7.38549e-09
-9.44998e-09
-2.69317e-09
4.75767e-09
5.15116e-09
-1.75823e-09
1.74962e-09
-5.14252e-09
3.41345e-10
4.56294e-09
2.46869e-10
2.88961e-09
4.37287e-09
-4.98884e-09
-2.27361e-09
6.01729e-09
-4.28004e-09
1.64766e-09
7.72645e-09
-2.56589e-09
-5.18108e-09
2.05334e-11
8.10597e-10
-1.58294e-09
-2.2969e-09
3.06925e-09
-4.20641e-09
6.64179e-09
-9.67645e-09
7.24108e-09
-2.91897e-09
-1.52729e-10
-3.80672e-10
3.45239e-09
3.24208e-09
-5.39101e-09
2.31946e-09
-1.70514e-10
3.93012e-09
2.91162e-09
-3.47386e-09
3.85847e-09
5.20058e-10
-1.43044e-09
-3.28967e-10
2.51703e-09
-2.17087e-09
-1.71876e-11
3.23265e-10
1.39816e-09
-1.58765e-09
-1.33765e-10
-4.25048e-09
8.42154e-09
-5.2747e-09
1.10367e-09
1.03728e-11
-3.94668e-12
7.15222e-09
-7.15861e-09
-2.44365e-09
-8.65337e-11
2.54206e-09
-1.18784e-11
1.17857e-09
-5.21684e-09
2.67366e-09
1.36462e-09
-5.59376e-11
4.64751e-09
-4.63222e-09
4.06888e-11
1.02821e-09
-2.82248e-09
1.83915e-09
-4.50248e-11
-3.41534e-09
6.26169e-09
-3.1148e-09
2.68454e-10
-3.51792e-09
-1.60222e-09
5.43734e-09
-3.17212e-10
3.06425e-09
-4.6339e-09
1.75799e-09
-1.88331e-10
1.06797e-09
2.21602e-09
-9.14852e-09
5.86463e-09
-3.31222e-09
6.32231e-09
-9.45917e-10
-2.06418e-09
1.92249e-09
9.41722e-10
-1.94905e-09
-9.15198e-10
-3.31552e-09
4.69294e-09
-4.68964e-09
-2.99913e-09
2.0352e-09
1.04504e-09
-8.10836e-11
-4.72351e-09
5.57164e-09
-2.95633e-09
2.10817e-09
2.06604e-09
3.41086e-09
-5.44645e-09
-3.04163e-11
-5.25645e-09
2.87486e-09
-2.34194e-09
-2.74738e-10
3.03626e-10
4.70106e-09
1.80442e-09
-2.43397e-09
5.94339e-10
3.52144e-11
2.7012e-09
9.70291e-10
-3.79184e-09
1.20396e-10
-2.03612e-09
-1.0611e-09
8.12285e-09
-5.02565e-09
4.94828e-09
-2.37212e-09
-1.44612e-10
-1.97531e-09
5.81637e-10
-4.85027e-09
6.24395e-09
-8.31981e-09
3.58021e-09
7.32232e-09
-2.58272e-09
2.96397e-09
-6.14017e-09
5.75826e-09
-2.5821e-09
4.11088e-09
5.20098e-09
-3.70592e-09
-5.60595e-09
-1.92988e-09
3.79014e-09
-5.85256e-09
3.99228e-09
-3.33881e-10
-3.68943e-09
4.7409e-11
3.09092e-09
2.15654e-09
-3.40491e-09
-1.84246e-09
5.85533e-09
3.02431e-09
-7.24619e-09
-1.63354e-09
-1.99076e-09
2.09477e-10
1.79148e-09
-1.01644e-11
-2.49353e-10
-1.93807e-09
1.96691e-10
5.46906e-09
-1.58995e-09
-7.88161e-10
2.11079e-09
6.98729e-09
-3.24273e-09
-3.09018e-09
4.78343e-09
-1.65744e-09
-3.57413e-11
-3.51535e-09
8.66328e-09
1.75061e-09
-6.89856e-09
-6.46586e-09
6.96089e-09
2.24169e-09
-2.73673e-09
-4.22763e-09
-2.81143e-10
-1.95709e-09
4.97901e-09
3.13855e-09
1.10023e-10
-8.22759e-09
-3.27471e-09
3.87109e-09
-6.35555e-10
3.92363e-11
-3.97662e-09
2.57136e-09
8.03829e-09
-6.63301e-09
3.91594e-10
4.40154e-09
-4.46988e-09
6.75334e-09
1.47955e-10
-5.86567e-09
-1.03562e-09
5.46421e-09
-6.3952e-09
7.68434e-09
-1.48575e-09
-2.49365e-11
-1.25439e-09
-5.37776e-09
5.84183e-09
-4.04914e-11
5.85091e-10
-8.78671e-09
1.93283e-09
-8.31789e-09
-6.05056e-09
8.93363e-09
5.43481e-09
-4.04725e-09
6.20737e-09
-2.23551e-09
7.53937e-11
8.45773e-10
-7.68979e-09
2.38259e-09
4.46144e-09
-6.57065e-09
4.02261e-09
-4.76226e-09
7.31028e-09
-3.12516e-09
3.57564e-09
-2.05555e-10
-2.44939e-10
7.59287e-09
1.7662e-09
-4.29652e-09
-5.06255e-09
-3.02708e-09
-1.01602e-09
3.89373e-09
1.49357e-10
-6.58979e-09
3.77915e-09
8.90818e-09
6.05631e-10
-5.51862e-09
4.84246e-09
7.05326e-11
2.33736e-09
-1.70789e-11
-3.56897e-09
2.93372e-09
6.25057e-10
1.02373e-11
4.62492e-09
4.34527e-10
-2.95039e-09
-1.32932e-09
1.38238e-10
4.14148e-09
-9.291e-10
1.13956e-08
-6.53702e-09
-3.92947e-09
4.94356e-09
-6.91144e-10
4.80462e-11
3.73064e-09
2.17308e-09
-5.79663e-09
-1.07085e-10
-2.41903e-09
-9.30291e-10
3.45925e-09
-1.09935e-10
2.74664e-09
-5.48933e-09
-2.85013e-09
5.59282e-09
4.95356e-09
-3.01255e-09
-5.02813e-09
3.08715e-09
-3.75445e-09
1.30243e-09
-3.58293e-09
6.03495e-09
-4.31488e-09
7.9182e-10
3.59047e-09
-6.73953e-11
-5.19182e-09
2.92835e-09
2.13432e-09
1.29143e-10
4.5649e-09
-3.26958e-09
2.95256e-09
-4.24792e-09
-6.5677e-09
1.83108e-09
4.89128e-09
-1.54651e-10
-3.28646e-09
4.88824e-09
-1.85533e-09
2.53537e-10
4.25936e-09
-1.42105e-09
-1.27558e-09
-1.5628e-09
4.51035e-09
5.92153e-09
-4.29927e-09
-6.13264e-09
-5.27686e-09
1.24804e-08
-7.39656e-09
1.92999e-10
7.07823e-10
-1.70263e-09
-1.9143e-12
3.25002e-09
-2.6317e-09
-2.43871e-09
1.82035e-09
-4.42499e-09
6.25359e-09
3.20523e-10
2.52582e-09
-5.3998e-09
2.90007e-09
-2.61033e-11
9.59776e-10
-2.38285e-09
1.3849e-09
3.81897e-11
-2.10815e-09
-4.5578e-09
1.20622e-09
-2.99108e-09
5.55604e-09
-2.77416e-09
2.09133e-10
-1.76108e-09
-2.09049e-09
-1.5647e-09
5.41622e-09
2.86793e-09
1.1885e-09
-3.9767e-09
-7.96794e-11
5.2239e-09
-5.86175e-09
6.19282e-10
1.86134e-11
-4.52649e-10
5.05485e-09
-1.03505e-09
-3.56712e-09
-1.38145e-09
-1.68785e-09
3.2119e-09
-1.42605e-10
-6.7905e-09
2.81344e-09
2.77311e-10
3.69975e-09
4.17954e-09
1.09468e-09
-2.6356e-09
-2.63864e-09
2.76333e-09
6.08838e-09
-6.16107e-09
-3.58292e-09
3.00589e-10
-3.07213e-10
-3.40425e-10
3.55276e-09
-3.21398e-09
1.69589e-12
-1.6622e-09
3.05732e-09
6.12587e-09
-7.52099e-09
1.75239e-10
-1.86258e-09
4.6512e-09
-4.69142e-09
1.29174e-10
4.59792e-09
-3.56854e-11
2.64201e-09
5.53095e-09
-7.96224e-09
-2.10708e-10
4.48489e-09
2.37504e-09
-6.77125e-09
-8.86745e-11
3.11356e-09
-2.00592e-11
-4.54516e-10
6.04673e-09
-1.60568e-09
-3.9866e-09
1.35851e-09
-1.69817e-11
-1.32299e-09
-1.85193e-11
6.7769e-09
-4.97075e-09
1.11472e-09
-2.92083e-09
-2.81461e-09
1.06136e-09
1.71218e-09
4.11279e-11
-2.15591e-09
6.00789e-09
-1.23068e-09
-1.26076e-09
-2.97991e-09
8.18e-10
7.38188e-09
-1.72668e-09
-5.56745e-09
-8.77105e-11
2.16301e-09
3.34196e-11
-7.2177e-09
5.02129e-09
-3.79958e-09
2.99685e-09
7.79341e-10
2.3443e-11
-5.34923e-09
3.57663e-09
3.93562e-09
1.66458e-09
-1.16493e-09
2.79994e-11
6.99887e-09
-4.47371e-09
-4.16316e-10
-2.10884e-09
-2.72917e-09
-3.14542e-09
5.78605e-09
8.85468e-11
-1.26077e-09
3.20823e-09
-3.55233e-10
-1.59231e-09
3.15751e-10
-7.12805e-09
-1.21954e-09
2.33957e-11
-4.98339e-09
5.21943e-09
-2.59442e-10
-1.78656e-09
1.66564e-09
-2.50594e-09
9.70405e-09
-8.10688e-09
-4.4519e-09
2.85475e-09
2.68437e-09
-8.88496e-09
-1.83976e-09
8.04035e-09
-4.21234e-10
1.87555e-09
-1.45167e-09
-2.65116e-12
4.13459e-09
-7.96983e-10
-3.39209e-09
5.44824e-11
-5.44702e-09
4.10798e-09
1.6317e-09
-2.9265e-10
-2.99692e-09
5.45601e-09
-4.29918e-09
1.84006e-09
4.52666e-09
-9.76942e-10
-3.77456e-09
2.24836e-10
-2.28717e-09
-8.68386e-10
3.03353e-09
1.22017e-10
-4.39724e-09
2.07278e-09
-3.12254e-09
2.80531e-10
-5.20898e-09
-1.90946e-10
5.11941e-09
-1.53365e-09
-2.074e-09
3.61743e-09
-9.795e-12
1.13678e-09
2.89242e-09
-3.85057e-09
-1.78617e-10
6.67641e-09
-5.75281e-09
-7.83219e-10
-1.4036e-10
6.30231e-09
-5.35793e-09
-4.60885e-09
3.66447e-09
2.14124e-09
4.45349e-09
-6.54727e-09
-4.74437e-11
4.25538e-09
4.95123e-10
-4.61274e-09
-1.37783e-10
-3.9711e-09
3.83682e-09
-2.32081e-09
2.45509e-09
-4.27758e-09
1.75083e-09
6.25741e-09
-3.27868e-09
-3.0495e-09
4.2318e-09
2.09634e-09
-1.52361e-09
-8.51206e-10
5.62483e-09
4.44047e-10
3.24867e-09
-5.50355e-09
1.81086e-09
2.36629e-09
-1.38162e-09
1.91474e-09
-2.89942e-09
1.96579e-09
2.82797e-09
-4.93481e-09
1.41116e-10
1.48384e-09
7.97653e-10
8.47872e-11
-3.29962e-09
-2.76868e-09
4.39116e-09
1.67708e-09
1.73512e-09
-2.86083e-09
7.8778e-11
-2.4984e-09
4.05504e-09
6.22553e-09
-7.78215e-09
-8.68615e-10
2.00966e-09
-1.01159e-09
-1.29447e-10
-2.10366e-09
-2.94997e-09
-1.1762e-09
-5.37318e-09
7.40471e-10
2.61881e-09
2.01395e-09
-1.00628e-09
-6.2817e-09
4.96495e-09
2.32304e-09
1.52166e-09
3.66728e-09
-5.0439e-09
-1.45035e-10
4.48247e-09
-3.36422e-09
-1.20767e-09
8.94139e-11
3.24654e-09
-7.96196e-09
9.68632e-09
-4.97088e-09
2.48875e-09
-4.37504e-09
8.79994e-10
5.54838e-09
-4.81547e-09
-7.01461e-09
-1.35357e-11
5.62882e-09
-6.68826e-11
1.73024e-09
-3.53737e-09
5.75194e-09
2.02804e-10
-2.54909e-09
6.27612e-09
-1.79672e-09
7.93294e-10
1.00145e-09
1.97873e-12
-3.60904e-09
4.69241e-09
-8.55566e-09
7.4723e-09
4.83741e-09
-4.66449e-09
-7.48751e-09
7.31456e-09
-1.27928e-08
-5.8556e-09
1.27013e-08
2.12926e-09
-1.81923e-11
-5.45161e-09
3.34055e-09
2.59055e-09
6.15624e-09
-6.61754e-09
3.74542e-10
2.84144e-09
-7.05501e-10
-2.51048e-09
-5.62284e-09
5.83989e-09
1.17491e-09
-1.39192e-09
2.65981e-09
2.92643e-09
-2.75017e-09
6.90852e-10
-4.67771e-09
1.27377e-09
2.71308e-09
-1.35922e-09
-6.27854e-09
9.53736e-09
-1.89959e-09
2.40407e-09
4.94149e-09
-7.0976e-09
-2.47945e-10
-2.51321e-09
3.67934e-09
-2.9337e-11
2.52451e-09
1.71318e-09
-1.99064e-09
-2.24705e-09
-2.12637e-09
5.3178e-09
-7.09705e-11
1.14325e-09
-5.1231e-09
-1.62847e-10
1.98214e-10
2.71427e-09
8.41717e-11
-3.41534e-09
2.96715e-10
2.98295e-09
1.35679e-10
4.03946e-09
4.72087e-09
-7.41639e-09
2.8459e-09
-6.47793e-10
-4.56696e-09
2.36886e-09
-3.39209e-09
3.9179e-09
3.59897e-09
-3.25983e-10
4.86678e-09
-4.50713e-09
-3.36823e-11
3.13732e-09
2.65657e-09
-1.53166e-09
-4.26222e-09
-5.87357e-09
5.84268e-09
4.20671e-09
-4.17581e-09
7.35732e-10
-1.70404e-09
-4.90526e-09
4.87804e-09
-9.81196e-10
-1.63265e-09
-2.26419e-09
4.02696e-09
-2.91241e-09
-4.69751e-09
-3.20176e-09
3.63613e-09
-1.3081e-09
8.73704e-10
1.10272e-09
2.29206e-09
-3.36146e-09
-3.33806e-11
1.05283e-09
-4.15485e-09
3.00773e-09
9.42601e-11
-2.17215e-09
-3.48595e-09
2.64482e-09
3.0133e-09
-1.30588e-09
-2.70414e-09
5.39452e-11
1.33807e-09
-2.28967e-09
2.8746e-09
-1.92299e-09
2.8132e-09
-1.38383e-09
2.05105e-09
-3.48009e-09
-3.38554e-09
-5.17699e-10
4.02183e-09
-1.18581e-10
-3.22229e-09
-4.02058e-10
3.60826e-09
1.60971e-11
-6.45919e-09
-1.27307e-10
4.30813e-09
2.2784e-09
-1.13397e-09
-2.19611e-09
3.35562e-09
-2.55229e-11
-4.82164e-09
3.07408e-09
2.37404e-09
-6.26496e-10
2.67432e-09
-2.86573e-09
-1.37544e-10
3.24017e-10
2.43635e-09
-2.67376e-09
-8.66395e-11
-3.94729e-09
6.44118e-10
3.3166e-09
-1.34294e-11
-2.76039e-09
3.33151e-09
2.10469e-09
-2.67578e-09
1.61997e-09
-1.2809e-09
3.62453e-09
-3.96356e-09
1.68717e-09
-2.83497e-09
3.73564e-09
-2.58782e-09
-7.01618e-09
1.16982e-09
6.02482e-09
-1.78452e-10
1.47041e-09
-5.56643e-09
-1.80959e-10
4.27697e-09
-8.8192e-10
3.42882e-09
9.40747e-11
8.8994e-10
1.82331e-09
-2.56745e-09
-1.45814e-10
4.00413e-09
-3.42954e-09
-2.67712e-09
2.10253e-09
-2.46592e-09
-4.94496e-09
4.99586e-09
2.41501e-09
1.94342e-09
-5.89313e-10
1.29661e-10
-4.71016e-09
1.35273e-09
3.38913e-09
-3.17251e-11
9.64091e-10
-3.35454e-09
-1.06349e-09
3.45395e-09
-4.39671e-09
-4.18571e-09
4.30321e-09
4.2792e-09
-2.00996e-09
5.1761e-09
-3.31408e-09
1.47951e-10
-1.39142e-09
-6.96674e-09
4.78447e-09
3.5737e-09
-7.56065e-09
4.52252e-09
2.21634e-09
8.21837e-10
8.90626e-09
-2.39052e-09
-5.9185e-09
-5.97212e-10
1.96431e-09
-1.64182e-09
-8.21337e-09
7.89089e-09
-4.89191e-10
-1.63264e-09
2.12954e-09
-7.7068e-12
3.05785e-10
4.71976e-09
-1.16555e-09
-3.86001e-09
-1.65319e-09
4.1345e-09
1.95437e-10
-2.67675e-09
4.45776e-10
2.86889e-09
-3.40787e-09
9.32427e-11
2.54259e-09
2.88474e-09
-3.36029e-09
-2.06704e-09
1.44123e-08
1.58577e-09
-6.71317e-09
-9.28491e-09
1.34899e-09
-3.82838e-09
2.65682e-09
-1.7745e-10
-4.57187e-09
1.34872e-09
3.26357e-09
-4.04066e-11
2.29563e-09
-2.53211e-09
5.79142e-10
-3.42528e-10
-2.94137e-09
-1.65339e-09
-2.79523e-09
7.38998e-09
-2.48538e-09
3.46964e-09
-5.53419e-10
-4.30834e-10
-4.5502e-09
5.24208e-09
-1.95258e-09
-2.51419e-09
4.34497e-09
-1.69831e-09
-1.32473e-10
5.06983e-09
-1.50919e-09
7.00471e-11
-3.46444e-09
2.13089e-09
1.27736e-09
5.6204e-11
2.86185e-09
-1.18418e-09
1.17468e-09
-2.85222e-09
1.68531e-09
4.59387e-09
-2.61845e-10
-3.25904e-10
4.33515e-09
1.65997e-10
-9.43133e-10
4.04999e-09
7.38501e-11
-3.93884e-10
-4.47569e-09
5.18654e-09
-3.16992e-10
-4.25563e-09
1.53465e-09
2.67413e-09
4.67801e-11
1.28981e-09
-1.87786e-09
2.56531e-09
-1.97725e-09
-3.87322e-09
-3.86856e-09
9.0316e-09
-7.61934e-10
8.922e-10
3.53484e-09
-3.6651e-09
-2.12519e-09
-5.96681e-10
2.31502e-10
-4.78144e-09
5.03199e-09
-1.0167e-09
7.6611e-10
-3.83627e-09
2.84123e-09
5.26345e-09
-4.2684e-09
1.3262e-09
-2.98801e-09
-3.84364e-09
5.50547e-09
4.14256e-09
6.41069e-10
-3.89368e-09
-3.40526e-09
-1.15507e-09
3.77619e-09
6.07969e-09
-9.44328e-09
4.20198e-09
-1.28756e-09
-3.36898e-09
1.75963e-09
2.22441e-09
-2.06221e-10
-5.01721e-10
-1.41843e-09
-5.01926e-09
6.93941e-09
2.72693e-10
2.04297e-09
-5.23462e-09
-4.53979e-09
1.75679e-09
2.92469e-09
-1.41689e-10
-6.19668e-10
-1.27566e-09
2.01713e-09
-1.21763e-10
3.73474e-09
-6.15631e-09
1.84541e-09
5.76167e-10
4.13473e-09
-6.07601e-09
2.40393e-09
-4.62663e-10
-2.22498e-09
1.64741e-09
6.11684e-10
-3.41096e-11
-4.47186e-09
2.03241e-09
1.0578e-09
-1.52893e-09
3.33052e-09
3.83692e-09
-5.63845e-09
5.53225e-11
4.00813e-09
-3.73209e-09
-3.31356e-10
1.85066e-09
-1.73654e-09
-5.87695e-11
-7.2899e-09
-4.41428e-09
7.20294e-09
4.50125e-09
1.77293e-09
4.1691e-11
-1.95432e-09
1.39721e-10
9.93173e-10
2.22832e-09
-6.84489e-11
3.7269e-10
-1.16399e-09
-3.82346e-09
-2.3632e-10
1.4955e-09
6.51925e-11
2.98282e-09
-6.54355e-09
5.85636e-09
-4.53412e-09
-1.74947e-09
3.84655e-09
2.43703e-09
4.53852e-09
-1.49461e-09
-4.95672e-10
-2.54816e-09
-2.05545e-09
3.78088e-09
2.81313e-09
-6.27304e-09
5.10313e-09
-4.93381e-09
6.1037e-09
2.39357e-09
1.6913e-09
2.91218e-09
3.503e-09
-2.51476e-09
-9.61801e-10
-2.64287e-11
-4.98392e-09
5.503e-09
-5.72056e-10
5.297e-11
3.26692e-09
-1.18357e-09
1.54505e-09
-3.62841e-09
-2.97596e-09
8.80101e-10
2.38671e-09
-2.9086e-10
1.7708e-09
2.72176e-10
-2.07538e-09
3.25016e-11
7.20027e-09
8.41427e-10
1.34437e-09
-9.38608e-09
-3.61176e-09
4.93829e-09
-2.37564e-09
1.21447e-09
2.21764e-09
-5.6591e-09
2.22697e-09
3.06302e-09
-2.32735e-09
-1.85856e-09
1.12282e-09
6.36266e-09
-2.46398e-09
-6.26583e-09
2.36717e-09
-6.38992e-09
2.56606e-09
3.72732e-09
9.65405e-11
3.40263e-10
-2.32094e-09
1.98095e-09
-2.78728e-13
-4.41776e-09
1.75046e-09
6.64771e-09
-7.27329e-09
7.39115e-09
5.45334e-11
-1.72384e-10
3.07459e-09
-1.33383e-08
8.13062e-10
9.45066e-09
1.86549e-09
-3.04941e-09
1.53135e-09
-3.47428e-10
-1.44891e-09
-2.07324e-09
3.61397e-09
-9.18454e-11
-2.45306e-09
-1.75084e-09
4.30643e-09
-1.02545e-10
-1.56798e-11
-2.04028e-09
2.09106e-09
-3.51043e-11
-4.5212e-09
2.83014e-09
1.73615e-09
-4.50847e-11
-6.52898e-09
4.92644e-10
6.09986e-09
-6.35263e-11
-5.33235e-09
2.66904e-09
8.59343e-09
3.33209e-09
-7.45412e-10
2.29443e-09
-4.8811e-09
-5.36321e-09
1.70467e-09
3.93326e-09
-2.74688e-10
5.20739e-10
-3.83116e-09
3.57069e-11
3.62876e-09
-2.54967e-10
-3.26574e-09
-1.08036e-10
7.99481e-11
4.90256e-09
-2.57306e-09
-4.26733e-09
5.68837e-09
-3.21749e-09
1.79645e-09
6.2484e-09
6.38231e-09
-7.41757e-09
-5.21315e-09
-2.39727e-09
1.28031e-09
1.37378e-09
-2.56775e-10
-5.03985e-09
-1.80872e-09
1.87784e-09
2.2221e-09
-2.0563e-09
-1.43743e-09
1.27162e-09
1.21576e-09
-4.19301e-10
-8.11194e-10
1.46282e-11
3.50314e-09
-1.34578e-09
-2.07452e-09
-8.28444e-11
-3.42838e-09
2.42753e-09
1.32318e-09
-3.22309e-10
-7.22437e-10
2.00346e-09
2.48123e-09
-3.76226e-09
3.93347e-09
2.51274e-09
-1.46719e-09
2.46326e-09
-2.87232e-09
-4.82637e-11
-4.10622e-09
6.48653e-10
3.69881e-09
-2.41205e-10
3.95484e-10
3.2227e-09
-8.93509e-10
-2.72463e-09
-1.49673e-09
6.96721e-09
-1.13198e-09
-4.33849e-09
2.479e-09
-2.40498e-09
-5.21212e-09
5.13811e-09
1.17537e-09
-2.30812e-09
-1.48915e-09
3.65458e-09
-1.27494e-10
-2.03795e-09
-2.98307e-09
1.56146e-09
1.30864e-09
1.12916e-10
4.96098e-09
-1.01936e-09
-6.71612e-09
2.77458e-09
1.73645e-09
-2.677e-09
7.40434e-10
2.00162e-10
5.18844e-09
-3.60345e-09
3.0856e-10
-3.88428e-09
2.04553e-09
1.53022e-09
4.62798e-09
-1.16575e-09
1.76171e-09
-6.14257e-09
5.48623e-10
-1.61531e-09
2.51827e-09
-3.79307e-09
1.28824e-09
-1.34613e-11
1.23919e-09
3.31146e-09
-4.81242e-09
2.61823e-10
-7.27538e-09
-4.78541e-09
6.94403e-09
5.11677e-09
4.65224e-09
2.37025e-09
-4.49221e-09
-1.07825e-09
2.70927e-09
1.04117e-10
-5.60938e-09
-4.48881e-09
7.67869e-09
2.4195e-09
6.58044e-10
-1.8469e-09
-3.87256e-11
6.08992e-09
-3.63988e-09
-2.44909e-09
7.35368e-09
-7.23917e-09
-4.20695e-10
3.06239e-10
-4.59194e-09
4.31135e-09
2.52457e-09
-6.52139e-09
5.69396e-09
-1.69714e-09
6.67907e-10
-2.68828e-09
1.95447e-09
6.58849e-11
-8.42341e-09
8.0723e-09
-6.53313e-09
5.45366e-09
-1.19415e-09
2.27363e-09
-4.15955e-09
-9.72968e-10
1.59384e-09
3.53865e-09
-4.00882e-09
2.74468e-09
1.26536e-09
-1.20037e-12
1.68847e-09
-4.36008e-09
2.55042e-09
1.21626e-10
2.47409e-09
-4.57776e-09
-4.10539e-10
2.63788e-09
-6.51909e-11
-2.54269e-09
-2.99192e-11
1.78485e-09
-1.96256e-09
2.37258e-10
-5.95768e-11
7.09883e-09
-5.07544e-09
-1.19371e-09
-8.2967e-10
-6.72721e-09
2.1043e-09
-1.66576e-09
6.28864e-09
3.10131e-09
-4.81017e-09
-2.66436e-10
-1.12456e-09
-9.08308e-09
4.6246e-09
5.58308e-09
-3.51331e-09
4.49706e-09
-8.33888e-10
-6.96284e-09
5.42809e-09
4.73207e-09
3.54526e-10
-1.72679e-09
-1.13469e-10
-1.05811e-10
2.79543e-09
-4.82927e-09
1.93585e-09
9.78274e-11
6.23508e-09
6.76401e-10
-7.90689e-10
-2.22841e-09
4.77964e-09
4.54765e-09
3.35957e-09
-1.81409e-09
-4.50829e-09
2.96281e-09
3.03441e-09
-3.90686e-09
-7.06759e-11
4.37557e-09
-3.29593e-09
6.35991e-11
2.15233e-09
6.56657e-09
-8.7246e-09
5.73528e-12
4.79455e-09
7.60433e-09
2.90567e-09
4.09969e-09
-7.75413e-09
7.48764e-10
1.71091e-10
-4.39859e-09
4.28093e-09
-5.34194e-11
4.7116e-09
-4.50976e-09
-3.07479e-11
6.20899e-09
-2.54351e-09
-3.609e-09
-5.64567e-11
2.60198e-09
1.23489e-10
-4.16288e-09
-3.34561e-09
2.9796e-09
4.52888e-09
-4.41073e-10
-2.1083e-09
-2.54128e-09
5.09066e-09
-3.24175e-09
-9.34362e-10
4.08931e-09
8.67918e-11
8.67381e-10
-1.54076e-09
-4.89194e-09
5.56533e-09
-1.78023e-09
5.4793e-09
-8.56665e-09
4.86765e-09
2.33467e-09
1.48999e-09
-3.21634e-10
1.1795e-08
-2.0388e-09
-2.61936e-09
-7.1369e-09
8.04837e-10
1.00356e-08
-7.23261e-09
-3.60781e-09
-1.56535e-09
4.75275e-09
-1.81763e-10
-3.00567e-09
9.59791e-09
1.11231e-09
-3.66356e-09
-7.04666e-09
4.38956e-10
6.97705e-09
3.01736e-09
-4.98681e-09
-5.00575e-09
3.35738e-09
2.08003e-09
-8.36573e-09
6.09631e-09
2.44299e-09
-5.8689e-10
-2.73801e-09
-8.88449e-09
-3.88985e-09
2.09104e-09
1.06833e-08
1.0191e-08
-3.53264e-09
2.59085e-09
-9.24928e-09
3.69875e-09
-7.51064e-09
2.15477e-09
1.65713e-09
5.35843e-09
3.50912e-09
-6.00328e-09
-2.86427e-09
1.11907e-08
-7.3642e-09
-2.80584e-09
-1.02067e-09
4.90352e-09
-3.0191e-09
-8.01691e-09
6.13244e-09
6.09588e-09
-4.42314e-09
2.7221e-09
-4.39487e-09
-4.81061e-09
1.2146e-08
-9.46569e-09
2.13028e-09
9.85631e-09
3.90488e-09
-1.10743e-08
-2.68691e-09
-7.23034e-09
3.05204e-09
-4.9556e-09
9.13388e-09
-5.80714e-10
-8.38512e-09
-7.88729e-09
9.92407e-09
-1.34679e-09
-6.89985e-10
-1.675e-09
1.05018e-08
-2.07536e-09
-6.75148e-09
-6.77287e-09
2.4032e-10
1.01673e-08
-3.6347e-09
-4.1892e-09
9.1855e-09
-7.07897e-09
2.08265e-09
4.06725e-09
-7.79461e-09
6.13188e-09
-2.4045e-09
4.36929e-09
-1.93755e-09
8.8001e-09
-1.12319e-08
-9.06116e-09
-4.30228e-09
2.05927e-09
1.13042e-08
-7.80796e-09
3.54086e-09
1.05482e-08