/*--------------------------------*- C++ -*----------------------------------*\
| =========                 |                                                 |
| \\      /  F ield         | OpenFOAM: The Open Source CFD Toolbox           |
|  \\    /   O peration     | Version:  v1612+                                |
|   \\  /    A nd           | Web:      www.OpenFOAM.com                      |
|    \\/     M anipulation  |                                                 |
\*---------------------------------------------------------------------------*/
FoamFile
{
    version     2.0;
    format      ascii;
    class       volVectorField;
    location    "166";
    object      U;
}
// * * * * * * * * * * * * * * * * * * * * * * * * * * * * * * * * * * * * * //

dimensions      [0 1 -1 0 0 0 0];

internalField   nonuniform List<vector> 
16967
(
(0.0188739 0.645062 0.408389)
(0.0998961 0.792207 0.455478)
(0.0589844 0.779337 0.467103)
(0.0804185 0.779316 0.458778)
(0.107911 0.796923 0.458566)
(0.134354 0.779667 0.457553)
(0.146148 0.638565 0.410023)
(0.0797449 0.802365 0.469157)
(0.153853 0.736351 0.449844)
(0.183704 0.717266 0.440665)
(0.16288 0.67155 0.421134)
(0.107584 0.78579 0.457616)
(0.0610726 0.724038 0.441261)
(0.0588322 0.6094 0.36852)
(0.099741 0.708031 0.433333)
(0.105624 0.600815 0.385243)
(0.0685194 0.702989 0.42165)
(0.0683397 0.635094 0.379085)
(0.0678458 0.598001 0.37152)
(-0.0494908 0.808132 0.323088)
(-0.0338595 0.820196 0.338145)
(-0.0430513 0.803049 0.310775)
(-0.0151041 0.817668 0.31814)
(-0.0595123 0.797307 0.329734)
(-0.0482484 0.807824 0.342069)
(-0.00708805 0.82268 0.33935)
(0.00314302 0.803247 0.329254)
(-0.0236843 0.799625 0.334571)
(0.00886457 0.80799 0.344573)
(-0.00875402 0.793747 0.346651)
(-0.0255336 0.812205 0.336316)
(-0.0475819 0.80002 0.340673)
(-0.0442011 0.809962 0.345102)
(-0.025619 0.799073 0.341338)
(-0.0378986 0.798264 0.354443)
(0.0640078 0.830551 0.453719)
(0.101232 0.842161 0.439544)
(0.0371414 0.844242 0.46817)
(0.0924429 0.889729 0.444207)
(0.0570345 0.876353 0.464582)
(0.0852245 0.84379 0.461324)
(0.115947 0.8371 0.444947)
(0.0948442 0.852335 0.423377)
(0.12533 0.870266 0.421724)
(0.141591 0.852214 0.385608)
(0.129937 0.849746 0.411929)
(0.142616 0.859122 0.393291)
(0.148573 0.862902 0.401466)
(0.147136 0.861861 0.409439)
(0.156741 0.862998 0.411628)
(0.0614569 0.853968 0.472523)
(0.106711 0.835242 0.455767)
(0.0837371 0.865284 0.382697)
(0.109603 0.860281 0.381851)
(0.139845 0.852097 0.423098)
(0.124772 0.861896 0.387553)
(0.0927651 0.855472 0.400714)
(0.0759756 0.861565 0.404728)
(-0.00339795 0.767261 0.393312)
(-0.0163365 0.786591 0.398723)
(-0.0118993 0.754849 0.392848)
(-0.0162429 0.770758 0.405806)
(-0.0154087 0.78551 0.409486)
(-0.0200602 0.800621 0.369883)
(-0.00162429 0.778525 0.361201)
(-0.0351344 0.780592 0.352376)
(-0.0558428 0.79815 0.366659)
(-0.0805243 0.800604 0.362326)
(-0.0261041 0.78631 0.347411)
(-0.0524776 0.813234 0.345835)
(-0.0505434 0.809408 0.379987)
(-0.048967 0.750799 0.376864)
(-0.013356 0.734409 0.393315)
(-0.0669194 0.773022 0.349105)
(-0.0741213 0.767879 0.358499)
(-0.0192639 0.761351 0.375411)
(-0.0646179 0.815462 0.374334)
(-0.0236158 0.758461 0.356304)
(-0.128188 0.816531 0.415363)
(-0.106384 0.821497 0.429071)
(-0.114233 0.821836 0.411732)
(-0.0684961 0.82861 0.381239)
(-0.099174 0.852161 0.42899)
(-0.0816302 0.843059 0.4014)
(-0.191627 0.790101 0.444241)
(-0.166712 0.809833 0.431992)
(-0.147244 0.786275 0.45966)
(-0.100389 0.784842 0.409217)
(-0.176078 0.794137 0.445973)
(-0.116718 0.776273 0.365147)
(-0.212469 0.806199 0.440757)
(-0.178366 0.789029 0.474652)
(-0.114218 0.778078 0.415202)
(-0.1926 0.777071 0.459739)
(-0.122166 0.792118 0.423823)
(-0.169212 0.79762 0.42367)
(-0.104229 0.777921 0.3848)
(-0.165638 0.768258 0.446619)
(0.421305 0.703513 0.334133)
(0.402091 0.681315 0.319588)
(0.405937 0.741323 0.367487)
(0.393618 0.743941 0.370128)
(0.417127 0.66545 0.315859)
(0.399015 0.630566 0.29559)
(0.399447 0.688953 0.326996)
(0.404015 0.74787 0.389482)
(0.414087 0.698479 0.353376)
(0.38047 0.748225 0.375205)
(0.394813 0.746109 0.378736)
(0.375977 0.668551 0.307599)
(0.37237 0.695826 0.334198)
(0.378749 0.63257 0.295475)
(0.371442 0.675774 0.323128)
(0.377614 0.656497 0.314619)
(0.395246 0.700484 0.348173)
(0.151723 0.637692 0.396353)
(0.15864 0.537376 0.358255)
(0.160855 0.579512 0.394222)
(0.178572 0.563025 0.394983)
(0.107089 0.602101 0.384451)
(0.161753 0.620396 0.391906)
(0.165775 0.630729 0.398033)
(0.179203 0.540702 0.388011)
(0.186881 0.512246 0.390938)
(0.128923 0.555202 0.374053)
(0.115153 0.507725 0.346773)
(0.147888 0.445385 0.348777)
(0.0906061 0.575414 0.375554)
(0.0189902 0.717105 0.307323)
(0.0376269 0.702058 0.289821)
(0.019842 0.734617 0.31029)
(0.0220582 0.735572 0.316197)
(-0.00618746 0.766863 0.336748)
(0.00702728 0.781446 0.338184)
(0.0292168 0.711496 0.298362)
(0.0313933 0.705551 0.287714)
(0.0298297 0.742474 0.304751)
(0.00613 0.779164 0.336175)
(0.0224059 0.737471 0.320376)
(0.0196873 0.79765 0.339784)
(0.0138692 0.797917 0.332176)
(0.0521127 0.725034 0.293897)
(0.0623483 0.680201 0.263325)
(0.0595318 0.73425 0.2898)
(0.0686076 0.696482 0.27043)
(0.0630123 0.761548 0.308949)
(0.0627809 0.764276 0.301321)
(0.042175 0.75159 0.313274)
(0.0423779 0.730164 0.284622)
(0.0565369 0.751731 0.291428)
(0.0510442 0.790414 0.323743)
(0.0460441 0.781376 0.333385)
(0.0321451 0.780976 0.331886)
(0.0336589 0.792212 0.327267)
(0.182955 0.70871 0.352803)
(0.188625 0.693896 0.334716)
(0.19099 0.701432 0.328208)
(0.172792 0.775987 0.354918)
(0.205492 0.705565 0.330179)
(0.210986 0.715471 0.340649)
(0.186159 0.770862 0.348964)
(0.17209 0.788317 0.354007)
(0.193033 0.769102 0.353259)
(0.20367 0.75117 0.368677)
(0.196134 0.779249 0.368457)
(0.233755 0.807827 0.369683)
(0.298572 0.71413 0.304099)
(0.298623 0.640656 0.277593)
(0.232049 0.787549 0.367902)
(0.219521 0.793331 0.361127)
(0.259912 0.709219 0.325013)
(0.275135 0.686578 0.310235)
(0.308986 0.655778 0.328426)
(0.307587 0.678713 0.339523)
(0.327608 0.618064 0.31058)
(0.296344 0.67428 0.324741)
(0.290147 0.657825 0.309601)
(0.310035 0.6378 0.279937)
(0.292529 0.711221 0.338493)
(0.525736 0.568634 0.377556)
(0.526606 0.502229 0.364937)
(0.527015 0.541835 0.386602)
(0.516889 0.550506 0.400855)
(0.531182 0.538613 0.355691)
(0.516951 0.61463 0.394825)
(0.513041 0.603112 0.398269)
(0.528586 0.616377 0.374329)
(0.465858 0.688158 0.418853)
(0.489294 0.721993 0.414149)
(0.544739 0.609718 0.385796)
(0.548305 0.588625 0.374777)
(0.537239 0.53813 0.402058)
(0.551026 0.591359 0.37186)
(0.456052 0.669062 0.428148)
(0.423892 0.695583 0.438164)
(0.4703 0.682166 0.430007)
(0.471423 0.703905 0.426409)
(0.484747 0.680028 0.423546)
(0.456611 0.63407 0.42045)
(0.475491 0.652474 0.43186)
(0.479819 0.617995 0.432821)
(0.315716 0.59287 0.413152)
(0.302542 0.620399 0.420674)
(0.308473 0.550435 0.397243)
(0.309568 0.525704 0.39873)
(0.419008 0.642333 0.434602)
(0.35881 0.6304 0.421613)
(0.393279 0.657691 0.44318)
(0.358107 0.66876 0.422576)
(0.344499 0.625137 0.427185)
(0.337952 0.576654 0.411672)
(0.393341 0.647527 0.433438)
(0.356751 0.697546 0.424667)
(0.372639 0.677523 0.432974)
(0.423669 0.592684 0.422387)
(0.361169 0.51903 0.404814)
(0.388491 0.526706 0.42123)
(0.423787 0.615228 0.424898)
(0.308148 0.614925 0.411324)
(0.358912 0.634186 0.421537)
(0.38212 0.592667 0.412222)
(0.303237 0.785885 0.500731)
(0.309097 0.778484 0.500374)
(0.253585 0.795157 0.510509)
(0.280007 0.7777 0.504714)
(0.265438 0.756288 0.486223)
(0.251608 0.77435 0.49471)
(0.278626 0.766354 0.494184)
(0.233192 0.774445 0.494419)
(0.234555 0.771664 0.485355)
(0.269087 0.775945 0.481397)
(0.26712 0.78599 0.494807)
(0.208167 0.801622 0.503792)
(0.237095 0.772832 0.492583)
(0.206563 0.813803 0.485999)
(0.0839491 0.869672 0.451773)
(0.0876421 0.863347 0.450314)
(0.232023 0.801276 0.434954)
(0.240058 0.800067 0.417904)
(0.250426 0.820099 0.440556)
(0.0929617 0.878068 0.462362)
(0.111861 0.866515 0.457524)
(0.168006 0.881393 0.446585)
(0.197622 0.874187 0.450474)
(0.155437 0.86997 0.454438)
(0.229791 0.816814 0.43342)
(0.248717 0.82943 0.458311)
(0.203983 0.849516 0.452435)
(0.175552 0.84344 0.468887)
(0.194017 0.872233 0.457653)
(0.171232 0.876613 0.45463)
(0.175386 0.85194 0.443736)
(0.173924 0.851114 0.44468)
(0.2171 0.794261 0.406773)
(0.213185 0.791819 0.397975)
(0.208767 0.806925 0.401136)
(0.183545 0.806741 0.397242)
(0.199753 0.813054 0.415787)
(0.228992 0.806924 0.37738)
(0.215441 0.799969 0.373729)
(0.186072 0.832423 0.421165)
(0.163143 0.833658 0.420089)
(0.178099 0.820573 0.384132)
(0.199127 0.823363 0.392655)
(0.226119 0.813656 0.388525)
(0.188377 0.819068 0.416615)
(0.193094 0.828033 0.419028)
(0.172816 0.831914 0.425463)
(0.170066 0.812361 0.42672)
(0.227428 0.812356 0.380314)
(0.230481 0.796775 0.371759)
(0.184482 0.82522 0.390657)
(0.181156 0.820648 0.396763)
(0.176226 0.814473 0.386894)
(0.194679 0.792912 0.387557)
(-0.0342119 0.758419 0.422853)
(-0.0632297 0.80634 0.484429)
(-0.0917016 0.753468 0.456997)
(-0.0813465 0.791339 0.470322)
(-0.0525899 0.901427 0.511794)
(-0.0668864 0.742582 0.446425)
(-0.0120467 0.732577 0.44913)
(0.00183011 0.704986 0.424546)
(-0.0498451 0.807909 0.478081)
(-0.0295593 0.756282 0.438428)
(-0.0183292 0.74022 0.460068)
(-0.0111829 0.714239 0.416565)
(-0.0242382 0.594176 0.384268)
(-0.0435243 0.747312 0.455234)
(-0.0105634 0.683538 0.379089)
(-0.0300364 0.735947 0.442613)
(-0.00342396 0.68199 0.409272)
(-0.0361865 0.697159 0.394085)
(-0.0234508 0.667966 0.355617)
(-0.070172 0.760256 0.402225)
(-0.0878079 0.766494 0.40649)
(-0.080032 0.753535 0.40617)
(-0.05489 0.746861 0.397413)
(-0.00326797 0.725252 0.421681)
(-0.0238759 0.723491 0.419763)
(-0.0140388 0.731874 0.420751)
(0.0284672 0.725749 0.423927)
(0.0175451 0.724356 0.418221)
(0.00731309 0.708764 0.42598)
(0.000844649 0.70804 0.428084)
(0.0271077 0.707577 0.423174)
(-0.0397145 0.764586 0.412145)
(0.00814049 0.737864 0.420523)
(-0.0126101 0.776252 0.420918)
(-0.0456562 0.781422 0.417765)
(-0.0475103 0.739306 0.425167)
(0.0289328 0.718505 0.428031)
(0.0127523 0.759563 0.427825)
(0.0452964 0.759091 0.349821)
(0.00645177 0.772168 0.33903)
(0.0185582 0.767708 0.350676)
(0.0425108 0.77909 0.333615)
(0.0275111 0.768576 0.350156)
(0.0403737 0.739429 0.35546)
(0.0234982 0.754269 0.350605)
(0.010976 0.750801 0.352871)
(0.0169741 0.78299 0.334542)
(0.0492798 0.750137 0.33733)
(0.0525014 0.753003 0.328264)
(0.0607751 0.768083 0.332161)
(0.0435641 0.749549 0.336465)
(-0.034007 0.661899 0.390827)
(-0.0502185 0.72563 0.421259)
(0.00668303 0.802506 0.470952)
(0.00315768 0.752506 0.456512)
(0.000309802 0.641392 0.412811)
(-0.0249302 0.687408 0.42112)
(-0.0833827 0.762107 0.473022)
(-0.00485881 0.69515 0.42516)
(-0.00976213 0.67296 0.406906)
(-0.012692 0.858079 0.492193)
(-0.0224729 0.781844 0.471179)
(-0.0382527 0.833346 0.496539)
(-0.0446961 0.817383 0.487417)
(-0.00679733 0.822008 0.345773)
(0.0138645 0.803274 0.329031)
(-0.00303945 0.77939 0.33891)
(-0.0309209 0.830414 0.339015)
(-0.000392279 0.807319 0.328554)
(-0.0170351 0.801606 0.314722)
(-0.00499377 0.795447 0.318528)
(0.178676 0.71587 0.453839)
(0.193071 0.703326 0.448417)
(0.180425 0.665204 0.431489)
(0.16917 0.684806 0.430869)
(0.14229 0.745072 0.449801)
(0.161847 0.745167 0.446569)
(0.148697 0.710509 0.431667)
(0.139736 0.706462 0.433267)
(0.0946399 0.796808 0.456281)
(0.120164 0.795142 0.446461)
(0.12186 0.739078 0.431336)
(0.11084 0.749806 0.438618)
(0.140889 0.781644 0.461331)
(0.076835 0.78 0.451655)
(0.0623711 0.79322 0.44517)
(0.108788 0.763126 0.439546)
(0.11779 0.763886 0.447761)
(0.249997 0.792546 0.496701)
(0.269998 0.771776 0.521062)
(0.224063 0.793899 0.489149)
(0.280287 0.779399 0.494924)
(0.267066 0.782468 0.515088)
(0.269312 0.794091 0.51268)
(0.284759 0.794031 0.521095)
(0.229564 0.821144 0.510797)
(0.244836 0.815652 0.526017)
(0.217863 0.802641 0.481089)
(0.225811 0.786112 0.529393)
(0.234875 0.800599 0.495833)
(0.293067 0.776397 0.507571)
(0.314306 0.764948 0.525016)
(0.30214 0.780921 0.535459)
(0.233812 0.807428 0.508673)
(0.217765 0.797449 0.505909)
(0.207463 0.803224 0.498349)
(0.287431 0.791771 0.529171)
(0.347648 0.788019 0.422243)
(0.413954 0.695621 0.413888)
(0.383195 0.710118 0.426502)
(0.359284 0.698851 0.430928)
(0.391323 0.686271 0.429182)
(0.428055 0.690125 0.414424)
(0.352152 0.707063 0.416035)
(0.315705 0.750914 0.427329)
(0.36768 0.773496 0.398902)
(0.404918 0.712769 0.399864)
(0.299016 0.756987 0.436672)
(0.303521 0.736893 0.426968)
(0.329501 0.769136 0.426689)
(0.342924 0.778293 0.436224)
(0.415528 0.69785 0.420151)
(0.334248 0.774987 0.432837)
(0.390085 0.775513 0.411358)
(0.398573 0.769828 0.411311)
(0.203857 0.709768 0.411698)
(0.218603 0.769074 0.4142)
(0.205127 0.64502 0.410855)
(0.171407 0.69473 0.413402)
(0.297144 0.521328 0.377917)
(0.314956 0.560176 0.376511)
(0.263714 0.71587 0.415731)
(0.22325 0.69255 0.39979)
(0.232679 0.594801 0.386974)
(0.279522 0.578884 0.362922)
(0.346426 0.570045 0.362078)
(0.316146 0.472342 0.345044)
(0.251791 0.560753 0.395286)
(0.307668 0.614915 0.36718)
(0.303756 0.53205 0.340546)
(0.327739 0.648186 0.371864)
(0.298456 0.5213 0.361401)
(0.303286 0.800445 0.427045)
(0.303924 0.831455 0.403706)
(0.277493 0.824355 0.420509)
(0.252495 0.819818 0.460994)
(0.258205 0.82148 0.465268)
(0.306597 0.817001 0.41628)
(0.322548 0.813774 0.40471)
(0.25331 0.794942 0.449577)
(0.288166 0.816094 0.468027)
(0.238855 0.798098 0.454124)
(0.30869 0.827824 0.41307)
(0.321619 0.809235 0.427516)
(0.314338 0.809195 0.435294)
(0.345789 0.805689 0.416817)
(0.287413 0.810354 0.432013)
(0.318026 0.815025 0.439367)
(0.30624 0.82143 0.442194)
(0.337687 0.810383 0.435431)
(0.334828 0.781131 0.352846)
(0.34301 0.782596 0.351725)
(0.318009 0.7575 0.333422)
(0.326037 0.76599 0.333809)
(0.341893 0.758564 0.34143)
(0.312913 0.684086 0.286964)
(0.320914 0.71148 0.311357)
(0.352716 0.755226 0.336892)
(0.36046 0.73976 0.329777)
(0.361974 0.686875 0.288545)
(0.372306 0.691808 0.297766)
(0.326346 0.702982 0.289637)
(0.325644 0.72921 0.30975)
(0.34299 0.719726 0.315983)
(0.32371 0.686774 0.292961)
(0.320808 0.642528 0.268547)
(0.376855 0.671563 0.280133)
(0.366844 0.646685 0.26328)
(0.358433 0.707213 0.286162)
(0.350162 0.681204 0.275121)
(0.368298 0.708654 0.295593)
(0.337417 0.672636 0.263431)
(-0.0610406 0.680214 0.39786)
(-0.0647036 0.726595 0.373854)
(-0.0963506 0.72206 0.37709)
(-0.0707821 0.716433 0.375461)
(-0.112034 0.696966 0.389012)
(-0.112858 0.711674 0.413442)
(-0.0794622 0.637165 0.352786)
(-0.0994159 0.709424 0.364513)
(-0.0896342 0.702189 0.380879)
(-0.045097 0.61368 0.330059)
(0.467907 0.588783 0.430875)
(0.437528 0.554964 0.431018)
(0.450924 0.556432 0.43051)
(0.492315 0.44931 0.396092)
(0.492431 0.425778 0.376872)
(0.483625 0.473623 0.393885)
(0.502432 0.47752 0.407403)
(0.458145 0.569654 0.432068)
(0.527652 0.476297 0.399968)
(0.538305 0.514094 0.38936)
(0.518981 0.477258 0.36575)
(0.428868 0.590989 0.424127)
(0.493852 0.515844 0.409294)
(0.0267329 0.799252 0.324842)
(0.0300042 0.813225 0.319541)
(0.00285609 0.792782 0.31749)
(0.0105417 0.80517 0.329656)
(0.038233 0.794794 0.328489)
(0.0367705 0.786251 0.31759)
(-0.0102442 0.764624 0.339684)
(0.00758226 0.741516 0.343311)
(0.0110361 0.725693 0.32104)
(0.0247491 0.70533 0.311739)
(0.0201706 0.763165 0.339935)
(0.0200819 0.760293 0.338765)
(0.0309626 0.75093 0.333932)
(0.331351 0.338621 0.389448)
(0.255238 0.296461 0.362954)
(0.240773 0.30336 0.356791)
(0.220694 0.354222 0.340887)
(0.2511 0.392003 0.369128)
(0.316852 0.440824 0.399417)
(0.274053 0.268967 0.357679)
(0.264001 0.269621 0.353974)
(0.285369 0.42241 0.391022)
(0.257806 0.379738 0.370546)
(-0.162706 0.66055 0.399675)
(-0.129277 0.675155 0.417204)
(-0.136721 0.6741 0.410192)
(-0.16373 0.673071 0.377746)
(-0.183587 0.667746 0.384961)
(-0.13225 0.669503 0.432262)
(-0.163256 0.663603 0.409779)
(-0.153666 0.663795 0.427097)
(-0.168581 0.672399 0.415573)
(-0.148692 0.66314 0.412806)
(-0.162827 0.690517 0.367639)
(-0.143958 0.676717 0.412447)
(-0.137678 0.670611 0.415859)
(-0.131408 0.681732 0.407626)
(-0.143803 0.686645 0.392939)
(-0.133521 0.65329 0.420485)
(-0.162456 0.685506 0.397619)
(-0.1726 0.681748 0.390815)
(-0.129916 0.673069 0.425822)
(-0.136213 0.661877 0.425727)
(-0.0148212 0.602004 0.403811)
(-0.0244781 0.636499 0.41595)
(-0.0256677 0.605024 0.403646)
(-0.012679 0.557956 0.380965)
(-0.0467342 0.670571 0.431586)
(-0.0397864 0.626423 0.416499)
(-0.0597472 0.668845 0.429014)
(-0.0597919 0.668428 0.434603)
(-0.0337284 0.633961 0.422442)
(-0.0444287 0.594217 0.408054)
(-0.0334297 0.562959 0.38813)
(-0.076508 0.658592 0.43387)
(-0.0481735 0.612076 0.422983)
(-0.0530363 0.61872 0.41821)
(-0.0484061 0.588656 0.40668)
(-0.0788222 0.656679 0.436441)
(0.277489 0.781819 0.417277)
(0.264534 0.740056 0.403483)
(0.282376 0.731171 0.383447)
(0.24284 0.738485 0.396707)
(0.243523 0.757138 0.397911)
(0.253311 0.754867 0.397796)
(0.210188 0.786086 0.41795)
(0.235132 0.815166 0.414172)
(0.220683 0.76668 0.416253)
(0.176517 0.825196 0.448585)
(0.1493 0.849215 0.44417)
(-0.0621192 0.642289 0.426454)
(-0.0876561 0.667234 0.431359)
(-0.0293393 0.691157 0.435245)
(-0.0432314 0.711772 0.443748)
(-0.00980866 0.647742 0.411368)
(0.00229725 0.575863 0.384766)
(-0.0581516 0.735147 0.450157)
(-0.0235212 0.670507 0.422806)
(-0.0479369 0.647099 0.415023)
(-0.0476974 0.708525 0.440248)
(-0.0905599 0.675249 0.443619)
(-0.0522189 0.626036 0.408745)
(-0.0790313 0.648372 0.42389)
(-0.00588994 0.594392 0.384455)
(-0.0765426 0.702107 0.440855)
(-0.0468939 0.622072 0.408145)
(-0.0531646 0.632609 0.424822)
(-0.0569376 0.606024 0.408388)
(-0.0620485 0.719663 0.446852)
(-0.0621834 0.567156 0.369491)
(-0.0344776 0.54682 0.367361)
(-0.00115513 0.543519 0.365133)
(-0.100225 0.715962 0.454217)
(-0.0973715 0.70555 0.452047)
(-0.0368191 0.596249 0.398334)
(0.352649 0.588168 0.418966)
(0.292258 0.623841 0.410418)
(0.264384 0.624038 0.415059)
(0.252862 0.71795 0.440452)
(0.27804 0.645953 0.40734)
(0.334755 0.755302 0.430961)
(0.228771 0.695826 0.424033)
(0.264429 0.713654 0.435079)
(0.0669454 0.814054 0.339734)
(0.093335 0.774986 0.303202)
(0.0846061 0.820521 0.34555)
(0.0714009 0.841459 0.365405)
(0.0412871 0.840863 0.359535)
(0.0581635 0.826268 0.329394)
(0.0763542 0.818615 0.314484)
(-0.00713988 0.857401 0.395296)
(0.00301568 0.873036 0.404917)
(-0.0041129 0.880339 0.407988)
(-0.0312803 0.866809 0.407749)
(0.0321638 0.825299 0.310236)
(0.0591118 0.819334 0.296758)
(0.0946319 0.805136 0.290588)
(0.0679967 0.845944 0.35631)
(-0.00996185 0.867039 0.36891)
(-0.0506782 0.876117 0.372194)
(-0.0386303 0.881572 0.379782)
(0.0503068 0.844052 0.304976)
(0.0732848 0.831252 0.30222)
(0.0401623 0.662006 0.419803)
(0.018526 0.671019 0.414551)
(0.0283867 0.627129 0.403205)
(0.0212178 0.642636 0.41613)
(0.00386209 0.64537 0.422768)
(-0.0374558 0.698168 0.437644)
(-0.04085 0.720221 0.4114)
(-0.0751936 0.712838 0.406064)
(-0.0672087 0.709709 0.404543)
(-0.0513032 0.737984 0.417219)
(-0.106833 0.735375 0.39972)
(-0.00597387 0.641027 0.421783)
(-0.0349366 0.720035 0.424547)
(-0.0262358 0.699688 0.430049)
(-0.0343695 0.710639 0.43028)
(-0.011087 0.722683 0.420685)
(-0.00652464 0.695798 0.425848)
(-0.156551 0.762302 0.495081)
(-0.131915 0.681435 0.451745)
(-0.0940358 0.722888 0.435227)
(-0.0798465 0.677522 0.42322)
(-0.160637 0.786077 0.501454)
(-0.0960882 0.665663 0.437454)
(-0.132458 0.803627 0.4755)
(-0.11447 0.711908 0.394231)
(-0.0865516 0.699867 0.39759)
(-0.117977 0.690942 0.409352)
(-0.151882 0.712816 0.387321)
(-0.148474 0.711761 0.377383)
(-0.1137 0.689529 0.39389)
(-0.101554 0.683858 0.403332)
(-0.0989198 0.668721 0.405081)
(-0.168593 0.714934 0.37417)
(-0.112351 0.703002 0.389155)
(-0.149377 0.711534 0.354731)
(-0.123531 0.698515 0.36676)
(-0.129296 0.705502 0.372043)
(-0.107345 0.678718 0.410341)
(-0.141016 0.683265 0.39384)
(0.300729 0.758036 0.364737)
(0.310725 0.748712 0.374425)
(0.306647 0.731504 0.358811)
(0.292041 0.724382 0.359337)
(0.292719 0.686985 0.334251)
(0.290125 0.665558 0.323937)
(0.335431 0.70111 0.349726)
(0.328879 0.655792 0.328103)
(0.296835 0.694427 0.356904)
(0.297173 0.680892 0.348689)
(0.303524 0.765008 0.374597)
(0.311272 0.75902 0.387245)
(0.315166 0.705838 0.335359)
(0.317511 0.682263 0.322603)
(0.305782 0.667052 0.312855)
(0.331236 0.717313 0.342413)
(0.319627 0.710931 0.371959)
(0.317404 0.749675 0.369214)
(0.304776 0.654783 0.32037)
(0.313644 0.689946 0.354846)
(0.301987 0.660095 0.343925)
(0.319977 0.743446 0.382171)
(0.342911 0.743709 0.381076)
(0.336447 0.751807 0.368627)
(0.218324 0.677217 0.452497)
(0.257436 0.776181 0.52499)
(0.245139 0.758516 0.505946)
(0.235288 0.735193 0.487905)
(0.265535 0.758418 0.49026)
(-0.185143 0.70901 0.393263)
(-0.186035 0.707502 0.391082)
(-0.216328 0.695131 0.36251)
(-0.18368 0.695111 0.384392)
(-0.228257 0.767602 0.372476)
(-0.195748 0.754759 0.379287)
(-0.220454 0.747645 0.389253)
(-0.189843 0.729621 0.395707)
(-0.263115 0.726814 0.380429)
(-0.277491 0.721501 0.330714)
(-0.269729 0.770313 0.349228)
(-0.263401 0.754883 0.351689)
(-0.195848 0.72497 0.369278)
(-0.269696 0.761346 0.371225)
(-0.286396 0.747115 0.319636)
(-0.308807 0.76434 0.328028)
(-0.16369 0.714067 0.324676)
(-0.188222 0.719956 0.338731)
(-0.188234 0.725483 0.359586)
(-0.184105 0.713636 0.335025)
(-0.197842 0.728944 0.344113)
(-0.146457 0.715377 0.388005)
(-0.129717 0.697814 0.40083)
(-0.198911 0.71528 0.362663)
(-0.185197 0.703935 0.340073)
(-0.1627 0.692133 0.369573)
(-0.152111 0.688223 0.396334)
(-0.152775 0.680628 0.40535)
(-0.158211 0.800162 0.381999)
(-0.139041 0.792109 0.387111)
(-0.0999301 0.776351 0.395461)
(-0.146338 0.807044 0.399669)
(-0.14913 0.803521 0.402251)
(-0.0616603 0.810878 0.409531)
(-0.0293577 0.802088 0.421097)
(-0.0700544 0.817082 0.418494)
(-0.125348 0.805837 0.395328)
(-0.101266 0.795087 0.396182)
(-0.0591544 0.795072 0.415208)
(-0.106317 0.780039 0.399784)
(-0.0485976 0.776948 0.403275)
(0.133771 0.79529 0.360087)
(0.138171 0.789349 0.353206)
(0.0931786 0.835502 0.408756)
(0.11544 0.827445 0.407641)
(0.125704 0.806412 0.367268)
(0.107137 0.816845 0.388864)
(0.130821 0.805096 0.390625)
(0.152343 0.781241 0.370608)
(0.124415 0.815522 0.394161)
(0.137634 0.843156 0.404739)
(0.151839 0.813791 0.380589)
(0.162249 0.809592 0.361577)
(0.16918 0.794444 0.358096)
(0.191091 0.819941 0.375676)
(0.157218 0.823798 0.364337)
(0.200314 0.805269 0.372419)
(0.162343 0.833906 0.351028)
(0.160078 0.824391 0.370047)
(0.156973 0.825477 0.390086)
(-0.337642 0.73601 0.413964)
(-0.293573 0.79121 0.387246)
(-0.311544 0.764506 0.413078)
(-0.312684 0.776173 0.392921)
(-0.351996 0.770295 0.359498)
(-0.340441 0.777589 0.396545)
(0.206887 0.811118 0.511708)
(0.255601 0.837548 0.5206)
(0.17596 0.819683 0.5019)
(0.214794 0.839222 0.499652)
(0.221515 0.809299 0.502289)
(0.175693 0.826119 0.486441)
(0.192951 0.802609 0.482158)
(0.226132 0.83513 0.515666)
(0.186745 0.821146 0.501717)
(-0.106697 0.779567 0.352893)
(-0.0923098 0.786655 0.354656)
(-0.0822819 0.773851 0.347228)
(-0.0837024 0.769979 0.348202)
(-0.0879714 0.791118 0.336934)
(-0.0765225 0.785578 0.321428)
(-0.0832113 0.778744 0.361379)
(-0.0855732 0.780487 0.353961)
(-0.0597907 0.794638 0.341818)
(-0.0495159 0.786337 0.356635)
(-0.0735461 0.805038 0.349118)
(-0.099653 0.802448 0.3641)
(-0.0798055 0.788532 0.32448)
(-0.0661338 0.787829 0.34624)
(-0.0572767 0.808368 0.337815)
(-0.0591257 0.794991 0.365492)
(-0.0455473 0.806481 0.346868)
(0.247955 0.508703 0.382818)
(0.258763 0.485834 0.389197)
(0.237968 0.432725 0.376569)
(0.235038 0.400186 0.374215)
(0.223076 0.63559 0.412153)
(0.24303 0.549233 0.381374)
(0.219899 0.595308 0.397998)
(0.190978 0.484164 0.364612)
(0.205623 0.597418 0.399715)
(0.185542 0.550098 0.377551)
(0.183537 0.446625 0.363545)
(0.152786 0.567685 0.3709)
(0.196388 0.482003 0.384588)
(0.22936 0.430577 0.372496)
(0.203032 0.833297 0.460011)
(0.249652 0.842955 0.445494)
(0.180593 0.867153 0.464992)
(0.220155 0.866452 0.466464)
(0.272914 0.792188 0.417245)
(0.307616 0.76688 0.409258)
(0.206531 0.886478 0.457309)
(0.210851 0.880303 0.428954)
(0.277232 0.794673 0.417495)
(0.2942 0.81434 0.440221)
(0.318342 0.812772 0.423072)
(0.306486 0.817068 0.409572)
(0.305897 0.813643 0.406354)
(0.315656 0.756797 0.385835)
(0.208513 0.893445 0.441346)
(0.231493 0.869287 0.451466)
(0.275089 0.823475 0.394276)
(0.146169 0.787184 0.23299)
(0.158613 0.787849 0.243033)
(0.13493 0.782279 0.242408)
(0.165093 0.755215 0.215022)
(0.0717168 0.859579 0.334692)
(0.15367 0.79107 0.234601)
(0.192822 0.778919 0.241477)
(0.19202 0.755807 0.218131)
(0.189295 0.848105 0.299484)
(0.150259 0.881904 0.346738)
(0.124751 0.806487 0.25452)
(0.15127 0.846693 0.267785)
(0.0723133 0.839388 0.310158)
(0.0631373 0.872519 0.352694)
(0.0599936 0.861782 0.344577)
(0.183769 0.832516 0.298523)
(0.20012 0.814421 0.267597)
(0.1924 0.784208 0.246332)
(0.114331 0.862494 0.331353)
(0.166827 0.838483 0.292296)
(0.0600666 0.822473 0.475675)
(0.0982718 0.828401 0.46563)
(0.108433 0.816928 0.447994)
(0.0725564 0.812747 0.464142)
(0.0709433 0.648076 0.410562)
(0.110137 0.640343 0.414896)
(0.0777192 0.710934 0.428611)
(0.113027 0.789992 0.42812)
(0.0586493 0.765061 0.452692)
(0.0205725 0.773321 0.45865)
(0.0786153 0.633095 0.406087)
(0.100816 0.638053 0.413276)
(0.147378 0.699155 0.418912)
(0.105453 0.679259 0.415659)
(0.0638288 0.710843 0.423945)
(0.124479 0.814554 0.479721)
(0.121058 0.823198 0.493314)
(0.119246 0.834129 0.493639)
(0.127128 0.810318 0.493117)
(0.123696 0.833363 0.489859)
(0.0984977 0.815307 0.490517)
(0.101443 0.805093 0.480914)
(0.0996981 0.808185 0.497895)
(0.117833 0.796902 0.465771)
(0.103524 0.792897 0.461803)
(0.0781827 0.845091 0.495729)
(0.102369 0.831886 0.474944)
(0.0705519 0.818915 0.488995)
(0.102148 0.804908 0.462086)
(0.0878372 0.804594 0.470316)
(0.0691517 0.763923 0.45274)
(0.0795049 0.78562 0.463535)
(0.0268417 0.816312 0.450199)
(0.0578862 0.796276 0.483245)
(0.0912355 0.797862 0.475635)
(0.293108 0.795798 0.415873)
(0.303637 0.771057 0.379318)
(0.324727 0.76302 0.36212)
(0.313615 0.786535 0.415996)
(0.295559 0.792252 0.401415)
(0.284014 0.778838 0.406443)
(0.328163 0.767033 0.382307)
(0.33121 0.760314 0.394376)
(0.34784 0.76149 0.391204)
(0.297294 0.780003 0.408295)
(0.341823 0.761478 0.372626)
(0.316641 0.760286 0.400446)
(0.343105 0.837805 0.365619)
(0.349534 0.804103 0.336761)
(0.174469 0.876454 0.422621)
(0.211782 0.890577 0.396031)
(0.329746 0.825643 0.365257)
(0.342774 0.842267 0.364755)
(0.312697 0.830383 0.367144)
(0.337415 0.828098 0.374152)
(0.323759 0.847179 0.361263)
(0.194358 0.866209 0.41531)
(0.219179 0.901921 0.419959)
(0.240041 0.890184 0.434322)
(0.237827 0.898525 0.45507)
(0.214581 0.897435 0.464756)
(0.252856 0.868541 0.398781)
(0.287577 0.861603 0.39125)
(0.26604 0.876997 0.418793)
(0.3074 0.859239 0.391736)
(0.15088 0.88207 0.452536)
(0.231871 0.890163 0.443429)
(0.225362 0.883631 0.452787)
(0.282732 0.880202 0.432188)
(0.207837 0.889128 0.437211)
(0.285989 0.890623 0.443326)
(0.198328 0.79429 0.4317)
(0.196513 0.803325 0.422471)
(0.255126 0.786067 0.403806)
(0.242841 0.778889 0.402998)
(0.209026 0.799223 0.434298)
(0.19805 0.793759 0.440227)
(0.197543 0.798054 0.439556)
(0.22071 0.819085 0.422404)
(0.228031 0.805043 0.406136)
(0.211653 0.815543 0.448322)
(0.169888 0.802514 0.454875)
(0.247512 0.797414 0.41705)
(0.252933 0.784293 0.39654)
(0.23988 0.801324 0.397681)
(-0.120875 0.763094 0.352935)
(-0.121992 0.774958 0.364135)
(-0.118804 0.76917 0.376856)
(-0.12851 0.759691 0.375064)
(-0.107211 0.757426 0.353586)
(-0.114078 0.731602 0.374075)
(-0.0854464 0.698593 0.322595)
(-0.0885348 0.73 0.343128)
(-0.106228 0.746981 0.372389)
(-0.0834559 0.730564 0.343609)
(-0.0953415 0.721962 0.356593)
(-0.0819279 0.691132 0.333983)
(-0.0664927 0.66967 0.314611)
(-0.102306 0.70753 0.353028)
(-0.0819019 0.720672 0.332979)
(-0.0631214 0.679347 0.30754)
(-0.0623494 0.692537 0.320796)
(-0.0743966 0.74178 0.336603)
(0.146222 0.851028 0.417046)
(0.154583 0.849306 0.397571)
(0.153869 0.856457 0.449196)
(0.148123 0.849851 0.427188)
(0.162378 0.838659 0.397885)
(0.107375 0.843837 0.434909)
(0.0617417 0.769597 0.401764)
(0.0637658 0.757064 0.408703)
(0.0983084 0.842989 0.461047)
(0.128263 0.810607 0.42421)
(0.0787144 0.768764 0.385101)
(0.107253 0.79899 0.379904)
(0.140036 0.840459 0.383326)
(0.101255 0.827409 0.398576)
(0.0755476 0.83493 0.463513)
(0.0584316 0.810709 0.470395)
(0.0624797 0.784361 0.435139)
(0.0869716 0.813092 0.467406)
(-0.155971 0.736225 0.322675)
(-0.141771 0.748996 0.323325)
(-0.127879 0.701092 0.399801)
(-0.146352 0.706945 0.371212)
(-0.125707 0.729288 0.35988)
(-0.126972 0.720749 0.381993)
(-0.161568 0.717307 0.30959)
(-0.113564 0.722721 0.369693)
(-0.105993 0.7131 0.38707)
(-0.143851 0.736567 0.32522)
(-0.136901 0.71836 0.358343)
(-0.161052 0.680554 0.339499)
(-0.158139 0.708036 0.33226)
(-0.216199 0.703338 0.382907)
(-0.18711 0.729293 0.344573)
(-0.18501 0.648398 0.275259)
(-0.12722 0.594638 0.219267)
(-0.147542 0.695575 0.255623)
(-0.116252 0.608973 0.211158)
(-0.127891 0.664342 0.251856)
(-0.15205 0.644596 0.274313)
(-0.11101 0.673537 0.230494)
(-0.121857 0.724625 0.266753)
(-0.184126 0.70877 0.325486)
(-0.184801 0.650777 0.313372)
(-0.161166 0.644659 0.284132)
(-0.214052 0.721318 0.349393)
(-0.214471 0.674406 0.363172)
(-0.165135 0.700961 0.282599)
(0.0516011 0.807336 0.327233)
(0.0681056 0.811524 0.319729)
(0.0536882 0.791264 0.324629)
(0.0813649 0.794936 0.317495)
(0.0669317 0.752372 0.306052)
(0.0844915 0.752353 0.304089)
(0.0626195 0.814965 0.325469)
(0.0712662 0.80286 0.326215)
(0.058932 0.787842 0.321894)
(0.092979 0.797809 0.321501)
(0.0984315 0.722019 0.27554)
(0.0762323 0.732648 0.278639)
(0.0974606 0.764574 0.293218)
(0.0705969 0.731806 0.293565)
(0.0855446 0.706012 0.274745)
(0.105772 0.75367 0.290269)
(0.0970497 0.73899 0.283267)
(0.101423 0.692893 0.257764)
(-0.0290068 0.591552 0.298098)
(-0.00753856 0.58116 0.232702)
(-0.00376827 0.590482 0.252782)
(-0.0360065 0.607507 0.322834)
(0.00410161 0.515438 0.243767)
(-0.0138156 0.573659 0.233808)
(-8.68326e-05 0.527748 0.214306)
(-0.0164128 0.525599 0.276565)
(-0.0517618 0.595348 0.300289)
(-0.0301363 0.53332 0.268401)