/*--------------------------------*- C++ -*----------------------------------*\
| =========                 |                                                 |
| \\      /  F ield         | OpenFOAM: The Open Source CFD Toolbox           |
|  \\    /   O peration     | Version:  v1612+                                |
|   \\  /    A nd           | Web:      www.OpenFOAM.com                      |
|    \\/     M anipulation  |                                                 |
\*---------------------------------------------------------------------------*/
FoamFile
{
    version     2.0;
    format      ascii;
    class       volVectorField;
    location    "50";
    object      wallShearStress;
}
// * * * * * * * * * * * * * * * * * * * * * * * * * * * * * * * * * * * * * //

dimensions      [0 2 -2 0 0 0 0];

internalField   uniform (0 0 0);

boundaryField
{
    WALL
    {
        type            calculated;
        value           nonuniform List<vector> 
1705
(
(-0.00563036 -0.00669015 0.000745992)
(-0.00447861 -0.00615114 0.00110984)
(-0.027871 -0.0182591 -0.00109383)
(-0.0285405 -0.0152187 0.00127638)
(-0.0122436 -0.00597327 0.0112011)
(-0.0101245 -0.00467499 0.0121928)
(-0.00991856 -0.0145542 -0.00175083)
(-0.00978547 -0.0165057 -0.00111943)
(-0.0222634 -0.0230101 -0.00481705)
(-0.0274876 -0.0232049 -0.0029015)
(-0.0268109 -0.0258093 -0.00414819)
(-0.0254002 -0.0267317 -0.00249148)
(-0.0121624 -0.0126772 -0.00176005)
(-0.00904267 -0.0119221 -0.00171983)
(-0.000537289 -0.00118553 0.00630503)
(-0.000611211 -0.00358683 0.00307519)
(-0.00401814 -0.0131879 -0.00149746)
(-0.00592531 -0.01757 -0.000926294)
(-0.00408601 -0.00829998 -0.00438629)
(-0.00562945 -0.0119834 -0.00417064)
(-0.0196023 -0.0249075 0.00349657)
(-0.0213237 -0.0233266 0.00305472)
(-0.0266078 -0.0185091 0.000535803)
(-0.0255732 -0.015312 0.00192747)
(-0.0223165 -0.029387 0.00127654)
(-0.0207657 -0.0289023 0.00336868)
(-0.00772076 -0.00848746 9.5668e-05)
(-0.00911764 -0.00981126 -0.000507062)
(-0.0092913 -0.0083031 0.000112989)
(-0.0102362 -0.00869976 0.000208195)
(-0.0231646 -0.0120859 -0.00272777)
(-0.0240427 -0.010965 0.000546659)
(-0.00741669 -0.0102761 -0.00228659)
(-0.0104668 -0.011786 -0.00119868)
(-0.0120123 -0.011967 -0.00194662)
(-0.0147333 -0.013628 0.000373141)
(-0.00684217 -0.0145948 0.0149443)
(-0.00662923 -0.0135099 0.0149058)
(-0.00932541 -0.00964108 0.0122691)
(-0.0109666 -0.00930088 0.012153)
(-0.0136527 -0.00927143 0.00208836)
(-0.0130163 -0.00908467 0.00224456)
(-0.00453153 -0.00605839 0.000434207)
(-0.00646745 -0.00757234 0.000493438)
(-0.0035298 -0.00757263 -0.0031914)
(-0.00234729 -0.00673889 -0.00226606)
(-0.000745585 -0.00125821 0.00425384)
(-0.000439612 -0.00161754 0.00411251)
(-3.4049e-05 -0.00131657 0.00358318)
(0.00019966 -0.00124947 0.00288663)
(-0.0115982 -0.00979986 0.00730442)
(-0.010589 -0.011749 0.00589443)
(-0.0103979 -0.00952457 0.0071359)
(-0.010155 -0.00962312 0.00610342)
(-0.0123851 -0.0119701 0.00555274)
(-0.0124584 -0.0112625 0.00647507)
(-0.0160567 -0.0342455 0.00639965)
(-0.0170607 -0.0362981 0.00340826)
(-0.0166345 -0.0336289 0.00525612)
(-0.0180877 -0.0321254 0.00102159)
(-0.0167874 -0.0327607 0.00237598)
(-0.0185572 -0.0348801 0.00362039)
(-0.016619 -0.00830794 0.0231528)
(-0.0218542 -0.0135011 0.0253295)
(-0.0181004 -0.00806082 0.0254425)
(-0.0177178 -0.00608244 0.0226924)
(-0.0212308 -0.00594265 0.021959)
(-0.0268114 -0.00872603 0.0274138)
(-0.00134474 -0.00791777 0.00131442)
(-0.00237294 -0.010693 0.000136171)
(-0.00101402 -0.00706669 0.00036212)
(-0.000711971 -0.00598505 0.00319265)
(-0.00281579 -0.00884725 -0.00219975)
(-0.0126393 -0.0103957 0.00390095)
(-0.012827 -0.0103861 0.0034755)
(-0.0177964 -0.0122713 0.00581079)
(-0.016318 -0.0110945 0.00464785)
(-0.0144694 -0.010206 0.003096)
(-0.0158209 -0.0131313 0.00627064)
(-0.0278349 -0.0156213 0.0222285)
(-0.0269321 -0.0188013 0.0244089)
(-0.0267951 -0.0155053 0.0227656)
(-0.0273539 -0.0186479 0.0239088)
(-0.0300183 -0.0168621 0.0220698)
(-0.0272115 -0.0171414 0.0211861)
(-0.0194628 -0.0170143 -0.0074163)
(-0.0213848 -0.0192328 -0.00681077)
(-0.0156296 -0.0191446 -0.00662163)
(-0.0166671 -0.0177621 -0.00728552)
(-0.0184894 -0.0197297 -0.00701619)
(-0.0215431 -0.017005 -0.00676737)
(-0.00470871 -0.00657989 0.00123022)
(-0.00406298 -0.00570857 0.00124575)
(-0.00477799 -0.0061077 0.00115265)
(-0.00650125 -0.00718281 0.000905901)
(-0.00692853 -0.00779406 0.00100943)
(-0.00508946 -0.00651423 0.000662072)
(-0.00593278 -0.00743499 0.00144474)
(-0.00668164 -0.00721232 0.000825719)
(-0.0212949 -0.0125431 -0.000392856)
(-0.0224091 -0.0116605 0.000573206)
(-0.0200755 -0.0118074 0.00388395)
(-0.020001 -0.0123513 0.000679107)
(-0.0203589 -0.0124709 0.00246939)
(-0.0218411 -0.0121798 0.0031012)
(-0.0067799 -0.00324672 0.00919943)
(-0.00475129 -0.00259428 0.00813957)
(-0.0052815 -0.00287987 0.0079881)
(-0.00633906 -0.00419535 0.00858217)
(-0.00573049 -0.00257713 0.00884588)
(-0.00738235 -0.00403952 0.00922775)
(-0.00819806 -0.0240487 0.00766005)
(-0.00648534 -0.0203214 0.0116016)
(-0.0078852 -0.0221399 0.0122532)
(-0.00933076 -0.0263726 0.0108461)
(-0.0072547 -0.0201855 0.0136664)
(-0.00677576 -0.021351 0.00906555)
(-0.0232351 -0.0205548 0.0251794)
(-0.0229631 -0.0246058 0.029413)
(-0.0233827 -0.0208981 0.0250751)
(-0.0193893 -0.0242768 0.0242864)
(-0.0221053 -0.0230356 0.0265053)
(-0.0211944 -0.023868 0.0242186)
(-0.0158376 -0.0330851 0.0172284)
(-0.0164829 -0.0343307 0.0133838)
(-0.0170526 -0.0337547 0.0160242)
(-0.0167386 -0.0325631 0.0182742)
(-0.0170492 -0.0351404 0.0156733)
(-0.0167279 -0.0322191 0.0181763)
(-0.0162755 -0.0363427 0.0158585)
(-0.0162676 -0.0352176 0.0139799)
(-0.016443 -0.0354562 0.010973)
(-0.0162201 -0.0355475 0.00921422)
(-0.0164967 -0.0370027 0.014058)
(-0.0154606 -0.0344442 0.0153595)
(-0.010416 -0.0106889 0.0121132)
(-0.00693202 -0.00974612 0.0121517)
(-0.00945715 -0.00858667 0.0119379)
(-0.00649194 -0.00857444 0.0106121)
(-0.0078617 -0.00968205 0.0122238)
(-0.00857017 -0.00830845 0.0117313)
(-0.0190391 -0.0109969 0.00675261)
(-0.0173167 -0.011053 0.00891014)
(-0.0196545 -0.0126551 0.00717527)
(-0.0181218 -0.0110592 0.00770251)
(-0.0171604 -0.0103611 0.00893274)
(-0.0183589 -0.0101494 0.00804333)
(-0.018269 -0.0113883 0.0046586)
(-0.0192955 -0.0142982 0.00509722)
(-0.00259308 -0.00470133 0.00105721)
(-0.00244629 -0.00440887 0.00112827)
(-0.0032539 -0.00525613 0.000910244)
(-0.00243203 -0.00436023 0.00125558)
(-0.00378456 -0.00557169 0.000734683)
(-0.00322129 -0.00527779 0.0011548)
(-0.00764782 -0.00799192 0.00152676)
(-0.00208991 -0.00391832 0.00165002)
(-0.00276197 -0.00465968 0.0014168)
(-0.00327985 -0.00536106 0.00142117)
(-0.00229943 -0.00420877 0.00146729)
(-0.0105745 -0.00868136 0.00149925)
(-0.0080523 -0.00804265 0.00117033)
(-0.00989693 -0.00856493 0.00156955)
(-0.00885991 -0.00817831 0.00107743)
(-0.00878897 -0.00874516 0.00152084)
(-0.00181339 -0.00361132 0.00103449)
(-0.00195692 -0.00384952 0.000965111)
(-0.00149562 -0.00315816 0.000917653)
(-0.00166365 -0.00340724 0.000983737)
(-0.00141075 -0.00297262 0.00110597)
(-0.0014055 -0.00291661 0.00104473)
(-0.001523 -0.00262942 0.00178325)
(-0.0017909 -0.00277537 0.00231999)
(-0.00137478 -0.00241897 0.00170452)
(-0.00173252 -0.00272768 0.00231334)
(-0.0015884 -0.00270025 0.00198344)
(-0.00157216 -0.00268523 0.00183315)
(-0.00236608 -0.00328068 0.00307991)
(-0.00220872 -0.0030488 0.00267551)
(-0.00180168 -0.00271727 0.00211492)
(-0.00149963 -0.00257654 0.0019239)
(-0.00183277 -0.0028492 0.0024397)
(0.00504837 -0.0222521 0.00996886)
(0.00413682 -0.0232143 0.00754002)
(-0.000999765 -0.0150433 0.0131325)
(-0.000645966 -0.0127295 0.010299)
(0.000998047 -0.0163399 0.0119099)
(-0.00146179 -0.0130196 0.0114933)
(0.00182762 -0.0174128 0.0114065)
(0.00094304 -0.0151699 0.00969486)
(-0.0100444 -0.0129965 0.0120627)
(-0.0115355 -0.0140932 0.00986311)
(-0.00932403 -0.0144243 0.0117695)
(-0.0116779 -0.0132415 0.0100558)
(-0.0114074 -0.0142119 0.0120197)
(-0.0101356 -0.0146764 0.0110542)
(-0.0116399 -0.0136426 0.0133232)
(-0.0108711 -0.0118863 0.0132958)
(-0.00974539 -0.0132221 0.0135102)
(-0.00898249 -0.0137711 0.0148752)
(-0.00956796 -0.0123808 0.0141096)
(-0.0115545 -0.0122862 0.0127722)
(-0.00479411 -0.0121359 0.0127298)
(-0.00460947 -0.0139616 0.0143506)
(-0.00357483 -0.0121199 0.0127476)
(-0.00614977 -0.0122009 0.0130618)
(-0.00342588 -0.0136847 0.0136275)
(-0.0100535 -0.0135913 0.00648036)
(-0.00986433 -0.014586 0.00813651)
(-0.00926158 -0.0141998 0.00894467)
(-0.0123901 -0.0132338 0.00448363)
(-0.014137 -0.013458 0.00657989)
(-0.0127391 -0.0140689 0.00760895)
(-0.0129554 -0.013403 0.00761127)
(-0.0138094 -0.0143453 0.00448297)
(-0.0143173 -0.014054 0.00530725)
(-0.0126076 -0.0128536 0.00556486)
(-0.00891154 -0.0128427 0.00256331)
(-0.0111091 -0.0130981 0.00411485)
(-0.00999204 -0.0120244 0.00180131)
(-0.0104794 -0.0128668 0.00307285)
(-0.00897324 -0.0125454 0.00350087)
(-0.000546967 -0.0114568 0.00439509)
(0.000168116 -0.0152131 0.00432991)
(-0.000482762 -0.0105419 0.00545997)
(-0.000188532 -0.0129239 0.00750841)
(0.00143616 -0.0163537 0.00544622)
(0.00190736 -0.0167144 0.00835599)
(0.00153962 -0.0154218 0.00899878)
(-0.0121442 -0.0127364 -0.000167521)
(-0.00959299 -0.0114248 -0.000756525)
(-0.0104764 -0.0121541 0.000333377)
(-0.011655 -0.0124808 0.00139973)
(-0.0128938 -0.0130308 0.00101854)
(-0.00986792 -0.0116824 -0.0021906)
(-0.00949548 -0.0109286 -0.00367095)
(-0.0125475 -0.0125218 -0.00233437)
(-0.00877364 -0.0102763 -0.0032244)
(-0.0114712 -0.010994 -0.00349496)
(-0.0110987 -0.0102703 -0.00583675)
(-0.00960192 -0.00989553 -0.00729967)
(-0.0114113 -0.010679 -0.00676351)
(-0.00945531 -0.00999885 -0.00573252)
(-0.00744143 -0.00863739 -0.00585908)
(-0.00691438 -0.00964134 -0.00549716)
(-0.0216871 -0.0137304 -0.00665254)
(-0.0215853 -0.0126099 -0.00354263)
(-0.0196679 -0.0112913 -0.00565028)
(-0.0242308 -0.0126802 -0.00398629)
(-0.0231797 -0.0134529 -0.0054916)
(-0.0262231 -0.0108822 0.0040173)
(-0.0261063 -0.00998631 0.00441592)
(-0.0276749 -0.0116734 0.00137726)
(-0.0278119 -0.00953935 0.00271869)
(-0.0274466 -0.0108504 0.00164773)
(-0.0284057 -0.0119159 2.51195e-06)
(-0.0170812 -0.00946767 0.00238829)
(-0.0158624 -0.00990124 0.00183009)
(-0.0136037 -0.0088779 0.00103376)
(-0.0156735 -0.00932537 0.00111453)
(-0.0178815 -0.00994258 0.00215961)
(-0.00138018 -0.00257969 0.00181629)
(-0.00121651 -0.00227043 0.00139605)
(-0.00121666 -0.00244962 0.00134864)
(-0.00146776 -0.00277436 0.0021771)
(-0.00119613 -0.00249724 0.00139679)
(-0.00117434 -0.00247453 0.00160525)
(-0.00241267 -0.0044023 0.000666877)
(-0.00336065 -0.00542777 0.000714289)
(-0.00262029 -0.0046931 0.000814258)
(-0.0036002 -0.00578446 0.000641799)
(-0.0027797 -0.00474366 0.000404007)
(-0.00332728 -0.00547622 0.000431275)
(-0.0175571 -0.0101629 0.00103326)
(-0.0170003 -0.00933576 0.000954715)
(-0.0161529 -0.00990112 0.000868846)
(-0.0209936 -0.00938891 0.0028917)
(-0.0194383 -0.0102412 0.00236146)
(-0.0195398 -0.0101965 0.00249315)
(-0.0119391 -0.008908 -0.000143947)
(-0.0137813 -0.00935778 -0.000195493)
(-0.00875243 -0.00823178 7.5817e-05)
(-0.00935611 -0.00848003 0.000201819)
(-0.0102397 -0.00848446 -0.000161093)
(-0.0119913 -0.00932305 0.000338184)
(-0.0189618 -0.0110505 0.00252287)
(-0.0194866 -0.0117897 0.00302754)
(-0.0177812 -0.0115575 0.00188306)
(-0.0166708 -0.0114226 0.00181608)
(-0.0162732 -0.0117862 0.00145969)
(-0.0203755 -0.0114487 0.00363024)
(-0.0219192 -0.0100861 0.00425298)
(-0.0253381 -0.0103945 0.00832465)
(-0.0240988 -0.0110079 0.00698784)
(-0.0259593 -0.0105978 0.00780863)
(-0.0237436 -0.00981527 0.00545379)
(-0.0219422 -0.00994882 0.00472361)
(-0.0274943 -0.00971017 0.00895717)
(-0.0282081 -0.00868295 0.0107488)
(-0.0257824 -0.00932863 0.00609185)
(-0.0297424 -0.0087046 0.0105975)
(-0.0262805 -0.00821657 0.00779091)
(-0.024657 -0.00902384 0.0055037)
(-0.0148368 -0.0124762 0.000161253)
(-0.0135508 -0.0123622 -0.000503063)
(-0.0144841 -0.0128701 -0.000922499)
(-0.0132714 -0.0128503 -0.000808114)
(-0.0159945 -0.0134804 0.000271492)
(-0.0160961 -0.0129135 0.000895406)
(-0.00582837 -0.00772544 3.13281e-05)
(-0.00648929 -0.00742834 0.00023648)
(-0.00764985 -0.00818826 0.000110319)
(-0.00521767 -0.00659148 0.000140825)
(-0.00464056 -0.00658794 0.000614308)
(-0.0075493 -0.00877791 0.000197421)
(-0.0101117 -0.00953282 0.000239102)
(-0.00560856 -0.00758006 0.000208457)
(-0.0245214 -0.0116262 0.00392983)
(-0.023707 -0.0119218 0.00338399)
(-0.0244199 -0.0121623 0.00300132)
(-0.0234796 -0.0110241 0.00448375)
(-0.0232054 -0.0097301 0.00440218)
(-0.0246548 -0.0132148 0.00254698)
(-0.015145 -0.00653711 0.00674264)
(-0.0166474 -0.00783396 0.00666333)
(-0.0158845 -0.00633609 0.00756928)
(-0.013012 -0.0058008 0.00667312)
(-0.0142254 -0.00625411 0.00764696)
(-0.016543 -0.00740071 0.00690382)
(-0.0243633 -0.023007 0.000796434)
(-0.0247085 -0.0234927 0.000746667)
(-0.0233302 -0.024684 0.000205591)
(-0.0232659 -0.0255003 0.00193253)
(-0.0242354 -0.0216386 0.000532374)
(-0.0225045 -0.0257986 0.00127612)
(-0.0209247 -0.0322161 0.00288135)
(-0.0214258 -0.0314971 0.00171047)
(-0.0234814 -0.0309474 0.000913222)
(-0.0234521 -0.0288649 0.000289297)
(-0.0211885 -0.0313745 0.00311417)
(-0.0240136 -0.0143218 0.00179477)
(-0.0249062 -0.0188795 0.0012806)
(-0.025542 -0.0174085 -7.19934e-05)
(-0.0260031 -0.0190097 -0.000240554)
(-0.0249226 -0.01634 0.00159832)
(-0.0216099 -0.00732373 0.00861906)
(-0.0226045 -0.00713681 0.00820669)
(-0.018113 -0.00648796 0.00978355)
(-0.0175959 -0.00589434 0.00862558)
(-0.0231743 -0.00779442 0.00766066)
(-0.0199621 -0.00579741 0.00866075)
(-0.0246049 -0.00727082 0.00555585)
(-0.0216298 -0.00759742 0.00672488)
(-0.0236801 -0.0072692 0.00683151)
(-0.0199935 -0.0072984 0.00801463)
(-0.02055 -0.00661416 0.00753044)
(-0.0254216 -0.00819936 0.00581417)
(-0.0205454 -0.00878621 0.00633202)
(-0.0202869 -0.00848254 0.00690504)
(-0.0201318 -0.00765302 0.0064421)
(-0.0188461 -0.00672416 0.00708675)
(-0.0179804 -0.00734679 0.00811501)
(-0.0168039 -0.00715862 0.00714163)
(-0.0167102 -0.0281197 0.00824562)
(-0.0183687 -0.0266108 0.0066557)
(-0.018392 -0.027991 0.0078305)
(-0.0179444 -0.0266426 0.00539702)
(-0.0179814 -0.0295327 0.0072758)
(-0.0165985 -0.0286171 0.00848075)
(-0.0155969 -0.0289416 0.0111163)
(-0.0148916 -0.0285516 0.0130509)
(-0.0149338 -0.0285692 0.0131418)
(-0.0149873 -0.0289277 0.0121424)
(-0.0152149 -0.0282538 0.0118659)
(-0.0152765 -0.0281991 0.0108245)
(-0.0191726 -0.0257111 0.0189481)
(-0.0179944 -0.0231658 0.0174817)
(-0.0177654 -0.024754 0.0177525)
(-0.0198368 -0.0262106 0.020947)
(-0.0167914 -0.0248371 0.0173935)
(-0.019371 -0.0246441 0.0186647)
(-0.0236327 -0.0209014 0.0235543)
(-0.0236762 -0.0241107 0.0249762)
(-0.023499 -0.0209589 0.0219194)
(-0.0249675 -0.020491 0.0228768)
(-0.0215704 -0.0239926 0.0228163)
(-0.0223462 -0.0230705 0.0222319)
(-0.0221385 -0.0219061 0.0211326)
(-0.021436 -0.0225849 0.0203317)
(-0.0221296 -0.020734 0.018936)
(-0.0229237 -0.0203494 0.019016)
(-0.0225599 -0.0207768 0.0201111)
(-0.0218304 -0.0221054 0.0199275)
(-0.0205317 -0.0155328 0.0093629)
(-0.018566 -0.0128451 0.00724028)
(-0.020474 -0.0125824 0.00726592)
(-0.0203866 -0.0141393 0.00997609)
(-0.0207447 -0.0124557 0.00833255)
(-0.0216886 -0.0137919 0.0102613)
(-0.00680056 -0.00920948 -0.00451115)
(-0.00448708 -0.00869759 -0.00305326)
(-0.00336764 -0.00705042 -0.00331809)
(-0.00520199 -0.0072788 -0.00471282)
(-0.00608264 -0.00874627 -0.00363229)
(-0.000310411 -0.0047582 -0.000618679)
(-0.00159166 -0.00624102 -0.00200942)
(-0.00162222 -0.00626977 -0.00220293)
(-0.00110507 -0.00499049 -0.00193736)
(-0.000717268 -0.00543329 -0.00123932)
(-0.000296387 -0.00508378 -0.000405583)
(-0.00755518 -0.0154879 -0.00386937)
(-0.00752413 -0.0122741 -0.00573818)
(-0.0101012 -0.0146211 -0.00568375)
(-0.0103378 -0.017383 -0.00468109)
(-0.00115223 -0.00796006 0.00682861)
(-0.00304302 -0.00421688 0.0134473)
(-0.00269295 -0.00188006 0.0118155)
(-0.00247213 -0.00704508 0.0115014)
(-0.000897866 -0.00351844 0.00879798)
(-0.000635404 -0.00368514 0.00549579)
(-0.000995467 -0.00472764 -0.00089882)
(-0.000150881 -0.00405698 0.000622507)
(-0.000192211 -0.00308741 0.00498296)
(-0.000321867 -0.00419281 0.0015868)
(-7.7522e-05 -0.00333021 0.00222385)
(-0.000211429 -0.00200797 0.00368282)
(-0.00707285 -0.0177169 -0.000284248)
(-0.00467555 -0.0188977 0.000342582)
(-0.0042362 -0.0172028 1.71559e-05)
(-0.00634956 -0.015967 -0.000503389)
(-0.00646925 -0.019152 -0.000406418)
(-0.00472123 -0.0147314 -9.95203e-05)
(-0.00189594 -0.0049054 0.000560902)
(-0.00154957 -0.0046264 0.000643227)
(-0.00180928 -0.00487247 0.000539457)
(-0.00218715 -0.00517412 0.000348172)
(-0.00140814 -0.00420512 0.000931623)
(-0.00119167 -0.00342141 0.00220702)
(-0.000978297 -0.00360714 0.00205663)
(-0.00125366 -0.00387565 0.00292782)
(-0.00102952 -0.00386404 0.00155441)
(-0.00103269 -0.0034968 0.00141729)
(-0.00113623 -0.00343493 0.00166786)
(-0.00167969 -0.00857958 0.00154871)
(-0.00126254 -0.0138224 0.00191147)
(-0.00290596 -0.0133901 0.000913517)
(-0.00149165 -0.0113444 0.00225309)
(-0.00270727 -0.010765 0.00074765)
(-0.00176308 -0.0137063 0.0015682)
(-0.00529067 -0.0093896 -0.000816116)
(-0.00393609 -0.0082005 -0.000393759)
(-0.00327699 -0.00687554 -0.000354684)
(-0.00338047 -0.00649417 -0.000333914)
(-0.00565138 -0.00892875 -0.000993296)
(-0.00460748 -0.00781383 -0.000615994)
(-0.026314 -0.0139147 0.0284591)
(-0.0237624 -0.0117932 0.0242236)
(-0.0264564 -0.0177171 0.0256697)
(-0.0273751 -0.0136016 0.0238767)
(-0.0233081 -0.0151586 0.0256778)
(-0.0255085 -0.0118077 0.0225152)
(-0.0227719 -0.00418937 0.0179092)
(-0.0208162 -0.00489813 0.0193168)
(-0.0232629 -0.00378315 0.0202458)
(-0.0257655 -0.00457695 0.0200321)
(-0.021064 -0.00333046 0.0213547)
(-0.0186421 -0.0363893 0.00687027)
(-0.0191225 -0.0373924 0.00854437)
(-0.0199121 -0.0357709 0.00423328)
(-0.0178983 -0.0362108 0.0100095)
(-0.0189657 -0.0341077 0.00531531)
(-0.0204003 -0.0353667 0.00385056)
(-0.0225021 -0.0291465 -0.00105446)
(-0.0260212 -0.0306312 -0.00224258)
(-0.022234 -0.032057 -0.000428157)
(-0.0253304 -0.0312098 -0.0019762)
(-0.0226077 -0.0349042 0.00150767)
(-0.0225767 -0.0327374 0.000292315)
(-0.0232223 -0.026589 -0.00324307)
(-0.025356 -0.0221367 -0.00169143)
(-0.0258493 -0.0206391 -0.00175065)
(-0.0263706 -0.0225939 -0.00259389)
(-0.0258004 -0.0253504 -0.00208152)
(-0.0264244 -0.0244221 -0.00326826)
(-0.0146943 -0.0257733 -0.00309254)
(-0.016732 -0.0255331 -0.00456509)
(-0.0191446 -0.0248282 -0.00514219)
(-0.0173572 -0.0246628 -0.00441675)
(-0.0155977 -0.0252104 -0.00404126)
(-0.0187584 -0.023141 -0.00439018)
(-0.0280476 -0.0177213 -0.00266345)
(-0.0288446 -0.0157925 0.000168334)
(-0.0284941 -0.0149754 -0.00238177)
(-0.0278593 -0.0165509 -0.000462537)
(-0.0265779 -0.0166983 -0.00282073)
(-0.0273893 -0.0195488 -0.00293878)
(-0.0275108 -0.00774586 0.022183)
(-0.0286739 -0.00797387 0.0180465)
(-0.0290803 -0.00828026 0.0192204)
(-0.0266782 -0.00915057 0.0230494)
(-0.0270437 -0.00587652 0.0193371)
(-0.0280139 -0.00723685 0.020806)
(-0.0233969 -0.0112079 0.00687289)
(-0.0214148 -0.01098 0.00514948)
(-0.0247173 -0.0102711 0.0072886)
(-0.0234644 -0.00910732 0.00832182)
(-0.0250944 -0.00979092 0.00869883)
(-0.0239572 -0.0101252 0.00528126)
(-0.00543198 -0.00244914 0.00932514)
(-0.00500686 -0.00176245 0.00880104)
(-0.00692832 -0.0023261 0.00940226)
(-0.00435928 -0.00205816 0.00817402)
(-0.00683141 -0.00358253 0.0101276)
(-0.00831403 -0.00260098 0.0104427)
(-0.00315327 -0.00127884 0.00796604)
(-0.00256103 -0.00256122 0.00806523)
(-0.00151183 -0.000923673 0.00584902)
(-0.0024159 -0.00106323 0.0066424)
(-0.00129063 -0.00193305 0.00620218)
(-0.00117954 -0.000878091 0.00584892)
(-0.0227933 -0.0080517 0.0115458)
(-0.023207 -0.00882758 0.00976978)
(-0.0212356 -0.00998906 0.0101424)
(-0.0223459 -0.0102006 0.00849352)
(-0.0211822 -0.00902698 0.0114147)
(-0.0221904 -0.0111989 0.00910137)
(-0.0169773 -0.00954334 0.00918489)
(-0.0150457 -0.00766834 0.0104438)
(-0.0159839 -0.00757951 0.0104345)
(-0.0149078 -0.00781494 0.00915762)
(-0.0171317 -0.00940238 0.00790371)
(-0.0158389 -0.0096436 0.00847557)
(-0.00877028 -0.00417264 0.00949809)
(-0.0119017 -0.00556892 0.0101142)
(-0.0110561 -0.00587711 0.00913185)
(-0.0102533 -0.0046057 0.0103825)
(-0.00971819 -0.00422915 0.00921122)
(-0.0124467 -0.00597405 0.00945272)
(-0.002525 -0.00170056 0.00660723)
(-0.00173487 -0.00156216 0.00617842)
(-0.00265299 -0.00177154 0.00662318)
(-0.00312263 -0.00197684 0.00742748)
(-0.00125821 -0.00165164 0.005491)
(-0.00183076 -0.00145222 0.00590333)
(-0.0125997 -0.0183395 1.74581e-05)
(-0.011566 -0.0191363 0.000243167)
(-0.00841429 -0.0193752 -0.000110532)
(-0.00969995 -0.0190362 -0.000376403)
(-0.00950019 -0.0185367 -6.09167e-05)
(-0.0118367 -0.0188543 -0.000205546)
(-0.0051778 -0.0221176 0.00141796)
(-0.00282527 -0.0225601 0.00162156)
(-0.00393294 -0.0201279 0.001285)
(-0.00650534 -0.0205157 0.00100358)
(-0.00262666 -0.0231521 0.00250208)
(-0.00605527 -0.0194184 0.000104158)
(-0.00876872 -0.014879 0.00454916)
(-0.0112723 -0.0165732 0.00421276)
(-0.00975563 -0.0157706 0.00378383)
(-0.010464 -0.0144271 0.00504737)
(-0.0118107 -0.0140515 0.00414222)
(-0.018057 -0.0114171 0.00575799)
(-0.0176051 -0.013688 0.00389648)
(-0.01699 -0.0138011 0.00523004)
(-0.0186547 -0.0134768 0.00465871)
(-0.0168701 -0.011858 0.00672281)
(-0.0166493 -0.0116451 0.00562453)
(-0.0160535 -0.0149489 -0.000404262)
(-0.0182985 -0.0146999 0.00183886)
(-0.017366 -0.0158879 0.00182891)
(-0.0152086 -0.0162524 -0.000305613)
(-0.0177994 -0.0154711 0.000832546)
(-0.0159531 -0.017328 0.000911071)
(-0.00175447 -0.00168983 0.00741641)
(-0.000980006 -0.00120379 0.00667015)
(-0.00253332 -0.00126836 0.00927004)
(-0.00230575 -0.000774724 0.00734356)
(-0.00740277 -0.00619998 0.00760036)
(-0.00832377 -0.00762546 0.00735054)
(-0.000569746 -0.0011662 0.00418133)
(-0.000445688 -0.00119671 0.00427472)
(0.00021604 -0.00176935 0.00334037)
(0.000186593 -0.00195196 0.00354227)
(-0.000430335 -0.00120563 0.00397515)
(5.33408e-05 -0.00168243 0.00350113)
(0.000477076 -0.00352623 0.000525182)
(0.000609709 -0.00281654 0.000781878)
(0.000530248 -0.00212819 0.00139242)
(0.000201982 -0.00401325 -0.000683866)
(0.000262725 -0.003128 6.82337e-05)
(0.000747182 -0.00279002 0.00157441)
(-0.00779046 -0.0238501 0.00470456)
(-0.00964889 -0.0240265 0.000371073)
(-0.00983237 -0.0254245 0.00188179)
(-0.00786558 -0.0218636 0.00167439)
(-0.0120324 -0.0268115 -0.000761413)
(-0.0118263 -0.0248088 -0.00189917)
(-0.00182763 -0.0054145 -0.00251575)
(-0.00103471 -0.00405607 -0.00161501)
(-0.00393026 -0.00595172 -0.00444949)
(-0.0037644 -0.00727724 -0.00403643)
(-0.00155492 -0.00514799 -0.00267387)
(-0.00227101 -0.00565586 -0.00315152)
(-0.0260168 -0.00956406 0.00543385)
(-0.0276604 -0.0104712 0.00413896)
(-0.0279481 -0.012977 0.00192401)
(-0.0258822 -0.0101823 0.00464906)
(-0.0268796 -0.0112218 0.00292837)
(-0.0284891 -0.0128836 0.00284677)
(-0.00186297 -0.00305848 0.00272003)
(-0.00149498 -0.00288896 0.00258717)
(-0.00200262 -0.00329396 0.00326158)
(-0.0014663 -0.00263841 0.00214122)
(-0.00132925 -0.00267462 0.0019768)
(-0.00134722 -0.00283214 0.00217582)
(-0.0156362 -0.0139476 0.00914493)
(-0.00770819 -0.0116573 0.000462781)
(-0.0135931 -0.0255856 -0.00298198)
(0.000624917 -0.00287907 0.00260116)
(-0.000672269 -0.00146971 0.00448461)
(-0.000731925 -0.00147933 0.00482276)
(-0.00143133 -0.00130777 0.00524731)
(0.000556175 -0.00248326 0.00247367)
(0.000565407 -0.00197678 0.00189268)
(0.00042262 -0.0020746 0.00278726)
(0.000474909 -0.00164812 0.00192997)
(-0.00125681 -0.00151438 0.00486801)
(-0.0119537 -0.00266959 0.0148196)
(-0.0113866 -0.00258422 0.0158215)
(-0.0107536 -0.0042148 0.0140564)
(-0.00928319 -0.00316184 0.0140507)
(-0.0204861 -0.0135026 0.00472173)
(-0.0202185 -0.0129945 0.00587052)
(-0.0196551 -0.0142076 0.00351239)
(-0.0196808 -0.0149368 0.00295444)
(-0.0187069 -0.0155033 0.00144051)
(-0.0190981 -0.0136993 0.00408708)
(-0.0192276 -0.0126789 0.0053459)
(-0.0188628 -0.0144038 0.0036239)
(-0.00625537 -0.00420497 0.00741833)
(-0.0136872 -0.0140142 0.00330137)
(-0.0135713 -0.0137591 0.00453759)
(-0.00700756 -0.00583714 0.00777111)
(-0.00801421 -0.00623893 0.00825109)
(-0.0153364 -0.0125789 0.0053528)
(-0.0146922 -0.0121471 0.00530368)
(-0.0162036 -0.0118575 0.00631065)
(-0.0159848 -0.009585 0.00727724)
(-0.0148965 -0.00998634 0.00780244)
(-0.0137421 -0.00837962 0.00826424)
(-0.0146091 -0.0102605 0.00678804)
(-0.00995172 -0.00640793 0.00839614)
(-0.0110309 -0.00620742 0.00832732)
(-0.0123355 -0.00828669 0.00825776)
(-0.0130731 -0.0154241 0.00267798)
(-0.00724713 -0.018873 -0.000601138)
(-0.0145658 -0.0171191 0.0017354)
(-0.0141108 -0.0177428 0.000703524)
(-0.0130375 -0.0172224 0.00181065)
(-0.0085288 -0.01996 0.000499481)
(-0.0119766 -0.0181885 0.00109518)
(-0.000361914 -0.00157634 0.0043148)
(3.58827e-05 -0.00189213 0.00390533)
(0.000211758 -0.00205705 0.00327244)
(-0.0188529 -0.0123937 0.00729075)
(-0.018101 -0.0120766 0.00716674)
(-0.0135642 -0.00784675 0.00905665)
(-0.0128371 -0.00187771 0.0172959)
(-0.0155438 -0.00287064 0.0177226)
(-0.0206225 -0.0126748 0.00750286)
(-0.0202382 -0.0116089 0.00718287)
(-0.0196006 -0.010839 0.00835657)
(-0.0197172 -0.0101966 0.00808076)
(-0.0186666 -0.00984205 0.00940871)
(-0.0193743 -0.00908604 0.0112375)
(-0.0203309 -0.0104037 0.0101004)
(-0.0189778 -0.00962418 0.0113092)
(-0.00317201 -0.00307463 0.00877925)
(-0.000710527 -0.00133909 0.00515348)
(-0.00126886 -0.00123668 0.00538439)
(-0.00766309 -0.00251232 0.0132529)
(-0.00902152 -0.00260937 0.0154266)
(-0.00509116 -0.00160394 0.0115965)
(-0.00307187 -0.00267756 0.00870424)
(-0.00441984 -0.00217425 0.0100156)
(-0.00436799 -0.00174672 0.00890936)
(-0.00341121 -0.00119135 0.00751676)
(-0.0161845 -0.00768422 0.0125693)
(-0.0168879 -0.00699065 0.0116111)
(-0.0156762 -0.00673908 0.0112112)
(-0.0136317 -0.00514548 0.013681)
(-0.0110544 -0.00482634 0.0138471)
(-0.0144247 -0.00546053 0.0129089)
(-0.0139926 -0.00611057 0.0123952)
(-0.0132983 -0.00592681 0.0107294)
(-0.0106663 -0.00458599 0.0115503)
(-0.0100282 -0.00428054 0.0111046)
(-0.00482228 -0.00201156 0.011462)
(-0.00519918 -0.0141225 0.0144267)
(0.000367706 -0.00268457 0.00271643)
(0.00018645 -0.00213603 0.00179294)
(-0.000139553 -0.00158638 0.0038964)
(-0.000312083 -0.00199874 0.00479576)
(-0.0194484 -0.0130857 0.00260988)
(-0.019377 -0.0136967 0.00213876)
(-0.0156618 -0.0154755 -0.000229792)
(-0.0176657 -0.0152595 0.000651658)
(-0.0176597 -0.0139055 0.0010767)
(-0.0245755 -0.00830842 0.0096359)
(-0.0265504 -0.00806178 0.0120654)
(-0.0293475 -0.00727297 0.0163858)
(-0.0258444 -0.00905124 0.00651676)
(-0.020714 -0.0232765 -0.00450181)
(-0.0234822 -0.0207088 -0.00384834)
(-0.024524 -0.0202698 -0.00406819)
(-0.0279346 -0.0176101 -0.00374526)
(-0.0274415 -0.0200096 -0.000793536)
(-0.028225 -0.0230292 -0.00199054)
(-0.025978 -0.0194714 -0.00379512)
(-0.0224413 -0.0221675 -0.00479551)
(-0.0238979 -0.022853 -0.00270592)
(-0.020781 -0.02337 -0.00466601)
(-0.0238482 -0.0279153 -0.00343061)
(-0.0200404 -0.0293058 -0.00257226)
(-0.0226765 -0.0268816 -0.00515081)
(-0.013503 -0.0272 -0.00161452)
(-0.0173429 -0.0268162 -0.00418035)
(-0.0119045 -0.0265351 0.000240285)
(-0.0146446 -0.026954 -0.00157127)
(-0.0116766 -0.0295374 0.00254843)
(-0.0102919 -0.0276265 0.00455853)
(-0.0100895 -0.0265642 0.00493122)
(-0.0217848 -0.0276445 -0.00260504)
(-0.0251116 -0.00652907 0.0134344)
(-0.0174606 -0.00228071 0.0193278)
(-0.0160578 -0.00163612 0.019893)
(-0.0208683 -0.00369495 0.0206063)
(-0.0266051 -0.00670455 0.0163684)
(-0.0229437 -0.00416001 0.0161292)
(-0.0248215 -0.00589627 0.0147836)
(-0.0263642 -0.0050338 0.0181851)
(-0.0119988 -0.00673861 0.0217614)
(-0.00732451 -0.0140944 0.0191424)
(-0.00886557 -0.0112063 0.0209392)
(-0.0107904 -0.00915279 0.0221758)
(-0.0109765 -0.012035 0.0224296)
(-0.0283007 -0.00867974 0.0214607)
(-0.00558597 -0.0176644 0.0119703)
(-0.00658977 -0.0220456 0.00678829)
(-0.00437447 -0.00887778 -0.00100736)
(-0.00181039 -0.00552322 0.00491172)
(-0.000441182 -0.0172105 0.00304971)
(-0.00410836 -0.0102388 -0.000475899)
(-0.000303323 -0.0147396 0.00277065)
(-0.000949634 -0.00698192 0.00303059)
(-0.000984758 -0.00899739 0.00280776)
(-0.000932439 -0.00687366 0.00256353)
(-0.00124277 -0.00440993 0.00370971)
(-0.00107406 -0.00498708 0.00299045)
(-0.00125988 -0.0036674 0.00350833)
(-0.00272385 -0.00580168 0.000234554)
(-0.0166369 -0.0136016 0.000219335)
(-0.00379375 -0.0134597 0.000249487)
(-0.00455516 -0.0127468 -0.000186496)
(-0.00202159 -0.0193825 0.00117149)
(-0.00316913 -0.0195566 0.000856329)
(-0.00167065 -0.0184868 0.00166471)
(-0.00235286 -0.0157568 0.00163073)
(-0.00623951 -0.0102184 -0.00146066)
(-0.00553276 -0.0104646 -0.00116989)
(-0.00730819 -0.0101126 -0.00136586)
(-0.00853932 -0.0111666 -0.00136337)
(-0.010556 -0.0119164 -0.00152339)
(-0.0146677 -0.0145171 -0.00116743)
(-0.0151961 -0.0137428 -0.000824738)
(-0.0139207 -0.0132346 -0.00126381)
(-0.00092132 -0.0216289 0.00198775)
(-0.00020696 -0.0244025 0.00312703)
(-0.00114445 -0.00283097 0.00550722)
(-0.000326604 -0.00258573 0.00402244)
(-0.000673445 -0.00177701 0.00495287)
(-3.77673e-05 -0.0027542 0.00252131)
(0.000211736 -0.00308948 0.00143871)
(-0.00361509 0.000364297 0.0117588)
(-0.0047783 -0.0110058 0.015269)
(-0.00118216 -0.0010843 0.00877493)
(-0.00170201 -0.00568911 -0.00143205)
(-0.00568105 -0.0197924 0.0064747)
(-0.00410649 -0.0160485 0.00818686)
(-0.00577952 -0.0198578 0.00387027)
(-0.00334134 -0.0136428 0.00847415)
(-0.00257341 -0.0114951 0.0108744)
(-0.00287006 -0.00592873 -0.00360447)
(-0.00861881 -0.0205727 -0.00114875)
(-0.00298857 -0.0153122 0.00545219)
(-0.00493921 -0.0178919 0.00301019)
(-0.0060946 -0.0184212 0.000186605)
(-0.00783523 -0.018547 -0.00281879)
(-0.0128984 -0.0185512 -0.00574847)
(0.000510899 -0.00369974 0.00150443)
(0.000287268 -0.00387132 0.00110091)
(0.000386137 -0.00429532 0.000395393)
(-3.51603e-05 -0.00374625 0.000136643)
(4.48805e-05 -0.0036929 -0.000524547)
(-0.000379864 -0.00468485 -0.00098079)
(-0.0010012 -0.00467038 -0.00161545)
(-0.000369971 -0.00440948 -0.000950235)
(-0.000534096 -0.00462843 -0.00112392)
(-0.00265108 -0.00607982 -0.00354274)
(-0.00221284 -0.00677381 -0.0016645)