/*--------------------------------*- C++ -*----------------------------------*\
| =========                 |                                                 |
| \\      /  F ield         | OpenFOAM: The Open Source CFD Toolbox           |
|  \\    /   O peration     | Version:  v1612+                                |
|   \\  /    A nd           | Web:      www.OpenFOAM.com                      |
|    \\/     M anipulation  |                                                 |
\*---------------------------------------------------------------------------*/
FoamFile
{
    version     2.0;
    format      ascii;
    class       volScalarField;
    location    "166";
    object      p;
}
// * * * * * * * * * * * * * * * * * * * * * * * * * * * * * * * * * * * * * //

dimensions      [0 2 -2 0 0 0 0];

internalField   nonuniform List<scalar> 
17019
(
0.259255
0.20161
0.233384
0.173787
0.176971
0.171955
0.180179
0.178367
0.246622
0.246737
0.251669
0.245877
0.247551
0.245059
0.246539
0.25081
0.250713
0.249162
0.250906
0.246572
0.250772
0.249292
0.185076
0.183552
0.185123
0.18673
0.184958
0.185346
0.229387
0.212521
0.207889
0.223025
0.218742
0.219045
0.220312
0.215347
0.216448
0.208691
0.217283
0.211629
0.212745
0.205107
0.203878
0.205746
0.206206
0.209852
0.212203
0.202968
0.203158
0.206555
0.206996
0.210844
0.210196
0.218732
0.210238
0.208149
0.207912
0.209421
0.211332
0.204407
0.212507
0.204679
0.202495
0.201906
0.203633
0.208917
0.207482
0.207248
0.206336
0.204045
0.202134
0.205933
0.2008
0.222735
0.217475
0.218603
0.215274
0.218108
0.214183
0.213246
0.218222
0.215563
0.224596
0.222313
0.21832
0.214941
0.21224
0.217986
0.215081
0.21854
0.219279
0.216819
0.220907
0.194138
0.194198
0.194567
0.193903
0.189983
0.191071
0.192879
0.200234
0.200383
0.189954
0.193673
0.193255
0.192977
0.194677
0.195561
0.196667
0.193511
0.226481
0.223175
0.222438
0.22037
0.21614
0.222952
0.230509
0.229626
0.223432
0.22255
0.232148
0.230257
0.224784
0.218646
0.218319
0.225329
0.223496
0.219314
0.223917
0.182765
0.185146
0.187275
0.183948
0.185531
0.184868
0.180018
0.180459
0.187613
0.186044
0.187242
0.185234
0.226482
0.229367
0.228615
0.231008
0.227736
0.221402
0.228503
0.227696
0.228928
0.236334
0.229093
0.227413
0.229578
0.233615
0.22769
0.229619
0.280112
0.277687
0.278782
0.27283
0.276336
0.275356
0.281781
0.282437
0.275878
0.273352
0.276659
0.277274
0.27781
0.270293
0.274108
0.276382
0.273193
0.273111
0.27588
0.266616
0.269561
0.27621
0.268309
0.271398
0.267826
0.26472
0.261878
0.261056
0.266633
0.260453
0.262711
0.262036
0.259147
0.260365
0.265255
0.270234
0.270216
0.261922
0.261458
0.26062
0.262804
0.269362
0.268706
0.265858
0.256507
0.260211
0.262173
0.261369
0.264056
0.261536
0.267151
0.26537
0.263487
0.2638
0.265818
0.262869
0.269743
0.257205
0.26264
0.259696
0.252581
0.252706
0.265705
0.261164
0.258146
0.261167
0.259234
0.261184
0.26292
0.263801
0.265235
0.251822
0.257741
0.260145
0.258917
0.191964
0.19573
0.193721
0.199927
0.201158
0.198316
0.198861
0.202325
0.200033
0.277714
0.275078
0.272077
0.270993
0.269824
0.273314
0.276213
0.244703
0.238136
0.244361
0.243319
0.243417
0.246071
0.242776
0.239028
0.237793
0.234025
0.238321
0.23705
0.237776
0.237606
0.238175
0.246276
0.240001
0.234146
0.238954
0.179266
0.18128
0.181323
0.181047
0.182934
0.183312
0.180439
0.18005
0.18134
0.18809
0.180456
0.190401
0.193834
0.183871
0.184917
0.179954
0.181714
0.182675
0.183823
0.184279
0.183263
0.184534
0.184901
0.175558
0.186802
0.182761
0.179866
0.178621
0.184917
0.180168
0.180373
0.184095
0.226169
0.223007
0.218765
0.22426
0.219628
0.216271
0.226314
0.22331
0.218044
0.214078
0.212773
0.227345
0.225339
0.220025
0.219009
0.221911
0.225505
0.215986
0.220096
0.223436
0.224881
0.221073
0.223611
0.220282
0.224694
0.220385
0.220664
0.219955
0.219651
0.215395
0.209033
0.217263
0.257572
0.261698
0.266147
0.272198
0.259247
0.267923
0.260394
0.264204
0.259337
0.255565
0.273308
0.270133
0.259727
0.260502
0.26951
0.261696
0.260384
0.224421
0.220571
0.224181
0.223751
0.224077
0.22398
0.223248
0.225236
0.226558
0.222084
0.225128
0.221006
0.223333
0.220801
0.214532
0.22347
0.213281
0.217129
0.216192
0.220182
0.221358
0.210968
0.20862
0.214747
0.222175
0.214696
0.215486
0.213756
0.221651
0.217377
0.222093
0.220858
0.218209
0.220595
0.182958
0.180915
0.180613
0.183088
0.1759
0.173296
0.176272
0.179015
0.178454
0.184368
0.179988
0.181526
0.178141
0.17775
0.181734
0.227356
0.22575
0.230697
0.23259
0.232703
0.23167
0.230846
0.224008
0.225868
0.23627
0.227879
0.230622
0.234289
0.230388
0.236439
0.238527
0.24018
0.239822
0.246472
0.239001
0.236515
0.238585
0.243323
0.244033
0.237859
0.244963
0.24814
0.250856
0.239931
0.248337
0.237358
0.239715
0.237137
0.264624
0.257763
0.259401
0.260544
0.272087
0.271945
0.265415
0.265689
0.274581
0.274815
0.266973
0.262357
0.271297
0.270771
0.270847
0.269075
0.270922
0.237649
0.238509
0.24256
0.237426
0.236836
0.23716
0.231795
0.234928
0.234534
0.272732
0.272681
0.27053
0.275559
0.267465
0.27007
0.273252
0.272011
0.271133
0.278368
0.277495
0.27007
0.27503
0.271859
0.275091
0.276762
0.277977
0.26179
0.26439
0.273762
0.27466
0.266501
0.271083
0.273448
0.272737
0.275412
0.267432
0.270917
0.280292
0.270043
0.274689
0.275227
0.271189
0.273548
0.273198
0.268317
0.272992
0.20922
0.20773
0.215602
0.214774
0.212271
0.214249
0.203753
0.212773
0.211729
0.216932
0.209586
0.217922
0.214155
0.217063
0.213717
0.208836
0.21345
0.215689
0.20682
0.206231
0.206873
0.202837
0.210433
0.208113
0.213707
0.214483
0.203576
0.206048
0.202395
0.208658
0.210733
0.267848
0.269426
0.267039
0.267032
0.264662
0.264145
0.266673
0.263505
0.270008
0.261778
0.258198
0.262494
0.264361
0.260975
0.265002
0.263442
0.210036
0.206421
0.205735
0.212138
0.215646
0.214188
0.206601
0.207113
0.21495
0.212672
0.207678
0.214116
0.180139
0.179408
0.183377
0.183786
0.179071
0.177943
0.176974
0.184836
0.188115
0.188942
0.189471
0.180723
0.177591
0.181657
0.18385
0.18759
0.182541
0.191047
0.18991
0.190886
0.237003
0.239354
0.241877
0.241534
0.239627
0.243468
0.239313
0.238298
0.243539
0.23961
0.242597
0.246547
0.239233
0.242154
0.248962
0.244846
0.23676
0.244242
0.18689
0.193161
0.190638
0.190428
0.188923
0.197356
0.194563
0.184698
0.187471
0.184118
0.187578
0.189935
0.18913
0.189185
0.192634
0.187784
0.183269
0.18814
0.190409
0.186537
0.255462
0.264339
0.263799
0.26037
0.255396
0.258411
0.271175
0.264324
0.266299
0.270813
0.256154
0.254038
0.262304
0.19308
0.196414
0.199233
0.197312
0.20145
0.196454
0.199587
0.193748
0.201376
0.200772
0.203247
0.204294
0.201457
0.197008
0.200034
0.197775
0.191121
0.190125
0.191719
0.196247
0.185716
0.19242
0.195943
0.199523
0.190445
0.189694
0.193043
0.202838
0.191831
0.192471
0.194082
0.229835
0.230238
0.230777
0.229933
0.233033
0.231318
0.231013
0.228257
0.229715
0.230456
0.228547
0.230741
0.231249
0.231864
0.228014
0.227911
0.227096
0.229364
0.227861
0.228535
0.221081
0.218722
0.223396
0.227877
0.228197
0.204384
0.20378
0.20592
0.207258
0.199804
0.207727
0.207859
0.204568
0.192385
0.201755
0.190167
0.202516
0.198385
0.203934
0.203809
0.188675
0.197506
0.176978
0.17591
0.172616
0.175717
0.177022
0.177047
0.174698
0.175211
0.178464
0.169578
0.194635
0.194858
0.193757
0.200478
0.200219
0.194247
0.195113
0.195013
0.196475
0.197082
0.197962
0.19792
0.193881
0.195705
0.199093
0.199548
0.19835
0.202091
0.252613
0.25272
0.260799
0.256814
0.257499
0.256053
0.257004
0.250538
0.251864
0.256938
0.247299
0.255667
0.256563
0.25602
0.256251
0.258732
0.224017
0.218681
0.221009
0.221891
0.223319
0.217943
0.218614
0.220961
0.220497
0.220255
0.213018
0.219499
0.213752
0.215779
0.222676
0.222569
0.223338
0.212477
0.219468
0.213567
0.211599
0.215468
0.216306
0.215801
0.215108
0.212254
0.212519
0.20895
0.208748
0.205363
0.214892
0.219555
0.20756
0.208653
0.206937
0.205276
0.214574
0.213266
0.211846
0.211176
0.211056
0.208707
0.211135
0.210815
0.206245
0.207631
0.202022
0.198404
0.198308
0.198354
0.198123
0.198867
0.206981
0.202572
0.208254
0.207794
0.207831
0.205731
0.201435
0.201362
0.201808
0.207889
0.203749
0.271484
0.269619
0.270341
0.273847
0.278177
0.283227
0.280498
0.281191
0.270575
0.277086
0.273674
0.276591
0.276671
0.259443
0.263979
0.262806
0.269238
0.262154
0.266469
0.26607
0.272527
0.268074
0.267512
0.264217
0.267457
0.26152
0.240998
0.238556
0.240311
0.240978
0.237776
0.237251
0.240263
0.240944
0.238274
0.235991
0.242232
0.244621
0.243524
0.240416
0.244139
0.244915
0.243988
0.246551
0.240001
0.240528
0.244162
0.242083
0.239034
0.243481
0.241599
0.238729
0.24715
0.245302
0.246252
0.243765
0.248746
0.243205
0.244039
0.244895
0.245906
0.187433
0.187227
0.185738
0.188806
0.187047
0.186168
0.187294
0.175517
0.184524
0.182918
0.1774
0.181696
0.179436
0.187242
0.178608
0.178632
0.180854
0.181866
0.184514
0.179195
0.177535
0.179994
0.182799
0.180939
0.18598
0.179617
0.181238
0.186907
0.186479
0.18889
0.187435
0.190228
0.189024
0.190655
0.185135
0.186304
0.186498
0.191944
0.185552
0.194413
0.18327
0.185458
0.189971
0.183226
0.180388
0.182684
0.177043
0.174841
0.176226
0.175103
0.18114
0.179241
0.179352
0.175831
0.175746
0.176383
0.174861
0.180808
0.181863
0.179008
0.180608
0.179568
0.178652
0.177849
0.192647
0.191603
0.219347
0.217205
0.215669
0.212009
0.214847
0.226059
0.233863
0.237133
0.194095
0.197269
0.264566
0.266735
0.254034
0.17129
0.170071
0.249745
0.247321
0.249786
0.246331
0.20581
0.206038
0.230934
0.230755
0.237541
0.217126
0.220467
0.225643
0.241189
0.243777
0.277547
0.27288
0.199676
0.19553
0.217956
0.22118
0.208444
0.195232
0.198234
0.256806
0.256752
0.22824
0.231102
0.252508
0.249875
0.258367
0.248435
0.250102
0.244457
0.207315
0.207583
0.205344
0.207802
0.203497
0.193713
0.186186
0.187385
0.271211
0.267015
0.257989
0.26482
0.264857
0.26984
0.269072
0.27685
0.276713
0.242623
0.244836
0.184205
0.187426
0.209964
0.205531
0.212315
0.226956
0.225592
0.260894
0.260034
0.215387
0.216784
0.247399
0.250073
0.252245
0.203403
0.202248
0.206308
0.199281
0.207646
0.255616
0.257437
0.229551
0.224137
0.221434
0.17585
0.178759
0.181841
0.237418
0.233001
0.232147
0.270549
0.272511
0.18829
0.178852
0.1789
0.242191
0.239136
0.243796
0.233576
0.232238
0.23577
0.228137
0.236131
0.230504
0.231652
0.243001
0.242661
0.187539
0.186925
0.248762
0.250419
0.247688
0.237691
0.264102
0.260907
0.240145
0.232002
0.232632
0.28762
0.282701
0.282475
0.193223
0.190532
0.187022
0.191792
0.195414
0.192354
0.22663
0.224068
0.214376
0.218982
0.215217
0.217729
0.223641
0.218913
0.216644
0.222948
0.219721
0.223953
0.204917
0.213179
0.214869
0.213078
0.212067
0.224356
0.224572
0.215914
0.225766
0.220255
0.218059
0.221023
0.218773
0.218091
0.211604
0.216304
0.211365
0.217795
0.216303
0.215689
0.215518
0.230637
0.231179
0.22853
0.228227
0.226315
0.220929
0.223061
0.220432
0.221569
0.233491
0.234262
0.232764
0.228134
0.232569
0.194444
0.20086
0.205003
0.198077
0.195334
0.196069
0.19377
0.184098
0.184422
0.19159
0.192333
0.192747
0.192964
0.194664
0.190587
0.189339
0.195341
0.193358
0.18942
0.184812
0.187117
0.190901
0.186703
0.188756
0.192861
0.192257
0.199965
0.194063
0.18472
0.184997
0.188061
0.188289
0.198942
0.187093
0.190608
0.185664
0.187306
0.186448
0.188299
0.188486
0.194663
0.194934
0.186458
0.18771
0.195427
0.196255
0.199147
0.193669
0.193058
0.194671
0.195848
0.27826
0.283975
0.284785
0.283132
0.287846
0.280381
0.269206
0.278643
0.277302
0.275695
0.288433
0.291772
0.284039
0.280699
0.279186
0.278842
0.236406
0.233542
0.242355
0.229107
0.250436
0.243454
0.237473
0.241042
0.234782
0.226044
0.223907
0.236836
0.23959
0.234963
0.233815
0.231466
0.237038
0.245399
0.247871
0.245404
0.243673
0.235102
0.237647
0.261787
0.265613
0.266567
0.272414
0.273163
0.268083
0.259812
0.262367
0.266164
0.266726
0.267257
0.280574
0.274184
0.264937
0.270753
0.267215
0.257228
0.265623
0.261781
0.259216
0.264772
0.257489
0.241728
0.245303
0.238545
0.243906
0.243407
0.240475
0.235873
0.232977
0.243587
0.235383
0.239331
0.252054
0.253974
0.257124
0.249375
0.245839
0.249546
0.244045
0.2436
0.249215
0.241303
0.240725
0.241982
0.245778
0.242569
0.178201
0.183176
0.186946
0.18355
0.185172
0.191126
0.197019
0.195637
0.186641
0.184613
0.189312
0.191127
0.188449
0.194468
0.189658
0.189695
0.191311
0.191919
0.183711
0.186323
0.24034
0.245916
0.241052
0.225808
0.22778
0.238126
0.235245
0.234825
0.232754
0.241104
0.236971
0.24812
0.24058
0.240544
0.24212
0.242499
0.246798
0.245876
0.241066
0.247152
0.244057
0.2356
0.236659
0.243243
0.237963
0.237753
0.241508
0.238154
0.23896
0.224252
0.230788
0.224826
0.230221
0.2266
0.227879
0.236826
0.24023
0.239594
0.228934
0.227338
0.236609
0.233045
0.233168
0.237631
0.232778
0.226528
0.236758
0.243247
0.236016
0.232398
0.237509
0.247039
0.238423
0.234152
0.229416
0.231464
0.242603
0.235927
0.23385
0.218284
0.230727
0.221731
0.224788
0.227826
0.221504
0.230801
0.22141
0.240499
0.236615
0.234943
0.236632
0.233634
0.248632
0.249804
0.244878
0.242537
0.246677
0.247675
0.236717
0.234076
0.23151
0.236996
0.23632
0.238086
0.23759
0.248868
0.243114
0.239356
0.241508
0.240934
0.237701
0.23848
0.2368
0.238477
0.236714
0.238462
0.240461
0.24278
0.240529
0.177339
0.184865
0.182237
0.171818
0.179238
0.172162
0.178029
0.176266
0.178333
0.192338
0.186283
0.185771
0.17625
0.171901
0.183386
0.180573
0.178929
0.17597
0.260381
0.272136
0.261947
0.267913
0.261375
0.270719
0.276022
0.269229
0.263246
0.269979
0.273957
0.272413
0.268344
0.276288
0.269925
0.271312
0.27045
0.24389
0.242389
0.241032
0.239266
0.238508
0.238707
0.238655
0.238505
0.240546
0.237253
0.235111
0.188735
0.216785
0.215762
0.229808
0.229173
0.244055
0.232488
0.218692
0.216974
0.215368
0.222227
0.222068
0.223626
0.218421
0.220108
0.22661
0.219411
0.218708
0.225967
0.22974
0.235259
0.220981
0.219076
0.218484
0.218438
0.229406
0.225896
0.225909
0.232407
0.229233
0.227052
0.22598
0.228239
0.227745
0.253092
0.261594
0.25637
0.254591
0.251501
0.248762
0.243392
0.247472
0.252632
0.267822
0.261076
0.26416
0.258528
0.261717
0.255094
0.25728
0.248602
0.254827
0.252242
0.254961
0.251571
0.207405
0.210779
0.212654
0.206335
0.207638
0.212225
0.212703
0.209011
0.202217
0.21283
0.206792
0.204522
0.205395
0.194366
0.204334
0.206838
0.203454
0.198187
0.195866
0.196735
0.199591
0.195277
0.204648
0.200968
0.198403
0.207168
0.203877
0.204189
0.201136
0.198189
0.202236
0.203506
0.203136
0.200786
0.208016
0.206392
0.206089
0.207063
0.214203
0.207194
0.2028
0.201286
0.210017
0.201679
0.202294
0.201597
0.199754
0.198773
0.204936
0.195723
0.196226
0.191715
0.202602
0.198234
0.192644
0.19586
0.196333
0.244419
0.251774
0.246786
0.262665
0.258139
0.255511
0.254739
0.240511
0.250744
0.246233
0.240741
0.242456
0.247009
0.254586
0.250747
0.256168
0.253602
0.250562
0.253916
0.251398
0.246976
0.248211
0.241131
0.240419
0.242
0.245963
0.212446
0.20619
0.216765
0.213988
0.197621
0.207542
0.211368
0.212484
0.230606
0.222586
0.227612
0.225427
0.221805
0.21906
0.212243
0.214045
0.219848
0.225062
0.217543
0.220115
0.256405
0.258736
0.250817
0.264899
0.270092
0.264388
0.261764
0.261015
0.252735
0.261707
0.261717
0.264419
0.262921
0.264923
0.263689
0.252949
0.253761
0.252046
0.256409
0.256393
0.259692
0.262711
0.255674
0.258284
0.260679
0.2223
0.219849
0.211776
0.215004
0.227943
0.22373
0.230282
0.227112
0.234436
0.227953
0.230969
0.224981
0.231211
0.228279
0.217918
0.228908
0.230518
0.189442
0.202869
0.199376
0.213592
0.215346
0.213637
0.206171
0.209768
0.215227
0.220176
0.215431
0.213333
0.215704
0.211871
0.20637
0.213381
0.213519
0.208193
0.212298
0.209742
0.208291
0.205418
0.197349
0.198933
0.19821
0.201332
0.209106
0.205152
0.202967
0.20292
0.209814
0.214315
0.209585
0.209074
0.211104
0.210485
0.209431
0.211947
0.209774
0.205638
0.206031
0.207269
0.206186
0.206354
0.277947
0.173517
0.180654
0.175554
0.183919
0.181481
0.18178
0.182107
0.180574
0.179523
0.183397
0.187597
0.189508
0.192253
0.190519
0.189019
0.188234
0.186165
0.187175
0.187008
0.190783
0.188334
0.185832
0.187936
0.187557
0.272885
0.263869
0.274233
0.268292
0.275289
0.268296
0.268112
0.265875
0.268045
0.272251
0.274537
0.274002
0.271849
0.27481
0.273521
0.272882
0.273897
0.275699
0.272333
0.275031
0.283785
0.276389
0.275076
0.271321
0.28319
0.27427
0.275665
0.263931
0.283288
0.273986
0.267177
0.270181
0.270018
0.271132
0.27203
0.27145
0.267987
0.275559
0.26884
0.268058
0.260293
0.259818
0.259046
0.264972
0.26008
0.263558
0.262289
0.271685
0.269159
0.279732
0.263152
0.256536
0.270665
0.266189
0.263028
0.262883
0.255822
0.258872
0.262102
0.256259
0.252625
0.251362
0.25574
0.258943
0.258411
0.263996
0.260363
0.254114
0.255887
0.253644
0.256888
0.170864
0.17181
0.173992
0.174596
0.174817
0.267317
0.273983
0.268908
0.269031
0.268109
0.269405
0.267478
0.270385
0.264335
0.277637
0.275917
0.274466
0.280193
0.270599
0.274655
0.262772
0.267451
0.262909
0.264226
0.266377
0.265374
0.269093
0.268578
0.269146
0.266423
0.268824
0.266646
0.264612
0.269543
0.274206
0.273882
0.272942
0.269911
0.271501
0.198895
0.194036
0.191449
0.189407
0.190328
0.189715
0.187159
0.192399
0.184531
0.18879
0.190132
0.187571
0.202135
0.20119
0.208522
0.201932
0.198044
0.201485
0.202676
0.203282
0.201078
0.200264
0.199687
0.245059
0.250831
0.245914
0.244292
0.244795
0.244934
0.239206
0.245079
0.236646
0.237868
0.232789
0.234039
0.234795
0.243709
0.241468
0.244959
0.238145
0.235151
0.237625
0.236992
0.250025
0.239955
0.252992
0.256757
0.256979
0.255226
0.256582
0.254022
0.257181
0.252073
0.253895
0.250219
0.25255
0.252441
0.248227
0.237831
0.242114
0.247505
0.245945
0.24391
0.252686
0.247011
0.247826
0.249398
0.2458
0.244688
0.249261
0.18839
0.182435
0.183089
0.183054
0.183979
0.178647
0.222502
0.226829
0.227322
0.223437
0.225783
0.223596
0.232782
0.223938
0.223497
0.231346
0.229682
0.231751
0.233155
0.23172
0.230761
0.228378
0.264259
0.261351
0.272338
0.267444
0.264146
0.256084
0.259853
0.259947
0.2536
0.254622
0.254596
0.262591
0.249752
0.252256
0.25875
0.255019
0.253644
0.249661
0.260832
0.255422
0.252691
0.254981
0.198122
0.197606
0.185674
0.197022
0.195951
0.189527
0.19236
0.187571
0.204817
0.199096
0.197171
0.194825
0.193775
0.193301
0.197711
0.208245
0.217391
0.21675
0.213806
0.22031
0.215082
0.217133
0.212471
0.214567
0.213926
0.21254
0.224693
0.222922
0.221897
0.22236
0.221178
0.223431
0.22208
0.215808
0.223668
0.220575
0.223495
0.220379
0.226
0.224796
0.223443
0.225856
0.22531
0.222345
0.221187
0.195262
0.191595
0.188686
0.193962
0.201848
0.192261
0.204474
0.200109
0.199257
0.198253
0.192758
0.193221
0.199313
0.194061
0.192574
0.19647
0.197376
0.275988
0.273055
0.266945
0.273188
0.264351
0.25944
0.269429
0.268624
0.234799
0.240124
0.238165
0.229889
0.228157
0.239613
0.240663
0.240162
0.252562
0.244506
0.251637
0.249926
0.279684
0.279278
0.281432
0.277683
0.276736
0.285563
0.279988
0.279169
0.280936
0.278206
0.275943
0.227492
0.228109
0.224402
0.226052
0.218506
0.22146
0.227709
0.231326
0.230449
0.221385
0.22056
0.211811
0.210509
0.222798
0.22013
0.221284
0.219485
0.218459
0.212616
0.221316
0.211852
0.209059
0.20754
0.213136
0.215168
0.213606
0.211517
0.219896
0.217852
0.22976
0.220351
0.233622
0.224179
0.223754
0.224636
0.222703
0.231183
0.21702
0.214484
0.221117
0.218177
0.218139
0.21828
0.21582
0.211396
0.223099
0.213179
0.217422
0.220646
0.217888
0.237926
0.237885
0.238899
0.229291
0.230886
0.231744
0.240837
0.237099
0.24044
0.237407
0.206878
0.200043
0.201249
0.206198
0.202686
0.215206
0.21072
0.206725
0.206381
0.207563
0.198792
0.212991
0.21507
0.207719
0.201308
0.20533
0.209328
0.210809
0.20993
0.199534
0.209514
0.198438
0.199089
0.20526
0.207164
0.215156
0.214053
0.209204
0.240679
0.246623
0.244202
0.236913
0.239107
0.238909
0.245227
0.240498
0.246315
0.244069
0.24271
0.241132
0.243547
0.23891
0.251944
0.251583
0.249209
0.24835
0.244673
0.244598
0.245069
0.244162
0.251074
0.254192
0.251278
0.251679
0.248401
0.247827
0.254493
0.255114
0.255443
0.250473
0.252096
0.24973
0.25091
0.172743
0.172883
0.253802
0.254831
0.262094
0.252492
0.254777
0.256325
0.26637
0.269963
0.271018
0.264553
0.265433
0.265001
0.26729
0.265982
0.260869
0.257233
0.255346
0.264024
0.260783
0.265575
0.25689
0.258603
0.26277
0.264531
0.267966
0.256323
0.252535
0.268217
0.25744
0.253887
0.267215
0.264667
0.267315
0.27186
0.269243
0.264146
0.261748
0.192903
0.194304
0.200999
0.201332
0.199084
0.197806
0.204993
0.206596
0.207909
0.196427
0.205938
0.197453
0.202153
0.198203
0.199856
0.200279
0.194498
0.193714
0.199099
0.203824
0.198568
0.204948
0.203734
0.207234
0.206286
0.193048
0.194353
0.194304
0.199506
0.199192
0.22279
0.230496
0.228957
0.225882
0.233792
0.230327
0.22591
0.226196
0.226639
0.226354
0.229653
0.216293
0.224327
0.219834
0.21375
0.211459
0.210851
0.209182
0.215204
0.214088
0.204659
0.211158
0.212531
0.208494
0.206503
0.205795
0.205171
0.205591
0.210242
0.215657
0.215315
0.223778
0.223966
0.219709
0.216891
0.217572
0.219864
0.217971
0.223647
0.218278
0.218041
0.182881
0.186285
0.193289
0.188181
0.184921
0.183502
0.196737
0.18643
0.195052
0.185888
0.192724
0.185777
0.192023
0.191457
0.185446
0.180649
0.178552
0.183788
0.183496
0.184183
0.183679
0.175288
0.174011
0.181956
0.180627
0.178561
0.17947
0.177428
0.17294
0.179605
0.182518
0.180444
0.17401
0.176111
0.193398
0.184555
0.18601
0.188365
0.185772
0.178611
0.17942
0.179452
0.184493
0.18385
0.179036
0.178104
0.230888
0.225417
0.221624
0.227673
0.227795
0.227541
0.204917
0.204021
0.202835
0.19929
0.203151
0.212075
0.212544
0.212078
0.215366
0.215398
0.210272
0.206959
0.219551
0.221535
0.218577
0.224808
0.21922
0.224536
0.219042
0.233918
0.228373
0.228255
0.230701
0.219649
0.215452
0.221282
0.220138
0.211036
0.214217
0.222739
0.223092
0.227418
0.222658
0.224117
0.191944
0.189389
0.186417
0.184409
0.191077
0.196811
0.200578
0.197105
0.201281
0.192779
0.199128
0.194992
0.194195
0.199959
0.199508
0.192758
0.194889
0.19564
0.199136
0.197474
0.216595
0.208922
0.209792
0.203378
0.209881
0.207959
0.21035
0.202744
0.191007
0.193206
0.191971
0.195913
0.184977
0.189019
0.187053
0.198665
0.195491
0.194226
0.186449
0.188418
0.18798
0.190614
0.185086
0.265448
0.269048
0.271701
0.270243
0.27147
0.266077
0.245297
0.238442
0.242928
0.243676
0.253811
0.250674
0.254458
0.251223
0.2522
0.245839
0.252631
0.256795
0.255542
0.255526
0.177327
0.178733
0.179326
0.1758
0.173835
0.179304
0.177897
0.170678
0.173994
0.172779
0.222104
0.221043
0.214037
0.222908
0.223045
0.213997
0.218249
0.221291
0.220446
0.217894
0.21634
0.211327
0.20826
0.209208
0.208501
0.216455
0.28261
0.27668
0.274526
0.280139
0.279477
0.27892
0.283882
0.282429
0.281849
0.281221
0.278611
0.245588
0.245182
0.2414
0.258002
0.252939
0.245039
0.247886
0.247724
0.249212
0.249928
0.247164
0.242322
0.250619
0.239366
0.241916
0.246509
0.240895
0.242219
0.238972
0.246278
0.245868
0.239575
0.240173
0.273779
0.185534
0.186546
0.195968
0.197681
0.195593
0.194768
0.207957
0.212604
0.213039
0.210354
0.209551
0.210599
0.209168
0.217999
0.213859
0.215909
0.216929
0.219427
0.218598
0.210144
0.210976
0.212693
0.217627
0.215699
0.215093
0.214277
0.197748
0.192052
0.195433
0.197377
0.200828
0.19855
0.18864
0.206275
0.195986
0.194207
0.202701
0.200623
0.198953
0.198783
0.182992
0.188104
0.187815
0.188227
0.18522
0.19215
0.187775
0.186883
0.241788
0.242121
0.236771
0.238374
0.241444
0.238772
0.234668
0.239449
0.234405
0.203821
0.202125
0.209739
0.208537
0.208253
0.202313
0.203057
0.209413
0.205545
0.209484
0.207795
0.208792
0.194283
0.195993
0.196732
0.201986
0.20083
0.196261
0.202868
0.200791
0.200044
0.197047
0.195568
0.257107
0.264448
0.259836
0.261279
0.258567
0.258014
0.261547
0.261308
0.2578
0.258245
0.256875
0.257931
0.254303
0.255271
0.257507
0.258535
0.272965
0.272933
0.273218
0.274683
0.174015
0.17053
0.178184
0.177536
0.171437
0.170252
0.258789
0.260115
0.259817
0.258776
0.257414
0.265797
0.262032
0.271285
0.272079
0.278686
0.274408
0.280808
0.273198
0.277245
0.2773
0.276375
0.274916
0.266191
0.271048
0.26345
0.259561
0.267415
0.264929
0.258585
0.25984
0.264606
0.265644
0.266168
0.277883
0.180301
0.179789
0.182538
0.180455
0.184028
0.187335
0.182957
0.184866
0.173718
0.172473
0.175918
0.17667
0.174467
0.173501
0.175477
0.171145
0.279013
0.280366
0.279069
0.283768
0.27583
0.272435
0.27129
0.269211
0.271517
0.275746
0.271856
0.271095
0.264289
0.262673
0.268945
0.272605
0.274662
0.273132
0.202817
0.202543
0.207692
0.206095
0.208442
0.204668
0.203822
0.205002
0.20443
0.199277
0.201999
0.202799
0.202399
0.222842
0.219141
0.221683
0.223252
0.220362
0.219513
0.221928
0.199086
0.198618
0.193989
0.192489
0.190991
0.192156
0.228472
0.233943
0.23009
0.226106
0.222061
0.219632
0.229322
0.225708
0.231246
0.174355
0.172396
0.171078
0.167245
0.170235
0.172053
0.168741
0.172644
0.167627
0.169575
0.168507
0.254542
0.249605
0.252655
0.256546
0.258039
0.252073
0.249166
0.252775
0.257191
0.257637
0.255534
0.255357
0.266265
0.264642
0.263166
0.261291
0.262399
0.262257
0.262314
0.267539
0.264765
0.251362
0.259305
0.256694
0.256328
0.25618
0.257049
0.278725
0.273937
0.271997
0.275007
0.275274
0.270538
0.271927
0.272489
0.219756
0.218881
0.226262
0.228878
0.223351
0.221739
0.214674
0.223581
0.222904
0.220152
0.225842
0.225539
0.218089
0.21597
0.214063
0.215205
0.219802
0.213883
0.21404
0.213077
0.217526
0.218409
0.217567
0.204919
0.207526
0.203326
0.199103
0.197509
0.208849
0.201883
0.203745
0.25743
0.257672
0.250962
0.24905
0.248838
0.243687
0.250934
0.247154
0.255304
0.198029
0.203302
0.206007
0.201391
0.196976
0.198758
0.202436
0.208424
0.203309
0.207741
0.204096
0.212197
0.205118
0.199864
0.2065
0.197955
0.200127
0.194305
0.193166
0.189428
0.193971
0.194048
0.196402
0.196723
0.201881
0.205281
0.206139
0.201025
0.204905
0.193343
0.194215
0.195952
0.200691
0.196949
0.194152
0.192697
0.192065
0.192702
0.255691
0.256184
0.259578
0.258033
0.256631
0.256051
0.252423
0.252988
0.263432
0.271631
0.266765
0.259571
0.273148
0.266384
0.269647
0.269983
0.2659
0.261857
0.266653
0.267104
0.236568
0.243202
0.242585
0.242036
0.243362
0.241587
0.252363
0.247836
0.239859
0.242664
0.250531
0.263288
0.254177
0.255581
0.258177
0.254859
0.260003
0.257762
0.254233
0.253131
0.25118
0.238283
0.238852
0.248118
0.251248
0.254499
0.253638
0.238084
0.248295
0.249727
0.24656
0.245225
0.238959
0.241417
0.215776
0.213706
0.203251
0.21227
0.205194
0.201921
0.211308
0.214096
0.212937
0.20987
0.206974
0.208092
0.186171
0.189566
0.184048
0.191337
0.185675
0.185323
0.179777
0.264655
0.277817
0.274598
0.279089
0.273962
0.278224
0.27444
0.274187
0.27376
0.277112
0.186485
0.181792
0.182023
0.184569
0.185164
0.183244
0.180805
0.184397
0.185475
0.177927
0.182491
0.179859
0.177613
0.17521
0.184168
0.188231
0.193013
0.188599
0.182427
0.185181
0.186901
0.183572
0.18402
0.180894
0.179099
0.249414
0.248164
0.246257
0.251698
0.248678
0.253529
0.249814
0.246993
0.236514
0.232402
0.234709
0.236683
0.235226
0.232225
0.232625
0.230169
0.247051
0.25389
0.253691
0.249703
0.25146
0.252388
0.250071
0.249002
0.239049
0.253271
0.246026
0.249219
0.248031
0.251026
0.245585
0.241985
0.251864
0.253547
0.253538
0.249265
0.244717
0.254462
0.251715
0.241476
0.236093
0.232118
0.237706
0.238846
0.236104
0.234382
0.232595
0.233856
0.244232
0.238694
0.232952
0.240234
0.243245
0.242985
0.241957
0.235573
0.236506
0.229298
0.227254
0.234287
0.234397
0.233436
0.235426
0.234298
0.237981
0.231371
0.231429
0.235386
0.23135
0.229795
0.227523
0.232849
0.229483
0.225704
0.23629
0.22547
0.224228
0.225971
0.224468
0.221248
0.227158
0.284049
0.277355
0.276046
0.284756
0.282786
0.279222
0.279873
0.276617
0.273599
0.267766
0.262313
0.261121
0.271468
0.261216
0.284551
0.278922
0.275444
0.268074
0.268122
0.270893
0.277814
0.270217
0.273756
0.28003
0.27675
0.278227
0.277904
0.19124
0.190238
0.193477
0.196076
0.191664
0.193772
0.193986
0.193676
0.192862
0.206503
0.199745
0.187852
0.179161
0.222841
0.230562
0.224258
0.224395
0.224326
0.224347
0.227476
0.230102
0.22985
0.224177
0.223693
0.2188
0.214128
0.214451
0.217829
0.219046
0.219884
0.222557
0.220685
0.22065
0.216923
0.218543
0.187724
0.195156
0.188113
0.190258
0.194528
0.194682
0.189057
0.191651
0.193608
0.191819
0.192833
0.188965
0.19035
0.181862
0.182266
0.183965
0.184182
0.181636
0.177599
0.187129
0.18711
0.187261
0.182985
0.248038
0.24468
0.242935
0.241018
0.256492
0.255442
0.244942
0.250914
0.242477
0.241628
0.251361
0.252889
0.251015
0.25962
0.241368
0.266792
0.263868
0.268257
0.259507
0.259172
0.264921
0.260665
0.261274
0.256861
0.255453
0.1814
0.178258
0.170092
0.168844
0.174964
0.180456
0.175905
0.176823
0.172673
0.168661
0.172218
0.169808
0.170435
0.230229
0.230134
0.224467
0.229751
0.230604
0.239798
0.235924
0.236298
0.227707
0.233223
0.231079
0.233664
0.235011
0.231043
0.228684
0.220277
0.223445
0.219988
0.221487
0.223362
0.217256
0.214389
0.212272
0.226798
0.220492
0.226096
0.227916
0.220546
0.22256
0.227623
0.215502
0.224722
0.223222
0.222829
0.218198
0.184088
0.189273
0.190008
0.183727
0.189593
0.185062
0.194237
0.190931
0.189879
0.189335
0.186219
0.180061
0.257203
0.250692
0.263408
0.258516
0.251567
0.256984
0.257068
0.259342
0.258085
0.250095
0.250457
0.250337
0.252642
0.251579
0.252958
0.252374
0.251401
0.236225
0.233837
0.239551
0.231706
0.230382
0.229248
0.226387
0.234172
0.234544
0.225376
0.229719
0.212302
0.210971
0.205362
0.212832
0.213005
0.213127
0.206419
0.205341
0.208982
0.210462
0.209878
0.209084
0.228339
0.229721
0.18979
0.191321
0.193373
0.197976
0.192918
0.267942
0.2636
0.255248
0.270582
0.270795
0.268411
0.270062
0.264903
0.269213
0.268127
0.274376
0.273616
0.266666
0.268125
0.26681
0.270319
0.272
0.275028
0.273981
0.275913
0.27319
0.237112
0.238915
0.187823
0.191425
0.18538
0.190435
0.193588
0.189637
0.190069
0.196367
0.195602
0.197605
0.196872
0.202118
0.194439
0.174062
0.177986
0.178811
0.18226
0.183612
0.184452
0.181666
0.180163
0.180804
0.180786
0.236182
0.244763
0.247336
0.248982
0.244934
0.241619
0.248471
0.244676
0.240722
0.24121
0.245231
0.248219
0.243742
0.243805
0.242016
0.246062
0.246319
0.244188
0.233561
0.236388
0.231643
0.236825
0.234669
0.239327
0.233342
0.23436
0.239092
0.240744
0.236251
0.23607
0.229903
0.23165
0.230737
0.234281
0.231347
0.229758
0.2315
0.23475
0.238085
0.243199
0.239874
0.240488
0.17797
0.18073
0.182579
0.180546
0.179908
0.180899
0.182164
0.17719
0.177544