# Wall shear stress
# Time       	patch        	min          	max          
5.000000e+01	WALL	(-3.732679e-02 -1.454683e-01 -6.223528e-02)	(9.415042e-02 5.767706e-02 8.539998e-02)
1.000000e+02	WALL	(-3.640757e-02 -1.454683e-01 -5.984079e-02)	(9.415044e-02 5.656858e-02 8.539997e-02)
1.500000e+02	WALL	(-3.135679e-02 -1.454683e-01 -5.448447e-02)	(9.415045e-02 5.665586e-02 9.245829e-02)
2.000000e+02	WALL	(-3.082815e-02 -1.454683e-01 -6.278497e-02)	(9.415045e-02 5.915936e-02 1.009144e-01)
2.060000e+02	WALL	(-3.072695e-02 -1.454683e-01 -6.404462e-02)	(9.415045e-02 5.974306e-02 1.022613e-01)
